/*--------------------------------*- C++ -*----------------------------------*\
| =========                 |                                                 |
| \\      /  F ield         | OpenFOAM: The Open Source CFD Toolbox           |
|  \\    /   O peration     | Version:  dev                                   |
|   \\  /    A nd           | Web:      www.OpenFOAM.org                      |
|    \\/     M anipulation  |                                                 |
\*---------------------------------------------------------------------------*/
FoamFile
{
    version     2.0;
    format      ascii;
    class       surfaceScalarField;
    location    "4.27";
    object      meshPhi;
}
// * * * * * * * * * * * * * * * * * * * * * * * * * * * * * * * * * * * * * //

dimensions      [0 3 -1 0 0 0 0];

internalField   nonuniform List<scalar> 
5457
(
6.67594e-06
1.55728e-07
1.18997e-05
4.44225e-07
1.49805e-05
6.94918e-07
1.57561e-05
9.11671e-07
1.4319e-05
1.09954e-06
1.09473e-05
1.26076e-06
6.05302e-06
1.39558e-06
1.34404e-07
1.50291e-06
-6.27003e-06
1.58106e-06
-1.2626e-05
1.62823e-06
-1.84451e-05
1.64298e-06
-2.33217e-05
1.62458e-06
-2.69612e-05
1.57337e-06
-2.91974e-05
1.49101e-06
-2.99967e-05
1.38064e-06
-2.94487e-05
1.24693e-06
-2.77449e-05
1.096e-06
-2.51484e-05
9.35067e-07
-2.19597e-05
7.7192e-07
-1.84857e-05
6.14249e-07
-1.47942e-05
4.69111e-07
-1.10671e-05
3.41964e-07
-7.75571e-06
2.3609e-07
-5.07164e-06
1.52878e-07
-3.03475e-06
9.16057e-08
-1.60782e-06
4.96788e-08
-7.10501e-07
2.34882e-08
-2.32818e-07
9.04209e-09
-4.63077e-08
2.49316e-09
4.03984e-10
6.79117e-06
3.10644e-07
1.21036e-05
8.86169e-07
1.52471e-05
1.38639e-06
1.60641e-05
1.81909e-06
1.46479e-05
2.19435e-06
1.12772e-05
2.51667e-06
6.36501e-06
2.78649e-06
4.11406e-07
3.00168e-06
-6.04227e-06
3.15885e-06
-1.24579e-05
3.25437e-06
-1.83424e-05
3.28534e-06
-2.32849e-05
3.25028e-06
-2.69859e-05
3.14979e-06
-2.92749e-05
2.98706e-06
-3.01152e-05
2.76824e-06
-2.95948e-05
2.50256e-06
-2.79051e-05
2.20211e-06
-2.531e-05
1.88124e-06
-2.21111e-05
1.55553e-06
-1.86129e-05
1.24042e-06
-1.49079e-05
9.49708e-07
-1.11651e-05
6.939e-07
-7.82161e-06
4.79974e-07
-5.11387e-06
3.11434e-07
-3.05952e-06
1.87089e-07
-1.62054e-06
1.01782e-07
-7.15848e-07
4.8309e-08
-2.34487e-07
1.86918e-08
-4.66731e-08
5.21158e-09
8.29759e-10
6.92386e-06
4.63638e-07
1.23442e-05
1.32265e-06
1.55723e-05
2.06941e-06
1.6455e-05
2.71561e-06
1.50861e-05
3.27636e-06
1.17442e-05
3.7584e-06
6.84214e-06
4.16243e-06
8.79789e-07
4.48533e-06
-5.60088e-06
4.72207e-06
-1.20601e-05
4.86729e-06
-1.80019e-05
4.91664e-06
-2.30118e-05
4.86788e-06
-2.67854e-05
4.72178e-06
-2.91473e-05
4.4829e-06
-3.00564e-05
4.16016e-06
-2.95964e-05
3.76705e-06
-2.79558e-05
3.32133e-06
-2.53968e-05
2.84423e-06
-2.22201e-05
2.35884e-06
-1.873e-05
1.88826e-06
-1.50271e-05
1.45222e-06
-1.12701e-05
1.06537e-06
-7.89765e-06
7.39405e-07
-5.16527e-06
4.81459e-07
-3.09094e-06
2.90423e-07
-1.63719e-06
1.58747e-07
-7.22982e-07
7.57474e-08
-2.36706e-07
2.94944e-08
-4.71429e-08
8.32536e-09
1.33012e-09
7.06339e-06
6.13552e-07
1.26052e-05
1.75035e-06
1.59373e-05
2.73874e-06
1.6909e-05
3.59429e-06
1.56152e-05
4.33707e-06
1.23336e-05
4.97609e-06
7.47519e-06
5.5124e-06
1.53766e-06
5.94202e-06
-4.93911e-06
6.25844e-06
-1.14165e-05
6.4547e-06
-1.73985e-05
6.5251e-06
-2.24687e-05
6.46665e-06
-2.63192e-05
6.2802e-06
-2.87698e-05
5.97148e-06
-2.97732e-05
5.55186e-06
-2.9407e-05
5.03863e-06
-2.78536e-05
4.45475e-06
-2.53701e-05
3.82776e-06
-2.22538e-05
3.18789e-06
-1.88092e-05
2.56549e-06
-1.51273e-05
1.98503e-06
-1.13632e-05
1.46417e-06
-7.97101e-06
1.02069e-06
-5.21744e-06
6.67586e-07
-3.12382e-06
4.0471e-07
-1.65485e-06
2.22414e-07
-7.30517e-07
1.06728e-07
-2.38983e-07
4.18161e-08
-4.7591e-08
1.19257e-08
1.91878e-09
7.23678e-06
7.5932e-07
1.29333e-05
2.16624e-06
1.63998e-05
3.38962e-06
1.7489e-05
4.44883e-06
1.62968e-05
5.36884e-06
1.31001e-05
6.16097e-06
8.30738e-06
6.82671e-06
2.41297e-06
7.3614e-06
-4.04653e-06
7.75725e-06
-1.0535e-05
8.00589e-06
-1.65571e-05
8.10041e-06
-2.16952e-05
8.03709e-06
-2.5638e-05
7.8168e-06
-2.81993e-05
7.44618e-06
-2.93244e-05
6.93865e-06
-2.90828e-05
6.31475e-06
-2.76486e-05
5.60193e-06
-2.52716e-05
4.83343e-06
-2.22439e-05
4.04595e-06
-1.8867e-05
3.27661e-06
-1.52196e-05
2.55318e-06
-1.14546e-05
1.89502e-06
-8.04543e-06
1.32761e-06
-5.27098e-06
8.72507e-07
-3.15732e-06
5.3167e-07
-1.67239e-06
2.93738e-07
-7.37659e-07
1.41688e-07
-2.40968e-07
5.5803e-08
-4.79257e-08
1.60307e-08
2.59443e-09
7.44505e-06
8.99912e-07
1.33293e-05
2.56736e-06
1.69604e-05
4.01739e-06
1.81949e-05
5.27309e-06
1.71306e-05
6.3642e-06
1.40435e-05
7.30435e-06
9.33881e-06
8.09565e-06
3.50671e-06
8.73295e-06
-2.92081e-06
9.20742e-06
-9.41126e-06
9.50949e-06
-1.54713e-05
9.63125e-06
-2.06826e-05
9.5683e-06
-2.473e-05
9.32145e-06
-2.74213e-05
8.89802e-06
-2.86931e-05
8.31299e-06
-2.86047e-05
7.58954e-06
-2.73201e-05
6.75876e-06
-2.508e-05
5.85887e-06
-2.21689e-05
4.93225e-06
-1.88832e-05
4.02201e-06
-1.52867e-05
3.15779e-06
-1.15303e-05
2.35929e-06
-8.10947e-06
1.66138e-06
-5.3172e-06
1.09706e-06
-3.18543e-06
6.71785e-07
-1.68619e-06
3.72916e-07
-7.42614e-07
1.80659e-07
-2.42012e-07
7.14254e-08
-4.80016e-08
2.06087e-08
3.34742e-09
7.68885e-06
1.03436e-06
1.37936e-05
2.95092e-06
1.76188e-05
4.61765e-06
1.90261e-05
6.0612e-06
1.81156e-05
7.31592e-06
1.51625e-05
8.3978e-06
1.05688e-05
9.30968e-06
4.8192e-06
1.00462e-05
-1.55998e-06
1.05977e-05
-8.04123e-06
1.09537e-05
-1.41342e-05
1.11054e-05
-1.94205e-05
1.1048e-05
-2.35818e-05
1.07822e-05
-2.64188e-05
1.03156e-05
-2.78588e-05
9.66433e-06
-2.79496e-05
8.85366e-06
-2.68429e-05
7.91713e-06
-2.47683e-05
6.89648e-06
-2.20015e-05
5.83959e-06
-1.88316e-05
4.79549e-06
-1.53052e-05
3.79392e-06
-1.15713e-05
2.85347e-06
-8.1489e-06
2.01996e-06
-5.34578e-06
1.34022e-06
-3.20105e-06
8.24399e-07
-1.69201e-06
4.59479e-07
-7.43295e-07
2.23337e-07
-2.41363e-07
8.8517e-08
-4.76532e-08
2.55939e-08
4.16369e-09
7.96881e-06
1.16175e-06
1.43267e-05
3.31435e-06
1.83749e-05
5.18632e-06
1.99814e-05
6.80769e-06
1.92499e-05
8.21726e-06
1.64553e-05
9.43332e-06
1.19958e-05
1.04596e-05
6.34997e-06
1.12908e-05
3.72886e-08
1.19167e-05
-6.42102e-06
1.23262e-05
-1.25388e-05
1.25101e-05
-1.78984e-05
1.2463e-05
-2.21784e-05
1.21854e-05
-2.51727e-05
1.16852e-05
-2.67983e-05
1.09792e-05
-2.70907e-05
1.00934e-05
-2.6188e-05
9.06335e-06
-2.43065e-05
7.93364e-06
-2.17105e-05
6.75652e-06
-1.86805e-05
5.58647e-06
-1.52456e-05
4.45222e-06
-1.15523e-05
3.36991e-06
-8.1438e-06
2.39763e-06
-5.3434e-06
1.59837e-06
-3.196e-06
9.87708e-07
-1.68501e-06
5.52536e-07
-7.37324e-07
2.69233e-07
-2.38158e-07
1.06852e-07
-4.66894e-08
3.09111e-08
5.02971e-09
8.28574e-06
1.28131e-06
1.49293e-05
3.65535e-06
1.92283e-05
5.71972e-06
2.10592e-05
7.50761e-06
2.0531e-05
9.06199e-06
1.79189e-05
1.04035e-05
1.3617e-05
1.15369e-05
8.09738e-06
1.2457e-05
1.87125e-06
1.31535e-05
-4.54764e-06
1.36151e-05
-1.06785e-05
1.38321e-05
-1.61056e-05
1.37988e-05
-2.05047e-05
1.3516e-05
-2.36629e-05
1.29914e-05
-2.5487e-05
1.22412e-05
-2.60001e-05
1.12916e-05
-2.53252e-05
1.01803e-05
-2.36623e-05
8.95505e-06
-2.12619e-05
7.67021e-06
-1.83953e-05
6.38387e-06
-1.50757e-05
5.12307e-06
-1.14447e-05
3.90083e-06
-8.07022e-06
2.78818e-06
-5.29288e-06
1.86687e-06
-3.16032e-06
1.15897e-06
-1.6598e-06
6.50933e-07
-7.22026e-07
3.17928e-07
-2.31416e-07
1.26263e-07
-4.48798e-08
3.65174e-08
5.94098e-09
8.64078e-06
1.39232e-06
1.56023e-05
3.9719e-06
2.01782e-05
6.21464e-06
2.22572e-05
8.15659e-06
2.19552e-05
9.8446e-06
1.95489e-05
1.13016e-05
1.54284e-05
1.25335e-05
1.00582e-05
1.35355e-05
3.94057e-06
1.42977e-05
-2.41959e-06
1.48085e-05
-8.54824e-06
1.50581e-05
-1.40328e-05
1.50412e-05
-1.85464e-05
1.47583e-05
-2.18696e-05
1.42166e-05
-2.39008e-05
1.34314e-05
-2.46494e-05
1.24298e-05
-2.42208e-05
1.12513e-05
-2.27978e-05
9.94448e-06
-2.06166e-05
8.56525e-06
-1.79384e-05
7.17394e-06
-1.47611e-05
5.79489e-06
-1.12213e-05
4.43764e-06
-7.90714e-06
3.18633e-06
-5.17725e-06
2.1425e-06
-3.08229e-06
1.3362e-06
-1.61005e-06
7.5377e-07
-6.94348e-07
3.69275e-07
-2.19979e-07
1.46827e-07
-4.1921e-08
4.24716e-08
6.9143e-09
9.03565e-06
1.49422e-06
1.63471e-05
4.26236e-06
2.12242e-05
6.66842e-06
2.35723e-05
8.75094e-06
2.35179e-05
1.05604e-05
2.13395e-05
1.21218e-05
1.74238e-05
1.34424e-05
1.22272e-05
1.45182e-05
6.24176e-06
1.53396e-05
-3.75582e-08
1.58952e-05
-6.14498e-06
1.61757e-05
-1.16727e-05
1.61756e-05
-1.62912e-05
1.58957e-05
-1.97754e-05
1.53425e-05
-2.20163e-05
1.45312e-05
-2.3008e-05
1.34901e-05
-2.28382e-05
1.22582e-05
-2.16735e-05
1.0884e-05
-1.97345e-05
9.42404e-06
-1.72707e-05
7.94024e-06
-1.42668e-05
6.45362e-06
-1.08543e-05
4.96998e-06
-7.63489e-06
3.58607e-06
-4.9817e-06
2.42277e-06
-2.95006e-06
1.5187e-06
-1.52832e-06
8.613e-07
-6.50704e-07
4.24058e-07
-2.02337e-07
1.6921e-07
-3.73337e-08
4.90632e-08
8.021e-09
9.47304e-06
1.58658e-06
1.71662e-05
4.5255e-06
2.23651e-05
7.07904e-06
2.50007e-05
9.28783e-06
2.52125e-05
1.12056e-05
2.3283e-05
1.28594e-05
1.95949e-05
1.42579e-05
1.45964e-05
1.5398e-05
8.76855e-06
1.62708e-05
2.59484e-06
1.68655e-05
-3.46854e-06
1.71732e-05
-9.02062e-06
1.71888e-05
-1.37303e-05
1.69128e-05
-1.73662e-05
1.63522e-05
-1.98115e-05
1.55235e-05
-2.10472e-05
1.44541e-05
-2.11453e-05
1.31816e-05
-2.02548e-05
1.1754e-05
-1.85797e-05
1.0228e-05
-1.6356e-05
8.66601e-06
-1.35592e-05
7.08532e-06
-1.03155e-05
5.48794e-06
-7.23186e-06
3.98192e-06
-4.69059e-06
2.70609e-06
-2.75192e-06
1.70753e-06
-1.40618e-06
9.758e-07
-5.86123e-07
4.84558e-07
-1.76068e-07
1.95028e-07
-3.01766e-08
5.7063e-08
9.45756e-09
9.95719e-06
1.66915e-06
1.80633e-05
4.76056e-06
2.35998e-05
7.4452e-06
2.6537e-05
9.76534e-06
2.70311e-05
1.17775e-05
2.53692e-05
1.35108e-05
2.19308e-05
1.49754e-05
1.71552e-05
1.61694e-05
1.15114e-05
1.70846e-05
5.47034e-06
1.77112e-05
-5.22489e-07
1.8041e-05
-6.07434e-06
1.80696e-05
-1.08571e-05
1.77972e-05
-1.46305e-05
1.72324e-05
-1.7269e-05
1.63928e-05
-1.87458e-05
1.53041e-05
-1.91167e-05
1.40028e-05
-1.85129e-05
1.2536e-05
-1.71214e-05
1.09596e-05
-1.51633e-05
9.3356e-06
-1.2609e-05
7.67749e-06
-9.57949e-06
5.98323e-06
-6.67684e-06
4.37013e-06
-4.28721e-06
2.99271e-06
-2.47497e-06
1.90595e-06
-1.23285e-06
1.10195e-06
-4.9249e-07
5.55391e-07
-1.36449e-07
2.27819e-07
-1.82614e-08
6.83446e-08
1.17496e-08
1.04945e-05
1.74184e-06
1.90447e-05
4.96731e-06
2.49265e-05
7.76645e-06
2.81748e-05
1.01826e-05
2.89636e-05
1.22749e-05
2.75857e-05
1.40742e-05
2.44177e-05
1.55922e-05
1.98895e-05
1.68286e-05
1.44569e-05
1.77762e-05
8.57746e-06
1.84264e-05
2.68472e-06
1.87719e-05
-2.83716e-06
1.88092e-05
-7.66774e-06
1.85394e-05
-1.15609e-05
1.79721e-05
-1.43797e-05
1.71253e-05
-1.60907e-05
1.60247e-05
-1.67351e-05
1.47054e-05
-1.64271e-05
1.32133e-05
-1.53367e-05
1.16031e-05
-1.36693e-05
9.93562e-06
-1.13938e-05
8.22003e-06
-8.62529e-06
6.44986e-06
-5.95046e-06
4.74888e-06
-3.75355e-06
3.28445e-06
-2.1023e-06
2.11872e-06
-9.92219e-07
1.24658e-06
-3.555e-07
6.44329e-07
-7.29683e-08
2.74525e-07
4.00514e-09
8.72639e-08
1.63453e-08
1.10307e-05
1.80429e-06
2.00805e-05
5.14583e-06
2.63516e-05
8.04458e-06
2.99125e-05
1.05425e-05
3.10055e-05
1.27006e-05
2.99262e-05
1.45522e-05
2.70484e-05
1.61107e-05
2.27923e-05
1.73775e-05
1.75993e-05
1.83468e-05
1.19117e-05
1.90112e-05
6.15071e-06
1.93648e-05
6.91497e-07
1.94056e-05
-4.15453e-06
1.91363e-05
-8.14424e-06
1.85667e-05
-1.11297e-05
1.77155e-05
-1.30654e-05
1.66089e-05
-1.39817e-05
1.52813e-05
-1.3977e-05
1.37776e-05
-1.32046e-05
1.21511e-05
-1.18538e-05
1.04607e-05
-9.8943e-06
8.71088e-06
-7.43351e-06
6.88914e-06
-5.03253e-06
5.12241e-06
-3.06776e-06
3.58795e-06
-1.61e-06
2.35449e-06
-6.58349e-07
1.42023e-06
-1.47282e-07
7.63699e-07
4.22361e-08
3.48603e-07
5.95804e-08
1.26108e-07
2.84567e-08
8.8834e-08
-7.66725e-10
4.59174e-07
-4.83806e-09
1.47232e-06
-1.84776e-08
3.48233e-06
-5.01487e-08
6.79103e-06
-1.09708e-07
1.16006e-05
-2.07306e-07
1.7986e-05
-3.52137e-07
2.58925e-05
-5.51189e-07
3.5151e-05
-8.08543e-07
4.47337e-05
-1.10394e-06
5.37344e-05
-1.39625e-06
6.22673e-05
-1.67126e-06
7.02752e-05
-1.93327e-06
7.74485e-05
-2.17533e-06
8.35101e-05
-2.38625e-06
8.82314e-05
-2.55676e-06
9.14424e-05
-2.68017e-06
9.30363e-05
-2.75252e-06
9.29698e-05
-2.77235e-06
9.12569e-05
-2.74036e-06
8.79581e-05
-2.65891e-06
8.31651e-05
-2.53153e-06
7.69834e-05
-2.36239e-06
6.95145e-05
-2.15576e-06
6.08409e-05
-1.91545e-06
5.10126e-05
-1.64407e-06
4.00393e-05
-1.34233e-06
2.78856e-05
-1.00817e-06
1.44627e-05
-6.35837e-07
-2.20968e-07
9.01423e-08
-1.50632e-09
4.65588e-07
-9.75818e-09
1.48953e-06
-3.69448e-08
3.51489e-06
-1.00007e-07
6.8407e-06
-2.18405e-07
1.16651e-05
-4.12117e-07
1.80588e-05
-6.99176e-07
2.59605e-05
-1.09312e-06
3.51818e-05
-1.6012e-06
4.47799e-05
-2.18518e-06
5.3811e-05
-2.76529e-06
6.23225e-05
-3.31047e-06
7.03218e-05
-3.8294e-06
7.7491e-05
-4.30997e-06
8.35488e-05
-4.72943e-06
8.82651e-05
-5.06919e-06
9.14688e-05
-5.3158e-06
9.30532e-05
-5.46119e-06
9.29756e-05
-5.50235e-06
9.1251e-05
-5.44051e-06
8.79413e-05
-5.28025e-06
8.31392e-05
-5.02847e-06
7.69512e-05
-4.69343e-06
6.94794e-05
-4.28363e-06
6.0806e-05
-3.80662e-06
5.0981e-05
-3.26764e-06
4.00136e-05
-2.6681e-06
2.78678e-05
-2.00397e-06
1.44539e-05
-1.26384e-06
-4.39193e-07
9.10872e-08
-2.26488e-09
4.69846e-07
-1.47156e-08
1.49853e-06
-5.51067e-08
3.52512e-06
-1.4852e-07
6.84211e-06
-3.2339e-07
1.16413e-05
-6.08771e-07
1.79886e-05
-1.03075e-06
2.58205e-05
-1.60865e-06
3.49478e-05
-2.35199e-06
4.44923e-05
-3.20758e-06
5.34965e-05
-4.06171e-06
6.19683e-05
-4.8657e-06
6.9951e-05
-5.63163e-06
7.71204e-05
-6.34338e-06
8.31906e-05
-6.96675e-06
8.79271e-05
-7.47379e-06
9.11557e-05
-7.84412e-06
9.27674e-05
-8.06533e-06
9.27179e-05
-8.13242e-06
9.10218e-05
-8.04678e-06
8.77404e-05
-7.81482e-06
8.29664e-05
-7.44652e-06
7.68057e-05
-6.95394e-06
6.93603e-05
-6.3496e-06
6.07118e-05
-5.64467e-06
5.09098e-05
-4.84697e-06
3.99631e-05
-3.95864e-06
2.78358e-05
-2.97379e-06
1.44386e-05
-1.87562e-06
-6.51793e-07
9.12835e-08
-3.02256e-09
4.70042e-07
-1.957e-08
1.49419e-06
-7.25528e-08
3.50311e-06
-1.9453e-07
6.77957e-06
-4.21971e-07
1.15076e-05
-7.91926e-07
1.77498e-05
-1.33747e-06
2.54452e-05
-2.08279e-06
3.44183e-05
-3.03917e-06
4.38319e-05
-4.14144e-06
5.27515e-05
-5.24784e-06
6.11734e-05
-6.29368e-06
6.91366e-05
-7.29297e-06
7.63144e-05
-8.22548e-06
8.24158e-05
-9.04607e-06
8.72005e-05
-9.71754e-06
9.04889e-05
-1.02124e-05
9.21675e-05
-1.05135e-05
9.21887e-05
-1.06134e-05
9.05641e-05
-1.0513e-05
8.73529e-05
-1.022e-05
8.2646e-05
-9.74701e-06
7.6548e-05
-9.10945e-06
6.91592e-05
-8.32358e-06
6.05605e-05
-7.40397e-06
5.08009e-05
-6.36088e-06
3.98894e-05
-5.19723e-06
2.77909e-05
-3.90541e-06
1.44174e-05
-2.46365e-06
-8.5619e-07
9.11152e-08
-3.75052e-09
4.68145e-07
-2.41753e-08
1.48277e-06
-8.89072e-08
3.46339e-06
-2.37126e-07
6.68094e-06
-5.12209e-07
1.13107e-05
-9.57972e-07
1.7412e-05
-1.61326e-06
2.49285e-05
-2.50615e-06
3.36982e-05
-3.64925e-06
4.29335e-05
-4.96856e-06
5.17426e-05
-6.3009e-06
6.01078e-05
-7.56816e-06
6.80508e-05
-8.78441e-06
7.52422e-05
-9.92487e-06
8.13856e-05
-1.0934e-05
8.62343e-05
-1.17657e-05
8.96024e-05
-1.23853e-05
9.13705e-05
-1.27704e-05
9.14864e-05
-1.29106e-05
8.9958e-05
-1.28059e-05
8.68413e-05
-1.24644e-05
8.22247e-05
-1.19008e-05
7.62104e-05
-1.11335e-05
6.88971e-05
-1.0182e-05
6.03642e-05
-9.06409e-06
5.06603e-05
-7.79222e-06
3.97946e-05
-6.37012e-06
2.77331e-05
-4.78868e-06
1.43902e-05
-3.02158e-06
-1.0502e-06
9.06749e-08
-4.42809e-09
4.64693e-07
-2.84249e-08
1.46609e-06
-1.03878e-07
3.41058e-06
-2.75629e-07
6.55589e-06
-5.92766e-07
1.10681e-05
-1.10459e-06
1.70027e-05
-1.85434e-06
2.43083e-05
-2.87272e-06
3.28384e-05
-4.17354e-06
4.18612e-05
-5.67746e-06
5.05388e-05
-7.20682e-06
5.88387e-05
-8.6734e-06
6.67584e-05
-1.00887e-05
7.39642e-05
-1.14221e-05
8.01545e-05
-1.26091e-05
8.50762e-05
-1.3595e-05
8.85365e-05
-1.43379e-05
9.04099e-05
-1.48104e-05
9.06383e-05
-1.49983e-05
8.92252e-05
-1.48999e-05
8.62226e-05
-1.45234e-05
8.17154e-05
-1.38847e-05
7.58029e-05
-1.30047e-05
6.85813e-05
-1.19056e-05
6.01283e-05
-1.0608e-05
5.04918e-05
-9.12651e-06
3.96811e-05
-7.46562e-06
2.7664e-05
-5.61489e-06
1.43577e-05
-3.54399e-06
-1.23193e-06
9.00794e-08
-5.04293e-09
4.60404e-07
-3.22612e-08
1.44649e-06
-1.1729e-07
3.35046e-06
-3.09656e-07
6.41611e-06
-6.6297e-07
1.07989e-05
-1.23043e-06
1.65509e-05
-2.05807e-06
2.36281e-05
-3.1791e-06
3.19e-05
-4.6089e-06
4.06921e-05
-6.26536e-06
4.92238e-05
-7.96262e-06
5.7447e-05
-9.60466e-06
6.53337e-05
-1.11988e-05
7.25483e-05
-1.27088e-05
7.87836e-05
-1.40613e-05
8.37798e-05
-1.51933e-05
8.73373e-05
-1.60563e-05
8.93239e-05
-1.66178e-05
8.96757e-05
-1.68595e-05
8.83907e-05
-1.67775e-05
8.55165e-05
-1.63793e-05
8.11334e-05
-1.56814e-05
7.53369e-05
-1.47064e-05
6.82202e-05
-1.3479e-05
5.98589e-05
-1.20221e-05
5.02995e-05
-1.03521e-05
3.95519e-05
-8.47424e-06
2.75854e-05
-6.37695e-06
1.43207e-05
-4.0264e-06
-1.39984e-06
8.9505e-08
-5.59281e-09
4.56286e-07
-3.56792e-08
1.42715e-06
-1.29114e-07
3.29045e-06
-3.39187e-07
6.2747e-06
-7.22671e-07
1.05227e-05
-1.33494e-06
1.60864e-05
-2.22438e-06
2.29338e-05
-3.42722e-06
3.09466e-05
-4.95981e-06
3.9505e-05
-6.73899e-06
4.7886e-05
-8.57568e-06
5.60222e-05
-1.03682e-05
6.38614e-05
-1.21191e-05
7.10701e-05
-1.37867e-05
7.73384e-05
-1.52899e-05
8.24015e-05
-1.65582e-05
8.60533e-05
-1.75363e-05
8.81535e-05
-1.81862e-05
8.86322e-05
-1.84861e-05
8.74818e-05
-1.84291e-05
8.47444e-05
-1.80214e-05
8.04953e-05
-1.72798e-05
7.48252e-05
-1.62278e-05
6.78234e-05
-1.48918e-05
5.95627e-05
-1.32967e-05
5.00883e-05
-1.14605e-05
3.941e-05
-9.38885e-06
2.74991e-05
-7.06943e-06
1.42801e-05
-4.46537e-06
-1.55274e-06
8.92237e-08
-6.08525e-09
4.53756e-07
-3.87209e-08
1.41212e-06
-1.39456e-07
3.23889e-06
-3.64409e-07
6.14564e-06
-7.72256e-07
1.0263e-05
-1.41976e-06
1.5647e-05
-2.35766e-06
2.22763e-05
-3.62449e-06
3.00406e-05
-5.23666e-06
3.8371e-05
-7.11142e-06
4.66004e-05
-9.06048e-06
5.46439e-05
-1.0979e-05
6.24236e-05
-1.2864e-05
6.96082e-05
-1.4668e-05
7.58883e-05
-1.63041e-05
8.1e-05
-1.76961e-05
8.47337e-05
-1.87821e-05
8.69403e-05
-1.95178e-05
8.75424e-05
-1.98776e-05
8.65265e-05
-1.98521e-05
8.39288e-05
-1.94457e-05
7.98186e-05
-1.86745e-05
7.42811e-05
-1.75626e-05
6.74008e-05
-1.61375e-05
5.92472e-05
-1.44255e-05
4.98633e-05
-1.24458e-05
3.92589e-05
-1.02046e-05
2.74074e-05
-7.68859e-06
1.4237e-05
-4.85852e-06
-1.68979e-06
8.96625e-08
-6.52988e-09
4.54871e-07
-4.14752e-08
1.407e-06
-1.48628e-07
3.20565e-06
-3.86006e-07
6.04574e-06
-8.13249e-07
1.00494e-05
-1.48849e-06
1.52758e-05
-2.46447e-06
2.1709e-05
-3.78069e-06
2.92448e-05
-5.45326e-06
3.73586e-05
-7.40062e-06
4.54354e-05
-9.43778e-06
5.33776e-05
-1.14587e-05
6.10846e-05
-1.34545e-05
6.82278e-05
-1.53726e-05
7.44988e-05
-1.71222e-05
7.96341e-05
-1.86221e-05
8.3427e-05
-1.9805e-05
8.57246e-05
-2.0621e-05
8.64399e-05
-2.10402e-05
8.55525e-05
-2.10504e-05
8.30919e-05
-2.06538e-05
7.91209e-05
-1.98655e-05
7.37182e-05
-1.87095e-05
6.69628e-05
-1.7214e-05
5.89197e-05
-1.5406e-05
4.96297e-05
-1.33055e-05
3.91023e-05
-1.09189e-05
2.73123e-05
-8.23234e-06
1.41923e-05
-5.20446e-06
-1.81049e-06
9.15247e-08
-6.94168e-09
4.6273e-07
-4.40672e-08
1.4194e-06
-1.57079e-07
3.20485e-06
-4.05236e-07
5.99787e-06
-8.48612e-07
9.91507e-06
-1.54646e-06
1.5015e-05
-2.55291e-06
2.1283e-05
-3.90782e-06
2.86194e-05
-5.62639e-06
3.65342e-05
-7.62796e-06
4.44571e-05
-9.73169e-06
5.22842e-05
-1.1832e-05
5.98994e-05
-1.39153e-05
6.69794e-05
-1.5925e-05
7.3219e-05
-1.77672e-05
7.83537e-05
-1.93568e-05
8.21784e-05
-2.06226e-05
8.45438e-05
-2.15105e-05
8.53562e-05
-2.19857e-05
8.45857e-05
-2.20328e-05
8.22551e-05
-2.16521e-05
7.84193e-05
-2.08571e-05
7.31499e-05
-1.96712e-05
6.65193e-05
-1.81225e-05
5.85877e-05
-1.62384e-05
4.93929e-05
-1.40392e-05
3.89434e-05
-1.15312e-05
2.72159e-05
-8.70008e-06
1.4147e-05
-5.50274e-06
-1.91468e-06
9.61337e-08
-7.33185e-09
4.82489e-07
-4.66978e-08
1.46038e-06
-1.65594e-07
3.25583e-06
-4.24042e-07
6.03114e-06
-8.82313e-07
9.89588e-06
-1.60026e-06
1.49062e-05
-2.63267e-06
2.10468e-05
-4.01959e-06
2.82198e-05
-5.77494e-06
3.59558e-05
-7.81699e-06
4.37218e-05
-9.96787e-06
5.14176e-05
-1.2125e-05
5.8918e-05
-1.42725e-05
6.59076e-05
-1.63508e-05
7.20876e-05
-1.82637e-05
7.71957e-05
-1.99235e-05
8.10253e-05
-2.12563e-05
8.34315e-05
-2.22045e-05
8.43195e-05
-2.27293e-05
8.36501e-05
-2.28121e-05
8.14378e-05
-2.24508e-05
7.77295e-05
-2.16573e-05
7.25885e-05
-2.04537e-05
6.60799e-05
-1.88675e-05
5.82583e-05
-1.69259e-05
4.91577e-05
-1.4649e-05
3.87857e-05
-1.20429e-05
2.71203e-05
-9.09261e-06
1.41021e-05
-5.75377e-06
-2.00249e-06
1.06584e-07
-7.73044e-09
5.24085e-07
-4.98269e-08
1.5487e-06
-1.75768e-07
3.38558e-06
-4.45601e-07
6.17927e-06
-9.19416e-07
1.00299e-05
-1.65729e-06
1.49903e-05
-2.71422e-06
2.10458e-05
-4.13054e-06
2.80978e-05
-5.91929e-06
3.56741e-05
-7.99283e-06
4.3273e-05
-1.01718e-05
5.08184e-05
-1.23623e-05
5.818e-05
-1.45512e-05
6.505e-05
-1.66751e-05
7.11383e-05
-1.86364e-05
7.6189e-05
-2.03458e-05
7.99961e-05
-2.17278e-05
8.24154e-05
-2.27225e-05
8.33537e-05
-2.32883e-05
8.2766e-05
-2.34032e-05
8.06574e-05
-2.30627e-05
7.70657e-05
-2.22766e-05
7.20453e-05
-2.10654e-05
6.56533e-05
-1.94556e-05
5.79378e-05
-1.74736e-05
4.89288e-05
-1.51388e-05
3.86322e-05
-1.24568e-05
2.70272e-05
-9.41184e-06
1.40584e-05
-5.95866e-06
-2.07429e-06
1.32305e-07
-8.45503e-09
6.09529e-07
-5.4837e-08
1.71804e-06
-1.90743e-07
3.63394e-06
-4.75029e-07
6.48386e-06
-9.67089e-07
1.03587e-05
-1.72679e-06
1.53081e-05
-2.80899e-06
2.13226e-05
-4.25553e-06
2.8309e-05
-6.08231e-06
3.57368e-05
-8.18401e-06
4.3139e-05
-1.03676e-05
5.05144e-05
-1.25651e-05
5.77133e-05
-1.47748e-05
6.44336e-05
-1.69224e-05
7.03965e-05
-1.89093e-05
7.53561e-05
-2.0647e-05
7.91111e-05
-2.20593e-05
8.15158e-05
-2.30853e-05
8.24782e-05
-2.36813e-05
8.19506e-05
-2.38226e-05
7.99286e-05
-2.35019e-05
7.64402e-05
-2.2727e-05
7.15303e-05
-2.15166e-05
6.52472e-05
-1.98954e-05
5.7632e-05
-1.78884e-05
4.87101e-05
-1.5514e-05
3.84854e-05
-1.2777e-05
2.69381e-05
-9.66057e-06
1.40164e-05
-6.1191e-06
-2.13064e-06
2.21337e-07
-1.51196e-08
8.08953e-07
-6.73866e-08
2.04562e-06
-2.19813e-07
4.07585e-06
-5.24387e-07
7.0128e-06
-1.03914e-06
1.09409e-05
-1.82311e-06
1.59079e-05
-2.93093e-06
2.19203e-05
-4.40841e-06
2.88621e-05
-6.26364e-06
3.61286e-05
-8.37028e-06
4.3325e-05
-1.05462e-05
5.05234e-05
-1.27476e-05
5.75373e-05
-1.49656e-05
6.40746e-05
-1.71164e-05
6.98762e-05
-1.91058e-05
7.47093e-05
-2.08498e-05
7.83797e-05
-2.22734e-05
8.07423e-05
-2.33148e-05
8.17036e-05
-2.3929e-05
8.12135e-05
-2.40893e-05
7.92597e-05
-2.37861e-05
7.586e-05
-2.30246e-05
7.10491e-05
-2.18215e-05
6.48659e-05
-2.01992e-05
5.7344e-05
-1.8181e-05
4.85038e-05
-1.57836e-05
3.83468e-05
-1.30104e-05
2.68538e-05
-9.84404e-06
1.39766e-05
-6.23831e-06
-2.17265e-06
1.18914e-05
1.85578e-06
2.18373e-05
5.29384e-06
2.89032e-05
8.27842e-06
3.29915e-05
1.08478e-05
3.44459e-05
1.30594e-05
3.36508e-05
1.49498e-05
3.0986e-05
1.65361e-05
2.68776e-05
1.78215e-05
2.1766e-05
1.88018e-05
1.6093e-05
1.94708e-05
1.02826e-05
1.98245e-05
4.71397e-06
1.9863e-05
-2.97823e-07
1.95906e-05
-4.50951e-06
1.90185e-05
-7.76259e-06
1.81655e-05
-9.99472e-06
1.70584e-05
-1.12266e-05
1.5732e-05
-1.15455e-05
1.42304e-05
-1.10936e-05
1.26058e-05
-1.00501e-05
1.09155e-05
-8.38582e-06
9.15841e-06
-6.19988e-06
7.31334e-06
-4.03738e-06
5.50515e-06
-2.2761e-06
3.91894e-06
-9.92271e-07
2.63062e-06
-1.88532e-07
1.64213e-06
1.99356e-07
9.34306e-07
2.90473e-07
4.71389e-07
2.33848e-07
2.05357e-07
7.92192e-08
1.35689e-07
1.25007e-05
1.89626e-06
2.31437e-05
5.4085e-06
3.10457e-05
8.45919e-06
3.58545e-05
1.10894e-05
3.77552e-05
1.33487e-05
3.72803e-05
1.52672e-05
3.49028e-05
1.68683e-05
3.10412e-05
1.81609e-05
2.61242e-05
1.91422e-05
2.05827e-05
1.98067e-05
1.48389e-05
2.01527e-05
9.26876e-06
2.0183e-05
4.18599e-06
1.9904e-05
-1.68322e-07
1.93283e-05
-3.63294e-06
1.84757e-05
-6.13409e-06
1.73736e-05
-7.67982e-06
1.60575e-05
-8.34488e-06
1.45717e-05
-8.25836e-06
1.29679e-05
-7.58603e-06
1.13026e-05
-6.30245e-06
9.57102e-06
-4.48428e-06
7.73662e-06
-2.63986e-06
5.912e-06
-1.14477e-06
4.29134e-06
-7.78729e-08
2.96127e-06
5.55714e-07
1.92665e-06
8.17088e-07
1.17036e-06
8.19027e-07
6.57298e-07
7.04649e-07
3.40501e-07
1.68381e-07
6.2376e-07
1.3103e-05
1.92582e-06
2.43329e-05
5.49064e-06
3.29605e-05
8.58334e-06
3.86684e-05
1.12534e-05
4.13076e-05
1.35543e-05
4.12628e-05
1.5501e-05
3.9196e-05
1.71085e-05
3.56245e-05
1.83969e-05
3.09454e-05
1.937e-05
2.55726e-05
2.00214e-05
1.99314e-05
2.03522e-05
1.43929e-05
2.03687e-05
9.26626e-06
2.00796e-05
4.79141e-06
1.94991e-05
1.1309e-06
1.86484e-05
-1.6339e-06
1.7556e-05
-3.49873e-06
1.62585e-05
-4.52578e-06
1.48005e-05
-4.83136e-06
1.32345e-05
-4.5697e-06
1.1619e-05
-3.72971e-06
9.95558e-06
-2.32704e-06
8.17625e-06
-8.19601e-07
6.35519e-06
3.9435e-07
4.70978e-06
1.24184e-06
3.3479e-06
1.71544e-06
2.27286e-06
1.87358e-06
1.47044e-06
1.82377e-06
9.06287e-07
1.70731e-06
5.3511e-07
3.09945e-07
1.67494e-06
1.37394e-05
1.94404e-06
2.55504e-05
5.54065e-06
3.47476e-05
8.65494e-06
4.12239e-05
1.13381e-05
4.4819e-05
1.36579e-05
4.55304e-05
1.56327e-05
4.3891e-05
1.72542e-05
4.06481e-05
1.85348e-05
3.6255e-05
1.94916e-05
3.10844e-05
2.01216e-05
2.55824e-05
2.04294e-05
2.01108e-05
2.04271e-05
1.49703e-05
2.01248e-05
1.03988e-05
1.95381e-05
6.56018e-06
1.86902e-05
3.54284e-06
1.76111e-05
1.36209e-06
1.63383e-05
-3.15801e-08
1.49167e-05
-7.41504e-07
1.33991e-05
-9.12132e-07
1.18464e-05
-5.61949e-07
1.02723e-05
3.79511e-07
8.59239e-06
1.54113e-06
6.82554e-06
2.48534e-06
5.1752e-06
3.12858e-06
3.78178e-06
3.46389e-06
2.66907e-06
3.55356e-06
1.82204e-06
3.50541e-06
1.20455e-06
3.4607e-06
7.74135e-07
4.88124e-07
3.54778e-06
1.44086e-05
1.95075e-06
2.6843e-05
5.55791e-06
3.66029e-05
8.67585e-06
4.3659e-05
1.13529e-05
4.80666e-05
1.36611e-05
4.97772e-05
1.5639e-05
4.89074e-05
1.72805e-05
4.61471e-05
1.8573e-05
4.20876e-05
1.95179e-05
3.71408e-05
2.01171e-05
3.18175e-05
2.03934e-05
2.64523e-05
2.03682e-05
2.13321e-05
2.00497e-05
1.66933e-05
1.94554e-05
1.27004e-05
1.86105e-05
9.44935e-06
1.75465e-05
6.9662e-06
1.63018e-05
5.2152e-06
1.49205e-05
4.10917e-06
1.34532e-05
3.52075e-06
1.1956e-05
3.41373e-06
1.04352e-05
3.86921e-06
8.83293e-06
4.62823e-06
7.17792e-06
5.29644e-06
5.60992e-06
5.75275e-06
4.2357e-06
5.97861e-06
3.09776e-06
6.0379e-06
2.20223e-06
6.04188e-06
1.52719e-06
6.12335e-06
1.03221e-06
6.78204e-07
6.36913e-06
1.51146e-05
1.94598e-06
2.82103e-05
5.54252e-06
3.85834e-05
8.64594e-06
4.62076e-05
1.1302e-05
5.12146e-05
1.35802e-05
5.37674e-05
1.55258e-05
5.38951e-05
1.71555e-05
5.19311e-05
1.84613e-05
4.83978e-05
1.942e-05
4.37706e-05
2.00103e-05
3.86577e-05
2.02572e-05
3.34461e-05
2.02045e-05
2.83839e-05
1.98677e-05
2.37138e-05
1.92637e-05
1.95973e-05
1.84207e-05
1.61402e-05
1.73718e-05
1.33798e-05
1.61561e-05
1.12952e-05
1.4816e-05
9.81961e-06
1.33973e-05
8.85366e-06
1.19477e-05
8.3674e-06
1.04603e-05
8.36944e-06
8.90016e-06
8.67291e-06
7.33395e-06
9.01798e-06
5.87954e-06
9.28732e-06
4.59394e-06
9.43533e-06
3.49055e-06
9.50049e-06
2.57559e-06
9.58595e-06
1.84562e-06
9.81305e-06
1.2789e-06
8.50783e-07
1.02253e-05
1.58607e-05
1.9299e-06
2.96586e-05
5.49508e-06
4.06876e-05
8.56632e-06
4.8935e-05
1.11865e-05
5.45261e-05
1.34233e-05
5.76921e-05
1.53196e-05
5.86461e-05
1.69005e-05
5.75841e-05
1.81744e-05
5.48876e-05
1.9136e-05
5.08935e-05
1.97562e-05
4.61297e-05
2.00194e-05
4.11204e-05
1.99542e-05
3.61547e-05
1.95951e-05
3.1499e-05
1.89783e-05
2.72955e-05
1.8135e-05
2.36699e-05
1.70987e-05
2.06691e-05
1.5911e-05
1.82871e-05
1.46111e-05
1.64783e-05
1.32403e-05
1.51713e-05
1.18398e-05
1.43331e-05
1.04024e-05
1.39257e-05
8.89762e-06
1.38044e-05
7.39241e-06
1.38119e-05
6.00627e-06
1.38792e-05
4.7911e-06
1.39629e-05
3.74355e-06
1.4073e-05
2.85232e-06
1.42669e-05
2.10357e-06
1.46404e-05
1.48082e-06
9.78866e-07
1.52033e-05
1.66494e-05
1.90287e-06
3.11928e-05
5.41664e-06
4.29225e-05
8.43886e-06
5.18392e-05
1.10092e-05
5.80749e-05
1.31932e-05
6.18466e-05
1.50332e-05
6.34386e-05
1.65542e-05
6.31124e-05
1.77676e-05
6.12731e-05
1.86846e-05
5.81656e-05
1.93046e-05
5.40598e-05
1.96081e-05
4.94353e-05
1.9581e-05
4.46837e-05
1.92391e-05
4.00897e-05
1.86212e-05
3.58356e-05
1.77701e-05
3.20904e-05
1.674e-05
2.8899e-05
1.5578e-05
2.62669e-05
1.43166e-05
2.41694e-05
1.29923e-05
2.25562e-05
1.16419e-05
2.1371e-05
1.026e-05
2.05717e-05
8.82153e-06
2.0075e-05
7.38824e-06
1.97786e-05
6.06257e-06
1.96411e-05
4.8859e-06
1.96464e-05
3.86112e-06
1.98037e-05
2.98198e-06
2.01277e-05
2.22857e-06
2.06709e-05
1.57666e-06
1.02449e-06
2.14055e-05
1.74826e-05
1.8654e-06
3.28169e-05
5.30871e-06
4.52938e-05
8.26601e-06
5.49278e-05
1.07736e-05
6.18587e-05
1.28945e-05
6.63068e-05
1.46703e-05
6.85494e-05
1.61266e-05
6.88872e-05
1.72779e-05
6.77246e-05
1.81337e-05
6.53913e-05
1.87047e-05
6.2077e-05
1.89944e-05
5.81097e-05
1.89979e-05
5.38335e-05
1.87179e-05
4.94759e-05
1.8158e-05
4.52656e-05
1.73336e-05
4.14499e-05
1.63122e-05
3.81297e-05
1.51702e-05
3.53036e-05
1.39446e-05
3.29702e-05
1.26644e-05
3.10962e-05
1.13633e-05
2.95955e-05
1.00382e-05
2.84262e-05
8.66851e-06
2.75853e-05
7.30614e-06
2.70205e-05
6.03816e-06
2.6698e-05
4.89941e-06
2.66096e-05
3.89028e-06
2.67654e-05
3.00374e-06
2.71836e-05
2.22737e-06
2.78924e-05
1.54401e-06
9.5211e-07
2.8805e-05
1.83617e-05
1.81813e-06
3.45334e-05
5.17315e-06
4.78053e-05
8.05084e-06
5.8206e-05
1.0484e-05
6.58835e-05
1.25327e-05
7.10615e-05
1.42378e-05
7.40175e-05
1.56252e-05
7.50637e-05
1.67115e-05
7.45539e-05
1.7508e-05
7.28445e-05
1.80245e-05
7.01949e-05
1.82679e-05
6.69197e-05
1.8252e-05
6.32779e-05
1.79947e-05
5.94492e-05
1.75033e-05
5.55512e-05
1.67692e-05
5.17993e-05
1.58126e-05
4.84168e-05
1.47054e-05
4.54533e-05
1.35107e-05
4.29439e-05
1.22699e-05
4.08611e-05
1.1015e-05
3.90957e-05
9.74353e-06
3.7601e-05
8.43885e-06
3.64558e-05
7.14283e-06
3.56571e-05
5.92828e-06
3.51756e-05
4.82416e-06
3.49988e-05
3.82973e-06
3.51282e-05
2.93872e-06
3.55827e-05
2.14041e-06
3.63802e-05
1.42082e-06
7.85038e-07
3.73777e-05
1.92877e-05
1.76173e-06
3.63444e-05
5.0119e-06
5.04604e-05
7.79641e-06
6.16782e-05
1.01445e-05
7.01542e-05
1.21131e-05
7.61158e-05
1.37419e-05
7.98403e-05
1.50572e-05
8.16384e-05