/*--------------------------------*- C++ -*----------------------------------*\
| =========                 |                                                 |
| \\      /  F ield         | OpenFOAM: The Open Source CFD Toolbox           |
|  \\    /   O peration     | Version:  dev                                   |
|   \\  /    A nd           | Web:      www.OpenFOAM.org                      |
|    \\/     M anipulation  |                                                 |
\*---------------------------------------------------------------------------*/
FoamFile
{
    version     2.0;
    format      ascii;
    class       pointVectorField;
    location    "0.15";
    object      pointDisplacement;
}
// * * * * * * * * * * * * * * * * * * * * * * * * * * * * * * * * * * * * * //

dimensions      [0 1 0 0 0 0 0];

internalField   nonuniform List<vector> 
1030
(
(0.00583524 0 0.00567039)
(0.00586455 0 0.00543349)
(0.0058605 0 0.00521444)
(0.00565541 0 0.00625077)
(0.00570743 0 0.00594116)
(0.00572375 0 0.00566236)
(0.00570976 0 0.00540377)
(0.00566905 0 0.00515815)
(0.00550805 0 0.00678618)
(0.00557097 0 0.00641672)
(0.00559951 0 0.00608631)
(0.00559754 0 0.00578325)
(0.00556789 0 0.00549912)
(0.00551238 0 0.00522766)
(0.00539398 0 0.00725843)
(0.00545738 0 0.00684667)
(0.00549047 0 0.0064758)
(0.00549493 0 0.00613584)
(0.00547233 0 0.00581852)
(0.00542383 0 0.0055173)
(0.00535 0 0.00522699)
(0.00525086 0 0.00494341)
(0.00531014 0 0.00765563)
(0.00536623 0 0.00722006)
(0.00539739 0 0.0068221)
(0.00540321 0 0.00645437)
(0.0053838 0 0.00611025)
(0.0053394 0 0.00578405)
(0.00527004 0 0.00547063)
(0.00517543 0 0.00516571)
(0.00505482 0 0.00486569)
(0.00490708 0 0.00456745)
(0.00525085 0 0.00797421)
(0.00529505 0 0.00752985)
(0.00531955 0 0.00711778)
(0.00532252 0 0.00673255)
(0.00530289 0 0.00636909)
(0.00525989 0 0.00602328)
(0.0051929 0 0.00569091)
(0.00510122 0 0.00536794)
(0.00498385 0 0.0050508)
(0.00483951 0 0.00473634)
(0.00466654 0 0.00442169)
(0.00520971 0 0.00821632)
(0.00523994 0 0.00777444)
(0.00525498 0 0.00735848)
(0.00525213 0 0.00696514)
(0.00522949 0 0.00659043)
(0.00518556 0 0.00623105)
(0.00511904 0 0.00588422)
(0.00502876 0 0.0055468)
(0.00491344 0 0.0052155)
(0.0047716 0 0.00488727)
(0.00460147 0 0.00455925)
(0.00440098 0 0.00422872)
(0.00416772 0 0.00389287)
(0.00518071 0 0.00838654)
(0.00519658 0 0.00795571)
(0.00520091 0 0.00754373)
(0.00519052 0 0.00714938)
(0.00516294 0 0.00677036)
(0.0051162 0 0.00640382)
(0.00504853 0 0.00604748)
(0.0049583 0 0.00569938)
(0.00484393 0 0.00535705)
(0.00470371 0 0.00501771)
(0.00453575 0 0.00467864)
(0.00433789 0 0.00433716)
(0.00410769 0 0.00399049)
(0.00384239 0 0.00363574)
(0.00515887 0 0.00849022)
(0.0051611 0 0.00807636)
(0.00515448 0 0.00767455)
(0.00513573 0 0.00728494)
(0.00510211 0 0.00690679)
(0.00505129 0 0.00653845)
(0.00498119 0 0.0061778)
(0.00488988 0 0.00582314)
(0.00477547 0 0.00547301)
(0.00463606 0 0.00512533)
(0.00446962 0 0.00477765)
(0.00427391 0 0.0044274)
(0.00404643 0 0.0040719)
(0.0037844 0 0.00370825)
(0.00348472 0 0.0033333)
(0.00314391 0 0.00294337)
(0.00514021 0 0.00853299)
(0.00513013 0 0.00813983)
(0.00511305 0 0.00775261)
(0.00508581 0 0.00737241)
(0.00504561 0 0.00699944)
(0.00498996 0 0.00663323)
(0.00491658 0 0.00627254)
(0.00482333 0 0.00591566)
(0.00470809 0 0.00556124)
(0.0045688 0 0.00520806)
(0.0044033 0 0.00485427)
(0.00420926 0 0.00449752)
(0.00398415 0 0.00413529)
(0.00372517 0 0.00376476)
(0.00342923 0 0.00338279)
(0.0030929 0 0.00298577)
(0.00271242 0 0.00256953)
(0.00512173 0 0.00852013)
(0.00510095 0 0.0081497)
(0.00507433 0 0.00777999)
(0.00503895 0 0.00741264)
(0.0049921 0 0.00704852)
(0.00493126 0 0.00668782)
(0.00485409 0 0.00633018)
(0.00475832 0 0.0059746)
(0.0046417 0 0.00561961)
(0.00450197 0 0.00526401)
(0.00433691 0 0.00490668)
(0.00414412 0 0.00454579)
(0.00392105 0 0.004179)
(0.00366487 0 0.00380365)
(0.00337253 0 0.0034167)
(0.00304065 0 0.00301461)
(0.00266552 0 0.00259323)
(0.00224308 0 0.00214766)
(0.00176882 0 0.00167195)
(0.00510131 0 0.00845631)
(0.00507147 0 0.00810939)
(0.00503643 0 0.00775892)
(0.00499356 0 0.00740682)
(0.00494032 0 0.00705432)
(0.00487428 0 0.00670211)
(0.00479308 0 0.0063503)
(0.00469444 0 0.00599857)
(0.00457605 0 0.00564602)
(0.00443555 0 0.00529128)
(0.00427055 0 0.0049332)
(0.00407867 0 0.00457056)
(0.00385733 0 0.00420148)
(0.00360373 0 0.00382349)
(0.00331483 0 0.00343368)
(0.00298731 0 0.00302863)
(0.00261758 0 0.0026043)
(0.00220166 0 0.00215586)
(0.00173524 0 0.00167747)
(0.00121356 0 0.00116208)
(0.00507754 0 0.00834534)
(0.0050402 0 0.00802186)
(0.00499792 0 0.00769149)
(0.00494837 0 0.00735616)
(0.00488923 0 0.00701734)
(0.00481819 0 0.00667597)
(0.00473297 0 0.00633253)
(0.00463129 0 0.00598704)
(0.00451087 0 0.00563914)
(0.00436935 0 0.00528795)
(0.00420425 0 0.0049321)
(0.00401305 0 0.00457034)
(0.0037932 0 0.0042013)
(0.00354197 0 0.00382292)
(0.00325635 0 0.00343246)
(0.00293312 0 0.0030267)
(0.00256875 0 0.00260171)
(0.00215942 0 0.00215279)
(0.00170097 0 0.00167425)
(0.00118887 0 0.00115921)
(0.000618248 0 0.000599306)
(0.00504955 0 0.00819011)
(0.00500613 0 0.0078895)
(0.00495776 0 0.00757945)
(0.0049024 0 0.00726182)
(0.00483797 0 0.0069381)
(0.00476231 0 0.0066094)
(0.00467324 0 0.00627641)
(0.00456855 0 0.00593941)
(0.00444599 0 0.00559833)
(0.00430326 0 0.00525272)
(0.00413791 0 0.0049016)
(0.00394734 0 0.00454355)
(0.00372887 0 0.0041771)
(0.00347982 0 0.00380064)
(0.00319735 0 0.00341187)
(0.00287831 0 0.00300774)
(0.00251927 0 0.00258451)
(0.00211655 0 0.00213765)
(0.00166615 0 0.00166165)
(0.00116379 0 0.00114985)
(0.000604859 0 0.000594169)
(0 0 0)
(0.00501697 0 0.0079927)
(0.00496867 0 0.00771407)
(0.00491528 0 0.00742417)
(0.004855 0 0.00712466)
(0.00478593 0 0.00681701)
(0.00470611 0 0.00650237)
(0.00461349 0 0.00618155)
(0.00450595 0 0.00585499)
(0.00438129 0 0.00552284)
(0.00423726 0 0.00518485)
(0.00407152 0 0.00484045)
(0.00388152 0 0.00448854)
(0.00366448 0 0.00412746)
(0.00341755 0 0.00375545)
(0.00313807 0 0.00337073)
(0.00282314 0 0.00297072)
(0.0024694 0 0.00255183)
(0.00207327 0 0.00210971)
(0.00163097 0 0.0016391)
(0.00113843 0 0.00113361)
(0.000591325 0 0.000585477)
(0 0 0)
(0.00497976 0 0.0077544)
(0.00492764 0 0.00749668)
(0.00487017 0 0.00722647)
(0.00480577 0 0.00694522)
(0.00473274 0 0.00665428)
(0.00464928 0 0.00635476)
(0.00455348 0 0.0060475)
(0.00444331 0 0.00573308)
(0.00431669 0 0.00541175)
(0.00417142 0 0.00508346)
(0.00400522 0 0.00474782)
(0.0038157 0 0.00440413)
(0.00360005 0 0.00405081)
(0.00335525 0 0.0036859)
(0.00307877 0 0.00330791)
(0.0027679 0 0.00291467)
(0.0024194 0 0.00250282)
(0.00202985 0 0.00206828)
(0.00159564 0 0.00160606)
(0.00111294 0 0.0011101)
(0.000577715 0 0.000573031)
(0 0 0)
(0.0049382 0 0.00747557)
(0.0048831 0 0.0072377)
(0.00482237 0 0.00698664)
(0.0047546 0 0.0067236)
(0.00467825 0 0.00644977)
(0.00459168 0 0.0061662)
(0.0044931 0 0.0058737)
(0.00438061 0 0.0055729)
(0.00425222 0 0.00526412)
(0.00410582 0 0.00494745)
(0.00393918 0 0.00462266)
(0.00375001 0 0.00428919)
(0.00353563 0 0.00394581)
(0.00329313 0 0.00359074)
(0.00301978 0 0.00322235)
(0.00271292 0 0.00283864)
(0.0023696 0 0.00243669)
(0.00198655 0 0.00201271)
(0.00156038 0 0.00156205)
(0.00108749 0 0.00107901)
(0.000564123 0 0.000556669)
(0 0 0)
(0.00489275 0 0.00715573)
(0.00483539 0 0.00693678)
(0.00477211 0 0.00670434)
(0.00470163 0 0.0064594)
(0.00462255 0 0.006203)
(0.00453337 0 0.00593606)
(0.00443243 0 0.00565936)
(0.00431794 0 0.00537352)
(0.00418801 0 0.00507893)
(0.00404062 0 0.00477573)
(0.00387363 0 0.00446379)
(0.00368476 0 0.00414266)
(0.00347159 0 0.00381148)
(0.00323143 0 0.00346886)
(0.00296138 0 0.00311297)
(0.00265859 0 0.00274175)
(0.00232034 0 0.00235265)
(0.00194369 0 0.00194235)
(0.00152545 0 0.00150657)
(0.00106227 0 0.00104002)
(0.000550647 0 0.000536234)
(0 0 0)
(0.0048441 0 0.00679369)
(0.00478506 0 0.00659287)
(0.00471983 0 0.00637861)
(0.00464721 0 0.00615169)
(0.00456593 0 0.00591299)
(0.00447462 0 0.00566332)
(0.00437171 0 0.00540341)
(0.00425555 0 0.00513382)
(0.00412434 0 0.00485498)
(0.00397615 0 0.00456707)
(0.00380891 0 0.00427004)
(0.00362046 0 0.00396356)
(0.00340845 0 0.00364694)
(0.00317044 0 0.00331912)
(0.0029037 0 0.00297853)
(0.0026052 0 0.00262302)
(0.00227201 0 0.00224997)
(0.00190157 0 0.00185657)
(0.00149111 0 0.00143915)
(0.00103746 0 0.000992801)
(0.000537392 0 0.000511576)
(0 0 0)
(0.00479313 0 0.00638751)
(0.00473288 0 0.00620423)
(0.00466617 0 0.00600784)
(0.0045919 0 0.00579895)
(0.0045089 0 0.00557829)
(0.00441587 0 0.00534656)
(0.00431138 0 0.00510441)
(0.00419387 0 0.00485237)
(0.00406163 0 0.00459085)
(0.00391282 0 0.00432007)
(0.00374549 0 0.00404004)
(0.00355754 0 0.00375053)
(0.00334675 0 0.003451)
(0.00311077 0 0.00314056)
(0.00284716 0 0.00281801)
(0.00255292 0 0.00248124)
(0.00222483 0 0.00212761)
(0.00186053 0 0.00175468)
(0.00145765 0 0.0013593)
(0.00101328 0 0.000937057)
(0.000524472 0 0.000482545)
(0 0 0)
(0.00474086 0 0.00593447)
(0.00467976 0 0.00576835)
(0.00461198 0 0.00558971)
(0.00453646 0 0.00539901)
(0.00445213 0 0.00519685)
(0.00435777 0 0.00498384)
(0.00425204 0 0.00476052)
(0.00413346 0 0.00452739)
(0.00400043 0 0.00428484)
(0.0038512 0 0.0040331)
(0.00368391 0 0.00377224)
(0.00349654 0 0.0035021)
(0.00328699 0 0.00322225)
(0.00305301 0 0.00293199)
(0.00279227 0 0.00263026)
(0.00250203 0 0.00231527)
(0.00217916 0 0.00198471)
(0.00182099 0 0.00163607)
(0.00142539 0 0.00126655)
(0.000989967 0 0.000872473)
(0.000512009 0 0.000448991)
(0 0 0)
(0.00468848 0 0.005431)
(0.00462681 0 0.00528192)
(0.00455828 0 0.00512115)
(0.00448184 0 0.00494902)
(0.00439651 0 0.00476602)
(0.00430114 0 0.00457265)
(0.00419446 0 0.00436939)
(0.00407508 0 0.00415668)
(0.00394148 0 0.00393488)
(0.003792 0 0.00370423)
(0.00362486 0 0.00346483)
(0.00343814 0 0.00321659)
(0.00322982 0 0.00295918)
(0.00299775 0 0.00269202)
(0.00273969 0 0.00241419)
(0.00245325 0 0.00212436)
(0.00213546 0 0.00182046)
(0.00178326 0 0.00149992)
(0.00139467 0 0.00116037)
(0.000967769 0 0.000798729)
(0.000500142 0 0.000410764)
(0 0 0)
(0.00463729 0 0.00487251)
(0.00457529 0 0.00474071)
(0.00450625 0 0.00459825)
(0.00442917 0 0.00444536)
(0.00434311 0 0.00428243)
(0.00424699 0 0.00410988)
(0.00413961 0 0.00392812)
(0.00401965 0 0.00373755)
(0.00388567 0 0.00353848)
(0.00373608 0 0.00333117)
(0.00356918 0 0.00311573)
(0.00338314 0 0.00289212)
(0.00317603 0 0.0026601)
(0.00294579 0 0.00241921)
(0.00269028 0 0.00216868)
(0.00240725 0 0.00190746)
(0.00209409 0 0.00163378)
(0.00174779 0 0.00134551)
(0.00136596 0 0.00104031)
(0.000946994 0 0.000715505)
(0.000489028 0 0.000367705)
(0 0 0)
(0.00458882 0 0.00425351)
(0.00452663 0 0.00413959)
(0.00445726 0 0.00401622)
(0.00437975 0 0.00388357)
(0.00429318 0 0.00374195)
(0.00419652 0 0.00359171)
(0.00408865 0 0.0034332)
(0.00396829 0 0.00326677)
(0.00383407 0 0.00309271)
(0.00368447 0 0.00291126)
(0.00351788 0 0.00272253)
(0.00333253 0 0.00252654)
(0.00312657 0 0.00232312)
(0.00289802 0 0.00211191)
(0.00264484 0 0.00189231)
(0.00236487 0 0.00166342)
(0.0020559 0 0.00142399)
(0.00171508 0 0.00117216)
(0.00133961 0 0.000905698)
(0.000927965 0 0.000622438)
(0.000478843 0 0.000319651)
(0 0 0)
(0.00454471 0 0.00356747)
(0.00448244 0 0.00347238)
(0.00441288 0 0.00336927)
(0.00433508 0 0.00325825)
(0.00424816 0 0.00313958)
(0.00415114 0 0.00301354)
(0.00404292 0 0.00288042)
(0.0039223 0 0.00274052)
(0.00378795 0 0.0025941)
(0.00363842 0 0.00244137)
(0.00347215 0 0.00228246)
(0.00328745 0 0.00211741)
(0.00308253 0 0.00194612)
(0.00285551 0 0.00176833)
(0.0026044 0 0.00158357)
(0.00232716 0 0.00139115)
(0.00202172 0 0.00119012)
(0.00168562 0 0.000978966)
(0.00131609 0 0.00075597)
(0.000911152 0 0.000519216)
(0.000469812 0 0.000266438)
(0 0 0)
(0.00450678 0 0.00280651)
(0.0044445 0 0.00273168)
(0.00437483 0 0.00265048)
(0.00429685 0 0.00256298)
(0.0042097 0 0.00246939)
(0.00411243 0 0.00236992)
(0.00400398 0 0.00226481)
(0.0038832 0 0.0021543)
(0.00374879 0 0.00203861)
(0.00359936 0 0.00191792)
(0.00343339 0 0.00179236)
(0.00324926 0 0.00166198)
(0.00304524 0 0.00152674)
(0.0028195 0 0.00138645)
(0.00257013 0 0.00124079)
(0.00229517 0 0.00108925)
(0.00199261 0 0.000931109)
(0.00166043 0 0.000765362)
(0.00129601 0 0.000590656)
(0.000896889 0 0.000405379)
(0.000462172 0 0.000207878)
(0 0 0)
(0.00447702 0 0.00196121)
(0.00441474 0 0.00190866)
(0.00434502 0 0.00185162)
(0.00426693 0 0.00179015)
(0.00417963 0 0.00172437)
(0.0040822 0 0.00165446)
(0.00397361 0 0.00158058)
(0.00385273 0 0.00150291)
(0.0037183 0 0.00142161)
(0.00356896 0 0.00133683)
(0.00340324 0 0.00124867)
(0.00321956 0 0.00115719)
(0.00301623 0 0.00106238)
(0.00279147 0 0.000964123)
(0.00254344 0 0.000862222)
(0.00227023 0 0.000756346)
(0.0019699 0 0.000646016)
(0.00164056 0 0.000530595)
(0.00127999 0 0.000409115)
(0.000885701 0 0.000280583)
(0.000456314 0 0.000143835)
(0 0 0)
(0.00445757 0 0.00102044)
(0.00439531 0 0.000992901)
(0.00432556 0 0.000963018)
(0.00424741 0 0.000930812)
(0.00416003 0 0.000896356)
(0.0040625 0 0.000859739)
(0.00395383 0 0.000821053)
(0.00383288 0 0.000780398)
(0.00369844 0 0.000737864)
(0.00354916 0 0.000693534)
(0.0033836 0 0.00064747)
(0.00320021 0 0.00059971)
(0.00299732 0 0.000550253)
(0.0027732 0 0.000499056)
(0.00252602 0 0.000446021)
(0.00225392 0 0.000390986)
(0.00195501 0 0.000333712)
(0.00162741 0 0.00027387)
(0.00126932 0 0.000211012)
(0.000878325 0 0.000144666)
(0.000452485 0 7.4142e-05)
(0 0 0)
(0.0044507 0 0)
(0.00438844 0 0)
(0.00431869 0 0)
(0.00424052 0 0)
(0.00415311 0 0)
(0.00405555 0 0)
(0.00394685 0 0)
(0.00382588 0 0)
(0.00369144 0 0)
(0.00354218 0 0)
(0.00337668 0 0)
(0.00319339 0 0)
(0.00299066 0 0)
(0.00276676 0 0)
(0.00251988 0 0)
(0.00224816 0 0)
(0.00194975 0 0)
(0.0016228 0 0)
(0.00126558 0 0)
(0.000875692 0 0)
(0.00045112 0 0)
(0 0 0)
(0.00583524 0 0.00567039)
(0.00586455 0 0.00543349)
(0.0058605 0 0.00521444)
(0.00565541 0 0.00625077)
(0.00570743 0 0.00594116)
(0.00572375 0 0.00566236)
(0.00570976 0 0.00540377)
(0.00566905 0 0.00515815)
(0.00550805 0 0.00678618)
(0.00557097 0 0.00641672)
(0.00559951 0 0.00608631)
(0.00559754 0 0.00578325)
(0.00556789 0 0.00549912)
(0.00551238 0 0.00522766)
(0.00539398 0 0.00725843)
(0.00545738 0 0.00684667)
(0.00549047 0 0.0064758)
(0.00549493 0 0.00613584)
(0.00547233 0 0.00581852)
(0.00542383 0 0.0055173)
(0.00535 0 0.00522699)
(0.00525086 0 0.00494341)
(0.00531014 0 0.00765563)
(0.00536623 0 0.00722006)
(0.00539739 0 0.0068221)
(0.00540321 0 0.00645437)
(0.0053838 0 0.00611025)
(0.0053394 0 0.00578405)
(0.00527004 0 0.00547063)
(0.00517543 0 0.00516571)
(0.00505482 0 0.00486569)
(0.00490708 0 0.00456745)
(0.00525085 0 0.00797421)
(0.00529505 0 0.00752985)
(0.00531955 0 0.00711778)
(0.00532252 0 0.00673255)
(0.00530289 0 0.00636909)
(0.00525989 0 0.00602328)
(0.0051929 0 0.00569091)
(0.00510122 0 0.00536794)
(0.00498385 0 0.0050508)
(0.00483951 0 0.00473634)
(0.00466654 0 0.00442169)
(0.00520971 0 0.00821632)
(0.00523994 0 0.00777444)
(0.00525498 0 0.00735848)
(0.00525213 0 0.00696514)
(0.00522949 0 0.00659043)
(0.00518556 0 0.00623105)
(0.00511904 0 0.00588422)
(0.00502876 0 0.0055468)
(0.00491344 0 0.0052155)
(0.0047716 0 0.00488727)
(0.00460147 0 0.00455925)
(0.00440098 0 0.00422872)
(0.00416772 0 0.00389287)
(0.00518071 0 0.00838654)
(0.00519658 0 0.00795571)
(0.00520091 0 0.00754373)
(0.00519052 0 0.00714938)
(0.00516294 0 0.00677036)
(0.0051162 0 0.00640382)
(0.00504853 0 0.00604748)
(0.0049583 0 0.00569938)
(0.00484393 0 0.00535705)
(0.00470371 0 0.00501771)
(0.00453575 0 0.00467864)
(0.00433789 0 0.00433716)
(0.00410769 0 0.00399049)
(0.00384239 0 0.00363574)
(0.00515887 0 0.00849022)
(0.0051611 0 0.00807636)
(0.00515448 0 0.00767455)
(0.00513573 0 0.00728494)
(0.00510211 0 0.00690679)
(0.00505129 0 0.00653845)
(0.00498119 0 0.0061778)
(0.00488988 0 0.00582314)
(0.00477547 0 0.00547301)
(0.00463606 0 0.00512533)
(0.00446962 0 0.00477765)
(0.00427391 0 0.0044274)
(0.00404643 0 0.0040719)
(0.0037844 0 0.00370825)
(0.00348472 0 0.0033333)
(0.00314391 0 0.00294337)
(0.00514021 0 0.00853299)
(0.00513013 0 0.00813983)
(0.00511305 0 0.00775261)
(0.00508581 0 0.00737241)
(0.00504561 0 0.00699944)
(0.00498996 0 0.00663323)
(0.00491658 0 0.00627254)
(0.00482333 0 0.00591566)
(0.00470809 0 0.00556124)
(0.0045688 0 0.00520806)
(0.0044033 0 0.00485427)
(0.00420926 0 0.00449752)
(0.00398415 0 0.00413529)
(0.00372517 0 0.00376476)
(0.00342923 0 0.00338279)
(0.0030929 0 0.00298577)
(0.00271242 0 0.00256953)
(0.00512173 0 0.00852013)
(0.00510095 0 0.0081497)
(0.00507433 0 0.00777999)
(0.00503895 0 0.00741264)
(0.0049921 0 0.00704852)
(0.00493126 0 0.00668782)
(0.00485409 0 0.00633018)
(0.00475832 0 0.0059746)
(0.0046417 0 0.00561961)
(0.00450197 0 0.00526401)
(0.00433691 0 0.00490668)
(0.00414412 0 0.00454579)
(0.00392105 0 0.004179)
(0.00366487 0 0.00380365)
(0.00337253 0 0.0034167)
(0.00304065 0 0.00301461)
(0.00266552 0 0.00259323)
(0.00224308 0 0.00214766)
(0.00176882 0 0.00167195)
(0.00510131 0 0.00845631)
(0.00507147 0 0.00810939)
(0.00503643 0 0.00775892)
(0.00499356 0 0.00740682)
(0.00494032 0 0.00705432)
(0.00487428 0 0.00670211)
(0.00479308 0 0.0063503)
(0.00469444 0 0.00599857)
(0.00457605 0 0.00564602)
(0.00443555 0 0.00529128)
(0.00427055 0 0.0049332)
(0.00407867 0 0.00457056)
(0.00385733 0 0.00420148)
(0.00360373 0 0.00382349)
(0.00331483 0 0.00343368)
(0.00298731 0 0.00302863)
(0.00261758 0 0.0026043)
(0.00220166 0 0.00215586)
(0.00173524 0 0.00167747)
(0.00121356 0 0.00116208)
(0.00507754 0 0.00834534)
(0.0050402 0 0.00802186)
(0.00499792 0 0.00769149)
(0.00494837 0 0.00735616)
(0.00488923 0 0.00701734)
(0.00481819 0 0.00667597)
(0.00473297 0 0.00633253)
(0.00463129 0 0.00598704)
(0.00451087 0 0.00563914)
(0.00436935 0 0.00528795)
(0.00420425 0 0.0049321)
(0.00401305 0 0.00457034)
(0.0037932 0 0.0042013)
(0.00354197 0 0.00382292)
(0.00325635 0 0.00343246)
(0.00293312 0 0.0030267)
(0.00256875 0 0.00260171)
(0.00215942 0 0.00215279)
(0.00170097 0 0.00167425)
(0.00118887 0 0.00115921)
(0.000618248 0 0.000599306)
(0.00504955 0 0.00819011)
(0.00500613 0 0.0078895)
(0.00495776 0 0.00757945)
(0.0049024 0 0.00726182)
(0.00483797 0 0.0069381)
(0.00476231 0 0.0066094)
(0.00467324 0 0.00627641)
(0.00456855 0 0.00593941)
(0.00444599 0 0.00559833)
(0.00430326 0 0.00525272)
(0.00413791 0 0.0049016)
(0.00394734 0 0.00454355)
(0.00372887 0 0.0041771)
(0.00347982 0 0.00380064)
(0.00319735 0 0.00341187)
(0.00287831 0 0.00300774)
(0.00251927 0 0.00258451)
(0.00211655 0 0.00213765)
(0.00166615 0 0.00166165)
(0.00116379 0 0.00114985)
(0.000604859 0 0.000594169)
(0 0 0)
(0.00501697 0 0.0079927)
(0.00496867 0 0.00771407)
(0.00491528 0 0.00742417)
(0.004855 0 0.00712466)
(0.00478593 0 0.00681701)
(0.00470611 0 0.00650237)
(0.00461349 0 0.00618155)
(0.00450595 0 0.00585499)
(0.00438129 0 0.00552284)
(0.00423726 0 0.00518485)
(0.00407152 0 0.00484045)
(0.00388152 0 0.00448854)
(0.00366448 0 0.00412746)
(0.00341755 0 0.00375545)
(0.00313807 0 0.00337073)
(0.00282314 0 0.00297072)
(0.0024694 0 0.00255183)
(0.00207327 0 0.00210971)
(0.00163097 0 0.0016391)
(0.00113843 0 0.00113361)
(0.000591325 0 0.000585477)
(0 0 0)
(0.00497976 0 0.0077544)
(0.00492764 0 0.00749668)
(0.00487017 0 0.00722647)
(0.00480577 0 0.00694522)
(0.00473274 0 0.00665428)
(0.00464928 0 0.00635476)
(0.00455348 0 0.0060475)
(0.00444331 0 0.00573308)
(0.00431669 0 0.00541175)
(0.00417142 0 0.00508346)
(0.00400522 0 0.00474782)
(0.0038157 0 0.00440413)
(0.00360005 0 0.00405081)
(0.00335525 0 0.0036859)
(0.00307877 0 0.00330791)
(0.0027679 0 0.00291467)
(0.0024194 0 0.00250282)
(0.00202985 0 0.00206828)
(0.00159564 0 0.00160606)
(0.00111294 0 0.0011101)
(0.000577715 0 0.000573031)
(0 0 0)
(0.0049382 0 0.00747557)
(0.0048831 0 0.0072377)
(0.00482237 0 0.00698664)
(0.0047546 0 0.0067236)
(0.00467825 0 0.00644977)
(0.00459168 0 0.0061662)
(0.0044931 0 0.0058737)
(0.00438061 0 0.0055729)
(0.00425222 0 0.00526412)
(0.00410582 0 0.00494745)
(0.00393918 0 0.00462266)
(0.00375001 0 0.00428919)
(0.00353563 0 0.00394581)
(0.00329313 0 0.00359074)
(0.00301978 0 0.00322235)
(0.00271292 0 0.00283864)
(0.0023696 0 0.00243669)
(0.00198655 0 0.00201271)
(0.00156038 0 0.00156205)
(0.00108749 0 0.00107901)
(0.000564123 0 0.000556669)
(0 0 0)
(0.00489275 0 0.00715573)
(0.00483539 0 0.00693678)
(0.00477211 0 0.00670434)
(0.00470163 0 0.0064594)
(0.00462255 0 0.006203)
(0.00453337 0 0.00593606)
(0.00443243 0 0.00565936)
(0.00431794 0 0.00537352)
(0.00418801 0 0.00507893)
(0.00404062 0 0.00477573)
(0.00387363 0 0.00446379)
(0.00368476 0 0.00414266)
(0.00347159 0 0.00381148)
(0.00323143 0 0.00346886)
(0.00296138 0 0.00311297)
(0.00265859 0 0.00274175)
(0.00232034 0 0.00235265)
(0.00194369 0 0.00194235)
(0.00152545 0 0.00150657)
(0.00106227 0 0.00104002)
(0.000550647 0 0.000536234)
(0 0 0)
(0.0048441 0 0.00679369)
(0.00478506 0 0.00659287)
(0.00471983 0 0.00637861)
(0.00464721 0 0.00615169)
(0.00456593 0 0.00591299)
(0.00447462 0 0.00566332)
(0.00437171 0 0.00540341)
(0.00425555 0 0.00513382)
(0.00412434 0 0.00485498)
(0.00397615 0 0.00456707)
(0.00380891 0 0.00427004)
(0.00362046 0 0.00396356)
(0.00340845 0 0.00364694)
(0.00317044 0 0.00331912)
(0.0029037 0 0.00297853)
(0.0026052 0 0.00262302)
(0.00227201 0 0.00224997)
(0.00190157 0 0.00185657)
(0.00149111 0 0.00143915)
(0.00103746 0 0.000992801)
(0.000537392 0 0.000511576)
(0 0 0)
(0.00479313 0 0.00638751)
(0.00473288 0 0.00620423)
(0.00466617 0 0.00600784)
(0.0045919 0 0.00579895)
(0.0045089 0 0.00557829)
(0.00441587 0 0.00534656)
(0.00431138 0 0.00510441)
(0.00419387 0 0.00485237)
(0.00406163 0 0.00459085)
(0.00391282 0 0.00432007)
(0.00374549 0 0.00404004)
(0.00355754 0 0.00375053)
(0.00334675 0 0.003451)
(0.00311077 0 0.00314056)
(0.00284716 0 0.00281801)
(0.00255292 0 0.00248124)
(0.00222483 0 0.00212761)
(0.00186053 0 0.00175468)
(0.00145765 0 0.0013593)
(0.00101328 0 0.000937057)
(0.000524472 0 0.000482545)
(0 0 0)
(0.00474086 0 0.00593447)
(0.00467976 0 0.00576835)
(0.00461198 0 0.00558971)
(0.00453646 0 0.00539901)
(0.00445213 0 0.00519685)
(0.00435777 0 0.00498384)
(0.00425204 0 0.00476052)
(0.00413346 0 0.00452739)
(0.00400043 0 0.00428484)
(0.0038512 0 0.0040331)
(0.00368391 0 0.00377224)
(0.00349654 0 0.0035021)
(0.00328699 0 0.00322225)
(0.00305301 0 0.00293199)
(0.00279227 0 0.00263026)
(0.00250203 0 0.00231527)
(0.00217916 0 0.00198471)
(0.00182099 0 0.00163607)
(0.00142539 0 0.00126655)
(0.000989967 0 0.000872473)
(0.000512009 0 0.000448991)
(0 0 0)
(0.00468848 0 0.005431)
(0.00462681 0 0.00528192)
(0.00455828 0 0.00512115)
(0.00448184 0 0.00494902)
(0.00439651 0 0.00476602)
(0.00430114 0 0.00457265)
(0.00419446 0 0.00436939)
(0.00407508 0 0.00415668)
(0.00394148 0 0.00393488)
(0.003792 0 0.00370423)
(0.00362486 0 0.00346483)
(0.00343814 0 0.00321659)
(0.00322982 0 0.00295918)
(0.00299775 0 0.00269202)
(0.00273969 0 0.00241419)
(0.00245325 0 0.00212436)
(0.00213546 0 0.00182046)
(0.00178326 0 0.00149992)
(0.00139467 0 0.00116037)
(0.000967769 0 0.000798729)
(0.000500142 0 0.000410764)
(0 0 0)
(0.00463729 0 0.00487251)
(0.00457529 0 0.00474071)
(0.00450625 0 0.00459825)
(0.00442917 0 0.00444536)
(0.00434311 0 0.00428243)
(0.00424699 0 0.00410988)
(0.00413961 0 0.00392812)
(0.00401965 0 0.00373755)
(0.00388567 0 0.00353848)
(0.00373608 0 0.00333117)
(0.00356918 0 0.00311573)
(0.00338314 0 0.00289212)
(0.00317603 0 0.0026601)
(0.00294579 0 0.00241921)
(0.00269028 0 0.00216868)
(0.00240725 0 0.00190746)
(0.00209409 0 0.00163378)
(0.00174779 0 0.00134551)
(0.00136596 0 0.00104031)
(0.000946994 0 0.000715505)
(0.000489028 0 0.000367705)
(0 0 0)
(0.00458882 0 0.00425351)
(0.00452663 0 0.00413959)
(0.00445726 0 0.00401622)
(0.00437975 0 0.00388357)
(0.00429318 0 0.00374195)
(0.00419652 0 0.00359171)
(0.00408865 0 0.0034332)
(0.00396829 0 0.00326677)
(0.00383407 0 0.00309271)
(0.00368447 0 0.00291126)
(0.00351788 0 0.00272253)
(0.00333253 0 0.00252654)
(0.00312657 0 0.00232312)
(0.00289802 0 0.00211191)
(0.00264484 0 0.00189231)
(0.00236487 0 0.00166342)
(0.0020559 0 0.00142399)
(0.00171508 0 0.00117216)
(0.00133961 0 0.000905698)
(0.000927965 0 0.000622438)
(0.000478843 0 0.000319651)
(0 0 0)
(0.00454471 0 0.00356747)
(0.00448244 0 0.00347238)
(0.00441288 0 0.00336927)
(0.00433508 0 0.00325825)
(0.00424816 0 0.00313958)
(0.00415114 0 0.00301354)
(0.00404292 0 0.00288042)
(0.0039223 0 0.00274052)
(0.00378795 0 0.0025941)
(0.00363842 0 0.00244137)
(0.00347215 0 0.00228246)
(0.00328745 0 0.00211741)
(0.00308253 0 0.00194612)
(0.00285551 0 0.00176833)
(0.0026044 0 0.00158357)
(0.00232716 0 0.00139115)
(0.00202172 0 0.00119012)
(0.00168562 0 0.000978966)
(0.00131609 0 0.00075597)
(0.000911152 0 0.000519216)
(0.000469812 0 0.000266438)
(0 0 0)
(0.00450678 0 0.00280651)
(0.0044445 0 0.00273168)
(0.00437483 0 0.00265048)
(0.00429685 0 0.00256298)
(0.0042097 0 0.00246939)
(0.00411243 0 0.00236992)
(0.00400398 0 0.00226481)
(0.0038832 0 0.0021543)
(0.00374879 0 0.00203861)
(0.00359936 0 0.00191792)
(0.00343339 0 0.00179236)
(0.00324926 0 0.00166198)
(0.00304524 0 0.00152674)
(0.0028195 0 0.00138645)
(0.00257013 0 0.00124079)
(0.00229517 0 0.00108925)
(0.00199261 0 0.000931109)
(0.00166043 0 0.000765362)
(0.00129601 0 0.000590656)
(0.000896889 0 0.000405379)
(0.000462172 0 0.000207878)
(0 0 0)
(0.00447702 0 0.00196121)
(0.00441474 0 0.00190866)
(0.00434502 0 0.00185162)
(0.00426693 0 0.00179015)
(0.00417963 0 0.00172437)
(0.0040822 0 0.00165446)
(0.00397361 0 0.00158058)
(0.00385273 0 0.00150291)
(0.0037183 0 0.00142161)
(0.00356896 0 0.00133683)
(0.00340324 0 0.00124867)
(0.00321956 0 0.00115719)
(0.00301623 0 0.00106238)
(0.00279147 0 0.000964123)
(0.00254344 0 0.000862222)
(0.00227023 0 0.000756346)
(0.0019699 0 0.000646016)
(0.00164056 0 0.000530595)
(0.00127999 0 0.000409115)
(0.000885701 0 0.000280583)
(0.000456314 0 0.000143835)
(0 0 0)
(0.00445757 0 0.00102044)
(0.00439531 0 0.000992901)
(0.00432556 0 0.000963018)
(0.00424741 0 0.000930812)
(0.00416003 0 0.000896356)
(0.0040625 0 0.000859739)
(0.00395383 0 0.000821053)
(0.00383288 0 0.000780398)
(0.00369844 0 0.000737864)
(0.00354916 0 0.000693534)
(0.0033836 0 0.00064747)
(0.00320021 0 0.00059971)
(0.00299732 0 0.000550253)
(0.0027732 0 0.000499056)
(0.00252602 0 0.000446021)
(0.00225392 0 0.000390986)
(0.00195501 0 0.000333712)
(0.00162741 0 0.00027387)
(0.00126932 0 0.000211012)
(0.000878325 0 0.000144666)
(0.000452485 0 7.4142e-05)
(0 0 0)
(0.0044507 0 0)
(0.00438844 0 0)
(0.00431869 0 0)
(0.00424052 0 0)
(0.00415311 0 0)
(0.00405555 0 0)
(0.00394685 0 0)
(0.00382588 0 0)
(0.00369144 0 0)
(0.00354218 0 0)
(0.00337668 0 0)
(0.00319339 0 0)
(0.00299066 0 0)
(0.00276676 0 0)
(0.00251988 0 0)
(0.00224816 0 0)
(0.00194975 0 0)
(0.0016228 0 0)
(0.00126558 0 0)
(0.000875692 0 0)
(0.00045112 0 0)
(0 0 0)
)
;

boundaryField
{
    inlet
    {
        type            fixedValue;
        value           nonuniform 0();
    }
    outlet
    {
        type            fixedValue;
        value           uniform (0 0 0);
    }
    flap
    {
        type            fixedValue;
        value           nonuniform 0();
    }
    upperWall
    {
        type            slip;
    }
    lowerWall
    {
        type            slip;
    }
    frontAndBack
    {
        type            empty;
    }
    procBoundary2to1
    {
        type            processor;
    }
    procBoundary2to4
    {
        type            processor;
    }
    procBoundary2to5
    {
        type            processor;
    }
}


// ************************************************************************* //
