/*--------------------------------*- C++ -*----------------------------------*\
| =========                 |                                                 |
| \\      /  F ield         | OpenFOAM: The Open Source CFD Toolbox           |
|  \\    /   O peration     | Version:  dev                                   |
|   \\  /    A nd           | Web:      www.OpenFOAM.org                      |
|    \\/     M anipulation  |                                                 |
\*---------------------------------------------------------------------------*/
FoamFile
{
    version     2.0;
    format      ascii;
    class       surfaceScalarField;
    location    "1.68";
    object      phi;
}
// * * * * * * * * * * * * * * * * * * * * * * * * * * * * * * * * * * * * * //

dimensions      [0 3 -1 0 0 0 0];

internalField   nonuniform List<scalar> 
879
(
0.0303728
-0.00281466
0.0330669
-0.00271027
0.0356389
-0.00258629
0.0380577
-0.00242891
0.0402964
-0.0022431
0.0423449
-0.00204594
0.0441926
-0.00183781
0.0458299
-0.00161994
0.0472864
-0.0014324
0.0486243
-0.00130763
0.0498799
-0.00122029
0.0510588
-0.00113955
0.0521892
-0.0010881
0.0533484
-0.00111477
0.0546438
-0.00124969
0.0562032
-0.00151319
0.0581817
-0.00193232
0.0607663
-0.00253888
0.0641569
-0.00334564
-0.0042203
0.0296731
-0.00524568
0.0319759
-0.00502895
0.0341532
-0.00477752
0.0361856
-0.00447111
0.0380511
-0.00411264
0.0397486
-0.00374045
0.0412665
-0.00334545
0.0425632
-0.00289907
0.0436326
-0.00247752
0.0445287
-0.00217343
0.045282
-0.00193832
0.0458446
-0.00166297
0.0461501
-0.00135135
0.0462074
-0.0011278
0.0461134
-0.00111026
0.0460331
-0.00138681
0.0462169
-0.0020701
0.047049
-0.00332538
0.0490705
-0.0053224
-0.00815282
0.0228161
-0.00666164
0.0240619
-0.00629051
0.0251543
-0.00588364
0.0260753
-0.00540149
0.0267782
-0.00481912
0.027264
-0.00422313
0.0275514
-0.0036224
0.0275118
-0.00284186
0.026913
-0.00185455
0.0257001
-0.000930488
0.0241269
-0.000330192
0.022579
-7.62833e-05
0.0213485
-7.91322e-05
0.0205958
-0.000331302
0.0203815
-0.000850872
0.0208464
-0.00180615
0.0222472
-0.00342518
0.0248089
-0.00584185
0.0286172
-0.00908624
-0.013288
0.0145965
-0.00694857
0.0146609
-0.00637075
0.0145285
-0.0057647
0.014203
-0.00508513
0.0135606
-0.00418
0.0124091
-0.00306832
0.0107904
-0.00199338
0.0090118
-0.00104595
0.00739112
-0.000210117
0.00608268
0.000407418
0.00508857
0.000698184
0.00438643
0.000663968
0.00403831
0.000309999
0.00413733
-0.000387251
0.00489267
-0.00156185
0.00651526
-0.00338374
0.00897463
-0.00583944
0.0121443
-0.00896677
0.0158031
-0.0127009
-0.0173723
0.00551614
-0.00611143
0.00442454
-0.00529526
0.00302749
-0.00438108
0.00134589
-0.00341254
-0.000393605
-0.00244379
-0.00195579
-0.00150289
-0.00330818
-0.000630893
-0.00444332
0.000106039
-0.00530509
0.000674781
-0.00589736
0.00102837
-0.00624266
0.00107688
-0.00631109
0.000769602
-0.00605322
9.2227e-05
-0.0053862
-0.00101209
-0.00420666
-0.00269785
-0.00250302
-0.00504313
-0.000296815
-0.00800121
0.00227615
-0.0114956
0.00487133
-0.0152525
-0.019344
-0.00387989
-0.00438737
-0.00565066
-0.00354096
-0.00735437
-0.00269085
-0.00892166
-0.00185422
-0.0103232
-0.00104554
-0.0115268
-0.000296359
-0.0124896
0.00034159
-0.0132098
0.000842478
-0.0136947
0.00118204
-0.0139271
0.00128849
-0.0139044
0.00108652
-0.0136278
0.000529086
-0.013076
-0.0004205
-0.0121913
-0.00185565
-0.0109704
-0.00387619
-0.00947915
-0.00649098
-0.00782214
-0.00961457
-0.00623157
-0.0130426
-0.00500239
-0.0164386
-0.0195205
-0.0115856
-0.00253157
-0.0133071
-0.00183623
-0.0148506
-0.00116095
-0.0161997
-0.000514161
-0.0173297
8.09457e-05
-0.0182203
0.000596856
-0.0188845
0.00101493
-0.0193342
0.0013075
-0.0195575
0.00142675
-0.0195513
0.00130892
-0.019329
0.000895388
-0.0189065
0.000141444
-0.0182746
-0.00101457
-0.0174313
-0.00265895
-0.0164219
-0.00484409
-0.0153237
-0.00754683
-0.0142601
-0.0106354
-0.0134303
-0.0138296
-0.013114
-0.0167124
-0.018892
-0.0174738
-0.000813045
-0.0189989
-0.000328201
-0.0203071
0.000133604
-0.0213839
0.000553407
-0.0222321
0.000925343
-0.0228688
0.00123571
-0.0233027
0.00145723
-0.0235315
0.00155074
-0.0235571
0.00147259
-0.0233951
0.00117231
-0.0230679
0.000598028
-0.0225949
-0.000297934
-0.0219895
-0.00158342
-0.0212844
-0.00332534
-0.0205358
-0.00555231
-0.019819
-0.00822234
-0.0192461
-0.0111665
-0.0189769
-0.0140568
-0.0192278
-0.0164198
-0.0179442
-0.0217829
0.000656349
-0.0230205
0.000892267
-0.0240371
0.00113636
-0.0248521
0.00135892
-0.0254653
0.00153439
-0.0258749
0.00164685
-0.0260872
0.00167712
-0.0261165
0.0015935
-0.02598
0.00135518
-0.0257015
0.00091796
-0.0253087
0.000233742
-0.0248257
-0.000748654
-0.0242863
-0.00208768
-0.0237401
-0.00383404
-0.0232439
-0.00600946
-0.0228629
-0.00856307
-0.0226838
-0.0113048
-0.0228213
-0.0138783
-0.0234106
-0.0157894
-0.0168542
-0.0245572
0.00179301
-0.0255067
0.00182456
-0.0262684
0.00188401
-0.0268406
0.00192149
-0.0272126
0.00190178
-0.027387
0.00182227
-0.0273813
0.00167827
-0.0272233
0.00144799
-0.026942
0.00109177
-0.0265653
0.000564086
-0.0261226
-0.000181718
-0.0256477
-0.00119276
-0.0251877
-0.00251382
-0.0247985
-0.00418706
-0.0245337
-0.00623633
-0.0244433
-0.00861434
-0.0245797
-0.0111286
-0.0250094
-0.0134084
-0.0258036
-0.0149548
-0.0156931
-0.0259305
0.00261348
-0.0265892
0.00246599
-0.0270859
0.0023668
-0.0274042
0.00222994
-0.0275268
0.00201951
-0.027461
0.00175692
-0.0272409
0.00146423
-0.0269081
0.00112677
-0.0264979
0.000698378
-0.026039
0.000126756
-0.0255617
-0.000633138
-0.0251079
-0.00161707
-0.0247313
-0.00285802
-0.0244891
-0.00439434
-0.0244318
-0.00625693
-0.0245933
-0.00841484
-0.0249919
-0.0106912
-0.0256437
-0.0127173
-0.0265668
-0.0139922
-0.0145002
-0.0258926
0.00304638
-0.0262232
0.00277967
-0.0264509
0.00258064
-0.0265244
0.00229359
-0.0264006
0.00189057
-0.0260939
0.00145025
-0.0256644
0.00104013
-0.0251737
0.000646734
-0.0246604
0.000200825
-0.0241471
-0.000366179
-0.0236621
-0.00109351
-0.0232492
-0.00200183
-0.0229611
-0.00311491
-0.0228553
-0.0044666
-0.0229821
-0.00609469
-0.0233646
-0.00799544
-0.0239902
-0.0100278
-0.024826
-0.0118431
-0.0258429
-0.0129365
-0.0132935
-0.0243025
0.00299493
-0.0242898
0.00275037
-0.0242759
0.00255313
-0.02413
0.00213803
-0.0237591
0.00151444
-0.0231978
0.000888582
-0.0225586
0.000405799
-0.0219337
3.17201e-05
-0.0213585
-0.000359694
-0.020841
-0.000864377
-0.0203978
-0.00151332
-0.0200647
-0.00230799
-0.01989
-0.00325973
-0.0199255
-0.00439874
-0.0202205
-0.00576541
-0.0207991
-0.00738107
-0.0216314
-0.00915869
-0.0226413
-0.0107957
-0.0237496
-0.0117901
-0.0120682
-0.0209551
0.00231646
-0.0206121
0.00239134
-0.0204283
0.00235619
-0.0201014
0.00180165
-0.0194465
0.000854443
-0.0185629
4.42478e-06
-0.0176792
-0.000473584
-0.0169388
-0.000699396
-0.0163578
-0.000926837
-0.0159069
-0.001297
-0.0155793
-0.00181874
-0.0154008
-0.0024607
-0.0154095
-0.00322243
-0.015637
-0.00414012
-0.0161144
-0.00525486
-0.0168782
-0.00658259
-0.0179134
-0.00808763
-0.0191147
-0.00955767
-0.0203477
-0.0105199
-0.0107945
-0.0155617
0.000803147
-0.0150226
0.00183708
-0.0148321
0.00215326
-0.0143513
0.00131193
-0.0132146
-0.000287216
-0.0117836
-0.00142693
-0.0105634
-0.00168969
-0.00971261
-0.00154142
-0.00915727
-0.00146897
-0.00880618
-0.00163069
-0.00864321
-0.00196049
-0.00870326
-0.00237603
-0.0090168
-0.00288136
-0.00958269
-0.00354421
-0.010375
-0.00443048
-0.0113982
-0.00552579
-0.0126746
-0.0067763
-0.0141224
-0.00807411
-0.0155597
-0.00904609
-0.00942132
-0.00930533
-0.00249676
-0.00766722
-0.000852241
-0.00757937
0.0017342
-0.00773981
0.00230147
-0.00686274
0.000426205
-0.00462052
-0.00253415
-0.00221146
-0.0038364
-0.000446743
-0.00345032
0.000622115
-0.00260166
0.00125789
-0.00209172
0.00163348
-0.00198907
0.00171579
-0.00202178
0.00139642
-0.00203221
0.000618405
-0.00207589
-0.000587172
-0.00230863
-0.00212013
-0.00286538
-0.00380191
-0.00381014
-0.00556978
-0.00497318
-0.00747302
-0.0061346
-0.00933605
-0.00714597
-0.00777425
0.0203204
0.00988795
0.00474982
0.00685818
0.00435138
0.00268887
0.00693308
-0.00216309
0.0096801
-0.00528515
0.0117216
-0.00587777
0.0131437
-0.004868
0.0141874
-0.00363659
0.0151041
-0.00299533
0.0160058
-0.00287376
0.0166933
-0.00268854
0.0168801
-0.00219486
0.0163656
-0.00153424
0.0150404
-0.000953705
0.0128699
-0.000663012
0.0098974
-0.00080392
0.00660512
-0.00164575
0.00363946
-0.00313266
0.00106537
-0.00453469
-0.00540034
0.09479
0.0832718
0.0704862
0.0106161
0.0575391
0.00765919
0.0465309
0.00513135
0.0389423
0.00272563
0.0351137
0.000201185
0.0341541
-0.00202246
0.0345673
-0.00326994
0.0353257
-0.00342623
0.0359191
-0.00276426
0.0361016
-0.00168987
0.0357312
-0.000553816
0.0346646
0.000435289
0.0327368
0.00115743
0.029603
0.00152306
0.0250895
0.00141718
0.0201978
0.0003943
-0.0011015
0.153775
0.143102
0.0183304
0.132714
0.0155207
0.122482
0.012964
0.112044
0.0106486
0.101432
0.00860353
0.0913199
0.00685956
0.082473
0.0054414
0.0753794
0.00435319
0.070097
0.00361941
0.0662972
0.00327525
0.0634584
0.00330565
0.0610523
0.00359696
0.0586806
0.00392979
0.0561164
0.00401762
0.0529811
0.003567
0.00290739
0.211509
0.201986
0.192493
0.0224644
0.182982
0.0201704
0.173433
0.0181666
0.163863
0.0164477
0.154345
0.0149801
0.145012
0.0137101
0.136061
0.0125973
0.127741
0.0116241
0.1203
0.0107788
0.113902
0.010028
0.108576
0.00929069
0.104193
0.00843705
0.100578
0.00721933
0.00634179
0.250447
0.242397
0.234289
0.0262903
0.22615
0.0246051
0.218026
0.0231252
0.209971
0.0217891
0.202058
0.0205366
0.194393
0.0193189
0.187115
0.0180872
0.180396
0.0167808
0.174404
0.0153172
0.169278
0.0135993
0.16513
0.0114048
0.00972183
0.284325
0.278012
0.0309359
0.271729
0.0294297
0.265517
0.028026
0.259425
0.0266553
0.253523
0.0252504
0.247903
0.0237384
0.242678
0.0220391
0.237968
0.0200617
0.233885
0.0177184
0.230533
0.0147952
0.012522
0.319881
0.315467
0.311137
0.03238
0.306937
0.0308823
0.30292
0.0292968
0.299146
0.0275442
0.295682
0.0255361
0.292596
0.0231825
0.289942
0.0204082
0.28776
0.0170153
0.0144374
0.34761
0.345108
0.0334109
0.342772
0.0316622
0.340638
0.0297094
0.33874
0.0274679
0.3371
0.0248571
0.335725
0.0218188
0.334603
0.0181753
0.0154935
0.375182
0.374211
0.373394
0.0305584
0.372736
0.028159
0.372232
0.0253957
0.371856
0.0222305
0.371565
0.0185035
0.015845
0.398945
0.399196
0.0279411
0.399512
0.0251143
0.399853
0.0219257
0.400162
0.0182319
0.0156723
0.419846
0.42071
0.421524
0.0211468
0.42223
0.0175633
0.0151424
0.438628
0.439572
0.0166564
0.0143923
0.453744
0.0135218
)
;

boundaryField
{
    inlet
    {
        type            calculated;
        value           nonuniform 0();
    }
    outlet
    {
        type            calculated;
        value           nonuniform List<scalar> 
30
(
0.0684207
0.0530464
0.0337956
0.0199304
0.00688569
-0.00478362
-0.0137007
-0.0201343
-0.0244599
-0.0269247
-0.0277202
-0.0270108
-0.0249368
-0.0215839
-0.016896
-0.0109456
-0.00127085
0.0159368
0.0490102
0.0971818
0.161789
0.227771
0.285883
0.333585
0.371252
0.400373
0.422798
0.44036
0.454653
0.466935
)
;
    }
    flap
    {
        type            calculated;
        value           nonuniform 0();
    }
    upperWall
    {
        type            calculated;
        value           nonuniform 0();
    }
    lowerWall
    {
        type            calculated;
        value           uniform 0;
    }
    frontAndBack
    {
        type            empty;
        value           nonuniform 0();
    }
    procBoundary5to2
    {
        type            processor;
        value           nonuniform List<scalar> 
34
(
0.0124166
0.00956326
-0.106157
0.01821
0.0141963
-0.164728
0.0215621
-0.221128
0.0279465
0.0250451
-0.25844
0.030462
0.0282312
-0.290629
0.0326081
-0.324346
0.0354171
0.0338656
-0.350241
0.0350348
-0.376295
0.0345485
0.032662
-0.398786
0.0304293
-0.418981
0.0271084
0.0242845
-0.437528
0.0200827
-0.452675
0.0156239
-0.465971
0.0125951
)
;
    }
    procBoundary5to4
    {
        type            processor;
        value           nonuniform List<scalar> 
18
(
-0.0275743
-0.0272586
-0.021417
-0.0143271
-0.00637154
0.00213685
0.00971031
0.0157355
0.0202936
0.0234006
0.0250903
0.0254402
0.024335
0.0216153
0.0170576
-0.000998252
0.0127806
-0.0352535
)
;
    }
}


// ************************************************************************* //
