/*--------------------------------*- C++ -*----------------------------------*\
| =========                 |                                                 |
| \\      /  F ield         | OpenFOAM: The Open Source CFD Toolbox           |
|  \\    /   O peration     | Version:  dev                                   |
|   \\  /    A nd           | Web:      www.OpenFOAM.org                      |
|    \\/     M anipulation  |                                                 |
\*---------------------------------------------------------------------------*/
FoamFile
{
    version     2.0;
    format      ascii;
    class       volVectorField;
    location    "0.32";
    object      U;
}
// * * * * * * * * * * * * * * * * * * * * * * * * * * * * * * * * * * * * * //

dimensions      [0 1 -1 0 0 0 0];

internalField   nonuniform List<vector> 
465
(
(7.56768 0 4.69569)
(8.13573 -2.48751e-19 4.14743)
(8.82794 -6.89214e-21 4.12855)
(9.35393 1.11931e-19 3.61881)
(9.86781 -2.44138e-19 2.90518)
(10.3295 -2.42328e-19 1.99578)
(10.591 0 3.69402)
(10.9349 0 3.15724)
(11.3286 0 2.46582)
(11.7221 2.34853e-19 1.61253)
(12.0761 -2.39381e-19 0.610657)
(12.9832 -4.62545e-20 3.51077)
(13.1309 0 2.88495)
(13.3685 3.99261e-19 2.15333)
(13.6586 -4.08967e-19 1.29531)
(13.972 0 0.298508)
(14.3299 -4.34905e-19 -0.83442)
(14.6485 3.39692e-19 -2.05616)
(15.4845 4.42816e-20 3.45807)
(15.5535 -4.37175e-20 2.74391)
(15.7008 -2.69615e-20 1.94893)
(15.9063 7.57605e-19 1.05188)
(16.1502 -3.67907e-19 0.0361216)
(16.3968 4.67249e-20 -1.08141)
(16.5731 -3.75243e-19 -2.24577)
(16.6479 2.37582e-19 -3.39916)
(16.5917 3.36116e-19 -4.48612)
(17.5139 0 3.39248)
(17.6004 0 2.62433)
(17.7252 -3.43486e-19 1.78568)
(17.8757 -7.11961e-19 0.863572)
(18.033 7.17e-19 -0.145996)
(18.1344 0 -1.21431)
(18.1461 0 -2.29539)
(18.0465 -5.91026e-19 -3.34505)
(17.8173 -2.87559e-19 -4.32064)
(17.4523 0 -5.18191)
(18.8218 0 3.26344)
(18.956 0 2.48427)
(19.0849 -3.62666e-20 1.64131)
(19.1966 3.44353e-19 0.732788)
(19.2727 -3.52086e-20 -0.231746)
(19.2611 0 -1.22327)
(19.1492 -2.56055e-19 -2.20886)
(18.9227 2.72334e-19 -3.15514)
(18.5728 2.23906e-19 -4.02817)
(18.1013 2.04114e-19 -4.79619)
(17.5205 -1.59837e-19 -5.43323)
(16.8509 -2.2439e-20 -5.92191)
(19.4342 1.45996e-20 3.07445)
(19.6087 -2.35489e-19 2.32301)
(19.744 3.10696e-20 1.51448)
(19.8286 -6.21121e-20 0.655666)
(19.8478 -2.36939e-19 -0.237095)
(19.7681 0 -1.13926)
(19.5839 2.50135e-19 -2.02704)
(19.2881 -2.34279e-19 -2.87456)
(18.8783 -1.93009e-19 -3.65468)
(18.3605 -2.00202e-19 -4.34218)
(17.7488 1.79358e-19 -4.91659)
(17.0632 1.74791e-20 -5.36403)
(16.3279 -1.71833e-20 -5.67838)
(19.511 1.23649e-20 2.8476)
(19.7064 2.17485e-19 2.15091)
(19.8429 -2.31877e-19 1.40379)
(19.91 2.60243e-20 0.617299)
(19.897 2.24723e-19 -0.190747)
(19.7861 -2.59783e-20 -1.00043)
(19.573 0 -1.79324)
(19.2555 3.81052e-19 -2.5489)
(18.835 -2.14715e-20 -3.24576)
(18.3194 1.47237e-21 -3.86357)
(17.7225 1.6784e-21 -4.38571)
(17.0625 1.71728e-20 -4.80062)
(16.3606 0 -5.1026)
(15.639 0 -5.29205)
(14.9189 -9.1273e-21 -5.3748)
(19.2439 -1.03891e-20 2.607)
(19.4418 1.02187e-20 1.97882)
(19.5737 1.89494e-19 1.30651)
(19.6305 -1.43069e-19 0.601949)
(19.6038 -2.16509e-19 -0.118455)
(19.4864 0 -0.838487)
(19.2739 2.10467e-20 -1.54267)
(18.9668 -1.95204e-19 -2.21476)
(18.5682 1.84974e-20 -2.83745)
(18.0861 -1.81162e-20 -3.39426)
(17.5328 1.52339e-20 -3.87136)
(16.924 -1.49531e-20 -4.25872)
(16.2777 0 -4.55077)
(15.6126 9.87751e-21 -4.74664)
(14.9466 -9.72077e-21 -4.84979)
(14.2957 -6.74317e-20 -4.86722)
(18.7968 8.67828e-21 2.37089)
(18.9848 5.66466e-20 1.81443)
(19.1081 0 1.21958)
(19.1591 1.4384e-19 0.597189)
(19.1308 1.40138e-19 -0.0389161)
(19.021 1.76288e-19 -0.675442)
(18.8257 -1.8191e-20 -1.29901)
(18.5463 -1.70149e-20 -1.89614)
(18.1866 1.38861e-19 -2.45279)
(17.7535 -1.13631e-19 -2.95539)
(17.2573 0 -3.39224)
(16.711 -8.1718e-20 -3.75441)
(16.1296 -9.40682e-20 -4.03641)
(15.5287 0 -4.23632)
(14.9232 6.02906e-20 -4.35566)
(14.3267 0 -4.39894)
(13.7505 0 -4.37292)
(13.2036 5.77973e-20 -4.28587)
(18.2823 -6.65414e-21 2.14953)
(18.4542 -1.00619e-20 1.66151)
(18.5674 4.08643e-20 1.14019)
(18.6151 -5.37723e-22 0.59472)
(18.5915 -1.22317e-19 0.0362468)
(18.4959 -2.38369e-19 -0.524286)
(18.3249 -1.55846e-22 -1.07537)
(18.0801 -1.49057e-20 -1.60553)
(17.7647 -2.1404e-21 -2.10311)
(17.3846 1.11126e-19 -2.55681)
(16.9482 -8.91356e-22 -2.9566)
(16.466 8.07261e-20 -3.29449)
(15.9502 1.5322e-19 -3.56507)
(15.4135 0 -3.76567)
(14.8684 -5.27747e-20 -3.89635)
(14.3267 3.76868e-20 -3.95969)
(13.7983 3.10643e-20 -3.96028)
(13.2914 -5.27748e-20 -3.90414)
(12.8116 -1.47508e-21 -3.79817)
(17.7636 0 1.9466)
(17.9181 -8.55688e-21 1.52082)
(18.0209 -1.02494e-19 1.06618)
(18.0666 0 0.590062)
(18.05 0 0.101334)
(17.9704 1.15402e-19 -0.390944)
(17.8252 -1.09775e-19 -0.877086)
(17.6152 1.18667e-19 -1.34728)
(17.3434 -1.26687e-19 -1.7917)
(17.0143 -7.2319e-20 -2.20077)
(16.6347 -7.74014e-20 -2.56586)
(16.2128 0 -2.87977)
(15.7586 -6.29838e-20 -3.13725)
(15.2823 -6.26004e-20 -3.33515)
(14.7946 -4.68989e-20 -3.47253)
(14.3053 -4.32105e-20 -3.5505)
(13.8233 -6.93967e-20 -3.57194)
(13.3563 3.58568e-21 -3.54111)
(12.9096 0 -3.46317)
(12.4937 2.11129e-20 -3.34346)
(17.2695 8.93337e-21 1.76189)
(17.4075 -4.40812e-20 1.3915)
(17.5011 4.61487e-20 0.996039)
(17.5454 -5.1319e-20 0.581383)
(17.5361 1.09162e-20 0.154528)
(17.472 -1.12049e-20 -0.276909)
(17.3511 1.17131e-19 -0.704904)
(17.1735 -1.02796e-19 -1.12125)
(16.9415 0 -1.51755)
(16.6587 8.23743e-20 -1.88562)
(16.3304 1.42646e-19 -2.21793)
(15.9631 0 -2.50804)
(15.5647 5.4503e-20 -2.75093)
(15.1437 5.98446e-20 -2.94321)
(14.7088 4.52289e-20 -3.08323)
(14.2686 -3.93218e-20 -3.17105)
(13.8308 3.39216e-20 -3.20824)
(13.4023 4.18719e-20 -3.19765)
(12.9885 -2.37199e-21 -3.143)
(12.5989 -3.96951e-20 -3.04842)
(12.1283 8.84189e-21 -2.92059)
(16.8104 8.00629e-21 1.59358)
(16.9341 -7.85453e-21 1.27204)
(17.0197 0 0.928672)
(17.063 3.9527e-20 0.568139)
(17.0605 0 0.195999)
(17.0098 -9.39883e-21 -0.181287)
(16.911 7.7838e-20 -0.557499)
(16.7624 -6.70396e-20 -0.925403)
(16.5658 0 -1.27794)
(16.3241 0 -1.60814)
(16.0412 -8.3321e-21 -1.90943)
(15.7225 -6.6866e-21 -2.17603)
(15.374 -1.00121e-19 -2.40321)
(15.0028 5.84115e-21 -2.58749)
(14.616 0 -2.72679)
(14.221 3.73612e-20 -2.82039)
(13.8246 -3.57203e-21 -2.86891)
(13.4329 -3.96337e-20 -2.87407)
(13.0512 -1.38293e-21 -2.83847)
(12.6879 1.79067e-20 -2.76516)
(12.2464 -8.64833e-21 -2.65951)
(16.389 -1.57993e-20 1.43932)
(16.5007 1.7986e-20 1.16075)
(16.5797 0 0.863186)
(16.6224 2.73571e-20 0.550324)
(16.6259 2.82743e-20 0.226614)
(16.5875 -2.09275e-20 -0.102777)
(16.5076 -4.6368e-20 -0.432709)
(16.3842 6.58552e-20 -0.756995)
(16.2186 0 -1.06968)
(16.0128 0 -1.36483)
(15.7699 -1.11148e-19 -1.63675)
(15.4939 5.11925e-20 -1.88025)
(15.1898 5.14884e-20 -2.09093)
(14.863 -4.1239e-20 -2.26537)
(14.5198 0 -2.4012)
(14.1661 0 -2.49721)
(13.808 0 -2.55329)
(13.451 1.48236e-20 -2.57031)
(13.1 2.52501e-21 -2.54997)
(12.7627 1.46056e-20 -2.49444)
(12.3502 0 -2.40795)
(16.0052 1.67139e-20 1.29676)
(16.1068 6.5948e-22 1.05606)
(16.1804 0 0.798851)
(16.2229 -2.68627e-20 0.52803)
(16.2316 -2.77488e-20 0.247133)
(16.2043 2.82285e-20 -0.0397014)
(16.1407 -2.17167e-20 -0.328174)
(16.0392 -3.0063e-20 -0.613142)
(15.9005 0 -0.889514)
(15.726 1.16044e-20 -1.15224)
(15.5179 3.65292e-20 -1.39637)
(15.2794 -4.41607e-20 -1.61732)
(15.0143 -4.45903e-21 -1.81103)
(14.7272 4.37817e-20 -1.9742)
(14.423 -3.11293e-20 -2.10437)
(14.1069 2.59219e-20 -2.19999)
(13.784 -4.9885e-21 -2.26045)
(13.4593 -1.58755e-20 -2.28598)
(13.1374 1.65606e-21 -2.27757)
(12.8252 -1.49145e-20 -2.23669)
(12.4412 0 -2.1666)
(15.6579 -4.09134e-21 1.16389)
(15.7513 -1.51381e-20 0.956641)
(15.8206 0 0.735037)
(15.8632 -2.32622e-20 0.501334)
(15.8767 2.40856e-20 0.258351)
(15.859 1.42421e-20 0.0094352)
(15.8095 -5.5475e-21 -0.241803)
(15.727 3.38839e-20 -0.49118)
(15.6115 0 -0.734379)
(15.4641 0 -0.967058)
(15.2863 0 -1.18494)
(15.0804 0 -1.38397)
(14.8497 3.01589e-20 -1.56048)
(14.5975 0 -1.71135)
(14.3281 2.67395e-20 -1.83411)
(14.0458 -2.02043e-20 -1.92706)
(13.7551 1.41392e-20 -1.98924)
(13.4603 -1.29453e-20 -2.02041)
(13.1656 0 -2.02103)
(12.8773 0 -1.99203)
(12.5207 0 -1.93582)
(15.3463 -3.17086e-21 1.03883)
(15.433 -1.24296e-20 0.861173)
(15.4989 3.49799e-21 0.671048)
(15.5418 1.36282e-20 0.47023)
(15.5595 -3.44453e-20 0.260974)
(15.5502 -1.50031e-20 0.0459691)
(15.5129 9.03715e-21 -0.171735)
(15.4467 7.68783e-21 -0.388783)
(15.3513 -1.62832e-20 -0.601541)
(15.2271 8.35018e-21 -0.806302)
(15.0755 -4.61026e-20 -0.999365)
(14.8981 2.85675e-20 -1.17717)
(14.6972 -1.9127e-20 -1.33641)
(14.4758 2.00458e-20 -1.47423)
(14.2373 -2.54238e-21 -1.58823)
(13.9852 3.58468e-22 -1.67664)
(13.7234 -1.41044e-20 -1.73831)
(13.4559 1.26712e-20 -1.7727)
(13.1865 -4.51495e-22 -1.77986)
(12.9206 4.4279e-22 -1.76028)
(12.5901 -5.07675e-21 -1.71571)
(15.0695 -1.83312e-21 0.919952)
(15.1508 1.17468e-20 0.768595)
(15.2141 0 0.606471)
(15.2575 8.241e-21 0.434976)
(15.2789 1.84712e-20 0.255901)
(15.2768 0 0.071402)
(15.2498 -1.3593e-20 -0.115974)
(15.1977 -2.24755e-20 -0.303599)
(15.1194 8.6519e-21 -0.488341)
(15.0153 0 -0.667075)
(14.8861 2.94662e-20 -0.836633)
(14.7332 -5.15778e-20 -0.993909)
(14.5583 2.83855e-21 -1.13598)
(14.3638 -2.5594e-20 -1.26023)
(14.1523 0 -1.36442)
(13.927 -1.85617e-21 -1.44682)
(13.6912 1.59016e-20 -1.50616)
(13.4483 -2.61666e-21 -1.54172)
(13.2019 8.79727e-21 -1.55328)
(12.9568 4.30012e-21 -1.54099)
(12.6506 4.96256e-21 -1.50607)
(14.8266 -2.44546e-22 0.805631)
(14.9035 0 0.677781)
(14.9649 0 0.540716)
(15.0088 -1.13662e-20 0.395518)
(15.0335 2.86761e-21 0.243599)
(15.0375 -8.82781e-21 0.086685)
(15.0196 8.0523e-21 -0.0731886)
(14.9793 2.48641e-20 -0.233837)
(14.9155 -1.14044e-20 -0.392656)
(14.8285 -5.96455e-21 -0.547013)
(14.7185 5.8388e-21 -0.694224)
(14.5866 2.3507e-20 -0.831616)
(14.4341 -1.65527e-20 -0.956635)
(14.2627 -2.38644e-21 -1.06694)
(14.0748 -1.90751e-21 -1.16051)
(13.873 3.48268e-21 -1.23568)
(13.6601 -4.23801e-21 -1.29118)
(13.4392 1.28389e-21 -1.3262)
(13.2134 -7.26051e-22 -1.34032)
(12.9873 -4.58547e-21 -1.33347)
(12.7033 0 -1.30644)
(14.6168 1.33522e-21 0.694972)
(14.6904 3.57857e-21 0.588297)
(14.7502 -1.86088e-21 0.473825)
(14.7947 1.82329e-21 0.352387)
(14.8224 0 0.225087)
(14.8317 0 0.0932963)
(14.8215 1.34799e-20 -0.0413576)
(14.791 -1.62047e-21 -0.177078)
(14.7396 1.12164e-20 -0.311759)
(14.6669 -5.04478e-21 -0.443187)
(14.5731 2.46692e-21 -0.569108)
(14.459 0 -0.687257)
(14.3254 1.85966e-20 -0.795441)
(14.1739 0 -0.891617)
(14.0062 0 -0.973975)
(13.8247 0 -1.04099)
(13.6317 -1.07314e-20 -1.09145)
(13.4301 0 -1.12452)
(13.2227 -5.94277e-21 -1.13968)
(13.0134 -3.01649e-22 -1.1367)
(12.7494 -1.78668e-21 -1.11608)
(14.4397 7.96393e-22 0.586157)
(14.5107 -3.11039e-21 0.4987)
(14.5695 0 0.404762)
(14.6147 -2.70666e-21 0.304974)
(14.6448 -3.14264e-21 0.200187)
(14.6585 -1.99551e-21 0.0914745)
(14.6547 1.95547e-21 -0.0198733)
(14.6325 -7.09586e-21 -0.13239)
(14.5912 5.90275e-21 -0.244396)
(14.5305 -8.00303e-21 -0.354074)
(14.4502 2.06156e-21 -0.459556)
(14.3509 -2.01809e-21 -0.55896)
(14.2332 7.03845e-21 -0.650442)
(14.0984 0 -0.73227)
(13.9478 4.33953e-21 -0.802876)
(13.7835 1.82224e-22 -0.860914)
(13.6076 1.20137e-21 -0.905291)
(13.4225 0 -0.935185)
(13.231 0 -0.950049)
(13.0364 0 -0.949579)
(12.79 1.74596e-21 -0.934053)
(14.2952 -7.71838e-22 0.479532)
(14.3641 4.43701e-22 0.409744)
(14.4223 -1.5469e-21 0.334714)
(14.4681 2.65219e-21 0.254909)
(14.5003 5.97236e-22 0.170975)
(14.5178 -1.62687e-21 0.0837343)
(14.5192 4.69511e-21 -0.00581312)
(14.5038 0 -0.0965085)
(14.4708 -1.46364e-20 -0.187057)
(14.4197 7.83492e-21 -0.276003)
(14.3505 -6.7376e-21 -0.361837)
(14.2632 -6.49695e-21 -0.443029)
(14.1586 -6.88907e-21 -0.518075)
(14.0374 -5.65036e-21 -0.585545)
(13.901 -5.65407e-21 -0.644128)
(13.7509 4.4265e-21 -0.692676)
(13.5892 -8.84733e-22 -0.730237)
(13.418 -2.10915e-21 -0.756067)
(13.2397 -4.18621e-21 -0.769639)
(13.0576 -2.36521e-22 -0.770622)
(12.826 0 -0.759153)
(14.1832 3.12411e-22 0.371775)
(14.2508 2.50131e-22 0.318425)
(14.3084 1.51579e-21 0.261019)
(14.3549 0 0.19989)
(14.3889 2.43041e-21 0.13551)
(14.4092 0 0.0684924)
(14.4148 -4.38225e-22 -0.00041523)
(14.4047 2.79638e-21 -0.0703263)
(14.3783 7.99086e-21 -0.140257)
(14.3348 4.50294e-21 -0.209083)
(14.2742 6.59401e-21 -0.275643)
(14.1965 1.20675e-20 -0.338759)
(14.1021 -5.41388e-21 -0.397267)
(13.9917 5.52854e-21 -0.450048)
(13.8665 0 -0.496069)
(13.7278 -3.37237e-21 -0.534409)
(13.5773 -9.3737e-22 -0.56429)
(13.4171 2.90941e-21 -0.58509)
(13.2494 4.54522e-21 -0.596352)
(13.0773 -2.12073e-22 -0.597764)
(12.8577 -6.59625e-22 -0.589393)
(14.1045 -3.19266e-22 0.266329)
(14.1711 -4.27612e-23 0.228518)
(14.2286 -2.83084e-22 0.187792)
(14.2757 -7.75251e-22 0.144385)
(14.3111 1.56593e-21 0.0986208)
(14.3338 0 0.0509193)
(14.3425 -1.30184e-21 0.00179341)
(14.3365 -3.95117e-21 -0.0481592)
(14.3149 -2.85497e-21 -0.098266)
(14.2772 -2.90151e-21 -0.147722)
(14.223 0 -0.195678)
(14.1523 -5.58606e-21 -0.241268)
(14.0653 5.29654e-21 -0.283635)
(13.9628 2.26651e-21 -0.321947)
(13.8455 0 -0.355437)
(13.7147 -1.79912e-21 -0.383416)
(13.5721 -1.52033e-21 -0.405302)
(13.4195 -2.72333e-21 -0.420623)
(13.2591 2.10225e-21 -0.429025)
(13.0937 5.90663e-23 -0.43026)
(12.8821 5.86741e-22 -0.424335)
(14.058 1.52011e-22 0.155573)
(14.124 2.31209e-22 0.132789)
(14.1813 -2.04415e-22 0.108225)
(14.2286 2.45125e-22 0.0820479)
(14.2648 -1.13674e-21 0.0544598)
(14.2887 0 0.0257145)
(14.2991 0 -0.00385759)
(14.2952 5.89004e-22 -0.0338497)
(14.2758 -1.74642e-21 -0.0638411)
(14.2404 0 -0.0933921)
(14.1885 0 -0.122016)
(14.1201 -1.18348e-21 -0.149202)
(14.0355 1.13054e-21 -0.174434)
(13.9351 -2.21709e-21 -0.197214)
(13.8199 9.55233e-22 -0.217076)
(13.6911 2.15723e-21 -0.233607)
(13.5503 -3.24572e-22 -0.246455)
(13.3994 3.53764e-21 -0.255342)
(13.2406 -1.02122e-21 -0.260068)
(13.0767 -4.81877e-22 -0.260524)
(12.868 0 -0.256899)
(13.7626 0 0.0502827)
(13.8235 -5.2924e-24 0.0423266)
(13.8753 2.09125e-22 0.0337203)
(13.9168 -3.22634e-22 0.0245418)
(13.947 3.40033e-22 0.0148768)
(13.9646 -2.22584e-22 0.00483152)
(13.9686 2.1783e-22 -0.00544242)
(13.9581 -2.73897e-22 -0.0157512)
(13.9324 1.41515e-21 -0.0259499)
(13.891 0 -0.0359191)
(13.8336 -2.90394e-22 -0.0455195)
(13.7601 1.44459e-21 -0.0545944)
(13.6708 -1.3742e-21 -0.0629812)
(13.5662 5.04746e-22 -0.070519)
(13.4473 -1.176e-21 -0.0770554)
(13.3153 0 -0.0824515)
(13.1718 1.47267e-21 -0.0865877)
(13.0188 -1.20029e-21 -0.0893686)
(12.8583 -8.42723e-22 -0.0907316)
(12.6931 5.46671e-22 -0.0906561)
(12.4827 1.29157e-23 -0.0894314)
)
;

boundaryField
{
    inlet
    {
        type            fixedValue;
        value           nonuniform 0();
    }
    outlet
    {
        type            zeroGradient;
    }
    flap
    {
        type            movingWallVelocity;
        value           nonuniform 0();
    }
    upperWall
    {
        type            noSlip;
    }
    lowerWall
    {
        type            noSlip;
    }
    frontAndBack
    {
        type            empty;
    }
    procBoundary2to1
    {
        type            processor;
        value           nonuniform List<vector> 
17
(
(18.0592 4.07607e-20 2.59736)
(17.5642 -5.24433e-20 2.33781)
(17.0926 -2.64175e-20 2.10266)
(16.6533 3.09721e-20 1.88972)
(16.2487 0 1.69606)
(15.8789 0 1.51873)
(15.5434 -5.79775e-21 1.35508)
(15.2415 1.0557e-20 1.20271)
(14.9725 6.30842e-21 1.05954)
(14.7359 -5.06342e-21 0.9235)
(14.5312 4.12876e-22 0.793278)
(14.3582 1.32745e-22 0.666709)
(14.2167 -4.64294e-22 0.543772)
(14.107 1.94321e-22 0.42086)
(14.0298 6.28987e-23 0.301081)
(13.9844 2.69106e-22 0.176476)
(13.694 3.2742e-22 0.0575419)
)
;
    }
    procBoundary2to4
    {
        type            processor;
        value           nonuniform List<vector> 
11
(
(6.98091 0 5.02943)
(8.33542 2.10987e-19 4.45144)
(10.3556 -3.87558e-19 4.10889)
(12.9613 3.24466e-19 4.0649)
(15.5053 0 4.11739)
(17.4678 0 4.10621)
(18.6841 -2.35261e-19 3.98507)
(19.225 2.75397e-20 3.76717)
(19.2636 1.90437e-19 3.48762)
(18.988 4.50503e-21 3.18305)
(18.5525 0 2.88108)
)
;
    }
    procBoundary2to5
    {
        type            processor;
        value           nonuniform List<vector> 
34
(
(6.37277 1.27629e-19 5.21546)
(6.88196 -3.81667e-19 4.62275)
(8.66699 -2.51129e-19 3.3727)
(8.66699 -2.51129e-19 3.3727)
(9.13652 0 2.37833)
(10.6979 -2.47251e-19 0.930193)
(10.6979 -2.47251e-19 0.930193)
(12.4357 -5.11872e-19 -0.531007)
(12.4357 -5.11872e-19 -0.531007)
(12.7767 5.60576e-20 -1.78454)
(14.8882 -4.81764e-20 -3.30206)
(14.8882 -4.81764e-20 -3.30206)
(15.0092 0 -4.50184)
(16.3878 2.34207e-19 -5.45469)
(16.3878 2.34207e-19 -5.45469)
(16.9597 0 -5.89531)
(16.9597 0 -5.89531)
(16.3588 2.23792e-20 -6.4381)
(16.1188 -1.35912e-19 -6.25487)
(16.1188 -1.35912e-19 -6.25487)
(15.5686 0 -5.86129)
(15.5686 0 -5.86129)
(14.8102 8.36731e-20 -5.92138)
(14.2189 -1.38716e-19 -5.361)
(14.2189 -1.38716e-19 -5.361)
(13.6728 -6.44043e-21 -4.80849)
(13.6728 -6.44043e-21 -4.80849)
(13.0872 -7.10922e-20 -4.68456)
(12.6912 -1.63353e-21 -4.14671)
(12.6912 -1.63353e-21 -4.14671)
(12.37 -2.40586e-20 -3.64915)
(12.37 -2.40586e-20 -3.64915)
(11.9946 -1.04706e-20 -3.19019)
(11.9946 -1.04706e-20 -3.19019)
)
;
    }
}


// ************************************************************************* //
