/*--------------------------------*- C++ -*----------------------------------*\
| =========                 |                                                 |
| \\      /  F ield         | OpenFOAM: The Open Source CFD Toolbox           |
|  \\    /   O peration     | Version:  dev                                   |
|   \\  /    A nd           | Web:      www.OpenFOAM.org                      |
|    \\/     M anipulation  |                                                 |
\*---------------------------------------------------------------------------*/
FoamFile
{
    version     2.0;
    format      ascii;
    class       volVectorField;
    location    "4.99";
    object      U;
}
// * * * * * * * * * * * * * * * * * * * * * * * * * * * * * * * * * * * * * //

dimensions      [0 1 -1 0 0 0 0];

internalField   nonuniform List<vector> 
2790
(
(9.9334 8.08153e-22 0.01844)
(9.86619 2.59447e-20 0.025365)
(9.77487 0 0.0297806)
(9.66417 1.09175e-20 0.0343343)
(9.54051 3.79625e-21 0.0390672)
(9.40553 0 0.0439398)
(9.25849 0 0.0490797)
(9.09846 0 0.0546298)
(8.92466 0 0.0607104)
(8.73624 -1.92001e-20 0.0674355)
(8.53219 -2.52795e-22 0.0749262)
(8.31132 1.55932e-20 0.0833152)
(8.07226 0 0.0927493)
(7.8135 0 0.10339)
(7.53342 4.89306e-20 0.115413)
(7.23026 -3.78576e-20 0.129014)
(6.90219 1.34005e-20 0.144403)
(6.54725 0 0.161803)
(6.1635 0 0.181457)
(5.74912 1.25946e-19 0.203585)
(5.30241 2.31068e-21 0.228337)
(4.82208 1.36596e-19 0.255817)
(4.30754 -2.91261e-19 0.286084)
(3.75871 3.75327e-19 0.31907)
(3.17642 0 0.354484)
(2.56294 -3.28619e-19 0.391724)
(1.92224 5.03377e-19 0.429583)
(1.26075 1.71796e-19 0.464272)
(0.570218 5.18423e-19 0.468251)
(-0.10233 -7.29659e-19 -0.047853)
(9.99731 5.4837e-20 0.0360263)
(9.98993 -3.00936e-20 0.0513199)
(9.96002 0 0.0618528)
(9.90881 -5.81776e-20 0.0732284)
(9.84171 1.51347e-20 0.0855226)
(9.76054 0 0.0985648)
(9.66487 3.31136e-20 0.112606)
(9.55388 0 0.127959)
(9.4269 0 0.144892)
(9.28323 0 0.163668)
(9.12197 0 0.184579)
(8.94199 -5.18645e-21 0.207946)
(8.74199 0 0.234121)
(8.52053 1.84318e-19 0.263475)
(8.27601 -1.90464e-19 0.296401)
(8.00669 2.15774e-19 0.333324)
(7.71072 -2.23146e-19 0.374684)
(7.38604 0 0.42091)
(7.03054 0 0.472383)
(6.64221 0 0.529365)
(6.21894 -6.4217e-20 0.591878)
(5.75881 0 0.659656)
(5.26044 -7.11e-19 0.732093)
(4.72278 3.64883e-19 0.80806)
(4.14518 1.39102e-18 0.88552)
(3.52781 -1.2661e-18 0.961056)
(2.87177 -4.91195e-19 1.02888)
(2.18059 -1.51e-18 1.0772)
(1.41724 1.17282e-18 1.08194)
(0.842619 -2.51093e-18 0.96331)
(9.99463 5.7872e-20 0.0361588)
(9.98471 6.6893e-21 0.0578362)
(9.95723 4.10926e-23 0.07532)
(9.91088 -1.45578e-20 0.0940335)
(9.84978 3.02156e-20 0.114332)
(9.77585 9.5003e-20 0.136086)
(9.68884 -6.59837e-20 0.159624)
(9.58808 0 0.18538)
(9.473 3.60685e-20 0.213756)
(9.34303 7.59771e-20 0.245172)
(9.1974 -2.37642e-19 0.280101)
(9.03519 1.6445e-19 0.319085)
(8.85529 1.69188e-19 0.362713)
(8.65642 -1.7751e-19 0.411609)
(8.4372 1.18796e-20 0.466437)
(8.19606 -4.27743e-19 0.52793)
(7.93132 4.67871e-19 0.596871)
(7.64104 0 0.674053)
(7.3232 0 0.760208)
(6.97566 9.75411e-19 0.855897)
(6.59595 -9.40971e-19 0.961387)
(6.18147 0 1.07651)
(5.72968 1.3884e-19 1.20055)
(5.23788 1.30762e-18 1.33202)
(4.70281 1.37119e-18 1.4682)
(4.1203 2.97969e-20 1.60444)
(3.48406 3.45301e-19 1.73338)
(2.7855 -2.9116e-18 1.84293)
(1.96577 6.51374e-19 1.92176)
(1.19518 -1.04808e-18 1.96104)
(9.99284 -9.6514e-20 0.0385938)
(9.98042 -1.13187e-19 0.0683356)
(9.95268 0 0.094241)
(9.90743 0 0.120709)
(9.84778 0 0.148725)
(9.77559 -6.31501e-20 0.178525)
(9.69084 0 0.210594)
(9.59302 0 0.245497)
(9.48168 -3.59933e-20 0.283784)
(9.35637 0 0.326039)
(9.21653 0 0.372909)
(9.06144 1.02955e-20 0.425125)
(8.89028 1.61315e-20 0.483493)
(8.7021 -1.4158e-21 0.54887)
(8.49583 -1.18223e-20 0.622174)
(8.27027 2.46614e-20 0.704429)
(8.02414 4.1763e-19 0.796753)
(7.75588 4.44958e-19 0.900308)
(7.46394 -9.01986e-19 1.01627)
(7.14651 0 1.1457)
(6.80119 0 1.28938)
(6.42534 1.04754e-18 1.44767)
(6.01576 -1.07475e-18 1.62032)
(5.56855 0 1.80637)
(5.07837 2.05387e-18 2.00378)
(4.53723 2.74094e-20 2.20897)
(3.93293 -4.92537e-18 2.41692)
(3.25 7.84367e-18 2.62127)
(2.44022 -5.63624e-18 2.81542)
(1.52737 1.35208e-18 3.07404)
(9.99195 1.025e-19 0.0425814)
(9.97797 1.06424e-19 0.079027)
(9.94988 -1.10705e-19 0.1121)
(9.90547 0 0.14537)
(9.84713 0 0.180349)
(9.77649 0 0.217645)
(9.69371 0 0.257844)
(9.59834 0 0.301586)
(9.49001 -1.43943e-19 0.349522)
(9.36834 1.48808e-19 0.402354)
(9.23288 1.96308e-19 0.460854)
(9.08301 1.46167e-19 0.525877)
(8.91812 -3.2899e-19 0.598375)
(8.7375 3.55894e-19 0.679377)
(8.54031 -3.71355e-19 0.76999)
(8.32566 -8.1309e-19 0.871459)
(8.09265 7.10175e-19 0.985166)
(7.8401 0 1.11255)
(7.56693 -9.02169e-19 1.25517)
(7.27184 8.11343e-19 1.41463)
(6.9528 -1.10422e-18 1.59231)
(6.60742 -1.00837e-18 1.7893)
(6.2325 -2.62199e-19 2.00626)
(5.82359 -2.20255e-18 2.2434)
(5.37457 4.23811e-18 2.5003)
(4.87602 -4.3521e-18 2.77571)
(4.31369 2.64892e-18 3.06799)
(3.66811 4.80029e-18 3.37808)
(2.93743 2.96631e-19 3.68081)
(1.91019 -5.84744e-18 4.168)
(9.99146 -8.96013e-20 0.0473338)
(9.97667 -1.32485e-20 0.0897851)
(9.94857 2.20926e-19 0.129573)
(9.90516 1.15056e-19 0.169614)
(9.84834 0 0.211615)
(9.77958 0 0.256412)
(9.6991 -1.31293e-19 0.304657)
(9.60654 2.72922e-19 0.357051)
(9.50156 -1.41733e-19 0.414343)
(9.38385 0 0.477343)
(9.25302 2.34724e-19 0.54694)
(9.10858 -3.02086e-19 0.624104)
(8.95002 -3.62219e-19 0.709919)
(8.77679 3.54399e-19 0.805561)
(8.58824 7.4482e-19 0.912294)
(8.38368 3.51112e-20 1.03155)
(8.16248 -7.5052e-19 1.16493)
(7.9238 -8.48704e-19 1.31413)
(7.66675 8.72373e-19 1.48098)
(7.39056 1.20488e-21 1.66761)
(7.0938 2.15819e-18 1.87607)
(6.7744 1.72092e-18 2.10821)
(6.42955 2.5771e-18 2.3658)
(6.0549 -1.84328e-18 2.65046)
(5.64456 4.65126e-18 2.96381)
(5.18985 -4.71803e-18 3.30712)
(4.67825 -2.8557e-19 3.6809)
(4.08201 -4.53722e-18 4.0939)
(3.47734 8.98213e-18 4.47575)
(2.34859 -9.80916e-18 5.16978)
(9.99124 0 0.052461)
(9.97615 0 0.100572)
(9.94841 -1.10205e-19 0.146674)
(9.90615 -2.63616e-22 0.193258)
(9.85109 0 0.242048)
(9.78457 0 0.294038)
(9.7068 0 0.349968)
(9.61748 -2.03993e-19 0.410622)
(9.51633 -1.43542e-19 0.476848)
(9.4031 2.20134e-19 0.549557)
(9.27746 -3.82413e-20 0.629736)
(9.13903 0 0.718455)
(8.9874 0 0.816898)
(8.82224 0 0.926384)
(8.64298 1.42068e-21 1.04832)
(8.44898 -2.38791e-20 1.18427)
(8.23984 0 1.33602)
(8.01514 -5.14278e-20 1.5055)
(7.77405 0 1.6948)
(7.51603 -1.68927e-18 1.90639)
(7.24036 1.61348e-18 2.14301)
(6.94536 4.80656e-19 2.40736)
(6.62882 -2.24645e-18 2.70232)
(6.28717 1.77448e-18 3.03092)
(5.91529 2.58198e-19 3.39647)
(5.50599 0 3.80246)
(5.05154 -4.28304e-18 4.24971)
(4.508 8.53254e-18 4.7574)
(4.05375 -4.22859e-18 5.18704)
(2.83133 -4.56365e-18 6.05819)
(9.99125 -2.02894e-19 0.0577259)
(9.97616 -2.10281e-19 0.11128)
(9.94899 2.19032e-19 0.163325)
(9.90804 -2.2853e-19 0.216162)
(9.85497 -1.18918e-19 0.271472)
(9.791 0 0.330352)
(9.71631 -1.29865e-19 0.393642)
(9.63065 6.72555e-20 0.462201)
(9.53381 0 0.536961)
(9.4256 7.33698e-20 0.618922)
(9.30575 7.64891e-20 0.709156)
(9.17397 0 0.808807)
(9.02995 -7.08381e-19 0.919128)
(8.87355 6.86911e-19 1.04158)
(8.70438 7.22821e-19 1.17776)
(8.52184 -7.44635e-19 1.32934)
(8.32567 2.42374e-20 1.49818)
(8.1157 5.0906e-20 1.68645)
(7.89141 -1.74544e-18 1.89655)
(7.65235 1.62575e-18 2.13122)
(7.3982 1.13608e-19 2.39373)
(7.12788 -1.19291e-19 2.68761)
(6.8398 0 3.01679)
(6.5316 2.42265e-19 3.38561)
(6.1994 -2.52381e-19 3.79864)
(5.83708 -4.02969e-18 4.2609)
(5.4439 4.10649e-18 4.77147)
(4.9512 0 5.36484)
(4.65465 0 5.81863)
(3.34472 0 6.83994)
(9.99137 4.0465e-19 0.0629774)
(9.97654 4.19343e-19 0.121811)
(9.95017 -2.18665e-19 0.179468)
(9.91074 5.689e-20 0.238235)
(9.85988 1.77772e-19 0.299763)
(9.79875 0 0.365213)
(9.72748 -1.283e-19 0.43551)
(9.64589 2.67717e-19 0.511577)
(9.55381 4.19179e-19 0.594416)
(9.45114 -2.89048e-19 0.685113)
(9.33767 7.53508e-20 0.784818)
(9.2132 -3.16353e-19 0.894739)
(9.07751 -2.91783e-19 1.01617)
(8.93049 1.3629e-18 1.15066)
(8.77203 5.21848e-20 1.30002)
(8.60187 -7.31969e-19 1.46605)
(8.41971 -2.69721e-20 1.65068)
(8.22549 -1.61856e-18 1.85625)
(8.01905 1.68372e-18 2.08544)
(7.80021 1.86386e-18 2.34133)
(7.56882 -1.84826e-18 2.62759)
(7.32437 -1.80533e-18 2.94843)
(7.06608 1.83247e-18 3.30868)
(6.79268 -4.10291e-18 3.71378)
(6.50197 3.78815e-18 4.16935)
(6.18821 0 4.68175)
(5.85889 -1.7607e-19 5.24618)
(5.41326 -3.66702e-18 5.91745)
(5.27005 3.20528e-18 6.38276)
(3.87876 0 7.53368)
(9.99146 -2.01735e-19 0.06812)
(9.97724 -2.61279e-19 0.132042)
(9.95198 -1.62722e-19 0.19501)
(9.91427 0 0.259377)
(9.86585 0 0.326791)
(9.80782 -1.23075e-19 0.398462)
(9.7403 1.27068e-19 0.475383)
(9.66313 2.66062e-19 0.558527)
(9.57623 -8.29573e-19 0.648948)
(9.47959 4.31944e-19 0.747815)
(9.37308 -7.22111e-20 0.856361)
(9.25653 -3.09475e-19 0.975845)
(9.12989 0 1.10761)
(8.99297 6.74709e-19 1.25324)
(8.8459 -7.36734e-19 1.41466)
(8.68882 0 1.59382)
(8.52154 1.48362e-18 1.79282)
(8.34407 -1.52728e-18 2.0141)
(8.15651 -1.60769e-18 2.26058)
(7.95914 1.58619e-18 2.53566)
(7.75198 1.06521e-19 2.84337)
(7.53503 -1.35826e-19 3.18847)
(7.30837 1.35877e-20 3.57655)
(7.07167 1.12847e-19 4.01388)
(6.82434 5.51195e-20 4.50705)
(6.5606 0 5.06416)
(6.29699 1.12229e-19 5.67535)
(5.89583 0 6.41877)
(5.89444 -3.76271e-19 6.89554)
(4.42931 7.25489e-18 8.16417)
(9.99154 0 0.073095)
(9.97812 0 0.141861)
(9.95417 1.62437e-19 0.209853)
(9.91835 5.61873e-20 0.279497)
(9.87254 0 0.352442)
(9.81783 -1.22251e-19 0.429953)
(9.75432 1.26389e-19 0.513089)
(9.68188 0 0.602844)
(9.6005 -2.74397e-19 0.700307)
(9.51027 5.70381e-19 0.806728)
(9.41115 -2.94505e-19 0.923434)
(9.30306 7.64684e-20 1.05173)
(9.18602 -6.40091e-19 1.19297)
(9.05991 6.57447e-19 1.34879)
(8.92512 0 1.52114)
(8.78191 8.79803e-20 1.7121)
(8.63031 2.29913e-20 1.92394)
(8.47054 1.52637e-18 2.15926)
(8.30293 -1.54284e-18 2.42108)
(8.12813 0 2.71309)
(7.9466 0 3.03968)
(7.75887 2.61927e-20 3.40607)
(7.56584 9.03365e-20 3.81842)
(7.36804 3.36962e-18 4.28381)
(7.16619 -3.43611e-18 4.80977)
(6.95424 0 5.40665)
(6.75819 3.96439e-19 6.06006)
(6.40288 0 6.87145)
(6.5286 7.78003e-19 7.37395)
(5.00087 1.69108e-19 8.76342)
(9.9917 3.98307e-19 0.0778576)
(9.97913 0 0.151206)
(9.95662 0 0.223937)
(9.92288 0 0.298526)
(9.87986 -2.32334e-19 0.376627)
(9.82868 -1.21381e-19 0.459576)
(9.76944 3.76422e-19 0.548491)
(9.70202 -1.30337e-19 0.644378)
(9.62646 1.3607e-19 0.748333)
(9.54289 2.81666e-19 0.861674)
(9.45142 5.8682e-19 0.985812)
(9.35221 -6.79465e-19 1.12209)
(9.24527 6.30252e-19 1.27189)
(9.13053 -6.4674e-19 1.43683)
(9.00865 0 1.61889)
(8.87997 -8.71199e-20 1.82027)
(8.74476 0 2.04339)
(8.60357 0 2.29092)
(8.457 -1.5099e-18 2.566)
(8.30591 8.86896e-20 2.87249)
(8.15124 1.5645e-18 3.21508)
(7.99431 0 3.59936)
(7.83689 -1.01225e-19 4.03204)
(7.68029 0 4.52089)
(7.52644 -3.87577e-19 5.07455)
(7.36913 0 5.70602)
(7.24341 -3.82234e-19 6.39897)
(6.94206 0 7.27405)
(7.18183 5.07551e-18 7.83198)
(5.61134 -5.54072e-18 9.3712)
(9.9919 -3.97587e-19 0.0823653)
(9.98028 4.1031e-19 0.160024)
(9.95937 0 0.237186)
(9.9279 -2.21989e-19 0.316372)
(9.88788 2.31738e-19 0.399241)
(9.84044 2.39744e-19 0.487207)
(9.78571 1.40199e-22 0.581447)
(9.72363 1.3143e-19 0.682971)
(9.65417 -1.33924e-19 0.792883)
(9.57748 -1.39721e-19 0.912525)
(9.49387 0 1.04333)
(9.4038 -1.48742e-19 1.18669)
(9.30728 0 1.34404)
(9.20441 0 1.51703)
(9.09581 6.60527e-19 1.70756)
(8.982 -5.07108e-19 1.91789)
(8.86374 -1.72923e-19 2.15056)
(8.74181 0 2.40831)
(8.61707 0 2.69438)
(8.49067 -9.37699e-20 3.01274)
(8.36406 -1.86154e-19 3.36817)
(8.23926 0 3.76646)
(8.11913 0 4.21486)
(8.00586 0 4.72187)
(7.90303 -3.4729e-19 5.29718)
(7.80473 0 5.9566)
(7.75411 0 6.68636)
(7.52496 0 7.61777)
(7.87418 1.13598e-18 8.27371)
(6.29849 -6.08041e-19 10.0342)
(9.99214 -3.93945e-19 0.0865879)
(9.98149 -4.6063e-19 0.168268)
(9.96228 5.31001e-20 0.249537)
(9.93322 1.10752e-19 0.332953)
(9.89632 1.14622e-19 0.420189)
(9.85273 -2.39025e-19 0.512736)
(9.80268 2.46797e-19 0.61182)
(9.74611 -1.50122e-21 0.718469)
(9.68293 -1.33265e-19 0.833786)
(9.6134 -1.37178e-19 0.95909)
(9.53806 0 1.09579)
(9.4574 7.38581e-19 1.24531)
(9.37152 3.9196e-21 1.40918)
(9.28087 1.59757e-19 1.58907)
(9.18595 -6.43062e-19 1.78681)
(9.08741 -1.49521e-18 2.00459)
(8.98647 1.52582e-18 2.24498)
(8.88413 0 2.5108)
(8.78162 -1.75089e-19 2.80538)
(8.68054 -1.77349e-19 3.13269)
(8.58291 5.40157e-19 3.49745)
(8.49141 -3.57547e-19 3.9055)
(8.40969 -3.54751e-19 4.36424)
(8.34132 0 4.8829)
(8.29242 7.02387e-19 5.47204)
(8.25858 -6.41539e-19 6.14954)
(8.29017 0 6.90885)
(8.16438 0 7.87944)
(8.63646 -2.06657e-18 8.67539)
(7.1249 -3.70562e-19 10.8072)
(9.99239 4.17735e-19 0.0905024)
(9.98279 -4.81707e-19 0.175902)
(9.96538 5.2775e-20 0.260946)
(9.93885 1.09961e-19 0.348222)
(9.90515 -1.13815e-19 0.439423)
(9.86552 1.18562e-19 0.536107)
(9.82026 -6.12998e-19 0.639554)
(9.76926 -7.07661e-23 0.750808)
(9.71253 2.63726e-19 0.870939)
(9.65048 -1.36335e-19 1.00121)
(9.58374 -2.835e-19 1.14304)
(9.51271 5.78586e-19 1.29787)
(9.43758 1.48749e-19 1.46723)
(9.3592 -1.54646e-19 1.65286)
(9.27818 1.5703e-19 1.8565)
(9.1953 1.45837e-18 2.08022)
(9.11189 -1.15743e-18 2.32654)
(9.02925 0 2.5983)
(8.94909 1.72718e-19 2.8988)
(8.87354 -1.54748e-18 3.23192)
(8.8052 1.38363e-18 3.6022)
(8.74757 6.92415e-19 4.01536)
(8.7048 3.47297e-19 4.47855)
(8.68228 0 5.00101)
(8.68906 -6.30203e-19 5.59348)
(8.72465 2.98036e-18 6.27403)
(8.8457 -2.3245e-18 7.04456)
(8.86333 9.64131e-19 8.01602)
(9.49666 3.09706e-19 8.95108)
(8.17837 1.70017e-18 11.7956)
(0.107919 0 -0.0842684)
(0.264993 0 -0.10678)
(0.462582 2.5261e-21 -0.0872805)
(0.653553 4.8578e-21 -0.0657916)
(0.820211 -4.67264e-21 -0.0500296)
(0.963856 -2.36886e-21 -0.0397922)
(1.08905 0 -0.0333882)
(1.20125 0 -0.0294134)
(1.30464 0 -0.026757)
(1.40048 1.57013e-21 -0.0245587)
(1.48925 9.33394e-22 -0.0221836)
(1.57155 6.57758e-22 -0.0192064)
(1.64561 -4.0302e-22 -0.0154854)
(1.71003 4.00424e-22 -0.0111465)
(1.76372 2.36652e-22 -0.00657412)
(1.8064 0 -0.00232474)
(1.83896 0 0.00106743)
(1.86304 6.92653e-24 0.00320744)
(1.88075 1.13485e-23 0.00392026)
(1.89513 7.51421e-23 0.00331652)
(1.90927 -3.03483e-23 0.00179482)
(1.92498 2.99216e-23 -0.00016958)
(1.94335 0 -0.00218598)
(1.96456 0 -0.00390632)
(1.98783 0 -0.00506464)
(2.01191 8.13973e-23 -0.00555164)
(2.03542 0 -0.00542895)
(2.0572 2.06289e-24 -0.00490633)
(2.07696 -2.03627e-24 -0.0042504)
(2.09897 0 -0.00391876)
(0.0932325 -2.29238e-20 -0.196139)
(0.233136 5.24367e-21 -0.236512)
(0.437082 3.85954e-20 -0.200376)
(0.635557 -2.46026e-20 -0.15939)
(0.816022 1.44224e-20 -0.129138)
(0.976691 -1.69933e-20 -0.109266)
(1.119 0 -0.0971502)
(1.24713 -2.75057e-22 -0.0901955)
(1.36506 -9.94445e-22 -0.086059)
(1.47494 -1.42452e-21 -0.0829494)
(1.57883 -3.19146e-21 -0.0796622)
(1.67835 0 -0.0752394)
(1.77319 0 -0.069201)
(1.86293 0 -0.0616403)
(1.9472 -2.35186e-22 -0.0530194)
(2.02532 1.78609e-22 -0.0440366)
(2.09699 -1.85718e-23 -0.03546)
(2.16231 -1.65398e-23 -0.0280591)
(2.22143 3.01606e-23 -0.0226028)
(2.27543 1.04567e-22 -0.0195455)
(2.32572 -6.25911e-23 -0.0186872)
(2.37327 6.17097e-23 -0.0193913)
(2.41875 -3.27827e-22 -0.0208803)
(2.46226 6.16425e-23 -0.0223263)
(2.50342 0 -0.0230602)
(2.54165 -8.09218e-23 -0.0227362)
(2.57629 0 -0.0213412)
(2.6068 -3.79013e-24 -0.019144)
(2.63273 2.67873e-24 -0.0165421)
(2.65747 1.04325e-24 -0.013929)
(0.0638892 -2.41414e-20 -0.331819)
(0.162269 -6.10582e-21 -0.369584)
(0.360038 4.33157e-20 -0.319232)
(0.544513 -1.5572e-20 -0.260728)
(0.71253 3.60831e-20 -0.216138)
(0.861405 -3.99367e-20 -0.186138)
(0.991894 1.52342e-21 -0.167518)
(1.1077 1.91213e-20 -0.156679)
(1.21297 9.99217e-22 -0.150182)
(1.3107 2.90681e-21 -0.145561)
(1.40312 6.46152e-21 -0.141284)
(1.49239 2.11596e-21 -0.136006)
(1.57966 -2.10872e-21 -0.128807)
(1.66476 1.15538e-21 -0.11968)
(1.74775 -1.14375e-21 -0.10905)
(1.8283 -2.80279e-22 -0.0976533)
(1.90617 3.32695e-22 -0.0864307)
(1.98139 -1.40345e-23 -0.0762957)
(2.05353 2.74971e-22 -0.0681468)
(2.12218 -6.29118e-22 -0.0625513)
(2.18698 6.63898e-22 -0.0593625)
(2.24744 6.37505e-24 -0.057858)
(2.30315 1.29178e-22 -0.0570476)
(2.35358 -5.0839e-22 -0.0559119)
(2.39819 3.77968e-22 -0.0537016)
(2.43648 4.60322e-23 -0.0500989)
(2.46803 0 -0.0451917)
(2.49257 -1.27305e-22 -0.0393585)
(2.51009 0 -0.0330807)
(2.52214 0 -0.0264409)
(0.0335931 2.3266e-22 -0.465736)
(0.078226 -4.80112e-20 -0.481034)
(0.278033 -4.72001e-20 -0.418212)
(0.447431 4.47031e-20 -0.34482)
(0.598772 -1.07692e-20 -0.288123)
(0.729839 0 -0.249594)
(0.841064 1.9304e-20 -0.225651)
(0.936889 -2.0329e-20 -0.211621)
(1.02222 0 -0.203572)
(1.10092 1.77591e-21 -0.198374)
(1.17564 0 -0.194016)
(1.24838 -4.25738e-21 -0.189001)
(1.32051 6.07923e-21 -0.182337)
(1.39309 -1.34033e-21 -0.173642)
(1.46606 0 -0.16317)
(1.53931 5.02178e-22 -0.151613)
(1.61259 -2.13175e-22 -0.139903)
(1.68552 1.61302e-23 -0.128937)
(1.75733 -1.81383e-22 -0.119458)
(1.82682 5.59483e-22 -0.111841)
(1.89285 -2.13244e-22 -0.105878)
(1.95419 1.42381e-22 -0.100881)
(2.00965 6.069e-22 -0.0959435)
(2.05816 5.08999e-22 -0.0901837)
(2.09882 2.29599e-23 -0.0829904)
(2.13092 3.39325e-23 -0.0741502)
(2.15394 -2.51536e-22 -0.0638655)
(2.16767 1.22531e-22 -0.052668)
(2.1725 5.05922e-24 -0.0413172)
(2.16703 0 -0.0304098)
(0.0032701 0 -0.596986)
(-0.0167972 -1.34545e-20 -0.573247)
(0.193481 0 -0.500638)
(0.345401 -4.90941e-20 -0.414527)
(0.477122 9.55381e-20 -0.346968)
(0.586601 -9.77507e-20 -0.300308)
(0.674065 4.51839e-20 -0.271559)
(0.745542 1.84534e-21 -0.255569)
(0.807702 -1.58684e-20 -0.246917)
(0.864736 1.59973e-20 -0.241991)
(0.919491 3.01677e-21 -0.238415)
(0.974198 4.25642e-21 -0.234524)
(1.03017 -1.08092e-21 -0.229303)
(1.08804 -1.80588e-21 -0.222262)
(1.14853 -8.37395e-22 -0.213366)
(1.21181 -1.93394e-22 -0.202975)
(1.2769 -2.1059e-22 -0.191864)
(1.34299 -2.38947e-22 -0.180813)
(1.40884 7.6321e-22 -0.170397)
(1.47307 -5.09461e-22 -0.160835)
(1.53422 3.66855e-22 -0.151931)
(1.59073 -7.03152e-22 -0.14307)
(1.64104 -6.07979e-22 -0.13349)
(1.68403 -1.29985e-22 -0.122516)
(1.7188 -3.20904e-22 -0.109727)
(1.74468 0 -0.0950826)
(1.76123 4.32834e-22 -0.0789992)
(1.76819 2.52332e-23 -0.0622997)
(1.76615 5.68433e-23 -0.0461102)
(1.75099 0 -0.031662)
(-0.0252182 -4.55386e-20 -0.724788)
(-0.121035 1.32681e-20 -0.647189)
(0.105425 -2.89598e-20 -0.567486)
(0.237548 0 -0.466647)
(0.344943 0 -0.38769)
(0.427379 6.10529e-21 -0.335475)
(0.488064 -2.16604e-20 -0.303976)
(0.53424 3.98035e-20 -0.28687)
(0.573368 -1.92772e-20 -0.278441)
(0.609614 -9.83837e-21 -0.274688)
(0.645763 -2.20448e-20 -0.272935)
(0.684029 1.2064e-21 -0.271307)
(0.725663 -1.18049e-21 -0.268569)
(0.771226 -2.4575e-21 -0.264049)
(0.82106 1.44324e-21 -0.257572)
(0.875016 -1.50836e-21 -0.249244)
(0.932348 3.36131e-23 -0.239521)
(0.992213 9.26879e-23 -0.228994)
(1.0529 -6.87137e-22 -0.218186)
(1.11296 2.698e-22 -0.207262)
(1.17075 -6.71122e-22 -0.196006)
(1.2246 1.52001e-21 -0.183864)
(1.27294 0 -0.170212)
(1.31441 6.99669e-22 -0.154517)
(1.34768 0 -0.136546)
(1.37175 -8.19043e-22 -0.116397)
(1.38572 -8.31929e-22 -0.0945822)
(1.38876 4.82984e-24 -0.0720862)
(1.38076 -1.43608e-22 -0.0503349)
(1.3546 -3.79349e-23 -0.0309541)
(-0.0496676 5.25175e-20 -0.847596)
(-0.233292 9.33435e-20 -0.702581)
(0.0131359 -3.00654e-20 -0.615529)
(0.118951 5.8535e-20 -0.497092)
(0.196307 -5.90426e-20 -0.410828)
(0.248578 -5.11433e-20 -0.355133)
(0.282 9.77009e-20 -0.322315)
(0.304376 -4.62147e-20 -0.305692)
(0.323136 0 -0.299223)
(0.342127 -3.79166e-21 -0.298307)
(0.363995 0 -0.299868)
(0.39047 0 -0.301822)
(0.422361 3.5513e-21 -0.302809)
(0.460176 2.46711e-21 -0.30197)
(0.503792 0 -0.298852)
(0.552732 8.00866e-22 -0.293309)
(0.605924 -3.86333e-22 -0.285687)
(0.662132 0 -0.27647)
(0.719941 -1.34655e-21 -0.265969)
(0.777918 4.05536e-22 -0.254198)
(0.834032 1.48029e-21 -0.240881)
(0.886279 -8.16953e-22 -0.225547)
(0.932829 1.66064e-21 -0.207724)
(0.972026 1.17221e-21 -0.187069)
(1.00247 1.53517e-21 -0.163415)
(1.02276 7.25254e-22 -0.136856)
(1.03143 1.27346e-21 -0.108031)
(1.02697 -6.51676e-24 -0.0779086)
(1.00757 2.25559e-22 -0.0482872)
(0.9647 3.79628e-23 -0.0228881)
(-0.0694835 0 -0.963952)
(-0.350693 -3.1331e-20 -0.736574)
(-0.0873962 6.65363e-20 -0.642204)
(-0.0174318 -8.39302e-20 -0.506505)
(0.0270483 -6.00636e-20 -0.413921)
(0.0484217 6.11116e-20 -0.357345)
(0.0558466 3.25172e-21 -0.326789)
(0.0579475 0 -0.313911)
(0.0609657 1.23564e-20 -0.311993)
(0.0678526 -3.05816e-20 -0.315962)
(0.0805547 -8.22389e-21 -0.322434)
(0.10003 -5.2684e-21 -0.32919)
(0.126492 2.75519e-21 -0.33489)
(0.160091 -6.76436e-22 -0.338498)
(0.200244 -6.58271e-22 -0.339254)
(0.246392 -3.69626e-22 -0.336764)
(0.296979 8.65551e-22 -0.33124)
(0.350415 0 -0.323173)
(0.405364 1.77229e-21 -0.312848)
(0.46028 -4.18023e-22 -0.300194)
(0.513337 -1.88312e-21 -0.284778)
(0.562477 0 -0.266113)
(0.605684 -3.88332e-21 -0.243791)
(0.640883 -1.91791e-21 -0.217716)
(0.666484 -1.40056e-21 -0.18779)
(0.680889 -1.31508e-21 -0.153936)
(0.681474 2.34521e-22 -0.116195)
(0.665312 -3.99635e-23 -0.0757122)
(0.634134 -1.41961e-22 -0.036668)
(0.582917 0 -0.00615456)
(-0.0858271 -8.69254e-20 -1.07465)
(-0.471245 -3.7994e-20 -0.744646)
(-0.19934 0 -0.640194)
(-0.175287 3.63771e-20 -0.48919)
(-0.166633 4.35415e-21 -0.395528)
(-0.175343 0 -0.343389)
(-0.189979 -3.35083e-21 -0.320728)
(-0.202987 -5.68398e-21 -0.315449)
(-0.210379 4.72333e-21 -0.320421)
(-0.210666 0 -0.330673)
(-0.203234 0 -0.342978)
(-0.187948 0 -0.355193)
(-0.164973 0 -0.366007)
(-0.134677 -6.31853e-22 -0.374361)
(-0.0972268 -1.0869e-21 -0.379219)
(-0.053578 -1.49429e-23 -0.379827)
(-0.0054076 1.10136e-21 -0.376103)
(0.0449657 -1.37053e-21 -0.368843)
(0.0964998 -1.32576e-21 -0.358505)
(0.148057 0 -0.344805)
(0.197746 0 -0.327098)
(0.243417 -3.49581e-21 -0.304766)
(0.282745 2.89425e-21 -0.277522)
(0.313732 -2.57364e-21 -0.245315)
(0.334607 0 -0.208158)
(0.343792 1.46679e-21 -0.166075)
(0.341451 -1.06129e-21 -0.119634)
(0.326932 0 -0.0709824)
(0.299326 -4.64869e-22 -0.0246516)
(0.259557 0 0.0116361)
(-0.0958167 -1.20964e-19 -1.17678)
(-0.586302 1.63517e-19 -0.710301)
(-0.329172 0 -0.600391)
(-0.359682 -2.96364e-20 -0.442338)
(-0.388044 -4.52181e-21 -0.360518)
(-0.422289 -8.15974e-21 -0.321311)
(-0.452828 0 -0.309528)
(-0.475531 -9.50171e-21 -0.313842)
(-0.488901 2.992e-20 -0.327054)
(-0.492976 2.04114e-20 -0.344406)
(-0.488357 1.29293e-20 -0.362905)
(-0.475524 3.50446e-21 -0.380634)
(-0.454907 -3.44541e-21 -0.396441)
(-0.426971 1.10143e-21 -0.409418)
(-0.391489 3.88491e-23 -0.418225)
(-0.350228 -1.75695e-22 -0.421655)
(-0.30527 -2.33323e-21 -0.419529)
(-0.258356 -2.08096e-21 -0.412874)
(-0.210383 2.14188e-21 -0.402523)
(-0.162065 3.10163e-21 -0.388069)
(-0.114841 3.39046e-21 -0.368302)
(-0.0710717 2.85913e-21 -0.342283)
(-0.0333225 -3.08373e-21 -0.30987)
(-0.00355508 5.11466e-21 -0.271537)
(0.0173527 4.55367e-23 -0.22783)
(0.0293251 2.87167e-22 -0.179409)
(0.0313799 1.96459e-21 -0.126584)
(0.0220309 1.2142e-21 -0.0709573)
(0.000446908 4.66452e-22 -0.0174437)
(-0.0223819 -4.76157e-22 0.02521)
(-0.0946835 -1.85019e-19 -1.24491)
(-0.688691 1.44974e-19 -0.623423)
(-0.493632 0 -0.521034)
(-0.573148 1.06222e-20 -0.37709)
(-0.634121 0 -0.313182)
(-0.687937 8.38265e-21 -0.291698)
(-0.728677 -1.87631e-20 -0.294584)
(-0.7563 1.95634e-20 -0.310723)
(-0.771928 7.19765e-21 -0.333414)
(-0.777173 -2.34473e-20 -0.358317)
(-0.773543 5.27237e-21 -0.382974)
(-0.761908 -3.74872e-21 -0.406042)
(-0.742839 0 -0.426818)
(-0.715826 -7.69364e-22 -0.444442)
(-0.681173 3.63682e-22 -0.457129)
(-0.640807 0 -0.462912)
(-0.597478 2.35971e-21 -0.461586)
(-0.553147 -1.51075e-21 -0.454964)
(-0.508037 3.24892e-21 -0.444523)
(-0.46188 -2.19292e-21 -0.42965)
(-0.415645 -4.25807e-21 -0.408318)
(-0.371838 -5.26205e-21 -0.379118)
(-0.333178 4.39617e-21 -0.342281)
(-0.301341 -7.30611e-21 -0.298962)
(-0.276948 0 -0.250122)
(-0.260645 0 -0.196133)
(-0.253501 -4.43e-21 -0.137327)
(-0.257222 -3.123e-21 -0.0754314)
(-0.271545 0 -0.0157122)
(-0.282852 -2.59442e-22 0.0310324)
(-0.0981733 -2.33283e-19 -1.23007)
(-0.772806 2.11719e-19 -0.493289)
(-0.692619 0 -0.406705)
(-0.815346 -7.60213e-20 -0.291669)
(-0.901995 8.82915e-20 -0.256077)
(-0.96693 -8.62121e-21 -0.258782)
(-1.01084 -7.08905e-21 -0.279355)
(-1.03833 0 -0.308626)
(-1.05245 8.73789e-21 -0.34113)
(-1.05609 6.71593e-21 -0.37326)
(-1.05145 -1.62186e-20 -0.403592)
(-1.0395 7.87867e-22 -0.431712)
(-1.02027 2.9004e-21 -0.457354)
(-0.992786 0 -0.479675)
(-0.957373 -3.34767e-22 -0.496353)
(-0.916047 3.29395e-22 -0.504268)
(-0.872789 1.25452e-21 -0.502956)
(-0.830055 1.36206e-21 -0.495719)
(-0.786908 1.64941e-21 -0.485384)
(-0.741449 -5.48089e-21 -0.471041)
(-0.694025 0 -0.449194)
(-0.647722 4.27913e-21 -0.41754)
(-0.606054 0 -0.376677)
(-0.571037 4.05748e-21 -0.328565)
(-0.54325 -4.69879e-21 -0.274684)
(-0.522804 0 -0.215549)
(-0.510573 -1.00761e-21 -0.151346)
(-0.508491 1.92878e-21 -0.0835953)
(-0.515758 5.28925e-23 -0.0177526)
(-0.520855 7.36032e-22 0.0331604)
(-0.120504 1.42964e-19 -1.08927)
(-0.854416 1.2177e-19 -0.329664)
(-0.928072 0 -0.259657)
(-1.08293 8.15982e-20 -0.1882)
(-1.18554 -6.4619e-20 -0.193364)
(-1.25079 -2.96872e-20 -0.22883)
(-1.28918 2.51933e-20 -0.268186)
(-1.31092 -2.45872e-20 -0.309784)
(-1.31951 -2.47531e-20 -0.351737)
(-1.3185 1.29148e-20 -0.390387)
(-1.31085 1.48083e-20 -0.425408)
(-1.29699 -4.07699e-21 -0.458079)
(-1.2758 -1.89888e-21 -0.488297)
(-1.24685 -4.91484e-23 -0.515407)
(-1.20898 -4.97111e-22 -0.536571)
(-1.16447 5.36511e-22 -0.546498)
(-1.11957 -2.97991e-21 -0.543875)
(-1.07789 0 -0.534845)
(-1.03653 -3.90347e-21 -0.524908)
(-0.990833 4.50983e-21 -0.512612)
(-0.940394 7.41118e-21 -0.49163)
(-0.889835 -7.76932e-21 -0.457866)
(-0.844396 -7.18623e-22 -0.412622)
(-0.806423 2.90228e-23 -0.359456)
(-0.775633 5.04795e-21 -0.300824)
(-0.751212 3.07254e-22 -0.23724)
(-0.733836 -1.0356e-21 -0.168321)
(-0.725791 7.28002e-23 -0.0949834)
(-0.726406 -7.22267e-23 -0.0227892)
(-0.726931 1.46114e-21 0.0327166)
(-0.193394 -1.63708e-19 -0.842483)
(-0.980841 1.65299e-19 -0.118131)
(-1.20387 -1.34304e-19 -0.0681448)
(-1.37407 1.16728e-19 -0.0568082)
(-1.47932 1.08752e-20 -0.133085)
(-1.52799 -1.66502e-20 -0.216788)
(-1.54705 0 -0.266149)
(-1.55796 1.02382e-20 -0.314608)
(-1.55806 1.55961e-20 -0.367269)
(-1.54958 -1.3451e-20 -0.411748)
(-1.53755 -4.513e-21 -0.448525)
(-1.52088 0 -0.484815)
(-1.49783 1.46363e-22 -0.519917)
(-1.46692 1.01107e-22 -0.552104)
(-1.42529 -9.93271e-23 -0.578611)
(-1.37503 0 -0.590546)
(-1.3267 6.63529e-21 -0.584351)
(-1.28662 -4.59901e-21 -0.571412)
(-1.24833 0 -0.562318)
(-1.2023 0 -0.55452)
(-1.14713 -5.97894e-21 -0.536282)
(-1.09057 1.40441e-20 -0.500315)
(-1.04083 7.85082e-21 -0.449647)
(-1.00028 7.68357e-21 -0.390834)
(-0.967012 -7.26178e-21 -0.327774)
(-0.938821 -1.70247e-22 -0.260627)
(-0.916092 4.5784e-21 -0.187767)
(-0.901649 4.84394e-23 -0.109013)
(-0.895589 -4.80754e-23 -0.0300215)
(-0.891959 -1.46131e-21 0.0308512)
(-0.347952 0 -0.829715)
(-1.29792 -7.10293e-20 0.122594)
(-1.49366 8.87914e-20 0.272791)
(-1.68611 -1.61635e-20 0.119717)
(-1.77881 0 -0.124356)
(-1.76546 1.65167e-20 -0.252193)
(-1.74367 0 -0.263245)
(-1.74962 -1.75557e-22 -0.315639)
(-1.74448 7.62731e-22 -0.39236)
(-1.72568 1.17695e-20 -0.4396)
(-1.71036 4.49717e-21 -0.468751)
(-1.69551 2.00134e-21 -0.510046)
(-1.67211 2.92721e-21 -0.55329)
(-1.63982 0 -0.589712)
(-1.59447 0 -0.622068)
(-1.53632 -1.70391e-21 -0.637282)
(-1.483 -1.97606e-21 -0.624515)
(-1.44689 -2.17074e-21 -0.60391)
(-1.41533 1.34043e-21 -0.596222)
(-1.3698 7.3018e-21 -0.597078)
(-1.30742 -7.43389e-21 -0.584557)
(-1.24217 5.47587e-22 -0.545738)
(-1.18747 -7.82719e-21 -0.487485)
(-1.14522 -7.66199e-21 -0.421855)
(-1.11047 -1.57783e-21 -0.354781)
(-1.07879 2.13463e-22 -0.285329)
(-1.05016 -2.11734e-22 -0.209588)
(-1.02837 -3.15502e-23 -0.125602)
(-1.01513 3.1327e-23 -0.0390928)
(-1.00724 -2.5776e-21 0.0283355)
(9.99265 0 0.0941578)
(9.98416 4.86517e-20 0.18302)
(9.96872 5.05078e-20 0.271563)
(9.94492 1.05166e-19 0.362405)
(9.9146 1.08587e-19 0.45725)
(9.87908 -2.26479e-19 0.557711)
(9.83877 4.68558e-19 0.665123)
(9.79354 0 0.780522)
(9.74359 -2.515e-19 0.904903)
(9.68935 2.57876e-19 1.0395)
(9.63148 2.65971e-19 1.18576)
(9.57044 0 1.34514)
(9.50654 4.25267e-19 1.5191)
(9.44089 -1.16331e-18 1.70932)
(9.37432 7.4133e-19 1.91752)
(9.30776 1.06691e-18 2.1457)
(9.2426 -1.55139e-19 2.39623)
(9.18043 -2.52423e-18 2.67184)
(9.12339 1.27821e-18 2.97563)
(9.07416 3.24981e-19 3.31125)
(9.03586 -3.25455e-19 3.68297)
(9.01279 3.12605e-19 4.09608)
(9.01006 -2.50303e-18 4.55703)
(9.03489 1.83011e-18 5.07401)
(9.09891 5.94715e-19 5.65631)
(9.20781 1.06331e-18 6.3188)
(9.42315 0 7.06659)
(9.62512 -9.11181e-19 7.97024)
(10.6668 -1.01017e-18 8.88079)
(11.7677 2.24431e-19 11.9969)
(9.99292 0 0.0975594)
(9.98559 -4.71914e-20 0.189607)
(9.97226 1.47111e-19 0.281343)
(9.95138 -4.06332e-19 0.375454)
(9.92456 -1.06274e-19 0.473629)
(9.89327 0 0.577492)
(9.85803 2.2693e-19 0.688426)
(9.81885 -2.32504e-19 0.807438)
(9.77599 -2.41457e-19 0.935462)
(9.72972 -2.50612e-19 1.07373)
(9.68091 -2.58337e-19 1.22371)
(9.63006 -2.66885e-19 1.38676)
(9.57766 5.426e-19 1.56428)
(9.52499 0 1.75785)
(9.47297 -2.86888e-19 1.96916)
(9.42275 0 2.20011)
(9.37593 1.47485e-18 2.45289)
(9.33437 -1.19874e-18 2.72994)
(9.30047 0 3.03408)
(9.27729 0 3.36859)
(9.26845 0 3.73719)
(9.27884 1.78652e-18 4.1443)
(9.31472 -1.17977e-18 4.59515)
(9.38462 -1.12945e-18 5.0958)
(9.5014 -1.05305e-18 5.65216)
(9.67554 -1.0266e-18 6.27169)
(9.96495 8.91279e-19 6.95184)
(10.2846 -7.80187e-19 7.70439)
(11.0262 -5.59351e-22 8.42444)
(11.9104 5.77241e-22 9.56189)
(9.99322 0 0.100653)
(9.9871 -4.57598e-20 0.195563)
(9.97595 -3.31645e-19 0.290145)
(9.95807 -3.95528e-19 0.387197)
(9.93493 0 0.488372)
(9.90802 2.12038e-19 0.595244)
(9.87798 -2.18657e-19 0.709204)
(9.84508 2.27031e-19 0.831245)
(9.80947 -2.3381e-19 0.962304)
(9.77132 2.40125e-19 1.1036)
(9.73171 2.46312e-19 1.25653)
(9.69124 -5.08469e-19 1.42236)
(9.65054 7.81116e-19 1.60237)
(9.61092 -2.67947e-19 1.79806)
(9.57343 0 2.01105)
(9.53943 -2.7504e-19 2.24307)
(9.5108 -2.83589e-19 2.49607)
(9.48958 2.81467e-19 2.77215)