/*--------------------------------*- C++ -*----------------------------------*\
| =========                 |                                                 |
| \\      /  F ield         | OpenFOAM: The Open Source CFD Toolbox           |
|  \\    /   O peration     | Version:  dev                                   |
|   \\  /    A nd           | Web:      www.OpenFOAM.org                      |
|    \\/     M anipulation  |                                                 |
\*---------------------------------------------------------------------------*/
FoamFile
{
    version     2.0;
    format      ascii;
    class       surfaceVectorField;
    location    "4.56";
    object      Uf;
}
// * * * * * * * * * * * * * * * * * * * * * * * * * * * * * * * * * * * * * //

dimensions      [0 1 -1 0 0 0 0];

internalField   nonuniform List<vector> 
5457
(
(9.91426 -5.71583e-23 0.0233243)
(9.96225 5.65913e-22 0.0383745)
(9.81637 -5.73294e-22 0.030166)
(9.92256 6.39326e-21 0.0451527)
(9.70408 2.53981e-21 0.035807)
(9.85593 7.22609e-21 0.0535386)
(9.57526 2.45761e-21 0.0416151)
(9.76321 -9.9555e-21 0.0634609)
(9.42979 0 0.0476389)
(9.65157 0 0.0740097)
(9.26779 1.4212e-21 0.0539295)
(9.52348 1.07699e-20 0.0851012)
(9.08898 1.37684e-21 0.0606316)
(9.37832 -2.68951e-21 0.096949)
(8.89272 0 0.0678917)
(9.21509 1.04655e-22 0.109796)
(8.67817 0 0.0758324)
(9.03297 1.07279e-20 0.123829)
(8.44433 0 0.0845718)
(8.83111 -2.49607e-20 0.139213)
(8.19007 0 0.0942365)
(8.60852 2.64057e-20 0.156125)
(7.91411 -1.28597e-20 0.104962)
(8.36403 -2.71018e-20 0.174759)
(7.61509 2.67364e-21 0.116891)
(8.09631 -1.26657e-20 0.195312)
(7.29153 4.28344e-20 0.130161)
(7.80394 7.47757e-20 0.217972)
(6.94199 2.77975e-20 0.144904)
(7.48546 3.2479e-20 0.242895)
(6.5651 -3.42372e-20 0.161242)
(7.13941 -6.68694e-21 0.270197)
(6.15964 -4.28511e-20 0.179275)
(6.76442 -9.32219e-20 0.299934)
(5.72466 7.14161e-22 0.199058)
(6.3593 -1.78332e-22 0.332074)
(5.25967 -7.46082e-22 0.22057)
(5.92317 -1.83845e-20 0.366433)
(4.76481 -9.76687e-21 0.243679)
(5.45564 -2.53023e-22 0.4026)
(4.24116 0 0.268114)
(4.95702 0 0.439881)
(3.69098 0 0.293408)
(4.42861 0 0.477233)
(3.118 -1.93343e-19 0.318834)
(3.87296 4.44773e-20 0.513153)
(2.52782 2.10617e-19 0.343342)
(3.29418 -2.37086e-19 0.545564)
(1.92825 1.85029e-19 0.365567)
(2.6984 4.91179e-19 0.57172)
(1.32939 -2.01875e-19 0.38395)
(2.09406 -9.05972e-19 0.588281)
(0.742816 -4.34063e-19 0.382468)
(1.4956 8.21614e-19 0.591843)
(0.184173 -2.54411e-20 0.145036)
(0.882983 -4.30628e-19 0.569926)
(-0.105941 2.54052e-19 -0.200106)
(0.302035 4.3243e-19 0.291328)
(0.192338 2.02141e-18 -0.105542)
(9.9991 7.08461e-21 0.0480831)
(9.99101 0 0.0387736)
(9.9643 1.42185e-20 0.0644601)
(9.97825 -2.31105e-21 0.061205)
(9.90935 -5.53191e-21 0.0788345)
(9.94206 2.16504e-20 0.0797288)
(9.83582 -1.2248e-20 0.0940878)
(9.88028 -2.4648e-21 0.0996785)
(9.74358 1.09437e-20 0.110295)
(9.79895 -1.02932e-20 0.120942)
(9.63258 6.43652e-21 0.127508)
(9.70071 1.07705e-20 0.143406)
(9.50261 -3.92509e-21 0.146027)
(9.58509 -6.8625e-21 0.167416)
(9.35314 1.09923e-20 0.166174)
(9.45126 1.04664e-22 0.193424)
(9.1834 -1.47989e-20 0.188224)
(9.29855 -1.19117e-20 0.221803)
(8.99247 2.23695e-21 0.212438)
(9.12621 -9.81453e-23 0.252892)
(8.77928 -1.52755e-21 0.239095)
(8.93336 2.63072e-20 0.28706)
(8.54257 -2.66913e-20 0.26849)
(8.71893 2.57908e-20 0.324696)
(8.28099 6.07727e-20 0.300916)
(8.48169 -5.79889e-20 0.366216)
(7.99307 6.3791e-20 0.336636)
(8.22031 6.7238e-20 0.412012)
(7.67732 -2.56943e-21 0.37586)
(7.93337 -2.92507e-21 0.462424)
(7.33226 -6.69337e-20 0.418729)
(7.61941 9.12142e-22 0.51772)
(6.95653 -4.90897e-20 0.465278)
(7.27699 -6.74743e-20 0.578064)
(6.549 -1.95691e-20 0.515366)
(6.90478 2.64483e-20 0.643453)
(6.10888 -1.76012e-20 0.568576)
(6.50164 -9.43021e-21 0.713597)
(5.63593 9.61282e-21 0.624114)
(6.06673 4.8092e-20 0.787774)
(5.13076 0 0.680719)
(5.59973 4.0044e-20 0.864698)
(4.59505 4.51027e-20 0.736522)
(5.1011 4.17967e-20 0.94237)
(4.0319 -3.09659e-21 0.788869)
(4.57228 7.90635e-19 1.01785)
(3.44628 5.18082e-20 0.834086)
(4.01605 -6.33477e-19 1.08694)
(2.8456 -6.1468e-19 0.867075)
(3.43691 6.65267e-19 1.1438)
(2.24103 1.30032e-19 0.879904)
(2.84146 -1.48101e-18 1.18004)
(1.65203 8.1596e-19 0.852788)
(2.24151 7.19973e-19 1.18107)
(1.11699 5.33012e-20 0.731506)
(1.63173 2.05781e-19 1.10849)
(0.51073 2.22714e-18 0.399335)
(1.03902 1.73183e-18 0.887093)
(0.568301 5.87197e-19 0.405122)
(9.99179 -9.44625e-21 0.0545037)
(9.98862 0 0.0424531)
(9.96034 5.52087e-21 0.0796905)
(9.97334 -9.30248e-21 0.0757229)
(9.90896 2.43566e-20 0.103417)
(9.93826 -4.77323e-21 0.104243)
(9.84033 -6.13916e-22 0.128596)
(9.87942 1.00266e-20 0.133507)
(9.75477 -1.01278e-20 0.155507)
(9.8019 -4.12254e-20 0.164502)
(9.65217 -2.81791e-21 0.184272)
(9.70844 2.12939e-20 0.197334)
(9.53233 -2.7302e-21 0.215293)
(9.59871 2.77504e-21 0.232428)
(9.39489 -2.29954e-20 0.24904)
(9.47208 0 0.270366)
(9.23925 2.97008e-21 0.285947)
(9.32806 -2.2645e-20 0.311686)
(9.06465 2.43819e-20 0.326449)
(9.16605 -2.51769e-20 0.356901)
(8.8702 5.36098e-20 0.37101)
(8.98537 5.14183e-20 0.406545)
(8.65481 -6.78866e-21 0.420128)
(8.78517 5.62809e-20 0.461205)
(8.41727 -4.96327e-20 0.474302)
(8.56444 -1.71152e-19 0.521495)
(8.15628 -5.51206e-22 0.533993)
(8.32211 2.34486e-19 0.588007)
(7.87044 6.03642e-22 0.599592)
(8.05699 -1.21481e-19 0.661279)
(7.55832 -6.11305e-22 0.671389)
(7.76782 -7.84774e-21 0.741772)
(7.21849 9.5126e-21 0.749511)
(7.45332 -8.42547e-21 0.829817)
(6.8496 3.59779e-20 0.833821)
(7.11218 -2.45218e-19 0.925535)
(6.45048 5.70491e-20 0.923751)
(6.74319 2.70437e-19 1.02869)
(6.02021 7.84165e-20 1.01813)
(6.34521 3.05295e-19 1.13847)
(5.5584 8.18778e-20 1.115)
(5.91724 -3.13375e-19 1.25327)
(5.06537 7.97863e-19 1.21136)
(5.45871 4.79054e-22 1.37046)
(4.54242 1.43806e-19 1.30286)
(4.96953 6.60527e-19 1.48605)
(3.99217 -4.13132e-21 1.38329)
(4.45023 -6.76792e-19 1.59418)
(3.41896 -2.2176e-19 1.44382)
(3.90218 5.70023e-19 1.68646)
(2.82919 -8.72857e-19 1.47121)
(3.32734 -8.73699e-19 1.75082)
(2.22942 1.06822e-19 1.44135)
(2.72888 1.93791e-19 1.76903)
(1.61331 1.88059e-18 1.31652)
(2.10038 4.94083e-21 1.70979)
(0.929777 1.61678e-19 1.06395)
(1.41709 1.66883e-18 1.53747)
(0.835923 -3.48694e-18 1.20028)
(9.98738 0 0.0641934)
(9.98718 0 0.0481057)
(9.95612 -1.95156e-20 0.0996666)
(9.97011 -1.85104e-20 0.0901629)
(9.90567 -1.88419e-20 0.133604)
(9.93497 -9.60994e-21 0.128318)
(9.83813 -3.13878e-20 0.168676)
(9.8772 9.95232e-21 0.166812)
(9.75422 -8.79587e-21 0.205656)
(9.80121 -4.11953e-20 0.207237)
(9.65395 2.65921e-20 0.244956)
(9.70969 1.06604e-20 0.250063)
(9.53715 5.45962e-21 0.287131)
(9.60246 -4.98564e-20 0.295823)
(9.40358 0 0.3328)
(9.479 4.56867e-20 0.34517)
(9.25287 -5.08232e-20 0.382574)
(9.3389 -4.78853e-20 0.398773)
(9.08446 3.04488e-21 0.437064)
(9.18174 2.31356e-21 0.457284)
(8.8977 5.41669e-20 0.496921)
(9.00703 5.31427e-20 0.521379)
(8.69179 -1.11558e-19 0.562838)
(8.81407 1.6944e-21 0.591809)
(8.46581 1.19112e-19 0.635513)
(8.60213 -1.13197e-19 0.669343)
(8.21882 1.0826e-19 0.715605)
(8.37041 2.2722e-19 0.754727)
(7.94975 -1.28273e-19 0.803715)
(8.11805 -1.13846e-19 0.848673)
(7.65751 -1.56773e-20 0.900336)
(7.84409 -2.38568e-19 0.951824)
(7.34092 -2.6668e-19 1.00578)
(7.54753 5.26389e-19 1.06469)
(6.9988 -3.51657e-21 1.12006)
(7.22729 -2.93571e-19 1.18756)
(6.62998 5.19366e-19 1.2427)
(6.88232 -5.71612e-19 1.32035)
(6.23326 -9.46578e-20 1.37246)
(6.51148 1.45863e-18 1.46237)
(5.80755 -3.90486e-19 1.50711)
(6.11344 -3.45674e-19 1.612)
(5.35195 -1.27764e-19 1.64305)
(5.68688 1.24908e-18 1.7664)
(4.86579 -1.75182e-19 1.77494)
(5.23039 -6.69008e-19 1.92112)
(4.34868 -8.76097e-20 1.89501)
(4.74222 -8.92421e-20 2.06949)
(3.80037 -9.58636e-20 1.99232)
(4.22033 1.3605e-21 2.20196)
(3.21987 2.01558e-19 2.05165)
(3.66182 -1.87892e-19 2.30539)
(2.60205 8.98532e-20 2.0503)
(3.0624 -1.43277e-18 2.36235)
(1.9304 -2.01356e-19 1.9607)
(2.41315 1.26858e-18 2.3481)
(1.17076 -1.99519e-18 1.76956)
(1.67604 0 2.2419)
(0.994155 -4.59041e-19 2.02591)
(9.98518 -1.87992e-20 0.0747008)
(9.98644 -1.79246e-20 0.0547428)
(9.95357 -8.45586e-21 0.119079)
(9.96844 -1.30792e-23 0.104769)
(9.90399 1.95095e-20 0.162094)
(9.93333 -9.49916e-21 0.151988)
(9.83762 -6.68605e-22 0.206209)
(9.87668 9.92096e-21 0.199551)
(9.7553 -2.09046e-20 0.252591)
(9.80238 -1.30983e-23 0.249183)
(9.65714 -6.67549e-20 0.30193)
(9.71292 -1.60567e-23 0.301702)
(9.54301 -8.11336e-21 0.354896)
(9.60827 -9.95762e-20 0.357802)
(9.41267 -3.6448e-21 0.412191)
(9.48795 1.02585e-19 0.41821)
(9.26581 6.04284e-21 0.474529)
(9.35156 -4.78997e-20 0.483681)
(9.10203 5.32182e-20 0.542638)
(9.1988 1.48306e-19 0.554977)
(8.9208 -1.20085e-22 0.617298)
(9.02925 -2.09609e-21 0.632906)
(8.72148 -1.65267e-21 0.699331)
(8.84231 -1.0756e-19 0.718347)
(8.5034 0 0.789558)
(8.63743 0 0.812184)
(8.26584 0 0.888777)
(8.41401 0 0.915277)
(8.00805 -2.25981e-19 0.997743)
(8.17138 2.41244e-19 1.02848)
(7.72917 3.14589e-19 1.11712)
(7.9088 -4.86349e-19 1.15261)
(7.42832 4.88111e-19 1.24739)
(7.62544 2.65391e-19 1.28831)
(7.10453 -8.65783e-19 1.38874)
(7.32045 2.3784e-19 1.43608)
(6.75677 3.95243e-19 1.54089)
(6.99288 -8.24555e-19 1.596)
(6.38382 1.18455e-18 1.70277)
(6.64167 1.19256e-18 1.76762)
(5.98421 1.3164e-18 1.87217)
(6.26536 -6.76487e-20 1.94954)
(5.55618 6.85202e-19 2.04545)
(5.8621 1.21297e-18 2.13908)
(5.09739 -5.76492e-19 2.21701)
(5.42951 -6.65617e-19 2.33197)
(4.60471 7.97887e-22 2.37859)
(4.96408 8.41696e-20 2.52159)
(4.07389 -9.2411e-20 2.51876)
(4.46096 1.68046e-21 2.69832)
(3.49867 -1.82981e-18 2.62243)
(3.91377 8.7846e-20 2.84922)
(2.86889 -2.44773e-19 2.66965)
(3.31382 -1.72431e-18 2.95787)
(2.16813 1.46432e-18 2.63739)
(2.65182 1.56107e-18 3.00215)
(1.37997 1.51501e-18 2.51705)
(1.89456 -1.51981e-18 2.96096)
(1.14089 -1.78072e-19 2.82722)
(9.98415 1.13991e-21 0.0855738)
(9.9861 -1.56973e-23 0.0618417)
(9.95233 -1.21661e-21 0.138252)
(9.96773 2.77247e-20 0.119471)
(9.90375 -1.87708e-20 0.190065)
(9.93294 -9.53329e-21 0.175194)
(9.83895 1.0415e-20 0.243199)
(9.87766 0 0.231531)
(9.75863 2.08776e-20 0.298953)
(9.80541 3.06263e-20 0.290132)
(9.66298 -3.44072e-20 0.358213)
(9.71841 1.06243e-20 0.352048)
(9.55191 1.43206e-20 0.421764)
(9.61676 -3.32046e-20 0.418152)
(9.4252 5.6021e-20 0.490381)
(9.50002 4.55284e-20 0.489264)
(9.28259 9.73914e-20 0.564862)
(9.36784 0 0.566199)
(9.12375 9.07067e-20 0.646047)
(9.21999 8.98508e-20 0.649808)
(8.94821 -1.11153e-19 0.734845)
(9.05605 -3.69109e-21 0.741039)
(8.75541 -1.04344e-19 0.832186)
(8.87551 -1.05887e-19 0.840885)
(8.54482 0 0.93899)
(8.67791 2.22287e-19 0.950298)
(8.31589 2.44827e-19 1.05618)
(8.46275 -2.26593e-19 1.07023)
(8.068 -2.94869e-20 1.18466)
(8.22951 -4.28778e-21 1.20169)
(7.80042 -5.25116e-19 1.32525)
(7.97755 -1.90445e-20 1.34564)
(7.51239 1.43457e-20 1.47859)
(7.70605 -5.19103e-19 1.50289)
(7.20308 2.64938e-19 1.64506)
(7.41424 1.06786e-18 1.67408)
(6.87147 0 1.82462)
(7.10121 -5.4867e-19 1.85955)
(6.51633 -7.66087e-20 2.01647)
(6.76584 -3.56182e-20 2.05912)
(6.13589 -1.54148e-19 2.21875)
(6.40655 -1.0354e-21 2.27178)
(5.72774 -1.60737e-19 2.42818)
(6.021 -6.13256e-19 2.49533)
(5.28842 3.79059e-21 2.63951)
(5.6061 -8.22545e-20 2.72607)
(4.81281 8.43525e-20 2.84483)
(5.15716 1.53772e-21 2.95803)
(4.29395 1.82738e-19 3.03301)
(4.66745 1.53357e-18 3.18219)
(3.72275 1.79021e-19 3.18945)
(4.12837 -1.30014e-18 3.386)
(3.0876 9.63076e-20 3.29519)
(3.52896 -1.44272e-18 3.55308)
(2.37413 -1.42654e-18 3.32586)
(2.85947 3.00672e-18 3.66101)
(1.57931 -3.20285e-18 3.2687)
(2.10001 -1.5562e-18 3.67921)
(1.29088 -3.26074e-18 3.60334)
(9.98376 2.70037e-20 0.0965906)
(9.986 2.23778e-20 0.0691148)
(9.95207 1.87387e-20 0.157167)
(9.96765 -2.28655e-20 0.134115)
(9.90466 9.39546e-21 0.217394)
(9.93351 -1.89436e-20 0.197849)
(9.84176 2.07088e-20 0.279247)
(9.87987 1.96009e-20 0.262592)
(9.76384 2.00544e-20 0.344052)
(9.80998 3.07938e-23 0.329882)
(9.67112 1.11417e-20 0.412852)
(9.72583 -4.22257e-20 0.400885)
(9.56358 -7.52105e-22 0.486567)
(9.62762 5.44278e-20 0.476629)
(9.44104 -1.12031e-20 0.566058)
(9.51495 -9.08349e-20 0.558036)
(9.30329 -6.19628e-21 0.652196)
(9.3876 -1.24809e-20 0.645975)
(9.15004 -5.99953e-21 0.745937)
(9.2453 9.67066e-20 0.741394)
(8.98086 6.5643e-23 0.848311)
(9.08763 3.17037e-21 0.845378)
(8.79523 2.2565e-19 0.960333)
(8.9142 2.13575e-19 0.959018)
(8.59272 -1.07739e-20 1.08299)
(8.72464 2.23084e-19 1.08332)
(8.37286 -4.72762e-19 1.21731)
(8.51845 -4.50822e-19 1.2193)
(8.13512 5.82223e-21 1.36439)
(8.29517 -2.38599e-19 1.36813)
(7.8788 -1.96973e-20 1.52518)
(8.05424 2.44949e-19 1.53098)
(7.60309 5.56087e-19 1.70048)
(7.79486 -2.57739e-19 1.70883)
(7.30715 2.33074e-19 1.89089)
(7.51612 8.0004e-19 1.90246)
(6.98992 -5.78037e-19 2.09662)
(7.21707 -5.49371e-19 2.11246)
(6.64999 4.04123e-20 2.3173)
(6.89644 -4.6263e-22 2.33904)
(6.2853 -4.67576e-19 2.55157)
(6.55242 1.10735e-19 2.58171)
(5.89281 -5.29078e-19 2.79681)
(6.18222 -5.35483e-19 2.83894)
(5.46826 -8.36327e-20 3.04858)
(5.78206 1.24239e-18 3.10785)
(5.00535 1.46507e-18 3.29977)
(5.34647 -2.63223e-18 3.3835)
(4.49543 2.97311e-20 3.53989)
(4.8675 2.67734e-18 3.65776)
(3.92782 -2.92263e-18 3.75435)
(4.33504 -1.52299e-18 3.91847)
(3.29046 1.48895e-18 3.92339)
(3.73666 -1.44249e-18 4.14843)
(2.56997 2.86076e-18 4.01773)
(3.06029 2.95853e-18 4.32352)
(1.76877 -1.66886e-18 4.01444)
(2.30209 -6.61042e-20 4.40035)
(1.44422 -4.87541e-20 4.3706)
(9.98375 -2.82743e-20 0.107568)
(9.98605 3.9976e-20 0.0763903)
(9.95255 -6.05766e-20 0.175697)
(9.96803 4.56444e-21 0.148536)
(9.90655 -8.13418e-21 0.243924)
(9.93485 9.26376e-21 0.219846)
(9.84581 -1.39378e-21 0.314145)
(9.88307 8.07008e-23 0.292603)
(9.77064 -6.29301e-20 0.387675)
(9.81584 -2.03544e-20 0.368252)
(9.68127 2.58601e-21 0.465662)
(9.73494 -2.11288e-20 0.447996)
(9.57772 -3.78956e-20 0.549141)
(9.64057 2.47044e-22 0.532982)
(9.45991 -9.09147e-20 0.639052)
(9.53251 -9.07367e-20 0.624218)
(9.32767 9.20906e-20 0.736351)
(9.41058 -8.31671e-22 0.722647)
(9.18068 1.04525e-19 0.842107)
(9.27446 1.02866e-19 0.829342)
(9.01856 2.19813e-19 0.957453)
(9.12373 3.15839e-21 0.945491)
(8.84091 2.11181e-19 1.08347)
(8.95818 2.03976e-19 1.07225)
(8.64734 -2.26655e-19 1.22123)
(8.77751 6.42272e-22 1.21068)
(8.43738 -2.13586e-19 1.37188)
(8.58124 -2.25982e-19 1.36194)
(8.21054 7.23381e-21 1.53666)
(8.36878 1.45125e-20 1.52729)
(7.96618 0 1.71676)
(8.13971 4.80281e-19 1.70813)
(7.70342 0 1.91315)
(7.89332 -9.73938e-19 1.90567)
(7.42125 0 2.12664)
(7.62851 -2.13801e-20 2.1209)
(7.11849 3.56607e-20 2.35779)
(7.3442 5.26561e-19 2.3547)
(6.79348 7.12573e-20 2.6067)
(7.03891 3.52577e-20 2.60767)
(6.44378 3.5618e-20 2.87272)
(6.7105 1.1346e-18 2.88002)
(6.06581 1.25643e-18 3.15406)
(6.35579 1.1941e-18 3.17105)
(5.65458 -1.3437e-18 3.44732)
(5.97035 1.24463e-18 3.47888)
(5.20294 -1.37587e-18 3.74653)
(5.54793 -3.78945e-18 3.79981)
(4.70109 1.09258e-18 4.04193)
(5.07966 2.52408e-18 4.12694)
(4.13697 -4.14976e-20 4.31871)
(4.55401 -1.28291e-18 4.44862)
(3.49758 5.08668e-20 4.55534)
(3.95705 -5.94596e-21 4.74658)
(2.76876 2.57191e-20 4.71641)
(3.27186 4.075e-20 4.99473)
(1.95201 1.56231e-18 4.76525)
(2.50945 1.41476e-18 5.13689)
(1.60187 3.09665e-18 5.15315)
(9.98404 7.21997e-20 0.11836)
(9.98623 -3.53499e-20 0.0835353)
(9.95363 7.44562e-20 0.193719)
(9.9688 3.66694e-20 0.162596)
(9.9092 1.73043e-20 0.26954)
(9.93681 4.88332e-23 0.241098)
(9.85087 -1.92131e-20 0.347744)
(9.88709 -1.9616e-20 0.321442)
(9.77883 2.14468e-20 0.429642)
(9.8228 4.01882e-20 0.405058)
(9.69321 -2.31336e-20 0.516429)
(9.74551 2.11965e-20 0.49317)
(9.59412 -5.39939e-20 0.609218)
(9.65542 -4.32419e-20 0.586961)
(9.48158 7.518e-22 0.709037)
(9.55247 -1.12516e-20 0.687505)
(9.35543 1.14835e-20 0.816951)
(9.43648 2.31739e-20 0.795878)
(9.21534 0 0.934134)
(9.30709 9.60126e-20 0.913278)
(9.06101 -9.83897e-21 1.06178)
(9.16398 -1.10889e-19 1.04094)
(8.89217 -9.56277e-21 1.20106)
(9.00711 -3.27886e-21 1.18005)
(8.70847 -1.75639e-21 1.35313)
(8.83619 0 1.33179)
(8.50939 5.56705e-21 1.51926)
(8.65077 -1.12235e-23 1.49748)
(8.29442 4.94058e-19 1.70085)
(8.4502 5.33723e-23 1.67851)
(8.06298 -5.12712e-19 1.89932)
(8.23404 5.16888e-21 1.87637)
(7.81424 -9.8423e-19 2.11591)
(8.00172 -5.07479e-19 2.09261)
(7.54704 5.11944e-19 2.3517)
(7.75216 -5.65494e-21 2.32852)
(7.25997 5.20792e-19 2.60762)
(7.48411 5.11375e-19 2.58529)
(6.95109 1.11183e-18 2.88436)
(7.19582 0 2.86406)
(6.61758 2.29659e-18 3.18209)
(6.88484 1.11766e-18 3.16577)
(6.25537 1.18346e-18 3.50006)
(6.54772 2.96324e-20 3.49073)
(5.85872 -1.24828e-18 3.83614)
(6.1793 1.15262e-18 3.83829)
(5.41964 1.6565e-19 4.18574)
(5.77251 -1.23837e-18 4.20626)
(4.92717 1.17002e-19 4.54016)
(5.3176 2.56107e-18 4.58939)
(4.36747 -1.23897e-18 4.88457)
(4.80124 -3.75064e-18 4.97711)
(3.72534 -1.46923e-20 5.19571)
(4.20739 -9.09537e-21 5.35061)
(2.98384 1.42855e-18 5.43226)
(3.51155 1.34131e-18 5.68231)
(2.13896 2.98395e-18 5.54173)
(2.73552 1.48089e-18 5.90489)
(1.76957 1.49898e-18 5.97941)
(9.98456 -6.97823e-20 0.128847)
(9.98647 -2.87217e-22 0.0904488)
(9.95519 -3.83599e-20 0.211129)
(9.96986 1.80883e-20 0.176181)
(9.91252 -3.7202e-20 0.29414)
(9.93933 -1.89974e-20 0.261516)
(9.85682 4.07044e-20 0.379901)
(9.89186 1.91869e-20 0.348998)
(9.7882 3.96411e-20 0.46976)
(9.8307 8.03676e-20 0.440148)
(9.70672 7.52972e-23 0.564919)
(9.75733 -2.04937e-20 0.536202)
(9.61256 0 0.666523)
(9.67197 0 0.638312)
(9.50578 1.16897e-20 0.775701)
(9.57458 -2.20942e-20 0.747628)
(9.38623 1.08797e-19 0.893649)
(9.46497 2.28823e-20 0.865378)
(9.25364 -1.78572e-20 1.02161)
(9.34282 8.42629e-20 0.992848)
(9.10783 -1.02841e-19 1.16082)
(9.20803 -1.10888e-19 1.13128)
(8.94861 6.3366e-21 1.31252)
(9.06059 6.42853e-21 1.28192)
(8.77564 1.74585e-21 1.47802)
(8.90021 0 1.44609)
(8.58845 -5.52622e-21 1.65875)
(8.72646 2.19179e-19 1.62528)
(8.38647 -4.89221e-19 1.85622)
(8.53886 -2.26245e-19 1.821)
(8.16914 3.77582e-21 2.07204)
(8.33685 -4.72715e-19 2.03488)
(7.93575 4.78389e-19 2.30778)
(8.11995 4.685e-19 2.26866)
(7.68514 -6.75408e-22 2.56487)
(7.88727 1.57785e-20 2.52406)
(7.41568 -1.58873e-20 2.84474)
(7.63742 -1.98131e-22 2.80272)
(7.12517 1.71983e-20 3.14874)
(7.36847 8.03858e-21 3.10637)
(6.81051 -1.16303e-18 3.478)
(7.07782 1.06792e-18 3.43676)
(6.46718 6.60963e-21 3.83298)
(6.76178 -9.11984e-20 3.79539)
(6.08867 1.14373e-18 4.2131)
(6.4146 1.1533e-18 4.18316)
(5.66605 1.19049e-18 4.61561)
(6.02843 4.39161e-21 4.59974)
(5.187 -1.36153e-18 5.03357)
(5.59254 1.19978e-18 5.04217)
(4.63508 -2.49084e-18 5.45301)
(5.09128 -1.32733e-18 5.50212)
(3.99105 1.3673e-18 5.8499)
(4.50557 -1.21579e-18 5.96189)
(3.23254 1.37697e-18 6.17828)
(3.80025 2.55733e-18 6.39381)
(2.34552 -5.64923e-21 6.36857)
(3.0012 -1.28717e-18 6.72222)
(1.95963 -1.39961e-18 6.8832)
(9.98523 8.78848e-20 0.138929)
(9.98675 4.4189e-20 0.0970632)
(9.95715 3.69201e-20 0.227819)
(9.97113 -2.71815e-20 0.189175)
(9.91648 3.80303e-20 0.31763)
(9.94233 1.87447e-20 0.28099)
(9.86358 5.97865e-20 0.410506)
(9.89733 -5.78473e-20 0.375193)
(9.79858 1.86504e-20 0.507866)
(9.83942 4.00058e-20 0.473409)
(9.7216 -2.02615e-20 0.610913)
(9.77026 -2.07842e-20 0.576904)
(9.63279 -2.24327e-20 0.720808)
(9.69 1.49019e-19 0.686813)
(9.53218 -1.02387e-20 0.83878)
(9.59853 -1.09678e-19 0.804359)
(9.41969 -7.83107e-22 0.966129)
(9.49568 -1.02601e-19 0.930877)
(9.29521 -1.15675e-20 1.10415)
(9.3813 9.35185e-20 1.06769)
(9.15862 7.60194e-23 1.25411)
(9.25546 1.2242e-20 1.21609)
(9.00975 0 1.41735)
(9.11812 -1.88633e-19 1.3774)
(8.84829 2.20472e-19 1.59533)
(8.96899 2.05969e-19 1.55307)
(8.67388 -7.23208e-21 1.78964)
(8.80773 2.17694e-19 1.74471)
(8.48604 -2.12807e-19 2.00191)
(8.63407 -2.22834e-19 1.95398)
(8.28425 3.58174e-21 2.2339)
(8.44753 3.6286e-21 2.18263)
(8.06782 0 2.4875)
(8.24762 -3.62048e-21 2.43261)
(7.8357 1.60719e-20 2.76461)
(8.0336 3.71894e-21 2.70604)
(7.5862 2.38552e-20 3.06722)
(7.80412 1.59078e-20 3.0051)
(7.31701 1.07068e-18 3.39742)
(7.55734 -5.05434e-19 3.33218)
(7.02489 2.13303e-18 3.75742)
(7.29064 1.56363e-18 3.68989)
(6.70501 1.06789e-18 4.1492)
(7.0002 1.08125e-18 4.08112)
(6.35029 2.29866e-21 4.57406)
(6.68004 -1.65839e-20 4.50865)
(5.95088 2.24393e-20 5.03168)
(6.32199 -1.09e-18 4.97449)
(5.49283 1.2163e-18 5.51806)
(5.91425 1.10842e-18 5.47887)
(4.95635 -5.07185e-20 6.0221)
(5.43871 1.22404e-18 6.01768)
(4.31584 1.94883e-20 6.52133)
(4.87221 -7.69966e-20 6.57736)
(3.53931 -1.51828e-19 6.9677)
(4.16583 -1.09079e-18 7.13366)
(2.59604 -2.68638e-18 7.27482)
(3.33961 -1.25706e-19 7.60759)
(2.19488 -2.61405e-18 7.90885)
(9.986 -7.21351e-20 0.148527)
(9.98704 -2.64275e-20 0.103334)
(9.95943 -4.45262e-20 0.243685)
(9.97254 -9.34591e-21 0.201482)
(9.92098 -7.83937e-20 0.339913)
(9.94569 0 0.299417)
(9.87104 -7.60888e-20 0.439464)
(9.90336 -2.75518e-22 0.399942)
(9.80989 -3.83828e-22 0.543823)
(9.84891 -3.98979e-20 0.504735)
(9.7377 1.51139e-19 0.654224)
(9.78418 -4.12216e-20 0.615122)
(9.65454 5.79047e-20 0.771862)
(9.70931 2.54806e-19 0.732286)
(9.56047 -2.01987e-19 0.898033)
(9.62406 -1.52777e-19 0.857494)
(9.45549 -5.50226e-21 1.03409)
(9.52836 -1.36491e-19 0.992114)
(9.33964 1.16228e-19 1.18137)
(9.42225 1.05408e-19 1.1375)
(9.21285 -1.7931e-19 1.34121)
(9.30582 1.21718e-20 1.295)
(9.07498 2.25762e-20 1.51508)
(9.1791 -4.12148e-19 1.46606)
(8.92579 2.03378e-19 1.70452)
(9.04188 4.22158e-19 1.65223)
(8.76505 -3.4995e-21 1.91123)
(8.89396 1.97819e-19 1.85517)
(8.59249 -3.4131e-21 2.13698)
(8.73522 -2.18989e-19 2.07664)
(8.40765 -3.66636e-21 2.38373)
(8.56535 0 2.31856)
(8.20993 1.82747e-22 2.65365)
(8.38396 -1.42108e-20 2.58313)
(7.99835 3.68164e-21 2.94912)
(8.19041 3.81962e-23 2.87282)
(7.77142 -5.19335e-19 3.2727)
(7.98364 -4.95357e-19 3.19031)
(7.52698 6.27519e-21 3.62734)
(7.76211 -5.01215e-19 3.53865)
(7.26179 5.06482e-19 4.01638)
(7.52338 5.14309e-19 3.92141)
(6.97106 -1.43993e-20 4.44354)
(7.26368 8.2038e-21 4.34297)
(6.64766 -1.1197e-18 4.91247)
(6.97766 -2.98902e-20 4.80813)
(6.28125 1.43412e-20 5.42605)
(6.65748 -2.62674e-20 5.32181)
(5.85635 1.11669e-18 5.98494)
(6.29085 3.90549e-20 5.88865)
(5.34951 1.18709e-18 6.58405)
(5.85795 7.41307e-22 6.51131)
(4.72678 -1.21531e-18 7.20742)
(5.33152 1.20725e-18 7.18534)
(3.94058 -1.04083e-18 7.81118)
(4.64695 -2.33808e-18 7.89751)
(2.93133 -1.06083e-19 8.29716)
(3.8055 1.20895e-18 8.57706)
(2.51896 -1.26124e-18 9.11995)
(9.98684 3.64965e-20 0.157583)
(9.98734 0 0.109228)
(9.9619 3.53481e-20 0.258639)
(9.97404 5.37352e-20 0.213042)
(9.92586 7.81326e-20 0.360891)
(9.94929 -1.8473e-20 0.316707)
(9.87912 3.53662e-20 0.46667)
(9.90984 7.69002e-20 0.423133)
(9.82204 -8.07741e-20 0.577507)
(9.85908 -7.93796e-20 0.534015)
(9.75484 6.69508e-20 0.694702)
(9.79896 -4.66215e-22 0.650742)
(9.67762 3.80292e-20 0.819503)
(9.72966 1.89884e-19 0.774581)
(9.59043 -8.70165e-20 0.953232)
(9.65095 -4.31668e-20 0.906825)
(9.49339 -2.21424e-20 1.09726)
(9.56281 -2.00927e-19 1.04884)
(9.38658 0 1.25296)
(9.46535 9.18027e-20 1.202)
(9.27003 -2.26473e-19 1.42177)
(9.35874 0 1.36773)
(9.1437 -1.64206e-21 1.60524)
(9.24309 -2.1128e-19 1.54754)
(9.00752 4.13792e-19 1.80499)
(9.11836 1.73751e-21 1.74305)
(8.86137 -2.27382e-20 2.02278)
(8.98455 4.17358e-19 1.95598)
(8.70513 -2.13074e-19 2.26051)
(8.84165 -2.15808e-19 2.18817)
(8.53853 -1.07175e-20 2.52035)
(8.68951 -1.35508e-20 2.44171)
(8.36111 -1.42064e-20 2.80473)
(8.52794 1.73502e-20 2.71899)
(8.17215 -5.04729e-19 3.11644)
(8.35658 1.04927e-20 3.02275)
(7.97052 -4.78028e-19 3.45864)
(8.17479 -1.39688e-20 3.35611)
(7.75441 1.52206e-20 3.83505)
(7.9815 -4.76835e-19 3.72276)
(7.52091 9.92435e-21 4.25023)
(7.77463 -2.71002e-20 4.12726)
(7.2658 -7.64037e-21 4.70964)
(7.55121 -5.10646e-19 4.57524)
(6.98281 1.06659e-18 5.21953)
(7.30731 7.94705e-20 5.07345)
(6.66207 9.83451e-23 5.7869)
(7.03633 1.54129e-18 5.63013)
(6.28775 -1.08029e-18 6.41896)
(6.72727 -1.98414e-18 6.25541)
(5.83398 3.2159e-20 7.12094)
(6.36123 -1.33553e-20 6.96123)
(5.25851 2.88562e-20 7.89227)
(5.91003 1.96799e-18 7.75876)
(4.49233 -3.40555e-20 8.70876)
(5.29678 -1.97814e-18 8.66001)
(3.4261 0 9.48539)
(4.49441 9.8363e-19 9.63102)
(3.02194 0 10.6193)
(9.98774 1.80662e-20 0.166056)
(9.98765 -8.66908e-21 0.114724)
(9.96453 -1.35727e-21 0.272616)
(9.97563 -9.02267e-21 0.223809)
(9.93106 -1.81775e-20 0.380472)
(9.95308 -5.51754e-20 0.332785)
(9.88772 -4.0274e-20 0.492018)
(9.91667 3.79997e-20 0.444663)
(9.83489 2.15975e-21 0.608816)
(9.8698 -7.89312e-20 0.561149)
(9.77286 1.25371e-19 0.732231)
(9.81448 4.05899e-20 0.683671)
(9.7018 1.05257e-19 0.863569)
(9.75092 8.41551e-20 0.813567)
(9.62184 -1.59353e-19 1.00416)
(9.67899 5.09318e-22 0.952159)
(9.53311 -8.29149e-20 1.15539)
(9.59873 -2.45092e-19 1.10082)
(9.43573 9.05767e-20 1.31868)
(9.51026 2.05475e-19 1.26096)
(9.32983 1.24361e-20 1.4955)
(9.41388 -1.8815e-19 1.43401)
(9.21554 -2.05257e-19 1.68744)
(9.30976 4.22389e-19 1.62151)
(9.09296 1.02047e-20 1.89621)
(9.19803 -3.87903e-19 1.82512)
(8.96217 2.16747e-19 2.12362)
(9.07892 4.06178e-20 2.04662)
(8.82317 -1.37205e-20 2.37168)
(8.95256 2.08503e-19 2.28793)
(8.67588 1.48781e-20 2.6427)
(8.81901 -9.64273e-23 2.55123)
(8.52017 4.20138e-20 2.93935)
(8.67836 1.41984e-20 2.83905)
(8.35571 5.01822e-19 3.2647)
(8.53066 4.75073e-19 3.15431)
(8.18185 -1.66248e-20 3.62243)
(8.3758 5.66626e-20 3.50045)
(7.99735 -5.16363e-19 4.01697)
(8.21317 -8.37269e-22 3.88172)
(7.80019 -5.53514e-19 4.4539)
(8.0416 -9.64408e-19 4.30337)
(7.58752 -4.204e-19 4.94016)
(7.8598 -9.63003e-19 4.77189)
(7.35481 5.64287e-19 5.48454)
(7.66573 9.3134e-20 5.29563)
(7.09435 -4.72285e-19 6.09843)
(7.45541 -1.52246e-21 5.88583)
(6.79287 -9.03391e-19 6.79691)
(7.22199 -9.7847e-19 6.55798)
(6.42668 1.93968e-18 7.59948)
(6.95264 9.45981e-19 7.33416)
(5.95148 -9.67518e-20 8.53285)
(6.62808 1.44521e-18 8.24607)
(5.28044 -9.1347e-19 9.62572)
(6.17939 -1.94426e-18 9.34917)
(4.23217 9.70939e-19 10.9109)
(5.58358 5.65109e-19 10.7089)
(3.89634 4.11985e-19 12.5953)
(9.98867 -3.56267e-20 0.173915)
(9.98797 -8.83458e-21 0.119802)
(9.96729 -6.36838e-20 0.285559)
(9.97727 -9.4223e-20 0.233743)
(9.93649 2.50796e-21 0.398571)
(9.95701 -3.72368e-20 0.347596)
(9.89671 -2.42799e-21 0.515401)
(9.92377 7.44291e-20 0.464457)
(9.84832 -3.8675e-20 0.637633)
(9.88096 -1.50271e-19 0.586047)
(9.79164 0 0.766674)
(9.8306 0 0.713813)
(9.72695 -2.18487e-20 0.903874)
(9.77299 7.82806e-20 0.849133)
(9.65444 -8.87151e-20 1.05059)
(9.70806 -1.42811e-19 0.993369)
(9.57429 4.95812e-20 1.20822)
(9.6359 -5.76577e-21 1.14791)
(9.4867 -7.86789e-20 1.3782)
(9.55675 7.31885e-20 1.31417)
(9.3919 2.29887e-19 1.56201)
(9.471 -1.91846e-19 1.49357)
(9.29013 2.29609e-19 1.76126)
(9.37892 2.37364e-19 1.68767)
(9.18165 -3.52411e-19 1.97768)
(9.28077 -1.52971e-20 1.89812)
(9.06674 3.40772e-20 2.21314)
(9.17694 -2.0636e-19 2.12672)
(8.94564 2.19833e-19 2.46973)
(9.06777 2.12683e-19 2.37544)
(8.81854 -6.20183e-22 2.74984)
(8.95363 1.3737e-20 2.64653)
(8.68567 4.5254e-19 3.05623)
(8.83495 -1.40592e-20 2.94251)
(8.54718 2.60692e-20 3.39223)
(8.71224 4.69817e-19 3.2664)
(8.40297 7.27849e-20 3.76178)
(8.58588 -4.35807e-19 3.62187)
(8.25272 -4.56586e-19 4.16982)
(8.45595 1.02123e-19 4.01338)
(8.09592 -1.37622e-18 4.62253)
(8.32282 -4.96748e-19 4.44638)
(7.93168 -4.41571e-19 5.12777)
(8.18715 -7.69406e-20 4.92773)
(7.75825 -4.76309e-19 5.69616)
(8.0493 -6.32918e-20 5.46659)
(7.57225 -5.19879e-19 6.34257)
(7.90936 -9.12324e-19 6.07578)
(7.36737 8.80717e-19 7.08869)
(7.76755 -5.03707e-20 6.77374)
(7.13109 4.59086e-19 7.9678)
(7.62355 1.04448e-18 7.58869)
(6.8362 -4.5526e-19 9.03824)
(7.4829 -4.7063e-19 8.56721)
(6.41734 -4.2214e-19 10.4166)
(7.33585 0 9.80446)
(5.68649 2.16458e-19 12.6517)
(7.4587 -1.92249e-19 11.5151)
(6.85546 1.08692e-19 15.3939)
(0.181654 -1.02106e-20 -0.123543)
(0.115618 -3.17187e-20 -0.157717)
(0.396545 2.0068e-20 -0.119376)
(0.275803 1.0688e-20 -0.17924)
(0.596163 -3.39561e-21 -0.0992865)
(0.472682 2.84574e-20 -0.157507)
(0.769191 -9.97865e-21 -0.07937)
(0.660892 -2.5818e-20 -0.131664)
(0.915917 5.09437e-22 -0.0626217)
(0.824487 1.7397e-20 -0.109117)
(1.03855 -3.37839e-21 -0.0486728)
(0.962452 -1.14243e-21 -0.0898369)
(1.13937 -1.01814e-22 -0.0367629)
(1.0784 -3.92711e-21 -0.0730451)
(1.22004 3.88897e-21 -0.026183)
(1.1755 3.8672e-21 -0.0579406)
(1.28136 0 -0.0163732)
(1.25533 -7.3268e-21 -0.0436797)
(1.32347 0 -0.00709798)
(1.31873 7.22415e-21 -0.0297366)
(1.34644 4.22475e-22 0.00144111)
(1.36603 1.74299e-21 -0.0160304)
(1.35116 8.39011e-22 0.00862443)
(1.39721 -2.6869e-23 -0.00317233)
(1.34018 8.16098e-22 0.0138008)
(1.41277 -1.59534e-23 0.00769229)
(1.31746 4.05137e-22 0.0166397)
(1.41392 -7.96211e-22 0.0156312)
(1.28767 3.68678e-22 0.0171907)
(1.40427 3.11377e-21 0.0202158)
(1.25573 1.99319e-23 0.0158427)
(1.38908 -1.14718e-21 0.0214173)
(1.22602 -3.40683e-23 0.0131957)
(1.37313 -1.08902e-21 0.0196851)
(1.20175 -3.12655e-22 0.00987963)
(1.36017 -3.52542e-22 0.0158973)
(1.1848 -5.15775e-22 0.00640481)
(1.35238 -3.24333e-22 0.0110116)
(1.17581 -4.10364e-22 0.00311721)
(1.35052 1.47176e-22 0.00583788)
(1.17454 -1.76594e-22 0.000296369)
(1.35398 -2.77449e-22 0.000954256)
(1.1797 1.64326e-22 -0.00181864)
(1.36167 6.46051e-22 -0.00300183)
(1.18928 -4.30385e-22 -0.00321128)
(1.37237 -6.77103e-22 -0.00563746)
(1.20162 6.91589e-24 -0.00408546)
(1.38499 -1.90732e-22 -0.00720534)
(1.2157 1.73817e-22 -0.00463719)
(1.39868 1.18248e-22 -0.00812668)
(1.23092 -3.90791e-23 -0.00497998)
(1.41285 -1.79749e-22 -0.0086797)
(1.24701 -7.90764e-24 -0.00521255)
(1.42716 6.24012e-23 -0.00906101)
(1.26402 -7.0067e-25 -0.00538742)
(1.44148 -7.96789e-24 -0.00945381)
(1.2819 7.91156e-24 -0.00538236)
(1.45603 7.84199e-24 -0.00981456)
(1.47415 0 -0.00958566)
(0.159149 -3.66574e-20 -0.258574)
(0.0918111 -2.11128e-20 -0.318195)
(0.358785 2.25435e-20 -0.258543)
(0.225421 4.01087e-20 -0.346676)
(0.551179 3.23271e-21 -0.223305)
(0.408412 -1.91332e-20 -0.308328)
(0.722887 3.43865e-21 -0.186361)
(0.581902 -1.74858e-20 -0.261548)
(0.872491 1.60525e-20 -0.154545)
(0.733745 1.74085e-20 -0.220062)
(1.00207 -1.54547e-21 -0.12758)
(0.864047 1.58558e-21 -0.184729)
(1.11404 0 -0.104156)
(0.976201 1.74931e-20 -0.154306)
(1.21031 -7.2838e-21 -0.0829866)