/*--------------------------------*- C++ -*----------------------------------*\
| =========                 |                                                 |
| \\      /  F ield         | OpenFOAM: The Open Source CFD Toolbox           |
|  \\    /   O peration     | Version:  dev                                   |
|   \\  /    A nd           | Web:      www.OpenFOAM.org                      |
|    \\/     M anipulation  |                                                 |
\*---------------------------------------------------------------------------*/
FoamFile
{
    version     2.0;
    format      ascii;
    class       surfaceScalarField;
    location    "3.16";
    object      phi;
}
// * * * * * * * * * * * * * * * * * * * * * * * * * * * * * * * * * * * * * //

dimensions      [0 3 -1 0 0 0 0];

internalField   nonuniform List<scalar> 
881
(
-0.0328726
0.0259741
0.021297
0.049396
0.0478178
0.0300853
0.040619
0.0132264
0.0345487
0.0296438
0.144767
0.069419
0.124144
0.0612523
0.104672
0.0540316
0.0866029
0.0477248
0.042158
0.229629
0.0876179
0.211521
0.0793702
0.193743
0.0718209
0.176515
0.0649629
0.159952
0.0587316
0.144162
0.0530656
0.0479287
0.299383
0.101311
0.285174
0.0935883
0.270707
0.0862971
0.256209
0.0794709
0.241842
0.0731076
0.227725
0.0671919
0.213943
0.0617177
0.200558
0.0566868
0.0521096
0.35385
0.11029
0.343956
0.103491
0.33339
0.096871
0.322374
0.0904962
0.311082
0.0844082
0.299649
0.0786322
0.288182
0.0731913
0.276763
0.0681109
0.265454
0.0634216
0.0591556
0.394514
0.114902
0.388778
0.109235
0.382124
0.103533
0.374744
0.0978839
0.366804
0.0923556
0.358441
0.0870012
0.349771
0.0818672
0.340887
0.0769985
0.33187
0.0724413
0.322783
0.0682421
0.313684
0.0644477
0.0610999
0.423678
0.115849
0.421573
0.111346
0.418458
0.106655
0.414482
0.101867
0.409782
0.0970617
0.404482
0.0923066
0.398691
0.0876629
0.392504
0.0831884
0.386007
0.07894
0.379275
0.0749729
0.37238
0.0713397
0.365388
0.0680869
0.0652453
0.443996
0.113994
0.444789
0.110558
0.444606
0.106844
0.443546
0.102933
0.441709
0.098904
0.439192
0.094828
0.436087
0.0907714
0.43248
0.0867978
0.428451
0.0829688
0.424079
0.0793437
0.419437
0.0759779
0.414599
0.0729193
0.409632
0.0702035
0.404602
0.0678499
0.0658538
0.458083
0.110195
0.460987
0.107658
0.463032
0.104803
0.46427
0.101699
0.464764
0.0984143
0.46458
0.0950157
0.463786
0.0915678
0.462452
0.0881334
0.460646
0.0847741
0.458438
0.0815489
0.455899
0.078513
0.453097
0.0757144
0.450102
0.0731905
0.446976
0.0709639
0.443777
0.0690388
0.0673946
0.468204
0.105182
0.472509
0.103357
0.476105
0.10121
0.479013
0.0987952
0.48126
0.0961696
0.482887
0.0933912
0.483938
0.0905182
0.484463
0.0876086
0.484516
0.0847199
0.484154
0.0819081
0.483436
0.0792257
0.482424
0.076719
0.481179
0.0744259
0.479759
0.0723718
0.478216
0.0705671
0.476588
0.0690057
0.474896
0.0676692
0.0665289
0.476091
0.0994896
0.481241
0.0982086
0.485832
0.0966218
0.489859
0.0947699
0.493332
0.0926986
0.496268
0.0904564
0.498693
0.0880935
0.50064
0.0856612
0.502146
0.0832113
0.503256
0.0807945
0.504016
0.0784593
0.504478
0.0762495
0.504691
0.0742019
0.504707
0.0723439
0.504567
0.0706915
0.504306
0.0692486
0.503946
0.0680091
0.50349
0.0669611
0.0660886
0.482909
0.093458
0.488528
0.0925907
0.49371
0.0914409
0.498442
0.090039
0.50272
0.0884214
0.506548
0.0866281
0.50994
0.0847015
0.512913
0.082686
0.515494
0.0806268
0.517714
0.0785693
0.519609
0.0765571
0.521219
0.0746308
0.522584
0.0728259
0.523744
0.0711705
0.524735
0.069685
0.525584
0.0683806
0.52631
0.0672616
0.526919
0.0663284
0.527399
0.0655824
0.0650235
0.489352
0.0872808
0.495212
0.0867304
0.500731
0.0859226
0.50589
0.0848801
0.510679
0.0836318
0.515096
0.0822104
0.519144
0.0806515
0.522834
0.078993
0.526182
0.0772741
0.529211
0.0755349
0.531945
0.0738144
0.534417
0.0721498
0.536656
0.0705746
0.538695
0.0691175
0.540562
0.0678014
0.54228
0.0666433
0.543864
0.0656554
0.54532
0.0648479
0.546642
0.0642333
0.547809
0.0638256
0.0639492
0.495787
0.0810556
0.501767
0.0807502
0.507476
0.0802126
0.512896
0.0794593
0.518013
0.078513
0.522821
0.0774004
0.527318
0.0761513
0.531509
0.0747977
0.535404
0.0733737
0.539018
0.0719143
0.542369
0.0704542
0.545481
0.0690275
0.548377
0.0676656
0.551082
0.066397
0.55362
0.0652463
0.556009
0.0642344
0.558262
0.0633793
0.560386
0.0626985
0.562379
0.0622123
0.56423
0.0619431
0.062206
0.502394
0.074827
0.508431
0.0747111
0.514255
0.0743874
0.519844
0.0738677
0.525185
0.0731697
0.530267
0.0723149
0.535086
0.0713279
0.539643
0.0702358
0.543942
0.0690678
0.547994
0.0678544
0.551812
0.0666268
0.555412
0.0654155
0.558814
0.0642503
0.562036
0.0631587
0.565098
0.0621663
0.568015
0.0612962
0.5708
0.0605705
0.573461
0.0600112
0.576001
0.0596439
0.578417
0.0594953
0.0598643
0.509262
0.0686132
0.515329
0.0686414
0.521228
0.0684857
0.526938
0.0681538
0.532445
0.0676595
0.537736
0.0670197
0.542804
0.0662545
0.547646
0.0653868
0.552265
0.0644414
0.556666
0.0634449
0.560857
0.0624247
0.564851
0.0614087
0.568663
0.0604241
0.572307
0.0594976
0.575799
0.0586546
0.579154
0.0579196
0.582384
0.0573167
0.585497
0.0568707
0.588501
0.0566098
0.5914
0.0565627
0.0570075
0.516448
0.0624202
0.522532
0.0625541
0.528487
0.0625271
0.534292
0.0623437
0.539933
0.0620143
0.545395
0.0615522
0.55067
0.0609736
0.555751
0.0602975
0.560639
0.059545
0.565335
0.0587389
0.569845
0.0579033
0.574177
0.0570631
0.578342
0.0562435
0.582352
0.0554695
0.586221
0.0547659
0.58996
0.0541574
0.593583
0.0536687
0.597099
0.053326
0.60052
0.0531582
0.603854
0.0531942
0.0536887
0.524004
0.0562472
0.5301
0.056454
0.5361
0.0565215
0.541987
0.0564522
0.547742
0.0562534
0.553352
0.0559355
0.558807
0.0555116
0.564099
0.0549972
0.569224
0.0544099
0.574183
0.0537692
0.578977
0.0530963
0.583613
0.0524131
0.588097
0.0517424
0.59244
0.0511075
0.596653
0.0505318
0.600748
0.0500394
0.604735
0.0496547
0.608628
0.0494039
0.612439
0.0493154
0.616181
0.0494172
0.0499395
0.531985
0.0500901
0.538092
0.0503412
0.544135
0.0504735
0.550094
0.0504875
0.555952
0.0503887
0.561695
0.0501849
0.567312
0.0498864
0.572794
0.0495058
0.578136
0.0490578
0.583334
0.0485589
0.588389
0.0480271
0.593305
0.0474819
0.598086
0.0469435
0.602741
0.0464331
0.607278
0.0459726
0.611708
0.0455843
0.616044
0.045292
0.620297
0.0451205
0.624482
0.0450971
0.628615
0.0452482
0.0457786
0.540455
0.043941
0.546578
0.0442122
0.552662
0.0443832
0.55869
0.0444537
0.564643
0.0444275
0.57051
0.0443105
0.576276
0.0441107
0.581933
0.0438383
0.587474
0.0435052
0.592895
0.0431254
0.598193
0.042714
0.603371
0.0422879
0.608431
0.0418648
0.61338
0.0414637
0.618225
0.0411042
0.622977
0.040807
0.627646
0.0405941
0.632247
0.0404886
0.636794
0.0405157
0.641305
0.0407
0.0412213
0.549488
0.0377895
0.555634
0.0380597
0.561763
0.0382471
0.567859
0.0383508
0.573905
0.0383732
0.579888
0.0383187
0.585795
0.0381936
0.591616
0.0380059
0.597344
0.0377654
0.602972
0.0374833
0.608498
0.0371724
0.613922
0.036847
0.619245
0.0365223
0.624472
0.0362148
0.62961
0.0359418
0.634669
0.0357219
0.639659
0.0355747
0.644594
0.0355211
0.649491
0.035584
0.654367
0.0357854
0.0362793
0.559167
0.0316219
0.565346
0.0318736
0.571528
0.0320585
0.577696
0.0321752
0.583835
0.0322254
0.589932
0.0322124
0.595974
0.0321408
0.601951
0.032017
0.607855
0.0318486
0.613679
0.0316448
0.619419
0.031416
0.625074
0.0311738
0.630645
0.0309312
0.636135
0.030702
0.641551
0.0305011
0.6469
0.0303445
0.652195
0.0302492
0.65745
0.0302336
0.66268
0.0303176
0.667904
0.0305209
0.0309735
0.569585
0.025422
0.575812
0.0256404
0.582056
0.0258068
0.588303
0.0259198
0.594539
0.0259803
0.600751
0.0259908
0.606926
0.0259547
0.613054
0.0258767
0.619126
0.0257628
0.625136
0.0256201
0.631078
0.0254568
0.636951
0.0252822
0.642754
0.0251067
0.648491
0.0249416
0.654168
0.024799
0.659792
0.0246922
0.665374
0.0246354
0.670929
0.0246441
0.676474
0.0247349
0.68203
0.0249242
0.0253153
0.580857
0.0191707
0.587147
0.0193441
0.593467
0.0194791
0.599804
0.0195746
0.606144
0.0196312
0.612474
0.0196505
0.618783
0.019635
0.625059
0.0195879
0.631294
0.0195138
0.63748
0.0194178
0.643613
0.0193061
0.64969
0.0191856
0.655711
0.0190642
0.661678
0.0189505
0.667597
0.018854
0.673475
0.0187848
0.679324
0.0187543
0.685158
0.0187746
0.690995
0.0188594
0.696854
0.0190226
0.0193455
0.5931
0.0128454
0.599473
0.0129647
0.605886
0.0130586
0.612327
0.0131263
0.618781
0.013168
0.625236
0.0131849
0.631681
0.0131785
0.638105
0.013151
0.6445
0.0131052
0.650857
0.0130448
0.657171
0.0129737
0.66344
0.0128967
0.669663
0.012819
0.675842
0.0127466
0.681983
0.0126859
0.688094
0.0126441
0.694186
0.0126291
0.700274
0.0126497
0.706378
0.0127162
0.712518
0.0128389
0.0130719
0.60644
0.00642255
0.612917
0.00648175
0.619441
0.00652813
0.625998
0.00656115
0.632577
0.00658101
0.639163
0.0065882
0.645747
0.00658353
0.652317
0.00656812
0.658864
0.00654341
0.665382
0.00651118
0.671863
0.00647353
0.678307
0.00643288
0.684711
0.00639194
0.691079
0.00635376
0.697415
0.00632171
0.703729
0.00629957
0.710033
0.00629171
0.716342
0.00630343
0.722676
0.00634193
0.729052
0.0064185
0.00658328
0.610046
0.616522
0.623043
0.629597
0.636169
0.642747
0.64932
0.655875
0.662404
0.668899
0.675354
0.681766
0.688135
0.694463
0.700756
0.707025
0.713282
0.719547
0.725848
0.732221
)
;

boundaryField
{
    inlet
    {
        type            calculated;
        value           nonuniform 0();
    }
    outlet
    {
        type            calculated;
        value           nonuniform List<scalar> 
15
(
0.548803
0.56594
0.580724
0.594222
0.607137
0.619893
0.632737
0.645822
0.659267
0.673168
0.687644
0.702779
0.718746
0.735493
0.738756
)
;
    }
    flap
    {
        type            calculated;
        value           nonuniform 0();
    }
    upperWall
    {
        type            calculated;
        value           nonuniform List<scalar> 
21
(
0
0
0
0
0
0
0
0
0
0
9.10329e-15
0
-4.74273e-15
0
0
0
0
0
0
0
0
)
;
    }
    lowerWall
    {
        type            calculated;
        value           nonuniform 0();
    }
    frontAndBack
    {
        type            empty;
        value           nonuniform 0();
    }
    procBoundary2to1
    {
        type            processor;
        value           nonuniform List<scalar> 
17
(
-0.470396
-0.476875
-0.483174
-0.489562
-0.496166
-0.50305
-0.510258
-0.517835
-0.525832
-0.534311
-0.543341
-0.553004
-0.56339
-0.574611
-0.58678
-0.600022
-0.603627
)
;
    }
    procBoundary2to4
    {
        type            processor;
        value           nonuniform List<scalar> 
11
(
0.0231857
-0.0712289
-0.166358
-0.247819
-0.313067
-0.362821
-0.39912
-0.424619
-0.442136
-0.45428
-0.463188
)
;
    }
    procBoundary2to5
    {
        type            processor;
        value           nonuniform List<scalar> 
34
(
-0.0162762
-0.0169192
-0.0372388
-0.0176779
-0.015252
-0.0011539
-0.0254944
0.06995
-0.0372668
-0.032991
0.129232
-0.0432972
-0.0391631
0.187615
-0.0480033
0.254302
-0.0553504
-0.0520458
0.304624
-0.0582273
0.358362
-0.0628309
-0.0608349
0.399569
-0.0641811
0.440547
-0.0659978
-0.0648065
0.473151
-0.0655508
0.502926
-0.0653772
0.527723
-0.0649757
)
;
    }
}


// ************************************************************************* //
