/*--------------------------------*- C++ -*----------------------------------*\
| =========                 |                                                 |
| \\      /  F ield         | OpenFOAM: The Open Source CFD Toolbox           |
|  \\    /   O peration     | Version:  dev                                   |
|   \\  /    A nd           | Web:      www.OpenFOAM.org                      |
|    \\/     M anipulation  |                                                 |
\*---------------------------------------------------------------------------*/
FoamFile
{
    version     2.0;
    format      ascii;
    class       volVectorField;
    location    "0.91";
    object      U;
}
// * * * * * * * * * * * * * * * * * * * * * * * * * * * * * * * * * * * * * //

dimensions      [0 1 -1 0 0 0 0];

internalField   nonuniform List<vector> 
2790
(
(9.93148 0 0.0190433)
(9.8624 0 0.0267013)
(9.7665 0 0.0318334)
(9.64758 -1.91589e-20 0.0370689)
(9.51295 -4.65632e-20 0.0424804)
(9.36486 1.38069e-20 0.0480622)
(9.2027 0 0.0539394)
(9.02552 0 0.06024)
(8.83258 0 0.0670835)
(8.62319 3.26857e-20 0.0745907)
(8.39645 -3.37928e-20 0.0828887)
(8.15123 -3.55514e-20 0.0921093)
(7.88626 3.44394e-20 0.102386)
(7.60023 7.26505e-20 0.113864)
(7.29168 -1.7102e-19 0.1267)
(6.95912 1.68139e-19 0.141059)
(6.60102 -1.53733e-19 0.157108)
(6.21591 -9.3347e-20 0.175002)
(5.80244 1.90769e-19 0.194875)
(5.35952 -2.5165e-19 0.216822)
(4.88644 4.18604e-19 0.24087)
(4.38307 2.17213e-19 0.266926)
(3.85008 5.70871e-19 0.294736)
(3.28928 -4.70907e-19 0.323839)
(2.7039 0 0.353459)
(2.09894 0 0.382296)
(1.48143 5.21164e-19 0.407924)
(0.863866 -1.58962e-18 0.420764)
(0.168976 -1.65599e-21 0.309425)
(-0.116966 1.11742e-18 -0.25742)
(9.99405 0 0.0379395)
(9.98349 -4.72483e-20 0.0553936)
(9.94788 0 0.0680412)
(9.88752 -4.67582e-23 0.0814244)
(9.80859 7.95599e-20 0.0957001)
(9.71352 -8.28067e-20 0.110784)
(9.60202 5.7205e-20 0.126913)
(9.47324 2.98281e-20 0.144358)
(9.32656 6.23512e-20 0.163388)
(9.16136 -6.44289e-20 0.184277)
(8.97685 -1.35312e-19 0.207318)
(8.77196 -1.2675e-21 0.23282)
(8.5455 2.9497e-19 0.261084)
(8.29619 -1.47067e-19 0.292418)
(8.02258 -3.2996e-19 0.327153)
(7.72315 3.30418e-19 0.365612)
(7.39632 -2.1675e-20 0.408077)
(7.04048 3.18773e-19 0.454756)
(6.65409 -3.75632e-19 0.505734)
(6.23575 -8.41895e-19 0.560913)
(5.78436 -8.98266e-21 0.619915)
(5.29924 -1.82022e-18 0.681927)
(4.7803 1.02276e-19 0.745551)
(4.22842 6.90384e-19 0.80863)
(3.64572 2.39296e-19 0.867917)
(3.03603 0 0.918394)
(2.40557 0 0.951547)
(1.76597 0 0.948605)
(1.0781 0 0.854917)
(0.686908 0 0.614434)
(9.9913 0 0.0394943)
(9.97809 1.41603e-19 0.0646672)
(9.9449 9.79979e-20 0.0856174)
(9.88953 5.10341e-20 0.107673)
(9.81673 7.70471e-23 0.131297)
(9.72909 0 0.156465)
(9.62665 -1.1482e-19 0.183477)
(9.50866 1.18666e-19 0.21272)
(9.37459 3.09441e-20 0.24461)
(9.22395 0 0.279588)
(9.05605 1.34753e-19 0.318124)
(8.87004 1.41597e-19 0.360721)
(8.66493 -5.82183e-19 0.407893)
(8.43958 3.01799e-19 0.46017)
(8.19271 1.97678e-20 0.518123)
(7.92294 0 0.582328)
(7.62877 0 0.653315)
(7.3086 7.64976e-19 0.731509)
(6.96076 -8.35559e-19 0.817158)
(6.58357 8.79468e-19 0.910234)
(6.17541 -1.00766e-18 1.01029)
(5.73475 -1.58822e-18 1.11622)
(5.2601 1.52254e-18 1.22596)
(4.75039 4.53421e-19 1.33623)
(4.20489 -2.34921e-19 1.44194)
(3.62306 0 1.53537)
(3.00348 0 1.60442)
(2.34368 4.04999e-18 1.62832)
(1.58736 -8.15585e-18 1.57493)
(0.952489 -5.48146e-19 1.41383)
(9.98952 7.97525e-20 0.0434138)
(9.97382 -1.7676e-19 0.0779308)
(9.94046 -9.79167e-20 0.108578)
(9.88629 -1.0164e-19 0.139678)
(9.81497 1.01223e-22 0.172317)
(9.72912 -5.4793e-20 0.206805)
(9.62909 -5.70482e-20 0.243593)
(9.51426 -2.96914e-20 0.283227)
(9.3842 -3.08781e-20 0.326287)
(9.23861 2.57826e-19 0.373385)
(9.077 2.18757e-21 0.425164)
(8.89872 -2.76876e-19 0.482298)
(8.7031 0 0.54549)
(8.4893 -1.88063e-20 0.615487)
(8.25638 6.30739e-19 0.693092)
(8.00334 -1.30714e-18 0.779139)
(7.72904 -7.17292e-21 0.874436)
(7.43221 1.41735e-18 0.979702)
(7.11145 -1.94059e-18 1.09548)
(6.76516 1.52673e-18 1.22201)
(6.39166 3.98789e-19 1.3591)
(5.98899 1.64875e-18 1.50581)
(5.55463 2.14065e-19 1.6601)
(5.08572 2.20094e-19 1.81847)
(4.57852 -4.56974e-19 1.97549)
(4.02761 -4.25612e-18 2.12313)
(3.42423 7.73462e-18 2.25016)
(2.75697 -3.93276e-18 2.34076)
(1.96921 0 2.37884)
(1.19175 5.32186e-19 2.37603)
(9.98869 -9.10858e-20 0.0488726)
(9.97147 1.17688e-19 0.0913637)
(9.93783 -2.44052e-20 0.130419)
(9.88456 1.01524e-19 0.16962)
(9.81465 1.05666e-19 0.210543)
(9.73052 5.3247e-22 0.253812)
(9.63257 -1.1388e-19 0.299988)
(9.52031 4.14417e-19 0.349718)
(9.39338 -2.45122e-19 0.403692)
(9.25155 0 0.462636)
(9.09444 -2.33749e-19 0.527308)
(8.92158 2.75328e-19 0.598492)
(8.73245 2.24314e-21 0.677015)
(8.52645 1.87188e-20 0.763772)
(8.30292 0 0.859729)
(8.06117 0 0.965909)
(7.8004 8.3992e-20 1.08334)
(7.51973 0 1.213)
(7.21812 1.46251e-18 1.35574)
(6.89421 -1.31618e-18 1.51217)
(6.5464 -3.92261e-19 1.68248)
(6.17273 0 1.86625)
(5.77027 3.17118e-18 2.06196)
(5.33503 -3.89948e-18 2.26672)
(4.86134 4.49403e-19 2.476)
(4.34061 4.14831e-18 2.68324)
(3.7602 -3.74819e-18 2.88013)
(3.10559 0 3.05702)
(2.34199 0 3.19826)
(1.46271 0 3.37251)
(9.98829 0 0.0550609)
(9.97029 0 0.104862)
(9.93665 0 0.151857)
(9.88444 0 0.199092)
(9.81621 1.05361e-19 0.248322)
(9.73415 1.42738e-22 0.300354)
(9.63867 -5.67518e-20 0.355824)
(9.52937 -5.89587e-20 0.415456)
(9.40592 -6.11307e-20 0.480046)
(9.26811 2.55308e-19 0.550419)
(9.1157 -3.29372e-19 0.627437)
(8.9483 0 0.711993)
(8.76549 -2.23298e-21 0.805026)
(8.56681 -5.96006e-19 0.907548)
(8.3518 6.52193e-19 1.02066)
(8.11994 0 1.14554)
(7.87072 -8.33701e-20 1.28341)
(7.60349 0 1.43546)
(7.31748 -1.79797e-19 1.60286)
(7.01162 1.30811e-18 1.7866)
(6.68445 -1.34049e-18 1.98735)
(6.33408 3.20212e-18 2.20532)
(5.9576 -3.27877e-18 2.43993)
(5.55054 4.22011e-19 2.68941)
(5.10659 3.4982e-18 2.9508)
(4.61637 -3.55976e-18 3.21971)
(4.06621 4.5186e-19 3.49018)
(3.43815 0 3.75748)
(2.74038 -2.30092e-19 3.98798)
(1.77568 0 4.32832)
(9.98801 0 0.0615926)
(9.96988 -2.33999e-19 0.118374)
(9.93667 2.91465e-19 0.172899)
(9.88568 5.0704e-20 0.227902)
(9.81934 -1.04604e-19 0.285179)
(9.73966 -1.08885e-19 0.345657)
(9.64707 1.12837e-19 0.41006)
(9.54118 0 0.47921)
(9.42172 1.44982e-22 0.554003)
(9.28853 -6.31277e-20 0.63536)
(9.14141 -3.26726e-20 0.724229)
(8.98007 0 0.821601)
(8.80416 1.76566e-20 0.928509)
(8.61332 1.43179e-22 1.04605)
(8.40719 -3.82072e-20 1.17544)
(8.18541 -3.94644e-20 1.31798)
(7.94768 0 1.47506)
(7.69345 1.45298e-18 1.6481)
(7.422 -1.22885e-18 1.83853)
(7.13259 0 2.04776)
(6.824 2.84447e-18 2.27695)
(6.49442 2.91045e-18 2.527)
(6.14124 -3.99303e-19 2.79843)
(5.75997 -4.14684e-19 3.0908)
(5.34427 0 3.40282)
(4.88558 0 3.73224)
(4.37158 6.58489e-18 4.07413)
(3.77622 2.85059e-21 4.42848)
(3.16907 -6.90612e-18 4.7274)
(2.12599 -2.37323e-19 5.21167)
(9.98783 0 0.0682481)
(9.97004 2.33631e-19 0.131741)
(9.93764 -1.4536e-19 0.193425)
(9.88802 -3.01447e-19 0.255905)
(9.82379 0 0.320943)
(9.74685 0 0.389551)
(9.65754 -3.38082e-19 0.462548)
(9.55552 4.66847e-19 0.540852)
(9.44057 -1.80837e-19 0.625453)
(9.31257 1.25613e-19 0.717347)
(9.17135 6.52657e-20 0.817553)
(9.01673 -5.42915e-19 0.92715)
(8.84843 1.10444e-18 1.04726)
(8.66617 -5.79521e-19 1.17907)
(8.46969 1.21121e-18 1.32387)
(8.25868 4.9773e-20 1.48306)
(8.03306 -2.58913e-18 1.65822)
(7.79233 -9.53841e-20 1.85104)
(7.5358 -1.57658e-18 2.0632)
(7.26289 -2.30567e-20 2.2964)
(6.97262 2.94245e-18 2.55239)
(6.66336 1.90928e-19 2.83276)
(6.33299 3.52607e-18 3.13909)
(5.97743 -3.19199e-18 3.47238)
(5.59055 -6.55291e-18 3.83277)
(5.16476 6.64993e-18 4.21966)
(4.691 6.53357e-18 4.62793)
(4.12917 -6.89964e-18 5.06402)
(3.62322 6.76824e-18 5.41403)
(2.5053 -7.18944e-18 6.01866)
(9.98781 0 0.0748783)
(9.97055 1.85985e-19 0.144831)
(9.9392 0 0.213347)
(9.8912 2.0064e-19 0.283002)
(9.82932 0 0.355485)
(9.75541 4.31756e-19 0.431873)
(9.66976 -2.23291e-19 0.513086)
(9.57204 0 0.600134)
(9.46206 -1.20139e-19 0.694093)
(9.33978 -6.24718e-20 0.796024)
(9.20508 0 0.906998)
(9.05787 -6.68606e-20 1.02818)
(8.89792 0 1.16078)
(8.72503 -1.15492e-18 1.30604)
(8.53901 1.18641e-18 1.46536)
(8.33978 -1.23724e-18 1.64022)
(8.12707 1.22949e-18 1.83238)
(7.90056 -1.40331e-18 2.04379)
(7.6599 -1.45822e-18 2.27641)
(7.40447 2.78957e-18 2.53221)
(7.13345 1.80902e-19 2.81346)
(6.84553 0 3.12248)
(6.53874 0 3.46176)
(6.2098 0 3.83372)
(5.85356 1.95335e-19 4.23998)
(5.46235 0 4.681)
(5.03166 2.03616e-19 5.15042)
(4.50159 -6.35345e-18 5.66382)
(4.09656 1.29375e-17 6.05577)
(2.90582 -7.101e-18 6.76217)
(9.98796 3.5872e-19 0.0813723)
(9.97134 -1.85711e-19 0.15755)
(9.94122 0 0.23258)
(9.89511 0 0.309078)
(9.83585 0 0.388655)
(9.76529 -4.30197e-19 0.472446)
(9.68364 -1.03256e-21 0.56147)
(9.59057 5.76678e-19 0.656833)
(9.48594 -1.18703e-19 0.759661)
(9.36987 -1.23579e-19 0.871065)
(9.24231 0 0.992184)
(9.10311 6.65091e-20 1.12426)
(8.95218 -1.10285e-18 1.26858)
(8.7894 -8.09695e-21 1.42645)
(8.61466 1.17088e-18 1.59929)
(8.4281 9.45041e-21 1.78879)
(8.22926 4.90358e-20 1.99684)
(8.01801 4.08465e-20 2.2256)
(7.79437 8.34773e-20 2.47729)
(7.55762 0 2.75418)
(7.30725 2.89998e-18 3.05905)
(7.04248 2.95384e-18 3.39501)
(6.76113 9.09741e-20 3.76526)
(6.4606 -9.25173e-20 4.17346)
(6.13735 -1.43872e-19 4.62283)
(5.78285 0 5.115)
(5.39781 0 5.64174)
(4.89786 0 6.2304)
(4.58652 -7.5811e-19 6.66578)
(3.3242 0 7.46609)
(9.98818 -3.58207e-19 0.0876606)
(9.9723 0 0.169813)
(9.94364 9.55229e-20 0.251039)
(9.89965 2.97882e-19 0.334019)
(9.84325 -2.0586e-19 0.42031)
(9.77634 2.13335e-19 0.511102)
(9.699 0 0.607523)
(9.61091 -1.14804e-19 0.710749)
(9.51204 -3.57573e-19 0.82192)
(9.40263 1.20272e-19 0.942176)
(9.28266 5.0683e-19 1.07277)
(9.152 -1.31083e-19 1.21502)
(9.01071 0 1.37023)
(8.85877 0 1.53976)
(8.69615 -7.21628e-20 1.72511)
(8.52289 -9.36506e-21 1.92811)
(8.33875 1.2248e-18 2.15082)
(8.14399 -1.22233e-18 2.39555)
(7.93862 -2.60754e-18 2.66473)
(7.72202 5.33194e-18 2.961)
(7.4939 -2.7965e-18 3.28754)
(7.25405 -2.87453e-18 3.64825)
(7.00065 5.58065e-18 4.04719)
(6.73141 -2.77671e-18 4.48898)
(6.44411 -4.56758e-20 4.97844)
(6.12937 0 5.51915)
(5.79343 0 6.10141)
(5.32489 -5.77224e-18 6.76629)
(5.0977 6.59389e-18 7.25918)
(3.76556 0 8.16415)
(9.98843 0 0.0937022)
(9.97339 0 0.181543)
(9.94639 -2.86718e-19 0.268622)
(9.90474 -9.93191e-20 0.357715)
(9.85145 5.60994e-22 0.450327)
(9.78839 -4.25703e-19 0.547708)
(9.71557 2.19599e-19 0.651085)
(9.63278 0 0.761676)
(9.54012 3.54381e-19 0.880622)
(9.43779 -9.74511e-19 1.0091)
(9.32578 5.02179e-19 1.14847)
(9.20414 1.30349e-19 1.3001)
(9.07305 -1.21089e-18 1.4653)
(8.93258 1.1044e-18 1.64548)
(8.78283 -1.07323e-18 1.84229)
(8.62364 2.27663e-18 2.05763)
(8.45513 -1.20444e-18 2.29361)
(8.2778 0 2.55267)
(8.09175 2.54592e-18 2.83755)
(7.89689 -2.59205e-18 3.15128)
(7.69301 -1.04114e-20 3.4973)
(7.48002 2.60616e-18 3.88001)
(7.25711 -1.79807e-19 4.30459)
(7.02278 0 4.77679)
(6.77522 5.50981e-18 5.30271)
(6.50483 -5.54066e-18 5.88906)
(6.22343 -5.45499e-18 6.52679)
(5.79401 1.09044e-17 7.27121)
(5.64567 -5.50822e-18 7.84893)
(4.24865 0 8.89918)
(9.98882 3.54615e-19 0.0994462)
(9.97469 4.58657e-20 0.192678)
(9.94939 -4.74968e-20 0.285247)
(9.91031 1.9728e-19 0.380064)
(9.86035 2.0497e-19 0.4786)
(9.80132 -2.10959e-19 0.582151)
(9.73327 -2.19095e-19 0.69201)
(9.6561 2.25679e-19 0.809423)
(9.56999 2.33264e-19 0.935549)
(9.47508 4.84183e-19 1.07162)
(9.37135 -4.97393e-19 1.21905)
(9.25914 1.03166e-18 1.37921)
(9.13875 -9.25019e-19 1.55344)
(9.01023 -9.59356e-19 1.7432)
(8.87378 1.12112e-18 1.95031)
(8.72946 1.2303e-18 2.17671)
(8.57763 -1.18213e-18 2.4245)
(8.41864 2.43174e-18 2.69616)
(8.2529 -2.47554e-18 2.99469)
(8.08103 0 3.32348)
(7.90331 0 3.68635)
(7.71953 -2.51978e-18 4.08796)
(7.52987 2.79237e-18 4.53428)
(7.33426 -4.92922e-18 5.03251)
(7.13135 5.93057e-18 5.59004)
(6.91212 -5.18899e-18 6.21746)
(6.69426 5.84226e-18 6.91007)
(6.32272 1.24601e-18 7.73665)
(6.26072 4.94864e-18 8.43845)
(4.81425 -4.76975e-18 9.72418)
(9.98927 -3.98265e-19 0.104838)
(9.97615 4.56338e-20 0.203171)
(9.95264 0 0.300864)
(9.91625 -3.91506e-19 0.400989)
(9.86979 4.05969e-19 0.505034)
(9.81499 -4.19441e-19 0.614312)
(9.75196 2.16825e-19 0.730152)
(9.68067 4.49924e-19 0.853821)
(9.60137 -2.30402e-19 0.986524)
(9.51409 -4.77598e-19 1.12954)
(9.41896 2.4616e-19 1.28426)
(9.31658 0 1.45207)
(9.20727 0 1.63431)
(9.09106 -1.35116e-19 1.83257)
(8.96833 1.10898e-18 2.04873)
(8.83946 4.71413e-21 2.28471)
(8.7049 -2.32398e-18 2.54264)
(8.56512 -1.19278e-18 2.82507)
(8.42082 2.26695e-18 3.13506)
(8.27297 -3.05617e-19 3.4761)
(8.12267 -3.09421e-19 3.85246)
(7.97025 3.11923e-19 4.26909)
(7.81669 -2.51957e-18 4.73235)
(7.66343 1.58804e-18 5.25046)
(7.51092 4.34269e-18 5.83242)
(7.35231 -4.36827e-18 6.49245)
(7.21195 5.74643e-19 7.23358)
(6.93325 -1.20631e-18 8.13545)
(6.99192 0 9.00201)
(5.53828 -5.11084e-18 10.7099)
(9.98965 3.95609e-19 0.10985)
(9.9777 -4.54318e-20 0.212963)
(9.95615 9.42508e-20 0.315415)
(9.92256 6.82747e-19 0.420424)
(9.87973 -2.02197e-19 0.529535)
(9.82934 2.09144e-19 0.644069)
(9.77155 -6.48489e-19 0.765368)
(9.70634 4.4494e-19 0.894728)
(9.63402 4.60856e-19 1.0334)
(9.55459 -4.73338e-19 1.18268)
(9.46841 -2.44947e-19 1.3439)
(9.37621 -2.50725e-19 1.51844)
(9.27818 -2.57725e-19 1.70771)
(9.17449 0 1.91336)
(9.06583 0 2.13723)
(8.95281 0 2.38127)
(8.83589 0 2.64759)
(8.71586 -2.32606e-18 2.93876)
(8.59386 2.21647e-18 3.25782)
(8.47104 2.39875e-18 3.6082)
(8.34892 -2.11643e-18 3.99421)
(8.22911 -3.06703e-19 4.4211)
(8.1138 2.42472e-18 4.89532)
(8.00583 -1.81971e-18 5.42527)
(7.90888 0 6.02091)
(7.8209 -1.74967e-18 6.69822)
(7.77518 -1.16098e-18 7.46803)
(7.6404 0 8.41072)
(7.90145 0 9.43285)
(6.53427 0 11.994)
(0.300599 -5.69078e-20 -0.146452)
(0.336518 -1.10656e-19 0.0376847)
(0.217638 0 0.0923418)
(0.0309872 4.73501e-19 0.114504)
(-0.260087 -8.09768e-19 0.139042)
(-0.654439 3.48107e-19 0.16148)
(-1.13325 0 0.177858)
(-1.67152 0 0.187217)
(-2.24531 0 0.190155)
(-2.83483 1.38293e-19 0.187562)
(-3.42396 3.32755e-20 0.180124)
(-3.9998 -5.84973e-20 0.168526)
(-4.55264 5.79509e-20 0.153512)
(-5.07371 0 0.135558)
(-5.5544 4.31731e-20 0.114826)
(-5.98611 -1.74463e-20 0.0913751)
(-6.36003 2.41404e-21 0.0652002)
(-6.66731 -1.20931e-20 0.0362737)
(-6.89845 2.72387e-20 0.00465732)
(-7.04304 1.32026e-20 -0.0297386)
(-7.09195 -3.55846e-21 -0.0677772)
(-7.03867 1.62484e-20 -0.111624)
(-6.86292 0 -0.164214)
(-6.54951 1.01065e-20 -0.2268)
(-6.08707 0 -0.30143)
(-5.45091 -1.30122e-21 -0.392425)
(-4.59078 1.13637e-20 -0.510452)
(-3.44271 0 -0.679137)
(-1.99964 -1.11417e-22 -0.925463)
(-0.155753 1.10263e-22 -1.22974)
(-0.0516697 9.71142e-19 -0.144564)
(-0.138956 -1.13967e-19 0.0779524)
(-0.381303 -1.62149e-18 0.193372)
(-0.70972 6.6503e-19 0.287088)
(-1.13335 2.67737e-19 0.369763)
(-1.6399 -5.0116e-19 0.43872)
(-2.21024 6.63625e-19 0.4921)
(-2.82241 0 0.530063)
(-3.45598 0 0.553828)
(-4.09416 2.71672e-19 0.564818)
(-4.72359 5.54225e-19 0.564283)
(-5.3339 -2.49471e-19 0.553314)
(-5.91685 0 0.532904)
(-6.464 0 0.503537)
(-6.96667 -4.23629e-20 0.4652)
(-7.41698 0 0.417979)
(-7.80671 -2.87447e-20 0.361839)
(-8.12798 1.06052e-19 0.296684)
(-8.37273 -2.17453e-20 0.222595)
(-8.53162 -4.47631e-20 0.139696)
(-8.59616 -1.48729e-20 0.0472476)
(-8.55952 -5.83603e-21 -0.0574975)
(-8.41606 0 -0.174831)
(-8.15725 -7.11999e-22 -0.303545)
(-7.7782 0 -0.44452)
(-7.26957 0 -0.601207)
(-6.61254 -9.82525e-21 -0.784317)
(-5.79741 1.09406e-21 -1.01577)
(-4.90281 1.34366e-20 -1.30075)
(-4.24315 3.77449e-22 -1.5442)
(-0.148954 2.06757e-18 0.0239553)
(-0.389736 -3.27777e-18 0.286871)
(-0.741143 1.61469e-18 0.453331)
(-1.17004 -3.76038e-19 0.591558)
(-1.67656 -1.77459e-19 0.708918)
(-2.24554 -1.67447e-18 0.80382)
(-2.85915 4.52221e-20 0.874757)
(-3.49905 6.61117e-19 0.922089)
(-4.14929 3.13941e-20 0.947362)
(-4.79694 -3.3954e-20 0.952431)
(-5.43161 -1.02751e-19 0.939056)
(-6.04529 -7.15876e-19 0.90871)
(-6.63152 2.09941e-20 0.862497)
(-7.1832 2.12346e-20 0.800995)
(-7.69288 2.57647e-19 0.724502)
(-8.15358 -6.62209e-20 0.633472)
(-8.5577 9.51062e-21 0.528335)
(-8.89763 4.03769e-21 0.409565)
(-9.16598 0 0.277892)
(-9.35484 3.46145e-20 0.134465)
(-9.45717 1.27866e-20 -0.0197909)
(-9.46639 -3.44123e-20 -0.185102)
(-9.38088 1.82827e-20 -0.363833)
(-9.19615 -2.5163e-20 -0.556627)
(-8.91233 1.48752e-20 -0.761811)
(-8.52895 -4.00377e-21 -0.979065)
(-8.04356 1.96671e-21 -1.21204)
(-7.46502 1.96617e-21 -1.46951)
(-6.86966 -2.59158e-20 -1.7465)
(-6.48527 -6.24752e-22 -1.97644)
(-0.134463 1.61358e-18 0.304857)
(-0.480827 -1.73366e-18 0.598885)
(-0.922385 1.9905e-18 0.794661)
(-1.42519 -2.61697e-18 0.958777)
(-1.98628 1.43121e-18 1.09561)
(-2.59096 -1.33358e-18 1.20421)
(-3.22394 1.39997e-18 1.28388)
(-3.87115 -1.20846e-18 1.33551)
(-4.52086 1.20273e-18 1.36083)
(-5.1642 -6.77355e-20 1.36192)
(-5.7939 0 1.34077)
(-6.40364 -1.1501e-19 1.29889)
(-6.98816 0 1.23729)
(-7.5415 1.73747e-19 1.15634)
(-8.05714 -3.31928e-19 1.05623)
(-8.5284 -1.27867e-19 0.937128)
(-8.94799 7.26177e-20 0.799135)
(-9.30821 9.96464e-20 0.642389)
(-9.60147 3.79795e-20 0.467276)
(-9.8204 -3.02955e-20 0.274613)
(-9.95905 0 0.0653413)
(-10.0118 5.00868e-20 -0.159948)
(-9.97776 -1.20739e-20 -0.400605)
(-9.85801 2.89459e-20 -0.654788)
(-9.65515 -1.474e-20 -0.919455)
(-9.37283 -1.44268e-20 -1.19158)
(-9.01632 3.17835e-21 -1.46926)
(-8.60052 1.43559e-21 -1.75226)
(-8.18842 2.8415e-20 -2.03161)
(-7.93903 0 -2.25324)
(-0.0581584 0 0.659836)
(-0.464016 0 0.980745)
(-0.972097 -3.55494e-18 1.19103)
(-1.52542 3.0101e-18 1.3665)
(-2.1198 -2.80529e-18 1.51062)
(-2.74121 2.75578e-18 1.62306)
(-3.37756 -8.14651e-20 1.70393)
(-4.01926 1.20675e-18 1.75439)
(-4.65842 -1.05352e-18 1.77583)
(-5.28945 1.36853e-19 1.76991)
(-5.90789 1.2446e-19 1.73834)
(-6.50882 -3.1983e-19 1.68218)
(-7.08753 6.3091e-19 1.60193)
(-7.63846 0 1.49757)
(-8.15566 7.89832e-20 1.36904)
(-8.63259 0 1.21646)
(-9.06225 0 1.04006)
(-9.43763 -5.4217e-21 0.840437)
(-9.75158 -7.85103e-20 0.61877)
(-9.99689 8.44207e-20 0.376903)
(-10.1682 1.00332e-20 0.117154)
(-10.2614 -2.88715e-20 -0.157934)
(-10.2739 -1.53019e-20 -0.445988)
(-10.2116 6.06e-21 -0.74618)
(-10.078 0 -1.05403)
(-9.87948 2.64904e-20 -1.3634)
(-9.62498 2.31964e-21 -1.66784)
(-9.33117 -1.61531e-20 -1.96183)
(-9.04811 -6.45228e-21 -2.23498)
(-8.88397 0 -2.44023)
(0.0688479 0 1.06637)
(-0.364057 3.36513e-18 1.40877)
(-0.919507 -3.85384e-20 1.62397)
(-1.50262 -2.63949e-18 1.80036)
(-2.11154 0 1.94282)
(-2.73328 1.71297e-19 2.05228)
(-3.35948 0 2.12965)
(-3.98464 0 2.17584)
(-4.60476 -1.46349e-19 2.19189)
(-5.21681 0 2.17883)
(-5.818 -1.24858e-19 2.13771)
(-6.40471 -6.47973e-19 2.06903)
(-6.97274 5.95732e-19 1.97282)
(-7.51703 -1.99521e-19 1.84876)
(-8.03208 2.8724e-19 1.69653)
(-8.51173 -1.37701e-19 1.5161)
(-8.94915 0 1.30761)
(-9.33755 1.18954e-19 1.07159)
(-9.67012 -8.0253e-21 0.809244)
(-9.93984 -3.63657e-20 0.522647)
(-10.1413 0 0.214993)
(-10.2711 -6.02641e-21 -0.109356)
(-10.3263 1.03892e-20 -0.445379)
(-10.3144 -2.33765e-20 -0.789742)
(-10.2407 0 -1.13732)
(-10.1125 -5.95238e-21 -1.47918)
(-9.94033 -1.44861e-21 -1.80542)
(-9.74151 2.32556e-20 -2.10719)
(-9.55501 -1.94402e-20 -2.37333)
(-9.45093 2.96081e-21 -2.56271)
(0.241239 0 1.50728)
(-0.19507 0 1.86477)
(-0.782942 0 2.07731)
(-1.37687 -1.71163e-21 2.24668)
(-1.98267 0 2.38142)
(-2.58934 0 2.48391)
(-3.19297 0 2.5553)
(-3.79174 0 2.59576)
(-4.38498 1.44044e-19 2.60585)
(-4.97175 0 2.5859)
(-5.55033 0 2.53597)
(-6.11798 -4.12476e-19 2.45588)
(-6.67111 -1.47304e-19 2.34506)
(-7.20516 1.88856e-19 2.20279)
(-7.71496 -1.39929e-19 2.0284)
(-8.19461 2.4161e-19 1.82156)
(-8.6375 -2.01953e-20 1.58235)
(-9.03664 -1.63205e-19 1.31141)
(-9.38527 4.20778e-20 1.01024)
(-9.67687 -3.98484e-20 0.681597)
(-9.90615 1.81109e-20 0.329831)
(-10.0702 0 -0.0388886)
(-10.1673 -7.47383e-21 -0.417296)
(-10.201 -1.48145e-21 -0.800165)
(-10.1803 1.45558e-21 -1.18171)
(-10.1122 -7.87686e-21 -1.55055)
(-10.0082 0 -1.8941)
(-9.88573 -6.24648e-21 -2.20112)
(-9.77475 7.23529e-21 -2.45995)
(-9.71598 -3.1924e-21 -2.63534)
(0.453203 0 1.97121)
(0.0318272 -4.08995e-18 2.33445)
(-0.575199 3.14768e-18 2.53729)
(-1.16114 -3.76698e-19 2.69369)
(-1.74669 0 2.81691)
(-2.32362 0 2.91033)
(-2.89293 0 2.97467)
(-3.45635 0 3.00936)
(-4.01556 -1.45973e-19 3.01395)
(-4.57104 -7.59823e-19 2.98792)
(-5.12193 -1.00616e-18 2.93044)
(-5.66615 2.18405e-19 2.84056)
(-6.20059 6.25938e-21 2.71711)
(-6.72111 1.60044e-19 2.55891)
(-7.22275 -2.75829e-19 2.36495)
(-7.69979 0 2.13454)
(-8.14585 8.06178e-20 1.86767)
(-8.55412 -1.4823e-19 1.56508)
(-8.91789 1.35004e-20 1.22863)
(-9.23095 0 0.861628)
(-9.48791 1.63159e-20 0.46933)
(-9.68547 0 0.0593091)
(-9.82264 7.50238e-21 -0.359259)
(-9.89753 -6.81416e-22 -0.778005)
(-9.92401 -7.35309e-21 -1.19009)
(-9.90809 0 -1.58268)
(-9.86146 0 -1.94104)
(-9.80179 -2.10045e-21 -2.25208)
(-9.75194 -5.10366e-23 -2.50387)
(-9.72919 0 -2.66711)
(0.697904 -3.64598e-18 2.44841)
(0.306501 8.14068e-19 2.80515)
(-0.306357 -3.08921e-18 2.991)
(-0.864276 3.05801e-18 3.12986)
(-1.41241 -2.87911e-18 3.23999)
(-1.94559 5.60761e-18 3.32411)
(-2.46981 -1.2558e-18 3.38193)
(-2.98969 -2.1826e-18 3.41189)
(-3.50838 1.47734e-18 3.41239)
(-4.02716 -5.27611e-19 3.38186)
(-4.54574 0 3.31862)
(-5.06244 2.0783e-19 3.221)
(-5.57452 5.3191e-19 3.08724)
(-6.07818 -4.99096e-19 2.91567)
(-6.56867 2.54665e-19 2.7049)
(-7.04054 -2.12987e-19 2.45396)
(-7.48772 8.77218e-20 2.16263)
(-7.90383 -8.50256e-20 1.83178)
(-8.28247 -4.8385e-21 1.46361)
(-8.61731 -2.04675e-20 1.06193)
(-8.90234 -9.63283e-21 0.632583)
(-9.13334 -1.33569e-21 0.183888)
(-9.30948 -9.9162e-21 -0.273479)
(-9.4219 -2.92602e-21 -0.725994)
(-9.49097 2.76039e-20 -1.16574)
(-9.52137 0 -1.57985)
(-9.52422 0 -1.95164)
(-9.51752 -1.89251e-20 -2.26622)
(-9.51883 0 -2.51142)
(-9.52616 0 -2.66385)
(0.967614 -4.49518e-19 2.92794)
(0.619511 -3.99654e-19 3.26409)
(0.0159497 -2.70785e-18 3.42594)
(-0.492116 6.11508e-18 3.54426)
(-0.985751 -9.36679e-20 3.64174)
(-1.46215 -2.87135e-19 3.71814)
(-1.93183 -1.93701e-18 3.77147)
(-2.40105 -1.59991e-18 3.79876)
(-2.87363 -1.40084e-18 3.7972)
(-3.35103 1.35124e-18 3.76422)
(-3.83313 4.45232e-19 3.69737)
(-4.31847 -6.4557e-19 3.59435)
(-4.80445 0 3.4529)
(-5.28757 0 3.27086)
(-5.76342 1.20456e-19 3.04647)
(-6.22701 9.46025e-20 2.7785)
(-6.67281 7.88618e-20 2.4666)
(-7.09506 0 2.11164)
(-7.48771 -2.80331e-20 1.71597)
(-7.84419 3.14404e-20 1.28354)
(-8.15742 -5.01346e-21 0.820172)
(-8.42126 -7.9949e-21 0.334569)
(-8.63238 -3.48641e-21 -0.160031)
(-8.78546 0 -0.645216)
(-8.89394 -1.6777e-20 -1.11058)
(-8.96717 -2.25486e-21 -1.54495)
(-9.01434 -3.6632e-20 -1.92967)
(-9.0539 1.90115e-20 -2.24797)
(-9.09974 -3.49081e-22 -2.48713)
(-9.13365 8.26571e-21 -2.62959)
(1.25381 4.48967e-19 3.39532)
(0.962406 4.02005e-19 3.69681)
(0.386278 -3.5287e-18 3.82931)
(-0.0480561 3.24831e-18 3.92636)
(-0.47119 0 4.01361)
(-0.879389 1.58859e-18 4.08543)
(-1.28674 -7.0666e-19 4.13741)
(-1.69969 0 4.16487)
(-2.12174 -2.84169e-19 4.16381)
(-2.55398 0 4.13078)
(-2.99595 -4.37327e-19 4.0628)
(-3.44618 2.28852e-19 3.95707)
(-3.90215 0 3.81083)
(-4.3606 0 3.62154)
(-4.81755 -2.26487e-19 3.38712)
(-5.26865 -7.12775e-20 3.10617)
(-5.7092 7.81334e-20 2.7782)
(-6.13419 3.38317e-20 2.4039)
(-6.53798 1.36973e-20 1.9854)
(-6.91369 -1.09472e-20 1.52628)
(-7.2529 -1.97352e-20 1.03207)
(-7.54734 6.7012e-21 0.512263)
(-7.79304 2.11317e-20 -0.0168932)
(-7.99361 0 -0.534481)
(-8.14049 6.05943e-20 -1.02523)
(-8.25531 7.06475e-21 -1.47935)
(-8.34453 3.91019e-20 -1.87724)
(-8.42673 9.10898e-22 -2.20014)
(-8.51351 -8.98047e-22 -2.43408)
(-8.57259 -7.91057e-21 -2.56696)
(1.54742 3.54326e-18 3.83106)
(1.32908 0 4.08613)
(0.800252 0 4.18615)
(0.465977 -3.24267e-18 4.26444)
(0.12704 -2.81098e-19 4.34649)
(-0.203996 4.39458e-18 4.41848)
(-0.543479 -3.06059e-18 4.47322)
(-0.896302 7.72276e-20 4.50445)
(-1.26477 2.57086e-18 4.50702)
(-1.64891 -1.56098e-18 4.47682)
(-2.04761 -4.81321e-20 4.41052)
(-2.45919 -2.18923e-19 4.30503)
(-2.88121 -3.10152e-19 4.15708)
(-3.31056 3.0372e-19 3.96388)
(-3.74368 -1.07196e-19 3.72317)
(-4.17693 7.17139e-20 3.43356)
(-4.60665 -2.33681e-20 3.09441)
(-5.02874 -4.04103e-20 2.706)
(-5.43827 8.37345e-21 2.26989)
(-5.82862 -2.72859e-21 1.7889)
(-6.1911 1.306e-20 1.26827)
(-6.51677 0 0.718454)
(-6.80136 9.38818e-21 0.157607)
(-7.04892 4.96292e-22 -0.392356)
(-7.23369 1.55374e-20 -0.909492)
(-7.39033 -8.51285e-20 -1.38287)
(-7.52244 6.33048e-20 -1.79454)
(-7.6473 0 -2.12382)
(-7.77486 0 -2.35398)
(-7.86 0 -2.47728)
(1.83643 3.53998e-18 4.2097)
(1.71878 -6.56877e-18 4.41236)
(1.25176 3.36414e-18 4.4783)
(1.0483 0 4.54499)
(0.802987 3.93409e-19 4.63093)
(0.555186 -1.07327e-18 4.7096)
(0.286705 2.7345e-18 4.77246)
(-0.00378817 -8.03278e-20 4.8119)
(-0.316841 -2.01134e-18 4.82165)
(-0.6508 2.79831e-19 4.79727)
(-1.00355 0 4.7358)
(-1.37334 -1.90987e-19 4.63378)
(-1.75775 -1.60445e-19 4.48726)
(-2.15367 1.02203e-20 4.29344)
(-2.55778 2.26111e-19 4.05001)
(-2.96718 7.35858e-20 3.75596)
(-3.37946 -3.93676e-20 3.41055)
(-3.79171 7.46458e-21 3.01347)
(-4.20002 0 2.56552)
(-4.59868 3.31188e-20 2.0687)
(-4.97954 0 1.52818)
(-5.33359 -8.49881e-20 0.954646)
(-5.65651 -1.16822e-20 0.365133)
(-5.95195 1.15712e-20 -0.219675)
(-6.17232 -8.52466e-20 -0.763172)
(-6.37152 7.6888e-20 -1.25356)
(-6.5504 -6.77788e-20 -1.67947)
(-6.72208 3.78395e-21 -2.01781)
(-6.89454 3.6629e-20 -2.24694)
(-7.00978 -1.42055e-20 -2.36048)
(2.09514 0 4.51555)
(2.09946 -2.66202e-20 4.64707)
(1.75531 0 4.68815)
(1.68569 0 4.75333)
(1.54653 0 4.85189)
(1.38521 -3.66913e-19 4.94599)
(1.19157 3.38451e-19 5.02496)
(0.966391 0 5.07977)
(0.711986 5.66482e-19 5.10339)
(0.428891 2.55339e-19 5.09026)
(0.119599 2.19808e-19 5.03593)
(-0.206428 1.932e-19 4.93927)
(-0.550201 3.19136e-19 4.79634)
(-0.908826 -1.31893e-19 4.60424)
(-1.27902 0 4.36169)
(-1.65831 -1.32462e-19 4.06787)
(-2.04602 -1.64666e-20 3.72134)
(-2.44081 4.3995e-20 3.32125)
(-2.84014 9.42674e-21 2.86774)
(-3.23944 -2.77657e-20 2.36178)
(-3.63073 5.83155e-20 1.80864)
(-4.00436 1.06441e-19 1.21767)
(-4.35393 -1.38224e-20 0.603199)
(-4.67193 1.32981e-19 -0.0106404)
(-4.95434 -1.1398e-19 -0.582012)
(-5.19472 -1.01769e-19 -1.08771)
(-5.42577 -7.96349e-20 -1.52708)
(-5.65192 -4.34569e-21 -1.87735)
(-5.87845 -3.69745e-20 -2.11028)
(-6.03292 -1.8002e-21 -2.21454)
(2.33584 -6.35046e-18 4.56578)
(2.41657 0 4.70345)
(2.30755 0 4.80041)
(2.36336 -1.18522e-18 4.88028)
(2.33704 4.39208e-19 4.9974)
(2.26212 1.46557e-18 5.11765)
(2.14292 3.11191e-19 5.22208)
(1.98323 -3.45752e-19 5.29918)
(1.78789 -8.50041e-19 5.3418)
(1.56136 -2.44329e-19 5.34481)
(1.30543 -2.17701e-19 5.30364)
(1.02752 0 5.2169)
(0.729004 -1.57198e-19 5.08231)
(0.413505 1.22584e-19 4.89766)
(0.0776301 0 4.65673)
(-0.269824 5.27258e-20 4.3623)
(-0.626524 -1.00934e-20 4.01671)
(-0.995016 -1.68337e-20 3.61692)
(-1.37507 -1.0852e-20 3.1619)
(-1.76392 -1.80116e-20 2.65255)
(-2.15482 5.89869e-21 2.09196)
(-2.53803 2.45423e-20 1.48792)
(-2.90263 -1.44998e-19 0.858839)
(-3.24116 -1.04862e-19 0.231229)
(-3.58253 -1.0969e-20 -0.363841)
(-3.86012 9.6995e-20 -0.883494)
(-4.14387 9.13219e-20 -1.33011)
(-4.43206 -6.91759e-20 -1.69285)
(-4.72589 4.6496e-22 -1.93678)
(-4.9376 1.55631e-20 -2.03491)
(9.98999 0 0.114562)
(9.9793 0 0.222179)
(9.95985 -9.03349e-20 0.329116)
(9.92922 -2.8103e-19 0.438682)
(9.8902 -5.7964e-19 0.552495)
(9.84448 3.99798e-19 0.671905)
(9.7922 -2.06162e-19 0.798255)
(9.73338 -2.1425e-19 0.932866)
(9.66831 4.38666e-19 1.07701)
(9.59717 0 1.23192)
(9.52058 0 1.39893)
(9.43919 2.40274e-19 1.57942)
(9.35306 2.46822e-19 1.7749)
(9.26263 0 1.98694)
(9.16874 1.0347e-18 2.21727)
(9.07231 -7.92004e-19 2.46786)
(8.97402 1.07805e-18 2.74087)
(8.87484 -1.09546e-18 3.03871)
(8.77646 2.22742e-18 3.36432)
(8.68033 -2.24699e-18 3.72102)
(8.58814 0 4.11276)
(8.5028 1.70115e-18 4.54464)
(8.42807 -2.2748e-18 5.02271)
(8.36851 0 5.55452)
(8.33162 0 6.14913)
(8.32261 3.14989e-20 6.82025)
(8.38632 0 7.57975)
(8.45293 -9.35876e-19 8.48368)
(9.23473 2.87297e-18 9.45934)
(10.0618 0 12.125)
(9.9904 0 0.118989)
(9.98095 -3.38094e-19 0.23083)
(9.96378 0 0.341946)
(9.93634 3.62357e-19 0.455718)
(9.90135 3.7607e-19 0.573848)
(9.86055 3.87048e-19 0.697722)
(9.81401 0 0.828687)
(9.76175 -2.06897e-19 0.968063)
(9.70422 -4.25996e-19 1.11707)
(9.64177 2.18868e-19 1.27689)
(9.57509 0 1.44884)
(9.50472 0 1.63444)
(9.43092 -2.36234e-19 1.83517)
(9.35431 0 2.05244)
(9.27571 9.94137e-19 2.28784)
(9.19621 -1.2674e-18 2.5433)
(9.11689 0 2.82095)
(9.03909 0 3.12305)
(8.9647 3.47407e-21 3.45226)
(8.89553 2.69803e-19 3.8116)
(8.83389 5.34165e-19 4.20457)
(8.78351 5.43544e-19 4.63539)
(8.74924 0 5.10898)
(8.73726 0 5.63089)
(8.75776 0 6.20692)
(8.82126 1.02993e-18 6.84362)
(8.97504 0 7.54177)
(9.16469 -1.40243e-18 8.30804)
(9.726 4.50764e-19 9.05894)
(10.3692 -6.76511e-21 10.0354)
(9.99081 3.98509e-20 0.123059)
(9.9827 6.16829e-19 0.238799)
(9.96794 0 0.353717)
(9.94382 3.53071e-19 0.471304)
(9.91301 0 0.593342)
(9.8773 -3.76942e-19 0.721254)
(9.83666 0 0.856381)
(9.79124 0 0.999983)
(9.74168 -2.05266e-19 1.1532)
(9.68829 2.1227e-19 1.31718)
(9.63167 6.53985e-19 1.49332)
(9.5725 -1.78435e-18 1.68313)
(9.5113 9.14837e-19 1.888)
(9.44882 0 2.10924)
(9.38595 0 2.34833)
(9.32377 0 2.60702)
(9.26363 -9.88519e-19 2.88725)
(9.20735 3.50498e-18 3.19111)
(9.15687 -1.77453e-18 3.52089)
(9.1143 2.54409e-18 3.87911)
(9.08268 -2.57222e-18 4.26858)
(9.06616 -1.52889e-18 4.6923)
(9.06994 2.04722e-18 5.15339)
(9.10074 9.96106e-19 5.65464)
(9.16845 0 6.1974)
(9.28163 -1.90517e-18 6.77996)
(9.46988 2.66206e-20 7.39148)
(9.68373 0 8.00303)
(10.0057 -8.78389e-19 8.57347)
(10.5302 8.65553e-19 9.23625)
(9.99114 6.56916e-19 0.126717)
(9.98462 -6.78977e-19 0.245967)
(9.97242 8.27353e-20 0.364288)
(9.9517 -4.26883e-19 0.485274)
(9.92516 1.76865e-19 0.610767)
(9.89459 9.1125e-19 0.742221)
(9.86002 -3.75681e-19 0.880951)
(9.82179 0 1.02812)
(9.78049 1.99712e-19 1.18482)
(9.7363 0 1.35223)
(9.68991 4.19921e-19 1.53173)
(9.64218 0 1.72476)
(9.59377 1.10245e-18 1.93259)
(9.54548 -1.12334e-18 2.15642)
(9.49838 -1.14597e-18 2.39766)
(9.4537 4.10624e-22 2.65783)
(9.41282 1.3152e-21 2.93854)
(9.37781 4.77859e-19 3.2416)