/*--------------------------------*- C++ -*----------------------------------*\
| =========                 |                                                 |
| \\      /  F ield         | OpenFOAM: The Open Source CFD Toolbox           |
|  \\    /   O peration     | Version:  dev                                   |
|   \\  /    A nd           | Web:      www.OpenFOAM.org                      |
|    \\/     M anipulation  |                                                 |
\*---------------------------------------------------------------------------*/
FoamFile
{
    version     2.0;
    format      ascii;
    class       volVectorField;
    location    "4.46";
    object      cellDisplacement;
}
// * * * * * * * * * * * * * * * * * * * * * * * * * * * * * * * * * * * * * //

dimensions      [0 1 0 0 0 0 0];

internalField   nonuniform List<vector> 
465
(
(0.116781 0 -0.00536936)
(0.117809 0 -0.00571256)
(0.121057 0 -0.00611515)
(0.124169 0 -0.00654898)
(0.118429 0 -0.00600266)
(0.12143 0 -0.006402)
(0.124259 0 -0.00682622)
(0.12687 0 -0.00727524)
(0.129213 0 -0.00774856)
(0.118697 0 -0.00624038)
(0.121462 0 -0.00663106)
(0.124035 0 -0.00704075)
(0.126381 0 -0.00746845)
(0.128461 0 -0.00791271)
(0.130243 0 -0.00837158)
(0.131701 0 -0.00884214)
(0.118663 0 -0.00642827)
(0.121212 0 -0.00680656)
(0.123559 0 -0.00719861)
(0.125674 0 -0.00760271)
(0.127534 0 -0.00801679)
(0.129114 0 -0.00843812)
(0.1304 0 -0.00886306)
(0.131383 0 -0.0092865)
(0.132062 0 -0.00970129)
(0.118369 0 -0.00656836)
(0.120727 0 -0.00693224)
(0.122874 0 -0.0073049)
(0.124793 0 -0.00768446)
(0.126466 0 -0.00806854)
(0.127879 0 -0.00845416)
(0.129025 0 -0.0088376)
(0.1299 0 -0.00921415)
(0.130507 0 -0.00957799)
(0.117859 0 -0.00666395)
(0.120044 0 -0.00701166)
(0.122017 0 -0.00736399)
(0.123766 0 -0.00771893)
(0.125281 0 -0.00807404)
(0.126556 0 -0.00842641)
(0.127585 0 -0.00877257)
(0.128371 0 -0.00910854)
(0.128919 0 -0.00942972)
(0.117162 0 -0.00671721)
(0.119193 0 -0.00704776)
(0.121013 0 -0.00737946)
(0.122617 0 -0.0077103)
(0.123998 0 -0.00803795)
(0.125155 0 -0.00835972)
(0.126087 0 -0.00867259)
(0.126799 0 -0.0089733)
(0.127296 0 -0.00925831)
(0.116304 0 -0.00672999)
(0.118198 0 -0.00704292)
(0.119885 0 -0.00735416)
(0.121363 0 -0.0076618)
(0.12263 0 -0.0079637)
(0.123687 0 -0.0082575)
(0.124537 0 -0.00854065)
(0.125184 0 -0.00881052)
(0.125637 0 -0.00906436)
(0.115306 0 -0.00670384)
(0.117079 0 -0.00699902)
(0.11865 0 -0.00729026)
(0.120019 0 -0.00757579)
(0.121188 0 -0.00785372)
(0.122159 0 -0.00812203)
(0.122938 0 -0.00837862)
(0.12353 0 -0.00862142)
(0.123944 0 -0.00884834)
(0.114189 0 -0.00663985)
(0.115855 0 -0.00691743)
(0.117324 0 -0.00718929)
(0.118598 0 -0.00745388)
(0.119681 0 -0.00770956)
(0.120579 0 -0.00795464)
(0.121296 0 -0.00818744)
(0.12184 0 -0.00840633)
(0.122219 0 -0.00860976)
(0.111202 0 -0.00627296)
(0.11297 0 -0.00653878)
(0.114541 0 -0.00679897)
(0.11592 0 -0.00705217)
(0.117111 0 -0.00729699)
(0.11812 0 -0.00753203)
(0.118954 0 -0.00775589)
(0.119617 0 -0.00796725)
(0.120119 0 -0.00816487)
(0.120467 0 -0.0083476)
(0.109985 0 -0.00615068)
(0.111666 0 -0.00640069)
(0.113153 0 -0.00664394)
(0.114452 0 -0.00687924)
(0.115571 0 -0.00710541)
(0.116516 0 -0.00732126)
(0.117293 0 -0.00752568)
(0.117909 0 -0.00771762)
(0.118374 0 -0.00789616)
(0.118694 0 -0.00806045)
(0.108689 0 -0.00599107)
(0.110292 0 -0.00622541)
(0.111705 0 -0.00645216)
(0.112935 0 -0.0066703)
(0.11399 0 -0.00687883)
(0.114878 0 -0.0070768)
(0.115605 0 -0.0072633)
(0.11618 0 -0.00743754)
(0.116611 0 -0.00759882)
(0.116905 0 -0.00774656)
(0.107333 0 -0.00579354)
(0.108867 0 -0.00601233)
(0.110214 0 -0.00622298)
(0.111382 0 -0.00642463)
(0.112381 0 -0.00661643)
(0.113219 0 -0.00679763)
(0.113902 0 -0.00696752)
(0.114441 0 -0.00712549)
(0.114841 0 -0.00727105)
(0.115112 0 -0.00740379)
(0.105935 0 -0.00555709)
(0.107407 0 -0.00576041)
(0.108696 0 -0.00595528)
(0.10981 0 -0.00614098)
(0.110759 0 -0.00631682)
(0.111552 0 -0.00648219)
(0.112197 0 -0.00663655)
(0.112703 0 -0.00677946)
(0.113077 0 -0.00691057)
(0.113326 0 -0.0070296)
(0.104515 0 -0.00528024)
(0.105932 0 -0.00546809)
(0.107169 0 -0.00564741)
(0.108235 0 -0.00581758)
(0.109141 0 -0.00597806)
(0.109895 0 -0.00612836)
(0.110506 0 -0.00626808)
(0.110982 0 -0.00639689)
(0.111331 0 -0.00651458)
(0.111562 0 -0.00662097)
(0.103094 0 -0.00496103)
(0.104463 0 -0.0051333)
(0.105654 0 -0.00529715)
(0.106678 0 -0.00545206)
(0.107545 0 -0.00559761)
(0.108264 0 -0.0057334)
(0.108845 0 -0.00585915)
(0.109295 0 -0.00597464)
(0.109622 0 -0.00607973)
(0.109835 0 -0.00617434)
(0.101696 0 -0.00459696)
(0.103022 0 -0.00475338)
(0.104173 0 -0.00490166)
(0.10516 0 -0.00504141)
(0.105993 0 -0.00517226)
(0.106682 0 -0.00529392)
(0.107235 0 -0.00540618)
(0.107662 0 -0.00550891)
(0.10797 0 -0.00560202)
(0.108167 0 -0.00568551)
(0.100345 0 -0.00418489)
(0.101634 0 -0.004325)
(0.10275 0 -0.00445745)
(0.103705 0 -0.0045819)
(0.104508 0 -0.00469808)
(0.10517 0 -0.00480576)
(0.1057 0 -0.00490481)
(0.106107 0 -0.00499512)
(0.106397 0 -0.00507668)
(0.10658 0 -0.00514953)
(0.099072 0 -0.00372102)
(0.100328 0 -0.00384412)
(0.101414 0 -0.00396021)
(0.102341 0 -0.004069)
(0.103119 0 -0.0041703)
(0.103758 0 -0.00426392)
(0.104268 0 -0.00434977)
(0.104656 0 -0.00442781)
(0.104932 0 -0.00449804)
(0.105101 0 -0.00456053)
(0.097907 0 -0.00320075)
(0.0991359 0 -0.00330584)
(0.100196 0 -0.00340475)
(0.101099 0 -0.00349724)
(0.101856 0 -0.00358315)
(0.102476 0 -0.00366236)
(0.102968 0 -0.0037348)
(0.103341 0 -0.00380046)
(0.103604 0 -0.00385935)
(0.103762 0 -0.00391155)
(0.0968858 0 -0.00261858)
(0.0980924 0 -0.0027043)
(0.0991318 0 -0.00278485)
(0.100016 0 -0.00286003)
(0.100755 0 -0.00292974)
(0.101359 0 -0.00299386)
(0.101837 0 -0.00305237)
(0.102197 0 -0.00310525)
(0.102449 0 -0.00315255)
(0.102598 0 -0.00319433)
(0.096048 0 -0.00196797)
(0.0972374 0 -0.0020325)
(0.0982608 0 -0.00209306)
(0.0991297 0 -0.00214952)
(0.099855 0 -0.00220178)
(0.100447 0 -0.00224976)
(0.100914 0 -0.00229346)
(0.101265 0 -0.00233286)
(0.101508 0 -0.002368)
(0.10165 0 -0.00239894)
(0.0954381 0 -0.00124119)
(0.0966157 0 -0.00128214)
(0.0976279 0 -0.00132054)
(0.0984866 0 -0.0013563)
(0.0992024 0 -0.00138937)
(0.0997855 0 -0.00141969)
(0.100245 0 -0.00144725)
(0.100589 0 -0.00147205)
(0.100826 0 -0.00149412)
(0.100963 0 -0.00151349)
(0.0951058 0 -0.000429172)
(0.0962773 0 -0.000443431)
(0.0972838 0 -0.000456796)
(0.0981371 0 -0.000469237)
(0.098848 0 -0.000480732)
(0.0994266 0 -0.000491264)
(0.0998819 0 -0.000500826)
(0.100222 0 -0.000509421)
(0.100456 0 -0.000517056)
(0.10059 0 -0.000523744)
(0.132352 0 -0.0100007)
(0.130772 0 -0.00983787)
(0.130888 0 -0.0100047)
(0.130946 0 -0.0101673)
(0.129162 0 -0.00965726)
(0.129269 0 -0.00980296)
(0.129326 0 -0.00994466)
(0.127519 0 -0.00945895)
(0.127619 0 -0.00958723)
(0.127673 0 -0.00971171)
(0.125841 0 -0.00924183)
(0.125933 0 -0.00935546)
(0.125984 0 -0.00946598)
(0.124129 0 -0.00900618)
(0.124213 0 -0.00910704)
(0.12426 0 -0.00920511)
(0.122388 0 -0.00875061)
(0.122464 0 -0.00884045)
(0.122506 0 -0.00892769)
(0.120621 0 -0.00847354)
(0.120689 0 -0.00855373)
(0.120726 0 -0.00863148)
(0.118833 0 -0.00817319)
(0.118894 0 -0.00824485)
(0.118926 0 -0.00831422)
(0.117031 0 -0.0078475)
(0.117085 0 -0.00791154)
(0.117112 0 -0.00797345)
(0.115225 0 -0.0074941)
(0.115273 0 -0.00755129)
(0.115294 0 -0.0076065)
(0.113427 0 -0.00711024)
(0.113468 0 -0.00716121)
(0.113484 0 -0.00721035)
(0.111651 0 -0.00669273)
(0.111686 0 -0.00673801)
(0.111697 0 -0.00678161)
(0.109914 0 -0.00623787)
(0.109943 0 -0.00627789)
(0.10995 0 -0.00631637)
(0.108237 0 -0.00574133)
(0.10826 0 -0.00577642)
(0.108262 0 -0.00581012)
(0.106641 0 -0.00519801)
(0.106659 0 -0.00522844)
(0.106657 0 -0.00525762)
(0.105155 0 -0.00460194)
(0.105169 0 -0.00462787)
(0.105162 0 -0.00465272)
(0.103809 0 -0.00394601)
(0.103819 0 -0.00396754)
(0.103809 0 -0.00398814)
(0.102639 0 -0.00322178)
(0.102646 0 -0.00323892)
(0.102633 0 -0.00325528)
(0.101686 0 -0.00241919)
(0.10169 0 -0.00243181)
(0.101675 0 -0.00244383)
(0.100996 0 -0.00152613)
(0.100998 0 -0.00153398)
(0.100981 0 -0.00154145)
(0.100622 0 -0.000528097)
(0.100622 0 -0.000530795)
(0.100605 0 -0.000533358)
(0.130946 0 -0.0104067)
(0.129334 0 -0.0101531)
(0.129131 0 -0.0104082)
(0.12871 0 -0.0106321)
(0.128065 0 -0.0108184)
(0.127684 0 -0.0098945)
(0.127508 0 -0.0101185)
(0.127132 0 -0.0103163)
(0.126551 0 -0.0104827)
(0.12576 0 -0.0106131)
(0.124759 0 -0.0107041)
(0.125997 0 -0.00962764)
(0.125839 0 -0.00982493)
(0.125499 0 -0.00999994)
(0.124967 0 -0.0101481)
(0.12424 0 -0.0102654)
(0.123313 0 -0.0103485)
(0.122182 0 -0.0103948)
(0.120844 0 -0.0104022)
(0.124273 0 -0.00934856)
(0.124129 0 -0.00952325)
(0.123815 0 -0.00967835)
(0.123324 0 -0.00981008)
(0.122648 0 -0.00991494)
(0.121781 0 -0.00998985)
(0.120718 0 -0.0100322)
(0.119454 0 -0.0100399)
(0.117983 0 -0.0100114)
(0.122517 0 -0.00905517)
(0.122382 0 -0.00921019)
(0.122088 0 -0.00934776)
(0.121628 0 -0.00946468)
(0.120993 0 -0.0095579)
(0.120176 0 -0.00962462)
(0.11917 0 -0.00966236)
(0.117969 0 -0.00966902)
(0.116564 0 -0.00964291)
(0.120733 0 -0.00874498)
(0.120603 0 -0.0088827)
(0.120324 0 -0.00900471)
(0.119888 0 -0.00910827)
(0.119286 0 -0.0091907)
(0.11851 0 -0.00924948)
(0.117552 0 -0.00928229)
(0.116404 0 -0.00928708)
(0.115056 0 -0.0092621)
(0.118928 0 -0.00841538)
(0.1188 0 -0.00853777)
(0.118532 0 -0.00864591)
(0.118114 0 -0.0087374)
(0.117538 0 -0.00880989)
(0.116796 0 -0.00886111)
(0.115877 0 -0.00888891)
(0.114774 0 -0.00889134)
(0.113476 0 -0.00886668)
(0.117109 0 -0.00806363)
(0.116981 0 -0.00817236)
(0.11672 0 -0.00826805)
(0.116316 0 -0.00834863)
(0.115761 0 -0.008412)
(0.115045 0 -0.00845611)
(0.11416 0 -0.00847902)
(0.113094 0 -0.00847888)
(0.111838 0 -0.00845403)
(0.115286 0 -0.00768682)
(0.115156 0 -0.00778328)
(0.114899 0 -0.00786776)
(0.114506 0 -0.00793844)
(0.113967 0 -0.00799347)
(0.113273 0 -0.008031)
(0.112415 0 -0.00804925)
(0.111381 0 -0.00804651)
(0.110161 0 -0.0080212)
(0.11347 0 -0.00728176)
(0.113338 0 -0.00736712)
(0.113083 0 -0.00744145)
(0.112698 0 -0.00750315)
(0.112171 0 -0.00755057)
(0.111495 0 -0.00758205)
(0.110658 0 -0.00759596)
(0.109651 0 -0.00759075)
(0.108462 0 -0.00756492)
(0.111678 0 -0.00684487)
(0.111542 0 -0.00692012)
(0.111288 0 -0.00698522)
(0.110907 0 -0.00703875)
(0.11039 0 -0.00707924)
(0.109727 0 -0.00710521)
(0.108909 0 -0.00711519)
(0.107924 0 -0.00710775)
(0.106761 0 -0.00708149)
(0.109924 0 -0.00637212)
(0.109784 0 -0.00643808)
(0.10953 0 -0.00649473)
(0.109152 0 -0.00654081)
(0.108642 0 -0.00657501)
(0.107991 0 -0.00659602)
(0.107187 0 -0.00660251)
(0.106221 0 -0.00659317)
(0.105079 0 -0.00656676)
(0.108231 0 -0.00585888)
(0.108086 0 -0.00591623)
(0.10783 0 -0.00596509)
(0.107455 0 -0.00600435)
(0.10695 0 -0.00603287)
(0.106307 0 -0.00604945)
(0.105515 0 -0.00605293)
(0.104564 0 -0.00604213)
(0.103441 0 -0.00601592)
(0.106621 0 -0.00529977)
(0.106472 0 -0.00534906)
(0.106214 0 -0.00539069)
(0.105839 0 -0.00542369)
(0.105338 0 -0.00544706)
(0.104701 0 -0.00545975)
(0.103919 0 -0.00546074)
(0.10298 0 -0.00544898)
(0.101872 0 -0.00542346)
(0.105121 0 -0.00468854)
(0.104968 0 -0.00473017)
(0.104708 0 -0.00476501)
(0.104332 0 -0.00479223)
(0.103834 0 -0.00481095)
(0.103202 0 -0.00482028)
(0.102427 0 -0.00481933)
(0.101498 0 -0.00480718)
(0.100403 0 -0.00478297)
(0.103764 0 -0.00401779)
(0.103606 0 -0.00405204)
(0.103343 0 -0.00408042)
(0.102968 0 -0.00410225)
(0.10247 0 -0.00411679)
(0.101842 0 -0.00412328)
(0.101072 0 -0.00412097)
(0.100151 0 -0.00410909)
(0.0990659 0 -0.00408691)
(0.102584 0 -0.00327878)
(0.102422 0 -0.00330577)
(0.102157 0 -0.00332792)
(0.101781 0 -0.00334467)
(0.101284 0 -0.00335544)
(0.100658 0 -0.0033596)
(0.0998926 0 -0.00335655)
(0.098977 0 -0.00334568)
(0.0978996 0 -0.00332639)
(0.101622 0 -0.00246108)
(0.101458 0 -0.00248076)
(0.101191 0 -0.00249676)
(0.100813 0 -0.00250866)
(0.100317 0 -0.00251601)
(0.0996921 0 -0.00251836)
(0.0989295 0 -0.00251524)
(0.0980181 0 -0.00250622)
(0.0969463 0 -0.00249084)
(0.100926 0 -0.00155215)
(0.100759 0 -0.0015643)
(0.100491 0 -0.00157409)
(0.100112 0 -0.00158125)
(0.0996156 0 -0.00158549)
(0.0989919 0 -0.00158653)
(0.098231 0 -0.00158409)
(0.0973222 0 -0.00157787)
(0.096254 0 -0.0015676)
(0.100549 0 -0.000537026)
(0.100381 0 -0.000541176)
(0.100111 0 -0.0005445)
(0.0997318 0 -0.000546901)
(0.0992351 0 -0.000548279)
(0.0986117 0 -0.000548535)
(0.0978515 0 -0.000547569)
(0.0969439 0 -0.000545285)
(0.0958774 0 -0.000541591)
)
;

boundaryField
{
    inlet
    {
        type            cellMotion;
        value           nonuniform 0();
    }
    outlet
    {
        type            cellMotion;
        value           nonuniform 0();
    }
    flap
    {
        type            cellMotion;
        value           nonuniform 0();
    }
    upperWall
    {
        type            slip;
    }
    lowerWall
    {
        type            slip;
    }
    frontAndBack
    {
        type            empty;
    }
    procBoundary1to0
    {
        type            processor;
        value           nonuniform List<vector> 
18
(
(0.113331 0 -0.00640649)
(0.112323 0 -0.00635821)
(0.112323 0 -0.00635821)
(0.109234 0 -0.00600322)
(0.108106 0 -0.00589539)
(0.106889 0 -0.00575048)
(0.105605 0 -0.00556783)
(0.104271 0 -0.00534644)
(0.102908 0 -0.00508487)
(0.101538 0 -0.00478126)
(0.100185 0 -0.00443324)
(0.0988748 0 -0.00403787)
(0.0976357 0 -0.00359157)
(0.0964997 0 -0.00309004)
(0.0955023 0 -0.00252816)
(0.094683 0 -0.00189984)
(0.0940858 0 -0.00119793)
(0.0937603 0 -0.000414115)
)
;
    }
    procBoundary1to2
    {
        type            processor;
        value           nonuniform List<vector> 
17
(
(0.116303 0 -0.0099464)
(0.114952 0 -0.00958329)
(0.113504 0 -0.00920649)
(0.111976 0 -0.00881402)
(0.110384 0 -0.00840358)
(0.108747 0 -0.0079725)
(0.107082 0 -0.00751775)
(0.105411 0 -0.00703583)
(0.103755 0 -0.00652274)
(0.102138 0 -0.00597388)
(0.100588 0 -0.00538387)
(0.0991335 0 -0.00474645)
(0.0978093 0 -0.00405425)
(0.0966529 0 -0.00329856)
(0.0957068 0 -0.00246902)
(0.0950193 0 -0.00155324)
(0.094645 0 -0.000536457)
)
;
    }
    procBoundary1to3
    {
        type            processor;
        value           nonuniform List<vector> 9((0.113272 0 -0.00501025) (0.114483 0 -0.00534191) (0.115301 0 -0.00562818) (0.11577 0 -0.00586859) (0.115931 0 -0.00606395) (0.11582 0 -0.00621464) (0.115476 0 -0.00632256) (0.11493 0 -0.00638967) (0.114207 0 -0.0064172));
    }
    procBoundary1to4
    {
        type            processor;
        value           nonuniform List<vector> 
30
(
(0.115288 0 -0.00497396)
(0.120271 0 -0.00576589)
(0.120271 0 -0.00576589)
(0.123684 0 -0.006202)
(0.127085 0 -0.0070153)
(0.127085 0 -0.0070153)
(0.12974 0 -0.00751467)
(0.131241 0 -0.00824557)
(0.131241 0 -0.00824557)
(0.132913 0 -0.00876515)
(0.132818 0 -0.00931969)
(0.132818 0 -0.00931969)
(0.133585 0 -0.00979612)
(0.133905 0 -0.0101452)
(0.132476 0 -0.0101937)
(0.132476 0 -0.0101937)
(0.132534 0 -0.0103822)
(0.132521 0 -0.0106599)
(0.130707 0 -0.0106987)
(0.130707 0 -0.0106987)
(0.130226 0 -0.0109525)
(0.129502 0 -0.0111606)
(0.127197 0 -0.0109624)
(0.127197 0 -0.0109624)
(0.126109 0 -0.0110605)
(0.123548 0 -0.0107532)
(0.123548 0 -0.0107532)
(0.122126 0 -0.010759)
(0.119298 0 -0.0103699)
(0.119298 0 -0.0103699)
)
;
    }
}


// ************************************************************************* //
