/*--------------------------------*- C++ -*----------------------------------*\
| =========                 |                                                 |
| \\      /  F ield         | OpenFOAM: The Open Source CFD Toolbox           |
|  \\    /   O peration     | Version:  dev                                   |
|   \\  /    A nd           | Web:      www.OpenFOAM.org                      |
|    \\/     M anipulation  |                                                 |
\*---------------------------------------------------------------------------*/
FoamFile
{
    version     2.0;
    format      ascii;
    class       volScalarField;
    location    "2.84";
    object      p;
}
// * * * * * * * * * * * * * * * * * * * * * * * * * * * * * * * * * * * * * //

dimensions      [0 2 -2 0 0 0 0];

internalField   nonuniform List<scalar> 
2790
(
120.446
120.347
120.596
121.095
121.755
122.556
123.5
124.584
125.801
127.15
128.624
130.221
131.935
133.761
135.691
137.716
139.823
141.997
144.219
146.463
148.7
150.892
152.998
154.969
156.754
158.299
159.554
160.479
161.053
161.3
120.279
120.275
120.546
121.043
121.699
122.499
123.439
124.518
125.73
127.071
128.538
130.127
131.832
133.647
135.567
137.581
139.677
141.841
144.053
146.291
148.524
150.718
152.832
154.819
156.628
158.205
159.501
160.476
161.115
161.585
120.113
120.182
120.47
120.958
121.604
122.394
123.323
124.387
125.583
126.905
128.35
129.913
131.59
133.375
135.26
137.235
139.289
141.409
143.575
145.765
147.952
150.104
152.183
154.148
155.953
157.553
158.909
159.999
160.818
161.515
119.935
120.041
120.343
120.822
121.456
122.233
123.146
124.192
125.366
126.662
128.078
129.607
131.246
132.987
134.822
136.742
138.736
140.789
142.883
144.997
147.107
149.183
151.191
153.095
154.856
156.438
157.807
158.94
159.782
160.331
119.736
119.861
120.173
120.647
121.267
122.028
122.922
123.944
125.089
126.352
127.73
129.216
130.805
132.49
134.263
136.114
138.031
139.999
142.001
144.018
146.026
147.997
149.902
151.709
153.382
154.887
156.184
157.225
157.899
157.966
119.511
119.646
119.964
120.431
121.036
121.776
122.646
123.639
124.749
125.973
127.305
128.74
130.271
131.89
133.589
135.358
137.184
139.052
140.947
142.846
144.73
146.571
148.341
150.012
151.547
152.906
154.037
154.862
155.265
154.701
119.258
119.398
119.718
120.175
120.762
121.479
122.321
123.28
124.351
125.529
126.809
128.184
129.648
131.192
132.807
134.482
136.204
137.959
139.728
141.493
143.231
144.916
146.521
148.015
149.36
150.508
151.393
151.911
152.008
150.813
118.977
119.119
119.436
119.882
120.449
121.139
121.949
122.87
123.896
125.023
126.244
127.552
128.94
130.4
131.921
133.491
135.098
136.725
138.354
139.966
141.536
143.04
144.447
145.723
146.825
147.699
148.273
148.418
148.197
146.416
118.668
118.81
119.121
119.553
120.098
120.759
121.532
122.411
123.388
124.458
125.613
126.848
128.153
129.52
130.937
132.393
133.871
135.357
136.831
138.271
139.652
140.946
142.121
143.136
143.944
144.481
144.679
144.388
143.818
141.461
118.331
118.471
118.775
119.191
119.71
120.339
121.073
121.906
122.829
123.837
124.922
126.077
127.292
128.558
129.863
131.193
132.533
133.864
135.166
136.415
137.584
138.64
139.545
140.254
140.709
140.841
140.585
139.771
138.774
135.767
117.967
118.104
118.398
118.796
119.288
119.882
120.575
121.358
122.223
123.164
124.174
125.243
126.362
127.52
128.704
129.9
131.09
132.254
133.369
134.409
135.341
136.129
136.726
137.077
137.114
136.757
135.941
134.469
132.889
129.028
117.577
117.711
117.994
118.371
118.834
119.392
120.039
120.769
121.573
122.444
123.373
124.352
125.369
126.413
127.47
128.523
129.553
130.538
131.453
132.265
132.938
133.427
133.676
133.615
133.16
132.207
130.679
128.337
125.882
120.744
117.164
117.293
117.563
117.918
118.351
118.869
119.47
120.144
120.883
121.68
122.526
123.41
124.32
125.244
126.167
127.071
127.933
128.729
129.43
130
130.393
130.556
130.419
129.89
128.862
127.187
124.743
121.197
117.342
110.041
116.727
116.851
117.108
117.439
117.84
118.317
118.869
119.485
120.158
120.878
121.636
122.422
123.222
124.022
124.806
125.555
126.242
126.841
127.319
127.633
127.73
127.545
126.991
125.95
124.273
121.746
118.139
112.913
106.712
95.2377
116.268
116.388
116.63
116.937
117.303
117.739
118.24
118.796
119.4
120.041
120.71
121.395
122.081
122.755
123.397
123.986
124.495
124.892
125.141
125.192
124.984
124.441
123.452
121.875
119.508
116.043
111.066
103.646
93.6374
72.7992
1.13426
1.11606
1.0449
0.899778
0.691705
0.451047
0.204087
-0.0366983
-0.267825
-0.487762
-0.694528
-0.885332
-1.05654
-1.20429
-1.32562
-1.41865
-1.48122
-1.5099
-1.50126
-1.45517
-1.3759
-1.26955
-1.14076
-0.992093
-0.826836
-0.652164
-0.476809
-0.309341
-0.159259
-0.0361761
1.14082
1.11742
1.03752
0.886498
0.676571
0.436502
0.191147
-0.0482133
-0.278508
-0.498206
-0.705226
-0.896755
-1.06891
-1.21731
-1.33893
-1.43248
-1.49622
-1.52597
-1.51696
-1.46872
-1.38654
-1.27779
-1.14752
-0.997722
-0.830641
-0.654031
-0.477829
-0.310535
-0.161872
-0.0420787
1.15844
1.12925
1.03585
0.87376
0.658511
0.417467
0.172493
-0.0672365
-0.298225
-0.518757
-0.726984
-0.920396
-1.09474
-1.24444
-1.36643
-1.46099
-1.52718
-1.55905
-1.54935
-1.4971
-1.40946
-1.29607
-1.16331
-1.01269
-0.845708
-0.668717
-0.491305
-0.322167
-0.171312
-0.0501496
1.19106
1.15591
1.04575
0.868932
0.645393
0.401377
0.154242
-0.0890021
-0.323597
-0.547672
-0.759389
-0.956678
-1.1349
-1.2867
-1.40912
-1.50509
-1.57498
-1.61058
-1.60219
-1.54849
-1.45749
-1.33963
-1.20199
-1.04723
-0.877645
-0.699368
-0.520592
-0.349357
-0.195205
-0.0632061
1.24387
1.20172
1.07319
0.87999
0.646319
0.395712
0.142757
-0.108263
-0.351757
-0.584254
-0.804164
-1.00936
-1.19437
-1.35128
-1.4769
-1.57425
-1.64419
-1.6797
-1.67201
-1.6194
-1.52835
-1.40818
-1.26625
-1.10683
-0.933518
-0.751718
-0.568837
-0.393007
-0.230814
-0.0783969
1.32705
1.27588
1.1297
0.920804
0.677455
0.41298
0.139469
-0.128411
-0.387714
-0.634943
-0.867172
-1.08186
-1.27427
-1.43779
-1.56924
-1.6701
-1.74045
-1.77485
-1.76668
-1.7145
-1.6233
-1.50085
-1.35433
-1.18925
-1.01042
-0.82256
-0.632986
-0.449777
-0.274635
-0.0951559
1.45969
1.39858
1.23833
1.01281
0.741591
0.444957
0.142164
-0.153468
-0.437511
-0.705346
-0.95371
-1.18013
-1.38088
-1.55119
-1.68859
-1.79339
-1.86469
-1.89809
-1.88884
-1.83605
-1.74363
-1.61813
-1.46627
-1.29426
-1.10769
-0.911179
-0.712229
-0.518279
-0.325257
-0.113485
1.66909
1.59831
1.41481
1.14818
0.826335
0.480569
0.135049
-0.19822
-0.512614
-0.803866
-1.0697
-1.30842
-1.5177
-1.69462
-1.8373
-1.94538
-2.01749
-2.04998
-2.03931
-1.98496
-1.89007
-1.76023
-1.60178
-1.42115
-1.22434
-1.01662
-0.805554
-0.597263
-0.381789
-0.133383
1.98065
1.88667
1.64616
1.30483
0.907128
0.496395
0.0968885
-0.278786
-0.624789
-0.938799
-1.2206
-1.47024
-1.68702
-1.86956
-2.01661
-2.12732
-2.19999
-2.23149
-2.21898
-2.16205
-2.06331
-1.92758
-1.76086
-1.56948
-1.35965
-1.13825
-0.912384
-0.685945
-0.443804
-0.154827
2.40623
2.25193
1.90531
1.4477
0.951685
0.463339
0.00622868
-0.410197
-0.784026
-1.11664
-1.41071
-1.66839
-1.89062
-2.07732
-2.22767
-2.34037
-2.41333
-2.44361
-2.42869
-2.36811
-2.26397
-2.12061
-1.9437
-1.73939
-1.51407
-1.27547
-1.03138
-0.783646
-0.511018
-0.177796
2.95462
2.6698
2.14482
1.53221
0.919959
0.351805
-0.15677
-0.605112
-0.998217
-1.34218
-1.64284
-1.90458
-2.12968
-2.31883
-2.47133
-2.58538
-2.65836
-2.68714
-2.66919
-2.60379
-2.49267
-2.33976
-2.15051
-1.93088
-1.68718
-1.42767
-1.16196
-0.889906
-0.583272
-0.202261
3.63913
3.08193
2.29314
1.49532
0.767101
0.133587
-0.408567
-0.872696
-1.27216
-1.61779
-1.91813
-2.17924
-2.40431
-2.59422
-2.74791
-2.86287
-2.93568
-2.96271
-2.94105
-2.86962
-2.74975
-2.58513
-2.38116
-2.14372
-1.87891
-1.59522
-1.30366
-1.00374
-0.660392
-0.228096
4.41197
3.35706
2.24277
1.2617
0.447417
-0.215044
-0.759419
-1.21652
-1.6064
-1.94259
-2.23508
-2.49079
-2.71312
-2.90244
-3.05683
-3.17263
-3.24533
-3.27044
-3.2444
-3.16561
-3.03506
-2.85636
-2.63508
-2.37729
-2.08888
-1.77789
-1.45586
-1.12343
-0.740758
-0.255041
5.08558
3.29325
1.85255
0.746349
-0.0800734
-0.707023
-1.20862
-1.63193
-1.99567
-2.3113
-2.58871
-2.83482
-3.05244
-3.24068
-3.39606
-3.51326
-3.58629
-3.60949
-3.57837
-3.49069
-3.34715
-3.15154
-2.90995
-2.62903
-2.31459
-1.97351
-1.61637
-1.24476
-0.819078
-0.28249
4.90757
2.60113
0.943598
-0.142431
-0.840646
-1.33248
-1.73548
-2.10241
-2.42737
-2.71331
-2.96964
-3.20321
-3.41545
-3.60332
-3.76097
-3.88072
-3.95481
-3.97611
-3.93887
-3.8401
-3.6804
-3.46406
-3.19823
-2.89075
-2.54785
-2.17467
-1.77912
-1.36362
-0.893006
-0.309822
115.782
115.896
116.122
116.403
116.734
117.125
117.573
118.068
118.599
119.158
119.735
120.315
120.884
121.426
121.922
122.347
122.671
122.861
122.875
122.657
122.14
121.232
119.809
117.699
114.654
110.274
103.946
94.2447
79.2866
34.3189
115.26
115.369
115.578
115.831
116.125
116.47
116.862
117.292
117.748
118.222
118.702
119.173
119.621
120.027
120.373
120.629
120.764
120.744
120.52
120.033
119.21
117.951
116.121
113.535
109.926
104.878
97.7664
87.2773
73.4587
56.239
114.708
114.811
115.003
115.227
115.482
115.778
116.113
116.475
116.854
117.24
117.62
117.98
118.304
118.573
118.765
118.851
118.798
118.569
118.113
117.368
116.258
114.682
112.506
109.556
105.596
100.308
93.3546
84.283
73.9472
64.4056
114.127
114.223
114.397
114.59
114.805
115.052
115.328
115.621
115.92
116.216
116.496
116.743
116.941
117.072
117.112
117.029
116.792
116.361
115.684
114.7
113.336
111.493
109.055
105.874
101.773
96.5533
90.0631
82.1091
72.6552
61.9895
113.516
113.606
113.761
113.923
114.096
114.292
114.508
114.731
114.95
115.155
115.333
115.467
115.541
115.536
115.425
115.179
114.765
114.144
113.265
112.07
110.49
108.441
105.823
102.523
98.4138
93.3635
87.2627
79.9663
71.2987
61.7472
112.878
112.961
113.097
113.227
113.358
113.503
113.658
113.81
113.948
114.062
114.139
114.161
114.113
113.974
113.718
113.316
112.737
111.942
110.884
109.51
107.758
105.559
102.833
99.4941
95.4527
90.6213
84.9321
78.3373
70.8184
62.8555
112.214
112.291
112.407
112.505
112.593
112.686
112.78
112.861
112.919
112.943
112.92
112.833
112.666
112.398
112.004
111.458
110.728
109.778
108.565
107.045
105.163
102.864
100.088
96.7709
92.8542
88.2895
83.0517
77.1486
70.6057
63.7367
111.527
111.597
111.694
111.759
111.805
111.846
111.878
111.889
111.868
111.804
111.683
111.491
111.21
110.82
110.299
109.62
108.754
107.67
106.329
104.694
102.72
100.365
97.5845
94.3351
90.5822
86.3051
81.5023
76.1968
70.4208
64.4047
110.819
110.882
110.959
110.992
110.995
110.984
110.956
110.899
110.8
110.651
110.436
110.143
109.755
109.252
108.613
107.815
106.831
105.634
104.191
102.47
100.438
98.0627
95.313
92.1626
88.5941
84.6028
80.1995
75.4137
70.2852
64.9974
110.093
110.148
110.206
110.207
110.168
110.107
110.02
109.896
109.722
109.49
109.187
108.799
108.311
107.704
106.96
106.057
104.972
103.682
102.16
100.38
98.3184
95.9512
93.2589
90.2273
86.8506
83.1339
79.095
74.7666
70.1901
65.5097
109.351
109.399
109.438
109.408
109.328
109.218
109.074
108.885
108.64
108.33
107.943
107.467
106.887
106.186
105.349
104.355
103.187
101.823
100.243
98.4282
96.3596
94.0226
91.4058
88.5036
85.3178
81.8596
78.1499
74.2209
70.1108
65.9336
108.597
108.639
108.659
108.598
108.479
108.321
108.122
107.872
107.559
107.176
106.712
106.155
105.491
104.708
103.789
102.72
101.483
100.063
98.445
96.6136
94.5568
92.2659
89.7359
86.9672
83.9663
80.7473
77.332
73.75
70.0352
66.2786
107.836
107.87
107.872
107.783
107.625
107.421
107.171
106.862
106.487
106.036
105.501
104.87
104.132
103.276
102.288
101.156
99.8665
98.4069
96.7659
94.9337
92.9029
90.6691
88.2322
85.5963
82.7707
79.7707
76.6172
73.3367
69.9585
66.5557
107.07
107.098
107.082
106.965
106.771
106.525
106.226
105.863
105.428
104.915
104.316
103.619
102.816
101.898
100.853
99.6705
98.3409
96.8549
95.2048
93.3842
91.3896
89.2201
86.8785
84.3714
81.7097
78.9084
75.9869
72.9684
69.8781
66.7748
106.305
106.326
106.294
106.15
105.922
105.636
105.291
104.878
104.39
103.821
103.163
102.409
101.55
100.579
99.4873
98.266
96.9082
95.4075
93.7591
91.9597
90.0084
87.9069
85.66
83.2758
80.7654
78.1433
75.4269
72.6365
69.7932
66.9448
105.544
105.559
105.511
105.343
105.083
104.76
104.374
103.915
103.378
102.758
102.05
101.246
100.339
99.3247
98.1954
96.9452
95.5692
94.0634
92.4253
90.654
88.7505
86.7182
84.5634
82.2946
79.9229
77.4616
74.9264
72.3346
69.7041
67.0737
104.794
104.802
104.74
104.549
104.26
103.903
103.478
102.978
102.398
101.734
100.981
100.134
99.1876
98.1379
96.98
95.7097
94.3239
92.8207
91.1993
89.4607
87.6073
85.6438
83.5768
81.4153
79.1698
76.8525
74.477
72.0584
69.6116
67.1687
104.059
104.061
103.985
103.773
103.458
103.07
102.61
102.074
101.456
100.752
99.9609
99.0778
98.0993
97.022
95.843
94.5599
93.1712
91.6765
90.0767
88.3737
86.5711
84.6742
82.6902
80.6275
78.4962
76.3072
74.0725
71.8049
69.5173
67.2357
103.344
103.34
103.252
103.021
102.682
102.266
101.776
101.207
100.555
99.8187
98.9951
98.0821
97.0776
95.9793
94.7858
93.4961
92.1099
90.6283
89.053
87.3871
85.6347
83.8015
81.8946
79.9223
77.8938
75.8188
73.7079
71.5722
69.4225
67.2804
102.655
102.646
102.547
102.299
101.938
101.498
100.981
100.384
99.703
98.9379
98.0874
97.1503
96.1255
95.012
93.8094
92.5179
91.1385
89.6731
88.1242
86.4956
84.7918
83.0185
81.1827
79.2924
77.3559
75.382
73.3799
71.3591
69.329
67.3074
101.999
101.985
101.875
101.612
101.233
100.77
100.23
99.6084
98.9032
98.1143
97.2419
96.2857
95.2456
94.1216
92.9144
91.6251
90.2555
88.8082
87.2865
85.6945
84.0367
82.319
80.5483
78.7319
76.8773
74.9925
73.0856
71.1649
69.2384
67.3209
101.38
101.362
101.242
100.966
100.57
100.089
99.5287
98.8864
98.1608
97.3524
96.4624
95.4915
94.4403
93.3098
92.1014
90.8171
89.4594
88.0313
86.5366
84.9796
83.365
81.6984
79.9864
78.236
76.454
74.6474
72.8236
70.9897
69.1527
67.325
100.807
100.784
100.655
100.368
99.9573
99.46
98.8827
98.223
97.4804
96.6564
95.7526
94.7706
93.7119
92.578
91.3711
90.0938
88.749
87.3403
85.8717
84.3476
82.7726
81.1522
79.4928
77.8008
76.0824
74.3441
72.5923
70.8333
69.0732
67.3224
100.284
100.257
100.121
99.8225
99.3998
98.8888
98.2972
97.6233
96.867
96.0306
95.1163
94.1264
93.0629
91.9281
90.7247
89.4556
88.1242
86.7343
85.2902
83.7963
82.2572
80.6781
79.0651
77.4241
75.7611
74.0817
72.3918
70.697
69.0026
67.3174
99.82
99.7886
99.6447
99.3369
98.9036
98.3811
97.7777
97.0922
96.325
95.4789
94.5568
93.5614
92.4953
91.3613
90.1623
88.9019
87.5835
86.2114
84.7897
83.3229
81.8155
80.2725
78.6997
77.1028
75.4871
73.8579
72.2204
70.5797
68.9406
67.3103
99.4217
99.3856
99.2339
98.9172
98.4749
97.9432
97.3304
96.6358
95.8603
95.0071
94.0796
93.0808
92.0138
90.8817
89.6878
88.4359
87.1298
85.7737
84.3719
82.9288
81.4487
79.9366
78.398
76.8382
75.2623
73.675
72.0812
70.4855
68.8924
67.308
99.0976
99.0556
98.8945
98.5691
98.1188
97.5793
96.9587
96.2568
95.4749
94.6165
93.6852
92.6845
91.6176
90.488
89.2993
88.0553
86.7601
85.4178
84.0329
82.6096
81.1523
79.6656
78.1549
76.6252
75.0814
73.5278
71.969
70.4092
68.8524
67.3037
98.858
98.8056
98.6336
98.3016
97.8462
97.3011
96.6748
95.9675
95.1811
94.3191
93.3853
92.3836
91.3174
90.1904
89.0063
87.7691
86.4829
85.1519
83.7806
82.3733
80.934
79.4674
77.9786
76.4726
74.9537
73.4264
71.8948
70.3631
68.835
67.3148
98.7182
98.636
98.4458
98.1082
97.6501
97.1017
96.4719
95.7616
94.9728
94.1091
93.1746
92.1729
91.1079
89.9833
88.803
87.5709
86.2913
84.9685
83.6068
82.2105
80.7836
79.3307
77.8567
76.3665
74.8644
73.3546
71.841
70.3275
68.8178
67.3154
98.7134
98.578
98.3639
98.0197
97.5581
97.006
96.3729
95.6602
94.8698
94.0052
93.0704
92.0693
91.0056
89.8832
88.7058
87.4777
86.2029
84.8857
83.5305
82.1415
80.7227
79.2785
77.8139
76.3335
74.8417
73.3424
71.8395
70.3369
68.8381
67.3459
-63.872
-37.7129
-11.728
42.0404
37.7623
30.1424
50.9906
40.3911
31.2101
48.4213
39.6837
33.2034
51.6684
44.9552
39.5018
54.8544
49.2814
44.5278
56.9523
52.234
48.1993
58.6054
54.5995
51.1777
59.9957
56.5481
53.6042
61.1369
58.1269
55.5589
62.0671
59.4088
57.1423
62.8272
60.4562
58.4347
63.4481
61.3146
59.4947
63.9548
62.0196
60.3678
64.3675
62.5996
61.0893
64.7028
63.077
61.6867
64.9741
63.4698
62.1819
65.1927
63.7927
62.5925
65.3677
64.0576
62.933
65.5073
64.2747
63.215
65.6179
64.4521
63.4485
65.7056
64.5974
63.6419
65.7746
64.7156
63.8014
65.8306
64.8135
63.9342
65.8743
64.8924
64.0426
65.9144
64.9614
64.1355
65.9427
65.0126
64.2064
65.9805
65.0677
64.2753
65.9968
65.0959
64.3144
66.0441
65.1545
64.3785
5.37887
0.625504
-0.928188
-1.60405
-1.86622
-2.05047
-2.291
-2.60395
-2.88766
-3.13794
-3.36911
-3.58926
-3.79748
-3.98738
-4.15
-4.27425
-4.35038
-4.36973
-4.32508
-4.21241
-4.03229
-3.79001
-3.49448
-3.15584
-2.7818
-2.37587
-1.94157
-1.48138
-0.967124
-0.33664
13.4992
0.932788
-1.29215
-1.63752
-1.983
-2.34155
-2.75853
-3.15348
-3.39752
-3.59341
-3.78735
-3.99055
-4.19574
-4.39001
-4.56062
-4.69079
-4.76913
-4.78568
-4.73121
-4.60033
-4.39377
-4.1185
-3.78631
-3.4108
-3.00243
-2.56397
-2.09316
-1.58954
-1.03368
-0.362473
18.0432
6.42086
2.10355
0.0865103
-1.36562
-2.30124
-2.87655
-3.23586
-3.51392
-3.78221
-4.04827
-4.30644
-4.54755
-4.77236
-4.96814
-5.11117
-5.19451
-5.20916
-5.1437
-4.99094
-4.75185
-4.4358
-4.05871
-3.63915
-3.19191
-2.72114
-2.21911
-1.67593
-1.07666
-0.38461
24.3625
14.8202
8.67394
4.60241
1.69563
-0.316197
-1.66489
-2.57567
-3.22077
-3.70485
-4.09198
-4.4252
-4.72857
-5.00731
-5.24465
-5.42188
-5.52887
-5.55506
-5.48755
-5.31841
-5.05008
-4.69521
-4.27423
-3.81083
-3.32449
-2.82283
-2.29767
-1.72869
-1.09011
-0.393447
31.9882
23.4921
16.3776
10.8728
6.7334
3.65035
1.36839
-0.323595
-1.59263
-2.56325
-3.3249
-3.93964
-4.44476
-4.85973
-5.19083
-5.43672
-5.59469
-5.6569
-5.61102
-5.44997
-5.1774
-4.80688
-4.36072
-3.86631
-3.34787
-2.81854
-2.27575
-1.70134
-1.07079
-0.423687
38.2267
30.8698
23.728
17.6026
12.7002
8.82125
5.74661
3.31145
1.38218
-0.154102
-1.38825
-2.38909
-3.20578
-3.87087
-4.4024
-4.80844
-5.0904
-5.24489
-5.26832
-5.16157
-4.93287
-4.59773
-4.17921
-3.70537
-3.20148
-2.68276
-2.14948
-1.5903
-0.999376
-0.449529
43.037
36.8219
30.1769
24.033
18.8269
14.4876
10.8634
7.84658
5.34927
3.28597
1.5785
0.162264
-1.01258
-1.982
-2.76991
-3.39112
-3.85415
-4.16371
-4.32322
-4.3382
-4.2193
-3.98304
-3.65326
-3.25859
-2.82366
-2.36432
-1.88706
-1.39282
-0.891908
-0.466818
46.8692
41.578
35.5917
29.762
24.5897
20.0908
16.1754
12.7849
9.8731
7.38686
5.26965
3.47028
1.94601
0.662956
-0.404424
-1.27449
-1.96015
-2.47069
-2.81422
-3.00058
-3.0434
-2.96089
-2.77654
-2.51685
-2.20538
-1.85984
-1.4924
-1.11315
-0.740411
-0.447831
49.9197
45.3437
40.0137
34.6414
29.7047
25.263
21.2695
17.6996
14.5388
11.7621
9.33555
7.22436
5.3965
3.82428
2.48485
1.36014
0.435878
-0.299766
-0.857934
-1.25107
-1.49434
-1.6063
-1.6091
-1.5268
-1.38194
-1.19369
-0.978115
-0.750762
-0.531929
-0.380773
52.3489
48.3355
43.5945
38.7068
34.0966
29.8384
25.9104
22.3087
19.0386
16.0957
13.4648
11.126
9.05889
7.24365
5.66252
4.30006
3.1428
2.17851
1.3951
0.779418
0.316283
-0.0121318
-0.226405
-0.348429
-0.399351
-0.398667
-0.36435
-0.314265
-0.268071
-0.271706
54.3061
50.7429
46.5056
42.0714
37.8083
33.7908
30.0098
26.4715
23.1925
20.1811
17.4355
14.9478
12.7075
10.7026
8.92094
7.35085
5.98115
4.80082
3.79844
2.96147
2.27561
1.72451
1.28963
0.951164
0.68951
0.48574
0.321634
0.179106
0.0398625
-0.131951
55.9
52.7035
48.8899
44.8583
40.9277
37.1663
33.5699
30.1489
26.9246
23.9127
21.1201
18.5474
16.1917
14.0474
12.1077
10.365
8.81092
7.43657
6.2321
5.18642
4.2868
3.51871
2.86582
2.31056
1.83498
1.42125
1.05179
0.709311
0.377022
0.026458
57.2082
54.3151
50.8579
47.1767
43.5497
40.0376
36.6371
33.359
30.2259
27.2571
24.4645
21.8542
19.4287
17.1876
15.1284
13.2471
11.5383
9.99547
8.61086
7.3752
6.27765
5.30569
4.44518
3.68069
2.99612
2.37502
1.80087
1.25736
0.728955
0.192736
58.2882
55.6494
52.4939
49.1156
45.7599
42.4802
39.2722
36.1455
33.1223
30.2226
27.4607
24.8463
22.3854
20.0813
17.9348
15.945
14.1094
12.4236
10.8819
9.47725
8.20062
7.04152
5.98791
5.02641
4.1427
3.32188
2.54864
1.80762
1.08406
0.358954
59.1839
56.7602
53.8616
50.7453
47.6297
44.5616
41.5356
38.5592
35.6531
32.8366
30.1249
27.5293
25.058
22.7169
20.5093
18.4367
16.4988
14.6935
13.017
11.4642
10.0278
8.69949
7.46898
6.32482
5.25442
4.24433
3.28051
2.3485
1.43402
0.520557
59.9292
57.6887
55.01
52.1204
49.2162
46.3387
43.4809
40.6486
37.8599
35.1331
32.4829
29.9213
27.4577
25.0994
22.8515
20.7174
18.6985
16.7946
15.0037
13.3222
11.7449
10.2649
8.87396
7.56216
6.31854
5.13105
3.98679
2.87219
1.77334
0.675487
60.5505
58.4668
55.977
53.284
50.5656
47.8583
45.1541
42.4568
39.7819
37.1462
34.5635
32.0455
29.6022
27.2415
24.9698
22.7916
20.7097
18.7255
16.8383
15.0461
13.3453
11.7306
10.1951
8.73054
7.32742
5.97494
4.66127
3.37365
2.09856
0.82277
61.0693
59.1201
56.7932
54.271
51.7156
49.1594
46.5938
44.021
41.4541
38.9078
36.3946
33.9257
31.5111
29.159
26.8762
24.668
22.5383
20.4894
18.522
16.6354
14.8271
13.0932
11.4283
9.8255
8.27644
6.77153
5.29993
3.84964
2.40758
0.961925
61.5026
59.6693
57.4831
55.1092
52.6964
50.274
47.8328
45.3735
42.9072
40.4461
38.0017
35.5845
33.2039
30.868
28.5837
26.3568
24.1918
22.0917
20.0581
18.0914
16.1902
14.3518
12.5718
10.8444
9.16267
7.51784
5.90001
4.29793
2.69901
1.0927
61.8646
60.1311
58.0665
55.8213
53.5331
51.2286
48.8985
46.5418
44.1675
41.7862
39.4081
37.0429
34.6992
32.3845
30.1058
27.869
25.6787
23.5387
21.4512
19.4172
17.4362
15.5065
13.6246
11.786
9.98427
8.21186
6.45963
4.71701
2.97192
1.21497
62.1668
60.5192
58.5596
56.4259
54.2461
52.0453
49.8137
47.5488
45.2578
42.9501
40.6346
38.3199
36.0139
33.7235
31.4553
29.2151
27.0078
24.8372
22.706
20.6158
18.5668
16.5579
14.5867
12.6491
10.7397
8.85188
6.97706
5.10536
3.22526
1.3283
62.4192
60.8455
58.9763
56.939
54.8534
52.7431
50.5978
48.4142
46.1979
43.9571
41.6997
39.4329
37.1638
34.8989
32.6444
30.4057
28.1876
25.994
23.828
21.6913
19.5847
17.5077
15.4584
13.4336
11.4285
9.43702
7.45139
5.46224
3.45859
1.43265
62.6293
61.119
59.3273
57.373
55.3687
53.3367
51.2665
49.1541
47.0041
44.8234
42.6186
40.396
38.1621
35.9228
33.6836
31.4496
29.2254
27.015
24.8213
22.6465
20.4916
18.3564
16.2396
14.1386
12.0491
9.96548
7.88068
5.78583
3.67038
1.52708
62.8049
61.3484
59.6229
57.7393
55.8046
53.8398
51.8344
49.7838
47.6917
45.564
43.406
41.2235
39.0221
36.8072
34.5838
32.3565
30.1297
27.9071
25.6919
23.486
21.2909
19.1066
16.9321
14.7652
12.6021
10.4377
8.26534
6.07658
3.8613
1.61231
62.9497
61.5386
59.8686
58.0444
56.1682
54.2603
52.31
50.3121
48.2697
46.1878
44.0708
41.9234
39.7512
37.5588
35.3506
33.1309
30.9038
28.6727
26.4407
24.2099
21.9817
19.7564
17.5332
15.3102
13.0839
10.8498
8.60133
6.33059
4.02785
1.68598
63.072
61.6985
60.0746
58.2995
56.4717
54.6109
52.7064
50.7524
48.7516
46.7084
44.626
42.5087
40.3618
38.1894
35.9951
33.7831
31.5569
29.3201
27.0753
24.8248
22.5698
20.3109
18.0474
15.7776
13.4984
11.2052
8.89218
6.55148
4.17366
1.75102
63.1678
61.8246
60.2374
58.5015
56.7125
54.8893
53.0215
51.1028
49.1358
47.1238
45.0695
42.977
40.851
38.6953
36.513
34.3078
32.0832
29.8425
27.5881
25.3223
23.0463
20.7606
18.4648
16.1572
13.835
11.4938
9.12775
6.72953
4.29
1.80143
63.2535
61.9332
60.374
58.6679
56.908
55.1135
53.2736
51.3819
49.4406
47.4525
45.4198
43.3464
41.2366
39.0937
36.9208
34.7212
32.4982
30.2547
27.9932
25.7158
23.4239
21.1178
18.7971
16.4604
14.1048
11.7261
9.31864
6.8751
4.38654
1.84424
63.307
62.002
60.4616
58.7758
57.0359
55.2607
53.4396
51.5663
49.6423
47.6703
45.6524
43.5921
41.4934
39.3594
37.193
34.9973
32.7755
30.5303
28.2642
25.9792
23.6765
21.3566
19.0191
16.6625
14.2841
11.8796
9.4433
6.96798
4.44493
1.86601
63.3713
62.0674
60.5366
58.8628
57.134
55.3689
53.5577
51.694
49.7787
47.8147
45.8041
43.7502
41.6566
39.5265
37.3627
35.1682
32.946
30.699
28.4295
26.1394
23.83
21.5018
19.1545
16.7864
14.3948
11.9755
9.52254
7.02787
4.48095
1.86716
)
;

boundaryField
{
    inlet
    {
        type            zeroGradient;
    }
    outlet
    {
        type            fixedValue;
        value           uniform 0;
    }
    flap
    {
        type            zeroGradient;
    }
    upperWall
    {
        type            zeroGradient;
    }
    lowerWall
    {
        type            zeroGradient;
    }
    frontAndBack
    {
        type            empty;
    }
}


// ************************************************************************* //
