/*--------------------------------*- C++ -*----------------------------------*\
| =========                 |                                                 |
| \\      /  F ield         | OpenFOAM: The Open Source CFD Toolbox           |
|  \\    /   O peration     | Version:  dev                                   |
|   \\  /    A nd           | Web:      www.OpenFOAM.org                      |
|    \\/     M anipulation  |                                                 |
\*---------------------------------------------------------------------------*/
FoamFile
{
    version     2.0;
    format      ascii;
    class       surfaceScalarField;
    location    "0.86";
    object      meshPhi;
}
// * * * * * * * * * * * * * * * * * * * * * * * * * * * * * * * * * * * * * //

dimensions      [0 3 -1 0 0 0 0];

internalField   nonuniform List<scalar> 
879
(
0.000228001
6.28824e-07
0.000247382
1.66437e-07
0.000265316
-5.47777e-07
0.000282028
-1.54192e-06
0.000297118
-2.67083e-06
0.000309939
-3.89436e-06
0.000319796
-5.18703e-06
0.000325904
-6.37879e-06
0.000327575
-7.41738e-06
0.000324266
-8.24725e-06
0.000315597
-8.8054e-06
0.000301344
-9.07659e-06
0.000281444
-9.07638e-06
0.000255959
-8.76955e-06
0.000225095
-8.17538e-06
0.000189126
-7.2975e-06
0.000148337
-6.13929e-06
0.000102988
-4.71236e-06
5.32337e-05
-3.01445e-06
-1.0558e-06
0.000225734
1.19409e-06
0.000245095
2.23043e-07
0.000263274
-1.24072e-06
0.000280271
-3.16025e-06
0.000295702
-5.41061e-06
0.000308876
-7.83478e-06
0.000318981
-1.03093e-05
0.000325296
-1.26633e-05
0.000327155
-1.47341e-05
0.000323964
-1.63524e-05
0.000315374
-1.74662e-05
0.000301192
-1.80168e-05
0.000281314
-1.79877e-05
0.00025584
-1.73883e-05
0.000224993
-1.6218e-05
0.000189035
-1.44701e-05
0.000148254
-1.21649e-05
0.000102911
-9.33027e-06
5.31764e-05
-5.96618e-06
-2.08863e-06
0.000218929
1.51061e-06
0.000238504
4.0499e-08
0.000257205
-2.17125e-06
0.000274866
-4.98788e-06
0.000290996
-8.28587e-06
0.000304883
-1.1851e-05
0.000315641
-1.54166e-05
0.000322525
-1.88297e-05
0.00032485
-2.18344e-05
0.000322046
-2.41957e-05
0.000313789
-2.58439e-05
0.00029987
-2.66483e-05
0.000280214
-2.65855e-05
0.000254947
-2.56917e-05
0.00022428
-2.39404e-05
0.000188459
-2.13428e-05
0.000147795
-1.7938e-05
0.000102579
-1.37542e-05
5.29924e-05
-8.79172e-06
-3.07685e-06
0.000207963
1.46451e-06
0.000228066
-5.06124e-07
0.000247574
-3.41882e-06
0.0002662
-7.08762e-06
0.000283324
-1.13299e-05
0.000298176
-1.59108e-05
0.000309884
-2.04975e-05
0.000317639
-2.48564e-05
0.000320701
-2.86677e-05
0.000318561
-3.17095e-05
0.000310865
-3.38194e-05
0.000297403
-3.48363e-05
0.000278166
-3.47439e-05
0.000253272
-3.35427e-05
0.00022292
-3.12237e-05
0.000187373
-2.78256e-05
0.000146962
-2.3387e-05
0.000102013
-1.79298e-05
5.27077e-05
-1.14561e-05
-4.00837e-06
0.000194539
1.04496e-06
0.000215333
-1.46351e-06
0.000235811
-5.0298e-06
0.00025555
-9.46966e-06
0.000273836
-1.45574e-05
0.000289813
-2.00153e-05
0.000302614
-2.55079e-05
0.000311383
-3.0697e-05
0.000315376
-3.52241e-05
0.000314058
-3.88398e-05
0.000307046
-4.13203e-05
0.000294179
-4.25218e-05
0.000275467
-4.23819e-05
0.000251024
-4.08809e-05
0.000221072
-3.80405e-05
0.000185904
-3.38997e-05
0.000145856
-2.84928e-05
0.000101263
-2.1843e-05
5.23284e-05
-1.3953e-05
-4.88082e-06
0.000179879
2.17691e-07
0.000201371
-2.82609e-06
0.000222832
-7.01533e-06
0.000243703
-1.21469e-05
0.000263186
-1.7977e-05
0.00028037
-2.41976e-05
0.000294326
-3.04425e-05
0.000304157
-3.63199e-05
0.000309143
-4.1468e-05
0.000308707
-4.55583e-05
0.000302464
-4.83462e-05
0.000290274
-4.96914e-05
0.000272152
-4.94892e-05
0.000248236
-4.77148e-05
0.000218774
-4.43927e-05
0.000184074
-3.95573e-05
0.000144476
-3.32464e-05
0.000100324
-2.54868e-05
5.18443e-05
-1.62785e-05
-5.69302e-06
0.000165118
-1.03327e-06
0.000187241
-4.58683e-06
0.000209591
-9.35177e-06
0.000231502
-1.50956e-05
0.000252101
-2.15608e-05
0.000270423
-2.84222e-05
0.000285485
-3.52866e-05
0.000296354
-4.17307e-05
0.000302295
-4.73817e-05
0.00030273
-5.18666e-05
0.000297285
-5.49143e-05
0.000285808
-5.63563e-05
0.000268326
-5.60791e-05
0.000245
-5.40456e-05
0.00021609
-5.02702e-05
0.00018192
-4.47878e-05
0.000142841
-3.76381e-05
9.92083e-05
-2.88499e-05
5.12688e-05
-1.84224e-05
-6.44114e-06
0.000151198
-2.67399e-06
0.00017383
-6.71339e-06
0.000196901
-1.19912e-05
0.000219664
-1.82619e-05
0.000241199
-2.52665e-05
0.000260479
-3.26557e-05
0.000276495
-4.00318e-05
0.000288301
-4.69464e-05
0.000295124
-5.29919e-05
0.00029638
-5.77844e-05
0.000291704
-6.10283e-05
0.000280941
-6.25243e-05
0.000264119
-6.21505e-05
0.000241411
-5.98595e-05
0.000213091
-5.56568e-05
0.000179497
-4.9575e-05
0.000140992
-4.16532e-05
9.79413e-05
-3.19209e-05
5.06138e-05
-2.03775e-05
-7.12264e-06
0.000138821
-4.64411e-06
0.000161784
-9.13654e-06
0.000185356
-1.48765e-05
0.00020873
-2.16056e-05
0.000230955
-2.90695e-05
0.000250975
-3.69009e-05
0.000267751
-4.4686e-05
0.000280327
-5.19672e-05
0.000287905
-5.83095e-05
0.000289893
-6.332e-05
0.000285918
-6.66865e-05
0.000275825
-6.81899e-05
0.000259645
-6.76967e-05
0.000237557
-6.5149e-05
0.000209845
-6.05442e-05
0.000176856
-5.39102e-05
0.000138964
-4.52836e-05
9.65468e-05
-3.46936e-05
4.98915e-05
-2.21399e-05
-7.73619e-06
0.000128414
-6.88305e-06
0.000151515
-1.18074e-05
0.000175351
-1.79733e-05
0.000199086
-2.51147e-05
0.000221742
-3.29647e-05
0.000242256
-4.11515e-05
0.00025957
-4.92458e-05
0.000272714
-5.67869e-05
0.000280879
-6.33285e-05
0.000283463
-6.84704e-05
0.000280087
-7.18896e-05
0.000270592
-7.33534e-05
0.000255009
-7.27175e-05
0.00023352
-6.9914e-05
0.000206415
-6.49315e-05
0.000174045
-5.77917e-05
0.000136793
-4.85274e-05
9.5049e-05
-3.71665e-05
4.91142e-05
-2.37088e-05
-8.28158e-06
0.000120181
-9.36033e-06
0.000143249
-1.47116e-05
0.00016713
-2.1271e-05
0.000190982
-2.87741e-05
0.000213816
-3.69384e-05
0.000234568
-4.53902e-05
0.000252176
-5.36968e-05
0.000265667
-6.13978e-05
0.000274226
-6.80448e-05
0.000277246
-7.32355e-05
0.000274342
-7.66408e-05
0.000265352
-7.80199e-05
0.000250302
-7.72188e-05
0.000229375
-7.41602e-05
0.000202859
-6.88237e-05
0.00017111
-6.12238e-05
0.000134515
-5.13883e-05
9.34712e-05
-3.93426e-05
4.82939e-05
-2.50862e-05
-8.7596e-06
0.00011418
-1.2074e-05
0.000137068
-1.7839e-05
0.000160803
-2.47562e-05
0.000184546
-3.25634e-05
0.000207316
-4.0969e-05
0.000228056
-4.95995e-05
0.000245714
-5.80252e-05
0.000259325
-6.57918e-05
0.000268077
-7.24556e-05
0.00027136
-7.76171e-05
0.000268788
-8.09464e-05
0.000260194
-8.2198e-05
0.000245601
-8.12107e-05
0.000225184
-7.78983e-05
0.000199229
-7.22313e-05
0.000168093
-6.42162e-05
0.00013216
-5.38744e-05
9.18348e-05
-4.12282e-05
4.74418e-05
-2.62766e-05
-9.17186e-06
0.000110358
-1.50251e-05
0.000132944
-2.118e-05
0.000156371
-2.84135e-05
0.000179807
-3.64651e-05
0.000202289
-4.50379e-05
0.000222783
-5.37623e-05
0.00024026
-6.22177e-05
0.000253769
-6.99608e-05
0.000262511
-7.65583e-05
0.000265883
-8.16181e-05
0.000263499
-8.48141e-05
0.000255188
-8.5899e-05
0.000240964
-8.47067e-05
0.000220999
-8.11429e-05
0.000195571
-7.51688e-05
0.000165029
-6.67821e-05
0.000129757
-5.59974e-05
9.01593e-05
-4.28328e-05
4.6568e-05
-2.72863e-05
-9.52068e-06
0.000108594
-1.82156e-05
0.000130784
-2.47293e-05
0.000153765
-3.22319e-05
0.000176719
-4.04639e-05
0.000198714
-4.9127e-05
0.00021875
-5.78615e-05
0.000235828
-6.62605e-05
0.000249027
-7.38962e-05
0.000257568
-8.03502e-05
0.00026086
-8.52422e-05
0.000258521
-8.82526e-05
0.000250377
-8.91362e-05
0.000236437
-8.77229e-05
0.000216862
-8.39114e-05
0.000191919
-7.76539e-05
0.000161949
-6.89385e-05
0.000127329
-5.77722e-05
8.84619e-05
-4.41682e-05
4.56817e-05
-2.81231e-05
-9.80892e-06
0.000108738
-2.16592e-05
0.000130452
-2.85164e-05
0.000152862
-3.62381e-05
0.000175173
-4.4581e-05
0.000196496
-5.32535e-05
0.000215875
-6.19138e-05
0.000232355
-7.01724e-05
0.00024505
-7.76209e-05
0.000253209
-8.3859e-05
0.00025626
-8.8521e-05
0.000253832
-9.12978e-05
0.000245748
-9.19478e-05
0.00023201
-9.02991e-05
0.000212767
-8.62435e-05
0.000188273
-7.97243e-05
0.000158856
-7.07197e-05
0.000124882
-5.92282e-05
8.67477e-05
-4.52576e-05
4.47867e-05
-2.88027e-05
-1.00422e-05
9.42332e-05
-1.91876e-05
0.00011495
-2.54722e-05
0.000136914
-3.2622e-05
0.000159472
-4.05029e-05
0.000181811
-4.88851e-05
0.000203081
-5.74827e-05
0.000222336
-6.59843e-05
0.000238638
-7.40201e-05
0.000251112
-8.12034e-05
0.000259014
-8.71546e-05
0.000261777
-9.15255e-05
0.000259028
-9.40201e-05
0.000250585
-9.44028e-05
0.000236443
-9.25011e-05
0.000216742
-8.82007e-05
0.00019173
-8.14355e-05
0.00016173
-7.21737e-05
0.000127111
-6.04049e-05
8.82736e-05
-4.61305e-05
4.55615e-05
-2.93427e-05
-1.02265e-05
0.000100842
0.000121694
0.000143577
-3.70724e-05
0.000165809
-4.5093e-05
0.000187633
-5.34069e-05
0.00020834
-6.18245e-05
0.000226985
-7.00873e-05
0.000242663
-7.78271e-05
0.000254532
-8.46759e-05
0.000261867
-9.02744e-05
0.000264125
-9.42957e-05
0.000260943
-9.64616e-05
0.000252138
-9.65439e-05
0.000237696
-9.43706e-05
0.000217745
-8.9822e-05
0.000192521
-8.28229e-05
0.000162334
-7.33313e-05
0.000127544
-6.13274e-05
8.85464e-05
-4.68059e-05
4.56878e-05
-2.97559e-05
-1.03664e-05
0.000152015
0.000174008
0.000195187
-5.80932e-05
0.000215078
-6.62826e-05
0.000232918
-7.42127e-05
0.000247756
-8.15913e-05
0.000258814
-8.80395e-05
0.000265384
-9.32267e-05
0.000266963
-9.68466e-05
0.000263199
-9.86421e-05
0.000253908
-9.83939e-05
0.000239071
-9.59323e-05
0.0002188
-9.11323e-05
0.000193316
-8.39101e-05
0.000162914
-7.42136e-05
0.000127943
-6.20136e-05
8.8789e-05
-4.72976e-05
4.57966e-05
-3.00509e-05
-1.0465e-05
0.000204282
0.000223382
-7.07304e-05
0.00024021
-7.83957e-05
0.000253972
-8.53239e-05
0.000264026
-9.13032e-05
0.000269622
-9.6026e-05
0.000270345
-9.91917e-05
0.00026585
-0.00010058
0.000255951
-9.99771e-05
0.00024062
-9.72128e-05
0.000219955
-9.2159e-05
0.000194158
-8.47234e-05
0.000163508
-7.48445e-05
0.000128337
-6.24838e-05
8.90211e-05
-4.76215e-05
4.58978e-05
-3.02382e-05
-1.05259e-05
0.000232656
0.000248695
0.000261408
-8.89629e-05
0.000270238
-9.45303e-05
0.000274608
-9.86923e-05
0.000274302
-0.000101336
0.000268936
-0.000102292
0.000258305
-0.000101316
0.000242382
-9.82378e-05
0.000221248
-9.2929e-05
0.000195082
-8.5289e-05
0.000164144
-7.52481e-05
0.000128749
-6.27588e-05
8.92587e-05
-4.77936e-05
4.59999e-05
-3.03281e-05
-1.05528e-05
0.000269437
0.000277303
0.000280389
-0.000101162
0.000278842
-0.000103312
0.00027248
-0.000103787
0.000260997
-0.000102429
0.00024439
-9.90288e-05
0.000222712
-9.34662e-05
0.000196117
-8.56312e-05
0.000164848
-7.5447e-05
0.0001292
-6.2858e-05
8.95168e-05
-4.78292e-05
4.61107e-05
-3.03305e-05
-1.05492e-05
0.000286671
0.000283999
-0.000104972
0.000276515
-0.00010511
0.000264031
-0.000103334
0.000246656
-9.95926e-05
0.00022437
-9.37868e-05
0.00019729
-8.57715e-05
0.000165645
-7.54616e-05
0.00012971
-6.27994e-05
8.98092e-05
-4.77425e-05
4.62374e-05
-3.02547e-05
-1.05183e-05
0.000289257
0.000280935
0.000267446
-0.000103996
0.000249172
-9.99588e-05
0.000226226
-9.38991e-05
0.000198617
-8.57246e-05
0.000166554
-7.53089e-05
0.000130296
-6.25985e-05
9.01486e-05
-4.75458e-05
4.63869e-05
-3.01087e-05
-1.04631e-05
0.00027106
0.000251973
-0.000100032
0.000228292
-9.38338e-05
0.00020009
-8.54987e-05
0.000167587
-7.49945e-05
0.000130975
-6.22668e-05
9.0547e-05
-4.72496e-05
4.65655e-05
-2.9899e-05
-1.03857e-05
0.000254782
0.000230529
0.000201727
-8.50711e-05
0.000168731
-7.45289e-05
0.000131756
-6.18057e-05
9.10174e-05
-4.68608e-05
4.67794e-05
-2.96308e-05
-1.02878e-05
0.000203461
0.000169993
-7.38468e-05
0.000132628
-6.12167e-05
9.15629e-05
-4.63758e-05
4.70369e-05
-2.93039e-05
-1.01707e-05
0.000171276
0.000133559
9.21703e-05
-4.57654e-05
4.73363e-05
-2.89132e-05
-1.00304e-05
9.27948e-05
4.76495e-05
-2.84097e-05
-9.85791e-06
4.79542e-05
-9.6368e-06
)
;

boundaryField
{
    inlet
    {
        type            calculated;
        value           nonuniform 0();
    }
    outlet
    {
        type            calculated;
        value           uniform 0;
    }
    flap
    {
        type            calculated;
        value           nonuniform 0();
    }
    upperWall
    {
        type            calculated;
        value           nonuniform 0();
    }
    lowerWall
    {
        type            calculated;
        value           uniform 0;
    }
    frontAndBack
    {
        type            empty;
        value           nonuniform 0();
    }
    procBoundary5to2
    {
        type            processor;
        value           nonuniform List<scalar> 
34
(
-2.28799e-05
-2.95905e-05
-0.000130089
-4.14204e-05
-4.97258e-05
-0.000183401
-6.24604e-05
-0.000213861
-7.44143e-05
-8.21866e-05
-0.000257237
-9.16807e-05
-9.72662e-05
-0.000284213
-0.000102857
-0.00029233
-0.000105673
-0.000105919
-0.000285036
-0.00010401
-0.000274174
-9.93968e-05
-9.3379e-05
-0.000232602
-8.42051e-05
-0.000205001
-7.27266e-05
-6.03783e-05
-0.000134455
-4.49154e-05
-9.33836e-05
-2.77409e-05
-4.8266e-05
-9.36278e-06
)
;
    }
    procBoundary5to4
    {
        type            processor;
        value           nonuniform List<scalar> 
18
(
-0.0002048
-0.000202549
-0.000195829
-0.000184987
-0.000171704
-0.000157184
-0.000142559
-0.000128798
-0.000116619
-0.000106458
-9.85147e-05
-9.28327e-05
-8.93476e-05
-8.79353e-05
-8.84246e-05
1.58155e-05
-7.51754e-05
-8.14706e-05
)
;
    }
}


// ************************************************************************* //
