/*--------------------------------*- C++ -*----------------------------------*\
| =========                 |                                                 |
| \\      /  F ield         | OpenFOAM: The Open Source CFD Toolbox           |
|  \\    /   O peration     | Version:  dev                                   |
|   \\  /    A nd           | Web:      www.OpenFOAM.org                      |
|    \\/     M anipulation  |                                                 |
\*---------------------------------------------------------------------------*/
FoamFile
{
    version     2.0;
    format      ascii;
    class       surfaceVectorField;
    location    "1.18";
    object      Uf;
}
// * * * * * * * * * * * * * * * * * * * * * * * * * * * * * * * * * * * * * //

dimensions      [0 1 -1 0 0 0 0];

internalField   nonuniform List<vector> 
5457
(
(9.91196 1.66478e-20 0.0220568)
(9.96471 0 0.0369743)
(9.81688 3.8388e-20 0.0277477)
(9.9267 2.30226e-21 0.0412833)
(9.71168 7.00447e-22 0.0322676)
(9.86485 3.64845e-20 0.0474863)
(9.59395 -1.99494e-20 0.0369412)
(9.78234 1.01488e-20 0.0552398)
(9.46357 1.69979e-20 0.0417745)
(9.68528 -2.11435e-20 0.0635403)
(9.32068 2.22717e-20 0.0468025)
(9.5754 1.67555e-20 0.0722832)
(9.16506 -6.68289e-21 0.0521488)
(9.45217 -5.59628e-21 0.0816611)
(8.99622 1.3857e-20 0.0579365)
(9.31484 -1.19918e-20 0.0918698)
(8.81346 4.70365e-21 0.064276)
(9.16279 -6.28482e-20 0.103068)
(8.61593 -2.65279e-20 0.0712828)
(8.99536 9.18847e-20 0.115426)
(8.40261 -2.1771e-20 0.0790794)
(8.81167 -1.33407e-20 0.129133)
(8.17232 1.62221e-20 0.0877919)
(8.61069 -1.29333e-19 0.144386)
(7.9238 -2.8112e-21 0.0975578)
(8.39126 8.96913e-20 0.161382)
(7.65564 1.47978e-22 0.108535)
(8.15206 -3.18139e-20 0.180349)
(7.36632 3.03317e-20 0.1209)
(7.89166 3.29061e-20 0.20154)
(7.05422 0 0.134853)
(7.60849 8.55329e-21 0.225222)
(6.71759 0 0.150616)
(7.30086 -1.44239e-19 0.251688)
(6.35464 0 0.168412)
(6.96703 1.67781e-19 0.281232)
(5.96357 2.12009e-20 0.188453)
(6.60509 -3.15907e-19 0.314091)
(5.54273 -1.58217e-19 0.210945)
(6.2132 3.26665e-19 0.350423)
(5.09072 -4.04366e-19 0.236082)
(5.78965 1.69497e-19 0.390307)
(4.60644 -3.70501e-19 0.264027)
(5.33293 1.73219e-19 0.433682)
(4.08933 3.10884e-19 0.294887)
(4.84183 5.61678e-19 0.480265)
(3.53952 2.34499e-19 0.32869)
(4.31553 -1.05897e-18 0.529453)
(2.95807 -2.03311e-19 0.365333)
(3.75377 -2.13962e-19 0.580193)
(2.34725 -1.10658e-19 0.404473)
(3.15699 1.45809e-18 0.630736)
(1.71078 -5.58041e-19 0.445013)
(2.52617 8.5787e-19 0.678027)
(1.0547 -1.23696e-20 0.478578)
(1.86244 -2.17801e-18 0.715771)
(0.383397 -5.54736e-19 0.321305)
(1.14794 -1.29178e-18 0.725238)
(0.488554 9.19146e-19 0.433753)
(10.0033 -1.42518e-20 0.0440598)
(9.99572 0 0.0355621)
(9.97504 1.18176e-21 0.0570616)
(9.98681 -1.39896e-20 0.0535194)
(9.93026 4.53952e-20 0.0681237)
(9.95729 -3.39574e-20 0.0676576)
(9.87043 8.31994e-21 0.0800502)
(9.90726 6.09306e-20 0.0832675)
(9.79544 -2.06437e-20 0.0928085)
(9.84175 -6.34175e-20 0.100036)
(9.70537 -1.15532e-20 0.106411)
(9.76262 -4.40498e-20 0.117796)
(9.60011 -1.10374e-20 0.121105)
(9.66959 -1.14068e-20 0.136851)
(9.47929 -8.96456e-20 0.137162)
(9.56205 -7.21011e-20 0.157566)
(9.34235 2.71728e-20 0.154834)
(9.43951 -5.8176e-22 0.180263)
(9.18854 1.03158e-19 0.174389)
(9.30139 8.553e-20 0.205275)
(9.01697 -1.22993e-19 0.196118)
(9.14695 -1.02511e-19 0.232982)
(8.82655 -5.19713e-20 0.220322)
(8.97528 -1.15772e-19 0.26378)
(8.61609 5.85748e-20 0.247324)
(8.78534 1.8563e-19 0.298085)
(8.38423 2.08243e-21 0.277485)
(8.57594 1.25141e-19 0.336365)
(8.12948 1.0712e-20 0.311199)
(8.34575 -1.27277e-19 0.379139)
(7.85023 -1.38274e-19 0.348893)
(8.09329 -1.69217e-20 0.426962)
(7.54472 2.87496e-20 0.391024)
(7.81695 -4.29985e-19 0.480451)
(7.21106 -1.56073e-19 0.438014)
(7.51504 4.44147e-19 0.540259)
(6.84729 -3.92378e-22 0.490188)
(7.18566 -3.15922e-19 0.606947)
(6.45149 6.51698e-19 0.547765)
(6.82668 3.05657e-19 0.680944)
(6.02184 7.47632e-19 0.610825)
(6.43613 3.45371e-19 0.762548)
(5.55666 1.1106e-18 0.679212)
(6.01197 1.101e-18 0.85184)
(5.05452 -8.29551e-19 0.752425)
(5.55219 1.44248e-18 0.948534)
(4.51424 -1.49941e-18 0.829499)
(5.05467 -1.59312e-18 1.0518)
(3.93498 1.46066e-18 0.908778)
(4.51712 7.91189e-19 1.16004)
(3.31618 2.42718e-18 0.98741)
(3.93687 4.49014e-20 1.27049)
(2.65693 -7.5689e-19 1.06016)
(3.30982 -4.91124e-19 1.37843)
(1.95421 -3.45546e-18 1.11666)
(2.62967 -2.51644e-19 1.47441)
(1.18689 1.7971e-19 1.13911)
(1.85624 -1.50858e-18 1.54303)
(1.12511 1.83178e-18 1.55081)
(9.99626 0 0.0475932)
(9.99341 0 0.0371479)
(9.97183 -4.96271e-20 0.0673945)
(9.98207 9.30461e-21 0.0641587)
(9.93085 -1.65529e-20 0.0856922)
(9.95375 -3.88745e-20 0.0862102)
(9.87606 -1.32453e-20 0.105376)
(9.90674 1.02381e-20 0.109038)
(9.80774 -8.644e-20 0.126576)
(9.84501 1.03346e-23 0.133414)
(9.72583 -4.33004e-20 0.14934)
(9.77044 4.39759e-20 0.159328)
(9.63021 -7.36285e-20 0.173992)
(9.68293 0 0.187133)
(9.52064 1.82968e-20 0.200926)
(9.58205 -9.61891e-20 0.217307)
(9.39667 5.93797e-20 0.230538)
(9.46739 -3.77569e-20 0.250315)
(9.25768 -1.23565e-19 0.263263)
(9.33851 1.03811e-19 0.286651)
(9.1029 -9.55056e-20 0.29957)
(9.19479 -1.09787e-19 0.326859)
(8.93141 1.27215e-19 0.339956)
(9.03554 -1.08416e-21 0.37151)
(8.74218 2.51168e-19 0.384971)
(8.8599 1.18643e-19 0.421212)
(8.53405 -8.57271e-21 0.435228)
(8.66691 1.329e-19 0.476656)
(8.30567 -1.53046e-19 0.491394)
(8.4555 -1.33395e-19 0.538619)
(8.05561 -3.15559e-19 0.554193)
(8.22445 8.2041e-21 0.607923)
(7.78229 -8.28538e-23 0.624434)
(7.97235 -2.8581e-19 0.685485)
(7.48391 2.71959e-19 0.702922)
(7.69787 2.76467e-19 0.772362)
(7.15845 0 0.790326)
(7.39937 6.16082e-19 0.869565)
(6.80376 0 0.887155)
(7.07474 8.72975e-20 0.977897)
(6.41762 7.10221e-19 0.993745)
(6.72187 9.08343e-20 1.09803)
(5.99765 1.4377e-18 1.11012)
(6.33849 4.09881e-21 1.23047)
(5.54122 6.4147e-19 1.23581)
(5.92191 1.62959e-18 1.37538)
(5.04525 7.23465e-19 1.36961)
(5.46882 1.4083e-18 1.53231)
(4.50578 -6.24387e-19 1.50954)
(4.97494 -7.29318e-19 1.70008)
(3.91714 -2.8652e-18 1.65247)
(4.43416 -1.60175e-18 1.87655)
(3.26956 3.93947e-21 1.79383)
(3.83693 -4.67272e-18 2.05871)
(2.54244 1.68562e-18 1.92745)
(3.16924 4.69433e-18 2.2432)
(1.69541 2.00575e-19 2.08446)
(2.39906 3.07427e-21 2.42659)
(1.51961 -4.37703e-19 2.70307)
(9.99161 9.48075e-21 0.0542487)
(9.99196 -1.42956e-19 0.0406879)
(9.9674 1.90059e-20 0.0824106)
(9.97865 -6.48756e-20 0.074711)
(9.92721 -1.10701e-20 0.108865)
(9.95008 -9.64835e-21 0.104417)
(9.87336 2.32912e-20 0.136356)
(9.904 -4.05153e-20 0.134392)
(9.80649 1.31262e-19 0.165504)
(9.84362 1.15042e-22 0.166118)
(9.72657 8.64368e-20 0.196594)
(9.77068 -4.36079e-20 0.199894)
(9.63354 -2.43624e-20 0.230075)
(9.68523 0 0.236116)
(9.52727 -1.51164e-19 0.266477)
(9.58697 2.38516e-20 0.275325)
(9.40746 9.25377e-21 0.306359)
(9.47559 -1.25416e-19 0.318113)
(9.27364 1.13829e-19 0.350324)
(9.35072 1.30023e-19 0.365116)
(9.12523 -1.33726e-20 0.39901)
(9.2119 -2.30985e-19 0.417019)
(8.96155 -7.53973e-21 0.45309)
(9.05862 2.24664e-19 0.474525)
(8.78183 5.63642e-22 0.513309)
(8.89022 -7.41369e-21 0.538388)
(8.58522 3.49203e-21 0.580519)
(8.706 4.10069e-23 0.609485)
(8.37069 3.02728e-20 0.655645)
(8.50517 2.56674e-19 0.688814)
(8.13714 3.31206e-20 0.739681)
(8.28684 2.96393e-19 0.777431)
(7.8834 0 0.833768)
(8.04987 -5.5304e-19 0.876471)
(7.60815 6.25839e-19 0.939166)
(7.79329 -5.82835e-19 0.987317)
(7.30972 6.95691e-19 1.05702)
(7.51607 1.82353e-18 1.11149)
(6.98611 1.78673e-19 1.18828)
(7.21652 -6.16056e-19 1.25026)
(6.63514 -6.14867e-19 1.33378)
(6.89261 9.01727e-20 1.40476)
(6.2542 2.16262e-19 1.49417)
(6.5422 -6.95274e-19 1.57613)
(5.84 2.39281e-18 1.66966)
(6.16246 1.95105e-18 1.7653)
(5.38817 -5.64906e-20 1.85983)
(5.74953 2.31428e-19 1.97279)
(4.89252 -1.71162e-18 2.06356)
(5.2981 -3.01765e-18 2.1986)
(4.34349 -3.41325e-18 2.27934)
(4.80025 1.51352e-18 2.44237)
(3.72604 -2.11865e-20 2.5064)
(4.24393 -3.58668e-18 2.70366)
(3.01329 3.06318e-18 2.73992)
(3.60906 3.2119e-18 2.98531)
(2.20515 -6.42641e-19 3.02743)
(2.90856 2.81406e-18 3.26114)
(1.91663 -3.39055e-18 3.7397)
(9.9892 -2.15871e-19 0.0617657)
(9.99123 8.71477e-21 0.0452359)
(9.96455 -9.24251e-20 0.0969835)
(9.97676 -9.35658e-21 0.0854609)
(9.92503 -3.97227e-20 0.130517)
(9.94804 -5.55956e-23 0.122332)
(9.87213 -6.29278e-20 0.164986)
(9.90286 -1.20904e-19 0.159317)
(9.80656 -1.75659e-19 0.201453)
(9.84387 8.39883e-20 0.198209)
(9.72836 -1.29269e-19 0.240421)
(9.77262 -1.75326e-19 0.239628)
(9.63746 4.86766e-20 0.282407)
(9.68925 9.15312e-20 0.284023)
(9.53379 4.6919e-20 0.328021)
(9.59351 -4.70025e-20 0.331989)
(9.4171 0 0.377936)
(9.48514 0 0.384227)
(9.28704 -2.21257e-19 0.432875)
(9.36382 5.15433e-20 0.441493)
(9.14314 1.50478e-20 0.493593)
(9.2292 -1.49624e-21 0.504591)
(8.98487 2.20887e-19 0.560877)
(9.08088 2.54718e-19 0.574334)
(8.81167 -7.80878e-21 0.635607)
(8.91835 -2.69776e-20 0.651584)
(8.62292 2.57552e-19 0.718812)
(8.74108 -4.94068e-19 0.737359)
(8.41788 5.23593e-19 0.811624)
(8.54857 5.2129e-19 0.832847)
(8.19569 -3.03386e-19 0.91524)
(8.34013 2.5463e-19 0.93932)
(7.95549 -1.13663e-18 1.03101)
(8.11487 -5.53393e-19 1.0581)
(7.69643 6.51584e-19 1.16056)
(7.87195 -8.97667e-21 1.19073)
(7.41742 4.76559e-19 1.30553)
(7.6109 1.2142e-18 1.33914)
(7.11689 -6.94183e-19 1.4674)
(7.33068 -1.3168e-18 1.50517)
(6.79288 -5.70612e-22 1.64757)
(7.02951 -1.3662e-18 1.69049)
(6.44296 1.07122e-18 1.84745)
(6.70555 -1.51345e-19 1.89691)
(6.06375 -2.2143e-19 2.06827)
(6.35625 -1.5016e-18 2.1263)
(5.65051 -2.75435e-18 2.31093)
(5.97786 1.3746e-18 2.38036)
(5.19634 2.21313e-19 2.57598)
(5.56497 -5.81035e-18 2.66064)
(4.69079 1.32065e-18 2.86349)
(5.1096 4.61977e-18 2.96855)
(4.11908 -3.83692e-19 3.17507)
(4.60085 -3.79552e-19 3.30446)
(3.45148 2.95796e-18 3.50081)
(4.0093 1.89845e-19 3.67612)
(2.72774 -5.15234e-19 3.88237)
(3.41917 6.0047e-18 4.00697)
(2.33851 -6.05761e-18 4.63149)
(9.98798 2.14869e-19 0.0696842)
(9.99086 1.51775e-19 0.0502977)
(9.96301 8.32312e-20 0.111385)
(9.97583 -6.42168e-20 0.0963558)
(9.92429 -8.37195e-20 0.151766)
(9.94727 1.05171e-22 0.139896)
(9.87265 3.00631e-20 0.193229)
(9.90315 -2.02793e-20 0.183671)
(9.80869 7.93324e-20 0.237046)
(9.84573 1.26201e-19 0.229543)
(9.73251 5.05497e-20 0.283866)
(9.77647 1.3118e-19 0.278371)
(9.6441 -6.75942e-21 0.334248)
(9.69554 -8.97949e-20 0.33068)
(9.54337 -9.31125e-20 0.38887)
(9.60271 7.3057e-23 0.38712)
(9.43012 5.24727e-20 0.44851)
(9.49776 -9.82096e-20 0.44849)
(9.30406 2.70492e-19 0.514001)
(9.3804 -2.5693e-19 0.515651)
(9.16482 2.42741e-19 0.586204)
(9.25034 2.67774e-19 0.589507)
(9.01197 1.93039e-21 0.666003)
(9.1073 2.78965e-19 0.670959)
(8.8451 -5.21189e-19 0.75439)
(8.9509 1.97021e-21 0.760954)
(8.66378 -2.13896e-19 0.852544)
(8.78069 -5.16811e-19 0.860607)
(8.46749 2.47978e-19 0.961801)
(8.5964 2.52794e-19 0.971286)
(8.25554 -8.13331e-21 1.08355)
(8.39756 -8.26521e-21 1.09449)
(8.02722 5.83031e-19 1.21931)
(8.18342 0 1.2317)
(7.78193 5.72739e-19 1.37091)
(7.95324 1.00129e-20 1.3846)
(7.51908 -6.15239e-19 1.54042)
(7.70682 5.8633e-19 1.55532)
(7.23763 -1.98877e-18 1.72989)
(7.44363 -6.88771e-19 1.74621)
(6.936 -1.50412e-18 1.94137)
(7.16229 -1.44348e-18 1.95955)
(6.61211 -2.73304e-18 2.1771)
(6.86136 1.06362e-20 2.19786)
(6.26299 1.13185e-19 2.4393)
(6.53885 -2.55804e-18 2.46391)
(5.88428 -1.71875e-18 2.73018)
(6.19154 2.46052e-18 2.7605)
(5.46946 -1.39311e-18 3.05192)
(5.81449 -4.30857e-18 3.09055)
(5.00895 2.92281e-18 3.40559)
(5.40049 1.02211e-19 3.45689)
(4.49134 1.867e-19 3.79247)
(4.9423 2.99327e-18 3.8584)
(3.88212 3.1536e-18 4.19325)
(4.39482 -2.51478e-18 4.30907)
(3.24015 -8.67906e-19 4.63017)
(3.92644 6.00312e-18 4.66725)
(2.77191 -3.19086e-18 5.39282)
(9.9874 -1.31527e-19 0.0778055)
(9.99068 1.50629e-19 0.0556035)
(9.96242 -1.46096e-19 0.125621)
(9.97549 -1.3807e-19 0.10726)
(9.92464 6.3164e-20 0.172549)
(9.94743 1.34117e-19 0.15705)
(9.87445 7.87802e-20 0.220786)
(9.90454 4.03145e-20 0.207366)
(9.81234 1.78146e-19 0.271693)
(9.84883 -4.16719e-20 0.26001)
(9.73849 -1.33635e-20 0.326039)
(9.78181 1.74838e-19 0.315979)
(9.65294 -8.14034e-20 0.384458)
(9.70365 -9.09787e-20 0.375894)
(9.55561 -6.77609e-21 0.447715)
(9.61412 9.49959e-20 0.440481)
(9.44631 -4.10555e-19 0.516685)
(9.51307 9.82205e-20 0.51063)
(9.32478 -2.50732e-19 0.592294)
(9.40019 -4.60789e-19 0.587299)
(9.19073 3.04157e-19 0.675485)
(9.27527 2.11317e-19 0.671455)
(9.04387 2.74474e-19 0.767226)
(9.13815 -2.54044e-20 0.764067)
(8.88386 -2.00705e-21 0.868587)
(8.98854 2.89952e-20 0.866178)
(8.71043 -3.75243e-20 0.980864)
(8.82605 -2.27574e-22 0.978961)
(8.52325 -7.72391e-21 1.1056)
(8.65047 -7.84957e-21 1.10392)
(8.32179 0 1.24439)
(8.46167 -5.31612e-19 1.24281)
(8.10548 -5.7301e-19 1.39887)
(8.25909 1.06483e-18 1.39728)
(7.87388 3.07788e-20 1.57102)
(8.04201 -1.12294e-18 1.5691)
(7.6266 4.96494e-19 1.76324)
(7.81041 -5.66611e-19 1.76061)
(7.363 -1.52883e-19 1.97807)
(7.564 1.17371e-18 1.97453)
(7.08198 8.67175e-20 2.21818)
(7.3018 -1.2229e-18 2.2137)
(6.78197 1.6043e-19 2.48662)
(7.02276 -1.08432e-18 2.48124)
(6.46065 -1.69624e-19 2.78663)
(6.72569 0 2.78079)
(6.11438 -1.67829e-19 3.12146)
(6.40797 -3.665e-21 3.11621)
(5.7377 -2.80175e-18 3.49434)
(6.06541 0 3.4913)
(5.32199 1.38723e-19 3.90657)
(5.69158 -2.79787e-18 3.90987)
(4.85942 3.47771e-19 4.35798)
(5.28417 2.97704e-18 4.36763)
(4.30928 8.26967e-21 4.81946)
(4.77602 -2.76715e-18 4.88827)
(3.72844 2.72352e-18 5.28709)
(4.42243 4.57551e-18 5.26123)
(3.2038 -3.02035e-18 6.0579)
(9.98718 1.38631e-19 0.08597)
(9.99062 1.79878e-20 0.0610006)
(9.96251 1.47859e-19 0.139595)
(9.97557 1.28734e-19 0.118039)
(9.92583 1.09372e-19 0.192763)
(9.94829 1.91417e-19 0.173724)
(9.87725 -8.18258e-20 0.24753)
(9.90681 -2.39127e-19 0.23033)
(9.81719 -4.08862e-20 0.305261)
(9.85303 2.07243e-19 0.289509)
(9.74596 9.22216e-20 0.366822)
(9.78855 0 0.352311)
(9.66362 8.88904e-20 0.432945)
(9.71349 9.05693e-20 0.419488)
(9.57009 2.00073e-19 0.504481)
(9.62765 0 0.491853)
(9.46524 3.84018e-20 0.582397)
(9.5309 1.51982e-21 0.570378)
(9.34882 1.29179e-20 0.667687)
(9.42298 1.5027e-19 0.656111)
(9.22064 -1.22304e-19 0.761348)
(9.3038 -5.10486e-20 0.75005)
(9.0805 -2.70343e-19 0.864427)
(9.17327 -5.7523e-20 0.853219)
(8.92813 3.03037e-20 0.978079)
(9.0312 0 0.966779)
(8.76328 2.93736e-20 1.10367)
(8.87729 -4.42289e-19 1.09198)
(8.58581 -5.39861e-19 1.24291)
(8.71112 4.8559e-19 1.23036)
(8.39547 5.56217e-19 1.39761)
(8.53296 -1.02389e-18 1.38387)
(8.19182 4.8551e-19 1.56956)
(8.34263 2.63775e-18 1.55441)
(7.97451 -1.71341e-18 1.76087)
(8.1394 -1.61874e-18 1.74385)
(7.74333 1.29455e-19 1.97421)
(7.92328 -2.26961e-18 1.95468)
(7.49786 7.80646e-20 2.21255)
(7.69424 2.39639e-18 2.19)
(7.23736 -2.39489e-18 2.47908)
(7.45172 -2.31436e-18 2.45312)
(6.96086 -1.2372e-18 2.77751)
(7.19495 -1.23979e-18 2.74759)
(6.66683 1.65441e-19 3.11199)
(6.92328 -3.69128e-18 3.07777)
(6.35227 1.6427e-19 3.48677)
(6.63484 2.66471e-18 3.44861)
(6.01291 0 3.9057)
(6.3264 0 3.86464)
(5.64076 0 4.3696)
(5.99168 1.56762e-19 4.33034)
(5.23002 -8.22854e-20 4.87687)
(5.63405 2.50896e-18 4.83722)
(4.73389 1.48371e-18 5.39142)
(5.15953 -2.5716e-18 5.42228)
(4.19257 -2.18169e-18 5.88261)
(4.90662 2.2055e-18 5.8108)
(3.63043 -2.90109e-18 6.66741)
(9.98723 9.94965e-21 0.0940536)
(9.99073 -1.32767e-19 0.0663748)
(9.96313 1.73619e-19 0.153206)
(9.97606 3.2032e-19 0.128576)
(9.92774 -1.65862e-19 0.212315)
(9.94972 -1.52566e-19 0.189832)
(9.88102 5.87135e-20 0.273355)
(9.90987 -4.02416e-20 0.252445)
(9.82335 2.44276e-19 0.337627)
(9.85837 -8.14114e-20 0.317881)
(9.75508 0 0.406072)
(9.79676 0 0.387194)
(9.6763 0 0.479537)
(9.72515 0 0.461277)
(9.58697 -1.98665e-19 0.558956)
(9.64339 -1.86406e-19 0.541036)
(9.48697 1.15887e-19 0.64537)
(9.5513 -2.77334e-21 0.627515)
(9.37615 8.30442e-20 0.739824)
(9.44873 3.02375e-19 0.72181)
(9.25444 1.35656e-20 0.843358)
(9.33577 -2.11104e-19 0.824942)
(9.12172 2.14099e-19 0.957107)
(9.21233 5.43447e-19 0.937998)
(8.9778 -4.79706e-19 1.08234)
(9.07841 -4.46247e-19 1.06226)
(8.82238 2.75986e-20 1.22047)
(8.93378 -4.72796e-19 1.19913)
(8.65534 -2.00416e-20 1.37325)
(8.7779 4.26469e-19 1.35012)
(8.4768 1.10875e-18 1.54272)
(8.61119 6.39672e-21 1.5172)
(8.28658 4.78384e-19 1.73086)
(8.43381 1.03079e-18 1.70253)
(8.08434 -2.18365e-18 1.93994)
(8.24532 -2.13298e-18 1.90828)
(7.87002 4.8567e-20 2.17283)
(8.04559 -3.67862e-20 2.13697)
(7.64355 -4.40502e-20 2.43291)
(7.83479 1.14791e-18 2.39198)
(7.4045 -1.15408e-18 2.72384)
(7.613 -1.15224e-18 2.67711)
(7.15219 -3.70461e-18 3.04984)
(7.37971 7.37514e-21 2.99639)
(6.88573 -1.17816e-18 3.41584)
(7.13422 -3.7882e-18 3.35472)
(6.60303 2.49966e-18 3.82702)
(6.87562 2.50707e-18 3.75795)
(6.30058 1.56224e-19 4.28792)
(6.60181 0 4.21135)
(5.97067 2.6487e-18 4.79869)
(6.3057 -2.68117e-18 4.72043)
(5.60779 -1.65484e-21 5.35708)
(5.99701 4.88736e-18 5.27248)
(5.16005 -1.89027e-18 5.92389)
(5.55272 -2.48462e-18 5.92033)
(4.64302 5.78287e-19 6.44607)
(5.38672 -3.89628e-18 6.33529)
(4.05725 1.03418e-17 7.25859)
(9.98759 1.86041e-19 0.101945)
(9.99098 -2.80431e-19 0.0715976)
(9.96426 -1.5892e-20 0.166363)
(9.97689 7.33511e-20 0.13878)
(9.9303 -2.46152e-20 0.2311)
(9.95159 -1.15029e-19 0.205311)
(9.88571 -1.81217e-19 0.298106)
(9.91352 1.9845e-19 0.273584)
(9.8308 -3.24358e-19 0.368606)
(9.86459 -1.66089e-19 0.344948)
(9.76586 0 0.443596)
(9.80615 2.56438e-19 0.420449)
(9.69102 -1.89813e-19 0.52403)
(9.73829 -8.86696e-20 0.501073)
(9.60626 1.27514e-20 0.610927)
(9.66092 -1.86585e-19 0.587832)
(9.51146 1.89035e-19 0.705371)
(9.57387 1.92771e-19 0.681845)
(9.40659 -3.70459e-22 0.808426)
(9.47709 -7.92532e-22 0.784196)
(9.29172 3.3117e-19 0.921169)
(9.37075 4.13552e-19 0.895912)
(9.16684 -1.32486e-19 1.04483)
(9.25487 7.47325e-21 1.01814)
(9.0319 -4.39896e-19 1.18084)
(9.12953 -4.46911e-19 1.15229)
(8.88664 -6.075e-20 1.33067)
(8.99464 4.59133e-19 1.29993)
(8.73096 4.46959e-19 1.49607)
(8.84988 -4.7186e-19 1.46261)
(8.56507 -5.78236e-20 1.67914)
(8.69554 -4.798e-19 1.6422)
(8.38911 -1.62208e-18 1.88216)
(8.53188 5.52585e-19 1.84105)
(8.20292 3.79559e-20 2.10759)
(8.35896 -1.07311e-18 2.06166)
(8.0065 1.07646e-18 2.35841)
(8.17665 1.08838e-18 2.30669)
(7.80009 1.77359e-20 2.63837)
(7.98526 0 2.5796)
(7.58375 1.74744e-20 2.95166)
(7.78533 -1.73093e-20 2.88466)
(7.35698 -9.28307e-20 3.30293)
(7.57685 -2.25699e-18 3.22653)
(7.11922 -8.75376e-20 3.6978)
(7.35913 -2.25339e-20 3.61058)
(6.86929 4.73981e-21 4.14228)
(7.13194 2.29408e-18 4.04335)
(6.60424 -2.82719e-18 4.64189)
(6.89425 0 4.53108)
(6.3161 -5.21962e-19 5.19686)
(6.63759 -2.27825e-18 5.08088)
(5.99846 2.39903e-18 5.80594)
(6.37832 2.38356e-18 5.67707)
(5.59643 -4.49533e-18 6.43012)
(5.96529 2.15162e-18 6.38936)
(5.0972 8.09548e-18 7.00215)
(5.87728 -8.26981e-18 6.84958)
(4.49797 1.2763e-17 7.86344)
(9.98812 -3.86659e-19 0.109555)
(9.9913 -2.79907e-19 0.0765983)
(9.96572 -2.98996e-20 0.179005)
(9.97789 -7.31171e-20 0.14859)
(9.93327 1.14382e-19 0.249052)
(9.95378 -1.13244e-19 0.220122)
(9.89095 2.06591e-19 0.321669)
(9.91764 1.18216e-19 0.293688)
(9.839 4.22964e-19 0.398052)
(9.87144 -1.62143e-19 0.370614)
(9.77762 1.61537e-19 0.47923)
(9.81635 1.52517e-21 0.451958)
(9.70698 -8.71473e-20 0.566236)
(9.75248 -8.87552e-20 0.538741)
(9.62711 0 0.660176)
(9.67976 0 0.632066)
(9.53796 -4.09857e-22 0.762169)
(9.59809 9.48265e-20 0.733125)
(9.43955 4.20102e-19 0.873263)
(9.50758 -3.94899e-19 0.842985)
(9.33202 8.34641e-20 0.994559)
(9.4084 6.17554e-19 0.962658)
(9.21545 -3.14179e-19 1.12737)
(9.30063 -2.13972e-19 1.09336)
(9.0899 4.66164e-19 1.27325)
(9.18434 -1.08799e-19 1.2366)
(8.95534 3.53953e-20 1.43381)
(9.05958 4.5995e-19 1.39403)
(8.81178 -1.40015e-18 1.61078)
(8.92652 -5.28548e-19 1.5673)
(8.6594 1.42409e-19 1.80626)
(8.78522 -1.39857e-19 1.75826)
(8.4985 1.08565e-18 2.02277)
(8.63603 5.51977e-20 1.96936)
(8.32924 0 2.26298)
(8.47939 1.25684e-19 2.2033)
(8.15184 0 2.53001)
(8.31546 -1.03644e-18 2.46293)
(7.96671 -3.51945e-20 2.82786)
(8.14468 2.10979e-18 2.75183)
(7.7743 -2.30643e-18 3.16123)
(7.96787 -3.2507e-20 3.0746)
(7.57469 -2.18911e-18 3.53528)
(7.78554 -2.26389e-18 3.43651)
(7.3676 2.35674e-18 3.95633)
(7.59759 2.2482e-18 3.84348)
(7.15241 2.29884e-18 4.43129)
(7.40418 -2.05574e-18 4.30275)
(6.92664 5.62438e-19 4.96698)
(7.20523 2.43164e-18 4.82182)
(6.68197 5.69221e-19 5.56504)
(6.99101 2.40259e-18 5.41017)
(6.41004 2.14191e-18 6.22772)
(6.78435 -1.58163e-18 6.05148)
(6.05646 -1.31636e-18 6.91909)
(6.41013 2.15706e-18 6.8314)
(5.57825 -2.36663e-19 7.57108)
(6.39898 -4.27378e-18 7.36301)
(4.97559 2.44021e-18 8.51101)
(9.9887 3.76009e-20 0.116831)
(9.99163 1.37319e-21 0.0813559)
(9.96738 -1.57488e-19 0.191075)
(9.979 -2.51994e-19 0.157938)
(9.93663 -1.0487e-19 0.266116)
(9.95628 -2.26688e-19 0.234187)
(9.89672 -2.56066e-19 0.343979)
(9.92227 1.96188e-19 0.31269)
(9.84787 -5.80932e-19 0.425878)
(9.87896 -2.455e-19 0.394806)
(9.79026 -2.5064e-19 0.512866)
(9.82743 -1.70771e-19 0.481617)
(9.72406 0 0.606021)
(9.76781 -8.82138e-20 0.574159)
(9.64937 9.64821e-20 0.706519)
(9.69995 3.63711e-19 0.673586)
(9.56624 -3.07854e-19 0.815507)
(9.62392 5.63795e-22 0.781141)
(9.47479 -1.8173e-19 0.934023)
(9.54003 -1.01663e-19 0.897887)
(9.37518 3.07422e-19 1.0632)
(9.4484 4.07138e-19 1.02485)
(9.26747 -6.68545e-21 1.20443)
(9.34916 -4.1517e-19 1.16333)
(9.15177 -1.0737e-19 1.35931)
(9.24238 4.30828e-19 1.31488)
(9.02835 -1.17487e-19 1.52953)
(9.12826 -4.4281e-19 1.48113)
(8.89737 7.38546e-19 1.71687)
(9.00731 -4.59684e-19 1.66385)
(8.75908 -2.2378e-19 1.92351)
(8.87957 1.43024e-18 1.86496)
(8.61392 -9.07281e-19 2.15204)
(8.74546 -9.26862e-19 2.08691)
(8.46239 -9.2269e-19 2.40531)
(8.60584 -1.20575e-19 2.33253)
(8.30496 1.09769e-18 2.68664)
(8.46107 -2.04707e-18 2.60482)
(8.14233 2.10489e-18 3.00019)
(8.31192 2.1146e-18 2.90755)
(7.97527 4.9346e-21 3.35106)
(8.15949 1.95656e-21 3.24554)
(7.80451 2.18509e-18 3.74504)
(8.00483 1.03924e-18 3.6245)
(7.63038 -2.16512e-18 4.18911)
(7.8487 9.93048e-20 4.05102)
(7.45273 -1.96031e-18 4.69132)
(7.69184 -4.88484e-18 4.53315)
(7.26976 4.28092e-18 5.26033)
(7.53531 2.18531e-18 5.0798)
(7.07352 3.12537e-19 5.90071)
(7.36916 1.84599e-18 5.70353)
(6.85298 -1.58932e-18 6.62124)
(7.22222 -2.0828e-18 6.39093)
(6.55869 -5.18258e-19 7.39301)
(6.90346 0 7.24062)
(6.11721 -4.78727e-19 8.16941)
(6.97934 -2.28681e-18 7.87698)
(5.52624 1.97974e-18 9.22922)
(9.98934 -2.93064e-19 0.123726)
(9.99195 1.44324e-21 0.0858452)
(9.96929 -3.20811e-19 0.20249)
(9.98019 -2.87692e-19 0.166747)
(9.94045 8.28693e-20 0.282199)
(9.95905 -7.50775e-20 0.247403)
(9.90316 1.985e-19 0.364946)
(9.92734 1.56351e-19 0.330492)
(9.85763 1.66368e-19 0.451982)
(9.88705 7.64772e-22 0.417421)
(9.80403 -6.72538e-21 0.544385)
(9.83928 8.85079e-22 0.509302)
(9.74252 2.83432e-19 0.64326)
(9.78412 -8.83111e-20 0.607194)
(9.67321 2.61887e-19 0.749809)
(9.72133 1.83392e-19 0.712277)
(9.59631 2.05361e-19 0.865189)
(9.65117 -9.53077e-20 0.825783)
(9.51204 4.95765e-19 0.990452)
(9.57413 4.86442e-19 0.948766)
(9.4206 -3.28116e-19 1.1268)
(9.49028 -1.96343e-19 1.08232)
(9.3221 3.43792e-20 1.27568)
(9.3998 -1.10547e-19 1.22782)
(9.21675 8.39754e-20 1.43867)
(9.30292 2.21004e-19 1.38682)
(9.10494 -7.86018e-19 1.61749)
(9.19993 -7.69562e-21 1.5609)
(8.98703 2.53957e-19 1.81402)
(9.09148 -9.06407e-19 1.75192)
(8.86336 7.02342e-19 2.03045)
(8.97775 1.04781e-18 1.96188)
(8.73459 -1.30404e-19 2.26943)
(8.85935 1.7635e-21 2.19318)
(8.6015 -1.26235e-18 2.53392)
(8.73735 8.36752e-19 2.4487)
(8.46488 -1.00619e-18 2.82736)
(8.61246 -1.98822e-18 2.73157)
(8.32577 -4.71296e-21 3.15412)
(8.48578 2.43921e-19 3.04568)
(8.18546 1.04115e-18 3.51955)
(8.35886 9.97344e-19 3.39599)
(8.04529 -1.04617e-18 3.93002)
(8.23329 4.92011e-20 3.78853)
(7.9065 -2.60968e-18 4.39316)
(8.11092 -5.93745e-19 4.23042)
(7.76988 -7.73114e-19 4.91824)
(7.9935 4.70243e-19 4.73049)
(7.63488 -2.60465e-19 5.51626)
(7.88393 1.64586e-18 5.29908)
(7.49561 -4.90078e-19 6.1962)
(7.77377 -1.8859e-18 5.9519)
(7.33901 -4.93213e-19 6.97674)
(7.69783 -4.94811e-19 6.6829)
(7.127 -1.79262e-18 7.84282)
(7.46344 -1.67265e-18 7.59868)
(6.75882 1.21007e-18 8.80863)
(7.65402 -5.81858e-20 8.37674)
(6.20549 2.00974e-18 10.0458)
(9.99002 1.49276e-21 0.130201)
(9.99229 5.35324e-19 0.0900522)
(9.97132 -3.747e-20 0.213183)
(9.98146 5.90533e-19 0.174979)
(9.9445 2.91549e-21 0.297221)
(9.96198 2.59737e-19 0.259722)
(9.90993 -4.44218e-20 0.384482)
(9.93269 1.16362e-19 0.347046)
(9.86785 -1.64879e-19 0.476259)
(9.89552 -2.41805e-19 0.438397)
(9.81843 -8.23349e-20 0.573664)
(9.85165 3.33523e-19 0.534932)
(9.76178 -1.83953e-19 0.677817)
(9.80111 -6.29501e-23 0.637751)
(9.69807 -1.78729e-19 0.789908)
(9.74357 -2.43785e-21 0.748018)
(9.62765 1.95088e-19 0.911078)
(9.67954 -1.85423e-19 0.8669)
(9.55081 -2.16596e-19 1.04242)
(9.6096 1.23849e-21 0.995476)
(9.46776 2.25589e-20 1.18519)
(9.53373 -4.00738e-19 1.13492)
(9.37874 8.10522e-20 1.34087)
(9.45223 4.11705e-19 1.28665)
(9.2841 1.25995e-19 1.511)
(9.36553 -5.96749e-21 1.45216)
(9.1843 -1.38328e-19 1.69733)
(9.27397 7.58292e-21 1.63304)
(9.07985 -9.12586e-20 1.90178)
(9.17826 -2.32753e-19 1.83117)
(8.97131 3.35815e-19 2.12656)
(9.07891 2.36114e-19 2.0486)
(8.8595 9.77963e-19 2.37429)
(8.97669 -1.18766e-19 2.28766)
(8.74545 9.27098e-20 2.64799)
(8.8728 2.25999e-18 2.55122)
(8.63036 -7.25387e-19 2.95116)
(8.76835 -1.93225e-18 2.84241)
(8.51567 1.24966e-18 3.28827)
(8.66483 -1.19391e-18 3.16517)
(8.40323 1.92362e-21 3.66483)
(8.56425 1.72945e-18 3.52451)
(8.2952 5.04034e-19 4.08755)
(8.46892 -1.48255e-18 3.92652)
(8.19403 2.49806e-18 4.56457)
(8.3819 2.48319e-18 4.37851)
(8.10217 2.89442e-18 5.10621)
(8.30647 9.77712e-19 4.88976)
(8.02145 4.92842e-20 5.72555)
(8.24823 1.46895e-18 5.47152)
(7.95052 -1.90289e-18 6.43687)
(8.20271 -1.89982e-18 6.14165)
(7.87818 -1.6799e-18 7.2708)
(8.21157 0 6.90414)
(7.78814 -2.4178e-19 8.23587)
(8.10314 -1.53137e-19 7.86558)
(7.56895 1.66097e-18 9.48733)
(8.46395 7.7973e-19 8.8089)
(7.09251 -3.54726e-18 10.9892)
(9.99075 1.12587e-18 0.136226)
(9.99266 1.06397e-18 0.093953)
(9.97349 8.8123e-19 0.223114)
(9.98283 8.70536e-19 0.182598)
(9.94878 3.7046e-19 0.311142)
(9.96509 2.27853e-20 0.271109)
(9.91702 -8.7801e-20 0.402541)
(9.93829 3.69322e-19 0.36231)
(9.8785 2.67274e-19 0.498649)
(9.90439 6.23184e-20 0.457679)
(9.83339 4.10224e-19 0.600629)
(9.86456 3.4752e-19 0.558444)
(9.78177 1.81596e-19 0.709601)
(9.81874 -1.61907e-19 0.665755)
(9.7239 -1.19754e-20 0.8267)
(9.76664 1.39766e-20 0.7807)
(9.66021 -3.76693e-19 0.95305)
(9.70898 -1.4689e-20 0.90437)
(9.59102 -1.88974e-19 1.0898)
(9.6463 1.62674e-19 1.03791)
(9.51656 0 1.23827)
(9.5786 -1.84221e-19 1.18258)
(9.43723 3.1908e-19 1.39988)
(9.50636 0 1.33973)
(9.35348 -1.2415e-19 1.57618)
(9.43009 5.17536e-19 1.51083)
(9.26587 -9.00299e-20 1.76889)
(9.35023 -2.38098e-19 1.69748)
(9.17509 9.98766e-20 1.97996)
(9.26756 3.39195e-19 1.90152)
(9.08198 -2.22916e-19 2.21159)
(9.18289 -8.55177e-19 2.12497)
(8.98752 1.18413e-18 2.46632)
(9.09721 -8.52714e-19 2.37015)
(8.89294 2.08131e-19 2.74713)
(9.01196 1.84618e-18 2.6398)
(8.79988 -2.3993e-18 3.0575)
(8.9285 -1.84775e-18 2.93698)
(8.71024 -7.10133e-19 3.40186)
(8.8487 5.08753e-19 3.26553)
(8.62643 2.43475e-19 3.78569)
(8.77517 5.20738e-19 3.63035)
(8.55163 4.82686e-19 4.21561)
(8.711 -1.81857e-18 4.03719)
(8.48978 9.63109e-19 4.69982)
(8.66055 -2.87089e-19 4.49302)
(8.44566 -4.60929e-19 5.24897)
(8.62899 1.266e-18 5.00675)
(8.42481 -4.53975e-19 5.8769)
(8.62506 -1.66021e-18 5.58922)
(8.43353 0 6.60189)
(8.65063 3.13862e-18 6.25762)
(8.47024 1.53505e-18 7.46248)
(8.75528 -7.69768e-20 7.02272)
(8.55605 9.31672e-19 8.49564)
(8.81623 1.52554e-18 7.97413)
(8.63848 -5.61126e-18 10.1779)
(9.50948 -4.7733e-19 9.00536)
(9.40941 -3.27308e-18 11.971)
(0.325056 0 -0.206663)
(0.147648 5.22871e-20 -0.245749)
(0.6436 -8.47058e-20 -0.172735)
(0.379405 -9.92512e-20 -0.213392)
(0.983325 -9.35553e-20 -0.14548)
(0.680125 6.94974e-21 -0.195806)
(1.33876 -4.01054e-20 -0.127754)
(0.998518 -8.35592e-20 -0.18467)
(1.68988 -6.09892e-20 -0.115154)
(1.31834 2.0801e-21 -0.173566)
(2.01411 -2.00783e-20 -0.104534)
(1.61612 -2.01474e-19 -0.160003)
(2.29538 0 -0.0939845)
(1.87059 2.34451e-21 -0.142824)
(2.52588 0 -0.0824605)
(2.06986 3.34117e-19 -0.122035)
(2.70216 4.21625e-20 -0.0693236)
(2.20997 -1.2754e-19 -0.0977946)
(2.822 4.17471e-20 -0.0538443)
(2.28911 2.0594e-20 -0.0699433)
(2.8827 2.03913e-20 -0.0353499)
(2.30706 2.10734e-20 -0.03826)
(2.88254 -1.95244e-20 -0.0147604)
(2.26958 -2.08219e-20 -0.00364995)
(2.82846 -9.60996e-22 0.00471557)
(2.18967 -7.9827e-20 0.0285347)
(2.73398 5.7337e-20 0.0203227)
(2.07583 -1.87763e-20 0.0535351)
(2.61163 9.90008e-21 0.0313022)
(1.9382 7.50024e-20 0.0712942)
(2.47282 2.10721e-20 0.0376379)
(1.78639 -6.36572e-20 0.0822202)
(2.32833 4.17099e-20 0.0394712)
(1.63053 -4.41112e-21 0.0864056)
(2.18838 1.56873e-20 0.037186)
(1.48044 -3.82788e-21 0.0840974)
(2.06227 -7.44146e-23 0.0314894)
(1.34534 3.68253e-21 0.0758032)
(1.95825 -3.64553e-21 0.0232055)
(1.23311 3.28927e-21 0.062124)
(1.88444 -1.19501e-20 0.0129951)
(1.15177 -6.83929e-21 0.0431673)
(1.84919 -1.20056e-21 0.00184818)
(1.11166 -6.36238e-21 0.0187552)
(1.85779 1.09398e-20 -0.0109353)
(1.11415 -1.0498e-20 -0.00918204)
(1.92054 0 -0.0302336)
(1.1616 -7.52637e-21 -0.0439076)
(2.05715 7.30685e-21 -0.0612295)
(1.27618 2.30085e-21 -0.0915758)
(2.2867 7.36071e-21 -0.106405)
(1.47101 1.73217e-21 -0.151894)
(2.62402 -4.34365e-21 -0.166325)
(1.75324 -1.66868e-21 -0.22233)
(3.08066 -1.39736e-21 -0.238138)
(2.12687 -7.62553e-21 -0.300964)
(3.66813 2.82352e-21 -0.319427)
(2.60594 -2.21464e-21 -0.388155)
(3.2724 -2.2587e-21 -0.492247)
(0.154283 -4.28457e-20 -0.334182)
(0.0479999 1.57341e-18 -0.403785)
(0.404129 -2.03094e-20 -0.31392)
(0.171877 -1.3659e-18 -0.374853)
(0.685607 1.22594e-20 -0.295225)
(0.403521 8.03065e-19 -0.353244)
(0.974943 -4.45472e-20 -0.278538)
(0.641243 2.20488e-21 -0.331123)
(1.24632 -1.42682e-19 -0.257893)
(0.868502 -4.10506e-20 -0.304634)
(1.47486 -1.77497e-19 -0.230883)
(1.06006 -1.41141e-19 -0.270809)
(1.64549 3.42221e-19 -0.197093)
(1.19752 2.35978e-21 -0.228919)
(1.75136 2.0236e-19 -0.156853)