/*--------------------------------*- C++ -*----------------------------------*\
| =========                 |                                                 |
| \\      /  F ield         | OpenFOAM: The Open Source CFD Toolbox           |
|  \\    /   O peration     | Version:  dev                                   |
|   \\  /    A nd           | Web:      www.OpenFOAM.org                      |
|    \\/     M anipulation  |                                                 |
\*---------------------------------------------------------------------------*/
FoamFile
{
    version     2.0;
    format      ascii;
    class       volVectorField;
    location    "0.66";
    object      U;
}
// * * * * * * * * * * * * * * * * * * * * * * * * * * * * * * * * * * * * * //

dimensions      [0 1 -1 0 0 0 0];

internalField   nonuniform List<vector> 
465
(
(6.41398 -2.8424e-20 5.69704)
(6.60732 3.43842e-20 5.54944)
(7.45448 0 5.49551)
(7.66283 0 5.36977)
(7.86629 -1.42643e-21 5.17039)
(8.05598 0 4.89522)
(8.66402 0 5.33262)
(8.79707 -5.02407e-22 5.18728)
(8.9687 -3.46327e-20 4.98972)
(9.15528 3.30411e-20 4.72775)
(9.3408 -3.75236e-20 4.39499)
(10.2164 0 5.32423)
(10.1965 -1.29788e-20 5.10061)
(10.2547 3.06307e-20 4.8587)
(10.365 -2.73768e-20 4.57816)
(10.5041 6.56215e-20 4.24502)
(10.6526 -3.75718e-20 3.85101)
(10.7946 -4.59881e-20 3.39272)
(12.0542 -1.67867e-20 5.48616)
(11.9086 1.24561e-20 5.16751)
(11.8397 -5.68055e-20 4.8506)
(11.836 -1.74711e-20 4.51828)
(11.8813 3.41283e-20 4.15558)
(11.9577 6.10671e-20 3.75125)
(12.0474 4.44467e-20 3.29861)
(12.1336 0 2.79603)
(12.2017 1.15919e-19 2.24737)
(13.8992 7.44595e-21 5.70897)
(13.7343 0 5.32853)
(13.6127 5.34896e-20 4.94917)
(13.5376 -2.68763e-20 4.56189)
(13.506 -6.52098e-20 4.15689)
(13.5093 -7.50125e-20 3.72527)
(13.5362 3.71557e-20 3.26056)
(13.5739 0 2.7598)
(13.61 -1.32113e-19 2.22428)
(13.6346 8.71688e-20 1.65963)
(15.4797 -7.15278e-21 5.87042)
(15.3905 -3.86967e-20 5.47267)
(15.3087 1.86305e-20 5.06527)
(15.2439 -2.69461e-20 4.64562)
(15.2008 6.00879e-20 4.20952)
(15.1798 -2.98417e-20 3.75236)
(15.1774 3.24324e-20 3.27028)
(15.1878 3.74238e-20 2.76118)
(15.2043 -3.69644e-20 2.22543)
(15.2208 0 1.66606)
(15.2337 0 1.08777)
(15.2434 -3.56125e-20 0.49449)
(16.6545 0 5.90245)
(16.6852 -5.72084e-21 5.5204)
(16.6993 1.12035e-20 5.11647)
(16.7061 -1.88269e-20 4.69166)
(16.7125 2.57577e-20 4.24558)
(16.7226 2.49631e-20 3.77712)
(16.7379 -3.12393e-20 3.28522)
(16.7578 3.24407e-20 2.76945)
(16.78 -6.30375e-20 2.23064)
(16.8019 -6.38873e-20 1.67108)
(16.8211 -6.45564e-20 1.09401)
(16.8367 4.0836e-20 0.502391)
(16.8433 -9.46175e-20 -0.0993942)
(17.4046 6.54745e-21 5.79017)
(17.5551 -1.68039e-20 5.44215)
(17.6778 2.94029e-20 5.06247)
(17.7787 3.25557e-20 4.65362)
(17.8634 1.73897e-20 4.21722)
(17.9362 2.28904e-20 3.75434)
(17.9999 -4.63881e-20 3.26597)
(18.0556 2.43822e-20 2.75331)
(18.1032 4.08735e-21 2.21826)
(18.1415 1.73668e-19 1.66366)
(18.168 4.57493e-21 1.09331)
(18.1809 6.50511e-20 0.511801)
(18.17 3.04454e-21 -0.0739484)
(18.1252 -2.52511e-20 -0.652719)
(18.0412 7.55745e-20 -1.21063)
(17.7856 4.99797e-22 5.5528)
(18.0305 1.42289e-20 5.24532)
(18.2452 -1.0542e-20 4.90037)
(18.4325 -1.39382e-20 4.52054)
(18.5949 -1.68883e-20 4.10811)
(18.7349 0 3.66521)
(18.8543 0 3.19405)
(18.954 -4.31066e-20 2.69708)
(19.0336 4.16493e-21 2.17736)
(19.0919 -5.18992e-20 1.63883)
(19.1261 0 1.0866)
(19.1334 1.00071e-19 0.527412)
(19.1044 -1.35937e-19 -0.0301158)
(19.0303 4.47932e-20 -0.575189)
(18.9084 0 -1.09571)
(18.7347 -2.1711e-20 -1.57836)
(17.8861 0 5.22586)
(18.1906 -6.16258e-24 4.95771)
(18.4679 7.88238e-21 4.65025)
(18.7177 -1.26092e-20 4.30544)
(18.9397 0 3.92544)
(19.1339 -2.83137e-20 3.51261)
(19.3003 -4.2983e-21 3.06972)
(19.4382 5.06977e-20 2.59999)
(19.5464 -1.06811e-21 2.10738)
(19.6228 3.71546e-20 1.59683)
(19.6643 3.95078e-20 1.07456)
(19.6678 -3.90517e-20 0.548711)
(19.6269 4.45273e-20 0.0285653)
(19.5348 -3.91022e-21 -0.47602)
(19.3909 -3.00877e-20 -0.954744)
(19.1936 2.72887e-20 -1.39624)
(18.9432 -3.11805e-20 -1.78846)
(18.6436 2.71932e-20 -2.11941)
(17.7983 -2.56267e-20 4.84761)
(18.1294 6.03945e-24 4.61373)
(18.4387 1.41159e-21 4.34177)
(18.7232 -1.22485e-21 4.03291)
(18.9807 0 3.6888)
(19.209 0 3.31163)
(19.4063 -9.11046e-21 2.90421)
(19.5703 -2.66396e-20 2.47007)
(19.6986 -1.85174e-20 2.01365)
(19.7885 -1.88629e-21 1.54042)
(19.8367 3.0044e-20 1.05712)
(19.8401 0 0.572183)
(19.7955 3.38789e-20 0.0948571)
(19.6979 -5.99122e-20 -0.365958)
(19.5479 5.67884e-20 -0.801487)
(19.3458 -2.21008e-20 -1.20207)
(19.0937 2.69937e-20 -1.55752)
(18.7962 -4.90605e-20 -1.85782)
(18.4611 2.52967e-21 -2.09391)
(17.5995 4.35486e-21 4.45008)
(17.9326 0 4.24461)
(18.2487 -1.47883e-21 4.00414)
(18.544 1.54875e-21 3.72919)
(18.8148 -1.6112e-21 3.42094)
(19.0576 0 3.08121)
(19.2693 1.44654e-20 2.7126)
(19.4464 -7.12982e-21 2.31856)
(19.5857 0 1.90356)
(19.684 -2.27566e-20 1.47308)
(19.7381 2.24577e-20 1.03376)
(19.7451 0 0.59355)
(19.7037 -2.32766e-20 0.161244)
(19.6108 2.28489e-20 -0.255252)
(19.4674 -3.86413e-20 -0.648267)
(19.275 2.86721e-21 -1.0096)
(19.0365 -1.77048e-20 -1.33061)
(18.7569 5.82261e-21 -1.60295)
(18.4435 -9.67817e-21 -1.81918)
(18.1091 1.03369e-20 -1.97345)
(17.3453 -4.86234e-20 4.0552)
(17.6651 0 3.87321)
(17.9717 -9.03389e-21 3.66006)
(18.2609 8.69271e-21 3.4159)
(18.5288 5.70035e-21 3.14151)
(18.7711 -1.12037e-20 2.8384)
(18.9841 2.24148e-20 2.50885)
(19.1639 -1.13178e-20 2.15601)
(19.3066 0 1.78401)
(19.409 0 1.39797)
(19.468 1.71589e-20 1.00401)
(19.4812 -1.69334e-20 0.609251)
(19.4473 -3.27056e-20 0.221639)
(19.3662 1.71944e-20 -0.151875)
(19.2378 1.82594e-20 -0.504372)
(19.0642 2.82233e-21 -0.828827)
(18.8488 1.6061e-20 -1.11793)
(18.5962 1.12715e-20 -1.36465)
(18.3132 -1.40595e-20 -1.5628)
(18.0105 -2.35198e-20 -1.70759)
(17.6074 0 -1.79814)
(17.07 -1.0013e-19 3.67509)
(17.3693 4.14418e-20 3.51311)
(17.6577 -2.81402e-21 3.32386)
(17.9316 0 3.10733)
(18.187 0 2.8641)
(18.4197 -7.03414e-22 2.59538)
(18.6257 9.56054e-21 2.30316)
(18.8012 -7.02594e-21 1.99021)
(18.9423 2.56192e-21 1.66014)
(19.0458 2.06963e-20 1.31749)
(19.1089 -2.04032e-20 0.967674)
(19.1293 -1.48293e-20 0.616898)
(19.1059 4.13147e-20 0.27195)
(19.0397 -2.2852e-20 -0.0609566)
(18.9303 -1.27464e-21 -0.375569)
(18.78 1.12083e-20 -0.665777)
(18.5918 0 -0.925386)
(18.3701 0 -1.14843)
(18.1208 -2.48118e-21 -1.32969)
(17.8529 1.90753e-20 -1.46511)
(17.4947 -7.35902e-22 -1.55376)
(16.7924 -4.28631e-20 3.31479)
(17.0689 5.40252e-20 3.17052)
(17.3364 4.82741e-21 3.0026)
(17.5913 -3.80725e-21 2.81099)
(17.83 1.55414e-20 2.59615)
(18.0487 -1.52712e-20 2.3591)
(18.2438 0 2.10153)
(18.4114 -2.79958e-21 1.82582)
(18.5482 2.44323e-22 1.53508)
(18.651 0 1.23319)
(18.7172 0 0.924814)
(18.745 -1.23914e-20 0.615239)
(18.7331 3.81286e-21 0.310151)
(18.6826 3.49858e-21 0.0150491)
(18.5932 -9.91623e-21 -0.264492)
(18.467 0 -0.523081)
(18.3066 0 -0.75541)
(18.1161 5.08469e-21 -0.956406)
(17.9003 -5.0076e-21 -1.12159)
(17.6667 -6.26482e-21 -1.24744)
(17.3526 -3.36714e-21 -1.33288)
(16.5218 3.81907e-21 2.97521)
(16.7762 7.75123e-22 2.84706)
(17.0228 -4.82056e-20 2.69852)
(17.2583 4.55429e-20 2.52956)
(17.4797 2.31194e-20 2.34057)
(17.6835 -2.27125e-20 2.13244)
(17.8664 -6.47215e-21 1.90657)
(18.0251 1.31092e-20 1.66501)
(18.1565 -5.35094e-21 1.41037)
(18.2576 0 1.14596)
(18.3263 0 0.875693)
(18.3609 1.18122e-20 0.603998)
(18.36 -8.33757e-21 0.335636)
(18.3246 1.24363e-20 0.0754538)
(18.2544 5.16931e-21 -0.171696)
(18.1512 -1.09982e-21 -0.401091)
(18.0172 3.71357e-21 -0.608125)
(17.8559 0 -0.788445)
(17.6714 0 -0.938186)
(17.4699 -1.40218e-21 -1.05423)
(17.1971 2.32446e-21 -1.13536)
(16.2628 6.24623e-20 2.65534)
(16.497 6.58134e-22 2.54209)
(16.7242 5.45608e-21 2.41135)
(16.9417 -4.51303e-21 2.26311)
(17.1467 -2.49794e-20 2.09771)
(17.3363 5.19539e-20 1.9159)
(17.5074 -2.11102e-20 1.71889)
(17.6572 -1.60778e-21 1.50838)
(17.783 -3.17809e-21 1.2866)
(17.8822 3.92702e-21 1.05629)
(17.9528 -3.86604e-21 0.820711)
(17.9933 -4.73945e-22 0.583569)
(18.0025 -2.84118e-21 0.348849)
(17.9806 2.53061e-21 0.120781)
(17.928 2.77136e-21 -0.0965081)
(17.8457 -9.42735e-21 -0.298884)
(17.7357 -8.72579e-22 -0.482374)
(17.6008 4.08771e-21 -0.643219)
(17.4447 -6.475e-22 -0.778059)
(17.2724 1.48902e-21 -0.884125)
(17.0372 2.90893e-22 -0.960103)
(16.0183 0 2.35342)
(16.2344 5.55591e-22 2.25402)
(16.4443 6.62499e-21 2.1397)
(16.6455 0 2.01048)
(16.8357 3.01505e-20 1.86664)
(17.0123 -6.64597e-20 1.70882)
(17.1727 2.23421e-20 1.53805)
(17.3144 4.28674e-21 1.35574)
(17.4349 -1.34818e-21 1.16375)
(17.5322 -3.41207e-21 0.964368)
(17.6042 -6.17739e-21 0.760295)
(17.6497 9.01302e-21 0.554613)
(17.6676 -3.45327e-21 0.350663)
(17.6576 1.03263e-21 0.152035)
(17.6206 -4.55475e-22 -0.0377581)
(17.5569 7.60484e-22 -0.215114)
(17.4682 0 -0.376627)
(17.3569 -1.80545e-21 -0.519062)
(17.226 -1.52449e-21 -0.639499)
(17.0798 0 -0.73548)
(16.8782 0 -0.805671)
(15.7903 -6.5369e-20 2.0675)
(15.9904 1.18816e-19 1.98102)
(16.185 -6.35568e-20 1.88192)
(16.3719 -4.47166e-20 1.77019)
(16.549 4.3892e-20 1.6461)
(16.7141 4.09862e-21 1.51019)
(16.865 -2.73695e-20 1.36331)
(16.9994 2.68927e-20 1.20664)
(17.1153 4.36985e-21 1.04171)
(17.2106 3.34076e-21 0.87042)
(17.2838 -3.51817e-21 0.694998)
(17.3335 -7.68226e-21 0.517989)
(17.3589 1.27958e-20 0.342192)
(17.3594 -5.15275e-21 0.17059)
(17.3358 1.60287e-21 0.0061852)
(17.2883 0 -0.147942)
(17.2182 -6.38207e-22 -0.288882)
(17.1275 -2.46971e-22 -0.413875)
(17.0188 2.43011e-22 -0.520393)
(16.8956 0 -0.606269)
(16.7238 3.15853e-22 -0.670204)
(15.5805 0 1.79545)
(15.7667 -7.88672e-21 1.72105)
(15.948 -5.39297e-20 1.63605)
(16.1224 1.00572e-19 1.54047)
(16.2881 -4.10486e-20 1.43453)
(16.4433 0 1.31867)
(16.5858 0 1.1936)
(16.7139 -2.60927e-20 1.06029)
(16.8255 2.56411e-20 0.920007)
(16.9191 0 0.774296)
(16.9931 2.19864e-20 0.624986)
(17.0464 -1.39786e-20 0.474163)
(17.0781 8.48264e-21 0.324146)
(17.0877 -8.35009e-21 0.17741)
(17.0755 -6.30245e-21 0.0364973)
(17.042 5.84191e-21 -0.0960201)
(16.988 -8.38304e-22 -0.217673)
(16.9152 0 -0.326112)
(16.8258 0 -0.419164)
(16.7227 1.89221e-22 -0.494941)
(16.577 -3.08528e-22 -0.552225)
(15.3905 0 1.5355)
(15.5648 -5.8203e-20 1.47244)
(15.7345 5.72469e-20 1.4006)
(15.8982 -6.69486e-21 1.31999)
(16.0542 3.85216e-20 1.23079)
(16.2007 6.90353e-22 1.13339)
(16.3361 -3.80177e-20 1.02834)
(16.4586 0 0.916442)
(16.5666 0 0.798725)
(16.6586 2.65325e-20 0.676444)
(16.7333 -1.95393e-20 0.551083)
(16.7895 -1.3865e-20 0.424335)
(16.8264 2.47107e-20 0.298089)
(16.8437 -1.35882e-20 0.174383)
(16.8413 -2.11136e-21 0.0553288)
(16.8197 8.09987e-22 -0.0569696)
(16.7795 -6.82476e-22 -0.160439)
(16.7221 -1.66711e-21 -0.253101)
(16.6492 -2.93834e-22 -0.333113)
(16.5634 1.39632e-22 -0.398857)
(16.4403 -3.47558e-23 -0.449235)
(15.2218 -6.94884e-20 1.28501)
(15.3859 1.31367e-19 1.23262)
(15.5459 -6.2149e-20 1.17308)
(15.7005 6.55586e-21 1.1064)
(15.8482 0 1.03274)
(15.9874 3.54469e-20 0.952387)
(16.1167 -3.98829e-20 0.865804)
(16.2345 4.26149e-21 0.773625)
(16.3394 2.67705e-20 0.67667)
(16.43 -3.20892e-20 0.575943)
(16.5052 -4.86145e-21 0.47263)
(16.5638 4.59132e-21 0.36808)
(16.6051 0 0.263803)
(16.6287 2.63239e-21 0.161452)
(16.6345 4.56707e-21 0.0627633)
(16.6229 1.57212e-21 -0.030562)
(16.5942 -8.22095e-22 -0.116832)
(16.5498 2.26351e-21 -0.194395)
(16.4909 0 -0.26171)
(16.4198 -8.02126e-22 -0.317424)
(16.3158 8.16283e-23 -0.360584)
(15.0756 0 1.04325)
(15.2313 -6.37779e-20 1.001)
(15.3833 4.47973e-21 0.953086)
(15.5303 5.68599e-20 0.899516)
(15.6711 0 0.840408)
(15.8043 0 0.775996)
(15.9285 4.9914e-21 0.706638)
(16.0424 -3.67546e-20 0.63283)
(16.1447 6.03603e-20 0.555211)
(16.2341 -2.7858e-20 0.474566)
(16.3095 2.89592e-21 0.391819)
(16.3701 1.30673e-20 0.308018)
(16.4149 -3.59903e-20 0.224329)
(16.4436 1.0911e-20 0.142062)
(16.4562 -2.44602e-21 0.0626103)
(16.4528 0 -0.012701)
(16.4337 -1.4458e-21 -0.082547)
(16.4 0 -0.145594)
(16.3528 -8.27518e-22 -0.200579)
(16.2939 5.81882e-22 -0.246396)
(16.2058 1.18212e-22 -0.282248)
(14.9535 0 0.805436)
(15.1023 6.38581e-20 0.772855)
(15.2478 -5.88974e-20 0.735964)
(15.3888 4.93602e-20 0.694777)
(15.524 -4.18925e-21 0.649381)
(15.6523 -4.67507e-20 0.599951)
(15.7725 -4.28742e-20 0.546754)
(15.8832 7.0855e-20 0.490163)
(15.9833 -3.29521e-20 0.430654)
(16.0717 2.55252e-20 0.368816)
(16.1474 -2.79079e-20 0.305342)
(16.2094 0 0.241019)
(16.257 4.05005e-21 0.176715)
(16.2897 3.35409e-21 0.113389)
(16.3076 0 0.0520925)
(16.3108 2.39339e-21 -0.00608505)
(16.2993 1.85509e-21 -0.0600893)
(16.2741 2.7043e-22 -0.108919)
(16.2362 1.88707e-21 -0.151625)
(16.1871 0 -0.18734)
(16.1116 0 -0.215443)
(14.8565 0 0.574734)
(15.0002 0 0.551545)
(15.1406 -2.90521e-20 0.525316)
(15.2769 7.19021e-21 0.496055)
(15.4079 2.59254e-20 0.463824)
(15.5325 -2.14946e-20 0.428742)
(15.6496 2.36361e-20 0.390997)
(15.7579 -1.70302e-20 0.350846)
(15.8563 1.73306e-21 0.30862)
(15.9439 1.47189e-20 0.264731)
(16.0197 0 0.219663)
(16.0828 0 0.173979)
(16.1325 2.24192e-21 0.128286)
(16.1684 4.88929e-21 0.0831915)
(16.1903 -6.65799e-21 0.0393559)
(16.1984 3.27924e-21 -0.00241596)
(16.1928 -8.74059e-21 -0.0412827)
(16.1741 1.02102e-21 -0.0765154)
(16.1432 0 -0.107437)
(16.1015 -1.6592e-22 -0.133363)
(16.0354 1.62986e-22 -0.153707)
(14.7855 3.62222e-20 0.339078)
(14.9254 -1.01678e-21 0.325032)
(15.0623 -9.33802e-22 0.30917)
(15.1952 -1.68863e-21 0.291495)
(15.3231 0 0.272042)
(15.4449 -1.40357e-21 0.250882)
(15.5596 1.66876e-20 0.228122)
(15.6661 -1.76909e-20 0.203912)
(15.7632 -9.98673e-22 0.178445)
(15.8501 0 0.151963)
(15.9257 0 0.124754)
(15.9893 0 0.0971613)
(16.0403 -2.18979e-21 0.0695632)
(16.078 4.34617e-21 0.0423425)
(16.102 -6.22746e-21 0.0159089)
(16.1124 1.55936e-21 -0.0092269)
(16.1091 2.67202e-21 -0.0325588)
(16.0927 -2.39738e-21 -0.0536426)
(16.0642 -2.51406e-22 -0.0720615)
(16.0247 8.7994e-23 -0.0873208)
(15.9613 -8.64373e-23 -0.0987903)
(14.4906 -8.41413e-21 0.113593)
(14.6239 1.49871e-21 0.108623)
(14.754 8.51206e-21 0.102993)
(14.8798 6.47659e-21 0.0967059)
(15.0003 -4.77115e-22 0.0897719)
(15.1144 -4.38936e-21 0.0822154)
(15.221 0 0.0740743)
(15.3191 -5.33399e-21 0.0654015)
(15.4073 5.13115e-21 0.0562663)
(15.4849 -3.2769e-21 0.0467551)
(15.5507 3.21822e-21 0.0369741)
(15.604 0 0.0270521)
(15.6441 0 0.0171424)
(15.6704 9.29448e-22 0.00742748)
(15.6828 -1.4192e-21 -0.00189333)
(15.6814 1.39522e-21 -0.0106619)
(15.6664 0 -0.0187378)
(15.6383 0 -0.0259876)
(15.5981 2.46297e-22 -0.0322755)
(15.5471 0 -0.0374021)
(15.4703 0 -0.0410474)
)
;

boundaryField
{
    inlet
    {
        type            fixedValue;
        value           nonuniform 0();
    }
    outlet
    {
        type            zeroGradient;
    }
    flap
    {
        type            movingWallVelocity;
        value           nonuniform 0();
    }
    upperWall
    {
        type            noSlip;
    }
    lowerWall
    {
        type            noSlip;
    }
    frontAndBack
    {
        type            empty;
    }
    procBoundary2to1
    {
        type            processor;
        value           nonuniform List<vector> 
17
(
(17.4484 -2.84848e-20 5.04283)
(17.2533 2.31274e-21 4.62068)
(17.0162 -4.52335e-20 4.20646)
(16.7638 -6.21084e-20 3.8103)
(16.5101 5.86757e-20 3.43587)
(16.2622 6.36076e-20 3.08336)
(16.024 7.47319e-20 2.75142)
(15.7981 4.72575e-21 2.43815)
(15.5864 -4.63382e-21 2.14155)
(15.3908 0 1.85941)
(15.2132 -4.94378e-21 1.58991)
(15.0549 7.31852e-21 1.33035)
(14.9174 -2.42456e-21 1.0799)
(14.8023 8.01783e-20 0.833762)
(14.7107 -3.62681e-20 0.59492)
(14.6435 3.57666e-20 0.351328)
(14.355 0 0.117914)
)
;
    }
    procBoundary2to4
    {
        type            processor;
        value           nonuniform List<vector> 
11
(
(6.19714 -3.25074e-21 5.76712)
(7.25861 0 5.55348)
(8.60274 -9.07244e-21 5.44702)
(10.3396 1.66864e-20 5.5557)
(12.279 -7.63749e-21 5.82327)
(14.0962 5.08906e-21 6.09682)
(15.5626 -1.54851e-21 6.25853)
(16.5964 -3.2346e-21 6.25971)
(17.2199 6.89364e-21 6.10302)
(17.5088 2.78716e-22 5.81998)
(17.5561 0 5.45305)
)
;
    }
    procBoundary2to5
    {
        type            processor;
        value           nonuniform List<vector> 
34
(
(5.37583 -9.28122e-20 5.85672)
(5.51138 1.07604e-19 5.67811)
(6.77594 4.40455e-20 5.32599)
(6.77594 4.40455e-20 5.32599)
(6.92103 6.18462e-21 5.02754)
(8.2275 4.79367e-20 4.5435)
(8.2275 4.79367e-20 4.5435)
(9.51421 -5.50909e-20 3.98871)
(9.51421 -5.50909e-20 3.98871)
(9.667 6.14973e-21 3.50881)
(10.9161 0 2.87144)
(10.9161 0 2.87144)
(11.0046 -1.14223e-19 2.2937)
(12.2396 2.38229e-20 1.66226)
(12.2396 2.38229e-20 1.66226)
(13.6421 -3.16483e-22 1.07473)
(13.6421 -3.16483e-22 1.07473)
(13.6335 -4.62366e-20 0.478472)
(15.2533 0 -0.111305)
(15.2533 0 -0.111305)
(16.8312 0 -0.701213)
(16.8312 0 -0.701213)
(16.7935 2.04141e-20 -1.28841)
(17.911 -3.93757e-20 -1.73249)
(17.911 -3.93757e-20 -1.73249)
(18.507 -1.1615e-20 -2.00904)
(18.507 -1.1615e-20 -2.00904)
(18.2267 1.06108e-20 -2.37344)
(18.3018 -5.09704e-20 -2.37788)
(18.3018 -5.09704e-20 -2.37788)
(18.1027 0 -2.25835)
(18.1027 0 -2.25835)
(17.6638 5.36632e-21 -2.06452)
(17.6638 5.36632e-21 -2.06452)
)
;
    }
}


// ************************************************************************* //
