/*--------------------------------*- C++ -*----------------------------------*\
| =========                 |                                                 |
| \\      /  F ield         | OpenFOAM: The Open Source CFD Toolbox           |
|  \\    /   O peration     | Version:  dev                                   |
|   \\  /    A nd           | Web:      www.OpenFOAM.org                      |
|    \\/     M anipulation  |                                                 |
\*---------------------------------------------------------------------------*/
FoamFile
{
    version     2.0;
    format      ascii;
    class       volVectorField;
    location    "3.01";
    object      cellDisplacement;
}
// * * * * * * * * * * * * * * * * * * * * * * * * * * * * * * * * * * * * * //

dimensions      [0 1 0 0 0 0 0];

internalField   nonuniform List<vector> 
465
(
(0.18439 0 -0.0266015)
(0.180288 0 -0.0257162)
(0.185953 0 -0.0263862)
(0.181873 0 -0.0255898)
(0.177682 0 -0.0247237)
(0.17335 0 -0.0237986)
(0.186962 0 -0.0260801)
(0.182959 0 -0.02537)
(0.178797 0 -0.0245812)
(0.174456 0 -0.0237243)
(0.169903 0 -0.0228084)
(0.187469 0 -0.0257)
(0.183578 0 -0.0250707)
(0.179485 0 -0.0243561)
(0.175173 0 -0.0235663)
(0.170615 0 -0.0227098)
(0.165772 0 -0.0217936)
(0.160597 0 -0.0208237)
(0.187526 0 -0.0252601)
(0.183769 0 -0.024704)
(0.17977 0 -0.0240586)
(0.175518 0 -0.0233331)
(0.170987 0 -0.0225353)
(0.166146 0 -0.0216718)
(0.160951 0 -0.0207484)
(0.155352 0 -0.0197693)
(0.14929 0 -0.0187378)
(0.187181 0 -0.0247716)
(0.183568 0 -0.0242804)
(0.17968 0 -0.0236981)
(0.175508 0 -0.0230326)
(0.171029 0 -0.022291)
(0.166214 0 -0.0214792)
(0.161025 0 -0.0206024)
(0.155415 0 -0.0196648)
(0.14933 0 -0.0186692)
(0.142709 0 -0.0176178)
(0.186478 0 -0.0242432)
(0.183011 0 -0.0238081)
(0.179243 0 -0.0232822)
(0.175164 0 -0.0226718)
(0.170754 0 -0.0219829)
(0.165985 0 -0.0212207)
(0.160822 0 -0.0203897)
(0.155222 0 -0.0194935)
(0.149133 0 -0.0185349)
(0.142498 0 -0.0175153)
(0.135247 0 -0.0164346)
(0.127313 0 -0.0152921)
(0.185457 0 -0.0236805)
(0.182133 0 -0.0232933)
(0.178488 0 -0.0228169)
(0.17451 0 -0.0222562)
(0.170179 0 -0.0216161)
(0.16547 0 -0.0209007)
(0.16035 0 -0.0201139)
(0.154777 0 -0.0192588)
(0.148703 0 -0.0183375)
(0.142073 0 -0.0173514)
(0.134824 0 -0.0163005)
(0.126887 0 -0.0151838)
(0.118189 0 -0.013999)
(0.184154 0 -0.0230874)
(0.180967 0 -0.0227402)
(0.177442 0 -0.0223068)
(0.173567 0 -0.0217905)
(0.169323 0 -0.0211949)
(0.164684 0 -0.0205232)
(0.159618 0 -0.0197786)
(0.154086 0 -0.0189635)
(0.148043 0 -0.0180795)
(0.141435 0 -0.0171278)
(0.134202 0 -0.0161081)
(0.126279 0 -0.0150194)
(0.117593 0 -0.013859)
(0.108061 0 -0.0126225)
(0.0976025 0 -0.0113046)
(0.182603 0 -0.0224655)
(0.179542 0 -0.0221516)
(0.176133 0 -0.021755)
(0.172361 0 -0.0212779)
(0.168206 0 -0.0207225)
(0.163643 0 -0.0200914)
(0.158641 0 -0.0193867)
(0.153162 0 -0.0186101)
(0.147161 0 -0.0177631)
(0.140588 0 -0.0168461)
(0.133387 0 -0.0158589)
(0.125492 0 -0.0148002)
(0.116836 0 -0.0136673)
(0.107339 0 -0.0124562)
(0.0969214 0 -0.0111616)
(0.0854961 0 -0.00977657)
(0.180833 0 -0.021815)
(0.177888 0 -0.0215285)
(0.174587 0 -0.0211633)
(0.170915 0 -0.0207205)
(0.16685 0 -0.0202014)
(0.162367 0 -0.0196075)
(0.157434 0 -0.0189403)
(0.152015 0 -0.0182009)
(0.146067 0 -0.0173901)
(0.139541 0 -0.0165081)
(0.132383 0 -0.0155543)
(0.124532 0 -0.0145273)
(0.115919 0 -0.0134244)
(0.106471 0 -0.0122419)
(0.0961093 0 -0.0109745)
(0.0847473 0 -0.00961515)
(0.0722889 0 -0.00815464)
(0.0586422 0 -0.00658284)
(0.178871 0 -0.0211345)
(0.17603 0 -0.0208705)
(0.172831 0 -0.0205321)
(0.169253 0 -0.0201194)
(0.165276 0 -0.0196328)
(0.160873 0 -0.0190732)
(0.156014 0 -0.0184411)
(0.150661 0 -0.0177373)
(0.144774 0 -0.0169619)
(0.138305 0 -0.0161149)
(0.131201 0 -0.0151953)
(0.123404 0 -0.0142016)
(0.114848 0 -0.0131312)
(0.105462 0 -0.0119803)
(0.0951712 0 -0.0107438)
(0.0838911 0 -0.00941525)
(0.0715325 0 -0.0079861)
(0.0580029 0 -0.00644646)
(0.0432034 0 -0.00478436)
(0.176743 0 -0.0204217)
(0.173997 0 -0.0201764)
(0.170889 0 -0.0198608)
(0.167401 0 -0.0194745)
(0.163508 0 -0.0190172)
(0.159186 0 -0.018489)
(0.154401 0 -0.01789)
(0.149118 0 -0.0172203)
(0.143298 0 -0.0164796)
(0.136893 0 -0.0156675)
(0.129852 0 -0.0147829)
(0.122119 0 -0.013824)
(0.113632 0 -0.0127882)
(0.104321 0 -0.0116719)
(0.0941136 0 -0.0104702)
(0.0829302 0 -0.00917692)
(0.0706855 0 -0.00778424)
(0.0572894 0 -0.00628275)
(0.0426459 0 -0.00466114)
(0.026653 0 -0.00290603)
(0.174478 0 -0.0196737)
(0.171814 0 -0.0194438)
(0.168789 0 -0.0191478)
(0.165383 0 -0.0187848)
(0.161571 0 -0.018354)
(0.157326 0 -0.0178549)
(0.152616 0 -0.0172871)
(0.147406 0 -0.0166501)
(0.141656 0 -0.0159435)
(0.13532 0 -0.0151664)
(0.128351 0 -0.0143175)
(0.120691 0 -0.0133949)
(0.112281 0 -0.0123959)
(0.103056 0 -0.0113172)
(0.0929453 0 -0.010154)
(0.0818719 0 -0.0089005)
(0.0697549 0 -0.00754946)
(0.0565079 0 -0.00609211)
(0.0420389 0 -0.00451794)
(0.0262504 0 -0.00281458)
(0.00900955 0 -0.000964578)
(0.172099 0 -0.0188864)
(0.169507 0 -0.0186693)
(0.166557 0 -0.0183904)
(0.163226 0 -0.0180482)
(0.159489 0 -0.0176416)
(0.155318 0 -0.0171697)
(0.150682 0 -0.0166315)
(0.145545 0 -0.0160264)
(0.139868 0 -0.0153534)
(0.133607 0 -0.0146115)
(0.126713 0 -0.0137991)
(0.119134 0 -0.0129144)
(0.110811 0 -0.0119546)
(0.101681 0 -0.0109164)
(0.091677 0 -0.00979543)
(0.0807255 0 -0.00858622)
(0.0687491 0 -0.00728206)
(0.0556658 0 -0.00587488)
(0.0413885 0 -0.00435507)
(0.0258261 0 -0.00271146)
(0.0088584 0 -0.000928651)
(0.169633 0 -0.0180547)
(0.167104 0 -0.0178487)
(0.164219 0 -0.017585)
(0.160956 0 -0.0172618)
(0.157288 0 -0.0168777)
(0.153188 0 -0.0164315)
(0.148624 0 -0.0159219)
(0.14356 0 -0.0153479)
(0.137957 0 -0.0147085)
(0.131773 0 -0.0140021)
(0.12496 0 -0.0132274)
(0.117467 0 -0.0123822)
(0.109237 0 -0.011464)
(0.100211 0 -0.0104694)
(0.0903222 0 -0.00939453)
(0.0795028 0 -0.00823417)
(0.0676785 0 -0.0069822)
(0.0547715 0 -0.00563125)
(0.0407003 0 -0.00417264)
(0.0253803 0 -0.00259638)
(0.00870093 0 -0.000888752)
(0.167106 0 -0.0171728)
(0.164631 0 -0.0169767)
(0.161804 0 -0.0167269)
(0.158602 0 -0.0164215)
(0.154998 0 -0.0160588)
(0.150964 0 -0.0156373)
(0.146469 0 -0.0151556)
(0.141476 0 -0.0146126)
(0.135948 0 -0.0140068)
(0.129842 0 -0.0133369)
(0.123112 0 -0.0126011)
(0.115709 0 -0.0117974)
(0.107578 0 -0.0109234)
(0.0986611 0 -0.0099758)
(0.0888963 0 -0.00895096)
(0.0782174 0 -0.00784416)
(0.0665546 0 -0.00664981)
(0.0538346 0 -0.00536124)
(0.0399812 0 -0.00397067)
(0.0249161 0 -0.00246925)
(0.00853758 0 -0.000844787)
(0.164547 0 -0.0162339)
(0.162117 0 -0.0160472)
(0.15934 0 -0.0158106)
(0.156193 0 -0.0155223)
(0.152647 0 -0.0151803)
(0.148676 0 -0.0147831)
(0.144245 0 -0.0143293)
(0.139322 0 -0.0138174)
(0.133867 0 -0.013246)
(0.12784 0 -0.0126136)
(0.121195 0 -0.0119185)
(0.113884 0 -0.0111586)
(0.105855 0 -0.0103316)
(0.0970529 0 -0.00943454)
(0.087417 0 -0.00846399)
(0.076885 0 -0.00741567)
(0.0653909 0 -0.00628453)
(0.052866 0 -0.00506463)
(0.0392391 0 -0.00374905)
(0.0244382 0 -0.00232998)
(0.00836971 0 -0.000796711)
(0.161984 0 -0.0152301)
(0.159593 0 -0.0150527)
(0.15686 0 -0.0148292)
(0.153761 0 -0.0145578)
(0.150269 0 -0.0142366)
(0.146354 0 -0.013864)
(0.141985 0 -0.0134384)
(0.137128 0 -0.0129584)
(0.131744 0 -0.0124225)
(0.125795 0 -0.0118292)
(0.119235 0 -0.0111768)
(0.112018 0 -0.0104634)
(0.104093 0 -0.00968673)
(0.0954078 0 -0.00884413)
(0.0859042 0 -0.00793241)
(0.0755232 0 -0.00694776)
(0.0642025 0 -0.0058857)
(0.0518778 0 -0.00474095)
(0.038483 0 -0.00350746)
(0.023952 0 -0.00217842)
(0.00819917 0 -0.000744472)
(0.159452 0 -0.0141524)
(0.157093 0 -0.0139847)
(0.154398 0 -0.0137748)
(0.151341 0 -0.0135207)
(0.147896 0 -0.0132208)
(0.144034 0 -0.0128735)
(0.139722 0 -0.0124771)
(0.134928 0 -0.0120303)
(0.129613 0 -0.0115317)
(0.123739 0 -0.0109796)
(0.117263 0 -0.0103726)
(0.110139 0 -0.00970883)
(0.102319 0 -0.00898622)
(0.0937506 0 -0.00820237)
(0.0843805 0 -0.00735443)
(0.0741521 0 -0.00643904)
(0.0630066 0 -0.00545224)
(0.050884 0 -0.00438945)
(0.0377233 0 -0.00324542)
(0.0234639 0 -0.00201428)
(0.00802816 0 -0.000687981)
(0.156985 0 -0.0129905)
(0.154654 0 -0.0128333)
(0.15199 0 -0.0126378)
(0.14897 0 -0.0124021)
(0.145567 0 -0.0121247)
(0.141752 0 -0.0118039)
(0.137493 0 -0.0114384)
(0.132758 0 -0.0110268)
(0.127508 0 -0.0105677)
(0.121707 0 -0.0100596)
(0.115312 0 -0.00950121)
(0.108279 0 -0.0088908)
(0.100561 0 -0.00822654)
(0.0921089 0 -0.00750631)
(0.082871 0 -0.0067276)
(0.0727937 0 -0.00588751)
(0.0618221 0 -0.00498261)
(0.0499001 0 -0.00400899)
(0.0369715 0 -0.00296216)
(0.0229813 0 -0.00183713)
(0.00785917 0 -0.000627105)
(0.154624 0 -0.0117323)
(0.152314 0 -0.0115869)
(0.149678 0 -0.0114072)
(0.14669 0 -0.0111915)
(0.143324 0 -0.0109382)
(0.139551 0 -0.0106461)
(0.13534 0 -0.0103137)
(0.130658 0 -0.00993986)
(0.12547 0 -0.00952325)
(0.119737 0 -0.00906266)
(0.113419 0 -0.00855677)
(0.106473 0 -0.00800415)
(0.0988532 0 -0.0074032)
(0.0905132 0 -0.0067521)
(0.0814034 0 -0.0060487)
(0.0714731 0 -0.00529055)
(0.0606705 0 -0.00447476)
(0.0489436 0 -0.00359803)
(0.0362407 0 -0.00265662)
(0.0225122 0 -0.00164638)
(0.00769499 0 -0.000561647)
(0.152412 0 -0.0103637)
(0.15012 0 -0.010232)
(0.147506 0 -0.01007)
(0.144545 0 -0.00987637)
(0.141211 0 -0.00964975)
(0.137475 0 -0.0093889)
(0.133307 0 -0.00909267)
(0.128674 0 -0.00875995)
(0.123541 0 -0.00838968)
(0.117871 0 -0.00798077)
(0.111624 0 -0.00753212)
(0.104759 0 -0.00704251)
(0.0972323 0 -0.00651061)
(0.088998 0 -0.00593491)
(0.0800092 0 -0.00531365)
(0.070218 0 -0.0046448)
(0.0595756 0 -0.003926)
(0.0480339 0 -0.00315455)
(0.0355455 0 -0.00232741)
(0.0220659 0 -0.00144121)
(0.00753876 0 -0.000491343)
(0.150399 0 -0.00886839)
(0.148121 0 -0.00875257)
(0.145525 0 -0.00861088)
(0.142587 0 -0.00844214)
(0.139279 0 -0.00824524)
(0.135575 0 -0.00801916)
(0.131444 0 -0.00776292)
(0.126854 0 -0.00747562)
(0.12177 0 -0.00715637)
(0.116156 0 -0.00680431)
(0.109974 0 -0.00641853)
(0.103182 0 -0.00599809)
(0.0957395 0 -0.00554192)
(0.0876016 0 -0.00504882)
(0.0787235 0 -0.00451741)
(0.0690597 0 -0.00394609)
(0.0585646 0 -0.003333)
(0.0471932 0 -0.00267603)
(0.0349025 0 -0.00197277)
(0.0216526 0 -0.00122059)
(0.00739402 0 -0.000415854)
(0.148642 0 -0.00722718)
(0.146374 0 -0.00713004)
(0.143792 0 -0.00701179)
(0.140872 0 -0.00687148)
(0.137586 0 -0.00670824)
(0.133908 0 -0.00652127)
(0.129808 0 -0.00630982)
(0.125254 0 -0.00607318)
(0.120212 0 -0.0058107)
(0.114646 0 -0.00552172)
(0.108519 0 -0.00520557)
(0.101791 0 -0.00486155)
(0.0944213 0 -0.00448887)
(0.0863674 0 -0.00408666)
(0.0775862 0 -0.00365389)
(0.0680342 0 -0.00318937)
(0.0576683 0 -0.00269173)
(0.0464469 0 -0.00215938)
(0.0343306 0 -0.00159054)
(0.0212843 0 -0.000983243)
(0.00726486 0 -0.000334763)
(0.147203 0 -0.00541735)
(0.144943 0 -0.00534233)
(0.142372 0 -0.00525141)
(0.139464 0 -0.00514391)
(0.136196 0 -0.00501922)
(0.132538 0 -0.00487675)
(0.128462 0 -0.004716)
(0.123936 0 -0.00453647)
(0.118927 0 -0.00433773)
(0.1134 0 -0.00411934)
(0.107317 0 -0.00388085)
(0.100641 0 -0.00362181)
(0.0933306 0 -0.00334171)
(0.0853452 0 -0.00303995)
(0.076643 0 -0.00271586)
(0.0671825 0 -0.00236864)
(0.0569227 0 -0.00199736)
(0.0458246 0 -0.00160094)
(0.0338524 0 -0.00117815)
(0.0209752 0 -0.000727652)
(0.00715617 0 -0.000247568)
(0.146156 0 -0.00341194)
(0.143901 0 -0.00336324)
(0.141336 0 -0.00330446)
(0.138438 0 -0.00323519)
(0.135181 0 -0.00315507)
(0.131537 0 -0.00306375)
(0.127477 0 -0.00296095)
(0.122971 0 -0.0028464)
(0.117986 0 -0.00271985)
(0.112486 0 -0.00258108)
(0.106435 0 -0.00242984)
(0.0997959 0 -0.00226591)
(0.0925282 0 -0.002089)
(0.0845921 0 -0.00189879)
(0.0759471 0 -0.00169492)
(0.0665528 0 -0.00147694)
(0.0563699 0 -0.00124432)
(0.0453617 0 -0.000996453)
(0.033495 0 -0.000732629)
(0.0207427 0 -0.000452072)
(0.00707397 0 -0.000153697)
(0.145585 0 -0.00117927)
(0.143331 0 -0.00116205)
(0.14077 0 -0.00114132)
(0.137876 0 -0.00111696)
(0.134624 0 -0.00108883)
(0.130988 0 -0.00105683)
(0.126937 0 -0.00102087)
(0.122441 0 -0.000980869)
(0.117468 0 -0.000936753)
(0.111983 0 -0.000888453)
(0.105949 0 -0.000835902)
(0.0993293 0 -0.000779028)
(0.0920845 0 -0.00071775)
(0.084175 0 -0.000651975)
(0.0755608 0 -0.000581585)
(0.0662022 0 -0.000506443)
(0.056061 0 -0.000426382)
(0.0451016 0 -0.000341205)
(0.0332926 0 -0.000250685)
(0.0206093 0 -0.000154572)
(0.00702626 0 -5.25205e-05)
)
;

boundaryField
{
    inlet
    {
        type            cellMotion;
        value           nonuniform 0();
    }
    outlet
    {
        type            cellMotion;
        value           uniform (0 0 0);
    }
    flap
    {
        type            cellMotion;
        value           nonuniform 0();
    }
    upperWall
    {
        type            slip;
    }
    lowerWall
    {
        type            slip;
    }
    frontAndBack
    {
        type            empty;
    }
    procBoundary2to1
    {
        type            processor;
        value           nonuniform List<vector> 
17
(
(0.181364 0 -0.0213237)
(0.179143 0 -0.0205972)
(0.176797 0 -0.0198387)
(0.174349 0 -0.0190429)
(0.171825 0 -0.0182044)
(0.169249 0 -0.0173166)
(0.166649 0 -0.0163722)
(0.164053 0 -0.0153629)
(0.161493 0 -0.0142793)
(0.159004 0 -0.0131105)
(0.156625 0 -0.0118442)
(0.1544 0 -0.010466)
(0.152377 0 -0.00895904)
(0.150612 0 -0.00730372)
(0.149169 0 -0.00547682)
(0.148119 0 -0.00345073)
(0.147546 0 -0.00119302)
)
;
    }
    procBoundary2to4
    {
        type            processor;
        value           nonuniform List<vector> 
11
(
(0.188454 0 -0.0274171)
(0.189937 0 -0.0271004)
(0.190815 0 -0.0266986)
(0.191161 0 -0.026232)
(0.191043 0 -0.0257162)
(0.190521 0 -0.0251629)
(0.189645 0 -0.0245803)
(0.188462 0 -0.0239734)
(0.18701 0 -0.0233446)
(0.185324 0 -0.0226945)
(0.183434 0 -0.0220219)
)
;
    }
    procBoundary2to5
    {
        type            processor;
        value           nonuniform List<vector> 
34
(
(0.182225 0 -0.0267067)
(0.178175 0 -0.0257336)
(0.176118 0 -0.0247721)
(0.176118 0 -0.0247721)
(0.171842 0 -0.0237788)
(0.168832 0 -0.0228218)
(0.168832 0 -0.0228218)
(0.165083 0 -0.0218386)
(0.165083 0 -0.0218386)
(0.159948 0 -0.0208213)
(0.155028 0 -0.0198034)
(0.155028 0 -0.0198034)
(0.149004 0 -0.0187358)
(0.142693 0 -0.0176544)
(0.142693 0 -0.0176544)
(0.135471 0 -0.0165084)
(0.135471 0 -0.0165084)
(0.127543 0 -0.0153408)
(0.118607 0 -0.014084)
(0.118607 0 -0.014084)
(0.108633 0 -0.0127397)
(0.108633 0 -0.0127397)
(0.098134 0 -0.0114006)
(0.0861158 0 -0.00989661)
(0.0861158 0 -0.00989661)
(0.0729497 0 -0.00828938)
(0.0729497 0 -0.00828938)
(0.0591854 0 -0.00668928)
(0.0436902 0 -0.00488531)
(0.0436902 0 -0.00488531)
(0.0270079 0 -0.00298312)
(0.0270079 0 -0.00298312)
(0.00915624 0 -0.00099684)
(0.00915624 0 -0.00099684)
)
;
    }
}


// ************************************************************************* //
