/*--------------------------------*- C++ -*----------------------------------*\
| =========                 |                                                 |
| \\      /  F ield         | OpenFOAM: The Open Source CFD Toolbox           |
|  \\    /   O peration     | Version:  dev                                   |
|   \\  /    A nd           | Web:      www.OpenFOAM.org                      |
|    \\/     M anipulation  |                                                 |
\*---------------------------------------------------------------------------*/
FoamFile
{
    version     2.0;
    format      ascii;
    class       pointVectorField;
    location    "1.63";
    object      pointDisplacement;
}
// * * * * * * * * * * * * * * * * * * * * * * * * * * * * * * * * * * * * * //

dimensions      [0 1 0 0 0 0 0];

internalField   nonuniform List<vector> 
1034
(
(0 0 0)
(0.0271914 0 -0.00379157)
(0.0515672 0 -0.0072297)
(0 0 0)
(0.0271914 0 -0.00379157)
(0.0515672 0 -0.0072297)
(0 0 0)
(0.0275476 0 -0.0040208)
(0.0522775 0 -0.00767158)
(0.0736581 0 -0.0109184)
(0 0 0)
(0.0279144 0 -0.0042477)
(0.0530117 0 -0.00811016)
(0.0747655 0 -0.0115523)
(0.0936471 0 -0.0146705)
(0 0 0)
(0.0282848 0 -0.00446913)
(0.0537587 0 -0.00853976)
(0.0758966 0 -0.0121752)
(0.0951738 0 -0.0154762)
(0.112041 0 -0.0185257)
(0 0 0)
(0.0286551 0 -0.00468365)
(0.0545139 0 -0.00895822)
(0.0770459 0 -0.0127844)
(0.0967306 0 -0.0162671)
(0.114028 0 -0.0194947)
(0.12933 0 -0.0225345)
(0 0 0)
(0.0290364 0 -0.00489225)
(0.0552796 0 -0.00936428)
(0.0782059 0 -0.0133761)
(0.0983061 0 -0.017038)
(0.116039 0 -0.020441)
(0.131795 0 -0.0236544)
(0.145907 0 -0.0267333)
(0 0 0)
(0.0294236 0 -0.00509246)
(0.056044 0 -0.00975261)
(0.0793588 0 -0.0139424)
(0.0998736 0 -0.0177778)
(0.118039 0 -0.0213511)
(0.134249 0 -0.0247349)
(0.148849 0 -0.0279892)
(0.162138 0 -0.0311638)
(0.174388 0 -0.0343007)
(0 0 0)
(0.0297969 0 -0.00527905)
(0.0567876 0 -0.0101163)
(0.0804881 0 -0.0144757)
(0.101418 0 -0.0184785)
(0.120019 0 -0.0222176)
(0.136684 0 -0.0257684)
(0.151764 0 -0.0291941)
(0.165554 0 -0.032544)
(0.178329 0 -0.0358637)
(0.19034 0 -0.0391957)
(0 0 0)
(0.0301551 0 -0.00545038)
(0.0575128 0 -0.0104532)
(0.0815982 0 -0.0149733)
(0.102935 0 -0.0191343)
(0.121962 0 -0.0230311)
(0.13907 0 -0.0267407)
(0.15461 0 -0.0303277)
(0.16888 0 -0.0338444)
(0.182162 0 -0.0373407)
(0.194698 0 -0.0408575)
(0.206702 0 -0.0444319)
(0.218386 0 -0.0481035)
(0 0 0)
(0.0304953 0 -0.00560434)
(0.0582111 0 -0.0107587)
(0.0826729 0 -0.0154268)
(0.104399 0 -0.0197336)
(0.123833 0 -0.0237758)
(0.141367 0 -0.0276332)
(0.157355 0 -0.031373)
(0.172093 0 -0.0350491)
(0.185851 0 -0.0387095)
(0.198863 0 -0.0423946)
(0.211347 0 -0.0461438)
(0.223513 0 -0.0499988)
(0.235557 0 -0.0540013)
(0.247661 0 -0.0581939)
(0 0 0)
(0.0308084 0 -0.0057371)
(0.0588596 0 -0.0110244)
(0.0836798 0 -0.0158245)
(0.105787 0 -0.020264)
(0.125619 0 -0.0244404)
(0.143565 0 -0.0284347)
(0.15998 0 -0.0323152)
(0.175154 0 -0.0361362)
(0.189349 0 -0.0399447)
(0.202795 0 -0.0437813)
(0.215711 0 -0.0476872)
(0.228299 0 -0.0517031)
(0.240734 0 -0.055865)
(0.25318 0 -0.0602109)
(0.265786 0 -0.0647791)
(0 0 0)
(0.0310879 0 -0.00584527)
(0.0594596 0 -0.0112463)
(0.0846263 0 -0.0161621)
(0.107093 0 -0.0207178)
(0.1273 0 -0.0250128)
(0.145638 0 -0.0291291)
(0.162453 0 -0.0331351)
(0.178031 0 -0.0370844)
(0.192625 0 -0.0410234)
(0.206461 0 -0.0449924)
(0.219753 0 -0.0490321)
(0.232693 0 -0.0531809)
(0.245438 0 -0.0574701)
(0.258139 0 -0.0619335)
(0.270927 0 -0.0666026)
(0.283897 0 -0.0715025)
(0.297149 0 -0.0766653)
(0 0 0)
(0.0313495 0 -0.00592975)
(0.0600148 0 -0.0114211)
(0.0855004 0 -0.0164311)
(0.108298 0 -0.0210827)
(0.128857 0 -0.0254782)
(0.147563 0 -0.0296996)
(0.164748 0 -0.0338127)
(0.18069 0 -0.0378706)
(0.195641 0 -0.0419194)
(0.20982 0 -0.0459988)
(0.22343 0 -0.0501467)
(0.236653 0 -0.0543984)
(0.249632 0 -0.0587815)
(0.262504 0 -0.063325)
(0.275377 0 -0.0680517)
(0.28833 0 -0.0729797)
(0.301445 0 -0.0781321)
(0.314747 0 -0.0835141)
(0.328176 0 -0.0891005)
(0 0 0)
(0.0315857 0 -0.0059868)
(0.0605045 0 -0.0115403)
(0.086283 0 -0.0166209)
(0.109394 0 -0.0213485)
(0.130277 0 -0.0258234)
(0.149317 0 -0.0301283)
(0.166837 0 -0.0343276)
(0.183103 0 -0.0384715)
(0.198367 0 -0.042607)
(0.212841 0 -0.046772)
(0.226713 0 -0.0510007)
(0.240151 0 -0.055324)
(0.253286 0 -0.0597652)
(0.266248 0 -0.0643506)
(0.279126 0 -0.0690952)
(0.291975 0 -0.0740064)
(0.304848 0 -0.0790944)
(0.317734 0 -0.0843478)
(0.330574 0 -0.0897359)
(0.343302 0 -0.095227)
(0.355842 0 -0.100784)
(0 0 0)
(0.0317852 0 -0.00601176)
(0.060931 0 -0.0115992)
(0.0869757 0 -0.0167248)
(0.110369 0 -0.0215032)
(0.131539 0 -0.0260324)
(0.150879 0 -0.0303973)
(0.168701 0 -0.0346594)
(0.185253 0 -0.0388658)
(0.200784 0 -0.0430621)
(0.215499 0 -0.0472847)
(0.229577 0 -0.0515649)
(0.243165 0 -0.0559268)
(0.256387 0 -0.0603908)
(0.269368 0 -0.0649805)
(0.282173 0 -0.0697021)
(0.294826 0 -0.0745501)
(0.307356 0 -0.0795216)
(0.31975 0 -0.084601)
(0.331969 0 -0.0897611)
(0.34396 0 -0.0949711)
(0.355654 0 -0.100194)
(0 0 0)
(0.0319458 0 -0.00600163)
(0.0612844 0 -0.011591)
(0.0875582 0 -0.016731)
(0.111203 0 -0.0215328)
(0.132635 0 -0.0260916)
(0.152242 0 -0.0304902)
(0.170321 0 -0.0347878)
(0.187122 0 -0.0390304)
(0.202879 0 -0.0432608)
(0.217782 0 -0.0475106)
(0.232007 0 -0.0518103)
(0.245692 0 -0.05618)
(0.258942 0 -0.0606331)
(0.271862 0 -0.065186)
(0.284499 0 -0.0698376)
(0.29687 0 -0.0745766)
(0.308995 0 -0.0793937)
(0.320871 0 -0.0842725)
(0.332469 0 -0.0891881)
(0.343745 0 -0.0941099)
(0.354642 0 -0.0990018)
(0 0 0)
(0.0320661 0 -0.00595346)
(0.0615602 0 -0.0115094)
(0.0880224 0 -0.0166299)
(0.111886 0 -0.0214248)
(0.133556 0 -0.0259857)
(0.153394 0 -0.0303893)
(0.171698 0 -0.0346942)
(0.188709 0 -0.0389446)
(0.204645 0 -0.0431788)
(0.219687 0 -0.0474245)
(0.234005 0 -0.0517104)
(0.247729 0 -0.056054)
(0.260937 0 -0.0604592)
(0.273712 0 -0.064933)
(0.286105 0 -0.0694727)
(0.298138 0 -0.0740673)
(0.309833 0 -0.0787043)
(0.321186 0 -0.0833656)
(0.332177 0 -0.0880265)
(0.342772 0 -0.0926583)
(0 0 0)
(0.0321439 0 -0.00586408)
(0.0617552 0 -0.0113482)
(0.0883729 0 -0.0164144)
(0.112422 0 -0.0211687)
(0.134301 0 -0.0257003)
(0.154343 0 -0.0300788)
(0.172834 0 -0.0343601)
(0.190009 0 -0.0385853)
(0.206079 0 -0.0427906)
(0.221219 0 -0.0470021)
(0.235573 0 -0.0512389)
(0.249255 0 -0.0555149)
(0.262345 0 -0.0598323)
(0.274917 0 -0.0641917)
(0.287024 0 -0.0685892)
(0.298696 0 -0.0730139)
(0.30995 0 -0.077451)
(0.320787 0 -0.0818813)
(0.331193 0 -0.0862813)
(0.341145 0 -0.0906245)
(0 0 0)
(0.0321794 0 -0.00573059)
(0.0618702 0 -0.0111016)
(0.0886217 0 -0.0160773)
(0.112833 0 -0.0207564)
(0.134883 0 -0.0252228)
(0.155088 0 -0.0295409)
(0.173727 0 -0.0337639)
(0.19103 0 -0.0379314)
(0.207186 0 -0.0420727)
(0.22236 0 -0.0462119)
(0.23668 0 -0.0503623)
(0.250257 0 -0.0545332)
(0.263179 0 -0.0587277)
(0.275515 0 -0.0629436)
(0.287317 0 -0.0671741)
(0.298616 0 -0.0714075)
(0.309431 0 -0.0756282)
(0.319766 0 -0.079817)
(0.329615 0 -0.0839518)
(0.338963 0 -0.0880093)
(0 0 0)
(0.0321906 0 -0.00555305)
(0.0619339 0 -0.0107683)
(0.088785 0 -0.0156121)
(0.11312 0 -0.0201754)
(0.135304 0 -0.0245377)
(0.155642 0 -0.0287596)
(0.174388 0 -0.0328872)
(0.191762 0 -0.0369583)
(0.207942 0 -0.0409975)
(0.223083 0 -0.0450245)
(0.237319 0 -0.0490521)
(0.250757 0 -0.0530864)
(0.263483 0 -0.0571283)
(0.275565 0 -0.0611736)
(0.287052 0 -0.065214)
(0.297977 0 -0.0692371)
(0.308362 0 -0.0732271)
(0.318215 0 -0.0771654)
(0.327536 0 -0.0810311)
(0.336326 0 -0.0848067)
(0 0 0)
(0.0321816 0 -0.00532882)
(0.0619487 0 -0.010342)
(0.0888668 0 -0.0150094)
(0.1133 0 -0.019416)
(0.135579 0 -0.0236324)
(0.155998 0 -0.027716)
(0.174792 0 -0.0317078)
(0.192175 0 -0.0356408)
(0.208327 0 -0.0395391)
(0.223401 0 -0.0434188)
(0.237524 0 -0.0472897)
(0.250801 0 -0.0511558)
(0.263315 0 -0.0550161)
(0.275132 0 -0.058865)
(0.286302 0 -0.0626934)
(0.29686 0 -0.0664884)
(0.306831 0 -0.0702348)
(0.316227 0 -0.0739147)
(0.325056 0 -0.077509)
(0.333333 0 -0.0810048)
(0 0 0)
(0.0321588 0 -0.00505535)
(0.0619344 0 -0.00981952)
(0.0888833 0 -0.0142623)
(0.113365 0 -0.0184651)
(0.135685 0 -0.0224908)
(0.156121 0 -0.0263908)
(0.174916 0 -0.0302044)
(0.192275 0 -0.0339606)
(0.208372 0 -0.03768)
(0.223355 0 -0.041376)
(0.237346 0 -0.0450559)
(0.250447 0 -0.048722)
(0.262739 0 -0.0523718)
(0.274288 0 -0.0559988)
(0.285145 0 -0.0595933)
(0.295349 0 -0.0631429)
(0.304926 0 -0.0666329)
(0.313897 0 -0.0700469)
(0.322274 0 -0.0733677)
(0.33008 0 -0.0765844)
(0 0 0)
(0.0321056 0 -0.00472712)
(0.0618621 0 -0.00919105)
(0.088803 0 -0.0133599)
(0.113276 0 -0.0173088)
(0.135591 0 -0.0210969)
(0.156018 0 -0.0247702)
(0.174788 0 -0.0283633)
(0.192099 0 -0.0319015)
(0.208121 0 -0.0354025)
(0.222995 0 -0.0388771)
(0.23684 0 -0.0423308)
(0.249756 0 -0.0457642)
(0.261824 0 -0.0491737)
(0.27311 0 -0.0525525)
(0.283665 0 -0.0558908)
(0.293532 0 -0.0591766)
(0.302741 0 -0.0623963)
(0.311318 0 -0.0655351)
(0.319281 0 -0.0685777)
(0.326657 0 -0.0715146)
(0 0 0)
(0.0320025 0 -0.00434036)
(0.061692 0 -0.00844772)
(0.0885925 0 -0.0122917)
(0.113035 0 -0.0159385)
(0.135323 0 -0.0194419)
(0.155719 0 -0.0228423)
(0.174444 0 -0.0261703)
(0.191691 0 -0.0294475)
(0.207623 0 -0.0326887)
(0.222377 0 -0.0359026)
(0.236071 0 -0.039093)
(0.2488 0 -0.0422592)
(0.260648 0 -0.0453972)
(0.271679 0 -0.0484998)
(0.281948 0 -0.0515576)
(0.2915 0 -0.0545593)
(0.30037 0 -0.0574924)
(0.308586 0 -0.0603438)
(0.316173 0 -0.0630999)
(0.32316 0 -0.0657524)
(0 0 0)
(0.0318577 0 -0.00389512)
(0.0614443 0 -0.00758916)
(0.0882783 0 -0.0110543)
(0.112671 0 -0.0143479)
(0.134916 0 -0.0175168)
(0.155264 0 -0.020596)
(0.173931 0 -0.0236118)
(0.191102 0 -0.0265825)
(0.206936 0 -0.0295201)
(0.221566 0 -0.0324316)
(0.235107 0 -0.0353191)
(0.247656 0 -0.0381813)
(0.259293 0 -0.0410138)
(0.270085 0 -0.0438096)
(0.280089 0 -0.0465596)
(0.289352 0 -0.0492537)
(0.297913 0 -0.0518805)
(0.305804 0 -0.0544283)
(0.313053 0 -0.0568854)
(0.319694 0 -0.0592444)
(0 0 0)
(0.0316849 0 -0.0033909)
(0.0611438 0 -0.00661395)
(0.0878924 0 -0.00964481)
(0.112222 0 -0.0125316)
(0.134411 0 -0.0153137)
(0.154702 0 -0.0180209)
(0.173302 0 -0.0206748)
(0.190392 0 -0.0232906)
(0.206126 0 -0.0258779)
(0.220634 0 -0.0284419)
(0.234029 0 -0.0309837)
(0.246407 0 -0.0335016)
(0.257849 0 -0.0359909)
(0.268423 0 -0.0384451)
(0.278188 0 -0.0408559)
(0.287192 0 -0.0432143)
(0.295477 0 -0.04551)
(0.303081 0 -0.0477331)
(0.310033 0 -0.0498735)
(0.316369 0 -0.0519244)
(0 0 0)
(0.0314986 0 -0.00282744)
(0.0608173 0 -0.00552105)
(0.0874704 0 -0.00806064)
(0.111728 0 -0.0104849)
(0.133856 0 -0.0128258)
(0.154085 0 -0.0151071)
(0.172618 0 -0.0173464)
(0.189628 0 -0.0195556)
(0.205265 0 -0.0217422)
(0.219659 0 -0.0239097)
(0.232921 0 -0.0260588)
(0.245146 0 -0.0281871)
(0.256414 0 -0.0302906)
(0.266796 0 -0.0323632)
(0.276351 0 -0.0343977)
(0.28513 0 -0.0363862)
(0.293178 0 -0.03832)
(0.300534 0 -0.0401907)
(0.307231 0 -0.0419896)
(0.313308 0 -0.0437111)
(0 0 0)
(0.031315 0 -0.00220476)
(0.0604945 0 -0.00430996)
(0.0870524 0 -0.0063001)
(0.111239 0 -0.00820439)
(0.133306 0 -0.010047)
(0.153477 0 -0.011846)
(0.171946 0 -0.0136146)
(0.188883 0 -0.0153617)
(0.204435 0 -0.0170926)
(0.21873 0 -0.0188099)
(0.231877 0 -0.0205135)
(0.243971 0 -0.0222014)
(0.255093 0 -0.0238698)
(0.265314 0 -0.0255138)
(0.274695 0 -0.0271274)
(0.283288 0 -0.028704)
(0.291139 0 -0.0302369)
(0.298291 0 -0.0317189)
(0.30478 0 -0.0331434)
(0.310645 0 -0.0345054)
(0 0 0)
(0.0311525 0 -0.0015232)
(0.0602095 0 -0.00298084)
(0.086684 0 -0.00436245)
(0.110809 0 -0.00568765)
(0.132824 0 -0.00697272)
(0.152945 0 -0.00822991)
(0.171361 0 -0.00946805)
(0.188239 0 -0.0106931)
(0.203723 0 -0.0119085)
(0.21794 0 -0.0131158)
(0.230997 0 -0.0143147)
(0.24299 0 -0.0155035)
(0.253999 0 -0.0166796)
(0.264096 0 -0.0178391)
(0.273343 0 -0.0189776)
(0.281794 0 -0.0200905)
(0.289497 0 -0.0211727)
(0.296495 0 -0.0222192)
(0.302825 0 -0.0232249)
(0.308529 0 -0.0241864)
(0 0 0)
(0.0310344 0 -0.000783566)
(0.0600034 0 -0.00153478)
(0.0864192 0 -0.00224839)
(0.110501 0 -0.00293427)
(0.13248 0 -0.00360066)
(0.152567 0 -0.00425376)
(0.170948 0 -0.00489804)
(0.187786 0 -0.00553648)
(0.203226 0 -0.00617081)
(0.217391 0 -0.0068017)
(0.23039 0 -0.00742896)
(0.242317 0 -0.00805163)
(0.253253 0 -0.00866817)
(0.263271 0 -0.00927655)
(0.272432 0 -0.00987442)
(0.280792 0 -0.0104592)
(0.2884 0 -0.0110281)
(0.295298 0 -0.0115785)
(0.301528 0 -0.0121077)
(0.307129 0 -0.0126136)
(0 0 0)
(0.0310074 0 0)
(0.0599425 0 0)
(0.0863348 0 0)
(0.110399 0 0)
(0.132364 0 0)
(0.152437 0 0)
(0.170804 0 0)
(0.187628 0 0)
(0.20305 0 0)
(0.217197 0 0)
(0.230174 0 0)
(0.242077 0 0)
(0.252988 0 0)
(0.262977 0 0)
(0.272108 0 0)
(0.280436 0 0)
(0.288009 0 0)
(0.294873 0 0)
(0.301067 0 0)
(0.306632 0 0)
(0 0 0)
(0.0275476 0 -0.0040208)
(0.0522775 0 -0.00767158)
(0.0736581 0 -0.0109184)
(0 0 0)
(0.0279144 0 -0.0042477)
(0.0530117 0 -0.00811016)
(0.0747655 0 -0.0115523)
(0.0936471 0 -0.0146705)
(0 0 0)
(0.0282848 0 -0.00446913)
(0.0537587 0 -0.00853976)
(0.0758966 0 -0.0121752)
(0.0951738 0 -0.0154762)
(0.112041 0 -0.0185257)
(0 0 0)
(0.0286551 0 -0.00468365)
(0.0545139 0 -0.00895822)
(0.0770459 0 -0.0127844)
(0.0967306 0 -0.0162671)
(0.114028 0 -0.0194947)
(0.12933 0 -0.0225345)
(0 0 0)
(0.0290364 0 -0.00489225)
(0.0552796 0 -0.00936428)
(0.0782059 0 -0.0133761)
(0.0983061 0 -0.017038)
(0.116039 0 -0.020441)
(0.131795 0 -0.0236544)
(0.145907 0 -0.0267333)
(0 0 0)
(0.0294236 0 -0.00509246)
(0.056044 0 -0.00975261)
(0.0793588 0 -0.0139424)
(0.0998736 0 -0.0177778)
(0.118039 0 -0.0213511)
(0.134249 0 -0.0247349)
(0.148849 0 -0.0279892)
(0.162138 0 -0.0311638)
(0.174388 0 -0.0343007)
(0 0 0)
(0.0297969 0 -0.00527905)
(0.0567876 0 -0.0101163)
(0.0804881 0 -0.0144757)
(0.101418 0 -0.0184785)
(0.120019 0 -0.0222176)
(0.136684 0 -0.0257684)
(0.151764 0 -0.0291941)
(0.165554 0 -0.032544)
(0.178329 0 -0.0358637)
(0.19034 0 -0.0391957)
(0 0 0)
(0.0301551 0 -0.00545038)
(0.0575128 0 -0.0104532)
(0.0815982 0 -0.0149733)
(0.102935 0 -0.0191343)
(0.121962 0 -0.0230311)
(0.13907 0 -0.0267407)
(0.15461 0 -0.0303277)
(0.16888 0 -0.0338444)
(0.182162 0 -0.0373407)
(0.194698 0 -0.0408575)
(0.206702 0 -0.0444319)
(0.218386 0 -0.0481035)
(0 0 0)
(0.0304953 0 -0.00560434)
(0.0582111 0 -0.0107587)
(0.0826729 0 -0.0154268)
(0.104399 0 -0.0197336)
(0.123833 0 -0.0237758)
(0.141367 0 -0.0276332)
(0.157355 0 -0.031373)
(0.172093 0 -0.0350491)
(0.185851 0 -0.0387095)
(0.198863 0 -0.0423946)
(0.211347 0 -0.0461438)
(0.223513 0 -0.0499988)
(0.235557 0 -0.0540013)
(0.247661 0 -0.0581939)
(0 0 0)
(0.0308084 0 -0.0057371)
(0.0588596 0 -0.0110244)
(0.0836798 0 -0.0158245)
(0.105787 0 -0.020264)
(0.125619 0 -0.0244404)
(0.143565 0 -0.0284347)
(0.15998 0 -0.0323152)
(0.175154 0 -0.0361362)
(0.189349 0 -0.0399447)
(0.202795 0 -0.0437813)
(0.215711 0 -0.0476872)
(0.228299 0 -0.0517031)
(0.240734 0 -0.055865)
(0.25318 0 -0.0602109)
(0.265786 0 -0.0647791)
(0 0 0)
(0.0310879 0 -0.00584527)
(0.0594596 0 -0.0112463)
(0.0846263 0 -0.0161621)
(0.107093 0 -0.0207178)
(0.1273 0 -0.0250128)
(0.145638 0 -0.0291291)
(0.162453 0 -0.0331351)
(0.178031 0 -0.0370844)
(0.192625 0 -0.0410234)
(0.206461 0 -0.0449924)
(0.219753 0 -0.0490321)
(0.232693 0 -0.0531809)
(0.245438 0 -0.0574701)
(0.258139 0 -0.0619335)
(0.270927 0 -0.0666026)
(0.283897 0 -0.0715025)
(0.297149 0 -0.0766653)
(0 0 0)
(0.0313495 0 -0.00592975)
(0.0600148 0 -0.0114211)
(0.0855004 0 -0.0164311)
(0.108298 0 -0.0210827)
(0.128857 0 -0.0254782)
(0.147563 0 -0.0296996)
(0.164748 0 -0.0338127)
(0.18069 0 -0.0378706)
(0.195641 0 -0.0419194)
(0.20982 0 -0.0459988)
(0.22343 0 -0.0501467)
(0.236653 0 -0.0543984)
(0.249632 0 -0.0587815)
(0.262504 0 -0.063325)
(0.275377 0 -0.0680517)
(0.28833 0 -0.0729797)
(0.301445 0 -0.0781321)
(0.314747 0 -0.0835141)
(0.328176 0 -0.0891005)
(0 0 0)
(0.0315857 0 -0.0059868)
(0.0605045 0 -0.0115403)
(0.086283 0 -0.0166209)
(0.109394 0 -0.0213485)
(0.130277 0 -0.0258234)
(0.149317 0 -0.0301283)
(0.166837 0 -0.0343276)
(0.183103 0 -0.0384715)
(0.198367 0 -0.042607)
(0.212841 0 -0.046772)
(0.226713 0 -0.0510007)
(0.240151 0 -0.055324)
(0.253286 0 -0.0597652)
(0.266248 0 -0.0643506)
(0.279126 0 -0.0690952)
(0.291975 0 -0.0740064)
(0.304848 0 -0.0790944)
(0.317734 0 -0.0843478)
(0.330574 0 -0.0897359)
(0.343302 0 -0.095227)
(0.355842 0 -0.100784)
(0 0 0)
(0.0317852 0 -0.00601176)
(0.060931 0 -0.0115992)
(0.0869757 0 -0.0167248)
(0.110369 0 -0.0215032)
(0.131539 0 -0.0260324)
(0.150879 0 -0.0303973)
(0.168701 0 -0.0346594)
(0.185253 0 -0.0388658)
(0.200784 0 -0.0430621)
(0.215499 0 -0.0472847)
(0.229577 0 -0.0515649)
(0.243165 0 -0.0559268)
(0.256387 0 -0.0603908)
(0.269368 0 -0.0649805)
(0.282173 0 -0.0697021)
(0.294826 0 -0.0745501)
(0.307356 0 -0.0795216)
(0.31975 0 -0.084601)
(0.331969 0 -0.0897611)
(0.34396 0 -0.0949711)
(0.355654 0 -0.100194)
(0 0 0)
(0.0319458 0 -0.00600163)
(0.0612844 0 -0.011591)
(0.0875582 0 -0.016731)
(0.111203 0 -0.0215328)
(0.132635 0 -0.0260916)
(0.152242 0 -0.0304902)
(0.170321 0 -0.0347878)
(0.187122 0 -0.0390304)
(0.202879 0 -0.0432608)
(0.217782 0 -0.0475106)
(0.232007 0 -0.0518103)
(0.245692 0 -0.05618)
(0.258942 0 -0.0606331)
(0.271862 0 -0.065186)
(0.284499 0 -0.0698376)
(0.29687 0 -0.0745766)
(0.308995 0 -0.0793937)
(0.320871 0 -0.0842725)
(0.332469 0 -0.0891881)
(0.343745 0 -0.0941099)
(0.354642 0 -0.0990018)
(0 0 0)
(0.0320661 0 -0.00595346)
(0.0615602 0 -0.0115094)
(0.0880224 0 -0.0166299)
(0.111886 0 -0.0214248)
(0.133556 0 -0.0259857)
(0.153394 0 -0.0303893)
(0.171698 0 -0.0346942)
(0.188709 0 -0.0389446)
(0.204645 0 -0.0431788)
(0.219687 0 -0.0474245)
(0.234005 0 -0.0517104)
(0.247729 0 -0.056054)
(0.260937 0 -0.0604592)
(0.273712 0 -0.064933)
(0.286105 0 -0.0694727)
(0.298138 0 -0.0740673)
(0.309833 0 -0.0787043)
(0.321186 0 -0.0833656)
(0.332177 0 -0.0880265)
(0.342772 0 -0.0926583)
(0 0 0)
(0.0321439 0 -0.00586408)
(0.0617552 0 -0.0113482)
(0.0883729 0 -0.0164144)
(0.112422 0 -0.0211687)
(0.134301 0 -0.0257003)
(0.154343 0 -0.0300788)
(0.172834 0 -0.0343601)
(0.190009 0 -0.0385853)
(0.206079 0 -0.0427906)
(0.221219 0 -0.0470021)
(0.235573 0 -0.0512389)
(0.249255 0 -0.0555149)
(0.262345 0 -0.0598323)
(0.274917 0 -0.0641917)
(0.287024 0 -0.0685892)
(0.298696 0 -0.0730139)
(0.30995 0 -0.077451)
(0.320787 0 -0.0818813)
(0.331193 0 -0.0862813)
(0.341145 0 -0.0906245)
(0 0 0)
(0.0321794 0 -0.00573059)
(0.0618702 0 -0.0111016)
(0.0886217 0 -0.0160773)
(0.112833 0 -0.0207564)
(0.134883 0 -0.0252228)
(0.155088 0 -0.0295409)
(0.173727 0 -0.0337639)
(0.19103 0 -0.0379314)
(0.207186 0 -0.0420727)
(0.22236 0 -0.0462119)
(0.23668 0 -0.0503623)
(0.250257 0 -0.0545332)
(0.263179 0 -0.0587277)
(0.275515 0 -0.0629436)
(0.287317 0 -0.0671741)
(0.298616 0 -0.0714075)
(0.309431 0 -0.0756282)
(0.319766 0 -0.079817)
(0.329615 0 -0.0839518)
(0.338963 0 -0.0880093)
(0 0 0)
(0.0321906 0 -0.00555305)
(0.0619339 0 -0.0107683)
(0.088785 0 -0.0156121)
(0.11312 0 -0.0201754)
(0.135304 0 -0.0245377)
(0.155642 0 -0.0287596)
(0.174388 0 -0.0328872)
(0.191762 0 -0.0369583)
(0.207942 0 -0.0409975)
(0.223083 0 -0.0450245)
(0.237319 0 -0.0490521)
(0.250757 0 -0.0530864)
(0.263483 0 -0.0571283)
(0.275565 0 -0.0611736)
(0.287052 0 -0.065214)
(0.297977 0 -0.0692371)
(0.308362 0 -0.0732271)
(0.318215 0 -0.0771654)
(0.327536 0 -0.0810311)
(0.336326 0 -0.0848067)
(0 0 0)
(0.0321816 0 -0.00532882)
(0.0619487 0 -0.010342)
(0.0888668 0 -0.0150094)
(0.1133 0 -0.019416)
(0.135579 0 -0.0236324)
(0.155998 0 -0.027716)
(0.174792 0 -0.0317078)
(0.192175 0 -0.0356408)
(0.208327 0 -0.0395391)
(0.223401 0 -0.0434188)
(0.237524 0 -0.0472897)
(0.250801 0 -0.0511558)
(0.263315 0 -0.0550161)
(0.275132 0 -0.058865)
(0.286302 0 -0.0626934)
(0.29686 0 -0.0664884)
(0.306831 0 -0.0702348)
(0.316227 0 -0.0739147)
(0.325056 0 -0.077509)
(0.333333 0 -0.0810048)
(0 0 0)
(0.0321588 0 -0.00505535)
(0.0619344 0 -0.00981952)
(0.0888833 0 -0.0142623)
(0.113365 0 -0.0184651)
(0.135685 0 -0.0224908)
(0.156121 0 -0.0263908)
(0.174916 0 -0.0302044)
(0.192275 0 -0.0339606)
(0.208372 0 -0.03768)
(0.223355 0 -0.041376)
(0.237346 0 -0.0450559)
(0.250447 0 -0.048722)
(0.262739 0 -0.0523718)
(0.274288 0 -0.0559988)
(0.285145 0 -0.0595933)
(0.295349 0 -0.0631429)
(0.304926 0 -0.0666329)
(0.313897 0 -0.0700469)
(0.322274 0 -0.0733677)
(0.33008 0 -0.0765844)
(0 0 0)
(0.0321056 0 -0.00472712)
(0.0618621 0 -0.00919105)
(0.088803 0 -0.0133599)
(0.113276 0 -0.0173088)
(0.135591 0 -0.0210969)
(0.156018 0 -0.0247702)
(0.174788 0 -0.0283633)
(0.192099 0 -0.0319015)
(0.208121 0 -0.0354025)
(0.222995 0 -0.0388771)
(0.23684 0 -0.0423308)
(0.249756 0 -0.0457642)
(0.261824 0 -0.0491737)
(0.27311 0 -0.0525525)
(0.283665 0 -0.0558908)
(0.293532 0 -0.0591766)
(0.302741 0 -0.0623963)
(0.311318 0 -0.0655351)
(0.319281 0 -0.0685777)
(0.326657 0 -0.0715146)
(0 0 0)
(0.0320025 0 -0.00434036)
(0.061692 0 -0.00844772)
(0.0885925 0 -0.0122917)
(0.113035 0 -0.0159385)
(0.135323 0 -0.0194419)
(0.155719 0 -0.0228423)
(0.174444 0 -0.0261703)
(0.191691 0 -0.0294475)
(0.207623 0 -0.0326887)
(0.222377 0 -0.0359026)
(0.236071 0 -0.039093)
(0.2488 0 -0.0422592)
(0.260648 0 -0.0453972)
(0.271679 0 -0.0484998)
(0.281948 0 -0.0515576)
(0.2915 0 -0.0545593)
(0.30037 0 -0.0574924)
(0.308586 0 -0.0603438)
(0.316173 0 -0.0630999)
(0.32316 0 -0.0657524)
(0 0 0)
(0.0318577 0 -0.00389512)
(0.0614443 0 -0.00758916)
(0.0882783 0 -0.0110543)
(0.112671 0 -0.0143479)
(0.134916 0 -0.0175168)
(0.155264 0 -0.020596)
(0.173931 0 -0.0236118)
(0.191102 0 -0.0265825)
(0.206936 0 -0.0295201)
(0.221566 0 -0.0324316)
(0.235107 0 -0.0353191)
(0.247656 0 -0.0381813)
(0.259293 0 -0.0410138)
(0.270085 0 -0.0438096)
(0.280089 0 -0.0465596)
(0.289352 0 -0.0492537)
(0.297913 0 -0.0518805)
(0.305804 0 -0.0544283)
(0.313053 0 -0.0568854)
(0.319694 0 -0.0592444)
(0 0 0)
(0.0316849 0 -0.0033909)
(0.0611438 0 -0.00661395)
(0.0878924 0 -0.00964481)
(0.112222 0 -0.0125316)
(0.134411 0 -0.0153137)
(0.154702 0 -0.0180209)
(0.173302 0 -0.0206748)
(0.190392 0 -0.0232906)
(0.206126 0 -0.0258779)
(0.220634 0 -0.0284419)
(0.234029 0 -0.0309837)
(0.246407 0 -0.0335016)
(0.257849 0 -0.0359909)
(0.268423 0 -0.0384451)
(0.278188 0 -0.0408559)
(0.287192 0 -0.0432143)
(0.295477 0 -0.04551)
(0.303081 0 -0.0477331)
(0.310033 0 -0.0498735)
(0.316369 0 -0.0519244)
(0 0 0)
(0.0314986 0 -0.00282744)
(0.0608173 0 -0.00552105)
(0.0874704 0 -0.00806064)
(0.111728 0 -0.0104849)
(0.133856 0 -0.0128258)
(0.154085 0 -0.0151071)
(0.172618 0 -0.0173464)
(0.189628 0 -0.0195556)
(0.205265 0 -0.0217422)
(0.219659 0 -0.0239097)
(0.232921 0 -0.0260588)
(0.245146 0 -0.0281871)
(0.256414 0 -0.0302906)
(0.266796 0 -0.0323632)
(0.276351 0 -0.0343977)
(0.28513 0 -0.0363862)
(0.293178 0 -0.03832)
(0.300534 0 -0.0401907)
(0.307231 0 -0.0419896)
(0.313308 0 -0.0437111)
(0 0 0)
(0.031315 0 -0.00220476)
(0.0604945 0 -0.00430996)
(0.0870524 0 -0.0063001)
(0.111239 0 -0.00820439)
(0.133306 0 -0.010047)
(0.153477 0 -0.011846)
(0.171946 0 -0.0136146)
(0.188883 0 -0.0153617)
(0.204435 0 -0.0170926)
(0.21873 0 -0.0188099)
(0.231877 0 -0.0205135)
(0.243971 0 -0.0222014)
(0.255093 0 -0.0238698)
(0.265314 0 -0.0255138)
(0.274695 0 -0.0271274)
(0.283288 0 -0.028704)
(0.291139 0 -0.0302369)
(0.298291 0 -0.0317189)
(0.30478 0 -0.0331434)
(0.310645 0 -0.0345054)
(0 0 0)
(0.0311525 0 -0.0015232)
(0.0602095 0 -0.00298084)
(0.086684 0 -0.00436245)
(0.110809 0 -0.00568765)
(0.132824 0 -0.00697272)
(0.152945 0 -0.00822991)
(0.171361 0 -0.00946805)
(0.188239 0 -0.0106931)
(0.203723 0 -0.0119085)
(0.21794 0 -0.0131158)
(0.230997 0 -0.0143147)
(0.24299 0 -0.0155035)
(0.253999 0 -0.0166796)
(0.264096 0 -0.0178391)
(0.273343 0 -0.0189776)
(0.281794 0 -0.0200905)
(0.289497 0 -0.0211727)
(0.296495 0 -0.0222192)
(0.302825 0 -0.0232249)
(0.308529 0 -0.0241864)
(0 0 0)
(0.0310344 0 -0.000783566)
(0.0600034 0 -0.00153478)
(0.0864192 0 -0.00224839)
(0.110501 0 -0.00293427)
(0.13248 0 -0.00360066)
(0.152567 0 -0.00425376)
(0.170948 0 -0.00489804)
(0.187786 0 -0.00553648)
(0.203226 0 -0.00617081)
(0.217391 0 -0.0068017)
(0.23039 0 -0.00742896)
(0.242317 0 -0.00805163)
(0.253253 0 -0.00866817)
(0.263271 0 -0.00927655)
(0.272432 0 -0.00987442)
(0.280792 0 -0.0104592)
(0.2884 0 -0.0110281)
(0.295298 0 -0.0115785)
(0.301528 0 -0.0121077)
(0.307129 0 -0.0126136)
(0 0 0)
(0.0310074 0 0)
(0.0599425 0 0)
(0.0863348 0 0)
(0.110399 0 0)
(0.132364 0 0)
(0.152437 0 0)
(0.170804 0 0)
(0.187628 0 0)
(0.20305 0 0)
(0.217197 0 0)
(0.230174 0 0)
(0.242077 0 0)
(0.252988 0 0)
(0.262977 0 0)
(0.272108 0 0)
(0.280436 0 0)
(0.288009 0 0)
(0.294873 0 0)
(0.301067 0 0)
(0.306632 0 0)
)
;

boundaryField
{
    inlet
    {
        type            fixedValue;
        value           uniform (0 0 0);
    }
    outlet
    {
        type            fixedValue;
        value           nonuniform 0();
    }
    flap
    {
        type            fixedValue;
        value           nonuniform 0();
    }
    upperWall
    {
        type            slip;
    }
    lowerWall
    {
        type            slip;
    }
    frontAndBack
    {
        type            empty;
    }
    procBoundary0to1
    {
        type            processor;
    }
    procBoundary0to3
    {
        type            processor;
    }
}


// ************************************************************************* //
