/*--------------------------------*- C++ -*----------------------------------*\
| =========                 |                                                 |
| \\      /  F ield         | OpenFOAM: The Open Source CFD Toolbox           |
|  \\    /   O peration     | Version:  dev                                   |
|   \\  /    A nd           | Web:      www.OpenFOAM.org                      |
|    \\/     M anipulation  |                                                 |
\*---------------------------------------------------------------------------*/
FoamFile
{
    version     2.0;
    format      ascii;
    class       surfaceVectorField;
    location    "3.02";
    object      Uf;
}
// * * * * * * * * * * * * * * * * * * * * * * * * * * * * * * * * * * * * * //

dimensions      [0 1 -1 0 0 0 0];

internalField   nonuniform List<vector> 
5457
(
(9.91142 -4.71011e-21 0.0240201)
(9.97514 1.00955e-20 0.039191)
(9.80876 -9.445e-21 0.0313759)
(9.92686 -1.1491e-21 0.0468508)
(9.6898 -7.26824e-21 0.0374933)
(9.84718 4.80509e-21 0.0561834)
(9.55277 -2.46471e-21 0.0436997)
(9.74617 -1.74188e-20 0.066953)
(9.39813 -5.91125e-24 0.0500086)
(9.62742 7.74484e-21 0.0781274)
(9.2265 0 0.0564822)
(9.49096 0 0.089621)
(9.03797 0 0.0632759)
(9.33651 -5.62987e-21 0.101713)
(8.83225 6.21132e-21 0.0705206)
(9.16386 1.15634e-20 0.114634)
(8.60888 1.25578e-20 0.0783201)
(8.97272 3.04123e-20 0.128527)
(8.36728 -7.03526e-21 0.0867825)
(8.76269 6.70706e-21 0.143529)
(8.10668 1.17033e-21 0.0960305)
(8.53312 -3.84611e-20 0.159815)
(7.82614 1.56998e-20 0.106195)
(8.28313 -4.20858e-20 0.177586)
(7.5246 -1.32845e-20 0.117408)
(8.01176 5.70615e-20 0.197032)
(7.20092 1.35398e-20 0.129796)
(7.71791 4.51646e-20 0.218328)
(6.85394 -5.92541e-21 0.143481)
(7.40042 -3.02932e-20 0.241627)
(6.48253 -3.23483e-20 0.158576)
(7.05812 -4.10193e-20 0.26705)
(6.08569 9.21322e-21 0.175174)
(6.68988 1.37713e-19 0.294667)
(5.66263 8.93294e-21 0.193342)
(6.29472 -1.41932e-19 0.324475)
(5.21286 0 0.213098)
(5.87189 -1.32141e-19 0.356367)
(4.7364 0 0.234365)
(5.421 3.69836e-20 0.39007)
(4.23397 2.21507e-20 0.256927)
(4.94213 2.03777e-19 0.425054)
(3.70725 9.14538e-20 0.280403)
(4.43613 -3.44019e-19 0.460454)
(3.15918 2.1446e-19 0.304169)
(3.90488 4.46427e-19 0.495028)
(2.59427 -5.62994e-20 0.327199)
(3.35156 9.84488e-20 0.526973)
(2.0192 1.30947e-20 0.347759)
(2.78095 -1.96915e-19 0.553632)
(1.44363 2.58624e-19 0.362624)
(2.20004 2.05323e-19 0.571008)
(0.881883 -1.61888e-19 0.363925)
(1.61852 3.91207e-21 0.572571)
(0.357685 2.18168e-19 0.308382)
(1.05181 -1.09338e-19 0.544803)
(-0.0633827 -4.80774e-20 -0.00963766)
(0.478201 1.28114e-18 0.431876)
(0.207824 -1.34951e-18 -0.0662647)
(9.99833 1.34571e-20 0.0498355)
(10.0046 -1.9025e-20 0.0399225)
(9.96014 1.31854e-20 0.0676549)
(9.98399 5.78417e-21 0.0642713)
(9.89973 -5.72819e-21 0.0833529)
(9.93554 1.92056e-20 0.0847101)
(9.81911 -6.78369e-21 0.0996872)
(9.86632 -4.97308e-21 0.10634)
(9.71871 7.61943e-21 0.116654)
(9.77871 2.59342e-21 0.128844)
(9.59901 -5.72281e-21 0.13435)
(9.67283 -1.07975e-20 0.152124)
(9.4601 6.21889e-21 0.153111)
(9.54865 2.77815e-20 0.176653)
(9.30178 3.60694e-20 0.173214)
(9.40608 -1.14949e-20 0.202856)
(9.1237 2.41698e-20 0.194879)
(9.24491 2.4302e-20 0.230997)
(8.92537 -2.54508e-20 0.21835)
(9.06485 2.64069e-22 0.261365)
(8.70604 -8.17777e-20 0.243911)
(8.86532 -2.4489e-20 0.294338)
(8.46481 8.35427e-22 0.271855)
(8.6455 -3.10845e-22 0.33032)
(8.20065 1.15327e-19 0.302455)
(8.40453 1.09458e-19 0.369693)
(7.91242 1.71774e-22 0.335962)
(8.14138 -6.51744e-20 0.412818)
(7.59894 -6.5542e-20 0.372591)
(7.85493 -5.04351e-20 0.46003)
(7.25902 1.31824e-19 0.412496)
(7.54402 1.30364e-19 0.511606)
(6.89155 -1.76915e-20 0.45574)
(7.20748 -1.16063e-19 0.567731)
(6.49557 -2.82933e-19 0.502257)
(6.84418 2.74276e-19 0.628453)
(6.07039 -9.28178e-20 0.551789)
(6.45315 -4.4443e-19 0.693617)
(5.61568 2.4298e-19 0.603777)
(6.03365 -3.51441e-19 0.762772)
(5.13175 -1.70667e-19 0.657226)
(5.58528 4.83791e-19 0.834985)
(4.61969 2.12607e-20 0.710614)
(5.10805 -3.66197e-19 0.908658)
(4.08174 3.25592e-19 0.761716)
(4.6028 1.08322e-18 0.981414)
(3.52155 -4.59829e-20 0.807255)
(4.07134 -7.72179e-19 1.04976)
(2.94471 0 0.842281)
(3.51647 0 1.10848)
(2.35954 -5.19229e-20 0.858787)
(2.94242 0 1.14963)
(1.77845 5.43448e-20 0.841824)
(2.35434 -1.66555e-18 1.15995)
(1.22091 9.52741e-19 0.759195)
(1.75976 1.43984e-18 1.11343)
(0.691281 -4.45256e-20 0.565272)
(1.11974 2.5163e-18 0.962242)
(0.717323 -2.43942e-18 0.621582)
(9.9911 -2.63204e-20 0.0570382)
(10.0023 6.64803e-21 0.0438618)
(9.95656 1.20396e-20 0.0846278)
(9.97922 2.07584e-20 0.0800494)
(9.90004 1.95659e-20 0.110569)
(9.93195 -9.51381e-21 0.111426)
(9.8248 4.53991e-21 0.137548)
(9.866 2.59296e-23 0.143133)
(9.73166 -1.60516e-20 0.165739)
(9.78263 -5.15987e-21 0.175933)
(9.62096 2.33531e-20 0.195344)
(9.68189 -2.14958e-20 0.20997)
(9.4928 9.42415e-21 0.226824)
(9.564 3.89721e-20 0.245842)
(9.3471 -2.26898e-20 0.260566)
(9.4291 -2.3063e-20 0.284099)
(9.18365 0 0.296904)
(9.27707 0 0.325109)
(9.00205 8.27465e-22 0.336251)
(9.10772 5.02209e-20 0.369323)
(8.80166 5.73695e-20 0.379085)
(8.92061 -5.25595e-20 0.417315)
(8.58171 1.10047e-19 0.425885)
(8.71512 5.52803e-20 0.469661)
(8.34129 -7.37891e-20 0.477111)
(8.49057 5.7929e-20 0.52692)
(8.07939 -1.15579e-19 0.5332)
(8.24614 -1.18022e-19 0.589642)
(7.79489 1.48273e-19 0.594544)
(7.98089 1.39124e-19 0.658354)
(7.48664 -1.21286e-19 0.661448)
(7.69384 -2.4722e-19 0.733518)
(7.15347 1.81841e-19 0.73408)
(7.38394 -2.91013e-19 0.815484)
(6.79423 1.02357e-19 0.81241)
(7.05011 7.03265e-19 0.90443)
(6.40789 -7.01694e-19 0.896111)
(6.69129 -2.75957e-19 1.00028)
(5.99361 -9.88158e-20 0.984397)
(6.30645 2.62558e-19 1.10258)
(5.55081 2.76227e-19 1.07579)
(5.89473 -4.29545e-19 1.21026)
(5.07937 7.1501e-19 1.16793)
(5.45519 9.029e-20 1.32132)
(4.5798 -3.69626e-20 1.25734)
(4.98726 2.16357e-20 1.43266)
(4.05332 -7.17014e-19 1.33892)
(4.49073 -8.1416e-21 1.53973)
(3.50184 0 1.40511)
(3.96531 7.48912e-19 1.63582)
(2.92771 -1.62581e-18 1.44462)
(3.41052 -1.33001e-18 1.71106)
(2.33152 -2.65884e-19 1.43981)
(2.82414 -1.61038e-18 1.7511)
(1.7043 2.99721e-18 1.3661)
(2.20344 1.52872e-18 1.73444)
(1.00016 1.51939e-19 1.20358)
(1.49457 3.29698e-18 1.64471)
(0.890923 -6.13134e-21 1.44672)
(9.98668 5.39623e-20 0.0674826)
(10.001 -1.32848e-20 0.0497593)
(9.95237 -1.3264e-21 0.106325)
(9.97602 1.38131e-20 0.0957249)
(9.89686 -2.88822e-20 0.143313)
(9.92867 1.90535e-20 0.137677)
(9.8229 -9.75646e-21 0.180819)
(9.86399 -9.92527e-21 0.179319)
(9.73164 -1.08694e-20 0.219538)
(9.78239 -2.05873e-20 0.222092)
(9.62347 -4.8711e-21 0.259985)
(9.68376 1.05461e-20 0.266523)
(9.49857 5.46372e-21 0.302784)
(9.56852 -5.49325e-21 0.313303)
(9.35706 0 0.348455)
(9.43703 -1.14775e-20 0.363051)
(9.19886 5.10238e-20 0.397487)
(9.28923 -5.96497e-21 0.416256)
(9.02369 -4.79532e-21 0.450478)
(9.12497 -4.96805e-20 0.47352)
(8.83115 -5.29789e-20 0.508088)
(8.94398 4.95174e-20 0.535557)
(8.6207 3.17412e-21 0.570972)
(8.74583 -1.66117e-24 0.60308)
(8.39171 1.09704e-20 0.639772)
(8.53006 3.53652e-21 0.676793)
(8.14346 1.40692e-19 0.715121)
(8.29606 7.37767e-21 0.75741)
(7.87511 -2.62287e-19 0.797605)
(8.04319 1.16204e-19 0.845621)
(7.58579 -4.1781e-19 0.887721)
(7.77069 -3.86002e-19 0.942058)
(7.27456 2.45222e-19 0.985823)
(7.4778 -2.05157e-20 1.04724)
(6.9404 3.10585e-19 1.09204)
(7.16363 1.71273e-22 1.16153)
(6.58228 6.96431e-19 1.20615)
(6.82722 2.8597e-19 1.28501)
(6.19912 -7.74128e-20 1.32745)
(6.46754 5.76808e-19 1.41737)
(5.78979 -6.08693e-19 1.45435)
(6.08347 -6.32042e-19 1.55768)
(5.35305 -6.02536e-19 1.58415)
(5.67351 -6.42816e-19 1.70395)
(4.88773 5.05063e-20 1.71282)
(5.23583 -6.9131e-19 1.85286)
(4.39234 1.46759e-18 1.8345)
(4.76832 1.41112e-18 1.99961)
(3.86458 -5.97868e-19 1.94081)
(4.26788 7.48509e-19 2.13732)
(3.30035 -1.31935e-18 2.02006)
(3.72989 -1.69953e-18 2.25632)
(2.69108 2.01886e-19 2.05647)
(3.14659 0 2.34405)
(2.01941 1.83107e-18 2.03299)
(2.51095 1.03278e-19 2.38374)
(1.2542 3.20491e-18 1.9415)
(1.76949 1.72513e-18 2.3683)
(1.04777 1.72062e-18 2.27768)
(9.98447 -5.29753e-20 0.0787375)
(10.0004 -1.34426e-20 0.0566332)
(9.94987 3.42898e-20 0.127446)
(9.97438 -1.38252e-20 0.111541)
(9.89534 3.75138e-20 0.174321)
(9.92713 2.86885e-20 0.163479)
(9.82273 -2.09369e-20 0.221481)
(9.86375 -1.96942e-20 0.214857)
(9.73325 1.35324e-21 0.270075)
(9.78403 -6.16295e-20 0.267373)
(9.62734 9.66362e-21 0.320887)
(9.68765 6.357e-20 0.321919)
(9.50528 -2.2535e-20 0.374632)
(9.57515 -2.19923e-23 0.379269)
(9.36722 -1.73571e-20 0.431918)
(9.44704 -2.67317e-23 0.440121)
(9.21311 -1.0738e-19 0.493352)
(9.30321 -8.36697e-20 0.505107)
(9.04273 6.1814e-21 0.559647)
(9.14352 -1.59116e-21 0.574942)
(8.85582 1.01767e-19 0.631577)
(8.96781 1.02954e-19 0.650434)
(8.65201 4.14867e-22 0.70991)
(8.77579 1.09568e-19 0.73241)
(8.43085 0 0.795422)
(8.56709 1.13129e-19 0.821702)
(8.1918 -1.54864e-20 0.888882)
(8.34128 -2.37369e-19 0.919151)
(7.9343 -1.50284e-20 0.991022)
(8.09785 -1.52622e-20 1.02558)
(7.6577 1.68322e-20 1.1025)
(7.83627 -2.6807e-19 1.14176)
(7.36129 -2.65524e-19 1.22383)
(7.55595 2.76127e-19 1.26838)
(7.04426 -2.07521e-20 1.35533)
(7.25617 -8.24964e-19 1.40597)
(6.70568 1.70537e-19 1.49699)
(6.93607 8.11852e-19 1.55484)
(6.34443 5.67962e-21 1.64832)
(6.59464 5.90653e-19 1.71489)
(5.9591 -6.65799e-19 1.80797)
(6.23062 -5.28869e-19 1.8855)
(5.54771 -7.32532e-19 1.9734)
(5.84225 -7.33667e-19 2.0651)
(5.10766 6.93491e-19 2.14057)
(5.4268 7.43201e-20 2.25066)
(4.63536 6.86849e-19 2.3038)
(4.98065 7.78355e-19 2.43768)
(4.12541 -3.74201e-19 2.45514)
(4.49879 0 2.61993)
(3.56978 -3.68719e-19 2.58406)
(3.97401 -1.89761e-19 2.78872)
(2.9566 -9.75414e-20 2.67701)
(3.39576 0 2.93299)
(2.26972 1.61414e-21 2.71892)
(2.75654 9.26075e-20 3.03708)
(1.49488 3.10751e-19 2.70015)
(2.01314 -3.19364e-18 3.08895)
(1.2111 -1.18229e-21 3.07486)
(9.98344 2.5748e-20 0.0903353)
(10.0002 4.01052e-20 0.0639665)
(9.94875 -1.86579e-20 0.148276)
(9.97374 -4.59689e-21 0.127405)
(9.89536 -2.93786e-20 0.204733)
(9.92694 -3.78597e-20 0.18875)
(9.82447 -6.10983e-20 0.261506)
(9.8651 -5.89694e-20 0.249571)
(9.73717 2.68278e-21 0.319943)
(9.78758 -4.10482e-20 0.311581)
(9.63399 5.285e-20 0.380994)
(9.69391 2.1231e-20 0.375922)
(9.51525 2.24897e-20 0.445454)
(9.58471 -3.29915e-20 0.443486)
(9.38107 -6.76759e-20 0.514037)
(9.46045 1.48221e-19 0.515079)
(9.23141 2.34415e-20 0.587468)
(9.32107 -1.95494e-19 0.591459)
(9.06611 9.68641e-20 0.666555)
(9.16646 9.84094e-20 0.673424)
(8.88499 1.10845e-19 0.752166)
(8.99652 1.0251e-19 0.761861)
(8.68777 2.22398e-19 0.845186)
(8.81101 2.15216e-19 0.857705)
(8.47407 -1.2952e-19 0.94651)
(8.60964 -1.06378e-19 0.961896)
(8.2435 -2.33933e-19 1.05703)
(8.39203 -4.60733e-19 1.07539)
(7.99557 -2.72106e-19 1.17761)
(8.15779 4.64981e-21 1.19913)
(7.72981 -1.01598e-21 1.30905)
(7.90647 2.42286e-19 1.33401)
(7.44561 -2.99097e-19 1.45204)
(7.63755 4.04922e-21 1.48088)
(7.14226 3.00472e-20 1.6071)
(7.35037 -5.8087e-19 1.64047)
(6.81885 1.22931e-18 1.77445)
(7.04411 5.97186e-19 1.81332)
(6.4742 4.22116e-20 1.95389)
(6.7177 8.66699e-20 1.9996)
(6.10669 -5.99854e-19 2.14456)
(6.36965 -5.40148e-19 2.19911)
(5.71389 8.2635e-20 2.34446)
(5.99798 -6.14867e-19 2.41089)
(5.29222 1.66166e-19 2.55007)
(5.59945 8.07975e-20 2.63268)
(4.83668 8.36782e-20 2.75628)
(5.16947 1.56548e-21 2.86065)
(4.34013 1.82575e-19 2.9561)
(4.70175 0 3.0894)
(3.79283 1.80148e-19 3.13998)
(4.18777 1.81193e-19 3.31114)
(3.18252 1.90067e-19 3.29502)
(3.61583 2.78379e-18 3.51525)
(2.49497 -3.10019e-18 3.40305)
(2.97804 -5.81474e-18 3.68498)
(1.72518 -3.36133e-18 3.44385)
(2.24596 -1.87177e-19 3.79689)
(1.38071 2.95219e-18 3.83777)
(9.98309 9.07984e-21 0.102043)
(10.0002 -3.0918e-20 0.0714549)
(9.94867 -2.43304e-20 0.168788)
(9.97377 -3.18752e-20 0.143152)
(9.89662 -6.78604e-20 0.234438)
(9.92777 -9.45549e-21 0.213405)
(9.82779 -3.86161e-20 0.300518)
(9.86776 3.91669e-20 0.283301)
(9.74311 -2.14584e-20 0.368453)
(9.79281 2.02023e-22 0.354489)
(9.64317 -6.5512e-20 0.439337)
(9.70231 -4.20105e-20 0.428271)
(9.52827 9.56616e-20 0.514083)
(9.59689 -4.40382e-20 0.505673)
(9.39853 1.49847e-20 0.593529)
(9.477 1.36821e-19 0.587619)
(9.25395 -1.15957e-19 0.678498)
(9.34268 -1.1741e-20 0.67496)
(9.09443 1.04108e-19 0.769878)
(9.19386 -9.70364e-20 0.768565)
(8.91981 2.08628e-19 0.868627)
(9.03044 1.02572e-19 0.869414)
(8.72986 -1.18466e-19 0.975733)
(8.85224 1.12623e-19 0.97854)
(8.52426 -4.42992e-19 1.0922)
(8.65896 -2.19323e-19 1.09698)
(8.30265 -2.1537e-19 1.21903)
(8.45028 -2.26906e-19 1.22581)
(8.06463 5.22653e-19 1.3572)
(8.22588 4.60271e-21 1.36608)
(7.80974 2.44326e-19 1.50766)
(7.98536 5.26327e-19 1.5188)
(7.53742 -2.8611e-19 1.6713)
(7.72815 2.5292e-19 1.68501)
(7.24694 2.17826e-21 1.84887)
(7.45363 5.4735e-21 1.86568)
(6.93731 -5.53098e-19 2.04085)
(7.16091 -5.40536e-19 2.0616)
(6.60719 -5.04556e-19 2.2474)
(6.84873 -1.39546e-20 2.2733)
(6.25468 -5.56129e-19 2.46823)
(6.51541 -1.75577e-18 2.50105)
(5.87697 -6.0949e-19 2.70211)
(6.15858 -1.81291e-18 2.74459)
(5.46996 -8.47362e-20 2.94645)
(5.77466 1.16715e-18 3.0026)
(5.02775 -8.22677e-20 3.19702)
(5.35854 -2.55864e-18 3.27234)
(4.54224 0 3.4476)
(4.90299 2.6259e-18 3.54924)
(4.00295 2.79854e-18 3.68911)
(4.39862 5.00346e-20 3.82613)
(3.39776 -3.24314e-18 3.9078)
(3.83322 1.53542e-18 4.09199)
(2.7129 -2.90286e-18 4.08007)
(3.19681 -8.78238e-18 4.3283)
(1.94504 6.23999e-18 4.17011)
(2.47648 5.93381e-18 4.49864)
(1.5543 3.19802e-18 4.58361)
(9.98313 -7.18607e-20 0.113675)
(10.0004 -3.52771e-20 0.0789263)
(9.94932 -1.6583e-20 0.188851)
(9.97421 -3.63817e-20 0.158626)
(9.89887 9.84221e-20 0.263269)
(9.92938 1.89255e-20 0.237322)
(9.83247 7.73079e-20 0.33828)
(9.87155 1.17434e-19 0.31587)
(9.75086 -2.10605e-20 0.415347)
(9.79952 -4.01495e-20 0.395879)
(9.65459 -2.05648e-20 0.495684)
(9.7126 -4.18046e-20 0.478737)
(9.54401 0 0.580324)
(9.61135 0 0.565581)
(9.41928 1.07752e-19 0.670205)
(9.49635 0 0.657433)
(9.28046 5.90238e-21 0.766231)
(9.36773 1.06126e-19 0.755224)
(9.12748 -9.55959e-20 0.869373)
(9.22541 1.2032e-23 0.859919)
(8.96021 6.64497e-21 0.980684)
(9.0693 -1.12314e-19 0.972592)
(8.77841 6.88483e-21 1.10125)
(8.89925 2.02488e-19 1.09437)
(8.58177 -3.15681e-21 1.23218)
(8.71499 -2.14138e-19 1.22641)
(8.37 -3.52779e-21 1.37456)
(8.51617 8.45791e-22 1.36984)
(8.14275 1.53534e-20 1.52952)
(8.30257 4.58485e-19 1.52583)
(7.89955 5.31191e-19 1.69816)
(8.07383 -4.77518e-19 1.69557)
(7.6398 5.42178e-19 1.88159)
(7.82932 5.2511e-19 1.88027)
(7.3627 -5.44238e-19 2.08084)
(7.56837 5.48301e-20 2.08118)
(7.06714 5.19e-21 2.29673)
(7.29001 -6.09096e-19 2.29944)
(6.75156 -1.28571e-18 2.52989)
(6.9928 5.67158e-19 2.53601)
(6.4137 -3.01735e-18 2.78061)
(6.6748 -1.86188e-18 2.7917)
(6.05039 -5.15878e-21 3.04855)
(6.33325 -2.3358e-18 3.06702)
(5.65711 -1.34062e-18 3.33223)
(5.9642 1.12356e-18 3.36166)
(5.22738 1.89708e-19 3.62849)
(5.56211 -1.32873e-18 3.67414)
(4.75233 2.66192e-18 3.93188)
(5.11903 2.62979e-18 4.00101)
(4.22081 -1.20169e-18 4.23331)
(4.62463 -1.0728e-20 4.33563)
(3.62024 -4.04155e-18 4.51764)
(4.0659 -1.28685e-18 4.66632)
(2.93571 6.62123e-20 4.75557)
(3.42877 -2.78608e-18 4.97298)
(2.16029 2.82711e-18 4.89372)
(2.71398 2.80584e-18 5.20719)
(1.73347 2.93446e-18 5.33801)
(9.9834 1.915e-22 0.125091)
(10.0006 3.52915e-20 0.0862773)
(9.95054 9.56876e-23 0.208319)
(9.975 1.82489e-20 0.173679)
(9.90202 3.96381e-20 0.29106)
(9.93166 1.8738e-20 0.260339)
(9.83838 -2.71091e-21 0.37461)
(9.87631 3.89969e-20 0.347114)
(9.76016 -6.09434e-20 0.460446)
(9.8075 -4.02164e-20 0.435586)
(9.66793 -2.05676e-20 0.549844)
(9.72445 -4.16124e-20 0.527139)
(9.56211 0 0.643928)
(9.62778 2.15183e-20 0.622972)
(9.44298 0 0.743728)
(9.51822 0 0.724198)
(9.3106 9.86134e-20 0.850247)
(9.39592 0 0.831867)
(9.1649 -1.8344e-20 0.96455)
(9.26074 9.71713e-20 0.947058)
(9.00577 8.8189e-20 1.08778)
(9.11264 -2.99412e-19 1.07091)
(8.83301 -2.45231e-20 1.22114)
(8.95152 1.87917e-19 1.20466)
(8.64632 -2.07194e-19 1.36581)
(8.77715 -2.16727e-19 1.34956)
(8.4454 4.69455e-19 1.52297)
(8.58924 2.16148e-19 1.50682)
(8.22999 -4.68696e-20 1.69388)
(8.38757 4.58198e-19 1.67768)
(7.99963 -4.70881e-19 1.87984)
(8.1718 -4.97042e-19 1.86352)
(7.75365 3.14876e-20 2.08222)
(7.94128 -4.9005e-19 2.06582)
(7.49115 -1.7682e-20 2.30235)
(7.6953 5.17313e-19 2.28611)
(7.21089 -3.27018e-20 2.54151)
(7.4328 1.56953e-20 2.5259)
(6.91112 -3.56098e-20 2.80086)
(7.15218 1.07516e-18 2.78669)
(6.58925 -1.18409e-18 3.08142)
(6.85129 -1.08042e-18 3.07)
(6.24171 -1.17528e-18 3.38375)
(6.5271 -1.17458e-18 3.37715)
(5.86355 1.11438e-18 3.70758)
(6.17519 1.15298e-18 3.70891)
(5.44774 1.14322e-18 4.05111)
(5.78955 -2.99303e-20 4.06527)
(4.98455 -6.13351e-20 4.40988)
(5.36155 1.21548e-18 4.4443)
(4.46158 -1.00046e-19 4.77491)
(4.87957 -2.5197e-18 4.84034)
(3.86466 -3.9006e-20 5.12974)
(4.32896 3.71892e-18 5.24142)
(3.17615 -4.22649e-20 5.44027)
(3.68967 -2.59397e-18 5.62662)
(2.38216 2.91984e-18 5.63581)
(2.97243 -2.61999e-18 5.93763)
(1.92519 5.80693e-18 6.12956)
(9.98389 5.30793e-20 0.136174)
(10.0009 3.52075e-20 0.09341)
(9.95227 3.68359e-20 0.227056)
(9.97615 3.62226e-20 0.188173)
(9.90591 1.8445e-20 0.317672)
(9.93449 8.9104e-23 0.282352)
(9.84526 1.29511e-22 0.409364)
(9.88174 -1.21774e-22 0.376922)
(9.77073 -2.09052e-20 0.503583)
(9.81643 -2.75584e-23 0.473466)
(9.68291 1.48389e-21 0.601594)
(9.73764 6.20718e-20 0.573282)
(9.58236 2.11872e-20 0.704594)
(9.64604 4.3267e-20 0.677576)
(9.4694 0 0.813737)
(9.54246 -1.99541e-19 0.787593)
(9.34404 0 0.930147)
(9.427 9.14894e-20 0.904555)
(9.20623 -1.89847e-19 1.05497)
(9.29952 2.14411e-19 1.02962)
(9.05591 -1.92737e-19 1.18942)
(9.16007 -3.5851e-19 1.16397)
(8.89296 -1.01102e-20 1.3348)
(9.00852 4.55427e-21 1.3089)
(8.71716 2.12826e-19 1.4924)
(8.84481 -1.50512e-20 1.4658)
(8.52825 2.08134e-19 1.66348)
(8.66884 2.32368e-19 1.63598)
(8.32592 -4.5974e-21 1.84942)
(8.48031 -4.51148e-19 1.82076)
(8.10972 -5.15958e-19 2.05176)
(8.27876 4.61674e-19 2.02172)
(7.87897 7.73799e-21 2.27214)
(8.06368 -5.06344e-19 2.24059)
(7.63275 5.45303e-19 2.51227)
(7.83433 4.86695e-19 2.47922)
(7.36968 1.13645e-18 2.77388)
(7.58964 3.68854e-20 2.73954)
(7.08783 9.08447e-21 3.05883)
(7.32785 3.23765e-20 3.02367)
(6.78443 -1.07231e-18 3.36896)
(7.04675 5.02536e-23 3.3339)
(6.45561 1.17642e-18 3.70586)
(6.74318 -3.99401e-20 3.67252)
(6.09593 -1.73812e-21 4.07062)
(6.41236 8.34897e-20 4.04159)
(5.69771 5.02336e-20 4.46319)
(6.04773 -4.08323e-20 4.44282)
(5.25014 -1.2701e-18 4.88073)
(5.63997 1.21884e-18 4.87638)
(4.73884 1.34722e-18 5.31506)
(5.17572 -2.50153e-18 5.33865)
(4.14644 1.10872e-18 5.74936)
(4.63785 1.47503e-18 5.81857)
(3.45043 -5.17383e-18 6.14625)
(3.99813 -5.89068e-20 6.29606)
(2.62727 6.99842e-19 6.41955)
(3.27262 -2.58012e-18 6.70542)
(2.14309 2.88241e-18 6.9897)
(9.9846 1.83615e-20 0.146815)
(10.0013 -6.08626e-20 0.100232)
(9.95442 -1.1593e-21 0.244966)
(9.9776 9.09734e-21 0.202013)
(9.91032 -1.84885e-20 0.343022)
(9.93776 -1.86619e-20 0.303313)
(9.85282 -2.77076e-22 0.442417)
(9.88772 -3.86821e-20 0.405215)
(9.78233 8.398e-20 0.544566)
(9.82616 -1.73338e-22 0.509344)
(9.69942 1.03583e-19 0.650684)
(9.75205 1.23882e-19 0.616907)
(9.60467 -1.81294e-19 0.762034)
(9.66603 2.19507e-20 0.729105)
(9.49837 -1.03659e-19 0.879929)
(9.56887 -1.77599e-19 0.847344)
(9.38053 3.07837e-19 1.00561)
(9.46068 1.14243e-19 0.973003)
(9.25117 3.75042e-20 1.14028)
(9.34144 3.79856e-19 1.10727)
(9.11029 -1.56045e-19 1.28519)
(9.2112 -3.89707e-19 1.25137)
(8.95782 -7.01299e-22 1.44173)
(9.06991 3.77885e-20 1.40667)
(8.79375 7.71331e-21 1.61129)
(8.91762 2.08244e-19 1.5746)
(8.61789 -4.36387e-19 1.79528)
(8.75447 8.60005e-21 1.75661)
(8.42986 2.64985e-20 1.99522)
(8.5801 -6.70909e-19 1.95422)
(8.22922 4.60003e-19 2.21285)
(8.39403 4.80214e-19 2.16916)
(8.01533 -1.56836e-20 2.4501)
(8.19586 0 2.40338)
(7.78729 -2.74874e-20 2.70907)
(7.98494 -1.55174e-20 2.65903)
(7.54373 -1.06907e-18 2.99203)
(7.76018 -5.11532e-19 2.93855)
(7.28257 2.18616e-20 3.30157)
(7.51991 -5.43018e-19 3.24471)
(7.00104 1.03522e-18 3.64047)
(7.26199 1.05839e-18 3.58059)
(6.6952 -1.13447e-18 4.01153)
(6.98326 -7.763e-23 3.94955)
(6.35916 4.25711e-20 4.41752)
(6.67888 -1.12261e-18 4.35527)
(5.98456 1.13906e-18 4.86066)
(6.34192 5.06622e-20 4.80158)
(5.55937 -3.66949e-20 5.34072)
(5.96244 1.10626e-18 5.29157)
(5.06665 -2.35177e-18 5.85192)
(5.52532 -6.96845e-20 5.82517)
(4.48404 3.03378e-19 6.37928)
(5.01016 -3.43223e-18 6.39484)
(3.78082 2.50686e-18 6.88465)
(4.37828 3.70342e-18 6.98458)
(2.91967 -4.37408e-20 7.27042)
(3.64559 0 7.52532)
(2.41089 -2.55344e-18 7.95684)
(9.98544 -6.8926e-20 0.156932)
(10.0017 8.62355e-21 0.106682)
(9.95689 -8.82192e-21 0.261975)
(9.97924 8.92029e-21 0.215116)
(9.91521 -3.91947e-20 0.367045)
(9.9414 1.85715e-20 0.323143)
(9.86104 -3.79038e-20 0.473643)
(9.89427 -3.85707e-20 0.431901)
(9.7949 4.17298e-20 0.583179)
(9.83667 0 0.543052)
(9.71734 4.06192e-20 0.696847)
(9.76757 1.02624e-22 0.657782)
(9.62881 2.25935e-20 0.815986)
(9.68748 1.27289e-19 0.777339)
(9.52956 4.47737e-20 0.942044)
(9.59706 -1.09064e-19 0.903241)
(9.41972 1.90145e-19 1.07635)
(9.49655 1.5806e-19 1.03694)
(9.29936 -5.84007e-20 1.22013)
(9.38604 7.25279e-20 1.1797)
(9.16853 -1.89879e-19 1.37469)
(9.26555 -1.9445e-19 1.33276)
(9.02731 2.49179e-19 1.54146)
(9.13519 1.42114e-22 1.49752)
(8.87576 2.06696e-19 1.72192)
(8.99517 4.26999e-19 1.67544)
(8.7138 -2.34502e-19 1.91767)
(8.84562 -2.21969e-19 1.86814)
(8.54115 -2.03133e-19 2.13038)
(8.68629 -2.20343e-19 2.07732)
(8.35738 1.39902e-20 2.362)
(8.51684 4.48149e-19 2.30488)
(8.16198 0 2.61472)
(8.337 -9.17191e-19 2.55295)
(7.95411 -5.0533e-19 2.89101)
(8.14625 -1.71915e-20 2.824)
(7.73254 1.44428e-20 3.19375)
(7.94356 -2.06048e-20 3.12093)
(7.49534 5.08606e-19 3.52628)
(7.7277 5.05791e-19 3.44717)
(7.23985 1.21551e-20 3.89232)
(7.49681 1.26096e-22 3.80657)
(6.96226 4.13549e-21 4.29609)
(7.24781 1.02121e-18 4.20365)
(6.65665 -1.1089e-18 4.74246)
(6.97631 0 4.64394)
(6.31427 2.14857e-20 5.23654)
(6.67564 -1.10252e-18 5.13386)
(5.92211 1.06549e-18 5.78209)
(6.33576 1.17457e-18 5.68032)
(5.46052 -1.17943e-18 6.37839)
(5.94045 -3.0644e-20 6.28885)
(4.90076 5.3838e-20 7.01655)
(5.46641 -1.2052e-18 6.95957)
(4.19935 1.13937e-18 7.66311)
(4.86274 1.09181e-18 7.68716)
(3.29719 -2.58375e-18 8.21873)
(4.13993 1.06754e-18 8.40817)
(2.77155 -3.61166e-18 9.08351)
(9.98634 8.65883e-20 0.166461)
(10.0021 6.95266e-20 0.112734)
(9.95961 3.65655e-20 0.277996)
(9.981 -7.09289e-20 0.227395)
(9.92059 1.81985e-20 0.38964)
(9.94538 1.09337e-22 0.341731)
(9.86998 -2.17656e-23 0.502919)
(9.90137 3.78077e-20 0.456868)
(9.8084 -4.16381e-20 0.619261)
(9.84797 0 0.574483)
(9.73641 8.8769e-20 0.7399)
(9.78407 -4.09933e-20 0.695789)
(9.65436 -7.98569e-21 0.86626)
(9.71008 2.11257e-19 0.822131)
(9.5625 8.18745e-21 0.999858)
(9.62668 -1.31029e-19 0.955086)
(9.46107 3.91843e-20 1.14207)
(9.53421 6.87143e-20 1.09614)
(9.35021 -6.73068e-20 1.29417)
(9.43283 -4.70109e-20 1.2466)
(9.23005 -1.61492e-21 1.45748)
(9.32261 1.19024e-22 1.40774)
(9.10081 1.83678e-19 1.63347)
(9.20382 -5.30579e-22 1.58095)
(8.96258 -1.00828e-20 1.82373)
(9.07677 4.08076e-19 1.76779)
(8.81536 -2.07692e-19 2.02997)
(8.94155 -4.17471e-19 1.96997)
(8.65903 4.39553e-19 2.25408)
(8.79808 4.27965e-19 2.18937)
(8.49334 -4.98767e-19 2.49814)
(8.64627 -2.10488e-21 2.42798)
(8.31793 -9.25957e-19 2.7646)
(8.48604 -9.18862e-19 2.68813)
(8.13219 4.67793e-19 3.05628)
(8.31705 -2.76696e-21 2.97259)
(7.93511 4.76e-19 3.37663)
(8.13858 5.10119e-19 3.28463)
(7.72522 -7.97838e-21 3.7297)
(7.94996 4.77372e-19 3.6282)
(7.50032 1.01909e-18 4.12012)
(7.74984 -1.521e-18 4.00794)
(7.25698 1.0107e-18 4.55365)
(7.53571 -2.23733e-20 4.4295)
(6.98993 0 5.03753)
(7.3042 0 4.90025)
(6.69089 6.51145e-20 5.58037)
(7.04982 0 5.42941)
(6.34689 6.67235e-20 6.19144)
(6.76385 6.22516e-20 6.02843)
(5.93681 -6.60898e-20 6.87862)
(6.43118 6.6254e-20 6.7105)
(5.42583 -1.36734e-19 7.64648)
(6.02857 -6.80875e-20 7.48876)
(4.75386 1.02025e-18 8.4791)
(5.49532 -6.88168e-20 8.38021)
(3.82604 -2.72703e-19 9.30423)
(4.8365 1.06982e-18 9.34982)
(3.30952 -2.94502e-18 10.4524)
(9.98732 -9.02796e-20 0.175349)
(10.0027 0 0.118352)
(9.96255 -1.06183e-19 0.292936)
(9.98289 -1.79255e-20 0.238785)
(9.92637 2.03608e-20 0.410689)
(9.94961 -1.84773e-20 0.358984)
(9.87954 3.72225e-20 0.530129)
(9.90889 1.13295e-19 0.480001)
(9.82274 0 0.652712)
(9.85994 -3.90062e-20 0.603529)
(9.75646 8.54209e-20 0.779739)
(9.80143 -4.02283e-20 0.730848)
(9.68109 8.30567e-20 0.912705)
(9.73367 4.26323e-20 0.863368)
(9.59692 -6.75467e-20 1.05316)
(9.65752 -8.56842e-20 1.00271)
(9.50424 -1.91781e-20 1.20252)
(9.57338 -6.67983e-20 1.15038)
(9.4033 2.11337e-20 1.36207)
(9.48145 1.93905e-22 1.30771)
(9.29435 1.19459e-21 1.53317)
(9.38195 -7.07042e-20 1.47597)
(9.17765 2.29308e-19 1.71731)
(9.27522 4.82998e-20 1.65659)
(9.05339 -9.66908e-21 1.91617)
(9.16162 2.02674e-19 1.8512)
(8.92166 2.28909e-19 2.13158)
(9.04132 -2.0728e-19 2.06159)
(8.78253 -1.86327e-20 2.36553)
(8.91445 3.43441e-20 2.2897)
(8.636 -4.32286e-19 2.62026)
(8.78119 4.21615e-19 2.53765)
(8.48195 1.46179e-20 2.89841)
(8.64165 -4.38512e-19 2.80787)
(8.3201 4.36851e-20 3.20313)
(8.49574 -1.33235e-20 3.10336)
(8.1499 5.11163e-19 3.53827)
(8.3434 3.1544e-22 3.42767)
(7.97051 -1.05343e-18 3.90842)
(8.18458 9.41629e-19 3.7851)
(7.78054 -2.55758e-18 4.31909)
(8.01852 -1.92701e-18 4.18085)
(7.57757 -1.03589e-18 4.77751)
(7.84399 -1.39836e-18 4.62159)
(7.3578 0 5.29311)
(7.65928 4.18446e-19 5.1161)
(7.11493 -2.30708e-21 5.87815)
(7.46134 0 5.67605)
(6.83839 6.17502e-20 6.54831)
(7.245 -6.27635e-20 6.31719)
(6.50937 6.28512e-20 7.32333)
(7.00047 -4.99828e-20 7.06095)
(6.09251 0 8.23074)
(6.71273 0 7.93733)
(5.51569 0 9.29883)
(6.32705 1.04313e-19 8.99972)
(4.63631 -1.8852e-18 10.5808)
(5.87702 -7.59947e-19 10.2917)
(4.19222 -1.14644e-18 12.2098)
(9.98841 7.20874e-20 0.183548)
(10.0032 8.07893e-21 0.123488)
(9.96567 6.97229e-20 0.306737)
(9.98486 4.73287e-20 0.24925)
(9.93244 7.67342e-20 0.430114)
(9.95405 -5.13777e-20 0.374859)
(9.88956 3.45332e-20 0.55517)
(9.91683 -2.98175e-20 0.501222)
(9.83776 -7.92742e-20 0.683427)
(9.8725 -3.97599e-20 0.630077)
(9.77739 -8.17811e-20 0.816258)
(9.81957 -7.88901e-20 0.762858)
(9.70886 -1.28095e-19 0.955179)
(9.75826 7.47718e-20 0.900968)
(9.63259 -8.46526e-20 1.10176)
(9.68958 -1.27838e-19 1.046)
(9.54895 -4.64625e-20 1.25744)
(9.61403 8.27542e-20 1.1995)
(9.45828 -9.26708e-20 1.42353)
(9.53193 1.2446e-19 1.36282)
(9.36091 -2.20049e-20 1.60138)
(9.44356 -1.35199e-19 1.53724)
(9.25716 2.35855e-20 1.79254)
(9.3493 1.5999e-19 1.72421)
(9.14732 0 1.99874)
(9.2496 -1.85052e-19 1.92539)
(9.03166 -3.9926e-19 2.22188)
(9.1448 4.72912e-20 2.14262)
(8.91046 4.79257e-19 2.46401)
(9.03525 -3.78343e-19 2.37786)
(8.78397 4.07241e-19 2.72746)
(8.92138 9.26155e-19 2.63327)
(8.65237 -4.62498e-19 3.01497)
(8.80353 -9.04996e-19 2.91139)
(8.51583 -5.66345e-20 3.32992)
(8.68201 4.11587e-19 3.21526)
(8.37448 4.39374e-19 3.67641)
(8.55755 -4.4969e-19 3.54854)
(8.22827 4.65592e-20 4.0593)
(8.43065 8.99366e-19 3.91569)
(8.0769 -7.64079e-19 4.48478)
(8.30153 -4.18957e-19 4.32223)
(7.91961 6.91948e-20 4.96105)
(8.17066 -4.15779e-19 4.77529)
(7.75508 4.15831e-19 5.49904)
(8.03857 5.33907e-20 5.28425)
(7.58085 -6.07076e-20 6.11377)
(7.90582 4.33484e-19 5.86201)
(7.39234 -1.7438e-19 6.82622)
(7.77324 -6.14467e-20 6.52653)
(7.18032 -1.12507e-19 7.66726)
(7.64154 -8.26486e-21 7.30407)
(6.92431 1.05602e-19 8.69018)
(7.51673 2.83474e-19 8.23627)
(6.57322 -6.68054e-19 9.9926)
(7.38913 -6.3379e-19 9.40776)
(6.00001 4.61807e-19 12.0926)
(7.56645 -5.7955e-19 10.9738)
(6.9462 7.2878e-19 14.5883)
(0.0748503 0 -0.0530086)
(0.0457346 3.35311e-20 -0.0641424)
(0.229314 0 -0.0764317)
(0.152941 -3.31689e-20 -0.127137)
(0.400164 0 -0.0707956)
(0.310532 0 -0.131389)
(0.544844 0 -0.0520265)
(0.465142 0 -0.106392)
(0.646386 -7.07746e-21 -0.0308715)
(0.591031 0 -0.0725969)
(0.7033 -6.8446e-22 -0.0124393)
(0.676805 -6.26717e-21 -0.0399422)
(0.722444 6.27578e-21 0.00110543)
(0.722682 1.82738e-20 -0.0131917)
(0.714293 0 0.00958342)
(0.735394 -1.18856e-20 0.00581253)
(0.688745 1.31282e-21 0.0139966)
(0.723199 0 0.017797)
(0.653635 1.32447e-21 0.0155267)
(0.69615 -1.11227e-23 0.0242932)
(0.614801 2.30537e-21 0.0153034)
(0.661453 -4.89799e-21 0.026719)
(0.575629 -1.06514e-21 0.0143789)
(0.623843 7.15838e-21 0.026794)
(0.537199 -3.42598e-21 0.0135312)
(0.585507 -4.52863e-21 0.0261134)
(0.49897 0 0.0131589)
(0.546638 -6.19687e-21 0.0257789)
(0.459753 0 0.0134218)
(0.506365 4.04106e-21 0.0262088)
(0.417986 0 0.014432)
(0.463525 3.62473e-21 0.0276356)
(0.371647 -3.94386e-22 0.0161572)
(0.416675 -1.76151e-21 0.0303338)
(0.319034 -3.99996e-22 0.0181116)
(0.364183 -1.99703e-24 0.0340566)
(0.260729 0 0.0192061)
(0.30535 -7.32809e-22 0.0373049)
(0.201228 1.59059e-22 0.0183051)
(0.242209 6.73957e-22 0.0376214)
(0.147361 1.0349e-23 0.0150873)
(0.180279 4.58455e-22 0.0336523)
(0.105029 -1.33195e-22 0.0101743)
(0.125806 -4.59718e-22 0.0261261)
(0.0776642 0 0.00436602)
(0.0829135 2.3288e-22 0.016678)
(0.0674709 0 -0.0021081)
(0.0533405 4.03678e-22 0.00611928)
(0.077469 -1.52261e-22 -0.00920558)
(0.0366614 -5.67841e-22 -0.00600132)
(0.10998 -1.54381e-22 -0.0163248)
(0.0328917 -1.94614e-22 -0.0192241)
(0.165295 0 -0.0232602)
(0.0488732 6.83203e-23 -0.0323317)
(0.244685 -1.09118e-22 -0.0304953)
(0.0905167 1.81379e-23 -0.0458955)
(0.348117 -1.48642e-22 -0.0372636)
(0.158313 -1.50794e-22 -0.0591698)
(0.264961 4.22013e-23 -0.0658388)
(0.0892909 1.01581e-20 -0.146504)
(0.0495165 3.39619e-20 -0.153822)
(0.231949 -3.41533e-20 -0.196134)
(0.148473 -3.328e-20 -0.248721)
(0.389464 0 -0.183315)
(0.290813 0 -0.252415)
(0.527966 0 -0.141389)
(0.42648 0 -0.206513)
(0.631833 8.0031e-22 -0.0929443)
(0.536331 0 -0.144999)
(0.699042 1.27627e-20 -0.0490347)
(0.612629 8.08246e-22 -0.0856839)
(0.73397 5.70465e-22 -0.0141123)
(0.656109 1.2034e-20 -0.036461)
(0.741759 -1.19434e-20 0.0109138)
(0.670669 -3.48801e-20 0.00105736)
(0.728906 -1.31364e-21 0.0267685)
(0.661192 2.27109e-20 0.026984)
(0.703162 -6.20203e-21 0.035134)
(0.636588 1.32267e-21 0.042083)