/*--------------------------------*- C++ -*----------------------------------*\
| =========                 |                                                 |
| \\      /  F ield         | OpenFOAM: The Open Source CFD Toolbox           |
|  \\    /   O peration     | Version:  dev                                   |
|   \\  /    A nd           | Web:      www.OpenFOAM.org                      |
|    \\/     M anipulation  |                                                 |
\*---------------------------------------------------------------------------*/
FoamFile
{
    version     2.0;
    format      ascii;
    class       surfaceScalarField;
    location    "1.21";
    object      phi;
}
// * * * * * * * * * * * * * * * * * * * * * * * * * * * * * * * * * * * * * //

dimensions      [0 3 -1 0 0 0 0];

internalField   nonuniform List<scalar> 
879
(
0.207005
0.0126571
0.016
0.212044
0.013279
0.211295
0.0167385
0.019762
0.217211
0.0138775
0.216496
0.0174426
0.215691
0.0205639
0.0237089
0.222508
0.0144479
0.221833
0.0181046
0.221082
0.021311
0.220242
0.0245546
0.0278752
0.227938
0.0149837
0.227311
0.0187183
0.226619
0.0219984
0.225849
0.0253286
0.225003
0.0287338
0.0322118
0.233505
0.0154778
0.232929
0.0192798
0.2323
0.0226221
0.231616
0.0260163
0.230877
0.0294838
0.230069
0.0330388
0.0367265
0.239215
0.0159213
0.238694
0.0197856
0.238136
0.0231732
0.237549
0.026605
0.236925
0.0301187
0.236239
0.0337418
0.235493
0.0374963
0.234706
0.0413864
0.0454736
0.245066
0.0163106
0.244608
0.0202262
0.244135
0.023638
0.243654
0.0270863
0.243146
0.0306356
0.242594
0.0343103
0.242013
0.0381
0.241412
0.0420143
0.240798
0.0461174
0.0504196
0.251056
0.0166459
0.25068
0.0205837
0.250306
0.0240018
0.249933
0.0274588
0.249543
0.0310325
0.249143
0.0347251
0.248743
0.0385212
0.248338
0.0424449
0.247954
0.0465295
0.24761
0.0507946
0.247318
0.0552607
0.0599121
0.257201
0.016916
0.256917
0.0208467
0.256642
0.0242652
0.256376
0.0277219
0.256125
0.0312885
0.255896
0.0349674
0.255681
0.0387551
0.255492
0.0426576
0.255361
0.0466884
0.255299
0.0508852
0.255337
0.0552526
0.255507
0.0597714
0.255846
0.0644617
0.0693236
0.263503
0.0171111
0.263311
0.0210148
0.263142
0.0244205
0.263003
0.0278563
0.262907
0.0313873
0.262854
0.0350315
0.262843
0.0387823
0.262895
0.0426275
0.263026
0.0465833
0.263259
0.0506791
0.26363
0.0549098
0.264166
0.0592638
0.264908
0.0637456
0.265912
0.0683436
0.0730295
0.269959
0.0172264
0.269868
0.0210808
0.269824
0.0244477
0.26983
0.0278428
0.269894
0.0313239
0.270026
0.0349082
0.270235
0.0385875
0.27053
0.0423515
0.270927
0.0462093
0.271457
0.0501741
0.272151
0.0542422
0.273038
0.058403
0.27416
0.0626488
0.275566
0.0669615
0.277304
0.0713114
0.27943
0.0756618
0.0799688
0.276581
0.0172506
0.276601
0.0210334
0.27669
0.0243392
0.276848
0.0276748
0.277083
0.0310871
0.277407
0.0345889
0.277832
0.0381738
0.278367
0.0418322
0.279032
0.0455645
0.279854
0.0493747
0.280863
0.0532576
0.282089
0.0572013
0.28357
0.0611911
0.285348
0.0652049
0.287467
0.0692118
0.289972
0.0731735
0.292909
0.0770456
0.29631
0.0807888
0.0843381
0.28337
0.017175
0.283506
0.0208664
0.283732
0.0240911
0.284047
0.0273468
0.284458
0.0306708
0.284978
0.0340707
0.28562
0.0375398
0.286396
0.0410685
0.287326
0.0446516
0.288434
0.0482862
0.289748
0.0519651
0.291296
0.0556742
0.293113
0.0593952
0.295235
0.0631035
0.297695
0.0667693
0.300532
0.0703529
0.303773
0.0738176
0.307441
0.0771323
0.311562
0.0802256
0.316149
0.08302
0.0854864
0.290327
0.0169933
0.290585
0.0205742
0.290952
0.0236993
0.291427
0.0268549
0.292018
0.0300712
0.292737
0.0333501
0.293597
0.0366838
0.294613
0.040062
0.295802
0.0434755
0.297187
0.0469169
0.298793
0.0503769
0.300646
0.0538395
0.302774
0.0572855
0.305208
0.0606872
0.307973
0.0640208
0.311087
0.0672529
0.314579
0.0703379
0.318478
0.0732438
0.322796
0.0759151
0.327521
0.0783021
0.297454
0.0167006
0.297839
0.0201518
0.29835
0.0231598
0.298989
0.0261963
0.299761
0.029286
0.30068
0.0324257
0.301758
0.0356059
0.30301
0.038816
0.304451
0.0420435
0.306103
0.0452767
0.307987
0.0485073
0.310125
0.0517158
0.31254
0.0548862
0.315246
0.0579951
0.318274
0.0610075
0.321641
0.0638979
0.325365
0.0666249
0.329463
0.0691544
0.333929
0.0714566
0.073495
0.304756
0.0162926
0.305271
0.0195953
0.305929
0.0224697
0.306732
0.0253696
0.307687
0.0283149
0.308805
0.0312978
0.3101
0.0343074
0.311582
0.0373348
0.313266
0.0403643
0.315174
0.0433761
0.317322
0.0463701
0.319718
0.0493309
0.322387
0.0522282
0.325348
0.0550452
0.328618
0.0577484
0.332216
0.06031
0.336142
0.0627074
0.340394
0.064909
0.344968
0.0668883
0.0686219
0.312235
0.0157652
0.312885
0.0189009
0.313692
0.0216274
0.314658
0.0243758
0.315792
0.0271598
0.317108
0.0299681
0.318618
0.0327887
0.32033
0.0356198
0.322247
0.0384471
0.324391
0.0412363
0.326779
0.0439868
0.329421
0.046696
0.332331
0.0493254
0.33553
0.0518537
0.339022
0.0542637
0.342811
0.0565283
0.346898
0.0586258
0.351279
0.060533
0.355942
0.0622288
0.0636977
0.319897
0.0151136
0.320686
0.018064
0.321642
0.0206317
0.322768
0.0232185
0.324079
0.0258241
0.325589
0.0284398
0.327305
0.03106
0.329235
0.0336812
0.331385
0.0362932
0.333758
0.0388616
0.336373
0.0413729
0.339246
0.0438244
0.342383
0.0461916
0.345789
0.0484517
0.34947
0.0505864
0.353425
0.0525757
0.357653
0.0544012
0.362142
0.0560452
0.36688
0.0574917
0.0587313
0.327743
0.014336
0.328669
0.0170863
0.329775
0.0194833
0.331066
0.0218911
0.332558
0.0243035
0.334258
0.0267162
0.336171
0.0291297
0.338306
0.0315337
0.340673
0.0339167
0.343271
0.0362565
0.346106
0.0385344
0.349189
0.0407387
0.352527
0.0428521
0.356121
0.0448561
0.359973
0.0467341
0.364078
0.04847
0.368429
0.0500492
0.373014
0.0514583
0.377818
0.0526858
0.0537267
0.335772
0.0134363
0.336834
0.0159698
0.338091
0.0181782
0.339555
0.0203875
0.341229
0.0225965
0.343116
0.0248015
0.345223
0.0270005
0.347556
0.029183
0.350122
0.0313362
0.352924
0.0334427
0.355964
0.0354851
0.359246
0.037449
0.362773
0.0393194
0.366542
0.0410813
0.37055
0.0427204
0.374791
0.044224
0.379255
0.0455806
0.383927
0.0467804
0.388791
0.0478154
0.0486842
0.343992
0.0124158
0.345191
0.0147116
0.346605
0.0167131
0.348236
0.0187122
0.350086
0.0207095
0.352155
0.0226997
0.354451
0.0246779
0.356976
0.0266344
0.359737
0.0285566
0.362733
0.0304296
0.365966
0.032238
0.369434
0.0339677
0.373137
0.0356055
0.377069
0.0371387
0.381224
0.0385557
0.385591
0.0398463
0.39016
0.0410019
0.394916
0.0420151
0.39984
0.0428809
0.0436002
0.35241
0.0112712
0.353749
0.0133107
0.355316
0.0150907
0.357111
0.0168689
0.359133
0.0186458
0.361382
0.0204136
0.363862
0.0221658
0.366575
0.023893
0.369524
0.0255835
0.372707
0.0272244
0.376124
0.0288022
0.379769
0.0303044
0.383639
0.0317194
0.387725
0.0330367
0.392019
0.0342469
0.396508
0.0353419
0.401181
0.0363152
0.406019
0.0371618
0.411007
0.0378784
0.0384678
0.361032
0.0100001
0.362511
0.0117662
0.36423
0.0133124
0.366186
0.0148605
0.368377
0.0164084
0.370803
0.0179467
0.373464
0.0194679
0.376361
0.0209631
0.379493
0.0224217
0.382858
0.0238324
0.386452
0.0251838
0.390268
0.0264651
0.394299
0.0276667
0.398535
0.0287797
0.402965
0.0297966
0.407576
0.0307113
0.412353
0.0315188
0.417279
0.0322158
0.422338
0.0328004
0.0332765
0.369862
0.00860018
0.371483
0.0100761
0.373354
0.0113784
0.37547
0.0126884
0.377828
0.0139994
0.380427
0.0153015
0.383267
0.016587
0.386345
0.0178477
0.389657
0.0190741
0.393201
0.0202567
0.396969
0.0213858
0.400953
0.0224525
0.405144
0.0234488
0.40953
0.0243676
0.414098
0.0252031
0.418834
0.0259505
0.423722
0.0266063
0.428745
0.0271683
0.433885
0.0276356
0.0280123
0.378907
0.00706752
0.380673
0.0082367
0.382697
0.0092881
0.384972
0.0103538
0.387495
0.011421
0.390267
0.0124804
0.393282
0.0135255
0.396538
0.014549
0.40003
0.0155425
0.403752
0.0164981
0.407694
0.017408
0.411848
0.0182651
0.416202
0.0190629
0.420742
0.019796
0.425455
0.0204598
0.430324
0.0210509
0.435334
0.0215667
0.440467
0.0220058
0.445705
0.0223681
0.0226573
0.388176
0.00539318
0.390096
0.00624065
0.392275
0.00703933
0.394709
0.00785565
0.3974
0.0086722
0.400343
0.00948327
0.403534
0.0102837
0.406969
0.011067
0.410641
0.0118262
0.414542
0.012555
0.418663
0.0132475
0.422991
0.0138983
0.427514
0.0145026
0.432217
0.0150561
0.437085
0.0155557
0.442102
0.0159989
0.447249
0.0163839
0.45251
0.01671
0.457867
0.016977
0.0171885
0.397692
0.00355121
0.399768
0.00408573
0.402098
0.00463672
0.40469
0.00519607
0.407546
0.00575405
0.410661
0.0063103
0.41403
0.00686059
0.417646
0.00739922
0.421503
0.00792099
0.42559
0.0084214
0.429897
0.00889633
0.434409
0.00934205
0.439114
0.00975526
0.443996
0.0101332
0.449037
0.0104736
0.45422
0.0107749
0.459528
0.011036
0.464941
0.0112564
0.470442
0.0114362
0.011578
0.407534
0.00144194
0.409765
0.00177353
0.412245
0.00208147
0.414994
0.00237661
0.418011
0.00267121
0.421293
0.00296711
0.424834
0.00326083
0.42863
0.00354859
0.432671
0.00382743
0.436947
0.00409491
0.441445
0.00434884
0.446152
0.00458722
0.451052
0.00480832
0.456128
0.00501069
0.461363
0.00519317
0.466737
0.00535492
0.472232
0.00549543
0.477829
0.00561447
0.483508
0.00571214
0.00578973
0.416674
0.418363
0.420367
0.42267
0.425273
0.428176
0.431376
0.434867
0.438638
0.44268
0.446976
0.451512
0.45627
0.461231
0.466374
0.47168
0.477126
0.482692
0.488355
)
;

boundaryField
{
    inlet
    {
        type            calculated;
        value           nonuniform List<scalar> 
30
(
-0.20766
-0.212683
-0.217828
-0.223097
-0.228493
-0.23402
-0.239681
-0.245479
-0.251417
-0.257499
-0.263728
-0.270107
-0.276641
-0.283333
-0.290186
-0.297206
-0.304395
-0.311758
-0.3193
-0.327023
-0.334934
-0.343036
-0.351334
-0.359832
-0.368536
-0.377451
-0.386582
-0.395933
-0.40551
-0.415319
)
;
    }
    outlet
    {
        type            calculated;
        value           nonuniform 0();
    }
    flap
    {
        type            calculated;
        value           nonuniform 0();
    }
    upperWall
    {
        type            calculated;
        value           nonuniform List<scalar> 
20
(
0
0
0
0
0
6.13369e-15
0
0
1.11456e-14
0
0
5.08422e-15
-9.86895e-15
0
0
0
0
0
0
0
)
;
    }
    lowerWall
    {
        type            calculated;
        value           nonuniform 0();
    }
    frontAndBack
    {
        type            empty;
        value           nonuniform 0();
    }
    procBoundary0to1
    {
        type            processor;
        value           nonuniform List<scalar> 
18
(
0.321201
0.332633
0.0803802
0.338742
0.349847
0.36087
0.371848
0.382821
0.393829
0.404916
0.416127
0.427512
0.439127
0.451032
0.463303
0.476015
0.489253
0.494097
)
;
    }
    procBoundary0to3
    {
        type            processor;
        value           nonuniform List<scalar> 
34
(
-0.0120183
-0.0152348
0.206231
-0.0189143
0.210447
-0.0228013
0.214791
-0.0269241
0.219305
-0.0312695
0.224081
-0.0358126
0.22918
-0.0405712
-0.0446179
0.233881
-0.0497784
0.240188
-0.0549382
-0.0596843
0.247119
-0.0647745
-0.0698718
0.256417
-0.0743289
0.267231
-0.0777712
-0.0825269
0.282001
-0.0841793
-0.0882221
0.300202
-0.0876007
-0.0905342
)
;
    }
}


// ************************************************************************* //
