/*--------------------------------*- C++ -*----------------------------------*\
| =========                 |                                                 |
| \\      /  F ield         | OpenFOAM: The Open Source CFD Toolbox           |
|  \\    /   O peration     | Version:  dev                                   |
|   \\  /    A nd           | Web:      www.OpenFOAM.org                      |
|    \\/     M anipulation  |                                                 |
\*---------------------------------------------------------------------------*/
FoamFile
{
    version     2.0;
    format      ascii;
    class       volVectorField;
    location    "0.5";
    object      cellDisplacement;
}
// * * * * * * * * * * * * * * * * * * * * * * * * * * * * * * * * * * * * * //

dimensions      [0 1 0 0 0 0 0];

internalField   nonuniform List<vector> 
465
(
(0.00421163 0 -0.000163118)
(0.0121289 0 -0.000471943)
(0.0042173 0 -0.000170839)
(0.0121473 0 -0.00049432)
(0.0191534 0 -0.00078647)
(0.00422028 0 -0.000178048)
(0.0121582 0 -0.000515223)
(0.0191765 0 -0.000819818)
(0.0253842 0 -0.00109904)
(0.00422008 0 -0.000184677)
(0.0121602 0 -0.000534463)
(0.0191859 0 -0.00085052)
(0.0254067 0 -0.00114029)
(0.0309231 0 -0.00140984)
(0.00421621 0 -0.000190659)
(0.012152 0 -0.000551846)
(0.0191797 0 -0.000878283)
(0.0254085 0 -0.00117757)
(0.0309387 0 -0.00145593)
(0.0358573 0 -0.00171828)
(0.00420825 0 -0.000195928)
(0.0121323 0 -0.000567182)
(0.0191558 0 -0.00090281)
(0.0253873 0 -0.00121051)
(0.030926 0 -0.0014966)
(0.0358582 0 -0.00176607)
(0.0402583 0 -0.00202285)
(0.00419581 0 -0.000200432)
(0.0121 0 -0.000580324)
(0.0191126 0 -0.000923869)
(0.0253407 0 -0.00123881)
(0.0308825 0 -0.00153151)
(0.0358231 0 -0.001807)
(0.0402372 0 -0.00206932)
(0.0441925 0 -0.00232189)
(0.0477471 0 -0.0025673)
(0.00417863 0 -0.000204113)
(0.0120543 0 -0.000591101)
(0.0190486 0 -0.000941186)
(0.0252668 0 -0.0012621)
(0.0308056 0 -0.0015602)
(0.0357489 0 -0.00184051)
(0.04017 0 -0.00210705)
(0.044134 0 -0.00236311)
(0.0476975 0 -0.0026112)
(0.0509089 0 -0.00285324)
(0.0041564 0 -0.0002069)
(0.0119943 0 -0.000599305)
(0.0189625 0 -0.000954435)
(0.025164 0 -0.00127995)
(0.0306936 0 -0.00158215)
(0.0356333 0 -0.00186601)
(0.0400549 0 -0.00213549)
(0.0440216 0 -0.00239375)
(0.0475882 0 -0.00264323)
(0.0508025 0 -0.00288581)
(0.0537066 0 -0.00312294)
(0.0563371 0 -0.00335572)
(0.00412889 0 -0.000208738)
(0.0119195 0 -0.000604785)
(0.0188533 0 -0.000963381)
(0.025031 0 -0.00129205)
(0.0305447 0 -0.001597)
(0.0354746 0 -0.0018831)
(0.0398907 0 -0.00215423)
(0.0438541 0 -0.00241342)
(0.0474182 0 -0.00266303)
(0.0506297 0 -0.00290482)
(0.0535292 0 -0.0031401)
(0.056152 0 -0.00336978)
(0.058528 0 -0.00359423)
(0.0606826 0 -0.00381358)
(0.00409597 0 -0.000209583)
(0.0118293 0 -0.000607408)
(0.0187205 0 -0.000967814)
(0.0248669 0 -0.00129814)
(0.0303582 0 -0.00160442)
(0.0352721 0 -0.00189143)
(0.0396766 0 -0.00216292)
(0.0436311 0 -0.0024218)
(0.0471875 0 -0.00267031)
(0.050391 0 -0.0029101)
(0.0532812 0 -0.00314236)
(0.0558921 0 -0.00336781)
(0.0582528 0 -0.00358675)
(0.0603883 0 -0.00379911)
(0.0623187 0 -0.00400432)
(0.0040576 0 -0.000209395)
(0.0117236 0 -0.00060706)
(0.0185637 0 -0.000967553)
(0.0246715 0 -0.00129797)
(0.0301337 0 -0.00160415)
(0.0350255 0 -0.00189072)
(0.0394127 0 -0.00216128)
(0.043353 0 -0.00241863)
(0.0468967 0 -0.00266487)
(0.0500878 0 -0.00290156)
(0.0529645 0 -0.00312975)
(0.0555601 0 -0.00335005)
(0.0579031 0 -0.00356267)
(0.0600177 0 -0.00376745)
(0.0619246 0 -0.00396387)
(0.0636409 0 -0.00415105)
(0.0651812 0 -0.0043279)
(0.00401383 0 -0.000208142)
(0.0116027 0 -0.000603648)
(0.0183832 0 -0.000962448)
(0.0244451 0 -0.00129134)
(0.0298715 0 -0.00159596)
(0.0347353 0 -0.00188073)
(0.0390999 0 -0.00214909)
(0.043021 0 -0.00240372)
(0.0465475 0 -0.0026466)
(0.0497221 0 -0.00287916)
(0.052582 0 -0.00310237)
(0.0551596 0 -0.00331675)
(0.0574828 0 -0.00352245)
(0.0595757 0 -0.00371928)
(0.0614588 0 -0.00390672)
(0.0631498 0 -0.00408399)
(0.0646637 0 -0.0042501)
(0.066013 0 -0.00440379)
(0.0672096 0 -0.00454379)
(0.00396482 0 -0.000205801)
(0.0114669 0 -0.000597095)
(0.0181796 0 -0.000952377)
(0.0241883 0 -0.00127811)
(0.0295728 0 -0.00157967)
(0.0344028 0 -0.00186126)
(0.0387397 0 -0.00212617)
(0.0426371 0 -0.00237692)
(0.0461424 0 -0.00261538)
(0.049297 0 -0.0028429)
(0.0521372 0 -0.00306033)
(0.0546946 0 -0.00326815)
(0.0569967 0 -0.00346648)
(0.0590673 0 -0.00365511)
(0.060927 0 -0.0038336)
(0.0625938 0 -0.00400127)
(0.064083 0 -0.00415726)
(0.0654083 0 -0.00430058)
(0.0665818 0 -0.00443024)
(0.0676144 0 -0.00454517)
(0.0685167 0 -0.00464458)
(0.00391085 0 -0.000202353)
(0.0113169 0 -0.000587347)
(0.0179539 0 -0.000937247)
(0.0239027 0 -0.00125815)
(0.0292392 0 -0.00155512)
(0.0340302 0 -0.00183216)
(0.0383346 0 -0.00209237)
(0.0422042 0 -0.00233813)
(0.0456847 0 -0.00257118)
(0.0488164 0 -0.00279279)
(0.0516344 0 -0.00300373)
(0.0541699 0 -0.00320446)
(0.0564499 0 -0.00339506)
(0.058498 0 -0.00357539)
(0.0603349 0 -0.00374504)
(0.0619786 0 -0.00390347)
(0.0634451 0 -0.00404998)
(0.0647483 0 -0.0041838)
(0.065901 0 -0.00430418)
(0.0669148 0 -0.0044104)
(0.0678004 0 -0.0045019)
(0.00385229 0 -0.000197786)
(0.0111538 0 -0.000574363)
(0.0177077 0 -0.000916985)
(0.0235902 0 -0.00123135)
(0.0288732 0 -0.00152221)
(0.0336203 0 -0.00179332)
(0.0378879 0 -0.00204759)
(0.0417259 0 -0.00228725)
(0.0451785 0 -0.00251395)
(0.0482847 0 -0.00272883)
(0.0510788 0 -0.00293265)
(0.0535911 0 -0.00312581)
(0.0558483 0 -0.00330843)
(0.057874 0 -0.00348038)
(0.0596886 0 -0.00364136)
(0.0613105 0 -0.00379093)
(0.0627558 0 -0.00392855)
(0.0640389 0 -0.00405367)
(0.0651729 0 -0.00416572)
(0.0661694 0 -0.0042642)
(0.00378961 0 -0.000192093)
(0.0109788 0 -0.000558118)
(0.0174431 0 -0.000891539)
(0.0232534 0 -0.00119764)
(0.0284778 0 -0.00148083)
(0.0331765 0 -0.00174462)
(0.0374036 0 -0.00199172)
(0.0412069 0 -0.0022242)
(0.0446289 0 -0.0024436)
(0.0477074 0 -0.002651)
(0.050476 0 -0.00284709)
(0.0529643 0 -0.00303227)
(0.0551984 0 -0.00320666)
(0.0572018 0 -0.0033702)
(0.0589949 0 -0.00352266)
(0.0605961 0 -0.00366373)
(0.0620217 0 -0.003793)
(0.0632864 0 -0.00391008)
(0.0644034 0 -0.00401463)
(0.0653848 0 -0.00410634)
(0.00372339 0 -0.000185271)
(0.0107937 0 -0.000538592)
(0.0171624 0 -0.000860871)
(0.0228956 0 -0.00115695)
(0.0280568 0 -0.0014309)
(0.0327034 0 -0.00168596)
(0.0368867 0 -0.00192465)
(0.0406524 0 -0.00214887)
(0.0440417 0 -0.00236006)
(0.047091 0 -0.00255922)
(0.0498329 0 -0.00274699)
(0.0522964 0 -0.00292378)
(0.0545074 0 -0.00308972)
(0.0564888 0 -0.00324479)
(0.0582612 0 -0.00338886)
(0.0598427 0 -0.0035217)
(0.06125 0 -0.00364305)
(0.0624977 0 -0.00375266)
(0.0635992 0 -0.00385032)
(0.0645667 0 -0.0039359)
(0.00365431 0 -0.000177319)
(0.0106003 0 -0.000515776)
(0.0168687 0 -0.000824946)
(0.0225203 0 -0.00110923)
(0.0276148 0 -0.00137234)
(0.0322061 0 -0.00161725)
(0.0363429 0 -0.00184625)
(0.0400689 0 -0.00206112)
(0.0434237 0 -0.00226317)
(0.0464425 0 -0.00245332)
(0.0491569 0 -0.00263219)
(0.0515954 0 -0.00280015)
(0.0537833 0 -0.00295737)
(0.0557432 0 -0.00310389)
(0.0574955 0 -0.00323963)
(0.0590585 0 -0.00336445)
(0.0604485 0 -0.0034782)
(0.0616805 0 -0.00358074)
(0.0627677 0 -0.00367197)
(0.0637224 0 -0.00375188)
(0.00358317 0 -0.000168236)
(0.0104009 0 -0.000489657)
(0.0165652 0 -0.000783727)
(0.0221321 0 -0.0010544)
(0.0271571 0 -0.00130504)
(0.0316906 0 -0.00153833)
(0.0357788 0 -0.00175636)
(0.0394636 0 -0.00196075)
(0.0427826 0 -0.00215269)
(0.0457701 0 -0.00233304)
(0.0484567 0 -0.00250237)
(0.05087 0 -0.00266104)
(0.0530351 0 -0.00280925)
(0.0549741 0 -0.00294705)
(0.0567072 0 -0.00307443)
(0.0582525 0 -0.00319133)
(0.0596264 0 -0.00329767)
(0.0608436 0 -0.0033934)
(0.0619176 0 -0.00347851)
(0.0628605 0 -0.00355307)
(0.00351082 0 -0.000158019)
(0.0101978 0 -0.000460217)
(0.0162559 0 -0.000737168)
(0.021736 0 -0.000992385)
(0.0266895 0 -0.00122887)
(0.0311637 0 -0.00144903)
(0.0352021 0 -0.00165475)
(0.0388446 0 -0.00184749)
(0.0421272 0 -0.00202831)
(0.045083 0 -0.002198)
(0.0477416 0 -0.0023571)
(0.0501301 0 -0.00250595)
(0.0522727 0 -0.00264475)
(0.0541915 0 -0.00277358)
(0.0559062 0 -0.00289248)
(0.0574349 0 -0.00300143)
(0.0587937 0 -0.00310042)
(0.0599972 0 -0.00318947)
(0.0610589 0 -0.00326862)
(0.0619908 0 -0.00333799)
(0.00343826 0 -0.000146661)
(0.009994 0 -0.000427427)
(0.015945 0 -0.0006852)
(0.0213375 0 -0.000923062)
(0.0262188 0 -0.00114366)
(0.0306331 0 -0.00134912)
(0.0346212 0 -0.00154112)
(0.0382211 0 -0.00172095)
(0.0414672 0 -0.00188957)
(0.0443914 0 -0.00204768)
(0.0470224 0 -0.00219578)
(0.0493865 0 -0.00233418)
(0.0515074 0 -0.00246308)
(0.0534068 0 -0.00258258)
(0.0551041 0 -0.00269274)
(0.0566171 0 -0.00279359)
(0.0579617 0 -0.00288516)
(0.0591526 0 -0.00296751)
(0.0602029 0 -0.00304071)
(0.0611246 0 -0.00310492)
(0.00336657 0 -0.000134151)
(0.00979246 0 -0.000391241)
(0.0156374 0 -0.000627728)
(0.020943 0 -0.000846272)
(0.0257527 0 -0.00104917)
(0.0301074 0 -0.00123829)
(0.0340457 0 -0.00141507)
(0.0376034 0 -0.00158065)
(0.0408137 0 -0.00173589)
(0.0437069 0 -0.00188139)
(0.046311 0 -0.0020176)
(0.0486516 0 -0.0021448)
(0.0507517 0 -0.00226319)
(0.0526327 0 -0.00237286)
(0.0543136 0 -0.00247391)
(0.0558119 0 -0.00256636)
(0.0571435 0 -0.00265029)
(0.0583227 0 -0.00272576)
(0.0593626 0 -0.00279289)
(0.0602749 0 -0.00285183)
(0.00329694 0 -0.000120467)
(0.00959666 0 -0.00035159)
(0.0153385 0 -0.000564615)
(0.0205596 0 -0.000761802)
(0.0252995 0 -0.000945108)
(0.0295964 0 -0.00111612)
(0.0334863 0 -0.00127608)
(0.0370032 0 -0.00142597)
(0.0401788 0 -0.00156652)
(0.0430423 0 -0.00169825)
(0.0456208 0 -0.00182155)
(0.047939 0 -0.00193667)
(0.0500196 0 -0.00204377)
(0.0518833 0 -0.00214298)
(0.053549 0 -0.00223435)
(0.0550338 0 -0.00231796)
(0.0563535 0 -0.00239386)
(0.057522 0 -0.00246215)
(0.0585523 0 -0.00252293)
(0.0594562 0 -0.00257636)
(0.00323072 0 -0.000105581)
(0.00941045 0 -0.000308375)
(0.0150542 0 -0.000495681)
(0.020195 0 -0.00066937)
(0.0248688 0 -0.000831071)
(0.0291109 0 -0.000982105)
(0.032955 0 -0.00112352)
(0.0364334 0 -0.00125612)
(0.0395763 0 -0.00138051)
(0.042412 0 -0.00149716)
(0.0449666 0 -0.00160636)
(0.047264 0 -0.00170833)
(0.0493266 0 -0.00180323)
(0.0511746 0 -0.00189113)
(0.0528265 0 -0.00197212)
(0.0542992 0 -0.00204624)
(0.055608 0 -0.00211357)
(0.056767 0 -0.00217418)
(0.0577888 0 -0.00222818)
(0.058685 0 -0.00227572)
(0.00316941 0 -8.94524e-05)
(0.00923819 0 -0.000261467)
(0.0147916 0 -0.00042069)
(0.0198584 0 -0.000568622)
(0.0244714 0 -0.000706573)
(0.0286631 0 -0.000835609)
(0.0324653 0 -0.000956573)
(0.0359086 0 -0.00107012)
(0.0390218 0 -0.00117673)
(0.0418322 0 -0.00127678)
(0.0443651 0 -0.0013705)
(0.046644 0 -0.00145807)
(0.0486905 0 -0.00153961)
(0.0505245 0 -0.00161518)
(0.0521641 0 -0.00168485)
(0.0536261 0 -0.00174866)
(0.0549255 0 -0.00180666)
(0.0560762 0 -0.00185893)
(0.0570906 0 -0.00190555)
(0.0579802 0 -0.00194665)
(0.00311475 0 -7.20274e-05)
(0.00908488 0 -0.000210699)
(0.0145583 0 -0.000339348)
(0.01956 0 -0.000459119)
(0.0241196 0 -0.000571017)
(0.0282671 0 -0.000675858)
(0.0320326 0 -0.000774288)
(0.0354452 0 -0.000866807)
(0.0385325 0 -0.000953788)
(0.041321 0 -0.0010355)
(0.0438353 0 -0.00111213)
(0.0460982 0 -0.0011838)
(0.0481309 0 -0.0012506)
(0.049953 0 -0.00131257)
(0.0515823 0 -0.00136975)
(0.0530352 0 -0.00142217)
(0.0543267 0 -0.00146988)
(0.0554704 0 -0.00151292)
(0.0564787 0 -0.00155136)
(0.0573628 0 -0.00158531)
(0.0030688 0 -5.32413e-05)
(0.00895642 0 -0.00015587)
(0.0143636 0 -0.0002513)
(0.0193117 0 -0.000340337)
(0.0238274 0 -0.000423689)
(0.0279389 0 -0.000501932)
(0.0316744 0 -0.000575522)
(0.035062 0 -0.000644807)
(0.0381284 0 -0.000710048)
(0.0408992 0 -0.000771427)
(0.0433984 0 -0.000829072)
(0.0456484 0 -0.000883061)
(0.0476702 0 -0.000933443)
(0.0494828 0 -0.000980247)
(0.0511039 0 -0.00102349)
(0.0525497 0 -0.00106319)
(0.053835 0 -0.00109937)
(0.0549733 0 -0.00113205)
(0.0559768 0 -0.00116129)
(0.0568566 0 -0.00118716)
(0.00303413 0 -3.30174e-05)
(0.00886009 0 -9.67409e-05)
(0.0142185 0 -0.000156131)
(0.0191275 0 -0.000211664)
(0.0236115 0 -0.000263762)
(0.0276969 0 -0.000312767)
(0.0314109 0 -0.000358949)
(0.0347805 0 -0.000402513)
(0.0378319 0 -0.00044361)
(0.04059 0 -0.000482344)
(0.0430785 0 -0.000518785)
(0.0453195 0 -0.000552972)
(0.0473334 0 -0.000584929)
(0.0491394 0 -0.000614663)
(0.0507548 0 -0.00064218)
(0.0521957 0 -0.000667482)
(0.0534767 0 -0.000690576)
(0.0546112 0 -0.000711477)
(0.0556113 0 -0.000730207)
(0.0564882 0 -0.000746803)
(0.00301422 0 -1.12704e-05)
(0.00880536 0 -3.30439e-05)
(0.0141371 0 -5.33726e-05)
(0.0190249 0 -7.2413e-05)
(0.0234918 0 -9.03047e-05)
(0.0275632 0 -0.000107161)
(0.0312657 0 -0.000123072)
(0.0346257 0 -0.000138104)
(0.037669 0 -0.000152306)
(0.0404204 0 -0.000165712)
(0.0429032 0 -0.000178343)
(0.0451394 0 -0.000190209)
(0.0471493 0 -0.000201317)
(0.0489518 0 -0.000211667)
(0.0505642 0 -0.000221257)
(0.0520026 0 -0.000230088)
(0.0532814 0 -0.000238158)
(0.0544139 0 -0.000245472)
(0.0554124 0 -0.000252036)
(0.0562877 0 -0.000257862)
)
;

boundaryField
{
    inlet
    {
        type            cellMotion;
        value           uniform (0 0 0);
    }
    outlet
    {
        type            cellMotion;
        value           nonuniform 0();
    }
    flap
    {
        type            cellMotion;
        value           nonuniform 0();
    }
    upperWall
    {
        type            slip;
    }
    lowerWall
    {
        type            slip;
    }
    frontAndBack
    {
        type            empty;
    }
    procBoundary0to1
    {
        type            processor;
        value           nonuniform List<vector> 
18
(
(0.0692998 0 -0.00472803)
(0.0685698 0 -0.00457872)
(0.0670412 0 -0.00434916)
(0.0670412 0 -0.00434916)
(0.0662437 0 -0.00418548)
(0.0654135 0 -0.00400981)
(0.064558 0 -0.003821)
(0.0636858 0 -0.00361768)
(0.0628065 0 -0.00339824)
(0.0619315 0 -0.00316081)
(0.0610736 0 -0.00290326)
(0.0602475 0 -0.00262308)
(0.0594698 0 -0.00231738)
(0.0587593 0 -0.00198275)
(0.0581371 0 -0.00161519)
(0.0576272 0 -0.00120996)
(0.0572563 0 -0.000761457)
(0.0570543 0 -0.000263005)
)
;
    }
    procBoundary0to3
    {
        type            processor;
        value           nonuniform List<vector> 
34
(
(0.00420386 0 -0.000155016)
(0.0121048 0 -0.000448491)
(0.0191191 0 -0.000750861)
(0.0191191 0 -0.000750861)
(0.0253442 0 -0.00105435)
(0.0253442 0 -0.00105435)
(0.0308826 0 -0.00135894)
(0.0308826 0 -0.00135894)
(0.0358235 0 -0.00166415)
(0.0358235 0 -0.00166415)
(0.0402417 0 -0.00196874)
(0.0402417 0 -0.00196874)
(0.0441993 0 -0.00227068)
(0.0441993 0 -0.00227068)
(0.0477397 0 -0.00251221)
(0.0509501 0 -0.00280761)
(0.0509501 0 -0.00280761)
(0.0538126 0 -0.00309103)
(0.0538126 0 -0.00309103)
(0.0564462 0 -0.00332575)
(0.0587252 0 -0.0035848)
(0.0587252 0 -0.0035848)
(0.0608971 0 -0.00381042)
(0.0626369 0 -0.00402749)
(0.0626369 0 -0.00402749)
(0.064062 0 -0.00420176)
(0.064062 0 -0.00420176)
(0.0656316 0 -0.0043901)
(0.066558 0 -0.00449306)
(0.066558 0 -0.00449306)
(0.0677814 0 -0.00464488)
(0.0682639 0 -0.00466884)
(0.0682639 0 -0.00466884)
(0.0691855 0 -0.0047776)
)
;
    }
}


// ************************************************************************* //
