/*--------------------------------*- C++ -*----------------------------------*\
| =========                 |                                                 |
| \\      /  F ield         | OpenFOAM: The Open Source CFD Toolbox           |
|  \\    /   O peration     | Version:  dev                                   |
|   \\  /    A nd           | Web:      www.OpenFOAM.org                      |
|    \\/     M anipulation  |                                                 |
\*---------------------------------------------------------------------------*/
FoamFile
{
    version     2.0;
    format      ascii;
    class       volVectorField;
    location    "0.45";
    object      U;
}
// * * * * * * * * * * * * * * * * * * * * * * * * * * * * * * * * * * * * * //

dimensions      [0 1 -1 0 0 0 0];

internalField   nonuniform List<vector> 
465
(
(9.93402 -1.46359e-21 0.0196395)
(9.86582 0 0.0284219)
(9.76787 0 0.0345749)
(9.64275 0 0.0407967)
(9.49816 -1.65887e-21 0.0472431)
(9.33649 0 0.053903)
(9.15698 0 0.0609072)
(8.95846 0 0.068413)
(8.74001 0 0.07656)
(8.50071 0 0.0854698)
(8.23943 0 0.0952631)
(7.95488 0 0.106067)
(7.64569 0 0.118006)
(7.31044 1.23788e-21 0.131196)
(6.94775 0 0.145742)
(6.55636 -1.11183e-20 0.161729)
(6.13528 1.14491e-20 0.179198)
(5.68394 -2.47082e-20 0.198108)
(5.20245 2.54741e-20 0.21831)
(4.69191 0 0.239514)
(4.15466 -5.78013e-20 0.261186)
(9.99175 -1.45655e-21 0.0399784)
(9.97766 2.99537e-21 0.0606208)
(9.93629 -3.08575e-21 0.0762475)
(9.86671 0 0.0925106)
(9.7754 1.6543e-21 0.109772)
(9.66483 -1.71538e-21 0.127935)
(9.53444 -3.59731e-21 0.147247)
(9.38314 -1.91557e-21 0.168048)
(9.21008 3.85023e-21 0.190644)
(9.01439 0 0.215302)
(8.79495 5.29906e-22 0.242282)
(8.55049 0 0.271846)
(8.27966 0 0.304232)
(7.98101 -1.86177e-20 0.339634)
(7.6531 2.03899e-20 0.378189)
(7.29457 0 0.41994)
(6.90431 -4.62341e-20 0.464774)
(6.48152 -6.1798e-20 0.512324)
(6.02602 1.00283e-19 0.561884)
(5.53857 2.66363e-20 0.612345)
(5.02114 -2.80385e-20 0.662035)
(9.98887 2.91944e-21 0.0432997)
(9.9719 -2.99464e-21 0.0733908)
(9.93261 9.24346e-21 0.099167)
(9.86776 0 0.125975)
(9.78255 0 0.154522)
(9.67957 1.71356e-21 0.184795)
(9.55858 0 0.217123)
(9.41862 1.85502e-21 0.251981)
(9.25899 -7.79996e-21 0.289835)
(9.07902 2.22932e-20 0.331125)
(8.87771 -1.7261e-20 0.376281)
(8.65401 -1.78737e-20 0.425741)
(8.4067 1.83486e-20 0.479907)
(8.13449 3.69202e-20 0.539128)
(7.83601 -8.68603e-20 0.603667)
(7.50989 3.17678e-20 0.673647)
(7.1549 0 0.748946)
(6.76998 1.19063e-20 0.829053)
(6.3544 2.27079e-19 0.912905)
(5.90808 -2.34398e-19 0.998759)
(5.43187 8.2743e-20 1.08398)
(9.98716 3.63727e-22 0.0491729)
(9.96793 5.58956e-21 0.0902363)
(9.92852 -6.15642e-21 0.127476)
(9.86492 9.53668e-21 0.165137)
(9.78142 -3.27548e-21 0.20451)
(9.6806 0 0.245968)
(9.56245 0 0.290028)
(9.42619 0 0.337331)
(9.27128 0 0.388509)
(9.09722 7.73587e-24 0.44418)
(8.90328 3.18172e-20 0.504958)
(8.68867 -3.53399e-20 0.571451)
(8.45248 0 0.644231)
(8.19374 0 0.723815)
(7.91137 3.07183e-23 0.810635)
(7.6043 -7.53151e-20 0.904956)
(7.27147 8.82756e-20 1.00675)
(6.91192 1.89652e-19 1.11555)
(6.52474 -1.9505e-19 1.23019)
(6.10927 -5.14636e-20 1.34863)
(5.66539 -4.66618e-22 1.46767)
(9.98636 7.25285e-22 0.0565525)
(9.9659 -1.85903e-20 0.107175)
(9.92641 -6.12149e-21 0.15451)
(9.86391 -1.58443e-20 0.202033)
(9.78213 3.2638e-21 0.251449)
(9.68343 6.8411e-21 0.303501)
(9.5679 -7.01833e-21 0.35886)
(9.43485 1.48057e-20 0.418267)
(9.28382 -1.51863e-20 0.482462)
(9.11437 3.42163e-20 0.552169)
(8.92589 -6.25397e-20 0.628114)
(8.71775 3.61574e-20 0.711013)
(8.48925 0 0.801546)
(8.23959 7.72332e-20 0.900341)
(7.96793 -6.92211e-20 1.00795)
(7.67339 8.48934e-20 1.12476)
(7.35514 -8.71028e-20 1.25083)
(7.0123 -1.63786e-19 1.3858)
(6.64397 3.39073e-19 1.52859)
(6.24917 -5.60336e-19 1.67711)
(5.82698 3.67855e-19 1.82798)
(9.98601 0 0.0645975)
(9.96506 4.20949e-23 0.124092)
(9.92584 -9.13939e-21 0.180997)
(9.86469 9.46257e-21 0.238261)
(9.78498 6.56185e-21 0.297682)
(9.68887 -6.73128e-21 0.360227)
(9.57642 7.00645e-21 0.426692)
(9.44706 -1.4715e-20 0.497905)
(9.30036 -2.39055e-22 0.574705)
(9.13592 4.37401e-20 0.657927)
(8.95318 -6.41115e-20 0.748398)
(8.75159 -1.74051e-21 0.846932)
(8.53057 -3.66289e-20 0.954313)
(8.28935 1.53471e-19 1.07129)
(8.02714 -8.32202e-20 1.19851)
(7.74318 0 1.33648)
(7.43664 0 1.48537)
(7.10661 -2.28179e-20 1.64494)
(6.7521 2.38987e-20 1.8143)
(6.37189 0 1.99154)
(5.96432 0 2.1734)
(9.98591 -1.14854e-20 0.0728963)
(9.96498 1.03568e-20 0.140908)
(9.92644 1.37062e-20 0.206909)
(9.8669 -6.3053e-21 0.273568)
(9.78959 6.5171e-21 0.342649)
(9.6965 -6.6952e-21 0.415289)
(9.58766 -3.64426e-23 0.492417)
(9.46257 0 0.574963)
(9.32086 -7.51866e-21 0.663869)
(9.16214 3.94026e-21 0.760076)
(8.98591 2.8948e-20 0.864504)
(8.79166 -3.38774e-20 0.978053)
(8.57881 7.1524e-20 1.10161)
(8.34661 -1.51538e-19 1.23605)
(8.09426 1.55943e-19 1.38212)
(7.82097 -8.06886e-20 1.54042)
(7.52582 -1.72206e-19 1.71129)
(7.20767 3.7853e-19 1.89464)
(6.86532 -1.84387e-19 2.08983)
(6.49717 4.16992e-19 2.2953)
(6.10084 -4.02312e-19 2.50821)
(9.98596 1.21995e-20 0.0812113)
(9.96542 1.09955e-20 0.157461)
(9.92793 0 0.232108)
(9.87028 0 0.30775)
(9.7957 1.93542e-20 0.386111)
(9.70603 0 0.468443)
(9.60131 -2.09081e-20 0.555801)
(9.48108 2.14777e-20 0.649214)
(9.345 3.0206e-20 0.749716)
(9.19272 -2.31473e-20 0.858344)
(9.02382 8.06848e-21 0.976109)
(8.8378 -6.81902e-20 1.10401)
(8.63406 6.54664e-20 1.24304)
(8.41184 0 1.3942)
(8.17035 -5.95698e-22 1.55836)
(7.90871 -1.61788e-19 1.73627)
(7.62583 1.7081e-19 1.92845)
(7.32034 1.54239e-19 2.13507)
(6.99063 -1.80317e-19 2.35579)
(6.63452 -4.1179e-22 2.58954)
(6.24903 0 2.83409)
(9.98612 0 0.0893915)
(9.96624 -1.17259e-20 0.173595)
(9.9301 3.01864e-21 0.256465)
(9.87465 -3.09622e-21 0.340659)
(9.8031 -1.28698e-20 0.427883)
(9.71725 0 0.519468)
(9.61712 -1.37136e-20 0.616578)
(9.50229 -7.16179e-21 0.720332)
(9.37246 1.48198e-20 0.831855)
(9.22735 2.33213e-20 0.95227)
(9.06656 -7.53765e-21 1.08268)
(8.88964 -3.30938e-20 1.22419)
(8.69597 7.44759e-20 1.37793)
(8.48485 -3.20722e-21 1.54499)
(8.25546 -7.41732e-20 1.72642)
(8.00681 0 1.92314)
(7.73767 -5.15667e-21 2.13593)
(7.44647 5.28249e-21 2.36531)
(7.13114 -1.73659e-19 2.61135)
(6.78891 1.59809e-19 2.87358)
(6.41616 3.87214e-19 3.15053)
(9.98635 1.41808e-21 0.0973332)
(9.96734 -1.4531e-21 0.189178)
(9.93283 0 0.279853)
(9.87985 6.19373e-21 0.372149)
(9.81164 -6.35015e-21 0.467779)
(9.72998 -1.31361e-20 0.568135)
(9.63487 1.36963e-20 0.674469)
(9.52594 1.42372e-20 0.787989)
(9.40296 -5.1505e-20 0.909899)
(9.26567 3.78458e-20 1.04141)
(9.11375 3.19064e-20 1.18371)
(8.94678 -1.07192e-19 1.33802)
(8.76419 -1.11294e-21 1.50557)
(8.56531 1.21293e-20 1.68761)
(8.34932 7.34403e-20 1.88535)
(8.11519 1.50589e-19 2.09994)
(7.86158 -1.53865e-19 2.33246)
(7.58673 -5.24886e-21 2.58384)
(7.28828 -1.77054e-19 2.85473)
(6.96302 5.39566e-19 3.14535)
(6.60668 -3.72015e-19 3.45521)
(9.98663 0 0.104961)
(9.96866 0 0.204097)
(9.93601 -1.4833e-20 0.302152)
(9.88576 -3.09384e-21 0.402081)
(9.82118 6.30423e-21 0.505629)
(9.74403 -1.30446e-20 0.614233)
(9.65435 1.34632e-20 0.729223)
(9.5518 -1.39453e-20 0.851884)
(9.43619 0 0.983494)
(9.30734 2.27555e-20 1.12534)
(9.165 8.20464e-21 1.2787)
(9.0088 -9.74562e-20 1.4449)
(8.83825 5.84934e-20 1.62529)
(8.65274 -8.80338e-21 1.82125)
(8.45148 0 2.03417)
(8.23346 -4.58372e-21 2.26547)
(7.99731 1.5264e-19 2.51656)
(7.74122 2.4109e-21 2.78884)
(7.46269 -1.69399e-19 3.08359)
(7.15826 1.0721e-20 3.4019)
(6.82323 -1.78026e-19 3.74445)
(9.98695 -2.37238e-20 0.112216)
(9.97015 -2.14551e-20 0.218258)
(9.93957 1.18469e-20 0.323251)
(9.89228 -1.82252e-20 0.430327)
(9.83158 -6.24844e-21 0.541274)
(9.75926 1.30134e-20 0.657571)
(9.67536 -1.33411e-20 0.780611)
(9.57961 1.28664e-22 0.911745)
(9.47186 -1.42766e-20 1.05232)
(9.35202 0 1.20368)
(9.21991 -7.74712e-21 1.36721)
(9.07524 7.23442e-20 1.5443)
(8.91762 -7.18038e-21 1.73642)
(8.74653 -5.96439e-20 1.94509)
(8.56128 -8.04172e-20 2.17188)
(8.36096 1.56596e-19 2.41848)
(8.14428 -5.68696e-20 2.68665)
(7.9095 1.94745e-20 2.97825)
(7.65418 1.43764e-19 3.29526)
(7.37492 -1.98464e-19 3.63971)
(7.06693 -2.13014e-20 4.01362)
(9.98731 -5.43134e-22 0.119054)
(9.97179 8.70765e-22 0.231583)
(9.94344 0 0.343053)
(9.89932 1.21145e-20 0.456771)
(9.84274 1.24943e-20 0.574573)
(9.77552 0 0.697977)
(9.69772 1.33256e-20 0.828425)
(9.60912 1.36356e-20 0.967325)
(9.50967 1.42595e-20 1.11608)
(9.39933 2.95102e-20 1.2761)
(9.27802 -3.01838e-20 1.44881)
(9.14556 1.55952e-20 1.63571)
(9.00167 -3.29298e-20 1.83835)
(8.84597 5.83823e-20 2.05837)
(8.67792 8.77524e-21 2.29754)
(8.49678 0 2.55775)
(8.30146 -3.71048e-20 2.8411)
(8.09048 1.34519e-19 3.14993)
(7.86168 -1.36948e-19 3.48687)
(7.61202 4.05272e-20 3.8549)
(7.33713 -1.97281e-20 4.25743)
(9.98769 1.60306e-22 0.125438)
(9.97354 2.27174e-20 0.244006)
(9.94757 -2.31701e-20 0.361473)
(9.9068 2.98469e-20 0.481311)
(9.85454 6.1323e-21 0.605406)
(9.79264 -6.38611e-21 0.735307)
(9.72121 1.97242e-20 0.872497)
(9.6401 -2.71196e-20 1.01843)
(9.54929 2.79967e-20 1.17454)
(9.44888 -1.4373e-20 1.3423)
(9.33886 1.48431e-20 1.52318)
(9.21917 -1.55574e-20 1.71873)
(9.0897 -8.02537e-20 1.93058)
(8.95022 1.31798e-19 2.16048)
(8.8004 -1.35995e-19 2.41032)
(8.63974 -6.86201e-22 2.68221)
(8.46748 9.01239e-20 2.97851)
(8.28251 5.62044e-20 3.30195)
(8.08322 -1.82844e-20 3.65573)
(7.86727 -9.77117e-20 4.04368)
(7.63122 1.49204e-21 4.47048)
(9.9881 4.38293e-20 0.131337)
(9.97539 0 0.255469)
(9.95192 1.84775e-22 0.378432)
(9.91465 -2.38315e-20 0.503846)
(9.86689 -1.84045e-20 0.633642)
(9.81051 6.27753e-21 0.769396)
(9.74569 0 0.912619)
(9.67231 -1.34499e-20 1.0648)
(9.59046 -1.38716e-20 1.2274)
(9.5003 1.43486e-20 1.40192)
(9.40197 2.93521e-20 1.58987)
(9.29553 -6.07058e-20 1.79283)
(9.18101 4.7083e-20 2.01248)
(9.05841 -1.61346e-20 2.25064)
(8.92763 6.66878e-20 2.5093)
(8.78848 -1.36588e-19 2.79068)
(8.64061 -1.77612e-20 3.09736)
(8.48343 1.56986e-22 3.43233)
(8.31605 1.84663e-20 3.79919)
(8.13714 7.49983e-20 4.20239)
(7.94466 7.70098e-20 4.64751)
(9.95651 2.21259e-20 0.394174)
(9.92293 -2.83875e-21 0.524724)
(9.8799 8.75386e-21 0.659744)
(9.82934 -5.98607e-21 0.800829)
(9.77147 0 0.949507)
(9.70625 0 1.10728)
(9.63385 1.32163e-20 1.27564)
(9.55454 0 1.45608)
(9.46858 -1.40507e-20 1.65014)
(9.37618 0 1.8594)
(9.27756 4.4598e-20 2.08557)
(9.17293 -6.07059e-20 2.33048)
(9.06249 -1.5444e-20 2.59615)
(8.9464 0 2.88489)
(8.82477 -4.91131e-20 3.19933)
(8.69767 8.3518e-20 3.5426)
(8.56506 3.41901e-20 3.91848)
(8.42684 0 4.33167)
(8.28275 1.74798e-20 4.78818)
(9.93168 0 0.543891)
(9.89362 -1.95908e-20 0.683602)
(9.84913 -2.89099e-21 0.829421)
(9.79848 -1.18592e-20 0.982882)
(9.74173 0 1.14549)
(9.67913 1.25516e-20 1.31874)
(9.61104 0 1.50412)
(9.53787 -2.68546e-20 1.70315)
(9.45999 2.74335e-20 1.91741)
(9.37781 -2.83558e-20 2.14858)
(9.29178 4.36116e-20 2.39846)
(9.2024 -2.94435e-20 2.66906)
(9.11022 4.54107e-20 2.96264)
(9.01585 -4.63974e-20 3.28179)
(8.92001 -6.3275e-20 3.62958)
(8.8236 3.2201e-20 4.00969)
(8.72775 0 4.42668)
(8.63405 8.10548e-21 4.88627)
(9.90791 2.38707e-22 0.704909)
(9.86971 0 0.854839)
(9.82655 1.15732e-20 1.01239)
(9.77853 -5.81624e-21 1.17906)
(9.72601 -1.83088e-20 1.35632)
(9.66947 0 1.54563)
(9.60941 1.2866e-20 1.74847)
(9.54639 -2.61889e-20 1.96637)
(9.48101 -1.33672e-20 2.20096)
(9.41397 2.77035e-20 2.45396)
(9.34605 -2.82738e-20 2.72728)
(9.27818 -1.46348e-20 3.02305)
(9.21147 1.49991e-20 3.3437)
(9.14727 6.02543e-20 3.69204)
(9.08729 0 4.0714)
(9.03378 0 4.48576)
(8.98985 0 4.93997)
(9.89092 -2.14415e-20 0.876706)
(9.85543 0 1.03758)
(9.81636 3.40599e-20 1.20745)
(9.77413 5.85456e-21 1.38774)
(9.72933 2.33818e-23 1.57988)
(9.6826 -6.13769e-21 1.78527)
(9.63463 1.27269e-20 2.00538)
(9.58621 2.57926e-20 2.24172)
(9.53826 0 2.49588)
(9.49186 -1.36217e-20 2.76963)
(9.44825 1.34856e-20 3.06486)
(9.40897 0 3.38372)
(9.37589 -6.98527e-21 3.72861)
(9.35138 7.11328e-21 4.10228)
(9.3385 -2.77448e-20 4.50788)
(9.34131 0 4.94899)
(9.88489 1.3318e-21 1.05813)
(9.85488 -2.20551e-20 1.23029)
(9.82306 -2.22648e-20 1.4126)
(9.7901 0 1.60641)
(9.75674 0 1.81306)
(9.72383 -1.19191e-20 2.03387)
(9.69231 -1.24431e-20 2.27024)
(9.66329 -1.23886e-20 2.52359)
(9.63807 0 2.79544)
(9.61818 -3.89242e-22 3.08742)
(9.60548 -3.26012e-21 3.40128)
(9.60221 1.68151e-21 3.73893)
(9.61116 1.46687e-20 4.1024)
(9.63584 1.40116e-20 4.49388)
(9.68071 4.17426e-22 4.91558)
(9.89376 -2.08766e-20 1.24726)
(9.87234 2.30781e-20 1.43054)
(9.85117 -1.37719e-21 1.62485)
(9.83109 0 1.83142)
(9.81305 9.67869e-22 2.05144)
(9.79813 -1.2324e-20 2.28613)
(9.78757 1.20875e-20 2.5367)
(9.78286 0 2.80442)
(9.78571 -9.4033e-21 3.09057)
(9.79817 -9.24934e-21 3.39648)
(9.82272 1.00574e-22 3.72349)
(9.86232 5.7635e-21 4.07291)
(9.92059 0 4.44596)
(10.002 0 4.84361)
(9.91195 5.18341e-21 1.63489)
(9.90488 -5.27663e-21 1.84005)
(9.90133 2.19706e-20 2.0578)
(9.90246 1.13117e-20 2.28914)
(9.90963 5.65162e-21 2.53508)
(9.92441 -2.28052e-20 2.79657)
(9.94861 -5.6949e-21 3.07456)
(9.98439 1.17427e-20 3.36992)
(10.0342 0 3.68343)
(10.1011 -1.18844e-20 4.01571)
(10.1886 0 4.36714)
(10.3006 1.10486e-20 4.73768)
(9.97732 2.17926e-22 1.83878)
(9.98769 -2.10577e-20 2.05282)
(10.0041 2.12749e-20 2.27926)
(10.028 -1.80699e-22 2.51883)
(10.061 1.10552e-20 2.77222)
(10.1049 -1.08004e-20 3.03999)
(10.1617 1.08215e-20 3.32261)
(10.2341 -1.07918e-20 3.62034)
(10.3246 0 3.93321)
(10.4366 0 4.26089)
(10.5735 4.91342e-22 4.60258)
(10.102 -1.00087e-20 2.25664)
(10.1414 -1.03875e-20 2.4883)
(10.191 -3.06826e-20 2.73194)
(10.2526 4.16667e-20 2.9878)
(10.3282 -3.55289e-22 3.25594)
(10.42 4.10886e-20 3.5362)
(10.5305 -5.09443e-20 3.82813)
(10.6624 2.04924e-20 4.13088)
(10.8188 5.24859e-21 4.44308)
(10.3132 -9.47835e-21 2.67659)
(10.3904 9.82399e-21 2.91917)
(10.4821 9.3829e-21 3.17155)
(10.5903 -5.83965e-20 3.43323)
(10.7171 6.71282e-20 3.70337)
(10.8648 -3.84638e-20 3.98076)
(11.0356 -2.65686e-20 4.26374)
(10.5171 5.55154e-20 2.83549)
(10.6224 -9.29959e-22 3.07126)
(10.744 8.24839e-21 3.31373)
(10.8836 -3.23576e-20 3.56182)
(11.0431 -4.35106e-21 3.8141)
(11.2241 -4.21383e-20 4.06874)
(10.8804 0 3.18005)
(11.0296 -4.34568e-21 3.4063)
(11.1974 4.25342e-21 3.63418)
(11.3848 -2.73616e-20 3.86183)
(11.3284 0 3.44402)
(11.5191 0 3.64632)
)
;

boundaryField
{
    inlet
    {
        type            fixedValue;
        value           uniform (10 0 0);
    }
    outlet
    {
        type            zeroGradient;
    }
    flap
    {
        type            movingWallVelocity;
        value           nonuniform 0();
    }
    upperWall
    {
        type            noSlip;
    }
    lowerWall
    {
        type            noSlip;
    }
    frontAndBack
    {
        type            empty;
    }
    procBoundary3to0
    {
        type            processor;
        value           nonuniform List<vector> 
34
(
(9.98854 2.06975e-20 0.136824)
(9.97734 3.3514e-22 0.266127)
(9.97734 3.3514e-22 0.266127)
(9.96138 0 0.408685)
(9.96138 0 0.408685)
(9.94082 -8.25874e-23 0.561076)
(9.94082 -8.25874e-23 0.561076)
(9.92265 -2.11238e-20 0.723364)
(9.92265 -2.11238e-20 0.723364)
(9.91258 -1.96283e-20 0.894755)
(9.91258 -1.96283e-20 0.894755)
(9.91467 2.56437e-21 1.07375)
(9.91467 2.56437e-21 1.07375)
(9.93262 4.72171e-21 1.25808)
(9.92149 0 1.44126)
(9.92149 0 1.44126)
(9.97179 1.12629e-22 1.63632)
(9.97179 1.12629e-22 1.63632)
(10.0477 9.65417e-21 1.82757)
(10.0712 0 2.03656)
(10.0712 0 2.03656)
(10.1951 -9.96857e-21 2.22166)
(10.2486 -2.94501e-20 2.44407)
(10.2486 -2.94501e-20 2.44407)
(10.4264 1.84016e-20 2.60719)
(10.4264 1.84016e-20 2.60719)
(10.6318 8.67525e-21 2.73828)
(10.7482 -3.45152e-20 2.95697)
(10.7482 -3.45152e-20 2.95697)
(10.9993 0 3.03449)
(11.1554 -1.36864e-22 3.23947)
(11.1554 -1.36864e-22 3.23947)
(11.4372 -3.40606e-20 3.24631)
(11.6285 -1.77592e-21 3.42508)
)
;
    }
    procBoundary3to1
    {
        type            processor;
        value           nonuniform List<vector> 9((9.75146 1.31631e-22 5.36959) (10.1118 1.15564e-20 5.2664) (10.442 -1.01373e-20 5.12667) (10.7393 2.4735e-20 4.95679) (11.0027 -4.86134e-21 4.76278) (11.2321 -3.639e-20 4.55007) (11.4283 -3.81694e-20 4.32346) (11.593 -2.99919e-20 4.08705) (11.728 3.20895e-20 3.84434));
    }
    procBoundary3to4
    {
        type            processor;
        value           nonuniform List<vector> 
19
(
(3.59464 -2.95973e-20 0.282432)
(4.47717 -8.85484e-20 0.708492)
(4.92763 3.55092e-22 1.16469)
(5.19343 5.70946e-20 1.58261)
(5.37651 4.49347e-19 1.97621)
(5.52744 5.39515e-20 2.35498)
(5.67341 -1.05816e-19 2.72401)
(5.83025 2.64456e-20 3.08554)
(6.008 2.51868e-20 3.43928)
(6.21342 -3.88152e-19 3.78262)
(6.45105 -1.84464e-19 4.11114)
(6.72343 1.78995e-19 4.41879)
(7.03065 0 4.69832)
(7.37 0 4.94194)
(7.73563 9.86119e-22 5.14187)
(8.13249 4.9678e-20 5.29592)
(8.54488 8.24565e-21 5.39589)
(8.95992 -2.9362e-20 5.44)
(9.3653 6.93784e-20 5.42961)
)
;
    }
}


// ************************************************************************* //
