/*--------------------------------*- C++ -*----------------------------------*\
| =========                 |                                                 |
| \\      /  F ield         | OpenFOAM: The Open Source CFD Toolbox           |
|  \\    /   O peration     | Version:  dev                                   |
|   \\  /    A nd           | Web:      www.OpenFOAM.org                      |
|    \\/     M anipulation  |                                                 |
\*---------------------------------------------------------------------------*/
FoamFile
{
    version     2.0;
    format      ascii;
    class       pointVectorField;
    location    "1.71";
    object      pointDisplacement;
}
// * * * * * * * * * * * * * * * * * * * * * * * * * * * * * * * * * * * * * //

dimensions      [0 1 0 0 0 0 0];

internalField   nonuniform List<vector> 
1062
(
(0.074853 0 0)
(0.0663353 0 0)
(0.0574639 0 0)
(0.04836 0 0)
(0.0391769 0 0)
(0.0301254 0 0)
(0.0215388 0 0)
(0.0139677 0 0)
(0.00856653 0 0)
(1.37646e-09 0 0)
(0.0758339 0 -0.00104742)
(0.0674737 0 -0.000724076)
(0.0587927 0 -0.000321979)
(0.0499235 0 0.000170554)
(0.041034 0 0.000765752)
(0.0323446 0 0.00147636)
(0.0241959 0 0.00231184)
(0.0171836 0 0.00326383)
(0.0126047 0 0.00422854)
(0.00538581 0 0.00560607)
(0.0787531 0 -0.00220072)
(0.0708546 0 -0.0015828)
(0.0627263 0 -0.00081545)
(0.0545296 0 0.00012222)
(0.0464821 0 0.00125006)
(0.038865 0 0.00258415)
(0.0320664 0 0.00412653)
(0.0267225 0 0.0058404)
(0.0244416 0 0.00746316)
(0.0189462 0 0.00988979)
(0.0835723 0 -0.00356151)
(0.0764319 0 -0.00270609)
(0.0692068 0 -0.00164738)
(0.0620955 0 -0.000360464)
(0.0553736 0 0.0011741)
(0.0494326 0 0.00295879)
(0.0448292 0 0.00495791)
(0.0422867 0 0.00707206)
(0.0435696 0 0.00882005)
(0.0407462 0 0.0117561)
(0.0902215 0 -0.00522232)
(0.0841155 0 -0.00421084)
(0.0781183 0 -0.0029657)
(0.0724905 0 -0.00146932)
(0.0675703 0 0.000284747)
(0.0638336 0 0.00227534)
(0.0620391 0 0.00440328)
(0.0632381 0 0.00643045)
(0.0692281 0 0.00761382)
(0.0697228 0 0.010462)
(0.0986044 0 -0.00726343)
(0.093789 0 -0.006199)
(0.0893172 0 -0.00489939)
(0.085511 0 -0.00336173)
(0.0828058 0 -0.00161087)
(0.0817952 0 0.000282746)
(0.0833318 0 0.00214905)
(0.0888486 0 0.00355513)
(0.100401 0 0.00343562)
(0.104801 0 0.0055834)
(0.108602 0 -0.00974976)
(0.105306 0 -0.0087501)
(0.102631 0 -0.00754815)
(0.100951 0 -0.00616329)
(0.100796 0 -0.00466113)
(0.102916 0 -0.00318797)
(0.108322 0 -0.00202439)
(0.118608 0 -0.00178329)
(0.136202 0 -0.00389349)
(0.144891 0 -0.00304682)
(0.120072 0 -0.0127281)
(0.118489 0 -0.0119201)
(0.117834 0 -0.0109764)
(0.118543 0 -0.0099486)
(0.121254 0 -0.00895965)
(0.126825 0 -0.00823388)
(0.136511 0 -0.0082035)
(0.151966 0 -0.00965729)
(0.175855 0 -0.0143599)
(0.188892 0 -0.0153489)
(0.13284 0 -0.0162215)
(0.133149 0 -0.01574)
(0.134706 0 -0.0152208)
(0.138023 0 -0.0147574)
(0.143835 0 -0.0145355)
(0.153141 0 -0.01488)
(0.167337 0 -0.0163646)
(0.188252 0 -0.0199897)
(0.218586 0 -0.0277732)
(0.23578 0 -0.0309285)
(0.146724 0 -0.0202354)
(0.149064 0 -0.0202123)
(0.15299 0 -0.0202795)
(0.159103 0 -0.0205848)
(0.168206 0 -0.0213746)
(0.181446 0 -0.0230848)
(0.200326 0 -0.0264255)
(0.226979 0 -0.032647)
(0.263692 0 -0.0438203)
(0.284697 0 -0.0492643)
(0.161534 0 -0.0247566)
(0.166001 0 -0.0253137)
(0.1724 0 -0.0261163)
(0.18142 0 -0.0273694)
(0.19397 0 -0.0293997)
(0.211293 0 -0.0327396)
(0.235104 0 -0.0382682)
(0.267802 0 -0.0474677)
(0.31053 0 -0.0621209)
(0.334958 0 -0.0698065)
(0.177052 0 -0.0297474)
(0.183698 0 -0.0309928)
(0.192627 0 -0.0326617)
(0.204611 0 -0.0350201)
(0.22068 0 -0.0384803)
(0.242249 0 -0.0437005)
(0.271336 0 -0.0517564)
(0.31025 0 -0.0642173)
(0.358407 0 -0.0822478)
(0.386082 0 -0.0919876)
(0.193045 0 -0.035149)
(0.201872 0 -0.0371712)
(0.21333 0 -0.0398121)
(0.228279 0 -0.0434033)
(0.24788 0 -0.0484495)
(0.273802 0 -0.0557613)
(0.308276 0 -0.0665756)
(0.35318 0 -0.0823828)
(0.406018 0 -0.103536)
(0.437709 0 -0.115331)
(0.209271 0 -0.040886)
(0.220239 0 -0.0437522)
(0.234152 0 -0.0474363)
(0.251963 0 -0.0523388)
(0.274981 0 -0.0590646)
(0.305024 0 -0.0685382)
(0.344395 0 -0.0821007)
(0.394499 0 -0.101086)
(0.451044 0 -0.124983)
(0.489561 0 -0.139443)
(0.225478 0 -0.046864)
(0.238485 0 -0.0506106)
(0.254697 0 -0.0553668)
(0.275133 0 -0.0615935)
(0.301163 0 -0.0699655)
(0.334639 0 -0.0814856)
(0.377776 0 -0.0975387)
(0.431359 0 -0.119222)
(0.490184 0 -0.145428)
(0.541409 0 -0.163946)
(0.24155 0 -0.0530297)
(0.256424 0 -0.0576579)
(0.274691 0 -0.0634701)
(0.297354 0 -0.0709562)
(0.325743 0 -0.0808261)
(0.361587 0 -0.0941105)
(0.406574 0 -0.112098)
(0.460379 0 -0.135672)
(0.517138 0 -0.16404)
(0.593275 0 -0.188618)
(0.074853 0 0)
(0.0663353 0 0)
(0.0574639 0 0)
(0.04836 0 0)
(0.0391769 0 0)
(0.0301254 0 0)
(0.0215388 0 0)
(0.0139677 0 0)
(0.00856653 0 0)
(0 0 0)
(0.0758339 0 -0.00104742)
(0.0674737 0 -0.000724076)
(0.0587927 0 -0.000321979)
(0.0499235 0 0.000170554)
(0.041034 0 0.000765752)
(0.0323446 0 0.00147636)
(0.0241959 0 0.00231184)
(0.0171836 0 0.00326383)
(0.0126047 0 0.00422854)
(0.00538581 0 0.00560607)
(0.0787531 0 -0.00220072)
(0.0708546 0 -0.0015828)
(0.0627263 0 -0.00081545)
(0.0545296 0 0.00012222)
(0.0464821 0 0.00125006)
(0.038865 0 0.00258415)
(0.0320664 0 0.00412653)
(0.0267225 0 0.0058404)
(0.0244416 0 0.00746316)
(0.0189462 0 0.00988979)
(0.0835723 0 -0.00356151)
(0.0764319 0 -0.00270609)
(0.0692068 0 -0.00164738)
(0.0620955 0 -0.000360464)
(0.0553736 0 0.0011741)
(0.0494326 0 0.00295879)
(0.0448292 0 0.00495791)
(0.0422867 0 0.00707206)
(0.0435696 0 0.00882005)
(0.0407462 0 0.0117561)
(0.0902215 0 -0.00522232)
(0.0841155 0 -0.00421084)
(0.0781183 0 -0.0029657)
(0.0724905 0 -0.00146932)
(0.0675703 0 0.000284747)
(0.0638336 0 0.00227534)
(0.0620391 0 0.00440328)
(0.0632381 0 0.00643045)
(0.0692281 0 0.00761382)
(0.0697228 0 0.010462)
(0.0986044 0 -0.00726343)
(0.093789 0 -0.006199)
(0.0893172 0 -0.00489939)
(0.085511 0 -0.00336173)
(0.0828058 0 -0.00161087)
(0.0817952 0 0.000282746)
(0.0833318 0 0.00214905)
(0.0888486 0 0.00355513)
(0.100401 0 0.00343562)
(0.104801 0 0.0055834)
(0.108602 0 -0.00974976)
(0.105306 0 -0.0087501)
(0.102631 0 -0.00754815)
(0.100951 0 -0.00616329)
(0.100796 0 -0.00466113)
(0.102916 0 -0.00318797)
(0.108322 0 -0.00202439)
(0.118608 0 -0.00178329)
(0.136202 0 -0.00389349)
(0.144891 0 -0.00304682)
(0.120072 0 -0.0127281)
(0.118489 0 -0.0119201)
(0.117834 0 -0.0109764)
(0.118543 0 -0.0099486)
(0.121254 0 -0.00895965)
(0.126825 0 -0.00823388)
(0.136511 0 -0.0082035)
(0.151966 0 -0.00965729)
(0.175855 0 -0.0143599)
(0.188892 0 -0.0153489)
(0.13284 0 -0.0162215)
(0.133149 0 -0.01574)
(0.134706 0 -0.0152208)
(0.138023 0 -0.0147574)
(0.143835 0 -0.0145355)
(0.153141 0 -0.01488)
(0.167337 0 -0.0163646)
(0.188252 0 -0.0199897)
(0.218586 0 -0.0277732)
(0.23578 0 -0.0309285)
(0.146724 0 -0.0202354)
(0.149064 0 -0.0202123)
(0.15299 0 -0.0202795)
(0.159103 0 -0.0205848)
(0.168206 0 -0.0213746)
(0.181446 0 -0.0230848)
(0.200326 0 -0.0264255)
(0.226979 0 -0.032647)
(0.263692 0 -0.0438203)
(0.284697 0 -0.0492643)
(0.161534 0 -0.0247566)
(0.166001 0 -0.0253137)
(0.1724 0 -0.0261163)
(0.18142 0 -0.0273694)
(0.19397 0 -0.0293997)
(0.211293 0 -0.0327396)
(0.235104 0 -0.0382682)
(0.267802 0 -0.0474677)
(0.31053 0 -0.0621209)
(0.334958 0 -0.0698065)
(0.177052 0 -0.0297474)
(0.183698 0 -0.0309928)
(0.192627 0 -0.0326617)
(0.204611 0 -0.0350201)
(0.22068 0 -0.0384803)
(0.242249 0 -0.0437005)
(0.271336 0 -0.0517564)
(0.31025 0 -0.0642173)
(0.358407 0 -0.0822478)
(0.386082 0 -0.0919876)
(0.193045 0 -0.035149)
(0.201872 0 -0.0371712)
(0.21333 0 -0.0398121)
(0.228279 0 -0.0434033)
(0.24788 0 -0.0484495)
(0.273802 0 -0.0557613)
(0.308276 0 -0.0665756)
(0.35318 0 -0.0823828)
(0.406018 0 -0.103536)
(0.437709 0 -0.115331)
(0.209271 0 -0.040886)
(0.220239 0 -0.0437522)
(0.234152 0 -0.0474363)
(0.251963 0 -0.0523388)
(0.274981 0 -0.0590646)
(0.305024 0 -0.0685382)
(0.344395 0 -0.0821007)
(0.394499 0 -0.101086)
(0.451044 0 -0.124983)
(0.489561 0 -0.139443)
(0.225478 0 -0.046864)
(0.238485 0 -0.0506106)
(0.254697 0 -0.0553668)
(0.275133 0 -0.0615935)
(0.301163 0 -0.0699655)
(0.334639 0 -0.0814856)
(0.377776 0 -0.0975387)
(0.431359 0 -0.119222)
(0.490184 0 -0.145428)
(0.541409 0 -0.163946)
(0.24155 0 -0.0530297)
(0.256424 0 -0.0576579)
(0.274691 0 -0.0634701)
(0.297354 0 -0.0709562)
(0.325743 0 -0.0808261)
(0.361587 0 -0.0941105)
(0.406574 0 -0.112098)
(0.460379 0 -0.135672)
(0.517138 0 -0.16404)
(0.593275 0 -0.188618)
(0 0 0)
(0.0179406 0 0)
(0.0452882 0 0)
(0.101073 0 0)
(0.180275 0 0)
(0.257696 0 0)
(0.315076 0 0)
(0.353082 0 0)
(0.377868 0 0)
(0.393935 0 0)
(0.403958 0 0)
(0.0045611 0 -0.0069097)
(0.0221231 0 -0.00879577)
(0.0504389 0 -0.0120402)
(0.106737 0 -0.0166333)
(0.185234 0 -0.0211647)
(0.261149 0 -0.0238037)
(0.317332 0 -0.0245123)
(0.35464 0 -0.0242361)
(0.378997 0 -0.0234387)
(0.394784 0 -0.0223338)
(0.404617 0 -0.0210281)
(0.0158597 0 -0.0145317)
(0.0344278 0 -0.018342)
(0.0655453 0 -0.0248869)
(0.123268 0 -0.0337575)
(0.199718 0 -0.0420563)
(0.271384 0 -0.0467069)
(0.324115 0 -0.047966)
(0.359319 0 -0.0473845)
(0.382386 0 -0.0457927)
(0.39733 0 -0.0436195)
(0.406588 0 -0.0411077)
(0.0343157 0 -0.0234578)
(0.0541796 0 -0.0292108)
(0.089366 0 -0.0391195)
(0.148731 0 -0.0517419)
(0.221663 0 -0.0627142)
(0.287098 0 -0.0685761)
(0.3348 0 -0.0700638)
(0.366804 0 -0.0690868)
(0.387853 0 -0.0667287)
(0.401456 0 -0.0635444)
(0.409801 0 -0.05994)
(0.0591334 0 -0.0342466)
(0.0806031 0 -0.0418625)
(0.12048 0 -0.055101)
(0.180972 0 -0.0707386)
(0.248905 0 -0.0831959)
(0.306867 0 -0.0894694)
(0.348605 0 -0.090828)
(0.376661 0 -0.0893185)
(0.395125 0 -0.0861761)
(0.406989 0 -0.0820648)
(0.414137 0 -0.0774941)
(0.0896606 0 -0.0472671)
(0.112856 0 -0.0565866)
(0.157421 0 -0.0729493)
(0.217882 0 -0.0906486)
(0.279495 0 -0.103434)
(0.32936 0 -0.109364)
(0.364688 0 -0.110233)
(0.388351 0 -0.108045)
(0.403853 0 -0.104084)
(0.413705 0 -0.0991346)
(0.419436 0 -0.0937162)
(0.125166 0 -0.0626605)
(0.150072 0 -0.073452)
(0.198681 0 -0.092482)
(0.2575 0 -0.111121)
(0.31179 0 -0.123232)
(0.353378 0 -0.128191)
(0.382184 0 -0.128203)
(0.401287 0 -0.125208)
(0.413662 0 -0.120447)
(0.421346 0 -0.114742)
(0.425506 0 -0.108576)
(0.164889 0 -0.0803264)
(0.191379 0 -0.0923384)
(0.242808 0 -0.113305)
(0.298136 0 -0.131665)
(0.344406 0 -0.14225)
(0.377845 0 -0.145772)
(0.400302 0 -0.144652)
(0.414913 0 -0.140755)
(0.42417 0 -0.135246)
(0.429628 0 -0.128867)
(0.432129 0 -0.122056)
(0.20805 0 -0.100036)
(0.235849 0 -0.112941)
(0.288399 0 -0.134872)
(0.338416 0 -0.151757)
(0.376232 0 -0.160125)
(0.401858 0 -0.161882)
(0.418357 0 -0.159489)
(0.428737 0 -0.15467)
(0.435008 0 -0.148471)
(0.438266 0 -0.141505)
(0.439083 0 -0.134153)
(0.253909 0 -0.121445)
(0.282528 0 -0.134826)
(0.334136 0 -0.156538)
(0.377199 0 -0.170861)
(0.406369 0 -0.176499)
(0.424666 0 -0.176289)
(0.435778 0 -0.172603)
(0.442345 0 -0.16693)
(0.445838 0 -0.16012)
(0.446982 0 -0.152665)
(0.446143 0 -0.144877)
(0.301832 0 -0.14416)
(0.330636 0 -0.157553)
(0.378884 0 -0.177659)
(0.413467 0 -0.18842)
(0.434064 0 -0.191018)
(0.445745 0 -0.188818)
(0.452183 0 -0.183933)
(0.455394 0 -0.177512)
(0.456344 0 -0.170185)
(0.455498 0 -0.162341)
(0.453073 0 -0.154224)
(0.351256 0 -0.167839)
(0.379373 0 -0.180603)
(0.4214 0 -0.197473)
(0.44623 0 -0.203845)
(0.458768 0 -0.203367)
(0.464803 0 -0.199358)
(0.467293 0 -0.193435)
(0.467559 0 -0.186387)
(0.466214 0 -0.178655)
(0.463537 0 -0.170523)
(0.459643 0 -0.162185)
(0.401737 0 -0.192151)
(0.427464 0 -0.203142)
(0.46001 0 -0.214943)
(0.474606 0 -0.21653)
(0.480237 0 -0.2133)
(0.481643 0 -0.207777)
(0.480796 0 -0.201019)
(0.478514 0 -0.193511)
(0.475161 0 -0.185523)
(0.470874 0 -0.177242)
(0.465669 0 -0.168803)
(0.452937 0 -0.2168)
(0.472341 0 -0.223542)
(0.492807 0 -0.228769)
(0.49823 0 -0.225941)
(0.498324 0 -0.220516)
(0.49598 0 -0.213894)
(0.492372 0 -0.206604)
(0.487984 0 -0.198872)
(0.482968 0 -0.19082)
(0.477333 0 -0.182551)
(0.47101 0 -0.174147)
(0.504493 0 -0.24155)
(0.510441 0 -0.23914)
(0.518984 0 -0.237582)
(0.516969 0 -0.231366)
(0.512691 0 -0.22461)
(0.507455 0 -0.217532)
(0.501765 0 -0.21016)
(0.495781 0 -0.202513)
(0.489481 0 -0.194619)
(0.482776 0 -0.186525)
(0.475543 0 -0.178286)
(0.55628 0 -0.266269)
(0.539538 0 -0.240951)
(0.536859 0 -0.237506)
(0.530008 0 -0.231563)
(0.522966 0 -0.225301)
(0.515925 0 -0.218718)
(0.508914 0 -0.211805)
(0.501863 0 -0.204573)
(0.494656 0 -0.197052)
(0.487156 0 -0.189289)
(0.479219 0 -0.181335)
(-1.09675e-09 0 0)
(0.0179406 0 0)
(0.0452882 0 0)
(0.101073 0 0)
(0.180275 0 0)
(0.257696 0 0)
(0.315076 0 0)
(0.353082 0 0)
(0.377868 0 0)
(0.393935 0 0)
(0.403958 0 0)
(0.0045611 0 -0.0069097)
(0.0221231 0 -0.00879577)
(0.0504389 0 -0.0120402)
(0.106737 0 -0.0166333)
(0.185234 0 -0.0211647)
(0.261149 0 -0.0238037)
(0.317332 0 -0.0245123)
(0.35464 0 -0.0242361)
(0.378997 0 -0.0234387)
(0.394784 0 -0.0223338)
(0.404617 0 -0.0210281)
(0.0158597 0 -0.0145317)
(0.0344278 0 -0.018342)
(0.0655453 0 -0.0248869)
(0.123268 0 -0.0337575)
(0.199718 0 -0.0420563)
(0.271384 0 -0.0467069)
(0.324115 0 -0.047966)
(0.359319 0 -0.0473845)
(0.382386 0 -0.0457927)
(0.39733 0 -0.0436195)
(0.406588 0 -0.0411077)
(0.0343157 0 -0.0234578)
(0.0541796 0 -0.0292108)
(0.089366 0 -0.0391195)
(0.148731 0 -0.0517419)
(0.221663 0 -0.0627142)
(0.287098 0 -0.0685761)
(0.3348 0 -0.0700638)
(0.366804 0 -0.0690868)
(0.387853 0 -0.0667287)
(0.401456 0 -0.0635444)
(0.409801 0 -0.05994)
(0.0591334 0 -0.0342466)
(0.0806031 0 -0.0418625)
(0.12048 0 -0.055101)
(0.180972 0 -0.0707386)
(0.248905 0 -0.0831959)
(0.306867 0 -0.0894694)
(0.348605 0 -0.090828)
(0.376661 0 -0.0893185)
(0.395125 0 -0.0861761)
(0.406989 0 -0.0820648)
(0.414137 0 -0.0774941)
(0.0896606 0 -0.0472671)
(0.112856 0 -0.0565866)
(0.157421 0 -0.0729493)
(0.217882 0 -0.0906486)
(0.279495 0 -0.103434)
(0.32936 0 -0.109364)
(0.364688 0 -0.110233)
(0.388351 0 -0.108045)
(0.403853 0 -0.104084)
(0.413705 0 -0.0991346)
(0.419436 0 -0.0937162)
(0.125166 0 -0.0626605)
(0.150072 0 -0.073452)
(0.198681 0 -0.092482)
(0.2575 0 -0.111121)
(0.31179 0 -0.123232)
(0.353378 0 -0.128191)
(0.382184 0 -0.128203)
(0.401287 0 -0.125208)
(0.413662 0 -0.120447)
(0.421346 0 -0.114742)
(0.425506 0 -0.108576)
(0.164889 0 -0.0803264)
(0.191379 0 -0.0923384)
(0.242808 0 -0.113305)
(0.298136 0 -0.131665)
(0.344406 0 -0.14225)
(0.377845 0 -0.145772)
(0.400302 0 -0.144652)
(0.414913 0 -0.140755)
(0.42417 0 -0.135246)
(0.429628 0 -0.128867)
(0.432129 0 -0.122056)
(0.20805 0 -0.100036)
(0.235849 0 -0.112941)
(0.288399 0 -0.134872)
(0.338416 0 -0.151757)
(0.376232 0 -0.160125)
(0.401858 0 -0.161882)
(0.418357 0 -0.159489)
(0.428737 0 -0.15467)
(0.435008 0 -0.148471)
(0.438266 0 -0.141505)
(0.439083 0 -0.134153)
(0.253909 0 -0.121445)
(0.282528 0 -0.134826)
(0.334136 0 -0.156538)
(0.377199 0 -0.170861)
(0.406369 0 -0.176499)
(0.424666 0 -0.176289)
(0.435778 0 -0.172603)
(0.442345 0 -0.16693)
(0.445838 0 -0.16012)
(0.446982 0 -0.152665)
(0.446143 0 -0.144877)
(0.301832 0 -0.14416)
(0.330636 0 -0.157553)
(0.378884 0 -0.177659)
(0.413467 0 -0.18842)
(0.434064 0 -0.191018)
(0.445745 0 -0.188818)
(0.452183 0 -0.183933)
(0.455394 0 -0.177512)
(0.456344 0 -0.170185)
(0.455498 0 -0.162341)
(0.453073 0 -0.154224)
(0.351256 0 -0.167839)
(0.379373 0 -0.180603)
(0.4214 0 -0.197473)
(0.44623 0 -0.203845)
(0.458768 0 -0.203367)
(0.464803 0 -0.199358)
(0.467293 0 -0.193435)
(0.467559 0 -0.186387)
(0.466214 0 -0.178655)
(0.463537 0 -0.170523)
(0.459643 0 -0.162185)
(0.401737 0 -0.192151)
(0.427464 0 -0.203142)
(0.46001 0 -0.214943)
(0.474606 0 -0.21653)
(0.480237 0 -0.2133)
(0.481643 0 -0.207777)
(0.480796 0 -0.201019)
(0.478514 0 -0.193511)
(0.475161 0 -0.185523)
(0.470874 0 -0.177242)
(0.465669 0 -0.168803)
(0.452937 0 -0.2168)
(0.472341 0 -0.223542)
(0.492807 0 -0.228769)
(0.49823 0 -0.225941)
(0.498324 0 -0.220516)
(0.49598 0 -0.213894)
(0.492372 0 -0.206604)
(0.487984 0 -0.198872)
(0.482968 0 -0.19082)
(0.477333 0 -0.182551)
(0.47101 0 -0.174147)
(0.504493 0 -0.24155)
(0.510441 0 -0.23914)
(0.518984 0 -0.237582)
(0.516969 0 -0.231366)
(0.512691 0 -0.22461)
(0.507455 0 -0.217532)
(0.501765 0 -0.21016)
(0.495781 0 -0.202513)
(0.489481 0 -0.194619)
(0.482776 0 -0.186525)
(0.475543 0 -0.178286)
(0.55628 0 -0.266269)
(0.539538 0 -0.240951)
(0.536859 0 -0.237506)
(0.530008 0 -0.231563)
(0.522966 0 -0.225301)
(0.515925 0 -0.218718)
(0.508914 0 -0.211805)
(0.501863 0 -0.204573)
(0.494656 0 -0.197052)
(0.487156 0 -0.189289)
(0.479219 0 -0.181335)
(0.257451 0 -0.0593606)
(0.273965 0 -0.0648409)
(0.293937 0 -0.0716384)
(0.3183 0 -0.0802501)
(0.348221 0 -0.0913674)
(0.384955 0 -0.105891)
(0.429141 0 -0.124752)
(0.478882 0 -0.148227)
(0.526915 0 -0.174656)
(0.559016 0 -0.198535)
(0.2729 0 -0.0657303)
(0.290747 0 -0.0719879)
(0.31199 0 -0.0796446)
(0.337409 0 -0.0891634)
(0.367808 0 -0.101116)
(0.403738 0 -0.116122)
(0.444688 0 -0.134558)
(0.487532 0 -0.155793)
(0.525506 0 -0.177256)
(0.550033 0 -0.194482)
(0.287544 0 -0.0719689)
(0.306365 0 -0.0788894)
(0.328371 0 -0.08722)
(0.354066 0 -0.0973221)
(0.383833 0 -0.109594)
(0.417568 0 -0.124335)
(0.453931 0 -0.141406)
(0.489591 0 -0.159739)
(0.519707 0 -0.177329)
(0.538792 0 -0.191047)
(0.301124 0 -0.0779314)
(0.320522 0 -0.0853647)
(0.342707 0 -0.0941215)
(0.367925 0 -0.104454)
(0.396196 0 -0.116581)
(0.42691 0 -0.130509)
(0.458382 0 -0.145775)
(0.487832 0 -0.161335)
(0.512169 0 -0.175846)
(0.527853 0 -0.187049)
(0.332959 0 -0.0912385)
(0.354791 0 -0.100171)
(0.378969 0 -0.110433)
(0.405193 0 -0.122063)
(0.432561 0 -0.134853)
(0.459471 0 -0.148248)
(0.48393 0 -0.161436)
(0.504053 0 -0.173561)
(0.517392 0 -0.182909)
(0.387365 0 -0.11523)
(0.411244 0 -0.126118)
(0.435301 0 -0.137639)
(0.45827 0 -0.149307)
(0.478836 0 -0.160559)
(0.495829 0 -0.170827)
(0.507415 0 -0.178759)
(0.435827 0 -0.13915)
(0.455539 0 -0.149325)
(0.473072 0 -0.159012)
(0.487668 0 -0.167812)
(0.497865 0 -0.174631)
(0.466907 0 -0.156971)
(0.479613 0 -0.164595)
(0.488665 0 -0.170519)
(0.257451 0 -0.0593606)
(0.273965 0 -0.0648409)
(0.293937 0 -0.0716384)
(0.3183 0 -0.0802501)
(0.348221 0 -0.0913674)
(0.384955 0 -0.105891)
(0.429141 0 -0.124752)
(0.478882 0 -0.148227)
(0.526915 0 -0.174656)
(0.559016 0 -0.198535)
(0.2729 0 -0.0657303)
(0.290747 0 -0.0719879)
(0.31199 0 -0.0796446)
(0.337409 0 -0.0891634)
(0.367808 0 -0.101116)
(0.403738 0 -0.116122)
(0.444688 0 -0.134558)
(0.487532 0 -0.155793)
(0.525506 0 -0.177256)
(0.550033 0 -0.194482)
(0.287544 0 -0.0719689)
(0.306365 0 -0.0788894)
(0.328371 0 -0.08722)
(0.354066 0 -0.0973221)
(0.383833 0 -0.109594)
(0.417568 0 -0.124335)
(0.453931 0 -0.141406)
(0.489591 0 -0.159739)
(0.519707 0 -0.177329)
(0.538792 0 -0.191047)
(0.301124 0 -0.0779314)
(0.320522 0 -0.0853647)
(0.342707 0 -0.0941215)
(0.367925 0 -0.104454)
(0.396196 0 -0.116581)
(0.42691 0 -0.130509)
(0.458382 0 -0.145775)
(0.487832 0 -0.161335)
(0.512169 0 -0.175846)
(0.527853 0 -0.187049)
(0.332959 0 -0.0912385)
(0.354791 0 -0.100171)
(0.378969 0 -0.110433)
(0.405193 0 -0.122063)
(0.432561 0 -0.134853)
(0.459471 0 -0.148248)
(0.48393 0 -0.161436)
(0.504053 0 -0.173561)
(0.517392 0 -0.182909)
(0.387365 0 -0.11523)
(0.411244 0 -0.126118)
(0.435301 0 -0.137639)
(0.45827 0 -0.149307)
(0.478836 0 -0.160559)
(0.495829 0 -0.170827)
(0.507415 0 -0.178759)
(0.435827 0 -0.13915)
(0.455539 0 -0.149325)
(0.473072 0 -0.159012)
(0.487668 0 -0.167812)
(0.497865 0 -0.174631)
(0.466907 0 -0.156971)
(0.479613 0 -0.164595)
(0.488665 0 -0.170519)
(0.581098 0 -0.214552)
(0.568666 0 -0.240415)
(0.568602 0 -0.213958)
(0.566943 0 -0.22294)
(0.56126 0 -0.228959)
(0.559156 0 -0.205483)
(0.560352 0 -0.21259)
(0.558406 0 -0.218248)
(0.546935 0 -0.199425)
(0.549996 0 -0.204904)
(0.550766 0 -0.209986)
(0.535237 0 -0.193847)
(0.538948 0 -0.198415)
(0.541238 0 -0.202933)
(0.524156 0 -0.188616)
(0.528038 0 -0.192549)
(0.531096 0 -0.196585)
(0.513621 0 -0.183648)
(0.517461 0 -0.187085)
(0.520861 0 -0.190705)
(0.50355 0 -0.178874)
(0.507239 0 -0.181902)
(0.51074 0 -0.185157)
(0.493859 0 -0.174231)
(0.497343 0 -0.176914)
(0.5008 0 -0.179842)
(0.484472 0 -0.169663)
(0.487724 0 -0.172048)
(0.491052 0 -0.174684)
(0.581098 0 -0.214552)
(0.568666 0 -0.240415)
(0.568602 0 -0.213958)
(0.566943 0 -0.22294)
(0.56126 0 -0.228959)
(0.559156 0 -0.205483)
(0.560352 0 -0.21259)
(0.558406 0 -0.218248)
(0.546935 0 -0.199425)
(0.549996 0 -0.204904)
(0.550766 0 -0.209986)
(0.535237 0 -0.193847)
(0.538948 0 -0.198415)
(0.541238 0 -0.202933)
(0.524156 0 -0.188616)
(0.528038 0 -0.192549)
(0.531096 0 -0.196585)
(0.513621 0 -0.183648)
(0.517461 0 -0.187085)
(0.520861 0 -0.190705)
(0.50355 0 -0.178874)
(0.507239 0 -0.181902)
(0.51074 0 -0.185157)
(0.493859 0 -0.174231)
(0.497343 0 -0.176914)
(0.5008 0 -0.179842)
(0.484472 0 -0.169663)
(0.487724 0 -0.172048)
(0.491052 0 -0.174684)
(0.553246 0 -0.231702)
(0.545202 0 -0.230968)
(0.537064 0 -0.22781)
(0.529196 0 -0.223278)
(0.521495 0 -0.217857)
(0.513879 0 -0.211795)
(0.506249 0 -0.205231)
(0.498482 0 -0.198261)
(0.490447 0 -0.190961)
(0.553502 0 -0.222536)
(0.546757 0 -0.223882)
(0.539464 0 -0.222657)
(0.531967 0 -0.219691)
(0.524381 0 -0.215506)
(0.516711 0 -0.210426)
(0.50891 0 -0.204662)
(0.500897 0 -0.198355)
(0.492568 0 -0.191613)
(0.54886 0 -0.214556)
(0.544354 0 -0.216894)
(0.538525 0 -0.216927)
(0.531945 0 -0.215203)
(0.524911 0 -0.212129)
(0.517551 0 -0.20801)
(0.509887 0 -0.203071)
(0.501883 0 -0.197472)
(0.493472 0 -0.191339)
(0.541548 0 -0.207415)
(0.53917 0 -0.210242)
(0.534974 0 -0.211058)
(0.529593 0 -0.210238)
(0.523394 0 -0.208077)
(0.516592 0 -0.20482)
(0.509281 0 -0.200662)
(0.50148 0 -0.195761)
(0.493159 0 -0.190247)
(0.532868 0 -0.200849)
(0.532207 0 -0.203892)
(0.529507 0 -0.205209)
(0.525348 0 -0.205035)
(0.520109 0 -0.203592)
(0.514022 0 -0.201065)
(0.507217 0 -0.197608)
(0.49976 0 -0.193362)
(0.491661 0 -0.188446)
(0.523529 0 -0.1947)
(0.524132 0 -0.197791)
(0.522685 0 -0.199416)
(0.519643 0 -0.199709)
(0.515349 0 -0.198821)
(0.510028 0 -0.196892)
(0.503823 0 -0.194045)
(0.496813 0 -0.190392)
(0.489034 0 -0.186036)
(0.513911 0 -0.188863)
(0.515385 0 -0.191898)
(0.514916 0 -0.193692)
(0.512828 0 -0.194311)
(0.509396 0 -0.193849)
(0.504821 0 -0.192405)
(0.499241 0 -0.190075)
(0.492736 0 -0.186946)
(0.485349 0 -0.183103)
(0.50421 0 -0.183258)
(0.506244 0 -0.186173)
(0.506498 0 -0.188038)
(0.505181 0 -0.188871)
(0.502495 0 -0.188728)
(0.498603 0 -0.187672)
(0.493625 0 -0.185773)
(0.487638 0 -0.183099)
(0.480679 0 -0.179713)
(0.494524 0 -0.177817)
(0.496883 0 -0.180574)
(0.497641 0 -0.182439)
(0.496918 0 -0.183404)
(0.494849 0 -0.183491)
(0.491554 0 -0.182739)
(0.487127 0 -0.181194)
(0.481634 0 -0.178905)
(0.475104 0 -0.17592)
(0.484898 0 -0.17248)
(0.48741 0 -0.175059)
(0.488492 0 -0.176876)
(0.488202 0 -0.177907)
(0.486621 0 -0.178154)
(0.483829 0 -0.177635)
(0.479889 0 -0.176377)
(0.47485 0 -0.174413)
(0.46874 0 -0.171778)
(0.479163 0 -0.172372)
(0.47795 0 -0.172721)
(0.475563 0 -0.172376)
(0.472039 0 -0.171347)
(0.46741 0 -0.169655)
(0.461694 0 -0.167324)
(0.466874 0 -0.166968)
(0.463691 0 -0.166118)
(0.459414 0 -0.164648)
(0.454049 0 -0.162574)
(0.450965 0 -0.159405)
(0.445904 0 -0.157546)
(0.553246 0 -0.231702)
(0.545202 0 -0.230968)
(0.537064 0 -0.22781)
(0.529196 0 -0.223278)
(0.521495 0 -0.217857)
(0.513879 0 -0.211795)
(0.506249 0 -0.205231)
(0.498482 0 -0.198261)
(0.490447 0 -0.190961)
(0.553502 0 -0.222536)
(0.546757 0 -0.223882)
(0.539464 0 -0.222657)
(0.531967 0 -0.219691)
(0.524381 0 -0.215506)
(0.516711 0 -0.210426)
(0.50891 0 -0.204662)
(0.500897 0 -0.198355)
(0.492568 0 -0.191613)
(0.54886 0 -0.214556)
(0.544354 0 -0.216894)
(0.538525 0 -0.216927)
(0.531945 0 -0.215203)
(0.524911 0 -0.212129)
(0.517551 0 -0.20801)
(0.509887 0 -0.203071)
(0.501883 0 -0.197472)
(0.493472 0 -0.191339)
(0.541548 0 -0.207415)
(0.53917 0 -0.210242)
(0.534974 0 -0.211058)
(0.529593 0 -0.210238)
(0.523394 0 -0.208077)
(0.516592 0 -0.20482)
(0.509281 0 -0.200662)
(0.50148 0 -0.195761)
(0.493159 0 -0.190247)
(0.532868 0 -0.200849)
(0.532207 0 -0.203892)
(0.529507 0 -0.205209)
(0.525348 0 -0.205035)
(0.520109 0 -0.203592)
(0.514022 0 -0.201065)
(0.507217 0 -0.197608)
(0.49976 0 -0.193362)
(0.491661 0 -0.188446)
(0.523529 0 -0.1947)
(0.524132 0 -0.197791)
(0.522685 0 -0.199416)
(0.519643 0 -0.199709)
(0.515349 0 -0.198821)
(0.510028 0 -0.196892)
(0.503823 0 -0.194045)
(0.496813 0 -0.190392)
(0.489034 0 -0.186036)
(0.513911 0 -0.188863)
(0.515385 0 -0.191898)
(0.514916 0 -0.193692)
(0.512828 0 -0.194311)
(0.509396 0 -0.193849)
(0.504821 0 -0.192405)
(0.499241 0 -0.190075)
(0.492736 0 -0.186946)
(0.485349 0 -0.183103)
(0.50421 0 -0.183258)
(0.506244 0 -0.186173)
(0.506498 0 -0.188038)
(0.505181 0 -0.188871)
(0.502495 0 -0.188728)
(0.498603 0 -0.187672)
(0.493625 0 -0.185773)
(0.487638 0 -0.183099)
(0.480679 0 -0.179713)
(0.494524 0 -0.177817)
(0.496883 0 -0.180574)
(0.497641 0 -0.182439)
(0.496918 0 -0.183404)
(0.494849 0 -0.183491)
(0.491554 0 -0.182739)
(0.487127 0 -0.181194)
(0.481634 0 -0.178905)
(0.475104 0 -0.17592)
(0.484898 0 -0.17248)
(0.48741 0 -0.175059)
(0.488492 0 -0.176876)
(0.488202 0 -0.177907)
(0.486621 0 -0.178154)
(0.483829 0 -0.177635)
(0.479889 0 -0.176377)
(0.47485 0 -0.174413)
(0.46874 0 -0.171778)
(0.479163 0 -0.172372)
(0.47795 0 -0.172721)
(0.475563 0 -0.172376)
(0.472039 0 -0.171347)
(0.46741 0 -0.169655)
(0.461694 0 -0.167324)
(0.466874 0 -0.166968)
(0.463691 0 -0.166118)
(0.459414 0 -0.164648)
(0.454049 0 -0.162574)
(0.450965 0 -0.159405)
(0.445904 0 -0.157546)
)
;

boundaryField
{
    inlet
    {
        type            fixedValue;
        value           nonuniform 0();
    }
    outlet
    {
        type            fixedValue;
        value           nonuniform 0();
    }
    flap
    {
        type            fixedValue;
        value           nonuniform List<vector> 
68
(
(1.37646e-09 0 -1.46129e-09)
(0.00538581 0 0.00560607)
(0.00538581 0 0.00560607)
(0 0 -1.01434e-09)
(0.0189462 0 0.00988979)
(0.0189462 0 0.00988979)
(0.0407462 0 0.0117561)
(0.0407462 0 0.0117561)
(0.0697228 0 0.010462)
(0.0697228 0 0.010462)
(0.104801 0 0.0055834)
(0.104801 0 0.0055834)
(0.144891 0 -0.00304682)
(0.144891 0 -0.00304682)
(0.188892 0 -0.0153489)
(0.188892 0 -0.0153489)
(0.23578 0 -0.0309285)
(0.23578 0 -0.0309285)
(0.284697 0 -0.0492643)
(0.284697 0 -0.0492643)
(0.334958 0 -0.0698065)
(0.334958 0 -0.0698065)
(0.386082 0 -0.0919876)
(0.386082 0 -0.0919876)
(0.437709 0 -0.115331)
(0.437709 0 -0.115331)
(0.489561 0 -0.139443)
(0.489561 0 -0.139443)
(0.541409 0 -0.163946)
(0.541409 0 -0.163946)
(0.593275 0 -0.188618)
(0.593275 0 -0.188618)
(0.581098 0 -0.214552)
(0.581098 0 -0.214552)
(0.568666 0 -0.240415)
(0.568666 0 -0.240415)
(0.55628 0 -0.266269)
(0.55628 0 -0.266269)
(0 0 0)
(-1.09675e-09 0 0)
(0.0045611 0 -0.0069097)
(0.0045611 0 -0.0069097)
(0.0158597 0 -0.0145317)
(0.0158597 0 -0.0145317)
(0.0343157 0 -0.0234578)
(0.0343157 0 -0.0234578)
(0.0591334 0 -0.0342466)
(0.0591334 0 -0.0342466)
(0.0896606 0 -0.0472671)
(0.0896606 0 -0.0472671)
(0.125166 0 -0.0626605)
(0.125166 0 -0.0626605)
(0.164889 0 -0.0803264)
(0.164889 0 -0.0803264)
(0.20805 0 -0.100036)
(0.20805 0 -0.100036)
(0.253909 0 -0.121445)
(0.253909 0 -0.121445)
(0.301832 0 -0.14416)
(0.301832 0 -0.14416)
(0.351256 0 -0.167839)
(0.351256 0 -0.167839)
(0.401737 0 -0.192151)
(0.401737 0 -0.192151)
(0.452937 0 -0.2168)
(0.452937 0 -0.2168)
(0.504493 0 -0.24155)
(0.504493 0 -0.24155)
)
;
    }
    upperWall
    {
        type            slip;
    }
    lowerWall
    {
        type            slip;
    }
    frontAndBack
    {
        type            empty;
    }
    procBoundary4to1
    {
        type            processor;
    }
    procBoundary4to2
    {
        type            processor;
    }
    procBoundary4to3
    {
        type            processor;
    }
    procBoundary4to5
    {
        type            processor;
    }
}


// ************************************************************************* //
