/*--------------------------------*- C++ -*----------------------------------*\
| =========                 |                                                 |
| \\      /  F ield         | OpenFOAM: The Open Source CFD Toolbox           |
|  \\    /   O peration     | Version:  dev                                   |
|   \\  /    A nd           | Web:      www.OpenFOAM.org                      |
|    \\/     M anipulation  |                                                 |
\*---------------------------------------------------------------------------*/
FoamFile
{
    version     2.0;
    format      ascii;
    class       surfaceVectorField;
    location    "3.43";
    object      Uf;
}
// * * * * * * * * * * * * * * * * * * * * * * * * * * * * * * * * * * * * * //

dimensions      [0 1 -1 0 0 0 0];

internalField   nonuniform List<vector> 
865
(
(3.22844 0 0.297253)
(3.96917 0 0.482961)
(2.63324 -6.09963e-21 0.317937)
(3.38711 0 0.511058)
(2.02848 -1.86202e-20 0.335526)
(2.7881 1.15551e-20 0.532826)
(1.42529 -1.23755e-20 0.347571)
(2.18129 -1.28162e-20 0.544863)
(0.838061 1.35326e-20 0.3498)
(1.57893 0 0.543218)
(0.283814 -1.11621e-19 0.285176)
(1.00681 -2.56154e-20 0.523932)
(-0.156278 -2.66638e-21 0.00782645)
(0.415095 -9.67913e-20 0.422944)
(-0.277243 8.12e-20 -0.27093)
(0.0292026 1.11924e-19 0.116637)
(0.0731292 -1.54813e-23 -0.27711)
(4.1118 0 0.739483)
(4.63823 -1.51245e-19 0.95559)
(3.52466 1.7931e-20 0.777908)
(4.08107 1.77702e-19 1.01533)
(2.92326 1.75205e-20 0.804227)
(3.50241 2.15675e-19 1.06269)
(2.31934 1.94478e-23 0.811776)
(2.9102 -2.0388e-19 1.09014)
(1.73115 -3.97667e-20 0.789876)
(2.31576 -3.75321e-19 1.08659)
(1.1918 -1.17011e-20 0.707919)
(1.73848 8.11605e-19 1.03223)
(0.719732 2.67927e-20 0.520715)
(1.17613 -4.11338e-19 0.874489)
(0.244736 2.91158e-20 0.0879732)
(0.689148 0 0.572849)
(0.367898 4.87241e-19 -0.0319848)
(4.59416 3.01643e-20 1.21899)
(5.01112 -3.44391e-19 1.39395)
(4.04478 3.7601e-19 1.28732)
(4.49186 5.4908e-19 1.48718)
(3.47543 -1.02431e-20 1.33607)
(3.9472 1.75163e-19 1.56406)
(2.89469 -5.8123e-19 1.35396)
(3.38171 1.99749e-19 1.6137)
(2.31474 4.88714e-19 1.32406)
(2.80168 -7.90831e-19 1.62065)
(1.74919 3.96939e-19 1.21553)
(2.21641 1.23244e-18 1.5621)
(1.19524 -4.34811e-19 0.991649)
(1.6262 -8.57212e-19 1.39971)
(0.643164 4.64114e-19 0.61847)
(1.02258 4.34609e-19 1.09925)
(0.577607 -4.49335e-19 0.588947)
(4.89759 1.84727e-19 1.65956)
(5.25624 -1.93143e-19 1.80201)
(4.3827 3.43672e-19 1.76131)
(4.76815 3.92766e-19 1.92956)
(3.84237 3.85949e-19 1.83985)
(4.25143 -2.28759e-20 2.03972)
(3.27988 -2.08489e-20 1.8812)
(3.70675 7.30679e-19 2.12009)
(2.69881 -2.55433e-20 1.86627)
(3.13482 -8.23261e-19 2.15411)
(2.10015 -4.59575e-20 1.76752)
(2.53628 8.31359e-19 2.12035)
(1.47455 2.29902e-20 1.55708)
(1.90838 -8.30632e-19 1.98961)
(0.797496 -4.64217e-19 1.20511)
(1.21823 -4.22498e-19 1.74219)
(0.641969 -1.29002e-20 1.32583)
(5.11733 2.15808e-20 2.07282)
(5.44712 3.2819e-19 2.18819)
(4.62729 2.10531e-20 2.2095)
(4.98129 -3.58067e-19 2.35093)
(4.10676 3.30788e-19 2.32297)
(4.48383 0 2.49807)
(3.5543 -8.90376e-20 2.39867)
(3.95213 3.72633e-19 2.61714)
(2.96735 5.13846e-20 2.41812)
(3.38268 -1.09491e-18 2.6921)
(2.34048 2.9876e-20 2.35821)
(2.77056 4.44425e-19 2.70361)
(1.66227 -1.27258e-18 2.19821)
(2.11183 -4.16607e-19 2.62796)
(0.913298 1.64785e-20 1.9095)
(1.36354 -1.96467e-20 2.45279)
(0.700155 8.93723e-19 2.12242)
(5.303 -5.96907e-20 2.4686)
(5.62111 3.31819e-19 2.5592)
(4.82969 -3.74868e-19 2.64245)
(5.17124 -7.09486e-19 2.7585)
(4.32134 4.62705e-20 2.79619)
(4.68674 0 2.94618)
(3.77326 -6.49813e-19 2.91589)
(4.16265 -6.24976e-19 3.11057)
(3.17923 -6.85683e-19 2.9845)
(3.59267 -7.39447e-19 3.23674)
(2.53094 -1.27076e-20 2.9819)
(2.96862 7.3172e-19 3.30695)
(1.81774 8.43174e-19 2.89068)
(2.28707 -4.74277e-21 3.29979)
(1.02698 8.25287e-19 2.67983)
(1.50135 4.05127e-20 3.2038)
(0.768895 8.84588e-19 2.95578)
(5.48227 -3.30429e-19 2.85239)
(5.79834 -2.69074e-19 2.91875)
(5.02108 -3.2599e-19 3.06603)
(5.3616 -3.301e-19 3.15639)
(4.52075 -6.78823e-19 3.26496)
(4.88723 4.15589e-20 3.38807)
(3.97445 -7.16441e-19 3.43641)
(4.36856 -6.71696e-19 3.60335)
(3.37382 6.93192e-19 3.56458)
(3.79738 -7.72746e-19 3.78849)
(2.70929 7.29679e-19 3.63062)
(3.16336 7.32314e-19 3.92675)
(1.97136 -8.03833e-19 3.61665)
(2.46384 7.67508e-19 3.99665)
(1.15244 9.13836e-20 3.4863)
(1.65222 -8.21156e-19 3.98317)
(0.85457 8.319e-19 3.81482)
(5.67131 -2.69302e-19 3.22658)
(5.99031 3.02434e-19 3.26774)
(5.22114 4.20718e-20 3.48276)
(5.567 -6.28165e-19 3.54571)
(4.72801 4.0413e-20 3.73132)
(5.10322 -6.1328e-19 3.82478)
(4.18351 -7.29655e-19 3.96081)
(4.59075 1.303e-18 4.09595)
(3.57774 -7.1855e-19 4.15644)
(4.01981 -1.41394e-18 4.34681)
(2.90009 7.66979e-19 4.29927)
(3.37799 -5.1436e-21 4.56111)
(2.14134 7.34526e-19 4.36821)
(2.66222 2.15949e-20 4.71584)
(1.2969 -7.76094e-20 4.31853)
(1.82856 7.19861e-19 4.7891)
(0.960909 -2.67442e-20 4.69907)
(5.88013 -6.71614e-20 3.59089)
(6.20394 1.20955e-18 3.60485)
(5.44284 -1.2839e-18 3.89231)
(5.79689 -1.23924e-18 3.92494)
(4.95911 6.71622e-19 4.19468)
(5.34706 -6.95276e-19 4.25457)
(4.41893 5.88227e-19 4.48805)
(4.84454 6.52465e-19 4.5865)
(3.81062 -6.85339e-19 4.75854)
(4.27764 -6.97009e-19 4.90989)
(3.12181 -7.54203e-19 4.98648)
(3.63126 6.89855e-19 5.20898)
(2.34177 1.42065e-20 5.14573)
(2.89945 -7.45949e-19 5.45873)
(1.46619 7.59227e-19 5.17982)
(2.04163 2.89105e-20 5.62778)
(1.09229 7.734e-19 5.62005)
(6.11516 9.09036e-21 3.94286)
(6.4434 3.06471e-19 3.92701)
(5.69512 -6.43991e-19 4.2918)
(6.05759 -5.59481e-20 4.29037)
(5.22582 -6.99442e-19 4.65188)
(5.62762 5.70648e-19 4.67311)
(4.69528 -6.48946e-19 5.01512)
(5.14193 -1.27701e-18 5.07046)
(4.08918 6.94124e-19 5.36894)
(4.58623 -3.48329e-21 5.47382)
(3.39173 6.82065e-19 5.69308)
(3.94134 6.90298e-19 5.86873)
(2.58769 -7.234e-19 5.95554)
(3.19479 2.07942e-20 6.2289)
(1.66866 6.49667e-20 6.08435)
(2.30704 -7.15295e-19 6.51225)
(1.25688 7.70368e-19 6.60253)
(6.38046 2.36971e-19 4.27823)
(6.71088 -6.07796e-19 4.22973)
(5.98423 1.16689e-18 4.67601)
(6.35308 1.16588e-18 4.63638)
(5.53724 -2.73534e-20 5.097)
(5.95142 2.57796e-20 5.07349)
(5.02526 -6.17343e-19 5.53618)
(5.49297 -2.66342e-20 5.5399)
(4.43008 0 5.98352)
(4.96034 -5.73715e-19 6.03092)
(3.72981 2.10474e-20 6.41975)
(4.32866 6.22665e-19 6.53558)
(2.89996 2.05465e-20 6.80792)
(3.57424 -2.14595e-20 7.02935)
(1.92033 2.36426e-20 7.05737)
(2.65157 -6.37351e-19 7.46104)
(1.47208 4.37704e-20 7.68875)
(6.67807 3.40714e-19 4.59111)
(7.00668 -5.67363e-19 4.50736)
(6.31431 1.22587e-20 5.0375)
(6.68509 6.10735e-19 4.9555)
(5.90061 2.5986e-20 5.52089)
(6.32263 -5.85954e-19 5.446)
(5.42063 1.19641e-20 6.04098)
(5.90575 5.98825e-19 5.98267)
(4.85151 6.28116e-20 6.59309)
(5.41443 -5.93501e-19 6.56734)
(4.1622 5.72257e-19 7.16312)
(4.81767 6.23255e-19 7.19715)
(3.31175 -6.87248e-19 7.71414)
(4.07574 -2.36415e-20 7.85666)
(2.25362 -6.06205e-19 8.13757)
(3.12445 -6.56391e-19 8.49467)
(1.776 3.79795e-20 8.94622)
(7.00792 -2.84606e-19 4.87429)
(7.32914 7.15225e-21 4.75354)
(6.68693 0 5.36654)
(7.05262 0 5.23875)
(6.32055 0 5.91062)
(6.74201 0 5.77813)
(5.89152 -1.93729e-20 6.51307)
(6.38474 5.36839e-19 6.38145)
(5.37317 -1.89479e-20 7.17903)
(5.9608 -1.11848e-18 7.06006)
(4.72397 1.9211e-20 7.90826)
(5.43602 5.53781e-19 7.82618)
(3.87809 -9.24917e-22 8.67894)
(4.75464 5.4465e-19 8.68827)
(2.73544 -2.56814e-21 9.38418)
(3.81978 -1.06158e-18 9.62418)
(2.2558 5.18594e-19 10.4927)
(7.36738 2.91934e-19 5.11981)
(7.6743 2.88255e-19 4.96183)
(7.1001 0 5.65154)
(7.45125 5.10451e-19 5.47656)
(6.79718 5.42656e-19 6.24932)
(7.20522 -3.51778e-21 6.05532)
(6.44339 -5.76765e-19 6.92798)
(6.92748 2.79e-19 6.71382)
(6.01268 -5.307e-19 7.70725)
(6.60347 -1.34458e-18 7.47428)
(5.45837 1.07934e-18 8.61359)
(6.20618 7.97919e-19 8.37008)
(4.68963 -5.4059e-19 9.67626)
(5.68256 5.25203e-19 9.45458)
(3.51608 -4.39359e-19 10.8926)
(4.9278 -6.64997e-19 10.8056)
(3.11742 1.58664e-19 12.5571)
(7.75076 5.08175e-19 5.31973)
(8.039 2.16903e-19 5.1268)
(7.54703 5.03135e-19 5.88028)
(7.8764 2.86481e-19 5.66034)
(7.32329 -2.62382e-19 6.51753)
(7.70579 -3.58575e-21 6.26351)
(7.07102 -5.02964e-19 7.25375)
(7.52553 -4.88432e-19 6.95556)
(6.77439 -3.95739e-23 8.12352)
(7.33366 -2.49535e-20 7.76609)
(6.40141 2.41317e-19 9.18675)
(7.12834 2.22877e-19 8.7449)
(5.87568 3.78462e-19 10.5672)
(6.91532 0 9.9907)
(4.96669 -1.83783e-19 12.7929)
(6.89779 4.12939e-19 11.7507)
(6.0795 -5.87545e-19 15.6221)
(0.187189 -1.24719e-21 -0.0999872)
(0.101041 -1.64823e-22 -0.178106)
(0.387677 1.55814e-21 -0.102362)
(0.295007 -1.22183e-21 -0.185741)
(0.563213 1.45711e-21 -0.0854218)
(0.474685 2.32492e-21 -0.157263)
(0.702077 -1.24442e-21 -0.0633832)
(0.630436 -2.10133e-21 -0.120718)
(0.802987 -1.15238e-21 -0.042056)
(0.7522 1.4124e-21 -0.085345)
(0.868582 -4.88524e-22 -0.0235451)
(0.838769 -4.8849e-22 -0.0540875)
(0.903433 -4.62073e-23 -0.00856177)
(0.893783 1.86806e-23 -0.0280562)
(0.91325 0 0.00258803)
(0.92274 0 -0.00770084)
(0.904642 0 0.00988113)
(0.931697 -5.67119e-22 0.00669415)
(0.925308 1.07399e-21 0.0155987)
(0.198141 -1.28282e-22 -0.27915)
(0.0717265 1.80503e-22 -0.373435)
(0.391281 4.51976e-24 -0.259967)
(0.278371 2.10313e-22 -0.364497)
(0.557865 -2.02953e-21 -0.212706)
(0.442404 8.94976e-21 -0.30584)
(0.69172 8.34111e-22 -0.159952)
(0.581689 -6.22842e-21 -0.236351)
(0.792832 1.94004e-21 -0.110867)
(0.690122 1.96463e-21 -0.170237)
(0.864359 -5.75748e-24 -0.0688747)
(0.768453 -8.60774e-23 -0.112598)
(0.911168 4.62266e-23 -0.0350151)
(0.820604 4.57081e-23 -0.0654352)
(0.938238 -5.61003e-22 -0.00920132)
(0.851919 -1.57595e-22 -0.0288247)
(0.949469 3.61904e-22 0.0090032)
(0.867767 -5.66965e-22 -0.00185527)
(0.870495 1.07372e-21 0.0164337)
(0.165432 5.30657e-21 -0.463558)
(0.0154867 2.04804e-22 -0.548374)
(0.337562 1.05821e-20 -0.417682)
(0.227257 -9.36703e-21 -0.522838)
(0.478882 2.65745e-21 -0.337525)
(0.358784 1.35086e-20 -0.430288)
(0.588618 -4.26202e-21 -0.254286)
(0.468075 -4.20421e-21 -0.329588)
(0.669445 -4.70853e-23 -0.178643)
(0.550113 0 -0.236793)
(0.724598 -4.82463e-23 -0.114611)
(0.607205 3.07675e-21 -0.156722)
(0.759197 -1.55811e-22 -0.0636102)
(0.642635 -2.40107e-22 -0.0923854)
(0.778246 -1.59252e-22 -0.025092)
(0.661814 -1.25751e-22 -0.0432834)
(0.785635 0 0.00257312)
(0.668373 -4.57205e-21 -0.00728114)
(0.661819 3.17264e-21 0.0179427)
(0.114791 -1.84847e-20 -0.617663)
(-0.0469523 -5.06695e-23 -0.687022)
(0.253031 -4.52871e-21 -0.546897)
(0.156185 -9.54626e-21 -0.64811)
(0.359155 4.59015e-21 -0.434567)
(0.241222 1.28186e-20 -0.520893)
(0.436775 0 -0.324393)
(0.310955 -8.07737e-21 -0.39291)
(0.490998 3.03654e-21 -0.226986)
(0.358278 0 -0.279286)
(0.524448 3.04494e-21 -0.145746)
(0.387531 5.82819e-21 -0.181805)
(0.542179 3.56468e-22 -0.0816496)
(0.399578 -3.12392e-21 -0.104987)
(0.548059 -3.79205e-21 -0.0333384)
(0.401517 -3.83182e-23 -0.0469071)
(0.540988 -2.1789e-21 0.00175892)
(0.380417 -4.71025e-21 -0.00130029)
(0.349618 1.16054e-21 0.0318201)
(0.0555274 8.21798e-23 -0.730827)
(-0.106749 -1.05287e-20 -0.781574)
(0.145063 8.1659e-21 -0.635676)
(0.069118 7.65573e-23 -0.725947)
(0.203723 -3.41888e-21 -0.494491)
(0.0953846 8.29237e-21 -0.566062)
(0.239125 -8.18117e-21 -0.363465)
(0.115342 -8.01026e-21 -0.417211)
(0.257512 2.72002e-21 -0.250044)
(0.117673 6.71942e-21 -0.289691)
(0.260739 4.11693e-22 -0.156925)
(0.108527 -3.64362e-21 -0.180686)
(0.253659 -2.91478e-21 -0.0836695)
(0.0823141 -2.0031e-22 -0.0967466)
(0.227474 -1.39472e-22 -0.0222391)
(0.0382313 -2.62152e-21 -0.024452)
(0.184273 -2.13089e-21 0.0264589)
(-0.00877739 4.63836e-24 0.0332445)
(-0.0567443 -2.00888e-21 0.0677479)
(-0.0097913 -1.06188e-20 -0.792587)
(-0.161106 -2.12055e-20 -0.825682)
(0.0176067 7.76882e-23 -0.669047)
(-0.0329269 1.03444e-20 -0.743138)
(0.0182741 6.20524e-23 -0.501785)
(-0.07222 3.72481e-23 -0.555914)
(0.000917378 6.69572e-21 -0.353557)
(-0.111224 7.91132e-21 -0.393053)
(-0.0303006 8.19596e-22 -0.223735)
(-0.163968 -7.47582e-22 -0.255901)
(-0.075105 -3.79497e-21 -0.11389)
(-0.22333 -6.3691e-21 -0.138036)
(-0.138817 1.09188e-21 -0.0274127)
(-0.29285 2.31384e-21 -0.0413308)
(-0.204383 -2.50884e-21 0.03495)
(-0.365182 -1.84466e-22 0.0297441)
(-0.256243 1.42867e-22 0.0739842)
(-0.418106 -4.41725e-21 0.0743863)
(-0.468214 4.10183e-21 0.10447)
(-0.0808608 3.83835e-20 -0.788439)
(-0.209819 -1.06115e-20 -0.810555)
(-0.125152 1.04523e-20 -0.630285)
(-0.147107 1.02921e-20 -0.689895)
(-0.190035 7.75166e-21 -0.441013)
(-0.248964 -9.45981e-21 -0.483464)
(-0.269443 -1.08413e-21 -0.281405)
(-0.347583 8.65723e-21 -0.312305)
(-0.358198 -7.54454e-21 -0.150775)
(-0.450789 8.12533e-21 -0.171671)
(-0.446525 -3.60634e-22 -0.0481961)
(-0.552075 -7.21917e-21 -0.0584817)
(-0.522764 2.0379e-21 0.026353)
(-0.640557 -1.40127e-22 0.024446)
(-0.582697 -1.36761e-21 0.0765638)
(-0.70776 2.75827e-21 0.0794353)
(-0.635548 -1.30466e-21 0.110516)
(-0.765101 -4.55424e-21 0.116485)
(-0.816253 4.09838e-21 0.141355)
(-0.15687 6.69778e-23 -0.711396)
(-0.256582 1.27346e-20 -0.724412)
(-0.271206 -9.37069e-21 -0.527789)
(-0.261519 -1.23489e-20 -0.56799)
(-0.395853 -5.98444e-21 -0.335071)
(-0.416985 -1.98172e-20 -0.355021)
(-0.523717 1.70948e-20 -0.181411)
(-0.566129 1.05981e-20 -0.187846)
(-0.645782 8.98019e-21 -0.0619887)
(-0.706547 2.31613e-20 -0.0583042)
(-0.748197 -6.93459e-21 0.0249087)
(-0.823745 -1.43726e-20 0.0329557)
(-0.827864 6.91314e-22 0.0836083)
(-0.915648 7.49228e-22 0.0929201)
(-0.893088 3.29586e-22 0.123394)
(-0.989893 -2.58505e-22 0.133398)
(-0.948772 0 0.150074)
(-1.05238 -2.82579e-22 0.160901)
(-1.10452 1.90784e-21 0.177823)
(-0.222987 -5.0838e-20 -0.57113)
(-0.304389 1.26916e-20 -0.567518)
(-0.400272 -2.27101e-20 -0.374633)
(-0.369363 -1.24969e-20 -0.384781)
(-0.577615 1.77479e-21 -0.190034)
(-0.573787 1.21797e-21 -0.177782)
(-0.745178 1.75683e-20 -0.0509697)
(-0.763613 -9.85644e-21 -0.0279167)
(-0.884259 1.03071e-21 0.0452684)
(-0.921652 1.71357e-20 0.0693064)
(-0.992534 -6.85658e-21 0.106286)
(-1.04652 -6.34987e-22 0.128556)
(-1.07974 -2.58508e-22 0.146993)
(-1.1471 -6.62393e-21 0.167244)
(-1.15144 -9.4105e-22 0.174114)
(-1.22905 -4.97929e-21 0.192448)
(-1.21005 1.59987e-21 0.190806)
(-1.29544 4.78147e-21 0.207575)
(-1.3493 1.90635e-21 0.214744)
(-0.276115 -1.06862e-22 -0.374532)
(-0.355684 0 -0.342504)
(-0.523904 1.12696e-20 -0.16998)
(-0.481974 1.53082e-22 -0.133401)
(-0.750764 -9.78811e-21 -0.00107516)
(-0.72292 1.1319e-20 0.0448659)
(-0.937566 -1.03422e-20 0.101205)
(-0.937877 -2.05382e-20 0.147518)
(-1.08396 1.57767e-20 0.158534)
(-1.10714 9.33313e-21 0.201449)
(-1.20262 3.95338e-22 0.194342)
(-1.24412 6.86068e-21 0.232144)
(-1.29823 -1.13868e-20 0.216095)
(-1.35341 -7.45273e-21 0.248086)
(-1.37476 -1.00503e-22 0.228195)
(-1.44011 -4.56952e-21 0.255144)
(-1.43614 5.15273e-21 0.233134)
(-1.50924 7.11166e-21 0.256299)
(-1.56485 -1.97192e-21 0.252836)
(-0.33816 3.39755e-22 -0.105671)
(-0.401775 3.57827e-20 -0.029471)
(-0.64814 -3.04662e-23 0.102942)
(-0.586409 3.52563e-22 0.178397)
(-0.903655 -1.70358e-21 0.208566)
(-0.863356 4.46267e-22 0.289581)
(-1.10586 -1.34521e-21 0.257907)
(-1.1004 -8.80732e-22 0.333733)
(-1.26831 4.5233e-22 0.281342)
(-1.28722 0 0.346262)
(-1.39649 9.10636e-23 0.289546)
(-1.43297 -3.87056e-22 0.342932)
(-1.49694 -7.00993e-22 0.289345)
(-1.54589 -2.05219e-23 0.332358)
(-1.57597 1.66679e-21 0.284667)
(-1.63369 -3.24447e-22 0.31953)
(-1.63904 3.76875e-22 0.277051)
(-1.70329 2.01861e-21 0.3062)
(-1.75964 -1.97077e-21 0.292041)
(-0.399742 3.59719e-20 0.290629)
(-0.434249 3.57584e-20 0.38843)
(-0.766314 5.82968e-22 0.397869)
(-0.682934 -2.35313e-22 0.535093)
(-1.05718 1.50641e-21 0.43316)
(-1.02027 4.62332e-22 0.562451)
(-1.28196 6.84582e-22 0.430626)
(-1.2825 6.77213e-22 0.537792)
(-1.45343 -8.81776e-22 0.412027)
(-1.47683 0 0.497311)
(-1.5843 -5.30589e-22 0.387957)
(-1.62195 -4.61955e-22 0.454978)
(-1.68431 3.80971e-22 0.363629)
(-1.73113 6.9101e-23 0.415625)
(-1.76205 0 0.341597)
(-1.81449 0 0.382529)
(-1.82456 0 0.321651)
(-1.88093 1.63754e-21 0.355529)
(-1.93606 -2.27473e-22 0.331577)
(-0.467205 0 0.714068)
(-0.49664 -1.87453e-20 0.924483)
(-0.917278 -8.2133e-22 0.738487)
(-0.829446 3.95087e-21 0.966171)
(-1.2478 -8.3591e-22 0.683582)
(-1.23531 1.29349e-20 0.867414)
(-1.4805 0 0.610394)
(-1.50306 8.90198e-21 0.745965)
(-1.64735 4.29024e-22 0.541994)
(-1.6841 -8.2009e-21 0.642564)
(-1.77103 1.36218e-22 0.483224)
(-1.81387 4.34253e-22 0.559879)
(-1.8631 -3.11022e-22 0.434313)
(-1.90946 3.87764e-23 0.491683)
(-1.93387 1.61671e-21 0.395894)
(-1.98072 -1.98901e-22 0.439587)
(-1.99241 1.47196e-21 0.36524)
(-2.03882 1.79646e-21 0.401669)
(-2.09009 -2.27424e-22 0.370197)
(-0.613464 6.55956e-20 1.26218)
(-0.669597 -1.86573e-20 1.6812)
(-1.15168 1.07563e-20 1.1405)
(-1.09144 9.26667e-21 1.47574)
(-1.50098 2.27243e-20 0.948339)
(-1.55099 4.92123e-21 1.18497)
(-1.71251 3.9077e-21 0.779408)
(-1.78244 1.1987e-20 0.931661)
(-1.85092 -8.30506e-21 0.656838)
(-1.91001 -7.92729e-21 0.761167)
(-1.9546 3.03221e-22 0.566526)
(-2.00187 1.89151e-21 0.647024)
(-2.0294 1.14741e-22 0.495336)
(-2.07352 -3.07542e-21 0.552855)
(-2.08516 -4.42101e-23 0.443434)
(-2.12321 1.5576e-21 0.484176)
(-2.13513 1.61279e-22 0.405684)
(-2.16597 -6.88863e-23 0.441056)
(-2.2106 0 0.406464)
(-0.926868 5.15653e-21 1.9816)
(-1.95485 -1.07595e-20 2.86531)
(-1.51929 3.40719e-21 1.6224)
(-1.54633 4.13532e-21 2.04121)
(-1.85521 -1.09941e-20 1.19936)
(-2.02731 -1.85151e-20 1.48791)
(-1.98797 3.70882e-21 0.892029)
(-2.13601 2.456e-21 1.04214)
(-2.05079 2.15214e-21 0.732526)
(-2.12626 -1.85602e-21 0.811728)
(-2.12228 -1.17805e-21 0.63218)
(-2.15569 3.27841e-21 0.706766)
(-2.17218 -2.99626e-21 0.542256)
(-2.20827 -3.44818e-21 0.59282)
(-2.20165 1.56267e-21 0.478683)
(-2.22752 1.64713e-21 0.506853)
(-2.23715 -1.61248e-22 0.43965)
(-2.2436 1.05653e-22 0.469019)
(8.16401 -1.38169e-20 5.47118)
(8.42756 2.32999e-19 5.24721)
(8.033 -2.35876e-19 6.04603)
(8.33089 -1.94333e-20 5.78633)
(7.90277 -2.32052e-19 6.70113)
(8.2432 0 6.39418)
(7.77643 -5.15604e-22 7.461)
(8.17138 -3.5024e-19 7.08861)
(7.66079 1.9966e-19 8.36432)
(8.1288 3.37607e-19 7.89575)
(7.57401 -2.60831e-20 9.47685)
(8.14332 -8.72801e-22 8.85457)
(7.58153 2.38252e-20 10.8968)
(8.25815 2.92704e-21 10.018)
(8.10813 -3.63268e-20 13.0939)
(8.88167 1.36597e-19 11.2944)
(9.28972 -6.08054e-20 12.3368)
(11.8141 -3.77443e-20 13.3967)
(8.5905 2.27566e-19 5.56558)
(8.82127 1.06818e-19 5.31682)
(8.53453 2.22107e-19 6.13678)
(8.78942 2.27225e-19 5.84707)
(8.50037 -1.20588e-19 6.78209)
(8.7814 0 6.43832)
(8.50248 -1.19343e-20 7.51988)
(8.80955 -2.05301e-19 7.10205)
(8.56905 1.31845e-19 8.37396)
(8.89408 2.30587e-19 7.85044)
(8.76067 2.82484e-20 9.37268)
(9.07025 4.47969e-21 8.68946)
(9.19597 1.16306e-19 10.5073)
(9.35074 -1.70951e-20 9.61036)
(9.92095 1.12659e-19 11.6941)
(9.95311 6.94368e-20 10.5809)
(10.5748 -5.0389e-20 11.7164)
(10.5263 -8.29496e-20 11.2726)
(9.01656 1.04909e-19 5.60169)
(9.21054 2.18823e-19 5.3353)
(9.03043 0 6.15231)
(9.23773 0 5.84416)
(9.08108 -8.66074e-20 6.76338)
(9.2986 4.71694e-20 6.40235)
(9.18607 3.89753e-20 7.44314)
(9.4062 -6.57889e-20 7.01471)
(9.37121 1.00097e-19 8.1963)
(9.57812 5.60852e-20 7.68395)
(9.66816 -4.67065e-20 9.01765)
(9.84103 -2.19098e-20 8.4078)
(10.102 -9.32743e-20 9.88295)
(10.1948 -2.55932e-20 9.18068)
(10.6493 -1.18203e-19 10.7241)
(10.7329 -6.82659e-20 10.0177)
(11.4858 -8.06484e-20 10.8938)
(11.4275 9.32301e-20 10.9427)
(9.42921 1.11533e-19 5.58209)
(9.5023 4.82858e-20 6.0999)
(9.66326 0 5.78461)
(9.61899 6.89057e-20 6.66253)
(9.77937 2.59289e-20 6.30063)
(9.79367 -4.96325e-20 7.27103)
(9.94536 2.06902e-20 6.8546)
(10.0435 -6.91066e-20 7.92201)
(10.1747 -7.08253e-20 7.44518)
(10.386 0 8.60476)
(10.4868 1.9141e-20 8.068)
(10.8427 0 9.31209)
(10.8888 -1.07248e-21 8.71147)
(11.4565 -2.98187e-20 10.0235)
(11.4183 -3.30037e-20 9.36662)
(12.1927 -2.99175e-20 9.97549)
(12.299 -1.16974e-19 10.4363)
(9.9392 -2.29072e-20 5.99134)
(10.1049 -2.31218e-20 6.50055)
(10.327 -7.3845e-22 7.0383)
(10.4241 -4.26098e-20 6.64111)
(10.6189 1.9621e-20 7.59912)
(10.6911 0 7.15518)
(10.9958 1.81584e-20 8.17227)
(11.0312 3.73006e-20 7.68149)
(11.4756 -3.49415e-20 8.74722)
(11.4534 -3.83995e-20 8.20415)
(12.0806 -3.32842e-20 9.30192)
(11.9649 -3.42875e-20 8.70765)
(12.671 -4.00271e-20 9.16547)
(12.8049 -2.4169e-22 9.65613)
(10.7908 -4.18642e-20 6.7638)
(11.1069 1.81453e-20 7.24238)
(11.495 -2.05398e-20 7.71746)
(11.481 2.09587e-20 7.27184)
(11.9621 -3.71609e-20 8.17405)
(11.8985 -5.24772e-20 7.69704)
(12.5125 -3.91948e-20 8.59293)
(12.3783 4.70957e-21 8.09303)
(13.0054 3.57539e-20 8.44572)
(13.1406 1.15959e-19 8.87339)
(11.8929 -1.18242e-20 7.25783)
(12.3337 -9.05559e-21 7.62262)
(12.8335 7.84887e-20 7.94741)
(12.6928 5.021e-21 7.52127)
(13.2516 6.24178e-20 7.79353)
(13.3891 3.50436e-20 8.17017)
(13.0767 -1.48037e-20 7.36197)
(13.5686 -9.59667e-21 7.53817)
(6.28119 1.99338e-19 11.4586)
(10.085 -5.9923e-20 10.275)
(2.0111 -9.89089e-20 8.14112)
(7.99301 4.95514e-20 8.52386)
(3.73031 -7.39089e-20 6.04785)
(-0.747379 1.67385e-19 4.73062)
(10.0082 -4.40887e-21 10.1176)
(11.0472 2.7931e-20 11.3556)
(9.14137 6.93575e-20 8.69514)
(10.803 1.62821e-20 10.3299)
(9.88486 -3.79514e-20 8.94374)
(7.73868 -1.65142e-20 7.17386)
(11.6918 5.90003e-20 10.6011)
(11.9882 2.06826e-20 10.7798)
(11.6498 -7.5978e-20 9.95159)
(12.2584 2.63752e-21 10.413)
(12.1996 9.22621e-20 9.80407)
(11.2487 -3.03696e-20 8.95777)
(12.6198 -3.8514e-20 10.4047)
(12.6675 -7.35846e-20 10.0603)
(12.8047 1.6209e-19 10.1631)
(13.0288 2.97595e-20 9.99742)
(13.2174 1.16995e-19 9.77556)
(12.8174 1.56224e-19 9.58493)
(13.1346 0 9.70872)
(13.0896 1.02726e-19 9.30494)
(13.4159 -2.27823e-20 9.66489)
(13.4571 0 9.35207)
(13.7287 -1.49474e-20 9.30587)
(13.621 -3.05027e-20 9.39898)
(13.4548 1.03792e-19 8.95036)
(13.3733 9.41391e-20 8.56833)
(13.7566 8.21212e-21 8.98918)
(13.7169 0 8.64325)
(13.9973 -6.31032e-20 8.66805)
(14.0282 1.69526e-20 8.89906)
(13.6709 -1.10379e-20 8.24479)
(13.5752 -1.11856e-20 7.8919)
(13.9533 -7.23423e-20 8.30488)
(13.8828 0 7.9642)
(14.141 2.57753e-21 8.00887)
(14.2273 -7.65879e-20 8.29573)
(13.8171 0 7.60059)
(14.0696 7.66873e-20 7.65721)
(13.9887 -8.85359e-20 7.34256)
(14.2185 1.51242e-19 7.38656)
(14.3223 7.52305e-20 7.67842)
(14.1379 -1.48949e-20 7.06338)
(14.3639 1.05759e-19 7.09252)
(-1.43584 -1.85425e-19 1.82506)
(1.48571 -1.11643e-20 3.65298)
(-2.13236 -5.44962e-22 1.31814)
(1.09731 1.58082e-21 2.7363)
(-2.39189 1.93921e-20 0.949761)
(-0.18165 -3.16108e-22 1.7369)
(-2.27383 -2.67941e-21 0.816797)
(-1.20227 9.96821e-22 0.922699)
(-2.17464 1.60459e-20 0.80064)
(-1.96514 -1.68549e-21 0.716563)
(-2.24547 1.39387e-21 0.710195)
(-2.1943 -7.47598e-22 0.770227)
(-2.28437 -8.37467e-23 0.562575)
(-2.30125 0 0.624081)
(-2.26448 1.83658e-22 0.479852)
(-2.26503 1.79983e-21 0.487201)
(-2.23069 7.20424e-23 0.47775)
(4.91927 2.71178e-21 4.77339)
(8.33333 3.3322e-20 6.615)
(2.81637 1.01274e-21 3.24413)
(6.53193 4.49744e-21 4.91588)
(0.920056 -6.8338e-21 1.96276)
(4.59796 1.69437e-21 3.66676)
(-0.753983 5.17773e-22 1.00486)
(2.69881 4.73808e-22 2.58934)
(-1.8428 -1.35003e-20 0.595548)
(1.03491 -3.40521e-22 1.77712)
(-2.30279 -4.82827e-23 0.453154)
(0.0546679 -3.07742e-22 1.20884)
(-2.3595 2.43015e-22 0.383113)
(-0.637005 3.26625e-22 0.678521)
(-2.19939 -4.29064e-21 0.446664)
(-1.46017 -2.68876e-21 0.345409)
(-1.904 -4.38905e-22 0.467406)
(9.74 3.15682e-20 6.90844)
(11.5855 -2.3278e-21 8.24355)
(8.04885 -3.19869e-21 5.39226)
(10.4483 6.06575e-21 6.70672)
(6.36716 1.06161e-21 4.13609)
(9.01088 1.10557e-21 5.4133)
(4.68599 -1.08233e-21 3.09791)
(7.51559 5.49563e-22 4.2997)
(3.08852 -2.20768e-22 2.25102)
(6.02108 -7.77642e-22 3.3672)
(1.64251 1.31406e-20 1.55744)
(4.60106 1.11669e-22 2.6151)
(0.206993 5.24427e-21 0.917471)
(3.34444 1.82e-21 2.04041)
(-1.02536 -6.43737e-22 0.516159)
(1.82845 -6.82281e-22 1.4875)
(0.737931 -2.61687e-22 1.12325)
(12.2751 -2.8637e-20 8.10506)
(13.1845 -3.72271e-20 8.84799)
(11.3378 8.66217e-21 6.82581)
(12.7139 7.94079e-21 7.72278)
(10.1944 1.24603e-21 5.6728)
(11.9169 0 6.62666)
(8.92317 8.45939e-22 4.65492)
(10.9325 4.00091e-21 5.62001)
(7.59424 -7.93574e-22 3.77065)
(9.83382 -1.49982e-21 4.71736)
(6.27153 -9.03873e-22 3.02754)
(8.67492 7.53486e-22 3.92906)
(5.01321 1.22508e-22 2.40807)
(7.5194 -5.85268e-23 3.26212)
(3.76131 -9.59542e-23 1.88556)
(6.35472 -2.93357e-22 2.67579)
(5.2217 6.22379e-23 2.18427)
(13.6363 -2.21159e-21 8.51478)
(14.0062 8.93104e-21 8.83615)
(13.2913 -2.25576e-21 7.58617)
(13.978 -7.72996e-21 8.10735)
(12.6801 2.21122e-21 6.64722)
(13.6841 -8.54845e-21 7.29067)
(11.8805 1.19625e-21 5.75364)
(13.1714 8.26589e-21 6.46919)
(10.9539 -3.11606e-22 4.93271)
(12.4928 -7.81467e-22 5.67922)
(9.95319 2.82308e-22 4.20302)
(11.6973 3.83615e-22 4.94469)
(8.92463 -7.47093e-22 3.56289)
(10.8313 -8.91477e-22 4.28246)
(7.87899 7.37971e-23 2.99772)
(9.92432 -3.41271e-23 3.68963)
(8.99619 -2.0323e-22 3.16217)
(14.3422 3.46004e-21 8.43965)
(14.4021 4.09412e-20 8.4775)
(14.3881 -1.43453e-20 7.83724)
(14.6285 -4.21414e-20 8.05856)
(14.1945 -3.11411e-21 7.14752)
(14.6769 1.88606e-20 7.50759)
(13.8056 6.22278e-21 6.43276)
(14.5325 5.72088e-21 6.89257)
(13.2632 1.81935e-22 5.73057)
(14.2163 7.90375e-22 6.25549)
(12.6064 -5.0957e-22 5.06632)
(13.7631 4.86574e-21 5.62641)
(11.8719 -1.81741e-22 4.45239)
(13.2075 -2.59323e-21 5.02739)
(11.0865 -3.13881e-22 3.89171)
(12.5783 -2.33449e-23 4.46817)
(11.8974 -2.73593e-22 3.95192)
(14.6674 -3.71249e-21 8.09061)
(14.5692 -1.04602e-20 7.96006)
(14.939 -8.1106e-21 7.73522)
(14.9157 -2.90043e-20 7.7471)
(15.0311 2.82503e-20 7.26889)
(15.1673 2.82839e-20 7.40608)
(14.9554 4.07962e-22 6.7385)
(15.2756 0 6.9787)
(14.7321 5.52999e-21 6.17926)
(15.2352 -1.58874e-21 6.49919)
(14.3854 2.93232e-21 5.61811)
(15.0646 1.09911e-20 5.99525)
(13.9408 -2.47536e-21 5.07363)
(14.7858 -5.98292e-21 5.48892)
(13.4216 9.82809e-23 4.55668)
(14.4195 7.85475e-23 4.99485)
(13.9836 1.83286e-22 4.52204)
(14.7883 -3.60494e-20 7.60761)
(14.6236 -3.7603e-20 7.39818)
(15.1648 8.317e-21 7.41586)
(15.0059 -6.69272e-20 7.30369)
(15.4251 0 7.12152)
(15.3554 3.8958e-20 7.10707)
(15.5609 -2.09238e-21 6.75176)
(15.6135 -1.62985e-20 6.8271)
(15.5751 3.52106e-21 6.33257)
(15.7593 1.33855e-20 6.48556)
(15.4771 2.4105e-21 5.88672)
(15.7973 3.72823e-21 6.10301)
(15.2813 -3.51106e-21 5.4325)
(15.7383 -4.61256e-21 5.69775)
(15.0027 1.89732e-22 4.98318)
(15.5935 0 5.28444)
(15.3746 2.0621e-22 4.87404)
(14.8088 -6.66113e-20 7.08378)
(15.2142 -3.66315e-20 6.98809)
(14.999 -7.70751e-20 6.81439)
(15.5542 2.35451e-20 6.81092)
(15.3783 6.87217e-20 6.70627)
(15.813 -1.12361e-21 6.56436)
(15.7081 -1.69859e-20 6.52932)
(15.9831 1.37698e-20 6.26403)
(15.9621 -1.50444e-20 6.29473)
(16.0638 -3.26947e-21 5.92585)
(16.1366 8.19795e-22 6.01532)
(16.0595 -1.12536e-21 5.5644)
(16.2339 -1.35963e-21 5.70396)
(15.9776 1.19478e-23 5.19196)
(16.2575 5.51249e-22 5.37253)
(16.2129 1.08124e-24 5.03116)
(15.1774 2.88891e-20 6.52388)
(15.5401 2.84605e-20 6.41894)
(15.8557 -3.13727e-20 6.25749)
(16.1135 -2.86813e-20 6.04742)
(15.9754 -4.55155e-21 5.9977)
(16.3073 2.84479e-21 5.79822)
(16.2262 -2.81353e-20 5.79737)
(16.4351 3.30173e-22 5.51984)
(16.4215 1.03286e-21 5.56384)
(16.4984 5.52765e-22 5.22183)
(16.56 3.15248e-23 5.3054)
(16.6422 -2.86734e-22 5.03002)
(16.0839 -3.37803e-21 5.74509)
(16.3381 -3.06705e-20 5.563)
(16.5458 7.49937e-22 5.35189)
(16.4204 -2.41954e-20 5.3298)
(16.7048 -8.25999e-22 5.11828)
(16.6275 -5.513e-22 5.13063)
(16.7921 -3.23928e-22 4.91214)
(16.4991 -2.60874e-20 5.10756)
(16.7128 -4.11391e-23 4.92531)
(16.7681 -9.56873e-21 4.71672)
)
;

boundaryField
{
    inlet
    {
        type            calculated;
        value           nonuniform 0();
    }
    outlet
    {
        type            calculated;
        value           nonuniform 0();
    }
    flap
    {
        type            calculated;
        value           nonuniform List<vector> 
33
(
(-9.01102e-17 -2.77556e-14 -6.84638e-15)
(-3.70252e-16 -2.77556e-14 -1.38679e-14)
(-1.07254e-15 2.69409e-33 -2.74425e-14)
(1.37138e-15 4.61739e-34 2.76877e-14)
(2.47338e-17 0 4.13538e-16)
(0 0 0)
(0 0 0)
(0 0 0)
(3.59625e-17 0 3.51392e-16)
(-1.19803e-14 -2.77556e-14 -1.09714e-13)
(0 0 0)
(0 -2.77556e-14 0)
(-1.30455e-14 0 -1.09468e-13)
(-2.63028e-14 0 -2.18884e-13)
(-9.93792e-17 0 -8.24442e-16)
(6.31845e-15 -2.77556e-14 -7.59694e-16)
(-1.36778e-14 -2.77556e-14 1.65408e-15)
(2.68594e-14 0 -3.23489e-15)
(-1.22024e-18 0 -9.20088e-17)
(-9.92948e-18 -5.55112e-14 -3.7108e-16)
(-1.08468e-15 -2.77556e-14 -2.77131e-14)
(0 0 0)
(-2.47155e-17 -2.77556e-14 -4.13385e-16)
(3.84269e-15 2.77556e-14 5.42561e-14)
(-4.5413e-15 -5.55112e-14 -5.51371e-14)
(-5.13114e-15 0 -5.50327e-14)
(-1.13863e-14 -2.77556e-14 -1.11277e-13)
(0 -2.77556e-14 0)
(-1.24779e-14 2.77556e-14 -1.09602e-13)
(1.28196e-14 1.75262e-32 1.09522e-13)
(-2.64764e-14 0 -2.22197e-13)
(-1.3353e-14 -2.77556e-14 -1.11085e-13)
(-3.98224e-16 -2.77556e-14 -3.30066e-15)
)
;
    }
    upperWall
    {
        type            calculated;
        value           nonuniform 0();
    }
    lowerWall
    {
        type            calculated;
        value           uniform (0 0 0);
    }
    frontAndBack
    {
        type            empty;
        value           nonuniform 0();
    }
    procBoundary4to1
    {
        type            processor;
        value           nonuniform List<vector> 
30
(
(9.58568 1.25999e-19 5.30584)
(9.81874 1.18455e-20 5.51311)
(10.058 -4.44246e-20 5.67724)
(10.2165 -4.47932e-20 6.14703)
(10.537 -6.47665e-20 6.29338)
(10.8423 -8.53334e-20 6.38861)
(11.131 1.81906e-20 6.83113)
(11.5111 2.11038e-20 6.8662)
(11.847 -1.47962e-20 6.85803)
(12.2473 1.84523e-21 7.20608)
(12.6222 1.65239e-20 7.10447)
(12.9323 0 6.98854)
(13.4316 -5.44135e-20 7.20217)
(13.7169 -4.37017e-22 7.28128)
(13.9141 -9.16559e-20 7.01555)
(14.054 -1.75682e-19 6.77848)
(14.2576 1.55152e-19 6.81654)
(14.6253 1.75324e-20 6.84867)
(14.7828 1.10571e-20 6.56861)
(14.9483 -5.30705e-21 6.32661)
(15.3204 2.47863e-20 6.26815)
(15.6711 -3.20009e-22 6.15693)
(15.7879 2.71727e-20 5.89211)
(15.889 -8.51441e-21 5.64817)
(16.1731 -5.95693e-20 5.50405)
(16.2513 -5.37744e-20 5.26802)