/*--------------------------------*- C++ -*----------------------------------*\
| =========                 |                                                 |
| \\      /  F ield         | OpenFOAM: The Open Source CFD Toolbox           |
|  \\    /   O peration     | Version:  dev                                   |
|   \\  /    A nd           | Web:      www.OpenFOAM.org                      |
|    \\/     M anipulation  |                                                 |
\*---------------------------------------------------------------------------*/
FoamFile
{
    version     2.0;
    format      ascii;
    class       pointVectorField;
    location    "3.53";
    object      pointDisplacement;
}
// * * * * * * * * * * * * * * * * * * * * * * * * * * * * * * * * * * * * * //

dimensions      [0 1 0 0 0 0 0];

internalField   nonuniform List<vector> 
1034
(
(0.0181442 0 0)
(0.0194953 0 0)
(0.0206494 0 0)
(0.0216011 0 0)
(0.0223466 0 0)
(0.0228829 0 0)
(0.0232063 0 0)
(0.0233128 0 0)
(0.0231967 0 0)
(0.022851 0 0)
(0.0222666 0 0)
(0.0214329 0 0)
(0.0203368 0 0)
(0.0189634 0 0)
(0.0172955 0 0)
(0.0153138 0 0)
(0.012997 0 0)
(0.010322 0 0)
(0.00726391 0 0)
(0.00379616 0 0)
(0 0 0)
(0.0183065 0 -0.00033753)
(0.0196328 0 -0.000303052)
(0.0207655 0 -0.000272422)
(0.0216989 0 -0.000245138)
(0.0224288 0 -0.000220762)
(0.0229518 0 -0.000198912)
(0.0232641 0 -0.000179252)
(0.023361 0 -0.000161482)
(0.0232369 0 -0.000145332)
(0.0228844 0 -0.000130559)
(0.0222944 0 -0.000116938)
(0.0214558 0 -0.000104262)
(0.0203557 0 -9.23357e-05)
(0.0189788 0 -8.0969e-05)
(0.0173079 0 -6.9974e-05)
(0.0153237 0 -5.91578e-05)
(0.0130047 0 -4.83158e-05)
(0.0103276 0 -3.72229e-05)
(0.00726763 0 -2.56232e-05)
(0.00379798 0 -1.32131e-05)
(0 0 0)
(0.0187861 0 -0.000665516)
(0.0200393 0 -0.00059848)
(0.021109 0 -0.000538701)
(0.0219884 0 -0.000485288)
(0.0226723 0 -0.00043745)
(0.0231561 0 -0.00039448)
(0.0234351 0 -0.000355747)
(0.0235039 0 -0.000320684)
(0.0233561 0 -0.000288773)
(0.0229835 0 -0.000259545)
(0.0223766 0 -0.000232567)
(0.0215237 0 -0.000207436)
(0.0204115 0 -0.000183767)
(0.0190244 0 -0.000161191)
(0.0173448 0 -0.000139336)
(0.015353 0 -0.000117822)
(0.0130274 0 -9.62441e-05)
(0.0103444 0 -7.41571e-05)
(0.00727885 0 -5.10526e-05)
(0.00380367 0 -2.63278e-05)
(0 0 0)
(0.0195612 0 -0.000975516)
(0.0206976 0 -0.000879452)
(0.0216663 0 -0.000793273)
(0.0224589 0 -0.000715896)
(0.0230684 0 -0.000646318)
(0.0234888 0 -0.000583612)
(0.0237139 0 -0.000526926)
(0.023737 0 -0.000475479)
(0.0235505 0 -0.000428553)
(0.0231453 0 -0.000385484)
(0.0225108 0 -0.000345658)
(0.0216347 0 -0.000308494)
(0.0205027 0 -0.00027344)
(0.0190989 0 -0.000239957)
(0.017405 0 -0.000207504)
(0.0154009 0 -0.000175522)
(0.0130645 0 -0.000143416)
(0.0103718 0 -0.000110527)
(0.00729716 0 -7.6103e-05)
(0.00381296 0 -3.92502e-05)
(0 0 0)
(0.0205988 0 -0.00126076)
(0.0215814 0 -0.00114033)
(0.0224165 0 -0.00103144)
(0.0230935 0 -0.000933047)
(0.0236038 0 -0.000844104)
(0.0239393 0 -0.000763584)
(0.0240921 0 -0.000690512)
(0.0240538 0 -0.000623964)
(0.0238151 0 -0.000563077)
(0.0233657 0 -0.000507039)
(0.0226939 0 -0.000455088)
(0.0217861 0 -0.000406498)
(0.0206273 0 -0.00036057)
(0.0192007 0 -0.000316616)
(0.0174873 0 -0.000273941)
(0.0154664 0 -0.000231824)
(0.0131153 0 -0.000189489)
(0.0104093 0 -0.000146076)
(0.00732219 0 -0.000100602)
(0.00382566 0 -5.18921e-05)
(0 0 0)
(0.0218572 0 -0.00151636)
(0.0226573 0 -0.00137682)
(0.0233325 0 -0.00124949)
(0.0238708 0 -0.00113357)
(0.0242612 0 -0.0010281)
(0.0244938 0 -0.000932095)
(0.0245586 0 -0.000844552)
(0.0244452 0 -0.000764484)
(0.0241428 0 -0.000690945)
(0.0236392 0 -0.000623025)
(0.0229212 0 -0.000559857)
(0.0219744 0 -0.000500604)
(0.0207825 0 -0.000444447)
(0.0193275 0 -0.000390575)
(0.0175899 0 -0.000338157)
(0.0155481 0 -0.000286327)
(0.0131786 0 -0.000234146)
(0.0104561 0 -0.000180567)
(0.00735341 0 -0.000124388)
(0.00384149 0 -6.41723e-05)
(0 0 0)
(0.0232892 0 -0.00173938)
(0.0238867 0 -0.00158609)
(0.0243833 0 -0.00144481)
(0.0247654 0 -0.00131508)
(0.0250203 0 -0.00119621)
(0.025136 0 -0.00108731)
(0.0251003 0 -0.000987457)
(0.0249009 0 -0.000895669)
(0.024525 0 -0.000810977)
(0.0239588 0 -0.000732431)
(0.0231876 0 -0.000659101)
(0.0221953 0 -0.000590074)
(0.0209647 0 -0.000524446)
(0.0194767 0 -0.000461306)
(0.0177107 0 -0.000399713)
(0.0156443 0 -0.000338673)
(0.0132532 0 -0.000277102)
(0.0105111 0 -0.000213785)
(0.00739018 0 -0.000147317)
(0.00386012 0 -7.6016e-05)
(0 0 0)
(0.0248454 0 -0.00192853)
(0.0252287 0 -0.0017666)
(0.025535 0 -0.00161576)
(0.0257498 0 -0.00147602)
(0.0258587 0 -0.00134695)
(0.0258476 0 -0.00122789)
(0.0257026 0 -0.00111802)
(0.0254091 0 -0.00101644)
(0.0249524 0 -0.000922226)
(0.0243171 0 -0.000834428)
(0.0234867 0 -0.000752098)
(0.022444 0 -0.000674285)
(0.0211701 0 -0.000600031)
(0.0196451 0 -0.000528353)
(0.0178472 0 -0.000458224)
(0.0157531 0 -0.000388544)
(0.0133375 0 -0.000318104)
(0.0105734 0 -0.000245537)
(0.00743173 0 -0.000169257)
(0.00388117 0 -8.73562e-05)
(0 0 0)
(0.0264758 0 -0.00208393)
(0.0266413 0 -0.00191792)
(0.0267529 0 -0.00176166)
(0.0267953 0 -0.00161554)
(0.0267528 0 -0.00147945)
(0.0266097 0 -0.00135294)
(0.0263499 0 -0.00123539)
(0.0259572 0 -0.00112602)
(0.0254149 0 -0.00102398)
(0.0247058 0 -0.000928372)
(0.0238121 0 -0.000838273)
(0.0227149 0 -0.000752729)
(0.0213944 0 -0.000670757)
(0.0198291 0 -0.000591332)
(0.0179965 0 -0.000513362)
(0.0158722 0 -0.000435667)
(0.0134299 0 -0.00035693)
(0.0106416 0 -0.000275655)
(0.00747725 0 -0.000190093)
(0.00390422 0 -9.81335e-05)
(0 0 0)
(0.0281319 0 -0.00220664)
(0.0280834 0 -0.00204054)
(0.0280025 0 -0.00188258)
(0.0278733 0 -0.00173346)
(0.0276792 0 -0.00159335)
(0.0274028 0 -0.00146204)
(0.0270265 0 -0.0013391)
(0.0265322 0 -0.00122392)
(0.0259018 0 -0.00111575)
(0.0251164 0 -0.0010138)
(0.0241568 0 -0.000917197)
(0.0230027 0 -0.000825013)
(0.021633 0 -0.000736272)
(0.0200253 0 -0.00064993)
(0.0181558 0 -0.000564858)
(0.0159993 0 -0.000479812)
(0.0135285 0 -0.000393393)
(0.0107144 0 -0.000303994)
(0.00752584 0 -0.000209725)
(0.00392882 0 -0.000108296)
(0 0 0)
(0.0297678 0 -0.00229836)
(0.0295159 0 -0.00213557)
(0.0292507 0 -0.0019792)
(0.0289563 0 -0.00183014)
(0.0286148 0 -0.00168878)
(0.0282079 0 -0.00155514)
(0.0277166 0 -0.00142899)
(0.0271214 0 -0.00130989)
(0.0264027 0 -0.00119727)
(0.0255404 0 -0.00109043)
(0.0245137 0 -0.000988579)
(0.0233015 0 -0.000890855)
(0.0218813 0 -0.00079631)
(0.0202297 0 -0.000703905)
(0.0183221 0 -0.000612494)
(0.0161321 0 -0.000520793)
(0.0136316 0 -0.000427338)
(0.0107905 0 -0.000330433)
(0.00757658 0 -0.000228069)
(0.00395449 0 -0.000117801)
(0 0 0)
(0.0313409 0 -0.0023612)
(0.0309023 0 -0.00220464)
(0.0304668 0 -0.0020527)
(0.0300182 0 -0.00190638)
(0.029538 0 -0.00176624)
(0.029007 0 -0.00163251)
(0.0284053 0 -0.00150517)
(0.0277123 0 -0.00138395)
(0.0269073 0 -0.00126846)
(0.0259691 0 -0.00115812)
(0.024876 0 -0.00105225)
(0.0236055 0 -0.000950077)
(0.0221345 0 -0.00085069)
(0.0204386 0 -0.000753081)
(0.0184922 0 -0.000656108)
(0.016268 0 -0.000558463)
(0.0137371 0 -0.000458641)
(0.0108684 0 -0.000354874)
(0.00762849 0 -0.000245055)
(0.00398074 0 -0.000126612)
(0 0 0)
(0.0328132 0 -0.00239759)
(0.0322102 0 -0.00224973)
(0.0316232 0 -0.00210464)
(0.0310356 0 -0.00196335)
(0.0304289 0 -0.00182658)
(0.0297833 0 -0.00169474)
(0.0290784 0 -0.001568)
(0.0282931 0 -0.00144631)
(0.0274057 0 -0.0013294)
(0.0263944 0 -0.00121688)
(0.0252367 0 -0.00110817)
(0.0239092 0 -0.00100259)
(0.0223881 0 -0.000899306)
(0.0206482 0 -0.000797345)
(0.018663 0 -0.000695584)
(0.0164046 0 -0.000592716)
(0.0138431 0 -0.000487207)
(0.0109466 0 -0.000377238)
(0.00768059 0 -0.000260629)
(0.00400707 0 -0.000134699)
(0 0 0)
(0.0341525 0 -0.00241028)
(0.0334121 0 -0.00227317)
(0.0326961 0 -0.00213689)
(0.0319882 0 -0.00200252)
(0.03127 0 -0.00187091)
(0.030522 0 -0.00174264)
(0.0297234 0 -0.00161807)
(0.028853 0 -0.00149733)
(0.0278889 0 -0.00138035)
(0.0268087 0 -0.00126685)
(0.0255894 0 -0.0011564)
(0.0242072 0 -0.00104841)
(0.0226375 0 -0.000942126)
(0.0208547 0 -0.00083664)
(0.0188315 0 -0.000730858)
(0.0165394 0 -0.000623482)
(0.0139477 0 -0.00051297)
(0.0110237 0 -0.000397472)
(0.00773185 0 -0.000274749)
(0.00403294 0 -0.00014204)
(0 0 0)
(0.0353339 0 -0.00240238)
(0.0344863 0 -0.00227759)
(0.0336667 0 -0.0021516)
(0.0328594 0 -0.00202558)
(0.0320469 0 -0.00190053)
(0.0312102 0 -0.0017772)
(0.0303291 0 -0.00165611)
(0.0293824 0 -0.00153758)
(0.0283485 0 -0.00142167)
(0.0272048 0 -0.00130827)
(0.0259281 0 -0.00119708)
(0.0244943 0 -0.00108761)
(0.0228785 0 -0.000979187)
(0.0210544 0 -0.000870969)
(0.0189946 0 -0.000761907)
(0.0166698 0 -0.000650729)
(0.0140488 0 -0.000535895)
(0.0110981 0 -0.000415538)
(0.00778126 0 -0.000287387)
(0.00405783 0 -0.00014862)
(0 0 0)
(0.0373155 0 -0.00248349)
(0.0363537 0 -0.00237689)
(0.0354293 0 -0.00226556)
(0.0345313 0 -0.00215097)
(0.0336456 0 -0.00203441)
(0.032756 0 -0.00191704)
(0.0318447 0 -0.00179975)
(0.0308924 0 -0.00168324)
(0.0298786 0 -0.00156797)
(0.0287821 0 -0.00145415)
(0.0275805 0 -0.00134182)
(0.0262507 0 -0.00123079)
(0.0247687 0 -0.00112067)
(0.0231093 0 -0.00101089)
(0.0212461 0 -0.000900666)
(0.0191512 0 -0.000789012)
(0.0167949 0 -0.000674684)
(0.0141457 0 -0.00055616)
(0.0111692 0 -0.000431573)
(0.00782825 0 -0.000298633)
(0.00408142 0 -0.000154483)
(0 0 0)
(0.0181442 0 0)
(0.0194953 0 0)
(0.0206494 0 0)
(0.0216011 0 0)
(0.0223466 0 0)
(0.0228829 0 0)
(0.0232063 0 0)
(0.0233128 0 0)
(0.0231967 0 0)
(0.022851 0 0)
(0.0222666 0 0)
(0.0214329 0 0)
(0.0203368 0 0)
(0.0189634 0 0)
(0.0172955 0 0)
(0.0153138 0 0)
(0.012997 0 0)
(0.010322 0 0)
(0.00726391 0 0)
(0.00379616 0 0)
(0 0 0)
(0.0183065 0 -0.00033753)
(0.0196328 0 -0.000303052)
(0.0207655 0 -0.000272422)
(0.0216989 0 -0.000245138)
(0.0224288 0 -0.000220762)
(0.0229518 0 -0.000198912)
(0.0232641 0 -0.000179252)
(0.023361 0 -0.000161482)
(0.0232369 0 -0.000145332)
(0.0228844 0 -0.000130559)
(0.0222944 0 -0.000116938)
(0.0214558 0 -0.000104262)
(0.0203557 0 -9.23357e-05)
(0.0189788 0 -8.0969e-05)
(0.0173079 0 -6.9974e-05)
(0.0153237 0 -5.91578e-05)
(0.0130047 0 -4.83158e-05)
(0.0103276 0 -3.72229e-05)
(0.00726763 0 -2.56232e-05)
(0.00379798 0 -1.32131e-05)
(0 0 0)
(0.0187861 0 -0.000665516)
(0.0200393 0 -0.00059848)
(0.021109 0 -0.000538701)
(0.0219884 0 -0.000485288)
(0.0226723 0 -0.00043745)
(0.0231561 0 -0.00039448)
(0.0234351 0 -0.000355747)
(0.0235039 0 -0.000320684)
(0.0233561 0 -0.000288773)
(0.0229835 0 -0.000259545)
(0.0223766 0 -0.000232567)
(0.0215237 0 -0.000207436)
(0.0204115 0 -0.000183767)
(0.0190244 0 -0.000161191)
(0.0173448 0 -0.000139336)
(0.015353 0 -0.000117822)
(0.0130274 0 -9.62441e-05)
(0.0103444 0 -7.41571e-05)
(0.00727885 0 -5.10526e-05)
(0.00380367 0 -2.63278e-05)
(0 0 0)
(0.0195612 0 -0.000975516)
(0.0206976 0 -0.000879452)
(0.0216663 0 -0.000793273)
(0.0224589 0 -0.000715896)
(0.0230684 0 -0.000646318)
(0.0234888 0 -0.000583612)
(0.0237139 0 -0.000526926)
(0.023737 0 -0.000475479)
(0.0235505 0 -0.000428553)
(0.0231453 0 -0.000385484)
(0.0225108 0 -0.000345658)
(0.0216347 0 -0.000308494)
(0.0205027 0 -0.00027344)
(0.0190989 0 -0.000239957)
(0.017405 0 -0.000207504)
(0.0154009 0 -0.000175522)
(0.0130645 0 -0.000143416)
(0.0103718 0 -0.000110527)
(0.00729716 0 -7.6103e-05)
(0.00381296 0 -3.92502e-05)
(0 0 0)
(0.0205988 0 -0.00126076)
(0.0215814 0 -0.00114033)
(0.0224165 0 -0.00103144)
(0.0230935 0 -0.000933047)
(0.0236038 0 -0.000844104)
(0.0239393 0 -0.000763584)
(0.0240921 0 -0.000690512)
(0.0240538 0 -0.000623964)
(0.0238151 0 -0.000563077)
(0.0233657 0 -0.000507039)
(0.0226939 0 -0.000455088)
(0.0217861 0 -0.000406498)
(0.0206273 0 -0.00036057)
(0.0192007 0 -0.000316616)
(0.0174873 0 -0.000273941)
(0.0154664 0 -0.000231824)
(0.0131153 0 -0.000189489)
(0.0104093 0 -0.000146076)
(0.00732219 0 -0.000100602)
(0.00382566 0 -5.18921e-05)
(0 0 0)
(0.0218572 0 -0.00151636)
(0.0226573 0 -0.00137682)
(0.0233325 0 -0.00124949)
(0.0238708 0 -0.00113357)
(0.0242612 0 -0.0010281)
(0.0244938 0 -0.000932095)
(0.0245586 0 -0.000844552)
(0.0244452 0 -0.000764484)
(0.0241428 0 -0.000690945)
(0.0236392 0 -0.000623025)
(0.0229212 0 -0.000559857)
(0.0219744 0 -0.000500604)
(0.0207825 0 -0.000444447)
(0.0193275 0 -0.000390575)
(0.0175899 0 -0.000338157)
(0.0155481 0 -0.000286327)
(0.0131786 0 -0.000234146)
(0.0104561 0 -0.000180567)
(0.00735341 0 -0.000124388)
(0.00384149 0 -6.41723e-05)
(0 0 0)
(0.0232892 0 -0.00173938)
(0.0238867 0 -0.00158609)
(0.0243833 0 -0.00144481)
(0.0247654 0 -0.00131508)
(0.0250203 0 -0.00119621)
(0.025136 0 -0.00108731)
(0.0251003 0 -0.000987457)
(0.0249009 0 -0.000895669)
(0.024525 0 -0.000810977)
(0.0239588 0 -0.000732431)
(0.0231876 0 -0.000659101)
(0.0221953 0 -0.000590074)
(0.0209647 0 -0.000524446)
(0.0194767 0 -0.000461306)
(0.0177107 0 -0.000399713)
(0.0156443 0 -0.000338673)
(0.0132532 0 -0.000277102)
(0.0105111 0 -0.000213785)
(0.00739018 0 -0.000147317)
(0.00386012 0 -7.6016e-05)
(0 0 0)
(0.0248454 0 -0.00192853)
(0.0252287 0 -0.0017666)
(0.025535 0 -0.00161576)
(0.0257498 0 -0.00147602)
(0.0258587 0 -0.00134695)
(0.0258476 0 -0.00122789)
(0.0257026 0 -0.00111802)
(0.0254091 0 -0.00101644)
(0.0249524 0 -0.000922226)
(0.0243171 0 -0.000834428)
(0.0234867 0 -0.000752098)
(0.022444 0 -0.000674285)
(0.0211701 0 -0.000600031)
(0.0196451 0 -0.000528353)
(0.0178472 0 -0.000458224)
(0.0157531 0 -0.000388544)
(0.0133375 0 -0.000318104)
(0.0105734 0 -0.000245537)
(0.00743173 0 -0.000169257)
(0.00388117 0 -8.73562e-05)
(0 0 0)
(0.0264758 0 -0.00208393)
(0.0266413 0 -0.00191792)
(0.0267529 0 -0.00176166)
(0.0267953 0 -0.00161554)
(0.0267528 0 -0.00147945)
(0.0266097 0 -0.00135294)
(0.0263499 0 -0.00123539)
(0.0259572 0 -0.00112602)
(0.0254149 0 -0.00102398)
(0.0247058 0 -0.000928372)
(0.0238121 0 -0.000838273)
(0.0227149 0 -0.000752729)
(0.0213944 0 -0.000670757)
(0.0198291 0 -0.000591332)
(0.0179965 0 -0.000513362)
(0.0158722 0 -0.000435667)
(0.0134299 0 -0.00035693)
(0.0106416 0 -0.000275655)
(0.00747725 0 -0.000190093)
(0.00390422 0 -9.81335e-05)
(0 0 0)
(0.0281319 0 -0.00220664)
(0.0280834 0 -0.00204054)
(0.0280025 0 -0.00188258)
(0.0278733 0 -0.00173346)
(0.0276792 0 -0.00159335)
(0.0274028 0 -0.00146204)
(0.0270265 0 -0.0013391)
(0.0265322 0 -0.00122392)
(0.0259018 0 -0.00111575)
(0.0251164 0 -0.0010138)
(0.0241568 0 -0.000917197)
(0.0230027 0 -0.000825013)
(0.021633 0 -0.000736272)
(0.0200253 0 -0.00064993)
(0.0181558 0 -0.000564858)
(0.0159993 0 -0.000479812)
(0.0135285 0 -0.000393393)
(0.0107144 0 -0.000303994)
(0.00752584 0 -0.000209725)
(0.00392882 0 -0.000108296)
(0 0 0)
(0.0297678 0 -0.00229836)
(0.0295159 0 -0.00213557)
(0.0292507 0 -0.0019792)
(0.0289563 0 -0.00183014)
(0.0286148 0 -0.00168878)
(0.0282079 0 -0.00155514)
(0.0277166 0 -0.00142899)
(0.0271214 0 -0.00130989)
(0.0264027 0 -0.00119727)
(0.0255404 0 -0.00109043)
(0.0245137 0 -0.000988579)
(0.0233015 0 -0.000890855)
(0.0218813 0 -0.00079631)
(0.0202297 0 -0.000703905)
(0.0183221 0 -0.000612494)
(0.0161321 0 -0.000520793)
(0.0136316 0 -0.000427338)
(0.0107905 0 -0.000330433)
(0.00757658 0 -0.000228069)
(0.00395449 0 -0.000117801)
(0 0 0)
(0.0313409 0 -0.0023612)
(0.0309023 0 -0.00220464)
(0.0304668 0 -0.0020527)
(0.0300182 0 -0.00190638)
(0.029538 0 -0.00176624)
(0.029007 0 -0.00163251)
(0.0284053 0 -0.00150517)
(0.0277123 0 -0.00138395)
(0.0269073 0 -0.00126846)
(0.0259691 0 -0.00115812)
(0.024876 0 -0.00105225)
(0.0236055 0 -0.000950077)
(0.0221345 0 -0.00085069)
(0.0204386 0 -0.000753081)
(0.0184922 0 -0.000656108)
(0.016268 0 -0.000558463)
(0.0137371 0 -0.000458641)
(0.0108684 0 -0.000354874)
(0.00762849 0 -0.000245055)
(0.00398074 0 -0.000126612)
(0 0 0)
(0.0328132 0 -0.00239759)
(0.0322102 0 -0.00224973)
(0.0316232 0 -0.00210464)
(0.0310356 0 -0.00196335)
(0.0304289 0 -0.00182658)
(0.0297833 0 -0.00169474)
(0.0290784 0 -0.001568)
(0.0282931 0 -0.00144631)
(0.0274057 0 -0.0013294)
(0.0263944 0 -0.00121688)
(0.0252367 0 -0.00110817)
(0.0239092 0 -0.00100259)
(0.0223881 0 -0.000899306)
(0.0206482 0 -0.000797345)
(0.018663 0 -0.000695584)
(0.0164046 0 -0.000592716)
(0.0138431 0 -0.000487207)
(0.0109466 0 -0.000377238)
(0.00768059 0 -0.000260629)
(0.00400707 0 -0.000134699)
(0 0 0)
(0.0341525 0 -0.00241028)
(0.0334121 0 -0.00227317)
(0.0326961 0 -0.00213689)
(0.0319882 0 -0.00200252)
(0.03127 0 -0.00187091)
(0.030522 0 -0.00174264)
(0.0297234 0 -0.00161807)
(0.028853 0 -0.00149733)
(0.0278889 0 -0.00138035)
(0.0268087 0 -0.00126685)
(0.0255894 0 -0.0011564)
(0.0242072 0 -0.00104841)
(0.0226375 0 -0.000942126)
(0.0208547 0 -0.00083664)
(0.0188315 0 -0.000730858)
(0.0165394 0 -0.000623482)
(0.0139477 0 -0.00051297)
(0.0110237 0 -0.000397472)
(0.00773185 0 -0.000274749)
(0.00403294 0 -0.00014204)
(0 0 0)
(0.0353339 0 -0.00240238)
(0.0344863 0 -0.00227759)
(0.0336667 0 -0.0021516)
(0.0328594 0 -0.00202558)
(0.0320469 0 -0.00190053)
(0.0312102 0 -0.0017772)
(0.0303291 0 -0.00165611)
(0.0293824 0 -0.00153758)
(0.0283485 0 -0.00142167)
(0.0272048 0 -0.00130827)
(0.0259281 0 -0.00119708)
(0.0244943 0 -0.00108761)
(0.0228785 0 -0.000979187)
(0.0210544 0 -0.000870969)
(0.0189946 0 -0.000761907)
(0.0166698 0 -0.000650729)
(0.0140488 0 -0.000535895)
(0.0110981 0 -0.000415538)
(0.00778126 0 -0.000287387)
(0.00405783 0 -0.00014862)
(0 0 0)
(0.0373155 0 -0.00248349)
(0.0363537 0 -0.00237689)
(0.0354293 0 -0.00226556)
(0.0345313 0 -0.00215097)
(0.0336456 0 -0.00203441)
(0.032756 0 -0.00191704)
(0.0318447 0 -0.00179975)
(0.0308924 0 -0.00168324)
(0.0298786 0 -0.00156797)
(0.0287821 0 -0.00145415)
(0.0275805 0 -0.00134182)
(0.0262507 0 -0.00123079)
(0.0247687 0 -0.00112067)
(0.0231093 0 -0.00101089)
(0.0212461 0 -0.000900666)
(0.0191512 0 -0.000789012)
(0.0167949 0 -0.000674684)
(0.0141457 0 -0.00055616)
(0.0111692 0 -0.000431573)
(0.00782825 0 -0.000298633)
(0.00408142 0 -0.000154483)
(0 0 0)
(0.0382267 0 -0.00242593)
(0.0372242 0 -0.002336)
(0.0362506 0 -0.00223902)
(0.0352973 0 -0.00213669)
(0.0343524 0 -0.00203051)
(0.0334016 0 -0.00192174)
(0.0324287 0 -0.00181146)
(0.0314158 0 -0.00170048)
(0.0303433 0 -0.00158941)
(0.0291909 0 -0.0014786)
(0.0279367 0 -0.0013682)
(0.026558 0 -0.00125814)
(0.0250309 0 -0.00114814)
(0.0233303 0 -0.00103772)
(0.0214297 0 -0.000926161)
(0.0193011 0 -0.000812541)
(0.0169145 0 -0.000695659)
(0.0142379 0 -0.00057402)
(0.0112365 0 -0.00044577)
(0.00787257 0 -0.000308619)
(0.00410355 0 -0.000159696)
(0 0 0)
(0.0389634 0 -0.00235496)
(0.037948 0 -0.00228201)
(0.0369494 0 -0.00219978)
(0.0359617 0 -0.00211023)
(0.0349753 0 -0.002015)
(0.0339785 0 -0.00191551)
(0.0329567 0 -0.00181296)
(0.0318937 0 -0.00170829)
(0.0307712 0 -0.00160221)
(0.0295699 0 -0.00149519)
(0.0282688 0 -0.00138749)
(0.0268456 0 -0.00127915)
(0.025277 0 -0.00116999)
(0.023538 0 -0.0010596)
(0.0216022 0 -0.00094736)
(0.0194417 0 -0.000832391)
(0.0170263 0 -0.000713548)
(0.0143237 0 -0.000589375)
(0.0112988 0 -0.000458044)
(0.00791322 0 -0.000317282)
(0.00412369 0 -0.000164226)
(0 0 0)
(0.0375244 0 -0.00215001)
(0.0365202 0 -0.00207326)
(0.0355087 0 -0.00198921)
(0.0344799 0 -0.00189936)
(0.0334215 0 -0.001805)
(0.0323188 0 -0.00170718)
(0.0311553 0 -0.00160669)
(0.0299125 0 -0.0015041)
(0.0285706 0 -0.00139976)
(0.027108 0 -0.0012938)
(0.025502 0 -0.00118612)
(0.023728 0 -0.0010764)
(0.0217599 0 -0.000964089)
(0.0195697 0 -0.000848377)
(0.0171275 0 -0.000728171)
(0.0144008 0 -0.000602061)
(0.0113542 0 -0.000468259)
(0.00794897 0 -0.000324521)
(0.00414121 0 -0.000168018)
(0 0 0)
(0.0359512 0 -0.00195447)
(0.0349033 0 -0.00187436)
(0.0338195 0 -0.00178844)
(0.0326871 0 -0.00169781)
(0.031491 0 -0.00160334)
(0.0302142 0 -0.00150567)
(0.0288377 0 -0.00140521)
(0.027341 0 -0.00130219)
(0.025702 0 -0.00119656)
(0.0238967 0 -0.0010881)
(0.0218994 0 -0.000976302)
(0.0196824 0 -0.000860429)
(0.0172159 0 -0.000739448)
(0.0144673 0 -0.000611998)
(0.0114013 0 -0.000476341)
(0.00797875 0 -0.000330282)
(0.00415553 0 -0.000171042)
(0 0 0)
(0.0352472 0 -0.00184159)
(0.0341483 0 -0.00176413)
(0.0329955 0 -0.00168087)
(0.031775 0 -0.0015927)
(0.0304712 0 -0.00150029)
(0.0290663 0 -0.00140413)
(0.0275409 0 -0.0013045)
(0.0258736 0 -0.00120144)
(0.024041 0 -0.00109474)
(0.0220179 0 -0.000983996)
(0.0197771 0 -0.000868517)
(0.017289 0 -0.000747327)
(0.0145212 0 -0.000619128)
(0.0114384 0 -0.000482237)
(0.00800154 0 -0.000334523)
(0.00416614 0 -0.000173276)
(0 0 0)
(0.0332413 0 -0.00165699)
(0.0320043 0 -0.00157527)
(0.0306805 0 -0.0014884)
(0.0292534 0 -0.00139685)
(0.0277046 0 -0.00130098)
(0.0260136 0 -0.00120088)
(0.0241578 0 -0.00109641)
(0.0221127 0 -0.000987208)
(0.0198515 0 -0.000872639)
(0.0173449 0 -0.000751789)
(0.0145609 0 -0.000623418)
(0.0114644 0 -0.000485913)
(0.00801636 0 -0.000337215)
(0.00417252 0 -0.000174702)
(0 0 0)
(0.0308395 0 -0.00147035)
(0.0293963 0 -0.00138369)
(0.0278294 0 -0.00129189)
(0.0261195 0 -0.0011951)
(0.0242448 0 -0.00109324)
(0.0221815 0 -0.00098601)
(0.0199034 0 -0.000872832)
(0.0173816 0 -0.00075284)
(0.0145847 0 -0.000624861)
(0.0114779 0 -0.000487353)
(0.00802236 0 -0.000338343)
(0.00417422 0 -0.000175312)
(0 0 0)
(0.0294927 0 -0.00136491)
(0.0279131 0 -0.00127743)
(0.0261891 0 -0.00118427)
(0.0242998 0 -0.00108538)
(0.0222222 0 -0.000980508)
(0.0199309 0 -0.000869161)
(0.0173976 0 -0.000750515)
(0.0145913 0 -0.000623471)
(0.0114777 0 -0.000486561)
(0.00801874 0 -0.000337905)
(0.00417083 0 -0.000175104)
(0 0 0)
(0.0262204 0 -0.00116854)
(0.0243211 0 -0.00107297)
(0.0222333 0 -0.000970841)
(0.0199326 0 -0.000861723)
(0.0173913 0 -0.000744875)
(0.0145794 0 -0.000619285)
(0.0114631 0 -0.000483558)
(0.00800488 0 -0.000335913)
(0.00416203 0 -0.000174083)
(0 0 0)
(0.024307 0 -0.00105609)
(0.0222133 0 -0.000957067)
(0.0199072 0 -0.000850603)
(0.017362 0 -0.000736009)
(0.0145483 0 -0.00061236)
(0.0114333 0 -0.000478383)
(0.00798028 0 -0.00033239)
(0.00414757 0 -0.00017226)
(0 0 0)
(0.0198537 0 -0.000835833)
(0.0173087 0 -0.000723971)
(0.0144973 0 -0.000602777)
(0.0113878 0 -0.000471091)
(0.00794462 0 -0.000327371)
(0.00412727 0 -0.000169653)
(0 0 0)
(0.0172307 0 -0.000708787)
(0.0144259 0 -0.00059055)
(0.0113264 0 -0.000461728)
(0.00789777 0 -0.000320905)
(0.00410107 0 -0.000166284)
(0 0 0)
(0.0112488 0 -0.000450309)
(0.00783968 0 -0.000313016)
(0.00406901 0 -0.000162182)
(0 0 0)
(0.00777047 0 -0.000303727)
(0.00403117 0 -0.000157361)
(0 0 0)
(0.00398774 0 -0.00015184)
(0 0 0)
(0.0382267 0 -0.00242593)
(0.0372242 0 -0.002336)
(0.0362506 0 -0.00223902)
(0.0352973 0 -0.00213669)
(0.0343524 0 -0.00203051)
(0.0334016 0 -0.00192174)
(0.0324287 0 -0.00181146)
(0.0314158 0 -0.00170048)
(0.0303433 0 -0.00158941)
(0.0291909 0 -0.0014786)
(0.0279367 0 -0.0013682)
(0.026558 0 -0.00125814)
(0.0250309 0 -0.00114814)
(0.0233303 0 -0.00103772)
(0.0214297 0 -0.000926161)
(0.0193011 0 -0.000812541)
(0.0169145 0 -0.000695659)
(0.0142379 0 -0.00057402)
(0.0112365 0 -0.00044577)
(0.00787257 0 -0.000308619)
(0.00410355 0 -0.000159696)
(0 0 0)
(0.0389634 0 -0.00235496)
(0.037948 0 -0.00228201)
(0.0369494 0 -0.00219978)
(0.0359617 0 -0.00211023)
(0.0349753 0 -0.002015)
(0.0339785 0 -0.00191551)
(0.0329567 0 -0.00181296)
(0.0318937 0 -0.00170829)
(0.0307712 0 -0.00160221)
(0.0295699 0 -0.00149519)
(0.0282688 0 -0.00138749)
(0.0268456 0 -0.00127915)
(0.025277 0 -0.00116999)
(0.023538 0 -0.0010596)
(0.0216022 0 -0.00094736)
(0.0194417 0 -0.000832391)
(0.0170263 0 -0.000713548)
(0.0143237 0 -0.000589375)
(0.0112988 0 -0.000458044)
(0.00791322 0 -0.000317282)
(0.00412369 0 -0.000164226)
(0 0 0)
(0.0375244 0 -0.00215001)
(0.0365202 0 -0.00207326)
(0.0355087 0 -0.00198921)
(0.0344799 0 -0.00189936)
(0.0334215 0 -0.001805)
(0.0323188 0 -0.00170718)
(0.0311553 0 -0.00160669)
(0.0299125 0 -0.0015041)
(0.0285706 0 -0.00139976)
(0.027108 0 -0.0012938)
(0.025502 0 -0.00118612)
(0.023728 0 -0.0010764)
(0.0217599 0 -0.000964089)
(0.0195697 0 -0.000848377)
(0.0171275 0 -0.000728171)
(0.0144008 0 -0.000602061)
(0.0113542 0 -0.000468259)
(0.00794897 0 -0.000324521)
(0.00414121 0 -0.000168018)
(0 0 0)
(0.0359512 0 -0.00195447)
(0.0349033 0 -0.00187436)
(0.0338195 0 -0.00178844)
(0.0326871 0 -0.00169781)
(0.031491 0 -0.00160334)
(0.0302142 0 -0.00150567)
(0.0288377 0 -0.00140521)
(0.027341 0 -0.00130219)
(0.025702 0 -0.00119656)
(0.0238967 0 -0.0010881)
(0.0218994 0 -0.000976302)
(0.0196824 0 -0.000860429)
(0.0172159 0 -0.000739448)
(0.0144673 0 -0.000611998)
(0.0114013 0 -0.000476341)
(0.00797875 0 -0.000330282)
(0.00415553 0 -0.000171042)
(0 0 0)
(0.0352472 0 -0.00184159)
(0.0341483 0 -0.00176413)
(0.0329955 0 -0.00168087)
(0.031775 0 -0.0015927)
(0.0304712 0 -0.00150029)
(0.0290663 0 -0.00140413)
(0.0275409 0 -0.0013045)
(0.0258736 0 -0.00120144)
(0.024041 0 -0.00109474)
(0.0220179 0 -0.000983996)
(0.0197771 0 -0.000868517)
(0.017289 0 -0.000747327)
(0.0145212 0 -0.000619128)
(0.0114384 0 -0.000482237)
(0.00800154 0 -0.000334523)
(0.00416614 0 -0.000173276)
(0 0 0)
(0.0332413 0 -0.00165699)
(0.0320043 0 -0.00157527)
(0.0306805 0 -0.0014884)
(0.0292534 0 -0.00139685)
(0.0277046 0 -0.00130098)
(0.0260136 0 -0.00120088)
(0.0241578 0 -0.00109641)
(0.0221127 0 -0.000987208)
(0.0198515 0 -0.000872639)
(0.0173449 0 -0.000751789)
(0.0145609 0 -0.000623418)
(0.0114644 0 -0.000485913)
(0.00801636 0 -0.000337215)
(0.00417252 0 -0.000174702)
(0 0 0)
(0.0308395 0 -0.00147035)
(0.0293963 0 -0.00138369)
(0.0278294 0 -0.00129189)
(0.0261195 0 -0.0011951)
(0.0242448 0 -0.00109324)
(0.0221815 0 -0.00098601)
(0.0199034 0 -0.000872832)
(0.0173816 0 -0.00075284)
(0.0145847 0 -0.000624861)
(0.0114779 0 -0.000487353)
(0.00802236 0 -0.000338343)
(0.00417422 0 -0.000175312)
(0 0 0)
(0.0294927 0 -0.00136491)
(0.0279131 0 -0.00127743)
(0.0261891 0 -0.00118427)
(0.0242998 0 -0.00108538)
(0.0222222 0 -0.000980508)
(0.0199309 0 -0.000869161)
(0.0173976 0 -0.000750515)
(0.0145913 0 -0.000623471)
(0.0114777 0 -0.000486561)
(0.00801874 0 -0.000337905)
(0.00417083 0 -0.000175104)
(0 0 0)
(0.0262204 0 -0.00116854)
(0.0243211 0 -0.00107297)
(0.0222333 0 -0.000970841)
(0.0199326 0 -0.000861723)
(0.0173913 0 -0.000744875)
(0.0145794 0 -0.000619285)
(0.0114631 0 -0.000483558)
(0.00800488 0 -0.000335913)
(0.00416203 0 -0.000174083)
(0 0 0)
(0.024307 0 -0.00105609)
(0.0222133 0 -0.000957067)
(0.0199072 0 -0.000850603)
(0.017362 0 -0.000736009)
(0.0145483 0 -0.00061236)
(0.0114333 0 -0.000478383)
(0.00798028 0 -0.00033239)
(0.00414757 0 -0.00017226)
(0 0 0)
(0.0198537 0 -0.000835833)
(0.0173087 0 -0.000723971)
(0.0144973 0 -0.000602777)
(0.0113878 0 -0.000471091)
(0.00794462 0 -0.000327371)
(0.00412727 0 -0.000169653)
(0 0 0)
(0.0172307 0 -0.000708787)
(0.0144259 0 -0.00059055)
(0.0113264 0 -0.000461728)
(0.00789777 0 -0.000320905)
(0.00410107 0 -0.000166284)
(0 0 0)
(0.0112488 0 -0.000450309)
(0.00783968 0 -0.000313016)
(0.00406901 0 -0.000162182)
(0 0 0)
(0.00777047 0 -0.000303727)
(0.00403117 0 -0.000157361)
(0 0 0)
(0.00398774 0 -0.00015184)
(0 0 0)
)
;

boundaryField
{
    inlet
    {
        type            fixedValue;
        value           nonuniform 0();
    }
    outlet
    {
        type            fixedValue;
        value           uniform (0 0 0);
    }
    flap
    {
        type            fixedValue;
        value           nonuniform 0();
    }
    upperWall
    {
        type            slip;
    }
    lowerWall
    {
        type            slip;
    }
    frontAndBack
    {
        type            empty;
    }
    procBoundary5to2
    {
        type            processor;
    }
    procBoundary5to4
    {
        type            processor;
    }
}


// ************************************************************************* //
