/*--------------------------------*- C++ -*----------------------------------*\
| =========                 |                                                 |
| \\      /  F ield         | OpenFOAM: The Open Source CFD Toolbox           |
|  \\    /   O peration     | Version:  dev                                   |
|   \\  /    A nd           | Web:      www.OpenFOAM.org                      |
|    \\/     M anipulation  |                                                 |
\*---------------------------------------------------------------------------*/
FoamFile
{
    version     2.0;
    format      ascii;
    class       volVectorField;
    location    "0.9";
    object      cellDisplacement;
}
// * * * * * * * * * * * * * * * * * * * * * * * * * * * * * * * * * * * * * //

dimensions      [0 1 0 0 0 0 0];

internalField   nonuniform List<vector> 
2790
(
(0.0106732 0 -2.67666e-05)
(0.0304725 0 -7.67358e-05)
(0.0473882 0 -0.000120559)
(0.0616862 0 -0.000159345)
(0.0736459 0 -0.000194014)
(0.0834978 0 -0.000225725)
(0.0914555 0 -0.000253863)
(0.0977135 0 -0.000279153)
(0.10243 0 -0.000301684)
(0.10574 0 -0.000321438)
(0.107762 0 -0.000338404)
(0.1086 0 -0.000351622)
(0.108346 0 -0.0003608)
(0.107081 0 -0.000365291)
(0.104874 0 -0.000364198)
(0.10179 0 -0.000356383)
(0.0978861 0 -0.000340418)
(0.0932167 0 -0.00031442)
(0.0878324 0 -0.000275953)
(0.0817907 0 -0.000222514)
(0.0751509 0 -0.000150287)
(0.0679775 0 -5.45275e-05)
(0.0603413 0 7.09554e-05)
(0.0523261 0 0.000234274)
(0.0440349 0 0.000446163)
(0.0356031 0 0.000721122)
(0.027222 0 0.00108025)
(0.0192332 0 0.00155747)
(0.0123189 0 0.0021972)
(0.00833831 0 0.00294062)
(0.0106851 0 -8.04742e-05)
(0.0305073 0 -0.000230745)
(0.0474454 0 -0.000362589)
(0.0617674 0 -0.000479342)
(0.0737565 0 -0.000583643)
(0.083637 0 -0.000677145)
(0.0916244 0 -0.000761519)
(0.0979195 0 -0.000837521)
(0.102678 0 -0.000905295)
(0.106036 0 -0.000964769)
(0.108113 0 -0.00101629)
(0.109014 0 -0.00105643)
(0.108831 0 -0.00108469)
(0.107648 0 -0.00109917)
(0.105536 0 -0.00109722)
(0.102562 0 -0.00107556)
(0.0987855 0 -0.00103009)
(0.0942646 0 -0.000955402)
(0.0890493 0 -0.000844085)
(0.0832058 0 -0.000689716)
(0.0768003 0 -0.000481111)
(0.0699079 0 -0.000205053)
(0.0626143 0 0.000155639)
(0.0550259 0 0.000623228)
(0.0472829 0 0.00122664)
(0.0395863 0 0.00200299)
(0.0321928 0 0.00300174)
(0.0255064 0 0.00428319)
(0.0203977 0 0.00587352)
(0.0192731 0 0.00746102)
(0.010709 0 -0.000134258)
(0.0305765 0 -0.000385014)
(0.0475585 0 -0.000605113)
(0.0619264 0 -0.000800149)
(0.0739618 0 -0.000974413)
(0.0838997 0 -0.0011301)
(0.0919569 0 -0.00127143)
(0.0983269 0 -0.00139896)
(0.103169 0 -0.00151293)
(0.106624 0 -0.00161301)
(0.108809 0 -0.00169807)
(0.109832 0 -0.00176657)
(0.109793 0 -0.00181624)
(0.108774 0 -0.00184384)
(0.106851 0 -0.00184518)
(0.104095 0 -0.00181509)
(0.100572 0 -0.00174747)
(0.0963494 0 -0.00163431)
(0.0914806 0 -0.00146495)
(0.0860312 0 -0.0012265)
(0.080089 0 -0.000903823)
(0.0737489 0 -0.000478434)
(0.0671198 0 7.38279e-05)
(0.0603405 0 0.000783071)
(0.053596 0 0.00168665)
(0.0472141 0 0.00282471)
(0.0415984 0 0.00423439)
(0.0373266 0 0.00592636)
(0.0351783 0 0.00783431)
(0.0376477 0 0.00930192)
(0.0107449 0 -0.000187805)
(0.0306796 0 -0.00053864)
(0.0477263 0 -0.000846677)
(0.0621627 0 -0.00111986)
(0.0742717 0 -0.00136432)
(0.0842957 0 -0.00158416)
(0.0924522 0 -0.00178337)
(0.0989327 0 -0.00196351)
(0.1039 0 -0.00212507)
(0.107496 0 -0.00226747)
(0.109841 0 -0.00238839)
(0.111051 0 -0.00248838)
(0.111225 0 -0.00256345)
(0.11045 0 -0.00260929)
(0.108808 0 -0.00262055)
(0.106372 0 -0.00259044)
(0.103221 0 -0.00251188)
(0.0994281 0 -0.0023748)
(0.0950671 0 -0.00216713)
(0.0902075 0 -0.00187127)
(0.084943 0 -0.00146948)
(0.079413 0 -0.000943667)
(0.0737583 0 -0.000268393)
(0.0681658 0 0.000584433)
(0.0628639 0 0.00164856)
(0.0582145 0 0.00294666)
(0.0548045 0 0.00446552)
(0.0534473 0 0.00611723)
(0.0548836 0 0.00770652)
(0.0606502 0 0.00843029)
(0.0107929 0 -0.000241051)
(0.0308157 0 -0.000691469)
(0.0479465 0 -0.00108706)
(0.0624737 0 -0.00143828)
(0.0746816 0 -0.00175305)
(0.0848181 0 -0.00203708)
(0.0931026 0 -0.00229478)
(0.0997274 0 -0.0025285)
(0.104858 0 -0.00273912)
(0.10864 0 -0.00292625)
(0.111199 0 -0.0030883)
(0.112653 0 -0.00322401)
(0.113106 0 -0.00332966)
(0.112651 0 -0.00340048)
(0.111376 0 -0.00343043)
(0.109358 0 -0.00341104)
(0.106692 0 -0.00333632)
(0.103459 0 -0.00319463)
(0.0997475 0 -0.00297267)
(0.0956552 0 -0.00265464)
(0.0912858 0 -0.002222)
(0.0867879 0 -0.00165629)
(0.0823554 0 -0.000939364)
(0.0782164 0 -5.25678e-05)
(0.0747175 0 0.00101013)
(0.0722084 0 0.00224104)
(0.0712765 0 0.00358049)
(0.0728807 0 0.00482993)
(0.077669 0 0.00567793)
(0.0860825 0 0.00544607)
(0.0108538 0 -0.000294174)
(0.0309837 0 -0.000843337)
(0.0482161 0 -0.00132599)
(0.0628559 0 -0.00175513)
(0.0751863 0 -0.00214035)
(0.0854604 0 -0.00248884)
(0.0939008 0 -0.00280577)
(0.100702 0 -0.00309435)
(0.106033 0 -0.00335591)
(0.110042 0 -0.00359043)
(0.112861 0 -0.00379669)
(0.114613 0 -0.00397282)
(0.115405 0 -0.00411522)
(0.11534 0 -0.00421918)
(0.114515 0 -0.00427905)
(0.113019 0 -0.00428707)
(0.110941 0 -0.00423395)
(0.108389 0 -0.00411055)
(0.105464 0 -0.00390434)
(0.102284 0 -0.00360202)
(0.098985 0 -0.00318926)
(0.0957336 0 -0.00265291)
(0.0927584 0 -0.00198584)
(0.0903155 0 -0.00118444)
(0.0887657 0 -0.000268041)
(0.0886218 0 0.000697437)
(0.0903589 0 0.00161151)
(0.094725 0 0.00222441)
(0.102197 0 0.00218815)
(0.11242 0 0.00108004)
(0.0109103 0 -0.000346675)
(0.0311656 0 -0.000994219)
(0.0485327 0 -0.00156423)
(0.0633073 0 -0.00207154)
(0.0757827 0 -0.0025277)
(0.0862188 0 -0.00294138)
(0.0948422 0 -0.00331872)
(0.101851 0 -0.00366392)
(0.107416 0 -0.00397882)
(0.111693 0 -0.0042639)
(0.114817 0 -0.00451834)
(0.116916 0 -0.00474026)
(0.118104 0 -0.00492635)
(0.118492 0 -0.00507227)
(0.118188 0 -0.00517366)
(0.117296 0 -0.00522401)
(0.1159 0 -0.0052111)
(0.114136 0 -0.00513108)
(0.112118 0 -0.00497284)
(0.109992 0 -0.00472831)
(0.107909 0 -0.00438838)
(0.106048 0 -0.00394655)
(0.104703 0 -0.00341525)
(0.104157 0 -0.00281248)
(0.104723 0 -0.00217682)
(0.10696 0 -0.00161891)
(0.111283 0 -0.00128386)
(0.118086 0 -0.00141216)
(0.127498 0 -0.00228535)
(0.138574 0 -0.00403545)
(0.0109782 0 -0.000398703)
(0.0313768 0 -0.00114424)
(0.0488945 0 -0.00180132)
(0.0638235 0 -0.00238697)
(0.0764642 0 -0.00291442)
(0.0870842 0 -0.00339402)
(0.0959154 0 -0.00383285)
(0.10316 0 -0.00423647)
(0.108992 0 -0.00460714)
(0.113571 0 -0.00494607)
(0.11704 0 -0.00525294)
(0.11953 0 -0.00552631)
(0.121165 0 -0.00576333)
(0.122059 0 -0.00596003)
(0.122339 0 -0.00611484)
(0.122112 0 -0.00622066)
(0.121494 0 -0.00627126)
(0.12061 0 -0.00626049)
(0.119592 0 -0.00618135)
(0.118627 0 -0.00603481)
(0.117901 0 -0.0058216)
(0.117587 0 -0.00554193)
(0.117964 0 -0.00521824)
(0.119386 0 -0.00489905)
(0.122161 0 -0.00464665)
(0.126705 0 -0.00458541)
(0.133314 0 -0.00487593)
(0.142114 0 -0.00572403)
(0.152686 0 -0.00725902)
(0.163742 0 -0.00935473)
(0.0110554 0 -0.000450094)
(0.0316127 0 -0.00129237)
(0.0492968 0 -0.00203566)
(0.0643971 0 -0.0026993)
(0.0772197 0 -0.00329789)
(0.0880425 0 -0.00384375)
(0.0971029 0 -0.00434468)
(0.104609 0 -0.00480827)
(0.110734 0 -0.00523688)
(0.115646 0 -0.00563277)
(0.119492 0 -0.00599629)
(0.122412 0 -0.00632685)
(0.124535 0 -0.00662247)
(0.125996 0 -0.0068824)
(0.126915 0 -0.00710332)
(0.127409 0 -0.00727993)
(0.127633 0 -0.00741338)
(0.127709 0 -0.00749748)
(0.127795 0 -0.00753206)
(0.128058 0 -0.00751803)
(0.128745 0 -0.00747224)
(0.130065 0 -0.00740905)
(0.132255 0 -0.00735734)
(0.135669 0 -0.00738232)
(0.140613 0 -0.00756915)
(0.147301 0 -0.00803179)
(0.155881 0 -0.00891874)
(0.166055 0 -0.0103408)
(0.177061 0 -0.0122853)
(0.187457 0 -0.0144377)
(0.0111407 0 -0.000500959)
(0.0318709 0 -0.00143901)
(0.0497377 0 -0.00226791)
(0.0650225 0 -0.0030081)
(0.0780411 0 -0.00367753)
(0.0890832 0 -0.00429009)
(0.0983972 0 -0.00485593)
(0.106189 0 -0.0053815)
(0.112632 0 -0.00587032)
(0.117903 0 -0.00632643)
(0.122156 0 -0.00675087)
(0.125538 0 -0.0071443)
(0.128184 0 -0.00750533)
(0.130248 0 -0.00783751)
(0.13185 0 -0.00813646)
(0.133127 0 -0.00840164)
(0.134215 0 -0.00863101)
(0.135298 0 -0.00883148)
(0.136546 0 -0.00900763)
(0.138107 0 -0.00916136)
(0.140251 0 -0.0093192)
(0.143188 0 -0.00950479)
(0.147226 0 -0.00976955)
(0.15257 0 -0.010168)
(0.159546 0 -0.0108036)
(0.168122 0 -0.0117543)
(0.178278 0 -0.013133)
(0.189253 0 -0.0149234)
(0.20017 0 -0.0170166)
(0.209604 0 -0.0190116)
(0.0112328 0 -0.000551157)
(0.0321472 0 -0.00158375)
(0.0501969 0 -0.00249687)
(0.0656811 0 -0.00331324)
(0.0789234 0 -0.00405415)
(0.090211 0 -0.00473446)
(0.0997953 0 -0.00536618)
(0.107882 0 -0.00595476)
(0.114661 0 -0.00650554)
(0.120315 0 -0.00702495)
(0.124998 0 -0.00751411)
(0.128868 0 -0.0079759)
(0.132073 0 -0.0084113)
(0.134754 0 -0.00882061)
(0.137068 0 -0.00920807)
(0.13916 0 -0.00957514)
(0.141158 0 -0.00991907)
(0.143268 0 -0.0102532)
(0.145672 0 -0.0105877)
(0.148565 0 -0.0109366)
(0.152169 0 -0.0113246)
(0.156718 0 -0.0117865)
(0.162488 0 -0.0123774)
(0.169648 0 -0.0131528)
(0.178372 0 -0.0141938)
(0.188495 0 -0.0155467)
(0.199798 0 -0.0172633)
(0.211232 0 -0.0192245)
(0.221867 0 -0.0212622)
(0.230332 0 -0.0229819)
(0.0113298 0 -0.000600278)
(0.032438 0 -0.00172552)
(0.0506831 0 -0.00272167)
(0.06638 0 -0.00361445)
(0.0798567 0 -0.00442659)
(0.0914007 0 -0.00517452)
(0.101265 0 -0.0058709)
(0.109662 0 -0.00652358)
(0.116799 0 -0.00714022)
(0.122853 0 -0.00772587)
(0.127982 0 -0.00828271)
(0.132362 0 -0.00881801)
(0.136142 0 -0.00933341)
(0.139467 0 -0.00982951)
(0.142507 0 -0.0103137)
(0.145411 0 -0.0107897)
(0.14834 0 -0.011263)
(0.151467 0 -0.0117425)
(0.155017 0 -0.0122502)
(0.159194 0 -0.0128059)
(0.164198 0 -0.013436)
(0.170267 0 -0.0141813)
(0.177574 0 -0.0150843)
(0.186335 0 -0.0162107)
(0.196472 0 -0.0175895)
(0.207833 0 -0.0192472)
(0.21993 0 -0.0211498)
(0.231668 0 -0.0231238)
(0.242087 0 -0.0249735)
(0.249905 0 -0.0263988)
(0.0114312 0 -0.000648439)
(0.0327422 0 -0.00186466)
(0.0511927 0 -0.00294268)
(0.0671114 0 -0.00391082)
(0.0808317 0 -0.00479372)
(0.0926415 0 -0.00560906)
(0.102798 0 -0.0063708)
(0.111525 0 -0.00708911)
(0.11903 0 -0.00777295)
(0.125489 0 -0.00842654)
(0.131082 0 -0.00905591)
(0.135983 0 -0.00966843)
(0.140334 0 -0.0102654)
(0.144323 0 -0.0108566)
(0.148082 0 -0.0114426)
(0.151797 0 -0.0120358)
(0.155633 0 -0.0126445)
(0.159756 0 -0.0132792)
(0.164395 0 -0.0139653)
(0.169772 0 -0.0147309)
(0.176031 0 -0.0155961)
(0.183379 0 -0.0166009)
(0.192018 0 -0.0177941)
(0.202021 0 -0.0192125)
(0.213254 0 -0.0208621)
(0.225525 0 -0.0227337)
(0.238177 0 -0.0247192)
(0.250239 0 -0.0266241)
(0.260752 0 -0.0282412)
(0.268494 0 -0.0294155)
(0.011537 0 -0.00069575)
(0.0330588 0 -0.00200147)
(0.0517221 0 -0.00316024)
(0.0678703 0 -0.0042028)
(0.081843 0 -0.00515608)
(0.093926 0 -0.00603867)
(0.104384 0 -0.00686605)
(0.113447 0 -0.00765031)
(0.121321 0 -0.00839994)
(0.128197 0 -0.00912354)
(0.134267 0 -0.00982973)
(0.139687 0 -0.0105219)
(0.144622 0 -0.0112064)
(0.14925 0 -0.0118926)
(0.153718 0 -0.012585)
(0.158198 0 -0.0132948)
(0.162876 0 -0.0140373)
(0.167952 0 -0.0148315)
(0.173605 0 -0.0156969)
(0.180022 0 -0.0166592)
(0.187324 0 -0.0177382)
(0.195716 0 -0.0189747)
(0.20537 0 -0.0204133)
(0.216224 0 -0.0220608)
(0.228171 0 -0.0239146)
(0.240968 0 -0.0259319)
(0.253989 0 -0.0279749)
(0.266425 0 -0.029833)
(0.277474 0 -0.0312854)
(0.285765 0 -0.0322641)
(0.0116455 0 -0.000741802)
(0.0333836 0 -0.00213481)
(0.0522624 0 -0.00337248)
(0.0686479 0 -0.00448914)
(0.0828805 0 -0.00551225)
(0.0952404 0 -0.00646147)
(0.106006 0 -0.00735417)
(0.115409 0 -0.00820469)
(0.123663 0 -0.009023)
(0.130963 0 -0.0098177)
(0.137496 0 -0.0105987)
(0.143414 0 -0.0113683)
(0.148912 0 -0.0121404)
(0.15415 0 -0.0129211)
(0.159286 0 -0.0137189)
(0.164475 0 -0.0145431)
(0.169943 0 -0.015419)
(0.175875 0 -0.0163662)
(0.182393 0 -0.0173963)
(0.189639 0 -0.01853)
(0.197764 0 -0.0197957)
(0.206941 0 -0.0212298)
(0.217231 0 -0.0228563)
(0.228561 0 -0.0246771)
(0.240795 0 -0.0266782)
(0.25368 0 -0.0288082)
(0.266678 0 -0.0309395)
(0.279174 0 -0.0328867)
(0.290653 0 -0.0343997)
(0.300053 0 -0.0352756)
(0.0119714 0 -0.00397085)
(0.0242547 0 -0.00446278)
(0.0440748 0 -0.00465837)
(0.0673475 0 -0.0046373)
(0.090601 0 -0.00446688)
(0.111875 0 -0.00423319)
(0.130474 0 -0.00396555)
(0.14628 0 -0.00369109)
(0.159412 0 -0.00342452)
(0.170094 0 -0.00316316)
(0.178541 0 -0.00292248)
(0.184959 0 -0.00268764)
(0.189505 0 -0.00248081)
(0.192315 0 -0.0022858)
(0.193485 0 -0.00210443)
(0.193075 0 -0.00192681)
(0.191132 0 -0.00176652)
(0.187669 0 -0.00161691)
(0.182688 0 -0.00147947)
(0.176171 0 -0.00134569)
(0.168076 0 -0.00121746)
(0.158354 0 -0.00109352)
(0.146944 0 -0.000972625)
(0.133782 0 -0.000853986)
(0.11878 0 -0.000734271)
(0.101892 0 -0.000610724)
(0.0830329 0 -0.000486837)
(0.0620702 0 -0.000358393)
(0.0389368 0 -0.000222826)
(0.0134131 0 -7.68484e-05)
(0.0203797 0 -0.0117182)
(0.033092 0 -0.0130004)
(0.0521838 0 -0.0134809)
(0.0741709 0 -0.0134129)
(0.0961307 0 -0.0129494)
(0.116309 0 -0.0122952)
(0.13403 0 -0.011552)
(0.149141 0 -0.0107757)
(0.161729 0 -0.0100217)
(0.171973 0 -0.0092738)
(0.180074 0 -0.00858703)
(0.186215 0 -0.00792583)
(0.190536 0 -0.00731232)
(0.19316 0 -0.00674343)
(0.194181 0 -0.00621807)
(0.193649 0 -0.00571129)
(0.191605 0 -0.00524403)
(0.188056 0 -0.00480365)
(0.183006 0 -0.00438666)
(0.176435 0 -0.00399101)
(0.168295 0 -0.00361251)
(0.158536 0 -0.00324622)
(0.147094 0 -0.00288837)
(0.133909 0 -0.0025377)
(0.118901 0 -0.00218333)
(0.101995 0 -0.00182076)
(0.0831039 0 -0.00145233)
(0.0621192 0 -0.00106951)
(0.038953 0 -0.000664923)
(0.0134099 0 -0.000228746)
(0.035664 0 -0.0189046)
(0.0488592 0 -0.020654)
(0.0666516 0 -0.0212913)
(0.0865433 0 -0.0211598)
(0.106323 0 -0.0204905)
(0.124581 0 -0.0195166)
(0.140739 0 -0.0184153)
(0.154579 0 -0.0172369)
(0.166163 0 -0.0160927)
(0.175595 0 -0.0149525)
(0.18304 0 -0.0138705)
(0.188647 0 -0.0128531)
(0.192532 0 -0.0118824)
(0.194805 0 -0.0109781)
(0.195532 0 -0.0101295)
(0.194762 0 -0.00932913)
(0.192525 0 -0.00858286)
(0.18882 0 -0.00787281)
(0.183639 0 -0.00719267)
(0.176956 0 -0.00654918)
(0.168727 0 -0.00593359)
(0.158894 0 -0.00533592)
(0.147385 0 -0.00474977)
(0.13415 0 -0.00416999)
(0.119113 0 -0.00358956)
(0.10217 0 -0.0029995)
(0.0832372 0 -0.0023944)
(0.0622151 0 -0.00176405)
(0.039019 0 -0.00109724)
(0.013438 0 -0.000377624)
(0.0560666 0 -0.0255951)
(0.0693171 0 -0.0274379)
(0.085483 0 -0.0281014)
(0.102847 0 -0.0278782)
(0.119999 0 -0.027064)
(0.13586 0 -0.0258678)
(0.150021 0 -0.0245195)
(0.162206 0 -0.02306)
(0.172427 0 -0.0216011)
(0.180737 0 -0.0201602)
(0.187268 0 -0.0187566)
(0.192124 0 -0.0174211)
(0.195395 0 -0.0161538)
(0.197168 0 -0.0149638)
(0.197479 0 -0.0138296)
(0.196367 0 -0.0127594)
(0.193846 0 -0.0117494)
(0.189915 0 -0.010792)
(0.184545 0 -0.00987786)
(0.177703 0 -0.00900474)
(0.169347 0 -0.00816828)
(0.159412 0 -0.00735186)
(0.147824 0 -0.0065491)
(0.134516 0 -0.00575013)
(0.119411 0 -0.00495204)
(0.102411 0 -0.00414167)
(0.0834236 0 -0.00330819)
(0.0623478 0 -0.00243821)
(0.0390848 0 -0.00151635)
(0.013451 0 -0.000521645)
(0.0797913 0 -0.0317691)
(0.0925678 0 -0.0334451)
(0.106858 0 -0.0339814)
(0.121573 0 -0.033638)
(0.135985 0 -0.0327186)
(0.149323 0 -0.0313993)
(0.161248 0 -0.0298736)
(0.171538 0 -0.0282346)
(0.180139 0 -0.0265388)
(0.187115 0 -0.0248563)
(0.192551 0 -0.0232184)
(0.196487 0 -0.0216276)
(0.199003 0 -0.0201073)
(0.200143 0 -0.0186611)
(0.199941 0 -0.017292)
(0.198403 0 -0.0159865)
(0.195529 0 -0.0147415)
(0.191305 0 -0.0135595)
(0.185696 0 -0.01243)
(0.178651 0 -0.0113442)
(0.170129 0 -0.0102954)
(0.160065 0 -0.00927413)
(0.148369 0 -0.00826829)
(0.13497 0 -0.00726769)
(0.119781 0 -0.00626338)
(0.102709 0 -0.005242)
(0.0836549 0 -0.00418934)
(0.0625144 0 -0.00308882)
(0.0391824 0 -0.00192125)
(0.0134817 0 -0.0006606)
(0.105303 0 -0.0373292)
(0.117085 0 -0.0386676)
(0.129362 0 -0.0389874)
(0.14154 0 -0.0385299)
(0.153305 0 -0.0375348)
(0.164158 0 -0.0361647)
(0.17376 0 -0.0345262)
(0.182052 0 -0.0327645)
(0.188937 0 -0.0309229)
(0.194455 0 -0.0290645)
(0.198643 0 -0.0272302)
(0.201552 0 -0.0254525)
(0.203208 0 -0.0237335)
(0.203622 0 -0.0220732)
(0.202817 0 -0.0204906)
(0.200784 0 -0.0189804)
(0.197504 0 -0.0175403)
(0.192941 0 -0.0161607)
(0.187053 0 -0.014838)
(0.179783 0 -0.0135603)
(0.171066 0 -0.0123161)
(0.160838 0 -0.0111035)
(0.149009 0 -0.00990781)
(0.135498 0 -0.00871658)
(0.120212 0 -0.00751747)
(0.103055 0 -0.00629551)
(0.0839232 0 -0.00503381)
(0.0627089 0 -0.00371284)
(0.0393023 0 -0.00230992)
(0.013523 0 -0.000794189)
(0.13135 0 -0.0421045)
(0.141743 0 -0.0430632)
(0.152011 0 -0.043177)
(0.161906 0 -0.042653)
(0.171185 0 -0.0416155)
(0.179655 0 -0.0402234)
(0.187043 0 -0.0385429)
(0.193305 0 -0.0366947)
(0.198446 0 -0.0347676)
(0.202443 0 -0.0327974)
(0.205312 0 -0.0308178)
(0.207104 0 -0.0288801)
(0.207836 0 -0.0270071)
(0.207479 0 -0.0251884)
(0.206019 0 -0.0234309)
(0.20344 0 -0.0217443)
(0.199702 0 -0.0201259)
(0.194763 0 -0.0185726)
(0.188567 0 -0.017081)
(0.181042 0 -0.0156323)
(0.172113 0 -0.014218)
(0.161703 0 -0.0128315)
(0.149724 0 -0.0114603)
(0.136085 0 -0.010091)
(0.12069 0 -0.00870907)
(0.103438 0 -0.00729783)
(0.0842198 0 -0.00583808)
(0.0629251 0 -0.00430765)
(0.0394392 0 -0.00268074)
(0.0135722 0 -0.000921745)
(0.156908 0 -0.045992)
(0.165773 0 -0.0466553)
(0.174183 0 -0.0466463)
(0.18204 0 -0.0461078)
(0.18906 0 -0.0450645)
(0.19532 0 -0.0436677)
(0.200611 0 -0.0419825)
(0.204903 0 -0.0400886)
(0.208282 0 -0.0380939)
(0.210748 0 -0.0360502)
(0.212306 0 -0.0339859)
(0.212959 0 -0.031932)
(0.212727 0 -0.0299328)
(0.211567 0 -0.0279896)
(0.209437 0 -0.0261014)
(0.206291 0 -0.0242744)
(0.202071 0 -0.0225049)
(0.196722 0 -0.0207984)
(0.19019 0 -0.0191541)
(0.182394 0 -0.0175541)
(0.173235 0 -0.0159865)
(0.16263 0 -0.0144431)
(0.150487 0 -0.0129119)
(0.136711 0 -0.0113788)
(0.121198 0 -0.00982757)
(0.103842 0 -0.00824002)
(0.0845327 0 -0.00659494)
(0.0631531 0 -0.00486786)
(0.039587 0 -0.00303043)
(0.013627 0 -0.0010421)
(0.181257 0 -0.0490733)
(0.188749 0 -0.0495833)
(0.195536 0 -0.0495434)
(0.201555 0 -0.0490154)
(0.20658 0 -0.0479857)
(0.210736 0 -0.046577)
(0.21401 0 -0.0448843)
(0.216446 0 -0.042978)
(0.218101 0 -0.040939)
(0.219088 0 -0.0388506)
(0.219363 0 -0.036732)
(0.218914 0 -0.034611)
(0.217716 0 -0.0325169)
(0.215757 0 -0.0304802)
(0.21295 0 -0.0284902)
(0.209232 0 -0.0265524)
(0.20453 0 -0.0246671)
(0.198768 0 -0.0228343)
(0.191886 0 -0.0210545)
(0.183802 0 -0.0193207)
(0.174401 0 -0.017617)
(0.163593 0 -0.0159337)
(0.151279 0 -0.0142584)
(0.137357 0 -0.012576)
(0.12172 0 -0.0108695)
(0.104257 0 -0.00911903)
(0.0848515 0 -0.00730187)
(0.0633844 0 -0.00539153)
(0.0397446 0 -0.00335818)
(0.0136916 0 -0.00115575)
(0.204095 0 -0.0515882)
(0.21054 0 -0.0520646)
(0.215911 0 -0.0520312)
(0.220219 0 -0.0514916)
(0.223371 0 -0.0504494)
(0.225513 0 -0.0490112)
(0.22687 0 -0.0472997)
(0.227547 0 -0.0453861)
(0.227619 0 -0.0433332)
(0.227203 0 -0.0412209)
(0.226263 0 -0.0390768)
(0.224766 0 -0.0369197)
(0.222659 0 -0.0347701)
(0.21992 0 -0.0326642)
(0.216456 0 -0.0306005)
(0.212177 0 -0.0285788)
(0.207001 0 -0.0266017)
(0.200835 0 -0.0246678)
(0.193604 0 -0.0227757)
(0.185227 0 -0.0209275)
(0.17558 0 -0.0191056)
(0.164564 0 -0.0172994)
(0.152075 0 -0.0154958)
(0.138005 0 -0.0136792)
(0.122241 0 -0.0118316)
(0.104668 0 -0.00993218)
(0.085165 0 -0.00795662)
(0.0636068 0 -0.00587665)
(0.0398667 0 -0.00365953)
(0.0137248 0 -0.00125869)
(0.225499 0 -0.0538274)
(0.231128 0 -0.054307)
(0.235182 0 -0.0542335)
(0.237767 0 -0.0536046)
(0.239022 0 -0.0524823)
(0.239266 0 -0.0509914)
(0.238835 0 -0.0492545)
(0.237899 0 -0.0473395)
(0.236549 0 -0.0452976)
(0.23485 0 -0.0431851)
(0.232802 0 -0.0410386)
(0.230347 0 -0.0388711)
(0.227415 0 -0.0367008)
(0.223942 0 -0.0345505)
(0.219856 0 -0.0324365)
(0.215047 0 -0.0303555)
(0.209418 0 -0.0283105)
(0.202869 0 -0.0263007)
(0.195306 0 -0.0243226)
(0.186637 0 -0.022379)
(0.176745 0 -0.0204568)
(0.165523 0 -0.0185442)
(0.152858 0 -0.0166277)
(0.138639 0 -0.0146914)
(0.122748 0 -0.0127166)
(0.105066 0 -0.0106815)
(0.0854655 0 -0.00856079)
(0.063818 0 -0.00632465)
(0.0399887 0 -0.00393847)
(0.0137622 0 -0.001354)
(0.245792 0 -0.0560286)
(0.250589 0 -0.0564405)
(0.253142 0 -0.0561801)
(0.253837 0 -0.0553458)
(0.253164 0 -0.0540798)
(0.251612 0 -0.0525169)
(0.249567 0 -0.0507595)
(0.24721 0 -0.0488577)
(0.244617 0 -0.0468451)
(0.241809 0 -0.0447587)
(0.238798 0 -0.0426337)
(0.235505 0 -0.0404803)
(0.231847 0 -0.0383156)
(0.227731 0 -0.036154)
(0.223081 0 -0.0340139)
(0.217784 0 -0.0318972)
(0.211733 0 -0.0298065)
(0.204822 0 -0.0277419)
(0.196946 0 -0.0257013)
(0.188001 0 -0.023683)
(0.177873 0 -0.0216778)
(0.166449 0 -0.0196745)
(0.153612 0 -0.0176596)
(0.139247 0 -0.0156172)
(0.123231 0 -0.0135282)
(0.105441 0 -0.0113701)
(0.0857466 0 -0.00911679)
(0.0640139 0 -0.00673731)
(0.0401037 0 -0.0041957)
(0.0137995 0 -0.00144211)
(0.265286 0 -0.0583008)
(0.268816 0 -0.0584331)
(0.269302 0 -0.0577595)
(0.267875 0 -0.0566172)
(0.265323 0 -0.0551879)
(0.262163 0 -0.0535688)
(0.258752 0 -0.0518175)
(0.255233 0 -0.0499562)
(0.251639 0 -0.048001)
(0.24795 0 -0.0459707)
(0.244151 0 -0.0438911)
(0.24016 0 -0.0417756)
(0.235883 0 -0.0396385)
(0.231222 0 -0.0374932)
(0.22608 0 -0.0353525)
(0.220346 0 -0.0332225)
(0.213911 0 -0.0311066)
(0.206663 0 -0.0290059)
(0.198493 0 -0.0269192)
(0.18929 0 -0.0248435)
(0.178938 0 -0.0227711)
(0.16732 0 -0.0206918)
(0.154319 0 -0.0185925)
(0.139812 0 -0.0164571)
(0.123676 0 -0.0142665)
(0.105783 0 -0.0119979)
(0.0859999 0 -0.0096244)
(0.0641884 0 -0.00711437)
(0.040206 0 -0.00443089)
(0.0138332 0 -0.00152271)
(0.283714 0 -0.0604915)
(0.284897 0 -0.0599469)
(0.282658 0 -0.05868)
(0.279115 0 -0.0572506)
(0.274994 0 -0.0557362)
(0.270633 0 -0.0541366)
(0.266238 0 -0.0524473)
(0.26188 0 -0.050666)
(0.257553 0 -0.0487968)
(0.253218 0 -0.0468511)
(0.24882 0 -0.0448445)
(0.244277 0 -0.0427901)
(0.239494 0 -0.0407013)
(0.234371 0 -0.0385907)
(0.228807 0 -0.0364694)
(0.222691 0 -0.0343447)
(0.215913 0 -0.0322213)
(0.20836 0 -0.030101)
(0.19992 0 -0.0279834)
(0.190477 0 -0.0258654)
(0.179916 0 -0.0237404)
(0.168118 0 -0.0215988)
(0.15496 0 -0.019428)
(0.14032 0 -0.0172122)
(0.124071 0 -0.0149322)
(0.106082 0 -0.0125652)
(0.0862179 0 -0.0100838)
(0.0643361 0 -0.00745588)
(0.0402913 0 -0.00464395)
(0.013861 0 -0.0015957)
(0.298605 0 -0.0617598)
(0.296747 0 -0.0601596)
(0.29214 0 -0.0585292)
(0.287115 0 -0.057093)
(0.282038 0 -0.0556899)
(0.277006 0 -0.0542304)
(0.272061 0 -0.0526794)
(0.267204 0 -0.0510274)
(0.262406 0 -0.049277)
(0.257625 0 -0.0474391)
(0.252793 0 -0.0455265)
(0.24783 0 -0.0435517)
(0.242647 0 -0.0415278)
(0.237147 0 -0.0394675)
(0.231229 0 -0.0373814)
(0.224786 0 -0.0352776)
(0.217709 0 -0.0331615)
(0.209885 0 -0.031036)
(0.201201 0 -0.0289011)
(0.191541 0 -0.0267543)
(0.180789 0 -0.0245898)
(0.168823 0 -0.0223985)
(0.155522 0 -0.0201684)
(0.140759 0 -0.0178841)
(0.124406 0 -0.0155265)
(0.106331 0 -0.0130727)
(0.0863937 0 -0.0104954)
(0.0644516 0 -0.00776209)
(0.0403561 0 -0.00483498)
(0.0138816 0 -0.00166108)
(0.011756 0 -0.000786991)
(0.0337169 0 -0.00226593)
(0.052831 0 -0.00358242)
(0.0694587 0 -0.00477246)
(0.0839441 0 -0.00586415)
(0.0965825 0 -0.00687965)
(0.107666 0 -0.00783916)
(0.117427 0 -0.00875773)
(0.126064 0 -0.00964558)
(0.133775 0 -0.0105105)
(0.140753 0 -0.0113645)
(0.147169 0 -0.0122142)
(0.15321 0 -0.0130725)
(0.159031 0 -0.0139473)
(0.164786 0 -0.0148471)
(0.170665 0 -0.0157899)
(0.176866 0 -0.0167974)
(0.183507 0 -0.0178799)
(0.190702 0 -0.0190506)
(0.198597 0 -0.0203338)
(0.207314 0 -0.0217545)
(0.216973 0 -0.0233417)
(0.227564 0 -0.0251061)
(0.238976 0 -0.0270435)
(0.251037 0 -0.029137)
(0.263472 0 -0.0313482)
(0.275759 0 -0.0336002)
(0.287347 0 -0.0358671)
(0.297623 0 -0.0382723)
(0.306254 0 -0.0414385)
(0.0118686 0 -0.00083154)
(0.0340575 0 -0.00239538)
(0.0534101 0 -0.00378978)
(0.0702854 0 -0.00505192)
(0.0850311 0 -0.00621198)
(0.0979584 0 -0.00729409)
(0.109369 0 -0.00832169)
(0.119484 0 -0.00930822)
(0.128496 0 -0.0102641)
(0.136624 0 -0.0112017)
(0.144056 0 -0.0121316)
(0.150962 0 -0.013063)
(0.157514 0 -0.0140056)
(0.163885 0 -0.0149726)
(0.17023 0 -0.0159747)
(0.176737 0 -0.017031)
(0.183533 0 -0.0181524)
(0.190724 0 -0.0193493)
(0.198437 0 -0.0206399)
(0.206782 0 -0.0220445)
(0.215844 0 -0.023583)
(0.225687 0 -0.0252762)
(0.236227 0 -0.0271209)
(0.24732 0 -0.0291094)
(0.258749 0 -0.0312229)
(0.270173 0 -0.0334268)
(0.281084 0 -0.0356725)
(0.290974 0 -0.0379644)
(0.299389 0 -0.040409)
(0.305821 0 -0.0431803)
(0.0119814 0 -0.000874857)
(0.0343999 0 -0.00252148)
(0.0539912 0 -0.00399195)
(0.0711182 0 -0.00532515)
(0.086129 0 -0.006553)
(0.0993542 0 -0.00770263)
(0.111094 0 -0.00879757)
(0.121558 0 -0.00985128)
(0.130947 0 -0.0108756)
(0.139479 0 -0.0118846)
(0.147335 0 -0.0128875)
(0.154691 0 -0.0138953)
(0.16174 0 -0.0149231)
(0.16862 0 -0.0159793)
(0.17549 0 -0.0170767)
(0.182497 0 -0.0182284)
(0.189742 0 -0.0194429)
(0.19734 0 -0.0207344)
(0.205394 0 -0.0221186)
(0.213979 0 -0.023611)
(0.22314 0 -0.0252253)
(0.232872 0 -0.0269706)
(0.243049 0 -0.0288368)
(0.253507 0 -0.0308132)
(0.263996 0 -0.0328776)
(0.274174 0 -0.0349997)
(0.283625 0 -0.0371528)
(0.291962 0 -0.0393493)
(0.298759 0 -0.0416176)
(0.303669 0 -0.0440294)
(0.0120927 0 -0.000916604)
(0.03474 0 -0.0026433)
(0.0545699 0 -0.00418768)
(0.0719504 0 -0.0055903)
(0.0872406 0 -0.00688578)
(0.100763 0 -0.00810182)
(0.112818 0 -0.00926234)
(0.123621 0 -0.0103815)
(0.133368 0 -0.011472)
(0.142278 0 -0.012548)
(0.150539 0 -0.013622)
(0.158332 0 -0.0147063)
(0.165824 0 -0.0158129)
(0.173132 0 -0.0169465)
(0.180416 0 -0.018123)
(0.187791 0 -0.0193505)
(0.195363 0 -0.0206403)
(0.203225 0 -0.0220042)
(0.21145 0 -0.023454)
(0.220081 0 -0.025)
(0.229122 0 -0.0266491)
(0.23852 0 -0.0284015)
(0.248145 0 -0.0302465)
(0.257815 0 -0.0321692)
(0.267283 0 -0.0341476)
(0.276255 0 -0.0361579)
(0.284414 0 -0.0381851)
(0.291417 0 -0.0402161)
(0.296968 0 -0.0422503)
(0.300869 0 -0.0443344)
(0.0122009 0 -0.000956407)
(0.0350738 0 -0.00275986)
(0.0551399 0 -0.00437539)
(0.0727738 0 -0.00584523)
(0.0883371 0 -0.00720597)
(0.102157 0 -0.00848664)
(0.11452 0 -0.00971018)
(0.125638 0 -0.0108914)
(0.135724 0 -0.0120452)
(0.144996 0 -0.0131867)
(0.153634 0 -0.0143278)
(0.1618 0 -0.0154793)
(0.169642 0 -0.0166498)
(0.177293 0 -0.0178488)
(0.184888 0 -0.0190881)
(0.192531 0 -0.0203765)
(0.200314 0 -0.0217234)
(0.208308 0 -0.0231378)
(0.216559 0 -0.0246275)
(0.225083 0 -0.0261979)
(0.233854 0 -0.0278506)
(0.242795 0 -0.0295807)
(0.251775 0 -0.0313763)
(0.260617 0 -0.0332214)
(0.269104 0 -0.0350959)
(0.276999 0 -0.036982)
(0.28403 0 -0.038856)
(0.289949 0 -0.0406983)
(0.294585 0 -0.0425102)
(0.297819 0 -0.044301)
(0.0123037 0 -0.000993841)
(0.0353981 0 -0.00287014)
(0.0556947 0 -0.00455346)
(0.0735828 0 -0.00608847)
(0.0894272 0 -0.00751303)
(0.103518 0 -0.00885386)
(0.116163 0 -0.0101362)
(0.127589 0 -0.0113768)
(0.13799 0 -0.0125896)
(0.147578 0 -0.0137895)
(0.156527 0 -0.0149873)
(0.164996 0 -0.0161944)
(0.173127 0 -0.0174197)
(0.181047 0 -0.0186726)
(0.188869 0 -0.0199624)
(0.196689 0 -0.0212969)
(0.204579 0 -0.0226834)
(0.212592 0 -0.0241282)
(0.220754 0 -0.0256355)
(0.229059 0 -0.0272067)
(0.237462 0 -0.0288395)
(0.24588 0 -0.030526)
(0.254191 0 -0.0322547)
(0.262235 0 -0.0340103)
(0.269828 0 -0.0357737)
(0.276767 0 -0.0375234)
(0.28285 0 -0.0392362)
(0.287921 0 -0.0408999)
(0.291875 0 -0.042508)
(0.294649 0 -0.0440514)
(0.0123981 0 -0.0010284)
(0.0357131 0 -0.00297365)
(0.0562495 0 -0.00472223)
(0.0743795 0 -0.00631891)
(0.0904758 0 -0.0078018)
(0.104825 0 -0.00919836)
(0.117729 0 -0.0105344)
(0.129416 0 -0.0118271)
(0.140092 0 -0.0130916)
(0.149953 0 -0.014342)
(0.159166 0 -0.0155889)
(0.167886 0 -0.0168436)
(0.176247 0 -0.0181145)
(0.184364 0 -0.0194101)
(0.192339 0 -0.0207378)
(0.200251 0 -0.0221042)
(0.208161 0 -0.0235145)
(0.216103 0 -0.0249721)
(0.22409 0 -0.0264786)
(0.2321 0 -0.0280323)
(0.240082 0 -0.0296282)
(0.247953 0 -0.031257)
(0.255616 0 -0.0329105)
(0.262923 0 -0.0345703)
(0.269705 0 -0.0362148)
(0.275817 0 -0.0378259)
(0.281125 0 -0.0393874)
(0.285528 0 -0.0408868)
(0.288962 0 -0.0423137)
(0.291401 0 -0.0436534)
(0.0125039 0 -0.00106149)
(0.0360327 0 -0.00307082)
(0.0567931 0 -0.00487938)
(0.0751376 0 -0.00653113)
(0.0914453 0 -0.00806512)
(0.106024 0 -0.00951132)
(0.119157 0 -0.0108945)
(0.131078 0 -0.0122332)
(0.141992 0 -0.0135427)
(0.152087 0 -0.0148369)
(0.161523 0 -0.0161261)
(0.170444 0 -0.01742)
(0.178976 0 -0.0187269)
(0.187228 0 -0.0200543)
(0.195286 0 -0.0214081)
(0.20322 0 -0.0227933)
(0.211076 0 -0.0242131)
(0.21888 0 -0.0256688)
(0.226631 0 -0.0271598)
(0.234302 0 -0.0286823)
(0.241842 0 -0.0302299)
(0.249184 0 -0.0317953)
(0.25623 0 -0.0333661)
(0.262846 0 -0.0349223)
(0.268917 0 -0.0364485)
(0.274336 0 -0.0379295)
(0.279011 0 -0.0393517)
(0.282878 0 -0.0407028)
(0.285904 0 -0.0419719)
(0.288083 0 -0.0431443)
(0.0126153 0 -0.0010923)
(0.036335 0 -0.00315832)
(0.0572743 0 -0.00501806)
(0.0758071 0 -0.0067177)
(0.0923082 0 -0.00829701)
(0.107091 0 -0.00978674)
(0.120429 0 -0.0112114)
(0.132555 0 -0.0125899)
(0.143671 0 -0.0139379)
(0.153959 0 -0.0152682)
(0.163573 0 -0.0165916)
(0.172648 0 -0.0179166)
(0.181302 0 -0.0192505)
(0.18963 0 -0.0205995)
(0.197712 0 -0.0219682)
(0.205608 0 -0.0233603)
(0.213355 0 -0.0247773)
(0.22097 0 -0.0262191)
(0.228447 0 -0.0276832)
(0.235761 0 -0.029165)
(0.242863 0 -0.0306577)
(0.249691 0 -0.0321524)
(0.256155 0 -0.0336345)
(0.262157 0 -0.0350891)
(0.267614 0 -0.0365031)
(0.272449 0 -0.0378635)
(0.276603 0 -0.0391587)
(0.280035 0 -0.0403777)
(0.28273 0 -0.0415103)
(0.284696 0 -0.0425443)
(0.0127016 0 -0.00111769)
(0.0365809 0 -0.00323142)
(0.0576779 0 -0.00513494)
(0.076376 0 -0.00687563)
(0.0930485 0 -0.00849381)
(0.108009 0 -0.0100206)
(0.121525 0 -0.0114804)
(0.133826 0 -0.0128923)
(0.145112 0 -0.0142716)
(0.155554 0 -0.0156308)
(0.165302 0 -0.01698)
(0.174485 0 -0.0183272)
(0.183211 0 -0.0196791)
(0.191569 0 -0.0210403)
(0.199627 0 -0.0224142)
(0.207437 0 -0.0238027)