/*--------------------------------*- C++ -*----------------------------------*\
| =========                 |                                                 |
| \\      /  F ield         | OpenFOAM: The Open Source CFD Toolbox           |
|  \\    /   O peration     | Version:  dev                                   |
|   \\  /    A nd           | Web:      www.OpenFOAM.org                      |
|    \\/     M anipulation  |                                                 |
\*---------------------------------------------------------------------------*/
FoamFile
{
    version     2.0;
    format      ascii;
    class       surfaceScalarField;
    location    "0.34";
    object      phi;
}
// * * * * * * * * * * * * * * * * * * * * * * * * * * * * * * * * * * * * * //

dimensions      [0 3 -1 0 0 0 0];

internalField   nonuniform List<scalar> 
5457
(
0.198351
0.00164653
0.19641
0.00193999
0.194144
0.00226533
0.191515
0.00262984
0.18852
0.00299663
0.185161
0.00336206
0.18143
0.00373359
0.177316
0.004118
0.1728
0.00451991
0.167861
0.00494284
0.162474
0.00538962
0.156614
0.00586236
0.150254
0.0063621
0.143366
0.00688843
0.135927
0.00743889
0.127917
0.00800821
0.119327
0.0085875
0.110162
0.00916319
0.100443
0.00971606
0.0902192
0.0102204
0.0795728
0.0106434
0.0686244
0.0109455
0.0575404
0.0110815
0.0465354
0.0110031
0.0358704
0.0106635
0.0258468
0.0100227
0.016796
0.00905025
0.00907459
0.0077211
0.00304975
0.00602473
0.00304972
0.199934
0.00171055
0.19919
0.0026823
0.19802
0.00343452
0.196455
0.00419565
0.194491
0.00496255
0.192125
0.0057303
0.189352
0.00651026
0.186159
0.00731492
0.182529
0.00815368
0.178441
0.00903388
0.173873
0.00996155
0.168796
0.0109413
0.163184
0.011976
0.157007
0.0130655
0.15024
0.0142061
0.142858
0.0153889
0.134845
0.0165982
0.126196
0.0178099
0.116919
0.0189896
0.107046
0.0200911
0.0966295
0.0210565
0.0857556
0.0218164
0.0745413
0.0222933
0.0631355
0.0224068
0.0517152
0.0220824
0.0404751
0.0212618
0.0296091
0.0199156
0.0192749
0.018055
0.00948567
0.0158138
0.0125354
0.199785
0.00192309
0.199101
0.00336463
0.197999
0.00453614
0.196529
0.00566703
0.194694
0.0067983
0.192494
0.00793333
0.189922
0.00908555
0.186969
0.0102715
0.183622
0.0115049
0.179862
0.0127969
0.17567
0.0141569
0.171021
0.0155926
0.16589
0.0171089
0.160249
0.0187077
0.154068
0.020386
0.147322
0.0221343
0.139983
0.0239344
0.132034
0.0257571
0.12346
0.0275598
0.114264
0.0292845
0.10446
0.0308574
0.094084
0.0321897
0.0831926
0.0331821
0.0718657
0.0337318
0.0602029
0.0337437
0.048317
0.0331467
0.0363184
0.0319137
0.0242884
0.0300847
0.0122114
0.0278907
0.0247468
0.199702
0.00221886
0.199019
0.00404596
0.197936
0.00561895
0.196488
0.00711505
0.194689
0.00859933
0.192536
0.0100881
0.190027
0.0115978
0.187155
0.0131477
0.183909
0.0147549
0.180275
0.0164339
0.176238
0.0181971
0.171779
0.0200543
0.166876
0.0220133
0.161507
0.0240777
0.155646
0.0262466
0.149268
0.0285117
0.142345
0.0308558
0.13485
0.0332496
0.126758
0.0356491
0.118046
0.0379933
0.108698
0.0402024
0.0987055
0.0421792
0.088073
0.0438121
0.0768202
0.0449826
0.0649855
0.0455769
0.0526286
0.0455026
0.0398313
0.0447104
0.0267009
0.0432148
0.0133813
0.0412102
0.038128
0.199663
0.00255364
0.198972
0.00473486
0.197906
0.00668426
0.196485
0.00853706
0.19472
0.0103652
0.192614
0.0121971
0.190161
0.0140534
0.187357
0.0159556
0.184192
0.0179239
0.180654
0.0199755
0.176729
0.022125
0.172401
0.0243849
0.167652
0.0267646
0.16246
0.0292701
0.156804
0.0319024
0.150659
0.0346559
0.143997
0.0375161
0.136788
0.040457
0.128996
0.043438
0.120585
0.0464015
0.111514
0.04927
0.101745
0.0519461
0.09124
0.0543142
0.0799761
0.0562445
0.0679499
0.0576017
0.0551945
0.058257
0.0417991
0.0581052
0.0279359
0.0570777
0.0139125
0.0552335
0.0520405
0.199646
0.0029053
0.198953
0.00542588
0.197908
0.0077284
0.19652
0.00992526
0.1948
0.0120872
0.192748
0.0142511
0.190362
0.0164425
0.187635
0.0186856
0.18456
0.0210029
0.181125
0.0234142
0.177317
0.0259365
0.17312
0.0285845
0.168517
0.0313698
0.163487
0.0343006
0.158009
0.0373808
0.152056
0.0406078
0.145599
0.0439716
0.138602
0.0474512
0.131025
0.051013
0.122817
0.0546066
0.113922
0.0581626
0.104275
0.0615895
0.0938144
0.0647727
0.0824831
0.0675737
0.0702514
0.0698319
0.0571401
0.0713673
0.0432557
0.071989
0.0288304
0.0715026
0.0142823
0.0697816
0.0663227
0.199641
0.00326143
0.198954
0.00611088
0.197935
0.00874693
0.196587
0.0112731
0.194919
0.0137569
0.192932
0.0162406
0.190623
0.0187543
0.187987
0.0213251
0.185016
0.0239778
0.181699
0.0267348
0.178023
0.0296156
0.173973
0.0326371
0.169531
0.0358136
0.164676
0.0391562
0.159386
0.0426719
0.15363
0.0463625
0.147377
0.0502233
0.140586
0.0542407
0.133207
0.0583895
0.125181
0.0626302
0.116436
0.0669046
0.106891
0.0711314
0.0964603
0.0752011
0.0850631
0.0789689
0.0726467
0.0822468
0.0592179
0.0847951
0.0448884
0.0863178
0.0299228
0.0864679
0.0147893
0.084915
0.0811119
0.199644
0.0036144
0.198971
0.00678234
0.197982
0.00973473
0.196681
0.0125744
0.195072
0.0153663
0.193159
0.018156
0.190939
0.0209777
0.188406
0.0238614
0.185553
0.0268342
0.18237
0.0299211
0.178845
0.033144
0.174962
0.0365227
0.170704
0.0400742
0.166048
0.0438131
0.16097
0.0477504
0.155439
0.0518933
0.149417
0.0562437
0.14286
0.0607964
0.13571
0.0655372
0.127899
0.0704391
0.119342
0.0754584
0.109943
0.0805276
0.0995954
0.0855467
0.0881932
0.0903692
0.0756546
0.0947839
0.0619559
0.0984927
0.0471834
0.10109
0.0315914
0.10206
0.0156452
0.100861
0.0967571
0.199652
0.00395908
0.198998
0.00743392
0.198045
0.0106864
0.196797
0.0138231
0.195256
0.0169079
0.193426
0.0199883
0.191304
0.0231023
0.188886
0.0262822
0.186166
0.0295581
0.183134
0.0329569
0.179778
0.0365035
0.176083
0.0402202
0.172032
0.0441274
0.167603
0.0482435
0.162769
0.0525844
0.157499
0.0571632
0.151753
0.0619894
0.14548
0.0670678
0.138619
0.0723963
0.131093
0.077963
0.122808
0.0837412
0.113651
0.0896816
0.103495
0.0957002
0.0922043
0.101658
0.0796515
0.107335
0.0657534
0.11239
0.0505226
0.11632
0.0341437
0.118438
0.0170276
0.117977
0.113785
0.199664
0.00429178
0.199035
0.00806035
0.198123
0.0115969
0.196933
0.0150135
0.195467
0.0183746
0.193728
0.0217292
0.191715
0.0251181
0.189424
0.0285763
0.186849
0.0321361
0.183983
0.0358269
0.180813
0.039676
0.177328
0.0437087
0.173509
0.0479487
0.169335
0.0524185
0.164781
0.0571391
0.159815
0.06213
0.154394
0.0674092
0.148469
0.0729919
0.141974
0.0788897
0.134828
0.0851072
0.126928
0.0916381
0.118151
0.0984567
0.108345
0.105504
0.0973347
0.112667
0.0849309
0.119738
0.0709504
0.126369
0.0552654
0.132004
0.0379014
0.135802
0.0191396
0.136739
0.132924
0.199679
0.0046097
0.199079
0.00865726
0.198213
0.0124611
0.197086
0.0161403
0.195701
0.0197599
0.194061
0.0233709
0.192166
0.0270161
0.190012
0.030733
0.187596
0.0345559
0.184909
0.0385166
0.181944
0.0426446
0.178687
0.0469681
0.175124
0.0515141
0.171235
0.056309
0.166997
0.0613789
0.162377
0.0667499
0.157337
0.0724483
0.151828
0.0785001
0.145786
0.0849308
0.139128
0.0917632
0.13175
0.0990138
0.123518
0.106687
0.11426
0.11476
0.103759
0.123167
0.0917417
0.131753
0.0778843
0.140226
0.0618333
0.148055
0.0433114
0.154324
0.0223073
0.157743
0.155232
0.199695
0.00491063
0.199129
0.00922097
0.198313
0.0132749
0.197254
0.0171983
0.195957
0.0210581
0.194423
0.0249064
0.192653
0.028788
0.190646
0.0327426
0.188399
0.0368063
0.185907
0.0410127
0.183161
0.0453938
0.180152
0.0499799
0.176867
0.0548012
0.17329
0.0598876
0.1694
0.0652699
0.16517
0.0709803
0.160566
0.0770526
0.155542
0.0835233
0.150041
0.0904311
0.143985
0.097817
0.137275
0.105722
0.129775
0.114185
0.1213
0.123233
0.111596
0.132869
0.100307
0.143042
0.086934
0.153598
0.0708052
0.164183
0.051116
0.174013
0.027176
0.181683
0.182407
0.199714
0.00519279
0.199183
0.00974845
0.198422
0.0140344
0.197436
0.0181833
0.19623
0.0222639
0.194809
0.0263296
0.193172
0.0304267
0.191321
0.0345966
0.189253
0.0388772
0.186965
0.0433036
0.184453
0.0479095
0.181708
0.0527273
0.178722
0.0577896
0.175482
0.0631293
0.171973
0.0687811
0.168171
0.074782
0.164052
0.0811723
0.159578
0.0879971
0.154701
0.0953068
0.149358
0.103159
0.143461
0.111618
0.136887
0.120758
0.129457
0.130662
0.120903
0.141422
0.110812
0.153132
0.0985292
0.16588
0.0830104
0.179702
0.0626344
0.194388
0.0351635
0.209154
0.217571
0.199734
0.00545476
0.199241
0.0102371
0.198537
0.0147363
0.197628
0.0190913
0.19652
0.0233727
0.195215
0.027635
0.193718
0.0319258
0.192029
0.0362879
0.190149
0.0407602
0.188077
0.0453793
0.185809
0.05018
0.183343
0.0551963
0.180673
0.0604623
0.177791
0.0660132
0.174688
0.0718862
0.171349
0.0781218
0.167756
0.0847649
0.163887
0.0918664
0.159708
0.0994853
0.155175
0.107691
0.150223
0.116568
0.144759
0.12622
0.13864
0.136781
0.13163
0.14843
0.12334
0.161422
0.113073
0.176145
0.0995447
0.19323
0.0802139
0.213719
0.0497609
0.239606
0.267332
0.199755
0.00569555
0.199303
0.010685
0.198659
0.0153781
0.197829
0.0199194
0.196821
0.024381
0.195638
0.0288186
0.194286
0.0332806
0.192765
0.0378107
0.191079
0.0424488
0.18923
0.0472322
0.187216
0.0521963
0.185039
0.0573761
0.182698
0.0628064
0.180189
0.0685235
0.177511
0.0745659
0.174659
0.0809754
0.171625
0.0877991
0.168401
0.0950906
0.164973
0.102913
0.161322
0.111342
0.157419
0.120471
0.153216
0.130422
0.148638
0.141358
0.143552
0.153515
0.137718
0.167256
0.130672
0.183191
0.121447
0.202454
0.107681
0.227485
0.0813655
0.265922
0.348697
-0.00849384
0.00849379
-0.0207367
0.0122427
-0.0353733
0.0146361
-0.0518007
0.0164263
-0.0694939
0.0176915
-0.0880158
0.0185194
-0.106979
0.0189603
-0.126015
0.019032
-0.144748
0.0187279
-0.162777
0.0180244
-0.179669
0.0168875
-0.194953
0.0152801
-0.208126
0.0131699
-0.218668
0.0105386
-0.226058
0.00738727
-0.229801
0.00374106
-0.229454
-0.000347548
-0.224648
-0.0048066
-0.215217
-0.00942993
-0.201244
-0.0139709
-0.183015
-0.0182262
-0.160986
-0.0220247
-0.135752
-0.0252299
-0.108004
-0.0277435
-0.0785046
-0.0294939
-0.0480365
-0.0304624
-0.0170989
-0.0309316
0.0143386
-0.0314312
0.0462476
-0.0319024
-0.0375126
-0.0124729
0.0209667
-0.0263561
0.0261256
-0.0417524
0.0300318
-0.05844
0.0331128
-0.0761201
0.0353699
-0.094478
0.0368749
-0.113191
0.0376702
-0.131923
0.0377599
-0.150312
0.037113
-0.167964
0.0356717
-0.184443
0.0333614
-0.199269
0.0301028
-0.211932
0.0258284
-0.221897
0.0205005
-0.228637
0.0141245
-0.231653
0.00675592
-0.230521
-0.00148051
-0.224958
-0.0103701
-0.214875
-0.0195121
-0.200372
-0.0284714
-0.181737
-0.036859
-0.159418
-0.0443399
-0.134002
-0.0506417
-0.106167
-0.0555735
-0.0766206
-0.0590347
-0.0460017
-0.0610757
-0.014768
-0.0621592
0.0165456
-0.0627384
0.0481139
-0.0634641
-0.0706049
-0.0141164
0.0350831
-0.0290511
0.04106
-0.0447195
0.0456997
-0.0611672
0.0495595
-0.0782992
0.0525002
-0.0959417
0.054515
-0.113865
0.0555905
-0.131794
0.0556844
-0.149405
0.0547197
-0.166327
0.0525895
-0.182137
0.049167
-0.19636
0.0443219
-0.208479
0.0379433
-0.21795
0.0299683
-0.224233
0.0204049
-0.226825
0.009346
-0.225298
-0.0030082
-0.219382
-0.016286
-0.209027
-0.0298665
-0.194375
-0.0431211
-0.175737
-0.0554941
-0.153571
-0.0665029
-0.128462
-0.0757462
-0.101083
-0.0829473
-0.0721235
-0.0879892
-0.0421994
-0.090994
-0.0118118
-0.0925409
0.0183694
-0.0929133
0.0484717
-0.0935597
-0.100587
-0.0148201
0.0499031
-0.0300769
0.0563166
-0.0455429
0.0611651
-0.0614031
0.0654187
-0.077706
0.0688014
-0.0943997
0.0712064
-0.111346
0.072534
-0.128334
0.0726682
-0.145081
0.071463
-0.16124
0.068743
-0.17639
0.0643132
-0.190049
0.0579772
-0.201677
0.0495676
-0.2107
0.0389871
-0.216545
0.0262476
-0.218692
0.0114909
-0.216717
-0.00498362
-0.210405
-0.0225986
-0.199779
-0.0404915
-0.185034
-0.057864
-0.166502
-0.074023
-0.14464
-0.0883613
-0.120027
-0.100356
-0.0933177
-0.109651
-0.065187
-0.116115
-0.0362574
-0.119918
-0.00712401
-0.121668
0.0215237
-0.121555
0.0497198
-0.121749
-0.127677
-0.0148251
0.0647282
-0.029739
0.0712303
-0.0445289
0.0759545
-0.0594741
0.0803629
-0.0747115
0.0840373
-0.0902728
0.0867655
-0.106089
0.0883474
-0.122
0.0885752
-0.137757
0.0872162
-0.153029
0.0840106
-0.167401
0.0786801
-0.180377
0.0709496
-0.191397
0.0605838
-0.199855
0.0474424
-0.205155
0.0315446
-0.20677
0.0131039
-0.204294
-0.00746108
-0.19758
-0.0293124
-0.18674
-0.0513302
-0.172025
-0.0725773
-0.153778
-0.0922671
-0.132439
-0.109697
-0.108568
-0.124222
-0.0827962
-0.135419
-0.0557749
-0.143131
-0.0281301
-0.147557
-0.000648417
-0.149144
0.0261151
-0.148312
0.0521715
-0.147799
-0.15199
-0.0141095
0.0788377
-0.0280575
0.085178
-0.0417223
0.0896188
-0.0554289
0.0940686
-0.0693565
0.0979633
-0.0835837
0.100991
-0.0980856
0.102846
-0.112739
0.103225
-0.127326
0.101799
-0.141533
0.0982134
-0.154954
0.0920967
-0.167092
0.0830839
-0.177372
0.0708592
-0.185158
0.0552255
-0.189823
0.0362068
-0.190837
0.0141162
-0.18782
-0.0104793
-0.180725
-0.0364077
-0.169771
-0.0622831
-0.155262
-0.0870852
-0.137532
-0.109994
-0.11698
-0.130246
-0.0941369
-0.147061
-0.0695937
-0.159957
-0.0439825
-0.168737
-0.0179332
-0.173601
0.00757388
-0.174645
0.0321899
-0.172922
0.0559901
-0.171593
-0.173618
-0.0126569
0.0914945
-0.0250426
0.0975636
-0.0371502
0.101726
-0.0492898
0.106207
-0.0616427
0.110315
-0.0743053
0.113651
-0.0872765
0.115815
-0.100461
0.116406
-0.113667
0.115001
-0.126605
0.111147
-0.138885
0.104373
-0.150018
0.0942127
-0.159419
0.0802566
-0.166428
0.0622314
-0.170378
0.0401534
-0.170735
0.0144716
-0.167157
-0.0140582
-0.159738
-0.0438269
-0.148823
-0.0731977
-0.134752
-0.101154
-0.117823
-0.12692
-0.098361
-0.149705
-0.0768559
-0.168562
-0.053845
-0.182964
-0.0299615
-0.192615
-0.00591749
-0.19764
0.0174327
-0.19799
0.0398295
-0.195313
0.0612542
-0.193011
-0.192653
-0.0105073
0.102002
-0.0207842
0.10784
-0.030921
0.111862
-0.0411591
0.116445
-0.0516521
0.120806
-0.0624926
0.124489
-0.0736888
0.127008
-0.085165
0.127879
-0.0967555
0.126588
-0.108199
0.122586
-0.11913
0.1153
-0.129078
0.104156
-0.137458
0.0886334
-0.143592
0.0683616
-0.146765
0.0433237
-0.146429
0.0141337
-0.142292
-0.0181967
-0.134648
-0.0514715
-0.123976
-0.0838682
-0.110625
-0.114504
-0.0948166
-0.142727
-0.076769
-0.16775
-0.0569157
-0.188412
-0.0357335
-0.204142
-0.0138435
-0.214501
0.00778032
-0.219258
0.0287221
-0.218926
0.0489515
-0.215536
0.067962
-0.212015
-0.20919
-0.00776235
0.109764
-0.0154689
0.115547
-0.0232533
0.119646
-0.0312581
0.124449
-0.0395933
0.12914
-0.0483348
0.133229
-0.0574896
0.136161
-0.066996
0.137383
-0.0767126
0.136301
-0.0864113
0.132281
-0.0957641
0.124649
-0.104329
0.112717
-0.111536
0.0958369
-0.116696
0.0735179
-0.119053
0.0456781
-0.118003
0.0130822
-0.113339
-0.0228625
-0.105631
-0.0591797
-0.0954688
-0.0940297
-0.0831536
-0.126818
-0.0687929
-0.157085
-0.0524836
-0.184056
-0.0345749
-0.206317
-0.015513
-0.223199
0.00389034
-0.233899
0.0229465
-0.238309
0.0415486
-0.237522
0.0594848
-0.233466
0.0760504
-0.228574
-0.223317
-0.0045846
0.114349
-0.00936849
0.12033
-0.0144665
0.124744
-0.0199239
0.129905
-0.025807
0.135022
-0.0321682
0.139588
-0.0390063
0.142996
-0.0462681
0.144641
-0.0538319
0.143861
-0.0615076
0.139953
-0.0690147
0.132152
-0.0759598
0.119658
-0.0818069
0.10168
-0.0858663
0.077574
-0.087378
0.0471871
-0.0856119
0.011314
-0.0805343
-0.0279413
-0.0730405
-0.066674
-0.063723
-0.103347
-0.0527775
-0.137762
-0.0401607
-0.1697
-0.0258854
-0.198329
-0.010169
-0.222029
0.00635104
-0.239715
0.0229741
-0.250517
0.0395114
-0.254841
0.0557881
-0.253794
0.0713085
-0.24898
0.0854015
-0.24266
-0.235108
-0.00118346
0.115532
-0.00280684
0.121954
-0.00494686
0.126883
-0.00758085
0.132538
-0.0107453
0.138185
-0.014464
0.143305
-0.0187255
0.147255
-0.0234791
0.149392
-0.0286065
0.148985
-0.0339565
0.145299
-0.039303
0.137495
-0.04432
0.124671
-0.0485484
0.105905
-0.0513332
0.0803556
-0.0519273
0.0477785
-0.0494429
0.00882748
-0.0442373
-0.0331482
-0.0374154
-0.0734964
-0.0293609
-0.111401
-0.0201239
-0.146998
-0.00946818
-0.180353
0.00258551
-0.210379
0.015674
-0.235114
0.0293224
-0.25336
0.0433616
-0.264552
0.0574652
-0.26894
0.0712467
-0.26757
0.0842461
-0.261974
0.0958479
-0.254256
-0.244625
0.00226129
0.113271
0.00391792
0.120297
0.00490105
0.1259
0.0052867
0.132152
0.00504786
0.138423
0.00418399
0.144167
0.00271606
0.148721
0.000699977
0.151405
-0.00175043
0.151432
-0.00449384
0.148039
-0.00734723
0.140345
-0.010066
0.127386
-0.0123354
0.108171
-0.0137038
0.0817208
-0.0131886
0.0472606
-0.00997924
0.00561603
-0.0051467
-0.037982
0.00050855
-0.0791521
0.0068755
-0.117768
0.0141528
-0.154274
0.0225406
-0.188739
0.031973
-0.219809
0.0423874
-0.245525
0.0535134
-0.264482
0.0650055
-0.27604
0.0765148
-0.280444
0.0876725
-0.278722
0.0980744
-0.27237
0.10718
-0.263355
-0.251923
0.0056861
0.107585
0.01067
0.115313
0.0148238
0.121745
0.0182976
0.128677
0.0210569
0.135662
0.0231111
0.142111
0.0245048
0.147325
0.0253278
0.150579
0.0256876
0.151068
0.0257208
0.148002
0.0255827
0.140479
0.0254588
0.127507
0.0256181
0.108008
0.0266042
0.0807317
0.0290783
0.0447839
0.0324597
0.00223272
0.0358856
-0.0414093
0.0395596
-0.0828266
0.0437507
-0.121958
0.04884
-0.159362
0.0549556
-0.194853
0.0620687
-0.22692
0.0700575
-0.253511
0.0786417
-0.273062
0.0874982
-0.284892
0.0963123
-0.289253
0.104767
-0.287172
0.112532
-0.280129
0.119156
-0.269973
-0.257058
0.0091398
0.0984447
0.0174466
0.107006
0.0247091
0.114482
0.0312575
0.122128
0.0369956
0.129923
0.0419284
0.137177
0.0461459
0.143105
0.0497712
0.146951
0.0529241
0.147912
0.0557443
0.145178
0.0583776
0.137842
0.0609879
0.124893
0.0638279
0.105165
0.0672177
0.0773389
0.0708965
0.0411026
0.073894
-0.000766727
0.0760608
-0.0435773
0.0780067
-0.084773
0.0802911
-0.124242
0.0833896
-0.16246
0.0874681
-0.19893
0.0924463
-0.231895
0.0981156
-0.259177
0.104192
-0.279135
0.110395
-0.291091
0.116477
-0.29533
0.122203
-0.292892
0.127331
-0.285251
0.131514
-0.27415
-0.260095
0.0129741
0.0854705
0.0243479
0.0956317
0.0345122
0.104318
0.0441046
0.112535
0.0526837
0.121342
0.0603108
0.129548
0.06717
0.136244
0.0734262
0.140692
0.0792163
0.142119
0.0846795
0.139711
0.0899501
0.132568
0.0951578
0.119682
0.100416
0.0999036
0.10559
0.0721629
0.109979
0.036711
0.112812
-0.00360205
0.114101
-0.0448673
0.114671
-0.0853438
0.115428
-0.124998
0.116956
-0.163987
0.119374
-0.201346
0.122488
-0.235007
0.12601
-0.262696
0.129668
-0.282789
0.133253
-0.294672
0.136619
-0.298691
0.139637
-0.295905
0.142171
-0.28778
0.143983
-0.275956
-0.261117
0.207428
0.00592177
0.207004
0.0111051
0.206401
0.0159783
0.205628
0.0206912
0.204691
0.0253176
0.203597
0.0299136
0.20235
0.0345285
0.200957
0.0392065
0.19942
0.0439879
0.197745
0.0489102
0.195936
0.0540091
0.193995
0.0593194
0.191928
0.064876
0.189739
0.0707151
0.187432
0.0768746
0.185013
0.0833959
0.182487
0.0903254
0.179863
0.0977155
0.177148
0.105628
0.174353
0.114136
0.171491
0.123332
0.168578
0.133334
0.165633
0.144301
0.162687
0.15646
0.159794
0.170149
0.157081
0.185903
0.154959
0.204576
0.155252
0.227192
0.17016
0.251014
0.263424
0.255433
0.212471
0.00612783
0.212085
0.0114866
0.211538
0.0165217
0.21084
0.0213874
0.209998
0.026159
0.20902
0.0308927
0.207912
0.0356382
0.206681
0.0404397
0.205334
0.0453376
0.203878
0.050369
0.202321
0.055569
0.200671
0.0609718
0.198939
0.0666112
0.197135
0.0725217
0.195272
0.0787394
0.193366
0.0853031
0.191437
0.0922552
0.18951
0.0996432
0.187617
0.107522
0.1858
0.115954
0.184115
0.125016
0.182646
0.134803
0.181515
0.145432
0.180923
0.157051
0.181231
0.169842
0.183164
0.18397
0.188312
0.199429
0.199644
0.215859
0.218415
0.232243
0.24745
0.234389
0.217638
0.00631132
0.217295
0.0118253
0.21681
0.0170022
0.216195
0.0220001
0.215458
0.0268953
0.214607
0.0317444
0.21365
0.0365965
0.212596
0.0414954
0.211455
0.0464812
0.210237
0.0515899
0.208953
0.0568555
0.207618
0.0623106
0.206245
0.0679868
0.204853
0.0739159
0.203464
0.0801306
0.202104
0.0866647
0.200806
0.0935544
0.199611
0.100839
0.198573
0.10856
0.197762
0.116766
0.197271
0.125507
0.197233
0.134841
0.197839
0.144826
0.199376
0.155514
0.202286
0.166932
0.207215
0.17904
0.21497
0.191674
0.226173
0.204656
0.240354
0.218063
0.22911
0.258693
0.222932
0.00646997
0.222635
0.0121169
0.222219
0.0174139
0.221695
0.0225219
0.221071
0.0275177
0.220357
0.0324579
0.219564
0.037391
0.218701
0.0423599
0.217781
0.0474033
0.216818
0.0525563
0.215826
0.0578506
0.214823
0.0633164
0.21383
0.0689825
0.212871
0.0748768
0.211977
0.081027
0.211183
0.0874607
0.210533
0.0942057
0.210083
0.10129
0.209902
0.108742
0.21008
0.116588
0.210734
0.124854
0.21202
0.133556
0.214146
0.142699
0.217389
0.152271
0.222103
0.162219
0.228701
0.172443
0.237604
0.182771
0.249341
0.192919
0.264823
0.202581
0.209381
0.284553
0.228355
0.00660167
0.228109
0.0123575
0.227767
0.0177512
0.22734
0.0229457
0.226838
0.028018
0.226272
0.0330237
0.225652
0.0380107
0.224993
0.0430207
0.224308
0.0480909
0.223613
0.0532541
0.222927
0.0585396
0.222272
0.0639744
0.221673
0.0695837
0.221162
0.0753907
0.220774
0.0814173
0.220553
0.0876837
0.220552
0.0942083
0.220836
0.101007
0.221486
0.108094
0.2226
0.115475
0.224305
0.12315
0.226758
0.131104
0.230152
0.139306
0.23472
0.147703
0.240739
0.1562
0.248526
0.164656
0.258438
0.17286
0.270901
0.180456
0.286367
0.187116
0.19176
0.303987
0.233911
0.00670447
0.233719
0.0125435
0.233456
0.0180091
0.233133
0.0232653
0.23276
0.0283884
0.232349
0.0334333
0.231914
0.0384464
0.231468
0.0434677
0.231028
0.0485328
0.230612
0.0536724
0.230243
0.0589118
0.229946
0.0642744
0.22975
0.0697819
0.229692
0.075452
0.229811
0.0813002
0.230158
0.0873389
0.230791
0.0935772
0.231781
0.100019
0.233211
0.106664
0.235185
0.113503
0.237823
0.120513
0.241269
0.127658
0.245692
0.134884
0.251285
0.142111
0.258262
0.149223
0.266857
0.156062
0.277294
0.162423
0.289731
0.16802
0.304234
0.172613
0.175719
0.320275
0.239602
0.00677659
0.239467
0.0126716
0.239288
0.0181831
0.239074
0.0234749
0.238838
0.0286227
0.23859
0.0336796
0.238345
0.0386905
0.23812
0.0436933
0.237933
0.0487216
0.237804
0.0538034
0.237758
0.0589604
0.237824
0.0642119
0.238033
0.0695752
0.238425
0.075063
0.239044
0.080684
0.239942
0.0864433
0.24118
0.092341
0.24283
0.0983712
0.244976
0.104521
0.247713
0.110767
0.251154
0.117074
0.255422
0.123392
0.260656
0.129651
0.267006
0.135762
0.274624
0.141605
0.283652
0.147035
0.2942
0.151876
0.306301
0.15592
0.31994
0.158975
0.160792
0.334868
0.245431
0.00681654
0.245357
0.0127393
0.245265
0.0182695
0.245165
0.0235701
0.24507
0.0287154
0.24499
0.0337569
0.244943
0.0387372
0.244944
0.0436923
0.245014
0.0486527
0.245176
0.0536433
0.245455
0.0586829
0.245883
0.0637872
0.246492
0.0689683
0.247324
0.0742337
0.248425
0.0795863
0.249847
0.0850241
0.25165
0.0905398
0.253904
0.0961191
0.256687
0.10174
0.260086
0.10737
0.264196
0.112965
0.269121
0.118469
0.274967
0.123807
0.281841
0.128888
0.289842
0.133606
0.299046
0.137831
0.309497
0.141425
0.321183
0.144235
0.334048
0.146111
0.146931
0.347909
0.251402
0.00682307
0.25139
0.0127442
0.251388
0.0182653
0.251406
0.0235473
0.251455
0.0286629
0.251549
0.0336613
0.251702
0.038583
0.251933
0.0434614
0.252262
0.0483241
0.252714
0.0531925
0.253316
0.0580829
0.254098
0.0630069
0.255097
0.0679722
0.256352
0.0729814
0.257908
0.0780324
0.259818
0.0831171
0.262138
0.0882223
0.264932
0.0933276
0.268269
0.0984047
0.272224
0.103416
0.276877
0.108315
0.282306
0.113041
0.28859
0.117524
0.295799
0.12168
0.303991
0.125415
0.313199
0.128625
0.323425
0.1312
0.334629
0.133031
0.346725
0.134016
0.134094
0.359562
0.257518
0.00679523
0.257569
0.0126847
0.25766
0.0181682
0.257798
0.0234041
0.257994
0.0284626
0.258262
0.0333907
0.258618
0.0382263
0.259078
0.0430003
0.259666
0.0477371
0.260404
0.0524552
0.26132
0.0571677
0.262446
0.0618828
0.263817
0.066604
0.26547
0.0713299
0.267451
0.0760542
0.269806
0.0807646
0.272588
0.0854431
0.275853
0.0900654
0.279659
0.0946002
0.28407
0.099008
0.289145
0.103242
0.294944
0.107244
0.301519
0.110951
0.308912
0.114289
0.317149
0.11718
0.326233
0.119542
0.336141
0.121293
0.346814
0.122359
0.35816
0.122671
0.122202
0.370052
0.263781
0.00673238
0.263898
0.0125597
0.264082
0.0179772
0.264341
0.0231393
0.264685
0.0281137
0.265128
0.0329449
0.265684
0.0376681
0.266372
0.0423114
0.267213
0.0468965
0.26823
0.0514388
0.26945
0.0559486
0.270903
0.0604308
0.272624
0.0648857
0.274647
0.0693083
0.277015
0.0736891
0.279768
0.0780131
0.282954
0.0822596
0.28662
0.0864024
0.290813
0.0904091
0.295582
0.0942409
0.300973
0.0978533
0.307024
0.101195
0.313767
0.104209
0.321222
0.106835
0.329392
0.109011
0.33826
0.110675
0.347788
0.111767
0.357909
0.112238
0.368535
0.112046
0.111183
0.379555
0.270195
0.00663422
0.270377
0.0123688
0.270655
0.0176917
0.271035
0.0227529
0.271527
0.0276169
0.272143
0.0323256
0.272897
0.0369115
0.273807
0.0414
0.274893
0.04581
0.276178
0.0501543
0.277687
0.0544405
0.279448
0.0586707
0.281493
0.0628427
0.283854
0.066949
0.286567
0.0709778
0.28967
0.0749122
0.293201
0.0787308
0.297198
0.0824071
0.3017
0.0859099
0.30674
0.0892029
0.312349
0.0922459
0.318552
0.0949944
0.325363
0.0974006
0.332784
0.0994164
0.340803
0.100994
0.349391
0.102088
0.3585
0.102659
0.368065
0.102674
0.378001
0.102111
0.100972
0.388212
0.276764
0.00650078
0.277011
0.0121122
0.277382
0.0173125
0.277882
0.022246
0.278519
0.0269743
0.279305
0.0315363
0.280251
0.0359619
0.281376
0.0402736
0.282697
0.044488
0.284235
0.0486155
0.286015
0.0526613
0.288061
0.0566255
0.290401
0.0605036
0.293065
0.0642869
0.296082
0.0679622
0.299484
0.071512
0.303302
0.0749149
0.307565
0.0781458
0.312301
0.0811758
0.317533
0.0839727
0.323279
0.0865021
0.32955
0.0887261
0.336346
0.0906061
0.343659
0.0921056
0.351465
0.0931893
0.359729
0.0938257
0.368399
0.0939892
0.377412
0.0936618
0.38669
0.0928337
0.0915133
0.39615
0.28349
0.00633243
0.283801
0.0117907
0.284264
0.0168409
0.284882
0.0216211
0.285661
0.0261895
0.28661
0.0305822
0.287742
0.0348262
0.289072
0.0389419
0.290615
0.0429432
0.292391
0.0468386
0.294421
0.0506314
0.296727
0.05432
0.299332
0.057899
0.302262
0.0613583
0.305541
0.0646846
0.309194
0.0678609
0.313243
0.0708669
0.317711
0.0736796
0.322615
0.0762732
0.327969
0.0786203
0.333781
0.0806926
0.34005
0.0824594
0.346767
0.0838906
0.353915
0.0849592
0.361465
0.085641
0.369377
0.0859154
0.377599
0.0857675
0.386073
0.0851894
0.394727
0.0841801
0.0827518
0.403489
0.290377
0.00612982
0.290751
0.0114057
0.291303
0.0162792
0.292035
0.0208814
0.292951
0.0252673
0.294058
0.0294698
0.295367
0.0335134
0.29689
0.0374161
0.298641
0.0411899
0.300637
0.0448415
0.302895
0.0483727
0.305434
0.0517809
0.308274
0.0550598
0.311433
0.0581995
0.314932
0.0611868
0.318788
0.0640058
0.323018
0.0666382
0.327636
0.0690637
0.33265
0.0712604
0.338066
0.0732058
0.343883
0.0748772
0.350094
0.0762505
0.356683
0.0773038
0.363625
0.0780184
0.370889
0.0783785
0.378433
0.0783722
0.386209
0.0779926
0.39416
0.0772388
0.402225
0.0761156
0.0746373
0.41034
0.297429
0.0058939
0.297864
0.0109592
0.298503
0.0156304
0.299344
0.0200315
0.300391
0.0242136
0.301648
0.028207
0.303123
0.0320335
0.304827
0.0357091
0.30677
0.039244
0.308966
0.0426433
0.31143
0.045908
0.314175
0.0490348
0.317218
0.0520173
0.320572
0.0548458
0.324251
0.0575081
0.328268
0.05999
0.332631
0.0622755
0.337348
0.0643474
0.342422
0.0661877
0.34785
0.067779
0.353625
0.0691035
0.359734
0.0701432
0.366157
0.0708832
0.372865
0.0713118
0.379825
0.0714197
0.386996
0.0712015
0.394333
0.0706562
0.401785
0.0697878
0.409297
0.0686045
0.0671217
0.416813
0.30465
0.00562585
0.305143
0.0104534
0.305865
0.0148981
0.306811
0.0190763
0.307981
0.0230353
0.309379
0.0268025
0.31101
0.0303976
0.31288
0.0338345
0.314999
0.0371218
0.317377
0.0402637
0.320023
0.0432603
0.322948
0.0461083
0.326163
0.0488013
0.329678
0.0513306
0.333501
0.0536852
0.337638
0.0558529
0.342094
0.0578202
0.346869
0.0595732
0.35196
0.0610977
0.357359
0.0623807
0.363054
0.0634091
0.369029
0.0641704
0.375258
0.0646553
0.381713
0.0648574
0.388361
0.0647726
0.395163
0.0644006
0.402076
0.0637442
0.409053
0.0628106
0.416048
0.0616102
0.0601582
0.423012
0.312043
0.00532703
0.312592
0.00989103
0.313393
0.0140864
0.314437
0.0180215
0.315725
0.0217397
0.317254
0.0252659
0.319028
0.0286174
0.321052
0.0318063
0.323329
0.0348402
0.325868
0.0377222
0.328674
0.0404522
0.331753
0.0430267
0.335113
0.0454402
0.338758
0.0476848
0.342692
0.0497512
0.346915
0.0516292
0.351427
0.053308
0.356224
0.0547767
0.361297
0.0560247
0.366635
0.057043
0.372223
0.0578225
0.378039
0.0583553
0.384059
0.0586365
0.390253
0.0586639
0.396589
0.0584375
0.40303
0.0579602
0.409537
0.0572376
0.416069
0.0562788
0.422584
0.0550951
0.0537013
0.429041
0.319613
0.00499893
0.320215
0.00927502
0.32109
0.0131998
0.322227
0.0168731
0.323623
0.0203348
0.325274
0.0236068
0.32718
0.0267046
0.329342
0.0296387
0.331762
0.0324155
0.334443
0.0350377
0.337387
0.0375047
0.340598
0.0398137
0.344077
0.0419596
0.347824
0.0439359
0.351839
0.045735
0.356119
0.0473486
0.360658
0.0487685
0.365448
0.0499866
0.370476
0.0509955
0.37573
0.0517896
0.381189
0.0523634
0.386833
0.0527123
0.392635
0.052835
0.398567
0.0527325
0.404597
0.0524077
0.410692
0.0518655
0.416816
0.0511135
0.422933
0.0501614
0.429007
0.0490211
0.0477063
0.435002
0.327363
0.00464308
0.328016
0.00860835
0.32896
0.0122426
0.330184
0.0156372
0.331681
0.0188282
0.333444
0.021835
0.33547
0.0246711
0.337757
0.0273454
0.340304
0.0298636
0.343109
0.0322278
0.346172
0.0344377
0.349492
0.0364906
0.353067
0.0383824
0.356893
0.0401078
0.360965
0.0416609
0.365277
0.0430354
0.369819
0.0442253
0.374579
0.045225
0.379544
0.0460298
0.384696
0.0466369
0.390016
0.0470437
0.39548
0.0472482
0.401064
0.0472518
0.406738
0.0470577
0.412475
0.0466707
0.418244
0.0460971
0.424011
0.0453454
0.429747
0.0444256
0.435418
0.0433493
0.042129
0.440995
0.335299
0.004261
0.335998
0.00789396
0.337008
0.0112193
0.338313
0.0143199
0.339903
0.0172278
0.341769
0.0199599
0.343904
0.0225278
0.346303
0.0249392
0.348961
0.0271989
0.351875
0.0293087
0.35504
0.0312684
0.358451
0.0330759
0.362102
0.0347279
0.365986
0.0362203
0.370096
0.0375487
0.374421
0.0387086
0.378948
0.039696
0.383664
0.0405074
0.388552
0.0411402
0.393593
0.041594
0.398768
0.0418681
0.404053
0.0419629
0.409423
0.0418813
0.414853
0.0416282
0.420313
0.0412093
0.425778
0.0406318
0.431218
0.0399044
0.436606
0.039037
0.441914
0.0380404
0.0369258
0.447117
0.343425
0.00385407
0.344169
0.00713456
0.345239
0.0101341
0.346619
0.0129268
0.348295
0.0155407
0.350254
0.0179902