/*--------------------------------*- C++ -*----------------------------------*\
| =========                 |                                                 |
| \\      /  F ield         | OpenFOAM: The Open Source CFD Toolbox           |
|  \\    /   O peration     | Version:  dev                                   |
|   \\  /    A nd           | Web:      www.OpenFOAM.org                      |
|    \\/     M anipulation  |                                                 |
\*---------------------------------------------------------------------------*/
FoamFile
{
    version     2.0;
    format      ascii;
    class       volVectorField;
    location    "0.34";
    object      U;
}
// * * * * * * * * * * * * * * * * * * * * * * * * * * * * * * * * * * * * * //

dimensions      [0 1 -1 0 0 0 0];

internalField   nonuniform List<vector> 
2790
(
(9.93076 0 0.020658)
(9.85858 0 0.0303827)
(9.75352 2.63556e-20 0.0373584)
(9.61769 -2.10039e-22 0.0443347)
(9.46009 -4.38434e-22 0.0514917)
(9.28388 4.49094e-22 0.0588175)
(9.08854 1.45257e-20 0.0664379)
(8.87313 4.84145e-22 0.0744995)
(8.63702 0 0.0831237)
(8.37961 -1.69653e-20 0.0924149)
(8.10015 -2.80147e-22 0.10247)
(7.79773 -8.70169e-21 0.11338)
(7.47136 -3.01114e-22 0.125222)
(7.12006 0 0.13805)
(6.74294 0 0.151883)
(6.33933 0 0.166682)
(5.90892 0 0.182322)
(5.45196 0 0.198552)
(4.96953 -6.66024e-21 0.214954)
(4.46389 3.46141e-20 0.23089)
(3.93875 0 0.24545)
(3.39977 0 0.25743)
(2.85479 0 0.265348)
(2.31418 -3.38821e-20 0.267548)
(1.79082 0 0.262434)
(1.2998 -3.7106e-20 0.248846)
(0.857683 0 0.226602)
(0.483632 -2.83054e-19 0.196841)
(0.190227 2.49548e-19 0.15664)
(0.120758 0 0.0593712)
(9.98787 4.97073e-20 0.0431682)
(9.96902 -3.97925e-22 0.0667281)
(9.91967 -2.65235e-20 0.0848864)
(9.83852 8.37733e-22 0.10345)
(9.73332 -5.64243e-20 0.122849)
(9.6073 8.9443e-22 0.142989)
(9.46017 -1.68196e-20 0.164103)
(9.29108 1.92578e-21 0.186504)
(9.09946 2.03853e-21 0.210453)
(8.88475 1.3711e-20 0.23617)
(8.6462 1.08989e-21 0.263853)
(8.3829 2.75986e-20 0.293673)
(8.09384 0 0.325754)
(7.77797 0 0.360154)
(7.43429 -2.64832e-21 0.396818)
(7.06193 0 0.435542)
(6.66032 -2.33976e-20 0.475903)
(6.22933 0 0.517189)
(5.7695 5.17919e-20 0.558321)
(5.28227 -2.73272e-20 0.597769)
(4.77028 0 0.633485)
(4.23759 0 0.662885)
(3.68991 6.38919e-20 0.682889)
(3.13465 1.01065e-19 0.690092)
(2.58089 -1.38409e-19 0.681071)
(2.03897 3.63445e-20 0.652871)
(1.51974 -3.78119e-20 0.603619)
(1.0337 -3.91293e-20 0.533064)
(0.599634 6.00819e-20 0.437637)
(0.297764 -2.80911e-19 0.2543)
(9.98483 -5.01031e-20 0.048681)
(9.96287 -3.98102e-22 0.0835401)
(9.91532 2.44747e-21 0.113465)
(9.8386 -1.67238e-21 0.144067)
(9.73923 5.55103e-20 0.176155)
(9.62056 -5.73432e-20 0.209718)
(9.48257 0 0.245055)
(9.32459 -6.17661e-20 0.282598)
(9.14619 0 0.322747)
(8.94694 -3.137e-20 0.365863)
(8.72626 -4.37884e-21 0.412281)
(8.48335 -3.43181e-20 0.462295)
(8.21733 1.88009e-20 0.51614)
(7.92718 3.10086e-22 0.573948)
(7.61187 5.25575e-21 0.63569)
(7.27038 -5.42353e-21 0.701108)
(6.9018 5.77372e-21 0.769616)
(6.50542 -4.88225e-20 0.840191)
(6.0809 -8.96684e-20 0.911256)
(5.62846 2.64542e-20 0.980561)
(5.14906 -2.90791e-20 1.0451)
(4.64463 -5.88592e-20 1.1011)
(4.11821 1.24283e-19 1.14406)
(3.57406 0 1.16904)
(3.01758 1.37413e-19 1.17101)
(2.45513 -1.41859e-19 1.14544)
(1.89351 3.70801e-20 1.089)
(1.33888 -3.83318e-20 1.00038)
(0.802506 1.97675e-20 0.881276)
(0.420204 3.32989e-19 0.711226)
(9.98315 -9.89205e-20 0.0568426)
(9.959 0 0.104563)
(9.91139 -1.05484e-19 0.147586)
(9.83598 1.66808e-21 0.190541)
(9.7384 -3.4762e-21 0.234848)
(9.62195 3.72362e-21 0.280889)
(9.48683 -5.92143e-20 0.329134)
(9.33255 6.55689e-20 0.380167)
(9.15882 -3.97243e-21 0.43455)
(8.9654 1.00003e-19 0.492806)
(8.75191 0 0.555419)
(8.5178 2.05058e-20 0.622832)
(8.26243 -2.44963e-21 0.695414)
(7.98504 0 0.773424)
(7.68482 -3.25917e-21 0.856938)
(7.36091 -9.25094e-23 0.945767)
(7.01241 1.1328e-20 1.03934)
(6.63844 4.82207e-20 1.13658)
(6.23822 5.06251e-20 1.23573)
(5.81113 -1.1757e-21 1.33421)
(5.35689 5.50766e-20 1.42854)
(4.87566 1.75097e-19 1.51425)
(4.36821 -3.06881e-19 1.58596)
(3.8361 1.27289e-19 1.63766)
(3.28178 0 1.66312)
(2.7086 0 1.65654)
(2.12078 0 1.61343)
(1.523 3.79275e-20 1.53192)
(0.921291 -3.15935e-19 1.41663)
(0.477527 1.63593e-19 1.22581)
(9.98238 9.97043e-20 0.0664582)
(9.95714 7.92453e-22 0.125584)
(9.9096 -2.91844e-21 0.180282)
(9.83547 1.66274e-21 0.234556)
(9.73981 -1.09999e-19 0.290275)
(9.62571 1.70849e-19 0.348194)
(9.49343 5.54404e-20 0.408924)
(9.34256 3.80364e-21 0.473131)
(9.17284 4.01627e-21 0.541476)
(8.9841 -2.62801e-22 0.614577)
(8.77605 -4.28094e-21 0.693012)
(8.54825 3.59388e-20 0.77731)
(8.30018 -1.88873e-20 0.86793)
(8.03124 0 0.965215)
(7.74078 6.45985e-22 1.06933)
(7.42805 0 1.18017)
(7.09224 1.14224e-20 1.29725)
(6.73245 -8.27815e-20 1.41955)
(6.3477 2.45717e-20 1.54536)
(5.93693 -1.04596e-19 1.67211)
(5.49905 5.3474e-20 1.79619)
(5.03304 -1.71733e-19 1.91291)
(4.53808 0 2.0165)
(4.01379 0 2.10031)
(3.46047 0 2.15727)
(2.87939 0 2.18053)
(2.27315 1.44071e-19 2.16457)
(1.64609 -1.48866e-19 2.10685)
(0.995975 0 2.01332)
(0.511166 -3.22241e-19 1.84867)
(9.98205 1.96494e-19 0.076689)
(9.95649 2.00949e-19 0.146519)
(9.90944 1.06731e-19 0.212349)
(9.8369 -3.31271e-21 0.277808)
(9.74358 4.5412e-22 0.344888)
(9.63236 -5.02583e-22 0.414572)
(9.5035 1.17181e-19 0.48759)
(9.35661 -1.13839e-19 0.564683)
(9.19148 -7.85138e-21 0.646602)
(9.00793 -6.18591e-20 0.734064)
(8.8057 -4.24704e-21 0.827744)
(8.58439 -1.02519e-19 0.928267)
(8.3435 -4.40947e-20 1.03618)
(8.08245 2.40938e-21 1.15192)
(7.8006 1.26918e-20 1.27575)
(7.49723 -2.6318e-21 1.40768)
(7.17147 0 1.54733)
(6.82236 -2.302e-20 1.69383)
(6.44873 -4.97635e-22 1.84565)
(6.04919 -7.6169e-20 2.00038)
(5.62213 -1.61528e-19 2.15456)
(5.16574 -1.68529e-19 2.30359)
(4.67811 3.4941e-19 2.44163)
(4.15751 0 2.56171)
(3.60271 -2.55656e-19 2.65611)
(3.01353 2.692e-19 2.71698)
(2.39132 -2.79822e-19 2.73756)
(1.74071 7.30572e-20 2.71387)
(1.05369 0 2.65105)
(0.533344 1.61095e-19 2.49808)
(9.98198 -7.77433e-23 0.0871155)
(9.95663 -2.01734e-19 0.167259)
(9.91051 -2.05271e-19 0.243711)
(9.83989 -3.32272e-21 0.319969)
(9.74931 2.21748e-19 0.398032)
(9.64149 -2.25625e-19 0.479053)
(9.51664 -1.24429e-19 0.5639)
(9.37442 1.36518e-19 0.65341)
(9.21463 -1.57115e-20 0.748428)
(9.03709 8.09578e-21 0.849769)
(8.84155 0 0.958207)
(8.62759 7.10046e-20 1.07446)
(8.39469 4.16674e-20 1.19917)
(8.14225 -7.18646e-21 1.33287)
(7.86955 -7.59627e-21 1.47593)
(7.57577 -1.30092e-21 1.62849)
(7.25992 -1.10503e-20 1.79033)
(6.92084 -1.11799e-20 1.96079)
(6.55711 2.36503e-20 2.13857)
(6.16703 1.00535e-19 2.32156)
(5.7485 0 2.50665)
(5.29909 -1.1023e-19 2.68949)
(4.81607 -1.62118e-21 2.86444)
(4.29665 -1.18752e-19 3.02446)
(3.7384 2.52471e-19 3.1613)
(3.13994 2.60429e-19 3.26609)
(2.50151 -1.34707e-19 3.33051)
(1.8283 -2.16642e-19 3.34842)
(1.10638 2.23971e-19 3.32287)
(0.553563 0 3.19247)
(9.98207 -3.90464e-19 0.0974915)
(9.95732 0 0.18762)
(9.91254 2.0204e-19 0.274203)
(9.84417 3.28134e-21 0.360806)
(9.75673 -1.02045e-19 0.449434)
(9.6528 1.05479e-19 0.541364)
(9.53255 -7.29743e-21 0.637589)
(9.39567 -1.02752e-22 0.739046)
(9.24197 1.39683e-19 0.84667)
(9.07129 -8.0237e-21 0.961371)
(8.88337 -1.33819e-19 1.08402)
(8.67777 7.83906e-20 1.21545)
(8.45395 -8.14024e-20 1.35641)
(8.21125 -4.78416e-21 1.50755)
(7.94886 4.89089e-21 1.66938)
(7.6658 3.89309e-21 1.8422)
(7.36091 8.18003e-21 2.02602)
(7.03278 3.39931e-20 2.22041)
(6.67968 -1.1615e-19 2.42441)
(6.29949 -2.50371e-20 2.6363)
(5.88966 -9.97422e-20 2.85339)
(5.44711 -2.10231e-19 3.07184)
(4.96835 0 3.28633)
(4.44959 0 3.48996)
(3.8872 -2.4052e-19 3.67414)
(3.27852 -1.28764e-19 3.82893)
(2.6225 1.9329e-21 3.94407)
(1.92508 0 4.01042)
(1.16757 -7.36211e-20 4.02843)
(0.57813 -7.59533e-20 3.93414)
(9.98227 1.94792e-19 0.107658)
(9.95841 1.98047e-19 0.207428)
(9.91532 0 0.303667)
(9.84957 0 0.400136)
(9.76565 6.77771e-21 0.498869)
(9.66606 -1.39293e-20 0.601234)
(9.55097 7.15622e-21 0.708334)
(9.42007 -1.11172e-19 0.8212)
(9.27319 -1.31615e-19 0.94086)
(9.11019 0 1.06832)
(8.93081 2.65821e-19 1.20457)
(8.73462 -1.98037e-19 1.35053)
(8.52105 6.32854e-20 1.5071)
(8.28937 0 1.67508)
(8.0387 -4.89908e-21 1.85515)
(7.76792 5.00474e-21 2.04782)
(7.47569 -2.6054e-21 2.25336)
(7.16031 0 2.47168)
(6.81972 1.14795e-19 2.70219)
(6.45139 9.41887e-20 2.94369)
(6.05219 1.24973e-19 3.19407)
(5.6184 -4.64854e-20 3.45008)
(5.14565 -1.03647e-19 3.707)
(4.62904 -1.11e-19 3.95827)
(4.06353 2.36659e-19 4.1952)
(3.44474 -4.84198e-19 4.40679)
(2.76967 -2.54039e-19 4.58035)
(2.04477 2.66433e-19 4.70209)
(1.25362 7.20817e-20 4.76322)
(0.62197 -2.17931e-19 4.67194)
(9.98253 0 0.117502)
(9.9598 1.91309e-21 0.226531)
(9.91872 -2.04983e-19 0.33195)
(9.85592 0 0.43778)
(9.77588 -2.13604e-19 0.546111)
(9.68109 0 0.658386)
(9.57168 7.18029e-21 0.7758)
(9.44735 2.36228e-19 0.899478)
(9.30799 -1.21557e-19 1.03054)
(9.15347 -7.86195e-21 1.17009)
(8.98353 -2.46069e-19 1.31922)
(8.79778 1.20138e-19 1.47899)
(8.59562 -8.91532e-21 1.65043)
(8.37632 9.10352e-21 1.83452)
(8.13892 -9.61445e-21 2.03214)
(7.88221 9.81406e-21 2.24407)
(7.60468 2.59093e-21 2.47089)
(7.30441 0 2.71292)
(6.97902 -4.38013e-20 2.97008)
(6.62554 -6.97043e-20 3.24175)
(6.2403 -2.36508e-20 3.52656)
(5.81884 -4.48411e-20 3.82208)
(5.35578 2.59336e-19 4.12445)
(4.84493 1.0783e-19 4.42781)
(4.27943 -1.10987e-19 4.7237)
(3.6525 1.45348e-20 5.0004)
(2.95764 3.73163e-19 5.24269)
(2.19687 -3.90991e-19 5.43179)
(1.33857 3.37915e-19 5.55293)
(0.645807 1.98651e-20 5.4911)
(9.98286 -3.82916e-19 0.126942)
(9.96145 -1.27217e-21 0.244802)
(9.92264 2.01827e-19 0.358908)
(9.8631 0 0.473566)
(9.7873 1.57801e-21 0.59095)
(9.69771 6.88999e-21 0.712564)
(9.59446 -2.46673e-19 0.839683)
(9.47728 -3.35739e-19 0.973518)
(9.34608 2.41868e-19 1.11528)
(9.20078 1.57597e-20 1.26616)
(9.04116 1.3062e-19 1.42738)
(8.86683 2.4975e-22 1.60011)
(8.67726 -3.4811e-20 1.78555)
(8.4717 1.78996e-20 1.98485)
(8.24918 0 2.19915)
(8.00845 0 2.4295)
(7.7479 0 2.67687)
(7.46547 2.05422e-20 2.94206)
(7.15854 4.34682e-20 3.22558)
(6.82378 0 3.52756)
(6.45698 0 3.84756)
(6.05294 1.92574e-19 4.18424)
(5.60521 0 4.53495)
(5.10605 0 4.89507)
(4.54636 1.06192e-19 5.25707)
(3.91626 3.39083e-19 5.60918)
(3.20467 0 5.93417)
(2.40992 0 6.20783)
(1.50167 -1.89634e-21 6.40241)
(0.706431 1.41211e-18 6.37986)
(9.98323 3.82977e-19 0.135913)
(9.96329 -1.95666e-19 0.26213)
(9.92701 1.92792e-19 0.384404)
(9.87102 6.39668e-21 0.507333)
(9.79978 4.22199e-19 0.633188)
(9.71578 -2.16541e-19 0.76353)
(9.61914 2.25301e-19 0.899697)
(9.50963 2.32654e-19 1.04298)
(9.3872 1.17644e-19 1.19467)
(9.25183 -1.55572e-20 1.35607)
(9.10334 1.58833e-20 1.52848)
(8.94141 0 1.71322)
(8.76554 -1.72354e-20 1.91164)
(8.57506 1.7582e-20 2.12508)
(8.36904 1.4514e-19 2.35493)
(8.14626 0 2.60257)
(7.90512 0 2.86938)
(7.64352 -1.00236e-19 3.15669)
(7.35875 -4.11051e-20 3.46572)
(7.04725 0 3.7975)
(6.70445 2.17213e-20 4.15271)
(6.32449 -8.34346e-20 4.53143)
(5.89988 -5.79491e-21 4.93278)
(5.42116 0 5.35416)
(4.87667 0 5.79011)
(4.2526 1.02263e-19 6.23029)
(3.53171 7.19617e-19 6.65675)
(2.70038 -8.72583e-19 7.04031)
(1.6919 0 7.34255)
(0.78698 -6.18565e-19 7.34607)
(9.98363 3.7616e-19 0.144365)
(9.96528 3.87298e-19 0.278415)
(9.93179 -2.05287e-19 0.408304)
(9.87964 2.15488e-19 0.538928)
(9.81327 -2.16763e-19 0.672648)
(9.73518 2.30031e-19 0.811068)
(9.64556 1.27661e-22 0.955581)
(9.54419 -2.27657e-19 1.10755)
(9.43108 -2.5241e-19 1.26835)
(9.30626 -2.42503e-19 1.43936)
(9.16963 -1.09311e-19 1.62198)
(9.02096 2.02324e-22 1.81766)
(8.85985 1.16677e-19 2.02787)
(8.68572 0 2.25418)
(8.49775 -1.62803e-19 2.49822)
(8.29485 1.83771e-20 2.76168)
(8.07552 -1.50608e-19 3.04636)
(7.83783 2.02008e-21 3.35417)
(7.57916 4.08713e-20 3.68711)
(7.29598 -4.15464e-20 4.04722)
(6.98362 2.06309e-20 4.43652)
(6.63592 8.8077e-20 4.85688)
(6.24466 0 5.30982)
(5.7989 -1.09513e-19 5.79592)
(5.28417 1.98491e-19 6.31377)
(4.68218 3.54742e-19 6.85793)
(3.96947 -9.59586e-19 7.41549)
(3.12456 1.37478e-18 7.96461)
(1.9709 -4.57248e-19 8.52717)
(1.0966 -4.63941e-20 8.77613)
(9.98409 -3.77715e-19 0.152244)
(9.96751 -3.85871e-19 0.293561)
(9.93699 -6.16294e-21 0.430489)
(9.88885 -3.9752e-19 0.568218)
(9.82753 0 0.709172)
(9.75566 0 0.854982)
(9.6734 0 1.0071)
(9.58057 2.55543e-21 1.16697)
(9.47724 -1.4667e-20 1.33601)
(9.36351 2.57298e-19 1.51567)
(9.23939 1.25048e-19 1.70744)
(9.10475 0 1.91288)
(8.95931 -1.33191e-19 2.13359)
(8.80266 1.3481e-19 2.37132)
(8.63416 0 2.62791)
(8.45291 3.6256e-20 2.90538)
(8.2577 7.59895e-20 3.20592)
(8.04683 1.14994e-19 3.53198)
(7.81802 0 3.88633)
(7.56822 3.98946e-20 4.27209)
(7.2932 -4.04177e-20 4.69273)
(6.98718 0 5.15219)
(6.64211 8.28757e-20 5.65498)
(6.2467 8.52084e-20 6.20611)
(5.78488 -9.16005e-20 6.81061)
(5.23495 -4.20556e-19 7.47215)
(4.57158 0 8.18758)
(3.82237 0 8.92053)
(2.97526 -6.63368e-19 9.53803)
(2.19086 -2.07602e-18 9.41031)
(9.9846 -3.71788e-19 0.159507)
(9.96981 0 0.307515)
(9.94224 0 0.450908)
(9.89818 -1.9743e-19 0.595123)
(9.84215 0 0.742629)
(9.77672 0 0.895091)
(9.70207 0 1.05403)
(9.61808 2.39124e-19 1.22093)
(9.52488 1.27798e-22 1.39726)
(9.42268 -2.6529e-19 1.58453)
(9.31159 1.52059e-20 1.78429)
(9.19161 -2.49573e-19 1.99817)
(9.06264 -2.24157e-19 2.22792)
(8.92443 -2.01233e-19 2.47539)
(8.7766 6.84853e-20 2.74265)
(8.61858 -3.50096e-20 3.03196)
(8.44952 0 3.34588)
(8.26811 1.45193e-19 3.6873)
(8.0727 0 4.05962)
(7.86115 7.65051e-20 4.46692)
(7.63037 -7.74606e-20 4.91404)
(7.37592 0 5.40697)
(7.09149 -4.594e-19 5.9533)
(6.76786 1.5605e-19 6.56294)
(6.39055 3.62992e-19 7.24897)
(5.9345 1.40158e-19 8.02886)
(5.34041 -2.82366e-19 8.92617)
(4.47535 5.19282e-19 9.96899)
(2.96423 -4.68123e-19 11.2123)
(0.109462 4.31537e-19 13.3183)
(-0.163917 0 0.503668)
(-0.935722 0 0.514703)
(-1.82249 0 0.525644)
(-2.7468 0 0.5304)
(-3.71071 0 0.523544)
(-4.69885 0 0.507312)
(-5.69543 0 0.483539)
(-6.68427 3.28775e-21 0.45324)
(-7.64839 2.31283e-20 0.416895)
(-8.56959 8.66903e-22 0.374704)
(-9.42807 3.97818e-22 0.326755)
(-10.2023 1.33001e-21 0.273151)
(-10.8695 -8.7527e-22 0.214112)
(-11.4058 0 0.150045)
(-11.7874 -7.10209e-21 0.0814779)
(-11.9912 1.75896e-21 0.00883497)
(-11.9955 3.24269e-21 -0.0676587)
(-11.7825 1.49993e-21 -0.147665)
(-11.3434 4.25272e-21 -0.227376)
(-10.6804 -8.51856e-21 -0.302673)
(-9.80587 0 -0.370185)
(-8.74109 -6.11113e-21 -0.427204)
(-7.5153 -7.56288e-22 -0.471739)
(-6.16411 2.11142e-22 -0.502557)
(-4.72659 -5.81138e-21 -0.519075)
(-3.23985 0 -0.521782)
(-1.73679 0 -0.514215)
(-0.0980884 4.21477e-24 -0.501884)
(1.4015 -4.1136e-24 -0.48658)
(3.42105 0 -0.563995)
(-0.456816 6.47394e-19 1.09328)
(-1.22171 5.51924e-21 1.16357)
(-2.11365 -3.79264e-19 1.22592)
(-3.04285 0 1.26919)
(-4.00832 -2.39848e-20 1.28828)
(-4.99335 -2.47925e-20 1.28514)
(-5.98302 2.39724e-20 1.26142)
(-6.9619 0 1.21784)
(-7.91352 2.65227e-20 1.15436)
(-8.81991 -5.40804e-20 1.07044)
(-9.66125 0 0.965384)
(-10.4158 -2.8425e-20 0.838678)
(-11.0603 0 0.690395)
(-11.5704 -7.22058e-21 0.521552)
(-11.9219 1.41398e-20 0.334204)
(-12.0915 -3.4476e-21 0.131125)
(-12.0574 1.28378e-23 -0.0841884)
(-11.8078 -3.34927e-21 -0.304072)
(-11.3375 -1.66237e-20 -0.517228)
(-10.6491 1.49428e-20 -0.714226)
(-9.7548 0 -0.887405)
(-8.67542 5.26856e-21 -1.03089)
(-7.4392 1.52818e-21 -1.14081)
(-6.08041 8.61824e-22 -1.21558)
(-4.63677 4.10531e-21 -1.25591)
(-3.14407 7.52612e-22 -1.26566)
(-1.63128 -4.51766e-21 -1.25562)
(0.016965 8.74653e-23 -1.23837)
(1.47557 0 -1.22254)
(3.42158 -1.47706e-21 -1.35424)
(-0.436869 -9.25611e-19 1.83797)
(-1.27235 -4.68875e-20 1.996)
(-2.19977 -2.42066e-20 2.07966)
(-3.12184 0 2.13429)
(-4.06807 2.37058e-20 2.15354)
(-5.02664 -7.86414e-22 2.13867)
(-5.98602 -1.91132e-21 2.09064)
(-6.933 -6.45191e-20 2.00979)
(-7.85276 -3.92857e-20 1.89569)
(-8.7285 -1.07557e-21 1.74731)
(-9.54119 -5.27486e-20 1.56352)
(-10.2695 3.20526e-20 1.34356)
(-10.8899 -7.0949e-21 1.08778)
(-11.3778 0 0.79826)
(-11.7088 1.4433e-20 0.479228)
(-11.8591 -2.81433e-20 0.136712)
(-11.8059 2.68284e-20 -0.22141)
(-11.54 6.05906e-21 -0.583685)
(-11.0569 -5.38571e-21 -0.933287)
(-10.361 -1.03625e-20 -1.25489)
(-9.4656 -4.59386e-21 -1.53579)
(-8.39183 2.86282e-20 -1.76616)
(-7.16774 0 -1.93945)
(-5.82706 0 -2.05323)
(-4.40712 1.2131e-20 -2.10973)
(-2.94434 -3.79321e-22 -2.11716)
(-1.46454 4.78557e-21 -2.09365)
(0.12909 -1.64426e-22 -2.05243)
(1.50956 -2.86365e-23 -2.02178)
(3.36235 1.45753e-21 -2.15081)
(-0.431178 -2.07743e-19 2.7036)
(-1.26418 4.69321e-21 2.84965)
(-2.17606 9.74161e-20 2.93262)
(-3.0718 -7.19805e-20 2.98436)
(-3.98581 4.68991e-20 2.99529)
(-4.90715 -6.16367e-22 2.96527)
(-5.82771 4.95882e-20 2.89388)
(-6.7368 -5.37174e-20 2.78023)
(-7.62134 6.86198e-21 2.62266)
(-8.46561 -6.39638e-20 2.41889)
(-9.25098 5.71904e-21 2.16655)
(-9.95581 -6.61788e-20 1.86386)
(-10.5558 1.50318e-20 1.51054)
(-11.0249 -1.47272e-20 1.10872)
(-11.3373 -1.4847e-20 0.663745)
(-11.468 1.46178e-20 0.184042)
(-11.3928 0 -0.318857)
(-11.1086 -2.85062e-22 -0.825163)
(-10.6128 5.5895e-22 -1.31098)
(-9.91166 3.1133e-20 -1.75611)
(-9.0197 3.59167e-20 -2.14381)
(-7.95805 -2.84572e-20 -2.4609)
(-6.75438 -2.53986e-21 -2.69834)
(-5.44179 2.51053e-21 -2.85278)
(-4.05732 -1.20265e-20 -2.92793)
(-2.63813 0 -2.9359)
(-1.20264 0 -2.89875)
(0.310562 5.3068e-21 -2.82657)
(1.60348 -8.79e-23 -2.76938)
(3.33955 0 -2.86237)
(-0.38632 5.80261e-20 3.51853)
(-1.19379 -6.13557e-21 3.67934)
(-2.07598 7.67225e-22 3.75399)
(-2.92794 -2.41513e-20 3.7978)
(-3.79578 -9.88139e-20 3.79806)
(-4.66863 -1.01943e-19 3.75285)
(-5.54103 0 3.65971)
(-6.40418 1.17669e-19 3.51576)
(-7.24638 -1.24126e-19 3.31735)
(-8.0527 2.18561e-19 3.06027)
(-8.80463 5.02775e-20 2.74034)
(-9.48007 5.89447e-20 2.35446)
(-10.0538 -1.55071e-20 1.90173)
(-10.4984 1.52186e-20 1.38486)
(-10.7871 0 0.811461)
(-10.8941 0 0.194416)
(-10.7936 7.37517e-21 -0.449002)
(-10.4911 1.29211e-20 -1.09254)
(-9.98501 -3.64291e-20 -1.70645)
(-9.28422 0 -2.26648)
(-8.40369 -4.4225e-20 -2.75259)
(-7.3641 8.28068e-21 -3.14869)
(-6.19222 -5.4898e-20 -3.4434)
(-4.92023 5.27275e-21 -3.63248)
(-3.58492 0 -3.72115)
(-2.22367 0 -3.72506)
(-0.843455 2.38416e-20 -3.66672)
(0.563246 -5.16471e-21 -3.55713)
(1.76778 -7.67059e-24 -3.46601)
(3.36793 7.45231e-24 -3.50548)
(-0.336636 -1.55771e-19 4.31945)
(-1.09435 2.04317e-19 4.46542)
(-1.91879 -2.26726e-19 4.5291)
(-2.70749 4.77038e-20 4.56371)
(-3.51327 1.51169e-19 4.55354)
(-4.3234 1.01359e-19 4.49484)
(-5.13459 -1.07422e-19 4.38288)
(-5.93951 0 4.21256)
(-6.72777 3.35671e-21 3.97785)
(-7.48528 -2.97529e-21 3.67227)
(-8.19386 9.16737e-20 3.28957)
(-8.8312 -9.6143e-20 2.82498)
(-9.3713 3.24822e-20 2.27671)
(-9.78566 -1.55464e-21 1.6476)
(-10.0459 -3.19484e-20 0.947227)
(-10.1253 0 0.193395)
(-9.99669 -3.69448e-20 -0.589535)
(-9.67694 2.87186e-20 -1.36632)
(-9.16531 0 -2.10201)
(-8.47294 0 -2.76982)
(-7.61454 8.82864e-21 -3.3475)
(-6.60939 -8.66904e-21 -3.81661)
(-5.48276 4.93567e-20 -4.16344)
(-4.26526 4.2454e-21 -4.3827)
(-2.99379 -6.35711e-20 -4.48102)
(-1.70387 0 -4.47688)
(-0.387841 2.94741e-21 -4.38715)
(0.882277 0 -4.23716)
(2.00575 1.61224e-23 -4.1073)
(3.45681 4.33653e-22 -4.08185)
(-0.273543 1.07367e-19 5.04372)
(-0.965931 -9.27881e-20 5.18575)
(-1.71359 1.02825e-19 5.24045)
(-2.42065 5.28841e-20 5.26695)
(-3.14694 -1.05007e-19 5.24819)
(-3.87761 5.19423e-20 5.17892)
(-4.61157 1.14087e-19 5.0521)
(-5.34299 -6.81168e-21 4.86014)
(-6.06295 1.14137e-19 4.59437)
(-6.75845 4.33445e-21 4.24563)
(-7.41196 -1.22545e-19 3.80522)
(-8.0012 1.26498e-19 3.26629)
(-8.49952 -3.1016e-20 2.62578)
(-8.87712 1.67651e-19 1.88661)
(-9.10361 -1.72421e-20 1.06051)
(-9.15159 -4.26507e-21 0.171497)
(-8.99291 1.41771e-21 -0.746299)
(-8.65894 3.01209e-20 -1.64792)
(-8.14914 0 -2.49523)
(-7.47619 9.59494e-20 -3.26093)
(-6.65321 0 -3.92157)
(-5.697 0 -4.45665)
(-4.63072 6.12782e-20 -4.85038)
(-3.48265 7.98997e-20 -5.09556)
(-2.29047 5.9118e-20 -5.19958)
(-1.08225 -4.51244e-20 -5.18201)
(0.139641 2.95828e-21 -5.05359)
(1.28122 1.63988e-20 -4.86192)
(2.31665 -4.91596e-23 -4.69119)
(3.6119 -8.04391e-22 -4.59422)
(-0.204215 0 5.66947)
(-0.812115 9.63652e-20 5.82344)
(-1.46748 -1.06412e-19 5.87037)
(-2.0751 -5.27453e-20 5.89067)
(-2.70372 2.77171e-20 5.8661)
(-3.3366 -2.50995e-20 5.79012)
(-3.97549 -1.71365e-21 5.65333)
(-4.6163 2.99647e-20 5.44546)
(-5.25183 1.84456e-19 5.15497)
(-5.87058 -9.2464e-20 4.76975)
(-6.45606 -1.32027e-19 4.27827)
(-6.98634 0 3.67116)
(-7.43431 -1.3808e-19 2.94361)
(-7.76868 2.34605e-22 2.09841)
(-7.95615 1.73963e-20 1.14966)
(-7.9678 -1.3659e-20 0.128413)
(-7.77895 -3.27126e-20 -0.917821)
(-7.43588 -2.98314e-20 -1.93286)
(-6.93819 2.89827e-20 -2.87893)
(-6.29822 -2.20129e-19 -3.7311)
(-5.52578 -6.39439e-20 -4.46547)
(-4.63427 -1.60611e-20 -5.05938)
(-3.64395 -3.31005e-20 -5.49526)
(-2.581 -8.70495e-20 -5.76257)
(-1.48248 6.36605e-20 -5.86832)
(-0.361403 4.48975e-20 -5.8284)
(0.724131 3.62911e-21 -5.66267)
(1.75897 -1.69523e-20 -5.4308)
(2.69764 0 -5.21607)
(3.83495 4.03504e-22 -5.04514)
(-0.13108 -1.15517e-19 6.21294)
(-0.644375 3.56548e-21 6.36421)
(-1.1892 -5.64423e-20 6.40286)
(-1.67896 -5.80811e-20 6.41823)
(-2.19127 2.2717e-19 6.39086)
(-2.70737 -2.91997e-20 6.31266)
(-3.23262 2.83284e-20 6.17152)
(-3.76487 0 5.95439)
(-4.29895 -2.45038e-19 5.64665)
(-4.82516 0 5.23305)
(-5.32861 2.01917e-19 4.69887)
(-5.78836 -6.80956e-20 4.03165)
(-6.17713 0 3.22402)
(-6.46186 3.76278e-20 2.27809)
(-6.60472 2.37737e-21 1.21111)
(-6.57205 9.17131e-20 0.0625566)
(-6.35748 -7.10655e-20 -1.10222)
(-6.01348 0 -2.21521)
(-5.54144 1.19494e-19 -3.24409)
(-4.94999 -4.2673e-21 -4.16998)
(-4.24418 8.68798e-20 -4.96896)
(-3.43349 0 -5.61537)
(-2.5334 0 -6.08904)
(-1.5723 9.66942e-20 -6.37461)
(-0.578101 -6.8372e-20 -6.47773)
(0.430766 5.19828e-20 -6.40938)
(1.37825 -3.15129e-20 -6.21122)
(2.30884 -4.09467e-20 -5.9432)
(3.14459 4.38004e-22 -5.68122)
(4.12422 0 -5.437)
(-0.0513089 1.17369e-19 6.65469)
(-0.461068 -3.57328e-21 6.79435)
(-0.887058 1.31226e-19 6.8215)
(-1.24143 1.2826e-19 6.83318)
(-1.61902 -3.1479e-19 6.80619)
(-1.99967 -1.79346e-19 6.73058)
(-2.39321 6.172e-20 6.5912)
(-2.79937 -6.00403e-20 6.37204)
(-3.21499 -6.63762e-20 6.05541)
(-3.63234 6.49085e-20 5.62279)
(-4.03868 0 5.05604)
(-4.41517 0 4.33901)
(-4.73529 3.26702e-22 3.46045)
(-4.96414 -1.92353e-19 2.42038)
(-5.05768 1.53808e-19 1.24044)
(-4.96971 -1.55465e-19 -0.0273647)
(-4.73875 7.45245e-20 -1.29543)
(-4.40664 -1.38024e-19 -2.48682)
(-3.97665 -1.20568e-19 -3.58048)
(-3.45009 1.06276e-19 -4.56701)
(-2.82688 1.89805e-19 -5.4217)
(-2.1122 0 -6.11594)
(-1.31367 1.42653e-20 -6.62401)
(-0.470588 -1.16336e-19 -6.92282)
(0.415604 -7.13329e-20 -7.01623)
(1.26716 -1.08735e-19 -6.92457)
(2.10823 7.55932e-20 -6.69866)
(2.92348 4.00798e-20 -6.39682)
(3.65183 0 -6.0861)
(4.47512 0 -5.77186)
(0.0144998 -9.87118e-19 6.95946)
(-0.296255 -1.5432e-20 7.09605)
(-0.574645 -8.81705e-20 7.11182)
(-0.772795 0 7.12035)
(-0.998122 -3.5448e-19 7.09662)
(-1.22641 6.01e-19 7.02849)
(-1.47243 1.26245e-19 6.89711)
(-1.73706 -2.53893e-19 6.68334)
(-2.01868 1.27886e-19 6.3664)
(-2.31124 1.42547e-19 5.92469)
(-2.60453 -8.80715e-21 5.33658)
(-2.8833 2.22856e-19 4.58177)
(-3.12404 7.74268e-20 3.64387)
(-3.28997 -8.1643e-20 2.51845)
(-3.32875 8.22073e-20 1.23319)
(-3.1754 1.62579e-19 -0.139658)
(-2.94382 -3.08501e-19 -1.48951)
(-2.6429 3.41571e-22 -2.73673)
(-2.27234 3.57263e-20 -3.87774)
(-1.82548 -2.26108e-19 -4.91519)
(-1.29833 -1.65308e-19 -5.81767)
(-0.692172 0 -6.55394)
(-0.00456806 -1.49867e-19 -7.09398)
(0.712119 3.07082e-21 -7.39672)
(1.44396 8.68337e-20 -7.47999)
(2.17898 5.39413e-20 -7.37274)
(2.90229 -7.0162e-20 -7.12424)
(3.59507 -1.85411e-21 -6.78873)
(4.21179 1.0795e-22 -6.43012)
(4.88064 4.95973e-21 -6.05134)
(0.0626771 1.12669e-18 7.1328)
(-0.138008 3.78112e-19 7.25768)
(-0.256034 1.20578e-19 7.26118)
(-0.282627 -4.78235e-19 7.26555)
(-0.341263 2.29612e-19 7.24842)
(-0.404018 -7.89316e-21 7.19358)
(-0.491139 4.97872e-19 7.07731)
(-0.603118 -2.5021e-19 6.87683)
(-0.738811 1.35106e-19 6.56838)
(-0.893046 -1.41829e-19 6.12787)
(-1.05789 1.5304e-19 5.53093)
(-1.22309 -3.87994e-19 4.75381)
(-1.37177 1.78596e-19 3.77555)
(-1.46304 0 2.5845)
(-1.42943 8.8762e-22 1.20647)
(-1.20094 -8.49279e-20 -0.263642)
(-1.00871 3.96632e-19 -1.67114)
(-0.765001 1.41388e-19 -2.95199)
(-0.470185 -6.87276e-20 -4.12483)
(-0.113402 2.03772e-19 -5.20829)
(0.3125 2.6749e-20 -6.15962)
(0.803449 -1.69676e-19 -6.92595)
(1.35042 2.70582e-19 -7.47767)
(1.93476 -1.07662e-19 -7.79018)
(2.54148 0 -7.87262)
(3.1518 0 -7.75408)
(3.74879 -1.98952e-21 -7.48382)
(4.31358 5.14428e-20 -7.11625)
(4.81505 -2.56727e-20 -6.71277)
(5.3319 -1.0982e-20 -6.27671)
(0.12983 1.59722e-18 7.20386)
(0.0469307 -1.94608e-18 7.29638)
(0.0647316 -7.8802e-21 7.2567)
(0.217993 9.32061e-19 7.25217)
(0.337819 -4.58456e-19 7.24578)
(0.446239 -2.30415e-19 7.21061)
(0.522474 -2.3915e-19 7.11703)
(0.567561 2.64788e-19 6.93792)
(0.583733 -2.60288e-19 6.64699)
(0.576354 7.0533e-20 6.21854)
(0.552343 0 5.62684)
(0.518325 0 4.84638)
(0.481805 1.4749e-19 3.85245)
(0.4891 -2.52647e-19 2.61564)
(0.647351 0 1.13556)
(0.883648 -1.72514e-19 -0.402201)
(1.01008 -1.60386e-19 -1.82828)
(1.17244 -2.97113e-19 -3.12529)
(1.37881 -2.67837e-19 -4.31962)
(1.63445 0 -5.42456)
(1.94821 2.3585e-20 -6.4052)
(2.32436 -6.56701e-21 -7.20887)
(2.75151 -1.54199e-19 -7.7869)
(3.21229 1.06204e-19 -8.11228)
(3.69047 -1.56162e-19 -8.19381)
(4.16923 -8.69737e-21 -8.06444)
(4.63384 2.06797e-21 -7.77396)
(5.06694 -5.1103e-20 -7.37735)
(5.45063 5.23109e-20 -6.93381)
(5.81866 6.0304e-21 -6.44909)
(0.0187355 -3.84894e-18 7.30768)
(0.0128851 2.7883e-18 7.13179)
(0.31839 4.4177e-19 7.04603)
(0.706991 -4.25761e-19 7.04893)
(1.02336 0 7.07087)
(1.30427 -2.35936e-19 7.0689)
(1.54146 2.91571e-19 7.00784)
(1.74028 3.10589e-20 6.85711)
(1.9061 -1.31709e-19 6.58854)
(2.04553 6.945e-20 6.17569)
(2.16587 -1.41647e-19 5.59264)
(2.27337 0 4.81328)
(2.37318 1.60529e-19 3.81043)
(2.50657 -9.82095e-22 2.55798)
(2.72715 2.54621e-19 1.0951)
(2.92666 3.36763e-19 -0.43955)
(3.01092 -2.38213e-19 -1.8918)
(3.09255 5.08147e-19 -3.21281)
(3.20918 1.99777e-19 -4.43523)
(3.37458 3.49608e-19 -5.57538)
(3.59563 -5.33358e-20 -6.5953)
(3.86973 1.7873e-20 -7.4304)
(4.18399 -1.88531e-20 -8.02774)
(4.52209 0 -8.36156)
(4.86948 3.2922e-19 -8.44104)
(5.21299 -1.24423e-19 -8.30115)
(5.5418 -8.05094e-20 -7.99262)
(5.8416 -5.29316e-20 -7.57107)
(6.10645 9.7611e-22 -7.09358)
(6.32986 8.13483e-21 -6.56969)
(-0.50575 0 6.2706)
(-0.237973 -1.8785e-19 6.45682)
(0.490162 -3.91848e-19 6.50278)
(1.16612 3.90779e-19 6.60044)
(1.69652 8.47485e-19 6.70145)
(2.14974 -4.30584e-19 6.76192)
(2.54091 5.61711e-20 6.75096)
(2.88482 -3.05138e-20 6.63976)
(3.19163 0 6.4015)
(3.46993 -5.72699e-21 6.0107)
(3.72755 -2.84891e-19 5.44216)
(3.97061 1.45441e-19 4.67019)
(4.20314 -1.57689e-19 3.66706)
(4.44395 0 2.41769)
(4.69297 -2.50157e-19 0.976238)
(4.87098 3.2323e-19 -0.52437)
(4.92038 1.56272e-19 -1.94687)
(4.93806 -1.44112e-19 -3.26461)
(4.98267 -1.28951e-19 -4.50749)
(5.07755 -3.98472e-19 -5.67946)
(5.224 0 -6.73148)
(5.41043 1.66926e-19 -7.59127)
(5.62052 0 -8.20186)
(5.83946 2.04304e-19 -8.53908)
(6.05653 -1.52527e-19 -8.61395)
(6.26388 2.38368e-19 -8.46347)
(6.45604 8.40002e-20 -8.13939)
(6.6231 5.4701e-20 -7.69766)
(6.76984 -2.75706e-20 -7.19319)
(6.8542 -8.11279e-21 -6.64008)
(9.98513 0 0.166257)
(9.97215 3.62545e-19 0.320486)
(9.94768 0 0.469857)
(9.90804 -8.19462e-21 0.620029)
(9.85765 -1.7058e-19 0.77353)
(9.79903 -1.25587e-20 0.932065)
(9.73241 -1.29918e-20 1.09719)
(9.65777 2.66288e-20 1.27042)
(9.57531 1.90136e-19 1.45325)
(9.48536 4.64728e-19 1.64722)
(9.38814 0 1.85394)
(9.28381 4.76678e-19 2.07511)
(9.17247 4.89868e-19 2.31252)
(9.05412 0 2.56817)
(8.92869 2.22518e-19 2.84423)
(8.79597 6.60416e-20 3.14317)
(8.65564 -3.36851e-20 3.46779)
(8.50711 1.99938e-19 3.82136)
(8.34963 -6.99984e-20 4.20769)
(8.18222 -2.78037e-19 4.63148)
(8.00345 2.79629e-19 5.09857)
(7.81133 1.3689e-19 5.61645)
(7.60309 4.38358e-19 6.19506)
(7.3748 0 6.84816)
(7.12045 -8.0699e-19 7.59583)
(6.83139 0 8.46981)
(6.49556 4.39426e-19 9.527)
(6.13564 0 10.8857)
(6.12561 2.25392e-19 12.8)
(5.75326 1.86592e-18 15.8869)
(9.9857 0 0.172529)
(9.97465 -3.54127e-19 0.332506)
(9.9535 1.12842e-20 0.487333)
(9.91849 3.82945e-19 0.642884)
(9.87396 5.55636e-19 0.801765)
(9.8224 1.21311e-20 0.965704)
(9.76414 1.25279e-20 1.13627)
(9.69923 1.6531e-19 1.31497)
(9.62796 -3.32796e-21 1.50333)
(9.55074 2.34725e-20 1.70293)
(9.46796 -2.20563e-19 1.91537)
(9.37996 -4.56909e-19 2.14238)
(9.28703 -2.07463e-19 2.38583)
(9.18948 2.07426e-19 2.64771)
(9.08758 -2.48939e-19 2.93028)
(8.98158 0 3.23608)
(8.87174 0 3.56803)
(8.75835 -7.40478e-20 3.92952)
(8.64172 1.31803e-19 4.32456)
(8.5222 4.65747e-19 4.75802)
(8.40039 -3.40257e-19 5.23606)
(8.27726 -3.41434e-19 5.76656)
(8.15463 0 6.35997)
(8.0359 2.4716e-19 7.03073)
(7.92813 9.90082e-19 7.79964)
(7.8478 0 8.69815)
(7.83217 -2.71828e-19 9.77422)
(7.93539 -3.05848e-19 11.0986)
(8.47667 -1.09695e-19 12.7307)
(8.93629 -1.39359e-20 14.5861)
(9.98634 0 0.17819)
(9.97736 0 0.343338)
(9.95969 0 0.503037)
(9.92949 0 0.663354)
(9.89103 -4.36436e-21 0.826966)
(9.84683 0 0.995602)
(9.79726 0 1.17081)
(9.74242 -1.99153e-19 1.35412)
(9.68272 -3.8034e-19 1.54704)
(9.61867 -2.35912e-19 1.75112)
(9.5508 2.42243e-19 1.968)
(9.47963 1.93756e-19 2.19937)
(9.4057 -2.2151e-19 2.44707)
(9.3296 -4.58226e-19 2.71311)
(9.25197 0 2.99969)
(9.17356 0 3.30933)
(9.09523 2.38358e-19 3.64486)
(9.01807 -4.91325e-19 4.00958)
(8.94344 6.1661e-20 4.40734)
(8.87312 -6.23095e-19 4.84277)
(8.80964 6.27728e-20 5.32151)
(8.75672 0 5.85059)
(8.72003 0 6.43885)
(8.70858 -2.4433e-19 7.09762)
(8.73701 -8.89291e-19 7.84127)
(8.82944 0 8.68703)
(9.02551 0 9.65087)
(9.3491 -1.19445e-19 10.7379)
(9.96356 0 11.9286)
(10.7284 8.82119e-21 13.068)
(9.98703 0 0.18315)
(9.98022 3.27504e-19 0.352835)
(9.96613 0 0.516774)
(9.94086 0 0.681182)
(9.90864 3.55515e-19 0.848783)
(9.872 -2.26776e-20 1.0213)
(9.83135 4.64109e-20 1.20029)
(9.78686 -2.37405e-20 1.38722)
(9.73899 1.96672e-19 1.5836)
(9.6884 0 1.79094)
(9.63574 0 2.01083)
(9.58173 -2.07088e-19 2.24492)
(9.52711 1.8973e-19 2.49498)