/*--------------------------------*- C++ -*----------------------------------*\
| =========                 |                                                 |
| \\      /  F ield         | OpenFOAM: The Open Source CFD Toolbox           |
|  \\    /   O peration     | Version:  dev                                   |
|   \\  /    A nd           | Web:      www.OpenFOAM.org                      |
|    \\/     M anipulation  |                                                 |
\*---------------------------------------------------------------------------*/
FoamFile
{
    version     2.0;
    format      ascii;
    class       surfaceVectorField;
    location    "0.72";
    object      Uf;
}
// * * * * * * * * * * * * * * * * * * * * * * * * * * * * * * * * * * * * * //

dimensions      [0 1 -1 0 0 0 0];

internalField   nonuniform List<vector> 
881
(
(9.91394 0 0.0232283)
(9.96271 -9.4289e-21 0.0383121)
(9.8163 1.28408e-21 0.0299401)
(9.92283 0 0.044817)
(9.70475 -2.73723e-21 0.0354607)
(9.85653 1.13179e-20 0.0529537)
(9.5771 -3.85192e-21 0.0411542)
(9.76488 9.14678e-21 0.0626598)
(9.43324 -5.75448e-21 0.0470606)
(9.65475 -2.16468e-20 0.0729842)
(9.27328 3.76009e-22 0.0532349)
(9.52854 -1.13523e-20 0.0838518)
(9.09695 5.74916e-21 0.059816)
(9.38568 1.74781e-20 0.0954829)
(8.90365 -8.06923e-22 0.0669435)
(9.22518 0 0.108093)
(8.69256 -1.20198e-21 0.0747444)
(9.04626 -2.54019e-20 0.121869)
(8.4627 -1.49627e-20 0.0833432)
(8.8481 5.34631e-20 0.136995)
(8.21293 -4.49591e-22 0.092866)
(8.62973 -1.40234e-20 0.153657)
(7.94198 -2.17039e-21 0.103445)
(8.38997 -7.34421e-20 0.172042)
(7.6485 4.96075e-21 0.115222)
(8.12751 4.04406e-20 0.192342)
(7.33102 1.92755e-20 0.128345)
(7.84096 1.56912e-20 0.214757)
(6.98806 0 0.142962)
(7.52883 0 0.23947)
(6.61814 9.1545e-21 0.15921)
(7.18961 0 0.26663)
(6.21991 8.8792e-21 0.177202)
(6.82182 1.61359e-19 0.296324)
(5.79222 0 0.197016)
(6.42409 -1.47918e-19 0.328547)
(5.33431 -8.46991e-20 0.218662)
(5.99532 -1.94473e-20 0.363162)
(4.84596 -1.05602e-19 0.242045)
(5.53483 -8.34643e-20 0.399822)
(5.04251 -1.75473e-21 0.437885)
(9.99932 -9.28018e-21 0.0477776)
(9.99168 1.88164e-20 0.0386086)
(9.96506 1.02288e-20 0.0637769)
(9.97889 0 0.0605391)
(9.91109 2.31686e-20 0.0778013)
(9.94313 2.18666e-23 0.0785699)
(9.83889 -9.14855e-21 0.0927246)
(9.88253 2.35009e-20 0.0980901)
(9.74836 -2.70713e-20 0.108597)
(9.80278 -5.40922e-20 0.118908)
(9.63949 6.23518e-21 0.12548)
(9.70639 1.09705e-20 0.140926)
(9.51204 1.14464e-20 0.143657)
(9.59306 2.90288e-20 0.164495)
(9.36554 -2.50023e-20 0.163434)
(9.46195 0 0.190021)
(9.19926 3.05288e-20 0.185099)
(9.31236 -2.461e-20 0.217882)
(9.01229 5.33294e-20 0.20893)
(9.14361 5.14264e-20 0.248449)
(8.80356 -8.79537e-20 0.235211)
(8.95483 1.58621e-21 0.2821)
(8.57185 -2.90404e-20 0.264228)
(8.745 -8.51103e-20 0.319219)
(8.31582 5.07854e-20 0.296278)
(8.51289 1.7876e-19 0.360213)
(8.03401 -3.83701e-21 0.331652)
(8.25719 -1.26941e-19 0.405492)
(7.7249 0 0.370606)
(7.97649 -1.30127e-19 0.455451)
(7.38694 1.54638e-19 0.413332)
(7.6693 1.34061e-19 0.510427)
(7.01865 -5.74824e-23 0.459906)
(7.33413 1.34634e-19 0.570652)
(6.61866 -1.65454e-19 0.510244)
(6.96945 -1.84693e-19 0.636183)
(6.18593 -1.91614e-20 0.564012)
(6.57389 -1.11114e-22 0.70682)
(5.71987 2.16169e-20 0.620514)
(6.1464 -3.636e-19 0.78197)
(5.68627 3.96331e-19 0.86048)
(9.99203 2.78087e-20 0.0539765)
(9.98935 9.44747e-21 0.0421622)
(9.96115 -1.02226e-20 0.0785597)
(9.974 0 0.0747297)
(9.91071 7.37507e-22 0.101714)
(9.93928 -1.00502e-20 0.10253)
(9.8434 -2.2707e-20 0.126351)
(9.88163 -1.03285e-20 0.131159)
(9.7595 -1.49641e-20 0.152709)
(9.80566 -4.32167e-20 0.161509)
(9.65893 3.40885e-20 0.180919)
(9.71395 -5.80522e-21 0.193686)
(9.54152 1.71139e-20 0.211361)
(9.60644 5.79639e-20 0.228116)
(9.40693 0 0.244489)
(9.48246 -4.24623e-20 0.265342)
(9.25458 -2.4956e-21 0.280752)
(9.34142 5.62355e-20 0.305911)
(9.08372 -1.11875e-21 0.320607)
(9.18282 5.16624e-20 0.350362)
(8.89347 3.0668e-21 0.364518)
(9.006 -5.36341e-20 0.39924)
(8.6828 1.26819e-19 0.412976)
(8.81015 1.77999e-21 0.453117)
(8.45054 -3.71526e-21 0.46649)
(8.59431 1.23177e-19 0.512599)
(8.19539 -2.53311e-19 0.525562)
(8.35741 1.60028e-20 0.578306)
(7.91596 7.94264e-21 0.590657)
(8.0983 -2.41577e-19 0.650849)
(7.61078 1.14135e-19 0.662151)
(7.81571 4.20103e-19 0.730782)
(7.27833 -5.46812e-20 0.740258)
(7.50834 -4.86758e-20 0.818542)
(6.9171 -1.66553e-20 0.824934)
(7.17479 -2.89494e-19 0.914359)
(6.52566 -3.49974e-19 0.915748)
(6.81365 5.71271e-20 1.01812)
(6.10282 2.14522e-20 1.0117)
(6.42358 -6.42839e-19 1.1292)
(6.00327 1.32604e-18 1.24624)
(9.98763 -1.85229e-20 0.0634378)
(9.988 -6.1013e-20 0.0476763)
(9.95689 0 0.0981036)
(9.97079 3.38391e-20 0.0888589)
(9.90733 -2.11221e-20 0.131254)
(9.93588 -9.9972e-21 0.126087)
(9.84107 -3.13721e-20 0.165583)
(9.87926 -2.45939e-23 0.163726)
(9.75877 -3.34299e-20 0.201819)
(9.80479 -2.14928e-20 0.203316)
(9.66045 1.91426e-20 0.240358)
(9.71495 -7.83892e-20 0.245296)
(9.546 -3.23375e-21 0.281734)
(9.60986 6.3571e-20 0.290174)
(9.4152 1.53654e-20 0.326563)
(9.48893 -1.86917e-22 0.338589)
(9.26765 1.10333e-19 0.375472)
(9.35171 5.04507e-20 0.391226)
(9.1028 -2.5181e-21 0.429084)
(9.19782 1.06867e-19 0.448764)
(8.92004 -5.4069e-20 0.488039)
(9.02677 -5.40029e-20 0.511868)
(8.71863 0 0.553023)
(8.83797 -1.11877e-19 0.581254)
(8.49772 1.41237e-19 0.624747)
(8.63074 7.30452e-21 0.657696)
(8.25635 2.38783e-20 0.703929)
(8.40428 3.69326e-19 0.74199)
(7.99351 1.8062e-19 0.791255)
(8.15776 -6.51527e-19 0.834922)
(7.70806 2.50382e-19 0.887327)
(7.89025 5.32655e-19 0.937238)
(7.39883 -2.86972e-19 0.992584)
(7.60079 2.81284e-19 1.04958)
(7.06456 -2.10712e-19 1.10718)
(7.28827 -5.38524e-19 1.17237)
(6.70387 -2.45895e-19 1.23082)
(6.95158 3.16573e-22 1.30573)
(6.31531 6.88718e-19 1.36253)
(6.58942 -9.06869e-19 1.4492)
(6.20015 1.51542e-18 1.6015)
(9.98545 -7.07875e-21 0.0737234)
(9.98733 -4.21331e-20 0.0541624)
(9.9543 2.30379e-20 0.117121)
(9.96911 1.45346e-20 0.103182)
(9.9055 1.12731e-20 0.159139)
(9.93415 -9.99905e-21 0.149293)
(9.84035 9.50276e-21 0.2023)
(9.87855 4.14049e-20 0.195762)
(9.7596 -6.73918e-20 0.247749)
(9.80567 3.21335e-20 0.244364)
(9.66331 -3.16192e-20 0.296129)
(9.71784 -3.37365e-20 0.295867)
(9.55142 6.55977e-20 0.348081)
(9.61524 -1.17518e-20 0.350886)
(9.42373 3.57099e-20 0.404321)
(9.49732 8.99926e-20 0.410148)
(9.2799 4.78414e-20 0.465591)
(9.36367 9.41025e-20 0.474454)
(9.11952 5.28343e-20 0.532615)
(9.21401 -1.53936e-19 0.544591)
(8.94211 -1.12732e-19 0.606138)
(9.04795 1.08009e-19 0.621317)
(8.74713 -1.02775e-19 0.686967)
(8.86501 -1.1541e-19 0.705453)
(8.53396 2.4092e-19 0.775962)
(8.66467 2.33703e-19 0.797913)
(8.3019 -3.21501e-19 0.873985)
(8.44636 2.33157e-19 0.899631)
(8.05021 -2.81974e-19 0.98188)
(8.20945 -7.74648e-19 1.01152)
(7.77811 5.59967e-19 1.10043)
(7.95328 2.46681e-19 1.1345)
(7.48473 1.81621e-20 1.23025)
(7.67713 5.86625e-19 1.26936)
(7.16914 -3.19714e-19 1.37172)
(7.38014 -5.32156e-19 1.41672)
(6.83025 -6.73574e-19 1.52483)
(7.06143 -3.75668e-20 1.57693)
(6.4666 -4.80221e-20 1.68882)
(6.71992 -1.16036e-20 1.74993)
(6.35393 -6.75206e-20 1.93471)
(9.98442 -1.95467e-20 0.0843813)
(9.98702 3.74375e-20 0.0611074)
(9.95303 -1.89788e-20 0.135938)
(9.96838 -1.93133e-20 0.117619)
(9.90513 2.10057e-20 0.186556)
(9.93374 -3.97559e-20 0.172087)
(9.84142 6.38848e-20 0.238516)
(9.87935 -2.05544e-20 0.227109)
(9.76256 6.47219e-20 0.29315)
(9.80832 4.28143e-20 0.284473)
(9.6687 -1.34818e-20 0.351274)
(9.72287 2.21465e-20 0.345202)
(9.55976 1.42777e-20 0.413617)
(9.62319 -3.47667e-20 0.410044)
(9.43556 1.48447e-19 0.480983)
(9.50872 -4.7951e-20 0.479812)
(9.29582 -1.11607e-19 0.55421)
(9.37911 1.98422e-19 0.555402)
(9.1402 -9.47695e-20 0.634119)
(9.23414 -2.06779e-19 0.637684)
(8.96829 1.01937e-19 0.721545)
(9.07353 -3.81333e-23 0.727507)
(8.77966 2.26442e-19 0.817406)
(8.89682 1.08474e-19 0.825787)
(8.57383 2.25972e-19 0.922686)
(8.70357 4.65199e-19 0.933537)
(8.35026 -2.34968e-19 1.03837)
(8.49339 -9.36534e-21 1.0518)
(8.10841 -2.30923e-19 1.16545)
(8.26576 -4.97158e-19 1.18162)
(7.84769 2.78158e-19 1.30485)
(8.02014 3.21867e-20 1.32402)
(7.5674 2.05492e-20 1.45737)
(7.75604 2.74328e-19 1.48)
(7.26676 -2.42998e-19 1.6236)
(7.4727 -2.81541e-19 1.65034)
(6.94487 6.25037e-19 1.80382)
(7.16919 7.20491e-20 1.83563)
(6.60044 -3.14403e-20 1.9977)
(6.84464 6.16945e-19 2.03618)
(6.49751 -4.76801e-19 2.25148)
(9.98402 3.67833e-20 0.0951876)
(9.98691 3.73785e-20 0.0682276)
(9.95278 -4.04445e-20 0.15453)
(9.96828 -5.74932e-20 0.131998)
(9.90596 -8.10014e-20 0.213401)
(9.93432 -1.98529e-20 0.19438)
(9.84395 -4.0583e-20 0.273873)
(9.88141 -6.18226e-20 0.257639)
(9.76732 -1.05443e-22 0.337361)
(9.81248 4.23297e-20 0.323481)
(9.67628 -5.46503e-23 0.404845)
(9.72976 -2.21232e-20 0.3931)
(9.57076 -9.71988e-20 0.477172)
(9.63342 -2.28047e-20 0.4674)
(9.45058 5.87721e-21 0.555236)
(9.52288 -1.24093e-20 0.547296)
(9.3155 9.69808e-20 0.639954)
(9.39784 6.48094e-22 0.633744)
(9.16526 -1.08834e-19 0.732231)
(9.25819 1.02408e-19 0.727675)
(8.99953 8.10073e-21 0.833002)
(9.10367 -2.12532e-19 0.830042)
(8.8179 3.52619e-19 0.943272)
(8.93389 1.13748e-19 0.941863)
(8.61997 2.22858e-19 1.06411)
(8.74846 2.28141e-19 1.06422)
(8.40534 -2.78629e-19 1.19662)
(8.54707 -2.35243e-19 1.19824)
(8.17355 -2.26407e-19 1.3419)
(8.3293 -3.34722e-21 1.34508)
(7.92413 3.1747e-20 1.50102)
(8.09465 2.52709e-22 1.5059)
(7.6565 -3.54883e-20 1.675)
(7.84275 0 1.68187)
(7.36986 3.85221e-20 1.8646)
(7.57295 5.50223e-19 1.87404)
(7.06329 7.11371e-20 2.07042)
(7.28419 -5.64079e-19 2.0832)
(6.7356 1.57703e-19 2.2926)
(6.97562 7.30909e-20 2.31)
(6.64575 -1.14304e-18 2.55456)
(9.98401 -5.84093e-20 0.105959)
(9.98693 9.27459e-21 0.0753512)
(9.95325 -3.61751e-20 0.172761)
(9.96861 -8.6081e-20 0.146164)
(9.90774 -1.37715e-21 0.239522)
(9.93563 5.9435e-20 0.216062)
(9.84773 2.27803e-20 0.308186)
(9.88447 -4.15471e-23 0.287216)
(9.77366 1.92701e-20 0.380192)
(9.81797 -2.10624e-20 0.361217)
(9.68581 -4.48906e-20 0.456667)
(9.73831 -8.79579e-20 0.439361)
(9.58415 6.21738e-20 0.538593)
(9.6457 -4.5942e-20 0.522725)
(9.46848 -1.74174e-20 0.626938)
(9.53953 1.88968e-19 0.612325)
(9.33864 7.59758e-21 0.722672)
(9.4196 -1.21116e-20 0.709153)
(9.19443 -6.03927e-21 0.82678)
(9.28586 -8.72646e-20 0.814196)
(9.03556 -1.02021e-19 0.940295)
(9.13807 -2.18197e-19 0.92851)
(8.86169 -9.15635e-21 1.06431)
(8.97593 4.36666e-19 1.0532)
(8.6725 -2.36875e-19 1.19997)
(8.79912 -4.58073e-19 1.18943)
(8.46761 4.33907e-20 1.34847)
(8.60737 9.30583e-21 1.3384)
(8.24663 2.23666e-19 1.51102)
(8.40033 7.46723e-19 1.50141)
(8.00914 -3.15341e-20 1.68887)
(8.17752 -5.46837e-19 1.6797)
(7.75466 5.93398e-19 1.88322)
(7.93857 -5.54652e-19 1.87464)
(7.48238 -6.64938e-20 2.09515)
(7.68289 1.05376e-18 2.08757)
(7.19132 -5.54464e-19 2.32551)
(7.40956 -6.36971e-19 2.31957)
(6.88021 -1.24313e-18 2.57494)
(7.11757 -7.04183e-20 2.57164)
(6.80532 -1.30052e-18 2.84456)
(9.98428 -2.00377e-20 0.116558)
(9.98699 1.8517e-20 0.0823544)
(9.95425 1.21941e-20 0.190513)
(9.96927 -1.90258e-20 0.160002)
(9.91029 5.97469e-20 0.264789)
(9.93752 5.91891e-20 0.237025)
(9.85256 -4.42376e-20 0.341301)
(9.88838 2.05508e-20 0.315692)
(9.78141 -1.29403e-19 0.421477)
(9.82461 -2.14238e-20 0.397513)
(9.69711 -8.83358e-20 0.506555)
(9.74835 -4.40594e-20 0.483803)
(9.5997 8.45592e-20 0.597651)
(9.6598 6.74924e-20 0.575804)
(9.48902 1.91194e-19 0.695801)
(9.55844 1.24467e-20 0.67464)
(9.36496 -1.08132e-19 0.802017)
(9.44414 9.80006e-20 0.781319)
(9.22737 -3.01509e-19 0.917358)
(9.31686 -2.02424e-19 0.896891)
(9.07603 3.30261e-19 1.04295)
(9.17642 -1.19348e-19 1.0225)
(8.91068 -2.51403e-20 1.17997)
(9.0226 4.28587e-19 1.15934)
(8.73104 -2.05353e-19 1.32963)
(8.85518 -4.46034e-19 1.30862)
(8.53681 7.23298e-19 1.49326)
(8.67393 2.2916e-19 1.47168)
(8.32762 -4.14131e-20 1.67218)
(8.47857 4.87401e-19 1.64991)
(8.10303 -1.07065e-18 1.86777)
(8.26867 -4.99953e-19 1.84474)
(7.86253 -7.39839e-20 2.08148)
(8.04368 -5.23318e-19 2.05765)
(7.6055 4.62263e-19 2.31468)
(7.80314 5.01585e-19 2.29024)
(7.33099 -1.45417e-19 2.5686)
(7.54636 5.45999e-19 2.54395)
(7.03757 -1.42031e-19 2.8444)
(7.27226 -1.75621e-18 2.82024)
(6.97913 1.11277e-18 3.12065)
(9.98472 1.86635e-20 0.126876)
(9.98705 9.2426e-21 0.0891658)
(9.95571 2.94698e-20 0.207673)
(9.97021 9.55711e-21 0.173377)
(9.91351 1.9305e-20 0.289085)
(9.93993 -1.95734e-20 0.257166)
(9.85831 4.2682e-20 0.373071)
(9.89297 4.04383e-20 0.342953)
(9.79037 6.35917e-20 0.461039)
(9.83222 2.22987e-22 0.432208)
(9.70998 1.13597e-19 0.554305)
(9.75969 2.18588e-20 0.526243)
(9.6172 -5.48127e-21 0.654106)
(9.67552 1.13072e-19 0.626432)
(9.51196 -7.95231e-20 0.76154)
(9.57937 -9.32931e-20 0.733987)
(9.39421 -8.05625e-22 0.877659)
(9.47117 -8.43207e-20 0.849945)
(9.26383 -1.89256e-20 1.0036)
(9.35087 1.113e-19 0.975421)
(9.12066 -1.31519e-20 1.14056)
(9.21837 6.45434e-21 1.11164)
(8.96452 -4.85125e-21 1.28978)
(9.07353 -3.60754e-23 1.25984)
(8.79522 -1.93023e-21 1.45257)
(8.9162 -6.84125e-21 1.42131)
(8.61255 -3.54312e-21 1.63037)
(8.74622 -2.49399e-23 1.59748)
(8.41618 1.57071e-20 1.82467)
(8.56344 -3.65548e-21 1.7899)
(8.2056 4.77744e-20 2.037)
(8.36747 2.30567e-20 2.00019)
(7.98029 6.51999e-20 2.26897)
(8.15771 -4.70534e-19 2.23001)
(7.73973 5.85707e-19 2.52225)
(7.93375 2.89832e-20 2.48107)
(7.48311 -1.09163e-18 2.79853)
(7.69496 1.04263e-18 2.75517)
(7.20907 -4.71471e-19 3.09963)
(7.44034 -2.74362e-18 3.05438)
(7.16842 2.26579e-18 3.38103)
(9.98529 0 0.136821)
(9.98718 0 0.0957224)
(9.95753 -3.99201e-20 0.224135)
(9.97135 -1.88826e-20 0.186183)
(9.91726 2.50505e-21 0.31231)
(9.94274 5.82117e-20 0.276404)
(9.86477 -2.73398e-21 0.403367)
(9.89811 -4.01825e-20 0.368904)
(9.80035 -4.1187e-20 0.498717)
(9.84064 4.15312e-20 0.465152)
(9.72419 2.27514e-20 0.599734)
(9.77213 -4.3028e-20 0.566512)
(9.63639 2.20551e-20 0.70774)
(9.69264 6.34051e-23 0.674423)
(9.53702 -9.79494e-20 0.823889)
(9.60207 9.24901e-20 0.790138)
(9.42604 3.06874e-20 0.949289)
(9.50038 -1.1967e-19 0.914759)
(9.3034 1.35214e-19 1.08514)
(9.38753 1.06703e-21 1.04947)
(9.16899 1.94879e-20 1.23271)
(9.26351 1.29072e-20 1.19555)
(9.02271 -2.11869e-21 1.39328)
(9.12825 6.67793e-21 1.35428)
(8.86446 -4.84661e-21 1.56825)
(8.98167 -2.3341e-19 1.52702)
(8.69411 -1.83333e-22 1.75917)
(8.82367 2.33905e-19 1.71527)
(8.51146 4.03514e-21 1.96772)
(8.65421 -4.64336e-19 1.92073)
(8.31607 -5.01755e-19 2.19564)
(8.47303 -3.56643e-21 2.14524)
(8.10742 -5.01601e-19 2.44467)
(8.27977 -1.83977e-20 2.39064)
(7.88495 4.97196e-19 2.7167)
(8.07402 -5.10229e-19 2.6588)
(7.64792 -6.50921e-19 3.01389)
(7.85499 1.04521e-18 2.95182)
(7.39522 4.49137e-20 3.33879)
(7.62184 -1.09716e-18 3.27231)
(7.37349 6.63784e-20 3.62337)
(9.98601 -1.91847e-20 0.146319)
(9.9874 0 0.101959)
(9.95963 8.06669e-20 0.239823)
(9.97264 -1.12662e-19 0.198361)
(9.92145 1.38842e-20 0.334381)
(9.94585 7.80168e-20 0.294665)
(9.87187 5.36091e-21 0.432072)
(9.90378 -1.20728e-19 0.393449)
(9.81121 3.83577e-20 0.534355)
(9.84977 1.24804e-19 0.496223)
(9.73956 -6.50622e-20 0.642663)
(9.7855 -8.60107e-20 0.604458)
(9.65708 7.19256e-20 0.758346)
(9.71103 6.59869e-20 0.719592)
(9.56392 6.7643e-20 0.882604)
(9.62639 9.25487e-20 0.842885)
(9.46013 -1.47546e-19 1.01662)
(9.53156 -1.8906e-19 0.975518)
(9.3457 -1.21187e-19 1.16165)
(9.42658 7.15748e-20 1.11874)
(9.22061 0 1.319)
(9.31152 0 1.27388)
(9.0848 -2.28013e-19 1.49001)
(9.1864 0 1.44227)
(8.93824 1.1462e-20 1.67616)
(9.05116 -4.13407e-19 1.62531)
(8.78089 -2.39413e-19 1.87907)
(8.90581 4.57559e-19 1.82457)
(8.61267 -4.66824e-19 2.1006)
(8.75033 -4.61294e-19 2.04185)
(8.43342 4.79802e-19 2.3427)
(8.58471 -1.84034e-20 2.27913)
(8.24281 -3.2516e-20 2.60732)
(8.40895 4.89519e-19 2.53848)
(8.04021 5.34903e-20 2.89657)
(8.22277 -9.97288e-19 2.82206)
(7.82484 5.77239e-19 3.21296)
(8.02538 1.0529e-18 3.13225)
(7.59585 -1.0656e-18 3.55965)
(7.81601 3.74637e-20 3.47196)
(7.59396 -1.08138e-18 3.84499)
(9.98682 -9.52713e-20 0.155313)
(9.98768 8.15349e-20 0.107836)
(9.96195 -1.11933e-19 0.254666)
(9.97404 4.63397e-20 0.209851)
(9.92604 -5.98699e-20 0.355208)
(9.9492 -1.9493e-20 0.311862)
(9.87956 2.6677e-21 0.45908)
(9.90992 -7.79441e-23 0.416492)
(9.82285 -2.93324e-21 0.567825)
(9.85953 -4.12012e-20 0.525321)
(9.75599 4.74338e-20 0.682931)
(9.7997 -8.58293e-20 0.639935)
(9.67915 8.70277e-20 0.80574)
(9.73054 1.76107e-19 0.761761)
(9.59255 -1.6842e-19 0.937485)
(9.65211 -9.09964e-20 0.89204)
(9.49631 3.38633e-20 1.07941)
(9.56445 1.15239e-19 1.03201)
(9.39052 1.91898e-19 1.23283)
(9.46769 2.02891e-21 1.18299)
(9.27523 0 1.3991)
(9.362 0 1.34633)
(9.15044 -1.90969e-19 1.57962)
(9.24749 0 1.52344)
(9.01618 4.39085e-20 1.77589)
(9.12416 -1.75509e-19 1.71577)
(8.87248 2.24241e-19 1.98962)
(8.99205 6.50011e-19 1.92492)
(8.71942 -7.3621e-21 2.22275)
(8.85126 -4.45878e-19 2.15271)
(8.55711 -3.36613e-21 2.47737)
(8.70204 4.74455e-19 2.40122)
(8.38551 -4.92488e-19 2.75574)
(8.5446 -4.80135e-19 2.67269)
(8.20423 2.2676e-20 3.06027)
(8.37892 -4.95045e-19 2.96962)
(8.0126 5.02941e-19 3.39375)
(8.20472 5.04288e-19 3.29471)
(7.80996 1.21755e-20 3.75973)
(8.02137 -3.09653e-20 3.65108)
(7.82849 1.20153e-22 4.04299)
(9.98772 2.22508e-19 0.163762)
(9.98799 1.5705e-22 0.113312)
(9.96443 1.37776e-19 0.268602)
(9.97551 5.63788e-20 0.220622)
(9.93092 4.0639e-20 0.374706)
(9.95274 9.58225e-20 0.327933)
(9.88775 -4.46203e-20 0.484295)
(9.91648 1.19127e-19 0.437934)
(9.83519 -1.24845e-19 0.599017)
(9.86989 -1.23658e-19 0.552341)
(9.77332 4.69075e-20 0.720399)
(9.81463 -6.61064e-22 0.672837)
(9.70236 -5.96845e-21 0.84976)
(9.75097 1.75219e-19 0.800805)
(9.62257 1.95784e-19 0.988344)
(9.67899 -1.80863e-19 0.937449)
(9.53419 8.18596e-20 1.13745)
(9.59876 5.1382e-19 1.08406)
(9.43738 -1.90091e-19 1.29844)
(9.51052 -3.83667e-19 1.242)
(9.33227 0 1.47271)
(9.41449 1.73031e-19 1.41266)
(9.21897 1.32248e-20 1.66172)
(9.3109 -1.77012e-19 1.59751)
(9.09756 4.41314e-19 1.86701)
(9.19989 -1.31311e-20 1.79804)
(8.96817 -3.34324e-20 2.0903)
(9.08158 4.49947e-19 2.01585)
(8.83108 4.68452e-20 2.33355)
(8.95617 -8.59806e-19 2.25275)
(8.68653 -1.26328e-20 2.59898)
(8.82412 9.17702e-19 2.51088)
(8.53474 -4.82991e-19 2.88903)
(8.68579 -4.70216e-19 2.79259)
(8.37583 -3.75302e-21 3.20645)
(8.54145 -4.74628e-19 3.10053)
(8.20961 -3.53261e-20 3.55429)
(8.39156 -6.76447e-22 3.43772)
(8.03572 -4.28035e-20 3.9364)
(8.23597 4.51877e-19 3.8075)
(8.07468 -6.89721e-20 4.21443)
(9.98864 -1.65147e-19 0.171633)
(9.96704 1.51543e-20 0.281576)
(9.93612 1.74728e-19 0.392786)
(9.95653 -4.66875e-20 0.342789)
(9.89645 3.61827e-20 0.507614)
(9.92348 5.97064e-21 0.457684)
(9.84817 2.4651e-21 0.627822)
(9.88074 -3.45714e-21 0.577218)
(9.79142 1.30382e-19 0.75494)
(9.83014 1.22531e-19 0.703101)
(9.72651 -4.99356e-21 0.890242)
(9.77219 7.45669e-21 0.836623)
(9.65378 1.47276e-19 1.03498)
(9.7069 -1.33607e-19 0.978982)
(9.5735 3.56205e-20 1.1905)
(9.63437 1.49982e-19 1.13152)
(9.4859 -1.2763e-20 1.3582)
(9.5549 -1.49985e-19 1.29564)
(9.39122 -8.57627e-21 1.53952)
(9.46883 1.99567e-19 1.47273)
(9.28969 -2.01344e-19 1.73595)
(9.37645 -2.04303e-19 1.66428)
(9.18154 1.12572e-21 1.94907)
(9.2781 -5.08913e-20 1.87185)
(9.06703 -3.9222e-19 2.18056)
(9.1741 2.11153e-21 2.09702)
(8.94654 3.12984e-20 2.43239)
(9.06471 -4.21993e-19 2.34155)
(8.82049 4.45464e-19 2.70685)
(8.95052 -3.24194e-22 2.60763)
(8.68933 -4.61775e-19 3.00643)
(8.83216 4.40889e-19 2.89761)
(8.55368 -4.68139e-19 3.33406)
(8.7102 -4.26679e-19 3.21413)
(8.41402 4.90115e-19 3.69301)
(8.58572 -6.90562e-22 3.56032)
(8.27064 4.21877e-19 4.08733)
(8.45926 5.80757e-19 3.93976)
(8.33149 -5.09501e-21 4.35708)
(9.94177 -2.22104e-19 0.409697)
(9.90573 -3.51776e-20 0.529422)
(9.9311 -1.49704e-19 0.476343)
(9.86186 1.20824e-19 0.654746)
(9.89232 1.9262e-21 0.600738)
(9.81048 -4.72727e-21 0.787154)
(9.8467 8.20519e-20 0.731618)
(9.75201 -1.25562e-19 0.927887)
(9.79486 -8.43109e-20 0.870224)
(9.68676 -1.32139e-19 1.07822)
(9.73669 -4.31258e-20 1.0178)
(9.61504 -4.12788e-20 1.23954)
(9.67233 -2.59015e-19 1.17572)
(9.53715 6.87197e-20 1.41324)
(9.60216 1.32746e-19 1.34537)
(9.45342 -1.30167e-21 1.60078)
(9.52661 -1.55461e-19 1.52816)
(9.36424 -4.89043e-20 1.80365)
(9.44607 1.58881e-19 1.72556)
(9.27005 -5.02343e-20 2.02345)
(9.36106 -1.28839e-21 1.93909)
(9.17129 -2.55649e-20 2.26184)
(9.27213 -2.58814e-20 2.17035)
(9.06843 -4.58751e-19 2.52078)
(9.17964 -2.51499e-20 2.42111)
(8.96209 -9.69156e-21 2.80252)
(9.08438 -8.3724e-19 2.69347)
(8.85307 4.85802e-19 3.1095)
(8.9873 8.50871e-19 2.98969)
(8.74237 5.44634e-20 3.44461)
(8.88934 3.0143e-21 3.31226)
(8.63113 8.60546e-20 3.81121)
(8.79194 0 3.66424)
(8.52047 1.43293e-19 4.2134)
(8.69632 8.52792e-20 4.04923)
(8.60426 5.411e-19 4.4716)
(9.91556 -1.11093e-19 0.549701)
(9.8763 -3.75339e-20 0.679712)
(9.9044 -1.47904e-19 0.622362)
(9.8306 0 0.816875)
(9.86405 7.497e-20 0.757696)
(9.77885 2.73842e-22 0.962452)
(9.81855 3.853e-20 0.900807)
(9.72138 -1.73616e-19 1.11775)
(9.76773 4.01991e-20 1.053)
(9.65852 -8.00997e-20 1.28416)
(9.7118 -1.32481e-19 1.21562)
(9.59069 -9.73769e-20 1.46305)
(9.65121 1.31141e-19 1.39003)
(9.51831 8.83109e-21 1.65586)
(9.58648 -1.83837e-19 1.57763)
(9.44189 2.0768e-19 1.86406)
(9.51813 1.88059e-19 1.77984)
(9.36204 2.36884e-20 2.08921)
(9.44686 1.60784e-19 1.99811)
(9.27942 -2.54452e-20 2.33297)
(9.37323 1.86086e-19 2.23402)
(9.19468 -4.12148e-19 2.59725)
(9.2979 -7.20383e-20 2.48935)
(9.1087 4.0867e-20 2.88416)
(9.222 -7.74037e-19 2.76601)
(9.02265 3.57925e-19 3.19599)
(9.14669 4.21276e-19 3.06606)
(8.93782 -5.28277e-20 3.53545)
(9.0733 -5.40143e-20 3.39184)
(8.85587 -1.10355e-21 3.90572)
(9.00339 -3.52443e-19 3.74612)
(8.77883 4.91474e-19 4.31064)
(8.93891 4.55989e-19 4.13213)
(8.88279 3.42048e-19 4.55362)
(9.89138 -3.19153e-20 0.702422)
(9.85158 1.14358e-19 0.843778)
(9.88211 4.02845e-21 0.781055)
(9.80679 7.94456e-20 0.993604)
(9.84312 1.88921e-19 0.928062)
(9.75734 8.20116e-20 1.15322)
(9.79987 -7.43018e-20 1.0842)
(9.70364 8.43403e-20 1.32397)
(9.75261 4.20941e-20 1.25078)
(9.64617 4.21746e-20 1.5072)
(9.70188 2.05865e-19 1.42912)
(9.58549 0 1.70431)
(9.64825 -1.24909e-19 1.62054)
(9.52223 1.39963e-19 1.9167)
(9.59243 -4.24372e-20 1.82643)
(9.45707 3.27512e-19 2.14586)
(9.53518 1.83869e-19 2.04818)
(9.39084 1.39039e-19 2.3934)
(9.47709 1.24734e-20 2.28727)
(9.32451 -4.41607e-19 2.66113)
(9.41915 1.34653e-19 2.54535)
(9.25928 -3.86984e-19 2.95095)
(9.36283 -3.50144e-19 2.82412)
(9.19655 0 3.26494)
(9.30946 -4.22035e-19 3.12545)
(9.13789 -3.60434e-19 3.6055)
(9.26063 3.81439e-19 3.45145)
(9.08538 1.12443e-19 3.97537)
(9.21811 -1.22137e-19 3.80441)
(9.04181 3.03056e-19 4.37774)
(9.18443 3.67772e-19 4.18682)
(9.16326 -4.48634e-19 4.60155)
(9.87327 8.09391e-20 0.867498)
(9.83562 3.07919e-20 1.02091)
(9.86837 1.16813e-19 0.95169)
(9.79441 -1.15015e-19 1.18411)
(9.83286 -8.07292e-20 1.11105)
(9.75009 1.66881e-19 1.35838)
(9.79445 -1.52987e-19 1.28079)
(9.70323 3.44109e-20 1.54501)
(9.75378 2.8429e-19 1.46214)
(9.6545 -1.68389e-19 1.74532)
(9.71146 -1.28461e-19 1.65635)
(9.60461 2.54642e-21 1.96067)
(9.66834 1.62243e-19 1.86473)
(9.55436 -1.38879e-19 2.19244)
(9.62523 -1.22896e-19 2.08862)
(9.50472 8.05608e-21 2.4421)
(9.58283 -3.54212e-19 2.32935)
(9.45694 2.2972e-19 2.71124)
(9.5424 4.05579e-19 2.58828)
(9.41247 -3.85985e-19 3.00156)
(9.50561 4.64253e-20 2.86694)
(9.3729 -3.35648e-20 3.3149)
(9.47391 1.61625e-20 3.16698)
(9.34007 6.2756e-19 3.65325)
(9.4491 -4.26654e-19 3.49019)
(9.31642 1.3787e-19 4.01866)
(9.43324 7.06814e-19 3.83823)
(9.30514 -3.98948e-19 4.41342)
(9.42921 2.6316e-19 4.21273)
(9.44083 -6.71535e-19 4.61557)
(9.86509 2.10311e-21 1.04406)
(9.83225 -1.19776e-19 1.21005)
(9.86639 1.10311e-19 1.13323)
(9.79747 -3.22027e-20 1.38695)
(9.83696 -1.5709e-19 1.30526)
(9.76139 1.17126e-19 1.57597)
(9.80645 1.58587e-19 1.48864)
(9.72472 2.10611e-19 1.77835)
(9.77555 1.54127e-19 1.68456)
(9.68829 3.38357e-20 1.99536)
(9.74516 5.26396e-20 1.89421)
(9.65302 -3.4355e-19 2.22826)
(9.71616 -1.72148e-19 2.11885)
(9.62003 5.2128e-20 2.47829)
(9.68948 -1.75661e-19 2.35956)
(9.59072 2.18148e-19 2.74678)
(9.66649 2.24071e-19 2.61746)
(9.56667 4.58994e-19 3.03521)
(9.64887 1.26188e-19 2.89386)
(9.54965 -3.86248e-19 3.34513)
(9.6382 2.44325e-19 3.19014)
(9.54177 -3.49185e-19 3.67802)
(9.63647 -6.63758e-19 3.50766)
(9.54567 8.37678e-19 4.03519)
(9.64599 2.96691e-19 3.84744)
(9.56459 -1.13564e-20 4.41797)
(9.6697 3.76262e-19 4.21035)
(9.71116 -2.94162e-19 4.59728)
(9.87055 7.16782e-20 1.2307)
(9.84537 3.87371e-20 1.40929)
(9.8201 1.96516e-19 1.59965)
(9.85952 3.89608e-20 1.50824)
(9.79551 -7.70159e-21 1.80292)
(9.84003 1.95914e-19 1.70474)
(9.7725 -1.58328e-19 2.02025)
(9.82228 -4.67332e-19 1.91441)
(9.75214 0 2.25273)
(9.80728 2.33156e-22 2.13832)
(9.73565 0 2.50136)
(9.79612 7.98413e-20 2.37736)
(9.72446 1.29951e-19 2.76723)
(9.79021 1.60592e-19 2.63243)
(9.72022 -9.38904e-20 3.05153)
(9.79113 -3.34302e-20 2.90456)
(9.72482 -3.74457e-20 3.35544)
(9.8006 -2.21611e-19 3.19479)
(9.74056 -4.50131e-21 3.67991)
(9.8207 9.76519e-20 3.504)
(9.77006 -1.76519e-19 4.02557)
(9.85382 1.54844e-19 3.83267)
(9.81644 8.9217e-20 4.39291)
(9.90276 -2.28244e-21 4.18101)
(9.97069 8.46741e-20 4.5491)
(9.87904 3.84652e-20 1.61567)
(9.86642 -2.75172e-19 1.81863)
(9.9045 1.10869e-19 1.71654)
(9.85669 -3.04996e-19 2.03491)
(9.89922 -4.59539e-19 1.92495)
(9.85098 8.18595e-20 2.26542)
(9.89795 1.50129e-19 2.14668)
(9.85056 2.44429e-19 2.51096)
(9.90188 1.58546e-19 2.38248)
(9.85686 -6.49384e-21 2.77234)
(9.91238 8.78783e-20 2.63301)
(9.87155 -1.63756e-19 3.05046)
(9.93098 -1.67661e-19 2.899)
(9.89658 -8.37342e-20 3.34605)
(9.95946 -1.57713e-19 3.18112)
(9.93422 2.61051e-19 3.65956)
(9.99985 2.35491e-19 3.47979)
(9.98699 3.3398e-19 3.9911)
(10.0545 1.82237e-19 3.79506)
(10.0577 -6.70451e-21 4.34045)
(10.1258 -2.33913e-21 4.12659)
(10.2167 -2.45789e-19 4.47383)
(9.93705 -7.81864e-20 1.82515)
(9.94029 6.666e-21 2.03905)
(9.94876 2.28506e-19 2.26611)
(9.98746 1.53161e-19 2.14377)
(9.96375 -1.94076e-21 2.50695)
(10.0058 -6.82175e-20 2.37483)
(9.98668 -7.68283e-20 2.76214)
(10.0319 -3.80444e-21 2.61923)
(10.0192 -1.61513e-19 3.0322)
(10.0671 7.52109e-20 2.8774)
(10.0631 1.68813e-19 3.31748)
(10.1132 -8.7595e-20 3.14963)
(10.1207 1.54584e-19 3.61802)
(10.1721 1.73327e-19 3.43596)
(10.1942 -1.61731e-19 3.93346)
(10.2459 -2.42041e-19 3.73606)
(10.2861 -2.46726e-19 4.2631)
(10.3368 1.54262e-19 4.04922)
(10.4472 -1.68915e-19 4.37442)
(10.0446 -1.50784e-19 2.25475)
(10.0742 -7.01528e-20 2.48942)
(10.1127 1.51957e-19 2.73685)
(10.1476 7.60224e-20 2.59135)
(10.1617 1.51348e-19 2.99725)
(10.1982 1.49983e-19 2.84021)
(10.2229 -8.33256e-20 3.2706)
(10.2603 2.27355e-21 3.10108)
(10.2983 -2.32386e-19 3.55661)
(10.3358 -2.30853e-19 3.37366)
(10.3898 8.13315e-20 3.85458)
(10.4264 -7.72362e-20 3.65734)
(10.4996 2.34204e-19 4.16348)
(10.5341 8.32696e-20 3.95117)
(10.6606 7.99057e-20 4.2538)
(10.2337 7.39617e-20 2.69694)
(10.2976 -2.51057e-21 2.94632)
(10.323 7.3898e-20 2.7881)
(10.3743 -1.485e-19 3.20648)
(10.3996 -1.45208e-19 3.03643)
(10.4653 -7.20593e-20 3.47684)
(10.4896 -7.38922e-20 3.29424)
(10.5723 -7.55019e-20 3.75648)
(10.5946 7.27553e-20 3.56071)
(10.6971 -7.47957e-20 4.04416)
(10.7163 -7.88288e-20 3.8347)
(10.8559 2.24159e-21 4.11474)
(10.426 -7.22772e-20 2.88032)
(10.5162 -6.88591e-20 3.12635)
(10.6206 7.43638e-20 3.38034)
(10.6324 8.65977e-20 3.19915)
(10.7405 6.93612e-20 3.64122)
(10.7496 5.69659e-21 3.44799)
(10.8774 9.30825e-23 3.90763)
(10.8826 -2.25549e-21 3.70206)
(11.0326 3.60863e-20 3.95985)
(10.7632 1.62276e-20 3.26878)
(10.8938 -6.76572e-20 3.51082)
(11.0403 3.46316e-20 3.75627)
(11.0327 3.31686e-20 3.55536)
(11.1904 -3.06188e-20 3.79154)
(11.1855 -3.37195e-20 3.59226)
)
;

boundaryField
{
    inlet
    {
        type            calculated;
        value           uniform (10 0 0);
    }
    outlet
    {
        type            calculated;
        value           nonuniform 0();
    }
    flap
    {
        type            calculated;
        value           nonuniform 0();
    }
    upperWall
    {
        type            calculated;
        value           nonuniform 0();
    }
    lowerWall
    {
        type            calculated;
        value           uniform (0 0 0);
    }
    frontAndBack
    {
        type            empty;
        value           nonuniform 0();
    }
    procBoundary3to0
    {
        type            processor;
        value           nonuniform List<vector> 
34
(
(9.9882 -9.14547e-20 0.118383)
(9.97698 -6.93433e-21 0.230631)
(9.96983 -7.10051e-20 0.293739)
(9.96076 -2.19635e-19 0.35681)
(9.94786 -1.45149e-19 0.425413)
(9.93903 -1.80594e-19 0.493515)
(9.92576 -2.18137e-19 0.568208)
(9.91696 -1.12021e-19 0.641834)
(9.90697 -7.48401e-20 0.722549)
(9.9007 -7.46135e-20 0.80143)
(9.89546 -3.73413e-20 0.887763)
(9.89408 -1.07387e-19 0.971397)
(9.89494 3.971e-21 1.06275)
(9.90029 7.38204e-20 1.1504)
(9.87986 1.42689e-19 1.32382)
(9.89355 1.42821e-19 1.42504)
(9.91272 7.05032e-20 1.52059)
(9.93789 1.44728e-19 1.62372)
(9.96855 7.42231e-20 1.71969)
(9.97543 -2.91946e-19 1.92557)
(10.0226 -1.41763e-19 2.03251)
(10.075 -6.92183e-20 2.12953)
(10.107 -1.50099e-19 2.35451)
(10.1808 -2.61468e-22 2.45862)
(10.2584 -6.82585e-20 2.54979)
(10.3486 -6.82504e-20 2.64302)
(10.4406 3.30057e-20 2.72188)
(10.5298 -5.47154e-20 2.9568)
(10.6475 1.04472e-19 3.03156)
(10.7634 8.77043e-20 3.08991)
(10.8906 -1.03022e-19 3.32098)
(11.0318 3.2354e-22 3.36721)
(11.1664 -2.99292e-20 3.39661)
(11.3297 -2.56242e-19 3.61201)
)
;
    }
    procBoundary3to1
    {
        type            processor;
        value           nonuniform List<vector> 9((9.60252 -3.7298e-19 4.8276) (9.88336 -9.0482e-20 4.7822) (10.1496 1.69104e-19 4.70715) (10.399 -3.24267e-19 4.60592) (10.6299 5.22383e-23 4.4819) (10.8412 7.63534e-20 4.33825) (11.0324 -5.13516e-20 4.17788) (11.2035 1.39812e-19 4.00346) (11.3545 -6.6574e-20 3.81738));
    }
    procBoundary3to4
    {
        type            processor;
        value           nonuniform List<vector> 
19
(
(4.32779 -1.14196e-19 0.266927)
(5.22061 6.60401e-20 0.678571)
(5.64776 -3.13407e-20 1.111)
(5.89746 1.02608e-18 1.50037)