/*--------------------------------*- C++ -*----------------------------------*\
| =========                 |                                                 |
| \\      /  F ield         | OpenFOAM: The Open Source CFD Toolbox           |
|  \\    /   O peration     | Version:  dev                                   |
|   \\  /    A nd           | Web:      www.OpenFOAM.org                      |
|    \\/     M anipulation  |                                                 |
\*---------------------------------------------------------------------------*/
FoamFile
{
    version     2.0;
    format      ascii;
    class       volScalarField;
    location    "4";
    object      p;
}
// * * * * * * * * * * * * * * * * * * * * * * * * * * * * * * * * * * * * * //

dimensions      [0 2 -2 0 0 0 0];

internalField   nonuniform List<scalar> 
465
(
148.511
148.411
148.658
149.219
149.996
150.95
152.075
153.372
154.836
156.463
158.246
160.179
162.251
164.452
166.766
169.174
171.648
174.157
176.658
179.102
181.433
148.32
148.319
148.59
149.149
149.923
150.874
151.994
153.285
154.743
156.361
158.135
160.057
162.118
164.308
166.611
169.008
171.474
173.977
176.476
178.923
181.264
148.124
148.194
148.484
149.033
149.794
150.732
151.838
153.111
154.547
156.141
157.887
159.777
161.804
163.955
166.217
168.571
170.993
173.452
175.912
178.328
180.649
147.904
148.006
148.308
148.848
149.595
150.516
151.603
152.851
154.259
155.82
157.527
159.374
161.352
163.449
165.651
167.94
170.294
172.685
175.08
177.438
179.715
147.65
147.767
148.077
148.609
149.339
150.24
151.301
152.519
153.89
155.408
157.066
158.857
160.772
162.8
164.926
167.133
169.4
171.703
174.011
176.291
178.504
147.357
147.48
147.792
148.315
149.025
149.9
150.93
152.11
153.437
154.904
156.504
158.229
160.07
162.015
164.051
166.161
168.325
170.522
172.725
174.905
177.032
147.025
147.149
147.458
147.967
148.655
149.5
150.493
151.63
152.906
154.314
155.847
157.496
159.251
161.102
163.034
165.032
167.078
169.152
171.23
173.289
175.306
146.652
146.774
147.075
147.568
148.231
149.042
149.994
151.082
152.3
153.642
155.099
156.662
158.322
160.067
161.883
163.756
165.667
167.599
169.532
171.446
173.323
146.239
146.357
146.647
147.121
147.755
148.529
149.435
150.468
151.623
152.891
154.265
155.734
157.289
158.917
160.605
162.338
164.099
165.87
167.635
169.375
171.076
145.787
145.899
146.176
146.628
147.23
147.963
148.82
149.794
150.88
152.069
153.352
154.719
156.16
157.661
159.209
160.789
162.382
163.974
165.545
167.08
168.565
145.297
145.403
145.665
146.091
146.659
147.349
148.152
149.063
150.075
151.179
152.365
153.624
154.942
156.307
157.705
159.118
160.529
161.92
163.273
164.57
165.795
144.772
144.87
145.115
145.515
146.046
146.689
147.435
148.279
149.213
150.227
151.312
152.455
153.645
154.866
156.102
157.337
158.552
159.724
160.834
161.86
162.779
144.214
144.303
144.529
144.9
145.393
145.987
146.674
147.448
148.3
149.221
150.199
151.222
152.276
153.347
154.415
155.462
156.466
157.404
158.25
158.974
159.547
143.624
143.705
143.91
144.251
144.704
145.247
145.872
146.573
147.341
148.165
149.034
149.933
150.848
151.762
152.656
153.507
154.292
154.983
155.546
155.947
156.14
143.005
143.076
143.261
143.571
143.981
144.472
145.035
145.661
146.343
147.068
147.824
148.596
149.369
150.123
150.838
151.49
152.049
152.485
152.757
152.819
152.613
142.572
142.848
143.216
143.652
144.149
144.698
145.29
145.913
146.554
147.196
147.822
148.413
148.945
149.39
149.719
149.893
149.865
149.581
148.967
142.076
142.398
142.778
143.206
143.676
144.175
144.693
145.214
145.721
146.197
146.62
146.964
147.201
147.294
147.203
146.875
146.246
145.23
141.535
141.857
142.215
142.602
143.007
143.417
143.816
144.188
144.512
144.765
144.921
144.949
144.809
144.458
143.839
142.881
141.494
140.891
141.178
141.482
141.791
142.092
142.369
142.604
142.776
142.862
142.833
142.656
142.291
141.692
140.801
139.544
137.831
140.1
140.32
140.533
140.725
140.881
140.98
141.003
140.925
140.716
140.343
139.766
138.938
137.8
136.284
134.303
139.121
139.238
139.323
139.359
139.326
139.204
138.968
138.588
138.032
137.26
136.225
134.873
133.14
130.949
137.893
137.813
137.653
137.392
137.006
136.467
135.742
134.794
133.579
132.047
130.142
127.797
136.251
135.97
135.579
135.054
134.369
133.492
132.39
131.022
129.345
127.309
124.861
133.777
133.125
132.308
131.298
130.064
128.571
126.781
124.655
122.148
130.298
129.173
127.83
126.238
124.367
122.183
119.654
127.13
125.699
124.032
122.105
119.893
117.373
121.957
119.999
117.782
115.292
115.843
113.399
)
;

boundaryField
{
    inlet
    {
        type            zeroGradient;
    }
    outlet
    {
        type            fixedValue;
        value           nonuniform 0();
    }
    flap
    {
        type            zeroGradient;
    }
    upperWall
    {
        type            zeroGradient;
    }
    lowerWall
    {
        type            zeroGradient;
    }
    frontAndBack
    {
        type            empty;
    }
    procBoundary3to0
    {
        type            processor;
        value           nonuniform List<scalar> 
34
(
142.347
142.409
142.409
141.835
141.835
141.261
141.261
140.63
140.63
139.885
139.885
138.985
138.985
137.89
137.913
137.913
136.444
136.444
134.685
134.289
134.289
131.997
131.231
131.231
128.35
128.35
125.175
123.676
123.676
120.016
118.045
118.045
114.066
111.681
)
;
    }
    procBoundary3to1
    {
        type            processor;
        value           nonuniform List<scalar> 9(131.751 128.209 124.938 121.943 119.218 116.75 114.522 112.514 110.707);
    }
    procBoundary3to4
    {
        type            processor;
        value           nonuniform List<scalar> 
19
(
183.587
183.435
182.817
181.86
180.609
179.076
177.259
175.147
172.728
169.991
166.935
163.573
159.935
156.075
152.066
147.927
143.716
139.557
135.546
)
;
    }
}


// ************************************************************************* //
