/*--------------------------------*- C++ -*----------------------------------*\
| =========                 |                                                 |
| \\      /  F ield         | OpenFOAM: The Open Source CFD Toolbox           |
|  \\    /   O peration     | Version:  dev                                   |
|   \\  /    A nd           | Web:      www.OpenFOAM.org                      |
|    \\/     M anipulation  |                                                 |
\*---------------------------------------------------------------------------*/
FoamFile
{
    version     2.0;
    format      ascii;
    class       volVectorField;
    location    "2.51";
    object      cellDisplacement;
}
// * * * * * * * * * * * * * * * * * * * * * * * * * * * * * * * * * * * * * //

dimensions      [0 1 0 0 0 0 0];

internalField   nonuniform List<vector> 
465
(
(0.0639582 0 -0.000174032)
(0.0558331 0 -1.90845e-05)
(0.0474569 0 0.000168481)
(0.0389586 0 0.000392627)
(0.0305321 0 0.000658709)
(0.0224325 0 0.00097034)
(0.0150346 0 0.00132985)
(0.0089554 0 0.00172946)
(0.00549873 0 0.00210547)
(0.0659087 0 -0.000568543)
(0.0580832 0 -0.000115724)
(0.0500724 0 0.000432144)
(0.0420039 0 0.00108824)
(0.0340748 0 0.00186298)
(0.0265743 0 0.00276106)
(0.0198875 0 0.0037808)
(0.0147864 0 0.00489166)
(0.0127128 0 0.00586876)
(0.069773 0 -0.00110052)
(0.0625173 0 -0.000384772)
(0.0551829 0 0.000479064)
(0.0479501 0 0.00150676)
(0.041045 0 0.00270765)
(0.0347997 0 0.00408031)
(0.0295769 0 0.00561274)
(0.0261211 0 0.00721026)
(0.0264214 0 0.00845861)
(0.0755175 0 -0.00185781)
(0.0691182 0 -0.000939476)
(0.0627634 0 0.000165549)
(0.0566864 0 0.00146766)
(0.0511821 0 0.00296947)
(0.0466886 0 0.00464791)
(0.043711 0 0.00643748)
(0.0427496 0 0.00820095)
(0.046059 0 0.0092998)
(0.0830238 0 -0.00291196)
(0.0777493 0 -0.00187092)
(0.0727022 0 -0.000628853)
(0.0681567 0 0.000815983)
(0.0644302 0 0.00245477)
(0.0620264 0 0.00423012)
(0.0617184 0 0.00599248)
(0.0641203 0 0.00752903)
(0.0708681 0 0.00804949)
(0.092241 0 -0.0043359)
(0.0882901 0 -0.00326036)
(0.0847852 0 -0.00199289)
(0.0820916 0 -0.000555167)
(0.0805589 0 0.00101903)
(0.0806559 0 0.00264951)
(0.0832708 0 0.00411105)
(0.0894114 0 0.00502223)
(0.100016 0 0.00456353)
(0.103005 0 -0.00617281)
(0.100627 0 -0.00517412)
(0.0989421 0 -0.00401697)
(0.098296 0 -0.00273456)
(0.0991943 0 -0.00141493)
(0.102212 0 -0.000195603)
(0.108002 0 0.000681084)
(0.118019 0 0.000635222)
(0.132711 0 -0.00113861)
(0.115165 0 -0.00845675)
(0.114517 0 -0.00763706)
(0.11489 0 -0.0067326)
(0.116573 0 -0.00578324)
(0.120097 0 -0.00490492)
(0.126247 0 -0.00433062)
(0.135568 0 -0.00433082)
(0.149535 0 -0.00560163)
(0.168226 0 -0.00890924)
(0.128567 0 -0.0112066)
(0.129846 0 -0.0106872)
(0.132367 0 -0.0101521)
(0.136594 0 -0.00970281)
(0.143077 0 -0.00948587)
(0.152483 0 -0.00975479)
(0.165722 0 -0.0109219)
(0.183476 0 -0.0135778)
(0.205886 0 -0.0185129)
(0.142984 0 -0.0144117)
(0.146311 0 -0.0143011)
(0.151157 0 -0.0142755)
(0.15804 0 -0.0144653)
(0.167666 0 -0.0150937)
(0.180524 0 -0.016403)
(0.197752 0 -0.0189296)
(0.219272 0 -0.0231148)
(0.245044 0 -0.0296705)
(0.158197 0 -0.0180528)
(0.163623 0 -0.0184428)
(0.170895 0 -0.0190461)
(0.180602 0 -0.0200322)
(0.193344 0 -0.0216263)
(0.209868 0 -0.0241719)
(0.230906 0 -0.0281431)
(0.256287 0 -0.0339738)
(0.285053 0 -0.0420723)
(0.173932 0 -0.0220787)
(0.181513 0 -0.0230627)
(0.191224 0 -0.0243894)
(0.203771 0 -0.0262867)
(0.219673 0 -0.0289793)
(0.239879 0 -0.0328944)
(0.264655 0 -0.0383943)
(0.293772 0 -0.045877)
(0.325169 0 -0.0553897)
(0.189952 0 -0.0264386)
(0.199615 0 -0.0280708)
(0.211758 0 -0.0302106)
(0.226962 0 -0.0330712)
(0.246003 0 -0.0369757)
(0.269626 0 -0.0423095)
(0.298008 0 -0.0494018)
(0.330609 0 -0.0584888)
(0.36439 0 -0.0693081)
(0.205922 0 -0.0310381)
(0.217577 0 -0.0333642)
(0.231938 0 -0.0363418)
(0.249595 0 -0.0402084)
(0.271429 0 -0.0453463)
(0.297953 0 -0.0520876)
(0.329454 0 -0.0607798)
(0.364976 0 -0.0714142)
(0.401096 0 -0.0835841)
(0.22151 0 -0.03577)
(0.234954 0 -0.0387952)
(0.251203 0 -0.042589)
(0.270976 0 -0.0474573)
(0.294883 0 -0.053731)
(0.323429 0 -0.0617874)
(0.356789 0 -0.071978)
(0.393722 0 -0.08416)
(0.432355 0 -0.0982676)
(0.00762667 0 -0.00282491)
(0.0172926 0 -0.00340805)
(0.0388923 0 -0.00428826)
(0.0734187 0 -0.00533816)
(0.117008 0 -0.00633967)
(0.161934 0 -0.0070491)
(0.201567 0 -0.00741764)
(0.233309 0 -0.00752556)
(0.25732 0 -0.00737551)
(0.274901 0 -0.00712112)
(0.0137575 0 -0.00867902)
(0.0244506 0 -0.0104431)
(0.0470482 0 -0.0130733)
(0.0818749 0 -0.0161162)
(0.124871 0 -0.018945)
(0.168525 0 -0.0209312)
(0.206763 0 -0.0219345)
(0.23726 0 -0.0221201)
(0.260324 0 -0.0216929)
(0.277228 0 -0.0209347)
(0.0255652 0 -0.0150397)
(0.0384531 0 -0.018146)
(0.0626353 0 -0.0224091)
(0.0978617 0 -0.027214)
(0.139641 0 -0.0314795)
(0.180898 0 -0.0343727)
(0.216503 0 -0.0357513)
(0.244735 0 -0.0358666)
(0.26608 0 -0.0351479)
(0.28168 0 -0.0338953)
(0.0427505 0 -0.0222463)
(0.0584416 0 -0.0267476)
(0.0844831 0 -0.0325369)
(0.120059 0 -0.0388022)
(0.159926 0 -0.0440507)
(0.197864 0 -0.0474159)
(0.229954 0 -0.0488687)
(0.255192 0 -0.0488144)
(0.274187 0 -0.0477328)
(0.287985 0 -0.0459801)
(0.0647687 0 -0.0305184)
(0.0834492 0 -0.0363619)
(0.11164 0 -0.0436365)
(0.147077 0 -0.0509433)
(0.184293 0 -0.056667)
(0.218216 0 -0.0600827)
(0.246199 0 -0.0613298)
(0.26793 0 -0.0609367)
(0.284136 0 -0.0594159)
(0.295771 0 -0.0571504)
(0.0910576 0 -0.0399752)
(0.112767 0 -0.0471209)
(0.142865 0 -0.055643)
(0.177458 0 -0.063529)
(0.211361 0 -0.06924)
(0.240747 0 -0.0722971)
(0.264266 0 -0.0730717)
(0.282211 0 -0.0721909)
(0.295373 0 -0.070164)
(0.304621 0 -0.0673745)
(0.121031 0 -0.0506336)
(0.145589 0 -0.0589866)
(0.176934 0 -0.068363)
(0.20987 0 -0.0763188)
(0.239778 0 -0.0815293)
(0.264275 0 -0.08388)
(0.283253 0 -0.084005)
(0.297322 0 -0.0825209)
(0.307343 0 -0.0799393)
(0.314107 0 -0.0766226)
(0.154119 0 -0.0624359)
(0.181185 0 -0.0718358)
(0.212929 0 -0.0816097)
(0.243178 0 -0.0890584)
(0.268436 0 -0.0933055)
(0.287936 0 -0.0947008)
(0.302385 0 -0.0940211)
(0.312609 0 -0.0918605)
(0.319518 0 -0.0886993)
(0.32386 0 -0.0848961)
(0.189796 0 -0.075269)
(0.218883 0 -0.0854781)
(0.249894 0 -0.095079)
(0.276351 0 -0.101433)
(0.296477 0 -0.104353)
(0.310966 0 -0.104621)
(0.320942 0 -0.103014)
(0.327473 0 -0.100137)
(0.331481 0 -0.0964313)
(0.333581 0 -0.0922143)
(0.227614 0 -0.0889808)
(0.258028 0 -0.0996547)
(0.286813 0 -0.108371)
(0.308355 0 -0.113067)
(0.32299 0 -0.114382)
(0.332524 0 -0.113402)
(0.338278 0 -0.11085)
(0.341485 0 -0.10731)
(0.342927 0 -0.103145)
(0.342999 0 -0.0985893)
(0.267213 0 -0.103406)
(0.297846 0 -0.114003)
(0.322494 0 -0.120966)
(0.338125 0 -0.12353)
(0.347178 0 -0.12311)
(0.351935 0 -0.120847)
(0.353991 0 -0.117457)
(0.354383 0 -0.113373)
(0.353609 0 -0.108847)
(0.351891 0 -0.104039)
(0.308284 0 -0.11836)
(0.337164 0 -0.127948)
(0.355453 0 -0.132192)
(0.364506 0 -0.132323)
(0.368183 0 -0.130207)
(0.368849 0 -0.126852)
(0.367906 0 -0.122806)
(0.365977 0 -0.118326)
(0.363338 0 -0.113555)
(0.360082 0 -0.10859)
(0.350242 0 -0.133497)
(0.373911 0 -0.140489)
(0.38385 0 -0.1412)
(0.386495 0 -0.138979)
(0.385659 0 -0.135469)
(0.383212 0 -0.131353)
(0.379928 0 -0.126889)
(0.376142 0 -0.122186)
(0.371977 0 -0.117302)
(0.367437 0 -0.112281)
(0.391052 0 -0.147741)
(0.404646 0 -0.149968)
(0.406456 0 -0.147215)
(0.403957 0 -0.143186)
(0.399789 0 -0.13881)
(0.394986 0 -0.134308)
(0.389929 0 -0.129701)
(0.384722 0 -0.124966)
(0.379367 0 -0.120106)
(0.373805 0 -0.115134)
(0.424084 0 -0.157758)
(0.428249 0 -0.154642)
(0.422919 0 -0.149231)
(0.416792 0 -0.144555)
(0.410434 0 -0.140144)
(0.404081 0 -0.13576)
(0.397824 0 -0.131303)
(0.391629 0 -0.126728)
(0.385422 0 -0.122022)
(0.379102 0 -0.117194)
(0.236722 0 -0.0406251)
(0.251642 0 -0.044311)
(0.269436 0 -0.0488844)
(0.290677 0 -0.0546388)
(0.315716 0 -0.0618659)
(0.344906 0 -0.0709819)
(0.377907 0 -0.0823893)
(0.412653 0 -0.0964123)
(0.44452 0 -0.113714)
(0.251324 0 -0.0455169)
(0.267371 0 -0.0498036)
(0.286198 0 -0.055048)
(0.308046 0 -0.0614601)
(0.333093 0 -0.0693128)
(0.361179 0 -0.0788805)
(0.39114 0 -0.0902538)
(0.419629 0 -0.10278)
(0.442393 0 -0.115241)
(0.264862 0 -0.050268)
(0.281629 0 -0.0550524)
(0.300824 0 -0.0607699)
(0.322429 0 -0.0675526)
(0.346361 0 -0.0755823)
(0.37191 0 -0.0848915)
(0.397259 0 -0.0951375)
(0.419714 0 -0.105561)
(0.436959 0 -0.115525)
(0.277057 0 -0.0547444)
(0.294058 0 -0.0598723)
(0.312975 0 -0.0658297)
(0.333617 0 -0.072683)
(0.355591 0 -0.080466)
(0.377842 0 -0.0889914)
(0.3988 0 -0.0978532)
(0.416843 0 -0.106587)
(0.43041 0 -0.114686)
(0.30447 0 -0.064125)
(0.322588 0 -0.0701036)
(0.341725 0 -0.0767537)
(0.361294 0 -0.0839873)
(0.38034 0 -0.0915753)
(0.397782 0 -0.0992201)
(0.412586 0 -0.106607)
(0.423699 0 -0.113307)
(0.347098 0 -0.0797875)
(0.364288 0 -0.0863662)
(0.380616 0 -0.0930833)
(0.395323 0 -0.0997121)
(0.407689 0 -0.106002)
(0.417066 0 -0.111631)
(0.379423 0 -0.0938024)
(0.391983 0 -0.099583)
(0.40251 0 -0.104989)
(0.410591 0 -0.109786)
(0.397175 0 -0.103677)
(0.404261 0 -0.107821)
(0.460976 0 -0.127804)
(0.460414 0 -0.136221)
(0.456883 0 -0.143987)
(0.453821 0 -0.123974)
(0.455305 0 -0.130089)
(0.453978 0 -0.134778)
(0.444741 0 -0.12222)
(0.447206 0 -0.126281)
(0.447627 0 -0.129659)
(0.436605 0 -0.119975)
(0.439189 0 -0.123112)
(0.440423 0 -0.125805)
(0.429032 0 -0.117628)
(0.431555 0 -0.120204)
(0.433136 0 -0.12246)
(0.421826 0 -0.115262)
(0.424244 0 -0.117445)
(0.425958 0 -0.119384)
(0.414896 0 -0.112895)
(0.417186 0 -0.114779)
(0.418928 0 -0.116471)
(0.408178 0 -0.11052)
(0.410328 0 -0.112166)
(0.41204 0 -0.113657)
(0.403628 0 -0.109573)
(0.405274 0 -0.110897)
(0.447135 0 -0.147489)
(0.440079 0 -0.147785)
(0.432338 0 -0.145964)
(0.424877 0 -0.143085)
(0.417649 0 -0.139651)
(0.410629 0 -0.135877)
(0.403774 0 -0.131849)
(0.397017 0 -0.127607)
(0.390269 0 -0.123176)
(0.449371 0 -0.139577)
(0.442658 0 -0.142028)
(0.43581 0 -0.141943)
(0.428857 0 -0.140413)
(0.421849 0 -0.137985)
(0.414852 0 -0.134955)
(0.407886 0 -0.131492)
(0.400926 0 -0.127695)
(0.393914 0 -0.123627)
(0.446123 0 -0.133746)
(0.441659 0 -0.136725)
(0.436112 0 -0.137694)
(0.430036 0 -0.137167)
(0.423644 0 -0.135601)
(0.417039 0 -0.133288)
(0.410282 0 -0.130415)
(0.403388 0 -0.127106)
(0.396336 0 -0.123446)
(0.440638 0 -0.129233)
(0.438175 0 -0.132134)
(0.434146 0 -0.133555)
(0.429147 0 -0.133698)
(0.423544 0 -0.132807)
(0.417517 0 -0.131115)
(0.411158 0 -0.128793)
(0.404513 0 -0.125966)
(0.397588 0 -0.122725)
(0.43426 0 -0.125396)
(0.433269 0 -0.128113)
(0.430571 0 -0.129678)
(0.426678 0 -0.1302)
(0.421933 0 -0.129801)
(0.416565 0 -0.12861)
(0.410708 0 -0.126768)
(0.404426 0 -0.124386)
(0.397744 0 -0.121548)
(0.427559 0 -0.121946)
(0.427569 0 -0.124454)
(0.425928 0 -0.126048)
(0.423015 0 -0.12677)
(0.419109 0 -0.126695)
(0.414419 0 -0.125892)
(0.409109 0 -0.124451)
(0.403253 0 -0.12246)
(0.396889 0 -0.119994)
(0.420766 0 -0.118734)
(0.421431 0 -0.121034)
(0.420583 0 -0.122597)
(0.418474 0 -0.123424)
(0.415314 0 -0.123552)
(0.411286 0 -0.123036)
(0.406526 0 -0.12192)
(0.40112 0 -0.120264)
(0.395115 0 -0.118127)
(0.413974 0 -0.115671)
(0.415049 0 -0.117774)
(0.414773 0 -0.119272)
(0.413296 0 -0.120146)
(0.410774 0 -0.120408)
(0.407345 0 -0.120093)
(0.403111 0 -0.119232)
(0.398146 0 -0.117851)
(0.392514 0 -0.116001)
(0.407218 0 -0.112697)
(0.408534 0 -0.114617)
(0.408655 0 -0.116031)
(0.407663 0 -0.116914)
(0.40566 0 -0.117262)
(0.402744 0 -0.117089)
(0.398983 0 -0.116415)
(0.394437 0 -0.115258)
(0.389178 0 -0.113654)
(0.401943 0 -0.111516)
(0.402327 0 -0.112839)
(0.401692 0 -0.113703)
(0.400097 0 -0.114099)
(0.397603 0 -0.114027)
(0.394248 0 -0.113492)
(0.390106 0 -0.112519)
(0.385203 0 -0.111122)
(0.394184 0 -0.110907)
(0.39203 0 -0.110904)
(0.389035 0 -0.11048)
(0.385249 0 -0.109652)
(0.380659 0 -0.108418)
(0.383417 0 -0.107371)
(0.379923 0 -0.106651)
(0.375609 0 -0.105548)
(0.370127 0 -0.10252)
)
;

boundaryField
{
    inlet
    {
        type            cellMotion;
        value           nonuniform 0();
    }
    outlet
    {
        type            cellMotion;
        value           nonuniform 0();
    }
    flap
    {
        type            cellMotion;
        value           nonuniform List<vector> 
33
(
(0.00218372 0 0.00231659)
(0.00973763 0 0.00647824)
(0.0237005 0 0.00935668)
(0.043692 0 0.0103879)
(0.0688795 0 0.00923623)
(0.0984353 0 0.00576694)
(0.131559 0 4.3432e-07)
(0.167517 0 -0.00790157)
(0.205675 0 -0.0176883)
(0.245485 0 -0.0290935)
(0.286472 0 -0.041823)
(0.328225 0 -0.0555611)
(0.370395 0 -0.0700077)
(0.412709 0 -0.0848729)
(0.455048 0 -0.0999336)
(0.472498 0 -0.118076)
(0.46496 0 -0.139227)
(0.457339 0 -0.160354)
(0.00190359 0 -0.00271079)
(0.00846618 0 -0.00830853)
(0.0206811 0 -0.0144438)
(0.0383675 0 -0.0214634)
(0.0609239 0 -0.0296231)
(0.0877619 0 -0.0390466)
(0.118265 0 -0.0497344)
(0.151832 0 -0.0616103)
(0.187908 0 -0.0745492)
(0.226005 0 -0.0883666)
(0.265674 0 -0.102851)
(0.306498 0 -0.11778)
(0.348101 0 -0.132936)
(0.390137 0 -0.148149)
(0.432375 0 -0.163334)
)
;
    }
    upperWall
    {
        type            slip;
    }
    lowerWall
    {
        type            slip;
    }
    frontAndBack
    {
        type            empty;
    }
    procBoundary4to1
    {
        type            processor;
        value           nonuniform List<vector> 
30
(
(0.287705 0 -0.0588246)
(0.287705 0 -0.0588246)
(0.312821 0 -0.0677225)
(0.329759 0 -0.0735334)
(0.329759 0 -0.0735334)
(0.350265 0 -0.0819165)
(0.365347 0 -0.087859)
(0.365347 0 -0.087859)
(0.377257 0 -0.0939342)
(0.388089 0 -0.0989944)
(0.388089 0 -0.0989944)
(0.391766 0 -0.102138)
(0.398047 0 -0.105757)
(0.401622 0 -0.108124)
(0.401622 0 -0.108124)
(0.397041 0 -0.106971)
(0.398602 0 -0.108151)
(0.400503 0 -0.109767)
(0.400503 0 -0.109767)
(0.395303 0 -0.108434)
(0.39585 0 -0.109661)
(0.395468 0 -0.11049)
(0.395468 0 -0.11049)
(0.387996 0 -0.107668)
(0.386115 0 -0.10771)
(0.386115 0 -0.10771)
(0.37745 0 -0.104149)
(0.374197 0 -0.103515)
(0.374197 0 -0.103515)
(0.364307 0 -0.0993436)
)
;
    }
    procBoundary4to2
    {
        type            processor;
        value           nonuniform List<vector> 
11
(
(0.389071 0 -0.119496)
(0.390353 0 -0.119138)
(0.390653 0 -0.118323)
(0.390021 0 -0.117113)
(0.388522 0 -0.115563)
(0.386224 0 -0.113721)
(0.3832 0 -0.111625)
(0.379524 0 -0.109306)
(0.375263 0 -0.106784)
(0.37048 0 -0.104069)
(0.365261 0 -0.101179)
)
;
    }
    procBoundary4to3
    {
        type            processor;
        value           nonuniform List<vector> 
19
(
(0.0717195 0 -0.000300011)
(0.0734161 0 -0.000936671)
(0.0767859 0 -0.00168274)
(0.0817897 0 -0.00260655)
(0.08835 0 -0.00376796)
(0.096396 0 -0.00522137)
(0.105796 0 -0.00700287)
(0.116436 0 -0.00914347)
(0.128151 0 -0.0116523)
(0.140812 0 -0.0145377)
(0.154185 0 -0.017772)
(0.168053 0 -0.0213213)
(0.182204 0 -0.0251403)
(0.19638 0 -0.0291607)
(0.21037 0 -0.0333188)
(0.224142 0 -0.0375963)
(0.237539 0 -0.0419397)
(0.250243 0 -0.0462306)
(0.261959 0 -0.0503453)
)
;
    }
    procBoundary4to5
    {
        type            processor;
        value           nonuniform List<vector> 
18
(
(0.287335 0 -0.00680424)
(0.289135 0 -0.0199539)
(0.292605 0 -0.0322793)
(0.297548 0 -0.0437942)
(0.303674 0 -0.0544068)
(0.310672 0 -0.0640916)
(0.31825 0 -0.0728552)
(0.326143 0 -0.0807196)
(0.334095 0 -0.0876964)
(0.341879 0 -0.0938027)
(0.349303 0 -0.0990614)
(0.356205 0 -0.103502)
(0.362458 0 -0.10716)
(0.367938 0 -0.110068)
(0.372551 0 -0.112257)
(0.383429 0 -0.118578)
(0.383429 0 -0.118578)
(0.386768 0 -0.119331)
)
;
    }
}


// ************************************************************************* //
