/*--------------------------------*- C++ -*----------------------------------*\
| =========                 |                                                 |
| \\      /  F ield         | OpenFOAM: The Open Source CFD Toolbox           |
|  \\    /   O peration     | Version:  dev                                   |
|   \\  /    A nd           | Web:      www.OpenFOAM.org                      |
|    \\/     M anipulation  |                                                 |
\*---------------------------------------------------------------------------*/
FoamFile
{
    version     2.0;
    format      ascii;
    class       pointVectorField;
    location    "2.97";
    object      pointDisplacement;
}
// * * * * * * * * * * * * * * * * * * * * * * * * * * * * * * * * * * * * * //

dimensions      [0 1 0 0 0 0 0];

internalField   nonuniform List<vector> 
5828
(
(0 0 0)
(0.0156205 0 0)
(0.0295909 0 0)
(0.0415352 0 0)
(0.0516386 0 0)
(0.0600776 0 0)
(0.06701 0 0)
(0.0725729 0 0)
(0.076886 0 0)
(0.080056 0 0)
(0.0821758 0 0)
(0.0833253 0 0)
(0.0835737 0 0)
(0.0829821 0 0)
(0.0816048 0 0)
(0.0794909 0 0)
(0.0766861 0 0)
(0.0732345 0 0)
(0.0691834 0 0)
(0.0645798 0 0)
(0.0594697 0 0)
(0.053907 0 0)
(0.0479551 0 0)
(0.0416871 0 0)
(0.0351991 0 0)
(0.0286201 0 0)
(0.0221206 0 0)
(0.0159485 0 0)
(0.0104959 0 0)
(0.0065371 0 0)
(0 0 0)
(0 0 0)
(0.0156301 0 -5.32575e-05)
(0.02961 0 -0.00010144)
(0.0415638 0 -0.000143683)
(0.0516774 0 -0.000180814)
(0.0601273 0 -0.000213372)
(0.0670721 0 -0.000241724)
(0.0726491 0 -0.000266232)
(0.0769779 0 -0.000286697)
(0.0801658 0 -0.000302738)
(0.0823065 0 -0.000314128)
(0.0834799 0 -0.00032031)
(0.0837559 0 -0.000320509)
(0.0831959 0 -0.000313734)
(0.081855 0 -0.000298751)
(0.0797828 0 -0.000274053)
(0.0770257 0 -0.000237813)
(0.0736279 0 -0.000187816)
(0.0696376 0 -0.000121518)
(0.0651055 0 -3.58623e-05)
(0.060079 0 7.29324e-05)
(0.0546131 0 0.000209307)
(0.0487762 0 0.000378479)
(0.0426448 0 0.000586857)
(0.0363168 0 0.000842477)
(0.0299294 0 0.00115456)
(0.0236645 0 0.00153387)
(0.0177868 0 0.00199201)
(0.0127284 0 0.00253119)
(0.00929111 0 0.00309678)
(0.00437919 0 0.00410025)
(0 0 0)
(0.0156619 0 -0.000106704)
(0.0296702 0 -0.000203264)
(0.0416524 0 -0.000287964)
(0.0517963 0 -0.00036249)
(0.0602787 0 -0.0004279)
(0.0672604 0 -0.000484897)
(0.0728793 0 -0.000534016)
(0.0772542 0 -0.000575099)
(0.0804952 0 -0.000607665)
(0.0826978 0 -0.000631114)
(0.0839423 0 -0.000644335)
(0.0842999 0 -0.000645821)
(0.0838337 0 -0.000633648)
(0.0826003 0 -0.000605433)
(0.0806517 0 -0.00055827)
(0.0780362 0 -0.000488647)
(0.0748004 0 -0.000392337)
(0.0709941 0 -0.000264388)
(0.0666729 0 -9.91386e-05)
(0.0618906 0 0.00011033)
(0.0567079 0 0.000372371)
(0.0512019 0 0.000696681)
(0.0454637 0 0.00109482)
(0.0396063 0 0.00157951)
(0.0337854 0 0.0021642)
(0.0282069 0 0.00286293)
(0.0231599 0 0.00368532)
(0.019135 0 0.00461325)
(0.0169715 0 0.00551685)
(0.0135469 0 0.00692626)
(0 0 0)
(0.0157158 0 -0.000160369)
(0.0297709 0 -0.000305475)
(0.0418001 0 -0.000432864)
(0.0519944 0 -0.000545133)
(0.0605301 0 -0.000643809)
(0.0675713 0 -0.000729887)
(0.0732579 0 -0.000803915)
(0.0777103 0 -0.000866081)
(0.0810406 0 -0.000916111)
(0.0833455 0 -0.000952863)
(0.0847073 0 -0.000974731)
(0.0851994 0 -0.000979573)
(0.0848875 0 -0.00096466)
(0.0838311 0 -0.000926619)
(0.0820855 0 -0.000861369)
(0.0797032 0 -0.00076401)
(0.0767356 0 -0.000628713)
(0.0732358 0 -0.000448624)
(0.0692628 0 -0.000215933)
(0.0648797 0 7.85035e-05)
(0.0601575 0 0.000445421)
(0.0551806 0 0.000897136)
(0.0500616 0 0.00144716)
(0.0449433 0 0.0021086)
(0.0400085 0 0.00289267)
(0.0354946 0 0.00380563)
(0.0317026 0 0.00483922)
(0.0291065 0 0.00593725)
(0.0285128 0 0.00689922)
(0.0267565 0 0.00828573)
(0 0 0)
(0.0157851 0 -0.000214093)
(0.0299076 0 -0.000407858)
(0.0420052 0 -0.000578144)
(0.0522696 0 -0.000728262)
(0.0608778 0 -0.000860361)
(0.0679993 0 -0.000975991)
(0.0737792 0 -0.00107591)
(0.0783404 0 -0.00116047)
(0.0817949 0 -0.00122938)
(0.0842411 0 -0.00128123)
(0.0857645 0 -0.00131406)
(0.0864418 0 -0.00132525)
(0.0863421 0 -0.00131143)
(0.085529 0 -0.00126847)
(0.0840624 0 -0.00119144)
(0.0820001 0 -0.00107446)
(0.0793995 0 -0.00091059)
(0.0763202 0 -0.000691808)
(0.0728264 0 -0.000408957)
(0.0689913 0 -5.18745e-05)
(0.0648998 0 0.000390524)
(0.0606465 0 0.000930736)
(0.0563543 0 0.0015812)
(0.0521892 0 0.00235088)
(0.0483721 0 0.00324183)
(0.0451734 0 0.00424297)
(0.0428976 0 0.00531858)
(0.0419355 0 0.00637691)
(0.0429519 0 0.00718047)
(0.0426865 0 0.0082981)
(0 0 0)
(0.0158693 0 -0.0002678)
(0.0300789 0 -0.000510374)
(0.0422631 0 -0.00072376)
(0.052614 0 -0.000911837)
(0.0613151 0 -0.00107762)
(0.0685412 0 -0.00122348)
(0.0744403 0 -0.00135048)
(0.0791384 0 -0.00145896)
(0.082749 0 -0.00154851)
(0.0853729 0 -0.00161773)
(0.0870997 0 -0.00166446)
(0.0880096 0 -0.00168576)
(0.0881763 0 -0.00167788)
(0.0876681 0 -0.0016362)
(0.0865506 0 -0.00155532)
(0.0848884 0 -0.00142886)
(0.0827459 0 -0.0012494)
(0.0801901 0 -0.0010085)
(0.0772915 0 -0.000696595)
(0.0741354 0 -0.000303871)
(0.0708243 0 0.000179255)
(0.0674697 0 0.000762582)
(0.0641974 0 0.00145423)
(0.0611734 0 0.00225647)
(0.0586438 0 0.00315807)
(0.0568985 0 0.00412602)
(0.0562273 0 0.00509721)
(0.0569218 0 0.00595957)
(0.0594223 0 0.00648147)
(0.0603772 0 0.00725268)
(0 0 0)
(0.0159742 0 -0.00032153)
(0.0302871 0 -0.000612993)
(0.0425717 0 -0.000869497)
(0.0530239 0 -0.00109587)
(0.0618379 0 -0.00129608)
(0.0691914 0 -0.00147305)
(0.0752336 0 -0.00162821)
(0.0800945 0 -0.00176208)
(0.0838907 0 -0.0018743)
(0.0867262 0 -0.00196352)
(0.0886946 0 -0.00202756)
(0.0898808 0 -0.00206339)
(0.0903633 0 -0.0020671)
(0.0902157 0 -0.00203389)
(0.0895107 0 -0.0019583)
(0.0883206 0 -0.00183405)
(0.0867182 0 -0.0016539)
(0.0847801 0 -0.00140993)
(0.0825848 0 -0.00109322)
(0.0802229 0 -0.000694859)
(0.0778116 0 -0.000208141)
(0.0754852 0 0.000371117)
(0.0733809 0 0.00104366)
(0.07166 0 0.00180328)
(0.0705443 0 0.00262682)
(0.0703127 0 0.0034612)
(0.0712242 0 0.00422307)
(0.0734592 0 0.00479771)
(0.0772096 0 0.00499382)
(0.079105 0 0.00542078)
(0 0 0)
(0.0160987 0 -0.000375295)
(0.0305274 0 -0.000715581)
(0.042925 0 -0.00101517)
(0.0534971 0 -0.00128026)
(0.0624427 0 -0.00151567)
(0.0699422 0 -0.00172464)
(0.0761491 0 -0.00190916)
(0.0811968 0 -0.00207006)
(0.0852053 0 -0.00220714)
(0.0882827 0 -0.00231926)
(0.0905269 0 -0.00240438)
(0.092028 0 -0.00245959)
(0.09287 0 -0.0024811)
(0.0931313 0 -0.00246413)
(0.0928932 0 -0.00240373)
(0.0922368 0 -0.00229427)
(0.091244 0 -0.00212927)
(0.0900033 0 -0.00190227)
(0.0886062 0 -0.0016064)
(0.087145 0 -0.00123446)
(0.085736 0 -0.00078238)
(0.0845328 0 -0.00025282)
(0.0836919 0 0.000345835)
(0.0833726 0 0.000997239)
(0.0837439 0 0.00166895)
(0.0850332 0 0.00229649)
(0.0874414 0 0.00278786)
(0.0910258 0 0.00304029)
(0.0957454 0 0.00292232)
(0.0983204 0 0.00303158)
(0 0 0)
(0.0162351 0 -0.000428856)
(0.0307943 0 -0.000817965)
(0.0433204 0 -0.00116098)
(0.0540292 0 -0.00146516)
(0.0631225 0 -0.00173622)
(0.0707848 0 -0.00197805)
(0.0771756 0 -0.0021932)
(0.0824313 0 -0.00238283)
(0.0866758 0 -0.0025471)
(0.0900214 0 -0.00268515)
(0.092571 0 -0.00279529)
(0.0944203 0 -0.00287497)
(0.0956592 0 -0.00292086)
(0.0963739 0 -0.00292879)
(0.0966516 0 -0.00289431)
(0.0965788 0 -0.00281241)
(0.0962495 0 -0.00267836)
(0.0957656 0 -0.00248799)
(0.0952298 0 -0.00223708)
(0.0947457 0 -0.00192209)
(0.0944231 0 -0.00154175)
(0.0944186 0 -0.00110424)
(0.0948998 0 -0.000626772)
(0.0960109 0 -0.000134494)
(0.097884 0 0.00033281)
(0.100666 0 0.000708782)
(0.104449 0 0.000907283)
(0.109168 0 0.000847807)
(0.114586 0 0.000463201)
(0.117611 0 0.000315261)
(0 0 0)
(0.0163826 0 -0.000482193)
(0.0310894 0 -0.000920174)
(0.0437565 0 -0.00130677)
(0.0546116 0 -0.00165019)
(0.0638668 0 -0.0019573)
(0.0717088 0 -0.0022329)
(0.0783004 0 -0.00247994)
(0.0837824 0 -0.00270004)
(0.0882829 0 -0.0028938)
(0.0919186 0 -0.00306083)
(0.0947977 0 -0.00319992)
(0.0970217 0 -0.00330912)
(0.0986878 0 -0.00338591)
(0.0998917 0 -0.00342734)
(0.100725 0 -0.00342952)
(0.101277 0 -0.00338822)
(0.101653 0 -0.00330074)
(0.101967 0 -0.00316564)
(0.10233 0 -0.00298186)
(0.102858 0 -0.00275006)
(0.103668 0 -0.00247367)
(0.104909 0 -0.002165)
(0.106735 0 -0.00184685)
(0.109271 0 -0.00155003)
(0.112615 0 -0.00131757)
(0.116822 0 -0.00120972)
(0.121847 0 -0.00129498)
(0.127502 0 -0.00162502)
(0.133399 0 -0.0022106)
(0.136692 0 -0.00254708)
(0 0 0)
(0.0165439 0 -0.000535394)
(0.0314082 0 -0.001022)
(0.0442251 0 -0.00145198)
(0.0552372 0 -0.00183497)
(0.0646688 0 -0.00217893)
(0.0727056 0 -0.00248928)
(0.0795127 0 -0.00276947)
(0.0852366 0 -0.00302177)
(0.0900097 0 -0.00324732)
(0.0939534 0 -0.00344631)
(0.097181 0 -0.00361816)
(0.0997998 0 -0.00376171)
(0.101914 0 -0.00387536)
(0.103625 0 -0.00395737)
(0.105032 0 -0.00400517)
(0.106235 0 -0.00401643)
(0.107346 0 -0.00399047)
(0.108483 0 -0.00392804)
(0.109764 0 -0.00383133)
(0.111312 0 -0.00370507)
(0.113259 0 -0.00355806)
(0.115745 0 -0.00340622)
(0.118898 0 -0.0032745)
(0.122821 0 -0.00319553)
(0.127571 0 -0.00320962)
(0.133108 0 -0.00336367)
(0.139258 0 -0.00370148)
(0.145707 0 -0.00424368)
(0.151947 0 -0.00496045)
(0.155409 0 -0.00541656)
(0 0 0)
(0.0167139 0 -0.000588257)
(0.0317422 0 -0.00112312)
(0.0447219 0 -0.00159654)
(0.0559053 0 -0.00201962)
(0.065524 0 -0.00240113)
(0.0737665 0 -0.00274711)
(0.0808009 0 -0.00306171)
(0.0867791 0 -0.00334786)
(0.091838 0 -0.00360739)
(0.0961033 0 -0.00384114)
(0.0996929 0 -0.00404929)
(0.10272 0 -0.00423155)
(0.105293 0 -0.00438743)
(0.10752 0 -0.00451628)
(0.109508 0 -0.00461741)
(0.111367 0 -0.00469088)
(0.11322 0 -0.00473874)
(0.115182 0 -0.0047635)
(0.117371 0 -0.00476967)
(0.119918 0 -0.00476632)
(0.122966 0 -0.00476706)
(0.126646 0 -0.00479033)
(0.131061 0 -0.0048608)
(0.136288 0 -0.00500898)
(0.142345 0 -0.00526732)
(0.149112 0 -0.00566383)
(0.156305 0 -0.00621325)
(0.163494 0 -0.00690552)
(0.170053 0 -0.00768928)
(0.173726 0 -0.0081953)
(0 0 0)
(0.0168915 0 -0.000640693)
(0.0320892 0 -0.00122352)
(0.0452431 0 -0.00174042)
(0.0566088 0 -0.00220373)
(0.0664228 0 -0.00262317)
(0.0748793 0 -0.00300553)
(0.0821494 0 -0.00335553)
(0.0883907 0 -0.00367695)
(0.0937442 0 -0.00397237)
(0.0983392 0 -0.00424332)
(0.102298 0 -0.00449078)
(0.105738 0 -0.0047155)
(0.108773 0 -0.00491816)
(0.111517 0 -0.00509947)
(0.114082 0 -0.00526057)
(0.116592 0 -0.00540453)
(0.119169 0 -0.0055352)
(0.121924 0 -0.00565653)
(0.124978 0 -0.00577618)
(0.128465 0 -0.00590636)
(0.132538 0 -0.00606536)
(0.137316 0 -0.00627289)
(0.142873 0 -0.00655077)
(0.14927 0 -0.00692524)
(0.156493 0 -0.00741778)
(0.164374 0 -0.00803484)
(0.172559 0 -0.00875975)
(0.180528 0 -0.00955059)
(0.187514 0 -0.0103495)
(0.191702 0 -0.0108421)
(0 0 0)
(0.0170722 0 -0.000692524)
(0.0324457 0 -0.00132301)
(0.0457808 0 -0.00188326)
(0.0573382 0 -0.00238685)
(0.0673557 0 -0.00284438)
(0.0760309 0 -0.00326342)
(0.0835414 0 -0.00364956)
(0.0900506 0 -0.00400733)
(0.0957032 0 -0.00434016)
(0.100631 0 -0.00465026)
(0.104958 0 -0.00493942)
(0.108809 0 -0.00520946)
(0.112301 0 -0.00546239)
(0.11555 0 -0.00570029)
(0.118679 0 -0.00592655)
(0.121817 0 -0.00614685)
(0.125078 0 -0.0063655)
(0.128568 0 -0.00658839)
(0.132414 0 -0.00682669)
(0.136752 0 -0.0070949)
(0.141734 0 -0.00741446)
(0.147459 0 -0.00780516)
(0.15398 0 -0.00828578)
(0.161347 0 -0.00887792)
(0.16953 0 -0.00959258)
(0.178348 0 -0.0104169)
(0.18744 0 -0.0113041)
(0.196264 0 -0.0121735)
(0.203908 0 -0.0129563)
(0.209451 0 -0.0133549)
(0 0 0)
(0.0172549 0 -0.000743658)
(0.0328076 0 -0.00142126)
(0.0463294 0 -0.00202459)
(0.0580842 0 -0.00256848)
(0.0683087 0 -0.00306399)
(0.0772062 0 -0.00351961)
(0.0849594 0 -0.00394216)
(0.0917375 0 -0.00433697)
(0.0976893 0 -0.00470834)
(0.102946 0 -0.00505898)
(0.107637 0 -0.00539145)
(0.111887 0 -0.00570866)
(0.115821 0 -0.00601414)
(0.119559 0 -0.00631176)
(0.123228 0 -0.0066068)
(0.126949 0 -0.0069053)
(0.130827 0 -0.00721278)
(0.134977 0 -0.00753823)
(0.139522 0 -0.00789493)
(0.144594 0 -0.00829962)
(0.150328 0 -0.00877359)
(0.156798 0 -0.00933597)
(0.164048 0 -0.0100049)
(0.172111 0 -0.0107985)
(0.180946 0 -0.0117222)
(0.190383 0 -0.0127549)
(0.200104 0 -0.0138343)
(0.209649 0 -0.0148382)
(0.218123 0 -0.0156268)
(0.227064 0 -0.0157595)
(0 0 0)
(0.017439 0 -0.000794203)
(0.0331721 0 -0.0015185)
(0.0468869 0 -0.00216492)
(0.0588446 0 -0.00274913)
(0.0692773 0 -0.00328275)
(0.078399 0 -0.00377525)
(0.0863992 0 -0.0042347)
(0.0934489 0 -0.00466737)
(0.0996975 0 -0.00507794)
(0.105277 0 -0.00546988)
(0.110321 0 -0.00584685)
(0.11496 0 -0.00621303)
(0.119321 0 -0.00657312)
(0.123526 0 -0.00693253)
(0.127694 0 -0.00729702)
(0.131936 0 -0.00767275)
(0.136361 0 -0.0080677)
(0.141082 0 -0.00849315)
(0.146215 0 -0.0089634)
(0.15188 0 -0.00949642)
(0.158181 0 -0.0101117)
(0.165168 0 -0.0108272)
(0.17287 0 -0.0116611)
(0.18129 0 -0.01263)
(0.190361 0 -0.013741)
(0.199901 0 -0.014984)
(0.209605 0 -0.0163339)
(0.219047 0 -0.0177593)
(0.227581 0 -0.019323)
(0.2447 0 -0.0181374)
(0 0 0)
(0.0156205 0 0)
(0.0295909 0 0)
(0.0415352 0 0)
(0.0516386 0 0)
(0.0600776 0 0)
(0.06701 0 0)
(0.0725729 0 0)
(0.076886 0 0)
(0.080056 0 0)
(0.0821758 0 0)
(0.0833253 0 0)
(0.0835737 0 0)
(0.0829821 0 0)
(0.0816048 0 0)
(0.0794909 0 0)
(0.0766861 0 0)
(0.0732345 0 0)
(0.0691834 0 0)
(0.0645798 0 0)
(0.0594697 0 0)
(0.053907 0 0)
(0.0479551 0 0)
(0.0416871 0 0)
(0.0351991 0 0)
(0.0286201 0 0)
(0.0221206 0 0)
(0.0159485 0 0)
(0.0104959 0 0)
(0.0065371 0 0)
(0 0 0)
(0 0 0)
(0.0156301 0 -5.32575e-05)
(0.02961 0 -0.00010144)
(0.0415638 0 -0.000143683)
(0.0516774 0 -0.000180814)
(0.0601273 0 -0.000213372)
(0.0670721 0 -0.000241724)
(0.0726491 0 -0.000266232)
(0.0769779 0 -0.000286697)
(0.0801658 0 -0.000302738)
(0.0823065 0 -0.000314128)
(0.0834799 0 -0.00032031)
(0.0837559 0 -0.000320509)
(0.0831959 0 -0.000313734)
(0.081855 0 -0.000298751)
(0.0797828 0 -0.000274053)
(0.0770257 0 -0.000237813)
(0.0736279 0 -0.000187816)
(0.0696376 0 -0.000121518)
(0.0651055 0 -3.58623e-05)
(0.060079 0 7.29324e-05)
(0.0546131 0 0.000209307)
(0.0487762 0 0.000378479)
(0.0426448 0 0.000586857)
(0.0363168 0 0.000842477)
(0.0299294 0 0.00115456)
(0.0236645 0 0.00153387)
(0.0177868 0 0.00199201)
(0.0127284 0 0.00253119)
(0.00929111 0 0.00309678)
(0.00437919 0 0.00410025)
(0 0 0)
(0.0156619 0 -0.000106704)
(0.0296702 0 -0.000203264)
(0.0416524 0 -0.000287964)
(0.0517963 0 -0.00036249)
(0.0602787 0 -0.0004279)
(0.0672604 0 -0.000484897)
(0.0728793 0 -0.000534016)
(0.0772542 0 -0.000575099)
(0.0804952 0 -0.000607665)
(0.0826978 0 -0.000631114)
(0.0839423 0 -0.000644335)
(0.0842999 0 -0.000645821)
(0.0838337 0 -0.000633648)
(0.0826003 0 -0.000605433)
(0.0806517 0 -0.00055827)
(0.0780362 0 -0.000488647)
(0.0748004 0 -0.000392337)
(0.0709941 0 -0.000264388)
(0.0666729 0 -9.91386e-05)
(0.0618906 0 0.00011033)
(0.0567079 0 0.000372371)
(0.0512019 0 0.000696681)
(0.0454637 0 0.00109482)
(0.0396063 0 0.00157951)
(0.0337854 0 0.0021642)
(0.0282069 0 0.00286293)
(0.0231599 0 0.00368532)
(0.019135 0 0.00461325)
(0.0169715 0 0.00551685)
(0.0135469 0 0.00692626)
(0 0 0)
(0.0157158 0 -0.000160369)
(0.0297709 0 -0.000305475)
(0.0418001 0 -0.000432864)
(0.0519944 0 -0.000545133)
(0.0605301 0 -0.000643809)
(0.0675713 0 -0.000729887)
(0.0732579 0 -0.000803915)
(0.0777103 0 -0.000866081)
(0.0810406 0 -0.000916111)
(0.0833455 0 -0.000952863)
(0.0847073 0 -0.000974731)
(0.0851994 0 -0.000979573)
(0.0848875 0 -0.00096466)
(0.0838311 0 -0.000926619)
(0.0820855 0 -0.000861369)
(0.0797032 0 -0.00076401)
(0.0767356 0 -0.000628713)
(0.0732358 0 -0.000448624)
(0.0692628 0 -0.000215933)
(0.0648797 0 7.85035e-05)
(0.0601575 0 0.000445421)
(0.0551806 0 0.000897136)
(0.0500616 0 0.00144716)
(0.0449433 0 0.0021086)
(0.0400085 0 0.00289267)
(0.0354946 0 0.00380563)
(0.0317026 0 0.00483922)
(0.0291065 0 0.00593725)
(0.0285128 0 0.00689922)
(0.0267565 0 0.00828573)
(0 0 0)
(0.0157851 0 -0.000214093)
(0.0299076 0 -0.000407858)
(0.0420052 0 -0.000578144)
(0.0522696 0 -0.000728262)
(0.0608778 0 -0.000860361)
(0.0679993 0 -0.000975991)
(0.0737792 0 -0.00107591)
(0.0783404 0 -0.00116047)
(0.0817949 0 -0.00122938)
(0.0842411 0 -0.00128123)
(0.0857645 0 -0.00131406)
(0.0864418 0 -0.00132525)
(0.0863421 0 -0.00131143)
(0.085529 0 -0.00126847)
(0.0840624 0 -0.00119144)
(0.0820001 0 -0.00107446)
(0.0793995 0 -0.00091059)
(0.0763202 0 -0.000691808)
(0.0728264 0 -0.000408957)
(0.0689913 0 -5.18745e-05)
(0.0648998 0 0.000390524)
(0.0606465 0 0.000930736)
(0.0563543 0 0.0015812)
(0.0521892 0 0.00235088)
(0.0483721 0 0.00324183)
(0.0451734 0 0.00424297)
(0.0428976 0 0.00531858)
(0.0419355 0 0.00637691)
(0.0429519 0 0.00718047)
(0.0426865 0 0.0082981)
(0 0 0)
(0.0158693 0 -0.0002678)
(0.0300789 0 -0.000510374)
(0.0422631 0 -0.00072376)
(0.052614 0 -0.000911837)
(0.0613151 0 -0.00107762)
(0.0685412 0 -0.00122348)
(0.0744403 0 -0.00135048)
(0.0791384 0 -0.00145896)
(0.082749 0 -0.00154851)
(0.0853729 0 -0.00161773)
(0.0870997 0 -0.00166446)
(0.0880096 0 -0.00168576)
(0.0881763 0 -0.00167788)
(0.0876681 0 -0.0016362)
(0.0865506 0 -0.00155532)
(0.0848884 0 -0.00142886)
(0.0827459 0 -0.0012494)
(0.0801901 0 -0.0010085)
(0.0772915 0 -0.000696595)
(0.0741354 0 -0.000303871)
(0.0708243 0 0.000179255)
(0.0674697 0 0.000762582)
(0.0641974 0 0.00145423)
(0.0611734 0 0.00225647)
(0.0586438 0 0.00315807)
(0.0568985 0 0.00412602)
(0.0562273 0 0.00509721)
(0.0569218 0 0.00595957)
(0.0594223 0 0.00648147)
(0.0603772 0 0.00725268)
(0 0 0)
(0.0159742 0 -0.00032153)
(0.0302871 0 -0.000612993)
(0.0425717 0 -0.000869497)
(0.0530239 0 -0.00109587)
(0.0618379 0 -0.00129608)
(0.0691914 0 -0.00147305)
(0.0752336 0 -0.00162821)
(0.0800945 0 -0.00176208)
(0.0838907 0 -0.0018743)
(0.0867262 0 -0.00196352)
(0.0886946 0 -0.00202756)
(0.0898808 0 -0.00206339)
(0.0903633 0 -0.0020671)
(0.0902157 0 -0.00203389)
(0.0895107 0 -0.0019583)
(0.0883206 0 -0.00183405)
(0.0867182 0 -0.0016539)
(0.0847801 0 -0.00140993)
(0.0825848 0 -0.00109322)
(0.0802229 0 -0.000694859)
(0.0778116 0 -0.000208141)
(0.0754852 0 0.000371117)
(0.0733809 0 0.00104366)
(0.07166 0 0.00180328)
(0.0705443 0 0.00262682)
(0.0703127 0 0.0034612)
(0.0712242 0 0.00422307)
(0.0734592 0 0.00479771)
(0.0772096 0 0.00499382)
(0.079105 0 0.00542078)
(0 0 0)
(0.0160987 0 -0.000375295)
(0.0305274 0 -0.000715581)
(0.042925 0 -0.00101517)
(0.0534971 0 -0.00128026)
(0.0624427 0 -0.00151567)
(0.0699422 0 -0.00172464)
(0.0761491 0 -0.00190916)
(0.0811968 0 -0.00207006)
(0.0852053 0 -0.00220714)
(0.0882827 0 -0.00231926)
(0.0905269 0 -0.00240438)
(0.092028 0 -0.00245959)
(0.09287 0 -0.0024811)
(0.0931313 0 -0.00246413)
(0.0928932 0 -0.00240373)
(0.0922368 0 -0.00229427)
(0.091244 0 -0.00212927)
(0.0900033 0 -0.00190227)
(0.0886062 0 -0.0016064)
(0.087145 0 -0.00123446)
(0.085736 0 -0.00078238)
(0.0845328 0 -0.00025282)
(0.0836919 0 0.000345835)
(0.0833726 0 0.000997239)
(0.0837439 0 0.00166895)
(0.0850332 0 0.00229649)
(0.0874414 0 0.00278786)
(0.0910258 0 0.00304029)
(0.0957454 0 0.00292232)
(0.0983204 0 0.00303158)
(0 0 0)
(0.0162351 0 -0.000428856)
(0.0307943 0 -0.000817965)
(0.0433204 0 -0.00116098)
(0.0540292 0 -0.00146516)
(0.0631225 0 -0.00173622)
(0.0707848 0 -0.00197805)
(0.0771756 0 -0.0021932)
(0.0824313 0 -0.00238283)
(0.0866758 0 -0.0025471)
(0.0900214 0 -0.00268515)
(0.092571 0 -0.00279529)
(0.0944203 0 -0.00287497)
(0.0956592 0 -0.00292086)
(0.0963739 0 -0.00292879)
(0.0966516 0 -0.00289431)
(0.0965788 0 -0.00281241)
(0.0962495 0 -0.00267836)
(0.0957656 0 -0.00248799)
(0.0952298 0 -0.00223708)
(0.0947457 0 -0.00192209)
(0.0944231 0 -0.00154175)
(0.0944186 0 -0.00110424)
(0.0948998 0 -0.000626772)
(0.0960109 0 -0.000134494)
(0.097884 0 0.00033281)
(0.100666 0 0.000708782)
(0.104449 0 0.000907283)
(0.109168 0 0.000847807)
(0.114586 0 0.000463201)
(0.117611 0 0.000315261)
(0 0 0)
(0.0163826 0 -0.000482193)
(0.0310894 0 -0.000920174)
(0.0437565 0 -0.00130677)
(0.0546116 0 -0.00165019)
(0.0638668 0 -0.0019573)
(0.0717088 0 -0.0022329)
(0.0783004 0 -0.00247994)
(0.0837824 0 -0.00270004)
(0.0882829 0 -0.0028938)
(0.0919186 0 -0.00306083)
(0.0947977 0 -0.00319992)
(0.0970217 0 -0.00330912)
(0.0986878 0 -0.00338591)
(0.0998917 0 -0.00342734)
(0.100725 0 -0.00342952)
(0.101277 0 -0.00338822)
(0.101653 0 -0.00330074)
(0.101967 0 -0.00316564)
(0.10233 0 -0.00298186)
(0.102858 0 -0.00275006)
(0.103668 0 -0.00247367)
(0.104909 0 -0.002165)
(0.106735 0 -0.00184685)
(0.109271 0 -0.00155003)
(0.112615 0 -0.00131757)
(0.116822 0 -0.00120972)
(0.121847 0 -0.00129498)
(0.127502 0 -0.00162502)
(0.133399 0 -0.0022106)
(0.136692 0 -0.00254708)
(0 0 0)
(0.0165439 0 -0.000535394)
(0.0314082 0 -0.001022)
(0.0442251 0 -0.00145198)
(0.0552372 0 -0.00183497)
(0.0646688 0 -0.00217893)
(0.0727056 0 -0.00248928)
(0.0795127 0 -0.00276947)
(0.0852366 0 -0.00302177)
(0.0900097 0 -0.00324732)
(0.0939534 0 -0.00344631)
(0.097181 0 -0.00361816)
(0.0997998 0 -0.00376171)
(0.101914 0 -0.00387536)
(0.103625 0 -0.00395737)
(0.105032 0 -0.00400517)
(0.106235 0 -0.00401643)
(0.107346 0 -0.00399047)
(0.108483 0 -0.00392804)
(0.109764 0 -0.00383133)
(0.111312 0 -0.00370507)
(0.113259 0 -0.00355806)
(0.115745 0 -0.00340622)
(0.118898 0 -0.0032745)
(0.122821 0 -0.00319553)
(0.127571 0 -0.00320962)
(0.133108 0 -0.00336367)
(0.139258 0 -0.00370148)
(0.145707 0 -0.00424368)
(0.151947 0 -0.00496045)
(0.155409 0 -0.00541656)
(0 0 0)
(0.0167139 0 -0.000588257)
(0.0317422 0 -0.00112312)
(0.0447219 0 -0.00159654)
(0.0559053 0 -0.00201962)
(0.065524 0 -0.00240113)
(0.0737665 0 -0.00274711)
(0.0808009 0 -0.00306171)
(0.0867791 0 -0.00334786)
(0.091838 0 -0.00360739)
(0.0961033 0 -0.00384114)
(0.0996929 0 -0.00404929)
(0.10272 0 -0.00423155)
(0.105293 0 -0.00438743)
(0.10752 0 -0.00451628)
(0.109508 0 -0.00461741)
(0.111367 0 -0.00469088)
(0.11322 0 -0.00473874)
(0.115182 0 -0.0047635)
(0.117371 0 -0.00476967)
(0.119918 0 -0.00476632)
(0.122966 0 -0.00476706)
(0.126646 0 -0.00479033)
(0.131061 0 -0.0048608)
(0.136288 0 -0.00500898)
(0.142345 0 -0.00526732)
(0.149112 0 -0.00566383)
(0.156305 0 -0.00621325)
(0.163494 0 -0.00690552)
(0.170053 0 -0.00768928)
(0.173726 0 -0.0081953)
(0 0 0)
(0.0168915 0 -0.000640693)
(0.0320892 0 -0.00122352)
(0.0452431 0 -0.00174042)
(0.0566088 0 -0.00220373)
(0.0664228 0 -0.00262317)
(0.0748793 0 -0.00300553)
(0.0821494 0 -0.00335553)
(0.0883907 0 -0.00367695)
(0.0937442 0 -0.00397237)
(0.0983392 0 -0.00424332)
(0.102298 0 -0.00449078)
(0.105738 0 -0.0047155)
(0.108773 0 -0.00491816)
(0.111517 0 -0.00509947)
(0.114082 0 -0.00526057)
(0.116592 0 -0.00540453)
(0.119169 0 -0.0055352)
(0.121924 0 -0.00565653)
(0.124978 0 -0.00577618)
(0.128465 0 -0.00590636)
(0.132538 0 -0.00606536)
(0.137316 0 -0.00627289)
(0.142873 0 -0.00655077)
(0.14927 0 -0.00692524)
(0.156493 0 -0.00741778)
(0.164374 0 -0.00803484)
(0.172559 0 -0.00875975)
(0.180528 0 -0.00955059)
(0.187514 0 -0.0103495)
(0.191702 0 -0.0108421)
(0 0 0)
(0.0170722 0 -0.000692524)
(0.0324457 0 -0.00132301)
(0.0457808 0 -0.00188326)
(0.0573382 0 -0.00238685)
(0.0673557 0 -0.00284438)
(0.0760309 0 -0.00326342)
(0.0835414 0 -0.00364956)
(0.0900506 0 -0.00400733)
(0.0957032 0 -0.00434016)
(0.100631 0 -0.00465026)
(0.104958 0 -0.00493942)
(0.108809 0 -0.00520946)
(0.112301 0 -0.00546239)
(0.11555 0 -0.00570029)
(0.118679 0 -0.00592655)
(0.121817 0 -0.00614685)
(0.125078 0 -0.0063655)
(0.128568 0 -0.00658839)
(0.132414 0 -0.00682669)
(0.136752 0 -0.0070949)
(0.141734 0 -0.00741446)
(0.147459 0 -0.00780516)
(0.15398 0 -0.00828578)
(0.161347 0 -0.00887792)
(0.16953 0 -0.00959258)
(0.178348 0 -0.0104169)
(0.18744 0 -0.0113041)
(0.196264 0 -0.0121735)
(0.203908 0 -0.0129563)
(0.209451 0 -0.0133549)
(0 0 0)
(0.0172549 0 -0.000743658)
(0.0328076 0 -0.00142126)
(0.0463294 0 -0.00202459)
(0.0580842 0 -0.00256848)
(0.0683087 0 -0.00306399)
(0.0772062 0 -0.00351961)
(0.0849594 0 -0.00394216)
(0.0917375 0 -0.00433697)
(0.0976893 0 -0.00470834)
(0.102946 0 -0.00505898)
(0.107637 0 -0.00539145)
(0.111887 0 -0.00570866)
(0.115821 0 -0.00601414)
(0.119559 0 -0.00631176)
(0.123228 0 -0.0066068)
(0.126949 0 -0.0069053)
(0.130827 0 -0.00721278)
(0.134977 0 -0.00753823)
(0.139522 0 -0.00789493)
(0.144594 0 -0.00829962)
(0.150328 0 -0.00877359)
(0.156798 0 -0.00933597)
(0.164048 0 -0.0100049)
(0.172111 0 -0.0107985)
(0.180946 0 -0.0117222)
(0.190383 0 -0.0127549)
(0.200104 0 -0.0138343)
(0.209649 0 -0.0148382)
(0.218123 0 -0.0156268)
(0.227064 0 -0.0157595)
(0 0 0)
(0.017439 0 -0.000794203)
(0.0331721 0 -0.0015185)
(0.0468869 0 -0.00216492)
(0.0588446 0 -0.00274913)
(0.0692773 0 -0.00328275)
(0.078399 0 -0.00377525)
(0.0863992 0 -0.0042347)
(0.0934489 0 -0.00466737)
(0.0996975 0 -0.00507794)
(0.105277 0 -0.00546988)
(0.110321 0 -0.00584685)
(0.11496 0 -0.00621303)
(0.119321 0 -0.00657312)
(0.123526 0 -0.00693253)
(0.127694 0 -0.00729702)
(0.131936 0 -0.00767275)
(0.136361 0 -0.0080677)
(0.141082 0 -0.00849315)
(0.146215 0 -0.0089634)
(0.15188 0 -0.00949642)
(0.158181 0 -0.0101117)
(0.165168 0 -0.0108272)
(0.17287 0 -0.0116611)
(0.18129 0 -0.01263)
(0.190361 0 -0.013741)
(0.199901 0 -0.014984)
(0.209605 0 -0.0163339)
(0.219047 0 -0.0177593)
(0.227581 0 -0.019323)
(0.2447 0 -0.0181374)
(0 0 0)
(0.00914258 0 0)
(0.0170035 0 0)
(0.0283987 0 0)
(0.0418416 0 0)
(0.0559869 0 0)
(0.0698819 0 0)
(0.0828525 0 0)
(0.094483 0 0)
(0.104622 0 0)
(0.113239 0 0)
(0.120335 0 0)
(0.125957 0 0)
(0.130185 0 0)
(0.133083 0 0)
(0.134696 0 0)
(0.135064 0 0)
(0.13421 0 0)
(0.132141 0 0)
(0.128851 0 0)
(0.124324 0 0)
(0.11853 0 0)
(0.111425 0 0)
(0.102952 0 0)
(0.0930448 0 0)
(0.0816378 0 0)
(0.0686611 0 0)
(0.0540358 0 0)
(0.0376971 0 0)
(0.0195677 0 0)
(0 0 0)
(0.00389334 0 -0.00456455)
(0.0117803 0 -0.00437621)
(0.0195972 0 -0.00452842)
(0.0308262 0 -0.00459172)
(0.0440101 0 -0.00458297)
(0.057871 0 -0.00450676)
(0.0714969 0 -0.00438115)
(0.0842173 0 -0.00421233)
(0.095627 0 -0.00401222)
(0.10558 0 -0.00380015)
(0.114035 0 -0.00358033)
(0.120989 0 -0.00335159)
(0.126498 0 -0.00312337)
(0.130634 0 -0.00290624)
(0.133453 0 -0.00269858)
(0.135 0 -0.00249829)
(0.135314 0 -0.00230596)
(0.134417 0 -0.00212227)
(0.132312 0 -0.00194684)
(0.128992 0 -0.00177904)
(0.12444 0 -0.00161901)
(0.118627 0 -0.00146424)
(0.111506 0 -0.00131171)
(0.10302 0 -0.00116024)
(0.0931011 0 -0.00100896)
(0.0816836 0 -0.000857125)
(0.0686983 0 -0.000702391)
(0.0540681 0 -0.000542002)
(0.037725 0 -0.000372847)
(0.0195844 0 -0.000191907)
(0 0 0)
(0.0122232 0 -0.00863177)
(0.0192517 0 -0.00854132)
(0.0270052 0 -0.00884696)
(0.0377797 0 -0.00897911)
(0.0502523 0 -0.00895891)
(0.06334 0 -0.00881519)
(0.0762057 0 -0.00857612)
(0.0882035 0 -0.00825221)
(0.0989798 0 -0.0078704)
(0.108389 0 -0.00746124)
(0.116365 0 -0.00703089)
(0.122913 0 -0.00658833)
(0.128091 0 -0.00615147)
(0.131953 0 -0.00572998)
(0.134539 0 -0.0053212)
(0.135894 0 -0.00492706)
(0.136051 0 -0.00455072)
(0.135024 0 -0.00419112)
(0.132813 0 -0.00384711)
(0.129404 0 -0.00351721)
(0.124778 0 -0.00320128)
(0.118906 0 -0.00289546)
(0.111741 0 -0.00259487)
(0.103217 0 -0.00229716)
(0.0932635 0 -0.00199924)
(0.0818143 0 -0.001699)
(0.0688033 0 -0.00139278)
(0.0541543 0 -0.00107512)
(0.0377949 0 -0.000740224)
(0.0196269 0 -0.000381502)
(0 0 0)
(0.0245072 0 -0.0123783)
(0.0306217 0 -0.0124208)
(0.0382923 0 -0.0128563)
(0.0484024 0 -0.0130515)
(0.0598681 0 -0.0130278)
(0.0718394 0 -0.0128305)
(0.0835628 0 -0.0124908)
(0.0944714 0 -0.0120302)
(0.104282 0 -0.0114908)
(0.112837 0 -0.0109033)
(0.120066 0 -0.0102828)
(0.125988 0 -0.00964997)
(0.130642 0 -0.00902448)
(0.134061 0 -0.00841415)
(0.136277 0 -0.00782013)
(0.137328 0 -0.00724848)
(0.137235 0 -0.0067016)
(0.136002 0 -0.00617796)
(0.13362 0 -0.00567576)
(0.130069 0 -0.00519255)
(0.125325 0 -0.00472612)
(0.119357 0 -0.00427393)
(0.112113 0 -0.00383189)
(0.103526 0 -0.00339567)
(0.0935201 0 -0.00295916)
(0.0820226 0 -0.00251689)
(0.0689691 0 -0.00206429)
(0.0542844 0 -0.00159414)
(0.037889 0 -0.00109816)
(0.0196776 0 -0.000566361)
(0 0 0)
(0.0396205 0 -0.0159094)
(0.0449441 0 -0.0160483)
(0.0524461 0 -0.0165625)
(0.0617645 0 -0.016797)
(0.0720674 0 -0.0167708)
(0.0826977 0 -0.0165246)
(0.0930259 0 -0.0160957)
(0.102602 0 -0.0155185)
(0.111194 0 -0.0148391)
(0.118657 0 -0.0140941)
(0.124941 0 -0.0133101)
(0.130055 0 -0.0125101)
(0.134019 0 -0.0117125)
(0.136857 0 -0.0109318)
(0.138592 0 -0.0101747)
(0.139245 0 -0.00944433)
(0.138821 0 -0.0087425)
(0.137313 0 -0.00806841)
(0.134705 0 -0.00742011)
(0.130967 0 -0.00679448)
(0.126067 0 -0.0061872)
(0.119967 0 -0.00559686)
(0.112611 0 -0.00502054)
(0.103933 0 -0.00445172)
(0.0938541 0 -0.00388309)
(0.082296 0 -0.00330597)
(0.0691883 0 -0.00271304)
(0.0544538 0 -0.00209604)
(0.0380055 0 -0.00144437)
(0.0197351 0 -0.000745001)
(0 0 0)
(0.0567011 0 -0.0192885)
(0.0613389 0 -0.0194563)
(0.0685677 0 -0.0199976)
(0.0770215 0 -0.0202399)
(0.0860863 0 -0.0201972)
(0.0952588 0 -0.0198985)
(0.104057 0 -0.0193877)
(0.112148 0 -0.0187078)
(0.119348 0 -0.0179029)
(0.125561 0 -0.0170209)
(0.130756 0 -0.0160972)
(0.134925 0 -0.0151523)
(0.138077 0 -0.0142041)
(0.140229 0 -0.0132737)
(0.141394 0 -0.0123727)
(0.14157 0 -0.0115013)
(0.140749 0 -0.0106609)
(0.138911 0 -0.00985102)
(0.136028 0 -0.00906984)
(0.132064 0 -0.00831407)
(0.126977 0 -0.00757912)
(0.120717 0 -0.00686236)
(0.113226 0 -0.00616006)
(0.104432 0 -0.00546488)
(0.0942592 0 -0.00476899)
(0.082626 0 -0.0040626)
(0.0694535 0 -0.00333576)
(0.0546582 0 -0.00257826)
(0.038148 0 -0.00177729)
(0.0198092 0 -0.000916856)
(0 0 0)
(0.0750418 0 -0.0225059)
(0.0790733 0 -0.0226551)
(0.0859217 0 -0.0231822)
(0.0934685 0 -0.0234029)
(0.101268 0 -0.0233247)
(0.108939 0 -0.0229659)
(0.116144 0 -0.0223732)
(0.122665 0 -0.0215967)
(0.128382 0 -0.0206807)
(0.133252 0 -0.0196792)
(0.137261 0 -0.018634)
(0.140395 0 -0.0175656)
(0.142658 0 -0.0164921)
(0.144052 0 -0.0154329)
(0.144577 0 -0.0144042)
(0.144219 0 -0.0134094)
(0.142952 0 -0.0124472)
(0.140741 0 -0.0115169)
(0.137548 0 -0.0106167)
(0.133325 0 -0.00974349)
(0.128022 0 -0.00889289)
(0.121581 0 -0.00806081)
(0.113935 0 -0.00724198)
(0.105012 0 -0.00642892)
(0.0947302 0 -0.00561288)
(0.083007 0 -0.00478355)
(0.0697574 0 -0.00392963)
(0.054892 0 -0.00303862)
(0.0383128 0 -0.00209544)