/*--------------------------------*- C++ -*----------------------------------*\
| =========                 |                                                 |
| \\      /  F ield         | OpenFOAM: The Open Source CFD Toolbox           |
|  \\    /   O peration     | Version:  dev                                   |
|   \\  /    A nd           | Web:      www.OpenFOAM.org                      |
|    \\/     M anipulation  |                                                 |
\*---------------------------------------------------------------------------*/
FoamFile
{
    version     2.0;
    format      ascii;
    class       pointVectorField;
    location    "1";
    object      pointDisplacement;
}
// * * * * * * * * * * * * * * * * * * * * * * * * * * * * * * * * * * * * * //

dimensions      [0 1 0 0 0 0 0];

internalField   nonuniform List<vector> 
1034
(
(0.185865 0 0)
(0.196461 0 0)
(0.204239 0 0)
(0.209492 0 0)
(0.212463 0 0)
(0.213343 0 0)
(0.212278 0 0)
(0.209364 0 0)
(0.204669 0 0)
(0.198223 0 0)
(0.190019 0 0)
(0.180043 0 0)
(0.168227 0 0)
(0.154518 0 0)
(0.138883 0 0)
(0.121208 0 0)
(0.101412 0 0)
(0.0794532 0 0)
(0.0552166 0 0)
(0.0285617 0 0)
(0 0 0)
(0.186963 0 -0.00787847)
(0.197348 0 -0.00753313)
(0.204955 0 -0.00714643)
(0.21007 0 -0.00673267)
(0.212931 0 -0.00630559)
(0.213723 0 -0.00586716)
(0.212589 0 -0.00543769)
(0.209621 0 -0.0050157)
(0.204882 0 -0.0046)
(0.198399 0 -0.00420198)
(0.190168 0 -0.00381661)
(0.180168 0 -0.00344243)
(0.168334 0 -0.00307665)
(0.15461 0 -0.00271551)
(0.138962 0 -0.00235738)
(0.121276 0 -0.00199852)
(0.101471 0 -0.00163233)
(0.0795007 0 -0.00125544)
(0.0552507 0 -0.000862747)
(0.0285817 0 -0.000444469)
(0 0 0)
(0.190182 0 -0.0154717)
(0.199949 0 -0.0147797)
(0.207054 0 -0.0140132)
(0.211767 0 -0.0132028)
(0.214304 0 -0.0123617)
(0.214839 0 -0.0115131)
(0.213502 0 -0.0106764)
(0.210373 0 -0.00985177)
(0.205504 0 -0.00904648)
(0.198916 0 -0.00826872)
(0.1906 0 -0.00751382)
(0.180532 0 -0.00677995)
(0.168643 0 -0.00606253)
(0.154875 0 -0.00535271)
(0.139186 0 -0.004648)
(0.121471 0 -0.00394246)
(0.10164 0 -0.00322241)
(0.0796314 0 -0.00248)
(0.0553396 0 -0.00170489)
(0.0286295 0 -0.000878534)
(0 0 0)
(0.19528 0 -0.0226425)
(0.204079 0 -0.0216191)
(0.210395 0 -0.0204851)
(0.214472 0 -0.0192992)
(0.216498 0 -0.0180761)
(0.216628 0 -0.0168488)
(0.214968 0 -0.0156354)
(0.21158 0 -0.0144387)
(0.206503 0 -0.0132725)
(0.199747 0 -0.0121402)
(0.191295 0 -0.011038)
(0.181116 0 -0.00996481)
(0.169141 0 -0.00891663)
(0.155302 0 -0.00787863)
(0.139545 0 -0.00684606)
(0.121775 0 -0.00581102)
(0.101897 0 -0.00475495)
(0.0798301 0 -0.00366351)
(0.0554759 0 -0.00251988)
(0.0287021 0 -0.0012989)
(0 0 0)
(0.201947 0 -0.0293525)
(0.209498 0 -0.0280122)
(0.214794 0 -0.0265366)
(0.218041 0 -0.0249946)
(0.219401 0 -0.0234213)
(0.218998 0 -0.0218453)
(0.216912 0 -0.0202866)
(0.213185 0 -0.0187551)
(0.207832 0 -0.0172553)
(0.200855 0 -0.0157954)
(0.192224 0 -0.0143732)
(0.181893 0 -0.0129861)
(0.169797 0 -0.0116304)
(0.155861 0 -0.0102884)
(0.140013 0 -0.00895027)
(0.122163 0 -0.00760362)
(0.102215 0 -0.00622805)
(0.0800773 0 -0.00480318)
(0.055648 0 -0.00330564)
(0.0287936 0 -0.00170443)
(0 0 0)
(0.209832 0 -0.0355839)
(0.215933 0 -0.0339365)
(0.220039 0 -0.0321465)
(0.222312 0 -0.0302777)
(0.222887 0 -0.0283827)
(0.221852 0 -0.0264891)
(0.219256 0 -0.0246157)
(0.215121 0 -0.0227803)
(0.209441 0 -0.0209801)
(0.202196 0 -0.0192242)
(0.193347 0 -0.0175145)
(0.182833 0 -0.0158436)
(0.170585 0 -0.0142046)
(0.156524 0 -0.0125808)
(0.140566 0 -0.0109574)
(0.12262 0 -0.00931717)
(0.102585 0 -0.00763789)
(0.0803626 0 -0.00589469)
(0.0558467 0 -0.00405878)
(0.0288986 0 -0.00209328)
(0 0 0)
(0.218565 0 -0.0413153)
(0.22309 0 -0.0393742)
(0.225895 0 -0.037293)
(0.227106 0 -0.0351349)
(0.226815 0 -0.0329504)
(0.225078 0 -0.0307717)
(0.221915 0 -0.0286189)
(0.217322 0 -0.0265089)
(0.211272 0 -0.0244447)
(0.203724 0 -0.022429)
(0.194623 0 -0.0204622)
(0.1839 0 -0.0185351)
(0.171478 0 -0.016637)
(0.15727 0 -0.0147517)
(0.141186 0 -0.0128614)
(0.123128 0 -0.0109456)
(0.102994 0 -0.00897945)
(0.0806756 0 -0.00693418)
(0.0560637 0 -0.00477647)
(0.0290125 0 -0.0024639)
(0 0 0)
(0.227766 0 -0.046521)
(0.230662 0 -0.0443032)
(0.232117 0 -0.041956)
(0.232223 0 -0.0395423)
(0.231031 0 -0.0371069)
(0.228559 0 -0.0346821)
(0.2248 0 -0.0322918)
(0.219719 0 -0.0299468)
(0.213269 0 -0.0276534)
(0.205391 0 -0.0254103)
(0.196015 0 -0.0232141)
(0.185062 0 -0.0210554)
(0.172447 0 -0.0189214)
(0.158076 0 -0.0167954)
(0.141852 0 -0.0146574)
(0.123672 0 -0.0124843)
(0.103428 0 -0.0102486)
(0.081006 0 -0.00791841)
(0.0562913 0 -0.00545633)
(0.0291313 0 -0.002815)
(0 0 0)
(0.237069 0 -0.0511759)
(0.238352 0 -0.048705)
(0.238474 0 -0.0461254)
(0.237484 0 -0.0434931)
(0.235397 0 -0.0408511)
(0.23219 0 -0.0382258)
(0.227824 0 -0.0356386)
(0.222242 0 -0.0330979)
(0.215376 0 -0.0306075)
(0.20715 0 -0.0281656)
(0.197484 0 -0.0257667)
(0.186287 0 -0.0234006)
(0.173465 0 -0.0210536)
(0.15892 0 -0.0187076)
(0.142547 0 -0.0163413)
(0.124236 0 -0.0139294)
(0.103874 0 -0.0114422)
(0.0813436 0 -0.00884474)
(0.0565223 0 -0.00609645)
(0.0292511 0 -0.00314555)
(0 0 0)
(0.246148 0 -0.0552624)
(0.245908 0 -0.0525748)
(0.244774 0 -0.0498068)
(0.242745 0 -0.0470025)
(0.239797 0 -0.0441977)
(0.235873 0 -0.041414)
(0.230908 0 -0.0386669)
(0.224823 0 -0.0359638)
(0.217535 0 -0.0333071)
(0.208955 0 -0.0306942)
(0.19899 0 -0.0281184)
(0.187541 0 -0.0255689)
(0.174506 0 -0.0230309)
(0.159779 0 -0.0204856)
(0.14325 0 -0.0179104)
(0.124803 0 -0.0152783)
(0.104321 0 -0.0125576)
(0.0816788 0 -0.00971116)
(0.0567499 0 -0.00669535)
(0.0293683 0 -0.00345476)
(0 0 0)
(0.254755 0 -0.0587789)
(0.253146 0 -0.0559257)
(0.250869 0 -0.0530174)
(0.247883 0 -0.0500871)
(0.244126 0 -0.0471605)
(0.239519 0 -0.044255)
(0.233974 0 -0.0413823)
(0.227398 0 -0.0385486)
(0.219694 0 -0.0357547)
(0.210761 0 -0.0329976)
(0.200496 0 -0.0302697)
(0.188793 0 -0.0275598)
(0.175542 0 -0.0248523)
(0.160631 0 -0.0221279)
(0.143943 0 -0.0193629)
(0.125359 0 -0.0165292)
(0.104755 0 -0.0135934)
(0.0820023 0 -0.0105163)
(0.0569678 0 -0.00725198)
(0.0294796 0 -0.00374206)
(0 0 0)
(0.262723 0 -0.0617398)
(0.259924 0 -0.0587768)
(0.256636 0 -0.0557764)
(0.252786 0 -0.052762)
(0.248288 0 -0.0497518)
(0.243044 0 -0.0467593)
(0.236953 0 -0.0437934)
(0.229909 0 -0.0408585)
(0.221804 0 -0.037955)
(0.212527 0 -0.0350789)
(0.201969 0 -0.0322225)
(0.190014 0 -0.0293742)
(0.176549 0 -0.026518)
(0.161455 0 -0.0236342)
(0.14461 0 -0.0206983)
(0.12589 0 -0.0176812)
(0.105166 0 -0.0145484)
(0.0823056 0 -0.0112591)
(0.05717 0 -0.00776567)
(0.029582 0 -0.00400709)
(0 0 0)
(0.269937 0 -0.0641667)
(0.266133 0 -0.0611488)
(0.261973 0 -0.058103)
(0.257363 0 -0.0550447)
(0.252202 0 -0.0519869)
(0.24638 0 -0.0489398)
(0.239785 0 -0.0459104)
(0.232303 0 -0.042902)
(0.223819 0 -0.0399142)
(0.214215 0 -0.036943)
(0.203374 0 -0.0339804)
(0.191177 0 -0.0310145)
(0.177504 0 -0.0280295)
(0.162231 0 -0.0250051)
(0.145234 0 -0.0219166)
(0.126382 0 -0.0187342)
(0.105544 0 -0.0154225)
(0.0825807 0 -0.0119395)
(0.0573513 0 -0.00823613)
(0.0296728 0 -0.00424968)
(0 0 0)
(0.276322 0 -0.0660866)
(0.271696 0 -0.0630674)
(0.266805 0 -0.0600205)
(0.261545 0 -0.056956)
(0.255804 0 -0.0538835)
(0.249468 0 -0.0508116)
(0.242419 0 -0.0477459)
(0.234537 0 -0.044689)
(0.225701 0 -0.0416404)
(0.215791 0 -0.038596)
(0.204684 0 -0.0355478)
(0.192257 0 -0.0324841)
(0.178386 0 -0.029389)
(0.162943 0 -0.0262423)
(0.1458 0 -0.023019)
(0.126823 0 -0.0196888)
(0.105877 0 -0.0162159)
(0.0828204 0 -0.0125574)
(0.0575067 0 -0.00866341)
(0.0297494 0 -0.00446985)
(0 0 0)
(0.281838 0 -0.0675347)
(0.276564 0 -0.0645637)
(0.271082 0 -0.0615559)
(0.265279 0 -0.0585189)
(0.259044 0 -0.055461)
(0.252262 0 -0.0523908)
(0.244812 0 -0.0493132)
(0.236571 0 -0.0462305)
(0.227417 0 -0.0431424)
(0.217226 0 -0.040045)
(0.205874 0 -0.0369305)
(0.193233 0 -0.0337874)
(0.179176 0 -0.0306)
(0.163574 0 -0.0273482)
(0.146295 0 -0.024007)
(0.127203 0 -0.0205462)
(0.106159 0 -0.0169294)
(0.0830182 0 -0.0131134)
(0.0576319 0 -0.00904782)
(0.0298097 0 -0.00466777)
(0 0 0)
(0.292172 0 -0.0713759)
(0.2865 0 -0.0685586)
(0.280741 0 -0.0656789)
(0.274797 0 -0.0627464)
(0.268559 0 -0.0597681)
(0.261913 0 -0.0567514)
(0.25475 0 -0.0537064)
(0.246951 0 -0.0506387)
(0.238392 0 -0.0475501)
(0.228953 0 -0.0444415)
(0.218508 0 -0.0413092)
(0.20693 0 -0.0381455)
(0.194092 0 -0.0349394)
(0.179865 0 -0.0316756)
(0.164116 0 -0.0283343)
(0.146712 0 -0.0248908)
(0.127515 0 -0.0213148)
(0.106383 0 -0.0175699)
(0.0831706 0 -0.0136128)
(0.0577247 0 -0.00939305)
(0.029853 0 -0.0048454)
(0 0 0)
(0.185865 0 0)
(0.196461 0 0)
(0.204239 0 0)
(0.209492 0 0)
(0.212463 0 0)
(0.213343 0 0)
(0.212278 0 0)
(0.209364 0 0)
(0.204669 0 0)
(0.198223 0 0)
(0.190019 0 0)
(0.180043 0 0)
(0.168227 0 0)
(0.154518 0 0)
(0.138883 0 0)
(0.121208 0 0)
(0.101412 0 0)
(0.0794532 0 0)
(0.0552166 0 0)
(0.0285617 0 0)
(0 0 0)
(0.186963 0 -0.00787847)
(0.197348 0 -0.00753313)
(0.204955 0 -0.00714643)
(0.21007 0 -0.00673267)
(0.212931 0 -0.00630559)
(0.213723 0 -0.00586716)
(0.212589 0 -0.00543769)
(0.209621 0 -0.0050157)
(0.204882 0 -0.0046)
(0.198399 0 -0.00420198)
(0.190168 0 -0.00381661)
(0.180168 0 -0.00344243)
(0.168334 0 -0.00307665)
(0.15461 0 -0.00271551)
(0.138962 0 -0.00235738)
(0.121276 0 -0.00199852)
(0.101471 0 -0.00163233)
(0.0795007 0 -0.00125544)
(0.0552507 0 -0.000862747)
(0.0285817 0 -0.000444469)
(0 0 0)
(0.190182 0 -0.0154717)
(0.199949 0 -0.0147797)
(0.207054 0 -0.0140132)
(0.211767 0 -0.0132028)
(0.214304 0 -0.0123617)
(0.214839 0 -0.0115131)
(0.213502 0 -0.0106764)
(0.210373 0 -0.00985177)
(0.205504 0 -0.00904648)
(0.198916 0 -0.00826872)
(0.1906 0 -0.00751382)
(0.180532 0 -0.00677995)
(0.168643 0 -0.00606253)
(0.154875 0 -0.00535271)
(0.139186 0 -0.004648)
(0.121471 0 -0.00394246)
(0.10164 0 -0.00322241)
(0.0796314 0 -0.00248)
(0.0553396 0 -0.00170489)
(0.0286295 0 -0.000878534)
(0 0 0)
(0.19528 0 -0.0226425)
(0.204079 0 -0.0216191)
(0.210395 0 -0.0204851)
(0.214472 0 -0.0192992)
(0.216498 0 -0.0180761)
(0.216628 0 -0.0168488)
(0.214968 0 -0.0156354)
(0.21158 0 -0.0144387)
(0.206503 0 -0.0132725)
(0.199747 0 -0.0121402)
(0.191295 0 -0.011038)
(0.181116 0 -0.00996481)
(0.169141 0 -0.00891663)
(0.155302 0 -0.00787863)
(0.139545 0 -0.00684606)
(0.121775 0 -0.00581102)
(0.101897 0 -0.00475495)
(0.0798301 0 -0.00366351)
(0.0554759 0 -0.00251988)
(0.0287021 0 -0.0012989)
(0 0 0)
(0.201947 0 -0.0293525)
(0.209498 0 -0.0280122)
(0.214794 0 -0.0265366)
(0.218041 0 -0.0249946)
(0.219401 0 -0.0234213)
(0.218998 0 -0.0218453)
(0.216912 0 -0.0202866)
(0.213185 0 -0.0187551)
(0.207832 0 -0.0172553)
(0.200855 0 -0.0157954)
(0.192224 0 -0.0143732)
(0.181893 0 -0.0129861)
(0.169797 0 -0.0116304)
(0.155861 0 -0.0102884)
(0.140013 0 -0.00895027)
(0.122163 0 -0.00760362)
(0.102215 0 -0.00622805)
(0.0800773 0 -0.00480318)
(0.055648 0 -0.00330564)
(0.0287936 0 -0.00170443)
(0 0 0)
(0.209832 0 -0.0355839)
(0.215933 0 -0.0339365)
(0.220039 0 -0.0321465)
(0.222312 0 -0.0302777)
(0.222887 0 -0.0283827)
(0.221852 0 -0.0264891)
(0.219256 0 -0.0246157)
(0.215121 0 -0.0227803)
(0.209441 0 -0.0209801)
(0.202196 0 -0.0192242)
(0.193347 0 -0.0175145)
(0.182833 0 -0.0158436)
(0.170585 0 -0.0142046)
(0.156524 0 -0.0125808)
(0.140566 0 -0.0109574)
(0.12262 0 -0.00931717)
(0.102585 0 -0.00763789)
(0.0803626 0 -0.00589469)
(0.0558467 0 -0.00405878)
(0.0288986 0 -0.00209328)
(0 0 0)
(0.218565 0 -0.0413153)
(0.22309 0 -0.0393742)
(0.225895 0 -0.037293)
(0.227106 0 -0.0351349)
(0.226815 0 -0.0329504)
(0.225078 0 -0.0307717)
(0.221915 0 -0.0286189)
(0.217322 0 -0.0265089)
(0.211272 0 -0.0244447)
(0.203724 0 -0.022429)
(0.194623 0 -0.0204622)
(0.1839 0 -0.0185351)
(0.171478 0 -0.016637)
(0.15727 0 -0.0147517)
(0.141186 0 -0.0128614)
(0.123128 0 -0.0109456)
(0.102994 0 -0.00897945)
(0.0806756 0 -0.00693418)
(0.0560637 0 -0.00477647)
(0.0290125 0 -0.0024639)
(0 0 0)
(0.227766 0 -0.046521)
(0.230662 0 -0.0443032)
(0.232117 0 -0.041956)
(0.232223 0 -0.0395423)
(0.231031 0 -0.0371069)
(0.228559 0 -0.0346821)
(0.2248 0 -0.0322918)
(0.219719 0 -0.0299468)
(0.213269 0 -0.0276534)
(0.205391 0 -0.0254103)
(0.196015 0 -0.0232141)
(0.185062 0 -0.0210554)
(0.172447 0 -0.0189214)
(0.158076 0 -0.0167954)
(0.141852 0 -0.0146574)
(0.123672 0 -0.0124843)
(0.103428 0 -0.0102486)
(0.081006 0 -0.00791841)
(0.0562913 0 -0.00545633)
(0.0291313 0 -0.002815)
(0 0 0)
(0.237069 0 -0.0511759)
(0.238352 0 -0.048705)
(0.238474 0 -0.0461254)
(0.237484 0 -0.0434931)
(0.235397 0 -0.0408511)
(0.23219 0 -0.0382258)
(0.227824 0 -0.0356386)
(0.222242 0 -0.0330979)
(0.215376 0 -0.0306075)
(0.20715 0 -0.0281656)
(0.197484 0 -0.0257667)
(0.186287 0 -0.0234006)
(0.173465 0 -0.0210536)
(0.15892 0 -0.0187076)
(0.142547 0 -0.0163413)
(0.124236 0 -0.0139294)
(0.103874 0 -0.0114422)
(0.0813436 0 -0.00884474)
(0.0565223 0 -0.00609645)
(0.0292511 0 -0.00314555)
(0 0 0)
(0.246148 0 -0.0552624)
(0.245908 0 -0.0525748)
(0.244774 0 -0.0498068)
(0.242745 0 -0.0470025)
(0.239797 0 -0.0441977)
(0.235873 0 -0.041414)
(0.230908 0 -0.0386669)
(0.224823 0 -0.0359638)
(0.217535 0 -0.0333071)
(0.208955 0 -0.0306942)
(0.19899 0 -0.0281184)
(0.187541 0 -0.0255689)
(0.174506 0 -0.0230309)
(0.159779 0 -0.0204856)
(0.14325 0 -0.0179104)
(0.124803 0 -0.0152783)
(0.104321 0 -0.0125576)
(0.0816788 0 -0.00971116)
(0.0567499 0 -0.00669535)
(0.0293683 0 -0.00345476)
(0 0 0)
(0.254755 0 -0.0587789)
(0.253146 0 -0.0559257)
(0.250869 0 -0.0530174)
(0.247883 0 -0.0500871)
(0.244126 0 -0.0471605)
(0.239519 0 -0.044255)
(0.233974 0 -0.0413823)
(0.227398 0 -0.0385486)
(0.219694 0 -0.0357547)
(0.210761 0 -0.0329976)
(0.200496 0 -0.0302697)
(0.188793 0 -0.0275598)
(0.175542 0 -0.0248523)
(0.160631 0 -0.0221279)
(0.143943 0 -0.0193629)
(0.125359 0 -0.0165292)
(0.104755 0 -0.0135934)
(0.0820023 0 -0.0105163)
(0.0569678 0 -0.00725198)
(0.0294796 0 -0.00374206)
(0 0 0)
(0.262723 0 -0.0617398)
(0.259924 0 -0.0587768)
(0.256636 0 -0.0557764)
(0.252786 0 -0.052762)
(0.248288 0 -0.0497518)
(0.243044 0 -0.0467593)
(0.236953 0 -0.0437934)
(0.229909 0 -0.0408585)
(0.221804 0 -0.037955)
(0.212527 0 -0.0350789)
(0.201969 0 -0.0322225)
(0.190014 0 -0.0293742)
(0.176549 0 -0.026518)
(0.161455 0 -0.0236342)
(0.14461 0 -0.0206983)
(0.12589 0 -0.0176812)
(0.105166 0 -0.0145484)
(0.0823056 0 -0.0112591)
(0.05717 0 -0.00776567)
(0.029582 0 -0.00400709)
(0 0 0)
(0.269937 0 -0.0641667)
(0.266133 0 -0.0611488)
(0.261973 0 -0.058103)
(0.257363 0 -0.0550447)
(0.252202 0 -0.0519869)
(0.24638 0 -0.0489398)
(0.239785 0 -0.0459104)
(0.232303 0 -0.042902)
(0.223819 0 -0.0399142)
(0.214215 0 -0.036943)
(0.203374 0 -0.0339804)
(0.191177 0 -0.0310145)
(0.177504 0 -0.0280295)
(0.162231 0 -0.0250051)
(0.145234 0 -0.0219166)
(0.126382 0 -0.0187342)
(0.105544 0 -0.0154225)
(0.0825807 0 -0.0119395)
(0.0573513 0 -0.00823613)
(0.0296728 0 -0.00424968)
(0 0 0)
(0.276322 0 -0.0660866)
(0.271696 0 -0.0630674)
(0.266805 0 -0.0600205)
(0.261545 0 -0.056956)
(0.255804 0 -0.0538835)
(0.249468 0 -0.0508116)
(0.242419 0 -0.0477459)
(0.234537 0 -0.044689)
(0.225701 0 -0.0416404)
(0.215791 0 -0.038596)
(0.204684 0 -0.0355478)
(0.192257 0 -0.0324841)
(0.178386 0 -0.029389)
(0.162943 0 -0.0262423)
(0.1458 0 -0.023019)
(0.126823 0 -0.0196888)
(0.105877 0 -0.0162159)
(0.0828204 0 -0.0125574)
(0.0575067 0 -0.00866341)
(0.0297494 0 -0.00446985)
(0 0 0)
(0.281838 0 -0.0675347)
(0.276564 0 -0.0645637)
(0.271082 0 -0.0615559)
(0.265279 0 -0.0585189)
(0.259044 0 -0.055461)
(0.252262 0 -0.0523908)
(0.244812 0 -0.0493132)
(0.236571 0 -0.0462305)
(0.227417 0 -0.0431424)
(0.217226 0 -0.040045)
(0.205874 0 -0.0369305)
(0.193233 0 -0.0337874)
(0.179176 0 -0.0306)
(0.163574 0 -0.0273482)
(0.146295 0 -0.024007)
(0.127203 0 -0.0205462)
(0.106159 0 -0.0169294)
(0.0830182 0 -0.0131134)
(0.0576319 0 -0.00904782)
(0.0298097 0 -0.00466777)
(0 0 0)
(0.292172 0 -0.0713759)
(0.2865 0 -0.0685586)
(0.280741 0 -0.0656789)
(0.274797 0 -0.0627464)
(0.268559 0 -0.0597681)
(0.261913 0 -0.0567514)
(0.25475 0 -0.0537064)
(0.246951 0 -0.0506387)
(0.238392 0 -0.0475501)
(0.228953 0 -0.0444415)
(0.218508 0 -0.0413092)
(0.20693 0 -0.0381455)
(0.194092 0 -0.0349394)
(0.179865 0 -0.0316756)
(0.164116 0 -0.0283343)
(0.146712 0 -0.0248908)
(0.127515 0 -0.0213148)
(0.106383 0 -0.0175699)
(0.0831706 0 -0.0136128)
(0.0577247 0 -0.00939305)
(0.029853 0 -0.0048454)
(0 0 0)
(0.296329 0 -0.0718587)
(0.290333 0 -0.0691972)
(0.284235 0 -0.0664464)
(0.277949 0 -0.06362)
(0.271375 0 -0.0607282)
(0.264402 0 -0.057779)
(0.256927 0 -0.0547833)
(0.248832 0 -0.051747)
(0.239995 0 -0.0486714)
(0.230301 0 -0.0455596)
(0.219628 0 -0.0424088)
(0.207846 0 -0.0392113)
(0.194828 0 -0.0359571)
(0.180443 0 -0.0326312)
(0.164559 0 -0.0292144)
(0.147042 0 -0.0256822)
(0.127751 0 -0.0220046)
(0.106544 0 -0.0181456)
(0.0832714 0 -0.0140619)
(0.0577803 0 -0.00970331)
(0.0298759 0 -0.00500476)
(0 0 0)
(0.299469 0 -0.0719466)
(0.293314 0 -0.0694748)
(0.287014 0 -0.0668822)
(0.280498 0 -0.0641869)
(0.273678 0 -0.0614036)
(0.266457 0 -0.0585436)
(0.258734 0 -0.0556173)
(0.250398 0 -0.0526317)
(0.241332 0 -0.0495888)
(0.231425 0 -0.0464925)
(0.220556 0 -0.0433407)
(0.208594 0 -0.0401251)
(0.195415 0 -0.0368372)
(0.18089 0 -0.0334632)
(0.164886 0 -0.0299845)
(0.147269 0 -0.0263776)
(0.127899 0 -0.0226126)
(0.10663 0 -0.0186538)
(0.083313 0 -0.0144586)
(0.0577938 0 -0.00997718)
(0.0298764 0 -0.00514522)
(0 0 0)
(0.289065 0 -0.0670105)
(0.28242 0 -0.064465)
(0.27544 0 -0.0618073)
(0.268041 0 -0.0590518)
(0.26013 0 -0.0562096)
(0.251604 0 -0.0532892)
(0.242355 0 -0.050295)
(0.232275 0 -0.0472301)
(0.221244 0 -0.0440929)
(0.209136 0 -0.0408767)
(0.195828 0 -0.0375722)
(0.181184 0 -0.0341649)
(0.165076 0 -0.0306381)
(0.147377 0 -0.0269708)
(0.127944 0 -0.023133)
(0.10663 0 -0.0190897)
(0.0832869 0 -0.014799)
(0.0577595 0 -0.010212)
(0.0298517 0 -0.00526538)
(0 0 0)
(0.276648 0 -0.0619555)
(0.269139 0 -0.0593166)
(0.261098 0 -0.0565713)
(0.252434 0 -0.0537289)
(0.243044 0 -0.0507952)
(0.232823 0 -0.0477734)
(0.221659 0 -0.0446632)
(0.209435 0 -0.0414599)
(0.196028 0 -0.0381546)
(0.181298 0 -0.0347311)
(0.165112 0 -0.031172)
(0.147351 0 -0.0274588)
(0.127874 0 -0.0235633)
(0.106535 0 -0.0194509)
(0.0831859 0 -0.0150813)
(0.0576726 0 -0.0104065)
(0.0297993 0 -0.00536462)
(0 0 0)
(0.269739 0 -0.059351)
(0.261623 0 -0.0567118)
(0.252867 0 -0.0539575)
(0.243378 0 -0.0510951)
(0.233056 0 -0.048128)
(0.221792 0 -0.0450563)
(0.209475 0 -0.0418762)
(0.195986 0 -0.0385803)
(0.181195 0 -0.0351545)
(0.164967 0 -0.0315809)
(0.147178 0 -0.0278394)
(0.127681 0 -0.0239015)
(0.106335 0 -0.0197354)
(0.0830034 0 -0.0153038)
(0.0575291 0 -0.0105596)
(0.0297173 0 -0.00544242)
(0 0 0)
(0.252893 0 -0.053983)
(0.243344 0 -0.0512001)
(0.232955 0 -0.048297)
(0.221625 0 -0.0452745)
(0.209244 0 -0.0421289)
(0.195698 0 -0.0388531)
(0.180862 0 -0.0354353)
(0.164616 0 -0.0318597)
(0.146828 0 -0.0281058)
(0.127345 0 -0.0241437)
(0.106023 0 -0.0199417)
(0.0827341 0 -0.0154656)
(0.0573264 0 -0.0106708)
(0.0296044 0 -0.00549848)
(0 0 0)
(0.232511 0 -0.0482853)
(0.221145 0 -0.0453204)
(0.208731 0 -0.0422193)
(0.195156 0 -0.0389751)
(0.180303 0 -0.035577)
(0.164051 0 -0.0320098)
(0.146276 0 -0.0282544)
(0.126833 0 -0.0242836)
(0.105578 0 -0.0200658)
(0.0823758 0 -0.0155662)
(0.0570646 0 -0.0107401)
(0.0294599 0 -0.0055327)
(0 0 0)
(0.220346 0 -0.0451982)
(0.207925 0 -0.0421501)
(0.194349 0 -0.0389475)
(0.179505 0 -0.0355802)
(0.163274 0 -0.0320337)
(0.145531 0 -0.028289)
(0.126144 0 -0.0243219)
(0.104981 0 -0.0201038)
(0.0819003 0 -0.0156)
(0.056732 0 -0.0107653)
(0.0292845 0 -0.00554523)
(0 0 0)
(0.193275 0 -0.0387726)
(0.178464 0 -0.0354462)
(0.162279 0 -0.031932)
(0.144597 0 -0.0282119)
(0.125293 0 -0.0242629)
(0.104234 0 -0.0200576)
(0.0812879 0 -0.015564)
(0.056301 0 -0.0107413)
(0.0290673 0 -0.00553413)
(0 0 0)
(0.177178 0 -0.0351772)
(0.161064 0 -0.0317064)
(0.14347 0 -0.0280234)
(0.124274 0 -0.0241067)
(0.103348 0 -0.0199301)
(0.0805581 0 -0.0154624)
(0.0557667 0 -0.0106676)
(0.0287823 0 -0.00549458)
(0 0 0)
(0.142151 0 -0.027725)
(0.12309 0 -0.0238543)
(0.102324 0 -0.0197219)
(0.0797236 0 -0.0152984)
(0.0551547 0 -0.0105494)
(0.0284449 0 -0.00542974)
(0 0 0)
(0.121744 0 -0.0235074)
(0.101166 0 -0.0194346)
(0.0787872 0 -0.0150726)
(0.054479 0 -0.0103898)
(0.0280818 0 -0.00534483)
(0 0 0)
(0.0777533 0 -0.0147861)
(0.0537387 0 -0.0101885)
(0.0276879 0 -0.00523893)
(0 0 0)
(0.0529363 0 -0.00994603)
(0.027263 0 -0.00511196)
(0 0 0)
(0.0268087 0 -0.00496411)
(0 0 0)
(0.296329 0 -0.0718587)
(0.290333 0 -0.0691972)
(0.284235 0 -0.0664464)
(0.277949 0 -0.06362)
(0.271375 0 -0.0607282)
(0.264402 0 -0.057779)
(0.256927 0 -0.0547833)
(0.248832 0 -0.051747)
(0.239995 0 -0.0486714)
(0.230301 0 -0.0455596)
(0.219628 0 -0.0424088)
(0.207846 0 -0.0392113)
(0.194828 0 -0.0359571)
(0.180443 0 -0.0326312)
(0.164559 0 -0.0292144)
(0.147042 0 -0.0256822)
(0.127751 0 -0.0220046)
(0.106544 0 -0.0181456)
(0.0832714 0 -0.0140619)
(0.0577803 0 -0.00970331)
(0.0298759 0 -0.00500476)
(0 0 0)
(0.299469 0 -0.0719466)
(0.293314 0 -0.0694748)
(0.287014 0 -0.0668822)
(0.280498 0 -0.0641869)
(0.273678 0 -0.0614036)
(0.266457 0 -0.0585436)
(0.258734 0 -0.0556173)
(0.250398 0 -0.0526317)
(0.241332 0 -0.0495888)
(0.231425 0 -0.0464925)
(0.220556 0 -0.0433407)
(0.208594 0 -0.0401251)
(0.195415 0 -0.0368372)
(0.18089 0 -0.0334632)
(0.164886 0 -0.0299845)
(0.147269 0 -0.0263776)
(0.127899 0 -0.0226126)
(0.10663 0 -0.0186538)
(0.083313 0 -0.0144586)
(0.0577938 0 -0.00997718)
(0.0298764 0 -0.00514522)
(0 0 0)
(0.289065 0 -0.0670105)
(0.28242 0 -0.064465)
(0.27544 0 -0.0618073)
(0.268041 0 -0.0590518)
(0.26013 0 -0.0562096)
(0.251604 0 -0.0532892)
(0.242355 0 -0.050295)
(0.232275 0 -0.0472301)
(0.221244 0 -0.0440929)
(0.209136 0 -0.0408767)
(0.195828 0 -0.0375722)
(0.181184 0 -0.0341649)
(0.165076 0 -0.0306381)
(0.147377 0 -0.0269708)
(0.127944 0 -0.023133)
(0.10663 0 -0.0190897)
(0.0832869 0 -0.014799)
(0.0577595 0 -0.010212)
(0.0298517 0 -0.00526538)
(0 0 0)
(0.276648 0 -0.0619555)
(0.269139 0 -0.0593166)
(0.261098 0 -0.0565713)
(0.252434 0 -0.0537289)
(0.243044 0 -0.0507952)
(0.232823 0 -0.0477734)
(0.221659 0 -0.0446632)
(0.209435 0 -0.0414599)
(0.196028 0 -0.0381546)
(0.181298 0 -0.0347311)
(0.165112 0 -0.031172)
(0.147351 0 -0.0274588)
(0.127874 0 -0.0235633)
(0.106535 0 -0.0194509)
(0.0831859 0 -0.0150813)
(0.0576726 0 -0.0104065)
(0.0297993 0 -0.00536462)
(0 0 0)
(0.269739 0 -0.059351)
(0.261623 0 -0.0567118)
(0.252867 0 -0.0539575)
(0.243378 0 -0.0510951)
(0.233056 0 -0.048128)
(0.221792 0 -0.0450563)
(0.209475 0 -0.0418762)
(0.195986 0 -0.0385803)
(0.181195 0 -0.0351545)
(0.164967 0 -0.0315809)
(0.147178 0 -0.0278394)
(0.127681 0 -0.0239015)
(0.106335 0 -0.0197354)
(0.0830034 0 -0.0153038)
(0.0575291 0 -0.0105596)
(0.0297173 0 -0.00544242)
(0 0 0)
(0.252893 0 -0.053983)
(0.243344 0 -0.0512001)
(0.232955 0 -0.048297)
(0.221625 0 -0.0452745)
(0.209244 0 -0.0421289)
(0.195698 0 -0.0388531)
(0.180862 0 -0.0354353)
(0.164616 0 -0.0318597)
(0.146828 0 -0.0281058)
(0.127345 0 -0.0241437)
(0.106023 0 -0.0199417)
(0.0827341 0 -0.0154656)
(0.0573264 0 -0.0106708)
(0.0296044 0 -0.00549848)
(0 0 0)
(0.232511 0 -0.0482853)
(0.221145 0 -0.0453204)
(0.208731 0 -0.0422193)
(0.195156 0 -0.0389751)
(0.180303 0 -0.035577)
(0.164051 0 -0.0320098)
(0.146276 0 -0.0282544)
(0.126833 0 -0.0242836)
(0.105578 0 -0.0200658)
(0.0823758 0 -0.0155662)
(0.0570646 0 -0.0107401)
(0.0294599 0 -0.0055327)
(0 0 0)
(0.220346 0 -0.0451982)
(0.207925 0 -0.0421501)
(0.194349 0 -0.0389475)
(0.179505 0 -0.0355802)
(0.163274 0 -0.0320337)
(0.145531 0 -0.028289)
(0.126144 0 -0.0243219)
(0.104981 0 -0.0201038)
(0.0819003 0 -0.0156)
(0.056732 0 -0.0107653)
(0.0292845 0 -0.00554523)
(0 0 0)
(0.193275 0 -0.0387726)
(0.178464 0 -0.0354462)
(0.162279 0 -0.031932)
(0.144597 0 -0.0282119)
(0.125293 0 -0.0242629)
(0.104234 0 -0.0200576)
(0.0812879 0 -0.015564)
(0.056301 0 -0.0107413)
(0.0290673 0 -0.00553413)
(0 0 0)
(0.177178 0 -0.0351772)
(0.161064 0 -0.0317064)
(0.14347 0 -0.0280234)
(0.124274 0 -0.0241067)
(0.103348 0 -0.0199301)
(0.0805581 0 -0.0154624)
(0.0557667 0 -0.0106676)
(0.0287823 0 -0.00549458)
(0 0 0)
(0.142151 0 -0.027725)
(0.12309 0 -0.0238543)
(0.102324 0 -0.0197219)
(0.0797236 0 -0.0152984)
(0.0551547 0 -0.0105494)
(0.0284449 0 -0.00542974)
(0 0 0)
(0.121744 0 -0.0235074)
(0.101166 0 -0.0194346)
(0.0787872 0 -0.0150726)
(0.054479 0 -0.0103898)
(0.0280818 0 -0.00534483)
(0 0 0)
(0.0777533 0 -0.0147861)
(0.0537387 0 -0.0101885)
(0.0276879 0 -0.00523893)
(0 0 0)
(0.0529363 0 -0.00994603)
(0.027263 0 -0.00511196)
(0 0 0)
(0.0268087 0 -0.00496411)
(0 0 0)
)
;

boundaryField
{
    inlet
    {
        type            fixedValue;
        value           nonuniform 0();
    }
    outlet
    {
        type            fixedValue;
        value           uniform (0 0 0);
    }
    flap
    {
        type            fixedValue;
        value           nonuniform 0();
    }
    upperWall
    {
        type            slip;
    }
    lowerWall
    {
        type            slip;
    }
    frontAndBack
    {
        type            empty;
    }
    procBoundary5to2
    {
        type            processor;
    }
    procBoundary5to4
    {
        type            processor;
    }
}


// ************************************************************************* //
