/*--------------------------------*- C++ -*----------------------------------*\
| =========                 |                                                 |
| \\      /  F ield         | OpenFOAM: The Open Source CFD Toolbox           |
|  \\    /   O peration     | Version:  dev                                   |
|   \\  /    A nd           | Web:      www.OpenFOAM.org                      |
|    \\/     M anipulation  |                                                 |
\*---------------------------------------------------------------------------*/
FoamFile
{
    version     2.0;
    format      ascii;
    class       volVectorField;
    location    "1";
    object      U;
}
// * * * * * * * * * * * * * * * * * * * * * * * * * * * * * * * * * * * * * //

dimensions      [0 1 -1 0 0 0 0];

internalField   nonuniform List<vector> 
465
(
(-0.591755 -8.77821e-20 0.133649)
(-1.02911 -8.17942e-20 0.134895)
(-1.47007 7.46957e-20 0.131116)
(-1.90277 -1.45381e-19 0.122863)
(-2.31632 0 0.110627)
(-2.70025 0 0.0948118)
(-3.04454 0 0.07587)
(-3.34017 1.18197e-20 0.0540866)
(-3.57796 -1.1648e-20 0.0296891)
(-3.74873 3.95285e-20 0.00293739)
(-3.84386 0 -0.0264492)
(-3.85503 3.73984e-21 -0.0599251)
(-3.77799 -3.69576e-21 -0.100391)
(-3.5878 2.48138e-20 -0.150442)
(-3.27356 0 -0.210347)
(-2.81196 0 -0.283018)
(-2.15764 1.01035e-21 -0.378893)
(-1.28173 1.33575e-20 -0.525829)
(-0.281429 1.03035e-20 -0.766692)
(1.45549 -4.18177e-21 -1.07938)
(-2.06672 -1.68485e-19 0.403956)
(-2.55236 7.99624e-20 0.420178)
(-3.03406 0 0.42446)
(-3.50105 -6.53956e-20 0.417369)
(-3.94311 1.33538e-19 0.399351)
(-4.35084 -1.17834e-19 0.370838)
(-4.71483 0 0.332509)
(-5.02625 5.02056e-20 0.284677)
(-5.2766 8.67725e-20 0.227601)
(-5.45698 -9.78918e-20 0.162019)
(-5.55902 8.66238e-20 0.0880486)
(-5.57583 -6.08215e-20 0.00365795)
(-5.50624 0 -0.0954714)
(-5.33949 -1.86118e-20 -0.207748)
(-5.07008 -5.66308e-21 -0.331349)
(-4.68751 4.13974e-20 -0.469109)
(-4.17704 -2.50637e-21 -0.633553)
(-3.54445 -1.72853e-20 -0.850518)
(-2.87589 -2.65215e-20 -1.12162)
(-2.39288 -3.4624e-21 -1.33041)
(-3.06362 -1.65575e-19 0.691082)
(-3.56449 0 0.706214)
(-4.05766 2.86403e-19 0.701628)
(-4.53425 -8.22159e-19 0.678139)
(-4.98536 9.66362e-21 0.636546)
(-5.40297 1.20029e-19 0.577584)
(-5.7786 3.14341e-19 0.502443)
(-6.10382 -1.93887e-19 0.412167)
(-6.37143 -8.40443e-20 0.307654)
(-6.57379 7.48116e-20 0.190634)
(-6.70311 -6.7547e-20 0.0629138)
(-6.75374 6.00543e-20 -0.0756999)
(-6.72314 0 -0.227339)
(-6.61228 -4.54742e-20 -0.394081)
(-6.41745 0 -0.572838)
(-6.13752 -4.46344e-20 -0.763121)
(-5.7743 8.20492e-21 -0.970378)
(-5.34792 2.6233e-21 -1.20439)
(-4.93301 1.53837e-20 -1.45408)
(-4.68325 7.19237e-21 -1.64796)
(-3.74108 1.63703e-18 1.00369)
(-4.24694 -3.2527e-19 1.01945)
(-4.74416 0 1.01039)
(-5.22546 5.31055e-19 0.977352)
(-5.68295 -8.21909e-21 0.921223)
(-6.10914 -1.13749e-19 0.842739)
(-6.49686 -1.0313e-19 0.74298)
(-6.83768 1.82978e-19 0.623099)
(-7.12433 3.24563e-19 0.483873)
(-7.35058 -3.30815e-19 0.326485)
(-7.50958 6.50706e-20 0.15271)
(-7.59537 -1.42896e-19 -0.0365896)
(-7.60466 -9.83744e-20 -0.241805)
(-7.54626 1.30642e-19 -0.461431)
(-7.41866 0 -0.691858)
(-7.22509 -7.1026e-20 -0.929697)
(-6.97326 6.03609e-20 -1.17422)
(-6.68468 4.14514e-20 -1.42454)
(-6.4163 0 -1.66579)
(-6.26788 -1.04264e-20 -1.84524)
(-4.1773 0 1.32377)
(-4.68233 -5.98181e-19 1.3364)
(-5.17904 1.43168e-18 1.31945)
(-5.66098 -5.4861e-19 1.27337)
(-6.12152 -2.42486e-19 1.19897)
(-6.55326 2.12676e-19 1.09695)
(-6.94978 -1.06789e-19 0.968293)
(-7.30345 -8.68645e-20 0.814499)
(-7.60641 -1.6173e-19 0.637233)
(-7.85324 1.43476e-19 0.438376)
(-8.03933 0 0.220612)
(-8.15975 4.87316e-21 -0.0129743)
(-8.21112 5.131e-21 -0.259816)
(-8.20154 -1.45404e-19 -0.518511)
(-8.13328 -8.71844e-20 -0.785909)
(-8.01196 6.97429e-20 -1.05591)
(-7.84724 -5.35836e-20 -1.32277)
(-7.65915 -8.49929e-21 -1.57969)
(-7.48999 -1.44595e-21 -1.81133)
(-7.40209 9.85883e-21 -1.97458)
(-4.41215 1.32285e-18 1.65313)
(-4.91143 -1.19987e-18 1.66145)
(-5.40363 2.99367e-19 1.63663)
(-5.88284 0 1.5787)
(-6.3437 4.78649e-19 1.48827)
(-6.77909 -7.56253e-21 1.36594)
(-7.18266 -7.81523e-19 1.21258)
(-7.54826 1.83717e-19 1.02962)
(-7.86822 0 0.819184)
(-8.13669 0 0.583712)
(-8.35001 0 0.326239)
(-8.50438 2.06463e-19 0.0509067)
(-8.59655 6.09021e-21 -0.237403)
(-8.6311 7.93574e-20 -0.534274)
(-8.61435 6.77589e-20 -0.835708)
(-8.55307 -6.16497e-21 -1.13361)
(-8.45757 6.08295e-21 -1.41871)
(-8.34597 -3.57535e-20 -1.68092)
(-8.24909 -3.8591e-20 -1.90532)
(-8.20237 0 -2.05539)
(-4.46967 3.22038e-19 1.98977)
(-4.95931 3.03026e-19 1.99294)
(-5.44411 0 1.96008)
(-5.91864 4.96633e-19 1.89073)
(-6.37799 -9.59049e-19 1.785)
(-6.81609 2.1428e-19 1.64336)
(-7.2265 3.79808e-19 1.46664)
(-7.60367 -1.59481e-19 1.25625)
(-7.94086 1.22208e-20 1.01448)
(-8.23174 1.87087e-19 0.744551)
(-8.47203 -6.01803e-20 0.450295)
(-8.6585 -2.92572e-20 0.136895)
(-8.78902 1.08335e-19 -0.188872)
(-8.86394 0 -0.51986)
(-8.89312 0 -0.850705)
(-8.88305 4.44169e-20 -1.17218)
(-8.84425 0 -1.47245)
(-8.79308 1.42086e-21 -1.73942)
(-8.75139 3.77559e-20 -1.95852)
(-8.73475 -7.70576e-22 -2.09844)
(-4.3662 -3.23016e-19 2.33154)
(-4.84334 0 2.32958)
(-5.31845 0 2.28912)
(-5.78703 4.88522e-19 2.20935)
(-6.24406 -2.48319e-19 2.08986)
(-6.68455 1.97178e-19 1.93092)
(-7.10224 -9.19137e-19 1.73322)
(-7.49118 3.31736e-19 1.4981)
(-7.84523 1.44913e-19 1.22793)
(-8.15811 -1.83169e-19 0.926327)
(-8.42483 1.58033e-19 0.598005)
(-8.64194 -9.2933e-20 0.249259)
(-8.80789 -7.13786e-20 -0.111566)
(-8.92233 -1.43033e-20 -0.475217)
(-8.99254 1.08813e-19 -0.833146)
(-9.02696 -1.19584e-19 -1.17602)
(-9.03563 0 -1.49022)
(-9.03356 -4.04979e-20 -1.76235)
(-9.03558 0 -1.97805)
(-9.04199 0 -2.11032)
(-4.11359 1.33573e-18 2.67663)
(-4.57622 1.21006e-18 2.67035)
(-5.04003 5.29744e-19 2.62344)
(-5.5016 -5.20622e-19 2.5348)
(-5.95596 0 2.40349)
(-6.39835 -3.98445e-19 2.22939)
(-6.82299 7.13578e-19 2.01296)
(-7.22366 -1.59166e-19 1.75549)
(-7.59426 6.28717e-20 1.45942)
(-7.92869 1.60567e-19 1.12867)
(-8.2217 -1.01209e-19 0.768735)
(-8.4694 -3.73412e-20 0.387011)
(-8.66983 9.30135e-20 -0.00686927)
(-8.82288 1.51788e-20 -0.401711)
(-8.92999 -9.48367e-20 -0.785655)
(-9.00352 7.52676e-20 -1.14881)
(-9.0526 -2.73254e-21 -1.47668)
(-9.09132 4.32002e-20 -1.75482)
(-9.12896 -1.62524e-20 -1.96886)
(-9.15378 -2.17821e-22 -2.09547)
(-3.72069 -1.28767e-18 3.02324)
(-4.16701 -1.17237e-18 3.01401)
(-4.61843 2.31398e-20 2.96242)
(-5.07188 -4.72268e-19 2.8668)
(-5.52289 2.62373e-20 2.72582)
(-5.96663 3.9862e-19 2.53891)
(-6.3977 -5.1288e-19 2.30623)
(-6.81004 2.05124e-20 2.02896)
(-7.19753 1.37599e-19 1.70965)
(-7.55407 -2.22713e-19 1.35249)
(-7.874 1.29217e-19 0.963564)
(-8.15261 1.77807e-19 0.551)
(-8.38706 0 0.125276)
(-8.57716 -8.49465e-20 -0.300764)
(-8.71802 0 -0.71034)
(-8.8264 0 -1.09326)
(-8.91059 0 -1.43525)
(-8.984 -6.0619e-22 -1.72053)
(-9.05152 2.68885e-20 -1.93457)
(-9.09162 0 -2.05716)
(-3.19506 5.89359e-19 3.36924)
(-3.62322 -2.20833e-20 3.35898)
(-4.06083 5.42927e-19 3.30487)
(-4.50481 0 3.20459)
(-4.95119 4.38981e-19 3.05642)
(-5.3954 0 2.85943)
(-5.8323 -3.25895e-19 2.61341)
(-6.2561 2.77559e-19 2.31932)
(-6.66072 -2.32189e-19 1.97968)
(-7.0398 0 1.59883)
(-7.38696 -1.70127e-19 1.18309)
(-7.69625 -1.37517e-19 0.741193)
(-7.96321 -1.11062e-20 0.284849)
(-8.18596 2.82702e-20 -0.170707)
(-8.36579 -4.83307e-20 -0.607821)
(-8.50558 -3.50584e-20 -1.01128)
(-8.62115 3.43474e-21 -1.36842)
(-8.72484 -1.33229e-21 -1.66217)
(-8.81826 -1.33032e-20 -1.87771)
(-8.8716 1.98005e-22 -1.99765)
(-2.54397 -6.46448e-19 3.71178)
(-2.95195 -2.44003e-20 3.70308)
(-3.37368 -1.08727e-18 3.64903)
(-3.80616 2.2831e-19 3.54683)
(-4.24584 -2.24116e-19 3.3944)
(-4.68863 1.74335e-19 3.19046)
(-5.12982 3.0396e-19 2.93441)
(-5.56397 -3.00284e-19 2.62686)
(-5.985 3.2646e-19 2.27011)
(-6.38625 4.10337e-20 1.86837)
(-6.76059 -4.06417e-20 1.42807)
(-7.10106 0 0.958522)
(-7.40218 0 0.472789)
(-7.66129 6.8088e-20 -0.0122891)
(-7.87948 4.86124e-20 -0.477951)
(-8.0484 1.44594e-20 -0.904245)
(-8.19274 6.73135e-22 -1.27789)
(-8.32379 -6.63944e-22 -1.58157)
(-8.44066 3.48054e-21 -1.79996)
(-8.50613 -1.93942e-22 -1.91831)
(-1.77554 -6.64534e-19 4.04733)
(-2.16083 5.65516e-19 4.04325)
(-2.56392 -1.87621e-20 3.99218)
(-2.98183 0 3.89105)
(-3.41145 0 3.73764)
(-3.84941 0 3.53036)
(-4.29171 0 3.2681)
(-4.73339 0 2.95099)
(-5.16867 -2.17679e-19 2.58091)
(-5.59098 -1.57781e-19 2.16175)
(-5.99291 0 1.69986)
(-6.36669 9.39605e-20 1.20514)
(-6.70528 -6.54605e-20 0.691514)
(-7.00367 -3.3122e-20 0.176074)
(-7.261 -1.6239e-20 -0.32165)
(-7.45846 1.87832e-20 -0.772936)
(-7.63087 2.84451e-21 -1.16436)
(-7.78811 4.21054e-24 -1.4798)
(-7.92755 0 -1.70232)
(-8.00497 0 -1.81981)
(-0.899751 -6.66858e-19 4.37183)
(-1.25942 0 4.37576)
(-1.64043 -5.24119e-19 4.33073)
(-2.03966 -2.215e-19 4.23375)
(-2.45437 2.17234e-19 4.08273)
(-2.88225 3.46879e-19 3.87611)
(-3.3203 0 3.61199)
(-3.76422 0 3.2899)
(-4.20895 -4.34231e-20 2.91117)
(-4.64873 9.18394e-20 2.47927)
(-5.0765 -4.4004e-20 1.99993)
(-5.48377 -7.28722e-20 1.48288)
(-5.86121 5.5861e-20 0.942086)
(-6.19939 1.72854e-20 0.395599)
(-6.49059 1.61643e-20 -0.13306)
(-6.73686 1.73147e-22 -0.614686)
(-6.93784 -2.55121e-21 -1.02723)
(-7.12253 -3.15042e-22 -1.35702)
(-7.28555 0 -1.58501)
(-7.37584 0 -1.70186)
(0.0707958 0 4.68157)
(-0.260179 -5.73436e-19 4.69523)
(-0.615419 2.80793e-19 4.65804)
(-0.991131 0 4.56739)
(-1.3848 -3.98985e-19 4.42229)
(-1.79567 -1.02226e-20 4.22053)
(-2.22206 -6.53902e-20 3.95899)
(-2.66027 6.44263e-20 3.63667)
(-3.10607 0 3.25458)
(-3.55528 1.57512e-19 2.81606)
(-4.00208 -2.38014e-20 2.32541)
(-4.43808 -3.54359e-20 1.7914)
(-4.85285 -4.31474e-21 1.22751)
(-5.23499 1.5355e-20 0.65321)
(-5.57644 -1.43643e-20 0.0937968)
(-5.88032 -2.33141e-20 -0.423227)
(-6.11322 -5.69181e-22 -0.863607)
(-6.32883 0 -1.21111)
(-6.51924 0 -1.44658)
(-6.62503 0 -1.56265)
(1.4377 -3.35822e-19 4.89818)
(1.16941 3.07291e-19 4.97754)
(0.874914 2.80691e-19 5.00625)
(0.554288 5.04909e-19 4.98308)
(0.20754 0 4.90385)
(-0.164962 5.9037e-19 4.76451)
(-0.550428 -1.54375e-19 4.56932)
(-0.95538 0 4.31334)
(-1.37693 0 3.99552)
(-1.81167 -3.5293e-20 3.61743)
(-2.25876 3.48654e-20 3.18023)
(-2.71639 6.1973e-20 2.68619)
(-3.17883 5.62344e-20 2.14271)
(-3.6368 5.3723e-21 1.56228)
(-4.07862 -4.42459e-22 0.963852)
(-4.49251 1.4654e-20 0.368935)
(-4.86431 2.25133e-20 -0.192079)
(-5.1484 0 -0.667647)
(-5.40349 0 -1.03828)
(-5.63056 0 -1.28428)
(-5.75849 0 -1.39875)
(2.57137 -3.10801e-19 5.14494)
(2.3482 1.00698e-20 5.24674)
(2.09559 0 5.29341)
(1.81597 -2.26168e-19 5.28583)
(1.51206 2.22914e-19 5.22207)
(1.18213 -4.52505e-19 5.0973)
(0.833827 8.3672e-20 4.91412)
(0.465235 2.50552e-19 4.67188)
(0.0728769 0 4.36425)
(-0.344464 1.45812e-19 3.98724)
(-0.773364 1.03649e-20 3.55539)
(-1.22126 -7.86412e-20 3.06593)
(-1.68652 0 2.52405)
(-2.1642 -1.31799e-20 1.94)
(-2.64884 0 1.32667)
(-3.12457 0 0.707648)
(-3.56282 0 0.116569)
(-3.97017 0 -0.414643)
(-4.27798 0 -0.821989)
(-4.56357 -5.0946e-20 -1.0826)
(-4.7324 0 -1.19584)
(3.37802 -2.65344e-19 5.55011)
(3.14527 2.26151e-19 5.5605)
(2.8889 1.05098e-19 5.51277)
(2.60816 -2.49821e-19 5.40326)
(2.30631 6.61319e-20 5.23295)
(1.9843 -7.12098e-20 5.00372)
(1.64239 0 4.71384)
(1.27668 -1.40636e-19 4.35867)
(0.890965 -8.80587e-20 3.94388)
(0.484633 0 3.47383)
(0.0565773 -1.14468e-20 2.95094)
(-0.399889 -9.78426e-21 2.37283)
(-0.863182 0 1.77167)
(-1.34507 5.03836e-20 1.14677)
(-1.90121 7.6616e-22 0.495275)
(-2.48377 -5.10324e-20 -0.105931)
(-2.90343 5.17484e-22 -0.54179)
(-3.29074 4.99482e-20 -0.825567)
(-3.55121 0 -0.94503)
(4.30919 -2.90613e-19 5.76824)
(4.0822 2.40314e-19 5.67561)
(3.83382 3.11389e-20 5.52055)
(3.56522 -2.79935e-19 5.30487)
(3.27774 2.45562e-20 5.0287)
(2.96946 -1.30468e-19 4.6899)
(2.63991 8.86874e-20 4.29106)
(2.28984 1.72908e-21 3.83723)
(1.92109 1.11352e-20 3.33503)
(1.53182 -5.09009e-21 2.7902)
(1.12606 0 2.22055)
(0.705534 -4.99952e-20 1.65031)
(0.268084 0 1.10221)
(-0.231741 1.06131e-19 0.535704)
(-1.11137 -1.14041e-21 -0.115508)
(-1.71626 1.12456e-21 -0.502643)
(-2.18405 -2.1685e-20 -0.632597)
(5.5725 0 5.90564)
(5.3811 0 5.76775)
(5.17007 2.10514e-19 5.56772)
(4.94008 0 5.30635)
(4.69052 1.20153e-19 4.98338)
(4.42014 -1.50398e-21 4.60077)
(4.12868 -1.32352e-21 4.16271)
(3.81638 1.31928e-21 3.67501)
(3.48181 2.09731e-20 3.14553)
(3.12328 0 2.59096)
(2.73945 0 2.03586)
(2.33082 -5.75126e-20 1.5114)
(1.89053 -4.99554e-20 1.04674)
(1.43974 -8.03773e-22 0.643476)
(0.747807 5.69616e-20 0.212726)
(-0.285372 2.11848e-20 -0.126932)
(6.76415 -2.0182e-19 5.78504)
(6.59231 0 5.54064)
(6.40107 -1.26527e-19 5.23535)
(6.1887 1.85063e-20 4.8712)
(5.95354 3.22135e-20 4.45198)
(5.69371 0 3.98363)
(5.40679 0 3.47569)
(5.08921 -5.55314e-21 2.94438)
(4.73755 5.55121e-21 2.41247)
(4.35212 1.13766e-19 1.90837)
(3.93538 -3.67905e-21 1.45689)
(3.49606 -5.15073e-21 1.07515)
(3.041 -5.40882e-20 0.783523)
(2.4234 0 0.576537)
(8.0693 1.26559e-19 5.44197)
(7.91169 7.70511e-20 5.09887)
(7.72972 -8.6708e-20 4.70251)
(7.51965 1.98084e-20 4.25921)
(7.27788 -7.59315e-21 3.77945)
(7.00075 -7.656e-21 3.27919)
(6.68487 4.48784e-20 2.77923)
(6.33058 -4.92722e-21 2.30376)
(5.94289 3.83348e-20 1.87487)
(5.53065 3.25882e-21 1.51127)
(5.11096 1.43342e-21 1.22468)
(4.56689 5.87981e-22 1.01847)
(9.56849 -5.86034e-20 5.28341)
(9.43428 7.55861e-20 4.91254)
(9.27088 9.88108e-21 4.49822)
(9.07326 8.74417e-21 4.05073)
(8.83766 1.88747e-20 3.58513)
(8.56144 -2.89841e-20 3.12014)
(8.24537 -8.84547e-20 2.67679)
(7.89507 -4.16259e-20 2.27507)
(7.51851 3.54424e-21 1.93101)
(7.13167 3.94907e-20 1.65535)
(6.63197 -2.00642e-20 1.455)
(10.9391 -1.70851e-20 4.70044)
(10.7828 -1.41496e-20 4.28698)
(10.5888 -2.46517e-20 3.85775)
(10.3544 -1.26971e-20 3.42909)
(10.0804 2.75945e-20 3.01904)
(9.77243 0 2.64557)
(9.43822 0 2.32335)
(9.09155 -4.20992e-20 2.06256)
(8.63952 2.01616e-20 1.86856)
(12.4115 8.9169e-21 4.48933)
(12.2563 7.47369e-21 4.09573)
(12.0637 1.88141e-20 3.70319)
(11.8335 0 3.32678)
(11.5701 -5.495e-21 2.98176)
(11.2811 7.79397e-21 2.68177)
(10.9792 2.48907e-20 2.43692)
(10.5819 7.60433e-22 2.25148)
(13.6963 0 3.94141)
(13.5101 3.02751e-21 3.59734)
(13.293 5.28108e-22 3.28054)
(13.0506 -3.53952e-21 3.00275)
(12.795 -2.61625e-20 2.77388)
(12.4567 -5.77647e-22 2.59848)
(15.1086 2.50817e-21 3.82856)
(14.939 5.06522e-22 3.53862)
(14.7456 0 3.28299)
(14.5381 -9.77671e-21 3.07035)
(14.2607 8.44833e-21 2.90557)
(16.3438 6.26013e-21 3.51718)
(16.188 9.72731e-21 3.3213)
(15.9746 -8.4461e-21 3.16796)
(17.6985 -9.09415e-21 3.51912)
(17.5541 3.57189e-22 3.37823)
(18.9408 -3.43449e-22 3.52813)
)
;

boundaryField
{
    inlet
    {
        type            fixedValue;
        value           nonuniform 0();
    }
    outlet
    {
        type            zeroGradient;
    }
    flap
    {
        type            movingWallVelocity;
        value           nonuniform 0();
    }
    upperWall
    {
        type            noSlip;
    }
    lowerWall
    {
        type            noSlip;
    }
    frontAndBack
    {
        type            empty;
    }
    procBoundary5to2
    {
        type            processor;
        value           nonuniform List<vector> 
34
(
(3.76219 -2.97132e-19 5.35372)
(3.5841 2.16089e-20 5.48164)
(3.5841 2.16089e-20 5.48164)
(4.69727 0 5.76799)
(4.51398 2.16823e-19 5.79833)
(4.51398 2.16823e-19 5.79833)
(5.74474 -2.05199e-19 5.98054)
(5.74474 -2.05199e-19 5.98054)
(7.05604 0 6.08926)
(6.91809 0 5.96801)
(6.91809 0 5.96801)
(8.32523 1.94714e-19 5.95509)
(8.20595 0 5.72798)
(8.20595 0 5.72798)
(9.67898 0 5.60453)
(9.67898 0 5.60453)
(11.158 -8.78259e-20 5.43047)
(11.0621 4.74937e-20 5.08472)
(11.0621 4.74937e-20 5.08472)
(12.532 0 4.87006)
(12.532 0 4.87006)
(13.9688 2.40896e-20 4.66123)
(13.8491 2.55802e-20 4.30025)
(13.8491 2.55802e-20 4.30025)
(15.2509 1.04633e-20 4.14306)
(15.2509 1.04633e-20 4.14306)
(16.6055 8.10473e-21 4.01641)
(16.4854 9.12723e-21 3.75137)
(16.4854 9.12723e-21 3.75137)
(17.7993 6.01676e-21 3.69813)
(17.7993 6.01676e-21 3.69813)
(19.0122 -2.70715e-20 3.65586)
(19.0122 -2.70715e-20 3.65586)
(20.0825 9.21193e-22 3.61124)
)
;
    }
    procBoundary5to4
    {
        type            processor;
        value           nonuniform List<vector> 
18
(
(-0.172213 -8.79862e-20 0.12722)
(-1.58885 0 0.375635)
(-2.56472 0 0.655749)
(-3.23452 1.0275e-18 0.962501)
(-3.67051 6.83059e-19 1.28126)
(-3.91092 -5.00091e-22 1.61159)
(-3.97899 -2.07611e-18 1.95086)
(-3.89001 3.43212e-19 2.29593)
(-3.65496 1.68772e-18 2.64413)
(-3.28217 1.06648e-18 2.99278)
(-2.77877 6.73198e-20 3.33881)
(-2.15206 -1.42903e-18 3.67867)
(-1.41041 -6.8154e-19 4.00833)
(-0.564045 -1.40807e-18 4.32382)
(0.380976 3.74033e-19 4.61991)
(0.380976 3.74033e-19 4.61991)
(1.66999 -7.42049e-19 4.77095)
(2.75885 -1.05247e-18 4.98921)
)
;
    }
}


// ************************************************************************* //
