/*--------------------------------*- C++ -*----------------------------------*\
| =========                 |                                                 |
| \\      /  F ield         | OpenFOAM: The Open Source CFD Toolbox           |
|  \\    /   O peration     | Version:  dev                                   |
|   \\  /    A nd           | Web:      www.OpenFOAM.org                      |
|    \\/     M anipulation  |                                                 |
\*---------------------------------------------------------------------------*/
FoamFile
{
    version     2.0;
    format      ascii;
    class       surfaceVectorField;
    location    "1";
    object      Uf;
}
// * * * * * * * * * * * * * * * * * * * * * * * * * * * * * * * * * * * * * //

dimensions      [0 1 -1 0 0 0 0];

internalField   nonuniform List<vector> 
879
(
(-0.765915 1.11304e-19 0.12797)
(-1.28728 -1.03774e-19 0.244826)
(-1.18282 -8.05415e-22 0.126409)
(-1.72216 1.07738e-19 0.254013)
(-1.59843 0 0.120596)
(-2.15777 0 0.255606)
(-2.00265 0 0.11113)
(-2.58424 0 0.250289)
(-2.38638 -1.27472e-20 0.098512)
(-2.99239 -5.47168e-20 0.238587)
(-2.74068 2.82395e-23 0.083033)
(-3.3735 1.17949e-19 0.220781)
(-3.05674 7.48073e-21 0.0648218)
(-3.71877 5.7616e-20 0.196926)
(-3.32561 2.42441e-24 0.0439725)
(-4.01952 -6.97464e-20 0.167069)
(-3.53826 5.13435e-21 0.0205652)
(-4.26707 -1.46471e-20 0.13142)
(-3.68604 -1.88655e-20 -0.00541309)
(-4.45231 -5.14431e-20 0.0902496)
(-3.76061 -1.54793e-20 -0.0345414)
(-4.56597 -2.65021e-20 0.043919)
(-3.75257 3.61725e-21 -0.0688734)
(-4.59952 2.29347e-20 -0.00816644)
(-3.64638 9.34351e-21 -0.111473)
(-4.54873 -2.32687e-20 -0.0698098)
(-3.42467 2.3637e-21 -0.163964)
(-4.39682 -1.83383e-21 -0.142034)
(-3.07393 -8.13028e-21 -0.227649)
(-4.13421 5.55734e-21 -0.222462)
(-2.58051 -8.0445e-21 -0.308516)
(-3.74247 -3.27419e-21 -0.311189)
(-1.91988 -9.64866e-22 -0.42445)
(-3.19076 3.24559e-21 -0.414772)
(-1.02111 5.21028e-21 -0.609067)
(-2.46613 -4.96978e-21 -0.562481)
(0.27827 3.47288e-22 -0.876145)
(-1.66226 8.2004e-21 -0.812372)
(-0.584095 3.35349e-21 -1.00194)
(-2.23683 -1.07067e-19 0.391166)
(-2.49444 -1.45711e-19 0.515071)
(-2.6886 1.08143e-19 0.40001)
(-2.95315 3.96822e-20 0.528144)
(-3.13371 0 0.398854)
(-3.40826 -1.2573e-19 0.527447)
(-3.56327 -5.46813e-20 0.388295)
(-3.85169 1.2433e-19 0.513736)
(-3.96859 7.64424e-20 0.368692)
(-4.27507 -1.08567e-19 0.487597)
(-4.3408 1.7591e-19 0.340129)
(-4.67018 1.33799e-19 0.449394)
(-4.67131 -1.94816e-20 0.302597)
(-5.02868 8.97806e-20 0.399264)
(-4.95158 -8.46236e-20 0.256162)
(-5.34237 -6.74723e-20 0.337439)
(-5.17285 -7.14408e-20 0.200949)
(-5.60298 3.56966e-20 0.264291)
(-5.32688 -5.93684e-20 0.137038)
(-5.80189 -2.0402e-21 0.180362)
(-5.40571 1.15456e-20 0.0636058)
(-5.9311 2.06117e-20 0.0863457)
(-5.40117 -3.7206e-21 -0.0223126)
(-5.98311 -5.5111e-21 -0.0183948)
(-5.30651 -3.38267e-20 -0.122405)
(-5.95206 2.08652e-20 -0.136767)
(-5.11504 8.76509e-22 -0.235278)
(-5.83602 -1.04853e-20 -0.269663)
(-4.82004 9.5172e-21 -0.361032)
(-5.62863 7.34111e-21 -0.414849)
(-4.41592 5.02302e-21 -0.506123)
(-5.32237 1.92425e-21 -0.571835)
(-3.89723 1.21047e-21 -0.688436)
(-4.90942 7.22087e-21 -0.747067)
(-3.27631 1.72432e-21 -0.923569)
(-4.40209 -1.50926e-20 -0.959126)
(-2.66169 1.12762e-20 -1.15637)
(-3.87851 -1.3532e-21 -1.20677)
(-3.52436 2.5672e-23 -1.40964)
(-3.20748 3.44335e-21 0.658116)
(-3.29928 7.26707e-20 0.796775)
(-3.66779 -1.94883e-19 0.662475)
(-3.76427 -2.66002e-19 0.81063)
(-4.11975 -4.66703e-22 0.650523)
(-4.22413 1.36257e-19 0.805923)
(-4.55596 7.13018e-20 0.622795)
(-4.67239 3.58134e-19 0.783044)
(-4.96867 -5.13331e-20 0.579723)
(-5.10183 -6.18199e-20 0.742425)
(-5.34992 4.56577e-20 0.521627)
(-5.50496 -1.01981e-19 0.684345)
(-5.69189 4.15874e-20 0.448872)
(-5.87424 -1.90015e-21 0.60902)
(-5.9866 5.44001e-20 0.361998)
(-6.20174 -1.86956e-21 0.516782)
(-6.22604 1.07474e-19 0.261792)
(-6.47945 1.95689e-20 0.408099)
(-6.40252 8.01689e-20 0.149258)
(-6.6995 5.06989e-20 0.283789)
(-6.50863 3.66099e-21 0.0249241)
(-6.85479 2.94595e-20 0.144827)
(-6.53822 1.89424e-20 -0.111814)
(-6.93893 -3.77957e-20 -0.00855279)
(-6.48859 4.55845e-20 -0.262647)
(-6.94618 3.39615e-20 -0.177127)
(-6.35805 -4.10957e-21 -0.427858)
(-6.88065 0 -0.36106)
(-6.14527 -3.35832e-22 -0.60588)
(-6.73929 -4.13207e-21 -0.558021)
(-5.85277 4.09663e-21 -0.797946)
(-6.52199 4.07893e-21 -0.765295)
(-5.49098 -8.98087e-21 -1.01099)
(-6.23233 0 -0.984493)
(-5.09254 -1.69892e-20 -1.24563)
(-5.89031 1.70305e-21 -1.22062)
(-4.70932 -1.25013e-20 -1.46215)
(-5.55982 -8.39858e-21 -1.46089)
(-5.36602 -3.77883e-21 -1.64995)
(-3.85296 -1.97597e-19 0.948)
(-3.82277 -5.71353e-19 1.08762)
(-4.31592 6.70058e-20 0.951448)
(-4.28851 -1.84164e-19 1.10045)
(-4.77075 4.96847e-19 0.934637)
(-4.74917 1.52122e-19 1.09098)
(-5.21128 2.2538e-19 0.897784)
(-5.19926 3.58739e-19 1.05908)
(-5.63066 -1.12894e-19 0.841087)
(-5.63261 -7.98401e-21 1.00477)
(-6.02162 -1.49845e-19 0.764666)
(-6.04238 8.69328e-20 0.928086)
(-6.3766 -4.57128e-20 0.668673)
(-6.42148 -1.80282e-19 0.82909)
(-6.68774 -3.63081e-20 0.553393)
(-6.76223 -7.42685e-20 0.708103)
(-6.94741 -3.66852e-20 0.419353)
(-7.05687 3.38036e-20 0.565818)
(-7.14834 0 0.267332)
(-7.29814 2.80722e-20 0.403392)
(-7.28393 -1.16717e-20 0.0980439)
(-7.47964 -6.60051e-20 0.222302)
(-7.34951 -2.23995e-20 -0.0880391)
(-7.5961 9.10767e-22 0.024076)
(-7.3442 -1.06364e-20 -0.290124)
(-7.64281 -9.26354e-22 -0.189726)
(-7.26958 0 -0.506119)
(-7.6247 -4.37231e-20 -0.417667)
(-7.12788 0 -0.732518)
(-7.5426 3.53805e-21 -0.657111)
(-6.92562 0 -0.966505)
(-7.40008 -6.44973e-21 -0.902879)
(-6.67771 9.98177e-21 -1.20714)
(-7.20503 -1.7125e-20 -1.15146)
(-6.41289 1.0348e-20 -1.44757)
(-6.97744 1.00293e-20 -1.39944)
(-6.16289 -2.93455e-22 -1.65465)
(-6.76587 2.78283e-22 -1.63241)
(-6.65066 -2.88266e-22 -1.80453)
(-4.25492 -5.57445e-19 1.24156)
(-4.12513 -1.15602e-18 1.38654)
(-4.71693 -9.59581e-20 1.2412)
(-4.5876 1.47702e-19 1.39722)
(-5.1717 1.42991e-20 1.21668)
(-5.0459 1.38847e-19 1.38252)
(-5.61379 1.25139e-19 1.16765)
(-5.49515 9.68028e-21 1.34176)
(-6.0371 1.90708e-19 1.09391)
(-5.92992 0 1.27446)
(-6.43488 5.71145e-20 0.995338)
(-6.344 9.48352e-20 1.18029)
(-6.79992 -2.09106e-19 0.872073)
(-6.73066 -1.35171e-19 1.05909)
(-7.12484 -4.21707e-21 0.724734)
(-7.08282 -3.27432e-20 0.91114)
(-7.40248 9.84088e-20 0.554504)
(-7.39314 3.97312e-20 0.737419)
(-7.62621 -3.74637e-20 0.363081)
(-7.65483 -3.2977e-20 0.539493)
(-7.79028 -5.37636e-20 0.15259)
(-7.86196 1.3566e-20 0.319495)
(-7.89106 2.23544e-20 -0.0745096)
(-8.01003 3.67134e-20 0.0803449)
(-7.92842 -3.36214e-20 -0.315922)
(-8.09553 9.68008e-21 -0.174244)
(-7.90496 -4.04451e-20 -0.569235)
(-8.12108 2.22069e-20 -0.441072)
(-7.82506 -2.67475e-21 -0.829747)
(-8.09171 2.97528e-20 -0.716533)
(-7.69692 -2.38377e-20 -1.09113)
(-8.0123 -6.45516e-21 -0.99319)
(-7.53562 -1.72075e-20 -1.34726)
(-7.89223 -1.41443e-20 -1.2634)
(-7.3641 0 -1.5878)
(-7.75 0 -1.51902)
(-7.20578 0 -1.78359)
(-7.62177 -1.92561e-22 -1.74548)
(-7.55637 2.0284e-22 -1.90307)
(-4.45384 -4.51169e-19 1.54246)
(-4.23878 -8.28661e-22 1.69212)
(-4.91128 3.84777e-19 1.53828)
(-4.69409 1.75962e-22 1.70013)
(-5.36302 1.37009e-19 1.50689)
(-5.14685 3.66995e-19 1.68016)
(-5.80423 -1.1593e-19 1.44743)
(-5.59279 -5.71177e-19 1.63093)
(-6.22936 -9.6435e-20 1.35927)
(-6.02705 1.13363e-19 1.55148)
(-6.63221 -9.7449e-20 1.24202)
(-6.44392 -9.70936e-20 1.44111)
(-7.00614 4.11625e-20 1.09568)
(-6.8371 0 1.29944)
(-7.34435 1.1394e-20 0.920906)
(-7.20009 1.14813e-19 1.12671)
(-7.64008 -9.13405e-20 0.719068)
(-7.526 -2.81707e-20 0.924037)
(-7.88699 1.78053e-20 0.492256)
(-7.80828 -3.41128e-20 0.693362)
(-8.07979 1.0368e-19 0.243453)
(-8.04118 -4.51174e-20 0.437536)
(-8.21502 2.41839e-20 -0.0233232)
(-8.22044 2.40794e-20 0.160717)
(-8.29212 6.51039e-20 -0.303373)
(-8.3433 3.39616e-20 -0.131592)
(-8.31428 9.1859e-20 -0.59217)
(-8.40939 4.06483e-20 -0.43381)
(-8.28786 2.6351e-20 -0.883468)
(-8.42691 -1.43211e-21 -0.740487)
(-8.22113 2.56636e-21 -1.16839)
(-8.40135 -5.56108e-21 -1.04312)
(-8.12775 2.58984e-21 -1.43735)
(-8.34229 1.84131e-20 -1.33086)
(-8.02625 -1.91765e-22 -1.67822)
(-8.26666 1.12238e-21 -1.59269)
(-7.9354 1.75335e-22 -1.8649)
(-8.20084 4.00241e-22 -1.81396)
(-8.17057 -4.30833e-21 -1.96018)
(-4.47434 4.52619e-19 1.84931)
(-4.18419 4.42529e-19 2.00265)
(-4.92378 -1.94875e-20 1.84126)
(-4.62879 -1.34564e-19 2.00806)
(-5.36981 -3.39383e-19 1.80328)
(-5.07318 2.38887e-19 1.98327)
(-5.80818 -3.443e-19 1.73397)
(-5.51374 -5.60838e-19 1.92643)
(-6.2338 1.14218e-19 1.63223)
(-5.94603 4.27454e-19 1.83607)
(-6.64094 0 1.49738)
(-6.36478 -9.65269e-20 1.71106)
(-7.02338 7.30364e-20 1.3293)
(-6.76411 -8.07281e-20 1.55085)
(-7.3747 7.63266e-20 1.12867)
(-7.13778 1.9573e-23 1.35562)
(-7.68844 2.89326e-20 0.897134)
(-7.47927 6.6768e-20 1.12653)
(-7.9585 -9.69722e-20 0.637378)
(-7.78217 2.66627e-20 0.86586)
(-8.17971 -1.24903e-19 0.353373)
(-8.04074 -9.77696e-20 0.577124)
(-8.34843 3.38066e-20 0.0506205)
(-8.25064 2.10312e-20 0.265482)
(-8.46339 9.87614e-21 -0.264239)
(-8.40925 -3.08319e-20 -0.0620777)
(-8.52763 -5.14367e-20 -0.584414)
(-8.51521 -3.04922e-20 -0.397263)
(-8.54846 -3.26008e-20 -0.902226)
(-8.57492 -2.13279e-20 -0.732018)
(-8.53376 9.89353e-21 -1.20721)
(-8.59613 -3.65239e-21 -1.05767)
(-8.49545 1.65027e-20 -1.48723)
(-8.58798 1.36755e-20 -1.36096)
(-8.449 1.6855e-21 -1.72893)
(-8.56608 -1.54595e-20 -1.62885)
(-8.41013 -3.88346e-21 -1.90865)
(-8.54913 5.92879e-22 -1.84655)
(-8.54528 -7.20322e-23 -1.98414)
(-4.3331 -1.43522e-19 2.16047)
(-3.97545 -5.85732e-19 2.31633)
(-4.7716 1.22216e-19 2.14903)
(-4.40628 -1.32488e-19 2.31976)
(-5.20969 2.0459e-20 2.10532)
(-4.83996 2.36145e-19 2.29114)
(-5.64363 2.093e-19 2.02736)
(-5.27339 1.00191e-19 2.22799)
(-6.06875 2.18971e-19 1.91363)
(-5.70253 1.09665e-19 2.12831)
(-6.47966 -1.77635e-19 1.76316)
(-6.12245 -1.80137e-19 1.99058)
(-6.87044 -1.54196e-19 1.57566)
(-6.52761 8.34888e-23 1.814)
(-7.23488 -1.01287e-20 1.35182)
(-6.91197 -7.33978e-20 1.59865)
(-7.56667 6.44013e-20 1.09343)
(-7.26925 -5.22631e-20 1.34571)
(-7.85982 2.60066e-20 0.803623)
(-7.59312 7.47068e-20 1.05774)
(-8.10912 4.73543e-20 0.487175)
(-7.87773 6.89109e-20 0.738816)
(-8.31068 -4.29686e-20 0.150832)
(-8.1183 1.77941e-20 0.394976)
(-8.46276 -7.08578e-20 -0.196862)
(-8.31188 -4.3034e-20 0.0345679)
(-8.56708 -3.61955e-22 -0.546557)
(-8.45732 -7.31218e-21 -0.331974)
(-8.63021 7.89365e-21 -0.888916)
(-8.55525 -3.21775e-21 -0.693523)
(-8.6603 2.54081e-22 -1.21237)
(-8.61755 -1.90021e-20 -1.04063)
(-8.66777 -1.8406e-20 -1.50301)
(-8.65277 -7.77623e-22 -1.35877)
(-8.66595 -1.66527e-20 -1.7465)
(-8.67538 -8.7759e-22 -1.63324)
(-8.66857 4.48735e-21 -1.92123)
(-8.69799 -6.31546e-21 -1.84903)
(-8.71498 2.60158e-21 -1.98011)
(-4.04216 -5.78292e-19 2.47438)
(-3.623 -4.44217e-19 2.63113)
(-4.46728 -2.1001e-20 2.4606)
(-4.03736 5.11183e-22 2.6338)
(-4.89559 3.15682e-19 2.41249)
(-4.45827 5.89859e-19 2.6028)
(-5.32375 2.01332e-22 2.32755)
(-4.88296 -4.66979e-19 2.53507)
(-5.74744 -2.88785e-19 2.20379)
(-5.30777 -2.05791e-19 2.42806)
(-6.16159 -3.7481e-21 2.03988)
(-5.72808 9.53589e-20 2.27988)
(-6.56055 8.13473e-20 1.83537)
(-6.13868 2.32535e-19 2.08943)
(-6.93831 -1.15752e-19 1.59084)
(-6.53381 0 1.85663)
(-7.28868 -4.29104e-20 1.30825)
(-6.90734 2.68334e-20 1.58265)
(-7.60564 1.18068e-19 0.991128)
(-7.25297 4.13191e-20 1.27019)
(-7.88373 3.96101e-20 0.644894)
(-7.56446 6.05466e-20 0.923768)
(-8.1185 1.77462e-20 0.277185)
(-7.83627 -2.08418e-20 0.550123)
(-8.30708 2.00597e-20 -0.102078)
(-8.06442 6.73911e-20 0.158614)
(-8.44906 -1.02193e-20 -0.480502)
(-8.24712 -3.64836e-20 -0.238784)
(-8.55 -3.03977e-20 -0.846363)
(-8.38202 -9.19168e-21 -0.627188)
(-8.61935 -1.99207e-20 -1.18757)
(-8.48085 4.54617e-21 -0.994854)
(-8.66578 1.66348e-20 -1.48911)
(-8.55384 1.89972e-21 -1.32795)
(-8.70107 9.27334e-21 -1.73558)
(-8.61422 7.19057e-21 -1.60995)
(-8.73771 -8.2598e-21 -1.90704)
(-8.66983 2.40525e-23 -1.82542)
(-8.70398 2.49549e-23 -1.95165)
(-3.61079 1.32364e-19 2.78908)
(-3.1353 -7.44427e-21 2.94461)
(-4.02021 6.07708e-19 2.77455)
(-3.5306 1.24473e-19 2.94831)
(-4.4369 -1.87858e-19 2.72389)
(-3.93656 2.34136e-19 2.91689)
(-4.85784 -6.77659e-19 2.63406)
(-4.35068 -6.61538e-19 2.84677)
(-5.27903 1.77122e-19 2.5026)
(-4.76964 1.1215e-19 2.73489)
(-5.69577 3.30494e-19 2.32783)
(-5.18922 2.69646e-19 2.57896)
(-6.10273 1.52896e-19 2.10905)
(-5.60457 -1.47504e-19 2.37757)
(-6.49412 1.4181e-19 1.84675)
(-6.01023 0 2.1304)
(-6.8638 1.10773e-19 1.54286)
(-6.40025 1.4295e-19 1.83848)
(-7.20546 -1.52428e-20 1.2011)
(-6.76808 -4.07326e-20 1.50448)
(-7.51294 1.84498e-22 0.827252)
(-7.10687 1.77705e-20 1.13309)
(-7.78068 2.8343e-20 0.429709)
(-7.41002 -6.92348e-20 0.73149)
(-8.00443 1.14616e-20 0.0200343)
(-7.67229 -1.04779e-21 0.309915)
(-8.183 -3.54449e-20 -0.386876)
(-7.89095 -2.34477e-20 -0.117699)
(-8.31998 2.48692e-20 -0.776436)
(-8.06501 -3.34749e-21 -0.533566)
(-8.42465 2.58943e-20 -1.13553)
(-8.19718 2.5796e-20 -0.922268)
(-8.50501 -7.44176e-21 -1.44874)
(-8.30386 1.20727e-23 -1.27111)
(-8.57191 -2.0914e-21 -1.69954)
(-8.39713 -5.6151e-22 -1.56191)
(-8.63722 8.25307e-21 -1.86928)
(-8.48118 6.63771e-21 -1.77858)
(-8.53009 2.35367e-21 -1.90144)
(-3.0468 -1.80703e-20 3.10216)
(-2.52012 2.82311e-19 3.25371)
(-3.43804 -2.5069e-19 3.08904)
(-2.8936 -5.31113e-19 3.26079)
(-3.84091 -2.34438e-19 3.03818)
(-3.28199 4.75912e-19 3.23147)
(-4.25269 1.24783e-19 2.94602)
(-3.68312 -4.29198e-19 3.16165)
(-4.66982 2.0457e-19 2.80965)
(-4.09401 3.02539e-19 3.04784)
(-5.08794 -2.05071e-19 2.62704)
(-4.51087 2.56916e-19 2.88731)
(-5.50213 -3.01324e-19 2.39719)
(-4.92931 -8.41247e-20 2.67835)
(-5.90682 0 2.12033)
(-5.34435 -6.61716e-20 2.42031)
(-6.29576 -6.95179e-21 1.79819)
(-5.75019 2.29174e-20 2.11384)
(-6.66206 -7.04366e-21 1.43443)
(-6.14007 -9.73741e-20 1.76129)
(-6.99868 -5.13747e-20 1.03511)
(-6.50649 -1.79888e-20 1.36733)
(-7.2992 -9.80689e-20 0.609472)
(-6.84193 1.19757e-21 0.939646)
(-7.55886 -3.55895e-20 0.170572)
(-7.13996 -4.63856e-20 0.489586)
(-7.77546 7.96017e-21 -0.265106)
(-7.39655 5.94866e-20 0.0327399)
(-7.94883 -2.57711e-21 -0.679807)
(-7.61118 -3.35157e-21 -0.411913)
(-8.08624 2.58182e-22 -1.0581)
(-7.7745 1.20781e-21 -0.82401)
(-8.197 6.74949e-21 -1.38422)
(-7.91188 -2.79761e-21 -1.19)
(-8.29156 7.94751e-21 -1.64075)
(-8.03478 7.5673e-21 -1.49114)
(-8.38179 6.79995e-22 -1.81014)
(-8.14438 -1.14978e-22 -1.71042)
(-8.2067 9.59229e-23 -1.83103)
(-2.35778 -2.24188e-19 3.41058)
(-1.78574 5.79533e-19 3.55475)
(-2.72792 1.88412e-19 3.40154)
(-2.13433 -5.23321e-19 3.56804)
(-3.1141 2.8885e-19 3.35329)
(-2.50195 4.80895e-19 3.54372)
(-3.51396 -2.56617e-19 3.26183)
(-2.88677 -1.23417e-19 3.47732)
(-3.92436 3.56524e-19 3.12381)
(-3.2862 -1.01174e-19 3.36488)
(-4.34144 3.80374e-19 2.93684)
(-3.69693 -1.31217e-21 3.20333)
(-4.76077 1.49494e-19 2.69957)
(-4.11518 2.15077e-19 2.99065)
(-5.17723 -4.39623e-20 2.41179)
(-4.5367 -6.63417e-20 2.72582)
(-5.58464 -6.61747e-20 2.07475)
(-4.95624 1.1475e-19 2.40882)
(-5.97577 -1.08315e-19 1.69187)
(-5.36714 -7.2978e-20 2.04143)
(-6.34298 3.33724e-20 1.26953)
(-5.76159 -3.42739e-20 1.62818)
(-6.67913 5.21221e-20 0.817751)
(-6.13134 8.82386e-20 1.17717)
(-6.97808 4.73792e-20 0.350432)
(-6.46834 0 0.700473)
(-7.23435 4.78977e-20 -0.115199)
(-6.76566 3.85687e-20 0.214204)
(-7.44332 4.1276e-22 -0.557348)
(-7.01916 4.42622e-21 -0.262066)
(-7.61092 -1.32699e-21 -0.956585)
(-7.2172 1.23024e-21 -0.701228)
(-7.74997 -2.02708e-21 -1.29702)
(-7.38352 1.74899e-22 -1.08552)
(-7.86968 -3.69826e-22 -1.56075)
(-7.53466 -1.31679e-22 -1.39883)
(-7.98249 -7.41092e-22 -1.73094)
(-7.66864 -3.71294e-22 -1.62206)
(-7.74406 1.97831e-21 -1.74108)
(-1.55246 2.92786e-19 3.7105)
(-0.942232 1.43839e-19 3.84341)
(-1.89808 -2.38928e-19 3.70855)
(-1.26259 2.55229e-19 3.86598)
(-2.26384 7.15922e-20 3.66607)
(-1.60558 -6.05339e-19 3.84979)
(-2.64786 3.16031e-20 3.57866)
(-1.96983 4.30775e-19 3.79015)
(-3.04737 -4.59441e-19 3.44258)
(-2.35312 -2.91915e-19 3.68259)
(-3.45911 -1.68271e-19 3.25516)
(-2.75256 -4.01245e-19 3.52383)
(-3.87941 0 3.01471)
(-3.16507 1.36132e-19 3.31167)
(-4.30412 9.11969e-20 2.72044)
(-3.58761 -1.96185e-19 3.04482)
(-4.7276 1.08879e-19 2.37287)
(-4.01608 2.33121e-20 2.72231)
(-5.14275 -2.05867e-22 1.97494)
(-4.44443 9.61851e-20 2.34507)
(-5.54151 1.98082e-20 1.53298)
(-4.86495 -3.0858e-20 1.91709)
(-5.91557 3.66286e-20 1.05711)
(-5.26882 3.04157e-20 1.44645)
(-6.25588 -7.72269e-21 0.561278)
(-5.64604 1.21129e-20 0.944894)
(-6.55282 -3.40309e-21 0.0643376)
(-5.98577 -2.6804e-20 0.428305)
(-6.80044 5.26267e-21 -0.407858)
(-6.27976 -1.39408e-21 -0.0812001)
(-7.00144 2.81021e-21 -0.830927)
(-6.52511 4.88343e-22 -0.551343)
(-7.16901 1.54103e-21 -1.1877)
(-6.72097 2.03972e-21 -0.95707)
(-7.31311 -1.32215e-22 -1.46036)
(-6.90126 8.83105e-21 -1.28509)
(-7.44761 2.33319e-21 -1.63231)
(-7.06062 0 -1.51378)
(-7.15016 6.87745e-21 -1.63139)
(-0.642045 1.04606e-19 3.99779)
(0.00128455 -4.38398e-19 4.11495)
(-0.959259 -1.03773e-19 4.00575)
(-0.288527 1.23546e-19 4.14978)
(-1.3001 -2.55898e-19 3.97234)
(-0.604918 -3.64768e-19 4.14479)
(-1.66328 1.13017e-19 3.89251)
(-0.943804 1.12118e-19 4.09531)
(-2.0462 -2.32337e-19 3.76207)
(-1.30536 -1.8369e-19 3.99599)
(-2.44619 -1.00015e-19 3.57829)
(-1.68685 1.06297e-20 3.84366)
(-2.86048 -5.88658e-20 3.33941)
(-2.08575 3.69461e-19 3.63623)
(-3.2867 -2.64078e-19 3.04399)
(-2.50079 -3.33635e-20 3.37266)
(-3.72026 1.13136e-20 2.69138)
(-2.92977 -6.21201e-20 3.05052)
(-4.15474 6.51218e-20 2.28354)
(-3.36771 -1.5703e-20 2.66957)
(-4.58184 -1.88504e-20 1.82617)
(-3.80741 -2.76334e-20 2.23271)
(-4.99219 7.62511e-21 1.32896)
(-4.24044 -3.60403e-20 1.74743)
(-5.37428 -4.72326e-21 0.806048)
(-4.65639 -5.84138e-21 1.22422)
(-5.71706 -2.16323e-20 0.278288)
(-5.04247 -1.00587e-20 0.679433)
(-6.01363 -5.3204e-21 -0.226593)
(-5.38825 -4.55347e-21 0.138015)
(-6.25708 -3.87833e-22 -0.67865)
(-5.69324 -6.69474e-22 -0.367928)
(-6.45602 9.25134e-21 -1.05563)
(-5.92244 3.39511e-22 -0.802311)
(-6.62614 8.99931e-21 -1.33936)
(-6.1356 4.41591e-23 -1.14849)
(-6.7832 4.03678e-21 -1.51387)
(-6.3248 4.70669e-23 -1.38475)
(-6.4315 -1.41617e-21 -1.50103)
(0.364912 -4.26916e-19 4.26729)
(1.03514 -1.58322e-19 4.36463)
(0.077145 -1.34367e-19 4.28879)
(0.78235 1.16218e-19 4.41684)
(-0.23638 0 4.26639)
(0.499416 1.10921e-19 4.4255)
(-0.57346 -1.82153e-19 4.19602)
(0.193042 -1.96917e-19 4.38784)
(-0.933189 5.62743e-20 4.07369)
(-0.138622 6.78422e-20 4.29954)
(-1.31343 4.78962e-19 3.89735)
(-0.494214 1.94858e-20 4.1567)
(-1.71199 3.94845e-19 3.66525)
(-0.873978 2.33504e-19 3.95721)
(-2.12958 1.69306e-19 3.37461)
(-1.27091 6.26253e-20 3.70231)
(-2.56284 -8.65686e-20 3.02338)
(-1.68821 5.47674e-21 3.38661)
(-3.00663 -1.08065e-19 2.61236)
(-2.12298 -4.68156e-20 3.00875)
(-3.45317 -4.22457e-20 2.1466)
(-2.56939 -2.27741e-21 2.57)
(-3.89484 -4.48352e-20 1.6349)
(-3.02228 -1.43875e-20 2.07798)
(-4.32114 -1.07941e-20 1.09042)
(-3.47539 -1.74858e-20 1.54131)
(-4.72084 4.78662e-21 0.533883)
(-3.91613 4.29473e-21 0.975984)
(-5.07924 3.42981e-22 -0.00749472)
(-4.3284 1.42138e-21 0.404942)
(-5.37378 1.5605e-22 -0.495264)
(-4.69664 -1.80299e-20 -0.14412)
(-5.60832 -9.44377e-21 -0.897142)
(-4.98982 -2.33816e-22 -0.61827)
(-5.81037 -9.38468e-21 -1.19484)
(-5.24243 -9.80278e-21 -0.985117)
(-5.99358 -6.446e-21 -1.37308)
(-5.47166 2.05004e-23 -1.23283)
(-5.60268 -6.57198e-21 -1.34875)
(1.69721 4.53512e-19 4.43717)
(2.34557 3.12872e-19 4.47541)
(1.48309 3.9968e-19 4.51866)
(2.17073 1.4543e-19 4.59023)
(1.23788 3.72102e-19 4.55807)
(1.96325 2.60855e-19 4.66318)
(0.964137 -8.45319e-20 4.55176)
(1.72418 7.79668e-21 4.68981)
(0.664079 5.48512e-20 4.49661)
(1.4589 7.54306e-20 4.6679)
(0.337574 2.98117e-20 4.38833)
(1.16713 1.76012e-19 4.5951)
(-0.0158318 -2.39566e-19 4.2217)
(0.849877 -2.37124e-19 4.46789)
(-0.391629 -1.05402e-19 3.99701)
(0.504181 -1.21996e-19 4.28059)
(-0.787719 -1.0352e-19 3.71439)
(0.140058 -1.24557e-19 4.03646)
(-1.20559 4.6131e-20 3.36976)
(-0.247414 2.03273e-20 3.7327)
(-1.64373 5.90088e-20 2.96349)
(-0.658687 -5.52619e-22 3.3658)
(-2.09645 2.70337e-20 2.49907)
(-1.09623 1.13915e-20 2.9339)
(-2.5644 1.41488e-20 1.98208)
(-1.54917 -4.0689e-21 2.44942)
(-3.04088 -2.35766e-21 1.42399)
(-2.01885 3.40533e-21 1.91566)
(-3.5094 1.13208e-21 0.843456)
(-2.50027 1.30301e-20 1.34183)
(-3.94095 -1.76897e-20 0.266062)
(-2.98346 1.46791e-21 0.742452)
(-4.31523 -1.93979e-20 -0.2659)
(-3.43659 1.34996e-20 0.15196)
(-4.61605 -5.63753e-22 -0.703749)
(-3.84876 2.10323e-20 -0.374687)
(-4.86301 -2.60112e-22 -1.02107)
(-4.15841 -2.61925e-22 -0.777748)
(-5.08141 2.16023e-23 -1.20528)
(-4.44918 -1.76135e-26 -1.04443)
(-4.62473 9.53004e-21 -1.16139)
(2.84035 -1.54591e-22 4.63339)
(2.67318 -1.58188e-22 4.73934)
(2.47408 -1.07593e-19 4.79963)
(3.20169 1.1369e-19 4.87739)
(2.24534 1.70774e-19 4.81131)
(3.01023 -1.10268e-19 4.925)
(1.98941 1.97175e-19 4.77238)
(2.79167 3.77541e-19 4.92143)
(1.708 -9.00262e-20 4.68047)
(2.54688 -9.03922e-20 4.86515)
(1.4017 -1.18493e-19 4.53154)
(2.27795 0 4.75377)
(1.07021 -1.41174e-19 4.3238)
(1.98282 -9.64883e-20 4.58255)
(0.715758 4.88427e-22 4.0578)
(1.66513 -1.31443e-19 4.35261)
(0.336374 -2.71445e-20 3.731)
(1.32411 2.0868e-20 4.06459)
(-0.0726782 -4.86115e-20 3.33548)
(0.958785 -3.49716e-21 3.71703)
(-0.508079 -1.55124e-20 2.87644)
(0.561851 -1.06026e-21 3.30207)
(-0.966018 -1.72022e-20 2.36641)
(0.144482 -2.24346e-20 2.832)
(-1.45086 1.21971e-20 1.80783)
(-0.294953 -2.24879e-21 2.31598)
(-1.96513 1.38596e-20 1.20698)
(-0.755932 7.1153e-21 1.76177)
(-2.49183 4.11017e-20 0.594147)
(-1.2454 -1.82999e-22 1.16982)
(-2.99389 6.26855e-20 0.0231915)
(-1.7389 2.5329e-20 0.560825)
(-3.39629 2.16245e-20 -0.452845)
(-2.33402 4.98705e-21 -0.0401488)
(-3.71474 -5.19165e-24 -0.80002)
(-2.83518 1.94929e-20 -0.506197)
(-3.98912 9.585e-21 -0.99446)
(-3.20824 6.32291e-23 -0.803402)
(-3.48393 -2.09624e-20 -0.92923)
(3.7614 1.16526e-19 5.00661)
(3.58177 9.0375e-20 5.03915)
(3.37565 9.2213e-20 5.01853)
(4.16826 6.21093e-21 5.14003)
(3.1447 0 4.94334)
(3.97462 7.45838e-20 5.10167)
(2.89 2.47745e-20 4.81088)
(3.75799 0 5.00699)
(2.61074 -8.638e-20 4.61913)
(3.51766 1.36636e-20 4.85299)
(2.30802 -1.12782e-19 4.36851)
(3.25424 -1.9722e-20 4.63921)
(1.98276 4.58802e-20 4.05949)
(2.96824 -6.36057e-21 4.36666)
(1.63472 4.55029e-20 3.68948)
(2.66042 5.31483e-20 4.03498)
(1.25892 -7.40248e-21 3.259)
(2.3274 -1.08817e-21 3.63997)
(0.858558 -3.58774e-21 2.77704)
(1.96963 -8.65549e-21 3.18762)
(0.435552 -1.03049e-20 2.2559)
(1.58866 3.21805e-21 2.6883)
(-0.016931 -1.38451e-20 1.69893)
(1.18778 3.19456e-21 2.15622)
(-0.521248 -2.23659e-20 1.11263)
(0.759713 -1.87684e-22 1.60293)
(-1.12683 -4.40438e-20 0.483053)
(0.307359 3.82396e-21 1.06717)
(-1.79418 -2.06305e-21 -0.116042)
(-0.268689 -2.18877e-20 0.511041)
(-2.32415 1.98753e-20 -0.52729)
(-0.888523 -1.22207e-20 -0.0535644)
(-2.67769 -1.94881e-20 -0.724505)
(-1.61606 3.50546e-23 -0.485247)
(-2.14851 9.79851e-21 -0.614141)
(4.79265 -1.36137e-20 5.22688)
(4.6148 7.6309e-20 5.16969)
(5.42258 -1.39637e-20 5.29856)
(4.41482 -1.17181e-20 5.05435)
(5.25833 1.34913e-19 5.22103)
(4.19208 8.27214e-20 4.87933)
(5.07373 -2.56539e-20 5.08448)
(3.94677 8.95816e-20 4.64466)
(4.86766 9.6453e-20 4.88781)
(3.67991 1.77493e-22 4.35101)
(4.63987 5.02296e-20 4.63148)
(3.39178 6.4392e-21 3.99771)
(4.39073 4.73226e-20 4.31584)
(3.07866 9.2558e-22 3.58566)
(4.11857 0 3.93989)
(2.73993 9.37993e-22 3.12158)
(3.82133 5.29832e-21 3.50727)
(2.3768 1.70648e-20 2.61798)
(3.49819 0 3.02695)
(1.99066 1.72683e-20 2.0922)
(3.14991 -2.88432e-21 2.513)
(1.57482 2.6769e-20 1.56838)
(2.77457 7.40784e-22 1.98328)
(1.13568 2.68523e-20 1.0734)
(2.36716 1.49559e-20 1.46681)
(0.582204 -2.05047e-20 0.59054)
(1.93408 -4.9181e-23 1.00022)
(-0.210239 -2.0082e-20 0.0538595)
(1.40955 -5.91408e-20 0.612491)
(-1.00603 2.08031e-20 -0.330692)
(0.649875 -2.68689e-20 0.185232)
(-0.150022 2.4099e-20 -0.0695671)
(6.0918 4.27036e-20 5.35388)
(5.94466 1.24035e-19 5.25597)
(5.77834 -1.39751e-20 5.09859)
(6.62323 -1.40397e-20 5.27327)
(5.59123 5.70442e-20 4.8812)
(6.47165 0 5.09379)
(5.38284 9.90945e-20 4.60421)
(6.3005 2.95944e-21 4.85489)
(5.15261 4.16922e-20 4.26799)
(6.10824 4.96914e-21 4.55705)
(4.89783 6.16637e-21 3.8744)
(5.89275 0 4.20099)
(4.61574 6.2497e-21 3.42942)
(5.65103 -2.40282e-21 3.79048)
(4.30419 -1.62939e-20 2.94424)
(5.37986 -3.28361e-21 3.33385)
(3.96118 -1.57431e-20 2.43579)
(5.0764 -3.03411e-21 2.84494)
(3.58226 -7.47703e-22 1.92884)
(4.73751 1.82307e-20 2.3436)
(3.16483 -1.4537e-21 1.45344)
(4.35947 -4.87885e-20 1.85756)
(2.71345 -3.91977e-20 1.04068)
(3.94615 2.07766e-20 1.41811)
(2.24989 -6.66268e-20 0.701285)
(3.50145 -2.71362e-20 1.04522)
(1.63558 -3.80274e-20 0.406366)
(3.04654 9.50093e-21 0.746008)
(2.30222 -1.01836e-20 0.525679)
(7.34381 0 5.27386)
(7.20955 -5.61749e-20 5.07408)
(7.05602 -9.49932e-20 4.81561)
(7.92438 -1.14762e-19 5.03624)
(6.88041 -3.84964e-20 4.49928)
(7.78303 -3.87107e-20 4.75757)
(6.6792 -8.74478e-21 4.1278)
(7.61883 -2.30246e-20 4.42341)
(6.44825 -1.20433e-20 3.70738)
(7.42725 -3.4157e-21 4.03796)
(6.18319 1.03146e-20 3.249)
(7.20342 -2.59544e-23 3.60959)
(5.87984 3.14364e-20 2.76931)
(6.94253 1.18708e-21 3.15188)
(5.53484 -2.69495e-20 2.2913)
(6.64087 -1.32366e-21 2.68421)
(5.14918 -2.42736e-20 1.84242)
(6.29662 -2.62645e-20 2.23112)
(4.73148 2.31422e-20 1.4483)
(5.91378 2.56432e-21 1.81835)
(4.29064 2.73901e-20 1.12247)
(5.50138 7.31936e-21 1.4664)
(3.82956 2.51149e-20 0.879641)
(5.07567 5.02489e-21 1.18737)
(4.50907 1.06413e-20 0.992351)
(8.67944 -5.85975e-20 4.98558)
(8.55083 -2.31539e-20 4.69051)
(9.40306 1.20733e-20 4.92081)
(8.39716 -1.69723e-20 4.3438)
(9.28075 -3.78859e-22 4.60905)
(8.21264 8.60551e-21 3.9518)
(9.13226 6.87076e-21 4.25051)
(7.99166 -9.41619e-21 3.52533)
(8.95116 2.00939e-21 3.85329)
(7.72945 -2.92566e-20 3.0803)
(8.73171 -1.14963e-20 3.4302)
(7.42347 1.58134e-23 2.63738)
(8.47005 -2.97145e-20 2.99894)
(7.07571 9.69463e-22 2.21984)
(8.16508 6.97523e-21 2.58067)
(6.69348 -1.53206e-20 1.84922)
(7.8206 -1.6105e-20 2.19724)
(6.2874 -1.80806e-20 1.54167)
(7.44559 3.11526e-20 1.86728)
(5.86808 -1.14498e-20 1.30979)
(7.05676 -9.08071e-23 1.60362)
(6.54733 9.25982e-22 1.41568)
(10.1601 3.65498e-20 4.84687)
(10.0436 2.45805e-20 4.52469)
(9.89841 0 4.16224)
(10.7655 2.25289e-20 4.43184)
(9.71784 0 3.76948)
(10.6202 -2.94003e-21 4.06578)
(9.49667 -1.16215e-20 3.36082)
(10.4387 0 3.67778)
(9.23253 -2.31432e-20 2.95434)
(10.2169 -1.47935e-21 3.2833)
(8.92711 -9.79375e-21 2.56978)
(9.95369 1.72522e-21 2.90037)
(8.58679 2.87886e-20 2.2259)
(9.65206 4.61751e-22 2.54741)
(8.22146 4.80782e-20 1.93794)
(9.31986 1.05514e-20 2.24089)
(7.84226 1.10828e-20 1.71686)
(8.97245 3.51214e-20 1.99331)
(8.51484 -1.78414e-20 1.812)
(11.5127 1.97882e-20 4.34355)
(11.3657 -2.99727e-21 3.98312)
(12.2196 1.09721e-21 4.25127)
(11.1819 9.50379e-21 3.60985)
(12.0705 1.83285e-22 3.89597)
(10.9586 2.22568e-20 3.23912)
(11.8854 1.05237e-20 3.53627)
(10.6968 1.13757e-20 2.88759)
(11.663 1.18563e-20 3.18729)
(10.4013 -1.85136e-20 2.57132)
(11.4052 4.33263e-21 2.86448)
(10.0806 -3.15198e-21 2.30399)
(11.1181 9.43725e-22 2.58202)
(9.74501 6.48157e-21 2.09557)
(10.815 -9.74404e-21 2.35143)
(10.4124 -6.66888e-21 2.17901)
(12.9475 4.37841e-21 4.1712)
(12.7958 1.0202e-21 3.82988)
(12.6099 -2.81315e-22 3.4921)
(13.4819 -4.85791e-21 3.75917)
(12.3898 4.76805e-21 3.17176)
(13.298 -1.0445e-21 3.44115)
(12.1392 2.38007e-20 2.88242)
(13.0831 -5.35873e-22 3.14661)
(11.8644 -5.91454e-21 2.63602)
(12.8413 1.13351e-20 2.88764)
(11.5744 -2.31274e-20 2.44149)
(12.5838 -8.00928e-21 2.67445)
(12.2385 2.64762e-21 2.51262)
(14.1896 -5.82779e-21 3.71452)
(14.0096 -6.17584e-21 3.42227)
(14.8513 -4.08421e-21 3.6613)
(13.8027 -1.34705e-20 3.15787)
(14.679 -7.47593e-21 3.39248)
(13.5739 9.1687e-21 2.93165)
(14.4828 -1.50377e-21 3.15549)
(13.3303 1.84602e-20 2.75145)
(14.2717 1.03648e-20 2.9593)
(13.9859 6.03856e-21 2.80884)
(15.5385 -5.49054e-21 3.63702)
(15.3764 3.71747e-21 3.3954)
(15.1945 -6.18951e-22 3.18806)
(16.0156 8.71954e-21 3.38157)
(14.9986 -1.33306e-21 3.0219)
(15.8531 -6.0242e-21 3.20174)
(15.6295 4.7468e-21 3.06284)
(16.6877 3.92405e-21 3.3997)
(16.5426 -9.8128e-22 3.24733)
(17.2822 6.67658e-21 3.39518)
(17.1253 -8.92721e-23 3.26807)
(17.9092 6.13449e-21 3.41998)
(18.4211 3.09826e-21 3.41696)
)
;

boundaryField
{
    inlet
    {
        type            calculated;
        value           nonuniform 0();
    }
    outlet
    {
        type            calculated;
        value           nonuniform List<vector> 
30
(
(1.88917 0 -1.03027)
(-2.02935 6.70688e-21 -1.25842)
(-4.35043 -6.98154e-21 -1.55775)
(-5.94199 -5.76584e-22 -1.74391)
(-7.07252 0 -1.86544)
(-7.8643 4.05639e-22 -1.94059)
(-8.38631 -9.02126e-21 -1.97951)
(-8.68255 9.03469e-21 -1.9884)
(-8.78274 -3.83018e-21 -1.97145)
(-8.70821 3.93722e-21 -1.93172)
(-8.47561 7.70377e-22 -1.87125)
(-8.0976 -7.39666e-22 -1.79121)
(-7.58393 4.69604e-21 -1.692)
(-6.94198 8.1246e-21 -1.57297)
(-6.17736 -1.29567e-20 -1.43144)
(-5.29957 5.77828e-23 -1.26262)
(-4.25554 1.92327e-20 -1.0503)
(-3.04332 -3.93447e-20 -0.778402)
(-1.64186 4.18687e-20 -0.424358)
(0.977829 -2.06715e-20 0.26268)
(3.34723 5.62975e-22 0.781137)
(5.444 2.09692e-20 1.2133)
(7.45853 -1.95335e-20 1.62319)
(9.40234 -1.61071e-20 2.0061)
(11.2755 2.31298e-21 2.35711)
(13.0771 2.4475e-21 2.67272)
(14.7932 9.27509e-21 2.94895)
(16.3881 1.03061e-22 3.18021)
(17.8094 -2.86526e-22 3.35893)
(19.0052 6.56993e-21 3.4774)
)
;
    }
    flap
    {
        type            calculated;
        value           nonuniform 0();
    }
    upperWall
    {
        type            calculated;
        value           nonuniform 0();
    }
    lowerWall
    {
        type            calculated;
        value           uniform (0 0 0);
    }
    frontAndBack
    {
        type            empty;
        value           nonuniform 0();
    }
    procBoundary5to2
    {
        type            processor;
        value           nonuniform List<vector> 
34
(
(3.49608 -1.36461e-19 4.63832)
(3.36334 1.256e-19 4.78066)