/*--------------------------------*- C++ -*----------------------------------*\
| =========                 |                                                 |
| \\      /  F ield         | OpenFOAM: The Open Source CFD Toolbox           |
|  \\    /   O peration     | Version:  dev                                   |
|   \\  /    A nd           | Web:      www.OpenFOAM.org                      |
|    \\/     M anipulation  |                                                 |
\*---------------------------------------------------------------------------*/
FoamFile
{
    version     2.0;
    format      ascii;
    class       surfaceVectorField;
    location    "4.13";
    object      Uf;
}
// * * * * * * * * * * * * * * * * * * * * * * * * * * * * * * * * * * * * * //

dimensions      [0 1 -1 0 0 0 0];

internalField   nonuniform List<vector> 
5457
(
(9.91868 -3.47411e-22 0.0238601)
(9.96687 8.04333e-22 0.0387667)
(9.82265 -3.16974e-22 0.0313629)
(9.92628 -1.15424e-21 0.0469822)
(9.71015 1.6704e-22 0.0376196)
(9.85719 1.69459e-21 0.0565215)
(9.57917 0 0.0440291)
(9.7619 2.09844e-21 0.0675788)
(9.42954 0 0.0506652)
(9.64645 -7.00733e-22 0.0792731)
(9.26126 0 0.0575927)
(9.51256 -5.92458e-21 0.0915358)
(9.07397 -2.02105e-21 0.0649634)
(9.35951 3.81209e-21 0.104603)
(8.86692 -1.14126e-21 0.0729308)
(9.18624 -1.59941e-21 0.118715)
(8.63916 4.28679e-21 0.0816317)
(8.99184 -1.53145e-24 0.134075)
(8.3895 7.14493e-22 0.0911982)
(8.7753 1.74066e-21 0.15087)
(8.11662 -2.60684e-21 0.101765)
(8.53542 -1.76187e-21 0.169291)
(7.81904 0 0.113471)
(8.27081 1.47227e-20 0.189527)
(7.49518 0 0.126458)
(7.97993 -1.51101e-20 0.211759)
(7.14339 2.10859e-21 0.14086)
(7.66114 -1.5934e-20 0.236151)
(6.76204 1.09229e-20 0.156801)
(7.31277 1.22768e-20 0.262821)
(6.34962 -4.73546e-22 0.174374)
(6.93317 4.46766e-21 0.291821)
(5.9049 1.0447e-20 0.193621)
(6.52088 -4.53607e-21 0.323094)
(5.42707 1.47792e-21 0.214506)
(6.07471 -1.85496e-20 0.356418)
(4.91607 -1.43422e-20 0.236875)
(5.59401 1.91148e-20 0.391347)
(4.37279 2.55056e-21 0.260412)
(5.07894 5.14413e-21 0.427128)
(3.79955 0 0.284582)
(4.53075 -1.05959e-20 0.46262)
(3.20038 0 0.30857)
(3.95222 1.10491e-20 0.496208)
(2.58157 0 0.331206)
(3.34808 0 0.525729)
(1.95198 0 0.35094)
(2.72549 0 0.548436)
(1.32325 0 0.366442)
(2.09467 0 0.561198)
(0.707744 -5.50558e-20 0.37907)
(1.46984 0 0.56249)
(0.101045 6.35849e-21 0.155865)
(0.870647 3.88712e-20 0.566083)
(-0.239873 5.53247e-20 -0.203746)
(0.200112 1.65984e-19 0.323721)
(-0.300857 -1.33257e-19 -0.363905)
(0.0284684 -2.3381e-19 0.0585006)
(-0.00407157 -3.64589e-19 -0.298209)
(9.99779 -4.53398e-23 0.049736)
(9.99369 1.35735e-24 0.0398204)
(9.96166 8.95172e-22 0.0679413)
(9.97815 -1.97654e-21 0.0646586)
(9.90399 3.63518e-21 0.0840683)
(9.9379 2.20011e-21 0.0854965)
(9.82624 1.36433e-21 0.101033)
(9.87235 1.4036e-21 0.107699)
(9.72816 -6.69522e-21 0.118972)
(9.78624 1.54298e-23 0.131236)
(9.60959 -1.98258e-21 0.137973)
(9.68141 -5.18636e-21 0.156041)
(9.47013 4.16285e-21 0.158347)
(9.55735 3.04896e-21 0.182492)
(9.30913 -4.37786e-22 0.18043)
(9.41316 -1.22823e-20 0.211042)
(9.12564 -2.52471e-21 0.204523)
(9.24803 1.38136e-20 0.242095)
(8.91854 -7.83595e-22 0.230915)
(9.06106 -2.86537e-24 0.276035)
(8.68652 1.5782e-20 0.259892)
(8.85116 1.32308e-20 0.313251)
(8.4281 -7.78166e-22 0.291733)
(8.61704 2.54643e-22 0.354132)
(8.14168 -3.10555e-20 0.326701)
(8.35728 -1.5111e-20 0.39906)
(7.82558 -5.40933e-21 0.365012)
(8.07029 -1.5935e-20 0.448381)
(7.47807 5.71319e-21 0.406805)
(7.75444 -1.45643e-20 0.502365)
(7.09752 2.96934e-22 0.452087)
(7.40805 3.80423e-20 0.561159)
(6.68248 -3.37157e-20 0.500667)
(7.02953 7.14606e-20 0.624699)
(6.2319 -4.70549e-22 0.552065)
(6.61748 -1.11023e-19 0.692608)
(5.74538 3.83756e-20 0.605409)
(6.17089 3.62799e-20 0.764062)
(5.22342 -8.23099e-21 0.659307)
(5.68935 7.8309e-20 0.837627)
(4.6679 7.27376e-22 0.711717)
(5.17341 -8.3181e-20 0.911075)
(4.08247 1.09116e-20 0.759804)
(4.62496 7.8787e-23 0.981177)
(3.47315 0 0.79979)
(4.04773 -1.13035e-20 1.04349)
(2.84907 0 0.826774)
(3.44795 0 1.09207)
(2.22384 0 0.834228)
(2.83524 1.84026e-19 1.11909)
(1.62105 9.43457e-20 0.811532)
(2.22518 9.88954e-22 1.11285)
(1.10456 1.99371e-19 0.701069)
(1.63381 -1.02776e-19 1.04722)
(0.575251 -1.27986e-19 0.469352)
(1.08193 9.65879e-20 0.82567)
(0.12204 -4.67535e-19 -0.010986)
(0.589512 -2.26995e-19 0.492074)
(0.268334 -2.20016e-19 -0.175709)
(9.99034 -1.9683e-21 0.0573706)
(9.99137 -4.54085e-25 0.0444254)
(9.9572 -6.11016e-22 0.0853558)
(9.97319 -6.60996e-22 0.080872)
(9.90293 -3.87158e-23 0.111913)
(9.93383 4.05474e-21 0.112768)
(9.82993 3.9716e-23 0.139908)
(9.87118 -9.03334e-21 0.145364)
(9.73844 1.45529e-21 0.169683)
(9.78891 2.11328e-21 0.179712)
(9.62826 -4.46868e-23 0.201414)
(9.68887 5.87942e-21 0.215983)
(9.49908 -1.35974e-20 0.235527)
(9.57084 1.29815e-20 0.254647)
(9.35039 2.31439e-21 0.272515)
(9.43411 -2.36364e-20 0.296308)
(9.18145 1.61536e-20 0.312856)
(9.27804 3.09579e-20 0.34155)
(8.99135 1.41851e-20 0.35702)
(9.10192 -1.17127e-20 0.390937)
(8.77896 -2.46719e-21 0.405485)
(8.90491 1.23548e-20 0.445039)
(8.54302 -1.4281e-20 0.458725)
(8.68598 -4.36092e-20 0.504435)
(8.28211 0 0.517195)
(8.44395 2.98761e-20 0.569702)
(7.99469 -2.50869e-20 0.581285)
(8.17753 7.79042e-21 0.641376)
(7.67916 1.84101e-20 0.651271)
(7.88535 -2.07366e-20 0.719912)
(7.33386 1.09649e-19 0.727228)
(7.56595 3.80931e-20 0.805605)
(6.95722 -8.11714e-21 0.808921)
(7.21786 1.46519e-19 0.898479)
(6.54788 -7.24386e-20 0.895651)
(6.83968 -1.45998e-19 0.998145)
(6.10483 7.67804e-20 0.986072)
(6.43016 0 1.1036)
(5.62777 1.45269e-21 1.07797)
(5.98841 2.35309e-19 1.21298)
(5.11738 -8.27763e-20 1.168)
(5.5141 -2.36494e-19 1.32327)
(4.57579 -2.22207e-20 1.25141)
(5.00782 -1.09128e-20 1.42997)
(4.00724 -1.11662e-20 1.32166)
(4.47149 1.79103e-19 1.52667)
(3.41887 1.86223e-19 1.36988)
(3.90892 -1.61257e-19 1.60447)
(2.82214 1.83292e-19 1.38355)
(3.32638 3.2604e-21 1.65106)
(2.2341 -1.97744e-19 1.3424)
(2.73369 1.99532e-19 1.64852)
(1.67245 -2.07741e-19 1.20332)
(2.1407 -1.96078e-19 1.56834)
(1.10573 -6.34575e-21 0.932205)
(1.55551 -4.14961e-19 1.35952)
(0.567383 2.16459e-20 0.460992)
(0.957665 4.48964e-19 1.00357)
(0.517391 7.32051e-21 0.377143)
(9.98618 1.2987e-21 0.068411)
(9.99011 6.41869e-22 0.0510169)
(9.95308 4.07218e-21 0.107595)
(9.97018 -6.55169e-22 0.097065)
(9.89975 -5.11075e-21 0.145389)
(9.93068 -6.7216e-22 0.139567)
(9.82795 -6.81819e-21 0.184338)
(9.86917 -2.80771e-21 0.182419)
(9.73824 6.58842e-21 0.225255)
(9.78859 -3.05153e-23 0.22725)
(9.63054 1.89996e-20 0.268601)
(9.69067 1.69445e-20 0.274579)
(9.50464 2.45803e-21 0.314974)
(9.57537 1.33735e-22 0.32498)
(9.36017 5.72512e-21 0.365043)
(9.44212 -9.39757e-21 0.379165)
(9.19661 2.53103e-21 0.419469)
(9.29038 1.30847e-20 0.437856)
(9.01328 -1.32308e-20 0.478911)
(9.11963 -1.34057e-20 0.501763)
(8.80936 -2.95191e-20 0.544032)
(8.92921 -2.44698e-20 0.5716)
(8.5839 1.50486e-21 0.615501)
(8.71835 -5.14147e-22 0.648094)
(8.33585 3.73824e-20 0.693968)
(8.48616 8.2533e-20 0.731973)
(8.06407 1.17749e-20 0.780022)
(8.23168 -1.16242e-19 0.823931)
(7.76733 -3.01779e-22 0.874122)
(7.95387 -4.88173e-21 0.92458)
(7.44433 7.63649e-20 0.976505)
(7.65163 6.22145e-20 1.03436)
(7.09376 5.00288e-21 1.08703)
(7.32382 6.21428e-20 1.15344)
(6.71436 -7.1679e-20 1.20501)
(6.96927 -7.2622e-20 1.28151)
(6.30497 1.61555e-19 1.32893)
(6.58682 0 1.41756)
(5.86476 -8.16632e-21 1.45616)
(6.17536 3.16776e-19 1.5596)
(5.39341 -1.61795e-19 1.58256)
(5.73401 -4.68433e-19 1.70423)
(4.89143 1.92778e-19 1.70207)
(5.26218 -1.67744e-19 1.84623)
(4.36062 2.52342e-20 1.80615)
(4.75993 1.90441e-19 1.97797)
(3.80447 -3.42321e-19 1.88302)
(4.22817 -1.84109e-19 2.08879)
(3.22844 2.20081e-20 1.91648)
(3.66881 -2.04327e-19 2.16412)
(2.63888 1.96373e-19 1.88324)
(3.08495 1.74204e-19 2.18443)
(2.03869 -4.05361e-19 1.74804)
(2.47874 -4.19521e-19 2.12336)
(1.4164 5.11342e-20 1.48235)
(1.85101 5.43651e-21 1.9432)
(0.763179 4.29126e-19 1.05548)
(1.17016 -2.6677e-21 1.62313)
(0.612906 9.10416e-19 1.10048)
(9.98422 -1.32865e-21 0.0802562)
(9.98952 1.27795e-21 0.0585403)
(9.95074 -5.39978e-21 0.129238)
(9.96873 -6.57607e-22 0.113447)
(9.8983 1.60129e-21 0.17707)
(9.9293 -5.39681e-21 0.165927)
(9.82781 4.01133e-21 0.22607)
(9.86898 5.53063e-21 0.218798)
(9.7399 1.05496e-20 0.277431)
(9.79026 -1.42574e-20 0.273844)
(9.63456 -2.14799e-21 0.33187)
(9.69469 3.52554e-20 0.331898)
(9.51162 -1.18532e-20 0.390108)
(9.58227 -2.56635e-20 0.393673)
(9.37075 -1.74519e-21 0.452917)
(9.4525 2.03957e-20 0.459973)
(9.21152 -3.20149e-21 0.521073)
(9.30494 -2.89315e-20 0.53163)
(9.03339 -2.47885e-20 0.595349)
(9.13912 2.68185e-20 0.609472)
(8.83569 4.85046e-21 0.676526)
(8.95451 -5.88487e-20 0.694328)
(8.6177 8.15977e-20 0.76539)
(8.75047 2.86323e-20 0.787039)
(8.37861 -7.36608e-20 0.862712)
(8.52629 6.00893e-20 0.888443)
(8.11756 -1.31485e-19 0.969208)
(8.28121 -6.98971e-20 0.999352)
(7.83365 5.8481e-20 1.08547)
(8.01443 -7.22963e-20 1.12049)
(7.52592 4.79973e-20 1.21187)
(7.72511 6.64582e-20 1.25244)
(7.19336 -1.71529e-20 1.34839)
(7.41234 -8.75823e-21 1.39547)
(6.83492 0 1.49444)
(7.07518 -1.43641e-19 1.54942)
(6.44951 1.59263e-19 1.64854)
(6.71255 2.96372e-19 1.71341)
(6.036 -1.52956e-19 1.80796)
(6.32329 2.35347e-20 1.88552)
(5.59334 -4.70902e-19 1.9683)
(5.90606 -3.44579e-19 2.06238)
(5.12063 -1.65692e-19 2.12289)
(5.45939 -1.88421e-19 2.23861)
(4.61726 -2.31011e-20 2.26224)
(4.98167 -3.4577e-19 2.40628)
(4.08303 -4.6323e-20 2.37328)
(4.47119 3.10075e-19 2.55421)
(3.51789 -4.78696e-20 2.43865)
(3.9261 -2.33079e-20 2.66734)
(2.92114 -4.48284e-19 2.43573)
(3.34427 -3.50004e-22 2.72632)
(2.28922 -4.29889e-21 2.33532)
(2.72219 -3.82377e-19 2.70688)
(1.61092 -4.62465e-20 2.11297)
(2.05726 4.06555e-19 2.57857)
(0.870065 4.66444e-19 1.73934)
(1.31026 -4.37842e-19 2.32546)
(0.664367 1.36789e-18 1.89549)
(9.98337 1.91162e-21 0.0924327)
(9.98928 3.82753e-21 0.0664686)
(9.94978 -7.17387e-22 0.150615)
(9.96824 -4.56626e-21 0.129887)
(9.8984 -1.32713e-21 0.208161)
(9.92928 -1.34497e-21 0.191757)
(9.82962 -1.29995e-20 0.267129)
(9.8704 0 0.254302)
(9.74394 1.11001e-20 0.328855)
(9.79388 -2.27826e-20 0.319261)
(9.64143 1.09323e-20 0.394228)
(9.7011 3.51004e-20 0.387696)
(9.52191 7.18761e-21 0.464071)
(9.59205 1.21231e-20 0.460464)
(9.38512 -7.43867e-21 0.539247)
(9.46631 -2.81058e-21 0.538462)
(9.23067 1.81162e-21 0.620633)
(9.32348 -3.10886e-21 0.622618)
(9.05808 -8.35311e-21 0.709111)
(9.16315 4.16991e-22 0.713859)
(8.8668 -3.3934e-20 0.805566)
(8.98487 -3.77851e-20 0.813115)
(8.65619 7.52209e-21 0.910891)
(8.78807 -5.00192e-20 0.921322)
(8.4256 6.21916e-20 1.02596)
(8.57214 1.25036e-19 1.03941)
(8.17432 -1.07171e-20 1.1516)
(8.33643 -1.39782e-20 1.16829)
(7.90161 -6.25788e-20 1.2885)
(8.08024 -6.33978e-20 1.30879)
(7.60667 8.7281e-21 1.43717)
(7.80283 0 1.46159)
(7.28868 -1.36983e-19 1.59772)
(7.50342 8.61959e-21 1.62709)
(6.94666 1.58226e-19 1.76971)
(7.1811 -1.43691e-19 1.8053)
(6.57952 1.57347e-19 1.95185)
(6.8348 2.96486e-19 1.99554)
(6.18589 -1.72529e-19 2.14157)
(6.46318 -3.05018e-19 2.19615)
(5.76408 -6.03018e-20 2.33462)
(6.06451 1.35735e-19 2.40409)
(5.31203 -3.70477e-19 2.52442)
(5.63653 -1.95617e-22 2.61435)
(4.82714 -4.87554e-21 2.70148)
(5.17627 -3.24999e-19 2.81938)
(4.30624 3.29209e-19 2.85276)
(4.67995 7.05876e-19 3.00847)
(3.74535 2.45931e-20 2.96122)
(4.14283 -3.3744e-19 3.16713)
(3.13932 6.14884e-20 3.00566)
(3.55921 2.40929e-20 3.27685)
(2.48084 3.6854e-20 2.9606)
(2.92174 4.03709e-19 3.31515)
(1.75912 6.79262e-21 2.80403)
(2.22701 -4.03012e-19 3.25512)
(0.962958 4.62596e-19 2.50448)
(1.4319 -4.14427e-19 3.08094)
(0.717705 8.92906e-19 2.73526)
(9.98314 -2.7954e-21 0.104692)
(9.98923 3.81858e-21 0.0745077)
(9.94985 -5.15111e-21 0.171664)
(9.96839 -3.91737e-21 0.146184)
(9.89974 0 0.238509)
(9.93026 5.35198e-21 0.216949)
(9.83299 -1.00833e-20 0.307089)
(9.87311 -5.48152e-21 0.288764)
(9.74996 1.97963e-21 0.378796)
(9.79912 -8.54278e-21 0.363284)
(9.65074 3.59865e-20 0.454666)
(9.70955 1.16477e-20 0.441714)
(9.5352 1.92309e-21 0.535639)
(9.60439 2.41769e-20 0.525048)
(9.40311 1.50752e-21 0.622675)
(9.48325 -1.85657e-20 0.614277)
(9.25412 -4.4609e-21 0.716747)
(9.34581 2.89635e-20 0.710414)
(9.08782 -2.9516e-20 0.818833)
(9.1917 -2.3122e-20 0.814479)
(8.90371 -5.40283e-20 0.929913)
(9.02053 3.42023e-21 0.927493)
(8.70123 6.97419e-20 1.05097)
(8.83179 -5.70887e-20 1.05048)
(8.47978 4.70989e-20 1.18296)
(8.62492 1.76223e-19 1.18447)
(8.23873 -6.72889e-20 1.32681)
(8.39933 -1.13064e-19 1.33045)
(7.97739 0 1.48332)
(8.15437 -1.25565e-19 1.48935)
(7.69502 0 1.6531)
(7.88931 1.28522e-19 1.66198)
(7.39077 0 1.83644)
(7.60336 -1.34631e-19 1.84889)
(7.06365 0 2.03311)
(7.29553 1.20567e-19 2.05028)
(6.71237 -1.73384e-19 2.24209)
(6.96462 0 2.26578)
(6.33527 8.68024e-21 2.46123)
(6.60902 -1.71284e-19 2.49413)
(5.93005 1.94225e-19 2.68678)
(6.22656 -1.33435e-19 2.73284)
(5.49362 4.13762e-20 2.91278)
(5.81422 2.36812e-20 2.97766)
(5.02184 3.98156e-19 3.13049)
(5.36792 2.38398e-20 3.22198)
(4.50933 2.67887e-20 3.32773)
(4.88223 3.36676e-20 3.45615)
(3.94936 -3.3373e-19 3.48849)
(4.35022 3.85798e-20 3.6669)
(3.33391 3.70627e-19 3.59283)
(3.76368 -7.31423e-19 3.83687)
(2.65373 -4.36253e-20 3.61695)
(3.1125 1.50558e-18 3.94468)
(1.89921 -8.244e-19 3.53847)
(2.39335 -1.21214e-18 3.96396)
(1.06421 1.61071e-20 3.32131)
(1.56241 -4.21177e-19 3.87488)
(0.786041 4.29499e-19 3.61214)
(9.98329 2.57261e-21 0.116834)
(9.9893 4.7346e-25 0.0824773)
(9.95066 6.70915e-21 0.192232)
(9.96897 5.20227e-21 0.162159)
(9.90208 -2.68341e-22 0.267941)
(9.93203 3.27141e-23 0.241376)
(9.83767 -3.98118e-21 0.34573)
(9.87689 -1.78115e-20 0.322029)
(9.75768 1.39143e-21 0.427016)
(9.80575 1.12282e-20 0.405706)
(9.66221 0 0.512951)
(9.71979 2.8895e-21 0.493702)
(9.55118 3.12456e-21 0.604587)
(9.61899 2.39375e-20 0.587129)
(9.4244 9.50621e-21 0.702972)
(9.50301 -2.44996e-20 0.687067)
(9.28157 9.62588e-21 0.809164)
(9.37159 3.20205e-21 0.794613)
(9.12232 1.01577e-20 0.924229)
(9.22441 6.8347e-24 0.910869)
(8.94621 -4.11401e-22 1.04923)
(9.06114 6.82628e-21 1.03694)
(8.75276 5.23725e-20 1.18525)
(8.88132 -1.03353e-22 1.17395)
(8.54139 1.2386e-20 1.33334)
(8.68445 5.99682e-22 1.323)
(8.3115 -1.7151e-19 1.4945)
(8.46998 -6.04449e-20 1.48519)
(8.06242 6.11541e-21 1.66967)
(8.23726 -1.88264e-19 1.66157)
(7.79336 -9.41573e-21 1.85961)
(7.98556 2.71288e-19 1.85308)
(7.5034 -1.09433e-20 2.06479)
(7.71401 -2.67266e-19 2.06046)
(7.19138 1.19092e-19 2.28528)
(7.42152 2.73369e-19 2.2842)
(6.85578 0 2.52047)
(7.10665 0 2.52427)
(6.49451 -3.13088e-19 2.76877)
(6.76749 -3.10842e-19 2.77999)
(6.10467 -3.0234e-19 3.02722)
(6.40137 -2.93612e-19 3.04962)
(5.68227 6.22235e-21 3.29089)
(6.00457 -2.86948e-19 3.32993)
(5.22189 -3.40679e-19 3.55228)
(5.57201 -3.72241e-20 3.61563)
(4.71641 4.56101e-20 3.80063)
(5.09689 -6.72721e-19 3.89867)
(4.15704 -3.68171e-19 4.02128)
(4.57046 6.96588e-19 4.16738)
(3.53358 4.2924e-19 4.19531)
(3.98234 -4.16999e-20 4.40576)
(2.83532 3.11428e-19 4.29905)
(3.31986 4.07267e-19 4.59295)
(2.05302 -8.00616e-19 4.30698)
(2.57895 -2.12786e-20 4.70129)
(1.18362 -1.34419e-20 4.17596)
(1.71757 -1.56882e-18 4.70377)
(0.875402 8.64751e-19 4.52628)
(9.98368 2.69735e-21 0.128704)
(9.98946 -1.26858e-21 0.0902576)
(9.95203 -1.55427e-21 0.212174)
(9.96987 5.19416e-21 0.177657)
(9.90525 -1.77425e-20 0.296316)
(9.9344 -1.06331e-20 0.264908)
(9.84346 -2.22648e-21 0.382882)
(9.88157 -4.16648e-21 0.353948)
(9.76687 1.26179e-20 0.473309)
(9.81359 9.81928e-21 0.446336)
(9.67558 2.71022e-20 0.568839)
(9.7316 3.05897e-24 0.543426)
(9.56957 -4.31869e-21 0.670619)
(9.6356 2.39401e-20 0.646427)
(9.44867 -3.04481e-20 0.779779)
(9.52531 -5.5166e-20 0.756506)
(9.31264 -6.4582e-21 0.897459)
(9.40048 2.5066e-20 0.874833)
(9.16118 -3.23779e-21 1.02481)
(9.2609 -3.27998e-21 1.00259)
(8.9939 7.04616e-21 1.16297)
(9.10627 5.38443e-20 1.14096)
(8.81036 -5.18753e-20 1.31312)
(8.9362 -6.19503e-20 1.29115)
(8.61006 -7.30201e-20 1.4764)
(8.75027 -5.09064e-20 1.45437)
(8.3924 -7.88136e-20 1.65394)
(8.54793 -1.26641e-19 1.63181)
(8.15671 8.25961e-20 1.84682)
(8.32859 -7.14485e-20 1.82467)
(7.90216 6.71552e-21 2.05596)
(8.09149 3.9407e-19 2.03404)
(7.62772 2.36325e-20 2.28212)
(7.83571 -2.61799e-19 2.26093)
(7.33205 1.50901e-19 2.52571)
(7.56004 2.8742e-19 2.50612)
(7.01334 -3.1473e-19 2.78664)
(7.26284 -1.37577e-19 2.77009)
(6.66909 -2.91315e-19 3.06405)
(6.94188 -2.93068e-19 3.05281)
(6.29581 -2.7832e-19 3.356)
(6.59405 1.54716e-20 3.35346)
(5.88869 -3.27399e-19 3.65889)
(6.21502 -2.90706e-19 3.67013)
(5.44117 -3.76905e-19 3.96689)
(5.7988 2.92885e-19 3.99917)
(4.94463 -5.33019e-21 4.27106)
(5.33733 -9.96706e-19 4.33453)
(4.38831 1.01476e-18 4.55845)
(4.8201 6.50812e-19 4.66668)
(3.75977 -5.86259e-20 4.81108)
(4.23441 4.59562e-21 4.98134)
(3.04615 7.3257e-20 5.00455)
(3.56437 -2.72902e-20 5.25814)
(2.23674 -8.06797e-19 5.10804)
(2.80275 7.72731e-20 5.46726)
(1.32951 -6.75156e-19 5.06851)
(1.91056 -8.2333e-19 5.5716)
(0.991304 8.64657e-19 5.48508)
(9.98426 1.31151e-21 0.140183)
(9.98968 0 0.0977632)
(9.95384 -4.10614e-21 0.23136)
(9.97101 2.58039e-21 0.192556)
(9.9091 3.02377e-21 0.323497)
(9.93727 -6.6319e-21 0.287418)
(9.8502 8.05714e-21 0.41838)
(9.887 5.4523e-21 0.384379)
(9.77735 -2.92416e-21 0.51747)
(9.82246 0 0.484997)
(9.69065 -2.84902e-21 0.622079)
(9.7448 -5.74645e-21 0.59067)
(9.5901 -2.79366e-20 0.733435)
(9.65401 2.0723e-20 0.702688)
(9.47561 1.38364e-21 0.852747)
(9.54985 -4.87524e-20 0.822291)
(9.34698 2.78843e-20 0.981225)
(9.43217 2.823e-20 0.950721)
(9.20398 5.45347e-20 1.12009)
(9.30079 -4.53308e-20 1.08923)
(9.04629 -1.66123e-20 1.27059)
(9.15549 1.06786e-19 1.23907)
(8.87354 -6.08454e-20 1.43396)
(8.99596 -6.20491e-20 1.40154)
(8.68526 -1.05493e-19 1.61146)
(8.82182 6.37913e-20 1.57793)
(8.48092 -1.1866e-19 1.80435)
(8.63263 -1.69137e-19 1.76957)
(8.25985 2.45747e-19 2.01387)
(8.42781 -8.69471e-21 1.97778)
(8.0212 1.17538e-19 2.24116)
(8.20663 2.20436e-19 2.20387)
(7.76388 8.67352e-21 2.4873)
(7.96817 -2.57403e-19 2.44911)
(7.48639 -6.21205e-21 2.75311)
(7.71115 3.97647e-19 2.71468)
(7.1867 -1.17787e-19 3.03915)
(7.43381 -2.72503e-19 3.00159)
(6.86196 1.74396e-20 3.34544)
(7.13372 1.79543e-20 3.31059)
(6.50821 -6.18579e-22 3.67122)
(6.80745 -3.61157e-20 3.64198)
(6.11991 3.36793e-19 4.01455)
(6.45019 -2.94373e-19 3.99533)
(5.6895 -3.42257e-19 4.37163)
(6.05525 6.36733e-19 4.36902)
(5.20687 -3.2097e-19 4.73591)
(5.61342 -9.73469e-19 4.75949)
(4.65911 -3.67454e-19 5.09672)
(5.11239 3.30874e-19 5.16009)
(4.03074 3.6046e-20 5.43752)
(4.53659 -6.65563e-19 5.5592)
(3.30501 -2.23254e-20 5.73315)
(3.86559 6.84919e-19 5.93778)
(2.4667 5.04864e-20 5.94612)
(3.08504 -7.11725e-19 6.26429)
(1.51118 7.20644e-19 6.00932)
(2.15725 7.45004e-19 6.48921)
(1.14169 6.92491e-19 6.50693)
(9.98497 1.30219e-21 0.151179)
(9.98994 -1.25055e-21 0.10493)
(9.95599 -6.74421e-23 0.249672)
(9.97235 5.94398e-25 0.206751)
(9.91352 -4.04916e-21 0.349354)
(9.94054 1.31188e-21 0.308792)
(9.85778 -2.67675e-21 0.45207)
(9.89308 -1.35968e-21 0.41319)
(9.78896 -2.89722e-21 0.559311)
(9.83224 1.11182e-20 0.521528)
(9.7072 1.81698e-20 0.672444)
(9.75921 -1.13802e-20 0.63524)
(9.61254 -9.89417e-22 0.79277)
(9.67399 1.46525e-22 0.755678)
(9.50493 -2.09182e-20 0.921562)
(9.5764 -1.83106e-20 0.88415)
(9.38425 -4.59292e-20 1.0601)
(9.46633 4.65384e-20 1.02196)
(9.25033 8.83929e-21 1.20967)
(9.34369 -7.40443e-20 1.17041)
(9.10293 5.92282e-20 1.37159)
(9.20834 4.63843e-20 1.33084)
(8.94175 6.41844e-20 1.5472)
(9.06005 6.8733e-21 1.5046)
(8.76641 -2.72473e-21 1.73785)
(8.89853 1.05752e-19 1.6931)
(8.57644 -5.72141e-20 1.94494)
(8.72342 -1.22456e-19 1.89776)
(8.37122 -3.12675e-20 2.16987)
(8.53422 1.48782e-20 2.12006)
(8.14994 -1.6036e-19 2.41407)
(8.33029 -1.5636e-20 2.36153)
(7.91149 1.3948e-19 2.67892)
(8.11075 -1.28242e-19 2.62372)
(7.65435 1.23462e-19 2.96578)
(7.87436 2.63104e-19 2.90823)
(7.37637 -1.33284e-19 3.27587)
(7.61938 1.47333e-19 3.21667)
(7.07454 -3.62514e-20 3.61022)
(7.34336 -2.71222e-19 3.55065)
(6.74459 -3.32998e-19 3.96949)
(7.04279 -1.82254e-20 3.91167)
(6.3805 1.64077e-20 4.35361)
(6.71266 -6.16358e-19 4.30102)
(5.97391 -1.32896e-20 4.76132)
(6.34589 5.9581e-19 4.71944)
(5.51332 -3.06127e-19 5.18914)
(5.93248 -2.90912e-19 5.16648)
(4.98336 2.10426e-20 5.62983)
(5.45843 0 5.63944)
(4.36438 -4.22213e-22 6.06977)
(4.90489 1.65763e-21 6.13113)
(3.63299 -2.12917e-20 6.48456)
(4.24531 6.37516e-19 6.62636)
(2.76424 -8.02221e-22 6.83031)
(3.45268 -1.3505e-18 7.09471)
(1.74258 7.15702e-19 7.02042)
(2.4832 1.34763e-18 7.47496)
(1.34203 2.55362e-20 7.63069)
(9.98578 -2.53604e-21 0.161616)
(9.99023 -4.55952e-25 0.111709)
(9.95842 1.39734e-21 0.267011)
(9.97383 2.55275e-21 0.220158)
(9.91842 3.9662e-21 0.373771)
(9.94414 6.57291e-21 0.328925)
(9.86606 1.25992e-20 0.483813)
(9.89969 -9.38121e-21 0.440263)
(9.80155 2.34248e-21 0.598662)
(9.8428 6.11538e-23 0.555785)
(9.72505 -2.92576e-20 0.719733)
(9.77466 2.55197e-20 0.676961)
(9.63664 -1.74159e-20 0.848383)
(9.69533 -4.38305e-20 0.805192)
(9.53634 4.99791e-20 0.985944)
(9.60467 -1.40126e-22 0.94184)
(9.42409 1.69014e-20 1.13375)
(9.50264 -2.86816e-21 1.08826)
(9.29979 -3.49851e-20 1.29315)
(9.38923 1.54892e-20 1.2458)
(9.16331 -6.4756e-21 1.46553)
(9.26437 5.23119e-20 1.41587)
(9.01442 4.96763e-20 1.6523)
(9.12794 -5.34697e-20 1.59988)
(8.85285 -1.67657e-20 1.85493)
(8.97976 -6.31134e-21 1.79932)
(8.67823 -4.86748e-20 2.07493)
(8.81957 -7.64962e-22 2.01571)
(8.49004 3.01371e-20 2.3139)
(8.64701 -1.09636e-19 2.25069)
(8.28757 1.51413e-20 2.5735)
(8.46157 2.19946e-20 2.50598)
(8.06981 0 2.85549)
(8.2625 -7.5305e-22 2.78343)
(7.83531 2.85675e-19 3.16173)
(8.04873 1.33848e-19 3.08504)
(7.58203 4.75195e-21 3.4942)
(7.81872 2.50007e-19 3.41304)
(7.30701 -2.50335e-19 3.85499)
(7.5702 -2.20718e-20 3.76988)
(7.00602 -3.08524e-19 4.24625)
(7.29991 1.83266e-20 4.15834)
(6.67295 -2.31614e-20 4.6701)
(7.00312 -2.81454e-20 4.58151)
(6.2991 3.08073e-19 5.12825)
(6.67292 3.09733e-19 5.04276)
(5.87197 1.87361e-20 5.62126)
(6.29922 3.23139e-19 5.54542)
(5.3739 -1.93766e-20 6.14708)
(5.86716 -2.91953e-19 6.09206)
(4.78018 6.47428e-19 6.69799)
(5.35508 -1.83418e-20 6.68267)
(4.05747 -7.18097e-19 7.25487)
(4.72964 6.40614e-19 7.31083)
(3.1629 3.40801e-20 7.77226)
(3.94547 -1.95085e-18 7.95521)
(2.05283 6.39941e-19 8.14089)
(2.93693 2.58001e-18 8.55243)
(1.62775 -1.94942e-18 8.92756)
(9.98668 5.12153e-21 0.171434)
(9.99055 6.30376e-22 0.118062)
(9.96107 7.772e-21 0.28329)
(9.97544 5.11225e-21 0.232707)
(9.92373 -6.97315e-21 0.396644)
(9.948 3.94292e-21 0.34773)
(9.87495 -2.17974e-20 0.513485)
(9.90675 -9.40143e-21 0.465492)
(9.81499 2.35692e-20 0.635375)
(9.85401 -1.10593e-20 0.587643)
(9.74402 1.00526e-20 0.763767)
(9.79101 3.4045e-20 0.715682)
(9.66218 -2.59937e-20 0.900063)
(9.71783 -4.55109e-23 0.851049)
(9.56955 -5.303e-20 1.04564)
(9.63442 -2.6732e-20 0.995148)
(9.46614 -4.05868e-21 1.20189)
(9.54078 -5.24847e-20 1.14937)
(9.35195 1.03262e-19 1.3702)
(9.43699 9.77481e-20 1.31512)
(9.22692 4.0156e-21 1.552)
(9.32309 7.39329e-21 1.49383)
(9.09095 -1.0889e-19 1.74879)
(9.19906 6.34897e-21 1.68698)
(8.94389 9.7473e-21 1.96211)
(9.06484 -1.09755e-19 1.8961)
(8.7855 -6.30504e-20 2.19361)
(8.92031 6.3712e-20 2.12283)
(8.61541 -1.16293e-19 2.44503)
(8.76527 -1.2448e-19 2.36892)
(8.43308 5.72776e-21 2.71828)
(8.59942 1.24811e-19 2.63626)
(8.23772 1.34608e-19 3.01546)
(8.42223 -1.21345e-19 2.92696)
(8.02812 9.95414e-20 3.33891)
(8.23292 1.26104e-19 3.2434)
(7.80254 2.20245e-19 3.69134)
(8.03031 -1.43154e-19 3.58834)
(7.55841 2.47565e-19 4.07586)
(7.81263 3.94851e-19 3.96502)
(7.29193 2.98657e-19 4.49618)
(7.57724 -7.42461e-21 4.3774)
(6.99756 3.08533e-19 4.95665)
(7.32022 2.94323e-19 4.83032)
(6.66706 3.24889e-19 5.46234)
(7.03572 1.45322e-22 5.32981)
(6.28806 6.01694e-21 6.01879)
(6.71485 2.95306e-19 5.88332)
(5.8418 -2.87966e-19 6.63129)
(6.34378 -1.75856e-20 6.49987)
(5.29933 -1.75824e-20 7.30278)
(5.9007 1.37718e-20 7.18977)
(4.61566 -6.25562e-19 8.02876)
(5.34852 -8.24541e-19 7.96286)
(3.72003 6.63607e-19 8.77877)
(4.62311 -4.29675e-20 8.82335)
(2.50831 -8.55859e-20 9.43563)
(3.61647 1.23241e-18 9.73821)
(2.08497 -7.34582e-19 10.5278)
(9.98764 6.78599e-22 0.180584)
(9.9909 -2.09639e-25 0.123957)
(9.96391 1.25712e-21 0.298438)
(9.97713 1.27406e-21 0.244341)
(9.92936 1.35113e-21 0.417882)
(9.95209 0 0.365132)
(9.88434 1.31618e-21 0.54098)
(9.91419 -1.32553e-21 0.488786)
(9.82912 0 0.669324)
(9.86576 0 0.616993)
(9.76392 2.35061e-20 0.804398)
(9.80809 -1.3961e-21 0.751274)
(9.68892 -1.12042e-21 0.947639)
(9.7413 2.1776e-20 0.893098)
(9.60426 -2.6513e-20 1.10046)
(9.66538 -6.83878e-23 1.0439)
(9.51004 5.12131e-20 1.26428)
(9.58043 -2.72099e-20 1.2051)
(9.40634 7.55723e-22 1.44054)
(9.4866 5.35497e-20 1.37812)
(9.29321 9.72815e-21 1.63069)
(9.38403 -2.46244e-22 1.56443)
(9.17069 4.09388e-21 1.83629)
(9.27281 -2.34976e-21 1.76554)
(9.03875 -5.36996e-20 2.05894)
(9.15304 -3.87035e-22 1.98304)
(8.89732 0 2.30038)
(9.02476 -5.50934e-20 2.21861)
(8.74624 1.19585e-19 2.5625)
(8.88798 1.13465e-19 2.4741)
(8.58523 -5.16833e-21 2.84739)
(8.74261 -1.20232e-20 2.75153)
(8.41377 -1.27087e-19 3.15744)
(8.58846 -1.20635e-19 3.0532)
(8.23109 -1.19791e-19 3.4954)
(8.42515 -1.53122e-20 3.38178)
(8.03596 3.73931e-20 3.86457)
(8.25204 -1.10818e-19 3.74042)
(7.82652 1.35558e-19 4.26899)
(8.06807 1.53255e-19 4.13302)
(7.59996 -8.0505e-21 4.7137)
(7.87165 7.8504e-21 4.56442)
(7.35203 -1.74157e-20 5.20516)
(7.66028 2.66007e-19 5.04091)
(7.07619 -2.61524e-20 5.75169)
(7.43017 -5.3922e-19 5.57076)
(6.76219 2.68711e-19 6.36419)
(7.17537 5.06567e-19 6.16514)
(6.39332 2.85898e-19 7.05694)
(6.88624 1.26551e-20 6.83952)
(5.94112 -8.01813e-19 7.84855)
(6.54663 -2.41858e-19 7.61599)
(5.35434 -2.31556e-19 8.7634)
(6.12697 -5.48574e-19 8.52746)
(4.53326 5.49985e-19 9.82592)
(5.56502 5.73458e-19 9.62716)
(3.26738 5.44675e-19 11.0126)
(4.72882 0 10.9927)
(2.93059 4.74311e-19 12.6866)
(9.98865 6.11632e-22 0.189026)
(9.99126 4.84492e-23 0.129371)
(9.96688 0 0.312392)
(9.97891 0 0.255014)
(9.93526 -2.69408e-21 0.437405)
(9.95634 0 0.381067)
(9.89415 -2.62446e-21 0.566193)
(9.92191 -2.07934e-21 0.510072)
(9.84384 -1.41425e-21 0.700375)
(9.87796 1.15487e-20 0.643748)
(9.78459 -2.82959e-21 0.841458)
(9.82578 -1.06072e-20 0.783635)
(9.71665 2.25523e-20 0.990905)
(9.76559 1.2384e-21 0.931219)
(9.6402 -1.10072e-21 1.15015)
(9.6974 2.41115e-20 1.08795)
(9.55544 -2.38632e-20 1.32064)
(9.6214 -6.73245e-20 1.25527)
(9.46254 5.18956e-20 1.50381)
(9.53784 4.9443e-20 1.43462)
(9.36167 -1.23197e-20 1.70118)
(9.44695 5.22243e-20 1.62746)
(9.25299 -6.78225e-21 1.91429)
(9.34897 -1.09459e-19 1.83533)
(9.13664 -2.39881e-21 2.14481)
(9.24414 1.02069e-19 2.05982)
(9.01274 6.04129e-20 2.39454)
(9.13268 -5.6143e-20 2.30267)
(8.88139 -1.95413e-20 2.66543)
(9.01483 6.74129e-21 2.56575)
(8.74258 -1.28687e-19 2.95972)
(8.8908 9.30692e-20 2.85115)
(8.59622 -7.6017e-21 3.27998)
(8.76076 3.58626e-21 3.16129)
(8.44205 -7.42719e-21 3.62925)
(8.62482 -2.25067e-19 3.49898)
(8.27957 7.87653e-21 4.01124)
(8.483 1.14296e-19 3.86761)
(8.10793 2.3864e-20 4.43061)
(8.33519 1.12779e-19 4.27141)
(7.92577 2.84829e-19 4.89337)
(8.18111 8.14349e-21 4.71575)
(7.73092 -2.6368e-19 5.40745)
(8.02023 3.84337e-19 5.20769)
(7.51998 3.51634e-21 5.9837)
(7.85171 -4.14055e-19 5.75678)
(7.28738 2.47242e-19 6.63731)
(7.67422 1.71421e-19 6.37634)
(7.02358 -5.16743e-19 7.39063)
(7.48578 -3.12999e-20 7.08581)
(6.71101 4.1782e-21 8.27848)
(7.28368 -2.5909e-19 7.91531)
(6.31383 2.70965e-19 9.36209)
(7.0656 3.66937e-19 8.91607)
(5.74623 1.57353e-20 10.7713)
(6.83497 -1.12924e-19 10.1918)
(4.73679 -6.59342e-20 13.0273)
(6.77201 0 12.0152)
(5.95613 1.59427e-19 15.9617)
(0.244399 1.41876e-21 -0.159201)
(0.127268 -2.19589e-22 -0.234974)
(0.484584 -4.15553e-22 -0.138969)
(0.347081 -1.06091e-20 -0.224774)
(0.690753 -1.50202e-21 -0.110457)
(0.557668 4.34163e-21 -0.187266)
(0.860137 -1.30004e-21 -0.0839177)
(0.744681 -8.43541e-23 -0.149634)
(0.9952 -9.64166e-23 -0.0609558)
(0.899701 1.26161e-21 -0.116228)
(1.09854 1.11099e-21 -0.0412438)
(1.02372 1.33487e-21 -0.0867472)
(1.1723 -5.31415e-24 -0.0243487)
(1.1201 -5.6277e-23 -0.0604693)
(1.21858 6.89615e-23 -0.0101282)
(1.19154 -2.35327e-21 -0.0370796)
(1.23998 0 0.00124398)
(1.24004 -2.04978e-21 -0.0167626)
(1.24029 0 0.00944403)
(1.26759 -2.02601e-22 -0.000213594)
(1.22466 1.12598e-22 0.0143944)
(1.27667 0 0.0117803)
(1.19885 1.15031e-22 0.0164761)
(1.27073 -9.02341e-22 0.019027)
(1.16823 -1.0319e-22 0.0163897)
(1.25594 1.52486e-21 0.0221097)
(1.13709 -1.05414e-22 0.0148917)
(1.23746 -2.01251e-23 0.0220195)
(1.10844 0 0.0125757)
(1.21896 -8.05285e-22 0.0198466)
(1.08418 8.78162e-23 0.00987072)
(1.20283 -3.69478e-22 0.016464)
(1.06532 9.75762e-24 0.00709804)
(1.19044 1.82729e-22 0.0125413)
(1.05215 -1.53039e-22 0.00449671)
(1.18234 -8.08294e-23 0.00858688)
(1.04438 -7.0671e-23 0.00219907)
(1.17833 5.51782e-24 0.00496977)
(1.04147 2.2755e-24 0.000183884)
(1.17771 -6.80477e-23 0.00183793)
(1.04307 0 -0.00164948)
(1.17954 0 -0.000955207)
(1.04903 5.05303e-23 -0.00332831)
(1.18322 0 -0.00353297)
(1.05916 5.16296e-23 -0.00477615)
(1.1886 -9.56893e-23 -0.00590495)
(1.0732 0 -0.00587827)
(1.19587 1.35439e-22 -0.00801438)
(1.0905 0 -0.00660453)
(1.20508 -4.03514e-23 -0.00967683)
(1.11029 -2.3403e-23 -0.00715668)
(1.21592 0 -0.0108448)
(1.1324 -2.55914e-23 -0.00795361)
(1.22795 1.05423e-23 -0.0118629)
(1.15777 -1.01829e-23 -0.0092091)
(1.24118 -1.85143e-23 -0.013336)
(1.18724 -8.53431e-24 -0.0101405)
(1.25676 2.82911e-23 -0.0151798)
(1.28067 -6.78768e-24 -0.0147706)
(0.21386 -1.19841e-20 -0.349128)
(0.0869752 -6.04526e-21 -0.446022)
(0.43317 -5.4374e-21 -0.314859)
(0.294321 -1.199e-20 -0.429822)
(0.627011 5.82178e-21 -0.259142)
(0.477535 5.8237e-21 -0.362859)
(0.791865 2.44817e-21 -0.206102)
(0.642314 5.37264e-21 -0.294822)
(0.930366 2.60154e-21 -0.15962)
(0.783029 -2.57261e-21 -0.235063)
(1.04523 1.0745e-22 -0.118921)
(0.901087 -1.43384e-23 -0.1829)
(1.13845 -2.38332e-21 -0.0829618)
(0.999181 -4.49195e-21 -0.136702)
(1.2116 -4.46625e-21 -0.0512593)
(1.07929 2.12596e-21 -0.0955722)
(1.26586 -2.33078e-21 -0.0239072)