/*--------------------------------*- C++ -*----------------------------------*\
| =========                 |                                                 |
| \\      /  F ield         | OpenFOAM: The Open Source CFD Toolbox           |
|  \\    /   O peration     | Version:  dev                                   |
|   \\  /    A nd           | Web:      www.OpenFOAM.org                      |
|    \\/     M anipulation  |                                                 |
\*---------------------------------------------------------------------------*/
FoamFile
{
    version     2.0;
    format      ascii;
    class       volVectorField;
    location    "1.93";
    object      Force;
}
// * * * * * * * * * * * * * * * * * * * * * * * * * * * * * * * * * * * * * //

dimensions      [1 1 -2 0 0 0 0];

internalField   uniform (0 0 0);

boundaryField
{
    inlet
    {
        type            calculated;
        value           nonuniform 0();
    }
    outlet
    {
        type            calculated;
        value           nonuniform 0();
    }
    flap
    {
        type            calculated;
        value           nonuniform List<vector> 
33
(
(2.50461 2.09065e-17 -0.238044)
(2.428 4.08553e-17 -0.550008)
(2.26393 -4.66795e-22 -0.819213)
(2.03413 1.98045e-17 -0.988829)
(1.77961 2.98291e-22 -1.07168)
(1.53182 9.67828e-18 -1.08934)
(1.30904 1.4851e-22 -1.06277)
(1.11991 1.79467e-17 -1.00934)
(0.962632 1.73777e-17 -0.940868)
(0.831447 -4.00616e-23 -0.863502)
(0.719803 3.45041e-23 -0.779786)
(0.618962 4.1927e-23 -0.688183)
(0.519097 1.45524e-17 -0.584453)
(0.409254 -3.33658e-18 -0.461123)
(0.274878 1.34092e-17 -0.308815)
(0.622965 1.64565e-17 0.542015)
(0.402439 -1.43094e-18 0.350101)
(0.185182 -8.40073e-18 0.162183)
(0.0521035 -2.75506e-40 -0.00508877)
(0.0518104 -4.01998e-23 -0.0118895)
(0.050952 3.5855e-23 -0.0186793)
(0.0496304 -1.61967e-19 -0.0243468)
(0.0480439 1.36822e-22 -0.0291996)
(0.0463941 -5.56753e-23 -0.0333174)
(0.0448444 -1.35744e-17 -0.0367806)
(0.0434431 1.39611e-17 -0.0396091)
(0.0422131 1.40069e-17 -0.0418069)
(0.0411113 1.4718e-17 -0.0433452)
(0.0400484 -3.26804e-19 -0.0441386)
(0.0391303 3.22883e-19 -0.0443345)
(0.038485 1.69479e-17 -0.0442242)
(0.0386487 -3.91756e-22 -0.0439927)
(0.0454932 -3.69667e-19 -0.0521964)
)
;
    }
    upperWall
    {
        type            calculated;
        value           nonuniform 0();
    }
    lowerWall
    {
        type            calculated;
        value           uniform (0 0 0);
    }
    frontAndBack
    {
        type            empty;
    }
    procBoundary4to1
    {
        type            processor;
        value           uniform (0 0 0);
    }
    procBoundary4to2
    {
        type            processor;
        value           uniform (0 0 0);
    }
    procBoundary4to3
    {
        type            processor;
        value           uniform (0 0 0);
    }
    procBoundary4to5
    {
        type            processor;
        value           uniform (0 0 0);
    }
}


// ************************************************************************* //
