/*--------------------------------*- C++ -*----------------------------------*\
| =========                 |                                                 |
| \\      /  F ield         | OpenFOAM: The Open Source CFD Toolbox           |
|  \\    /   O peration     | Version:  dev                                   |
|   \\  /    A nd           | Web:      www.OpenFOAM.org                      |
|    \\/     M anipulation  |                                                 |
\*---------------------------------------------------------------------------*/
FoamFile
{
    version     2.0;
    format      ascii;
    class       surfaceScalarField;
    location    "2.53";
    object      meshPhi;
}
// * * * * * * * * * * * * * * * * * * * * * * * * * * * * * * * * * * * * * //

dimensions      [0 3 -1 0 0 0 0];

internalField   nonuniform List<scalar> 
881
(
-0.000125948
3.16546e-05
4.13071e-05
-0.000137755
3.96494e-05
-0.000162244
4.94952e-05
-0.000187537
6.06588e-05
7.29416e-05
-0.000151425
4.81152e-05
-0.000174872
5.8003e-05
-0.000199155
6.89699e-05
-0.000223495
8.09818e-05
9.36693e-05
-0.000167007
5.69533e-05
-0.000189197
6.67602e-05
-0.000212023
7.74393e-05
-0.000234831
8.89256e-05
-0.000256591
0.000100949
-0.000275848
0.000113072
0.000124657
-0.00018427
6.60669e-05
-0.000205081
7.56796e-05
-0.000226331
8.59692e-05
-0.000247291
9.6898e-05
-0.000267186
0.000108172
-0.000284953
0.000119394
-0.000299642
0.000130163
-0.000310232
0.000140043
0.000148436
-0.000203001
7.53416e-05
-0.000222319
8.46636e-05
-0.000241875
9.44844e-05
-0.000260974
0.000104793
-0.000278846
0.000115306
-0.00029461
0.000125676
-0.000307552
0.000135517
-0.000316831
0.000144408
-0.000321794
0.000151996
0.000157796
-0.000222974
8.46666e-05
-0.000240709
9.36161e-05
-0.000258491
0.000102908
-0.000275666
0.000112554
-0.000291521
0.000122288
-0.000305289
0.000131791
-0.000316244
0.000140705
-0.000323662
0.000148647
-0.000327081
0.000155227
-0.000325835
0.000160089
-0.000319055
0.000162788
0.000162818
-0.000243992
9.39545e-05
-0.000260075
0.000102455
-0.00027603
0.000111171
-0.000291247
0.000120126
-0.000305068
0.000129069
-0.0003168
0.000137703
-0.000325762
0.000145696
-0.000331312
0.000152695
-0.000332903
0.000158334
-0.000330122
0.000162251
-0.000322455
0.000164065
-0.000309756
0.00016349
0.000160208
-0.000265907
0.000103132
-0.000280278
0.000111109
-0.000294374
0.000119212
-0.000307621
0.00012746
-0.000319405
0.00013561
-0.000329089
0.000143383
-0.000336048
0.000150469
-0.000339697
0.000156541
-0.000339523
0.000161259
-0.000335103
0.000164283
-0.000326077
0.000165279
-0.000312379
0.000163941
-0.000293877
0.000160031
-0.000270323
0.000153272
0.000143377
-0.000288621
0.000112158
-0.000301223
0.000119509
-0.000313452
0.000126971
-0.000324733
0.000134511
-0.000334488
0.000141877
-0.00034213
0.000148803
-0.000347087
0.000155002
-0.000348824
0.00016017
-0.00034687
0.000163993
-0.000340837
0.000166159
-0.000330432
0.000166361
-0.000315503
0.000164317
-0.000296038
0.000159776
-0.00027199
0.000152501
-0.000243564
0.00014234
0.000129146
-0.000311965
0.000120663
-0.000322845
0.000127514
-0.000333242
0.000134382
-0.000342581
0.000141237
-0.000350324
0.000147837
-0.000355936
0.000153936
-0.000358894
0.000159268
-0.000358715
0.000163556
-0.000354972
0.000166511
-0.000347315
0.000167846
-0.000335483
0.00016728
-0.000319329
0.000164551
-0.000298806
0.000159421
-0.00027394
0.000151678
-0.000244946
0.000141152
-0.000212022
0.000127735
-0.000175305
0.000111307
9.17698e-05
-0.000335835
0.000128539
-0.000345172
0.000135077
-0.000353798
0.000141415
-0.000361222
0.000147607
-0.000366967
0.000153458
-0.000370552
0.000158745
-0.000371511
0.000163229
-0.000369409
0.000166658
-0.000363863
0.000168769
-0.000354558
0.000169298
-0.000341261
0.000167991
-0.000323832
0.000164602
-0.000302227
0.000158912
-0.000276487
0.000150724
-0.000246756
0.000139878
-0.000213264
0.000126251
-0.000176226
0.000109747
-0.000135984
9.03298e-05
6.80079e-05
-0.000360589
0.000136189
-0.000368419
0.000142316
-0.000375274
0.000148092
-0.000380775
0.000153599
-0.000384513
0.000158695
-0.00038606
0.000163178
-0.000385004
0.000166826
-0.000380959
0.000169412
-0.000373585
0.000170699
-0.0003626
0.000170448
-0.000347795
0.000168423
-0.000329044
0.000164403
-0.000306304
0.000158181
-0.000279615
0.000149576
-0.000249101
0.000138437
-0.000214953
0.000124646
-0.000177406
0.000108115
-0.000136782
8.88028e-05
-9.34211e-05
6.67186e-05
4.18572e-05
-0.00038681
0.000143692
-0.000392928
0.00014925
-0.000397897
0.000154381
-0.000401407
0.000159165
-0.000403086
0.00016348
-0.000402551
0.000167148
-0.000399444
0.000169963
-0.000393422
0.00017172
-0.000384183
0.000172203
-0.000371477
0.000171194
-0.000355117
0.000168481
-0.000334988
0.000163858
-0.000311051
0.000157136
-0.000283343
0.00014815
-0.000251971
0.000136755
-0.000217108
0.000122841
-0.000178975
0.000106328
-0.000137851
8.71716e-05
-9.40613e-05
6.53696e-05
-4.7845e-05
4.09294e-05
1.4122e-05
-0.000414791
0.000150843
-0.000418945
0.000155731
-0.000421871
0.00016015
-0.000423274
0.000164177
-0.000422799
0.00016768
-0.000420111
0.000170514
-0.000414895
0.000172499
-0.000406846
0.000173439
-0.000395694
0.00017314
-0.000381217
0.000171402
-0.000363246
0.000168032
-0.000341679
0.000162842
-0.00031648
0.000155662
-0.000287681
0.000146336
-0.000255376
0.000134732
-0.000219721
0.000120747
-0.000180919
0.000104305
-0.000139219
8.53632e-05
-9.49159e-05
6.39141e-05
-4.82426e-05
3.99634e-05
1.37756e-05
-0.000444575
0.000157333
-0.00044656
0.000161495
-0.000447277
0.000165153
-0.000446432
0.000168396
-0.000443702
0.000171077
-0.000438781
0.000173069
-0.000431389
0.00017423
-0.000421256
0.000174376
-0.000408137
0.000173323
-0.000391833
0.000170892
-0.000372193
0.000166907
-0.000349125
0.000161198
-0.000322595
0.000153609
-0.000292631
0.000143999
-0.000259316
0.000132246
-0.000222788
0.000118254
-0.000183233
0.000101952
-0.000140874
8.32973e-05
-9.59793e-05
6.22797e-05
-4.87585e-05
3.88992e-05
1.33999e-05
-0.000476046
0.000162766
-0.000475711
0.000166179
-0.000474065
0.000169046
-0.000470842
0.00017149
-0.000465765
0.000173365
-0.000458543
0.000174537
-0.000448915
0.000174894
-0.00043664
0.000174279
-0.000421499
0.000172515
-0.000403313
0.00016944
-0.000381946
0.000164896
-0.000357314
0.00015873
-0.000329386
0.000150799
-0.000298183
0.000140975
-0.000263781
0.00012915
-0.000226302
0.000115232
-0.00018591
9.91567e-05
-0.000142807
8.08815e-05
-9.72346e-05
6.03926e-05
-4.93769e-05
3.7683e-05
1.29735e-05
-0.000508897
0.000166634
-0.000506134
0.000169313
-0.000502042
0.000171404
-0.000496376
0.000173064
-0.000488893
0.000174168
-0.000479325
0.000174574
-0.000467411
0.000174171
-0.000452944
0.000172842
-0.000435735
0.000170429
-0.000415618
0.00016678
-0.000392471
0.000161751
-0.000366217
0.000155208
-0.000336827
0.000147021
-0.000304317
0.000137076
-0.000268754
0.000125274
-0.000230244
0.000111534
-0.000188934
9.57941e-05
-0.000145004
7.80133e-05
-9.86691e-05
5.81744e-05
-5.00871e-05
3.62637e-05
1.24777e-05
-0.000542709
0.00016838
-0.000537483
0.000170363
-0.000530929
0.000171733
-0.00052281
0.000172664
-0.000512904
0.000173052
-0.000500968
0.000172765
-0.000486751
0.000171678
-0.000470068
0.000169709
-0.000450759
0.000166733
-0.000428676
0.000162601
-0.000403708
0.000157186
-0.000375784
0.000150369
-0.000344875
0.000142037
-0.000310996
0.000132087
-0.000274203
0.000120431
-0.00023459
0.000106996
-0.000192286
9.17259e-05
-0.000147449
7.45813e-05
-0.000100269
5.55421e-05
-5.08808e-05
3.45888e-05
1.18945e-05
-0.000577011
0.000167423
-0.000569374
0.000168776
-0.000560395
0.000169501
-0.000549855
0.000169784
-0.000537545
0.000169537
-0.000523258
0.00016865
-0.000506766
0.000166996
-0.000487874
0.000164492
-0.000466456
0.000161057
-0.00044239
0.00015656
-0.000415575
0.000150885
-0.000385945
0.000143925
-0.000353474
0.000135584
-0.000318173
0.000125772
-0.00028009
0.000114412
-0.000239307
0.000101439
-0.000195938
8.68033e-05
-0.00015012
7.0467e-05
-0.000102021
5.24087e-05
-5.17501e-05
3.26046e-05
1.12053e-05
-0.000611314
0.000163169
-0.000601376
0.000163978
-0.000590064
0.000164157
-0.000577183
0.000163898
-0.000562543
0.000163125
-0.000545964
0.000161753
-0.000527245
0.000159665
-0.000506189
0.000156766
-0.000482682
0.000153005
-0.00045664
0.00014829
-0.000427971
0.000142508
-0.000396616
0.000135567
-0.000362553
0.000127384
-0.000325789
0.000117884
-0.000286366
0.000107
-0.000244357
9.46771e-05
-0.000199859
8.08708e-05
-0.000152994
6.55475e-05
-0.000103908
4.86847e-05
-5.26864e-05
3.02566e-05
1.03917e-05
-0.000645156
0.00015504
-0.000633074
0.000155406
-0.000619572
0.000155154
-0.000604475
0.000154477
-0.000587617
0.000153312
-0.000568835
0.000151587
-0.000547968
0.000149217
-0.000524828
0.000146096
-0.00049929
0.000142178
-0.000471298
0.000137415
-0.000440787
0.000131707
-0.000407707
0.000124975
-0.000372036
0.000117148
-0.000333782
0.000108165
-0.000292982
9.79708e-05
-0.000249699
8.65187e-05
-0.000204019
7.37715e-05
-0.000156047
5.96994e-05
-0.000105913
4.42812e-05
-5.36813e-05
2.74906e-05
9.43546e-06
-0.000678155
0.000142493
-0.000664119
0.000142523
-0.000648601
0.000141968
-0.000631448
0.000141012
-0.000612514
0.000139604
-0.000591655
0.000137686
-0.000568741
0.000135197
-0.000543615
0.000132048
-0.000516129
0.000128173
-0.000486238
0.000123556
-0.00045392
0.000118137
-0.00041913
0.000111835
-0.000381851
0.000104594
-0.000342092
9.63657e-05
-0.000299887
8.71061e-05
-0.000255292
7.67786e-05
-0.000208384
6.53528e-05
-0.000159257
5.2804e-05
-0.00010802
3.91132e-05
-5.47266e-05
2.42555e-05
8.3193e-06
-0.000710041
0.000125026
-0.000694253
0.000124837
-0.000676917
0.000124118
-0.000657886
0.000123026
-0.000637038
0.000121537
-0.00061425
0.000119605
-0.000589408
0.00011718
-0.000562396
0.000114206
-0.000533069
0.000110605
-0.000501362
0.000106366
-0.000467282
0.000101472
-0.000430811
9.585e-05
-0.000391937
8.94546e-05
-0.000350669
8.22494e-05
-0.000307041
7.42021e-05
-0.000261106
6.5285e-05
-0.000212932
5.54752e-05
-0.000162603
4.47536e-05
-0.000110219
3.31043e-05
-5.58162e-05
2.0506e-05
7.02812e-06
-0.000740716
0.000102203
-0.000723368
0.000101894
-0.00070439
0.000101143
-0.000683663
0.000100083
-0.000661068
9.86929e-05
-0.000636504
9.69405e-05
-0.000609872
9.47898e-05
-0.000581083
9.22048e-05
-0.000550018
8.91268e-05
-0.00051659
8.55343e-05
-0.000480811
8.1425e-05
-0.000442701
7.67575e-05
-0.000402254
7.14951e-05
-0.000359483
6.56112e-05
-0.000314423
5.90831e-05
-0.000267123
5.18919e-05
-0.000217649
4.40218e-05
-0.000166079
3.54593e-05
-0.000112501
2.61929e-05
-5.69466e-05
1.62059e-05
5.55009e-06
-0.000770144
7.36604e-05
-0.000751432
7.33299e-05
-0.000730988
7.2679e-05
-0.000708735
7.18261e-05
-0.000684559
7.0728e-05
-0.000658373
6.93646e-05
-0.000630096
6.77146e-05
-0.000599658
6.57564e-05
-0.000566961
6.34571e-05
-0.000531895
6.07821e-05
-0.000494486
5.77469e-05
-0.000454787
5.43436e-05
-0.000412797
5.05309e-05
-0.000368534
4.6293e-05
-0.000322034
4.1617e-05
-0.00027335
3.6492e-05
-0.000222544
3.0909e-05
-0.000169689
2.48602e-05
-0.000114873
1.83384e-05
-5.812e-05
1.13329e-05
3.87815e-06
-0.000798297
3.91546e-05
-0.000778396
3.89404e-05
-0.000756688
3.85515e-05
-0.000733082
3.80625e-05
-0.000707491
3.74409e-05
-0.000679839
3.66768e-05
-0.00065006
3.57603e-05
-0.000618097
3.46812e-05
-0.00058387
3.34275e-05
-0.000547278
3.19633e-05
-0.000508329
3.03158e-05
-0.000467094
2.84971e-05
-0.000423595
2.64653e-05
-0.000377855
2.42141e-05
-0.000329914
2.17394e-05
-0.000279823
1.90371e-05
-0.000227648
1.61039e-05
-0.000173462
1.29362e-05
-0.000117351
9.53123e-06
-5.93437e-05
5.88389e-06
2.01202e-06
-0.000823587
-0.000802746
-0.00078004
-0.000755361
-0.000728638
-0.0006998
-0.000668785
-0.00063554
-0.000600008
-0.000562126
-0.000521861
-0.000479264
-0.000434399
-0.000387291
-0.000337983
-0.000286531
-0.000232999
-0.000177464
-0.000120013
-6.06808e-05
)
;

boundaryField
{
    inlet
    {
        type            calculated;
        value           nonuniform 0();
    }
    outlet
    {
        type            calculated;
        value           uniform 0;
    }
    flap
    {
        type            calculated;
        value           nonuniform 0();
    }
    upperWall
    {
        type            calculated;
        value           nonuniform List<scalar> 
21
(
0
0
0
0
0
0
0
0
0
-8.31475e-15
0
4.28836e-15
0
0
0
4.56318e-15
0
0
0
0
0
)
;
    }
    lowerWall
    {
        type            calculated;
        value           nonuniform 0();
    }
    frontAndBack
    {
        type            empty;
        value           nonuniform 0();
    }
    procBoundary2to1
    {
        type            processor;
        value           nonuniform List<scalar> 
17
(
0.000325464
0.000351314
0.000379001
0.000408828
0.000440708
0.000474423
0.000509617
0.000545805
0.000582438
0.000618966
0.000654881
0.000689772
0.000723358
0.00075552
0.000786234
0.00081552
0.000841678
)
;
    }
    procBoundary2to4
    {
        type            processor;
        value           nonuniform List<scalar> 
11
(
0.000102163
0.000114565
0.000129029
0.000145502
0.000163799
0.000183691
0.000204944
0.000227365
0.000250821
0.00027529
0.000300353
)
;
    }
    procBoundary2to5
    {
        type            processor;
        value           nonuniform List<scalar> 
34
(
-2.40591e-05
-3.31478e-05
-0.000150962
-5.23124e-05
-6.41907e-05
-0.000212446
-8.56005e-05
-0.000246235
-0.000106232
-0.00011782
-0.000291393
-0.000134997
-0.000143332
-0.00031572
-0.000154447
-0.000321258
-0.000160964
-0.000160878
-0.000306608
-0.000159608
-0.000291647
-0.000153672
-0.000143559
-0.00024203
-0.000130072
-0.000210892
-0.000112653
-9.27753e-05
-0.000135239
-6.91028e-05
-9.28963e-05
-4.27205e-05
-4.75419e-05
-1.44633e-05
)
;
    }
}


// ************************************************************************* //
