/*--------------------------------*- C++ -*----------------------------------*\
| =========                 |                                                 |
| \\      /  F ield         | OpenFOAM: The Open Source CFD Toolbox           |
|  \\    /   O peration     | Version:  dev                                   |
|   \\  /    A nd           | Web:      www.OpenFOAM.org                      |
|    \\/     M anipulation  |                                                 |
\*---------------------------------------------------------------------------*/
FoamFile
{
    version     2.0;
    format      ascii;
    class       volVectorField;
    location    "0.17";
    object      U;
}
// * * * * * * * * * * * * * * * * * * * * * * * * * * * * * * * * * * * * * //

dimensions      [0 1 -1 0 0 0 0];

internalField   nonuniform List<vector> 
465
(
(9.99292 -6.77718e-23 0.129097)
(9.98204 2.53149e-22 0.253628)
(9.99339 0 0.133573)
(9.98407 1.70834e-20 0.262389)
(9.96715 -8.57515e-21 0.390684)
(9.99389 1.60787e-20 0.137538)
(9.98618 2.58465e-22 0.270136)
(9.9721 8.24198e-21 0.402114)
(9.95042 -1.10194e-22 0.536889)
(9.9944 -3.12053e-20 0.140941)
(9.98835 1.60906e-20 0.27677)
(9.97718 -2.54606e-22 0.41186)
(9.95959 -1.6691e-20 0.549669)
(9.9374 -1.21564e-22 0.692691)
(9.99492 -3.75893e-23 0.143738)
(9.99055 -1.52278e-20 0.282206)
(9.98234 1.511e-20 0.419796)
(9.9689 6.1632e-22 0.559989)
(9.95199 -1.64533e-20 0.705274)
(9.93278 1.68455e-20 0.858049)
(9.99545 2.00377e-22 0.145889)
(9.99278 0 0.286365)
(9.98753 -1.52338e-20 0.425811)
(9.97825 7.79102e-21 0.567703)
(9.96664 7.9724e-21 0.714512)
(9.95388 -1.14728e-21 0.868607)
(9.9404 2.06837e-21 1.0324)
(9.99598 1.44876e-20 0.147359)
(9.99499 -4.45242e-22 0.289181)
(9.99271 1.44436e-20 0.429806)
(9.98756 -7.37809e-21 0.572687)
(9.9812 7.53807e-21 0.720257)
(9.97482 -7.83437e-21 0.874838)
(9.9689 7.85946e-21 1.03879)
(9.96388 -1.01196e-21 1.21425)
(9.96039 1.75518e-20 1.40285)
(9.99651 1.29007e-20 0.14812)
(9.99718 1.4028e-20 0.290597)
(9.99782 -1.49788e-20 0.431702)
(9.99673 8.09802e-21 0.574841)
(9.99552 -7.36093e-21 0.722392)
(9.99538 -1.86204e-21 0.876617)
(9.99681 1.75464e-21 1.0398)
(10.0003 -1.93514e-21 1.21401)
(10.0066 1.80018e-21 1.40076)
(10.0165 1.91321e-22 1.60072)
(9.99703 -1.26037e-20 0.148149)
(9.99933 -6.21658e-22 0.290571)
(10.0028 1.33386e-20 0.43144)
(10.0057 6.80551e-21 0.574094)
(10.0095 0 0.720841)
(10.0154 1.78415e-21 0.873866)
(10.0239 -9.17323e-21 1.03537)
(10.0356 -1.84924e-21 1.20733)
(10.0511 3.59513e-21 1.39114)
(10.0715 -1.73043e-21 1.58734)
(10.0975 -5.72201e-21 1.79548)
(10.1304 -1.95973e-20 2.01423)
(9.99754 0 0.147429)
(10.0014 -9.99384e-22 0.289073)
(10.0076 -2.5026e-20 0.428983)
(10.0143 -5.00029e-21 0.570404)
(10.0229 -3.35834e-21 0.715565)
(10.0345 1.71298e-21 0.86656)
(10.0498 0 1.02549)
(10.0692 0 1.19423)
(10.0935 -1.66458e-22 1.37406)
(10.1236 9.19571e-21 1.56539)
(10.1604 5.62227e-21 1.76762)
(10.205 7.54888e-21 1.97925)
(10.2586 0 2.19814)
(10.3225 1.2445e-22 2.42191)
(9.99804 -1.18113e-20 0.145954)
(10.0034 -1.22605e-20 0.28609)
(10.0122 1.09594e-20 0.424313)
(10.0226 3.26019e-24 0.563761)
(10.0357 1.61191e-21 0.706566)
(10.0528 -6.49218e-21 0.854724)
(10.0744 0 1.01023)
(10.101 -3.37313e-21 1.17484)
(10.1333 -3.50193e-21 1.34972)
(10.1723 0 1.53515)
(10.2189 -1.04034e-20 1.73041)
(10.274 -3.41026e-21 1.93383)
(10.3389 -7.00495e-21 2.14311)
(10.4145 3.69711e-21 2.35566)
(10.5024 -3.59982e-21 2.56894)
(9.99851 2.28709e-20 0.143721)
(10.0053 -1.45724e-21 0.281623)
(10.0166 1.48865e-21 0.41744)
(10.0304 6.00683e-21 0.554185)
(10.0478 0 0.693887)
(10.0699 1.2556e-20 0.838432)
(10.0973 3.17745e-21 0.989704)
(10.1305 -9.63843e-21 1.14934)
(10.1703 0 1.31838)
(10.2173 0 1.497)
(10.2726 6.75955e-21 1.68435)
(10.337 3.47931e-21 1.87865)
(10.4115 1.01096e-20 2.07747)
(10.4971 3.42213e-21 2.27804)
(10.5949 -3.37698e-21 2.47765)
(10.7062 6.48817e-21 2.67388)
(10.832 -6.48764e-21 2.86469)
(9.99896 -2.19488e-20 0.140739)
(10.0071 -1.39803e-21 0.275686)
(10.0207 1.41635e-20 0.408391)
(10.0376 -1.02219e-20 0.541727)
(10.059 2.96206e-21 0.677608)
(10.0858 -1.20193e-20 0.817808)
(10.1185 0 0.964091)
(10.1577 6.24683e-21 1.11797)
(10.204 0 1.28039)
(10.2582 0 1.4514)
(10.3211 -6.25962e-21 1.63006)
(10.3934 0 1.8145)
(10.4761 -9.55622e-23 2.0022)
(10.5699 3.22672e-21 2.19029)
(10.6758 -3.10062e-21 2.37594)
(10.7945 -3.17041e-21 2.55657)
(10.927 0 2.73003)
(11.0741 -5.82072e-21 2.89457)
(11.2367 1.29617e-20 3.04875)
(9.99938 1.12804e-20 0.137021)
(10.0087 9.97432e-21 0.268311)
(10.0244 -2.00833e-22 0.397218)
(10.0443 2.77885e-21 0.526464)
(10.0693 -5.66189e-21 0.657846)
(10.1003 1.43873e-20 0.793018)
(10.1379 0 0.933624)
(10.1824 -5.83426e-21 1.08106)
(10.2345 5.88874e-21 1.23615)
(10.2948 -2.9791e-21 1.39888)
(10.3642 2.07985e-22 1.56821)
(10.4432 6.033e-21 1.74223)
(10.5326 -3.06666e-21 1.91836)
(10.633 0 2.09369)
(10.7449 3.03046e-21 2.2653)
(10.8691 0 2.43059)
(11.006 0 2.58732)
(11.156 0 2.7337)
(11.3198 -1.38749e-21 2.86828)
(11.4976 1.2839e-21 2.98985)
(11.6895 0 3.09726)
(9.99978 1.00086e-20 0.132588)
(10.0102 -1.03971e-20 0.25954)
(10.0279 -1.32109e-20 0.38399)
(10.0504 2.67457e-21 0.508503)
(10.0786 -2.70332e-21 0.63475)
(10.1134 -2.80036e-21 0.764267)
(10.1552 0 0.898575)
(10.2044 5.69956e-21 1.03896)
(10.2615 -2.9306e-21 1.18614)
(10.3271 2.79453e-21 1.34002)
(10.4018 -2.80498e-21 1.49953)
(10.4863 2.77056e-21 1.66273)
(10.581 -5.79833e-21 1.82702)
(10.6863 0 1.98949)
(10.8027 0 2.14723)
(10.9305 0 2.29763)
(11.0698 0 2.43844)
(11.2209 2.5621e-21 2.56791)
(11.3838 -2.84691e-22 2.68465)
(11.5585 -6.3401e-21 2.78754)
(11.7448 0 2.87565)
(10.0001 -9.77415e-21 0.127467)
(10.0116 -1.23292e-21 0.249427)
(10.031 1.25972e-21 0.368795)
(10.0559 2.55056e-21 0.487969)
(10.087 2.54081e-21 0.608494)
(10.1251 -2.59373e-21 0.731788)
(10.1705 -2.63661e-23 0.85925)
(10.2237 2.62001e-21 0.992054)
(10.285 0 1.13084)
(10.3549 -5.39176e-21 1.27543)
(10.4341 8.18626e-21 1.42476)
(10.5228 -1.09301e-20 1.57687)
(10.6215 5.51373e-21 1.72921)
(10.7305 2.66947e-21 1.87891)
(10.8498 0 2.0231)
(10.9796 2.59752e-21 2.15922)
(11.1197 0 2.28508)
(11.2702 1.31737e-21 2.39899)
(11.4307 -3.52754e-21 2.49967)
(11.601 4.81724e-21 2.58614)
(10.0005 5.80078e-22 0.121688)
(10.0128 -1.11671e-20 0.238036)
(10.0337 1.20805e-21 0.351733)
(10.0607 -2.44387e-21 0.465006)
(10.0943 -5.00881e-21 0.579275)
(10.1353 2.63252e-21 0.695838)
(10.1839 5.04826e-21 0.815979)
(10.2403 -1.02963e-20 0.940765)
(10.3051 0 1.07075)
(10.3785 5.2685e-21 1.20574)
(10.4611 5.15912e-21 1.34463)
(10.553 -7.83599e-21 1.48553)
(10.6546 -5.11461e-21 1.62594)
(10.7659 7.67189e-21 1.76308)
(10.8868 -5.16508e-21 1.89417)
(11.0173 -2.53975e-21 2.01672)
(11.157 -4.79061e-21 2.12867)
(11.3056 6.09557e-21 2.22841)
(11.4626 -6.80573e-21 2.31477)
(11.6276 5.67623e-21 2.38695)
(10.0008 -8.83428e-21 0.115288)
(10.0138 1.03067e-20 0.225439)
(10.0361 -5.74404e-21 0.332915)
(10.0648 0 0.43977)
(10.1006 4.72536e-21 0.5473)
(10.144 9.47949e-23 0.656687)
(10.1952 -8.1963e-23 0.769101)
(10.2544 4.90895e-21 0.885511)
(10.322 -4.98766e-21 1.0064)
(10.3981 2.45797e-21 1.13154)
(10.4832 2.4595e-21 1.25986)
(10.5774 9.87169e-21 1.38953)
(10.6808 -9.8728e-21 1.51813)
(10.7934 4.96806e-21 1.64302)
(10.9148 0 1.76153)
(11.0449 0 1.87131)
(11.1831 -3.40676e-21 1.9704)
(11.3289 4.64713e-21 2.05732)
(11.4817 2.80518e-23 2.13105)
(11.6407 -5.18411e-21 2.19092)
(10.001 1.71066e-20 0.108303)
(10.0148 0 0.211711)
(10.0381 2.29102e-21 0.312458)
(10.0684 -2.26069e-21 0.412424)
(10.106 -6.87176e-21 0.512785)
(10.1514 2.34889e-21 0.61461)
(10.2047 4.62948e-21 0.718959)
(10.2661 0 0.826706)
(10.3358 0 0.938277)
(10.4139 -2.40194e-21 1.05342)
(10.5008 -4.75404e-21 1.17112)
(10.5964 -5.46872e-23 1.28961)
(10.7008 0 1.40662)
(10.8137 -2.30905e-21 1.51963)
(10.9348 -4.53024e-21 1.62614)
(11.0637 4.62034e-21 1.72394)
(11.1996 -1.12574e-21 1.81122)
(11.342 0 1.88662)
(11.49 -3.02624e-21 1.94927)
(11.6427 4.17051e-21 1.99864)
(10.0013 -8.28067e-21 0.100773)
(10.0156 -2.08856e-21 0.196928)
(10.0399 8.55536e-21 0.290478)
(10.0714 -2.16966e-21 0.383131)
(10.1105 4.42632e-21 0.475944)
(10.1575 0 0.569876)
(10.2125 -4.51358e-21 0.665881)
(10.2756 4.40234e-21 0.764745)
(10.3468 -4.5693e-21 0.866842)
(10.4263 0 0.971918)
(10.5142 6.78754e-21 1.079)
(10.6106 -9.1152e-21 1.18645)
(10.7152 -4.43723e-21 1.29212)
(10.8279 4.60232e-21 1.39368)
(10.9479 4.47766e-21 1.48879)
(11.0749 -5.32069e-21 1.5754)
(11.2081 4.33307e-21 1.65186)
(11.3466 -1.0258e-21 1.71695)
(11.4895 2.9219e-21 1.76993)
(11.6361 -7.77309e-21 1.8104)
(10.0015 0 0.0927338)
(10.0162 -3.99037e-21 0.181165)
(10.0413 0 0.267091)
(10.0739 0 0.35205)
(10.1142 -4.17565e-21 0.436983)
(10.1625 4.22194e-21 0.522742)
(10.2188 7.12996e-23 0.610179)
(10.283 -1.105e-23 0.699996)
(10.3553 0 0.79252)
(10.4357 4.30674e-21 0.887505)
(10.5242 -1.08497e-20 0.984044)
(10.6207 8.72569e-21 1.08061)
(10.725 0 1.17525)
(10.8367 -2.15799e-21 1.26578)
(10.9553 2.08752e-21 1.35007)
(11.08 -3.01848e-21 1.42625)
(11.21 8.12821e-21 1.49282)
(11.3444 -3.05587e-21 1.54871)
(11.4824 4.73831e-21 1.59328)
(11.6229 -2.91018e-21 1.62625)
(10.0017 -9.46624e-22 0.0842208)
(10.0168 1.02667e-21 0.164491)
(10.0425 1.9598e-21 0.242403)
(10.076 -2.00288e-21 0.319328)
(10.1172 -3.9585e-21 0.396092)
(10.1665 -4.07139e-21 0.473444)
(10.2237 8.18633e-21 0.552134)
(10.2888 -4.18176e-21 0.632786)
(10.3617 0 0.715684)
(10.4425 0 0.800597)
(10.531 2.10599e-21 0.886694)
(10.6273 -2.09886e-21 0.972586)
(10.7309 2.02231e-21 1.05648)
(10.8413 1.90119e-21 1.13642)
(10.958 -5.14694e-21 1.21045)
(11.0802 9.86171e-22 1.2769)
(11.2069 0 1.33442)
(11.3373 -9.46271e-22 1.38209)
(11.4703 0 1.41936)
(11.605 2.59695e-21 1.44605)
(10.0018 0 0.075262)
(10.0173 3.74862e-21 0.146965)
(10.0435 -1.8856e-21 0.216506)
(10.0776 1.92718e-21 0.285094)
(10.1196 7.78487e-21 0.35344)
(10.1696 3.96388e-21 0.422188)
(10.2275 -7.93322e-21 0.491992)
(10.2931 2.03959e-21 0.563394)
(10.3663 0 0.636644)
(10.4471 0 0.711528)
(10.5355 3.95739e-21 0.787301)
(10.6311 -4.03978e-21 0.862718)
(10.7337 3.96845e-21 0.936177)
(10.8426 -1.98269e-21 1.00591)
(10.9572 -1.62503e-23 1.07021)
(11.0767 -9.64296e-22 1.12756)
(11.2002 0 1.17678)
(11.3266 9.25464e-22 1.21708)
(11.455 0 1.24802)
(11.5844 0 1.26946)
(10.002 -2.61612e-21 0.0658763)
(10.0177 4.454e-21 0.128627)
(10.0443 -1.82759e-21 0.189472)
(10.079 0 0.249455)
(10.1216 -4.8172e-23 0.30917)
(10.1721 -5.68849e-21 0.369152)
(10.2304 0 0.429959)
(10.2962 1.9347e-21 0.492061)
(10.3695 1.90158e-21 0.555669)
(10.4502 -7.7124e-21 0.620593)
(10.538 3.89626e-21 0.686174)
(10.6329 0 0.75132)
(10.7342 -2.8704e-21 0.814622)
(10.8415 -4.65903e-21 0.874534)
(10.954 1.9273e-21 0.92955)
(11.0709 -3.61207e-21 0.978357)
(11.1911 7.22835e-21 1.01994)
(11.3138 -3.6146e-21 1.05361)
(11.4379 0 1.07902)
(11.5625 0 1.09609)
(10.0021 7.63234e-21 0.0560655)
(10.0181 -6.07074e-21 0.109492)
(10.0451 3.51563e-21 0.161347)
(10.0803 -1.79116e-21 0.212492)
(10.1233 0 0.263384)
(10.1742 2.21157e-23 0.314448)
(10.2327 0 0.366149)
(10.2986 1.84034e-21 0.418885)
(10.3718 3.71674e-21 0.472836)
(10.4521 1.8485e-21 0.527838)
(10.5393 -1.82247e-21 0.583328)
(10.6332 3.74564e-21 0.63837)
(10.7333 5.46329e-21 0.691758)
(10.8389 -5.46194e-21 0.742164)
(10.9493 7.21352e-21 0.7883)
(11.0637 7.55379e-22 0.829047)
(11.181 -3.55728e-21 0.863542)
(11.3003 -3.34868e-21 0.891213)
(11.4205 3.41656e-21 0.911776)
(11.5408 0 0.925197)
(10.0023 -2.47629e-21 0.0457996)
(10.0185 -8.36637e-22 0.089532)
(10.046 1.69314e-21 0.132142)
(10.0816 -1.7302e-21 0.174277)
(10.1249 1.84668e-23 0.216232)
(10.176 3.54738e-21 0.258317)
(10.2346 1.75757e-21 0.3009)
(10.3005 -3.62234e-21 0.344298)
(10.3735 -5.35527e-21 0.388652)
(10.4533 1.8206e-21 0.433823)
(10.5399 -5.34661e-21 0.479344)
(10.6328 3.61719e-21 0.52444)
(10.7316 2.60658e-21 0.568112)
(10.8356 -3.5823e-21 0.609264)
(10.9441 8.7564e-22 0.646829)
(11.0562 -5.08951e-21 0.679884)
(11.1709 1.28929e-22 0.70772)
(11.2871 6.62278e-21 0.729874)
(11.404 -2.90598e-21 0.746125)
(11.5206 0 0.756463)
(10.0025 0 0.0349752)
(10.0192 0 0.0686576)
(10.0472 0 0.101761)
(10.0832 -1.58388e-23 0.134596)
(10.1269 1.6656e-21 0.167304)
(10.1782 -3.41732e-21 0.200132)
(10.2368 8.71467e-22 0.233379)
(10.3026 -1.73813e-21 0.267291)
(10.3753 0 0.301972)
(10.4546 -8.65359e-22 0.337308)
(10.5404 -4.29191e-21 0.372925)
(10.6323 8.85975e-23 0.408208)
(10.7299 9.58772e-23 0.442361)
(10.8325 3.45109e-21 0.47451)
(10.9392 4.20009e-22 0.50381)
(11.0493 -2.43129e-21 0.529526)
(11.1617 3.74208e-21 0.551101)
(11.2754 4.00532e-22 0.568172)
(11.3895 2.68211e-21 0.580571)
(11.5029 -1.3995e-22 0.588303)
(10.0029 0 0.023268)
(10.0203 -7.8268e-22 0.0469385)
(10.0489 4.18286e-24 0.0709193)
(10.0853 8.03476e-22 0.094789)
(10.1292 -4.10883e-21 0.118497)
(10.1806 1.66129e-21 0.14225)
(10.2393 -8.17462e-22 0.16628)
(10.305 4.18925e-21 0.190766)
(10.3774 -3.3639e-21 0.215782)
(10.4563 5.05325e-21 0.241253)
(10.5415 -2.51902e-21 0.266919)
(10.6326 1.69747e-21 0.292338)
(10.7291 -4.15738e-22 0.316937)
(10.8304 -2.87036e-21 0.340083)
(10.9357 1.25141e-21 0.361162)
(11.044 -3.17258e-21 0.379638)
(11.1545 2.83918e-21 0.395105)
(11.2662 -3.91604e-22 0.4073)
(11.378 0 0.416103)
(11.489 -1.86516e-22 0.421521)
(10.0042 0 0.00923713)
(10.0238 0 0.0216823)
(10.0534 1.1649e-21 0.0356506)
(10.09 3.95776e-22 0.0498801)
(10.1338 7.98344e-22 0.0641462)
(10.1852 4.01641e-22 0.0785767)
(10.2437 0 0.0932995)
(10.309 -8.17194e-22 0.108394)
(10.381 2.02717e-21 0.123884)
(10.4592 -2.47476e-21 0.139706)
(10.5437 -1.81973e-21 0.155681)
(10.6338 1.65004e-21 0.171521)
(10.7293 4.0632e-22 0.186854)
(10.8295 -1.18016e-21 0.201275)
(10.9335 1.61638e-21 0.214394)
(11.0405 1.34734e-21 0.225876)
(11.1495 -1.5755e-21 0.235471)
(11.2595 -9.49587e-23 0.243019)
(11.3697 0 0.248453)
(11.4789 1.60619e-21 0.251786)
(9.99268 -9.11575e-23 0.000660537)
(10.0022 9.32345e-23 0.00370236)
(10.0201 -1.90182e-22 0.00780436)
(10.0443 1.91349e-22 0.0121713)
(10.0761 -3.85741e-22 0.0166712)
(10.1158 3.91084e-22 0.021353)
(10.1633 -3.97875e-22 0.0262613)
(10.2183 0 0.031421)
(10.2805 -3.99238e-22 0.0368382)
(10.3498 0 0.0424846)
(10.426 1.99697e-22 0.0482851)
(10.5089 3.9234e-22 0.0541183)
(10.5979 -1.09147e-23 0.059829)
(10.6923 -3.98072e-22 0.0652479)
(10.7913 0 0.0702126)
(10.8939 -1.84874e-22 0.0745844)
(10.9991 1.38415e-23 0.0782593)
(11.1057 -2.56675e-22 0.0811724)
(11.2127 3.01414e-23 0.0832964)
(11.3191 1.42411e-21 0.0846365)
)
;

boundaryField
{
    inlet
    {
        type            fixedValue;
        value           uniform (10 0 0);
    }
    outlet
    {
        type            zeroGradient;
    }
    flap
    {
        type            movingWallVelocity;
        value           nonuniform 0();
    }
    upperWall
    {
        type            noSlip;
    }
    lowerWall
    {
        type            noSlip;
    }
    frontAndBack
    {
        type            empty;
    }
    procBoundary0to1
    {
        type            processor;
        value           nonuniform List<vector> 
18
(
(11.8956 0 3.18934)
(11.9423 0 2.94805)
(11.7806 5.39064e-21 2.65765)
(11.7806 5.39064e-21 2.65765)
(11.7997 -1.07612e-21 2.4444)
(11.805 -2.7154e-22 2.23658)
(11.7994 3.76106e-21 2.03452)
(11.7853 -7.47132e-21 1.83827)
(11.7649 3.25893e-21 1.64763)
(11.7405 4.44406e-21 1.46224)
(11.7138 2.84612e-21 1.28155)
(11.6865 4.05697e-22 1.10498)
(11.6601 2.68252e-21 0.931644)
(11.6358 3.8305e-22 0.761047)
(11.6149 2.68542e-21 0.591506)
(11.5984 0 0.42366)
(11.5865 1.45273e-21 0.253093)
(11.424 1.38914e-21 0.085223)
)
;
    }
    procBoundary0to3
    {
        type            processor;
        value           nonuniform List<vector> 
34
(
(9.99247 1.77661e-23 0.124192)
(9.98011 1.84819e-20 0.244009)
(9.96237 0 0.377721)
(9.96237 0 0.377721)
(9.94147 -1.79607e-20 0.521811)
(9.94147 -1.79607e-20 0.521811)
(9.92299 1.19174e-22 0.67694)
(9.92299 1.19174e-22 0.67694)
(9.91172 1.80723e-20 0.843334)
(9.91172 1.80723e-20 0.843334)
(9.91162 5.3971e-22 1.02076)
(9.91162 5.3971e-22 1.02076)
(9.92658 -6.26223e-21 1.2081)
(9.92658 -6.26223e-21 1.2081)
(9.91295 7.47074e-21 1.39741)
(9.95918 1.68298e-20 1.60536)
(9.95918 1.68298e-20 1.60536)
(10.0309 -2.03043e-21 1.81358)
(10.0309 -2.03043e-21 1.81358)
(10.0509 -6.0721e-21 2.0382)
(10.1713 4.07922e-21 2.24165)
(10.1713 4.07922e-21 2.24165)
(10.2217 5.90892e-21 2.47562)
(10.3983 -3.68481e-21 2.64825)
(10.3983 -3.68481e-21 2.64825)
(10.6038 0 2.78072)
(10.6038 0 2.78072)
(10.7205 0 2.98922)
(10.9737 1.44727e-22 3.04847)
(10.9737 1.44727e-22 3.04847)
(11.1328 3.15595e-21 3.22385)
(11.4156 4.29986e-21 3.19129)
(11.4156 4.29986e-21 3.19129)
(11.6116 0 3.32088)
)
;
    }
}


// ************************************************************************* //
