/*--------------------------------*- C++ -*----------------------------------*\
| =========                 |                                                 |
| \\      /  F ield         | OpenFOAM: The Open Source CFD Toolbox           |
|  \\    /   O peration     | Version:  dev                                   |
|   \\  /    A nd           | Web:      www.OpenFOAM.org                      |
|    \\/     M anipulation  |                                                 |
\*---------------------------------------------------------------------------*/
FoamFile
{
    version     2.0;
    format      ascii;
    class       surfaceScalarField;
    location    "0.41";
    object      meshPhi;
}
// * * * * * * * * * * * * * * * * * * * * * * * * * * * * * * * * * * * * * //

dimensions      [0 3 -1 0 0 0 0];

internalField   nonuniform List<scalar> 
881
(
3.05428e-05
-3.33239e-06
-4.12664e-06
3.22628e-05
-3.76207e-06
3.77684e-05
-4.57792e-06
4.32696e-05
-5.4775e-06
-6.44881e-06
3.43107e-05
-4.28048e-06
3.96148e-05
-5.11226e-06
4.49596e-05
-6.02178e-06
5.01571e-05
-7.00273e-06
-8.03749e-06
3.68176e-05
-4.90197e-06
4.1875e-05
-5.74398e-06
4.69614e-05
-6.65694e-06
5.193e-05
-7.63275e-06
5.65717e-05
-8.65746e-06
6.06094e-05
-9.7082e-06
-1.07513e-05
3.98257e-05
-5.63986e-06
4.46213e-05
-6.48379e-06
4.94314e-05
-7.39077e-06
5.41016e-05
-8.35353e-06
5.84732e-05
-9.35674e-06
6.23366e-05
-1.03787e-05
6.553e-05
-1.13953e-05
6.79011e-05
-1.23776e-05
-1.32854e-05
4.33948e-05
-6.50274e-06
4.79041e-05
-7.33808e-06
5.24129e-05
-8.2281e-06
5.67747e-05
-9.1668e-06
6.08348e-05
-1.01389e-05
6.44222e-05
-1.11244e-05
6.7403e-05
-1.20989e-05
6.96303e-05
-1.30338e-05
7.09889e-05
-1.39012e-05
-1.46619e-05
4.75861e-05
-7.49394e-06
5.17802e-05
-8.30799e-06
5.59602e-05
-9.16855e-06
5.99898e-05
-1.00713e-05
6.37239e-05
-1.10011e-05
6.70124e-05
-1.19389e-05
6.97177e-05
-1.28609e-05
7.17065e-05
-1.37392e-05
7.28812e-05
-1.4543e-05
7.31296e-05
-1.52397e-05
7.23113e-05
-1.5784e-05
-1.61214e-05
5.24605e-05
-8.61028e-06
5.63066e-05
-9.38825e-06
6.01278e-05
-1.02054e-05
6.37976e-05
-1.10597e-05
6.71815e-05
-1.19356e-05
7.01407e-05
-1.28147e-05
7.25408e-05
-1.36735e-05
7.42565e-05
-1.44846e-05
7.51787e-05
-1.52176e-05
7.52126e-05
-1.58381e-05
7.4248e-05
-1.63053e-05
7.22231e-05
-1.6581e-05
-1.66185e-05
5.80746e-05
-9.83943e-06
6.15361e-05
-1.05655e-05
6.49664e-05
-1.1325e-05
6.82473e-05
-1.21186e-05
7.12529e-05
-1.293e-05
7.38509e-05
-1.37399e-05
7.59119e-05
-1.45253e-05
7.73155e-05
-1.52595e-05
7.79517e-05
-1.59125e-05
7.77203e-05
-1.64506e-05
7.65254e-05
-1.68356e-05
7.43039e-05
-1.70274e-05
7.09896e-05
-1.69859e-05
6.64939e-05
-1.66581e-05
-1.59837e-05
6.44757e-05
-1.11605e-05
6.75127e-05
-1.1816e-05
7.05207e-05
-1.25056e-05
7.33845e-05
-1.32283e-05
7.59818e-05
-1.3966e-05
7.81845e-05
-1.46978e-05
7.98698e-05
-1.54008e-05
8.09214e-05
-1.60495e-05
8.12301e-05
-1.66147e-05
8.06949e-05
-1.70639e-05
7.92232e-05
-1.73604e-05
7.67387e-05
-1.74653e-05
7.31773e-05
-1.73367e-05
6.84654e-05
-1.69267e-05
6.25591e-05
-1.61909e-05
-1.50801e-05
7.16755e-05
-1.25082e-05
7.42654e-05
-1.30983e-05
7.6827e-05
-1.37157e-05
7.9246e-05
-1.43619e-05
8.1404e-05
-1.50188e-05
8.31777e-05
-1.56656e-05
8.44494e-05
-1.62795e-05
8.51077e-05
-1.68359e-05
8.50456e-05
-1.73072e-05
8.41621e-05
-1.7662e-05
8.23644e-05
-1.78652e-05
7.95706e-05
-1.7879e-05
7.5708e-05
-1.76623e-05
7.07075e-05
-1.71708e-05
6.45201e-05
-1.63589e-05
5.7093e-05
-1.51824e-05
4.83543e-05
-1.35861e-05
-1.15115e-05
7.9671e-05
-1.38342e-05
8.18162e-05
-1.43737e-05
8.39142e-05
-1.49215e-05
8.58611e-05
-1.54886e-05
8.75476e-05
-1.60598e-05
8.88591e-05
-1.66166e-05
8.96799e-05
-1.71369e-05
8.99025e-05
-1.75965e-05
8.94245e-05
-1.79695e-05
8.81453e-05
-1.82262e-05
8.59713e-05
-1.8333e-05
8.28171e-05
-1.82534e-05
7.86052e-05
-1.79482e-05
7.32647e-05
-1.7375e-05
6.67351e-05
-1.64899e-05
5.89628e-05
-1.52474e-05
4.98857e-05
-1.35975e-05
3.94617e-05
-1.14934e-05
-8.88973e-06
8.85132e-05
-1.51368e-05
9.02016e-05
-1.56172e-05
9.18128e-05
-1.60918e-05
9.32578e-05
-1.65766e-05
9.44388e-05
-1.70588e-05
9.52506e-05
-1.75217e-05
9.55827e-05
-1.7945e-05
9.53278e-05
-1.83054e-05
9.43869e-05
-1.85779e-05
9.26627e-05
-1.87346e-05
9.00611e-05
-1.87438e-05
8.64943e-05
-1.85707e-05
8.18812e-05
-1.81778e-05
7.61476e-05
-1.75248e-05
6.92268e-05
-1.65693e-05
6.1058e-05
-1.52672e-05
5.15821e-05
-1.3572e-05
4.0753e-05
-1.14377e-05
2.85252e-05
-8.82129e-06
-5.67372e-06
9.82755e-05
-1.63848e-05
9.94643e-05
-1.67954e-05
0.000100552
-1.71913e-05
0.00010146
-1.75907e-05
0.000102098
-1.79816e-05
0.000102369
-1.83487e-05
0.000102172
-1.86736e-05
0.000101397
-1.89342e-05
9.99457e-05
-1.91059e-05
9.77259e-05
-1.91626e-05
9.46443e-05
-1.90751e-05
9.06117e-05
-1.88103e-05
8.55442e-05
-1.83326e-05
7.93643e-05
-1.76037e-05
7.20005e-05
-1.65832e-05
6.33874e-05
-1.52287e-05
5.34642e-05
-1.34966e-05
4.21776e-05
-1.13426e-05
2.94809e-05
-8.72327e-06
1.53206e-05
-5.59477e-06
-1.96131e-06
0.000108989
-1.75282e-05
0.000109627
-1.78645e-05
0.000110148
-1.81789e-05
0.000110478
-1.84913e-05
0.000110533
-1.87904e-05
0.000110222
-1.90619e-05
0.00010945
-1.92888e-05
0.000108112
-1.94506e-05
0.000106104
-1.95236e-05
0.000103337
-1.94831e-05
9.97235e-05
-1.9302e-05
9.51718e-05
-1.89496e-05
8.95965e-05
-1.83921e-05
8.2917e-05
-1.75935e-05
7.50586e-05
-1.65155e-05
6.59516e-05
-1.5118e-05
5.55321e-05
-1.33594e-05
4.37424e-05
-1.11977e-05
3.0531e-05
-8.59089e-06
1.58467e-05
-5.49758e-06
-1.92429e-06
0.000120643
-1.85139e-05
0.000120684
-1.87755e-05
0.000120594
-1.90087e-05
0.000120304
-1.92352e-05
0.000119734
-1.94441e-05
0.000118798
-1.96222e-05
0.000117406
-1.97537e-05
0.00011546
-1.982e-05
0.000112852
-1.97989e-05
0.00010949
-1.96664e-05
0.000105292
-1.93974e-05
0.000100168
-1.89638e-05
9.40325e-05
-1.83341e-05
8.68015e-05
-1.74745e-05
7.83973e-05
-1.6349e-05
6.8747e-05
-1.49197e-05
5.77833e-05
-1.31476e-05
4.54445e-05
-1.09927e-05
3.16754e-05
-8.41506e-06
1.64224e-05
-5.37525e-06
-1.87938e-06
0.000133199
-1.92872e-05
0.000132601
-1.94768e-05
0.00013186
-1.96321e-05
0.00013091
-1.97762e-05
0.000129674
-1.9899e-05
0.000128071
-1.99884e-05
0.000126015
-2.00297e-05
0.000123414
-2.00062e-05
0.000120163
-1.98975e-05
0.000116162
-1.96807e-05
0.00011133
-1.93322e-05
0.000105585
-1.88265e-05
9.88381e-05
-1.81347e-05
9.10054e-05
-1.72253e-05
8.20063e-05
-1.60647e-05
7.17649e-05
-1.46176e-05
6.02107e-05
-1.28474e-05
4.72782e-05
-1.07164e-05
3.29084e-05
-8.18684e-06
1.7044e-05
-5.22104e-06
-1.82376e-06
0.000146587
-1.97933e-05
0.000145315
-1.99157e-05
0.000143887
-1.99987e-05
0.000142239
-2.00664e-05
0.0001403
-2.01097e-05
0.000137991
-2.01174e-05
0.000135231
-2.00763e-05
0.000131932
-1.99711e-05
0.000127996
-1.97836e-05
0.000123317
-1.94927e-05
0.000117808
-1.90761e-05
0.000111393
-1.85102e-05
0.000103989
-1.77689e-05
9.55073e-05
-1.68236e-05
8.58674e-05
-1.56431e-05
7.49902e-05
-1.41948e-05
6.2802e-05
-1.24445e-05
4.92339e-05
-1.03572e-05
3.42227e-05
-7.89727e-06
1.77066e-05
-5.02886e-06
-1.75514e-06
0.000160704
-1.99772e-05
0.00015873
-2.00394e-05
0.000156586
-2.00578e-05
0.000154211
-2.00574e-05
0.000151536
-2.00299e-05
0.000148488
-1.99654e-05
0.000144988
-1.98521e-05
0.000140952
-1.9676e-05
0.000136291
-1.94213e-05
0.000130899
-1.9069e-05
0.000124677
-1.85977e-05
0.000117552
-1.79861e-05
0.000109447
-1.72111e-05
0.000100276
-1.62465e-05
8.99539e-05
-1.5064e-05
7.84007e-05
-1.36338e-05
6.55395e-05
-1.19244e-05
5.1298e-05
-9.90332e-06
3.56087e-05
-7.53744e-06
1.84051e-05
-4.79294e-06
-1.67146e-06
0.000175414
-1.97859e-05
0.000172719
-1.9796e-05
0.000169837
-1.97594e-05
0.000166711
-1.97011e-05
0.000163275
-1.96139e-05
0.000159461
-1.94889e-05
0.000155194
-1.93158e-05
0.000150392
-1.90823e-05
0.000144971
-1.87743e-05
0.000138835
-1.83751e-05
0.000131873
-1.78656e-05
0.000124006
-1.72261e-05
0.000115165
-1.64355e-05
0.000105269
-1.5471e-05
9.42297e-05
-1.43072e-05
8.19664e-05
-1.29172e-05
6.83991e-05
-1.12723e-05
5.34521e-05
-9.34301e-06
3.70539e-05
-7.09867e-06
1.91327e-05
-4.50783e-06
-1.57083e-06
0.000190541
-1.91684e-05
0.000187115
-1.91361e-05
0.000183483
-1.90556e-05
0.000179592
-1.89513e-05
0.000175381
-1.88171e-05
0.000170784
-1.86455e-05
0.00016573
-1.84273e-05
0.000160142
-1.8152e-05
0.000153939
-1.78072e-05
0.000147031
-1.73787e-05
0.000139311
-1.685e-05
0.000130681
-1.62021e-05
0.000121079
-1.54167e-05
0.000110431
-1.44744e-05
9.86488e-05
-1.33529e-05
8.56493e-05
-1.20281e-05
7.13504e-05
-1.04743e-05
5.56733e-05
-8.66507e-06
3.85425e-05
-6.57269e-06
1.98815e-05
-4.1684e-06
-1.45146e-06
0.000205868
-1.80778e-05
0.000201712
-1.80136e-05
0.00019733
-1.79015e-05
0.000192672
-1.77648e-05
0.000187682
-1.75982e-05
0.000182297
-1.73956e-05
0.000176451
-1.7149e-05
0.000170069
-1.68497e-05
0.000163073
-1.64869e-05
0.000155381
-1.6049e-05
0.000146887
-1.5521e-05
0.000137486
-1.48866e-05
0.00012711
-1.41304e-05
0.000115695
-1.32356e-05
0.000103155
-1.21826e-05
8.9403e-05
-1.09505e-05
7.43566e-05
-9.5171e-06
5.79339e-05
-7.85905e-06
4.00561e-05
-5.95189e-06
2.06422e-05
-3.76995e-06
-1.31177e-06
0.000221132
-1.6472e-05
0.000216262
-1.63876e-05
0.000211142
-1.62573e-05
0.000205729
-1.61029e-05
0.000199971
-1.592e-05
0.000193808
-1.57036e-05
0.000187177
-1.54471e-05
0.000180008
-1.51433e-05
0.000172225
-1.47833e-05
0.000163749
-1.43572e-05
0.000154483
-1.38529e-05
0.000144316
-1.3257e-05
0.000133169
-1.25563e-05
0.000120984
-1.1736e-05
0.000107681
-1.07798e-05
9.31727e-05
-9.67036e-06
7.73745e-05
-8.389e-06
6.02019e-05
-6.91573e-06
4.15732e-05
-5.22961e-06
2.14038e-05
-3.30844e-06
-1.15036e-06
0.000236025
-1.43162e-05
0.000230468
-1.42238e-05
0.000224641
-1.40898e-05
0.000218502
-1.39335e-05
0.000212003
-1.37515e-05
0.00020509
-1.35398e-05
0.0001977
-1.32933e-05
0.000189767
-1.30062e-05
0.000181219
-1.26714e-05
0.000171979
-1.22811e-05
0.000161959
-1.18258e-05
0.000151047
-1.12952e-05
0.000139148
-1.06772e-05
0.000126205
-9.95975e-06
0.00011215
-9.13059e-06
9.68965e-05
-8.17593e-06
8.03555e-05
-7.08037e-06
6.24413e-05
-5.82762e-06
4.307e-05
-4.40047e-06
2.21545e-05
-2.78063e-06
-9.66168e-07
0.000250184
-1.1585e-05
0.000243989
-1.14972e-05
0.000237502
-1.13745e-05
0.000230686
-1.12329e-05
0.000223495
-1.10699e-05
0.000215878
-1.08824e-05
0.000207777
-1.06669e-05
0.000199127
-1.04187e-05
0.000189859
-1.01329e-05
0.000179896
-9.8034e-06
0.000169159
-9.42365e-06
0.000157537
-8.98526e-06
0.00014492
-8.47855e-06
0.000131254
-7.89465e-06
0.000116479
-7.22485e-06
0.000100507
-6.45866e-06
8.32472e-05
-5.58435e-06
6.4614e-05
-4.58946e-06
4.45216e-05
-3.46082e-06
2.28819e-05
-2.18438e-06
-7.58469e-07
0.000263192
-8.26446e-06
0.000256428
-8.19431e-06
0.000249353
-8.09834e-06
0.000241931
-7.98837e-06
0.000234121
-7.8628e-06
0.000225874
-7.7196e-06
0.000217134
-7.55631e-06
0.000207838
-7.37002e-06
0.000197919
-7.15731e-06
0.000187303
-6.91426e-06
0.000175912
-6.63647e-06
0.000163635
-6.31822e-06
0.000150357
-5.95282e-06
0.000136023
-5.53436e-06
0.000120579
-5.05715e-06
0.000103933
-4.51419e-06
8.59964e-05
-3.89756e-06
6.66819e-05
-3.19884e-06
4.59035e-05
-2.40911e-06
2.3574e-05
-1.5189e-06
-5.27037e-07
0.00027458
-4.35554e-06
0.000267336
-4.31587e-06
0.000259767
-4.26201e-06
0.00025184
-4.20063e-06
0.000243513
-4.1309e-06
0.00023474
-4.05182e-06
0.000225464
-3.96214e-06
0.000215625
-3.86043e-06
0.000205155
-3.74496e-06
0.000193982
-3.61379e-06
0.000182029
-3.46471e-06
0.000169182
-3.29482e-06
0.000155324
-3.10071e-06
0.000140402
-2.87941e-06
0.000124359
-2.6281e-06
0.000107107
-2.34327e-06
8.85534e-05
-2.02092e-06
6.86112e-05
-1.65682e-06
4.71951e-05
-1.24647e-06
2.42206e-05
-7.85127e-07
-2.72256e-07
0.000283883
0.00027628
0.000268349
0.000260052
0.000251347
0.000242185
0.00023251
0.000222262
0.000211373
0.00019977
0.000187374
0.000174072
0.000159742
0.000144331
0.000127784
0.000110008
9.09121e-05
7.04069e-05
4.84074e-05
2.48319e-05
)
;

boundaryField
{
    inlet
    {
        type            calculated;
        value           nonuniform 0();
    }
    outlet
    {
        type            calculated;
        value           uniform 0;
    }
    flap
    {
        type            calculated;
        value           nonuniform 0();
    }
    upperWall
    {
        type            calculated;
        value           nonuniform List<scalar> 
21
(
-7.45236e-15
0
0
0
0
0
0
8.75665e-15
0
-9.1655e-15
0
0
0
0
0
0
5.36638e-15
0
0
-5.73958e-15
0
)
;
    }
    lowerWall
    {
        type            calculated;
        value           nonuniform 0();
    }
    frontAndBack
    {
        type            empty;
        value           nonuniform 0();
    }
    procBoundary2to1
    {
        type            processor;
        value           nonuniform List<scalar> 
17
(
-7.74441e-05
-8.66726e-05
-9.68876e-05
-0.000108118
-0.000120337
-0.000133495
-0.000147516
-0.000162291
-0.000177676
-0.000193485
-0.000209491
-0.00022542
-0.000240948
-0.000255696
-0.000269228
-0.000281049
-0.000290663
)
;
    }
    procBoundary2to4
    {
        type            processor;
        value           nonuniform List<scalar> 
11
(
-2.50126e-05
-2.6886e-05
-2.91354e-05
-3.1848e-05
-3.50852e-05
-3.89119e-05
-4.33922e-05
-4.85914e-05
-5.45738e-05
-6.14034e-05
-6.90525e-05
)
;
    }
    procBoundary2to5
    {
        type            processor;
        value           nonuniform List<scalar> 
34
(
2.9653e-06
3.7231e-06
3.61096e-05
4.99952e-06
5.93134e-06
4.85052e-05
7.45928e-06
5.48978e-05
9.08927e-06
1.01133e-05
6.38741e-05
1.17453e-05
1.26363e-05
6.93089e-05
1.40536e-05
7.13314e-05
1.52456e-05
1.55813e-05
7.03779e-05
1.61806e-05
6.9061e-05
1.63397e-05
1.56721e-05
6.0784e-05
1.4895e-05
5.54008e-05
1.35192e-05
1.14463e-05
3.82698e-05
8.90686e-06
2.7644e-05
5.72689e-06
1.48375e-05
1.99284e-06
)
;
    }
}


// ************************************************************************* //
