/*--------------------------------*- C++ -*----------------------------------*\
| =========                 |                                                 |
| \\      /  F ield         | OpenFOAM: The Open Source CFD Toolbox           |
|  \\    /   O peration     | Version:  dev                                   |
|   \\  /    A nd           | Web:      www.OpenFOAM.org                      |
|    \\/     M anipulation  |                                                 |
\*---------------------------------------------------------------------------*/
FoamFile
{
    version     2.0;
    format      ascii;
    class       surfaceScalarField;
    location    "1.93";
    object      meshPhi;
}
// * * * * * * * * * * * * * * * * * * * * * * * * * * * * * * * * * * * * * //

dimensions      [0 3 -1 0 0 0 0];

internalField   nonuniform List<scalar> 
5457
(
2.48632e-05
2.4127e-07
4.60884e-05
6.45727e-07
6.31472e-05
9.01691e-07
7.67377e-05
1.00516e-06
8.74471e-05
9.59253e-07
9.56492e-05
7.74557e-07
0.000101517
4.7257e-07
0.000105072
8.90021e-08
0.000106238
-3.27612e-07
0.000104919
-7.22113e-07
0.000101087
-1.03855e-06
9.48431e-05
-1.22997e-06
8.64604e-05
-1.26598e-06
7.63827e-05
-1.14173e-06
6.51871e-05
-8.71428e-07
5.35305e-05
-4.88594e-07
4.20847e-05
-4.19739e-08
3.14641e-05
4.13244e-07
2.21549e-05
8.24965e-07
1.44626e-05
1.15487e-06
8.68466e-06
1.33818e-06
4.71746e-06
1.3274e-06
2.13308e-06
1.18025e-06
6.47438e-07
9.73892e-07
-5.05756e-08
7.42828e-07
-2.56893e-07
5.13693e-07
-2.17875e-07
3.11458e-07
-1.06762e-07
1.5556e-07
-2.79769e-08
5.80042e-08
1.11799e-08
2.4879e-05
4.85847e-07
4.61154e-05
1.30097e-06
6.31856e-05
1.81855e-06
7.67964e-05
2.03048e-06
8.75436e-05
1.94203e-06
9.58089e-05
1.57125e-06
0.000101764
9.64238e-07
0.000105425
1.92799e-07
0.000106707
-6.50312e-07
0.000105501
-1.4524e-06
0.000101761
-2.10001e-06
9.55759e-05
-2.49741e-06
8.72098e-05
-2.58252e-06
7.71028e-05
-2.34051e-06
6.58317e-05
-1.80058e-06
5.40589e-05
-1.03224e-06
4.24693e-05
-1.33795e-07
3.16979e-05
7.84261e-07
2.22485e-05
1.61687e-06
1.44395e-05
2.28335e-06
8.57991e-06
2.65692e-06
4.58125e-06
2.64437e-06
2.00292e-06
2.35486e-06
5.36867e-07
1.94339e-06
-1.31898e-07
1.4823e-06
-3.05809e-07
1.02409e-06
-2.4204e-07
6.19349e-07
-1.17439e-07
3.08119e-07
-3.23384e-08
1.14622e-07
2.16426e-08
2.48954e-05
7.33287e-07
4.61482e-05
1.96462e-06
6.32421e-05
2.74935e-06
7.68922e-05
3.07526e-06
8.77016e-05
2.94899e-06
9.60568e-05
2.39618e-06
0.000102133
1.48318e-06
0.000105939
3.15514e-07
0.000107377
-9.67101e-07
0.000106322
-2.19483e-06
0.000102708
-3.19524e-06
9.66066e-05
-3.82193e-06
8.82699e-05
-3.97955e-06
7.81315e-05
-3.63624e-06
6.67681e-05
-2.83597e-06
5.4849e-05
-1.68634e-06
4.30736e-05
-3.36163e-07
3.20991e-05
1.04922e-06
2.24495e-05
2.31197e-06
1.44561e-05
3.32505e-06
8.47328e-06
3.90125e-06
4.43613e-06
3.90299e-06
1.8601e-06
3.4853e-06
4.09291e-07
2.87987e-06
-2.32776e-07
2.19847e-06
-3.67722e-07
1.51709e-06
-2.67048e-07
9.12043e-07
-1.25025e-07
4.47699e-07
-3.53221e-08
1.63124e-07
2.94629e-08
2.49091e-05
9.83067e-07
4.61824e-05
2.63544e-06
6.33117e-05
3.69276e-06
7.7019e-05
4.13888e-06
8.79128e-05
3.9809e-06
9.63847e-05
3.2516e-06
0.000102612
2.03342e-06
0.000106597
4.62897e-07
0.000108225
-1.27201e-06
0.000107354
-2.94561e-06
0.000103899
-4.32524e-06
9.79085e-05
-5.21181e-06
8.96174e-05
-5.47311e-06
7.94504e-05
-5.06023e-06
6.79877e-05
-4.02693e-06
5.59093e-05
-2.51401e-06
4.39287e-05
-7.19931e-07
3.27171e-05
1.13446e-06
2.28202e-05
2.83565e-06
1.45852e-05
4.20964e-06
8.43946e-06
5.00923e-06
4.35137e-06
5.0496e-06
1.76903e-06
4.5262e-06
3.21467e-07
3.74658e-06
-3.14829e-07
2.86583e-06
-4.28841e-07
1.98142e-06
-2.86565e-07
1.18645e-06
-1.17014e-07
5.71048e-07
-2.46605e-08
1.975e-07
3.16154e-08
2.49247e-05
1.23576e-06
4.62236e-05
3.31535e-06
6.33986e-05
4.65244e-06
7.71795e-05
5.22721e-06
8.81817e-05
5.04572e-06
9.68049e-05
4.14533e-06
0.000103227
2.62364e-06
0.000107439
6.45625e-07
0.000109312
-1.55567e-06
0.000108681
-3.6999e-06
0.000105436
-5.49218e-06
9.96002e-05
-6.67877e-06
9.13854e-05
-7.08741e-06
8.1203e-05
-6.64968e-06
6.96346e-05
-5.42323e-06
5.73738e-05
-3.57612e-06
4.51487e-05
-1.35277e-06
3.3648e-05
9.69072e-07
2.34455e-05
3.1181e-06
1.49091e-05
4.87315e-06
8.55063e-06
5.92571e-06
4.38478e-06
6.03775e-06
1.78443e-06
5.438e-06
3.30733e-07
4.50731e-06
-3.17873e-07
3.44751e-06
-4.4977e-07
2.38916e-06
-2.9545e-07
1.43423e-06
-9.29632e-08
6.82585e-07
1.21773e-08
2.19183e-07
2.60456e-08
2.49416e-05
1.49258e-06
4.62703e-05
4.00793e-06
6.34998e-05
5.63435e-06
7.737e-05
6.34695e-06
8.85035e-05
6.15091e-06
9.73083e-05
5.08787e-06
0.000103964
3.2662e-06
0.000108451
8.76159e-07
0.000110624
-1.80712e-06
0.00011029
-4.44923e-06
0.00010731
-6.69701e-06
0.000101681
-8.23868e-06
9.3587e-05
-8.85349e-06
8.34213e-05
-8.44746e-06
7.17617e-05
-7.07719e-06
5.93127e-05
-4.93343e-06
4.68193e-05
-2.30198e-06
3.49941e-05
4.80766e-07
2.44422e-05
3.08529e-06
1.5555e-05
5.24438e-06
8.93818e-06
6.58466e-06
4.6591e-06
6.81012e-06
2.01543e-06
6.17303e-06
5.36783e-07
5.12137e-06
-1.42912e-07
3.90134e-06
-3.36655e-07
2.68973e-06
-2.43714e-07
1.61623e-06
-4.19035e-08
7.66372e-07
8.6951e-08
2.24972e-07
1.10198e-08
2.49601e-05
1.75461e-06
4.63217e-05
4.71645e-06
6.36126e-05
6.6437e-06
7.75846e-05
7.50553e-06
8.88693e-05
7.30722e-06
9.78836e-05
6.09274e-06
0.00010481
3.97594e-06
0.000109619
1.16944e-06
0.000112148
-2.01343e-06
0.000112174
-5.18541e-06
0.000109528
-7.93929e-06
0.000104172
-9.901e-06
9.62566e-05
-1.07924e-05
8.61542e-05
-1.04886e-05
7.44362e-05
-9.03825e-06
6.18133e-05
-6.64919e-06
4.90514e-05
-3.64289e-06
3.6893e-05
-4.11802e-07
2.59687e-05
2.65457e-06
1.66975e-05
5.23951e-06
9.78333e-06
6.90291e-06
5.3436e-06
7.28869e-06
2.60554e-06
6.66531e-06
1.06283e-06
5.53384e-06
3.24321e-07
4.17822e-06
2.34278e-08
2.82479e-06
-3.04675e-08
1.66357e-06
9.35273e-08
7.69091e-07
2.17544e-07
1.92683e-07
-1.71716e-08
2.49808e-05
2.02164e-06
4.63795e-05
5.44067e-06
6.3737e-05
7.6813e-06
7.7819e-05
8.70876e-06
8.92721e-05
8.52566e-06
9.85233e-05
7.17275e-06
0.000105755
4.76802e-06
0.000110933
1.54213e-06
0.000113875
-2.15835e-06
0.000114335
-5.8981e-06
0.000112102
-9.21046e-06
0.000107096
-1.16582e-05
9.94324e-05
-1.29075e-05
8.94584e-05
-1.27908e-05
7.77373e-05
-1.13415e-05
6.49796e-05
-8.77719e-06
5.19712e-05
-5.44876e-06
3.94918e-05
-1.79655e-06
2.81991e-05
1.73173e-06
1.85431e-05
4.75865e-06
1.13115e-05
6.77422e-06
6.66202e-06
7.36103e-06
3.75447e-06
6.80396e-06
2.06454e-06
5.64999e-06
1.20913e-06
4.20188e-06
7.55692e-07
2.72497e-06
4.8821e-07
1.48571e-06
4.22679e-07
6.01285e-07
4.27403e-07
7.69974e-08
-6.59161e-08
2.50039e-05
2.29344e-06
4.64429e-05
6.18041e-06
6.38717e-05
8.74834e-06
7.80731e-05
9.95954e-06
8.9712e-05
9.81062e-06
9.92247e-05
8.33594e-06
0.000106796
5.65544e-06
0.000112386
2.01195e-06
0.000115797
-2.21982e-06
0.000116758
-6.5622e-06
0.000115015
-1.04863e-05
0.000110445
-1.34928e-05
0.000103122
-1.51914e-05
9.33618e-05
-1.53651e-05
8.17197e-05
-1.40194e-05
6.8903e-05
-1.1368e-05
5.57099e-05
-7.7898e-06
4.2953e-05
-3.76591e-06
3.13295e-05
2.03475e-07
2.13249e-05
3.6756e-06
1.3781e-05
6.06015e-06
8.88361e-06
6.87249e-06
5.72991e-06
6.41704e-06
3.76916e-06
5.30033e-06
2.67044e-06
3.83494e-06
2.01006e-06
2.28324e-06
1.49365e-06
9.7769e-07
1.08266e-06
1.57262e-07
7.34763e-07
-1.80061e-07
-1.44147e-07
2.50291e-05
2.57044e-06
4.65106e-05
6.93719e-06
6.40148e-05
9.84767e-06
7.83437e-05
1.12609e-05
9.01808e-05
1.11665e-05
9.99734e-05
9.59121e-06
0.00010791
6.65227e-06
0.000113951
2.59874e-06
0.000117883
-2.17181e-06
0.000119405
-7.14312e-06
0.00011823
-1.17345e-05
0.000114193
-1.53839e-05
0.000107319
-1.76334e-05
9.78886e-05
-1.8216e-05
8.64349e-05
-1.70953e-05
7.36671e-05
-1.44684e-05
6.03949e-05
-1.07338e-05
4.74485e-05
-6.41069e-06
3.55666e-05
-2.05191e-06
2.52818e-05
1.83921e-06
1.74557e-05
4.58717e-06
1.22853e-05
5.63331e-06
8.82442e-06
5.2939e-06
6.48024e-06
4.24451e-06
4.98538e-06
2.83245e-06
4.01715e-06
1.29562e-06
3.17205e-06
4.30082e-09
2.17079e-06
-6.45548e-07
1.13515e-06
-6.13858e-07
-2.55489e-07
2.50569e-05
2.85308e-06
4.65824e-05
7.71263e-06
6.41641e-05
1.09823e-05
7.8624e-05
1.2618e-05
9.06639e-05
1.26034e-05
0.000100746
1.0954e-05
0.000109069
7.77739e-06
0.000115591
3.32619e-06
0.00012009
-1.98579e-06
0.00012224
-7.60918e-06
0.000121721
-1.29217e-05
0.00011832
-1.7298e-05
0.00011202
-2.02064e-05
0.000103055
-2.13223e-05
9.19257e-05
-2.05601e-05
7.9339e-05
-1.80952e-05
6.61194e-05
-1.43319e-05
5.31161e-05
-9.81837e-06
4.10989e-05
-5.16067e-06
3.06443e-05
-9.24254e-07
2.25895e-05
2.14322e-06
1.71283e-05
3.41639e-06
1.33297e-05
3.19424e-06
1.05598e-05
2.20437e-06
8.57756e-06
8.63385e-07
7.11912e-06
-5.48192e-07
5.66229e-06
-1.61865e-06
3.65122e-06
-1.83824e-06
1.57595e-06
-1.19112e-06
-3.85259e-07
2.50876e-05
3.14269e-06
4.66574e-05
8.51055e-06
6.4316e-05
1.21583e-05
7.89073e-05
1.40394e-05
9.11524e-05
1.41325e-05
0.000101532
1.24367e-05
0.000110254
9.04773e-06
0.00011728
4.21869e-06
0.000122387
-1.62988e-06
0.000125231
-7.92431e-06
0.000125453
-1.40005e-05
0.000122792
-1.91753e-05
0.000117187
-2.28485e-05
0.000108826
-2.46286e-05
9.81781e-05
-2.43785e-05
8.59399e-05
-2.22401e-05
7.29437e-05
-1.86136e-05
6.00569e-05
-1.4065e-05
4.80781e-05
-9.24762e-06
3.76152e-05
-4.7943e-06
2.94167e-05
-1.50224e-06
2.36634e-05
-3.97214e-08
1.95305e-05
-1.49636e-07
1.63768e-05
-1.10042e-06
1.38876e-05
-2.38614e-06
1.16895e-05
-3.57861e-06
9.08768e-06
-4.13705e-06
5.47202e-06
-3.51328e-06
2.10768e-06
-1.9662e-06
-5.8282e-07
2.51221e-05
3.44056e-06
4.67353e-05
9.33479e-06
6.44684e-05
1.33814e-05
7.91918e-05
1.55319e-05
9.16464e-05
1.57576e-05
0.000102327
1.40432e-05
0.000111454
1.04747e-05
0.000118999
5.2977e-06
0.000124739
-1.0697e-06
0.000128322
-8.03718e-06
0.000129354
-1.49037e-05
0.000127527
-2.09363e-05
0.000122738
-2.54752e-05
0.000115134
-2.80593e-05
0.000105143
-2.84914e-05
9.34483e-05
-2.68662e-05
8.08811e-05
-2.35678e-05
6.83196e-05
-1.91803e-05
5.65929e-05
-1.44019e-05
4.63346e-05
-9.92475e-06
3.81362e-05
-6.5655e-06
3.21357e-05
-4.99575e-06
2.76995e-05
-5.01253e-06
2.42139e-05
-5.92178e-06
2.12056e-05
-7.1415e-06
1.80039e-05
-8.03201e-06
1.36193e-05
-7.77996e-06
7.79589e-06
-5.86274e-06
2.9896e-06
-3.10448e-06
-9.55364e-07
2.51617e-05
3.74664e-06
4.68174e-05
1.01859e-05
6.46213e-05
1.46523e-05
7.94762e-05
1.70952e-05
9.21383e-05
1.74799e-05
0.000103114
1.57788e-05
0.000112641
1.20692e-05
0.000120705
6.58354e-06
0.000127089
-2.66998e-07
0.000131432
-7.88972e-06
0.000133326
-1.55603e-05
0.000132424
-2.24976e-05
0.000128575
-2.7991e-05
0.000121886
-3.15112e-05
0.000112735
-3.279e-05
0.000101781
-3.18759e-05
8.98597e-05
-2.91262e-05
7.78638e-05
-2.51357e-05
6.66424e-05
-2.06427e-05
5.68488e-05
-1.63955e-05
4.886e-05
-1.3194e-05
4.27212e-05
-1.16441e-05
3.8026e-05
-1.16002e-05
3.41995e-05
-1.24362e-05
3.05805e-05
-1.35116e-05
2.60554e-05
-1.3939e-05
1.93138e-05
-1.25769e-05
1.08102e-05
-8.97474e-06
4.28446e-06
-4.63951e-06
-1.55798e-06
2.51996e-05
4.04182e-06
4.68952e-05
1.10369e-05
6.47636e-05
1.59718e-05
7.97412e-05
1.87476e-05
9.25979e-05
1.9321e-05
0.000103852
1.76714e-05
0.000113762
1.38641e-05
0.000122332
8.11349e-06
0.000129353
8.2309e-07
0.000134474
-7.4266e-06
0.000137271
-1.58984e-05
0.000137371
-2.37723e-05
0.000134576
-3.02899e-05
0.000128944
-3.48602e-05
0.000120813
-3.71527e-05
0.000110813
-3.7167e-05
9.9768e-05
-3.52186e-05
8.85899e-05
-3.18993e-05
7.81481e-05
-2.79799e-05
6.91195e-05
-2.42648e-05
6.15972e-05
-2.14937e-05
5.54628e-05
-2.01228e-05
5.05305e-05
-2.00426e-05
4.62606e-05
-2.07315e-05
4.17517e-05
-2.14779e-05
3.54578e-05
-2.11652e-05
2.59489e-05
-1.84379e-05
1.44235e-05
-1.29188e-05
5.57941e-06
-6.60227e-06
-2.80583e-06
-2.94941e-07
-1.85706e-08
-9.68414e-06
1.12559e-07
-6.06901e-05
9.05181e-07
-0.00016283
1.49875e-06
-0.000252562
1.35054e-06
-0.000290434
3.16187e-07
-0.000297873
-1.5507e-06
-0.000299851
-3.71401e-06
-0.0003062
-4.97881e-06
-0.000315245
-5.0002e-06
-0.000322906
-4.1109e-06
-0.000329447
-2.19294e-06
-0.000334772
6.7756e-07
-0.000337496
4.13534e-06
-0.000336639
7.86285e-06
-0.000331684
1.15305e-05
-0.00032253
1.48364e-05
-0.000309408
1.75432e-05
-0.000292767
1.95018e-05
-0.000273175
2.06545e-05
-0.00025122
2.10223e-05
-0.00022744
2.06799e-05
-0.000202279
1.9729e-05
-0.000176064
1.82734e-05
-0.000148992
1.64025e-05
-0.000121144
1.41793e-05
-9.24869e-05
1.16364e-05
-6.29043e-05
8.77442e-06
-3.21018e-05
5.55386e-06
1.94069e-06
-2.09632e-07
-4.81639e-08
-1.08598e-05
2.91778e-07
-6.57363e-05
1.93886e-06
-0.000169846
3.12773e-06
-0.00025737
2.56773e-06
-0.000292695
-4.43883e-08
-0.000298804
-4.00077e-06
-0.000300504
-7.76253e-06
-0.000307066
-9.62798e-06
-0.000316575
-9.59821e-06
-0.000324524
-7.88805e-06
-0.000330961
-4.03661e-06
-0.000336213
1.71935e-06
-0.000338839
8.5962e-06
-0.000337853
1.59684e-05
-0.000332745
2.31911e-05
-0.000323425
2.96771e-05
-0.000310132
3.49677e-05
-0.000293328
3.87777e-05
-0.000273585
4.10009e-05
-0.000251497
4.16825e-05
-0.000227606
4.09713e-05
-0.000202357
3.90666e-05
-0.000176075
3.61717e-05
-0.000148959
3.246e-05
-0.000121088
2.80544e-05
-9.24253e-05
2.30175e-05
-6.28547e-05
1.73505e-05
-3.20817e-05
1.09767e-05
3.83365e-06
-1.85485e-07
-6.9984e-08
-1.35536e-05
6.04626e-07
-7.37338e-05
3.09785e-06
-0.000175742
4.77005e-06
-0.000254804
3.48293e-06
-0.000285111
-1.22784e-06
-0.000290791
-7.0816e-06
-0.000294124
-1.17292e-05
-0.000302329
-1.38511e-05
-0.00031305
-1.37609e-05
-0.00032189
-1.10333e-05
-0.000328938
-5.04509e-06
-0.000334706
3.5396e-06
-0.000337749
1.36746e-05
-0.000337093
2.44684e-05
-0.000332238
3.49942e-05
-0.000323105
4.44108e-05
-0.000309942
5.20641e-05
-0.000293219
5.75504e-05
-0.000273519
6.07231e-05
-0.000251445
6.16512e-05
-0.000227549
6.05507e-05
-0.000202284
5.77091e-05
-0.000175984
5.34189e-05
-0.000148853
4.79294e-05
-0.000120973
4.14173e-05
-9.23135e-05
3.39728e-05
-6.27605e-05
2.55981e-05
-3.20253e-05
1.61843e-05
5.64874e-06
-4.15544e-07
-3.6466e-08
-1.79332e-05
1.16461e-06
-8.21342e-05
4.20817e-06
-0.000175335
5.60081e-06
-0.000240584
3.10479e-06
-0.00026528
-3.26044e-06
-0.000272283
-1.0057e-05
-0.000279103
-1.4829e-05
-0.000290244
-1.71644e-05
-0.00030308
-1.69261e-05
-0.000313722
-1.28924e-05
-0.000322282
-4.73217e-06
-0.000329306
6.51837e-06
-0.000333413
1.96354e-05
-0.000333663
3.35107e-05
-0.000329576
4.69803e-05
-0.000321081
5.89884e-05
-0.000308435
6.87146e-05
-0.000292115
7.56557e-05
-0.000272718
7.96306e-05
-0.000250862
8.07281e-05
-0.000227115
7.92206e-05
-0.000201948
7.54698e-05
-0.00017571
6.98445e-05
-0.000148618
6.26593e-05
-0.000120766
5.41378e-05
-9.21359e-05
4.43948e-05
-6.26211e-05
3.34353e-05
-3.19438e-05
2.11241e-05
7.36742e-06
-1.1409e-06
1.05569e-07
-2.36332e-05
1.96648e-06
-8.8173e-05
5.09442e-06
-0.000166975
5.4073e-06
-0.000217243
1.26412e-06
-0.000237841
-6.02512e-06
-0.000247745
-1.28675e-05
-0.000258665
-1.72501e-05
-0.000273138
-1.93456e-05
-0.000288695
-1.84993e-05
-0.000301784
-1.30459e-05
-0.000312453
-2.85945e-06
-0.000321236
1.08197e-05
-0.000326847
2.65818e-05
-0.000328393
4.31404e-05
-0.000325413
5.91429e-05
-0.000317852
7.33614e-05
-0.000305972
8.48376e-05
-0.000290263
9.29876e-05
-0.000271337
9.7602e-05
-0.000249832
9.8784e-05
-0.000226337
9.685e-05
-0.000201348
9.22216e-05
-0.000175231
8.53292e-05
-0.000148223
7.6541e-05
-0.000120436
6.61202e-05
-9.1864e-05
5.42037e-05
-6.2417e-05
4.08007e-05
-3.18288e-05
2.57567e-05
8.97588e-06
-2.50887e-06
3.62686e-07
-2.92358e-05
2.65638e-06
-8.87836e-05
5.11291e-06
-0.000150127
3.94846e-06
-0.000187464
-1.45483e-06
-0.000206186
-8.72092e-06
-0.00021994
-1.49305e-05
-0.000235164
-1.87652e-05
-0.000253051
-2.021e-05
-0.000271475
-1.82784e-05
-0.000287242
-1.13717e-05
-0.000300349
6.83396e-07
-0.000311199
1.6506e-05
-0.000318602
3.45364e-05
-0.000321702
5.33431e-05
-0.000320063
7.14382e-05
-0.000313644
8.74656e-05
-0.000302713
0.000100352
-0.00028777
0.000109454
-0.000269444
0.000114538
-0.000248394
0.000115716
-0.000225238
0.000113336
-0.000200492
0.000107865
-0.000174551
9.97791e-05
-0.00014767
8.94892e-05
-0.00011998
7.729e-05
-9.14955e-05
6.3337e-05
-6.2145e-05
4.76465e-05
-3.1678e-05
3.00513e-05
1.04632e-05
-4.30773e-06
6.56395e-07
-3.24905e-05
2.77906e-06
-8.22265e-05
3.78324e-06
-0.000127042
1.30092e-06
-0.000155474
-4.2135e-06
-0.000174243
-1.04347e-05
-0.000191664
-1.55647e-05
-0.000210743
-1.87733e-05
-0.000231796
-1.94173e-05
-0.000252888
-1.62471e-05
-0.000271303
-7.88169e-06
-0.000286928
5.85867e-06
-0.000299954
2.35173e-05
-0.000309275
4.34309e-05
-0.00031405
6.40377e-05
-0.000313867
8.37826e-05
-0.000308711
0.000101225
-0.000298838
0.000115183
-0.000284759
0.00012498
-0.000267118
0.000130364
-0.000246599
0.000131451
-0.000223844
0.000128608
-0.000199396
0.000122331
-0.000173674
0.00011313
-0.000146959
0.000101445
-0.0001194
8.7596e-05
-9.10303e-05
7.17532e-05
-6.18033e-05
5.39416e-05
-3.14887e-05
3.39881e-05
1.1822e-05
-5.97484e-06
8.67087e-07
-3.19807e-05
2.28744e-06
-6.97279e-05
1.72384e-06
-0.000101843
-1.49052e-06
-0.000125335
-6.33407e-06
-0.000145152
-1.11947e-05
-0.0001654
-1.51591e-05
-0.000187345
-1.74428e-05
-0.000210914
-1.69784e-05
-0.000234263
-1.24975e-05
-0.000255087
-2.70498e-06
-0.000273095
1.25133e-05
-0.000288227
3.16978e-05
-0.000299454
5.31368e-05
-0.000305958
7.51548e-05
-0.000307293
9.61156e-05
-0.000303424
0.000114549
-0.000294637
0.000129247
-0.000281449
0.000139488
-0.000264523
0.000145008
-0.000244563
0.000145918
-0.000222236
0.000142595
-0.000198112
0.000135551
-0.000172635
0.000125314
-0.00014611
0.000112346
-0.000118706
9.69831e-05
-9.0476e-05
7.94073e-05
-6.13996e-05
5.96568e-05
-3.12683e-05
3.75535e-05
1.30485e-05
-6.93231e-06
9.0865e-07
-2.81268e-05
1.42734e-06
-5.4833e-05
-1.80906e-07
-7.84979e-05
-3.47415e-06
-9.93925e-05
-7.46465e-06
-0.000120146
-1.11754e-05
-0.000142295
-1.39803e-05
-0.000166203
-1.50021e-05
-0.000191556
-1.31527e-05
-0.000216667
-7.24357e-06
-0.000239537
3.95215e-06
-0.000259707
2.04816e-05
-0.000276799
4.08845e-05
-0.000289782
6.3452e-05
-0.000297913
8.65151e-05
-0.000300709
0.000108311
-0.000298074
0.000127344
-0.000290323
0.000142466
-0.000277993
0.000152916
-0.000261762
0.000158415
-0.000242353
0.000159068
-0.000220455
0.00015525
-0.000196661
0.000147477
-0.000171439
0.000136286
-0.000145118
0.000122149
-0.00011789
0.000105411
-8.98231e-05
8.62648e-05
-6.09152e-05
6.4755e-05
-3.09967e-05
4.0713e-05
1.41299e-05
-6.90289e-06
7.67565e-07
-2.23993e-05
4.6834e-07
-4.08199e-05
-1.49242e-06
-5.93094e-05
-4.34823e-06
-7.85564e-05
-7.49027e-06
-9.96414e-05
-1.02797e-05
-0.000122832
-1.19453e-05
-0.000147945
-1.15752e-05
-0.00017453
-8.1827e-06
-0.000200989
-7.46803e-07
-0.000225488
1.17889e-05
-0.000247462
2.9469e-05
-0.00026626
5.08327e-05
-0.00028077
7.41712e-05
-0.000290248
9.78834e-05
-0.000294254
0.000120176
-0.000292705
0.000139528
-0.00028589
0.000154807
-0.000274353
0.00016526
-0.00025878
0.0001706
-0.000239908
0.000170924
-0.000218441
0.000166601
-0.000194989
0.00015814
-0.000170042
0.000146076
-0.000143951
0.00013088
-0.000116927
0.000112905
-8.90565e-05
9.23469e-05
-6.03442e-05
6.92554e-05
-3.06643e-05
4.34827e-05
1.50738e-05
-5.98799e-06
5.03909e-07
-1.64104e-05
-2.94059e-07
-2.95297e-05
-2.00869e-06
-4.4948e-05
-4.18554e-06
-6.28464e-05
-6.57061e-06
-8.36463e-05
-8.54555e-06
-0.000107158
-9.1303e-06
-0.000132906
-7.38271e-06
-0.000160313
-2.37954e-06
-0.000187784
6.66094e-06
-0.00021352
2.04877e-05
-0.000236821
3.91313e-05
-0.000256887
6.12398e-05
-0.000272598
8.51186e-05
-0.000283148
0.000109162
-0.000288116
0.000131642
-0.000287455
0.000151055
-0.000281437
0.000166261
-0.000270597
0.000176537
-0.000255623
0.000181597
-0.000237258
0.000181534
-0.000216213
0.000176701
-0.000193112
0.000167593
-0.000168457
0.000154734
-0.000142616
0.000138587
-0.000115824
0.000119505
-8.81842e-05
9.76905e-05
-5.97141e-05
7.32024e-05
-3.03069e-05
4.59086e-05
1.58986e-05
-4.55054e-06
2.15872e-07
-1.13958e-05
-6.8867e-07
-2.15177e-05
-1.86727e-06
-3.4978e-05
-3.40728e-06
-5.16777e-05
-5.06481e-06
-7.1812e-05
-6.17933e-06
-9.51582e-05
-5.69107e-06
-0.000121174
-2.58879e-06
-0.000149109
4.00497e-06
-0.000177258
1.46743e-05
-0.000203826
2.97966e-05
-0.000228015
4.92812e-05
-0.000248926
7.19418e-05
-0.000265457
9.61466e-05
-0.000276789
0.00012028
-0.000282491
0.000142683
-0.000282509
0.000161902
-0.000277119
0.000176828
-0.000266851
0.000186766
-0.000252391
0.000191442
-0.000234479
0.000190938
-0.00021383
0.000185592
-0.000191073
0.000175878
-0.000166716
0.000162299
-0.00014114
0.000145306
-0.000114597
0.000125245
-8.72133e-05
0.000102322
-5.90231e-05
7.66109e-05
-2.99302e-05
4.79958e-05
1.66059e-05
-3.03104e-06
1.89253e-09
-7.81324e-06
-7.68745e-07
-1.62886e-05
-1.51368e-06
-2.84604e-05
-2.52982e-06
-4.4213e-05
-3.41637e-06
-6.3653e-05
-3.5274e-06
-8.66448e-05
-1.84865e-06
-0.000112693
2.66997e-06
-0.000140965
1.0877e-05
-0.000169517
2.31593e-05
-0.000196502
3.9538e-05
-0.000221168
5.97772e-05
-0.000242556
8.28344e-05
-0.000259547
0.000107156
-0.00027133
0.000131155
-0.000277479
0.00015325
-0.000277941
0.000172054
-0.000272993
0.000186517
-0.000263159
0.000195978
-0.000249114
0.000200176
-0.000231593
0.000199188
-0.000211305
0.000193328
-0.00018888
0.000183047
-0.000164826
0.000168821
-0.000139531
0.000151082
-0.000113256
0.000130165
-8.61487e-05
0.000106278
-5.8266e-05
7.95076e-05
-2.95232e-05
4.97587e-05
1.72002e-05
-1.82074e-06
-7.49937e-08
-5.61325e-06
-6.57258e-07
-1.31882e-05
-1.08878e-06
-2.45657e-05
-1.7022e-06
-3.97015e-05
-1.83897e-06
-5.86512e-05
-8.30072e-07
-8.13473e-05
2.2265e-06
-0.000107364
8.30319e-06
-0.00013588
1.82023e-05
-0.000164589
3.20815e-05
-0.000191579
4.96166e-05
-0.000216336
7.04971e-05
-0.000237827
9.38146e-05
-0.000254917
0.00011807
-0.000266817
0.000141729
-0.00027312
0.000163304
-0.000273784
0.000181503
-0.000269086
0.000195341
-0.00025954
0.000204204
-0.000245809
0.000207847
-0.000228612
0.000206337
-0.000208649
0.000199967
-0.000186539
0.000189155
-0.000162792
0.000174352
-0.000137792
0.000155963
-0.000111808
0.00013431
-8.50001e-05
0.000109597
-5.74478e-05
8.19243e-05
-2.90832e-05
5.12177e-05
1.76885e-05
-1.43294e-06
1.65778e-07
-5.06443e-06
-4.47901e-07
-1.21436e-05
-7.47834e-07
-2.29491e-05
-9.1566e-07
-3.76762e-05
-2.42518e-07
-5.63525e-05
1.97677e-06
-7.88892e-05
6.54956e-06
-0.000104936
1.43214e-05
-0.00013355
2.59044e-05
-0.000162106
4.12574e-05
-0.000188813
5.99299e-05
-0.000213347
8.14554e-05
-0.000234588
0.000104923
-0.00025141
0.000128935
-0.000263088
0.000152048
-0.000269252
0.000172904
-0.000269878
0.000190319
-0.000265244
0.000203387
-0.000255852
0.000211544
-0.000242346
0.00021456
-0.000225423
0.000212495
-0.000205763
0.000205618
-0.000183973
0.000194311
-0.000160552
0.000178991
-0.00013588
0.00016004
-0.000110225
0.000137758
-8.37563e-05
0.000112347
-5.65686e-05
8.39155e-05
-2.8614e-05
5.24113e-05
1.80852e-05
2.61956e-05
4.30903e-06
4.87753e-05
1.18286e-05
6.74009e-05
1.72883e-05
8.30768e-05
2.05103e-05
9.663e-05
2.13428e-05
0.000108603
1.97853e-05
0.000119286
1.5926e-05
0.000128704
9.95984e-06
0.000136662
2.27616e-06
0.000142802
-6.56441e-06
0.000146673
-1.58187e-05
0.000147871
-2.46452e-05
0.000146155
-3.22502e-05
0.00014154
-3.7988e-05
0.000134343
-4.14727e-05
0.000125171
-4.26399e-05
0.000114862
-4.1761e-05
0.000104373
-3.94209e-05
9.4635e-05
-3.64005e-05
8.63839e-05
-3.35504e-05
7.93531e-05
-3.15082e-05
7.30998e-05
-3.0478e-05
6.76378e-05
-3.0342e-05
6.24352e-05
-3.07184e-05
5.62882e-05
-3.08508e-05
4.74108e-05
-2.9505e-05
3.45851e-05
-2.53495e-05
1.97347e-05
-1.82289e-05
8.09553e-06
-1.03538e-05
-4.53455e-06
7.74254e-07
2.68529e-05
4.56423e-06
5.00421e-05
1.25529e-05
6.91928e-05
1.84914e-05
8.53423e-05
2.22625e-05
9.94028e-05
2.35408e-05
0.000111947
2.21727e-05
0.000123271
1.83058e-05
0.000133424
1.21885e-05
0.000142233
4.17902e-06
0.000149347
-5.19269e-06
0.000154315
-1.51949e-05
0.00015671
-2.49742e-05
0.000156259
-3.37124e-05
0.000152936
-4.07157e-05
0.000147016
-4.55388e-05
0.000139069
-4.80582e-05
0.000129936
-4.8503e-05
0.000120596
-4.74306e-05
0.000112021
-4.56189e-05
0.000105019
-4.39547e-05
9.89323e-05
-4.29481e-05
9.26967e-05
-4.24191e-05
8.64542e-05
-4.21297e-05
7.98074e-05
-4.19269e-05
7.13715e-05
-4.11335e-05
5.95422e-05
-3.85473e-05
4.37178e-05
-3.3103e-05
2.64452e-05
-2.50017e-05
1.27314e-05
-1.6379e-05
-9.74763e-06
5.18311e-06
2.75353e-05
4.81773e-06
5.13694e-05
1.32542e-05
7.10949e-05
1.95689e-05
8.77201e-05
2.38018e-05
0.000102239
2.5689e-05
0.000115335
2.47887e-05
0.000127301
2.10505e-05
0.000138179
1.48559e-05
0.000147835
6.61553e-06
0.000155941
-3.21028e-06
0.000162052
-1.39072e-05
0.000165732
-2.46073e-05
0.000166661
-3.44735e-05
0.000164777
-4.27849e-05
0.000160312
-4.90446e-05
0.000153803
-5.30706e-05
0.000146075
-5.50368e-05
0.000138116
-5.54518e-05
0.000130942
-5.50838e-05
0.000125457
-5.48459e-05
0.000120772
-5.51932e-05
0.000114538
-5.53702e-05
0.000106907
-5.47617e-05
9.81039e-05
-5.36585e-05
8.6675e-05
-5.16617e-05
7.16271e-05
-4.77168e-05
5.31355e-05
-4.11568e-05
3.41162e-05
-3.24526e-05
1.8821e-05
-2.34827e-05
-1.63518e-05
9.57917e-06
2.82495e-05
5.06364e-06
5.27613e-05
1.39414e-05
7.31155e-05
2.06005e-05
9.02714e-05
2.51365e-05
0.000105209
2.75143e-05
0.000118755
2.73291e-05
0.000131315
2.41053e-05
0.000142905
1.80273e-05
0.000153396
9.66017e-06
0.000162499
-5.28788e-07
0.00016977
-1.18352e-05
0.00017476
-2.33724e-05
0.00017713
-3.43138e-05
0.000176775
-4.39192e-05
0.000173886
-5.16471e-05
0.000168954
-5.72549e-05
0.000162756
-6.08507e-05
0.000156274
-6.28769e-05
0.000150545
-6.40505e-05
0.000146564
-6.5264e-05
0.000143377
-6.68767e-05
0.000137299
-6.78346e-05
0.000128093
-6.72304e-05
0.000116409
-6.52416e-05
0.000101359
-6.1784e-05
8.29748e-05
-5.64175e-05
6.20752e-05
-4.88752e-05
4.1783e-05
-3.98203e-05
2.54426e-05
-3.08934e-05
-2.36764e-05
1.50511e-05
2.89956e-05
5.29856e-06
5.42125e-05
1.46024e-05
7.52234e-05
2.16138e-05
9.2975e-05
2.64209e-05
0.000108389
2.90707e-05
0.000122312
2.9438e-05
0.000135337
2.70436e-05
0.000147579
2.16072e-05
0.000158879
1.33942e-05
0.000168942
2.93977e-06
0.000177336
-8.87109e-06
0.000183618
-2.11199e-05
0.000187429
-3.30267e-05
0.000188621
-4.38381e-05
0.00018733
-5.29765e-05
0.000183995
-6.01379e-05
0.000179325
-6.5355e-05
0.000174236
-6.89795e-05
0.000169716
-7.16211e-05
0.000166695
-7.40418e-05
0.000163842
-7.62557e-05
0.000157669
-7.73316e-05
0.000147583
-7.68496e-05
0.000133355
-7.47371e-05
0.000114869
-7.06286e-05
9.3093e-05
-6.42182e-05
6.98053e-05
-5.57362e-05
4.8278e-05
-4.63688e-05
3.08352e-05
-3.75177e-05
-3.02201e-05
1.92018e-05
2.97747e-05
5.52302e-06
5.57224e-05
1.52383e-05
7.7408e-05
2.25967e-05
9.57823e-05
2.76965e-05
0.000111754
3.05755e-05
0.000126108
3.11961e-05
0.000139496
2.93784e-05
0.000152243
2.48048e-05
0.000164249
1.7313e-05
0.000175184
7.12314e-06
0.000184647
-4.93756e-06
0.000192154
-1.77457e-05
0.000197323
-3.04352e-05
0.000199978
-4.22888e-05
0.000200185
-5.26794e-05
0.000198327
-6.12484e-05
0.000195019
-6.79465e-05
0.000191046
-7.30111e-05
0.000187246
-7.69073e-05
0.000184283
-8.01972e-05
0.00018012
-8.25508e-05
0.000172386
-8.30065e-05
0.000161119
-8.17553e-05
0.000145603
-7.94133e-05
0.000125415
-7.56414e-05
0.000101213
-6.95322e-05
7.57723e-05
-6.10704e-05
5.25474e-05
-5.15601e-05
3.33745e-05
-4.24646e-05
-3.47792e-05
2.00216e-05
3.05897e-05
5.7348e-06
5.72979e-05
1.58411e-05
7.96744e-05
2.35352e-05
9.86762e-05
2.89334e-05
0.000115218
3.20817e-05
0.000130068
3.29223e-05
0.000143835
3.13725e-05
0.000156965
2.72877e-05
0.000169506
2.06203e-05
0.00018118
1.13848e-05
0.000191626
-1.76817e-07
0.000200233
-1.31562e-05
0.000206602
-2.64319e-05
0.000210537
-3.90943e-05
0.000211998
-5.04739e-05
0.000211349
-6.01878e-05
0.000209075
-6.80988e-05
0.000205786
-7.43234e-05
0.000202097
-7.9168e-05
0.000198373
-8.30152e-05
0.000192154
-8.53667e-05
0.000181481
-8.51346e-05
0.000167411
-8.2703e-05
0.000150345
-7.93295e-05
0.000129524
-7.51985e-05
0.00010483
-6.966e-05
7.85669e-05
-6.24553e-05
5.3555e-05
-5.39263e-05
3.19052e-05
-4.49651e-05
-3.67389e-05
1.60822e-05
3.14369e-05
5.92758e-06
5.89331e-05
1.63944e-05
8.20126e-05
2.44133e-05
0.000101639
3.01205e-05
0.000118726
3.35684e-05
0.000134052
3.47104e-05
0.000148226
3.34608e-05
0.00016169
2.97124e-05
0.000174595
2.35472e-05
0.000186813
1.51503e-05
0.000198095
4.54928e-06
0.000207699
-7.85387e-06
0.00021514
-2.1089e-05
0.000220073
-3.41506e-05
0.000222387
-4.61959e-05
0.000222547
-5.66903e-05
0.000220858
-6.54409e-05
0.000217724
-7.24541e-05
0.000213535
-7.78869e-05
0.000208446
-8.19871e-05
0.000199971
-8.41802e-05
0.000186168
-8.33876e-05
0.000168734
-8.01243e-05
0.000149011
-7.57993e-05
0.000126646
-7.0788e-05
0.000101843
-6.49713e-05
7.5741e-05
-5.83783e-05
4.97239e-05
-5.09789e-05
2.56599e-05
-4.29934e-05
-3.51147e-05
6.80106e-06
3.23083e-05
6.0987e-06
6.06116e-05
1.68945e-05
8.44047e-05
2.52273e-05
0.000104655
3.12459e-05
0.000122271
3.50176e-05
0.000138031
3.65105e-05
0.000152556
3.56507e-05
0.00016627
3.23689e-05
0.000179373
2.67048e-05
0.000191881
1.88593e-05
0.000203654
9.00992e-06
0.000214052
-2.4932e-06
0.000222528
-1.50149e-05
0.000228338
-2.77804e-05
0.000231127
-3.98786e-05
0.000231581
-5.06697e-05
0.000229968
-5.98313e-05
0.00022642
-6.71984e-05
0.000221184
-7.28316e-05
0.000214284
-7.68875e-05
0.000203416
-7.88022e-05
0.00018684
-7.76125e-05
0.000166584
-7.38699e-05
0.000144222
-6.89856e-05
0.000119796
-6.34598e-05
9.38852e-05
-5.72669e-05
6.71735e-05
-5.04516e-05
4.03869e-05
-4.31903e-05
1.45692e-05
-3.57231e-05
-2.83154e-05
-6.96779e-06
3.31997e-05
6.2454e-06
6.23317e-05
1.7333e-05
8.68537e-05
2.59617e-05
0.000107722
3.22868e-05
0.000125842
3.64015e-05
0.000141987
3.82967e-05
0.000156774
3.79074e-05
0.000170632
3.51864e-05
0.000183785
3.01715e-05
0.000196301
2.30158e-05
0.000208075
1.39205e-05
0.000218747
3.28509e-06
0.000227851
-8.32132e-06
0.000234538
-2.02669e-05
0.000237902
-3.1779e-05
0.00023837
-4.22984e-05
0.000236312
-5.13881e-05
0.00023178
-5.86597e-05
0.000225052
-6.40932e-05
0.000216043
-6.78176e-05
0.000202813
-6.93589e-05
0.000183924
-6.79439e-05
0.000161446
-6.40666e-05
0.000137031
-5.89792e-05
0.000110907
-5.3203e-05
8.3539e-05
-4.67955e-05
5.55057e-05
-3.98413e-05
2.74796e-05
-3.24714e-05
1.52405e-07
-2.48692e-05