/*--------------------------------*- C++ -*----------------------------------*\
| =========                 |                                                 |
| \\      /  F ield         | OpenFOAM: The Open Source CFD Toolbox           |
|  \\    /   O peration     | Version:  dev                                   |
|   \\  /    A nd           | Web:      www.OpenFOAM.org                      |
|    \\/     M anipulation  |                                                 |
\*---------------------------------------------------------------------------*/
FoamFile
{
    version     2.0;
    format      ascii;
    class       pointVectorField;
    location    "0.16";
    object      pointDisplacement;
}
// * * * * * * * * * * * * * * * * * * * * * * * * * * * * * * * * * * * * * //

dimensions      [0 1 0 0 0 0 0];

internalField   nonuniform List<vector> 
5828
(
(0 0 0)
(0.00100529 0 0)
(0.00192253 0 0)
(0.00273202 0 0)
(0.00344359 0 0)
(0.00406612 0 0)
(0.0046076 0 0)
(0.00507516 0 0)
(0.0054751 0 0)
(0.00581298 0 0)
(0.00609368 0 0)
(0.00632139 0 0)
(0.00649968 0 0)
(0.0066315 0 0)
(0.0067192 0 0)
(0.00676451 0 0)
(0.00676853 0 0)
(0.00673165 0 0)
(0.00665348 0 0)
(0.00653271 0 0)
(0.00636695 0 0)
(0.00615241 0 0)
(0.00588358 0 0)
(0.00555282 0 0)
(0.00514986 0 0)
(0.00466191 0 0)
(0.00407549 0 0)
(0.00338365 0 0)
(0.00260959 0 0)
(0.00188431 0 0)
(0 0 0)
(0 0 0)
(0.00100535 0 9.18565e-06)
(0.0019227 0 1.77446e-05)
(0.00273233 0 2.56314e-05)
(0.00344407 0 3.30327e-05)
(0.00406681 0 4.01014e-05)
(0.00460856 0 4.69648e-05)
(0.00507644 0 5.3731e-05)
(0.00547678 0 6.04944e-05)
(0.00581517 0 6.73398e-05)
(0.00609648 0 7.43464e-05)
(0.00632495 0 8.15909e-05)
(0.00650417 0 8.91518e-05)
(0.00663716 0 9.71128e-05)
(0.00672631 0 0.000105569)
(0.00677346 0 0.000114634)
(0.0067798 0 0.000124451)
(0.00674589 0 0.00013521)
(0.00667159 0 0.000147169)
(0.00655594 0 0.000160705)
(0.00639706 0 0.000176367)
(0.00619196 0 0.000194989)
(0.00593636 0 0.000217846)
(0.00562457 0 0.000246909)
(0.00524945 0 0.000285207)
(0.00480315 0 0.000337287)
(0.00427977 0 0.000409597)
(0.00368326 0 0.000510008)
(0.00304811 0 0.000643541)
(0.00249487 0 0.00079396)
(0.0015937 0 0.00124858)
(0 0 0)
(0.00100565 0 1.83373e-05)
(0.00192334 0 3.54235e-05)
(0.00273336 0 5.11671e-05)
(0.00344559 0 6.59401e-05)
(0.00406895 0 8.00473e-05)
(0.00461147 0 9.37418e-05)
(0.00508031 0 0.000107239)
(0.00548184 0 0.000120726)
(0.0058217 0 0.000134371)
(0.00610483 0 0.000148329)
(0.00633553 0 0.000162753)
(0.00651752 0 0.000177794)
(0.00665393 0 0.000193615)
(0.00674736 0 0.000210398)
(0.00679987 0 0.000228357)
(0.00681301 0 0.000247757)
(0.00678779 0 0.000268945)
(0.00672474 0 0.000292387)
(0.00662384 0 0.000318739)
(0.00648464 0 0.000348947)
(0.00630626 0 0.000384399)
(0.00608764 0 0.000427165)
(0.00582806 0 0.00048033)
(0.00552801 0 0.000548428)
(0.00519114 0 0.000637864)
(0.00482797 0 0.000756884)
(0.00446249 0 0.000913639)
(0.00414157 0 0.00110827)
(0.00394124 0 0.00130836)
(0.00383602 0 0.00172267)
(0 0 0)
(0.00100615 0 2.74151e-05)
(0.00192439 0 5.29589e-05)
(0.00273507 0 7.64931e-05)
(0.00344811 0 9.85724e-05)
(0.00407247 0 0.00011965)
(0.00461625 0 0.000140104)
(0.00508666 0 0.000160253)
(0.00549013 0 0.000180375)
(0.00583238 0 0.000200718)
(0.00611845 0 0.000221509)
(0.00635278 0 0.000242969)
(0.00653924 0 0.000265317)
(0.00668118 0 0.000288783)
(0.00678148 0 0.000313619)
(0.00684257 0 0.000340117)
(0.0068665 0 0.000368627)
(0.00685497 0 0.000399594)
(0.00680946 0 0.000433595)
(0.00673131 0 0.000471414)
(0.00662194 0 0.000514128)
(0.00648324 0 0.000563246)
(0.00631819 0 0.000620887)
(0.00613185 0 0.000689988)
(0.00593301 0 0.000774488)
(0.00573658 0 0.000879266)
(0.00556657 0 0.00100928)
(0.00545786 0 0.00116663)
(0.00544969 0 0.00134279)
(0.00555063 0 0.00150224)
(0.00599183 0 0.00175582)
(0 0 0)
(0.00100684 0 3.63746e-05)
(0.00192584 0 7.0264e-05)
(0.00273741 0 0.000101482)
(0.00345153 0 0.000130761)
(0.00407727 0 0.0001587)
(0.00462276 0 0.000185796)
(0.00509529 0 0.000212469)
(0.00550139 0 0.000239082)
(0.00584688 0 0.000265958)
(0.00613693 0 0.000293391)
(0.00637614 0 0.000321662)
(0.00656859 0 0.000351045)
(0.0067179 0 0.000381823)
(0.00682729 0 0.000414297)
(0.00689965 0 0.000448804)
(0.00693763 0 0.000485735)
(0.00694373 0 0.000525559)
(0.00692046 0 0.000568859)
(0.0068706 0 0.000616369)
(0.0067975 0 0.000669029)
(0.00670564 0 0.000728033)
(0.00660143 0 0.000794866)
(0.0064944 0 0.000871267)
(0.00639872 0 0.00095902)
(0.00633491 0 0.00105936)
(0.00633063 0 0.00117167)
(0.00641708 0 0.00129097)
(0.00661244 0 0.00140428)
(0.00687351 0 0.00148793)
(0.00752347 0 0.00157235)
(0 0 0)
(0.00100769 0 4.51703e-05)
(0.00192762 0 8.72496e-05)
(0.00274029 0 0.000126002)
(0.00345577 0 0.000162332)
(0.00408319 0 0.000196979)
(0.00463079 0 0.000230555)
(0.00510595 0 0.000263575)
(0.0055153 0 0.000296481)
(0.00586476 0 0.000329666)
(0.00615968 0 0.000363481)
(0.00640483 0 0.000398256)
(0.00660454 0 0.000434311)
(0.00676272 0 0.000471962)
(0.00688296 0 0.000511535)
(0.00696864 0 0.000553382)
(0.00702302 0 0.000597883)
(0.00704936 0 0.000645468)
(0.00705118 0 0.000696624)
(0.00703248 0 0.000751897)
(0.00699815 0 0.000811886)
(0.00695446 0 0.000877192)
(0.00690979 0 0.000948296)
(0.00687549 0 0.00102529)
(0.00686662 0 0.00110739)
(0.00690222 0 0.00119207)
(0.00700354 0 0.00127386)
(0.00718737 0 0.00134328)
(0.00744872 0 0.00138775)
(0.00772368 0 0.00139963)
(0.00827228 0 0.00134641)
(0 0 0)
(0.00100868 0 5.37582e-05)
(0.00192968 0 0.00010383)
(0.00274361 0 0.000149927)
(0.00346066 0 0.00019312)
(0.00409005 0 0.000234281)
(0.00464011 0 0.000274132)
(0.00511831 0 0.000313275)
(0.00553141 0 0.000352227)
(0.00588547 0 0.000391439)
(0.00618598 0 0.000431315)
(0.00643793 0 0.000472222)
(0.00664587 0 0.000514509)
(0.00681402 0 0.000558509)
(0.00694635 0 0.000604553)
(0.00704669 0 0.000652971)
(0.00711883 0 0.0007041)
(0.00716673 0 0.000758276)
(0.00719467 0 0.000815822)
(0.00720752 0 0.00087702)
(0.00721107 0 0.000942041)
(0.00721234 0 0.00101082)
(0.00722 0 0.00108285)
(0.00724459 0 0.00115679)
(0.00729826 0 0.0012299)
(0.00739348 0 0.00129734)
(0.00753964 0 0.00135144)
(0.00773622 0 0.00138198)
(0.00796122 0 0.00137969)
(0.00815674 0 0.00134837)
(0.00842343 0 0.00121108)
(0 0 0)
(0.00100976 0 6.20979e-05)
(0.00193193 0 0.000119926)
(0.00274725 0 0.000173142)
(0.00346603 0 0.000222974)
(0.0040976 0 0.00027042)
(0.00465039 0 0.000316301)
(0.00513199 0 0.000361305)
(0.00554924 0 0.000406012)
(0.00590837 0 0.000450927)
(0.00621502 0 0.000496492)
(0.00647437 0 0.000543105)
(0.00669121 0 0.000591127)
(0.00687005 0 0.000640896)
(0.00701517 0 0.000692724)
(0.00713079 0 0.000746901)
(0.00722117 0 0.000803688)
(0.00729074 0 0.0008633)
(0.00734428 0 0.000925871)
(0.00738711 0 0.000991403)
(0.00742526 0 0.00105967)
(0.00746557 0 0.00113004)
(0.0075157 0 0.00120131)
(0.00758371 0 0.0012713)
(0.00767703 0 0.0013365)
(0.00780019 0 0.00139171)
(0.00795117 0 0.00143005)
(0.00811638 0 0.00144404)
(0.00826682 0 0.00142937)
(0.00836365 0 0.00139434)
(0.00838925 0 0.0012753)
(0 0 0)
(0.00101087 0 7.01531e-05)
(0.00193426 0 0.000135468)
(0.00275106 0 0.000195545)
(0.00347169 0 0.00025176)
(0.0041056 0 0.000305229)
(0.00466132 0 0.000356868)
(0.00514655 0 0.000407436)
(0.00556826 0 0.000457575)
(0.00593278 0 0.000507832)
(0.00624593 0 0.000558679)
(0.00651306 0 0.000610533)
(0.00673918 0 0.00066376)
(0.00692901 0 0.000718684)
(0.00708713 0 0.000775586)
(0.00721805 0 0.000834702)
(0.00732634 0 0.000896204)
(0.00741671 0 0.000960176)
(0.00749417 0 0.00102657)
(0.00756409 0 0.00109515)
(0.00763223 0 0.00116538)
(0.00770463 0 0.00123629)
(0.00778729 0 0.00130631)
(0.00788538 0 0.0013731)
(0.0080018 0 0.00143341)
(0.00813497 0 0.00148319)
(0.00827591 0 0.00151815)
(0.00840589 0 0.00153528)
(0.00849813 0 0.00153534)
(0.00853236 0 0.00152593)
(0.00843636 0 0.00150651)
(0 0 0)
(0.00101197 0 7.78912e-05)
(0.00193659 0 0.000150392)
(0.00275488 0 0.000217044)
(0.00347742 0 0.00027936)
(0.00411377 0 0.000338565)
(0.00467255 0 0.00039566)
(0.00516156 0 0.000451473)
(0.0055879 0 0.000506694)
(0.00595801 0 0.000561905)
(0.00627784 0 0.000617603)
(0.0065529 0 0.000674211)
(0.00678836 0 0.000732091)
(0.00698916 0 0.000791546)
(0.00716005 0 0.000852817)
(0.00730575 0 0.000916075)
(0.00743099 0 0.000981403)
(0.00754058 0 0.00104877)
(0.00763951 0 0.00111797)
(0.0077329 0 0.00118859)
(0.00782593 0 0.00125991)
(0.00792359 0 0.0013308)
(0.00803014 0 0.00139969)
(0.0081483 0 0.00146446)
(0.00827793 0 0.00152263)
(0.00841442 0 0.00157173)
(0.00854718 0 0.00161009)
(0.00865956 0 0.00163817)
(0.00873276 0 0.00165943)
(0.00875809 0 0.00167806)
(0.00869693 0 0.00174507)
(0 0 0)
(0.001013 0 8.52824e-05)
(0.00193879 0 0.000164642)
(0.00275856 0 0.000237557)
(0.00348301 0 0.000305668)
(0.00412182 0 0.000370299)
(0.0046837 0 0.000432529)
(0.00517657 0 0.000493244)
(0.00560759 0 0.000553176)
(0.00598333 0 0.000612936)
(0.00630985 0 0.000673036)
(0.00659279 0 0.000733901)
(0.00683743 0 0.000795878)
(0.00704885 0 0.000859244)
(0.00723193 0 0.000924193)
(0.00739146 0 0.000990837)
(0.00753222 0 0.00105918)
(0.00765897 0 0.00112907)
(0.00777649 0 0.00120023)
(0.00788946 0 0.0012721)
(0.00800235 0 0.00134389)
(0.00811907 0 0.00141447)
(0.00824245 0 0.00148241)
(0.00837355 0 0.00154599)
(0.00851077 0 0.00160349)
(0.00864906 0 0.00165354)
(0.00877969 0 0.00169581)
(0.00889145 0 0.00173157)
(0.00897399 0 0.00176341)
(0.00902259 0 0.00179145)
(0.00909397 0 0.00186384)
(0 0 0)
(0.0010139 0 9.22996e-05)
(0.00194075 0 0.000178164)
(0.00276191 0 0.000257008)
(0.00348822 0 0.000330587)
(0.00412945 0 0.000400315)
(0.00469442 0 0.00046734)
(0.0051911 0 0.000532597)
(0.00562677 0 0.000596856)
(0.00600806 0 0.000660748)
(0.00634113 0 0.000724793)
(0.00663169 0 0.000789412)
(0.00688513 0 0.000854934)
(0.00710657 0 0.000921603)
(0.00730095 0 0.000989572)
(0.00747308 0 0.00105889)
(0.00762763 0 0.00112949)
(0.00776921 0 0.00120117)
(0.00790224 0 0.00127354)
(0.00803093 0 0.00134601)
(0.00815898 0 0.00141779)
(0.00828936 0 0.00148781)
(0.00842384 0 0.00155485)
(0.00856251 0 0.00161756)
(0.00870338 0 0.00167467)
(0.00884216 0 0.0017253)
(0.00897272 0 0.00176914)
(0.00908839 0 0.00180641)
(0.00918341 0 0.00183708)
(0.00925149 0 0.00185882)
(0.00936728 0 0.00186915)
(0 0 0)
(0.0010146 0 9.89176e-05)
(0.00194235 0 0.000190911)
(0.00276477 0 0.000275329)
(0.00349281 0 0.000354031)
(0.00413637 0 0.000428511)
(0.00470431 0 0.000499975)
(0.00520471 0 0.000569404)
(0.00564487 0 0.000637594)
(0.00603152 0 0.000705194)
(0.00637085 0 0.000772724)
(0.00666863 0 0.000840597)
(0.00693029 0 0.000909122)
(0.00716097 0 0.000978511)
(0.00736558 0 0.00104887)
(0.00754884 0 0.00112021)
(0.00771528 0 0.0011924)
(0.00786924 0 0.00126518)
(0.00801477 0 0.00133813)
(0.0081555 0 0.00141065)
(0.00829448 0 0.00148197)
(0.00843389 0 0.00155116)
(0.00857474 0 0.00161716)
(0.0087166 0 0.0016789)
(0.00885747 0 0.00173538)
(0.0089939 0 0.00178577)
(0.00912153 0 0.00182936)
(0.00923585 0 0.00186523)
(0.00933212 0 0.00189168)
(0.00940203 0 0.00190639)
(0.00949332 0 0.00191359)
(0 0 0)
(0.00101505 0 0.000105115)
(0.00194347 0 0.000202841)
(0.00276695 0 0.000292462)
(0.00349656 0 0.000375927)
(0.00414228 0 0.000454799)
(0.00471304 0 0.000530338)
(0.00521695 0 0.000603558)
(0.00566138 0 0.00067528)
(0.00605308 0 0.000746161)
(0.00639828 0 0.000816721)
(0.00670275 0 0.00088736)
(0.00697193 0 0.000958365)
(0.0072109 0 0.00102992)
(0.00742452 0 0.00110209)
(0.00761735 0 0.00117484)
(0.00779372 0 0.001248)
(0.00795766 0 0.00132128)
(0.00811279 0 0.00139424)
(0.00826224 0 0.00146631)
(0.00840846 0 0.00153676)
(0.00855299 0 0.00160477)
(0.0086963 0 0.00166946)
(0.00883765 0 0.00172995)
(0.00897506 0 0.0017854)
(0.00910555 0 0.001835)
(0.0092255 0 0.00187786)
(0.00933095 0 0.00191269)
(0.00941721 0 0.00193756)
(0.00947676 0 0.00195062)
(0.00955811 0 0.00194974)
(0 0 0)
(0.00101518 0 0.000110871)
(0.00194399 0 0.000213919)
(0.00276828 0 0.000308357)
(0.00349924 0 0.000396213)
(0.00414689 0 0.00047911)
(0.00472023 0 0.000558351)
(0.0052274 0 0.00063498)
(0.00567579 0 0.000709833)
(0.00607216 0 0.000783574)
(0.00642274 0 0.000856719)
(0.00673328 0 0.000929651)
(0.00700917 0 0.00100264)
(0.00725543 0 0.00107583)
(0.00747676 0 0.00114926)
(0.00767758 0 0.00122287)
(0.00786196 0 0.00129645)
(0.00803358 0 0.0013697)
(0.00819569 0 0.00144217)
(0.00835093 0 0.00151331)
(0.00850124 0 0.00158247)
(0.00864769 0 0.00164894)
(0.00879033 0 0.00171197)
(0.00892821 0 0.00177081)
(0.00905935 0 0.00182477)
(0.00918094 0 0.00187318)
(0.00928951 0 0.0019153)
(0.00938109 0 0.00195021)
(0.00945109 0 0.00197662)
(0.00949416 0 0.001993)
(0.00953178 0 0.00200436)
(0 0 0)
(0.00101492 0 0.000116223)
(0.00194376 0 0.000224208)
(0.00276857 0 0.000323104)
(0.00350061 0 0.000415008)
(0.00414995 0 0.000501591)
(0.00472562 0 0.000584189)
(0.00523575 0 0.000663871)
(0.00568776 0 0.000741485)
(0.00608839 0 0.000817696)
(0.00644383 0 0.000893012)
(0.00675981 0 0.000967803)
(0.00704161 0 0.00104231)
(0.00729414 0 0.00111667)
(0.00752197 0 0.00119087)
(0.00772929 0 0.00126484)
(0.0079199 0 0.00133835)
(0.00809719 0 0.00141107)
(0.00826399 0 0.00148259)
(0.00842256 0 0.00155239)
(0.00857441 0 0.00161987)
(0.00872025 0 0.0016844)
(0.00885987 0 0.00174534)
(0.00899216 0 0.00180206)
(0.00911519 0 0.00185401)
(0.00922626 0 0.00190066)
(0.00932209 0 0.00194158)
(0.00939887 0 0.0019764)
(0.00945266 0 0.00200497)
(0.00948018 0 0.00202715)
(0.00947497 0 0.00207031)
(0 0 0)
(0.00100529 0 0)
(0.00192253 0 0)
(0.00273202 0 0)
(0.00344359 0 0)
(0.00406612 0 0)
(0.0046076 0 0)
(0.00507516 0 0)
(0.0054751 0 0)
(0.00581298 0 0)
(0.00609368 0 0)
(0.00632139 0 0)
(0.00649968 0 0)
(0.0066315 0 0)
(0.0067192 0 0)
(0.00676451 0 0)
(0.00676853 0 0)
(0.00673165 0 0)
(0.00665348 0 0)
(0.00653271 0 0)
(0.00636695 0 0)
(0.00615241 0 0)
(0.00588358 0 0)
(0.00555282 0 0)
(0.00514986 0 0)
(0.00466191 0 0)
(0.00407549 0 0)
(0.00338365 0 0)
(0.00260959 0 0)
(0.00188431 0 0)
(0 0 0)
(0 0 0)
(0.00100535 0 9.18565e-06)
(0.0019227 0 1.77446e-05)
(0.00273233 0 2.56314e-05)
(0.00344407 0 3.30327e-05)
(0.00406681 0 4.01014e-05)
(0.00460856 0 4.69648e-05)
(0.00507644 0 5.3731e-05)
(0.00547678 0 6.04944e-05)
(0.00581517 0 6.73398e-05)
(0.00609648 0 7.43464e-05)
(0.00632495 0 8.15909e-05)
(0.00650417 0 8.91518e-05)
(0.00663716 0 9.71128e-05)
(0.00672631 0 0.000105569)
(0.00677346 0 0.000114634)
(0.0067798 0 0.000124451)
(0.00674589 0 0.00013521)
(0.00667159 0 0.000147169)
(0.00655594 0 0.000160705)
(0.00639706 0 0.000176367)
(0.00619196 0 0.000194989)
(0.00593636 0 0.000217846)
(0.00562457 0 0.000246909)
(0.00524945 0 0.000285207)
(0.00480315 0 0.000337287)
(0.00427977 0 0.000409597)
(0.00368326 0 0.000510008)
(0.00304811 0 0.000643541)
(0.00249487 0 0.00079396)
(0.0015937 0 0.00124858)
(0 0 0)
(0.00100565 0 1.83373e-05)
(0.00192334 0 3.54235e-05)
(0.00273336 0 5.11671e-05)
(0.00344559 0 6.59401e-05)
(0.00406895 0 8.00473e-05)
(0.00461147 0 9.37418e-05)
(0.00508031 0 0.000107239)
(0.00548184 0 0.000120726)
(0.0058217 0 0.000134371)
(0.00610483 0 0.000148329)
(0.00633553 0 0.000162753)
(0.00651752 0 0.000177794)
(0.00665393 0 0.000193615)
(0.00674736 0 0.000210398)
(0.00679987 0 0.000228357)
(0.00681301 0 0.000247757)
(0.00678779 0 0.000268945)
(0.00672474 0 0.000292387)
(0.00662384 0 0.000318739)
(0.00648464 0 0.000348947)
(0.00630626 0 0.000384399)
(0.00608764 0 0.000427165)
(0.00582806 0 0.00048033)
(0.00552801 0 0.000548428)
(0.00519114 0 0.000637864)
(0.00482797 0 0.000756884)
(0.00446249 0 0.000913639)
(0.00414157 0 0.00110827)
(0.00394124 0 0.00130836)
(0.00383602 0 0.00172267)
(0 0 0)
(0.00100615 0 2.74151e-05)
(0.00192439 0 5.29589e-05)
(0.00273507 0 7.64931e-05)
(0.00344811 0 9.85724e-05)
(0.00407247 0 0.00011965)
(0.00461625 0 0.000140104)
(0.00508666 0 0.000160253)
(0.00549013 0 0.000180375)
(0.00583238 0 0.000200718)
(0.00611845 0 0.000221509)
(0.00635278 0 0.000242969)
(0.00653924 0 0.000265317)
(0.00668118 0 0.000288783)
(0.00678148 0 0.000313619)
(0.00684257 0 0.000340117)
(0.0068665 0 0.000368627)
(0.00685497 0 0.000399594)
(0.00680946 0 0.000433595)
(0.00673131 0 0.000471414)
(0.00662194 0 0.000514128)
(0.00648324 0 0.000563246)
(0.00631819 0 0.000620887)
(0.00613185 0 0.000689988)
(0.00593301 0 0.000774488)
(0.00573658 0 0.000879266)
(0.00556657 0 0.00100928)
(0.00545786 0 0.00116663)
(0.00544969 0 0.00134279)
(0.00555063 0 0.00150224)
(0.00599183 0 0.00175582)
(0 0 0)
(0.00100684 0 3.63746e-05)
(0.00192584 0 7.0264e-05)
(0.00273741 0 0.000101482)
(0.00345153 0 0.000130761)
(0.00407727 0 0.0001587)
(0.00462276 0 0.000185796)
(0.00509529 0 0.000212469)
(0.00550139 0 0.000239082)
(0.00584688 0 0.000265958)
(0.00613693 0 0.000293391)
(0.00637614 0 0.000321662)
(0.00656859 0 0.000351045)
(0.0067179 0 0.000381823)
(0.00682729 0 0.000414297)
(0.00689965 0 0.000448804)
(0.00693763 0 0.000485735)
(0.00694373 0 0.000525559)
(0.00692046 0 0.000568859)
(0.0068706 0 0.000616369)
(0.0067975 0 0.000669029)
(0.00670564 0 0.000728033)
(0.00660143 0 0.000794866)
(0.0064944 0 0.000871267)
(0.00639872 0 0.00095902)
(0.00633491 0 0.00105936)
(0.00633063 0 0.00117167)
(0.00641708 0 0.00129097)
(0.00661244 0 0.00140428)
(0.00687351 0 0.00148793)
(0.00752347 0 0.00157235)
(0 0 0)
(0.00100769 0 4.51703e-05)
(0.00192762 0 8.72496e-05)
(0.00274029 0 0.000126002)
(0.00345577 0 0.000162332)
(0.00408319 0 0.000196979)
(0.00463079 0 0.000230555)
(0.00510595 0 0.000263575)
(0.0055153 0 0.000296481)
(0.00586476 0 0.000329666)
(0.00615968 0 0.000363481)
(0.00640483 0 0.000398256)
(0.00660454 0 0.000434311)
(0.00676272 0 0.000471962)
(0.00688296 0 0.000511535)
(0.00696864 0 0.000553382)
(0.00702302 0 0.000597883)
(0.00704936 0 0.000645468)
(0.00705118 0 0.000696624)
(0.00703248 0 0.000751897)
(0.00699815 0 0.000811886)
(0.00695446 0 0.000877192)
(0.00690979 0 0.000948296)
(0.00687549 0 0.00102529)
(0.00686662 0 0.00110739)
(0.00690222 0 0.00119207)
(0.00700354 0 0.00127386)
(0.00718737 0 0.00134328)
(0.00744872 0 0.00138775)
(0.00772368 0 0.00139963)
(0.00827228 0 0.00134641)
(0 0 0)
(0.00100868 0 5.37582e-05)
(0.00192968 0 0.00010383)
(0.00274361 0 0.000149927)
(0.00346066 0 0.00019312)
(0.00409005 0 0.000234281)
(0.00464011 0 0.000274132)
(0.00511831 0 0.000313275)
(0.00553141 0 0.000352227)
(0.00588547 0 0.000391439)
(0.00618598 0 0.000431315)
(0.00643793 0 0.000472222)
(0.00664587 0 0.000514509)
(0.00681402 0 0.000558509)
(0.00694635 0 0.000604553)
(0.00704669 0 0.000652971)
(0.00711883 0 0.0007041)
(0.00716673 0 0.000758276)
(0.00719467 0 0.000815822)
(0.00720752 0 0.00087702)
(0.00721107 0 0.000942041)
(0.00721234 0 0.00101082)
(0.00722 0 0.00108285)
(0.00724459 0 0.00115679)
(0.00729826 0 0.0012299)
(0.00739348 0 0.00129734)
(0.00753964 0 0.00135144)
(0.00773622 0 0.00138198)
(0.00796122 0 0.00137969)
(0.00815674 0 0.00134837)
(0.00842343 0 0.00121108)
(0 0 0)
(0.00100976 0 6.20979e-05)
(0.00193193 0 0.000119926)
(0.00274725 0 0.000173142)
(0.00346603 0 0.000222974)
(0.0040976 0 0.00027042)
(0.00465039 0 0.000316301)
(0.00513199 0 0.000361305)
(0.00554924 0 0.000406012)
(0.00590837 0 0.000450927)
(0.00621502 0 0.000496492)
(0.00647437 0 0.000543105)
(0.00669121 0 0.000591127)
(0.00687005 0 0.000640896)
(0.00701517 0 0.000692724)
(0.00713079 0 0.000746901)
(0.00722117 0 0.000803688)
(0.00729074 0 0.0008633)
(0.00734428 0 0.000925871)
(0.00738711 0 0.000991403)
(0.00742526 0 0.00105967)
(0.00746557 0 0.00113004)
(0.0075157 0 0.00120131)
(0.00758371 0 0.0012713)
(0.00767703 0 0.0013365)
(0.00780019 0 0.00139171)
(0.00795117 0 0.00143005)
(0.00811638 0 0.00144404)
(0.00826682 0 0.00142937)
(0.00836365 0 0.00139434)
(0.00838925 0 0.0012753)
(0 0 0)
(0.00101087 0 7.01531e-05)
(0.00193426 0 0.000135468)
(0.00275106 0 0.000195545)
(0.00347169 0 0.00025176)
(0.0041056 0 0.000305229)
(0.00466132 0 0.000356868)
(0.00514655 0 0.000407436)
(0.00556826 0 0.000457575)
(0.00593278 0 0.000507832)
(0.00624593 0 0.000558679)
(0.00651306 0 0.000610533)
(0.00673918 0 0.00066376)
(0.00692901 0 0.000718684)
(0.00708713 0 0.000775586)
(0.00721805 0 0.000834702)
(0.00732634 0 0.000896204)
(0.00741671 0 0.000960176)
(0.00749417 0 0.00102657)
(0.00756409 0 0.00109515)
(0.00763223 0 0.00116538)
(0.00770463 0 0.00123629)
(0.00778729 0 0.00130631)
(0.00788538 0 0.0013731)
(0.0080018 0 0.00143341)
(0.00813497 0 0.00148319)
(0.00827591 0 0.00151815)
(0.00840589 0 0.00153528)
(0.00849813 0 0.00153534)
(0.00853236 0 0.00152593)
(0.00843636 0 0.00150651)
(0 0 0)
(0.00101197 0 7.78912e-05)
(0.00193659 0 0.000150392)
(0.00275488 0 0.000217044)
(0.00347742 0 0.00027936)
(0.00411377 0 0.000338565)
(0.00467255 0 0.00039566)
(0.00516156 0 0.000451473)
(0.0055879 0 0.000506694)
(0.00595801 0 0.000561905)
(0.00627784 0 0.000617603)
(0.0065529 0 0.000674211)
(0.00678836 0 0.000732091)
(0.00698916 0 0.000791546)
(0.00716005 0 0.000852817)
(0.00730575 0 0.000916075)
(0.00743099 0 0.000981403)
(0.00754058 0 0.00104877)
(0.00763951 0 0.00111797)
(0.0077329 0 0.00118859)
(0.00782593 0 0.00125991)
(0.00792359 0 0.0013308)
(0.00803014 0 0.00139969)
(0.0081483 0 0.00146446)
(0.00827793 0 0.00152263)
(0.00841442 0 0.00157173)
(0.00854718 0 0.00161009)
(0.00865956 0 0.00163817)
(0.00873276 0 0.00165943)
(0.00875809 0 0.00167806)
(0.00869693 0 0.00174507)
(0 0 0)
(0.001013 0 8.52824e-05)
(0.00193879 0 0.000164642)
(0.00275856 0 0.000237557)
(0.00348301 0 0.000305668)
(0.00412182 0 0.000370299)
(0.0046837 0 0.000432529)
(0.00517657 0 0.000493244)
(0.00560759 0 0.000553176)
(0.00598333 0 0.000612936)
(0.00630985 0 0.000673036)
(0.00659279 0 0.000733901)
(0.00683743 0 0.000795878)
(0.00704885 0 0.000859244)
(0.00723193 0 0.000924193)
(0.00739146 0 0.000990837)
(0.00753222 0 0.00105918)
(0.00765897 0 0.00112907)
(0.00777649 0 0.00120023)
(0.00788946 0 0.0012721)
(0.00800235 0 0.00134389)
(0.00811907 0 0.00141447)
(0.00824245 0 0.00148241)
(0.00837355 0 0.00154599)
(0.00851077 0 0.00160349)
(0.00864906 0 0.00165354)
(0.00877969 0 0.00169581)
(0.00889145 0 0.00173157)
(0.00897399 0 0.00176341)
(0.00902259 0 0.00179145)
(0.00909397 0 0.00186384)
(0 0 0)
(0.0010139 0 9.22996e-05)
(0.00194075 0 0.000178164)
(0.00276191 0 0.000257008)
(0.00348822 0 0.000330587)
(0.00412945 0 0.000400315)
(0.00469442 0 0.00046734)
(0.0051911 0 0.000532597)
(0.00562677 0 0.000596856)
(0.00600806 0 0.000660748)
(0.00634113 0 0.000724793)
(0.00663169 0 0.000789412)
(0.00688513 0 0.000854934)
(0.00710657 0 0.000921603)
(0.00730095 0 0.000989572)
(0.00747308 0 0.00105889)
(0.00762763 0 0.00112949)
(0.00776921 0 0.00120117)
(0.00790224 0 0.00127354)
(0.00803093 0 0.00134601)
(0.00815898 0 0.00141779)
(0.00828936 0 0.00148781)
(0.00842384 0 0.00155485)
(0.00856251 0 0.00161756)
(0.00870338 0 0.00167467)
(0.00884216 0 0.0017253)
(0.00897272 0 0.00176914)
(0.00908839 0 0.00180641)
(0.00918341 0 0.00183708)
(0.00925149 0 0.00185882)
(0.00936728 0 0.00186915)
(0 0 0)
(0.0010146 0 9.89176e-05)
(0.00194235 0 0.000190911)
(0.00276477 0 0.000275329)
(0.00349281 0 0.000354031)
(0.00413637 0 0.000428511)
(0.00470431 0 0.000499975)
(0.00520471 0 0.000569404)
(0.00564487 0 0.000637594)
(0.00603152 0 0.000705194)
(0.00637085 0 0.000772724)
(0.00666863 0 0.000840597)
(0.00693029 0 0.000909122)
(0.00716097 0 0.000978511)
(0.00736558 0 0.00104887)
(0.00754884 0 0.00112021)
(0.00771528 0 0.0011924)
(0.00786924 0 0.00126518)
(0.00801477 0 0.00133813)
(0.0081555 0 0.00141065)
(0.00829448 0 0.00148197)
(0.00843389 0 0.00155116)
(0.00857474 0 0.00161716)
(0.0087166 0 0.0016789)
(0.00885747 0 0.00173538)
(0.0089939 0 0.00178577)
(0.00912153 0 0.00182936)
(0.00923585 0 0.00186523)
(0.00933212 0 0.00189168)
(0.00940203 0 0.00190639)
(0.00949332 0 0.00191359)
(0 0 0)
(0.00101505 0 0.000105115)
(0.00194347 0 0.000202841)
(0.00276695 0 0.000292462)
(0.00349656 0 0.000375927)
(0.00414228 0 0.000454799)
(0.00471304 0 0.000530338)
(0.00521695 0 0.000603558)
(0.00566138 0 0.00067528)
(0.00605308 0 0.000746161)
(0.00639828 0 0.000816721)
(0.00670275 0 0.00088736)
(0.00697193 0 0.000958365)
(0.0072109 0 0.00102992)
(0.00742452 0 0.00110209)
(0.00761735 0 0.00117484)
(0.00779372 0 0.001248)
(0.00795766 0 0.00132128)
(0.00811279 0 0.00139424)
(0.00826224 0 0.00146631)
(0.00840846 0 0.00153676)
(0.00855299 0 0.00160477)
(0.0086963 0 0.00166946)
(0.00883765 0 0.00172995)
(0.00897506 0 0.0017854)
(0.00910555 0 0.001835)
(0.0092255 0 0.00187786)
(0.00933095 0 0.00191269)
(0.00941721 0 0.00193756)
(0.00947676 0 0.00195062)
(0.00955811 0 0.00194974)
(0 0 0)
(0.00101518 0 0.000110871)
(0.00194399 0 0.000213919)
(0.00276828 0 0.000308357)
(0.00349924 0 0.000396213)
(0.00414689 0 0.00047911)
(0.00472023 0 0.000558351)
(0.0052274 0 0.00063498)
(0.00567579 0 0.000709833)
(0.00607216 0 0.000783574)
(0.00642274 0 0.000856719)
(0.00673328 0 0.000929651)
(0.00700917 0 0.00100264)
(0.00725543 0 0.00107583)
(0.00747676 0 0.00114926)
(0.00767758 0 0.00122287)
(0.00786196 0 0.00129645)
(0.00803358 0 0.0013697)
(0.00819569 0 0.00144217)
(0.00835093 0 0.00151331)
(0.00850124 0 0.00158247)
(0.00864769 0 0.00164894)
(0.00879033 0 0.00171197)
(0.00892821 0 0.00177081)
(0.00905935 0 0.00182477)
(0.00918094 0 0.00187318)
(0.00928951 0 0.0019153)
(0.00938109 0 0.00195021)
(0.00945109 0 0.00197662)
(0.00949416 0 0.001993)
(0.00953178 0 0.00200436)
(0 0 0)
(0.00101492 0 0.000116223)
(0.00194376 0 0.000224208)
(0.00276857 0 0.000323104)
(0.00350061 0 0.000415008)
(0.00414995 0 0.000501591)
(0.00472562 0 0.000584189)
(0.00523575 0 0.000663871)
(0.00568776 0 0.000741485)
(0.00608839 0 0.000817696)
(0.00644383 0 0.000893012)
(0.00675981 0 0.000967803)
(0.00704161 0 0.00104231)
(0.00729414 0 0.00111667)
(0.00752197 0 0.00119087)
(0.00772929 0 0.00126484)
(0.0079199 0 0.00133835)
(0.00809719 0 0.00141107)
(0.00826399 0 0.00148259)
(0.00842256 0 0.00155239)
(0.00857441 0 0.00161987)
(0.00872025 0 0.0016844)
(0.00885987 0 0.00174534)
(0.00899216 0 0.00180206)
(0.00911519 0 0.00185401)
(0.00922626 0 0.00190066)
(0.00932209 0 0.00194158)
(0.00939887 0 0.0019764)
(0.00945266 0 0.00200497)
(0.00948018 0 0.00202715)
(0.00947497 0 0.00207031)
(0 0 0)
(0.00193924 0 0)
(0.0027173 0 0)
(0.00352398 0 0)
(0.00423214 0 0)
(0.00482238 0 0)
(0.00530628 0 0)
(0.00570079 0 0)
(0.0060209 0 0)
(0.00627815 0 0)
(0.00648098 0 0)
(0.00663531 0 0)
(0.00674505 0 0)
(0.0068127 0 0)
(0.00683959 0 0)
(0.00682609 0 0)
(0.00677181 0 0)
(0.00667565 0 0)
(0.00653585 0 0)
(0.00635006 0 0)
(0.00611533 0 0)
(0.00582811 0 0)
(0.00548424 0 0)
(0.00507892 0 0)
(0.00460672 0 0)
(0.00406147 0 0)
(0.00343629 0 0)
(0.00272351 0 0)
(0.00191464 0 0)
(0.00100034 0 0)
(0 0 0)
(0.00151552 0 -0.00105226)
(0.00252618 0 -0.000525247)
(0.00314535 0 -0.000355218)
(0.00381804 0 -0.000202359)
(0.00443232 0 -9.11774e-05)
(0.00496007 0 -1.64323e-05)
(0.00540277 0 3.19046e-05)
(0.00576989 0 6.23095e-05)
(0.00607145 0 8.08079e-05)
(0.00631587 0 9.14259e-05)
(0.0065096 0 9.68005e-05)
(0.00665733 0 9.86567e-05)
(0.0067622 0 9.8132e-05)
(0.00682616 0 9.59885e-05)
(0.00685022 0 9.2744e-05)
(0.00683453 0 8.87539e-05)
(0.00677852 0 8.42632e-05)
(0.00668099 0 7.94402e-05)
(0.0065401 0 7.43976e-05)
(0.00635343 0 6.92081e-05)
(0.00611798 0 6.39134e-05)
(0.00583018 0 5.85308e-05)
(0.00548585 0 5.30575e-05)
(0.00508016 0 4.74733e-05)
(0.00460765 0 4.17409e-05)
(0.00406216 0 3.58063e-05)
(0.00343678 0 2.95974e-05)
(0.00272384 0 2.30213e-05)
(0.00191484 0 1.59605e-05)
(0.00100041 0 8.26717e-06)
(0 0 0)
(0.00372225 0 -0.00123982)
(0.00392947 0 -0.000721844)
(0.00421228 0 -0.000491181)
(0.00457888 0 -0.000272539)
(0.00496586 0 -0.000105702)
(0.00533575 0 1.09342e-05)
(0.00567097 0 8.87177e-05)
(0.00596478 0 0.000138755)
(0.00621569 0 0.000169595)
(0.00642446 0 0.000187284)
(0.00659259 0 0.00019597)
(0.00672154 0 0.000198472)
(0.00681239 0 0.000196709)
(0.00686571 0 0.000192005)
(0.00688156 0 0.000185277)
(0.00685946 0 0.000177166)
(0.0067984 0 0.000168122)
(0.00669684 0 0.000158454)
(0.00655272 0 0.000148372)
(0.00636345 0 0.000138012)
(0.00612591 0 0.000127451)
(0.00583641 0 0.000116718)
(0.0054907 0 0.000105807)
(0.00508389 0 9.46753e-05)
(0.00461049 0 8.32473e-05)
(0.00406427 0 7.14151e-05)
(0.00343832 0 5.90344e-05)
(0.00272491 0 4.59199e-05)
(0.00191553 0 3.18372e-05)
(0.00100075 0 1.64914e-05)
(0 0 0)
(0.00585557 0 -0.000843611)
(0.00550832 0 -0.000524174)
(0.00548532 0 -0.000346076)
(0.00554204 0 -0.000161864)
(0.00567681 0 -9.39736e-06)
(0.00585819 0 0.000104619)
(0.00605715 0 0.000184751)
(0.00625332 0 0.000238221)
(0.00643398 0 0.000271764)
(0.00659164 0 0.000290775)
(0.00672206 0 0.000299322)
(0.00682277 0 0.00030039)
(0.00689216 0 0.000296136)
(0.00692895 0 0.000288119)
(0.00693192 0 0.000277468)
(0.00689968 0 0.000264991)
(0.00683056 0 0.000251268)
(0.00672256 0 0.000236708)
(0.00657326 0 0.000221588)
(0.00637979 0 0.000206087)
(0.00613885 0 0.000190306)
(0.00584658 0 0.000174281)
(0.00549862 0 0.000157995)
(0.00509 0 0.00014138)
(0.00461513 0 0.000124323)
(0.00406773 0 0.00010666)
(0.00344083 0 8.81753e-05)
(0.00272666 0 6.85913e-05)
(0.00191664 0 4.75582e-05)
(0.0010013 0 2.46358e-05)
(0 0 0)
(0.00740359 0 -0.000132027)
(0.00681987 0 -7.74789e-05)
(0.00661532 0 -4.35531e-06)
(0.00646332 0 8.95339e-05)
(0.0064053 0 0.000181692)
(0.00642591 0 0.000259804)
(0.00649751 0 0.000319726)
(0.00659528 0 0.000361885)
(0.00670063 0 0.00038867)
(0.00680073 0 0.000402988)
(0.00688697 0 0.00040759)
(0.00695355 0 0.000404824)
(0.00699635 0 0.000396575)
(0.00701227 0 0.000384318)
(0.00699873 0 0.000369184)
(0.00695333 0 0.000352021)
(0.00687365 0 0.000333455)
(0.00675713 0 0.000313937)
(0.00660092 0 0.000293776)
(0.00640185 0 0.000273171)
(0.00615633 0 0.000252232)
(0.00586034 0 0.00023099)
(0.00550935 0 0.000209412)
(0.00509826 0 0.000187402)
(0.00462139 0 0.000164805)
(0.00407239 0 0.000141402)
(0.0034442 0 0.000116905)
(0.00272899 0 9.09468e-05)
(0.00191812 0 6.30623e-05)
(0.00100203 0 3.26685e-05)
(0 0 0)
(0.00820062 0 0.000566835)
(0.00767517 0 0.000419796)
(0.00743092 0 0.000397396)
(0.00720143 0 0.000399832)
(0.00704404 0 0.000422625)
(0.00696169 0 0.000453268)
(0.00693815 0 0.000482213)
(0.00695354 0 0.000504349)
(0.0069902 0 0.000517854)
(0.00703423 0 0.000522817)
(0.00707519 0 0.000520249)