/*--------------------------------*- C++ -*----------------------------------*\
| =========                 |                                                 |
| \\      /  F ield         | OpenFOAM: The Open Source CFD Toolbox           |
|  \\    /   O peration     | Version:  dev                                   |
|   \\  /    A nd           | Web:      www.OpenFOAM.org                      |
|    \\/     M anipulation  |                                                 |
\*---------------------------------------------------------------------------*/
FoamFile
{
    version     2.0;
    format      ascii;
    class       surfaceScalarField;
    location    "4.07";
    object      phi;
}
// * * * * * * * * * * * * * * * * * * * * * * * * * * * * * * * * * * * * * //

dimensions      [0 3 -1 0 0 0 0];

internalField   nonuniform List<scalar> 
881
(
-0.0450888
-0.00158019
0.00338943
-0.0184541
0.0293076
-0.037025
0.0219563
-0.0450546
0.0149918
0.0078361
0.0903262
0.0570693
0.0644384
0.0478404
0.0401182
0.0393082
0.015826
0.0321247
0.0261117
0.183562
0.0805992
0.160146
0.0712527
0.136928
0.0625227
0.114326
0.0547232
0.0924096
0.0480254
0.0714214
0.0421475
0.0368094
0.262308
0.0992266
0.243099
0.0904587
0.223495
0.0821232
0.203817
0.0743978
0.184403
0.067437
0.165434
0.061114
0.147061
0.0551808
0.129339
0.0495664
0.0443573
0.32647
0.112598
0.312043
0.104883
0.296802
0.0973611
0.28103
0.0901668
0.265049
0.0834158
0.249077
0.0770835
0.2332
0.0710564
0.21747
0.0652954
0.201968
0.0598596
0.0548502
0.376745
0.120838
0.367169
0.114456
0.356498
0.108029
0.344983
0.10168
0.332887
0.0955094
0.320417
0.0895516
0.307688
0.0837838
0.29478
0.0782026
0.281783
0.0728573
0.268809
0.0678245
0.255963
0.0631512
0.0588301
0.414617
0.124483
0.40955
0.119521
0.403254
0.114322
0.39593
0.109002
0.387782
0.103656
0.378987
0.0983455
0.369672
0.0930976
0.359933
0.087941
0.349863
0.0829272
0.339564
0.0781236
0.329132
0.073585
0.318627
0.0693372
0.0653925
0.442126
0.124347
0.440918
0.120726
0.438491
0.116747
0.434982
0.112509
0.430536
0.108101
0.425289
0.10359
0.419357
0.0990287
0.412834
0.0944637
0.405808
0.0899536
0.398369
0.0855639
0.390601
0.0813545
0.382569
0.0773714
0.374313
0.0736513
0.365858
0.0702361
0.0671775
0.461582
0.121364
0.463413
0.118894
0.464147
0.116012
0.463858
0.112797
0.462635
0.109322
0.46057
0.105654
0.457749
0.10185
0.454249
0.0979635
0.450147
0.0940567
0.445516
0.0901955
0.440429
0.086443
0.434948
0.0828548
0.42912
0.0794825
0.422981
0.0763788
0.416562
0.0736009
0.0712076
0.475273
0.116435
0.479292
0.114874
0.482403
0.112901
0.484628
0.110571
0.486009
0.107941
0.486594
0.105069
0.486435
0.102008
0.485586
0.0988123
0.484104
0.0955395
0.482046
0.0922552
0.479468
0.0890224
0.476425
0.0859003
0.472963
0.082948
0.469122
0.080224
0.464938
0.0777887
0.460449
0.0757021
0.45569
0.0740184
0.0727787
0.485205
0.110312
0.490654
0.109425
0.4954
0.108153
0.499434
0.106536
0.502758
0.104616
0.505389
0.102437
0.507351
0.100047
0.508671
0.0974927
0.509384
0.0948279
0.509529
0.0921117
0.509148
0.0894049
0.508283
0.0867677
0.506975
0.08426
0.505261
0.0819421
0.503179
0.0798755
0.500767
0.07812
0.498061
0.0767301
0.4951
0.0757474
0.0751915
0.492941
0.103548
0.499228
0.103136
0.504999
0.102382
0.510225
0.10131
0.514889
0.0999521
0.518985
0.0983413
0.522515
0.0965166
0.525489
0.09452
0.52792
0.0923976
0.529833
0.0902005
0.531256
0.087985
0.532217
0.0858095
0.532748
0.0837322
0.532883
0.0818118
0.532655
0.0801086
0.532099
0.0786817
0.53125
0.0775857
0.53014
0.0768652
0.528791
0.0765486
0.0766408
0.499559
0.0964944
0.506283
0.0964129
0.512634
0.09603
0.518582
0.0953633
0.524099
0.0944347
0.52917
0.0932712
0.533783
0.0919039
0.537936
0.0903683
0.54163
0.0887045
0.544876
0.0869571
0.547688
0.0851748
0.55009
0.0834114
0.552102
0.0817236
0.553751
0.0801673
0.555066
0.0787994
0.556076
0.0776775
0.556813
0.0768562
0.557301
0.0763842
0.557559
0.0763003
0.557578
0.0766319
0.0774114
0.505726
0.0893525
0.51264
0.0894988
0.519289
0.0893813
0.52564
0.0890125
0.531667
0.0884087
0.537347
0.0875911
0.542667
0.0865852
0.547616
0.0854209
0.552189
0.084133
0.556388
0.0827606
0.56022
0.0813455
0.5637
0.0799352
0.566843
0.0785841
0.56967
0.0773452
0.572204
0.0762714
0.57447
0.075418
0.576494
0.0748394
0.578299
0.0745877
0.579897
0.0747114
0.581283
0.0752563
0.0762943
0.511811
0.0822219
0.518785
0.0825251
0.525569
0.082598
0.532133
0.0824493
0.538451
0.0820914
0.544502
0.0815411
0.550269
0.0808195
0.555739
0.0799519
0.560906
0.0789683
0.565766
0.0779028
0.570323
0.0767925
0.574582
0.0756792
0.57856
0.0746113
0.58227
0.0736399
0.585732
0.0728155
0.588967
0.0721895
0.591998
0.0718156
0.594846
0.0717484
0.597524
0.0720433
0.600032
0.0727591
0.0739952
0.518013
0.0751465
0.524984
0.0755554
0.531819
0.0757639
0.538491
0.075778
0.544976
0.075607
0.551255
0.0752642
0.557309
0.0747671
0.563125
0.074137
0.568696
0.0733997
0.574017
0.072585
0.579087
0.0717263
0.58391
0.0708599
0.588498
0.070028
0.592864
0.0692795
0.597023
0.0686621
0.600996
0.068224
0.604802
0.0680172
0.608462
0.0680971
0.611993
0.0685229
0.615402
0.0693608
0.0707257
0.524447
0.0681421
0.531386
0.0686171
0.538233
0.0689188
0.544961
0.0690513
0.551548
0.0690212
0.557975
0.0688392
0.564224
0.0685193
0.570284
0.0680797
0.576144
0.0675424
0.581799
0.0669331
0.587247
0.0662815
0.592492
0.06562
0.597539
0.0649857
0.602403
0.0644216
0.607097
0.0639741
0.611639
0.0636891
0.616049
0.0636154
0.620348
0.0638074
0.624557
0.0643252
0.628692
0.0652374
0.0666638
0.531195
0.0612109
0.538094
0.0617195
0.544934
0.0620799
0.551693
0.0622943
0.558349
0.0623675
0.564882
0.0623076
0.571277
0.0621262
0.577521
0.0618383
0.583604
0.0614625
0.58952
0.061021
0.595266
0.0605397
0.600843
0.0600479
0.606256
0.0595775
0.611518
0.059166
0.616641
0.0588574
0.621643
0.0586952
0.626543
0.0587244
0.631363
0.0589972
0.636127
0.0595719
0.640861
0.0605155
0.0619453
0.538333
0.0543473
0.545191
0.0548627
0.55202
0.0552525
0.558799
0.0555179
0.565506
0.0556622
0.572124
0.0556915
0.578638
0.0556152
0.585034
0.0554454
0.591302
0.055198
0.597435
0.0548918
0.603429
0.0545492
0.609286
0.0541959
0.615009
0.05386
0.620608
0.0535743
0.626095
0.0533772
0.631488
0.0533102
0.636806
0.053416
0.642071
0.0537418
0.647312
0.0543423
0.65256
0.0552802
0.0566651
0.545938
0.0475414
0.552762
0.0480407
0.559581
0.048435
0.566376
0.0487248
0.573129
0.0489122
0.579821
0.0490019
0.586438
0.0490012
0.592966
0.0489201
0.599396
0.0487716
0.60572
0.0485717
0.611935
0.0483395
0.618039
0.048097
0.624035
0.0478695
0.629932
0.0476842
0.635743
0.0475736
0.641484
0.0475776
0.647174
0.0477356
0.652838
0.0480891
0.658504
0.0486875
0.664209
0.0495878
0.0508897
0.554092
0.0407788
0.560892
0.0412427
0.567709
0.0416202
0.574525
0.0419115
0.581322
0.0421178
0.588084
0.0422427
0.594797
0.0422918
0.601447
0.0422732
0.608025
0.0421975
0.614523
0.0420779
0.620937
0.0419305
0.627266
0.0417739
0.633512
0.0416298
0.639683
0.0415207
0.645789
0.0414751
0.651847
0.0415283
0.657878
0.0417152
0.663905
0.0420723
0.669962
0.0426432
0.676085
0.0434779
0.0446638
0.562886
0.0340418
0.569678
0.0344539
0.576504
0.0347966
0.583348
0.0350698
0.590194
0.0352742
0.597028
0.0354125
0.603834
0.0354889
0.610601
0.0355098
0.617319
0.0354837
0.623981
0.0354213
0.630581
0.0353356
0.637118
0.0352422
0.643596
0.0351589
0.650019
0.035105
0.656398
0.0351043
0.66275
0.0351853
0.669097
0.0353792
0.675462
0.0357181
0.681879
0.0362386
0.688388
0.0369835
0.0380291
0.572413
0.0273088
0.579214
0.0276555
0.586065
0.0279483
0.592951
0.0281869
0.599856
0.0283719
0.606767
0.028505
0.61367
0.0285894
0.620554
0.02863
0.627409
0.0286335
0.634227
0.028608
0.641004
0.0285641
0.647739
0.0285139
0.654433
0.0284718
0.661091
0.0284541
0.667725
0.0284789
0.674352
0.0285683
0.680992
0.0287496
0.687671
0.0290506
0.694423
0.0294999
0.701289
0.0301322
0.0310092
0.582782
0.0205552
0.589615
0.0208252
0.59651
0.0210556
0.603454
0.0212462
0.610432
0.0213971
0.61743
0.0215097
0.624437
0.0215862
0.631441
0.0216302
0.638433
0.0216464
0.645405
0.0216411
0.652353
0.0216219
0.659276
0.021598
0.666174
0.0215804
0.673055
0.0215816
0.679928
0.0216146
0.68681
0.0216964
0.693721
0.0218491
0.70069
0.0220942
0.707749
0.0224538
0.714941
0.0229559
0.0236536
0.594092
0.0137521
0.600984
0.0139364
0.607947
0.0140945
0.61497
0.0142263
0.622039
0.0143317
0.629141
0.0144117
0.636263
0.0144677
0.643396
0.014502
0.650529
0.0145178
0.657656
0.0145192
0.664773
0.0145114
0.671877
0.0145004
0.678971
0.0144937
0.686062
0.0144994
0.693159
0.0145267
0.700277
0.0145878
0.70744
0.014698
0.714675
0.0148716
0.722018
0.0151246
0.729512
0.0154774
0.0159673
0.60646
0.00686954
0.613438
0.00696137
0.620495
0.0070399
0.627619
0.00710504
0.634797
0.00715681
0.642017
0.00719561
0.649267
0.00722219
0.656535
0.00723771
0.663814
0.00724379
0.671096
0.00724251
0.678377
0.0072365
0.685656
0.00722891
0.692934
0.00722341
0.700217
0.00722411
0.707518
0.00723577
0.71485
0.00726558
0.722239
0.00732141
0.729713
0.00741061
0.737308
0.00754366
0.745062
0.00773847
0.00804437
0.609723
0.616686
0.623729
0.630837
0.637997
0.645196
0.652423
0.659665
0.666914
0.674162
0.681404
0.68864
0.695871
0.703104
0.71035
0.717626
0.724959
0.732383
0.739941
0.747696
)
;

boundaryField
{
    inlet
    {
        type            calculated;
        value           nonuniform 0();
    }
    outlet
    {
        type            calculated;
        value           nonuniform List<scalar> 
15
(
0.557301
0.582411
0.602343
0.618684
0.632766
0.645592
0.657854
0.669999
0.682326
0.695038
0.708324
0.722312
0.737215
0.753002
0.755758
)
;
    }
    flap
    {
        type            calculated;
        value           nonuniform 0();
    }
    upperWall
    {
        type            calculated;
        value           uniform 0;
    }
    lowerWall
    {
        type            calculated;
        value           nonuniform 0();
    }
    frontAndBack
    {
        type            empty;
        value           nonuniform 0();
    }
    procBoundary2to1
    {
        type            processor;
        value           nonuniform List<scalar> 
17
(
-0.479083
-0.486177
-0.492507
-0.498584
-0.50468
-0.510937
-0.517442
-0.524263
-0.531468
-0.53913
-0.547328
-0.556148
-0.565678
-0.576026
-0.587287
-0.599575
-0.602851
)
;
    }
    procBoundary2to4
    {
        type            processor;
        value           nonuniform List<scalar> 
11
(
0.0489534
-0.0124377
-0.118092
-0.207096
-0.280939
-0.339844
-0.384988
-0.418264
-0.441992
-0.458601
-0.470345
)
;
    }
    procBoundary2to5
    {
        type            processor;
        value           nonuniform List<scalar> 
34
(
-0.00228849
-0.00361131
-0.044871
-0.00696608
-0.00556672
-0.0473276
-0.00184902
-0.00843978
-0.0211618
-0.0176722
0.0522824
-0.0318452
-0.0273169
0.112298
-0.039706
0.186824
-0.0503039
-0.0461632
0.243298
-0.0548353
0.308073
-0.0617774
-0.0585377
0.357222
-0.0645319
0.409892
-0.0692528
-0.0677801
0.450699
-0.0719994
0.491916
-0.0750449
0.527205
-0.0771243
)
;
    }
}


// ************************************************************************* //
