/*--------------------------------*- C++ -*----------------------------------*\
| =========                 |                                                 |
| \\      /  F ield         | OpenFOAM: The Open Source CFD Toolbox           |
|  \\    /   O peration     | Version:  dev                                   |
|   \\  /    A nd           | Web:      www.OpenFOAM.org                      |
|    \\/     M anipulation  |                                                 |
\*---------------------------------------------------------------------------*/
FoamFile
{
    version     2.0;
    format      ascii;
    class       volVectorField;
    location    "4.58";
    object      cellDisplacement;
}
// * * * * * * * * * * * * * * * * * * * * * * * * * * * * * * * * * * * * * //

dimensions      [0 1 0 0 0 0 0];

internalField   nonuniform List<vector> 
2790
(
(0.00685717 0 -8.48275e-06)
(0.0196364 0 -2.43653e-05)
(0.0306648 0 -3.82934e-05)
(0.0400837 0 -5.04869e-05)
(0.0480423 0 -6.11426e-05)
(0.0546723 0 -7.0384e-05)
(0.0600921 0 -7.8171e-05)
(0.0644082 0 -8.44995e-05)
(0.0677124 0 -8.92945e-05)
(0.0700838 0 -9.24252e-05)
(0.0715914 0 -9.37024e-05)
(0.0722956 0 -9.26678e-05)
(0.0722507 0 -8.90104e-05)
(0.0715034 0 -8.22739e-05)
(0.0700953 0 -7.18783e-05)
(0.0680639 0 -5.71152e-05)
(0.0654441 0 -3.71287e-05)
(0.06227 0 -1.08883e-05)
(0.0585762 0 2.28473e-05)
(0.0543998 0 6.55785e-05)
(0.0497827 0 0.000119116)
(0.0447743 0 0.000185631)
(0.0394341 0 0.00026775)
(0.0338355 0 0.000368682)
(0.0280726 0 0.000492423)
(0.0222719 0 0.000644008)
(0.0166149 0 0.000829618)
(0.0113768 0 0.0010553)
(0.00698672 0 0.00131891)
(0.0043683 0 0.00158198)
(0.00686513 0 -2.54746e-05)
(0.0196605 0 -7.31795e-05)
(0.0307044 0 -0.000115032)
(0.040139 0 -0.000151684)
(0.0481154 0 -0.000183737)
(0.0547646 0 -0.000211592)
(0.0602055 0 -0.000235082)
(0.0645461 0 -0.000254228)
(0.0678787 0 -0.000268808)
(0.0702832 0 -0.000278438)
(0.0718286 0 -0.000282646)
(0.0725759 0 -0.000279915)
(0.0725812 0 -0.000269431)
(0.0718921 0 -0.000249842)
(0.0705511 0 -0.00021944)
(0.0685971 0 -0.000176145)
(0.0660666 0 -0.000117449)
(0.0629955 0 -4.03474e-05)
(0.0594205 0 5.87672e-05)
(0.0553811 0 0.000184235)
(0.0509221 0 0.000341268)
(0.0460979 0 0.000536037)
(0.0409739 0 0.000775861)
(0.0356311 0 0.00106941)
(0.0301728 0 0.00142694)
(0.0247358 0 0.00186039)
(0.0195166 0 0.0023827)
(0.0148462 0 0.00300425)
(0.0112169 0 0.00370082)
(0.00952191 0 0.00433562)
(0.0068811 0 -4.25342e-05)
(0.0197087 0 -0.00012221)
(0.0307835 0 -0.000192172)
(0.0402491 0 -0.000253472)
(0.048261 0 -0.000307143)
(0.0549482 0 -0.000353993)
(0.0604304 0 -0.00039354)
(0.0648197 0 -0.00042596)
(0.0682089 0 -0.000450884)
(0.0706792 0 -0.000467668)
(0.0722975 0 -0.000474968)
(0.0731298 0 -0.00047154)
(0.0732345 0 -0.00045564)
(0.0726602 0 -0.000425045)
(0.0714517 0 -0.000377026)
(0.0696504 0 -0.000308287)
(0.0672957 0 -0.000214882)
(0.0644272 0 -9.21173e-05)
(0.0610856 0 6.55772e-05)
(0.0573148 0 0.00026484)
(0.0531644 0 0.000513585)
(0.0486991 0 0.000820913)
(0.0439947 0 0.00119726)
(0.039149 0 0.00165427)
(0.0342845 0 0.00220449)
(0.0295591 0 0.00286033)
(0.025172 0 0.00363268)
(0.0214593 0 0.00451348)
(0.019008 0 0.00544094)
(0.0185744 0 0.00618991)
(0.00690513 0 -5.96845e-05)
(0.0197818 0 -0.000171533)
(0.0309027 0 -0.000269877)
(0.0404133 0 -0.000356091)
(0.0484788 0 -0.00043167)
(0.0552216 0 -0.000497404)
(0.0607638 0 -0.000553384)
(0.0652252 0 -0.000599662)
(0.0686978 0 -0.000635689)
(0.0712631 0 -0.000660763)
(0.0729903 0 -0.000672487)
(0.0739506 0 -0.000670134)
(0.0742024 0 -0.000651131)
(0.0737979 0 -0.000612526)
(0.072785 0 -0.000550767)
(0.0712087 0 -0.000461599)
(0.0691131 0 -0.000339973)
(0.0665423 0 -0.000179968)
(0.0635434 0 2.52909e-05)
(0.0601664 0 0.000283849)
(0.0564628 0 0.000605296)
(0.0525148 0 0.00100002)
(0.0484076 0 0.00147931)
(0.04426 0 0.00205454)
(0.0402175 0 0.0027356)
(0.0364619 0 0.0035283)
(0.0332227 0 0.0044276)
(0.0307723 0 0.00540304)
(0.0296575 0 0.00635059)
(0.0305324 0 0.00699968)
(0.00693695 0 -7.69331e-05)
(0.0198802 0 -0.000221173)
(0.0310614 0 -0.000347847)
(0.0406286 0 -0.00045913)
(0.0487572 0 -0.000556816)
(0.0555736 0 -0.000641925)
(0.061201 0 -0.000714969)
(0.0657574 0 -0.000775906)
(0.0693395 0 -0.000824006)
(0.0720273 0 -0.000858124)
(0.0738978 0 -0.000876659)
(0.0750246 0 -0.000877838)
(0.0754683 0 -0.000858833)
(0.0752847 0 -0.000816216)
(0.0745261 0 -0.000745874)
(0.0732423 0 -0.000642916)
(0.0714827 0 -0.000501608)
(0.0692979 0 -0.000315344)
(0.0667438 0 -7.67591e-05)
(0.0638816 0 0.000222384)
(0.0607696 0 0.000592351)
(0.0574844 0 0.00104335)
(0.0541254 0 0.00158473)
(0.0508398 0 0.00222416)
(0.047791 0 0.00296389)
(0.0451716 0 0.00379738)
(0.0432152 0 0.00470035)
(0.0421838 0 0.00561878)
(0.0424258 0 0.00642462)
(0.0444455 0 0.00685419)
(0.0069755 0 -9.41838e-05)
(0.019991 0 -0.000270766)
(0.031247 0 -0.000425907)
(0.040892 0 -0.000562594)
(0.0491015 0 -0.000682739)
(0.056008 0 -0.000787715)
(0.0617366 0 -0.000878518)
(0.0664089 0 -0.000955116)
(0.0701212 0 -0.00101653)
(0.0729596 0 -0.00106141)
(0.0750071 0 -0.00108889)
(0.0763365 0 -0.0010965)
(0.077013 0 -0.00108123)
(0.0770971 0 -0.00103941)
(0.0766462 0 -0.000966669)
(0.0757157 0 -0.000857854)
(0.0743607 0 -0.000706996)
(0.0726383 0 -0.000507308)
(0.0706154 0 -0.000251765)
(0.0683626 0 6.73933e-05)
(0.0659575 0 0.000458479)
(0.0634742 0 0.00092951)
(0.0610171 0 0.00148765)
(0.0587145 0 0.00213558)
(0.05678 0 0.0028628)
(0.0553928 0 0.00364919)
(0.0547627 0 0.00445306)
(0.0551024 0 0.00520274)
(0.0566084 0 0.00577232)
(0.0595108 0 0.00594681)
(0.00702085 0 -0.000111423)
(0.020125 0 -0.000320428)
(0.0314706 0 -0.000504499)
(0.0412014 0 -0.000666487)
(0.0494979 0 -0.000809319)
(0.0565106 0 -0.000934629)
(0.0623638 0 -0.00104412)
(0.0671718 0 -0.00113759)
(0.0710369 0 -0.00121385)
(0.0740541 0 -0.00127215)
(0.0763074 0 -0.00131116)
(0.0778725 0 -0.00132852)
(0.0788195 0 -0.00132122)
(0.0792141 0 -0.0012856)
(0.0791193 0 -0.00121735)
(0.0785967 0 -0.00111146)
(0.0777076 0 -0.000962193)
(0.0765122 0 -0.00076288)
(0.075093 0 -0.00050793)
(0.0735299 0 -0.000191163)
(0.0719056 0 0.000193476)
(0.0703123 0 0.000650386)
(0.0688666 0 0.00118041)
(0.0676642 0 0.00178187)
(0.0669165 0 0.00243438)
(0.0667941 0 0.00310324)
(0.0674572 0 0.00373575)
(0.0690401 0 0.00425502)
(0.0716054 0 0.00455392)
(0.075101 0 0.00449252)
(0.00707311 0 -0.000128712)
(0.0202815 0 -0.000370308)
(0.0317187 0 -0.000583064)
(0.0415432 0 -0.000770506)
(0.0499489 0 -0.000936606)
(0.0570851 0 -0.00108337)
(0.063079 0 -0.0012126)
(0.0680366 0 -0.00132347)
(0.0720725 0 -0.00141605)
(0.0752897 0 -0.00148967)
(0.0777728 0 -0.00154288)
(0.0796009 0 -0.00157343)
(0.080849 0 -0.00157852)
(0.0815886 0 -0.00155478)
(0.0818888 0 -0.00149826)
(0.0818181 0 -0.0014045)
(0.0814465 0 -0.00126869)
(0.0808445 0 -0.00108525)
(0.0800849 0 -0.000848563)
(0.0792746 0 -0.000556433)
(0.0784986 0 -0.00020551)
(0.0778564 0 0.000204432)
(0.077463 0 0.000668579)
(0.0774367 0 0.00117699)
(0.0779007 0 0.00170565)
(0.0790239 0 0.00220887)
(0.0808945 0 0.00263087)
(0.0835512 0 0.00290149)
(0.0869289 0 0.00294302)
(0.0907554 0 0.00269527)
(0.00713166 0 -0.00014609)
(0.0204481 0 -0.000420134)
(0.0319882 0 -0.000661481)
(0.0419246 0 -0.000875131)
(0.0504507 0 -0.00106501)
(0.0577241 0 -0.00123375)
(0.0638645 0 -0.00138299)
(0.0689844 0 -0.00151235)
(0.0732121 0 -0.00162288)
(0.076648 0 -0.00171386)
(0.079381 0 -0.00178399)
(0.081494 0 -0.00183122)
(0.0830675 0 -0.00185318)
(0.0841786 0 -0.00184699)
(0.084903 0 -0.00180937)
(0.085316 0 -0.00173673)
(0.0854956 0 -0.00162539)
(0.0855267 0 -0.00147209)
(0.0854794 0 -0.00127204)
(0.0854649 0 -0.00102535)
(0.0855763 0 -0.000732687)
(0.0859168 0 -0.000397964)
(0.086597 0 -3.07285e-05)
(0.0877274 0 0.000352411)
(0.089411 0 0.000722003)
(0.0917246 0 0.00103473)
(0.0946888 0 0.00123701)
(0.0982422 0 0.00127414)
(0.102202 0 0.00110194)
(0.106155 0 0.000727571)
(0.00718331 0 -0.000163284)
(0.0206115 0 -0.0004698)
(0.0322777 0 -0.000740215)
(0.0423414 0 -0.000980164)
(0.0509961 0 -0.00119425)
(0.0584122 0 -0.00138535)
(0.06471 0 -0.00155499)
(0.070012 0 -0.00170481)
(0.0744449 0 -0.00183492)
(0.0781153 0 -0.00194536)
(0.0811153 0 -0.00203519)
(0.0835308 0 -0.00210256)
(0.0854484 0 -0.00214573)
(0.0869511 0 -0.00216258)
(0.0881202 0 -0.00215071)
(0.0890375 0 -0.00210762)
(0.0897864 0 -0.00203091)
(0.0904563 0 -0.00191895)
(0.0911537 0 -0.00177196)
(0.0919524 0 -0.00158898)
(0.0929597 0 -0.00137502)
(0.0942816 0 -0.001138)
(0.0960224 0 -0.000891508)
(0.0982749 0 -0.000654462)
(0.101124 0 -0.000459385)
(0.104544 0 -0.000342166)
(0.108483 0 -0.000345607)
(0.112781 0 -0.000505115)
(0.117147 0 -0.000834191)
(0.121092 0 -0.00128029)
(0.00723992 0 -0.000180449)
(0.0207804 0 -0.000519411)
(0.0325737 0 -0.00081912)
(0.042781 0 -0.00108553)
(0.0515781 0 -0.00132398)
(0.059141 0 -0.00153789)
(0.0656113 0 -0.00172949)
(0.0711059 0 -0.00190034)
(0.0757533 0 -0.00205143)
(0.0796699 0 -0.00218329)
(0.0829496 0 -0.0022955)
(0.0856787 0 -0.00238615)
(0.0879518 0 -0.00245453)
(0.0898569 0 -0.00249938)
(0.0914807 0 -0.00251938)
(0.0929103 0 -0.00251331)
(0.0942327 0 -0.00248014)
(0.0955585 0 -0.00242155)
(0.096982 0 -0.00233871)
(0.0985774 0 -0.00223334)
(0.100456 0 -0.00211324)
(0.102723 0 -0.00198937)
(0.105477 0 -0.0018779)
(0.108806 0 -0.00180002)
(0.112709 0 -0.00177968)
(0.117132 0 -0.00184647)
(0.121942 0 -0.00202679)
(0.126885 0 -0.00233498)
(0.131564 0 -0.00276078)
(0.135441 0 -0.00323186)
(0.00730107 0 -0.000197532)
(0.020963 0 -0.000568835)
(0.0328815 0 -0.00089784)
(0.0432313 0 -0.00119105)
(0.0521838 0 -0.00145407)
(0.0599116 0 -0.00169175)
(0.0665569 0 -0.00190584)
(0.0722492 0 -0.00209879)
(0.0771237 0 -0.00227239)
(0.0812961 0 -0.00242749)
(0.0848564 0 -0.00256344)
(0.0879026 0 -0.00268)
(0.0905348 0 -0.002777)
(0.0928438 0 -0.00285404)
(0.0949212 0 -0.00291099)
(0.0968594 0 -0.00294822)
(0.0987583 0 -0.00296697)
(0.100721 0 -0.00296989)
(0.102827 0 -0.00295895)
(0.105174 0 -0.00294026)
(0.107867 0 -0.0029233)
(0.111004 0 -0.00292066)
(0.114679 0 -0.00294947)
(0.118974 0 -0.00303167)
(0.12382 0 -0.00317964)
(0.129135 0 -0.00341167)
(0.134731 0 -0.00373525)
(0.140284 0 -0.0041425)
(0.145286 0 -0.00460623)
(0.149134 0 -0.0050609)
(0.00736588 0 -0.000214464)
(0.0211562 0 -0.00061786)
(0.0332055 0 -0.000975999)
(0.0436952 0 -0.00129615)
(0.0528095 0 -0.00158446)
(0.0607063 0 -0.00184601)
(0.0675328 0 -0.00208315)
(0.0734324 0 -0.00229922)
(0.0785363 0 -0.00249642)
(0.0829654 0 -0.0026763)
(0.086809 0 -0.00283796)
(0.0901765 0 -0.00298294)
(0.0931659 0 -0.00311142)
(0.095873 0 -0.00322402)
(0.098393 0 -0.00332181)
(0.100823 0 -0.00340666)
(0.103268 0 -0.00348187)
(0.105812 0 -0.00354978)
(0.10855 0 -0.003616)
(0.11158 0 -0.00368859)
(0.114999 0 -0.00377829)
(0.118894 0 -0.00389796)
(0.12338 0 -0.00406797)
(0.128477 0 -0.00430202)
(0.134106 0 -0.0046062)
(0.140175 0 -0.00498508)
(0.146473 0 -0.00542526)
(0.152645 0 -0.00589251)
(0.158103 0 -0.00634317)
(0.16209 0 -0.00673994)
(0.00743334 0 -0.000231171)
(0.0213569 0 -0.000666263)
(0.0335408 0 -0.00105324)
(0.0441732 0 -0.00140016)
(0.0534457 0 -0.00171391)
(0.0615117 0 -0.00199914)
(0.0685245 0 -0.00226034)
(0.074631 0 -0.00250005)
(0.0799705 0 -0.00272187)
(0.0846525 0 -0.00292695)
(0.0887816 0 -0.00311663)
(0.0924642 0 -0.00329185)
(0.0958007 0 -0.00345379)
(0.0988905 0 -0.00360417)
(0.10183 0 -0.00374518)
(0.104718 0 -0.00387983)
(0.107651 0 -0.00401225)
(0.110722 0 -0.00414724)
(0.114022 0 -0.00429194)
(0.117644 0 -0.00445578)
(0.121677 0 -0.00465044)
(0.12621 0 -0.00488959)
(0.131336 0 -0.00519228)
(0.137019 0 -0.0055646)
(0.143221 0 -0.00601166)
(0.149844 0 -0.00652664)
(0.156695 0 -0.00707892)
(0.163478 0 -0.00760647)
(0.169549 0 -0.00801796)
(0.174016 0 -0.00831144)
(0.00750244 0 -0.000247578)
(0.0215621 0 -0.000713817)
(0.0338824 0 -0.0011292)
(0.0446577 0 -0.00150255)
(0.0540817 0 -0.0018413)
(0.0623208 0 -0.00215082)
(0.0695229 0 -0.00243593)
(0.0758353 0 -0.00270013)
(0.0814013 0 -0.00294694)
(0.0863323 0 -0.00317792)
(0.0907361 0 -0.00339554)
(0.0947199 0 -0.00360188)
(0.0983844 0 -0.00379813)
(0.101832 0 -0.00398718)
(0.105158 0 -0.00417213)
(0.108459 0 -0.00435696)
(0.111829 0 -0.00454678)
(0.115357 0 -0.00474791)
(0.119132 0 -0.00496861)
(0.12324 0 -0.00521918)
(0.127758 0 -0.00551176)
(0.132769 0 -0.00586087)
(0.138308 0 -0.00627883)
(0.144352 0 -0.00677345)
(0.150858 0 -0.00734852)
(0.157735 0 -0.007996)
(0.164824 0 -0.00868539)
(0.171898 0 -0.00934432)
(0.178436 0 -0.00980301)
(0.18378 0 -0.0099714)
(0.00520982 0 -0.00181108)
(0.00982568 0 -0.00186415)
(0.0176576 0 -0.0018497)
(0.0275289 0 -0.00181232)
(0.0382523 0 -0.00175242)
(0.048992 0 -0.0016738)
(0.0592226 0 -0.00158517)
(0.0686163 0 -0.00149281)
(0.076987 0 -0.00139783)
(0.0842571 0 -0.00130486)
(0.0903869 0 -0.00120646)
(0.0954037 0 -0.00111596)
(0.0993612 0 -0.00103343)
(0.10229 0 -0.000954177)
(0.104218 0 -0.000879035)
(0.105173 0 -0.000808137)
(0.105171 0 -0.000741319)
(0.104217 0 -0.000678275)
(0.102309 0 -0.000618618)
(0.0994308 0 -0.000561905)
(0.0955598 0 -0.000507623)
(0.0906599 0 -0.000455043)
(0.0846962 0 -0.00040256)
(0.0776206 0 -0.000352497)
(0.0693657 0 -0.000302962)
(0.0598662 0 -0.000252899)
(0.0490529 0 -0.000201764)
(0.0368554 0 -0.000148581)
(0.0232045 0 -9.24061e-05)
(0.00800774 0 -3.17379e-05)
(0.00976422 0 -0.00532183)
(0.0143404 0 -0.00546702)
(0.0219064 0 -0.00544198)
(0.0313841 0 -0.0053392)
(0.0416147 0 -0.00516044)
(0.0518685 0 -0.00493073)
(0.0616659 0 -0.0046743)
(0.0706786 0 -0.00440839)
(0.0787132 0 -0.00413146)
(0.0856823 0 -0.00385179)
(0.0915627 0 -0.00357204)
(0.0963863 0 -0.00330981)
(0.100178 0 -0.00306716)
(0.102963 0 -0.00283377)
(0.104774 0 -0.00261225)
(0.105631 0 -0.00240297)
(0.105548 0 -0.00220548)
(0.104528 0 -0.00201891)
(0.102565 0 -0.00184216)
(0.0996424 0 -0.00167396)
(0.0957353 0 -0.00151287)
(0.0908093 0 -0.00135702)
(0.0848206 0 -0.0012025)
(0.0777199 0 -0.00105356)
(0.0694477 0 -0.000905803)
(0.0599328 0 -0.000756171)
(0.049105 0 -0.000603381)
(0.0368931 0 -0.000444356)
(0.0232285 0 -0.000276423)
(0.00801689 0 -9.49524e-05)
(0.0180042 0 -0.00854048)
(0.0226561 0 -0.00877708)
(0.0298354 0 -0.00877587)
(0.038565 0 -0.00861496)
(0.0479104 0 -0.00833482)
(0.0573067 0 -0.00797612)
(0.0663256 0 -0.00757684)
(0.0746154 0 -0.00715063)
(0.0820042 0 -0.00671034)
(0.0884218 0 -0.00626252)
(0.0938496 0 -0.00582465)
(0.098296 0 -0.00540896)
(0.101759 0 -0.00501191)
(0.104269 0 -0.00463439)
(0.105852 0 -0.00427615)
(0.106522 0 -0.00393726)
(0.106284 0 -0.00361689)
(0.105136 0 -0.00331365)
(0.103067 0 -0.00302586)
(0.100057 0 -0.00275154)
(0.0960786 0 -0.0024885)
(0.0910978 0 -0.00223438)
(0.0850612 0 -0.00198597)
(0.0779156 0 -0.00174167)
(0.0696109 0 -0.00149828)
(0.0600655 0 -0.00125079)
(0.0492086 0 -0.000998434)
(0.0369678 0 -0.000735302)
(0.0232759 0 -0.000457669)
(0.00803547 0 -0.000157247)
(0.0291835 0 -0.011473)
(0.033889 0 -0.0117619)
(0.0405302 0 -0.0117748)
(0.0482902 0 -0.01157)
(0.0565478 0 -0.0112166)
(0.0648465 0 -0.0107585)
(0.07281 0 -0.0102404)
(0.080118 0 -0.00967809)
(0.0866476 0 -0.00909765)
(0.0923222 0 -0.00851137)
(0.0971151 0 -0.00793331)
(0.101014 0 -0.00737749)
(0.104013 0 -0.00684212)
(0.106139 0 -0.0063339)
(0.107401 0 -0.00585136)
(0.107804 0 -0.00539405)
(0.107345 0 -0.00496071)
(0.106013 0 -0.00454956)
(0.103792 0 -0.00415844)
(0.100656 0 -0.00378483)
(0.0965736 0 -0.00342589)
(0.0915037 0 -0.00307865)
(0.0853961 0 -0.00274078)
(0.0781953 0 -0.00240603)
(0.0698479 0 -0.00207157)
(0.060259 0 -0.00173129)
(0.0493597 0 -0.00138296)
(0.0370757 0 -0.00101968)
(0.0233433 0 -0.000634462)
(0.00806409 0 -0.000218044)
(0.0424742 0 -0.0141296)
(0.0471277 0 -0.0144257)
(0.0530949 0 -0.0144231)
(0.0598294 0 -0.0141902)
(0.0668982 0 -0.0137859)
(0.0739561 0 -0.0132537)
(0.0806935 0 -0.0126382)
(0.0868756 0 -0.0119721)
(0.0923918 0 -0.0112789)
(0.0971733 0 -0.0105764)
(0.101188 0 -0.0098788)
(0.10441 0 -0.00919701)
(0.106848 0 -0.00854662)
(0.1085 0 -0.00792482)
(0.109364 0 -0.00733209)
(0.109433 0 -0.00676869)
(0.108695 0 -0.00623314)
(0.107132 0 -0.00572349)
(0.104718 0 -0.0052373)
(0.101423 0 -0.00477165)
(0.0972067 0 -0.00432317)
(0.0920247 0 -0.00388811)
(0.0858243 0 -0.00346302)
(0.0785487 0 -0.00304244)
(0.0701383 0 -0.00262154)
(0.0604925 0 -0.00219419)
(0.0495353 0 -0.00175394)
(0.0372124 0 -0.00129469)
(0.0234491 0 -0.0008062)
(0.00810701 0 -0.000277308)
(0.0571275 0 -0.0165128)
(0.0616009 0 -0.0167817)
(0.0668377 0 -0.0167506)
(0.0725282 0 -0.0164902)
(0.0783793 0 -0.0160472)
(0.0841396 0 -0.01546)
(0.0895767 0 -0.0147711)
(0.094546 0 -0.0140234)
(0.0989547 0 -0.0132411)
(0.102747 0 -0.0124449)
(0.105891 0 -0.0116506)
(0.10836 0 -0.010868)
(0.110152 0 -0.0101148)
(0.111262 0 -0.00939655)
(0.111666 0 -0.00870831)
(0.11135 0 -0.00805216)
(0.110289 0 -0.00742605)
(0.108456 0 -0.00682812)
(0.105816 0 -0.00625588)
(0.102332 0 -0.00570619)
(0.0979592 0 -0.00517524)
(0.0926447 0 -0.00465841)
(0.0863337 0 -0.00415214)
(0.0789671 0 -0.00365075)
(0.0704759 0 -0.00314756)
(0.0607611 0 -0.0026375)
(0.0497447 0 -0.0021098)
(0.0373703 0 -0.0015578)
(0.0235558 0 -0.00097075)
(0.00814599 0 -0.000334154)
(0.0725095 0 -0.0186166)
(0.0766899 0 -0.0188419)
(0.0811789 0 -0.0187786)
(0.0858452 0 -0.0184917)
(0.0904942 0 -0.018017)
(0.094955 0 -0.0173874)
(0.0990699 0 -0.0166414)
(0.102799 0 -0.0158314)
(0.106058 0 -0.0149803)
(0.108812 0 -0.0141111)
(0.111039 0 -0.0132411)
(0.112713 0 -0.0123827)
(0.113811 0 -0.0115456)
(0.114326 0 -0.0107422)
(0.114228 0 -0.00997287)
(0.113493 0 -0.00923809)
(0.112077 0 -0.00853345)
(0.109944 0 -0.00785789)
(0.107053 0 -0.00720911)
(0.103359 0 -0.00658387)
(0.0988104 0 -0.00597814)
(0.0933465 0 -0.00538585)
(0.0869095 0 -0.00480467)
(0.0794406 0 -0.00422831)
(0.0708532 0 -0.00364902)
(0.0610566 0 -0.00305948)
(0.0499806 0 -0.00244908)
(0.0375467 0 -0.00180901)
(0.0236652 0 -0.00112743)
(0.00818153 0 -0.000388119)
(0.0881215 0 -0.0204462)
(0.091931 0 -0.0206255)
(0.0956819 0 -0.0205326)
(0.0993574 0 -0.0202198)
(0.102838 0 -0.0197158)
(0.106027 0 -0.0190511)
(0.108854 0 -0.018262)
(0.111334 0 -0.0174004)
(0.113436 0 -0.0164976)
(0.115146 0 -0.0155738)
(0.116443 0 -0.0146472)
(0.117305 0 -0.0137307)
(0.117701 0 -0.0128339)
(0.117602 0 -0.0119636)
(0.116981 0 -0.0111263)
(0.115796 0 -0.0103225)
(0.114004 0 -0.00955114)
(0.111553 0 -0.00880875)
(0.108394 0 -0.00809316)
(0.104474 0 -0.00740115)
(0.0997386 0 -0.006729)
(0.0941157 0 -0.00607066)
(0.0875386 0 -0.00542076)
(0.0799486 0 -0.00477433)
(0.0712603 0 -0.00412398)
(0.0613835 0 -0.00345924)
(0.0502384 0 -0.00277057)
(0.0377397 0 -0.00204734)
(0.0237758 0 -0.00127618)
(0.00821037 0 -0.000438899)
(0.103599 0 -0.0220219)
(0.106996 0 -0.0221606)
(0.110028 0 -0.0220413)
(0.112738 0 -0.0216998)
(0.115077 0 -0.021163)
(0.117032 0 -0.0204633)
(0.118617 0 -0.0196406)
(0.119863 0 -0.0187376)
(0.120846 0 -0.0177971)
(0.121536 0 -0.0168354)
(0.121925 0 -0.0158696)
(0.121987 0 -0.0149119)
(0.121687 0 -0.0139716)
(0.120987 0 -0.0130552)
(0.119843 0 -0.0121673)
(0.118205 0 -0.0113082)
(0.116027 0 -0.0104809)
(0.113249 0 -0.00968219)
(0.109812 0 -0.00890928)
(0.105655 0 -0.00815893)
(0.100716 0 -0.00742724)
(0.0949245 0 -0.00670975)
(0.0882063 0 -0.00599821)
(0.0804919 0 -0.00528749)
(0.0716972 0 -0.00456976)
(0.0617329 0 -0.00383514)
(0.0505128 0 -0.0030732)
(0.0379308 0 -0.00227199)
(0.0238838 0 -0.00141643)
(0.00824738 0 -0.000487122)
(0.118695 0 -0.0233746)
(0.121665 0 -0.0234823)
(0.123981 0 -0.0233343)
(0.125722 0 -0.0229525)
(0.126927 0 -0.0223722)
(0.127674 0 -0.0216338)
(0.128058 0 -0.0207806)
(0.128154 0 -0.0198503)
(0.128065 0 -0.0188836)
(0.127792 0 -0.0179002)
(0.12732 0 -0.0169116)
(0.126621 0 -0.0159289)
(0.125654 0 -0.0149605)
(0.124373 0 -0.0140123)
(0.122723 0 -0.0130885)
(0.120649 0 -0.0121908)
(0.118091 0 -0.0113205)
(0.114986 0 -0.0104762)
(0.111269 0 -0.00965544)
(0.106873 0 -0.00885521)
(0.101727 0 -0.00807157)
(0.0957602 0 -0.00729962)
(0.0888948 0 -0.00653254)
(0.0810543 0 -0.00576379)
(0.0721516 0 -0.00498484)
(0.0620958 0 -0.00418592)
(0.0507838 0 -0.00335617)
(0.0381168 0 -0.00248222)
(0.0240029 0 -0.00154819)
(0.00829052 0 -0.000532557)
(0.133268 0 -0.0245511)
(0.135797 0 -0.0246315)
(0.137342 0 -0.0244342)
(0.138063 0 -0.0239871)
(0.138113 0 -0.0233466)
(0.13768 0 -0.0225646)
(0.136929 0 -0.0216856)
(0.135973 0 -0.0207426)
(0.134889 0 -0.019764)
(0.133739 0 -0.0187739)
(0.132481 0 -0.0177783)
(0.131083 0 -0.016786)
(0.129498 0 -0.015804)
(0.127673 0 -0.0148378)
(0.125548 0 -0.0138913)
(0.123057 0 -0.0129667)
(0.120136 0 -0.012065)
(0.116716 0 -0.0111856)
(0.112726 0 -0.0103266)
(0.108093 0 -0.00948514)
(0.102744 0 -0.0086575)
(0.0966021 0 -0.00783877)
(0.0895885 0 -0.0070227)
(0.0816226 0 -0.00620235)
(0.0726121 0 -0.00536819)
(0.0624513 0 -0.00451084)
(0.0510458 0 -0.00361863)
(0.0383077 0 -0.00267762)
(0.0241319 0 -0.00167124)
(0.00834144 0 -0.000575404)
(0.147261 0 -0.0256114)
(0.149279 0 -0.0256417)
(0.149916 0 -0.0253442)
(0.149481 0 -0.0247901)
(0.148343 0 -0.0240737)
(0.146777 0 -0.0232502)
(0.144987 0 -0.0223568)
(0.143094 0 -0.0214166)
(0.141155 0 -0.0204456)
(0.13923 0 -0.0194634)
(0.137281 0 -0.0184766)
(0.135264 0 -0.017489)
(0.133127 0 -0.016507)
(0.130812 0 -0.0155356)
(0.128251 0 -0.0145785)
(0.125377 0 -0.0136381)
(0.122117 0 -0.0127156)
(0.1184 0 -0.011811)
(0.114149 0 -0.0109228)
(0.109289 0 -0.0100485)
(0.103743 0 -0.00918462)
(0.0974311 0 -0.00832639)
(0.0902713 0 -0.00746795)
(0.0821843 0 -0.00660265)
(0.073058 0 -0.00571937)
(0.0627914 0 -0.00480907)
(0.0513047 0 -0.00385996)
(0.0384963 0 -0.00285763)
(0.0242487 0 -0.00178396)
(0.00838058 0 -0.000614298)
(0.160641 0 -0.0266038)
(0.161884 0 -0.026498)
(0.161323 0 -0.0260115)
(0.159587 0 -0.025315)
(0.157274 0 -0.0245253)
(0.154688 0 -0.0236798)
(0.152012 0 -0.0227948)
(0.149342 0 -0.0218784)
(0.146714 0 -0.0209366)
(0.144139 0 -0.0199794)
(0.141611 0 -0.0190151)
(0.139072 0 -0.0180454)
(0.136464 0 -0.0170756)
(0.133722 0 -0.0161105)
(0.130778 0 -0.0151537)
(0.127559 0 -0.0142078)
(0.123993 0 -0.0132745)
(0.120002 0 -0.0123538)
(0.115509 0 -0.0114449)
(0.110437 0 -0.0105457)
(0.104704 0 -0.00965297)
(0.0982285 0 -0.00876219)
(0.0909266 0 -0.00786773)
(0.0827155 0 -0.00696308)
(0.0734809 0 -0.0060378)
(0.0631188 0 -0.00508001)
(0.0515523 0 -0.00407965)
(0.0386796 0 -0.0030221)
(0.0243531 0 -0.00188666)
(0.00840628 0 -0.000648961)
(0.173121 0 -0.0274801)
(0.172996 0 -0.0270505)
(0.170884 0 -0.0262938)
(0.167848 0 -0.0254788)
(0.16453 0 -0.0246671)
(0.16115 0 -0.0238466)
(0.157817 0 -0.023006)
(0.154578 0 -0.02214)
(0.151441 0 -0.0212482)
(0.14839 0 -0.0203347)
(0.145414 0 -0.0194063)
(0.14246 0 -0.0184666)
(0.139466 0 -0.0175203)
(0.136368 0 -0.0165719)
(0.133095 0 -0.0156251)
(0.129577 0 -0.014683)
(0.125738 0 -0.0137473)
(0.121501 0 -0.0128189)
(0.116788 0 -0.011897)
(0.111519 0 -0.0109802)
(0.105612 0 -0.0100654)
(0.0989819 0 -0.00914844)
(0.0915435 0 -0.00822384)
(0.0832068 0 -0.00728473)
(0.073868 0 -0.006322)
(0.063423 0 -0.00532323)
(0.0517797 0 -0.00427725)
(0.0388366 0 -0.00316955)
(0.0244423 0 -0.00197913)
(0.0084333 0 -0.00068055)
(0.183165 0 -0.0278272)
(0.181201 0 -0.0268654)
(0.177683 0 -0.0259687)
(0.173798 0 -0.0252056)
(0.169896 0 -0.0244877)
(0.166075 0 -0.0237633)
(0.16237 0 -0.0230104)
(0.15879 0 -0.0222221)
(0.155329 0 -0.0213986)
(0.151967 0 -0.0205442)
(0.148678 0 -0.0196653)
(0.145414 0 -0.0187667)
(0.14212 0 -0.0178536)
(0.138734 0 -0.0169307)
(0.135189 0 -0.0160024)
(0.131415 0 -0.0150719)
(0.127339 0 -0.0141416)
(0.122884 0 -0.0132124)
(0.117973 0 -0.0122844)
(0.112524 0 -0.0113563)
(0.106455 0 -0.0104256)
(0.099682 0 -0.0094882)
(0.0921157 0 -0.00853894)
(0.0836638 0 -0.00757088)
(0.074226 0 -0.00657506)
(0.063699 0 -0.00554007)
(0.0519818 0 -0.00445361)
(0.0389637 0 -0.0033004)
(0.0245094 0 -0.0020607)
(0.0084568 0 -0.000708737)
(0.00757326 0 -0.000263875)
(0.0217718 0 -0.000761047)
(0.0342301 0 -0.00120459)
(0.0451495 0 -0.00160428)
(0.054727 0 -0.00196814)
(0.0631344 0 -0.0023023)
(0.070524 0 -0.00261163)
(0.0770463 0 -0.00290091)
(0.0828369 0 -0.00317346)
(0.0880127 0 -0.00343171)
(0.0926829 0 -0.00367802)
(0.0969532 0 -0.00391551)
(0.100926 0 -0.00414661)
(0.104705 0 -0.00437483)
(0.108384 0 -0.00460388)
(0.112054 0 -0.00483851)
(0.115805 0 -0.00508459)
(0.11972 0 -0.0053493)
(0.123881 0 -0.00564149)
(0.128361 0 -0.00597162)
(0.133223 0 -0.0063516)
(0.13853 0 -0.00679536)
(0.144275 0 -0.00731037)
(0.150425 0 -0.00790537)
(0.156923 0 -0.00858606)
(0.16366 0 -0.00935359)
(0.17046 0 -0.0102087)
(0.177054 0 -0.01117)
(0.183018 0 -0.0123252)
(0.188148 0 -0.0140614)
(0.00764467 0 -0.000280041)
(0.0219834 0 -0.000807941)
(0.0345805 0 -0.0012795)
(0.0456441 0 -0.00170533)
(0.055376 0 -0.00209433)
(0.0639518 0 -0.00245323)
(0.0715292 0 -0.00278755)
(0.0782561 0 -0.00310218)
(0.0842665 0 -0.00340091)
(0.0896795 0 -0.00368685)
(0.0946051 0 -0.00396292)
(0.0991455 0 -0.00423197)
(0.103409 0 -0.00449838)
(0.107493 0 -0.00476562)
(0.111486 0 -0.00503801)
(0.115476 0 -0.00532079)
(0.119544 0 -0.00562024)
(0.123767 0 -0.0059438)
(0.128213 0 -0.00630021)
(0.132942 0 -0.00669935)
(0.137998 0 -0.00715202)
(0.143409 0 -0.00766934)
(0.149142 0 -0.00825677)
(0.15515 0 -0.00892243)
(0.161342 0 -0.009672)
(0.167576 0 -0.0105103)
(0.173648 0 -0.0114478)
(0.17929 0 -0.012517)
(0.184155 0 -0.0137792)
(0.187956 0 -0.0153738)
(0.00771469 0 -0.000295835)
(0.0221911 0 -0.000853782)
(0.0349253 0 -0.00135288)
(0.0461309 0 -0.00180443)
(0.056014 0 -0.00221807)
(0.0647544 0 -0.00260139)
(0.0725122 0 -0.00296029)
(0.0794342 0 -0.00329993)
(0.0856533 0 -0.00362456)
(0.0912891 0 -0.00393782)
(0.096452 0 -0.00424316)
(0.101245 0 -0.00454409)
(0.10577 0 -0.00484482)
(0.11012 0 -0.00514945)
(0.114379 0 -0.00546267)
(0.11863 0 -0.00578991)
(0.122944 0 -0.00613749)
(0.127388 0 -0.00651256)
(0.132016 0 -0.00692314)
(0.13687 0 -0.00737785)
(0.141973 0 -0.00788547)
(0.147324 0 -0.00845392)
(0.152881 0 -0.00908885)
(0.158573 0 -0.00979574)
(0.164292 0 -0.0105791)
(0.169882 0 -0.0114434)
(0.175172 0 -0.0124037)
(0.179897 0 -0.013473)
(0.18378 0 -0.0146771)
(0.186644 0 -0.0161032)
(0.00778182 0 -0.00031112)
(0.0223909 0 -0.000898192)
(0.0352577 0 -0.00142403)
(0.0466011 0 -0.00190073)
(0.0566307 0 -0.00233849)
(0.0655291 0 -0.00274551)
(0.0734583 0 -0.0031284)
(0.0805639 0 -0.00349247)
(0.0869779 0 -0.00384236)
(0.0928195 0 -0.00418216)
(0.0981979 0 -0.00451573)
(0.103215 0 -0.00484696)
(0.107966 0 -0.00518008)
(0.11254 0 -0.00551948)
(0.117016 0 -0.00586995)
(0.121467 0 -0.00623687)
(0.125957 0 -0.00662621)
(0.13054 0 -0.00704449)
(0.135256 0 -0.00749866)
(0.140131 0 -0.00799577)
(0.145171 0 -0.00854254)
(0.150355 0 -0.00914467)
(0.155632 0 -0.00980644)
(0.160922 0 -0.0105313)
(0.166115 0 -0.0113231)
(0.171073 0 -0.0121853)
(0.175619 0 -0.0131212)
(0.179546 0 -0.0141306)
(0.182692 0 -0.0152348)
(0.184919 0 -0.0164761)
(0.00784457 0 -0.00032575)
(0.0225785 0 -0.000940751)
(0.0355712 0 -0.00149231)
(0.047046 0 -0.00199326)
(0.0572153 0 -0.00245443)
(0.0662634 0 -0.00288441)
(0.0743527 0 -0.00329028)
(0.0816289 0 -0.00367793)
(0.088222 0 -0.00405211)
(0.0942498 0 -0.0044173)
(0.0998196 0 -0.00477762)
(0.10503 0 -0.00513717)
(0.109972 0 -0.00550023)
(0.114728 0 -0.00587121)
(0.119371 0 -0.00625481)
(0.123966 0 -0.0066561)
(0.128567 0 -0.00708049)
(0.133217 0 -0.00753363)
(0.137944 0 -0.00802121)
(0.14276 0 -0.00854867)
(0.147657 0 -0.00912084)
(0.152606 0 -0.00974153)
(0.157551 0 -0.0104143)
(0.162417 0 -0.0111413)
(0.167096 0 -0.0119224)
(0.171448 0 -0.0127549)
(0.175342 0 -0.0136372)
(0.178642 0 -0.0145711)
(0.181239 0 -0.0155648)
(0.183043 0 -0.0166281)
(0.00790149 0 -0.00033957)
(0.0227498 0 -0.000981015)
(0.0358595 0 -0.00155703)
(0.0474572 0 -0.00208109)
(0.0577572 0 -0.0025646)
(0.0669447 0 -0.00301661)
(0.0751821 0 -0.00344444)
(0.0826136 0 -0.00385435)
(0.0893682 0 -0.00425154)
(0.0955612 0 -0.00464061)
(0.101297 0 -0.00502581)
(0.106671 0 -0.00541135)
(0.111768 0 -0.00580146)
(0.116665 0 -0.00620042)
(0.121429 0 -0.00661267)
(0.126117 0 -0.0070428)
(0.130772 0 -0.0074955)
(0.13543 0 -0.00797545)
(0.140107 0 -0.00848712)
(0.144805 0 -0.00903444)
(0.149507 0 -0.00962041)
(0.15419 0 -0.0102491)
(0.158795 0 -0.0109214)
(0.163233 0 -0.0116352)
(0.167411 0 -0.0123872)
(0.17123 0 -0.0131751)
(0.174589 0 -0.0139964)
(0.177398 0 -0.0148495)
(0.179585 0 -0.0157335)
(0.181099 0 -0.0166426)
(0.00795118 0 -0.000352416)
(0.0229008 0 -0.00101851)
(0.0361164 0 -0.00161743)
(0.0478265 0 -0.00216322)
(0.0582463 0 -0.00266776)
(0.0675612 0 -0.00314049)
(0.0759328 0 -0.00358908)
(0.0835038 0 -0.00401989)
(0.0904009 0 -0.00443842)
(0.0967368 0 -0.0048494)
(0.102613 0 -0.00525732)
(0.10812 0 -0.0056662)
(0.113339 0 -0.00608016)
(0.118339 0 -0.00650323)
(0.123182 0 -0.00693947)
(0.127916 0 -0.00739289)
(0.132579 0 -0.00786741)
(0.137196 0 -0.00836675)
(0.141779 0 -0.00889423)
(0.146322 0 -0.00945263)
(0.150808 0 -0.010044)
(0.155207 0 -0.0106707)
(0.159458 0 -0.0113296)
(0.163487 0 -0.0120182)
(0.167221 0 -0.0127335)
(0.170586 0 -0.0134721)
(0.17351 0 -0.01423)
(0.175932 0 -0.0150031)
(0.177809 0 -0.0157859)
(0.179113 0 -0.0165672)
(0.00799231 0 -0.000364118)
(0.0230277 0 -0.00105275)
(0.036336 0 -0.00167273)
(0.0481461 0 -0.00223859)
(0.0586732 0 -0.00276259)
(0.0681019 0 -0.0032545)
(0.0765927 0 -0.00372223)
(0.084286 0 -0.00417234)
(0.0913061 0 -0.00461039)
(0.0977627 0 -0.0050412)
(0.103754 0 -0.00546921)
(0.109365 0 -0.00589853)
(0.114673 0 -0.00633294)
(0.119741 0 -0.00677613)
(0.124625 0 -0.00723169)
(0.129368 0 -0.00770303)
(0.134 0 -0.0081933)
(0.138541 0 -0.00870528)
(0.142997 0 -0.0092413)
(0.147363 0 -0.00980314)
(0.151619 0 -0.010392)
(0.155729 0 -0.0110073)
(0.15964 0 -0.0116451)
(0.163297 0 -0.0123031)
(0.166645 0 -0.0129779)
(0.169628 0 -0.0136653)
(0.172196 0 -0.0143607)
(0.17431 0 -0.0150585)
(0.175945 0 -0.0157514)
(0.177091 0 -0.0164281)
(0.00802368 0 -0.0003745)
(0.0231272 0 -0.00108323)
(0.0365129 0 -0.00172214)
(0.0484089 0 -0.00230612)
(0.0590293 0 -0.00284776)
(0.0685572 0 -0.00335705)
(0.077151 0 -0.00384208)
(0.0849488 0 -0.00430952)
(0.092072 0 -0.00476499)
(0.0986271 0 -0.00521333)