/*--------------------------------*- C++ -*----------------------------------*\
| =========                 |                                                 |
| \\      /  F ield         | OpenFOAM: The Open Source CFD Toolbox           |
|  \\    /   O peration     | Version:  dev                                   |
|   \\  /    A nd           | Web:      www.OpenFOAM.org                      |
|    \\/     M anipulation  |                                                 |
\*---------------------------------------------------------------------------*/
FoamFile
{
    version     2.0;
    format      ascii;
    class       volVectorField;
    location    "4.58";
    object      Force;
}
// * * * * * * * * * * * * * * * * * * * * * * * * * * * * * * * * * * * * * //

dimensions      [1 1 -2 0 0 0 0];

internalField   uniform (0 0 0);

boundaryField
{
    inlet
    {
        type            calculated;
        value           uniform (0 0 0);
    }
    outlet
    {
        type            calculated;
        value           uniform (0 0 0);
    }
    flap
    {
        type            calculated;
        value           nonuniform List<vector> 
33
(
(3.72279 -5.87747e-39 -0.196255)
(3.67334 1.28923e-21 -0.412153)
(3.61468 -1.7775e-17 -0.598154)
(3.54867 -4.79355e-18 -0.721158)
(3.47831 2.2689e-21 -0.7916)
(3.40558 6.90898e-23 -0.819413)
(3.33193 1.6423e-17 -0.815662)
(3.25758 1.50961e-23 -0.790075)
(3.17727 -7.27775e-23 -0.749747)
(3.08444 1.60209e-17 -0.69963)
(2.97048 -4.1443e-18 -0.643057)
(2.82085 -1.97558e-21 -0.582732)
(2.61043 1.93285e-21 -0.518783)
(2.28869 -1.55051e-17 -0.44278)
(1.73497 2.43154e-22 -0.332907)
(0.135821 4.60199e-19 0.676433)
(0.0852894 -2.27049e-21 0.441399)
(0.033411 7.69944e-18 0.175648)
(-0.0881659 7.46051e-42 0.00463817)
(-0.0878882 1.43976e-17 0.00982053)
(-0.086884 -1.48487e-17 0.0142621)
(-0.0852999 1.207e-19 0.0171084)
(-0.083293 2.56559e-23 0.0186419)
(-0.0811288 -2.27652e-19 0.0191283)
(-0.079075 1.6007e-17 0.0188991)
(-0.0773018 -9.51398e-25 0.0182537)
(-0.0758905 -2.10258e-19 0.0174039)
(-0.0748023 -1.65912e-17 0.0164797)
(-0.0739063 -4.43042e-25 0.0155722)
(-0.0727451 1.66476e-17 0.0147034)
(-0.0700142 9.62863e-20 0.0137377)
(-0.0628433 -8.63479e-20 0.0122482)
(-0.0439325 5.99953e-20 0.00868883)
)
;
    }
    upperWall
    {
        type            calculated;
        value           uniform (0 0 0);
    }
    lowerWall
    {
        type            calculated;
        value           uniform (0 0 0);
    }
    frontAndBack
    {
        type            empty;
    }
}


// ************************************************************************* //
