/*--------------------------------*- C++ -*----------------------------------*\
| =========                 |                                                 |
| \\      /  F ield         | OpenFOAM: The Open Source CFD Toolbox           |
|  \\    /   O peration     | Version:  dev                                   |
|   \\  /    A nd           | Web:      www.OpenFOAM.org                      |
|    \\/     M anipulation  |                                                 |
\*---------------------------------------------------------------------------*/
FoamFile
{
    version     2.0;
    format      ascii;
    class       surfaceVectorField;
    location    "4.06";
    object      Uf;
}
// * * * * * * * * * * * * * * * * * * * * * * * * * * * * * * * * * * * * * //

dimensions      [0 1 -1 0 0 0 0];

internalField   nonuniform List<vector> 
5457
(
(9.91913 -6.78106e-22 0.0239363)
(9.96775 0 0.0388126)
(9.82317 -1.35741e-21 0.0315527)
(9.92687 1.33817e-21 0.0472429)
(9.71034 3.97163e-22 0.037934)
(9.8571 -2.74746e-21 0.057008)
(9.5786 6.80607e-22 0.0444761)
(9.76111 3.49172e-22 0.0683083)
(9.42776 -3.58971e-22 0.0512533)
(9.64466 -3.72004e-22 0.0802614)
(9.25781 -7.86839e-22 0.0583291)
(9.5093 4.50292e-21 0.0927945)
(9.06835 -7.66952e-22 0.0658539)
(9.35429 -6.19368e-21 0.106141)
(8.85866 2.537e-21 0.0739797)
(9.17858 3.18473e-21 0.120537)
(8.62775 1.60752e-21 0.0828418)
(8.98127 1.67783e-21 0.136182)
(8.37448 -5.398e-21 0.09257)
(8.76134 -1.71061e-21 0.153258)
(8.0975 -6.94795e-22 0.103297)
(8.51762 -3.60969e-21 0.171952)
(7.79537 1.69254e-21 0.11516)
(8.24871 3.69755e-21 0.192446)
(7.46651 -1.90862e-21 0.128295)
(7.95309 1.5416e-20 0.214915)
(7.10931 2.1231e-21 0.142836)
(7.62914 -1.58385e-20 0.239513)
(6.72219 2.06967e-21 0.158898)
(7.27521 2.80974e-23 0.266348)
(6.30368 9.31171e-21 0.176566)
(6.88972 0 0.295454)
(5.85262 -4.86814e-22 0.19587)
(6.47124 1.36924e-20 0.326752)
(5.36836 -1.1856e-20 0.216752)
(6.01869 2.83905e-20 0.359989)
(4.85098 -2.45417e-21 0.239031)
(5.53157 -3.40828e-20 0.394674)
(4.30166 0 0.262352)
(5.01023 -5.10216e-21 0.430003)
(3.72305 5.7266e-21 0.286125)
(4.45621 5.32111e-21 0.464766)
(3.11967 -1.84062e-20 0.30946)
(3.8727 -8.91985e-20 0.497271)
(2.49838 1.20172e-21 0.331083)
(3.26493 -1.30557e-20 0.525263)
(1.86876 3.06014e-20 0.349304)
(2.64068 1.20323e-19 0.545904)
(1.24325 6.30015e-21 0.362639)
(2.01088 2.96184e-22 0.556005)
(0.634813 -6.90763e-21 0.370341)
(1.39104 -1.167e-19 0.554146)
(0.0411401 -6.75654e-21 0.12922)
(0.796354 1.06657e-19 0.552636)
(-0.270684 -5.77887e-20 -0.228226)
(0.149999 -1.38172e-20 0.295694)
(-0.31234 1.33701e-20 -0.370832)
(0.000522745 -4.29485e-20 0.0397781)
(-0.0076532 5.80014e-20 -0.309793)
(9.99767 2.03129e-21 0.0499617)
(9.99436 -2.60756e-21 0.0399306)
(9.9613 -1.07556e-22 0.068486)
(9.97835 4.67894e-21 0.0651493)
(9.90306 -2.7596e-21 0.0849677)
(9.93729 -3.42798e-21 0.0864389)
(9.82435 -7.13167e-22 0.102308)
(9.87092 7.07153e-22 0.109124)
(9.72492 4.55301e-21 0.120641)
(9.78375 -3.00272e-24 0.133175)
(9.60455 -1.043e-21 0.140051)
(9.6774 4.48975e-21 0.158519)
(9.46286 -2.12077e-21 0.160844)
(9.55137 3.85948e-21 0.185528)
(9.29915 2.30605e-21 0.18335)
(9.40477 -9.57631e-21 0.214645)
(9.1125 -1.68499e-21 0.207863)
(9.23679 5.73885e-21 0.246268)
(8.90179 5.39068e-23 0.234665)
(9.04652 -1.45928e-20 0.280771)
(8.66571 8.77482e-22 0.264033)
(8.8329 4.26032e-21 0.318532)
(8.40279 1.75742e-20 0.296239)
(8.59463 1.45959e-20 0.359931)
(8.11145 1.09344e-21 0.331533)
(8.33029 3.26989e-20 0.405334)
(7.79002 -1.77389e-20 0.370117)
(8.03834 -3.55279e-20 0.455072)
(7.43682 -2.04891e-21 0.412108)
(7.71713 -3.52504e-20 0.509393)
(7.05025 4.55508e-21 0.457484)
(7.36505 6.42844e-20 0.568409)
(6.62894 4.27729e-20 0.506015)
(6.98055 -2.6514e-20 0.632012)
(6.17197 5.46136e-21 0.557166)
(6.5623 4.19346e-22 0.699762)
(5.67908 -3.63432e-20 0.609993)
(6.1094 -7.59769e-20 0.770749)
(5.15105 3.5068e-22 0.663013)
(5.62166 1.61312e-19 0.843431)
(4.5901 -9.08861e-20 0.714076)
(5.09987 -9.39347e-20 0.915442)
(4.00033 -8.33461e-20 0.760219)
(4.54631 -1.72017e-19 0.983393)
(3.38837 1.07182e-19 0.797526)
(3.96519 -1.73475e-21 1.04266)
(2.76407 8.83969e-20 0.820951)
(3.36337 2.01843e-19 1.08712)
(2.14192 -1.24247e-19 0.823789)
(2.75123 1.90663e-19 1.10876)
(1.54673 -3.76905e-22 0.794598)
(2.14549 -3.06819e-19 1.09562)
(1.04379 9.83931e-20 0.676699)
(1.56101 3.11157e-19 1.01999)
(0.524145 7.2057e-22 0.438821)
(1.02548 -2.04441e-19 0.787911)
(0.0958654 -7.80643e-22 -0.0357627)
(0.545601 -1.33418e-20 0.449293)
(0.249996 -2.63735e-19 -0.212674)
(9.99021 1.30399e-22 0.0577495)
(9.99204 3.25291e-21 0.0446293)
(9.9568 1.24929e-21 0.0862368)
(9.97338 6.68789e-22 0.0815962)
(9.90195 9.24516e-23 0.113373)
(9.9332 8.35707e-24 0.114153)
(9.82802 1.40945e-21 0.141987)
(9.86974 1.41938e-21 0.14746)
(9.7352 -8.0988e-24 0.172416)
(9.78642 -2.8947e-21 0.182562)
(9.6233 9.38402e-21 0.204828)
(9.68491 -5.98355e-21 0.219623)
(9.49197 -3.76906e-21 0.239638)
(9.56498 9.27672e-21 0.259103)
(9.34071 -5.94599e-21 0.277332)
(9.42593 -6.37272e-21 0.301594)
(9.16879 -7.42802e-21 0.318376)
(9.26712 2.23923e-23 0.347669)
(8.97527 -1.01429e-20 0.363227)
(9.08786 -1.37361e-20 0.397878)
(8.75905 1.81131e-20 0.41235)
(8.8873 -1.56184e-22 0.452776)
(8.51888 2.99513e-20 0.466205)
(8.66442 1.45966e-20 0.512929)
(8.25334 -4.78749e-21 0.525227)
(8.41807 1.53461e-20 0.578894)
(7.96092 -5.30367e-20 0.589783)
(8.14697 -1.57489e-20 0.651184)
(7.64002 3.23315e-20 0.660116)
(7.84974 -3.31777e-20 0.730224)
(7.28904 3.21071e-20 0.736251)
(7.52498 6.85493e-20 0.81626)
(6.90646 -6.85146e-20 0.817887)
(7.17124 -3.10481e-20 0.909256)
(6.49098 -8.19602e-20 0.904234)
(6.78717 3.66212e-20 1.00873)
(6.04178 1.24532e-19 0.993825)
(6.37162 -1.20382e-19 1.11356)
(5.55873 6.40136e-20 1.08429)
(5.92385 2.46553e-19 1.22171)
(5.04281 -1.76026e-19 1.17211)
(5.44374 -1.60832e-19 1.32998)
(4.49661 -8.88463e-20 1.2523)
(4.9322 7.46028e-20 1.43361)
(3.9249 9.48135e-20 1.31811)
(4.39159 1.1817e-20 1.52591)
(3.33555 3.03975e-19 1.36041)
(3.8263 -9.0761e-20 1.5977)
(2.74086 2.5263e-21 1.36647)
(3.24332 1.96929e-19 1.63637)
(2.15874 1.17624e-20 1.31552)
(2.65348 -3.65753e-19 1.62374)
(1.60648 3.22648e-22 1.16517)
(2.06683 2.09555e-19 1.53084)
(1.05233 -2.16768e-19 0.884362)
(1.49346 1.08758e-20 1.30895)
(0.531789 -2.7984e-19 0.400697)
(0.912857 -2.84924e-20 0.943305)
(0.485572 -2.35373e-19 0.306265)
(9.98606 3.75479e-21 0.0689581)
(9.99079 2.6096e-21 0.0513177)
(9.95269 -5.90188e-22 0.108817)
(9.97039 -2.66327e-21 0.0980277)
(9.89879 1.35416e-21 0.147404)
(9.93007 2.74437e-21 0.141388)
(9.82606 -2.93554e-21 0.1872)
(9.86776 2.18658e-24 0.185174)
(9.73506 -8.90633e-21 0.229009)
(9.78615 -8.69438e-21 0.230992)
(9.62567 -5.89232e-21 0.27328)
(9.68681 2.945e-21 0.279352)
(9.49768 6.47038e-21 0.320601)
(9.56965 0 0.330815)
(9.35073 -3.22333e-22 0.371625)
(9.43412 1.91199e-20 0.386079)
(9.18428 -6.46101e-21 0.427001)
(9.27973 -3.15262e-21 0.44585)
(8.99766 -3.57153e-21 0.48737)
(9.10593 -2.37138e-20 0.510818)
(8.79006 -3.48195e-21 0.553381)
(8.91209 1.04188e-20 0.58168)
(8.56056 0 0.625683)
(8.69743 2.92226e-20 0.659146)
(8.30812 3.98963e-21 0.704902)
(8.46109 3.69381e-22 0.743918)
(8.03161 3.88978e-21 0.791598)
(8.20212 4.33876e-21 0.836664)
(7.7298 4.31025e-21 0.886186)
(7.9195 -3.22189e-20 0.937956)
(7.40145 4.16059e-21 0.988841)
(7.61216 1.26507e-20 1.04819)
(7.04528 7.49595e-20 1.09934)
(7.27898 -8.81466e-21 1.16743)
(6.66008 -3.73915e-21 1.21687)
(6.91882 7.4071e-20 1.29528)
(6.2448 6.10723e-21 1.33975)
(6.53059 -6.66026e-20 1.43059)
(5.79876 1.69113e-20 1.46515)
(6.11329 -7.78982e-20 1.57113)
(5.32187 9.27578e-20 1.58868)
(5.66616 2.54483e-19 1.71328)
(4.815 1.74663e-19 1.70396)
(5.1889 1.60441e-19 1.85147)
(4.28041 -1.74895e-19 1.8021)
(4.68189 1.77114e-19 1.97771)
(3.72227 -1.94375e-19 1.871)
(4.14655 -1.96748e-19 2.08092)
(3.1468 -1.77617e-19 1.89412)
(3.5855 0 2.14613)
(2.56123 -1.60987e-19 1.84787)
(3.00275 -2.00126e-19 2.15348)
(1.96911 2.15757e-19 1.69764)
(2.40136 3.74707e-20 2.07633)
(1.36076 1.98849e-19 1.41728)
(1.78369 1.87674e-19 1.87805)
(0.730914 1.47264e-20 0.979008)
(1.12064 2.72553e-20 1.53986)
(0.577456 4.74945e-19 1.00038)
(9.98413 -3.87651e-21 0.0809707)
(9.9902 1.93062e-21 0.058935)
(9.95037 7.32937e-22 0.130796)
(9.96895 -6.62059e-22 0.11465)
(9.89736 1.35896e-21 0.179626)
(9.92872 1.36489e-21 0.168176)
(9.82597 -5.86847e-21 0.229698)
(9.86761 -5.63332e-24 0.222196)
(9.73679 3.30743e-21 0.282185)
(9.78789 -2.91887e-21 0.278454)
(9.62981 8.80033e-21 0.337792)
(9.69093 8.91444e-21 0.337774)
(9.50483 1.28935e-20 0.397222)
(9.57669 9.22741e-21 0.400851)
(9.36153 1.60005e-20 0.461231)
(9.44472 1.57859e-22 0.46847)
(9.19949 -2.06699e-20 0.530575)
(9.29456 -6.46404e-21 0.541443)
(9.01816 -9.28822e-21 0.606007)
(9.12578 -1.36792e-20 0.620574)
(8.8169 4.33634e-20 0.688286)
(8.93783 4.19776e-20 0.706671)
(8.595 2.9228e-20 0.778176)
(8.73011 5.23522e-22 0.80055)
(8.35166 7.72222e-22 0.876421)
(8.50191 3.0446e-20 0.903025)
(8.08605 -3.22255e-20 0.983701)
(8.25248 -3.81252e-20 1.01487)
(7.79728 -2.33141e-20 1.10056)
(7.98105 -1.04911e-19 1.13678)
(7.48441 -5.91268e-22 1.22729)
(7.68678 6.62827e-20 1.26925)
(7.14646 -8.65942e-21 1.36379)
(7.3688 -8.77056e-21 1.41249)
(6.78243 9.52892e-21 1.50932)
(7.02618 0 1.56621)
(6.39127 -1.50756e-19 1.66221)
(6.65788 5.72576e-23 1.72935)
(5.97198 1.63753e-19 1.81949)
(6.2628 -2.16669e-20 1.89976)
(5.52365 3.21303e-19 1.97643)
(5.83969 1.76555e-19 2.07378)
(5.04566 1.63211e-19 2.12598)
(5.38724 8.70813e-21 2.24565)
(4.53777 1.51147e-19 2.25818)
(4.90411 1.31536e-19 2.40696)
(4.00034 0 2.3595)
(4.389 0 2.54598)
(3.43409 -2.49217e-20 2.41212)
(3.84067 -3.73329e-19 2.64712)
(2.83936 1.33072e-21 2.39302)
(3.25793 3.3555e-19 2.69044)
(2.21384 1.17914e-20 2.27322)
(2.63846 3.97361e-22 2.65118)
(1.54834 1.46969e-20 2.02958)
(1.98141 4.16919e-19 2.49923)
(0.82962 4.93078e-19 1.63408)
(1.25043 -4.31157e-19 2.21991)
(0.616951 4.53197e-19 1.76304)
(9.9833 5.11798e-21 0.0933118)
(9.98996 1.52041e-24 0.0669526)
(9.94943 -1.55342e-24 0.152503)
(9.96848 -2.3778e-25 0.131324)
(9.8975 -1.69468e-23 0.211245)
(9.92872 5.43868e-21 0.194426)
(9.82784 2.90687e-21 0.271502)
(9.86908 -5.58268e-21 0.258324)
(9.74093 2.84057e-21 0.334581)
(9.79159 -5.73277e-21 0.324714)
(9.63681 9.34543e-21 0.401353)
(9.69746 -5.90301e-21 0.394641)
(9.51532 -3.62813e-21 0.472624)
(9.58665 1.22784e-20 0.468942)
(9.37616 -2.23951e-20 0.549233)
(9.45877 -6.30333e-21 0.548491)
(9.21897 4.36102e-22 0.632034)
(9.31342 -3.32331e-21 0.63419)
(9.04327 3.82968e-20 0.721883)
(9.15022 -3.2986e-21 0.726939)
(8.84853 -1.38931e-21 0.819643)
(8.9687 4.89703e-20 0.827642)
(8.63412 2.11643e-21 0.926176)
(8.76832 -3.55383e-20 0.937208)
(8.3994 -9.30789e-21 1.04233)
(8.54848 5.89532e-22 1.05654)
(8.14367 -1.11649e-19 1.16888)
(8.30852 -3.08298e-20 1.1865)
(7.86621 -1.31855e-20 1.30647)
(8.04778 -5.67963e-20 1.32788)
(7.56625 5.71698e-20 1.45553)
(7.76553 6.61093e-20 1.48128)
(7.24297 0 1.61607)
(7.46098 0 1.64703)
(6.89542 -9.46911e-21 1.78749)
(7.13323 -1.76265e-20 1.82499)
(6.52252 1.28903e-19 1.96829)
(6.78123 8.91118e-21 2.01431)
(6.12296 -6.46415e-21 2.15563)
(6.40365 1.55584e-19 2.2131)
(5.69517 -1.37938e-19 2.3449)
(5.9988 -1.59497e-19 2.41797)
(5.23723 -2.17537e-20 2.52904)
(5.5645 -1.84676e-19 2.62348)
(4.74682 -2.1232e-20 2.69802)
(5.09794 1.68318e-19 2.82154)
(4.22125 -3.77815e-19 2.83815)
(4.59564 0 3.00076)
(3.65725 -4.69462e-21 2.93173)
(4.05336 -3.73429e-19 3.14588)
(3.05076 3.30724e-19 2.95687)
(3.4663 3.83918e-19 3.23755)
(2.39603 4.10077e-19 2.88772)
(2.82842 -4.1842e-19 3.2524)
(1.68463 -3.92224e-20 2.70269)
(2.13836 8.23522e-19 3.16305)
(0.909078 -4.60132e-19 2.37053)
(1.3557 -4.45349e-19 2.95397)
(0.654264 6.78704e-21 2.56813)
(9.98307 -5.11705e-21 0.105731)
(9.98991 -5.18273e-21 0.0750762)
(9.94952 5.51681e-21 0.173874)
(9.96863 2.64525e-21 0.14785)
(9.89888 -2.6717e-22 0.242106)
(9.92974 -2.69025e-21 0.220023)
(9.83128 -1.42243e-20 0.312184)
(9.87184 5.53927e-21 0.293389)
(9.74706 -1.44786e-20 0.385462)
(9.79692 -1.43305e-20 0.36955)
(9.64629 -2.7387e-21 0.462956)
(9.70605 1.76813e-20 0.449689)
(9.52883 9.36239e-21 0.545584)
(9.59918 -2.72664e-20 0.534779)
(9.39445 1.28083e-20 0.634278)
(9.47599 -6.32506e-21 0.625781)
(9.24281 -7.05606e-21 0.729985)
(9.33612 4.5286e-20 0.723679)
(9.0735 8.03389e-21 0.833652)
(9.17923 -3.98471e-20 0.829463)
(8.88602 1.37536e-20 0.94623)
(9.00493 2.78323e-20 0.944124)
(8.67985 -3.66093e-20 1.06867)
(8.81271 7.37665e-21 1.06866)
(8.45437 -2.13276e-20 1.2019)
(8.60204 -2.94944e-20 1.20405)
(8.20898 2.37035e-20 1.34679)
(8.37232 7.69912e-21 1.35125)
(7.94298 2.4016e-20 1.50409)
(8.1229 -5.5284e-20 1.51115)
(7.65564 8.10736e-21 1.67433)
(7.85306 8.10075e-20 1.68447)
(7.34612 -1.78475e-20 1.85767)
(7.56199 1.67746e-20 1.87168)
(7.0134 1.08299e-21 2.05375)
(7.2487 -9.89755e-23 2.07285)
(6.65622 3.73979e-20 2.26132)
(6.91197 1.16266e-22 2.28743)
(6.2729 -1.1801e-21 2.47795)
(6.55015 -1.31249e-19 2.5139)
(5.86117 -2.06542e-19 2.69947)
(6.16105 1.34109e-19 2.74944)
(5.41801 9.59758e-21 2.91944)
(5.74166 -1.84488e-19 2.98932)
(4.93944 1.87576e-19 3.12843)
(5.28793 5.22922e-19 3.22633)
(4.42043 0 3.31347)
(4.7946 -3.62719e-19 3.45004)
(3.85487 2.39943e-20 3.45759)
(4.25511 0 3.64617)
(3.23578 -3.74424e-19 3.53981)
(3.66198 2.37199e-20 3.79619)
(2.55561 7.31449e-21 3.53522)
(3.00639 1.99312e-21 3.87731)
(1.80757 4.02518e-19 3.42102)
(2.28744 2.23482e-20 3.86175)
(0.989816 2.7172e-20 3.15968)
(1.46276 1.33058e-20 3.72896)
(0.701192 4.33213e-19 3.41069)
(9.98323 2.67876e-21 0.118025)
(9.98998 -6.42597e-21 0.0831254)
(9.95035 -5.63599e-21 0.194753)
(9.96922 3.96193e-21 0.164043)
(9.90126 3.22179e-21 0.272033)
(9.93153 -8.13715e-21 0.24484)
(9.83603 5.17801e-21 0.351518)
(9.87569 2.38142e-23 0.327232)
(9.75489 1.82388e-20 0.434584)
(9.80365 -5.75153e-21 0.41275)
(9.65794 -7.42299e-21 0.52236)
(9.71644 4.11306e-20 0.502663)
(9.54507 -4.26858e-20 0.615868)
(9.61401 -1.82495e-20 0.598057)
(9.41608 2.68092e-20 0.716127)
(9.49606 -1.25691e-20 0.699981)
(9.2707 1.14165e-20 0.824164)
(9.3623 1.94046e-20 0.809497)
(9.10854 -1.91985e-20 0.941011)
(9.21246 -1.76767e-22 0.927676)
(8.92919 2.11947e-20 1.0677)
(9.04617 8.94942e-23 1.05559)
(8.73215 1.40328e-20 1.20528)
(8.863 -2.11817e-20 1.19432)
(8.51686 0 1.35475)
(8.66245 8.75024e-20 1.34494)
(8.28273 -7.20783e-20 1.51709)
(8.44395 -1.12863e-19 1.5085)
(8.02906 3.37677e-21 1.69316)
(8.20687 -9.33516e-21 1.686)
(7.75507 8.88907e-20 1.88363)
(7.95045 1.21304e-19 1.8783)
(7.45982 3.43168e-20 2.08889)
(7.6738 5.10826e-20 2.08609)
(7.1421 -1.06117e-21 2.30882)
(7.37579 -1.19111e-19 2.30967)
(6.80037 -1.70167e-19 2.54261)
(7.05493 -1.6087e-19 2.54889)
(6.43247 7.19184e-21 2.78838)
(6.70923 -2.26804e-20 2.80278)
(6.03546 1.52365e-19 3.04275)
(6.33594 3.06282e-19 3.06928)
(5.60531 3.37361e-19 3.30023)
(5.93124 1.75784e-19 3.34468)
(5.13662 -3.79797e-20 3.55261)
(5.48997 3.33165e-19 3.62306)
(4.62248 -3.58478e-19 3.78816)
(5.00532 -6.25943e-21 3.89546)
(4.0545 0 3.99097)
(4.46871 -3.2273e-19 4.14906)
(3.42342 4.00027e-19 4.14063)
(3.87026 0 4.3663)
(2.7202 1.73782e-20 4.21162)
(3.19836 3.83817e-19 4.52437)
(1.93862 -3.6683e-19 4.17707)
(2.45168 -3.71222e-19 4.59316)
(1.08 4.24563e-19 3.99001)
(1.58701 4.01767e-19 4.54428)
(0.762877 7.4853e-21 4.2954)
(9.98364 -5.00119e-21 0.13004)
(9.99014 2.54961e-21 0.0909803)
(9.95175 1.29958e-21 0.214992)
(9.97013 1.16591e-24 0.17975)
(9.90447 -1.12336e-20 0.300881)
(9.93393 2.68854e-21 0.268743)
(9.8419 -1.09803e-20 0.389332)
(9.88043 -1.10713e-20 0.3597)
(9.76422 1.77405e-20 0.481739)
(9.81159 -5.71657e-21 0.454119)
(9.67151 2.95449e-20 0.579313)
(9.72842 2.34032e-20 0.553323)
(9.56374 1.19423e-20 0.683172)
(9.63087 -5.91889e-21 0.658492)
(9.44073 -1.95695e-20 0.794413)
(9.51869 6.22161e-21 0.770758)
(9.30226 7.56153e-21 0.914139)
(9.39165 -4.49553e-20 0.891255)
(9.14801 1.91175e-20 1.04346)
(9.24952 5.90322e-20 1.02113)
(8.97761 -4.25548e-20 1.1835)
(9.092 -2.72081e-20 1.16152)
(8.79061 5.36422e-20 1.33537)
(8.91872 -1.45473e-20 1.31361)
(8.58652 -2.78381e-20 1.5002)
(8.72923 9.46923e-20 1.47855)
(8.36472 -4.88587e-20 1.67906)
(8.523 -6.05626e-20 1.65752)
(8.12453 1.10204e-19 1.87295)
(8.29941 7.59674e-22 1.85163)
(7.86509 8.26665e-20 2.08275)
(8.05767 9.6448e-20 2.06194)
(7.58533 -1.04376e-19 2.30908)
(7.79681 1.91679e-21 2.28935)
(7.28385 -2.79474e-19 2.55222)
(7.51557 -1.77625e-20 2.53453)
(6.95875 -1.17607e-20 2.81185)
(7.21222 -1.4146e-19 2.79778)
(6.60743 2.80381e-19 3.08686)
(6.88441 -1.415e-19 3.07884)
(6.22626 3.282e-19 3.37486)
(6.52888 2.99864e-19 3.37659)
(5.81029 1.73465e-19 3.67171)
(6.14109 1.75601e-19 3.68862)
(5.35283 3.60958e-19 3.9708)
(5.71484 3.15953e-19 4.01066)
(4.84522 2.58051e-20 4.26211)
(5.24187 3.59099e-19 4.33572)
(4.27688 -3.18971e-19 4.53121)
(4.71157 -3.62401e-19 4.65296)
(3.636 -1.18271e-20 4.75818)
(4.11137 2.21042e-21 4.9463)
(2.91112 -1.18029e-20 4.91598)
(3.42599 -9.49742e-21 5.19285)
(2.09448 4.06163e-19 4.97171)
(2.65128 -7.64651e-19 5.35937)
(1.18808 -9.16083e-21 4.86561)
(1.74281 7.80264e-19 5.40719)
(0.845132 -4.1167e-19 5.23542)
(9.98422 7.54047e-21 0.141656)
(9.99035 2.57778e-21 0.0985555)
(9.95358 1.42928e-21 0.234459)
(9.97128 5.21245e-21 0.194844)
(9.90837 2.6735e-21 0.32851)
(9.93683 2.68867e-21 0.291604)
(9.84874 -5.73868e-21 0.425458)
(9.88593 5.53016e-21 0.39065)
(9.77484 3.19934e-22 0.526715)
(9.82059 5.63875e-21 0.493477)
(9.68679 -1.2435e-20 0.633561)
(9.7418 -5.72491e-21 0.60145)
(9.58458 -1.14872e-20 0.747192)
(9.64955 -1.79881e-20 0.715824)
(9.46809 -1.98095e-20 0.868779)
(9.54361 6.87045e-23 0.837804)
(9.33714 7.82385e-21 0.999495)
(9.42383 -6.55909e-21 0.968591)
(9.19148 1.16248e-20 1.14052)
(9.29003 2.08772e-22 1.1094)
(9.03081 9.53449e-22 1.29307)
(9.14199 -2.70948e-20 1.26144)
(8.85474 2.78579e-20 1.45833)
(8.97939 -2.77692e-20 1.42597)
(8.66281 6.00615e-20 1.63754)
(8.80186 6.6253e-21 1.60426)
(8.45446 -1.01714e-20 1.83189)
(8.60892 4.44972e-20 1.79757)
(8.22899 -1.18376e-20 2.04257)
(8.39997 -1.58638e-20 2.0072)
(7.98552 1.45898e-20 2.27067)
(8.17427 6.36588e-20 2.23437)
(7.72287 8.83644e-20 2.51713)
(7.93079 -4.86064e-20 2.4803)
(7.43949 1.18888e-19 2.78266)
(7.66819 2.68831e-19 2.74603)
(7.13319 -2.71225e-19 3.06762)
(7.38459 -1.34713e-19 3.03245)
(6.80098 -1.16878e-19 3.37175)
(7.0774 -2.51967e-19 3.34008)
(6.43867 1.45792e-19 3.69394)
(6.74297 2.50458e-21 3.66895)
(6.04046 3.19768e-19 4.03169)
(6.3762 -1.29762e-19 4.01819)
(5.59849 3.14582e-19 4.38041)
(5.97005 6.22456e-19 4.38557)
(5.10236 -3.78412e-20 4.73242)
(5.51488 -3.10819e-19 4.76663)
(4.53899 -3.69102e-20 5.07542)
(4.99795 -3.62432e-19 5.15336)
(3.89306 4.30659e-21 5.3906)
(4.40339 3.33506e-19 5.53218)
(3.14869 -7.70416e-19 5.64946)
(3.71061 -1.8803e-20 5.8812)
(2.29326 -3.71554e-19 5.81187)
(2.9087 -7.53513e-19 6.16452)
(1.32569 3.73594e-19 5.80109)
(1.94886 3.84277e-19 6.33128)
(0.957421 -3.7187e-19 6.25418)
(9.98493 3.03822e-22 0.15278)
(9.99061 3.76519e-21 0.105787)
(9.95575 6.44385e-21 0.253036)
(9.97262 3.90133e-21 0.209222)
(9.91284 5.58123e-21 0.354789)
(9.94013 2.66686e-21 0.313306)
(9.85641 1.69089e-20 0.459737)
(9.89207 1.09745e-20 0.419948)
(9.78661 -5.51209e-22 0.569321)
(9.83049 1.13244e-20 0.53066)
(9.70358 -1.14362e-20 0.684872)
(9.75641 -5.82354e-21 0.646844)
(9.60735 -6.20354e-21 0.807656)
(9.66982 0 0.769814)
(9.49785 1.32375e-20 0.938906)
(9.57055 -7.59181e-24 0.90084)
(9.37498 -1.40848e-20 1.07986)
(9.45852 1.9048e-20 1.04118)
(9.23855 -3.88543e-20 1.23177)
(9.33361 -5.8424e-20 1.1921)
(9.08833 -5.58335e-20 1.39591)
(9.19567 5.3191e-20 1.3549)
(8.92399 -4.85976e-20 1.57357)
(9.04448 -7.59122e-20 1.53089)
(8.74516 -8.49454e-21 1.76608)
(8.87974 -7.63162e-21 1.72144)
(8.55133 3.80605e-20 1.97479)
(8.70105 6.68141e-21 1.92793)
(8.34184 6.061e-20 2.20106)
(8.50788 4.54363e-20 2.15181)
(8.11584 -8.73738e-22 2.44623)
(8.29956 -4.60519e-20 2.39454)
(7.87212 1.357e-19 2.7116)
(8.07511 4.68559e-20 2.6576)
(7.60905 1.05129e-20 2.99841)
(7.8332 1.4991e-19 2.94252)
(7.32433 -1.16783e-19 3.30773)
(7.57195 -1.19474e-19 3.25076)
(7.01472 -1.29591e-19 3.64034)
(7.28869 1.12162e-22 3.58377)
(6.67568 -2.74762e-19 3.99656)
(6.97966 -1.45124e-19 3.94281)
(6.30082 1.81751e-19 4.37586)
(6.63949 -2.9272e-19 4.32879)
(5.88128 -1.40387e-20 4.77622)
(6.26061 4.54093e-19 4.74194)
(5.405 -6.36241e-19 5.19308)
(5.83239 -3.13268e-19 5.18099)
(4.85603 1.63925e-20 5.61754)
(5.34005 -1.27365e-20 5.64199)
(4.21425 3.06117e-19 6.03354)
(4.76393 1.47739e-20 6.11581)
(3.45632 -9.37678e-21 6.41288)
(4.07625 -3.24723e-19 6.58435)
(2.55916 1.69906e-20 6.70848)
(3.25365 3.44641e-19 7.01208)
(1.51076 -3.71031e-19 6.8213)
(2.23456 -4.58598e-21 7.33637)
(1.11735 -7.52695e-19 7.39218)
(9.98575 7.37541e-21 0.163336)
(9.9909 2.26938e-24 0.112625)
(9.9582 1.12974e-22 0.270621)
(9.97411 -1.8178e-20 0.222798)
(9.9178 8.16692e-21 0.379599)
(9.94377 7.96997e-21 0.333745)
(9.86479 5.39423e-21 0.492029)
(9.89876 2.85547e-24 0.447471)
(9.79937 5.8333e-21 0.609384)
(9.84118 0 0.565521)
(9.72169 5.68713e-21 0.73304)
(9.77207 5.73125e-21 0.689327)
(9.63181 6.1951e-21 0.864318)
(9.69147 0 0.820252)
(9.52974 6.04124e-21 1.00451)
(9.59925 6.11823e-21 0.959617)
(9.41544 -2.62587e-20 1.1549)
(9.49539 -2.49963e-20 1.10873)
(9.2888 3.5007e-20 1.3168)
(9.37986 -6.77508e-21 1.26891)
(9.14965 3.1524e-20 1.49156)
(9.25259 6.64458e-20 1.4415)
(8.99779 -3.41156e-20 1.68055)
(9.11345 -8.16787e-20 1.62789)
(8.83291 7.70017e-21 1.88519)
(8.96223 4.15372e-20 1.82953)
(8.65461 1.4497e-20 2.10698)
(8.79866 7.31342e-21 2.04792)
(8.46232 -6.23534e-20 2.34745)
(8.62233 -3.68258e-20 2.28464)
(8.25527 2.75501e-21 2.60822)
(8.43267 -1.64648e-20 2.54137)
(8.03235 6.23001e-20 2.89096)
(8.22886 -6.1661e-20 2.81991)
(7.79198 1.67807e-20 3.19745)
(8.00971 1.27232e-19 3.1222)
(7.53194 -1.12568e-21 3.52953)
(7.7735 -1.1482e-19 3.45035)
(7.24901 -1.71074e-20 3.8891)
(7.51777 1.16381e-19 3.8067)
(6.93863 -1.6482e-19 4.27805)
(7.23895 0 4.19382)
(6.59422 -1.1775e-20 4.69809)
(6.93188 -1.6295e-19 4.61456)
(6.20645 1.4592e-19 5.15033)
(6.5891 1.47659e-19 5.07186)
(5.76202 3.1395e-19 5.63438)
(6.19973 0 5.56842)
(5.24219 -1.39808e-20 6.14668)
(5.74781 3.44736e-20 6.1058)
(4.62108 -6.20304e-19 6.67718)
(5.21036 -3.33182e-19 6.68233)
(3.86426 3.83477e-20 7.20277)
(4.55155 2.85955e-19 7.289)
(2.92929 3.18637e-19 7.67416)
(3.72928 4.49555e-21 7.89905)
(1.77613 -3.96593e-19 7.96607)
(2.65229 -9.92741e-21 8.44681)
(1.36203 -3.71401e-19 8.71938)
(9.98666 -2.57805e-20 0.173263)
(9.99122 -2.14999e-20 0.119031)
(9.96088 -9.97899e-21 0.287127)
(9.97573 -6.49398e-21 0.235502)
(9.92316 -2.95854e-22 0.402833)
(9.94767 2.66299e-21 0.352828)
(9.87379 -5.39107e-21 0.522206)
(9.9059 -5.46731e-21 0.473112)
(9.81298 -2.84674e-23 0.646751)
(9.85253 0 0.597931)
(9.74092 -2.7755e-23 0.777882)
(9.78864 -1.14977e-20 0.728745)
(9.65773 0 0.916962)
(9.7143 2.34398e-20 0.866954)
(9.56346 -2.53103e-20 1.06533)
(9.62945 -1.20054e-20 1.01392)
(9.45816 -5.29067e-21 1.22431)
(9.53413 -3.11582e-20 1.17099)
(9.34178 2.55681e-20 1.39527)
(9.42839 6.22171e-23 1.33951)
(9.21428 -4.85846e-20 1.57961)
(9.31226 3.25304e-20 1.52089)
(9.07553 -4.53443e-21 1.77876)
(9.18571 -5.43984e-20 1.71656)
(8.92536 4.07387e-20 1.99426)
(9.04866 7.14581e-21 1.92804)
(8.76349 -4.4554e-20 2.2277)
(8.90097 4.91945e-20 2.15691)
(8.58951 9.26556e-21 2.48081)
(8.74239 1.39259e-20 2.40491)
(8.40281 -8.14638e-20 2.75543)
(8.57255 9.03559e-22 2.67389)
(8.20247 5.39792e-21 3.05362)
(8.39084 -1.24748e-19 2.96591)
(7.98716 -7.21477e-21 3.37766)
(8.19636 1.27262e-19 3.28332)
(7.75494 5.26577e-21 3.73013)
(7.98777 -1.47568e-19 3.62879)
(7.50297 1.32159e-19 4.11405)
(7.76307 3.01938e-21 4.00551)
(7.22709 0 4.53291)
(7.51931 1.33136e-19 4.41728)
(6.92123 0 4.99079)
(7.25214 -1.4395e-19 4.8688)
(6.57644 0 5.49233)
(6.95512 1.45669e-19 5.36583)
(6.17934 -2.79183e-19 6.04237)
(6.6185 -1.39626e-19 5.91543)
(5.70976 -2.89526e-19 6.64506)
(6.22718 -2.76037e-19 6.52599)
(5.1368 5.81253e-19 7.30148)
(5.75763 1.77133e-21 7.20671)
(4.4129 2.47788e-19 8.00349)
(5.16907 3.21374e-19 7.96572)
(3.46505 -3.2396e-19 8.71637)
(4.39939 -2.69418e-20 8.80255)
(2.18993 1.14809e-20 9.30087)
(3.30416 9.58692e-21 9.6813)
(1.77879 1.05776e-20 10.3664)
(9.98762 -2.01419e-21 0.182512)
(9.99156 1.00218e-20 0.124973)
(9.96373 6.27034e-21 0.30248)
(9.97743 7.77229e-21 0.247275)
(9.92885 -2.60677e-21 0.424401)
(9.95179 2.63615e-21 0.370482)
(9.88329 -6.28974e-24 0.550161)
(9.91342 -5.41343e-21 0.49678)
(9.8273 -1.16146e-20 0.681296)
(9.86443 0 0.627781)
(9.7611 1.24121e-20 0.819249)
(9.80595 -1.71577e-20 0.764967)
(9.68486 1.09909e-20 0.965415)
(9.7381 1.76387e-20 0.909766)
(9.59871 -1.80928e-20 1.12117)
(9.66089 -1.20063e-20 1.06357)
(9.50275 -2.54238e-20 1.28787)
(9.5744 2.45762e-20 1.22774)
(9.39705 7.41616e-21 1.46691)
(9.47879 -3.79456e-20 1.40367)
(9.28165 2.56512e-20 1.65974)
(9.37418 2.59167e-20 1.59279)
(9.15656 -4.19901e-20 1.86784)
(9.26066 0 1.79656)
(9.02174 1.60734e-20 2.09282)
(9.1383 -4.15557e-20 2.01654)
(8.87707 1.07262e-19 2.33636)
(9.0071 5.64038e-20 2.2544)
(8.72235 5.41334e-21 2.60035)
(8.86703 5.09319e-20 2.51196)
(8.5572 -4.38893e-20 2.88683)
(8.71795 6.99048e-21 2.79122)
(8.38103 0 3.19816)
(8.55957 -5.2391e-20 3.09445)
(8.19291 -1.6318e-20 3.53705)
(8.3914 6.13e-20 3.42429)
(7.9914 -1.4819e-19 3.90674)
(8.21263 -8.63152e-20 3.78387)
(7.7744 5.25571e-21 4.31119)
(8.022 -3.52525e-21 4.17703)
(7.53873 -1.39975e-20 4.75536)
(7.81762 1.40809e-19 4.60857)
(7.27962 5.02596e-21 5.24553)
(7.5966 3.79484e-21 5.08471)
(6.98982 3.20816e-21 5.78984)
(7.35457 2.77116e-19 5.61363)
(6.658 -1.38053e-19 6.39881)
(7.08479 -1.4146e-19 6.20638)
(6.26585 1.82571e-20 7.08614)
(6.77638 -1.30057e-19 6.87824)
(5.78244 -2.53893e-19 7.86948)
(6.41146 1.40419e-20 7.65103)
(5.15257 4.11736e-20 8.77093)
(5.95619 -2.6e-19 8.55735)
(4.26986 3.0745e-19 9.81235)
(5.34955 4.21012e-19 9.6487)
(2.91242 9.03695e-21 10.9407)
(4.40784 -1.11983e-19 11.0052)
(2.59554 -2.04442e-19 12.6048)
(9.98863 1.97794e-20 0.191042)
(9.99191 1.23294e-20 0.130429)
(9.96673 4.07522e-21 0.316619)
(9.97921 -1.30895e-21 0.258072)
(9.93481 -2.68052e-22 0.444219)
(9.95608 1.52484e-20 0.386642)
(9.8932 -5.33754e-21 0.575786)
(9.92123 -1.05653e-20 0.518399)
(9.8422 -5.75967e-21 0.712879)
(9.87677 5.18259e-21 0.654981)
(9.78206 -1.14918e-20 0.856965)
(9.82389 4.88091e-21 0.797888)
(9.713 -5.73005e-21 1.00946)
(9.76274 -3.90132e-22 0.948564)
(9.63521 3.11197e-20 1.17176)
(9.69339 -5.60283e-21 1.10842)
(9.54888 1.12872e-20 1.34525)
(9.61602 5.4359e-20 1.27883)
(9.45416 -1.86642e-20 1.53134)
(9.53086 -4.2782e-20 1.4612)
(9.35123 -5.26747e-23 1.7315)
(9.43815 -6.12941e-21 1.65696)
(9.2402 -6.87055e-23 1.94725)
(9.33809 0 1.86761)
(9.12122 -6.70547e-23 2.18023)
(9.23091 -6.45893e-21 2.09472)
(8.99436 0 2.43221)
(9.11681 0 2.33999)
(8.85964 5.20317e-20 2.70514)
(8.99596 -5.99869e-20 2.60529)
(8.71701 -2.14626e-21 3.00124)
(8.86853 1.13664e-19 2.8927)
(8.56626 1.02508e-20 3.32304)
(8.7346 -1.09187e-19 3.20463)
(8.40701 -1.033e-20 3.67358)
(8.59418 1.82986e-19 3.54386)
(8.23857 5.93268e-20 4.05656)
(8.44715 -1.22011e-19 3.91381)
(8.05986 1.33783e-19 4.4766)
(8.2932 1.247e-20 4.31869)
(7.86918 1.57397e-19 4.93969)
(8.1318 1.19437e-19 4.76387)
(7.66391 2.79037e-19 5.45377)
(7.96209 1.42926e-19 5.25645)
(7.44002 1.28821e-19 6.02967)
(7.78276 6.59305e-21 5.80603)
(7.19097 -1.3234e-19 6.6826)
(7.59184 1.19643e-19 6.42606)
(6.90579 -1.32626e-19 7.43496)
(7.3864 -1.36353e-19 7.13623)
(6.56456 4.4979e-21 8.32185)
(7.16258 -2.59333e-22 7.96718)
(6.1273 1.28661e-19 9.40486)
(6.91473 1.78989e-21 8.97149)
(5.49909 -4.63349e-21 10.8188)
(6.65185 1.21112e-19 10.2557)
(4.37405 -3.26002e-19 13.0677)
(6.50492 -1.23152e-19 12.1151)
(5.63453 -1.87402e-19 16.0716)
(0.244747 3.50489e-22 -0.156379)
(0.124323 -1.08637e-20 -0.2357)
(0.483806 0 -0.135957)
(0.346587 5.329e-21 -0.224413)
(0.686929 0 -0.107034)
(0.555623 -3.10478e-22 -0.185426)
(0.850962 1.08072e-21 -0.0798859)
(0.73888 2.31276e-21 -0.145921)
(0.978478 -3.77336e-23 -0.0563595)
(0.888187 -1.15798e-21 -0.110686)
(1.07247 -1.5535e-21 -0.036298)
(1.00464 -8.10244e-22 -0.0796827)
(1.13568 -2.61862e-23 -0.0193766)
(1.09188 1.18431e-21 -0.0523623)
(1.17095 4.73768e-22 -0.00551751)
(1.15312 -1.3928e-21 -0.0285586)
(1.18183 5.05774e-23 0.00506748)
(1.19103 -9.56492e-22 -0.00860498)
(1.17318 5.17164e-23 0.012204)
(1.20843 8.25875e-22 0.0067287)
(1.15083 0 0.0161055)
(1.20809 0 0.0169783)
(1.12048 0 0.0173868)
(1.19522 0 0.022552)
(1.08696 0 0.0168349)
(1.17563 0 0.0243725)
(1.05393 0 0.0151081)
(1.15371 0 0.023505)
(1.02395 0 0.0126763)
(1.13254 0 0.0208716)
(0.998688 0 0.0098973)
(1.11422 0 0.0172082)
(0.979031 3.15933e-23 0.00707072)
(1.09995 -2.68037e-22 0.0131038)
(0.965178 3.23031e-23 0.00444077)
(1.0901 2.61695e-22 0.00903742)
(0.956764 0 0.00213742)
(1.08433 0 0.00537365)
(0.953214 2.29948e-23 0.00011729)
(1.08185 0 0.0022245)
(0.954263 1.32199e-24 -0.00174267)
(1.08184 2.32533e-23 -0.000629649)
(0.959948 -3.24544e-23 -0.00347242)
(1.08387 -2.27433e-23 -0.00338209)
(0.970288 -1.78467e-23 -0.00497168)
(1.08814 -1.923e-23 -0.00602452)
(0.984978 -1.46829e-23 -0.00610223)
(1.09494 1.65254e-23 -0.0083776)
(1.0032 -5.67797e-24 -0.00686293)
(1.10419 -1.91728e-23 -0.0101693)
(1.02411 5.78682e-25 -0.00753083)
(1.11538 1.88659e-23 -0.0114142)
(1.04768 -6.2092e-24 -0.00855858)
(1.12791 0 -0.0125891)
(1.07512 -6.34717e-24 -0.0100855)
(1.14194 9.60767e-24 -0.0143422)
(1.10733 0 -0.0111979)
(1.15885 -5.08119e-24 -0.0164757)
(1.1854 0 -0.0161342)
(0.213636 -5.677e-21 -0.348751)
(0.0820693 -6.32759e-21 -0.447308)
(0.432408 5.09975e-21 -0.313121)
(0.29343 5.17204e-21 -0.429738)
(0.623881 1.96749e-21 -0.255218)
(0.475149 5.08089e-23 -0.359899)
(0.784483 -2.65946e-22 -0.199677)
(0.636756 2.02627e-21 -0.288495)
(0.916933 -2.02621e-21 -0.150827)
(0.772733 -2.25257e-21 -0.225432)
(1.02412 1.90404e-21 -0.108216)
(0.884528 -3.03586e-23 -0.170387)
(1.10836 -1.51845e-22 -0.0710536)
(0.974947 -2.0265e-22 -0.122046)
(1.17168 -2.82789e-21 -0.0390391)
(1.04623 1.77639e-21 -0.0797686)
(1.21561 -2.33984e-22 -0.0123411)
(1.10016 -8.95079e-22 -0.0433594)