/*--------------------------------*- C++ -*----------------------------------*\
| =========                 |                                                 |
| \\      /  F ield         | OpenFOAM: The Open Source CFD Toolbox           |
|  \\    /   O peration     | Version:  dev                                   |
|   \\  /    A nd           | Web:      www.OpenFOAM.org                      |
|    \\/     M anipulation  |                                                 |
\*---------------------------------------------------------------------------*/
FoamFile
{
    version     2.0;
    format      ascii;
    class       volScalarField;
    location    "1.57";
    object      p;
}
// * * * * * * * * * * * * * * * * * * * * * * * * * * * * * * * * * * * * * //

dimensions      [0 2 -2 0 0 0 0];

internalField   nonuniform List<scalar> 
2790
(
82.8744
82.7141
82.8366
83.1789
83.6515
84.2271
84.905
85.6862
86.57
87.5555
88.6428
89.8334
91.1296
92.5335
94.0471
95.6719
97.4081
99.254
101.205
103.254
105.388
107.587
109.826
112.068
114.266
116.362
118.286
119.952
121.263
122.087
82.7231
82.6577
82.8004
83.1409
83.6115
84.1858
84.8613
85.6389
86.5182
87.4981
88.5787
89.7615
91.0486
92.442
93.9436
95.5547
97.2757
99.1047
101.038
103.067
105.181
107.362
109.584
111.814
114.007
116.106
118.045
119.741
121.107
122.087
82.5843
82.5924
82.7531
83.0858
83.5481
84.1152
84.782
85.5489
86.4153
87.38
88.4427
89.6046
90.8671
92.2316
93.6993
95.2709
96.9458
98.7213
100.593
102.552
104.586
106.678
108.802
110.926
113.006
114.988
116.802
118.362
119.538
119.991
82.4453
82.492
82.6666
82.9931
83.4462
84.0042
84.6601
85.4132
86.2627
87.2073
88.2462
89.3797
90.6088
91.9337
93.3548
94.8713
96.4813
98.1806
99.9627
101.817
103.73
105.681
107.643
109.58
111.442
113.165
114.657
115.77
116.316
115.063
82.2969
82.3644
82.5512
82.8744
83.318
83.8646
84.5063
85.2416
86.0695
86.9883
87.9965
89.094
90.2805
91.5556
92.918
94.3654
95.8942
97.4983
99.1684
100.892
102.65
104.42
106.168
107.851
109.405
110.743
111.727
112.095
111.736
107.901
82.1351
82.214
82.4091
82.7284
83.1609
83.693
84.317
85.0307
85.8326
86.7205
87.6923
88.7471
89.8836
91.1001
92.3938
93.7609
95.1953
96.6886
98.2289
99.7995
101.378
102.935
104.428
105.802
106.976
107.826
108.166
107.572
106.271
99.5337
81.9575
82.0426
82.2419
82.5561
82.9761
83.4913
84.0948
84.7836
85.5556
86.4079
87.3382
88.3443
89.4238
90.5736
91.7898
93.0663
94.3949
95.7646
97.1601
98.5606
99.9388
101.257
102.465
103.49
104.229
104.524
104.148
102.467
100.329
90.8298
81.7631
81.8514
82.0514
82.3587
82.7647
83.261
83.8411
84.5018
85.2401
86.0527
86.9364
87.8882
88.9045
89.9808
91.1115
92.2888
93.5022
94.7376
95.9762
97.1929
98.3545
99.4158
100.315
100.965
101.239
100.942
99.8328
97.0168
94.194
82.3492
81.5517
81.6411
81.839
82.1376
82.528
83.0032
83.5576
84.1872
84.8884
85.6574
86.4902
87.3829
88.3305
89.3274
90.3662
91.4371
92.5272
93.6196
94.6919
95.7145
96.6481
97.4399
98.0169
98.2765
98.0724
97.1752
95.3508
91.4159
88.0396
74.3671
81.3233
81.4125
81.6061
81.8941
82.2674
82.7198
83.246
83.8418
84.5029
85.2249
86.0031
86.8325
87.7069
88.6195
89.561
90.5197
91.4804
92.4233
93.3226
94.1441
94.8427
95.3582
95.6072
95.4728
94.7917
93.3021
90.8013
85.8079
81.9378
66.9424
81.0785
81.1664
81.354
81.6298
81.9844
82.4122
82.9083
83.4678
84.0863
84.7584
85.4788
86.2413
87.0389
87.863
88.7029
89.5452
90.3723
91.1615
91.8836
92.5005
92.9614
93.199
93.1208
92.598
91.4525
89.3917
86.2556
80.2863
75.8758
59.9542
80.8179
80.9038
81.0841
81.346
81.6805
82.0823
82.5463
83.0677
83.6411
84.2609
84.9208
85.6137
86.3315
87.0643
87.7998
88.5228
89.2136
89.847
90.3905
90.8023
91.0268
90.9901
90.5922
89.6939
88.1042
85.502
81.7615
74.9085
69.7758
53.1243
80.5424
80.6258
80.7975
81.0443
81.3574
81.7318
82.1623
82.6437
83.1702
83.7357
84.3331
84.9543
85.5903
86.2298
86.8592
87.4615
88.0153
88.4928
88.859
89.0685
89.0616
88.7592
88.0548
86.8001
84.7927
81.6854
77.3525
69.7108
63.5235
46.0072
80.253
80.3334
80.4955
80.7261
81.0168
81.3625
81.7582
82.1982
82.6765
83.1862
83.7196
84.2677
84.8206
85.3659
85.8885
86.3703
86.7878
87.1114
87.3039
87.3171
87.0877
86.5329
85.5411
83.9561
81.5657
77.9979
73.0847
64.7653
57.0806
37.9441
79.9507
80.0277
80.1796
80.3931
80.6603
80.9765
81.3364
81.734
82.1629
82.6159
83.0844
83.5587
84.0281
84.4793
84.8959
85.2584
85.5422
85.7162
85.7411
85.567
85.1281
84.339
83.0847
81.2038
78.4766
74.5169
69.0905
60.2847
50.8237
28.0256
5.45178
5.46363
5.46077
5.44313
5.39782
5.30739
5.17629
5.02058
4.85202
4.67608
4.49668
4.31781
4.14281
3.9752
3.81907
3.67697
3.54979
3.43857
3.3391
3.24428
3.15091
3.05476
2.94845
2.82359
2.66924
2.46775
2.19461
1.81922
1.30066
0.590519
5.43029
5.43689
5.42976
5.41167
5.36447
5.27219
5.14108
4.98698
4.82111
4.64838
4.47231
4.29667
4.12459
3.95948
3.80567
3.66536
3.53978
3.43183
3.33428
3.23856
3.14745
3.05817
2.95868
2.83946
2.69202
2.49934
2.23491
1.86631
1.3478
0.614397
5.39759
5.39951
5.38455
5.36298
5.31153
5.21757
5.08938
4.94136
4.78282
4.61791
4.44959
4.28099
4.11503
3.95515
3.80697
3.67113
3.54604
3.44526
3.36298
3.27333
3.17339
3.07296
2.96975
2.84936
2.69944
2.50334
2.23653
1.86697
1.34915
0.604477
5.35362
5.3521
5.32636
5.29912
5.24325
5.15057
5.03027
4.89398
4.74821
4.59628
4.44052
4.28371
4.12871
3.977
3.83646
3.71582
3.60071
3.48599
3.38823
3.29659
3.19665
3.09095
2.97778
2.84833
2.68616
2.47564
2.1988
1.82068
1.2958
0.542208
5.29719
5.29499
5.25726
5.22493
5.16821
5.08274
4.97679
4.85846
4.73117
4.59689
4.45773
4.31666
4.17826
4.04357
3.91218
3.78383
3.66153
3.54718
3.4404
3.33419
3.22017
3.0981
2.96583
2.81671
2.63575
2.40867
2.11852
1.7301
1.19448
0.449746
5.22742
5.22899
5.18081
5.14734
5.0965
5.02536
4.93929
4.84344
4.73944
4.62716
4.50823
4.38535
4.26144
4.13683
4.00879
3.87959
3.75238
3.62676
3.50141
3.3717
3.23328
3.08537
2.92601
2.74812
2.54162
2.29622
1.99278
1.59678
1.06041
0.36405
5.14427
5.15558
5.10223
5.0744
5.03719
4.98683
4.92418
4.85233
4.7726
4.68428
4.58769
4.48433
4.37343
4.25419
4.12831
3.99617
3.85819
3.71422
3.56337
3.40344
3.23282
3.05128
2.85729
2.64525
2.40964
2.14287
1.82576
1.42488
0.904336
0.293894
5.04875
5.07669
5.02689
5.0131
4.9947
4.96709
4.92925
4.88286
4.8285
4.76486
4.69102
4.60466
4.50527
4.39337
4.26783
4.12809
3.97409
3.80599
3.62396
3.4281
3.2191
2.99787
2.76393
2.51474
2.24868
1.96028
1.63228
1.23481
0.748531
0.23286
4.9419
4.99466
4.95698
4.96332
4.96656
4.96208
4.94919
4.92915
4.90193
4.8645
4.81256
4.74443
4.65812
4.55176
4.42356
4.27235
4.09792
3.901
3.68312
3.44658
3.19432
2.92899
2.65195
2.36412
2.0673
1.75874
1.42432
1.04002
0.601194
0.178707
4.82346
4.90784
4.88973
4.91975
4.94598
4.96539
4.97929
4.98852
4.99055
4.98107
4.95396
4.90436
4.82963
4.72705
4.5939
4.42829
4.22998
4.0005
3.743
3.46197
3.16266
2.85004
2.52804
2.20075
1.87332
1.54651
1.21039
0.847662
0.463931
0.130053
4.6932
4.8078
4.81835
4.87593
4.92891
4.97473
5.01778
5.06011
5.09662
5.1179
5.11543
5.08358
5.01922
4.91908
4.77935
4.59729
4.37258
4.10768
3.80751
3.4788
3.12931
2.76675
2.39818
2.0306
1.67244
1.32886
0.994954
0.659977
0.335355
0.0854411
4.5542
4.67987
4.73813
4.83178
4.91439
4.98972
5.06601
5.14605
5.2213
5.27624
5.29857
5.28314
5.22797
5.12947
4.98233
4.78252
4.52959
4.22706
3.88166
3.50243
3.09975
2.68442
2.26702
1.85754
1.4678
1.10785
0.778738
0.475724
0.212447
0.0431914
4.39289
4.51684
4.64944
4.79052
4.90376
5.00724
5.1208
5.24758
5.37019
5.46202
5.50727
5.50522
5.45783
5.36105
5.20665
4.98852
4.70609
4.36412
3.97124
3.53869
3.0795
2.60766
2.13754
1.68335
1.26003
0.882338
0.559088
0.290928
0.0909169
0.00132665
4.09401
4.30702
4.56488
4.75792
4.89353
5.02395
5.18362
5.3722
5.55493
5.68515
5.74635
5.7517
5.71086
5.61729
5.45692
5.22043
4.90755
4.52472
4.08233
3.59362
3.07404
2.54071
2.01215
1.50826
1.04704
0.648389
0.330257
0.0990154
-0.0349101
-0.0425624
3.14166
4.10954
4.53338
4.76176
4.8865
5.0365
5.25565
5.53145
5.79464
5.95898
6.01842
6.02118
5.98742
5.90121
5.73722
5.48235
5.1382
4.71365
4.22048
3.67317
3.08912
2.48827
1.89357
1.33133
0.825394
0.400946
0.0840605
-0.10923
-0.172163
-0.0910375
79.6306
79.704
79.8448
80.04
80.2826
80.568
80.8906
81.2442
81.6221
82.0167
82.4186
82.8177
83.2024
83.5585
83.8685
84.1121
84.2636
84.2905
84.1526
83.7987
83.1621
82.156
80.6644
78.5257
75.5203
71.2742
65.5042
56.5856
45.8189
15.1785
79.2891
79.3585
79.4874
79.6631
79.8796
80.1326
80.4163
80.7241
81.0492
81.3834
81.7169
82.0392
82.3379
82.5977
82.8009
82.9264
82.9475
82.831
82.5366
82.0131
81.1941
79.9939
78.2994
75.9567
72.7631
68.3946
62.6089
54.307
45.1238
39.3255
78.9287
78.9938
79.1102
79.2654
79.4546
79.6741
79.9176
80.1783
80.4493
80.722
80.9863
81.2311
81.4435
81.6075
81.7054
81.7154
81.6102
81.3567
80.9155
80.2363
79.255
77.8898
76.036
73.5578
70.2869
65.9897
60.5782
53.7274
46.8496
44.6457
78.5499
78.6105
78.7137
78.8478
79.0089
79.1937
79.3961
79.6088
79.8248
80.0355
80.2302
80.3977
80.5243
80.5942
80.5894
80.488
80.2624
79.8806
79.3048
78.487
77.3667
75.8698
73.9053
71.3625
68.1187
64.0388
59.1391
53.3744
46.9542
41.5375
78.1536
78.2093
78.299
78.4113
78.5436
78.6931
78.8536
79.0177
79.1784
79.3268
79.4524
79.5432
79.5857
79.5641
79.4604
79.2529
78.9147
78.4152
77.7192
76.7822
75.5489
73.9555
71.9281
69.3833
66.2421
62.4376
57.9976
52.9211
47.1666
41.8152
77.7408
77.7914
77.8671
77.9572
78.0601
78.174
78.2923
78.4074
78.5127
78.5994
78.6566
78.6724
78.6332
78.5235
78.3258
78.019
77.5772
76.9721
76.1719
75.136
73.8163
72.1605
70.1123
67.6143
64.6203
61.103
57.0902
52.6289
47.7706
43.1605
77.3128
77.358
77.4194
77.4868
77.5602
77.6383
77.7142
77.7805
77.8309
77.8567
77.8471
77.7902
77.6724
77.479
77.1933
76.7948
76.2593
75.5618
74.6738
73.5596
72.1792
70.4915
68.457
66.0398
63.2158
59.9812
56.3687
52.4392
48.2545
44.1463
76.8709
76.9106
76.9572
77.0018
77.0458
77.0881
77.1219
77.1401
77.1364
77.1027
77.0283
76.9014
76.7089
76.4371
76.0701
75.5883
74.9701
74.1937
73.2342
72.0616
70.6435
68.9495
66.9551
64.6396
61.9925
59.0238
55.7659
52.2709
48.5908
44.931
76.417
76.4507
76.4823
76.5042
76.5191
76.5258
76.518
76.489
76.4327
76.3414
76.2048
76.0112
75.7486
75.4043
74.9631
74.4071
73.7175
72.8754
71.8601
70.6472
69.2111
67.5317
65.5957
63.3921
60.9195
58.194
55.2459
52.1186
48.8603
45.6158
75.9529
75.9802
75.9965
75.996
75.9822
75.9539
75.9054
75.8305
75.7235
75.5769
75.3811
75.1248
74.7969
74.3862
73.8785
73.2578
72.5077
71.6127
70.5562
69.3188
67.8815
66.2327
64.3662
62.2777
59.9718
57.4668
54.7901
51.979
49.0753
46.1851
75.4806
75.501
75.502
75.4796
75.4378
75.3752
75.2872
75.1682
75.0124
74.8134
74.5619
74.2471
73.8593
73.3884
72.822
72.1459
71.346
70.4101
69.3255
68.0769
66.6519
65.0449
63.2538
61.2793
59.1298
56.8228
54.3833
51.8426
49.2356
46.6432
75.0024
75.0154
75.001
74.9575
74.8885
74.7926
74.6665
74.5053
74.3034
74.055
73.7515
73.3829
72.9409
72.4162
71.7988
71.0763
70.2365
69.2705
68.1689
66.9205
65.5181
63.9599
62.2465
60.3822
58.3768
56.2467
54.014
51.7049
49.3481
47.007
74.5207
74.5259
74.496
74.4322
74.337
74.2091
74.0467
73.8455
73.6002
73.3058
72.9542
72.5368
72.0461
71.4743
70.8133
70.0526
69.1819
68.1954
67.0864
65.8474
64.4749
62.9693
61.3335
59.5735
57.6996
55.7269
53.6745
51.5646
49.4202
47.2919
74.0377
74.035
73.9902
73.9067
73.7862
73.628
73.4312
73.1923
72.9066
72.5697
72.1742
71.7127
71.1792
70.5667
69.869
69.0776
68.1844
67.1857
66.0773
64.8546
63.5165
62.0651
60.5047
58.8422
57.0877
55.2546
53.3597
51.4212
49.4581
47.5108
73.5559
73.5457
73.4865
73.3838
73.2393
73.0524
72.8234
72.5493
72.2262
71.8504
71.4153
70.9146
70.3437
69.6971
68.9691
68.1535
67.2452
66.2414
65.1396
63.938
62.6371
61.2399
59.7515
58.1791
56.5323
54.823
53.0656
51.2753
49.4675
47.6749
73.0783
73.0607
72.9878
72.8667
72.6992
72.4855
72.2266
71.9202
71.5628
71.1517
70.6812
70.1459
69.543
68.8679
68.1156
67.2823
66.3649
65.3616
64.2712
63.0938
61.831
60.4868
59.0663
57.5766
56.0265
54.4269
52.7897
51.1277
49.4535
47.7936
72.608
72.583
72.4972
72.3587
72.1695
71.9309
71.6443
71.3083
70.92
70.4771
69.9753
69.4103
68.78
68.0814
67.3106
66.4652
65.5437
64.5451
63.4694
62.3179
61.0935
59.8
58.4427
57.0283
55.565
54.0623
52.5303
50.9797
49.4207
47.875
72.1482
72.1162
72.0178
71.8628
71.6537
71.3921
71.0802
70.7172
70.3012
69.83
69.3007
68.7104
68.0577
67.3402
66.5558
65.7029
64.7811
63.7903
62.7316
61.607
60.4198
59.1742
57.8752
56.5291
55.1435
53.7263
52.2864
50.8325
49.3731
47.926
71.7018
71.6636
71.5536
71.3823
71.1547
70.8725
70.5378
70.1504
69.7095
69.2136
68.6608
68.0494
67.3783
66.6463
65.8522
64.9955
64.0763
63.0957
62.0552
60.9575
59.8061
58.6052
57.3596
56.0751
54.7585
53.4168
52.0573
50.6874
49.3143
47.9526
71.2722
71.2286
71.1082
70.9214
70.6763
70.3756
70.0203
69.6112
69.1485
68.6314
68.0587
67.4298
66.7441
66.0011
65.2005
64.3427
63.4286
62.4596
61.4379
60.3664
59.2489
58.0893
56.8922
55.6629
54.4076
53.1321
51.8429
50.5461
49.2477
47.9599
70.8636
70.8149
70.6847
70.4837
70.2224
69.9047
69.5312
69.1033
68.6218
68.0865
67.4973
66.854
66.1566
65.4056
64.6012
63.7446
62.8371
61.8806
60.8776
59.8312
58.7451
57.6233
56.47
55.29
54.0887
52.8713
51.6433
50.41
49.1763
47.9524
70.4805
70.4261
70.2863
70.0725
69.7969
69.4638
69.0744
68.6302
68.1325
67.5819
66.9788
66.3238
65.6176
64.8609
64.055
63.2011
62.3012
61.3575
60.3726
59.3498
58.2927
57.2051
56.0909
54.9545
53.8006
52.634
51.4592
50.2808
49.103
47.9343
70.1268
70.0662
69.9168
69.6918
69.4035
69.0568
68.6535
68.1951
67.6836
67.1201
66.5057
65.8414
65.1285
64.3683
63.5623
62.7123
61.8205
60.8894
59.9216
58.9206
57.8897
56.8327
55.7531
54.655
53.5425
52.4198
51.291
50.1598
49.0302
47.9088
69.8064
69.7394
69.5808
69.3454
69.0458
68.6873
68.2718
67.8014
67.2783
66.7042
66.0807
65.4093
64.6916
63.9293
63.1244
62.279
61.3953
60.4762
59.5243
58.5429
57.5355
56.5055
55.4562
54.3913
53.3146
52.2297
51.1402
50.0496
48.961
47.8802
69.5235
69.4502
69.2824
69.0372
68.7277
68.3589
67.9331
67.4524
66.9196
66.3368
65.706
65.0291
64.308
63.5448
62.7416
61.9009
61.0251
60.117
59.1794
58.2155
57.2286
56.2219
55.1987
54.1622
53.116
52.0632
51.007
49.9504
48.8964
47.8495
69.283
69.2032
69.0258
68.7712
68.453
68.0757
67.6413
67.1523
66.6118
66.0222
65.3858
64.7049
63.9816
63.2182
62.4173
61.5812
60.7126
59.8143
58.8892
57.9403
56.971
55.9841
54.9829
53.9703
52.9495
51.9234
50.895
49.8668
48.8416
47.8232
69.0906
69.003
68.8147
68.5507
68.2248
67.8401
67.3983
66.9023
66.3555
65.7605
65.1199
64.4361
63.7115
62.9485
62.1498
61.318
60.4557
59.5658
58.6513
57.7149
56.76
55.7894
54.806
53.8126
52.8123
51.8076
50.8013
49.7957
48.7933
47.797
68.9538
68.8539
68.6534
68.3823
68.0512
67.661
67.2136
66.7123
66.1606
65.5617
64.9179
64.232
63.5065
62.7441
61.9474
61.119
60.2619
59.3788
58.4726
57.5463
56.6027
55.6448
54.6754
53.6972
52.7129
51.725
50.7361
49.7484
48.7641
47.786
68.8849
68.7539
68.5348
68.2581
67.9243
67.5307
67.0797
66.5752
66.0209
65.4197
64.7745
64.0877
63.3621
62.6005
61.8055
60.98
60.1267
59.2484
58.348
57.4285
56.4926
55.5433
54.5831
53.6148
52.641
51.664
50.6863
49.7098
48.7368
47.7694
68.9134
68.7294
68.4872
68.2043
67.867
67.4698
67.0154
66.5083
65.9519
65.3493
64.7031
64.0159
63.2906
62.5298
61.7364
60.913
60.0626
59.1879
58.2917
57.377
56.4465
55.503
54.5492
53.5875
52.6207
51.6509
50.6804
49.7113
48.7455
47.7848
-72.5166
-45.5887
-18.0021
32.0474
28.1174
24.626
35.4018
27.1065
22.2293
32.9063
27.7456
24.6363
36.1495
32.4141
29.5392
38.6594
35.4906
32.8699
40.244
37.5409
35.2882
41.5516
39.2312
37.2861
42.6575
40.6258
38.9177
43.5596
41.7557
40.2388
44.2914
42.6749
41.3159
44.8843
43.4245
42.1972
45.3624
44.0346
42.9182
45.7452
44.5297
43.5076
46.0492
44.9299
43.9885
46.2882
45.2516
44.3797
46.4734
45.5084
44.6965
46.6144
45.7114
44.9514
46.7191
45.8701
45.1551
46.7943
45.9924
45.3165
46.8459
46.0849
45.4428
46.8791
46.1537
45.5409
46.8979
46.2034
45.6158
46.9075
46.2395
45.6734
46.909
46.2637
45.7158
46.9104
46.284
45.7511
46.9056
46.2948
45.7744
46.9132
46.3146
45.803
46.9081
46.3186
45.8143
46.9368
46.3564
45.856
6.67575
5.90724
4.70583
4.70562
4.73897
4.9427
5.29146
5.734
6.12455
6.30585
6.32359
6.31082
6.29072
6.22039
6.05547
5.781
5.40458
4.93836
4.39394
3.7856
3.13191
2.45532
1.78303
1.14854
0.589173
0.130636
-0.193653
-0.350265
-0.333763
-0.148994
17.9333
8.62405
5.53973
5.45571
5.61452
5.74484
6.05013
6.48326
6.74595
6.72202
6.61177
6.58875
6.61425
6.57908
6.41373
6.11447
5.7046
5.19822
4.60312
3.93232
3.20622
2.44994
1.69341
0.975733
0.340958
-0.166865
-0.506737
-0.637628
-0.538803
-0.228622
17.3298
11.3853
8.74318
7.93593
7.44941
7.05014
6.88318
6.90134
6.96527
7.03045
7.09091
7.16368
7.19754
7.09739
6.83662
6.46162
6.00673
5.46573
4.82835
4.10304
3.31113
2.47683
1.6289
0.811604
0.0862904
-0.473957
-0.823
-0.942431
-0.786706
-0.33932
20.9562
16.5789
13.5545
11.6417
10.3056
9.32575
8.67677
8.29319
8.06458
7.90128
7.75904
7.63878
7.52568
7.37844
7.16078
6.84337
6.39916
5.81608
5.10827
4.30574
3.43642
2.52109
1.58525
0.674964
-0.141159
-0.781737
-1.16825
-1.26691
-1.04471
-0.460988
25.8755
21.8121
18.3292
15.6376
13.6462
12.1625
11.0648
10.2649
9.66962
9.19853
8.80782
8.48023
8.19026
7.89393
7.54741
7.12151
6.60136
5.97988
5.25535
4.43242
3.5217
2.54022
1.51959
0.518987
-0.372587
-1.05477
-1.44853
-1.50963
-1.23394
-0.576147
29.6311
25.9905
22.4702
19.465
17.092
15.2289
13.7489
12.5694
11.6215
10.8436
10.1897
9.62605
9.11727
8.62249
8.10439
7.53688
6.90303
6.19035
5.39126
4.50574
3.5414
2.51469
1.45869
0.433204
-0.477979
-1.18725
-1.61683
-1.67516
-1.30354
-0.603981
32.5432
29.3601
26.024
22.971
20.4149
18.3031
16.5389
15.0577
13.8109
12.7514
11.8358
11.0262
10.287
9.58309
8.88234
8.15832
7.39068
6.56452
5.67131
4.71027
3.68881
2.6249
1.55319
0.530593
-0.366147
-1.05192
-1.44524
-1.48209
-1.13485
-0.523556
34.9176
32.1104
29.0205
26.053
23.4522
21.2129
19.269
17.5748
16.0975
14.8035
13.6571
12.6236
11.671
10.7694
9.89053
9.00915
8.10515
7.1641
6.17778
5.14545
4.07505
2.98561
1.91138
0.904427
0.0319709
-0.633421
-1.02755
-1.10977
-0.875641
-0.41631
36.8372
34.3357
31.5011
28.6866
26.133
23.8604
21.8261
20
18.3624
16.8918
15.5614
14.3425
13.2083
12.1342
11.0963
10.072
9.04335
7.99788
6.9284
5.83458
4.72474
3.61773
2.54505
1.55127
0.690954
0.0206266
-0.412703
-0.584448
-0.501885
-0.252103
38.39
36.1441
33.5505
30.9139
28.4579
26.2139
24.1546
22.2616
20.5252
18.9336
17.4683
16.1066
14.8274
13.6125
12.4422
11.2971
10.1621
9.0271
7.88663
6.74088
5.59776
4.47424
3.39718
2.40257
1.53226
0.827532
0.320065
0.0216452
-0.0821031
-0.0678553
39.6577
37.6274
35.251
32.7928
30.4566
28.2774
26.237
24.3248
22.5381
20.8721
19.3153
17.8509
16.463
15.1388
13.8637
12.6212
11.3989
10.1895
8.9888
7.79753
6.62264
5.47825
4.38568
3.3724
2.46899
1.70398
1.09691
0.650858
0.348436
0.126827
40.6979
38.8508
36.6667
34.3773
32.1676
30.0722
28.078
26.1793
24.3779
22.674
21.0612
19.528
18.0633
16.6585
15.3026
13.983
12.6906
11.4197
10.1673
8.93394
7.72552
6.55318
5.4329
4.38448
3.4291
2.58538
1.86417
1.26323
0.764552
0.318885
41.5531
39.8627
37.8479
35.7141
33.6294
31.6263
29.6945
27.8305
26.0392
24.3241
22.6828
21.1076
19.5918
18.1298
16.7135
15.3336
13.9845
12.6627
11.3649
10.091
8.84604
7.63844
6.47957
5.38301
4.3626
3.42951
2.5886
1.83468
1.15054
0.498468
42.2568
40.7011
38.8354
36.8429
34.8772
32.9684
31.107
29.291
27.5266
25.8193
24.1693
22.5727
21.0256
19.525
18.065
16.6392
15.2445
13.8792
12.5399
11.2262
9.94177
8.69292
7.48729
6.33365
5.24039
4.21343
3.2536
2.35412
1.49923
0.660276
42.8355
41.3963
39.6617
37.7966
35.9418
34.125
32.3372
30.5767
28.8499
27.1635
25.5197
23.9171
22.3541
20.829
19.3381
17.8775
16.4461
15.0428
13.665
12.312
10.9864
9.69239
8.43488
7.2191
6.04953
4.92846
3.8542
2.81927
1.80947
0.802816
43.3108
41.9725
40.3532
38.6023
36.8495
35.1203
33.4058
31.704
30.0213
28.3646
26.7373
25.1397
23.5718
22.0331
20.5215
19.035
17.574
16.138
14.7248
13.3337
11.9663
10.6252
9.3133
8.03346
6.78731
5.57473
4.39252
3.23309
2.08372
0.927172
43.7001
42.4492
40.9314
39.2825
37.6226
35.9753
34.3315
32.6889
31.0533
29.4316
27.8277
26.2429
24.6783
23.1347
21.6107
20.1058
18.6213
17.1569
15.7112
14.2837
12.8751
11.4867
10.1204
8.77707
7.45633
6.15661
4.87397
3.60093
2.32613
1.03572
44.0178
42.8425
41.4138
39.8557
38.2799
36.7081
35.1312
33.5464
31.9587
30.3747
28.7985
27.2321
25.677
24.1346
22.6047
21.0873
19.5838
18.0954
16.6208
15.1592
13.7109
12.2767
10.8577
9.45321
8.06142
6.68002
5.30483
3.92863
2.54119
1.13111
44.2755
43.1659
41.8152
40.3377
38.8374
37.3345
35.8199
34.2901
32.7495
31.2042
29.658
28.1133
26.5717
25.035
23.5041
21.979
20.4614
18.9531
17.4534
15.9607
14.4747
12.9966
11.5278
10.0661
8.6079
7.15085
5.69099
4.22138
2.73277
1.21558
44.4835
43.4305
42.1481
40.7418
39.3089
37.8684
36.4109
34.9326
33.4372
31.9299
30.4146
28.8934
27.368
25.8406
24.3123
22.7833
21.2559
19.7314
18.2091
16.6885
15.1684
13.6498
12.1347
10.6196
9.10014
7.57398
6.03726
4.48341
2.90402
1.29081
44.6501
43.6459
42.423
41.0793
39.7063
38.3216
36.9161
35.4853
34.0322
32.5615
31.0766
29.5796
28.0721
26.556
25.0326
23.5029
21.9688
20.4312
18.8898
17.3445
15.7943
14.2396
12.6815
11.1169
9.54173
7.9532
6.34719
4.71762
3.05692
1.35769
44.7826
43.8203
42.6491
41.3602
40.0399
38.7049
37.3459
35.9583
34.5442
33.1078
31.6521
30.1787
28.6894
27.1858
25.6695
24.1418
22.6035
21.0552
19.4982
17.9319
16.3551
14.7683
13.1714
11.5618
9.9366
8.29225
6.62429
4.92709
3.19378
1.41749
44.887
43.9603
42.8337
41.5924
40.3182
39.0269
37.7092
36.3602
34.9816
33.5767
32.1482
30.6976
29.2263
27.7357
26.2275
24.7029
23.1622
21.6062
20.0362
18.4519
16.8522
15.237
13.6057
11.9565
10.2866
8.59237
6.86935
5.11224
3.3146
1.46995
44.9694
44.0727
42.9842
41.7839
40.5497
39.2963
38.0148
36.7
35.3529
33.9764
32.5729
31.1434
29.6892
28.2116
26.7118
25.1908
23.6493
22.0881
20.5079
18.9084
17.289
15.6493
13.9884
12.3047
10.5955
8.85699
7.08563
5.27618
3.42204
1.51684
45.0328
44.1612
43.1048
41.9393
40.7389
39.518
38.2677
36.9824
35.6627
34.3113
32.9298
31.5192
30.0806
28.615
27.1234
25.6068
24.0658
22.5009
20.9125
19.3005
17.6645
16.0037
14.3175
12.6045
10.8606
9.08289
7.26987
5.41577
3.51296
1.55553
45.0846
44.2332
43.2034
42.0669
40.895
39.7013
38.4771
37.2168
35.9206
34.5906
33.2282
31.8343
30.4095
28.9548
27.4711
25.9589
24.4189
22.8514
21.2568
19.6349
17.9854
16.3072
14.6
12.8627
11.0898
9.27889
7.43007
5.53787
3.59366
1.5908
45.122
44.2863
43.2776
42.1643
41.0152
39.8433
38.6403
37.4003
36.1231
34.8106
33.4639
32.0836
30.6704
29.2249
27.7477
26.2395
24.7006
23.1313
21.5319
19.9021
18.2416
16.5494
14.8247
13.0667
11.2711
9.4338
7.55426
5.62989
3.65274
1.6149
45.1592
44.3349
43.3425
42.2473
41.1157
39.9608
38.7741
37.5499
36.2876
34.9888
33.6544
32.285
30.881
29.4428
27.9711
26.4662
24.9284
23.358
21.755
20.1193
18.4505
16.7474
15.0091
13.2348
11.4218
9.56444
7.66034
5.70964
3.70584
1.63848
45.1782
44.3601
43.378
42.2951
41.1755
40.0318
38.8561
37.6423
36.3899
35.1002
33.7741
32.4119
31.014
29.5807
28.1126
26.6098
25.0728
23.5016
21.8961
20.2564
18.5818
16.8714
15.124
13.3384
11.5129
9.64233
7.72178
5.75129
3.72871
1.64448
45.2183
44.3979
43.4213
42.3463
41.2339
40.0966
38.9268
37.7187
36.4717
35.1868
33.8648
32.5062
31.1112
29.68
28.2132
26.711
25.1736
23.6011
21.9935
20.3507
18.6721
16.9568
15.2035
13.4107
11.5772
9.69915
7.76808
5.78271
3.74375
1.63595
)
;

boundaryField
{
    inlet
    {
        type            zeroGradient;
    }
    outlet
    {
        type            fixedValue;
        value           uniform 0;
    }
    flap
    {
        type            zeroGradient;
    }
    upperWall
    {
        type            zeroGradient;
    }
    lowerWall
    {
        type            zeroGradient;
    }
    frontAndBack
    {
        type            empty;
    }
}


// ************************************************************************* //
