/*--------------------------------*- C++ -*----------------------------------*\
| =========                 |                                                 |
| \\      /  F ield         | OpenFOAM: The Open Source CFD Toolbox           |
|  \\    /   O peration     | Version:  dev                                   |
|   \\  /    A nd           | Web:      www.OpenFOAM.org                      |
|    \\/     M anipulation  |                                                 |
\*---------------------------------------------------------------------------*/
FoamFile
{
    version     2.0;
    format      ascii;
    class       surfaceVectorField;
    location    "2.82";
    object      Uf;
}
// * * * * * * * * * * * * * * * * * * * * * * * * * * * * * * * * * * * * * //

dimensions      [0 1 -1 0 0 0 0];

internalField   nonuniform List<vector> 
879
(
(9.98967 -2.04598e-19 0.177086)
(10.0015 2.12769e-19 0.119393)
(9.98579 -2.30632e-19 0.239499)
(9.99072 1.8384e-19 0.183785)
(10.0021 -1.82838e-19 0.123669)
(9.97313 2.47526e-21 0.305392)
(9.98776 -6.72621e-20 0.247984)
(9.96483 5.69363e-20 0.370693)
(9.99185 -4.39437e-19 0.189889)
(10.0028 -2.19949e-20 0.127523)
(9.97645 -1.08416e-20 0.315511)
(9.98978 5.03923e-20 0.25563)
(9.95437 -9.11006e-20 0.440056)
(9.9695 2.83282e-20 0.382117)
(9.94579 7.63732e-20 0.508339)
(9.99298 4.80302e-19 0.195332)
(10.0035 2.14194e-20 0.130929)
(9.97981 9.01648e-20 0.324498)
(9.9919 8.0623e-20 0.262358)
(9.9611 2.00277e-19 0.452561)
(9.97427 -4.39385e-23 0.392098)
(9.93727 -4.31635e-20 0.581301)
(9.95447 9.11222e-20 0.521577)
(9.93106 -1.23686e-19 0.652558)
(9.99423 -3.87852e-19 0.200054)
(10.0043 -3.8516e-19 0.133809)
(9.9833 -1.24698e-20 0.332265)
(9.99417 -3.72195e-20 0.268111)
(9.96793 -1.11358e-19 0.463304)
(9.97914 2.52014e-20 0.400572)
(9.94854 7.4778e-21 0.594967)
(9.96321 -6.75694e-21 0.532722)
(9.92564 -1.24978e-19 0.728863)
(9.94485 1.14462e-19 0.666275)
(9.92363 -1.24204e-19 0.802698)
(9.99552 -2.39979e-20 0.203983)
(10.005 1.73059e-19 0.136116)
(9.98693 1.69095e-21 0.338745)
(9.99652 -1.31719e-20 0.272792)
(9.97488 1.32237e-19 0.472199)
(9.98416 1.23229e-19 0.407468)
(9.95992 1.03498e-19 0.606165)
(9.9721 5.53968e-20 0.541667)
(9.94256 1.14262e-19 0.742213)
(9.95881 1.55983e-19 0.677124)
(9.92333 2.27686e-19 0.881742)
(9.94367 -1.54807e-19 0.815264)
(9.92722 6.09568e-20 0.95743)
(9.99678 1.83044e-19 0.207054)
(10.0058 1.65089e-19 0.137832)
(9.99063 1.12164e-19 0.343833)
(9.99887 2.35042e-20 0.276298)
(9.98199 4.41135e-20 0.47913)
(9.9893 4.87434e-21 0.412635)
(9.97151 1.09735e-19 0.614743)
(9.98123 -5.31499e-20 0.548263)
(9.95971 -1.21059e-19 0.752243)
(9.97301 5.86742e-20 0.68493)
(9.94712 -3.25129e-19 0.89299)
(9.96394 -2.7459e-19 0.824053)
(9.93431 -5.56083e-20 1.03827)
(9.95458 -5.71636e-20 0.966926)
(9.92186 -2.39163e-19 1.18935)
(9.94569 -1.09238e-19 1.11479)
(9.93802 -1.31863e-20 1.2689)
(9.99806 5.68193e-22 0.209203)
(10.0065 -2.20779e-20 0.13892)
(9.99439 -8.65529e-20 0.3474)
(10.0012 6.26583e-22 0.278532)
(9.98931 -9.50962e-20 0.483933)
(9.99457 -5.14885e-20 0.41591)
(9.98337 -1.04884e-19 0.620536)
(9.99058 -1.19335e-19 0.552332)
(9.97711 -1.00015e-19 0.758778)
(9.98745 -6.55588e-21 0.689534)
(9.97105 7.87856e-22 0.899998)
(9.98439 1.51863e-19 0.82892)
(9.96573 -1.12286e-19 1.04544)
(9.98196 -5.20167e-20 0.97175)
(9.96171 1.22659e-19 1.19632)
(9.98094 1.00347e-19 1.11922)
(9.95968 1.07042e-19 1.35377)
(9.98206 2.31311e-19 1.27247)
(9.98604 -7.74661e-21 1.4325)
(9.99936 -2.2262e-20 0.210362)
(10.0072 -1.61929e-20 0.139335)
(9.99822 3.61288e-20 0.349319)
(10.0036 -1.66246e-19 0.2794)
(9.99677 -7.67077e-20 0.486443)
(9.99991 3.58679e-20 0.417148)
(9.99542 -1.79996e-20 0.623379)
(10 -1.67402e-19 0.553717)
(9.99468 2.52253e-19 0.761673)
(10.002 1.93301e-19 0.690785)
(9.99504 9.71094e-20 0.902632)
(10.0049 9.58399e-21 0.829733)
(9.99702 1.66292e-19 1.04745)
(10.0092 -1.53513e-19 0.97177)
(10.0012 2.11972e-19 1.19726)
(10.0158 2.1776e-19 1.11802)
(10.0084 1.13413e-19 1.35307)
(10.0255 -1.04189e-19 1.26951)
(10.0194 1.1038e-19 1.5157)
(10.0389 1.12531e-19 1.42709)
(10.0351 -1.18383e-19 1.68586)
(10.057 -1.0936e-19 1.59147)
(10.0806 -1.18787e-19 1.76326)
(10.0007 -1.64723e-19 0.210462)
(10.008 -1.65908e-19 0.139031)
(10.0021 -1.65304e-19 0.349481)
(10.006 -1.57537e-19 0.278827)
(10.0043 -5.82156e-20 0.486524)
(10.0052 1.5989e-19 0.416249)
(10.0075 5.08989e-20 0.62313)
(10.0094 -4.6942e-20 0.552293)
(10.0122 -5.6135e-20 0.760791)
(10.0164 4.9967e-20 0.688557)
(10.0189 -2.47814e-19 0.900766)
(10.0251 -5.47054e-20 0.826367)
(10.028 -9.99121e-20 1.04419)
(10.0361 -1.02763e-19 0.966869)
(10.0402 -1.07033e-19 1.19208)
(10.0501 -9.87257e-20 1.1111)
(10.0561 -1.04805e-19 1.34532)
(10.068 -5.56002e-20 1.25996)
(10.0767 -1.12872e-19 1.50464)
(10.0903 -4.11068e-22 1.41421)
(10.1028 -1.09764e-19 1.67062)
(10.118 9.78701e-20 1.57445)
(10.1353 2.3098e-19 1.84377)
(10.152 -1.08233e-19 1.74113)
(10.1753 2.25451e-19 2.02449)
(10.1931 -9.46198e-20 1.91466)
(10.2424 -8.64584e-22 2.09527)
(10.002 -1.58642e-19 0.209455)
(10.0087 -7.80144e-21 0.137984)
(10.0059 1.77708e-19 0.347812)
(10.0083 1.62775e-19 0.27677)
(10.0116 1.70345e-19 0.484079)
(10.0104 -1.57393e-19 0.413146)
(10.0194 -4.73927e-20 0.619674)
(10.0186 -2.14443e-20 0.547971)
(10.0294 5.10773e-20 0.756015)
(10.0305 -2.50927e-20 0.682745)
(10.0422 9.38804e-20 0.894291)
(10.0448 1.41631e-19 0.818722)
(10.0582 -1.01504e-19 1.03555)
(10.0622 4.65207e-20 0.956965)
(10.0781 -4.59629e-20 1.18071)
(10.0834 -6.31759e-21 1.09841)
(10.1024 5.14147e-20 1.33055)
(10.109 1.98204e-19 1.24385)
(10.132 2.15822e-19 1.48569)
(10.1398 -4.95073e-20 1.39395)
(10.1677 9.9364e-20 1.6466)
(10.1765 1.63948e-19 1.5492)
(10.2103 -4.42291e-19 1.81363)
(10.2199 -5.97054e-20 1.70994)
(10.2609 -3.26796e-19 1.98703)
(10.2708 -3.331e-19 1.87641)
(10.3206 1.135e-19 2.16688)
(10.3304 -1.05901e-19 2.04871)
(10.3995 2.20606e-19 2.22677)
(10.0033 3.22235e-19 0.207316)
(10.0094 1.62881e-19 0.136185)
(10.0096 -1.82592e-19 0.344272)
(10.0105 1.58228e-19 0.273204)
(10.0187 -3.53196e-19 0.479046)
(10.0154 -3.34861e-19 0.407803)
(10.0308 1.42357e-21 0.612935)
(10.0274 -2.19792e-20 0.540701)
(10.0461 6.8366e-20 0.747262)
(10.044 2.26499e-20 0.67329)
(10.0648 9.2793e-20 0.883137)
(10.0638 -1.51307e-19 0.806741)
(10.0874 1.44032e-19 1.02151)
(10.0873 -6.42286e-20 0.942023)
(10.1145 2.44387e-19 1.16318)
(10.1152 1.42553e-19 1.07996)
(10.1467 9.43272e-20 1.30884)
(10.1482 5.47575e-20 1.22125)
(10.1847 -1.02595e-19 1.45902)
(10.1868 -5.11161e-20 1.36646)
(10.2292 7.98751e-22 1.61407)
(10.2317 -1.01242e-19 1.51599)
(10.2811 5.22231e-20 1.77421)
(10.2837 -1.47071e-19 1.67007)
(10.3411 -1.06768e-19 1.93955)
(10.3435 2.11345e-21 1.82879)
(10.4103 3.85125e-21 2.11004)
(10.412 -5.5425e-20 1.99215)
(10.4897 1.61876e-19 2.28543)
(10.49 5.66031e-20 2.15995)
(10.5801 1.08688e-19 2.46528)
(10.5785 2.80153e-21 2.33179)
(10.6782 5.3119e-20 2.50709)
(10.0045 -5.12247e-21 0.204037)
(10.0101 1.48554e-19 0.133632)
(10.0131 -8.86515e-22 0.338843)
(10.0127 -7.49034e-21 0.268128)
(10.0255 6.18172e-21 0.471402)
(10.0201 7.55935e-21 0.400214)
(10.0418 0 0.602878)
(10.0358 1.00451e-20 0.53047)
(10.062 -2.03156e-19 0.734499)
(10.0568 -7.20782e-20 0.660176)
(10.0864 -3.12052e-19 0.867281)
(10.0818 -1.17212e-19 0.790416)
(10.1153 -6.52522e-20 1.00207)
(10.1111 -4.91998e-20 0.92206)
(10.1492 -5.20163e-20 1.13956)
(10.1454 -4.30408e-20 1.05582)
(10.1887 -9.44594e-20 1.28035)
(10.1852 -9.69961e-20 1.19229)
(10.2344 -4.97832e-20 1.42487)
(10.231 -9.21867e-20 1.33196)
(10.2869 -2.52817e-19 1.5734)
(10.2834 -4.86595e-20 1.47514)
(10.347 -1.9833e-19 1.72602)
(10.3431 -1.07796e-19 1.62197)
(10.4153 5.47109e-20 1.88272)
(10.4107 2.49164e-20 1.77242)
(10.4928 -1.37432e-21 2.04337)
(10.4868 1.28441e-19 1.92638)
(10.5801 -1.06433e-19 2.20759)
(10.5724 -5.40617e-20 2.08358)
(10.6782 -5.4128e-20 2.37485)
(10.668 -5.37504e-20 2.24353)
(10.7876 1.07452e-19 2.54444)
(10.7742 -9.72912e-20 2.4056)
(10.9092 -3.01576e-21 2.71544)
(10.8918 1.02688e-19 2.56895)
(11.0213 -2.10491e-19 2.73262)
(10.0056 1.45462e-19 0.199622)
(10.0107 1.48626e-19 0.130331)
(10.0164 1.18563e-21 0.331534)
(10.0146 0 0.261553)
(10.0319 1.14907e-20 0.461154)
(10.0245 1.53017e-19 0.390397)
(10.0521 -6.42043e-20 0.589512)
(10.0436 5.43197e-21 0.517304)
(10.077 1.58434e-20 0.717737)
(10.0688 1.15246e-20 0.643436)
(10.1067 1.52413e-19 0.846753)
(10.0986 -4.70302e-21 0.769789)
(10.1415 -2.64603e-20 0.977302)
(10.1334 7.77875e-20 0.897139)
(10.1818 -8.92391e-20 1.10998)
(10.1736 -1.77295e-19 1.0261)
(10.228 -9.46661e-20 1.24527)
(10.2196 8.73777e-20 1.15717)
(10.2806 -9.09858e-20 1.38355)
(10.2719 1.77327e-20 1.29073)
(10.3404 1.00029e-19 1.52499)
(10.3311 6.98074e-20 1.42703)
(10.4077 1.21202e-19 1.6696)
(10.3976 1.90823e-19 1.56613)
(10.4832 1.00531e-19 1.81727)
(10.472 1.18014e-19 1.70792)
(10.5677 7.43779e-20 1.96775)
(10.5547 7.62842e-20 1.85219)
(10.6616 0 2.12063)
(10.6465 2.97858e-21 1.99862)
(10.7657 -9.80537e-20 2.27534)
(10.7478 9.3063e-20 2.14669)
(10.8803 -1.02142e-19 2.43112)
(10.859 -9.80146e-20 2.29574)
(11.0061 -1.10065e-19 2.58707)
(10.9807 -6.55687e-21 2.44496)
(11.1432 -1.52728e-19 2.74211)
(11.1129 -4.71235e-21 2.59338)
(11.292 2.34478e-21 2.895)
(11.2561 -1.48875e-19 2.7399)
(11.4102 1.03167e-19 2.88326)
(10.0066 -1.01538e-21 0.194086)
(10.0112 -2.76801e-19 0.126296)
(10.0194 1.56435e-19 0.322369)
(10.0165 0 0.253507)
(10.0379 1.4601e-19 0.448339)
(10.0286 1.5325e-19 0.378395)
(10.0617 8.30469e-20 0.572887)
(10.0508 -2.62385e-21 0.501264)
(10.0909 -9.61168e-21 0.697037)
(10.0799 8.75106e-20 0.623149)
(10.1255 -8.09336e-20 0.821629)
(10.1142 -1.45184e-20 0.744951)
(10.1658 -7.74916e-20 0.947316)
(10.1539 1.07959e-20 0.867374)
(10.2119 4.32306e-21 1.0746)
(10.1995 -8.70017e-20 0.990957)
(10.2642 2.02496e-19 1.20388)
(10.2512 4.30471e-21 1.11611)
(10.3232 1.82651e-19 1.33542)
(10.3095 1.15075e-19 1.24311)
(10.3892 1.63009e-19 1.46932)
(10.3746 7.04508e-20 1.37209)
(10.4629 1.87504e-19 1.60554)
(10.4471 4.50065e-21 1.50307)
(10.5446 9.31396e-20 1.74389)
(10.5272 9.44938e-20 1.63592)
(10.6349 3.05536e-21 1.88406)
(10.6155 -9.10172e-20 1.77035)
(10.7342 9.84299e-20 2.0256)
(10.7124 3.05335e-21 1.90599)
(10.8429 9.30096e-20 2.16796)
(10.8181 1.47349e-21 2.04235)
(10.9613 0 2.31037)
(10.933 0 2.17876)
(11.0897 1.01482e-19 2.45198)
(11.0573 0 2.31446)
(11.2282 -8.45267e-22 2.59176)
(11.191 1.48452e-19 2.44852)
(11.3768 -4.53866e-20 2.72861)
(11.3343 -1.46732e-19 2.57996)
(10.0076 -2.74493e-19 0.187455)
(10.0117 -1.4914e-20 0.121547)
(10.0223 -2.35728e-21 0.311392)
(10.0182 4.30041e-21 0.244028)
(10.0434 1.58572e-22 0.433022)
(10.0323 -6.7835e-21 0.364265)
(10.0705 2.34895e-21 0.553093)
(10.0575 -2.14362e-21 0.482434)
(10.1037 8.20935e-20 0.672515)
(10.0901 8.41401e-20 0.599433)
(10.1428 7.95579e-20 0.792049)
(10.1284 7.69839e-20 0.71606)
(10.188 7.82367e-22 0.912285)
(10.1726 0 0.832962)
(10.2394 -8.68366e-20 1.03366)
(10.223 1.50959e-21 0.950627)
(10.2972 -8.51128e-20 1.15646)
(10.2798 -1.6906e-19 1.06938)
(10.3617 0 1.28084)
(10.3433 0 1.18938)
(10.4334 -9.21419e-20 1.40685)
(10.4137 -1.0569e-20 1.3107)
(10.5125 -9.07702e-20 1.5344)
(10.4913 -1.66951e-19 1.4333)
(10.5994 -9.44554e-20 1.66327)
(10.5764 -1.75827e-19 1.55703)
(10.6944 -9.09433e-20 1.79312)
(10.6693 -1.14244e-19 1.6816)
(10.7979 -9.63732e-20 1.92349)
(10.7701 2.24539e-20 1.80659)
(10.91 -9.38756e-20 2.05383)
(10.8792 -9.62963e-20 1.93152)
(11.0309 0 2.18343)
(10.9966 0 2.05577)
(11.1608 4.82597e-20 2.31147)
(11.1224 0 2.17863)
(11.2995 -1.32965e-21 2.43705)
(11.2566 9.27767e-20 2.29926)
(11.399 -9.46949e-20 2.41678)
(10.0085 2.70686e-19 0.179761)
(10.0122 1.43644e-19 0.116107)
(10.0249 -2.72959e-22 0.298652)
(10.0197 4.40486e-21 0.233157)
(10.0484 -9.11357e-21 0.415273)
(10.0357 1.32665e-19 0.348067)
(10.0786 8.20534e-20 0.530233)
(10.0635 -4.67363e-21 0.460894)
(10.1154 7.88755e-20 0.644323)
(10.0993 9.4728e-20 0.572407)
(10.1585 -4.80078e-21 0.758221)
(10.1413 4.31536e-21 0.683301)
(10.2081 7.39892e-22 0.872461)
(10.1895 5.67974e-20 0.794152)
(10.2641 -8.31662e-20 0.987416)
(10.2441 5.95128e-20 0.905391)
(10.3268 -8.14944e-20 1.10329)
(10.3055 1.59056e-20 1.01727)
(10.3962 -1.08519e-20 1.22016)
(10.3735 1.00497e-19 1.1299)
(10.4727 -8.74732e-20 1.33801)
(10.4485 -1.10072e-20 1.24328)
(10.5564 -2.5418e-19 1.45674)
(10.5304 -1.39865e-20 1.35734)
(10.6476 -1.96029e-19 1.57609)
(10.6196 -1.03131e-20 1.4719)
(10.7464 2.12226e-21 1.69572)
(10.7161 -2.05146e-20 1.58665)
(10.853 2.24328e-20 1.81518)
(10.82 6.58454e-20 1.7012)
(10.9676 0 1.93394)
(10.9315 -4.37839e-20 1.81508)
(11.09 0 2.05134)
(11.0504 0 1.92771)
(11.2203 4.56864e-20 2.16665)
(11.1769 0 2.03845)
(11.3583 -3.06802e-21 2.27908)
(11.3107 -4.19131e-20 2.14657)
(11.4515 -4.57691e-20 2.25131)
(10.0093 -1.29632e-19 0.171039)
(10.0125 -1.33312e-19 0.11)
(10.0272 1.41337e-19 0.284208)
(10.021 1.29114e-19 0.220948)
(10.0529 1.36529e-19 0.395173)
(10.0388 6.51585e-21 0.329879)
(10.086 8.76192e-21 0.504413)
(10.069 0 0.436744)
(10.1259 1.80003e-20 0.612613)
(10.1077 -1.32199e-19 0.542201)
(10.1727 6.76295e-20 0.72036)
(10.1529 8.13685e-20 0.646848)
(10.2261 1.1704e-19 0.828117)
(10.2046 2.51148e-21 0.751174)
(10.2862 1.6095e-19 0.936194)
(10.263 4.13551e-20 0.855542)
(10.3531 2.02622e-19 1.04475)
(10.3282 1.78547e-19 0.960157)
(10.4267 1.00157e-19 1.1538)
(10.4001 2.4522e-20 1.06509)
(10.5073 6.43412e-20 1.26332)
(10.4789 7.88484e-20 1.17031)
(10.5948 2.36041e-19 1.37314)
(10.5644 1.84631e-19 1.27572)
(10.6894 1.69607e-19 1.48301)
(10.6569 5.00459e-20 1.38111)
(10.7911 4.49021e-20 1.5926)
(10.7562 8.39497e-20 1.48618)
(10.9001 -2.12071e-21 1.70147)
(10.8624 4.3901e-20 1.59055)
(11.0161 -4.3737e-20 1.80913)
(10.9755 -1.28328e-19 1.69379)
(11.1393 0 1.91499)
(11.0953 8.53115e-20 1.79538)
(11.2693 -8.98238e-20 2.0184)
(11.2217 -4.23555e-20 1.89474)
(11.406 -8.56617e-20 2.11868)
(11.3544 -8.97226e-20 1.99125)
(11.4931 -8.30563e-20 2.08426)
(10.01 1.3276e-19 0.161332)
(10.0129 0 0.103255)
(10.0293 -9.63141e-21 0.268132)
(10.0223 -1.03599e-19 0.207459)
(10.057 -1.33361e-19 0.37282)
(10.0415 -2.43428e-20 0.309792)
(10.0925 -1.44987e-19 0.475762)
(10.0738 0 0.410113)
(10.1353 -6.64572e-20 0.577543)
(10.115 -9.28693e-20 0.508972)
(10.1853 1.43972e-20 0.678662)
(10.1632 2.09867e-20 0.606883)
(10.2421 -7.49355e-20 0.779503)
(10.218 -1.28299e-19 0.704249)
(10.3058 5.97088e-20 0.88032)
(10.2796 -1.93544e-20 0.801365)
(10.3762 -4.3387e-21 0.98123)
(10.3481 -7.03281e-20 0.898395)
(10.4533 2.79698e-21 1.08224)
(10.4233 3.24962e-20 0.995385)
(10.5372 2.02333e-19 1.18328)
(10.5052 -3.47504e-20 1.09229)
(10.6278 -6.22955e-21 1.28416)
(10.5937 -3.26475e-20 1.18897)
(10.7251 -3.76908e-20 1.38466)
(10.6887 -2.04595e-19 1.28523)
(10.829 8.28907e-20 1.48442)
(10.7901 1.65381e-19 1.38079)
(10.9395 -8.56359e-20 1.58306)
(10.8979 -8.00836e-20 1.47528)
(11.0564 4.15476e-21 1.68012)
(11.012 7.70974e-20 1.56831)
(11.1796 4.17509e-20 1.77509)
(11.132 4.89439e-21 1.65942)
(11.3088 -4.23043e-20 1.8674)
(11.2578 -8.36882e-20 1.74812)
(11.4437 -8.70742e-20 1.95649)
(11.389 4.23022e-20 1.83387)
(11.5253 -4.56429e-20 1.91613)
(10.0106 -2.42419e-19 0.150686)
(10.0131 7.42213e-21 0.0959045)
(10.0311 -1.18122e-19 0.250502)
(10.0233 -1.26584e-19 0.192757)
(10.0606 1.12396e-19 0.34833)
(10.0439 -1.05181e-20 0.287904)
(10.0982 5.2997e-20 0.444429)
(10.078 0 0.381131)
(10.1436 -2.85225e-21 0.539291)
(10.1215 5.27817e-20 0.472889)
(10.1964 -1.2572e-19 0.633338)
(10.1721 -5.39799e-20 0.563606)
(10.2562 -7.1016e-20 0.726879)
(10.2296 3.10759e-20 0.653614)
(10.3228 -1.52771e-19 0.820115)
(10.2941 7.06717e-20 0.743145)
(10.3963 -3.23379e-20 0.913133)
(10.3654 -8.11249e-21 0.832325)
(10.4763 -6.12409e-21 1.00592)
(10.4433 4.19235e-20 0.921178)
(10.5629 -2.7564e-19 1.09839)
(10.5277 -1.56028e-19 1.00964)
(10.6559 -2.36221e-19 1.19035)
(10.6185 -2.34208e-19 1.09758)
(10.7552 4.03925e-21 1.28158)
(10.7155 3.44453e-20 1.1848)
(10.8606 -1.99336e-21 1.37177)
(10.8184 1.20803e-19 1.27103)
(10.9721 8.68979e-20 1.46054)
(10.9273 3.43001e-20 1.35595)
(11.0893 7.77473e-20 1.54751)
(11.0417 1.26351e-19 1.4392)
(11.212 -1.23755e-19 1.63222)
(11.1615 -2.4322e-19 1.52038)
(11.34 3.18209e-21 1.7142)
(11.2863 1.18309e-19 1.59908)
(11.4727 8.46534e-20 1.79297)
(11.4158 -1.56149e-19 1.67485)
(11.5495 3.23729e-19 1.74725)
(10.0112 1.25656e-19 0.139151)
(10.0134 7.59879e-21 0.0879811)
(10.0327 -1.56445e-20 0.231401)
(10.0242 1.32453e-19 0.176904)
(10.0637 -1.25584e-19 0.321818)
(10.046 -8.36278e-20 0.264314)
(10.1033 0 0.410565)
(10.0817 6.25345e-20 0.349934)
(10.1508 0 0.498048)
(10.1271 -9.61499e-20 0.43412)
(10.206 1.06974e-19 0.584613)
(10.1799 6.57401e-20 0.517224)
(10.2683 1.76374e-19 0.670507)
(10.2397 7.28966e-20 0.59951)
(10.3375 2.18737e-19 0.755885)
(10.3065 -3.04989e-20 0.681159)
(10.4135 6.81093e-20 0.840804)
(10.3801 1.82927e-19 0.762261)
(10.4959 -1.12081e-19 0.925238)
(10.4603 -7.57175e-20 0.842823)
(10.5846 -1.13681e-19 1.00909)
(10.5468 -3.82986e-20 0.922775)
(10.6794 4.36557e-20 1.09218)
(10.6393 -2.85198e-21 1.00198)
(10.7802 1.54219e-19 1.17429)
(10.7377 4.37203e-20 1.08026)
(10.8866 1.57897e-19 1.25515)
(10.8417 3.91475e-20 1.15736)
(10.9985 7.48418e-20 1.33443)
(10.9511 1.56431e-19 1.23301)
(11.1156 -2.03064e-19 1.41178)
(11.0655 -7.9887e-20 1.30689)
(11.2375 5.33457e-21 1.48682)
(11.1847 -1.62585e-19 1.37867)
(11.364 -4.53356e-20 1.55916)
(11.3083 1.63565e-19 1.44798)
(11.4945 8.94819e-20 1.6284)
(11.4358 -2.04475e-19 1.51447)
(11.5669 4.4297e-19 1.57778)
(10.0117 1.52301e-20 0.126776)
(10.0135 0 0.0795161)
(10.0341 6.17882e-20 0.210912)
(10.025 1.51751e-20 0.159965)
(10.0664 1.0975e-19 0.293402)
(10.0479 -1.27966e-20 0.239116)
(10.1076 -3.66249e-20 0.374324)
(10.0849 3.33481e-20 0.316651)
(10.1571 -2.82009e-20 0.454001)
(10.132 -3.6042e-20 0.392832)
(10.2142 3.082e-20 0.532709)
(10.1866 -2.86853e-20 0.467935)
(10.2787 -1.39429e-19 0.610644)
(10.2483 -2.08913e-21 0.542169)
(10.3501 -6.66911e-20 0.687917)
(10.3171 -1.38792e-19 0.615668)
(10.4281 3.49493e-20 0.764563)
(10.3926 1.03943e-19 0.688494)
(10.5124 0 0.840544)
(10.4746 6.18339e-22 0.760638)
(10.6028 7.53889e-20 0.915758)
(10.5627 3.53913e-20 0.832026)
(10.699 -2.74582e-21 0.990048)
(10.6566 1.45731e-19 0.902532)
(10.8008 -7.42604e-20 1.06321)
(10.7561 -1.47836e-19 0.971984)
(10.9078 3.77857e-20 1.135)
(10.8607 -3.67513e-20 1.04017)
(11.0197 -2.45083e-21 1.20513)
(10.9703 7.4578e-20 1.10684)
(11.1363 -3.84602e-20 1.27332)
(11.0844 -3.94782e-20 1.17174)
(11.2572 0 1.33923)
(11.2027 -3.7141e-20 1.23457)
(11.3819 0 1.40255)
(11.3249 1.48767e-19 1.29505)
(11.5101 1.58651e-19 1.46297)
(11.4504 -1.8971e-19 1.35288)
(11.5789 1.58464e-19 1.40778)
(10.0121 0 0.113606)
(10.0137 0 0.0705346)
(10.0354 -6.12406e-20 0.189111)
(10.0257 1.40089e-20 0.141991)
(10.0688 -9.08278e-20 0.263191)
(10.0495 -7.53767e-20 0.212396)
(10.1114 3.36034e-20 0.33585)
(10.0877 -3.14534e-20 0.281401)
(10.1624 -3.65171e-20 0.407327)
(10.1362 3.37492e-20 0.349178)
(10.2213 -6.23375e-20 0.477836)
(10.1923 -1.9134e-19 0.415927)
(10.2875 -1.81028e-21 0.547525)
(10.2557 -2.9849e-20 0.481805)
(10.3607 3.66716e-20 0.616472)
(10.3261 -9.88733e-20 0.546912)
(10.4403 6.84975e-20 0.684692)
(10.4032 -9.43688e-20 0.611284)
(10.5262 3.69453e-20 0.752137)
(10.4866 1.24587e-21 0.674899)
(10.6179 1.07699e-19 0.818712)
(10.576 1.38446e-19 0.737685)
(10.7151 -3.46644e-21 0.884272)
(10.6709 7.22444e-20 0.799526)
(10.8175 -1.09215e-19 0.948637)
(10.771 -3.87892e-20 0.860269)
(10.9248 1.11835e-21 1.01159)
(10.876 -2.2534e-21 0.919729)
(11.0365 3.64838e-20 1.07291)
(10.9855 7.2402e-20 0.977699)
(11.1524 -3.81244e-20 1.13233)
(11.0991 -1.08058e-19 1.03396)
(11.2721 1.15605e-19 1.1896)
(11.2165 -1.79399e-21 1.08827)
(11.3951 -4.6118e-20 1.24445)
(11.3372 8.11502e-21 1.14039)
(11.521 -1.89478e-19 1.29663)
(11.4607 -1.00978e-20 1.1901)
(11.5868 0 1.23717)
(10.0124 1.4392e-20 0.0996719)
(10.0138 0 0.0610502)
(10.0364 -8.18325e-22 0.166059)
(10.0263 1.43441e-20 0.123017)
(10.0708 -1.4366e-20 0.231283)
(10.0509 -1.47786e-20 0.184222)
(10.1146 -3.11062e-20 0.295273)
(10.0902 0 0.244293)
(10.167 -1.25682e-19 0.35819)
(10.1398 8.69203e-20 0.303299)
(10.2273 -1.57536e-19 0.42019)
(10.1973 -9.49246e-20 0.361367)
(10.295 -1.29503e-19 0.481378)
(10.262 -3.02834e-21 0.418613)
(10.3696 -2.33203e-19 0.541807)
(10.3337 -1.28807e-19 0.475103)
(10.4506 -1.63122e-19 0.601473)
(10.4121 -7.21294e-20 0.530856)
(10.5376 1.05538e-19 0.660327)
(10.4967 -6.39289e-20 0.585841)
(10.6303 1.0198e-19 0.718277)
(10.587 1.70912e-19 0.63999)
(10.7282 3.588e-20 0.775195)
(10.6826 -3.32992e-20 0.693197)
(10.831 7.09305e-20 0.830925)
(10.7832 -3.13646e-20 0.74533)
(10.9383 7.09207e-20 0.885285)
(10.8884 3.63971e-20 0.796233)
(11.0497 -7.60356e-20 0.938081)
(10.9976 3.58173e-20 0.845735)
(11.1648 -7.06549e-20 0.989105)
(11.1107 -7.58405e-20 0.893651)
(11.2833 -1.11978e-19 1.03815)
(11.227 -3.2467e-20 0.939792)
(11.4045 4.50527e-20 1.085)
(11.3463 -7.67797e-20 0.983971)
(11.5283 1.84195e-19 1.12946)
(11.468 2.06827e-19 1.02601)
(11.5918 0 1.06572)
(10.0128 0 0.084988)
(10.0139 0 0.0510547)
(10.0375 0 0.1418)
(10.027 0 0.103043)
(10.0727 0 0.197758)
(10.0523 5.45197e-20 0.154641)
(10.1175 1.21245e-19 0.252709)
(10.0925 2.79557e-20 0.205416)
(10.1711 1.17788e-19 0.306723)
(10.1432 9.19521e-20 0.255313)
(10.2326 6.3686e-20 0.359905)
(10.2017 2.98168e-20 0.304396)
(10.3015 -2.67552e-21 0.412327)
(10.2675 9.32019e-20 0.352748)
(10.3772 3.64121e-20 0.464021)
(10.3403 -9.44198e-20 0.400413)
(10.4593 2.95351e-20 0.514974)
(10.4197 9.84764e-20 0.447389)
(10.5472 3.53621e-21 0.565136)
(10.5051 -6.61732e-20 0.493642)
(10.6406 3.18495e-20 0.614425)
(10.5962 1.31488e-19 0.539108)
(10.739 -1.02236e-19 0.662732)
(10.6924 -1.31347e-19 0.583696)
(10.842 -6.66794e-20 0.709925)
(10.7933 -2.8153e-21 0.627295)
(10.9492 4.00682e-22 0.755853)
(10.8984 1.32836e-19 0.669776)
(11.0602 3.58892e-20 0.800357)
(11.0074 -1.34185e-19 0.710998)
(11.1745 -3.66277e-20 0.84327)
(11.1199 1.04037e-19 0.750816)
(11.2917 3.57013e-21 0.884425)
(11.2353 -1.39176e-19 0.789079)
(11.4115 8.9409e-20 0.923661)
(11.3533 2.27683e-19 0.825641)
(11.5333 1.772e-20 0.960822)
(11.4734 -6.8845e-20 0.860364)
(11.5952 -1.37734e-19 0.893114)
(10.0132 0 0.0695312)
(10.014 -6.3057e-21 0.0404941)
(10.0385 5.60784e-20 0.116344)
(10.0277 6.47272e-21 0.082016)
(10.0746 8.30417e-20 0.162685)
(10.0539 2.54082e-21 0.123675)
(10.1203 -1.80981e-21 0.208294)
(10.0949 -2.59957e-20 0.164851)
(10.1747 1.60939e-21 0.253152)
(10.1464 -5.75155e-20 0.205331)
(10.2372 6.02493e-20 0.297312)
(10.2058 5.86743e-20 0.245144)
(10.3071 -1.34667e-21 0.340814)
(10.2725 3.05403e-20 0.284356)
(10.3838 -3.03397e-20 0.383665)
(10.3462 -3.12105e-20 0.322988)
(10.4667 0 0.425841)
(10.4264 3.01237e-20 0.361025)
(10.5553 6.53813e-20 0.467292)
(10.5126 0 0.398431)
(10.6493 -3.62846e-20 0.507947)
(10.6042 -1.21777e-20 0.435149)
(10.748 -2.91919e-20 0.547714)
(10.7008 -3.62262e-20 0.471103)
(10.8511 2.01963e-19 0.586485)
(10.8019 6.77387e-20 0.506203)
(10.9582 -5.52578e-21 0.624141)
(10.907 1.03427e-19 0.540346)
(11.0687 -6.39959e-20 0.660556)
(11.0158 -1.21313e-19 0.573422)
(11.1823 -1.42033e-21 0.695601)
(11.1277 1.35287e-19 0.605318)
(11.2985 9.10642e-20 0.729147)
(11.2423 -7.04639e-20 0.635918)
(11.4169 6.50599e-20 0.761071)
(11.3592 8.13336e-21 0.665112)
(11.537 -2.28357e-19 0.791258)
(11.478 -4.68521e-21 0.692797)
(11.5982 -1.41274e-19 0.718873)
(10.0138 1.96448e-22 0.0532164)
(10.0144 2.42818e-20 0.0292008)
(10.0399 -4.83632e-20 0.0896381)
(10.0289 3.16975e-22 0.0597935)
(10.0768 -1.09329e-19 0.125959)
(10.0559 -4.15881e-20 0.0913046)
(10.1232 -8.31636e-20 0.161767)
(10.0977 -6.91541e-20 0.122616)
(10.1785 1.35636e-21 0.197001)
(10.1499 -1.39644e-21 0.153391)
(10.2418 2.81427e-20 0.23171)
(10.21 2.91216e-20 0.183674)
(10.3125 -2.37061e-22 0.265919)
(10.2774 -2.04698e-22 0.213518)
(10.3899 3.09039e-20 0.299618)
(10.3518 2.86966e-20 0.24292)
(10.4735 3.00546e-20 0.332775)
(10.4327 -4.25698e-20 0.271853)
(10.5627 -7.95376e-20 0.365343)
(10.5195 2.9979e-20 0.300283)
(10.6571 -1.21535e-20 0.397258)
(10.6116 -7.92213e-20 0.328162)
(10.7561 6.3315e-20 0.428444)
(10.7085 9.58922e-20 0.355433)
(10.8593 -3.32411e-20 0.458815)
(10.8098 0 0.382024)
(10.9662 -1.55987e-20 0.488276)
(10.915 -3.31939e-20 0.407859)
(11.0763 8.33737e-20 0.516728)
(11.0235 8.13551e-22 0.432856)
(11.1893 6.42427e-20 0.544072)
(11.135 1.94315e-20 0.456931)
(11.3047 -1.55444e-19 0.570211)
(11.2491 5.59682e-20 0.480001)
(11.422 -6.34093e-20 0.595054)
(11.3652 -1.5429e-19 0.501985)
(11.5408 8.45138e-20 0.618516)
(11.483 6.22291e-20 0.522809)
(11.6019 0 0.542406)
(10.0149 2.43236e-20 0.0359198)
(10.0153 1.93907e-20 0.0166496)
(10.0419 7.10071e-21 0.0621102)
(10.0315 -6.46273e-21 0.0363249)
(10.0793 -5.68289e-22 0.0886583)
(10.0595 1.33489e-20 0.0576534)
(10.1264 1.49106e-20 0.114814)
(10.1018 -1.34919e-20 0.0788049)
(10.1823 2.71529e-20 0.14049)
(10.1544 1.46716e-20 0.09957)
(10.2463 0 0.165753)
(10.2151 1.34874e-20 0.12006)
(10.3177 2.95398e-20 0.190628)
(10.283 -1.38492e-20 0.140296)
(10.3957 -4.68115e-20 0.215101)
(10.358 1.45477e-21 0.160249)
(10.4799 -4.25123e-20 0.239146)
(10.4393 -6.0917e-20 0.179886)
(10.5696 3.00956e-20 0.262731)
(10.5265 3.07336e-20 0.199178)
(10.6644 3.1869e-20 0.285814)
(10.619 -7.22854e-21 0.21809)
(10.7636 3.08121e-20 0.308344)
(10.7162 2.41762e-20 0.23658)
(10.8669 0 0.33026)
(10.8177 0 0.254599)
(10.9738 -1.63299e-20 0.351498)
(10.9229 7.64805e-21 0.272093)
(11.0838 -6.47611e-20 0.371989)
(11.0314 -1.631e-20 0.289007)
(11.1964 1.0988e-20 0.391665)
(11.1428 -5.66572e-20 0.305285)
(11.3112 5.69497e-20 0.410461)
(11.2565 8.9707e-20 0.320872)
(11.4278 -2.52234e-20 0.428313)
(11.3721 -2.7963e-20 0.335715)
(11.5457 -2.45438e-20 0.445163)
(11.4892 -2.12049e-20 0.349766)
(11.6075 -5.95218e-20 0.36298)
(10.0185 -1.19917e-20 0.0156385)
(10.0092 -2.3905e-20 0.000701079)
(10.0463 1.7486e-23 0.0304413)
(10.0207 -3.00148e-21 0.011622)
(10.0842 7.26988e-23 0.0462974)
(10.0427 -6.12714e-21 0.0227884)
(10.1318 -1.35847e-20 0.0621106)
(10.0783 9.48641e-21 0.0335246)
(10.1882 6.66232e-22 0.0777411)
(10.1247 5.80144e-21 0.0440838)
(10.2526 -7.80423e-22 0.0932178)
(10.1794 1.37789e-20 0.054574)
(10.3243 -4.25929e-20 0.108522)
(10.2419 -1.42391e-20 0.0649767)
(10.4027 -1.31403e-20 0.123612)
(10.3116 -4.24307e-20 0.0752545)
(10.4872 1.43768e-20 0.138453)
(10.3881 2.17821e-20 0.0853818)
(10.5773 -7.59809e-21 0.153011)
(10.4707 0 0.0953392)
(10.6723 -1.50571e-20 0.167254)
(10.5588 -1.47847e-20 0.105106)
(10.7717 -7.45888e-21 0.181145)
(10.652 1.41558e-20 0.114657)
(10.8752 7.85493e-21 0.194643)
(10.7497 -1.48685e-20 0.123966)
(10.9821 7.63818e-21 0.207707)
(10.8513 -1.44807e-20 0.133002)
(11.092 -8.03304e-21 0.220293)
(10.9563 2.05645e-22 0.141738)
(11.2044 2.42471e-20 0.232362)
(11.0644 -2.92097e-22 0.150142)
(11.319 2.477e-21 0.243872)
(11.175 3.9702e-20 0.158186)
(11.4352 -2.38387e-20 0.254787)
(11.2877 -3.25517e-20 0.165844)
(11.5527 -5.71338e-20 0.265074)
(11.4019 -7.45644e-21 0.17309)
(11.5174 -4.91873e-20 0.179902)
(10.0008 -1.47811e-20 0.0021171)
(10.0136 -9.3579e-21 0.00627915)
(10.0378 3.59227e-21 0.0111587)
(10.0722 2.93754e-20 0.0161614)
(10.116 1.92794e-20 0.0212101)
(10.1684 -8.63818e-23 0.0263045)
(10.2288 -1.41491e-20 0.0314211)
(10.2966 -6.48801e-21 0.0365307)
(10.3712 6.99732e-21 0.0416093)
(10.4519 -7.40198e-21 0.0466377)
(10.5381 1.52165e-20 0.0515973)
(10.6294 6.51504e-21 0.0564691)
(10.7252 -3.77731e-20 0.0612338)
(10.825 -2.20869e-20 0.0658716)
(10.9282 8.13321e-21 0.0703632)
(11.0343 1.56056e-20 0.0746899)
(11.143 3.70399e-21 0.0788341)
(11.2536 -1.5724e-20 0.0827793)
(11.3659 6.54715e-22 0.0865107)
)
;

boundaryField
{
    inlet
    {
        type            calculated;
        value           nonuniform List<vector> 
30
(
(10 0 0)
(10 0 0)
(10 0 0)
(10 0 0)
(10 0 0)
(10 0 0)
(10 0 0)
(10 0 0)
(10 0 0)
(10 0 0)
(10 0 0)
(10 0 0)
(10 0 0)
(10 0 0)
(10 0 0)
(10 0 0)
(10 0 0)
(10 0 0)
(10 0 0)
(10 0 0)
(10 0 0)
(10 0 0)
(10 0 0)
(10 0 0)
(10 0 0)
(10 0 0)
(10 0 0)
(10 0 0)
(10 0 0)
(10 0 0)
)
;
    }
    outlet
    {
        type            calculated;
        value           nonuniform 0();
    }
    flap
    {
        type            calculated;
        value           nonuniform 0();
    }
    upperWall
    {
        type            calculated;
        value           uniform (0 0 0);
    }
    lowerWall
    {
        type            calculated;
        value           nonuniform 0();
    }
    frontAndBack
    {
        type            empty;
        value           nonuniform 0();
    }
    procBoundary0to1
    {
        type            processor;
        value           nonuniform List<vector> 
18
(
(11.4525 1.53934e-19 3.04437)
(11.5354 1.49486e-19 2.86131)
(11.4869 5.10365e-20 2.70766)
(11.4469 -4.77201e-20 2.55919)
(11.5038 -1.39856e-19 2.38777)
(11.5489 -3.15808e-19 2.21512)
(11.5838 -1.73731e-19 2.04176)
(11.6099 4.12701e-20 1.86805)
(11.6286 4.48151e-19 1.69416)
(11.6413 -4.60691e-21 1.52016)
(11.6493 1.94365e-20 1.34589)
(11.654 -1.90029e-20 1.17135)
(11.6567 0 0.995766)
(11.6585 -2.8217e-19 0.819602)
(11.6608 0 0.640521)
(11.6646 0 0.460962)
(11.6709 -1.2618e-19 0.274704)
(11.4792 2.78748e-20 0.0900151)
)
;
    }
    procBoundary0to3
    {
        type            processor;
        value           nonuniform List<vector> 
34
(
(10.0011 -1.18148e-19 0.114749)
(9.98393 -3.19902e-19 0.230264)
(9.97001 -4.50545e-20 0.294279)
(9.96032 1.79711e-19 0.357981)
(9.94785 -1.54486e-19 0.425933)
(9.93731 -2.96907e-19 0.493153)
(9.92616 -1.14493e-19 0.565327)
(9.91745 -2.29598e-19 0.636161)
(9.90888 -2.8968e-19 0.712404)
(9.90381 -2.90254e-19 0.786576)
(9.89982 -3.50437e-19 0.86644)
(9.90006 -7.45444e-21 0.943405)
(9.90288 1.13492e-19 1.02609)
(9.91026 0 1.10488)
(9.89364 -3.56879e-19 1.25895)
(9.91039 -2.32605e-19 1.34749)
(9.93221 -1.15231e-19 1.43041)
(9.96053 -1.15167e-19 1.51876)
(9.99378 0 1.6001)
(10.0063 -1.15392e-19 1.77604)
(10.0565 -1.15558e-19 1.86423)
(10.1108 2.25745e-19 1.94301)
(10.1488 -1.23837e-19 2.13115)
(10.224 -2.38706e-19 2.21305)
(10.3013 -1.27176e-19 2.28308)
(10.3904 4.5873e-19 2.35309)