/*--------------------------------*- C++ -*----------------------------------*\
| =========                 |                                                 |
| \\      /  F ield         | OpenFOAM: The Open Source CFD Toolbox           |
|  \\    /   O peration     | Version:  dev                                   |
|   \\  /    A nd           | Web:      www.OpenFOAM.org                      |
|    \\/     M anipulation  |                                                 |
\*---------------------------------------------------------------------------*/
FoamFile
{
    version     2.0;
    format      ascii;
    class       volVectorField;
    location    "3.5";
    object      cellDisplacement;
}
// * * * * * * * * * * * * * * * * * * * * * * * * * * * * * * * * * * * * * //

dimensions      [0 1 0 0 0 0 0];

internalField   nonuniform List<vector> 
465
(
(0.00232211 0 8.90781e-06)
(0.00669372 0 2.62379e-05)
(0.00234166 0 8.35866e-06)
(0.00675164 0 2.46141e-05)
(0.0106606 0 4.04368e-05)
(0.00236027 0 7.65544e-06)
(0.00680697 0 2.25364e-05)
(0.0107525 0 3.70057e-05)
(0.0142553 0 5.17818e-05)
(0.00237755 0 6.80175e-06)
(0.00685856 0 2.00182e-05)
(0.0108386 0 3.28512e-05)
(0.0143774 0 4.59251e-05)
(0.0175291 0 5.96883e-05)
(0.00239309 0 5.80421e-06)
(0.00690529 0 1.70791e-05)
(0.0109173 0 2.80125e-05)
(0.0144894 0 3.91178e-05)
(0.0176767 0 5.07564e-05)
(0.0205277 0 6.31511e-05)
(0.00240651 0 4.67268e-06)
(0.00694606 0 1.37483e-05)
(0.0109866 0 2.25389e-05)
(0.0145893 0 3.14392e-05)
(0.0178091 0 4.07106e-05)
(0.0206948 0 5.04971e-05)
(0.02329 0 6.08252e-05)
(0.00241746 0 3.42041e-06)
(0.00697984 0 1.00648e-05)
(0.0110452 0 1.64954e-05)
(0.0146747 0 2.29832e-05)
(0.0179236 0 2.96866e-05)
(0.0208404 0 3.66611e-05)
(0.0234685 0 4.38669e-05)
(0.0258464 0 5.11636e-05)
(0.028009 0 5.83498e-05)
(0.00242559 0 2.06399e-06)
(0.00700568 0 6.07737e-06)
(0.0110914 0 9.96277e-06)
(0.0147437 0 1.38644e-05)
(0.0180177 0 1.7837e-05)
(0.0209617 0 2.18494e-05)
(0.0236183 0 2.57852e-05)
(0.0260258 0 2.94419e-05)
(0.0282181 0 3.25359e-05)
(0.0302254 0 3.46372e-05)
(0.00243063 0 6.17699e-07)
(0.00702279 0 1.82763e-06)
(0.011124 0 3.00913e-06)
(0.0147948 0 4.17901e-06)
(0.0180898 0 5.28978e-06)
(0.0210565 0 6.22636e-06)
(0.0237373 0 6.80246e-06)
(0.0261696 0 6.75632e-06)
(0.0283868 0 5.74607e-06)
(0.030419 0 3.32917e-06)
(0.0322943 0 -1.04685e-06)
(0.0340355 0 -7.86356e-06)
(0.0024324 0 -8.95427e-07)
(0.00703059 0 -2.61701e-06)
(0.0111421 0 -4.2554e-06)
(0.0148266 0 -5.91887e-06)
(0.0181379 0 -7.75389e-06)
(0.0211229 0 -9.95414e-06)
(0.0238231 0 -1.27687e-05)
(0.0262752 0 -1.65089e-05)
(0.0285119 0 -2.15539e-05)
(0.0305624 0 -2.83592e-05)
(0.0324527 0 -3.74496e-05)
(0.0342052 0 -4.93768e-05)
(0.0358389 0 -6.48419e-05)
(0.0373703 0 -8.45506e-05)
(0.00243065 0 -2.44347e-06)
(0.00702834 0 -7.16288e-06)
(0.0111444 0 -1.16777e-05)
(0.0148375 0 -1.6216e-05)
(0.0181602 0 -2.10175e-05)
(0.0211586 0 -2.63476e-05)
(0.0238733 0 -3.251e-05)
(0.0263402 0 -3.98548e-05)
(0.0285909 0 -4.87851e-05)
(0.0306537 0 -5.97598e-05)
(0.0325535 0 -7.32905e-05)
(0.0343115 0 -8.99319e-05)
(0.0359461 0 -0.000110311)
(0.037473 0 -0.000135088)
(0.038905 0 -0.000164998)
(0.00242519 0 -3.99822e-06)
(0.00701554 0 -1.17278e-05)
(0.0111303 0 -1.91246e-05)
(0.0148265 0 -2.65286e-05)
(0.0181556 0 -3.42654e-05)
(0.0211625 0 -4.26643e-05)
(0.0238868 0 -5.20746e-05)
(0.0263634 0 -6.28754e-05)
(0.028623 0 -7.54824e-05)
(0.0306929 0 -9.035e-05)
(0.0325968 0 -0.00010797)
(0.0343552 0 -0.000128867)
(0.0359858 0 -0.000153606)
(0.0375032 0 -0.000182771)
(0.0389198 0 -0.000216965)
(0.0402452 0 -0.000256789)
(0.0414867 0 -0.000302794)
(0.00241593 0 -5.52967e-06)
(0.00699191 0 -1.62241e-05)
(0.0110992 0 -2.64544e-05)
(0.0147931 0 -3.66625e-05)
(0.0181234 0 -4.72505e-05)
(0.0211339 0 -5.86033e-05)
(0.023863 0 -7.11065e-05)
(0.0263445 0 -8.51591e-05)
(0.0286082 0 -0.00010118)
(0.0306803 0 -0.00011961)
(0.0325837 0 -0.000140914)
(0.0343381 0 -0.000165571)
(0.0359604 0 -0.00019408)
(0.0374647 0 -0.000226942)
(0.0388629 0 -0.000264651)
(0.0401642 0 -0.00030768)
(0.0413757 0 -0.000356451)
(0.0425027 0 -0.000411365)
(0.0435485 0 -0.000472691)
(0.00240284 0 -7.00645e-06)
(0.00695736 0 -2.05604e-05)
(0.011051 0 -3.35198e-05)
(0.014737 0 -4.64162e-05)
(0.0180635 0 -5.97184e-05)
(0.0210728 0 -7.38571e-05)
(0.023802 0 -8.92458e-05)
(0.0262839 0 -0.000106295)
(0.0285472 0 -0.000125417)
(0.0306173 0 -0.000147035)
(0.0325161 0 -0.000171575)
(0.0342627 0 -0.000199468)
(0.0358733 0 -0.000231142)
(0.0373617 0 -0.000267013)
(0.0387393 0 -0.000307475)
(0.0400152 0 -0.000352883)
(0.0411966 0 -0.00040354)
(0.042289 0 -0.000459687)
(0.043296 0 -0.000521465)
(0.0442204 0 -0.000588939)
(0.0450634 0 -0.000661995)
(0.00238597 0 -8.39645e-06)
(0.00691201 0 -2.46432e-05)
(0.0109859 0 -4.01699e-05)
(0.0146586 0 -5.55844e-05)
(0.0179762 0 -7.14109e-05)
(0.0209796 0 -8.81164e-05)
(0.0237045 0 -0.000106134)
(0.0261825 0 -0.000125876)
(0.0284415 0 -0.000147745)
(0.0305057 0 -0.000172137)
(0.0323965 0 -0.000199438)
(0.0341322 0 -0.000230023)
(0.0357286 0 -0.000264253)
(0.0371991 0 -0.000302461)
(0.0385548 0 -0.000344947)
(0.0398049 0 -0.000391962)
(0.0409566 0 -0.0004437)
(0.0420158 0 -0.000500283)
(0.0429867 0 -0.000561743)
(0.0438727 0 -0.000628019)
(0.044676 0 -0.00069892)
(0.00236545 0 -9.66738e-06)
(0.0068562 0 -2.83782e-05)
(0.0109044 0 -4.62529e-05)
(0.0145584 0 -6.3961e-05)
(0.0178625 0 -8.20704e-05)
(0.0208555 0 -0.000101074)
(0.023572 0 -0.000121417)
(0.0260423 0 -0.000143507)
(0.0282933 0 -0.000167731)
(0.0303484 0 -0.000194453)
(0.0322282 0 -0.000224016)
(0.0339506 0 -0.000256741)
(0.0355309 0 -0.000292922)
(0.0369821 0 -0.000332816)
(0.0383153 0 -0.000376637)
(0.0395397 0 -0.000424548)
(0.0406627 0 -0.000476648)
(0.0416906 0 -0.000532965)
(0.0426281 0 -0.000593447)
(0.0434794 0 -0.000657961)
(0.00234148 0 -1.07874e-05)
(0.00679052 0 -3.16723e-05)
(0.0108074 0 -5.16189e-05)
(0.0144378 0 -7.1343e-05)
(0.0177236 0 -9.14436e-05)
(0.0207022 0 -0.000112431)
(0.0234065 0 -0.000134752)
(0.0258656 0 -0.000158808)
(0.0281055 0 -0.000184961)
(0.0301488 0 -0.000213543)
(0.0320153 0 -0.000244855)
(0.0337225 0 -0.000279165)
(0.0352852 0 -0.000316702)
(0.0367165 0 -0.000357657)
(0.0380271 0 -0.000402169)
(0.0392264 0 -0.000450323)
(0.0403221 0 -0.000502141)
(0.0413207 0 -0.000557577)
(0.0422276 0 -0.00061651)
(0.0430472 0 -0.000678739)
(0.00231436 0 -1.17256e-05)
(0.00671576 0 -3.44351e-05)
(0.0106961 0 -5.61223e-05)
(0.0142982 0 -7.7533e-05)
(0.0175617 0 -9.92853e-05)
(0.0205221 0 -0.000121897)
(0.0232108 0 -0.000145811)
(0.0256558 0 -0.000171414)
(0.0278819 0 -0.000199044)
(0.029911 0 -0.000228999)
(0.0317625 0 -0.000261537)
(0.033453 0 -0.000296875)
(0.0349974 0 -0.000335189)
(0.0364084 0 -0.000376606)
(0.0376968 0 -0.000421203)
(0.038872 0 -0.000469003)
(0.039942 0 -0.000519966)
(0.0409136 0 -0.000573989)
(0.0417925 0 -0.000630903)
(0.0425838 0 -0.000690469)
(0.00228444 0 -1.24527e-05)
(0.00663294 0 -3.65807e-05)
(0.0105721 0 -5.96241e-05)
(0.0141418 0 -8.23429e-05)
(0.0173793 0 -0.000105362)
(0.0203181 0 -0.000129198)
(0.0229883 0 -0.000154283)
(0.0254166 0 -0.000180985)
(0.0276267 0 -0.000209615)
(0.0296399 0 -0.000240438)
(0.0314749 0 -0.000273672)
(0.033148 0 -0.000309487)
(0.0346737 0 -0.00034801)
(0.0360645 0 -0.000389317)
(0.0373313 0 -0.000433433)
(0.0384837 0 -0.000480329)
(0.0395297 0 -0.000529921)
(0.0404765 0 -0.000582065)
(0.0413302 0 -0.000636561)
(0.0420962 0 -0.000693151)
(0.00225216 0 -1.29416e-05)
(0.00654331 0 -3.80291e-05)
(0.0104373 0 -6.19946e-05)
(0.013971 0 -8.55969e-05)
(0.0171793 0 -0.000109456)
(0.0200939 0 -0.000134077)
(0.0227431 0 -0.000159877)
(0.0251525 0 -0.000187202)
(0.027345 0 -0.000216336)
(0.029341 0 -0.000247509)
(0.0311586 0 -0.000280901)
(0.0328137 0 -0.000316645)
(0.0343207 0 -0.000354824)
(0.0356918 0 -0.000395471)
(0.0369381 0 -0.000438569)
(0.038069 0 -0.000484053)
(0.0390929 0 -0.000531804)
(0.0400171 0 -0.000581654)
(0.0408481 0 -0.000633383)
(0.0415916 0 -0.000686729)
(0.00221805 0 -1.31676e-05)
(0.00644832 0 -3.87076e-05)
(0.010294 0 -6.31156e-05)
(0.0137889 0 -8.71339e-05)
(0.0169655 0 -0.000111366)
(0.0198535 0 -0.000136299)
(0.0224799 0 -0.000162329)
(0.0248689 0 -0.000189776)
(0.0270426 0 -0.000218896)
(0.0290204 0 -0.000249888)
(0.0308201 0 -0.000282899)
(0.0324573 0 -0.000318025)
(0.0339458 0 -0.000355315)
(0.035298 0 -0.000394769)
(0.0365248 0 -0.000436339)
(0.0376358 0 -0.000479931)
(0.0386394 0 -0.000525404)
(0.0395433 0 -0.000572576)
(0.0403541 0 -0.000621223)
(0.0410777 0 -0.000671085)
(0.00218268 0 -1.31094e-05)
(0.00634967 0 -3.85524e-05)
(0.0101447 0 -6.28824e-05)
(0.0135988 0 -8.68109e-05)
(0.0167419 0 -0.000110914)
(0.0196019 0 -0.000135654)
(0.0222041 0 -0.0001614)
(0.0245717 0 -0.000188444)
(0.0267257 0 -0.000217015)
(0.0286851 0 -0.000247283)
(0.0304669 0 -0.000279365)
(0.0320863 0 -0.000313327)
(0.033557 0 -0.000349191)
(0.0348913 0 -0.000386929)
(0.0360999 0 -0.000426473)
(0.0371926 0 -0.00046771)
(0.0381779 0 -0.000510489)
(0.0390635 0 -0.000554621)
(0.0398564 0 -0.000599885)
(0.0405626 0 -0.00064603)
(0.00214674 0 -1.27492e-05)
(0.00624925 0 -3.75101e-05)
(0.00999255 0 -6.12065e-05)
(0.0134047 0 -8.4506e-05)
(0.0165133 0 -0.000107948)
(0.0193444 0 -0.00013196)
(0.0219218 0 -0.000156882)
(0.0242676 0 -0.000182978)
(0.0264018 0 -0.000210449)
(0.0283427 0 -0.000239436)
(0.0301068 0 -0.000270032)
(0.0317091 0 -0.000302279)
(0.033163 0 -0.000336177)
(0.0344805 0 -0.00037168)
(0.0356724 0 -0.000408706)
(0.0367484 0 -0.000447133)
(0.0377173 0 -0.000486805)
(0.0385868 0 -0.000527536)
(0.0393638 0 -0.000569116)
(0.0400549 0 -0.000611309)
(0.00211097 0 -1.20732e-05)
(0.00614922 0 -3.55391e-05)
(0.0098408 0 -5.80181e-05)
(0.0132109 0 -8.01213e-05)
(0.016285 0 -0.000102341)
(0.0190872 0 -0.000125067)
(0.0216399 0 -0.000148604)
(0.0239639 0 -0.000173186)
(0.0260787 0 -0.000198986)
(0.0280016 0 -0.000226122)
(0.0297489 0 -0.000254663)
(0.031335 0 -0.000284635)
(0.0327731 0 -0.00031602)
(0.0340752 0 -0.000348763)
(0.035252 0 -0.000382773)
(0.0363132 0 -0.000417926)
(0.0372675 0 -0.000454072)
(0.0381228 0 -0.000491032)
(0.0388862 0 -0.00052861)
(0.0395642 0 -0.00056659)
(0.0020762 0 -1.10727e-05)
(0.006052 0 -3.26117e-05)
(0.00969328 0 -5.32687e-05)
(0.0130226 0 -7.35872e-05)
(0.0160631 0 -9.40043e-05)
(0.0188372 0 -0.000114864)
(0.0213659 0 -0.000136435)
(0.0236691 0 -0.000158918)
(0.0257652 0 -0.00018246)
(0.0276712 0 -0.000207156)
(0.0294027 0 -0.000233059)
(0.0309739 0 -0.000260179)
(0.0323977 0 -0.00028849)
(0.033686 0 -0.000317931)
(0.0348494 0 -0.00034841)
(0.0358975 0 -0.00037981)
(0.0368392 0 -0.000411986)
(0.0376822 0 -0.000444776)
(0.038434 0 -0.000478002)
(0.0391008 0 -0.000511471)
(0.0020434 0 -9.74418e-06)
(0.00596031 0 -2.87156e-05)
(0.00955427 0 -4.69348e-05)
(0.0128452 0 -6.48667e-05)
(0.0158542 0 -8.28854e-05)
(0.018602 0 -0.000101284)
(0.0211085 0 -0.00012029)
(0.0233924 0 -0.000140073)
(0.0254714 0 -0.000160752)
(0.027362 0 -0.000182403)
(0.0290792 0 -0.000205064)
(0.030637 0 -0.000228736)
(0.0320483 0 -0.000253387)
(0.0333245 0 -0.000278959)
(0.0344762 0 -0.000305363)
(0.0355132 0 -0.000332493)
(0.0364441 0 -0.000360219)
(0.0372769 0 -0.000388398)
(0.0380189 0 -0.000416874)
(0.0386765 0 -0.000445481)
(0.00201364 0 -8.09051e-06)
(0.00587729 0 -2.38572e-05)
(0.00942868 0 -3.9022e-05)
(0.0126852 0 -5.39617e-05)
(0.0156662 0 -6.89797e-05)
(0.0183906 0 -8.43135e-05)
(0.0208773 0 -0.000100146)
(0.0231441 0 -0.000116612)
(0.0252082 0 -0.000133806)
(0.0270853 0 -0.000151786)
(0.0287902 0 -0.000170578)
(0.0303367 0 -0.000190177)
(0.0317372 0 -0.000210552)
(0.0330033 0 -0.000231649)
(0.0341455 0 -0.000253394)
(0.0351733 0 -0.000275691)
(0.0360954 0 -0.000298433)
(0.0369199 0 -0.0003215)
(0.0376539 0 -0.00034476)
(0.0383042 0 -0.000368079)
(0.00198823 0 -6.12202e-06)
(0.00580664 0 -1.80646e-05)
(0.00932224 0 -2.95709e-05)
(0.0125501 0 -4.09205e-05)
(0.0155077 0 -5.23387e-05)
(0.0182128 0 -6.40021e-05)
(0.0206831 0 -7.60458e-05)
(0.022936 0 -8.85696e-05)
(0.0249878 0 -0.000101642)
(0.026854 0 -0.000115304)
(0.0285491 0 -0.000129572)
(0.0300865 0 -0.00014444)
(0.0314786 0 -0.000159882)
(0.0327368 0 -0.000175854)
(0.0338714 0 -0.000192297)
(0.0348921 0 -0.000209136)
(0.0358075 0 -0.000226288)
(0.0366256 0 -0.000243661)
(0.0373537 0 -0.000261155)
(0.0379983 0 -0.000278666)
(0.00196876 0 -3.85791e-06)
(0.00575287 0 -1.13917e-05)
(0.00924183 0 -1.86635e-05)
(0.0124486 0 -2.58471e-05)
(0.015389 0 -3.30826e-05)
(0.01808 0 -4.04802e-05)
(0.0205385 0 -4.81239e-05)
(0.0227813 0 -5.60757e-05)
(0.0248243 0 -6.4378e-05)
(0.0266827 0 -7.30555e-05)
(0.0283708 0 -8.21174e-05)
(0.0299018 0 -9.15588e-05)
(0.0312879 0 -0.000101362)
(0.0325406 0 -0.000111498)
(0.03367 0 -0.000121927)
(0.0346858 0 -0.000132602)
(0.0355966 0 -0.000143468)
(0.0364103 0 -0.000154466)
(0.0371343 0 -0.000165531)
(0.0377752 0 -0.000176598)
(0.00195739 0 -1.32806e-06)
(0.00572186 0 -3.92364e-06)
(0.00919604 0 -6.43258e-06)
(0.0123912 0 -8.91419e-06)
(0.0153223 0 -1.14164e-05)
(0.0180057 0 -1.3977e-05)
(0.0204578 0 -1.66248e-05)
(0.0226951 0 -1.9381e-05)
(0.0247334 0 -2.22601e-05)
(0.0265877 0 -2.52706e-05)
(0.028272 0 -2.84154e-05)
(0.0297996 0 -3.16927e-05)
(0.0311826 0 -3.5096e-05)
(0.0324323 0 -3.8615e-05)
(0.0335591 0 -4.22359e-05)
(0.0345723 0 -4.5942e-05)
(0.0354807 0 -4.97139e-05)
(0.0362922 0 -5.35306e-05)
(0.0370141 0 -5.73694e-05)
(0.0376531 0 -6.12065e-05)
)
;

boundaryField
{
    inlet
    {
        type            cellMotion;
        value           uniform (0 0 0);
    }
    outlet
    {
        type            cellMotion;
        value           nonuniform 0();
    }
    flap
    {
        type            cellMotion;
        value           nonuniform 0();
    }
    upperWall
    {
        type            slip;
    }
    lowerWall
    {
        type            slip;
    }
    frontAndBack
    {
        type            empty;
    }
    procBoundary0to1
    {
        type            processor;
        value           nonuniform List<vector> 
18
(
(0.0458252 0 -0.000740313)
(0.0453972 0 -0.000773966)
(0.0442464 0 -0.000726097)
(0.0442464 0 -0.000726097)
(0.0437822 0 -0.000743793)
(0.0432904 0 -0.00075218)
(0.0427778 0 -0.000751307)
(0.0422512 0 -0.000741157)
(0.041718 0 -0.000721631)
(0.041186 0 -0.000692544)
(0.0406637 0 -0.000653626)
(0.0401604 0 -0.000604518)
(0.0396865 0 -0.000544773)
(0.0392534 0 -0.000473858)
(0.0388741 0 -0.000391156)
(0.0385629 0 -0.000295968)
(0.0383362 0 -0.000187524)
(0.0382123 0 -6.49971e-05)
)
;
    }
    procBoundary0to3
    {
        type            processor;
        value           nonuniform List<vector> 
34
(
(0.00230216 0 9.30358e-06)
(0.00663467 0 2.74195e-05)
(0.0105647 0 4.31586e-05)
(0.0105647 0 4.31586e-05)
(0.0141255 0 5.66811e-05)
(0.0141255 0 5.66811e-05)
(0.0173688 0 6.74611e-05)
(0.0173688 0 6.74611e-05)
(0.0203418 0 7.45212e-05)
(0.0203418 0 7.45212e-05)
(0.0230857 0 7.64915e-05)
(0.0230857 0 7.64915e-05)
(0.0256335 0 7.17043e-05)
(0.0256335 0 7.17043e-05)
(0.0277608 0 8.29531e-05)
(0.0299878 0 6.50989e-05)
(0.0299878 0 6.50989e-05)
(0.0320787 0 3.53478e-05)
(0.0320787 0 3.53478e-05)
(0.0338025 0 3.4045e-05)
(0.0356622 0 -1.78474e-05)
(0.0356622 0 -1.78474e-05)
(0.0371921 0 -3.17872e-05)
(0.0388131 0 -0.000109286)
(0.0388131 0 -0.000109286)
(0.040252 0 -0.000200673)
(0.040252 0 -0.000200673)
(0.0415218 0 -0.000242861)
(0.042649 0 -0.000355489)
(0.042649 0 -0.000355489)
(0.0437351 0 -0.000415344)
(0.0445146 0 -0.000540587)
(0.0445146 0 -0.000540587)
(0.0454016 0 -0.000615133)
)
;
    }
}


// ************************************************************************* //
