/*--------------------------------*- C++ -*----------------------------------*\
| =========                 |                                                 |
| \\      /  F ield         | OpenFOAM: The Open Source CFD Toolbox           |
|  \\    /   O peration     | Version:  dev                                   |
|   \\  /    A nd           | Web:      www.OpenFOAM.org                      |
|    \\/     M anipulation  |                                                 |
\*---------------------------------------------------------------------------*/
FoamFile
{
    version     2.0;
    format      ascii;
    class       volVectorField;
    location    "4.1";
    object      Force;
}
// * * * * * * * * * * * * * * * * * * * * * * * * * * * * * * * * * * * * * //

dimensions      [1 1 -2 0 0 0 0];

internalField   uniform (0 0 0);

boundaryField
{
    inlet
    {
        type            calculated;
        value           nonuniform 0();
    }
    outlet
    {
        type            calculated;
        value           nonuniform 0();
    }
    flap
    {
        type            calculated;
        value           nonuniform List<vector> 
33
(
(3.79455 1.83671e-40 -0.0359372)
(3.7868 6.37538e-19 -0.0670993)
(3.78696 -6.38572e-19 -0.0919685)
(3.79131 9.38088e-24 -0.111324)
(3.79079 1.2789e-18 -0.130841)
(3.77689 1.65165e-17 -0.153333)
(3.74481 1.26396e-18 -0.178622)
(3.6922 -6.15246e-22 -0.202788)
(3.61788 2.44456e-18 -0.222315)
(3.5196 6.64905e-23 -0.234503)
(3.39322 1.6386e-17 -0.237556)
(3.22789 1.08596e-21 -0.232109)
(3.00027 -1.47965e-23 -0.218306)
(2.65838 1.6064e-17 -0.193002)
(2.05893 1.39675e-18 -0.147431)
(0.0424035 -3.61355e-19 0.538098)
(0.0246086 -1.07719e-19 0.321546)
(0.00659278 -3.64953e-20 0.109784)
(-0.0979725 1.06185e-40 0.000902433)
(-0.0968341 -4.25722e-24 0.00148985)
(-0.0951936 -1.64607e-24 0.00198309)
(-0.0934256 -2.0663e-40 0.00232697)
(-0.091905 -2.15239e-42 0.00270027)
(-0.0909425 4.07055e-25 0.00319116)
(-0.0907701 -3.86576e-25 0.00381951)
(-0.0915317 1.6091e-17 0.00454574)
(-0.0931559 -4.15065e-42 0.00529999)
(-0.0953342 1.01019e-39 0.00600685)
(-0.0975129 -7.25664e-23 0.00660021)
(-0.0988903 -1.6291e-17 0.00704506)
(-0.0988661 3.17117e-24 0.00740045)
(-0.0950828 1.65575e-17 0.00745015)
(-0.0803285 9.18355e-41 0.00666154)
)
;
    }
    upperWall
    {
        type            calculated;
        value           nonuniform 0();
    }
    lowerWall
    {
        type            calculated;
        value           uniform (0 0 0);
    }
    frontAndBack
    {
        type            empty;
    }
    procBoundary4to1
    {
        type            processor;
        value           uniform (0 0 0);
    }
    procBoundary4to2
    {
        type            processor;
        value           uniform (0 0 0);
    }
    procBoundary4to3
    {
        type            processor;
        value           uniform (0 0 0);
    }
    procBoundary4to5
    {
        type            processor;
        value           uniform (0 0 0);
    }
}


// ************************************************************************* //
