/*--------------------------------*- C++ -*----------------------------------*\
| =========                 |                                                 |
| \\      /  F ield         | OpenFOAM: The Open Source CFD Toolbox           |
|  \\    /   O peration     | Version:  dev                                   |
|   \\  /    A nd           | Web:      www.OpenFOAM.org                      |
|    \\/     M anipulation  |                                                 |
\*---------------------------------------------------------------------------*/
FoamFile
{
    version     2.0;
    format      ascii;
    class       pointVectorField;
    location    "4.1";
    object      pointDisplacement;
}
// * * * * * * * * * * * * * * * * * * * * * * * * * * * * * * * * * * * * * //

dimensions      [0 1 0 0 0 0 0];

internalField   nonuniform List<vector> 
1062
(
(0.011563 0 0)
(0.0101087 0 0)
(0.00859762 0 0)
(0.00706674 0 0)
(0.00556089 0 0)
(0.00413353 0 0)
(0.00284812 0 0)
(0.00178245 0 0)
(0.00104644 0 0)
(0 0 0)
(0.0117192 0 0.000186265)
(0.0102836 0 0.000208941)
(0.00879201 0 0.000232998)
(0.00728151 0 0.000258422)
(0.00579731 0 0.000285434)
(0.00439399 0 0.000314683)
(0.00313725 0 0.000347321)
(0.00210799 0 0.000384311)
(0.00141522 0 0.000422387)
(0.000632179 0 0.000527289)
(0.0121843 0 0.000368214)
(0.0108042 0 0.000412821)
(0.00937045 0 0.000459887)
(0.00791973 0 0.000509079)
(0.00649772 0 0.000560241)
(0.00516079 0 0.000613551)
(0.00397808 0 0.000669419)
(0.00303396 0 0.00072727)
(0.00243082 0 0.000780624)
(0.00181463 0 0.000880694)
(0.0129488 0 0.000541595)
(0.0116601 0 0.000606772)
(0.0103206 0 0.000675073)
(0.00896595 0 0.000745464)
(0.00764067 0 0.00081671)
(0.00640082 0 0.000887349)
(0.00531554 0 0.000955381)
(0.00446729 0 0.00101727)
(0.00394746 0 0.00106551)
(0.00343977 0 0.00112194)
(0.0139971 0 0.000702385)
(0.0128337 0 0.000786358)
(0.0116231 0 0.000873844)
(0.0103975 0 0.00096291)
(0.0091983 0 0.00105093)
(0.00807749 0 0.00113441)
(0.00709957 0 0.00120874)
(0.00634089 0 0.00126806)
(0.00588484 0 0.00130619)
(0.00541093 0 0.0013236)
(0.0153074 0 0.000846888)
(0.0143015 0 0.000947624)
(0.0132522 0 0.00105226)
(0.0121873 0 0.00115807)
(0.0111416 0 0.00126123)
(0.01016 0 0.00135663)
(0.0092985 0 0.00143794)
(0.00862536 0 0.00149825)
(0.00822076 0 0.00153296)
(0.00773468 0 0.00153621)
(0.0168519 0 0.000971729)
(0.0160336 0 0.00108694)
(0.0151772 0 0.0012067)
(0.0143043 0 0.00132781)
(0.0134416 0 0.00144573)
(0.012624 0 0.00155457)
(0.0118968 0 0.00164729)
(0.0113198 0 0.0017168)
(0.0109731 0 0.00175864)
(0.0104748 0 0.00177596)
(0.0185971 0 0.00107382)
(0.017994 0 0.00120084)
(0.0173609 0 0.00133342)
(0.0167124 0 0.00146827)
(0.0160659 0 0.00160071)
(0.0154448 0 0.00172468)
(0.0148827 0 0.00183305)
(0.0144298 0 0.00191852)
(0.0141653 0 0.00197493)
(0.0136997 0 0.00202382)
(0.0205034 0 0.0011504)
(0.0201397 0 0.00128599)
(0.019758 0 0.00142842)
(0.0193664 0 0.00157466)
(0.0189728 0 0.00172028)
(0.0185883 0 0.00185934)
(0.0182327 0 0.00198456)
(0.0179442 0 0.00208774)
(0.0177956 0 0.00215964)
(0.0174163 0 0.00223939)
(0.0225245 0 0.00119913)
(0.022419 0 0.00133931)
(0.0223127 0 0.00148762)
(0.0222083 0 0.00164157)
(0.022105 0 0.00179724)
(0.0220012 0 0.00194885)
(0.0219002 0 0.00208853)
(0.0218218 0 0.00220617)
(0.021823 0 0.00228878)
(0.0215762 0 0.00238765)
(0.0246081 0 0.00121835)
(0.0247715 0 0.00135835)
(0.0249567 0 0.00150742)
(0.0251632 0 0.00166382)
(0.0253835 0 0.00182439)
(0.0256038 0 0.00198372)
(0.0258076 0 0.00213314)
(0.0259877 0 0.00225986)
(0.0261702 0 0.00234677)
(0.0260884 0 0.0024456)
(0.0266961 0 0.0012074)
(0.0271283 0 0.00134173)
(0.0276089 0 0.0014853)
(0.0281375 0 0.00163725)
(0.0287035 0 0.00179555)
(0.0292837 0 0.00195589)
(0.0298412 0 0.00210966)
(0.030332 0 0.00224171)
(0.0307313 0 0.00233009)
(0.0308349 0 0.00242016)
(0.0287279 0 0.00116696)
(0.0294147 0 0.00128973)
(0.0301779 0 0.00142064)
(0.03102 0 0.00155964)
(0.0319324 0 0.00170625)
(0.0328895 0 0.00185845)
(0.03384 0 0.00201021)
(0.0347011 0 0.00214691)
(0.0353732 0 0.0022411)
(0.0357216 0 0.00233101)
(0.0306437 0 0.00109932)
(0.0315555 0 0.00120476)
(0.0325679 0 0.00131556)
(0.033688 0 0.00143199)
(0.0349138 0 0.00155479)
(0.0362262 0 0.00168507)
(0.0375758 0 0.00182293)
(0.0388591 0 0.0019617)
(0.0398924 0 0.00207285)
(0.0406872 0 0.0021961)
(0.0323898 0 0.00100856)
(0.0334823 0 0.00109186)
(0.0346894 0 0.00117594)
(0.0360216 0 0.00126034)
(0.0374828 0 0.00134536)
(0.0390645 0 0.00143324)
(0.0407341 0 0.00153009)
(0.0424053 0 0.0016469)
(0.0438675 0 0.00177922)
(0.0456809 0 0.0020354)
(0.033935 0 0.000899459)
(0.035154 0 0.000957452)
(0.0364867 0 0.00101041)
(0.037942 0 0.00105591)
(0.0395222 0 0.00109103)
(0.0412192 0 0.0011122)
(0.0430062 0 0.00111435)
(0.0448206 0 0.00108651)
(0.0465159 0 0.00098712)
(0.0506836 0 0.00186202)
(0.011563 0 0)
(0.0101087 0 0)
(0.00859762 0 0)
(0.00706674 0 0)
(0.00556089 0 0)
(0.00413353 0 0)
(0.00284812 0 0)
(0.00178245 0 0)
(0.00104644 0 0)
(0 0 0)
(0.0117192 0 0.000186265)
(0.0102836 0 0.000208941)
(0.00879201 0 0.000232998)
(0.00728151 0 0.000258422)
(0.00579731 0 0.000285434)
(0.00439399 0 0.000314683)
(0.00313725 0 0.000347321)
(0.00210799 0 0.000384311)
(0.00141522 0 0.000422387)
(0.000632179 0 0.000527289)
(0.0121843 0 0.000368214)
(0.0108042 0 0.000412821)
(0.00937045 0 0.000459887)
(0.00791973 0 0.000509079)
(0.00649772 0 0.000560241)
(0.00516079 0 0.000613551)
(0.00397808 0 0.000669419)
(0.00303396 0 0.00072727)
(0.00243082 0 0.000780624)
(0.00181463 0 0.000880694)
(0.0129488 0 0.000541595)
(0.0116601 0 0.000606772)
(0.0103206 0 0.000675073)
(0.00896595 0 0.000745464)
(0.00764067 0 0.00081671)
(0.00640082 0 0.000887349)
(0.00531554 0 0.000955381)
(0.00446729 0 0.00101727)
(0.00394746 0 0.00106551)
(0.00343977 0 0.00112194)
(0.0139971 0 0.000702385)
(0.0128337 0 0.000786358)
(0.0116231 0 0.000873844)
(0.0103975 0 0.00096291)
(0.0091983 0 0.00105093)
(0.00807749 0 0.00113441)
(0.00709957 0 0.00120874)
(0.00634089 0 0.00126806)
(0.00588484 0 0.00130619)
(0.00541093 0 0.0013236)
(0.0153074 0 0.000846888)
(0.0143015 0 0.000947624)
(0.0132522 0 0.00105226)
(0.0121873 0 0.00115807)
(0.0111416 0 0.00126123)
(0.01016 0 0.00135663)
(0.0092985 0 0.00143794)
(0.00862536 0 0.00149825)
(0.00822076 0 0.00153296)
(0.00773468 0 0.00153621)
(0.0168519 0 0.000971729)
(0.0160336 0 0.00108694)
(0.0151772 0 0.0012067)
(0.0143043 0 0.00132781)
(0.0134416 0 0.00144573)
(0.012624 0 0.00155457)
(0.0118968 0 0.00164729)
(0.0113198 0 0.0017168)
(0.0109731 0 0.00175864)
(0.0104748 0 0.00177596)
(0.0185971 0 0.00107382)
(0.017994 0 0.00120084)
(0.0173609 0 0.00133342)
(0.0167124 0 0.00146827)
(0.0160659 0 0.00160071)
(0.0154448 0 0.00172468)
(0.0148827 0 0.00183305)
(0.0144298 0 0.00191852)
(0.0141653 0 0.00197493)
(0.0136997 0 0.00202382)
(0.0205034 0 0.0011504)
(0.0201397 0 0.00128599)
(0.019758 0 0.00142842)
(0.0193664 0 0.00157466)
(0.0189728 0 0.00172028)
(0.0185883 0 0.00185934)
(0.0182327 0 0.00198456)
(0.0179442 0 0.00208774)
(0.0177956 0 0.00215964)
(0.0174163 0 0.00223939)
(0.0225245 0 0.00119913)
(0.022419 0 0.00133931)
(0.0223127 0 0.00148762)
(0.0222083 0 0.00164157)
(0.022105 0 0.00179724)
(0.0220012 0 0.00194885)
(0.0219002 0 0.00208853)
(0.0218218 0 0.00220617)
(0.021823 0 0.00228878)
(0.0215762 0 0.00238765)
(0.0246081 0 0.00121835)
(0.0247715 0 0.00135835)
(0.0249567 0 0.00150742)
(0.0251632 0 0.00166382)
(0.0253835 0 0.00182439)
(0.0256038 0 0.00198372)
(0.0258076 0 0.00213314)
(0.0259877 0 0.00225986)
(0.0261702 0 0.00234677)
(0.0260884 0 0.0024456)
(0.0266961 0 0.0012074)
(0.0271283 0 0.00134173)
(0.0276089 0 0.0014853)
(0.0281375 0 0.00163725)
(0.0287035 0 0.00179555)
(0.0292837 0 0.00195589)
(0.0298412 0 0.00210966)
(0.030332 0 0.00224171)
(0.0307313 0 0.00233009)
(0.0308349 0 0.00242016)
(0.0287279 0 0.00116696)
(0.0294147 0 0.00128973)
(0.0301779 0 0.00142064)
(0.03102 0 0.00155964)
(0.0319324 0 0.00170625)
(0.0328895 0 0.00185845)
(0.03384 0 0.00201021)
(0.0347011 0 0.00214691)
(0.0353732 0 0.0022411)
(0.0357216 0 0.00233101)
(0.0306437 0 0.00109932)
(0.0315555 0 0.00120476)
(0.0325679 0 0.00131556)
(0.033688 0 0.00143199)
(0.0349138 0 0.00155479)
(0.0362262 0 0.00168507)
(0.0375758 0 0.00182293)
(0.0388591 0 0.0019617)
(0.0398924 0 0.00207285)
(0.0406872 0 0.0021961)
(0.0323898 0 0.00100856)
(0.0334823 0 0.00109186)
(0.0346894 0 0.00117594)
(0.0360216 0 0.00126034)
(0.0374828 0 0.00134536)
(0.0390645 0 0.00143324)
(0.0407341 0 0.00153009)
(0.0424053 0 0.0016469)
(0.0438675 0 0.00177922)
(0.0456809 0 0.0020354)
(0.033935 0 0.000899459)
(0.035154 0 0.000957452)
(0.0364867 0 0.00101041)
(0.037942 0 0.00105591)
(0.0395222 0 0.00109103)
(0.0412192 0 0.0011122)
(0.0430062 0 0.00111435)
(0.0448206 0 0.00108651)
(0.0465159 0 0.00098712)
(0.0506836 0 0.00186202)
(0 0 0)
(0.00110831 0 0)
(0.00192461 0 0)
(0.00312764 0 0)
(0.00460654 0 0)
(0.00626952 0 0)
(0.00803444 0 0)
(0.00982867 0 0)
(0.0115906 0 0)
(0.0132702 0 0)
(0.0148292 0 0)
(0.000644895 0 -0.000655082)
(0.00147589 0 -0.000559788)
(0.00225722 0 -0.000533309)
(0.00343018 0 -0.00050745)
(0.00488504 0 -0.000485141)
(0.0065269 0 -0.000464679)
(0.00827143 0 -0.000444262)
(0.010045 0 -0.000422891)
(0.011786 0 -0.0004003)
(0.0134448 0 -0.000376687)
(0.0149834 0 -0.000352479)
(0.00181101 0 -0.0011452)
(0.00248834 0 -0.00106039)
(0.00320359 0 -0.00102769)
(0.00431038 0 -0.000991381)
(0.00570524 0 -0.000955897)
(0.00728957 0 -0.000919869)
(0.00897562 0 -0.000881512)
(0.0106887 0 -0.000839994)
(0.0123675 0 -0.000795448)
(0.0139642 0 -0.000748619)
(0.0154424 0 -0.000700529)
(0.00342002 0 -0.00153274)
(0.00400155 0 -0.00149521)
(0.00466865 0 -0.0014751)
(0.00571003 0 -0.00144428)
(0.00703047 0 -0.00140588)
(0.00853208 0 -0.00136006)
(0.0101272 0 -0.00130675)
(0.0117426 0 -0.00124658)
(0.0133199 0 -0.0011809)
(0.0148146 0 -0.00111143)
(0.0161935 0 -0.00104001)
(0.00536884 0 -0.00188755)
(0.00593779 0 -0.00189601)
(0.00658613 0 -0.00189357)
(0.00757816 0 -0.00187399)
(0.00882153 0 -0.00183703)
(0.0102224 0 -0.00178403)
(0.0116979 0 -0.00171712)
(0.0131808 0 -0.00163901)
(0.0146191 0 -0.00155267)
(0.0159737 0 -0.0014611)
(0.0172166 0 -0.00136703)
(0.00766759 0 -0.00226324)
(0.00827629 0 -0.00229681)
(0.00892901 0 -0.00230599)
(0.00988366 0 -0.00229295)
(0.0110454 0 -0.00225444)
(0.0123265 0 -0.00219237)
(0.0136537 0 -0.0021107)
(0.0149698 0 -0.00201403)
(0.0162326 0 -0.00190698)
(0.0174113 0 -0.00179372)
(0.018484 0 -0.0016778)
(0.010378 0 -0.00268467)
(0.0110349 0 -0.00271625)
(0.0116972 0 -0.00272577)
(0.0126096 0 -0.0027087)
(0.013673 0 -0.00266082)
(0.0148078 0 -0.00258446)
(0.0159536 0 -0.00248483)
(0.0170675 0 -0.002368)
(0.0181196 0 -0.00223979)
(0.019089 0 -0.00210527)
(0.0199611 0 -0.00196853)
(0.0135629 0 -0.00314416)
(0.0142358 0 -0.00315239)
(0.0148926 0 -0.00315151)
(0.0157375 0 -0.00311943)
(0.0166699 0 -0.00305331)
(0.0176212 0 -0.0029564)
(0.0185475 0 -0.002835)
(0.0194225 0 -0.00269619)
(0.0202304 0 -0.00254654)
(0.020961 0 -0.00239154)
(0.0216066 0 -0.00223546)
(0.0172384 0 -0.00360949)
(0.0178757 0 -0.00358764)
(0.0184967 0 -0.0035697)
(0.0192319 0 -0.00351479)
(0.0199863 0 -0.00342336)
(0.0207076 0 -0.00330071)
(0.0213721 0 -0.00315452)
(0.0219721 0 -0.00299269)
(0.022506 0 -0.0028221)
(0.0229736 0 -0.00264817)
(0.0233734 0 -0.00247491)
(0.021361 0 -0.00404752)
(0.0219129 0 -0.00399881)
(0.0224581 0 -0.00396149)
(0.0230296 0 -0.00387965)
(0.0235489 0 -0.00375856)
(0.0239884 0 -0.00360707)
(0.024349 0 -0.00343493)
(0.0246419 0 -0.0032507)
(0.0248788 0 -0.00306107)
(0.0250672 0 -0.00287088)
(0.0252099 0 -0.00268349)
(0.0258393 0 -0.00442962)
(0.02627 0 -0.00436651)
(0.0266923 0 -0.00430912)
(0.0270363 0 -0.00419776)
(0.0272571 0 -0.00404455)
(0.0273632 0 -0.00386358)
(0.0273834 0 -0.00366687)
(0.0273466 0 -0.00346315)
(0.0272741 0 -0.00325824)
(0.0271779 0 -0.00305586)
(0.0270618 0 -0.00285836)
(0.0305629 0 -0.00475133)
(0.030844 0 -0.00467947)
(0.0310815 0 -0.00459788)
(0.0311218 0 -0.00445248)
(0.0309787 0 -0.00426575)
(0.0307081 0 -0.00405756)
(0.0303656 0 -0.003841)
(0.0299922 0 -0.00362356)
(0.0296131 0 -0.00340927)
(0.02924 0 -0.00320023)
(0.0288751 0 -0.00299761)
(0.0354364 0 -0.00502177)
(0.0355046 0 -0.00492907)
(0.035463 0 -0.00481047)
(0.0351086 0 -0.00462348)
(0.0345457 0 -0.00440462)
(0.0338773 0 -0.0041764)
(0.033175 0 -0.00394922)
(0.0324813 0 -0.00372714)
(0.0318173 0 -0.00351146)
(0.0311904 0 -0.00330253)
(0.0305983 0 -0.00310045)
(0.0403926 0 -0.00525148)
(0.0400441 0 -0.00509173)
(0.0395834 0 -0.00491306)
(0.0387511 0 -0.00468104)
(0.0377524 0 -0.00444168)
(0.03671 0 -0.00420948)
(0.0356891 0 -0.00398662)
(0.0347201 0 -0.00377207)
(0.0338143 0 -0.00356456)
(0.0329719 0 -0.00336319)
(0.0321858 0 -0.00316757)
(0.0453834 0 -0.00545509)
(0.0440127 0 -0.00508715)
(0.0430192 0 -0.00483426)
(0.0417255 0 -0.00458549)
(0.0403723 0 -0.00436111)
(0.039051 0 -0.00415315)
(0.0377991 0 -0.00395444)
(0.03663 0 -0.00376115)
(0.035545 0 -0.0035715)
(0.0345385 0 -0.00338482)
(0.0336006 0 -0.0032011)
(0.0503905 0 -0.00564605)
(0.0466391 0 -0.00444417)
(0.0452787 0 -0.00440413)
(0.0437692 0 -0.00429439)
(0.0422687 0 -0.00416074)
(0.0408264 0 -0.0040148)
(0.0394631 0 -0.00386078)
(0.0381854 0 -0.00370119)
(0.0369923 0 -0.0035377)
(0.0358782 0 -0.00337169)
(0.0348336 0 -0.00320448)
(0 0 0)
(0.00110831 0 0)
(0.00192461 0 0)
(0.00312764 0 0)
(0.00460654 0 0)
(0.00626952 0 0)
(0.00803444 0 0)
(0.00982867 0 0)
(0.0115906 0 0)
(0.0132702 0 0)
(0.0148292 0 0)
(0.000644895 0 -0.000655082)
(0.00147589 0 -0.000559788)
(0.00225722 0 -0.000533309)
(0.00343018 0 -0.00050745)
(0.00488504 0 -0.000485141)
(0.0065269 0 -0.000464679)
(0.00827143 0 -0.000444262)
(0.010045 0 -0.000422891)
(0.011786 0 -0.0004003)
(0.0134448 0 -0.000376687)
(0.0149834 0 -0.000352479)
(0.00181101 0 -0.0011452)
(0.00248834 0 -0.00106039)
(0.00320359 0 -0.00102769)
(0.00431038 0 -0.000991381)
(0.00570524 0 -0.000955897)
(0.00728957 0 -0.000919869)
(0.00897562 0 -0.000881512)
(0.0106887 0 -0.000839994)
(0.0123675 0 -0.000795448)
(0.0139642 0 -0.000748619)
(0.0154424 0 -0.000700529)
(0.00342002 0 -0.00153274)
(0.00400155 0 -0.00149521)
(0.00466865 0 -0.0014751)
(0.00571003 0 -0.00144428)
(0.00703047 0 -0.00140588)
(0.00853208 0 -0.00136006)
(0.0101272 0 -0.00130675)
(0.0117426 0 -0.00124658)
(0.0133199 0 -0.0011809)
(0.0148146 0 -0.00111143)
(0.0161935 0 -0.00104001)
(0.00536884 0 -0.00188755)
(0.00593779 0 -0.00189601)
(0.00658613 0 -0.00189357)
(0.00757816 0 -0.00187399)
(0.00882153 0 -0.00183703)
(0.0102224 0 -0.00178403)
(0.0116979 0 -0.00171712)
(0.0131808 0 -0.00163901)
(0.0146191 0 -0.00155267)
(0.0159737 0 -0.0014611)
(0.0172166 0 -0.00136703)
(0.00766759 0 -0.00226324)
(0.00827629 0 -0.00229681)
(0.00892901 0 -0.00230599)
(0.00988366 0 -0.00229295)
(0.0110454 0 -0.00225444)
(0.0123265 0 -0.00219237)
(0.0136537 0 -0.0021107)
(0.0149698 0 -0.00201403)
(0.0162326 0 -0.00190698)
(0.0174113 0 -0.00179372)
(0.018484 0 -0.0016778)
(0.010378 0 -0.00268467)
(0.0110349 0 -0.00271625)
(0.0116972 0 -0.00272577)
(0.0126096 0 -0.0027087)
(0.013673 0 -0.00266082)
(0.0148078 0 -0.00258446)
(0.0159536 0 -0.00248483)
(0.0170675 0 -0.002368)
(0.0181196 0 -0.00223979)
(0.019089 0 -0.00210527)
(0.0199611 0 -0.00196853)
(0.0135629 0 -0.00314416)
(0.0142358 0 -0.00315239)
(0.0148926 0 -0.00315151)
(0.0157375 0 -0.00311943)
(0.0166699 0 -0.00305331)
(0.0176212 0 -0.0029564)
(0.0185475 0 -0.002835)
(0.0194225 0 -0.00269619)
(0.0202304 0 -0.00254654)
(0.020961 0 -0.00239154)
(0.0216066 0 -0.00223546)
(0.0172384 0 -0.00360949)
(0.0178757 0 -0.00358764)
(0.0184967 0 -0.0035697)
(0.0192319 0 -0.00351479)
(0.0199863 0 -0.00342336)
(0.0207076 0 -0.00330071)
(0.0213721 0 -0.00315452)
(0.0219721 0 -0.00299269)
(0.022506 0 -0.0028221)
(0.0229736 0 -0.00264817)
(0.0233734 0 -0.00247491)
(0.021361 0 -0.00404752)
(0.0219129 0 -0.00399881)
(0.0224581 0 -0.00396149)
(0.0230296 0 -0.00387965)
(0.0235489 0 -0.00375856)
(0.0239884 0 -0.00360707)
(0.024349 0 -0.00343493)
(0.0246419 0 -0.0032507)
(0.0248788 0 -0.00306107)
(0.0250672 0 -0.00287088)
(0.0252099 0 -0.00268349)
(0.0258393 0 -0.00442962)
(0.02627 0 -0.00436651)
(0.0266923 0 -0.00430912)
(0.0270363 0 -0.00419776)
(0.0272571 0 -0.00404455)
(0.0273632 0 -0.00386358)
(0.0273834 0 -0.00366687)
(0.0273466 0 -0.00346315)
(0.0272741 0 -0.00325824)
(0.0271779 0 -0.00305586)
(0.0270618 0 -0.00285836)
(0.0305629 0 -0.00475133)
(0.030844 0 -0.00467947)
(0.0310815 0 -0.00459788)
(0.0311218 0 -0.00445248)
(0.0309787 0 -0.00426575)
(0.0307081 0 -0.00405756)
(0.0303656 0 -0.003841)
(0.0299922 0 -0.00362356)
(0.0296131 0 -0.00340927)
(0.02924 0 -0.00320023)
(0.0288751 0 -0.00299761)
(0.0354364 0 -0.00502177)
(0.0355046 0 -0.00492907)
(0.035463 0 -0.00481047)
(0.0351086 0 -0.00462348)
(0.0345457 0 -0.00440462)
(0.0338773 0 -0.0041764)
(0.033175 0 -0.00394922)
(0.0324813 0 -0.00372714)
(0.0318173 0 -0.00351146)
(0.0311904 0 -0.00330253)
(0.0305983 0 -0.00310045)
(0.0403926 0 -0.00525148)
(0.0400441 0 -0.00509173)
(0.0395834 0 -0.00491306)
(0.0387511 0 -0.00468104)
(0.0377524 0 -0.00444168)
(0.03671 0 -0.00420948)
(0.0356891 0 -0.00398662)
(0.0347201 0 -0.00377207)
(0.0338143 0 -0.00356456)
(0.0329719 0 -0.00336319)
(0.0321858 0 -0.00316757)
(0.0453834 0 -0.00545509)
(0.0440127 0 -0.00508715)
(0.0430192 0 -0.00483426)
(0.0417255 0 -0.00458549)
(0.0403723 0 -0.00436111)
(0.039051 0 -0.00415315)
(0.0377991 0 -0.00395444)
(0.03663 0 -0.00376115)
(0.035545 0 -0.0035715)
(0.0345385 0 -0.00338482)
(0.0336006 0 -0.0032011)
(0.0503905 0 -0.00564605)
(0.0466391 0 -0.00444417)
(0.0452787 0 -0.00440413)
(0.0437692 0 -0.00429439)
(0.0422687 0 -0.00416074)
(0.0408264 0 -0.0040148)
(0.0394631 0 -0.00386078)
(0.0381854 0 -0.00370119)
(0.0369923 0 -0.0035377)
(0.0358782 0 -0.00337169)
(0.0348336 0 -0.00320448)
(0.0352674 0 0.000776223)
(0.036556 0 0.000807685)
(0.0379422 0 0.000828177)
(0.0394277 0 0.000833064)
(0.0410055 0 0.000815611)
(0.0426559 0 0.000764727)
(0.0443393 0 0.000660442)
(0.045986 0 0.000463893)
(0.0474952 0 9.77619e-05)
(0.0487314 0 -0.000549458)
(0.0363764 0 0.00064384)
(0.0376834 0 0.000649536)
(0.0390618 0 0.000639356)
(0.0405048 0 0.000607304)
(0.0419958 0 0.000544911)
(0.0435027 0 0.00043967)
(0.0449732 0 0.000272983)
(0.0463306 0 1.76744e-05)
(0.047485 0 -0.000371009)
(0.0482671 0 -0.000910464)
(0.0372673 0 0.000507414)
(0.0385539 0 0.000489668)
(0.0398829 0 0.0004527)
(0.0412414 0 0.000390369)
(0.0426046 0 0.000294774)
(0.0439347 0 0.000155881)
(0.045179 0 -3.93702e-05)
(0.0462745 0 -0.000308414)
(0.0471546 0 -0.000679186)
(0.0476856 0 -0.0011234)
(0.0379579 0 0.000371252)
(0.0391982 0 0.000333351)
(0.0404531 0 0.000274662)
(0.0417048 0 0.000190044)
(0.0429254 0 7.33943e-05)
(0.0440791 0 -8.24734e-05)
(0.0451234 0 -0.000286237)
(0.0460116 0 -0.000548822)
(0.0466943 0 -0.000883843)
(0.0470822 0 -0.00124555)
(0.0396467 0 0.000184898)
(0.0408134 0 0.0001102)
(0.04195 0 1.10341e-05)
(0.0430315 0 -0.000117031)
(0.0440285 0 -0.000278946)
(0.0449082 0 -0.000479995)
(0.0456364 0 -0.000725588)
(0.0461791 0 -0.00101973)
(0.0464793 0 -0.00131575)
(0.042025 0 -0.000145494)
(0.0429811 0 -0.000278256)
(0.0438447 0 -0.000439148)
(0.0445912 0 -0.00063076)
(0.0451965 0 -0.000854686)
(0.0456389 0 -0.00110997)
(0.0458813 0 -0.00135509)
(0.043567 0 -0.00056831)
(0.0442063 0 -0.00074693)
(0.0447169 0 -0.000948257)
(0.0450856 0 -0.00116936)
(0.0452874 0 -0.00137497)
(0.0442108 0 -0.0010152)
(0.0445239 0 -0.00120716)
(0.0446955 0 -0.00138174)
(0.0352674 0 0.000776223)
(0.036556 0 0.000807685)
(0.0379422 0 0.000828177)
(0.0394277 0 0.000833064)
(0.0410055 0 0.000815611)
(0.0426559 0 0.000764727)
(0.0443393 0 0.000660442)
(0.045986 0 0.000463893)
(0.0474952 0 9.77619e-05)
(0.0487314 0 -0.000549458)
(0.0363764 0 0.00064384)
(0.0376834 0 0.000649536)
(0.0390618 0 0.000639356)
(0.0405048 0 0.000607304)
(0.0419958 0 0.000544911)
(0.0435027 0 0.00043967)
(0.0449732 0 0.000272983)
(0.0463306 0 1.76744e-05)
(0.047485 0 -0.000371009)
(0.0482671 0 -0.000910464)
(0.0372673 0 0.000507414)
(0.0385539 0 0.000489668)
(0.0398829 0 0.0004527)
(0.0412414 0 0.000390369)
(0.0426046 0 0.000294774)
(0.0439347 0 0.000155881)
(0.045179 0 -3.93702e-05)
(0.0462745 0 -0.000308414)
(0.0471546 0 -0.000679186)
(0.0476856 0 -0.0011234)
(0.0379579 0 0.000371252)
(0.0391982 0 0.000333351)
(0.0404531 0 0.000274662)
(0.0417048 0 0.000190044)
(0.0429254 0 7.33943e-05)
(0.0440791 0 -8.24734e-05)
(0.0451234 0 -0.000286237)
(0.0460116 0 -0.000548822)
(0.0466943 0 -0.000883843)
(0.0470822 0 -0.00124555)
(0.0396467 0 0.000184898)
(0.0408134 0 0.0001102)
(0.04195 0 1.10341e-05)
(0.0430315 0 -0.000117031)
(0.0440285 0 -0.000278946)
(0.0449082 0 -0.000479995)
(0.0456364 0 -0.000725588)
(0.0461791 0 -0.00101973)
(0.0464793 0 -0.00131575)
(0.042025 0 -0.000145494)
(0.0429811 0 -0.000278256)
(0.0438447 0 -0.000439148)
(0.0445912 0 -0.00063076)
(0.0451965 0 -0.000854686)
(0.0456389 0 -0.00110997)
(0.0458813 0 -0.00135509)
(0.043567 0 -0.00056831)
(0.0442063 0 -0.00074693)
(0.0447169 0 -0.000948257)
(0.0450856 0 -0.00116936)
(0.0452874 0 -0.00137497)
(0.0442108 0 -0.0010152)
(0.0445239 0 -0.00120716)
(0.0446955 0 -0.00138174)
(0.0505929 0 -0.000633511)
(0.0504939 0 -0.00314621)
(0.0493176 0 -0.00135757)
(0.0492948 0 -0.00218023)
(0.0487143 0 -0.00298096)
(0.048585 0 -0.00145958)
(0.0485867 0 -0.00196366)
(0.0482918 0 -0.00252523)
(0.0478742 0 -0.00151492)
(0.0478861 0 -0.00185065)
(0.0477323 0 -0.0022503)
(0.0472128 0 -0.00153737)
(0.0472285 0 -0.00177989)
(0.0471388 0 -0.00207531)
(0.0465804 0 -0.00154217)
(0.0465975 0 -0.00172728)
(0.0465399 0 -0.00195478)
(0.0459645 0 -0.00153653)
(0.0459819 0 -0.00168342)
(0.0459426 0 -0.00186468)
(0.0453582 0 -0.00152404)
(0.0453753 0 -0.00164396)
(0.0453476 0 -0.00179221)
(0.044757 0 -0.00150657)
(0.0447735 0 -0.00160655)
(0.0447534 0 -0.00173028)
(0.0441578 0 -0.00148514)
(0.0441735 0 -0.00156983)
(0.0441585 0 -0.00167469)
(0.0505929 0 -0.000633511)
(0.0504939 0 -0.00314621)
(0.0493176 0 -0.00135757)
(0.0492948 0 -0.00218023)
(0.0487143 0 -0.00298096)
(0.048585 0 -0.00145958)
(0.0485867 0 -0.00196366)
(0.0482918 0 -0.00252523)
(0.0478742 0 -0.00151492)
(0.0478861 0 -0.00185065)
(0.0477323 0 -0.0022503)
(0.0472128 0 -0.00153737)
(0.0472285 0 -0.00177989)
(0.0471388 0 -0.00207531)
(0.0465804 0 -0.00154217)
(0.0465975 0 -0.00172728)
(0.0465399 0 -0.00195478)
(0.0459645 0 -0.00153653)
(0.0459819 0 -0.00168342)
(0.0459426 0 -0.00186468)
(0.0453582 0 -0.00152404)
(0.0453753 0 -0.00164396)
(0.0453476 0 -0.00179221)
(0.044757 0 -0.00150657)
(0.0447735 0 -0.00160655)
(0.0447534 0 -0.00173028)
(0.0441578 0 -0.00148514)
(0.0441735 0 -0.00156983)
(0.0441585 0 -0.00167469)
(0.0476091 0 -0.00355866)
(0.0463221 0 -0.00381646)
(0.0449249 0 -0.00389757)
(0.0434946 0 -0.00388382)
(0.0420813 0 -0.00381711)
(0.0407162 0 -0.00371889)
(0.0394133 0 -0.00360069)
(0.0381773 0 -0.003469)
(0.0370074 0 -0.00332808)
(0.0475981 0 -0.00304569)
(0.0466053 0 -0.00336495)
(0.0454512 0 -0.00352851)
(0.0441986 0 -0.00359322)
(0.0429045 0 -0.00359219)
(0.0416116 0 -0.00354675)
(0.0403442 0 -0.00347048)
(0.0391157 0 -0.00337238)
(0.0379326 0 -0.00325874)
(0.0472768 0 -0.00268536)
(0.0465221 0 -0.00301116)
(0.0455876 0 -0.00321007)
(0.044526 0 -0.00331998)
(0.0433846 0 -0.00336498)
(0.0422031 0 -0.00336181)
(0.0410106 0 -0.00332252)
(0.0398263 0 -0.0032562)
(0.0386623 0 -0.00316958)
(0.0468227 0 -0.00242923)
(0.0462461 0 -0.00273175)
(0.0454897 0 -0.00294022)
(0.0445965 0 -0.00307392)
(0.043604 0 -0.00314854)
(0.0425456 0 -0.00317632)
(0.0414483 0 -0.00316694)
(0.0403324 0 -0.00312821)
(0.0392119 0 -0.0030663)
(0.0463093 0 -0.00224301)
(0.045861 0 -0.00251123)
(0.0452452 0 -0.00271335)
(0.0444931 0 -0.00285615)
(0.0436336 0 -0.00294813)
(0.0426931 0 -0.00299729)
(0.041695 0 -0.00301071)
(0.0406581 0 -0.00299454)
(0.0395966 0 -0.00295399)
(0.0457674 0 -0.00210205)
(0.0454114 0 -0.00233537)
(0.0449048 0 -0.002523)
(0.0442683 0 -0.00266523)
(0.0435232 0 -0.00276546)
(0.0426898 0 -0.00282818)
(0.0417868 0 -0.00285807)
(0.0408304 0 -0.00285956)
(0.039834 0 -0.00283679)
(0.0452102 0 -0.00199034)
(0.0449212 0 -0.00219219)
(0.044499 0 -0.0023623)
(0.0439563 0 -0.00249822)
(0.0433079 0 -0.00260032)
(0.0425686 0 -0.00267053)
(0.0417531 0 -0.00271153)
(0.0408743 0 -0.00272626)
(0.0399436 0 -0.00271776)
(0.0446428 0 -0.00189775)
(0.0444036 0 -0.00207253)
(0.0440468 0 -0.00222488)
(0.0435797 0 -0.00235155)
(0.043012 0 -0.00245135)
(0.0423542 0 -0.00252456)
(0.0416169 0 -0.00257237)
(0.0408103 0 -0.00259652)
(0.0399436 0 -0.00259903)
(0.0440673 0 -0.00181781)
(0.0438656 0 -0.00196967)
(0.0435598 0 -0.00210535)
(0.0431537 0 -0.0022216)
(0.0426531 0 -0.00231659)
(0.0420649 0 -0.00238965)
(0.0413966 0 -0.00244098)
(0.0406556 0 -0.00247137)
(0.0398491 0 -0.00248205)
(0.0434846 0 -0.00174629)
(0.0433115 0 -0.00187881)
(0.0430457 0 -0.00199935)
(0.0426887 0 -0.00210503)
(0.0422436 0 -0.00219385)
(0.0417145 0 -0.00226469)
(0.0411064 0 -0.0023171)
(0.0404242 0 -0.00235123)
(0.0396732 0 -0.00236767)
(0.0421925 0 -0.00199902)
(0.0417931 0 -0.00208107)
(0.0413139 0 -0.00214835)
(0.0407577 0 -0.00220011)
(0.0401276 0 -0.00223603)
(0.039427 0 -0.00225627)
(0.0408719 0 -0.00203932)
(0.0403602 0 -0.0020892)
(0.0397756 0 -0.00212545)
(0.0391202 0 -0.00214792)
(0.0393769 0 -0.00201902)
(0.0387616 0 -0.00204246)
(0.0476091 0 -0.00355866)
(0.0463221 0 -0.00381646)
(0.0449249 0 -0.00389757)
(0.0434946 0 -0.00388382)
(0.0420813 0 -0.00381711)
(0.0407162 0 -0.00371889)
(0.0394133 0 -0.00360069)
(0.0381773 0 -0.003469)
(0.0370074 0 -0.00332808)
(0.0475981 0 -0.00304569)
(0.0466053 0 -0.00336495)
(0.0454512 0 -0.00352851)
(0.0441986 0 -0.00359322)
(0.0429045 0 -0.00359219)
(0.0416116 0 -0.00354675)
(0.0403442 0 -0.00347048)
(0.0391157 0 -0.00337238)
(0.0379326 0 -0.00325874)
(0.0472768 0 -0.00268536)
(0.0465221 0 -0.00301116)
(0.0455876 0 -0.00321007)
(0.044526 0 -0.00331998)
(0.0433846 0 -0.00336498)
(0.0422031 0 -0.00336181)
(0.0410106 0 -0.00332252)
(0.0398263 0 -0.0032562)
(0.0386623 0 -0.00316958)
(0.0468227 0 -0.00242923)
(0.0462461 0 -0.00273175)
(0.0454897 0 -0.00294022)
(0.0445965 0 -0.00307392)
(0.043604 0 -0.00314854)
(0.0425456 0 -0.00317632)
(0.0414483 0 -0.00316694)
(0.0403324 0 -0.00312821)
(0.0392119 0 -0.0030663)
(0.0463093 0 -0.00224301)
(0.045861 0 -0.00251123)
(0.0452452 0 -0.00271335)
(0.0444931 0 -0.00285615)
(0.0436336 0 -0.00294813)
(0.0426931 0 -0.00299729)
(0.041695 0 -0.00301071)
(0.0406581 0 -0.00299454)
(0.0395966 0 -0.00295399)
(0.0457674 0 -0.00210205)
(0.0454114 0 -0.00233537)
(0.0449048 0 -0.002523)
(0.0442683 0 -0.00266523)
(0.0435232 0 -0.00276546)
(0.0426898 0 -0.00282818)
(0.0417868 0 -0.00285807)
(0.0408304 0 -0.00285956)
(0.039834 0 -0.00283679)
(0.0452102 0 -0.00199034)
(0.0449212 0 -0.00219219)
(0.044499 0 -0.0023623)
(0.0439563 0 -0.00249822)
(0.0433079 0 -0.00260032)
(0.0425686 0 -0.00267053)
(0.0417531 0 -0.00271153)
(0.0408743 0 -0.00272626)
(0.0399436 0 -0.00271776)
(0.0446428 0 -0.00189775)
(0.0444036 0 -0.00207253)
(0.0440468 0 -0.00222488)
(0.0435797 0 -0.00235155)
(0.043012 0 -0.00245135)
(0.0423542 0 -0.00252456)
(0.0416169 0 -0.00257237)
(0.0408103 0 -0.00259652)
(0.0399436 0 -0.00259903)
(0.0440673 0 -0.00181781)
(0.0438656 0 -0.00196967)
(0.0435598 0 -0.00210535)
(0.0431537 0 -0.0022216)
(0.0426531 0 -0.00231659)
(0.0420649 0 -0.00238965)
(0.0413966 0 -0.00244098)
(0.0406556 0 -0.00247137)
(0.0398491 0 -0.00248205)
(0.0434846 0 -0.00174629)
(0.0433115 0 -0.00187881)
(0.0430457 0 -0.00199935)
(0.0426887 0 -0.00210503)
(0.0422436 0 -0.00219385)
(0.0417145 0 -0.00226469)
(0.0411064 0 -0.0023171)
(0.0404242 0 -0.00235123)
(0.0396732 0 -0.00236767)
(0.0421925 0 -0.00199902)
(0.0417931 0 -0.00208107)
(0.0413139 0 -0.00214835)
(0.0407577 0 -0.00220011)
(0.0401276 0 -0.00223603)
(0.039427 0 -0.00225627)
(0.0408719 0 -0.00203932)
(0.0403602 0 -0.0020892)
(0.0397756 0 -0.00212545)
(0.0391202 0 -0.00214792)
(0.0393769 0 -0.00201902)
(0.0387616 0 -0.00204246)
)
;

boundaryField
{
    inlet
    {
        type            fixedValue;
        value           nonuniform 0();
    }
    outlet
    {
        type            fixedValue;
        value           nonuniform 0();
    }
    flap
    {
        type            fixedValue;
        value           nonuniform List<vector> 
68
(
(0 0 0)
(0.000632179 0 0.000527289)
(0.000632179 0 0.000527289)
(0 0 0)
(0.00181463 0 0.000880694)
(0.00181463 0 0.000880694)
(0.00343977 0 0.00112194)
(0.00343977 0 0.00112194)
(0.00541093 0 0.0013236)
(0.00541093 0 0.0013236)
(0.00773468 0 0.00153621)
(0.00773468 0 0.00153621)
(0.0104748 0 0.00177596)
(0.0104748 0 0.00177596)
(0.0136997 0 0.00202382)
(0.0136997 0 0.00202382)
(0.0174163 0 0.00223939)
(0.0174163 0 0.00223939)
(0.0215762 0 0.00238765)
(0.0215762 0 0.00238765)
(0.0260884 0 0.0024456)
(0.0260884 0 0.0024456)
(0.0308349 0 0.00242016)
(0.0308349 0 0.00242016)
(0.0357216 0 0.00233101)
(0.0357216 0 0.00233101)
(0.0406872 0 0.0021961)
(0.0406872 0 0.0021961)
(0.0456809 0 0.0020354)
(0.0456809 0 0.0020354)
(0.0506836 0 0.00186202)
(0.0506836 0 0.00186202)
(0.0505929 0 -0.000633511)
(0.0505929 0 -0.000633511)
(0.0504939 0 -0.00314621)
(0.0504939 0 -0.00314621)
(0.0503905 0 -0.00564605)
(0.0503905 0 -0.00564605)
(0 0 0)
(0 0 0)
(0.000644895 0 -0.000655082)
(0.000644895 0 -0.000655082)
(0.00181101 0 -0.0011452)
(0.00181101 0 -0.0011452)
(0.00342002 0 -0.00153274)
(0.00342002 0 -0.00153274)
(0.00536884 0 -0.00188755)
(0.00536884 0 -0.00188755)
(0.00766759 0 -0.00226324)
(0.00766759 0 -0.00226324)
(0.010378 0 -0.00268467)
(0.010378 0 -0.00268467)
(0.0135629 0 -0.00314416)
(0.0135629 0 -0.00314416)
(0.0172384 0 -0.00360949)
(0.0172384 0 -0.00360949)
(0.021361 0 -0.00404752)
(0.021361 0 -0.00404752)
(0.0258393 0 -0.00442962)
(0.0258393 0 -0.00442962)
(0.0305629 0 -0.00475133)
(0.0305629 0 -0.00475133)
(0.0354364 0 -0.00502177)
(0.0354364 0 -0.00502177)
(0.0403926 0 -0.00525148)
(0.0403926 0 -0.00525148)
(0.0453834 0 -0.00545509)
(0.0453834 0 -0.00545509)
)
;
    }
    upperWall
    {
        type            slip;
    }
    lowerWall
    {
        type            slip;
    }
    frontAndBack
    {
        type            empty;
    }