/*--------------------------------*- C++ -*----------------------------------*\
| =========                 |                                                 |
| \\      /  F ield         | OpenFOAM: The Open Source CFD Toolbox           |
|  \\    /   O peration     | Version:  dev                                   |
|   \\  /    A nd           | Web:      www.OpenFOAM.org                      |
|    \\/     M anipulation  |                                                 |
\*---------------------------------------------------------------------------*/
FoamFile
{
    version     2.0;
    format      ascii;
    class       volVectorField;
    location    "0.99";
    object      Force;
}
// * * * * * * * * * * * * * * * * * * * * * * * * * * * * * * * * * * * * * //

dimensions      [1 1 -2 0 0 0 0];

internalField   uniform (0 0 0);

boundaryField
{
    inlet
    {
        type            calculated;
        value           uniform (0 0 0);
    }
    outlet
    {
        type            calculated;
        value           uniform (0 0 0);
    }
    flap
    {
        type            calculated;
        value           nonuniform List<vector> 
33
(
(4.67455 1.89533e-17 -0.247718)
(4.62665 5.61208e-17 -0.589861)
(4.54152 -8.07048e-22 -0.92504)
(4.4149 1.82321e-17 -1.19627)
(4.25937 9.40395e-38 -1.40278)
(4.09011 -1.30866e-39 -1.55061)
(3.91772 -1.41059e-37 -1.65011)
(3.7498 -1.09504e-17 -1.71043)
(3.58667 -4.79939e-21 -1.73822)
(3.42689 2.82119e-37 -1.73685)
(3.26927 4.44896e-21 -1.70857)
(3.10608 -2.04405e-22 -1.65459)
(2.92447 -8.97741e-18 -1.57359)
(2.70419 9.40395e-38 -1.45805)
(2.4025 7.39517e-18 -1.29757)
(-0.103627 1.09479e-17 -0.193564)
(-0.224431 -8.82156e-18 -0.413346)
(-0.346907 9.86877e-19 -0.636239)
(-1.71476 -4.84575e-23 0.0918988)
(-1.71344 2.49243e-18 0.219131)
(-1.7088 1.64345e-17 0.349764)
(-1.70231 -1.42298e-17 0.462632)
(-1.69506 -1.91407e-21 0.560095)
(-1.68812 -2.12534e-21 0.642287)
(-1.68209 5.07578e-18 0.710861)
(-1.67586 0 0.767389)
(-1.66984 5.11076e-18 0.812828)
(-1.66437 -5.12013e-18 0.847507)
(-1.65839 -5.1143e-18 0.871382)
(-1.65162 1.62192e-17 0.885222)
(-1.64362 1.67603e-17 0.890357)
(-1.63258 1.8143e-17 0.887228)
(-1.61442 2.2334e-17 0.879551)
)
;
    }
    upperWall
    {
        type            calculated;
        value           uniform (0 0 0);
    }
    lowerWall
    {
        type            calculated;
        value           uniform (0 0 0);
    }
    frontAndBack
    {
        type            empty;
    }
}


// ************************************************************************* //
