/*--------------------------------*- C++ -*----------------------------------*\
| =========                 |                                                 |
| \\      /  F ield         | OpenFOAM: The Open Source CFD Toolbox           |
|  \\    /   O peration     | Version:  dev                                   |
|   \\  /    A nd           | Web:      www.OpenFOAM.org                      |
|    \\/     M anipulation  |                                                 |
\*---------------------------------------------------------------------------*/
FoamFile
{
    version     2.0;
    format      ascii;
    class       volVectorField;
    location    "1.62";
    object      cellDisplacement;
}
// * * * * * * * * * * * * * * * * * * * * * * * * * * * * * * * * * * * * * //

dimensions      [0 1 0 0 0 0 0];

internalField   nonuniform List<vector> 
2790
(
(0.0124793 0 -6.76516e-05)
(0.0355671 0 -0.000193174)
(0.0551407 0 -0.000302335)
(0.071523 0 -0.000398039)
(0.0850684 0 -0.000482815)
(0.0960835 0 -0.000558408)
(0.104833 0 -0.000625956)
(0.111547 0 -0.000686096)
(0.116424 0 -0.000739134)
(0.119636 0 -0.000786891)
(0.121335 0 -0.000825559)
(0.12166 0 -0.000856317)
(0.120729 0 -0.000878547)
(0.118647 0 -0.000891145)
(0.115509 0 -0.000892716)
(0.111401 0 -0.000881573)
(0.106403 0 -0.00085569)
(0.100593 0 -0.000812658)
(0.0940433 0 -0.000749641)
(0.0868311 0 -0.000663345)
(0.0790353 0 -0.000550023)
(0.0707406 0 -0.000405175)
(0.0620402 0 -0.000223566)
(0.0530427 0 6.71908e-07)
(0.0438805 0 0.00027393)
(0.0347246 0 0.000603143)
(0.0258187 0 0.000996648)
(0.0175783 0 0.00146591)
(0.010682 0 0.00200822)
(0.00677682 0 0.00254477)
(0.0124964 0 -0.000203284)
(0.0356177 0 -0.000580546)
(0.0552232 0 -0.000908793)
(0.0716372 0 -0.00119667)
(0.0852165 0 -0.00145186)
(0.0962688 0 -0.00167958)
(0.10506 0 -0.0018833)
(0.111818 0 -0.00206492)
(0.116747 0 -0.00222477)
(0.120012 0 -0.00236263)
(0.121773 0 -0.00247894)
(0.122168 0 -0.00257223)
(0.121318 0 -0.00264033)
(0.119327 0 -0.00267995)
(0.116292 0 -0.002687)
(0.112301 0 -0.00265656)
(0.107438 0 -0.00258274)
(0.101781 0 -0.00245852)
(0.0954085 0 -0.00227568)
(0.0884011 0 -0.00202466)
(0.0808455 0 -0.00169488)
(0.0728351 0 -0.00127344)
(0.064476 0 -0.000745349)
(0.0558949 0 -9.38464e-05)
(0.0472521 0 0.000699208)
(0.0387544 0 0.00165291)
(0.0306523 0 0.00278845)
(0.0233904 0 0.00411258)
(0.0178167 0 0.00559225)
(0.0159937 0 0.006935)
(0.0125308 0 -0.000339019)
(0.0357199 0 -0.000968321)
(0.0553887 0 -0.00151621)
(0.0718652 0 -0.00199684)
(0.0855118 0 -0.00242323)
(0.0966376 0 -0.00280413)
(0.105509 0 -0.00314539)
(0.112357 0 -0.00345034)
(0.117382 0 -0.00371898)
(0.120758 0 -0.0039491)
(0.122646 0 -0.00414632)
(0.123183 0 -0.0043059)
(0.122492 0 -0.00442467)
(0.120682 0 -0.00449725)
(0.117853 0 -0.00451711)
(0.114097 0 -0.00447647)
(0.109502 0 -0.00436602)
(0.104152 0 -0.00417477)
(0.0981326 0 -0.00388979)
(0.0915308 0 -0.003496)
(0.0844489 0 -0.00297812)
(0.076996 0 -0.00231649)
(0.069297 0 -0.00148881)
(0.0615056 0 -0.000470732)
(0.0538266 0 0.000762277)
(0.0465619 0 0.00222984)
(0.0400811 0 0.00394157)
(0.034874 0 0.00587736)
(0.0317204 0 0.00794935)
(0.0333563 0 0.00952148)
(0.0125818 0 -0.000474216)
(0.0358722 0 -0.00135466)
(0.0556351 0 -0.00212183)
(0.0722034 0 -0.00279481)
(0.0859502 0 -0.00339243)
(0.0971851 0 -0.00392692)
(0.106177 0 -0.00440663)
(0.113157 0 -0.00483684)
(0.118328 0 -0.00521717)
(0.12187 0 -0.0055483)
(0.123945 0 -0.00583175)
(0.124691 0 -0.00606323)
(0.124238 0 -0.00624018)
(0.122697 0 -0.00635506)
(0.120173 0 -0.00639934)
(0.116764 0 -0.00636309)
(0.112565 0 -0.00623437)
(0.10767 0 -0.00599918)
(0.102174 0 -0.00564131)
(0.0961685 0 -0.00514039)
(0.0897871 0 -0.00448159)
(0.0831609 0 -0.0036409)
(0.0764443 0 -0.00259315)
(0.069827 0 -0.00131242)
(0.063554 0 0.000225456)
(0.0579783 0 0.00203019)
(0.0536529 0 0.00407355)
(0.0513928 0 0.00625355)
(0.0519864 0 0.00838623)
(0.0579741 0 0.00947879)
(0.0126484 0 -0.000609383)
(0.0360741 0 -0.00174107)
(0.05596 0 -0.00272544)
(0.0726477 0 -0.00359033)
(0.0865269 0 -0.00435947)
(0.0979056 0 -0.00504837)
(0.107056 0 -0.00566795)
(0.11421 0 -0.00622656)
(0.119573 0 -0.00672186)
(0.123333 0 -0.00715739)
(0.125652 0 -0.00753307)
(0.126672 0 -0.00784295)
(0.12653 0 -0.00808795)
(0.125341 0 -0.00825748)
(0.123215 0 -0.00834179)
(0.120261 0 -0.00832985)
(0.116581 0 -0.0082082)
(0.112281 0 -0.00796138)
(0.107476 0 -0.00757294)
(0.10227 0 -0.00702108)
(0.0967953 0 -0.00628333)
(0.0912339 0 -0.00534199)
(0.0857717 0 -0.00417395)
(0.080643 0 -0.00275897)
(0.0762162 0 -0.00109857)
(0.0728678 0 0.000799698)
(0.0712149 0 0.00287355)
(0.0722896 0 0.00491465)
(0.0775453 0 0.00647828)
(0.0887892 0 0.00635142)
(0.0127294 0 -0.000744307)
(0.0363055 0 -0.0021264)
(0.0563445 0 -0.00332835)
(0.0731951 0 -0.00438667)
(0.0872397 0 -0.00532885)
(0.0987965 0 -0.00617416)
(0.108144 0 -0.00693598)
(0.115509 0 -0.00762145)
(0.121106 0 -0.00823532)
(0.125133 0 -0.00878054)
(0.127753 0 -0.00925684)
(0.129119 0 -0.00966137)
(0.129361 0 -0.00998783)
(0.128604 0 -0.0102276)
(0.126967 0 -0.0103711)
(0.124568 0 -0.0104076)
(0.121522 0 -0.0103231)
(0.117944 0 -0.0101015)
(0.11397 0 -0.00972863)
(0.109735 0 -0.00918563)
(0.105365 0 -0.00844391)
(0.101101 0 -0.00749964)
(0.0971699 0 -0.00633783)
(0.0938436 0 -0.00494799)
(0.0915238 0 -0.00335002)
(0.0907862 0 -0.00161552)
(0.0923756 0 0.000119763)
(0.0972168 0 0.00159067)
(0.107455 0 0.00202303)
(0.124761 0 -4.69415e-05)
(0.0128243 0 -0.000878175)
(0.036582 0 -0.00250934)
(0.0568029 0 -0.00393041)
(0.0738423 0 -0.00518288)
(0.0880825 0 -0.00629951)
(0.0998489 0 -0.00730335)
(0.109422 0 -0.00820989)
(0.117037 0 -0.0090264)
(0.122918 0 -0.00976482)
(0.127261 0 -0.0104264)
(0.130237 0 -0.0110126)
(0.132006 0 -0.011523)
(0.132698 0 -0.0119446)
(0.132447 0 -0.0122722)
(0.13138 0 -0.0124963)
(0.129631 0 -0.0126087)
(0.127324 0 -0.0125956)
(0.124581 0 -0.0124404)
(0.121573 0 -0.0121373)
(0.118454 0 -0.0116683)
(0.11539 0 -0.0110159)
(0.112612 0 -0.0101729)
(0.110422 0 -0.00914741)
(0.109174 0 -0.00795829)
(0.109311 0 -0.00665423)
(0.11148 0 -0.00535128)
(0.116627 0 -0.00429757)
(0.125965 0 -0.00391181)
(0.141264 0 -0.00507496)
(0.164958 0 -0.00971711)
(0.0129326 0 -0.00101083)
(0.0368999 0 -0.00288924)
(0.0573281 0 -0.00452793)
(0.0745805 0 -0.00597403)
(0.0890435 0 -0.00726549)
(0.101049 0 -0.00842928)
(0.110882 0 -0.00948379)
(0.118788 0 -0.0104404)
(0.124992 0 -0.0113095)
(0.129693 0 -0.0120943)
(0.133072 0 -0.0127988)
(0.135289 0 -0.0134205)
(0.136488 0 -0.0139518)
(0.136809 0 -0.0143863)
(0.136384 0 -0.0147141)
(0.13537 0 -0.0149341)
(0.133901 0 -0.015033)
(0.132125 0 -0.0150006)
(0.130203 0 -0.0148258)
(0.128326 0 -0.014502)
(0.12672 0 -0.0140294)
(0.125603 0 -0.013402)
(0.125358 0 -0.0126579)
(0.126377 0 -0.011839)
(0.129197 0 -0.0110418)
(0.13463 0 -0.0104683)
(0.143557 0 -0.0104073)
(0.157753 0 -0.0115539)
(0.178404 0 -0.0148039)
(0.208485 0 -0.0224827)
(0.0130532 0 -0.00114207)
(0.0372552 0 -0.00326547)
(0.0579142 0 -0.0051202)
(0.0754029 0 -0.00675932)
(0.090114 0 -0.00822603)
(0.102386 0 -0.0095513)
(0.11251 0 -0.0107568)
(0.120739 0 -0.0118569)
(0.1273 0 -0.0128622)
(0.132396 0 -0.0137766)
(0.136222 0 -0.0146093)
(0.138937 0 -0.0153565)
(0.140697 0 -0.0160142)
(0.141652 0 -0.0165778)
(0.141953 0 -0.0170424)
(0.141748 0 -0.0174024)
(0.141194 0 -0.0176511)
(0.140475 0 -0.0177894)
(0.139741 0 -0.0178032)
(0.139212 0 -0.0176971)
(0.139167 0 -0.0174915)
(0.139876 0 -0.0172009)
(0.141732 0 -0.0168783)
(0.145228 0 -0.0166155)
(0.150957 0 -0.0165488)
(0.159795 0 -0.0169484)
(0.172913 0 -0.0182529)
(0.19179 0 -0.0211963)
(0.218301 0 -0.0270342)
(0.254503 0 -0.0380165)
(0.0131849 0 -0.00127166)
(0.0376441 0 -0.00363738)
(0.0585558 0 -0.00570638)
(0.0763025 0 -0.00753778)
(0.0912849 0 -0.00918005)
(0.103849 0 -0.0106683)
(0.114291 0 -0.0120277)
(0.122872 0 -0.0132754)
(0.129822 0 -0.0144234)
(0.135361 0 -0.0154815)
(0.139675 0 -0.0164538)
(0.142931 0 -0.0173401)
(0.1453 0 -0.0181409)
(0.146942 0 -0.0188544)
(0.148021 0 -0.0194805)
(0.148686 0 -0.0200113)
(0.149104 0 -0.0204452)
(0.149491 0 -0.0207952)
(0.150036 0 -0.0210606)
(0.150972 0 -0.0212548)
(0.152593 0 -0.0214082)
(0.155228 0 -0.0215636)
(0.159311 0 -0.0218012)
(0.165397 0 -0.0222521)
(0.174201 0 -0.0231255)
(0.186639 0 -0.0247477)
(0.20407 0 -0.0276968)
(0.227841 0 -0.0327747)
(0.260473 0 -0.0415807)
(0.302224 0 -0.055895)
(0.0133276 0 -0.00139999)
(0.0380655 0 -0.00400606)
(0.0592506 0 -0.00628826)
(0.0772765 0 -0.00831188)
(0.0925524 0 -0.0101307)
(0.105432 0 -0.011784)
(0.11622 0 -0.0133005)
(0.125181 0 -0.0147004)
(0.132555 0 -0.0159983)
(0.138565 0 -0.0172078)
(0.143396 0 -0.0183289)
(0.147229 0 -0.0193666)
(0.150246 0 -0.0203265)
(0.152613 0 -0.0212086)
(0.154494 0 -0.0220126)
(0.156081 0 -0.022747)
(0.157552 0 -0.0234147)
(0.159108 0 -0.0240248)
(0.160985 0 -0.0245973)
(0.16344 0 -0.0251577)
(0.1668 0 -0.0257571)
(0.171432 0 -0.026461)
(0.177805 0 -0.0273777)
(0.186585 0 -0.0287006)
(0.198494 0 -0.0306726)
(0.214712 0 -0.03376)
(0.236426 0 -0.0385553)
(0.265573 0 -0.0461521)
(0.304403 0 -0.0581916)
(0.350879 0 -0.0756314)
(0.0134802 0 -0.00152675)
(0.0385155 0 -0.00437058)
(0.0599922 0 -0.00686444)
(0.0783157 0 -0.00907975)
(0.0939044 0 -0.0110755)
(0.107121 0 -0.0128954)
(0.118276 0 -0.014572)
(0.127642 0 -0.016128)
(0.13546 0 -0.0175803)
(0.141957 0 -0.018942)
(0.147331 0 -0.0202209)
(0.151767 0 -0.0214212)
(0.155463 0 -0.0225563)
(0.158591 0 -0.023628)
(0.161335 0 -0.0246437)
(0.163883 0 -0.025612)
(0.166439 0 -0.0265471)
(0.16919 0 -0.0274567)
(0.172437 0 -0.0283879)
(0.176455 0 -0.0293802)
(0.181589 0 -0.0304995)
(0.188251 0 -0.0318423)
(0.196975 0 -0.0335564)
(0.208434 0 -0.0358641)
(0.22358 0 -0.0391227)
(0.243484 0 -0.0438099)
(0.269728 0 -0.0507247)
(0.30461 0 -0.0611733)
(0.349502 0 -0.0765721)
(0.39969 0 -0.0967374)
(0.0136397 0 -0.00165087)
(0.0389868 0 -0.00472808)
(0.0607699 0 -0.00743049)
(0.079406 0 -0.00983558)
(0.0953224 0 -0.0120075)
(0.108892 0 -0.0139942)
(0.120434 0 -0.0158328)
(0.130221 0 -0.0175479)
(0.138502 0 -0.0191591)
(0.145506 0 -0.0206799)
(0.151448 0 -0.0221268)
(0.156526 0 -0.0235087)
(0.160929 0 -0.0248345)
(0.164842 0 -0.0261136)
(0.168469 0 -0.0273615)
(0.17199 0 -0.0285861)
(0.17562 0 -0.0298093)
(0.17962 0 -0.0310683)
(0.184249 0 -0.0324024)
(0.18983 0 -0.0338758)
(0.196732 0 -0.035576)
(0.205414 0 -0.0376292)
(0.21646 0 -0.0402231)
(0.230606 0 -0.0436286)
(0.248868 0 -0.048265)
(0.272446 0 -0.054705)
(0.303369 0 -0.0639652)
(0.343785 0 -0.0773739)
(0.394213 0 -0.0960546)
(0.447392 0 -0.118618)
(0.0138044 0 -0.00177203)
(0.0394751 0 -0.00507762)
(0.061577 0 -0.00798504)
(0.0805381 0 -0.0105776)
(0.0967943 0 -0.0129245)
(0.11073 0 -0.0150776)
(0.122674 0 -0.0170798)
(0.132899 0 -0.018957)
(0.141658 0 -0.0207318)
(0.149198 0 -0.0224244)
(0.155733 0 -0.0240495)
(0.161467 0 -0.0256227)
(0.166582 0 -0.0271487)
(0.171288 0 -0.028648)
(0.175781 0 -0.0301362)
(0.180286 0 -0.0316407)
(0.185031 0 -0.0331907)
(0.190272 0 -0.034828)
(0.196252 0 -0.0365938)
(0.203378 0 -0.0385912)
(0.212004 0 -0.0409139)
(0.222631 0 -0.0437224)
(0.235888 0 -0.0472411)
(0.252575 0 -0.0517934)
(0.273718 0 -0.0578417)
(0.30082 0 -0.0661173)
(0.335898 0 -0.077701)
(0.38095 0 -0.0939201)
(0.435728 0 -0.115536)
(0.491286 0 -0.140246)
(0.013973 0 -0.0018899)
(0.0399767 0 -0.00541831)
(0.0624074 0 -0.0085267)
(0.0817046 0 -0.0113042)
(0.0983095 0 -0.0138245)
(0.11263 0 -0.0161476)
(0.124992 0 -0.0183156)
(0.135667 0 -0.0203574)
(0.144924 0 -0.0223009)
(0.15301 0 -0.0241702)
(0.160134 0 -0.0259763)
(0.166514 0 -0.0277409)
(0.172342 0 -0.0294754)
(0.177845 0 -0.0312083)
(0.183231 0 -0.0329623)
(0.188717 0 -0.0347643)
(0.194551 0 -0.036657)
(0.200963 0 -0.0386785)
(0.208295 0 -0.0409127)
(0.216916 0 -0.0434605)
(0.227155 0 -0.0464206)
(0.239606 0 -0.0500033)
(0.2549 0 -0.0544572)
(0.273839 0 -0.0601375)
(0.297544 0 -0.0675804)
(0.327471 0 -0.0775551)
(0.365537 0 -0.0911786)
(0.413432 0 -0.109755)
(0.469795 0 -0.133539)
(0.527276 0 -0.160501)
(0.010419 0 -0.00367586)
(0.025243 0 -0.00478324)
(0.0624587 0 -0.00663673)
(0.12801 0 -0.00895481)
(0.207149 0 -0.0109144)
(0.274362 0 -0.0117535)
(0.321216 0 -0.0118721)
(0.352326 0 -0.011575)
(0.372919 0 -0.0111224)
(0.386317 0 -0.0105522)
(0.394509 0 -0.00990766)
(0.398728 0 -0.00924382)
(0.399707 0 -0.00859247)
(0.397861 0 -0.00796572)
(0.393434 0 -0.00736865)
(0.386563 0 -0.00680275)
(0.377316 0 -0.00626722)
(0.365714 0 -0.00575981)
(0.351745 0 -0.00527739)
(0.335372 0 -0.00481628)
(0.316541 0 -0.00437238)
(0.295184 0 -0.00394129)
(0.271226 0 -0.0035183)
(0.244582 0 -0.00309836)
(0.215165 0 -0.00267605)
(0.182885 0 -0.0022454)
(0.14765 0 -0.00179976)
(0.10937 0 -0.00133155)
(0.0679742 0 -0.000832131)
(0.0232209 0 -0.000288872)
(0.0179038 0 -0.011357)
(0.0345551 0 -0.0147783)
(0.0734453 0 -0.0202043)
(0.139129 0 -0.0269196)
(0.21596 0 -0.03229)
(0.280269 0 -0.0345705)
(0.325179 0 -0.0348658)
(0.355142 0 -0.0340589)
(0.375019 0 -0.0327475)
(0.387918 0 -0.0310708)
(0.395758 0 -0.0291573)
(0.399731 0 -0.0272325)
(0.400526 0 -0.025342)
(0.398537 0 -0.0235189)
(0.393996 0 -0.0217782)
(0.387032 0 -0.0201248)
(0.37771 0 -0.0185569)
(0.366046 0 -0.0170683)
(0.352026 0 -0.0156502)
(0.33561 0 -0.0142923)
(0.316743 0 -0.0129829)
(0.295358 0 -0.0117091)
(0.271375 0 -0.0104574)
(0.24471 0 -0.00921303)
(0.215276 0 -0.00796009)
(0.182979 0 -0.00668105)
(0.14773 0 -0.00535631)
(0.109434 0 -0.00396347)
(0.0680198 0 -0.00247709)
(0.0232403 0 -0.000859887)
(0.0322703 0 -0.0198436)
(0.0523515 0 -0.0257761)
(0.094206 0 -0.0347535)
(0.159797 0 -0.0451302)
(0.23223 0 -0.0528615)
(0.291431 0 -0.0561176)
(0.332835 0 -0.0564212)
(0.36064 0 -0.055142)
(0.379115 0 -0.053037)
(0.391035 0 -0.0503079)
(0.398203 0 -0.0472683)
(0.4017 0 -0.0442127)
(0.402132 0 -0.0412062)
(0.39986 0 -0.0382982)
(0.395092 0 -0.0355133)
(0.387945 0 -0.0328605)
(0.378473 0 -0.0303373)
(0.366687 0 -0.027935)
(0.352565 0 -0.0256404)
(0.336065 0 -0.0234374)
(0.317129 0 -0.0213077)
(0.295685 0 -0.0192313)
(0.271654 0 -0.0171866)
(0.244949 0 -0.0151499)
(0.215479 0 -0.0130956)
(0.183153 0 -0.0109955)
(0.147874 0 -0.00881772)
(0.109549 0 -0.00652593)
(0.0681004 0 -0.0040788)
(0.0232735 0 -0.00141568)
(0.0530615 0 -0.0296807)
(0.0775002 0 -0.0382186)
(0.123011 0 -0.0506756)
(0.187715 0 -0.0638544)
(0.254147 0 -0.0728581)
(0.306839 0 -0.0765414)
(0.343664 0 -0.0766825)
(0.368524 0 -0.0748568)
(0.384996 0 -0.0718949)
(0.39554 0 -0.0682035)
(0.401762 0 -0.0642031)
(0.404563 0 -0.0601443)
(0.404464 0 -0.0561403)
(0.401774 0 -0.0522566)
(0.396673 0 -0.0485266)
(0.389257 0 -0.044963)
(0.379566 0 -0.0415635)
(0.367599 0 -0.0383171)
(0.353328 0 -0.0352072)
(0.336705 0 -0.0322131)
(0.317667 0 -0.0293111)
(0.296138 0 -0.0264747)
(0.272037 0 -0.0236751)
(0.245273 0 -0.020881)
(0.215753 0 -0.0180576)
(0.183383 0 -0.0151668)
(0.148064 0 -0.0121656)
(0.109698 0 -0.0090045)
(0.0682017 0 -0.00562763)
(0.0233138 0 -0.00195263)
(0.0795845 0 -0.0412494)
(0.10892 0 -0.0525187)
(0.158037 0 -0.0680665)
(0.220682 0 -0.0830491)
(0.279909 0 -0.0923591)
(0.325352 0 -0.095856)
(0.356986 0 -0.0956068)
(0.378334 0 -0.0931599)
(0.392369 0 -0.0893187)
(0.401258 0 -0.0847779)
(0.406297 0 -0.0799137)
(0.408216 0 -0.0749719)
(0.407437 0 -0.0700884)
(0.404211 0 -0.0653397)
(0.398681 0 -0.0607659)
(0.390918 0 -0.0563832)
(0.380943 0 -0.0521892)
(0.368743 0 -0.0481713)
(0.35428 0 -0.0443104)
(0.337499 0 -0.0405822)
(0.318329 0 -0.0369586)
(0.296691 0 -0.0334077)
(0.272499 0 -0.0298945)
(0.24566 0 -0.0263805)
(0.216078 0 -0.0228231)
(0.183652 0 -0.0191751)
(0.148282 0 -0.0153833)
(0.109866 0 -0.0113864)
(0.0683147 0 -0.00711521)
(0.0233578 0 -0.00246766)
(0.111164 0 -0.0547853)
(0.145595 0 -0.0688378)
(0.197706 0 -0.086928)
(0.25661 0 -0.102444)
(0.307898 0 -0.111216)
(0.345844 0 -0.114015)
(0.372011 0 -0.113086)
(0.389535 0 -0.109902)
(0.400919 0 -0.105292)
(0.407957 0 -0.0999912)
(0.41164 0 -0.0943665)
(0.412529 0 -0.0886583)
(0.410948 0 -0.0830116)
(0.407086 0 -0.0775082)
(0.401045 0 -0.0721921)
(0.392867 0 -0.0670837)
(0.382553 0 -0.0621785)
(0.370075 0 -0.0574633)
(0.355382 0 -0.0529174)
(0.33841 0 -0.0485141)
(0.319083 0 -0.0442217)
(0.297316 0 -0.0400038)
(0.273016 0 -0.0358202)
(0.246088 0 -0.0316262)
(0.216431 0 -0.0273723)
(0.183942 0 -0.0230032)
(0.148515 0 -0.0184566)
(0.110043 0 -0.0136607)
(0.0684315 0 -0.00853442)
(0.0234025 0 -0.00295819)
(0.147135 0 -0.0703561)
(0.186512 0 -0.087095)
(0.240251 0 -0.106843)
(0.293788 0 -0.121717)
(0.336768 0 -0.129226)
(0.367355 0 -0.130971)
(0.388053 0 -0.129145)
(0.40164 0 -0.125102)
(0.410304 0 -0.119796)
(0.415384 0 -0.113824)
(0.417597 0 -0.107543)
(0.417352 0 -0.101181)
(0.414879 0 -0.0948856)
(0.410304 0 -0.0887359)
(0.403684 0 -0.0827779)
(0.395038 0 -0.0770377)
(0.38434 0 -0.0715048)
(0.371545 0 -0.0661667)
(0.356591 0 -0.0610026)
(0.339403 0 -0.0559841)
(0.319897 0 -0.0510768)
(0.297983 0 -0.0462409)
(0.273562 0 -0.0414317)
(0.246534 0 -0.0365994)
(0.216794 0 -0.0316885)
(0.184235 0 -0.0266366)
(0.148747 0 -0.0213734)
(0.110216 0 -0.0158181)
(0.0685449 0 -0.00987932)
(0.0234457 0 -0.00342213)
(0.186861 0 -0.087889)
(0.230675 0 -0.107022)
(0.28401 0 -0.127218)
(0.330812 0 -0.140432)
(0.365429 0 -0.146128)
(0.388979 0 -0.14654)
(0.404368 0 -0.143658)
(0.414177 0 -0.138784)
(0.420174 0 -0.132825)
(0.423271 0 -0.12627)
(0.423962 0 -0.119437)
(0.422521 0 -0.112532)
(0.419099 0 -0.1057)
(0.413757 0 -0.0990094)
(0.406512 0 -0.0925064)
(0.397358 0 -0.0862309)
(0.386244 0 -0.0801521)
(0.373103 0 -0.0742645)
(0.357863 0 -0.0685484)
(0.340439 0 -0.0629747)
(0.320738 0 -0.0575069)
(0.298663 0 -0.0521026)
(0.274111 0 -0.0467136)
(0.246976 0 -0.0412858)
(0.217148 0 -0.0357586)
(0.184516 0 -0.0300638)
(0.148965 0 -0.0241243)
(0.110378 0 -0.0178514)
(0.0686503 0 -0.0111454)
(0.0234872 0 -0.00385811)
(0.229752 0 -0.107205)
(0.27713 0 -0.128219)
(0.327627 0 -0.147462)
(0.366563 0 -0.158148)
(0.39296 0 -0.161643)
(0.409851 0 -0.160487)
(0.420359 0 -0.156507)
(0.426739 0 -0.150908)
(0.430199 0 -0.144376)
(0.431356 0 -0.137337)
(0.430524 0 -0.130056)
(0.427869 0 -0.122715)
(0.423475 0 -0.11546)
(0.417338 0 -0.10833)
(0.409435 0 -0.101368)
(0.399738 0 -0.0946143)
(0.388188 0 -0.088068)
(0.374683 0 -0.0817034)
(0.359141 0 -0.0755026)
(0.341468 0 -0.0694356)
(0.321562 0 -0.0634644)
(0.299319 0 -0.0575446)
(0.27463 0 -0.0516252)
(0.247383 0 -0.0456488)
(0.217465 0 -0.0395506)
(0.18476 0 -0.0332576)
(0.149148 0 -0.026687)
(0.110509 0 -0.0197438)
(0.0687322 0 -0.0123216)
(0.0235169 0 -0.00426152)
(0.275277 0 -0.12805)
(0.324728 0 -0.150081)
(0.369844 0 -0.16693)
(0.400086 0 -0.174413)
(0.418574 0 -0.175477)
(0.429431 0 -0.172699)
(0.435687 0 -0.167727)
(0.438977 0 -0.161473)
(0.440078 0 -0.15446)
(0.439392 0 -0.147044)
(0.437083 0 -0.139422)
(0.433227 0 -0.131742)
(0.427847 0 -0.124131)
(0.420916 0 -0.116656)
(0.412362 0 -0.109335)
(0.402118 0 -0.102186)
(0.39011 0 -0.0952403)
(0.376231 0 -0.0884699)
(0.360379 0 -0.0818513)
(0.34245 0 -0.0753528)
(0.322334 0 -0.0689357)
(0.299918 0 -0.0625538)
(0.275089 0 -0.0561544)
(0.247731 0 -0.0496772)
(0.217723 0 -0.0430545)
(0.184948 0 -0.0362093)
(0.149281 0 -0.0290545)
(0.110597 0 -0.0214902)
(0.0687815 0 -0.0134048)
(0.023531 0 -0.00463141)
(0.323011 0 -0.150156)
(0.372301 0 -0.171907)
(0.409424 0 -0.18492)
(0.430508 0 -0.188764)
(0.441664 0 -0.187351)
(0.447408 0 -0.183119)
(0.450026 0 -0.177276)
(0.450587 0 -0.170482)
(0.449536 0 -0.163091)
(0.447112 0 -0.155375)
(0.443406 0 -0.14751)
(0.438413 0 -0.139601)
(0.432086 0 -0.131731)
(0.424376 0 -0.123991)
(0.415183 0 -0.116397)
(0.404408 0 -0.108964)
(0.391952 0 -0.101703)
(0.377701 0 -0.0945984)
(0.36154 0 -0.0876264)
(0.343354 0 -0.0807556)
(0.323027 0 -0.0739468)
(0.30044 0 -0.0671533)
(0.275473 0 -0.0603211)
(0.248005 0 -0.0533884)
(0.217913 0 -0.0462851)
(0.185074 0 -0.0389315)
(0.14936 0 -0.0312371)
(0.110642 0 -0.0230986)
(0.0688031 0 -0.0144008)
(0.0235363 0 -0.00497071)
(0.372594 0 -0.17323)
(0.418558 0 -0.192868)
(0.44502 0 -0.200643)
(0.456967 0 -0.200688)
(0.46198 0 -0.197108)
(0.463572 0 -0.191669)
(0.463107 0 -0.185118)
(0.461245 0 -0.177894)
(0.458277 0 -0.170258)
(0.454285 0 -0.162355)
(0.449301 0 -0.154341)
(0.443259 0 -0.146298)
(0.436068 0 -0.138295)
(0.42763 0 -0.130391)
(0.417827 0 -0.12261)
(0.406542 0 -0.114967)
(0.393654 0 -0.107466)
(0.379041 0 -0.100095)
(0.362578 0 -0.0928312)
(0.344143 0 -0.0856449)
(0.32361 0 -0.0784972)
(0.300857 0 -0.0713415)
(0.275757 0 -0.0641233)
(0.248186 0 -0.0567799)
(0.218017 0 -0.0492399)
(0.185122 0 -0.0414217)
(0.149373 0 -0.0332329)
(0.110636 0 -0.0245676)
(0.0687907 0 -0.0153086)
(0.0235293 0 -0.00527892)
(0.423217 0 -0.196668)
(0.460828 0 -0.211398)
(0.474866 0 -0.213069)
(0.479283 0 -0.209899)
(0.4795 0 -0.20459)
(0.477641 0 -0.198203)
(0.474585 0 -0.191184)
(0.470668 0 -0.183716)
(0.466053 0 -0.175964)
(0.460728 0 -0.168023)
(0.454634 0 -0.159984)
(0.447662 0 -0.151914)
(0.439687 0 -0.143867)
(0.430583 0 -0.135888)
(0.420216 0 -0.128001)
(0.408452 0 -0.120219)
(0.395158 0 -0.112546)
(0.380203 0 -0.104971)
(0.363453 0 -0.0974746)
(0.34478 0 -0.0900271)
(0.324052 0 -0.0825912)
(0.301142 0 -0.075121)
(0.275919 0 -0.0675623)
(0.248255 0 -0.0598524)
(0.21802 0 -0.0519191)
(0.185082 0 -0.0436802)
(0.149311 0 -0.0350419)
(0.110571 0 -0.0258973)
(0.0687401 0 -0.0161285)
(0.0235082 0 -0.00555615)
(0.472139 0 -0.21867)
(0.495158 0 -0.225192)
(0.498913 0 -0.22165)
(0.497497 0 -0.215972)
(0.49392 0 -0.209525)
(0.489308 0 -0.202636)
(0.484178 0 -0.195436)
(0.478653 0 -0.187968)
(0.472724 0 -0.180287)
(0.466305 0 -0.172445)
(0.45928 0 -0.164499)
(0.45151 0 -0.156501)
(0.442851 0 -0.148496)
(0.433157 0 -0.140522)
(0.422281 0 -0.132601)
(0.410081 0 -0.124748)
(0.396415 0 -0.116965)
(0.381143 0 -0.109245)
(0.364128 0 -0.10157)
(0.345233 0 -0.0939124)
(0.324326 0 -0.0862364)
(0.301272 0 -0.0784975)
(0.275939 0 -0.0706424)
(0.248195 0 -0.0626089)
(0.217907 0 -0.0543251)
(0.184942 0 -0.0457086)
(0.149166 0 -0.0366656)
(0.110442 0 -0.027089)
(0.0686477 0 -0.0168615)
(0.0234718 0 -0.00580285)
(0.511954 0 -0.234652)
(0.522082 0 -0.232869)
(0.517302 0 -0.225256)
(0.511282 0 -0.218378)
(0.504856 0 -0.211696)
(0.498338 0 -0.204927)
(0.491772 0 -0.197952)
(0.485089 0 -0.190741)
(0.47818 0 -0.183312)
(0.470912 0 -0.175702)
(0.463144 0 -0.167957)
(0.45472 0 -0.160121)
(0.445484 0 -0.152237)
(0.435282 0 -0.144338)
(0.423963 0 -0.136449)
(0.411378 0 -0.128584)
(0.397379 0 -0.120749)
(0.381823 0 -0.112937)
(0.364569 0 -0.105133)
(0.345476 0 -0.0973133)
(0.324408 0 -0.0894426)
(0.301228 0 -0.0814787)
(0.275801 0 -0.0733697)
(0.247993 0 -0.0650544)
(0.217668 0 -0.0564618)
(0.184692 0 -0.0475103)
(0.14893 0 -0.0381067)
(0.110244 0 -0.0281449)
(0.0685101 0 -0.0175089)
(0.0234188 0 -0.00601957)
(0.0141494 0 -0.00200709)
(0.0405003 0 -0.00575737)
(0.0632752 0 -0.00906652)
(0.0829255 0 -0.01203)
(0.0999069 0 -0.0147275)
(0.114627 0 -0.0172233)
(0.127413 0 -0.0195587)
(0.138553 0 -0.0217691)
(0.14832 0 -0.023886)
(0.156955 0 -0.0259328)
(0.16468 0 -0.0279267)
(0.171725 0 -0.0298952)
(0.178296 0 -0.0318576)
(0.18461 0 -0.0338396)
(0.190892 0 -0.0358743)
(0.197336 0 -0.0379844)
(0.204225 0 -0.0402302)
(0.211818 0 -0.0426675)
(0.220443 0 -0.0453834)
(0.230448 0 -0.0484835)
(0.242237 0 -0.0521066)
(0.256363 0 -0.0564656)
(0.273447 0 -0.0618305)
(0.294311 0 -0.0685919)
(0.319974 0 -0.0772889)
(0.351784 0 -0.0887082)
(0.391201 0 -0.103885)
(0.438899 0 -0.123926)
(0.491882 0 -0.149151)
(0.540702 0 -0.178647)
(0.0143336 0 -0.00212417)
(0.0410475 0 -0.00609672)
(0.0641834 0 -0.00960797)
(0.0842043 0 -0.0127592)
(0.101576 0 -0.0156358)
(0.116707 0 -0.0183036)
(0.129934 0 -0.0208106)
(0.141555 0 -0.0231939)
(0.151851 0 -0.025491)
(0.161055 0 -0.0277245)
(0.169413 0 -0.029922)
(0.177147 0 -0.0321087)
(0.184469 0 -0.0343096)
(0.191583 0 -0.0365479)
(0.198738 0 -0.0388695)
(0.206157 0 -0.0413123)
(0.214089 0 -0.0439298)
(0.222811 0 -0.0467915)
(0.232658 0 -0.0499967)
(0.24397 0 -0.0536584)
(0.257148 0 -0.0579296)
(0.27273 0 -0.0630342)
(0.291298 0 -0.0692491)
(0.313573 0 -0.0769542)
(0.34048 0 -0.0866881)
(0.372972 0 -0.0991274)
(0.411644 0 -0.115)
(0.455697 0 -0.134755)
(0.500411 0 -0.157358)
(0.53612 0 -0.178851)
(0.0145211 0 -0.00223882)
(0.041607 0 -0.00642993)
(0.0651143 0 -0.0101413)
(0.085517 0 -0.0134793)
(0.103288 0 -0.0165341)
(0.118842 0 -0.0193752)
(0.132525 0 -0.0220566)
(0.144649 0 -0.0246212)
(0.155489 0 -0.027104)
(0.165279 0 -0.0295322)
(0.174274 0 -0.0319387)
(0.182685 0 -0.0343461)
(0.190729 0 -0.0367835)
(0.198656 0 -0.0392943)
(0.206679 0 -0.0419154)
(0.215036 0 -0.0446955)
(0.223942 0 -0.0476812)
(0.233728 0 -0.0509691)
(0.244695 0 -0.0546548)
(0.25715 0 -0.058851)
(0.271511 0 -0.0637267)
(0.288273 0 -0.0695094)
(0.307893 0 -0.0764427)
(0.33104 0 -0.0849084)
(0.358352 0 -0.095353)
(0.390155 0 -0.108203)
(0.426206 0 -0.123795)
(0.464579 0 -0.141874)
(0.500401 0 -0.160768)
(0.527735 0 -0.177902)
(0.0147101 0 -0.00235023)
(0.0421736 0 -0.00675472)
(0.0660601 0 -0.0106626)
(0.0868537 0 -0.0141857)
(0.10503 0 -0.0174176)
(0.121027 0 -0.020436)
(0.135192 0 -0.0232969)
(0.147826 0 -0.0260447)
(0.159201 0 -0.0287128)
(0.169572 0 -0.0313367)
(0.179183 0 -0.033948)
(0.188267 0 -0.0365807)
(0.197051 0 -0.0392697)
(0.205766 0 -0.0420557)
(0.214602 0 -0.0449698)
(0.223822 0 -0.0480766)
(0.233662 0 -0.0514354)
(0.244409 0 -0.0551336)
(0.25635 0 -0.0592701)
(0.269778 0 -0.063961)
(0.285106 0 -0.0693864)
(0.302673 0 -0.0757217)
(0.322921 0 -0.0832216)
(0.346329 0 -0.0922002)
(0.373071 0 -0.102912)
(0.403021 0 -0.115562)
(0.43536 0 -0.130142)
(0.467724 0 -0.145961)
(0.496448 0 -0.161571)
(0.518181 0 -0.175515)
(0.0149012 0 -0.00245829)
(0.0427465 0 -0.00707031)
(0.0670179 0 -0.0111705)
(0.0882114 0 -0.0148761)
(0.106816 0 -0.0182866)
(0.12326 0 -0.0214815)
(0.137892 0 -0.0245168)
(0.151024 0 -0.0274424)
(0.162933 0 -0.0302952)
(0.17388 0 -0.0331157)
(0.184117 0 -0.0359403)
(0.19387 0 -0.0388024)
(0.203361 0 -0.0417399)
(0.21279 0 -0.0447843)
(0.222413 0 -0.0479949)
(0.232449 0 -0.0514251)
(0.243119 0 -0.0551349)
(0.254705 0 -0.0592162)
(0.267468 0 -0.0637648)
(0.28168 0 -0.068896)
(0.297661 0 -0.0747626)
(0.315685 0 -0.0815217)
(0.336126 0 -0.0894063)
(0.35909 0 -0.0985742)
(0.384499 0 -0.109154)
(0.411959 0 -0.121187)
(0.440255 0 -0.134373)
(0.467284 0 -0.147955)
(0.490702 0 -0.160959)
(0.508582 0 -0.172507)
(0.015092 0 -0.00256193)
(0.0433186 0 -0.00737361)
(0.0679758 0 -0.01166)
(0.0895724 0 -0.0155434)
(0.108604 0 -0.0191281)
(0.125488 0 -0.022493)
(0.140587 0 -0.0256997)
(0.154216 0 -0.0288017)
(0.166667 0 -0.0318433)
(0.178195 0 -0.034863)
(0.189039 0 -0.0378983)
(0.199415 0 -0.0409796)
(0.20956 0 -0.0441529)
(0.219688 0 -0.0474595)
(0.230033 0 -0.0509539)
(0.240786 0 -0.0546834)
(0.252183 0 -0.0587187)
(0.264469 0 -0.063143)
(0.277872 0 -0.0680455)
(0.292627 0 -0.0735331)
(0.308962 0 -0.0797258)
(0.327146 0 -0.0867831)
(0.347253 0 -0.0948111)
(0.369245 0 -0.103894)
(0.392915 0 -0.114079)
(0.417584 0 -0.12522)
(0.442012 0 -0.136905)
(0.464681 0 -0.14854)
(0.484164 0 -0.159511)
(0.499278 0 -0.169224)
(0.0152777 0 -0.00265917)
(0.0438788 0 -0.0076595)
(0.068916 0 -0.0121228)
(0.0909132 0 -0.0161768)
(0.110371 0 -0.01993)
(0.127691 0 -0.0234603)
(0.143263 0 -0.0268387)
(0.157403 0 -0.0301185)
(0.170382 0 -0.0333444)
(0.182452 0 -0.0365522)
(0.19386 0 -0.0397859)
(0.204843 0 -0.0430849)
(0.215616 0 -0.0464907)
(0.226373 0 -0.0500414)
(0.237354 0 -0.0537962)
(0.248743 0 -0.0578038)
(0.260734 0 -0.0621236)
(0.273564 0 -0.0668397)
(0.287416 0 -0.0720281)
(0.302469 0 -0.0777758)
(0.318939 0 -0.084201)
(0.336873 0 -0.0913699)
(0.356258 0 -0.0993421)
(0.376992 0 -0.10816)
(0.398669 0 -0.117747)
(0.420518 0 -0.12786)
(0.441555 0 -0.138134)
(0.460786 0 -0.148165)
(0.477289 0 -0.15753)
(0.49032 0 -0.165811)
(0.0154564 0 -0.00274891)
(0.0444222 0 -0.00792483)
(0.0698273 0 -0.0125536)
(0.0922255 0 -0.0167715)
(0.112113 0 -0.0206875)
(0.129879 0 -0.0243805)
(0.145914 0 -0.0279242)
(0.160528 0 -0.0313701)
(0.174003 0 -0.034768)
(0.186605 0 -0.0381614)
(0.198567 0 -0.0415904)
(0.21011 0 -0.0450945)
(0.221439 0 -0.0487121)
(0.232767 0 -0.0524905)
(0.244303 0 -0.0564817)
(0.256198 0 -0.0607246)
(0.268657 0 -0.0652859)
(0.281879 0 -0.0702381)
(0.295982 0 -0.0756341)
(0.311161 0 -0.0815681)
(0.327445 0 -0.0880805)
(0.344835 0 -0.0952115)
(0.363288 0 -0.102998)
(0.382553 0 -0.111397)
(0.402128 0 -0.120255)
(0.421364 0 -0.129339)
(0.439582 0 -0.138387)
(0.456086 0 -0.147098)
(0.470281 0 -0.155177)
(0.481667 0 -0.162318)
(0.0156291 0 -0.00283072)
(0.04495 0 -0.00816803)
(0.0707343 0 -0.012954)
(0.093522 0 -0.0173247)
(0.113806 0 -0.0213898)
(0.132 0 -0.0252346)
(0.148475 0 -0.0289313)
(0.16356 0 -0.0325388)
(0.177531 0 -0.0361059)
(0.19063 0 -0.0396732)
(0.203078 0 -0.0432766)
(0.215135 0 -0.0469699)
(0.226982 0 -0.050787)
(0.238793 0 -0.0547644)
(0.250777 0 -0.0589554)
(0.263081 0 -0.0633995)
(0.275892 0 -0.0681588)
(0.289328 0 -0.0732766)
(0.303536 0 -0.0788168)
(0.318592 0 -0.0848245)
(0.334457 0 -0.0913082)
(0.351139 0 -0.0983032)
(0.368481 0 -0.105784)
(0.386147 0 -0.113649)
(0.403696 0 -0.121742)
(0.420664 0 -0.129891)
(0.436544 0 -0.137885)
(0.450851 0 -0.145499)
(0.463215 0 -0.152537)
(0.473268 0 -0.158756)
(0.0157924 0 -0.00290304)
(0.0454501 0 -0.00838417)
(0.0715906 0 -0.0133106)
(0.0947496 0 -0.0178189)
(0.115419 0 -0.0220213)
(0.134034 0 -0.0260093)
(0.150957 0 -0.0298544)
(0.166487 0 -0.0336117)
(0.180899 0 -0.0373286)
(0.194445 0 -0.0410505)
(0.207363 0 -0.0448207)
(0.219882 0 -0.0486852)
(0.232157 0 -0.0526706)
(0.244383 0 -0.0568221)
(0.25673 0 -0.0611815)
(0.26934 0 -0.0657872)
(0.282347 0 -0.0706822)
(0.295855 0 -0.0759037)
(0.310001 0 -0.0815114)
(0.324751 0 -0.0875027)
(0.340057 0 -0.0938768)
(0.355878 0 -0.100639)
(0.371978 0 -0.107715)
(0.388052 0 -0.114999)
(0.403779 0 -0.12237)
(0.418797 0 -0.129684)
(0.432735 0 -0.136776)
(0.445261 0 -0.143481)
(0.456113 0 -0.14965)
(0.465048 0 -0.155106)
(0.0159408 0 -0.00296361)
(0.0459111 0 -0.0085675)
(0.0723799 0 -0.0136149)
(0.095902 0 -0.0182475)
(0.116972 0 -0.0225795)
(0.135983 0 -0.0266961)
(0.153302 0 -0.0306692)
(0.169236 0 -0.0345572)
(0.184071 0 -0.0384128)
(0.198048 0 -0.0422794)