/*--------------------------------*- C++ -*----------------------------------*\
| =========                 |                                                 |
| \\      /  F ield         | OpenFOAM: The Open Source CFD Toolbox           |
|  \\    /   O peration     | Version:  dev                                   |
|   \\  /    A nd           | Web:      www.OpenFOAM.org                      |
|    \\/     M anipulation  |                                                 |
\*---------------------------------------------------------------------------*/
FoamFile
{
    version     2.0;
    format      ascii;
    class       volVectorField;
    location    "1.62";
    object      U;
}
// * * * * * * * * * * * * * * * * * * * * * * * * * * * * * * * * * * * * * //

dimensions      [0 1 -1 0 0 0 0];

internalField   nonuniform List<vector> 
2790
(
(9.93711 0 0.0179019)
(9.87011 0 0.0241994)
(9.78098 1.91199e-20 0.0279969)
(9.6769 2.85875e-21 0.0318767)
(9.5631 -6.02736e-21 0.0358529)
(9.44045 6.27554e-21 0.0398866)
(9.30828 -1.32677e-20 0.0441022)
(9.16591 1.37881e-20 0.0486333)
(9.0127 1.46182e-20 0.0535819)
(8.84793 -1.51706e-20 0.0590494)
(8.6707 -3.22654e-20 0.0651525)
(8.4799 3.34477e-20 0.072022)
(8.27425 3.12568e-20 0.0798061)
(8.05225 -3.69566e-20 0.0886708)
(7.81223 3.83219e-20 0.098809)
(7.55232 -3.57748e-20 0.110451)
(7.27039 1.08673e-20 0.123866)
(6.96412 2.29098e-20 0.139364)
(6.63091 0 0.157296)
(6.26799 1.03058e-19 0.178066)
(5.87238 -1.06386e-19 0.202129)
(5.44098 -5.65458e-20 0.229998)
(4.97061 0 0.262252)
(4.45814 0 0.29956)
(3.90051 5.28476e-19 0.342715)
(3.29485 -4.04104e-19 0.392634)
(2.6383 0 0.450362)
(1.92818 5.79737e-19 0.51682)
(1.15139 -8.60911e-19 0.591681)
(0.50289 3.10762e-19 0.583499)
(10.0028 8.26626e-20 0.0342411)
(9.99735 -9.11659e-20 0.0476376)
(9.97128 -5.99868e-20 0.0562918)
(9.92817 1.14595e-20 0.0656376)
(9.87224 -1.19387e-20 0.0756944)
(9.80459 5.01541e-20 0.0862954)
(9.72488 0 0.0976786)
(9.63257 -2.75415e-20 0.110135)
(9.52717 -5.81234e-20 0.123892)
(9.40807 1.21275e-19 0.139192)
(9.2745 -9.49965e-20 0.156323)
(9.12544 -1.6679e-20 0.175611)
(8.95971 4.38576e-21 0.197424)
(8.77594 4.60187e-21 0.222177)
(8.57252 1.21182e-21 0.250342)
(8.34763 1.49334e-19 0.282476)
(8.09921 -1.80877e-19 0.31922)
(7.82494 -3.42621e-19 0.361285)
(7.5222 3.7697e-19 0.409459)
(7.18807 4.99665e-20 0.464595)
(6.81936 0 0.527589)
(6.41251 5.55077e-20 0.599351)
(5.96366 0 0.680756)
(5.46853 -2.43064e-19 0.772618)
(4.92222 1.02944e-18 0.875687)
(4.31881 -9.19091e-19 0.990616)
(3.65013 0 1.11793)
(2.90298 2.24798e-18 1.2589)
(2.02883 -2.21481e-18 1.42604)
(1.1818 -9.03719e-19 1.64715)
(10.0002 -8.51116e-20 0.0330022)
(9.99237 8.84869e-20 0.0516464)
(9.96898 4.3581e-20 0.0660431)
(9.93089 0 0.0813935)
(9.88096 -7.15545e-20 0.097997)
(9.82036 -2.5005e-20 0.115712)
(9.74892 5.26938e-20 0.134832)
(9.66628 8.29356e-20 0.155759)
(9.57198 -5.73131e-20 0.178842)
(9.46548 0 0.204472)
(9.34613 3.16913e-20 0.233111)
(9.21308 4.98084e-20 0.265285)
(9.06532 0 0.301599)
(8.90171 1.52236e-19 0.342739)
(8.72086 -1.53275e-19 0.389494)
(8.52119 3.26387e-19 0.442795)
(8.30094 -3.37036e-19 0.503718)
(8.05805 -4.47666e-20 0.573484)
(7.79021 -3.79562e-19 0.653463)
(7.49473 -5.54705e-19 0.745182)
(7.16854 1.55639e-18 0.850318)
(6.80806 8.61748e-19 0.970665)
(6.40906 0 1.1081)
(5.9664 -1.68429e-18 1.26455)
(5.4735 1.9638e-18 1.44213)
(4.92138 -2.57802e-19 1.64357)
(4.29672 0 1.87322)
(3.5785 0 2.14017)
(2.72556 2.67707e-19 2.45935)
(1.69819 -4.64989e-18 2.99047)
(9.99839 1.6951e-19 0.0339855)
(9.98787 1.55634e-19 0.0595801)
(9.96428 8.68977e-20 0.0812016)
(9.92729 9.09929e-20 0.103029)
(9.87862 9.54145e-20 0.126)
(9.81951 -4.99611e-20 0.150291)
(9.75 -5.25262e-20 0.176326)
(9.6699 -2.82939e-22 0.204639)
(9.57888 -5.73106e-20 0.235732)
(9.47644 6.00474e-20 0.270158)
(9.36208 0 0.308546)
(9.2351 -2.9926e-19 0.35158)
(9.09478 5.54643e-19 0.400056)
(8.94027 -2.97861e-19 0.454908)
(8.77047 -1.78167e-21 0.517212)
(8.58417 4.85933e-23 0.588218)
(8.38003 -6.36896e-19 0.669382)
(8.15652 6.56063e-19 0.762393)
(7.91188 -9.22626e-20 0.869193)
(7.64404 9.7528e-20 0.991995)
(7.35055 1.02243e-19 1.13334)
(7.02844 1.93239e-18 1.29612)
(6.67398 -3.55876e-18 1.4836)
(6.28234 1.83521e-18 1.69959)
(5.8469 -4.75117e-19 1.94872)
(5.35825 1.98854e-18 2.23721)
(4.80294 -6.04647e-18 2.57484)
(4.15574 4.53007e-18 2.98342)
(3.45013 0 3.4393)
(2.27084 1.0877e-18 4.33139)
(9.99745 -1.59362e-19 0.0365576)
(9.98524 -1.65833e-19 0.0677549)
(9.96127 -8.67949e-20 0.0953587)
(9.92502 -2.72328e-19 0.122755)
(9.87747 4.7283e-20 0.151387)
(9.8197 4.96006e-20 0.181727)
(9.75182 1.04067e-19 0.214289)
(9.67382 1.0894e-19 0.249686)
(9.58537 1.72011e-19 0.288539)
(9.48601 -1.78864e-19 0.331527)
(9.37542 -6.25351e-20 0.379403)
(9.25298 -3.29837e-19 0.432967)
(9.11807 2.73316e-19 0.493123)
(8.97011 -3.26519e-19 0.560989)
(8.80826 6.07126e-19 0.637877)
(8.63165 -3.04516e-19 0.725275)
(8.43933 -2.09653e-20 0.824913)
(8.23022 -6.58588e-19 0.938839)
(8.00314 8.14447e-19 1.06946)
(7.75673 -9.48498e-20 1.21956)
(7.48934 -1.98074e-19 1.39243)
(7.19892 -2.09172e-19 1.59199)
(6.88286 2.14386e-19 1.82291)
(6.53758 -2.21787e-19 2.09092)
(6.15817 9.7878e-21 2.40329)
(5.73753 -4.25676e-18 2.76995)
(5.2677 3.79562e-18 3.20374)
(4.71177 -2.49343e-19 3.7429)
(4.24573 0 4.26531)
(2.93268 -8.51454e-18 5.50164)
(9.99687 0 0.0399306)
(9.98382 0 0.0760225)
(9.95965 0 0.10918)
(9.92413 3.62006e-19 0.142142)
(9.87793 -9.48169e-20 0.176508)
(9.82181 -9.9508e-20 0.212931)
(9.75594 -4.97052e-22 0.251989)
(9.68038 3.90279e-22 0.294359)
(9.59477 -1.12267e-19 0.340766)
(9.49877 -2.38717e-19 0.391984)
(9.39217 3.09771e-19 0.448877)
(9.27453 3.27433e-19 0.512386)
(9.14528 3.61464e-21 0.583519)
(9.00386 -2.47811e-19 0.663508)
(8.84981 -6.02285e-19 0.753848)
(8.68254 6.18672e-19 0.856233)
(8.50139 -1.64011e-22 0.972615)
(8.3057 0 1.10532)
(8.09477 0 1.25711)
(7.86789 1.59953e-18 1.43125)
(7.62422 -1.34816e-18 1.63163)
(7.36276 -1.42847e-18 1.86302)
(7.08227 1.65848e-18 2.1313)
(6.78103 3.68836e-18 2.44373)
(6.4568 -6.61172e-18 2.80963)
(6.10609 7.60279e-18 3.24167)
(5.73146 -3.5715e-18 3.75167)
(5.26852 -2.75701e-19 4.4017)
(5.08509 4.0148e-19 4.91053)
(3.6573 0 6.43284)
(9.99655 -9.88923e-21 0.0437202)
(9.98319 -1.03183e-20 0.0843745)
(9.95909 1.50448e-19 0.122746)
(9.92439 -1.35513e-19 0.161077)
(9.87965 0 0.200952)
(9.82537 0 0.243172)
(9.76179 0 0.288397)
(9.689 1.07748e-19 0.337395)
(9.60668 3.94915e-22 0.39099)
(9.51454 -4.61082e-22 0.45003)
(9.41237 0 0.515447)
(9.29999 0 0.588308)
(9.17701 -5.43392e-19 0.66976)
(9.0429 5.60859e-19 0.761111)
(8.89738 0 0.863956)
(8.74011 2.41736e-21 0.980151)
(8.57073 -2.02083e-20 1.11184)
(8.38894 6.76935e-19 1.26154)
(8.19449 -6.95248e-19 1.43229)
(7.98725 1.4679e-18 1.6277)
(7.76715 -1.4091e-18 1.85208)
(7.53421 -1.97441e-19 2.11081)
(7.28869 -2.03714e-19 2.41065)
(7.03092 0 2.75991)
(6.76161 0 3.16907)
(6.48059 0 3.65244)
(6.20487 3.2942e-18 4.21585)
(5.82665 -3.16063e-18 4.95594)
(5.92676 -3.834e-19 5.38823)
(4.40451 -6.32545e-18 7.12224)
(9.99646 0 0.0476946)
(9.98307 0 0.0927122)
(9.95931 -5.1451e-19 0.135987)
(9.92562 1.34291e-19 0.17944)
(9.8825 -1.40666e-19 0.224587)
(9.83034 -9.8509e-20 0.272341)
(9.76936 1.02255e-19 0.323451)
(9.69967 -1.07417e-19 0.378769)
(9.62101 1.12266e-19 0.439208)
(9.5332 -1.1732e-19 0.50567)
(9.43604 0 0.579138)
(9.32947 0 0.66075)
(9.21331 0 0.751778)
(9.08721 6.93907e-20 0.853637)
(8.951 0 0.967988)
(8.80453 6.10558e-19 1.09679)
(8.64773 -6.27945e-19 1.24232)
(8.48063 0 1.40725)
(8.30347 -1.37659e-18 1.59478)
(8.11665 -1.75077e-20 1.80875)
(7.92076 1.3661e-18 2.05377)
(7.71674 0 2.33555)
(7.50648 3.01262e-18 2.66142)
(7.29221 -6.20307e-18 3.04022)
(7.07723 3.1726e-18 3.48264)
(6.86373 0 4.00398)
(6.68567 -3.01978e-18 4.59928)
(6.38059 2.92521e-18 5.40947)
(6.73574 -6.18228e-18 5.73104)
(5.14012 5.62735e-18 7.60378)
(9.9965 0 0.0517099)
(9.98328 2.85127e-19 0.100934)
(9.96012 3.84707e-19 0.148828)
(9.92766 -5.0883e-22 0.197139)
(9.88638 5.66937e-22 0.247303)
(9.83661 -9.79263e-20 0.300306)
(9.77856 3.05133e-19 0.356995)
(9.71228 -2.12507e-19 0.418298)
(9.63766 0 0.485182)
(9.5546 2.33238e-19 0.558601)
(9.463 -4.84493e-19 0.63959)
(9.36285 7.59514e-19 0.729334)
(9.25405 -5.24183e-19 0.82918)
(9.1365 -6.21554e-19 0.940637)
(9.01022 5.69032e-19 1.06544)
(8.87525 -5.25259e-19 1.2056)
(8.73179 1.86181e-18 1.36347)
(8.58014 1.4992e-20 1.54181)
(8.42101 -1.34572e-18 1.74389)
(8.25534 1.33362e-21 1.97375)
(8.08436 -1.42424e-18 2.23615)
(7.90975 -1.44846e-18 2.53687)
(7.73485 8.79996e-20 2.88342)
(7.56371 -3.08466e-18 3.28491)
(7.40202 2.90107e-18 3.75157)
(7.25243 -2.90409e-18 4.29937)
(7.1673 2.84408e-18 4.90901)
(6.92457 -1.25113e-18 5.77091)
(7.4908 -1.05083e-18 5.97696)
(5.84185 -4.52316e-18 7.92717)
(9.99662 -3.11763e-19 0.055676)
(9.98375 -3.25356e-19 0.108947)
(9.96139 -3.39397e-19 0.161193)
(9.93036 -1.7799e-19 0.214082)
(9.89111 1.86012e-19 0.268984)
(9.84395 -9.72986e-20 0.326934)
(9.78905 3.03367e-19 0.388875)
(9.7265 1.18197e-21 0.455801)
(9.65627 2.21401e-19 0.528706)
(9.57833 -4.5812e-19 0.608577)
(9.4927 0 0.696509)
(9.39942 -5.01856e-19 0.793732)
(9.29851 -5.35124e-21 0.901625)
(9.19007 5.3825e-19 1.02174)
(9.07428 0 1.15587)
(8.95143 -7.3408e-20 1.30608)
(8.82196 0 1.47476)
(8.68647 7.78607e-20 1.66467)
(8.54599 -1.36137e-18 1.87912)
(8.40196 1.40949e-18 2.12218)
(8.25634 -8.46225e-20 2.39874)
(8.11165 8.61802e-20 2.71449)
(7.97178 -2.81618e-18 3.07663)
(7.84247 1.36889e-20 3.49431)
(7.73225 1.23685e-19 3.97722)
(7.64218 2.73845e-18 4.54209)
(7.64282 0 5.15375)
(7.45503 5.70079e-18 6.05087)
(8.18574 -2.11468e-18 6.1618)
(6.50146 4.21677e-18 8.14527)
(9.99681 3.1116e-19 0.0595297)
(9.9844 3.63174e-19 0.116671)
(9.96304 2.96437e-19 0.173006)
(9.9336 -8.85575e-20 0.230191)
(9.89657 -4.42869e-22 0.289541)
(9.85219 3.84991e-19 0.352125)
(9.80065 -5.0215e-19 0.418969)
(9.74208 2.09066e-19 0.491128)
(9.67653 1.47913e-21 0.569604)
(9.60401 2.28348e-19 0.655403)
(9.52464 4.75856e-19 0.749667)
(9.43859 -4.90672e-19 0.853664)
(9.346 5.14865e-19 0.968781)
(9.24712 -5.2976e-19 1.09659)
(9.14231 5.54943e-19 1.23892)
(9.03207 -1.71953e-18 1.39784)
(8.9171 1.03156e-18 1.57576)
(8.79834 1.14995e-18 1.77541)
(8.67704 -1.17346e-18 2.00004)
(8.55501 -8.13247e-20 2.25367)
(8.4349 2.45864e-19 2.54118)
(8.3202 -8.44099e-20 2.8682)
(8.21497 3.3094e-19 3.24138)
(8.12596 2.65159e-18 3.66953)
(8.06439 -4.85366e-20 4.16174)
(8.0292 -4.99077e-18 4.73578)
(8.10661 2.37919e-18 5.34255)
(7.97088 0 6.25954)
(8.8257 0 6.31524)
(7.12375 0 8.30936)
(9.99703 0 0.0632247)
(9.98521 -3.62254e-19 0.124039)
(9.96498 8.40766e-20 0.184203)
(9.9373 -3.94496e-19 0.245393)
(9.90264 3.66011e-19 0.308889)
(9.86121 -1.91664e-19 0.37578)
(9.8132 1.99832e-19 0.447163)
(9.75881 -4.16684e-19 0.524137)
(9.69822 4.32367e-19 0.607712)
(9.63142 -4.49965e-19 0.69891)
(9.55855 -2.36718e-19 0.798892)
(9.48 4.84142e-19 0.908932)
(9.39604 -7.57911e-19 1.03042)
(9.30704 5.20939e-19 1.16494)
(9.21353 0 1.31431)
(9.11621 0 1.48059)
(9.01603 1.30479e-18 1.66614)
(8.91423 -2.22931e-18 1.87364)
(8.81229 1.21522e-18 2.1063)
(8.71239 0 2.36796)
(8.61762 -1.59698e-19 2.66331)
(8.53218 3.1467e-19 2.99785)
(8.46083 -2.85529e-18 3.37792)
(8.41079 3.14058e-18 3.81166)
(8.39485 -5.96403e-19 4.30735)
(8.41058 -2.24755e-18 4.88385)
(8.55522 1.42738e-19 5.48385)
(8.47409 -1.59307e-18 6.40358)
(9.42016 2.77572e-19 6.46)
(7.73092 -1.44533e-18 8.46338)
(9.99729 6.13556e-19 0.0667265)
(9.98613 0 0.130997)
(9.96715 -3.33567e-19 0.194725)
(9.94135 4.37143e-19 0.259623)
(9.90922 -4.5579e-19 0.326953)
(9.87089 0 0.397819)
(9.82655 0 0.473371)
(9.77649 0 0.554725)
(9.72102 -4.28148e-19 0.642901)
(9.66012 -1.66638e-21 0.738957)
(9.59404 4.58602e-19 0.844041)
(9.52327 4.80985e-19 0.959395)
(9.44818 -2.45329e-19 1.0864)
(9.36927 0 1.22663)
(9.28722 -2.63901e-19 1.38188)
(9.20294 2.71944e-19 1.55415)
(9.1176 1.12916e-18 1.74574)
(9.03267 -2.45468e-18 1.95926)
(8.94996 1.46994e-18 2.1978)
(8.87198 1.19947e-18 2.46501)
(8.80209 -1.21241e-18 2.76526)
(8.74485 2.92199e-19 3.10377)
(8.70604 0 3.48662)
(8.69319 -3.50566e-18 3.92141)
(8.71999 2.86245e-18 4.41545)
(8.78355 0 4.98826)
(8.98665 -1.80081e-18 5.58263)
(8.97011 4.74134e-18 6.48303)
(9.97731 -2.67783e-18 6.6087)
(8.37226 -2.30619e-18 8.63695)
(9.99757 -6.12216e-19 0.0700087)
(9.98714 0 0.137504)
(9.96949 4.15866e-19 0.204525)
(9.94569 -8.65556e-20 0.272824)
(9.9162 -9.058e-20 0.343662)
(9.88109 9.39511e-20 0.418167)
(9.84053 -1.94411e-19 0.497515)
(9.795 -2.02058e-19 0.582811)
(9.74476 -2.1114e-19 0.675084)
(9.68986 8.79024e-19 0.775418)
(9.63077 -2.25738e-19 0.884943)
(9.56799 -4.70491e-19 1.00485)
(9.50192 -4.89848e-19 1.13651)
(9.43322 5.02633e-19 1.28147)
(9.36271 3.00296e-21 1.44146)
(9.29143 -2.69024e-19 1.61841)
(9.22079 -2.72209e-19 1.81449)
(9.15251 0 2.03221)
(9.08864 8.53374e-19 2.27452)
(9.03201 -1.15542e-18 2.54487)
(8.98626 0 2.8472)
(8.95616 -5.86353e-19 3.18633)
(8.94813 -1.6964e-18 3.56802)
(8.97022 3.88001e-18 3.99928)
(9.03697 -2.04942e-18 4.48679)
(9.14576 1.97276e-18 5.0491)
(9.39945 0 5.63736)
(9.46448 -1.3242e-18 6.49131)
(10.5042 6.13856e-18 6.74573)
(9.11191 2.88152e-18 8.85205)
(9.99787 0 0.0730489)
(9.98823 0 0.143524)
(9.97201 0 0.213565)
(9.95029 3.43575e-19 0.284959)
(9.92354 -8.98886e-20 0.358976)
(9.89175 9.32014e-20 0.436776)
(9.85515 1.94745e-19 0.519531)
(9.81435 6.03659e-19 0.608334)
(9.76947 -2.09839e-19 0.704227)
(9.72069 -4.36747e-19 0.808275)
(9.66866 6.72159e-19 0.921576)
(9.61387 2.31421e-19 1.04531)
(9.55685 2.38849e-19 1.1808)
(9.49834 0 1.32956)
(9.43932 1.27606e-18 1.49324)
(9.38093 -1.04215e-18 1.67363)
(9.32471 -8.00244e-19 1.87274)
(9.27261 -1.15628e-21 2.09294)
(9.22689 1.12388e-21 2.33704)
(9.19076 1.11436e-18 2.60819)
(9.16804 0 2.90987)
(9.16365 0 3.24648)
(9.18447 -1.61258e-18 3.62318)
(9.23903 9.85584e-19 4.04627)
(9.34263 -1.98687e-18 4.52184)
(9.49399 0 5.0652)
(9.79034 0 5.64042)
(9.95299 0 6.41848)
(10.9999 -3.03745e-18 6.81101)
(9.98698 2.83753e-18 9.12771)
(0.0848676 -2.24244e-20 -0.0873896)
(0.198438 -6.23334e-20 -0.0885499)
(0.3929 3.45851e-20 -0.0726029)
(0.63396 0 -0.0626419)
(0.922522 -3.2994e-20 -0.0586723)
(1.22296 0 -0.0575)
(1.49615 0 -0.0561626)
(1.73236 -1.11663e-20 -0.0541803)
(1.9385 0 -0.0516752)
(2.11999 0 -0.0486836)
(2.27956 0 -0.0453144)
(2.41995 0 -0.0415594)
(2.54242 2.48814e-21 -0.0373635)
(2.64723 9.53967e-21 -0.0327514)
(2.73461 6.8381e-21 -0.0279904)
(2.80527 0 -0.0232229)
(2.85999 0 -0.0184725)
(2.8997 8.05253e-21 -0.0144695)
(2.92695 7.75534e-21 -0.0116249)
(2.94497 4.61078e-22 -0.0090764)
(2.95544 -8.95059e-22 -0.0068782)
(2.95963 7.2869e-21 -0.00680169)
(2.96066 0 -0.00977243)
(2.9629 0 -0.0148658)
(2.97091 5.71598e-21 -0.0211439)
(2.99014 -5.17858e-21 -0.0285953)
(3.02757 4.50476e-21 -0.037443)
(3.09146 -3.64397e-21 -0.0477648)
(3.19049 0 -0.0596045)
(3.36977 1.09205e-21 -0.071201)
(0.0408802 -8.96446e-20 -0.121335)
(0.112724 2.03814e-19 -0.152825)
(0.315634 -1.3624e-19 -0.146506)
(0.574303 6.26038e-20 -0.143943)
(0.879356 3.29602e-20 -0.146568)
(1.18384 0 -0.148504)
(1.45062 2.04146e-20 -0.146631)
(1.67415 -1.11679e-20 -0.141754)
(1.86294 2.22532e-20 -0.135159)
(2.02321 0 -0.127288)
(2.15972 2.14769e-20 -0.118541)
(2.2769 1.02353e-20 -0.108984)
(2.3769 -1.00773e-20 -0.0983946)
(2.46057 -9.52147e-21 -0.0865683)
(2.52781 4.57614e-21 -0.0742831)
(2.57904 4.40313e-21 -0.0619999)
(2.61499 -1.8763e-20 -0.0486092)
(2.63411 -6.00353e-21 -0.0360366)
(2.63673 -7.74344e-21 -0.0283183)
(2.62721 1.84351e-21 -0.0234159)
(2.60464 1.43929e-20 -0.0160401)
(2.56142 -9.45066e-21 -0.0057656)
(2.49665 -1.23391e-20 0.0034926)
(2.42335 7.53049e-22 0.00817527)
(2.35398 4.41201e-21 0.00678362)
(2.29494 1.64343e-20 -0.00176935)
(2.25494 -4.53701e-21 -0.0200509)
(2.25157 1.13494e-20 -0.0528965)
(2.30646 -1.37272e-22 -0.105504)
(2.47811 -3.40845e-21 -0.175659)
(0.0129057 -1.77984e-19 -0.163841)
(0.0164027 0 -0.219985)
(0.202499 -1.33166e-19 -0.230647)
(0.430181 9.07011e-22 -0.23213)
(0.692922 0 -0.236764)
(0.94268 -7.31239e-20 -0.238782)
(1.15029 1.22477e-19 -0.234777)
(1.31493 -4.34418e-20 -0.226153)
(1.44439 -4.3902e-20 -0.214946)
(1.54518 -2.19378e-20 -0.202093)
(1.62267 -2.12113e-20 -0.188039)
(1.68111 0 -0.172889)
(1.72249 9.70775e-21 -0.15629)
(1.74761 -4.73555e-20 -0.137082)
(1.75485 -1.81129e-20 -0.116181)
(1.74212 0 -0.0966856)
(1.71534 1.67257e-20 -0.0759077)
(1.66371 -3.656e-20 -0.0483565)
(1.5595 5.92166e-23 -0.0172263)
(1.4177 3.83169e-21 0.0101825)
(1.28227 -1.63937e-20 0.0326844)
(1.17035 1.59428e-20 0.0496387)
(1.08201 1.33316e-20 0.0564145)
(1.01729 0 0.0497956)
(0.984741 -1.17456e-20 0.0310047)
(0.981929 -1.06708e-20 -0.00246661)
(1.02677 -9.32619e-21 -0.0577665)
(1.12726 -7.75852e-21 -0.139989)
(1.28992 1.99392e-22 -0.251241)
(1.53432 2.26856e-21 -0.392702)
(-0.00190794 2.64689e-19 -0.20005)
(-0.0607476 0 -0.267612)
(0.105719 0 -0.299242)
(0.293028 2.50363e-19 -0.303541)
(0.500178 -1.60888e-21 -0.307846)
(0.682814 -7.49638e-20 -0.306636)
(0.820151 0 -0.29777)
(0.915143 4.23048e-20 -0.283672)
(0.976485 3.05428e-22 -0.266921)
(1.01107 0 -0.248365)
(1.02377 -4.18017e-20 -0.228029)
(1.0174 0 -0.205834)
(0.993094 0 -0.181678)
(0.952234 7.56873e-20 -0.153522)
(0.894922 -9.01006e-21 -0.118317)
(0.791546 1.76024e-20 -0.0764048)
(0.647643 -1.70485e-20 -0.0298477)
(0.520338 7.44277e-20 0.0174729)
(0.417637 3.96114e-21 0.0549908)
(0.326986 -3.90473e-21 0.0756994)
(0.248732 3.01299e-20 0.0826344)
(0.18898 -1.60083e-20 0.0799594)
(0.150674 3.4071e-21 0.0662022)
(0.139999 -3.21123e-21 0.0381094)
(0.153636 -2.23764e-20 -0.00683783)
(0.215065 0 -0.0747779)
(0.319165 2.79362e-20 -0.167136)
(0.458702 1.48184e-20 -0.284601)
(0.635926 1.14987e-22 -0.42427)
(0.805541 3.76805e-21 -0.604629)
(-0.0100263 -8.81005e-20 -0.236552)
(-0.126907 4.35316e-22 -0.302499)
(0.019262 -7.91514e-22 -0.354076)
(0.159544 -1.27275e-19 -0.357217)
(0.30197 -1.37223e-19 -0.356532)
(0.410125 7.50265e-20 -0.34822)
(0.471924 -8.20889e-20 -0.332043)
(0.494397 -8.44771e-20 -0.311427)
(0.486365 9.63598e-22 -0.289124)
(0.455141 3.61304e-22 -0.26514)
(0.404764 8.33744e-20 -0.238016)
(0.337204 0 -0.206118)
(0.250336 5.91671e-20 -0.167992)
(0.133861 -5.72469e-20 -0.122585)
(0.0143857 -4.65907e-20 -0.0723395)
(-0.0900091 4.53076e-20 -0.0262375)
(-0.18213 0 0.011764)
(-0.254683 -7.54277e-20 0.0429925)
(-0.318307 8.17189e-21 0.0677402)
(-0.370842 3.86822e-21 0.0814169)
(-0.408734 -3.37165e-20 0.081222)
(-0.428999 -3.25709e-20 0.0676642)
(-0.42894 5.16504e-21 0.0400709)
(-0.405478 2.41042e-20 -0.00382506)
(-0.361224 2.52024e-20 -0.0689774)
(-0.286471 -2.255e-20 -0.157214)
(-0.187258 -1.80103e-20 -0.268994)
(-0.0664571 -1.53513e-20 -0.40337)
(0.0643637 9.28946e-21 -0.558337)
(0.130264 -4.79719e-22 -0.747587)
(-0.0128173 8.61615e-20 -0.277235)
(-0.188075 1.40208e-19 -0.327499)
(-0.0635486 0 -0.392928)
(0.0212371 1.29574e-19 -0.38771)
(0.0933639 1.40564e-19 -0.376021)
(0.123004 -7.90445e-20 -0.357774)
(0.109672 -1.13098e-21 -0.333396)
(0.0638471 -8.56554e-20 -0.306274)
(-0.00735746 4.32564e-20 -0.277822)
(-0.0958583 1.27326e-19 -0.247622)
(-0.194208 4.5533e-22 -0.21387)
(-0.299416 8.186e-20 -0.175139)
(-0.404299 -5.88399e-20 -0.13328)
(-0.50252 3.84062e-20 -0.0910147)
(-0.589908 -1.96924e-20 -0.0495593)
(-0.662338 9.92021e-21 -0.0106739)
(-0.723625 -4.43793e-20 0.0231847)
(-0.775453 3.34816e-20 0.0507986)
(-0.815473 8.10842e-21 0.0701313)
(-0.842079 -4.09583e-21 0.0769538)
(-0.854285 -3.44728e-20 0.068817)
(-0.851268 2.8769e-20 0.0453496)
(-0.832266 0 0.00578305)
(-0.797657 -2.55603e-20 -0.0520399)
(-0.745155 0 -0.131917)
(-0.676868 2.09934e-20 -0.235558)
(-0.597037 0 -0.361229)
(-0.514554 -3.57073e-22 -0.504463)
(-0.455181 -8.98908e-21 -0.655444)
(-0.446842 -3.32594e-21 -0.789459)
(-0.0105471 -8.80495e-20 -0.322723)
(-0.247725 -2.67968e-19 -0.342138)
(-0.147806 5.09893e-19 -0.409858)
(-0.127556 0 -0.387541)
(-0.129004 -3.77086e-20 -0.362256)
(-0.175827 7.96725e-20 -0.332078)
(-0.255299 -8.43006e-20 -0.301163)
(-0.352977 0 -0.271315)
(-0.459449 -4.27461e-20 -0.242287)
(-0.56809 -8.5033e-20 -0.212609)
(-0.673769 0 -0.180553)
(-0.772126 -8.07962e-20 -0.145464)
(-0.860538 0 -0.10792)
(-0.937751 -7.86635e-20 -0.0695357)
(-1.00122 9.52238e-20 -0.0323217)
(-1.05476 6.59977e-20 0.0020903)
(-1.09958 2.61377e-20 0.0316968)
(-1.1339 0 0.054099)
(-1.15644 0 0.0664919)
(-1.16673 -3.94024e-21 0.0657351)
(-1.16503 6.13854e-20 0.0499509)
(-1.15175 3.70661e-21 0.01844)
(-1.12747 1.6471e-21 -0.0297714)
(-1.09358 -1.62905e-21 -0.0968676)
(-1.04829 0 -0.18503)
(-0.99669 3.92705e-20 -0.295089)
(-0.942884 0 -0.42409)
(-0.898022 2.49201e-20 -0.564743)
(-0.881496 1.4778e-20 -0.703099)
(-0.89281 0 -0.807304)
(-0.00346814 -1.70842e-19 -0.371392)
(-0.305574 0 -0.342375)
(-0.238393 -2.62022e-19 -0.397015)
(-0.287404 -7.02917e-20 -0.352544)
(-0.359797 -1.96332e-20 -0.313893)
(-0.463177 1.64357e-19 -0.277898)
(-0.581567 -1.70914e-19 -0.246741)
(-0.702423 8.5804e-20 -0.220072)
(-0.818014 7.02772e-24 -0.195805)
(-0.92416 1.69754e-19 -0.17148)
(-1.019 0 -0.14498)
(-1.10206 -4.0921e-20 -0.115351)
(-1.1727 -4.1163e-20 -0.0833478)
(-1.23043 7.77157e-20 -0.0504094)
(-1.27898 -5.66525e-20 -0.0179327)
(-1.31881 -1.11173e-19 0.0119319)
(-1.34948 1.83307e-20 0.0365198)
(-1.37033 0 0.0531137)
(-1.38103 0 0.0590095)
(-1.38195 6.58142e-20 0.0517482)
(-1.37392 -3.06424e-20 0.0298268)
(-1.35797 5.84472e-20 -0.00755459)
(-1.33533 5.40816e-20 -0.0614754)
(-1.30732 0 -0.133855)
(-1.2746 -1.29619e-21 -0.226072)
(-1.24096 -3.83141e-20 -0.338043)
(-1.21103 9.73554e-22 -0.466114)
(-1.19496 -2.49034e-20 -0.600996)
(-1.20435 -2.84524e-20 -0.725314)
(-1.22536 -4.22344e-21 -0.807888)
(0.00954353 4.97892e-19 -0.421474)
(-0.361679 -2.58367e-19 -0.319244)
(-0.337489 2.70207e-19 -0.348371)
(-0.448567 -7.39778e-20 -0.28568)
(-0.57158 1.41501e-19 -0.239959)
(-0.707839 -1.26966e-19 -0.204068)
(-0.842346 8.65842e-20 -0.178532)
(-0.966452 -1.69661e-22 -0.160161)
(-1.07606 -8.60157e-20 -0.144808)
(-1.17031 -8.43316e-20 -0.128795)
(-1.2499 0 -0.109663)
(-1.31538 8.4066e-20 -0.0868378)
(-1.36907 8.06592e-20 -0.060915)
(-1.41372 0 -0.0330908)
(-1.44949 0 -0.00534391)
(-1.47659 7.81057e-20 0.0197178)
(-1.49543 7.59304e-20 0.0393011)
(-1.50616 0 0.0506731)
(-1.50906 0 0.0512979)
(-1.50489 -6.12657e-20 0.039129)
(-1.49474 -2.01403e-22 0.012891)
(-1.47992 -6.18197e-20 -0.0282391)
(-1.46201 -5.37565e-20 -0.0853027)
(-1.44233 -4.82493e-20 -0.15976)
(-1.42276 4.22537e-20 -0.252678)
(-1.40617 0 -0.363629)
(-1.39688 0 -0.48845)
(-1.40296 0 -0.616517)
(-1.42937 1.33735e-20 -0.72849)
(-1.45595 5.13977e-22 -0.796188)
(0.0303417 -1.6585e-19 -0.470726)
(-0.417154 0 -0.261405)
(-0.437718 -1.41362e-19 -0.267182)
(-0.592425 1.18237e-19 -0.1942)
(-0.744712 0 -0.148408)
(-0.89355 4.35427e-20 -0.118943)
(-1.02871 -4.36804e-20 -0.103341)
(-1.14488 8.71148e-20 -0.0966846)
(-1.24038 -8.69926e-20 -0.0931871)
(-1.31749 -1.28463e-19 -0.0874558)
(-1.37937 0 -0.0766271)
(-1.4296 -8.32659e-20 -0.0602089)
(-1.47028 0 -0.0395459)
(-1.50225 0 -0.0167024)
(-1.52583 -2.00568e-20 0.00616192)
(-1.54163 -3.8061e-20 0.0265929)
(-1.55061 -1.72743e-19 0.0418137)
(-1.55359 0 0.0490309)
(-1.55131 0 0.0458025)
(-1.54469 -6.83508e-20 0.0303259)
(-1.53486 0 0.0014946)
(-1.5232 0 -0.0414512)
(-1.51148 5.35922e-20 -0.099399)
(-1.50115 4.80178e-20 -0.173384)
(-1.4943 -4.20695e-20 -0.264396)
(-1.49338 0 -0.372161)
(-1.50189 0 -0.492391)
(-1.5255 0 -0.613768)
(-1.56401 1.07762e-20 -0.716079)
(-1.59421 4.13523e-22 -0.774008)
(0.0574117 0 -0.502849)
(-0.470801 0 -0.16564)
(-0.52516 -1.50577e-19 -0.161234)
(-0.704286 2.04959e-19 -0.0857223)
(-0.866926 0 -0.0433784)
(-1.01299 -8.8294e-20 -0.0252736)
(-1.13671 2.19999e-19 -0.0256837)
(-1.23704 -1.75008e-19 -0.0352978)
(-1.31555 8.58368e-20 -0.0452553)
(-1.3755 0 -0.0496098)
(-1.42159 0 -0.0458412)
(-1.45736 -4.392e-20 -0.0348161)
(-1.4844 4.39985e-20 -0.0191105)
(-1.50346 0 -0.00113197)
(-1.51521 0 0.0171549)
(-1.52074 0 0.033603)
(-1.52146 6.78283e-20 0.045497)
(-1.51865 -6.82033e-20 0.0499172)
(-1.51334 -7.43117e-20 0.0443741)
(-1.50642 6.79787e-20 0.0271725)
(-1.4989 6.52337e-20 -0.00263504)
(-1.49207 0 -0.0456461)
(-1.48766 -5.33607e-20 -0.102533)
(-1.48732 0 -0.174057)
(-1.4925 3.99055e-20 -0.261169)
(-1.50582 5.36832e-23 -0.364094)
(-1.5297 2.31134e-22 -0.47893)
(-1.5677 0 -0.594343)
(-1.61569 -9.62472e-22 -0.689854)
(-1.64886 3.30388e-21 -0.741852)
(0.073315 -3.21749e-19 -0.47924)
(-0.495595 1.39231e-19 -0.0500122)
(-0.58764 -1.40177e-19 -0.0364604)
(-0.769159 2.72307e-21 0.0387327)
(-0.923265 0 0.0663298)
(-1.05865 0 0.0662685)
(-1.17018 0 0.0481549)
(-1.25515 -8.74238e-20 0.0220044)
(-1.31481 8.69678e-20 -0.00200517)
(-1.35467 -1.3253e-19 -0.0161373)
(-1.38192 -4.34343e-20 -0.0181991)
(-1.4013 4.23009e-20 -0.0113907)
(-1.41404 -1.30976e-19 7.728e-05)
(-1.42013 -1.09773e-19 0.0136741)
(-1.42021 2.13634e-20 0.0281011)
(-1.41606 0 0.041724)
(-1.4098 7.36172e-20 0.0518092)
(-1.40312 7.77452e-20 0.05513)
(-1.39704 6.6549e-21 0.0489727)
(-1.39229 0 0.0316426)
(-1.38957 -1.31865e-19 0.00235465)
(-1.38982 -6.08998e-20 -0.0392455)
(-1.39441 7.9137e-22 -0.0936053)
(-1.40496 -1.12481e-21 -0.161352)
(-1.42169 -3.97528e-20 -0.24314)
(-1.44787 -3.198e-20 -0.339945)
(-1.48511 2.42212e-20 -0.448842)
(-1.53536 -5.15914e-23 -0.559157)
(-1.59163 -7.42883e-22 -0.650591)
(-1.6278 0 -0.699801)
(0.106977 3.29146e-19 -0.360082)
(-0.484349 -1.48045e-19 0.0857907)
(-0.606731 1.4607e-19 0.105602)
(-0.7738 0 0.163168)
(-0.91965 0 0.17752)
(-1.0467 -8.81479e-20 0.159556)
(-1.14467 -1.41904e-21 0.119784)
(-1.209 8.49737e-20 0.0723077)
(-1.24259 1.74908e-19 0.0316042)
(-1.25542 1.77608e-19 0.00850941)
(-1.2593 0 0.00383864)
(-1.2604 -9.10136e-20 0.00928181)
(-1.25824 1.94427e-20 0.0178934)
(-1.25098 6.54253e-20 0.0277755)
(-1.23909 0 0.0393775)
(-1.22543 0 0.0519732)
(-1.21321 -8.33442e-20 0.0624774)
(-1.20449 0 0.0669264)
(-1.20018 8.13305e-20 0.0621636)
(-1.20064 -4.71041e-21 0.046417)
(-1.2061 6.66752e-20 0.0190422)
(-1.21686 -2.73086e-21 -0.0200535)
(-1.23337 7.03409e-22 -0.0710183)
(-1.25656 1.98068e-22 -0.13437)
(-1.28641 -3.95216e-20 -0.210495)
(-1.32422 6.32824e-20 -0.300422)
(-1.37314 -9.06444e-22 -0.402935)
(-1.43393 9.62935e-23 -0.508791)
(-1.49816 -9.10191e-21 -0.598516)
(-1.53802 4.88623e-21 -0.647858)
(0.158675 -3.73385e-19 -0.134204)
(-0.428523 0 0.217582)
(-0.573313 0 0.240474)
(-0.726052 8.79171e-20 0.292135)
(-0.868795 -8.61382e-20 0.295098)
(-0.98942 -8.65056e-20 0.252798)
(-1.07004 8.28459e-20 0.183301)
(-1.10506 8.51125e-20 0.107649)
(-1.10065 -1.32767e-19 0.0465738)
(-1.07529 -4.49515e-20 0.0175531)
(-1.05012 0 0.0178606)
(-1.03191 9.05385e-20 0.0269833)
(-1.0145 6.7417e-20 0.0342811)
(-0.99226 2.29284e-20 0.0408959)
(-0.966068 -1.15302e-20 0.0511042)
(-0.941281 2.27246e-20 0.0655078)
(-0.922916 -1.12023e-20 0.0797398)
(-0.913289 -5.25895e-21 0.0883279)
(-0.912849 2.72512e-21 0.0875042)
(-0.921511 4.75697e-21 0.0754574)
(-0.939094 -2.28011e-21 0.0516131)
(-0.965167 1.27069e-19 0.0159809)
(-0.998897 -5.72559e-20 -0.0313525)
(-1.03931 4.03736e-22 -0.090635)
(-1.0869 3.9475e-20 -0.162476)
(-1.13679 -3.13243e-20 -0.246015)
(-1.19646 -2.32831e-20 -0.34191)
(-1.26652 1.80738e-22 -0.443528)
(-1.33914 -1.79403e-22 -0.533334)
(-1.38442 -5.07356e-22 -0.585743)
(0.581279 -1.80455e-19 -1.07402)
(-0.490235 1.0236e-19 -0.0815454)
(-0.473677 -8.37643e-20 0.417077)
(-0.630201 2.09942e-19 0.498207)
(-0.784353 -8.35842e-20 0.47506)
(-0.904075 -4.03964e-20 0.376881)
(-0.961669 -8.39486e-20 0.247815)
(-0.953885 -8.49283e-20 0.119853)
(-0.891485 0 0.026042)
(-0.809923 -9.5126e-20 -0.000524524)
(-0.750416 0 0.022181)
(-0.715854 0 0.0422519)
(-0.683672 7.28118e-20 0.0477868)
(-0.641828 2.3756e-20 0.0499976)
(-0.594266 -8.68712e-20 0.0606812)
(-0.552333 -1.19463e-20 0.0816099)
(-0.524192 -5.7815e-21 0.104593)
(-0.51176 5.71987e-21 0.121478)
(-0.514325 -8.81785e-20 0.128186)
(-0.531435 3.01315e-22 0.123239)
(-0.563074 -2.98516e-22 0.105926)
(-0.60863 -6.46334e-20 0.0757762)
(-0.666025 5.50991e-20 0.0325795)
(-0.731892 3.05785e-21 -0.0236808)
(-0.803343 -2.7196e-22 -0.0932327)
(-0.876109 -1.10392e-21 -0.174359)
(-0.948826 -5.7353e-22 -0.264912)
(-1.02927 5.68693e-22 -0.362351)
(-1.11193 -1.40077e-20 -0.452948)
(-1.16639 -8.10061e-21 -0.51112)
(9.99818 1.81785e-20 0.0758842)
(9.98939 -5.66874e-20 0.149131)
(9.97472 -3.94207e-20 0.221966)
(9.95525 -2.47536e-19 0.296202)
(9.93136 8.61591e-20 0.373127)
(9.90303 -7.12403e-19 0.453916)
(9.87059 1.84917e-19 0.53973)
(9.83462 -3.85769e-19 0.631657)
(9.79529 -1.99634e-19 0.730741)
(9.75291 8.22963e-19 0.837997)
(9.70817 -6.42152e-19 0.954483)
(9.66164 2.18271e-19 1.08138)
(9.61394 -2.33565e-21 1.21996)
(9.56592 -2.35846e-19 1.37162)
(9.51866 -2.43572e-19 1.53794)
(9.47347 1.96273e-18 1.72059)
(9.4319 -2.0018e-18 1.92136)
(9.39598 1.01697e-18 2.14241)
(9.3683 0 2.38638)
(9.35241 0 2.65601)
(9.35211 -5.08144e-19 2.95435)
(9.37258 1.00057e-18 3.28523)
(9.42101 2.95273e-20 3.65303)
(9.50603 -9.20987e-19 4.06288)
(9.64305 5.22617e-18 4.51983)
(9.83389 -1.60153e-18 5.03401)
(10.1641 4.12698e-18 5.58135)
(10.4328 -2.19812e-18 6.25212)
(11.5827 1.77112e-18 6.68422)
(12.7581 2.02068e-19 9.361)
(9.99852 1.76325e-20 0.0785095)
(9.99064 5.29814e-19 0.15431)
(9.97762 1.14803e-19 0.229695)
(9.96051 7.9663e-20 0.306515)
(9.93963 -1.66279e-19 0.386072)
(9.9149 5.18326e-19 0.469539)
(9.88671 3.57127e-19 0.558063)
(9.85565 0 0.652723)
(9.822 3.85381e-19 0.754531)
(9.7862 -7.96138e-19 0.864451)
(9.74889 0 0.983511)
(9.71073 0 1.11286)
(9.67247 2.17299e-19 1.25369)
(9.63498 -1.11582e-18 1.40728)
(9.59942 6.86018e-19 1.57513)
(9.56741 -9.34373e-19 1.75879)
(9.5404 0 1.9598)
(9.52026 4.84098e-19 2.18005)
(9.50999 -9.72019e-19 2.42183)
(9.51334 -1.44607e-18 2.68749)
(9.53395 2.41578e-18 2.9796)
(9.57734 -2.82898e-18 3.30132)
(9.65071 2.78049e-18 3.65598)
(9.76227 -8.85326e-19 4.04719)
(9.92648 -1.64803e-18 4.47814)
(10.1479 -1.48789e-18 4.95262)
(10.4936 -1.3473e-18 5.45094)
(10.8164 2.14864e-18 5.98805)
(11.5411 -1.74366e-18 6.3504)
(12.2887 -1.06564e-18 7.14367)
(9.99887 5.62681e-19 0.0808817)
(9.99194 -5.59931e-20 0.158987)
(9.98059 3.70378e-20 0.236651)
(9.96589 0 0.315754)
(9.94816 0 0.397641)