/*--------------------------------*- C++ -*----------------------------------*\
| =========                 |                                                 |
| \\      /  F ield         | OpenFOAM: The Open Source CFD Toolbox           |
|  \\    /   O peration     | Version:  dev                                   |
|   \\  /    A nd           | Web:      www.OpenFOAM.org                      |
|    \\/     M anipulation  |                                                 |
\*---------------------------------------------------------------------------*/
FoamFile
{
    version     2.0;
    format      ascii;
    class       surfaceVectorField;
    location    "1.62";
    object      Uf;
}
// * * * * * * * * * * * * * * * * * * * * * * * * * * * * * * * * * * * * * //

dimensions      [0 1 -1 0 0 0 0];

internalField   nonuniform List<vector> 
5457
(
(9.91394 0 0.0211094)
(9.96995 4.13299e-20 0.0357215)
(9.82379 9.77092e-21 0.0261404)
(9.93373 -4.55816e-20 0.0386395)
(9.72613 1.08056e-20 0.0299797)
(9.87613 -2.04589e-20 0.0435308)
(9.61848 -1.67701e-21 0.0339066)
(9.80253 7.15902e-21 0.04989)
(9.50086 2.52651e-22 0.0379103)
(9.71767 -8.98297e-21 0.0566408)
(9.37346 -3.69011e-21 0.0420356)
(9.62252 2.82143e-20 0.0637035)
(9.23607 5.30975e-22 0.0464111)
(9.51658 -6.63399e-21 0.0712946)
(9.08819 1.42111e-20 0.051154)
(9.39924 -6.87635e-21 0.079608)
(8.92914 -5.64043e-22 0.056366)
(9.26993 -2.17518e-20 0.0887882)
(8.75809 -2.38761e-20 0.0621561)
(9.12799 5.30499e-20 0.0989927)
(8.57401 1.20995e-21 0.0686483)
(8.97258 -6.36297e-20 0.110414)
(8.3757 3.23325e-20 0.0759822)
(8.80266 8.38536e-21 0.12327)
(8.16177 -3.47949e-21 0.084315)
(8.61697 1.78189e-20 0.137807)
(7.93063 1.34628e-21 0.0938264)
(8.41408 -1.6178e-20 0.154301)
(7.6805 6.05881e-22 0.104728)
(8.19237 1.97658e-20 0.173063)
(7.40939 -1.20518e-20 0.117271)
(7.94997 5.67868e-20 0.194464)
(7.11505 1.6991e-20 0.131743)
(7.68481 -8.49849e-20 0.218923)
(6.795 1.12631e-20 0.148477)
(7.39455 -1.59807e-19 0.246907)
(6.44655 5.23744e-20 0.167851)
(7.0766 1.88501e-19 0.278923)
(6.06679 -3.31798e-21 0.190293)
(6.72811 7.65086e-20 0.31551)
(5.65265 -8.10806e-20 0.21629)
(6.34599 -5.31821e-20 0.357227)
(5.20096 -2.78556e-20 0.246387)
(5.92693 -8.88238e-22 0.404612)
(4.70853 0 0.28121)
(5.46742 0 0.458145)
(4.17219 2.67554e-19 0.321493)
(4.96374 -1.216e-19 0.518183)
(3.58888 5.90325e-20 0.368095)
(4.41195 7.79143e-19 0.584879)
(2.95567 -2.00462e-19 0.421996)
(3.80769 -6.58955e-19 0.657962)
(2.26965 2.90732e-19 0.484174)
(3.14557 0 0.736167)
(1.5283 -1.3093e-19 0.554646)
(2.41776 1.41574e-18 0.815305)
(0.726346 -2.55002e-19 0.592618)
(1.59339 -1.56195e-18 0.883652)
(0.851326 -2.45967e-19 0.826587)
(10.0067 -5.9892e-21 0.0410653)
(10.0015 -1.16562e-21 0.0328729)
(9.98443 -7.5228e-20 0.0520596)
(9.99486 -1.45602e-21 0.0481425)
(9.94812 -2.34965e-20 0.0610676)
(9.97012 -8.26535e-21 0.0596365)
(9.89931 -4.76951e-22 0.0707717)
(9.92953 5.73021e-21 0.0724235)
(9.838 1.97382e-20 0.0811015)
(9.8766 -4.1744e-20 0.0860717)
(9.76432 2.45796e-20 0.0920981)
(9.81247 1.26018e-20 0.100453)
(9.67817 -1.40382e-20 0.104026)
(9.7369 2.63443e-20 0.115909)
(9.57919 -4.3124e-20 0.117142)
(9.64942 2.7688e-20 0.132801)
(9.46684 3.32869e-20 0.131683)
(9.54957 -5.77183e-20 0.15142)
(9.34042 1.1112e-20 0.147912)
(9.43677 6.06432e-20 0.172085)
(9.19901 -5.51254e-20 0.166138)
(9.31031 -3.16459e-20 0.195181)
(9.04151 -5.95736e-21 0.186708)
(9.16926 1.65714e-20 0.221143)
(8.86663 4.49573e-21 0.210014)
(9.01252 2.19304e-21 0.250464)
(8.67288 2.87708e-21 0.236499)
(8.83882 7.841e-20 0.283699)
(8.45854 7.65581e-20 0.26668)
(8.64668 -7.60282e-20 0.321489)
(8.22169 -1.86691e-20 0.301154)
(8.43441 2.37874e-19 0.364588)
(7.96009 -2.63115e-19 0.340599)
(8.20007 -2.58958e-19 0.413861)
(7.67129 2.32263e-20 0.385765)
(7.9415 -1.93779e-19 0.470287)
(7.35249 2.10815e-19 0.437472)
(7.65621 -1.35485e-21 0.534952)
(7.00064 2.45895e-20 0.496595)
(7.34142 -2.52594e-19 0.609046)
(6.61233 2.81748e-20 0.564037)
(6.99399 7.78499e-19 0.69385)
(6.18386 2.73544e-20 0.64069)
(6.61035 4.58858e-19 0.790694)
(5.71114 -1.23152e-19 0.727398)
(6.18648 0 0.90091)
(5.1896 4.00717e-19 0.824937)
(5.71766 -9.63393e-19 1.02577)
(4.61387 4.81114e-20 0.934013)
(5.19817 1.49735e-18 1.16649)
(3.97709 -4.56425e-19 1.0552)
(4.62059 -5.88841e-19 1.32419)
(3.2689 1.12592e-18 1.18934)
(3.97426 0 1.50003)
(2.46943 3.92686e-20 1.34176)
(3.24229 1.11927e-18 1.69619)
(1.52537 -1.5368e-18 1.55152)
(2.37978 -9.69609e-19 1.92484)
(1.44645 -2.83002e-18 2.24413)
(9.99981 3.4253e-21 0.0425022)
(9.9993 4.21855e-20 0.0329661)
(9.98144 6.55384e-20 0.059001)
(9.99012 1.22057e-19 0.0560579)
(9.94896 2.13228e-20 0.0738851)
(9.96663 6.52367e-20 0.0741799)
(9.90514 -3.65222e-20 0.0898694)
(9.92909 4.54904e-20 0.0928145)
(9.85025 -4.78167e-20 0.107033)
(9.87979 1.19678e-20 0.112602)
(9.78428 1.46136e-20 0.125459)
(9.81994 -3.75051e-20 0.133557)
(9.70713 6.80791e-20 0.145495)
(9.74946 9.29539e-23 0.156077)
(9.61853 1.14517e-20 0.167517)
(9.66809 4.13129e-20 0.180644)
(9.51804 -2.81212e-20 0.191892)
(9.57543 -5.73119e-20 0.20768)
(9.40505 1.61368e-20 0.219049)
(9.47096 3.00182e-20 0.237658)
(9.27876 4.09138e-20 0.249482)
(9.35411 1.58485e-20 0.271127)
(9.13826 2.44594e-20 0.283758)
(9.22409 -1.24702e-19 0.308702)
(8.98246 7.74607e-20 0.322523)
(9.08005 2.77273e-19 0.351087)
(8.81008 -3.2438e-21 0.366513)
(8.92099 -7.27784e-20 0.399087)
(8.61966 9.06763e-20 0.416591)
(8.74566 -7.75384e-20 0.453637)
(8.40951 -1.10505e-20 0.47376)
(8.55268 1.63236e-19 0.515839)
(8.17772 -1.88469e-19 0.539171)
(8.34048 -4.8696e-19 0.586967)
(7.92208 -2.14896e-19 0.614119)
(8.10729 3.05664e-19 0.668485)
(7.64011 -4.6853e-19 0.700052)
(7.85105 -2.35888e-19 0.762062)
(7.3289 5.16838e-19 0.79857)
(7.5694 -2.28412e-19 0.869583)
(6.98511 1.20438e-18 0.911412)
(7.25959 8.29021e-19 0.993163)
(6.60483 4.24972e-19 1.04041)
(6.91832 1.39749e-18 1.13516)
(6.18341 -8.52617e-19 1.18745)
(6.54164 -1.7814e-18 1.29815)
(5.71501 1.55922e-19 1.35454)
(6.12457 7.82815e-20 1.485)
(5.19191 8.44108e-19 1.5441)
(5.66055 7.4159e-19 1.69906)
(4.60295 -1.28342e-19 1.75964)
(5.1404 8.68847e-19 1.94483)
(3.93046 0 2.00798)
(4.55074 -3.03542e-18 2.22938)
(3.14143 1.32038e-19 2.30134)
(3.86857 2.27729e-18 2.56785)
(2.20804 -2.29092e-18 2.73093)
(3.09028 1.32812e-19 2.96906)
(1.98842 -1.73073e-18 3.68594)
(9.99509 1.62393e-19 0.0470297)
(9.99792 5.13219e-21 0.0350198)
(9.9769 1.20508e-19 0.0706257)
(9.98656 -5.11135e-21 0.0639063)
(9.9452 8.89892e-20 0.0923502)
(9.96278 5.58248e-23 0.0883919)
(9.90225 9.32496e-20 0.114755)
(9.92615 -9.06334e-20 0.11283)
(9.84862 2.12567e-20 0.13839)
(9.87805 7.1353e-20 0.138559)
(9.78438 -5.1269e-20 0.163562)
(9.81961 -1.89592e-22 0.165843)
(9.7095 -2.58725e-20 0.190752)
(9.75091 2.57542e-20 0.195132)
(9.62381 -2.93365e-20 0.220475)
(9.67186 5.43164e-20 0.226996)
(9.52699 2.45856e-21 0.253259)
(9.58212 5.73156e-20 0.261988)
(9.41852 2.94754e-20 0.289696)
(9.48122 -5.93724e-20 0.300727)
(9.29777 -1.52319e-19 0.330442)
(9.36875 -3.12596e-20 0.343898)
(9.16403 1.35365e-19 0.376237)
(9.24404 -3.14545e-19 0.392238)
(9.0165 1.2084e-19 0.42795)
(9.10642 4.14011e-19 0.446605)
(8.85421 -1.47276e-19 0.486584)
(8.95519 -3.12187e-19 0.508027)
(8.67601 -8.51048e-22 0.553304)
(8.78936 3.02619e-19 0.577698)
(8.48062 -3.23719e-19 0.629464)
(8.60791 -1.52212e-19 0.656989)
(8.26659 2.02015e-20 0.716637)
(8.40968 -3.28961e-19 0.747497)
(8.03226 2.75951e-19 0.816641)
(8.19337 -1.26852e-21 0.851093)
(7.77573 4.09255e-21 0.931551)
(7.95751 3.6121e-19 0.96996)
(7.49474 9.99202e-20 1.06374)
(7.7004 1.30322e-21 1.10661)
(7.18655 1.02996e-18 1.21592)
(7.41998 -4.80099e-20 1.26398)
(6.84779 -8.46444e-19 1.39119)
(7.11374 8.6041e-19 1.44548)
(6.47419 -8.34158e-19 1.59304)
(6.77854 -1.66959e-18 1.65512)
(6.06 6.69669e-19 1.8257)
(6.41016 8.04733e-19 1.89769)
(5.59719 7.63876e-19 2.09454)
(6.00288 -2.31189e-19 2.17926)
(5.07387 -2.02408e-18 2.4076)
(5.54849 -1.14559e-18 2.50814)
(4.47279 -8.09282e-19 2.78018)
(5.03631 -1.10094e-18 2.89666)
(3.75622 2.30553e-18 3.22397)
(4.43524 2.12263e-18 3.3746)
(2.97838 5.70963e-19 3.8507)
(3.85077 0 3.88612)
(2.60618 -3.80777e-18 4.96021)
(9.99259 -1.62661e-19 0.0524586)
(9.99716 -7.96947e-20 0.0381089)
(9.97387 -1.25442e-19 0.0818575)
(9.98453 -8.29315e-20 0.0719858)
(9.94276 -1.81547e-19 0.10935)
(9.96046 -4.34055e-20 0.102347)
(9.90063 -1.09211e-19 0.137369)
(9.92457 4.4783e-20 0.13248)
(9.84813 4.84758e-20 0.166861)
(9.8777 -2.37569e-20 0.163998)
(9.78537 7.73691e-20 0.198324)
(9.82076 -2.49376e-20 0.197412)
(9.71237 1.0655e-19 0.232323)
(9.75388 5.1787e-20 0.233247)
(9.62901 1.41069e-19 0.269473)
(9.6771 5.4667e-20 0.272145)
(9.53502 -6.70393e-21 0.310424)
(9.59007 2.99109e-20 0.314788)
(9.42998 -1.19646e-19 0.355891)
(9.49239 -2.08782e-19 0.361907)
(9.31338 -1.98565e-19 0.406654)
(9.38379 1.23574e-19 0.414311)
(9.18461 -2.28903e-20 0.463562)
(9.26375 -1.28137e-21 0.47286)
(9.04306 -3.1765e-20 0.52763)
(9.13167 1.38499e-19 0.538509)
(8.88803 1.48273e-19 0.600073)
(8.98698 -2.87168e-19 0.612452)
(8.71866 1.43686e-19 0.682292)
(8.82903 2.5432e-21 0.696097)
(8.53402 -1.60439e-19 0.775897)
(8.65709 1.57007e-19 0.791032)
(8.33311 -3.44816e-19 0.882777)
(8.47035 -1.05709e-20 0.899101)
(8.11479 8.91116e-20 1.00516)
(8.26796 -3.29289e-19 1.0225)
(7.87777 3.53092e-19 1.14565)
(8.04896 4.07166e-19 1.16381)
(7.62056 -1.47179e-19 1.30726)
(7.81232 7.52676e-19 1.32608)
(7.3413 -2.03694e-19 1.49361)
(7.55681 -7.7337e-19 1.51291)
(7.03759 5.03434e-21 1.70899)
(7.28091 -8.19433e-19 1.72868)
(6.70635 -5.78219e-21 1.95858)
(6.98269 9.37294e-19 1.9787)
(6.34321 -1.05198e-19 2.24886)
(6.65953 1.73771e-18 2.26958)
(5.94205 -2.13042e-18 2.58841)
(6.30785 -3.30976e-18 2.60979)
(5.49392 -2.6582e-19 2.98889)
(5.92242 1.69738e-18 3.01094)
(4.98965 1.79504e-18 3.47141)
(5.50064 9.23231e-20 3.48657)
(4.38421 -1.27581e-19 4.03758)
(4.99187 -2.64197e-19 4.08533)
(3.82055 -4.51829e-18 4.78901)
(4.66898 2.0244e-19 4.62568)
(3.3007 -4.18229e-18 5.99928)
(9.99124 0 0.0583271)
(9.99671 -4.94362e-21 0.041758)
(9.97209 0 0.0929632)
(9.9835 -5.15805e-21 0.0802502)
(9.9416 1.84869e-19 0.126012)
(9.95937 7.52063e-20 0.116037)
(9.90051 1.28873e-19 0.159681)
(9.92426 1.133e-19 0.151662)
(9.84942 -9.72095e-20 0.195084)
(9.87879 -4.74211e-20 0.188778)
(9.78848 -4.89904e-20 0.232838)
(9.82359 -4.97682e-20 0.228104)
(9.7177 -4.49051e-23 0.273574)
(9.75886 -2.486e-22 0.270248)
(9.63699 -5.70269e-20 0.31799)
(9.68469 5.40526e-20 0.31593)
(9.5461 -1.76683e-19 0.366837)
(9.60072 -5.59477e-20 0.365932)
(9.44474 4.05178e-20 0.420933)
(9.50665 -1.19635e-19 0.421063)
(9.33254 3.18757e-19 0.481182)
(9.40226 1.5494e-19 0.482228)
(9.20898 1.62662e-19 0.548558)
(9.28726 1.63777e-19 0.550435)
(9.07353 -1.24283e-19 0.624183)
(9.16114 -2.69787e-19 0.626751)
(8.92568 -4.27985e-19 0.709419)
(9.02337 1.5638e-19 0.712447)
(8.76488 1.81144e-20 0.805865)
(8.87359 -3.01242e-19 0.809073)
(8.5905 3.04376e-19 0.915344)
(8.71132 3.10631e-19 0.918409)
(8.4019 -8.0756e-23 1.03999)
(8.53605 -1.01888e-20 1.0425)
(8.19837 0 1.18236)
(8.34731 3.38446e-19 1.18379)
(7.9792 8.1092e-19 1.34546)
(8.14463 -3.47655e-19 1.34517)
(7.74362 1.0781e-19 1.53285)
(7.92758 1.5337e-18 1.53008)
(7.4907 -1.38878e-18 1.74886)
(7.69572 -1.37865e-18 1.74265)
(7.21925 1.27787e-19 1.99883)
(7.44855 -8.12504e-19 1.988)
(6.92773 2.68129e-18 2.2893)
(7.1856 7.25864e-19 2.27251)
(6.61408 -1.47381e-18 2.62851)
(6.9062 1.84039e-18 2.60405)
(6.27548 4.8003e-19 3.02735)
(6.60959 -3.29633e-18 2.99271)
(5.90749 2.08375e-18 3.49928)
(6.29398 3.7867e-18 3.4523)
(5.513 -1.94957e-18 4.06787)
(5.96924 -1.21342e-19 3.99292)
(5.03422 5.29301e-20 4.71782)
(5.54943 -1.72756e-18 4.69049)
(4.68187 1.86084e-19 5.51493)
(5.51017 -3.70943e-21 5.18776)
(4.03718 -3.21659e-18 6.79158)
(9.99057 -1.00902e-20 0.0644425)
(9.99651 -4.94576e-21 0.0456827)
(9.97129 7.18504e-20 0.10398)
(9.98313 -5.16047e-21 0.0885779)
(9.94149 4.43059e-21 0.142319)
(9.9592 -1.81949e-19 0.129432)
(9.90158 -6.63604e-20 0.181425)
(9.92501 -6.51744e-22 0.170312)
(9.85208 0 0.222482)
(9.88108 -7.03101e-20 0.212817)
(9.79318 0 0.26622)
(9.82786 -4.92372e-20 0.25781)
(9.72494 5.48966e-20 0.313356)
(9.76558 5.11083e-20 0.305982)
(9.64726 5.30776e-20 0.364684)
(9.69434 2.00713e-22 0.358145)
(9.55993 -4.08243e-23 0.421039)
(9.61384 5.63158e-20 0.415172)
(9.46272 -2.26463e-22 0.48331)
(9.52386 -5.88748e-20 0.477935)
(9.35537 0 0.552501)
(9.4242 0 0.547392)
(9.23757 -2.76309e-19 0.629719)
(9.31472 0 0.624649)
(9.10892 1.7951e-20 0.716189)
(9.19515 -2.71827e-19 0.710918)
(8.969 2.75895e-19 0.813363)
(9.06505 3.15238e-19 0.807554)
(8.81746 1.22767e-21 0.92297)
(8.92418 0 0.916186)
(8.65397 -9.06767e-21 1.04701)
(8.77231 3.06376e-19 1.03873)
(8.47821 3.3345e-19 1.18781)
(8.60922 -3.23988e-19 1.17739)
(8.28988 -1.82974e-20 1.34815)
(8.43478 3.38524e-19 1.33478)
(8.08877 4.00365e-19 1.53136)
(8.24898 -1.03591e-18 1.51402)
(7.87478 1.38957e-20 1.74139)
(8.05195 7.25075e-19 1.71884)
(7.64791 -7.97039e-19 1.98306)
(7.84398 -2.0976e-20 1.95374)
(7.40822 -2.00603e-19 2.26243)
(7.62554 -9.8642e-20 2.22429)
(7.15586 -1.0127e-19 2.58705)
(7.39771 1.40647e-18 2.5376)
(6.8913 0 2.96622)
(7.16178 -3.10726e-18 2.90233)
(6.61554 0 3.41198)
(6.91979 1.59038e-18 3.32922)
(6.32858 1.63051e-18 3.93728)
(6.67279 0 3.83327)
(6.04584 5.29534e-20 4.56643)
(6.44634 1.23081e-19 4.4164)
(5.69419 -1.82015e-18 5.26493)
(6.10535 -9.99543e-20 5.19161)
(5.51596 -3.60427e-18 6.04619)
(6.33583 -3.30378e-18 5.59733)
(4.77786 -2.5801e-19 7.35991)
(9.99034 0 0.0706409)
(9.99648 0 0.0497021)
(9.97119 -2.62903e-19 0.114823)
(9.98318 1.42523e-19 0.0968549)
(9.94222 -1.83216e-19 0.158174)
(9.95972 -6.50216e-20 0.142467)
(9.90368 -6.00471e-21 0.202476)
(9.92664 6.69042e-20 0.188348)
(9.85601 -1.19168e-19 0.248937)
(9.88444 -7.00653e-20 0.236002)
(9.79945 3.84629e-21 0.298386)
(9.83347 -9.82178e-20 0.286386)
(9.73406 -4.55499e-21 0.351626)
(9.77396 2.0365e-19 0.340288)
(9.65977 4.43903e-21 0.409538)
(9.70597 -1.59938e-19 0.398604)
(9.57644 -4.57858e-21 0.473029)
(9.62933 5.61602e-20 0.462277)
(9.48389 -5.76367e-20 0.54304)
(9.54389 5.78725e-20 0.532235)
(9.38196 0 0.620634)
(9.44951 -2.42124e-19 0.60948)
(9.27048 0 0.707019)
(9.34615 3.79561e-19 0.695172)
(9.14924 3.52581e-20 0.803534)
(9.23367 -2.61955e-19 0.790631)
(9.01797 3.41496e-20 0.911716)
(9.11185 -2.75917e-19 0.897319)
(8.8765 3.09913e-19 1.03338)
(8.98059 2.84379e-19 1.01693)
(8.7247 -1.75267e-20 1.17064)
(8.83988 4.28985e-20 1.15145)
(8.56258 -3.09614e-19 1.32598)
(8.68974 6.16427e-19 1.30321)
(8.39025 -6.97251e-19 1.50232)
(8.53037 7.49342e-21 1.47492)
(8.20801 -6.90282e-19 1.70318)
(8.36223 -1.36116e-18 1.66983)
(8.01632 6.79756e-19 1.93279)
(8.18599 -8.08725e-21 1.89189)
(7.81603 6.76993e-19 2.19628)
(8.00257 -2.93453e-20 2.1458)
(7.60845 1.51611e-18 2.50012)
(7.81329 -7.24599e-19 2.43736)
(7.39547 -1.60165e-18 2.85244)
(7.62076 1.54907e-18 2.77401)
(7.17981 -1.53248e-18 3.26286)
(7.42814 -4.64178e-18 3.16479)
(6.96594 1.59614e-18 3.7436)
(7.23995 3.03656e-18 3.62036)
(6.7574 -1.48834e-18 4.30543)
(7.05864 -1.45616e-18 4.15637)
(6.58079 1.64288e-20 4.97185)
(6.92751 -7.67303e-20 4.7623)
(6.34846 -1.45172e-18 5.69129)
(6.65403 8.27065e-19 5.59533)
(6.2931 3.16057e-18 6.42424)
(7.11795 -3.56955e-18 5.88943)
(5.4949 4.82448e-19 7.74981)
(9.99037 1.45347e-19 0.0768003)
(9.99656 -1.55838e-19 0.0537095)
(9.9716 3.36021e-19 0.125405)
(9.98351 -2.0032e-20 0.104975)
(9.94363 1.88019e-19 0.173494)
(9.96076 2.27743e-20 0.155067)
(9.90667 4.00473e-23 0.222732)
(9.92901 -8.92275e-20 0.205671)
(9.86111 -4.96537e-20 0.274327)
(9.88874 9.32643e-20 0.258204)
(9.80718 1.07498e-19 0.329191)
(9.84028 -9.76126e-20 0.313684)
(9.74496 4.14839e-20 0.388214)
(9.7838 3.04237e-19 0.373005)
(9.67441 -1.04326e-19 0.452343)
(9.71939 -1.05698e-19 0.437128)
(9.59547 1.18677e-19 0.522536)
(9.64696 1.10644e-19 0.507033)
(9.50808 -1.31819e-19 0.599788)
(9.56646 -1.12258e-19 0.583692)
(9.41214 1.47942e-19 0.68521)
(9.47784 -2.42379e-19 0.668165)
(9.30755 1.07223e-19 0.78007)
(9.38112 1.29186e-19 0.761664)
(9.19427 -5.73638e-19 0.885794)
(9.27627 -2.64919e-19 0.865556)
(9.07225 -1.72923e-20 1.004)
(9.16327 -4.20047e-20 0.981374)
(8.94149 1.38793e-20 1.13657)
(9.04223 2.84693e-19 1.11088)
(8.80213 6.84579e-19 1.28568)
(8.91332 -2.99487e-19 1.25611)
(8.6544 9.2713e-19 1.45388)
(8.77685 9.31422e-19 1.41945)
(8.49881 -6.72493e-19 1.64419)
(8.63328 4.64106e-20 1.60365)
(8.33618 -6.64909e-19 1.86025)
(8.48347 -1.35353e-18 1.81202)
(8.16755 -7.18074e-19 2.10646)
(8.32863 7.05227e-19 2.04863)
(7.99442 -1.4393e-18 2.38805)
(8.17034 -7.54481e-19 2.31833)
(7.81924 -6.76664e-19 2.71163)
(8.01071 -6.81016e-19 2.62685)
(7.64558 -1.50037e-18 3.08548)
(7.85337 -1.36474e-18 2.98159)
(7.47816 -1.1643e-19 3.51917)
(7.70321 -1.53425e-18 3.3918)
(7.32421 2.62549e-20 4.02435)
(7.56737 1.51082e-18 3.86754)
(7.18931 -1.46701e-19 4.60896)
(7.44773 -7.76703e-20 4.42502)
(7.10843 8.54159e-19 5.29403)
(7.40593 1.41827e-18 5.0388)
(6.98428 -1.15517e-18 6.01668)
(7.19077 2.2377e-18 5.91237)
(7.00145 -2.9699e-18 6.69494)
(7.84286 -1.53149e-18 6.10078)
(6.1736 -1.0966e-19 8.01263)
(9.99058 -3.18692e-19 0.0828292)
(9.99672 -3.87389e-22 0.0576312)
(9.9724 -3.3253e-19 0.135641)
(9.98408 1.87969e-20 0.112848)
(9.94561 -2.56989e-19 0.188195)
(9.96222 -2.15743e-20 0.167155)
(9.91042 7.71349e-21 0.24209)
(9.93198 -1.33291e-19 0.222198)
(9.86716 4.1573e-20 0.298527)
(9.89384 9.28233e-20 0.279325)
(9.8161 1.06869e-19 0.358491)
(9.84807 1.43738e-19 0.339595)
(9.75732 1.49441e-19 0.422952)
(9.79485 -9.92103e-20 0.403994)
(9.69083 1.13265e-19 0.492904)
(9.73429 1.05069e-19 0.473545)
(9.61666 -1.24283e-19 0.569335)
(9.66639 1.11502e-19 0.549245)
(9.53481 -2.25186e-19 0.653285)
(9.59116 -1.15075e-19 0.632091)
(9.44528 -2.55047e-19 0.745918)
(9.50866 2.37772e-19 0.723203)
(9.34809 -2.4971e-19 0.84854)
(9.41899 -4.96268e-19 0.823833)
(9.24331 2.70512e-19 0.962617)
(9.32224 2.54568e-19 0.935363)
(9.13109 2.65164e-19 1.08982)
(9.21857 4.64033e-21 1.05936)
(9.01165 -3.72195e-20 1.23207)
(9.10827 2.77264e-19 1.19763)
(8.88535 -3.62195e-20 1.39159)
(8.99172 -8.95857e-19 1.35224)
(8.75271 3.94068e-20 1.57097)
(8.8695 5.15421e-19 1.52561)
(8.61453 -6.49772e-19 1.77323)
(8.74237 6.13524e-19 1.72047)
(8.47206 3.5742e-20 2.00204)
(8.61147 -1.26744e-18 1.94011)
(8.32698 6.56517e-19 2.26188)
(8.47845 6.64445e-19 2.1886)
(8.18149 1.26593e-21 2.55802)
(8.34559 8.06085e-20 2.47085)
(8.03878 -1.36893e-18 2.8968)
(8.2159 8.32329e-22 2.7925)
(7.90371 -1.4131e-18 3.28635)
(8.09337 -1.24275e-18 3.16053)
(7.78294 5.4042e-20 3.73605)
(7.98426 1.33283e-18 3.58402)
(7.68589 1.40844e-18 4.25686)
(7.89845 3.75387e-20 4.07243)
(7.61907 1.39815e-18 4.85354)
(7.83597 -1.12924e-18 4.64269)
(7.62129 2.75804e-18 5.54483)
(7.87537 1.19116e-18 5.25488)
(7.59574 3.39463e-18 6.26262)
(7.71335 2.84476e-18 6.15396)
(7.64457 1.41501e-18 6.90003)
(8.50995 -1.05361e-18 6.26448)
(6.81246 2.09441e-18 8.19869)
(9.99091 3.37674e-19 0.0886555)
(9.99692 1.55631e-19 0.0614141)
(9.9735 3.29076e-19 0.145454)
(9.98481 5.77209e-22 0.120399)
(9.94805 9.989e-20 0.2022)
(9.96401 1.90299e-19 0.17866)
(9.91479 -4.35956e-20 0.260465)
(9.93545 -2.41461e-19 0.237854)
(9.87402 1.96048e-19 0.321442)
(9.8996 1.82698e-19 0.299279)
(9.82603 -6.69665e-20 0.386175)
(9.8567 9.67998e-20 0.364019)
(9.77093 -1.40043e-19 0.455705)
(9.80692 -1.51342e-19 0.433139)
(9.70877 1.03436e-19 0.531058)
(9.75044 -1.03636e-19 0.507717)
(9.63964 1.16861e-19 0.613239)
(9.68737 2.16802e-19 0.588754)
(9.56364 3.54159e-19 0.70332)
(9.61771 -1.1059e-19 0.677261)
(9.48086 -1.51289e-20 0.802504)
(9.54158 1.19839e-19 0.774399)
(9.39145 1.98767e-20 0.912123)
(9.45928 -3.64798e-21 0.881441)
(9.29561 -1.50624e-20 1.03366)
(9.371 -1.21006e-19 0.99977)
(9.19366 2.02785e-20 1.16879)
(9.27705 -4.84936e-21 1.13097)
(9.08603 -5.97232e-19 1.31949)
(9.17789 2.77707e-19 1.27685)
(8.97329 -3.27589e-19 1.48799)
(9.07411 -8.60518e-19 1.4395)
(8.85627 1.09143e-18 1.67684)
(8.96653 1.1681e-18 1.6213)
(8.73607 -2.20404e-20 1.88903)
(8.85624 -5.38161e-19 1.82495)
(8.61421 -6.22744e-19 2.12818)
(8.74461 1.98132e-20 2.0537)
(8.49293 8.33402e-20 2.39872)
(8.63364 -4.06982e-20 2.31148)
(8.37518 8.00532e-20 2.70589)
(8.52619 4.31425e-20 2.60309)
(8.26481 1.23425e-19 3.05572)
(8.42612 1.14967e-19 2.93412)
(8.1674 1.48727e-18 3.45579)
(8.33783 -1.26139e-18 3.31112)
(8.09101 1.32711e-18 3.91516)
(8.26833 2.89592e-18 3.74258)
(8.04695 -2.47989e-18 4.44424)
(8.22962 -3.2231e-19 4.23727)
(8.04246 -1.47656e-18 5.04493)
(8.21998 -3.61975e-18 4.81311)
(8.11487 1.23267e-18 5.73574)
(8.33132 1.2613e-18 5.41963)
(8.18354 0 6.44749)
(8.22228 -7.96634e-19 6.32927)
(8.2372 0 7.07524)
(9.12646 1.39066e-19 6.40835)
(7.4249 -7.24439e-19 8.35299)
(9.99134 -1.84653e-19 0.0942224)
(9.99716 3.06672e-19 0.0650189)
(9.97484 -1.3423e-19 0.154777)
(9.98567 -1.81197e-19 0.127566)
(9.95088 -1.60227e-19 0.215439)
(9.96606 -1.24655e-19 0.189521)
(9.91968 -6.59144e-21 0.277779)
(9.93933 2.11473e-20 0.252571)
(9.88157 8.1773e-20 0.342981)
(9.90593 -4.46969e-20 0.317987)
(9.83682 7.74386e-21 0.412137)
(9.86605 -9.58874e-20 0.386868)
(9.78559 -1.13997e-19 0.486343)
(9.81987 9.99791e-20 0.460341)
(9.728 1.52588e-20 0.566653)
(9.76765 -2.08484e-19 0.539517)
(9.6642 -1.62417e-20 0.654083)
(9.70961 2.42083e-21 0.625405)
(9.59432 -3.41603e-19 0.74972)
(9.64576 -2.25962e-19 0.719043)
(9.51856 1.29297e-19 0.854783)
(9.57628 1.10636e-19 0.821593)
(9.4372 -1.46237e-19 0.970604)
(9.50162 4.82565e-19 0.93431)
(9.35062 -1.0948e-19 1.09867)
(9.42209 -5.01804e-19 1.05857)
(9.25928 2.56921e-19 1.24068)
(9.33813 2.60716e-19 1.19598)
(9.16376 0 1.39857)
(9.25034 -1.31816e-19 1.34832)
(9.06489 6.60084e-19 1.57454)
(9.15953 1.35826e-19 1.51765)
(8.96375 -4.79722e-19 1.77111)
(9.06676 1.21707e-18 1.70627)
(8.86172 -4.92946e-19 1.99121)
(8.97339 -2.34192e-18 1.91686)
(8.76065 6.03153e-19 2.23835)
(8.88105 1.34243e-18 2.15256)
(8.66311 -8.02627e-20 2.51678)
(8.7921 5.98988e-19 2.41713)
(8.57267 7.80668e-20 2.83154)
(8.70975 -6.85359e-19 2.7151)
(8.49393 -1.26855e-18 3.18846)
(8.63839 3.03167e-19 3.05188)
(8.43306 1.16649e-19 3.59454)
(8.58328 -1.42986e-18 3.4337)
(8.39884 1.29376e-18 4.05827)
(8.55182 -1.77805e-19 3.86846)
(8.40377 -1.40617e-18 4.58951)
(8.55724 1.131e-18 4.36406)
(8.45664 -1.16655e-18 5.18874)
(8.59688 -1.12627e-18 4.93936)
(8.58788 -4.44963e-19 5.87638)
(8.77103 -8.26449e-19 5.54025)
(8.75194 -1.99974e-18 6.58324)
(8.72136 1.56566e-18 6.44261)
(8.8043 -6.91297e-19 7.251)
(9.70147 -1.14404e-18 6.55252)
(8.04555 -1.94966e-18 8.50834)
(9.99185 3.00815e-19 0.0994855)
(9.99743 8.62158e-22 0.0684156)
(9.97637 -1.70407e-19 0.163554)
(9.98663 0 0.134301)
(9.954 5.98311e-20 0.22785)
(9.96832 4.09983e-20 0.199683)
(9.92501 -1.82609e-20 0.29396)
(9.94352 1.75425e-19 0.266289)
(9.88971 -2.23517e-19 0.363066)
(9.91271 -2.73285e-19 0.335377)
(9.84834 0 0.436293)
(9.87599 4.69472e-20 0.408065)
(9.80112 0 0.514773)
(9.83353 -9.71421e-20 0.485524)
(9.74826 -2.17762e-19 0.599574)
(9.78574 -1.00958e-19 0.56886)
(9.68997 -2.11402e-19 0.691731)
(9.73288 -3.19704e-19 0.659093)
(9.62645 2.3207e-19 0.792344)
(9.67498 4.38327e-19 0.757305)
(9.55796 4.69965e-19 0.902613)
(9.61239 1.16696e-19 0.864631)
(9.48494 1.12673e-19 1.02384)
(9.54561 5.6958e-21 0.98228)
(9.40785 -1.2096e-19 1.15752)
(9.47503 -3.67464e-19 1.11163)
(9.32729 -1.33675e-19 1.30531)
(9.40121 2.51042e-19 1.25426)
(9.24403 7.27339e-21 1.46913)
(9.32492 -1.30541e-19 1.41192)
(9.15911 7.0528e-19 1.6511)
(9.24714 1.71614e-21 1.58657)
(9.07383 -6.78924e-19 1.85368)
(9.16913 4.2939e-19 1.78047)
(8.98988 -4.78013e-19 2.07969)
(9.09251 -1.22906e-18 1.99617)
(8.90941 1.33387e-18 2.3325)
(9.01921 1.16198e-18 2.23668)
(8.83525 -8.73342e-21 2.6161)
(8.95188 2.39361e-20 2.50559)
(8.77139 -4.59445e-19 2.93521)
(8.89403 -6.0729e-19 2.80704)
(8.72306 1.46526e-19 3.29538)
(8.85033 -1.46736e-19 3.14611)
(8.6971 -1.73902e-18 3.7032)
(8.82686 -8.46193e-19 3.52873)
(8.70268 -3.78089e-19 4.16646)
(8.83142 1.77879e-19 3.96224)
(8.75287 1.46341e-18 4.69455)
(8.87813 4.14749e-19 4.45382)
(8.85938 -8.70874e-19 5.28842)
(8.96421 9.82189e-19 5.02234)
(9.04213 1.56249e-18 5.97131)
(9.19288 -9.051e-19 5.61786)
(9.30524 2.28109e-18 6.67379)
(9.21645 1.72517e-18 6.49058)
(9.38723 -2.47061e-18 7.4452)
(10.2436 1.77605e-18 6.69809)
(8.7289 1.46383e-19 8.68403)
(9.99241 -3.00168e-19 0.104411)
(9.99772 -3.06218e-19 0.0715814)
(9.97804 2.12439e-19 0.171741)
(9.98768 0 0.140568)
(9.95736 1.59431e-19 0.239384)
(9.97075 2.08023e-19 0.209105)
(9.93068 -8.86078e-20 0.308946)
(9.94799 1.28409e-19 0.278959)
(9.8983 3.44091e-21 0.381624)
(9.91987 -9.02344e-20 0.351391)
(9.86045 -5.28727e-20 0.458568)
(9.88642 9.35764e-20 0.427551)
(9.81739 -1.98311e-19 0.540915)
(9.84783 8.55035e-23 0.508613)
(9.76939 -2.06654e-19 0.629734)
(9.80467 2.0056e-19 0.595668)
(9.71674 3.42789e-19 0.726076)
(9.75711 -2.1049e-19 0.689754)
(9.65972 3.18095e-19 0.831045)
(9.70527 2.21621e-19 0.791959)
(9.59872 -3.49814e-19 0.945809)
(9.6497 2.22832e-19 0.903389)
(9.5342 -4.80307e-19 1.07164)
(9.59091 -1.19855e-19 1.02523)
(9.46674 1.27916e-20 1.21)
(9.52936 -1.25852e-19 1.15883)
(9.39706 2.4969e-19 1.36252)
(9.46575 2.51572e-19 1.30571)
(9.32609 -1.34575e-19 1.53102)
(9.40098 6.38907e-19 1.46757)
(9.25502 -2.70633e-19 1.71756)
(9.33613 -6.55137e-19 1.64628)
(9.18542 -1.34886e-19 1.92448)
(9.27269 -5.35809e-19 1.84393)
(9.11924 4.29758e-19 2.15444)
(9.21248 -5.7733e-22 2.06295)
(9.05888 -1.54321e-19 2.41066)
(9.15767 4.27905e-19 2.30623)
(9.00747 -5.76152e-19 2.69682)
(9.11127 -2.24541e-20 2.57709)
(8.96927 -2.93017e-19 3.01719)
(9.077 0 2.87923)
(8.94993 -1.13886e-18 3.37699)
(9.05971 -2.93821e-19 3.2173)
(8.95679 1.05787e-18 3.78236)
(9.06606 -1.6552e-18 3.59681)
(8.99962 9.63631e-19 4.24043)
(9.1043 2.4358e-18 4.02444)
(9.09164 -8.35123e-20 4.76014)
(9.18938 -2.01827e-18 4.50677)
(9.24856 1.0205e-18 5.3437)
(9.31935 9.9146e-19 5.06075)
(9.48055 -6.36811e-19 6.01622)
(9.59469 0 5.64661)
(9.84473 1.85808e-18 6.71209)
(9.70867 -6.65862e-19 6.46316)
(10.0366 4.37865e-18 7.64836)
(10.7582 1.45867e-18 6.80886)
(9.52495 2.86009e-18 8.89357)
(9.99301 0 0.108969)
(9.99802 8.91492e-21 0.0744974)
(9.97984 0 0.179303)
(9.9888 -2.7798e-20 0.146334)
(9.96094 1.75342e-19 0.250001)
(9.97334 -1.93294e-20 0.217752)
(9.93666 1.22564e-19 0.322698)
(9.95273 5.37306e-20 0.290543)
(9.9073 3.37822e-21 0.398611)
(9.92738 -3.57938e-21 0.36599)
(9.87311 1.44894e-19 0.478904)
(9.89728 -3.0172e-19 0.445264)
(9.83439 4.02769e-19 0.564707)
(9.86272 1.89927e-19 0.529524)
(9.79144 1.90072e-19 0.657087)
(9.82428 1.18679e-19 0.619864)
(9.74454 -3.25165e-19 0.757093)
(9.78213 -2.04817e-19 0.717336)
(9.69411 1.26096e-19 0.865805)
(9.73648 1.80552e-19 0.822975)
(9.64063 4.48568e-19 0.984362)
(9.68802 2.81299e-20 0.937855)
(9.58465 2.35186e-19 1.11402)
(9.63728 2.24942e-19 1.06316)
(9.52681 1.17878e-19 1.25619)
(9.58482 1.20651e-19 1.20019)
(9.46798 6.45699e-19 1.41244)
(9.53145 -1.15524e-19 1.35041)
(9.40921 1.05158e-19 1.5845)
(9.47818 5.31819e-19 1.51542)
(9.35179 -9.20028e-19 1.77426)
(9.42625 4.29266e-19 1.69697)
(9.29751 -3.98768e-19 1.9839)
(9.3772 -1.38851e-18 1.89695)
(9.24853 -1.56082e-21 2.21596)
(9.33301 4.97188e-19 2.11764)
(9.20749 5.583e-19 2.47346)
(9.2961 5.73926e-22 2.36179)
(9.17782 5.56238e-19 2.75965)
(9.26986 5.69247e-19 2.63233)
(9.16404 0 3.07837)
(9.25808 -2.48467e-19 2.93254)
(9.17197 -8.0165e-19 3.43435)
(9.26581 4.88997e-19 3.26659)
(9.20938 -3.27716e-19 3.83311)
(9.30008 -8.09209e-19 3.63928)
(9.2867 -4.64354e-19 4.28109)
(9.36945 5.52962e-20 4.05635)
(9.41722 -1.01915e-18 4.78611)
(9.48929 1.5285e-18 4.52359)
(9.62046 0 5.35128)
(9.65983 -7.7941e-19 5.05374)
(9.90176 0 5.99879)
(9.97289 2.00487e-18 5.61853)
(10.3614 -1.50367e-18 6.67486)
(10.1871 -1.0649e-18 6.34746)
(10.7785 9.6165e-19 7.8133)
(11.2846 -7.27661e-19 6.77259)
(11.286 2.27888e-18 8.95933)
(0.114435 -5.08448e-20 -0.0861919)
(0.0632138 -5.61434e-20 -0.0833218)
(0.287763 -1.6843e-20 -0.081748)
(0.156186 7.99741e-20 -0.100944)
(0.50648 1.85289e-20 -0.0681565)
(0.354829 -5.08201e-20 -0.0926602)
(0.779174 -1.65734e-20 -0.0606755)
(0.604543 3.12569e-20 -0.0903002)
(1.08141 -1.55206e-20 -0.0580339)
(0.901218 2.86737e-21 -0.0925144)
(1.3684 0 -0.0567823)
(1.20361 0 -0.0942761)
(1.62033 -5.8495e-21 -0.0551407)
(1.47359 1.01078e-20 -0.0935314)
(1.83944 -5.41618e-21 -0.0529157)
(1.7035 -1.04585e-20 -0.0908937)
(2.03179 0 -0.0501731)
(1.90102 1.10209e-20 -0.0871162)
(2.20134 0 -0.0469969)
(2.07197 0 -0.0823571)
(2.35077 0 -0.0434389)
(2.22006 1.06511e-20 -0.0768307)
(2.48185 1.24474e-21 -0.0394663)
(2.34887 5.08107e-21 -0.070611)
(2.59528 5.98018e-21 -0.0350643)
(2.46011 -3.75584e-21 -0.0635387)
(2.69112 8.17558e-21 -0.0303783)
(2.55434 -4.38972e-22 -0.0555598)
(2.76995 3.42909e-21 -0.0256141)
(2.63163 5.22045e-21 -0.0471384)
(2.83264 0 -0.0208558)
(2.69254 2.19306e-21 -0.0386241)
(2.87958 4.01275e-21 -0.016477)
(2.73785 -9.35057e-21 -0.0298504)
(2.91261 7.90443e-21 -0.0130501)
(2.76724 6.1297e-22 -0.0218098)
(2.93537 4.12008e-21 -0.0103535)
(2.78214 -5.04778e-22 -0.0157587)
(2.94994 -2.11765e-22 -0.00798022)
(2.78636 1.15088e-21 -0.0108413)
(2.95707 3.17831e-21 -0.00683928)
(2.7803 6.73567e-21 -0.00628109)
(2.95932 3.65363e-21 -0.00828171)
(2.76079 -1.44121e-21 -0.00333056)
(2.96072 0 -0.0123111)
(2.72894 -6.16193e-21 -0.00308088)
(2.96545 2.85086e-21 -0.0179954)
(2.69343 3.76137e-22 -0.00568994)
(2.97848 2.81715e-22 -0.0248588)
(2.66275 5.643e-21 -0.0117986)
(3.00622 -3.48177e-22 -0.0330067)
(2.64284 4.69433e-21 -0.022569)
(3.05623 4.40009e-22 -0.0425894)
(2.64156 1.27548e-21 -0.0390199)
(3.13757 -1.82577e-21 -0.0536704)
(2.67179 2.32642e-21 -0.0624624)
(3.26041 5.42509e-22 -0.0653571)
(2.74869 -6.86225e-23 -0.0941117)
(2.92402 -3.57022e-22 -0.129849)
(0.0587825 2.32842e-20 -0.132759)
(0.0269088 -1.34028e-19 -0.140587)
(0.20616 4.72735e-20 -0.150808)
(0.0647722 1.01932e-19 -0.18308)
(0.435826 -4.46222e-20 -0.145067)
(0.259276 -1.34702e-19 -0.184566)
(0.728309 4.76402e-20 -0.145274)
(0.502415 3.17443e-20 -0.184315)
(1.04101 1.5501e-20 -0.14768)
(0.786543 1.65332e-20 -0.188343)
(1.32601 1.08551e-20 -0.147559)
(1.06422 -3.62826e-20 -0.190132)