/*--------------------------------*- C++ -*----------------------------------*\
| =========                 |                                                 |
| \\      /  F ield         | OpenFOAM: The Open Source CFD Toolbox           |
|  \\    /   O peration     | Version:  dev                                   |
|   \\  /    A nd           | Web:      www.OpenFOAM.org                      |
|    \\/     M anipulation  |                                                 |
\*---------------------------------------------------------------------------*/
FoamFile
{
    version     2.0;
    format      ascii;
    class       volVectorField;
    location    "1.43";
    object      cellDisplacement;
}
// * * * * * * * * * * * * * * * * * * * * * * * * * * * * * * * * * * * * * //

dimensions      [0 1 0 0 0 0 0];

internalField   nonuniform List<vector> 
2790
(
(0.0124417 0 -5.92244e-05)
(0.0354628 0 -0.000169186)
(0.0549935 0 -0.000264877)
(0.0713535 0 -0.000348935)
(0.084889 0 -0.000423457)
(0.0959046 0 -0.000489808)
(0.104666 0 -0.000548979)
(0.111402 0 -0.000601674)
(0.116307 0 -0.000649705)
(0.119553 0 -0.000690054)
(0.121299 0 -0.000723885)
(0.121676 0 -0.000750731)
(0.120801 0 -0.000769808)
(0.118778 0 -0.000780093)
(0.1157 0 -0.00078034)
(0.111654 0 -0.000769066)
(0.106719 0 -0.000744373)
(0.100971 0 -0.000703963)
(0.0944828 0 -0.000645104)
(0.087329 0 -0.000564558)
(0.079587 0 -0.000458518)
(0.0713412 0 -0.000322532)
(0.0626837 0 -0.000151177)
(0.0537206 0 6.19308e-05)
(0.0445808 0 0.000324176)
(0.0354295 0 0.00064417)
(0.026497 0 0.00103318)
(0.0181984 0 0.00151001)
(0.0112104 0 0.00208063)
(0.00724763 0 0.00267142)
(0.0124579 0 -0.000177995)
(0.035511 0 -0.00050855)
(0.0550734 0 -0.000796324)
(0.0714659 0 -0.00104925)
(0.0850354 0 -0.00127366)
(0.0960875 0 -0.00147362)
(0.104889 0 -0.0016521)
(0.111672 0 -0.00181081)
(0.116625 0 -0.00195024)
(0.119925 0 -0.00207144)
(0.121734 0 -0.00217367)
(0.122182 0 -0.00225521)
(0.121388 0 -0.00231374)
(0.119456 0 -0.00234625)
(0.116481 0 -0.0023491)
(0.112553 0 -0.00231804)
(0.107753 0 -0.00224751)
(0.10216 0 -0.00213084)
(0.09585 0 -0.00196012)
(0.0889027 0 -0.00172602)
(0.0814019 0 -0.00141762)
(0.0734423 0 -0.00102237)
(0.0651291 0 -0.000524882)
(0.0565883 0 9.29383e-05)
(0.04798 0 0.000851813)
(0.0395169 0 0.00177489)
(0.0314389 0 0.00289229)
(0.024196 0 0.00422307)
(0.0186603 0 0.00574782)
(0.0170011 0 0.00717158)
(0.0124908 0 -0.000296892)
(0.0356079 0 -0.000848361)
(0.055233 0 -0.00132866)
(0.0716901 0 -0.00175107)
(0.0853269 0 -0.00212625)
(0.0964508 0 -0.00246081)
(0.105331 0 -0.00275987)
(0.1122 0 -0.00302606)
(0.117252 0 -0.00325847)
(0.120667 0 -0.00346303)
(0.122602 0 -0.00363661)
(0.123193 0 -0.00377647)
(0.122559 0 -0.00387891)
(0.120809 0 -0.00393911)
(0.118042 0 -0.0039512)
(0.11435 0 -0.00390877)
(0.109819 0 -0.00380298)
(0.104535 0 -0.00362329)
(0.0985807 0 -0.00335744)
(0.0920439 0 -0.00299095)
(0.0850191 0 -0.00250708)
(0.0776208 0 -0.00188787)
(0.0699745 0 -0.00111057)
(0.062234 0 -0.000149346)
(0.0546026 0 0.00102385)
(0.0473973 0 0.00243353)
(0.0410017 0 0.00409701)
(0.0359265 0 0.00600026)
(0.0329763 0 0.00806567)
(0.0348768 0 0.00964451)
(0.0125396 0 -0.000415331)
(0.0357516 0 -0.00118693)
(0.05547 0 -0.0018592)
(0.0720231 0 -0.00245085)
(0.0857598 0 -0.00297705)
(0.09699 0 -0.0034466)
(0.105988 0 -0.00386716)
(0.112987 0 -0.00424285)
(0.118188 0 -0.00457518)
(0.12177 0 -0.00486699)
(0.123893 0 -0.00511636)
(0.124695 0 -0.00532004)
(0.124301 0 -0.00547329)
(0.122822 0 -0.00556974)
(0.12036 0 -0.00560141)
(0.117017 0 -0.00556116)
(0.112886 0 -0.00543718)
(0.108059 0 -0.00521599)
(0.102631 0 -0.00488236)
(0.096702 0 -0.00441835)
(0.0903772 0 -0.0038028)
(0.0838102 0 -0.0030183)
(0.0771547 0 -0.00203878)
(0.0706035 0 -0.00083769)
(0.0644006 0 0.000611992)
(0.0589064 0 0.00232318)
(0.054691 0 0.00427072)
(0.0525951 0 0.0063542)
(0.0534313 0 0.00838329)
(0.0595261 0 0.00939958)
(0.0126036 0 -0.000533191)
(0.0359403 0 -0.00152396)
(0.0557812 0 -0.00238761)
(0.0724619 0 -0.00314827)
(0.0863303 0 -0.00382618)
(0.0976995 0 -0.00443139)
(0.106853 0 -0.0049749)
(0.114025 0 -0.00546237)
(0.11942 0 -0.0058967)
(0.123221 0 -0.00627976)
(0.125589 0 -0.00661012)
(0.126668 0 -0.00688447)
(0.126587 0 -0.00709743)
(0.125462 0 -0.00724152)
(0.123398 0 -0.00730608)
(0.120512 0 -0.00728658)
(0.116903 0 -0.00716789)
(0.112674 0 -0.00693496)
(0.107937 0 -0.00657187)
(0.10281 0 -0.0060599)
(0.0974128 0 -0.00537629)
(0.0919162 0 -0.00450187)
(0.086523 0 -0.0034165)
(0.0814666 0 -0.00209984)
(0.0771227 0 -0.000552875)
(0.0738649 0 0.00121609)
(0.0723165 0 0.00314337)
(0.0735089 0 0.00501883)
(0.0787786 0 0.00641287)
(0.0895588 0 0.0062543)
(0.0126824 0 -0.000650885)
(0.0361729 0 -0.00186072)
(0.056165 0 -0.00291601)
(0.073005 0 -0.00384624)
(0.0870335 0 -0.00467371)
(0.0985724 0 -0.00541533)
(0.107917 0 -0.00608369)
(0.115302 0 -0.00668574)
(0.120936 0 -0.00722551)
(0.125005 0 -0.0077049)
(0.127673 0 -0.00812296)
(0.129092 0 -0.00847679)
(0.129395 0 -0.00876097)
(0.128708 0 -0.00896812)
(0.127145 0 -0.00908923)
(0.124819 0 -0.00911373)
(0.121849 0 -0.00902836)
(0.118347 0 -0.00881809)
(0.114447 0 -0.00846928)
(0.110285 0 -0.00796382)
(0.106006 0 -0.00728138)
(0.101823 0 -0.00641056)
(0.0979696 0 -0.00533944)
(0.0947209 0 -0.00405967)
(0.0924751 0 -0.00259181)
(0.0918075 0 -0.00100927)
(0.0934336 0 0.000553207)
(0.0982236 0 0.00182967)
(0.108025 0 0.00212481)
(0.123759 0 0.000325729)
(0.0127759 0 -0.000768236)
(0.0364481 0 -0.00219671)
(0.0566172 0 -0.00344365)
(0.073633 0 -0.00454341)
(0.0878523 0 -0.00552174)
(0.0996038 0 -0.00640239)
(0.109177 0 -0.00719851)
(0.116814 0 -0.00791889)
(0.12273 0 -0.00856885)
(0.127113 0 -0.00915082)
(0.130136 0 -0.00966448)
(0.131954 0 -0.0101081)
(0.132707 0 -0.0104764)
(0.13253 0 -0.0107627)
(0.13155 0 -0.0109601)
(0.129882 0 -0.011054)
(0.127657 0 -0.0110338)
(0.124997 0 -0.0108843)
(0.122072 0 -0.0106002)
(0.119039 0 -0.0101662)
(0.116063 0 -0.0095664)
(0.113378 0 -0.00879557)
(0.111272 0 -0.00785943)
(0.110104 0 -0.00678008)
(0.110291 0 -0.00560371)
(0.112454 0 -0.00444444)
(0.117499 0 -0.00354553)
(0.12636 0 -0.00326787)
(0.140636 0 -0.00440564)
(0.161154 0 -0.00813133)
(0.0128822 0 -0.000884466)
(0.0367611 0 -0.00252974)
(0.057132 0 -0.0039672)
(0.0743522 0 -0.00523659)
(0.0887926 0 -0.00636957)
(0.100785 0 -0.00739135)
(0.110619 0 -0.00831815)
(0.118546 0 -0.0091608)
(0.124782 0 -0.00992606)
(0.129525 0 -0.0106173)
(0.132949 0 -0.0112348)
(0.13522 0 -0.0117791)
(0.136485 0 -0.0122454)
(0.136882 0 -0.0126274)
(0.136544 0 -0.0129163)
(0.135619 0 -0.0131075)
(0.134241 0 -0.0131895)
(0.132556 0 -0.0131525)
(0.130723 0 -0.0129865)
(0.128945 0 -0.012689)
(0.127423 0 -0.0122541)
(0.126423 0 -0.0116912)
(0.126262 0 -0.0110214)
(0.127348 0 -0.0102933)
(0.1302 0 -0.00960265)
(0.135517 0 -0.00912354)
(0.144119 0 -0.0091372)
(0.157339 0 -0.010196)
(0.176014 0 -0.0130194)
(0.200928 0 -0.0187857)
(0.013 0 -0.000999384)
(0.0371088 0 -0.00285932)
(0.0577048 0 -0.00448602)
(0.075155 0 -0.00592477)
(0.0898412 0 -0.00721236)
(0.1021 0 -0.00837653)
(0.112225 0 -0.00943632)
(0.120472 0 -0.0104047)
(0.127065 0 -0.0112903)
(0.132205 0 -0.0120976)
(0.136072 0 -0.012827)
(0.138845 0 -0.0134839)
(0.140674 0 -0.0140632)
(0.14171 0 -0.0145606)
(0.142101 0 -0.0149723)
(0.141992 0 -0.0152906)
(0.141539 0 -0.0155095)
(0.14092 0 -0.0156289)
(0.140279 0 -0.0156344)
(0.139879 0 -0.0155437)
(0.13994 0 -0.0153595)
(0.140753 0 -0.0151042)
(0.142686 0 -0.0148251)
(0.146236 0 -0.0146125)
(0.15192 0 -0.0145875)
(0.160538 0 -0.0149947)
(0.17292 0 -0.0161707)
(0.190447 0 -0.0187739)
(0.213549 0 -0.0234852)
(0.242377 0 -0.0312686)
(0.0131281 0 -0.00111279)
(0.0374878 0 -0.00318491)
(0.0583304 0 -0.00499934)
(0.0760335 0 -0.0066069)
(0.0909885 0 -0.00804917)
(0.103538 0 -0.00935697)
(0.11398 0 -0.0105522)
(0.122576 0 -0.0116501)
(0.129558 0 -0.0126612)
(0.13513 0 -0.0135924)
(0.139491 0 -0.0144486)
(0.142811 0 -0.0152307)
(0.145252 0 -0.0159381)
(0.146976 0 -0.0165693)
(0.148154 0 -0.0171274)
(0.148923 0 -0.0176008)
(0.149453 0 -0.0179893)
(0.149955 0 -0.0183036)
(0.150615 0 -0.018543)
(0.151681 0 -0.0187253)
(0.153426 0 -0.0188733)
(0.156174 0 -0.0190295)
(0.160336 0 -0.0192644)
(0.166427 0 -0.0196951)
(0.175122 0 -0.020516)
(0.187134 0 -0.0219868)
(0.203556 0 -0.0245678)
(0.225201 0 -0.0288272)
(0.252663 0 -0.0355345)
(0.284859 0 -0.0452031)
(0.0132664 0 -0.00122503)
(0.0378967 0 -0.00350749)
(0.0590066 0 -0.00550869)
(0.0769844 0 -0.00728506)
(0.0922303 0 -0.00888274)
(0.105093 0 -0.0103359)
(0.115878 0 -0.0116694)
(0.12485 0 -0.0129007)
(0.132249 0 -0.0140429)
(0.138291 0 -0.0151059)
(0.143177 0 -0.0160979)
(0.147076 0 -0.0170157)
(0.150166 0 -0.0178653)
(0.152613 0 -0.0186457)
(0.154607 0 -0.0193669)
(0.156304 0 -0.0200245)
(0.157895 0 -0.0206253)
(0.159579 0 -0.0211777)
(0.161587 0 -0.021699)
(0.164189 0 -0.0222179)
(0.167681 0 -0.0227726)
(0.172427 0 -0.0234262)
(0.178897 0 -0.0242848)
(0.187641 0 -0.0254945)
(0.199365 0 -0.0272867)
(0.214916 0 -0.0299951)
(0.23533 0 -0.0341146)
(0.261088 0 -0.0401529)
(0.292731 0 -0.0488618)
(0.327738 0 -0.0602053)
(0.0134138 0 -0.00133584)
(0.0383319 0 -0.00382623)
(0.0597269 0 -0.00601277)
(0.0779986 0 -0.00795753)
(0.0935547 0 -0.00971101)
(0.106752 0 -0.011311)
(0.1179 0 -0.0127851)
(0.127271 0 -0.0141535)
(0.135111 0 -0.0154311)
(0.141645 0 -0.0166317)
(0.147072 0 -0.0177625)
(0.151574 0 -0.0188254)
(0.155347 0 -0.0198322)
(0.158568 0 -0.0207864)
(0.161418 0 -0.0216943)
(0.164076 0 -0.0225612)
(0.166762 0 -0.0234049)
(0.169656 0 -0.0242314)
(0.173051 0 -0.0250809)
(0.177218 0 -0.0259897)
(0.18249 0 -0.0270161)
(0.189255 0 -0.0282437)
(0.19802 0 -0.0298033)
(0.209456 0 -0.0319016)
(0.2242 0 -0.034775)
(0.243283 0 -0.0388445)
(0.267467 0 -0.0445555)
(0.297408 0 -0.0524807)
(0.332961 0 -0.063113)
(0.370298 0 -0.0758945)
(0.0135674 0 -0.00144429)
(0.0387861 0 -0.00413858)
(0.0604802 0 -0.00650757)
(0.0790616 0 -0.00861908)
(0.0949432 0 -0.0105276)
(0.10849 0 -0.0122747)
(0.120018 0 -0.013891)
(0.129805 0 -0.0153991)
(0.138103 0 -0.0168156)
(0.145149 0 -0.0181597)
(0.151141 0 -0.0194385)
(0.156285 0 -0.0206629)
(0.160768 0 -0.0218411)
(0.164783 0 -0.0229836)
(0.168505 0 -0.0240956)
(0.172134 0 -0.025191)
(0.175912 0 -0.0262988)
(0.180054 0 -0.0274392)
(0.184844 0 -0.028655)
(0.190573 0 -0.0299978)
(0.197606 0 -0.0315447)
(0.206366 0 -0.0334038)
(0.217439 0 -0.0357477)
(0.231409 0 -0.0387776)
(0.249139 0 -0.0428276)
(0.271486 0 -0.0482909)
(0.299283 0 -0.0556569)
(0.333177 0 -0.0654779)
(0.372216 0 -0.0778864)
(0.411588 0 -0.0919319)
(0.013726 0 -0.00155012)
(0.0392543 0 -0.00444372)
(0.0612594 0 -0.00699176)
(0.0801646 0 -0.00926814)
(0.0963845 0 -0.0113306)
(0.110294 0 -0.0132248)
(0.122217 0 -0.0149845)
(0.132433 0 -0.0166349)
(0.141214 0 -0.0181986)
(0.148791 0 -0.0196924)
(0.155367 0 -0.0211273)
(0.161165 0 -0.0225213)
(0.166362 0 -0.0238786)
(0.171155 0 -0.0252132)
(0.175762 0 -0.0265463)
(0.180386 0 -0.0278962)
(0.185265 0 -0.0292929)
(0.190636 0 -0.0307689)
(0.196795 0 -0.0323786)
(0.204053 0 -0.0341866)
(0.212795 0 -0.0362896)
(0.223492 0 -0.038823)
(0.236704 0 -0.0419718)
(0.253055 0 -0.0459697)
(0.273477 0 -0.0512027)
(0.298687 0 -0.0580451)
(0.329676 0 -0.0670576)
(0.366884 0 -0.0787011)
(0.408703 0 -0.0927409)
(0.4501 0 -0.108096)
(0.0138888 0 -0.00165313)
(0.0397331 0 -0.00474093)
(0.0620624 0 -0.00746639)
(0.0813059 0 -0.0099063)
(0.0978748 0 -0.0121218)
(0.112159 0 -0.014163)
(0.12449 0 -0.0160675)
(0.135154 0 -0.0178634)
(0.144427 0 -0.0195769)
(0.152536 0 -0.0212228)
(0.159697 0 -0.0228168)
(0.166141 0 -0.0243815)
(0.172054 0 -0.0259263)
(0.177649 0 -0.0274713)
(0.183141 0 -0.0290393)
(0.188742 0 -0.0306548)
(0.194696 0 -0.0323543)
(0.201263 0 -0.0341831)
(0.208743 0 -0.0362035)
(0.217446 0 -0.0384903)
(0.227784 0 -0.0411589)
(0.240271 0 -0.0443759)
(0.255389 0 -0.0483185)
(0.273897 0 -0.0532892)
(0.296466 0 -0.0596137)
(0.323955 0 -0.0677558)
(0.357216 0 -0.0782687)
(0.396332 0 -0.0915354)
(0.439278 0 -0.107115)
(0.482801 0 -0.124348)
(0.0109401 0 -0.00375282)
(0.0252622 0 -0.00471768)
(0.0570318 0 -0.00606231)
(0.106685 0 -0.00748941)
(0.165047 0 -0.00868488)
(0.218879 0 -0.00927223)
(0.261484 0 -0.00945705)
(0.292947 0 -0.00929694)
(0.31546 0 -0.00899261)
(0.331211 0 -0.00858749)
(0.341755 0 -0.00811549)
(0.34817 0 -0.00761856)
(0.351183 0 -0.00709548)
(0.351291 0 -0.00660515)
(0.348808 0 -0.00608487)
(0.34393 0 -0.00560624)
(0.336749 0 -0.00515488)
(0.327309 0 -0.00472809)
(0.315615 0 -0.00432324)
(0.301639 0 -0.00393733)
(0.285338 0 -0.00356702)
(0.26665 0 -0.0032087)
(0.245503 0 -0.00285849)
(0.221814 0 -0.00251223)
(0.195499 0 -0.00216548)
(0.166466 0 -0.00181339)
(0.134625 0 -0.00145058)
(0.0998851 0 -0.00107099)
(0.0621705 0 -0.000667753)
(0.0212653 0 -0.000231031)
(0.0187341 0 -0.0114974)
(0.0345961 0 -0.0144154)
(0.0672257 0 -0.0182239)
(0.116499 0 -0.0223147)
(0.173268 0 -0.0256408)
(0.225074 0 -0.0272747)
(0.266047 0 -0.027706)
(0.296345 0 -0.0272916)
(0.31805 0 -0.0264031)
(0.333212 0 -0.0252219)
(0.343319 0 -0.0238402)
(0.349411 0 -0.0223961)
(0.352182 0 -0.0209115)
(0.352104 0 -0.0194294)
(0.349479 0 -0.0179504)
(0.344486 0 -0.0165598)
(0.337213 0 -0.0152432)
(0.327699 0 -0.0139947)
(0.315943 0 -0.0128076)
(0.301918 0 -0.0116737)
(0.285575 0 -0.0105833)
(0.266852 0 -0.00952626)
(0.245675 0 -0.00849133)
(0.221963 0 -0.00746649)
(0.195626 0 -0.00643873)
(0.166574 0 -0.00539382)
(0.134715 0 -0.00431599)
(0.0999565 0 -0.00318733)
(0.0622204 0 -0.00198757)
(0.0212857 0 -0.000687697)
(0.0334777 0 -0.0197736)
(0.0520787 0 -0.0246357)
(0.0861609 0 -0.0307219)
(0.134802 0 -0.0370398)
(0.188573 0 -0.041868)
(0.236769 0 -0.0442848)
(0.274797 0 -0.044823)
(0.302922 0 -0.0441136)
(0.323066 0 -0.042674)
(0.337092 0 -0.040782)
(0.346369 0 -0.0386126)
(0.351833 0 -0.0362892)
(0.354125 0 -0.033907)
(0.353683 0 -0.0315146)
(0.350779 0 -0.0291944)
(0.345563 0 -0.02698)
(0.338111 0 -0.0248722)
(0.328452 0 -0.0228661)
(0.316576 0 -0.0209522)
(0.302452 0 -0.0191182)
(0.286028 0 -0.0173498)
(0.267237 0 -0.0156308)
(0.246003 0 -0.0139436)
(0.222242 0 -0.0122691)
(0.195863 0 -0.0105865)
(0.166774 0 -0.00887277)
(0.13488 0 -0.00710252)
(0.100086 0 -0.00524666)
(0.0623091 0 -0.00327229)
(0.021321 0 -0.00113218)
(0.0544604 0 -0.0289985)
(0.0762624 0 -0.0356419)
(0.112154 0 -0.0438424)
(0.159577 0 -0.0518389)
(0.209377 0 -0.0575822)
(0.252977 0 -0.0604239)
(0.287089 0 -0.0609423)
(0.31225 0 -0.0598641)
(0.330241 0 -0.0578706)
(0.342671 0 -0.0552983)
(0.350752 0 -0.0523931)
(0.355303 0 -0.0492479)
(0.356913 0 -0.0460358)
(0.355957 0 -0.0428645)
(0.352649 0 -0.039786)
(0.34711 0 -0.0368308)
(0.339398 0 -0.0340058)
(0.329526 0 -0.031307)
(0.317476 0 -0.0287234)
(0.303209 0 -0.0262396)
(0.286665 0 -0.0238372)
(0.267775 0 -0.0214952)
(0.246458 0 -0.0191904)
(0.222627 0 -0.0168975)
(0.196188 0 -0.0145886)
(0.167045 0 -0.0122328)
(0.135101 0 -0.0097956)
(0.100256 0 -0.00723767)
(0.0624237 0 -0.00451444)
(0.0213651 0 -0.0015617)
(0.0807461 0 -0.0394178)
(0.105884 0 -0.0477425)
(0.143392 0 -0.0576676)
(0.188982 0 -0.066735)
(0.234185 0 -0.0728833)
(0.272524 0 -0.0757259)
(0.3021 0 -0.0759859)
(0.323782 0 -0.0745018)
(0.339163 0 -0.0719449)
(0.349631 0 -0.0687145)
(0.35622 0 -0.0650713)
(0.359661 0 -0.0612042)
(0.360438 0 -0.057297)
(0.358834 0 -0.0534405)
(0.355014 0 -0.0496903)
(0.349064 0 -0.0460769)
(0.34102 0 -0.0426095)
(0.330876 0 -0.0392846)
(0.318604 0 -0.0360901)
(0.304152 0 -0.0330086)
(0.287456 0 -0.0300184)
(0.268439 0 -0.0270945)
(0.247016 0 -0.0242091)
(0.223095 0 -0.0213314)
(0.196579 0 -0.0184271)
(0.167369 0 -0.0154583)
(0.135362 0 -0.0123823)
(0.100455 0 -0.00915041)
(0.0625548 0 -0.00570751)
(0.0214147 0 -0.00197388)
(0.111453 0 -0.0511417)
(0.139777 0 -0.0610082)
(0.178434 0 -0.0722169)
(0.221503 0 -0.0817366)
(0.261551 0 -0.0877223)
(0.294246 0 -0.0901653)
(0.318966 0 -0.0899425)
(0.336853 0 -0.0879344)
(0.349341 0 -0.0847933)
(0.357608 0 -0.0809304)
(0.362542 0 -0.0766462)
(0.364743 0 -0.0721744)
(0.364563 0 -0.0676674)
(0.362206 0 -0.0632183)
(0.357787 0 -0.0588836)
(0.351354 0 -0.0546934)
(0.342917 0 -0.0506579)
(0.332452 0 -0.0467737)
(0.319915 0 -0.0430281)
(0.305244 0 -0.039402)
(0.288366 0 -0.0358714)
(0.269198 0 -0.0324082)
(0.247649 0 -0.0289807)
(0.223622 0 -0.0255533)
(0.197016 0 -0.0220864)
(0.167727 0 -0.0185358)
(0.135648 0 -0.0148514)
(0.10067 0 -0.0109763)
(0.0626945 0 -0.00684598)
(0.0214666 0 -0.00236673)
(0.145776 0 -0.0641487)
(0.176939 0 -0.075359)
(0.216021 0 -0.087339)
(0.255756 0 -0.0966666)
(0.290196 0 -0.101966)
(0.317086 0 -0.103666)
(0.336855 0 -0.102769)
(0.35083 0 -0.100144)
(0.360295 0 -0.0963995)
(0.366268 0 -0.0919569)
(0.369479 0 -0.0871376)
(0.370355 0 -0.0821507)
(0.369136 0 -0.0771367)
(0.365954 0 -0.0721854)
(0.360871 0 -0.0673515)
(0.353901 0 -0.0626643)
(0.345024 0 -0.0581338)
(0.334197 0 -0.0537565)
(0.321362 0 -0.0495194)
(0.306444 0 -0.045402)
(0.289361 0 -0.041379)
(0.270023 0 -0.0374199)
(0.248331 0 -0.0334898)
(0.224185 0 -0.0295492)
(0.197478 0 -0.0255539)
(0.168101 0 -0.0214542)
(0.135943 0 -0.0171938)
(0.100889 0 -0.0127084)
(0.0628351 0 -0.00792525)
(0.021518 0 -0.00273859)
(0.183015 0 -0.0783282)
(0.216518 0 -0.0906138)
(0.255048 0 -0.10277)
(0.290544 0 -0.111264)
(0.319022 0 -0.115427)
(0.340108 0 -0.116116)
(0.355 0 -0.1144)
(0.3651 0 -0.111092)
(0.371579 0 -0.10676)
(0.375299 0 -0.101819)
(0.376778 0 -0.0965501)
(0.376298 0 -0.0911368)
(0.374001 0 -0.0857057)
(0.369952 0 -0.0803394)
(0.364166 0 -0.0750893)
(0.356621 0 -0.0699823)
(0.347271 0 -0.0650278)
(0.336055 0 -0.0602222)
(0.322897 0 -0.055552)
(0.307711 0 -0.0509961)
(0.290405 0 -0.0465284)
(0.270881 0 -0.0421169)
(0.249035 0 -0.0377243)
(0.224761 0 -0.0333079)
(0.197946 0 -0.0288194)
(0.168476 0 -0.0242045)
(0.136234 0 -0.0194018)
(0.101102 0 -0.0143408)
(0.0629699 0 -0.00894162)
(0.0215665 0 -0.00308817)
(0.222576 0 -0.0935068)
(0.257778 0 -0.106522)
(0.294502 0 -0.118165)
(0.324803 0 -0.125212)
(0.347075 0 -0.127879)
(0.362488 0 -0.127371)
(0.372702 0 -0.124747)
(0.379127 0 -0.120745)
(0.382816 0 -0.115891)
(0.384396 0 -0.110532)
(0.384198 0 -0.104899)
(0.382379 0 -0.0991465)
(0.379002 0 -0.0933849)
(0.374074 0 -0.0876871)
(0.367568 0 -0.0821004)
(0.35943 0 -0.0766478)
(0.34959 0 -0.0713376)
(0.337967 0 -0.066166)
(0.324471 0 -0.0611197)
(0.309003 0 -0.0561766)
(0.291461 0 -0.0513112)
(0.271741 0 -0.0464907)
(0.249734 0 -0.0416757)
(0.225326 0 -0.0368211)
(0.198399 0 -0.031875)
(0.168833 0 -0.0267799)
(0.136508 0 -0.0214699)
(0.1013 0 -0.0158691)
(0.0630929 0 -0.0098923)
(0.02161 0 -0.00341449)
(0.263977 0 -0.109475)
(0.300031 0 -0.122773)
(0.333364 0 -0.133099)
(0.357532 0 -0.138144)
(0.373493 0 -0.139066)
(0.383483 0 -0.137263)
(0.389372 0 -0.133721)
(0.392506 0 -0.129096)
(0.393682 0 -0.123806)
(0.393291 0 -0.118117)
(0.391515 0 -0.112207)
(0.388415 0 -0.106202)
(0.383989 0 -0.100193)
(0.378196 0 -0.0942433)
(0.370976 0 -0.088396)
(0.362245 0 -0.0826681)
(0.35191 0 -0.0770669)
(0.339874 0 -0.071589)
(0.326034 0 -0.0662214)
(0.310277 0 -0.0609401)
(0.292493 0 -0.0557227)
(0.272573 0 -0.0505358)
(0.250402 0 -0.0453384)
(0.225859 0 -0.0400832)
(0.198819 0 -0.0347155)
(0.169158 0 -0.0291754)
(0.136753 0 -0.0233937)
(0.101473 0 -0.0172903)
(0.0631984 0 -0.0107753)
(0.0216465 0 -0.00371688)
(0.30685 0 -0.126026)
(0.342494 0 -0.138969)
(0.370472 0 -0.147046)
(0.387713 0 -0.149645)
(0.397451 0 -0.148701)
(0.402475 0 -0.14563)
(0.404626 0 -0.141282)
(0.404939 0 -0.136149)
(0.403912 0 -0.130528)
(0.401753 0 -0.124603)
(0.398532 0 -0.118506)
(0.394241 0 -0.112334)
(0.388825 0 -0.106157)
(0.382204 0 -0.100029)
(0.374296 0 -0.0939951)
(0.364987 0 -0.0880578)
(0.354166 0 -0.082226)
(0.341722 0 -0.0764978)
(0.327542 0 -0.0708614)
(0.311494 0 -0.065287)
(0.293466 0 -0.0597617)
(0.273347 0 -0.05425)
(0.251012 0 -0.0487095)
(0.226338 0 -0.0430914)
(0.199189 0 -0.0373376)
(0.169437 0 -0.031388)
(0.136957 0 -0.0251709)
(0.101614 0 -0.0186023)
(0.0632814 0 -0.0115894)
(0.0216743 0 -0.00399495)
(0.350891 0 -0.142958)
(0.383972 0 -0.154499)
(0.404392 0 -0.159337)
(0.414265 0 -0.159237)
(0.418286 0 -0.156521)
(0.419152 0 -0.152382)
(0.418247 0 -0.147412)
(0.416198 0 -0.141915)
(0.413293 0 -0.136086)
(0.409589 0 -0.130031)
(0.405084 0 -0.123839)
(0.399715 0 -0.117581)
(0.393389 0 -0.111312)
(0.385991 0 -0.105069)
(0.377424 0 -0.0988966)
(0.367568 0 -0.0928107)
(0.356281 0 -0.0868046)
(0.343445 0 -0.0808798)
(0.328943 0 -0.0750291)
(0.312621 0 -0.0692212)
(0.294348 0 -0.0634303)
(0.274034 0 -0.0576346)
(0.251543 0 -0.0517894)
(0.226747 0 -0.0458457)
(0.199493 0 -0.0397398)
(0.169654 0 -0.0334159)
(0.137112 0 -0.0268003)
(0.101716 0 -0.0198044)
(0.0633377 0 -0.012334)
(0.0216921 0 -0.00424859)
(0.395511 0 -0.159917)
(0.422355 0 -0.168318)
(0.43335 0 -0.169121)
(0.4364 0 -0.166504)
(0.435805 0 -0.162373)
(0.433436 0 -0.157476)
(0.430095 0 -0.152113)
(0.426113 0 -0.14642)
(0.421617 0 -0.1405)
(0.416603 0 -0.134421)
(0.41099 0 -0.128222)
(0.404679 0 -0.121956)
(0.397546 0 -0.115664)
(0.389461 0 -0.109381)
(0.380293 0 -0.103131)
(0.36992 0 -0.0969424)
(0.358196 0 -0.0908134)
(0.344987 0 -0.0847408)
(0.330161 0 -0.0787153)
(0.313577 0 -0.072719)
(0.295095 0 -0.0667136)
(0.274601 0 -0.0606752)
(0.251964 0 -0.0545644)
(0.227067 0 -0.0483367)
(0.199724 0 -0.0419232)
(0.169798 0 -0.0352592)
(0.137209 0 -0.0282827)
(0.101774 0 -0.0208967)
(0.0633625 0 -0.0130089)
(0.0216986 0 -0.00447789)
(0.438594 0 -0.175764)
(0.454171 0 -0.178699)
(0.456432 0 -0.175695)
(0.454111 0 -0.171147)
(0.450003 0 -0.166113)
(0.445166 0 -0.160849)
(0.439958 0 -0.155373)
(0.434486 0 -0.149693)
(0.428733 0 -0.143827)
(0.422652 0 -0.137819)
(0.416125 0 -0.131696)
(0.409021 0 -0.125494)
(0.401198 0 -0.119247)
(0.392513 0 -0.112983)
(0.382824 0 -0.106725)
(0.371991 0 -0.100493)
(0.35987 0 -0.0942904)
(0.346318 0 -0.0881157)
(0.331197 0 -0.0819592)
(0.314364 0 -0.0758029)
(0.295681 0 -0.0696178)
(0.275019 0 -0.0633746)
(0.252245 0 -0.0570345)
(0.227223 0 -0.050551)
(0.199803 0 -0.0438664)
(0.169842 0 -0.0369084)
(0.137243 0 -0.0296138)
(0.101793 0 -0.0218817)
(0.0633531 0 -0.0136151)
(0.0216944 0 -0.00468349)
(0.473326 0 -0.186951)
(0.478632 0 -0.183949)
(0.473368 0 -0.178009)
(0.467198 0 -0.172744)
(0.460705 0 -0.167664)
(0.454194 0 -0.162538)
(0.447704 0 -0.157256)
(0.441185 0 -0.151784)
(0.434543 0 -0.146124)
(0.427668 0 -0.1403)
(0.420433 0 -0.134339)
(0.412693 0 -0.128271)
(0.4043 0 -0.122128)
(0.395106 0 -0.115936)
(0.384965 0 -0.109718)
(0.373731 0 -0.10349)
(0.361257 0 -0.0972582)
(0.347399 0 -0.0910229)
(0.332013 0 -0.0847754)
(0.314956 0 -0.0784993)
(0.29609 0 -0.0721695)
(0.275276 0 -0.0657559)
(0.252379 0 -0.0592203)
(0.227259 0 -0.0525162)
(0.19977 0 -0.0455867)
(0.169772 0 -0.0383648)
(0.137132 0 -0.0307789)
(0.101686 0 -0.0227399)
(0.0632895 0 -0.0141473)
(0.0216694 0 -0.00486305)
(0.0140606 0 -0.00175561)
(0.0402507 0 -0.00503854)
(0.0629173 0 -0.0079412)
(0.0824981 0 -0.0105434)
(0.0994287 0 -0.012913)
(0.114103 0 -0.0151032)
(0.126857 0 -0.0171554)
(0.137981 0 -0.0190997)
(0.147749 0 -0.0209622)
(0.156405 0 -0.0227664)
(0.16418 0 -0.0245322)
(0.171287 0 -0.0262779)
(0.177929 0 -0.028021)
(0.184326 0 -0.0297859)
(0.190694 0 -0.031599)
(0.197263 0 -0.0334936)
(0.204278 0 -0.0355114)
(0.212 0 -0.0377051)
(0.220735 0 -0.0401461)
(0.230803 0 -0.0429217)
(0.242654 0 -0.0461731)
(0.256693 0 -0.0500447)
(0.273514 0 -0.0547729)
(0.293685 0 -0.0606197)
(0.317803 0 -0.0679164)
(0.346672 0 -0.077155)
(0.380718 0 -0.088827)
(0.419282 0 -0.103258)
(0.459425 0 -0.120443)
(0.495329 0 -0.140575)
(0.0142401 0 -0.00185789)
(0.0407872 0 -0.00533541)
(0.0638029 0 -0.00841404)
(0.0837387 0 -0.0111797)
(0.101045 0 -0.0137048)
(0.116124 0 -0.0160461)
(0.129321 0 -0.01825)
(0.140919 0 -0.0203469)
(0.151212 0 -0.0223695)
(0.160443 0 -0.0243413)
(0.168844 0 -0.0262865)
(0.176614 0 -0.0282187)
(0.183989 0 -0.0301687)
(0.19119 0 -0.0321642)
(0.198437 0 -0.0342355)
(0.205954 0 -0.0364189)
(0.213986 0 -0.0387615)
(0.222815 0 -0.0413287)
(0.232734 0 -0.0441963)
(0.244074 0 -0.0474645)
(0.257226 0 -0.0512674)
(0.272589 0 -0.0557621)
(0.290701 0 -0.0611847)
(0.311943 0 -0.0677551)
(0.336884 0 -0.075823)
(0.365902 0 -0.0857622)
(0.398717 0 -0.0978397)
(0.43363 0 -0.111946)
(0.466689 0 -0.127167)
(0.492619 0 -0.14174)
(0.0144223 0 -0.00195794)
(0.0413327 0 -0.00562633)
(0.0647077 0 -0.00887898)
(0.0850109 0 -0.0118072)
(0.102702 0 -0.0144877)
(0.118206 0 -0.0169846)
(0.131862 0 -0.0193431)
(0.143953 0 -0.0215969)
(0.154779 0 -0.0237833)
(0.164575 0 -0.0259224)
(0.173587 0 -0.0280455)
(0.182038 0 -0.0301759)
(0.190146 0 -0.0323403)
(0.198134 0 -0.0345709)
(0.206219 0 -0.0369007)
(0.214637 0 -0.0393737)
(0.22363 0 -0.0420411)
(0.23348 0 -0.0449761)
(0.24445 0 -0.0482514)
(0.256886 0 -0.0519827)
(0.271084 0 -0.0562817)
(0.287491 0 -0.0613366)
(0.306373 0 -0.0673006)
(0.328095 0 -0.0744072)
(0.35294 0 -0.0829139)
(0.380802 0 -0.0930154)
(0.410657 0 -0.104634)
(0.440318 0 -0.11728)
(0.466513 0 -0.129923)
(0.486367 0 -0.141613)
(0.0146074 0 -0.00205566)
(0.0418867 0 -0.00591091)
(0.0656298 0 -0.00933522)
(0.0863116 0 -0.0124247)
(0.104411 0 -0.0152623)
(0.120349 0 -0.0179152)
(0.134455 0 -0.0204266)
(0.147038 0 -0.0228365)
(0.158388 0 -0.0251838)
(0.168763 0 -0.0274972)
(0.178398 0 -0.029805)
(0.187517 0 -0.0321354)
(0.196319 0 -0.0345101)
(0.205064 0 -0.0369758)
(0.213955 0 -0.0395654)
(0.223212 0 -0.0423227)
(0.233091 0 -0.0453081)
(0.243827 0 -0.0485846)
(0.255722 0 -0.0522473)
(0.269003 0 -0.056377)
(0.284011 0 -0.0611123)
(0.301034 0 -0.0665958)
(0.320193 0 -0.0729363)
(0.341747 0 -0.0803325)
(0.365644 0 -0.0889125)
(0.391308 0 -0.098655)
(0.417395 0 -0.109256)
(0.44203 0 -0.12018)
(0.463115 0 -0.130724)
(0.47887 0 -0.140256)
(0.0147932 0 -0.00215019)
(0.0424431 0 -0.00618681)
(0.0665597 0 -0.00977894)
(0.0876249 0 -0.0130269)
(0.106132 0 -0.0160179)
(0.122504 0 -0.0188225)
(0.137065 0 -0.0214863)
(0.150148 0 -0.0240555)
(0.162037 0 -0.0265679)
(0.172981 0 -0.0290552)
(0.183208 0 -0.0315423)
(0.192956 0 -0.0340649)
(0.202448 0 -0.0366556)
(0.211911 0 -0.0393531)
(0.221532 0 -0.0421895)
(0.231553 0 -0.0452186)
(0.242218 0 -0.0485033)
(0.253719 0 -0.0520967)
(0.266334 0 -0.056092)
(0.280231 0 -0.0605568)
(0.295735 0 -0.0656291)
(0.312954 0 -0.0713931)
(0.331937 0 -0.0779344)
(0.352725 0 -0.0853619)
(0.375005 0 -0.0936828)
(0.397938 0 -0.102715)
(0.420333 0 -0.112131)
(0.440856 0 -0.121514)
(0.4582 0 -0.130408)
(0.471189 0 -0.138318)
(0.014975 0 -0.00223991)
(0.042992 0 -0.00644975)
(0.0674829 0 -0.0102037)
(0.0889296 0 -0.0136049)
(0.107851 0 -0.0167478)
(0.124663 0 -0.0197027)
(0.139694 0 -0.0225195)
(0.153269 0 -0.0252458)
(0.165668 0 -0.0279167)
(0.177152 0 -0.0305694)
(0.187964 0 -0.0332374)
(0.198326 0 -0.035952)
(0.208459 0 -0.0387497)
(0.218572 0 -0.0416654)
(0.228861 0 -0.0447365)
(0.239574 0 -0.0480248)
(0.250876 0 -0.0515693)
(0.263004 0 -0.0554442)
(0.276111 0 -0.0597032)
(0.290402 0 -0.0644317)
(0.30608 0 -0.0697274)
(0.323129 0 -0.0756295)
(0.341504 0 -0.0821836)
(0.361079 0 -0.0894212)
(0.381342 0 -0.0972387)
(0.401512 0 -0.105426)
(0.420718 0 -0.113727)
(0.438014 0 -0.121825)
(0.452565 0 -0.129404)
(0.4636 0 -0.136081)
(0.0151533 0 -0.00232451)
(0.0435308 0 -0.00669835)
(0.0683967 0 -0.0106074)
(0.0902439 0 -0.0141593)
(0.109572 0 -0.0174486)
(0.126803 0 -0.0205461)
(0.14229 0 -0.0235101)
(0.156335 0 -0.0263843)
(0.169242 0 -0.0292133)
(0.181263 0 -0.0320318)
(0.19263 0 -0.0348741)
(0.203567 0 -0.0377735)
(0.214285 0 -0.040764)
(0.224985 0 -0.0438839)
(0.235864 0 -0.0471721)
(0.247146 0 -0.0506859)
(0.258962 0 -0.0544567)
(0.271527 0 -0.0585541)
(0.284937 0 -0.0630151)
(0.299377 0 -0.0679195)
(0.314929 0 -0.0733222)
(0.331487 0 -0.079224)
(0.348925 0 -0.0856302)
(0.366981 0 -0.0925002)
(0.385154 0 -0.0997038)
(0.402854 0 -0.107074)
(0.419419 0 -0.114397)
(0.434188 0 -0.121436)
(0.446592 0 -0.127949)
(0.456157 0 -0.133661)
(0.0153252 0 -0.00240285)
(0.0440499 0 -0.0069291)
(0.069285 0 -0.0109841)
(0.0915259 0 -0.0146788)
(0.111244 0 -0.0181043)
(0.128895 0 -0.0213408)
(0.144833 0 -0.0244469)
(0.159345 0 -0.0274657)
(0.172736 0 -0.0304453)
(0.185263 0 -0.0334221)
(0.197153 0 -0.0364293)
(0.208616 0 -0.0395008)
(0.219856 0 -0.0426692)
(0.23106 0 -0.0459701)
(0.242445 0 -0.0494523)
(0.254166 0 -0.0531526)
(0.266362 0 -0.0571078)
(0.279179 0 -0.0613653)
(0.292723 0 -0.0659675)
(0.307071 0 -0.0709546)
(0.322236 0 -0.0763541)
(0.338047 0 -0.0821334)
(0.354318 0 -0.0882632)
(0.370773 0 -0.0946783)
(0.387015 0 -0.101268)
(0.402576 0 -0.107887)
(0.416974 0 -0.114367)
(0.429734 0 -0.120526)
(0.440461 0 -0.126174)
(0.448865 0 -0.131119)
(0.0154865 0 -0.00247325)
(0.0445361 0 -0.00713694)
(0.0701337 0 -0.0113278)
(0.0927665 0 -0.0151569)
(0.112882 0 -0.0187134)
(0.13094 0 -0.0220805)
(0.147291 0 -0.0253166)
(0.162254 0 -0.0284736)
(0.176114 0 -0.0315954)
(0.189109 0 -0.0347181)
(0.201471 0 -0.0378768)
(0.213409 0 -0.0411043)
(0.225105 0 -0.0444325)
(0.236737 0 -0.0478923)
(0.248528 0 -0.051538)
(0.260573 0 -0.0553879)
(0.272992 0 -0.0594743)
(0.285923 0 -0.0638416)
(0.299408 0 -0.0685098)
(0.31345 0 -0.0734904)
(0.328002 0 -0.0787828)
(0.342881 0 -0.0843419)
(0.357919 0 -0.0901306)
(0.372859 0 -0.0960792)
(0.387374 0 -0.102087)
(0.401099 0 -0.108028)
(0.413714 0 -0.113789)
(0.424859 0 -0.119214)
(0.434238 0 -0.124149)
(0.441693 0 -0.12847)
(0.0156403 0 -0.00253557)
(0.0450191 0 -0.00732481)
(0.0709628 0 -0.0116381)
(0.0939513 0 -0.0155861)
(0.114436 0 -0.0192605)
(0.132887 0 -0.0227479)
(0.149658 0 -0.0261089)
(0.165041 0 -0.0293921)
(0.179326 0 -0.0326427)
(0.192756 0 -0.0358984)
(0.205539 0 -0.0391913)
(0.21788 0 -0.0425537)
(0.229967 0 -0.0460195)
(0.241959 0 -0.0496171)
(0.254048 0 -0.0533907)
(0.266297 0 -0.0573486)
(0.27881 0 -0.0615187)
(0.291698 0 -0.0659355)
(0.304932 0 -0.0705916)
(0.318485 0 -0.0754835)
(0.332281 0 -0.0805943)
(0.346184 0 -0.0858877)
(0.360022 0 -0.0913154)
(0.373571 0 -0.0968091)
(0.386571 0 -0.102281)
(0.398749 0 -0.107631)
(0.409862 0 -0.112763)
(0.419659 0 -0.117559)
(0.42794 0 -0.121905)
(0.434604 0 -0.125714)
(0.0157805 0 -0.00258793)
(0.0454529 0 -0.00748255)
(0.0717264 0 -0.0119029)
(0.0950658 0 -0.0159581)
(0.115919 0 -0.0197406)