/*--------------------------------*- C++ -*----------------------------------*\
| =========                 |                                                 |
| \\      /  F ield         | OpenFOAM: The Open Source CFD Toolbox           |
|  \\    /   O peration     | Version:  dev                                   |
|   \\  /    A nd           | Web:      www.OpenFOAM.org                      |
|    \\/     M anipulation  |                                                 |
\*---------------------------------------------------------------------------*/
FoamFile
{
    version     2.0;
    format      ascii;
    class       volVectorField;
    location    "1.43";
    object      cellDisplacement;
}
// * * * * * * * * * * * * * * * * * * * * * * * * * * * * * * * * * * * * * //

dimensions      [0 1 0 0 0 0 0];

internalField   nonuniform List<vector> 
2790
(
(0.0132517 0 -8.61666e-05)
(0.0377539 0 -0.000245566)
(0.0584965 0 -0.000383625)
(0.0758362 0 -0.000504463)
(0.0901419 0 -0.000612838)
(0.101755 0 -0.00070839)
(0.110982 0 -0.000794034)
(0.118073 0 -0.000870818)
(0.123242 0 -0.000939494)
(0.126676 0 -0.00100096)
(0.128537 0 -0.0010532)
(0.12897 0 -0.00109648)
(0.128099 0 -0.00113011)
(0.126036 0 -0.00115292)
(0.122877 0 -0.00116341)
(0.118713 0 -0.00115972)
(0.113624 0 -0.00113954)
(0.107685 0 -0.00109998)
(0.100967 0 -0.0010374)
(0.0935403 0 -0.000947328)
(0.0854829 0 -0.00082616)
(0.0768764 0 -0.000667414)
(0.0678086 0 -0.000463643)
(0.0583807 0 -0.000206159)
(0.048714 0 0.000115476)
(0.0389669 0 0.000513665)
(0.0293704 0 0.00100364)
(0.0203219 0 0.00160743)
(0.0125996 0 0.00235095)
(0.00829085 0 0.0031339)
(0.0132688 0 -0.000259099)
(0.0378041 0 -0.000738533)
(0.0585789 0 -0.00115396)
(0.0759553 0 -0.00151746)
(0.0902947 0 -0.00183827)
(0.101941 0 -0.00212475)
(0.111209 0 -0.00238187)
(0.118345 0 -0.00261249)
(0.123565 0 -0.00281874)
(0.127056 0 -0.00300441)
(0.128979 0 -0.00316183)
(0.129483 0 -0.0032928)
(0.128693 0 -0.00339521)
(0.126722 0 -0.00346565)
(0.123669 0 -0.00349972)
(0.119626 0 -0.003492)
(0.114677 0 -0.00343585)
(0.1089 0 -0.00332293)
(0.102373 0 -0.00314276)
(0.0951631 0 -0.00288116)
(0.087365 0 -0.00253047)
(0.0790711 0 -0.00207099)
(0.0703854 0 -0.00148173)
(0.0614363 0 -0.00073875)
(0.0523848 0 0.000186763)
(0.043448 0 0.00132826)
(0.0349292 0 0.00272331)
(0.0272531 0 0.00441174)
(0.0213161 0 0.00638456)
(0.0201887 0 0.00821462)
(0.0133031 0 -0.000432339)
(0.0379044 0 -0.00123254)
(0.0587415 0 -0.00192624)
(0.0761752 0 -0.00253325)
(0.0905828 0 -0.00306751)
(0.102309 0 -0.00354675)
(0.11166 0 -0.00397727)
(0.118886 0 -0.00436382)
(0.124209 0 -0.00470926)
(0.127809 0 -0.00501426)
(0.129856 0 -0.0052789)
(0.130503 0 -0.00550138)
(0.129875 0 -0.00567764)
(0.128087 0 -0.00580222)
(0.125244 0 -0.0058682)
(0.121441 0 -0.00586709)
(0.11677 0 -0.00578881)
(0.111317 0 -0.00562063)
(0.105172 0 -0.0053474)
(0.0984091 0 -0.00494964)
(0.0911246 0 -0.0044058)
(0.0834473 0 -0.00369156)
(0.0755041 0 -0.00277664)
(0.0674687 0 -0.00162876)
(0.0595581 0 -0.000208927)
(0.0520805 0 0.00152328)
(0.0455876 0 0.00358641)
(0.0407669 0 0.00596159)
(0.0384691 0 0.00857206)
(0.0422918 0 0.0103975)
(0.0133542 0 -0.000604891)
(0.0380538 0 -0.00172472)
(0.0589839 0 -0.00269601)
(0.0765092 0 -0.00354671)
(0.0910192 0 -0.00429936)
(0.10286 0 -0.00497347)
(0.112332 0 -0.00557976)
(0.119693 0 -0.00612512)
(0.125163 0 -0.006613)
(0.128928 0 -0.00704161)
(0.131166 0 -0.00741936)
(0.132025 0 -0.00774045)
(0.131638 0 -0.00799937)
(0.130125 0 -0.00818906)
(0.127593 0 -0.00830051)
(0.124146 0 -0.00832286)
(0.119885 0 -0.00824392)
(0.114906 0 -0.00804756)
(0.109309 0 -0.00771481)
(0.103197 0 -0.00722472)
(0.0966818 0 -0.0065461)
(0.0899123 0 -0.00565259)
(0.0830537 0 -0.0045106)
(0.0763667 0 -0.00309485)
(0.0701438 0 -0.00137034)
(0.0647676 0 0.000697496)
(0.0608959 0 0.00308893)
(0.0596997 0 0.0056464)
(0.062723 0 0.00801904)
(0.0730327 0 0.00862185)
(0.0134214 0 -0.000776565)
(0.0382507 0 -0.00221465)
(0.0593042 0 -0.0034628)
(0.076953 0 -0.00455704)
(0.0915971 0 -0.00552765)
(0.103585 0 -0.00639756)
(0.113218 0 -0.00718129)
(0.120755 0 -0.00788808)
(0.126419 0 -0.00852292)
(0.130407 0 -0.00908738)
(0.132893 0 -0.00958615)
(0.134033 0 -0.0100151)
(0.133963 0 -0.0103681)
(0.132808 0 -0.0106371)
(0.130685 0 -0.0108119)
(0.127703 0 -0.0108796)
(0.123978 0 -0.0108286)
(0.119617 0 -0.0106402)
(0.114734 0 -0.0102932)
(0.10945 0 -0.00976279)
(0.103927 0 -0.0090285)
(0.0983462 0 -0.00806231)
(0.0929076 0 -0.00683142)
(0.0879075 0 -0.00531296)
(0.0837708 0 -0.00350404)
(0.0810822 0 -0.00143241)
(0.0805869 0 0.000819954)
(0.083573 0 0.00298541)
(0.0925012 0 0.00426399)
(0.110892 0 0.00237818)
(0.0135037 0 -0.000947146)
(0.0384934 0 -0.00270181)
(0.0596997 0 -0.00422601)
(0.0775015 0 -0.00556347)
(0.0923105 0 -0.00675215)
(0.104478 0 -0.00781916)
(0.114308 0 -0.00878264)
(0.122061 0 -0.00965436)
(0.127967 0 -0.0104411)
(0.132224 0 -0.0111459)
(0.135016 0 -0.0117741)
(0.136498 0 -0.0123215)
(0.136815 0 -0.0127824)
(0.136099 0 -0.0131485)
(0.134475 0 -0.013409)
(0.132059 0 -0.013549)
(0.128986 0 -0.0135625)
(0.125381 0 -0.0134291)
(0.121377 0 -0.013129)
(0.117119 0 -0.0126403)
(0.112781 0 -0.0119396)
(0.108607 0 -0.0110142)
(0.104866 0 -0.00984807)
(0.10189 0 -0.00843331)
(0.100222 0 -0.00680921)
(0.100555 0 -0.00506158)
(0.103969 0 -0.00342433)
(0.112042 0 -0.00235975)
(0.127131 0 -0.00290425)
(0.154697 0 -0.00856322)
(0.0136002 0 -0.00111639)
(0.0387802 0 -0.00318563)
(0.0601671 0 -0.00498502)
(0.0781489 0 -0.00656519)
(0.0931525 0 -0.00797233)
(0.105532 0 -0.00923805)
(0.115593 0 -0.0103841)
(0.123602 0 -0.011425)
(0.129791 0 -0.0123695)
(0.134364 0 -0.0132205)
(0.137514 0 -0.0139882)
(0.139398 0 -0.014667)
(0.140168 0 -0.0152522)
(0.139967 0 -0.0157364)
(0.138931 0 -0.0161106)
(0.13719 0 -0.0163641)
(0.134878 0 -0.016483)
(0.132147 0 -0.0164542)
(0.12915 0 -0.0162617)
(0.126074 0 -0.015895)
(0.123093 0 -0.015327)
(0.120532 0 -0.0145741)
(0.118704 0 -0.0136373)
(0.118025 0 -0.0125419)
(0.11911 0 -0.0113736)
(0.122894 0 -0.0103367)
(0.130524 0 -0.00975482)
(0.1441 0 -0.0104142)
(0.166055 0 -0.0136319)
(0.203439 0 -0.0242484)
(0.0137103 0 -0.00128487)
(0.0391106 0 -0.00366777)
(0.0607029 0 -0.00573914)
(0.0788887 0 -0.00756118)
(0.0941156 0 -0.00918737)
(0.106737 0 -0.0106536)
(0.117063 0 -0.0119855)
(0.125364 0 -0.0132004)
(0.131876 0 -0.0143099)
(0.136819 0 -0.0153229)
(0.140379 0 -0.0162425)
(0.14272 0 -0.0170669)
(0.144006 0 -0.017794)
(0.144386 0 -0.0184184)
(0.14401 0 -0.0189333)
(0.143029 0 -0.0193339)
(0.141573 0 -0.0195999)
(0.13982 0 -0.0197288)
(0.137939 0 -0.0197081)
(0.136173 0 -0.0195467)
(0.13474 0 -0.0192347)
(0.133951 0 -0.0187868)
(0.134226 0 -0.0182507)
(0.136065 0 -0.0176989)
(0.140181 0 -0.017277)
(0.147561 0 -0.0172617)
(0.159838 0 -0.0182389)
(0.179015 0 -0.0211354)
(0.208977 0 -0.0280262)
(0.256179 0 -0.0444819)
(0.0138323 0 -0.00145218)
(0.0394627 0 -0.00414578)
(0.0612866 0 -0.0064887)
(0.0797169 0 -0.00855447)
(0.0951962 0 -0.0104014)
(0.10809 0 -0.012071)
(0.118712 0 -0.0135927)
(0.12734 0 -0.0149872)
(0.134218 0 -0.0162696)
(0.139571 0 -0.0174537)
(0.143581 0 -0.0185356)
(0.146428 0 -0.0195196)
(0.148283 0 -0.0204067)
(0.149305 0 -0.0211935)
(0.149651 0 -0.0218752)
(0.149485 0 -0.0224503)
(0.14896 0 -0.0229066)
(0.148287 0 -0.0232547)
(0.147656 0 -0.0234902)
(0.147307 0 -0.0236209)
(0.147536 0 -0.0236699)
(0.148643 0 -0.023659)
(0.151172 0 -0.0236948)
(0.155689 0 -0.0238949)
(0.163033 0 -0.024495)
(0.174344 0 -0.0258856)
(0.191386 0 -0.0288079)
(0.217007 0 -0.0346846)
(0.25616 0 -0.0463587)
(0.312321 0 -0.0690105)
(0.0139648 0 -0.00161721)
(0.0398508 0 -0.00461841)
(0.0619312 0 -0.0072337)
(0.080627 0 -0.00954316)
(0.0963841 0 -0.011612)
(0.109577 0 -0.0134874)
(0.120525 0 -0.0152027)
(0.129511 0 -0.0167818)
(0.136785 0 -0.0182425)
(0.142575 0 -0.019599)
(0.147074 0 -0.0208539)
(0.150468 0 -0.0220114)
(0.152939 0 -0.0230776)
(0.154654 0 -0.0240507)
(0.155776 0 -0.0249279)
(0.156498 0 -0.0257194)
(0.156995 0 -0.0264226)
(0.157471 0 -0.027045)
(0.158163 0 -0.0276018)
(0.159308 0 -0.0281058)
(0.161244 0 -0.028605)
(0.164399 0 -0.0291793)
(0.169278 0 -0.0299412)
(0.176577 0 -0.0310895)
(0.187255 0 -0.0329453)
(0.202675 0 -0.0360599)
(0.224841 0 -0.0413795)
(0.257528 0 -0.0508679)
(0.305871 0 -0.067932)
(0.369365 0 -0.0964733)
(0.0141072 0 -0.00177968)
(0.0402707 0 -0.00508458)
(0.062627 0 -0.00796914)
(0.081607 0 -0.0105206)
(0.0976634 0 -0.0128111)
(0.111179 0 -0.0148937)
(0.122478 0 -0.0168053)
(0.131848 0 -0.0185734)
(0.139546 0 -0.020218)
(0.145806 0 -0.021757)
(0.150828 0 -0.0231964)
(0.154803 0 -0.0245411)
(0.157933 0 -0.0258061)
(0.160387 0 -0.026991)
(0.162351 0 -0.0281025)
(0.164011 0 -0.0291467)
(0.165576 0 -0.030137)
(0.167246 0 -0.0310816)
(0.169274 0 -0.0320077)
(0.171984 0 -0.0329694)
(0.175729 0 -0.0340299)
(0.180978 0 -0.0353019)
(0.188242 0 -0.0369244)
(0.198381 0 -0.0391896)
(0.212451 0 -0.0425115)
(0.231988 0 -0.0475818)
(0.259507 0 -0.0556591)
(0.299049 0 -0.0690445)
(0.355701 0 -0.0915835)
(0.425191 0 -0.125482)
(0.0142582 0 -0.00193925)
(0.0407176 0 -0.00554318)
(0.0633674 0 -0.00869362)
(0.0826483 0 -0.0114852)
(0.0990231 0 -0.0139966)
(0.112883 0 -0.0162876)
(0.124554 0 -0.0183984)
(0.134331 0 -0.0203596)
(0.142477 0 -0.0221934)
(0.149237 0 -0.0239247)
(0.154813 0 -0.0255613)
(0.159416 0 -0.0271162)
(0.163239 0 -0.0285992)
(0.166467 0 -0.0300178)
(0.169305 0 -0.0313887)
(0.171928 0 -0.0327132)
(0.174562 0 -0.0340158)
(0.177469 0 -0.0353345)
(0.180911 0 -0.0367061)
(0.185207 0 -0.0381908)
(0.190757 0 -0.0398844)
(0.198076 0 -0.0419373)
(0.207773 0 -0.0445503)
(0.220729 0 -0.0480638)
(0.238147 0 -0.0530017)
(0.261782 0 -0.0602194)
(0.294367 0 -0.0711871)
(0.340425 0 -0.0886264)
(0.404825 0 -0.116675)
(0.47958 0 -0.155462)
(0.0144164 0 -0.00209552)
(0.0411874 0 -0.00599311)
(0.0641461 0 -0.00940562)
(0.0837422 0 -0.0124348)
(0.100452 0 -0.015166)
(0.114676 0 -0.0176666)
(0.12674 0 -0.019979)
(0.136943 0 -0.0221379)
(0.145569 0 -0.0241739)
(0.152856 0 -0.0261075)
(0.159014 0 -0.0279529)
(0.164268 0 -0.0297304)
(0.168801 0 -0.0314448)
(0.172819 0 -0.0331132)
(0.176533 0 -0.0347576)
(0.18014 0 -0.0363914)
(0.183905 0 -0.0380597)
(0.188065 0 -0.0397945)
(0.192919 0 -0.0416559)
(0.19878 0 -0.0437119)
(0.206146 0 -0.0461137)
(0.215506 0 -0.0490192)
(0.227547 0 -0.0526923)
(0.243242 0 -0.0575461)
(0.263875 0 -0.0641928)
(0.29135 0 -0.0736292)
(0.328816 0 -0.0876224)
(0.381076 0 -0.109224)
(0.452445 0 -0.142546)
(0.531651 0 -0.185574)
(0.0145802 0 -0.00224806)
(0.0416761 0 -0.00643324)
(0.0649575 0 -0.0101036)
(0.0848802 0 -0.0133677)
(0.101946 0 -0.016322)
(0.116554 0 -0.019034)
(0.129028 0 -0.0215507)
(0.139683 0 -0.0239127)
(0.148806 0 -0.0261561)
(0.156629 0 -0.0282965)
(0.163382 0 -0.0303577)
(0.169284 0 -0.0323591)
(0.174543 0 -0.0343184)
(0.179361 0 -0.0362525)
(0.183974 0 -0.0381965)
(0.188601 0 -0.040177)
(0.193499 0 -0.0422396)
(0.198888 0 -0.0444153)
(0.205103 0 -0.0467888)
(0.212551 0 -0.0494793)
(0.221681 0 -0.0526326)
(0.232972 0 -0.0564247)
(0.247263 0 -0.0612093)
(0.265515 0 -0.0674344)
(0.289102 0 -0.0758051)
(0.320111 0 -0.0874684)
(0.361929 0 -0.104423)
(0.419607 0 -0.130023)
(0.49676 0 -0.168109)
(0.579637 0 -0.214695)
(0.0147504 0 -0.00239734)
(0.0421833 0 -0.00686458)
(0.0658014 0 -0.0107891)
(0.0860767 0 -0.014288)
(0.103509 0 -0.0174641)
(0.118501 0 -0.0203854)
(0.131398 0 -0.0231073)
(0.142514 0 -0.0256736)
(0.152135 0 -0.0281211)
(0.160504 0 -0.030473)
(0.167861 0 -0.0327568)
(0.174422 0 -0.0349922)
(0.180418 0 -0.0372102)
(0.186064 0 -0.0394351)
(0.191582 0 -0.0416975)
(0.197211 0 -0.0440381)
(0.203189 0 -0.0464991)
(0.209783 0 -0.0491399)
(0.21737 0 -0.0520715)
(0.22633 0 -0.0554138)
(0.237071 0 -0.0593133)
(0.250238 0 -0.0640356)
(0.266591 0 -0.0699291)
(0.287152 0 -0.0775066)
(0.313329 0 -0.0875362)
(0.347243 0 -0.101253)
(0.392407 0 -0.120825)
(0.453789 0 -0.149745)
(0.534267 0 -0.19153)
(0.62057 0 -0.241413)
(0.0149864 0 -0.00484135)
(0.0414184 0 -0.00716431)
(0.127113 0 -0.0117592)
(0.270784 0 -0.0161056)
(0.382611 0 -0.0172578)
(0.442615 0 -0.0171916)
(0.475051 0 -0.0165895)
(0.494093 0 -0.0157896)
(0.505554 0 -0.0149117)
(0.511868 0 -0.014009)
(0.514224 0 -0.0131136)
(0.513272 0 -0.0122423)
(0.509389 0 -0.0114077)
(0.502795 0 -0.010615)
(0.493613 0 -0.00986657)
(0.481894 0 -0.00914691)
(0.467658 0 -0.00848102)
(0.450873 0 -0.00782255)
(0.431532 0 -0.00716446)
(0.409587 0 -0.00655665)
(0.384921 0 -0.00597229)
(0.357469 0 -0.00540267)
(0.327151 0 -0.00484051)
(0.293885 0 -0.00427862)
(0.257584 0 -0.00370935)
(0.218159 0 -0.00312431)
(0.175524 0 -0.00251408)
(0.129592 0 -0.00186771)
(0.0803059 0 -0.00117274)
(0.0273635 0 -0.000409988)
(0.0239724 0 -0.0149564)
(0.0536113 0 -0.0219895)
(0.142083 0 -0.0355403)
(0.281725 0 -0.0475794)
(0.387968 0 -0.050841)
(0.445494 0 -0.0506316)
(0.476934 0 -0.0489183)
(0.495485 0 -0.0465917)
(0.506649 0 -0.0440315)
(0.512756 0 -0.0413952)
(0.514956 0 -0.0387776)
(0.513879 0 -0.0362265)
(0.509895 0 -0.0337802)
(0.503217 0 -0.031456)
(0.493967 0 -0.029265)
(0.482186 0 -0.0271416)
(0.467903 0 -0.0251095)
(0.451102 0 -0.0231668)
(0.431731 0 -0.0212706)
(0.409742 0 -0.0194797)
(0.38505 0 -0.017752)
(0.357578 0 -0.016065)
(0.327245 0 -0.0143981)
(0.293966 0 -0.0127302)
(0.257654 0 -0.0110388)
(0.218221 0 -0.00929928)
(0.175579 0 -0.00748366)
(0.129638 0 -0.00555972)
(0.0803397 0 -0.00349062)
(0.0273798 0 -0.00122004)
(0.041285 0 -0.026269)
(0.0769322 0 -0.0384534)
(0.169786 0 -0.0603169)
(0.301612 0 -0.0779162)
(0.398179 0 -0.0827346)
(0.451204 0 -0.0822932)
(0.480717 0 -0.0795582)
(0.498283 0 -0.0758425)
(0.508844 0 -0.0717385)
(0.514528 0 -0.0675067)
(0.516407 0 -0.0633002)
(0.515077 0 -0.0591905)
(0.510886 0 -0.0552472)
(0.504038 0 -0.0515)
(0.494649 0 -0.0478887)
(0.482768 0 -0.0444352)
(0.468394 0 -0.0411031)
(0.451512 0 -0.0379448)
(0.432076 0 -0.0349096)
(0.410026 0 -0.0319986)
(0.385285 0 -0.0291791)
(0.357775 0 -0.0264198)
(0.327411 0 -0.0236885)
(0.294108 0 -0.0209515)
(0.257777 0 -0.0181725)
(0.218328 0 -0.0153114)
(0.175671 0 -0.0123229)
(0.129716 0 -0.00915448)
(0.0803981 0 -0.00574652)
(0.0274069 0 -0.00200764)
(0.0662351 0 -0.0396598)
(0.110214 0 -0.057808)
(0.207228 0 -0.086821)
(0.327782 0 -0.107523)
(0.412284 0 -0.113091)
(0.459502 0 -0.112333)
(0.486321 0 -0.108497)
(0.502458 0 -0.1035)
(0.512118 0 -0.0979759)
(0.517162 0 -0.0922793)
(0.518555 0 -0.0866153)
(0.516838 0 -0.0810656)
(0.512336 0 -0.0757458)
(0.505236 0 -0.0706062)
(0.495643 0 -0.0656535)
(0.483592 0 -0.0609481)
(0.469079 0 -0.056448)
(0.452079 0 -0.0521542)
(0.432543 0 -0.0480328)
(0.410409 0 -0.0440614)
(0.385599 0 -0.0402038)
(0.358032 0 -0.0364201)
(0.327624 0 -0.0326681)
(0.294286 0 -0.0289025)
(0.257927 0 -0.0250741)
(0.218455 0 -0.0211285)
(0.17578 0 -0.0170042)
(0.129805 0 -0.0126301)
(0.0804628 0 -0.00792557)
(0.0274358 0 -0.00276704)
(0.0981953 0 -0.0559072)
(0.151869 0 -0.0806485)
(0.250821 0 -0.114898)
(0.357582 0 -0.136368)
(0.429263 0 -0.141877)
(0.469974 0 -0.140502)
(0.49357 0 -0.135615)
(0.507921 0 -0.129428)
(0.516408 0 -0.122612)
(0.520604 0 -0.115592)
(0.521351 0 -0.10862)
(0.519119 0 -0.101753)
(0.514202 0 -0.0950996)
(0.50677 0 -0.0886655)
(0.496903 0 -0.0825229)
(0.484626 0 -0.0766685)
(0.469927 0 -0.0710754)
(0.452771 0 -0.065725)
(0.433106 0 -0.0605831)
(0.410862 0 -0.0556145)
(0.385964 0 -0.0507761)
(0.358325 0 -0.0460202)
(0.32786 0 -0.0412951)
(0.294477 0 -0.0365453)
(0.258084 0 -0.0317098)
(0.218585 0 -0.0267211)
(0.175887 0 -0.021503)
(0.129891 0 -0.0159674)
(0.0805242 0 -0.010015)
(0.0274626 0 -0.00349345)
(0.136963 0 -0.0757449)
(0.199539 0 -0.106679)
(0.297197 0 -0.143795)
(0.388989 0 -0.164231)
(0.448133 0 -0.16899)
(0.482146 0 -0.166634)
(0.502252 0 -0.160806)
(0.514533 0 -0.153522)
(0.521613 0 -0.145545)
(0.524776 0 -0.137349)
(0.524714 0 -0.129141)
(0.521851 0 -0.121077)
(0.516426 0 -0.113203)
(0.508584 0 -0.105648)
(0.498381 0 -0.0984227)
(0.485827 0 -0.0915232)
(0.470899 0 -0.0849253)
(0.453554 0 -0.0786006)
(0.43373 0 -0.0725104)
(0.411357 0 -0.066611)
(0.386352 0 -0.0608526)
(0.358628 0 -0.0551798)
(0.328096 0 -0.0495328)
(0.294661 0 -0.0438466)
(0.258227 0 -0.0380498)
(0.218699 0 -0.0320633)
(0.175978 0 -0.0257976)
(0.129962 0 -0.0191498)
(0.0805735 0 -0.012004)
(0.0274839 0 -0.00418286)
(0.181001 0 -0.098905)
(0.250755 0 -0.135135)
(0.343989 0 -0.172816)
(0.420618 0 -0.190866)
(0.468118 0 -0.19432)
(0.495592 0 -0.19075)
(0.512097 0 -0.183985)
(0.522109 0 -0.175692)
(0.527596 0 -0.166691)
(0.529547 0 -0.157402)
(0.528544 0 -0.148072)
(0.524945 0 -0.138924)
(0.518936 0 -0.130034)
(0.510617 0 -0.121483)
(0.500023 0 -0.113292)
(0.487147 0 -0.105455)
(0.471953 0 -0.0979465)
(0.454387 0 -0.0907332)
(0.434382 0 -0.0837713)
(0.41186 0 -0.0770109)
(0.386734 0 -0.0703958)
(0.358914 0 -0.0638644)
(0.328306 0 -0.0573495)
(0.294813 0 -0.0507777)
(0.258338 0 -0.0440688)
(0.218779 0 -0.0371331)
(0.176036 0 -0.0298699)
(0.130005 0 -0.0221633)
(0.0806029 0 -0.0138836)
(0.0274967 0 -0.00483206)
(0.228361 0 -0.124649)
(0.303707 0 -0.165221)
(0.389605 0 -0.201245)
(0.451579 0 -0.215982)
(0.488484 0 -0.217628)
(0.509849 0 -0.21279)
(0.522797 0 -0.205073)
(0.530428 0 -0.195871)
(0.534159 0 -0.185918)
(0.534766 0 -0.175644)
(0.532731 0 -0.165378)
(0.528314 0 -0.155308)
(0.52165 0 -0.145533)
(0.512799 0 -0.136118)
(0.501768 0 -0.127082)
(0.488532 0 -0.118417)
(0.473041 0 -0.110097)
(0.455231 0 -0.102084)
(0.435025 0 -0.0943297)
(0.412338 0 -0.0867805)
(0.387079 0 -0.0793748)
(0.359155 0 -0.0720453)
(0.328466 0 -0.0647187)
(0.294913 0 -0.0573148)
(0.258395 0 -0.0497455)
(0.218808 0 -0.0419124)
(0.17605 0 -0.033705)
(0.13001 0 -0.0249967)
(0.0806056 0 -0.0156467)
(0.0274985 0 -0.00543861)
(0.278353 0 -0.152715)
(0.357191 0 -0.196207)
(0.433024 0 -0.228445)
(0.481243 0 -0.239325)
(0.508606 0 -0.238647)
(0.524528 0 -0.232639)
(0.534036 0 -0.224006)
(0.539205 0 -0.21394)
(0.541078 0 -0.203125)
(0.540275 0 -0.192046)
(0.537138 0 -0.181002)
(0.531846 0 -0.170172)
(0.524476 0 -0.159657)
(0.515051 0 -0.149513)
(0.503549 0 -0.139755)
(0.489925 0 -0.130375)
(0.474115 0 -0.121344)
(0.456041 0 -0.112621)
(0.435619 0 -0.104157)
(0.412757 0 -0.0958933)
(0.387358 0 -0.0877644)
(0.359324 0 -0.0796992)
(0.328552 0 -0.0716192)
(0.294939 0 -0.0634387)
(0.258381 0 -0.0550629)
(0.218772 0 -0.0463866)
(0.176004 0 -0.0372912)
(0.129968 0 -0.0276415)
(0.0805756 0 -0.0172881)
(0.0274874 0 -0.00600075)
(0.330589 0 -0.182839)
(0.410157 0 -0.227301)
(0.473496 0 -0.253802)
(0.508931 0 -0.26037)
(0.528164 0 -0.257437)
(0.539261 0 -0.250225)
(0.545438 0 -0.240672)
(0.548127 0 -0.229797)
(0.548132 0 -0.218284)
(0.545888 0 -0.206566)
(0.541617 0 -0.194911)
(0.535417 0 -0.183483)
(0.527313 0 -0.172378)
(0.517288 0 -0.161641)
(0.505294 0 -0.151288)
(0.491265 0 -0.141305)
(0.47512 0 -0.131665)
(0.456772 0 -0.122325)
(0.436126 0 -0.113233)
(0.413083 0 -0.104329)
(0.38754 0 -0.0955461)
(0.359395 0 -0.0868085)
(0.328541 0 -0.0780348)
(0.294871 0 -0.0691346)
(0.258278 0 -0.0600082)
(0.218654 0 -0.0505449)
(0.175889 0 -0.0406198)
(0.12987 0 -0.0300914)
(0.0805075 0 -0.0188041)
(0.0274615 0 -0.00651742)
(0.384713 0 -0.214664)
(0.461427 0 -0.257546)
(0.51039 0 -0.276753)
(0.534279 0 -0.278769)
(0.546885 0 -0.273842)
(0.55362 0 -0.265394)
(0.556598 0 -0.25494)
(0.556898 0 -0.243403)
(0.555079 0 -0.231361)
(0.551412 0 -0.21918)
(0.54601 0 -0.207088)
(0.538899 0 -0.195229)
(0.530055 0 -0.183683)
(0.519423 0 -0.172493)
(0.50693 0 -0.161668)
(0.492489 0 -0.151196)
(0.476005 0 -0.141048)
(0.457378 0 -0.131182)
(0.436505 0 -0.121545)
(0.41328 0 -0.112076)
(0.387595 0 -0.102707)
(0.359341 0 -0.0933612)
(0.328409 0 -0.083954)
(0.294689 0 -0.0743922)
(0.25807 0 -0.0645724)
(0.218442 0 -0.0543797)
(0.175692 0 -0.0436852)
(0.129708 0 -0.0323425)
(0.0803967 0 -0.0201927)
(0.0274192 0 -0.00698814)
(0.44026 0 -0.2477)
(0.509426 0 -0.285681)
(0.542815 0 -0.296426)
(0.557433 0 -0.294554)
(0.564407 0 -0.287628)
(0.567125 0 -0.277944)
(0.567146 0 -0.266735)
(0.565217 0 -0.25472)
(0.561676 0 -0.242344)
(0.556648 0 -0.229889)
(0.550156 0 -0.217541)
(0.542162 0 -0.205415)
(0.532595 0 -0.19358)
(0.521368 0 -0.182072)
(0.508383 0 -0.170898)
(0.493535 0 -0.160047)
(0.476716 0 -0.14949)
(0.457815 0 -0.139187)
(0.436719 0 -0.129086)
(0.413317 0 -0.119126)
(0.387495 0 -0.10924)
(0.359139 0 -0.0993503)
(0.328137 0 -0.0893704)
(0.294375 0 -0.0792056)
(0.257742 0 -0.0687503)
(0.218123 0 -0.0578871)
(0.175406 0 -0.0464843)
(0.129475 0 -0.0343932)
(0.0802393 0 -0.0214533)
(0.0273594 0 -0.00741298)
(0.496501 0 -0.281205)
(0.552048 0 -0.310025)
(0.57102 0 -0.312539)
(0.578255 0 -0.307282)
(0.580205 0 -0.298424)
(0.579339 0 -0.287705)
(0.576724 0 -0.275983)
(0.572791 0 -0.263732)
(0.567683 0 -0.251245)
(0.561407 0 -0.238722)
(0.553903 0 -0.226299)
(0.54508 0 -0.21407)
(0.53483 0 -0.202093)
(0.523037 0 -0.190397)
(0.509582 0 -0.178992)
(0.494344 0 -0.167867)
(0.477204 0 -0.156997)
(0.458039 0 -0.146344)
(0.436731 0 -0.135858)
(0.413161 0 -0.125481)
(0.387211 0 -0.115145)
(0.358764 0 -0.104774)
(0.327703 0 -0.0942817)
(0.293913 0 -0.0835726)
(0.257279 0 -0.0725402)
(0.217686 0 -0.0610658)
(0.175021 0 -0.0490168)
(0.129166 0 -0.0362437)
(0.0800322 0 -0.0225865)
(0.0272813 0 -0.00779246)
(0.552508 0 -0.31395)
(0.588599 0 -0.329489)
(0.595593 0 -0.324778)
(0.59622 0 -0.316263)
(0.593759 0 -0.305832)
(0.58984 0 -0.294503)
(0.58499 0 -0.282643)
(0.579346 0 -0.270462)
(0.572883 0 -0.258117)
(0.565511 0 -0.245735)
(0.557108 0 -0.233419)
(0.547538 0 -0.221243)
(0.536665 0 -0.209261)
(0.524351 0 -0.197502)
(0.510461 0 -0.185976)
(0.49486 0 -0.174678)
(0.47742 0 -0.163586)
(0.45801 0 -0.152665)
(0.436507 0 -0.14187)
(0.412784 0 -0.131145)
(0.386721 0 -0.120425)
(0.358196 0 -0.109635)
(0.327091 0 -0.0986901)
(0.293289 0 -0.087495)
(0.256671 0 -0.0759436)
(0.217123 0 -0.0639175)
(0.174531 0 -0.0512845)
(0.128777 0 -0.037896)
(0.0797728 0 -0.0235942)
(0.0271841 0 -0.00812754)
(0.599917 0 -0.339667)
(0.620405 0 -0.343227)
(0.615695 0 -0.331203)
(0.610425 0 -0.320332)
(0.604467 0 -0.309404)
(0.598208 0 -0.298235)
(0.591637 0 -0.286753)
(0.584646 0 -0.274997)
(0.577091 0 -0.263054)
(0.568811 0 -0.251019)
(0.559645 0 -0.238976)
(0.549432 0 -0.226999)
(0.538014 0 -0.215138)
(0.525238 0 -0.203429)
(0.510959 0 -0.191885)
(0.495033 0 -0.180506)
(0.477322 0 -0.169276)
(0.457694 0 -0.158165)
(0.436016 0 -0.147134)
(0.41216 0 -0.136129)
(0.386002 0 -0.125089)
(0.357418 0 -0.11394)
(0.326287 0 -0.102601)
(0.29249 0 -0.0909773)
(0.255908 0 -0.0789648)
(0.216427 0 -0.0664463)
(0.17393 0 -0.0532912)
(0.128304 0 -0.0393533)
(0.0794589 0 -0.0244787)
(0.0270668 0 -0.00841922)
(0.0149276 0 -0.00254531)
(0.0427117 0 -0.00729295)
(0.0666844 0 -0.0114722)
(0.087325 0 -0.015206)
(0.105135 0 -0.0186014)
(0.120529 0 -0.0217344)
(0.133864 0 -0.0246651)
(0.145457 0 -0.0274401)
(0.155595 0 -0.0300997)
(0.164528 0 -0.0326707)
(0.172508 0 -0.0351889)
(0.179765 0 -0.0376808)
(0.186521 0 -0.0401748)
(0.193003 0 -0.042705)
(0.199415 0 -0.0452966)
(0.206014 0 -0.0480029)
(0.213079 0 -0.0508913)
(0.220891 0 -0.0540337)
(0.2298 0 -0.0575401)
(0.240155 0 -0.0615305)
(0.252484 0 -0.0662181)
(0.26737 0 -0.0718635)
(0.285589 0 -0.0788482)
(0.308147 0 -0.0877141)
(0.33641 0 -0.0992587)
(0.372498 0 -0.11478)
(0.419601 0 -0.136396)
(0.481764 0 -0.167305)
(0.559998 0 -0.210524)
(0.640114 0 -0.261727)
(0.0151097 0 -0.00269179)
(0.0432585 0 -0.00771828)
(0.0676018 0 -0.0121524)
(0.0886258 0 -0.0161234)
(0.106831 0 -0.0197413)
(0.122649 0 -0.0230902)
(0.136441 0 -0.0262351)
(0.148529 0 -0.0292249)
(0.159208 0 -0.0321067)
(0.168742 0 -0.0349152)
(0.177377 0 -0.0376834)
(0.185344 0 -0.040444)
(0.192859 0 -0.0432222)
(0.200161 0 -0.0460619)
(0.207468 0 -0.0489991)
(0.215071 0 -0.0521066)
(0.223218 0 -0.0554449)
(0.232199 0 -0.0590985)
(0.242334 0 -0.0631743)
(0.254061 0 -0.0678444)
(0.267846 0 -0.0733107)
(0.28428 0 -0.0798578)
(0.304083 0 -0.087865)
(0.328228 0 -0.0978924)
(0.357996 0 -0.110733)
(0.395203 0 -0.127597)
(0.44228 0 -0.15028)
(0.501346 0 -0.180958)
(0.569863 0 -0.219991)
(0.630922 0 -0.258422)
(0.015294 0 -0.00283492)
(0.0438169 0 -0.00813549)
(0.068542 0 -0.0128214)
(0.0899609 0 -0.017028)
(0.108578 0 -0.0208704)
(0.124833 0 -0.0244364)
(0.139098 0 -0.0277994)
(0.151709 0 -0.0310151)
(0.162956 0 -0.0341295)
(0.173101 0 -0.0371818)
(0.182383 0 -0.0402021)
(0.191042 0 -0.0432287)
(0.199311 0 -0.0462982)
(0.207437 0 -0.0494623)
(0.215658 0 -0.0527691)
(0.224239 0 -0.0562868)
(0.233406 0 -0.0600723)
(0.243464 0 -0.0642251)
(0.254786 0 -0.0688859)
(0.267754 0 -0.0742138)
(0.282837 0 -0.0804281)
(0.300567 0 -0.0878037)
(0.321587 0 -0.0967044)
(0.346833 0 -0.107696)
(0.377309 0 -0.121468)
(0.414426 0 -0.13905)
(0.459548 0 -0.161692)
(0.51277 0 -0.190338)
(0.569498 0 -0.223677)
(0.61677 0 -0.254888)
(0.0154776 0 -0.00297348)
(0.0443806 0 -0.00854147)
(0.0694998 0 -0.0134756)
(0.091322 0 -0.0179147)
(0.11036 0 -0.0219803)
(0.127077 0 -0.0257709)
(0.141843 0 -0.0293585)
(0.154984 0 -0.0328028)
(0.166791 0 -0.0361483)
(0.177533 0 -0.0394395)
(0.187462 0 -0.042716)
(0.196813 0 -0.046015)
(0.205852 0 -0.0493932)
(0.214799 0 -0.0528918)
(0.223891 0 -0.0565656)
(0.233364 0 -0.0604739)
(0.2435 0 -0.0647063)
(0.254593 0 -0.0693651)
(0.26698 0 -0.0745844)
(0.281047 0 -0.0805367)
(0.297208 0 -0.087429)
(0.315884 0 -0.0954977)
(0.337758 0 -0.105143)
(0.363548 0 -0.116838)
(0.393991 0 -0.131155)
(0.42991 0 -0.148823)
(0.471672 0 -0.170504)
(0.518144 0 -0.196272)
(0.564559 0 -0.224235)
(0.602019 0 -0.24966)
(0.015657 0 -0.0031061)
(0.0449484 0 -0.00893515)
(0.0704742 0 -0.0141136)
(0.0927102 0 -0.0187824)
(0.11219 0 -0.0230719)
(0.129376 0 -0.0270858)
(0.144635 0 -0.0308946)
(0.158297 0 -0.0345607)
(0.170663 0 -0.0381379)
(0.182003 0 -0.0416702)
(0.192578 0 -0.0452068)
(0.202639 0 -0.0487935)
(0.212433 0 -0.0524824)
(0.222149 0 -0.0563055)
(0.23204 0 -0.0603284)
(0.242387 0 -0.0646368)
(0.253427 0 -0.0693062)
(0.265436 0 -0.0744389)
(0.278762 0 -0.0801826)
(0.293735 0 -0.0866933)
(0.31066 0 -0.0941366)
(0.330017 0 -0.102789)
(0.352347 0 -0.112989)
(0.378127 0 -0.125101)
(0.407781 0 -0.13953)
(0.441695 0 -0.156754)
(0.479477 0 -0.176941)
(0.519429 0 -0.199649)
(0.557421 0 -0.222986)
(0.587876 0 -0.243927)
(0.015861 0 -0.003238)
(0.045543 0 -0.00931872)
(0.0714562 0 -0.0147298)
(0.0941079 0 -0.0196224)
(0.114029 0 -0.0241305)
(0.131677 0 -0.0283583)
(0.147429 0 -0.0323852)
(0.161616 0 -0.0362735)
(0.174543 0 -0.0400825)
(0.186491 0 -0.0438632)
(0.197715 0 -0.0476641)
(0.208458 0 -0.0515325)
(0.218943 0 -0.0555126)
(0.229385 0 -0.0596519)
(0.240065 0 -0.0640323)
(0.251217 0 -0.0687251)
(0.263039 0 -0.0737926)
(0.275863 0 -0.0793701)
(0.289963 0 -0.0855787)
(0.305574 0 -0.0925369)
(0.323071 0 -0.100451)
(0.3428 0 -0.109537)
(0.365141 0 -0.120063)
(0.390402 0 -0.132302)
(0.418784 0 -0.146528)
(0.450143 0 -0.162892)
(0.483772 0 -0.1813)
(0.51791 0 -0.201088)
(0.549343 0 -0.220663)
(0.574667 0 -0.238117)
(0.0160578 0 -0.00336173)
(0.0461236 0 -0.00967988)
(0.0724256 0 -0.0153135)
(0.0954916 0 -0.0204212)
(0.115852 0 -0.0251404)
(0.133962 0 -0.0295773)
(0.150204 0 -0.0338166)
(0.164926 0 -0.0379295)
(0.178426 0 -0.0419738)
(0.19097 0 -0.0460003)
(0.202799 0 -0.0500511)
(0.214172 0 -0.0541834)
(0.22532 0 -0.0584496)
(0.236472 0 -0.0629062)
(0.247869 0 -0.067623)
(0.259698 0 -0.0726538)
(0.272238 0 -0.0781032)
(0.285734 0 -0.084072)
(0.300378 0 -0.0906484)
(0.316476 0 -0.0979895)
(0.334284 0 -0.106249)
(0.354051 0 -0.115598)
(0.37607 0 -0.126256)
(0.400434 0 -0.13838)
(0.427093 0 -0.152085)
(0.455699 0 -0.167361)
(0.485387 0 -0.18394)
(0.5145 0 -0.201079)
(0.540846 0 -0.217628)
(0.562335 0 -0.232374)
(0.0162439 0 -0.0034752)
(0.0466841 0 -0.0100145)
(0.0733698 0 -0.0158577)
(0.0968467 0 -0.0211697)
(0.117642 0 -0.026091)
(0.136223 0 -0.0307347)
(0.152972 0 -0.0351868)
(0.168214 0 -0.0395159)
(0.182248 0 -0.04378)
(0.19535 0 -0.0480359)
(0.207757 0 -0.0523281)
(0.21975 0 -0.0567244)
(0.231536 0 -0.0612703)
(0.243324 0 -0.066019)
(0.255321 0 -0.0710277)
(0.267779 0 -0.0763831)
(0.280909 0 -0.082164)
(0.294878 0 -0.0884385)
(0.309946 0 -0.0953301)
(0.326318 0 -0.102952)
(0.344191 0 -0.111428)
(0.363735 0 -0.12089)
(0.385082 0 -0.13147)
(0.408228 0 -0.143255)
(0.432986 0 -0.156263)
(0.458834 0 -0.170337)
(0.484913 0 -0.185138)
(0.509858 0 -0.199995)
(0.532224 0 -0.214116)
(0.55073 0 -0.226717)
(0.016419 0 -0.00357726)
(0.0472207 0 -0.0103187)
(0.0742778 0 -0.0163552)
(0.0981679 0 -0.0218618)
(0.119418 0 -0.0269812)
(0.138459 0 -0.0318213)
(0.155678 0 -0.036469)
(0.171408 0 -0.0409974)
(0.185956 0 -0.04547)
(0.199591 0 -0.0499441)
(0.212573 0 -0.0544759)
(0.22515 0 -0.059123)
(0.237497 0 -0.0639204)
(0.249827 0 -0.0689243)
(0.262384 0 -0.0742113)
(0.275363 0 -0.0798469)
(0.288908 0 -0.0858831)
(0.303252 0 -0.092419)
(0.318568 0 -0.0995404)
(0.335015 0 -0.107339)
(0.352724 0 -0.115905)
(0.37178 0 -0.12532)
(0.392263 0 -0.135683)
(0.414046 0 -0.146998)
(0.4368 0 -0.159175)
(0.459979 0 -0.172004)
(0.482833 0 -0.185144)
(0.504342 0 -0.198065)
(0.523575 0 -0.210236)
(0.539691 0 -0.221113)
(0.0165855 0 -0.00366757)
(0.047736 0 -0.0105903)
(0.0751772 0 -0.0168078)
(0.0994671 0 -0.0224932)
(0.121129 0 -0.0277889)
(0.140606 0 -0.0328073)
(0.158277 0 -0.0376372)
(0.174473 0 -0.0423513)
(0.189528 0 -0.0470256)
(0.20369 0 -0.0517115)
(0.217192 0 -0.056459)
(0.230263 0 -0.0613193)
(0.243112 0 -0.0663431)
(0.25595 0 -0.0715882)
(0.268978 0 -0.077116)
(0.282324 0 -0.0829641)
(0.296206 0 -0.0892175)
(0.310776 0 -0.0959422)
(0.326177 0 -0.103208)
(0.342516 0 -0.111082)
(0.359861 0 -0.119617)
(0.378294 0 -0.128889)
(0.397734 0 -0.1389)
(0.41799 0 -0.149604)
(0.438751 0 -0.160888)
(0.4595 0 -0.172527)
(0.479559 0 -0.184182)
(0.498232 0 -0.195472)
(0.514931 0 -0.206046)
(0.529079 0 -0.215512)
(0.0167394 0 -0.00374399)
(0.0482162 0 -0.0108227)
(0.0760173 0 -0.017198)
(0.100686 0 -0.0230404)
(0.122745 0 -0.0284948)
(0.14264 0 -0.0336753)
(0.160748 0 -0.0386724)
(0.177417 0 -0.0435665)
(0.192954 0 -0.0484267)
(0.207574 0 -0.0532948)
(0.221525 0 -0.0582263)
(0.235064 0 -0.063285)
(0.24837 0 -0.0685131)
(0.261621 0 -0.0739568)
(0.274993 0 -0.0796676)
(0.288644 0 -0.0856969)
(0.302735 0 -0.0921047)
(0.317396 0 -0.0989464)