/*--------------------------------*- C++ -*----------------------------------*\
| =========                 |                                                 |
| \\      /  F ield         | OpenFOAM: The Open Source CFD Toolbox           |
|  \\    /   O peration     | Version:  dev                                   |
|   \\  /    A nd           | Web:      www.OpenFOAM.org                      |
|    \\/     M anipulation  |                                                 |
\*---------------------------------------------------------------------------*/
FoamFile
{
    version     2.0;
    format      ascii;
    class       surfaceVectorField;
    location    "1.43";
    object      Uf;
}
// * * * * * * * * * * * * * * * * * * * * * * * * * * * * * * * * * * * * * //

dimensions      [0 1 -1 0 0 0 0];

internalField   nonuniform List<vector> 
5457
(
(9.91555 1.42402e-20 0.0202678)
(9.97062 2.62042e-20 0.034706)
(9.83001 1.49383e-20 0.0246129)
(9.93737 3.55483e-22 0.0362758)
(9.73977 -1.57317e-20 0.0277532)
(9.88627 2.99995e-20 0.0397902)
(9.64211 -1.59232e-20 0.0309851)
(9.82174 -9.45706e-22 0.0447778)
(9.53683 0 0.0342905)
(9.74832 0 0.0501784)
(9.42395 0 0.037695)
(9.66685 8.46826e-21 0.0558802)
(9.30318 -9.53332e-21 0.0413114)
(9.57672 8.88282e-21 0.0620607)
(9.17395 -1.92261e-20 0.0452512)
(9.47722 -3.71803e-23 0.0688937)
(9.03554 -4.43017e-21 0.0496168)
(9.36774 -4.97678e-21 0.0765253)
(8.88705 -5.05913e-22 0.0545182)
(9.24759 5.14308e-21 0.0851167)
(8.72741 -5.34861e-21 0.0600793)
(9.11588 -1.10476e-20 0.0948633)
(8.55534 0 0.0664376)
(8.97149 -3.79653e-22 0.105986)
(8.36936 -1.62806e-21 0.0737508)
(8.81311 7.83156e-20 0.118733)
(8.1678 -1.57057e-21 0.0822053)
(8.63924 -4.70691e-20 0.133391)
(7.94874 0 0.0920238)
(8.44812 -5.40876e-20 0.150305)
(7.71 0 0.103475)
(8.23779 1.13134e-19 0.169876)
(7.44911 0 0.116889)
(8.00597 -5.16666e-20 0.192591)
(7.16323 8.64831e-21 0.132657)
(7.75006 0 0.219032)
(6.84918 4.5616e-20 0.151244)
(7.4671 -1.3564e-19 0.24987)
(6.50338 -8.14732e-20 0.173207)
(7.15371 1.41416e-19 0.285861)
(6.12185 -2.15863e-19 0.199227)
(6.80607 -1.53015e-19 0.32787)
(5.70018 -1.87774e-19 0.230143)
(6.41987 -2.42434e-19 0.376892)
(5.23351 1.44716e-19 0.267021)
(5.99027 -1.79437e-19 0.434063)
(4.71643 -1.16964e-19 0.311291)
(5.51173 5.35221e-19 0.500697)
(4.14271 -8.32119e-20 0.365012)
(4.97782 8.71435e-20 0.578369)
(3.50478 3.27823e-20 0.431398)
(4.38052 -1.83861e-19 0.669117)
(2.7923 1.06516e-19 0.516254)
(3.70922 6.12358e-19 0.775808)
(1.98865 -1.07004e-19 0.634021)
(2.94833 -5.98537e-19 0.902767)
(1.05243 -2.59432e-19 0.817239)
(2.05158 -4.346e-19 1.06152)
(1.20882 1.14835e-19 1.23852)
(10.0094 1.1927e-20 0.0385042)
(10.0025 7.191e-23 0.0307967)
(9.99228 1.61885e-20 0.0474618)
(9.99923 -1.38784e-20 0.0434339)
(9.96395 4.40633e-20 0.0544007)
(9.9813 1.45188e-22 0.0521675)
(9.92567 1.49543e-20 0.0620626)
(9.94995 -2.28511e-20 0.0622061)
(9.87721 8.64507e-21 0.0703603)
(9.90861 -2.40283e-20 0.0731433)
(9.81853 1.73448e-20 0.0792821)
(9.85825 4.20809e-20 0.084792)
(9.74945 1.81961e-20 0.0890489)
(9.7985 -6.18163e-20 0.0974211)
(9.66956 1.41093e-20 0.0999034)
(9.72878 9.2284e-21 0.111354)
(9.57826 4.79709e-21 0.112081)
(9.64857 2.45106e-20 0.126876)
(9.47481 -5.70059e-21 0.125852)
(9.55728 -2.03555e-20 0.144306)
(9.35825 -5.84058e-21 0.141529)
(9.45414 2.70502e-20 0.164035)
(9.22742 7.94169e-20 0.159462)
(9.3382 -4.53829e-20 0.186504)
(9.08096 3.05334e-20 0.180051)
(9.20827 7.23376e-20 0.212204)
(8.91731 -9.97121e-20 0.203774)
(9.06303 -4.86292e-20 0.241716)
(8.73466 6.20822e-20 0.231192)
(8.90092 -5.07806e-20 0.27573)
(8.53091 5.85114e-20 0.262976)
(8.72015 2.26463e-19 0.315063)
(8.30366 -5.07811e-20 0.299939)
(8.51866 -1.76179e-19 0.360702)
(8.05014 -1.4662e-19 0.343039)
(8.29406 -1.55731e-20 0.413841)
(7.76716 -3.51666e-20 0.393374)
(8.04364 -1.77055e-19 0.475886)
(7.45107 6.50443e-20 0.452205)
(7.76422 4.23321e-19 0.548451)
(7.09764 -1.80637e-19 0.521013)
(7.45209 -2.54944e-19 0.633421)
(6.70208 -2.32953e-19 0.601543)
(7.103 -2.18934e-19 0.733033)
(6.25876 2.18735e-19 0.695875)
(6.71186 -4.27417e-19 0.84995)
(5.76095 7.33542e-19 0.806626)
(6.2726 -5.45345e-20 0.987438)
(5.20021 -1.54218e-20 0.93744)
(5.77765 4.06362e-19 1.1497)
(4.56492 3.95865e-19 1.09414)
(5.21682 1.25393e-19 1.34274)
(3.83745 -9.66022e-20 1.28762)
(4.57581 8.19988e-19 1.57624)
(2.98574 -9.43406e-19 1.54127)
(3.83169 -9.24682e-19 1.86923)
(1.95557 6.36042e-21 1.97684)
(2.95755 0 2.25421)
(1.88542 -1.12969e-18 2.95555)
(10.0025 -2.60681e-20 0.0382328)
(10.0002 -7.95224e-20 0.0297755)
(9.98945 -2.97256e-20 0.0513976)
(9.99458 5.51925e-20 0.0490242)
(9.96486 -6.74019e-20 0.0628591)
(9.97785 -8.69871e-20 0.0630747)
(9.93138 -6.18776e-20 0.0754443)
(9.94938 -7.64719e-21 0.0776442)
(9.88905 1.07839e-20 0.0892184)
(9.91148 7.98661e-21 0.0934162)
(9.83769 -3.92214e-20 0.104188)
(9.86516 1.68531e-20 0.110338)
(9.77707 -6.93759e-20 0.120631)
(9.8102 -7.0673e-20 0.128706)
(9.70685 1.99259e-20 0.138895)
(9.74614 -3.49388e-22 0.148945)
(9.62652 -1.52396e-21 0.15934)
(9.67252 1.94581e-20 0.171462)
(9.53545 1.32904e-20 0.182394)
(9.58884 -2.03599e-20 0.19671)
(9.4328 -1.38475e-20 0.208565)
(9.49446 3.26616e-20 0.225248)
(9.3176 -5.02773e-20 0.23842)
(9.38859 -4.50119e-20 0.257706)
(9.18869 -9.07787e-21 0.272613)
(9.27025 -8.989e-20 0.294778)
(9.04476 2.73534e-22 0.311929)
(9.13837 1.08341e-19 0.337298)
(8.88426 1.18552e-19 0.357295)
(8.99168 1.15193e-23 0.386263)
(8.70541 -1.53814e-20 0.409822)
(8.82872 1.13324e-19 0.442846)
(8.50619 -1.3821e-19 0.470861)
(8.6478 -1.31744e-19 0.508474)
(8.28421 -4.87538e-20 0.542034)
(8.44704 2.49631e-19 0.584893)
(8.03673 2.90983e-19 0.62524)
(8.22428 -2.57526e-19 0.674188)
(7.76054 9.20869e-20 0.72269)
(7.97696 3.18052e-19 0.778824)
(7.4518 -2.93045e-19 0.837025)
(7.70204 3.89511e-20 0.90175)
(7.10596 -4.15149e-19 0.971434)
(7.39593 3.7579e-19 1.04655)
(6.7174 -6.94754e-19 1.12987)
(7.05426 2.32828e-19 1.21765)
(6.27904 -3.77609e-19 1.31742)
(6.67155 -3.42741e-19 1.42072)
(5.78152 5.38084e-19 1.54116)
(6.24085 -3.44621e-21 1.66338)
(5.21136 5.56288e-19 1.81229)
(5.75262 2.68977e-20 1.9567)
(4.54866 0 2.15213)
(5.19439 0 2.31825)
(3.75255 0 2.5865)
(4.53532 0 2.78651)
(2.86415 -1.14853e-18 3.28998)
(3.86223 -4.24985e-20 3.34104)
(2.60532 1.62638e-18 4.55564)
(9.99775 4.46285e-21 0.0410176)
(9.99872 1.05346e-19 0.0307172)
(9.98485 -5.30738e-21 0.0600271)
(9.99098 -5.49674e-20 0.0545473)
(9.96092 -2.55201e-20 0.0770421)
(9.97389 -7.30004e-23 0.07371)
(9.92815 6.24594e-20 0.094753)
(9.94614 3.0458e-20 0.0927847)
(9.88695 1.42434e-20 0.113717)
(9.90925 3.19809e-20 0.113189)
(9.83716 -1.6392e-20 0.134156)
(9.86417 -1.67236e-20 0.135149)
(9.77859 -2.59231e-22 0.156461)
(9.81082 1.52028e-23 0.158999)
(9.71096 -4.09041e-22 0.181095)
(9.74882 -3.70305e-20 0.185232)
(9.63386 -1.62917e-22 0.208556)
(9.67778 3.84895e-20 0.214352)
(9.54679 0 0.239425)
(9.59727 0 0.24693)
(9.44907 0 0.274385)
(9.50676 0 0.283672)
(9.33991 -8.54272e-20 0.314184)
(9.40563 0 0.325357)
(9.21842 3.11732e-20 0.359692)
(9.29311 -9.57246e-20 0.372838)
(9.08356 1.06203e-19 0.411954)
(9.16832 2.11327e-19 0.427152)
(8.93414 -3.24035e-21 0.472206)
(9.03038 -9.35276e-20 0.489551)
(8.7688 -7.40355e-21 0.541922)
(8.87814 -2.1801e-19 0.561496)
(8.58601 2.62335e-19 0.622902)
(8.71027 4.68723e-19 0.644754)
(8.38402 3.25238e-20 0.717338)
(8.52547 2.4748e-20 0.741498)
(8.16083 -2.2112e-19 0.827865)
(8.32227 -2.2453e-19 0.854367)
(7.91408 2.60202e-19 0.957637)
(8.09899 -2.71785e-19 0.986564)
(7.64089 7.11851e-19 1.11049)
(7.85352 1.10605e-18 1.14198)
(7.3378 1.01967e-18 1.29117)
(7.58346 9.62008e-19 1.32542)
(7.00047 5.78365e-19 1.50573)
(7.28596 5.64789e-19 1.54298)
(6.62324 3.53949e-20 1.76224)
(6.95739 1.57662e-20 1.80262)
(6.19869 -5.07375e-19 2.07191)
(6.59332 1.51937e-20 2.11522)
(5.71645 -5.28532e-19 2.45118)
(6.18795 -3.59064e-19 2.4963)
(5.16513 0 2.93114)
(5.73815 0 2.96721)
(4.49359 -4.08224e-20 3.52578)
(5.19245 1.31615e-18 3.59182)
(3.89739 2.78227e-18 4.41607)
(4.85197 -1.39547e-18 4.18963)
(3.44319 -5.14151e-20 5.85747)
(9.99517 4.2753e-20 0.0447243)
(9.9979 -5.19604e-20 0.0327157)
(9.98171 -4.8471e-20 0.0683126)
(9.98885 -5.52273e-20 0.0603133)
(9.95825 5.658e-20 0.0898417)
(9.97143 5.78696e-20 0.0841464)
(9.9261 0 0.111871)
(9.94427 6.03695e-20 0.107647)
(9.88582 0 0.135387)
(9.90836 0 0.132542)
(9.83731 0 0.160823)
(9.86453 -3.30219e-20 0.159349)
(9.78039 -3.74668e-20 0.188643)
(9.81274 3.49245e-20 0.188474)
(9.7148 3.38144e-21 0.219383)
(9.7527 -9.79552e-23 0.220466)
(9.64022 3.79541e-20 0.253631)
(9.6841 7.18826e-23 0.255911)
(9.5562 0 0.292085)
(9.60649 -8.66426e-22 0.295485)
(9.46217 0 0.335552)
(9.51942 1.26136e-19 0.340016)
(9.3575 -1.20002e-20 0.384917)
(9.42246 -2.21191e-20 0.390397)
(9.24152 8.9984e-20 0.441195)
(9.31498 -3.50114e-20 0.447602)
(9.11345 6.22233e-21 0.505633)
(9.19629 8.7576e-20 0.512821)
(8.9724 -3.1041e-19 0.579718)
(9.06583 -1.03164e-19 0.587526)
(8.81732 2.69464e-19 0.665195)
(8.92278 -2.21436e-19 0.673443)
(8.64711 2.2418e-19 0.764175)
(8.76614 2.39646e-19 0.772572)
(8.46068 -2.36586e-19 0.879258)
(8.59504 -2.44946e-19 0.887352)
(8.25681 -2.75635e-19 1.01364)
(8.40868 2.47642e-19 1.02083)
(8.03411 5.9262e-19 1.17124)
(8.20625 -8.33477e-19 1.17678)
(7.79086 1.35593e-18 1.35686)
(7.98669 1.97888e-18 1.35984)
(7.52516 5.0411e-19 1.57656)
(7.749 1.08609e-18 1.57579)
(7.23471 0 1.83811)
(7.49224 -1.18751e-18 1.83198)
(6.9167 0 2.15197)
(7.21538 6.08419e-19 2.13807)
(6.56783 1.65143e-19 2.53264)
(6.91766 0 2.50718)
(6.18399 1.66056e-19 2.99945)
(6.59832 7.79322e-20 2.95778)
(5.77075 1.28018e-18 3.58918)
(6.27051 -3.77176e-20 3.50822)
(5.25494 6.07978e-19 4.28918)
(5.83845 -1.02729e-18 4.26118)
(4.99107 -4.00952e-18 5.24466)
(5.89364 1.00023e-18 4.76882)
(4.3626 -3.71513e-19 6.81617)
(9.99376 -1.50092e-19 0.0488925)
(9.99743 -1.05574e-19 0.0352941)
(9.97978 5.3696e-20 0.076505)
(9.98763 5.49595e-20 0.0662987)
(9.95686 6.17138e-20 0.102366)
(9.97012 -1.43738e-20 0.0943539)
(9.92557 5.90982e-20 0.128786)
(9.94362 6.01517e-20 0.122125)
(9.88642 -3.37117e-20 0.15694)
(9.90882 4.74148e-20 0.151371)
(9.83941 3.22484e-21 0.187399)
(9.86645 -6.58075e-20 0.182829)
(9.7844 7.16255e-20 0.220687)
(9.81646 -1.38677e-19 0.217006)
(9.72115 -3.40881e-21 0.257399)
(9.75863 3.6308e-20 0.2545)
(9.64938 -3.87592e-20 0.298212)
(9.69276 -7.23283e-22 0.295983)
(9.56866 1.27712e-19 0.343919)
(9.6184 3.95116e-20 0.342237)
(9.47855 1.01402e-19 0.395424)
(9.53519 8.53097e-20 0.394158)
(9.37859 -4.53693e-20 0.453722)
(9.44285 -8.73774e-20 0.452716)
(9.26824 -3.53101e-20 0.519952)
(9.34088 -1.17751e-22 0.519011)
(9.14697 -2.51844e-20 0.595513)
(9.22873 -1.22773e-20 0.594332)
(9.01422 -1.61342e-20 0.682119)
(9.10601 -2.42543e-19 0.680285)
(8.86928 -2.43408e-19 0.781762)
(8.97238 2.07388e-19 0.778844)
(8.71141 -2.37507e-19 0.896767)
(8.82723 -2.36318e-19 0.89223)
(8.53997 2.46402e-19 1.02999)
(8.67006 -2.87813e-21 1.02304)
(8.35446 -3.25361e-19 1.18503)
(8.5005 7.39832e-19 1.17456)
(8.15442 5.88122e-19 1.36632)
(8.31858 -1.05007e-18 1.35095)
(7.93947 1.70147e-18 1.57938)
(8.12429 1.09483e-18 1.55729)
(7.70935 -6.22235e-19 1.8312)
(7.91802 5.75377e-19 1.79998)
(7.4642 -5.71453e-19 2.13072)
(7.70093 -1.25248e-18 2.08721)
(7.20461 6.05109e-19 2.48978)
(7.47473 -5.60496e-19 2.42961)
(6.93246 -8.36888e-20 2.92443)
(7.2428 2.38148e-18 2.8411)
(6.65039 -1.21952e-19 3.45358)
(7.0087 -1.31892e-18 3.34145)
(6.38468 -2.27814e-18 4.11631)
(6.80799 1.09794e-18 3.93816)
(6.02815 -1.77975e-18 4.86428)
(6.47551 -5.3364e-18 4.79197)
(6.06423 4.33642e-18 5.77254)
(6.92669 3.68394e-18 5.10217)
(5.29912 2.01729e-18 7.44009)
(9.99297 1.02792e-19 0.0533459)
(9.99717 1.08195e-19 0.0381969)
(9.97873 -1.47045e-20 0.0846509)
(9.987 -1.12032e-19 0.0723988)
(9.95638 -1.43027e-20 0.114601)
(9.96965 -1.43811e-20 0.104313)
(9.92607 4.81995e-20 0.145245)
(9.9439 -6.02325e-20 0.136167)
(9.88823 1.29751e-20 0.177817)
(9.91035 4.74437e-20 0.169593)
(9.84293 -2.09263e-19 0.213021)
(9.86967 3.31345e-20 0.205492)
(9.79003 -1.70638e-19 0.251451)
(9.82172 -1.04648e-19 0.244487)
(9.72938 3.83286e-20 0.293768)
(9.76638 -3.62397e-22 0.287201)
(9.66078 7.83804e-20 0.340749)
(9.70352 1.13408e-19 0.334374)
(9.58388 -2.05318e-21 0.393276)
(9.63281 7.99166e-20 0.386899)
(9.49833 -1.06688e-19 0.452315)
(9.55403 -1.24447e-19 0.445729)
(9.40379 -4.06354e-20 0.518948)
(9.46695 1.51845e-19 0.511892)
(9.29983 2.27261e-20 0.594426)
(9.37116 1.16054e-19 0.586609)
(9.18604 -2.3345e-19 0.68023)
(9.26637 -2.36612e-19 0.671256)
(9.06218 -1.18658e-20 0.778206)
(9.15219 -2.04703e-19 0.767457)
(8.928 2.07572e-19 0.890564)
(9.02856 2.10858e-19 0.877319)
(8.78317 1.83577e-21 1.01982)
(8.89552 0 1.00329)
(8.62746 5.00799e-19 1.16897)
(8.75293 1.57289e-23 1.14813)
(8.46092 -7.85446e-21 1.34184)
(8.60089 9.66834e-19 1.31523)
(8.28394 -5.16717e-19 1.54315)
(8.44008 -9.62691e-19 1.50892)
(8.09734 -3.31433e-20 1.77877)
(8.27154 -2.55392e-20 1.73449)
(7.90262 -7.02777e-20 2.0562)
(8.09688 -5.24432e-19 1.99851)
(7.70232 -1.23628e-18 2.38495)
(7.91911 1.57817e-20 2.30955)
(7.50047 1.19051e-18 2.77718)
(7.74272 -1.15885e-18 2.67848)
(7.30409 1.1911e-18 3.24881)
(7.57512 2.32793e-18 3.1188)
(7.12123 -1.42362e-19 3.81542)
(7.4222 -2.28259e-18 3.65056)
(6.99935 -1.96898e-18 4.51557)
(7.34618 1.17401e-18 4.26242)
(6.79171 -3.80593e-18 5.26504)
(7.09617 -2.08733e-18 5.19074)
(7.05106 1.2471e-18 6.0523)
(7.90111 6.80285e-19 5.24191)
(6.18737 1.88225e-18 7.78238)
(9.99259 -1.1114e-19 0.0579387)
(9.99714 3.26292e-21 0.041254)
(9.97834 -1.09512e-19 0.092683)
(9.98689 -3.64921e-21 0.0785021)
(9.95667 -6.13173e-20 0.126464)
(9.96988 0 0.113979)
(9.92751 -5.87356e-20 0.16113)
(9.94509 -6.00213e-20 0.149692)
(9.89122 6.72907e-20 0.197912)
(9.91304 0 0.187095)
(9.84788 1.35108e-19 0.237631)
(9.87428 6.5969e-20 0.227207)
(9.7974 6.77718e-20 0.280949)
(9.8287 6.91275e-20 0.270763)
(9.73966 7.68981e-20 0.328564)
(9.77625 0 0.318404)
(9.67456 1.14348e-19 0.381321)
(9.71676 -7.44628e-20 0.370902)
(9.60192 -4.62165e-20 0.440192)
(9.65001 -7.87144e-20 0.429226)
(9.52148 1.38935e-19 0.50621)
(9.57602 -1.97245e-21 0.494413)
(9.43298 3.08049e-19 0.580529)
(9.4946 1.49472e-21 0.567556)
(9.33616 -1.49171e-19 0.6645)
(9.40547 2.71355e-19 0.649943)
(9.23075 -2.07479e-19 0.759656)
(9.30864 -1.89681e-19 0.74305)
(9.11658 2.46688e-20 0.867862)
(9.20378 2.50649e-20 0.84853)
(8.99379 0 0.991431)
(9.09088 -2.53928e-20 0.968457)
(8.86256 -1.81687e-21 1.13305)
(8.97049 0 1.10538)
(8.72321 4.78988e-19 1.29585)
(8.843 -1.79223e-21 1.26219)
(8.57635 -9.34429e-21 1.48373)
(8.70905 4.78239e-19 1.44235)
(8.42316 -4.61411e-19 1.70151)
(8.5699 -4.74095e-19 1.65019)
(8.26552 -5.20129e-19 1.95509)
(8.42765 4.93688e-19 1.89103)
(8.10633 -4.35512e-19 2.25195)
(8.28489 -2.15382e-20 2.17134)
(7.95032 8.48805e-20 2.60165)
(8.14599 -9.53558e-19 2.49944)
(7.80467 -3.47156e-20 3.01589)
(8.01791 2.11186e-18 2.8859)
(7.6809 -1.0783e-18 3.50922)
(7.91172 -1.05296e-18 3.34296)
(7.59015 -1.12075e-18 4.09186)
(7.83345 -2.23639e-18 3.89073)
(7.59774 1.21691e-18 4.79924)
(7.87278 -3.08502e-19 4.49355)
(7.52897 2.56283e-19 5.52096)
(7.69131 1.69774e-18 5.46942)
(7.90624 5.63343e-18 6.16064)
(8.78577 1.40242e-19 5.25813)
(6.98388 2.38972e-19 7.91106)
(9.9926 1.10651e-19 0.0625344)
(9.99728 0 0.0443025)
(9.97861 1.06004e-19 0.100514)
(9.9872 2.15988e-19 0.0844946)
(9.95778 0 0.137872)
(9.97068 1.12781e-19 0.123282)
(9.93002 0 0.17633)
(9.94704 1.47926e-19 0.162588)
(9.89557 0 0.217092)
(9.91671 -3.09404e-20 0.203735)
(9.85454 0 0.261071)
(9.8801 -1.29609e-19 0.247812)
(9.80687 0 0.308988)
(9.83717 0 0.295631)
(9.75248 -1.5281e-19 0.361573)
(9.78793 0 0.34788)
(9.69124 -2.67763e-19 0.41971)
(9.73216 -9.68627e-22 0.405372)
(9.6231 -3.30998e-20 0.484421)
(9.66972 -1.95619e-19 0.469086)
(9.54797 -1.39338e-19 0.556808)
(9.60078 8.17065e-20 0.540098)
(9.46577 -3.09566e-20 0.638089)
(9.52527 -2.16067e-19 0.619567)
(9.37643 2.23459e-19 0.729686)
(9.44308 2.22526e-19 0.708812)
(9.2799 4.64e-20 0.833209)
(9.35448 2.32689e-19 0.809402)
(9.1761 -2.57777e-20 0.950515)
(9.25939 5.01362e-20 0.923079)
(9.06533 -2.50475e-20 1.08388)
(9.15788 -2.48725e-19 1.05183)
(8.94825 0 1.23604)
(9.05074 -4.18367e-19 1.19811)
(8.82572 3.67541e-21 1.41021)
(8.93882 8.62537e-19 1.36487)
(8.69897 3.59377e-21 1.61023)
(8.82332 -4.95263e-19 1.55556)
(8.56998 4.89807e-19 1.84091)
(8.70609 -4.04446e-19 1.77439)
(8.44155 9.90117e-19 2.10799)
(8.5901 9.54808e-19 2.02658)
(8.3177 -5.40421e-19 2.41861)
(8.47891 1.45893e-18 2.31841)
(8.20482 1.05474e-18 2.78174)
(8.37801 -2.00196e-18 2.65752)
(8.11258 1.1327e-18 3.20809)
(8.29596 2.04317e-18 3.05358)
(8.05607 -2.19317e-18 3.71044)
(8.24684 -1.01339e-18 3.51717)
(8.04792 -1.67449e-18 4.29228)
(8.23529 -9.76831e-20 4.06868)
(8.16259 7.20173e-19 4.98396)
(8.3755 -1.77262e-20 4.64766)
(8.23166 1.67947e-18 5.65743)
(8.25521 1.10077e-19 5.63679)
(8.62089 -5.22098e-18 6.18028)
(9.55866 8.97458e-19 5.22011)
(7.69141 -1.80415e-18 7.85658)
(9.99283 1.09688e-19 0.0670216)
(9.9975 0 0.0472559)
(9.9793 2.20464e-19 0.108064)
(9.98771 2.92698e-22 0.090298)
(9.95941 2.6157e-19 0.148748)
(9.97185 -1.11758e-19 0.132174)
(9.93318 1.13281e-19 0.190739)
(9.94949 3.01014e-20 0.1748)
(9.90074 -1.62611e-19 0.235228)
(9.92096 9.19917e-20 0.219439)
(9.8622 -1.27139e-19 0.283182)
(9.88661 -3.2855e-20 0.267217)
(9.81755 0 0.335379)
(9.84648 3.35807e-20 0.318996)
(9.76674 1.51943e-19 0.392592)
(9.80059 7.02062e-20 0.375512)
(9.70969 6.78808e-20 0.455725)
(9.74879 2.23172e-19 0.437618)
(9.6464 -7.59645e-20 0.525811)
(9.691 -1.53744e-19 0.506289)
(9.57692 0 0.603985)
(9.62745 -7.9742e-20 0.582602)
(9.50129 4.4717e-20 0.691501)
(9.5582 0 0.667759)
(9.41965 2.31857e-19 0.789817)
(9.4833 -1.74561e-19 0.763082)
(9.33223 2.33941e-19 0.900626)
(9.40314 2.75846e-19 0.870158)
(9.23923 -1.76921e-19 1.02581)
(9.31803 2.81534e-21 0.99083)
(9.14108 -6.44554e-19 1.16754)
(9.22837 -1.25826e-19 1.12704)
(9.03871 4.58946e-19 1.32847)
(9.13497 -3.6858e-19 1.28109)
(8.93338 3.5026e-19 1.51173)
(9.03899 8.63301e-19 1.45585)
(8.82694 -9.02582e-19 1.72109)
(8.9421 -8.77207e-19 1.65466)
(8.722 6.86948e-20 1.96116)
(8.84671 -2.00423e-20 1.8815)
(8.62225 1.42899e-18 2.23751)
(8.75629 4.69371e-19 2.14137)
(8.53278 -6.0812e-22 2.5567)
(8.67553 9.57526e-19 2.4402)
(8.46114 -1.02983e-18 2.92671)
(8.61099 -1.97808e-18 2.78485)
(8.41855 -6.17389e-20 3.35682)
(8.57199 8.37443e-19 3.1838)
(8.42251 1.05288e-18 3.85786)
(8.57485 -4.16493e-19 3.6456)
(8.48704 1.5478e-18 4.42692)
(8.6222 1.83375e-18 4.19067)
(8.68398 -6.621e-19 5.08816)
(8.84646 -3.8633e-19 4.7389)
(8.88922 -7.22977e-19 5.69362)
(8.78759 -6.81904e-19 5.69953)
(9.22878 -3.43995e-19 6.15698)
(10.2063 -2.9368e-18 5.17328)
(8.33734 1.85862e-19 7.64816)
(9.99311 -1.09453e-19 0.0713405)
(9.99771 0 0.0500928)
(9.98019 -3.34645e-19 0.115277)
(9.98832 -1.07337e-19 0.0958492)
(9.96138 -3.40363e-19 0.159052)
(9.9733 -1.12959e-19 0.140603)
(9.93673 1.00522e-20 0.204319)
(9.95235 -1.38809e-21 0.186299)
(9.90637 2.19406e-19 0.25227)
(9.92567 -3.02001e-20 0.234178)
(9.87039 1.29307e-19 0.30391)
(9.89363 1.28702e-21 0.285387)
(9.82885 1.04532e-19 0.360054)
(9.85639 2.33875e-19 0.340813)
(9.78178 1.44223e-19 0.421511)
(9.81398 6.98985e-20 0.401223)
(9.72918 -5.17624e-21 0.489207)
(9.76631 1.46996e-19 0.467507)
(9.67108 -1.563e-19 0.564168)
(9.71343 -1.52009e-19 0.54065)
(9.6076 -7.84933e-20 0.647539)
(9.65557 -5.2833e-22 0.621712)
(9.53893 -2.22164e-19 0.740587)
(9.5929 8.18341e-20 0.711902)
(9.46533 -1.24063e-19 0.844758)
(9.52571 -2.18892e-19 0.812541)
(9.38727 4.07817e-20 0.961761)
(9.45432 4.46317e-19 0.925163)
(9.30531 5.23495e-20 1.0935)
(9.37936 -2.30783e-19 1.05161)
(9.22012 1.47428e-19 1.24208)
(9.30171 4.9796e-20 1.19385)
(9.13275 4.9677e-20 1.40998)
(9.22219 5.96979e-22 1.35408)
(9.04481 -3.81957e-19 1.60022)
(9.14224 1.00439e-19 1.53495)
(8.95854 1.08176e-20 1.81633)
(9.0639 -2.75612e-19 1.73962)
(8.87706 3.82577e-19 2.0626)
(8.98994 3.85044e-19 1.97179)
(8.80479 0 2.34425)
(8.92417 -8.57165e-19 2.23602)
(8.74785 -1.01174e-18 2.66723)
(8.87215 -8.63785e-19 2.53771)
(8.71473 -1.37791e-19 3.03842)
(8.84138 -6.95243e-19 2.88296)
(8.71748 5.00466e-19 3.46553)
(8.84175 2.87735e-19 3.27913)
(8.77489 3.13352e-19 3.95713)
(8.89107 7.84306e-19 3.73251)
(8.90322 2.174e-19 4.50544)
(8.99043 7.59942e-19 4.26231)
(9.16155 -7.71226e-19 5.12761)
(9.28127 -1.26374e-18 4.77764)
(9.48953 -9.24889e-19 5.65318)
(9.28849 2.17954e-18 5.67113)
(9.76746 1.57405e-18 6.08611)
(10.7353 -3.22372e-18 5.13369)
(8.94517 8.83936e-19 7.36899)
(9.99346 0 0.0754486)
(9.99793 6.34208e-21 0.0527879)
(9.98131 1.14384e-19 0.122092)
(9.98901 -2.17596e-19 0.10108)
(9.96373 2.28672e-19 0.168735)
(9.97499 3.3312e-19 0.148495)
(9.94076 -4.22255e-20 0.217043)
(9.95558 4.19931e-22 0.197042)
(9.91251 -2.47913e-19 0.268201)
(9.93079 -1.53429e-19 0.247934)
(9.87915 1.10321e-19 0.323226)
(9.90113 1.5783e-19 0.302294)
(9.84084 1.96275e-19 0.382958)
(9.86692 -6.42145e-20 0.361022)
(9.79766 7.40161e-20 0.448243)
(9.82815 -1.38853e-19 0.424929)
(9.74967 -5.02872e-21 0.520028)
(9.78478 7.31383e-20 0.494945)
(9.69696 6.36602e-21 0.599334)
(9.73698 -2.25948e-19 0.572053)
(9.63976 1.61289e-19 0.687277)
(9.68504 2.34548e-19 0.657278)
(9.57841 8.06408e-20 0.785128)
(9.62919 8.11594e-20 0.751791)
(9.51326 3.61536e-19 0.894306)
(9.56993 -8.35199e-20 0.856944)
(9.44483 1.65623e-19 1.01645)
(9.50757 4.43868e-19 0.974224)
(9.37399 -2.29838e-19 1.15345)
(9.44291 -3.63071e-19 1.10534)
(9.30175 -9.77751e-20 1.30734)
(9.37715 -5.13404e-19 1.25224)
(9.22932 5.23973e-20 1.48051)
(9.31139 3.31825e-19 1.41707)
(9.1586 2.03488e-19 1.67571)
(9.24723 1.40134e-21 1.60225)
(9.09216 1.02242e-19 1.89619)
(9.18703 1.6037e-21 1.81064)
(9.03342 -8.61405e-19 2.14583)
(9.13382 1.00436e-19 2.04566)
(8.98721 -1.72834e-18 2.42928)
(9.09172 -1.6741e-18 2.31133)
(8.96038 -5.50046e-19 2.75177)
(9.06663 -1.68459e-18 2.61229)
(8.96221 -2.84716e-19 3.11923)
(9.06656 1.14115e-19 2.9539)
(9.00542 5.42907e-19 3.53777)
(9.10203 -1.56173e-18 3.34238)
(9.10922 1.23399e-18 4.01369)
(9.1917 1.93349e-18 3.78196)
(9.29272 -5.21655e-19 4.53549)
(9.33614 0 4.28909)
(9.5966 1.80362e-18 5.11261)
(9.67589 -5.49346e-19 4.77262)
(10.0249 3.32237e-18 5.56169)
(9.75418 8.1208e-19 5.57282)
(10.2666 -8.12251e-20 5.98495)
(11.1694 7.7549e-19 5.10173)
(9.54339 3.1137e-19 7.10145)
(9.99383 -2.15835e-19 0.0793113)
(9.99817 -1.94636e-19 0.0553321)
(9.98253 1.34775e-20 0.128453)
(9.98975 -7.2586e-21 0.105952)
(9.9663 9.76609e-20 0.177748)
(9.97684 7.42469e-22 0.155806)
(9.94507 -1.13992e-19 0.228878)
(9.95907 -2.31364e-19 0.206999)
(9.91901 2.5875e-19 0.282982)
(9.93629 0 0.260667)
(9.88844 -2.09634e-20 0.341068)
(9.9092 1.90866e-19 0.317856)
(9.85356 -4.01084e-19 0.404014)
(9.87823 -1.33171e-19 0.379518)
(9.81445 -1.361e-19 0.472704)
(9.84328 -7.06204e-20 0.446534)
(9.77124 -1.5299e-19 0.548095)
(9.80436 -7.12927e-20 0.519835)
(9.72413 9.7393e-21 0.631184)
(9.76177 -7.69516e-20 0.600383)
(9.67341 1.52046e-19 0.723051)
(9.71585 3.08124e-19 0.689173)
(9.61949 -8.56048e-20 0.824947)
(9.66691 7.89484e-20 0.78734)
(9.56285 6.11118e-21 0.938272)
(9.61552 -3.30458e-19 0.896225)
(9.50415 -9.55175e-20 1.06457)
(9.56219 3.41981e-19 1.01726)
(9.44441 -6.48801e-19 1.20562)
(9.50781 -1.79756e-19 1.152)
(9.38489 -7.53986e-20 1.36344)
(9.4537 -4.64814e-19 1.3023)
(9.3271 2.78097e-19 1.54022)
(9.40136 3.82424e-19 1.47025)
(9.27313 -2.00678e-19 1.73844)
(9.35259 -9.93533e-20 1.65798)
(9.22582 2.57026e-22 1.96104)
(9.30977 -1.01587e-19 1.86807)
(9.18885 -7.18507e-19 2.21151)
(9.27625 1.87668e-21 2.10363)
(9.16726 -1.64238e-18 2.49379)
(9.25647 -1.59286e-18 2.36814)
(9.16808 -1.02748e-18 2.81224)
(9.25635 -1.59821e-18 2.6654)
(9.20102 -1.14564e-18 3.17185)
(9.28394 -2.04558e-19 2.99986)
(9.27925 -2.61366e-19 3.57725)
(9.35007 -9.5275e-19 3.37664)
(9.42161 7.57615e-19 4.03242)
(9.47375 1.37703e-18 3.79821)
(9.65014 0 4.52355)
(9.65549 0 4.27709)
(9.98767 -1.317e-18 5.05249)
(10.0272 0 4.73081)
(10.494 -4.06327e-19 5.43596)
(10.1792 -1.09834e-19 5.42368)
(10.762 1.00976e-18 5.88332)
(11.5316 1.96688e-18 5.06775)
(10.1641 -2.7795e-20 6.88534)
(9.99426 1.77466e-20 0.0829038)
(9.99845 -5.71906e-22 0.0577014)
(9.9839 -1.98148e-20 0.134325)
(9.99065 2.10661e-19 0.110431)
(9.9691 -3.33452e-19 0.18605)
(9.97893 -2.80256e-21 0.162492)
(9.94976 -1.12635e-19 0.239771)
(9.96289 2.82207e-20 0.216106)
(9.92611 -6.42794e-20 0.296525)
(9.94232 -2.97942e-20 0.272278)
(9.89855 7.25204e-20 0.357316)
(9.91799 -1.25519e-19 0.331957)
(9.8673 1.98842e-19 0.423097)
(9.89036 1.31668e-19 0.396195)
(9.83242 -5.70056e-21 0.49478)
(9.85931 -7.24627e-23 0.465952)
(9.79408 4.7267e-21 0.573295)
(9.82492 -7.14039e-20 0.542121)
(9.7526 2.27815e-19 0.659603)
(9.78756 7.37438e-20 0.625612)
(9.70834 2.31591e-19 0.754757)
(9.74765 1.12315e-21 0.717396)
(9.66178 -1.71793e-19 0.859975)
(9.70559 2.35601e-19 0.818579)
(9.61353 1.4382e-20 0.976613)
(9.66197 -8.64222e-20 0.930449)
(9.56442 2.51639e-19 1.10611)
(9.61757 3.36938e-19 1.05436)
(9.51555 1.44273e-21 1.25009)
(9.57334 3.44443e-19 1.19171)
(9.46843 1.41153e-21 1.41047)
(9.53054 -8.67302e-20 1.34421)
(9.42482 0 1.58929)
(9.49114 -3.60968e-19 1.51382)
(9.3869 0 1.78871)
(9.45707 3.67308e-19 1.70252)
(9.35762 -9.9289e-20 2.01137)
(9.43066 3.70963e-19 1.91253)
(9.34095 -8.76557e-19 2.26033)
(9.4155 -4.73776e-19 2.14655)
(9.34209 -1.55977e-18 2.5388)
(9.41623 -1.33032e-18 2.4075)
(9.368 -7.83255e-19 2.85032)
(9.43871 -6.62302e-20 2.69849)
(9.42834 0 3.19884)
(9.49088 -7.15129e-19 3.02298)
(9.53628 6.28831e-19 3.58764)
(9.58346 6.47335e-19 3.38487)
(9.70941 6.65983e-19 4.01834)
(9.73523 -6.00537e-19 3.7853)
(9.97184 0 4.47628)
(9.94663 0 4.23188)
(10.3338 1.2444e-18 4.95571)
(10.3355 -8.06201e-19 4.65568)
(10.8977 2.16778e-18 5.28242)
(10.5591 2.43872e-18 5.23462)
(11.2751 7.0604e-19 5.79347)
(11.833 -9.00087e-20 5.01186)
(10.8255 3.16646e-19 6.73242)
(9.99481 1.96601e-19 0.0861813)
(9.99878 1.62391e-20 0.0598429)
(9.98551 2.22994e-19 0.139658)
(9.99165 1.95172e-19 0.114468)
(9.97224 3.59841e-19 0.193583)
(9.98112 1.68803e-20 0.168522)
(9.95493 1.09996e-19 0.249633)
(9.96683 1.461e-19 0.224308)
(9.93384 -9.29182e-20 0.308739)
(9.94862 8.1091e-20 0.282694)
(9.90937 -6.1642e-20 0.371903)
(9.92715 -5.30448e-21 0.344568)
(9.88174 -6.97673e-20 0.440164)
(9.90282 -6.08557e-20 0.411068)
(9.85108 -6.70381e-20 0.514452)
(9.87565 -6.9558e-20 0.483199)
(9.81764 0 0.595647)
(9.84579 -1.3123e-19 0.561813)
(9.78177 -1.54336e-19 0.684667)
(9.81368 1.3536e-19 0.647771)
(9.74392 8.448e-21 0.782531)
(9.77977 -1.55014e-19 0.742004)
(9.70468 3.16931e-19 0.890412)
(9.74457 1.28942e-20 0.845572)
(9.66478 2.41938e-19 1.00959)
(9.70875 -1.36671e-19 0.959694)
(9.62513 4.29937e-19 1.1414)
(9.67322 8.21709e-20 1.08564)
(9.58688 2.52486e-19 1.28727)
(9.639 6.68963e-19 1.2247)
(9.55166 -4.52367e-19 1.44896)
(9.60734 -9.01654e-19 1.37834)
(9.52149 1.1007e-20 1.62836)
(9.58032 -3.8668e-20 1.54834)
(9.49867 7.3929e-19 1.82742)
(9.56015 7.10007e-19 1.73659)
(9.48621 -4.94527e-21 2.04838)
(9.54924 3.77349e-19 1.94496)
(9.48816 -9.28964e-19 2.29376)
(9.55118 -8.89682e-19 2.17566)
(9.5097 1.5504e-19 2.56617)
(9.57052 -1.05813e-18 2.43112)
(9.55774 1.49318e-20 2.86835)
(9.61308 7.20494e-19 2.71376)
(9.64178 -8.75029e-20 3.20313)
(9.68666 -1.3698e-18 3.02595)
(9.77452 -5.47249e-19 3.57265)
(9.80152 -4.78595e-19 3.37044)
(9.97181 -1.29474e-18 3.9762)
(9.97553 -7.34962e-19 3.74737)
(10.2579 -7.68319e-19 4.39897)
(10.2094 0 4.1589)
(10.6362 1.5683e-19 4.82537)
(10.6028 -7.89127e-19 4.55004)
(11.2341 4.06571e-19 5.09752)
(10.8888 -8.23734e-19 5.01189)
(11.7952 -7.70377e-19 5.67868)
(12.0954 -8.26928e-19 4.87747)
(12.2467 1.97946e-20 6.39038)
(0.154188 0 -0.0972853)
(0.0659145 0 -0.0951168)
(0.358504 0 -0.0776441)
(0.204706 0 -0.0805171)
(0.770636 -6.68773e-20 -0.0703684)
(0.492182 1.31777e-19 -0.0919537)
(1.40944 -5.83601e-20 -0.0719715)
(1.04814 5.11947e-20 -0.113456)
(1.94375 0 -0.0667499)
(1.70581 -9.66146e-21 -0.111507)
(2.30132 0 -0.0590015)
(2.14546 1.239e-20 -0.0964083)
(2.5593 0 -0.0532453)
(2.43603 3.03535e-20 -0.084188)
(2.76927 -1.09567e-20 -0.0509407)
(2.65257 -6.05417e-21 -0.0781709)
(2.95715 -1.19399e-21 -0.0509742)
(2.83237 -2.52496e-20 -0.0772028)
(3.13389 9.9345e-21 -0.0519322)
(2.99326 6.22928e-21 -0.0786726)
(3.30313 7.14402e-21 -0.0529126)
(3.14271 2.61047e-21 -0.080596)
(3.46604 6.66628e-21 -0.0535786)
(3.28414 1.31339e-20 -0.0822132)
(3.62291 0 -0.0538508)
(3.41916 1.71394e-22 -0.0832445)
(3.7735 2.64397e-22 -0.0536579)
(3.54786 2.01466e-21 -0.0835101)
(3.91699 1.83751e-23 -0.0530027)
(3.66967 -3.36363e-22 -0.0828149)
(4.05278 -1.85097e-21 -0.0519961)
(3.78374 -7.04272e-22 -0.0813094)
(4.18069 -1.60351e-21 -0.0507781)
(3.8901 -4.2502e-23 -0.0792528)
(4.30083 9.98777e-22 -0.0496626)
(3.9891 -2.85271e-21 -0.0769239)
(4.41459 3.18368e-22 -0.0490397)
(4.08066 2.72001e-21 -0.0750823)
(4.5239 -1.02912e-21 -0.0489451)
(4.16633 -4.54246e-22 -0.074151)
(4.6295 -3.40238e-22 -0.0492054)
(4.24736 -3.51873e-22 -0.0736133)
(4.73185 0 -0.0499137)
(4.32371 0 -0.0733033)
(4.83222 -4.47692e-22 -0.0513669)
(4.39642 -4.04277e-22 -0.0738416)
(4.93267 1.9099e-22 -0.0537419)
(4.46721 1.33093e-22 -0.0758629)
(5.03551 -1.33805e-22 -0.0570174)
(4.53866 1.32852e-21 -0.0796911)
(5.14319 -7.79289e-22 -0.061134)
(4.61397 1.40669e-21 -0.0855708)
(5.25863 0 -0.0661773)
(4.69677 0 -0.0940311)
(5.3857 6.89597e-22 -0.0722184)
(4.79188 0 -0.106006)
(5.52826 7.81252e-22 -0.0785332)
(4.9046 4.11543e-22 -0.121949)
(5.08075 1.59285e-21 -0.139874)
(0.0646613 0 -0.127874)
(0.000626984 1.07005e-19 -0.148372)
(0.274783 1.11043e-19 -0.135319)
(0.0984355 -1.645e-19 -0.155264)
(0.74629 2.66546e-19 -0.164237)
(0.405944 -1.80053e-19 -0.195059)
(1.41701 1.04876e-19 -0.177981)
(0.967712 1.06063e-19 -0.235635)
(1.95192 9.40888e-21 -0.162125)
(1.5875 -5.28991e-20 -0.228076)
(2.29771 4.47929e-20 -0.141053)
(1.98448 1.28471e-20 -0.195711)
(2.53614 2.32771e-20 -0.125616)
(2.23417 -2.51877e-21 -0.170013)
(2.71794 -1.93475e-20 -0.117992)
(2.40649 5.53008e-21 -0.155811)
(2.86855 -1.76144e-20 -0.11609)
(2.53787 6.38902e-21 -0.15075)
(3.00137 -2.44046e-21 -0.11708)