/*--------------------------------*- C++ -*----------------------------------*\
| =========                 |                                                 |
| \\      /  F ield         | OpenFOAM: The Open Source CFD Toolbox           |
|  \\    /   O peration     | Version:  dev                                   |
|   \\  /    A nd           | Web:      www.OpenFOAM.org                      |
|    \\/     M anipulation  |                                                 |
\*---------------------------------------------------------------------------*/
FoamFile
{
    version     2.0;
    format      ascii;
    class       volVectorField;
    location    "0.97";
    object      U;
}
// * * * * * * * * * * * * * * * * * * * * * * * * * * * * * * * * * * * * * //

dimensions      [0 1 -1 0 0 0 0];

internalField   nonuniform List<vector> 
465
(
(4.10236 -5.49449e-19 5.79746)
(3.93774 2.65764e-19 5.8728)
(5.36571 1.40154e-19 5.95178)
(5.23925 3.67805e-19 6.04751)
(5.0971 -3.13881e-19 6.08217)
(4.9348 2.8607e-19 6.05377)
(6.69495 0 6.09768)
(6.57019 1.74975e-19 6.18918)
(6.45737 2.58281e-19 6.23422)
(6.33993 -1.77524e-19 6.22179)
(6.2093 1.51796e-19 6.14776)
(8.13639 0 6.29336)
(7.96725 -4.39606e-19 6.33689)
(7.84545 5.75383e-21 6.3637)
(7.74641 1.64727e-19 6.35156)
(7.65243 -4.18489e-21 6.28748)
(7.55246 1.24621e-19 6.16511)
(7.44017 9.72931e-20 5.98185)
(9.67908 0 6.56963)
(9.45363 3.15215e-19 6.53461)
(9.2931 -4.4182e-20 6.50975)
(9.17942 4.356e-20 6.47076)
(9.0936 3.24064e-20 6.39847)
(9.01955 8.62152e-20 6.27999)
(8.94522 2.17422e-21 6.10788)
(8.86213 -5.56784e-20 5.87879)
(8.76442 -6.54328e-20 5.59227)
(11.2263 1.78107e-20 6.88989)
(10.9843 8.84826e-21 6.7843)
(10.7947 1.8088e-19 6.69642)
(10.655 0 6.61025)
(10.5554 0 6.50881)
(10.4828 -1.65855e-19 6.3773)
(10.4242 5.48159e-20 6.2047)
(10.3681 0 5.98413)
(10.3051 -3.32257e-20 5.71242)
(10.2277 -5.87871e-20 5.38942)
(12.65 -3.12886e-19 7.17763)
(12.4537 2.9971e-19 7.03677)
(12.2804 -1.73401e-19 6.90402)
(12.1389 0 6.77337)
(12.0308 0 6.63519)
(11.9518 1.1524e-19 6.47847)
(11.8939 -4.93858e-20 6.293)
(11.8473 3.4845e-20 6.07079)
(11.8021 5.30475e-20 5.80682)
(11.7492 3.5617e-20 5.49917)
(11.6803 0 5.14902)
(11.5877 2.25687e-20 4.76079)
(13.854 1.03439e-19 7.36465)
(13.7527 -9.56208e-20 7.22638)
(13.6463 -8.61407e-20 7.08051)
(13.5466 1.53246e-19 6.92722)
(13.4613 0 6.76346)
(13.3936 -6.70336e-21 6.58389)
(13.342 -1.02893e-19 6.38211)
(13.3019 -1.41186e-19 6.15212)
(13.2665 6.70277e-20 5.88933)
(13.2279 0 5.59137)
(13.1781 0 5.25856)
(13.1091 -2.31526e-20 4.89426)
(13.0141 -1.34568e-21 4.50504)
(14.7958 0 7.41404)
(14.811 1.86563e-19 7.30438)
(14.8039 1.68263e-19 7.17347)
(14.7837 -2.23773e-19 7.0237)
(14.7585 0 6.85557)
(14.7339 0 6.66787)
(14.7127 8.80401e-20 6.45817)
(14.6948 -1.57711e-20 6.22358)
(14.6774 -8.14982e-20 5.96162)
(14.6557 -1.41116e-20 5.67098)
(14.6241 -4.04969e-20 5.35226)
(14.576 0 5.00836)
(14.5055 6.39378e-21 4.64486)
(14.4074 -1.49908e-20 4.26987)
(14.278 -2.06065e-21 3.89355)
(15.4789 4.93438e-19 7.32008)
(15.6069 -4.76482e-19 7.25039)
(15.7073 -4.87092e-19 7.15116)
(15.7847 4.65345e-19 7.02449)
(15.8442 0 6.87188)
(15.8906 0 6.69404)
(15.9272 -9.14659e-20 6.491)
(15.9559 9.04454e-20 6.2624)
(15.9764 -7.47417e-21 6.00799)
(15.9869 0 5.72813)
(15.9843 7.82885e-20 5.42441)
(15.9646 -5.69888e-20 5.10002)
(15.9235 -3.43534e-20 4.76013)
(15.8572 5.65954e-20 4.41185)
(15.7631 8.31978e-21 4.06394)
(15.6402 0 3.72619)
(15.936 -9.98541e-20 7.09931)
(16.157 0 7.06918)
(16.3535 -2.39035e-19 7.00669)
(16.5261 -4.50913e-20 6.91262)
(16.6764 2.84045e-19 6.78797)
(16.8065 0 6.63376)
(16.9182 -1.06485e-19 6.45091)
(17.0129 0 6.24042)
(17.0913 -7.94281e-21 6.00347)
(17.1527 -6.34145e-20 5.74179)
(17.1957 -4.25321e-20 5.45794)
(17.2183 0 5.15569)
(17.218 4.20978e-20 4.84017)
(17.1927 -5.30207e-20 4.51797)
(17.1409 -1.78427e-20 4.19688)
(17.0624 -8.91725e-21 3.88551)
(16.9584 7.21619e-21 3.59268)
(16.8312 0 3.32683)
(16.2136 -4.42104e-19 6.78034)
(16.5005 4.78666e-19 6.78207)
(16.7707 0 6.7528)
(17.022 -2.93045e-19 6.69188)
(17.253 2.88754e-19 6.59926)
(17.4632 -1.05012e-19 6.47537)
(17.6523 4.4168e-19 6.32105)
(17.8202 0 6.13757)
(17.9668 7.45755e-20 5.92668)
(18.0914 1.11169e-19 5.69075)
(18.1932 -1.18252e-19 5.43294)
(18.271 0 5.15734)
(18.3236 4.46576e-20 4.86914)
(18.3498 6.71968e-20 4.57456)
(18.3493 -1.34344e-20 4.28077)
(18.3225 -1.41967e-20 3.99551)
(18.271 4.33608e-21 3.72674)
(18.1973 6.73964e-21 3.48202)
(18.1048 1.45114e-21 3.26821)
(16.3601 -4.1757e-19 6.39487)
(16.6862 -4.52465e-19 6.41793)
(17.0043 3.54527e-19 6.41375)
(17.3108 0 6.38064)
(17.6028 0 6.31757)
(17.8778 -1.22326e-19 6.22415)
(18.1338 -1.0778e-19 6.10066)
(18.3691 -1.83214e-19 5.94806)
(18.5821 1.80908e-19 5.76796)
(18.7716 2.0015e-19 5.56278)
(18.9363 -1.31057e-19 5.33571)
(19.0751 0 5.09085)
(19.187 -7.03965e-20 4.83321)
(19.2714 -2.68754e-20 4.56865)
(19.3284 -2.63959e-20 4.30379)
(19.3589 6.62598e-20 4.04568)
(19.3644 -9.3828e-21 3.80158)
(19.3478 -5.26968e-22 3.5785)
(19.3123 -1.52203e-21 3.38285)
(19.2631 -4.66923e-21 3.22037)
(16.4178 -1.03685e-21 5.97127)
(16.761 -3.62889e-19 6.00571)
(17.1035 4.44175e-19 6.0174)
(17.4418 3.04028e-19 6.00421)
(17.7722 -2.38176e-20 5.96451)
(18.0914 -5.18415e-19 5.89727)
(18.3962 2.43668e-19 5.80217)
(18.6839 0 5.67962)
(18.9518 0 5.5308)
(19.1978 1.44959e-19 5.35773)
(19.4199 -1.43245e-19 5.16329)
(19.6164 0 4.95122)
(19.7862 8.34044e-20 4.72611)
(19.9286 -1.59693e-20 4.49333)
(20.0437 1.13189e-20 4.25888)
(20.1321 -1.32482e-20 4.02919)
(20.1956 3.84435e-20 3.81085)
(20.2366 9.63971e-21 3.61035)
(20.2582 -9.57514e-21 3.43377)
(20.2652 6.65282e-21 3.28666)
(20.2581 2.09387e-21 3.17235)
(16.4192 4.99633e-20 5.53094)
(16.764 -3.17147e-19 5.5693)
(17.1132 2.72615e-19 5.58904)
(17.4635 -8.1133e-20 5.58806)
(17.8119 -2.81368e-19 5.56459)
(18.1547 2.76908e-19 5.5173)
(18.4886 0 5.44546)
(18.8102 9.32032e-20 5.34901)
(19.1164 -2.818e-19 5.22864)
(19.4042 1.76959e-19 5.08585)
(19.6711 0 4.923)
(19.915 0 4.74326)
(20.1342 -9.55152e-20 4.55063)
(20.3277 1.72927e-19 4.34984)
(20.4951 -1.66276e-21 4.14621)
(20.6369 -4.93936e-20 3.94547)
(20.7544 -3.72921e-20 3.75358)
(20.8496 1.32193e-20 3.57644)
(20.9254 -1.31202e-20 3.41973)
(20.9856 1.08572e-21 3.28875)
(21.0453 -6.76901e-21 3.18684)
(16.3863 8.3518e-19 5.08769)
(16.7235 -8.17e-19 5.12538)
(17.0678 8.81527e-20 5.14778)
(17.4167 7.94387e-20 5.1531)
(17.7677 0 5.1397)
(18.1175 6.90287e-20 5.10626)
(18.4631 3.617e-19 5.05192)
(18.8012 -1.24535e-19 4.97634)
(19.1285 -9.59786e-20 4.87985)
(19.4418 0 4.76347)
(19.7384 0 4.62901)
(20.0156 0 4.47905)
(20.2715 -1.06181e-19 4.31692)
(20.5047 1.62127e-20 4.14663)
(20.7144 1.38874e-20 3.97276)
(20.9005 0 3.80033)
(21.064 7.77436e-20 3.63459)
(21.2065 -5.84389e-21 3.48083)
(21.3304 8.0293e-21 3.34422)
(21.4386 2.37119e-20 3.22965)
(21.5591 1.29899e-20 3.14047)
(16.3328 -1.69903e-18 4.64903)
(16.658 3.73388e-20 4.6838)
(16.9913 7.19001e-19 4.70585)
(17.3309 0 4.71372)
(17.6748 0 4.70606)
(18.0205 -6.75906e-20 4.68172)
(18.3653 -1.23117e-19 4.6399)
(18.7064 2.18559e-19 4.58019)
(19.0406 -2.15339e-19 4.5027)
(19.365 -2.68892e-19 4.40814)
(19.6769 8.81185e-20 4.29786)
(19.9735 -7.3918e-20 4.17391)
(20.2527 0 4.03896)
(20.5129 0 3.89636)
(20.753 -1.20853e-20 3.74993)
(20.9726 -1.57421e-19 3.60397)
(21.172 -5.38556e-20 3.46299)
(21.3525 -6.6772e-20 3.33163)
(21.5161 2.41931e-20 3.21448)
(21.6648 1.7631e-21 3.11594)
(21.8378 -5.5234e-21 3.03925)
(16.2666 -7.26954e-19 4.21812)
(16.5783 1.44295e-18 4.24925)
(16.8983 -7.13184e-19 4.26963)
(17.2251 -6.31227e-19 4.2781)
(17.5572 6.96764e-19 4.2736)
(17.8927 0 4.25524)
(18.2293 0 4.22233)
(18.5646 -1.18488e-19 4.17452)
(18.8962 -1.07681e-19 4.11185)
(19.2213 -4.74037e-21 4.03484)
(19.5374 2.42841e-19 3.94452)
(19.8421 -2.21515e-20 3.8425)
(20.1333 -2.62029e-19 3.73093)
(20.4091 1.21114e-19 3.61252)
(20.6685 1.79144e-19 3.49046)
(20.9108 -1.18814e-20 3.36829)
(21.136 0 3.24985)
(21.345 4.64141e-20 3.13912)
(21.5393 4.46515e-21 3.04005)
(21.7205 -4.84713e-20 2.95648)
(21.9362 3.95593e-21 2.89146)
(16.1925 0 3.79566)
(16.4909 4.59131e-20 3.82316)
(16.7973 -4.23663e-20 3.84149)
(17.1104 0 3.84974)
(17.4292 -7.45689e-20 3.84711)
(17.752 6.11988e-19 3.83289)
(18.0771 -5.32683e-19 3.80658)
(18.4025 1.75895e-19 3.7679)
(18.7262 -3.90112e-21 3.71691)
(19.0458 -4.01073e-21 3.65401)
(19.3593 -1.6605e-19 3.58003)
(19.6644 4.65531e-19 3.49624)
(19.9593 -1.44943e-19 3.40439)
(20.2424 0 3.30665)
(20.5124 9.35464e-20 3.20564)
(20.7687 -9.24663e-20 3.10427)
(21.0112 0 3.00574)
(21.2403 3.25448e-20 2.91337)
(21.4573 -1.3793e-20 2.83051)
(21.6631 1.87206e-20 2.76041)
(21.9124 4.33913e-21 2.70584)
(16.1137 0 3.38131)
(16.3997 0 3.40541)
(16.6932 -4.27445e-20 3.42168)
(16.9933 8.11778e-20 3.42943)
(17.2989 7.58368e-20 3.42803)
(17.6089 4.02974e-19 3.41696)
(17.9218 -4.68603e-19 3.39583)
(18.2359 -5.8624e-20 3.36447)
(18.5496 5.18699e-20 3.32294)
(18.8611 9.69946e-20 3.27159)
(19.1684 1.69876e-19 3.2111)
(19.4698 -3.26404e-19 3.14251)
(19.7637 -1.32656e-19 3.06721)
(20.0487 1.30946e-19 2.98699)
(20.3237 0 2.90395)
(20.5879 -1.26634e-19 2.82047)
(20.8413 1.54716e-19 2.73918)
(21.0841 -2.98208e-20 2.66282)
(21.3173 -4.1249e-20 2.59414)
(21.5416 1.67401e-20 2.53586)
(21.8164 0 2.49038)
(16.0329 7.80733e-19 2.97411)
(16.3076 0 2.995)
(16.5893 0 3.00928)
(16.8775 -7.9473e-20 3.01642)
(17.1711 -7.42427e-20 3.01592)
(17.4691 -4.02465e-19 3.00738)
(17.7704 7.19584e-19 2.99053)
(18.0735 -3.06802e-19 2.96524)
(18.3772 1.09284e-19 2.9316)
(18.6798 0 2.88991)
(18.9799 0 2.84073)
(19.2759 -1.56577e-19 2.78492)
(19.5666 3.60348e-19 2.72361)
(19.8507 -1.3384e-19 2.65823)
(20.1273 5.53621e-20 2.59049)
(20.3958 4.45427e-20 2.52231)
(20.656 -3.44501e-20 2.45582)
(20.9081 -2.56051e-20 2.39324)
(21.153 2.53154e-20 2.33682)
(21.391 0 2.28875)
(21.6851 0 2.25108)
(15.9526 0 2.57303)
(16.2171 0 2.59091)
(16.4884 0 2.60328)
(16.7658 0 2.60974)
(17.0487 -6.16031e-19 2.6099)
(17.336 7.69863e-19 2.60346)
(17.6268 -2.00265e-19 2.59022)
(17.92 2.89255e-19 2.57008)
(18.2143 -4.92026e-19 2.54315)
(18.5086 6.62559e-20 2.50968)
(18.8016 1.89421e-19 2.47014)
(19.092 2.35753e-19 2.42521)
(19.3788 -3.6212e-19 2.37583)
(19.6609 1.35615e-19 2.32313)
(19.9376 -1.5673e-19 2.26848)
(20.2083 1.48888e-19 2.21343)
(20.4728 3.61192e-20 2.15966)
(20.7315 -7.80574e-21 2.10896)
(20.9849 -3.46245e-21 2.06314)
(21.2332 0 2.02392)
(21.542 0 1.99301)
(15.8746 -7.55877e-19 2.17598)
(16.1303 0 2.19099)
(16.3924 0 2.20151)
(16.6606 0 2.20722)
(16.9341 3.65006e-20 2.20782)
(17.2121 0 2.20309)
(17.4937 -6.34199e-20 2.19287)
(17.7782 5.957e-20 2.17712)
(18.0644 -2.10554e-19 2.15591)
(18.3513 1.57933e-19 2.12947)
(18.6379 1.73921e-19 2.09817)
(18.9231 -1.54391e-20 2.06258)
(19.206 -1.53798e-19 2.02341)
(19.4858 0 1.98158)
(19.7619 5.64672e-20 1.93817)
(20.0338 4.03003e-20 1.89439)
(20.3013 -8.43857e-20 1.85158)
(20.5647 -3.11239e-20 1.81114)
(20.8245 -4.4772e-20 1.77448)
(21.0807 0 1.74297)
(21.4007 -6.12166e-21 1.718)
(15.801 -3.48292e-19 1.78288)
(16.0491 -2.16718e-20 1.79517)
(16.3034 2.79516e-19 1.80389)
(16.5636 -6.16605e-19 1.8088)
(16.829 1.36912e-20 1.80967)
(17.0991 5.08249e-19 1.80635)
(17.3731 -4.59513e-20 1.79871)
(17.6501 -3e-19 1.78674)
(17.9294 5.44326e-20 1.7705)
(18.21 1.91143e-19 1.75017)
(18.491 -1.88303e-19 1.72605)
(18.7717 0 1.69858)
(19.0512 -3.67945e-20 1.66832)
(19.3289 0 1.63597)
(19.6042 -5.51767e-20 1.60237)
(19.8767 -4.36037e-20 1.56845)
(20.1463 4.46661e-21 1.53525)
(20.4132 5.72963e-20 1.50384)
(20.6778 -2.71993e-20 1.4753)
(20.9403 -1.45148e-20 1.45066)
(21.2691 5.97179e-21 1.43104)
(15.7337 7.43753e-23 1.38858)
(15.9754 2.11847e-20 1.39812)
(16.2232 1.99436e-20 1.40495)
(16.4768 2.96757e-19 1.40887)
(16.7357 -2.91748e-19 1.40975)
(16.9993 -2.60696e-19 1.40744)
(17.2668 2.87251e-19 1.40189)
(17.5378 0 1.39307)
(17.8113 -2.87025e-19 1.38105)
(18.0867 2.03775e-19 1.36596)
(18.3633 0 1.34802)
(18.6402 0 1.32757)
(18.9168 3.59596e-20 1.30503)
(19.1926 -1.20614e-19 1.28092)
(19.4671 1.70866e-19 1.25585)
(19.7399 -5.11989e-20 1.23054)
(20.011 -1.97167e-20 1.20574)
(20.2806 0 1.18226)
(20.5489 2.23301e-20 1.16091)
(20.816 1.67329e-20 1.14246)
(21.151 -8.61368e-21 1.12784)
(15.6738 3.34678e-19 0.998747)
(15.9104 0 1.00571)
(16.153 1.96704e-20 1.01076)
(16.4014 0 1.01376)
(16.655 1.75474e-20 1.01461)
(16.9134 4.92075e-20 1.01324)
(17.176 2.0802e-19 1.00959)
(17.4422 -4.27781e-19 1.00366)
(17.7113 2.44226e-19 0.995487)
(17.9826 -2.43359e-20 0.985165)
(18.2556 0 0.972856)
(18.5296 0 0.958784)
(18.804 1.80285e-20 0.943245)
(19.0783 0 0.926603)
(19.3521 -2.37415e-20 0.909286)
(19.6251 9.40569e-20 0.891782)
(19.8974 -2.34136e-20 0.874624)
(20.1689 1.33801e-20 0.858379)
(20.4401 -2.4514e-20 0.843624)
(20.7109 7.17094e-21 0.830903)
(21.0514 5.93973e-21 0.8209)
(15.6232 -1.63417e-19 0.595394)
(15.856 1.65816e-19 0.599394)
(16.0947 -1.5142e-19 0.602252)
(16.3392 1.48838e-19 0.603899)
(16.589 -1.71371e-20 0.604276)
(16.8435 1.25735e-19 0.603339)
(17.1024 -9.36012e-20 0.60106)
(17.365 -2.79402e-20 0.597435)
(17.6308 -1.00318e-19 0.59249)
(17.8991 1.10613e-19 0.586285)
(18.1695 0 0.578916)
(18.4413 0 0.57052)
(18.7139 3.17991e-20 0.561272)
(18.987 -5.05141e-20 0.55139)
(19.2602 -9.16149e-20 0.541128)
(19.5333 5.0135e-20 0.530779)
(19.8061 -1.72801e-20 0.520669)
(20.0789 1.70554e-20 0.511157)
(20.352 1.10433e-20 0.50264)
(20.6253 -9.28233e-21 0.495574)
(20.9681 -2.71444e-21 0.490785)
(15.3678 -5.25526e-21 0.20754)
(15.5965 -7.85427e-20 0.209073)
(15.831 2.86912e-21 0.210189)
(16.0712 2.9443e-21 0.210864)
(16.3165 6.89338e-20 0.211074)
(16.5664 -1.57995e-20 0.2108)
(16.8206 5.75916e-20 0.210029)
(17.0784 -5.66803e-20 0.208758)
(17.3393 -4.93457e-20 0.206994)
(17.6026 6.03031e-20 0.204758)
(17.8679 4.11805e-20 0.202082)
(18.1346 -4.05824e-20 0.199015)
(18.402 1.73756e-20 0.195617)
(18.6699 -8.44548e-22 0.191964)
(18.9378 -9.44557e-22 0.188146)
(19.2056 0 0.184268)
(19.4732 0 0.180449)
(19.7407 0 0.176828)
(20.0086 0 0.173585)
(20.2774 3.4636e-21 0.170971)
(20.6162 1.44463e-21 0.169715)
)
;

boundaryField
{
    inlet
    {
        type            fixedValue;
        value           nonuniform 0();
    }
    outlet
    {
        type            zeroGradient;
    }
    flap
    {
        type            movingWallVelocity;
        value           nonuniform 0();
    }
    upperWall
    {
        type            noSlip;
    }
    lowerWall
    {
        type            noSlip;
    }
    frontAndBack
    {
        type            empty;
    }
    procBoundary2to1
    {
        type            processor;
        value           nonuniform List<vector> 
17
(
(15.913 0 6.749)
(16.0297 -8.7167e-19 6.34689)
(16.0774 0 5.91663)
(16.0814 -8.84517e-19 5.47628)
(16.058 5.39683e-20 5.03661)
(16.0171 -1.80797e-18 4.60301)
(15.9641 9.6414e-19 4.17741)
(15.9026 -2.56798e-20 3.75995)
(15.8358 -8.87276e-19 3.35021)
(15.7659 -8.23233e-19 2.94727)
(15.6952 4.97559e-20 2.55016)
(15.6258 -2.43993e-20 2.15686)
(15.5595 -1.19042e-20 1.76734)
(15.4984 2.34971e-20 1.37656)
(15.4434 -3.74277e-19 0.990033)
(15.3965 3.54841e-19 0.590348)
(15.1451 5.51983e-21 0.205625)
)
;
    }
    procBoundary2to4
    {
        type            processor;
        value           nonuniform List<vector> 
11
(
(4.24044 0 5.66085)
(5.48876 0 5.80152)
(6.85934 0 5.98177)
(8.38136 6.41334e-20 6.26505)
(9.98025 -2.57765e-19 6.63999)
(11.5127 2.33206e-19 7.02421)
(12.8532 0 7.32727)
(13.9357 -4.1256e-19 7.49171)
(14.7494 -5.72869e-19 7.49858)
(15.3199 -4.01237e-19 7.35789)
(15.6914 0 7.09679)
)
;
    }
    procBoundary2to5
    {
        type            processor;
        value           nonuniform List<vector> 
34
(
(2.87527 -2.94796e-19 5.60306)
(2.66058 2.64335e-19 5.65436)
(3.74636 0 5.88671)
(3.74636 0 5.88671)
(3.53058 3.91772e-19 5.83953)
(4.75162 0 5.96292)
(4.75162 0 5.96292)
(6.06213 0 6.01122)
(6.06213 0 6.01122)
(5.89719 4.48339e-23 5.81204)
(7.31184 -7.94152e-20 5.73746)
(7.31184 -7.94152e-20 5.73746)
(7.16536 -5.72565e-20 5.43329)
(8.64782 0 5.24989)
(8.64782 0 5.24989)
(10.1293 3.13509e-20 5.01764)
(10.1293 3.13509e-20 5.01764)
(10.0044 -2.00636e-21 4.6025)
(11.4651 -1.38798e-20 4.34239)
(11.4651 -1.38798e-20 4.34239)
(12.8872 2.98911e-21 4.10047)
(12.8872 2.98911e-21 4.10047)
(12.7244 6.70722e-21 3.69264)
(14.1157 2.37555e-20 3.5275)
(14.1157 2.37555e-20 3.5275)
(15.4891 2.46281e-20 3.40878)
(15.4891 2.46281e-20 3.40878)
(15.3134 -3.05775e-21 3.12176)
(16.6852 2.37722e-21 3.0958)
(16.6852 2.37722e-21 3.0958)
(18.0002 0 3.09158)
(18.0002 0 3.09158)
(19.1869 1.23743e-21 3.09459)
(19.1869 1.23743e-21 3.09459)
)
;
    }
}


// ************************************************************************* //
