/*--------------------------------*- C++ -*----------------------------------*\
| =========                 |                                                 |
| \\      /  F ield         | OpenFOAM: The Open Source CFD Toolbox           |
|  \\    /   O peration     | Version:  dev                                   |
|   \\  /    A nd           | Web:      www.OpenFOAM.org                      |
|    \\/     M anipulation  |                                                 |
\*---------------------------------------------------------------------------*/
FoamFile
{
    version     2.0;
    format      ascii;
    class       volVectorField;
    location    "1.94";
    object      Force;
}
// * * * * * * * * * * * * * * * * * * * * * * * * * * * * * * * * * * * * * //

dimensions      [1 1 -2 0 0 0 0];

internalField   uniform (0 0 0);

boundaryField
{
    inlet
    {
        type            calculated;
        value           nonuniform 0();
    }
    outlet
    {
        type            calculated;
        value           nonuniform 0();
    }
    flap
    {
        type            calculated;
        value           nonuniform List<vector> 
33
(
(2.51822 -3.10027e-18 -0.241176)
(2.44031 6.1337e-17 -0.555558)
(2.27454 3.3851e-21 -0.826859)
(2.04326 8.10746e-22 -0.997476)
(1.78832 -1.06687e-17 -1.08056)
(1.54132 -9.74515e-18 -1.09835)
(1.32008 2.72937e-17 -1.07227)
(1.13277 -3.7325e-21 -1.0197)
(0.977286 1.73294e-17 -0.952203)
(0.847649 -4.70198e-38 -0.875712)
(0.736984 5.14279e-38 -0.792593)
(0.63626 2.82119e-37 -0.701145)
(0.535564 4.3279e-18 -0.597057)
(0.423965 1.3156e-17 -0.472807)
(0.286845 2.32217e-18 -0.319035)
(0.617446 -1.84254e-17 0.542985)
(0.397369 2.93874e-39 0.349625)
(0.181199 -1.99773e-21 0.160452)
(0.048519 -3.74424e-20 -0.00476607)
(0.0482463 1.55167e-23 -0.0111325)
(0.0474386 1.69036e-23 -0.017478)
(0.0462016 1.50886e-19 -0.0227681)
(0.0447264 8.19239e-23 -0.0272818)
(0.0431994 3.38607e-23 -0.031092)
(0.0417684 6.53887e-23 -0.0342783)
(0.0404733 -1.43046e-17 -0.0368593)
(0.0393289 1.43799e-17 -0.0388297)
(0.03828 1.68933e-22 -0.0401486)
(0.0372324 -1.76558e-22 -0.0407347)
(0.0362898 0 -0.0407463)
(0.035558 5.87747e-39 -0.0404374)
(0.0356267 2.94694e-19 -0.0400802)
(0.0423832 3.1347e-17 -0.048024)
)
;
    }
    upperWall
    {
        type            calculated;
        value           nonuniform 0();
    }
    lowerWall
    {
        type            calculated;
        value           uniform (0 0 0);
    }
    frontAndBack
    {
        type            empty;
    }
    procBoundary4to1
    {
        type            processor;
        value           uniform (0 0 0);
    }
    procBoundary4to2
    {
        type            processor;
        value           uniform (0 0 0);
    }
    procBoundary4to3
    {
        type            processor;
        value           uniform (0 0 0);
    }
    procBoundary4to5
    {
        type            processor;
        value           uniform (0 0 0);
    }
}


// ************************************************************************* //
