/*--------------------------------*- C++ -*----------------------------------*\
| =========                 |                                                 |
| \\      /  F ield         | OpenFOAM: The Open Source CFD Toolbox           |
|  \\    /   O peration     | Version:  dev                                   |
|   \\  /    A nd           | Web:      www.OpenFOAM.org                      |
|    \\/     M anipulation  |                                                 |
\*---------------------------------------------------------------------------*/
FoamFile
{
    version     2.0;
    format      ascii;
    class       volScalarField;
    location    "1.48";
    object      p;
}
// * * * * * * * * * * * * * * * * * * * * * * * * * * * * * * * * * * * * * //

dimensions      [0 2 -2 0 0 0 0];

internalField   nonuniform List<scalar> 
2790
(
49.0501
48.9072
48.9964
49.2565
49.6071
50.025
50.5134
51.0771
51.7193
52.4428
53.2516
54.1507
55.1455
56.242
57.4461
58.7642
60.2022
61.7656
63.4588
65.2843
67.2415
69.3251
71.5239
73.8174
76.1739
78.5467
80.8699
83.0532
84.9731
86.404
48.9059
48.8581
48.9675
49.2262
49.5754
49.9927
50.4794
51.0405
51.6789
52.3976
53.2005
54.0925
55.0788
56.165
57.3571
58.6608
60.0819
61.6255
63.2958
65.095
67.0225
69.0735
71.237
73.4936
75.8131
78.1501
80.4395
82.5857
84.4471
85.735
48.7802
48.8067
48.9348
49.1868
49.5291
49.9408
50.4209
50.9733
51.6012
52.3072
53.0949
53.9687
54.9331
55.9931
57.1536
58.4192
59.7943
61.2823
62.8857
64.6047
66.4361
68.3721
70.3983
72.4907
74.6122
76.7055
78.6813
80.3815
81.5776
80.943
48.6604
48.7266
48.8698
49.1172
49.4521
49.857
50.3288
50.8705
51.4847
52.1741
52.9417
53.7911
54.7261
55.7505
56.8678
58.081
59.3924
60.8029
62.3116
63.9149
65.6052
67.3685
69.1815
71.0077
72.7897
74.4352
75.788
76.5191
76.4517
71.6145
48.5376
48.6257
48.7826
49.0286
49.3566
49.7529
50.214
50.7418
51.3386
52.0067
52.7486
53.567
54.4647
55.4441
56.5073
57.6552
58.8873
60.2016
61.593
63.0529
64.5672
66.1135
67.6562
69.1392
70.4739
71.5149
72.0174
71.3611
69.9143
59.4991
48.4073
48.5081
48.6753
48.9198
49.2397
49.6251
50.0727
50.5835
51.1593
51.802
52.5133
53.2951
54.149
55.0759
56.0761
57.1482
58.2889
59.4926
60.7496
62.0454
63.358
64.655
65.8862
66.973
67.7904
68.1311
67.673
65.3792
62.8383
46.7845
48.2673
48.3758
48.5493
48.7916
49.1023
49.4752
49.9071
50.3984
50.9503
51.564
52.2404
52.9806
53.7848
54.6525
55.582
56.5695
57.6089
58.6905
59.7998
60.9161
62.0092
63.0356
63.93
64.5913
64.8596
64.4673
63.0536
59.0457
55.7952
35.1367
48.1163
48.2294
48.4062
48.6448
48.9456
49.3043
49.7185
50.1879
50.7129
51.2942
51.932
52.6262
53.3757
54.1785
55.0309
55.9269
56.8572
57.8081
58.7607
59.6878
60.551
61.2961
61.8434
62.0719
61.7926
60.6851
58.4012
52.7576
48.9912
25.502
47.9537
48.0696
48.2472
48.4807
48.7704
49.1136
49.5082
49.9534
50.4491
50.9951
51.591
52.2355
52.9262
53.6595
54.4299
55.229
56.0445
56.8594
57.6501
58.3834
59.0133
59.476
59.6795
59.4866
58.6877
56.9187
53.8814
46.8101
42.4672
18.1186
47.7795
47.897
48.0736
48.3004
48.578
48.9043
49.2776
49.6967
50.1609
50.6692
51.2204
51.8121
52.4406
53.101
53.7859
54.4844
55.1819
55.8582
56.4852
57.0248
57.4246
57.6125
57.4868
56.8984
55.6258
53.2711
49.5949
41.4181
36.3765
12.7021
47.594
47.7123
47.8862
48.105
48.3693
48.6776
49.0282
49.4196
49.8503
50.3189
50.8232
51.3597
51.9238
52.5089
53.106
53.7022
54.2805
54.8178
55.2828
55.633
55.8112
55.7388
55.307
54.3597
52.6705
49.8186
45.6156
36.7171
30.9069
8.57559
47.3976
47.516
47.6861
47.8957
48.1457
48.435
48.7617
49.1239
49.5198
49.947
50.4027
50.8826
51.3807
51.8892
52.3975
52.891
53.3506
53.7511
54.0585
54.2272
54.1962
53.8829
53.1747
51.912
49.8693
46.6176
41.9956
32.7279
26.0903
5.03806
47.1908
47.309
47.4743
47.6736
47.9084
48.1777
48.4795
48.8116
49.1714
49.5563
49.9624
50.3846
50.816
51.2475
51.6672
52.0591
52.4025
52.6705
52.8269
52.8246
52.6002
52.0692
51.1177
49.5873
47.2575
43.7035
38.7594
29.401
21.8682
1.63106
46.9744
47.092
47.2517
47.4398
47.6586
47.9073
48.1835
48.4845
48.8076
49.1494
49.5053
49.8695
50.2341
50.5892
50.9217
51.2144
51.4455
51.5867
51.601
51.4405
51.041
50.3177
49.1588
47.4102
44.8589
41.0968
35.9312
26.7073
18.2507
-1.98295
46.7493
46.8658
47.0193
47.1957
47.3979
47.6254
47.8753
48.1449
48.4307
48.7291
49.0348
49.3413
49.6399
49.92
50.1677
50.3647
50.4887
50.5106
50.3934
50.0893
49.5342
48.6458
47.3164
45.3985
42.6905
38.8139
33.5482
24.6799
15.4317
-6.21488
-7.93321
-7.86526
-7.58255
-6.87696
-6.08926
-5.48485
-5.03666
-4.67793
-4.35379
-4.0443
-3.75623
-3.50196
-3.28436
-3.09566
-2.92311
-2.75321
-2.57483
-2.38028
-2.1639
-1.92327
-1.65939
-1.37577
-1.07852
-0.776679
-0.48241
-0.21108
0.018812
0.185513
0.264037
0.239093
-7.95858
-7.88268
-7.58122
-6.87947
-6.117
-5.51915
-5.05798
-4.68316
-4.35051
-4.0404
-3.75583
-3.50597
-3.29233
-3.1068
-2.93711
-2.7699
-2.59351
-2.40021
-2.18454
-1.94396
-1.67921
-1.39379
-1.09362
-0.787371
-0.487213
-0.20872
0.0294116
0.204483
0.286044
0.237783
-8.00414
-7.91142
-7.5786
-6.88471
-6.16147
-5.57074
-5.08462
-4.6805
-4.33224
-4.02063
-3.74225
-3.50026
-3.29359
-3.11374
-2.9487
-2.78549
-2.61251
-2.42178
-2.20767
-1.96751
-1.70185
-1.41406
-1.11039
-0.799958
-0.495039
-0.211702
0.0306861
0.209191
0.292387
0.242604
-8.07424
-7.95638
-7.58129
-6.8952
-6.21188
-5.62357
-5.10719
-4.66924
-4.30181
-3.98714
-3.71554
-3.48345
-3.2862
-3.11461
-2.9567
-2.79981
-2.63253
-2.44645
-2.23594
-1.99841
-1.73447
-1.44771
-1.14446
-0.833952
-0.528882
-0.245286
-0.00226948
0.177854
0.265458
0.221523
-8.17634
-8.02556
-7.59466
-6.91092
-6.25539
-5.66037
-5.1129
-4.64255
-4.25554
-3.93664
-3.67144
-3.4503
-3.26495
-3.10485
-2.95747
-2.81022
-2.6519
-2.47406
-2.27117
-2.04067
-1.7831
-1.50205
-1.20388
-0.897509
-0.596201
-0.316028
-0.0755314
0.104448
0.198479
0.167944
-8.32129
-8.12227
-7.62174
-6.9276
-6.27702
-5.66428
-5.08842
-4.59189
-4.18898
-3.86697
-3.60859
-3.3999
-3.22967
-3.08519
-2.95286
-2.81999
-2.67554
-2.51109
-2.32105
-2.10276
-1.85664
-1.58628
-1.29811
-0.999925
-0.705036
-0.429284
-0.191207
-0.00896179
0.0985902
0.0970826
-8.52672
-8.23696
-7.65964
-6.93652
-6.2627
-5.62069
-5.02102
-4.50805
-4.09702
-3.77607
-3.5269
-3.33312
-3.18144
-3.05751
-2.94575
-2.83313
-2.70848
-2.56321
-2.39146
-2.19023
-1.95961
-1.70305
-1.42782
-1.14151
-0.853898
-0.580204
-0.33968
-0.148383
-0.0182327
0.0249933
-8.81405
-8.35791
-7.69799
-6.92505
-6.20037
-5.5191
-4.90112
-4.38297
-3.97396
-3.66095
-3.42544
-3.25125
-3.12294
-3.02457
-2.93948
-2.85348
-2.75496
-2.63497
-2.4871
-2.30768
-2.09615
-1.85534
-1.59156
-1.31482
-1.03401
-0.759197
-0.508565
-0.298622
-0.136384
-0.0374611
-9.19621
-8.48871
-7.72522
-6.87664
-6.07762
-5.35196
-4.72349
-4.21219
-3.81555
-3.51768
-3.30182
-3.15309
-3.05523
-2.98978
-2.93828
-2.88529
-2.81874
-2.72928
-2.60979
-2.45571
-2.26561
-2.0414
-1.78847
-1.51564
-1.2339
-0.952423
-0.684321
-0.445935
-0.243205
-0.0844283
-9.66793
-8.6408
-7.73518
-6.76828
-5.88281
-5.11536
-4.4851
-3.99149
-3.61722
-3.34259
-3.15384
-3.03876
-2.98018
-2.95615
-2.94531
-2.93106
-2.90126
-2.84634
-2.75832
-2.63152
-2.46345
-2.25501
-2.01033
-1.73738
-1.44663
-1.14871
-0.854873
-0.579687
-0.330585
-0.114384
-10.2348
-8.81496
-7.71997
-6.57694
-5.59898
-4.8002
-4.18218
-3.71884
-3.37623
-3.13211
-2.97853
-2.90742
-2.89929
-2.92628
-2.96286
-2.99185
-3.0021
-2.98424
-2.92912
-2.82969
-2.68238
-2.48721
-2.24703
-1.96904
-1.66344
-1.34049
-1.01182
-0.693085
-0.394693
-0.128357
-10.9775
-8.99936
-7.63625
-6.26584
-5.19456
-4.38781
-3.80799
-3.39329
-3.09153
-2.8832
-2.77273
-2.75827
-2.81461
-2.90313
-2.99264
-3.06722
-3.11878
-3.13875
-3.1161
-3.04226
-2.91256
-2.72683
-2.48756
-2.20003
-1.87328
-1.51841
-1.14835
-0.781795
-0.434609
-0.128589
-12.0146
-9.13166
-7.38299
-5.75826
-4.62118
-3.85654
-3.35902
-3.01814
-2.76456
-2.59315
-2.53288
-2.59136
-2.7302
-2.89124
-3.03642
-3.15553
-3.24721
-3.3042
-3.31284
-3.2613
-3.14433
-2.96197
-2.7175
-2.41522
-2.06213
-1.67022
-1.25588
-0.841645
-0.450296
-0.117834
-13.1152
-9.03044
-6.77754
-4.95662
-3.83633
-3.19955
-2.84645
-2.60692
-2.40088
-2.25852
-2.25446
-2.4088
-2.65445
-2.89857
-3.09717
-3.25564
-3.38475
-3.47677
-3.51336
-3.47848
-3.36633
-3.17863
-2.91997
-2.5951
-2.21128
-1.78107
-1.32374
-0.86687
-0.440874
-0.0991278
-12.2667
-8.13612
-5.46075
-3.84096
-2.90526
-2.47365
-2.30808
-2.18067
-2.0029
-1.87426
-1.94048
-2.22668
-2.60608
-2.93498
-3.17465
-3.36313
-3.52715
-3.65312
-3.71199
-3.68375
-3.56425
-3.35928
-3.07641
-2.7217
-2.30306
-1.83458
-1.33899
-0.849435
-0.404071
-0.0753741
46.512
46.6267
46.7732
46.9373
47.1222
47.3276
47.5505
47.7876
48.0354
48.2896
48.5445
48.7928
49.0255
49.2314
49.3956
49.4995
49.5204
49.4292
49.1895
48.7537
48.0603
47.0311
45.564
43.5215
40.7189
36.8238
31.6137
23.3861
13.9977
-10.5244
46.2598
46.3721
46.5109
46.662
46.8286
47.011
47.2058
47.4094
47.6182
47.8274
48.0307
48.2205
48.3875
48.5199
48.6021
48.6158
48.5381
48.3407
47.9881
47.4342
46.6218
45.4777
43.9078
41.7891
38.9612
35.1545
30.1988
22.9794
15.3265
14.2455
45.9947
46.104
46.2345
46.3718
46.5196
46.6783
46.8445
47.014
47.1834
47.3473
47.4991
47.6309
47.7333
47.7939
47.7972
47.7251
47.555
47.2599
46.8058
46.1496
45.2388
44.0067
42.3701
40.2245
37.4407
33.8245
29.3058
23.4123
17.4738
18.1612
45.7171
45.8232
45.9447
46.0676
46.1958
46.3305
46.4677
46.6029
46.7327
46.8515
46.9524
47.0273
47.0668
47.0584
46.9867
46.8339
46.5785
46.1955
45.6525
44.9101
43.9216
42.6283
40.9602
38.8333
36.1521
32.7953
28.7609
23.881
18.3658
15.3484
45.4277
45.5303
45.6424
45.7502
45.8583
45.9686
46.0767
46.1776
46.2681
46.3425
46.3934
46.413
46.392
46.3178
46.1758
45.9484
45.616
45.1554
44.5364
43.7244
42.679
41.3501
39.6825
37.6122
35.075
32.0044
28.4196
24.2881
19.6179
16.3679
45.1271
45.2261
45.3284
45.4208
45.5085
45.5939
45.6727
45.7399
45.7918
45.8227
45.825
45.7915
45.7128
45.5769
45.3695
45.0744
44.6738
44.1462
43.4647
42.6
41.517
40.1759
38.5357
36.5505
34.1814
31.4011
28.2426
24.7698
21.0866
18.2327
44.8166
44.9116
45.0037
45.0804
45.1477
45.2081
45.2576
45.2913
45.3056
45.2945
45.2502
45.1661
45.0332
44.84
44.573
44.2174
43.7574
43.1738
42.4434
41.5413
40.4386
39.1058
37.5136
35.6318
33.4419
30.9426
28.1771
25.2339
22.2096
19.5738
44.4973
44.588
44.6695
44.7305
44.7774
44.8129
44.8335
44.8343
44.8119
44.7604
44.6719
44.5403
44.3572
44.1116
43.791
43.3823
42.8718
42.243
41.4763
40.5505
39.4439
38.1355
36.6057
34.8372
32.8258
30.5852
28.1579
25.6159
23.0285
20.6329
44.1704
44.2564
44.3272
44.3723
44.399
44.4101
44.4024
44.3713
44.3135
44.2231
44.093
43.9174
43.6884
43.3956
43.0277
42.5733
42.0212
41.3576
40.5654
39.6283
38.5306
37.2584
35.7999
34.1469
32.3049
30.2934
28.1475
25.921
23.6676
21.5247
43.8373
43.9181
43.9781
44.0076
44.0143
44.0016
43.9666
43.9048
43.8131
43.6859
43.5167
43.3005
43.0299
42.6951
42.2864
41.7941
41.2091
40.5194
39.7116
38.7738
37.6951
36.4673
35.084
33.5434
31.8567
30.0436
28.1318
26.1617
24.175
22.2593
43.4995
43.5748
43.624
43.6379
43.6251
43.5894
43.5281
43.437
43.3132
43.1517
42.9465
42.693
42.3848
42.0133
41.5701
41.0474
40.4371
39.7295
38.9149
37.9849
36.9326
35.7539
34.4462
33.0122
31.4651
29.8224
28.1068
26.3489
24.5804
22.8638
43.1586
43.2282
43.2664
43.265
43.2334
43.1756
43.0892
42.9703
42.8165
42.6233
42.3851
42.0982
41.7567
41.3534
40.8814
40.3345
39.706
38.9883
38.1746
37.2589
36.2377
35.1101
33.8763
32.5416
31.1188
29.623
28.0734
26.4934
24.9077
23.3633
42.8167
42.8801
42.9072
42.8907
42.841
42.7623
42.6523
42.5074
42.3257
42.1031
41.8353
41.5188
41.1485
40.7183
40.2228
39.6573
39.0164
38.2949
37.4881
36.592
35.6054
34.5289
33.3656
32.1226
30.8101
29.4413
28.0333
26.6044
25.1734
23.7764
42.4753
42.5323
42.5482
42.5173
42.4505
42.3518
42.2193
42.0504
41.8433
41.5941
41.2996
40.9573
40.5624
40.1101
39.5961
39.0169
38.3689
37.6485
36.853
35.9803
35.03
34.0038
32.907
31.7471
30.5326
29.2749
27.9886
26.6886
25.3889
24.1176
42.1362
42.1868
42.1918
42.1469
42.0639
41.9463
41.7927
41.6018
41.3718
41.0988
40.7806
40.4157
40.0004
39.5305
39.0023
38.414
37.7633
37.0482
36.2672
35.4197
34.5058
33.5285
32.4942
31.4093
30.2816
29.1214
27.9406
26.7507
25.5628
24.3991
41.8018
41.8457
41.84
41.7816
41.6833
41.5482
41.3749
41.164
40.9135
40.6194
40.2804
39.8964
39.4644
38.9804
38.4421
37.8486
37.199
36.4922
35.7281
34.9065
34.0285
33.0984
32.1218
31.1045
30.054
28.9792
27.8896
26.7942
25.7022
24.6309
41.4747
41.511
41.4946
41.4236
41.311
41.1598
40.9688
40.7394
40.4703
40.1578
39.8014
39.4014
38.9556
38.4608
37.9161
37.3209
36.6749
35.9787
35.2329
34.4377
33.595
32.709
31.785
30.8287
29.847
28.847
27.8364
26.8226
25.8129
24.8215
41.157
41.1849
41.1578
41.0754
40.9495
40.7834
40.5762
40.3303
40.0449
39.7164
39.3452
38.9322
38.4751
37.9726
37.4247
36.8304
36.1901
35.5058
34.7793
34.0105
33.2011
32.3559
31.4803
30.5792
29.6584
28.7238
27.7819
26.8387
25.9001
24.9778
40.8504
40.8698
40.8327
40.7396
40.6011
40.4211
40.1994
39.9391
39.6396
39.297
38.9133
38.4899
38.0245
37.5169
36.9679
36.3763
35.7431
35.0727
34.3657
33.6216
32.8436
32.0366
31.2051
30.3534
29.4864
28.6091
27.7271
26.8452
25.9683
25.1058
40.5571
40.5686
40.5216
40.4179
40.2681
40.0758
39.8411
39.5679
39.256
38.9019
38.5077
38.0756
37.6043
37.0942
36.5459
35.958
35.3335
34.6773
33.9892
33.2688
32.5204
31.7486
30.9569
30.1492
29.3296
28.5025
27.6726
26.8444
26.0213
25.2109
40.2796
40.2834
40.227
40.1133
39.9529
39.7497
39.5034
39.2188
38.8962
38.5327
38.1302
37.6909
37.2155
36.7048
36.1582
35.5756
34.9609
34.318
33.6474
32.9501
32.2296
31.4898
30.7338
29.965
29.1872
28.404
27.6193
26.8375
26.0615
25.2967
40.0202
40.0166
39.9515
39.8287
39.6583
39.4447
39.1885
38.894
38.5619
38.1907
37.782
37.3371
36.8591
36.3491
35.8052
35.2288
34.6242
33.9943
33.3405
32.6646
31.9696
31.2585
30.5344
29.8002
29.0592
28.3144
27.5692
26.8272
26.0912
25.3661
39.7818
39.7711
39.6975
39.5661
39.3865
39.1635
38.8988
38.596
38.2555
37.8778
37.4645
37.0158
36.5359
36.0268
35.4866
34.9171
34.3225
33.7055
33.0678
32.4113
31.7389
31.0534
30.3573
29.6532
28.9446
28.2337
27.5229
26.8153
26.1136
25.4224
39.5671
39.5493
39.4676
39.3284
39.1401
38.9082
38.6365
38.3272
37.9794
37.5956
37.1787
36.7285
36.2478
35.7393
35.2031
34.6411
34.0564
33.4516
32.8285
32.1895
31.5372
30.8743
30.2026
29.5245
28.8436
28.162
27.4809
26.803
26.1311
25.4691
39.3791
39.3542
39.2645
39.1181
38.9217
38.6815
38.4036
38.089
37.7351
37.3461
36.9261
36.4752
35.9947
35.4876
34.9557
34.4009
33.8253
33.2315
32.6215
31.9977
31.363
30.7197
30.0695
29.414
28.7562
28.0985
27.4425
26.7901
26.1435
25.506
39.2209
39.1891
39.091
38.937
38.7336
38.4866
38.2029
37.8838
37.5261
37.1333
36.7104
36.2587
35.7793
35.2748
34.7474
34.1988
33.6312
33.0469
32.4482
31.8375
31.2176
30.5908
29.9586
29.3223
28.6841
28.0464
27.4112
26.78
26.1546
25.5376
39.0965
39.0573
38.9497
38.7871
38.5774
38.3248
38.0356
37.7119
37.3511
36.9556
36.5308
36.0788
35.6008
35.0989
34.5753
34.032
33.4712
32.8951
32.306
31.7062
31.0985
30.485
29.867
29.246
28.624
28.0029
27.3845
26.7702
26.1614
25.5605
39.0115
38.9617
38.8437
38.6739
38.4601
38.2038
37.9101
37.5816
37.2177
36.8209
36.3954
35.9435
35.4665
34.9665
34.4458
33.9066
33.351
32.7813
32.1996
31.6083
31.0102
30.4071
29.8003
29.1913
28.5818
27.9738
27.3685
26.7675
26.1721
25.5843
38.9771
38.8988
38.765
38.589
38.3719
38.1132
37.8167
37.4854
37.1203
36.7235
36.2982
35.8467
35.3707
34.8724
34.3542
33.8182
33.2666
32.7015
32.125
31.5396
30.948
30.352
29.7529
29.1519
28.5507
27.951
27.3541
26.7614
26.1742
25.5941
39.0225
38.8931
38.7384
38.5552
38.3337
38.0717
37.7726
37.4393
37.073
36.6754
36.2495
35.7977
35.3221
34.8248
34.3081
33.7741
33.2249
32.6628
32.0897
31.5081
30.9208
30.3296
29.7355
29.1397
28.544
27.9498
27.3585
26.7714
26.1895
25.6143
-85.2741
-66.2292
-38.9093
13.391
8.96866
6.57424
11.6597
5.16053
2.3742
9.90285
7.05826
5.65358
13.4938
11.5465
9.9876
15.8549
14.0764
12.5698
17.3467
15.7786
14.4632
18.6169
17.2253
16.0586
19.7017
18.4446
17.3942
20.6054
19.4651
18.5163
21.3637
20.3275
19.4667
22.0009
21.0577
20.2737
22.5345
21.6733
20.9571
22.9805
22.1912
21.5348
23.3532
22.627
22.0232
23.6645
22.9936
22.4362
23.9246
23.3023
22.7856
24.1419
23.5624
23.0815
24.3231
23.7811
23.3317
24.4747
23.9656
23.5437
24.6016
24.1215
23.7237
24.7072
24.2526
23.8757
24.7947
24.3621
24.0033
24.8685
24.4549
24.1115
24.9283
24.5311
24.2009
24.9797
24.5964
24.277
25.0182
24.6464
24.3359
25.0558
24.6932
24.3892
25.0748
24.7193
24.4205
25.1056
24.7578
24.4623
-4.34126
-2.17289
-2.94363
-2.33062
-1.88211
-1.71385
-1.70969
-1.65598
-1.50469
-1.4318
-1.63202
-2.09936
-2.62076
-3.01111
-3.2665
-3.4734
-3.66997
-3.82699
-3.90078
-3.86717
-3.72632
-3.49088
-3.17292
-2.78013
-2.32172
-1.81486
-1.28735
-0.77876
-0.334937
-0.0472467
5.68689
1.75473
-0.509949
-0.617191
-0.25711
-0.223713
-0.388609
-0.531692
-0.637718
-0.85965
-1.35988
-2.07768
-2.72177
-3.11897
-3.36277
-3.58941
-3.81813
-3.99483
-4.06622
-4.00866
-3.82993
-3.55099
-3.18817
-2.75012
-2.24786
-1.70369
-1.15266
-0.642377
-0.226104
-0.0132359
1.41792
0.143217
-0.156714
0.208421
0.504999
0.44605
0.179363
-0.127461
-0.443493
-0.837928
-1.34012
-1.86544
-2.3143
-2.66632
-3.01486
-3.40671
-3.76598
-4.01554
-4.10792
-4.03272
-3.81739
-3.49634
-3.09055
-2.60954
-2.06779
-1.4953
-0.936088
-0.446038
-0.0851324
0.0179417
4.35198
3.12865
2.55552
2.29594
2.06101
1.71229
1.27759
0.823643
0.364733
-0.13011
-0.678153
-1.25918
-1.829
-2.34758
-2.77334
-3.09896
-3.3638
-3.56113
-3.63898
-3.57443
-3.38705
-3.10084
-2.7248
-2.26287
-1.73301
-1.17693
-0.650774
-0.218854
0.0529187
0.0124598
8.10843
6.39322
5.19245
4.32287
3.6453
3.03804
2.4457
1.8635
1.28731
0.701014
0.0958152
-0.514092
-1.09295
-1.60429
-2.02935
-2.38215
-2.66068
-2.83256
-2.90681
-2.88523
-2.74495
-2.48793
-2.1256
-1.68131
-1.19206
-0.702814
-0.269738
0.0420935
0.170104
-0.0507553
10.7783
8.98914
7.4875
6.27813
5.3191
4.51023
3.77295
3.0739
2.39962
1.73996
1.09178
0.464468
-0.122433
-0.649842
-1.10699
-1.49009
-1.78916
-1.98827
-2.06745
-2.0363
-1.91735
-1.70929
-1.41955
-1.0674
-0.681325
-0.302136
0.0187428
0.21702
0.222285
-0.118033
12.8888
11.1931
9.59577
8.20776
7.05992
6.08674
5.21672
4.41064
3.65063
2.92689
2.23623
1.58267
0.975463
0.425137
-0.0579343
-0.464252
-0.786024
-1.01394
-1.13757
-1.15639
-1.08667
-0.946024
-0.740894
-0.484602
-0.205363
0.0574914
0.255273
0.332967
0.239852
-0.114788
14.6547
13.0789
11.4828
10.0155
8.75379
7.66446
6.69124
5.79814
4.96704
4.18795
3.4562
2.77196
2.13934
1.56472
1.05619
0.621778
0.266936
-0.00293114
-0.181763
-0.268939
-0.271339
-0.20447
-0.0864351
0.0662295
0.230002
0.372467
0.455302
0.437508
0.285663
-0.0491262
16.1314
14.6785
13.1337
11.6545
10.3414
9.18433
8.14182
7.18477
6.29782
5.47199
4.70206
3.98616
3.32527
2.72313
2.18559
1.71804
1.32348
1.00544
0.768347
0.61115
0.525982
0.503763
0.528975
0.579509
0.633831
0.667559
0.651584
0.555871
0.359581
0.0364183
17.3772
16.044
14.5751
13.1248
11.8035
10.6159
9.53295
8.53292
7.60453
6.74087
5.93716
5.19062
4.50064
3.86896
3.29938
2.79554
2.35838
1.98921
1.69169
1.46458
1.29854
1.18483
1.11493
1.06836
1.02233
0.95898
0.85625
0.692607
0.455382
0.131097
18.4348
17.2131
15.8302
14.4321
13.1314
11.9412
10.8411
9.81636
8.86021
7.96822
7.13652
6.36221
5.64395
4.98227
4.37939
3.83772
3.35755
2.93791
2.57984
2.28309
2.04041
1.84293
1.68187
1.54121
1.40306
1.25301
1.07359
0.84772
0.567869
0.227897
19.3345
18.2132
16.9179
15.5844
14.3226
13.1502
12.0522
11.0189
10.0476
9.13663
8.28356
7.4857
6.74156
6.05122
5.41571
4.8361
4.3128
3.84483
3.43017
3.06658
2.75026
2.47553
2.23292
2.0068
1.78318
1.55305
1.30245
1.01686
0.690926
0.321758
20.0992
19.0683
17.8586
16.5947
15.3822
14.2406
13.1592
12.131
11.156
10.235
9.36743
8.55107
7.78466
7.06817
6.40209
5.78672
5.2219
4.707
4.23992
3.81633
3.43189
3.08413
2.76636
2.4638
2.16424
1.86034
1.54043
1.19402
0.818301
0.409748
20.7488
19.7988
18.6704
17.4775
16.3196
15.2171
14.1615
13.1484
12.1794
11.2568
10.3814
9.55206
8.7678
8.02875
7.3352
6.68713
6.08401
5.5249
5.00838
4.53051
4.0856
3.67129
3.2837
2.91055
2.54137
2.17041
1.78606
1.37769
0.945924
0.489552
21.3005
20.4228
19.3701
18.2465
17.1452
16.0864
15.0631
14.0721
13.1161
12.1989
11.3221
10.4852
9.68788
8.93039
8.21313
7.53601
6.89846
6.29935
5.73718
5.20881
4.709
4.23521
3.78514
3.34796
2.91287
2.47716
2.0325
1.56558
1.07472
0.561845
21.7692
20.956
19.9728
18.9151
17.87
16.8568
15.8693
14.9051
13.9676
13.0613
12.1884
11.3491
10.5433
9.77162
9.03471
8.33253
7.66459
7.02988
6.42684
5.85269
5.30296
4.77507
4.2676
3.77156
3.27637
2.77946
2.27501
1.75123
1.20279
0.628978
22.1676
21.4114
20.4916
19.4954
18.5045
17.5368
16.5868
15.6523
14.737
13.8457
12.981
12.1435
11.3335
10.5519
9.79937
9.07615
8.3819
7.71575
7.07627
6.46121
5.86701
5.29115
4.73117
4.17901
3.62781
3.07527
2.51334
1.93217
1.32682
0.693238
22.5064
21.8007
20.938
19.9986
19.0587
18.1352
17.2228
16.3193
15.4283
14.5548
13.7018
12.8697
12.0592
11.2714
10.5072
9.76688
9.0504
8.35704
7.68555
7.03394
6.39946
5.78041
5.1733
4.57006
3.96711
3.36217
2.74508
2.10767
1.44611
0.755476
22.7943
22.1332
21.3216
20.434
19.5416
18.6601
17.7842
16.9118
16.0462
15.1924
14.3533
13.5294
12.7215
11.9308
11.1584
10.4048
9.66999
8.9535
8.25428
7.57069
6.90046
6.24182
5.59112
4.94179
4.29103
3.63593
2.96718
2.27723
1.56146
0.814715
23.0391
22.4169
21.6509
20.81
19.9611
19.1188
18.2778
17.4357
16.5956
15.7623
14.9385
14.1249
13.322
12.5313
11.7537
10.9901
10.2405
9.50456
8.78149
8.06991
7.36797
6.67354
5.9836
5.29361
4.599
3.89571
3.17802
2.43897
1.67152
0.869767
23.2473
22.6587
21.933
21.134
20.3245
19.5181
18.7096
17.8964
17.0812
16.2685
15.4608
14.6586
13.8626
13.0739
12.2938
11.523
10.7617
10.0098
9.26641
8.53057
7.80062
7.07441
6.34946
5.62268
4.88854
4.14077
3.37604
2.59019
1.77423
0.920532
23.4238
22.8643
22.1739
21.4121
20.6379
19.8642
19.0856
18.2994
17.5078
16.7151
15.9235
15.1334
14.3453
13.5604
12.7798
12.0043
11.2341
10.4691
9.70885
8.9523
8.19802
7.444
6.68759
5.92641
5.15621
4.36921
3.56157
2.73156
1.87016
0.967994
23.5726
23.038
22.3783
21.6492
20.9064
20.1619
19.4103
18.6488
17.8791
17.1053
16.3293
15.5513
14.7717
13.9917
13.2121
12.4338
11.657
10.8816
10.1073
9.33307
8.55765
7.77918
6.99519
6.20344
5.40035
4.57814
3.73216
2.86077
1.95678
1.01055
23.6985
23.1849
22.5515
21.8507
21.1353
20.4164
19.6888
18.9494
18.1997
17.4433
16.6819
15.9156
15.1447
14.3701
13.5927
12.8131
12.0316
11.2481
10.4624
9.67343
8.88012
8.08069
7.27287
6.45408
5.62088
4.76726
3.88789
2.97948
2.03647
1.04959
23.8028
23.3066
22.6955
22.0187
21.3267
20.6299
19.9231
19.2031
18.471
17.7301
16.982
16.2264
15.4637
14.6946
13.9198
13.1399
12.3551
11.5654
10.7703
9.96904
9.16055
8.34314
7.51467
6.67243
5.81291
4.93174
4.02215
3.08064
2.10354
1.08144
23.8906
23.4081
22.8153
22.1588
21.4865
20.8083
20.1192
19.4158
18.6989
17.9715
17.235
16.4892
15.7341
14.9703
14.1986
13.4192
12.6323
11.838
11.0356
10.2246
9.40375
8.57152
7.72583
6.86342
5.98185
5.07753
4.14242
3.17264
2.16564
1.11156
23.9591
23.4869
22.9084
22.268
21.6115
20.9483
20.2734
19.5834
18.8789
18.1625
17.4355
16.6976
15.9488
15.1895
14.4203
13.6415
12.8531
12.0551
11.2469
10.4279
9.59691
8.75247
7.89213
7.01309
6.11346
5.18926
4.23356
3.24174
2.21018
1.13099
24.0181
23.5527
22.9852
22.3574
21.7132
21.0617
20.398
19.7185
19.0238
18.3162
17.5968
16.8655
16.1219
15.3666
14.5998
13.8219
13.0327
12.2322
11.4199
10.595
9.7565
8.90251
8.03091
7.1397
6.22612
5.28607
4.31416
3.30519
2.25352
1.1514
24.0536
23.591
23.0299
22.4106
21.7746
21.1306
20.4741
19.8013
19.1128
18.4107
17.6962
16.9688
16.2285
15.4754
14.71
13.9323
13.1424
12.3399
11.5245
10.6956
9.85176
8.9914
8.11274
7.21357
6.29079
5.34034
4.35718
3.33586
2.27055
1.15533
24.0936
23.6277
23.07
22.4564
21.8256
21.1861
20.5337
19.8648
19.1798
18.4808
17.7687
17.0434
16.3045
15.5524
14.7873
14.0093
13.2183
12.4141
11.5962
10.7637
9.91579
9.05137
8.16877
7.26534
6.33771
5.38169
4.3921
3.36278
2.28616
1.1514
)
;

boundaryField
{
    inlet
    {
        type            zeroGradient;
    }
    outlet
    {
        type            fixedValue;
        value           uniform 0;
    }
    flap
    {
        type            zeroGradient;
    }
    upperWall
    {
        type            zeroGradient;
    }
    lowerWall
    {
        type            zeroGradient;
    }
    frontAndBack
    {
        type            empty;
    }
}


// ************************************************************************* //
