/*--------------------------------*- C++ -*----------------------------------*\
| =========                 |                                                 |
| \\      /  F ield         | OpenFOAM: The Open Source CFD Toolbox           |
|  \\    /   O peration     | Version:  dev                                   |
|   \\  /    A nd           | Web:      www.OpenFOAM.org                      |
|    \\/     M anipulation  |                                                 |
\*---------------------------------------------------------------------------*/
FoamFile
{
    version     2.0;
    format      ascii;
    class       surfaceScalarField;
    location    "4.12";
    object      meshPhi;
}
// * * * * * * * * * * * * * * * * * * * * * * * * * * * * * * * * * * * * * //

dimensions      [0 3 -1 0 0 0 0];

internalField   nonuniform List<scalar> 
865
(
-5.93809e-06
6.22672e-08
-4.10092e-06
4.43926e-08
-2.64221e-06
2.9035e-08
-1.55719e-06
1.73306e-08
-8.12142e-07
9.25546e-09
-3.53148e-07
4.27194e-09
-1.13987e-07
1.59673e-09
-2.24753e-08
4.24597e-10
6.96333e-11
-5.97271e-06
1.24658e-07
-4.12174e-06
8.87837e-08
-2.65407e-06
5.79484e-08
-1.56327e-06
3.45164e-08
-8.14799e-07
1.83909e-08
-3.54059e-07
8.46674e-09
-1.14205e-07
3.15787e-09
-2.25144e-08
8.44536e-10
1.30962e-10
-5.99901e-06
1.86743e-07
-4.13841e-06
1.32922e-07
-2.66385e-06
8.66184e-08
-1.56836e-06
5.14958e-08
-8.17034e-07
2.73752e-08
-3.54808e-07
1.257e-08
-1.14373e-07
4.67862e-09
-2.25445e-08
1.25871e-09
1.92203e-10
-6.0142e-06
2.48424e-07
-4.15005e-06
1.76837e-07
-2.67159e-06
1.15151e-07
-1.57283e-06
6.83797e-08
-8.19194e-07
3.62939e-08
-3.55626e-07
1.66346e-08
-1.14592e-07
6.18361e-09
-2.25866e-08
1.6707e-09
2.54563e-10
-6.03398e-06
3.10105e-07
-4.1666e-06
2.20954e-07
-2.68345e-06
1.43935e-07
-1.58018e-06
8.54747e-08
-8.23054e-07
4.53577e-08
-3.57258e-07
2.07832e-08
-1.15093e-07
7.72747e-09
-2.26859e-08
2.09392e-09
3.19573e-10
-6.06357e-06
3.72499e-07
-4.19171e-06
2.65994e-07
-2.70188e-06
1.73605e-07
-1.59194e-06
1.0328e-07
-8.29437e-07
5.49095e-08
-3.60066e-07
2.52142e-08
-1.15997e-07
9.39947e-09
-2.28672e-08
2.55526e-09
3.9179e-10
-6.10626e-06
4.36516e-07
-4.22764e-06
3.12885e-07
-2.72831e-06
2.04987e-07
-1.6089e-06
1.2245e-07
-8.38711e-07
6.54021e-08
-3.64169e-07
3.019e-08
-1.1732e-07
1.1319e-08
-2.31301e-08
3.09364e-09
4.78398e-10
-6.16185e-06
5.03054e-07
-4.27403e-06
3.62608e-07
-2.76231e-06
2.38993e-07
-1.63062e-06
1.4373e-07
-8.50472e-07
7.73602e-08
-3.69281e-07
3.60184e-08
-1.18923e-07
1.36281e-08
-2.34352e-08
3.75704e-09
5.88048e-10
-6.22543e-06
5.72712e-07
-4.32696e-06
4.1598e-07
-2.80089e-06
2.7647e-07
-1.65494e-06
1.67865e-07
-8.63313e-07
9.13359e-08
-3.74612e-07
4.30347e-08
-1.20471e-07
1.64852e-08
-2.36931e-08
4.60061e-09
7.31476e-10
-6.28666e-06
6.45462e-07
-4.37844e-06
4.73404e-07
-2.83818e-06
3.1804e-07
-1.67785e-06
1.95511e-07
-8.74711e-07
1.07873e-07
-3.78803e-07
5.15978e-08
-1.21406e-07
2.00708e-08
-2.37506e-08
5.68947e-09
9.20418e-10
-6.32992e-06
7.20333e-07
-4.41651e-06
5.34627e-07
-2.86549e-06
3.63943e-07
-1.69342e-06
2.2716e-07
-8.81003e-07
1.27498e-07
-3.79886e-07
6.21157e-08
-1.20895e-07
2.46175e-08
-2.33593e-08
7.11475e-09
1.17417e-09
-6.33515e-06
7.95168e-07
-4.42586e-06
5.98547e-07
-2.87168e-06
4.13905e-07
-1.69401e-06
2.63082e-07
-8.77351e-07
1.50737e-07
-3.75149e-07
7.51204e-08
-1.17693e-07
3.04924e-08
-2.20794e-08
9.04256e-09
1.53339e-09
-6.27961e-06
8.66502e-07
-4.38901e-06
6.63088e-07
-2.84378e-06
4.67041e-07
-1.67044e-06
3.03286e-07
-8.57577e-07
1.78163e-07
-3.60735e-07
9.13994e-08
-1.09701e-07
3.83711e-08
-1.89798e-08
1.1843e-08
2.10326e-09
-6.14022e-06
9.296e-07
-4.28791e-06
7.25156e-07
-2.76794e-06
5.21751e-07
-1.61217e-06
3.47426e-07
-8.13694e-07
2.10382e-07
-3.30635e-07
1.12132e-07
-9.27421e-08
4.95332e-08
-1.17265e-08
1.64042e-08
3.18776e-09
-5.89491e-06
9.79005e-07
-4.10476e-06
7.81121e-07
-2.62963e-06
5.76103e-07
-1.50698e-06
3.95107e-07
-7.34705e-07
2.48358e-07
-2.7417e-07
1.39374e-07
-5.6048e-08
6.67329e-08
9.75354e-09
2.55313e-08
6.0157e-09
4.81838e-08
-5.5678e-10
2.47804e-07
-3.50188e-09
7.86978e-07
-1.28522e-08
1.84936e-06
-3.40319e-08
3.6e-06
-7.29696e-08
6.16417e-06
-1.35501e-07
9.61023e-06
-2.26608e-07
1.39401e-05
-3.49663e-07
1.9088e-05
-5.05979e-07
-6.81637e-07
4.88206e-08
-1.09913e-09
2.51002e-07
-7.0047e-09
7.96289e-07
-2.56043e-08
1.86908e-06
-6.77105e-08
3.63453e-06
-1.45048e-07
6.21719e-06
-2.69134e-07
9.6839e-06
-4.49771e-07
1.40334e-05
-6.93498e-07
1.91905e-05
-1.00247e-06
-1.35025e-06
4.94437e-08
-1.63308e-09
2.5407e-07
-1.04208e-08
8.04978e-07
-3.79101e-08
1.88678e-06
-1.00059e-07
3.66394e-06
-2.14052e-07
6.25964e-06
-3.96721e-07
9.73896e-06
-6.62343e-07
1.40987e-05
-1.02032e-06
1.92614e-05
-1.47325e-06
-1.98406e-06
4.99114e-08
-2.14085e-09
2.56297e-07
-1.36335e-08
8.11004e-07
-4.9397e-08
1.89812e-06
-1.301e-07
3.68063e-06
-2.7787e-07
6.27981e-06
-5.14329e-07
9.75927e-06
-8.57772e-07
1.41155e-05
-1.32014e-06
1.92742e-05
-1.90441e-06
-2.56463e-06
5.03725e-08
-2.60531e-09
2.58423e-07
-1.6553e-08
8.16556e-07
-5.97966e-08
1.90786e-06
-1.57159e-07
3.69324e-06
-3.35083e-07
6.29167e-06
-6.19362e-07
9.76531e-06
-1.03181e-06
1.41107e-05
-1.58657e-06
1.92561e-05
-2.28697e-06
-3.0801e-06
5.08581e-08
-3.01575e-09
2.60599e-07
-1.9122e-08
8.21994e-07
-6.89301e-08
1.91661e-06
-1.80787e-07
3.70262e-06
-3.84758e-07
6.2963e-06
-7.10144e-07
9.75825e-06
-1.18174e-06
1.40853e-05
-1.81562e-06
1.92076e-05
-2.61537e-06
-3.52312e-06
5.14099e-08
-3.36851e-09
2.63046e-07
-2.13212e-08
8.27885e-07
-7.67269e-08
1.92543e-06
-2.00801e-07
3.71047e-06
-4.26517e-07
6.29617e-06
-7.86022e-07
9.7415e-06
-1.30657e-06
1.40435e-05
-2.00587e-06
1.9134e-05
-2.8877e-06
-3.89111e-06
5.21022e-08
-3.66595e-09
2.66144e-07
-2.31705e-08
8.35236e-07
-8.32354e-08
1.93626e-06
-2.17308e-07
3.72007e-06
-4.6059e-07
6.2963e-06
-8.47442e-07
9.72206e-06
-1.4071e-06
1.39943e-05
-2.15856e-06
1.90464e-05
-3.10575e-06
-4.18632e-06
5.30702e-08
-3.91853e-09
2.7054e-07
-2.47275e-08
8.45774e-07
-8.86277e-08
1.95251e-06
-2.30724e-07
3.73703e-06
-4.87828e-07
6.30504e-06
-8.95943e-07
9.71143e-06
-1.48582e-06
1.39527e-05
-2.27745e-06
1.8963e-05
-3.27479e-06
-4.41535e-06
5.45593e-08
-4.14013e-09
2.77336e-07
-2.60878e-08
8.6233e-07
-9.32075e-08
1.97953e-06
-2.41784e-07
3.76993e-06
-5.09697e-07
6.3347e-06
-9.34092e-07
9.72601e-06
-1.5468e-06
1.39393e-05
-2.3685e-06
1.89085e-05
-3.40298e-06
-4.58845e-06
5.70292e-08
-4.35364e-09
2.88428e-07
-2.73937e-08
8.8946e-07
-9.74391e-08
2.02544e-06
-2.51571e-07
3.83097e-06
-5.28271e-07
6.40185e-06
-9.65368e-07
9.78696e-06
-1.59538e-06
1.398e-05
-2.43938e-06
1.89136e-05
-3.50076e-06
-4.71861e-06
6.14134e-08
-4.59424e-09
3.07229e-07
-2.88683e-08
9.3457e-07
-1.02031e-07
2.10222e-06
-2.61615e-07
3.93671e-06
-5.4626e-07
6.52744e-06
-9.94053e-07
9.91955e-06
-1.63785e-06
1.41049e-05
-2.49896e-06
1.90132e-05
-3.5802e-06
-4.8207e-06
6.9874e-08
-4.93413e-09
3.4036e-07
-3.09355e-08
1.01012e-06
-1.08158e-07
2.22764e-06
-2.74132e-07
4.10906e-06
-5.67165e-07
6.73653e-06
-1.02518e-06
1.01518e-05
-1.68112e-06
1.43463e-05
-2.55671e-06
1.92462e-05
-3.65455e-06
-4.91109e-06
8.84617e-08
-5.63685e-09
4.02099e-07
-3.46289e-08
1.1381e-06
-1.18004e-07
2.42827e-06
-2.92537e-07
4.37654e-06
-5.95639e-07
7.05798e-06
-1.06462e-06
1.05128e-05
-1.73237e-06
1.47365e-05
-2.62198e-06
1.96576e-05
-3.73843e-06
-5.00834e-06
1.46242e-07
-9.67527e-09
5.36077e-07
-4.39474e-08
1.36675e-06
-1.37439e-07
2.75105e-06
-3.23851e-07
4.78257e-06
-6.39448e-07
7.53058e-06
-1.12059e-06
1.1036e-05
-1.79994e-06
1.53082e-05
-2.70354e-06
2.02561e-05
-3.8324e-06
-5.73409e-06
1.00923e-06
-3.96715e-06
8.27573e-07
-2.50358e-06
6.28423e-07
-1.38825e-06
4.46383e-07
-6.23833e-07
2.93831e-07
-1.73856e-07
1.76344e-07
3.11547e-08
9.41748e-08
8.35691e-08
4.36248e-08
1.77725e-08
6.6418e-08
-5.32064e-06
1.01387e-06
-3.62904e-06
8.59731e-07
-2.21758e-06
6.75036e-07
-1.13722e-06
4.99073e-07
-3.95318e-07
3.46133e-07
4.19169e-08
2.23811e-07
2.42208e-07
1.33865e-07
2.97925e-07
7.36157e-08
3.76312e-08
3.11081e-07
-4.70111e-06
9.85563e-07
-3.09739e-06
8.70175e-07
-1.74994e-06
7.07614e-07
-7.07614e-07
5.45692e-07
1.67131e-08
3.98921e-07
4.56286e-07
2.76904e-07
6.79013e-07
1.82522e-07
7.79653e-07
1.14353e-07
6.82475e-08
8.57131e-07
-3.8029e-06
-2.30828e-06
8.40725e-07
-1.02162e-06
7.14907e-07
-1.08982e-08
5.73017e-07
7.07048e-07
4.39135e-07
1.17268e-06
3.23605e-07
1.45595e-06
2.29095e-07
1.65414e-06
1.5588e-07
1.00743e-07
1.84827e-06
-1.1167e-06
7.50974e-08
1.05232e-06
5.5624e-07
1.78302e-06
4.48398e-07
2.30295e-06
3.43814e-07
2.68346e-06
2.53498e-07
3.02084e-06
1.78844e-07
1.16683e-07
3.365e-06
2.62545e-06
3.36914e-06
3.96243e-06
3.05857e-07
4.46512e-06
2.28954e-07
4.96285e-06
1.54704e-07
8.75903e-08
5.47022e-06
6.27125e-06
6.90343e-06
7.56499e-06
4.40516e-08
-2.09463e-08
8.2334e-06
1.09068e-05
1.17421e-05
7.03061e-08
4.35248e-09
8.31837e-08
1.98476e-09
-1.0728e-10
1.17829e-07
3.36522e-07
1.11835e-08
3.8152e-07
5.00128e-09
-8.38348e-10
4.79816e-07
9.44303e-07
2.28863e-08
1.04424e-06
1.1318e-08
-4.52351e-10
1.21592e-06
2.0311e-06
3.53974e-08
2.2043e-06
1.76977e-08
-1.90172e-09
2.45928e-06
3.66208e-06
4.00137e-08
3.91983e-06
1.5889e-08
-1.28762e-08
4.26684e-06
5.88688e-06
2.28831e-08
6.23343e-06
-7.80327e-09
-4.64684e-08
6.67863e-06
8.7642e-06
-3.3431e-08
9.19691e-06
-7.12418e-08
-1.20217e-07
9.74222e-06
1.23873e-05
1.28947e-05
-1.90614e-07
-2.52172e-07
1.35318e-05
1.73744e-05
1.81087e-05
3.36285e-07
-1.7864e-08
8.59483e-07
-6.5527e-08
1.84332e-06
-1.74176e-07
3.39322e-06
-3.76592e-07
5.59792e-06
-7.07942e-07
8.52275e-06
-1.20274e-06
1.22119e-05
-1.89223e-06
1.66925e-05
-2.80322e-06
-3.9313e-06
7.8822e-07
-3.61813e-08
1.4669e-06
-1.03133e-07
2.60919e-06
-2.33216e-07
4.31633e-06
-4.56718e-07
6.66979e-06
-8.0741e-07
9.72906e-06
-1.31739e-06
1.35385e-05
-2.01538e-06
1.81307e-05
-2.92506e-06
-4.04191e-06
1.64657e-06
-5.98669e-08
2.48273e-06
-1.55002e-07
3.7857e-06
-3.15642e-07
5.64674e-06
-5.67652e-07
8.13913e-06
-9.42737e-07
1.13175e-05
-1.47058e-06
1.52209e-05
-2.17681e-06
1.98719e-05
-3.0806e-06
-4.17302e-06
3.01107e-06
-9.36942e-08
3.99699e-06
-2.25854e-07
5.45225e-06
-4.26045e-07
7.45485e-06
-7.14512e-07
1.00698e-05
-1.12038e-06
1.33452e-05
-1.67029e-06
1.73102e-05
-2.38621e-06
2.19704e-05
-3.28258e-06
-4.34645e-06
4.94318e-06
-1.51749e-07
6.07269e-06
-3.28446e-07
7.6677e-06
-5.75916e-07
9.7959e-06
-9.07836e-07
1.25134e-05
-1.35025e-06
1.58597e-05
-1.92645e-06
1.98527e-05
-2.65492e-06
2.44834e-05
-3.54658e-06
-4.58762e-06
7.48416e-06
-2.58511e-07
8.75404e-06
-4.84858e-07
1.04775e-05
-7.84853e-07
1.27139e-05
-1.165e-06
1.55111e-05
-1.64796e-06
1.88998e-05
-2.25368e-06
2.28891e-05
-2.99748e-06
2.74607e-05
-3.88779e-06
-4.91074e-06
1.06779e-05
-4.47391e-07
1.20828e-05
-7.25761e-07
1.39227e-05
-1.08026e-06
1.62485e-05
-1.51011e-06
1.91006e-05
-2.03476e-06
2.25023e-05
-2.67098e-06
2.64553e-05
-3.43132e-06
3.09362e-05
-4.32226e-06
-5.33e-06
1.45867e-05
-7.57032e-07
1.61118e-05
-1.08825e-06
1.80522e-05
-1.49547e-06
2.04449e-05
-1.97217e-06
2.33231e-05
-2.53585e-06
2.6705e-05
-3.20038e-06
3.05865e-05
-3.97584e-06
3.49409e-05
-4.86713e-06
-5.86004e-06
1.92825e-05
2.09122e-05
-1.61724e-06
2.2933e-05
-2.06516e-06
2.53625e-05
-2.58127e-06
2.82293e-05
-3.17716e-06
3.15539e-05
-3.86425e-06
3.53233e-05
-4.65016e-06
3.95109e-05
-5.53851e-06
-6.51397e-06
2.64976e-05
2.86019e-05
3.10654e-05
3.3891e-05
-3.98039e-06
3.71082e-05
-4.68181e-06
4.07146e-05
-5.47018e-06
4.46899e-05
-6.34887e-06
-7.30073e-06
4.03025e-05
4.34164e-05
4.68284e-05
-6.44405e-06
5.05334e-05
-7.30602e-06
-8.22246e-06
5.36351e-05
5.70796e-05
-9.26838e-06
)
;

boundaryField
{
    inlet
    {
        type            calculated;
        value           nonuniform 0();
    }
    outlet
    {
        type            calculated;
        value           nonuniform 0();
    }
    flap
    {
        type            calculated;
        value           uniform 0;
    }
    upperWall
    {
        type            calculated;
        value           nonuniform 0();
    }
    lowerWall
    {
        type            calculated;
        value           uniform 0;
    }
    frontAndBack
    {
        type            empty;
        value           nonuniform 0();
    }
    procBoundary4to1
    {
        type            processor;
        value           nonuniform List<scalar> 
30
(
8.91332e-07
2.4152e-06
6.91333e-07
6.46913e-07
-1.7241e-06
4.14949e-07
3.737e-07
-5.60894e-06
1.26239e-07
9.7209e-08
-1.00831e-05
-2.43852e-07
-2.73631e-07
-1.4877e-07
-1.67898e-05
-4.32581e-07
-4.92931e-07
-1.25574e-06
-2.47597e-05
-2.36616e-06
-2.82582e-06
-3.36302e-06
-3.74883e-05
-4.94577e-06
-5.65563e-06
-5.03647e-05
-7.52997e-06
-8.38448e-06
-6.41992e-05
-1.03649e-05
)
;
    }
    procBoundary4to2
    {
        type            processor;
        value           nonuniform List<scalar> 
11
(
2.508e-05
2.70993e-05
2.95007e-05
3.23505e-05
3.5673e-05
3.94927e-05
4.38401e-05
4.87525e-05
5.42712e-05
6.04452e-05
6.723e-05
)
;
    }
    procBoundary4to3
    {
        type            processor;
        value           nonuniform List<scalar> 
19
(
8.05758e-06
8.09943e-06
8.13092e-06
8.14763e-06
8.16774e-06
8.19728e-06
8.23993e-06
8.29517e-06
8.35679e-06
8.41202e-06
8.44163e-06
8.4211e-06
8.32277e-06
8.11873e-06
7.7824e-06
7.5675e-06
7.03405e-06
6.25281e-06
5.13525e-06
)
;
    }
    procBoundary4to5
    {
        type            processor;
        value           nonuniform List<scalar> 
18
(
2.4572e-05
2.4705e-05
2.47933e-05
2.48033e-05
2.47723e-05
2.47023e-05
2.45995e-05
2.44766e-05
2.4354e-05
2.42587e-05
2.42237e-05
2.42853e-05
2.44818e-05
2.48536e-05
2.53936e-05
-5.10131e-06
2.18224e-05
2.33362e-05
)
;
    }
}


// ************************************************************************* //
