/*--------------------------------*- C++ -*----------------------------------*\
| =========                 |                                                 |
| \\      /  F ield         | OpenFOAM: The Open Source CFD Toolbox           |
|  \\    /   O peration     | Version:  dev                                   |
|   \\  /    A nd           | Web:      www.OpenFOAM.org                      |
|    \\/     M anipulation  |                                                 |
\*---------------------------------------------------------------------------*/
FoamFile
{
    version     2.0;
    format      ascii;
    class       surfaceVectorField;
    location    "0.81";
    object      Uf;
}
// * * * * * * * * * * * * * * * * * * * * * * * * * * * * * * * * * * * * * //

dimensions      [0 1 -1 0 0 0 0];

internalField   nonuniform List<vector> 
865
(
(3.82339 -5.72101e-20 0.282918)
(4.5545 0 0.461754)
(3.27818 1.83827e-19 0.307798)
(4.02617 -1.91239e-21 0.497714)
(2.71704 -1.30849e-20 0.332378)
(3.47656 -5.71723e-19 0.531455)
(2.14654 -2.40074e-19 0.355457)
(2.91059 1.66212e-18 0.5608)
(1.57533 0 0.374827)
(2.33492 5.47836e-21 0.582779)
(1.01457 1.05813e-18 0.382154)
(1.75798 -1.007e-18 0.592876)
(0.480027 -4.21732e-21 0.312056)
(1.18819 3.10178e-18 0.579128)
(0.0435819 1.32937e-18 0.0300757)
(0.58391 -3.07153e-18 0.460879)
(0.328439 1.10535e-18 0.0613744)
(4.74254 5.60038e-20 0.712838)
(5.23215 0 0.91023)
(4.20831 -7.64468e-19 0.766105)
(4.73082 -5.27211e-20 0.98555)
(3.65279 1.13004e-18 0.814698)
(4.20407 -8.08053e-19 1.05718)
(3.08144 1.891e-18 0.854655)
(3.65495 3.53748e-18 1.12064)
(2.50184 -1.0066e-18 0.879601)
(3.08751 1.66759e-20 1.16942)
(1.92473 1.05282e-18 0.876196)
(2.50635 -2.96034e-18 1.19245)
(1.36396 1.24471e-20 0.810329)
(1.91498 6.27993e-18 1.16587)
(0.792705 -3.08905e-18 0.669517)
(1.27676 -9.73565e-18 1.04076)
(0.812413 4.80146e-18 0.800697)
(5.20814 -1.09412e-19 1.1708)
(5.58214 -8.19447e-19 1.32138)
(4.71342 -1.06867e-19 1.26352)
(5.11921 8.41184e-19 1.43586)
(4.19277 1.65188e-18 1.34933)
(4.62845 1.08252e-19 1.54667)
(3.64833 1.63305e-18 1.42159)
(4.10991 1.85929e-18 1.64754)
(3.08222 -1.95059e-18 1.47048)
(3.56318 1.11748e-20 1.72946)
(2.49419 2.27623e-18 1.47998)
(2.98582 2.10474e-18 1.77909)
(1.87245 -3.36142e-18 1.42415)
(2.37267 3.73609e-18 1.77576)
(1.17344 -1.54718e-18 1.30862)
(1.68472 -7.7149e-18 1.69484)
(1.04305 8.0807e-19 1.5669)
(5.48285 1.51165e-19 1.58462)
(5.7975 -9.19352e-19 1.70077)
(5.02341 1.0478e-18 1.71668)
(5.36544 9.49053e-19 1.85262)
(4.53488 3.36866e-19 1.84213)
(4.90431 -1.82242e-18 2.00232)
(4.0154 2.25317e-19 1.95262)
(4.41115 2.1383e-19 2.14267)
(3.46099 4.05133e-18 2.03647)
(3.88149 5.42461e-18 2.26338)
(2.86283 3.58695e-18 2.07735)
(3.30733 -3.56364e-18 2.35016)
(2.20274 -5.80604e-19 2.05129)
(2.67843 7.3465e-18 2.38339)
(1.46742 -5.12611e-18 1.9646)
(1.97155 -7.73089e-18 2.33365)
(1.2341 -6.43941e-19 2.24789)
(5.67145 -9.83566e-20 1.96957)
(5.95632 1.30296e-20 2.0576)
(5.23759 -1.95045e-18 2.13907)
(5.54606 1.42748e-20 2.24509)
(4.77224 -1.9308e-18 2.30385)
(5.10568 -5.25435e-18 2.4331)
(4.27024 5.42946e-18 2.45472)
(4.62989 3.39942e-18 2.61407)
(3.72367 -2.16322e-18 2.57853)
(4.1113 7.17588e-18 2.77671)
(3.1204 1.43972e-19 2.65724)
(3.53885 -1.11104e-17 2.9045)
(2.44358 3.36236e-19 2.66256)
(2.89917 1.12637e-17 2.97462)
(1.70158 -3.015e-18 2.59039)
(2.1911 -1.07817e-17 2.94098)
(1.39992 4.28208e-18 2.85358)
(5.82375 1.27584e-19 2.33539)
(6.09485 1.62664e-18 2.39894)
(5.40717 -3.33622e-18 2.54144)
(5.69973 1.42929e-20 2.62119)
(4.95692 1.28022e-19 2.74571)
(5.27308 -3.37606e-18 2.84742)
(4.4655 5.16949e-18 2.93844)
(4.80798 6.77524e-18 3.06988)
(3.92269 -1.77373e-18 3.10459)
(4.29492 -1.58222e-18 3.2761)
(3.31552 -6.93145e-20 3.22223)
(3.72141 -3.48619e-18 3.44622)
(2.62894 3.24791e-19 3.25509)
(3.07064 6.9866e-18 3.55234)
(1.87838 -3.06929e-18 3.18459)
(2.36133 -3.87862e-18 3.53103)
(1.53871 -3.77117e-18 3.42235)
(5.96489 1.50145e-18 2.68805)
(6.23088 1.51704e-18 2.72904)
(5.56011 -5.04762e-20 2.93065)
(5.84708 -1.18055e-20 2.9861)
(5.11928 3.32984e-18 3.17518)
(5.42989 -1.56386e-18 3.25124)
(4.63328 6.02685e-21 3.41122)
(4.97117 4.87838e-18 3.51659)
(4.09007 -3.28996e-18 3.62152)
(4.45945 -6.61444e-18 3.7684)
(3.47615 3.54658e-18 3.77928)
(3.88143 3.3005e-18 3.98328)
(2.77729 2.85859e-18 3.83957)
(3.21619 3.70646e-18 4.1283)
(2.0069 -4.58208e-18 3.76853)
(2.49601 -4.4348e-19 4.12652)
(1.65204 -3.8412e-18 3.99517)
(6.10824 -1.19127e-20 3.03097)
(6.37392 2.22992e-20 3.04988)
(5.71259 -1.53656e-18 3.31089)
(6.00016 -2.99182e-22 3.34245)
(5.27817 9.3259e-21 3.59723)
(5.59089 -1.42497e-18 3.64791)
(4.79448 -1.76828e-18 3.87893)
(5.13682 4.61437e-18 3.95854)
(4.2476 -1.09774e-20 4.13664)
(4.62436 -6.58523e-18 4.25961)
(3.62283 3.45003e-18 4.33906)
(4.03935 -1.4039e-19 4.52482)
(2.90576 4.30102e-19 4.43372)
(3.35603 -2.11051e-19 4.71699)
(2.1038 2.13949e-19 4.37201)
(2.61303 2.09172e-19 4.75087)
(1.74824 3.64351e-18 4.61286)
(6.26198 3.38277e-20 3.3654)
(6.53003 -1.48134e-18 3.36163)
(5.87527 1.05465e-19 3.68397)
(6.16726 9.08438e-20 3.69069)
(5.44694 3.21034e-18 4.01449)
(5.76701 -9.54099e-20 4.03834)
(4.96494 -2.32038e-19 4.3457)
(5.31859 4.40009e-18 4.39761)
(4.41327 -6.71794e-18 4.65679)
(4.80634 -3.08174e-19 4.7537)
(3.77491 -3.79344e-18 4.91309)
(4.21448 -6.47911e-18 5.07867)
(3.03404 -4.54447e-19 5.05655)
(3.51111 -3.40492e-18 5.33205)
(2.1911 3.65633e-18 5.02421)
(2.73425 3.31351e-18 5.42458)
(1.83978 2.1122e-18 5.30686)
(6.43223 -1.41786e-18 3.69079)
(6.70376 -7.47557e-20 3.66285)
(6.05659 -1.11909e-19 4.0495)
(6.35511 -1.54498e-18 4.0292)
(5.6368 1.10842e-18 4.42699)
(5.96755 -2.75072e-19 4.42097)
(5.15906 4.32324e-18 4.81289)
(5.52903 1.47345e-18 4.83277)
(4.60495 -9.75708e-20 5.18641)
(5.02194 3.21387e-18 5.25132)
(3.95335 -6.06128e-18 5.51098)
(4.42743 -4.1969e-18 5.64929)
(3.1846 4.4759e-19 5.72489)
(3.70536 -1.4649e-18 5.98436)
(2.29046 1.64741e-18 5.74962)
(2.8847 4.95244e-18 6.16579)
(1.94093 -3.48525e-18 6.1027)
(6.62401 -2.08349e-19 4.00468)
(6.89858 1.44667e-18 3.95046)
(6.26401 -1.70517e-18 4.40467)
(6.56915 -2.78735e-18 4.35423)
(5.85828 9.5581e-20 4.83194)
(6.20072 8.40672e-20 4.79141)
(5.39143 3.62225e-19 5.27853)
(5.78026 1.7982e-19 5.2593)
(4.84194 -9.45231e-19 5.72605)
(5.28833 1.83401e-19 5.74843)
(4.18242 4.65988e-19 6.13884)
(4.7014 -1.29759e-18 6.23559)
(3.38442 3.15282e-18 6.4538)
(3.96869 1.53785e-18 6.68041)
(2.42409 -3.31019e-19 6.57458)
(3.09822 1.62114e-18 6.99413)
(2.07312 -3.56638e-18 7.04163)
(6.84113 -1.15878e-18 4.30276)
(7.11673 1.26575e-18 4.22002)
(6.50363 -9.79945e-19 4.74414)
(6.81315 -1.16067e-18 4.65984)
(6.12098 1.68791e-19 5.223)
(6.47297 1.70361e-19 5.14201)
(5.6765 0 5.73573)
(6.08302 0 5.66777)
(5.1452 -1.82275e-19 6.2698)
(5.62256 -1.32368e-18 6.23425)
(4.49148 -1.77077e-19 6.7959)
(5.06293 1.33967e-18 6.82756)
(3.67104 0 7.25557)
(4.34143 0 7.4176)
(2.63017 -1.67256e-18 7.5367)
(3.43061 -8.75123e-20 7.92818)
(2.27857 -1.64048e-18 8.19268)
(7.0857 1.2548e-18 4.57902)
(7.35876 1.26568e-18 4.46593)
(6.77946 0 5.05969)
(7.08869 2.47074e-18 4.93827)
(6.43219 0 5.58934)
(6.78785 -1.24866e-18 5.46189)
(6.02696 -1.34037e-18 6.1707)
(6.44453 0 6.04321)
(5.53651 2.35609e-19 6.80143)
(6.03898 -1.33009e-18 6.68857)
(4.91706 1.49633e-18 7.46778)
(5.54059 1.36369e-18 7.39985)
(4.10194 -8.98439e-20 8.13178)
(4.87834 1.12375e-18 8.17211)
(2.98549 -8.58436e-20 8.68773)
(3.97964 -1.34026e-18 8.96947)
(2.64666 0 9.65663)
(7.35779 2.49174e-18 4.82618)
(7.62337 5.93717e-19 4.68207)
(7.09257 1.19887e-18 5.34104)
(7.39455 2.48087e-18 5.18077)
(6.79499 -1.24043e-18 5.91604)
(7.14441 -6.5522e-19 5.73808)
(6.45067 0 6.56153)
(6.86534 -1.35401e-18 6.36567)
(6.03465 -1.65623e-19 7.28938)
(6.54351 4.60301e-19 7.07984)
(5.50129 9.8624e-19 8.1132)
(6.15634 -1.63517e-19 7.90307)
(4.76473 -2.02811e-19 9.04862)
(5.64434 7.02402e-19 8.87379)
(3.64436 -1.23283e-18 10.096)
(4.92422 -1.21015e-18 10.0568)
(3.37154 -5.03621e-19 11.6042)
(7.65486 5.90237e-19 5.03699)
(7.90966 6.03151e-20 4.86319)
(7.43971 6.04841e-19 5.57726)
(7.72883 -5.46304e-19 5.37946)
(7.20576 -7.72747e-19 6.18575)
(7.53927 1.02925e-18 5.95805)
(6.94544 -8.7886e-19 6.87928)
(7.34004 -1.24322e-18 6.61365)
(6.64492 4.54312e-19 7.68348)
(7.12929 1.28134e-18 7.36864)
(6.2758 -4.34894e-19 8.64347)
(6.90826 -5.46285e-19 8.26033)
(5.7727 -3.95552e-19 9.86201)
(6.6781 -1.90557e-19 9.36669)
(4.9446 -2.88453e-19 11.8287)
(6.64006 -2.0896e-19 10.8984)
(6.04782 -6.27491e-19 14.375)
(0.0410971 2.50657e-20 0.0943404)
(0.157645 8.06756e-19 -0.0231472)
(-0.435497 -1.51005e-19 0.288798)
(-0.297163 -7.79455e-19 0.343022)
(-1.10165 3.10052e-20 0.316789)
(-0.982192 -2.05817e-19 0.437347)
(-1.86473 2.19808e-19 0.320991)
(-1.75187 9.55086e-20 0.489452)
(-2.67847 0 0.319225)
(-2.58692 0 0.523448)
(-3.51246 3.22257e-20 0.312616)
(-3.45019 -3.62881e-19 0.543028)
(-4.34613 -3.52115e-20 0.301216)
(-4.3171 4.17402e-19 0.550092)
(-5.1653 -6.62943e-20 0.285525)
(-5.17138 -2.45238e-19 0.546557)
(-5.95965 -2.40165e-20 0.266194)
(-6.00186 6.70765e-20 0.534156)
(-6.80021 5.28982e-20 0.514214)
(-0.366772 9.51666e-20 0.374747)
(-0.13592 7.85017e-19 0.298966)
(-0.888714 -8.54854e-19 0.616357)
(-0.613598 -1.57657e-18 0.74888)
(-1.62547 -1.49466e-19 0.722269)
(-1.34434 1.48995e-20 0.945456)
(-2.46558 -1.28547e-19 0.783433)
(-2.16921 1.29535e-18 1.04831)
(-3.34986 -3.63631e-19 0.820183)
(-3.05117 -1.17896e-18 1.10775)
(-4.245 2.70209e-20 0.838281)
(-3.95096 1.65822e-19 1.1373)
(-5.13124 2.09049e-19 0.840736)
(-4.84588 -6.87941e-20 1.14301)
(-5.9958 -1.10702e-19 0.829996)
(-5.72188 1.33892e-19 1.12901)
(-6.82965 1.46873e-19 0.808061)
(-6.56974 6.63741e-20 1.09862)
(-7.38256 -6.02785e-21 1.05417)
(-0.42886 -7.74941e-19 0.801929)
(-0.126846 -2.15471e-21 0.81794)
(-1.08454 -7.57956e-19 1.12635)
(-0.695807 -7.69709e-19 1.2949)
(-1.87862 1.4555e-18 1.28739)
(-1.48593 -1.35675e-18 1.53051)
(-2.74701 2.57303e-19 1.3778)
(-2.34014 2.70722e-18 1.65854)
(-3.64429 -6.5031e-19 1.42534)
(-3.22895 -1.26602e-18 1.72739)
(-4.54273 7.59288e-20 1.44092)
(-4.12269 6.79988e-19 1.75502)
(-5.42611 -1.43281e-19 1.43045)
(-5.00459 -3.26802e-19 1.75059)
(-6.28439 3.14412e-19 1.39818)
(-5.86456 3.15124e-19 1.72005)
(-7.11054 -8.46119e-20 1.34734)
(-6.69599 -1.55564e-19 1.66779)
(-7.49365 1.24945e-19 1.59678)
(-0.338773 2.68293e-20 1.37841)
(-0.00806465 2.60749e-20 1.49701)
(-1.09778 -1.38043e-18 1.73928)
(-0.617462 0 1.95737)
(-1.93863 -1.50512e-19 1.91675)
(-1.46784 -2.78514e-18 2.18615)
(-2.81457 1.20468e-18 2.01249)
(-2.33413 2.70208e-18 2.30867)
(-3.6991 6.603e-20 2.05585)
(-3.2092 -6.7333e-19 2.36794)
(-4.57516 2.78373e-19 2.06048)
(-4.07613 5.89106e-19 2.38167)
(-5.43248 1.33381e-19 2.0342)
(-4.92603 1.33118e-19 2.3597)
(-6.26472 -1.53624e-19 1.98235)
(-5.75335 0 2.30859)
(-7.067 5.26429e-20 1.90869)
(-6.55435 -5.2361e-20 2.23276)
(-7.32523 4.48273e-19 2.13512)
(-0.156623 0 2.08157)
(0.171633 -1.63344e-18 2.30594)
(-0.988561 -1.36811e-18 2.4304)
(-0.439484 1.48197e-18 2.70425)
(-1.85497 2.19506e-20 2.5879)
(-1.33558 -1.30198e-18 2.89075)
(-2.72129 8.44932e-19 2.66682)
(-2.19335 1.43048e-18 2.98269)
(-3.57753 -1.55332e-19 2.69217)
(-3.0387 -4.49444e-19 3.01602)
(-4.41721 4.46712e-19 2.67717)
(-3.86514 5.85716e-19 3.00589)
(-5.23611 0 2.62961)
(-4.67129 0 2.96095)
(-6.03147 1.01163e-19 2.55464)
(-5.45558 4.16633e-19 2.88691)
(-6.80049 3.40502e-19 2.45542)
(-6.21664 -3.06743e-19 2.78721)
(-6.95214 1.55948e-19 2.66383)
(0.0715243 -2.05906e-20 2.88159)
(0.378147 -3.1803e-18 3.19988)
(-0.799612 1.58472e-18 3.17424)
(-0.208326 4.34349e-18 3.49727)
(-1.66494 8.60461e-20 3.28346)
(-1.12467 -1.29076e-18 3.61551)
(-2.50297 1.46823e-19 3.32772)
(-1.94888 7.75589e-20 3.65942)
(-3.31701 2.8801e-19 3.32399)
(-2.74835 -1.45821e-19 3.65573)
(-4.10895 1.41002e-19 3.28328)
(-3.52193 1.40183e-19 3.61547)
(-4.87964 4.14334e-19 3.21171)
(-4.27413 0 3.54469)
(-5.62901 9.63694e-21 3.11311)
(-5.00657 4.17679e-19 3.44695)
(-6.35604 -4.94645e-19 2.98961)
(-5.71937 -3.20686e-19 3.32408)
(-6.41149 -8.32485e-20 3.17678)
(0.305129 1.41201e-18 3.73388)
(0.583931 -8.36492e-20 4.11629)
(-0.563825 1.57446e-18 3.93524)
(0.0402601 1.13132e-19 4.29092)
(-1.39709 -1.31214e-18 3.9782)
(-0.861559 1.15082e-18 4.32733)
(-2.18607 -2.12111e-19 3.97666)
(-1.62406 -1.92946e-18 4.31447)
(-2.94341 -2.95269e-19 3.93732)
(-2.36056 -1.10382e-19 4.26911)
(-3.67638 0 3.86793)
(-3.06884 9.06148e-19 4.19691)
(-4.38958 0 3.77177)
(-3.75721 -3.72123e-19 4.10045)
(-5.08489 8.82474e-20 3.65036)
(-4.42947 0 3.98029)
(-5.76239 8.97002e-20 3.50424)
(-5.08681 -1.62008e-19 3.8362)
(-5.72878 2.86829e-19 3.66759)
(0.515017 -1.36193e-18 4.57969)
(0.769785 1.52123e-18 4.98315)
(-0.304135 -3.34725e-19 4.67152)
(0.282858 -1.50169e-18 5.0362)
(-1.07217 5.48583e-19 4.64234)
(-0.563491 1.25384e-18 4.99144)
(-1.79 -1.84497e-18 4.59178)
(-1.23564 -1.93245e-18 4.92252)
(-2.47552 1.08408e-18 4.51605)
(-1.89178 7.10699e-19 4.83768)
(-3.13845 5.42946e-19 4.41876)
(-2.52231 5.79398e-19 4.73646)
(-3.78524 -3.7585e-19 4.29984)
(-3.13761 -1.75539e-19 4.61749)
(-4.41902 -2.47834e-19 4.15818)
(-3.74211 -7.74723e-19 4.47839)
(-5.04051 3.42898e-20 3.99241)
(-4.33755 1.8384e-19 4.31669)
(-4.92369 4.07266e-19 4.13033)
(0.688837 1.27172e-18 5.35628)
(0.926871 -1.37314e-18 5.73704)
(-0.0334228 8.00527e-20 5.34057)
(0.509717 1.3094e-18 5.68777)
(-0.70394 -1.22216e-18 5.24549)
(-0.239293 -6.51586e-19 5.57471)
(-1.32866 6.01937e-19 5.15095)
(-0.794545 -1.071e-18 5.45934)
(-1.92722 2.04089e-19 5.04399)
(-1.35399 1.07805e-18 5.34372)
(-2.50964 -1.36507e-19 4.92375)
(-1.89483 -3.92804e-19 5.22108)
(-3.08219 -5.70972e-19 4.7865)
(-2.42895 2.57992e-19 5.08591)
(-3.64797 -3.48417e-19 4.62881)
(-2.95951 -7.75492e-19 4.93327)
(-4.20779 5.57629e-19 4.4476)
(-3.48786 3.53039e-19 4.75895)
(-4.0135 2.30605e-19 4.5595)
(0.829058 -1.41886e-18 6.00907)
(1.05551 -7.60871e-19 6.33086)
(0.244717 6.74426e-19 5.90484)
(0.722726 2.17485e-20 6.2079)
(-0.299448 -5.17703e-19 5.76016)
(0.109271 5.9743e-19 6.04825)
(-0.811192 -6.11978e-19 5.63408)
(-0.30632 -1.216e-18 5.9037)
(-1.30898 4.92166e-19 5.50648)
(-0.755434 5.47962e-19 5.77162)
(-1.80156 -5.28381e-21 5.37203)
(-1.19632 -1.19097e-19 5.63934)
(-2.29346 5.83098e-20 5.22353)
(-1.64267 1.11307e-19 5.4972)
(-2.78642 -7.95922e-20 5.05568)
(-2.09477 -4.32048e-20 5.33831)
(-3.28044 2.80172e-20 4.86419)
(-2.55252 -8.04981e-20 5.15746)
(-3.01455 6.47992e-20 4.95033)
(0.945755 6.58995e-19 6.49595)
(1.16247 1.27949e-18 6.72754)
(0.533982 -5.67279e-20 6.33378)
(0.931057 7.84199e-22 6.56587)
(0.140564 -1.06586e-19 6.16375)
(0.4856 4.97617e-19 6.38859)
(-0.24202 -6.95487e-20 6.0247)
(0.228676 -5.96472e-19 6.23882)
(-0.62828 -5.67674e-20 5.89143)
(-0.10082 0 6.10929)
(-1.02397 -5.60458e-21 5.75465)
(-0.434594 1.46991e-21 5.98238)
(-1.43061 1.07904e-20 5.60412)
(-0.789113 2.40641e-19 5.84468)
(-1.84753 -4.37122e-20 5.43352)
(-1.16001 1.64277e-20 5.68835)
(-2.27328 -4.52852e-20 5.23791)
(-1.54519 -1.8743e-19 5.50812)
(-1.94198 -1.03076e-19 5.29931)
(1.05213 6.48565e-19 6.78543)
(1.25921 6.17164e-19 6.89458)
(0.842691 5.52663e-19 6.60358)
(1.14683 1.71366e-22 6.73599)
(0.620653 -2.07722e-20 6.43884)
(0.89894 5.35375e-19 6.57653)
(0.378761 -5.33452e-19 6.31086)
(0.811884 -4.93643e-19 6.45291)
(0.109914 5.75853e-20 6.19035)
(0.607848 -2.39799e-19 6.3495)
(-0.185394 2.44474e-19 6.06504)
(0.384399 2.934e-19 6.24479)
(-0.504707 2.45181e-19 5.92308)
(0.123452 1.87806e-19 6.12422)
(-0.844016 -1.28484e-19 5.75822)
(-0.166726 1.68494e-19 5.97984)
(-1.20035 -2.45532e-19 5.56547)
(-0.47927 -4.20552e-19 5.80798)
(-0.810442 3.54299e-20 5.60392)
(1.16705 -1.85778e-20 6.85275)
(1.36459 -6.36588e-19 6.81625)
(1.184 -1.871e-20 6.69588)
(1.39082 5.72017e-19 6.6977)
(1.147 3.43964e-20 6.57449)
(1.36509 3.629e-20 6.59948)
(1.05093 -2.02654e-19 6.48686)
(1.44158 3.44281e-20 6.54)
(0.901376 -3.90892e-21 6.4003)
(1.36535 -2.70651e-19 6.48848)
(0.707739 2.38018e-19 6.30204)
(1.24879 1.8076e-19 6.42304)
(0.475393 1.08111e-19 6.17979)
(1.08061 -2.23341e-19 6.33376)
(0.211866 -1.23066e-19 6.02826)
(0.871437 4.27046e-19 6.2121)
(-0.0758145 -1.42059e-19 5.8446)
(0.631321 -4.07037e-19 6.05574)
(0.366154 1.5719e-19 5.86241)
(1.32069 -2.68836e-19 6.68084)
(1.51377 -6.3153e-19 6.48108)
(1.584 6.28716e-19 6.6009)
(1.69815 3.35125e-19 6.43116)
(1.72561 3.67323e-20 6.56714)
(1.90107 5.21603e-20 6.4618)
(1.76614 -3.04784e-20 6.54945)
(2.11783 3.13938e-19 6.50593)
(1.73009 -8.51178e-20 6.51685)
(2.16326 2.96184e-20 6.52854)
(1.63431 -2.75984e-19 6.45967)
(2.14427 2.00543e-19 6.51771)
(1.48916 9.04023e-20 6.36983)
(2.06379 -4.61273e-19 6.47072)
(1.3034 1.47394e-19 6.24243)
(1.93433 4.01793e-19 6.3814)
(1.08573 -1.11464e-19 6.07579)
(1.76581 -8.93715e-20 6.2484)
(1.56651 1.24453e-20 6.07183)
(1.5591 -2.48926e-19 6.24787)
(0.920978 0 5.77677)
(2.07957 -2.11175e-19 6.32101)
(1.99677 -2.52533e-19 5.9121)
(2.36307 3.50932e-19 6.42908)
(2.50008 -1.21357e-19 6.19161)
(2.5223 3.78343e-19 6.50524)
(2.8369 2.83389e-19 6.36184)
(2.58978 3.15184e-19 6.54315)
(2.99441 1.5541e-19 6.47476)
(2.58332 2.29382e-20 6.5395)
(3.06529 2.61408e-19 6.53354)
(2.51835 -1.56239e-19 6.49082)
(3.06573 -2.41817e-19 6.53884)
(2.40628 1.68767e-19 6.3945)
(3.01073 1.49985e-19 6.48919)
(2.25655 3.27769e-20 6.25071)
(2.91159 2.34145e-20 6.38595)
(7.98327 -1.11607e-18 5.20912)
(8.22247 -5.65708e-19 5.00865)
(7.82675 -1.25234e-19 5.76285)
(8.09521 -1.21618e-18 5.53161)
(7.669 5.65475e-19 6.38668)
(7.9733 5.7371e-19 6.11518)
(7.51324 9.77198e-19 7.09896)
(7.86313 4.14317e-19 6.77258)
(7.3669 2.6411e-19 7.92844)
(7.77647 1.21751e-18 7.52231)
(7.2489 -2.93048e-19 8.92481)
(7.74052 -8.20923e-19 8.39134)
(7.22401 9.21138e-20 10.1638)
(7.79244 2.53254e-19 9.4153)
(7.70162 -3.73924e-19 12.0965)
(8.3069 -2.59346e-19 10.4893)
(8.76535 -1.21939e-19 11.2542)
(11.3269 1.93026e-18 12.196)
(8.331 -6.66255e-19 5.33438)
(8.54781 0 5.11203)
(8.23607 -5.10928e-19 5.88682)
(8.4744 -7.89174e-19 5.62983)
(8.15722 4.13469e-19 6.50316)
(8.41837 3.96718e-19 6.20112)
(8.10728 6.57875e-19 7.19592)
(8.39026 2.76779e-19 6.83343)
(8.11172 1.24386e-19 7.97987)
(8.407 5.10915e-19 7.53287)
(8.22626 -2.55285e-19 8.86926)
(8.49962 -3.84287e-19 8.29666)
(8.5627 0 9.83686)
(8.67431 1.12642e-19 9.10267)
(9.16821 0 10.7808)
(9.11347 0 9.89725)
(9.58098 1.93109e-19 10.7832)
(9.6409 3.16467e-19 10.0431)
(8.6878 -1.24138e-19 5.41103)
(8.87857 -1.17711e-19 5.172)
(8.65132 1.34533e-19 5.9485)
(8.85547 -2.42051e-19 5.67448)
(8.64277 2.51212e-19 6.53788)
(8.85756 3.74743e-19 6.22052)
(8.67671 1.22331e-19 7.18302)
(8.89524 -1.1914e-19 6.8122)
(8.7743 -4.79396e-21 7.88223)
(8.98196 1.22037e-19 7.44821)
(8.95984 -4.61812e-21 8.62112)
(9.13841 -1.24244e-19 8.12076)
(9.24568 1.11954e-19 9.36165)
(9.35538 7.08563e-21 8.81693)
(9.58757 1.99559e-19 10.0246)
(9.70159 0 9.54076)
(10.1773 1.98085e-19 10.2758)
(10.0714 -1.88734e-19 10.0407)
(9.04369 -2.38383e-19 5.44017)
(9.05822 2.38117e-21 5.95297)
(9.22867 -5.56356e-21 5.67036)
(9.10565 -4.51075e-21 6.50488)
(9.27905 2.32022e-19 6.18431)
(9.19685 -1.18809e-19 7.09437)
(9.36689 -2.29484e-19 6.73129)
(9.34361 0 7.71478)
(9.50146 5.06242e-20 7.30811)
(9.55501 -1.13638e-19 8.35167)
(9.69622 -5.5152e-20 7.90853)
(9.83882 -1.09759e-19 8.99282)
(9.94875 -1.10795e-19 8.52002)
(10.2164 0 9.61932)
(10.285 2.95281e-19 9.13252)
(10.7654 -1.4903e-19 9.69565)
(10.7438 -1.10291e-19 9.96068)
(9.4482 2.29762e-19 5.9087)
(9.53939 1.48625e-21 6.41995)
(9.67245 -5.51606e-20 6.95631)
(9.80382 1.04624e-19 6.60412)
(9.85569 -6.00787e-21 7.51177)
(9.97396 5.18261e-20 7.12461)
(10.0974 -5.25421e-20 8.07607)
(10.1966 -1.58884e-19 7.6569)
(10.4062 3.06498e-19 8.64061)
(10.4736 9.59232e-20 8.18742)
(10.7912 1.44877e-19 9.18936)
(10.8081 -3.45193e-20 8.70459)
(11.256 -7.23067e-21 9.1882)
(11.2376 -4.58291e-20 9.55476)
(10.1079 2.14154e-19 6.78006)
(10.3183 -1.05239e-19 7.27659)
(10.5791 -5.86799e-21 7.77437)
(10.6416 -1.0327e-19 7.37739)
(10.8919 -2.54719e-19 8.26311)
(10.9283 9.57292e-20 7.84148)
(11.2546 -1.9128e-19 8.72982)
(11.2558 -2.10821e-19 8.29101)
(11.6747 -3.70236e-20 8.71781)
(11.6575 9.57684e-20 9.07005)
(10.999 1.90692e-21 7.45347)
(11.3084 1.37951e-19 7.87945)
(11.6564 -5.19242e-20 8.28548)
(11.6446 9.24781e-20 7.88459)
(12.0443 2.25376e-20 8.25846)
(12.0405 2.76342e-19 8.59603)
(12.0112 1.73028e-19 7.85565)
(12.3788 -2.4044e-19 8.1328)
(6.37435 7.23858e-19 9.98424)
(9.44464 5.65984e-19 8.96347)
(2.98176 -1.57711e-19 7.3575)
(7.35747 -2.49942e-19 6.6065)
(4.06681 -2.57051e-19 4.81349)
(0.680132 -1.05536e-19 5.7555)
(9.04496 9.01339e-20 8.56002)
(9.88111 1.02118e-19 10.2466)
(7.96101 -1.08045e-19 6.94686)
(9.42253 -1.75205e-19 8.92253)
(8.4295 2.17988e-19 7.63439)
(6.61793 -5.61955e-21 5.85702)
(10.1529 -2.30256e-19 9.54092)
(10.4771 -3.2805e-19 10.0853)
(9.85262 1.58739e-19 8.76332)
(10.5063 0 9.5937)
(10.2327 1.59623e-19 8.95833)
(9.2521 9.7879e-20 7.93169)
(10.8838 -8.15701e-20 9.88452)
(11.0504 -4.60475e-20 9.76879)
(10.8473 0 9.60256)
(11.2033 0 9.67952)
(11.1942 0 9.45352)
(10.6316 0 9.1094)
(11.4135 3.93749e-20 9.61986)
(11.5161 4.00311e-20 9.35889)
(11.5172 0 9.5921)
(11.7177 -2.68708e-19 9.43729)
(11.8355 1.21082e-20 9.42653)
(11.5297 0 9.39088)
(11.8514 -2.73044e-19 9.18875)
(11.9196 2.93515e-19 8.89572)
(12.02 -2.61149e-19 9.28017)
(12.1386 -6.04713e-19 9.03211)
(12.3082 -4.85057e-21 9.12148)
(12.1474 1.20667e-19 9.2638)
(12.2338 -4.10548e-20 8.72724)
(12.2779 2.15396e-20 8.4227)
(12.4217 -3.50127e-19 8.86062)
(12.4967 -3.19707e-19 8.56933)
(12.6788 -2.66271e-19 8.69355)
(12.5955 -2.34181e-20 8.94085)
(12.5651 -2.64011e-19 8.25695)
(12.7536 -2.34366e-19 8.39414)
(12.8018 2.88059e-19 8.09432)
(12.9815 -2.46497e-19 8.22124)
(12.9407 -2.38832e-19 8.51405)
(13.0317 2.81528e-19 7.91574)
(13.2175 -8.54763e-20 8.04399)
(1.81862 1.05951e-20 5.26243)
(2.65664 -1.15137e-19 4.49156)
(2.55159 -1.28307e-19 5.76654)
(3.26924 2.13565e-20 5.14463)
(3.03153 -1.76278e-19 6.12382)
(3.50274 -1.76342e-19 5.70756)
(3.32642 5.407e-20 6.34481)
(3.73191 1.32295e-20 6.07617)
(3.4948 9.5229e-20 6.47996)
(3.91313 1.49298e-19 6.32069)
(3.57278 0 6.54576)
(4.04018 -5.27195e-20 6.47017)
(3.58428 6.49313e-20 6.54818)
(4.10664 0 6.53938)
(3.54416 2.31279e-21 6.49042)
(4.11969 6.65716e-20 6.53704)
(4.08819 -9.24742e-20 6.46982)
(4.87794 -1.11226e-19 5.11936)
(6.76214 -2.83397e-19 6.32408)
(4.25728 -3.26264e-20 5.34797)
(5.82523 8.15905e-20 5.78789)
(4.19735 1.63509e-20 5.75201)
(5.24476 -3.53025e-20 5.76872)
(4.32396 1.09059e-19 6.09089)
(5.02896 3.54623e-20 5.95276)
(4.47321 2.38696e-21 6.33132)
(5.02365 7.69353e-20 6.18067)
(4.58869 -5.40242e-20 6.47719)
(5.0952 -9.14286e-21 6.36787)
(4.65774 0 6.53869)
(5.17179 -6.43497e-21 6.48463)
(4.68151 -2.72927e-20 6.52553)
(5.22641 -3.68039e-20 6.5264)
(5.25047 2.44001e-20 6.49666)
(7.85126 -8.57327e-20 6.68559)
(9.30475 -1.70654e-19 7.85145)
(6.73349 8.12526e-20 6.12912)
(8.31217 1.17121e-19 6.98612)
(6.05479 -1.98025e-20 5.97281)
(7.39418 0 6.48502)
(5.74163 1.51063e-21 6.05624)
(6.77797 -5.13174e-21 6.27983)
(5.66059 6.71609e-20 6.22554)
(6.46139 -5.32088e-21 6.26865)
(5.69062 3.97601e-20 6.3809)
(6.34207 4.6122e-20 6.34617)
(5.754 -4.34116e-20 6.47781)
(6.32899 -6.60192e-21 6.43277)
(5.81127 1.51371e-20 6.50352)
(6.36255 -3.77559e-20 6.48277)
(6.40624 3.99783e-20 6.47597)
(9.83995 3.57607e-20 8.04205)
(10.8209 0 8.7441)
(8.92848 3.63206e-20 7.26517)
(10.1923 3.65253e-21 7.99052)
(8.12116 1.50952e-20 6.73709)
(9.42564 5.94106e-20 7.35903)
(7.52609 -1.20038e-20 6.46044)
(8.72668 -9.74187e-20 6.91334)
(7.16482 -2.78662e-20 6.37362)
(8.20226 3.18452e-20 6.64854)
(6.99577 0 6.39061)
(7.86448 -1.03622e-20 6.52484)
(6.95209 0 6.43479)
(7.68291 6.66446e-22 6.48486)
(6.97315 -1.43055e-20 6.45544)
(7.61301 -3.57565e-21 6.47235)
(7.61025 -1.11346e-20 6.44541)
(11.2193 -3.39201e-20 8.74594)
(11.8203 1.5512e-19 9.10574)
(10.6795 2.51639e-20 8.10931)
(11.5546 9.36206e-20 8.60138)
(10.0442 -5.15908e-20 7.53771)
(11.0948 -1.24164e-19 8.06432)
(9.43209 -5.57834e-20 7.09273)
(10.5529 -1.16907e-19 7.58067)
(8.92814 5.05575e-20 6.78955)
(10.0293 1.58268e-19 7.18904)
(8.57243 -9.96073e-21 6.61097)
(9.58945 -5.60455e-20 6.90165)
(8.36232 -2.90121e-21 6.51666)
(9.26514 9.94882e-21 6.7072)
(8.26771 -1.29911e-22 6.45881)
(9.05894 1.18991e-20 6.57646)
(8.95197 8.71315e-22 6.47402)
(12.1736 2.87035e-19 8.98819)
(12.4931 1.58922e-19 9.07842)
(11.9782 -5.45949e-20 8.5826)
(12.5023 1.31379e-19 8.82978)
(11.6196 -1.90554e-19 8.12749)
(12.3447 -1.8965e-19 8.47357)
(11.1736 9.5949e-20 7.68865)
(12.0524 5.29635e-21 8.07965)
(10.715 5.40565e-20 7.30528)
(11.6838 5.523e-20 7.69307)
(10.3054 -3.73167e-20 6.9973)
(11.2993 -2.23772e-21 7.34481)
(9.98385 2.49357e-20 6.76435)
(10.9491 -2.38654e-20 7.05092)
(9.76396 1.31923e-20 6.58866)
(10.666 3.37568e-20 6.81089)
(10.4634 -4.44945e-21 6.61124)
(12.8216 0 8.91972)
(12.9572 1.50119e-19 8.80776)
(12.8855 0 8.72917)
(13.143 -1.10036e-19 8.75722)
(12.7943 6.6264e-21 8.43855)
(13.2215 1.24662e-19 8.58284)
(12.5807 -3.77673e-20 8.09711)
(13.1728 1.76998e-23 8.3268)
(12.2884 -1.12151e-21 7.74287)
(13.0157 -1.34834e-19 8.0239)
(11.9651 1.20378e-20 7.40476)
(12.7879 1.28077e-19 7.7043)
(11.654 -1.60607e-20 7.10022)
(12.529 -3.40598e-20 7.39147)
(11.388 1.67288e-20 6.83386)
(12.2746 1.84189e-20 7.09903)
(12.0516 1.04033e-20 6.83041)
(13.2667 4.29344e-20 8.64077)
(13.2932 5.91264e-21 8.40575)
(13.4981 1.46767e-20 8.61279)
(13.5754 -1.2904e-19 8.47985)
(13.6153 1.20615e-19 8.47797)
(13.8106 1.35277e-19 8.44752)
(13.6207 -9.64916e-20 8.26348)
(13.9535 2.97414e-21 8.32518)
(13.5305 -8.71928e-21 7.99612)
(13.9959 -9.16632e-20 8.13234)
(13.3703 8.44951e-20 7.70088)
(13.9533 1.67913e-19 7.89007)
(13.1701 0 7.39803)
(13.8484 -1.53496e-19 7.61856)
(12.9598 1.20628e-20 7.10089)
(13.7056 3.01266e-20 7.33396)
(13.5488 5.33939e-20 7.04676)
(13.5826 -1.67444e-19 8.23866)
(13.9062 -9.09861e-21 8.31281)
(13.8725 2.44311e-19 8.0811)
(14.162 1.76554e-20 8.29701)
(14.196 -1.23271e-19 8.14044)
(14.3369 1.00612e-20 8.19975)
(14.4672 -9.53815e-20 8.12165)
(14.4289 8.33882e-20 8.03447)
(14.6641 9.59294e-21 8.03077)
(14.4452 -6.87242e-20 7.81722)
(14.7872 1.71915e-19 7.87821)
(14.4004 -1.26763e-19 7.56402)
(14.8444 -7.47436e-20 7.6768)
(14.3129 7.19766e-20 7.28848)
(14.8474 -3.77041e-20 7.43928)
(14.8104 2.95272e-20 7.17639)
(14.1785 1.33356e-19 7.90364)
(14.512 -2.39743e-19 7.96302)
(14.7987 -9.8095e-20 7.95371)
(15.0278 9.66333e-20 7.87847)
(15.0865 9.83494e-21 7.76282)
(15.1952 1.71429e-19 7.74412)
(15.3333 8.85918e-20 7.68917)
(15.303 1.5834e-20 7.55996)
(15.5271 1.51596e-19 7.56112)
(15.3586 -8.28215e-20 7.33587)
(15.6692 -1.41026e-19 7.38594)
(15.7649 -6.46809e-20 7.17136)
(15.3937 -2.16675e-22 7.57332)
(15.6696 6.68217e-20 7.50848)
(15.9001 -2.73938e-21 7.3916)
(15.9465 -1.04823e-20 7.2983)
(16.0843 -1.24067e-19 7.22767)
(16.1981 8.14651e-20 7.18291)
(16.4095 -1.08454e-19 7.02283)
(16.2473 7.38252e-20 7.09044)
(16.5277 1.01701e-19 6.98088)
(16.786 -6.43787e-20 6.74978)
)
;

boundaryField
{
    inlet
    {
        type            calculated;
        value           nonuniform 0();
    }
    outlet
    {
        type            calculated;
        value           nonuniform 0();
    }
    flap
    {
        type            calculated;
        value           nonuniform List<vector> 
33
(
(-6.76395e-16 -2.77556e-14 -6.09359e-15)
(-3.43392e-15 0 -1.46967e-14)
(-7.99627e-15 0 -2.45914e-14)
(-2.14725e-16 0 -5.71298e-16)
(-1.88131e-14 0 -4.81624e-14)
(0 -2.77556e-14 0)
(-1.733e-14 0 -4.9436e-14)
(-1.70479e-14 -2.77556e-14 -5.45199e-14)
(-3.02248e-14 0 -1.10346e-13)
(0 0 0)
(-1.14309e-15 2.77556e-14 -5.51546e-15)
(-4.02551e-14 -5.55112e-14 -2.24777e-13)
(-1.78155e-14 -2.77556e-14 -1.12595e-13)
(0 0 0)
(3.726e-32 -2.77556e-14 -5.44956e-33)
(1.65026e-14 0 -2.50971e-15)
(-1.22124e-14 -2.77556e-14 1.68419e-15)
(5.4255e-14 0 -8.25561e-15)
(0 2.77556e-14 0)
(0 0 0)
(-1.35375e-15 0 -4.11757e-15)
(-9.16585e-15 0 -2.4298e-14)
(0 -2.77556e-14 0)
(-1.8402e-14 -2.77556e-14 -4.85339e-14)
(-1.73148e-14 0 -4.94482e-14)
(0 0 0)
(-3.02388e-14 -2.77556e-14 -1.10342e-13)
(-1.49459e-15 -2.77556e-14 -6.26493e-15)
(-4.7541e-14 4.83404e-32 -2.29447e-13)
(1.93398e-14 2.61275e-32 1.07544e-13)
(0 0 0)
(0 -2.77556e-14 0)
(-1.71314e-14 0 -1.16658e-13)
)
;
    }
    upperWall
    {
        type            calculated;
        value           nonuniform 0();
    }
    lowerWall
    {
        type            calculated;
        value           uniform (0 0 0);
    }
    frontAndBack
    {
        type            empty;
        value           nonuniform 0();
    }
    procBoundary4to1
    {
        type            processor;
        value           nonuniform List<vector> 
30
(
(9.20728 -2.35568e-19 5.19025)
(9.391 2.91509e-21 5.42584)
(9.5875 1.71673e-19 5.62353)
(9.67723 1.6717e-19 6.10232)
(9.94276 2.7271e-19 6.29381)
(10.2053 3.76158e-19 6.43931)
(10.4011 1.00373e-19 6.90663)
(10.7301 1.01992e-19 7.01517)
(11.0348 -1.42094e-19 7.08146)
(11.3238 4.69805e-20 7.49049)
(11.6736 6.14315e-22 7.4985)
(11.9842 -9.00988e-20 7.48101)
(12.3677 2.59551e-19 7.8085)
(12.5902 -2.68226e-19 7.95625)
(12.8491 2.92124e-19 7.78876)
(13.0607 2.7673e-19 7.62371)
(13.2335 2.46615e-20 7.74101)
(13.5486 -3.15591e-20 7.94404)
(13.815 3.81141e-19 7.77821)
(14.0825 2.51307e-19 7.62206)
(14.4448 -1.97621e-20 7.72907)
(14.788 -2.16902e-19 7.77677)
(15.0772 -1.11231e-19 7.5831)
(15.3317 -1.92569e-22 7.38146)
(15.6563 -8.65644e-20 7.36521)
(15.9341 -1.67495e-19 7.15374)
(16.1672 -8.60206e-20 6.92939)
(16.4906 1.67042e-19 6.86132)
(16.7498 1.82081e-21 6.62971)
(16.956 -7.77648e-20 6.38536)
)
;
    }
    procBoundary4to2
    {
        type            processor;
        value           nonuniform List<vector> 
11
(
(5.84602 7.66639e-20 6.45826)
(7.01698 -1.97405e-22 6.42637)
(8.24972 -1.48829e-20 6.39666)
(9.63794 -5.48151e-21 6.44307)
(11.1851 -6.91255e-22 6.59907)
(12.7643 2.1688e-20 6.81516)
(14.2024 4.19956e-20 7.00031)
(15.3726 -1.30389e-20 7.08072)
(16.2249 -9.49865e-20 7.0225)
(16.7725 -6.99675e-20 6.82739)
(17.0659 5.17144e-21 6.52004)
)
;
    }
    procBoundary4to3
    {
        type            processor;
        value           nonuniform List<vector> 
19
(