/*--------------------------------*- C++ -*----------------------------------*\
| =========                 |                                                 |
| \\      /  F ield         | OpenFOAM: The Open Source CFD Toolbox           |
|  \\    /   O peration     | Version:  dev                                   |
|   \\  /    A nd           | Web:      www.OpenFOAM.org                      |
|    \\/     M anipulation  |                                                 |
\*---------------------------------------------------------------------------*/
FoamFile
{
    version     2.0;
    format      ascii;
    class       surfaceScalarField;
    location    "4.54";
    object      meshPhi;
}
// * * * * * * * * * * * * * * * * * * * * * * * * * * * * * * * * * * * * * //

dimensions      [0 3 -1 0 0 0 0];

internalField   nonuniform List<scalar> 
5457
(
-1.86195e-06
-9.51649e-08
-5.13433e-06
-2.50457e-07
-1.07104e-05
-3.30225e-07
-1.87715e-05
-3.22925e-07
-2.88955e-05
-2.30821e-07
-4.02784e-05
-6.41637e-08
-5.19222e-05
1.60981e-07
-6.27921e-05
4.24186e-07
-7.19369e-05
7.01992e-07
-7.85859e-05
9.69674e-07
-8.22226e-05
1.20338e-06
-8.26307e-05
1.38194e-06
-7.99037e-05
1.48854e-06
-7.44158e-05
1.5141e-06
-6.67632e-05
1.45893e-06
-5.76802e-05
1.33157e-06
-4.79438e-05
1.14782e-06
-3.82811e-05
9.28467e-07
-2.92937e-05
6.96258e-07
-2.14064e-05
4.7254e-07
-1.50078e-05
2.84028e-07
-1.01364e-05
1.50895e-07
-6.50964e-06
6.58312e-08
-3.93151e-06
1.42364e-08
-2.19646e-06
-1.13425e-08
-1.10192e-06
-1.8571e-08
-4.68787e-07
-1.54959e-08
-1.50022e-07
-9.01728e-09
-2.931e-08
-3.7308e-09
-7.51155e-10
-1.64331e-06
-1.93454e-07
-4.76348e-06
-5.09558e-07
-1.02576e-05
-6.73384e-07
-1.8296e-05
-6.62013e-07
-2.84508e-05
-4.80041e-07
-3.99092e-05
-1.47901e-07
-5.1663e-05
3.02409e-07
-6.26681e-05
8.30181e-07
-7.19621e-05
1.38853e-06
-7.87612e-05
1.92787e-06
-8.25351e-05
2.39983e-06
-8.30556e-05
2.76146e-06
-8.04082e-05
2.97975e-06
-7.49639e-05
3.03652e-06
-6.73197e-05
2.93133e-06
-5.82156e-05
2.68092e-06
-4.84368e-05
2.31666e-06
-3.87198e-05
1.88009e-06
-2.96761e-05
1.41697e-06
-2.17421e-05
9.70653e-07
-1.5286e-05
5.93141e-07
-1.03529e-05
3.23442e-07
-6.68035e-06
1.49204e-07
-4.05993e-06
4.24001e-08
-2.28728e-06
-1.224e-08
-1.16001e-06
-2.98135e-08
-5.00175e-07
-2.63574e-08
-1.62821e-07
-1.55671e-08
-3.27206e-08
-6.43165e-09
-1.28799e-09
-1.37965e-06
-2.96297e-07
-4.30021e-06
-7.81458e-07
-9.66195e-06
-1.03627e-06
-1.76271e-05
-1.02676e-06
-2.77654e-05
-7.59931e-07
-3.92588e-05
-2.66284e-07
-5.10913e-05
4.06221e-07
-6.22152e-05
1.19682e-06
-7.16629e-05
2.03586e-06
-7.86394e-05
2.84917e-06
-8.26015e-05
3.56352e-06
-8.3306e-05
4.11424e-06
-8.08265e-05
4.45303e-06
-7.55241e-05
4.55209e-06
-6.79883e-05
4.40895e-06
-5.89564e-05
4.0478e-06
-4.92144e-05
3.51479e-06
-3.95014e-05
2.87129e-06
-3.04343e-05
2.18559e-06
-2.24582e-05
1.52319e-06
-1.59207e-05
9.58613e-07
-1.08757e-05
5.47153e-07
-7.09313e-06
2.74812e-07
-4.36753e-06
1.03608e-07
-2.50006e-06
1.11374e-08
-1.29206e-06
-2.46386e-08
-5.68958e-07
-2.73562e-08
-1.89511e-07
-1.71822e-08
-3.93615e-08
-7.22503e-09
-1.4084e-09
-1.08798e-06
-4.04853e-07
-3.76856e-06
-1.06967e-06
-8.94794e-06
-1.42463e-06
-1.67839e-05
-1.42517e-06
-2.68464e-05
-1.08161e-06
-3.83191e-05
-4.34356e-07
-5.01838e-05
4.53346e-07
-6.13935e-05
1.50126e-06
-7.09818e-05
2.61785e-06
-7.81477e-05
3.70511e-06
-8.23375e-05
4.66623e-06
-8.32938e-05
5.41521e-06
-8.10734e-05
5.88706e-06
-7.60197e-05
6.04423e-06
-6.87063e-05
5.8822e-06
-5.98572e-05
5.43098e-06
-5.02509e-05
4.74988e-06
-4.06188e-05
3.91874e-06
-3.15755e-05
3.02652e-06
-2.35725e-05
2.15932e-06
-1.69354e-05
1.41102e-06
-1.17245e-05
8.50432e-07
-7.76019e-06
4.65971e-07
-4.8595e-06
2.15333e-07
-2.83466e-06
7.09611e-08
-1.4957e-06
4.62482e-09
-6.72883e-07
-1.42804e-08
-2.28595e-07
-1.19854e-08
-4.85676e-08
-5.52713e-09
-1.02731e-09
-7.18464e-07
-5.20667e-07
-3.087e-06
-1.37841e-06
-8.02362e-06
-1.84497e-06
-1.56811e-05
-1.86637e-06
-2.56265e-05
-1.45731e-06
-3.70493e-05
-6.67807e-07
-4.89358e-05
4.25018e-07
-6.02369e-05
1.72222e-06
-6.99872e-05
3.11096e-06
-7.73827e-05
4.47115e-06
-8.18585e-05
5.68363e-06
-8.31418e-05
6.64121e-06
-8.12674e-05
7.26148e-06
-7.6555e-05
7.49729e-06
-6.95556e-05
7.34144e-06
-6.09738e-05
6.82741e-06
-5.15738e-05
6.0255e-06
-4.20768e-05
5.03213e-06
-3.30914e-05
3.95508e-06
-2.50751e-05
2.89908e-06
-1.83175e-05
1.97293e-06
-1.28813e-05
1.2548e-06
-8.66263e-06
7.40178e-07
-5.51806e-06
3.903e-07
-3.27558e-06
1.75723e-07
-1.75836e-06
6.30319e-08
-8.03599e-07
1.53638e-08
-2.76418e-07
9.25476e-10
-5.93421e-08
-1.17354e-09
-1.58892e-10
-2.67852e-07
-6.44869e-07
-2.25113e-06
-1.71092e-06
-6.88349e-06
-2.30331e-06
-1.43135e-05
-2.35997e-06
-2.41023e-05
-1.89947e-06
-3.54434e-05
-9.8147e-07
-4.73352e-05
3.03108e-07
-5.8729e-05
1.8383e-06
-6.86584e-05
3.49152e-06
-7.63187e-05
5.12193e-06
-8.11336e-05
6.58916e-06
-8.28129e-05
7.76611e-06
-8.13666e-05
8.55377e-06
-7.70852e-05
8.89377e-06
-7.04908e-05
8.77395e-06
-6.2261e-05
8.22969e-06
-5.31379e-05
7.33953e-06
-4.3831e-05
6.2135e-06
-3.49447e-05
4.97644e-06
-2.69371e-05
3.75063e-06
-2.00456e-05
2.65483e-06
-1.43306e-05
1.77145e-06
-9.78647e-06
1.10739e-06
-6.32886e-06
6.35788e-07
-3.80941e-06
3.29812e-07
-2.06817e-06
1.52661e-07
-9.52537e-07
6.20942e-08
-3.28951e-07
2.13483e-08
-7.05273e-08
5.56579e-09
1.09747e-09
2.66364e-07
-7.78514e-07
-1.258e-06
-2.07095e-06
-5.52461e-06
-2.80645e-06
-1.26766e-05
-2.91503e-06
-2.22689e-05
-2.41929e-06
-3.34951e-05
-1.38926e-06
-4.53681e-05
7.06126e-08
-5.68485e-05
1.8295e-06
-6.69686e-05
3.73713e-06
-7.49214e-05
5.63315e-06
-8.01206e-05
7.35762e-06
-8.22573e-05
8.76499e-06
-8.13153e-05
9.73993e-06
-7.75513e-05
1.02113e-05
-7.1451e-05
1.01604e-05
-6.36589e-05
9.62246e-06
-5.48881e-05
8.68142e-06
-4.58308e-05
7.45728e-06
-3.70851e-05
6.08906e-06
-2.91073e-05
4.71481e-06
-2.20688e-05
3.45801e-06
-1.60283e-05
2.40098e-06
-1.10965e-05
1.5677e-06
-7.2624e-06
9.51653e-07
-4.41227e-06
5.32407e-07
-2.40839e-06
2.71977e-07
-1.10975e-06
1.24257e-07
-3.81524e-07
4.80482e-08
-8.08087e-08
1.40707e-08
2.58179e-09
8.87593e-07
-9.23192e-07
-1.02577e-07
-2.46321e-06
-3.94207e-06
-3.36124e-06
-1.07643e-05
-3.53977e-06
-2.01179e-05
-3.02704e-06
-3.11956e-05
-1.9039e-06
-4.30226e-05
-2.87472e-07
-5.45741e-05
1.67802e-06
-6.48858e-05
3.82665e-06
-7.31492e-05
5.9807e-06
-7.87688e-05
7.96225e-06
-8.14152e-05
9.60785e-06
-8.10448e-05
1.07869e-05
-7.78771e-05
1.14164e-05
-7.23554e-05
1.14694e-05
-6.50847e-05
1.09775e-05
-5.67446e-05
1.00264e-05
-4.80017e-05
8.74297e-06
-3.9441e-05
7.277e-06
-3.15164e-05
5.77928e-06
-2.43196e-05
4.37258e-06
-1.79065e-05
3.13424e-06
-1.25322e-05
2.11189e-06
-8.27127e-06
1.32959e-06
-5.0492e-06
7.76868e-07
-2.75646e-06
4.1587e-07
-1.26308e-06
1.98293e-07
-4.29157e-07
7.90114e-08
-8.90755e-08
2.35136e-08
4.13367e-09
1.59923e-06
-1.08024e-06
1.22205e-06
-2.89118e-06
-2.12687e-06
-3.97319e-06
-8.56704e-06
-4.24213e-06
-1.76391e-05
-3.7331e-06
-2.85347e-05
-2.53763e-06
-4.02867e-05
-7.85226e-07
-5.18859e-05
1.36682e-06
-6.23782e-05
3.73909e-06
-7.09578e-05
6.13897e-06
-7.70213e-05
8.37254e-06
-8.02176e-05
1.02605e-05
-8.04725e-05
1.16582e-05
-7.79672e-05
1.2471e-05
-7.3099e-05
1.2662e-05
-6.64283e-05
1.22558e-05
-5.85932e-05
1.13366e-05
-5.02289e-05
1.00348e-05
-4.19015e-05
8.5071e-06
-3.40596e-05
6.91375e-06
-2.67031e-05
5.37199e-06
-1.98785e-05
3.94956e-06
-1.40136e-05
2.72218e-06
-9.29185e-06
1.75457e-06
-5.67646e-06
1.05151e-06
-3.08567e-06
5.76299e-07
-1.39949e-06
2.79323e-07
-4.67578e-07
1.11872e-07
-9.4595e-08
3.30706e-08
5.61216e-09
2.40373e-06
-1.25043e-06
2.71955e-06
-3.3568e-06
-7.35323e-08
-4.64547e-06
-6.07772e-06
-5.02746e-06
-1.48226e-05
-4.54518e-06
-2.54981e-05
-3.30082e-06
-3.71434e-05
-1.43583e-06
-4.8763e-05
8.80315e-07
-5.94162e-05
3.4557e-06
-6.8302e-05
6.08465e-06
-7.48145e-05
8.56053e-06
-7.85837e-05
1.06911e-05
-7.95014e-05
1.23186e-05
-7.77088e-05
1.33352e-05
-7.35565e-05
1.3693e-05
-6.75532e-05
1.34088e-05
-6.02893e-05
1.25623e-05
-5.23627e-05
1.12833e-05
-4.43155e-05
9.73111e-06
-3.65872e-05
8.072e-06
-2.90802e-05
6.41322e-06
-2.18277e-05
4.81021e-06
-1.54472e-05
3.37015e-06
-1.02532e-05
2.2057e-06
-6.24646e-06
1.34149e-06
-3.36886e-06
7.43641e-07
-1.50703e-06
3.62065e-07
-4.93363e-07
1.44349e-07
-9.68404e-08
4.20518e-08
6.92032e-09
3.30421e-06
-1.43441e-06
4.39071e-06
-3.86151e-06
2.21535e-06
-5.37937e-06
-3.29734e-06
-5.89729e-06
-1.16653e-05
-5.46658e-06
-2.20768e-05
-4.19918e-06
-3.35751e-05
-2.24843e-06
-4.51798e-05
2.04801e-07
-5.59657e-05
2.95866e-06
-6.51377e-05
5.79692e-06
-7.20879e-05
8.5014e-06
-7.64313e-05
1.08687e-05
-7.80298e-05
1.27294e-05
-7.6982e-05
1.39633e-05
-7.35884e-05
1.45111e-05
-6.83023e-05
1.43806e-05
-6.16619e-05
1.36443e-05
-5.42231e-05
1.24274e-05
-4.64986e-05
1.08881e-05
-3.89142e-05
9.19458e-06
-3.12762e-05
7.44107e-06
-2.36086e-05
5.66883e-06
-1.6727e-05
4.01903e-06
-1.10825e-05
2.65734e-06
-6.71244e-06
1.63029e-06
-3.58096e-06
9.08199e-07
-1.57522e-06
4.41759e-07
-5.0361e-07
1.74662e-07
-9.53189e-08
5.0022e-08
8.01601e-09
4.30582e-06
-1.63287e-06
6.23853e-06
-4.40672e-06
4.73328e-06
-6.17549e-06
-2.36923e-07
-6.85074e-06
-8.17509e-06
-6.49661e-06
-1.82736e-05
-5.23419e-06
-2.95779e-05
-3.2264e-06
-4.11183e-05
-6.66105e-07
-5.19921e-05
2.23571e-06
-6.14178e-05
5.25664e-06
-6.8782e-05
8.16994e-06
-7.36841e-05
1.07619e-05
-7.59591e-05
1.2852e-05
-7.56633e-05
1.4309e-05
-7.30466e-05
1.5063e-05
-6.85058e-05
1.51116e-05
-6.25243e-05
1.45179e-05
-5.56107e-05
1.33991e-05
-4.82452e-05
1.1909e-05
-4.08354e-05
1.02142e-05
-3.31028e-05
8.39364e-06
-2.50701e-05
6.47376e-06
-1.77444e-05
4.63056e-06
-1.17082e-05
3.08353e-06
-7.0323e-06
1.90204e-06
-3.70091e-06
1.06185e-06
-1.59557e-06
5.15228e-07
-4.95701e-07
2.02063e-07
-8.90917e-08
5.69121e-08
8.90318e-09
5.41661e-06
-1.84659e-06
8.26958e-06
-4.99383e-06
7.47465e-06
-7.03395e-06
3.08729e-06
-7.88572e-06
-4.37075e-06
-7.63142e-06
-1.40997e-05
-6.40278e-06
-2.51584e-05
-4.3697e-06
-3.65801e-05
-1.73393e-06
-4.74808e-05
1.28324e-06
-5.71042e-05
4.45388e-06
-6.48372e-05
7.54757e-06
-7.02642e-05
1.03436e-05
-7.31902e-05
1.26516e-05
-7.36295e-05
1.433e-05
-7.17838e-05
1.52983e-05
-6.79939e-05
1.55435e-05
-6.26875e-05
1.51182e-05
-5.63238e-05
1.41299e-05
-4.93465e-05
1.27239e-05
-4.21442e-05
1.10618e-05
-3.43775e-05
9.20734e-06
-2.60741e-05
7.17373e-06
-1.84032e-05
5.16854e-06
-1.20679e-05
3.46089e-06
-7.1713e-06
2.14351e-06
-3.71175e-06
1.19883e-06
-1.56035e-06
5.81206e-07
-4.65399e-07
2.27018e-07
-7.54717e-08
6.31224e-08
9.67252e-09
6.64745e-06
-2.07659e-06
1.04932e-05
-5.6246e-06
1.04333e-05
-7.95417e-06
6.65903e-06
-8.99863e-06
-2.77243e-07
-8.86532e-06
-9.57825e-06
-7.69739e-06
-2.03271e-05
-5.67237e-06
-3.15722e-05
-2.99664e-06
-4.24368e-05
1.01511e-07
-5.21849e-05
3.38716e-06
-6.02159e-05
6.62718e-06
-6.61057e-05
9.59742e-06
-6.96311e-05
1.21017e-05
-7.07668e-05
1.39902e-05
-6.96646e-05
1.51723e-05
-6.66091e-05
1.56236e-05
-6.19756e-05
1.53856e-05
-5.61745e-05
1.45549e-05
-4.96123e-05
1.32663e-05
-4.26599e-05
1.16731e-05
-3.49466e-05
9.82472e-06
-2.65058e-05
7.72314e-06
-1.86254e-05
5.60063e-06
-1.21133e-05
3.76912e-06
-7.10135e-06
2.34397e-06
-3.59617e-06
1.31498e-06
-1.45628e-06
6.39273e-07
-4.01432e-07
2.50774e-07
-4.68427e-08
6.98195e-08
1.06895e-08
7.88052e-06
-2.29305e-06
1.284e-05
-6.25302e-06
1.36178e-05
-8.92335e-06
1.04738e-05
-1.01943e-05
4.09598e-06
-1.02001e-05
-4.72393e-06
-9.11831e-06
-1.509e-05
-7.1334e-06
-2.60833e-05
-4.45598e-06
-3.68405e-05
-1.31655e-06
-4.66341e-05
2.04611e-06
-5.48792e-05
5.39591e-06
-6.11477e-05
8.50669e-06
-6.51964e-05
1.11789e-05
-6.69663e-05
1.32578e-05
-6.65595e-05
1.46446e-05
-6.42066e-05
1.5305e-05
-6.02323e-05
1.52681e-05
-5.5002e-05
1.46186e-05
-4.88899e-05
1.34801e-05
-4.22488e-05
1.19965e-05
-3.4701e-05
1.0203e-05
-2.62843e-05
8.08944e-06
-1.83577e-05
5.90468e-06
-1.18105e-05
3.99501e-06
-6.79787e-06
2.49661e-06
-3.33006e-06
1.40733e-06
-1.25477e-06
6.88225e-07
-2.70785e-07
2.72939e-07
2.94724e-08
7.7961e-08
1.19209e-08
2.13908e-07
2.66127e-10
1.13144e-06
3.24003e-09
3.73938e-06
9.51506e-09
8.95101e-06
2.39859e-08
1.73384e-05
4.36886e-08
2.90488e-05
5.56231e-08
4.3859e-05
3.67801e-08
6.1311e-05
-4.21048e-08
8.08863e-05
-2.11559e-07
0.000100277
-4.92319e-07
0.00011758
-8.93328e-07
0.000133507
-1.40045e-06
0.000148474
-1.983e-06
0.000162161
-2.60755e-06
0.000174179
-3.22809e-06
0.000184122
-3.806e-06
0.000191606
-4.30424e-06
0.000196274
-4.69745e-06
0.00019783
-4.97287e-06
0.000196061
-5.11946e-06
0.000190844
-5.14069e-06
0.000182156
-5.04861e-06
0.000170053
-4.84901e-06
0.000154646
-4.54569e-06
0.000136073
-4.14078e-06
0.000114471
-3.63413e-06
8.99599e-05
-3.02436e-06
6.26166e-05
-2.30593e-06
3.24322e-05
-1.46891e-06
-5.13035e-07
2.20821e-07
7.97288e-10
1.16776e-06
6.61318e-09
3.82394e-06
2.01998e-08
9.07089e-06
4.94654e-08
1.74558e-05
8.72642e-08
2.91187e-05
1.07623e-07
4.38342e-05
6.39085e-08
6.11366e-05
-1.02028e-07
8.04707e-05
-4.46865e-07
9.97797e-05
-1.00625e-06
0.000117101
-1.79836e-06
0.000132982
-2.80578e-06
0.000147981
-3.96208e-06
0.00016173
-5.18975e-06
0.000173825
-6.41382e-06
0.000183846
-7.54976e-06
0.000191398
-8.53013e-06
0.000196125
-9.31052e-06
0.000197722
-9.85606e-06
0.000195979
-1.01527e-05
0.000190776
-1.02013e-05
0.000182092
-1.00209e-05
0.000169987
-9.62765e-06
0.000154579
-9.02805e-06
0.000136006
-8.22587e-06
0.000114406
-7.22029e-06
8.99034e-05
-6.00957e-06
6.25744e-05
-4.58242e-06
3.2408e-05
-2.91872e-06
-1.01922e-06
2.28439e-07
1.26886e-09
1.20366e-06
9.81285e-09
3.8803e-06
3.05851e-08
9.07937e-06
7.21877e-08
1.7315e-05
1.22062e-07
2.87276e-05
1.39618e-07
4.31026e-05
5.71031e-08
5.99883e-05
-2.09517e-07
7.88527e-05
-7.36949e-07
9.78698e-05
-1.57038e-06
0.00011509
-2.73607e-06
0.000130935
-4.21439e-06
0.000146016
-5.9127e-06
0.000159915
-7.71001e-06
0.000172192
-9.49747e-06
0.000182409
-1.11571e-05
0.000190156
-1.25919e-05
0.00019506
-1.37365e-05
0.000196811
-1.45412e-05
0.000195199
-1.49877e-05
0.000190106
-1.50732e-05
0.000181514
-1.48179e-05
0.000169492
-1.42455e-05
0.000154161
-1.33659e-05
0.000135657
-1.21849e-05
0.000114122
-1.0701e-05
8.96881e-05
-8.90843e-06
6.24299e-05
-6.79243e-06
3.2333e-05
-4.32586e-06
-1.51035e-06
2.34081e-07
1.68894e-09
1.22179e-06
1.26818e-08
3.86754e-06
3.90335e-08
8.91882e-06
8.74714e-08
1.68526e-05
1.38342e-07
2.78152e-05
1.36497e-07
4.16171e-05
-4.255e-09
5.78443e-05
-3.86166e-07
7.60393e-05
-1.1025e-06
9.45636e-05
-2.20784e-06
0.000111578
-3.72725e-06
0.000127419
-5.63704e-06
0.000142634
-7.82758e-06
0.000156767
-1.01455e-05
0.000169324
-1.24402e-05
0.000179843
-1.45712e-05
0.000187894
-1.64216e-05
0.000193083
-1.79007e-05
0.000195096
-1.89491e-05
0.000193714
-1.95412e-05
0.000188822
-1.96758e-05
0.000180414
-1.9367e-05
0.000168559
-1.86349e-05
0.000153382
-1.74972e-05
0.000135023
-1.5963e-05
0.000113622
-1.40312e-05
8.93189e-05
-1.16876e-05
6.21862e-05
-8.91284e-06
3.22092e-05
-5.67702e-06
-1.98224e-06
2.3721e-07
2.02402e-09
1.22168e-06
1.47104e-08
3.79931e-06
4.37708e-08
8.6415e-06
9.19594e-08
1.61824e-05
1.30716e-07
2.65727e-05
9.16871e-08
3.96603e-05
-1.2698e-07
5.50883e-05
-6.40012e-07
7.24735e-05
-1.55299e-06
9.03823e-05
-2.92631e-06
0.000107143
-4.77695e-06
0.000122994
-7.07663e-06
0.000138364
-9.70249e-06
0.000152765
-1.24784e-05
0.000165658
-1.52235e-05
0.000176541
-1.77746e-05
0.000184959
-1.99982e-05
0.0001905
-2.17829e-05
0.000192839
-2.30576e-05
0.00019175
-2.37891e-05
0.000187123
-2.39765e-05
0.000178956
-2.36268e-05
0.00016732
-2.27547e-05
0.000152343
-2.13826e-05
0.000134174
-1.9522e-05
0.00011296
-1.71729e-05
8.88289e-05
-1.43161e-05
6.18563e-05
-1.09244e-05
3.20408e-05
-6.96133e-06
-2.43128e-06
2.36561e-07
2.20242e-09
1.20163e-06
1.52342e-08
3.67923e-06
4.30467e-08
8.26578e-06
8.25211e-08
1.53519e-05
9.51719e-08
2.50923e-05
7.77977e-10
3.73839e-05
-3.14442e-07
5.19412e-05
-9.74259e-07
6.8445e-05
-2.0914e-06
8.56671e-05
-3.72554e-06
0.000102137
-5.88248e-06
0.000117991
-8.52781e-06
0.000133511
-1.15306e-05
0.000148173
-1.46997e-05
0.00016141
-1.7838e-05
0.000172683
-2.07619e-05
0.000181498
-2.33162e-05
0.000187427
-2.53755e-05
0.000190131
-2.68571e-05
0.000189382
-2.77193e-05
0.000185068
-2.79546e-05
0.000177186
-2.75683e-05
0.000165809
-2.65746e-05
0.00015107
-2.49933e-05
0.000133126
-2.28349e-05
0.000112132
-2.00998e-05
8.82061e-05
-1.67678e-05
6.14318e-05
-1.28043e-05
3.18256e-05
-8.16296e-06
-2.8514e-06
2.31729e-07
2.15785e-09
1.16262e-06
1.38638e-08
3.51558e-06
3.59012e-08
7.81754e-06
5.73105e-08
1.44189e-05
2.95146e-08
2.34793e-05
-1.37638e-07
3.49511e-05
-5.66399e-07
4.86276e-05
-1.38688e-06
6.42391e-05
-2.71327e-06
8.07506e-05
-4.59868e-06
9.69067e-05
-7.036e-06
0.000112742
-9.98283e-06
0.000128388
-1.33059e-05
0.000143287
-1.68059e-05
0.000156847
-2.0276e-05
0.000168494
-2.35171e-05
0.000177703
-2.63557e-05
0.000184022
-2.86546e-05
0.000187102
-3.03206e-05
0.000186709
-3.13028e-05
0.00018273
-3.1585e-05
0.000175156
-3.11703e-05
0.000164068
-3.00737e-05
0.000149595
-2.83099e-05
0.000131899
-2.58869e-05
0.000111145
-2.28029e-05
8.74553e-05
-1.90351e-05
6.09258e-05
-1.45439e-05
3.15743e-05
-9.27518e-06
-3.24034e-06
2.23106e-07
1.78265e-09
1.1084e-06
1.03168e-08
3.32248e-06
2.16276e-08
7.33145e-06
1.52676e-08
1.34506e-05
-6.69491e-08
2.18463e-05
-3.22872e-07
3.25244e-05
-8.79643e-07
4.53571e-05
-1.87114e-06
6.01191e-05
-3.40996e-06
7.59405e-05
-5.53615e-06
9.17701e-05
-8.22688e-06
0.000107557
-1.14325e-05
0.000123288
-1.50214e-05
0.000138379
-1.87922e-05
0.000152215
-2.25322e-05
0.000164191
-2.60317e-05
0.000173755
-2.91059e-05
0.000180436
-3.16073e-05
0.000183874
-3.34329e-05
0.000183829
-3.4523e-05
0.000180182
-3.48526e-05
0.000172924
-3.44203e-05
0.000162134
-3.32397e-05
0.00014794
-3.13217e-05
0.000130511
-2.86702e-05
0.000110021
-2.52765e-05
8.66039e-05
-2.11132e-05
6.03559e-05
-1.61382e-05
3.1288e-05
-1.02937e-05
-3.59634e-06
2.12056e-07
1.01372e-09
1.04663e-06
4.35663e-09
3.12037e-06
-3.88596e-10
6.84859e-06
-4.41751e-08
1.25185e-05
-1.9379e-07
2.03064e-05
-5.52566e-07
3.02603e-05
-1.24931e-06
4.23178e-05
-2.41753e-06
5.63071e-05
-4.16788e-06
7.1497e-05
-6.52562e-06
8.70018e-05
-9.44436e-06
0.000102703
-1.28676e-05
0.000118464
-1.66708e-05
0.000133684
-2.06558e-05
0.000147723
-2.46066e-05
0.000159957
-2.8309e-05
0.000169812
-3.15709e-05
0.000176801
-3.42373e-05
0.000180554
-3.6197e-05
0.000180827
-3.73816e-05
0.000177493
-3.77572e-05
0.000170537
-3.73175e-05
0.000160039
-3.60719e-05
0.000146132
-3.40269e-05
0.000128992
-3.11794e-05
0.000108795
-2.75122e-05
8.56733e-05
-2.29935e-05
5.97197e-05
-1.75802e-05
3.09561e-05
-1.12143e-05
-3.91777e-06
2.00778e-07
-1.84624e-10
9.87907e-07
-4.18312e-09
2.93346e-06
-3.06442e-08
6.41262e-06
-1.21224e-07
1.16936e-05
-3.49841e-07
1.8962e-05
-8.23079e-07
2.82969e-05
-1.66911e-06
3.96801e-05
-3.01777e-06
5.29921e-05
-4.97518e-06
6.76256e-05
-7.55242e-06
8.28201e-05
-1.06758e-05
9.83966e-05
-1.42791e-05
0.000114125
-1.82498e-05
0.000129393
-2.23962e-05
0.000143549
-2.65035e-05
0.000155951
-3.03567e-05
0.000166012
-3.37606e-05
0.000173235
-3.65553e-05
0.000177241
-3.86231e-05
0.000177781
-3.98879e-05
0.00017472
-4.03077e-05
0.000168041
-3.98709e-05
0.000157826
-3.85782e-05
0.000144212
-3.64278e-05
0.000127377
-3.34112e-05
0.000107488
-2.95046e-05
8.46665e-05
-2.46715e-05
5.90169e-05
-1.88688e-05
3.05872e-05
-1.2038e-05
-4.2056e-06
1.91697e-07
-1.83026e-09
9.42568e-07
-1.54002e-08
2.78646e-06
-6.94585e-08
6.06828e-06
-2.15847e-07
1.10433e-05
-5.33663e-07
1.79018e-05
-1.13064e-06
2.67449e-05
-2.13261e-06
3.75831e-05
-3.66402e-06
5.03306e-05
-5.82319e-06
6.44837e-05
-8.60523e-06
7.93861e-05
-1.19106e-05
9.48017e-05
-1.56611e-05
0.00011043
-1.97559e-05
0.000125659
-2.40157e-05
0.000139832
-2.82302e-05
0.0001523
-3.21862e-05
0.000162469
-3.56893e-05
0.000169837
-3.85771e-05
0.00017402
-4.07274e-05
0.000174762
-4.2057e-05
0.000171924
-4.25185e-05
0.000165492
-4.20912e-05
0.000155546
-4.07638e-05
0.000142222
-3.8527e-05
0.000125692
-3.53674e-05
0.000106108
-3.1255e-05
8.35902e-05
-2.61496e-05
5.82661e-05
-2.00071e-05
3.01985e-05
-1.27667e-05
-4.46039e-06
1.87457e-07
-3.99477e-09
9.2184e-07
-2.97933e-08
2.70733e-06
-1.17847e-07
5.8635e-06
-3.28684e-07
1.06326e-05
-7.44477e-07
1.7204e-05
-1.47255e-06
2.56919e-05
-2.63519e-06
3.61249e-05
-4.35035e-06
4.84352e-05
-6.70683e-06
6.21862e-05
-9.6804e-06
7.68081e-05
-1.31437e-05
9.20263e-05
-1.7008e-05
0.000107486
-2.1188e-05
0.000122589
-2.5519e-05
0.000136677
-2.97963e-05
0.000149102
-3.38119e-05
0.000159273
-3.73744e-05
0.000166687
-4.03221e-05
0.00017096
-4.253e-05
0.00017183
-4.39097e-05
0.000169163
-4.44075e-05
0.000162943
-4.39909e-05
0.000153241
-4.26379e-05
0.000140191
-4.03338e-05
0.000123954
-3.70567e-05
0.000104667
-3.27699e-05
8.24639e-05
-2.74329e-05
5.74871e-05
-2.09984e-05
2.9797e-05
-1.34023e-05
-4.68272e-06
1.93159e-07
-6.9786e-09
9.44471e-07
-4.88358e-08
2.73408e-06
-1.78449e-07
5.85321e-06
-4.62227e-07
1.05272e-05
-9.83782e-07
1.69391e-05
-1.84895e-06
2.52083e-05
-3.17563e-06
3.53747e-05
-5.07514e-06
4.73802e-05
-7.62674e-06
6.08052e-05
-1.07796e-05
7.5143e-05
-1.43724e-05
9.01251e-05
-1.83172e-05
0.000105357
-2.25502e-05
0.000120245
-2.69164e-05
0.000134144
-3.12174e-05
0.000146417
-3.52534e-05
0.000156481
-3.88394e-05
0.00016384
-4.18163e-05
0.000168111
-4.40578e-05
0.000169036
-4.54722e-05
0.000166484
-4.5997e-05
0.000160431
-4.55888e-05
0.000150941
-4.42181e-05
0.000138142
-4.18623e-05
0.000122179
-3.84908e-05
0.000103184
-3.40613e-05
8.13064e-05
-2.85304e-05
5.66896e-05
-2.18479e-05
2.93855e-05
-1.39478e-05
-4.87364e-06
2.24946e-07
-1.21032e-08
1.04841e-06
-7.6624e-08
2.92497e-06
-2.57504e-07
6.10775e-06
-6.24128e-07
1.08008e-05
-1.26015e-06
1.7176e-05
-2.26841e-06
2.53532e-05
-3.76168e-06
3.5383e-05
-5.84647e-06
4.72162e-05
-8.59677e-06
6.03809e-05
-1.192e-05
7.44142e-05
-1.56088e-05
8.91187e-05
-1.95992e-05
0.000104061
-2.38572e-05
0.000118648
-2.82263e-05
0.000132255
-3.25154e-05
0.000144266
-3.65362e-05
0.000154116
-4.01126e-05
0.00016132
-4.30901e-05
0.000165502
-4.53424e-05
0.000166411
-4.67738e-05
0.000163914
-4.73141e-05
0.000157981
-4.69115e-05
0.000148666
-4.55283e-05
0.000136089
-4.31321e-05
0.000120382
-3.96852e-05
0.000101679
-3.51419e-05
8.01339e-05
-2.94528e-05
5.58801e-05
-2.25633e-05
2.89671e-05
-1.44076e-05
-5.03456e-06
3.68005e-07
-3.61207e-08
1.35624e-06
-1.34416e-07
3.41445e-06
-3.82848e-07
6.75628e-06
-8.46472e-07
1.15658e-05
-1.60678e-06
1.80037e-05
-2.7625e-06
2.61906e-05
-4.4218e-06
3.61937e-05
-6.69048e-06
4.79359e-05
-9.61903e-06
6.08799e-05
-1.30723e-05
7.4615e-05
-1.68403e-05
8.90049e-05
-2.08746e-05
0.000103589
-2.51393e-05
0.000117782
-2.94808e-05
0.000130993
-3.37229e-05
0.000142636
-3.76947e-05
0.000152166
-4.12306e-05
0.000159118
-4.41817e-05
0.000163128
-4.64227e-05
0.00016395
-4.7854e-05
0.000161448
-4.83992e-05
0.000155588
-4.79992e-05
0.000146414
-4.66066e-05
0.000134033
-4.41794e-05
0.00011857
-4.0673e-05
0.000100161
-3.60377e-05
7.89504e-05
-3.02192e-05
5.50602e-05
-2.3159e-05
2.85425e-05
-1.47906e-05
-5.16864e-06
9.22028e-06
-2.46975e-06
1.55985e-05
-6.80047e-06
1.75901e-05
-9.86628e-06
1.51279e-05
-1.1461e-05
9.11327e-06
-1.1655e-05
5.08437e-07
-1.06815e-05
-9.78381e-06
-8.76768e-06
-2.08444e-05
-6.12659e-06
-3.18087e-05
-2.9883e-06
-4.19345e-05
4.10123e-07
-5.06235e-05
3.83114e-06
-5.74305e-05
7.04723e-06
-6.20875e-05
9.85777e-06
-6.45023e-05
1.21045e-05
-6.47369e-05
1.36832e-05
-6.29816e-05
1.45507e-05
-5.95229e-05
1.47251e-05
-5.46985e-05
1.42788e-05
-4.88682e-05
1.33239e-05
-4.23811e-05
1.19947e-05
-3.48592e-05
1.03134e-05
-2.63366e-05
8.25428e-06
-1.8243e-05
6.06962e-06
-1.15609e-05
4.13182e-06
-6.47011e-06
2.59766e-06
-2.98191e-06
1.4736e-06
-9.29006e-07
7.24861e-07
1.21288e-08
2.86269e-07
2.68767e-07
7.37606e-08
-5.11539e-09
2.06552e-07
1.0255e-05
-2.63102e-06
1.78499e-05
-7.27344e-06
2.13093e-05
-1.06892e-05
2.00499e-05
-1.26867e-05
1.4691e-05
-1.32006e-05
6.48392e-06
-1.23956e-05
-3.50593e-06
-1.05779e-05
-1.43808e-05
-8.00889e-06
-2.52999e-05
-4.91262e-06
-3.55296e-05
-1.51969e-06
-4.4462e-05
1.93337e-06
-5.16422e-05
5.21822e-06
-5.6783e-05
8.13493e-06
-5.9762e-05
1.05242e-05
-6.06056e-05
1.22779e-05
-5.94653e-05
1.33455e-05
-5.65883e-05
1.37354e-05
-5.22843e-05
1.35089e-05
-4.68973e-05
1.27682e-05
-4.07745e-05
1.16396e-05
-3.35678e-05
1.01371e-05
-2.52629e-05
8.20854e-06
-1.72823e-05
6.0868e-06
-1.06892e-05
4.16749e-06
-5.67978e-06
2.63287e-06
-2.26059e-06
1.4965e-06
-2.52895e-07
7.27338e-07
6.7225e-07
2.62171e-07
9.39503e-07
1.82575e-08
-9.42596e-08
9.76104e-07
1.12909e-05
-2.7945e-06
1.99039e-05
-7.73276e-06
2.46418e-05
-1.14181e-05
2.49374e-05
-1.37567e-05
2.07786e-05
-1.46918e-05
1.31856e-05
-1.4214e-05
3.56577e-06
-1.25606e-05
-7.02492e-06
-1.0093e-05
-1.77956e-05
-7.0791e-06
-2.80327e-05
-3.73174e-06
-3.71152e-05
-2.85383e-07
-4.458e-05
3.0303e-06
-5.01249e-05
6.01851e-06
-5.36023e-05
8.52126e-06
-5.50071e-05
1.04282e-05
-5.44563e-05
1.16833e-05
-5.21648e-05
1.22866e-05
-4.84193e-05
1.229e-05
-4.35558e-05
1.17876e-05
-3.79335e-05
1.09026e-05
-3.12855e-05
9.6607e-06
-2.34066e-05
7.95494e-06
-1.56478e-05
5.9466e-06
-9.23723e-06
4.07545e-06
-4.35299e-06
2.5674e-06
-9.98214e-07
1.43427e-06
1.01431e-06
6.50242e-07
2.01247e-06
1.53895e-07
2.41711e-06
-1.34944e-07
-3.01519e-07
2.63798e-06
1.24181e-05
-2.95701e-06
2.20582e-05
-8.19514e-06
2.78082e-05
-1.21339e-05
2.94545e-05
-1.47172e-05
2.6901e-05
-1.6002e-05
2.04939e-05
-1.59711e-05
1.14646e-05
-1.4661e-05
1.2479e-06
-1.23735e-05
-9.26526e-06
-9.47904e-06
-1.94134e-05
-6.21627e-06
-2.85465e-05
-2.81334e-06
-3.61994e-05
4.94452e-07
-4.20602e-05
3.51771e-06
-4.59613e-05
6.10224e-06
-4.78713e-05
8.13716e-06
-4.78782e-05
9.56254e-06
-4.61695e-05
1.03711e-05
-4.30125e-05
1.06057e-05
-3.87386e-05
1.03522e-05
-3.37286e-05
9.73075e-06
-2.7857e-05
8.78891e-06
-2.0644e-05
7.39234e-06
-1.32173e-05
5.59877e-06
-7.00934e-06
3.82201e-06
-2.2441e-06
2.34944e-06
1.07856e-06
1.22991e-06
3.16667e-06
4.36852e-07
4.35285e-06
-9.43898e-08
5.05466e-06
-4.39507e-07
-6.76105e-07
5.61983e-06
1.36388e-05
-3.11777e-06
2.44119e-05
-8.65451e-06
3.11854e-05
-1.28559e-05
3.38844e-05
-1.56679e-05
3.27351e-05
-1.71916e-05
2.79401e-05
-1.75273e-05
2.00651e-05
-1.66891e-05
1.04773e-05
-1.47841e-05
3.29667e-07
-1.21059e-05
-9.6412e-06
-8.95621e-06
-1.87186e-05
-5.62785e-06
-2.64555e-05
-2.36761e-06
-3.25379e-05
6.53103e-07
-3.67819e-05
3.28599e-06
-3.91358e-05
5.42066e-06
-3.96626e-05
6.99447e-06
-3.85254e-05
7.99321e-06
-3.59707e-05
8.44993e-06
-3.23153e-05
8.43796e-06
-2.79348e-05
8.06154e-06
-2.27946e-05
7.35503e-06
-1.64257e-05
6.23697e-06
-9.63023e-06
4.77258e-06
-3.72394e-06
3.24932e-06
9.18154e-07
1.90213e-06
4.25286e-06
8.23841e-07
6.48788e-06
2.37863e-08
7.96725e-06
-5.43124e-07
9.08797e-06
-9.47702e-07
-1.25854e-06
1.00964e-05
1.49625e-05
-3.27563e-06
2.69702e-05
-9.10766e-06
3.48855e-05
-1.35738e-05
3.86456e-05
-1.66282e-05
3.85949e-05
-1.83741e-05
3.52173e-05
-1.89519e-05
2.88846e-05
-1.84815e-05
2.04106e-05
-1.70408e-05
1.09195e-05
-1.47682e-05
1.3062e-06
-1.18876e-05
-7.61675e-06
-8.70253e-06
-1.53261e-05
-5.52352e-06
-2.15314e-05
-2.54397e-06
-2.60317e-05
1.02726e-07
-2.8762e-05
2.30602e-06
-2.97635e-05
4.00221e-06
-2.91752e-05
5.16966e-06
-2.72178e-05
5.83108e-06
-2.41767e-05
6.04457e-06
-2.03794e-05
5.89146e-06
-1.57836e-05
5.38379e-06
-1.02186e-05
4.49009e-06
-4.31947e-06
3.33398e-06
1.02469e-06
2.13828e-06
5.44188e-06
1.04073e-06
8.809e-06
9.78965e-08
1.1248e-05
-6.63648e-07
1.30775e-05
-1.25216e-06
1.4662e-05
-1.71038e-06
-2.08738e-06
1.61414e-05
1.63962e-05
-3.42915e-06
2.97463e-05
-9.55043e-06
3.89104e-05
-1.42808e-05
4.38535e-05
-1.75831e-05
4.49107e-05
-1.95688e-05
4.2657e-05
-2.03738e-05
3.76828e-05
-2.01519e-05
3.05535e-05
-1.90436e-05
2.21695e-05
-1.72073e-05
1.33246e-05
-1.47903e-05
4.7609e-06
-1.19458e-05
-2.81044e-06
-8.93812e-06
-9.03741e-06
-6.03148e-06
-1.36988e-05
-3.40571e-06
-1.67308e-05
-1.16795e-06
-1.81516e-05
6.21204e-07
-1.80767e-05
1.9304e-06
-1.66973e-05
2.77349e-06
-1.42591e-05
3.19456e-06
-1.10333e-05
3.25704e-06
-6.99102e-06
2.97473e-06
-2.15104e-06
2.33272e-06
2.8957e-06
1.44873e-06
7.55229e-06
5.25154e-07
1.16081e-05
-3.27605e-07
1.49572e-05
-1.08554e-06
1.76421e-05
-1.74198e-06
1.98581e-05
-2.30141e-06
2.18979e-05
-2.78217e-06
-3.20539e-06
2.38137e-05
1.79446e-05
-3.57658e-06
3.27493e-05
-9.97776e-06
4.32722e-05
-1.49688e-05
4.95066e-05
-1.85216e-05
5.17968e-05
-2.07559e-05
5.06937e-05
-2.18125e-05
4.68699e-05
-2.18442e-05
4.09635e-05
-2.1005e-05
3.38114e-05
-1.94858e-05
2.60664e-05
-1.74728e-05
1.8227e-05
-1.50711e-05
1.10208e-05
-1.24172e-05
4.9358e-06
-9.72885e-06
2.12187e-07
-7.19524e-06
-3.03763e-06
-4.95167e-06
-4.80823e-06
-3.10042e-06
-5.19591e-06
-1.68232e-06
-4.3616e-06
-6.86041e-07
-2.51172e-06
-7.94601e-08
1.25991e-07
1.86355e-07
3.51721e-06
1.32146e-07
7.59999e-06
-2.38824e-07
1.18844e-05
-8.30319e-07
1.59129e-05
-1.4899e-06
1.95659e-05
-2.13283e-06
2.28117e-05
-2.7301e-06
2.56973e-05
-3.27142e-06
2.8308e-05
-3.76526e-06
3.08294e-05
-4.22781e-06
-4.66588e-06
3.32081e-05
1.96104e-05
-3.71587e-06
3.59838e-05
-1.03838e-05
4.79773e-05
-1.56285e-05
5.56133e-05
-1.94311e-05
5.92473e-05
-2.1919e-05
5.94286e-05
-2.3238e-05
5.68147e-05
-2.35425e-05
5.20919e-05
-2.29932e-05
4.6053e-05
-2.17643e-05
3.93717e-05
-2.00425e-05
3.24708e-05
-1.79776e-05
2.59412e-05
-1.57052e-05
2.02494e-05
-1.33709e-05
1.56521e-05
-1.10901e-05
1.23191e-05
-8.965e-06
1.028e-05
-7.10892e-06
9.50113e-06
-5.61504e-06
9.84198e-06
-4.50021e-06
1.11362e-05
-3.73629e-06
1.31904e-05
-3.28782e-06
1.5906e-05
-3.12424e-06
1.92e-05
-3.22568e-06
2.27361e-05
-3.52676e-06
2.61878e-05
-3.9268e-06
2.94608e-05
-4.36071e-06
3.25436e-05
-4.80061e-06
3.54882e-05
-5.2333e-06
3.83826e-05
-5.65802e-06
4.13498e-05
-6.08277e-06
-6.50713e-06
4.41829e-05
2.13936e-05
-3.84469e-06
3.94507e-05
-1.07618e-05
5.30267e-05
-1.6249e-05
6.21746e-05
-2.02967e-05
6.72625e-05
-2.30394e-05
6.88389e-05
-2.46268e-05
6.75539e-05
-2.52151e-05
6.40997e-05
-2.49651e-05
5.91964e-05
-2.40438e-05
5.35103e-05
-2.2619e-05
4.75383e-05
-2.08411e-05
4.18025e-05
-1.88641e-05
3.66879e-05
-1.6835e-05
3.24774e-05
-1.48675e-05
2.92931e-05
-1.30166e-05
2.71353e-05
-1.13048e-05
2.60514e-05
-9.81013e-06
2.59685e-05