/*--------------------------------*- C++ -*----------------------------------*\
| =========                 |                                                 |
| \\      /  F ield         | OpenFOAM: The Open Source CFD Toolbox           |
|  \\    /   O peration     | Version:  dev                                   |
|   \\  /    A nd           | Web:      www.OpenFOAM.org                      |
|    \\/     M anipulation  |                                                 |
\*---------------------------------------------------------------------------*/
FoamFile
{
    version     2.0;
    format      ascii;
    class       surfaceScalarField;
    location    "0.55";
    object      phi;
}
// * * * * * * * * * * * * * * * * * * * * * * * * * * * * * * * * * * * * * //

dimensions      [0 3 -1 0 0 0 0];

internalField   nonuniform List<scalar> 
879
(
0.207404
0.00610682
0.0111819
0.212444
0.00634675
0.212021
0.0116066
0.0165436
0.217607
0.00656693
0.217222
0.0119935
0.216684
0.0170837
0.0220145
0.222898
0.00676471
0.222554
0.0123379
0.222078
0.0175614
0.22148
0.0226169
0.0275816
0.228319
0.00693753
0.228021
0.0126351
0.227613
0.0179703
0.227105
0.0231286
0.226503
0.0281876
0.0332057
0.233872
0.00708286
0.233625
0.0128809
0.233291
0.0183043
0.23288
0.0235418
0.232401
0.0286709
0.231863
0.0337492
0.0388253
0.239562
0.00719832
0.239369
0.013071
0.239115
0.0185578
0.238809
0.0238493
0.23846
0.0290228
0.238079
0.0341349
0.237678
0.0392323
0.237271
0.0443541
0.0495324
0.245391
0.00728167
0.245256
0.0132017
0.245087
0.0187256
0.244891
0.0240449
0.24468
0.0292362
0.244465
0.0343545
0.244258
0.0394446
0.244075
0.0445433
0.243934
0.0496802
0.0548792
0.251361
0.00733088
0.251288
0.0132694
0.251208
0.0188032
0.251129
0.0241231
0.251062
0.0293048
0.251018
0.0344013
0.251012
0.0394553
0.25106
0.0445009
0.251181
0.0495652
0.251398
0.0546684
0.251737
0.0598255
0.0650463
0.257477
0.00734416
0.257469
0.0132713
0.257481
0.0187867
0.257523
0.0240795
0.257604
0.0292238
0.257737
0.0342705
0.257936
0.0392597
0.258219
0.044223
0.258605
0.0491843
0.259118
0.0541609
0.259785
0.059164
0.260637
0.0641993
0.261709
0.0692675
0.0743652
0.263742
0.00731998
0.2638
0.0132051
0.263908
0.0186731
0.264074
0.0239107
0.264307
0.0289899
0.264619
0.0339589
0.265026
0.0388553
0.265545
0.0437081
0.266195
0.0485381
0.267002
0.0533596
0.26799
0.0581805
0.269191
0.0630032
0.270638
0.0678249
0.272369
0.072638
0.0774275
0.270158
0.00725715
0.270285
0.0130689
0.27049
0.0184604
0.270782
0.0236147
0.271168
0.028601
0.271662
0.0334652
0.272276
0.0382421
0.27303
0.0429577
0.273941
0.0476302
0.275034
0.052271
0.276333
0.0568852
0.277868
0.0614723
0.279671
0.0660266
0.281775
0.0705374
0.284218
0.0749874
0.287037
0.0793539
0.0836108
0.27673
0.00715481
0.276926
0.0128616
0.27723
0.0181475
0.277648
0.0231903
0.278188
0.0280569
0.278862
0.0327901
0.279682
0.0374219
0.280666
0.0419757
0.281831
0.046467
0.283201
0.0509048
0.284798
0.0552916
0.286649
0.0596247
0.288783
0.0638963
0.29123
0.0680936
0.294022
0.0721985
0.29719
0.0761886
0.300765
0.0800378
0.304777
0.0837171
0.0871942
0.28346
0.00701242
0.283725
0.0125826
0.284128
0.0177339
0.284673
0.0226381
0.285366
0.0273587
0.286217
0.0319359
0.287238
0.0363989
0.288446
0.0407684
0.289857
0.0450576
0.29149
0.0492733
0.293368
0.0534161
0.295515
0.0574815
0.297953
0.0614604
0.300711
0.0653389
0.303813
0.0690991
0.307284
0.0727192
0.311149
0.0761749
0.315429
0.0794393
0.320141
0.0824836
0.325298
0.0852782
0.0877938
0.290351
0.00682984
0.290687
0.0122322
0.291188
0.0172204
0.291857
0.0219593
0.292699
0.026509
0.293724
0.0309068
0.294941
0.035179
0.296364
0.0393442
0.298008
0.0434133
0.299891
0.0473913
0.302032
0.0512773
0.304449
0.0550658
0.307165
0.0587467
0.3102
0.0623062
0.313574
0.065727
0.317307
0.0689888
0.321414
0.0720694
0.32591
0.0749449
0.330804
0.0775906
0.336101
0.079982
0.297409
0.00660722
0.297813
0.0118111
0.29841
0.0166086
0.299201
0.0211565
0.30019
0.0255117
0.301382
0.0297082
0.302786
0.03377
0.304415
0.0377132
0.30628
0.0415471
0.308395
0.0452751
0.310778
0.0488953
0.313443
0.0524015
0.316408
0.0557836
0.319687
0.0590282
0.323296
0.0621191
0.327248
0.0650381
0.331554
0.0677654
0.336219
0.0702804
0.341248
0.0725625
0.0745924
0.304635
0.00634506
0.305106
0.0113206
0.305798
0.0159006
0.306708
0.0202333
0.307837
0.0243717
0.30919
0.0283471
0.310773
0.0321808
0.312595
0.0358869
0.314666
0.0394732
0.316997
0.042942
0.319601
0.0462907
0.322489
0.0495129
0.325674
0.0525989
0.329166
0.0555362
0.332976
0.0583101
0.33711
0.0609045
0.341573
0.0633024
0.346367
0.0654866
0.35149
0.0674403
0.0691487
0.312035
0.00604409
0.312571
0.0107625
0.313354
0.0150995
0.314378
0.0191939
0.315642
0.0230951
0.317147
0.0268312
0.318899
0.0304213
0.320902
0.0338776
0.323164
0.0372067
0.325693
0.0404099
0.328496
0.0434845
0.331584
0.046424
0.334962
0.0492196
0.338638
0.0518597
0.342615
0.0543317
0.346898
0.0566217
0.351484
0.0587153
0.356372
0.0605986
0.361554
0.0622582
0.0636834
0.319612
0.00570529
0.320211
0.010139
0.321081
0.0142087
0.322214
0.0180434
0.323606
0.0216884
0.325256
0.025169
0.327165
0.0285021
0.329337
0.0316982
0.331774
0.0347628
0.334482
0.0376966
0.337466
0.0404968
0.34073
0.0431575
0.344276
0.0456705
0.348108
0.0480259
0.352225
0.0502127
0.356626
0.0522193
0.361306
0.054034
0.366257
0.0556457
0.37147
0.0570442
0.0582223
0.32737
0.00532979
0.32803
0.00945257
0.328983
0.013232
0.33022
0.016787
0.331733
0.0201586
0.333518
0.0233694
0.335574
0.026434
0.337901
0.0293614
0.340499
0.0321563
0.34337
0.034819
0.346514
0.0373468
0.349932
0.0397343
0.353624
0.0419744
0.357588
0.0440586
0.361819
0.0459778
0.366313
0.0477223
0.371061
0.0492831
0.376053
0.0506515
0.381274
0.05182
0.0527844
0.335313
0.00491881
0.336032
0.00870571
0.337065
0.0121735
0.338399
0.0154302
0.340026
0.018513
0.341937
0.0214412
0.344129
0.0242276
0.346599
0.0268799
0.349343
0.0294017
0.35236
0.0317932
0.355647
0.034052
0.359202
0.0361734
0.363019
0.0381513
0.367094
0.0399786
0.371419
0.0416477
0.375985
0.0431513
0.380782
0.0444821
0.385795
0.0456339
0.391009
0.0466015
0.0473826
0.343447
0.00447351
0.344221
0.00790095
0.34533
0.011037
0.346757
0.0139787
0.34849
0.0167585
0.350519
0.0193933
0.352837
0.0218933
0.355437
0.0242652
0.358315
0.026512
0.361463
0.0286337
0.364877
0.0306281
0.368551
0.0324912
0.372477
0.0342179
0.376645
0.0358026
0.381047
0.0372392
0.38567
0.0385219
0.390501
0.0396455
0.395524
0.0406055
0.400721
0.0413985
0.0420241
0.351776
0.00399492
0.352603
0.00704052
0.353784
0.00982621
0.355298
0.0124375
0.357131
0.0149021
0.35927
0.0172336
0.361704
0.0194406
0.364424
0.0215282
0.367423
0.0234991
0.37069
0.0253531
0.374218
0.0270882
0.377998
0.0287011
0.382018
0.0301879
0.386268
0.0315439
0.390734
0.0327644
0.395402
0.0338452
0.400258
0.0347824
0.405282
0.0355732
0.410458
0.0362154
0.03671
0.360305
0.00348365
0.361184
0.00612597
0.362434
0.00854413
0.364031
0.0108114
0.365957
0.0129499
0.368197
0.0149699
0.370739
0.016878
0.37357
0.0186785
0.376679
0.0203732
0.380055
0.021962
0.383687
0.0234431
0.387561
0.0248139
0.391666
0.0260713
0.395987
0.0272115
0.400509
0.0282312
0.405217
0.0291273
0.410093
0.029897
0.415118
0.0305387
0.420273
0.0310513
0.0314365
0.36904
0.00293954
0.36997
0.00515766
0.371287
0.00719295
0.372962
0.0091045
0.374977
0.0109073
0.377313
0.0126083
0.379955
0.0142127
0.382889
0.0157237
0.386101
0.0171424
0.389577
0.0184686
0.393303
0.0197008
0.397265
0.020837
0.401448
0.0218745
0.405835
0.0228108
0.410411
0.0236433
0.415156
0.0243698
0.420053
0.0249887
0.425081
0.0254989
0.430221
0.0259002
0.0261946
0.377987
0.0023606
0.378971
0.00413363
0.380354
0.00577398
0.382104
0.00732068
0.384201
0.00877964
0.386627
0.0101552
0.389363
0.0114515
0.392393
0.0126708
0.395701
0.0138135
0.39927
0.0148792
0.403086
0.0158667
0.407132
0.0167745
0.41139
0.0176005
0.415842
0.0183428
0.420471
0.0189997
0.425257
0.0195697
0.430181
0.0200517
0.435221
0.0204453
0.440357
0.0207507
0.02097
0.387157
0.00174035
0.388201
0.00304786
0.38965
0.00428642
0.391474
0.00546132
0.393652
0.0065693
0.396163
0.00761407
0.398989
0.00859876
0.40211
0.00952441
0.405509
0.0103909
0.409169
0.0111977
0.413072
0.0119439
0.417199
0.0126281
0.421532
0.0132492
0.426052
0.0138056
0.430739
0.0142961
0.435573
0.0147199
0.440533
0.0150764
0.445597
0.0153654
0.450746
0.0155873
0.0157439
0.396569
0.00105747
0.397675
0.00189794
0.399185
0.0027364
0.401077
0.00353165
0.403331
0.00428079
0.405925
0.00498908
0.408836
0.0056581
0.412046
0.00628746
0.415536
0.00687651
0.419285
0.00742466
0.423276
0.00793118
0.427488
0.00839518
0.431901
0.00881574
0.436496
0.00919194
0.44125
0.00952303
0.446144
0.00980843
0.451155
0.0100479
0.456262
0.0102413
0.461443
0.0103891
0.0104927
0.406306
0.0002139
0.407477
0.000681066
0.409045
0.0011259
0.411003
0.00153519
0.413326
0.00192156
0.415993
0.00228961
0.418981
0.00263888
0.422272
0.00296827
0.425844
0.00327709
0.429679
0.00356487
0.433755
0.00383113
0.438053
0.00407532
0.44255
0.00429691
0.447225
0.00449539
0.452058
0.00467038
0.457025
0.00482157
0.462105
0.00494884
0.467275
0.00505222
0.472513
0.00513191
0.00518865
0.415484
0.416118
0.4172
0.418695
0.42058
0.422835
0.425442
0.42838
0.431629
0.435168
0.438974
0.443025
0.447299
0.451772
0.456421
0.461222
0.46615
0.471182
0.476294
)
;

boundaryField
{
    inlet
    {
        type            calculated;
        value           nonuniform List<scalar> 
30
(
-0.20766
-0.212683
-0.217828
-0.223097
-0.228493
-0.23402
-0.239681
-0.245479
-0.251417
-0.257499
-0.263728
-0.270107
-0.276641
-0.283333
-0.290186
-0.297206
-0.304395
-0.311758
-0.3193
-0.327023
-0.334934
-0.343036
-0.351334
-0.359832
-0.368536
-0.377451
-0.386582
-0.395933
-0.40551
-0.415319
)
;
    }
    outlet
    {
        type            calculated;
        value           nonuniform 0();
    }
    flap
    {
        type            calculated;
        value           nonuniform 0();
    }
    upperWall
    {
        type            calculated;
        value           nonuniform List<scalar> 
20
(
0
0
0
0
0
0
0
0
0
0
0
-9.58272e-15
9.33509e-15
0
-8.86187e-15
0
0
-8.20231e-15
0
0
)
;
    }
    lowerWall
    {
        type            calculated;
        value           nonuniform 0();
    }
    frontAndBack
    {
        type            empty;
        value           nonuniform 0();
    }
    procBoundary0to1
    {
        type            processor;
        value           nonuniform List<scalar> 
18
(
0.330906
0.341801
0.0820955
0.346639
0.356934
0.367019
0.37693
0.38671
0.396408
0.406075
0.415766
0.425538
0.435453
0.44557
0.455958
0.466679
0.477801
0.481465
)
;
    }
    procBoundary0to3
    {
        type            processor;
        value           nonuniform List<scalar> 
34
(
-0.00584989
-0.0107242
0.206949
-0.0159478
0.211429
-0.0213294
0.216004
-0.0268619
0.220766
-0.0325139
0.225818
-0.0382324
0.231277
-0.0439399
-0.0491276
0.236874
-0.0547942
0.243855
-0.0601588
-0.0655332
0.252229
-0.0703353
-0.0756929
0.263041
-0.0794812
0.274426
-0.082171
-0.0868435
0.290272
-0.0877275
-0.0916687
0.309252
-0.0904342
-0.0934011
)
;
    }
}


// ************************************************************************* //
