/*--------------------------------*- C++ -*----------------------------------*\
| =========                 |                                                 |
| \\      /  F ield         | OpenFOAM: The Open Source CFD Toolbox           |
|  \\    /   O peration     | Version:  dev                                   |
|   \\  /    A nd           | Web:      www.OpenFOAM.org                      |
|    \\/     M anipulation  |                                                 |
\*---------------------------------------------------------------------------*/
FoamFile
{
    version     2.0;
    format      ascii;
    class       surfaceScalarField;
    location    "0.6";
    object      meshPhi;
}
// * * * * * * * * * * * * * * * * * * * * * * * * * * * * * * * * * * * * * //

dimensions      [0 3 -1 0 0 0 0];

internalField   nonuniform List<scalar> 
881
(
5.38878e-05
-1.20756e-05
-1.46313e-05
5.77193e-05
-1.34066e-05
6.78612e-05
-1.5952e-05
7.81708e-05
-1.86821e-05
-2.15521e-05
6.21462e-05
-1.49245e-05
7.19288e-05
-1.74356e-05
8.19247e-05
-2.011e-05
9.17879e-05
-2.29352e-05
-2.58457e-05
6.73769e-05
-1.66502e-05
7.67136e-05
-1.91113e-05
8.62064e-05
-2.17172e-05
9.55863e-05
-2.44516e-05
0.000104443
-2.72665e-05
0.000112217
-3.00866e-05
-3.28081e-05
7.3482e-05
-1.86051e-05
8.23355e-05
-2.09965e-05
9.12903e-05
-2.35141e-05
0.000100058
-2.61457e-05
0.000108333
-2.88406e-05
0.000115696
-3.15312e-05
0.000121814
-3.4148e-05
0.000126364
-3.66136e-05
-3.88217e-05
8.05683e-05
-2.07987e-05
8.88851e-05
-2.3099e-05
9.72526e-05
-2.5508e-05
0.000105395
-2.80175e-05
0.000113013
-3.05785e-05
0.00011977
-3.31305e-05
0.000125395
-3.56053e-05
0.000129588
-3.79257e-05
0.00013211
-4.00191e-05
-4.17843e-05
8.87519e-05
-2.32298e-05
9.64709e-05
-2.54163e-05
0.000104197
-2.76955e-05
0.000111671
-3.00633e-05
0.000118613
-3.2473e-05
0.000124729
-3.48678e-05
0.000129745
-3.71816e-05
0.000133395
-3.93403e-05
0.000135484
-4.12628e-05
0.000135784
-4.2865e-05
0.000134012
-4.40321e-05
-4.46253e-05
9.81548e-05
-2.58846e-05
0.000105209
-2.79324e-05
0.000112233
-3.00599e-05
0.000118989
-3.22671e-05
0.000125213
-3.45077e-05
0.000130635
-3.67269e-05
0.000134996
-3.88612e-05
0.000138047
-4.08381e-05
0.000139574
-4.25771e-05
0.000139395
-4.39893e-05
0.000137296
-4.49697e-05
0.000133173
-4.54207e-05
-4.52237e-05
0.000108898
-2.87316e-05
0.000115211
-3.06155e-05
0.00012147
-3.25697e-05
0.00012745
-3.45985e-05
0.000132904
-3.66542e-05
0.000137578
-3.86819e-05
0.000141225
-4.06196e-05
0.000143612
-4.23972e-05
0.000144526
-4.39352e-05
0.000143778
-4.51455e-05
0.00014119
-4.59296e-05
0.00013666
-4.61845e-05
0.000130087
-4.58083e-05
0.000121336
-4.46699e-05
-4.26219e-05
0.000121089
-3.17239e-05
0.000126578
-3.34124e-05
0.000132007
-3.51766e-05
0.000137152
-3.70133e-05
0.000141778
-3.88718e-05
0.000145644
-4.06954e-05
0.000148516
-4.24226e-05
0.000150171
-4.39864e-05
0.000150402
-4.53095e-05
0.00014902
-4.63054e-05
0.000145862
-4.688e-05
0.000140803
-4.6933e-05
0.000133747
-4.63584e-05
0.000124593
-4.50374e-05
0.000113299
-4.28614e-05
-3.97121e-05
0.000134775
-3.47077e-05
0.000139386
-3.62302e-05
0.000143929
-3.78122e-05
0.000148182
-3.94548e-05
0.000151921
-4.1109e-05
0.000154918
-4.272e-05
0.000156949
-4.42275e-05
0.0001578
-4.55667e-05
0.00015727
-4.66633e-05
0.000155178
-4.74344e-05
0.000151362
-4.77895e-05
0.000145691
-4.76315e-05
0.000138055
-4.68567e-05
0.000128362
-4.53547e-05
0.00011656
-4.30143e-05
0.000102605
-3.97302e-05
8.64256e-05
-3.53754e-05
-2.98201e-05
0.000149972
-3.75814e-05
0.000153699
-3.89885e-05
0.000157316
-4.04063e-05
0.000160623
-4.18592e-05
0.000163412
-4.33066e-05
0.000165476
-4.46999e-05
0.000166597
-4.59823e-05
0.000166566
-4.70895e-05
0.000165193
-4.79513e-05
0.000162305
-4.84902e-05
0.000157742
-4.86196e-05
0.000151365
-4.82461e-05
0.000143062
-4.72702e-05
0.000132734
-4.5587e-05
0.000120313
-4.30893e-05
0.000105748
-3.96697e-05
8.89824e-05
-3.5214e-05
6.99941e-05
-2.96203e-05
-2.27946e-05
0.0001668
-4.03672e-05
0.00016961
-4.16448e-05
0.000172249
-4.28966e-05
0.000174549
-4.41589e-05
0.000176323
-4.53977e-05
0.000177379
-4.65699e-05
0.000177516
-4.76231e-05
0.000176524
-4.84953e-05
0.000174223
-4.91191e-05
0.000170448
-4.94225e-05
0.000165042
-4.93246e-05
0.000157865
-4.87356e-05
0.000148797
-4.75609e-05
0.000137736
-4.57007e-05
0.000124603
-4.30526e-05
0.000109331
-3.95125e-05
9.18679e-05
-3.49749e-05
7.21813e-05
-2.93402e-05
5.02482e-05
-2.25198e-05
-1.44165e-05
0.000185417
-4.3011e-05
0.000187218
-4.41353e-05
0.000188803
-4.52111e-05
0.000190021
-4.62789e-05
0.000190704
-4.73072e-05
0.000190672
-4.82565e-05
0.00018974
-4.90789e-05
0.000187709
-4.97166e-05
0.000184394
-5.01042e-05
0.000179639
-5.01743e-05
0.000173293
-4.98517e-05
0.000165216
-4.90519e-05
0.000155284
-4.76852e-05
0.00014339
-4.56575e-05
0.000129444
-4.28713e-05
0.000113374
-3.92277e-05
9.51188e-05
-3.46277e-05
7.46347e-05
-2.89758e-05
5.18924e-05
-2.21832e-05
2.68472e-05
-1.4164e-05
-4.95044e-06
0.000205896
-4.54073e-05
0.000206582
-4.63681e-05
0.000207023
-4.72619e-05
0.000207076
-4.81327e-05
0.000206584
-4.89506e-05
0.000205382
-4.96786e-05
0.000203293
-5.02725e-05
0.000200137
-5.06793e-05
0.000195726
-5.08374e-05
0.000189896
-5.06812e-05
0.000182511
-5.01413e-05
0.000173434
-4.91404e-05
0.000162536
-4.75939e-05
0.000149706
-4.54134e-05
0.000134849
-4.2507e-05
0.000117883
-3.87814e-05
9.87398e-05
-3.41434e-05
7.73669e-05
-2.85023e-05
5.37244e-05
-2.17728e-05
2.7766e-05
-1.38741e-05
-4.84245e-06
0.00022823
-4.7441e-05
0.000227705
-4.8236e-05
0.000226911
-4.89475e-05
0.000225713
-4.96229e-05
0.000223964
-5.0234e-05
0.000221506
-5.07461e-05
0.000218174
-5.11181e-05
0.000213803
-5.13023e-05
0.000208208
-5.12411e-05
0.000201215
-5.08707e-05
0.000192693
-5.01274e-05
0.000182514
-4.8941e-05
0.00017055
-4.72326e-05
0.000156684
-4.49197e-05
0.000140816
-4.19166e-05
0.000122856
-3.81359e-05
0.00010273
-3.34902e-05
8.03759e-05
-2.78939e-05
5.57449e-05
-2.12657e-05
2.87826e-05
-1.35289e-05
-4.71736e-06
0.000252351
-4.89894e-05
0.00025053
-4.96221e-05
0.00024842
-5.01561e-05
0.000245889
-5.06427e-05
0.0002428
-5.1055e-05
0.000239004
-5.13611e-05
0.000234346
-5.1523e-05
0.000228669
-5.14969e-05
0.000221802
-5.1231e-05
0.000213564
-5.06656e-05
0.000203814
-4.97393e-05
0.000192436
-4.83884e-05
0.000179306
-4.6542e-05
0.000164306
-4.41235e-05
0.000147329
-4.10535e-05
0.000128281
-3.72507e-05
0.00010708
-3.26337e-05
8.3654e-05
-2.71222e-05
5.7946e-05
-2.06393e-05
2.98916e-05
-1.31116e-05
-4.5681e-06
0.000278128
-4.99248e-05
0.000274943
-5.04029e-05
0.000271444
-5.07695e-05
0.000267507
-5.10783e-05
0.000263004
-5.13049e-05
0.000257795
-5.14198e-05
0.000251731
-5.13884e-05
0.000244664
-5.11706e-05
0.000236439
-5.07205e-05
0.000226878
-4.99836e-05
0.000215819
-4.89001e-05
0.000203151
-4.7413e-05
0.000188764
-4.54592e-05
0.000172537
-4.29685e-05
0.00015436
-3.98679e-05
0.000134134
-3.60827e-05
0.000111769
-3.15375e-05
8.71853e-05
-2.61575e-05
6.03162e-05
-1.98706e-05
3.10858e-05
-1.26065e-05
-4.38883e-06
0.00030537
-5.01161e-05
0.000300765
-5.04515e-05
0.000295818
-5.06648e-05
0.000290415
-5.0812e-05
0.000284435
-5.08708e-05
0.000277745
-5.08146e-05
0.000270208
-5.0612e-05
0.00026168
-5.02269e-05
0.000252016
-4.96183e-05
0.000241055
-4.87379e-05
0.000228621
-4.75309e-05
0.000214587
-4.59433e-05
0.000198858
-4.39191e-05
0.000181321
-4.1396e-05
0.000161861
-3.83081e-05
0.000140375
-3.4587e-05
0.000116765
-3.01637e-05
9.09456e-05
-2.49694e-05
6.28384e-05
-1.89366e-05
3.2356e-05
-1.19987e-05
-4.17427e-06
0.00033381
-4.94324e-05
0.000327748
-4.96401e-05
0.000321312
-4.97187e-05
0.000314398
-4.97247e-05
0.000306892
-4.96384e-05
0.000298671
-4.94361e-05
0.000289605
-4.90899e-05
0.000279558
-4.85676e-05
0.000268392
-4.78326e-05
0.000255962
-4.68438e-05
0.000242096
-4.55519e-05
0.000226638
-4.3905e-05
0.000209498
-4.18544e-05
0.000190579
-3.93464e-05
0.000169765
-3.63214e-05
0.000146948
-3.27181e-05
0.000122025
-2.84743e-05
9.49009e-05
-2.35271e-05
6.54893e-05
-1.78144e-05
3.36901e-05
-1.12739e-05
-3.91943e-06
0.00036311
-4.77456e-05
0.000355572
-4.78439e-05
0.000347625
-4.78096e-05
0.000339174
-4.76991e-05
0.000330113
-4.7495e-05
0.000320328
-4.71766e-05
0.000309697
-4.67196e-05
0.000298092
-4.60957e-05
0.00028538
-4.52731e-05
0.000271429
-4.4216e-05
0.00025608
-4.28824e-05
0.000239163
-4.12253e-05
0.000220564
-3.92004e-05
0.000200207
-3.67611e-05
0.000177983
-3.3856e-05
0.00015378
-3.04314e-05
0.000127489
-2.64317e-05
9.90074e-05
-2.18008e-05
6.82393e-05
-1.64821e-05
3.5073e-05
-1.04184e-05
-3.61958e-06
0.000392847
-4.49343e-05
0.000383837
-4.49439e-05
0.00037438
-4.48222e-05
0.000364389
-4.46235e-05
0.000353767
-4.43331e-05
0.000342409
-4.39331e-05
0.000330201
-4.34029e-05
0.000317021
-4.27183e-05
0.000302745
-4.1852e-05
0.000287244
-4.07734e-05
0.000270381
-3.94482e-05
0.000251982
-3.78359e-05
0.000231903
-3.58939e-05
0.000210073
-3.35831e-05
0.000186405
-3.08618e-05
0.00016078
-2.76838e-05
0.000133085
-2.40004e-05
0.000103211
-1.97621e-05
7.10517e-05
-1.49189e-05
3.6486e-05
-9.4195e-06
-3.27038e-06
0.000422512
-4.0888e-05
0.00041206
-4.08318e-05
0.00040112
-4.06509e-05
0.000389614
-4.03958e-05
0.000377454
-4.00541e-05
0.000364541
-3.96112e-05
0.000350771
-3.90499e-05
0.000336029
-3.83501e-05
0.000320197
-3.74893e-05
0.000303153
-3.64421e-05
0.000284772
-3.51805e-05
0.000264884
-3.36702e-05
0.000243323
-3.18736e-05
0.000220019
-2.97589e-05
0.000194899
-2.72928e-05
0.00016784
-2.44363e-05
0.000138728
-2.11479e-05
0.000107446
-1.73856e-05
7.38835e-05
-1.31064e-05
3.79075e-05
-8.26588e-06
-2.86798e-06
0.000451502
-3.55116e-05
0.000439668
-3.54146e-05
0.000427304
-3.52051e-05
0.00041434
-3.49279e-05
0.000400695
-3.45733e-05
0.000386281
-3.41296e-05
0.000370998
-3.3583e-05
0.00035474
-3.29176e-05
0.000337397
-3.21154e-05
0.000318851
-3.11562e-05
0.000298984
-3.00176e-05
0.000277631
-2.86716e-05
0.000254617
-2.70879e-05
0.000229866
-2.5243e-05
0.000203312
-2.31101e-05
0.000174836
-2.06558e-05
0.000144318
-1.78471e-05
0.000111642
-1.46499e-05
7.66862e-05
-1.10293e-05
3.9313e-05
-6.94829e-06
-2.40927e-06
0.000479116
-2.87312e-05
0.000465993
-2.86199e-05
0.000452299
-2.84141e-05
0.000437971
-2.81514e-05
0.000422936
-2.78245e-05
0.000407111
-2.74247e-05
0.000390406
-2.69416e-05
0.00037272
-2.63634e-05
0.000353947
-2.56764e-05
0.000333976
-2.48655e-05
0.000312693
-2.39136e-05
0.000289945
-2.28001e-05
0.000265554
-2.15029e-05
0.000239418
-2.00052e-05
0.000211478
-1.82856e-05
0.00018163
-1.63179e-05
0.00014975
-1.40778e-05
0.000115717
-1.15395e-05
7.94074e-05
-8.67636e-06
4.06764e-05
-5.46015e-06
-1.89204e-06
0.000504543
-2.05006e-05
0.000490264
-2.04019e-05
0.000475377
-2.02334e-05
0.000459823
-2.00231e-05
0.000443538
-1.97662e-05
0.000426444
-1.94567e-05
0.000408455
-1.90877e-05
0.000389476
-1.86514e-05
0.000369405
-1.81386e-05
0.000348133
-1.75392e-05
0.000325548
-1.68416e-05
0.000301519
-1.60332e-05
0.000275869
-1.50994e-05
0.000248453
-1.40273e-05
0.000219215
-1.28023e-05
0.000188077
-1.1408e-05
0.000154911
-9.82832e-06
0.000119592
-8.04566e-06
8.19944e-05
-6.04203e-06
4.19716e-05
-3.79835e-06
-1.31534e-06
0.000526863
-1.08086e-05
0.000511601
-1.07497e-05
0.000495705
-1.06524e-05
0.00047912
-1.05327e-05
0.000461782
-1.03881e-05
0.000443618
-1.02156e-05
0.000424543
-1.00118e-05
0.000404465
-9.77259e-06
0.000383285
-9.49353e-06
0.000360896
-9.1695e-06
0.000337186
-8.79487e-06
0.000312039
-8.36356e-06
0.000285277
-7.86824e-06
0.000256726
-7.30119e-06
0.000226331
-6.65546e-06
0.000194029
-5.92377e-06
0.000159692
-5.09781e-06
0.000123191
-4.1687e-06
8.43991e-05
-3.12733e-06
4.31745e-05
-1.96419e-06
-6.79769e-07
0.000545048
0.000529046
0.000512401
0.000495052
0.000476933
0.00045797
0.000438079
0.000417168
0.000395137
0.000371882
0.000347289
0.000321244
0.000293567
0.000264074
0.000232707
0.000199409
0.000164049
0.000126497
8.66255e-05
4.42961e-05
)
;

boundaryField
{
    inlet
    {
        type            calculated;
        value           nonuniform 0();
    }
    outlet
    {
        type            calculated;
        value           uniform 0;
    }
    flap
    {
        type            calculated;
        value           nonuniform 0();
    }
    upperWall
    {
        type            calculated;
        value           nonuniform List<scalar> 
21
(
0
0
0
0
0
0
0
0
0
0
9.20216e-15
0
0
0
0
0
-5.21871e-15
0
0
0
0
)
;
    }
    lowerWall
    {
        type            calculated;
        value           nonuniform 0();
    }
    frontAndBack
    {
        type            empty;
        value           nonuniform 0();
    }
    procBoundary2to1
    {
        type            processor;
        value           nonuniform List<scalar> 
17
(
-0.000146075
-0.000163687
-0.000183223
-0.000204751
-0.00022823
-0.000253574
-0.000280638
-0.000309214
-0.000339021
-0.000369701
-0.000400812
-0.000431819
-0.000462095
-0.000490903
-0.000517395
-0.000540606
-0.000559441
)
;
    }
    procBoundary2to4
    {
        type            processor;
        value           nonuniform List<scalar> 
11
(
-4.39515e-05
-4.79892e-05
-5.27218e-05
-5.82851e-05
-6.47834e-05
-7.23311e-05
-8.10472e-05
-9.10609e-05
-0.000102507
-0.000115525
-0.000130088
)
;
    }
    procBoundary2to5
    {
        type            processor;
        value           nonuniform List<scalar> 
34
(
1.08437e-05
1.33272e-05
6.41312e-05
1.73441e-05
2.01361e-05
8.81443e-05
2.44376e-05
0.000100892
2.87119e-05
3.14035e-05
0.000118542
3.53213e-05
3.74925e-05
0.00012904
4.06054e-05
0.000132646
4.30427e-05
4.36184e-05
0.000130091
4.44651e-05
0.000126902
4.4185e-05
4.21286e-05
0.000110399
3.94992e-05
9.98172e-05
3.54125e-05
2.9825e-05
6.802e-05
2.29539e-05
4.87631e-05
1.46137e-05
2.60175e-05
5.04774e-06
)
;
    }
}


// ************************************************************************* //
