/*--------------------------------*- C++ -*----------------------------------*\
| =========                 |                                                 |
| \\      /  F ield         | OpenFOAM: The Open Source CFD Toolbox           |
|  \\    /   O peration     | Version:  dev                                   |
|   \\  /    A nd           | Web:      www.OpenFOAM.org                      |
|    \\/     M anipulation  |                                                 |
\*---------------------------------------------------------------------------*/
FoamFile
{
    version     2.0;
    format      ascii;
    class       surfaceScalarField;
    location    "1.42";
    object      phi;
}
// * * * * * * * * * * * * * * * * * * * * * * * * * * * * * * * * * * * * * //

dimensions      [0 3 -1 0 0 0 0];

internalField   nonuniform List<scalar> 
5457
(
0.197594
0.00241954
0.195166
0.00244012
0.19266
0.00251921
0.190009
0.00266271
0.187202
0.00281812
0.184234
0.00297723
0.181093
0.00314507
0.177767
0.00332649
0.174239
0.00352261
0.170493
0.00373588
0.16651
0.00396951
0.162268
0.00422463
0.157746
0.00450399
0.152918
0.00481076
0.147753
0.00514844
0.142218
0.00552043
0.136277
0.00593034
0.129887
0.00638244
0.123001
0.00688126
0.115568
0.0074315
0.107531
0.00803825
0.0988285
0.00870614
0.0893931
0.00943977
0.0791524
0.010245
0.0680264
0.0111298
0.0559296
0.0120999
0.0427633
0.0131685
0.0284129
0.0143517
0.0127587
0.0156549
0.0127588
0.199439
0.00299383
0.198348
0.00354337
0.197043
0.00383758
0.195537
0.00418056
0.193821
0.00454591
0.191887
0.00491908
0.189731
0.00530669
0.187343
0.00571424
0.184708
0.00615239
0.181808
0.00662625
0.178629
0.00713483
0.175152
0.00768399
0.171359
0.00827966
0.167223
0.00892849
0.162716
0.00963832
0.157806
0.0104165
0.152454
0.0112709
0.146617
0.0122113
0.140245
0.0132486
0.13328
0.0143947
0.125656
0.0156644
0.117293
0.0170728
0.1081
0.0186368
0.0979672
0.0203822
0.0867479
0.022353
0.0742438
0.0246071
0.0601693
0.0272452
0.0440348
0.0304875
0.0244542
0.0352361
0.0372132
0.199301
0.00370616
0.198288
0.0045681
0.197057
0.00508163
0.195648
0.00560248
0.194055
0.0061497
0.192272
0.00671174
0.190288
0.00729511
0.188096
0.00790664
0.185683
0.00856073
0.183035
0.00926433
0.180139
0.0100175
0.176977
0.0108289
0.173531
0.0117069
0.16978
0.0126613
0.165695
0.0137056
0.161246
0.0148515
0.156394
0.0161109
0.151097
0.017501
0.145299
0.0190413
0.138938
0.0207538
0.131932
0.0226721
0.124176
0.0248317
0.115546
0.027272
0.105875
0.0300576
0.09493
0.0333015
0.0823419
0.0371984
0.0675155
0.042074
0.0495561
0.0484483
0.0271369
0.057656
0.0643502
0.199209
0.00450956
0.198203
0.00558704
0.196986
0.00631124
0.195591
0.00701074
0.194019
0.00773259
0.192265
0.00847528
0.190318
0.00924734
0.188169
0.0100569
0.185808
0.0109168
0.183227
0.0118358
0.180411
0.0128195
0.177346
0.013877
0.174016
0.0150185
0.170403
0.0162555
0.166481
0.0176098
0.16222
0.0190979
0.157586
0.0207331
0.152535
0.0225428
0.147014
0.0245577
0.140954
0.0268113
0.134268
0.0293588
0.126835
0.0322688
0.118492
0.035619
0.109008
0.0395459
0.0980709
0.0442429
0.0852289
0.0500438
0.0697183
0.0575869
0.0502538
0.0679144
0.0266397
0.0812707
0.0909901
0.199161
0.00536096
0.198145
0.00661558
0.196938
0.00753119
0.195556
0.00840538
0.194004
0.00929729
0.192271
0.0102176
0.190349
0.0111749
0.188229
0.0121777
0.185902
0.0132393
0.183358
0.0143705
0.180584
0.0155803
0.177564
0.0168796
0.174283
0.0182801
0.170724
0.0197961
0.166863
0.0214522
0.162675
0.0232707
0.158124
0.025272
0.153164
0.0274936
0.147737
0.0299787
0.141772
0.0327737
0.135172
0.0359592
0.127802
0.0396428
0.119477
0.0439483
0.109932
0.0490945
0.0987718
0.0554075
0.0854553
0.0633636
0.069329
0.0737156
0.0489251
0.0883198
0.0250223
0.105174
0.116013
0.199135
0.00623814
0.19811
0.00765359
0.196913
0.00874045
0.19555
0.00978135
0.194019
0.0108405
0.19231
0.0119367
0.190416
0.0130754
0.188327
0.014268
0.186034
0.0155287
0.183525
0.0168698
0.180788
0.018304
0.177807
0.0198441
0.174564
0.0215038
0.171038
0.0233028
0.16721
0.0252613
0.163057
0.0274075
0.15854
0.0297757
0.153608
0.0324166
0.148193
0.0353873
0.142218
0.0387449
0.135579
0.0425987
0.128124
0.0471007
0.119639
0.052438
0.10985
0.0588873
0.0983565
0.0669054
0.0845247
0.0771987
0.0677359
0.0905069
0.046685
0.109372
0.0230129
0.128847
0.139026
0.199125
0.00712522
0.198097
0.0086935
0.196915
0.00993581
0.195571
0.0111387
0.194062
0.0123626
0.19238
0.0136289
0.190518
0.0149445
0.188464
0.0163232
0.18621
0.0177798
0.183743
0.019328
0.181048
0.0209848
0.17811
0.0227648
0.174912
0.024683
0.171433
0.0267617
0.167647
0.0290287
0.16352
0.0315179
0.159013
0.0342689
0.154076
0.0373424
0.148641
0.0408154
0.142613
0.0447687
0.135878
0.0493341
0.128274
0.054707
0.119571
0.0611454
0.109451
0.0690112
0.0975024
0.0788581
0.08317
0.0915343
0.0657469
0.107932
0.0441491
0.130972
0.020965
0.152032
0.15999
0.199126
0.00801112
0.198104
0.00972728
0.196939
0.0111138
0.195618
0.0124731
0.194137
0.0138572
0.19249
0.0152874
0.190666
0.0167755
0.188655
0.0183365
0.186447
0.0199857
0.184029
0.0217372
0.181386
0.0236147
0.178499
0.0256347
0.175351
0.0278114
0.17192
0.0301731
0.168174
0.0327547
0.164079
0.0355953
0.159585
0.038749
0.154645
0.0422703
0.14919
0.0462627
0.143105
0.0508492
0.136265
0.0561729
0.128498
0.0624767
0.119554
0.070093
0.109108
0.0794611
0.0967154
0.0912545
0.0818609
0.106392
0.0639388
0.125857
0.0420026
0.152909
0.0192842
0.174751
0.179274
0.199133
0.00888927
0.198123
0.010749
0.19698
0.0122707
0.195689
0.0137781
0.194243
0.0153165
0.192636
0.0169063
0.190857
0.0185623
0.188896
0.0203015
0.186739
0.0221402
0.184373
0.0240954
0.181784
0.0261914
0.178955
0.0284464
0.175866
0.0308809
0.172485
0.0335338
0.168787
0.0364328
0.164743
0.0396205
0.160294
0.0431826
0.155373
0.0471787
0.149905
0.0517223
0.143778
0.0569699
0.136857
0.0630925
0.12895
0.0703855
0.119797
0.0792488
0.109053
0.0902091
0.0963023
0.104009
0.0809294
0.121768
0.0626329
0.144155
0.0406368
0.174907
0.018292
0.197096
0.197566
0.199144
0.0097563
0.19815
0.0117546
0.19703
0.0134035
0.195772
0.0150512
0.194365
0.0167375
0.192802
0.0184814
0.191073
0.0202999
0.189166
0.0222128
0.187067
0.0242379
0.184759
0.0263969
0.182232
0.0287059
0.179474
0.0311882
0.176459
0.0338763
0.173157
0.0368149
0.169534
0.0400353
0.165552
0.043584
0.16116
0.0475576
0.156284
0.0520412
0.150836
0.0571603
0.144712
0.0630877
0.137763
0.0700381
0.129769
0.0783806
0.120476
0.0885446
0.109543
0.101145
0.096526
0.117029
0.0807504
0.137546
0.0622004
0.162706
0.0403307
0.196777
0.0183483
0.219079
0.215913
0.199157
0.0106096
0.198183
0.0127406
0.19709
0.0145094
0.195866
0.0162896
0.194502
0.0181169
0.192988
0.0200082
0.191315
0.0219825
0.18947
0.0240633
0.187438
0.0262696
0.185207
0.028622
0.182765
0.0311365
0.18009
0.0338469
0.177155
0.0367917
0.17394
0.0400096
0.170408
0.0435458
0.166507
0.047466
0.162196
0.0518512
0.157405
0.0568175
0.15203
0.0625238
0.145962
0.0691478
0.139048
0.0769483
0.131089
0.0863399
0.121789
0.0978466
0.110816
0.11212
0.0976785
0.130169
0.0818677
0.153358
0.0633222
0.181252
0.0417257
0.218373
0.0200569
0.240746
0.235968
0.199176
0.0114434
0.198227
0.0137007
0.197167
0.0155829
0.195983
0.0174882
0.194666
0.0194487
0.193208
0.0214801
0.191599
0.0236024
0.189824
0.0258448
0.187869
0.0282256
0.185725
0.0307613
0.183371
0.0334799
0.180784
0.0364186
0.177941
0.039616
0.174824
0.0431059
0.171406
0.0469425
0.167631
0.0512209
0.163443
0.0560209
0.158772
0.0614726
0.15353
0.0677544
0.147599
0.0750692
0.140814
0.0837285
0.133007
0.0941462
0.123913
0.106941
0.113128
0.122906
0.100192
0.143106
0.0848385
0.168713
0.0666857
0.199405
0.0459068
0.239149
0.0244978
0.262152
0.260463
0.1992
0.0122525
0.198282
0.0146293
0.197259
0.0166192
0.19612
0.0186424
0.194857
0.0207276
0.193461
0.0228913
0.191918
0.0251574
0.190215
0.027555
0.188343
0.0300999
0.186288
0.0328125
0.184026
0.0357328
0.181542
0.0388876
0.178827
0.0423129
0.175847
0.0460658
0.172563
0.0502057
0.168935
0.0548283
0.164906
0.0600308
0.160411
0.0659512
0.155375
0.0727771
0.149686
0.0807487
0.143189
0.0902186
0.135701
0.101633
0.127025
0.115616
0.11679
0.133141
0.104687
0.155208
0.0904197
0.182979
0.0734309
0.216391
0.0546398
0.257936
0.0336958
0.283091
0.294155
0.199227
0.0130335
0.198342
0.0155246
0.197356
0.0176185
0.196265
0.0197497
0.195059
0.0219494
0.193727
0.0242388
0.192253
0.0266443
0.190631
0.0291862
0.188852
0.0318824
0.186899
0.0347627
0.184754
0.03787
0.182401
0.0412275
0.179825
0.0448714
0.176993
0.0488789
0.173866
0.0533117
0.170416
0.0582576
0.166596
0.0638319
0.162344
0.0701862
0.157597
0.0775094
0.152265
0.0860704
0.146206
0.09627
0.139282
0.108553
0.131306
0.123591
0.122107
0.14234
0.111574
0.16574
0.0993964
0.195154
0.0852995
0.230483
0.0707124
0.272516
0.0513411
0.302456
0.345493
0.199248
0.0137926
0.198391
0.0163909
0.197443
0.0185803
0.196399
0.0208092
0.195251
0.0231149
0.193984
0.0255223
0.192588
0.0280544
0.191056
0.0307275
0.189375
0.0335688
0.187524
0.0366122
0.185496
0.0398921
0.183273
0.0434387
0.180831
0.0472973
0.178151
0.0515401
0.175206
0.0562359
0.171965
0.0614789
0.168385
0.0673922
0.164421
0.0741337
0.160021
0.0818943
0.155104
0.0909762
0.149596
0.101769
0.143415
0.114728
0.136459
0.130544
0.128829
0.149968
0.120573
0.173992
0.111875
0.203847
0.103265
0.239085
0.0970112
0.278759
0.0885495
0.310909
0.434039
0.0033185
-0.00331955
0.00696955
-0.00365916
0.0108139
-0.00387721
0.0148139
-0.00406683
0.018922
-0.00418115
0.0230552
-0.00417916
0.027067
-0.00403032
0.0308626
-0.00380266
0.0343925
-0.00353785
0.0376413
-0.0032602
0.0406028
-0.00297507
0.0432704
-0.00268418
0.0456557
-0.00240508
0.0477759
-0.00214133
0.0496186
-0.00186299
0.0512052
-0.0016042
0.0525785
-0.00138628
0.0537745
-0.00120291
0.0548279
-0.00105309
0.0557789
-0.000942914
0.0566789
-0.000883845
0.0575868
-0.000883965
0.0585749
-0.000956839
0.0597392
-0.00112651
0.0611998
-0.00141729
0.0631082
-0.00186048
0.0656613
-0.00250167
0.069117
-0.00340184
0.0737953
-0.00462274
-0.00619529
0.00232445
-0.00564512
0.00550158
-0.00684518
0.00927806
-0.00768852
0.0132757
-0.00813262
0.0172617
-0.00823883
0.0210601
-0.00802146
0.0245758
-0.00756329
0.0277687
-0.00700251
0.0306126
-0.00638979
0.0331066
-0.0057661
0.035246
-0.00512837
0.0370332
-0.00448805
0.0384644
-0.00385605
0.0395214
-0.00321935
0.0402084
-0.00257018
0.0405238
-0.00193686
0.0404785
-0.00135362
0.0401069
-0.000837933
0.0394804
-0.000426098
0.0387448
-0.000198937
0.0380953
-0.000218038
0.0377078
-0.000472351
0.0377098
-0.000927443
0.038206
-0.00158487
0.0393019
-0.00246988
0.041122
-0.00363266
0.0438166
-0.00514502
0.0475645
-0.00709585
0.0526179
-0.00962068
-0.0128607
0.00170705
-0.00735341
0.00417389
-0.00932221
0.00734351
-0.0108952
0.0105981
-0.0114542
0.0136206
-0.0113277
0.016265
-0.010705
0.0184964
-0.00981066
0.0203107
-0.00882445
0.0217161
-0.00780436
0.0227256
-0.00678845
0.0233411
-0.00575856
0.0235518
-0.00471591
0.0233469
-0.00367115
0.0227391
-0.00263243
0.0217737
-0.00162452
0.0204679
-0.000647911
0.0188958
0.000206272
0.0173328
0.000718847
0.0160681
0.000839525
0.0152028
0.000674944
0.0147359
0.00026534
0.0147075
-0.000419741
0.0152412
-0.00142991
0.0164469
-0.00275291
0.0183735
-0.00435339
0.0210252
-0.00623677
0.0244001
-0.00846895
0.0285509
-0.0111931
0.0335968
-0.0146114
-0.0191405
0.00141923
-0.00877408
0.00329761
-0.0112124
0.00574195
-0.013378
0.00797663
-0.0137513
0.00974863
-0.0131568
0.0109975
-0.011987
0.0117681
-0.0105962
0.0120899
-0.0091555
0.0120056
-0.00773122
0.0115383
-0.00633553
0.0106981
-0.00493443
0.00949757
-0.00353331
0.00797493
-0.00216876
0.00613241
-0.000810657
0.00406752
0.000420955
0.00213755
0.00126572
0.000619174
0.00171298
-0.000525372
0.00185771
-0.00135797
0.0016734
-0.00182172
0.00114751
-0.00182712
0.000287242
-0.00126991
-0.000952941
-8.78393e-05
-0.00258097
0.00170419
-0.00450766
0.00406245
-0.00666899
0.00693425
-0.0090615
0.010244
-0.0117282
0.0139711
-0.0148672
0.0180601
-0.0186457
-0.0237651
0.0012535
-0.0100293
0.00258589
-0.0125582
0.00417145
-0.0150018
0.00517301
-0.0148077
0.00551918
-0.0135495
0.00530108
-0.0117962
0.00463172
-0.00994163
0.00358123
-0.00811648
0.00219805
-0.0063615
0.000522252
-0.00467599
-0.00137507
-0.00305461
-0.00344688
-0.0014804
-0.00567689
4.07025e-05
-0.00779276
0.0012846
-0.00953586
0.00214502
-0.0109813
0.00269535
-0.0121826
0.00290312
-0.0130693
0.00273917
-0.0135821
0.00218774
-0.013662
0.00123642
-0.0132343
-0.000123972
-0.0122789
-0.00188461
-0.0108395
-0.00398972
-0.00896642
-0.006344
-0.00671571
-0.00887764
-0.00415056
-0.0115802
-0.00131988
-0.014509
0.00163681
-0.0177715
0.0044878
-0.0214426
-0.0261693
0.0010993
-0.0111309
0.00183701
-0.0133107
0.00234982
-0.0155504
0.00193783
-0.014441
0.000810965
-0.0124588
-0.000779757
-0.010228
-0.00267436
-0.00806204
-0.00476159
-0.00604294
-0.00698171
-0.00415698
-0.00929409
-0.00238148
-0.0116828
-0.000684649
-0.0140257
0.000842685
-0.0160866
0.00208082
-0.0178451
0.00302262
-0.0193922
0.00367349
-0.0206861
0.00397398
-0.0216769
0.00388324
-0.0223141
0.00337164
-0.0225474
0.0024229
-0.0223344
0.00103241
-0.0216466
-0.000795477
-0.0205084
-0.00299931
-0.0189871
-0.00548095
-0.0171551
-0.00813986
-0.0150993
-0.010892
-0.0129282
-0.0137057
-0.0107844
-0.0166037
-0.00885919
-0.0196452
-0.00732853
-0.02292
-0.0266167
0.000874809
-0.0120085
0.000854827
-0.013306
1.95328e-05
-0.0147463
-0.0018168
-0.0126397
-0.00418436
-0.0101186
-0.0067924
-0.00763924
-0.00947662
-0.00539331
-0.0121547
-0.00338026
-0.0147993
-0.00152946
-0.0173694
0.000169819
-0.0197286
0.00165482
-0.0217996
0.00289335
-0.0236445
0.0039048
-0.0252892
0.00464712
-0.0266928
0.00505885
-0.0278131
0.00507949
-0.0286073
0.00466732
-0.029037
0.00379697
-0.0290684
0.00245632
-0.0286796
0.000652642
-0.0278786
-0.00158031
-0.0267082
-0.00414667
-0.0252394
-0.00692027
-0.0235622
-0.00978159
-0.0217881
-0.0126256
-0.0200559
-0.0153932
-0.0185366
-0.0180749
-0.0174138
-0.0207173
-0.016884
-0.0233973
-0.0260373
0.00052117
-0.0125331
-0.000506907
-0.0122925
-0.00275758
-0.0125207
-0.00577465
-0.00964841
-0.009047
-0.00686718
-0.0122908
-0.00441253
-0.015394
-0.00230587
-0.0183183
-0.000472358
-0.0209918
0.00112618
-0.0233579
0.00251657
-0.0254603
0.00373707
-0.0273711
0.00478348
-0.0290893
0.00560216
-0.0305887
0.00612665
-0.0318341
0.00628653
-0.0327899
0.00602104
-0.0334221
0.00528986
-0.0337022
0.00407302
-0.0336103
0.00236669
-0.0331391
0.000190417
-0.0323132
-0.00239038
-0.0311818
-0.00525554
-0.0298175
-0.00825574
-0.028321
-0.0112435
-0.0268198
-0.0140873
-0.0254685
-0.0167006
-0.0244386
-0.0190576
-0.0238925
-0.0212138
-0.0240106
-0.0232277
-0.0250296
5.24747e-06
-0.0125422
-0.0022583
-0.0100414
-0.00577582
-0.00902168
-0.00966049
-0.00578211
-0.0134604
-0.00308366
-0.0169728
-0.000915759
-0.020107
0.000812553
-0.0228393
0.00224326
-0.0252281
0.003497
-0.0273703
0.00463956
-0.0293139
0.0056605
-0.0310683
0.00651718
-0.0326248
0.00713807
-0.0339627
0.00744514
-0.0350553
0.00736201
-0.0358731
0.00682513
-0.0363866
0.00579416
-0.0365719
0.00425459
-0.0364177
0.00221476
-0.0359264
-0.000291992
-0.0351262
-0.00317513
-0.0340655
-0.00629417
-0.0328168
-0.00947635
-0.0314852
-0.0125413
-0.0302066
-0.0153273
-0.0291409
-0.0177234
-0.0284541
-0.0196983
-0.0282972
-0.021322
-0.0288087
-0.0226658
-0.0238108
-0.000691756
-0.0118543
-0.00430996
-0.00643274
-0.00881192
-0.00453264
-0.0131689
-0.00143833
-0.0170453
0.000779387
-0.0203565
0.00238126
-0.023166
0.00360662
-0.0255962
0.00465701
-0.0277472
0.00563023
-0.0296761
0.0065496
-0.0314151
0.0073797
-0.0329727
0.00805435
-0.0343454
0.00849069
-0.0355206
0.00860148
-0.0364779
0.00830266
-0.0371906
0.00752473
-0.0376301
0.00622491
-0.0377726
0.00439363
-0.0376084
0.00205294
-0.0371449
-0.000746763
-0.0364064
-0.00389855
-0.0354346
-0.00724455
-0.0342987
-0.0105849
-0.0331033
-0.0137038
-0.0319868
-0.0164062
-0.0311109
-0.0185576
-0.0306407
-0.0201234
-0.0307239
-0.0211914
-0.0314592
-0.0218811
-0.0224757
-0.0017694
-0.0100882
-0.00660293
-0.00160593
-0.0115575
0.000412995
-0.015785
0.00277915
-0.0192962
0.00427937
-0.0222152
0.00528736
-0.0246746
0.00605143
-0.0267827
0.00674917
-0.0286322
0.00746247
-0.0302835
0.00818264
-0.0317676
0.00884447
-0.0330968
0.00936373
-0.0342737
0.00964807
-0.0352922
0.00960176
-0.0361364
0.00913094
-0.0367806
0.00815639
-0.0371933
0.00662932
-0.0373462
0.00454332
-0.0372258
0.00193496
-0.0368374
-0.00112658
-0.0361976
-0.00452371
-0.0353372
-0.00808412
-0.0343173
-0.0115783
-0.0332364
-0.0147529
-0.0322298
-0.0173762
-0.0314612
-0.0192857
-0.0311017
-0.0204391
-0.031305
-0.0209416
-0.0321522
-0.0209857
-0.0210733
-0.00340099
-0.0066898
-0.00884963
0.00383822
-0.01344
0.00499685
-0.0171606
0.0064915
-0.0202123
0.0073213
-0.0226869
0.00775023
-0.0246969
0.00804786
-0.0263754
0.00841245
-0.0278357
0.00890626
-0.0291455
0.00947479
-0.030333
0.0100133
-0.0314085
0.0104199
-0.0323785
0.0105993
-0.033244
0.0104497
-0.0339939
0.00986568
-0.0346037
0.00875421
-0.035038
0.00705576
-0.0352596
0.00476203
-0.0352446
0.00192245
-0.0349903
-0.00137249
-0.0345021
-0.00499771
-0.0337953
-0.00877076
-0.0329165
-0.0124314
-0.0319524
-0.015686
-0.0310284
-0.0182647
-0.0303068
-0.0199678
-0.0299717
-0.0207314
-0.0301971
-0.0206709
-0.0310766
-0.0200591
-0.0196283
-0.00521986
-0.00147163
-0.0103621
0.00897738
-0.01419
0.0088195
-0.0173625
0.00965675
-0.0198884
0.00983819
-0.0217841
0.00963516
-0.0231878
0.0094389
-0.0243009
0.0095112
-0.0252835
0.00987302
-0.0262004
0.0103746
-0.0270568
0.0108516
-0.0278511
0.0111957
-0.028594
0.0113241
-0.0292965
0.0111355
-0.0299549
0.0105096
-0.0305484
0.0093364
-0.0310425
0.00754246
-0.0313914
0.00510824
-0.0315525
0.00208615
-0.0315082
-0.00140868
-0.0312506
-0.00524139
-0.0307774
-0.00922451
-0.0301109
-0.013073
-0.0293091
-0.0164579
-0.0284794
-0.0190599
-0.0277798
-0.0206292
-0.0274083
-0.0210612
-0.0275745
-0.0204607
-0.0284223
-0.0191652
-0.0181475
-0.00743047
0.00595786
-0.010696
0.0122405
-0.0137123
0.0118312
-0.0164374
0.0123752
-0.0183804
0.0117727
-0.0195099
0.0107544
-0.0200898
0.0100068
-0.0204782
0.00988591
-0.020911
0.0102906
-0.0214087
0.0108559
-0.0219082
0.0113337
-0.022384
0.0116538
-0.0228595
0.0117825
-0.0233636
0.0116237
-0.0239002
0.0110324
-0.0244537
0.00987927
-0.0250021
0.00808406
-0.0255074
0.00561116
-0.0259072
0.00248856
-0.0261564
-0.0011514
-0.0262333
-0.00515104
-0.026117
-0.00932192
-0.0257975
-0.0133684
-0.0252824
-0.016944
-0.0246434
-0.0196655
-0.0240106
-0.0212248
-0.0235807
-0.0214507
-0.0236212
-0.0203772
-0.0243768
-0.0183648
-0.0166276
-0.00629736
0.0122545
-0.00825981
0.0142005
-0.011946
0.0155131
-0.0147009
0.015124
-0.0159718
0.0130355
-0.015989
0.0107618
-0.0153716
0.00937795
-0.0148213
0.00932257
-0.0146873
0.010142
-0.0148022
0.0109551
-0.0149348
0.0114497
-0.015036
0.0117383
-0.0151763
0.0119066
-0.0154176
0.0118501
-0.0157602
0.0113623
-0.0161805
0.0102898
-0.0166773
0.0085747
-0.0172604
0.00619236
-0.0178844
0.00311552
-0.0184693
-0.000558536
-0.0189772
-0.00462994
-0.0193788
-0.00890191
-0.0196173
-0.0131064
-0.019627
-0.0169063
-0.0194006
-0.0198595
-0.019003
-0.0215862
-0.0185992
-0.0218152
-0.0185112
-0.0204235
-0.0191201
-0.0177121
-0.0150795
0.206916
0.0145431
0.206074
0.0172411
0.205151
0.0195167
0.204137
0.0218395
0.203023
0.0242477
0.201795
0.0267677
0.200448
0.0294176
0.198968
0.032219
0.19734
0.0352037
0.19555
0.0384029
0.193597
0.0418401
0.191467
0.0455589
0.18913
0.0496196
0.186572
0.0540793
0.183775
0.0590136
0.180715
0.0645178
0.177366
0.0707218
0.173692
0.0777901
0.169653
0.0859187
0.165209
0.095408
0.160381
0.106588
0.155144
0.119958
0.14963
0.136054
0.144133
0.155461
0.13908
0.179041
0.135684
0.207235
0.136284
0.238474
0.146382
0.268648
0.171147
0.286134
0.281129
0.324055
0.211956
0.0152763
0.211142
0.0180632
0.210255
0.0204156
0.209286
0.0228254
0.20822
0.025332
0.207048
0.0279595
0.205763
0.0307194
0.204353
0.0336427
0.202809
0.0367559
0.201127
0.0400882
0.199292
0.0436722
0.197289
0.0475536
0.195102
0.0517926
0.192725
0.0564394
0.190142
0.0615774
0.187342
0.0672985
0.184308
0.0737369
0.181029
0.0810514
0.177491
0.0894417
0.173735
0.0991518
0.16981
0.110503
0.165839
0.123921
0.162183
0.139704
0.159331
0.158305
0.158308
0.180056
0.161319
0.204213
0.172159
0.22762
0.196896
0.243895
0.236844
0.246176
0.244235
0.273735
0.217126
0.0159846
0.216346
0.0188511
0.215502
0.0212712
0.214582
0.0237602
0.213573
0.0263598
0.21247
0.0290831
0.211268
0.0319404
0.209954
0.0349714
0.208522
0.0381993
0.206962
0.0416529
0.205262
0.0453709
0.203417
0.0493924
0.201424
0.0537742
0.199276
0.0585718
0.196963
0.0638731
0.19448
0.0697627
0.191844
0.0763547
0.18906
0.083818
0.186171
0.0923168
0.183264
0.102046
0.180431
0.113326
0.178001
0.126341
0.176471
0.141224
0.176571
0.158195
0.17972
0.176896
0.188279
0.19564
0.204725
0.211157
0.229252
0.219353
0.256627
0.21879
0.212051
0.288808
0.222425
0.0166626
0.221686
0.0195982
0.220893
0.0220761
0.220032
0.0246353
0.219094
0.0273159
0.218078
0.0301201
0.216973
0.0330657
0.215767
0.0361945
0.214454
0.0395247
0.213032
0.0430822
0.211497
0.0469069
0.209845
0.0510399
0.208079
0.0555316
0.206194
0.0604435
0.204197
0.0658547
0.202099
0.0718433
0.199934
0.0785031
0.197732
0.0860034
0.195594
0.0944415
0.193635
0.103994
0.192059
0.114893
0.191322
0.127067
0.19197
0.140563
0.194866
0.155286
0.201434
0.170313
0.213245
0.183811
0.230738
0.193645
0.252266
0.197808
0.275778
0.195265
0.185189
0.302634
0.22786
0.0173017
0.227172
0.0202954
0.226439
0.02282
0.225649
0.0254399
0.224792
0.0281908
0.223867
0.0310656
0.222865
0.0340888
0.22178
0.0372982
0.22061
0.0407089
0.219353
0.0443488
0.218009
0.0482552
0.21658
0.0524672
0.215071
0.057034
0.213487
0.0620164
0.211853
0.0674754
0.210203
0.0734781
0.208569
0.080122
0.207029
0.0875291
0.205712
0.0957455
0.20478
0.104917
0.204558
0.115106
0.205485
0.126129
0.208108
0.137926
0.213302
0.150074
0.222097
0.161499
0.235007
0.17088
0.251578
0.177054
0.270434
0.178933
0.289994
0.175692
0.16581
0.309364
0.233433
0.0178948
0.232802
0.0209355
0.232135
0.0234983
0.231421
0.0261681
0.230657
0.0289731
0.229839
0.0319045
0.228958
0.0349913
0.228013
0.0382636
0.227004
0.0417347
0.225933
0.0454309
0.224805
0.0493899
0.223626
0.0536469
0.222406
0.0582509
0.221164
0.0632502
0.219931
0.0686969
0.218762
0.0746341
0.217708
0.0811626
0.216873
0.0883516
0.21642
0.0961876
0.216557
0.10477
0.217637
0.114016
0.220051
0.123703
0.224329
0.133634
0.231145
0.143241
0.240925
0.151698
0.253575
0.158207
0.268549
0.162058
0.284821
0.162641
0.301026
0.159471
0.150526
0.316299
0.239147
0.0184347
0.23858
0.0215106
0.237985
0.0241043
0.237361
0.026807
0.236705
0.0296474
0.236004
0.032626
0.235257
0.0357604
0.234469
0.0390735
0.233641
0.0425824
0.232778
0.046309
0.231887
0.0502902
0.230979
0.0545586
0.230073
0.0591552
0.2292
0.0641175
0.228404
0.0694839
0.227743
0.0752854
0.227292
0.0816025
0.227187
0.088445
0.227607
0.0957579
0.228778
0.103589
0.231019
0.111764
0.234687
0.120023
0.240187
0.128118
0.247846
0.135566
0.257714
0.141811
0.26957
0.146329
0.28294
0.148666
0.29708
0.14848
0.311024
0.145508
0.137605
0.323932
0.245009
0.0189103
0.244516
0.022011
0.244001
0.0246301
0.243473
0.02735
0.24293
0.0302085
0.242362
0.0332157
0.241767
0.0363776
0.241152
0.0397118
0.240522
0.0432339
0.239882
0.0469674
0.239243
0.050942
0.238625
0.0551841
0.238055
0.0597268
0.237573
0.0645966
0.237236
0.0698143
0.237102
0.0754119
0.237269
0.0814261
0.237899
0.0878063
0.239153
0.094494
0.241265
0.101469
0.244504
0.108515
0.249115
0.115397
0.255319
0.121897
0.263225
0.127642
0.272784
0.132234
0.283748
0.135344
0.295712
0.136681
0.308168
0.136003
0.320418
0.133239
0.126363
0.331645
0.251015
0.0193173
0.250602
0.0224301
0.250181
0.025062
0.249761
0.0277843
0.249343
0.0306447
0.248919
0.033661
0.248489
0.0368309
0.248057
0.0401672
0.247636
0.0436779
0.247234
0.0473903
0.246868
0.0513262
0.246558
0.0555068
0.246339
0.0599518
0.24627
0.0646674
0.246397
0.0696836
0.24679
0.075013
0.24758
0.0806285
0.248915
0.0864639
0.250941
0.09246
0.253865
0.0985365
0.257864
0.104505
0.263063
0.110183
0.269573
0.11537
0.277421
0.119776
0.286513
0.123123
0.296621
0.125217
0.307422
0.125861
0.318517
0.12489
0.329392
0.122347
0.116375
0.339366
0.25717
0.0196492
0.256848
0.0227589
0.256532
0.0253879
0.256233
0.0280976
0.255952
0.0309429
0.25568
0.0339539
0.255416
0.0371179
0.255181
0.0404259
0.254986
0.0438966
0.254834
0.0475649
0.254751
0.0514294
0.254765
0.0555102
0.254916
0.0598138
0.255258
0.0643321
0.255842
0.0691003
0.256766
0.0740858
0.258165
0.0792244
0.260154
0.0844687
0.262851
0.0897553
0.266398
0.0949825
0.270891
0.100002
0.276408
0.104652
0.283005
0.108756
0.290657
0.112107
0.299233
0.114529
0.308554
0.115877
0.318387
0.116009
0.328374
0.114885
0.338133
0.112572
0.107357
0.347138
0.263481
0.0198979
0.26326
0.0229856
0.26306
0.0255969
0.262885
0.0282854
0.262747
0.0310982
0.26264
0.0340812
0.262559
0.0372211
0.262533
0.0404764
0.262571
0.0438825
0.262679
0.04748
0.262885
0.0512455
0.263227
0.0551869
0.263748
0.059308
0.264495
0.0635979
0.265548
0.0680541
0.26701
0.0726262
0.268969
0.0772633
0.27151
0.0819224
0.274724
0.086535
0.278699
0.0910008
0.283504
0.0951877
0.289183
0.0989601
0.295744
0.102179
0.303122
0.104712
0.311198
0.106437
0.319837
0.107221
0.328833
0.106996
0.337899
0.105803
0.346757
0.103698
0.0991165
0.354986
0.269947
0.0200589
0.269833
0.0231032
0.269765
0.0256733
0.269733
0.0283294
0.26974
0.0311074
0.269797
0.0340433
0.269916
0.037124
0.270108
0.0403078
0.270379
0.0436354
0.270752
0.047131
0.271252
0.0507674
0.271922
0.0545372
0.272815
0.0584325
0.273986
0.062442
0.275511
0.0665406
0.277457
0.0706878
0.279881
0.0748421
0.282852
0.07895
0.286444
0.082939
0.290721
0.0867181
0.295721
0.0901792
0.301457
0.0932129
0.307896
0.095727
0.314966
0.0976274
0.322593
0.0987946
0.33065
0.0991493
0.338931
0.0987002
0.347224
0.097496
0.355338
0.0955703
0.0915216
0.362923
0.276581
0.0201178
0.27658
0.0231068
0.276645
0.0256141
0.276765
0.0282206
0.276929
0.0309581
0.277161
0.033829
0.277483
0.0368228
0.277895
0.0399188
0.278404
0.0431502
0.279043
0.0465153
0.27985
0.0499824
0.280865
0.0535428
0.282137
0.0571795
0.283716
0.0608782
0.285652
0.0646178
0.287993
0.0683577
0.290792
0.0720501
0.294106
0.0756392
0.297987
0.0790577
0.302474
0.082228
0.307583
0.0850641
0.313293
0.0874936
0.31956
0.089448
0.326349
0.0908264
0.333582
0.091549
0.341111
0.0916073
0.348775
0.0910232
0.356426
0.0898324
0.363921
0.0880639
0.0844687
0.370965
0.283383
0.020065
0.283506
0.022984
0.283706
0.0254181
0.283975
0.0279612
0.28431
0.0306358
0.284732
0.0334239
0.285256
0.0363177
0.285886
0.0393104
0.286645
0.0424133
0.28757
0.0456129
0.288693
0.048881
0.290051
0.0522054
0.291675
0.0555745
0.293602
0.0589669
0.29588
0.0623539
0.298553
0.0656963
0.301664
0.0689477
0.305254
0.0720553
0.309354
0.0749604
0.313982
0.0776001
0.319126
0.0799168
0.324757
0.0818553
0.330862
0.0833344
0.337397
0.0842823
0.344253
0.0846818
0.35131
0.0845393
0.358453
0.0838701
0.365565
0.0827089
0.372538
0.0810805
0.0778757
0.379123
0.290348
0.0198988
0.29061
0.0227203
0.29095
0.0250798
0.291371
0.0275469
0.291881
0.0301365
0.292497
0.0328223
0.293234
0.0355982
0.294098
0.0384663
0.29512
0.0414121
0.296333
0.0444202
0.297758
0.0474773
0.299419
0.0505641
0.30135
0.0536617
0.303586
0.0567464
0.306166
0.0597883
0.309123
0.0627503
0.312491
0.065589
0.316296
0.0682568
0.320558
0.0707027
0.325267
0.0728931
0.330397
0.0747852
0.335949
0.0762997
0.3419
0.0773765
0.348175
0.0779995
0.354682
0.0781668
0.361331
0.0778817
0.368029
0.0771628
0.374687
0.0760419
0.381218
0.0745403
0.0716758
0.387412
0.297483
0.0196144
0.297885
0.0223141
0.298377
0.0245876
0.298963
0.0269651
0.299656
0.0294516
0.300474
0.0320172
0.301428
0.0346582
0.302536
0.0373762
0.303816
0.0401499
0.305293
0.0429629
0.306989
0.0458002
0.308929
0.048642
0.311141
0.0514663
0.313655
0.0542481
0.316498
0.0569582
0.319697
0.0595621
0.323274
0.0620211
0.327244
0.064294
0.331613
0.0663381
0.336364
0.0681446
0.341477
0.0696726
0.346945
0.0708289
0.352727
0.0715909
0.35875
0.0719705
0.364946
0.071964
0.371241
0.0715796
0.37756
0.0708364
0.383831
0.0697632
0.389986
0.0683779
0.0658134
0.395843
0.304799
0.0191997
0.305342
0.0217646
0.305993
0.0239338
0.306755
0.026205
0.307641
0.0285706
0.308664
0.0310039
0.309835
0.0334993
0.311173
0.036052
0.312696
0.0386426
0.314423
0.0412526
0.316375
0.0438648
0.318574
0.0464591
0.321042
0.049013
0.323802
0.0515017
0.326875
0.0538974
0.330278
0.056169
0.334024
0.0582835
0.338118
0.0602065
0.342555
0.061905
0.347327
0.0633751
0.352415
0.0645856
0.357786
0.0654572
0.363396
0.0659779
0.369192
0.0661703
0.375115
0.0660359
0.381103
0.0655852
0.387097
0.0648368
0.393036
0.0638165
0.398868
0.0625395
0.0602421
0.404435
0.312301
0.0186434
0.312992
0.0210644
0.313804
0.0231154
0.314745
0.0252631
0.315824
0.0274941
0.31705
0.0297839
0.318435
0.0321224
0.319998
0.0345002
0.321754
0.0368993
0.323719
0.0393006
0.325912
0.0416858
0.32835
0.0440347
0.33105
0.0463253
0.334029
0.0485339
0.337302
0.0506352
0.340877
0.0526021
0.34476
0.0544068
0.34895
0.0560218
0.353436
0.0574217
0.358209
0.0586042
0.36325
0.059546
0.36852
0.0601871
0.373974
0.0605218
0.379567
0.0605734
0.385251
0.0603476
0.390974
0.0598565
0.396687
0.059118
0.402343
0.0581547
0.407897
0.0569796
0.0549224
0.413212
0.319987
0.0179394
0.320831
0.0202069
0.32181
0.0221276
0.32293
0.0241381
0.3242
0.0262231
0.325628
0.0283584
0.327225
0.0305303
0.329007
0.0327261
0.330987
0.0349284
0.333179
0.0371184
0.335597
0.0392776
0.338256
0.0413862
0.341167
0.0434235
0.344342
0.0453676
0.347789
0.0471961
0.351511
0.0488859
0.355508
0.0504143
0.359773
0.0517596
0.364294
0.0529027
0.369057
0.053842
0.374042
0.0545611
0.379212
0.0550168
0.384523
0.0552079
0.389938
0.0551553
0.395413
0.0548674
0.400908
0.0543568
0.40638
0.0536401
0.411791
0.0527371
0.417105
0.0516593
0.0498201
0.422203
0.32786
0.0170831
0.328863
0.0191867
0.330012
0.0209668
0.331312
0.0228294
0.332772
0.0247583
0.3344
0.0267297
0.336204
0.0287269
0.338199
0.0307352
0.340394
0.0327376
0.342802
0.0347161
0.345434
0.0366527
0.348298
0.0385286
0.351403
0.0403247
0.354754
0.0420214
0.358355
0.0435993
0.362205
0.0450392
0.366298
0.0463229
0.370624
0.0474336
0.375169
0.0483575