/*--------------------------------*- C++ -*----------------------------------*\
| =========                 |                                                 |
| \\      /  F ield         | OpenFOAM: The Open Source CFD Toolbox           |
|  \\    /   O peration     | Version:  dev                                   |
|   \\  /    A nd           | Web:      www.OpenFOAM.org                      |
|    \\/     M anipulation  |                                                 |
\*---------------------------------------------------------------------------*/
FoamFile
{
    version     2.0;
    format      ascii;
    class       pointVectorField;
    location    "1.42";
    object      pointDisplacement;
}
// * * * * * * * * * * * * * * * * * * * * * * * * * * * * * * * * * * * * * //

dimensions      [0 1 0 0 0 0 0];

internalField   nonuniform List<vector> 
5828
(
(0 0 0)
(0.0255453 0 0)
(0.0481553 0 0)
(0.0671793 0 0)
(0.0829875 0 0)
(0.0959338 0 0)
(0.106342 0 0)
(0.114491 0 0)
(0.120613 0 0)
(0.124907 0 0)
(0.127548 0 0)
(0.128688 0 0)
(0.128464 0 0)
(0.126991 0 0)
(0.124376 0 0)
(0.120712 0 0)
(0.116083 0 0)
(0.110567 0 0)
(0.104238 0 0)
(0.0971661 0 0)
(0.0894251 0 0)
(0.0810956 0 0)
(0.0722624 0 0)
(0.0630203 0 0)
(0.0534808 0 0)
(0.0437841 0 0)
(0.0341249 0 0)
(0.0248173 0 0)
(0.016448 0 0)
(0.0104369 0 0)
(1.41779e-09 0 0)
(0 0 0)
(0.0255631 0 -0.000330181)
(0.0481885 0 -0.000625694)
(0.0672296 0 -0.000882916)
(0.0830552 0 -0.00110936)
(0.0960182 0 -0.00131039)
(0.106445 0 -0.00148993)
(0.114616 0 -0.00165093)
(0.120761 0 -0.0017951)
(0.125082 0 -0.00192436)
(0.127753 0 -0.00203743)
(0.128927 0 -0.00213237)
(0.128741 0 -0.00220898)
(0.127312 0 -0.00226545)
(0.124747 0 -0.00229926)
(0.121139 0 -0.00230719)
(0.116576 0 -0.00228523)
(0.111136 0 -0.00222829)
(0.104896 0 -0.0021301)
(0.0979259 0 -0.00198259)
(0.0903043 0 -0.00177837)
(0.0821181 0 -0.00150824)
(0.0734589 0 -0.00115873)
(0.0644321 0 -0.000714822)
(0.0551658 0 -0.000158766)
(0.0458248 0 0.000530463)
(0.0366359 0 0.00137734)
(0.0279378 0 0.00241043)
(0.0203531 0 0.00364929)
(0.0155686 0 0.00497101)
(0.00725064 0 0.00722029)
(0 0 0)
(0.0256135 0 -0.000661291)
(0.0482874 0 -0.00125333)
(0.0673759 0 -0.00176877)
(0.0832508 0 -0.0022213)
(0.0962677 0 -0.00262296)
(0.106754 0 -0.00298299)
(0.114989 0 -0.00330608)
(0.121207 0 -0.00359545)
(0.125608 0 -0.00385354)
(0.128367 0 -0.0040795)
(0.129641 0 -0.00427131)
(0.129569 0 -0.00442739)
(0.12827 0 -0.00454407)
(0.125852 0 -0.00461646)
(0.122414 0 -0.00463851)
(0.118045 0 -0.00460261)
(0.112831 0 -0.00449918)
(0.106855 0 -0.00431664)
(0.100194 0 -0.0040404)
(0.092931 0 -0.00365498)
(0.0851691 0 -0.00314235)
(0.0770215 0 -0.00247908)
(0.0686213 0 -0.00163871)
(0.0601382 0 -0.000590671)
(0.0517978 0 0.000699871)
(0.0439429 0 0.00226506)
(0.0370615 0 0.00412411)
(0.0318659 0 0.00626034)
(0.0304389 0 0.008303)
(0.0250667 0 0.0117439)
(0 0 0)
(0.025697 0 -0.000992095)
(0.0484509 0 -0.0018806)
(0.0676163 0 -0.0026546)
(0.0835714 0 -0.00333498)
(0.0966794 0 -0.00393972)
(0.107265 0 -0.00448226)
(0.115608 0 -0.00496973)
(0.121944 0 -0.0054067)
(0.126476 0 -0.00579471)
(0.129383 0 -0.00613546)
(0.130825 0 -0.00642881)
(0.130942 0 -0.00667051)
(0.129858 0 -0.00685513)
(0.127684 0 -0.00697576)
(0.124525 0 -0.00702418)
(0.120478 0 -0.00699001)
(0.115636 0 -0.00686005)
(0.110091 0 -0.0066187)
(0.103937 0 -0.00624766)
(0.0972674 0 -0.00572401)
(0.0902053 0 -0.00502228)
(0.0828929 0 -0.00411439)
(0.0755108 0 -0.00297044)
(0.0682937 0 -0.00155806)
(0.0615408 0 0.000159061)
(0.0557235 0 0.0021987)
(0.0515997 0 0.00451694)
(0.050217 0 0.00696456)
(0.0538296 0 0.00880653)
(0.0523592 0 0.0124953)
(0 0 0)
(0.0258125 0 -0.00132147)
(0.0486779 0 -0.00250544)
(0.0679523 0 -0.0035377)
(0.084021 0 -0.00444714)
(0.0972532 0 -0.00525683)
(0.107975 0 -0.00598363)
(0.116465 0 -0.00663782)
(0.122965 0 -0.0072256)
(0.12768 0 -0.00774958)
(0.130793 0 -0.00821273)
(0.132468 0 -0.00861513)
(0.132848 0 -0.0089515)
(0.132062 0 -0.00921528)
(0.130226 0 -0.00939795)
(0.127452 0 -0.00949017)
(0.123847 0 -0.00947999)
(0.119514 0 -0.00935155)
(0.114558 0 -0.00908656)
(0.109088 0 -0.00866396)
(0.103227 0 -0.00805975)
(0.0971274 0 -0.00724781)
(0.0909614 0 -0.00619857)
(0.0849591 0 -0.00488405)
(0.0794362 0 -0.00328312)
(0.0748106 0 -0.00138524)
(0.071669 0 0.000785513)
(0.0709634 0 0.00309882)
(0.0742814 0 0.00516744)
(0.0842479 0 0.00578142)
(0.0873109 0 0.00885104)
(0 0 0)
(0.0259588 0 -0.00164909)
(0.048966 0 -0.00312732)
(0.0683807 0 -0.00441743)
(0.0845941 0 -0.00555583)
(0.0979824 0 -0.00657093)
(0.108875 0 -0.00748355)
(0.117552 0 -0.00830695)
(0.124258 0 -0.00904922)
(0.129206 0 -0.00971573)
(0.132582 0 -0.0103097)
(0.134551 0 -0.0108302)
(0.135263 0 -0.0112724)
(0.134852 0 -0.0116295)
(0.133441 0 -0.0118915)
(0.131151 0 -0.0120497)
(0.128103 0 -0.0120924)
(0.124411 0 -0.0120022)
(0.120197 0 -0.0117604)
(0.115587 0 -0.0113456)
(0.110732 0 -0.0107356)
(0.105823 0 -0.00990941)
(0.101081 0 -0.00884506)
(0.0967804 0 -0.00752349)
(0.0933155 0 -0.0059462)
(0.0912418 0 -0.00415028)
(0.0913254 0 -0.00224206)
(0.094714 0 -0.000477098)
(0.103295 0 0.000515272)
(0.120464 0 -0.00109051)
(0.128541 0 0.000660609)
(0 0 0)
(0.026134 0 -0.00197455)
(0.0493125 0 -0.00374557)
(0.0688974 0 -0.00529307)
(0.0852851 0 -0.00666054)
(0.0988601 0 -0.00788185)
(0.109957 0 -0.0089823)
(0.118859 0 -0.00997813)
(0.125814 0 -0.0108791)
(0.13104 0 -0.0116935)
(0.13473 0 -0.0124259)
(0.137051 0 -0.0130748)
(0.138159 0 -0.0136363)
(0.138197 0 -0.0141042)
(0.137297 0 -0.0144694)
(0.135589 0 -0.0147229)
(0.133204 0 -0.0148529)
(0.130273 0 -0.0148437)
(0.126936 0 -0.014679)
(0.123349 0 -0.0143422)
(0.119681 0 -0.0138131)
(0.116161 0 -0.0130798)
(0.113073 0 -0.0121395)
(0.110749 0 -0.0109932)
(0.109662 0 -0.00967645)
(0.110496 0 -0.00829003)
(0.114202 0 -0.0070422)
(0.122225 0 -0.00637258)
(0.136606 0 -0.00715197)
(0.161628 0 -0.0119409)
(0.174922 0 -0.0121702)
(0 0 0)
(0.026337 0 -0.00229823)
(0.0497154 0 -0.00436098)
(0.0694989 0 -0.00616474)
(0.0860877 0 -0.00776058)
(0.0998785 0 -0.00918904)
(0.111212 0 -0.0104798)
(0.120374 0 -0.011652)
(0.127619 0 -0.0127186)
(0.133171 0 -0.0136896)
(0.137224 0 -0.01457)
(0.139951 0 -0.0153593)
(0.141516 0 -0.0160552)
(0.142072 0 -0.0166534)
(0.141763 0 -0.0171483)
(0.140726 0 -0.0175293)
(0.139099 0 -0.0177832)
(0.137034 0 -0.0179005)
(0.134691 0 -0.0178695)
(0.132258 0 -0.0176823)
(0.129938 0 -0.0173293)
(0.127988 0 -0.0168092)
(0.126748 0 -0.0161411)
(0.126626 0 -0.0153611)
(0.128179 0 -0.0145505)
(0.132209 0 -0.0138832)
(0.13986 0 -0.0136946)
(0.152816 0 -0.0146205)
(0.173529 0 -0.0178705)
(0.207054 0 -0.0267938)
(0.225337 0 -0.0295253)
(0 0 0)
(0.0265664 0 -0.00262041)
(0.0501677 0 -0.00497371)
(0.0701728 0 -0.00703255)
(0.0869925 0 -0.00885681)
(0.101031 0 -0.0104944)
(0.112634 0 -0.0119784)
(0.122092 0 -0.0133318)
(0.129666 0 -0.0145722)
(0.135586 0 -0.0157094)
(0.140046 0 -0.0167478)
(0.143229 0 -0.01769)
(0.145306 0 -0.0185361)
(0.146438 0 -0.0192838)
(0.146783 0 -0.0199304)
(0.146487 0 -0.0204675)
(0.1457 0 -0.0208839)
(0.144596 0 -0.0211776)
(0.143359 0 -0.0213453)
(0.142198 0 -0.0213866)
(0.141362 0 -0.0213085)
(0.14113 0 -0.0211233)
(0.141894 0 -0.0208774)
(0.144155 0 -0.0206547)
(0.148562 0 -0.0205951)
(0.15602 0 -0.0209538)
(0.167872 0 -0.0222109)
(0.186083 0 -0.0252366)
(0.213867 0 -0.031738)
(0.256359 0 -0.0456533)
(0.278865 0 -0.0510458)
(0 0 0)
(0.0268194 0 -0.00293963)
(0.0506639 0 -0.00558126)
(0.0709132 0 -0.00789514)
(0.0879931 0 -0.00994972)
(0.10231 0 -0.0117987)
(0.114213 0 -0.0134794)
(0.123999 0 -0.0150186)
(0.131936 0 -0.0164368)
(0.138256 0 -0.0177457)
(0.143162 0 -0.0189516)
(0.146843 0 -0.0200594)
(0.14948 0 -0.0210719)
(0.15124 0 -0.0219886)
(0.152291 0 -0.0228104)
(0.1528 0 -0.0235351)
(0.152929 0 -0.0241576)
(0.152871 0 -0.0246817)
(0.152835 0 -0.0251141)
(0.153046 0 -0.0254626)
(0.153779 0 -0.0257494)
(0.155375 0 -0.0260166)
(0.158274 0 -0.0263426)
(0.163048 0 -0.0268576)
(0.17045 0 -0.0277742)
(0.181532 0 -0.0294545)
(0.197817 0 -0.0325298)
(0.221758 0 -0.0381946)
(0.257316 0 -0.0487162)
(0.308589 0 -0.0681457)
(0.334757 0 -0.0763785)
(0 0 0)
(0.0270931 0 -0.00325449)
(0.0512028 0 -0.00618145)
(0.0717197 0 -0.00874956)
(0.0890825 0 -0.011035)
(0.103702 0 -0.0130967)
(0.115929 0 -0.0149765)
(0.126071 0 -0.0167049)
(0.134397 0 -0.0183046)
(0.141148 0 -0.0197911)
(0.146535 0 -0.0211745)
(0.150753 0 -0.0224605)
(0.153991 0 -0.0236561)
(0.156429 0 -0.0247657)
(0.158243 0 -0.0257923)
(0.159612 0 -0.0267389)
(0.160721 0 -0.0276096)
(0.161772 0 -0.0284135)
(0.162987 0 -0.0291648)
(0.164629 0 -0.02989)
(0.167008 0 -0.0306325)
(0.170518 0 -0.0314662)
(0.175635 0 -0.0325002)
(0.182995 0 -0.0339153)
(0.193473 0 -0.0360083)
(0.208272 0 -0.0392573)
(0.229187 0 -0.0444908)
(0.25917 0 -0.0532471)
(0.302527 0 -0.0682516)
(0.361674 0 -0.0932296)
(0.392236 0 -0.105031)
(0 0 0)
(0.0273851 0 -0.00356439)
(0.0517794 0 -0.00677305)
(0.0725832 0 -0.00959294)
(0.0902486 0 -0.012108)
(0.105191 0 -0.0143829)
(0.117766 0 -0.0164638)
(0.128287 0 -0.018385)
(0.137028 0 -0.0201713)
(0.144239 0 -0.0218431)
(0.150139 0 -0.0234145)
(0.154929 0 -0.024894)
(0.15881 0 -0.0262922)
(0.16197 0 -0.0276185)
(0.164592 0 -0.0288773)
(0.166858 0 -0.0300747)
(0.168977 0 -0.0312255)
(0.17117 0 -0.0323504)
(0.173683 0 -0.0334764)
(0.176802 0 -0.0346466)
(0.180874 0 -0.0359275)
(0.18633 0 -0.0374222)
(0.193692 0 -0.0392788)
(0.203668 0 -0.0417343)
(0.217238 0 -0.0451689)
(0.235758 0 -0.0501837)
(0.261319 0 -0.0578167)
(0.297219 0 -0.0699108)
(0.347915 0 -0.0895695)
(0.413974 0 -0.119872)
(0.450641 0 -0.136249)
(0 0 0)
(0.0276932 0 -0.00386868)
(0.0523882 0 -0.00735479)
(0.0734956 0 -0.0104235)
(0.0914815 0 -0.0131669)
(0.106766 0 -0.0156553)
(0.119709 0 -0.017939)
(0.130629 0 -0.0200562)
(0.139811 0 -0.0220361)
(0.14751 0 -0.0239028)
(0.153951 0 -0.0256729)
(0.159346 0 -0.0273605)
(0.163899 0 -0.0289779)
(0.167803 0 -0.0305361)
(0.171252 0 -0.032046)
(0.174442 0 -0.0335206)
(0.177597 0 -0.0349852)
(0.180964 0 -0.0364742)
(0.184808 0 -0.0380281)
(0.189424 0 -0.0397015)
(0.195191 0 -0.041586)
(0.202582 0 -0.0438175)
(0.212168 0 -0.0465858)
(0.224725 0 -0.0501873)
(0.241316 0 -0.0550806)
(0.263445 0 -0.0619886)
(0.293461 0 -0.0721538)
(0.334975 0 -0.0877145)
(0.392505 0 -0.112056)
(0.464634 0 -0.147314)
(0.509472 0 -0.16924)
(0 0 0)
(0.0280149 0 -0.0041667)
(0.0530241 0 -0.00792538)
(0.0744501 0 -0.0112404)
(0.0927747 0 -0.0142116)
(0.10842 0 -0.016914)
(0.121749 0 -0.0194022)
(0.133088 0 -0.0217192)
(0.142733 0 -0.0238999)
(0.150943 0 -0.0259694)
(0.157944 0 -0.0279463)
(0.163959 0 -0.02985)
(0.169196 0 -0.0316962)
(0.173855 0 -0.0334989)
(0.178145 0 -0.0352784)
(0.182281 0 -0.0370585)
(0.186502 0 -0.0388734)
(0.191058 0 -0.0407632)
(0.19622 0 -0.0427792)
(0.20232 0 -0.0450003)
(0.209771 0 -0.047545)
(0.219052 0 -0.0505695)
(0.230781 0 -0.0543069)
(0.245808 0 -0.0591168)
(0.26526 0 -0.0655295)
(0.290774 0 -0.0743878)
(0.324918 0 -0.0871249)
(0.37158 0 -0.106157)
(0.435188 0 -0.135002)
(0.512344 0 -0.174621)
(0.568402 0 -0.203324)
(0 0 0)
(0.0283497 0 -0.00445852)
(0.0536896 0 -0.00848553)
(0.0754511 0 -0.012045)
(0.0941261 0 -0.0152429)
(0.110143 0 -0.0181586)
(0.123872 0 -0.0208525)
(0.135648 0 -0.0233719)
(0.145769 0 -0.0257554)
(0.154498 0 -0.0280305)
(0.16207 0 -0.0302199)
(0.168712 0 -0.0323461)
(0.174642 0 -0.0344307)
(0.180073 0 -0.0364956)
(0.185221 0 -0.038566)
(0.190314 0 -0.0406744)
(0.19559 0 -0.0428592)
(0.20131 0 -0.0451708)
(0.207771 0 -0.0476792)
(0.215329 0 -0.0504846)
(0.2244 0 -0.0537194)
(0.235477 0 -0.0575658)
(0.249237 0 -0.062304)
(0.266558 0 -0.0683394)
(0.288615 0 -0.0762678)
(0.317148 0 -0.08704)
(0.354808 0 -0.102217)
(0.405621 0 -0.124426)
(0.473826 0 -0.15722)
(0.55458 0 -0.200425)
(0.627207 0 -0.237931)
(0 0 0)
(0.0286993 0 -0.00474642)
(0.0543868 0 -0.00903948)
(0.0764991 0 -0.0128414)
(0.0955336 0 -0.0162639)
(0.111933 0 -0.019393)
(0.126077 0 -0.0222943)
(0.138302 0 -0.0250185)
(0.148911 0 -0.0276073)
(0.158171 0 -0.0300922)
(0.166327 0 -0.0325016)
(0.173615 0 -0.0348627)
(0.180258 0 -0.0372015)
(0.186478 0 -0.0395462)
(0.192492 0 -0.0419248)
(0.198527 0 -0.0443736)
(0.20484 0 -0.0469439)
(0.21171 0 -0.0497007)
(0.219449 0 -0.0527289)
(0.228407 0 -0.0561371)
(0.239003 0 -0.0600744)
(0.251777 0 -0.0647599)
(0.267414 0 -0.0705025)
(0.286792 0 -0.0777389)
(0.311099 0 -0.0871126)
(0.342073 0 -0.0996342)
(0.382306 0 -0.116925)
(0.435576 0 -0.141633)
(0.505287 0 -0.17713)
(0.585664 0 -0.22293)
(0.685947 0 -0.27276)
(0 0 0)
(0.0255453 0 0)
(0.0481553 0 0)
(0.0671793 0 0)
(0.0829875 0 0)
(0.0959338 0 0)
(0.106342 0 0)
(0.114491 0 0)
(0.120613 0 0)
(0.124907 0 0)
(0.127548 0 0)
(0.128688 0 0)
(0.128464 0 0)
(0.126991 0 0)
(0.124376 0 0)
(0.120712 0 0)
(0.116083 0 0)
(0.110567 0 0)
(0.104238 0 0)
(0.0971661 0 0)
(0.0894251 0 0)
(0.0810956 0 0)
(0.0722624 0 0)
(0.0630203 0 0)
(0.0534808 0 0)
(0.0437841 0 0)
(0.0341249 0 0)
(0.0248173 0 0)
(0.016448 0 0)
(0.0104369 0 0)
(0 0 0)
(0 0 0)
(0.0255631 0 -0.000330181)
(0.0481885 0 -0.000625694)
(0.0672296 0 -0.000882916)
(0.0830552 0 -0.00110936)
(0.0960182 0 -0.00131039)
(0.106445 0 -0.00148993)
(0.114616 0 -0.00165093)
(0.120761 0 -0.0017951)
(0.125082 0 -0.00192436)
(0.127753 0 -0.00203743)
(0.128927 0 -0.00213237)
(0.128741 0 -0.00220898)
(0.127312 0 -0.00226545)
(0.124747 0 -0.00229926)
(0.121139 0 -0.00230719)
(0.116576 0 -0.00228523)
(0.111136 0 -0.00222829)
(0.104896 0 -0.0021301)
(0.0979259 0 -0.00198259)
(0.0903043 0 -0.00177837)
(0.0821181 0 -0.00150824)
(0.0734589 0 -0.00115873)
(0.0644321 0 -0.000714822)
(0.0551658 0 -0.000158766)
(0.0458248 0 0.000530463)
(0.0366359 0 0.00137734)
(0.0279378 0 0.00241043)
(0.0203531 0 0.00364929)
(0.0155686 0 0.00497101)
(0.00725064 0 0.00722029)
(0 0 0)
(0.0256135 0 -0.000661291)
(0.0482874 0 -0.00125333)
(0.0673759 0 -0.00176877)
(0.0832508 0 -0.0022213)
(0.0962677 0 -0.00262296)
(0.106754 0 -0.00298299)
(0.114989 0 -0.00330608)
(0.121207 0 -0.00359545)
(0.125608 0 -0.00385354)
(0.128367 0 -0.0040795)
(0.129641 0 -0.00427131)
(0.129569 0 -0.00442739)
(0.12827 0 -0.00454407)
(0.125852 0 -0.00461646)
(0.122414 0 -0.00463851)
(0.118045 0 -0.00460261)
(0.112831 0 -0.00449918)
(0.106855 0 -0.00431664)
(0.100194 0 -0.0040404)
(0.092931 0 -0.00365498)
(0.0851691 0 -0.00314235)
(0.0770215 0 -0.00247908)
(0.0686213 0 -0.00163871)
(0.0601382 0 -0.000590671)
(0.0517978 0 0.000699871)
(0.0439429 0 0.00226506)
(0.0370615 0 0.00412411)
(0.0318659 0 0.00626034)
(0.0304389 0 0.008303)
(0.0250667 0 0.0117439)
(0 0 0)
(0.025697 0 -0.000992095)
(0.0484509 0 -0.0018806)
(0.0676163 0 -0.0026546)
(0.0835714 0 -0.00333498)
(0.0966794 0 -0.00393972)
(0.107265 0 -0.00448226)
(0.115608 0 -0.00496973)
(0.121944 0 -0.0054067)
(0.126476 0 -0.00579471)
(0.129383 0 -0.00613546)
(0.130825 0 -0.00642881)
(0.130942 0 -0.00667051)
(0.129858 0 -0.00685513)
(0.127684 0 -0.00697576)
(0.124525 0 -0.00702418)
(0.120478 0 -0.00699001)
(0.115636 0 -0.00686005)
(0.110091 0 -0.0066187)
(0.103937 0 -0.00624766)
(0.0972674 0 -0.00572401)
(0.0902053 0 -0.00502228)
(0.0828929 0 -0.00411439)
(0.0755108 0 -0.00297044)
(0.0682937 0 -0.00155806)
(0.0615408 0 0.000159061)
(0.0557235 0 0.0021987)
(0.0515997 0 0.00451694)
(0.050217 0 0.00696456)
(0.0538296 0 0.00880653)
(0.0523592 0 0.0124953)
(0 0 0)
(0.0258125 0 -0.00132147)
(0.0486779 0 -0.00250544)
(0.0679523 0 -0.0035377)
(0.084021 0 -0.00444714)
(0.0972532 0 -0.00525683)
(0.107975 0 -0.00598363)
(0.116465 0 -0.00663782)
(0.122965 0 -0.0072256)
(0.12768 0 -0.00774958)
(0.130793 0 -0.00821273)
(0.132468 0 -0.00861513)
(0.132848 0 -0.0089515)
(0.132062 0 -0.00921528)
(0.130226 0 -0.00939795)
(0.127452 0 -0.00949017)
(0.123847 0 -0.00947999)
(0.119514 0 -0.00935155)
(0.114558 0 -0.00908656)
(0.109088 0 -0.00866396)
(0.103227 0 -0.00805975)
(0.0971274 0 -0.00724781)
(0.0909614 0 -0.00619857)
(0.0849591 0 -0.00488405)
(0.0794362 0 -0.00328312)
(0.0748106 0 -0.00138524)
(0.071669 0 0.000785513)
(0.0709634 0 0.00309882)
(0.0742814 0 0.00516744)
(0.0842479 0 0.00578142)
(0.0873109 0 0.00885104)
(0 0 0)
(0.0259588 0 -0.00164909)
(0.048966 0 -0.00312732)
(0.0683807 0 -0.00441743)
(0.0845941 0 -0.00555583)
(0.0979824 0 -0.00657093)
(0.108875 0 -0.00748355)
(0.117552 0 -0.00830695)
(0.124258 0 -0.00904922)
(0.129206 0 -0.00971573)
(0.132582 0 -0.0103097)
(0.134551 0 -0.0108302)
(0.135263 0 -0.0112724)
(0.134852 0 -0.0116295)
(0.133441 0 -0.0118915)
(0.131151 0 -0.0120497)
(0.128103 0 -0.0120924)
(0.124411 0 -0.0120022)
(0.120197 0 -0.0117604)
(0.115587 0 -0.0113456)
(0.110732 0 -0.0107356)
(0.105823 0 -0.00990941)
(0.101081 0 -0.00884506)
(0.0967804 0 -0.00752349)
(0.0933155 0 -0.0059462)
(0.0912418 0 -0.00415028)
(0.0913254 0 -0.00224206)
(0.094714 0 -0.000477098)
(0.103295 0 0.000515272)
(0.120464 0 -0.00109051)
(0.128541 0 0.000660609)
(0 0 0)
(0.026134 0 -0.00197455)
(0.0493125 0 -0.00374557)
(0.0688974 0 -0.00529307)
(0.0852851 0 -0.00666054)
(0.0988601 0 -0.00788185)
(0.109957 0 -0.0089823)
(0.118859 0 -0.00997813)
(0.125814 0 -0.0108791)
(0.13104 0 -0.0116935)
(0.13473 0 -0.0124259)
(0.137051 0 -0.0130748)
(0.138159 0 -0.0136363)
(0.138197 0 -0.0141042)
(0.137297 0 -0.0144694)
(0.135589 0 -0.0147229)
(0.133204 0 -0.0148529)
(0.130273 0 -0.0148437)
(0.126936 0 -0.014679)
(0.123349 0 -0.0143422)
(0.119681 0 -0.0138131)
(0.116161 0 -0.0130798)
(0.113073 0 -0.0121395)
(0.110749 0 -0.0109932)
(0.109662 0 -0.00967645)
(0.110496 0 -0.00829003)
(0.114202 0 -0.0070422)
(0.122225 0 -0.00637258)
(0.136606 0 -0.00715197)
(0.161628 0 -0.0119409)
(0.174922 0 -0.0121702)
(0 0 0)
(0.026337 0 -0.00229823)
(0.0497154 0 -0.00436098)
(0.0694989 0 -0.00616474)
(0.0860877 0 -0.00776058)
(0.0998785 0 -0.00918904)
(0.111212 0 -0.0104798)
(0.120374 0 -0.011652)
(0.127619 0 -0.0127186)
(0.133171 0 -0.0136896)
(0.137224 0 -0.01457)
(0.139951 0 -0.0153593)
(0.141516 0 -0.0160552)
(0.142072 0 -0.0166534)
(0.141763 0 -0.0171483)
(0.140726 0 -0.0175293)
(0.139099 0 -0.0177832)
(0.137034 0 -0.0179005)
(0.134691 0 -0.0178695)
(0.132258 0 -0.0176823)
(0.129938 0 -0.0173293)
(0.127988 0 -0.0168092)
(0.126748 0 -0.0161411)
(0.126626 0 -0.0153611)
(0.128179 0 -0.0145505)
(0.132209 0 -0.0138832)
(0.13986 0 -0.0136946)
(0.152816 0 -0.0146205)
(0.173529 0 -0.0178705)
(0.207054 0 -0.0267938)
(0.225337 0 -0.0295253)
(0 0 0)
(0.0265664 0 -0.00262041)
(0.0501677 0 -0.00497371)
(0.0701728 0 -0.00703255)
(0.0869925 0 -0.00885681)
(0.101031 0 -0.0104944)
(0.112634 0 -0.0119784)
(0.122092 0 -0.0133318)
(0.129666 0 -0.0145722)
(0.135586 0 -0.0157094)
(0.140046 0 -0.0167478)
(0.143229 0 -0.01769)
(0.145306 0 -0.0185361)
(0.146438 0 -0.0192838)
(0.146783 0 -0.0199304)
(0.146487 0 -0.0204675)
(0.1457 0 -0.0208839)
(0.144596 0 -0.0211776)
(0.143359 0 -0.0213453)
(0.142198 0 -0.0213866)
(0.141362 0 -0.0213085)
(0.14113 0 -0.0211233)
(0.141894 0 -0.0208774)
(0.144155 0 -0.0206547)
(0.148562 0 -0.0205951)
(0.15602 0 -0.0209538)
(0.167872 0 -0.0222109)
(0.186083 0 -0.0252366)
(0.213867 0 -0.031738)
(0.256359 0 -0.0456533)
(0.278865 0 -0.0510458)
(0 0 0)
(0.0268194 0 -0.00293963)
(0.0506639 0 -0.00558126)
(0.0709132 0 -0.00789514)
(0.0879931 0 -0.00994972)
(0.10231 0 -0.0117987)
(0.114213 0 -0.0134794)
(0.123999 0 -0.0150186)
(0.131936 0 -0.0164368)
(0.138256 0 -0.0177457)
(0.143162 0 -0.0189516)
(0.146843 0 -0.0200594)
(0.14948 0 -0.0210719)
(0.15124 0 -0.0219886)
(0.152291 0 -0.0228104)
(0.1528 0 -0.0235351)
(0.152929 0 -0.0241576)
(0.152871 0 -0.0246817)
(0.152835 0 -0.0251141)
(0.153046 0 -0.0254626)
(0.153779 0 -0.0257494)
(0.155375 0 -0.0260166)
(0.158274 0 -0.0263426)
(0.163048 0 -0.0268576)
(0.17045 0 -0.0277742)
(0.181532 0 -0.0294545)
(0.197817 0 -0.0325298)
(0.221758 0 -0.0381946)
(0.257316 0 -0.0487162)
(0.308589 0 -0.0681457)
(0.334757 0 -0.0763785)
(0 0 0)
(0.0270931 0 -0.00325449)
(0.0512028 0 -0.00618145)
(0.0717197 0 -0.00874956)
(0.0890825 0 -0.011035)
(0.103702 0 -0.0130967)
(0.115929 0 -0.0149765)
(0.126071 0 -0.0167049)
(0.134397 0 -0.0183046)
(0.141148 0 -0.0197911)
(0.146535 0 -0.0211745)
(0.150753 0 -0.0224605)
(0.153991 0 -0.0236561)
(0.156429 0 -0.0247657)
(0.158243 0 -0.0257923)
(0.159612 0 -0.0267389)
(0.160721 0 -0.0276096)
(0.161772 0 -0.0284135)
(0.162987 0 -0.0291648)
(0.164629 0 -0.02989)
(0.167008 0 -0.0306325)
(0.170518 0 -0.0314662)
(0.175635 0 -0.0325002)
(0.182995 0 -0.0339153)
(0.193473 0 -0.0360083)
(0.208272 0 -0.0392573)
(0.229187 0 -0.0444908)
(0.25917 0 -0.0532471)
(0.302527 0 -0.0682516)
(0.361674 0 -0.0932296)
(0.392236 0 -0.105031)
(0 0 0)
(0.0273851 0 -0.00356439)
(0.0517794 0 -0.00677305)
(0.0725832 0 -0.00959294)
(0.0902486 0 -0.012108)
(0.105191 0 -0.0143829)
(0.117766 0 -0.0164638)
(0.128287 0 -0.018385)
(0.137028 0 -0.0201713)
(0.144239 0 -0.0218431)
(0.150139 0 -0.0234145)
(0.154929 0 -0.024894)
(0.15881 0 -0.0262922)
(0.16197 0 -0.0276185)
(0.164592 0 -0.0288773)
(0.166858 0 -0.0300747)
(0.168977 0 -0.0312255)
(0.17117 0 -0.0323504)
(0.173683 0 -0.0334764)
(0.176802 0 -0.0346466)
(0.180874 0 -0.0359275)
(0.18633 0 -0.0374222)
(0.193692 0 -0.0392788)
(0.203668 0 -0.0417343)
(0.217238 0 -0.0451689)
(0.235758 0 -0.0501837)
(0.261319 0 -0.0578167)
(0.297219 0 -0.0699108)
(0.347915 0 -0.0895695)
(0.413974 0 -0.119872)
(0.450641 0 -0.136249)
(0 0 0)
(0.0276932 0 -0.00386868)
(0.0523882 0 -0.00735479)
(0.0734956 0 -0.0104235)
(0.0914815 0 -0.0131669)
(0.106766 0 -0.0156553)
(0.119709 0 -0.017939)
(0.130629 0 -0.0200562)
(0.139811 0 -0.0220361)
(0.14751 0 -0.0239028)
(0.153951 0 -0.0256729)
(0.159346 0 -0.0273605)
(0.163899 0 -0.0289779)
(0.167803 0 -0.0305361)
(0.171252 0 -0.032046)
(0.174442 0 -0.0335206)
(0.177597 0 -0.0349852)
(0.180964 0 -0.0364742)
(0.184808 0 -0.0380281)
(0.189424 0 -0.0397015)
(0.195191 0 -0.041586)
(0.202582 0 -0.0438175)
(0.212168 0 -0.0465858)
(0.224725 0 -0.0501873)
(0.241316 0 -0.0550806)
(0.263445 0 -0.0619886)
(0.293461 0 -0.0721538)
(0.334975 0 -0.0877145)
(0.392505 0 -0.112056)
(0.464634 0 -0.147314)
(0.509472 0 -0.16924)
(0 0 0)
(0.0280149 0 -0.0041667)
(0.0530241 0 -0.00792538)
(0.0744501 0 -0.0112404)
(0.0927747 0 -0.0142116)
(0.10842 0 -0.016914)
(0.121749 0 -0.0194022)
(0.133088 0 -0.0217192)
(0.142733 0 -0.0238999)
(0.150943 0 -0.0259694)
(0.157944 0 -0.0279463)
(0.163959 0 -0.02985)
(0.169196 0 -0.0316962)
(0.173855 0 -0.0334989)
(0.178145 0 -0.0352784)
(0.182281 0 -0.0370585)
(0.186502 0 -0.0388734)
(0.191058 0 -0.0407632)
(0.19622 0 -0.0427792)
(0.20232 0 -0.0450003)
(0.209771 0 -0.047545)
(0.219052 0 -0.0505695)
(0.230781 0 -0.0543069)
(0.245808 0 -0.0591168)
(0.26526 0 -0.0655295)
(0.290774 0 -0.0743878)
(0.324918 0 -0.0871249)
(0.37158 0 -0.106157)
(0.435188 0 -0.135002)
(0.512344 0 -0.174621)
(0.568402 0 -0.203324)
(0 0 0)
(0.0283497 0 -0.00445852)
(0.0536896 0 -0.00848553)
(0.0754511 0 -0.012045)
(0.0941261 0 -0.0152429)
(0.110143 0 -0.0181586)
(0.123872 0 -0.0208525)
(0.135648 0 -0.0233719)
(0.145769 0 -0.0257554)
(0.154498 0 -0.0280305)
(0.16207 0 -0.0302199)
(0.168712 0 -0.0323461)
(0.174642 0 -0.0344307)
(0.180073 0 -0.0364956)
(0.185221 0 -0.038566)
(0.190314 0 -0.0406744)
(0.19559 0 -0.0428592)
(0.20131 0 -0.0451708)
(0.207771 0 -0.0476792)
(0.215329 0 -0.0504846)
(0.2244 0 -0.0537194)
(0.235477 0 -0.0575658)
(0.249237 0 -0.062304)
(0.266558 0 -0.0683394)
(0.288615 0 -0.0762678)
(0.317148 0 -0.08704)
(0.354808 0 -0.102217)
(0.405621 0 -0.124426)
(0.473826 0 -0.15722)
(0.55458 0 -0.200425)
(0.627207 0 -0.237931)
(0 0 0)
(0.0286993 0 -0.00474642)
(0.0543868 0 -0.00903948)
(0.0764991 0 -0.0128414)
(0.0955336 0 -0.0162639)
(0.111933 0 -0.019393)
(0.126077 0 -0.0222943)
(0.138302 0 -0.0250185)
(0.148911 0 -0.0276073)
(0.158171 0 -0.0300922)
(0.166327 0 -0.0325016)
(0.173615 0 -0.0348627)
(0.180258 0 -0.0372015)
(0.186478 0 -0.0395462)
(0.192492 0 -0.0419248)
(0.198527 0 -0.0443736)
(0.20484 0 -0.0469439)
(0.21171 0 -0.0497007)
(0.219449 0 -0.0527289)
(0.228407 0 -0.0561371)
(0.239003 0 -0.0600744)
(0.251777 0 -0.0647599)
(0.267414 0 -0.0705025)
(0.286792 0 -0.0777389)
(0.311099 0 -0.0871126)
(0.342073 0 -0.0996342)
(0.382306 0 -0.116925)
(0.435576 0 -0.141633)
(0.505287 0 -0.17713)
(0.585664 0 -0.22293)
(0.685947 0 -0.27276)
(1.12497e-09 0 0)
(0.0274656 0 0)
(0.0794278 0 0)
(0.189929 0 0)
(0.317936 0 0)
(0.40394 0 0)
(0.450995 0 0)
(0.477467 0 0)
(0.493222 0 0)
(0.502482 0 0)
(0.507124 0 0)
(0.508101 0 0)
(0.505941 0 0)
(0.500952 0 0)
(0.493307 0 0)
(0.483101 0 0)
(0.470369 0 0)
(0.455115 0 0)
(0.437316 0 0)
(0.416905 0 0)
(0.393836 0 0)
(0.368072 0 0)
(0.339507 0 0)
(0.308035 0 0)
(0.273578 0 0)
(0.23605 0 0)
(0.195365 0 0)
(0.151436 0 0)
(0.10419 0 0)
(0.0534583 0 0)
(0 0 0)
(0.00558602 0 -0.00918988)
(0.0326354 0 -0.0120424)
(0.0860793 0 -0.0183791)
(0.196583 0 -0.026856)
(0.321987 0 -0.0322757)
(0.405992 0 -0.033434)
(0.452208 0 -0.0328738)
(0.478303 0 -0.0315801)
(0.493856 0 -0.029969)
(0.502989 0 -0.0282477)
(0.50754 0 -0.0265034)
(0.508446 0 -0.024789)
(0.506229 0 -0.0231336)
(0.501193 0 -0.0215526)
(0.49351 0 -0.0200445)
(0.483272 0 -0.0186147)
(0.470513 0 -0.0172537)
(0.455236 0 -0.0159493)
(0.437421 0 -0.0147011)
(0.417003 0 -0.0134953)
(0.393928 0 -0.0123149)
(0.368149 0 -0.0111654)
(0.33957 0 -0.0100508)
(0.30809 0 -0.00894641)
(0.273628 0 -0.00783589)
(0.236096 0 -0.00670293)
(0.195408 0 -0.00552991)
(0.151477 0 -0.00429691)
(0.104227 0 -0.00298107)
(0.0534899 0 -0.00155202)
(0 0 0)
(0.0199975 0 -0.0188979)
(0.0477962 0 -0.0249496)
(0.105299 0 -0.0376049)
(0.215364 0 -0.053667)
(0.333834 0 -0.0634806)
(0.412273 0 -0.0656001)
(0.455938 0 -0.0644723)
(0.480867 0 -0.0619379)
(0.495792 0 -0.058822)
(0.504524 0 -0.0554854)
(0.508786 0 -0.0521003)
(0.509471 0 -0.0487691)
(0.507078 0 -0.0455491)
(0.501899 0 -0.0424726)
(0.494097 0 -0.0395305)
(0.483759 0 -0.0367201)
(0.470922 0 -0.0340391)
(0.455582 0 -0.031462)
(0.437712 0 -0.0289933)
(0.417257 0 -0.0266262)
(0.394152 0 -0.0243261)
(0.368335 0 -0.0220842)
(0.339721 0 -0.0198906)
(0.308218 0 -0.0177117)
(0.273737 0 -0.0155174)
(0.236191 0 -0.0132764)
(0.19549 0 -0.0109543)
(0.151546 0 -0.00851219)
(0.104282 0 -0.00590517)
(0.0535243 0 -0.00307384)
(0 0 0)
(0.0425824 0 -0.030263)
(0.0719949 0 -0.0396557)
(0.135369 0 -0.0586489)
(0.24375 0 -0.0808373)
(0.351808 0 -0.0934686)
(0.422219 0 -0.096099)
(0.46203 0 -0.0943492)
(0.485111 0 -0.0906552)
(0.499008 0 -0.0861611)
(0.507069 0 -0.0813426)
(0.510846 0 -0.0764502)
(0.511157 0 -0.0716304)
(0.508466 0 -0.0669674)
(0.503045 0 -0.0624918)
(0.495047 0 -0.0581951)
(0.484548 0 -0.05407)
(0.471581 0 -0.0501283)
(0.456135 0 -0.0463589)
(0.438172 0 -0.0427476)
(0.417641 0 -0.0392822)
(0.394475 0 -0.0359237)
(0.368604 0 -0.0326458)
(0.339943 0 -0.0294203)
(0.308402 0 -0.0262083)
(0.273893 0 -0.0229681)
(0.236324 0 -0.0196549)
(0.195604 0 -0.0162187)
(0.151642 0 -0.0126026)
(0.104357 0 -0.00874142)
(0.0535698 0 -0.00454879)
(0 0 0)
(0.0720419 0 -0.0439583)
(0.104258 0 -0.0570187)
(0.174191 0 -0.0822012)
(0.278678 0 -0.108595)
(0.374042 0 -0.12237)
(0.435123 0 -0.124956)
(0.470237 0 -0.122455)
(0.490935 0 -0.117658)
(0.503448 0 -0.111897)
(0.510581 0 -0.105727)
(0.513679 0 -0.0994621)
(0.513466 0 -0.093287)
(0.510357 0 -0.0872902)
(0.504597 0 -0.081491)
(0.496326 0 -0.0759161)
(0.485606 0 -0.0705767)
(0.472453 0 -0.0654735)
(0.456853 0 -0.060601)
(0.438763 0 -0.05593)
(0.418127 0 -0.051433)
(0.394874 0 -0.0470709)
(0.36893 0 -0.0428056)
(0.340208 0 -0.0385966)
(0.30862 0 -0.034396)
(0.274073 0 -0.0301516)
(0.236474 0 -0.0258059)
(0.195729 0 -0.0212948)
(0.151745 0 -0.0165451)
(0.104436 0 -0.0114729)
(0.0536166 0 -0.00596749)
(0 0 0)
(0.107424 0 -0.0605655)
(0.143534 0 -0.0775583)
(0.219196 0 -0.108213)
(0.317135 0 -0.136626)
(0.398803 0 -0.150051)
(0.450211 0 -0.152043)
(0.480216 0 -0.148676)
(0.498167 0 -0.142835)
(0.509003 0 -0.135916)
(0.51498 0 -0.128528)
(0.517219 0 -0.121033)
(0.516338 0 -0.113626)
(0.512695 0 -0.106386)
(0.506507 0 -0.0993685)
(0.497888 0 -0.0926325)
(0.486884 0 -0.0861914)
(0.473498 0 -0.0800334)
(0.457704 0 -0.0741414)
(0.439453 0 -0.0684838)
(0.418684 0 -0.0630243)
(0.395322 0 -0.0577189)
(0.369288 0 -0.0525209)
(0.340494 0 -0.0473795)
(0.308847 0 -0.0422382)
(0.274255 0 -0.0370347)
(0.236621 0 -0.0317003)
(0.195849 0 -0.0261578)
(0.151841 0 -0.0203195)
(0.104507 0 -0.0140851)
(0.0536582 0 -0.00732197)
(0 0 0)
(0.147925 0 -0.0803574)
(0.188418 0 -0.101278)
(0.267641 0 -0.136031)
(0.356721 0 -0.164388)
(0.424756 0 -0.176337)
(0.466792 0 -0.177267)
(0.491598 0 -0.172919)
(0.506588 0 -0.166097)
(0.515523 0 -0.158125)
(0.52015 0 -0.149657)
(0.521369 0 -0.141061)
(0.519687 0 -0.132522)
(0.515409 0 -0.124157)
(0.508712 0 -0.116067)
(0.499679 0 -0.108302)
(0.488336 0 -0.100867)
(0.474671 0 -0.0937495)
(0.458646 0 -0.0869261)
(0.440206 0 -0.0803608)
(0.41928 0 -0.0740107)
(0.39579 0 -0.0678265)
(0.369651 0 -0.061754)
(0.340773 0 -0.0557345)
(0.309061 0 -0.0497032)
(0.274418 0 -0.0435889)
(0.236746 0 -0.0373127)
(0.195945 0 -0.0307862)
(0.151915 0 -0.0239086)
(0.104561 0 -0.0165655)
(0.0536888 0 -0.0086056)
(0 0 0)
(0.192719 0 -0.103293)
(0.237073 0 -0.127644)
(0.317259 0 -0.164818)
(0.395857 0 -0.191356)
(0.450949 0 -0.201043)
(0.484243 0 -0.200553)
(0.503992 0 -0.19513)
(0.515937 0 -0.187367)
(0.522818 0 -0.17845)
(0.525941 0 -0.169022)
(0.525999 0 -0.159428)
(0.523407 0 -0.149884)
(0.518411 0 -0.140554)
(0.511137 0 -0.131535)
(0.501635 0 -0.122864)
(0.489907 0 -0.114549)
(0.475925 0 -0.106574)
(0.459638 0 -0.0989112)
(0.440982 0 -0.0915205)
(0.419879 0 -0.0843544)
(0.396245 0 -0.0773585)
(0.369991 0 -0.0704729)
(0.341021 0 -0.063632)
(0.309237 0 -0.0567641)
(0.274541 0 -0.04979)
(0.23683 0 -0.042622)
(0.196003 0 -0.035162)
(0.151954 0 -0.0272982)
(0.104587 0 -0.0189042)
(0.0537035 0 -0.00981309)
(0 0 0)
(0.241036 0 -0.129284)
(0.287912 0 -0.155969)
(0.366489 0 -0.193779)
(0.433544 0 -0.217051)
(0.47664 0 -0.223896)
(0.501989 0 -0.22174)
(0.517012 0 -0.215241)
(0.52593 0 -0.206586)
(0.530658 0 -0.196813)
(0.532154 0 -0.186517)
(0.530954 0 -0.176051)
(0.52738 0 -0.165671)
(0.521605 0 -0.155535)
(0.513701 0 -0.145724)
(0.503685 0 -0.136277)
(0.491535 0 -0.127198)
(0.477206 0 -0.11847)
(0.460633 0 -0.110061)
(0.441742 0 -0.10193)
(0.420447 0 -0.0940247)
(0.396657 0 -0.0862866)
(0.370278 0 -0.0786513)