/*--------------------------------*- C++ -*----------------------------------*\
| =========                 |                                                 |
| \\      /  F ield         | OpenFOAM: The Open Source CFD Toolbox           |
|  \\    /   O peration     | Version:  dev                                   |
|   \\  /    A nd           | Web:      www.OpenFOAM.org                      |
|    \\/     M anipulation  |                                                 |
\*---------------------------------------------------------------------------*/
FoamFile
{
    version     2.0;
    format      ascii;
    class       volVectorField;
    location    "1.42";
    object      U;
}
// * * * * * * * * * * * * * * * * * * * * * * * * * * * * * * * * * * * * * //

dimensions      [0 1 -1 0 0 0 0];

internalField   nonuniform List<vector> 
2790
(
(9.93575 1.37783e-21 0.0181502)
(9.86765 4.43739e-20 0.0246761)
(9.77651 0 0.0286927)
(9.66908 0 0.0328226)
(9.55085 6.60401e-21 0.0370953)
(9.4228 -3.44541e-20 0.0414564)
(9.28425 -1.4455e-20 0.0460184)
(9.1345 0 0.0509162)
(8.97294 0 0.0562633)
(8.79881 0 0.062166)
(8.61121 0 0.0687371)
(8.40903 0 0.0761023)
(8.19103 -4.83262e-21 0.0844041)
(7.95578 -4.10042e-20 0.0938044)
(7.70168 4.24599e-20 0.104485)
(7.42698 0 0.116653)
(7.12975 0 0.130545)
(6.80792 1.00914e-19 0.146431)
(6.45927 -7.80455e-20 0.164609)
(6.08148 1.12051e-19 0.185407)
(5.67216 1.20256e-19 0.209186)
(5.22895 3.04913e-19 0.236332)
(4.7496 0 0.26726)
(4.2321 -2.73143e-19 0.302424)
(3.67473 2.80367e-19 0.342341)
(3.07631 0 0.387546)
(2.436 0 0.438499)
(1.7533 0 0.495099)
(1.02174 -1.23626e-18 0.553023)
(0.383256 3.28986e-19 0.487169)
(10.0013 -2.75051e-21 0.0350138)
(9.99473 4.85415e-20 0.0491154)
(9.96647 4.7825e-20 0.0584409)
(9.91978 0 0.0685407)
(9.8592 0 0.0794723)
(9.78593 1.1001e-19 0.0910251)
(9.69959 -1.4424e-20 0.103404)
(9.59966 3.00263e-20 0.116903)
(9.48561 0 0.131784)
(9.35686 0 0.148299)
(9.21257 1.73725e-20 0.166718)
(9.05177 1.82302e-20 0.187347)
(8.87331 1.43615e-20 0.210534)
(8.67583 1.62322e-19 0.236675)
(8.45783 -1.67929e-19 0.266207)
(8.21757 -1.79542e-19 0.299614)
(7.95318 2.00432e-20 0.337439)
(7.66255 2.4438e-19 0.380275)
(7.34339 -2.59262e-20 0.428748)
(6.99322 0 0.483496)
(6.6094 -3.48723e-19 0.545148)
(6.1891 -6.57435e-19 0.614272)
(5.72936 0 0.691321)
(5.22707 0 0.776579)
(4.67877 -2.74475e-19 0.870147)
(4.08043 -1.15202e-18 0.971855)
(3.42639 1.46289e-18 1.08104)
(2.70667 2.71046e-18 1.19685)
(1.88104 -4.77379e-18 1.32574)
(1.08537 2.90328e-18 1.47912)
(9.99872 -8.77816e-20 0.0342994)
(9.98977 -1.15194e-20 0.0541112)
(9.96418 5.96393e-20 0.0696356)
(9.92249 2.50788e-20 0.0862487)
(9.86798 1.63927e-22 0.104301)
(9.80191 -8.21888e-20 0.123591)
(9.72412 -8.61122e-20 0.144368)
(9.63417 -6.04606e-20 0.16704)
(9.53163 6.27098e-20 0.192006)
(9.41598 -3.29903e-20 0.219668)
(9.28654 8.74948e-20 0.250467)
(9.14246 -1.62489e-19 0.284898)
(8.98278 -9.53348e-21 0.323537)
(8.80634 -9.98122e-21 0.367041)
(8.61183 -1.30981e-21 0.416146)
(8.39774 3.55906e-19 0.47167)
(8.16241 -4.13934e-19 0.53454)
(7.90394 -4.87745e-20 0.605786)
(7.62023 0 0.686524)
(7.30891 0 0.777931)
(6.9673 -1.0235e-18 0.881225)
(6.59234 -8.18064e-19 0.997623)
(6.18047 -7.5187e-19 1.12826)
(5.7275 2.84768e-18 1.27412)
(5.22804 -1.85763e-18 1.43607)
(4.67471 -2.75161e-19 1.61517)
(4.05645 -2.85477e-19 1.81329)
(3.35524 -4.92559e-18 2.03516)
(2.53392 -2.84926e-20 2.28904)
(1.56863 4.3738e-18 2.69643)
(9.99684 8.77131e-20 0.0358068)
(9.98539 -9.11969e-20 0.0630183)
(9.95961 -9.53988e-20 0.0862389)
(9.91894 2.50211e-20 0.109822)
(9.86573 2.63708e-20 0.134757)
(9.80127 -5.45061e-20 0.161176)
(9.72558 5.72901e-20 0.189461)
(9.63836 -6.06091e-20 0.220157)
(9.53927 -1.30607e-21 0.253816)
(9.42791 2.96019e-19 0.290995)
(9.30375 -6.81112e-20 0.332295)
(9.16616 3.60465e-20 0.378384)
(9.01436 0 0.430028)
(8.84753 9.93988e-21 0.488114)
(8.66466 1.30362e-21 0.55365)
(8.46457 -3.52447e-19 0.627759)
(8.24598 3.41031e-19 0.711713)
(8.00748 -4.79299e-20 0.806955)
(7.74744 0 0.915111)
(7.46397 -1.05277e-19 1.03796)
(7.15484 0 1.17744)
(6.81733 0 1.33566)
(6.44803 -2.42568e-19 1.51484)
(6.0426 -1.7716e-18 1.71743)
(5.59502 2.26769e-19 1.94619)
(5.09666 -2.88431e-19 2.20463)
(4.53497 6.54157e-18 2.49853)
(3.88748 -4.90613e-18 2.84173)
(3.17368 -2.65462e-19 3.21219)
(2.07105 0 3.9009)
(9.99585 0 0.0388872)
(9.98286 2.04397e-19 0.0721277)
(9.95673 -2.37486e-20 0.10183)
(9.91679 0 0.131489)
(9.86473 -5.22577e-20 0.162578)
(9.80167 1.09043e-19 0.195573)
(9.72775 -1.70759e-19 0.230971)
(9.64273 5.94798e-20 0.269398)
(9.54634 0 0.31151)
(9.43823 0 0.357976)
(9.31797 2.41353e-19 0.409508)
(9.18506 -3.56834e-19 0.466897)
(9.03887 -3.74789e-20 0.53104)
(8.87877 -1.9628e-20 0.602983)
(8.70408 1.028e-20 0.683945)
(8.51391 0 0.775291)
(8.30732 6.79498e-20 0.878548)
(8.08331 9.47828e-20 0.995475)
(7.84074 8.0071e-19 1.12811)
(7.57831 -7.19333e-19 1.27877)
(7.29441 2.15548e-19 1.45007)
(6.98699 0 1.645)
(6.65338 2.33112e-19 1.86697)
(6.28991 0 2.12)
(5.89144 -5.00573e-19 2.409)
(5.45042 -3.59937e-18 2.7403)
(4.95731 8.27898e-18 3.12167)
(4.3804 -3.59074e-18 3.57745)
(3.8428 4.20624e-18 4.01392)
(2.62617 -1.33262e-17 4.95384)
(9.99534 1.63171e-19 0.0427546)
(9.98145 -1.70097e-19 0.081309)
(9.95521 -1.89424e-19 0.117061)
(9.91615 -1.9819e-19 0.152794)
(9.8655 0 0.190109)
(9.80416 -1.08988e-19 0.229704)
(9.73233 2.26837e-19 0.272166)
(9.64984 4.24214e-22 0.318191)
(9.55645 -3.72641e-19 0.368523)
(9.45188 1.2933e-19 0.423931)
(9.33579 0 0.485234)
(9.20775 3.56412e-20 0.553336)
(9.06727 -2.62517e-19 0.62925)
(8.91384 3.2913e-19 0.714149)
(8.74698 -6.67289e-19 0.809414)
(8.56611 6.77584e-19 0.916624)
(8.37058 6.96951e-19 1.03752)
(8.15968 -8.17704e-20 1.17412)
(7.93269 -6.76415e-19 1.32879)
(7.68881 0 1.5043)
(7.42708 -2.12858e-19 1.70384)
(7.1462 0 1.93119)
(6.8445 -2.29302e-19 2.19084)
(6.51957 -3.77382e-18 2.48818)
(6.16797 4.42955e-19 2.82984)
(5.78438 3.88433e-18 3.22428)
(5.36594 -3.90706e-18 3.67828)
(4.86096 1.88357e-20 4.23052)
(4.5252 3.73439e-18 4.67966)
(3.214 0 5.81362)
(9.9951 -1.73834e-19 0.0470255)
(9.98079 -2.26056e-20 0.090565)
(9.95474 2.40025e-20 0.131984)
(9.91671 1.97852e-19 0.173572)
(9.86769 0 0.216897)
(9.80839 -1.08477e-19 0.262811)
(9.739 1.12585e-19 0.312015)
(9.65943 0 0.365285)
(9.56949 1.23664e-19 0.423452)
(9.46897 2.59526e-19 0.487377)
(9.3576 -3.35684e-19 0.557973)
(9.23504 0 0.636242)
(9.10095 7.34777e-20 0.723302)
(8.9549 5.81883e-19 0.820423)
(8.79651 -6.39582e-19 0.929099)
(8.62546 -2.09274e-20 1.05107)
(8.44135 0 1.18828)
(8.24378 2.32118e-20 1.34294)
(8.03236 1.44079e-18 1.51768)
(7.80674 -1.57606e-18 1.71562)
(7.56653 -1.02191e-19 1.94043)
(7.3112 -1.69373e-18 2.1965)
(7.04007 2.17483e-19 2.48915)
(6.75223 3.61633e-18 2.82486)
(6.44626 -7.55617e-18 3.2114)
(6.1188 3.68185e-18 3.6585)
(5.77629 -3.51322e-21 4.16868)
(5.33626 -2.17261e-19 4.80119)
(5.19751 6.57097e-18 5.22558)
(3.80804 -7.67321e-18 6.49643)
(9.99504 0 0.0514749)
(9.98067 0 0.0997928)
(9.95506 4.65285e-22 0.146521)
(9.91825 0 0.193685)
(9.87105 1.0319e-19 0.242777)
(9.81405 -2.15094e-19 0.294751)
(9.74744 1.11951e-19 0.350411)
(9.67117 0 0.41061)
(9.58512 0 0.476252)
(9.48914 3.85099e-19 0.548274)
(9.38304 -6.01212e-19 0.627668)
(9.26658 5.58426e-19 0.715516)
(9.13953 2.23535e-19 0.813031)
(9.0016 -5.66463e-19 0.921584)
(8.85252 -5.99065e-19 1.04276)
(8.69211 6.78045e-19 1.1784)
(8.52023 0 1.33062)
(8.33676 1.46334e-18 1.50179)
(8.14163 -1.50376e-18 1.69473)
(7.93488 0 1.91285)
(7.71664 1.00623e-19 2.16019)
(7.4871 -1.55249e-18 2.44158)
(7.24654 1.57191e-18 2.76294)
(6.99536 0 3.13147)
(6.73418 5.35525e-20 3.55553)
(6.46081 3.45928e-18 4.04566)
(6.19227 -6.79228e-18 4.5973)
(5.80765 -2.9622e-18 5.2962)
(5.84442 6.2834e-18 5.67846)
(4.39116 0 7.04183)
(9.9951 -3.6555e-19 0.0559573)
(9.98092 -2.24594e-20 0.108877)
(9.95602 4.72902e-20 0.160599)
(9.9206 0 0.213049)
(9.87542 0 0.267648)
(9.82096 -1.07261e-19 0.325402)
(9.75742 2.233e-19 0.387202)
(9.68479 1.90888e-22 0.453976)
(9.60301 -2.44331e-19 0.526685)
(9.51201 -2.99321e-21 0.606331)
(9.41166 3.96128e-19 0.693974)
(9.30184 5.5508e-19 0.79077)
(9.18241 -5.72415e-19 0.898005)
(9.05322 0 1.01714)
(8.91418 -6.67296e-19 1.14984)
(8.76527 7.26706e-19 1.29803)
(8.60651 -4.19664e-20 1.46392)
(8.43805 4.62812e-20 1.65001)
(8.26012 3.40986e-20 1.8593)
(8.07314 -1.50794e-18 2.09542)
(7.87772 -2.03849e-20 2.36265)
(7.67469 1.50287e-18 2.66616)
(7.46518 -3.32479e-18 3.01225)
(7.25071 -5.04738e-20 3.40853)
(7.03364 -5.20142e-20 3.86359)
(6.81191 0 4.38883)
(6.61384 -3.85877e-19 4.97081)
(6.276 0 5.72494)
(6.46 -3.99344e-18 6.06576)
(4.95667 1.33343e-17 7.49382)
(9.99524 3.43405e-19 0.0603751)
(9.98146 -3.11416e-19 0.117715)
(9.95748 -2.78805e-19 0.174142)
(9.92363 4.8621e-20 0.231584)
(9.88066 0 0.291407)
(9.82898 3.18628e-19 0.354636)
(9.76878 -1.10499e-19 0.422235)
(9.70012 1.14864e-19 0.495199)
(9.62298 4.82691e-19 0.574543)
(9.53734 -6.28738e-19 0.661314)
(9.44318 2.60679e-19 0.756632)
(9.34047 -1.35885e-19 0.861711)
(9.22919 4.29301e-19 0.977893)
(9.10932 -5.87434e-19 1.10669)
(8.98095 6.16982e-19 1.24985)
(8.84421 -7.13804e-19 1.40936)
(8.69937 1.23591e-19 1.58752)
(8.54676 -4.29941e-20 1.78692)
(8.38687 7.64725e-20 2.01068)
(8.22051 9.00807e-20 2.26258)
(8.04876 1.50146e-18 2.54709)
(7.87303 1.51681e-18 2.86957)
(7.69517 -9.523e-20 3.23663)
(7.51759 4.912e-20 3.65612)
(7.34415 0 4.13658)
(7.17173 -3.73071e-18 4.69074)
(7.04027 2.5951e-18 5.29601)
(6.74392 -5.34937e-18 6.09672)
(7.04677 -2.16704e-18 6.41197)
(5.5078 1.06722e-17 7.89512)
(9.99544 3.40696e-19 0.0646595)
(9.98222 1.12101e-21 0.126222)
(9.95934 3.71456e-19 0.187076)
(9.92724 3.86787e-19 0.249213)
(9.88664 1.01404e-19 0.313956)
(9.83795 -3.16669e-19 0.38233)
(9.78136 0 0.45536)
(9.71697 -4.58641e-19 0.534105)
(9.6448 -7.17633e-19 0.619621)
(9.56491 4.97562e-19 0.712989)
(9.47736 2.62262e-19 0.815368)
(9.38221 -9.41807e-19 0.928023)
(9.27956 6.97286e-19 1.05234)
(9.16951 0 1.18986)
(9.0523 -1.49843e-19 1.34237)
(8.92825 1.40906e-18 1.51194)
(8.79795 -6.93443e-20 1.70093)
(8.66191 -1.32581e-18 1.91198)
(8.5207 -8.6294e-20 2.14827)
(8.37566 -8.85805e-20 2.41369)
(8.2283 0 2.71279)
(8.08051 0 3.05112)
(7.93484 3.3849e-18 3.43547)
(7.79443 -2.93325e-18 3.87394)
(7.66439 2.86204e-18 4.37498)
(7.53989 -2.10658e-18 4.95311)
(7.47174 -1.91766e-18 5.57809)
(7.21676 7.34962e-18 6.41818)
(7.61488 3.01262e-18 6.73695)
(6.05805 -6.41975e-18 8.28642)
(9.99568 -3.188e-19 0.0687589)
(9.98315 6.83726e-19 0.134328)
(9.96151 -3.68134e-19 0.199336)
(9.93129 -1.40096e-21 0.265865)
(9.89324 0 0.335203)
(9.84772 0 0.408366)
(9.79496 -2.17796e-19 0.486436)
(9.73508 2.27868e-19 0.570526)
(9.66817 -2.6531e-22 0.661723)
(9.59433 2.45102e-19 0.761128)
(9.51372 0 0.869928)
(9.4265 -4.00999e-19 0.989431)
(9.33288 9.64671e-19 1.12106)
(9.23307 -7.10489e-19 1.26636)
(9.12747 8.88726e-19 1.42713)
(9.01652 -9.13167e-19 1.60544)
(8.90115 1.56344e-19 1.8037)
(8.7821 1.29943e-18 2.02466)
(8.66013 -2.49055e-18 2.2715)
(8.53699 2.71132e-18 2.54812)
(8.41457 -1.03498e-18 2.85909)
(8.29525 -2.77909e-18 3.21008)
(8.18221 2.43562e-18 3.60806)
(8.07922 -6.78494e-19 4.06129)
(7.99261 6.60564e-19 4.57849)
(7.91626 -1.26218e-18 5.17597)
(7.90946 0 5.81936)
(7.70248 0 6.69156)
(8.18116 -2.16622e-18 7.05356)
(6.63242 5.37523e-18 8.70547)
(9.99595 0 0.0726307)
(9.98425 -7.01787e-19 0.141974)
(9.96394 3.67254e-19 0.210871)
(9.9357 -3.83396e-19 0.281483)
(9.90033 0 0.355071)
(9.85816 0 0.43265)
(9.80941 2.16988e-19 0.51535)
(9.75425 1.34938e-21 0.604337)
(9.69282 -2.33366e-19 0.700714)
(9.62528 0 0.80559)
(9.55186 -2.55196e-19 0.920166)
(9.47279 1.29475e-19 1.04577)
(9.38852 -4.07992e-19 1.18384)
(9.29932 4.20428e-19 1.33593)
(9.20561 -1.30757e-18 1.50383)
(9.10821 1.33928e-18 1.68959)
(9.00796 -1.54428e-19 1.89558)
(8.90598 0 2.12462)
(8.80359 -1.44943e-18 2.37992)
(8.70282 9.81591e-19 2.66531)
(8.60575 -3.30165e-18 2.98535)
(8.51515 -2.98365e-18 3.34574)
(8.43503 2.62332e-18 3.75355)
(8.36962 -1.94756e-18 4.21714)
(8.32671 -6.38073e-19 4.74565)
(8.30016 1.21496e-18 5.35674)
(8.35462 0 6.01759)
(8.21119 -1.91628e-18 6.91198)
(8.76758 1.91551e-18 7.36255)
(7.26909 0 9.1849)
(9.99624 0 0.0762383)
(9.98548 3.49481e-19 0.149114)
(9.96656 0 0.221648)
(9.94036 0 0.296017)
(9.90784 9.92701e-20 0.373484)
(9.86918 -1.02918e-19 0.455091)
(9.82461 2.15179e-19 0.542011)
(9.77435 -2.22483e-19 0.635438)
(9.71859 2.30921e-19 0.736478)
(9.65755 -2.42676e-19 0.846238)
(9.59153 -2.53169e-19 0.965925)
(9.52081 7.72622e-19 1.09684)
(9.44605 5.3473e-19 1.24044)
(9.36764 -8.23805e-19 1.3983)
(9.28607 5.65107e-19 1.57215)
(9.20248 0 1.76406)
(9.11763 -9.01009e-19 1.9763)
(9.03283 1.2189e-18 2.2116)
(8.94996 0 2.47313)
(8.87145 1.2642e-18 2.76472)
(8.79964 -1.57354e-18 3.09088)
(8.73769 3.20025e-19 3.45723)
(8.6905 -2.47752e-18 3.87079)
(8.66286 2.45242e-18 4.33987)
(8.66403 1.14279e-18 4.87373)
(8.68947 1.06797e-18 5.49044)
(8.8068 -1.91607e-18 6.16471)
(8.75206 1.86415e-18 7.06351)
(9.39676 0 7.64026)
(8.01685 -1.13894e-18 9.7534)
(9.99656 0 0.0795546)
(9.98679 3.46017e-19 0.155706)
(9.9694 3.61223e-19 0.231629)
(9.9454 9.45429e-20 0.30942)
(9.91584 3.64471e-22 0.390378)
(9.88079 -7.15338e-19 0.475623)
(9.84051 4.25384e-19 0.566352)
(9.79528 -2.1902e-19 0.663755)
(9.74532 -4.58136e-19 0.768928)
(9.69095 -4.77511e-19 0.88298)
(9.63248 7.34458e-19 1.00712)
(9.57035 0 1.14262)
(9.50516 0 1.29088)
(9.43752 0 1.45349)
(9.36822 0 1.63217)
(9.29834 0 1.82888)
(9.22902 -1.45839e-18 2.04589)
(9.16163 1.18419e-18 2.28575)
(9.0982 -2.97886e-19 2.55143)
(9.0414 3.06287e-19 2.84664)
(8.99412 6.14177e-19 3.17586)
(8.96029 -1.80014e-18 3.54454)
(8.94545 2.38203e-18 3.95936)
(8.95531 -3.38103e-18 4.42827)
(9.00031 -1.02753e-18 4.95985)
(9.07924 -9.2193e-19 5.57106)
(9.26102 3.67338e-18 6.24655)
(9.32398 0 7.11763)
(10.0765 -1.30861e-18 7.8204)
(8.94579 9.84082e-19 10.4601)
(0.1273 0 -0.133796)
(0.2907 0 -0.124363)
(0.5344 -4.99887e-21 -0.104791)
(0.815654 4.6308e-21 -0.0921618)
(1.12455 1.91236e-22 -0.0852853)
(1.44016 2.07506e-21 -0.0813053)
(1.73619 -1.28139e-21 -0.0776071)
(1.99962 2.16676e-22 -0.0730062)
(2.22649 -3.64962e-22 -0.0674359)
(2.41874 3.72602e-22 -0.0613565)
(2.58082 0 -0.0551965)
(2.71599 0 -0.0491886)
(2.82701 0 -0.0434354)
(2.91575 0 -0.0381378)
(2.98484 -4.68619e-22 -0.0337275)
(3.03835 4.60796e-22 -0.0304472)
(3.0791 0 -0.0283165)
(3.1094 0 -0.0271924)
(3.13164 8.88347e-22 -0.0268097)
(3.14792 0 -0.0267511)
(3.16056 0 -0.0264736)
(3.17233 0 -0.0256413)
(3.18646 0 -0.0245325)
(3.2071 0 -0.0239456)
(3.23929 1.17139e-22 -0.0246289)
(3.2893 -1.80111e-22 -0.0272161)
(3.36514 2.18709e-21 -0.0326311)
(3.47686 0 -0.0424246)
(3.63595 0 -0.0584344)
(3.91494 0 -0.0815844)
(0.0575489 -2.79129e-20 -0.191484)
(0.168275 1.15899e-20 -0.20702)
(0.401497 0 -0.197349)
(0.672646 -2.53088e-22 -0.191724)
(0.972165 -6.75575e-21 -0.19014)
(1.2689 -5.34819e-21 -0.187927)
(1.5357 -2.37284e-22 -0.181854)
(1.76333 2.03443e-22 -0.171397)
(1.95166 0 -0.157312)
(2.10313 2.16538e-21 -0.141187)
(2.22242 0 -0.124252)
(2.31229 -3.49013e-21 -0.107069)
(2.37476 0 -0.0900075)
(2.4124 3.0305e-21 -0.0735831)
(2.42777 4.96036e-21 -0.0582347)
(2.42205 0 -0.043985)
(2.39609 3.23426e-21 -0.0308771)
(2.35178 -2.59334e-21 -0.0184829)
(2.29244 -2.71128e-21 -0.00651576)
(2.22404 9.35531e-22 0.00339639)
(2.1569 -6.84391e-23 0.00876933)
(2.10164 -9.3686e-22 0.00853759)
(2.06636 0 0.00283136)
(2.05557 -2.59472e-21 -0.00861315)
(2.07368 -1.97954e-22 -0.0266438)
(2.12545 4.02514e-21 -0.0529457)
(2.21723 -2.14485e-21 -0.0897875)
(2.35555 0 -0.139656)
(2.54739 -4.25156e-23 -0.205348)
(2.86563 1.90038e-21 -0.285628)
(0.0176156 2.60981e-20 -0.263057)
(0.0367185 -4.11849e-20 -0.295947)
(0.235748 3.41768e-20 -0.301834)
(0.457407 5.20091e-21 -0.298327)
(0.69708 -9.95228e-21 -0.295084)
(0.92226 0 -0.288487)
(1.11103 -2.5029e-22 -0.275099)
(1.25687 -1.00381e-21 -0.25551)
(1.36195 1.98978e-21 -0.231089)
(1.43148 -2.15834e-21 -0.203508)
(1.46903 2.99287e-21 -0.174059)
(1.47706 3.48208e-21 -0.143591)
(1.45805 0 -0.112901)
(1.41464 -4.03617e-21 -0.0825609)
(1.34983 -5.93499e-21 -0.0530115)
(1.26698 3.68612e-21 -0.0237543)
(1.16723 -4.99668e-21 0.00379671)
(1.05731 5.25137e-22 0.0245096)
(0.962422 3.16901e-21 0.0349997)
(0.892645 -9.45099e-22 0.035043)
(0.846728 -6.81806e-23 0.0252873)
(0.822638 2.10629e-21 0.00695116)
(0.825401 -4.79206e-22 -0.0196348)
(0.861929 3.11719e-21 -0.0550857)
(0.934407 3.37612e-21 -0.0999372)
(1.04437 -4.06091e-21 -0.154387)
(1.18948 2.62469e-22 -0.220058)
(1.36905 -4.18038e-21 -0.300946)
(1.58833 0 -0.40326)
(1.89118 -1.87195e-21 -0.532487)
(-0.00454435 -2.58552e-20 -0.320783)
(-0.0742036 8.55777e-21 -0.354018)
(0.0932038 0 -0.378582)
(0.254782 0 -0.374522)
(0.424655 0 -0.365909)
(0.566516 5.34612e-22 -0.350621)
(0.669246 -1.46823e-21 -0.326417)
(0.728089 8.93501e-22 -0.294958)
(0.747768 3.20597e-21 -0.258657)
(0.735158 0 -0.219261)
(0.694639 -6.28416e-21 -0.177506)
(0.629681 -3.70004e-21 -0.134049)
(0.543971 -3.98981e-21 -0.0903685)
(0.44241 3.95558e-21 -0.046787)
(0.322348 0 -0.00538066)
(0.19603 -7.46534e-21 0.0277849)
(0.0959019 -1.5113e-21 0.0496249)
(0.0228743 4.15625e-21 0.0587009)
(-0.0345462 1.76863e-21 0.0551631)
(-0.0703852 3.73898e-22 0.0418498)
(-0.0843045 2.45444e-22 0.0191851)
(-0.070098 -8.23969e-22 -0.0158581)
(-0.0230207 -2.72399e-22 -0.0651592)
(0.0567307 2.27696e-21 -0.125685)
(0.165133 -3.03121e-21 -0.193965)
(0.30011 -4.84612e-22 -0.270241)
(0.458151 4.7752e-22 -0.356378)
(0.63472 3.94225e-21 -0.45684)
(0.833919 7.22913e-23 -0.580244)
(1.04301 -7.0562e-23 -0.744334)
(-0.0168137 -3.16391e-20 -0.370364)
(-0.170519 -1.31709e-22 -0.389404)
(-0.0335769 2.45013e-20 -0.430254)
(0.0635481 0 -0.4199)
(0.154978 1.50555e-21 -0.400567)
(0.212578 -2.4254e-22 -0.372526)
(0.229136 2.19157e-21 -0.336659)
(0.206932 -2.29251e-21 -0.293808)
(0.152753 -3.2372e-21 -0.246382)
(0.0730974 5.27779e-21 -0.19643)
(-0.0263109 5.29979e-21 -0.144995)
(-0.136767 6.98646e-21 -0.093815)
(-0.256137 -7.3551e-21 -0.0436451)
(-0.386294 0 0.00129767)
(-0.490559 0 0.0354605)
(-0.572666 7.38189e-21 0.0570678)
(-0.6427 1.52998e-21 0.0664487)
(-0.695514 -1.50854e-21 0.0644859)
(-0.728604 -8.43932e-21 0.0502864)
(-0.738899 -2.09791e-22 0.0231661)
(-0.724551 -5.53469e-23 -0.0173926)
(-0.680578 -7.32648e-22 -0.0715971)
(-0.61047 -1.94967e-21 -0.137855)
(-0.517213 -2.35618e-21 -0.21295)
(-0.403423 -3.82386e-22 -0.294848)
(-0.273774 3.78071e-22 -0.383194)
(-0.130958 4.23886e-22 -0.480174)
(0.0255944 -2.33702e-22 -0.592799)
(0.178543 -2.41081e-22 -0.723468)
(0.277207 5.73926e-23 -0.89579)
(-0.0202564 0 -0.414227)
(-0.254175 -7.17082e-21 -0.40456)
(-0.150117 -1.02007e-22 -0.453366)
(-0.121722 0 -0.428496)
(-0.11161 -4.72073e-22 -0.394507)
(-0.135059 2.12319e-22 -0.353154)
(-0.194731 -4.74839e-22 -0.306265)
(-0.280981 0 -0.255428)
(-0.385395 0 -0.202423)
(-0.501459 -4.94088e-21 -0.148772)
(-0.624719 -4.9359e-21 -0.0952778)
(-0.754273 0 -0.0433488)
(-0.874603 7.26673e-21 0.00262446)
(-0.969641 0 0.0381553)
(-1.05428 7.58017e-21 0.0630585)
(-1.125 -7.44184e-21 0.076848)
(-1.17971 5.39029e-21 0.0777872)
(-1.21553 -5.96232e-21 0.0649576)
(-1.23004 6.71209e-21 0.0377495)
(-1.22106 3.43507e-21 -0.00434911)
(-1.18779 -6.12365e-22 -0.061431)
(-1.12833 4.92131e-22 -0.131756)
(-1.04812 2.16516e-21 -0.212587)
(-0.950738 4.6885e-22 -0.300514)
(-0.84017 -4.63557e-22 -0.392908)
(-0.722128 0 -0.489192)
(-0.602175 0 -0.590433)
(-0.488704 -1.46331e-22 -0.69895)
(-0.400177 1.88243e-22 -0.821786)
(-0.372165 -4.2858e-23 -0.963115)
(-0.0137337 -1.89739e-20 -0.451251)
(-0.325261 -2.0013e-20 -0.398173)
(-0.261685 2.45074e-20 -0.441754)
(-0.307581 -2.17836e-21 -0.396895)
(-0.36774 -6.09966e-21 -0.349398)
(-0.457472 -8.19877e-23 -0.298681)
(-0.569305 0 -0.24625)
(-0.693584 1.5427e-21 -0.193196)
(-0.823805 2.57075e-21 -0.139785)
(-0.95601 0 -0.0864783)
(-1.08624 -3.65294e-21 -0.0354712)
(-1.1987 9.21032e-22 0.00862178)
(-1.29693 -6.25062e-21 0.0448587)
(-1.38453 0 0.0726167)
(-1.45963 -7.50016e-21 0.0898458)
(-1.51959 7.36616e-21 0.0943168)
(-1.56209 -6.91388e-21 0.0844482)
(-1.58499 6.14816e-21 0.0592305)
(-1.58666 1.23719e-21 0.0181465)
(-1.56598 -1.00307e-20 -0.0387373)
(-1.52267 0 -0.110544)
(-1.45817 0 -0.194261)
(-1.37685 -7.47491e-22 -0.286065)
(-1.28309 0 -0.382212)
(-1.18205 1.92937e-21 -0.479557)
(-1.08025 -3.09639e-21 -0.57677)
(-0.984983 -8.9354e-24 -0.674292)
(-0.907768 1.43346e-22 -0.774482)
(-0.867762 1.3278e-22 -0.881387)
(-0.870922 -1.39651e-21 -0.982926)
(0.0041338 1.27484e-20 -0.477631)
(-0.383113 -1.44617e-20 -0.366994)
(-0.370309 -4.74893e-21 -0.391805)
(-0.477863 1.92348e-21 -0.329253)
(-0.595823 0 -0.272138)
(-0.731745 0 -0.216698)
(-0.874926 1.52362e-21 -0.164108)
(-1.018 -3.4988e-21 -0.113284)
(-1.15748 -2.58617e-21 -0.0635583)
(-1.28422 0 -0.0175544)
(-1.39516 8.75903e-21 0.0232792)
(-1.49633 5.14367e-21 0.0590212)
(-1.58758 -6.13205e-21 0.0881499)
(-1.66753 3.65614e-21 0.108103)
(-1.73407 2.42867e-22 0.11626)
(-1.78508 -3.79891e-21 0.110307)
(-1.81861 0 0.0887587)
(-1.83302 0 0.0508077)
(-1.82727 7.44896e-21 -0.00383383)
(-1.80103 -2.87651e-21 -0.0745606)
(-1.7542 -4.18366e-21 -0.15936)
(-1.69007 0 -0.254438)
(-1.61205 -1.87566e-21 -0.355033)
(-1.52501 0 -0.456642)
(-1.43481 -1.91854e-21 -0.555367)
(-1.34856 4.00818e-21 -0.649003)
(-1.27465 -1.57137e-22 -0.737435)
(-1.22573 1.55485e-22 -0.823278)
(-1.21603 2.30759e-21 -0.910003)
(-1.23294 1.90653e-21 -0.983655)
(0.0353155 0 -0.489163)
(-0.426338 0 -0.30655)
(-0.466543 4.91042e-21 -0.305388)
(-0.623801 -2.0186e-21 -0.231113)
(-0.783682 1.74254e-21 -0.169258)
(-0.946199 -1.61975e-21 -0.114866)
(-1.10231 4.25971e-22 -0.0665302)
(-1.24441 0 -0.0238598)
(-1.36962 -1.40986e-21 0.0141464)
(-1.48302 0 0.0498724)
(-1.58624 -3.19668e-21 0.0830742)
(-1.68013 -1.48713e-20 0.111848)
(-1.76385 1.14717e-20 0.133422)
(-1.83612 0 0.144851)
(-1.89531 0 0.143334)
(-1.93964 0 0.1266)
(-1.96741 0 0.0932521)
(-1.97727 2.1026e-21 0.0427414)
(-1.96837 -9.48804e-21 -0.0247898)
(-1.94071 6.55988e-21 -0.108233)
(-1.89466 1.28856e-20 -0.204593)
(-1.83376 5.44288e-22 -0.309419)
(-1.76103 -2.6067e-21 -0.417129)
(-1.68139 3.13329e-21 -0.522203)
(-1.60108 1.37431e-23 -0.61986)
(-1.52753 -2.1277e-21 -0.707159)
(-1.46986 7.41202e-22 -0.783841)
(-1.44087 -3.41432e-23 -0.85308)
(-1.44987 -2.30797e-21 -0.918537)
(-1.47407 -5.32013e-22 -0.969622)
(0.0816412 1.87204e-21 -0.481116)
(-0.449575 -1.76211e-21 -0.21225)
(-0.543798 0 -0.187572)
(-0.736953 0 -0.107758)
(-0.919164 0 -0.0461113)
(-1.08624 -1.86446e-22 -8.42752e-05)
(-1.23281 -1.89672e-22 0.0337012)
(-1.36195 1.54406e-22 0.062898)
(-1.47712 7.39984e-22 0.0913253)
(-1.58119 2.61515e-21 0.119316)
(-1.67557 1.56038e-20 0.145352)
(-1.76066 -3.76967e-21 0.166841)
(-1.83605 0 0.180623)
(-1.90092 -3.82512e-21 0.183499)
(-1.95404 3.77278e-21 0.172507)
(-1.99385 4.74553e-21 0.14531)
(-2.01873 -2.563e-20 0.100551)
(-2.02735 2.5114e-21 0.0379522)
(-2.01886 -2.48529e-21 -0.0417884)
(-1.99289 0 -0.136941)
(-1.95072 -1.71283e-20 -0.2439)
(-1.89494 -8.41545e-21 -0.357501)
(-1.8285 4.65375e-21 -0.471336)
(-1.75607 -3.12063e-21 -0.57872)
(-1.68396 1.21497e-22 -0.673858)
(-1.61981 7.73889e-22 -0.753154)
(-1.57333 -6.50789e-22 -0.816419)
(-1.55738 -4.17555e-24 -0.867603)
(-1.57778 -7.54698e-22 -0.911721)
(-1.6061 -5.45595e-22 -0.943992)
(0.154335 1.08284e-21 -0.442613)
(-0.457734 -2.50554e-21 -0.0817873)
(-0.593872 1.55749e-21 -0.0394703)
(-0.802484 1.60009e-21 0.0380589)
(-0.983612 -1.64358e-21 0.0837419)
(-1.14067 9.99669e-22 0.111563)
(-1.27559 -1.0876e-21 0.131363)
(-1.39225 0 0.149522)
(-1.49478 8.4369e-22 0.169028)
(-1.58654 0 0.189539)
(-1.66931 -5.72058e-21 0.208626)
(-1.7438 -4.88068e-21 0.22315)
(-1.81006 -6.48165e-21 0.229668)
(-1.86769 0 0.224735)
(-1.91579 0 0.205139)
(-1.95297 0 0.168347)
(-1.97751 2.08605e-20 0.112965)
(-1.9879 -2.85366e-20 0.038986)
(-1.98297 2.91691e-20 -0.0522838)
(-1.96178 -2.58013e-20 -0.158379)
(-1.92603 9.66385e-21 -0.275298)
(-1.87731 2.99655e-20 -0.397259)
(-1.81826 8.85664e-22 -0.516916)
(-1.75303 -8.76364e-22 -0.626311)
(-1.68768 0 -0.718467)
(-1.63001 0 -0.789084)
(-1.59031 3.58367e-23 -0.838005)
(-1.58186 -3.55316e-23 -0.870044)
(-1.60878 7.52221e-22 -0.892573)
(-1.63946 -2.68593e-22 -0.907785)
(0.243335 -3.98176e-21 -0.362369)
(-0.439791 4.66515e-21 0.0906537)
(-0.60642 -2.15437e-21 0.126269)
(-0.811609 2.24885e-21 0.182835)
(-0.982681 7.91622e-22 0.211003)
(-1.12603 1.69598e-21 0.22187)
(-1.24412 -1.5718e-21 0.226329)
(-1.34232 0 0.23267)
(-1.42675 -1.18286e-21 0.243749)
(-1.502 -1.36574e-21 0.257776)
(-1.57021 -4.03363e-21 0.271019)
(-1.63215 -4.25283e-21 0.279747)
(-1.68813 4.57307e-21 0.280345)
(-1.73813 2.66587e-20 0.269144)
(-1.78164 1.05516e-20 0.242572)
(-1.81745 1.12519e-20 0.197724)
(-1.84379 -5.98536e-21 0.13302)
(-1.85877 2.54792e-20 0.0486453)
(-1.8607 -5.33978e-20 -0.0534511)
(-1.84768 5.29456e-20 -0.169936)
(-1.8214 -2.92442e-20 -0.296505)
(-1.78244 -2.15188e-20 -0.426887)
(-1.73292 5.75804e-22 -0.552753)
(-1.67611 -1.25879e-22 -0.664795)
(-1.61729 -4.39765e-22 -0.754574)
(-1.56421 -1.00518e-22 -0.816844)
(-1.52779 5.50715e-21 -0.851227)
(-1.52234 -3.05032e-21 -0.863273)
(-1.55217 0 -0.863339)
(-1.58411 8.17657e-22 -0.861419)
(0.356624 4.13481e-20 -0.222556)
(-0.400255 -3.57965e-20 0.269651)
(-0.584736 -6.02529e-21 0.285824)
(-0.775206 4.86451e-21 0.329324)
(-0.929462 -8.05652e-22 0.337263)
(-1.05154 0 0.325718)
(-1.14384 -3.06766e-21 0.31172)
(-1.21507 -4.14256e-21 0.306225)
(-1.27484 6.33505e-21 0.310866)
(-1.32918 -4.36647e-23 0.320832)
(-1.3799 -2.3227e-21 0.330316)
(-1.42703 3.02171e-21 0.335113)
(-1.47087 1.13563e-20 0.331809)
(-1.51188 -2.03837e-20 0.316631)
(-1.55006 -9.6007e-21 0.28551)
(-1.58454 -5.75473e-21 0.234971)
(-1.6137 -3.46946e-20 0.163039)
(-1.63555 7.84562e-21 0.0698667)
(-1.64763 6.23028e-20 -0.0420584)
(-1.64672 -6.64791e-20 -0.168342)
(-1.63377 2.91852e-20 -0.304402)
(-1.60872 3.04807e-20 -0.443639)
(-1.57264 2.71436e-20 -0.576686)
(-1.5276 -2.14193e-20 -0.692896)
(-1.47733 2.726e-22 -0.782113)
(-1.42903 0 -0.837679)
(-1.39393 -1.18974e-20 -0.858429)
(-1.38789 -2.94199e-22 -0.850072)
(-1.41754 -1.91008e-21 -0.826058)
(-1.44993 0 -0.805128)
(0.457748 7.81662e-20 0.13494)
(-0.322964 1.88761e-20 0.449917)
(-0.531555 -1.74216e-20 0.456241)
(-0.699306 0 0.481134)
(-0.833563 0 0.457153)
(-0.925315 -6.63995e-21 0.413243)
(-0.979118 9.56184e-21 0.376899)
(-1.01199 0 0.361907)
(-1.04006 6.49608e-21 0.36542)
(-1.07006 -1.65212e-21 0.375733)
(-1.10097 -5.71162e-22 0.384136)
(-1.13076 6.28503e-21 0.387081)
(-1.15965 -1.13435e-20 0.382337)
(-1.18897 -2.26696e-20 0.366192)
(-1.21933 -1.4597e-21 0.333802)
(-1.25024 6.35219e-21 0.280952)
(-1.28064 3.08509e-20 0.205167)
(-1.30922 -4.28739e-20 0.106053)
(-1.33351 -3.09502e-20 -0.0140265)
(-1.34865 3.57812e-20 -0.149447)
(-1.35329 -1.11061e-21 -0.294727)
(-1.34794 -3.01997e-20 -0.443141)
(-1.33192 -2.69855e-20 -0.584447)
(-1.30537 2.16548e-20 -0.707034)
(-1.26945 1.60122e-22 -0.798875)
(-1.22969 -9.10346e-24 -0.851178)
(-1.19661 6.46217e-21 -0.861035)
(-1.18797 2.80105e-22 -0.833001)
(-1.21455 1.91328e-21 -0.782827)
(-1.24646 0 -0.738901)
(0.767043 -2.24447e-19 -0.52374)
(-0.345675 -3.45647e-21 0.442113)
(-0.431637 3.57698e-21 0.69634)
(-0.593076 -3.55066e-21 0.677661)
(-0.713231 -2.69767e-21 0.579805)
(-0.760964 0 0.473727)
(-0.755528 5.98909e-21 0.405375)
(-0.733329 -1.34918e-20 0.387573)
(-0.722829 -1.03564e-20 0.401808)
(-0.727954 -5.42686e-22 0.419697)
(-0.738507 0 0.429478)
(-0.748173 0 0.432063)
(-0.758116 -1.114e-20 0.428408)
(-0.771629 1.76348e-20 0.414669)
(-0.789897 0 0.384401)
(-0.812129 3.25472e-20 0.332611)
(-0.837694 0 0.256957)
(-0.867011 3.82569e-20 0.156546)
(-0.899804 -4.495e-20 0.0324404)
(-0.932386 -1.3404e-21 -0.109365)
(-0.95697 2.58464e-21 -0.262021)
(-0.977869 -1.80777e-21 -0.418712)
(-0.991571 5.55445e-22 -0.568708)
(-0.995242 -9.12582e-23 -0.700281)
(-0.985643 9.0392e-23 -0.799035)
(-0.964693 0 -0.853774)
(-0.94028 -6.66302e-21 -0.858681)
(-0.931008 3.04554e-21 -0.814234)
(-0.95216 -1.85524e-22 -0.736076)
(-0.981918 0 -0.662278)
(9.99691 -6.37519e-19 0.0826348)
(9.988 7.037e-19 0.161841)
(9.97238 -5.62637e-19 0.240915)
(9.95087 2.53228e-22 0.321863)
(9.92437 3.1717e-22 0.406017)
(9.89305 9.84731e-20 0.494575)
(9.8572 2.02482e-19 0.588749)
(9.81719 2.11113e-19 0.689712)
(9.77328 0 0.798546)
(9.72583 0 0.916357)
(9.67526 -2.34179e-19 1.04434)
(9.62219 2.4295e-19 1.18376)
(9.56703 -9.91656e-19 1.33592)
(9.51052 2.5525e-19 1.50236)
(9.45381 0 1.68475)
(9.39792 0 1.88495)
(9.34446 -1.0914e-18 2.10517)
(9.2951 1.10753e-18 2.34783)
(9.25183 -2.71874e-19 2.61571)
(9.21725 -5.56445e-19 2.9122)
(9.19475 0 3.24143)
(9.18894 -2.7583e-18 3.60846)
(9.20612 4.31636e-18 4.01945)
(9.2532 9.95765e-19 4.48127)
(9.34161 -8.71474e-20 5.00106)
(9.47488 -3.62844e-18 5.59189)
(9.72078 -1.67347e-18 6.24523)
(9.92774 -6.30179e-19 7.03814)
(10.9587 7.45157e-19 7.74228)
(12.1002 0 10.7286)
(9.99724 6.21103e-19 0.0855041)
(9.98918 -6.04773e-19 0.167529)
(9.97542 -2.94413e-19 0.249454)
(9.95658 8.73538e-20 0.333276)
(9.93336 0 0.42035)
(9.90593 0 0.511904)
(9.87467 1.96539e-19 0.60915)
(9.84002 -1.4093e-21 0.713236)
(9.80231 2.09947e-19 0.825225)
(9.76195 2.16535e-19 0.946214)
(9.71944 -2.23372e-19 1.07736)
(9.67547 6.95521e-19 1.21992)
(9.63052 -9.50817e-19 1.37515)
(9.58539 4.89982e-19 1.54445)
(9.54132 9.9959e-19 1.72938)
(9.4996 -1.01829e-18 1.93169)
(9.46183 0 2.15338)
(9.43003 -1.04773e-18 2.39678)
(9.4065 1.06915e-18 2.66457)
(9.3939 5.34928e-19 2.95966)
(9.39577 0 3.28557)
(9.41705 0 3.64667)
(9.46445 0 4.04798)
(9.54571 0 4.49462)
(9.67304 -2.64497e-18 4.99148)
(9.85357 3.41489e-18 5.54464)
(10.1465 0 6.14341)
(10.443 0 6.79994)
(11.1364 1.08821e-18 7.37008)
(11.9617 4.9202e-19 8.39659)
(9.99755 5.99534e-19 0.0881274)
(9.99047 3.9026e-20 0.172688)
(9.97862 -4.0643e-20 0.257132)
(9.96247 0 0.343508)
(9.94265 1.76383e-19 0.433186)
(9.91928 1.81985e-19 0.5274)
(9.8928 1.89864e-19 0.627329)
(9.8637 -5.897e-19 0.73408)
(9.83235 0 0.8487)
(9.79918 -6.29642e-19 0.97227)
(9.76481 6.47484e-19 1.10591)
(9.72992 0 1.25083)
(9.69521 -4.53021e-19 1.40825)
(9.66161 2.34739e-19 1.5794)
(9.63028 9.53192e-19 1.76569)