/*--------------------------------*- C++ -*----------------------------------*\
| =========                 |                                                 |
| \\      /  F ield         | OpenFOAM: The Open Source CFD Toolbox           |
|  \\    /   O peration     | Version:  dev                                   |
|   \\  /    A nd           | Web:      www.OpenFOAM.org                      |
|    \\/     M anipulation  |                                                 |
\*---------------------------------------------------------------------------*/
FoamFile
{
    version     2.0;
    format      ascii;
    class       volScalarField;
    location    "2.29";
    object      p;
}
// * * * * * * * * * * * * * * * * * * * * * * * * * * * * * * * * * * * * * //

dimensions      [0 2 -2 0 0 0 0];

internalField   nonuniform List<scalar> 
465
(
82.7139
80.6774
78.5966
76.0446
78.7657
76.6703
74.1683
71.2286
67.8343
76.9842
74.9048
72.479
69.6913
66.5392
63.0391
59.2286
75.3338
73.2927
70.959
68.3273
65.4035
62.2072
58.7736
55.1426
51.4618
73.8114
71.8236
69.5901
67.1122
64.4006
61.4762
58.3719
55.1255
51.8477
72.4112
70.4862
68.356
66.0261
63.5095
60.827
58.0082
55.0863
52.1463
71.1261
69.2693
67.2419
65.0518
62.7128
60.2445
57.6727
55.0257
52.3708
69.9486
68.1624
66.2348
64.1749
61.9964
59.7173
57.3595
54.9469
52.5333
68.8709
67.1556
65.3232
63.3835
61.3494
59.2368
57.0646
54.8527
52.644
67.8857
66.2398
64.4971
62.6674
60.7626
58.7967
56.7857
54.746
52.7124
68.4772
66.9858
65.4067
63.7478
62.0183
60.229
58.3921
56.5212
54.6299
52.7464
67.6072
66.1651
64.6494
63.0679
61.4291
59.7427
58.0193
56.2703
54.5072
52.7529
66.8125
65.4179
63.9617
62.4512
60.8941
59.2991
57.6755
56.0328
54.3806
52.7378
66.0888
64.7394
63.3384
61.8924
60.4087
58.8948
57.3588
55.8087
54.2527
52.7063
65.4322
64.1253
62.775
61.3875
59.9694
58.5272
57.0679
55.5986
54.126
52.663
64.8395
63.572
62.268
60.9331
59.5731
58.1941
56.802
55.4029
54.0026
52.6117
64.3083
63.0769
61.8145
60.5265
59.2181
57.8944
56.5609
55.2227
53.8849
52.5562
63.8362
62.6374
61.4123
60.1658
58.9025
57.6271
56.3443
55.0587
53.7746
52.4993
63.4224
62.2527
61.0605
59.8502
58.6261
57.3925
56.1533
54.9128
53.6746
52.4449
63.065
61.9208
60.7571
59.578
58.3875
57.1893
55.9872
54.7847
53.5851
52.3936
62.766
61.6436
60.5042
59.3515
58.1891
57.0207
55.8494
54.6787
53.5114
52.3519
62.5223
61.4178
60.2982
59.1669
58.0274
56.8828
55.7363
54.5908
53.4491
52.3146
62.3413
61.251
60.147
59.0326
57.9109
56.7851
55.658
54.5325
53.411
52.2968
62.2153
61.1346
60.0411
58.9379
57.8281
56.7146
55.6002
54.4875
53.379
52.2771
62.1627
61.0884
60.0018
58.9058
57.8036
56.6979
55.5914
54.4866
53.3859
52.2913
48.0078
48.8058
46.7075
44.9341
49.4397
47.5746
45.9974
49.9415
48.2687
46.8525
50.3353
48.8225
47.5401
50.6406
49.2624
48.0926
50.874
49.6098
48.5353
51.0487
49.8817
48.8886
51.1758
50.0923
49.1689
51.2645
50.2528
49.3895
51.3226
50.3729
49.5614
51.3567
50.4606
49.6939
51.3723
50.5225
49.7945
51.3745
50.5647
49.8701
51.3671
50.5916
49.9257
51.3551
50.6089
49.9673
51.3392
50.6177
49.9968
51.3273
50.6263
50.0222
51.3129
50.6282
50.0381
51.3142
50.642
50.0617
51.3059
50.6424
50.0699
51.3334
50.679
50.1108
42.7598
44.0564
41.6463
38.7949
35.8197
45.1033
42.9197
40.3261
37.5927
34.9369
32.4048
45.9509
43.9581
41.5845
39.0641
36.5889
34.2003
31.893
29.6697
46.6383
44.8074
42.6229
40.2893
37.9779
35.7256
33.527
31.3852
29.3111
47.1957
45.5035
43.4819
41.312
39.1478
37.022
34.9289
32.8708
30.8582
47.6471
46.0741
44.1936
42.1671
40.1343
38.1244
36.131
34.1555
32.2074
48.0116
46.5415
44.7834
42.8826
40.9667
39.0619
37.1613
35.2651
33.3817
48.3048
46.9237
45.2721
43.4815
41.6693
39.8592
38.0437
36.2222
34.4017
48.5395
47.2355
45.6765
43.9825
42.262
40.5367
38.7988
37.0465
35.2859
48.7261
47.489
46.0106
44.4012
42.7616
41.1119
39.4439
37.7552
36.0505
48.8736
47.6944
46.2861
44.7505
43.1821
41.5993
39.994
38.3628
36.7097
48.9896
47.8603
46.5128
45.0415
43.5353
42.0116
40.4619
38.8825
37.2763
49.0799
47.9937
46.6986
45.2829
43.8309
42.3588
40.8581
39.3245
37.7604
49.1511
48.1015
46.8513
45.4835
44.0781
42.6506
41.1925
39.6992
38.1723
49.2057
48.1871
46.9749
45.6476
44.2818
42.8924
41.4709
40.0122
38.5175
49.2514
48.2584
47.0778
45.7842
44.4514
43.0938
41.703
40.2735
38.8062
49.2846
48.3123
47.157
45.8904
44.5841
43.2522
41.8861
40.4804
39.0353
49.3196
48.3631
47.2273
45.9815
44.6955
43.3833
42.0362
40.6488
39.2209
49.3379
48.3915
47.2687
46.0371
44.7651
43.4661
42.132
40.7569
39.3407
49.378
48.4309
47.3146
46.0917
44.8276
43.5358
42.2084
40.8397
39.4295
)
;

boundaryField
{
    inlet
    {
        type            zeroGradient;
    }
    outlet
    {
        type            fixedValue;
        value           nonuniform 0();
    }
    flap
    {
        type            zeroGradient;
    }
    upperWall
    {
        type            zeroGradient;
    }
    lowerWall
    {
        type            zeroGradient;
    }
    frontAndBack
    {
        type            empty;
    }
    procBoundary1to0
    {
        type            processor;
        value           nonuniform List<scalar> 
18
(
70.4622
69.4271
69.4271
69.8753
68.9699
68.1394
67.3804
66.6898
66.0649
65.5035
65.0038
64.565
64.1856
63.8675
63.608
63.4144
63.2797
63.2213
)
;
    }
    procBoundary1to2
    {
        type            processor;
        value           nonuniform List<scalar> 
17
(
27.3141
28.9007
30.2961
31.5197
32.5901
33.5237
34.3358
35.0398
35.6477
36.1694
36.6149
36.9896
37.3034
37.553
37.7545
37.8851
37.9793
)
;
    }
    procBoundary1to3
    {
        type            processor;
        value           nonuniform List<scalar> 9(84.2954 82.3501 80.4958 78.7427 77.0966 75.5599 74.1318 72.8092 71.5877);
    }
    procBoundary1to4
    {
        type            processor;
        value           nonuniform List<scalar> 
30
(
84.863
80.6864
80.6864
78.1239
72.9678
72.9678
69.3257
63.9947
63.9947
59.7469
55.1448
55.1448
50.9898
47.0117
45.622
45.622
43.6071
41.1432
40.0765
40.0765
36.9222
33.6762
32.9685
32.9685
30.2913
29.9897
29.9897
27.6928
27.5412
27.5412
)
;
    }
}


// ************************************************************************* //
