/*--------------------------------*- C++ -*----------------------------------*\
| =========                 |                                                 |
| \\      /  F ield         | OpenFOAM: The Open Source CFD Toolbox           |
|  \\    /   O peration     | Version:  dev                                   |
|   \\  /    A nd           | Web:      www.OpenFOAM.org                      |
|    \\/     M anipulation  |                                                 |
\*---------------------------------------------------------------------------*/
FoamFile
{
    version     2.0;
    format      ascii;
    class       surfaceScalarField;
    location    "3.76";
    object      phi;
}
// * * * * * * * * * * * * * * * * * * * * * * * * * * * * * * * * * * * * * //

dimensions      [0 3 -1 0 0 0 0];

internalField   nonuniform List<scalar> 
5457
(
0.198342
0.00166284
0.196353
0.00199346
0.194002
0.00235503
0.19125
0.00275503
0.188095
0.00315725
0.184539
0.00355792
0.180576
0.00396472
0.176192
0.00438476
0.171369
0.00482292
0.166086
0.00528288
0.160318
0.00576765
0.154038
0.00627958
0.147217
0.00682012
0.139827
0.00738941
0.13184
0.00798574
0.123234
0.00860487
0.113994
0.00923914
0.104116
0.00987645
0.0936161
0.0104991
0.0825324
0.0110829
0.0709358
0.0115959
0.0589366
0.0119987
0.0466922
0.0122439
0.0344132
0.0122786
0.0223634
0.0120495
0.0108155
0.0115477
-0.000174967
0.0109904
-0.00623644
0.00606141
-0.00661942
0.000382961
-0.00661943
0.199898
0.00176943
0.199095
0.00280113
0.197832
0.0036221
0.196139
0.00445128
0.194012
0.00528649
0.191449
0.00612299
0.188443
0.00697243
0.18498
0.00784781
0.181045
0.00875893
0.176614
0.00971337
0.171664
0.0107174
0.166167
0.0117762
0.160093
0.0128931
0.153412
0.014069
0.146096
0.0153013
0.138117
0.0165825
0.129456
0.0178987
0.120105
0.0192269
0.11007
0.0205334
0.0993808
0.0217708
0.0880996
0.0228763
0.0763275
0.0237702
0.0642163
0.0243547
0.0519811
0.0245135
0.0399231
0.0241073
0.0285315
0.0229391
0.0189618
0.02056
0.00972795
0.0152952
0.00188258
0.00822831
-0.00473685
0.19975
0.00202419
0.199008
0.00354763
0.197817
0.00481739
0.196224
0.00604672
0.194237
0.00727651
0.191851
0.00851073
0.189062
0.00976327
0.185859
0.0110513
0.182229
0.012389
0.178155
0.013788
0.173614
0.0152578
0.168583
0.0168067
0.163035
0.0184404
0.156941
0.0201615
0.150273
0.0219684
0.143002
0.0238526
0.135103
0.0257969
0.126556
0.0277723
0.117355
0.029734
0.107507
0.0316179
0.0970454
0.0333369
0.0860377
0.0347772
0.0745969
0.035795
0.0628985
0.0362115
0.0512047
0.0358008
0.0398874
0.0342562
0.0293308
0.0311165
0.0190583
0.0255677
0.00972666
0.0175599
0.0049898
0.199669
0.00236039
0.198929
0.00429213
0.197759
0.00599115
0.196194
0.00761474
0.194247
0.00922629
0.191917
0.0108428
0.1892
0.0124813
0.186091
0.0141616
0.182579
0.0159013
0.178651
0.0177153
0.174293
0.0196158
0.169486
0.0216134
0.164209
0.0237159
0.158442
0.0259278
0.152161
0.0282486
0.145342
0.0306705
0.137962
0.0331761
0.129999
0.0357341
0.121436
0.0382952
0.112267
0.040787
0.102495
0.0431081
0.0921484
0.0451227
0.081288
0.0466549
0.0700171
0.047482
0.0584918
0.0473257
0.0469071
0.0458407
0.0354248
0.0425986
0.0239772
0.0370152
0.012566
0.028971
0.0175558
0.199632
0.00273337
0.198886
0.00504222
0.197737
0.00714419
0.196203
0.00915212
0.194297
0.011135
0.19202
0.0131217
0.18937
0.0151333
0.18634
0.0171921
0.182923
0.0193183
0.179109
0.0215292
0.174886
0.0238391
0.170238
0.0262603
0.165151
0.0288021
0.159608
0.0314702
0.15359
0.0342653
0.147079
0.0371809
0.140053
0.0402005
0.132493
0.0432937
0.124375
0.0464116
0.115681
0.0494804
0.106393
0.0523951
0.0965037
0.0550113
0.0860202
0.0571377
0.0749733
0.0585283
0.0634228
0.0588758
0.0514544
0.0578087
0.0391562
0.0548967
0.0265368
0.0496346
0.0135853
0.0419225
0.0311411
0.199617
0.00312084
0.198873
0.00579155
0.197749
0.00827206
0.196254
0.0106502
0.194399
0.0129928
0.192185
0.015337
0.189611
0.0177087
0.186672
0.0201324
0.18336
0.0226304
0.179668
0.0252222
0.175582
0.027924
0.171093
0.0307494
0.166185
0.033709
0.160845
0.0368098
0.155055
0.0400536
0.1488
0.0434354
0.142058
0.0469409
0.134808
0.0505426
0.127024
0.0541952
0.118673
0.0578295
0.109723
0.0613449
0.100133
0.0645998
0.0898686
0.0674018
0.0788995
0.0694969
0.067215
0.0705598
0.0548337
0.0701896
0.0418096
0.0679205
0.0282186
0.0632255
0.0142334
0.0559077
0.0453745
0.199616
0.00351026
0.19888
0.00653125
0.197787
0.00936952
0.196339
0.0121016
0.194544
0.0147905
0.192405
0.0174782
0.18992
0.0201952
0.187085
0.0229684
0.183893
0.0258224
0.180337
0.0287782
0.176407
0.0318539
0.172091
0.0350648
0.167377
0.0384227
0.16225
0.0419361
0.156694
0.0456086
0.150691
0.0494373
0.144219
0.0534112
0.137254
0.0575073
0.129761
0.0616869
0.1217
0.0658894
0.113019
0.0700247
0.103655
0.0739626
0.0935357
0.0775203
0.0825848
0.0804471
0.0707368
0.0824072
0.0579596
0.0829664
0.0442849
0.081595
0.0298444
0.0776658
0.0149533
0.0707987
0.0603278
0.199621
0.00389386
0.198904
0.00725332
0.197847
0.0104308
0.196452
0.0134994
0.194726
0.0165191
0.192672
0.0195348
0.190288
0.0225809
0.18757
0.0256867
0.184514
0.0288787
0.181113
0.03218
0.177356
0.0356103
0.173234
0.0391864
0.168734
0.0429222
0.163841
0.0468278
0.15854
0.0509093
0.152809
0.0551671
0.146625
0.0595944
0.139956
0.0641748
0.132763
0.0688783
0.124996
0.0736562
0.116586
0.0784335
0.107449
0.0830981
0.0974828
0.0874855
0.0865706
0.0913584
0.0745961
0.094381
0.0614725
0.0960896
0.0471905
0.0958767
0.0318886
0.0929676
0.0159524
0.0867348
0.0762802
0.199633
0.00426637
0.19894
0.00795107
0.197924
0.0114501
0.19659
0.0148371
0.194941
0.0181706
0.192981
0.0214973
0.190709
0.0248546
0.188122
0.0282745
0.185216
0.0317851
0.181985
0.0354113
0.17842
0.0391748
0.174512
0.043094
0.170249
0.0471848
0.165616
0.0514599
0.160596
0.0559283
0.155168
0.0605946
0.149303
0.0654578
0.142968
0.0705092
0.136115
0.0757296
0.128685
0.0810851
0.120598
0.0865197
0.11175
0.0919449
0.102011
0.0972232
0.0912248
0.102143
0.0792191
0.106386
0.0658321
0.109476
0.0509696
0.110739
0.0347037
0.109233
0.0174165
0.104022
0.0936967
0.199648
0.00462401
0.198984
0.008619
0.198017
0.0124218
0.196749
0.0161085
0.195185
0.0197375
0.193327
0.0233569
0.191177
0.0270063
0.188732
0.0307201
0.18599
0.0345282
0.182944
0.0384571
0.179589
0.0425302
0.175914
0.0467681
0.17191
0.0511885
0.167562
0.055807
0.162853
0.0606362
0.157761
0.0656856
0.152257
0.0709607
0.146304
0.0764618
0.13985
0.0821824
0.132828
0.0881052
0.12515
0.0941969
0.116695
0.100398
0.107309
0.106608
0.0967946
0.112657
0.0849119
0.118268
0.0713951
0.122992
0.0560025
0.126131
0.0386366
0.126599
0.0195672
0.123091
0.113264
0.199665
0.00496389
0.199037
0.00925261
0.198122
0.0133408
0.196926
0.0173081
0.195453
0.0212133
0.193706
0.0251056
0.191687
0.0290269
0.189395
0.0330131
0.186828
0.0370961
0.183981
0.0413038
0.18085
0.0456612
0.177427
0.0501907
0.173703
0.0549124
0.169664
0.0598447
0.165296
0.0650039
0.160576
0.0704047
0.155476
0.0760596
0.149957
0.0819789
0.143969
0.0881691
0.137442
0.0946315
0.130279
0.101358
0.122353
0.108323
0.113485
0.115474
0.10344
0.122701
0.0919022
0.129805
0.0784718
0.136422
0.0626835
0.141919
0.0441193
0.145163
0.0227273
0.144483
0.135991
0.199685
0.00528378
0.199095
0.00984821
0.198237
0.0142028
0.197118
0.0184308
0.195742
0.022592
0.194113
0.0267367
0.192233
0.0309083
0.190103
0.0351445
0.187721
0.0394784
0.185086
0.0439394
0.182193
0.0485539
0.179037
0.0533459
0.175611
0.0583378
0.171905
0.0635505
0.167904
0.0690041
0.163589
0.0747183
0.158935
0.0807124
0.153907
0.0870063
0.148454
0.0936199
0.142511
0.100573
0.135982
0.107885
0.128735
0.115569
0.120582
0.123625
0.111254
0.132028
0.100366
0.140692
0.0873656
0.149421
0.0714926
0.157791
0.0517958
0.164859
0.0274694
0.168809
0.163461
0.199707
0.00558192
0.199158
0.0104028
0.198361
0.0150041
0.197323
0.0194724
0.196049
0.0238687
0.194543
0.0282443
0.192809
0.0326439
0.190848
0.0371065
0.188661
0.0416663
0.186247
0.0463538
0.183604
0.0511966
0.18073
0.0562202
0.177618
0.0614486
0.174263
0.0669051
0.170653
0.072613
0.166774
0.0785962
0.162605
0.0848805
0.158116
0.0914941
0.153265
0.0984694
0.147993
0.105844
0.142215
0.113662
0.135806
0.121976
0.128584
0.130846
0.120269
0.140341
0.11043
0.150529
0.0983899
0.161461
0.0830611
0.173119
0.0627202
0.1852
0.0349371
0.196592
0.198398
0.19973
0.00585693
0.199224
0.010914
0.198491
0.0157416
0.197538
0.0204293
0.19637
0.0250392
0.194993
0.0296236
0.193411
0.0342282
0.191625
0.0388929
0.18964
0.0436527
0.187455
0.0485389
0.185071
0.0535801
0.182489
0.0588026
0.179705
0.0642318
0.176717
0.0698927
0.173518
0.075811
0.170099
0.0820139
0.166447
0.088532
0.162539
0.0954004
0.158346
0.102661
0.153823
0.110366
0.148902
0.118581
0.143484
0.127392
0.137412
0.136917
0.130437
0.147314
0.122149
0.158816
0.111837
0.171772
0.098205
0.186751
0.0786869
0.204718
0.0477282
0.227551
0.246126
0.199755
0.00610795
0.199294
0.01138
0.198627
0.0164129
0.197761
0.0212986
0.196703
0.0261002
0.195458
0.0308709
0.194031
0.0356569
0.192426
0.0404988
0.190647
0.0454321
0.188698
0.0504886
0.186581
0.0556972
0.184298
0.0610849
0.181852
0.0666777
0.179243
0.0725015
0.17647
0.0785833
0.17353
0.0849526
0.170418
0.0916425
0.167125
0.0986923
0.163634
0.10615
0.159922
0.114077
0.155948
0.122552
0.151653
0.131685
0.146939
0.141629
0.141643
0.152609
0.135486
0.164972
0.127956
0.1793
0.118034
0.196673
0.103301
0.21945
0.0752578
0.255594
0.321383
0.00454074
-0.00454073
0.00891433
-0.00437357
0.0125995
-0.00368504
0.0154658
-0.0028662
0.017545
-0.00207893
0.0189213
-0.00137583
0.0196929
-0.000770977
0.0199656
-0.000271992
0.0198576
0.000108997
0.0194878
0.000370958
0.0189522
0.000536782
0.0183274
0.000626049
0.01768
0.000648867
0.0170657
0.000615856
0.0165252
0.0005422
0.0160793
0.0004476
0.0157271
0.000353961
0.0154499
0.000278868
0.0152251
0.000226408
0.0150427
0.000183779
0.0149133
0.000130591
0.0148596
5.45888e-05
0.0148962
-3.62592e-05
0.0150177
-0.000121609
0.0152164
-0.000199346
0.0155063
-0.000291169
0.0159274
-0.000423091
0.0165301
-0.000605355
0.0173372
-0.000810583
-0.000900556
0.00422846
-0.00876918
0.00839493
-0.00854
0.0119604
-0.00725047
0.0148333
-0.0057389
0.0170602
-0.0043055
0.0187146
-0.00302988
0.0198748
-0.00193059
0.0206154
-0.00101175
0.0209964
-0.000271099
0.0210892
0.00027925
0.0209831
0.000644125
0.020757
0.000853454
0.0204765
0.000930808
0.0201893
0.000904594
0.0199236
0.000809571
0.0196871
0.000685817
0.0194684
0.000574454
0.0192436
0.000505356
0.0189918
0.000479816
0.0187108
0.000466242
0.0184196
0.000422895
0.0181421
0.000332913
0.0178888
0.000217443
0.0176586
0.000108523
0.0174459
1.27446e-05
0.0172547
-0.000101317
0.0171198
-0.000290172
0.0171023
-0.000590586
0.0172896
-0.00100132
-0.00140721
0.00357281
-0.012342
0.00704561
-0.0120128
0.00992596
-0.0101307
0.0122458
-0.00805857
0.014075
-0.0061344
0.0154694
-0.00442387
0.0164829
-0.00294362
0.0171719
-0.00169992
0.0175968
-0.000695144
0.0178009
7.6263e-05
0.0178249
0.000621339
0.0177271
0.000952511
0.0175554
0.00110396
0.017337
0.00112461
0.0170811
0.00106709
0.0167819
0.000986766
0.0164205
0.000937624
0.0159691
0.000958475
0.0154024
0.00104813
0.0147125
0.00115764
0.0139149
0.00122168
0.0130533
0.00119534
0.0122006
0.0010705
0.0114324
0.000876649
0.0108034
0.000641076
0.0103397
0.000361029
0.0100295
1.80462e-05
0.00989511
-0.000458921
0.00997911
-0.00108876
-0.0018406
0.00283495
-0.0151769
0.0053643
-0.0145421
0.00731888
-0.0120852
0.00887539
-0.00961492
0.0101111
-0.00736988
0.0110698
-0.00538215
0.0117847
-0.00365806
0.0122862
-0.00220066
0.0126044
-0.00101252
0.0127106
-2.88837e-05
0.0126124
0.000720739
0.0123761
0.00119003
0.0120337
0.00144785
0.0115803
0.00157959
0.0109909
0.00165821
0.0102451
0.00173439
0.00935706
0.00182742
0.00838432
0.00193297
0.0074013
0.00203278
0.00646692
0.00209348
0.00561802
0.00207176
0.00487743
0.00193677
0.00425545
0.00169289
0.00375187
0.00138013
0.00335324
0.00103903
0.00303973
0.000673214
0.00279766
0.000258093
0.00261679
-0.000280794
0.00252
-0.000995435
-0.00195585
0.00190886
-0.0170858
0.0032873
-0.0159205
0.00416508
-0.0129629
0.00481725
-0.010267
0.00530134
-0.00785374
0.00565824
-0.00573871
0.00591925
-0.00391858
0.00607276
-0.00235353
0.00595159
-0.000890531
0.00555637
0.000367333
0.0050654
0.00121284
0.0045033
0.00175341
0.00385233
0.00210028
0.0031141
0.00231943
0.0023149
0.00245914
0.00149708
0.00255402
0.000704051
0.00262228
-2.85992e-05
0.0026674
-0.000676629
0.00268248
-0.00123191
0.00265023
-0.00170542
0.00254647
-0.00212585
0.00235804
-0.00252811
0.00209555
-0.00293326
0.00178518
-0.00333914
0.00144422
-0.00373246
0.00106519
-0.00409537
0.000618965
-0.00444111
6.21805e-05
-0.00471769
-0.000722356
-0.00170547
0.000765549
-0.0178513
0.000835421
-0.0159904
0.000579515
-0.012707
0.000215614
-0.00990294
-0.000198003
-0.00743993
-0.000649617
-0.00528679
-0.00120291
-0.00336485
-0.00190894
-0.00164692
-0.00257321
-0.000225501
-0.00305814
0.000853203
-0.00351462
0.00167042
-0.00401285
0.00225293
-0.00454956
0.00263845
-0.00510485
0.00287635
-0.00565299
0.00300905
-0.0061697
0.00307258
-0.00663917
0.00309362
-0.00705664
0.0030867
-0.00742697
0.00305452
-0.00776475
0.00298952
-0.0080957
0.00287864
-0.00845016
0.00271335
-0.00884969
0.0024955
-0.00929623
0.00223159
-0.00977208
0.00191937
-0.0102515
0.00154322
-0.0107129
0.00107835
-0.0111261
0.000472587
-0.0114857
-0.00036628
-0.00126757
-0.000598058
-0.0172533
-0.00186263
-0.0147258
-0.0032757
-0.0112939
-0.00469392
-0.00848461
-0.00604524
-0.00608844
-0.00729728
-0.00403449
-0.00839521
-0.00226654
-0.00927597
-0.000765635
-0.00993245
0.000431677
-0.0104405
0.0013621
-0.0108688
0.00209984
-0.0112561
0.00264149
-0.0116207
0.00300459
-0.0119651
0.00322233
-0.0122867
0.00333254
-0.0125849
0.00337268
-0.0128636
0.00337416
-0.0131324
0.00335744
-0.0134063
0.00333012
-0.0137032
0.00328801
-0.0140424
0.00321908
-0.0144385
0.00311029
-0.0148947
0.00295204
-0.0153992
0.002736
-0.0159296
0.00244909
-0.0164607
0.00207288
-0.0169667
0.00158232
-0.017424
0.000927077
-0.0178728
7.89509e-05
-0.000729365
-0.00204001
-0.0152132
-0.00454037
-0.0122254
-0.00697802
-0.00885618
-0.0092388
-0.00622376
-0.0112256
-0.00410147
-0.0128954
-0.0023645
-0.0142323
-0.000929281
-0.0152288
0.000231291
-0.015953
0.00115652
-0.0165041
0.00191398
-0.0169257
0.00252256
-0.0172589
0.00297592
-0.0175354
0.00328267
-0.0177766
0.00346526
-0.0179981
0.00355586
-0.018214
0.00359055
-0.0184393
0.00360143
-0.0186896
0.00360965
-0.0189797
0.00362204
-0.019322
0.00363187
-0.0197245
0.00362286
-0.0201886
0.00357521
-0.0207064
0.00347025
-0.0212612
0.00329069
-0.0218317
0.00301882
-0.0223975
0.00263728
-0.0229428
0.00212544
-0.0234651
0.00144657
-0.0239885
0.000598729
-0.000138315
-0.00337703
-0.0118362
-0.00704264
-0.00855977
-0.0103807
-0.00551807
-0.0132964
-0.00330806
-0.0157155
-0.00168225
-0.0176391
-0.000440722
-0.0190992
0.000531137
-0.020181
0.00131354
-0.0209973
0.00197337
-0.0216127
0.00253015
-0.0220716
0.00298254
-0.0224207
0.00332628
-0.0226995
0.00356305
-0.0229387
0.00370621
-0.0231628
0.0037818
-0.0233933
0.00382307
-0.02365
0.0038602
-0.0239496
0.00391118
-0.0243037
0.00397797
-0.0247182
0.00404798
-0.0251931
0.00409903
-0.0257226
0.00410561
-0.0262953
0.00404338
-0.0268952
0.0038904
-0.0275042
0.0036271
-0.0281061
0.00323772
-0.0286903
0.00270745
-0.029264
0.00201738
-0.0298701
0.00120122
0.000537418
-0.00467759
-0.00715861
-0.00957271
-0.00366464
-0.0137691
-0.0013217
-0.0171518
7.47076e-05
-0.0197787
0.000944717
-0.0217832
0.00156393
-0.0233195
0.00206765
-0.0245137
0.0025081
-0.0254333
0.00289354
-0.0261313
0.00322889
-0.0266621
0.00351437
-0.0270778
0.00374335
-0.0274213
0.00390814
-0.027725
0.00401166
-0.0280148
0.00407358
-0.0283141
0.00412453
-0.0286439
0.00419209
-0.0290199
0.00428917
-0.0294507
0.00441068
-0.0299382
0.00453709
-0.0304789
0.00464098
-0.0310656
0.00469322
-0.0316885
0.00466665
-0.032335
0.0045368
-0.0329912
0.00428248
-0.0336437
0.00388866
-0.0342857
0.00334733
-0.0349325
0.0026612
-0.0356301
0.0018951
0.0013073
-0.00656549
-0.000593124
-0.0125226
0.00229247
-0.0171404
0.00329608
-0.0206584
0.00359283
-0.0233897
0.00367604
-0.0255259
0.00370026
-0.0271982
0.0037401
-0.0285044
0.00381467
-0.0295191
0.00390869
-0.0303049
0.0040155
-0.0309249
0.00413536
-0.0314362
0.00425601
-0.0318812
0.00435481
-0.0322879
0.00442023
-0.032678
0.00446566
-0.0330731
0.00452178
-0.0334944
0.0046156
-0.0339581
0.00475492
-0.0344722
0.00492674
-0.0350381
0.00510456
-0.0356525
0.00525668
-0.0363102
0.00535181
-0.0370044
0.00536119
-0.0377256
0.00525785
-0.038461
0.00501702
-0.0391948
0.00462095
-0.0399152
0.00406544
-0.0406296
0.0033726
-0.0413762
0.00263797
0.00212805
-0.00840343
0.00781031
-0.0150699
0.00895899
-0.0201223
0.00834847
-0.0239791
0.00744965
-0.0269278
0.00662483
-0.0291829
0.00595547
-0.03093
0.00548737
-0.0323071
0.00519199
-0.0333968
0.00499883
-0.0342618
0.00488128
-0.0349714
0.00484603
-0.035589
0.00487506
-0.0361533
0.00492085
-0.0366811
0.00494988
-0.0371837
0.0049704
-0.0376795
0.00501983
-0.0381917
0.00512993
-0.0387387
0.00530412
-0.03933
0.00551991
-0.0399664
0.00574263
-0.0406445
0.00593606
-0.0413589
0.00606713
-0.0421035
0.00610614
-0.0428701
0.0060242
-0.0436468
0.0057928
-0.044418
0.00539062
-0.0451714
0.00481653
-0.0459116
0.00410982
-0.0466703
0.00339278
0.0029367
-0.010068
0.0178783
-0.0180502
0.0169412
-0.0236697
0.013968
-0.0276659
0.0114458
-0.0306393
0.00959827
-0.032863
0.0081793
-0.034572
0.00719658
-0.0359531
0.00657331
-0.0370797
0.00612593
-0.037992
0.00579431
-0.0387628
0.00561793
-0.0394678
0.00558155
-0.040139
0.00559385
-0.0407724
0.00558524
-0.0413624
0.00556257
-0.0419241
0.00558382
-0.0424873
0.00569544
-0.0430776
0.00589658
-0.0437069
0.00615111
-0.0443759
0.00641332
-0.0450805
0.00664193
-0.0458153
0.00680278
-0.0465754
0.00686655
-0.0473555
0.006804
-0.0481468
0.00658321
-0.0489359
0.00617809
-0.0497101
0.00558836
-0.0504691
0.00486576
-0.0512322
0.00415198
0.00371652
-0.0131323
0.0310106
-0.0226205
0.0264295
-0.0283548
0.0197023
-0.0318963
0.0149874
-0.0345773
0.0122793
-0.0365459
0.010148
-0.0380305
0.00868138
-0.0393105
0.00785366
-0.0404161
0.00723197
-0.0413117
0.00669063
-0.0420735
0.00638096
-0.0428128
0.00632249
-0.0435544
0.00633728
-0.0442578
0.00629073
-0.0448905
0.00619751
-0.0454671
0.00616266
-0.0460332
0.00626387
-0.0466269
0.00649245
-0.0472625
0.00678869
-0.0479384
0.00709087
-0.0486479
0.00735274
-0.0493851
0.00754076
-0.0501464
0.00762817
-0.0509303
0.00758758
-0.0517323
0.0073842
-0.0525406
0.00698474
-0.0533408
0.00638611
-0.0541254
0.0056472
-0.0548972
0.00491991
0.00449225
-0.0190217
0.0500323
-0.0300655
0.0374733
-0.0350363
0.0246732
-0.0366117
0.016563
-0.0385747
0.0142425
-0.0400562
0.0116296
-0.0410391
0.00966452
-0.0420849
0.00889968
-0.0431249
0.00827246
-0.0439173
0.00748395
-0.0445541
0.00701899
-0.0452521
0.00702217
-0.0460289
0.00711601
-0.0467737
0.00703764
-0.0474071
0.00683323
-0.047948
0.00670595
-0.048475
0.00679317
-0.0490456
0.00706527
-0.0496726
0.00741765
-0.0503457
0.00776562
-0.0510526
0.00806081
-0.0517853
0.00827427
-0.0525418
0.00838492
-0.0533252
0.00837059
-0.054137
0.00819496
-0.054968
0.00781401
-0.0558007
0.00721632
-0.0566202
0.00646349
-0.0574125
0.00570819
0.00527258
0.207431
0.00634209
0.207002
0.0118144
0.206382
0.0170375
0.205579
0.0221058
0.204599
0.0270829
0.20345
0.0320224
0.202138
0.036971
0.200668
0.0419697
0.199047
0.0470542
0.19728
0.0522563
0.195372
0.0576049
0.19333
0.0631269
0.191159
0.0688485
0.188864
0.0747955
0.186451
0.0809952
0.183926
0.0874772
0.181291
0.0942754
0.178552
0.10143
0.175711
0.10899
0.172767
0.117019
0.169719
0.125599
0.16656
0.134843
0.163279
0.144908
0.159863
0.156023
0.156302
0.168532
0.152631
0.18297
0.149114
0.200189
0.147432
0.221132
0.16005
0.242975
0.252701
0.228733
0.212477
0.00655364
0.212091
0.0122063
0.211533
0.0176002
0.210812
0.0228309
0.209935
0.0279629
0.20891
0.0330497
0.207745
0.0381381
0.206447
0.043269
0.205024
0.0484781
0.203484
0.0537966
0.201836
0.0592531
0.200089
0.0648738
0.198253
0.0706839
0.196339
0.0767086
0.194359
0.0829738
0.192328
0.0895077
0.19026
0.0963422
0.188174
0.103514
0.186092
0.11107
0.184044
0.119065
0.182068
0.127573
0.180219
0.136689
0.178588
0.146537
0.177326
0.157283
0.176726
0.169131
0.177406
0.182289
0.180776
0.196818
0.189423
0.212484
0.204192
0.228206
0.242122
0.214771
0.217647
0.0067402
0.217308
0.0125515
0.216818
0.0180947
0.216187
0.0234663
0.215422
0.0287307
0.214533
0.0339417
0.213527
0.0391455
0.212415
0.0443826
0.211206
0.049688
0.209911
0.0550923
0.208541
0.0606228
0.20711
0.0663046
0.205632
0.0721613
0.204124
0.078216
0.202605
0.0844921
0.201097
0.0910146
0.199627
0.0978109
0.198228
0.104912
0.196942
0.112355
0.195823
0.120183
0.194946
0.128448
0.194418
0.137215
0.194396
0.146557
0.195125
0.156552
0.196992
0.167262
0.200579
0.178701
0.206631
0.190766
0.215758
0.203357
0.227606
0.216357
0.226671
0.243057
0.222944
0.00689959
0.222655
0.012846
0.222239
0.0185154
0.221705
0.0240045
0.221062
0.0293776
0.220318
0.0346879
0.219485
0.0399814
0.218571
0.0452973
0.217591
0.0506696
0.216556
0.0561277
0.215482
0.0616972
0.214385
0.0674015
0.213284
0.0732618
0.212201
0.0792981
0.211162
0.0855302
0.210197
0.0919783
0.209344
0.0986634
0.208646
0.105608
0.208163
0.112837
0.207967
0.120377
0.208156
0.128257
0.208864
0.136506
0.21027
0.145149
0.212623
0.154197
0.216252
0.163631
0.221559
0.173393
0.228983
0.183341
0.239112
0.193227
0.252831
0.202638
0.209132
0.270369
0.22837
0.00702982
0.228136
0.0130859
0.227799
0.0188569
0.227369
0.0244389
0.226855
0.0298954
0.226267
0.0352791
0.225615
0.040635
0.224913
0.0460014
0.224173
0.0514102
0.223412
0.0568892
0.222647
0.0624623
0.221899
0.0681502
0.221189
0.0739711
0.220545
0.0799415
0.219998
0.0860765
0.219585
0.0923903
0.21935
0.0988964
0.21935
0.105607
0.21965
0.112535
0.220336
0.11969
0.221514
0.127077
0.223323
0.134695
0.225939
0.142531
0.229582
0.150552
0.234521
0.15869
0.241081
0.166832
0.249641
0.17478
0.260669
0.182198
0.274605
0.188701
0.193176
0.290562
0.233928
0.00712908
0.233752
0.0132681
0.2335
0.0191144
0.23318
0.0247633
0.232802
0.0302771
0.232377
0.0357073
0.231916
0.0410975
0.231435
0.0464847
0.230947
0.0518991
0.230471
0.0573662
0.230026
0.0629075
0.229635
0.0685408
0.229325
0.0742808
0.229126
0.0801399
0.229074
0.0861281
0.22921
0.0922531
0.229585
0.0985205
0.230258
0.104933
0.231301
0.111491
0.232803
0.118186
0.23487
0.125008
0.237634
0.13193
0.24125
0.138913
0.245906
0.145894
0.251817
0.152777
0.259227
0.159422
0.268378
0.165628
0.279459
0.171116
0.292552
0.175608
0.17863
0.307097
0.239622
0.0071958
0.239507
0.0133894
0.239343
0.0192839
0.239138
0.0249726
0.238903
0.0305164
0.238648
0.0359654
0.238386
0.0413615
0.238133
0.0467397
0.237904
0.0521285
0.23772
0.0575511
0.237602
0.0630261
0.237575
0.068568
0.237667
0.074188
0.237913
0.0798939
0.238349
0.0856906
0.239022
0.0915794
0.239983
0.0975586
0.241293
0.103622
0.243025
0.109757
0.245263
0.115947
0.248108
0.122162
0.251673
0.128364
0.25609
0.134494
0.261506
0.140477
0.268075
0.146207
0.275948
0.151548
0.285246
0.156329
0.29602
0.160341
0.308259
0.163369
0.16521
0.321679
0.245454
0.00722862
0.245402
0.0134475
0.24533
0.0193617
0.245245
0.0250623
0.245157
0.0306084
0.245077
0.036048
0.24502
0.0414213
0.245001
0.0467611
0.245037
0.0520938
0.245149
0.05744
0.24536
0.0628156
0.245696
0.0682317
0.246188
0.0736956
0.246871
0.079211
0.247783
0.0847775
0.248971
0.0903911
0.250485
0.0960431
0.252386
0.10172
0.254741
0.107401
0.257628
0.113059
0.261134
0.118656
0.265352
0.124144
0.270386
0.129459
0.27634
0.134521
0.283314
0.139232
0.29139
0.143472
0.300616
0.147103
0.310986
0.149971
0.322436
0.151919
0.152884
0.334762
0.251427
0.00722647
0.251441
0.0134403
0.251463
0.0193453
0.251501
0.0250293
0.251564
0.0305493
0.251664
0.0359513
0.251815
0.0412733
0.252032
0.0465458
0.252335
0.0517928
0.252743
0.0570323
0.253282
0.0622774
0.253978
0.0675359
0.254861
0.0728118
0.255967
0.0781045
0.257335
0.0834094
0.259008
0.0887173
0.261036
0.0940143
0.263474
0.0992809
0.266382
0.104491
0.269827
0.109612
0.273881
0.114601
0.278616
0.119407
0.284108
0.123966
0.290424
0.128204
0.297621
0.132034
0.305735
0.135357
0.314769
0.138068
0.324681
0.140059
0.335375
0.141225
0.141571
0.346687
0.257544
0.00718858
0.257625
0.0133666
0.257744
0.0192327
0.257907
0.0248714
0.258123
0.030337
0.258405
0.0356733
0.258765
0.0409159
0.25922
0.046093
0.259788
0.0512261
0.260491
0.0563308
0.261352
0.061417
0.262398
0.0664899
0.26366
0.07155
0.265171
0.0765935
0.266967
0.0816121
0.269091
0.0865927
0.271587
0.0915176
0.274504
0.0963635
0.277893
0.101101
0.281808
0.105695
0.286306
0.110103
0.291439
0.114273
0.297256
0.118148
0.303798
0.121662
0.311088
0.124743
0.31913
0.127314
0.327899
0.129299
0.337333
0.130625
0.34733
0.131228
0.131144
0.357758
0.26381
0.00711451
0.263958
0.0132254
0.264174
0.0190228
0.264463
0.0245874
0.264834
0.0299706
0.265297
0.0352136
0.265867
0.0403497
0.266557
0.0454047
0.267387
0.0503975
0.268378
0.0553412
0.269552
0.0602433
0.270936
0.0651063
0.272559
0.0699279
0.27445
0.0747016
0.276646
0.0794162
0.279182
0.0840562
0.282098
0.0886013
0.285434
0.0930264
0.289233
0.0973014
0.293537
0.101391
0.298386
0.105254
0.303814
0.108844
0.309851
0.11211
0.316513
0.114999
0.323803
0.117452
0.331703
0.119414
0.340171
0.120831
0.34914
0.121657
0.358512
0.121856
0.121478
0.368178
0.270226
0.00700411
0.270442
0.0130166
0.270756
0.0187156
0.271171
0.0241775
0.271696
0.0294506
0.272339
0.0345737
0.273115
0.0395774
0.274037
0.0444849
0.275123
0.0493132
0.276393
0.0540727
0.277868
0.0587687
0.279574
0.0634014
0.281535
0.0679666
0.283782
0.0724554
0.286342
0.0768551
0.28925
0.0811485
0.292536
0.0853144
0.296235
0.0893274
0.300378
0.093158
0.304995
0.0967729
0.310113
0.100135
0.315752
0.103204
0.321924
0.105938
0.328629
0.108293
0.335855
0.110226
0.343571
0.111698
0.351728
0.112674
0.360259
0.113127
0.369076
0.11304
0.112467
0.378088
0.276796
0.00685755
0.27708
0.0127405
0.27749
0.0183117
0.278031
0.0236428
0.278707
0.0287791
0.279528
0.0337566
0.280505
0.0386032
0.281653
0.0433401
0.282986
0.0479817
0.284524
0.0525365
0.286286
0.0570079
0.288294
0.0613943
0.290571
0.0656897
0.293142
0.0698842
0.296033
0.0739639
0.29927
0.0779112
0.302879
0.0817051
0.306885
0.0853212
0.31131
0.0887322
0.316175
0.0919079
0.321493
0.0948161
0.327274
0.0974233
0.333515
0.0996958
0.340207
0.101601
0.347326
0.103107
0.354836
0.104188
0.362687
0.104823
0.370814
0.105
0.37914
0.104714
0.10402
0.387588
0.283524
0.0066753
0.283874
0.0123981
0.28438
0.0178126
0.285043
0.0229856
0.285868
0.0279593
0.286862
0.0327668
0.288035
0.0374335
0.2894
0.0419784
0.29097
0.0464137
0.292761
0.0507464
0.294793
0.054978
0.297082
0.0591058
0.299649
0.0631227
0.302516
0.0670182
0.305702
0.0707781
0.309228
0.0743852
0.313113
0.0778197
0.317375
0.081059
0.322028
0.0840788
0.327083
0.086853
0.332544
0.0893547
0.33841
0.091557
0.344671
0.0934341
0.351309
0.0949621
0.358296
0.0961201
0.365592
0.0968921
0.373148
0.0972676
0.380906
0.0972432
0.388799
0.0968225
0.0960579
0.396761
0.290413
0.00645811
0.290828
0.0119907
0.291427
0.0172204
0.29221
0.0222092
0.293179
0.0269956
0.29434
0.0316102
0.295701
0.0360759
0.297273
0.0404096
0.299067
0.0446218
0.301098
0.0487176
0.30338
0.0526977
0.305928
0.0565583
0.30876
0.0602918
0.311891
0.0638877
0.315337
0.0673323
0.319113
0.0706095
0.323232
0.0737009
0.327704
0.0765868
0.332536
0.0792461
0.337732
0.0816571
0.343289
0.0837981
0.349197
0.0856485
0.355441
0.0871893
0.361999
0.0884044
0.368839
0.0892808
0.375921
0.0898102
0.3832
0.0899893
0.390623
0.0898211
0.398132
0.089314
0.0885168
0.405674
0.297466
0.00620695
0.297945
0.0115203
0.298635
0.0165381
0.299533
0.0213174
0.300641
0.0258934
0.301962
0.0302938
0.303502
0.0345394
0.30527
0.0386449
0.307275
0.0426193
0.309528
0.0464665
0.312041
0.0501863
0.314826
0.0537744
0.317896
0.0572233
0.321262
0.0605227
0.324934
0.0636599
0.328924
0.0666203
0.333237
0.0693878
0.337879
0.0719454
0.34285
0.0742755
0.348146
0.0763607
0.35376
0.0781842
0.359677
0.079731
0.365879
0.080988
0.372338
0.081945
0.379024
0.0825953
0.385898
0.0829362
0.392919
0.0829694
0.400039
0.0827018
0.40721
0.0821443
0.0813418
0.414386
0.304689
0.00592302
0.305229
0.0109891
0.306005
0.0157691
0.307014
0.0203151
0.308255
0.0246589
0.309728
0.0288255
0.311438
0.0328337
0.31339
0.0366961
0.315591
0.0404206
0.31805
0.0440101
0.320774
0.0474636
0.323773
0.0507768
0.327055
0.0539426
0.330627
0.0569513
0.334496
0.0597917
0.338666
0.0624507
0.343139
0.0649148
0.347915
0.0671698
0.35299
0.0692016
0.358354
0.0709967
0.363995
0.0725428
0.369897
0.0738293
0.376037
0.0748481
0.382388
0.0755938
0.38892
0.0760642
0.395596
0.0762604
0.402379
0.0761877
0.409226
0.0758549
0.416097
0.0752743
0.0744866
0.422954
0.312084
0.00560764
0.312682
0.0103997
0.313542
0.0149172
0.314656
0.0192074
0.316023
0.0232988
0.317639
0.0272138
0.319508
0.0309691
0.321632
0.0345759
0.324015
0.0380405
0.326662
0.0413653
0.329579
0.044549
0.33277
0.0475874
0.33624
0.050474
0.339992
0.0532001
0.344029
0.0557558
0.34835
0.0581302
0.352953
0.0603121
0.357834
0.0622899
0.362983
0.0640529
0.368389
0.0655912
0.374036
0.066896
0.379905
0.0679607
0.385972
0.0687809
0.392211
0.0693548
0.398593
0.0696834
0.405083
0.0697707
0.411648
0.0696237
0.418251
0.0692525
0.424857
0.0686695
0.0679113
0.431433
0.319655
0.00526226
0.320309
0.00975474
0.321248
0.0139866
0.322463
0.0179999
0.323948
0.0218203
0.325699
0.0254676
0.327716
0.0289565
0.329999
0.0322966
0.33255
0.0354935
0.335369
0.0385488
0.338459
0.0414612
0.341821
0.0442268
0.345457
0.0468397
0.349366
0.0492926
0.353545
0.0515771
0.357992
0.0536841
0.3627
0.0556047
0.367661
0.05733
0.372863
0.058852
0.37829
0.0601638
0.383927
0.0612597
0.389752
0.0621362
0.395741
0.0627918
0.401869
0.0632273
0.408107
0.0634458
0.414425
0.0634531
0.420793
0.063257
0.427178
0.0628681
0.43355
0.0622986
0.0615809
0.439881
0.327408
0.00488834
0.328115
0.00905718
0.329129
0.0129814
0.330438
0.0166984
0.332034
0.0202306
0.333911
0.0235957
0.336066
0.0268063
0.338496
0.0298707
0.341199
0.0327936
0.344175
0.0355763
0.347421
0.0382175
0.350936
0.0407138
0.354717
0.04306
0.358761
0.0452501
0.363062
0.047277
0.367614
0.0491338
0.372406
0.0508134
0.377428
0.0523092
0.382665