/*--------------------------------*- C++ -*----------------------------------*\
| =========                 |                                                 |
| \\      /  F ield         | OpenFOAM: The Open Source CFD Toolbox           |
|  \\    /   O peration     | Version:  dev                                   |
|   \\  /    A nd           | Web:      www.OpenFOAM.org                      |
|    \\/     M anipulation  |                                                 |
\*---------------------------------------------------------------------------*/
FoamFile
{
    version     2.0;
    format      ascii;
    class       volVectorField;
    location    "2.82";
    object      Force;
}
// * * * * * * * * * * * * * * * * * * * * * * * * * * * * * * * * * * * * * //

dimensions      [1 1 -2 0 0 0 0];

internalField   uniform (0 0 0);

boundaryField
{
    inlet
    {
        type            calculated;
        value           uniform (0 0 0);
    }
    outlet
    {
        type            calculated;
        value           uniform (0 0 0);
    }
    flap
    {
        type            calculated;
        value           nonuniform List<vector> 
33
(
(3.39437 0 -0.203883)
(3.34912 1.87567e-17 -0.459737)
(3.27659 1.84223e-17 -0.695343)
(3.17602 -1.80498e-17 -0.869696)
(3.05849 -2.61796e-22 -0.987828)
(2.93522 -4.34099e-21 -1.05747)
(2.81332 8.04471e-18 -1.0892)
(2.69583 -3.71662e-21 -1.09334)
(2.57866 4.70198e-38 -1.07681)
(2.4563 -9.40395e-38 -1.04274)
(2.32302 -2.30109e-17 -0.991989)
(2.1682 1.59122e-17 -0.924038)
(1.97388 1.33482e-22 -0.836049)
(1.70766 -9.73626e-18 -0.717497)
(1.30368 9.56508e-18 -0.546564)
(0.25968 1.06449e-17 0.607175)
(0.152239 4.61224e-21 0.361426)
(0.0489706 3.52648e-38 0.118752)
(-0.014562 1.33284e-17 0.000887502)
(-0.0147164 1.36597e-17 0.00200501)
(-0.0150241 2.19667e-20 0.00315349)
(-0.0155871 1.44901e-17 0.00418728)
(-0.0165312 1.48776e-17 0.00520157)
(-0.0180583 -3.44219e-24 0.00630336)
(-0.0205033 1.55353e-17 0.00767568)
(-0.0243201 7.14367e-20 0.00956912)
(-0.0299658 1.59765e-17 0.0122297)
(-0.0377287 1.83671e-40 0.0157965)
(-0.0478931 -2.9566e-23 0.0204118)
(-0.0606802 -1.77272e-19 0.0261322)
(-0.075116 1.68265e-17 0.032535)
(-0.0874125 1.80625e-17 0.0380748)
(-0.0823321 2.0836e-17 0.0364155)
)
;
    }
    upperWall
    {
        type            calculated;
        value           uniform (0 0 0);
    }
    lowerWall
    {
        type            calculated;
        value           uniform (0 0 0);
    }
    frontAndBack
    {
        type            empty;
    }
}


// ************************************************************************* //
