/*--------------------------------*- C++ -*----------------------------------*\
| =========                 |                                                 |
| \\      /  F ield         | OpenFOAM: The Open Source CFD Toolbox           |
|  \\    /   O peration     | Version:  dev                                   |
|   \\  /    A nd           | Web:      www.OpenFOAM.org                      |
|    \\/     M anipulation  |                                                 |
\*---------------------------------------------------------------------------*/
FoamFile
{
    version     2.0;
    format      ascii;
    class       surfaceVectorField;
    location    "1.45";
    object      Uf;
}
// * * * * * * * * * * * * * * * * * * * * * * * * * * * * * * * * * * * * * //

dimensions      [0 1 -1 0 0 0 0];

internalField   nonuniform List<vector> 
882
(
(10.1696 8.10598e-19 3.51195)
(10.329 7.76181e-19 3.63649)
(10.3492 2.19666e-20 3.44169)
(10.4762 2.20371e-20 3.95312)
(10.4849 7.47041e-19 3.73809)
(10.6507 -1.76721e-20 4.04533)
(10.506 -1.58685e-20 3.54405)
(10.513 -7.40706e-19 3.35363)
(10.6611 7.15646e-19 3.83181)
(10.6567 -1.50727e-19 3.62432)
(10.8456 6.97904e-19 4.1249)
(10.8269 8.60926e-19 3.90039)
(11.0614 1.39896e-20 4.41659)
(11.0256 3.46361e-19 4.17692)
(11.2526 -1.14417e-20 4.44666)
(10.6652 -8.86125e-19 3.43511)
(10.6607 -3.66604e-19 3.25043)
(10.8247 -8.01979e-21 3.69476)
(10.8092 -5.3064e-19 3.49598)
(11.0095 5.01396e-19 3.95504)
(10.9808 4.88174e-19 3.7428)
(11.2205 3.21709e-19 4.21025)
(11.1763 3.30341e-19 3.98643)
(11.457 -1.40461e-19 4.45351)
(11.3953 2.01465e-20 4.22107)
(11.7166 -1.44001e-19 4.67726)
(11.6364 -2.9863e-19 4.44044)
(11.8971 2.94987e-19 4.63792)
(10.8065 0 3.31272)
(10.7922 7.97419e-20 3.13467)
(10.9678 -2.67817e-20 3.54589)
(10.9431 -4.16439e-20 3.35631)
(11.1506 3.12354e-19 3.77647)
(11.1138 -3.61193e-19 3.57637)
(11.355 2.0772e-20 3.99974)
(11.3044 1.33008e-20 3.79087)
(11.58 -1.42895e-19 4.21037)
(11.5142 -1.09937e-20 3.99524)
(11.823 1.56175e-19 4.40288)
(11.7416 1.55918e-19 4.18473)
(12.0802 1.3297e-19 4.57162)
(11.9838 2.74095e-19 4.35466)
(12.3456 -1.58222e-19 4.71319)
(12.2337 -1.40376e-19 4.50005)
(12.5159 3.57282e-19 4.62108)
(12.616 -1.39731e-18 4.81472)
(10.9308 3.75121e-20 3.1797)
(10.908 2.36455e-19 3.00882)
(11.0918 -3.84916e-19 3.38848)
(11.0594 -4.27483e-20 3.20818)
(11.2709 -6.69282e-19 3.59261)
(11.2277 -4.17598e-19 3.40409)
(11.4676 -1.94022e-20 3.78818)
(11.4124 -1.11984e-19 3.59309)
(11.6808 2.965e-19 3.97116)
(11.6124 3.04961e-19 3.77153)
(11.908 2.77377e-19 4.13758)
(11.8262 -1.40172e-19 3.93595)
(12.1458 -9.78644e-21 4.28355)
(12.0513 5.48903e-19 4.0831)
(12.3899 3.94506e-19 4.40612)
(12.2823 -5.38431e-19 4.20962)
(12.5406 6.59841e-19 4.31508)
(12.636 -8.39096e-20 4.4944)
(11.0389 1.54857e-19 3.0386)
(11.0089 7.16927e-21 2.87509)
(11.1981 -7.58631e-20 3.22517)
(11.1592 -1.47332e-19 3.05391)
(11.3724 1.53822e-19 3.40595)
(11.3239 -7.58669e-20 3.2282)
(11.561 2.21455e-19 3.57768)
(11.5021 8.29853e-20 3.39503)
(11.7625 -1.44081e-19 3.73725)
(11.6924 0 3.55141)
(11.9747 1.42209e-19 3.88186)
(11.8933 -2.74423e-19 3.69476)
(12.1949 -1.67274e-21 4.0089)
(12.1027 2.86237e-19 3.82287)
(12.4198 -2.61978e-19 4.11617)
(12.3165 -1.40131e-19 3.93357)
(12.554 0 4.02653)
(12.6454 4.92011e-19 4.19412)
(11.1316 -3.02884e-19 2.8915)
(11.0956 -1.55401e-19 2.73535)
(11.2879 -1.47308e-19 3.05799)
(11.2438 -6.48673e-21 2.89545)
(11.4568 -1.48509e-19 3.21821)
(11.404 -2.80477e-19 3.05039)
(11.6372 -1.44306e-19 3.36948)
(11.5753 -1.43263e-19 3.19789)
(11.8275 -1.34492e-19 3.5093)
(11.7563 1.4011e-19 3.33551)
(12.026 -1.23293e-19 3.63565)
(11.9452 -1.339e-19 3.46115)
(12.2304 1.41183e-19 3.74683)
(12.1405 1.39013e-19 3.57332)
(12.4381 1.2959e-19 3.84134)
(12.3388 3.2184e-19 3.67067)
(12.5581 -3.24312e-19 3.75318)
(12.6457 -5.64647e-19 3.9107)
(11.2102 1.48803e-19 2.74014)
(11.1691 6.95362e-20 2.59113)
(11.3627 -1.43004e-19 2.8886)
(11.3144 1.46548e-19 2.73431)
(11.5256 -2.74901e-19 3.03064)
(11.4696 -3.5583e-19 2.87204)
(11.6978 1.48853e-19 3.1642)
(11.6338 1.38824e-19 3.00257)
(11.8778 1.39536e-19 3.28729)
(11.8057 6.86121e-21 3.12402)
(12.0639 1.36259e-19 3.39832)
(11.9837 0 3.2347)
(12.2542 3.25038e-19 3.49616)
(12.1664 1.35596e-19 3.33348)
(12.4467 -1.4101e-19 3.57986)
(12.351 3.19795e-19 3.41953)
(12.5542 -2.69156e-19 3.49313)
(12.6387 -2.17463e-19 3.6419)
(11.2757 6.72455e-20 2.58587)
(11.2306 3.99758e-21 2.44365)
(11.424 -7.19217e-20 2.7182)
(11.3723 1.99332e-19 2.5716)
(11.5807 6.92252e-20 2.84423)
(11.5222 -7.1128e-20 2.69411)
(11.7449 -6.97533e-21 2.96234)
(11.6794 1.36991e-19 2.80976)
(11.9151 -1.36075e-19 3.07103)
(11.8426 1.17546e-19 2.9171)
(12.09 0 3.16905)
(12.0106 -9.33525e-21 3.0149)
(12.2678 1.31184e-19 3.25562)
(12.182 -5.09854e-19 3.10229)
(12.447 1.91186e-19 3.3301)
(12.3545 5.69884e-19 3.17872)
(12.5437 -1.89051e-19 3.24463)
(12.6253 -5.19381e-19 3.38579)
(11.3295 1.39578e-19 2.42973)
(11.281 -6.87548e-20 2.29399)
(11.4731 1.99969e-19 2.54767)
(11.4188 3.35534e-19 2.40823)
(11.6237 -1.09038e-21 2.65958)
(11.5633 -1.32904e-19 2.5172)
(11.7801 2.644e-19 2.76418)
(11.7136 0 2.61973)
(11.9413 2.46829e-19 2.86032)
(11.8687 2.63662e-19 2.71474)
(12.1059 -5.33455e-19 2.94712)
(12.0275 -2.58183e-19 2.80133)
(12.2726 -5.54511e-20 3.024)
(12.1887 -8.45366e-20 2.87886)
(12.44 1.81468e-19 3.09054)
(12.3504 3.78994e-19 2.94697)
(12.5272 -5.08432e-19 3.00618)
(12.6064 -2.05081e-19 3.1407)
(11.24 0 2.16276)
(11.1936 0 2.03669)
(11.3725 1.32491e-19 2.27259)
(11.3213 -1.26783e-19 2.14289)
(11.5114 -6.4018e-21 2.37767)
(11.4549 2.58747e-19 2.24484)
(11.6559 -1.31509e-19 2.47703)
(11.5941 -1.36279e-19 2.34169)
(11.805 0 2.56972)
(11.7379 -3.74911e-19 2.43259)
(11.9578 -2.55436e-19 2.65488)
(11.8855 2.53065e-19 2.51674)
(12.1131 2.0195e-19 2.73187)
(12.0358 -2.54661e-19 2.59349)
(12.2699 3.62629e-19 2.80031)
(12.1878 2.07316e-19 2.6624)
(12.4268 -3.21156e-19 2.8599)
(12.3399 4.72874e-19 2.72321)
(12.5058 -2.94611e-19 2.77648)
(12.5826 -1.67025e-19 2.90516)
(11.2768 -1.30127e-19 2.01682)
(11.2278 0 1.89594)
(11.4058 3.09423e-21 2.11497)
(11.3524 -5.88248e-21 1.99087)
(11.54 1.24957e-19 2.20853)
(11.482 1.2852e-19 2.08172)
(11.6786 -3.86241e-19 2.29671)
(11.616 1.22124e-19 2.16774)
(11.8209 -1.13986e-19 2.37884)
(11.7537 -3.84256e-19 2.2483)
(11.966 2.5234e-19 2.45431)
(11.8942 2.59322e-19 2.32284)
(12.113 -2.47353e-19 2.52268)
(12.0368 2.38017e-19 2.39089)
(12.2607 3.20917e-19 2.58367)
(12.1805 -4.30073e-19 2.45216)
(12.4084 5.07049e-19 2.63708)
(12.324 3.24666e-19 2.50648)
(12.4801 2.72584e-20 2.55442)
(12.5548 -5.17283e-19 2.67794)
(11.3053 1.2757e-19 1.86981)
(11.2544 0 1.75391)
(11.4306 1.22912e-19 1.95726)
(11.3756 2.46001e-19 1.83843)
(11.5601 1.25595e-19 2.0404)
(11.5011 -6.45824e-20 1.91914)
(11.6933 1.23202e-19 2.1186)
(11.6301 6.51743e-20 1.99541)
(11.8292 0 2.19135)
(11.7621 0 2.06674)
(11.9673 2.44534e-19 2.25822)
(11.8962 5.91693e-20 2.13271)
(12.1066 4.87477e-20 2.31892)
(12.0317 2.43935e-19 2.19302)
(12.2463 -4.23384e-19 2.37327)
(12.1679 -1.88006e-19 2.24746)
(12.3857 -1.68199e-19 2.42113)
(12.3036 -2.39799e-19 2.29595)
(12.4511 4.03275e-20 2.33903)
(12.5237 5.45912e-19 2.45798)
(11.3266 1.21708e-19 1.72216)
(11.2742 -3.48218e-19 1.61092)
(11.4481 5.32077e-20 1.79979)
(11.3922 1.8122e-19 1.68589)
(11.5732 -1.2644e-19 1.87345)
(11.5135 -2.95526e-19 1.75732)
(11.701 -6.12847e-20 1.94264)
(11.6378 5.59466e-20 1.82473)
(11.8311 6.07845e-20 2.00698)
(11.7644 1.71237e-19 1.88773)
(11.9627 5.90309e-20 2.06617)
(11.8925 -2.31566e-19 1.94601)
(12.0951 0 2.12)
(12.0216 2.27395e-19 1.99936)
(12.2275 0 2.16837)
(12.151 -2.03958e-19 2.04766)
(12.3595 -2.98546e-20 2.21118)
(12.2798 0 2.09084)
(12.4196 -2.97295e-20 2.12946)
(12.49 -1.94403e-20 2.24435)
(11.3416 -2.86682e-19 1.5741)
(11.2882 -3.58017e-19 1.46722)
(11.4594 -1.77173e-19 1.64272)
(11.4028 2.29611e-19 1.53339)
(11.5801 -1.07995e-19 1.70773)
(11.5203 -3.51068e-19 1.59632)
(11.7031 2.94589e-19 1.76876)
(11.6401 -4.48387e-20 1.65566)
(11.8277 -1.29386e-19 1.8255)
(11.7616 5.17115e-19 1.71109)
(11.9533 -5.80023e-20 1.87775)
(11.8842 -2.43465e-19 1.7624)
(12.0794 1.72514e-20 1.92537)
(12.0075 4.83377e-19 1.80944)
(12.2054 -2.0347e-19 1.9683)
(12.1307 -4.92425e-19 1.85213)
(12.3306 0 2.00647)
(12.2533 0 1.89046)
(12.3861 0 1.92493)
(12.4545 5.39297e-19 2.03621)
(11.3511 1.72475e-19 1.42579)
(11.2971 -5.97304e-22 1.32301)
(11.4654 5.04868e-20 1.48612)
(11.4085 1.7291e-19 1.38103)
(11.582 -2.85822e-19 1.54321)
(11.5222 4.46189e-20 1.43615)
(11.7003 1.84394e-19 1.59678)
(11.6377 -3.93406e-19 1.48807)
(11.8199 3.98742e-19 1.6466)
(11.7545 2.95282e-19 1.53658)
(11.9401 3.13241e-19 1.69253)
(11.8722 2.67776e-21 1.58152)
(12.0605 -4.14562e-20 1.73447)
(11.9901 1.23619e-20 1.62277)
(12.1806 -2.8269e-19 1.7724)
(12.1079 -2.57727e-19 1.66031)
(12.2998 0 1.80627)
(12.2248 4.37052e-19 1.69414)
(12.3514 -2.07505e-19 1.72472)
(12.4177 5.13918e-19 1.8328)
(11.356 0 1.27738)
(11.3015 1.05189e-19 1.17841)
(11.4669 1.6671e-19 1.33004)
(11.4098 -1.07565e-19 1.22886)
(11.5795 -6.63773e-20 1.37984)
(11.52 3.77898e-19 1.27673)
(11.6936 -2.78647e-19 1.42654)
(11.6315 -4.44323e-19 1.3218)
(11.8085 -1.11639e-19 1.47)
(11.7441 -5.65851e-20 1.36392)
(11.9238 -3.06044e-19 1.51011)
(11.8571 1.55174e-19 1.40297)
(12.039 -2.10071e-19 1.54681)
(11.9702 -2.55713e-19 1.43887)
(12.1538 4.82116e-19 1.5801)
(12.083 -3.93953e-19 1.47162)
(12.2677 2.26019e-19 1.60995)
(12.195 4.53734e-19 1.50122)
(12.316 -2.35151e-20 1.52812)
(12.3802 -1.38528e-19 1.63344)
(11.3568 -5.43177e-21 1.12884)
(11.3023 2.12078e-19 1.03345)
(11.4645 1.09726e-19 1.17436)
(11.4076 -5.88436e-20 1.0768)
(11.5735 -1.10326e-20 1.21736)
(11.5144 2.17026e-19 1.1179)
(11.6836 -2.15902e-19 1.2577)
(11.6224 -2.21952e-19 1.15659)
(11.7942 2.17577e-19 1.29526)
(11.731 2.60034e-20 1.19275)
(11.9051 2.06261e-19 1.32995)
(11.8399 2.17363e-19 1.22629)
(12.0157 -4.44625e-19 1.36176)
(11.9487 -3.11776e-20 1.25719)
(12.1258 -4.21645e-19 1.39069)
(12.0571 -2.58971e-19 1.28543)
(12.2349 1.96596e-19 1.41673)
(12.1646 -4.11667e-19 1.31103)
(12.2807 4.05642e-19 1.3344)
(12.3427 1.26441e-19 1.4373)
(11.3545 1.57035e-19 0.980251)
(11.3001 -4.40731e-20 0.888054)
(11.459 5.15801e-20 1.01905)
(11.4027 -1.96477e-19 0.924693)
(11.5648 0 1.05569)
(11.5065 2.28848e-19 0.959409)
(11.6712 2.67304e-20 1.09007)
(11.6111 0 0.992085)
(11.7781 2.59785e-20 1.12209)
(11.7162 -1.9928e-19 1.02264)
(11.8849 -2.6787e-20 1.1517)
(11.8214 2.05194e-19 1.051)
(11.9914 1.59187e-19 1.1789)
(11.9264 -2.02373e-19 1.07716)
(12.0973 -2.48835e-19 1.2037)
(12.0309 4.16166e-19 1.10112)
(12.2022 -2.02303e-19 1.22608)
(12.1344 -2.27288e-19 1.1229)
(12.2462 2.36452e-20 1.14286)
(12.3058 1.40837e-19 1.24385)
(11.3497 -4.07417e-19 0.831103)
(11.2958 -1.06468e-19 0.742077)
(11.4515 -1.40839e-20 0.863532)
(11.3958 -2.80833e-19 0.772313)
(11.5542 2.28711e-19 0.894153)
(11.4969 1.86208e-19 0.800952)
(11.6574 -2.32369e-19 0.922878)
(11.5985 0 0.827908)
(11.7609 -1.48401e-20 0.949651)
(11.7005 -2.32295e-19 0.853119)
(11.8642 2.44834e-20 0.97444)
(11.8024 4.06442e-19 0.876547)
(11.9671 6.21672e-20 0.997239)
(11.904 -1.84698e-19 0.898179)
(12.0692 4.37726e-19 1.01807)
(12.005 2.3326e-19 0.91802)
(12.1704 5.09327e-21 1.03692)
(12.1051 -6.10777e-21 0.936093)
(12.2131 -1.98658e-19 0.952707)
(12.2703 3.45183e-19 1.05193)
(11.3433 2.36467e-20 0.6819)
(11.2901 1.2176e-19 0.59528)
(11.4426 -7.47809e-20 0.708223)
(11.3879 -1.18959e-19 0.619351)
(11.5425 -4.90073e-20 0.733076)
(11.4864 9.33223e-20 0.642147)
(11.6429 0 0.756398)
(11.5855 -9.46217e-20 0.663604)
(11.7433 2.01102e-19 0.778149)
(11.6847 9.67755e-20 0.68368)
(11.8435 1.91131e-19 0.79831)
(11.7837 2.01114e-19 0.702351)
(11.9432 -8.61247e-21 0.816881)
(11.8824 1.74178e-19 0.719609)
(12.0421 -2.23255e-19 0.83388)
(11.9804 -3.7798e-19 0.735465)
(12.14 -2.12637e-19 0.849308)
(12.0775 -2.38259e-20 0.74994)
(12.1822 -6.04457e-21 0.763296)
(12.2367 4.63232e-19 0.861636)
(11.336 -2.49334e-20 0.530912)
(11.2838 1.8911e-19 0.447364)
(11.4331 5.39709e-20 0.551334)
(11.3795 1.76741e-20 0.465431)
(11.5307 4.63932e-20 0.570612)
(11.4759 1.99125e-20 0.482541)
(11.6285 4.94549e-21 0.588703)
(11.5726 -5.45943e-21 0.498647)
(11.7263 9.67815e-20 0.60558)
(11.6694 9.77974e-20 0.513723)
(11.8238 1.83649e-19 0.62123)
(11.766 -9.4281e-20 0.527751)
(11.9207 -2.05905e-19 0.635658)
(11.8621 1.95438e-19 0.540727)
(12.0169 -1.72814e-19 0.648876)
(11.9575 -4.02182e-19 0.552659)
(12.1121 1.88816e-19 0.660885)
(12.052 2.12617e-19 0.56356)
(12.154 8.66307e-20 0.573624)
(12.206 4.47913e-19 0.6705)
(11.3286 2.33073e-19 0.380341)
(11.2774 1.18819e-19 0.297973)
(11.4236 -1.74007e-20 0.394991)
(11.3713 7.34202e-20 0.310134)
(11.5191 -3.34779e-20 0.408829)
(11.4658 -2.52457e-20 0.321651)
(11.6147 9.00951e-20 0.421827)
(11.5605 5.48533e-20 0.332495)
(11.7103 -9.88646e-20 0.433967)
(11.6553 8.76312e-20 0.34265)
(11.8054 -8.22877e-20 0.445242)
(11.7498 -1.88655e-19 0.352105)
(11.9 -6.38698e-21 0.455655)
(11.8438 6.38161e-21 0.360863)
(11.9937 -5.50817e-21 0.465217)
(11.937 -9.57041e-21 0.36893)
(12.0865 1.07389e-19 0.473929)
(12.0294 1.20975e-20 0.376323)
(12.129 1.01451e-19 0.383182)
(12.178 -1.61468e-19 0.48092)
(11.3213 -4.55976e-20 0.225317)
(11.1757 0 0.147081)
(11.4147 6.54147e-20 0.234195)
(11.2665 -4.56004e-20 0.153339)
(11.5085 6.56755e-20 0.242567)
(11.3579 1.25994e-19 0.159261)
(11.6023 5.2281e-20 0.250421)
(11.4496 -6.86901e-20 0.164833)
(11.6959 -4.64908e-21 0.257748)
(11.5414 7.03427e-20 0.170047)
(11.7892 -9.74604e-20 0.264548)
(11.633 -9.38358e-20 0.1749)
(11.8819 3.1061e-21 0.270826)
(11.7241 2.20639e-20 0.179393)
(11.9737 8.54559e-21 0.276592)
(11.8147 6.02741e-21 0.183529)
(12.0646 5.88366e-21 0.281855)
(11.9044 0 0.187317)
(12.0011 -1.61445e-20 0.190837)
(12.1543 2.17905e-19 0.286058)
(11.1192 0 0.0738171)
(11.208 1.66864e-20 0.0770769)
(11.2973 -1.22556e-20 0.0801555)
(11.387 -5.01581e-20 0.0830458)
(11.4766 -2.14002e-20 0.0857437)
(11.566 2.91774e-20 0.0882477)
(11.655 2.50865e-20 0.0905584)
(11.7432 -2.7784e-21 0.0926773)
(11.8307 -2.26809e-20 0.0946077)
(11.9171 3.84295e-20 0.0961187)
(12.6752 -1.29065e-18 4.6736)
(12.7609 -3.79029e-19 4.53038)
(12.6856 -2.43363e-20 4.36119)
(12.8839 -2.51071e-20 4.56485)
(12.8207 -4.22804e-19 4.39808)
(12.9348 -8.99776e-22 4.42888)
(13.0085 -1.74104e-19 4.59464)
(12.7594 -7.48108e-20 4.2264)
(12.6868 -4.55455e-20 4.06758)
(12.8719 -4.03348e-19 4.25789)
(12.8106 -3.55102e-20 4.10107)
(12.9152 5.02224e-20 4.12949)
(12.9857 2.14371e-19 4.28624)
(12.7505 -6.83962e-21 3.93986)
(12.6802 -4.27102e-19 3.78998)
(12.8539 4.27482e-19 3.96879)
(12.7942 4.31806e-19 3.82052)
(12.8907 -3.95066e-19 3.8468)
(12.9585 -2.9067e-21 3.9956)
(12.7354 2.62692e-20 3.66832)
(12.6672 -4.14963e-19 3.52624)
(12.8309 -3.99006e-19 3.69492)
(12.7727 4.71517e-19 3.55414)
(12.862 -4.30594e-19 3.57843)
(12.9275 -5.45407e-19 3.72016)
(12.7149 4.25884e-20 3.40979)
(12.6485 -4.50738e-19 3.27452)
(12.8036 4.51087e-19 3.43424)
(12.7466 4.43046e-19 3.30002)
(12.8297 -2.50445e-20 3.32244)
(12.8932 -3.7581e-20 3.45789)
(12.6898 -3.91416e-20 3.16252)
(12.625 -2.69351e-20 3.0332)
(12.7724 -3.8087e-20 3.18498)
(12.7165 -2.5559e-20 3.05653)
(12.7941 1.13989e-20 3.07718)
(12.8558 -1.81177e-19 3.20706)
(12.6606 -1.30325e-20 2.92501)
(12.5973 -3.61349e-19 2.80093)
(12.7379 2.46048e-20 2.94564)
(12.6831 -3.57283e-22 2.82225)
(12.7558 3.79934e-20 2.84125)
(12.8159 6.84865e-20 2.96616)
(12.628 -3.50345e-19 2.69599)
(12.5661 -1.58662e-21 2.57654)
(12.7005 1.28505e-20 2.71489)
(12.6468 5.45033e-22 2.59599)
(12.7151 -2.4109e-20 2.61342)
(12.7738 1.38108e-22 2.73391)
(12.5925 3.58051e-19 2.47437)
(12.5322 3.77275e-19 2.35901)
(12.6609 -3.69774e-20 2.49164)
(12.6083 -4.26839e-22 2.3767)
(12.6728 -1.28847e-20 2.39264)
(12.7299 -4.18923e-20 2.50919)
(12.5551 1.23906e-20 2.25918)
(12.4963 3.97401e-19 2.14744)
(12.6197 2.44228e-20 2.27491)
(12.5683 -3.74718e-19 2.16348)
(12.6294 2.40009e-20 2.17798)
(12.6849 1.66949e-19 2.29101)
(12.5161 3.9147e-21 2.04958)
(12.4589 7.85977e-19 1.94104)
(12.5774 -3.80383e-19 2.06382)
(12.5273 -7.89088e-19 1.9555)
(12.5853 -3.79278e-19 1.96861)
(12.6392 1.59763e-20 2.07851)
(12.4763 -1.94185e-20 1.84478)
(12.4206 3.88221e-19 1.73907)
(12.5346 -7.93367e-19 1.8576)
(12.4858 -7.69305e-19 1.752)
(12.541 -2.34245e-20 1.76377)
(12.5933 -2.62836e-19 1.8709)
(12.436 -3.73377e-19 1.64408)
(12.3822 0 1.54077)
(12.4917 1.08743e-20 1.65552)
(12.4444 -3.76821e-19 1.55223)
(12.4972 3.2742e-20 1.56268)
(12.5477 5.29638e-19 1.66744)
(12.3961 0 1.44665)
(12.3441 0 1.34543)
(12.4494 -3.59814e-19 1.45673)
(12.4037 0 1.35545)
(12.4544 -1.65448e-20 1.3646)
(12.503 -2.23934e-19 1.46729)
(12.357 0 1.25194)
(12.3071 3.48471e-19 1.15227)
(12.4083 3.52785e-19 1.26069)
(12.3645 -3.4934e-19 1.16087)
(12.4133 3.57444e-19 1.16874)
(12.4598 4.71578e-19 1.26988)
(12.3197 -4.6981e-21 1.05878)
(12.2719 6.98469e-19 0.960611)
(12.3691 -3.53977e-19 1.0662)
(12.3274 -7.00144e-19 0.967806)
(12.3744 0 0.974397)
(12.4187 4.01891e-21 1.07401)
(12.2845 -4.20087e-21 0.867272)
(12.2392 6.81855e-19 0.769569)
(12.3323 -3.45613e-19 0.873384)
(12.2929 -3.5507e-19 0.775352)
(12.3386 -3.54648e-21 0.780641)
(12.3803 -3.91717e-21 0.879831)
(12.2524 3.29946e-19 0.674889)
(12.2093 1.77949e-19 0.578518)
(12.2988 -7.90785e-21 0.679651)
(12.2616 -4.35545e-21 0.582896)
(12.3061 -1.16792e-21 0.586915)
(12.3454 -1.26787e-19 0.684685)
(12.2232 -1.65805e-19 0.484111)
(12.183 -1.17374e-20 0.386257)
(12.2686 2.52367e-21 0.487567)
(12.2341 -1.58398e-19 0.389181)
(12.2775 -1.54767e-19 0.391826)
(12.3141 3.38058e-21 0.491222)
(12.1984 -2.80596e-21 0.287923)
(12.0536 2.00692e-19 0.192672)
(12.2427 -3.20683e-19 0.289912)
(12.1032 -1.62065e-19 0.194065)
(12.1454 -1.98603e-19 0.19537)
(12.2872 -1.00027e-19 0.292023)
(11.9597 4.064e-20 0.0967571)
(12.0025 -3.58284e-20 0.0974279)
(12.0454 -3.46287e-20 0.0981655)
(13.1373 5.57157e-20 4.47178)
(13.2131 7.11408e-20 4.32779)
(13.101 2.1947e-19 4.17125)
(13.4426 -3.34246e-20 4.3482)
(13.2989 -1.444e-20 4.20028)
(13.6688 1.62341e-19 4.34895)
(13.5185 -3.94616e-20 4.2137)
(13.7401 -1.55018e-20 4.20962)
(13.1682 1.44966e-19 4.03721)
(13.0622 -1.70306e-20 3.88695)
(13.3814 -2.3824e-20 4.06135)
(13.2455 4.18405e-19 3.91715)
(13.5942 -2.25573e-19 4.06986)
(13.4502 -2.03133e-19 3.93512)
(13.8041 4.99445e-21 4.06292)
(13.6595 1.72849e-19 3.93895)
(14.0085 5.05261e-21 4.04159)
(13.8638 -9.54246e-21 3.92876)
(14.0616 -1.56868e-19 3.90561)
(13.1218 2.47112e-19 3.76093)
(13.0211 -1.60661e-20 3.6167)
(13.32 2.41715e-19 3.78686)
(13.1914 2.19048e-19 3.64701)
(13.5194 1.98178e-19 3.80001)
(13.3824 1.89991e-19 3.66749)
(13.7181 1.60844e-19 3.80033)
(13.5791 -1.87378e-19 3.67631)
(13.9141 -1.72597e-19 3.78847)
(13.7731 1.64682e-19 3.67332)
(14.1061 -3.02179e-19 3.76525)
(13.9631 -1.60863e-19 3.65921)
(14.2926 1.08996e-19 3.73148)
(14.1491 -1.36305e-19 3.63477)
(14.3304 2.57964e-19 3.60075)
(13.0738 -5.68602e-20 3.49727)
(12.9778 -2.75712e-19 3.35867)
(13.2587 1.66536e-19 3.52388)
(13.1365 2.14401e-19 3.38845)
(13.4455 -2.00393e-19 3.53989)
(13.3151 1.98164e-21 3.41024)
(13.6328 -1.90171e-19 3.54509)
(13.5 -1.95693e-19 3.42231)
(13.8193 1.83092e-19 3.53989)
(13.6835 1.78885e-19 3.42434)
(14.0035 8.74276e-21 3.52481)
(13.8645 -1.54257e-19 3.41676)
(14.1845 8.85839e-21 3.50043)
(14.0434 1.61248e-19 3.40014)
(14.3613 1.00562e-19 3.46737)
(14.2193 0 3.375)
(14.3913 1.31103e-20 3.34199)
(13.0245 -1.43986e-20 3.24472)
(12.9326 -1.96498e-19 3.11128)
(13.1974 4.99004e-20 3.2713)
(13.0811 2.45997e-19 3.14014)
(13.3727 1.00777e-20 3.28902)
(13.2485 -3.77094e-19 3.16246)
(13.5493 1.75936e-19 3.2976)
(13.4224 5.64136e-19 3.17663)
(13.726 -1.6051e-19 3.29724)
(13.5959 -1.83334e-19 3.18225)
(13.9019 -4.03859e-21 3.28829)
(13.768 -1.15218e-21 3.17957)
(14.0758 1.55335e-19 3.27114)
(13.939 -8.30291e-21 3.16897)
(14.2469 -9.0047e-20 3.24627)
(14.1083 0 3.15087)
(14.275 1.73063e-20 3.12574)
(12.9739 5.45241e-20 3.00189)
(12.8857 2.81327e-20 2.87318)
(13.1361 -1.79327e-19 3.02797)
(13.0251 1.12182e-21 2.90083)
(13.3011 1.76642e-19 3.04663)
(13.1825 -5.36549e-21 2.92313)
(13.4677 2.10119e-19 3.05753)
(13.3465 2.13222e-19 2.9386)
(13.6353 -2.3571e-20 3.06078)
(13.5107 -3.52147e-19 2.94679)
(13.8027 -5.35046e-21 3.05658)
(13.6743 3.28374e-19 2.94784)
(13.9692 -1.6781e-19 3.04519)
(13.8375 -1.59371e-19 2.94201)
(14.134 1.09851e-19 3.02698)
(13.9999 0 2.92958)
(14.1607 9.5207e-20 2.91095)
(12.9223 -2.59519e-20 2.76758)
(12.8375 -1.3617e-20 2.64316)
(13.075 1.79455e-19 2.79282)
(12.9688 -2.65176e-20 2.66942)
(13.2305 2.80848e-20 2.81184)
(13.1172 2.10008e-19 2.6913)
(13.3882 -3.52325e-19 2.8243)
(13.2723 -1.31873e-20 2.70747)
(13.5471 -4.99867e-21 2.83022)
(13.4279 -5.22461e-19 2.71745)
(13.7066 1.80144e-19 2.82972)
(13.5835 4.99203e-19 2.72132)
(13.8659 9.54556e-21 2.82297)
(13.7394 -1.38266e-19 2.71925)
(14.0243 -1.69344e-20 2.81024)
(13.8951 -9.11674e-21 2.71144)
(14.05 1.62732e-20 2.69819)
(12.87 -1.39164e-20 2.54069)
(12.7884 2.10762e-19 2.42019)
(13.0142 0 2.56485)
(12.9125 -2.07514e-19 2.44491)
(13.1613 1.70244e-19 2.58379)
(13.0529 1.90653e-19 2.46606)
(13.3107 -1.77549e-19 2.5972)
(13.1998 -1.39665e-20 2.48245)
(13.4618 -2.64363e-20 2.60506)
(13.3477 -3.57286e-19 2.4936)
(13.6139 1.856e-19 2.60741)
(13.4959 3.35932e-19 2.49955)
(13.7664 -1.60032e-19 2.60437)
(13.6449 -1.5633e-19 2.5004)
(13.9186 2.43907e-20 2.59612)
(13.7943 -9.57617e-21 2.4963)
(13.9435 1.7677e-20 2.48746)
(12.8175 2.61498e-20 2.32029)
(12.7389 2.3038e-19 2.20334)
(12.954 -2.03939e-20 2.34316)
(12.8565 -2.12749e-19 2.22641)
(13.0935 4.45059e-21 2.36168)
(12.9896 1.9548e-19 2.2466)
(13.2354 -1.91585e-19 2.37555)
(13.1292 -1.92474e-19 2.26281)
(13.3793 0 2.38473)
(13.2701 0 2.27463)
(13.5246 -4.66471e-21 2.38921)
(13.4116 0 2.28203)
(13.6707 -4.98114e-21 2.38908)
(13.5542 -9.52923e-21 2.2851)
(13.8172 -1.70015e-20 2.38445)
(13.6978 8.71509e-21 2.28392)
(13.8417 1.15661e-19 2.27866)
(12.7651 0 2.10553)
(12.6894 4.0276e-19 1.99178)
(12.8947 0 2.12696)
(12.8012 -5.49707e-21 2.01312)
(13.0273 0 2.14477)
(12.9278 -1.92879e-19 2.03214)
(13.1625 0 2.15869)
(13.0608 -1.82821e-19 2.04786)
(13.2999 0 2.16866)
(13.1953 3.42282e-19 2.0599)
(13.4389 -4.78315e-21 2.17468)
(13.3307 -1.65334e-19 2.06823)
(13.5792 4.13554e-21 2.17676)
(13.4676 -4.88349e-21 2.07289)
(13.7202 1.42609e-19 2.175)
(13.6057 9.18201e-21 2.07396)
(13.7446 1.36258e-19 2.07155)
(12.7132 4.10342e-19 1.8956)
(12.6403 4.38742e-19 1.78475)
(12.8366 -2.00859e-19 1.91546)
(12.7469 1.87441e-19 1.80427)
(12.9631 -3.8064e-19 1.93232)
(12.8677 -3.8777e-19 1.82193)
(13.0922 1.57362e-19 1.94594)
(12.9948 -9.82341e-21 1.83689)
(13.2237 1.83582e-19 1.95626)
(13.1236 1.78998e-19 1.84877)
(13.3571 -1.68841e-19 1.96326)
(13.2535 -3.24682e-19 1.85755)
(13.492 0 1.96694)
(13.385 3.04223e-19 1.86327)
(13.628 0 1.96738)
(13.5182 -1.37821e-19 1.86595)
(13.6526 0 1.86569)
(12.6622 2.19813e-19 1.68978)
(12.5922 4.14433e-19 1.58145)
(12.7802 5.21302e-21 1.70794)
(12.6942 -1.92213e-19 1.59908)
(12.9012 -1.5505e-20 1.72365)
(12.8098 -1.8945e-19 1.61524)
(13.0248 8.36258e-21 1.73666)
(12.9316 3.63385e-19 1.62918)
(13.151 -3.31702e-19 1.74693)
(13.0552 -1.76804e-19 1.64059)
(13.2792 1.47323e-19 1.75444)
(13.1802 -3.17363e-19 1.64942)
(13.4093 1.72167e-19 1.75918)
(13.307 4.65716e-19 1.65569)
(13.5408 -1.40764e-19 1.76119)
(13.4356 -1.50366e-19 1.65944)
(13.5659 0 1.66072)
(12.6127 8.95664e-21 1.48721)
(12.5456 3.94455e-19 1.38114)
(12.7258 -3.92307e-19 1.50357)
(12.6435 -3.99479e-19 1.39681)
(12.8419 1.88513e-19 1.51792)
(12.7545 -1.775e-19 1.41132)
(12.9607 1.84925e-19 1.53007)
(12.8717 3.55478e-19 1.42404)
(13.0821 -1.58983e-19 1.53995)
(12.9906 -3.28494e-19 1.43469)
(13.2057 -7.61151e-21 1.54756)
(13.1112 -1.57133e-19 1.44321)
(13.3314 1.47825e-19 1.55287)
(13.2337 1.62939e-19 1.44965)
(13.4588 -9.03431e-21 1.55591)
(13.3583 2.72703e-19 1.454)
(13.4847 -1.36121e-19 1.45631)
(12.5653 3.34316e-22 1.28734)
(12.5011 1.65456e-21 1.18305)
(12.6741 -1.83728e-19 1.30181)
(12.5954 1.41517e-21 1.19668)
(12.7858 -1.67796e-20 1.31465)
(12.7024 -1.85341e-19 1.20943)
(12.9004 -1.56755e-19 1.3257)
(12.8154 1.74347e-19 1.22075)
(13.0175 -3.30562e-19 1.33491)
(12.9303 -3.37851e-19 1.23039)
(13.137 1.08736e-20 1.34227)
(13.0469 3.11315e-21 1.23832)
(13.2587 2.88823e-19 1.34776)
(13.1656 5.55776e-21 1.24456)
(13.3824 1.51079e-19 1.35139)
(13.2866 4.25839e-19 1.2491)
(13.4096 -2.7411e-19 1.252)
(12.5206 6.14796e-21 1.08895)
(12.4594 3.21362e-22 0.986402)
(12.6256 2.78356e-21 1.10142)
(12.5506 -1.72774e-19 0.997938)
(12.7335 2.83479e-21 1.11261)
(12.654 1.75528e-19 1.00881)
(12.8442 -3.17435e-22 1.12236)
(12.7633 0 1.01857)
(12.9576 -2.7443e-21 1.13064)
(12.8747 -3.26338e-22 1.027)
(13.0735 -2.46366e-21 1.13744)
(12.9878 -1.29417e-22 1.03407)
(13.1917 1.36992e-19 1.14274)
(13.1031 0 1.03981)
(13.312 4.30133e-21 1.14655)
(13.2209 1.40109e-19 1.0442)
(13.3408 -1.29887e-19 1.04728)
(12.479 -1.79543e-19 0.89221)
(12.421 -1.90816e-19 0.790397)
(12.5807 -2.24988e-21 0.902627)
(12.5094 -3.57445e-19 0.799771)
(12.6853 1.76738e-19 0.912042)
(12.6098 3.46213e-19 0.80868)
(12.7927 -1.53576e-24 0.920344)
(12.716 0 0.816734)
(12.9028 2.35846e-21 0.927504)
(12.8243 6.025e-22 0.823769)
(13.0155 2.40186e-21 0.933506)
(12.9343 2.4156e-21 0.829765)
(13.1306 0 0.938338)
(13.0467 -1.33835e-19 0.834729)
(13.2479 8.17204e-21 0.942006)
(13.1616 1.36092e-19 0.838665)
(13.2788 1.25077e-19 0.841591)
(12.4414 -3.69862e-19 0.69441)
(12.3864 -1.90307e-19 0.594202)
(12.5402 -1.35648e-20 0.70265)
(12.4725 -1.85036e-19 0.601363)
(12.6419 1.72592e-19 0.710141)
(12.5703 1.76144e-19 0.608198)
(12.7465 6.06915e-22 0.716797)
(12.6737 0 0.614422)
(12.8537 6.17947e-22 0.722597)
(12.7793 1.4894e-19 0.619904)
(12.9636 -1.34608e-19 0.727529)
(12.8868 -5.52559e-21 0.624628)
(13.076 -5.7759e-23 0.731581)
(12.9966 -2.83789e-19 0.628601)
(13.1908 2.56706e-19 0.734757)
(13.109 1.16788e-20 0.631825)
(13.2239 2.46739e-19 0.634313)
(12.4077 0 0.498318)
(12.356 1.71815e-19 0.396892)
(12.5042 2.5868e-21 0.504385)
(12.4402 -8.4257e-20 0.40175)
(12.6035 2.63552e-21 0.509936)
(12.5357 2.65197e-21 0.406461)
(12.7056 1.49199e-19 0.514902)
(12.6369 -2.99893e-22 0.410755)
(12.8104 1.46467e-19 0.519271)
(12.7403 1.53062e-19 0.414548)
(12.9179 -1.5247e-19 0.523039)
(12.8455 6.44164e-20 0.417841)
(13.028 -2.78763e-19 0.526197)
(12.9532 -2.82084e-19 0.420641)
(13.1406 -4.16644e-21 0.528745)
(13.0635 -6.76944e-20 0.422948)
(13.1763 1.89879e-19 0.424769)
(12.3789 9.26715e-20 0.296229)
(12.2216 1.9977e-19 0.19757)
(12.4734 -8.63951e-20 0.299918)
(12.3034 -8.68504e-20 0.200213)
(12.5706 -3.01802e-22 0.303292)
(12.3963 0 0.202657)
(12.6707 -1.63094e-22 0.306296)
(12.4948 3.69697e-20 0.204845)
(12.7735 7.07211e-20 0.308934)
(12.5954 -3.63613e-20 0.206781)
(12.879 -6.06201e-20 0.311211)
(12.6979 7.22682e-20 0.208468)
(12.9871 -6.96453e-20 0.313122)
(12.8028 -1.35657e-19 0.209906)
(13.0977 1.26209e-19 0.314669)
(12.9103 6.67441e-20 0.211091)
(13.0205 6.12709e-20 0.212029)
(12.1337 2.32363e-20 0.0997092)
(12.2248 0 0.101107)
(12.3187 3.74863e-20 0.102386)
(12.4153 1.42561e-21 0.103521)
(12.5147 -3.73924e-20 0.10452)
(12.6167 0 0.105387)
(12.7212 0 0.106119)
(12.8283 0 0.106717)
)
;

boundaryField
{
    inlet
    {
        type            calculated;
        value           nonuniform 0();
    }
    outlet
    {
        type            calculated;
        value           nonuniform 0();
    }
    flap
    {
        type            calculated;
        value           nonuniform 0();
    }
    upperWall
    {
        type            calculated;
        value           uniform (0 0 0);
    }
    lowerWall
    {
        type            calculated;
        value           nonuniform 0();
    }
    frontAndBack
    {
        type            empty;
        value           nonuniform 0();
    }
    procBoundary1to0
    {
        type            processor;
        value           nonuniform List<vector> 
18
(
(11.1368 7.32418e-20 2.44877)
(11.1935 -3.42627e-20 2.30698)
(11.1505 3.53959e-20 2.17553)
(11.1142 -3.33984e-20 2.04917)
(11.1535 0 1.91497)
(11.1849 1.23042e-19 1.7788)
(11.2091 4.53218e-22 1.64115)
(11.2271 -5.89455e-19 1.50232)
(11.2396 -1.11914e-19 1.36256)
(11.2474 -1.64277e-19 1.2221)
(11.2511 5.63914e-20 1.08101)
(11.2514 2.08618e-19 0.939449)
(11.2492 -3.54372e-19 0.796981)
(11.2451 5.0104e-20 0.654194)
(11.2399 1.43358e-19 0.509407)
(11.2342 2.09228e-19 0.364922)
(11.2286 2.21686e-20 0.215958)
(11.0314 -2.17675e-20 0.0703862)
)
;
    }
    procBoundary1to2
    {
        type            processor;
        value           nonuniform List<vector> 
17
(
(14.5328 2.71734e-19 3.42638)
(14.4145 -2.09418e-19 3.21429)
(14.2963 2.06416e-19 3.00243)
(14.181 1.17846e-19 2.79189)
(14.0699 1.88133e-20 2.58296)
(13.9633 -1.7003e-20 2.37556)
(13.8614 2.67164e-19 2.16958)
(13.7648 0 1.96471)
(13.6735 -1.62137e-20 1.76057)
(13.5876 1.40738e-19 1.55677)
(13.5077 -1.39104e-19 1.35323)
(13.4342 -1.45079e-19 1.14892)
(13.3674 1.59764e-20 0.944545)
(13.3079 1.16628e-19 0.737083)
(13.2555 1.36912e-19 0.530703)
(13.2108 1.23492e-19 0.315863)
(12.9378 -3.53287e-21 0.107185)
)
;
    }
    procBoundary1to3
    {
        type            processor;
        value           nonuniform List<vector> 9((10.0313 1.27013e-18 3.38601) (10.2111 3.81829e-19 3.33523) (10.3775 -3.81085e-19 3.26592) (10.5292 -1.44377e-18 3.18039) (10.666 3.48755e-19 3.08095) (10.7878 -8.52034e-20 2.96987) (10.8952 1.58246e-19 2.84932) (10.9885 -1.55437e-19 2.72121) (11.0688 1.0841e-19 2.58723));
    }
    procBoundary1to4
    {
        type            processor;
        value           nonuniform List<vector> 
30
(
(9.9758 4.0412e-19 3.56182)
(10.1349 8.18453e-19 3.70929)
(10.2938 7.84315e-19 3.83378)
(10.4512 -3.72157e-19 4.17309)
(10.657 -1.20742e-20 4.28147)
(10.8499 6.86854e-19 4.35835)
(11.0828 -3.15876e-19 4.66853)
(11.3086 -6.29166e-19 4.69841)
(11.5075 -7.53203e-19 4.70162)
(11.7878 5.78639e-19 4.93235)
(11.9945 5.64361e-19 4.87332)
(12.1673 4.05775e-19 4.80605)
(12.4772 -2.81725e-19 4.94769)
(12.6539 -4.82609e-19 5.00868)
(12.7537 -1.31003e-18 4.85536)
(12.8237 -4.28284e-19 4.71467)
(12.949 7.61037e-19 4.7483)