/*--------------------------------*- C++ -*----------------------------------*\
| =========                 |                                                 |
| \\      /  F ield         | OpenFOAM: The Open Source CFD Toolbox           |
|  \\    /   O peration     | Version:  dev                                   |
|   \\  /    A nd           | Web:      www.OpenFOAM.org                      |
|    \\/     M anipulation  |                                                 |
\*---------------------------------------------------------------------------*/
FoamFile
{
    version     2.0;
    format      ascii;
    class       surfaceVectorField;
    location    "1.06";
    object      Uf;
}
// * * * * * * * * * * * * * * * * * * * * * * * * * * * * * * * * * * * * * //

dimensions      [0 1 -1 0 0 0 0];

internalField   nonuniform List<vector> 
882
(
(9.76151 -1.30611e-18 4.35764)
(9.91203 -1.78714e-18 4.53664)
(9.9797 -1.81982e-18 4.32124)
(10.0017 4.43942e-19 4.92294)
(10.065 2.11201e-19 4.68814)
(10.1745 1.48211e-20 5.0657)
(10.1338 2.21727e-19 4.47603)
(10.187 4.26708e-19 4.26186)
(10.2395 -2.29327e-19 4.83518)
(10.2877 -1.93751e-19 4.60446)
(10.3696 -2.1929e-19 5.19952)
(10.4105 -4.41964e-19 4.95314)
(10.5255 9.94445e-20 5.56249)
(10.5569 -6.10332e-19 5.30252)
(10.727 3.0171e-19 5.64611)
(10.3425 1.84408e-21 4.39374)
(10.3824 1.03623e-18 4.18216)
(10.461 -4.10761e-19 4.72659)
(10.4958 3.80619e-19 4.50095)
(10.6011 -8.43407e-19 5.06106)
(10.6289 -3.98529e-19 4.82247)
(10.763 -4.00649e-19 5.39172)
(10.7823 -4.39698e-19 5.14223)
(10.9458 4.05302e-19 5.71261)
(10.9556 1.55718e-20 5.45504)
(11.1473 4.21194e-19 6.01756)
(11.1471 5.93267e-19 5.7557)
(11.3546 4.07364e-19 6.03901)
(10.5377 1.4264e-18 4.29272)
(10.5654 1.00613e-18 4.08454)
(10.6664 3.93002e-19 4.60068)
(10.6891 6.74808e-20 4.38054)
(10.8138 1.55366e-20 4.9079)
(10.8301 -4.10882e-20 4.67695)
(10.9797 -1.18837e-20 5.21002)
(10.9885 4.12343e-19 4.97006)
(11.1628 2.10417e-19 5.50244)
(11.1637 -7.97558e-19 5.25581)
(11.3609 5.78126e-19 5.78077)
(11.3536 8.05849e-19 5.5302)
(11.5707 -2.27847e-19 6.04109)
(11.5562 -2.05478e-19 5.78972)
(11.7878 -6.14269e-19 6.28227)
(11.7651 -4.04184e-19 6.03116)
(12.0044 -9.76857e-19 6.25624)
(12.0122 5.58946e-19 6.47008)
(10.7191 -3.87024e-19 4.17547)
(10.7356 6.45912e-20 3.97113)
(10.8558 -3.76921e-19 4.4602)
(10.8676 -3.93139e-19 4.24561)
(11.0088 3.66597e-19 4.74267)
(11.0148 3.76389e-19 4.51892)
(11.1773 -3.96658e-19 5.0194)
(11.1768 -3.76576e-19 4.78799)
(11.3601 -1.79678e-19 5.28688)
(11.3529 1.79145e-19 5.04971)
(11.5551 -2.75419e-21 5.54197)
(11.5412 -1.73752e-19 5.3011)
(11.7597 -3.88292e-19 5.78205)
(11.7398 3.7813e-19 5.53975)
(11.9703 -7.8051e-19 6.00591)
(11.9437 1.83165e-19 5.76362)
(12.1756 -9.70707e-19 5.97342)
(12.1866 1.46204e-18 6.18149)
(10.8868 5.85094e-20 4.04405)
(10.8931 -2.49017e-19 3.84381)
(11.0298 3.7976e-19 4.30721)
(11.0317 2.96547e-19 4.09804)
(11.1869 -3.86612e-19 4.56716)
(11.1836 -2.97106e-21 4.35007)
(11.3572 2.14812e-19 4.8211)
(11.3483 -3.87859e-19 4.59737)
(11.5394 1.83897e-19 5.06644)
(11.5248 4.01338e-19 4.83755)
(11.7316 2.18889e-19 5.30092)
(11.7115 -1.74925e-20 5.06848)
(11.9318 9.61844e-19 5.5228)
(11.9067 2.13926e-19 5.28846)
(12.1373 -2.18426e-20 5.73108)
(12.1064 5.72037e-19 5.49611)
(12.3324 -3.03437e-19 5.6919)
(12.3475 -2.59022e-19 5.89563)
(11.0409 -4.69201e-21 3.9002)
(11.0381 -8.39067e-20 3.70421)
(11.189 -9.59511e-20 4.14329)
(11.1819 4.3974e-19 3.93936)
(11.3491 -5.32492e-21 4.38261)
(11.3374 1.72418e-19 4.17168)
(11.5205 -1.93958e-19 4.61596)
(11.504 -9.85926e-21 4.39911)
(11.702 1.92907e-19 4.84141)
(11.6805 -7.37019e-19 4.61983)
(11.8919 -2.09217e-20 5.05735)
(11.8657 3.77107e-19 4.83226)
(12.0884 -1.8331e-19 5.26259)
(12.058 -3.8574e-19 5.03522)
(12.2897 2.81374e-19 5.45635)
(12.2541 9.88491e-20 5.22773)
(12.4754 -8.74922e-20 5.41026)
(12.4951 6.2507e-20 5.61038)
(11.182 3.72324e-19 3.74536)
(11.1707 -1.81733e-19 3.55367)
(11.3339 7.14265e-19 3.96967)
(11.3187 2.00391e-19 3.7708)
(11.4963 1.67226e-19 4.18998)
(11.4769 3.54003e-19 3.98477)
(11.6684 -5.68452e-19 4.40454)
(11.6447 -1.8426e-19 4.19392)
(11.849 -5.4393e-19 4.6119)
(11.8211 -5.57897e-19 4.39684)
(12.0368 0 4.8109)
(12.0047 0 4.59234)
(12.2302 -9.44036e-20 5.00069)
(12.1945 7.04316e-19 4.77956)
(12.4278 -2.8008e-19 5.18068)
(12.3875 -1.9775e-19 4.95781)
(12.6047 -9.11444e-19 5.12759)
(12.6292 -1.22415e-19 5.3245)
(11.3105 -3.57355e-19 3.5807)
(11.2915 -1.69311e-19 3.3933)
(11.4652 -1.68364e-19 3.78738)
(11.4426 -1.91344e-20 3.59338)
(11.6293 -7.47083e-21 3.99002)
(11.6028 2.55776e-21 3.79019)
(11.8016 -1.74762e-19 4.18727)
(11.7713 -6.96884e-19 3.98238)
(11.9813 1.22677e-21 4.37798)
(11.9472 -1.67454e-19 4.16883)
(12.1671 7.23797e-19 4.5613)
(12.1294 3.48916e-19 4.34863)
(12.3578 5.94194e-19 4.7366)
(12.3168 8.07764e-19 4.52115)
(12.5522 -8.40287e-19 4.90341)
(12.5071 -1.06243e-19 4.68585)
(12.7205 -6.53539e-19 4.8433)
(12.75 -4.8326e-19 5.03725)
(11.4267 1.77572e-19 3.4072)
(11.4005 -1.73242e-19 3.22404)
(11.5836 1.56082e-19 3.59726)
(11.554 5.11046e-19 3.40799)
(11.7486 -7.05451e-19 3.78341)
(11.7155 -1.63576e-20 3.58866)
(11.9209 -6.87761e-19 3.96453)
(11.8843 -6.97411e-19 3.76498)
(12.0995 1.90334e-19 4.13974)
(12.0595 1.60264e-19 3.93604)
(12.2834 4.36698e-19 4.30838)
(12.2402 -6.70477e-20 4.10114)
(12.4716 8.62921e-20 4.46996)
(12.4254 -8.07775e-20 4.25978)
(12.663 9.02634e-20 4.62412)
(12.6131 0 4.41154)
(12.8231 -5.86483e-19 4.55704)
(12.8575 1.09486e-19 4.74821)
(11.3804 -1.61214e-19 3.04855)
(11.3505 -1.65771e-19 2.87575)
(11.5309 1.69727e-19 3.22568)
(11.4981 -1.58434e-19 3.04668)
(11.6893 3.33354e-19 3.40006)
(11.6533 1.69432e-19 3.21534)
(11.8549 -9.71637e-21 3.57068)
(11.8156 9.30881e-21 3.38079)
(12.0268 1.73639e-19 3.73667)
(11.9843 -3.3029e-19 3.54215)
(12.2042 -1.03894e-19 3.89731)
(12.1586 6.70866e-19 3.69872)
(12.3862 -5.97162e-19 4.05208)
(12.3377 -3.52188e-19 3.84993)
(12.572 -1.68931e-19 4.2006)
(12.5207 5.65028e-19 3.99538)
(12.7605 -6.95929e-19 4.34256)
(12.7058 -9.45605e-20 4.13474)
(12.9125 -2.02794e-18 4.26863)
(12.9519 1.10527e-18 4.45714)
(11.4711 -1.6286e-19 2.87454)
(11.4349 -3.0489e-19 2.70544)
(11.6235 -1.58154e-19 3.03684)
(11.5845 -1.5768e-19 2.86193)
(11.7829 -1.62864e-19 3.19637)
(11.7409 1.5843e-19 3.01606)
(11.9486 -3.19883e-19 3.35232)
(11.9036 -5.70597e-21 3.16707)
(12.1198 1.81673e-19 3.50401)
(12.0718 7.66745e-20 3.31428)
(12.2959 4.13632e-19 3.65086)
(12.245 4.17417e-19 3.45711)
(12.4759 8.4099e-19 3.79244)
(12.4223 8.4527e-20 3.59512)
(12.6592 6.38968e-19 3.92846)
(12.603 7.56704e-19 3.72797)
(12.845 -1.4602e-18 4.05865)
(12.7857 5.46418e-19 3.85541)
(12.989 -2.71258e-18 3.97805)
(13.0333 6.29802e-19 4.16395)
(11.5512 -2.99351e-19 2.69316)
(11.5092 -1.63699e-19 2.5278)
(11.7049 1.67349e-19 2.8413)
(11.6602 1.55829e-19 2.67043)
(11.8647 3.19149e-19 2.98671)
(11.8172 4.66181e-19 2.81069)
(12.0302 4.00847e-19 3.12874)
(11.9798 -6.92785e-20 2.94797)
(12.2005 3.19117e-19 3.26685)
(12.1473 1.66449e-19 3.08172)
(12.375 7.93681e-20 3.40057)
(12.3192 3.58495e-21 3.21147)
(12.553 0 3.52957)
(12.4946 0 3.33688)
(12.7339 6.60796e-19 3.65359)
(12.673 0 3.45767)
(12.9168 -7.34899e-19 3.77241)
(12.853 6.59443e-19 3.57361)
(13.0531 -1.37784e-18 3.68534)
(13.102 2.19732e-18 3.86869)
(11.6209 3.03394e-19 2.50508)
(11.5737 2.95282e-19 2.34351)
(11.7754 4.62721e-19 2.63965)
(11.7255 1.51394e-19 2.47279)
(11.9353 6.70736e-20 2.77157)
(11.8827 -1.34371e-19 2.59975)
(12.1002 -3.09084e-19 2.90033)
(12.0449 -8.28289e-19 2.7239)
(12.2693 -1.57311e-19 3.02549)
(12.2114 4.51326e-19 2.84479)
(12.4421 -7.77839e-20 3.14668)
(12.3817 4.46414e-19 2.96205)
(12.618 0 3.26362)
(12.5551 -6.14945e-19 3.07539)
(12.7963 2.80654e-22 3.3761)
(12.7311 6.0965e-19 3.18459)
(12.9764 3.8968e-22 3.48392)
(12.9085 -5.45099e-19 3.28945)
(13.1052 3.90583e-20 3.39062)
(13.1584 7.6113e-23 3.57143)
(11.6809 1.39224e-19 2.31092)
(11.6288 1.46526e-19 2.15317)
(11.8356 -4.61201e-19 2.43241)
(11.781 2.80015e-19 2.26955)
(11.9952 -1.05348e-18 2.5514)
(11.938 -7.46823e-19 2.38372)
(12.1592 -4.64375e-20 2.66745)
(12.0995 -1.03962e-18 2.49526)
(12.3269 1.07014e-18 2.78021)
(12.2647 1.28075e-18 2.60382)
(12.4979 -1.06314e-19 2.88939)
(12.4333 6.87295e-19 2.70909)
(12.6715 1.24871e-20 2.99474)
(12.6046 -6.30375e-19 2.81083)
(12.8472 4.79698e-20 3.0961)
(12.7781 1.21983e-18 2.90887)
(13.0244 -5.0368e-19 3.19331)
(12.9528 -5.68268e-19 3.00304)
(13.1461 2.93611e-20 3.09397)
(13.2032 1.47107e-18 3.27231)
(11.7315 2.91128e-19 2.11121)
(11.6752 2.73158e-19 1.95731)
(11.8861 -1.44086e-20 2.22007)
(11.8273 2.87585e-19 2.06119)
(12.0451 -7.3309e-19 2.32659)
(11.9838 -5.79171e-19 2.16299)
(12.2079 3.25129e-19 2.43042)
(12.1442 -5.14131e-19 2.26238)
(12.3741 8.87211e-19 2.53127)
(12.308 6.83865e-19 2.35906)
(12.543 1.4751e-19 2.62889)
(12.4747 6.51537e-19 2.45278)
(12.7143 6.10996e-19 2.72309)
(12.6438 -5.84533e-19 2.54336)
(12.8873 5.84121e-19 2.81373)
(12.8148 6.09958e-19 2.63063)
(13.0616 -1.37056e-20 2.90067)
(12.9867 6.11422e-19 2.71447)
(13.1765 -6.45079e-19 2.79548)
(13.2371 -1.43463e-18 2.97142)
(11.7734 2.69577e-19 1.90642)
(11.7133 4.79384e-19 1.75638)
(11.9275 -2.92835e-19 2.00305)
(11.865 -2.75038e-19 1.8481)
(12.0856 -3.54548e-19 2.09752)
(12.0206 -2.89335e-19 1.93792)
(12.247 -1.44363e-19 2.18955)
(12.1798 -7.27748e-20 2.02554)
(12.4115 4.42073e-19 2.2789)
(12.342 -7.34135e-20 2.11074)
(12.5783 -1.01189e-19 2.36537)
(12.5067 5.12798e-19 2.19331)
(12.7471 -5.8356e-19 2.4488)
(12.6735 -1.12632e-18 2.27309)
(12.9174 6.37715e-19 2.52908)
(12.8419 5.74246e-19 2.34995)
(13.0888 -2.64688e-20 2.60609)
(13.0111 -5.06539e-21 2.42379)
(13.1975 -3.16291e-20 2.49518)
(13.2611 -1.82317e-18 2.66882)
(11.8072 -8.02092e-20 1.6969)
(11.7437 5.28479e-19 1.55075)
(11.9606 -2.71446e-19 1.78162)
(11.8947 -4.77821e-19 1.63062)
(12.1175 0 1.8644)
(12.0493 0 1.70877)
(12.2774 0 1.945)
(12.2071 -5.34158e-19 1.78497)
(12.44 0 2.02321)
(12.3676 1.15265e-18 1.85903)
(12.6046 -5.41141e-19 2.09889)
(12.5303 -5.50818e-19 1.93077)
(12.771 6.38037e-20 2.17189)
(12.6947 -2.68527e-20 2.00008)
(12.9386 -8.5892e-20 2.24213)
(12.8605 -5.54933e-21 2.06684)
(13.107 -1.01903e-20 2.30951)
(13.027 -6.23413e-19 2.13098)
(13.2101 6.3502e-19 2.19301)
(13.2762 4.33449e-19 2.36445)
(11.8335 1.19373e-19 1.48307)
(11.767 3.32604e-19 1.34071)
(11.9859 -1.98724e-19 1.55618)
(11.9172 -2.68369e-19 1.40898)
(12.1415 -5.48717e-19 1.62756)
(12.0706 6.46953e-20 1.47573)
(12.2998 6.50562e-19 1.69703)
(12.2269 -5.48147e-19 1.54078)
(12.4604 5.85393e-19 1.76443)
(12.3855 1.11667e-18 1.60398)
(12.6229 -2.25135e-20 1.82961)
(12.5461 -5.65259e-19 1.66519)
(12.7868 -9.79312e-20 1.89249)
(12.7083 5.27077e-19 1.7243)
(12.9517 -5.57922e-19 1.95297)
(12.8716 -5.76345e-19 1.78123)
(13.1173 3.49962e-20 2.01099)
(13.0354 -5.23626e-19 1.83592)
(13.2152 5.54441e-19 1.88885)
(13.2834 1.31506e-18 2.05835)
(11.8529 -6.59626e-20 1.26487)
(11.7839 0 1.12648)
(12.0042 2.33167e-21 1.3266)
(11.933 -6.59046e-20 1.18334)
(12.1584 6.4627e-20 1.38684)
(12.0851 3.23781e-21 1.2389)
(12.315 -6.79968e-20 1.44543)
(12.2398 -2.53491e-19 1.29303)
(12.4737 -6.61142e-20 1.50225)
(12.3966 -6.48211e-20 1.34559)
(12.634 0 1.55719)
(12.5552 2.29049e-19 1.39648)
(12.7955 3.48675e-20 1.61017)
(12.7151 5.53675e-19 1.44562)
(12.9578 -5.4106e-19 1.66113)
(12.8759 -1.02242e-18 1.49293)
(13.1207 5.71866e-21 1.71)
(13.0371 -2.15148e-20 1.53837)
(13.214 1.11835e-18 1.58236)
(13.2838 3.69233e-19 1.74992)
(11.8661 0 1.04311)
(11.7949 0 0.908208)
(12.0161 -6.49318e-20 1.09362)
(11.9428 -2.72137e-19 0.953785)
(12.1688 -3.23616e-19 1.1429)
(12.0936 -6.21436e-20 0.998308)
(12.3237 -2.50084e-19 1.19081)
(12.2466 2.67406e-19 1.04166)
(12.4804 2.38478e-19 1.23727)
(12.4017 1.98342e-22 1.08375)
(12.6386 7.97826e-19 1.28219)
(12.5582 4.38108e-20 1.12449)
(12.7978 -5.33192e-19 1.32549)
(12.716 2.82877e-19 1.16382)
(12.9577 -4.88132e-19 1.36715)
(12.8745 -8.26648e-19 1.2017)
(13.1179 1.11688e-18 1.4071)
(13.0333 5.68029e-19 1.23807)
(13.2073 5.47646e-19 1.27331)
(13.2782 -8.99717e-19 1.43977)
(11.8737 -2.79684e-19 0.81644)
(11.8005 0 0.685931)
(12.0224 -2.69146e-19 0.855832)
(11.9472 -5.14969e-19 0.720297)
(12.1735 5.45113e-19 0.894236)
(12.0964 4.81488e-19 0.753854)
(12.3267 5.24335e-19 0.931563)
(12.2479 5.24287e-19 0.786521)
(12.4816 -1.99755e-19 0.967737)
(12.4011 -2.64088e-19 0.818225)
(12.6378 -4.85063e-19 1.00269)
(12.5558 -2.27537e-19 0.848906)
(12.7948 -1.91541e-20 1.03638)
(12.7115 -2.93664e-19 0.878515)
(12.9524 2.59156e-19 1.06877)
(12.8678 2.66444e-19 0.907013)
(13.1103 -1.68273e-20 1.09981)
(13.0244 0 0.934363)
(13.1958 -2.61739e-19 0.960842)
(13.2682 -6.21995e-19 1.12521)
(11.876 -2.41972e-19 0.587733)
(11.8013 -1.00244e-19 0.459698)
(12.0233 2.56753e-19 0.616122)
(11.9466 -2.13071e-19 0.482854)
(12.1729 4.60067e-19 0.643804)
(12.0944 3.76144e-19 0.505458)
(12.3244 -2.86229e-19 0.670715)
(12.2443 -3.18293e-20 0.527454)
(12.4774 -2.92649e-19 0.696801)
(12.3958 -1.4125e-19 0.548798)
(12.6315 -3.08458e-20 0.722019)
(12.5487 8.75926e-20 0.569452)
(12.7865 0 0.746333)
(12.7025 -1.21888e-19 0.589386)
(12.9419 0 0.769718)
(12.8568 0 0.608582)
(13.0975 -2.51866e-19 0.792156)
(13.0115 0 0.62703)
(13.1805 -2.6354e-19 0.644951)
(13.2528 4.43204e-19 0.810531)
(11.8738 -7.05794e-20 0.351138)
(11.7075 -1.16888e-19 0.229608)
(12.0197 -9.03046e-20 0.368238)
(11.8502 -2.63936e-20 0.24145)
(12.1678 -1.29614e-19 0.384886)
(11.9955 -6.18059e-20 0.252999)
(12.3177 1.17264e-19 0.401046)
(12.1429 -1.37538e-20 0.264226)
(12.4691 2.49758e-19 0.416689)
(12.292 1.37845e-19 0.27511)
(12.6215 -6.01509e-21 0.431791)
(12.4424 1.22651e-19 0.28563)
(12.7747 -1.2191e-19 0.446337)
(12.5938 -1.25308e-19 0.29577)
(12.9284 0 0.460316)
(12.7459 0 0.305517)
(13.0821 -1.1976e-20 0.473728)
(12.8982 5.985e-20 0.314856)
(13.0648 -6.93289e-20 0.323907)
(13.2358 -1.2313e-20 0.484685)
(11.6833 -7.14781e-20 0.11869)
(11.8254 2.8582e-21 0.124956)
(11.9699 5.72256e-20 0.131058)
(12.1165 7.47076e-21 0.136981)
(12.2646 7.26581e-21 0.142712)
(12.414 0 0.148238)
(12.5642 0 0.153551)
(12.715 6.15195e-20 0.158637)
(12.8659 1.42095e-21 0.163495)
(13.0168 -3.81801e-20 0.167409)
(12.1395 1.97749e-18 6.36235)
(12.2949 1.40328e-18 6.26428)
(12.306 1.38824e-18 6.0731)
(12.4028 4.21976e-20 6.3588)
(12.4281 1.86139e-21 6.16747)
(12.5304 4.01447e-20 6.25906)
(12.511 6.16186e-20 6.46414)
(12.4528 -4.16383e-20 5.97385)
(12.4593 0 5.78552)
(12.5578 -6.76493e-22 6.06371)
(12.5783 -4.18099e-20 5.87479)
(12.6782 1.8023e-21 5.96178)
(12.6634 5.42456e-20 6.16585)
(12.598 0 5.68403)
(12.5994 0 5.49799)
(12.7007 -3.97537e-20 5.76898)
(12.7159 0 5.58205)
(12.8139 -4.02232e-20 5.66415)
(12.8042 -5.31045e-20 5.86634)
(12.73 0 5.39354)
(12.7262 0 5.2095)
(12.8309 0 5.47342)
(12.8405 -1.25263e-18 5.28827)
(12.937 1.21035e-18 5.36529)
(12.9327 4.31152e-19 5.56528)
(12.849 -1.27494e-18 5.10169)
(12.8398 3.75607e-20 4.91946)
(12.9482 -4.30669e-20 5.17639)
(12.9522 -1.24555e-18 4.9929)
(13.0471 1.23951e-18 5.06476)
(13.0484 1.21528e-18 5.2624)
(12.9549 7.57902e-20 4.80806)
(12.9402 1.18406e-18 4.62755)
(13.0525 3.77866e-20 4.87754)
(13.0507 -1.12149e-18 4.69568)
(13.1442 1.15626e-18 4.76233)
(13.1511 0 4.95755)
(13.0476 -2.5414e-20 4.51246)
(13.0275 2.29211e-18 4.33361)
(13.1437 -3.6792e-21 4.57673)
(13.1362 -1.18806e-18 4.39647)
(13.2282 4.75058e-20 4.45794)
(13.2408 1.56575e-18 4.65071)
(13.1274 1.12756e-18 4.21482)
(13.102 3.42377e-18 4.03761)
(13.2219 -1.15074e-18 4.27394)
(13.2088 -2.24243e-18 4.0953)
(13.2994 -6.07221e-20 4.15167)
(13.3174 -1.11464e-18 4.34193)
(13.1945 1.36716e-20 3.91519)
(13.164 2.33363e-18 3.73964)
(13.2874 -1.15218e-18 3.96927)
(13.269 -2.28098e-18 3.79226)
(13.358 1.13126e-18 3.84363)
(13.3813 1.49618e-18 4.03137)
(13.2492 1.72567e-20 3.6137)
(13.2141 1.06388e-18 3.43979)
(13.3405 1.72208e-20 3.66284)
(13.3171 -1.04863e-18 3.48747)
(13.4046 1.64311e-20 3.53397)
(13.4328 3.65337e-23 3.7192)
(13.2923 -1.28929e-20 3.31045)
(13.2528 4.10715e-20 3.13817)
(13.382 -1.06245e-18 3.35478)
(13.354 -6.19996e-20 3.18104)
(13.4399 -2.0335e-18 3.2228)
(13.4726 2.2246e-20 3.40556)
(13.3246 -1.26615e-20 3.00555)
(13.2812 -2.10633e-18 2.83486)
(13.4125 -1.03365e-18 3.04521)
(13.3804 3.07949e-18 2.87306)
(13.4648 -2.10993e-18 2.91023)
(13.5014 -2.39369e-18 3.09057)
(13.3469 1.01612e-18 2.69907)
(13.3002 -1.04119e-18 2.52988)
(13.4332 2.03915e-18 2.73419)
(13.3975 2.07435e-18 2.56354)
(13.4802 -7.96621e-21 2.59625)
(13.5204 -3.89618e-19 2.77431)
(13.3603 1.57311e-20 2.39092)
(13.3107 9.82909e-19 2.22317)
(13.445 0 2.42164)
(13.4062 -9.67626e-19 2.25242)
(13.4874 -9.51441e-19 2.28081)
(13.5305 0 2.45667)
(13.3658 -8.01923e-21 2.08115)
(13.314 9.92259e-19 1.91455)
(13.449 -1.94409e-18 2.10759)
(13.4077 -5.7088e-20 1.93949)
(13.4874 -1.91191e-18 1.96365)
(13.5329 -9.30769e-19 2.13771)
(13.3648 9.50173e-19 1.76912)
(13.3109 -9.28765e-19 1.60378)
(13.4464 -1.26107e-21 1.79137)
(13.4029 9.68182e-19 1.6245)
(13.4812 -9.53348e-19 1.64457)
(13.5287 -1.26558e-18 1.81668)
(13.3577 -9.32384e-19 1.45548)
(13.3026 -1.40279e-18 1.29032)
(13.438 1.44515e-20 1.47365)
(13.393 4.52742e-19 1.30688)
(13.4701 4.424e-19 1.32287)
(13.5189 4.25672e-21 1.4943)
(13.3464 -6.95927e-22 1.13738)
(13.2895 -1.6552e-20 0.973923)
(13.4252 8.92573e-19 1.15146)
(13.3785 4.54364e-19 0.98638)
(13.4544 1.28266e-20 0.998437)
(13.5048 4.23707e-19 1.16746)
(13.3299 4.46872e-19 0.819332)
(13.2728 4.54002e-19 0.653227)
(13.4078 -4.44398e-19 0.829484)
(13.3606 4.19088e-19 0.661531)
(13.4354 -8.6767e-19 0.669488)
(13.4864 -5.9023e-19 0.840984)
(13.3116 4.25855e-19 0.489867)
(13.1557 -3.43879e-21 0.32885)
(13.3882 5.83657e-22 0.495811)
(13.2422 4.3455e-19 0.332959)
(13.3159 -4.31282e-19 0.336985)
(13.4655 -4.15237e-19 0.502569)
(13.0916 0 0.169219)
(13.1672 1.63671e-21 0.171298)
(13.2434 3.41502e-21 0.173727)
(12.7143 9.37233e-20 6.43498)
(12.8804 -8.68332e-20 6.36436)
(12.859 0 6.13261)
(13.1006 -4.649e-20 6.52466)
(13.0565 3.85298e-20 6.29806)
(13.3139 -5.60331e-19 6.66754)
(13.278 1.91238e-21 6.45346)
(13.4988 -6.3333e-19 6.59415)
(13.0191 1.27502e-19 6.05926)
(12.9919 6.41955e-19 5.82689)
(13.2426 8.88194e-20 6.2217)
(13.1885 -5.83826e-19 5.9882)
(13.4687 -6.05826e-20 6.3752)
(13.4141 -4.14219e-20 6.14535)
(13.6924 -1.96472e-20 6.51691)
(13.648 -1.9745e-20 6.29502)
(13.9075 8.76074e-21 6.64362)
(13.8785 0 6.43424)
(14.1012 5.58543e-19 6.56008)
(13.1449 -5.32656e-20 5.74895)
(13.1124 2.82541e-20 5.51861)
(13.368 -7.27991e-19 5.90667)
(13.307 -7.16473e-19 5.67218)
(13.5987 0 6.05999)
(13.5325 1.6867e-20 5.82443)
(13.8344 0 6.20724)
(13.771 6.0571e-19 5.97311)
(14.0716 5.5229e-19 6.34612)
(14.0129 5.60205e-19 6.11625)
(14.3064 2.60314e-20 6.47376)
(14.2562 -5.28426e-19 6.2517)
(14.534 -1.03007e-18 6.58704)
(14.4989 4.82916e-19 6.37686)
(14.7373 -1.50164e-18 6.48875)
(13.2577 -6.35411e-19 5.43514)
(13.22 -6.44671e-19 5.20806)
(13.4789 3.56708e-20 5.58482)
(13.4122 -6.16398e-19 5.35228)
(13.7098 6.2819e-19 5.73227)
(13.6357 7.13774e-20 5.49641)
(13.9494 1.18081e-18 5.87664)
(13.8742 1.1968e-18 5.63882)
(14.1963 -5.2498e-19 6.01655)
(14.1197 5.74232e-19 5.77824)
(14.4482 -8.07609e-20 6.14997)
(14.3716 -1.11109e-18 5.91331)
(14.7024 4.03664e-20 6.27437)
(14.6295 1.05499e-18 6.04218)
(14.9556 -5.53686e-19 6.38689)
(14.8915 -5.29566e-19 6.16251)
(15.1544 1.84899e-20 6.27166)
(13.3575 -6.33551e-19 5.11863)
(13.3147 0 4.89536)
(13.5759 -5.86882e-19 5.25879)
(13.504 -6.47155e-19 5.02956)
(13.8048 6.36152e-19 5.39766)
(13.7245 1.78754e-20 5.16415)
(14.0441 5.87874e-19 5.53478)
(13.9609 1.17585e-18 5.29777)
(14.2934 8.39088e-21 5.66937)
(14.2058 -5.57654e-19 5.42953)
(14.5518 8.52609e-21 5.80014)
(14.4593 3.90608e-22 5.55861)
(14.8179 5.03422e-19 5.92528)
(14.7224 0 5.68381)
(15.0899 4.57962e-20 6.04265)
(14.9943 5.13855e-19 5.80347)
(15.2731 -5.03539e-19 5.91553)
(13.444 0 4.79986)
(13.3962 6.41886e-19 4.58068)
(13.6592 -3.76877e-20 4.9299)
(13.5825 0 4.70462)
(13.8851 5.49525e-19 5.05901)
(13.7995 -3.8472e-20 4.82912)
(14.1219 3.74598e-20 5.18688)
(14.0326 6.00064e-19 4.95291)
(14.3698 -5.77452e-19 5.31304)
(14.2746 -4.33921e-20 5.07526)
(14.6285 -8.34167e-21 5.43663)
(14.5262 -5.31568e-19 5.19565)
(14.8976 0 5.55648)
(14.7887 0 5.3133)
(15.1764 -2.82987e-20 5.67102)
(15.0623 0 5.42704)
(15.346 -1.34607e-21 5.53533)
(13.5174 6.55951e-19 4.47916)
(13.4647 6.57778e-19 4.26421)
(13.729 0 4.59891)
(13.6478 3.75248e-20 4.37792)
(13.9512 0 4.71785)
(13.861 5.88719e-19 4.49221)
(14.1844 5.30343e-19 4.83571)
(14.09 -5.60432e-19 4.60586)
(14.4288 1.43119e-20 4.95213)
(14.328 1.06865e-18 4.71821)
(14.6846 -5.34178e-19 5.06654)
(14.5757 -5.5077e-19 4.82884)
(14.9519 0 5.17809)
(14.8347 -4.9078e-19 4.93722)
(15.2304 2.76712e-20 5.28564)
(15.1055 -2.88548e-20 5.04249)
(15.3877 2.82512e-20 5.14347)
(13.5779 3.76279e-20 4.15681)
(13.5206 0 3.94616)
(13.7856 6.29136e-19 4.26635)
(13.7004 5.65334e-19 4.0498)
(14.0038 3.64815e-20 4.37512)
(13.9094 1.44116e-20 4.15401)
(14.2327 -4.31501e-20 4.48284)
(14.134 -5.74502e-19 4.25758)
(14.4726 5.24227e-19 4.5892)
(14.3675 2.69669e-20 4.35989)
(14.7238 -5.07387e-19 4.69372)
(14.6103 6.58672e-21 4.46055)
(14.9866 -5.30127e-19 4.79577)
(14.8642 -6.08506e-21 4.55911)
(15.261 -2.94642e-20 4.89445)
(15.1299 -4.47172e-19 4.65495)
(15.4073 8.88505e-19 4.74714)
(13.6258 5.28325e-19 3.83311)
(13.5644 0 3.62674)
(13.8296 -5.55306e-20 3.93262)
(13.7407 5.58078e-19 3.72053)
(14.0435 -6.01706e-19 4.03141)
(13.9455 -1.15166e-18 3.81487)
(14.2677 -5.15397e-19 4.12916)
(14.1655 5.46183e-19 3.90859)
(14.5027 -5.03369e-19 4.22556)
(14.394 -2.26423e-20 4.00106)
(14.7485 5.20876e-19 4.32018)
(14.6316 -4.80632e-19 4.09191)
(15.0056 8.83899e-20 4.41248)
(14.8798 4.95283e-19 4.18076)
(15.2741 4.65864e-19 4.50175)
(15.1394 -4.56205e-19 4.2671)
(15.4103 4.67622e-19 4.35016)
(13.662 1.80263e-20 3.50824)
(13.5968 5.86167e-19 3.30609)
(13.8617 -5.31295e-19 3.59799)
(13.7697 5.75856e-19 3.39031)
(14.0712 -9.51227e-21 3.68704)
(13.9701 -1.10886e-18 3.47504)
(14.2906 1.06371e-18 3.77508)
(14.1854 5.5599e-19 3.55917)
(14.5203 1.06036e-20 3.86181)
(14.4089 5.16668e-19 3.64209)
(14.7606 -5.27937e-19 3.94681)
(14.641 -5.07839e-19 3.72347)
(15.0115 -4.29263e-20 4.02962)
(14.8833 -1.49418e-20 3.80295)
(15.2733 -4.74111e-19 4.10963)
(15.1365 -4.19298e-19 3.88009)
(15.4004 -4.41846e-19 3.95425)
(13.6873 1.15839e-18 3.18234)
(13.6188 2.84166e-20 2.98431)
(13.8829 1.82792e-20 3.2626)
(13.7882 5.8882e-19 3.05924)
(14.0878 -5.63275e-19 3.3422)
(13.9843 -5.69429e-19 3.13464)
(14.3024 -4.15434e-21 3.42083)
(14.1948 4.96402e-19 3.20947)
(14.5268 7.52612e-21 3.49821)
(14.4132 -4.95432e-19 3.28317)
(14.7613 7.66062e-21 3.57397)
(14.6399 -6.99645e-21 3.35542)
(15.006 -3.9226e-19 3.64769)
(14.8762 4.44193e-19 3.42591)
(15.2611 -3.85754e-19 3.71887)
(15.123 -4.39881e-19 3.49427)
(15.38 -3.77504e-19 3.55996)
(13.7026 -5.68465e-19 2.85551)
(13.6314 -5.8746e-19 2.66142)
(13.8941 9.25347e-21 2.92656)
(13.7973 -1.59821e-20 2.72734)
(14.0946 4.93838e-19 2.99701)
(13.9891 -3.93489e-22 2.79371)
(14.3043 1.41704e-20 3.06655)
(14.195 5.17402e-19 2.85955)
(14.5235 -5.21091e-19 3.13492)
(14.4085 -9.82633e-19 2.92435)
(14.7523 4.30933e-19 3.2018)
(14.6297 4.58007e-19 2.98781)
(14.9908 4.14605e-19 3.26683)
(14.8603 4.69543e-19 3.04968)
(15.2393 -4.32751e-19 3.32959)
(15.1007 3.89565e-19 3.10964)
(15.3509 -4.38535e-19 3.16725)
(13.7091 -3.37096e-20 2.52763)
(13.6358 5.4627e-19 2.33732)
(13.8966 -2.62318e-20 2.58975)
(13.7983 -1.8057e-20 2.39451)
(14.0928 1.2201e-20 2.65134)
(13.986 8.31659e-21 2.45211)
(14.2978 -4.72114e-19 2.7121)
(14.1874 1.88186e-22 2.50925)
(14.5118 -1.03479e-20 2.7718)
(14.3961 -4.86783e-19 2.56545)
(14.7351 4.97405e-19 2.83016)
(14.6122 4.85454e-19 2.62046)
(14.9677 4.4556e-19 2.88686)
(14.8371 6.67858e-22 2.67405)
(15.2098 4.01842e-19 2.94156)
(15.0716 8.36607e-19 2.72598)
(15.3153 -8.29657e-19 2.77587)
(13.7081 5.75314e-19 2.19873)
(13.6331 5.68968e-19 2.01177)
(13.8917 1.6799e-20 2.25219)
(13.7924 -4.92166e-19 2.06048)
(14.0837 -3.82712e-21 2.30518)
(13.9762 4.9962e-19 2.10955)
(14.2842 -3.89971e-21 2.35744)
(14.1733 -3.91438e-21 2.15823)
(14.4935 0 2.40877)
(14.3774 0 2.20609)
(14.7115 -1.35565e-20 2.45893)
(14.5887 -4.36264e-19 2.25293)
(14.9385 3.83428e-19 2.50765)
(14.8085 8.32978e-19 2.29858)
(15.1745 -3.9042e-19 2.55466)
(15.0373 7.81827e-21 2.3428)
(15.2751 -8.1255e-19 2.38526)
(13.7007 -5.02285e-19 1.868)
(13.6244 4.16994e-22 1.68444)
(13.8807 -1.73757e-20 1.91301)
(13.7807 -5.2266e-19 1.72487)
(14.0687 5.11085e-19 1.95761)
(13.9608 5.13016e-19 1.76562)
(14.265 0 2.00159)
(14.1539 0 1.80603)
(14.4697 -4.37969e-19 2.04478)
(14.3539 -4.44123e-19 1.84577)
(14.6829 4.03989e-19 2.087)
(14.5606 -5.09264e-21 1.88467)
(14.9047 4.65955e-19 2.12802)
(14.7756 8.63145e-19 1.92259)
(15.1352 -4.07262e-19 2.16759)
(14.9993 -7.8863e-19 1.95929)
(15.2317 3.97114e-19 1.99452)
(13.6879 -8.27008e-21 1.53617)
(13.6109 -2.62054e-19 1.3548)
(13.8645 0 1.57294)
(13.7644 0 1.38711)
(14.0489 0 1.60937)
(13.9412 0 1.41971)
(14.2413 -4.45868e-19 1.64529)
(14.1306 0 1.45204)
(14.4418 -9.89701e-21 1.68058)
(14.3267 -4.56257e-19 1.48384)
(14.6505 4.46547e-19 1.71507)
(14.5294 4.48414e-19 1.51496)
(14.8676 -3.87851e-19 1.74857)
(14.7401 -3.94132e-19 1.54526)
(15.0932 1.06639e-20 1.78085)
(14.9592 -8.97997e-21 1.57456)
(15.1868 3.96353e-19 1.60268)
(13.671 -2.59757e-19 1.19998)
(13.5932 -2.57754e-19 1.0222)
(13.8445 0 1.22857)
(13.7443 4.76336e-19 1.04652)
(14.0257 0 1.25691)
(13.918 -2.33938e-19 1.07105)
(14.2146 0 1.28485)
(14.1042 0 1.09539)
(14.4114 -6.61179e-21 1.3123)
(14.297 -1.67109e-21 1.11934)
(14.6162 -3.95909e-19 1.3391)
(14.4961 -2.07099e-19 1.14276)
(14.8291 -1.37322e-20 1.36509)
(14.7031 -9.08966e-21 1.16553)
(15.0503 3.78117e-19 1.39012)
(14.9182 6.37681e-21 1.18753)
(15.1417 1.72151e-19 1.20867)
(13.6501 4.79096e-19 0.864375)
(13.5723 2.39259e-19 0.685732)
(13.821 2.52e-19 0.885005)
(13.7212 2.56299e-19 0.702035)
(13.9993 -2.39528e-19 0.905463)
(13.8923 -2.37981e-19 0.718569)
(14.1852 -1.67842e-21 0.925643)
(14.0758 2.14572e-19 0.734957)
(14.3788 -2.02943e-19 0.945465)
(14.2656 -4.19981e-21 0.751064)
(14.5802 1.85857e-19 0.964807)
(14.4619 -2.14988e-19 0.766803)
(14.7896 1.12539e-20 0.98355)
(14.6656 2.08342e-19 0.782087)
(15.0071 -2.09261e-19 1.00162)
(14.8775 -3.93314e-19 0.796864)
(15.0974 1.44147e-20 0.811085)
(13.6271 9.41667e-21 0.516453)
(13.4508 2.44627e-19 0.344435)
(13.7957 -2.36682e-19 0.528787)
(13.5975 -2.40256e-19 0.352878)
(13.9715 2.1826e-19 0.540999)
(13.766 -5.25842e-20 0.361251)
(14.1548 2.17125e-19 0.553023)
(13.9466 2.73904e-19 0.369525)
(14.3458 -1.14167e-20 0.564821)
(14.1338 -5.30797e-20 0.37768)
(14.5444 -2.0196e-19 0.576315)
(14.3272 9.05572e-20 0.385653)
(14.7509 -1.93615e-19 0.587446)
(14.528 -2.0138e-19 0.393392)
(14.9653 -1.72838e-19 0.598179)
(14.7368 4.67949e-21 0.400873)
(14.9537 -2.23835e-19 0.408062)
(13.4022 1.87395e-21 0.178834)
(13.568 -5.55125e-20 0.183414)
(13.741 -2.96566e-21 0.187938)
(13.9215 3.7573e-21 0.192389)
(14.1095 4.84354e-20 0.196758)
(14.3051 9.80764e-20 0.201023)
(14.5086 -2.36874e-21 0.205161)
(14.7199 -4.24326e-20 0.209153)
)
;

boundaryField
{
    inlet
    {
        type            calculated;
        value           nonuniform 0();
    }
    outlet
    {
        type            calculated;
        value           nonuniform 0();
    }
    flap
    {
        type            calculated;
        value           nonuniform 0();
    }
    upperWall
    {
        type            calculated;
        value           uniform (0 0 0);
    }
    lowerWall
    {
        type            calculated;
        value           nonuniform 0();
    }
    frontAndBack
    {
        type            empty;
        value           nonuniform 0();
    }
    procBoundary1to0
    {
        type            processor;
        value           nonuniform List<vector> 
18
(
(11.1657 1.70513e-19 3.37157)
(11.2786 -3.40668e-19 3.21448)
(11.2556 -3.33078e-19 3.038)
(11.2381 -1.67063e-19 2.86973)
(11.3261 -3.1161e-19 2.71032)
(11.4041 -1.60485e-19 2.54298)
(11.4725 1.52542e-19 2.36845)
(11.5316 -1.41168e-19 2.1874)
(11.5818 2.80073e-19 2.0004)
(11.6237 2.80523e-19 1.80797)
(11.6578 2.70459e-19 1.6105)
(11.6848 2.04447e-19 1.40846)
(11.705 3.14061e-19 1.20184)
(11.7192 6.08298e-20 0.991493)
(11.7279 -2.97774e-19 0.776168)
(11.7314 -2.32162e-19 0.558712)
(11.7305 -2.00934e-19 0.333627)
(11.544 -4.39851e-22 0.11228)
)
;
    }
    procBoundary1to2
    {
        type            processor;
        value           nonuniform List<vector> 
17
(
(15.2039 9.04173e-19 6.48459)
(15.3654 -4.73176e-19 6.1497)
(15.4636 -2.87569e-20 5.77833)
(15.5196 2.81241e-20 5.38774)
(15.5469 0 4.98866)
(15.5541 1.77948e-18 4.58713)
(15.5462 -9.15581e-19 4.18615)
(15.5267 -1.6982e-22 3.78688)
(15.4977 -4.24274e-19 3.38954)
(15.4613 3.78226e-19 2.99383)
(15.4197 -1.19403e-18 2.59957)
(15.3746 0 2.20537)
(15.3273 4.06093e-19 1.81168)
(15.2797 -3.52317e-19 1.41405)
(15.2326 1.66539e-19 1.01894)
(15.1877 -5.75689e-21 0.608451)
(14.9391 -8.09317e-20 0.212968)
)
;
    }
    procBoundary1to3
    {
        type            processor;
        value           nonuniform List<vector> 9((9.63242 -4.67642e-19 4.18102) (9.84578 -1.80622e-18 4.16584) (10.0501 6.67924e-21 4.12713) (10.2442 4.25714e-19 4.06709) (10.4272 1.02119e-18 3.98794) (10.5986 1.02407e-20 3.89177) (10.758 8.42183e-20 3.78046) (10.9056 9.31661e-20 3.6557) (11.0414 -5.7709e-21 3.51898));
    }
    procBoundary1to4
    {
        type            processor;
        value           nonuniform List<vector> 
30
(
(9.53368 1.4395e-18 4.36849)
(9.67814 9.30343e-19 4.57232)
(9.82822 4.7307e-19 4.74849)
(9.9208 -2.50457e-20 5.15604)
(10.1185 8.82214e-19 5.31958)
(10.3111 6.53995e-19 5.448)
(10.4757 -1.03471e-19 5.82702)
(10.7071 -1.02911e-19 5.91661)
(10.9199 0 5.97718)
(11.133 4.13864e-19 6.28788)
(11.3633 -2.0425e-20 6.3005)
(11.5692 -6.31465e-19 6.29993)
(11.8184 -5.98558e-19 6.54289)
(11.9602 1.24024e-18 6.65589)
(12.1246 1.90146e-18 6.55751)
(12.2658 1.33801e-18 6.46175)
(12.3713 -1.29434e-18 6.55735)
(12.5581 -5.66415e-19 6.7314)
(12.7284 9.32683e-20 6.66037)
(12.9098 -8.64473e-20 6.59696)
(13.1187 4.13531e-20 6.73794)