/*--------------------------------*- C++ -*----------------------------------*\
| =========                 |                                                 |
| \\      /  F ield         | OpenFOAM: The Open Source CFD Toolbox           |
|  \\    /   O peration     | Version:  dev                                   |
|   \\  /    A nd           | Web:      www.OpenFOAM.org                      |
|    \\/     M anipulation  |                                                 |
\*---------------------------------------------------------------------------*/
FoamFile
{
    version     2.0;
    format      ascii;
    class       volVectorField;
    location    "3.46";
    object      U;
}
// * * * * * * * * * * * * * * * * * * * * * * * * * * * * * * * * * * * * * //

dimensions      [0 1 -1 0 0 0 0];

internalField   nonuniform List<vector> 
465
(
(0.875803 -1.47151e-22 0.0151105)
(0.845995 0 0.0151543)
(0.816208 -1.35757e-22 0.013424)
(0.789663 1.30917e-22 0.0106546)
(0.768316 0 0.00761197)
(0.75259 0 0.00497702)
(0.74145 0 0.00315094)
(0.733104 0 0.00207429)
(0.726193 -1.65454e-23 0.00128792)
(0.720784 0 0.000271413)
(0.718425 0 -0.00122924)
(0.721392 -1.32481e-23 -0.00309435)
(0.730814 1.29722e-23 -0.00498227)
(0.746436 -1.14736e-23 -0.00676397)
(0.767609 4.84061e-24 -0.00870732)
(0.794486 -4.73995e-24 -0.0111574)
(0.82849 0 -0.0143044)
(0.871914 0 -0.0179867)
(0.926474 0 -0.021507)
(1.00734 0 -0.023275)
(0.951145 -5.18705e-23 0.0247895)
(0.938739 -4.30089e-23 0.0278103)
(0.923734 -4.36238e-22 0.0267455)
(0.908652 -7.52332e-23 0.0229575)
(0.895032 4.54962e-23 0.0179862)
(0.883175 0 0.0134068)
(0.872122 0 0.0103388)
(0.860278 0 0.0087911)
(0.846658 1.65313e-23 0.00757696)
(0.831923 -3.09609e-23 0.00517361)
(0.818318 0 0.00088098)
(0.808431 8.36518e-25 -0.00452956)
(0.802295 5.04043e-23 -0.00941707)
(0.799803 1.06301e-23 -0.0130145)
(0.799722 -9.71074e-24 -0.0156795)
(0.800804 1.78698e-23 -0.0181858)
(0.803062 -8.18715e-24 -0.0217649)
(0.809915 0 -0.0280205)
(0.826935 0 -0.037381)
(0.868901 0 -0.0458018)
(0.786792 -1.13204e-21 0.0280434)
(0.775393 -4.66543e-22 0.0344021)
(0.760655 3.48626e-22 0.0346775)
(0.743745 4.34623e-22 0.030815)
(0.725222 -4.22238e-22 0.0250017)
(0.705019 0 0.0196808)
(0.682252 0 0.016873)
(0.655315 1.37282e-22 0.0170458)
(0.622732 -6.92457e-23 0.0187803)
(0.584349 9.19904e-23 0.0197167)
(0.541547 -5.97126e-23 0.0180184)
(0.496753 -2.74926e-23 0.0134963)
(0.456817 4.91706e-23 0.00747006)
(0.429076 -7.12722e-23 0.00158466)
(0.411126 -2.05246e-23 -0.00436052)
(0.402891 0 -0.0120909)
(0.404653 3.00888e-23 -0.0227505)
(0.415642 -2.87987e-23 -0.0365741)
(0.433048 -1.10169e-23 -0.0527659)
(0.454673 0 -0.0696333)
(0.519486 1.00954e-21 0.034675)
(0.493814 -1.9015e-21 0.0443415)
(0.463623 1.00293e-21 0.047368)
(0.427217 0 0.0468005)
(0.38294 -3.4548e-22 0.0452004)
(0.330998 3.38413e-22 0.0447701)
(0.275045 0 0.0470127)
(0.221184 6.84572e-23 0.0513398)
(0.172971 -6.54965e-23 0.0547804)
(0.130574 0 0.0539025)
(0.0945916 -5.67743e-23 0.0471516)
(0.0667436 5.78814e-23 0.0352815)
(0.0483623 0 0.0206997)
(0.0397023 0 0.00656755)
(0.0387132 2.0594e-23 -0.00594645)
(0.0399487 -5.15809e-23 -0.0176786)
(0.0421448 -4.33081e-23 -0.0294236)
(0.0440674 2.37735e-23 -0.0423113)
(0.0438052 9.89379e-25 -0.0584469)
(0.0381431 0 -0.0810722)
(0.12408 -1.26734e-22 0.066144)
(0.0750861 8.9142e-22 0.0776599)
(0.0230354 -7.7003e-22 0.0835897)
(-0.0308598 0 0.0860708)
(-0.0848002 -8.47196e-23 0.0865337)
(-0.136514 7.73462e-23 0.0860204)
(-0.182328 -2.83513e-22 0.0848253)
(-0.219811 2.08934e-22 0.0823455)
(-0.248349 -6.22393e-23 0.077323)
(-0.268289 0 0.0684492)
(-0.280671 -2.26172e-22 0.0552809)
(-0.287485 2.16941e-22 0.0389339)
(-0.291406 -9.63198e-23 0.0219684)
(-0.294343 2.8173e-24 0.00702601)
(-0.296365 -7.63135e-23 -0.00530364)
(-0.300478 7.16409e-23 -0.0162313)
(-0.306621 2.92703e-23 -0.0269711)
(-0.315525 2.59453e-23 -0.0394695)
(-0.32763 1.05081e-23 -0.0569575)
(-0.339612 -8.89471e-24 -0.077678)
(-0.318467 1.26699e-22 0.104397)
(-0.365438 0 0.115438)
(-0.411295 -6.80157e-22 0.120503)
(-0.455182 7.56494e-22 0.12084)
(-0.495835 8.4438e-23 0.117773)
(-0.53144 2.15112e-22 0.112367)
(-0.560323 -2.85929e-22 0.105203)
(-0.581454 -1.9089e-22 0.0963878)
(-0.594788 4.90968e-22 0.0854854)
(-0.601502 -2.34838e-22 0.0719462)
(-0.603908 2.70997e-24 0.0559309)
(-0.604867 -5.26038e-23 0.0387592)
(-0.606721 9.46427e-23 0.0224392)
(-0.610361 4.37898e-23 0.00858496)
(-0.615339 7.44434e-23 -0.00243619)
(-0.62404 -3.49333e-23 -0.0117304)
(-0.63646 5.19267e-23 -0.021056)
(-0.652238 -6.79008e-23 -0.0330034)
(-0.670153 8.11718e-24 -0.0507012)
(-0.68322 8.8979e-24 -0.0699874)
(-0.696527 2.39603e-22 0.137039)
(-0.737069 0 0.145927)
(-0.773765 -9.24847e-22 0.14812)
(-0.806553 5.49831e-22 0.145082)
(-0.835087 0 0.138125)
(-0.858737 -5.45171e-22 0.128365)
(-0.876843 9.09558e-22 0.116613)
(-0.889081 -1.94438e-22 0.103315)
(-0.895861 5.88769e-23 0.088566)
(-0.898558 -2.13944e-22 0.0724422)
(-0.899318 1.6376e-22 0.0554861)
(-0.90045 9.30256e-23 0.0388651)
(-0.903716 -1.32056e-22 0.0239944)
(-0.909915 3.8437e-23 0.0118809)
(-0.919024 -1.06647e-22 0.00265267)
(-0.930541 2.80425e-23 -0.00475976)
(-0.947426 -7.92747e-23 -0.0125491)
(-0.968225 4.53381e-23 -0.0239646)
(-0.990142 8.88915e-24 -0.04139)
(-1.0037 -3.49833e-24 -0.058922)
(-1.00778 -4.03844e-21 0.166732)
(-1.04382 1.73334e-21 0.171133)
(-1.07466 1.68784e-22 0.169401)
(-1.10102 -4.36741e-22 0.162816)
(-1.12327 5.87026e-22 0.152469)
(-1.1414 4.94153e-22 0.13933)
(-1.15524 -6.0666e-22 0.12423)
(-1.16478 -1.15071e-22 0.107812)
(-1.17057 0 0.0905604)
(-1.17385 9.34554e-23 0.0729802)
(-1.1764 2.80761e-22 0.0558429)
(-1.18013 -2.68147e-22 0.0402366)
(-1.18646 1.65383e-22 0.0271903)
(-1.19605 -6.07561e-24 0.0171276)
(-1.20885 3.60383e-23 0.00970442)
(-1.2246 -3.04941e-23 0.0038683)
(-1.24346 5.20075e-23 -0.00258699)
(-1.2674 -1.49767e-23 -0.0130479)
(-1.29249 -1.18768e-23 -0.0295049)
(-1.30646 5.13216e-24 -0.0453516)
(-1.26951 0 0.194974)
(-1.30424 0 0.193983)
(-1.33324 -1.68657e-22 0.188045)
(-1.35774 0 0.178063)
(-1.37846 5.84661e-22 0.164766)
(-1.39567 -4.62073e-22 0.148864)
(-1.40938 -9.246e-23 0.131125)
(-1.41974 2.75711e-22 0.112357)
(-1.42737 -4.48689e-22 0.0933619)
(-1.43341 -9.2261e-24 0.0749717)
(-1.4394 2.4992e-24 0.0581216)
(-1.4469 6.24617e-24 0.0437591)
(-1.45702 7.64861e-23 0.0325323)
(-1.47021 -7.167e-23 0.024426)
(-1.48631 1.22527e-22 0.0186839)
(-1.50527 2.67787e-23 0.0140467)
(-1.52779 -3.57959e-23 0.00860083)
(-1.55406 1.58674e-23 -0.000657899)
(-1.5801 0 -0.0154842)
(-1.59444 -1.27882e-24 -0.0296099)
(-1.49816 0 0.223683)
(-1.5338 1.53963e-22 0.216874)
(-1.56357 0 0.206645)
(-1.58905 4.42671e-22 0.193413)
(-1.61115 -4.56376e-22 0.177438)
(-1.6302 0 0.159113)
(-1.6463 1.64048e-22 0.139145)
(-1.65968 -1.55087e-22 0.118497)
(-1.671 8.33039e-23 0.0982333)
(-1.68133 -8.06235e-23 0.0794052)
(-1.69194 1.43367e-22 0.0630005)
(-1.70402 6.87213e-23 0.0498113)
(-1.71831 -6.72762e-23 0.0401609)
(-1.73495 0 0.0336627)
(-1.7537 -3.23606e-23 0.0292691)
(-1.77484 -7.5672e-23 0.0255819)
(-1.79984 0 0.0208664)
(-1.82946 0 0.0127659)
(-1.85719 0 -1.52235e-05)
(-1.86969 1.27956e-24 -0.0121789)
(-1.70409 0 0.253756)
(-1.74145 -1.53942e-22 0.240982)
(-1.77314 4.08903e-22 0.226547)
(-1.80107 -3.99604e-22 0.210324)
(-1.82624 1.97641e-22 0.191973)
(-1.84892 -5.86473e-22 0.171503)
(-1.86912 1.31028e-22 0.149562)
(-1.88706 6.80934e-23 0.127302)
(-1.9034 0 0.106019)
(-1.9191 0 0.0868891)
(-1.93521 5.31924e-23 0.070851)
(-1.95257 -1.15951e-22 0.0585)
(-1.97161 0 0.0498933)
(-1.99226 0 0.0444174)
(-2.01428 -2.39037e-23 0.0409257)
(-2.0383 -3.73981e-23 0.038069)
(-2.06647 4.75608e-23 0.0343419)
(-2.10012 0 0.0278781)
(-2.13236 0 0.0177765)
(-2.14763 0 0.00822654)
(-1.89176 0 0.285203)
(-1.93059 -8.41312e-23 0.266623)
(-1.96438 0 0.248352)
(-1.99543 -2.07927e-22 0.229678)
(-2.0248 2.03215e-22 0.209444)
(-2.05247 -9.12356e-23 0.187153)
(-2.07813 1.68189e-22 0.163436)
(-2.10181 -7.14421e-23 0.139726)
(-2.12411 6.98914e-23 0.11758)
(-2.14589 0 0.0982324)
(-2.16798 3.58505e-23 0.0824964)
(-2.19094 0 0.0707521)
(-2.21497 -4.98259e-24 0.0628486)
(-2.23994 4.80631e-23 0.0580418)
(-2.26571 4.44367e-23 0.055174)
(-2.29307 4.18809e-23 0.0530064)
(-2.32436 -3.03183e-24 0.0502948)
(-2.3608 0 0.0456196)
(-2.39483 -1.80445e-23 0.0382926)
(-2.41053 6.27795e-25 0.0312876)
(-2.06011 9.4637e-22 0.317427)
(-2.09919 8.41015e-23 0.293443)
(-2.13428 0 0.272079)
(-2.16829 0 0.251952)
(-2.20224 0 0.23063)
(-2.23544 1.09025e-23 0.206885)
(-2.26681 1.69444e-23 0.181426)
(-2.29602 -9.2291e-24 0.156166)
(-2.32355 -3.34761e-23 0.133015)
(-2.35021 4.24496e-23 0.113207)
(-2.37658 -5.50582e-23 0.0973533)
(-2.40297 0 0.0856505)
(-2.42949 -8.76321e-24 0.0778503)
(-2.45609 0 0.0731773)
(-2.48282 -2.41541e-23 0.0704752)
(-2.51065 -3.55189e-23 0.0685762)
(-2.54212 -1.05659e-23 0.0665141)
(-2.57864 -7.64489e-24 0.0633991)
(-2.61282 1.73855e-23 0.0587879)
(-2.62851 9.8617e-24 0.0543785)
(-2.20114 1.00142e-22 0.349456)
(-2.23788 -9.77814e-23 0.320314)
(-2.27161 3.36711e-23 0.296909)
(-2.30669 -1.64618e-22 0.276913)
(-2.34405 5.61454e-23 0.25559)
(-2.38158 1.4091e-22 0.230604)
(-2.41695 -8.46577e-23 0.203019)
(-2.44939 3.81544e-23 0.175687)
(-2.47963 -2.26644e-23 0.1511)
(-2.5087 -3.6989e-23 0.130415)
(-2.53717 1.92402e-23 0.113936)
(-2.56517 -2.66419e-23 0.101705)
(-2.5927 -9.16092e-24 0.0934968)
(-2.61977 7.38358e-23 0.0886008)
(-2.64656 -3.79696e-23 0.0858848)
(-2.67416 0 0.0842347)
(-2.7053 -4.88184e-23 0.0829591)
(-2.74168 7.63514e-24 0.0816712)
(-2.77596 0 0.0799599)
(-2.79185 -2.10418e-23 0.0781154)
(-2.30019 6.87779e-23 0.379046)
(-2.33019 -2.13251e-22 0.344025)
(-2.35736 8.95059e-23 0.31981)
(-2.38982 4.81346e-23 0.302569)
(-2.42829 -5.03742e-23 0.282833)
(-2.46793 -1.07285e-22 0.256629)
(-2.50442 -5.30832e-23 0.226136)
(-2.53677 -1.0196e-22 0.19606)
(-2.56665 2.2415e-22 0.169865)
(-2.59587 -8.50892e-23 0.148384)
(-2.625 1.50837e-23 0.131268)
(-2.65378 0 0.118342)
(-2.68192 -2.81744e-23 0.1095)
(-2.70933 -7.49338e-23 0.104186)
(-2.73622 3.51649e-23 0.101323)
(-2.76375 -1.55486e-23 0.0998338)
(-2.79472 5.6734e-23 0.0992717)
(-2.83101 -3.76297e-24 0.0997353)
(-2.86558 0 0.100771)
(-2.88193 1.11799e-23 0.101132)
(-2.30495 -1.43883e-22 0.448526)
(-2.33993 -2.76933e-22 0.40771)
(-2.35718 -7.89017e-24 0.362277)
(-2.36979 4.04576e-23 0.337671)
(-2.3955 4.52042e-22 0.328127)
(-2.43442 6.28906e-22 0.31243)
(-2.47581 -1.63429e-22 0.284494)
(-2.51203 -1.01643e-22 0.249555)
(-2.54248 1.12211e-22 0.215875)
(-2.57095 6.37653e-23 0.188444)
(-2.60065 -1.16178e-22 0.166992)
(-2.63175 3.02059e-23 0.149694)
(-2.6629 -1.9909e-23 0.136078)
(-2.69308 5.68738e-24 0.126397)
(-2.722 3.04001e-23 0.120458)
(-2.74992 -3.84133e-23 0.11732)
(-2.77804 7.97095e-23 0.115889)
(-2.8092 0 0.115891)
(-2.84567 1.04906e-23 0.118017)
(-2.88098 1.77015e-23 0.121961)
(-2.89817 -9.7345e-24 0.124642)
(-2.24657 -1.41451e-21 0.53503)
(-2.29609 -3.9585e-22 0.450403)
(-2.29628 1.37098e-21 0.358929)
(-2.28057 2.45892e-23 0.333371)
(-2.29478 -6.40829e-22 0.34745)
(-2.33729 -3.73044e-22 0.343007)
(-2.38245 3.64542e-22 0.313667)
(-2.41736 -3.22297e-22 0.272577)
(-2.44357 1.20189e-22 0.234698)
(-2.46985 -3.95481e-22 0.207663)
(-2.50201 2.49078e-22 0.188228)
(-2.53873 0 0.171394)
(-2.57603 0 0.156705)
(-2.61141 0 0.145521)
(-2.64418 0 0.138451)
(-2.6747 5.77749e-23 0.134759)
(-2.70432 -9.76986e-23 0.13324)
(-2.73601 0 0.133675)
(-2.77265 0 0.137511)
(-2.80904 -2.32186e-23 0.145199)
(-2.82761 8.81175e-24 0.151473)
(-2.10634 0 0.249443)
(-2.03547 0 0.323174)
(-2.03955 2.51921e-22 0.405689)
(-2.10052 -2.96012e-22 0.408381)
(-2.15532 2.88271e-22 0.360135)
(-2.18508 1.82542e-22 0.298019)
(-2.19885 0 0.249819)
(-2.21771 0 0.226073)
(-2.25335 7.27448e-23 0.213239)
(-2.3005 -8.27429e-23 0.198567)
(-2.34962 0 0.182704)
(-2.39549 1.78217e-23 0.169347)
(-2.43663 -1.74408e-23 0.160298)
(-2.4732 -2.30928e-23 0.155112)
(-2.50656 -8.35111e-23 0.152678)
(-2.53981 7.96041e-24 0.152922)
(-2.57675 -7.79673e-24 0.158011)
(-2.61444 -4.6389e-24 0.170078)
(-2.63521 0 0.182025)
(-1.43312 -8.85341e-22 0.353366)
(-1.64543 1.59138e-21 0.333895)
(-1.74131 -6.74875e-22 0.288532)
(-1.75756 -1.31169e-21 0.246434)
(-1.73508 6.44802e-22 0.233256)
(-1.72803 -1.03615e-22 0.247642)
(-1.7583 1.27007e-22 0.257532)
(-1.81281 -1.19293e-22 0.24647)
(-1.87278 1.59922e-23 0.225318)
(-1.93248 0 0.204341)
(-1.99012 4.06373e-23 0.188256)
(-2.04336 0 0.178042)
(-2.09052 1.03963e-22 0.173107)
(-2.13306 -1.09076e-23 0.172649)
(-2.17521 1.06822e-23 0.178314)
(-2.21749 1.08805e-23 0.195167)
(-2.24347 0 0.216902)
(1.81232 2.92692e-22 0.784341)
(1.1435 6.25347e-22 0.592909)
(0.532181 2.58892e-22 0.428515)
(-0.0579941 -5.51352e-22 0.305549)
(-0.53843 1.80055e-22 0.253556)
(-0.786408 9.25836e-23 0.24262)
(-0.931903 -1.15241e-22 0.234018)
(-1.01889 9.38986e-24 0.227007)
(-1.08177 0 0.223568)
(-1.14279 -3.99576e-23 0.221482)
(-1.2126 0 0.217596)
(-1.29184 -1.61898e-22 0.2115)
(-1.37577 1.45599e-23 0.206317)
(-1.45556 -1.90347e-23 0.209006)
(-1.52552 4.68203e-24 0.229105)
(-1.57487 0 0.266524)
(4.38876 -2.78048e-22 1.03653)
(3.73927 -1.82856e-22 0.869603)
(3.1287 -1.75614e-22 0.72267)
(2.57054 1.48048e-22 0.592191)
(2.05813 -4.23968e-23 0.48232)
(1.59209 6.72508e-23 0.39871)
(1.1813 -2.77201e-23 0.343319)
(0.833496 2.72192e-23 0.311125)
(0.54372 0 0.293069)
(0.296949 1.59183e-22 0.281928)
(0.081801 1.82441e-22 0.273232)
(-0.108177 1.35251e-22 0.262425)
(-0.257551 6.5666e-24 0.259496)
(-0.529459 0 0.386087)
(6.79046 6.65111e-23 1.20604)
(6.22343 -6.55504e-23 1.05027)
(5.67679 -1.25739e-24 0.915867)
(5.1503 1.03108e-22 0.802735)
(4.64633 1.26402e-22 0.709112)
(4.16838 -3.9878e-23 0.632453)
(3.71882 -2.7731e-23 0.57063)
(3.29817 2.72673e-23 0.521892)
(2.90612 -1.73782e-22 0.484151)
(2.53908 -1.35699e-22 0.454851)
(2.22143 0 0.434514)
(1.7354 -5.34279e-23 0.499064)
(9.46835 6.84461e-23 1.47419)
(8.97102 0 1.32193)
(8.48227 -7.52074e-23 1.19066)
(8.00347 -1.02028e-22 1.07887)
(7.53603 -3.79087e-23 0.984241)
(7.08075 3.73112e-23 0.904324)
(6.63787 0 0.83699)
(6.20726 0 0.780633)
(5.78722 -1.79565e-22 0.735207)
(5.38743 0 0.708428)
(4.8642 5.08521e-23 0.729509)
(11.3175 0 1.53978)
(10.9049 -3.94884e-22 1.41624)
(10.496 3.04814e-23 1.30997)
(10.0912 -4.31145e-23 1.21879)
(9.69042 1.29044e-23 1.1408)
(9.29316 3.5624e-22 1.07483)
(8.89837 1.72679e-22 1.02161)
(8.51224 0 0.987099)
(8.02696 0 0.980029)
(13.2638 3.77474e-22 1.70367)
(12.9322 -5.27426e-22 1.59101)
(12.5996 0 1.49349)
(12.2661 6.87042e-22 1.40966)
(11.9315 -3.42066e-22 1.33869)
(11.5954 0 1.28106)
(11.2634 -2.89888e-24 1.23921)
(10.846 2.8494e-24 1.21256)
(14.5795 0 1.7166)
(14.3223 -7.4566e-22 1.6307)
(14.0611 8.47997e-23 1.55786)
(13.7962 -4.35162e-22 1.498)
(13.5318 -1.53626e-22 1.45126)
(13.1942 0 1.41394)
(15.8783 0 1.79835)
(15.6918 0 1.72617)
(15.4998 1.02506e-21 1.66634)
(15.3053 4.13959e-22 1.61804)
(15.0508 -1.17184e-22 1.57718)
(16.747 -1.17808e-21 1.7853)
(16.619 -6.66012e-22 1.73853)
(16.445 1.13244e-22 1.69912)
(17.5337 3.63174e-22 1.81445)
(17.4335 1.41141e-22 1.77966)
(18.0875 -3.2631e-22 1.82117)
)
;

boundaryField
{
    inlet
    {
        type            fixedValue;
        value           nonuniform 0();
    }
    outlet
    {
        type            zeroGradient;
    }
    flap
    {
        type            movingWallVelocity;
        value           nonuniform 0();
    }
    upperWall
    {
        type            noSlip;
    }
    lowerWall
    {
        type            noSlip;
    }
    frontAndBack
    {
        type            empty;
    }
    procBoundary5to2
    {
        type            processor;
        value           nonuniform List<vector> 
34
(
(-2.01398 -3.1994e-22 0.38203)
(-2.15095 1.21387e-21 0.283147)
(-2.15095 1.21387e-21 0.283147)
(0.0425343 2.16517e-22 0.516147)
(-1.03775 -2.87322e-22 0.342855)
(-1.03775 -2.87322e-22 0.342855)
(2.55686 0 0.999486)
(2.55686 0 0.999486)
(5.78811 6.4774e-22 1.4604)
(5.072 -2.305e-22 1.23214)
(5.072 -2.305e-22 1.23214)
(7.98818 4.46296e-23 1.5823)
(7.37925 -1.23835e-22 1.38268)
(7.37925 -1.23835e-22 1.38268)
(9.97369 0 1.64797)
(9.97369 0 1.64797)
(12.1485 -1.54796e-22 1.84556)
(11.7326 7.10303e-22 1.6825)
(11.7326 7.10303e-22 1.6825)
(13.5936 -7.63276e-23 1.83312)
(13.5936 -7.63276e-23 1.83312)
(15.0806 -1.00388e-22 1.9306)
(14.8324 2.45328e-22 1.81622)
(14.8324 2.45328e-22 1.81622)
(16.0589 0 1.88328)
(16.0589 0 1.88328)
(16.9869 1.53398e-21 1.91226)
(16.8703 -3.07767e-22 1.8429)
(16.8703 -3.07767e-22 1.8429)
(17.6021 -5.06399e-22 1.85739)
(17.6021 -5.06399e-22 1.85739)
(18.1232 -5.10876e-22 1.84968)
(18.1232 -5.10876e-22 1.84968)
(18.4824 1.06764e-22 1.82773)
)
;
    }
    procBoundary5to4
    {
        type            processor;
        value           nonuniform List<vector> 
18
(
(0.901449 1.83836e-22 0.0126336)
(0.957651 6.37464e-23 0.0165106)
(0.79287 1.27596e-21 0.0139727)
(0.540412 -1.23762e-21 0.0157409)
(0.170403 0 0.043929)
(-0.270562 2.11595e-21 0.0855852)
(-0.651915 2.39973e-21 0.119548)
(-0.965487 -1.79465e-21 0.154586)
(-1.22733 -2.36894e-21 0.189815)
(-1.45454 -2.4337e-22 0.226315)
(-1.65872 -1.85703e-21 0.264495)
(-1.84539 -1.80961e-21 0.303838)
(-2.01418 9.69482e-22 0.343256)
(-2.15765 4.66863e-22 0.38153)
(-2.26111 7.04521e-23 0.416615)
(-2.26111 7.04521e-23 0.416615)
(-2.27111 0 0.461812)
(-2.20142 -6.39494e-22 0.513313)
)
;
    }
}


// ************************************************************************* //
