/*--------------------------------*- C++ -*----------------------------------*\
| =========                 |                                                 |
| \\      /  F ield         | OpenFOAM: The Open Source CFD Toolbox           |
|  \\    /   O peration     | Version:  dev                                   |
|   \\  /    A nd           | Web:      www.OpenFOAM.org                      |
|    \\/     M anipulation  |                                                 |
\*---------------------------------------------------------------------------*/
FoamFile
{
    version     2.0;
    format      ascii;
    class       surfaceVectorField;
    location    "3.39";
    object      Uf;
}
// * * * * * * * * * * * * * * * * * * * * * * * * * * * * * * * * * * * * * //

dimensions      [0 1 -1 0 0 0 0];

internalField   nonuniform List<vector> 
5457
(
(9.91611 -3.05191e-22 0.0243155)
(9.97533 -6.15354e-22 0.039347)
(9.81645 0 0.0321095)
(9.92894 2.53723e-21 0.0480329)
(9.69926 0 0.0386282)
(9.85086 6.59532e-22 0.0581029)
(9.56278 0 0.0452533)
(9.74999 1.2442e-23 0.0696101)
(9.40715 -7.30177e-22 0.0520438)
(9.63004 -3.46422e-21 0.0816392)
(9.23269 -7.10141e-22 0.0590578)
(9.49096 -2.1575e-24 0.0941105)
(9.03933 0 0.066445)
(9.33216 0 0.10726)
(8.8266 0 0.0743559)
(9.15321 0 0.121328)
(8.59379 -1.68733e-21 0.0829211)
(8.95361 0 0.136511)
(8.34001 -1.64164e-21 0.0922639)
(8.73262 -1.33165e-20 0.152987)
(8.0642 0 0.102508)
(8.48927 1.36656e-20 0.170933)
(7.76517 -7.65815e-21 0.113781)
(8.22244 0 0.190525)
(7.44163 4.24986e-22 0.126208)
(7.93087 -7.55507e-21 0.211929)
(7.09225 3.53058e-21 0.13991)
(7.61325 3.89583e-20 0.235291)
(6.71571 -4.02299e-21 0.154993)
(7.2682 -6.4628e-20 0.26072)
(6.3108 2.26859e-20 0.17154)
(6.89441 2.5027e-20 0.288267)
(5.87655 3.37881e-21 0.189586)
(6.49068 -5.2773e-20 0.317885)
(5.41238 -1.82224e-20 0.2091)
(6.05609 4.52094e-20 0.349392)
(4.91828 0 0.229946)
(5.59017 9.55949e-21 0.38241)
(4.3951 -4.33048e-20 0.251844)
(5.09308 0 0.416298)
(3.84482 -1.32173e-19 0.274316)
(4.56593 -4.27393e-20 0.450074)
(3.27092 -4.11633e-20 0.296607)
(4.01106 -2.12399e-21 0.482317)
(2.67883 4.54181e-20 0.317584)
(3.43247 2.33489e-20 0.511067)
(2.07635 1.26435e-20 0.335554)
(2.83624 2.35566e-20 0.5337)
(1.47432 1.17268e-19 0.347942)
(2.23114 -1.95991e-19 0.546767)
(0.887174 -4.57727e-21 0.350108)
(1.62912 3.06077e-19 0.545975)
(0.333319 5.00838e-21 0.299254)
(1.05327 -1.32833e-19 0.526106)
(-0.121845 -1.05678e-20 0.0363913)
(0.471451 1.09675e-19 0.439204)
(-0.263047 -1.10091e-19 -0.252928)
(0.0450461 -9.77647e-20 0.136723)
(0.0882177 -2.43739e-19 -0.263648)
(9.99736 2.27049e-21 0.0508556)
(10.0028 -3.08939e-22 0.0405863)
(9.95901 3.17298e-21 0.0698776)
(9.98225 1.25012e-24 0.06652)
(9.89787 6.6733e-22 0.0867232)
(9.93382 5.21715e-21 0.0884184)
(9.81573 -3.50103e-21 0.104262)
(9.86345 1.24424e-23 0.111508)
(9.71266 -2.68832e-21 0.122601)
(9.77358 4.17652e-21 0.13571)
(9.58879 7.07694e-22 0.14182)
(9.66423 -1.79218e-20 0.16094)
(9.44401 0 0.162227)
(9.53507 2.36996e-20 0.187577)
(9.27792 0 0.184152)
(9.38577 -2.14694e-20 0.216068)
(9.08985 -1.18111e-20 0.207886)
(9.21593 1.58209e-20 0.246805)
(8.87894 2.36548e-21 0.2337)
(9.02488 -8.36047e-21 0.280152)
(8.64416 1.34791e-20 0.261859)
(8.81175 1.36665e-20 0.31647)
(8.3843 0 0.292623)
(8.57552 -7.09758e-21 0.356123)
(8.09808 3.16135e-20 0.32623)
(8.31499 5.95107e-20 0.399459)
(7.78411 -3.05923e-20 0.362878)
(8.0289 -2.22521e-20 0.446791)
(7.441 -3.43613e-20 0.402695)
(7.71589 -6.05426e-20 0.49837)
(7.06742 -5.15156e-20 0.445696)
(7.3746 3.34078e-20 0.554332)
(6.66221 -9.69431e-21 0.491726)
(7.00373 -5.11375e-21 0.614639)
(6.22456 7.25154e-20 0.540387)
(6.60212 -1.73244e-20 0.678984)
(5.75414 9.43189e-21 0.590942)
(6.16896 -1.52312e-19 0.746684)
(5.25142 0 0.642205)
(5.70392 1.37042e-19 0.816537)
(4.71795 8.76809e-20 0.692403)
(5.2074 -2.05053e-20 0.886646)
(4.15674 6.25139e-20 0.739028)
(4.6809 6.51997e-20 0.954218)
(3.57276 1.48672e-21 0.778623)
(4.12732 1.79032e-19 1.01532)
(2.97358 -1.88009e-19 0.806467)
(3.55152 -2.07362e-19 1.06455)
(2.37036 -2.46056e-21 0.81588)
(2.96096 -6.18776e-19 1.09442)
(1.78032 1.73804e-19 0.796162)
(2.3663 5.74602e-19 1.09395)
(1.23361 -2.59198e-20 0.719695)
(1.78527 -4.12679e-19 1.04388)
(0.757275 1.39454e-20 0.539234)
(1.21897 4.23746e-19 0.896609)
(0.275492 -2.33246e-19 0.12226)
(0.716327 -4.09481e-19 0.600851)
(0.385172 6.5437e-19 0.0121066)
(9.98994 -2.57133e-21 0.0589206)
(10.0005 1.23457e-21 0.0453084)
(9.95481 2.11927e-21 0.0882658)
(9.97734 -3.16556e-21 0.0834514)
(9.89733 4.49447e-21 0.11602)
(9.92995 6.56584e-22 0.11692)
(9.8203 7.74844e-21 0.144968)
(9.86272 9.41462e-21 0.150801)
(9.72424 -1.13673e-20 0.175419)
(9.77694 6.31901e-21 0.186111)
(9.60921 5.65205e-21 0.207534)
(9.6727 -2.86025e-20 0.223)
(9.47517 1.60265e-21 0.241735)
(9.5499 3.55632e-20 0.26194)
(9.32185 -5.13185e-21 0.278505)
(9.40841 -3.6704e-20 0.303529)
(9.14874 1.89409e-20 0.318302)
(9.24795 9.49198e-21 0.348334)
(8.95513 3.24624e-21 0.361567)
(9.06805 6.11858e-24 0.396892)
(8.74016 -7.19474e-21 0.408745)
(8.86803 0 0.449737)
(8.50278 5.33231e-20 0.460274)
(8.64708 -5.69193e-20 0.507411)
(8.24185 4.53617e-21 0.516568)
(8.40424 1.17922e-19 0.570443)
(7.95609 -5.27198e-20 0.577985)
(8.13847 -6.11019e-20 0.639324)
(7.64416 8.46723e-21 0.644779)
(7.84862 0 0.714469)
(7.30472 7.92703e-20 0.717037)
(7.5335 -8.14515e-21 0.796155)
(6.93647 -1.29488e-20 0.794577)
(7.1919 2.26014e-19 0.884435)
(6.53825 -2.43993e-19 0.876833)
(6.82264 -2.05594e-19 0.97901)
(6.10924 -2.10588e-20 0.962689)
(6.42466 -1.61875e-19 1.07907)
(5.6491 1.1447e-19 1.05029)
(5.99717 3.13282e-19 1.18308)
(5.15826 -4.18818e-20 1.1368)
(5.53978 -1.41011e-19 1.28855)
(4.63827 1.83048e-19 1.21811)
(5.05273 3.59966e-19 1.39165)
(4.09218 -3.4095e-20 1.2885)
(4.5372 -1.47118e-19 1.48692)
(3.52515 -6.42917e-19 1.34007)
(3.99561 -2.07991e-19 1.5667)
(2.94506 -2.95299e-20 1.36172)
(3.43203 -7.1831e-21 1.62034)
(2.36311 -2.20701e-20 1.33688)
(2.85207 -4.34366e-19 1.63273)
(1.7919 4.74688e-20 1.23636)
(2.26379 1.71048e-20 1.58169)
(1.2307 -6.68165e-21 1.02312)
(1.66818 4.2364e-19 1.43086)
(0.66196 4.67493e-19 0.660513)
(1.05298 4.42005e-19 1.14472)
(0.586809 2.18104e-20 0.651556)
(9.9857 5.89913e-22 0.0703699)
(9.9993 1.23662e-21 0.0520163)
(9.95071 -4.57299e-21 0.111463)
(9.97432 6.32553e-22 0.10032)
(9.89429 5.70079e-21 0.150911)
(9.92686 -3.90162e-21 0.144908)
(9.81857 7.93752e-21 0.191148)
(9.8609 1.07539e-20 0.189429)
(9.72445 -1.14099e-20 0.232971)
(9.77698 -4.07815e-21 0.235501)
(9.6121 2.20147e-21 0.276828)
(9.67503 -7.11845e-21 0.283627)
(9.48156 -3.74669e-21 0.323315)
(9.55514 1.48029e-20 0.334381)
(9.33268 -2.14393e-20 0.373092)
(9.41732 -1.82734e-20 0.388472)
(9.16517 -9.57181e-21 0.426797)
(9.26141 -3.17462e-21 0.446604)
(8.97853 -3.2395e-21 0.485054)
(9.08706 3.23524e-21 0.509456)
(8.77217 -5.05041e-20 0.548487)
(8.8938 6.75887e-21 0.577705)
(8.54532 1.00512e-20 0.617718)
(8.68103 -1.06376e-19 0.652035)
(8.29716 4.98647e-20 0.693344)
(8.44804 5.77022e-20 0.733121)
(8.02674 -7.54557e-21 0.775904)
(8.19407 5.26021e-20 0.821601)
(7.73306 -1.67246e-20 0.865826)
(7.91827 -1.57115e-20 0.918038)
(7.41505 1.41761e-19 0.963346)
(7.61974 -1.64129e-20 1.02285)
(7.07161 2.77482e-20 1.06839)
(7.29754 1.38884e-19 1.13623)
(6.70167 -1.22896e-19 1.18042)
(6.95068 -1.06919e-19 1.25797)
(6.30423 1.78539e-19 1.29821)
(6.57812 0 1.38729)
(5.87847 5.20201e-20 1.41961)
(6.1789 4.85023e-19 1.52259)
(5.4239 2.67296e-19 1.54121)
(5.75208 -4.57673e-19 1.66114)
(4.94053 2.40045e-20 1.65793)
(5.29685 2.71776e-20 1.79865)
(4.42914 -3.21379e-19 1.76255)
(4.81269 3.6568e-20 1.92881)
(3.89147 4.30169e-19 1.84513)
(4.29942 2.28281e-20 2.0428)
(3.33017 -4.1713e-19 1.89208)
(3.75722 4.02905e-19 2.12857)
(2.74806 -3.90191e-19 1.88483)
(3.18625 -7.58698e-19 2.17005)
(2.14529 3.998e-19 1.79696)
(2.58612 -3.44324e-19 2.14648)
(1.51237 8.71616e-19 1.60088)
(1.95397 -4.30272e-21 2.02993)
(0.822965 1.5747e-20 1.26591)
(1.25449 8.60821e-19 1.80082)
(0.658334 1.57022e-20 1.4062)
(9.98371 1.28009e-21 0.0826111)
(9.99875 -1.22502e-21 0.0596579)
(9.94842 1.24298e-21 0.134028)
(9.9729 2.51701e-21 0.117339)
(9.89299 1.35766e-21 0.183958)
(9.92557 0 0.172407)
(9.81873 -1.4748e-21 0.234574)
(9.86096 9.37246e-21 0.227323)
(9.72656 1.66735e-22 0.287064)
(9.77907 -1.37267e-20 0.283877)
(9.61675 5.78654e-21 0.342139)
(9.67965 -2.27853e-20 0.3429)
(9.48934 -1.82723e-22 0.400518)
(9.56282 4.69307e-20 0.405102)
(9.34425 1.99681e-22 0.462962)
(9.42869 -2.41606e-20 0.471284)
(9.18124 9.72141e-21 0.530224)
(9.27714 -3.10603e-21 0.542261)
(8.99996 1.32829e-20 0.603041)
(9.1079 6.49694e-21 0.61883)
(8.79994 -5.06467e-20 0.682155)
(8.9206 -5.41156e-20 0.701785)
(8.58063 -5.65076e-20 0.768303)
(8.71476 -1.04093e-21 0.791924)
(8.3414 6.03616e-20 0.862201)
(8.48983 -7.11967e-22 0.890033)
(8.08155 4.35265e-20 0.964508)
(8.24521 6.02685e-20 0.996865)
(7.80035 -1.54167e-20 1.07578)
(7.98026 -7.10022e-23 1.1131)
(7.49702 -1.72268e-20 1.19639)
(7.69429 -9.79853e-20 1.23927)
(7.1707 1.04335e-21 1.32638)
(7.38654 1.16729e-19 1.37572)
(6.82048 1.74323e-20 1.46533)
(7.0562 -2.81525e-19 1.52237)
(6.44537 3.12895e-19 1.6121)
(6.70228 2.88888e-19 1.67857)
(6.04431 -3.63123e-20 1.76453)
(6.32371 3.0893e-19 1.84287)
(5.61614 -6.91712e-19 1.91907)
(5.91921 -2.98246e-19 2.01264)
(5.15961 4.00012e-20 2.07032)
(5.48717 -6.41279e-19 2.18361)
(4.67343 3.80772e-19 2.21053)
(5.02565 6.79174e-19 2.34942)
(4.15615 0 2.3291)
(4.53222 -7.4739e-19 2.50111)
(3.60584 4.8694e-20 2.41195)
(4.00389 3.88354e-20 2.62668)
(3.01925 -7.0807e-19 2.44125)
(3.43667 7.50593e-19 2.71072)
(2.39014 -7.45933e-19 2.39472)
(2.8248 -7.96625e-19 2.73459)
(1.70669 -3.86503e-21 2.25209)
(2.16395 -5.44255e-20 2.67544)
(0.948583 8.57578e-19 1.98488)
(1.40933 -3.00211e-20 2.52111)
(0.72491 9.16301e-19 2.21615)
(9.98286 4.94634e-23 0.0951633)
(9.99857 -5.1569e-24 0.0677014)
(9.94753 1.23857e-21 0.156278)
(9.97246 2.50319e-24 0.134377)
(9.8933 8.14682e-21 0.21635)
(9.92568 0 0.199318)
(9.82092 -3.21123e-21 0.27725)
(9.86269 2.68942e-21 0.264271)
(9.73118 -3.68061e-20 0.34032)
(9.78321 5.44971e-21 0.330996)
(9.62439 1.93268e-20 0.406447)
(9.6868 -5.75878e-21 0.400561)
(9.50062 2.19736e-20 0.476454)
(9.57357 2.07186e-20 0.473826)
(9.3598 -2.71814e-20 0.551194)
(9.44369 -2.11236e-20 0.551683)
(9.20176 -6.19998e-21 0.631519)
(9.29709 -6.2391e-21 0.635041)
(9.02621 -6.17252e-20 0.71828)
(9.13355 -4.93755e-23 0.724801)
(8.83275 -3.78933e-21 0.812325)
(8.95276 -6.08875e-20 0.82186)
(8.62092 5.47774e-20 0.914499)
(8.7543 6.93394e-20 0.927117)
(8.39021 0 1.02562)
(8.5377 1.1548e-19 1.04146)
(8.14004 1.58518e-20 1.14646)
(8.30245 -1.18367e-19 1.16573)
(7.86983 -8.3958e-20 1.27769)
(8.04799 1.56468e-20 1.3007)
(7.57891 3.87424e-20 1.41979)
(7.77369 -1.30134e-19 1.44705)
(7.26657 -1.711e-19 1.57298)
(7.4789 1.5042e-19 1.60522)
(6.93193 -2.85007e-21 1.73698)
(7.16284 -2.18794e-20 1.77535)
(6.57396 2.8522e-19 1.91085)
(6.82445 4.02521e-20 1.95697)
(6.19139 3.95189e-20 2.09265)
(6.46251 0 2.14892)
(5.78254 -2.52041e-19 2.27908)
(6.07543 -3.09048e-19 2.34892)
(5.34516 1.36504e-20 2.46499)
(5.66093 -6.44358e-19 2.55315)
(4.87629 -4.666e-19 2.64287)
(5.21595 2.93746e-19 2.75581)
(4.37207 -6.99915e-19 2.80249)
(4.73634 -7.47283e-19 2.94856)
(3.8274 7.48477e-19 2.93052)
(4.21678 -7.18003e-19 3.12021)
(3.23548 6.45661e-19 3.01064)
(3.65064 1.48021e-18 3.25662)
(2.58722 -9.90069e-20 3.02346)
(3.029 -9.6056e-20 3.34083)
(1.87131 -7.60555e-20 2.95181)
(2.34787 -8.38792e-19 3.35206)
(1.07432 1.79279e-21 2.76515)
(1.55921 -2.98322e-20 3.27881)
(0.803521 8.52418e-19 3.05893)
(9.98264 -6.52739e-23 0.107776)
(9.9986 1.21902e-21 0.0758476)
(9.9477 -1.23624e-21 0.178149)
(9.97269 -5.01371e-21 0.151232)
(9.89491 -5.42053e-21 0.24793)
(9.92684 -7.74531e-21 0.225521)
(9.82476 1.13898e-20 0.318746)
(9.86578 2.5827e-21 0.300092)
(9.73789 3.63455e-20 0.392002)
(9.78908 1.36883e-20 0.376622)
(9.63464 -4.00119e-21 0.468739)
(9.69612 2.55079e-20 0.456336)
(9.51509 -2.29615e-20 0.549897)
(9.58704 -2.32814e-20 0.540232)
(9.37922 2.31039e-23 0.636427)
(9.46203 4.82029e-20 0.629295)
(9.22687 -3.81424e-24 0.729279)
(9.32107 -4.31731e-20 0.724523)
(9.05781 -2.56013e-23 0.829401)
(9.164 -6.45229e-21 0.826907)
(8.8717 1.3997e-20 0.937744)
(8.99053 0 0.937444)
(8.66813 1.30663e-19 1.05525)
(8.8003 4.58052e-23 1.05713)
(8.44662 -5.96764e-21 1.18282)
(8.59289 2.29877e-19 1.18695)
(8.20667 -1.16828e-19 1.32134)
(8.3678 -3.54031e-19 1.32784)
(7.94769 -3.24404e-20 1.47157)
(8.12451 2.44083e-19 1.48069)
(7.66907 -1.48416e-20 1.63413)
(7.86239 -1.2614e-19 1.64627)
(7.37008 2.97464e-19 1.80941)
(7.58076 2.63603e-19 1.82521)
(7.04978 2.20923e-20 1.99736)
(7.27883 -2.6521e-19 2.01785)
(6.70698 -2.45695e-19 2.1973)
(6.95538 -4.71999e-21 2.22405)
(6.34011 -3.52598e-19 2.40772)
(6.60891 0 2.44297)
(5.94703 -7.06003e-19 2.62585)
(6.23746 -4.53953e-20 2.67292)
(5.52464 -3.53047e-19 2.84725)
(5.83812 -8.578e-21 2.91086)
(5.06875 5.31343e-22 3.06525)
(5.40696 6.48361e-19 3.15194)
(4.5737 -7.6548e-19 3.27057)
(4.93859 -6.2215e-19 3.38899)
(4.03234 3.75974e-20 3.45112)
(4.42591 -7.57315e-19 3.612)
(3.43589 7.21692e-19 3.59196)
(3.86049 7.77955e-19 3.8081)
(2.77398 -8.43146e-19 3.67503)
(3.2314 7.40633e-19 3.96152)
(2.03607 -7.83367e-19 3.68255)
(2.53517 -7.36298e-19 4.05148)
(1.21332 8.18482e-19 3.57884)
(1.72456 -7.92305e-19 4.06285)
(0.900997 8.24507e-19 3.92707)
(9.98281 -3.81403e-21 0.120242)
(9.99878 -1.221e-21 0.0839119)
(9.94865 -1.15761e-20 0.19948)
(9.97338 -3.76022e-21 0.167719)
(9.89757 4.1084e-22 0.278512)
(9.92881 5.10226e-21 0.250882)
(9.82999 5.04634e-21 0.358824)
(9.87 -2.61241e-21 0.334619)
(9.74641 3.01184e-21 0.441851)
(9.79642 -2.73471e-21 0.420536)
(9.64719 5.55362e-21 0.528759)
(9.70735 2.53122e-20 0.509958)
(9.53244 4.88635e-20 0.620598)
(9.60293 -6.94597e-20 0.604005)
(9.40216 3.76306e-21 0.718409)
(9.48338 9.57747e-20 0.703753)
(9.25623 -4.91329e-20 0.823227)
(9.34874 -9.8846e-20 0.810281)
(9.09448 -6.34019e-21 0.936094)
(9.19888 4.42832e-20 0.924665)
(8.91659 -1.39507e-20 1.05806)
(9.03356 0 1.048)
(8.7222 1.02303e-19 1.19015)
(8.85246 -1.23161e-19 1.18138)
(8.51086 -1.25854e-19 1.3334)
(8.65518 2.26426e-19 1.32589)
(8.28206 1.46887e-20 1.48875)
(8.44123 -1.18636e-19 1.48257)
(8.03525 1.45668e-19 1.65711)
(8.21015 1.24328e-19 1.65242)
(7.76974 1.57373e-19 1.83925)
(7.96131 -3.6049e-19 1.83637)
(7.48476 -3.05809e-19 2.03575)
(7.69393 5.03759e-19 2.03519)
(7.17928 -2.88887e-19 2.24687)
(7.40709 -5.43172e-19 2.24953)
(6.85182 2.41255e-19 2.47233)
(7.09948 2.78671e-19 2.47965)
(6.50042 3.06806e-19 2.71112)
(6.76925 0 2.72521)
(6.12242 6.52956e-19 2.96127)
(6.41391 -2.88746e-19 2.98521)
(5.71404 1.00142e-18 3.21934)
(6.03008 -2.94693e-19 3.2576)
(5.27011 1.08168e-20 3.47996)
(5.61301 6.48914e-19 3.53882)
(4.78367 -6.15544e-19 3.73519)
(5.15637 -6.23156e-19 3.82323)
(4.24598 0 3.9742)
(4.65166 -4.14352e-20 4.10234)
(3.64679 7.96657e-19 4.1832)
(4.08877 -4.27548e-20 4.36447)
(2.97478 8.36367e-19 4.34432)
(3.45487 7.88131e-19 4.59458)
(2.2193 -7.44429e-19 4.43681)
(2.74594 6.73424e-21 4.77093)
(1.37381 -7.76125e-19 4.41756)
(1.91866 -7.88268e-19 4.87171)
(1.02216 2.45905e-20 4.82253)
(9.98325 -1.20132e-21 0.132406)
(9.99905 -2.42757e-21 0.0917709)
(9.95019 1.30305e-20 0.22012)
(9.97441 -1.11946e-20 0.183679)
(9.90111 1.97136e-21 0.307945)
(9.93143 2.30586e-20 0.275265)
(9.83639 -1.03964e-20 0.397302)
(9.87517 1.05321e-20 0.367691)
(9.75651 1.9954e-20 0.489649)
(9.80504 -2.16072e-20 0.462532)
(9.66178 -5.10033e-20 0.586246)
(9.72027 -2.68652e-21 0.561178)
(9.55236 -2.03071e-20 0.688244)
(9.62098 -4.65459e-20 0.66485)
(9.42827 -9.46844e-21 0.796763)
(9.50744 5.34868e-20 0.774713)
(9.28946 -3.50616e-21 0.912921)
(9.37973 -4.95192e-20 0.891915)
(9.13578 5.00433e-20 1.03785)
(9.23778 5.07231e-20 1.01762)
(8.96696 -1.1085e-19 1.17269)
(9.08138 -1.30023e-20 1.153)
(8.78267 5.51627e-21 1.31859)
(8.91024 -1.09428e-19 1.29929)
(8.58246 2.29216e-19 1.47666)
(8.724 2.23966e-19 1.45765)
(8.3659 -5.80494e-21 1.64797)
(8.52225 -1.13014e-19 1.62921)
(8.13244 -3.8816e-19 1.83354)
(8.30457 -1.61445e-21 1.81507)
(7.88139 -3.2559e-21 2.03435)
(8.07036 -2.66466e-19 2.01637)
(7.61181 2.53418e-19 2.25122)
(7.81874 4.80099e-19 2.23414)
(7.32252 3.47052e-20 2.4848)
(7.54861 -2.60655e-19 2.46933)
(7.01183 3.3858e-20 2.73531)
(7.25855 2.71799e-19 2.72267)
(6.67737 -5.99358e-19 3.00242)
(6.94645 -2.77542e-19 2.99449)
(6.31593 -1.23743e-18 3.28506)
(6.60939 -5.92432e-19 3.28461)
(5.92312 -6.36628e-19 3.58106)
(6.24349 -5.01934e-20 3.59214)
(5.49293 0 3.8866)
(5.8433 -5.6995e-19 3.91501)
(5.01736 -4.19375e-20 4.19554)
(5.40158 0 4.24947)
(4.48615 -8.42344e-20 4.49852)
(4.90865 -6.48941e-19 4.58909)
(3.8873 -4.2288e-20 4.78262)
(4.35248 6.63588e-19 4.92363)
(3.20788 -4.60532e-20 5.0297)
(3.71763 0 5.23858)
(2.43552 -4.51001e-20 5.21458)
(2.99716 -9.18944e-22 5.51106)
(1.56379 2.49814e-20 5.28454)
(2.1538 1.4601e-18 5.71008)
(1.1727 -1.52732e-18 5.75442)
(9.98388 -1.25403e-20 0.144143)
(9.99939 1.20413e-21 0.0993367)
(9.95219 -7.14646e-22 0.239933)
(9.9757 -9.95631e-21 0.198983)
(9.90536 3.14387e-20 0.336084)
(9.93457 1.57606e-23 0.298536)
(9.84382 -1.14414e-21 0.434003)
(9.88114 2.89187e-20 0.399159)
(9.76798 -4.39921e-20 0.535175)
(9.81477 -2.16106e-20 0.502422)
(9.67817 1.17341e-21 0.640935)
(9.73466 -2.23748e-20 0.609767)
(9.57457 2.86133e-20 0.752519)
(9.64093 6.30844e-20 0.722498)
(9.45724 1.20511e-20 0.871122)
(9.5339 -4.69589e-20 0.841856)
(9.32617 6.05172e-21 0.997936)
(9.41369 5.48966e-20 0.969058)
(9.18125 -1.31757e-20 1.13418)
(9.28027 -9.39901e-20 1.10534)
(9.02227 -1.28342e-20 1.28111)
(9.13347 -5.23672e-20 1.25198)
(8.84891 1.13371e-19 1.43996)
(8.97305 9.29663e-20 1.41032)
(8.66083 -1.2264e-19 1.61191)
(8.79875 1.25646e-19 1.58157)
(8.45767 -1.07461e-19 1.79815)
(8.61031 -2.16109e-19 1.76695)
(8.23891 1.16845e-19 1.99988)
(8.4073 1.18367e-19 1.9677)
(8.00382 2.26237e-19 2.21832)
(8.1891 1.50269e-20 2.18522)
(7.75136 -4.31099e-20 2.4546)
(7.95484 4.53392e-21 2.42082)
(7.48017 -1.70657e-20 2.70978)
(7.70332 2.682e-20 2.67581)
(7.18841 -4.60635e-20 2.98469)
(7.43302 -2.78265e-20 2.95143)
(6.87344 -2.74364e-19 3.27982)
(7.14171 -2.79783e-19 3.24876)
(6.53165 6.01672e-19 3.59518)
(6.82621 2.44226e-19 3.56863)
(6.15805 1.13027e-20 3.93003)
(6.48226 5.59411e-19 3.91145)
(5.74586 -5.63653e-19 4.28242)
(6.10384 -1.19957e-18 4.27694)
(5.28603 -6.14751e-19 4.64841)
(5.68285 6.04375e-19 4.66358)
(4.76671 1.13472e-19 5.02079)
(5.20834 -6.08067e-19 5.06763)
(4.17342 6.98641e-19 5.38784)
(4.66608 7.46262e-19 5.48127)
(3.48999 4.53283e-20 5.73121)
(4.03685 0 5.89123)
(2.6997 1.51998e-18 6.02064)
(3.30706 4.48307e-20 6.27409)
(1.79271 -1.86122e-19 6.19089)
(2.44513 1.45951e-18 6.58809)
(1.36116 -1.5287e-18 6.74114)
(9.98465 3.6381e-21 0.155356)
(9.99979 4.82099e-21 0.106543)
(9.95455 -9.11661e-21 0.258796)
(9.97719 -4.9174e-21 0.213523)
(9.91023 -2.09607e-21 0.362791)
(9.93813 -1.01959e-20 0.320574)
(9.85213 7.73195e-21 0.468764)
(9.88778 1.305e-20 0.428883)
(9.78066 0 0.578231)
(9.82546 -2.14809e-20 0.540037)
(9.69615 4.07033e-20 0.692588)
(9.75033 2.20091e-20 0.65552)
(9.59881 -1.39719e-20 0.813143)
(9.66255 2.98708e-22 0.776704)
(9.48874 -2.75516e-21 0.941161)
(9.56247 -1.20655e-20 0.904898)
(9.36596 -4.71167e-20 1.0779)
(9.45026 4.87749e-20 1.04138)
(9.23042 -1.32665e-19 1.22467)
(9.32592 -9.40579e-20 1.18746)
(9.08195 5.53102e-20 1.38282)
(9.1893 -3.93763e-20 1.34452)
(8.92034 1.0567e-19 1.55365)
(9.04031 1.19387e-19 1.51395)
(8.7454 2.78516e-20 1.73842)
(8.87888 -1.2271e-19 1.697)
(8.55682 1.39608e-20 1.93844)
(8.7048 -8.27802e-22 1.89499)
(8.35408 1.52181e-20 2.15513)
(8.5176 1.15027e-19 2.10941)
(8.13642 -2.06911e-19 2.38997)
(8.31674 1.48595e-20 2.34185)
(7.90284 7.46565e-20 2.64445)
(8.10142 -2.1914e-19 2.59393)
(7.65193 1.55227e-20 2.92006)
(7.87051 5.08704e-19 2.86733)
(7.38179 -2.64749e-19 3.21831)
(7.62247 -2.64074e-19 3.16385)
(7.08966 2.44964e-19 3.54061)
(7.35508 -2.66611e-19 3.48537)
(6.77171 2.05542e-19 3.88821)
(7.06518 8.24222e-19 3.83382)
(6.42258 -6.71663e-19 4.26206)
(6.74834 5.21258e-19 4.21113)
(6.03486 -1.13292e-20 4.66238)
(6.39829 -6.64876e-19 4.61908)
(5.59844 5.97902e-19 5.08804)
(6.0063 2.27381e-20 5.05886)
(5.09966 3.96642e-20 5.53498)
(5.56019 1.18772e-18 5.53028)
(4.52068 3.87662e-20 5.99417)
(5.04329 -6.05542e-19 6.02963)
(3.83971 0 6.44844)
(4.43143 0 6.54714)
(3.03131 0 6.86304)
(3.69953 1.25802e-18 7.06155)
(2.07477 2.23439e-20 7.15731)
(2.81674 -1.29734e-18 7.52148)
(1.60381 2.12217e-20 7.81885)
(9.98552 -3.83161e-21 0.165969)
(10.0002 3.60643e-21 0.113339)
(9.9572 -6.07102e-21 0.276605)
(9.97884 -4.92895e-21 0.227212)
(9.9156 5.28175e-21 0.387944)
(9.94204 1.00988e-20 0.341272)
(9.86119 -1.66423e-20 0.50144)
(9.89499 -2.85049e-20 0.456739)
(9.79438 1.12845e-21 0.61864)
(9.83696 -2.05622e-22 0.575226)
(9.7155 -1.86946e-20 0.740993)
(9.76711 6.59698e-20 0.698255)
(9.6248 2.03368e-21 0.869868)
(9.6856 -8.48882e-20 0.827254)
(9.52242 4.02827e-20 1.00659)
(9.59284 4.08632e-20 0.963588)
(9.40843 -4.03914e-23 1.15249)
(9.48905 4.79661e-20 1.1086)
(9.2828 -3.93491e-23 1.30895)
(9.37425 -5.52939e-20 1.26366)
(9.14547 2.67285e-20 1.47737)
(9.24836 0 1.43022)
(8.99642 -1.12132e-19 1.6591)
(9.11152 1.32895e-20 1.60965)
(8.83555 -1.49931e-19 1.85549)
(8.9638 -2.44174e-19 1.8033)
(8.66258 1.01642e-19 2.06802)
(8.80491 9.52114e-20 2.01265)
(8.47702 1.13473e-19 2.29832)
(8.63454 1.15086e-19 2.23937)
(8.27822 -1.68285e-22 2.54812)
(8.45225 -1.48756e-20 2.48524)
(8.06531 2.23563e-19 2.81925)
(8.25742 2.40849e-19 2.75214)
(7.83697 2.20258e-19 3.11369)
(8.04906 -3.99683e-20 3.04215)
(7.59138 -2.65862e-19 3.43362)
(7.82582 -2.51459e-19 3.35763)
(7.32589 3.24836e-19 3.78143)
(7.58569 -2.28567e-20 3.70126)
(7.03673 1.13754e-18 4.15974)
(7.32578 3.49567e-20 4.0761)
(6.71852 5.15446e-19 4.57138)
(7.04192 5.92099e-19 4.48569)
(6.36365 -6.23768e-19 5.01919)
(6.72809 -5.3244e-19 4.93412)
(5.96126 6.24174e-19 5.50557)
(6.37558 -6.00096e-19 5.42586)
(5.49595 5.23871e-19 6.03117)
(5.9716 1.18905e-18 5.96533)
(4.94584 -6.37826e-19 6.59236)
(5.49748 -6.28036e-19 6.55534)
(4.28097 1.27355e-18 7.17719)
(4.92381 0 7.19396)
(3.46053 -6.23233e-20 7.75111)
(4.20949 1.02461e-19 7.86917)
(2.43842 -1.27556e-18 8.21885)
(3.31338 -1.05834e-19 8.52897)
(1.93654 -1.9743e-20 9.05189)
(9.98649 2.42897e-21 0.175919)
(10.0007 1.19928e-21 0.119683)
(9.96009 1.14541e-20 0.293271)
(9.98063 -7.94019e-21 0.239977)
(9.92139 -2.42345e-20 0.411436)
(9.94624 2.01249e-20 0.360538)
(9.87088 -1.16589e-20 0.531901)
(9.90268 -3.37196e-20 0.482618)
(9.80897 6.55507e-20 0.656247)
(9.84915 2.12826e-20 0.60786)
(9.73602 -2.25517e-21 0.785965)
(9.78481 4.39649e-20 0.737818)
(9.65228 -4.43861e-20 0.922477)
(9.70985 -4.50253e-20 0.873965)
(9.55796 4.86386e-20 1.06717)
(9.62473 5.81266e-21 1.01772)
(9.45315 -8.6256e-21 1.22142)
(9.52971 9.55292e-20 1.17047)
(9.33791 -5.45463e-20 1.38666)
(9.42484 -1.09982e-19 1.33365)
(9.21235 -1.327e-20 1.56431)
(9.31021 -6.24607e-21 1.50869)
(9.07657 -1.22029e-19 1.75577)
(9.18616 8.39869e-20 1.69698)
(8.93053 5.13606e-21 1.9625)
(9.05274 -9.37783e-20 1.89999)
(8.774 1.08854e-19 2.18615)
(8.90974 1.5463e-21 2.11935)
(8.60667 -1.48811e-20 2.42854)
(8.75705 -1.12264e-19 2.35685)
(8.42807 2.29268e-19 2.69161)
(8.59444 -1.30485e-19 2.61442)
(8.23751 -2.5794e-20 2.97749)
(8.42147 4.75928e-19 2.89419)
(8.03394 -5.14201e-19 3.28862)
(8.23746 -1.93289e-20 3.19859)
(7.81581 -5.88443e-21 3.62786)
(8.0414 -7.4631e-19 3.53048)
(7.58085 -3.12186e-19 3.99854)
(7.83172 7.61226e-19 3.89327)
(7.32575 -5.05501e-19 4.40464)
(7.60615 -7.85819e-19 4.29106)
(7.04566 -4.67448e-19 4.851)
(7.3613 5.54891e-19 4.72898)
(6.73345 -5.09658e-19 5.34337)
(7.09214 -5.33235e-19 5.21342)
(6.37851 -1.69891e-20 5.88849)
(6.79111 -5.18623e-19 5.75245)
(5.96473 1.76714e-20 6.49353)
(6.44651 -8.20942e-21 6.35609)
(5.46702 1.72951e-20 7.16441)
(6.03984 2.5211e-22 7.03628)
(4.84606 -1.17073e-18 7.90262)
(5.53945 5.3418e-19 7.80545)
(4.03816 5.9597e-20 8.68852)
(4.88849 -1.67766e-18 8.67489)
(2.94634 1.15173e-18 9.43218)
(4.02323 1.19139e-18 9.62033)
(2.44331 -1.96378e-20 10.5554)
(9.98752 -9.2945e-21 0.185153)
(10.0012 0 0.125543)
(9.96317 1.09205e-21 0.308718)
(9.98252 -9.7801e-21 0.251759)
(9.92753 9.88562e-21 0.433173)
(9.95066 1.0026e-20 0.378296)
(9.88109 0 0.560037)
(9.91074 0 0.506429)
(9.82429 0 0.690922)
(9.86189 -2.11041e-20 0.63783)
(9.75748 0 0.827355)
(9.80325 -2.17716e-20 0.774082)
(9.68098 5.8561e-21 0.9708)
(9.73507 8.62319e-20 0.916691)
(9.595 5.38854e-20 1.12269)
(9.65782 5.98931e-21 1.06711)
(9.49973 -8.47961e-21 1.28445)
(9.57185 -4.06074e-20 1.22679)
(9.39533 -6.03449e-20 1.4575)
(9.47726 -4.89125e-20 1.39716)
(9.28205 9.21765e-20 1.64328)
(9.37435 4.95016e-20 1.57961)
(9.16007 1.10092e-19 1.84323)
(9.26353 1.09875e-19 1.77559)
(9.02943 -9.61864e-20 2.05898)
(9.14486 1.39743e-20 1.98668)
(8.89006 -2.21046e-19 2.29228)
(9.01831 -1.08734e-19 2.2146)
(8.74185 -2.28238e-19 2.54505)
(8.884 -9.8629e-20 2.46122)
(8.58458 1.23097e-19 2.81941)
(8.74193 -1.15839e-19 2.72857)
(8.41786 4.76977e-19 3.11777)
(8.59196 1.81177e-20 3.01898)
(8.241 -2.59281e-19 3.44296)
(8.43378 4.92465e-19 3.33514)
(8.05297 3.69034e-20 3.79839)
(8.26688 -2.37744e-19 3.68031)
(7.85215 2.71346e-19 4.1882)
(8.09039 2.74521e-19 4.05844)
(7.63616 2.88343e-19 4.6176)
(7.90299 -2.32547e-19 4.47447)
(7.40135 4.80714e-19 5.09323)
(7.70262 5.28374e-19 4.93478)
(7.1422 -5.39999e-19 5.62375)
(7.48613 -1.9337e-20 5.44773)
(6.85004 -5.04969e-19 6.22051)
(7.24864 -1.02299e-18 6.02461)
(6.51079 -2.54717e-20 6.89853)
(6.98226 1.05118e-20 6.68101)
(6.10032 5.22945e-19 7.67755)
(6.67371 4.90835e-19 7.43907)
(5.57503 2.11033e-21 8.58471)
(6.2989 3.48841e-20 8.33129)
(4.84915 -5.13503e-19 9.64926)
(5.80327 -5.17843e-20 9.41165)
(3.74358 0 10.8873)
(5.12523 -4.3371e-19 10.7504)
(3.31984 3.96866e-19 12.5458)
(9.98861 -6.17139e-22 0.193631)
(10.0017 -4.32211e-21 0.130892)
(9.9664 -6.00323e-22 0.322887)
(9.9845 3.94749e-21 0.262512)
(9.93394 0 0.453079)
(9.95526 0 0.394485)
(9.89172 -2.13958e-20 0.585751)
(9.91911 -1.98991e-20 0.528099)
(9.84019 -4.28865e-20 0.722544)
(9.87509 -1.73791e-21 0.665052)
(9.77971 6.59055e-20 0.865011)
(9.82233 -6.29131e-20 0.80695)
(9.71064 8.53222e-20 1.01465)
(9.76111 1.32176e-19 0.955321)
(9.63324 -8.91156e-20 1.17292)
(9.69197 2.13375e-22 1.11165)
(9.54779 -8.11659e-20 1.34127)
(9.61531 -9.2635e-20 1.2774)
(9.45458 6.21937e-20 1.5211)
(9.53137 -8.4758e-20 1.45397)
(9.35395 6.7963e-20 1.71385)
(9.44058 5.06218e-20 1.64275)
(9.24615 1.25917e-20 1.92106)
(9.34337 1.02111e-19 1.84524)
(9.13133 0 2.14441)
(9.23987 0 2.06309)
(9.00965 1.38568e-20 2.38574)
(9.13032 0 2.29806)
(8.88123 1.35288e-20 2.64702)
(9.01505 7.41202e-21 2.55202)
(8.74616 -2.19538e-19 2.93048)
(8.89433 -6.50804e-21 2.82709)
(8.6044 3.85959e-20 3.23874)
(8.76836 -2.34644e-19 3.12569)
(8.45577 5.06278e-19 3.57489)
(8.63731 2.55339e-19 3.45069)
(8.29991 5.6635e-21 3.9427)
(8.50129 2.46501e-19 3.80552)
(8.13617 -2.34579e-19 4.34688)
(8.36031 -2.49651e-19 4.19445)
(7.96347 1.54477e-20 4.79348)
(8.21427 5.96196e-22 4.62288)
(7.7801 2.39492e-20 5.29046)
(8.06291 1.48883e-21 5.09785)
(7.58336 -5.10508e-19 5.84861)
(7.90575 1.64076e-20 5.62881)
(7.36881 -5.01167e-19 6.48301)
(7.74207 -5.38214e-19 6.22886)
(7.12885 5.2564e-19 7.21556)
(7.57086 5.12422e-21 6.9169)
(6.84932 -1.45437e-21 8.07999)
(7.39073 5.17743e-19 7.72176)
(6.50101 -3.24882e-20 9.13501)
(7.20192 -4.94257e-19 8.69136)
(6.01373 2.33395e-20 10.4983)
(7.00457 2.98195e-19 9.92163)
(5.18043 1.89688e-19 12.6976)
(7.03617 -3.83845e-19 11.6388)
(6.2389 5.56275e-19 15.453)
(0.177293 -1.85879e-21 -0.0954026)
(0.0971747 -5.1136e-21 -0.168422)
(0.375271 -6.54121e-24 -0.101471)
(0.285322 3.2252e-21 -0.182927)
(0.551666 0 -0.0857089)
(0.463877 -1.49971e-22 -0.157258)
(0.6923 0 -0.0637736)
(0.620078 -5.51029e-21 -0.121434)
(0.794819 -1.12263e-21 -0.0422242)
(0.742921 2.54879e-21 -0.0860143)
(0.86144 -1.8812e-23 -0.0234564)
(0.83054 -1.08966e-21 -0.0544534)
(0.896691 1.08753e-21 -0.00831179)
(0.886182 3.05565e-21 -0.0281209)
(0.90648 5.33779e-23 0.00284305)
(0.915318 -1.22645e-22 -0.00760621)
(0.89771 4.40243e-22 0.00999292)
(0.924148 -1.67838e-21 0.00676789)
(0.877106 7.73495e-22 0.0136349)
(0.91749 3.8963e-22 0.0155311)
(0.850177 3.39041e-22 0.0145098)
(0.901239 2.9188e-22 0.0199082)
(0.821579 0 0.0133822)
(0.880213 8.43945e-22 0.0207516)
(0.79494 -1.45105e-22 0.0110364)
(0.858145 -8.19575e-22 0.0189789)
(0.772556 5.70087e-23 0.00826232)
(0.83775 -1.46509e-22 0.0156615)
(0.755145 2.1574e-22 0.00577249)
(0.820467 4.16901e-22 0.0119644)
(0.741841 0 0.00403634)
(0.806223 -5.20857e-22 0.00898006)
(0.730794 8.20369e-23 0.00310048)
(0.793603 3.6955e-22 0.00732126)
(0.720431 9.9871e-24 0.00257862)
(0.78076 1.12006e-22 0.00673912)
(0.71067 -3.44286e-23 0.00190447)
(0.766779 -1.06875e-22 0.00622752)
(0.703177 5.35753e-23 0.000673351)
(0.752592 4.65287e-23 0.00469079)
(0.700474 -2.06105e-23 -0.00115612)
(0.740748 2.05301e-23 0.00166634)
(0.70447 -2.09981e-23 -0.00330304)
(0.734161 5.577e-23 -0.00239208)
(0.715399 -8.24319e-24 -0.00550043)
(0.733811 -7.50452e-23 -0.00643369)
(0.732685 -2.25393e-23 -0.00781187)
(0.738856 4.13218e-24 -0.00998881)
(0.75661 -3.00502e-24 -0.0105294)
(0.748508 -1.34296e-23 -0.0135672)
(0.788568 7.9e-24 -0.0138514)
(0.762217 1.12016e-23 -0.0177848)
(0.830518 -5.04615e-24 -0.0176726)
(0.781059 -4.99738e-24 -0.0229115)
(0.884546 8.8455e-24 -0.0215363)
(0.808743 2.6778e-23 -0.0289609)
(0.951646 1.04746e-23 -0.0244249)
(0.849036 1.4527e-23 -0.035305)
(0.917512 3.08007e-24 -0.0382081)
(0.192955 -1.55743e-22 -0.268474)
(0.0722716 -3.30849e-21 -0.357852)
(0.382624 2.05197e-21 -0.256457)
(0.272329 3.20277e-21 -0.357931)
(0.548202 -6.95534e-21 -0.212411)
(0.435469 -5.84782e-21 -0.304074)
(0.682353 -2.08996e-21 -0.160599)
(0.574388 6.58955e-23 -0.236395)
(0.784065 2.61645e-21 -0.111492)
(0.682795 7.27997e-21 -0.170595)
(0.856029 1.99236e-21 -0.0691904)
(0.761229 -4.57203e-21 -0.1127)
(0.903027 2.00213e-21 -0.0350572)
(0.813354 2.10463e-21 -0.0652328)
(0.930074 -1.5864e-21 -0.00911865)
(0.844493 3.35693e-21 -0.0284688)