/*--------------------------------*- C++ -*----------------------------------*\
| =========                 |                                                 |
| \\      /  F ield         | OpenFOAM: The Open Source CFD Toolbox           |
|  \\    /   O peration     | Version:  dev                                   |
|   \\  /    A nd           | Web:      www.OpenFOAM.org                      |
|    \\/     M anipulation  |                                                 |
\*---------------------------------------------------------------------------*/
FoamFile
{
    version     2.0;
    format      ascii;
    class       volScalarField;
    location    "0.4";
    object      p;
}
// * * * * * * * * * * * * * * * * * * * * * * * * * * * * * * * * * * * * * //

dimensions      [0 2 -2 0 0 0 0];

internalField   nonuniform List<scalar> 
2790
(
76.5105
76.3849
76.5955
77.1398
77.9116
78.8563
79.9666
81.2445
82.6879
84.2917
86.0504
87.9576
90.0058
92.1848
94.4811
96.8768
99.3486
101.867
104.397
106.893
109.308
111.585
113.669
115.508
117.06
118.301
119.231
119.876
120.283
120.495
76.3248
76.297
76.5308
77.0732
77.8417
78.7834
79.8893
81.1613
82.5975
84.1931
85.9425
87.8397
89.8772
92.0452
94.3305
96.7159
99.179
101.692
104.218
106.717
109.14
111.432
113.539
115.408
116.997
118.282
119.262
119.967
120.446
120.765
76.1346
76.1775
76.4299
76.9627
77.7188
78.6481
79.7395
80.9939
82.4096
83.9816
85.7043
87.5714
89.5756
91.7071
93.9532
96.2975
98.7188
101.191
103.681
106.151
108.555
110.846
112.973
114.889
116.555
117.949
119.068
119.931
120.565
121.028
75.9228
75.9989
76.2632
76.7869
77.5286
78.442
79.5143
80.7455
82.1336
83.6735
85.3594
87.1848
89.1421
91.2216
93.411
95.6946
98.0527
100.461
102.891
105.307
107.672
109.942
112.077
114.035
115.783
117.299
118.574
119.607
120.387
120.963
75.6795
75.7708
76.0432
76.5592
77.2848
78.1779
79.2254
80.4266
81.779
83.2776
84.9162
86.6882
88.5856
90.5988
92.7158
94.9217
97.1983
99.5237
101.872
104.214
106.518
108.748
110.871
112.853
114.667
116.287
117.694
118.866
119.753
120.397
75.4003
75.4979
75.7727
76.2789
76.9852
77.8531
78.8701
80.0347
81.3443
82.7933
84.3754
86.0835
87.9096
89.8439
91.8748
93.9879
96.1666
98.3911
100.639
102.886
105.105
107.27
109.352
111.328
113.171
114.857
116.356
117.627
118.593
119.292
75.0834
75.1822
75.4542
75.9477
76.6318
77.4704
78.4518
79.5741
80.8339
82.2256
83.7423
85.3766
87.1204
88.9637
90.895
92.9008
94.9653
97.071
99.1983
101.327
103.435
105.502
107.507
109.432
111.257
112.957
114.499
115.832
116.862
117.638
74.7283
74.8252
75.0902
75.5678
76.2267
77.0323
77.9732
79.0475
80.2511
81.578
83.021
84.5723
86.2232
87.9638
89.7825
91.6662
93.6
95.5677
97.5521
99.5354
101.501
103.431
105.313
107.133
108.878
110.528
112.055
113.407
114.489
115.384
74.3355
74.4284
74.6829
75.1416
75.7724
76.5412
77.4373
78.4582
79.5997
80.855
82.2164
83.6758
85.224
86.8506
88.544
90.2908
92.0767
93.8861
95.703
97.5114
99.2963
101.045
102.746
104.392
105.978
107.494
108.923
110.234
111.337
112.395
73.9059
73.9932
74.2346
74.6715
75.2714
76.0001
76.8472
77.8101
78.8838
80.0613
81.3341
82.6935
84.1297
85.6317
87.1872
88.7827
90.4033
92.0332
93.6562
95.2564
96.8189
98.3308
99.783
101.171
102.494
103.758
104.968
106.127
107.175
108.414
73.441
73.5216
73.7476
74.1603
74.7264
75.412
76.2065
77.107
78.1082
79.2021
80.3799
81.6319
82.9476
84.3153
85.7215
87.1518
88.5901
90.0193
91.4215
92.7785
94.0727
95.288
96.4119
97.437
98.3651
99.2114
100.008
100.815
101.633
103.006
72.9423
73.0154
73.2242
73.6104
74.1405
74.7802
75.5188
76.3533
77.2775
78.2831
79.3602
80.4985
81.6863
82.9108
84.1574
85.4098
86.65
87.8585
89.0137
90.0931
91.0727
91.9284
92.6372
93.1797
93.5462
93.747
93.8301
93.92
94.127
95.4283
72.4119
72.4767
72.6669
73.0248
73.5168
74.1081
74.7882
75.5534
76.3971
77.3101
78.2819
79.301
80.3548
81.4289
82.5069
83.5706
84.5992
85.5692
86.4544
87.225
87.8472
88.2829
88.4897
88.4219
88.0345
87.2966
86.2199
84.948
83.7203
84.3041
71.8518
71.9079
72.0784
72.4064
72.8584
73.3995
74.0187
74.712
75.4722
76.2894
77.1522
78.048
78.9628
79.8807
80.7834
81.65
82.4564
83.1745
83.7716
84.2087
84.4391
84.4053
84.0361
83.2415
81.9088
79.9018
77.0734
73.373
68.9012
66.616
71.2643
71.3113
71.4611
71.7579
72.1686
72.6579
73.2144
73.8338
74.5084
75.2274
75.9784
76.7479
77.5204
78.2783
79.0012
79.6653
80.2427
80.7003
80.9982
81.0873
80.9055
80.373
79.3827
77.7871
75.374
71.8265
66.6458
59.0632
47.5918
33.8235
-61.1146
-61.5817
-62.6003
-64.3761
-67.0319
-70.6353
-75.2005
-80.6873
-86.9976
-93.9683
-101.365
-108.875
-116.112
-122.619
-127.895
-131.424
-132.716
-131.343
-126.995
-119.568
-109.221
-96.3453
-81.5203
-65.4754
-49.0403
-33.1201
-18.7321
-7.0406
0.60947
5.02114
-60.9855
-61.54
-62.6196
-64.4545
-67.1691
-70.8345
-75.4676
-81.0308
-87.4274
-94.4951
-101.998
-109.624
-116.978
-123.601
-128.983
-132.601
-133.964
-132.648
-128.337
-120.929
-110.602
-97.7517
-82.9577
-66.947
-50.5516
-34.6816
-20.3445
-8.68306
-1.01285
3.32755
-61.1171
-61.8926
-63.1762
-65.1972
-68.0676
-71.8632
-76.6087
-82.275
-88.7732
-95.9477
-103.567
-111.32
-118.81
-125.57
-131.08
-134.808
-136.251
-134.98
-130.671
-123.231
-112.865
-99.9814
-85.1651
-69.1454
-52.7615
-36.933
-22.655
-11.0094
-3.15072
1.76534
-61.7891
-62.7957
-64.2905
-66.5186
-69.5691
-73.5201
-78.4046
-84.2033
-90.8376
-98.1598
-105.944
-113.879
-121.565
-128.524
-134.223
-138.112
-139.67
-138.452
-134.131
-126.63
-116.186
-103.224
-88.3331
-72.2454
-55.8076
-39.9465
-25.6408
-13.8742
-5.55309
0.356946
-63.1375
-64.3143
-65.9568
-68.3544
-71.5666
-75.6702
-80.7016
-86.6494
-93.4433
-100.943
-108.928
-117.086
-125.014
-132.22
-138.151
-142.237
-143.933
-142.767
-138.415
-130.828
-120.278
-107.209
-92.2123
-76.0161
-59.4717
-43.5053
-29.0689
-17.0206
-8.00153
-0.86854
-65.1636
-66.4111
-68.1174
-70.6254
-73.9592
-78.1944
-83.3676
-89.4721
-96.4441
-104.149
-112.371
-120.797
-129.016
-136.52
-142.731
-147.051
-148.898
-147.771
-143.353
-135.643
-124.957
-111.755
-96.6215
-80.2753
-63.568
-47.4151
-32.7299
-20.2313
-10.3495
-1.91914
-67.7319
-68.9304
-70.6202
-73.179
-76.5902
-80.9309
-86.2351
-92.4983
-99.6609
-107.593
-116.079
-124.806
-133.353
-141.194
-147.722
-152.3
-154.305
-153.193
-148.674
-140.812
-129.97
-116.622
-101.337
-84.8109
-67.8942
-51.4808
-36.4342
-23.3317
-12.5039
-2.82116
-70.5777
-71.6163
-73.2339
-75.7992
-79.2541
-83.6795
-89.1054
-95.5275
-102.888
-111.059
-119.826
-128.875
-137.776
-145.983
-152.855
-157.709
-159.868
-158.745
-154.087
-146.048
-135.043
-121.552
-106.119
-89.4004
-72.247
-55.5192
-40.0206
-26.2045
-14.4021
-3.60631
-73.3432
-74.1553
-75.6858
-78.2391
-81.7225
-86.2237
-91.767
-98.3474
-105.907
-114.32
-123.373
-132.749
-142.011
-150.598
-157.83
-162.966
-165.268
-164.105
-159.276
-151.046
-139.889
-126.28
-110.725
-93.8286
-76.4323
-59.3629
-43.3354
-28.7952
-16.0529
-4.28079
-75.6491
-76.2351
-77.7065
-80.2562
-83.7724
-88.3529
-94.0146
-100.752
-108.505
-117.15
-126.475
-136.163
-145.773
-154.731
-162.321
-167.734
-170.166
-168.94
-163.924
-155.513
-144.231
-130.551
-114.929
-97.9121
-80.282
-62.8655
-46.2833
-31.056
-17.4701
-4.86027
-77.1892
-77.6078
-79.074
-81.6475
-85.216
-89.8878
-95.6717
-102.56
-110.492
-119.342
-128.905
-138.863
-148.778
-158.068
-165.993
-171.665
-174.209
-172.923
-167.737
-159.198
-147.852
-134.167
-118.543
-101.493
-83.666
-65.8822
-48.8008
-32.9661
-18.6368
-5.3592
-77.805
-78.134
-79.6478
-82.2805
-85.9303
-90.7093
-96.6168
-103.64
-111.717
-120.727
-130.466
-140.621
-150.758
-160.298
-168.488
-174.382
-177.028
-175.735
-170.448
-161.889
-150.609
-137.007
-121.441
-104.375
-86.4095
-68.3138
-50.8141
-34.4851
-19.5479
-5.79
-77.5022
-77.7932
-79.3809
-82.1042
-85.8688
-90.7768
-96.8136
-103.956
-112.142
-121.252
-131.082
-141.331
-151.572
-161.236
-169.584
-175.65
-178.387
-177.123
-171.843
-163.377
-152.281
-138.865
-123.436
-106.398
-88.3494
-70.0608
-52.2748
-35.5903
-20.2065
-6.16235
-76.4233
-76.6733
-78.3256
-81.1531
-85.0668
-90.1315
-96.3082
-103.557
-111.812
-120.953
-130.783
-141.01
-151.221
-160.865
-169.219
-175.316
-178.073
-176.846
-171.719
-163.492
-152.686
-139.564
-124.361
-107.452
-89.4362
-71.0865
-53.1603
-36.2759
-20.6221
-6.48289
-74.8161
-74.958
-76.6125
-79.5277
-83.6363
-88.8951
-95.2161
-102.547
-110.821
-119.921
-129.657
-139.747
-149.792
-159.253
-167.42
-173.349
-176.009
-174.853
-170.029
-162.214
-151.841
-139.109
-124.217
-107.531
-89.66
-71.3847
-53.4718
-36.5515
-20.8089
-6.75399
70.6401
70.6775
70.8056
71.0697
71.4372
71.8725
72.3641
72.9069
73.4928
74.1102
74.7458
75.385
76.0109
76.6041
77.1419
77.5977
77.9398
78.1297
78.1204
77.8525
77.2489
76.2073
74.585
72.1755
68.6605
63.5139
55.7653
43.3762
19.8717
-45.2453
69.9718
69.9992
70.1044
70.3341
70.6563
71.0353
71.4591
71.9223
72.4161
72.9283
73.4447
73.9495
74.4244
74.8483
75.1965
75.4395
75.5419
75.4608
75.1425
74.5188
73.5009
71.9689
69.7557
66.6174
62.1794
55.8284
46.4795
32.2817
11.856
-17.257
69.2646
69.2816
69.363
69.5571
69.8325
70.1534
70.5074
70.8889
71.2884
71.6931
72.088
72.4562
72.7782
73.0314
73.1891
73.2195
73.0844
72.7371
72.1193
71.1575
69.756
67.7882
65.0819
61.3977
56.3973
49.6112
40.4422
28.2732
13.8532
-2.24035
68.5196
68.526
68.583
68.7405
68.9678
69.2293
69.5123
69.8107
70.1147
70.4108
70.6833
70.9145
71.0838
71.1675
71.1373
70.9598
70.5949
69.9938
69.0961
67.8267
66.0901
63.764
60.6904
56.6664
51.4382
44.712
36.2051
25.6202
12.9546
-2.13013
67.7386
67.7341
67.7664
67.8865
68.0651
68.2664
68.4776
68.6923
68.9003
69.0878
69.2385
69.3341
69.3532
69.2711
69.059
68.6826
68.1009
67.2649
66.1149
64.578
62.5647
59.9647
56.6439
52.442
47.1752
40.6441
32.6542
22.9705
11.4286
-1.73395
66.9235
66.9082
66.9153
66.9978
67.1272
67.2682
67.4075
67.5387
67.6514
67.7315
67.7624
67.7253
67.5986
67.3573
66.9723
66.4093
65.6282
64.5812
63.2116
61.452
59.2223
56.4282
52.9605
48.6961
43.5019
37.2403
29.7875
21.0413
10.9916
0.0585813
66.0769
66.0507
66.0327
66.0775
66.1579
66.2387
66.3067
66.3555
66.3745
66.3494
66.2639
66.0989
65.8329
65.441
64.8947
64.1608
63.2007
61.9697
60.416
58.4793
56.0911
53.1736
49.6414
45.4037
40.3692
34.454
27.5988
19.7848
11.046
1.70247
65.2016
65.1646
65.1218
65.1292
65.161
65.1825
65.1806
65.1487
65.0765
64.9499
64.7526
64.4659
64.0687
63.5368
62.843
61.9559
60.8395
59.4532
57.751
55.6814
53.1872
50.2072
46.6773
42.5338
37.7185
32.1859
25.9134
18.9105
11.2114
3.06864
64.301
64.2535
64.1862
64.1568
64.1411
64.1047
64.0347
63.9247
63.7648
63.5413
63.2381
62.8373
62.3184
61.6589
60.8329
59.8115
58.5624
57.0495
55.2334
53.0712
50.5174
47.5253
44.0487
40.0454
35.481
30.334
24.6015
18.3052
11.4829
4.34605
63.3789
63.321
63.2301
63.1649
63.103
63.0105
62.875
62.6903
62.4471
62.132
61.7299
61.2235
60.5939
59.8199
58.8779
57.742
56.3836
54.7719
52.8738
50.6551
48.0806
45.116
41.7299
37.8961
33.5967
28.8255
23.5915
17.9227
11.8584
5.5711
62.4393
62.3716
62.2578
62.1582
62.0518
61.9057
61.7077
61.4524
61.1308
60.7305
60.2372
59.6348
58.906
58.0314
56.99
55.759
54.3139
52.6291
50.6779
48.4335
45.87
42.9634
39.6937
36.0465
32.0151
27.6033
22.8265
17.7145
12.3041
6.73459
61.4868
61.4099
61.2743
61.1417
60.993
60.7961
60.5394
60.2179
59.8236
59.345
58.7688
58.0806
57.2644
56.3033
55.1788
53.8715
52.361
50.6264
48.647
46.4027
43.8752
41.049
37.9126
34.46
30.6922
26.6185
22.2577
17.6383
12.7938
7.83676
60.5265
60.4408
60.2847
60.121
59.9325
59.688
59.3765
58.994
58.5331
57.9835
57.3332
56.5693
55.6778
54.644
53.4521
52.0861
50.5293
48.7655
46.7791
44.5558
42.0835
39.3532
36.3598
33.1031
29.5891
25.8301
21.8456
17.6623
13.31
8.87993
59.5636
59.4697
59.2945
59.1018
58.8762
58.5876
58.2258
57.7874
57.2664
56.6534
55.9379
55.1086
54.1536
53.0603
51.8159
50.4071
48.8212
47.0458
45.0698
42.8838
40.4806
37.8562
35.01
31.9458
28.6724
25.2036
21.5586
17.7616
13.8389
9.86447
58.6038
58.5024
58.3096
58.0901
57.8302
57.5013
57.0937
56.6052
56.0305
55.3618
54.5899
53.7054
52.698
51.5578
50.2741
48.837
47.2366
45.4643
43.5128
41.3763
39.0517
36.5386
33.8397
30.9612
27.9134
24.7107
21.371
17.9161
14.3691
10.79
57.6528
57.5447
57.3359
57.092
56.8009
56.4355
55.987
55.4538
54.8321
54.1152
53.2956
52.3652
51.3162
50.1403
48.8295
47.3764
45.7741
44.0169
42.1004
40.0223
37.7821
35.3823
32.8274
30.1255
27.2874
24.327
21.2613
18.1094
14.8915
11.6563
56.717
56.6029
56.3797
56.1137
55.7947
55.3967
54.9119
54.3397
53.6774
52.9196
52.0604
51.0933
50.0121
48.8108
47.4835
46.025
44.4309
42.698
40.8246
38.8104
36.6576
34.37
31.9539
29.4179
26.773
24.0326
21.2119
18.328
15.3985
12.4631
55.8027
55.6833
55.4474
55.1618
54.818
54.3913
53.8748
53.2691
52.5723
51.7806
50.8893
49.8936
48.789
47.5711
46.2363
44.7811
43.2033
41.5018
39.6767
37.7298
35.6646
33.4863
31.2018
28.8202
26.3522
23.8103
21.2083
18.5612
15.8844
13.2102
54.9166
54.7926
54.5457
54.2428
53.8772
53.4255
52.882
52.2478
51.5224
50.7032
49.7867
48.7697
47.6492
46.4225
45.0875
43.6426
42.0873
40.422
38.6485
36.7698
34.7906
32.7168
30.5558
28.3166
26.0094
23.6458
21.2383
18.8001
16.3445
13.8979
54.0655
53.9376
53.6811
53.3633
52.9788
52.5059
51.9394
51.2815
50.5329
49.6919
48.7564
47.7245
46.5946
45.3654
44.0362
42.6069
41.0784
39.4524
37.7317
35.9205
34.0241
32.049
30.0026
27.8935
25.7316
23.5274
21.2922
19.0376
16.7752
14.5267
53.2563
53.1252
52.8606
52.5299
52.1293
51.6384
51.0529
50.3759
49.6087
48.7511
47.802
46.7607
45.6266
44.4
43.0811
41.6712
40.1722
38.5868
36.9188
35.1729
33.355
31.4717
29.5303
27.5392
25.5076
23.4451
21.3618
19.268
17.1738
15.0971
52.4963
52.3624
52.0911
51.7494
51.3353
50.8294
50.2284
49.536
48.7547
47.8849
46.9267
45.8803
44.7465
43.5262
42.2209
40.8328
39.3646
37.8198
36.2029
34.519
32.7742
30.9752
29.1292
27.2441
25.3283
23.3909
21.4407
19.487
17.5387
15.6104
51.7927
51.6566
51.3796
51.0286
50.6031
50.0849
49.4716
48.7673
47.9753
47.097
46.1334
45.0856
43.9551
42.7439
41.4542
40.0889
38.6516
37.1463
35.5778
33.9515
32.2737
30.5511
28.7904
26.9994
25.1857
23.3576
21.5232
19.6906
17.8679
16.0669
51.1532
51.0152
50.7333
50.3744
49.9393
49.4112
48.7881
48.0748
47.2752
46.3916
45.4255
44.3789
43.254
42.0535
40.7804
39.4381
38.0306
36.5624
35.0387
33.465
31.8476
30.1929
28.5077
26.799
25.0742
23.3406
21.6059
19.8771
18.1615
16.469
50.5858
50.446
50.1595
49.7935
49.3504
48.8143
48.1836
47.4636
46.6588
45.7719
44.8054
43.7617
42.6437
41.4546
40.1979
38.8775
37.4978
36.0636
34.5802
33.0533
31.489
29.8937
28.2738
26.636
24.9871
23.3341
21.6837
20.0424
18.4168
16.815
50.0987
49.9569
49.6655
49.2929
48.8431
48.3008
47.6645
46.9399
46.1318
45.2437
44.2782
43.2386
42.128
40.9502
39.709
38.4087
37.054
35.6499
34.2017
32.7151
31.1964
29.6516
28.0869
26.5087
24.9234
23.3374
21.757
20.1882
18.6369
17.1101
49.7015
49.5564
49.2585
48.8789
48.4229
47.8752
47.2344
46.5062
45.696
44.8075
43.8438
42.8085
41.7051
40.5376
39.3102
38.0274
36.6941
35.3154
33.8966
32.4436
30.9624
29.4589
27.9391
26.4091
24.8749
23.3427
21.8182
20.307
18.8145
17.3466
49.4053
49.2529
48.9466
48.5614
48.1014
47.5501
46.906
46.1754
45.364
44.4757
43.514
42.4825
41.3853
40.2264
39.0103
37.7417
36.4255
35.0669
33.6714
32.2446
30.7926
29.3211
27.836
26.3431
24.8482
23.3571
21.8753
20.4082
18.9607
17.5382
49.2269
49.0478
48.7244
48.3337
47.8716
47.3183
46.6724
45.9408
45.1293
44.242
43.2825
42.2546
41.1623
40.01
38.8023
37.5439
36.2399
34.8955
33.5161
32.1074
30.6753
29.2257
27.764
26.2961
24.8275
23.3639
21.9105
20.4725
19.0547
17.6615
49.2066
48.9754
48.6273
48.2293
47.7636
47.207
46.5584
45.8252
45.0132
44.1262
43.1679
42.1422
41.053
39.905
38.7025
37.4505
36.1539
34.818
33.4482
32.0502
30.6297
29.1925
27.7441
26.2901
24.8361
23.3875
21.9495
20.527
19.1247
17.7466
-142.441
-121.889
-95.0224
-37.0451
-42.1294
-48.4934
-19.1201
-30.4243
-39.773
-18.5355
-28.841
-36.4173
-14.516
-22.854
-29.5905
-10.328
-17.4411
-23.5465
-7.24348
-13.4406
-18.8201
-4.71158
-10.1001
-14.7753
-2.43924
-7.14035
-11.2074
-0.383466
-4.50978
-8.06374
1.47978
-2.15973
-5.27964
3.17946
-0.0437097
-2.79523
4.73644
1.87136
-0.566174
6.16494
3.60937
1.44088
7.47568
5.18872
3.25177
8.67702
6.62375
4.88664
9.77562
7.92588
6.36158
10.777
9.10458
7.68979
11.6861
10.1679
8.88242
12.5071
11.123
9.94919
13.2441
11.976
10.8984
13.9011
12.7329
11.738
14.4806
13.398
12.4736
14.9873
13.9772
13.1123
15.4204
14.4711
13.6561
15.7878
14.8883
14.1138
16.0806
15.2206
14.4788
16.3165
15.4864
14.7681
16.4683
15.659
14.9579
16.5766
15.7839
15.0918
-72.5665
-73.0774
-74.582
-77.4519
-81.7896
-87.2632
-93.7086
-101.074
-109.297
-118.267
-127.8
-137.626
-147.356
-156.467
-164.267
-169.878
-172.385
-171.348
-166.936
-159.658
-149.812
-137.538
-123.02
-106.638
-89.0214
-70.9589
-53.2186
-36.4312
-20.7842
-6.97917
-59.843
-66.808
-70.5765
-74.792
-79.7978
-85.5217
-92.017
-99.3171
-107.381
-116.103
-125.305
-134.725
-143.989
-152.595
-159.896
-165.112
-167.455
-166.579
-162.633
-155.932
-146.633
-134.834
-120.723
-104.717
-87.4681
-69.7678
-52.373
-35.9017
-20.5428
-7.15361
-52.6593
-62.4791
-67.5647
-72.3209
-77.7827
-83.813
-90.3674
-97.5234
-105.307
-113.646
-122.381
-131.259
-139.928
-147.917
-154.642
-159.437
-161.628
-160.924
-157.413
-151.221
-142.404
-131.035
-117.338
-101.771
-85.0081
-67.8267
-50.9557
-34.9844
-20.0997
-7.27292
-46.6949
-57.0427
-64.095
-70.0918
-76.0335
-82.1808
-88.6995
-95.6935
-103.172
-111.068
-119.247
-127.486
-135.465
-142.761
-148.863
-153.22
-155.272
-154.708
-151.496
-145.648
-137.171
-126.153
-112.868
-97.8162
-81.6707
-65.1738
-49.0055
-33.7117
-19.4729
-7.33148
-39.0919
-49.6017
-58.403
-66.0803
-73.108
-79.827
-86.5416
-93.4713
-100.702
-108.205
-115.859
-123.469
-130.753
-137.346
-142.818
-146.733
-148.592
-148.018
-144.879
-139.154
-130.865
-120.144
-107.315
-92.8919
-77.5194
-61.8797
-46.5866
-32.1317
-18.6866
-7.32306
-31.9986
-41.9022
-51.4451
-60.2395
-68.2542
-75.7334
-82.9435
-90.085
-97.2703
-104.519
-111.761
-118.838
-125.51
-131.465
-136.341
-139.78
-141.296
-140.474
-137.196
-131.461
-123.324
-112.961
-100.717
-87.0882
-72.6655
-58.0526
-43.7886
-30.3065
-17.7697
-7.24149
-26.0181
-34.8449
-44.2547
-53.3929
-61.8846
-69.8498
-77.477
-84.8917
-92.1624
-99.3042
-106.267
-112.928
-119.088
-124.478
-128.78
-131.652
-132.657
-131.46
-128.02
-122.344
-114.498
-104.677
-93.2193
-80.5809
-67.2803
-53.8394
-40.7231
-28.3092
-16.755
-7.08244
-20.8749
-28.5709
-37.3499
-46.2395
-54.6939
-62.732
-70.471
-77.9674
-85.2339
-92.2533
-98.9671
-105.262
-110.961
-115.826
-119.565
-121.833
-122.311
-120.838
-117.402
-111.986
-104.652
-95.5925
-85.1218
-73.639
-61.5888
-49.4149
-37.5146
-26.217
-15.6762
-6.84578
-16.4221
-23.0935
-31.0226
-39.2977
-47.3295
-55.0731
-62.5932
-69.8971
-76.9524
-83.7088
-90.0902
-95.9803
-101.214
-105.576
-108.798
-110.561
-110.683
-109.14
-105.905
-100.94
-94.3009
-86.1673
-76.8128
-66.5769
-55.8336
-44.9561
-34.2834
-24.1026
-14.5653
-6.53742
-12.5671
-18.355
-25.3908
-32.8832
-40.2676
-47.4679
-54.5163
-61.3915
-68.0334
-74.3682
-80.3056
-85.7271
-90.4779
-94.3652
-97.1599
-98.5977
-98.5805
-97.143
-94.2456
-89.848
-84.0038
-76.8665
-68.6657
-59.6829
-50.2285
-40.6147
-31.1302
-22.026
-13.4502
-6.1697
-9.20257
-14.2436
-20.4401
-27.121
-33.7736
-40.3106
-46.7468
-53.0483
-59.1429
-64.9458
-70.3614
-75.2742
-79.5438
-83.0044
-85.4696
-86.7392
-86.7456
-85.5183
-83.0251
-79.2386
-74.2051
-68.0505
-60.9619
-53.1695
-44.9283
-36.4986
-28.1262
-20.0303
-12.3532
-5.75962
-6.23714
-10.6505
-16.1003
-22.0176
-27.9463
-33.7988
-39.5811
-45.2564
-50.7511
-55.9798
-60.8492
-65.2531
-69.0683
-72.1572
-74.3727
-75.5693
-75.6812
-74.7091
-72.634
-69.4433
-65.1767
-59.9344
-53.8665
-47.1593
-40.0218
-32.6702
-25.3134
-18.1423
-11.291
-5.32581
-3.6044
-7.48933
-12.2909
-17.5235
-22.7838
-27.9886
-33.1401
-38.2031
-43.1085
-47.7762
-52.1206
-56.0476
-59.4525
-62.2225
-64.2427
-65.4066
-65.6453
-64.9311
-63.2522
-60.6078
-57.0322
-52.6042
-47.4432
-41.6993
-35.5431
-29.1543
-22.7099
-16.3755
-10.2752
-4.88544
-1.25555
-4.69369
-8.9378
-13.5705
-18.2355
-22.8557
-27.4317
-31.9322
-36.295
-40.4477
-44.3147
-47.8145
-50.8592
-53.3568
-55.2166
-56.3577
-56.7111
-56.2321
-54.9091
-52.7474
-49.7765
-46.0586
-41.6878
-36.7852
-31.4899
-25.951
-20.3183
-14.7348
-9.31357
-4.45218
0.846411
-2.21258
-5.97875
-10.0915
-14.2358
-18.341
-22.4077
-26.4087
-30.2893
-33.9859
-37.4324
-40.5592
-43.2928
-45.5575
-47.2802
-48.3963
-48.8414
-48.5644
-47.5504
-45.8061
-43.3561
-40.2492
-36.5602
-32.386
-27.8405
-23.0472
-18.1327
-13.2199
-8.41088
-4.03565
2.73011
-0.00623974
-3.36288
-7.02704
-10.7199
-14.3774
-18.0001
-21.5653
-25.0255
-28.3252
-31.4072
-34.2124
-36.6788
-38.7436
-40.3465
-41.4338
-41.9481
-41.8388
-41.0878
-39.6998
-37.6946
-35.1105
-32.0064
-28.4605
-24.5657
-20.4243
-16.1432
-11.8279
-7.56976
-3.64186
4.41826
1.957
-1.04869
-4.3267
-7.62998
-10.9007
-14.1396
-17.3279
-20.4247
-23.382
-26.1504
-28.6795
-30.9167
-32.8094
-34.3067
-35.363
-35.9283
-35.9561
-35.4262
-34.3401
-32.713
-30.5744
-27.9711
-24.9659
-21.6347
-18.0623
-14.3386
-10.5545
-6.79117
-3.27416
5.92944
3.70301
0.998019
-1.94809
-4.91615
-7.85391
-10.7625
-13.6265
-16.4109
-19.0739
-21.5732
-23.8654
-25.906
-27.65
-29.0541
-30.0791
-30.6817
-30.821
-30.4757
-29.6441
-28.3372
-26.5777
-24.4025
-21.862
-19.0182
-15.9415
-12.7077
-9.3948
-6.07494
-2.93414
7.27918
5.25334
2.80587
0.144623
-2.53561
-5.18764
-7.81292
-10.3988
-12.9151
-15.326
-17.5947
-19.684
-21.5557
-23.1712
-24.4933
-25.4877
-26.1177
-26.3473
-26.1554
-25.5377
-24.5013
-23.0638
-21.254
-19.1123
-16.6893
-14.0437
-11.2395
-8.34366
-5.4201
-2.62235
8.48079
6.62627
4.39909
1.9819
-0.451745
-2.85919
-5.24205
-7.58999
-9.8772
-12.0724
-14.1439
-16.0595
-17.7862
-19.2908
-20.5409
-21.5065
-22.1562
-22.4589
-22.394
-21.9554
-21.1472
-19.9825
-18.4839
-16.6838
-14.6236
-12.3521
-9.92369
-7.39581
-4.82519
-2.33865
9.54562
7.83725
5.79816
3.58955
1.36657
-0.832118
-3.00823
-5.15333
-7.24514
-9.25646
-11.1596
-12.9268
-14.5294
-15.9384
-17.1255
-18.0644
-18.7282
-19.09
-19.13
-18.8409
-18.2245
-17.2904
-16.0562
-14.548
-12.7995
-10.8516
-8.75068
-6.54623
-4.28851
-2.08261
10.4838
8.89983
7.02082
4.98982
2.94614
0.924937
-1.07553
-3.04836
-4.97422
-6.8293
-8.58941
-10.2302
-11.7268
-13.0537
-14.186
-15.1001
-15.774
-16.1837
-16.3098
-16.1449
-15.6892
-14.9493
-13.9391
-12.6793
-11.1976
-9.52861
-7.71176
-5.79009
-3.8082
-1.8535
11.3035
9.82483
8.08136
6.20076
4.30884
2.43771
0.585632
-1.24169
-3.0274
-4.75048
-6.38961
-7.92344
-9.32997
-10.5868
-11.6718
-12.564
-13.2443
-13.6921
-13.8889
-13.8269
-13.5051
-12.9279
-12.1062
-11.0567
-9.80218
-8.37184
-6.79976
-5.1235
-3.38277
-1.65073
12.0129
10.6228
8.99317
7.23893
5.4744
3.72913
2.00141
0.295985
-1.37229
-2.98471
-4.52236
-5.9663
-7.29701
-8.49456
-9.53922
-10.4122
-11.0963
-11.5737
-11.828
-11.8507
-11.6398
-11.198
-10.5338
-9.66086
-8.59819
-7.37055
-6.00752
-4.54221
-3.01023
-1.47326
12.6159
11.2994
9.76423
8.1148
6.45587
4.81482
3.19003
1.58547
0.0143637
-1.50648
-2.96007
-4.32945
-5.59714
-6.74523
-7.75593
-8.61223
-9.2985
-9.79901
-10.0994
-10.1909
-10.0707
-9.74017
-9.20586
-8.47921
-7.57638
-6.5184
-5.33124
-4.0445
-2.69028
-1.32103
13.1212
11.8644
10.4062
8.84207
7.26899
5.71262
4.17139
2.64869
1.15647
-0.290002
-1.67527
-2.98398
-4.20027
-5.30784
-6.29049
-7.13263
-7.81987
-8.33822
-8.67488
-8.82133
-8.77396
-8.53337
-8.10453
-7.49722
-6.72528
-5.80687
-4.76511
-3.62676
-2.42107
-1.19308
13.5251
12.3155
10.9178
9.42078
7.91531
6.42559
4.95011
3.49182
2.06165
0.673706
-0.657758
-1.91862
-3.09429
-4.16973
-5.12993
-5.96046
-6.64786
-7.17946
-7.54374
-7.73242
-7.74153
-7.571
-7.22476
-6.71112
-6.04229
-5.23452
-4.30867
-3.28918
-2.20305
-1.08952
13.8415
12.6666
11.3141
9.86717
8.41205
6.9719
5.54529
4.13487
2.75081
1.40637
0.114901
-1.11038
-2.25581
-3.30728
-4.25068
-5.07237
-5.75964
-6.30086
-6.68561
-6.90596
-6.95763
-6.84
-6.55623
-6.11349
-5.5228
-4.7992
-3.96187
-3.03353
-2.03959
-1.01439
14.0515
12.8987
11.5761
10.1633
8.74226
7.33542
5.9416
4.56331
3.21026
1.89509
0.630577
-0.570664
-1.69559
-2.73069
-3.66243
-4.4776
-5.16351
-5.70915
-6.10535
-6.3448
-6.42317
-6.33952
-6.0965
-5.70058
-5.16203
-4.49501
-3.71772
-2.85195
-1.92271
-0.9632
14.188
13.038
11.7296
10.3349
8.93148
7.54117
6.16345
4.8009
3.46299
2.16204
0.91056
-0.27912
-1.39426
-2.42171
-3.34838
-4.16169
-4.85015
-5.40241
-5.80814
-6.0602
-6.15461
-6.0905
-5.87033
-5.50023
-4.99004
-4.35349
-3.60817
-2.77523
-1.87899
-0.949029
)
;

boundaryField
{
    inlet
    {
        type            zeroGradient;
    }
    outlet
    {
        type            fixedValue;
        value           uniform 0;
    }
    flap
    {
        type            zeroGradient;
    }
    upperWall
    {
        type            zeroGradient;
    }
    lowerWall
    {
        type            zeroGradient;
    }
    frontAndBack
    {
        type            empty;
    }
}


// ************************************************************************* //
