/*--------------------------------*- C++ -*----------------------------------*\
| =========                 |                                                 |
| \\      /  F ield         | OpenFOAM: The Open Source CFD Toolbox           |
|  \\    /   O peration     | Version:  dev                                   |
|   \\  /    A nd           | Web:      www.OpenFOAM.org                      |
|    \\/     M anipulation  |                                                 |
\*---------------------------------------------------------------------------*/
FoamFile
{
    version     2.0;
    format      ascii;
    class       pointVectorField;
    location    "0.4";
    object      pointDisplacement;
}
// * * * * * * * * * * * * * * * * * * * * * * * * * * * * * * * * * * * * * //

dimensions      [0 1 0 0 0 0 0];

internalField   nonuniform List<vector> 
5828
(
(0 0 0)
(0.00723189 0 0)
(0.0138121 0 0)
(0.019611 0 0)
(0.0247206 0 0)
(0.0292228 0 0)
(0.0331869 0 0)
(0.0366728 0 0)
(0.0397328 0 0)
(0.0424123 0 0)
(0.044751 0 0)
(0.046783 0 0)
(0.0485376 0 0)
(0.0500397 0 0)
(0.0513103 0 0)
(0.0523664 0 0)
(0.0532211 0 0)
(0.0538845 0 0)
(0.054363 0 0)
(0.0546596 0 0)
(0.0547737 0 0)
(0.0547008 0 0)
(0.0544305 0 0)
(0.0539444 0 0)
(0.0532099 0 0)
(0.0521714 0 0)
(0.0507333 0 0)
(0.0487468 0 0)
(0.0460628 0 0)
(0.0434979 0 0)
(-1.13832e-09 0 0)
(0 0 0)
(0.00722957 0 0.000252052)
(0.0138088 0 0.000485275)
(0.0196064 0 0.000695492)
(0.024715 0 0.000885636)
(0.0292165 0 0.00105842)
(0.0331801 0 0.00121542)
(0.0366658 0 0.00135743)
(0.0397258 0 0.00148456)
(0.0424056 0 0.00159624)
(0.0447449 0 0.00169133)
(0.0467778 0 0.0017681)
(0.0485339 0 0.00182436)
(0.0500383 0 0.00185759)
(0.051312 0 0.00186505)
(0.0523721 0 0.00184413)
(0.0532325 0 0.00179265)
(0.0539032 0 0.00170931)
(0.0543914 0 0.00159417)
(0.054701 0 0.0014491)
(0.0548326 0 0.0012779)
(0.054784 0 0.00108833)
(0.0545491 0 0.000890257)
(0.0541167 0 0.000693316)
(0.0534704 0 0.000507256)
(0.0525872 0 0.00033892)
(0.0514447 0 0.000188031)
(0.0500532 0 4.07118e-05)
(0.0485766 0 -0.00013844)
(0.0479998 0 -0.000380734)
(0.0793603 0 -0.0018803)
(0 0 0)
(0.00722552 0 0.000504263)
(0.0138013 0 0.00097037)
(0.0195947 0 0.00139028)
(0.0246997 0 0.00177053)
(0.029199 0 0.00211633)
(0.0331611 0 0.00243081)
(0.0366458 0 0.00271561)
(0.0397055 0 0.00297101)
(0.0423859 0 0.00319598)
(0.0447267 0 0.00338829)
(0.0467625 0 0.0035446)
(0.048523 0 0.00366061)
(0.0500337 0 0.0037313)
(0.0513162 0 0.00375125)
(0.0523885 0 0.00371515)
(0.053265 0 0.00361846)
(0.0539573 0 0.00345829)
(0.0544739 0 0.00323437)
(0.0548211 0 0.0029501)
(0.0550033 0 0.00261279)
(0.0550239 0 0.00223594)
(0.0548863 0 0.00183841)
(0.0545969 0 0.00144122)
(0.054171 0 0.00106613)
(0.0536453 0 0.000732175)
(0.053106 0 0.00045195)
(0.0527428 0 0.000231003)
(0.0529171 0 7.41306e-05)
(0.054147 0 -6.16148e-06)
(0.0557588 0 0.00164386)
(0 0 0)
(0.00721711 0 0.000756744)
(0.0137858 0 0.00145554)
(0.0195737 0 0.0020851)
(0.0246742 0 0.00265605)
(0.02917 0 0.00317581)
(0.0331294 0 0.00364914)
(0.0366125 0 0.00407867)
(0.0396717 0 0.00446495)
(0.0423528 0 0.00480665)
(0.044696 0 0.00510062)
(0.0467362 0 0.00534206)
(0.0485036 0 0.00552471)
(0.0500244 0 0.00564115)
(0.0513211 0 0.00568328)
(0.0524126 0 0.00564295)
(0.0533149 0 0.00551292)
(0.0540411 0 0.00528808)
(0.0546023 0 0.00496691)
(0.0550078 0 0.00455324)
(0.0552669 0 0.00405745)
(0.0553892 0 0.0034963)
(0.0553884 0 0.00289578)
(0.0552873 0 0.00228981)
(0.0551252 0 0.00171458)
(0.0549704 0 0.0012048)
(0.0549355 0 0.000789105)
(0.0551799 0 0.000488212)
(0.0558316 0 0.000316709)
(0.0566839 0 0.000273383)
(0.0574248 0 -0.000604162)
(0 0 0)
(0.00720455 0 0.0010085)
(0.0137626 0 0.00194005)
(0.0195435 0 0.00278008)
(0.0246387 0 0.00354263)
(0.0291296 0 0.0042376)
(0.0330852 0 0.00487162)
(0.0365658 0 0.00544844)
(0.039624 0 0.00596909)
(0.042306 0 0.0064321)
(0.0446522 0 0.00683363)
(0.046698 0 0.00716765)
(0.0484743 0 0.00742614)
(0.0500082 0 0.00759947)
(0.0513233 0 0.00767686)
(0.0524398 0 0.00764718)
(0.0533753 0 0.00750002)
(0.0541451 0 0.0072272)
(0.0547626 0 0.00682463)
(0.0552404 0 0.00629462)
(0.0555917 0 0.00564816)
(0.0558315 0 0.00490516)
(0.05598 0 0.00409809)
(0.0560679 0 0.00327216)
(0.0561412 0 0.00247919)
(0.0562654 0 0.00177181)
(0.0565221 0 0.00119501)
(0.0569797 0 0.000776524)
(0.0576144 0 0.000518012)
(0.0582067 0 0.000390986)
(0.0592831 0 0.00111423)
(0 0 0)
(0.00718971 0 0.00125841)
(0.0137349 0 0.00242164)
(0.0195061 0 0.00347157)
(0.0245937 0 0.00442541)
(0.0290781 0 0.00529586)
(0.0330287 0 0.00609157)
(0.0365059 0 0.00681756)
(0.0395625 0 0.00747557)
(0.042245 0 0.00806427)
(0.0445943 0 0.0085794)
(0.0466463 0 0.00901404)
(0.0484328 0 0.00935876)
(0.0499817 0 0.00960197)
(0.0513178 0 0.00973042)
(0.0524629 0 0.00972997)
(0.0534364 0 0.0095867)
(0.0542554 0 0.00928855)
(0.054936 0 0.00882741)
(0.0554931 0 0.00820188)
(0.0559422 0 0.00742037)
(0.056301 0 0.00650395)
(0.0565914 0 0.00548978)
(0.056843 0 0.00443207)
(0.0570944 0 0.00339856)
(0.0573914 0 0.00246323)
(0.0577751 0 0.00169336)
(0.0582536 0 0.00113181)
(0.0587622 0 0.000778938)
(0.0591515 0 0.000589497)
(0.0590678 0 -0.000456035)
(0 0 0)
(0.00717247 0 0.0015057)
(0.0137026 0 0.00289814)
(0.0194616 0 0.00415592)
(0.0245393 0 0.00529964)
(0.0290155 0 0.00634489)
(0.0329597 0 0.00730245)
(0.0364323 0 0.00817884)
(0.0394866 0 0.00897676)
(0.042169 0 0.00969531)
(0.0445211 0 0.0103302)
(0.0465793 0 0.0108741)
(0.0483762 0 0.0113166)
(0.0499407 0 0.0116446)
(0.0512989 0 0.0118427)
(0.0524741 0 0.0118941)
(0.0534873 0 0.0117812)
(0.0543577 0 0.0114875)
(0.0551031 0 0.0109994)
(0.0557404 0 0.0103097)
(0.056286 0 0.00942109)
(0.0567573 0 0.00835081)
(0.0571736 0 0.0071358)
(0.0575571 0 0.00583595)
(0.0579331 0 0.00453392)
(0.0583249 0 0.00332875)
(0.0587439 0 0.00232065)
(0.0591712 0 0.00158672)
(0.0595466 0 0.00115456)
(0.0597909 0 0.000985853)
(0.0604471 0 0.00131248)
(0 0 0)
(0.0071527 0 0.00174962)
(0.0136653 0 0.00336818)
(0.0194098 0 0.00483121)
(0.0244754 0 0.00616292)
(0.0289417 0 0.00738186)
(0.0328779 0 0.00850111)
(0.0363448 0 0.00952892)
(0.0393955 0 0.0104692)
(0.042077 0 0.0113219)
(0.0444311 0 0.0120831)
(0.0464948 0 0.0127455)
(0.0483014 0 0.0132983)
(0.049881 0 0.0137276)
(0.0512606 0 0.0140165)
(0.0524651 0 0.0141459)
(0.053517 0 0.0140949)
(0.0544374 0 0.0138422)
(0.0552454 0 0.0133682)
(0.0559591 0 0.0126572)
(0.056595 0 0.0117026)
(0.0571684 0 0.0105122)
(0.0576931 0 0.00911544)
(0.058182 0 0.00757073)
(0.0586453 0 0.00597034)
(0.0590884 0 0.00443873)
(0.0595059 0 0.00311767)
(0.0598728 0 0.00213274)
(0.0601407 0 0.00154573)
(0.0602616 0 0.0013168)
(0.0599281 0 0.00186732)
(0 0 0)
(0.00713027 0 0.00198948)
(0.0136228 0 0.00383044)
(0.0193504 0 0.00549559)
(0.0244018 0 0.0070129)
(0.0288563 0 0.00840399)
(0.0327831 0 0.00968441)
(0.0362427 0 0.0108643)
(0.0392886 0 0.0119492)
(0.0419679 0 0.0129402)
(0.0443226 0 0.0138343)
(0.0463904 0 0.0146247)
(0.0482053 0 0.0153009)
(0.049798 0 0.015849)
(0.0511969 0 0.0162515)
(0.0524278 0 0.0164878)
(0.0535149 0 0.0165345)
(0.0544806 0 0.0163662)
(0.0553455 0 0.0159568)
(0.0561283 0 0.015281)
(0.0568452 0 0.0143192)
(0.0575092 0 0.0130637)
(0.0581283 0 0.0115271)
(0.0587054 0 0.00975411)
(0.0592372 0 0.00783416)
(0.0597152 0 0.00590999)
(0.060128 0 0.00417099)
(0.0604628 0 0.00281444)
(0.060705 0 0.00195901)
(0.0608374 0 0.0015419)
(0.0604535 0 0.000403886)
(0 0 0)
(0.00710509 0 0.00222459)
(0.0135751 0 0.00428361)
(0.0192834 0 0.00614721)
(0.0243185 0 0.00784721)
(0.0287593 0 0.00940843)
(0.0326749 0 0.010849)
(0.0361257 0 0.0121813)
(0.0391651 0 0.0134126)
(0.0418405 0 0.0145456)
(0.0441942 0 0.0155787)
(0.0462642 0 0.0165062)
(0.0480849 0 0.0173189)
(0.0496879 0 0.0180034)
(0.0511022 0 0.0185428)
(0.0523549 0 0.0189163)
(0.0534712 0 0.0190995)
(0.0544748 0 0.0190642)
(0.0553876 0 0.018779)
(0.056229 0 0.0182091)
(0.0570157 0 0.01732)
(0.0577589 0 0.0160834)
(0.0584626 0 0.0144849)
(0.0591213 0 0.0125386)
(0.0597189 0 0.0103082)
(0.0602325 0 0.00793203)
(0.0606433 0 0.00564218)
(0.0609542 0 0.00375253)
(0.0611976 0 0.00257186)
(0.0613945 0 0.00218945)
(0.0626549 0 0.00158248)
(0 0 0)
(0.00707709 0 0.00245421)
(0.0135219 0 0.0047263)
(0.0192086 0 0.00678405)
(0.0242252 0 0.00866323)
(0.0286504 0 0.010392)
(0.0325529 0 0.0119911)
(0.0359932 0 0.0134754)
(0.0390245 0 0.0148542)
(0.0416942 0 0.0161322)
(0.0440447 0 0.0173095)
(0.0461144 0 0.0183824)
(0.0479379 0 0.0193433)
(0.0495472 0 0.0201808)
(0.050972 0 0.0208796)
(0.05224 0 0.0214202)
(0.0533775 0 0.0217791)
(0.0544092 0 0.0219277)
(0.0553578 0 0.0218332)
(0.0562443 0 0.0214528)
(0.0570864 0 0.0207379)
(0.0578965 0 0.0196395)
(0.0586777 0 0.0181089)
(0.05942 0 0.0161114)
(0.0600964 0 0.0136513)
(0.060664 0 0.0108119)
(0.0610778 0 0.00780985)
(0.0613282 0 0.00504579)
(0.0614911 0 0.00307234)
(0.061708 0 0.00232912)
(0.0607842 0 0.00632146)
(0 0 0)
(0.00704624 0 0.00267747)
(0.0134632 0 0.00515675)
(0.0191259 0 0.00740353)
(0.024122 0 0.00945757)
(0.0285296 0 0.0113503)
(0.0324173 0 0.0131055)
(0.0358452 0 0.0147404)
(0.0388664 0 0.0162666)
(0.0415284 0 0.0176911)
(0.0438734 0 0.0190163)
(0.0459398 0 0.0202408)
(0.0477625 0 0.0213596)
(0.0493736 0 0.022364)
(0.0508029 0 0.0232415)
(0.0520788 0 0.023976)
(0.0532278 0 0.0245466)
(0.0542756 0 0.0249273)
(0.0552457 0 0.025086)
(0.05616 0 0.0249794)
(0.0570391 0 0.0245534)
(0.0578992 0 0.0237425)
(0.0587478 0 0.0224662)
(0.0595787 0 0.0206337)
(0.0603625 0 0.0181601)
(0.0610367 0 0.0150068)
(0.061503 0 0.0112537)
(0.0616579 0 0.00722413)
(0.0614942 0 0.00357617)
(0.0612588 0 0.00119626)
(0.0662467 0 -0.000306946)
(0 0 0)
(0.00701262 0 0.00289319)
(0.0133992 0 0.00557263)
(0.0190356 0 0.00800218)
(0.024009 0 0.0102256)
(0.0283971 0 0.0122776)
(0.0322681 0 0.014185)
(0.0356818 0 0.0159675)
(0.0386911 0 0.0176394)
(0.0413432 0 0.0192099)
(0.0436802 0 0.0206842)
(0.0457404 0 0.0220635)
(0.0475584 0 0.023346)
(0.0491662 0 0.0245266)
(0.0505938 0 0.0255968)
(0.0518691 0 0.0265449)
(0.0530188 0 0.0273555)
(0.0540688 0 0.0280076)
(0.055043 0 0.0284729)
(0.0559645 0 0.0287174)
(0.0568565 0 0.0286949)
(0.0577406 0 0.0283369)
(0.0586344 0 0.0275493)
(0.0595474 0 0.0262042)
(0.0604704 0 0.0241344)
(0.0613533 0 0.0211454)
(0.0620673 0 0.0170661)
(0.0623635 0 0.0119187)
(0.0619224 0 0.00621987)
(0.0607365 0 0.00133587)
(0.05323 0 -0.00512462)
(0 0 0)
(0.00697601 0 0.00310043)
(0.0133295 0 0.00597214)
(0.0189372 0 0.00857743)
(0.0238859 0 0.0109639)
(0.0282526 0 0.0131697)
(0.0321051 0 0.0152244)
(0.0355028 0 0.0171506)
(0.0384983 0 0.018965)
(0.0411383 0 0.0206794)
(0.0434647 0 0.0223019)
(0.0455154 0 0.0238367)
(0.0473248 0 0.0252856)
(0.0489244 0 0.0266474)
(0.0503436 0 0.0279187)
(0.0516098 0 0.029094)
(0.052749 0 0.0301647)
(0.0537861 0 0.0311189)
(0.0547452 0 0.0319397)
(0.0556496 0 0.0326083)
(0.0565235 0 0.033098)
(0.0573926 0 0.0333622)
(0.0582851 0 0.033331)
(0.0592338 0 0.0328997)
(0.0602758 0 0.0319092)
(0.0614475 0 0.0301329)
(0.0627679 0 0.027264)
(0.0641922 0 0.0230233)
(0.0655539 0 0.0175785)
(0.0666476 0 0.0120039)
(0.0566297 0 -0.00731401)
(0 0 0)
(0.0069361 0 0.0032988)
(0.0132536 0 0.00635459)
(0.0188304 0 0.00912839)
(0.0237523 0 0.0116716)
(0.0280956 0 0.0140254)
(0.0319277 0 0.0162224)
(0.0353074 0 0.0182878)
(0.038287 0 0.0202411)
(0.0409127 0 0.0220967)
(0.043226 0 0.0238656)
(0.0452641 0 0.0255553)
(0.0470609 0 0.0271712)
(0.0486472 0 0.028717)
(0.0500515 0 0.0301947)
(0.0513002 0 0.0316057)
(0.052418 0 0.0329505)
(0.0534281 0 0.0342292)
(0.0543528 0 0.0354417)
(0.0552141 0 0.0365896)
(0.0560343 0 0.0376745)
(0.0568377 0 0.0386941)
(0.0576545 0 0.0396438)
(0.0585267 0 0.040517)
(0.0595204 0 0.0413037)
(0.0607464 0 0.0419914)
(0.0623982 0 0.0425372)
(0.064789 0 0.0428352)
(0.0682851 0 0.0427742)
(0.0728878 0 0.042295)
(0.100536 0 0.0275898)
(0 0 0)
(0.00689238 0 0.00348967)
(0.0131705 0 0.00672267)
(0.0187137 0 0.009659)
(0.0236064 0 0.0123535)
(0.0279242 0 0.0148505)
(0.0317337 0 0.0171856)
(0.0350935 0 0.0193866)
(0.0380551 0 0.0214755)
(0.0406643 0 0.0234696)
(0.0429617 0 0.0253826)
(0.0449842 0 0.0272255)
(0.0467646 0 0.0290075)
(0.0483331 0 0.0307368)
(0.0497168 0 0.0324213)
(0.0509407 0 0.0340694)
(0.0520276 0 0.0356911)
(0.0529985 0 0.0372989)
(0.0538727 0 0.0389092)
(0.0546684 0 0.0405455)
(0.055403 0 0.0422382)
(0.0560933 0 0.0440316)
(0.0567578 0 0.0459927)
(0.0574194 0 0.0482212)
(0.0581087 0 0.0508689)
(0.0588686 0 0.0541503)
(0.0597506 0 0.0583424)
(0.0607985 0 0.0636858)
(0.0620005 0 0.0700563)
(0.0630673 0 0.0767103)
(0.0601393 0 0.114275)
(0 0 0)
(0.00723189 0 0)
(0.0138121 0 0)
(0.019611 0 0)
(0.0247206 0 0)
(0.0292228 0 0)
(0.0331869 0 0)
(0.0366728 0 0)
(0.0397328 0 0)
(0.0424123 0 0)
(0.044751 0 0)
(0.046783 0 0)
(0.0485376 0 0)
(0.0500397 0 0)
(0.0513103 0 0)
(0.0523664 0 0)
(0.0532211 0 0)
(0.0538845 0 0)
(0.054363 0 0)
(0.0546596 0 0)
(0.0547737 0 0)
(0.0547008 0 0)
(0.0544305 0 0)
(0.0539444 0 0)
(0.0532099 0 0)
(0.0521714 0 0)
(0.0507333 0 0)
(0.0487468 0 0)
(0.0460628 0 0)
(0.0434979 0 0)
(0 0 0)
(0 0 0)
(0.00722957 0 0.000252052)
(0.0138088 0 0.000485275)
(0.0196064 0 0.000695492)
(0.024715 0 0.000885636)
(0.0292165 0 0.00105842)
(0.0331801 0 0.00121542)
(0.0366658 0 0.00135743)
(0.0397258 0 0.00148456)
(0.0424056 0 0.00159624)
(0.0447449 0 0.00169133)
(0.0467778 0 0.0017681)
(0.0485339 0 0.00182436)
(0.0500383 0 0.00185759)
(0.051312 0 0.00186505)
(0.0523721 0 0.00184413)
(0.0532325 0 0.00179265)
(0.0539032 0 0.00170931)
(0.0543914 0 0.00159417)
(0.054701 0 0.0014491)
(0.0548326 0 0.0012779)
(0.054784 0 0.00108833)
(0.0545491 0 0.000890257)
(0.0541167 0 0.000693316)
(0.0534704 0 0.000507256)
(0.0525872 0 0.00033892)
(0.0514447 0 0.000188031)
(0.0500532 0 4.07118e-05)
(0.0485766 0 -0.00013844)
(0.0479998 0 -0.000380734)
(0.0793603 0 -0.0018803)
(0 0 0)
(0.00722552 0 0.000504263)
(0.0138013 0 0.00097037)
(0.0195947 0 0.00139028)
(0.0246997 0 0.00177053)
(0.029199 0 0.00211633)
(0.0331611 0 0.00243081)
(0.0366458 0 0.00271561)
(0.0397055 0 0.00297101)
(0.0423859 0 0.00319598)
(0.0447267 0 0.00338829)
(0.0467625 0 0.0035446)
(0.048523 0 0.00366061)
(0.0500337 0 0.0037313)
(0.0513162 0 0.00375125)
(0.0523885 0 0.00371515)
(0.053265 0 0.00361846)
(0.0539573 0 0.00345829)
(0.0544739 0 0.00323437)
(0.0548211 0 0.0029501)
(0.0550033 0 0.00261279)
(0.0550239 0 0.00223594)
(0.0548863 0 0.00183841)
(0.0545969 0 0.00144122)
(0.054171 0 0.00106613)
(0.0536453 0 0.000732175)
(0.053106 0 0.00045195)
(0.0527428 0 0.000231003)
(0.0529171 0 7.41306e-05)
(0.054147 0 -6.16148e-06)
(0.0557588 0 0.00164386)
(0 0 0)
(0.00721711 0 0.000756744)
(0.0137858 0 0.00145554)
(0.0195737 0 0.0020851)
(0.0246742 0 0.00265605)
(0.02917 0 0.00317581)
(0.0331294 0 0.00364914)
(0.0366125 0 0.00407867)
(0.0396717 0 0.00446495)
(0.0423528 0 0.00480665)
(0.044696 0 0.00510062)
(0.0467362 0 0.00534206)
(0.0485036 0 0.00552471)
(0.0500244 0 0.00564115)
(0.0513211 0 0.00568328)
(0.0524126 0 0.00564295)
(0.0533149 0 0.00551292)
(0.0540411 0 0.00528808)
(0.0546023 0 0.00496691)
(0.0550078 0 0.00455324)
(0.0552669 0 0.00405745)
(0.0553892 0 0.0034963)
(0.0553884 0 0.00289578)
(0.0552873 0 0.00228981)
(0.0551252 0 0.00171458)
(0.0549704 0 0.0012048)
(0.0549355 0 0.000789105)
(0.0551799 0 0.000488212)
(0.0558316 0 0.000316709)
(0.0566839 0 0.000273383)
(0.0574248 0 -0.000604162)
(0 0 0)
(0.00720455 0 0.0010085)
(0.0137626 0 0.00194005)
(0.0195435 0 0.00278008)
(0.0246387 0 0.00354263)
(0.0291296 0 0.0042376)
(0.0330852 0 0.00487162)
(0.0365658 0 0.00544844)
(0.039624 0 0.00596909)
(0.042306 0 0.0064321)
(0.0446522 0 0.00683363)
(0.046698 0 0.00716765)
(0.0484743 0 0.00742614)
(0.0500082 0 0.00759947)
(0.0513233 0 0.00767686)
(0.0524398 0 0.00764718)
(0.0533753 0 0.00750002)
(0.0541451 0 0.0072272)
(0.0547626 0 0.00682463)
(0.0552404 0 0.00629462)
(0.0555917 0 0.00564816)
(0.0558315 0 0.00490516)
(0.05598 0 0.00409809)
(0.0560679 0 0.00327216)
(0.0561412 0 0.00247919)
(0.0562654 0 0.00177181)
(0.0565221 0 0.00119501)
(0.0569797 0 0.000776524)
(0.0576144 0 0.000518012)
(0.0582067 0 0.000390986)
(0.0592831 0 0.00111423)
(0 0 0)
(0.00718971 0 0.00125841)
(0.0137349 0 0.00242164)
(0.0195061 0 0.00347157)
(0.0245937 0 0.00442541)
(0.0290781 0 0.00529586)
(0.0330287 0 0.00609157)
(0.0365059 0 0.00681756)
(0.0395625 0 0.00747557)
(0.042245 0 0.00806427)
(0.0445943 0 0.0085794)
(0.0466463 0 0.00901404)
(0.0484328 0 0.00935876)
(0.0499817 0 0.00960197)
(0.0513178 0 0.00973042)
(0.0524629 0 0.00972997)
(0.0534364 0 0.0095867)
(0.0542554 0 0.00928855)
(0.054936 0 0.00882741)
(0.0554931 0 0.00820188)
(0.0559422 0 0.00742037)
(0.056301 0 0.00650395)
(0.0565914 0 0.00548978)
(0.056843 0 0.00443207)
(0.0570944 0 0.00339856)
(0.0573914 0 0.00246323)
(0.0577751 0 0.00169336)
(0.0582536 0 0.00113181)
(0.0587622 0 0.000778938)
(0.0591515 0 0.000589497)
(0.0590678 0 -0.000456035)
(0 0 0)
(0.00717247 0 0.0015057)
(0.0137026 0 0.00289814)
(0.0194616 0 0.00415592)
(0.0245393 0 0.00529964)
(0.0290155 0 0.00634489)
(0.0329597 0 0.00730245)
(0.0364323 0 0.00817884)
(0.0394866 0 0.00897676)
(0.042169 0 0.00969531)
(0.0445211 0 0.0103302)
(0.0465793 0 0.0108741)
(0.0483762 0 0.0113166)
(0.0499407 0 0.0116446)
(0.0512989 0 0.0118427)
(0.0524741 0 0.0118941)
(0.0534873 0 0.0117812)
(0.0543577 0 0.0114875)
(0.0551031 0 0.0109994)
(0.0557404 0 0.0103097)
(0.056286 0 0.00942109)
(0.0567573 0 0.00835081)
(0.0571736 0 0.0071358)
(0.0575571 0 0.00583595)
(0.0579331 0 0.00453392)
(0.0583249 0 0.00332875)
(0.0587439 0 0.00232065)
(0.0591712 0 0.00158672)
(0.0595466 0 0.00115456)
(0.0597909 0 0.000985853)
(0.0604471 0 0.00131248)
(0 0 0)
(0.0071527 0 0.00174962)
(0.0136653 0 0.00336818)
(0.0194098 0 0.00483121)
(0.0244754 0 0.00616292)
(0.0289417 0 0.00738186)
(0.0328779 0 0.00850111)
(0.0363448 0 0.00952892)
(0.0393955 0 0.0104692)
(0.042077 0 0.0113219)
(0.0444311 0 0.0120831)
(0.0464948 0 0.0127455)
(0.0483014 0 0.0132983)
(0.049881 0 0.0137276)
(0.0512606 0 0.0140165)
(0.0524651 0 0.0141459)
(0.053517 0 0.0140949)
(0.0544374 0 0.0138422)
(0.0552454 0 0.0133682)
(0.0559591 0 0.0126572)
(0.056595 0 0.0117026)
(0.0571684 0 0.0105122)
(0.0576931 0 0.00911544)
(0.058182 0 0.00757073)
(0.0586453 0 0.00597034)
(0.0590884 0 0.00443873)
(0.0595059 0 0.00311767)
(0.0598728 0 0.00213274)
(0.0601407 0 0.00154573)
(0.0602616 0 0.0013168)
(0.0599281 0 0.00186732)
(0 0 0)
(0.00713027 0 0.00198948)
(0.0136228 0 0.00383044)
(0.0193504 0 0.00549559)
(0.0244018 0 0.0070129)
(0.0288563 0 0.00840399)
(0.0327831 0 0.00968441)
(0.0362427 0 0.0108643)
(0.0392886 0 0.0119492)
(0.0419679 0 0.0129402)
(0.0443226 0 0.0138343)
(0.0463904 0 0.0146247)
(0.0482053 0 0.0153009)
(0.049798 0 0.015849)
(0.0511969 0 0.0162515)
(0.0524278 0 0.0164878)
(0.0535149 0 0.0165345)
(0.0544806 0 0.0163662)
(0.0553455 0 0.0159568)
(0.0561283 0 0.015281)
(0.0568452 0 0.0143192)
(0.0575092 0 0.0130637)
(0.0581283 0 0.0115271)
(0.0587054 0 0.00975411)
(0.0592372 0 0.00783416)
(0.0597152 0 0.00590999)
(0.060128 0 0.00417099)
(0.0604628 0 0.00281444)
(0.060705 0 0.00195901)
(0.0608374 0 0.0015419)
(0.0604535 0 0.000403886)
(0 0 0)
(0.00710509 0 0.00222459)
(0.0135751 0 0.00428361)
(0.0192834 0 0.00614721)
(0.0243185 0 0.00784721)
(0.0287593 0 0.00940843)
(0.0326749 0 0.010849)
(0.0361257 0 0.0121813)
(0.0391651 0 0.0134126)
(0.0418405 0 0.0145456)
(0.0441942 0 0.0155787)
(0.0462642 0 0.0165062)
(0.0480849 0 0.0173189)
(0.0496879 0 0.0180034)
(0.0511022 0 0.0185428)
(0.0523549 0 0.0189163)
(0.0534712 0 0.0190995)
(0.0544748 0 0.0190642)
(0.0553876 0 0.018779)
(0.056229 0 0.0182091)
(0.0570157 0 0.01732)
(0.0577589 0 0.0160834)
(0.0584626 0 0.0144849)
(0.0591213 0 0.0125386)
(0.0597189 0 0.0103082)
(0.0602325 0 0.00793203)
(0.0606433 0 0.00564218)
(0.0609542 0 0.00375253)
(0.0611976 0 0.00257186)
(0.0613945 0 0.00218945)
(0.0626549 0 0.00158248)
(0 0 0)
(0.00707709 0 0.00245421)
(0.0135219 0 0.0047263)
(0.0192086 0 0.00678405)
(0.0242252 0 0.00866323)
(0.0286504 0 0.010392)
(0.0325529 0 0.0119911)
(0.0359932 0 0.0134754)
(0.0390245 0 0.0148542)
(0.0416942 0 0.0161322)
(0.0440447 0 0.0173095)
(0.0461144 0 0.0183824)
(0.0479379 0 0.0193433)
(0.0495472 0 0.0201808)
(0.050972 0 0.0208796)
(0.05224 0 0.0214202)
(0.0533775 0 0.0217791)
(0.0544092 0 0.0219277)
(0.0553578 0 0.0218332)
(0.0562443 0 0.0214528)
(0.0570864 0 0.0207379)
(0.0578965 0 0.0196395)
(0.0586777 0 0.0181089)
(0.05942 0 0.0161114)
(0.0600964 0 0.0136513)
(0.060664 0 0.0108119)
(0.0610778 0 0.00780985)
(0.0613282 0 0.00504579)
(0.0614911 0 0.00307234)
(0.061708 0 0.00232912)
(0.0607842 0 0.00632146)
(0 0 0)
(0.00704624 0 0.00267747)
(0.0134632 0 0.00515675)
(0.0191259 0 0.00740353)
(0.024122 0 0.00945757)
(0.0285296 0 0.0113503)
(0.0324173 0 0.0131055)
(0.0358452 0 0.0147404)
(0.0388664 0 0.0162666)
(0.0415284 0 0.0176911)
(0.0438734 0 0.0190163)
(0.0459398 0 0.0202408)
(0.0477625 0 0.0213596)
(0.0493736 0 0.022364)
(0.0508029 0 0.0232415)
(0.0520788 0 0.023976)
(0.0532278 0 0.0245466)
(0.0542756 0 0.0249273)
(0.0552457 0 0.025086)
(0.05616 0 0.0249794)
(0.0570391 0 0.0245534)
(0.0578992 0 0.0237425)
(0.0587478 0 0.0224662)
(0.0595787 0 0.0206337)
(0.0603625 0 0.0181601)
(0.0610367 0 0.0150068)
(0.061503 0 0.0112537)
(0.0616579 0 0.00722413)
(0.0614942 0 0.00357617)
(0.0612588 0 0.00119626)
(0.0662467 0 -0.000306946)
(0 0 0)
(0.00701262 0 0.00289319)
(0.0133992 0 0.00557263)
(0.0190356 0 0.00800218)
(0.024009 0 0.0102256)
(0.0283971 0 0.0122776)
(0.0322681 0 0.014185)
(0.0356818 0 0.0159675)
(0.0386911 0 0.0176394)
(0.0413432 0 0.0192099)
(0.0436802 0 0.0206842)
(0.0457404 0 0.0220635)
(0.0475584 0 0.023346)
(0.0491662 0 0.0245266)
(0.0505938 0 0.0255968)
(0.0518691 0 0.0265449)
(0.0530188 0 0.0273555)
(0.0540688 0 0.0280076)
(0.055043 0 0.0284729)
(0.0559645 0 0.0287174)
(0.0568565 0 0.0286949)
(0.0577406 0 0.0283369)
(0.0586344 0 0.0275493)
(0.0595474 0 0.0262042)
(0.0604704 0 0.0241344)
(0.0613533 0 0.0211454)
(0.0620673 0 0.0170661)
(0.0623635 0 0.0119187)
(0.0619224 0 0.00621987)
(0.0607365 0 0.00133587)
(0.05323 0 -0.00512462)
(0 0 0)
(0.00697601 0 0.00310043)
(0.0133295 0 0.00597214)
(0.0189372 0 0.00857743)
(0.0238859 0 0.0109639)
(0.0282526 0 0.0131697)
(0.0321051 0 0.0152244)
(0.0355028 0 0.0171506)
(0.0384983 0 0.018965)
(0.0411383 0 0.0206794)
(0.0434647 0 0.0223019)
(0.0455154 0 0.0238367)
(0.0473248 0 0.0252856)
(0.0489244 0 0.0266474)
(0.0503436 0 0.0279187)
(0.0516098 0 0.029094)
(0.052749 0 0.0301647)
(0.0537861 0 0.0311189)
(0.0547452 0 0.0319397)
(0.0556496 0 0.0326083)
(0.0565235 0 0.033098)
(0.0573926 0 0.0333622)
(0.0582851 0 0.033331)
(0.0592338 0 0.0328997)
(0.0602758 0 0.0319092)
(0.0614475 0 0.0301329)
(0.0627679 0 0.027264)
(0.0641922 0 0.0230233)
(0.0655539 0 0.0175785)
(0.0666476 0 0.0120039)
(0.0566297 0 -0.00731401)
(0 0 0)
(0.0069361 0 0.0032988)
(0.0132536 0 0.00635459)
(0.0188304 0 0.00912839)
(0.0237523 0 0.0116716)
(0.0280956 0 0.0140254)
(0.0319277 0 0.0162224)
(0.0353074 0 0.0182878)
(0.038287 0 0.0202411)
(0.0409127 0 0.0220967)
(0.043226 0 0.0238656)
(0.0452641 0 0.0255553)
(0.0470609 0 0.0271712)
(0.0486472 0 0.028717)
(0.0500515 0 0.0301947)
(0.0513002 0 0.0316057)
(0.052418 0 0.0329505)
(0.0534281 0 0.0342292)
(0.0543528 0 0.0354417)
(0.0552141 0 0.0365896)
(0.0560343 0 0.0376745)
(0.0568377 0 0.0386941)
(0.0576545 0 0.0396438)
(0.0585267 0 0.040517)
(0.0595204 0 0.0413037)
(0.0607464 0 0.0419914)
(0.0623982 0 0.0425372)
(0.064789 0 0.0428352)
(0.0682851 0 0.0427742)
(0.0728878 0 0.042295)
(0.100536 0 0.0275898)
(0 0 0)
(0.00689238 0 0.00348967)
(0.0131705 0 0.00672267)
(0.0187137 0 0.009659)
(0.0236064 0 0.0123535)
(0.0279242 0 0.0148505)
(0.0317337 0 0.0171856)
(0.0350935 0 0.0193866)
(0.0380551 0 0.0214755)
(0.0406643 0 0.0234696)
(0.0429617 0 0.0253826)
(0.0449842 0 0.0272255)
(0.0467646 0 0.0290075)
(0.0483331 0 0.0307368)
(0.0497168 0 0.0324213)
(0.0509407 0 0.0340694)
(0.0520276 0 0.0356911)
(0.0529985 0 0.0372989)
(0.0538727 0 0.0389092)
(0.0546684 0 0.0405455)
(0.055403 0 0.0422382)
(0.0560933 0 0.0440316)
(0.0567578 0 0.0459927)
(0.0574194 0 0.0482212)
(0.0581087 0 0.0508689)
(0.0588686 0 0.0541503)
(0.0597506 0 0.0583424)
(0.0607985 0 0.0636858)
(0.0620005 0 0.0700563)
(0.0630673 0 0.0767103)
(0.0601393 0 0.114275)
(0 0 0)
(0.0426495 0 0)
(0.0475532 0 0)
(0.050088 0 0)
(0.0514095 0 0)
(0.0521728 0 0)
(0.0526197 0 0)
(0.0528404 0 0)
(0.0528709 0 0)
(0.052729 0 0)
(0.0524255 0 0)
(0.051968 0 0)
(0.051361 0 0)
(0.050606 0 0)
(0.0497009 0 0)
(0.0486402 0 0)
(0.0474151 0 0)
(0.0460136 0 0)
(0.0444201 0 0)
(0.0426153 0 0)
(0.040577 0 0)
(0.0382792 0 0)
(0.0356929 0 0)
(0.0327854 0 0)
(0.0295202 0 0)
(0.0258571 0 0)
(0.0217514 0 0)
(0.0171537 0 0)
(0.0120094 0 0)
(0.00625662 0 0)
(0 0 0)
(0.07033 0 -0.00644273)
(0.0486196 0 -0.00129785)
(0.0501512 0 -0.000724213)
(0.0511375 0 -0.000279678)
(0.0518689 0 -2.20495e-06)
(0.0524045 0 0.000192546)
(0.0527538 0 0.000354)
(0.0529248 0 0.000504984)
(0.0529254 0 0.000653038)
(0.0527631 0 0.000798079)
(0.0524451 0 0.000936263)
(0.0519768 0 0.00106267)
(0.0513621 0 0.0011728)
(0.0506017 0 0.00126314)
(0.0496929 0 0.00133108)
(0.0486298 0 0.00137665)
(0.0474033 0 0.00140084)
(0.0460012 0 0.00140394)
(0.0444076 0 0.00138717)
(0.0426032 0 0.00135202)
(0.0405654 0 0.00130005)
(0.0382684 0 0.00123262)
(0.0356829 0 0.00115087)
(0.0327763 0 0.00105561)
(0.0295121 0 0.000947283)
(0.0258501 0 0.000825928)
(0.0217455 0 0.000691164)
(0.0171489 0 0.000542168)
(0.0120059 0 0.000377668)
(0.00625448 0 0.000195887)
(0 0 0)
(0.049183 0 0.00169666)
(0.0540944 0 -0.00079436)
(0.0530994 0 -0.00049571)
(0.0527039 0 -0.000136099)
(0.052753 0 0.00018758)
(0.0529419 0 0.000480068)
(0.0531008 0 0.000762877)
(0.0531554 0 0.00104849)
(0.0530774 0 0.00133824)
(0.0528588 0 0.00162571)
(0.052499 0 0.00190037)
(0.052 0 0.00215126)
(0.0513629 0 0.0023691)
(0.050587 0 0.00254713)
(0.0496679 0 0.00268112)
(0.0485978 0 0.00277038)
(0.0473673 0 0.00281601)
(0.0459636 0 0.00281943)
(0.0443701 0 0.00278336)
(0.0425667 0 0.00271091)
(0.0405308 0 0.00260516)
(0.0382361 0 0.00246885)
(0.0356532 0 0.00230421)
(0.0327495 0 0.00211282)
(0.0294885 0 0.00189553)
(0.0258297 0 0.00165236)
(0.0217286 0 0.00138254)
(0.0171358 0 0.00108437)
(0.0119968 0 0.000755297)
(0.00624977 0 0.000391734)
(0 0 0)
(0.0544116 0 -0.000193842)
(0.0538796 0 9.0896e-05)
(0.0537688 0 0.00011628)
(0.0536136 0 0.000292005)
(0.0535599 0 0.000560189)
(0.0535692 0 0.000886821)
(0.0535623 0 0.00125837)
(0.0534822 0 0.00166441)
(0.0532985 0 0.0020906)
(0.0529977 0 0.00251805)
(0.052575 0 0.00292658)
(0.0520286 0 0.00329807)
(0.051357 0 0.00361838)
(0.0505568 0 0.00387806)
(0.0496215 0 0.00407266)
(0.0485415 0 0.0042001)
(0.0473057 0 0.00426086)
(0.0459001 0 0.00425867)
(0.044307 0 0.00419807)
(0.0425058 0 0.00408386)
(0.0404731 0 0.00392065)
(0.0381824 0 0.00371249)
(0.0356041 0 0.00346263)
(0.0327052 0 0.00317333)
(0.0294494 0 0.00284574)
(0.0257961 0 0.00247983)
(0.0217008 0 0.00207433)
(0.0171142 0 0.00162665)
(0.0119819 0 0.00113285)
(0.00624203 0 0.000587499)
(0 0 0)
(0.0538363 0 0.000848992)
(0.054333 0 0.000637592)
(0.0543867 0 0.000652949)
(0.0543647 0 0.000773937)
(0.0543015 0 0.00102123)
(0.0542086 0 0.00138484)
(0.0540669 0 0.00184421)
(0.0538533 0 0.00237227)
(0.0535519 0 0.00293715)
(0.0531538 0 0.00350512)
(0.0526541 0 0.0040451)
(0.0520492 0 0.00453163)
(0.0513348 0 0.00494627)
(0.0505046 0 0.0052777)
(0.0495495 0 0.00552122)
(0.0484581 0 0.00567521)
(0.0472169 0 0.00574127)
(0.0458098 0 0.00572496)
(0.0442182 0 0.0056326)
(0.0424204 0 0.00547066)
(0.0403925 0 0.00524519)
(0.0381076 0 0.00496147)
(0.0355356 0 0.0046236)
(0.0326437 0 0.0042344)
(0.0293951 0 0.00379521)
(0.0257495 0 0.00330582)
(0.0216623 0 0.00276436)
(0.0170843 0 0.00216723)
(0.0119612 0 0.00150908)
(0.0062314 0 0.000782545)
(0 0 0)
(0.0543244 0 0.00124749)
(0.0550362 0 0.00110146)
(0.0551213 0 0.00112366)
(0.0551233 0 0.00124683)
(0.0550261 0 0.00151935)
(0.0548394 0 0.00195147)
(0.0545709 0 0.00252164)
(0.0542238 0 0.00318834)
(0.0537992 0 0.00390185)
(0.0532964 0 0.00461349)
(0.0527131 0 0.00528169)
(0.0520447 0 0.00587489)
(0.0512842 0 0.00637195)
(0.0504223 0 0.00676112)
(0.0494471 0 0.00703822)
(0.0483445 0 0.00720396)
(0.0470986 0 0.00726262)
(0.0456914 0 0.00722131)
(0.0441028 0 0.0070881)
(0.0423102 0 0.00687105)
(0.040289 0 0.00657754)
(0.0380117 0 0.00621386)
(0.0354481 0 0.00578481)
(0.032565 0 0.00529357)
(0.0293257 0 0.0047415)
(0.02569 0 0.00412804)
(0.0216132 0 0.00345061)
(0.0170462 0 0.00270452)
(0.011935 0 0.00188288)
(0.00621787 0 0.000976289)
(0 0 0)
(0.056746 0 0.00125497)
(0.0559884 0 0.00149754)
(0.0560021 0 0.00154324)
(0.0559419 0 0.00169824)
(0.055757 0 0.00203822)
(0.0554491 0 0.00258422)
(0.0550405 0 0.00330483)
(0.0545533 0 0.00413877)
(0.0540021 0 0.00501674)
(0.0533934 0 0.00587573)
(0.0527267 0 0.00666602)
(0.051996 0 0.00735288)
(0.0511916 0 0.00791532)
(0.0503005 0 0.00834352)
(0.0493078 0 0.00863593)
(0.0481965 0 0.00879641)
(0.0469484 0 0.00883221)
(0.0455434 0 0.00875265)
(0.0439601 0 0.00856762)
(0.042175 0 0.00828664)
(0.0401625 0 0.00791824)
(0.0378949 0 0.00746944)
(0.0353417 0 0.00694552)
(0.0324694 0 0.00634978)
(0.0292416 0 0.00568338)
(0.0256177 0 0.00494526)
(0.0215535 0 0.00413197)
(0.017 0 0.00323757)
(0.0119031 0 0.00225355)
(0.00620147 0 0.00116837)
(0 0 0)
(0.0563009 0 0.0020845)
(0.056905 0 0.00191374)
(0.0569309 0 0.00193651)
(0.0567936 0 0.00212705)
(0.0564735 0 0.00258035)
(0.0560049 0 0.00330224)
(0.0554338 0 0.00422911)
(0.0547981 0 0.0052683)
(0.0541208 0 0.00632845)
(0.0534116 0 0.00733502)
(0.052669 0 0.00823497)
(0.0518841 0 0.00899532)
(0.0510432 0 0.00959927)
(0.0501297 0 0.0100419)
(0.0491253 0 0.0103264)
(0.0480102 0 0.0104607)
(0.0467638 0 0.0104553)
(0.0453645 0 0.0103221)
(0.0437895 0 0.0100727)
(0.0420144 0 0.00971789)
(0.0400131 0 0.00926692)
(0.0377573 0 0.00872731)
(0.0352165 0 0.00810448)
(0.0323572 0 0.00740159)
(0.0291427 0 0.00661938)
(0.0255329 0 0.00575606)
(0.0214835 0 0.00480715)
(0.0169457 0 0.00376534)
(0.0118656 0 0.00262034)
(0.0061822 0 0.00135839)
(0 0 0)
(0.057358 0 0.00251342)
(0.0580742 0 0.00222823)
(0.057989 0 0.00223662)
(0.0576637 0 0.00250554)
(0.0571271 0 0.00315887)
(0.0564485 0 0.00415132)