/*--------------------------------*- C++ -*----------------------------------*\
| =========                 |                                                 |
| \\      /  F ield         | OpenFOAM: The Open Source CFD Toolbox           |
|  \\    /   O peration     | Version:  dev                                   |
|   \\  /    A nd           | Web:      www.OpenFOAM.org                      |
|    \\/     M anipulation  |                                                 |
\*---------------------------------------------------------------------------*/
FoamFile
{
    version     2.0;
    format      ascii;
    class       surfaceScalarField;
    location    "0.36";
    object      phi;
}
// * * * * * * * * * * * * * * * * * * * * * * * * * * * * * * * * * * * * * //

dimensions      [0 3 -1 0 0 0 0];

internalField   nonuniform List<scalar> 
5457
(
0.198347
0.00165136
0.196402
0.00194329
0.194133
0.00226788
0.191502
0.00263205
0.188505
0.0029987
0.185143
0.00336419
0.18141
0.00373598
0.177293
0.00412075
0.172774
0.00452312
0.167831
0.00494659
0.16244
0.00539403
0.156574
0.00586769
0.150207
0.00636885
0.14331
0.00689745
0.135857
0.00745157
0.127829
0.00802669
0.119212
0.00861479
0.110006
0.00920332
0.100228
0.0097741
0.0899228
0.0103022
0.0791647
0.0107548
0.0680711
0.0110906
0.0568092
0.0112593
0.0456031
0.0112042
0.0347372
0.0108645
0.0245547
0.0101815
0.0154492
0.00910491
0.00785825
0.00759063
0.00224831
0.00560982
0.00224828
0.199934
0.00171469
0.19919
0.00268596
0.19802
0.00343736
0.196455
0.00419827
0.19449
0.00496534
0.192123
0.00573359
0.189348
0.00651433
0.186152
0.00731995
0.182519
0.00815978
0.178428
0.00904113
0.173855
0.00997012
0.168773
0.0109516
0.163155
0.0119887
0.156971
0.013082
0.150193
0.0142287
0.142797
0.015421
0.134765
0.0166446
0.126088
0.0178768
0.116775
0.0190843
0.106852
0.0202218
0.0963735
0.0212301
0.0854253
0.0220357
0.0741291
0.0225529
0.0626433
0.0226879
0.0511593
0.022347
0.0398909
0.0214489
0.0290541
0.0199411
0.0188267
0.0178178
0.00922983
0.0152066
0.0114781
0.199786
0.00192645
0.199102
0.00336835
0.198
0.00453913
0.196528
0.00566991
0.194694
0.00680161
0.192492
0.0079375
0.189919
0.00909094
0.186964
0.0102783
0.183615
0.0115133
0.179852
0.0128069
0.175657
0.0141686
0.171005
0.0156062
0.165869
0.0171253
0.160224
0.0187284
0.154038
0.0204133
0.147286
0.022172
0.13994
0.0239877
0.131982
0.0258327
0.123397
0.0276656
0.114187
0.0294288
0.104367
0.0310464
0.0939753
0.0324245
0.0830707
0.0334549
0.0717364
0.0340201
0.060077
0.0340049
0.0482088
0.0333161
0.036243
0.0319063
0.0242554
0.029805
0.0122116
0.0272503
0.0236896
0.199702
0.0022217
0.199019
0.00404971
0.197936
0.00562224
0.196487
0.00711839
0.194687
0.00860336
0.192534
0.0100934
0.190023
0.0116048
0.187149
0.0131565
0.1839
0.0147657
0.180264
0.0164467
0.176224
0.0182117
0.171761
0.020071
0.166856
0.0220325
0.161484
0.0241006
0.155621
0.0262751
0.149243
0.0285493
0.142321
0.0309071
0.13483
0.0333208
0.126745
0.0357473
0.118045
0.038126
0.108713
0.0403754
0.098742
0.0423922
0.0881369
0.0440574
0.0769153
0.0452396
0.0651125
0.0458062
0.0527827
0.0456449
0.0399987
0.0446896
0.0268561
0.0429473
0.013482
0.0406242
0.0371716
0.199663
0.00255625
0.198972
0.00473874
0.197906
0.00668803
0.196483
0.00854113
0.194718
0.0103703
0.19261
0.0122039
0.190155
0.0140624
0.187348
0.0159671
0.18418
0.0179378
0.180639
0.0199917
0.17671
0.0221432
0.172379
0.0244049
0.167626
0.0267866
0.162433
0.0292947
0.156776
0.031931
0.150633
0.0346909
0.143977
0.0375611
0.136779
0.0405168
0.129005
0.0435184
0.120619
0.0465085
0.111582
0.049409
0.101853
0.0521186
0.0913942
0.0545133
0.0801781
0.0564535
0.0681932
0.0577896
0.0554621
0.058375
0.0420617
0.0580894
0.0281539
0.0568548
0.0140415
0.0547365
0.0512131
0.199646
0.00290792
0.198952
0.00543011
0.197907
0.00773291
0.196518
0.00993043
0.194795
0.0120938
0.192742
0.01426
0.190353
0.0164543
0.187623
0.0187004
0.184544
0.0210207
0.181104
0.0234347
0.177292
0.0259592
0.17309
0.0286089
0.168483
0.0313955
0.16345
0.0343277
0.157971
0.0374098
0.152021
0.0406401
0.145571
0.0440093
0.138587
0.0474977
0.13103
0.0510725
0.122852
0.0546839
0.113995
0.0582625
0.104396
0.0617147
0.0939875
0.0649194
0.0827082
0.0677307
0.0705187
0.0699775
0.0574276
0.071465
0.0435297
0.0719866
0.0290499
0.0713343
0.0144096
0.0693766
0.0656226
0.199641
0.0032643
0.198953
0.00611573
0.197932
0.00875249
0.196583
0.0112798
0.194913
0.0137656
0.192923
0.0162522
0.190611
0.0187695
0.18797
0.0213441
0.184994
0.0240006
0.181672
0.0267608
0.17799
0.0296441
0.173934
0.0326672
0.169487
0.0358446
0.164628
0.0391874
0.159335
0.0427029
0.15358
0.0463937
0.147332
0.0502556
0.140552
0.0542757
0.133192
0.0584301
0.125192
0.0626802
0.116484
0.0669681
0.106984
0.0712112
0.0966042
0.0752968
0.0852569
0.0790759
0.0728807
0.0823521
0.0594716
0.084873
0.0451312
0.0863264
0.0301185
0.0863467
0.0149059
0.0845891
0.0805285
0.199644
0.00361775
0.198969
0.00678812
0.197978
0.00974172
0.196675
0.0125831
0.195064
0.0153777
0.193147
0.0181711
0.190923
0.0209973
0.188385
0.0238856
0.185526
0.026863
0.182336
0.0299538
0.178804
0.0331798
0.174913
0.0365603
0.170647
0.0401124
0.165985
0.0438505
0.160902
0.0477861
0.155369
0.0519264
0.149349
0.0562739
0.142798
0.0608242
0.135662
0.0655639
0.127872
0.0704674
0.119346
0.0754916
0.109985
0.080569
0.0996808
0.0855987
0.0883229
0.0904317
0.0758223
0.0948511
0.0621471
0.0985472
0.0473748
0.101098
0.0317542
0.101967
0.015749
0.100594
0.0962775
0.199651
0.00396314
0.198996
0.00744096
0.198041
0.0106953
0.19679
0.0138343
0.195246
0.0169225
0.193411
0.0200076
0.191284
0.023127
0.18886
0.0263127
0.186133
0.0295941
0.183092
0.0329979
0.179727
0.0365481
0.176023
0.0402672
0.171962
0.044175
0.167524
0.04829
0.162682
0.0526279
0.157406
0.057202
0.151657
0.0620223
0.145385
0.0670939
0.138531
0.0724158
0.131019
0.0779773
0.122755
0.0837529
0.113627
0.0896942
0.103505
0.0957176
0.0922512
0.101684
0.0797345
0.107366
0.0658657
0.112415
0.0506508
0.116312
0.0342671
0.11835
0.0171155
0.117746
0.113393
0.199663
0.00429677
0.199032
0.00806899
0.198118
0.011608
0.196924
0.0150278
0.195454
0.0183932
0.19371
0.0217535
0.191691
0.025149
0.189393
0.0286142
0.186809
0.0321807
0.183933
0.0358776
0.180753
0.0397314
0.177256
0.0437672
0.173425
0.0480083
0.169239
0.0524769
0.164674
0.0571939
0.159697
0.0621788
0.154268
0.0674498
0.148338
0.0730226
0.141842
0.0789095
0.134701
0.0851165
0.126813
0.0916385
0.118053
0.0984514
0.10827
0.105498
0.0972898
0.112662
0.0849191
0.119735
0.0709726
0.12636
0.0553188
0.131966
0.0379749
0.135694
0.0192059
0.136515
0.132599
0.199677
0.00461584
0.199075
0.00866784
0.198207
0.0124749
0.197076
0.0161582
0.195686
0.0197832
0.194041
0.0234011
0.192138
0.0270541
0.189976
0.0307793
0.18755
0.0346105
0.184852
0.0385785
0.181874
0.0427126
0.178604
0.0470403
0.175026
0.0515882
0.171122
0.0563823
0.166868
0.0614487
0.162233
0.0668132
0.15718
0.072502
0.15166
0.0785418
0.145609
0.0849585
0.138947
0.0917762
0.131571
0.0990129
0.123346
0.106674
0.114101
0.11474
0.10362
0.123142
0.0916305
0.131723
0.0778081
0.140182
0.0617983
0.147975
0.0433185
0.154173
0.0223427
0.15749
0.154941
0.199694
0.00491813
0.199124
0.00923384
0.198306
0.0132919
0.197243
0.0172204
0.19594
0.0210867
0.194399
0.0249432
0.192621
0.0288341
0.190605
0.0327985
0.188347
0.036872
0.185841
0.0410875
0.183081
0.045476
0.180056
0.0500678
0.176755
0.0548921
0.17316
0.0599788
0.169251
0.0653582
0.165002
0.0710622
0.160379
0.0771246
0.155338
0.0835821
0.149821
0.090474
0.143753
0.0978422
0.137035
0.105729
0.129531
0.114176
0.12106
0.123209
0.111367
0.132833
0.100097
0.142991
0.0867553
0.153523
0.0706698
0.16406
0.0510379
0.173805
0.0271667
0.181361
0.182108
0.199712
0.00520185
0.199178
0.00976392
0.198413
0.014055
0.197422
0.01821
0.196211
0.0222984
0.194782
0.0263736
0.193137
0.0304816
0.191275
0.0346632
0.189195
0.0389553
0.186893
0.0433925
0.184364
0.0480077
0.181602
0.0528328
0.178597
0.0578998
0.175336
0.0632412
0.171804
0.0688911
0.16798
0.0748864
0.163838
0.0812671
0.159341
0.0880784
0.154442
0.0953711
0.14908
0.103203
0.143166
0.111641
0.13658
0.12076
0.129143
0.130644
0.120591
0.141383
0.110512
0.15307
0.0982526
0.165781
0.0827728
0.179539
0.0624613
0.194116
0.0351073
0.208715
0.217215
0.199732
0.00546557
0.199236
0.0102555
0.198528
0.0147609
0.197613
0.0191232
0.196498
0.0234138
0.195186
0.0276871
0.193679
0.0319905
0.191979
0.036366
0.190085
0.0408518
0.187997
0.0454836
0.185713
0.0502956
0.183227
0.0553212
0.180536
0.0605938
0.177631
0.0661481
0.174502
0.0720208
0.171137
0.078252
0.167518
0.0848863
0.163621
0.0919747
0.159415
0.0995763
0.154856
0.107761
0.149881
0.116615
0.144398
0.126241
0.138265
0.136776
0.13125
0.148397
0.122963
0.161355
0.112715
0.176029
0.0992218
0.193032
0.079964
0.213374
0.0496967
0.238982
0.266912
0.199752
0.00570827
0.199297
0.0107066
0.198648
0.015407
0.197813
0.0199569
0.196798
0.0244292
0.195606
0.0288794
0.194243
0.0333557
0.19271
0.0379012
0.19101
0.0425548
0.189144
0.047353
0.187112
0.0523307
0.184914
0.0575219
0.182549
0.0629609
0.180016
0.0686835
0.177311
0.0747274
0.174429
0.0811343
0.171365
0.0879505
0.16811
0.0952297
0.164651
0.103035
0.160969
0.111442
0.157037
0.120546
0.152808
0.130468
0.14821
0.141373
0.143112
0.153494
0.137275
0.167191
0.13024
0.183063
0.121047
0.202225
0.107353
0.227068
0.0812873
0.265048
0.348199
-0.00794736
0.0079473
-0.0199984
0.0120508
-0.0346286
0.0146296
-0.051127
0.0164973
-0.0689162
0.0177872
-0.0875416
0.0186227
-0.106619
0.0190741
-0.125796
0.0191725
-0.144722
0.0189211
-0.163031
0.0183034
-0.180326
0.0172904
-0.196177
0.0158472
-0.210123
0.0139416
-0.221676
0.0115499
-0.230345
0.00866627
-0.235657
0.00531026
-0.23718
0.00152146
-0.234515
-0.002664
-0.227397
-0.00711707
-0.215788
-0.0116066
-0.199843
-0.0159417
-0.179873
-0.0199659
-0.156315
-0.0235521
-0.129701
-0.0266089
-0.100605
-0.02909
-0.0696162
-0.0309817
-0.0372958
-0.0323134
-0.00310906
-0.0341794
0.033214
-0.0363154
-0.045373
-0.0122718
0.0202191
-0.0260297
0.0258085
-0.0413836
0.0299829
-0.0580783
0.0331907
-0.0757896
0.0354967
-0.0941921
0.0370225
-0.112966
0.0378447
-0.13179
0.0379918
-0.150326
0.037453
-0.168214
0.0361864
-0.185057
0.034128
-0.200418
0.0312044
-0.213828
0.0273476
-0.224791
0.0225086
-0.232801
0.0166742
-0.237377
0.00988445
-0.238089
0.00223264
-0.234611
-0.00614245
-0.22677
-0.014957
-0.214566
-0.0238075
-0.198161
-0.0323437
-0.177858
-0.0402643
-0.154088
-0.0473173
-0.127375
-0.053316
-0.0982907
-0.0581679
-0.0673555
-0.0619103
-0.0348828
-0.0647791
-0.000997432
-0.0680575
0.0345389
-0.0718441
-0.083646
-0.0140705
0.0342895
-0.0289435
0.0406813
-0.0445511
0.0455899
-0.0609414
0.0495798
-0.0780188
0.0525722
-0.0956117
0.0546127
-0.113499
0.0557288
-0.131422
0.0559101
-0.149082
0.0551085
-0.166143
0.0532426
-0.182224
0.0502039
-0.196895
0.0458708
-0.209684
0.0401324
-0.220087
0.0329088
-0.227592
0.0241756
-0.231702
0.0139926
-0.231992
0.00252222
-0.228134
-0.0100006
-0.219988
-0.0231014
-0.207596
-0.0361969
-0.191148
-0.048789
-0.170959
-0.0604487
-0.147462
-0.0708087
-0.121185
-0.0795875
-0.0927046
-0.0866424
-0.0625429
-0.0920653
-0.0310311
-0.096284
0.00129475
-0.100376
0.0345264
-0.105068
-0.117049
-0.0148364
0.0491259
-0.030058
0.0559026
-0.0454387
0.06097
-0.061179
0.065319
-0.0773404
0.0687318
-0.0938832
0.0711529
-0.110685
0.0725271
-0.127556
0.0727768
-0.144243
0.0717908
-0.160433
0.0694282
-0.175754
0.0655203
-0.189772
0.0598842
-0.201998
0.0523539
-0.211903
0.0428105
-0.218945
0.0312145
-0.222601
0.0176471
-0.222434
0.00235385
-0.218151
-0.014283
-0.209691
-0.0315604
-0.197152
-0.048733
-0.180756
-0.0651819
-0.160825
-0.0803758
-0.137785
-0.0938435
-0.112158
-0.105209
-0.0845224
-0.114272
-0.0554285
-0.121153
-0.0252809
-0.126425
0.00506373
-0.130713
0.0355
-0.135497
-0.146248
-0.0148565
0.0639823
-0.0297312
0.0707771
-0.0444019
0.0756401
-0.0591693
0.0800853
-0.0741893
0.0837501
-0.0895115
0.0864725
-0.105087
0.0880994
-0.120781
0.0884669
-0.13638
0.0873846
-0.15159
0.0846338
-0.166043
0.0799685
-0.179297
0.0731343
-0.190849
0.0639014
-0.200145
0.0521035
-0.20662
0.0376862
-0.209736
0.0207607
-0.209052
0.00166886
-0.204325
-0.0190099
-0.195585
-0.0402988
-0.182999
-0.0613173
-0.166813
-0.081364
-0.147345
-0.0998402
-0.124999
-0.116184
-0.100285
-0.129917
-0.0737786
-0.140772
-0.046062
-0.148863
-0.017658
-0.154822
0.0104131
-0.158777
0.0378847
-0.162961
-0.17169
-0.0141322
0.0781145
-0.0280189
0.0846636
-0.0415305
0.0891511
-0.0550137
0.0935675
-0.0686677
0.0974024
-0.082591
0.100393
-0.0967813
0.102287
-0.111143
0.102825
-0.125492
0.101729
-0.139558
0.0986946
-0.152982
0.0933877
-0.165324
0.0854727
-0.17607
0.0746433
-0.184646
0.060676
-0.190461
0.0434983
-0.192965
0.0232618
-0.19172
0.000422764
-0.18655
-0.0241799
-0.177598
-0.0492498
-0.165105
-0.0738073
-0.149338
-0.0971287
-0.130581
-0.118593
-0.109199
-0.137561
-0.0856846
-0.153427
-0.0606016
-0.165849
-0.0345602
-0.174898
-0.00825226
-0.181123
0.017345
-0.184368
0.0418716
-0.18748
-0.193747
-0.0126597
0.0907741
-0.0249599
0.0969636
-0.0368915
0.101082
-0.0487817
0.105457
-0.0608292
0.109448
-0.0731496
0.112712
-0.0857648
0.114899
-0.0986078
0.115664
-0.111521
0.114638
-0.124256
0.111425
-0.136474
0.105602
-0.147746
0.0967404
-0.157552
0.0844451
-0.165298
0.0684185
-0.170365
0.0485625
-0.17219
0.0250839
-0.170354
-0.001414
-0.164774
-0.0297597
-0.155718
-0.0583053
-0.143512
-0.0860112
-0.128415
-0.112223
-0.110656
-0.136348
-0.0905325
-0.15768
-0.0685193
-0.175434
-0.0451515
-0.189211
-0.0210272
-0.199016
0.0028347
-0.204978
0.0257699
-0.207296
0.0475185
-0.209221
-0.21276
-0.0104919
0.101266
-0.0206702
0.107142
-0.0306274
0.111039
-0.0406136
0.115442
-0.0507961
0.119629
-0.0612847
0.123198
-0.0721091
0.12572
-0.0832206
0.126772
-0.0944868
0.1259
-0.105687
0.122621
-0.116509
0.116419
-0.126542
0.106769
-0.135273
0.093172
-0.142092
0.0752335
-0.146344
0.0528118
-0.147458
0.0261953
-0.145015
-0.00385743
-0.139069
-0.0357063
-0.130056
-0.0673173
-0.118371
-0.0976941
-0.10423
-0.126361
-0.0877766
-0.152798
-0.0692112
-0.176241
-0.0490004
-0.19564
-0.0276324
-0.210573
-0.00577575
-0.220866
0.0154671
-0.226215
0.0357502
-0.227572
0.0548229
-0.228286
-0.229006
-0.00774358
0.109009
-0.0153584
0.114756
-0.0229809
0.118661
-0.0307548
0.123215
-0.0388007
0.127674
-0.0472097
0.131605
-0.0560076
0.134515
-0.0651566
0.135917
-0.0745458
0.135285
-0.0839854
0.132056
-0.0931978
0.125627
-0.101805
0.115372
-0.109317
0.10068
-0.115117
0.0810296
-0.118502
0.0561938
-0.118883
0.0265742
-0.11584
-0.00690204
-0.10963
-0.0419167
-0.100864
-0.0760817
-0.0899749
-0.108582
-0.0770861
-0.139247
-0.0622394
-0.167641
-0.045518
-0.192958
-0.0273761
-0.213777
-0.0082155
-0.229728
0.0109036
-0.239979
0.0294142
-0.244719
0.0472744
-0.245425
0.0637193
-0.244724
-0.242692
-0.00458383
0.113593
-0.00930675
0.119479
-0.0142791
0.123633
-0.0195473
0.128482
-0.0251871
0.133312
-0.0312641
0.13768
-0.0377926
0.141041
-0.0447384
0.14286
-0.0520059
0.142549
-0.0594361
0.139482
-0.0667955
0.132983
-0.0737539
0.122326
-0.0798642
0.106786
-0.084533
0.0856949
-0.0870139
0.0586718
-0.0866547
0.0262128
-0.083051
-0.0105071
-0.0767862
-0.0481817
-0.0685584
-0.0843089
-0.0587773
-0.118361
-0.0474248
-0.150597
-0.0344337
-0.180628
-0.0198208
-0.207567
-0.00392626
-0.229666
0.0124988
-0.246148
0.0287792
-0.256254
0.0448301
-0.260763
0.0602082
-0.260796
0.0740684
-0.258577
-0.253971
-0.00122307
0.114816
-0.00283252
0.121088
-0.00489543
0.125695
-0.00739825
0.130984
-0.0103883
0.136301
-0.0138997
0.141189
-0.0179318
0.145071
-0.0224468
0.147372
-0.0273508
0.147449
-0.0325091
0.144636
-0.0377374
0.138207
-0.0427647
0.12735
-0.0472126
0.11123
-0.0505594
0.0890381
-0.0521009
0.0602104
-0.0509822
0.0250919
-0.0469334
-0.0145572
-0.0409951
-0.0541204
-0.0337217
-0.0915817
-0.0253965
-0.126685
-0.0158412
-0.16015
-0.00482481
-0.191641
0.00747473
-0.219862
0.0206146
-0.242802
0.0341937
-0.259722
0.047994
-0.270048
0.0615541
-0.274317
0.074371
-0.273607
0.0856764
-0.269875
-0.26295
0.00216891
0.112647
0.00379033
0.119467
0.00479789
0.124687
0.00524376
0.130537
0.00508964
0.136453
0.00432987
0.141947
0.00298033
0.146418
0.0010895
0.149259
-0.0012477
0.149782
-0.00390308
0.147287
-0.00671901
0.141019
-0.00948938
0.130116
-0.0119415
0.113679
-0.0137221
0.0908153
-0.0142279
0.0607133
-0.0122827
0.0231446
-0.00811543
-0.0187259
-0.00292645
-0.0593098
0.00292297
-0.0974306
0.00950517
-0.133266
0.0170728
-0.167715
0.0257544
-0.20032
0.0354195
-0.229523
0.0460145
-0.253392
0.0571122
-0.270814
0.0683623
-0.281293
0.0793228
-0.285271
0.0895265
-0.283803
0.0983048
-0.278646
-0.269712
0.00554889
0.107098
0.0104595
0.114556
0.0145844
0.120562
0.0180365
0.127084
0.0207759
0.133713
0.0228139
0.139907
0.0241951
0.145034
0.0250025
0.148449
0.0253386
0.149443
0.0253233
0.147299
0.0251003
0.141238
0.0248308
0.130382
0.0247199
0.113786
0.0251267
0.0904051
0.026726
0.0591113
0.0296466
0.020222
0.0329344
-0.022015
0.036461
-0.0628369
0.0402604
-0.10123
0.0447649
-0.137769
0.0502079
-0.173156
0.0566839
-0.206793
0.0640988
-0.236934
0.0722865
-0.261575
0.0808781
-0.279401
0.0895194
-0.289928
0.0978246
-0.29357
0.105396
-0.291368
0.111682
-0.284926
-0.274321
0.00899503
0.0981033
0.0172082
0.106343
0.0243799
0.113389
0.0308077
0.120656
0.0364058
0.128113
0.0411896
0.135121
0.0452538
0.140967
0.0487162
0.144983
0.0516941
0.146461
0.0543137
0.144675
0.0567126
0.138835
0.0590336
0.128057
0.0614604
0.111355
0.0642918
0.0875706
0.0676284
0.055772
0.0707831
0.0170652
0.073143
-0.0243762
0.0750982
-0.0647926
0.0770971
-0.103228
0.0796955
-0.140366
0.0832171
-0.176676
0.0877193
-0.211292
0.0930413
-0.242253
0.0989277
-0.267457
0.105043
-0.285511
0.111074
-0.295954
0.116718
-0.299208
0.121672
-0.296315
0.125517
-0.288765
-0.276844
0.0128819
0.0852213
0.02415
0.0950742
0.0341333
0.103405
0.0434841
0.111304
0.0517967
0.119799
0.0591471
0.127769
0.0657176
0.134394
0.0716698
0.139028
0.077139
0.140988
0.0822555
0.139555
0.0871479
0.133939
0.0919376
0.123264
0.0967413
0.106549
0.101586
0.0827229
0.106055
0.0513007
0.109369
0.0137486
0.111144
-0.0261516
0.111859
-0.0655087
0.112364
-0.103732
0.113427
-0.141428
0.115411
-0.178658
0.118269
-0.214147
0.121724
-0.245705
0.125457
-0.271186
0.129171
-0.28922
0.132633
-0.299411
0.135648
-0.302217
0.138034
-0.298695
0.13951
-0.290233
-0.277358
0.207426
0.00593661
0.206998
0.0111302
0.206389
0.016012
0.20561
0.020735
0.204665
0.0253735
0.203561
0.029984
0.202303
0.0346151
0.200896
0.0393105
0.199345
0.0441096
0.197652
0.0490491
0.195822
0.0541638
0.193858
0.059488
0.191766
0.0650557
0.189549
0.0709025
0.187212
0.0770658
0.184761
0.0835865
0.182202
0.0905103
0.179542
0.0978894
0.176792
0.105785
0.173961
0.114272
0.171065
0.123442
0.16812
0.133413
0.165147
0.144344
0.16218
0.156461
0.159272
0.170099
0.156551
0.185784
0.154423
0.204352
0.154677
0.226813
0.169265
0.25046
0.262922
0.254543
0.212469
0.00614496
0.212078
0.0115156
0.211526
0.0165608
0.210821
0.021438
0.20997
0.0262233
0.208982
0.0309733
0.207861
0.035737
0.206616
0.0405581
0.205252
0.045476
0.203777
0.050527
0.202199
0.0557454
0.200525
0.0611646
0.198766
0.0668177
0.196932
0.0727386
0.195037
0.0789626
0.193097
0.0855279
0.191131
0.0924764
0.189166
0.0998552
0.187233
0.107718
0.185375
0.11613
0.183651
0.125166
0.182142
0.134921
0.180974
0.145512
0.180346
0.157088
0.180617
0.169827
0.182508
0.183892
0.187591
0.199269
0.198814
0.21559
0.217432
0.231843
0.247002
0.233351
0.217635
0.00633089
0.217287
0.0118584
0.216797
0.017047
0.216174
0.022058
0.215428
0.0269687
0.214566
0.0318358
0.213596
0.0367082
0.212527
0.041629
0.211369
0.0466371
0.210131
0.051768
0.208824
0.0570547
0.207463
0.0625288
0.206062
0.0682214
0.20464
0.0741637
0.203217
0.0803874
0.201821
0.0869257
0.200484
0.0938144
0.199248
0.101092
0.198167
0.1088
0.197311
0.116986
0.196774
0.125702
0.196688
0.135006
0.197246
0.144954
0.198733
0.155601
0.201586
0.166973
0.206451
0.179028
0.214121
0.191599
0.22521
0.204501
0.239231
0.217822
0.228831
0.257402
0.222929
0.00649213
0.222627
0.0121544
0.222205
0.0174646
0.221672
0.0225874
0.221039
0.0276006
0.220314
0.0325607
0.219507
0.0375161
0.218629
0.0425091
0.217691
0.0475774
0.216707
0.0527551
0.215691
0.0580732
0.214662
0.0635608
0.21364
0.0692462
0.21265
0.0751565
0.211721
0.0813186
0.210889
0.0877594
0.210199
0.0945061
0.209705
0.101586
0.209478
0.109028
0.209608
0.116857
0.21021
0.1251
0.211442
0.133774
0.21351
0.142885
0.216691
0.15242
0.221336
0.162329
0.227854
0.172511
0.236656
0.182796
0.248258
0.1929
0.263556
0.202524
0.20931
0.283077
0.228352
0.00662651
0.2281
0.0123994
0.227752
0.0178081
0.227317
0.0230192
0.226805
0.0281106
0.226227
0.0331382
0.225594
0.0381497
0.224919
0.043186
0.224215
0.0482834
0.223499
0.053474
0.222789
0.0587859
0.222108
0.0642454
0.22148
0.0698769
0.220936
0.0757028
0.220512
0.0817444
0.220253
0.0880209
0.22021
0.0945503
0.22045
0.101348
0.221051
0.108427
0.222114
0.115795
0.223763
0.123451
0.226157
0.131381
0.229486
0.139556
0.233983
0.147923
0.239922
0.15639
0.247615
0.164819
0.257412
0.173
0.269729
0.180582
0.285011
0.187243
0.191899
0.302422
0.233907
0.00673204
0.23371
0.01259
0.233441
0.0180723
0.233109
0.0233468
0.232727
0.0284909
0.232304
0.0335598
0.231854
0.0385994
0.231392
0.0436492
0.230934
0.0487439
0.230497
0.0539134
0.230104
0.0591819
0.22978
0.064572
0.229555
0.0701045
0.229464
0.0757965
0.229548
0.0816627
0.229857
0.0877148
0.230448
0.0939612
0.231391
0.100406
0.232773
0.107047
0.234693
0.113876
0.237273
0.120872
0.240656
0.127998
0.24501
0.135203
0.250525
0.142408
0.257415
0.1495
0.265908
0.156327
0.276225
0.162683
0.288518
0.16829
0.302851
0.17291
0.176053
0.318698
0.239598
0.00680692
0.239458
0.0127229
0.239272
0.0182527
0.239051
0.0235645
0.238804
0.0287351
0.238544
0.033818
0.238286
0.0388574
0.238045
0.0438909
0.237839
0.0489511
0.237689
0.0540653
0.23762
0.0592539
0.237659
0.0645355
0.23784
0.0699267
0.2382
0.0754392
0.238784
0.0810814
0.239644
0.0868573
0.240841
0.0927665
0.242445
0.0988028
0.244542
0.104953
0.247226
0.111194
0.250607
0.117491
0.254811
0.123796
0.259973
0.130041
0.266243
0.136139
0.273771
0.141973
0.282697
0.147401
0.293128
0.152253
0.305094
0.156324
0.31858
0.159424
0.161296
0.333336
0.245428
0.00684959
0.245348
0.0127951
0.245249
0.0183454
0.245141
0.0236678
0.245036
0.0288376
0.244945
0.0339069
0.244884
0.0389178
0.244869
0.0439056
0.244922
0.0489002
0.245063
0.0539254
0.24532
0.058999
0.245723
0.0641358
0.246305
0.0693474
0.247106
0.0746405
0.248173
0.0800171
0.249558
0.0854747
0.251322
0.0910053
0.253532
0.0965944
0.256267
0.10222
0.259613
0.107849
0.263665
0.11344
0.268526
0.118937
0.274301
0.124267
0.281097
0.129344
0.28901
0.134061
0.298116
0.138296
0.308458
0.141912
0.320023
0.144759
0.332756
0.146692
0.147579
0.346473
0.251399
0.00685877
0.251381
0.0128044
0.251373
0.0183473
0.251383
0.0236527
0.251422
0.0287946
0.251505
0.0338225
0.251645
0.0387766
0.25186
0.0436898
0.252173
0.0485887
0.252606
0.0534938
0.253186
0.0584203
0.253945
0.0633792
0.254918
0.0683774
0.256144
0.0734168
0.257669
0.0784946
0.259545
0.0836022
0.261827
0.0887256
0.264579
0.0938443
0.267871
0.09893
0.271776
0.103946
0.276373
0.108845
0.281741
0.11357
0.287958
0.118052
0.295094
0.12221
0.303204
0.125952
0.312322
0.129178
0.322452
0.131783
0.333553
0.133659
0.34554
0.134706
0.134856
0.358263
0.257514
0.00683345
0.257561
0.0127491
0.257645
0.0182561
0.257776
0.0235169
0.257963
0.0286032
0.25822
0.0335624
0.258563
0.0384322
0.25901
0.0432426
0.259581
0.0480174
0.260302
0.052774
0.261199
0.0575247
0.262304
0.0622768
0.26365
0.0670331
0.265278
0.0717915
0.26723
0.0765451
0.269554
0.0812811
0.272301
0.0859809
0.275527
0.0906201
0.279292
0.0951672
0.283656
0.0995834
0.288681
0.103822
0.294424
0.107829
0.300938
0.111539
0.308265
0.114885
0.31643
0.117789
0.325437
0.120172
0.335264
0.121957
0.345853
0.12307
0.357114
0.123446
0.12305
0.36892
0.263778
0.00677294
0.26389
0.012628
0.264068
0.0180704
0.26432
0.0232589
0.264656
0.0282625
0.265089
0.0331263
0.265634
0.0378851
0.266309
0.0425663
0.267136
0.0471909
0.268137
0.0517733
0.26934
0.0563229
0.270774
0.060844
0.272474
0.0653358
0.274474
0.0697931
0.276816
0.0742054
0.279542
0.0785574
0.282697
0.0828279
0.286329
0.0869906
0.290486
0.0910129
0.295214
0.0948568
0.30056
0.0984784
0.306563
0.101828
0.313253
0.104851
0.320652
0.107488
0.328761
0.10968
0.337567
0.111368
0.34703
0.112494
0.357088
0.113012
0.367653
0.112882
0.112087
0.378616
0.270192
0.00667687
0.27037
0.0124406
0.270642
0.0177898
0.271016
0.0228785
0.2715
0.027773
0.272107
0.0325155
0.272852
0.0371382
0.273751
0.0416659
0.274825
0.0461166
0.276096
0.0505023
0.27759
0.0548296
0.279335
0.0591001
0.281362
0.0633106
0.283704
0.0674533
0.286396
0.0715155
0.289475
0.0754799
0.29298
0.0793248
0.29695
0.0830234
0.30142
0.0865446
0.306426
0.0898526
0.311999
0.0929079
0.318162
0.0956674
0.32493
0.0980848
0.332305
0.100114
0.340277
0.10171
0.348818
0.102828
0.357881
0.103432
0.367403
0.103491
0.377301
0.102985
0.101908
0.387481
0.276761
0.00654523
0.277004
0.012187
0.27737
0.0174146
0.277865
0.0223768
0.278495
0.0271366
0.279273
0.0317334
0.280212
0.0361966
0.281327
0.0405484
0.282638
0.0448045
0.284166
0.0489743
0.285934
0.0530622
0.287967
0.0570677
0.290294
0.0609856
0.292942
0.0648065
0.295943
0.0685166
0.299326
0.072098
0.303124
0.075529
0.307365
0.0787841
0.312077
0.0818346
0.317283
0.0846487
0.323001
0.0871924
0.329241
0.0894294
0.336005
0.0913223
0.343285
0.0928361
0.351058
0.0939377
0.359291
0.0945973
0.367933
0.094791
0.376922
0.0945025
0.386184
0.093723
0.0924563
0.395636
0.283487
0.00637832
0.283795
0.0118679
0.284254
0.0169463
0.284867
0.021756
0.28564
0.0263567
0.286584
0.0307848
0.28771
0.0350672
0.289032
0.0392234
0.290568
0.043267
0.292337
0.0472052
0.294358
0.0510408
0.296655
0.0547714
0.299251
0.0583908
0.30217
0.0618885
0.305437
0.0652506
0.309077
0.0684596
0.313113
0.0714948
0.317565
0.074333
0.322453
0.0769486
0.327789
0.0793142
0.333581
0.0814021
0.33983
0.0831828
0.346527
0.0846271
0.353655
0.0857098
0.361186
0.0864079
0.369082
0.0867026
0.377293
0.0865805
0.385762
0.086035
0.394419
0.085066
0.0836816
0.403194
0.290375
0.00617677
0.290746
0.0114847
0.291295
0.016387
0.292023
0.0210193
0.292935
0.0254379
0.294038
0.0296762
0.295343
0.0337584
0.296861
0.037702
0.298608
0.0415182
0.300599
0.0452128
0.302852
0.0487869
0.305386
0.0522373
0.308221
0.0555569
0.311375
0.0587353
0.314867
0.0617588
0.318717
0.064611
0.32294
0.0672733
0.327549
0.069725
0.332555
0.0719443
0.337962
0.0739088
0.34377
0.0755962
0.349971
0.0769833
0.356551
0.0780491
0.363486
0.0787763
0.370745
0.0791502
0.378288
0.0791603
0.386068
0.0788011
0.394031
0.0780728
0.402116
0.0769809
0.0755364
0.410262
0.297427
0.00594146
0.29786
0.0110391
0.298497
0.0157395
0.299336
0.020171
0.30038
0.024386
0.301635
0.0284152
0.303108
0.0322803
0.304809
0.0359966
0.306751
0.0395736
0.308946
0.0430158
0.311409
0.0463231
0.314154
0.0494918
0.317196
0.0525148
0.32055
0.0553819
0.324229
0.0580803
0.328245
0.0605954
0.332608
0.0629108
0.337325
0.065009
0.342399
0.0668719
0.347827
0.0684821
0.353602
0.0698222
0.359712
0.0708748
0.366137
0.071626
0.372849
0.0720649
0.379817
0.0721833
0.387002
0.071977
0.394357
0.0714462
0.401835
0.0705958
0.409381
0.0694348
0.0679756
0.416942
0.304648
0.00567355
0.30514
0.0105335
0.305861
0.0150075
0.306806
0.019216
0.307976
0.0232078
0.309373
0.0270106
0.311004
0.0306438
0.312876
0.0341208
0.314996
0.0374496
0.317376
0.0406336
0.320025
0.0436722
0.322954
0.0465614
0.326174
0.0492943
0.329694
0.0518614
0.333523
0.0542516
0.337667
0.0564519
0.34213
0.0584486
0.346912
0.0602273
0.35201
0.0617738
0.357418
0.0630749
0.363124
0.0641179
0.369109
0.0648907
0.375352
0.0653847
0.381823
0.0655943
0.388491
0.0655164
0.395317
0.0651514
0.40226
0.0645036
0.409276
0.0635806
0.416317
0.0623937
0.0609558
0.423337
0.312042
0.00537435
0.312591
0.00997039
0.313391
0.0141949
0.314436
0.0181599
0.315724
0.0219104
0.317256
0.0254715
0.319033
0.0288603
0.32106
0.0320884
0.323343
0.0351627
0.325887
0.0380857
0.328701
0.0408565
0.331789
0.0434712
0.335159
0.0459233
0.338815
0.0482047
0.34276
0.0503056
0.346997
0.0522152
0.351523
0.0539223
0.356335
0.0554157
0.361424
0.0566845
0.36678
0.0577196
0.372386
0.0585123
0.378223
0.0590546
0.384266
0.0593425
0.390487
0.0593744
0.396853
0.059151
0.403328
0.058676
0.409876
0.0579561
0.416456
0.057001
0.423026
0.0558229
0.0544345
0.429547
0.319612
0.00504532
0.320215
0.00935276
0.32109
0.013306
0.32223
0.0170087
0.323629
0.0205017
0.325284
0.0238077
0.327196
0.0269416
0.329365
0.0299136
0.331793
0.0327293
0.334484
0.0353909
0.33744
0.0378972
0.340664
0.0402446
0.344158
0.0424277
0.347922
0.0444392
0.351955
0.0462712
0.356254
0.0479149
0.360814
0.0493616
0.365627
0.0506029
0.370679
0.0516312
0.375958
0.0524405
0.381446
0.0530255
0.387119
0.0533818
0.392953
0.0535087
0.39892
0.0534076
0.40499
0.0530819
0.411128
0.0525376
0.417301
0.0517829
0.423473
0.0508284
0.429609
0.0496867
0.0483697
0.435673
0.327363
0.00468799
0.328016
0.00868352
0.328963
0.0123453
0.330191
0.0157683
0.331692
0.0189894
0.333462
0.0220287
0.335497
0.0248993
0.337794
0.0276098
0.340352
0.0301651
0.343172
0.0325668
0.346251
0.0348139
0.349589
0.0369032
0.353184
0.0388301
0.357032
0.0405888
0.361129
0.0421729
0.365466
0.0435756
0.370036
0.0447905
0.374826
0.0458115
0.379823
0.0466338
0.385008
0.0472542
0.390363
0.0476702
0.395865
0.0478799
0.401489
0.0478852
0.407207
0.0476895
0.41299
0.0472983
0.418809
0.0467187
0.424631
0.0459597
0.430427
0.0450323
0.436164
0.0439485
0.0427198
0.441814
0.3353
0.00430385
0.336001
0.0079656
0.337014
0.0113172
0.338324
0.0144447
0.339921
0.0173812
0.341795
0.0201441
0.343941
0.0227445
0.346354
0.0251899
0.349028
0.0274844
0.35196
0.0296294
0.355145
0.031624
0.358579
0.0334655
0.362255
0.0351502
0.366167
0.0366735
0.370307
0.0380306
0.374664
0.0392165
0.379225
0.0402267
0.383978
0.0410574
0.388904
0.0417057
0.393986
0.0421707
0.399204
0.0424521
0.404533
0.0425499
0.40995
0.0424676
0.415429
0.0422103
0.420942
0.0417844
0.426463
0.0411976
0.431962
0.0404593
0.437413
0.03958
0.44279
0.0385712
0.0374434
0.448065
0.343426
0.00389427
0.344172
0.00720169
0.345248
0.0102258
0.346635
0.0130437
0.348319
0.0156843