/*--------------------------------*- C++ -*----------------------------------*\
| =========                 |                                                 |
| \\      /  F ield         | OpenFOAM: The Open Source CFD Toolbox           |
|  \\    /   O peration     | Version:  dev                                   |
|   \\  /    A nd           | Web:      www.OpenFOAM.org                      |
|    \\/     M anipulation  |                                                 |
\*---------------------------------------------------------------------------*/
FoamFile
{
    version     2.0;
    format      ascii;
    class       pointVectorField;
    location    "0.36";
    object      pointDisplacement;
}
// * * * * * * * * * * * * * * * * * * * * * * * * * * * * * * * * * * * * * //

dimensions      [0 1 0 0 0 0 0];

internalField   nonuniform List<vector> 
5828
(
(0 0 0)
(0.00440928 0 0)
(0.00841247 0 0)
(0.011916 0 0)
(0.0149624 0 0)
(0.0175907 0 0)
(0.0198357 0 0)
(0.0217285 0 0)
(0.023296 0 0)
(0.0245617 0 0)
(0.025546 0 0)
(0.0262658 0 0)
(0.0267352 0 0)
(0.0269656 0 0)
(0.0269655 0 0)
(0.0267411 0 0)
(0.0262962 0 0)
(0.0256324 0 0)
(0.0247493 0 0)
(0.0236454 0 0)
(0.0223179 0 0)
(0.0207643 0 0)
(0.0189842 0 0)
(0.0169823 0 0)
(0.0147718 0 0)
(0.0123814 0 0)
(0.00986585 0 0)
(0.00732613 0 0)
(0.00494832 0 0)
(0.00311105 0 0)
(0 0 0)
(0 0 0)
(0.00441038 0 -3.76515e-06)
(0.00841495 0 -7.16877e-06)
(0.01192 0 -1.01124e-05)
(0.0149681 0 -1.26046e-05)
(0.0175984 0 -1.46375e-05)
(0.0198458 0 -1.61828e-05)
(0.0217414 0 -1.71872e-05)
(0.0233122 0 -1.75681e-05)
(0.024582 0 -1.72077e-05)
(0.025571 0 -1.59441e-05)
(0.0262966 0 -1.35616e-05)
(0.0267731 0 -9.77622e-06)
(0.0270119 0 -4.21812e-06)
(0.027022 0 3.59111e-06)
(0.0268101 0 1.42673e-05)
(0.0263804 0 2.85992e-05)
(0.0257351 0 4.75927e-05)
(0.0248748 0 7.25221e-05)
(0.0237988 0 0.00010499)
(0.0225057 0 0.000146993)
(0.0209946 0 0.000201002)
(0.0192667 0 0.000270041)
(0.0173292 0 0.000357701)
(0.0151985 0 0.000468071)
(0.0129068 0 0.000605491)
(0.0105135 0 0.000773866)
(0.00812528 0 0.000974725)
(0.00593248 0 0.00120172)
(0.00430094 0 0.00142335)
(0.00200425 0 0.00185459)
(0 0 0)
(0.00441427 0 -7.54344e-06)
(0.00842293 0 -1.43656e-05)
(0.0119325 0 -2.02715e-05)
(0.0149856 0 -2.52807e-05)
(0.0176218 0 -2.93801e-05)
(0.0198762 0 -3.25162e-05)
(0.02178 0 -3.45872e-05)
(0.0233607 0 -3.5434e-05)
(0.0246423 0 -3.48289e-05)
(0.0256456 0 -3.24601e-05)
(0.0263884 0 -2.79116e-05)
(0.0268855 0 -2.06373e-05)
(0.0271494 0 -9.92745e-06)
(0.0271899 0 5.13315e-06)
(0.0270148 0 2.57188e-05)
(0.0266299 0 5.33281e-05)
(0.0260393 0 8.98632e-05)
(0.0252459 0 0.000137722)
(0.024252 0 0.000199901)
(0.02306 0 0.000280095)
(0.021673 0 0.00038282)
(0.0200973 0 0.00051353)
(0.0183467 0 0.000678579)
(0.0164459 0 0.000884872)
(0.0144359 0 0.00113914)
(0.0123861 0 0.00144613)
(0.0104109 0 0.00180422)
(0.00869687 0 0.00219471)
(0.00755628 0 0.00255424)
(0.00597309 0 0.00313778)
(0 0 0)
(0.00442076 0 -1.13452e-05)
(0.00843618 0 -2.1613e-05)
(0.0119531 0 -3.05157e-05)
(0.0150146 0 -3.80883e-05)
(0.0176604 0 -4.43179e-05)
(0.0199262 0 -4.91322e-05)
(0.0218435 0 -5.23896e-05)
(0.0234405 0 -5.38664e-05)
(0.0247415 0 -5.32416e-05)
(0.0257681 0 -5.00751e-05)
(0.0265389 0 -4.37814e-05)
(0.0270698 0 -3.35941e-05)
(0.0273744 0 -1.85218e-05)
(0.0274642 0 2.70814e-06)
(0.0273489 0 3.17185e-05)
(0.0270365 0 7.05666e-05)
(0.0265341 0 0.000121844)
(0.0258482 0 0.000188788)
(0.0249856 0 0.000275402)
(0.0239546 0 0.000386535)
(0.0227647 0 0.000527947)
(0.0214283 0 0.000706476)
(0.0199693 0 0.000929855)
(0.0184231 0 0.00120577)
(0.0168407 0 0.00154047)
(0.0152986 0 0.0019358)
(0.0139089 0 0.00238265)
(0.0128292 0 0.00284763)
(0.0122743 0 0.00324596)
(0.0114798 0 0.00383253)
(0 0 0)
(0.00442977 0 -1.51776e-05)
(0.00845453 0 -2.89268e-05)
(0.0119816 0 -4.08733e-05)
(0.0150545 0 -5.10735e-05)
(0.0177136 0 -5.95221e-05)
(0.019995 0 -6.6138e-05)
(0.0219309 0 -7.0752e-05)
(0.02355 0 -7.30929e-05)
(0.0248775 0 -7.27689e-05)
(0.0259359 0 -6.92434e-05)
(0.0267448 0 -6.18041e-05)
(0.0273214 0 -4.95234e-05)
(0.0276811 0 -3.12085e-05)
(0.0278373 0 -5.33997e-06)
(0.0278021 0 3.00026e-05)
(0.0275866 0 7.72285e-05)
(0.0272014 0 0.000139337)
(0.0266575 0 0.000220027)
(0.0259669 0 0.00032381)
(0.0251446 0 0.00045594)
(0.0242088 0 0.000622403)
(0.0231805 0 0.000830303)
(0.0220917 0 0.0010872)
(0.0209875 0 0.00139934)
(0.0199264 0 0.00177004)
(0.0189851 0 0.00219596)
(0.0182593 0 0.0026597)
(0.0178556 0 0.00311765)
(0.017871 0 0.00348044)
(0.0178116 0 0.00398067)
(0 0 0)
(0.00444118 0 -1.90445e-05)
(0.00847771 0 -3.63163e-05)
(0.0120175 0 -5.13617e-05)
(0.0151048 0 -6.42668e-05)
(0.0177805 0 -7.50434e-05)
(0.0200814 0 -8.36127e-05)
(0.0220404 0 -8.97939e-05)
(0.023687 0 -9.32888e-05)
(0.0250474 0 -9.36631e-05)
(0.0261451 0 -9.03217e-05)
(0.027001 0 -8.24775e-05)
(0.0276339 0 -6.91118e-05)
(0.028061 0 -4.89261e-05)
(0.0282981 0 -2.02837e-05)
(0.02836 0 1.88575e-05)
(0.0282613 0 7.10217e-05)
(0.0280164 0 0.000139295)
(0.0276413 0 0.000227404)
(0.0271532 0 0.00033977)
(0.0265732 0 0.000481355)
(0.0259284 0 0.00065759)
(0.0252511 0 0.000874572)
(0.0245782 0 0.00113801)
(0.0239592 0 0.0014513)
(0.0234555 0 0.00181364)
(0.0231351 0 0.00221627)
(0.0230651 0 0.00263611)
(0.0232886 0 0.00302725)
(0.0237833 0 0.0033111)
(0.024345 0 0.00368828)
(0 0 0)
(0.00445481 0 -2.29459e-05)
(0.00850535 0 -4.37828e-05)
(0.0120602 0 -6.19863e-05)
(0.0151644 0 -7.76814e-05)
(0.0178597 0 -9.09073e-05)
(0.0201836 0 -0.000101602)
(0.0221698 0 -0.000109589)
(0.0238487 0 -0.000114567)
(0.0252475 0 -0.00011609)
(0.0263909 0 -0.000113547)
(0.0273012 0 -0.000106131)
(0.027999 0 -9.28091e-05)
(0.0285035 0 -7.22774e-05)
(0.0288328 0 -4.29178e-05)
(0.0290048 0 -2.74633e-06)
(0.0290372 0 5.06371e-05)
(0.0289489 0 0.000120091)
(0.02876 0 0.000208951)
(0.0284937 0 0.000321004)
(0.0281762 0 0.000460336)
(0.027841 0 0.000631164)
(0.0275271 0 0.000837484)
(0.0272769 0 0.00108207)
(0.0271404 0 0.00136488)
(0.0271738 0 0.00168107)
(0.0274286 0 0.0020179)
(0.0279358 0 0.00235071)
(0.0286732 0 0.00263918)
(0.0295151 0 0.00282582)
(0.0305342 0 0.00306778)
(0 0 0)
(0.00447043 0 -2.68779e-05)
(0.00853693 0 -5.13199e-05)
(0.0121089 0 -7.27398e-05)
(0.0152323 0 -9.13117e-05)
(0.0179498 0 -0.000107114)
(0.0202996 0 -0.000120114)
(0.0223164 0 -0.000130159)
(0.0240314 0 -0.00013697)
(0.0254731 0 -0.000140119)
(0.0266673 0 -0.00013902)
(0.0276379 0 -0.000132906)
(0.0284071 0 -0.0001208)
(0.0289961 0 -0.000101491)
(0.0294255 0 -7.35061e-05)
(0.0297158 0 -3.50842e-05)
(0.029888 0 1.58387e-05)
(0.0299645 0 8.16251e-05)
(0.0299696 0 0.000164894)
(0.0299308 0 0.000268416)
(0.0298792 0 0.00039491)
(0.0298513 0 0.000546747)
(0.029888 0 0.000725403)
(0.0300338 0 0.00093053)
(0.0303357 0 0.00115869)
(0.0308383 0 0.00140183)
(0.0315712 0 0.00164552)
(0.0325274 0 0.00186761)
(0.0336283 0 0.00203885)
(0.0346741 0 0.00212746)
(0.0359667 0 0.00223083)
(0 0 0)
(0.00448773 0 -3.08331e-05)
(0.00857183 0 -5.8913e-05)
(0.0121626 0 -8.36023e-05)
(0.0153071 0 -0.000105134)
(0.0180488 0 -0.000123637)
(0.0204269 0 -0.000139121)
(0.0224769 0 -0.000151479)
(0.0242312 0 -0.00016047)
(0.0257191 0 -0.000165719)
(0.0269678 0 -0.000166706)
(0.0280026 0 -0.00016275)
(0.0288474 0 -0.000152997)
(0.0295252 0 -0.000136414)
(0.0300587 0 -0.000111778)
(0.0304709 0 -7.76826e-05)
(0.0307854 0 -3.2561e-05)
(0.0310275 0 2.52617e-05)
(0.0312245 0 9.7469e-05)
(0.0314066 0 0.000185585)
(0.0316074 0 0.000290712)
(0.031864 0 0.000413165)
(0.0322166 0 0.000551901)
(0.0327064 0 0.000703754)
(0.0333722 0 0.000862596)
(0.034243 0 0.00101859)
(0.0353244 0 0.00115791)
(0.0365762 0 0.0012639)
(0.0378797 0 0.00132095)
(0.038997 0 0.00132266)
(0.0403856 0 0.00130531)
(0 0 0)
(0.00450633 0 -3.48002e-05)
(0.0086093 0 -6.65407e-05)
(0.0122202 0 -9.45422e-05)
(0.0153871 0 -0.000119107)
(0.0181546 0 -0.000140424)
(0.0205627 0 -0.000158563)
(0.0226479 0 -0.000173469)
(0.0244435 0 -0.00018497)
(0.0259799 0 -0.000192767)
(0.0272854 0 -0.000196435)
(0.0283865 0 -0.000195425)
(0.0293087 0 -0.000189059)
(0.0300766 0 -0.000176541)
(0.0307147 0 -0.000156976)
(0.0312478 0 -0.000129399)
(0.0317015 0 -9.28361e-05)
(0.032103 0 -4.6398e-05)
(0.0324811 0 1.05767e-05)
(0.032867 0 7.83119e-05)
(0.0332944 0 0.000156304)
(0.0337986 0 0.000242958)
(0.0344155 0 0.000335097)
(0.0351791 0 0.000427449)
(0.036116 0 0.000512307)
(0.0372378 0 0.00057961)
(0.0385275 0 0.000618002)
(0.0399199 0 0.000617761)
(0.0412766 0 0.000576677)
(0.042357 0 0.000509671)
(0.0436882 0 0.000397261)
(0 0 0)
(0.00452582 0 -3.87649e-05)
(0.00864851 0 -7.41747e-05)
(0.0122803 0 -0.000105518)
(0.0154707 0 -0.000133174)
(0.0182649 0 -0.000157404)
(0.0207042 0 -0.000178343)
(0.0228258 0 -0.000196011)
(0.0246637 0 -0.000210314)
(0.0262496 0 -0.000221052)
(0.0276125 0 -0.000227922)
(0.0287804 0 -0.000230535)
(0.0297797 0 -0.000228424)
(0.0306363 0 -0.000221071)
(0.0313761 0 -0.000207945)
(0.032025 0 -0.000188562)
(0.0326099 0 -0.000162567)
(0.0331586 0 -0.000129858)
(0.0337002 0 -9.07524e-05)
(0.0342651 0 -4.6209e-05)
(0.0348848 0 1.89634e-06)
(0.0355905 0 5.04704e-05)
(0.0364111 0 9.48662e-05)
(0.0373705 0 0.000128661)
(0.0384815 0 0.0001438)
(0.0397382 0 0.000131385)
(0.041105 0 8.36403e-05)
(0.0425021 0 -2.19668e-06)
(0.0437898 0 -0.000117342)
(0.0447543 0 -0.000231995)
(0.0459118 0 -0.000406361)
(0 0 0)
(0.00454574 0 -4.27105e-05)
(0.00868855 0 -8.17816e-05)
(0.0123417 0 -0.000116478)
(0.0155559 0 -0.000147266)
(0.0183775 0 -0.000174483)
(0.0208483 0 -0.000198344)
(0.0230066 0 -0.000218947)
(0.0248871 0 -0.000236294)
(0.0265223 0 -0.000250295)
(0.0279422 0 -0.000260788)
(0.0291754 0 -0.000267559)
(0.0302494 0 -0.000270366)
(0.031191 0 -0.000268984)
(0.0320267 0 -0.000263253)
(0.0327831 0 -0.000253155)
(0.0334872 0 -0.000238916)
(0.0341666 0 -0.000221137)
(0.0348494 0 -0.000200966)
(0.0355636 0 -0.000180294)
(0.0363368 0 -0.000161982)
(0.0371942 0 -0.000150049)
(0.0381565 0 -0.000149824)
(0.039236 0 -0.000167881)
(0.0404318 0 -0.000211494)
(0.0417229 0 -0.000287394)
(0.0430602 0 -0.000399384)
(0.0443591 0 -0.000544311)
(0.045493 0 -0.000706012)
(0.0462928 0 -0.000847083)
(0.0472012 0 -0.00105394)
(0 0 0)
(0.00456561 0 -4.6618e-05)
(0.00872849 0 -8.93238e-05)
(0.012403 0 -0.000127367)
(0.015641 0 -0.000161304)
(0.0184898 0 -0.000191557)
(0.0209921 0 -0.000218424)
(0.0231866 0 -0.000242093)
(0.0251091 0 -0.000262664)
(0.0267924 0 -0.000280168)
(0.0282674 0 -0.000294587)
(0.0295632 0 -0.000305887)
(0.0307078 0 -0.000314052)
(0.0317286 0 -0.000319136)
(0.0326521 0 -0.00032132)
(0.0335051 0 -0.000321004)
(0.0343139 0 -0.000318902)
(0.0351049 0 -0.000316176)
(0.0359039 0 -0.000314577)
(0.0367358 0 -0.000316606)
(0.037623 0 -0.000325647)
(0.0385839 0 -0.000346035)
(0.0396304 0 -0.000383016)
(0.040764 0 -0.000442437)
(0.0419718 0 -0.000529946)
(0.0432215 0 -0.000649544)
(0.0444567 0 -0.000801233)
(0.045595 0 -0.000977487)
(0.0465312 0 -0.00115844)
(0.0471476 0 -0.00130569)
(0.0477756 0 -0.00151626)
(0 0 0)
(0.00458491 0 -5.0467e-05)
(0.00876736 0 -9.67605e-05)
(0.0124628 0 -0.000138121)
(0.0157241 0 -0.000175201)
(0.0185995 0 -0.00020851)
(0.0211325 0 -0.000238431)
(0.0233623 0 -0.000265245)
(0.0253253 0 -0.000289155)
(0.0270547 0 -0.000310309)
(0.0285818 0 -0.000328835)
(0.0299362 0 -0.000344868)
(0.0311461 0 -0.000358602)
(0.0322387 0 -0.000370336)
(0.0332406 0 -0.000380544)
(0.0341775 0 -0.000389959)
(0.0350748 0 -0.00039966)
(0.0359569 0 -0.000411188)
(0.0368468 0 -0.000426645)
(0.0377652 0 -0.000448793)
(0.0387293 0 -0.000481097)
(0.0397506 0 -0.000527655)
(0.0408328 0 -0.000593005)
(0.0419686 0 -0.000681644)
(0.0431363 0 -0.000797102)
(0.0442968 0 -0.000940535)
(0.0453924 0 -0.00110871)
(0.0463487 0 -0.00129135)
(0.0470835 0 -0.0014679)
(0.0475265 0 -0.00160375)
(0.0478956 0 -0.00178466)
(0 0 0)
(0.00460314 0 -5.42359e-05)
(0.00880418 0 -0.000104049)
(0.0125196 0 -0.000148676)
(0.0158033 0 -0.000188866)
(0.0187043 0 -0.000225218)
(0.0212667 0 -0.000258202)
(0.0235302 0 -0.00028819)
(0.0255315 0 -0.000315483)
(0.0273042 0 -0.000340346)
(0.0288798 0 -0.000363037)
(0.0302879 0 -0.000383846)
(0.0315567 0 -0.000403144)
(0.0327128 0 -0.000421432)
(0.0337823 0 -0.000439409)
(0.0347899 0 -0.000458039)
(0.0357592 0 -0.000478633)
(0.0367121 0 -0.000502917)
(0.0376684 0 -0.000533099)
(0.0386447 0 -0.00057189)
(0.0396529 0 -0.000622456)
(0.0406986 0 -0.00068825)
(0.0417789 0 -0.00077269)
(0.04288 0 -0.000878599)
(0.0439755 0 -0.00100729)
(0.0450247 0 -0.00115733)
(0.0459737 0 -0.00132308)
(0.0467602 0 -0.00149308)
(0.0473247 0 -0.00164859)
(0.0476312 0 -0.00176212)
(0.0477861 0 -0.00189307)
(0 0 0)
(0.00462 0 -5.79338e-05)
(0.00883834 0 -0.000111209)
(0.0125725 0 -0.000159059)
(0.0158776 0 -0.000202329)
(0.018803 0 -0.000241709)
(0.0213933 0 -0.000277753)
(0.0236887 0 -0.000310921)
(0.0257259 0 -0.00034161)
(0.0275389 0 -0.000370187)
(0.029159 0 -0.000397028)
(0.0306157 0 -0.000422554)
(0.0319367 0 -0.000447276)
(0.0331482 0 -0.000471846)
(0.0342749 0 -0.000497113)
(0.0353402 0 -0.000524175)
(0.0363657 0 -0.000554435)
(0.0373707 0 -0.000589636)
(0.0383717 0 -0.000631879)
(0.0393812 0 -0.000683574)
(0.0404066 0 -0.00074733)
(0.0414487 0 -0.000825701)
(0.0424998 0 -0.000920807)
(0.0435429 0 -0.00103377)
(0.0445502 0 -0.00116389)
(0.0454836 0 -0.00130773)
(0.0462977 0 -0.00145812)
(0.0469451 0 -0.00160353)
(0.0473885 0 -0.00172835)
(0.0476164 0 -0.0018139)
(0.0476515 0 -0.0019124)
(0 0 0)
(0.00440928 0 0)
(0.00841247 0 0)
(0.011916 0 0)
(0.0149624 0 0)
(0.0175907 0 0)
(0.0198357 0 0)
(0.0217285 0 0)
(0.023296 0 0)
(0.0245617 0 0)
(0.025546 0 0)
(0.0262658 0 0)
(0.0267352 0 0)
(0.0269656 0 0)
(0.0269655 0 0)
(0.0267411 0 0)
(0.0262962 0 0)
(0.0256324 0 0)
(0.0247493 0 0)
(0.0236454 0 0)
(0.0223179 0 0)
(0.0207643 0 0)
(0.0189842 0 0)
(0.0169823 0 0)
(0.0147718 0 0)
(0.0123814 0 0)
(0.00986585 0 0)
(0.00732613 0 0)
(0.00494832 0 0)
(0.00311105 0 0)
(0 0 0)
(0 0 0)
(0.00441038 0 -3.76515e-06)
(0.00841495 0 -7.16877e-06)
(0.01192 0 -1.01124e-05)
(0.0149681 0 -1.26046e-05)
(0.0175984 0 -1.46375e-05)
(0.0198458 0 -1.61828e-05)
(0.0217414 0 -1.71872e-05)
(0.0233122 0 -1.75681e-05)
(0.024582 0 -1.72077e-05)
(0.025571 0 -1.59441e-05)
(0.0262966 0 -1.35616e-05)
(0.0267731 0 -9.77622e-06)
(0.0270119 0 -4.21812e-06)
(0.027022 0 3.59111e-06)
(0.0268101 0 1.42673e-05)
(0.0263804 0 2.85992e-05)
(0.0257351 0 4.75927e-05)
(0.0248748 0 7.25221e-05)
(0.0237988 0 0.00010499)
(0.0225057 0 0.000146993)
(0.0209946 0 0.000201002)
(0.0192667 0 0.000270041)
(0.0173292 0 0.000357701)
(0.0151985 0 0.000468071)
(0.0129068 0 0.000605491)
(0.0105135 0 0.000773866)
(0.00812528 0 0.000974725)
(0.00593248 0 0.00120172)
(0.00430094 0 0.00142335)
(0.00200425 0 0.00185459)
(0 0 0)
(0.00441427 0 -7.54344e-06)
(0.00842293 0 -1.43656e-05)
(0.0119325 0 -2.02715e-05)
(0.0149856 0 -2.52807e-05)
(0.0176218 0 -2.93801e-05)
(0.0198762 0 -3.25162e-05)
(0.02178 0 -3.45872e-05)
(0.0233607 0 -3.5434e-05)
(0.0246423 0 -3.48289e-05)
(0.0256456 0 -3.24601e-05)
(0.0263884 0 -2.79116e-05)
(0.0268855 0 -2.06373e-05)
(0.0271494 0 -9.92745e-06)
(0.0271899 0 5.13315e-06)
(0.0270148 0 2.57188e-05)
(0.0266299 0 5.33281e-05)
(0.0260393 0 8.98632e-05)
(0.0252459 0 0.000137722)
(0.024252 0 0.000199901)
(0.02306 0 0.000280095)
(0.021673 0 0.00038282)
(0.0200973 0 0.00051353)
(0.0183467 0 0.000678579)
(0.0164459 0 0.000884872)
(0.0144359 0 0.00113914)
(0.0123861 0 0.00144613)
(0.0104109 0 0.00180422)
(0.00869687 0 0.00219471)
(0.00755628 0 0.00255424)
(0.00597309 0 0.00313778)
(0 0 0)
(0.00442076 0 -1.13452e-05)
(0.00843618 0 -2.1613e-05)
(0.0119531 0 -3.05157e-05)
(0.0150146 0 -3.80883e-05)
(0.0176604 0 -4.43179e-05)
(0.0199262 0 -4.91322e-05)
(0.0218435 0 -5.23896e-05)
(0.0234405 0 -5.38664e-05)
(0.0247415 0 -5.32416e-05)
(0.0257681 0 -5.00751e-05)
(0.0265389 0 -4.37814e-05)
(0.0270698 0 -3.35941e-05)
(0.0273744 0 -1.85218e-05)
(0.0274642 0 2.70814e-06)
(0.0273489 0 3.17185e-05)
(0.0270365 0 7.05666e-05)
(0.0265341 0 0.000121844)
(0.0258482 0 0.000188788)
(0.0249856 0 0.000275402)
(0.0239546 0 0.000386535)
(0.0227647 0 0.000527947)
(0.0214283 0 0.000706476)
(0.0199693 0 0.000929855)
(0.0184231 0 0.00120577)
(0.0168407 0 0.00154047)
(0.0152986 0 0.0019358)
(0.0139089 0 0.00238265)
(0.0128292 0 0.00284763)
(0.0122743 0 0.00324596)
(0.0114798 0 0.00383253)
(0 0 0)
(0.00442977 0 -1.51776e-05)
(0.00845453 0 -2.89268e-05)
(0.0119816 0 -4.08733e-05)
(0.0150545 0 -5.10735e-05)
(0.0177136 0 -5.95221e-05)
(0.019995 0 -6.6138e-05)
(0.0219309 0 -7.0752e-05)
(0.02355 0 -7.30929e-05)
(0.0248775 0 -7.27689e-05)
(0.0259359 0 -6.92434e-05)
(0.0267448 0 -6.18041e-05)
(0.0273214 0 -4.95234e-05)
(0.0276811 0 -3.12085e-05)
(0.0278373 0 -5.33997e-06)
(0.0278021 0 3.00026e-05)
(0.0275866 0 7.72285e-05)
(0.0272014 0 0.000139337)
(0.0266575 0 0.000220027)
(0.0259669 0 0.00032381)
(0.0251446 0 0.00045594)
(0.0242088 0 0.000622403)
(0.0231805 0 0.000830303)
(0.0220917 0 0.0010872)
(0.0209875 0 0.00139934)
(0.0199264 0 0.00177004)
(0.0189851 0 0.00219596)
(0.0182593 0 0.0026597)
(0.0178556 0 0.00311765)
(0.017871 0 0.00348044)
(0.0178116 0 0.00398067)
(0 0 0)
(0.00444118 0 -1.90445e-05)
(0.00847771 0 -3.63163e-05)
(0.0120175 0 -5.13617e-05)
(0.0151048 0 -6.42668e-05)
(0.0177805 0 -7.50434e-05)
(0.0200814 0 -8.36127e-05)
(0.0220404 0 -8.97939e-05)
(0.023687 0 -9.32888e-05)
(0.0250474 0 -9.36631e-05)
(0.0261451 0 -9.03217e-05)
(0.027001 0 -8.24775e-05)
(0.0276339 0 -6.91118e-05)
(0.028061 0 -4.89261e-05)
(0.0282981 0 -2.02837e-05)
(0.02836 0 1.88575e-05)
(0.0282613 0 7.10217e-05)
(0.0280164 0 0.000139295)
(0.0276413 0 0.000227404)
(0.0271532 0 0.00033977)
(0.0265732 0 0.000481355)
(0.0259284 0 0.00065759)
(0.0252511 0 0.000874572)
(0.0245782 0 0.00113801)
(0.0239592 0 0.0014513)
(0.0234555 0 0.00181364)
(0.0231351 0 0.00221627)
(0.0230651 0 0.00263611)
(0.0232886 0 0.00302725)
(0.0237833 0 0.0033111)
(0.024345 0 0.00368828)
(0 0 0)
(0.00445481 0 -2.29459e-05)
(0.00850535 0 -4.37828e-05)
(0.0120602 0 -6.19863e-05)
(0.0151644 0 -7.76814e-05)
(0.0178597 0 -9.09073e-05)
(0.0201836 0 -0.000101602)
(0.0221698 0 -0.000109589)
(0.0238487 0 -0.000114567)
(0.0252475 0 -0.00011609)
(0.0263909 0 -0.000113547)
(0.0273012 0 -0.000106131)
(0.027999 0 -9.28091e-05)
(0.0285035 0 -7.22774e-05)
(0.0288328 0 -4.29178e-05)
(0.0290048 0 -2.74633e-06)
(0.0290372 0 5.06371e-05)
(0.0289489 0 0.000120091)
(0.02876 0 0.000208951)
(0.0284937 0 0.000321004)
(0.0281762 0 0.000460336)
(0.027841 0 0.000631164)
(0.0275271 0 0.000837484)
(0.0272769 0 0.00108207)
(0.0271404 0 0.00136488)
(0.0271738 0 0.00168107)
(0.0274286 0 0.0020179)
(0.0279358 0 0.00235071)
(0.0286732 0 0.00263918)
(0.0295151 0 0.00282582)
(0.0305342 0 0.00306778)
(0 0 0)
(0.00447043 0 -2.68779e-05)
(0.00853693 0 -5.13199e-05)
(0.0121089 0 -7.27398e-05)
(0.0152323 0 -9.13117e-05)
(0.0179498 0 -0.000107114)
(0.0202996 0 -0.000120114)
(0.0223164 0 -0.000130159)
(0.0240314 0 -0.00013697)
(0.0254731 0 -0.000140119)
(0.0266673 0 -0.00013902)
(0.0276379 0 -0.000132906)
(0.0284071 0 -0.0001208)
(0.0289961 0 -0.000101491)
(0.0294255 0 -7.35061e-05)
(0.0297158 0 -3.50842e-05)
(0.029888 0 1.58387e-05)
(0.0299645 0 8.16251e-05)
(0.0299696 0 0.000164894)
(0.0299308 0 0.000268416)
(0.0298792 0 0.00039491)
(0.0298513 0 0.000546747)
(0.029888 0 0.000725403)
(0.0300338 0 0.00093053)
(0.0303357 0 0.00115869)
(0.0308383 0 0.00140183)
(0.0315712 0 0.00164552)
(0.0325274 0 0.00186761)
(0.0336283 0 0.00203885)
(0.0346741 0 0.00212746)
(0.0359667 0 0.00223083)
(0 0 0)
(0.00448773 0 -3.08331e-05)
(0.00857183 0 -5.8913e-05)
(0.0121626 0 -8.36023e-05)
(0.0153071 0 -0.000105134)
(0.0180488 0 -0.000123637)
(0.0204269 0 -0.000139121)
(0.0224769 0 -0.000151479)
(0.0242312 0 -0.00016047)
(0.0257191 0 -0.000165719)
(0.0269678 0 -0.000166706)
(0.0280026 0 -0.00016275)
(0.0288474 0 -0.000152997)
(0.0295252 0 -0.000136414)
(0.0300587 0 -0.000111778)
(0.0304709 0 -7.76826e-05)
(0.0307854 0 -3.2561e-05)
(0.0310275 0 2.52617e-05)
(0.0312245 0 9.7469e-05)
(0.0314066 0 0.000185585)
(0.0316074 0 0.000290712)
(0.031864 0 0.000413165)
(0.0322166 0 0.000551901)
(0.0327064 0 0.000703754)
(0.0333722 0 0.000862596)
(0.034243 0 0.00101859)
(0.0353244 0 0.00115791)
(0.0365762 0 0.0012639)
(0.0378797 0 0.00132095)
(0.038997 0 0.00132266)
(0.0403856 0 0.00130531)
(0 0 0)
(0.00450633 0 -3.48002e-05)
(0.0086093 0 -6.65407e-05)
(0.0122202 0 -9.45422e-05)
(0.0153871 0 -0.000119107)
(0.0181546 0 -0.000140424)
(0.0205627 0 -0.000158563)
(0.0226479 0 -0.000173469)
(0.0244435 0 -0.00018497)
(0.0259799 0 -0.000192767)
(0.0272854 0 -0.000196435)
(0.0283865 0 -0.000195425)
(0.0293087 0 -0.000189059)
(0.0300766 0 -0.000176541)
(0.0307147 0 -0.000156976)
(0.0312478 0 -0.000129399)
(0.0317015 0 -9.28361e-05)
(0.032103 0 -4.6398e-05)
(0.0324811 0 1.05767e-05)
(0.032867 0 7.83119e-05)
(0.0332944 0 0.000156304)
(0.0337986 0 0.000242958)
(0.0344155 0 0.000335097)
(0.0351791 0 0.000427449)
(0.036116 0 0.000512307)
(0.0372378 0 0.00057961)
(0.0385275 0 0.000618002)
(0.0399199 0 0.000617761)
(0.0412766 0 0.000576677)
(0.042357 0 0.000509671)
(0.0436882 0 0.000397261)
(0 0 0)
(0.00452582 0 -3.87649e-05)
(0.00864851 0 -7.41747e-05)
(0.0122803 0 -0.000105518)
(0.0154707 0 -0.000133174)
(0.0182649 0 -0.000157404)
(0.0207042 0 -0.000178343)
(0.0228258 0 -0.000196011)
(0.0246637 0 -0.000210314)
(0.0262496 0 -0.000221052)
(0.0276125 0 -0.000227922)
(0.0287804 0 -0.000230535)
(0.0297797 0 -0.000228424)
(0.0306363 0 -0.000221071)
(0.0313761 0 -0.000207945)
(0.032025 0 -0.000188562)
(0.0326099 0 -0.000162567)
(0.0331586 0 -0.000129858)
(0.0337002 0 -9.07524e-05)
(0.0342651 0 -4.6209e-05)
(0.0348848 0 1.89634e-06)
(0.0355905 0 5.04704e-05)
(0.0364111 0 9.48662e-05)
(0.0373705 0 0.000128661)
(0.0384815 0 0.0001438)
(0.0397382 0 0.000131385)
(0.041105 0 8.36403e-05)
(0.0425021 0 -2.19668e-06)
(0.0437898 0 -0.000117342)
(0.0447543 0 -0.000231995)
(0.0459118 0 -0.000406361)
(0 0 0)
(0.00454574 0 -4.27105e-05)
(0.00868855 0 -8.17816e-05)
(0.0123417 0 -0.000116478)
(0.0155559 0 -0.000147266)
(0.0183775 0 -0.000174483)
(0.0208483 0 -0.000198344)
(0.0230066 0 -0.000218947)
(0.0248871 0 -0.000236294)
(0.0265223 0 -0.000250295)
(0.0279422 0 -0.000260788)
(0.0291754 0 -0.000267559)
(0.0302494 0 -0.000270366)
(0.031191 0 -0.000268984)
(0.0320267 0 -0.000263253)
(0.0327831 0 -0.000253155)
(0.0334872 0 -0.000238916)
(0.0341666 0 -0.000221137)
(0.0348494 0 -0.000200966)
(0.0355636 0 -0.000180294)
(0.0363368 0 -0.000161982)
(0.0371942 0 -0.000150049)
(0.0381565 0 -0.000149824)
(0.039236 0 -0.000167881)
(0.0404318 0 -0.000211494)
(0.0417229 0 -0.000287394)
(0.0430602 0 -0.000399384)
(0.0443591 0 -0.000544311)
(0.045493 0 -0.000706012)
(0.0462928 0 -0.000847083)
(0.0472012 0 -0.00105394)
(0 0 0)
(0.00456561 0 -4.6618e-05)
(0.00872849 0 -8.93238e-05)
(0.012403 0 -0.000127367)
(0.015641 0 -0.000161304)
(0.0184898 0 -0.000191557)
(0.0209921 0 -0.000218424)
(0.0231866 0 -0.000242093)
(0.0251091 0 -0.000262664)
(0.0267924 0 -0.000280168)
(0.0282674 0 -0.000294587)
(0.0295632 0 -0.000305887)
(0.0307078 0 -0.000314052)
(0.0317286 0 -0.000319136)
(0.0326521 0 -0.00032132)
(0.0335051 0 -0.000321004)
(0.0343139 0 -0.000318902)
(0.0351049 0 -0.000316176)
(0.0359039 0 -0.000314577)
(0.0367358 0 -0.000316606)
(0.037623 0 -0.000325647)
(0.0385839 0 -0.000346035)
(0.0396304 0 -0.000383016)
(0.040764 0 -0.000442437)
(0.0419718 0 -0.000529946)
(0.0432215 0 -0.000649544)
(0.0444567 0 -0.000801233)
(0.045595 0 -0.000977487)
(0.0465312 0 -0.00115844)
(0.0471476 0 -0.00130569)
(0.0477756 0 -0.00151626)
(0 0 0)
(0.00458491 0 -5.0467e-05)
(0.00876736 0 -9.67605e-05)
(0.0124628 0 -0.000138121)
(0.0157241 0 -0.000175201)
(0.0185995 0 -0.00020851)
(0.0211325 0 -0.000238431)
(0.0233623 0 -0.000265245)
(0.0253253 0 -0.000289155)
(0.0270547 0 -0.000310309)
(0.0285818 0 -0.000328835)
(0.0299362 0 -0.000344868)
(0.0311461 0 -0.000358602)
(0.0322387 0 -0.000370336)
(0.0332406 0 -0.000380544)
(0.0341775 0 -0.000389959)
(0.0350748 0 -0.00039966)
(0.0359569 0 -0.000411188)
(0.0368468 0 -0.000426645)
(0.0377652 0 -0.000448793)
(0.0387293 0 -0.000481097)
(0.0397506 0 -0.000527655)
(0.0408328 0 -0.000593005)
(0.0419686 0 -0.000681644)
(0.0431363 0 -0.000797102)
(0.0442968 0 -0.000940535)
(0.0453924 0 -0.00110871)
(0.0463487 0 -0.00129135)
(0.0470835 0 -0.0014679)
(0.0475265 0 -0.00160375)
(0.0478956 0 -0.00178466)
(0 0 0)
(0.00460314 0 -5.42359e-05)
(0.00880418 0 -0.000104049)
(0.0125196 0 -0.000148676)
(0.0158033 0 -0.000188866)
(0.0187043 0 -0.000225218)
(0.0212667 0 -0.000258202)
(0.0235302 0 -0.00028819)
(0.0255315 0 -0.000315483)
(0.0273042 0 -0.000340346)
(0.0288798 0 -0.000363037)
(0.0302879 0 -0.000383846)
(0.0315567 0 -0.000403144)
(0.0327128 0 -0.000421432)
(0.0337823 0 -0.000439409)
(0.0347899 0 -0.000458039)
(0.0357592 0 -0.000478633)
(0.0367121 0 -0.000502917)
(0.0376684 0 -0.000533099)
(0.0386447 0 -0.00057189)
(0.0396529 0 -0.000622456)
(0.0406986 0 -0.00068825)
(0.0417789 0 -0.00077269)
(0.04288 0 -0.000878599)
(0.0439755 0 -0.00100729)
(0.0450247 0 -0.00115733)
(0.0459737 0 -0.00132308)
(0.0467602 0 -0.00149308)
(0.0473247 0 -0.00164859)
(0.0476312 0 -0.00176212)
(0.0477861 0 -0.00189307)
(0 0 0)
(0.00462 0 -5.79338e-05)
(0.00883834 0 -0.000111209)
(0.0125725 0 -0.000159059)
(0.0158776 0 -0.000202329)
(0.018803 0 -0.000241709)
(0.0213933 0 -0.000277753)
(0.0236887 0 -0.000310921)
(0.0257259 0 -0.00034161)
(0.0275389 0 -0.000370187)
(0.029159 0 -0.000397028)
(0.0306157 0 -0.000422554)
(0.0319367 0 -0.000447276)
(0.0331482 0 -0.000471846)
(0.0342749 0 -0.000497113)
(0.0353402 0 -0.000524175)
(0.0363657 0 -0.000554435)
(0.0373707 0 -0.000589636)
(0.0383717 0 -0.000631879)
(0.0393812 0 -0.000683574)
(0.0404066 0 -0.00074733)
(0.0414487 0 -0.000825701)
(0.0424998 0 -0.000920807)
(0.0435429 0 -0.00103377)
(0.0445502 0 -0.00116389)
(0.0454836 0 -0.00130773)
(0.0462977 0 -0.00145812)
(0.0469451 0 -0.00160353)
(0.0473885 0 -0.00172835)
(0.0476164 0 -0.0018139)
(0.0476515 0 -0.0019124)
(0 0 0)
(0.00354277 0 0)
(0.00589152 0 0)
(0.00889762 0 0)
(0.0120706 0 0)
(0.015134 0 0)
(0.0179492 0 0)
(0.0204566 0 0)
(0.0226392 0 0)
(0.0245013 0 0)
(0.026058 0 0)
(0.0273276 0 0)
(0.0283272 0 0)
(0.0290707 0 0)
(0.0295687 0 0)
(0.0298281 0 0)
(0.0298523 0 0)
(0.0296415 0 0)
(0.0291923 0 0)
(0.0284983 0 0)
(0.0275499 0 0)
(0.0263347 0 0)
(0.024837 0 0)
(0.0230386 0 0)
(0.020918 0 0)
(0.0184509 0 0)
(0.0156103 0 0)
(0.0123662 0 0)
(0.00868596 0 0)
(0.00453377 0 0)
(0 0 0)
(0.00191912 0 -0.00198235)
(0.00470371 0 -0.00166367)
(0.0069189 0 -0.00152613)
(0.00976477 0 -0.00134306)
(0.0127839 0 -0.0011565)
(0.0157118 0 -0.000984546)
(0.0184131 0 -0.000833975)
(0.0208273 0 -0.000705975)
(0.0229348 0 -0.00059893)
(0.0247369 0 -0.000510018)
(0.0262457 0 -0.000436268)
(0.0274775 0 -0.000375105)
(0.0284472 0 -0.000324361)
(0.0291671 0 -0.000282073)
(0.0296463 0 -0.000246593)
(0.0298906 0 -0.000216579)
(0.0299028 0 -0.000190953)
(0.0296823 0 -0.000168854)
(0.0292253 0 -0.000149588)
(0.0285249 0 -0.000132598)
(0.0275714 0 -0.000117426)
(0.0263519 0 -0.000103697)
(0.0248508 0 -9.10898e-05)
(0.0230495 0 -7.93266e-05)
(0.0209266 0 -6.81558e-05)
(0.0184577 0 -5.73398e-05)
(0.0156154 0 -4.6643e-05)
(0.0123699 0 -3.58189e-05)
(0.0086884 0 -2.45971e-05)
(0.00453495 0 -1.26638e-05)
(0 0 0)
(0.00573376 0 -0.00352047)
(0.00790283 0 -0.0030975)
(0.00979661 0 -0.0028588)
(0.0122224 0 -0.00253408)
(0.0148217 0 -0.00219654)
(0.0173721 0 -0.00188099)
(0.0197521 0 -0.00160173)
(0.0219019 0 -0.00136243)
(0.023795 0 -0.00116095)
(0.0254243 0 -0.000992461)
(0.0267948 0 -0.000851764)
(0.0279168 0 -0.000734439)
(0.0288 0 -0.000636738)
(0.029451 0 -0.000554995)
(0.0298752 0 -0.000486148)
(0.0300755 0 -0.000427702)
(0.0300523 0 -0.000377643)
(0.0298032 0 -0.000334349)
(0.0293231 0 -0.00029651)
(0.0286041 0 -0.000263064)
(0.0276353 0 -0.000233139)
(0.0264034 0 -0.00020601)
(0.0248921 0 -0.00018106)
(0.0230825 0 -0.000157748)
(0.0209527 0 -0.000135584)
(0.018478 0 -0.000114102)
(0.015631 0 -9.28395e-05)
(0.0123813 0 -7.13091e-05)
(0.00869604 0 -4.89759e-05)
(0.00453885 0 -2.52178e-05)
(0 0 0)
(0.0111014 0 -0.00463874)
(0.0125708 0 -0.00417846)
(0.0140507 0 -0.00388078)
(0.0159036 0 -0.00347033)
(0.0179087 0 -0.00303543)
(0.019912 0 -0.00262205)
(0.0218183 0 -0.00225082)
(0.0235712 0 -0.00192856)
(0.0251388 0 -0.00165444)
(0.0265043 0 -0.0014232)
(0.0276626 0 -0.0012283)
(0.0286155 0 -0.00106431)
(0.0293639 0 -0.000926667)
(0.0299067 0 -0.00081072)
(0.0302439 0 -0.000712436)
(0.0303742 0 -0.000628512)
(0.0302945 0 -0.000556253)
(0.0299996 0 -0.000493466)
(0.0294824 0 -0.00043836)
(0.0287331 0 -0.000389471)
(0.0277397 0 -0.000345585)
(0.0264876 0 -0.000305684)
(0.0249598 0 -0.000268894)
(0.0231366 0 -0.000234442)
(0.0209955 0 -0.000201624)
(0.0185115 0 -0.000169763)
(0.0156566 0 -0.000138183)
(0.0124001 0 -0.000106171)
(0.00870853 0 -7.29367e-05)
(0.00454522 0 -3.75612e-05)
(0 0 0)
(0.0173537 0 -0.00533473)
(0.0181301 0 -0.00487504)
(0.0191403 0 -0.00455106)
(0.0203532 0 -0.00410678)
(0.0216851 0 -0.00363011)
(0.0230566 0 -0.00316975)
(0.0244048 0 -0.00274952)
(0.0256812 0 -0.0023785)
(0.0268515 0 -0.0020581)
(0.0278923 0 -0.00178479)
(0.0287883 0 -0.00155219)
(0.0295298 0 -0.00135426)
(0.0301064 0 -0.00118603)
(0.0305099 0 -0.00104288)
(0.0307342 0 -0.000920431)
(0.030773 0 -0.000815022)
(0.0306189 0 -0.000723607)
(0.0302636 0 -0.00064366)
(0.029697 0 -0.000573091)
(0.0289073 0 -0.000510164)
(0.0278809 0 -0.000453421)
(0.0266016 0 -0.000401625)
(0.0250515 0 -0.0003537)
(0.0232099 0 -0.000308684)
(0.0210536 0 -0.000265689)
(0.0185568 0 -0.000223854)
(0.0156912 0 -0.000182311)
(0.0124254 0 -0.000140135)
(0.00872539 0 -9.63e-05)
(0.00455379 0 -4.96032e-05)
(0 0 0)
(0.0238867 0 -0.00562566)
(0.0240134 0 -0.00519498)
(0.0245394 0 -0.00487483)
(0.0251177 0 -0.00444226)
(0.0257801 0 -0.00397395)
(0.0265136 0 -0.00351433)
(0.0272874 0 -0.00308701)
(0.0280647 0 -0.00270243)
(0.0288109 0 -0.00236375)
(0.0294982 0 -0.00206984)
(0.0301046 0 -0.00181642)
(0.030608 0 -0.00159794)
(0.0309882 0 -0.00140953)
(0.031231 0 -0.00124708)
(0.0313238 0 -0.00110651)
(0.031255 0 -0.000984258)
(0.0310129 0 -0.000877264)
(0.0305853 0 -0.00078293)
(0.0299594 0 -0.000699058)