/*--------------------------------*- C++ -*----------------------------------*\
| =========                 |                                                 |
| \\      /  F ield         | OpenFOAM: The Open Source CFD Toolbox           |
|  \\    /   O peration     | Version:  dev                                   |
|   \\  /    A nd           | Web:      www.OpenFOAM.org                      |
|    \\/     M anipulation  |                                                 |
\*---------------------------------------------------------------------------*/
FoamFile
{
    version     2.0;
    format      ascii;
    class       surfaceVectorField;
    location    "2.75";
    object      Uf;
}
// * * * * * * * * * * * * * * * * * * * * * * * * * * * * * * * * * * * * * //

dimensions      [0 1 -1 0 0 0 0];

internalField   nonuniform List<vector> 
5457
(
(9.91073 0 0.023153)
(9.97187 0 0.038233)
(9.81058 0 0.0297104)
(9.92707 0 0.0443082)
(9.69717 0 0.0350033)
(9.85386 7.72681e-21 0.0520849)
(9.56866 0 0.0403573)
(9.76072 8.05902e-21 0.0612373)
(9.4255 -8.98274e-21 0.0457793)
(9.65219 2.5285e-20 0.0707522)
(9.26829 -1.33478e-20 0.0513121)
(9.52893 -8.78276e-21 0.0805291)
(9.09719 -4.52297e-21 0.0570962)
(9.39072 -1.84402e-20 0.0907913)
(8.912 -1.54236e-20 0.0632708)
(9.23736 -1.79352e-22 0.101768)
(8.71221 9.23787e-21 0.0699565)
(9.06855 9.76144e-21 0.113648)
(8.49715 1.21357e-20 0.0772719)
(8.8838 2.10942e-20 0.12661)
(8.26595 -3.44444e-20 0.0853407)
(8.6824 2.7622e-20 0.140844)
(8.01759 -2.31987e-20 0.0942949)
(8.46346 -1.14944e-19 0.156548)
(7.75089 -6.89868e-22 0.10428)
(8.22589 4.80946e-20 0.173934)
(7.46451 2.6572e-20 0.115454)
(7.96846 -3.67908e-22 0.193239)
(7.15702 5.47441e-20 0.127989)
(7.68982 2.64816e-20 0.214705)
(6.82686 -1.90507e-21 0.142062)
(7.38847 2.82364e-20 0.238576)
(6.47242 -3.65671e-20 0.157863)
(7.06281 -1.46232e-19 0.265088)
(6.09208 5.89546e-20 0.175587)
(6.7112 2.43542e-19 0.294456)
(5.68431 -4.22694e-21 0.195412)
(6.33197 1.96482e-19 0.326845)
(5.24775 -6.66389e-20 0.217477)
(5.92357 -6.04217e-19 0.362324)
(4.78134 0 0.241867)
(5.48455 2.78993e-19 0.400806)
(4.28457 1.20872e-19 0.268582)
(5.01382 0 0.441984)
(3.75766 1.20432e-19 0.297466)
(4.51082 2.3383e-19 0.485235)
(3.20189 -3.00072e-19 0.328111)
(3.97571 2.21194e-21 0.529461)
(2.6199 6.10698e-20 0.359665)
(3.40952 -3.40012e-19 0.572832)
(2.01658 -1.99822e-19 0.390245)
(2.81462 3.54438e-19 0.612264)
(1.40066 -1.76335e-19 0.414745)
(2.19507 1.67255e-19 0.642122)
(0.789268 4.65127e-19 0.41429)
(1.55727 -5.34832e-19 0.649943)
(0.221638 9.08598e-20 0.24351)
(0.892435 1.47282e-18 0.599813)
(0.398131 -1.74945e-18 0.242287)
(10.0006 0 0.0472207)
(10.0024 -2.86936e-20 0.0379433)
(9.96661 7.87934e-21 0.0627216)
(9.98622 0 0.0593351)
(9.91309 1.57718e-20 0.076016)
(9.94506 -7.72236e-21 0.0766366)
(9.84211 3.36708e-20 0.0898911)
(9.88429 4.02901e-20 0.095033)
(9.7541 2.48403e-20 0.104325)
(9.80727 8.48561e-21 0.114221)
(9.64957 -1.40585e-20 0.119357)
(9.71481 3.06028e-23 0.134048)
(9.52876 -1.37594e-20 0.135282)
(9.60693 -1.38379e-20 0.154875)
(9.39156 2.51958e-20 0.152419)
(9.48355 -5.76359e-20 0.177136)
(9.23761 2.1824e-20 0.171051)
(9.34446 1.14677e-19 0.201209)
(9.0663 3.66841e-20 0.191455)
(9.18925 -8.59952e-20 0.227453)
(8.87687 -5.53416e-20 0.213923)
(9.01733 7.64935e-20 0.256244)
(8.66839 -4.08511e-20 0.238765)
(8.8279 7.63495e-23 0.287982)
(8.43972 4.76177e-20 0.266322)
(8.62002 -4.7095e-20 0.323108)
(8.18959 0 0.296954)
(8.39254 -3.11683e-21 0.362105)
(7.91658 0 0.331031)
(8.14422 6.52853e-21 0.405477)
(7.61912 -1.18961e-19 0.368921)
(7.87364 0 0.453735)
(7.29557 1.40211e-19 0.410976)
(7.57926 -1.31392e-19 0.507393)
(6.9442 3.80444e-19 0.457503)
(7.25943 8.54303e-21 0.566939)
(6.5633 -4.15814e-19 0.50871)
(6.91243 3.81412e-19 0.632783)
(6.15121 -2.45419e-19 0.564631)
(6.53646 -4.70655e-19 0.705174)
(5.70644 2.74867e-19 0.625045)
(6.12976 2.78987e-19 0.784096)
(5.22782 1.16959e-19 0.689352)
(5.69061 -7.20772e-20 0.869122)
(4.71474 1.13794e-19 0.7564)
(5.21749 -3.60653e-20 0.959252)
(4.16726 -4.22906e-20 0.824195)
(4.70916 -1.56611e-19 1.05262)
(3.58627 -4.13614e-20 0.889406)
(4.16451 -4.1765e-20 1.146)
(2.97389 7.20141e-19 0.94631)
(3.5825 0 1.23401)
(2.33367 -1.93068e-19 0.984329)
(2.96153 2.10687e-18 1.30728)
(1.66941 4.5641e-19 0.984169)
(2.2986 -2.1371e-18 1.34811)
(0.964688 -3.70551e-19 0.908575)
(1.55384 1.18723e-18 1.33048)
(0.927935 -1.36997e-18 1.18033)
(9.99352 -2.81871e-20 0.0527027)
(10.0001 3.54086e-21 0.0407253)
(9.96333 -1.57851e-20 0.076565)
(9.98148 -1.11337e-20 0.0727185)
(9.91372 1.76738e-20 0.0985513)
(9.94156 -7.7689e-21 0.0994598)
(9.84798 1.44878e-20 0.121467)
(9.88395 -1.6118e-20 0.126412)
(9.7669 -1.65058e-20 0.145455)
(9.81091 -9.41246e-23 0.154358)
(9.67086 0 0.170607)
(9.72325 -3.51009e-20 0.18332)
(9.56009 -5.84865e-20 0.197326)
(9.6212 -2.94926e-22 0.213739)
(9.43457 3.4915e-20 0.226085)
(9.50483 -5.23212e-22 0.246205)
(9.29402 3.34491e-21 0.257331)
(9.374 7.98321e-20 0.281267)
(9.13795 -4.33808e-20 0.291507)
(9.22841 -1.66858e-19 0.319452)
(8.96574 1.30594e-19 0.329084)
(9.06763 1.34976e-19 0.361295)
(8.77659 -6.96179e-21 0.370579)
(8.89102 9.17978e-20 0.407376)
(8.56952 -9.71206e-20 0.416562)
(8.69781 -9.55653e-20 0.458344)
(8.34344 3.5718e-21 0.467647)
(8.48711 -1.38794e-23 0.514911)
(8.09707 6.42248e-21 0.524468)
(8.25789 -2.09025e-19 0.577826)
(7.82901 -1.45673e-20 0.587673)
(8.00898 -1.67606e-20 0.647867)
(7.53771 -2.60821e-19 0.657903)
(7.73908 4.54705e-19 0.725839)
(7.22149 1.52542e-20 0.735749)
(7.44675 -9.29035e-19 0.812544)
(6.87855 3.13497e-19 0.821669)
(7.1304 8.06679e-19 0.908716)
(6.50699 6.49228e-20 0.915882)
(6.78828 5.66276e-22 1.01493)
(6.10482 -7.31071e-20 1.01823)
(6.41847 0 1.13146)
(5.66998 -2.23986e-19 1.12798)
(6.01882 -7.40429e-22 1.25809)
(5.20041 -3.07468e-19 1.24363)
(5.58692 7.06461e-20 1.39395)
(4.69392 -1.54799e-19 1.36244)
(5.11992 1.23464e-18 1.53716)
(4.14778 0 1.47996)
(4.61413 1.50647e-20 1.68436)
(3.55797 1.40064e-18 1.5891)
(4.06433 -1.14172e-18 1.83017)
(2.91679 1.57005e-19 1.67891)
(3.46221 1.22155e-18 1.96656)
(2.20594 -1.41273e-18 1.7366)
(2.79583 -1.39727e-18 2.08202)
(1.37587 2.1763e-19 1.76209)
(2.01443 2.75995e-18 2.17335)
(1.22632 -2.96578e-18 2.2421)
(9.98894 2.03593e-20 0.0613481)
(9.99878 8.93703e-20 0.0454676)
(9.959 -3.0491e-21 0.0950986)
(9.97817 3.68106e-21 0.086)
(9.91029 -4.17016e-20 0.126654)
(9.93804 -7.6713e-21 0.121885)
(9.84562 -3.03746e-20 0.1586)
(9.8815 -8.04014e-20 0.157309)
(9.76613 -1.93357e-20 0.191576)
(9.80995 -1.66751e-20 0.193732)
(9.67231 -3.47471e-20 0.225935)
(9.72413 -3.51104e-20 0.23149)
(9.56441 5.76877e-20 0.262251)
(9.62441 -2.95013e-22 0.271128)
(9.4425 4.58306e-20 0.30117)
(9.51095 7.5876e-20 0.313349)
(9.30643 -9.46813e-20 0.343315)
(9.3837 -9.94319e-21 0.358847)
(9.1559 1.67398e-20 0.3893)
(9.24246 -1.66486e-19 0.408286)
(8.99045 9.54466e-20 0.439767)
(9.08695 1.82816e-19 0.462343)
(8.80949 0 0.495423)
(8.91669 -1.92409e-19 0.521748)
(8.61231 3.15491e-21 0.557049)
(8.73109 1.81083e-19 0.587314)
(8.3981 -2.16073e-19 0.625485)
(8.52951 2.72146e-21 0.659937)
(8.1659 -2.29139e-19 0.701616)
(8.31119 -8.6861e-21 0.740573)
(7.91465 4.60101e-19 0.786368)
(8.07525 1.31538e-20 0.830227)
(7.64316 -2.35218e-19 0.880692)
(7.82072 -2.06184e-19 0.929962)
(7.35006 -1.11112e-19 0.985528)
(7.54651 -2.79158e-19 1.04088)
(7.0338 4.81671e-19 1.10172)
(7.25134 9.88864e-19 1.16409)
(6.69264 -6.43316e-20 1.22986)
(6.93373 -5.73352e-19 1.30054)
(6.32449 7.21735e-20 1.37019)
(6.59195 0 1.45093)
(5.9269 2.94366e-19 1.52239)
(6.22371 2.09353e-19 1.61556)
(5.49675 1.62511e-18 1.68529)
(5.82618 7.60092e-20 1.79418)
(5.02994 1.39381e-18 1.85658)
(5.39564 1.38928e-18 1.98569)
(4.52059 -1.13139e-18 2.03245)
(4.92654 -1.38438e-19 2.18772)
(3.95956 -1.30215e-18 2.20753)
(4.41084 -1.29854e-18 2.3967)
(3.33194 -3.36777e-19 2.37478)
(3.83642 -2.60985e-18 2.6082)
(2.61279 2.73561e-18 2.52721)
(3.18753 5.27304e-18 2.81708)
(1.77266 -5.5248e-19 2.68271)
(2.42949 -2.46055e-18 3.01912)
(1.52591 -3.11167e-18 3.27519)
(9.98661 7.11834e-20 0.070837)
(9.99815 8.05847e-23 0.0512077)
(9.9563 -1.1562e-21 0.11314)
(9.9764 -4.41369e-20 0.0994541)
(9.90837 -4.77756e-20 0.153168)
(9.93616 -7.67615e-20 0.143967)
(9.84476 -6.55005e-20 0.193307)
(9.88064 -5.19534e-23 0.187713)
(9.76677 -3.2794e-20 0.234615)
(9.8107 8.11738e-23 0.232394)
(9.67492 0 0.277705)
(9.72683 -6.92732e-20 0.278684)
(9.56944 1.9261e-20 0.323277)
(9.62949 7.26447e-20 0.32727)
(9.45043 1.85966e-20 0.372088)
(9.51886 -7.50547e-20 0.378954)
(9.3178 -8.44406e-20 0.424877)
(9.39494 -3.92516e-20 0.434538)
(9.17136 5.60898e-21 0.482378)
(9.25761 -5.74228e-22 0.494801)
(9.01078 -1.11372e-19 0.545362)
(9.10668 6.33648e-22 0.560546)
(8.8356 -5.10984e-21 0.614667)
(8.94178 -1.81331e-19 0.632635)
(8.6453 1.77791e-19 0.691223)
(8.76244 1.87031e-19 0.712013)
(8.43926 2.09992e-19 0.776036)
(8.56819 -1.92903e-19 0.799726)
(8.21679 2.34163e-19 0.87018)
(8.35846 -1.9603e-22 0.896894)
(7.97713 -6.56694e-19 0.974793)
(8.1326 4.38074e-19 1.00471)
(7.7194 -2.51806e-19 1.09109)
(7.88992 -6.7591e-19 1.12444)
(7.4426 8.40398e-19 1.22032)
(7.62955 4.65328e-19 1.25747)
(7.14549 -8.88138e-20 1.36371)
(7.35057 4.32726e-19 1.40524)
(6.82661 -5.01072e-19 1.5223)
(7.05182 -5.0828e-19 1.5691)
(6.48405 1.39971e-19 1.69686)
(6.73186 1.05113e-18 1.7503)
(6.11527 -1.02354e-20 1.88777)
(6.3884 1.07915e-18 1.94976)
(5.71679 -1.43391e-19 2.09488)
(6.01857 9.8534e-19 2.16814)
(5.28356 -1.5473e-19 2.31703)
(5.61854 -2.3215e-18 2.40564)
(4.80811 -3.12953e-19 2.55206)
(5.18212 1.18677e-18 2.66152)
(4.27922 -2.60572e-18 2.79725)
(4.70026 -1.59354e-19 2.93434)
(3.68059 2.97334e-18 3.04992)
(4.16029 -4.93395e-18 3.22257)
(2.98701 1.95188e-19 3.3029)
(3.54371 7.92799e-18 3.5258)
(2.19608 -4.83884e-18 3.5754)
(2.85457 -5.21057e-18 3.81724)
(1.85804 2.92021e-18 4.22926)
(9.98546 -1.16057e-19 0.0807059)
(9.99792 -1.70549e-19 0.057442)
(9.9549 -1.20395e-19 0.130969)
(9.97561 -8.79352e-23 0.113023)
(9.90787 -2.75585e-20 0.179215)
(9.93553 -9.73856e-23 0.165646)
(9.84571 6.55491e-20 0.227531)
(9.88126 9.56926e-20 0.217455)
(9.76958 -3.76855e-20 0.277159)
(9.81324 6.67295e-20 0.27016)
(9.68007 5.91994e-21 0.328912)
(9.7317 3.46541e-20 0.324715)
(9.5774 -2.43123e-20 0.383607)
(9.63712 -3.53915e-20 0.381971)
(9.46167 -1.32319e-19 0.442084)
(9.52975 1.85584e-20 0.442818)
(9.33285 4.52973e-20 0.505183)
(9.40963 -7.79372e-20 0.508145)
(9.19081 -5.49978e-21 0.573747)
(9.2767 4.18792e-20 0.578833)
(9.03529 -7.23697e-20 0.648669)
(9.1308 -8.51765e-20 0.655797)
(8.86596 1.69404e-20 0.730915)
(8.97166 -1.66868e-19 0.740016)
(8.68241 -1.89927e-19 0.821547)
(8.79891 -7.85182e-21 0.832553)
(8.48414 -4.00209e-19 0.921719)
(8.61219 1.59376e-21 0.934584)
(8.27066 2.10395e-19 1.03266)
(8.41107 -2.07485e-19 1.04737)
(8.04137 4.02093e-19 1.15571)
(8.19506 4.21509e-19 1.17224)
(7.79561 5.86062e-20 1.29229)
(7.96363 4.65831e-19 1.3107)
(7.53263 5.69198e-20 1.44394)
(7.71604 -4.21537e-19 1.46433)
(7.25154 0 1.61225)
(7.45163 -5.87103e-20 1.63484)
(6.95116 1.06517e-18 1.79877)
(7.1696 0 1.82404)
(6.62974 1.99248e-18 2.00486)
(6.8687 1.05161e-18 2.03377)
(6.2848 2.07324e-18 2.23169)
(6.5469 2.00209e-18 2.2657)
(5.91295 -1.22161e-18 2.48025)
(6.20137 1.14174e-18 2.52131)
(5.50919 -9.55707e-19 2.75113)
(5.82846 -3.43622e-18 2.80222)
(5.06587 1.33139e-18 3.04401)
(5.42247 1.33787e-18 3.10965)
(4.57202 -2.50006e-18 3.3581)
(4.97464 0 3.44395)
(4.01318 -5.90365e-21 3.69346)
(4.47383 -2.49086e-18 3.80454)
(3.36323 2.64219e-18 4.03803)
(3.89539 2.50308e-18 4.19579)
(2.63862 2.94001e-18 4.39959)
(3.29887 -2.36854e-18 4.55431)
(2.22046 5.32465e-18 5.09166)
(9.98497 -5.15587e-20 0.0907495)
(9.99795 -7.26561e-21 0.0638854)
(9.95447 1.20239e-19 0.148589)
(9.97548 1.83282e-19 0.126572)
(9.90851 1.25019e-19 0.204708)
(9.93585 1.22216e-19 0.186852)
(9.84808 9.63339e-20 0.260926)
(9.88309 -9.50763e-20 0.24639)
(9.7742 1.38494e-19 0.318577)
(9.81731 -6.85095e-23 0.30685)
(9.68742 -7.93018e-21 0.378657)
(9.73846 1.72567e-19 0.36939)
(9.58799 8.40974e-21 0.442105)
(9.64705 -1.43972e-19 0.435005)
(9.47604 7.13129e-20 0.509854)
(9.5434 1.49977e-19 0.504668)
(9.35161 -7.93601e-20 0.582835)
(9.42761 1.83384e-23 0.579349)
(9.21459 -3.99745e-20 0.661995)
(9.29965 -1.80421e-22 0.660024)
(9.06481 -1.81026e-19 0.748336)
(9.15943 0 0.747709)
(8.902 -1.89179e-19 0.842934)
(9.00675 -1.78208e-19 0.843489)
(8.72584 1.83923e-19 0.946966)
(8.84132 -1.85835e-19 0.948533)
(8.53596 1.91356e-19 1.06171)
(8.66284 7.59777e-19 1.06413)
(8.33197 1.32228e-20 1.18854)
(8.47106 -3.99466e-19 1.19166)
(8.11344 4.85745e-19 1.32897)
(8.26557 4.1435e-19 1.33261)
(7.87981 -2.66913e-20 1.48462)
(8.04593 6.16947e-22 1.48869)
(7.63041 -5.32486e-19 1.65726)
(7.81157 -4.79817e-19 1.66171)
(7.36465 -5.79645e-20 1.84879)
(7.56197 -9.29831e-19 1.85355)
(7.08165 0 2.06129)
(7.29648 1.01123e-18 2.06641)
(6.7799 1.07307e-18 2.29689)
(7.01407 -9.95975e-19 2.3028)
(6.4571 1.06413e-18 2.55755)
(6.71324 4.41841e-20 2.56525)
(6.11006 -1.11147e-18 2.84525)
(6.39132 7.69975e-20 2.85608)
(5.73426 -1.10888e-18 3.16218)
(6.04475 -1.11605e-18 3.17797)
(5.32282 0 3.51)
(5.66874 2.21196e-18 3.53393)
(4.86589 0 3.88894)
(5.25552 -2.23673e-18 3.92602)
(4.35186 0 4.29986)
(4.79666 2.26167e-18 4.35293)
(3.752 -2.46404e-18 4.72423)
(4.25593 -2.23389e-18 4.8249)
(3.08931 7.72418e-19 5.14997)
(3.75808 -2.39861e-18 5.23463)
(2.60389 2.59171e-18 5.87066)
(9.98493 2.30965e-19 0.100797)
(9.99813 1.06301e-19 0.0703473)
(9.95479 1.84072e-19 0.1659)
(9.97584 2.21505e-20 0.139968)
(9.91009 -1.0209e-19 0.229505)
(9.93696 1.53768e-20 0.207499)
(9.85171 -1.8974e-19 0.293288)
(9.88595 -1.2709e-19 0.274373)
(9.78044 3.71444e-20 0.358665)
(9.82269 -9.89467e-20 0.342286)
(9.69676 3.08792e-20 0.426764)
(9.74686 6.86027e-20 0.412519)
(9.601 2.74781e-21 0.498623)
(9.65903 3.51329e-20 0.486154)
(9.49333 7.608e-20 0.575262)
(9.55956 7.42676e-20 0.564245)
(9.37382 7.92475e-20 0.657695)
(9.4486 -3.82412e-20 0.64785)
(9.24243 3.98314e-20 0.746965)
(9.32618 2.0146e-19 0.738028)
(9.09906 0 0.84417)
(9.19226 -1.65869e-19 0.835883)
(8.94351 -1.74916e-19 0.950491)
(9.04674 4.32007e-20 0.942601)
(8.77555 4.04716e-19 1.06721)
(8.88937 -1.72311e-19 1.05946)
(8.59489 1.51525e-19 1.19571)
(8.71998 1.65655e-19 1.18783)
(8.40127 1.35807e-20 1.3375)
(8.53843 -3.98192e-19 1.32922)
(8.19434 -7.64873e-20 1.49425)
(8.34441 7.97888e-19 1.48525)
(7.97366 -4.59627e-19 1.66784)
(8.13744 -4.53123e-19 1.65785)
(7.73874 -8.82954e-19 1.86021)
(7.91734 0 1.84903)
(7.48902 1.62328e-19 2.07355)
(7.68362 -1.77846e-18 2.06088)
(7.2238 -7.564e-21 2.31039)
(7.43556 9.4428e-19 2.29597)
(6.94191 -2.01598e-18 2.57364)
(7.1725 9.24618e-19 2.55737)
(6.64148 -9.4268e-19 2.86621)
(6.89332 -3.4073e-20 2.8484)
(6.31953 6.47718e-20 3.19099)
(6.59576 -1.01569e-18 3.17249)
(5.97209 2.22257e-18 3.55134)
(6.27654 1.09628e-18 3.53322)
(5.59336 -2.7912e-20 3.95064)
(5.93151 2.21121e-18 3.93479)
(5.17433 2.48374e-20 4.38982)
(5.55371 -2.23045e-18 4.38104)
(4.70601 2.80245e-20 4.86944)
(5.1385 2.25687e-18 4.86898)
(4.15596 -2.16806e-18 5.36491)
(4.63254 -2.26018e-18 5.41662)
(3.54122 6.80873e-20 5.83996)
(4.22823 7.14106e-20 5.87112)
(3.00137 0 6.58894)
(9.98517 -1.041e-19 0.110702)
(9.99836 0 0.0767042)
(9.95573 -1.46705e-19 0.18278)
(9.97654 -1.02317e-19 0.153069)
(9.91251 -1.23643e-20 0.253483)
(9.93879 -7.58467e-20 0.227481)
(9.85641 -3.57067e-20 0.324472)
(9.88972 6.31329e-20 0.301296)
(9.78803 -6.44592e-20 0.397259)
(9.82914 6.53735e-20 0.376327)
(9.70782 7.227e-20 0.473049)
(9.75665 -6.77898e-20 0.453922)
(9.61615 1.07371e-19 0.552944)
(9.67277 2.44498e-22 0.535198)
(9.51323 -4.19858e-20 0.638048)
(9.57792 1.44574e-22 0.621295)
(9.39917 8.79278e-20 0.729457)
(9.47229 -6.97188e-22 0.713356)
(9.274 -1.02072e-20 0.828292)
(9.35596 3.20506e-19 0.812507)
(9.13769 -1.19433e-19 0.935748)
(9.22895 -2.89117e-19 0.919932)
(8.99012 4.25593e-20 1.0531)
(9.09126 -1.71881e-19 1.03692)
(8.83113 -4.0654e-19 1.18172)
(8.94268 -1.80581e-19 1.16483)
(8.66058 -3.93057e-19 1.3231)
(8.7832 -3.58412e-19 1.30511)
(8.4783 4.03438e-19 1.47887)
(8.61279 4.06785e-19 1.45937)
(8.28399 4.04331e-19 1.65088)
(8.43117 4.0288e-19 1.62945)
(8.07734 1.3021e-20 1.8412)
(8.238 -4.12898e-19 1.8174)
(7.85804 -9.18047e-19 2.052)
(8.0334 -4.31607e-19 2.02541)
(7.62565 -9.66795e-19 2.28574)
(7.81679 -3.38202e-20 2.25587)
(7.37952 1.87412e-18 2.54545)
(7.58757 -6.83186e-20 2.51172)
(7.11878 2.901e-18 2.83463)
(7.34546 1.92482e-18 2.7965)
(6.84198 -1.12632e-19 3.15709)
(7.08947 9.85628e-19 3.11424)
(6.5466 2.53902e-20 3.51687)
(6.8179 -1.08237e-18 3.46944)
(6.22913 1.09223e-18 3.91829)
(6.52804 1.03873e-18 3.86682)
(5.88462 4.1049e-21 4.36595)
(6.21613 0 4.31149)
(5.50449 4.09817e-21 4.86164)
(5.87523 1.10982e-22 4.80903)
(5.08097 -3.37429e-20 5.40582)
(5.50523 0 5.35477)
(4.57741 -3.39112e-20 5.96938)
(5.03163 -3.38009e-20 5.97665)
(3.99496 0 6.49106)
(4.71094 0 6.47963)
(3.41261 2.14035e-18 7.27607)
(9.98557 0 0.120347)
(9.99858 0 0.082893)
(9.95715 -3.08766e-20 0.199103)
(9.97749 0 0.165722)
(9.91568 2.30646e-21 0.276545)
(9.94123 -1.80491e-19 0.246677)
(9.862 1.64298e-19 0.354382)
(9.8943 6.26124e-20 0.327091)
(9.79673 5.96673e-20 0.434223)
(9.83657 1.3111e-19 0.408874)
(9.72031 -1.38681e-19 0.517319)
(9.76771 -6.78356e-20 0.493432)
(9.63313 -1.07054e-19 0.604828)
(9.68814 -4.57063e-22 0.581924)
(9.53542 4.14357e-20 0.697931)
(9.59831 -1.09462e-19 0.675569)
(9.42733 2.37204e-19 0.797795)
(9.49846 1.13937e-19 0.77558)
(9.30895 3.1863e-20 0.90561)
(9.38872 4.09531e-20 0.883135)
(9.18033 -3.39811e-19 1.02265)
(9.26918 1.62076e-19 0.999484)
(9.04143 -3.95455e-19 1.15029)
(9.13991 -3.83826e-19 1.12601)
(8.89218 -1.3512e-19 1.28997)
(9.00084 -1.80819e-19 1.26416)
(8.73257 4.52701e-19 1.44326)
(8.85207 3.84925e-19 1.41542)
(8.56253 4.06157e-19 1.61195)
(8.69363 7.32167e-21 1.58152)
(8.38188 -4.25819e-19 1.79806)
(8.52523 6.24457e-21 1.76447)
(8.1905 -8.58894e-19 2.00383)
(8.347 -4.14212e-19 1.96647)
(7.98816 4.56564e-19 2.23163)
(8.15912 -4.32413e-19 2.18989)
(7.7745 8.65491e-19 2.48425)
(7.96099 8.8884e-19 2.43743)
(7.54908 0 2.76518)
(7.75233 8.79925e-19 2.71235)
(7.31133 0 3.0785)
(7.53295 -9.08728e-19 3.01864)
(7.06015 0 3.42882)
(7.30222 -9.17639e-19 3.3611)
(6.79357 -5.89899e-20 3.8213)
(7.059 9.2915e-19 3.74513)
(6.50852 -5.85419e-20 4.2615)
(6.80117 -6.25094e-20 4.17666)
(6.20061 -3.98799e-21 4.75514)
(6.5255 -1.88623e-18 4.66209)
(5.86117 -3.98648e-21 5.30518)
(6.22432 1.77502e-18 5.20896)
(5.48188 0 5.91342)
(5.90205 0 5.81186)
(5.02189 0 6.54854)
(5.46147 0 6.51033)
(4.45953 2.25481e-18 7.12745)
(5.21531 0 7.0754)
(3.84618 2.13356e-18 7.96587)
(9.98613 0 0.129635)
(9.99884 9.70865e-20 0.088844)
(9.959 -1.53179e-19 0.214748)
(9.97869 1.29241e-19 0.177816)
(9.91952 -1.15549e-19 0.298593)
(9.94414 -3.04221e-20 0.264978)
(9.86848 3.06493e-20 0.382923)
(9.89956 1.55341e-19 0.351657)
(9.80657 0 0.46942)
(9.84492 6.47407e-20 0.439801)
(9.73427 7.16351e-20 0.559389)
(9.77996 -6.69104e-20 0.530886)
(9.65195 -4.66763e-21 0.654052)
(9.70504 7.04447e-20 0.626143)
(9.55984 -3.32979e-20 0.754654)
(9.62057 -1.44758e-19 0.726854)
(9.45815 -8.36218e-20 0.862417)
(9.52689 -3.75948e-20 0.834281)
(9.34704 1.73061e-19 0.97858)
(9.42418 -1.6603e-21 0.949633)
(9.22665 1.10086e-19 1.10449)
(9.3126 1.25099e-19 1.07422)
(9.09705 -1.66084e-19 1.24161)
(9.19227 -1.27092e-19 1.20949)
(8.95827 3.47594e-19 1.39144)
(9.06336 0 1.35698)
(8.81038 -6.5806e-20 1.55564)
(8.92603 3.43017e-19 1.51823)
(8.65338 -3.93473e-19 1.7361)
(8.78024 -7.24145e-19 1.6951)
(8.48729 1.28074e-20 1.935)
(8.62598 -3.12089e-21 1.88967)
(8.31224 1.25045e-20 2.15474)
(8.46371 4.52875e-19 2.10422)
(8.12821 1.34007e-20 2.39796)
(8.29354 -5.01606e-20 2.3414)
(7.9349 9.02502e-19 2.66781)
(8.11527 2.11852e-22 2.60428)
(7.73203 -4.20113e-20 2.96804)
(7.92899 8.82078e-19 2.89638)
(7.51933 -1.82865e-18 3.30334)
(7.73429 -8.97438e-19 3.222)
(7.29618 1.87221e-20 3.67922)
(7.53118 -9.20193e-19 3.58671)
(7.06125 9.23352e-19 4.10184)
(7.31927 9.31795e-19 3.99684)
(6.81198 -1.89549e-18 4.57823)
(7.09682 -3.73113e-21 4.45957)
(6.54421 -1.14442e-19 5.11594)
(6.86153 -3.77379e-18 4.9831)
(6.24894 1.78206e-18 5.71991)
(6.60472 3.67281e-18 5.57783)
(5.91569 0 6.39528)
(6.33512 -1.71764e-18 6.23949)
(5.50008 0 7.11192)
(5.93407 2.14106e-18 7.02012)
(4.95349 0 7.77417)
(5.75961 0 7.67067)
(4.3224 1.76306e-18 8.69687)
(9.98682 2.26865e-19 0.138486)
(9.9991 -1.37903e-19 0.094501)
(9.96114 2.48975e-19 0.229614)
(9.98003 1.71827e-19 0.189281)
(9.92384 2.4411e-19 0.319519)
(9.94735 -5.83172e-20 0.282301)
(9.87568 1.87824e-19 0.409972)
(9.90531 9.31108e-20 0.374883)
(9.81739 -4.52264e-21 0.502701)
(9.85399 7.4478e-22 0.46898)
(9.74949 -6.57859e-20 0.59909)
(9.79316 -5.36482e-22 0.566142)
(9.67233 -7.32988e-20 0.700429)
(9.72313 0 0.667691)
(9.58617 -1.47342e-19 0.80801)
(9.64432 7.10882e-20 0.774963)
(9.49128 4.49948e-20 0.923083)
(9.55719 -7.52364e-20 0.889233)
(9.38789 -4.7699e-20 1.04693)
(9.46196 2.71538e-19 1.01174)
(9.27621 -1.16047e-19 1.18095)
(9.3588 -3.19381e-19 1.14384)
(9.15643 4.10121e-20 1.32666)
(9.24792 3.02688e-22 1.28703)
(9.02875 0 1.48567)
(9.12969 8.47171e-20 1.44289)
(8.89325 -3.29702e-19 1.6597)
(9.0044 4.37188e-20 1.6131)
(8.7501 -3.24835e-19 1.85072)
(8.8719 -7.35079e-19 1.79954)
(8.59952 4.42385e-19 2.06101)
(8.73267 4.15131e-19 2.00436)
(8.44178 3.85119e-19 2.29306)
(8.5873 -4.24316e-19 2.22993)
(8.27713 -6.29244e-20 2.54986)
(8.43578 7.83652e-19 2.47905)
(8.10567 -1.29578e-20 2.83492)
(8.27858 7.93289e-19 2.75513)
(7.9273 1.37678e-20 3.15226)
(8.11616 -7.17016e-19 3.06209)
(7.74197 1.3588e-20 3.50699)
(7.94831 -9.22575e-19 3.40452)
(7.54966 0 3.90552)
(7.77549 -8.41702e-19 3.78842)
(7.34977 0 4.35513)
(7.59809 0 4.22115)
(7.14044 -1.88658e-18 4.86454)
(7.41507 1.68076e-18 4.71131)
(6.91788 -2.85939e-21 5.44404)
(7.22542 -3.46587e-18 5.26938)
(6.67304 1.74892e-19 6.10215)
(7.0201 3.52115e-18 5.90954)
(6.39249 4.87202e-19 6.85023)
(6.8121 -3.34942e-18 6.63192)
(6.02977 2.12817e-18 7.66444)
(6.46649 1.74783e-18 7.50151)
(5.50818 1.86453e-18 8.45656)
(6.37387 -1.08589e-18 8.27058)
(4.87908 3.36002e-18 9.51171)
(9.98753 -1.87748e-19 0.146853)
(9.99937 -1.24953e-19 0.0998588)
(9.96345 -1.39963e-19 0.243636)
(9.98144 -7.14856e-20 0.200049)
(9.92849 -2.06576e-19 0.339242)
(9.95077 -5.98387e-20 0.298566)
(9.88338 -9.58004e-20 0.435427)
(9.91148 -3.10864e-20 0.396685)
(9.82889 4.68388e-21 0.533951)
(9.86369 -1.27943e-19 0.49632)
(9.76559 6.5323e-20 0.636285)
(9.80718 -6.56498e-20 0.599094)
(9.69385 1.45645e-19 0.743791)
(9.74222 0 0.706434)
(9.61397 1.40988e-19 0.857787)
(9.66934 1.45718e-21 0.819714)
(9.52628 1.568e-19 0.979542)
(9.58912 7.32239e-20 0.940205)
(9.43107 -8.98456e-21 1.11037)
(9.50172 3.07001e-19 1.06918)
(9.32859 -1.98392e-19 1.25171)
(9.40738 -3.15518e-19 1.20805)
(9.21915 4.51877e-20 1.40511)
(9.30644 -4.13873e-20 1.3583)
(9.10306 1.27995e-19 1.57227)
(9.19935 7.01358e-22 1.52156)
(8.98055 -3.71715e-19 1.75496)
(9.08653 8.62868e-20 1.69961)
(8.85194 1.85618e-20 1.95521)
(8.96799 -4.10154e-19 1.89434)
(8.71771 -4.6215e-19 2.17536)
(8.84453 3.73252e-19 2.1079)
(8.57825 -1.53399e-20 2.41802)
(8.71673 -7.02409e-20 2.34281)
(8.43401 1.64223e-18 2.68636)
(8.58479 8.39297e-19 2.60199)
(8.28557 7.91368e-20 2.98418)
(8.44975 2.98555e-20 2.88897)
(8.13343 -1.65737e-18 3.31592)
(8.31232 -2.69354e-20 3.20792)
(7.9779 -1.78306e-18 3.68704)
(8.17331 -8.39038e-19 3.56396)
(7.81946 -8.40541e-19 4.10455)
(8.03343 -3.80353e-20 3.96334)
(7.6584 1.6866e-18 4.57697)
(7.89381 0 4.41417)
(7.494 1.15529e-19 5.11498)
(7.75477 1.49207e-18 4.92655)
(7.32357 4.39947e-20 5.7322)
(7.61723 -3.27485e-20 5.51343)
(7.13931 3.55842e-20 6.44275)
(7.47332 8.60458e-20 6.19329)
(6.9256 -2.02682e-18 7.26843)
(7.34127 -2.0148e-19 6.97476)
(6.63791 -1.49486e-18 8.20008)
(7.08058 -3.53045e-18 7.93597)
(6.17457 1.44576e-18 9.19828)
(7.10339 8.73649e-19 8.86353)
(5.58136 3.16049e-19 10.4576)
(9.98828 -7.78767e-21 0.154701)
(9.9998 9.65889e-20 0.104893)
(9.9659 9.00108e-21 0.256743)
(9.98296 -9.99572e-20 0.210073)
(9.93346 1.16313e-19 0.35767)
(9.95435 1.27938e-21 0.313698)
(9.89161 -6.50317e-20 0.45919)
(9.91802 0 0.416963)
(9.84113 -1.97243e-19 0.563071)
(9.87397 6.23368e-20 0.521711)
(9.78263 -1.29953e-19 0.670862)
(9.82197 -7.54637e-22 0.629642)
(9.71651 -1.4428e-19 0.783987)
(9.76225 0 0.742261)
(9.64319 -6.52946e-20 0.90379)
(9.69555 6.93951e-20 0.860953)
(9.56302 2.27078e-19 1.03156)
(9.62251 -2.17101e-19 0.987014)
(9.47632 -8.68223e-21 1.16863)
(9.54318 1.52693e-19 1.12176)
(9.38342 -1.54562e-19 1.31646)
(9.45794 -2.34149e-19 1.26661)
(9.28472 -8.53495e-20 1.47663)
(9.36728 7.96544e-20 1.42304)
(9.18064 -4.00179e-20 1.65085)
(9.27172 -2.24919e-21 1.59269)
(9.07164 4.20225e-20 1.84096)
(9.17172 2.97403e-19 1.77739)
(8.95821 -4.64951e-20 2.04902)
(9.06768 -3.47444e-19 1.97903)
(8.84092 7.61338e-19 2.27737)
(8.96055 -4.92513e-19 2.19981)
(8.72041 7.95125e-19 2.52875)
(8.85079 1.07312e-18 2.44229)
(8.59748 -7.82095e-19 2.80643)
(8.73915 9.54806e-20 2.70941)
(8.47317 -7.58727e-20 3.11427)
(8.62717 -7.8127e-19 3.00472)
(8.34867 7.93109e-19 3.45709)
(8.51581 6.94862e-19 3.33244)
(8.225 9.14874e-19 3.8408)
(8.40692 1.00816e-19 3.69817)
(8.10329 8.06657e-19 4.27268)
(8.30206 1.00088e-18 4.10845)
(7.98502 -1.97112e-19 4.76228)
(8.2032 -7.62141e-19 4.5716)
(7.87126 1.35735e-18 5.32216)
(8.1126 9.43614e-19 5.0988)
(7.76168 2.06574e-20 5.96926)
(8.03399 1.19835e-18 5.70501)
(7.65233 -1.18286e-19 6.7246)
(7.96335 -1.55583e-18 6.41246)
(7.52942 -1.75633e-18 7.62409)
(7.92665 1.11154e-18 7.24048)
(7.36054 -1.40485e-18 8.68617)
(7.79688 -1.60805e-18 8.27819)
(7.03511 -3.70282e-19 10.0119)
(8.00874 1.04267e-18 9.394)
(6.52901 -1.24714e-18 11.5854)
(9.98919 8.394e-22 0.161993)
(10.0004 -1.39441e-20 0.109535)
(9.96852 -1.05744e-19 0.268896)
(9.98462 1.4411e-20 0.219354)
(9.93865 -1.1514e-19 0.374732)
(9.95811 -3.65712e-20 0.327665)
(9.90024 1.28557e-19 0.481165)
(9.92487 2.85971e-20 0.435634)
(9.85398 2.57896e-19 0.58996)
(9.88474 9.69861e-21 0.545063)
(9.80045 1.29322e-19 0.702719)
(9.83743 3.18252e-19 0.657706)
(9.74016 2.14941e-19 0.820901)
(9.7832 -6.28345e-20 0.775074)
(9.67363 -8.68521e-20 0.945884)
(9.72297 -4.75002e-20 0.898565)
(9.60119 -2.86181e-19 1.07898)
(9.65733 -2.28648e-19 1.02956)
(9.52318 -7.84318e-20 1.22155)
(9.5863 7.00984e-20 1.1694)
(9.44009 4.58001e-21 1.37502)
(9.51045 2.83909e-19 1.31941)
(9.35245 1.61841e-19 1.54099)
(9.43039 -2.9088e-19 1.48108)
(9.26074 3.39362e-19 1.72117)
(9.34673 -3.00561e-19 1.65611)
(9.16561 -9.94994e-20 1.9174)
(9.25999 2.58822e-19 1.84625)
(9.06778 -7.95892e-19 2.13179)
(9.17087 4.73725e-20 2.05338)
(8.96792 -1.6612e-19 2.36669)
(9.08044 -2.91005e-19 2.27982)
(8.86686 3.64921e-19 2.6248)
(8.98938 3.64558e-19 2.52807)
(8.7659 9.17134e-20 2.90937)
(8.89885 -6.7663e-19 2.80086)
(8.6666 0 3.22426)
(8.81074 1.38649e-18 3.10171)
(8.57067 0 3.57445)
(8.72642 -7.00285e-19 3.43486)
(8.48012 1.91734e-19 3.96611)
(8.64855 0 3.80597)
(8.39723 -5.74829e-19 4.40664)
(8.58016 1.73782e-20 4.2216)
(8.32507 3.7567e-19 4.90597)
(8.5243 -7.80568e-19 4.68982)
(8.2672 7.81653e-19 5.47771)
(8.48565 9.95187e-19 5.22195)
(8.22739 -3.63177e-19 6.1409)
(8.47153 6.11584e-19 5.83338)
(8.20922 -3.28648e-19 6.92204)
(8.48481 -6.41699e-19 6.54701)
(8.20923 1.20402e-18 7.86844)
(8.56245 5.34602e-19 7.38894)
(8.22708 9.28383e-19 9.03309)
(8.61831 1.25397e-18 8.4447)
(8.21277 -8.70153e-19 10.8763)
(9.22982 -3.36182e-19 9.67309)
(8.98979 2.96449e-19 12.8534)
(0.0474237 -1.93284e-22 -0.040519)
(0.030351 -1.9e-22 -0.0393122)
(0.173545 0 -0.059648)
(0.0943436 0 -0.0965637)
(0.330677 0 -0.0556445)
(0.236779 -1.1542e-21 -0.107019)
(0.469251 0 -0.0390268)
(0.386577 0 -0.0863194)
(0.562268 3.54988e-22 -0.0201617)
(0.509394 0 -0.0546969)
(0.60574 1.52592e-21 -0.00488414)
(0.58689 5.07588e-22 -0.0248043)
(0.610662 -2.79853e-22 0.00498388)
(0.619422 1.66202e-21 -0.00264952)
(0.591998 -4.04924e-22 0.0101204)
(0.618173 -2.09469e-21 0.0109665)
(0.561881 0 0.0119926)
(0.597229 1.72485e-21 0.0178804)
(0.528262 0 0.0119578)
(0.567765 -1.24823e-21 0.0202945)
(0.495446 6.54293e-22 0.0110994)
(0.53628 0 0.0201361)
(0.464876 1.36707e-21 0.0102631)
(0.505765 -2.72867e-21 0.0190226)
(0.435707 7.14956e-22 0.009955)
(0.476543 2.74884e-21 0.0183509)
(0.406313 -7.81595e-22 0.0100287)
(0.447515 0 0.0186321)
(0.376601 -7.85726e-22 0.00997881)
(0.417837 1.55379e-21 0.0189258)
(0.347885 0 0.00986191)
(0.388098 -7.73996e-22 0.0183422)
(0.319702 -7.60131e-22 0.0104796)
(0.359121 -7.83971e-22 0.0180213)
(0.288494 -1.66492e-21 0.0122345)
(0.329691 7.52207e-22 0.0199443)
(0.251255 -7.22117e-22 0.0141294)
(0.29674 -9.36067e-22 0.0237535)
(0.209922 1.74169e-22 0.0143303)
(0.258612 -1.50439e-22 0.0263026)
(0.17145 5.37861e-22 0.0116121)
(0.21814 -9.10958e-22 0.0244229)
(0.144125 5.43307e-22 0.00612404)
(0.181937 -4.2933e-23 0.0173125)
(0.134029 3.85464e-22 -0.00113047)
(0.156232 0 0.00640183)
(0.143999 4.23006e-22 -0.00904668)
(0.143054 -8.99941e-22 -0.00624815)
(0.173622 -1.47767e-23 -0.0165295)
(0.140895 -6.72202e-22 -0.0186048)
(0.221176 -1.91996e-22 -0.0232982)
(0.154434 -3.34937e-23 -0.0298322)
(0.287066 -1.59817e-22 -0.0303274)
(0.18573 4.01683e-22 -0.0412856)
(0.374199 3.85597e-25 -0.0382157)
(0.23643 1.84711e-22 -0.0545453)
(0.484595 -1.69734e-23 -0.0455842)
(0.311356 -7.9151e-23 -0.0690629)
(0.429722 1.67804e-23 -0.0788051)
(0.0425656 -2.0314e-22 -0.102059)
(0.0299328 -4.50568e-22 -0.0845931)
(0.154039 -1.10256e-21 -0.15518)
(0.0710173 0 -0.186101)
(0.303585 -1.19227e-21 -0.151365)
(0.199826 2.68796e-22 -0.208043)
(0.44378 0 -0.11396)
(0.334067 -2.97145e-21 -0.170447)
(0.546979 -2.63117e-23 -0.068127)
(0.446477 2.14613e-21 -0.112005)
(0.606057 1.56805e-21 -0.0282782)
(0.520158 -1.20609e-22 -0.0559814)
(0.627473 5.83324e-23 6.07498e-05)
(0.553793 -1.92748e-21 -0.0131508)
(0.622484 5.98384e-23 0.017106)
(0.554703 1.89471e-21 0.0147788)
(0.602418 3.5977e-22 0.0254265)
(0.534976 2.13312e-21 0.0300099)
(0.575601 -1.24513e-21 0.0280479)
(0.504714 2.63179e-21 0.0362788)
(0.54681 -3.40592e-21 0.0277059)
(0.469924 3.16621e-21 0.0373321)
(0.518095 -1.49657e-21 0.026738)