/*--------------------------------*- C++ -*----------------------------------*\
| =========                 |                                                 |
| \\      /  F ield         | OpenFOAM: The Open Source CFD Toolbox           |
|  \\    /   O peration     | Version:  dev                                   |
|   \\  /    A nd           | Web:      www.OpenFOAM.org                      |
|    \\/     M anipulation  |                                                 |
\*---------------------------------------------------------------------------*/
FoamFile
{
    version     2.0;
    format      ascii;
    class       pointVectorField;
    location    "2.72";
    object      pointDisplacement;
}
// * * * * * * * * * * * * * * * * * * * * * * * * * * * * * * * * * * * * * //

dimensions      [0 1 0 0 0 0 0];

internalField   nonuniform List<vector> 
1034
(
(0.196828 0 0)
(0.207706 0 0)
(0.215629 0 0)
(0.220901 0 0)
(0.223787 0 0)
(0.22451 0 0)
(0.223227 0 0)
(0.220035 0 0)
(0.214991 0 0)
(0.208121 0 0)
(0.199415 0 0)
(0.188849 0 0)
(0.176387 0 0)
(0.161972 0 0)
(0.145541 0 0)
(0.126993 0 0)
(0.106214 0 0)
(0.0831442 0 0)
(0.0577368 0 0)
(0.0298558 0 0)
(0 0 0)
(0.197942 0 -0.00835615)
(0.208609 0 -0.00800346)
(0.216352 0 -0.0075971)
(0.22148 0 -0.00714529)
(0.224255 0 -0.00667747)
(0.224891 0 -0.00620837)
(0.223539 0 -0.00575744)
(0.220293 0 -0.00531308)
(0.215206 0 -0.00487778)
(0.208303 0 -0.00445611)
(0.199569 0 -0.00404332)
(0.188979 0 -0.00364408)
(0.1765 0 -0.00325431)
(0.162069 0 -0.00286991)
(0.145623 0 -0.00248943)
(0.127063 0 -0.00211095)
(0.106277 0 -0.00172654)
(0.0832023 0 -0.00132851)
(0.0577792 0 -0.000911893)
(0.0298784 0 -0.000469704)
(0 0 0)
(0.201212 0 -0.0164036)
(0.211242 0 -0.0156925)
(0.218462 0 -0.0148762)
(0.223174 0 -0.0139936)
(0.225628 0 -0.0130925)
(0.226007 0 -0.0121864)
(0.224451 0 -0.0112982)
(0.221044 0 -0.0104293)
(0.215828 0 -0.00957836)
(0.208823 0 -0.00875454)
(0.200009 0 -0.00795477)
(0.189353 0 -0.00717335)
(0.176821 0 -0.00640911)
(0.162346 0 -0.00565666)
(0.145855 0 -0.00491068)
(0.127253 0 -0.00416646)
(0.106442 0 -0.00340968)
(0.083342 0 -0.0026267)
(0.057879 0 -0.00180543)
(0.0299299 0 -0.000930391)
(0 0 0)
(0.206381 0 -0.0239999)
(0.215405 0 -0.0229266)
(0.221811 0 -0.0217234)
(0.225878 0 -0.0204441)
(0.22782 0 -0.0191408)
(0.227791 0 -0.0178323)
(0.22591 0 -0.0165391)
(0.222246 0 -0.0152756)
(0.216823 0 -0.0140394)
(0.209651 0 -0.0128394)
(0.200707 0 -0.0116781)
(0.189948 0 -0.0105408)
(0.177328 0 -0.00942665)
(0.162777 0 -0.00833082)
(0.146214 0 -0.00724184)
(0.127549 0 -0.00614949)
(0.106686 0 -0.00503609)
(0.0835385 0 -0.00388326)
(0.0580198 0 -0.00267173)
(0.0300051 0 -0.00137743)
(0 0 0)
(0.213128 0 -0.0311056)
(0.22086 0 -0.0296831)
(0.226225 0 -0.0281216)
(0.229454 0 -0.0264769)
(0.230722 0 -0.0247973)
(0.230156 0 -0.0231168)
(0.227848 0 -0.0214566)
(0.223843 0 -0.0198314)
(0.218149 0 -0.0182462)
(0.210755 0 -0.0167022)
(0.201634 0 -0.0152036)
(0.190733 0 -0.0137405)
(0.17799 0 -0.012305)
(0.163333 0 -0.0108893)
(0.146678 0 -0.00947812)
(0.127931 0 -0.00805579)
(0.106998 0 -0.00660207)
(0.0837835 0 -0.00509422)
(0.0581936 0 -0.00350695)
(0.030098 0 -0.00180861)
(0 0 0)
(0.221092 0 -0.0376907)
(0.227334 0 -0.0359424)
(0.231485 0 -0.0340465)
(0.23373 0 -0.032065)
(0.234205 0 -0.0300462)
(0.233004 0 -0.0280274)
(0.230185 0 -0.0260326)
(0.225771 0 -0.0240819)
(0.219751 0 -0.0221835)
(0.212093 0 -0.0203332)
(0.202753 0 -0.0185312)
(0.191672 0 -0.0167708)
(0.178779 0 -0.0150399)
(0.163994 0 -0.0133259)
(0.147227 0 -0.0116117)
(0.128383 0 -0.00987782)
(0.107363 0 -0.00810102)
(0.0840664 0 -0.00625444)
(0.0583924 0 -0.00430756)
(0.0302036 0 -0.00222201)
(0 0 0)
(0.229897 0 -0.0437347)
(0.234524 0 -0.0416779)
(0.237351 0 -0.0394736)
(0.238517 0 -0.0371856)
(0.238122 0 -0.0348659)
(0.236221 0 -0.03255)
(0.232836 0 -0.0302626)
(0.227965 0 -0.0280285)
(0.221574 0 -0.0258523)
(0.213614 0 -0.0237302)
(0.204025 0 -0.021658)
(0.192737 0 -0.0196268)
(0.179669 0 -0.0176237)
(0.164736 0 -0.0156331)
(0.147841 0 -0.0136358)
(0.128886 0 -0.0116094)
(0.107767 0 -0.00952747)
(0.0843765 0 -0.00735957)
(0.0586083 0 -0.00507052)
(0.0303174 0 -0.002616)
(0 0 0)
(0.239161 0 -0.0492179)
(0.242123 0 -0.0468691)
(0.243577 0 -0.0443843)
(0.243626 0 -0.0418265)
(0.242325 0 -0.0392455)
(0.239693 0 -0.036679)
(0.235714 0 -0.0341482)
(0.230356 0 -0.0316725)
(0.223564 0 -0.0292548)
(0.215274 0 -0.026892)
(0.205411 0 -0.024578)
(0.193894 0 -0.0223022)
(0.180634 0 -0.0200504)
(0.165537 0 -0.0178051)
(0.148502 0 -0.0155451)
(0.129425 0 -0.0132454)
(0.108196 0 -0.010877)
(0.0847033 0 -0.00840602)
(0.0588339 0 -0.00579327)
(0.0304354 0 -0.00298921)
(0 0 0)
(0.248524 0 -0.0541189)
(0.249838 0 -0.0515029)
(0.24994 0 -0.0487744)
(0.248887 0 -0.045992)
(0.246687 0 -0.0431979)
(0.243318 0 -0.0404256)
(0.238733 0 -0.037693)
(0.232872 0 -0.0350127)
(0.225663 0 -0.0323879)
(0.217025 0 -0.0298153)
(0.206871 0 -0.0272874)
(0.19511 0 -0.0247927)
(0.181645 0 -0.0223158)
(0.166373 0 -0.0198376)
(0.149189 0 -0.0173354)
(0.129981 0 -0.0147821)
(0.108636 0 -0.0121461)
(0.0850363 0 -0.00939092)
(0.0590619 0 -0.00647374)
(0.0305538 0 -0.00334055)
(0 0 0)
(0.257666 0 -0.0584254)
(0.257428 0 -0.0555819)
(0.256258 0 -0.052657)
(0.254158 0 -0.0496972)
(0.251091 0 -0.0467362)
(0.247 0 -0.043799)
(0.241812 0 -0.0409011)
(0.235446 0 -0.0380514)
(0.227813 0 -0.035252)
(0.21882 0 -0.0324991)
(0.208367 0 -0.0297845)
(0.196354 0 -0.027096)
(0.182675 0 -0.0244171)
(0.167222 0 -0.0217278)
(0.149883 0 -0.0190038)
(0.13054 0 -0.0162165)
(0.109075 0 -0.0133323)
(0.0853657 0 -0.0103121)
(0.0592856 0 -0.00711036)
(0.030669 0 -0.00366916)
(0 0 0)
(0.266332 0 -0.062133)
(0.264706 0 -0.0591184)
(0.26238 0 -0.0560485)
(0.25931 0 -0.0529573)
(0.255426 0 -0.0498706)
(0.250645 0 -0.0468072)
(0.244874 0 -0.0437793)
(0.238014 0 -0.0407933)
(0.229962 0 -0.0378499)
(0.220614 0 -0.034945)
(0.209862 0 -0.0320699)
(0.197594 0 -0.0292116)
(0.183699 0 -0.0263533)
(0.168062 0 -0.023474)
(0.150565 0 -0.0205485)
(0.131086 0 -0.0175468)
(0.109501 0 -0.0144337)
(0.0856822 0 -0.0111681)
(0.0594985 0 -0.00770199)
(0.0307777 0 -0.00397444)
(0 0 0)
(0.274357 0 -0.0652558)
(0.271526 0 -0.0621295)
(0.268174 0 -0.0589651)
(0.264228 0 -0.0557872)
(0.259594 0 -0.0526145)
(0.25417 0 -0.0494612)
(0.247848 0 -0.0463366)
(0.240516 0 -0.0432451)
(0.23206 0 -0.0401866)
(0.222367 0 -0.0371564)
(0.211319 0 -0.0341454)
(0.1988 0 -0.0311405)
(0.184691 0 -0.0281245)
(0.168872 0 -0.025076)
(0.151218 0 -0.0219688)
(0.131604 0 -0.018772)
(0.109901 0 -0.0154493)
(0.085977 0 -0.0119579)
(0.0596948 0 -0.00824793)
(0.0308769 0 -0.00425601)
(0 0 0)
(0.281631 0 -0.0678192)
(0.277776 0 -0.0646377)
(0.273539 0 -0.0614275)
(0.268822 0 -0.0582051)
(0.263516 0 -0.054984)
(0.257506 0 -0.0517746)
(0.250674 0 -0.0485842)
(0.2429 0 -0.0454159)
(0.234063 0 -0.042269)
(0.224039 0 -0.0391383)
(0.212708 0 -0.0360148)
(0.199946 0 -0.0328852)
(0.185629 0 -0.0297324)
(0.169631 0 -0.0265344)
(0.151826 0 -0.0232649)
(0.132082 0 -0.0198921)
(0.110266 0 -0.0163789)
(0.086242 0 -0.0126811)
(0.0598688 0 -0.00874789)
(0.0309639 0 -0.0045137)
(0 0 0)
(0.288072 0 -0.0698514)
(0.283378 0 -0.06667)
(0.278397 0 -0.0634601)
(0.273019 0 -0.0602328)
(0.267125 0 -0.0569977)
(0.260593 0 -0.053763)
(0.2533 0 -0.050535)
(0.245122 0 -0.0473163)
(0.23593 0 -0.0441054)
(0.225598 0 -0.0408973)
(0.213999 0 -0.0376829)
(0.201006 0 -0.0344493)
(0.18649 0 -0.0311793)
(0.170323 0 -0.0278511)
(0.152373 0 -0.0244379)
(0.132506 0 -0.0209078)
(0.110585 0 -0.0172227)
(0.08647 0 -0.0133381)
(0.0600159 0 -0.0092019)
(0.031036 0 -0.00474754)
(0 0 0)
(0.293638 0 -0.071389)
(0.288282 0 -0.068259)
(0.282696 0 -0.0650913)
(0.276767 0 -0.0618946)
(0.270371 0 -0.0586763)
(0.263384 0 -0.0554435)
(0.255684 0 -0.0522033)
(0.247142 0 -0.0489579)
(0.237629 0 -0.0457054)
(0.227014 0 -0.0424408)
(0.215166 0 -0.0391556)
(0.201958 0 -0.0358373)
(0.187257 0 -0.0324688)
(0.170932 0 -0.0290285)
(0.152847 0 -0.0254897)
(0.132867 0 -0.0218201)
(0.110851 0 -0.0179816)
(0.0866546 0 -0.0139292)
(0.0601315 0 -0.00961035)
(0.0310912 0 -0.0049577)
(0 0 0)
(0.30409 0 -0.0754486)
(0.29834 0 -0.0724804)
(0.292486 0 -0.0694474)
(0.286427 0 -0.0663589)
(0.280053 0 -0.0632251)
(0.273242 0 -0.0600524)
(0.265867 0 -0.0568466)
(0.25781 0 -0.0536165)
(0.248947 0 -0.0503658)
(0.239146 0 -0.0470917)
(0.228273 0 -0.0437892)
(0.216198 0 -0.0404511)
(0.202791 0 -0.0370652)
(0.187919 0 -0.033615)
(0.171448 0 -0.0300791)
(0.15324 0 -0.0264309)
(0.133158 0 -0.0226383)
(0.111057 0 -0.0186631)
(0.086792 0 -0.0144602)
(0.0602135 0 -0.00997715)
(0.0311288 0 -0.0051463)
(0 0 0)
(0.196828 0 0)
(0.207706 0 0)
(0.215629 0 0)
(0.220901 0 0)
(0.223787 0 0)
(0.22451 0 0)
(0.223227 0 0)
(0.220035 0 0)
(0.214991 0 0)
(0.208121 0 0)
(0.199415 0 0)
(0.188849 0 0)
(0.176387 0 0)
(0.161972 0 0)
(0.145541 0 0)
(0.126993 0 0)
(0.106214 0 0)
(0.0831442 0 0)
(0.0577368 0 0)
(0.0298558 0 0)
(0 0 0)
(0.197942 0 -0.00835615)
(0.208609 0 -0.00800346)
(0.216352 0 -0.0075971)
(0.22148 0 -0.00714529)
(0.224255 0 -0.00667747)
(0.224891 0 -0.00620837)
(0.223539 0 -0.00575744)
(0.220293 0 -0.00531308)
(0.215206 0 -0.00487778)
(0.208303 0 -0.00445611)
(0.199569 0 -0.00404332)
(0.188979 0 -0.00364408)
(0.1765 0 -0.00325431)
(0.162069 0 -0.00286991)
(0.145623 0 -0.00248943)
(0.127063 0 -0.00211095)
(0.106277 0 -0.00172654)
(0.0832023 0 -0.00132851)
(0.0577792 0 -0.000911893)
(0.0298784 0 -0.000469704)
(0 0 0)
(0.201212 0 -0.0164036)
(0.211242 0 -0.0156925)
(0.218462 0 -0.0148762)
(0.223174 0 -0.0139936)
(0.225628 0 -0.0130925)
(0.226007 0 -0.0121864)
(0.224451 0 -0.0112982)
(0.221044 0 -0.0104293)
(0.215828 0 -0.00957836)
(0.208823 0 -0.00875454)
(0.200009 0 -0.00795477)
(0.189353 0 -0.00717335)
(0.176821 0 -0.00640911)
(0.162346 0 -0.00565666)
(0.145855 0 -0.00491068)
(0.127253 0 -0.00416646)
(0.106442 0 -0.00340968)
(0.083342 0 -0.0026267)
(0.057879 0 -0.00180543)
(0.0299299 0 -0.000930391)
(0 0 0)
(0.206381 0 -0.0239999)
(0.215405 0 -0.0229266)
(0.221811 0 -0.0217234)
(0.225878 0 -0.0204441)
(0.22782 0 -0.0191408)
(0.227791 0 -0.0178323)
(0.22591 0 -0.0165391)
(0.222246 0 -0.0152756)
(0.216823 0 -0.0140394)
(0.209651 0 -0.0128394)
(0.200707 0 -0.0116781)
(0.189948 0 -0.0105408)
(0.177328 0 -0.00942665)
(0.162777 0 -0.00833082)
(0.146214 0 -0.00724184)
(0.127549 0 -0.00614949)
(0.106686 0 -0.00503609)
(0.0835385 0 -0.00388326)
(0.0580198 0 -0.00267173)
(0.0300051 0 -0.00137743)
(0 0 0)
(0.213128 0 -0.0311056)
(0.22086 0 -0.0296831)
(0.226225 0 -0.0281216)
(0.229454 0 -0.0264769)
(0.230722 0 -0.0247973)
(0.230156 0 -0.0231168)
(0.227848 0 -0.0214566)
(0.223843 0 -0.0198314)
(0.218149 0 -0.0182462)
(0.210755 0 -0.0167022)
(0.201634 0 -0.0152036)
(0.190733 0 -0.0137405)
(0.17799 0 -0.012305)
(0.163333 0 -0.0108893)
(0.146678 0 -0.00947812)
(0.127931 0 -0.00805579)
(0.106998 0 -0.00660207)
(0.0837835 0 -0.00509422)
(0.0581936 0 -0.00350695)
(0.030098 0 -0.00180861)
(0 0 0)
(0.221092 0 -0.0376907)
(0.227334 0 -0.0359424)
(0.231485 0 -0.0340465)
(0.23373 0 -0.032065)
(0.234205 0 -0.0300462)
(0.233004 0 -0.0280274)
(0.230185 0 -0.0260326)
(0.225771 0 -0.0240819)
(0.219751 0 -0.0221835)
(0.212093 0 -0.0203332)
(0.202753 0 -0.0185312)
(0.191672 0 -0.0167708)
(0.178779 0 -0.0150399)
(0.163994 0 -0.0133259)
(0.147227 0 -0.0116117)
(0.128383 0 -0.00987782)
(0.107363 0 -0.00810102)
(0.0840664 0 -0.00625444)
(0.0583924 0 -0.00430756)
(0.0302036 0 -0.00222201)
(0 0 0)
(0.229897 0 -0.0437347)
(0.234524 0 -0.0416779)
(0.237351 0 -0.0394736)
(0.238517 0 -0.0371856)
(0.238122 0 -0.0348659)
(0.236221 0 -0.03255)
(0.232836 0 -0.0302626)
(0.227965 0 -0.0280285)
(0.221574 0 -0.0258523)
(0.213614 0 -0.0237302)
(0.204025 0 -0.021658)
(0.192737 0 -0.0196268)
(0.179669 0 -0.0176237)
(0.164736 0 -0.0156331)
(0.147841 0 -0.0136358)
(0.128886 0 -0.0116094)
(0.107767 0 -0.00952747)
(0.0843765 0 -0.00735957)
(0.0586083 0 -0.00507052)
(0.0303174 0 -0.002616)
(0 0 0)
(0.239161 0 -0.0492179)
(0.242123 0 -0.0468691)
(0.243577 0 -0.0443843)
(0.243626 0 -0.0418265)
(0.242325 0 -0.0392455)
(0.239693 0 -0.036679)
(0.235714 0 -0.0341482)
(0.230356 0 -0.0316725)
(0.223564 0 -0.0292548)
(0.215274 0 -0.026892)
(0.205411 0 -0.024578)
(0.193894 0 -0.0223022)
(0.180634 0 -0.0200504)
(0.165537 0 -0.0178051)
(0.148502 0 -0.0155451)
(0.129425 0 -0.0132454)
(0.108196 0 -0.010877)
(0.0847033 0 -0.00840602)
(0.0588339 0 -0.00579327)
(0.0304354 0 -0.00298921)
(0 0 0)
(0.248524 0 -0.0541189)
(0.249838 0 -0.0515029)
(0.24994 0 -0.0487744)
(0.248887 0 -0.045992)
(0.246687 0 -0.0431979)
(0.243318 0 -0.0404256)
(0.238733 0 -0.037693)
(0.232872 0 -0.0350127)
(0.225663 0 -0.0323879)
(0.217025 0 -0.0298153)
(0.206871 0 -0.0272874)
(0.19511 0 -0.0247927)
(0.181645 0 -0.0223158)
(0.166373 0 -0.0198376)
(0.149189 0 -0.0173354)
(0.129981 0 -0.0147821)
(0.108636 0 -0.0121461)
(0.0850363 0 -0.00939092)
(0.0590619 0 -0.00647374)
(0.0305538 0 -0.00334055)
(0 0 0)
(0.257666 0 -0.0584254)
(0.257428 0 -0.0555819)
(0.256258 0 -0.052657)
(0.254158 0 -0.0496972)
(0.251091 0 -0.0467362)
(0.247 0 -0.043799)
(0.241812 0 -0.0409011)
(0.235446 0 -0.0380514)
(0.227813 0 -0.035252)
(0.21882 0 -0.0324991)
(0.208367 0 -0.0297845)
(0.196354 0 -0.027096)
(0.182675 0 -0.0244171)
(0.167222 0 -0.0217278)
(0.149883 0 -0.0190038)
(0.13054 0 -0.0162165)
(0.109075 0 -0.0133323)
(0.0853657 0 -0.0103121)
(0.0592856 0 -0.00711036)
(0.030669 0 -0.00366916)
(0 0 0)
(0.266332 0 -0.062133)
(0.264706 0 -0.0591184)
(0.26238 0 -0.0560485)
(0.25931 0 -0.0529573)
(0.255426 0 -0.0498706)
(0.250645 0 -0.0468072)
(0.244874 0 -0.0437793)
(0.238014 0 -0.0407933)
(0.229962 0 -0.0378499)
(0.220614 0 -0.034945)
(0.209862 0 -0.0320699)
(0.197594 0 -0.0292116)
(0.183699 0 -0.0263533)
(0.168062 0 -0.023474)
(0.150565 0 -0.0205485)
(0.131086 0 -0.0175468)
(0.109501 0 -0.0144337)
(0.0856822 0 -0.0111681)
(0.0594985 0 -0.00770199)
(0.0307777 0 -0.00397444)
(0 0 0)
(0.274357 0 -0.0652558)
(0.271526 0 -0.0621295)
(0.268174 0 -0.0589651)
(0.264228 0 -0.0557872)
(0.259594 0 -0.0526145)
(0.25417 0 -0.0494612)
(0.247848 0 -0.0463366)
(0.240516 0 -0.0432451)
(0.23206 0 -0.0401866)
(0.222367 0 -0.0371564)
(0.211319 0 -0.0341454)
(0.1988 0 -0.0311405)
(0.184691 0 -0.0281245)
(0.168872 0 -0.025076)
(0.151218 0 -0.0219688)
(0.131604 0 -0.018772)
(0.109901 0 -0.0154493)
(0.085977 0 -0.0119579)
(0.0596948 0 -0.00824793)
(0.0308769 0 -0.00425601)
(0 0 0)
(0.281631 0 -0.0678192)
(0.277776 0 -0.0646377)
(0.273539 0 -0.0614275)
(0.268822 0 -0.0582051)
(0.263516 0 -0.054984)
(0.257506 0 -0.0517746)
(0.250674 0 -0.0485842)
(0.2429 0 -0.0454159)
(0.234063 0 -0.042269)
(0.224039 0 -0.0391383)
(0.212708 0 -0.0360148)
(0.199946 0 -0.0328852)
(0.185629 0 -0.0297324)
(0.169631 0 -0.0265344)
(0.151826 0 -0.0232649)
(0.132082 0 -0.0198921)
(0.110266 0 -0.0163789)
(0.086242 0 -0.0126811)
(0.0598688 0 -0.00874789)
(0.0309639 0 -0.0045137)
(0 0 0)
(0.288072 0 -0.0698514)
(0.283378 0 -0.06667)
(0.278397 0 -0.0634601)
(0.273019 0 -0.0602328)
(0.267125 0 -0.0569977)
(0.260593 0 -0.053763)
(0.2533 0 -0.050535)
(0.245122 0 -0.0473163)
(0.23593 0 -0.0441054)
(0.225598 0 -0.0408973)
(0.213999 0 -0.0376829)
(0.201006 0 -0.0344493)
(0.18649 0 -0.0311793)
(0.170323 0 -0.0278511)
(0.152373 0 -0.0244379)
(0.132506 0 -0.0209078)
(0.110585 0 -0.0172227)
(0.08647 0 -0.0133381)
(0.0600159 0 -0.0092019)
(0.031036 0 -0.00474754)
(0 0 0)
(0.293638 0 -0.071389)
(0.288282 0 -0.068259)
(0.282696 0 -0.0650913)
(0.276767 0 -0.0618946)
(0.270371 0 -0.0586763)
(0.263384 0 -0.0554435)
(0.255684 0 -0.0522033)
(0.247142 0 -0.0489579)
(0.237629 0 -0.0457054)
(0.227014 0 -0.0424408)
(0.215166 0 -0.0391556)
(0.201958 0 -0.0358373)
(0.187257 0 -0.0324688)
(0.170932 0 -0.0290285)
(0.152847 0 -0.0254897)
(0.132867 0 -0.0218201)
(0.110851 0 -0.0179816)
(0.0866546 0 -0.0139292)
(0.0601315 0 -0.00961035)
(0.0310912 0 -0.0049577)
(0 0 0)
(0.30409 0 -0.0754486)
(0.29834 0 -0.0724804)
(0.292486 0 -0.0694474)
(0.286427 0 -0.0663589)
(0.280053 0 -0.0632251)
(0.273242 0 -0.0600524)
(0.265867 0 -0.0568466)
(0.25781 0 -0.0536165)
(0.248947 0 -0.0503658)
(0.239146 0 -0.0470917)
(0.228273 0 -0.0437892)
(0.216198 0 -0.0404511)
(0.202791 0 -0.0370652)
(0.187919 0 -0.033615)
(0.171448 0 -0.0300791)
(0.15324 0 -0.0264309)
(0.133158 0 -0.0226383)
(0.111057 0 -0.0186631)
(0.086792 0 -0.0144602)
(0.0602135 0 -0.00997715)
(0.0311288 0 -0.0051463)
(0 0 0)
(0.308278 0 -0.0759684)
(0.302197 0 -0.073166)
(0.295997 0 -0.0702696)
(0.289588 0 -0.0672934)
(0.282867 0 -0.0642503)
(0.275721 0 -0.061149)
(0.268026 0 -0.0579955)
(0.259667 0 -0.0547982)
(0.250527 0 -0.0515629)
(0.240472 0 -0.0482867)
(0.229367 0 -0.0449641)
(0.217084 0 -0.0415891)
(0.203496 0 -0.0381511)
(0.188467 0 -0.0346342)
(0.171862 0 -0.0310172)
(0.153544 0 -0.0272741)
(0.13337 0 -0.023373)
(0.111196 0 -0.0192758)
(0.0868758 0 -0.0149378)
(0.0602568 0 -0.0103068)
(0.031145 0 -0.00531547)
(0 0 0)
(0.311437 0 -0.076074)
(0.305191 0 -0.0734722)
(0.298785 0 -0.0707433)
(0.292139 0 -0.0679064)
(0.285165 0 -0.0649773)
(0.277759 0 -0.0619683)
(0.269811 0 -0.0588879)
(0.261206 0 -0.0557437)
(0.251831 0 -0.0525418)
(0.241558 0 -0.0492817)
(0.230256 0 -0.0459585)
(0.217797 0 -0.0425653)
(0.204048 0 -0.0390914)
(0.188878 0 -0.0355225)
(0.172156 0 -0.0318392)
(0.153741 0 -0.0280159)
(0.133491 0 -0.024021)
(0.111259 0 -0.019817)
(0.0868984 0 -0.0153597)
(0.0602565 0 -0.0105978)
(0.0311381 0 -0.00546457)
(0 0 0)
(0.300832 0 -0.0708934)
(0.294055 0 -0.0682153)
(0.286916 0 -0.0654192)
(0.279326 0 -0.0625197)
(0.271184 0 -0.0595279)
(0.262385 0 -0.0564525)
(0.252818 0 -0.0532992)
(0.242362 0 -0.0500697)
(0.230896 0 -0.0467611)
(0.218289 0 -0.0433665)
(0.204411 0 -0.039875)
(0.189131 0 -0.036272)
(0.172311 0 -0.0325381)
(0.153817 0 -0.0286497)
(0.133507 0 -0.0245765)
(0.111234 0 -0.0202816)
(0.0868513 0 -0.015722)
(0.0602068 0 -0.0108474)
(0.0311051 0 -0.00559216)
(0 0 0)
(0.288103 0 -0.0655913)
(0.280399 0 -0.0628151)
(0.272125 0 -0.0599256)
(0.263183 0 -0.0569323)
(0.253468 0 -0.0538416)
(0.242868 0 -0.0506559)
(0.231264 0 -0.0473738)
(0.218533 0 -0.0439899)
(0.204551 0 -0.0404948)
(0.189186 0 -0.0368738)
(0.172299 0 -0.0331075)
(0.153757 0 -0.0291722)
(0.133409 0 -0.025037)
(0.111112 0 -0.0206672)
(0.086727 0 -0.0160227)
(0.0601029 0 -0.0110542)
(0.0310438 0 -0.00569755)
(0 0 0)
(0.280962 0 -0.0628666)
(0.272612 0 -0.0600894)
(0.263577 0 -0.0571892)
(0.253759 0 -0.0541729)
(0.243053 0 -0.0510435)
(0.231346 0 -0.0478006)
(0.21852 0 -0.0444397)
(0.204454 0 -0.0409522)
(0.18902 0 -0.037325)
(0.172091 0 -0.0335407)
(0.153529 0 -0.0295758)
(0.133177 0 -0.0253981)
(0.110883 0 -0.0209716)
(0.0865186 0 -0.0162599)
(0.0599406 0 -0.0112171)
(0.0309523 0 -0.00578029)
(0 0 0)
(0.263549 0 -0.0572299)
(0.253672 0 -0.0542976)
(0.242899 0 -0.0512353)
(0.231123 0 -0.048043)
(0.218233 0 -0.0447171)
(0.204111 0 -0.04125)
(0.188634 0 -0.0376293)
(0.171676 0 -0.0338384)
(0.153106 0 -0.029856)
(0.132779 0 -0.0256529)
(0.110531 0 -0.0211912)
(0.0862199 0 -0.0164325)
(0.0597168 0 -0.0113355)
(0.03083 0 -0.00584016)
(0 0 0)
(0.242389 0 -0.0512345)
(0.23058 0 -0.0481031)
(0.217657 0 -0.0448233)
(0.203508 0 -0.0413882)
(0.188014 0 -0.0377866)
(0.171052 0 -0.0340027)
(0.152492 0 -0.0300158)
(0.1322 0 -0.0257996)
(0.110022 0 -0.0213194)
(0.0858129 0 -0.0165366)
(0.0594319 0 -0.0114092)
(0.0306793 0 -0.00587767)
(0 0 0)
(0.229704 0 -0.047983)
(0.21678 0 -0.0447595)
(0.202634 0 -0.0413679)
(0.18715 0 -0.0377975)
(0.17021 0 -0.0340337)
(0.151688 0 -0.0300569)
(0.131451 0 -0.0258418)
(0.109359 0 -0.0213574)
(0.0852761 0 -0.0165683)
(0.0590567 0 -0.0114327)
(0.0304889 0 -0.00589063)
(0 0 0)
(0.20148 0 -0.0411896)
(0.186036 0 -0.0376625)
(0.169146 0 -0.0339319)
(0.150689 0 -0.0299795)
(0.130538 0 -0.0257817)
(0.108559 0 -0.0213097)
(0.0846166 0 -0.0165296)
(0.0585723 0 -0.0114026)
(0.0302292 0 -0.0058734)
(0 0 0)
(0.184665 0 -0.0373821)
(0.167854 0 -0.0336976)
(0.149493 0 -0.029784)
(0.129457 0 -0.0256192)
(0.10762 0 -0.0211766)
(0.0838486 0 -0.0164242)
(0.0580065 0 -0.011325)
(0.0299151 0 -0.00582915)
(0 0 0)
(0.148097 0 -0.0294706)
(0.128207 0 -0.0253547)
(0.106541 0 -0.0209585)
(0.0829739 0 -0.0162526)
(0.0573733 0 -0.0112027)
(0.0295735 0 -0.00576331)
(0 0 0)
(0.126788 0 -0.0249883)
(0.105325 0 -0.0206558)
(0.0819943 0 -0.0160155)
(0.0566709 0 -0.0110357)
(0.0291989 0 -0.00567487)
(0 0 0)
(0.0809123 0 -0.0157129)
(0.0558997 0 -0.0108238)
(0.0287902 0 -0.00556365)
(0 0 0)
(0.055062 0 -0.0105673)
(0.028348 0 -0.00542964)
(0 0 0)
(0.0278744 0 -0.005273)
(0 0 0)
(0.308278 0 -0.0759684)
(0.302197 0 -0.073166)
(0.295997 0 -0.0702696)
(0.289588 0 -0.0672934)
(0.282867 0 -0.0642503)
(0.275721 0 -0.061149)
(0.268026 0 -0.0579955)
(0.259667 0 -0.0547982)
(0.250527 0 -0.0515629)
(0.240472 0 -0.0482867)
(0.229367 0 -0.0449641)
(0.217084 0 -0.0415891)
(0.203496 0 -0.0381511)
(0.188467 0 -0.0346342)
(0.171862 0 -0.0310172)
(0.153544 0 -0.0272741)
(0.13337 0 -0.023373)
(0.111196 0 -0.0192758)
(0.0868758 0 -0.0149378)
(0.0602568 0 -0.0103068)
(0.031145 0 -0.00531547)
(0 0 0)
(0.311437 0 -0.076074)
(0.305191 0 -0.0734722)
(0.298785 0 -0.0707433)
(0.292139 0 -0.0679064)
(0.285165 0 -0.0649773)
(0.277759 0 -0.0619683)
(0.269811 0 -0.0588879)
(0.261206 0 -0.0557437)
(0.251831 0 -0.0525418)
(0.241558 0 -0.0492817)
(0.230256 0 -0.0459585)
(0.217797 0 -0.0425653)
(0.204048 0 -0.0390914)
(0.188878 0 -0.0355225)
(0.172156 0 -0.0318392)
(0.153741 0 -0.0280159)
(0.133491 0 -0.024021)
(0.111259 0 -0.019817)
(0.0868984 0 -0.0153597)
(0.0602565 0 -0.0105978)
(0.0311381 0 -0.00546457)
(0 0 0)
(0.300832 0 -0.0708934)
(0.294055 0 -0.0682153)
(0.286916 0 -0.0654192)
(0.279326 0 -0.0625197)
(0.271184 0 -0.0595279)
(0.262385 0 -0.0564525)
(0.252818 0 -0.0532992)
(0.242362 0 -0.0500697)
(0.230896 0 -0.0467611)
(0.218289 0 -0.0433665)
(0.204411 0 -0.039875)
(0.189131 0 -0.036272)
(0.172311 0 -0.0325381)
(0.153817 0 -0.0286497)
(0.133507 0 -0.0245765)
(0.111234 0 -0.0202816)
(0.0868513 0 -0.015722)
(0.0602068 0 -0.0108474)
(0.0311051 0 -0.00559216)
(0 0 0)
(0.288103 0 -0.0655913)
(0.280399 0 -0.0628151)
(0.272125 0 -0.0599256)
(0.263183 0 -0.0569323)
(0.253468 0 -0.0538416)
(0.242868 0 -0.0506559)
(0.231264 0 -0.0473738)
(0.218533 0 -0.0439899)
(0.204551 0 -0.0404948)
(0.189186 0 -0.0368738)
(0.172299 0 -0.0331075)
(0.153757 0 -0.0291722)
(0.133409 0 -0.025037)
(0.111112 0 -0.0206672)
(0.086727 0 -0.0160227)
(0.0601029 0 -0.0110542)
(0.0310438 0 -0.00569755)
(0 0 0)
(0.280962 0 -0.0628666)
(0.272612 0 -0.0600894)
(0.263577 0 -0.0571892)
(0.253759 0 -0.0541729)
(0.243053 0 -0.0510435)
(0.231346 0 -0.0478006)
(0.21852 0 -0.0444397)
(0.204454 0 -0.0409522)
(0.18902 0 -0.037325)
(0.172091 0 -0.0335407)
(0.153529 0 -0.0295758)
(0.133177 0 -0.0253981)
(0.110883 0 -0.0209716)
(0.0865186 0 -0.0162599)
(0.0599406 0 -0.0112171)
(0.0309523 0 -0.00578029)
(0 0 0)
(0.263549 0 -0.0572299)
(0.253672 0 -0.0542976)
(0.242899 0 -0.0512353)
(0.231123 0 -0.048043)
(0.218233 0 -0.0447171)
(0.204111 0 -0.04125)
(0.188634 0 -0.0376293)
(0.171676 0 -0.0338384)
(0.153106 0 -0.029856)
(0.132779 0 -0.0256529)
(0.110531 0 -0.0211912)
(0.0862199 0 -0.0164325)
(0.0597168 0 -0.0113355)
(0.03083 0 -0.00584016)
(0 0 0)
(0.242389 0 -0.0512345)
(0.23058 0 -0.0481031)
(0.217657 0 -0.0448233)
(0.203508 0 -0.0413882)
(0.188014 0 -0.0377866)
(0.171052 0 -0.0340027)
(0.152492 0 -0.0300158)
(0.1322 0 -0.0257996)
(0.110022 0 -0.0213194)
(0.0858129 0 -0.0165366)
(0.0594319 0 -0.0114092)
(0.0306793 0 -0.00587767)
(0 0 0)
(0.229704 0 -0.047983)
(0.21678 0 -0.0447595)
(0.202634 0 -0.0413679)
(0.18715 0 -0.0377975)
(0.17021 0 -0.0340337)
(0.151688 0 -0.0300569)
(0.131451 0 -0.0258418)
(0.109359 0 -0.0213574)
(0.0852761 0 -0.0165683)
(0.0590567 0 -0.0114327)
(0.0304889 0 -0.00589063)
(0 0 0)
(0.20148 0 -0.0411896)
(0.186036 0 -0.0376625)
(0.169146 0 -0.0339319)
(0.150689 0 -0.0299795)
(0.130538 0 -0.0257817)
(0.108559 0 -0.0213097)
(0.0846166 0 -0.0165296)
(0.0585723 0 -0.0114026)
(0.0302292 0 -0.0058734)
(0 0 0)
(0.184665 0 -0.0373821)
(0.167854 0 -0.0336976)
(0.149493 0 -0.029784)
(0.129457 0 -0.0256192)
(0.10762 0 -0.0211766)
(0.0838486 0 -0.0164242)
(0.0580065 0 -0.011325)
(0.0299151 0 -0.00582915)
(0 0 0)
(0.148097 0 -0.0294706)
(0.128207 0 -0.0253547)
(0.106541 0 -0.0209585)
(0.0829739 0 -0.0162526)
(0.0573733 0 -0.0112027)
(0.0295735 0 -0.00576331)
(0 0 0)
(0.126788 0 -0.0249883)
(0.105325 0 -0.0206558)
(0.0819943 0 -0.0160155)
(0.0566709 0 -0.0110357)
(0.0291989 0 -0.00567487)
(0 0 0)
(0.0809123 0 -0.0157129)
(0.0558997 0 -0.0108238)
(0.0287902 0 -0.00556365)
(0 0 0)
(0.055062 0 -0.0105673)
(0.028348 0 -0.00542964)
(0 0 0)
(0.0278744 0 -0.005273)
(0 0 0)
)
;

boundaryField
{
    inlet
    {
        type            fixedValue;
        value           nonuniform 0();
    }
    outlet
    {
        type            fixedValue;
        value           uniform (0 0 0);
    }
    flap
    {
        type            fixedValue;
        value           nonuniform 0();
    }
    upperWall
    {
        type            slip;
    }
    lowerWall
    {
        type            slip;
    }
    frontAndBack
    {
        type            empty;
    }
    procBoundary5to2
    {
        type            processor;
    }
    procBoundary5to4
    {
        type            processor;
    }
}


// ************************************************************************* //
