/*--------------------------------*- C++ -*----------------------------------*\
| =========                 |                                                 |
| \\      /  F ield         | OpenFOAM: The Open Source CFD Toolbox           |
|  \\    /   O peration     | Version:  dev                                   |
|   \\  /    A nd           | Web:      www.OpenFOAM.org                      |
|    \\/     M anipulation  |                                                 |
\*---------------------------------------------------------------------------*/
FoamFile
{
    version     2.0;
    format      ascii;
    class       volVectorField;
    location    "3.47";
    object      U;
}
// * * * * * * * * * * * * * * * * * * * * * * * * * * * * * * * * * * * * * //

dimensions      [0 1 -1 0 0 0 0];

internalField   nonuniform List<vector> 
2790
(
(9.94612 6.28688e-22 0.0197814)
(9.87289 -6.44599e-22 0.0290329)
(9.76643 0 0.0356454)
(9.63706 -1.37051e-21 0.0422805)
(9.4893 1.4067e-21 0.0490904)
(9.32319 7.28327e-22 0.0560559)
(9.13803 7.53304e-22 0.0633141)
(8.93332 -1.56008e-21 0.0710298)
(8.70849 0 0.0793425)
(8.46276 -8.43299e-21 0.0883768)
(8.19513 6.93763e-21 0.0982553)
(7.90442 3.62631e-21 0.109103)
(7.58938 -3.77468e-21 0.121046)
(7.24864 1.19173e-20 0.134206)
(6.88088 -3.69296e-20 0.148697)
(6.48481 1.70046e-20 0.164608)
(6.05935 4.46804e-21 0.181994)
(5.60375 9.33475e-21 0.20085)
(5.11777 0 0.221081)
(4.60195 0 0.242467)
(4.05787 -1.06453e-20 0.264611)
(3.4885 -1.11121e-20 0.286883)
(2.89854 0 0.308341)
(2.29483 1.08963e-19 0.327615)
(1.68669 6.46432e-22 0.342735)
(1.08532 -2.33715e-19 0.351075)
(0.520888 2.14569e-19 0.347579)
(-0.128101 -1.10056e-19 0.194598)
(-0.414679 0 -0.229054)
(-0.0518506 -2.30776e-19 -0.34638)
(10.0034 -6.2845e-22 0.0402501)
(9.98403 1.93082e-21 0.0621439)
(9.93419 -2.65261e-21 0.0790427)
(9.86048 1.35833e-21 0.0964324)
(9.76615 0 0.114673)
(9.65134 7.24771e-22 0.13366)
(9.51552 -7.50232e-22 0.153658)
(9.35825 4.65542e-21 0.175026)
(9.17899 -3.21397e-21 0.198074)
(8.97699 2.85028e-20 0.223076)
(8.75125 -2.75412e-20 0.250298)
(8.50061 3.2556e-20 0.280001)
(8.22379 4.13667e-21 0.312429)
(7.91941 -8.98083e-20 0.347796)
(7.58604 6.85296e-20 0.386256)
(7.2223 -5.97254e-20 0.427866)
(6.82694 1.36788e-19 0.472539)
(6.39899 -8.2353e-20 0.519969)
(5.93792 -1.9192e-20 0.569549)
(5.44391 0 0.620269)
(4.91812 -1.58065e-19 0.670592)
(4.36307 -1.62706e-19 0.71832)
(3.78303 1.60142e-19 0.760431)
(3.18462 -5.80411e-19 0.792869)
(2.57758 8.35152e-19 0.810168)
(1.97577 -7.37976e-19 0.804577)
(1.40502 -1.08439e-21 0.762628)
(0.854381 -5.36584e-22 0.632052)
(0.449239 4.73517e-19 0.377688)
(0.172391 4.61201e-19 -0.252786)
(10.0005 0 0.0435769)
(9.9782 -1.28653e-21 0.0755642)
(9.93049 -5.29873e-21 0.103395)
(9.86168 1.77142e-20 0.132044)
(9.77371 -1.11973e-20 0.162202)
(9.66679 -1.44895e-21 0.193852)
(9.5407 2.10554e-20 0.227342)
(9.39516 -5.26439e-20 0.263177)
(9.22977 2.87308e-20 0.301832)
(9.04392 2.6729e-20 0.343753)
(8.83679 -2.74203e-20 0.389378)
(8.60738 -1.52362e-23 0.439145)
(8.35455 -5.99088e-20 0.493475)
(8.07706 6.88915e-21 0.552745)
(7.77357 1.2886e-19 0.617246)
(7.4427 -5.82779e-20 0.687127)
(7.08311 1.74392e-20 0.762307)
(6.69357 0 0.842363)
(6.27313 1.9093e-19 0.926387)
(5.82127 -1.57287e-19 1.01281)
(5.3382 4.11521e-20 1.09917)
(4.82511 0 1.18189)
(4.28464 2.24003e-20 1.25595)
(3.72137 3.2708e-19 1.31447)
(3.14244 -4.55975e-20 1.34808)
(2.55785 -1.30037e-18 1.34341)
(1.98325 8.2523e-19 1.27948)
(1.41953 9.07888e-19 1.11324)
(0.87819 -2.56963e-20 0.815025)
(0.531051 -9.181e-19 0.342895)
(9.99879 -1.25447e-21 0.0495233)
(9.97424 7.70884e-21 0.0931278)
(9.92644 -2.63522e-21 0.133183)
(9.85899 -2.71504e-21 0.173361)
(9.77289 -1.12372e-20 0.214923)
(9.66832 -1.16791e-20 0.258253)
(9.54528 -1.81898e-22 0.303888)
(9.40371 3.07504e-20 0.352499)
(9.24336 0 0.404747)
(9.06381 0 0.46126)
(8.8645 0 0.522657)
(8.64469 -2.04724e-23 0.589555)
(8.40357 -1.47613e-20 0.662558)
(8.14022 -7.69581e-21 0.742222)
(7.85362 0 0.829012)
(7.54271 1.00715e-19 0.923229)
(7.20639 -2.94274e-19 1.02491)
(6.84357 1.43151e-19 1.13368)
(6.45324 -1.88044e-20 1.24857)
(6.03454 0 1.36778)
(5.58694 -8.1294e-20 1.48834)
(5.11041 -4.21591e-20 1.60582)
(4.60571 -4.38312e-20 1.71385)
(4.07463 2.70081e-22 1.80362)
(3.52025 0 1.86309)
(2.94648 -7.38991e-19 1.87583)
(2.35852 1.67757e-18 1.81927)
(1.75497 -8.92497e-19 1.65918)
(1.11177 -9.26402e-19 1.37472)
(0.604052 9.09387e-19 0.924766)
(9.99804 -1.25075e-21 0.0569853)
(9.97226 -5.13212e-21 0.110766)
(9.92443 2.62543e-21 0.161631)
(9.85821 2.71314e-21 0.212311)
(9.774 1.96245e-20 0.264469)
(9.67175 -4.61109e-20 0.31887)
(9.55158 5.05876e-20 0.3762)
(9.4135 -3.06524e-20 0.437232)
(9.25734 -5.1144e-20 0.502736)
(9.08278 -5.44285e-22 0.573459)
(8.88937 6.79335e-20 0.650133)
(8.67656 1.20967e-19 0.733487)
(8.44372 -2.20357e-19 0.82424)
(8.19016 1.21263e-19 0.923064)
(7.91514 1.27628e-19 1.03055)
(7.61787 -1.14388e-19 1.14711)
(7.2975 -2.75875e-19 1.27291)
(6.95314 2.8303e-19 1.40768)
(6.58385 0 1.55052)
(6.18866 3.10111e-19 1.6996)
(5.76656 4.41037e-20 1.85186)
(5.31655 3.3129e-19 2.00255)
(4.8377 6.95447e-19 2.14473)
(4.32921 -6.69321e-19 2.26872)
(3.79034 -4.6346e-20 2.3615)
(3.21991 -4.80566e-20 2.4061)
(2.61607 -8.52186e-19 2.38142)
(1.97552 8.26349e-19 2.26058)
(1.26023 5.37182e-20 2.02935)
(0.653387 -2.80177e-20 1.63933)
(9.99774 2.49077e-21 0.0651035)
(9.97148 0 0.128357)
(9.92401 7.90586e-21 0.189474)
(9.8593 -1.07943e-20 0.250511)
(9.77737 2.79142e-20 0.313202)
(9.67794 -2.29031e-20 0.378544)
(9.56116 4.76061e-20 0.447351)
(9.4271 -4.87908e-20 0.520479)
(9.27564 0 0.598802)
(9.1065 -5.26811e-20 0.683173)
(8.9193 1.36005e-19 0.774433)
(8.71359 -1.39969e-19 0.873418)
(8.48883 1.17337e-19 0.980949)
(8.24445 1.49366e-21 1.0978)
(7.97983 -1.24796e-19 1.22468)
(7.69431 2.62475e-19 1.3621)
(7.38714 -2.35348e-19 1.51036)
(7.05753 0 1.66931)
(6.70454 0 1.83822)
(6.32701 -3.77521e-20 2.01545)
(5.92354 0 2.19808)
(5.49232 3.85257e-22 2.38154)
(5.03108 4.26029e-20 2.55898)
(4.53692 8.75203e-20 2.72086)
(4.00621 8.6955e-19 2.85434)
(3.43433 -7.06161e-19 2.94313)
(2.81524 1.57411e-18 2.96789)
(2.14588 -1.62175e-18 2.90565)
(1.38256 1.66488e-18 2.74482)
(0.705405 -3.52908e-18 2.42608)
(9.99772 2.4872e-21 0.0734587)
(9.97149 -5.09657e-21 0.145804)
(9.9248 5.23971e-21 0.216668)
(9.86191 2.43049e-20 0.287682)
(9.78262 -2.49286e-20 0.360534)
(9.6865 5.71187e-21 0.436388)
(9.57367 0 0.516198)
(9.44426 -4.89588e-20 0.600926)
(9.2982 9.44887e-20 0.69154)
(9.13525 -6.48464e-20 0.788996)
(8.95508 1.2189e-19 0.894232)
(8.75727 -9.70535e-20 1.00818)
(8.54136 1.16319e-19 1.13175)
(8.3068 -1.34096e-19 1.26582)
(8.05302 -2.81019e-19 1.41117)
(7.77936 2.56182e-19 1.56847)
(7.48508 -6.68159e-20 1.73813)
(7.16932 0 1.92019)
(6.83098 -5.43016e-19 2.11415)
(6.46866 1.19366e-18 2.31869)
(6.08048 -6.53577e-19 2.53133)
(5.66392 4.02909e-20 2.74801)
(5.21556 0 2.96255)
(4.73093 -8.65683e-20 3.16616)
(4.20431 -8.9704e-20 3.34692)
(3.62877 0 3.48951)
(2.99575 0 3.57571)
(2.30322 0 3.58345)
(1.50562 -1.62839e-18 3.49955)
(0.768137 1.69766e-18 3.25184)
(9.99785 -2.47636e-21 0.0818087)
(9.97204 0 0.162933)
(9.92651 -2.61504e-21 0.243058)
(9.86575 1.8847e-20 0.323603)
(9.78947 -1.65467e-20 0.406201)
(9.69711 -5.70519e-21 0.492132)
(9.58878 0 0.582483)
(9.46465 4.26435e-20 0.678312)
(9.32469 -4.36034e-20 0.780676)
(9.16872 -7.81263e-20 0.890622)
(8.99643 1.06507e-19 1.00918)
(8.80745 0 1.13737)
(8.60136 0 1.27621)
(8.37764 1.48751e-20 1.42666)
(8.1357 2.29404e-22 1.58964)
(7.87487 0 1.76594)
(7.5943 -2.32072e-19 1.95615)
(7.29299 5.46127e-19 2.16056)
(6.96961 -2.81571e-19 2.37898)
(6.62241 -5.88518e-19 2.61055)
(6.249 6.41225e-19 2.85341)
(5.84612 5.5289e-19 3.10431)
(5.40939 6.27986e-21 3.35811)
(4.933 -6.69101e-19 3.60725)
(4.40958 -8.62609e-20 3.84107)
(3.83042 0 4.04534)
(3.18486 0 4.20221)
(2.4714 4.79533e-20 4.28855)
(1.6446 -1.58513e-18 4.28625)
(0.845712 4.94008e-20 4.10898)
(9.9981 2.47541e-21 0.0899991)
(9.97298 0 0.179577)
(9.92894 2.08557e-20 0.268498)
(9.87063 -1.86968e-20 0.358103)
(9.79771 -1.10111e-20 0.449995)
(9.70953 4.55037e-20 0.545534)
(9.6062 3.09864e-22 0.645914)
(9.48793 -4.80215e-20 0.752288)
(9.35473 0 0.865794)
(9.20647 -1.2876e-20 0.987564)
(9.04289 0 1.11872)
(8.86366 1.10277e-19 1.26037)
(8.6684 -1.12876e-19 1.41363)
(8.45662 0 1.57959)
(8.22773 2.74457e-19 1.75929)
(7.98099 2.71785e-21 1.95369)
(7.7155 -2.5825e-19 2.16362)
(7.43007 0 2.38966)
(7.12311 -3.49012e-20 2.63205)
(6.79251 3.60946e-20 2.89052)
(6.43536 -3.68029e-20 3.16398)
(6.04774 -4.62531e-19 3.45026)
(5.62431 6.30268e-19 3.74555)
(5.15804 0 4.04387)
(4.63996 1.68819e-19 4.33622)
(4.05946 0 4.60959)
(3.40335 -4.46928e-20 4.84625)
(2.66904 -4.72905e-20 5.02084)
(1.81188 -2.45245e-20 5.10767)
(0.942446 -1.5761e-18 5.00415)
(9.99843 0 0.0979237)
(9.9742 0 0.195596)
(9.93194 2.58779e-21 0.292849)
(9.87639 -2.66892e-21 0.391025)
(9.80715 5.49081e-21 0.491718)
(9.72354 0 0.596347)
(9.62567 4.08497e-20 0.706198)
(9.51379 -3.57825e-20 0.822506)
(9.38796 0 0.94649)
(9.24809 -1.02414e-19 1.07936)
(9.09398 2.23661e-19 1.22231)
(8.92537 -1.08196e-19 1.37657)
(8.74191 -1.39747e-20 1.54333)
(8.54316 0 1.72381)
(8.32854 2.70505e-19 1.91922)
(8.09731 -2.46164e-19 2.1307)
(7.84849 0 2.35937)
(7.58078 0 2.60617)
(7.29239 0 2.87186)
(6.9809 0 3.15687)
(6.643 7.23776e-20 3.46107)
(6.27416 -6.37706e-19 3.78356)
(5.86819 6.51081e-19 4.12221)
(5.41685 -7.8406e-20 4.47304)
(4.90937 -1.43416e-18 4.82926)
(4.33267 2.69674e-18 5.17968)
(3.66991 -2.78412e-18 5.50708)
(2.91449 1.43756e-18 5.7836)
(2.02118 -1.49483e-18 5.97378)
(1.06452 1.50908e-18 5.9542)
(9.99882 4.91047e-21 0.105505)
(9.97565 -5.02593e-21 0.210869)
(9.93541 -2.58611e-21 0.315983)
(9.88289 0 0.422219)
(9.81764 0 0.531184)
(9.73895 0 0.644348)
(9.64695 5.79016e-21 0.76307)
(9.54193 -5.96527e-21 0.88866)
(9.42401 0 1.0224)
(9.29314 0 1.16559)
(9.1492 -1.30806e-20 1.31948)
(8.99199 1.33971e-20 1.4854)
(8.82123 1.39275e-20 1.66464)
(8.63654 1.42453e-20 1.85855)
(8.43739 -2.96653e-20 2.0685)
(8.22307 0 2.29588)
(7.99261 -2.2105e-19 2.54207)
(7.74468 2.25573e-19 2.80846)
(7.4774 0 3.09639)
(7.18822 -5.50885e-19 3.40706)
(6.8736 -3.95474e-20 3.74148)
(6.52859 5.45601e-19 4.10022)
(6.14635 -3.43284e-20 4.48321)
(5.71753 -5.33616e-19 4.88906)
(5.22942 7.85802e-20 5.31401)
(4.66579 0 5.75006)
(4.00434 4.22033e-20 6.1821)
(3.23017 -1.37361e-18 6.58122)
(2.29219 1.41835e-18 6.90135)
(1.22278 1.48092e-18 6.9908)
(9.99926 0 0.112683)
(9.97729 -7.52739e-21 0.225301)
(9.93926 1.28343e-20 0.337784)
(9.89001 0 0.451549)
(9.82902 4.35092e-20 0.568231)
(9.75557 -4.4542e-20 0.68934)
(9.66981 -4.6066e-20 0.816298)
(9.57206 4.71419e-20 0.950475)
(9.46252 -9.77082e-20 1.09322)
(9.3412 9.99503e-20 1.24588)
(9.20804 0 1.4098)
(9.06292 -1.33584e-20 1.58636)
(8.90567 0 1.77697)
(8.73597 -2.82482e-20 1.9831)
(8.55341 0 2.20628)
(8.35735 -2.70432e-19 2.44812)
(8.14692 -3.29042e-20 2.71034)
(7.92087 3.16221e-19 2.99475)
(7.67742 0 3.30329)
(7.41411 -5.37097e-19 3.63801)
(7.12745 5.47927e-19 4.00113)
(6.81239 5.64143e-19 4.39491)
(6.46187 -6.11042e-19 4.82166)
(6.06586 0 5.28328)
(5.61 -3.82168e-20 5.78028)
(5.07456 0 6.31009)
(4.43015 -3.84882e-20 6.86339)
(3.6479 -3.92912e-20 7.41533)
(2.65953 0 7.91352)
(1.44033 2.08434e-20 8.17133)
(9.99974 2.42843e-21 0.119411)
(9.97907 4.99612e-21 0.238809)
(9.94343 -3.32794e-20 0.35815)
(9.89765 4.46569e-20 0.478895)
(9.84115 -2.1551e-20 0.602713)
(9.77321 4.44846e-20 0.731151)
(9.69399 -3.98344e-20 0.865676)
(9.60389 4.70786e-20 1.00771)
(9.50313 -4.21387e-20 1.15866)
(9.3918 -1.23816e-20 1.3199)
(9.26995 -1.0267e-19 1.49287)
(9.13753 1.18049e-19 1.67898)
(8.99447 0 1.87976)
(8.8406 2.37786e-19 2.09677)
(8.6756 -1.26571e-20 2.33171)
(8.49903 -2.1994e-19 2.58639)
(8.31018 -3.00603e-20 2.86282)
(8.10804 -3.12994e-20 3.16321)
(7.89111 4.79346e-19 3.49009)
(7.65728 3.44394e-20 3.84635)
(7.40344 -5.33032e-19 4.2354)
(7.125 5.45501e-19 4.66129)
(6.81538 -5.20507e-19 5.12893)
(6.46477 -3.47936e-20 5.64404)
(6.05842 0 6.2128)
(5.57425 0 6.84106)
(4.97586 -1.17155e-18 7.53158)
(4.21557 2.46586e-18 8.27567)
(3.1893 -1.24346e-18 9.03423)
(1.76981 1.2506e-18 9.60222)
(10.0002 -1.02562e-23 0.125654)
(9.98097 1.06289e-23 0.251328)
(9.94785 2.53983e-21 0.376995)
(9.90572 -5.22573e-21 0.504156)
(9.85391 0 0.63451)
(9.79169 0 0.769637)
(9.71928 4.54034e-20 0.911039)
(9.6371 -4.64754e-20 1.06018)
(9.54545 -3.99473e-23 1.21849)
(9.44451 1.23565e-20 1.38741)
(9.33438 0 1.56839)
(9.21514 9.13768e-20 1.76293)
(9.08685 -3.08084e-19 1.9726)
(8.94946 2.19244e-19 2.19906)
(8.80287 2.40672e-19 2.44412)
(8.64682 -2.3091e-19 2.70978)
(8.4809 2.99113e-20 2.99828)
(8.30446 1.50878e-20 3.31218)
(8.11646 3.13889e-20 3.65448)
(7.9154 4.76739e-19 4.0288)
(7.69895 -1.02036e-18 4.43963)
(7.46365 -5.27488e-19 4.89267)
(7.20434 0 5.3953)
(6.91299 -5.20941e-19 5.95711)
(6.57701 1.0894e-18 6.59074)
(6.17601 -5.50875e-19 7.31297)
(5.67222 5.16362e-20 8.146)
(5.00322 -3.51895e-20 9.1178)
(4.01284 1.76438e-20 10.259)
(2.33713 -1.14407e-18 11.5051)
(10.0008 -2.41618e-21 0.13138)
(9.98296 2.47429e-21 0.262806)
(9.95248 -2.0297e-20 0.39425)
(9.91412 4.15991e-20 0.527239)
(9.86716 -6.40632e-20 0.663506)
(9.81085 8.49244e-20 0.804651)
(9.74544 -5.45214e-21 0.952203)
(9.67142 -4.61296e-20 1.10765)
(9.58914 -9.52711e-20 1.27246)
(9.49885 1.0341e-19 1.44808)
(9.40076 1.005e-19 1.63601)
(9.29507 -1.22596e-20 1.83776)
(9.18197 -2.24596e-19 2.05495)
(9.06158 -9.57452e-20 2.28931)
(8.93401 -1.02972e-21 2.54273)
(8.79928 4.55641e-19 2.81732)
(8.65734 -2.18183e-19 3.11547)
(8.50798 -1.50104e-20 3.43998)
(8.3508 1.50503e-20 3.79419)
(8.18513 0 4.18224)
(8.00979 -1.59019e-20 4.60937)
(7.82306 7.8571e-21 5.0825)
(7.62222 7.91527e-21 5.61084)
(7.40299 1.64434e-20 6.20701)
(7.15861 -5.10584e-19 6.88909)
(6.87777 5.13671e-19 7.68406)
(6.53755 4.63228e-19 8.63522)
(6.09563 -4.94435e-19 9.8207)
(5.40437 -4.45213e-19 11.4219)
(3.4527 4.71969e-19 14.3749)
(0.111315 2.07495e-21 -0.0989603)
(0.301568 -1.80057e-21 -0.110073)
(0.484666 -1.41185e-21 -0.0957012)
(0.643073 1.46411e-21 -0.0737207)
(0.765084 0 -0.0514635)
(0.84906 3.88336e-22 -0.0316147)
(0.89877 -4.37185e-22 -0.0150689)
(0.919872 4.11935e-23 -0.00209192)
(0.918813 0 0.00708226)
(0.902392 0 0.0126531)
(0.876652 -2.56279e-23 0.0151866)
(0.846667 -2.2309e-23 0.0152875)
(0.816616 7.47831e-23 0.0135976)
(0.789744 -7.32602e-23 0.0108407)
(0.768058 2.93765e-23 0.00777812)
(0.752051 -2.87724e-23 0.00509347)
(0.740755 2.38608e-23 0.00320089)
(0.732416 -4.52915e-23 0.00206076)
(0.725654 2.14697e-23 0.00123022)
(0.720475 0 0.000193807)
(0.718359 1.84818e-23 -0.00130435)
(0.721533 -8.9755e-24 -0.00315125)
(0.731089 -8.32864e-24 -0.00501168)
(0.746765 0 -0.00675472)
(0.767888 3.36641e-24 -0.008645)
(0.794577 -3.29601e-24 -0.0110302)
(0.828218 0 -0.0141127)
(0.871087 0 -0.0177496)
(0.924929 0 -0.0212429)
(1.00474 0 -0.0229826)
(0.0963575 6.78641e-21 -0.290597)
(0.303562 -1.90717e-22 -0.285078)
(0.481717 -3.87968e-22 -0.239651)
(0.634332 -2.82344e-21 -0.184914)
(0.754094 2.21741e-21 -0.132615)
(0.841357 -3.70029e-21 -0.0869496)
(0.900378 1.69028e-21 -0.0493237)
(0.936594 5.64405e-22 -0.0198167)
(0.955413 -5.92554e-22 0.00201679)
(0.959039 4.4257e-22 0.016625)
(0.95252 7.55529e-23 0.0249605)
(0.940091 3.58204e-22 0.0280473)
(0.925051 -3.67418e-22 0.0270351)
(0.909927 -1.64803e-22 0.0232672)
(0.896282 1.28143e-22 0.0182647)
(0.884455 -1.04384e-22 0.0135897)
(0.873537 1.02227e-22 0.0103785)
(0.861959 2.21277e-23 0.00868808)
(0.848711 0 0.00738302)
(0.834379 0 0.0049591)
(0.821115 -9.30836e-24 0.000697224)
(0.811433 0 -0.00466713)
(0.805343 8.32537e-24 -0.00953048)
(0.802905 0 -0.0131233)
(0.802922 -6.75416e-24 -0.0157673)
(0.804163 1.25934e-23 -0.0182179)
(0.80658 -5.85547e-24 -0.0216756)
(0.813374 1.96499e-24 -0.0277225)
(0.829988 -1.92421e-24 -0.0368231)
(0.871148 2.8077e-24 -0.0450132)
(0.0441139 2.24641e-22 -0.484554)
(0.2602 6.21259e-21 -0.461911)
(0.411327 -6.29417e-21 -0.382604)
(0.53859 0 -0.295005)
(0.63631 -1.36831e-22 -0.213767)
(0.705939 -1.65083e-21 -0.143495)
(0.751521 1.61303e-21 -0.0861077)
(0.77834 0 -0.0416456)
(0.791651 9.92364e-22 -0.00886785)
(0.794175 -9.71078e-22 0.0140395)
(0.788223 -5.00734e-23 0.0281857)
(0.776949 -3.28127e-22 0.0346236)
(0.76235 3.59833e-22 0.0349558)
(0.745613 2.91572e-22 0.0311133)
(0.7273 -2.52211e-22 0.025256)
(0.707356 0 0.0197907)
(0.684937 -9.30786e-23 0.01675)
(0.658475 -1.677e-23 0.0166683)
(0.626486 1.04183e-22 0.0182087)
(0.588757 3.85569e-23 0.0190663)
(0.546596 -7.47343e-23 0.0174187)
(0.502388 3.6212e-23 0.0130397)
(0.462907 1.63746e-23 0.00716448)
(0.435203 -3.14663e-23 0.00140188)
(0.417049 1.4032e-23 -0.00440747)
(0.408433 1.25422e-23 -0.0119359)
(0.409763 -5.0641e-24 -0.0223236)
(0.420316 2.26876e-23 -0.0358531)
(0.43741 -1.24217e-23 -0.0517862)
(0.458958 2.17743e-24 -0.068435)
(-0.0159969 -1.06924e-22 -0.643422)
(0.196784 1.97456e-22 -0.608734)
(0.305593 1.79009e-22 -0.495296)
(0.397763 4.34322e-21 -0.378132)
(0.465504 -4.37902e-21 -0.273072)
(0.51164 3.35111e-21 -0.183315)
(0.538741 -3.07225e-21 -0.111002)
(0.552182 -1.46166e-22 -0.0550912)
(0.554627 1.07547e-21 -0.0139184)
(0.541807 -1.75356e-21 0.0155932)
(0.521247 -8.58483e-23 0.0346368)
(0.495901 -6.98453e-23 0.0444016)
(0.466114 -3.39951e-22 0.0474426)
(0.430266 -5.25913e-22 0.0468103)
(0.386659 2.45201e-22 0.0450886)
(0.335395 2.00386e-22 0.0444587)
(0.279981 -2.4197e-22 0.0464495)
(0.226435 0 0.050552)
(0.178413 5.89317e-23 0.0538958)
(0.136187 -7.75886e-23 0.0530897)
(0.100346 -3.65655e-23 0.046535)
(0.0725615 7.05567e-23 0.0349086)
(0.0541602 0 0.0205628)
(0.0454452 -1.45653e-23 0.00662989)
(0.0444391 -1.40793e-23 -0.00571941)
(0.0456146 2.33925e-23 -0.0172934)
(0.04779 -1.14682e-23 -0.0288636)
(0.0497454 -3.46526e-23 -0.0415472)
(0.0495829 2.3936e-23 -0.0574573)
(0.043896 -5.00848e-24 -0.0799954)
(-0.073018 1.06853e-22 -0.761211)
(0.118478 -9.70703e-23 -0.712825)
(0.170662 5.21926e-21 -0.566592)
(0.217332 -4.70658e-21 -0.426151)
(0.245103 -3.66678e-21 -0.304404)
(0.259516 6.22665e-21 -0.200459)
(0.25936 -3.16687e-21 -0.119307)
(0.254029 2.92217e-22 -0.0551259)
(0.216748 1.72066e-21 0.00224029)
(0.172327 -1.80565e-21 0.0432524)
(0.126588 6.94144e-22 0.0657741)
(0.0781846 -6.79495e-22 0.0773903)
(0.0267509 -4.71473e-22 0.0832928)
(-0.0267839 5.28665e-22 0.0857094)
(-0.0802443 -2.12527e-22 0.0860898)
(-0.131571 3.97995e-22 0.085481)
(-0.177086 -1.8299e-22 0.0841658)
(-0.214354 -3.92664e-23 0.0815658)
(-0.242743 3.69536e-23 0.0764793)
(-0.262572 7.30779e-23 0.0676477)
(-0.274865 -3.72128e-23 0.054632)
(-0.281601 -6.75597e-23 0.0385044)
(-0.285446 -3.08599e-23 0.021766)
(-0.288296 2.99947e-23 0.00701882)
(-0.29022 0 -0.00513939)
(-0.294245 -3.5316e-23 -0.0158944)
(-0.30027 2.00999e-23 -0.0264496)
(-0.309028 4.38213e-24 -0.0387415)
(-0.321042 2.67197e-24 -0.0560318)
(-0.333058 -9.00723e-25 -0.0766447)
(-0.124713 1.39083e-20 -0.831148)
(0.0259191 1.26314e-23 -0.759361)
(0.0117953 1.02843e-20 -0.581961)
(0.00348082 -1.03606e-20 -0.423571)
(-0.0193374 3.7519e-21 -0.287886)
(-0.049163 -6.58715e-21 -0.167982)
(-0.0951946 3.23321e-21 -0.0724182)
(-0.170749 -1.45733e-22 0.00430395)
(-0.22249 0 0.0540578)
(-0.268545 1.54589e-21 0.0846745)
(-0.31582 1.3377e-21 0.10367)
(-0.362193 -7.2539e-22 0.114804)
(-0.40752 4.95903e-22 0.119914)
(-0.450948 3.31984e-22 0.120251)
(-0.491188 -4.33366e-22 0.117142)
(-0.526434 -4.29527e-23 0.111669)
(-0.555015 4.07165e-24 0.104411)
(-0.575909 1.51508e-22 0.0955026)
(-0.589069 -7.42849e-23 0.0845629)
(-0.595657 -1.37793e-22 0.0710864)
(-0.597959 -3.42349e-23 0.0552362)
(-0.598819 9.47449e-23 0.0382887)
(-0.600563 -5.80928e-23 0.0221936)
(-0.604076 0 0.00853448)
(-0.608905 2.35428e-23 -0.00231441)
(-0.617439 3.10329e-23 -0.0114469)
(-0.629648 -1.83276e-23 -0.0206083)
(-0.645194 -1.8205e-23 -0.0323606)
(-0.662949 4.11887e-24 -0.0498362)
(-0.675961 6.1435e-24 -0.068959)
(-0.170345 0 -0.841098)
(-0.0814086 -1.28253e-20 -0.731004)
(-0.162604 1.15695e-21 -0.527663)
(-0.233619 1.09596e-20 -0.357075)
(-0.314984 2.84006e-22 -0.215478)
(-0.399702 0 -0.101332)
(-0.484095 0 -0.0128092)
(-0.54988 -2.2198e-21 0.0486758)
(-0.601318 1.91915e-21 0.0898423)
(-0.649719 -1.71213e-21 0.118161)
(-0.693752 -3.54648e-23 0.135883)
(-0.733748 -1.09115e-21 0.144935)
(-0.769954 0 0.147231)
(-0.802308 1.10805e-22 0.144241)
(-0.830455 3.48111e-22 0.137278)
(-0.853755 -4.52264e-22 0.127477)
(-0.871555 1.89727e-22 0.115661)
(-0.883541 1.05473e-22 0.102311)
(-0.890128 3.02674e-23 0.0875673)
(-0.892685 -9.43922e-23 0.0715375)
(-0.893337 -5.82515e-23 0.0547605)
(-0.894377 5.70323e-23 0.038364)
(-0.897547 3.30568e-24 0.0237089)
(-0.903622 0 0.0117685)
(-0.91253 -2.22844e-24 0.0026808)
(-0.923719 -5.98553e-23 -0.0046007)
(-0.940254 1.78877e-23 -0.0122412)
(-0.960708 3.09696e-23 -0.0234506)
(-0.982378 -9.57239e-24 -0.0406135)
(-0.99581 -7.50231e-24 -0.0579368)
(-0.212964 1.60137e-20 -0.778548)
(-0.197087 -1.36522e-21 -0.63099)
(-0.335462 -1.37732e-20 -0.42146)
(-0.462188 0 -0.25406)
(-0.585116 2.77699e-23 -0.12222)
(-0.698229 -5.06306e-22 -0.0206682)
(-0.788142 2.45763e-21 0.0503191)
(-0.85542 -2.79217e-21 0.097957)
(-0.913687 4.98271e-22 0.130934)
(-0.963026 2.01796e-22 0.152822)
(-1.00484 -1.43257e-21 0.165223)
(-1.04043 -4.88508e-22 0.169829)
(-1.07085 4.77571e-22 0.168244)
(-1.09683 3.41633e-22 0.161744)
(-1.11873 -3.34131e-22 0.151422)
(-1.13654 0 0.138265)
(-1.15009 -1.15792e-22 0.123128)
(-1.15938 1.73935e-22 0.106695)
(-1.16499 0 0.0894867)
(-1.16813 -7.2144e-23 0.0720307)
(-1.17059 0 0.0550936)
(-1.17424 0 0.0397182)
(-1.18047 2.15649e-23 0.0268686)
(-1.18989 4.40454e-23 0.0169307)
(-1.20241 0 0.00957781)
(-1.21773 3.25035e-23 0.00381348)
(-1.23603 0 -0.00250794)
(-1.25946 1.5238e-23 -0.0127243)
(-1.2842 -1.03838e-23 -0.0288515)
(-1.29799 2.81075e-24 -0.0444343)
(-0.257767 0 -0.646147)
(-0.304201 -1.62014e-20 -0.474486)
(-0.491811 1.58766e-20 -0.270506)
(-0.663692 0 -0.116924)
(-0.819952 2.63253e-23 -0.001469)
(-0.939825 5.06651e-22 0.0714719)
(-1.03332 8.23199e-22 0.119483)
(-1.11046 3.22764e-22 0.152655)
(-1.17343 1.79145e-21 0.174752)
(-1.22466 -1.75345e-21 0.187767)
(-1.26645 1.08286e-21 0.193196)
(-1.30084 -1.05813e-21 0.192433)
(-1.3295 8.17905e-23 0.186668)
(-1.35369 0 0.176796)
(-1.37414 0 0.163544)
(-1.39107 3.98203e-23 0.147639)
(-1.40453 3.40118e-23 0.129888)
(-1.41469 0 0.11114)
(-1.42216 0 0.0922278)
(-1.4281 -3.28512e-23 0.0739983)
(-1.434 7.55094e-23 0.0573643)
(-1.4414 3.82417e-23 0.0432202)
(-1.45137 -1.16378e-22 0.0321487)
(-1.46428 3.88252e-24 0.0240944)
(-1.47996 0 0.0183284)
(-1.49834 -1.901e-23 0.0136851)
(-1.52016 7.48612e-24 0.00836019)
(-1.54577 -1.52085e-23 -0.00059457)
(-1.57131 0 -0.0149994)
(-1.5854 -9.80458e-25 -0.028796)
(-0.305269 0 -0.453543)
(-0.410074 -3.22322e-22 -0.265416)
(-0.646679 5.49879e-22 -0.0704179)
(-0.855047 0 0.0585322)
(-1.01383 -3.39285e-22 0.12625)
(-1.14308 -5.55935e-22 0.168798)
(-1.24743 2.61072e-21 0.195742)
(-1.33116 -3.28035e-21 0.212275)
(-1.39811 -2.46087e-22 0.221237)
(-1.45179 1.67737e-22 0.224053)
(-1.4951 -1.19583e-22 0.221712)
(-1.53049 0 0.215151)
(-1.56004 -1.39266e-22 0.205113)
(-1.58531 0 0.192007)
(-1.60722 0 0.176089)
(-1.62609 -3.97738e-23 0.157775)
(-1.64201 -3.39672e-23 0.137814)
(-1.65525 0 0.117215)
(-1.66646 1.23514e-23 0.0970664)
(-1.6767 0 0.0784179)
(-1.68721 2.64005e-23 0.0622224)
(-1.69911 -2.5841e-23 0.0492103)
(-1.7131 0 0.0396408)
(-1.72927 3.25278e-23 0.033099)
(-1.74739 1.35999e-23 0.0285844)
(-1.76778 -2.56069e-23 0.0248209)
(-1.79197 -3.75763e-23 0.0202148)
(-1.82081 6.05477e-24 0.0124802)
(-1.84796 -3.53932e-25 0.000231989)
(-1.86013 1.33237e-24 -0.0115144)
(-0.362044 -2.51715e-20 -0.213419)
(-0.534711 3.22808e-22 0.0375882)
(-0.79388 -5.50146e-22 0.17286)
(-1.01365 -1.3463e-20 0.232698)
(-1.19115 1.24062e-20 0.262695)
(-1.33248 5.56255e-22 0.275096)
(-1.44368 4.04069e-22 0.277661)
(-1.53109 2.14622e-21 0.275288)
(-1.60044 -5.66081e-22 0.269995)
(-1.65609 -2.58465e-21 0.262084)
(-1.70122 -5.97305e-22 0.251657)
(-1.7384 7.00189e-22 0.239162)
(-1.77 -8.207e-23 0.224945)
(-1.79785 1.45188e-22 0.208863)
(-1.82296 3.32438e-23 0.190576)
(-1.84558 -5.34555e-23 0.170119)
(-1.86571 1.01815e-23 0.148195)
(-1.88359 1.52539e-23 0.125997)
(-1.89987 -2.40126e-23 0.104839)
(-1.91549 -3.39495e-24 0.0858769)
(-1.93144 0 0.0700005)
(-1.94851 -1.68974e-23 0.0577423)
(-1.96706 2.95918e-24 0.04911)
(-1.98701 0 0.0434886)
(-2.00819 -1.11083e-23 0.0398052)
(-2.03128 3.41544e-23 0.0368505)
(-2.05853 3.72394e-24 0.0332662)
(-2.09137 -3.64743e-24 0.0272495)
(-2.123 7.88121e-25 0.0177882)
(-2.138 8.05295e-24 0.00874305)
(-0.408098 -2.53897e-20 0.248808)
(-0.630745 2.54438e-20 0.371142)
(-0.932403 0 0.422287)
(-1.18092 -9.29024e-22 0.426577)
(-1.37259 7.27492e-22 0.410174)
(-1.51929 0 0.386479)
(-1.63143 -4.04232e-22 0.361578)
(-1.7181 0 0.339143)
(-1.78697 -1.39577e-21 0.319664)
(-1.8431 1.84203e-21 0.30138)
(-1.88934 1.1886e-21 0.283046)
(-1.92806 -4.09243e-22 0.264783)
(-1.9619 6.6663e-24 0.246776)
(-1.99304 -1.53047e-23 0.228267)
(-2.02251 0 0.208099)
(-2.05027 -3.22814e-23 0.185813)
(-2.07597 -4.28282e-23 0.162103)
(-2.09967 -5.08034e-23 0.138447)
(-2.12193 4.13774e-23 0.116409)
(-2.14361 -5.27129e-23 0.097184)
(-2.16545 -4.02323e-24 0.0815214)
(-2.18795 3.93721e-24 0.0697447)
(-2.21127 2.08867e-24 0.0616782)
(-2.23529 2.18492e-23 0.0566107)
(-2.25994 0 0.0534853)
(-2.28609 9.04031e-24 0.0512125)
(-2.31615 -2.19536e-24 0.0486916)
(-2.35146 -5.16287e-24 0.0445529)
(-2.38465 3.01079e-23 0.0379648)
(-2.39992 -8.83687e-24 0.0315311)
(-0.441214 -2.88064e-20 0.700383)
(-0.739168 4.3775e-21 0.755388)
(-1.11005 5.8713e-21 0.709902)
(-1.37746 1.76211e-20 0.633459)
(-1.56929 -5.9239e-22 0.559281)
(-1.70996 0 0.49588)
(-1.81449 2.46541e-21 0.442163)
(-1.89395 -2.13696e-21 0.399988)
(-1.95812 1.58919e-22 0.36801)
(-2.01243 3.71391e-23 0.340873)
(-2.0584 0 0.3153)
(-2.09749 5.67444e-23 0.291666)
(-2.13274 -6.99582e-23 0.270637)
(-2.16702 -2.72726e-22 0.250714)
(-2.20127 -3.4266e-23 0.229452)
(-2.23468 3.5267e-22 0.205674)
(-2.26618 4.27785e-23 0.180173)
(-2.2954 3.88224e-23 0.154919)
(-2.32284 0 0.131818)
(-2.34926 -2.27763e-23 0.112043)
(-2.37519 0 0.0961364)
(-2.40088 0 0.0842465)
(-2.42643 0 0.0761277)
(-2.4518 -6.76516e-24 0.0710677)
(-2.47713 7.0438e-24 0.0680343)
(-2.50347 -2.28915e-23 0.0660223)
(-2.53349 1.81198e-24 0.0642143)
(-2.56869 9.14985e-24 0.0617568)
(-2.60186 -6.35926e-23 0.058018)
(-2.61705 -1.21785e-23 0.0542734)
(-0.545371 -3.48096e-20 1.30809)
(-0.932594 2.01466e-21 1.22772)
(-1.36395 -1.13085e-21 1.0295)
(-1.62151 6.14651e-22 0.835215)
(-1.78681 3.70682e-21 0.692476)
(-1.90414 -3.44855e-21 0.592767)
(-1.99005 1.1784e-21 0.512458)
(-2.05344 -1.41854e-21 0.452597)
(-2.10706 2.62604e-22 0.412197)
(-2.15671 -2.58462e-22 0.379349)
(-2.20035 -6.64358e-23 0.347436)
(-2.23719 0 0.318675)
(-2.27119 3.32165e-22 0.29571)
(-2.30675 -2.57059e-22 0.275972)
(-2.34458 -1.22436e-22 0.254676)
(-2.38246 4.31947e-23 0.229568)
(-2.41799 0 0.201834)
(-2.45041 -1.60769e-22 0.174412)
(-2.48047 1.57244e-22 0.149781)
(-2.50919 -1.27355e-22 0.129014)
(-2.53706 4.70684e-23 0.112333)
(-2.56415 -5.43435e-23 0.0997457)
(-2.59046 1.93242e-23 0.0910575)
(-2.61604 3.60918e-24 0.0856516)
(-2.64115 6.53109e-25 0.0825427)
(-2.66702 -5.67539e-24 0.0807909)
(-2.69648 7.48371e-24 0.0798502)
(-2.73132 6.9362e-24 0.0793473)
(-2.76442 3.33296e-23 0.0786569)
(-2.77975 2.97907e-23 0.0775855)
(-0.809004 2.00876e-21 2.10819)
(-1.2761 -1.24416e-21 1.83338)
(-1.74346 -4.4722e-21 1.37622)
(-1.93563 3.88239e-21 0.978712)
(-2.02171 5.13405e-22 0.772088)
(-2.08976 0 0.668783)
(-2.14696 4.94586e-22 0.569526)
(-2.18354 -4.91872e-22 0.490355)
(-2.21874 -6.73821e-23 0.44781)
(-2.26126 3.19609e-22 0.414723)
(-2.30047 4.12552e-22 0.377115)
(-2.33054 -6.26398e-22 0.342537)
(-2.3581 1.00398e-21 0.318965)
(-2.3913 -5.2002e-22 0.302064)
(-2.43048 1.22393e-22 0.282288)
(-2.47062 -5.82906e-22 0.255818)
(-2.50734 5.43227e-22 0.225015)
(-2.53969 -4.85697e-22 0.194721)
(-2.5694 4.14522e-22 0.168378)
(-2.59824 -1.15031e-22 0.146684)
(-2.62671 -2.11161e-23 0.129188)
(-2.65444 2.05006e-24 0.115698)
(-2.68111 4.5547e-23 0.106183)
(-2.70674 -1.56159e-23 0.100222)
(-2.73167 7.52844e-24 0.0969099)
(-2.75719 -1.46414e-23 0.0953433)
(-2.7862 0 0.0952083)
(-2.82072 -1.10674e-23 0.0966132)
(-2.85395 -3.67349e-23 0.0988592)
(-2.86965 -1.4563e-23 0.10014)
(10.0013 0 0.13666)
(9.98505 1.06518e-20 0.273392)
(9.95735 8.47563e-21 0.410158)
(9.92296 2.49573e-21 0.5485)
(9.88108 -3.83837e-20 0.690173)
(9.83097 8.65213e-20 0.836793)
(9.7729 -4.29754e-20 0.989904)
(9.70744 0 1.15101)
(9.635 -1.0228e-19 1.32157)
(9.55591 8.70902e-20 1.50307)
(9.4705 0 1.697)
(9.37908 1.2316e-20 1.90489)
(9.28199 -6.24919e-21 2.12837)
(9.17956 1.93472e-19 2.3692)
(9.07214 -2.10577e-19 2.62928)
(8.96007 1.35829e-20 2.91076)
(8.8437 -1.3886e-20 3.21611)
(8.72337 0 3.54822)
(8.59942 2.21296e-19 3.91056)
(8.47219 -6.89109e-22 4.30751)
(8.34196 2.36934e-19 4.74461)
(8.20916 4.69311e-19 5.2292)
(8.0744 4.65857e-19 5.77116)
(7.93883 -9.51251e-19 6.38415)
(7.80492 4.77836e-19 7.08802)
(7.67873 4.80026e-19 7.91296)
(7.57582 -2.35902e-19 8.9081)
(7.56346 -2.12585e-19 10.1586)
(8.1287 1.84071e-19 11.7775)
(8.42964 4.14129e-20 14.5955)
(10.0019 0 0.141505)
(9.98726 -1.15172e-21 0.283089)
(9.96246 1.18111e-21 0.4247)
(9.93221 -1.93522e-20 0.567883)
(9.89561 1.73174e-20 0.714399)
(9.85191 4.07365e-20 0.865876)
(9.80144 -4.16616e-20 1.02386)
(9.7448 0 1.18985)
(9.68249 5.5101e-21 1.36532)
(9.61493 -9.02282e-20 1.55173)
(9.54253 1.90404e-19 1.75056)
(9.46577 -9.4448e-20 1.96334)
(9.38513 6.09046e-21 2.19166)
(9.30117 0 2.43727)
(9.21448 6.29211e-21 2.70203)
(9.12574 0 2.98805)
(9.03573 -6.54156e-21 3.29775)
(8.94536 0 3.63393)
(8.85571 -6.89033e-21 3.99999)
(8.76817 2.20282e-19 4.40015)
(8.68453 -2.27464e-19 4.83968)
(8.6074 -2.22646e-19 5.32541)
(8.54069 2.26006e-19 5.86627)
(8.4908 0 6.47411)
(8.46878 -2.13593e-19 7.16499)
(8.49548 2.14749e-19 7.9605)
(8.61007 9.37804e-20 8.88816)
(8.84956 -9.44871e-20 9.97989)
(9.51103 -8.07823e-20 11.1852)
(10.0415 -9.80449e-20 12.3488)
(10.0025 2.71588e-22 0.145826)
(9.98954 0 0.291734)