/*--------------------------------*- C++ -*----------------------------------*\
| =========                 |                                                 |
| \\      /  F ield         | OpenFOAM: The Open Source CFD Toolbox           |
|  \\    /   O peration     | Version:  dev                                   |
|   \\  /    A nd           | Web:      www.OpenFOAM.org                      |
|    \\/     M anipulation  |                                                 |
\*---------------------------------------------------------------------------*/
FoamFile
{
    version     2.0;
    format      ascii;
    class       volVectorField;
    location    "0.19";
    object      cellDisplacement;
}
// * * * * * * * * * * * * * * * * * * * * * * * * * * * * * * * * * * * * * //

dimensions      [0 1 0 0 0 0 0];

internalField   nonuniform List<vector> 
2790
(
(0.000688653 0 1.13763e-06)
(0.00198424 0 3.30356e-06)
(0.00312804 0 5.28711e-06)
(0.00413331 0 7.14192e-06)
(0.00501222 0 8.91292e-06)
(0.00577572 0 1.06389e-05)
(0.0064336 0 1.23546e-05)
(0.00699449 0 1.40931e-05)
(0.00746598 0 1.58872e-05)
(0.00785464 0 1.77713e-05)
(0.00816609 0 1.97838e-05)
(0.008405 0 2.19691e-05)
(0.00857513 0 2.4381e-05)
(0.00867935 0 2.70866e-05)
(0.00871958 0 3.01717e-05)
(0.00869681 0 3.37479e-05)
(0.00861099 0 3.79632e-05)
(0.00846105 0 4.30147e-05)
(0.00824475 0 4.91676e-05)
(0.00795869 0 5.6779e-05)
(0.0075983 0 6.63297e-05)
(0.00715787 0 7.84632e-05)
(0.00663115 0 9.40305e-05)
(0.00601207 0 0.000114136)
(0.00529646 0 0.000140169)
(0.00448549 0 0.000173775)
(0.00359234 0 0.000216661)
(0.00265524 0 0.00026991)
(0.00176578 0 0.000331599)
(0.00114465 0 0.000388247)
(0.000688873 0 3.40801e-06)
(0.00198492 0 9.8964e-06)
(0.00312923 0 1.58381e-05)
(0.00413508 0 2.13934e-05)
(0.0050147 0 2.66966e-05)
(0.00577907 0 3.18634e-05)
(0.00643801 0 3.69978e-05)
(0.00700021 0 4.21976e-05)
(0.00747331 0 4.75602e-05)
(0.00786396 0 5.31877e-05)
(0.00817784 0 5.91929e-05)
(0.00841976 0 6.57061e-05)
(0.00859364 0 7.28846e-05)
(0.0087025 0 8.09232e-05)
(0.00874856 0 9.00703e-05)
(0.00873311 0 0.000100648)
(0.00865657 0 0.000113079)
(0.00851846 0 0.000127927)
(0.00831732 0 0.000145942)
(0.00805082 0 0.00016813)
(0.00771579 0 0.000195834)
(0.00730842 0 0.000230833)
(0.00682494 0 0.000275451)
(0.00626254 0 0.00033265)
(0.0056213 0 0.000406039)
(0.00490786 0 0.000499648)
(0.00414216 0 0.000617079)
(0.00336967 0 0.000759004)
(0.00268375 0 0.000916095)
(0.00226602 0 0.00104869)
(0.000689325 0 5.66301e-06)
(0.0019863 0 1.64442e-05)
(0.00313162 0 2.63157e-05)
(0.00413865 0 3.55428e-05)
(0.00501967 0 4.43475e-05)
(0.00578575 0 5.29207e-05)
(0.00644678 0 6.14335e-05)
(0.00701154 0 7.00464e-05)
(0.00748779 0 7.89178e-05)
(0.00788231 0 8.8213e-05)
(0.00820097 0 9.81129e-05)
(0.00844878 0 0.000108825)
(0.00862994 0 0.000120599)
(0.00874788 0 0.000133737)
(0.00880525 0 0.000148626)
(0.00880401 0 0.000165759)
(0.00874541 0 0.00018578)
(0.00863004 0 0.000209531)
(0.00845794 0 0.000238126)
(0.00822869 0 0.000273034)
(0.00794165 0 0.000316185)
(0.00759634 0 0.000370085)
(0.00719327 0 0.000437922)
(0.00673504 0 0.000523605)
(0.0062283 0 0.00063161)
(0.005687 0 0.000766351)
(0.00513736 0 0.000930456)
(0.00462501 0 0.00112062)
(0.00422219 0 0.00131811)
(0.00403031 0 0.0014684)
(0.000689995 0 7.89135e-06)
(0.00198834 0 2.2914e-05)
(0.00313515 0 3.6666e-05)
(0.0041439 0 4.9515e-05)
(0.00502698 0 6.17682e-05)
(0.00579556 0 7.36888e-05)
(0.00645965 0 8.55116e-05)
(0.00702817 0 9.74555e-05)
(0.00750902 0 0.000109735)
(0.00790919 0 0.000122571)
(0.00823479 0 0.000136204)
(0.00849114 0 0.000150905)
(0.00868283 0 0.000166993)
(0.0088138 0 0.000184856)
(0.00888738 0 0.000204976)
(0.00890637 0 0.00022796)
(0.00887313 0 0.000254588)
(0.00878973 0 0.000285862)
(0.00865808 0 0.000323077)
(0.00848021 0 0.000367905)
(0.00825868 0 0.000422479)
(0.00799701 0 0.000489481)
(0.00770069 0 0.000572171)
(0.00737822 0 0.000674301)
(0.00704264 0 0.000799723)
(0.0067135 0 0.000951384)
(0.0064186 0 0.00112908)
(0.00619392 0 0.00132496)
(0.00607694 0 0.00151525)
(0.0060858 0 0.00164691)
(0.000690868 0 1.00817e-05)
(0.00199099 0 2.92724e-05)
(0.00313974 0 4.68347e-05)
(0.00415071 0 6.32347e-05)
(0.00503645 0 7.88609e-05)
(0.00580826 0 9.40453e-05)
(0.0064763 0 0.000109082)
(0.00704965 0 0.000124243)
(0.00753642 0 0.000139792)
(0.00794382 0 0.000155996)
(0.00827827 0 0.000173142)
(0.00854547 0 0.000191547)
(0.00875048 0 0.00021158)
(0.00889783 0 0.000233676)
(0.00899163 0 0.000258366)
(0.00903567 0 0.000286304)
(0.00903356 0 0.000318308)
(0.00898897 0 0.0003554)
(0.00890587 0 0.000398861)
(0.00878887 0 0.000450279)
(0.00864371 0 0.000511598)
(0.00847783 0 0.000585125)
(0.00830122 0 0.000673457)
(0.00812723 0 0.00077925)
(0.00797325 0 0.000904654)
(0.00786086 0 0.00105017)
(0.00781397 0 0.00121255)
(0.00785248 0 0.00138128)
(0.00797639 0 0.00153357)
(0.00813494 0 0.00162898)
(0.000691922 0 1.22227e-05)
(0.00199419 0 3.54864e-05)
(0.00314525 0 5.67679e-05)
(0.00415889 0 7.66271e-05)
(0.00504782 0 9.55294e-05)
(0.00582351 0 0.000113871)
(0.00649628 0 0.000131999)
(0.00707541 0 0.000150233)
(0.00756922 0 0.000168878)
(0.0079852 0 0.000188237)
(0.00833011 0 0.000208628)
(0.00861003 0 0.000230398)
(0.00883057 0 0.000253936)
(0.00899689 0 0.000279691)
(0.00911389 0 0.000308193)
(0.00918636 0 0.000340077)
(0.00921919 0 0.000376102)
(0.00921758 0 0.000417179)
(0.0091874 0 0.000464395)
(0.00913557 0 0.000519012)
(0.00907052 0 0.000582457)
(0.00900273 0 0.000656246)
(0.00894535 0 0.000741809)
(0.0089145 0 0.000840159)
(0.00892898 0 0.000951294)
(0.00900858 0 0.00107322)
(0.00916948 0 0.00120054)
(0.00941389 0 0.00132267)
(0.00971042 0 0.00142248)
(0.00996217 0 0.00147693)
(0.000693128 0 1.43036e-05)
(0.00199785 0 4.1524e-05)
(0.00315154 0 6.64136e-05)
(0.00416823 0 8.96203e-05)
(0.0050608 0 0.000111681)
(0.00584091 0 0.000133051)
(0.00651906 0 0.000154126)
(0.00710474 0 0.000175264)
(0.00760651 0 0.000196802)
(0.00803215 0 0.000219071)
(0.00838874 0 0.000242405)
(0.00868281 0 0.000267159)
(0.00892045 0 0.00029372)
(0.00910747 0 0.000322517)
(0.00924952 0 0.000354037)
(0.00935231 0 0.00038883)
(0.00942184 0 0.000427524)
(0.00946462 0 0.000470817)
(0.00948805 0 0.000519465)
(0.00950073 0 0.000574245)
(0.00951291 0 0.000635874)
(0.00953678 0 0.000704865)
(0.00958678 0 0.000781288)
(0.00967938 0 0.000864417)
(0.00983179 0 0.000952232)
(0.0100591 0 0.00104083)
(0.010368 0 0.00112392)
(0.0107456 0 0.00119289)
(0.01114 0 0.0012384)
(0.0114328 0 0.00125487)
(0.000694449 0 1.63141e-05)
(0.00200185 0 4.73552e-05)
(0.00315843 0 7.5723e-05)
(0.00417845 0 0.000102147)
(0.00507502 0 0.000127231)
(0.00585998 0 0.000151482)
(0.00654402 0 0.000175338)
(0.00713685 0 0.00019919)
(0.00764727 0 0.000223399)
(0.00808334 0 0.000248308)
(0.00845247 0 0.000274259)
(0.00876159 0 0.000301597)
(0.00901726 0 0.000330684)
(0.00922584 0 0.000361902)
(0.00939366 0 0.000395657)
(0.00952718 0 0.000432378)
(0.00963326 0 0.000472504)
(0.00971935 0 0.000516459)
(0.00979381 0 0.000564608)
(0.00986618 0 0.000617178)
(0.00994741 0 0.000674132)
(0.0100499 0 0.000734993)
(0.0101876 0 0.000798584)
(0.010375 0 0.000862723)
(0.0106253 0 0.00092392)
(0.0109471 0 0.000977221)
(0.0113381 0 0.00101657)
(0.0117746 0 0.00103629)
(0.0121965 0 0.00103464)
(0.0124861 0 0.00102044)
(0.000695844 0 1.82446e-05)
(0.00200607 0 5.29523e-05)
(0.0031657 0 8.46514e-05)
(0.00418927 0 0.000114147)
(0.00509008 0 0.000142103)
(0.00588019 0 0.000169072)
(0.00657049 0 0.000195529)
(0.00717087 0 0.000221889)
(0.00769039 0 0.000248529)
(0.00813736 0 0.000275798)
(0.00851949 0 0.000304029)
(0.00884407 0 0.000333547)
(0.00911806 0 0.000364672)
(0.00934828 0 0.000397717)
(0.00954155 0 0.000432989)
(0.00970489 0 0.000470768)
(0.0098457 0 0.000511283)
(0.00997195 0 0.000554671)
(0.0100924 0 0.000600905)
(0.0102166 0 0.000649699)
(0.0103552 0 0.00070036)
(0.0105196 0 0.000751612)
(0.0107214 0 0.000801372)
(0.0109716 0 0.000846543)
(0.011278 0 0.000882917)
(0.0116422 0 0.000905397)
(0.0120543 0 0.000908925)
(0.012485 0 0.000890742)
(0.0128761 0 0.000854826)
(0.013128 0 0.00081942)
(0.000697265 0 2.00868e-05)
(0.00201038 0 5.82906e-05)
(0.00317314 0 9.31592e-05)
(0.00420035 0 0.000125566)
(0.00510556 0 0.000156229)
(0.00590099 0 0.00018574)
(0.00659774 0 0.000214605)
(0.0072059 0 0.000243258)
(0.00773473 0 0.000272084)
(0.00819277 0 0.000301428)
(0.00858799 0 0.000331607)
(0.00892798 0 0.000362914)
(0.00921999 0 0.000395616)
(0.00947119 0 0.00042995)
(0.00968873 0 0.00046611)
(0.00987992 0 0.000504227)
(0.0100524 0 0.000544326)
(0.0102142 0 0.000586281)
(0.0103738 0 0.000629733)
(0.0105403 0 0.000673989)
(0.0107231 0 0.000717893)
(0.0109315 0 0.000759678)
(0.0111739 0 0.000796813)
(0.0114568 0 0.000825924)
(0.0117822 0 0.000842878)
(0.0121455 0 0.00084324)
(0.012531 0 0.000823429)
(0.0129084 0 0.000783071)
(0.0132284 0 0.000729287)
(0.0134198 0 0.000683936)
(0.000698662 0 2.18331e-05)
(0.00201462 0 6.33486e-05)
(0.00318049 0 0.000101212)
(0.00421136 0 0.000136359)
(0.00512099 0 0.000169553)
(0.0059218 0 0.000201423)
(0.00662506 0 0.000232497)
(0.00724103 0 0.000263222)
(0.00777915 0 0.000293985)
(0.00824816 0 0.000325123)
(0.00865624 0 0.00035693)
(0.00901116 0 0.000389659)
(0.00932042 0 0.000423522)
(0.00959135 0 0.000458676)
(0.00983126 0 0.000495208)
(0.0100475 0 0.000533108)
(0.0102477 0 0.00057223)
(0.0104395 0 0.000612237)
(0.0106309 0 0.00065253)
(0.0108297 0 0.000692162)
(0.0110436 0 0.000729744)
(0.0112792 0 0.000763353)
(0.0115416 0 0.000790475)
(0.0118325 0 0.000808049)
(0.012149 0 0.00081269)
(0.0124812 0 0.00080125)
(0.0128106 0 0.000771908)
(0.0131087 0 0.000726104)
(0.0133387 0 0.000671797)
(0.0134606 0 0.000628987)
(0.000699979 0 2.34774e-05)
(0.00201863 0 6.81084e-05)
(0.0031875 0 0.000108782)
(0.00422194 0 0.000146488)
(0.00513592 0 0.000182031)
(0.00594204 0 0.000216069)
(0.00665171 0 0.000249149)
(0.00727536 0 0.000281725)
(0.00782256 0 0.000314183)
(0.00830219 0 0.000346844)
(0.00872258 0 0.000379979)
(0.00909163 0 0.000413799)
(0.00941695 0 0.000448458)
(0.00970592 0 0.000484041)
(0.00996585 0 0.000520539)
(0.010204 0 0.000557829)
(0.0104275 0 0.000595633)
(0.0106436 0 0.000633473)
(0.0108592 0 0.000670614)
(0.0110808 0 0.000706013)
(0.011314 0 0.000738262)
(0.0115629 0 0.000765576)
(0.0118291 0 0.000785822)
(0.0121106 0 0.000796675)
(0.0124008 0 0.000795932)
(0.0126866 0 0.000782068)
(0.012949 0 0.000755097)
(0.0131639 0 0.00071779)
(0.0133072 0 0.000677321)
(0.0133665 0 0.000647727)
(0.000701162 0 2.50144e-05)
(0.00202227 0 7.25554e-05)
(0.00319392 0 0.000115846)
(0.00423174 0 0.000155924)
(0.0051499 0 0.000193628)
(0.00596114 0 0.000229642)
(0.006677 0 0.000264524)
(0.00730804 0 0.000298735)
(0.00786391 0 0.000332652)
(0.00835361 0 0.000366584)
(0.00878554 0 0.00040077)
(0.00916764 0 0.000435386)
(0.00950754 0 0.000470533)
(0.00981256 0 0.000506231)
(0.0100898 0 0.000542397)
(0.0103463 0 0.000578823)
(0.0105887 0 0.000615148)
(0.0108234 0 0.000650821)
(0.0110563 0 0.000685071)
(0.0112923 0 0.000716886)
(0.0115353 0 0.000745009)
(0.0117868 0 0.000767983)
(0.012046 0 0.000784266)
(0.0123082 0 0.000792453)
(0.0125644 0 0.000791627)
(0.0128011 0 0.000781853)
(0.0130009 0 0.000764742)
(0.0131457 0 0.000743903)
(0.0132231 0 0.000724881)
(0.0132397 0 0.00071395)
(0.000702155 0 2.64401e-05)
(0.00202536 0 7.6678e-05)
(0.00319949 0 0.000122386)
(0.00424042 0 0.000164644)
(0.00516248 0 0.00020432)
(0.00597855 0 0.000242116)
(0.00670027 0 0.000278601)
(0.00733825 0 0.000314236)
(0.00790226 0 0.000349391)
(0.0084013 0 0.000384357)
(0.0088438 0 0.000419348)
(0.0092377 0 0.000454504)
(0.00959051 0 0.000489882)
(0.00990942 0 0.000525453)
(0.0102013 0 0.000561079)
(0.0104727 0 0.0005965)
(0.0107296 0 0.000631315)
(0.0109778 0 0.000664961)
(0.0112219 0 0.000696709)
(0.0114656 0 0.000725664)
(0.0117109 0 0.000750816)
(0.0119579 0 0.000771118)
(0.0122038 0 0.000785653)
(0.0124426 0 0.000793874)
(0.0126649 0 0.000795939)
(0.0128584 0 0.000793081)
(0.013009 0 0.000787895)
(0.013105 0 0.000784203)
(0.0131431 0 0.00078575)
(0.0131397 0 0.00079214)
(0.0007029 0 2.77511e-05)
(0.00202774 0 8.0468e-05)
(0.00320396 0 0.000128389)
(0.00424764 0 0.000172632)
(0.00517324 0 0.000214089)
(0.00599375 0 0.000253476)
(0.00672087 0 0.000291369)
(0.00736528 0 0.000328227)
(0.00793674 0 0.000364412)
(0.00844427 0 0.000400197)
(0.00889626 0 0.000435773)
(0.00930055 0 0.000471251)
(0.00966452 0 0.000506655)
(0.00999511 0 0.000541917)
(0.0102989 0 0.000576868)
(0.0105818 0 0.000611224)
(0.0108494 0 0.000644582)
(0.0111065 0 0.000676413)
(0.0113568 0 0.000706072)
(0.0116028 0 0.000732836)
(0.0118455 0 0.000755962)
(0.0120835 0 0.000774794)
(0.0123134 0 0.000788939)
(0.012529 0 0.000798474)
(0.0127218 0 0.000804197)
(0.0128818 0 0.000807841)
(0.0129993 0 0.000812092)
(0.0130679 0 0.000820094)
(0.0130897 0 0.000833717)
(0.0130815 0 0.00084902)
(0.00114926 0 -0.00033109)
(0.00183278 0 -0.000282696)
(0.00279347 0 -0.000223384)
(0.00379899 0 -0.000170002)
(0.00474574 0 -0.000126147)
(0.00559271 0 -9.15372e-05)
(0.00632841 0 -6.48201e-05)
(0.00695483 0 -4.44875e-05)
(0.00747937 0 -2.91769e-05)
(0.00791087 0 -1.77527e-05)
(0.00825791 0 -9.30532e-06)
(0.00852764 0 -3.12388e-06)
(0.00872575 0 1.33939e-06)
(0.00885644 0 4.50283e-06)
(0.0089225 0 6.68381e-06)
(0.00892538 0 8.12206e-06)
(0.00886538 0 8.998e-06)
(0.00874169 0 9.44691e-06)
(0.00855248 0 9.56977e-06)
(0.00829498 0 9.44142e-06)
(0.00796549 0 9.11672e-06)
(0.00755938 0 8.63511e-06)
(0.00707115 0 8.02399e-06)
(0.00649435 0 7.30112e-06)
(0.00582158 0 6.47645e-06)
(0.00504448 0 5.55323e-06)
(0.00415365 0 4.52877e-06)
(0.00313869 0 3.3949e-06)
(0.00198812 0 2.13805e-06)
(0.00068929 0 7.39015e-07)
(0.00222656 0 -0.000885007)
(0.00274397 0 -0.000767532)
(0.00351643 0 -0.000615699)
(0.00435951 0 -0.0004737)
(0.00517621 0 -0.000354129)
(0.00592219 0 -0.000258214)
(0.00658063 0 -0.000183333)
(0.00714836 0 -0.000125878)
(0.00762844 0 -8.23461e-05)
(0.00802624 0 -4.97082e-05)
(0.00834763 0 -2.54846e-05)
(0.00859779 0 -7.70817e-06)
(0.00878086 0 5.15299e-06)
(0.00889992 0 1.42787e-05)
(0.00895692 0 2.05699e-05)
(0.00895272 0 2.47109e-05)
(0.00888712 0 2.72188e-05)
(0.008759 0 2.84832e-05)
(0.00856625 0 2.87954e-05)
(0.00830592 0 2.83722e-05)
(0.00797414 0 2.73727e-05)
(0.00756621 0 2.59114e-05)
(0.00707649 0 2.40678e-05)
(0.00649849 0 2.18933e-05)
(0.00582475 0 1.94166e-05)
(0.00504686 0 1.66465e-05)
(0.00415538 0 1.35743e-05)
(0.00313988 0 1.01751e-05)
(0.00198883 0 6.4079e-06)
(0.000689533 0 2.21485e-06)
(0.00395789 0 -0.00120328)
(0.00427957 0 -0.0010657)
(0.00478162 0 -0.000873687)
(0.00536553 0 -0.000683725)
(0.00596244 0 -0.000517438)
(0.0065318 0 -0.000380354)
(0.00705207 0 -0.000271175)
(0.00751316 0 -0.000186134)
(0.00791144 0 -0.000120944)
(0.00824659 0 -7.16181e-05)
(0.00851994 0 -3.47433e-05)
(0.00873314 0 -7.53346e-06)
(0.00888763 0 1.22284e-05)
(0.00898448 0 2.62782e-05)
(0.00902412 0 3.59595e-05)
(0.00900624 0 4.23037e-05)
(0.00892983 0 4.60979e-05)
(0.00879309 0 4.7939e-05)
(0.00859345 0 4.82768e-05)
(0.00832758 0 4.74473e-05)
(0.00799134 0 4.56983e-05)
(0.00757979 0 4.32085e-05)
(0.00708715 0 4.01019e-05)
(0.00650677 0 3.64583e-05)
(0.0058311 0 3.23212e-05)
(0.00505164 0 2.77024e-05)
(0.00415888 0 2.25856e-05)
(0.00314228 0 1.69278e-05)
(0.00199026 0 1.06597e-05)
(0.000690017 0 3.68435e-06)
(0.00600161 0 -0.0012884)
(0.00613025 0 -0.00116076)
(0.00634959 0 -0.0009718)
(0.00664478 0 -0.000774528)
(0.0069842 0 -0.000594383)
(0.0073386 0 -0.00044092)
(0.00768567 0 -0.000315515)
(0.00800992 0 -0.000215822)
(0.00830118 0 -0.000138141)
(0.00855304 0 -7.85854e-05)
(0.00876161 0 -3.35984e-05)
(0.00892436 0 -1.39193e-07)
(0.00903944 0 2.42917e-05)
(0.00910536 0 4.17026e-05)
(0.00912061 0 5.368e-05)
(0.0090834 0 6.14629e-05)
(0.0089916 0 6.60101e-05)
(0.00884253 0 6.80574e-05)
(0.00863299 0 6.81649e-05)
(0.00835912 0 6.67542e-05)
(0.00801641 0 6.41378e-05)
(0.0075996 0 6.05419e-05)
(0.0071027 0 5.61233e-05)
(0.00651886 0 5.0982e-05)
(0.00584038 0 4.51705e-05)
(0.00505862 0 3.86998e-05)
(0.00416396 0 3.15429e-05)
(0.00314577 0 2.3637e-05)
(0.00199234 0 1.48831e-05)
(0.000690717 0 5.14384e-06)
(0.00805727 0 -0.00118453)
(0.00801994 0 -0.00108183)
(0.00799031 0 -0.000922866)
(0.00801884 0 -0.000748516)
(0.00810914 0 -0.000582255)
(0.00824689 0 -0.000435353)
(0.00841319 0 -0.000311605)
(0.00859028 0 -0.000210718)
(0.00876348 0 -0.000130458)
(0.00892138 0 -6.78755e-05)
(0.00905546 0 -1.99625e-05)
(0.00915919 0 1.60329e-05)
(0.00922746 0 4.24853e-05)
(0.00925618 0 6.13753e-05)
(0.00924175 0 7.43149e-05)
(0.0091808 0 8.25938e-05)
(0.00906991 0 8.72301e-05)
(0.00890545 0 8.90184e-05)
(0.00868345 0 8.85717e-05)
(0.00839947 0 8.63567e-05)
(0.00804853 0 8.27216e-05)
(0.00762503 0 7.79196e-05)
(0.00712267 0 7.21257e-05)
(0.00653439 0 6.54496e-05)
(0.00585228 0 5.79457e-05)
(0.00506756 0 4.96187e-05)
(0.00417047 0 4.04279e-05)
(0.00315022 0 3.02877e-05)
(0.00199498 0 1.90681e-05)
(0.000691605 0 6.58983e-06)
(0.00989724 0 -0.00094585)
(0.00973709 0 -0.000874192)
(0.0095192 0 -0.000758907)
(0.00933604 0 -0.000625791)
(0.00921828 0 -0.000492509)
(0.00916633 0 -0.000369558)
(0.00916747 0 -0.000262078)
(0.00920498 0 -0.000171668)
(0.00926244 0 -9.78441e-05)
(0.00932553 0 -3.90457e-05)
(0.00938252 0 6.72588e-06)
(0.00942382 0 4.15287e-05)
(0.00944163 0 6.72814e-05)
(0.00942955 0 8.56774e-05)
(0.0093821 0 9.81562e-05)
(0.00929437 0 0.00010591)
(0.00916173 0 0.000109907)
(0.00897956 0 0.00011092)
(0.00874311 0 0.000109557)
(0.00844732 0 0.000106286)
(0.00808671 0 0.00010146)
(0.0076553 0 9.53376e-05)
(0.00714646 0 8.80956e-05)
(0.00655288 0 7.98424e-05)
(0.00586645 0 7.06258e-05)
(0.00507819 0 6.04387e-05)
(0.00417818 0 4.92221e-05)
(0.00315549 0 3.68654e-05)
(0.0019981 0 2.32051e-05)
(0.000692649 0 8.01893e-06)
(0.0113777 0 -0.000623048)
(0.0111453 0 -0.000584743)
(0.0108114 0 -0.000518313)
(0.0104875 0 -0.000434837)
(0.0102209 0 -0.000344812)
(0.010024 0 -0.000256407)
(0.0098915 0 -0.000175008)
(0.00981027 0 -0.000103551)
(0.00976492 0 -4.31458e-05)
(0.0097406 0 6.30741e-06)
(0.00972419 0 4.56141e-05)
(0.00970437 0 7.59232e-05)
(0.00967155 0 9.849e-05)
(0.00961768 0 0.00011454)
(0.00953581 0 0.000125192)
(0.00941973 0 0.000131422)
(0.00926374 0 0.000134054)
(0.00906234 0 0.000133771)
(0.00881003 0 0.00013112)
(0.00850117 0 0.000126532)
(0.00812979 0 0.000120337)
(0.0076895 0 0.000112775)
(0.00717337 0 0.00010401)
(0.00657379 0 9.41359e-05)
(0.00588245 0 8.31866e-05)
(0.00509018 0 7.11372e-05)
(0.00418687 0 5.79062e-05)
(0.0031614 0 4.33549e-05)
(0.00200158 0 2.72844e-05)
(0.000693812 0 9.42771e-06)
(0.0124357 0 -0.000264624)
(0.0121811 0 -0.000258646)
(0.0118027 0 -0.000239797)
(0.0114112 0 -0.000206394)
(0.0110602 0 -0.000162111)
(0.0107703 0 -0.00011223)
(0.0105436 0 -6.16032e-05)
(0.0103721 0 -1.38491e-05)
(0.0102437 0 2.8753e-05)
(0.0101452 0 6.50514e-05)
(0.0100638 0 9.47218e-05)
(0.00998795 0 0.000117978)
(0.00990733 0 0.000135343)
(0.00981299 0 0.00014749)
(0.00969705 0 0.000155128)
(0.00955239 0 0.000158942)
(0.0093725 0 0.00015955)
(0.00915113 0 0.000157486)
(0.00888217 0 0.000153198)
(0.00855944 0 0.000147047)
(0.00817653 0 0.000139311)
(0.00772668 0 0.000130194)
(0.00720263 0 0.000119833)
(0.00659654 0 0.000108298)
(0.00589984 0 9.55991e-05)
(0.00510317 0 8.16888e-05)
(0.00419625 0 6.64591e-05)
(0.00316776 0 4.97401e-05)
(0.00200531 0 3.12956e-05)
(0.000695055 0 1.08126e-05)
(0.0130776 0 8.42539e-05)
(0.0128442 0 6.28856e-05)
(0.0124833 0 4.1172e-05)
(0.0120888 0 3.06089e-05)
(0.0117126 0 3.30833e-05)
(0.0113799 0 4.61327e-05)
(0.011099 0 6.59376e-05)
(0.010868 0 8.88273e-05)
(0.0106793 0 0.000111895)
(0.0105228 0 0.00013313)
(0.0103878 0 0.00015132)
(0.0102636 0 0.000165874)
(0.0101402 0 0.000176635)
(0.0100085 0 0.000183726)
(0.00986031 0 0.000187433)
(0.00968803 0 0.000188116)
(0.00948459 0 0.000186151)
(0.00924325 0 0.000181896)
(0.00895741 0 0.000175669)
(0.00862047 0 0.000167736)
(0.00822563 0 0.000158308)
(0.0077658 0 0.000147536)
(0.00723345 0 0.000135517)
(0.00662047 0 0.000122287)
(0.0059181 0 0.000107829)
(0.00511678 0 9.20646e-05)
(0.00420603 0 7.48574e-05)
(0.00317437 0 5.60036e-05)
(0.00200916 0 3.52278e-05)
(0.000696335 0 1.21697e-05)
(0.013367 0 0.000386056)
(0.013186 0 0.000346126)
(0.012887 0 0.000295646)
(0.0125378 0 0.000252143)
(0.0121829 0 0.000221451)
(0.0118488 0 0.000203614)
(0.0115488 0 0.000196188)
(0.0112865 0 0.00019602)
(0.0110597 0 0.000200147)
(0.0108622 0 0.000206169)
(0.010686 0 0.000212331)
(0.0105225 0 0.000217467)
(0.0103627 0 0.00022088)
(0.0101981 0 0.000222226)
(0.0100207 0 0.000221401)
(0.00982263 0 0.000218453)
(0.0095968 0 0.000213515)
(0.00933613 0 0.000206758)
(0.00903371 0 0.000198357)
(0.00868262 0 0.000188471)
(0.00827578 0 0.00017723)
(0.00780582 0 0.000164724)
(0.00726498 0 0.000150999)
(0.00664494 0 0.000136053)
(0.00593673 0 0.000119834)
(0.0051306 0 0.000102231)
(0.00421592 0 8.30751e-05)
(0.003181 0 6.21263e-05)
(0.00201301 0 3.90692e-05)
(0.000697608 0 1.34951e-05)
(0.0134074 0 0.000616383)
(0.0132925 0 0.000569051)
(0.0130774 0 0.000504284)
(0.0128006 0 0.000441461)
(0.012496 0 0.000388788)
(0.0121892 0 0.000348491)
(0.0118963 0 0.000319746)
(0.0116259 0 0.000300391)
(0.0113802 0 0.000287919)
(0.0111572 0 0.000279996)
(0.0109521 0 0.00027469)
(0.0107586 0 0.000270534)
(0.0105694 0 0.000266484)
(0.010377 0 0.000261852)
(0.0101739 0 0.000256223)
(0.00995269 0 0.000249379)
(0.00970622 0 0.000241233)
(0.00942737 0 0.000231777)
(0.0091091 0 0.000221047)
(0.0087443 0 0.000209093)
(0.00832569 0 0.000195958)
(0.00784571 0 0.000181665)
(0.00729639 0 0.000166207)
(0.00666926 0 0.000149539)
(0.00595517 0 0.000131569)
(0.00514422 0 0.000112152)
(0.00422559 0 9.10835e-05)
(0.00318744 0 6.80874e-05)
(0.00201672 0 4.28067e-05)
(0.000698828 0 1.47842e-05)
(0.013317 0 0.000768382)
(0.0132632 0 0.000724537)
(0.0131304 0 0.000659311)
(0.0129311 0 0.000590335)
(0.0126879 0 0.000526934)
(0.012423 0 0.000473174)
(0.0121537 0 0.000429932)
(0.0118911 0 0.000396321)
(0.0116413 0 0.000370651)
(0.0114057 0 0.000351017)
(0.0111825 0 0.000335631)
(0.0109678 0 0.000322986)
(0.0107561 0 0.000311889)
(0.0105413 0 0.000301454)
(0.0103166 0 0.000291057)
(0.0100752 0 0.000280278)
(0.00981028 0 0.000268853)
(0.00951482 0 0.000256622)
(0.00918178 0 0.000243495)
(0.00880401 0 0.000229417)
(0.00837412 0 0.000214351)
(0.00788444 0 0.000198252)
(0.00732687 0 0.000181058)
(0.00669278 0 0.000162678)
(0.0059729 0 0.000142981)
(0.0051572 0 0.000121786)
(0.00423473 0 9.88514e-05)
(0.00319345 0 7.38646e-05)
(0.00202014 0 4.64269e-05)
(0.000699948 0 1.60325e-05)
(0.0131998 0 0.000854046)
(0.0131863 0 0.000820463)
(0.0131156 0 0.000763981)
(0.0129814 0 0.000698517)
(0.0127957 0 0.000633469)
(0.0125755 0 0.000574159)
(0.0123366 0 0.000522916)
(0.0120913 0 0.000480125)
(0.0118475 0 0.000445056)
(0.011609 0 0.000416447)
(0.0113765 0 0.000392881)
(0.0111482 0 0.000373016)
(0.0109204 0 0.00035569)
(0.0106883 0 0.000339958)
(0.0104461 0 0.000325088)
(0.0101878 0 0.000310538)
(0.00990683 0 0.000295917)
(0.00959658 0 0.00028095)
(0.00925013 0 0.000265441)
(0.00886038 0 0.00024925)
(0.00841994 0 0.000232261)
(0.00792107 0 0.00021437)
(0.0073556 0 0.000195462)
(0.00671483 0 0.000175401)
(0.00598939 0 0.000154016)
(0.00516914 0 0.00013109)
(0.004243 0 0.000106346)
(0.00319881 0 7.94342e-05)
(0.00202314 0 4.99151e-05)
(0.000700918 0 1.72349e-05)
(0.0131128 0 0.000898006)
(0.0131165 0 0.000873993)
(0.0130812 0 0.000828461)
(0.0129915 0 0.000771153)
(0.0128506 0 0.000710237)
(0.0126696 0 0.000651253)
(0.0124613 0 0.000597367)
(0.012237 0 0.000549946)
(0.0120048 0 0.000509144)
(0.01177 0 0.000474392)
(0.011535 0 0.000444758)
(0.0112994 0 0.000419203)
(0.0110611 0 0.000396724)
(0.0108164 0 0.000376432)
(0.0105607 0 0.000357586)
(0.0102886 0 0.000339592)
(0.00999413 0 0.000321989)
(0.00967108 0 0.000304426)
(0.00931276 0 0.000286631)
(0.0089122 0 0.000268393)
(0.00846208 0 0.000249537)
(0.00795469 0 0.000229902)
(0.00738185 0 0.000209326)
(0.00673481 0 0.000187634)
(0.00600413 0 0.000164615)
(0.00517962 0 0.000140019)
(0.00425008 0 0.000113533)
(0.00320326 0 8.4772e-05)
(0.00202557 0 5.32567e-05)
(0.000701687 0 1.83865e-05)
(0.0130658 0 0.000918872)
(0.0130722 0 0.000899731)
(0.0130505 0 0.000863204)
(0.0129851 0 0.000815145)
(0.0128741 0 0.0007613)
(0.0127234 0 0.00070642)
(0.0125417 0 0.000653821)
(0.0123381 0 0.000605432)
(0.0121201 0 0.000562079)
(0.011893 0 0.000523813)
(0.0116602 0 0.000490192)
(0.0114221 0 0.000460546)
(0.0111779 0 0.00043411)
(0.0109248 0 0.000410133)
(0.0106591 0 0.000387939)
(0.0103763 0 0.000366947)
(0.0100709 0 0.000346678)
(0.00973706 0 0.000326742)
(0.00936849 0 0.000306822)
(0.0089584 0 0.000286659)
(0.00849962 0 0.000266029)
(0.00798451 0 0.00024473)
(0.00740492 0 0.00022256)
(0.00675211 0 0.000199304)
(0.00601663 0 0.000174722)
(0.00518823 0 0.000148528)
(0.00425567 0 0.000120378)
(0.00320659 0 8.98537e-05)
(0.00202727 0 5.64366e-05)
(0.000702203 0 1.94821e-05)
(0.00070337 0 2.89624e-05)
(0.00202933 0 8.39721e-05)
(0.00320714 0 0.000133954)
(0.00425317 0 0.000180021)
(0.00518194 0 0.000223101)
(0.0060065 0 0.000263919)
(0.00673859 0 0.000303056)
(0.0073889 0 0.000340967)
(0.00796718 0 0.000378004)
(0.00848242 0 0.000414427)
(0.00894289 0 0.000450406)
(0.00935631 0 0.000486028)
(0.00972984 0 0.000521292)
(0.0100701 0 0.000556107)
(0.0103834 0 0.00059029)
(0.010675 0 0.000623557)
(0.01095 0 0.000655529)
(0.0112124 0 0.00068574)
(0.011465 0 0.000713659)
(0.0117095 0 0.000738739)
(0.0119461 0 0.000760487)
(0.0121728 0 0.000778567)
(0.0123862 0 0.000792948)
(0.0125805 0 0.000804048)
(0.0127491 0 0.000812871)
(0.0128848 0 0.000821043)
(0.012982 0 0.000830641)
(0.0130384 0 0.000843676)
(0.0130588 0 0.000861186)
(0.0130548 0 0.000881692)
(0.000703476 0 3.00797e-05)
(0.00202993 0 8.71993e-05)
(0.00320879 0 0.000139075)
(0.00425659 0 0.000186838)
(0.00518809 0 0.00023139)
(0.00601625 0 0.000273489)
(0.00675283 0 0.000313716)
(0.00740848 0 0.000352521)
(0.00799291 0 0.00039025)
(0.00851502 0 0.000427146)
(0.00898298 0 0.000463366)
(0.00940427 0 0.000498977)
(0.00978583 0 0.000533963)
(0.010134 0 0.000568224)
(0.0104545 0 0.000601576)
(0.0107523 0 0.000633755)
(0.0110319 0 0.000664426)
(0.0112965 0 0.000693198)
(0.0115484 0 0.000719661)
(0.0117888 0 0.000743432)
(0.0120171 0 0.000764222)
(0.0122317 0 0.000781919)
(0.0124292 0 0.00079669)
(0.0126051 0 0.000809059)
(0.0127546 0 0.00081994)
(0.0128733 0 0.000830558)
(0.0129587 0 0.000842227)
(0.0130112 0 0.00085578)
(0.0130357 0 0.000871024)
(0.0130414 0 0.000886956)
(0.000703123 0 3.10885e-05)
(0.00202924 0 9.01144e-05)
(0.00320854 0 0.000143683)
(0.00425755 0 0.000192962)
(0.00519108 0 0.000238851)
(0.00602228 0 0.000282066)
(0.00676273 0 0.000323221)
(0.00742302 0 0.000362761)
(0.0080128 0 0.000401022)
(0.00854086 0 0.000438238)
(0.00901518 0 0.000474554)
(0.00944303 0 0.000510025)
(0.00983104 0 0.000544628)
(0.0101852 0 0.000578263)
(0.0105109 0 0.00061076)
(0.0108128 0 0.000641884)
(0.0110945 0 0.000671354)
(0.011359 0 0.000698861)
(0.0116082 0 0.000724103)
(0.0118427 0 0.000746833)
(0.012062 0 0.000766909)
(0.0122646 0 0.000784355)
(0.012448 0 0.000799413)
(0.0126086 0 0.00081257)
(0.0127438 0 0.00082456)
(0.0128507 0 0.000836176)
(0.0129287 0 0.000848068)
(0.0129797 0 0.000860475)
(0.0130082 0 0.000873114)
(0.0130203 0 0.000885357)
(0.000702239 0 3.19812e-05)
(0.00202706 0 9.26945e-05)
(0.003206 0 0.000147762)
(0.0042556 0 0.000198352)
(0.00519053 0 0.000245401)
(0.00602396 0 0.000289607)
(0.0067676 0 0.000331527)
(0.00743177 0 0.000371647)
(0.00802601 0 0.000410293)
(0.00855903 0 0.00044769)
(0.0090386 0 0.000483977)
(0.00947171 0 0.000519202)
(0.00986471 0 0.000553342)
(0.0102233 0 0.000586305)
(0.0105524 0 0.000617942)
(0.0108563 0 0.000648058)
(0.0111384 0 0.000676425)
(0.0114011 0 0.00070281)
(0.0116461 0 0.000727006)
(0.0118739 0 0.000748865)
(0.012084 0 0.000768336)
(0.0122758 0 0.000785536)
(0.0124471 0 0.00080069)
(0.0125955 0 0.000814177)
(0.0127192 0 0.00082651)
(0.0128175 0 0.000838167)
(0.0128908 0 0.000849471)
(0.0129411 0 0.000860457)
(0.012972 0 0.000870833)
(0.0129878 0 0.000879984)
(0.000700752 0 3.27506e-05)
(0.00202319 0 9.49199e-05)
(0.00320086 0 0.00015128)
(0.00425024 0 0.000202999)
(0.00518595 0 0.000251003)
(0.0060209 0 0.000296028)
(0.00676678 0 0.000338603)
(0.00743401 0 0.000379149)
(0.00803177 0 0.000418042)
(0.00856876 0 0.000455491)
(0.0090525 0 0.000491642)
(0.00948963 0 0.000526537)
(0.00988624 0 0.000560153)
(0.0102477 0 0.000592417)
(0.0105787 0 0.000623206)
(0.0108832 0 0.000652363)
(0.0111642 0 0.000679714)
(0.011424 0 0.000705092)
(0.011664 0 0.000728363)
(0.0118849 0 0.000749454)
(0.0120867 0 0.000768384)
(0.0122685 0 0.00078525)
(0.0124291 0 0.000800247)
(0.0125673 0 0.000813671)
(0.0126824 0 0.000825862)
(0.0127743 0 0.000837103)
(0.012844 0 0.000847537)
(0.0128935 0 0.000857113)
(0.0129257 0 0.000865547)
(0.0129436 0 0.000872298)
(0.000698598 0 3.33903e-05)
(0.00201744 0 9.6773e-05)
(0.00319283 0 0.000154212)
(0.00424111 0 0.000206864)
(0.00517676 0 0.000255652)
(0.00601258 0 0.000301296)
(0.00675992 0 0.000344365)
(0.00742913 0 0.000385242)
(0.00802938 0 0.000424252)
(0.00856937 0 0.000461633)
(0.00905628 0 0.000497561)
(0.00949627 0 0.000532056)
(0.00989526 0 0.000565105)
(0.0102584 0 0.000596657)
(0.01059 0 0.000626615)
(0.0108938 0 0.000654862)
(0.0111727 0 0.00068127)
(0.0114288 0 0.000705727)
(0.0116635 0 0.000728152)
(0.0118776 0 0.000748522)
(0.0120715 0 0.000766892)
(0.0122445 0 0.00078332)
(0.0123961 0 0.000797971)
(0.012526 0 0.000811084)
(0.0126341 0 0.000822864)
(0.012721 0 0.000833467)
(0.0127879 0 0.00084295)
(0.0128365 0 0.000851229)
(0.0128691 0 0.000858052)
(0.012888 0 0.000863009)
(0.000695723 0 3.38948e-05)
(0.00200967 0 9.8238e-05)
(0.00318168 0 0.000156533)
(0.00422789 0 0.000209921)
(0.00516259 0 0.000259311)
(0.0059984 0 0.000305416)
(0.00674651 0 0.000348788)
(0.00741689 0 0.000389843)
(0.00801836 0 0.00042886)
(0.00856021 0 0.000466128)
(0.0090495 0 0.000501759)
(0.0094913 0 0.000535797)
(0.00989155 0 0.000568243)
(0.0102552 0 0.000599073)
(0.0105864 0 0.000628219)
(0.0108887 0 0.000655597)
(0.0111648 0 0.000681122)
(0.0114168 0 0.000704722)