/*--------------------------------*- C++ -*----------------------------------*\
| =========                 |                                                 |
| \\      /  F ield         | OpenFOAM: The Open Source CFD Toolbox           |
|  \\    /   O peration     | Version:  dev                                   |
|   \\  /    A nd           | Web:      www.OpenFOAM.org                      |
|    \\/     M anipulation  |                                                 |
\*---------------------------------------------------------------------------*/
FoamFile
{
    version     2.0;
    format      ascii;
    class       volVectorField;
    location    "0.19";
    object      cellDisplacement;
}
// * * * * * * * * * * * * * * * * * * * * * * * * * * * * * * * * * * * * * //

dimensions      [0 1 0 0 0 0 0];

internalField   nonuniform List<vector> 
2790
(
(0.000723116 0 2.72027e-06)
(0.00208392 0 7.89701e-06)
(0.00328646 0 1.26298e-05)
(0.00434521 0 1.70416e-05)
(0.00527338 0 2.12333e-05)
(0.00608285 0 2.5289e-05)
(0.00678421 0 2.9281e-05)
(0.00738686 0 3.32734e-05)
(0.00789907 0 3.73251e-05)
(0.00832808 0 4.14935e-05)
(0.00868017 0 4.58366e-05)
(0.00896066 0 5.04167e-05)
(0.00917397 0 5.53041e-05)
(0.00932364 0 6.05822e-05)
(0.00941227 0 6.63539e-05)
(0.00944155 0 7.27514e-05)
(0.00941211 0 7.995e-05)
(0.00932347 0 8.81888e-05)
(0.00917387 0 9.78022e-05)
(0.00896 0 0.000109268)
(0.0086768 0 0.000123279)
(0.00831702 0 0.000140858)
(0.00787102 0 0.000163525)
(0.00732652 0 0.00019355)
(0.0066688 0 0.000234301)
(0.00588274 0 0.000290667)
(0.00495865 0 0.000369361)
(0.00390891 0 0.000478186)
(0.00281354 0 0.00062044)
(0.00196796 0 0.000769746)
(0.000723234 0 8.15186e-06)
(0.00208431 0 2.36653e-05)
(0.00328718 0 3.78484e-05)
(0.00434632 0 5.1069e-05)
(0.00527501 0 6.36289e-05)
(0.00608514 0 7.578e-05)
(0.00678732 0 8.77379e-05)
(0.00739099 0 9.96938e-05)
(0.00790447 0 0.000111824)
(0.00833507 0 0.000124298)
(0.00868912 0 0.000137288)
(0.00897205 0 0.000150978)
(0.0091884 0 0.000165574)
(0.00934188 0 0.000181319)
(0.00943532 0 0.000198511)
(0.00947072 0 0.000217532)
(0.00944914 0 0.000238881)
(0.00937072 0 0.000263234)
(0.00923453 0 0.00029153)
(0.00903853 0 0.000325089)
(0.00877947 0 0.000365808)
(0.00845282 0 0.000416437)
(0.008053 0 0.000480992)
(0.00757387 0 0.000565321)
(0.00701007 0 0.000677821)
(0.00636054 0 0.000830079)
(0.00563633 0 0.00103658)
(0.00487732 0 0.00131065)
(0.00418513 0 0.00164717)
(0.00378287 0 0.00196421)
(0.000723488 0 1.35532e-05)
(0.00208511 0 3.9346e-05)
(0.00328863 0 6.29263e-05)
(0.00434859 0 8.49037e-05)
(0.00527829 0 0.000105779)
(0.0060897 0 0.000125968)
(0.00679348 0 0.000145828)
(0.00739916 0 0.000165674)
(0.00791514 0 0.000185795)
(0.00834883 0 0.000206469)
(0.00870672 0 0.000227974)
(0.00899441 0 0.000250606)
(0.00921669 0 0.000274694)
(0.00937758 0 0.000300619)
(0.00948037 0 0.000328845)
(0.0095276 0 0.000359953)
(0.00952115 0 0.000394697)
(0.00946226 0 0.000434075)
(0.00935155 0 0.000479441)
(0.00918917 0 0.000532661)
(0.00897503 0 0.000596335)
(0.00870915 0 0.000674109)
(0.00839257 0 0.000771093)
(0.00802873 0 0.000894346)
(0.00762588 0 0.00105329)
(0.00720132 0 0.00125956)
(0.00678779 0 0.00152483)
(0.00644092 0 0.00185316)
(0.00623912 0 0.00221927)
(0.00625078 0 0.00251712)
(0.000723869 0 1.88986e-05)
(0.00208631 0 5.48636e-05)
(0.00329079 0 8.77403e-05)
(0.00435193 0 0.000118376)
(0.00528312 0 0.000147464)
(0.0060964 0 0.000175582)
(0.00680253 0 0.000203223)
(0.00741114 0 0.00023082)
(0.00793076 0 0.00025877)
(0.00836896 0 0.000287447)
(0.00873242 0 0.000317228)
(0.009027 0 0.000348502)
(0.00925784 0 0.000381699)
(0.00942937 0 0.000417307)
(0.00954548 0 0.000455906)
(0.00960948 0 0.000498211)
(0.00962429 0 0.000545118)
(0.00959254 0 0.000597784)
(0.0095168 0 0.000657724)
(0.00939986 0 0.000726938)
(0.00924529 0 0.000808084)
(0.00905816 0 0.00090467)
(0.00884639 0 0.00102125)
(0.00862262 0 0.00116349)
(0.00840671 0 0.0013379)
(0.00822884 0 0.00155049)
(0.00813133 0 0.00180336)
(0.00816356 0 0.00208679)
(0.00835468 0 0.0023644)
(0.0086351 0 0.00255261)
(0.000724371 0 2.41605e-05)
(0.00208787 0 7.01374e-05)
(0.00329359 0 0.000112159)
(0.00435624 0 0.000151303)
(0.00528935 0 0.00018845)
(0.00610504 0 0.000224333)
(0.0068142 0 0.000259574)
(0.00742658 0 0.000294716)
(0.00795087 0 0.000330254)
(0.00839483 0 0.000366649)
(0.00876538 0 0.000404358)
(0.0090687 0 0.000443847)
(0.00931031 0 0.000485616)
(0.00949517 0 0.000530221)
(0.00962781 0 0.000578303)
(0.00971241 0 0.000630626)
(0.00975303 0 0.000688111)
(0.00975378 0 0.000751895)
(0.00971917 0 0.000823388)
(0.00965455 0 0.000904332)
(0.00956677 0 0.000996851)
(0.00946509 0 0.00110345)
(0.00936255 0 0.00122687)
(0.00927753 0 0.00136971)
(0.00923533 0 0.00153345)
(0.00926885 0 0.00171656)
(0.00941542 0 0.00191126)
(0.00970315 0 0.00209893)
(0.0101137 0 0.00224681)
(0.0105017 0 0.00231603)
(0.000724974 0 2.93114e-05)
(0.00208974 0 8.50863e-05)
(0.00329692 0 0.000136051)
(0.00436139 0 0.000183503)
(0.00529677 0 0.000228505)
(0.00611535 0 0.000271934)
(0.00682812 0 0.000314533)
(0.00744499 0 0.00035695)
(0.00797482 0 0.000399761)
(0.0084256 0 0.000443506)
(0.00880451 0 0.000488701)
(0.00911806 0 0.000535866)
(0.00937218 0 0.000585541)
(0.00957238 0 0.000638308)
(0.00972385 0 0.000694814)
(0.00983163 0 0.000755788)
(0.00990085 0 0.000822069)
(0.00993695 0 0.000894619)
(0.00994609 0 0.000974531)
(0.00993562 0 0.001063)
(0.00991469 0 0.00116125)
(0.00989499 0 0.00127032)
(0.00989177 0 0.00139067)
(0.00992448 0 0.00152148)
(0.0100168 0 0.00165942)
(0.010195 0 0.00179698)
(0.0104808 0 0.00192061)
(0.0108768 0 0.00201051)
(0.0113339 0 0.00204667)
(0.0116977 0 0.00203147)
(0.000725654 0 3.43248e-05)
(0.00209185 0 9.96328e-05)
(0.00330067 0 0.000159289)
(0.00436718 0 0.000214804)
(0.00530515 0 0.000267406)
(0.00612698 0 0.000318112)
(0.00684385 0 0.000367777)
(0.0074658 0 0.000417137)
(0.00800188 0 0.000466846)
(0.0084603 0 0.000517499)
(0.00884852 0 0.00056966)
(0.00917338 0 0.000623876)
(0.00944123 0 0.000680699)
(0.00965807 0 0.000740698)
(0.00982972 0 0.00080447)
(0.00996195 0 0.000872651)
(0.0100608 0 0.000945909)
(0.0101327 0 0.00102493)
(0.010185 0 0.00111036)
(0.0102263 0 0.00120273)
(0.0102666 0 0.00130225)
(0.0103182 0 0.0014085)
(0.0103956 0 0.00151994)
(0.0105154 0 0.00163313)
(0.0106945 0 0.00174174)
(0.0109467 0 0.00183558)
(0.0112753 0 0.00190044)
(0.0116606 0 0.00192087)
(0.0120423 0 0.00189006)
(0.0123013 0 0.00183371)
(0.000726377 0 3.91763e-05)
(0.00209408 0 0.000113706)
(0.00330467 0 0.00018176)
(0.00437338 0 0.000245046)
(0.00531416 0 0.000304954)
(0.00613955 0 0.000362625)
(0.00686088 0 0.000419016)
(0.00748834 0 0.000474943)
(0.00803119 0 0.000531122)
(0.00849785 0 0.000588191)
(0.00889602 0 0.00064674)
(0.00923287 0 0.000707326)
(0.00951512 0 0.000770485)
(0.00974921 0 0.000836738)
(0.00994145 0 0.000906601)
(0.0100982 0 0.000980564)
(0.0102262 0 0.00105908)
(0.0103324 0 0.0011425)
(0.0104248 0 0.00123102)
(0.0105122 0 0.00132451)
(0.0106047 0 0.0014223)
(0.0107132 0 0.00152286)
(0.0108497 0 0.00162336)
(0.0110256 0 0.0017191)
(0.0112491 0 0.001803)
(0.0115214 0 0.00186551)
(0.01183 0 0.00189564)
(0.0121419 0 0.00188465)
(0.0124004 0 0.00183472)
(0.0125373 0 0.0017757)
(0.000727106 0 4.38445e-05)
(0.00209635 0 0.000127243)
(0.00330875 0 0.000203362)
(0.00437975 0 0.000274094)
(0.00532348 0 0.000340975)
(0.00615262 0 0.000405264)
(0.00687865 0 0.000468006)
(0.00751192 0 0.000530087)
(0.00806187 0 0.00059227)
(0.0085371 0 0.000655225)
(0.00894557 0 0.000719553)
(0.0092947 0 0.0007858)
(0.00959152 0 0.000854464)
(0.00984281 0 0.000926001)
(0.0100553 0 0.00100081)
(0.0102356 0 0.00107923)
(0.0103909 0 0.00116147)
(0.0105285 0 0.00124757)
(0.0106562 0 0.00133731)
(0.0107826 0 0.00143001)
(0.0109166 0 0.00152442)
(0.0110673 0 0.00161836)
(0.0112429 0 0.00170851)
(0.0114495 0 0.0017902)
(0.0116878 0 0.00185735)
(0.0119499 0 0.00190319)
(0.0122147 0 0.0019218)
(0.012446 0 0.00191133)
(0.0125983 0 0.00187872)
(0.0126447 0 0.00184536)
(0.0007278 0 4.83103e-05)
(0.00209853 0 0.000140189)
(0.00331271 0 0.000224007)
(0.00438603 0 0.000301828)
(0.00533275 0 0.000375323)
(0.00616574 0 0.000445853)
(0.00689659 0 0.000514544)
(0.00753582 0 0.000582339)
(0.008093 0 0.000650038)
(0.00857692 0 0.000718329)
(0.00899573 0 0.000787812)
(0.00935706 0 0.000859005)
(0.00966818 0 0.000932359)
(0.00993611 0 0.00100825)
(0.0101677 0 0.00108695)
(0.01037 0 0.00116863)
(0.01055 0 0.0012533)
(0.010715 0 0.00134072)
(0.0108724 0 0.00143032)
(0.01103 0 0.00152111)
(0.0111951 0 0.00161146)
(0.0113746 0 0.00169905)
(0.0115732 0 0.0017807)
(0.0117926 0 0.00185249)
(0.0120289 0 0.00191022)
(0.0122703 0 0.00195031)
(0.0124951 0 0.00197161)
(0.0126733 0 0.00197752)
(0.0127744 0 0.0019772)
(0.0127922 0 0.00198091)
(0.000728418 0 5.2557e-05)
(0.00210049 0 0.000152495)
(0.00331636 0 0.000243618)
(0.00439192 0 0.000328146)
(0.00534162 0 0.000407869)
(0.00617844 0 0.000484243)
(0.00691413 0 0.000558462)
(0.00755931 0 0.000631513)
(0.00812369 0 0.000704226)
(0.0086162 0 0.000777297)
(0.00904514 0 0.00085131)
(0.00941829 0 0.000926753)
(0.00974307 0 0.00100401)
(0.0100266 0 0.00108338)
(0.0102759 0 0.00116502)
(0.0104979 0 0.00124895)
(0.0106994 0 0.00133498)
(0.0108875 0 0.00142267)
(0.0110688 0 0.00151124)
(0.01125 0 0.00159951)
(0.0114369 0 0.00168578)
(0.011634 0 0.00176782)
(0.0118435 0 0.00184295)
(0.0120643 0 0.00190827)
(0.0122906 0 0.00196125)
(0.0125108 0 0.00200068)
(0.0127085 0 0.00202792)
(0.0128647 0 0.00204797)
(0.0129649 0 0.00206835)
(0.0130075 0 0.00209089)
(0.000728915 0 5.65693e-05)
(0.00210211 0 0.000164117)
(0.00331948 0 0.000262127)
(0.00439715 0 0.000352956)
(0.0053497 0 0.000438504)
(0.00619026 0 0.000520307)
(0.00693067 0 0.000599615)
(0.00758166 0 0.000677457)
(0.00815305 0 0.000754677)
(0.00865387 0 0.000831971)
(0.00909251 0 0.000909905)
(0.00947684 0 0.000988925)
(0.00981433 0 0.00106936)
(0.0101121 0 0.00115141)
(0.0103772 0 0.00123515)
(0.0106163 0 0.00132044)
(0.0108361 0 0.00140698)
(0.0110428 0 0.00149419)
(0.0112425 0 0.00158116)
(0.0114405 0 0.00166666)
(0.0116412 0 0.00174908)
(0.0118473 0 0.00182647)
(0.0120591 0 0.0018967)
(0.0122742 0 0.00195775)
(0.0124863 0 0.00200821)
(0.0126864 0 0.00204782)
(0.0128637 0 0.00207806)
(0.0130088 0 0.00210201)
(0.0131169 0 0.00212261)
(0.0131829 0 0.00213798)
(0.000729246 0 6.03337e-05)
(0.00210326 0 0.000175017)
(0.00332188 0 0.000279472)
(0.00440143 0 0.000376178)
(0.00535664 0 0.00046713)
(0.00620074 0 0.000553933)
(0.00694565 0 0.000637886)
(0.0076022 0 0.000720045)
(0.00818026 0 0.000801266)
(0.00868893 0 0.000882238)
(0.00913664 0 0.000963502)
(0.0095313 0 0.00104546)
(0.00988034 0 0.00112839)
(0.0101909 0 0.00121241)
(0.0104697 0 0.0012975)
(0.0107233 0 0.00138345)
(0.0109578 0 0.00146983)
(0.0111789 0 0.00155599)
(0.0113919 0 0.001641)
(0.011601 0 0.00172367)
(0.0118091 0 0.00180255)
(0.0120177 0 0.00187604)
(0.012226 0 0.0019425)
(0.0124306 0 0.00200055)
(0.0126261 0 0.00204933)
(0.0128052 0 0.00208872)
(0.0129607 0 0.00211926)
(0.0130879 0 0.00214151)
(0.0131845 0 0.00215488)
(0.0132442 0 0.00215809)
(0.000729366 0 6.38383e-05)
(0.0021038 0 0.00018516)
(0.00332334 0 0.000295601)
(0.00440447 0 0.000397744)
(0.00536206 0 0.000493668)
(0.00620941 0 0.000585035)
(0.00695853 0 0.000673182)
(0.00762026 0 0.000759187)
(0.00820454 0 0.00084391)
(0.00872048 0 0.000928029)
(0.0091765 0 0.00101206)
(0.00958047 0 0.00109637)
(0.00993977 0 0.00118116)
(0.0102613 0 0.00126652)
(0.0105517 0 0.00135233)
(0.0108171 0 0.00143832)
(0.0110631 0 0.00152401)
(0.0112949 0 0.00160872)
(0.0115168 0 0.00169155)
(0.0117321 0 0.0017714)
(0.0119429 0 0.00184702)
(0.0121494 0 0.00191714)
(0.0123502 0 0.00198054)
(0.0125418 0 0.00203627)
(0.0127191 0 0.00208377)
(0.0128761 0 0.0021229)
(0.0130069 0 0.00215362)
(0.0131071 0 0.00217546)
(0.0131743 0 0.00218709)
(0.0132077 0 0.00218843)
(0.000729223 0 6.70731e-05)
(0.00210359 0 0.000194517)
(0.00332364 0 0.000310471)
(0.00440599 0 0.000417603)
(0.0053656 0 0.000518058)
(0.00621586 0 0.000613548)
(0.00696878 0 0.000705439)
(0.00763525 0 0.000794824)
(0.00822519 0 0.000882564)
(0.0087477 0 0.000969322)
(0.00921116 0 0.00105559)
(0.00962336 0 0.00114169)
(0.00999152 0 0.00122779)
(0.0103224 0 0.00131392)
(0.0106223 0 0.0013999)
(0.0108969 0 0.00148544)
(0.0111515 0 0.00157002)
(0.0113906 0 0.00165298)
(0.0116177 0 0.00173347)
(0.0118355 0 0.00181052)
(0.0120452 0 0.0018831)
(0.0122466 0 0.00195019)
(0.0124378 0 0.0020109)
(0.0126154 0 0.0020646)
(0.0127749 0 0.00211096)
(0.0129109 0 0.00214998)
(0.0130181 0 0.00218172)
(0.0130915 0 0.00220602)
(0.0131276 0 0.00222223)
(0.0131288 0 0.00222971)
(0.00195123 0 -0.000359738)
(0.00292479 0 -0.000262339)
(0.00412334 0 -0.000161319)
(0.00524656 0 -8.41847e-05)
(0.00621163 0 -3.05983e-05)
(0.00701368 0 5.03356e-06)
(0.00767071 0 2.80395e-05)
(0.00820431 0 4.24416e-05)
(0.0086335 0 5.10476e-05)
(0.00897338 0 5.57571e-05)
(0.00923541 0 5.78446e-05)
(0.00942773 0 5.81616e-05)
(0.00955595 0 5.72822e-05)
(0.00962364 0 5.55966e-05)
(0.00963274 0 5.33714e-05)
(0.0095838 0 5.07896e-05)
(0.00947619 0 4.79764e-05)
(0.00930823 0 4.50157e-05)
(0.00907729 0 4.19625e-05)
(0.00877984 0 3.88498e-05)
(0.00841147 0 3.56942e-05)
(0.0079669 0 3.2499e-05)
(0.00743994 0 2.92567e-05)
(0.00682351 0 2.59497e-05)
(0.00610955 0 2.25509e-05)
(0.005289 0 1.90233e-05)
(0.00435174 0 1.53188e-05)
(0.00328653 0 1.13764e-05)
(0.00208098 0 7.11983e-06)
(0.000721352 0 2.45284e-06)
(0.00366663 0 -0.000836257)
(0.00427051 0 -0.0006222)
(0.00509073 0 -0.000385369)
(0.00592529 0 -0.0001954)
(0.00668736 0 -5.88887e-05)
(0.00735016 0 3.40232e-05)
(0.00791197 0 9.4973e-05)
(0.00837996 0 0.000133501)
(0.00876335 0 0.00015659)
(0.00907077 0 0.000169117)
(0.00930937 0 0.000174436)
(0.00948454 0 0.000174833)
(0.00959998 0 0.000171873)
(0.00965801 0 0.000166633)
(0.00965973 0 0.00015986)
(0.00960507 0 0.000152069)
(0.00949298 0 0.000143614)
(0.00932149 0 0.000134737)
(0.00908774 0 0.000125592)
(0.00878806 0 0.000116275)
(0.00841789 0 0.000106833)
(0.00797188 0 9.72737e-05)
(0.00744377 0 8.75731e-05)
(0.00682642 0 7.76783e-05)
(0.00611173 0 6.75077e-05)
(0.0052906 0 5.69503e-05)
(0.00435288 0 4.58621e-05)
(0.00328729 0 3.40607e-05)
(0.00208144 0 2.13174e-05)
(0.00072151 0 7.34424e-06)
(0.00612292 0 -0.000845667)
(0.00631375 0 -0.000639114)
(0.00664273 0 -0.000387802)
(0.00706192 0 -0.000170497)
(0.00751082 0 -5.47144e-06)
(0.00794791 0 0.000111477)
(0.0083495 0 0.000190397)
(0.00870382 0 0.000241117)
(0.00900598 0 0.000271558)
(0.00925468 0 0.000287636)
(0.00945028 0 0.00029363)
(0.00959352 0 0.000292579)
(0.00968493 0 0.000286634)
(0.00972467 0 0.000277318)
(0.00971227 0 0.00026571)
(0.00964662 0 0.000252568)
(0.00952589 0 0.00023842)
(0.00934756 0 0.000223628)
(0.00910836 0 0.000208427)
(0.0088043 0 0.00019296)
(0.00843063 0 0.000177295)
(0.00798179 0 0.00016144)
(0.0074514 0 0.000145351)
(0.00683223 0 0.000128939)
(0.00611608 0 0.000112066)
(0.0052938 0 9.45481e-05)
(0.00435515 0 7.61454e-05)
(0.00328883 0 5.65552e-05)
(0.00208235 0 3.5398e-05)
(0.000721819 0 1.21958e-05)
(0.00853654 0 -0.00049698)
(0.00840894 0 -0.000356812)
(0.0083262 0 -0.000172294)
(0.00836225 0 1.04652e-06)
(0.00849728 0 0.000142244)
(0.00869205 0 0.000247931)
(0.00891165 0 0.000322026)
(0.00913072 0 0.000370537)
(0.00933248 0 0.000399329)
(0.00950632 0 0.00041336)
(0.00964567 0 0.000416563)
(0.00974626 0 0.000411933)
(0.00980503 0 0.000401709)
(0.00981954 0 0.000387552)
(0.00978748 0 0.000370676)
(0.00970636 0 0.00035196)
(0.00957338 0 0.000332028)
(0.00938528 0 0.000311314)
(0.00913825 0 0.000290099)
(0.00882789 0 0.000268554)
(0.00844913 0 0.000246756)
(0.00799619 0 0.000224702)
(0.00746249 0 0.000202327)
(0.00684066 0 0.000179499)
(0.00612239 0 0.000156027)
(0.00529841 0 0.000131651)
(0.00435843 0 0.000106036)
(0.00329103 0 7.87626e-05)
(0.00208363 0 4.93011e-05)
(0.000722251 0 1.69868e-05)
(0.0104257 0 5.30168e-05)
(0.0101324 0 0.000105094)
(0.00980643 0 0.000188062)
(0.00958263 0 0.000280285)
(0.0094782 0 0.000365537)
(0.00946918 0 0.00043528)
(0.009523 0 0.000486835)
(0.0096106 0 0.000520933)
(0.00970946 0 0.000539885)
(0.00980319 0 0.000546467)
(0.00988022 0 0.000543367)
(0.0099322 0 0.000532908)
(0.00995289 0 0.000516993)
(0.00993741 0 0.000497134)
(0.0098816 0 0.000474494)
(0.00978157 0 0.000449944)
(0.00963345 0 0.000424123)
(0.00943316 0 0.000397477)
(0.00917629 0 0.000370301)
(0.00885797 0 0.000342767)
(0.00847275 0 0.000314944)
(0.00801457 0 0.000286814)
(0.00747665 0 0.000258278)
(0.0068514 0 0.000229164)
(0.0061304 0 0.000199221)
(0.00530425 0 0.000168115)
(0.00436254 0 0.000135421)
(0.00329377 0 0.000100598)
(0.00208523 0 6.29738e-05)
(0.000722782 0 2.16988e-05)
(0.0116343 0 0.000641389)
(0.0113203 0 0.000613102)
(0.0109234 0 0.000599306)
(0.0105835 0 0.000607726)
(0.0103418 0 0.000629377)
(0.0101946 0 0.000653911)
(0.0101215 0 0.000674212)
(0.010099 0 0.000686679)
(0.0101053 0 0.000690248)
(0.0101229 0 0.000685339)
(0.010138 0 0.000673098)
(0.0101399 0 0.000654885)
(0.0101203 0 0.00063202)
(0.0100724 0 0.00060567)
(0.00999032 0 0.000576802)
(0.00986906 0 0.00054618)
(0.00970372 0 0.000514379)
(0.00948943 0 0.000481809)
(0.00922115 0 0.000448742)
(0.00889352 0 0.000415328)
(0.0085007 0 0.000381613)
(0.00803633 0 0.00034755)
(0.00749338 0 0.000313004)
(0.00686408 0 0.000277755)
(0.00613982 0 0.000241494)
(0.00531109 0 0.000203814)
(0.00436734 0 0.000164195)
(0.00329693 0 0.000121985)
(0.00208705 0 7.63676e-05)
(0.000723383 0 2.63152e-05)
(0.0122513 0 0.00112962)
(0.0120125 0 0.00105512)
(0.0116688 0 0.000979286)
(0.0113278 0 0.000927349)
(0.0110403 0 0.000897603)
(0.0108214 0 0.000881389)
(0.0106665 0 0.000870599)
(0.0105626 0 0.000859692)
(0.0104941 0 0.000845601)
(0.0104456 0 0.000827059)
(0.0104042 0 0.000803933)
(0.0103585 0 0.000776665)
(0.0102991 0 0.000745944)
(0.0102183 0 0.000712521)
(0.010109 0 0.000677089)
(0.00996539 0 0.000640234)
(0.0097816 0 0.000602417)
(0.00955211 0 0.000563974)
(0.00927131 0 0.00052512)
(0.00893337 0 0.000485965)
(0.00853209 0 0.000446516)
(0.00806078 0 0.000406689)
(0.00751216 0 0.000366307)
(0.00687827 0 0.000325099)
(0.00615033 0 0.000282697)
(0.00531867 0 0.00023862)
(0.00437261 0 0.000192259)
(0.00330038 0 0.000142849)
(0.00208901 0 8.9436e-05)
(0.000724029 0 3.08198e-05)
(0.0124923 0 0.00145119)
(0.0123645 0 0.00137275)
(0.0121296 0 0.00128067)
(0.0118505 0 0.00120302)
(0.0115767 0 0.00114398)
(0.011336 0 0.00109943)
(0.0111381 0 0.00106364)
(0.0109813 0 0.00103178)
(0.0108575 0 0.00100056)
(0.0107561 0 0.000968085)
(0.0106663 0 0.000933505)
(0.0105779 0 0.000896624)
(0.0104816 0 0.000857614)
(0.0103692 0 0.000816834)
(0.0102332 0 0.000774692)
(0.010067 0 0.000731572)
(0.00986438 0 0.000687793)
(0.00961912 0 0.000643588)
(0.00932516 0 0.000599101)
(0.00897628 0 0.000554383)
(0.00856593 0 0.000509393)
(0.00808713 0 0.000464002)
(0.00753239 0 0.000417984)
(0.00689351 0 0.00037102)
(0.00616156 0 0.000322679)
(0.00532671 0 0.000272408)
(0.00437815 0 0.000219511)
(0.00330397 0 0.000163115)
(0.00209104 0 0.000102132)
(0.000724687 0 3.51964e-05)
(0.0126053 0 0.00161919)
(0.012564 0 0.00156976)
(0.0124264 0 0.00149813)
(0.0122182 0 0.00142436)
(0.0119809 0 0.00135687)
(0.0117462 0 0.0012974)
(0.0115322 0 0.00124464)
(0.0113453 0 0.00119628)
(0.0111842 0 0.00115022)
(0.0110432 0 0.00110487)
(0.0109147 0 0.00105927)
(0.0107901 0 0.00101293)
(0.010661 0 0.000965688)
(0.0105197 0 0.000917602)
(0.0103585 0 0.000868834)
(0.0101706 0 0.000819576)
(0.00994937 0 0.00077)
(0.00968832 0 0.000720229)
(0.00938103 0 0.000670323)
(0.00902092 0 0.000620268)
(0.00860118 0 0.00056997)
(0.00811459 0 0.000519247)
(0.0075534 0 0.000467827)
(0.00690928 0 0.000415336)
(0.0061731 0 0.000361284)
(0.0053349 0 0.000305049)
(0.00438373 0 0.000245848)
(0.00330754 0 0.000182706)
(0.00209302 0 0.000114408)
(0.000725327 0 3.94289e-05)
(0.0127613 0 0.00171099)
(0.0127459 0 0.00169806)
(0.0126538 0 0.0016587)
(0.0124916 0 0.00160163)
(0.0122875 0 0.00153721)
(0.0120684 0 0.001472)
(0.0118534 0 0.00140893)
(0.0116525 0 0.00134863)
(0.0114688 0 0.00129068)
(0.0113003 0 0.0012343)
(0.0111423 0 0.00117883)
(0.0109885 0 0.00112375)
(0.0108318 0 0.00106877)
(0.010665 0 0.00101376)
(0.010481 0 0.000958684)
(0.0102729 0 0.000903584)
(0.010034 0 0.000848499)
(0.00975766 0 0.000793447)
(0.00943725 0 0.000738407)
(0.00906598 0 0.000683297)
(0.0086368 0 0.000627965)
(0.00814229 0 0.000572182)
(0.00757454 0 0.000515623)
(0.00692504 0 0.000457865)
(0.00618453 0 0.000398358)
(0.00534291 0 0.000336413)
(0.0043891 0 0.000271168)
(0.00331091 0 0.000201548)
(0.00209486 0 0.000126218)
(0.000725914 0 4.35012e-05)
(0.0129784 0 0.00181354)
(0.012941 0 0.00181842)
(0.0128482 0 0.00179771)
(0.0127033 0 0.00175239)
(0.0125208 0 0.00169182)
(0.012318 0 0.00162425)
(0.0121095 0 0.00155483)
(0.0119051 0 0.00148617)
(0.0117097 0 0.00141917)
(0.0115238 0 0.00135391)
(0.011345 0 0.00129012)
(0.0111688 0 0.00122745)
(0.0109897 0 0.00116557)
(0.0108014 0 0.00110428)
(0.0105973 0 0.00104343)
(0.010371 0 0.000982948)
(0.0101159 0 0.000922763)
(0.00982518 0 0.000862807)
(0.00949225 0 0.000802986)
(0.00911015 0 0.000743155)
(0.00867172 0 0.00068311)
(0.00816939 0 0.000622572)
(0.00759512 0 0.000561171)
(0.00694025 0 0.000498432)
(0.00619542 0 0.000433752)
(0.00535041 0 0.000366379)
(0.004394 0 0.000295373)
(0.00331389 0 0.000219569)
(0.00209645 0 0.000137516)
(0.000726408 0 4.73976e-05)
(0.0131675 0 0.00196181)
(0.0131025 0 0.00195881)
(0.0129979 0 0.00193425)
(0.0128598 0 0.00188791)
(0.0126931 0 0.0018262)
(0.0125062 0 0.00175588)
(0.0123083 0 0.00168196)
(0.0121073 0 0.00160746)
(0.0119082 0 0.00153392)
(0.0117128 0 0.00146194)
(0.0115204 0 0.00139158)
(0.0113281 0 0.00132269)
(0.0111317 0 0.001255)
(0.0109259 0 0.00118829)
(0.0107049 0 0.00112237)
(0.0104627 0 0.00105709)
(0.010193 0 0.000992318)
(0.00988916 0 0.000927916)
(0.00954455 0 0.000863728)
(0.00915223 0 0.00079956)
(0.00870495 0 0.000735161)
(0.00819507 0 0.000670207)
(0.00761445 0 0.000604287)
(0.00695436 0 0.00053688)
(0.00620532 0 0.000467333)
(0.00535702 0 0.000394834)
(0.00439816 0 0.000318374)
(0.00331629 0 0.000236701)
(0.00209765 0 0.000148262)
(0.000726769 0 5.11042e-05)
(0.013239 0 0.00212743)
(0.013178 0 0.00210467)
(0.0130825 0 0.00206363)
(0.0129594 0 0.0020078)
(0.012811 0 0.001941)
(0.0126415 0 0.00186726)
(0.0124572 0 0.00179001)
(0.0122641 0 0.00171172)
(0.0120669 0 0.00163388)
(0.0118681 0 0.00155725)
(0.011668 0 0.00148213)
(0.011465 0 0.0014085)
(0.0112559 0 0.00133622)
(0.0110365 0 0.00126508)
(0.0108017 0 0.00119492)
(0.0105461 0 0.00112554)
(0.0102637 0 0.00105677)
(0.0099481 0 0.000988441)
(0.00959288 0 0.000920353)
(0.0091911 0 0.000852272)
(0.00873555 0 0.000783909)
(0.00821854 0 0.000714907)
(0.0076319 0 0.000644815)
(0.00696682 0 0.000573073)
(0.00621379 0 0.000498983)
(0.00536241 0 0.00042168)
(0.0044013 0 0.000340092)
(0.00331791 0 0.000252888)
(0.00209835 0 0.000158418)
(0.000726953 0 5.46081e-05)
(0.0132031 0 0.00225932)
(0.0131721 0 0.002223)
(0.0131062 0 0.0021686)
(0.0130084 0 0.00210436)
(0.0128822 0 0.00203325)
(0.0127321 0 0.00195733)
(0.0125632 0 0.00187853)
(0.012381 0 0.00179852)
(0.0121896 0 0.00171849)
(0.0119918 0 0.00163921)
(0.0117885 0 0.0015611)
(0.0115792 0 0.00148426)
(0.0113614 0 0.00140866)
(0.0111319 0 0.00133417)
(0.0108863 0 0.00126065)
(0.0106197 0 0.00118792)
(0.0103265 0 0.0011158)
(0.0100008 0 0.00104412)
(0.00963611 0 0.00097263)
(0.00922581 0 0.00090109)
(0.00876268 0 0.000829181)
(0.00823908 0 0.000756517)
(0.00764684 0 0.00068262)
(0.00697714 0 0.000606893)
(0.00622041 0 0.000528602)
(0.00536623 0 0.000446833)
(0.00440316 0 0.000360459)
(0.00331856 0 0.000268078)
(0.00209842 0 0.000167952)
(0.000726916 0 5.7898e-05)
(0.0131388 0 0.0023311)
(0.0131337 0 0.00229207)
(0.0130955 0 0.00223552)
(0.0130224 0 0.00217058)
(0.0129178 0 0.00209994)
(0.0127866 0 0.00202507)
(0.0126335 0 0.00194727)
(0.0124634 0 0.00186779)
(0.01228 0 0.00178765)
(0.0120862 0 0.00170762)
(0.0118833 0 0.0016282)
(0.0116711 0 0.00154963)
(0.0114481 0 0.00147198)
(0.0112115 0 0.00139521)
(0.0109578 0 0.00131925)
(0.0106825 0 0.00124396)
(0.0103805 0 0.00116918)
(0.0100461 0 0.00109473)
(0.00967332 0 0.00102037)
(0.0092555 0 0.000945848)
(0.00878559 0 0.000870829)
(0.00825605 0 0.000794908)
(0.00765873 0 0.000717585)
(0.00698482 0 0.000638238)
(0.00622478 0 0.0005561)
(0.00536815 0 0.000470217)
(0.00440345 0 0.000379413)
(0.00331802 0 0.000282224)
(0.00209773 0 0.000176835)
(0.000726612 0 6.09636e-05)
(0.00072878 0 7.00953e-05)
(0.00210253 0 0.000203252)
(0.00332254 0 0.000324313)
(0.0044057 0 0.000436067)
(0.00536697 0 0.000540692)
(0.00621975 0 0.000639938)
(0.00697608 0 0.000735196)
(0.00764683 0 0.000827566)
(0.0082419 0 0.000917906)
(0.00877035 0 0.00100687)
(0.00924045 0 0.00109491)
(0.00965987 0 0.00118233)
(0.0100357 0 0.00126926)
(0.0103743 0 0.00135567)
(0.0106819 0 0.00144138)
(0.0109636 0 0.00152604)
(0.0112243 0 0.00160916)
(0.0114679 0 0.0016901)
(0.0116975 0 0.0017681)
(0.0119149 0 0.00184233)
(0.0121211 0 0.00191193)
(0.0123153 0 0.00197612)
(0.0124959 0 0.00203425)
(0.0126597 0 0.00208591)
(0.0128029 0 0.00213098)
(0.0129211 0 0.00216965)
(0.0130103 0 0.00220245)
(0.0130668 0 0.00223039)
(0.0130896 0 0.00225581)
(0.0130822 0 0.00228248)
(0.00072794 0 7.29095e-05)
(0.00210037 0 0.000211391)
(0.00331978 0 0.000337201)
(0.00440315 0 0.000453195)
(0.00536562 0 0.000561648)
(0.00622049 0 0.000664304)
(0.00697978 0 0.000762571)
(0.00765432 0 0.000857553)
(0.00825396 0 0.000950104)
(0.00878766 0 0.00104086)
(0.0092636 0 0.00113026)
(0.00968925 0 0.00121857)
(0.0100715 0 0.00130588)
(0.0104165 0 0.00139215)
(0.01073 0 0.00147717)
(0.0110169 0 0.0015606)
(0.0112816 0 0.00164196)
(0.0115275 0 0.00172067)
(0.0117572 0 0.00179605)
(0.0119722 0 0.0018674)
(0.0121732 0 0.00193403)
(0.0123594 0 0.00199535)
(0.0125293 0 0.00205089)
(0.0126803 0 0.00210038)
(0.0128097 0 0.00214381)
(0.0129143 0 0.00218148)
(0.012992 0 0.00221403)
(0.0130417 0 0.00224225)
(0.013065 0 0.00226731)
(0.0130679 0 0.00229127)
(0.000726623 0 7.54708e-05)
(0.00209688 0 0.000218797)
(0.00331506 0 0.000348949)
(0.00439805 0 0.000468787)
(0.00536105 0 0.000580634)
(0.00621749 0 0.000686319)
(0.00697918 0 0.000787208)
(0.00765691 0 0.00088441)
(0.00826044 0 0.000978769)
(0.00879863 0 0.00107092)
(0.00927951 0 0.00116127)
(0.00971034 0 0.00125006)
(0.0100977 0 0.00133737)
(0.0104477 0 0.00142313)
(0.0107656 0 0.00150714)
(0.011056 0 0.00158905)
(0.0113228 0 0.00166844)
(0.0115692 0 0.00174478)
(0.0117974 0 0.00181748)
(0.0120088 0 0.00188596)
(0.0122037 0 0.00194966)
(0.0123818 0 0.00200817)
(0.0125418 0 0.00206114)
(0.0126819 0 0.00210835)
(0.0128003 0 0.00214994)
(0.0128953 0 0.00218611)
(0.0129659 0 0.00221721)
(0.0130129 0 0.00224383)
(0.013039 0 0.00226674)
(0.0130493 0 0.00228697)
(0.000724762 0 7.77587e-05)
(0.00209187 0 0.000225417)
(0.00330799 0 0.000359443)
(0.00439001 0 0.00048273)
(0.00535293 0 0.000597574)
(0.00621017 0 0.000705836)
(0.00697366 0 0.000808964)
(0.0076539 0 0.000907995)
(0.00826058 0 0.00100377)
(0.00880246 0 0.00109693)
(0.00928738 0 0.00118785)
(0.00972236 0 0.00127677)
(0.0101138 0 0.00136374)
(0.0104674 0 0.00144868)
(0.0107882 0 0.00153141)
(0.0110806 0 0.0016116)
(0.0113482 0 0.00168886)
(0.0115938 0 0.00176274)
(0.0118194 0 0.00183275)
(0.0120263 0 0.00189839)
(0.012215 0 0.00195922)
(0.0123855 0 0.00201501)
(0.0125369 0 0.00206549)
(0.0126679 0 0.00211039)
(0.0127776 0 0.00214983)
(0.0128654 0 0.00218399)
(0.0129316 0 0.00221318)
(0.0129775 0 0.00223777)
(0.0130059 0 0.00225818)
(0.0130205 0 0.00227462)
(0.00072229 0 7.97538e-05)
(0.00208515 0 0.000231194)
(0.00329831 0 0.000368604)
(0.00437856 0 0.000494885)
(0.0053408 0 0.000612345)
(0.0061982 0 0.000722793)
(0.00696263 0 0.000827702)
(0.00764468 0 0.000928186)
(0.00825369 0 0.001025)
(0.00879844 0 0.0011188)
(0.00928653 0 0.00120996)
(0.00972467 0 0.00129868)
(0.010119 0 0.00138501)
(0.0104751 0 0.00146888)
(0.0107977 0 0.00155011)
(0.0110909 0 0.00162843)
(0.0113581 0 0.00170348)
(0.0116019 0 0.00177487)
(0.0118243 0 0.0018422)
(0.0120266 0 0.00190509)
(0.0122094 0 0.00196322)
(0.0123728 0 0.00201632)
(0.0125165 0 0.00206419)
(0.0126399 0 0.00210669)
(0.0127428 0 0.00214391)
(0.0128255 0 0.00217599)
(0.0128886 0 0.00220314)
(0.0129339 0 0.00222562)
(0.0129636 0 0.00224357)
(0.0129804 0 0.00225687)
(0.000719152 0 8.14382e-05)
(0.00207656 0 0.000236079)
(0.00328577 0 0.000376355)
(0.00436339 0 0.00050516)
(0.00532415 0 0.000624795)
(0.0061811 0 0.000737068)
(0.00694577 0 0.00084338)
(0.00762868 0 0.000944871)
(0.00823913 0 0.00104234)
(0.00878596 0 0.00113644)
(0.00927641 0 0.00122755)
(0.00971678 0 0.00131579)
(0.0101131 0 0.00140123)
(0.0104706 0 0.00148381)
(0.010794 0 0.00156339)
(0.011087 0 0.00163972)
(0.011353 0 0.00171251)
(0.0115944 0 0.00178141)
(0.0118132 0 0.00184611)
(0.0120107 0 0.00190632)
(0.012188 0 0.00196181)
(0.0123452 0 0.0020123)
(0.0124821 0 0.00205761)
(0.0125993 0 0.00209774)
(0.012697 0 0.00213276)
(0.0127757 0 0.00216277)
(0.0128366 0 0.00218793)
(0.0128811 0 0.00220835)
(0.0129113 0 0.0022241)
(0.0129291 0 0.00223502)
(0.000715298 0 8.27954e-05)
(0.00206596 0 0.000240024)
(0.00327014 0 0.000382626)
(0.00434419 0 0.000513467)
(0.00530265 0 0.00063483)
(0.00615834 0 0.000748507)
(0.00692265 0 0.000855894)
(0.00760569 0 0.00095805)
(0.00821645 0 0.00105576)
(0.00876436 0 0.00114981)
(0.00925657 0 0.00124063)
(0.0096983 0 0.00132813)
(0.0100957 0 0.00141246)
(0.0104537 0 0.00149359)
(0.010777 0 0.00157139)
(0.0110692 0 0.00164566)
(0.0113334 0 0.00171615)
(0.011572 0 0.0017826)
(0.0117871 0 0.00184473)
(0.0119801 0 0.00190232)
(0.012152 0 0.00195516)
(0.0123035 0 0.00200311)
(0.012435 0 0.00204604)
(0.0125472 0 0.00208393)
(0.0126405 0 0.00211683)
(0.0127161 0 0.00214484)
(0.012775 0 0.00216808)
(0.0128188 0 0.00218664)
(0.012849 0 0.00220052)
(0.0128672 0 0.00220963)
(0.000710686 0 8.38108e-05)
(0.00205323 0 0.000242988)
(0.00325123 0 0.000387352)
(0.00432073 0 0.000519726)
(0.00527601 0 0.000642359)
(0.00612964 0 0.000757021)
(0.00689279 0 0.000865091)
(0.00757539 0 0.000967617)
(0.00818623 0 0.00106537)
(0.0087343 0 0.00115909)