/*--------------------------------*- C++ -*----------------------------------*\
| =========                 |                                                 |
| \\      /  F ield         | OpenFOAM: The Open Source CFD Toolbox           |
|  \\    /   O peration     | Version:  dev                                   |
|   \\  /    A nd           | Web:      www.OpenFOAM.org                      |
|    \\/     M anipulation  |                                                 |
\*---------------------------------------------------------------------------*/
FoamFile
{
    version     2.0;
    format      ascii;
    class       surfaceScalarField;
    location    "0.19";
    object      meshPhi;
}
// * * * * * * * * * * * * * * * * * * * * * * * * * * * * * * * * * * * * * //

dimensions      [0 3 -1 0 0 0 0];

internalField   nonuniform List<scalar> 
5457
(
9.359e-07
3.76666e-08
1.69121e-06
1.05939e-07
2.17426e-06
1.60845e-07
2.3534e-06
2.01582e-07
2.22533e-06
2.29059e-07
1.80983e-06
2.44585e-07
1.14607e-06
2.49713e-07
2.88899e-07
2.46117e-07
-6.95253e-07
2.35502e-07
-1.73316e-06
2.19537e-07
-2.75007e-06
1.99786e-07
-3.67535e-06
1.77657e-07
-4.44783e-06
1.54366e-07
-5.02056e-06
1.3091e-07
-5.36431e-06
1.08069e-07
-5.46945e-06
8.6431e-08
-5.34601e-06
6.64278e-08
-5.02182e-06
4.83788e-08
-4.53907e-06
3.25238e-08
-3.95002e-06
1.90316e-08
-3.24374e-06
8.88152e-09
-2.46099e-06
2.99888e-09
-1.73726e-06
2.24783e-10
-1.1395e-06
-1.05042e-09
-6.8099e-07
-1.42833e-09
-3.58831e-07
-1.24428e-09
-1.57163e-07
-8.26297e-10
-5.09662e-08
-4.33134e-10
-1.00553e-08
-1.95659e-10
-2.46415e-11
9.51763e-07
7.55631e-08
1.72004e-06
2.12516e-07
2.21341e-06
3.22659e-07
2.40082e-06
4.0441e-07
2.27897e-06
4.59608e-07
1.86752e-06
4.90886e-07
1.20555e-06
5.01352e-07
3.47888e-07
4.94358e-07
-6.38966e-07
4.73319e-07
-1.68156e-06
4.41568e-07
-2.70479e-06
4.02235e-07
-3.63752e-06
3.58135e-07
-4.41802e-06
3.11694e-07
-4.99878e-06
2.64904e-07
-5.35002e-06
2.19321e-07
-5.46168e-06
1.76112e-07
-5.34344e-06
1.36134e-07
-5.02289e-06
1.00023e-07
-4.5418e-06
6.82669e-08
-3.95083e-06
4.12348e-08
-3.24716e-06
2.07111e-08
-2.46713e-06
8.42196e-09
-1.7404e-06
2.30965e-09
-1.1411e-06
-7.21438e-10
-6.81656e-07
-1.90976e-09
-3.58948e-07
-1.89613e-09
-1.57048e-07
-1.32602e-09
-5.08753e-08
-7.10023e-10
-1.00547e-08
-3.12923e-10
-5.57824e-11
9.71663e-07
1.13732e-07
1.75717e-06
3.19865e-07
2.26557e-06
4.85683e-07
2.46647e-06
6.08867e-07
2.35674e-06
6.92214e-07
1.95598e-06
7.397e-07
1.30309e-06
7.55993e-07
4.52672e-07
7.46118e-07
-5.29026e-07
7.15187e-07
-1.56876e-06
6.68187e-07
-2.59155e-06
6.09792e-07
-3.52629e-06
5.44211e-07
-4.31117e-06
4.75065e-07
-4.89845e-06
4.05325e-07
-5.25804e-06
3.37312e-07
-5.37947e-06
2.72762e-07
-5.27192e-06
2.12948e-07
-4.96236e-06
1.58818e-07
-4.49185e-06
1.11109e-07
-3.91033e-06
7.04055e-08
-3.21847e-06
3.90354e-08
-2.44861e-06
1.92951e-08
-1.72715e-06
8.57866e-09
-1.13242e-06
2.64307e-09
-6.76397e-07
-3.4222e-10
-3.56005e-07
-1.29266e-09
-1.55576e-07
-1.15136e-09
-5.03235e-08
-6.77629e-10
-9.96277e-09
-3.0064e-10
-5.88026e-11
9.94251e-07
1.52167e-07
1.80046e-06
4.27985e-07
2.32807e-06
6.49963e-07
2.54739e-06
8.15087e-07
2.45561e-06
9.27154e-07
2.07238e-06
9.91499e-07
1.43639e-06
1.01435e-06
6.01784e-07
1.00241e-06
-3.65778e-07
9.62437e-07
-1.39374e-06
9.01058e-07
-2.40783e-06
8.24457e-07
-3.33757e-06
7.382e-07
-4.12165e-06
6.47078e-07
-4.7126e-06
5.55017e-07
-5.08034e-06
4.65082e-07
-5.21409e-06
3.79567e-07
-5.12242e-06
3.00151e-07
-4.8314e-06
2.28084e-07
-4.38108e-06
1.64339e-07
-3.82075e-06
1.09695e-07
-3.15015e-06
6.67517e-08
-2.39931e-06
3.81063e-08
-1.69334e-06
2.09527e-08
-1.11076e-06
1.03921e-08
-6.63617e-07
4.15357e-09
-3.4919e-07
1.07979e-09
-1.52436e-07
-4.59466e-11
-4.92296e-08
-2.38796e-10
-9.75356e-09
-1.48019e-10
-3.48097e-11
1.02259e-06
1.90879e-07
1.85522e-06
5.36914e-07
2.40759e-06
8.15578e-07
2.65089e-06
1.02322e-06
2.58278e-06
1.16467e-06
2.22303e-06
1.24666e-06
1.61006e-06
1.27699e-06
7.97449e-07
1.26397e-06
-1.49957e-07
1.21605e-06
-1.16057e-06
1.1414e-06
-2.16115e-06
1.04767e-06
-3.08218e-06
9.41763e-07
-3.86314e-06
8.29582e-07
-4.45709e-06
7.1598e-07
-4.83409e-06
6.04745e-07
-4.98306e-06
4.98711e-07
-4.91183e-06
3.99949e-07
-4.64534e-06
3.09997e-07
-4.22223e-06
2.30043e-07
-3.69025e-06
1.61041e-07
-3.0483e-06
1.0559e-07
-2.32467e-06
6.63048e-08
-1.64193e-06
4.05302e-08
-1.07765e-06
2.3281e-08
-6.44006e-07
1.2052e-08
-3.38784e-07
5.48262e-09
-1.47748e-07
2.1067e-09
-4.76442e-08
6.36169e-10
-9.43752e-09
1.32932e-10
1.36585e-11
1.0566e-06
2.29856e-07
1.92111e-06
6.46622e-07
2.50353e-06
9.8249e-07
2.77605e-06
1.23323e-06
2.73699e-06
1.40478e-06
2.40629e-06
1.50529e-06
1.82208e-06
1.54411e-06
1.03726e-06
1.53119e-06
1.15671e-07
1.47655e-06
-8.72341e-07
1.38991e-06
-1.85485e-06
1.28032e-06
-2.76361e-06
1.15593e-06
-3.53917e-06
1.02374e-06
-4.13532e-06
8.8947e-07
-4.52237e-06
7.57612e-07
-4.68898e-06
6.31517e-07
-4.64211e-06
5.13632e-07
-4.40534e-06
4.05766e-07
-4.01552e-06
3.09307e-07
-3.51832e-06
2.25358e-07
-2.91219e-06
1.56292e-07
-2.22387e-06
1.04484e-07
-1.572e-06
6.77565e-08
-1.03234e-06
4.16074e-08
-6.17056e-07
2.3528e-08
-3.24524e-07
1.20006e-08
-1.41419e-07
5.33365e-09
-4.55503e-08
1.94393e-09
-9.01452e-09
5.30031e-10
8.10292e-11
1.09611e-06
2.6907e-07
1.99773e-06
7.57023e-07
2.61512e-06
1.15056e-06
2.92174e-06
1.44495e-06
2.91668e-06
1.64731e-06
2.62013e-06
1.76722e-06
2.06995e-06
1.81562e-06
1.31824e-06
1.80404e-06
4.2765e-07
1.74404e-06
-5.32926e-07
1.6468e-06
-1.49315e-06
1.52272e-06
-2.38632e-06
1.38112e-06
-3.15427e-06
1.23002e-06
-3.75172e-06
1.076e-06
-4.14935e-06
9.24192e-07
-4.33553e-06
7.78453e-07
-4.31629e-06
6.41591e-07
-4.11363e-06
5.15669e-07
-3.76231e-06
4.02263e-07
-3.3056e-06
3.02615e-07
-2.74202e-06
2.18707e-07
-2.09682e-06
1.52483e-07
-1.48334e-06
1.02516e-07
-9.74554e-07
6.52933e-08
-5.82573e-07
3.85278e-08
-3.06302e-07
2.05973e-08
-1.33399e-07
9.6119e-09
-4.29308e-08
3.67172e-09
-8.4845e-09
1.03887e-09
1.65621e-10
1.14094e-06
3.0848e-07
2.08461e-06
8.67989e-07
2.74154e-06
1.31957e-06
3.08666e-06
1.65807e-06
3.12005e-06
1.89187e-06
2.86224e-06
2.03206e-06
2.35079e-06
2.09114e-06
1.63695e-06
2.08217e-06
7.82006e-07
2.01822e-06
-1.46799e-07
1.91183e-06
-1.08094e-06
1.77466e-06
-1.95548e-06
1.61716e-06
-2.71379e-06
1.44828e-06
-3.3116e-06
1.2754e-06
-3.72009e-06
1.10427e-06
-3.92736e-06
9.39238e-07
-3.93841e-06
7.83446e-07
-3.77351e-06
6.3921e-07
-3.46515e-06
5.08286e-07
-3.05395e-06
3.9206e-07
-2.53904e-06
2.92037e-07
-1.94431e-06
2.09619e-07
-1.37636e-06
1.44338e-07
-9.04508e-07
9.40505e-08
-5.40639e-07
5.68942e-08
-2.84131e-07
3.1202e-08
-1.23669e-07
1.49193e-08
-3.97717e-08
5.81898e-09
-7.84782e-09
1.66528e-09
2.69127e-10
1.19092e-06
3.48034e-07
2.18127e-06
9.79358e-07
2.88188e-06
1.48922e-06
3.26943e-06
1.87216e-06
3.34517e-06
2.13795e-06
3.1301e-06
2.29921e-06
2.66149e-06
2.37e-06
1.98964e-06
2.36491e-06
1.1744e-06
2.29839e-06
2.81156e-07
2.1843e-06
-6.23582e-07
2.03546e-06
-1.47682e-06
1.86334e-06
-2.22361e-06
1.67779e-06
-2.8209e-06
1.48691e-06
-3.24037e-06
1.29705e-06
-3.46986e-06
1.11299e-06
-3.51335e-06
9.38235e-07
-3.38925e-06
7.75344e-07
-3.12764e-06
6.2626e-07
-2.76632e-06
4.92524e-07
-2.30556e-06
3.75155e-07
-1.76792e-06
2.74993e-07
-1.25203e-06
1.92639e-07
-8.22727e-07
1.27573e-07
-4.91485e-07
7.85094e-08
-2.58069e-07
4.38043e-08
-1.12212e-07
2.12874e-08
-3.60495e-08
8.41841e-09
-7.09987e-09
2.42895e-09
3.96528e-10
1.24591e-06
3.8768e-07
2.2873e-06
1.09094e-06
3.03527e-06
1.65915e-06
3.46861e-06
2.08668e-06
3.59001e-06
2.38481e-06
3.42104e-06
2.5678e-06
2.99873e-06
2.65126e-06
2.3724e-06
2.65123e-06
1.60028e-06
2.58351e-06
7.45797e-07
2.46313e-06
-1.26711e-07
2.304e-06
-9.56367e-07
2.11853e-06
-1.69003e-06
1.91737e-06
-2.28595e-06
1.70931e-06
-2.7164e-06
1.50124e-06
-2.96901e-06
1.2984e-06
-3.04662e-06
1.10461e-06
-2.96582e-06
9.22713e-07
-2.75413e-06
7.5484e-07
-2.44647e-06
6.02713e-07
-2.04457e-06
4.66915e-07
-1.56974e-06
3.4776e-07
-1.11162e-06
2.46961e-07
-7.29853e-07
1.65717e-07
-4.35337e-07
1.0343e-07
-2.28117e-07
5.85504e-08
-9.89548e-08
2.88616e-08
-3.17115e-08
1.15657e-08
-6.22408e-09
3.37387e-09
5.58603e-10
1.30585e-06
4.27366e-07
2.40236e-06
1.20255e-06
3.20084e-06
1.82894e-06
3.68273e-06
2.30093e-06
3.85246e-06
2.63156e-06
3.73232e-06
2.83676e-06
3.35912e-06
2.93371e-06
2.78113e-06
2.93984e-06
2.05493e-06
2.87217e-06
1.24182e-06
2.74686e-06
4.03846e-07
2.57876e-06
-4.00344e-07
2.38115e-06
-1.11954e-06
2.16542e-06
-1.71337e-06
1.94097e-06
-2.15475e-06
1.71523e-06
-2.4311e-06
1.49385e-06
-2.54418e-06
1.28102e-06
-2.50866e-06
1.07984e-06
-2.34952e-06
8.92673e-07
-2.09869e-06
7.21444e-07
-1.75954e-06
5.66381e-07
-1.35211e-06
4.27351e-07
-9.56456e-07
3.07141e-07
-6.2644e-07
2.08648e-07
-3.72256e-07
1.32011e-07
-1.94098e-07
7.58447e-08
-8.36943e-08
3.79811e-08
-2.66363e-08
1.54717e-08
-5.17909e-09
4.59204e-09
7.73347e-10
1.37083e-06
4.67056e-07
2.52626e-06
1.314e-06
3.37778e-06
1.99811e-06
3.91031e-06
2.51411e-06
4.13037e-06
2.87711e-06
4.06111e-06
3.10479e-06
3.73914e-06
3.21587e-06
3.21168e-06
3.2291e-06
2.53354e-06
3.16266e-06
1.76381e-06
3.03368e-06
9.62162e-07
2.85789e-06
1.84903e-07
2.64932e-06
-5.1876e-07
2.42004e-06
-1.1099e-06
2.18002e-06
-1.56212e-06
1.93718e-06
-1.86266e-06
1.69761e-06
-2.01219e-06
1.46584e-06
-2.02347e-06
1.24529e-06
-1.91891e-06
1.03856e-06
-1.72744e-06
8.47806e-07
-1.45398e-06
6.72988e-07
-1.11734e-06
5.13611e-07
-7.87681e-07
3.73441e-07
-5.12772e-07
2.56954e-07
-3.0197e-07
1.6502e-07
-1.55507e-07
9.64783e-08
-6.59667e-08
4.93058e-08
-2.05519e-08
2.05633e-08
-3.86539e-09
6.27988e-09
1.09222e-09
1.44112e-06
5.06754e-07
2.65906e-06
1.42518e-06
3.56533e-06
2.16618e-06
4.14986e-06
2.72532e-06
4.42154e-06
3.12022e-06
4.40451e-06
3.3704e-06
4.13524e-06
3.49605e-06
3.65985e-06
3.5172e-06
3.03129e-06
3.45304e-06
2.30638e-06
3.32158e-06
1.54234e-06
3.13931e-06
7.93074e-07
2.92094e-06
1.05739e-07
2.67915e-06
-4.82233e-07
2.42442e-06
-9.45167e-07
2.16517e-06
-1.27013e-06
1.9079e-06
-1.45675e-06
1.65753e-06
-1.51586e-06
1.41779e-06
-1.4673e-06
1.19158e-06
-1.33696e-06
9.81274e-07
-1.13118e-06
7.86645e-07
-8.67417e-07
6.06896e-07
-6.06049e-07
4.4664e-07
-3.88651e-07
3.11747e-07
-2.23665e-07
2.03774e-07
-1.11281e-07
1.21802e-07
-4.48116e-08
6.4025e-08
-1.28501e-08
2.7685e-08
-2.03419e-09
8.87516e-09
1.63796e-09
1.51735e-06
5.4654e-07
2.80118e-06
1.53613e-06
3.7628e-06
2.33273e-06
4.39988e-06
2.93357e-06
4.72377e-06
3.35958e-06
4.75965e-06
3.63198e-06
4.5439e-06
3.77244e-06
4.1215e-06
3.80217e-06
3.54349e-06
3.74125e-06
2.86431e-06
3.60843e-06
2.13869e-06
3.42086e-06
1.41813e-06
3.19386e-06
7.47694e-07
2.94064e-06
1.63287e-07
2.67219e-06
-3.10157e-07
2.39737e-06
-6.59563e-07
2.12312e-06
-8.83492e-07
1.85476e-06
-9.90908e-07
1.59637e-06
-9.99078e-07
1.35116e-06
-9.30875e-07
1.12176e-06
-7.9371e-07
9.07767e-07
-6.03652e-07
7.08101e-07
-4.11624e-07
5.28062e-07
-2.5314e-07
3.74721e-07
-1.35704e-07
2.50241e-07
-5.94436e-08
1.53924e-07
-1.83369e-08
8.41775e-08
-2.15813e-09
3.85006e-08
9.72999e-10
1.33938e-08
2.72958e-09
1.59376e-06
5.83057e-07
2.94962e-06
1.64184e-06
3.97106e-06
2.4968e-06
4.6602e-06
3.14001e-06
5.03639e-06
3.59597e-06
5.12547e-06
3.89026e-06
4.96373e-06
4.04571e-06
4.595e-06
4.08463e-06
4.06825e-06
4.0279e-06
3.43548e-06
3.8948e-06
2.74891e-06
3.70307e-06
2.05765e-06
3.46859e-06
1.40462e-06
3.20505e-06
8.24205e-07
2.9239e-06
3.40566e-07
2.63444e-06
-3.30777e-08
2.34406e-06
-2.94247e-07
2.0585e-06
-4.50028e-07
1.78226e-06
-5.15138e-07
1.51888e-06
-5.09448e-07
1.27124e-06
-4.41098e-07
1.03876e-06
-3.24641e-07
8.20003e-07
-2.02077e-07
6.20791e-07
-1.03117e-07
4.49249e-07
-3.43312e-08
3.081e-07
4.18698e-09
1.96839e-07
1.7803e-08
1.14049e-07
1.5566e-08
5.73928e-08
8.12561e-09
2.36213e-08
5.96207e-09
1.11498e-08
2.22994e-10
5.66272e-08
1.48264e-09
1.77564e-07
5.15077e-09
4.11452e-07
1.31733e-08
7.89649e-07
2.7196e-08
1.33445e-06
4.8399e-08
2.0569e-06
7.73659e-08
2.95557e-06
1.14074e-07
4.01683e-06
1.5803e-07
5.12182e-06
2.04581e-07
6.16392e-06
2.45591e-07
7.15456e-06
2.78657e-07
8.07923e-06
3.06013e-07
8.89313e-06
3.28319e-07
9.55701e-06
3.45486e-07
1.00407e-05
3.57814e-07
1.03255e-05
3.65874e-07
1.04045e-05
3.70323e-07
1.02825e-05
3.71717e-07
9.97313e-06
3.70349e-07
9.49612e-06
3.6615e-07
8.87357e-06
3.58652e-07
8.12642e-06
3.47021e-07
7.27153e-06
3.30122e-07
6.31948e-06
3.0662e-07
5.27351e-06
2.75079e-07
4.12922e-06
2.34044e-07
2.87493e-06
1.82114e-07
1.49223e-06
1.17972e-07
4.16056e-08
1.1235e-08
4.6739e-10
5.71259e-08
2.94872e-09
1.78813e-07
1.02563e-08
4.13669e-07
2.61486e-08
7.93038e-07
5.38537e-08
1.33916e-06
9.56967e-08
2.0629e-06
1.52826e-07
2.96219e-06
2.25174e-07
4.02087e-06
3.11656e-07
5.12972e-06
4.03494e-07
6.17725e-06
4.84903e-07
7.16638e-06
5.50525e-07
8.09002e-06
6.04796e-07
8.90239e-06
6.49358e-07
9.56406e-06
6.83904e-07
1.0045e-05
7.0897e-07
1.03267e-05
7.25641e-07
1.04027e-05
7.35179e-07
1.0278e-05
7.38641e-07
9.96664e-06
7.36569e-07
9.4884e-06
7.2879e-07
8.86545e-06
7.14349e-07
8.11866e-06
6.91566e-07
7.26471e-06
6.58178e-07
6.31397e-06
6.11524e-07
5.26945e-06
5.48746e-07
4.12657e-06
4.66958e-07
2.87352e-06
3.63373e-07
1.49175e-06
2.35381e-07
8.30066e-08
1.12309e-08
6.96432e-10
5.71605e-08
4.3469e-09
1.78513e-07
1.51273e-08
4.12217e-07
3.84301e-08
7.89442e-07
7.89304e-08
1.33238e-06
1.40025e-07
2.05178e-06
2.23404e-07
2.94532e-06
3.28951e-07
3.99617e-06
4.54964e-07
5.10183e-06
5.89226e-07
6.14836e-06
7.09251e-07
7.13341e-06
8.06494e-07
8.05396e-06
8.87259e-07
8.86397e-06
9.54243e-07
9.52399e-06
1.00684e-06
1.00042e-05
1.0457e-06
1.02862e-05
1.07229e-06
1.03638e-05
1.08837e-06
1.0242e-05
1.09537e-06
9.93455e-06
1.09399e-06
9.46117e-06
1.0839e-06
8.8436e-06
1.06362e-06
8.10231e-06
1.03063e-06
7.25354e-06
9.81553e-07
6.3073e-06
9.1245e-07
5.26632e-06
8.1908e-07
4.12584e-06
6.97165e-07
2.87404e-06
5.42579e-07
1.49245e-06
3.51469e-07
1.23939e-07
1.11108e-08
9.05068e-10
5.65583e-08
5.625e-09
1.7627e-07
1.95733e-08
4.06448e-07
4.95717e-08
7.7791e-07
1.01563e-07
1.31276e-06
1.79907e-07
2.02183e-06
2.86799e-07
2.90296e-06
4.22102e-07
3.94003e-06
5.83569e-07
5.03401e-06
7.56233e-07
6.07253e-06
9.12079e-07
7.05132e-06
1.03962e-06
7.96711e-06
1.1465e-06
8.77433e-06
1.23626e-06
9.43383e-06
1.30792e-06
9.91597e-06
1.3621e-06
1.02025e-05
1.40051e-06
1.0287e-05
1.42517e-06
1.01742e-05
1.43776e-06
9.87724e-06
1.43901e-06
9.4152e-06
1.42835e-06
8.80904e-06
1.40374e-06
8.07847e-06
1.36183e-06
7.23908e-06
1.29818e-06
6.30039e-06
1.2076e-06
5.26482e-06
1.08454e-06
4.12751e-06
9.23406e-07
2.87677e-06
7.18784e-07
1.49441e-06
4.65639e-07
1.64197e-07
1.09307e-08
1.09059e-09
5.55981e-08
6.75058e-09
1.72987e-07
2.34852e-08
3.98431e-07
5.93373e-08
7.62234e-07
1.21326e-07
1.28633e-06
2.14634e-07
1.98166e-06
3.41911e-07
2.8463e-06
5.03026e-07
3.86463e-06
6.95279e-07
4.94179e-06
9.01655e-07
5.96888e-06
1.08995e-06
6.93959e-06
1.24618e-06
7.84934e-06
1.37873e-06
8.65322e-06
1.49165e-06
9.31256e-06
1.5835e-06
9.79797e-06
1.65474e-06
1.00912e-05
1.70709e-06
1.01857e-05
1.74269e-06
1.00855e-05
1.76324e-06
9.80301e-06
1.76937e-06
9.35634e-06
1.76015e-06
8.76543e-06
1.73298e-06
8.04903e-06
1.68366e-06
7.22188e-06
1.60671e-06
6.2929e-06
1.4958e-06
5.26413e-06
1.34413e-06
4.13066e-06
1.14486e-06
2.88093e-06
8.91362e-07
1.49724e-06
5.77495e-07
2.03645e-07
1.07051e-08
1.24875e-09
5.43854e-08
7.7059e-09
1.69026e-07
2.68059e-08
3.89018e-07
6.76157e-08
7.43989e-07
1.38038e-07
1.25557e-06
2.43932e-07
1.93468e-06
3.88327e-07
2.7797e-06
5.71113e-07
3.77539e-06
7.89229e-07
4.83165e-06
1.02431e-06
5.84416e-06
1.24138e-06
6.80463e-06
1.42445e-06
7.70677e-06
1.58211e-06
8.50648e-06
1.71849e-06
9.16566e-06
1.83163e-06
9.65528e-06
1.9217e-06
9.95707e-06
1.99022e-06
1.0064e-05
2.0392e-06
9.97951e-06
2.07021e-06
9.71497e-06
2.08359e-06
9.2872e-06
2.07796e-06
8.71491e-06
2.0501e-06
8.01567e-06
1.99497e-06
7.20324e-06
1.90613e-06
6.28578e-06
1.77613e-06
5.26494e-06
1.59704e-06
4.13572e-06
1.36084e-06
2.88681e-06
1.05979e-06
1.50108e-06
6.86701e-07
2.42164e-07
1.04571e-08
1.37854e-09
5.30555e-08
8.49595e-09
1.64789e-07
2.95445e-08
3.79076e-07
7.44368e-08
7.24732e-07
1.51778e-07
1.22289e-06
2.6795e-07
1.88435e-06
4.26278e-07
2.70763e-06
6.26675e-07
3.67793e-06
8.65798e-07
4.71019e-06
1.1246e-06
5.70539e-06
1.36666e-06
6.65341e-06
1.57459e-06
7.54623e-06
1.75661e-06
8.34067e-06
1.91658e-06
8.9994e-06
2.05199e-06
9.49373e-06
2.16251e-06
9.80538e-06
2.24932e-06
9.92686e-06
2.31407e-06
9.86057e-06
2.35796e-06
9.6168e-06
2.38091e-06
9.21085e-06
2.38101e-06
8.65999e-06
2.35431e-06
7.98038e-06
2.29499e-06
7.18465e-06
2.19566e-06
6.28014e-06
2.04786e-06
5.26803e-06
1.84259e-06
4.14322e-06
1.57076e-06
2.89473e-06
1.2236e-06
1.50608e-06
7.92957e-07
2.79649e-07
1.02204e-08
1.4873e-09
5.17784e-08
9.14985e-09
1.60734e-07
3.17848e-08
3.69529e-07
7.99883e-08
7.06051e-07
1.62897e-07
1.19075e-06
2.87265e-07
1.83408e-06
4.56623e-07
2.63459e-06
6.70891e-07
3.57785e-06
9.26513e-07
4.58399e-06
1.20433e-06
5.55965e-06
1.4677e-06
6.49318e-06
1.69843e-06
7.37493e-06
1.90388e-06
8.16288e-06
2.08736e-06
8.82056e-06
2.24572e-06
9.31974e-06
2.37806e-06
9.64208e-06
2.48499e-06
9.77952e-06
2.56763e-06
9.7334e-06
2.62662e-06
9.51257e-06
2.66127e-06
9.13073e-06
2.66903e-06
8.60346e-06
2.64523e-06
7.94538e-06
2.58322e-06
7.16783e-06
2.47475e-06
6.27723e-06
2.31041e-06
5.27427e-06
2.08022e-06
4.15375e-06
1.77412e-06
2.90504e-06
1.3824e-06
1.51241e-06
8.95993e-07
3.16003e-07
1.00378e-08
1.5812e-09
5.0758e-08
9.72071e-09
1.57396e-07
3.36913e-08
3.61418e-07
8.46313e-08
6.8966e-07
1.72042e-07
1.16168e-06
3.02901e-07
1.78736e-06
4.80837e-07
2.56509e-06
7.05758e-07
3.48074e-06
9.73946e-07
4.45958e-06
1.26659e-06
5.41404e-06
1.54787e-06
6.33127e-06
1.79927e-06
7.20029e-06
2.02701e-06
7.98045e-06
2.23361e-06
8.63628e-06
2.41526e-06
9.14009e-06
2.57039e-06
9.47348e-06
2.69887e-06
9.62774e-06
2.80111e-06
9.60305e-06
2.87701e-06
9.40667e-06
2.92515e-06
9.05051e-06
2.94223e-06
8.5483e-06
2.92281e-06
7.913e-06
2.85945e-06
7.15455e-06
2.74304e-06
6.27837e-06
2.56334e-06
5.28458e-06
2.30947e-06
4.16792e-06
1.97049e-06
2.91811e-06
1.53581e-06
1.52025e-06
9.95564e-07
3.51139e-07
9.97071e-09
1.68023e-09
5.02584e-08
1.02954e-08
1.55448e-07
3.55292e-08
3.55992e-07
8.89297e-08
6.77507e-07
1.80185e-07
1.13842e-06
3.16327e-07
1.74781e-06
5.00982e-07
2.50373e-06
7.34014e-07
3.39219e-06
1.01158e-06
4.3434e-06
1.31555e-06
5.27555e-06
1.61168e-06
6.17498e-06
1.88162e-06
7.02976e-06
2.13031e-06
7.80081e-06
2.35928e-06
8.45383e-06
2.56414e-06
8.96173e-06
2.74252e-06
9.30606e-06
2.89346e-06
9.47743e-06
3.01648e-06
9.47475e-06
3.11061e-06
9.30361e-06
3.17357e-06
8.97397e-06
3.20122e-06
8.49761e-06
3.18733e-06
7.88569e-06
3.12367e-06
7.14666e-06
3.00035e-06
6.28488e-06
2.80634e-06
5.29989e-06
2.52996e-06
4.18633e-06
2.15948e-06
2.9343e-06
1.68351e-06
1.52977e-06
1.09145e-06
3.84975e-07
1.01249e-08
1.81461e-09
5.06724e-08
1.10212e-08
1.55812e-07
3.77086e-08
3.5485e-07
9.36996e-08
6.71928e-07
1.88653e-07
1.12407e-06
3.29466e-07
1.71934e-06
5.19653e-07
2.4553e-06
7.59018e-07
3.31788e-06
1.04363e-06
4.24186e-06
1.35619e-06
5.15102e-06
1.66449e-06
6.03141e-06
1.95083e-06
6.87061e-06
2.21887e-06
7.63127e-06
2.46916e-06
8.28038e-06
2.69666e-06
8.79152e-06
2.89821e-06
9.14625e-06
3.07192e-06
9.33444e-06
3.2163e-06
9.35371e-06
3.32938e-06
9.20787e-06
3.40794e-06
8.90487e-06
3.44694e-06
8.45443e-06
3.43933e-06
7.86583e-06
3.37611e-06
7.14596e-06
3.24666e-06
6.29808e-06
3.03922e-06
5.32111e-06
2.74142e-06
4.20957e-06
2.34078e-06
2.95396e-06
1.82522e-06
1.54112e-06
1.18344e-06
4.1744e-07
1.07079e-08
2.04911e-09
5.26655e-08
1.21659e-08
1.59881e-07
4.08773e-08
3.60183e-07
1.00106e-07
6.75843e-07
1.99187e-07
1.12221e-06
3.44671e-07
1.7062e-06
5.39877e-07
2.4248e-06
7.84585e-07
3.26373e-06
1.07483e-06
4.16139e-06
1.39405e-06
5.04704e-06
1.71218e-06
5.90735e-06
2.01269e-06
6.72976e-06
2.29827e-06
7.47878e-06
2.56845e-06
8.12276e-06
2.81758e-06
8.63604e-06
3.04166e-06
9.00019e-06
3.23782e-06
9.2044e-06
3.40349e-06
9.24493e-06
3.53562e-06
9.12377e-06
3.62997e-06
8.84681e-06
3.68058e-06
8.42168e-06
3.67955e-06
7.85569e-06
3.61715e-06
7.15415e-06
3.48208e-06
6.31918e-06
3.26191e-06
5.34905e-06
2.94363e-06
4.23816e-06
2.51414e-06
2.97739e-06
1.9607e-06
1.55444e-06
1.27138e-06
4.48469e-07
1.2177e-08
2.52405e-09
5.74968e-08
1.426e-08
1.69931e-07
4.61237e-08
3.75134e-07
1.09844e-07
6.93019e-07
2.14043e-07
1.13705e-06
3.64723e-07
1.71304e-06
5.64998e-07
2.41757e-06
8.14779e-07
3.23611e-06
1.11026e-06
4.1086e-06
1.43505e-06
4.9698e-06
1.76077e-06
5.80904e-06
2.07297e-06
6.61364e-06
2.37409e-06
7.34981e-06
2.66244e-06
7.98733e-06
2.93174e-06
8.50139e-06
3.17718e-06
8.87361e-06
3.39486e-06
9.09252e-06
3.5811e-06
9.15302e-06
3.73175e-06
9.0553e-06
3.84149e-06
8.80313e-06
3.90342e-06
8.40202e-06
3.90883e-06
7.85734e-06
3.84726e-06
7.17278e-06
3.70677e-06
6.34928e-06
3.47436e-06
5.38445e-06
3.13644e-06
4.27256e-06
2.67933e-06
3.00484e-06
2.08973e-06
1.56984e-06
1.35509e-06
4.78001e-07
1.56594e-08
3.59617e-09
6.77699e-08
1.84611e-08
1.89877e-07
5.54069e-08
4.04349e-07
1.25461e-07
7.2838e-07
2.36135e-07
1.17355e-06
3.92816e-07
1.74483e-06
5.98517e-07
2.43912e-06
8.53631e-07
3.2424e-06
1.15523e-06
4.0906e-06
1.48552e-06
4.92473e-06
1.81601e-06
5.74211e-06
2.13686e-06
6.52808e-06
2.4515e-06
7.25021e-06
2.75613e-06
7.87983e-06
3.04376e-06
8.39305e-06
3.30886e-06
8.77165e-06
3.54655e-06
9.00348e-06
3.75206e-06
9.08214e-06
3.92007e-06
9.00601e-06
4.04422e-06
8.77678e-06
4.11667e-06
8.39785e-06
4.12792e-06
7.87263e-06
4.06682e-06
7.20319e-06
3.92086e-06
6.38929e-06
3.6765e-06
5.4279e-06
3.31965e-06
4.31311e-06
2.83611e-06
3.0365e-06
2.21206e-06
1.58739e-06
1.4344e-06
5.05972e-07
2.58945e-08
6.99646e-09
9.06514e-08
2.88895e-08
2.27607e-07
7.3535e-08
4.55524e-07
1.51698e-07
7.89091e-07
2.69977e-07
1.23818e-06
4.33275e-07
1.80734e-06
6.44618e-07
2.49505e-06
9.05369e-07
3.28548e-06
1.21247e-06
4.10846e-06
1.54599e-06
4.91526e-06
1.87982e-06
5.71157e-06
2.20896e-06
6.47844e-06
2.53605e-06
7.18517e-06
2.85506e-06
7.8052e-06
3.15893e-06
8.31571e-06
3.44167e-06
8.69866e-06
3.6975e-06
8.94127e-06
3.92055e-06
9.03585e-06
4.10436e-06
8.97901e-06
4.24152e-06
8.77041e-06
4.32329e-06
8.41135e-06
4.33941e-06
7.9033e-06
4.27809e-06
7.24673e-06
4.12628e-06
6.44025e-06
3.86996e-06
5.48014e-06
3.4946e-06
4.36032e-06
2.98556e-06
3.07265e-06
2.32849e-06
1.60723e-06
1.5098e-06
5.32549e-07
1.7216e-06
6.13215e-07
3.2079e-06
1.73323e-06
4.34724e-06
2.65022e-06
5.12364e-06
3.34443e-06
5.56798e-06
3.83301e-06
5.71614e-06
4.14857e-06
5.605e-06
4.31928e-06
5.27889e-06
4.36813e-06
4.78625e-06
4.31662e-06
4.17832e-06
4.18437e-06
3.50687e-06
3.98962e-06
2.82033e-06
3.7488e-06
2.16106e-06
3.47606e-06
1.56314e-06
3.18327e-06
1.05087e-06
2.88018e-06
6.38105e-07
2.57463e-06
3.28527e-07
2.27284e-06
1.16733e-07
1.97975e-06
-9.90295e-09
1.6993e-06
-6.89e-08
1.43464e-06
-6.91551e-08
1.18501e-06
-2.41034e-08
9.48391e-07
3.14218e-08
7.30876e-07
7.22913e-08
5.41625e-07
9.26902e-08
3.83998e-07
9.25283e-08
2.57662e-07
7.65691e-08
1.61244e-07
5.29239e-08
9.25134e-08
3.10143e-08
4.82644e-08
2.46899e-08
1.61549e-08
1.8182e-06
6.39716e-07
3.40943e-06
1.81052e-06
4.6683e-06
2.78116e-06
5.55077e-06
3.53312e-06
6.06969e-06
4.06712e-06
6.27793e-06
4.40782e-06
6.22316e-06
4.5934e-06
5.94861e-06
4.65296e-06
5.50089e-06
4.60786e-06
4.92943e-06
4.47768e-06
4.28496e-06
4.28114e-06
3.61459e-06
4.0353e-06
2.95938e-06
3.75472e-06
2.35258e-06
3.45164e-06
1.8183e-06
3.13627e-06
1.37093e-06
2.81691e-06
1.01536e-06
2.5003e-06
7.48105e-07
2.19186e-06
5.58975e-07
1.896e-06
4.33236e-07
1.61629e-06
3.61439e-07
1.35178e-06
3.31598e-07
1.09937e-06
3.16651e-07
8.64924e-07
2.96333e-07
6.58867e-07
2.6567e-07
4.85384e-07
2.24675e-07
3.44345e-07
1.77334e-07
2.345e-07
1.30753e-07
1.53661e-07
9.31251e-08
9.8873e-08
6.73905e-08
7.38409e-08
1.91575e-06
6.64612e-07
3.60092e-06
1.88073e-06
4.96785e-06
2.89202e-06
5.97782e-06
3.69138e-06
6.60563e-06
4.28024e-06
6.88647e-06
4.66216e-06
6.89005e-06
4.86743e-06
6.6712e-06
4.93787e-06
6.27213e-06
4.90066e-06
5.7397e-06
4.77392e-06
5.12454e-06
4.57691e-06
4.47233e-06
4.32762e-06
3.82271e-06
4.04089e-06
3.2081e-06
3.72927e-06
2.65246e-06
3.40339e-06
2.17078e-06
3.07205e-06
1.7693e-06
2.74252e-06
1.44652e-06
2.42075e-06
1.19483e-06
2.11168e-06
1.00245e-06
1.81955e-06
8.59537e-07
1.54391e-06
7.55201e-07
1.27927e-06
6.69999e-07
1.02943e-06
5.88624e-07
8.07387e-07
5.06796e-07
6.19078e-07
4.24879e-07
4.64231e-07
3.4652e-07
3.41891e-07
2.78119e-07
2.50011e-07
2.27489e-07
1.86074e-07
1.48257e-07
2.04344e-07
2.01883e-06
6.8747e-07
3.79881e-06
1.94582e-06
5.2569e-06
2.99253e-06
6.37974e-06
3.82443e-06
7.14246e-06
4.45664e-06
7.53463e-06
4.89165e-06
7.6097e-06
5.13535e-06
7.45004e-06
5.22303e-06
7.10395e-06
5.19505e-06
6.61258e-06
5.07322e-06
6.02916e-06
4.87702e-06
5.39751e-06
4.62614e-06
4.75554e-06
4.3353e-06
4.13496e-06
4.01724e-06
3.55961e-06
3.68299e-06
3.04522e-06
3.34189e-06
2.59947e-06
3.00171e-06
2.22293e-06
2.66891e-06
1.91061e-06
2.34896e-06
1.6538e-06
2.04675e-06
1.44244e-06
1.76274e-06
1.26674e-06
1.49018e-06
1.11388e-06
1.22956e-06
9.73073e-07
9.93721e-07
8.41628e-07
7.91382e-07
7.2061e-07
6.23982e-07
6.13684e-07
4.90589e-07
5.27005e-07
3.89222e-07
4.68105e-07
3.17789e-07
2.74706e-07
4.4553e-07
2.12732e-06
7.0823e-07
4.00852e-06
2.0051e-06
5.5582e-06
3.08519e-06
6.77228e-06
3.94465e-06
7.65279e-06
4.60365e-06
8.18564e-06
5.07922e-06
8.37361e-06
5.37471e-06
8.29153e-06
5.50198e-06
8.00274e-06
5.49244e-06
7.55278e-06
5.37599e-06
7.0041e-06
5.18141e-06
6.39624e-06
4.93127e-06
5.76479e-06
4.63875e-06
5.14105e-06
4.31664e-06
4.54879e-06
3.9765e-06
4.0047e-06
3.62812e-06
3.51798e-06
3.27985e-06
3.0913e-06
2.93855e-06
2.72222e-06
2.61e-06
2.40489e-06
2.29914e-06
2.12871e-06
2.00579e-06
1.88579e-06
1.72488e-06
1.6702e-06
1.45887e-06
1.47483e-06
1.21737e-06
1.29812e-06
1.00671e-06
1.14169e-06
8.29427e-07
1.01007e-06
6.86401e-07
9.09436e-07
5.77042e-07
8.46294e-07
4.99332e-07
4.51428e-07
8.26831e-07
2.24185e-06
7.26824e-07
4.23023e-06
2.0584e-06
5.87875e-06
3.169e-06
7.18355e-06
4.05495e-06
8.15612e-06
4.73592e-06
8.80978e-06
5.23381e-06
9.13826e-06
5.56556e-06
9.17292e-06
5.74063e-06
8.96576e-06
5.77166e-06
8.56785e-06
5.67812e-06
8.0561e-06
5.49134e-06
7.4767e-06
5.24387e-06
6.85938e-06
4.95249e-06
6.23643e-06
4.62894e-06
5.6311e-06
4.28552e-06
5.06159e-06
3.93244e-06
4.53868e-06
3.57874e-06
4.06703e-06
3.23155e-06
3.64672e-06
2.89677e-06
3.27451e-06
2.57923e-06
2.93845e-06
2.27736e-06
2.63227e-06
1.98702e-06
2.35898e-06
1.71479e-06
2.11643e-06
1.47114e-06
1.90251e-06
1.25965e-06
1.71782e-06
1.08015e-06
1.56701e-06
9.32657e-07
1.45611e-06
8.17445e-07
1.39133e-06
7.34024e-07
6.81409e-07
1.37636e-06
2.36302e-06
7.43179e-07
4.4651e-06
2.1055e-06
6.21889e-06
3.24364e-06
7.62211e-06
4.15411e-06
8.6854e-06
4.85691e-06
9.43086e-06
5.37292e-06
9.87707e-06
5.72351e-06
1.00401e-05
5.92686e-06
9.95511e-06
5.99996e-06
9.65169e-06
5.95374e-06
9.195e-06
5.8e-06
8.64934e-06
5.56568e-06
8.04994e-06
5.27764e-06
7.43317e-06
4.95522e-06
6.81922e-06
4.61124e-06
6.22963e-06
4.25593e-06
5.67647e-06
3.89954e-06
5.16624e-06
3.54922e-06
4.70143e-06
3.21089e-06
4.2815e-06
2.88948e-06
3.89281e-06
2.58296e-06
3.52966e-06
2.28648e-06
3.20385e-06
2.0077e-06
2.9196e-06
1.75961e-06
2.67556e-06
1.54681e-06
2.47153e-06
1.36835e-06
2.31017e-06
1.22268e-06
2.19518e-06
1.10804e-06
2.13195e-06
1.02287e-06
9.66609e-07
2.12241e-06
2.49144e-06
7.57232e-07
4.71438e-06
2.14621e-06
6.58042e-06
3.30884e-06
8.08889e-06
4.24182e-06
9.25133e-06
4.96544e-06
1.00881e-05
5.50086e-06
1.06273e-05
5.8692e-06
1.08944e-05
6.09025e-06
1.09318e-05
6.18669e-06
1.07576e-05
6.17764e-06
1.03997e-05
6.07047e-06
9.91362e-06
5.87448e-06
9.3484e-06
5.60954e-06
8.74348e-06
5.29674e-06
8.12491e-06
4.95367e-06
7.52208e-06
4.5981e-06
6.94627e-06
4.24217e-06
6.40535e-06
3.89184e-06
5.90432e-06
3.553e-06
5.44535e-06
3.2308e-06
5.01319e-06
2.92281e-06
4.60204e-06
2.62349e-06
4.23134e-06
2.34129e-06
3.91071e-06
2.09022e-06
3.64035e-06
1.87487e-06
3.42146e-06
1.69506e-06
3.25586e-06
1.55013e-06
3.14453e-06
1.43799e-06
3.08975e-06
1.35581e-06
1.30203e-06
3.09175e-06
2.62778e-06
7.68896e-07
4.97935e-06
2.1803e-06
6.9653e-06
3.36421e-06
8.58653e-06
4.31756e-06
9.85564e-06
5.0609e-06
1.07936e-05
5.61556e-06
1.14279e-05
6.0028e-06
1.17889e-05
6.24332e-06
1.1921e-05
6.358e-06
1.18574e-05
6.36799e-06
1.16151e-05
6.28906e-06
1.12279e-05
6.13265e-06
1.07371e-05
5.91107e-06
1.01708e-05
5.6332e-06
9.56089e-06
5.30859e-06
8.95164e-06
4.95865e-06
8.3632e-06
4.6057e-06
7.80134e-06
4.25878e-06
7.27436e-06
3.92257e-06
6.78669e-06
3.60268e-06
6.32122e-06
3.29611e-06
5.8717e-06
2.99656e-06
5.46515e-06
2.71309e-06
5.11578e-06
2.46091e-06
4.82445e-06
2.24484e-06
4.59308e-06
2.06427e-06
4.42357e-06
1.91809e-06
4.31731e-06
1.80501e-06
4.27496e-06
1.72336e-06
1.67041e-06
4.29295e-06
2.77252e-06
7.78031e-07
5.26102e-06
2.20735e-06
7.37503e-06
3.40908e-06
9.11709e-06
4.38043e-06
1.05009e-05
5.14214e-06
1.15481e-05
5.71565e-06
1.22865e-05
6.12227e-06
1.27481e-05
6.38293e-06
1.2971e-05
6.51806e-06
1.29942e-05
6.54718e-06
1.2845e-05
6.48685e-06
1.2559e-05
6.35399e-06
1.21661e-05
6.16472e-06
1.1685e-05
5.92943e-06
1.11276e-05
5.64951e-06
1.05337e-05
5.32954e-06
9.94407e-06
4.98958e-06
9.37176e-06
4.64868e-06
8.83073e-06
4.31776e-06
8.32547e-06
4.00291e-06
7.83732e-06
3.70003e-06
7.35915e-06
3.40224e-06
6.92583e-06
3.11921e-06
6.55614e-06
2.86745e-06
6.25119e-06
2.65195e-06
6.0123e-06
2.47169e-06
5.84068e-06
2.32525e-06
5.73785e-06
2.21091e-06
5.70406e-06
2.12655e-06
2.06842e-06
5.73082e-06
2.92601e-06
7.84474e-07
5.56008e-06
2.22688e-06
7.81067e-06
3.44267e-06
9.68202e-06
4.42937e-06
1.1189e-05
5.20782e-06
1.23538e-05
5.79943e-06
1.32047e-05
6.22549e-06
1.3774e-05
6.50679e-06
1.40975e-05
6.66336e-06
1.42115e-05
6.71411e-06
1.41482e-05
6.67624e-06
1.39467e-05
6.5661e-06
1.36377e-05
6.39877e-06
1.32502e-05
6.18959e-06
1.27864e-05
5.94823e-06
1.22575e-05
5.67501e-06
1.16988e-05
5.37367e-06
1.11368e-05
5.05629e-06
1.05928e-05
4.73699e-06
1.00799e-05
4.42792e-06
9.57973e-06
4.12975e-06
9.08226e-06
3.83497e-06
8.63141e-06
3.5535e-06
8.25007e-06
3.30348e-06
7.93901e-06
3.08977e-06
7.69885e-06
2.91079e-06
7.53e-06
2.76471e-06
7.43249e-06