/*--------------------------------*- C++ -*----------------------------------*\
| =========                 |                                                 |
| \\      /  F ield         | OpenFOAM: The Open Source CFD Toolbox           |
|  \\    /   O peration     | Version:  dev                                   |
|   \\  /    A nd           | Web:      www.OpenFOAM.org                      |
|    \\/     M anipulation  |                                                 |
\*---------------------------------------------------------------------------*/
FoamFile
{
    version     2.0;
    format      ascii;
    class       pointVectorField;
    location    "0.19";
    object      pointDisplacement;
}
// * * * * * * * * * * * * * * * * * * * * * * * * * * * * * * * * * * * * * //

dimensions      [0 1 0 0 0 0 0];

internalField   nonuniform List<vector> 
5828
(
(0 0 0)
(0.00164593 0 0)
(0.00314994 0 0)
(0.00448211 0 0)
(0.00566035 0 0)
(0.00670055 0 0)
(0.00761677 0 0)
(0.00842141 0 0)
(0.00912536 0 0)
(0.00973821 0 0)
(0.0102683 0 0)
(0.0107231 0 0)
(0.0111088 0 0)
(0.0114311 0 0)
(0.0116946 0 0)
(0.0119037 0 0)
(0.0120621 0 0)
(0.0121732 0 0)
(0.0122404 0 0)
(0.0122669 0 0)
(0.0122563 0 0)
(0.0122122 0 0)
(0.0121382 0 0)
(0.0120373 0 0)
(0.0119104 0 0)
(0.0117534 0 0)
(0.0115514 0 0)
(0.0112685 0 0)
(0.0108389 0 0)
(0.0102511 0 0)
(0 0 0)
(0 0 0)
(0.0016456 0 6.59691e-05)
(0.00314943 0 0.000126892)
(0.00448148 0 0.000181899)
(0.00565963 0 0.000231866)
(0.00669981 0 0.00027744)
(0.00761607 0 0.000319055)
(0.00842082 0 0.000356955)
(0.00912495 0 0.0003912)
(0.00973808 0 0.00042168)
(0.0102686 0 0.000448121)
(0.0107238 0 0.000470093)
(0.0111102 0 0.000487026)
(0.0114332 0 0.000498227)
(0.0116977 0 0.000502918)
(0.011908 0 0.000500289)
(0.0120677 0 0.000489577)
(0.0121803 0 0.000470168)
(0.0122491 0 0.000441734)
(0.0122775 0 0.000404379)
(0.012269 0 0.000358771)
(0.0122274 0 0.000306227)
(0.0121567 0 0.00024867)
(0.012061 0 0.000188351)
(0.0119434 0 0.000127194)
(0.0118057 0 6.54371e-05)
(0.0116481 0 -1.04273e-06)
(0.0114725 0 -8.58035e-05)
(0.0113 0 -0.000218061)
(0.0112143 0 -0.00042266)
(0.0170186 0 -0.0026358)
(0 0 0)
(0.00164494 0 0.000131893)
(0.00314822 0 0.000253713)
(0.00447985 0 0.00036373)
(0.00565774 0 0.000463701)
(0.00669782 0 0.000554927)
(0.00761416 0 0.00063829)
(0.00841919 0 0.000714286)
(0.00912384 0 0.000783053)
(0.00973775 0 0.000844387)
(0.0102693 0 0.000897761)
(0.010726 0 0.000942338)
(0.0111142 0 0.000976998)
(0.0114395 0 0.00100037)
(0.0117069 0 0.00101092)
(0.0119204 0 0.00100702)
(0.0120841 0 0.000987116)
(0.0122011 0 0.000949924)
(0.012275 0 0.000894701)
(0.0123089 0 0.000821532)
(0.0123065 0 0.00073163)
(0.0122719 0 0.000627544)
(0.0122099 0 0.000513196)
(0.0121266 0 0.000393565)
(0.0120296 0 0.000273934)
(0.0119293 0 0.000158679)
(0.0118432 0 5.01019e-05)
(0.0118043 0 -5.08587e-05)
(0.0118734 0 -0.000137531)
(0.0121118 0 -0.000185273)
(0.0116162 0 0.00143878)
(0 0 0)
(0.00164388 0 0.000197523)
(0.00314624 0 0.000379982)
(0.00447718 0 0.000544807)
(0.00565462 0 0.000694646)
(0.00669451 0 0.000831467)
(0.00761097 0 0.000956615)
(0.00841645 0 0.00107086)
(0.00912193 0 0.00117445)
(0.00973709 0 0.00126712)
(0.0102705 0 0.00134814)
(0.0107295 0 0.00141629)
(0.0111206 0 0.00146997)
(0.0114497 0 0.00150718)
(0.0117216 0 0.00152563)
(0.0119406 0 0.0015229)
(0.0121106 0 0.00149662)
(0.0122349 0 0.00144474)
(0.0123169 0 0.00136595)
(0.0123597 0 0.00126008)
(0.012367 0 0.00112864)
(0.0123428 0 0.000975162)
(0.0122927 0 0.000805503)
(0.0122239 0 0.000627683)
(0.0121465 0 0.000451293)
(0.0120743 0 0.000286486)
(0.0120254 0 0.000143071)
(0.0120193 0 3.07805e-05)
(0.0120615 0 -3.88594e-05)
(0.012108 0 -5.67748e-05)
(0.0119333 0 -0.000541639)
(0 0 0)
(0.00164237 0 0.000262668)
(0.00314344 0 0.000505338)
(0.00447338 0 0.000724622)
(0.00565016 0 0.000924075)
(0.00668977 0 0.00110635)
(0.00760635 0 0.00127328)
(0.0084124 0 0.00142595)
(0.00911898 0 0.00156474)
(0.00973582 0 0.00168938)
(0.0102715 0 0.001799)
(0.0107337 0 0.00189209)
(0.0111289 0 0.00196661)
(0.0114629 0 0.00202)
(0.011741 0 0.00204931)
(0.0119674 0 0.00205133)
(0.0121461 0 0.00202284)
(0.0122804 0 0.00196093)
(0.0123735 0 0.0018635)
(0.0124284 0 0.00172983)
(0.0124484 0 0.00156122)
(0.0124374 0 0.00136176)
(0.0124005 0 0.00113879)
(0.012345 0 0.000903176)
(0.0122809 0 0.000668888)
(0.0122213 0 0.000451889)
(0.0121811 0 0.000268073)
(0.0121723 0 0.000129903)
(0.012194 0 4.02449e-05)
(0.0122262 0 -1.5017e-05)
(0.0124514 0 -0.000293445)
(0 0 0)
(0.00164041 0 0.000327192)
(0.00313977 0 0.000629522)
(0.0044684 0 0.000902823)
(0.00564429 0 0.00115157)
(0.00668348 0 0.00137913)
(0.00760015 0 0.00158784)
(0.00840686 0 0.00177914)
(0.00911472 0 0.00195361)
(0.00973358 0 0.00211106)
(0.0102721 0 0.00225051)
(0.0107381 0 0.00237028)
(0.0111382 0 0.00246798)
(0.0114784 0 0.0025406)
(0.011764 0 0.00258461)
(0.0119995 0 0.00259607)
(0.012189 0 0.00257091)
(0.0123357 0 0.00250526)
(0.0124428 0 0.00239599)
(0.0125129 0 0.00224137)
(0.0125487 0 0.00204197)
(0.0125533 0 0.00180156)
(0.0125307 0 0.00152814)
(0.0124868 0 0.00123458)
(0.0124296 0 0.000938684)
(0.0123701 0 0.000662142)
(0.0123205 0 0.000428017)
(0.0122904 0 0.000256894)
(0.012282 0 0.000162461)
(0.0122873 0 0.00014463)
(0.0122838 0 0.000592938)
(0 0 0)
(0.00163795 0 0.000390917)
(0.0031352 0 0.0007522)
(0.00446216 0 0.00107894)
(0.00563691 0 0.00137655)
(0.0066755 0 0.00164912)
(0.00759218 0 0.00189956)
(0.00839956 0 0.0021297)
(0.00910883 0 0.00234037)
(0.00972994 0 0.00253152)
(0.0102717 0 0.0027022)
(0.0107419 0 0.00285063)
(0.0111476 0 0.00297423)
(0.0114949 0 0.00306965)
(0.0117892 0 0.00313291)
(0.0120353 0 0.00315944)
(0.0122373 0 0.00314438)
(0.0123986 0 0.00308284)
(0.0125223 0 0.00297046)
(0.0126105 0 0.00280408)
(0.0126654 0 0.00258274)
(0.0126887 0 0.00230891)
(0.0126826 0 0.00198987)
(0.0126504 0 0.00163903)
(0.012597 0 0.0012767)
(0.0125304 0 0.000929406)
(0.0124609 0 0.000626835)
(0.0123995 0 0.000395496)
(0.0123545 0 0.000249494)
(0.0123274 0 0.0001816)
(0.0122006 0 0.000105925)
(0 0 0)
(0.00163499 0 0.000453671)
(0.00312965 0 0.000873039)
(0.00445458 0 0.0012525)
(0.00562788 0 0.00159842)
(0.00666566 0 0.00191566)
(0.00758221 0 0.0022077)
(0.00839021 0 0.00247682)
(0.00910094 0 0.0027242)
(0.00972442 0 0.00294999)
(0.0102696 0 0.00315337)
(0.0107445 0 0.00333261)
(0.0111562 0 0.00348505)
(0.0115112 0 0.0036072)
(0.011815 0 0.00369478)
(0.0120727 0 0.0037428)
(0.0122886 0 0.00374569)
(0.0124664 0 0.00369762)
(0.0126089 0 0.00359287)
(0.0127183 0 0.00342648)
(0.0127959 0 0.00319528)
(0.0128421 0 0.00289918)
(0.0128568 0 0.00254302)
(0.0128399 0 0.00213861)
(0.0127923 0 0.00170664)
(0.0127179 0 0.00127727)
(0.0126249 0 0.000887756)
(0.0125281 0 0.000574945)
(0.0124465 0 0.000361713)
(0.0123982 0 0.00024378)
(0.0124943 0 -0.000226607)
(0 0 0)
(0.00163147 0 0.000515273)
(0.00312306 0 0.000991694)
(0.00444555 0 0.00142301)
(0.00561706 0 0.00181656)
(0.00665378 0 0.00217799)
(0.00757001 0 0.00251141)
(0.00837851 0 0.00281959)
(0.00909061 0 0.0031041)
(0.00971647 0 0.00336541)
(0.0102651 0 0.00360296)
(0.0107448 0 0.00381517)
(0.0111628 0 0.00399949)
(0.0115257 0 0.00415247)
(0.0118395 0 0.00426976)
(0.0121095 0 0.00434616)
(0.0123402 0 0.00437568)
(0.0125357 0 0.00435169)
(0.0126991 0 0.0042672)
(0.0128324 0 0.00411532)
(0.0129365 0 0.0038901)
(0.0130109 0 0.0035878)
(0.0130532 0 0.00320884)
(0.0130599 0 0.00276063)
(0.0130266 0 0.00226091)
(0.0129512 0 0.00174087)
(0.0128375 0 0.00124598)
(0.012701 0 0.000831072)
(0.0125712 0 0.000546985)
(0.0124835 0 0.000417074)
(0.0123246 0 0.000833462)
(0 0 0)
(0.00162737 0 0.000575534)
(0.00311537 0 0.0011078)
(0.00443496 0 0.00158995)
(0.00560432 0 0.00203031)
(0.00663965 0 0.00243532)
(0.00755532 0 0.00280976)
(0.0083641 0 0.00315693)
(0.00907743 0 0.00347888)
(0.00970553 0 0.00377648)
(0.0102576 0 0.00404952)
(0.0107419 0 0.00429675)
(0.0111661 0 0.00451589)
(0.0115369 0 0.00470373)
(0.0118607 0 0.00485613)
(0.012143 0 0.00496799)
(0.0123889 0 0.00503322)
(0.0126028 0 0.00504478)
(0.0127882 0 0.00499475)
(0.0129476 0 0.00487451)
(0.013082 0 0.00467525)
(0.0131906 0 0.00438883)
(0.0132697 0 0.00400957)
(0.0133128 0 0.00353722)
(0.0133102 0 0.00298166)
(0.0132513 0 0.00236919)
(0.0131304 0 0.00174842)
(0.012957 0 0.00119045)
(0.0127689 0 0.000774097)
(0.0126308 0 0.000548337)
(0.012521 0 0.000285793)
(0 0 0)
(0.00162265 0 0.000634262)
(0.00310648 0 0.00122099)
(0.0044227 0 0.00175278)
(0.0055895 0 0.00223896)
(0.0066231 0 0.00268679)
(0.00753788 0 0.00310172)
(0.00834667 0 0.00348766)
(0.00906095 0 0.00384716)
(0.00969104 0 0.00418161)
(0.0102462 0 0.00449125)
(0.010735 0 0.00477532)
(0.011165 0 0.00503193)
(0.0115433 0 0.00525834)
(0.0118766 0 0.00545091)
(0.0121708 0 0.00560503)
(0.0124315 0 0.00571495)
(0.0126634 0 0.00577375)
(0.012871 0 0.00577322)
(0.0130575 0 0.0057037)
(0.0132249 0 0.00555411)
(0.0133731 0 0.00531216)
(0.013499 0 0.00496525)
(0.013595 0 0.00450278)
(0.0136475 0 0.00392099)
(0.0136371 0 0.00323189)
(0.0135418 0 0.00247624)
(0.0133506 0 0.00173604)
(0.0130916 0 0.00113104)
(0.0128589 0 0.000770915)
(0.0128103 0 0.000306097)
(0 0 0)
(0.00161725 0 0.000691258)
(0.00309634 0 0.00133087)
(0.00440866 0 0.00191094)
(0.00557244 0 0.00244179)
(0.0066039 0 0.0029315)
(0.00751742 0 0.00338623)
(0.00832587 0 0.0038105)
(0.00904075 0 0.00420745)
(0.00967246 0 0.00457901)
(0.0102304 0 0.00492604)
(0.010723 0 0.00524836)
(0.0111582 0 0.00554464)
(0.0115433 0 0.00581274)
(0.0118852 0 0.00604991)
(0.0121903 0 0.00625234)
(0.0124644 0 0.00641516)
(0.0127131 0 0.00653226)
(0.0129417 0 0.00659603)
(0.0131545 0 0.00659696)
(0.0133552 0 0.00652318)
(0.0135459 0 0.00635981)
(0.0137263 0 0.00608858)
(0.0138914 0 0.00568818)
(0.0140291 0 0.00513692)
(0.0141154 0 0.00442103)
(0.0141116 0 0.00355327)
(0.0139701 0 0.00260424)
(0.0136721 0 0.00173883)
(0.0133232 0 0.00119828)
(0.0124052 0 0.00123051)
(0 0 0)
(0.00161115 0 0.000746313)
(0.00308484 0 0.00143704)
(0.00439272 0 0.00206384)
(0.005553 0 0.00263802)
(0.00658187 0 0.00316848)
(0.00749372 0 0.00366208)
(0.00830139 0 0.004124)
(0.00901643 0 0.00455798)
(0.00964926 0 0.00496658)
(0.0102094 0 0.00535131)
(0.0107052 0 0.00571283)
(0.0111447 0 0.00605031)
(0.0115355 0 0.00636237)
(0.0118847 0 0.00664747)
(0.0121989 0 0.006903)
(0.0124845 0 0.00712541)
(0.0127476 0 0.00731011)
(0.0129941 0 0.00745116)
(0.0132301 0 0.00754072)
(0.013461 0 0.00756833)
(0.0136921 0 0.00751965)
(0.013928 0 0.00737483)
(0.0141708 0 0.00710617)
(0.014418 0 0.00667613)
(0.0146557 0 0.00603834)
(0.014846 0 0.00515154)
(0.0149072 0 0.00401335)
(0.0147088 0 0.00274462)
(0.0141989 0 0.00171414)
(0.0141786 0 0.00143626)
(0 0 0)
(0.00160427 0 0.000799287)
(0.00307189 0 0.00153924)
(0.00437473 0 0.00221111)
(0.00553098 0 0.00282717)
(0.00655678 0 0.00339713)
(0.00746647 0 0.00392855)
(0.00827288 0 0.00442727)
(0.00898754 0 0.00489767)
(0.00962091 0 0.00534292)
(0.0101826 0 0.00576527)
(0.0106809 0 0.00616594)
(0.0111237 0 0.00654491)
(0.0115188 0 0.00690209)
(0.0118736 0 0.00723717)
(0.0121948 0 0.00754891)
(0.012489 0 0.0078355)
(0.0127629 0 0.0080945)
(0.013023 0 0.00832258)
(0.0132762 0 0.0085152)
(0.01353 0 0.00866584)
(0.0137928 0 0.00876494)
(0.0140742 0 0.00879803)
(0.014386 0 0.00874209)
(0.0147423 0 0.00855982)
(0.01516 0 0.00819131)
(0.0156536 0 0.00754691)
(0.0162171 0 0.0065082)
(0.0167873 0 0.0049947)
(0.0172082 0 0.00322468)
(0.0100862 0 -0.000365184)
(0 0 0)
(0.00159658 0 0.000850117)
(0.00305738 0 0.00163735)
(0.00435456 0 0.00235259)
(0.00550622 0 0.00300903)
(0.00652841 0 0.00361719)
(0.00743542 0 0.00418531)
(0.00824002 0 0.00471989)
(0.00895371 0 0.00522593)
(0.00958692 0 0.00570725)
(0.0101492 0 0.00616669)
(0.010649 0 0.00660585)
(0.0110939 0 0.00702611)
(0.0114919 0 0.00742895)
(0.0118504 0 0.00781504)
(0.0121762 0 0.00818466)
(0.0124758 0 0.00853803)
(0.0127561 0 0.00887526)
(0.013024 0 0.00919642)
(0.0132868 0 0.00950139)
(0.0135528 0 0.00978977)
(0.013832 0 0.0100605)
(0.014137 0 0.0103118)
(0.0144855 0 0.010539)
(0.014904 0 0.0107314)
(0.0154365 0 0.0108661)
(0.0161576 0 0.0108923)
(0.017193 0 0.0107135)
(0.0187167 0 0.0101794)
(0.020747 0 0.00917174)
(0.033833 0 -0.00340354)
(0 0 0)
(0.001588 0 0.000899045)
(0.00304119 0 0.00173179)
(0.00433197 0 0.00248882)
(0.00547842 0 0.00318427)
(0.00649642 0 0.0038294)
(0.00740016 0 0.00443314)
(0.00820235 0 0.00500261)
(0.00891442 0 0.00554346)
(0.0095467 0 0.0060601)
(0.0101086 0 0.006556)
(0.0106086 0 0.00703358)
(0.0110546 0 0.00749542)
(0.011454 0 0.00794406)
(0.0118142 0 0.00838135)
(0.0121418 0 0.00880923)
(0.0124434 0 0.00922999)
(0.0127255 0 0.00964646)
(0.0129948 0 0.0100622)
(0.0132583 0 0.0104821)
(0.0135238 0 0.0109123)
(0.0138005 0 0.011362)
(0.0140996 0 0.0118443)
(0.014436 0 0.0123781)
(0.0148298 0 0.0129917)
(0.0153096 0 0.01373)
(0.015913 0 0.0146623)
(0.0166775 0 0.0158988)
(0.017594 0 0.0175773)
(0.0184385 0 0.0197232)
(0.0185239 0 0.0336941)
(0 0 0)
(0.00164593 0 0)
(0.00314994 0 0)
(0.00448211 0 0)
(0.00566035 0 0)
(0.00670055 0 0)
(0.00761677 0 0)
(0.00842141 0 0)
(0.00912536 0 0)
(0.00973821 0 0)
(0.0102683 0 0)
(0.0107231 0 0)
(0.0111088 0 0)
(0.0114311 0 0)
(0.0116946 0 0)
(0.0119037 0 0)
(0.0120621 0 0)
(0.0121732 0 0)
(0.0122404 0 0)
(0.0122669 0 0)
(0.0122563 0 0)
(0.0122122 0 0)
(0.0121382 0 0)
(0.0120373 0 0)
(0.0119104 0 0)
(0.0117534 0 0)
(0.0115514 0 0)
(0.0112685 0 0)
(0.0108389 0 0)
(0.0102511 0 0)
(0 0 0)
(0 0 0)
(0.0016456 0 6.59691e-05)
(0.00314943 0 0.000126892)
(0.00448148 0 0.000181899)
(0.00565963 0 0.000231866)
(0.00669981 0 0.00027744)
(0.00761607 0 0.000319055)
(0.00842082 0 0.000356955)
(0.00912495 0 0.0003912)
(0.00973808 0 0.00042168)
(0.0102686 0 0.000448121)
(0.0107238 0 0.000470093)
(0.0111102 0 0.000487026)
(0.0114332 0 0.000498227)
(0.0116977 0 0.000502918)
(0.011908 0 0.000500289)
(0.0120677 0 0.000489577)
(0.0121803 0 0.000470168)
(0.0122491 0 0.000441734)
(0.0122775 0 0.000404379)
(0.012269 0 0.000358771)
(0.0122274 0 0.000306227)
(0.0121567 0 0.00024867)
(0.012061 0 0.000188351)
(0.0119434 0 0.000127194)
(0.0118057 0 6.54371e-05)
(0.0116481 0 -1.04273e-06)
(0.0114725 0 -8.58035e-05)
(0.0113 0 -0.000218061)
(0.0112143 0 -0.00042266)
(0.0170186 0 -0.0026358)
(0 0 0)
(0.00164494 0 0.000131893)
(0.00314822 0 0.000253713)
(0.00447985 0 0.00036373)
(0.00565774 0 0.000463701)
(0.00669782 0 0.000554927)
(0.00761416 0 0.00063829)
(0.00841919 0 0.000714286)
(0.00912384 0 0.000783053)
(0.00973775 0 0.000844387)
(0.0102693 0 0.000897761)
(0.010726 0 0.000942338)
(0.0111142 0 0.000976998)
(0.0114395 0 0.00100037)
(0.0117069 0 0.00101092)
(0.0119204 0 0.00100702)
(0.0120841 0 0.000987116)
(0.0122011 0 0.000949924)
(0.012275 0 0.000894701)
(0.0123089 0 0.000821532)
(0.0123065 0 0.00073163)
(0.0122719 0 0.000627544)
(0.0122099 0 0.000513196)
(0.0121266 0 0.000393565)
(0.0120296 0 0.000273934)
(0.0119293 0 0.000158679)
(0.0118432 0 5.01019e-05)
(0.0118043 0 -5.08587e-05)
(0.0118734 0 -0.000137531)
(0.0121118 0 -0.000185273)
(0.0116162 0 0.00143878)
(0 0 0)
(0.00164388 0 0.000197523)
(0.00314624 0 0.000379982)
(0.00447718 0 0.000544807)
(0.00565462 0 0.000694646)
(0.00669451 0 0.000831467)
(0.00761097 0 0.000956615)
(0.00841645 0 0.00107086)
(0.00912193 0 0.00117445)
(0.00973709 0 0.00126712)
(0.0102705 0 0.00134814)
(0.0107295 0 0.00141629)
(0.0111206 0 0.00146997)
(0.0114497 0 0.00150718)
(0.0117216 0 0.00152563)
(0.0119406 0 0.0015229)
(0.0121106 0 0.00149662)
(0.0122349 0 0.00144474)
(0.0123169 0 0.00136595)
(0.0123597 0 0.00126008)
(0.012367 0 0.00112864)
(0.0123428 0 0.000975162)
(0.0122927 0 0.000805503)
(0.0122239 0 0.000627683)
(0.0121465 0 0.000451293)
(0.0120743 0 0.000286486)
(0.0120254 0 0.000143071)
(0.0120193 0 3.07805e-05)
(0.0120615 0 -3.88594e-05)
(0.012108 0 -5.67748e-05)
(0.0119333 0 -0.000541639)
(0 0 0)
(0.00164237 0 0.000262668)
(0.00314344 0 0.000505338)
(0.00447338 0 0.000724622)
(0.00565016 0 0.000924075)
(0.00668977 0 0.00110635)
(0.00760635 0 0.00127328)
(0.0084124 0 0.00142595)
(0.00911898 0 0.00156474)
(0.00973582 0 0.00168938)
(0.0102715 0 0.001799)
(0.0107337 0 0.00189209)
(0.0111289 0 0.00196661)
(0.0114629 0 0.00202)
(0.011741 0 0.00204931)
(0.0119674 0 0.00205133)
(0.0121461 0 0.00202284)
(0.0122804 0 0.00196093)
(0.0123735 0 0.0018635)
(0.0124284 0 0.00172983)
(0.0124484 0 0.00156122)
(0.0124374 0 0.00136176)
(0.0124005 0 0.00113879)
(0.012345 0 0.000903176)
(0.0122809 0 0.000668888)
(0.0122213 0 0.000451889)
(0.0121811 0 0.000268073)
(0.0121723 0 0.000129903)
(0.012194 0 4.02449e-05)
(0.0122262 0 -1.5017e-05)
(0.0124514 0 -0.000293445)
(0 0 0)
(0.00164041 0 0.000327192)
(0.00313977 0 0.000629522)
(0.0044684 0 0.000902823)
(0.00564429 0 0.00115157)
(0.00668348 0 0.00137913)
(0.00760015 0 0.00158784)
(0.00840686 0 0.00177914)
(0.00911472 0 0.00195361)
(0.00973358 0 0.00211106)
(0.0102721 0 0.00225051)
(0.0107381 0 0.00237028)
(0.0111382 0 0.00246798)
(0.0114784 0 0.0025406)
(0.011764 0 0.00258461)
(0.0119995 0 0.00259607)
(0.012189 0 0.00257091)
(0.0123357 0 0.00250526)
(0.0124428 0 0.00239599)
(0.0125129 0 0.00224137)
(0.0125487 0 0.00204197)
(0.0125533 0 0.00180156)
(0.0125307 0 0.00152814)
(0.0124868 0 0.00123458)
(0.0124296 0 0.000938684)
(0.0123701 0 0.000662142)
(0.0123205 0 0.000428017)
(0.0122904 0 0.000256894)
(0.012282 0 0.000162461)
(0.0122873 0 0.00014463)
(0.0122838 0 0.000592938)
(0 0 0)
(0.00163795 0 0.000390917)
(0.0031352 0 0.0007522)
(0.00446216 0 0.00107894)
(0.00563691 0 0.00137655)
(0.0066755 0 0.00164912)
(0.00759218 0 0.00189956)
(0.00839956 0 0.0021297)
(0.00910883 0 0.00234037)
(0.00972994 0 0.00253152)
(0.0102717 0 0.0027022)
(0.0107419 0 0.00285063)
(0.0111476 0 0.00297423)
(0.0114949 0 0.00306965)
(0.0117892 0 0.00313291)
(0.0120353 0 0.00315944)
(0.0122373 0 0.00314438)
(0.0123986 0 0.00308284)
(0.0125223 0 0.00297046)
(0.0126105 0 0.00280408)
(0.0126654 0 0.00258274)
(0.0126887 0 0.00230891)
(0.0126826 0 0.00198987)
(0.0126504 0 0.00163903)
(0.012597 0 0.0012767)
(0.0125304 0 0.000929406)
(0.0124609 0 0.000626835)
(0.0123995 0 0.000395496)
(0.0123545 0 0.000249494)
(0.0123274 0 0.0001816)
(0.0122006 0 0.000105925)
(0 0 0)
(0.00163499 0 0.000453671)
(0.00312965 0 0.000873039)
(0.00445458 0 0.0012525)
(0.00562788 0 0.00159842)
(0.00666566 0 0.00191566)
(0.00758221 0 0.0022077)
(0.00839021 0 0.00247682)
(0.00910094 0 0.0027242)
(0.00972442 0 0.00294999)
(0.0102696 0 0.00315337)
(0.0107445 0 0.00333261)
(0.0111562 0 0.00348505)
(0.0115112 0 0.0036072)
(0.011815 0 0.00369478)
(0.0120727 0 0.0037428)
(0.0122886 0 0.00374569)
(0.0124664 0 0.00369762)
(0.0126089 0 0.00359287)
(0.0127183 0 0.00342648)
(0.0127959 0 0.00319528)
(0.0128421 0 0.00289918)
(0.0128568 0 0.00254302)
(0.0128399 0 0.00213861)
(0.0127923 0 0.00170664)
(0.0127179 0 0.00127727)
(0.0126249 0 0.000887756)
(0.0125281 0 0.000574945)
(0.0124465 0 0.000361713)
(0.0123982 0 0.00024378)
(0.0124943 0 -0.000226607)
(0 0 0)
(0.00163147 0 0.000515273)
(0.00312306 0 0.000991694)
(0.00444555 0 0.00142301)
(0.00561706 0 0.00181656)
(0.00665378 0 0.00217799)
(0.00757001 0 0.00251141)
(0.00837851 0 0.00281959)
(0.00909061 0 0.0031041)
(0.00971647 0 0.00336541)
(0.0102651 0 0.00360296)
(0.0107448 0 0.00381517)
(0.0111628 0 0.00399949)
(0.0115257 0 0.00415247)
(0.0118395 0 0.00426976)
(0.0121095 0 0.00434616)
(0.0123402 0 0.00437568)
(0.0125357 0 0.00435169)
(0.0126991 0 0.0042672)
(0.0128324 0 0.00411532)
(0.0129365 0 0.0038901)
(0.0130109 0 0.0035878)
(0.0130532 0 0.00320884)
(0.0130599 0 0.00276063)
(0.0130266 0 0.00226091)
(0.0129512 0 0.00174087)
(0.0128375 0 0.00124598)
(0.012701 0 0.000831072)
(0.0125712 0 0.000546985)
(0.0124835 0 0.000417074)
(0.0123246 0 0.000833462)
(0 0 0)
(0.00162737 0 0.000575534)
(0.00311537 0 0.0011078)
(0.00443496 0 0.00158995)
(0.00560432 0 0.00203031)
(0.00663965 0 0.00243532)
(0.00755532 0 0.00280976)
(0.0083641 0 0.00315693)
(0.00907743 0 0.00347888)
(0.00970553 0 0.00377648)
(0.0102576 0 0.00404952)
(0.0107419 0 0.00429675)
(0.0111661 0 0.00451589)
(0.0115369 0 0.00470373)
(0.0118607 0 0.00485613)
(0.012143 0 0.00496799)
(0.0123889 0 0.00503322)
(0.0126028 0 0.00504478)
(0.0127882 0 0.00499475)
(0.0129476 0 0.00487451)
(0.013082 0 0.00467525)
(0.0131906 0 0.00438883)
(0.0132697 0 0.00400957)
(0.0133128 0 0.00353722)
(0.0133102 0 0.00298166)
(0.0132513 0 0.00236919)
(0.0131304 0 0.00174842)
(0.012957 0 0.00119045)
(0.0127689 0 0.000774097)
(0.0126308 0 0.000548337)
(0.012521 0 0.000285793)
(0 0 0)
(0.00162265 0 0.000634262)
(0.00310648 0 0.00122099)
(0.0044227 0 0.00175278)
(0.0055895 0 0.00223896)
(0.0066231 0 0.00268679)
(0.00753788 0 0.00310172)
(0.00834667 0 0.00348766)
(0.00906095 0 0.00384716)
(0.00969104 0 0.00418161)
(0.0102462 0 0.00449125)
(0.010735 0 0.00477532)
(0.011165 0 0.00503193)
(0.0115433 0 0.00525834)
(0.0118766 0 0.00545091)
(0.0121708 0 0.00560503)
(0.0124315 0 0.00571495)
(0.0126634 0 0.00577375)
(0.012871 0 0.00577322)
(0.0130575 0 0.0057037)
(0.0132249 0 0.00555411)
(0.0133731 0 0.00531216)
(0.013499 0 0.00496525)
(0.013595 0 0.00450278)
(0.0136475 0 0.00392099)
(0.0136371 0 0.00323189)
(0.0135418 0 0.00247624)
(0.0133506 0 0.00173604)
(0.0130916 0 0.00113104)
(0.0128589 0 0.000770915)
(0.0128103 0 0.000306097)
(0 0 0)
(0.00161725 0 0.000691258)
(0.00309634 0 0.00133087)
(0.00440866 0 0.00191094)
(0.00557244 0 0.00244179)
(0.0066039 0 0.0029315)
(0.00751742 0 0.00338623)
(0.00832587 0 0.0038105)
(0.00904075 0 0.00420745)
(0.00967246 0 0.00457901)
(0.0102304 0 0.00492604)
(0.010723 0 0.00524836)
(0.0111582 0 0.00554464)
(0.0115433 0 0.00581274)
(0.0118852 0 0.00604991)
(0.0121903 0 0.00625234)
(0.0124644 0 0.00641516)
(0.0127131 0 0.00653226)
(0.0129417 0 0.00659603)
(0.0131545 0 0.00659696)
(0.0133552 0 0.00652318)
(0.0135459 0 0.00635981)
(0.0137263 0 0.00608858)
(0.0138914 0 0.00568818)
(0.0140291 0 0.00513692)
(0.0141154 0 0.00442103)
(0.0141116 0 0.00355327)
(0.0139701 0 0.00260424)
(0.0136721 0 0.00173883)
(0.0133232 0 0.00119828)
(0.0124052 0 0.00123051)
(0 0 0)
(0.00161115 0 0.000746313)
(0.00308484 0 0.00143704)
(0.00439272 0 0.00206384)
(0.005553 0 0.00263802)
(0.00658187 0 0.00316848)
(0.00749372 0 0.00366208)
(0.00830139 0 0.004124)
(0.00901643 0 0.00455798)
(0.00964926 0 0.00496658)
(0.0102094 0 0.00535131)
(0.0107052 0 0.00571283)
(0.0111447 0 0.00605031)
(0.0115355 0 0.00636237)
(0.0118847 0 0.00664747)
(0.0121989 0 0.006903)
(0.0124845 0 0.00712541)
(0.0127476 0 0.00731011)
(0.0129941 0 0.00745116)
(0.0132301 0 0.00754072)
(0.013461 0 0.00756833)
(0.0136921 0 0.00751965)
(0.013928 0 0.00737483)
(0.0141708 0 0.00710617)
(0.014418 0 0.00667613)
(0.0146557 0 0.00603834)
(0.014846 0 0.00515154)
(0.0149072 0 0.00401335)
(0.0147088 0 0.00274462)
(0.0141989 0 0.00171414)
(0.0141786 0 0.00143626)
(0 0 0)
(0.00160427 0 0.000799287)
(0.00307189 0 0.00153924)
(0.00437473 0 0.00221111)
(0.00553098 0 0.00282717)
(0.00655678 0 0.00339713)
(0.00746647 0 0.00392855)
(0.00827288 0 0.00442727)
(0.00898754 0 0.00489767)
(0.00962091 0 0.00534292)
(0.0101826 0 0.00576527)
(0.0106809 0 0.00616594)
(0.0111237 0 0.00654491)
(0.0115188 0 0.00690209)
(0.0118736 0 0.00723717)
(0.0121948 0 0.00754891)
(0.012489 0 0.0078355)
(0.0127629 0 0.0080945)
(0.013023 0 0.00832258)
(0.0132762 0 0.0085152)
(0.01353 0 0.00866584)
(0.0137928 0 0.00876494)
(0.0140742 0 0.00879803)
(0.014386 0 0.00874209)
(0.0147423 0 0.00855982)
(0.01516 0 0.00819131)
(0.0156536 0 0.00754691)
(0.0162171 0 0.0065082)
(0.0167873 0 0.0049947)
(0.0172082 0 0.00322468)
(0.0100862 0 -0.000365184)
(0 0 0)
(0.00159658 0 0.000850117)
(0.00305738 0 0.00163735)
(0.00435456 0 0.00235259)
(0.00550622 0 0.00300903)
(0.00652841 0 0.00361719)
(0.00743542 0 0.00418531)
(0.00824002 0 0.00471989)
(0.00895371 0 0.00522593)
(0.00958692 0 0.00570725)
(0.0101492 0 0.00616669)
(0.010649 0 0.00660585)
(0.0110939 0 0.00702611)
(0.0114919 0 0.00742895)
(0.0118504 0 0.00781504)
(0.0121762 0 0.00818466)
(0.0124758 0 0.00853803)
(0.0127561 0 0.00887526)
(0.013024 0 0.00919642)
(0.0132868 0 0.00950139)
(0.0135528 0 0.00978977)
(0.013832 0 0.0100605)
(0.014137 0 0.0103118)
(0.0144855 0 0.010539)
(0.014904 0 0.0107314)
(0.0154365 0 0.0108661)
(0.0161576 0 0.0108923)
(0.017193 0 0.0107135)
(0.0187167 0 0.0101794)
(0.020747 0 0.00917174)
(0.033833 0 -0.00340354)
(0 0 0)
(0.001588 0 0.000899045)
(0.00304119 0 0.00173179)
(0.00433197 0 0.00248882)
(0.00547842 0 0.00318427)
(0.00649642 0 0.0038294)
(0.00740016 0 0.00443314)
(0.00820235 0 0.00500261)
(0.00891442 0 0.00554346)
(0.0095467 0 0.0060601)
(0.0101086 0 0.006556)
(0.0106086 0 0.00703358)
(0.0110546 0 0.00749542)
(0.011454 0 0.00794406)
(0.0118142 0 0.00838135)
(0.0121418 0 0.00880923)
(0.0124434 0 0.00922999)
(0.0127255 0 0.00964646)
(0.0129948 0 0.0100622)
(0.0132583 0 0.0104821)
(0.0135238 0 0.0109123)
(0.0138005 0 0.011362)
(0.0140996 0 0.0118443)
(0.014436 0 0.0123781)
(0.0148298 0 0.0129917)
(0.0153096 0 0.01373)
(0.015913 0 0.0146623)
(0.0166775 0 0.0158988)
(0.017594 0 0.0175773)
(0.0184385 0 0.0197232)
(0.0185239 0 0.0336941)
(0 0 0)
(0.00988164 0 0)
(0.0105834 0 0)
(0.0110499 0 0)
(0.0113494 0 0)
(0.0115501 0 0)
(0.0116818 0 0)
(0.0117558 0 0)
(0.0117772 0 0)
(0.01175 0 0)
(0.011678 0 0)
(0.011565 0 0)
(0.0114143 0 0)
(0.0112284 0 0)
(0.0110088 0 0)
(0.0107557 0 0)
(0.0104683 0 0)
(0.0101446 0 0)
(0.00978157 0 0)
(0.00937529 0 0)
(0.00892081 0 0)
(0.00841232 0 0)
(0.0078431 0 0)
(0.00720554 0 0)
(0.00649105 0 0)
(0.00569 0 0)
(0.00479159 0 0)
(0.00378375 0 0)
(0.00265293 0 0)
(0.00138385 0 0)
(0 0 0)
(0.0161262 0 6.29732e-05)
(0.0108714 0 -4.67739e-05)
(0.0110458 0 -1.01531e-05)
(0.0112542 0 2.70985e-05)
(0.0114495 0 6.03654e-05)
(0.0116073 0 9.23037e-05)
(0.0117184 0 0.000125088)
(0.0117804 0 0.000159276)
(0.0117936 0 0.000194238)
(0.0117603 0 0.000228731)
(0.0116837 0 0.000261326)
(0.0115673 0 0.000290702)
(0.0114141 0 0.000315805)
(0.0112265 0 0.000335921)
(0.0110058 0 0.000350666)
(0.0107521 0 0.000359946)
(0.0104644 0 0.000363882)
(0.0101407 0 0.000362748)
(0.00977776 0 0.000356897)
(0.00937168 0 0.000346711)
(0.00891745 0 0.000332558)
(0.00840924 0 0.000314759)
(0.00784032 0 0.000293563)
(0.00720307 0 0.000269137)
(0.00648889 0 0.000241547)
(0.00568815 0 0.000210754)
(0.00479007 0 0.000176599)
(0.00378256 0 0.000138797)
(0.00265209 0 9.69265e-05)
(0.00138338 0 5.04121e-05)
(0 0 0)
(0.0110333 0 -0.00052078)
(0.0117685 0 -3.10487e-05)
(0.0116055 0 2.65924e-05)
(0.0115907 0 8.20457e-05)
(0.0116616 0 0.000136615)
(0.0117495 0 0.000194603)
(0.0118174 0 0.000257645)
(0.0118493 0 0.000325027)
(0.01184 0 0.000394526)
(0.0117894 0 0.000463194)
(0.0116995 0 0.00052798)
(0.0115731 0 0.000586187)
(0.0114128 0 0.000635731)
(0.0112204 0 0.000675229)
(0.0109966 0 0.000703972)
(0.0107412 0 0.000721818)
(0.0104527 0 0.000729049)
(0.0101288 0 0.000726228)
(0.00976625 0 0.000714072)
(0.00936079 0 0.000693346)
(0.00890734 0 0.000664777)
(0.00840001 0 0.000628997)
(0.00783201 0 0.000586496)
(0.0071957 0 0.000537594)
(0.00648247 0 0.000482416)
(0.0056827 0 0.000420872)
(0.00478559 0 0.00035264)
(0.0037791 0 0.000277144)
(0.00264971 0 0.000193535)
(0.00138215 0 0.000100658)
(0 0 0)
(0.0115125 0 0.000351834)
(0.0117861 0 0.000127425)
(0.0118227 0 0.000137443)
(0.0118524 0 0.000175697)
(0.0118944 0 0.000236557)
(0.0119357 0 0.000314601)
(0.0119585 0 0.000405716)
(0.011951 0 0.000505613)
(0.0119089 0 0.000609379)
(0.0118318 0 0.000711823)
(0.0117213 0 0.00080806)
(0.0115796 0 0.000893987)
(0.0114084 0 0.000966565)
(0.0112085 0 0.00102387)
(0.0109801 0 0.00106499)
(0.0107222 0 0.00108983)
(0.0104326 0 0.00109892)
(0.0101088 0 0.00109316)
(0.0097469 0 0.00107363)
(0.00934254 0 0.0010415)
(0.00889045 0 0.000997827)
(0.0083846 0 0.000943544)
(0.00781815 0 0.000879361)
(0.00718342 0 0.000805729)
(0.00647177 0 0.000722812)
(0.0056736 0 0.000630454)
(0.00477813 0 0.000528152)
(0.00377334 0 0.00041503)
(0.00264574 0 0.0002898)
(0.0013801 0 0.00015072)
(0 0 0)
(0.0120752 0 0.000506788)
(0.0120572 0 0.000235213)
(0.0120936 0 0.000238599)
(0.0121263 0 0.000279702)
(0.0121469 0 0.000353912)
(0.0121486 0 0.000454458)
(0.0121248 0 0.000574871)
(0.012072 0 0.000708082)
(0.0119898 0 0.000846416)
(0.0118796 0 0.000982261)
(0.0117433 0 0.00110883)
(0.0115824 0 0.00122073)
(0.0113976 0 0.00131413)
(0.0111888 0 0.00138679)
(0.010955 0 0.00143779)
(0.0106942 0 0.00146725)
(0.0104038 0 0.00147603)
(0.0100803 0 0.00146543)
(0.0097196 0 0.00143694)
(0.00931693 0 0.00139209)
(0.00886681 0 0.00133229)
(0.00836309 0 0.00125872)
(0.00779883 0 0.00117228)
(0.0071663 0 0.00107353)
(0.00645687 0 0.000962628)
(0.00566092 0 0.000839341)
(0.00476773 0 0.000702962)
(0.0037653 0 0.000552294)
(0.0026402 0 0.000385597)
(0.00137725 0 0.000200528)
(0 0 0)
(0.0123848 0 -0.000127777)
(0.0123771 0 0.000258336)
(0.0124082 0 0.000315102)
(0.0124291 0 0.000388614)
(0.0124205 0 0.000488589)
(0.0123775 0 0.000617527)
(0.0123018 0 0.000770693)
(0.0121978 0 0.000939298)
(0.0120703 0 0.001113)
(0.0119228 0 0.00128174)
(0.0117576 0 0.00143697)
(0.0115757 0 0.00157224)
(0.0113765 0 0.00168331)
(0.0111585 0 0.00176792)
(0.0109194 0 0.00182541)
(0.0106563 0 0.00185632)
(0.0103655 0 0.00186196)
(0.010043 0 0.00184407)
(0.00968423 0 0.00180457)
(0.00928394 0 0.00174536)
(0.0088365 0 0.00166814)
(0.00833556 0 0.00157432)
(0.00777413 0 0.00146493)
(0.00714444 0 0.00134059)
(0.00643784 0 0.00120144)
(0.00564474 0 0.00104712)
(0.00475446 0 0.000876698)
(0.00375504 0 0.000688629)
(0.00263311 0 0.000480705)
(0.00137359 0 0.000249966)
(0 0 0)
(0.0125589 0 0.000297863)
(0.0127266 0 0.000406086)
(0.012764 0 0.000448355)
(0.0127642 0 0.000529247)
(0.0127118 0 0.000651168)
(0.0126111 0 0.000811327)
(0.012474 0 0.00100111)
(0.0123126 0 0.0012079)
(0.012136 0 0.00141793)
(0.0119497 0 0.0016186)
(0.0117556 0 0.00179991)
(0.0115532 0 0.00195485)
(0.0113406 0 0.00207926)
(0.0111146 0 0.00217131)
(0.0108715 0 0.00223094)
(0.0106072 0 0.0022593)
(0.0103172 0 0.00225827)
(0.00999674 0 0.00223011)
(0.0096407 0 0.00217716)
(0.00924363 0 0.00210162)
(0.0087996 0 0.00200545)
(0.00830215 0 0.00189023)
(0.0077442 0 0.00175708)
(0.00711796 0 0.00160663)
(0.00641479 0 0.00143894)
(0.00562514 0 0.00125348)
(0.00473837 0 0.00104906)
(0.00374259 0 0.000823784)