/*--------------------------------*- C++ -*----------------------------------*\
| =========                 |                                                 |
| \\      /  F ield         | OpenFOAM: The Open Source CFD Toolbox           |
|  \\    /   O peration     | Version:  dev                                   |
|   \\  /    A nd           | Web:      www.OpenFOAM.org                      |
|    \\/     M anipulation  |                                                 |
\*---------------------------------------------------------------------------*/
FoamFile
{
    version     2.0;
    format      ascii;
    class       volVectorField;
    location    "0";
    object      U;
}
// * * * * * * * * * * * * * * * * * * * * * * * * * * * * * * * * * * * * * //

dimensions      [0 1 -1 0 0 0 0];

internalField   nonuniform List<vector> 
465
(
(10.2747 0 -3.22662)
(10.0763 0 -2.88287)
(10.5641 0 -3.01553)
(10.335 0 -2.72513)
(10.1574 0 -2.45586)
(10.0204 0 -2.20768)
(10.8034 0 -2.77845)
(10.5575 0 -2.54287)
(10.3616 0 -2.31615)
(10.2061 0 -2.10111)
(10.0834 0 -1.89911)
(10.992 0 -2.52815)
(10.7419 0 -2.34502)
(10.5372 0 -2.16044)
(10.3705 0 -1.97917)
(10.2356 0 -1.80417)
(10.127 0 -1.63719)
(10.0403 0 -1.47916)
(11.133 0 -2.27587)
(10.8889 0 -2.14005)
(10.6836 0 -1.995)
(10.5124 0 -1.84644)
(10.3705 0 -1.69833)
(10.2537 0 -1.55334)
(10.1581 0 -1.41322)
(10.0806 0 -1.27903)
(10.0181 0 -1.15136)
(11.232 0 -2.03048)
(11.001 0 -1.93527)
(10.8018 0 -1.82563)
(10.6317 0 -1.70743)
(10.4876 0 -1.58502)
(10.3664 0 -1.46159)
(10.2652 0 -1.33943)
(10.1813 0 -1.22012)
(10.1121 0 -1.10469)
(10.0557 0 -0.993782)
(11.2956 0 -1.79827)
(11.0822 0 -1.73644)
(10.8938 0 -1.65728)
(10.7292 0 -1.5662)
(10.5869 0 -1.46749)
(10.4648 0 -1.36451)
(10.3609 0 -1.2598)
(10.273 0 -1.15525)
(10.1993 0 -1.05223)
(10.1379 0 -0.951667)
(10.087 0 -0.854169)
(10.0454 0 -0.760069)
(11.3305 0 -1.58316)
(11.1372 0 -1.54773)
(10.9625 0 -1.49386)
(10.8068 0 -1.42621)
(10.6693 0 -1.34869)
(10.5492 0 -1.26452)
(10.4451 0 -1.17627)
(10.3555 0 -1.08598)
(10.279 0 -0.995182)
(10.2142 0 -0.905022)
(10.1597 0 -0.816313)
(10.1141 0 -0.72959)
(10.0764 0 -0.64516)
(11.343 0 -1.3871)
(11.1704 0 -1.37179)
(11.0112 0 -1.33825)
(10.8663 0 -1.29024)
(10.7361 0 -1.23112)
(10.6202 0 -1.16378)
(10.518 0 -1.09068)
(10.4287 0 -1.01381)
(10.3512 0 -0.934771)
(10.2845 0 -0.854821)
(10.2275 0 -0.774903)
(10.1791 0 -0.695698)
(10.1385 0 -0.617661)
(10.1046 0 -0.541054)
(10.0767 0 -0.46597)
(11.3387 0 -1.21059)
(11.1864 0 -1.21005)
(11.0431 0 -1.19235)
(10.9103 0 -1.16035)
(10.7888 0 -1.1168)
(10.6788 0 -1.06417)
(10.5802 0 -1.00467)
(10.4927 0 -0.940144)
(10.4157 0 -0.872174)
(10.3484 0 -0.80203)
(10.2901 0 -0.730722)
(10.24 0 -0.659018)
(10.1973 0 -0.587477)
(10.1612 0 -0.516471)
(10.1311 0 -0.446204)
(10.1064 0 -0.376736)
(11.3223 0 -1.05315)
(11.1891 0 -1.06301)
(11.0614 0 -1.05725)
(10.9411 0 -1.03796)
(10.8291 0 -1.00726)
(10.7261 0 -0.967197)
(10.6325 0 -0.919636)
(10.5481 0 -0.866248)
(10.4728 0 -0.808487)
(10.4061 0 -0.747581)
(10.3475 0 -0.684544)
(10.2966 0 -0.620183)
(10.2526 0 -0.555118)
(10.215 0 -0.489796)
(10.1834 0 -0.42451)
(10.157 0 -0.359407)
(10.1357 0 -0.294507)
(10.1189 0 -0.229712)
(11.2976 0 -0.913645)
(11.1817 0 -0.930463)
(11.0689 0 -0.933397)
(10.9609 0 -0.923912)
(10.8588 0 -0.903588)
(10.7635 0 -0.87402)
(10.6756 0 -0.836749)
(10.5953 0 -0.793209)
(10.5227 0 -0.744693)
(10.4576 0 -0.692337)
(10.3997 0 -0.637109)
(10.3487 0 -0.579814)
(10.3042 0 -0.521096)
(10.2658 0 -0.461447)
(10.2331 0 -0.401217)
(10.2056 0 -0.340626)
(10.1832 0 -0.279769)
(10.1654 0 -0.21863)
(10.1521 0 -0.157087)
(11.2675 0 -0.790634)
(11.1672 0 -0.811745)
(11.0682 0 -0.820753)
(10.9719 0 -0.818618)
(10.8796 0 -0.806459)
(10.7923 0 -0.785482)
(10.7106 0 -0.756909)
(10.6351 0 -0.721926)
(10.5659 0 -0.681643)
(10.5031 0 -0.637071)
(10.4466 0 -0.589103)
(10.3963 0 -0.538504)
(10.352 0 -0.485913)
(10.3133 0 -0.431837)
(10.2801 0 -0.376664)
(10.252 0 -0.320661)
(10.2288 0 -0.263984)
(10.2103 0 -0.206686)
(10.1964 0 -0.148721)
(10.1871 0 -0.0899554)
(11.2343 0 -0.682519)
(11.1478 0 -0.705928)
(11.0612 0 -0.718934)
(10.9759 0 -0.722115)
(10.8931 0 -0.716225)
(10.8137 0 -0.702136)
(10.7386 0 -0.680781)
(10.6682 0 -0.653109)
(10.6029 0 -0.620044)
(10.543 0 -0.582455)
(10.4885 0 -0.541139)
(10.4395 0 -0.496798)
(10.3959 0 -0.45004)
(10.3575 0 -0.401368)
(10.3242 0 -0.351182)
(10.2958 0 -0.29978)
(10.2723 0 -0.247362)
(10.2534 0 -0.194035)
(10.2391 0 -0.13982)
(10.2294 0 -0.0846548)
(10.2245 0 -0.0284112)
(11.1998 0 -0.587693)
(11.1253 0 -0.611935)
(11.0499 0 -0.627334)
(10.9746 0 -0.634189)
(10.9007 0 -0.632972)
(10.829 0 -0.624284)
(10.7603 0 -0.608811)
(10.6953 0 -0.587288)
(10.6343 0 -0.560458)
(10.5777 0 -0.52905)
(10.5257 0 -0.493749)
(10.4784 0 -0.455184)
(10.436 0 -0.413913)
(10.3983 0 -0.370415)
(10.3653 0 -0.325088)
(10.3371 0 -0.278244)
(10.3134 0 -0.23011)
(10.2943 0 -0.180836)
(10.2799 0 -0.130493)
(10.2701 0 -0.079085)
(10.2651 0 -0.0265553)
(11.1652 0 -0.504612)
(11.1011 0 -0.52864)
(11.0356 0 -0.545214)
(10.9694 0 -0.55444)
(10.9038 0 -0.556581)
(10.8393 0 -0.552026)
(10.777 0 -0.541258)
(10.7172 0 -0.524825)
(10.6606 0 -0.503309)
(10.6075 0 -0.4773)
(10.5584 0 -0.447376)
(10.5132 0 -0.414081)
(10.4723 0 -0.377916)
(10.4357 0 -0.339322)
(10.4034 0 -0.298679)
(10.3756 0 -0.2563)
(10.3521 0 -0.212428)
(10.3331 0 -0.167241)
(10.3186 0 -0.12085)
(10.3087 0 -0.0733102)
(10.3037 0 -0.0246283)
(11.1314 0 -0.43184)
(11.0764 0 -0.454923)
(11.0195 0 -0.471766)
(10.9615 0 -0.482349)
(10.9033 0 -0.486784)
(10.8457 0 -0.4853)
(10.7892 0 -0.478219)
(10.7347 0 -0.465933)
(10.6825 0 -0.448885)
(10.6331 0 -0.427541)
(10.5869 0 -0.402372)
(10.5441 0 -0.373839)
(10.505 0 -0.342378)
(10.4697 0 -0.308387)
(10.4384 0 -0.272218)
(10.4112 0 -0.234173)
(10.3882 0 -0.1945)
(10.3694 0 -0.153392)
(10.3551 0 -0.110991)
(10.3453 0 -0.0673917)
(10.3403 0 -0.0226508)
(11.0992 0 -0.368068)
(11.0519 0 -0.389712)
(11.0025 0 -0.406164)
(10.9517 0 -0.417324)
(10.9003 0 -0.423204)
(10.8488 0 -0.423916)
(10.798 0 -0.419657)
(10.7484 0 -0.410697)
(10.7005 0 -0.397359)
(10.6548 0 -0.379999)
(10.6116 0 -0.358996)
(10.5713 0 -0.334729)
(10.5342 0 -0.307568)
(10.5005 0 -0.277864)
(10.4703 0 -0.245935)
(10.444 0 -0.212063)
(10.4215 0 -0.176492)
(10.4032 0 -0.139421)
(10.3891 0 -0.101012)
(10.3794 0 -0.0613863)
(10.3745 0 -0.0206418)
(11.069 0 -0.312111)
(11.0283 0 -0.331995)
(10.9854 0 -0.347584)
(10.9409 0 -0.358735)
(10.8955 0 -0.365394)
(10.8496 0 -0.36759)
(10.8039 0 -0.365431)
(10.7589 0 -0.359089)
(10.7151 0 -0.348792)
(10.673 0 -0.334805)
(10.6328 0 -0.317421)
(10.5951 0 -0.296947)
(10.5601 0 -0.273691)
(10.528 0 -0.247954)
(10.4992 0 -0.220016)
(10.4738 0 -0.190137)
(10.4521 0 -0.158546)
(10.4343 0 -0.125441)
(10.4206 0 -0.0909932)
(10.4111 0 -0.0553442)
(10.4063 0 -0.0186181)
(11.0412 0 -0.262904)
(11.006 0 -0.280833)
(10.9687 0 -0.295232)
(10.9297 0 -0.305937)
(10.8895 0 -0.312857)
(10.8487 0 -0.315968)
(10.8077 0 -0.315312)
(10.7669 0 -0.31099)
(10.7269 0 -0.303154)
(10.6881 0 -0.291995)
(10.6509 0 -0.277735)
(10.6157 0 -0.260616)
(10.5828 0 -0.240888)
(10.5524 0 -0.218803)
(10.525 0 -0.194606)
(10.5007 0 -0.168526)
(10.4799 0 -0.140776)
(10.4627 0 -0.111545)
(10.4493 0 -0.0810051)
(10.4402 0 -0.0493078)
(10.4355 0 -0.0165942)
(11.016 0 -0.219492)
(10.9855 0 -0.235357)
(10.9529 0 -0.248342)
(10.9186 0 -0.258282)
(10.8831 0 -0.265067)
(10.8466 0 -0.268641)
(10.8097 0 -0.269003)
(10.7728 0 -0.266202)
(10.7363 0 -0.260332)
(10.7007 0 -0.251527)
(10.6662 0 -0.239949)
(10.6334 0 -0.225785)
(10.6025 0 -0.209234)
(10.5739 0 -0.190504)
(10.5479 0 -0.169801)
(10.5247 0 -0.147325)
(10.5047 0 -0.123267)
(10.4882 0 -0.0978043)
(10.4753 0 -0.0711008)
(10.4665 0 -0.0433103)
(10.4619 0 -0.0145812)
(10.9935 0 -0.181007)
(10.9669 0 -0.194758)
(10.9383 0 -0.206184)
(10.9081 0 -0.215129)
(10.8764 0 -0.221479)
(10.8438 0 -0.225162)
(10.8105 0 -0.22615)
(10.777 0 -0.224458)
(10.7437 0 -0.220139)
(10.7109 0 -0.213281)
(10.679 0 -0.204)
(10.6484 0 -0.192435)
(10.6195 0 -0.178744)
(10.5925 0 -0.163091)
(10.5678 0 -0.145649)
(10.5458 0 -0.126587)
(10.5267 0 -0.106073)
(10.5108 0 -0.0842648)
(10.4985 0 -0.0613162)
(10.4899 0 -0.0373746)
(10.4856 0 -0.0125872)
(10.9739 0 -0.14666)
(10.9505 0 -0.158282)
(10.9253 0 -0.168055)
(10.8984 0 -0.175841)
(10.8701 0 -0.181531)
(10.8407 0 -0.185049)
(10.8105 0 -0.186353)
(10.78 0 -0.185436)
(10.7494 0 -0.182324)
(10.7191 0 -0.17707)
(10.6895 0 -0.169755)
(10.6609 0 -0.160482)
(10.6338 0 -0.149368)
(10.6083 0 -0.136545)
(10.5849 0 -0.122151)
(10.564 0 -0.106326)
(10.5457 0 -0.0892115)
(10.5305 0 -0.070947)
(10.5186 0 -0.0516689)
(10.5104 0 -0.0315126)
(10.5062 0 -0.0106162)
(10.9572 0 -0.115714)
(10.9365 0 -0.125212)
(10.914 0 -0.133276)
(10.8898 0 -0.139787)
(10.8642 0 -0.144649)
(10.8375 0 -0.147791)
(10.81 0 -0.149167)
(10.782 0 -0.148759)
(10.7537 0 -0.146574)
(10.7256 0 -0.142642)
(10.698 0 -0.137019)
(10.6712 0 -0.129775)
(10.6456 0 -0.120999)
(10.6215 0 -0.11079)
(10.5993 0 -0.0992565)
(10.5793 0 -0.0865103)
(10.5618 0 -0.0726675)
(10.5472 0 -0.0578442)
(10.5358 0 -0.0421571)
(10.5278 0 -0.0257243)
(10.5238 0 -0.00866842)
(10.9436 0 -0.0874707)
(10.925 0 -0.0948583)
(10.9046 0 -0.101176)
(10.8826 0 -0.106329)
(10.8592 0 -0.11024)
(10.8347 0 -0.112846)
(10.8092 0 -0.114106)
(10.7832 0 -0.113998)
(10.7569 0 -0.112519)
(10.7305 0 -0.109686)
(10.7046 0 -0.105531)
(10.6793 0 -0.100105)
(10.655 0 -0.0934697)
(10.632 0 -0.0856972)
(10.6108 0 -0.0768684)
(10.5916 0 -0.0670694)
(10.5748 0 -0.0563899)
(10.5608 0 -0.0449217)
(10.5497 0 -0.0327588)
(10.5421 0 -0.0199978)
(10.5381 0 -0.00674019)
(10.9332 0 -0.0612482)
(10.9161 0 -0.0665349)
(10.8973 0 -0.0710802)
(10.8769 0 -0.0748153)
(10.8552 0 -0.0776818)
(10.8323 0 -0.0796334)
(10.8085 0 -0.0806365)
(10.784 0 -0.0806711)
(10.7591 0 -0.0797312)
(10.7342 0 -0.077824)
(10.7094 0 -0.0749694)
(10.6853 0 -0.0711986)
(10.662 0 -0.0665527)
(10.64 0 -0.0610811)
(10.6196 0 -0.0548396)
(10.601 0 -0.0478886)
(10.5848 0 -0.0402923)
(10.5712 0 -0.0321171)
(10.5605 0 -0.0234321)
(10.553 0 -0.0143088)
(10.5492 0 -0.00482356)
(10.9261 0 -0.036358)
(10.91 0 -0.0395431)
(10.8922 0 -0.0422913)
(10.873 0 -0.0445606)
(10.8523 0 -0.0463151)
(10.8306 0 -0.0475257)
(10.8078 0 -0.0481709)
(10.7844 0 -0.0482371)
(10.7605 0 -0.0477187)
(10.7365 0 -0.0466185)
(10.7127 0 -0.0449467)
(10.6893 0 -0.0427205)
(10.6668 0 -0.0399632)
(10.6454 0 -0.0367035)
(10.6255 0 -0.0329741)
(10.6075 0 -0.0288111)
(10.5916 0 -0.0242529)
(10.5783 0 -0.0193401)
(10.5678 0 -0.0141147)
(10.5605 0 -0.00862108)
(10.5567 0 -0.00290654)
(10.9224 0 -0.0120794)
(10.9068 0 -0.0131456)
(10.8896 0 -0.0140672)
(10.8709 0 -0.01483)
(10.8509 0 -0.015422)
(10.8296 0 -0.0158331)
(10.8075 0 -0.016056)
(10.7846 0 -0.0160858)
(10.7612 0 -0.0159204)
(10.7377 0 -0.0155604)
(10.7143 0 -0.0150089)
(10.6914 0 -0.0142714)
(10.6692 0 -0.0133555)
(10.6482 0 -0.0122705)
(10.6286 0 -0.0110273)
(10.6108 0 -0.00963794)
(10.5951 0 -0.0081152)
(10.5819 0 -0.00647269)
(10.5716 0 -0.00472466)
(10.5644 0 -0.00288609)
(10.5606 0 -0.000973084)
)
;

boundaryField
{
    inlet
    {
        type            fixedValue;
        value           nonuniform 0();
    }
    outlet
    {
        type            zeroGradient;
    }
    flap
    {
        type            movingWallVelocity;
        value           nonuniform 0();
    }
    upperWall
    {
        type            noSlip;
    }
    lowerWall
    {
        type            noSlip;
    }
    frontAndBack
    {
        type            empty;
    }
    procBoundary2to1
    {
        type            processor;
        value           nonuniform List<vector> 
17
(
(11.4145 0 -0.88171)
(11.3672 0 -0.756714)
(11.3192 0 -0.648373)
(11.272 0 -0.55452)
(11.2266 0 -0.473201)
(11.1837 0 -0.402684)
(11.1438 0 -0.341447)
(11.1071 0 -0.288165)
(11.0739 0 -0.241675)
(11.044 0 -0.200963)
(11.0178 0 -0.165125)
(10.9951 0 -0.133357)
(10.9759 0 -0.104919)
(10.9604 0 -0.079121)
(10.9485 0 -0.0552974)
(10.9404 0 -0.0327824)
(10.9363 0 -0.010884)
)
;
    }
    procBoundary2to4
    {
        type            processor;
        value           nonuniform List<vector> 
11
(
(10.5383 0 -3.60811)
(10.8594 0 -3.32555)
(11.1109 0 -3.01764)
(11.2955 0 -2.70245)
(11.4209 0 -2.39441)
(11.4969 0 -2.10363)
(11.5338 0 -1.83618)
(11.5411 0 -1.59486)
(11.5268 0 -1.38018)
(11.4977 0 -1.19108)
(11.459 0 -1.0257)
)
;
    }
    procBoundary2to5
    {
        type            processor;
        value           nonuniform List<vector> 
34
(
(9.94034 0 -3.39896)
(9.78625 0 -3.00768)
(9.92707 0 -2.57333)
(9.92707 0 -2.57333)
(9.81574 0 -2.29453)
(9.91535 0 -1.9798)
(9.91535 0 -1.9798)
(9.98721 0 -1.71056)
(9.98721 0 -1.71056)
(9.91255 0 -1.53534)
(9.97161 0 -1.33045)
(9.97161 0 -1.33045)
(9.9178 0 -1.19107)
(9.96823 0 -1.03043)
(9.96823 0 -1.03043)
(10.0099 0 -0.887706)
(10.0099 0 -0.887706)
(9.97317 0 -0.786542)
(10.0114 0 -0.669483)
(10.0114 0 -0.669483)
(10.0455 0 -0.563142)
(10.0455 0 -0.563142)
(10.0203 0 -0.483491)
(10.054 0 -0.392356)
(10.054 0 -0.392356)
(10.0865 0 -0.307993)
(10.0865 0 -0.307993)
(10.071 0 -0.239778)
(10.1064 0 -0.16481)
(10.1064 0 -0.16481)
(10.1432 0 -0.0949216)
(10.1432 0 -0.0949216)
(10.1823 0 -0.0301747)
(10.1823 0 -0.0301747)
)
;
    }
}


// ************************************************************************* //
