/*--------------------------------*- C++ -*----------------------------------*\
| =========                 |                                                 |
| \\      /  F ield         | OpenFOAM: The Open Source CFD Toolbox           |
|  \\    /   O peration     | Version:  dev                                   |
|   \\  /    A nd           | Web:      www.OpenFOAM.org                      |
|    \\/     M anipulation  |                                                 |
\*---------------------------------------------------------------------------*/
FoamFile
{
    version     2.0;
    format      ascii;
    class       surfaceScalarField;
    location    "4.18";
    object      phi;
}
// * * * * * * * * * * * * * * * * * * * * * * * * * * * * * * * * * * * * * //

dimensions      [0 3 -1 0 0 0 0];

internalField   nonuniform List<scalar> 
5457
(
0.198364
0.00163279
0.196437
0.00192389
0.194186
0.00224906
0.191573
0.00261372
0.188593
0.00298075
0.185249
0.0033468
0.181532
0.00371971
0.177429
0.00410656
0.172921
0.00451235
0.167984
0.00494102
0.162591
0.00539602
0.156714
0.00588036
0.150319
0.00639641
0.143374
0.00694561
0.135846
0.00752803
0.127703
0.00814178
0.118919
0.00878225
0.109476
0.00944115
0.0993678
0.0101054
0.0886089
0.0107562
0.0772386
0.0113675
0.0653304
0.0119055
0.0530004
0.0123276
0.0404153
0.0125832
0.0277954
0.0126184
0.0153765
0.0124179
0.00309357
0.0122823
-0.00423923
0.00733249
-0.0057876
0.00154824
-0.00578763
0.199955
0.00167406
0.199231
0.00264473
0.198081
0.00339768
0.196535
0.00415991
0.194589
0.00492815
0.19224
0.00569803
0.189481
0.0064816
0.1863
0.00729198
0.182677
0.00813925
0.17859
0.00903155
0.174014
0.00997612
0.168917
0.0109793
0.163269
0.0120464
0.157035
0.0131808
0.150179
0.0143835
0.142668
0.0156517
0.134471
0.0169773
0.125565
0.0183452
0.115938
0.0197305
0.105595
0.0210966
0.0945671
0.0223922
0.0829211
0.0235488
0.0707682
0.0244781
0.0582813
0.0250683
0.045721
0.0251772
0.0335436
0.0245944
0.0229853
0.02284
0.0123442
0.0179733
0.00297108
0.0109212
-0.00281657
0.199806
0.0018645
0.199142
0.00330575
0.198059
0.00447907
0.196607
0.00561189
0.194791
0.00674539
0.192607
0.00788369
0.190051
0.0090412
0.187112
0.0102353
0.183774
0.0114806
0.180021
0.0127893
0.175828
0.0141724
0.17117
0.0156398
0.166019
0.0171996
0.160342
0.0188583
0.154107
0.0206187
0.147279
0.022479
0.139824
0.0244305
0.131712
0.0264544
0.122921
0.028519
0.113439
0.0305753
0.103276
0.0325527
0.0924685
0.0343539
0.0810946
0.0358496
0.0692915
0.0368695
0.0572817
0.0371856
0.0454044
0.0364707
0.0340386
0.0342052
0.0226101
0.0294015
0.0117673
0.0217638
0.00895068
0.199722
0.00213915
0.199058
0.0039664
0.197993
0.00554258
0.196563
0.00704157
0.19478
0.00852902
0.192644
0.0100223
0.19015
0.0115388
0.18729
0.0130988
0.184054
0.0147205
0.180428
0.0164195
0.176394
0.0182097
0.171934
0.0201035
0.167023
0.0221119
0.161639
0.0242434
0.155755
0.026503
0.149342
0.0288907
0.142372
0.0313986
0.134817
0.0340077
0.126649
0.0366839
0.117849
0.0393727
0.108406
0.0419928
0.0983275
0.0444298
0.0876466
0.046528
0.0764332
0.048081
0.0647989
0.0488184
0.0528797
0.0483889
0.0407564
0.0463279
0.0282067
0.0419509
0.0150172
0.0349532
0.0239679
0.199681
0.0024539
0.199009
0.00463562
0.19796
0.00658978
0.196555
0.00844667
0.194806
0.0102791
0.192713
0.0121167
0.190274
0.0139814
0.187481
0.0158957
0.184325
0.0178806
0.180794
0.0199546
0.176874
0.0221336
0.172548
0.0244322
0.167799
0.026863
0.162607
0.0294363
0.156951
0.0321586
0.15081
0.0350313
0.144159
0.0380481
0.136973
0.0411913
0.129226
0.0444279
0.120893
0.0477032
0.111949
0.0509341
0.102375
0.0540012
0.0921603
0.05674
0.0813069
0.0589324
0.0698247
0.0602992
0.0577163
0.0604963
0.0449347
0.0591088
0.0312703
0.055615
0.0164085
0.0498149
0.0403763
0.199663
0.00278671
0.198987
0.00530827
0.197958
0.00761732
0.196584
0.00981976
0.194877
0.0119874
0.192838
0.0141586
0.190462
0.0163601
0.187744
0.0186172
0.184676
0.0209532
0.181246
0.0233886
0.177441
0.0259417
0.173248
0.0286286
0.168649
0.0314636
0.163629
0.034458
0.158167
0.0376201
0.152245
0.0409525
0.145841
0.0444508
0.13893
0.0480999
0.131486
0.0518699
0.123476
0.0557102
0.114865
0.0595426
0.10561
0.063253
0.095665
0.0666824
0.0849771
0.0696183
0.0734845
0.0717903
0.0611096
0.0728701
0.0477387
0.0724791
0.033181
0.0701724
0.017242
0.0657538
0.0576182
0.199657
0.0031253
0.198986
0.00597645
0.19798
0.00862103
0.196645
0.0111546
0.194987
0.0136459
0.193009
0.0161387
0.190708
0.0186647
0.188077
0.0212516
0.18511
0.023925
0.181794
0.0267077
0.17812
0.0296198
0.174072
0.0326793
0.169636
0.0359019
0.164795
0.0393006
0.15953
0.0428851
0.153821
0.0466603
0.147646
0.0506244
0.140978
0.0547659
0.133785
0.0590602
0.126028
0.0634642
0.117659
0.0679097
0.108613
0.0722953
0.0988162
0.0764772
0.0881729
0.0802596
0.0765728
0.083389
0.0638893
0.0855525
0.0499797
0.086388
0.0346891
0.0854626
0.0179425
0.0825003
0.0755607
0.199659
0.00346217
0.198999
0.00663286
0.198022
0.00959609
0.19673
0.0124454
0.19513
0.015247
0.193223
0.0180482
0.191006
0.0208846
0.188474
0.0237869
0.185621
0.0267827
0.182436
0.0298969
0.178907
0.0331517
0.175023
0.0365667
0.170767
0.0401597
0.166124
0.0439455
0.161073
0.0479363
0.155593
0.0521397
0.149658
0.0565579
0.143237
0.0611847
0.136292
0.0660028
0.128774
0.0709797
0.120619
0.0760616
0.111746
0.0811656
0.102051
0.0861699
0.0914053
0.0909029
0.07966
0.0951327
0.0666522
0.0985592
0.0522223
0.100817
0.0362386
0.101446
0.0187079
0.100031
0.0942686
0.199665
0.00379232
0.199023
0.00727135
0.198079
0.0105374
0.196838
0.0136864
0.195302
0.0167836
0.193473
0.0198784
0.191351
0.0230101
0.18893
0.0262118
0.186203
0.0295134
0.183163
0.0329417
0.179797
0.0365209
0.176094
0.0402727
0.17204
0.0442168
0.167616
0.0483708
0.162803
0.0527497
0.157577
0.0573651
0.151909
0.0622244
0.145763
0.0673287
0.139093
0.0726702
0.131841
0.0782298
0.123927
0.0839726
0.11525
0.0898394
0.105681
0.0957366
0.0950568
0.101525
0.0831871
0.107001
0.0698684
0.111877
0.054911
0.115774
0.0381777
0.118179
0.0197222
0.118486
0.113991
0.199675
0.00411218
0.199056
0.00788683
0.198151
0.01144
0.196964
0.0148723
0.195499
0.018249
0.193758
0.0216216
0.191739
0.0250319
0.189439
0.0285157
0.186852
0.0321049
0.183969
0.0358281
0.180782
0.0397115
0.177279
0.043779
0.173446
0.0480526
0.169266
0.0525527
0.164718
0.057298
0.159777
0.0623051
0.154413
0.0675877
0.148584
0.0731559
0.142239
0.0790127
0.13531
0.0851562
0.127705
0.0915752
0.119303
0.0982386
0.109949
0.105088
0.0994421
0.11203
0.0875383
0.118903
0.0739712
0.125443
0.0584844
0.13126
0.040884
0.135779
0.0212222
0.138148
0.135213
0.199688
0.00441908
0.199095
0.00847507
0.198234
0.0122992
0.197107
0.0159977
0.195719
0.0196371
0.194073
0.0232703
0.192166
0.0269415
0.189996
0.0306888
0.18756
0.0345458
0.184849
0.038543
0.181856
0.0427085
0.17857
0.0470682
0.174978
0.0516466
0.171066
0.0564672
0.166812
0.0615526
0.162192
0.0669249
0.157173
0.0726052
0.151716
0.0786115
0.145765
0.0849617
0.139244
0.0916752
0.13205
0.0987658
0.12405
0.106237
0.115059
0.114076
0.104842
0.122245
0.0930904
0.130653
0.0794338
0.139098
0.0634823
0.147211
0.0448861
0.154375
0.0235842
0.15945
0.158797
0.199703
0.00471089
0.199141
0.00903254
0.198326
0.0131108
0.197265
0.0170581
0.19596
0.0209423
0.194414
0.024818
0.192627
0.0287312
0.190597
0.0327219
0.188321
0.0368256
0.185794
0.0410743
0.183009
0.0454977
0.179957
0.0501237
0.176627
0.0549792
0.173006
0.0600905
0.169075
0.0654843
0.164811
0.0711884
0.160187
0.077229
0.155163
0.0836334
0.149684
0.0904391
0.143671
0.0976861
0.137021
0.105413
0.129592
0.113663
0.121181
0.122484
0.111519
0.131905
0.100237
0.141934
0.0868277
0.152506
0.0706674
0.163371
0.0510631
0.173979
0.0275555
0.182957
0.186353
0.199719
0.00498593
0.199191
0.00955628
0.198427
0.0138712
0.197435
0.0180491
0.196217
0.0221596
0.194778
0.0262587
0.193118
0.030394
0.191237
0.0346072
0.189131
0.038935
0.186798
0.0434111
0.184234
0.0480663
0.181431
0.0529304
0.178381
0.058032
0.175073
0.0634002
0.171493
0.0690651
0.167623
0.0750586
0.16344
0.0814114
0.158908
0.088164
0.153976
0.0953699
0.148576
0.103084
0.142616
0.111371
0.135959
0.120317
0.128411
0.130029
0.119687
0.140627
0.109373
0.152247
0.0968418
0.165036
0.0811617
0.17905
0.0610119
0.194128
0.0348343
0.209135
0.221187
0.199737
0.00524282
0.199244
0.0100438
0.198535
0.0145773
0.197615
0.018967
0.19649
0.0232846
0.195163
0.0275872
0.193636
0.0319239
0.191909
0.0363375
0.189982
0.040866
0.187853
0.0455439
0.18552
0.0504032
0.182979
0.0554748
0.180225
0.0607889
0.177251
0.0663763
0.174049
0.0722694
0.170606
0.0785019
0.166904
0.0851123
0.162915
0.092152
0.158604
0.09968
0.153922
0.107764
0.148797
0.116494
0.143125
0.125987
0.13675
0.136401
0.129432
0.147944
0.12078
0.160897
0.110165
0.17565
0.0964765
0.192738
0.0776449
0.21296
0.0497153
0.237064
0.270902
0.199756
0.00548059
0.199301
0.0104933
0.198648
0.0152264
0.197804
0.0198087
0.196775
0.0243138
0.195564
0.0287995
0.194174
0.0333162
0.192607
0.0379075
0.190865
0.0426121
0.188948
0.0474653
0.186855
0.0524998
0.184587
0.0577468
0.182141
0.0632374
0.179517
0.0690033
0.17671
0.0750778
0.173716
0.0814959
0.170526
0.0883031
0.167124
0.0955533
0.163496
0.103307
0.159618
0.11164
0.155453
0.120656
0.150949
0.130488
0.146028
0.14132
0.140563
0.153406
0.134343
0.167116
0.126996
0.182996
0.117762
0.201971
0.104778
0.225943
0.0821337
0.259709
0.353036
0.00478271
-0.00478277
0.00949581
-0.00471337
0.0135724
-0.00407733
0.0169582
-0.0033872
0.0197005
-0.00274449
0.0218475
-0.00215037
0.0234367
-0.00159356
0.0245008
-0.00106951
0.0250791
-0.000584516
0.0252313
-0.000158658
0.0250458
0.000179521
0.0246316
0.000408584
0.0240994
0.000527128
0.0235451
0.000550058
0.0230379
0.000503879
0.0226209
0.000414884
0.0223164
0.000303756
0.0221307
0.000186359
0.0220581
7.45814e-05
0.0220874
-2.5925e-05
0.0222072
-0.000115037
0.0224079
-0.000194842
0.0226832
-0.000268294
0.0230263
-0.000335089
0.0234253
-0.000390176
0.0238656
-0.000430691
0.0243417
-0.000465702
0.0248678
-0.00051511
0.0254579
-0.000578427
-0.000562082
0.00429384
-0.00907668
0.00858479
-0.00900458
0.0123971
-0.00789035
0.0156651
-0.0066566
0.0184408
-0.00552253
0.0207775
-0.00449034
0.0227127
-0.00353321
0.0242746
-0.00263682
0.0254827
-0.00179885
0.0263476
-0.00103006
0.0268787
-0.000357635
0.0271282
0.000153474
0.0272014
0.00044888
0.0271982
0.000548914
0.0271871
0.000511688
0.0272098
0.000390165
0.0272869
0.000225867
0.0274216
5.22312e-05
0.0276019
-0.00010367
0.0278042
-0.000224828
0.0280035
-0.000309649
0.0281852
-0.000370689
0.0283479
-0.000423982
0.0284967
-0.000475899
0.0286361
-0.000520761
0.0287655
-0.000550485
0.0288808
-0.000570642
0.0289914
-0.00061471
0.0291441
-0.000719423
-0.000796232
0.00357558
-0.0126523
0.00706043
-0.0124897
0.0101268
-0.0109575
0.0127831
-0.00931432
0.0150868
-0.00782852
0.017081
-0.00648787
0.0187948
-0.00525139
0.0202493
-0.00409673
0.0214607
-0.00301664
0.0224465
-0.00202233
0.02323
-0.00114721
0.0238172
-0.00043937
0.0242277
3.32864e-05
0.0245238
0.000248442
0.0247597
0.000272396
0.0249605
0.000187226
0.0251331
5.24818e-05
0.0252711
-8.52091e-05
0.0253603
-0.0001909
0.0253824
-0.000243641
0.0253198
-0.000242367
0.0251638
-0.00020884
0.0249216
-0.00017487
0.0246157
-0.000161987
0.0242733
-0.000169585
0.0239199
-0.000187554
0.0235779
-0.000218259
0.023276
-0.000301848
0.0230811
-0.000512899
-0.000845578
0.00284182
-0.0154942
0.00543259
-0.0150807
0.00763417
-0.0131598
0.00954774
-0.0112293
0.0112359
-0.00951898
0.0127329
-0.0079882
0.0140624
-0.00658534
0.0152406
-0.00528037
0.0162762
-0.00405852
0.0171738
-0.00292645
0.0179428
-0.0019224
0.0185918
-0.00109403
0.0191021
-0.000482168
0.019458
-0.000111834
0.0196741
5.2816e-05
0.0197582
0.000100927
0.0196986
0.000111153
0.0194874
0.00012635
0.0191365
0.000161901
0.0186805
0.000215575
0.0181693
0.000273373
0.0176528
0.00031345
0.0171718
0.000313039
0.0167578
0.000259844
0.0164338
0.00016318
0.0161977
5.80213e-05
0.0160027
-1.30193e-05
0.0158056
-9.37748e-05
0.0156277
-0.000323281
-0.000868461
0.00205194
-0.0175462
0.00370542
-0.0167345
0.00500183
-0.0144569
0.00611248
-0.0123414
0.00709182
-0.0105006
0.00797126
-0.00887097
0.00877423
-0.00739271
0.00951545
-0.006027
0.0102074
-0.00475674
0.0108475
-0.00357318
0.0113962
-0.00247723
0.0118144
-0.00151794
0.0120922
-0.000765207
0.0122285
-0.00025266
0.0122251
5.26496e-05
0.0120965
0.000227162
0.0118685
0.000338051
0.0115748
0.000420337
0.0112503
0.000488136
0.0109244
0.000544571
0.0106163
0.000585874
0.0103328
0.000602607
0.0100692
0.000583453
0.00981357
0.000523214
0.00955423
0.000431177
0.00928868
0.000333019
0.00902904
0.000256813
0.00874688
0.000199293
0.00842804
7.19089e-06
-0.000660869
0.00121357
-0.0187598
0.00191453
-0.0174357
0.0023179
-0.014861
0.0026116
-0.0126365
0.00283169
-0.010723
0.00300874
-0.00905134
0.00316631
-0.00755466
0.00330861
-0.00617468
0.00344898
-0.00490339
0.00361625
-0.00374701
0.00382342
-0.00269061
0.00405832
-0.00175864
0.0042837
-0.000995938
0.00445457
-0.000428167
0.0045456
-4.20683e-05
0.00456045
0.000209788
0.00451738
0.000379891
0.004434
0.000503863
0.00432255
0.00060114
0.00418843
0.000681641
0.00403074
0.000747836
0.00384358
0.000795281
0.00361839
0.000815275
0.00334769
0.000801554
0.00302857
0.000758839
0.0026641
0.000706854
0.00226479
0.000666238
0.00186666
0.000608285
0.00151402
0.00037143
-0.000257635
0.000332615
-0.0190925
8.74965e-05
-0.0171909
-0.000352771
-0.0144215
-0.000852161
-0.0121386
-0.00137192
-0.0102056
-0.00186816
-0.0085584
-0.00230721
-0.00711996
-0.00263783
-0.00584943
-0.0028319
-0.00471556
-0.00289921
-0.00368626
-0.00284409
-0.00275197
-0.00268351
-0.00192508
-0.00245859
-0.00122631
-0.0022225
-0.000669012
-0.00202089
-0.000247506
-0.00187664
6.28539e-05
-0.00179419
0.000296035
-0.00177267
0.000482312
-0.00181123
0.000641079
-0.00190957
0.000782752
-0.00206681
0.000909175
-0.00228092
0.00101473
-0.00254931
0.00109014
-0.00286965
0.0011294
-0.00324022
0.00113784
-0.00365871
0.00113461
-0.00411545
0.00113302
-0.00457466
0.00107829
-0.00498726
0.000795594
0.000258836
-0.000602672
-0.0184899
-0.00173823
-0.0160556
-0.00297115
-0.0131893
-0.00419715
-0.010914
-0.00534072
-0.0090643
-0.0063451
-0.0075573
-0.0071573
-0.00631208
-0.00775468
-0.00525736
-0.00815044
-0.00432599
-0.0083612
-0.00348203
-0.00840724
-0.0027122
-0.00832083
-0.00201743
-0.00814735
-0.00140533
-0.00793955
-0.0008817
-0.00774647
-0.000444554
-0.00760317
-8.32968e-05
-0.00752678
0.000218065
-0.00752179
0.000477106
-0.00758777
0.000708248
-0.00772166
0.000919221
-0.00791897
0.0011104
-0.00817514
0.00127606
-0.00848717
0.00140848
-0.00885432
0.0015039
-0.00927653
0.00156833
-0.00974978
0.00161701
-0.0102595
0.0016527
-0.0107814
0.00161094
-0.0113228
0.00134843
0.000909286
-0.00155239
-0.0169376
-0.00355512
-0.0140532
-0.00557152
-0.0111737
-0.00747129
-0.00901565
-0.0091328
-0.00740507
-0.0104973
-0.00619605
-0.0115561
-0.00525754
-0.0123401
-0.00447869
-0.0128787
-0.00379347
-0.0132043
-0.00316292
-0.013353
-0.00256987
-0.0133658
-0.00201059
-0.0132896
-0.00148709
-0.0131742
-0.00100211
-0.013065
-0.000557883
-0.0129953
-0.000156019
-0.0129831
0.000204141
-0.0130345
0.000528043
-0.0131495
0.000824324
-0.0133271
0.00109911
-0.0135658
0.00135283
-0.0138655
0.00158074
-0.0142274
0.00177653
-0.0146534
0.00193706
-0.0151427
0.00206584
-0.0156869
0.00217023
-0.016265
0.0022406
-0.0168533
0.00220992
-0.0174646
0.00197124
0.001621
-0.00257025
-0.0143674
-0.00553279
-0.0110909
-0.00837954
-0.00832767
-0.0108826
-0.00651408
-0.0129454
-0.00534453
-0.0145776
-0.00456709
-0.015831
-0.00400835
-0.0167563
-0.00355863
-0.0174066
-0.00314926
-0.0178332
-0.00274276
-0.0180833
-0.00232603
-0.0182012
-0.00189877
-0.0182311
-0.00146284
-0.0182182
-0.00102013
-0.0182031
-0.000577194
-0.0182157
-0.000146558
-0.0182726
0.000259182
-0.0183812
0.000636033
-0.0185453
0.000989182
-0.0187687
0.00132473
-0.0190558
0.00164339
-0.0194098
0.00193954
-0.0198321
0.00220482
-0.0203206
0.00243253
-0.0208673
0.00262053
-0.0214562
0.00276803
-0.0220639
0.002858
-0.0226745
0.00283111
-0.0233115
0.00261966
0.00235007
-0.00376589
-0.0106016
-0.00793011
-0.00692699
-0.0116207
-0.00463784
-0.0146408
-0.00349543
-0.0170231
-0.00296451
-0.0188546
-0.00273888
-0.0202334
-0.00263373
-0.0212478
-0.00254945
-0.0219731
-0.00242995
-0.0224747
-0.00224755
-0.0228061
-0.00200091
-0.0230101
-0.00170087
-0.0231263
-0.00135238
-0.0231966
-0.000954958
-0.0232605
-0.000517546
-0.0233467
-6.36709e-05
-0.0234704
0.000380817
-0.0236392
0.000804114
-0.0238597
0.00121029
-0.02414
0.00160698
-0.0244874
0.00199417
-0.0249055
0.00236218
-0.0253917
0.00269682
-0.0259378
0.00298545
-0.0265298
0.00322036
-0.027149
0.00339594
-0.0277751
0.00349378
-0.0284004
0.00346683
-0.0290506
0.00328123
0.00307859
-0.00540577
-0.00519592
-0.0110765
-0.00125657
-0.015575
-0.000140128
-0.0190034
-6.85575e-05
-0.0215658
-0.000404406
-0.023467
-0.000840914
-0.0248734
-0.00123154
-0.0259044
-0.00152363
-0.0266474
-0.00169285
-0.0271761
-0.00172522
-0.0275481
-0.00163515
-0.027801
-0.00145396
-0.0279661
-0.001193
-0.0280829
-0.0008434
-0.0281942
-0.000410584
-0.0283299
6.87161e-05
-0.0285023
0.000550984
-0.0287156
0.00101656
-0.0289766
0.00147181
-0.0292971
0.00192925
-0.0296875
0.0023877
-0.030151
0.00283011
-0.0306819
0.00323323
-0.0312668
0.00357698
-0.0318878
0.00384902
-0.0325253
0.00404213
-0.0331631
0.00414102
-0.0337978
0.00411198
-0.0344516
0.00394638
0.00378812
-0.0085761
0.00338009
-0.0158575
0.00602447
-0.0208982
0.0048997
-0.0243463
0.00337805
-0.0267446
0.0019915
-0.0284338
0.000845035
-0.0296749
5.33753e-06
-0.030604
-0.000599642
-0.0312777
-0.00102501
-0.0317601
-0.00124916
-0.0321139
-0.00128746
-0.0323663
-0.00120752
-0.0325309
-0.00103413
-0.032645
-0.000734444
-0.0327619
-0.000298082
-0.0329161
0.000219551
-0.0331133
0.000745928
-0.0333487
0.00125099
-0.0336277
0.00175111
-0.0339672
0.00227037
-0.0343828
0.00280629
-0.0348782
0.00332976
-0.0354438
0.00380422
-0.0360611
0.00420067
-0.0367077
0.00450316
-0.0373632
0.0047061
-0.0380143
0.00480145
-0.0386607
0.00476866
-0.0393181
0.00461508
0.00448105
-0.0121721
0.015552
-0.0211627
0.0150147
-0.026552
0.0102881
-0.029722
0.00654647
-0.0318599
0.00412695
-0.0332875
0.00226933
-0.0342897
0.00100334
-0.0350385
0.000144097
-0.0355599
-0.000509554
-0.0359162
-0.000899003
-0.0361956
-0.00101407
-0.0364105
-0.000998536
-0.0365339
-0.000916377
-0.0365982
-0.000675202
-0.0366835
-0.000217106
-0.0368364
0.000369
-0.0370475
0.000954721
-0.0372939
0.00149635
-0.0375776
0.00203503
-0.0379249
0.00261918
-0.0383602
0.00324434
-0.0388874
0.00386097
-0.0394911
0.0044131
-0.0401455
0.00486137
-0.040823
0.00518803
-0.0415015
0.00539295
-0.0421708
0.00547998
-0.0428337
0.00544182
-0.0434996
0.00529215
0.00517194
-0.0173821
0.0329339
-0.0289956
0.0266277
-0.034152
0.0154435
-0.0353765
0.0077692
-0.0367851
0.00553307
-0.0377452
0.00322608
-0.0382995
0.00155343
-0.0388404
0.000679954
-0.0391731
-0.000182784
-0.0393185
-0.000759685
-0.0394767
-0.000861726
-0.0396516
-0.000829398
-0.0397136
-0.000859846
-0.0396815
-0.000712314
-0.0397016
-0.000201259
-0.0398487
0.000512699
-0.0400802
0.00118389
-0.0403378
0.00175287
-0.0406184
0.00231574
-0.0409667
0.0029689
-0.0414225
0.00370283
-0.0419892
0.00443153
-0.0426415
0.00507044
-0.0433433
0.00556931
-0.0440601
0.00591198
-0.0447676
0.00610864
-0.0454594
0.00618089
-0.046144
0.0061366
-0.0468268
0.00598601
0.00586688
0.207427
0.00570589
0.206997
0.0109176
0.206382
0.0158373
0.20559
0.0205986
0.204626
0.0252765
0.203497
0.0299298
0.202206
0.0346094
0.200757
0.0393597
0.199153
0.0442199
0.197398
0.0492251
0.195493
0.0544083
0.193443
0.0598007
0.191251
0.0654332
0.188919
0.0713374
0.186453
0.0775463
0.183853
0.0840964
0.181124
0.0910327
0.17827
0.0984068
0.175297
0.106278
0.172213
0.114723
0.169028
0.123839
0.165758
0.133756
0.162432
0.144644
0.1591
0.156736
0.155861
0.170353
0.15291
0.185946
0.150684
0.204197
0.150648
0.225979
0.161387
0.24897
0.264649
0.249774
0.212468
0.0059132
0.212073
0.0113064
0.21151
0.0163952
0.210789
0.0213173
0.209915
0.0261493
0.208895
0.0309505
0.207735
0.0357721
0.206439
0.0406586
0.205014
0.045649
0.203465
0.0507784
0.201798
0.0560791
0.200021
0.0615817
0.198142
0.0673159
0.19617
0.073312
0.194117
0.0796017
0.191995
0.0862199
0.189821
0.0932069
0.187619
0.100608
0.185419
0.108477
0.183262
0.116879
0.181205
0.125895
0.179335
0.135623
0.17779
0.146188
0.17679
0.157735
0.176717
0.170425
0.178279
0.184383
0.182939
0.199537
0.193519
0.215397
0.211478
0.231011
0.247373
0.228754
0.217632
0.00610019
0.217277
0.0116551
0.216773
0.0168936
0.21613
0.0219569
0.215356
0.0269225
0.214457
0.0318501
0.21344
0.0367909
0.212313
0.0417889
0.211083
0.0468827
0.209759
0.0521065
0.208351
0.0574914
0.206871
0.0630664
0.205331
0.0688596
0.203747
0.0748985
0.20214
0.0812115
0.200532
0.0878294
0.198954
0.0947855
0.197446
0.102116
0.19606
0.109863
0.194866
0.118073
0.19396
0.126799
0.193483
0.136099
0.193635
0.146033
0.194719
0.15665
0.197188
0.167955
0.201702
0.179868
0.209076
0.192162
0.219964
0.204509
0.233899
0.217076
0.22817
0.253103
0.222924
0.00626461
0.222612
0.0119596
0.222173
0.0173268
0.221616
0.0225098
0.22095
0.0275869
0.220183
0.0326179
0.219322
0.0376533
0.218378
0.0427365
0.217359
0.0479051
0.216278
0.0531918
0.215147
0.0586261
0.213983
0.0642346
0.212804
0.0700425
0.211632
0.0760738
0.210494
0.0823522
0.209423
0.0889018
0.208462
0.0957476
0.207665
0.102915
0.207099
0.110429
0.206856
0.118315
0.207056
0.126597
0.20786
0.135293
0.209486
0.144406
0.212229
0.153905
0.216465
0.163717
0.22263
0.173702
0.231141
0.183651
0.242446
0.193203
0.257408
0.202114
0.20844
0.277138
0.228344
0.00640433
0.22808
0.012216
0.227712
0.0176889
0.227249
0.0229688
0.2267
0.028134
0.226074
0.0332436
0.225381
0.0383477
0.224631
0.0434886
0.223838
0.0487022
0.223014
0.0540194
0.222177
0.0594672
0.221346
0.0650695
0.220545
0.0708479
0.219801
0.0768216
0.219147
0.0830088
0.218625
0.0894259
0.218286
0.0960882
0.218193
0.103008
0.218426
0.110196
0.219085
0.117656
0.220297
0.125385
0.222224
0.133366
0.225071
0.141558
0.229087
0.149887
0.234557
0.158246
0.241788
0.16647
0.251107
0.174331
0.262866
0.181444
0.277485
0.187494
0.191473
0.294452
0.233898
0.00651732
0.233685
0.0124204
0.233393
0.0179747
0.23303
0.0233272
0.232606
0.0285556
0.23213
0.0337184
0.231614
0.0388642
0.231071
0.044034
0.230515
0.0492619
0.229961
0.0545765
0.229431
0.060002
0.228946
0.0655588
0.228533
0.0712644
0.228225
0.0771329
0.228061
0.083176
0.228087
0.0894023
0.22836
0.0958171
0.228949
0.102421
0.229935
0.10921
0.231422
0.11617
0.233531
0.123276
0.236413
0.130483
0.240243
0.137726
0.245214
0.144916
0.251533
0.151926
0.259415
0.158588
0.269059
0.164687
0.280573
0.169928
0.294001
0.174066
0.176523
0.30895
0.239587
0.00660171
0.239429
0.0125694
0.239217
0.0181795
0.23896
0.0235789
0.238668
0.0288448
0.238351
0.0340342
0.238022
0.0391941
0.237694
0.0443637
0.237383
0.0495749
0.23711
0.0548539
0.236894
0.0602215
0.236762
0.0656948
0.236744
0.0712868
0.236874
0.0770061
0.237196
0.0828576
0.237758
0.0888428
0.23862
0.0949577
0.23985
0.101193
0.241531
0.10753
0.243757
0.113945
0.246641
0.120393
0.250311
0.126814
0.254901
0.133135
0.260554
0.139263
0.267411
0.145069
0.275596
0.150402
0.285196
0.155087
0.296209
0.158914
0.308587
0.161687
0.163014
0.322096
0.245414
0.0066558
0.245314
0.0126601
0.245187
0.018299
0.245042
0.0237188
0.244888
0.0289954
0.244736
0.0341842
0.2446
0.0393303
0.244494
0.0444706
0.244436
0.0496346
0.244448
0.0548456
0.244552
0.0601212
0.244775
0.0654752
0.24515
0.0709163
0.245713
0.0764469
0.246508
0.082066
0.247585
0.0877687
0.249002
0.0935434
0.250825
0.0993716
0.25313
0.105227
0.256003
0.111073
0.259539
0.116858
0.263835
0.122518
0.268992
0.127978
0.275108
0.133146
0.282269
0.137907
0.290534
0.142137
0.299925
0.145696
0.310402
0.148437
0.321872
0.150216
0.150763
0.334123
0.251383
0.00667817
0.251344
0.0126898
0.251305
0.0183298
0.251275
0.0237427
0.251263
0.0290028
0.251282
0.0341634
0.251344
0.0392676
0.251465
0.0443498
0.251665
0.049437
0.251964
0.0545493
0.252387
0.0597014
0.252962
0.0649032
0.253723
0.0701591
0.254707
0.0754667
0.255957
0.0808202
0.257519
0.0862089
0.259451
0.0916149
0.261811
0.0970138
0.264667
0.102373
0.268091
0.10765
0.272158
0.112792
0.276939
0.117738
0.282505
0.122412
0.288919
0.126733
0.296222
0.130604
0.304432
0.133926
0.313534
0.136595
0.323461
0.138509
0.334102
0.139575
0.1396
0.345263
0.257497
0.00666764
0.25752
0.0126565
0.257572
0.0182691
0.257661
0.0236474
0.257795
0.0288635
0.257987
0.0339686
0.258251
0.0390031
0.258601
0.0439992
0.259059
0.048981
0.259644
0.0539659
0.260383
0.0589654
0.261304
0.0639856
0.26244
0.0690267
0.263827
0.0740832
0.265505
0.0791456
0.267519
0.0841981
0.269918
0.0892187
0.272755
0.0941791
0.276086
0.0990436
0.279969
0.103769
0.284458
0.108305
0.289606
0.112591
0.295456
0.116563
0.302041
0.120148
0.309375
0.123271
0.317446
0.125855
0.326214
0.127826
0.335605
0.129118
0.345505
0.129675
0.129354
0.355751
0.263759
0.00662324
0.263845
0.0125586
0.26399
0.0181149
0.2642
0.0234306
0.264483
0.0285754
0.26485
0.0335977
0.265316
0.0385357
0.265896
0.0434188
0.266609
0.0482685
0.267477
0.0530994
0.268525
0.05792
0.269781
0.0627331
0.271274
0.067536
0.27304
0.0723203
0.275116
0.077073
0.277542
0.0817758
0.280359
0.0864043
0.283612
0.0909285
0.287346
0.0953123
0.291603
0.099514
0.296423
0.103486
0.301839
0.107177
0.307873
0.110529
0.314537
0.113485
0.321823
0.115986
0.329704
0.117975
0.338127
0.119403
0.347015
0.12023
0.356265
0.120424
0.119878
0.365741
0.270172
0.00654431
0.270323
0.0123952
0.270562
0.017866
0.270894
0.0230913
0.271325
0.0281376
0.271868
0.0330509
0.272535
0.0378665
0.273341
0.0426113
0.274306
0.0473041
0.27545
0.0519571
0.276795
0.056576
0.27837
0.0611612
0.280201
0.0657073
0.28232
0.0702041
0.28476
0.0746362
0.287555
0.0789838
0.29074
0.0832218
0.29435
0.0873205
0.29842
0.0912456
0.302978
0.0949582
0.308049
0.0984167
0.313652
0.101576
0.319794
0.104389
0.326469
0.106811
0.333656
0.108799
0.34132
0.110313
0.349403
0.111321
0.357832
0.111801
0.366516
0.11174
0.111055
0.37534
0.27674
0.0064305
0.276956
0.0121658
0.277289
0.0175223
0.277742
0.0226296
0.278322
0.0275511
0.279038
0.0323298
0.279903
0.0369985
0.280931
0.0415814
0.28214
0.0460951
0.283548
0.0505492
0.285178
0.0549474
0.287054
0.0592879
0.289199
0.0635637
0.291643
0.0677632
0.294411
0.0718701
0.297534
0.0758639
0.301038
0.0797202
0.30495
0.0834108
0.309293
0.0869043
0.314087
0.0901665
0.319344
0.0931618
0.32507
0.0958525
0.331259
0.0982014
0.337897
0.100175
0.344955
0.101742
0.352392
0.102877
0.360151
0.103562
0.368166
0.103786
0.376357
0.10355
0.102784
0.384627
0.283466
0.00628175
0.283747
0.0118707
0.284173
0.0170843
0.284747
0.0220466
0.285473
0.0268178
0.286359
0.0314378
0.287417
0.0359367
0.28866
0.0403363
0.290103
0.0446509
0.291763
0.0488883
0.293661
0.0530502
0.295817
0.0571335
0.298252
0.0611301
0.30099
0.0650276
0.304052
0.0688098
0.307462
0.0724567
0.311239
0.0759454
0.315402
0.0792501
0.319965
0.082343
0.324939
0.0851948
0.330326
0.0877765
0.336123
0.0900578
0.342316
0.0920096
0.348884
0.0936082
0.355795
0.0948329
0.363004
0.0956685
0.370461
0.096106
0.378103
0.0961442
0.385864
0.0957888
0.0949857
0.393663
0.290353
0.00609831
0.290699
0.0115105
0.291217
0.0165533
0.291908
0.0213447
0.292777
0.0259411
0.293829
0.0303796
0.295073
0.0346876
0.296521
0.0388846
0.298188
0.0429829
0.300086
0.0469887
0.302234
0.0509023
0.304649
0.0547197
0.307348
0.0584322
0.310349
0.0620276
0.313671
0.06549
0.317328
0.0688011
0.321336
0.0719398
0.325704
0.0748835
0.33044
0.0776082
0.335546
0.0800902
0.341019
0.0823058
0.346848
0.0842314
0.353013
0.0858458
0.35949
0.0871331
0.366243
0.0880805
0.373232
0.0886802
0.380408
0.0889303
0.387718
0.0888348
0.395103
0.0884035
0.087592
0.402497
0.297406
0.00588068
0.297814
0.0110866
0.298422
0.0159316
0.299229
0.020527
0.300235
0.0249255
0.301446
0.0291613
0.302869
0.0332592
0.304513
0.0372365
0.30639
0.0411038
0.308511
0.044866
0.31089
0.0485225
0.313541
0.0520687
0.316477
0.055496
0.319713
0.0587925
0.32326
0.0619438
0.32713
0.0649331
0.331329
0.067742
0.335863
0.070351
0.340732
0.0727403
0.345932
0.0748911
0.351455
0.0767849
0.357285
0.0784034
0.363399
0.0797327
0.369771
0.0807627
0.376366
0.0814866
0.383145
0.081902
0.390064
0.0820115
0.397076
0.0818227
0.404132
0.0813472
0.0805482
0.411176
0.304628
0.00562964
0.305097
0.0106006
0.305792
0.0152217
0.306709
0.0195973
0.307848
0.0237763
0.309212
0.0277899
0.310804
0.0316603
0.312633
0.0354031
0.314705
0.0390272
0.317032
0.0425365
0.319623
0.04593
0.322488
0.0492027
0.325638
0.0523466
0.32908
0.0553506
0.332822
0.0582018
0.33687
0.0608855
0.341227
0.0633859
0.345892
0.065687
0.35086
0.0677727
0.356123
0.0696287
0.361669
0.0712408
0.367477
0.072596
0.373526
0.0736854
0.379786
0.0745037
0.386225
0.0750485
0.392806
0.0753212
0.39949
0.0753272
0.406237
0.0750759
0.413004
0.07458
0.0738083
0.419744
0.312022
0.00534612
0.31255
0.0100547
0.313329
0.0144271
0.314353
0.0185604
0.315619
0.0224997
0.317126
0.0262731
0.318878
0.0299007
0.320879
0.0333962
0.323135
0.0367673
0.325651
0.0400169
0.328434
0.0431439
0.331492
0.0461434
0.334829
0.049008
0.338451
0.0517279
0.342361
0.0542918
0.346559
0.0566873
0.351044
0.0589012
0.355811
0.0609205
0.360851
0.0627327
0.366152
0.0643275
0.3717
0.0656944
0.377472
0.0668245
0.383445
0.0677129
0.389592
0.0683579
0.395881
0.0687601
0.402278
0.0689236
0.40875
0.0688554
0.41526
0.0685657
0.421772
0.0680671
0.0673333
0.428246
0.319594
0.00503124
0.320178
0.00945111
0.321038
0.0135512
0.322163
0.0174212
0.323548
0.0211021
0.325191
0.0246193
0.327093
0.0279906
0.329254
0.031228
0.331678
0.0343381
0.334367
0.0373234
0.337325
0.0401825
0.340555
0.042911
0.344058
0.0455024
0.347837
0.0479481
0.351889
0.0502386
0.356211
0.0523635
0.360799
0.0543124
0.365644
0.056075
0.370734
0.0576419
0.376056
0.059006
0.38159
0.0601602
0.387317
0.0610985
0.393211
0.0618192
0.399246
0.0623231
0.405393
0.0626129
0.411622
0.0626943
0.417902
0.0625751
0.424202
0.0622656
0.43049
0.061778
0.0610897
0.436733
0.327346
0.00468621
0.327985
0.00879241
0.328921
0.0125981
0.330141
0.0161851
0.33164
0.0195906
0.333411
0.022837
0.335452
0.0259402
0.337761
0.0289104
0.340339
0.0317536