/*--------------------------------*- C++ -*----------------------------------*\
| =========                 |                                                 |
| \\      /  F ield         | OpenFOAM: The Open Source CFD Toolbox           |
|  \\    /   O peration     | Version:  dev                                   |
|   \\  /    A nd           | Web:      www.OpenFOAM.org                      |
|    \\/     M anipulation  |                                                 |
\*---------------------------------------------------------------------------*/
FoamFile
{
    version     2.0;
    format      ascii;
    class       volVectorField;
    location    "1";
    object      cellDisplacement;
}
// * * * * * * * * * * * * * * * * * * * * * * * * * * * * * * * * * * * * * //

dimensions      [0 1 0 0 0 0 0];

internalField   nonuniform List<vector> 
465
(
(0.0574826 0 6.66875e-06)
(0.0501195 0 0.000131192)
(0.0425329 0 0.000281179)
(0.0348572 0 0.00046003)
(0.0272632 0 0.000671396)
(0.0199851 0 0.000918972)
(0.0133679 0 0.00120498)
(0.00795168 0 0.00152266)
(0.00484783 0 0.00182296)
(0.0592621 0 -1.54717e-05)
(0.0521564 0 0.000349973)
(0.0448743 0 0.000789397)
(0.0375575 0 0.00131163)
(0.0303865 0 0.00192498)
(0.023606 0 0.00263571)
(0.0175937 0 0.00344347)
(0.0129929 0 0.00431845)
(0.0109691 0 0.00509019)
(0.0627522 0 -0.000141311)
(0.0561649 0 0.000436587)
(0.0494793 0 0.0011293)
(0.0428714 0 0.0019472)
(0.0365507 0 0.00289787)
(0.0307798 0 0.00398263)
(0.0259177 0 0.00518633)
(0.0226683 0 0.00643016)
(0.0223979 0 0.00741781)
(0.0679343 0 -0.000438337)
(0.0620911 0 0.000306552)
(0.0562509 0 0.0011945)
(0.0506434 0 0.00223246)
(0.0455124 0 0.00342074)
(0.0411833 0 0.00474246)
(0.0380215 0 0.00615181)
(0.0365757 0 0.00752676)
(0.0384823 0 0.00844074)
(0.0747337 0 -0.000962784)
(0.0698783 0 -0.00011205)
(0.0651661 0 0.000894379)
(0.0608136 0 0.00205821)
(0.0571278 0 0.00336226)
(0.054526 0 0.00476095)
(0.0534382 0 0.00616299)
(0.0542624 0 0.00742211)
(0.0584595 0 0.00801309)
(0.0830222 0 -0.0017587)
(0.0793464 0 -0.000869117)
(0.0760091 0 0.000166466)
(0.0732105 0 0.00134075)
(0.0712543 0 0.00262527)
(0.0705753 0 0.00394476)
(0.0717557 0 0.00514802)
(0.075137 0 0.00605534)
(0.0815703 0 0.0061427)
(0.0927389 0 -0.00286845)
(0.090406 0 -0.00201363)
(0.0885781 0 -0.00103452)
(0.0875429 0 3.9954e-05)
(0.0875923 0 0.00116204)
(0.089041 0 0.0022473)
(0.0925779 0 0.00309105)
(0.0985062 0 0.00347106)
(0.107135 0 0.00293679)
(0.103677 0 -0.00430539)
(0.102875 0 -0.00356927)
(0.102758 0 -0.00274405)
(0.103609 0 -0.00187146)
(0.105813 0 -0.00103688)
(0.10962 0 -0.000335369)
(0.115518 0 2.28319e-05)
(0.123879 0 -0.000230958)
(0.134597 0 -0.0014426)
(0.115649 0 -0.00607553)
(0.116504 0 -0.00553365)
(0.118268 0 -0.00495881)
(0.121164 0 -0.00439427)
(0.125625 0 -0.00395287)
(0.131906 0 -0.00375685)
(0.140196 0 -0.00398551)
(0.150894 0 -0.00493041)
(0.1635 0 -0.00681771)
(0.128521 0 -0.00818241)
(0.131095 0 -0.0079018)
(0.134812 0 -0.00765624)
(0.139918 0 -0.00750434)
(0.14668 0 -0.00754407)
(0.155447 0 -0.00793765)
(0.166208 0 -0.00883234)
(0.179158 0 -0.0104906)
(0.193428 0 -0.0130165)
(0.142007 0 -0.0105938)
(0.14639 0 -0.0106473)
(0.152084 0 -0.0107969)
(0.15943 0 -0.0111354)
(0.168559 0 -0.011741)
(0.17984 0 -0.0127909)
(0.193111 0 -0.0144003)
(0.208238 0 -0.0167641)
(0.223964 0 -0.0198664)
(0.155822 0 -0.0132665)
(0.162023 0 -0.0137107)
(0.169694 0 -0.0143181)
(0.17922 0 -0.0152006)
(0.190758 0 -0.0164452)
(0.204549 0 -0.0182034)
(0.220335 0 -0.0205539)
(0.237588 0 -0.0235925)
(0.254619 0 -0.0271944)
(0.169713 0 -0.0161557)
(0.177623 0 -0.0170203)
(0.187217 0 -0.0181345)
(0.198818 0 -0.0196047)
(0.212647 0 -0.0215318)
(0.228818 0 -0.024029)
(0.247045 0 -0.0271358)
(0.266377 0 -0.0308107)
(0.284687 0 -0.0348448)
(0.18337 0 -0.0191942)
(0.192838 0 -0.0204957)
(0.204176 0 -0.0221382)
(0.217586 0 -0.0242052)
(0.233411 0 -0.0268336)
(0.251573 0 -0.0300721)
(0.271924 0 -0.0339546)
(0.293132 0 -0.0382529)
(0.312902 0 -0.0427152)
(0.19644 0 -0.0222914)
(0.207246 0 -0.024026)
(0.219981 0 -0.0261733)
(0.234789 0 -0.0288136)
(0.251989 0 -0.0320962)
(0.271396 0 -0.0360541)
(0.292931 0 -0.0407422)
(0.314979 0 -0.0457289)
(0.336598 0 -0.0508952)
(0.0062637 0 -0.00233318)
(0.0132269 0 -0.00263365)
(0.0272289 0 -0.00300067)
(0.0475945 0 -0.00340808)
(0.0721158 0 -0.00376434)
(0.0981145 0 -0.00402536)
(0.123153 0 -0.00419205)
(0.145468 0 -0.0042278)
(0.16439 0 -0.00418374)
(0.179819 0 -0.00406378)
(0.0115785 0 -0.00707378)
(0.0190317 0 -0.00795719)
(0.0334341 0 -0.00907842)
(0.0537612 0 -0.0102305)
(0.0778931 0 -0.0112509)
(0.103294 0 -0.0119973)
(0.127587 0 -0.0124286)
(0.149145 0 -0.0125124)
(0.16741 0 -0.0123736)
(0.182263 0 -0.0120173)
(0.0216698 0 -0.0119832)
(0.0302066 0 -0.0134683)
(0.0452632 0 -0.0153051)
(0.0654246 0 -0.0170978)
(0.0888686 0 -0.0186653)
(0.113097 0 -0.0197761)
(0.135974 0 -0.0203604)
(0.15617 0 -0.0204556)
(0.173178 0 -0.0201633)
(0.18693 0 -0.0195653)
(0.0361369 0 -0.0172299)
(0.0461566 0 -0.0193325)
(0.0618144 0 -0.0217478)
(0.0817478 0 -0.0240871)
(0.104149 0 -0.0260382)
(0.126751 0 -0.0273723)
(0.147696 0 -0.0279875)
(0.165995 0 -0.0280114)
(0.181262 0 -0.0275284)
(0.193516 0 -0.0266577)
(0.0544059 0 -0.0229175)
(0.0659665 0 -0.0255826)
(0.0821453 0 -0.0284771)
(0.101745 0 -0.0312246)
(0.122784 0 -0.0333824)
(0.143376 0 -0.0347777)
(0.161991 0 -0.0353108)
(0.178 0 -0.0351475)
(0.191184 0 -0.0344378)
(0.201631 0 -0.0332895)
(0.0758723 0 -0.0290915)
(0.0887888 0 -0.0322155)
(0.105446 0 -0.0355048)
(0.124471 0 -0.0384871)
(0.143856 0 -0.0406784)
(0.162096 0 -0.0419492)
(0.178137 0 -0.0422977)
(0.191562 0 -0.0418613)
(0.202414 0 -0.040859)
(0.210873 0 -0.0394283)
(0.0999684 0 -0.0357505)
(0.114078 0 -0.0392605)
(0.131017 0 -0.0428149)
(0.149139 0 -0.0458384)
(0.166544 0 -0.0478708)
(0.182151 0 -0.0488523)
(0.195358 0 -0.0488785)
(0.206047 0 -0.0481076)
(0.214458 0 -0.04678)
(0.220819 0 -0.0450497)
(0.126194 0 -0.0428651)
(0.141298 0 -0.0466803)
(0.158219 0 -0.050342)
(0.175017 0 -0.0531926)
(0.190064 0 -0.0548623)
(0.202761 0 -0.055397)
(0.212956 0 -0.054981)
(0.22087 0 -0.0538291)
(0.226811 0 -0.0521576)
(0.231055 0 -0.0501253)
(0.154128 0 -0.0503826)
(0.169979 0 -0.054403)
(0.18645 0 -0.0579746)
(0.201384 0 -0.0604113)
(0.213656 0 -0.0615157)
(0.223212 0 -0.061469)
(0.230336 0 -0.0605396)
(0.235485 0 -0.0589691)
(0.239007 0 -0.0569495)
(0.241192 0 -0.0546272)
(0.183421 0 -0.0582261)
(0.199695 0 -0.0623229)
(0.215078 0 -0.0655465)
(0.227482 0 -0.0673014)
(0.236559 0 -0.0676558)
(0.242819 0 -0.0669327)
(0.24689 0 -0.0654526)
(0.249387 0 -0.0634635)
(0.250619 0 -0.0611128)
(0.250883 0 -0.0585317)
(0.213794 0 -0.0663115)
(0.229986 0 -0.0702895)
(0.243342 0 -0.0728144)
(0.252452 0 -0.0736081)
(0.257984 0 -0.0730742)
(0.260921 0 -0.0716407)
(0.262111 0 -0.0696337)
(0.26213 0 -0.0672517)
(0.261325 0 -0.064627)
(0.259898 0 -0.0618404)
(0.245008 0 -0.0745491)
(0.260174 0 -0.0780502)
(0.270203 0 -0.0794149)
(0.275283 0 -0.0790067)
(0.27711 0 -0.0775369)
(0.276865 0 -0.0754335)
(0.275508 0 -0.0729904)
(0.273432 0 -0.0703119)
(0.270936 0 -0.0674923)
(0.268107 0 -0.0645748)
(0.276684 0 -0.0827749)
(0.288962 0 -0.0851091)
(0.294187 0 -0.0848153)
(0.294791 0 -0.0831085)
(0.29313 0 -0.0808132)
(0.290251 0 -0.0782193)
(0.286847 0 -0.0754798)
(0.283179 0 -0.0726401)
(0.279363 0 -0.0697275)
(0.275408 0 -0.0667566)
(0.307483 0 -0.0904437)
(0.31382 0 -0.0904856)
(0.313395 0 -0.0883012)
(0.31013 0 -0.0855827)
(0.305765 0 -0.0827745)
(0.30102 0 -0.0799593)
(0.296189 0 -0.0771312)
(0.291368 0 -0.0742702)
(0.286568 0 -0.0713666)
(0.28175 0 -0.0684181)
(0.332431 0 -0.0955625)
(0.332584 0 -0.0926832)
(0.327119 0 -0.0891398)
(0.32118 0 -0.0861465)
(0.315205 0 -0.0833914)
(0.309337 0 -0.0807024)
(0.30362 0 -0.0780026)
(0.298041 0 -0.0752589)
(0.292561 0 -0.0724591)
(0.287116 0 -0.0696011)
(0.208841 0 -0.0254151)
(0.220694 0 -0.0275568)
(0.234372 0 -0.0301507)
(0.250008 0 -0.0332937)
(0.267697 0 -0.0371102)
(0.287171 0 -0.0416817)
(0.30792 0 -0.047144)
(0.327996 0 -0.0534901)
(0.346167 0 -0.0618806)
(0.220383 0 -0.0285066)
(0.232892 0 -0.0309936)
(0.246997 0 -0.0339414)
(0.262717 0 -0.0374353)
(0.279892 0 -0.0415531)
(0.297998 0 -0.0463297)
(0.316005 0 -0.0517357)
(0.332217 0 -0.0576135)
(0.34531 0 -0.064041)
(0.230686 0 -0.0314406)
(0.243417 0 -0.0341791)
(0.257395 0 -0.0373449)
(0.272488 0 -0.0409883)
(0.288304 0 -0.0451138)
(0.304156 0 -0.0496801)
(0.319076 0 -0.0545832)
(0.332027 0 -0.0597403)
(0.341883 0 -0.0650244)
(0.239529 0 -0.0341207)
(0.252065 0 -0.0370004)
(0.265431 0 -0.0402351)
(0.27937 0 -0.0438333)
(0.293436 0 -0.04776)
(0.307027 0 -0.0519564)
(0.319426 0 -0.0563345)
(0.329852 0 -0.0607849)
(0.33754 0 -0.0651344)
(0.258783 0 -0.0393809)
(0.271215 0 -0.0425613)
(0.283813 0 -0.046)
(0.296175 0 -0.0496531)
(0.307813 0 -0.053458)
(0.318191 0 -0.0573337)
(0.326736 0 -0.0611526)
(0.33298 0 -0.0647768)
(0.286403 0 -0.0475978)
(0.297235 0 -0.0509571)
(0.307248 0 -0.054388)
(0.316016 0 -0.0578003)
(0.323154 0 -0.0610846)
(0.328409 0 -0.064146)
(0.30577 0 -0.0548746)
(0.313255 0 -0.0578742)
(0.319337 0 -0.0607203)
(0.323874 0 -0.0633398)
(0.315389 0 -0.0601407)
(0.319374 0 -0.0624076)
(0.357665 0 -0.07038)
(0.357558 0 -0.0767536)
(0.355016 0 -0.0833185)
(0.352165 0 -0.0693755)
(0.353174 0 -0.0734305)
(0.352201 0 -0.0771076)
(0.346233 0 -0.0690337)
(0.34757 0 -0.0716736)
(0.347617 0 -0.0741025)
(0.34088 0 -0.0682549)
(0.342206 0 -0.0702221)
(0.342712 0 -0.0720352)
(0.335821 0 -0.0672927)
(0.337097 0 -0.0688594)
(0.337803 0 -0.0703048)
(0.330932 0 -0.0662336)
(0.332154 0 -0.067529)
(0.332946 0 -0.0687265)
(0.326157 0 -0.0651094)
(0.327317 0 -0.0662068)
(0.328139 0 -0.0672237)
(0.321457 0 -0.0639314)
(0.322552 0 -0.0648766)
(0.32337 0 -0.0657547)
(0.317829 0 -0.0635247)
(0.318626 0 -0.0642919)
(0.347171 0 -0.0868042)
(0.341357 0 -0.0874556)
(0.334787 0 -0.0865613)
(0.328201 0 -0.0848966)
(0.321737 0 -0.0828581)
(0.315442 0 -0.0806086)
(0.309314 0 -0.078212)
(0.303328 0 -0.0756962)
(0.297436 0 -0.073077)
(0.348501 0 -0.0812673)
(0.34318 0 -0.0834051)
(0.337581 0 -0.083674)
(0.331656 0 -0.082944)
(0.325563 0 -0.0816035)
(0.319428 0 -0.0798667)
(0.313317 0 -0.0778543)
(0.307243 0 -0.0756359)
(0.301189 0 -0.0732539)
(0.346189 0 -0.07732)
(0.342467 0 -0.0798263)
(0.337902 0 -0.0807877)
(0.332813 0 -0.0807136)
(0.327353 0 -0.0799446)
(0.321656 0 -0.0786841)
(0.315815 0 -0.0770618)
(0.309876 0 -0.0751631)
(0.303851 0 -0.0730454)
(0.342414 0 -0.0745075)
(0.340099 0 -0.0768188)
(0.336617 0 -0.0780761)
(0.332382 0 -0.0784225)
(0.327621 0 -0.0780825)
(0.322469 0 -0.0772205)
(0.317029 0 -0.075953)
(0.311362 0 -0.0743635)
(0.305499 0 -0.0725131)
(0.338082 0 -0.072292)
(0.336765 0 -0.074304)
(0.33423 0 -0.0756015)
(0.330801 0 -0.0761818)
(0.326725 0 -0.0761394)
(0.322145 0 -0.0755891)
(0.31716 0 -0.0746227)
(0.311839 0 -0.0733125)
(0.306223 0 -0.0717152)
(0.33353 0 -0.0703809)
(0.332888 0 -0.0721276)
(0.331092 0 -0.0733533)
(0.328376 0 -0.0740352)
(0.32493 0 -0.0741839)
(0.320899 0 -0.0738642)
(0.316379 0 -0.0731411)
(0.311437 0 -0.0720712)
(0.306114 0 -0.0707025)
(0.328887 0 -0.0686344)
(0.328693 0 -0.070162)
(0.327455 0 -0.0712869)
(0.325323 0 -0.0719862)
(0.322431 0 -0.0722478)
(0.318906 0 -0.0720909)
(0.314833 0 -0.0715568)
(0.310271 0 -0.0706863)
(0.305262 0 -0.0695169)
(0.324201 0 -0.066977)
(0.324301 0 -0.0683227)
(0.323473 0 -0.0693466)
(0.321799 0 -0.0700217)
(0.319384 0 -0.0703404)
(0.316304 0 -0.0702929)
(0.312641 0 -0.069901)
(0.308445 0 -0.0691913)
(0.303751 0 -0.0681911)
(0.319489 0 -0.0653629)
(0.319778 0 -0.0665556)
(0.319243 0 -0.0674838)
(0.31793 0 -0.0681206)
(0.315901 0 -0.0684579)
(0.313203 0 -0.0684797)
(0.309906 0 -0.0681916)
(0.306048 0 -0.0676086)
(0.301657 0 -0.0667488)
(0.315156 0 -0.0648226)
(0.314828 0 -0.0656619)
(0.313789 0 -0.0662539)
(0.312062 0 -0.0665864)
(0.309689 0 -0.0666502)
(0.306712 0 -0.0664363)
(0.30316 0 -0.0659515)
(0.299051 0 -0.0652065)
(0.307938 0 -0.0647131)
(0.305838 0 -0.0647992)
(0.303132 0 -0.0646366)
(0.299849 0 -0.0642266)
(0.295997 0 -0.0635742)
(0.299226 0 -0.0627887)
(0.296175 0 -0.0624349)
(0.292553 0 -0.0618569)
(0.288773 0 -0.0600554)
)
;

boundaryField
{
    inlet
    {
        type            cellMotion;
        value           nonuniform 0();
    }
    outlet
    {
        type            cellMotion;
        value           nonuniform 0();
    }
    flap
    {
        type            cellMotion;
        value           nonuniform List<vector> 
33
(
(0.00192855 0 0.0020027)
(0.00842849 0 0.00558624)
(0.0201551 0 0.00810267)
(0.0366092 0 0.00921446)
(0.056941 0 0.00879508)
(0.0803721 0 0.00688044)
(0.10623 0 0.00359578)
(0.13397 0 -0.00088009)
(0.163161 0 -0.00635824)
(0.193447 0 -0.0126753)
(0.224517 0 -0.0196659)
(0.256103 0 -0.0271618)
(0.287986 0 -0.0350139)
(0.319981 0 -0.0430758)
(0.352007 0 -0.0512338)
(0.366018 0 -0.0633427)
(0.361945 0 -0.0793476)
(0.357809 0 -0.0953366)
(0.00171535 0 -0.00231123)
(0.00750212 0 -0.00696233)
(0.0180427 0 -0.0117784)
(0.0330288 0 -0.0169481)
(0.051801 0 -0.022593)
(0.073737 0 -0.028759)
(0.0982454 0 -0.0354324)
(0.124818 0 -0.0425792)
(0.153035 0 -0.0501468)
(0.182543 0 -0.0580439)
(0.21303 0 -0.0661691)
(0.244215 0 -0.0744266)
(0.275857 0 -0.0827242)
(0.307734 0 -0.0909986)
(0.33972 0 -0.0992305)
)
;
    }
    upperWall
    {
        type            slip;
    }
    lowerWall
    {
        type            slip;
    }
    frontAndBack
    {
        type            empty;
    }
    procBoundary4to1
    {
        type            processor;
        value           nonuniform List<vector> 
30
(
(0.246792 0 -0.0364716)
(0.246792 0 -0.0364716)
(0.263711 0 -0.0413055)
(0.275114 0 -0.044365)
(0.275114 0 -0.044365)
(0.2876 0 -0.0487246)
(0.297119 0 -0.0517984)
(0.297119 0 -0.0517984)
(0.303661 0 -0.0550116)
(0.310124 0 -0.0576567)
(0.310124 0 -0.0576567)
(0.311356 0 -0.0593935)
(0.314898 0 -0.0613738)
(0.316803 0 -0.0627008)
(0.316803 0 -0.0627008)
(0.313133 0 -0.0621404)
(0.313895 0 -0.0628159)
(0.314754 0 -0.0637612)
(0.314754 0 -0.0637612)
(0.31046 0 -0.0630968)
(0.310269 0 -0.0638536)
(0.309426 0 -0.0643971)
(0.309426 0 -0.0643971)
(0.3036 0 -0.0628288)
(0.30171 0 -0.062919)
(0.30171 0 -0.062919)
(0.295046 0 -0.0608859)
(0.292195 0 -0.0605746)
(0.292195 0 -0.0605746)
(0.284715 0 -0.05817)
)
;
    }
    procBoundary4to2
    {
        type            processor;
        value           nonuniform List<vector> 
11
(
(0.297724 0 -0.0707494)
(0.299444 0 -0.0704476)
(0.300326 0 -0.069876)
(0.300433 0 -0.0690758)
(0.299829 0 -0.0680829)
(0.298581 0 -0.0669271)
(0.296751 0 -0.0656319)
(0.294399 0 -0.0642147)
(0.291584 0 -0.0626877)
(0.28836 0 -0.0610583)
(0.284779 0 -0.0593301)
)
;
    }
    procBoundary4to3
    {
        type            processor;
        value           nonuniform List<vector> 
19
(
(0.0645079 0 -9.55575e-05)
(0.0660556 0 -0.000314808)
(0.0690998 0 -0.000615983)
(0.0736369 0 -0.00105338)
(0.0795841 0 -0.00167051)
(0.0868525 0 -0.00250531)
(0.0953556 0 -0.0035887)
(0.104928 0 -0.0049331)
(0.115469 0 -0.00655389)
(0.126775 0 -0.00844128)
(0.138632 0 -0.0105741)
(0.150851 0 -0.0129295)
(0.16321 0 -0.0154695)
(0.175416 0 -0.0181326)
(0.187203 0 -0.0208529)
(0.19857 0 -0.023623)
(0.209346 0 -0.0263957)
(0.21921 0 -0.0290728)
(0.227953 0 -0.0315756)
)
;
    }
    procBoundary4to5
    {
        type            processor;
        value           nonuniform List<vector> 
18
(
(0.191904 0 -0.00390271)
(0.193879 0 -0.0115268)
(0.197662 0 -0.0187709)
(0.20301 0 -0.0255674)
(0.209621 0 -0.0318849)
(0.217185 0 -0.0377216)
(0.225359 0 -0.0430504)
(0.233804 0 -0.0478481)
(0.242199 0 -0.0520936)
(0.250296 0 -0.0557893)
(0.257922 0 -0.0589483)
(0.264947 0 -0.0615908)
(0.271275 0 -0.0637408)
(0.276846 0 -0.0654283)
(0.28163 0 -0.0666893)
(0.291578 0 -0.0703667)
(0.291578 0 -0.0703667)
(0.295114 0 -0.0707371)
)
;
    }
}


// ************************************************************************* //
