/*--------------------------------*- C++ -*----------------------------------*\
| =========                 |                                                 |
| \\      /  F ield         | OpenFOAM: The Open Source CFD Toolbox           |
|  \\    /   O peration     | Version:  dev                                   |
|   \\  /    A nd           | Web:      www.OpenFOAM.org                      |
|    \\/     M anipulation  |                                                 |
\*---------------------------------------------------------------------------*/
FoamFile
{
    version     2.0;
    format      ascii;
    class       surfaceScalarField;
    location    "1";
    object      meshPhi;
}
// * * * * * * * * * * * * * * * * * * * * * * * * * * * * * * * * * * * * * //

dimensions      [0 3 -1 0 0 0 0];

internalField   nonuniform List<scalar> 
865
(
-1.42998e-05
3.13784e-07
-9.39423e-06
1.7215e-07
-5.84819e-06
8.35196e-08
-3.39146e-06
3.22494e-08
-1.77617e-06
6.89417e-09
-7.91537e-07
-2.51159e-09
-2.64933e-07
-3.84627e-09
-5.35376e-08
-2.54313e-09
-6.42544e-10
-1.46193e-05
6.61197e-07
-9.65503e-06
3.72275e-07
-6.05201e-06
1.89745e-07
-3.54162e-06
8.16647e-08
-1.87699e-06
2.57883e-08
-8.4914e-07
2.48126e-09
-2.89587e-07
-3.79404e-09
-6.03398e-08
-3.57963e-09
-9.38173e-10
-1.53789e-05
1.08873e-06
-1.02684e-05
6.37915e-07
-6.52221e-06
3.47201e-07
-3.87912e-06
1.68678e-07
-2.09749e-06
7.01396e-08
-9.72456e-07
2.28753e-08
-3.41403e-07
4.07945e-09
-7.40898e-08
-1.65704e-09
-5.53873e-10
-1.66209e-05
1.64187e-06
-1.12654e-05
1.00651e-06
-7.27798e-06
5.8426e-07
-4.41201e-06
3.13114e-07
-2.43827e-06
1.52418e-07
-1.1603e-06
6.55937e-08
-4.19936e-07
2.31205e-08
-9.42271e-08
4.50649e-09
7.78522e-10
-1.83375e-05
2.35756e-06
-1.26424e-05
1.50822e-06
-8.32053e-06
9.24158e-07
-5.14148e-06
5.32173e-07
-2.89612e-06
2.84004e-07
-1.40663e-06
1.36846e-07
-5.20826e-07
5.60083e-08
-1.19251e-07
1.58829e-08
3.23944e-09
-2.05369e-05
3.2697e-06
-1.44024e-05
2.16943e-06
-9.65426e-06
1.38558e-06
-6.07362e-06
8.38964e-07
-3.4731e-06
4.7387e-07
-1.70633e-06
2.41534e-07
-6.38251e-07
1.04235e-07
-1.47165e-07
3.25847e-08
6.74023e-09
-2.32308e-05
4.40193e-06
-1.65501e-05
3.01114e-06
-1.12704e-05
1.98448e-06
-7.19552e-06
1.24314e-06
-4.15833e-06
7.26966e-07
-2.04844e-06
3.81721e-07
-7.63689e-07
1.67678e-07
-1.73861e-07
5.36432e-08
1.076e-08
-2.64101e-05
5.76607e-06
-1.90782e-05
4.04203e-06
-1.31511e-05
2.72748e-06
-8.47729e-06
1.74819e-06
-4.9227e-06
1.04314e-06
-2.41387e-06
5.55839e-07
-8.85548e-07
2.44702e-07
-1.93468e-07
7.75416e-08
1.46484e-08
-3.00367e-05
7.36534e-06
-2.19417e-05
5.26261e-06
-1.52522e-05
3.6108e-06
-9.86921e-06
2.3481e-06
-5.72032e-06
1.41487e-06
-2.77325e-06
7.5669e-07
-9.88916e-07
3.30697e-07
-2.00614e-07
1.02123e-07
1.77715e-08
-3.40448e-05
9.18079e-06
-2.50627e-05
6.65939e-06
-1.74925e-05
4.62066e-06
-1.12976e-05
3.02733e-06
-6.48669e-06
1.82638e-06
-3.0804e-06
9.7e-07
-1.05311e-06
4.16751e-07
-1.89972e-07
1.24205e-07
1.95297e-08
-3.83063e-05
1.11708e-05
-2.83218e-05
8.19624e-06
-1.97571e-05
5.72821e-06
-1.26623e-05
3.7607e-06
-7.13759e-06
2.2551e-06
-3.27696e-06
1.17784e-06
-1.05279e-06
4.92163e-07
-1.54481e-07
1.40033e-07
1.94208e-08
-4.26276e-05
1.3275e-05
-3.15445e-05
9.81817e-06
-2.1892e-05
6.88584e-06
-1.38329e-05
4.51023e-06
-7.57814e-06
2.6738e-06
-3.30577e-06
1.36373e-06
-9.59598e-07
5.48487e-07
-8.24181e-08
1.46699e-07
1.70983e-08
-4.67661e-05
1.54078e-05
-3.45074e-05
1.14528e-05
-2.37063e-05
8.03064e-06
-1.46606e-05
5.22676e-06
-7.71063e-06
3.05109e-06
-3.10796e-06
1.51274e-06
-7.34658e-07
5.81095e-07
4.82501e-08
1.44675e-07
1.32549e-08
-5.04272e-05
1.74536e-05
-3.69586e-05
1.30065e-05
-2.49974e-05
9.08823e-06
-1.49961e-05
5.85396e-06
-7.43033e-06
3.34924e-06
-2.60305e-06
1.60536e-06
-3.11205e-07
5.86679e-07
2.76541e-07
1.43101e-07
1.27621e-08
-5.32982e-05
1.93017e-05
-3.86532e-05
1.43891e-05
-2.55799e-05
9.98823e-06
-1.47024e-05
6.33807e-06
-6.62441e-06
3.52585e-06
-1.67738e-06
1.6053e-06
4.24098e-07
5.37532e-07
6.9519e-07
1.45301e-07
3.08321e-09
6.1113e-07
-3.13072e-09
3.55935e-06
-1.8488e-08
1.28027e-05
-5.6624e-08
3.1749e-05
-9.2881e-08
6.00689e-05
-6.53835e-08
9.32794e-05
9.32165e-08
0.000126144
3.52793e-07
0.00015615
6.63036e-07
0.000183736
9.44574e-07
1.0166e-06
6.54685e-07
-6.79827e-09
3.79197e-06
-3.67023e-08
1.33812e-05
-1.02604e-07
3.25885e-05
-1.52979e-07
6.07478e-05
-6.4802e-08
9.3318e-05
2.52166e-07
0.00012532
7.65045e-07
0.000154538
1.35472e-06
0.000181465
1.83889e-06
1.9421e-06
7.1357e-07
-1.25022e-08
4.06393e-06
-5.68969e-08
1.39071e-05
-1.43171e-07
3.291e-05
-1.81588e-07
5.99806e-05
-3.46367e-09
9.07515e-05
4.75258e-07
0.000120892
1.2107e-06
0.000148701
1.99621e-06
0.000174731
2.55524e-06
2.62598e-06
7.72918e-07
-1.86406e-08
4.28239e-06
-7.4208e-08
1.41135e-05
-1.64641e-07
3.22618e-05
-1.5795e-07
5.7282e-05
1.3112e-07
8.52932e-05
7.60923e-07
0.000112904
1.6314e-06
0.00013894
2.50192e-06
0.000163923
3.02112e-06
2.91267e-06
8.23173e-07
-2.25941e-08
4.4234e-06
-8.07919e-08
1.39892e-05
-1.4825e-07
3.08155e-05
-6.35425e-08
5.32515e-05
3.42443e-07
7.81019e-05
1.08448e-06
0.000102948
1.98169e-06
0.000127085
2.78928e-06
0.000150909
3.16797e-06
2.75419e-06
8.5676e-07
-2.5048e-08
4.45022e-06
-7.65095e-08
1.3478e-05
-9.77526e-08
2.86176e-05
8.23038e-08
4.82305e-05
5.86967e-07
6.99062e-05
1.37163e-06
9.20645e-05
2.19459e-06
0.00011434
2.80379e-06
0.000137026
2.91259e-06
2.10668e-06
8.73963e-07
-2.63677e-08
4.34886e-06
-6.21424e-08
1.25995e-05
-2.38689e-08
2.58451e-05
2.44643e-07
4.26746e-05
8.00855e-07
6.14375e-05
1.54068e-06
8.11966e-05
2.20182e-06
0.000101792
2.52094e-06
0.000123425
2.23576e-06
9.57951e-07
8.70492e-07
-2.54992e-08
4.11673e-06
-3.69256e-08
1.1427e-05
6.30418e-08
2.27636e-05
3.89307e-07
3.70787e-05
9.28521e-07
5.33518e-05
1.53525e-06
7.11016e-05
1.95216e-06
9.0284e-05
1.9097e-06
0.000110987
1.15808e-06
-6.44617e-07
8.40749e-07
-2.19006e-08
3.77004e-06
-4.14905e-09
1.00823e-05
1.43274e-07
1.96741e-05
4.7649e-07
3.18878e-05
9.25655e-07
4.61683e-05
1.32588e-06
6.23243e-05
1.43363e-06
8.03603e-05
9.80192e-07
0.000100277
-2.74746e-07
-2.62828e-06
7.84337e-07
-1.54323e-08
3.35104e-06
2.98869e-08
8.7237e-06
1.94478e-07
1.68614e-05
4.75746e-07
2.74391e-05
7.72629e-07
4.02134e-05
9.1522e-07
5.51637e-05
6.70436e-07
7.23045e-05
-2.24219e-07
9.15871e-05
-2.00456e-06
-4.9318e-06
7.05264e-07
-6.38372e-09
2.91752e-06
5.7755e-08
7.5051e-06
1.99375e-07
1.45386e-05
3.76256e-07
2.39327e-05
4.77406e-07
3.56405e-05
3.30174e-07
4.97256e-05
-2.96508e-07
6.62086e-05
-1.66149e-06
8.50221e-05
-3.99758e-06
-7.53136e-06
6.09737e-07
5.05623e-09
2.53036e-06
7.2726e-08
6.54891e-06
1.50922e-07
1.28354e-05
1.87377e-07
2.14553e-05
6.69411e-08
3.24827e-05
-3.95402e-07
4.60132e-05
-1.43512e-06
6.20702e-05
-3.31094e-06
8.05814e-05
-6.24857e-06
-1.04192e-05
5.08653e-07
1.80925e-08
2.25654e-06
6.9446e-08
5.95592e-06
5.15012e-08
1.18358e-05
-7.65633e-08
2.00533e-05
-4.48216e-07
3.07373e-05
-1.26456e-06
4.39938e-05
-2.76442e-06
5.98402e-05
-5.19681e-06
7.81919e-05
-8.77405e-06
-1.35999e-05
4.4768e-07
2.49652e-08
2.20388e-06
3.99073e-08
5.87495e-06
-1.06579e-07
1.16802e-05
-4.34082e-07
1.98198e-05
-1.10691e-06
3.04353e-05
-2.33131e-06
4.36333e-05
-4.34052e-06
5.94384e-05
-7.36888e-06
7.77579e-05
-1.16117e-05
-1.70958e-05
6.58972e-07
-5.61326e-08
2.69068e-06
-4.73833e-08
6.59885e-06
-3.62293e-07
1.25904e-05
-9.55525e-07
2.08756e-05
-1.9954e-06
3.16054e-05
-3.68214e-06
4.48914e-05
-6.23905e-06
6.07813e-05
-9.88945e-06
7.91217e-05
-1.47822e-05
-5.72358e-05
2.08571e-05
-4.09095e-05
1.55239e-05
-2.62863e-05
1.06689e-05
-1.42015e-05
6.63e-06
-5.39109e-06
3.53716e-06
-1.98248e-07
1.45929e-06
1.76692e-06
3.41861e-07
1.72481e-06
-2.72681e-08
-3.68395e-08
7.3248e-07
-5.92491e-05
2.2009e-05
-4.1529e-05
1.63256e-05
-2.56393e-05
1.10609e-05
-1.26063e-05
6.67792e-06
-3.24337e-06
3.33852e-06
2.16803e-06
1.10674e-06
4.16038e-06
-1.10258e-07
4.07253e-06
-5.69187e-07
-6.67198e-07
3.39475e-06
-5.99114e-05
2.26822e-05
-4.08782e-05
1.67331e-05
-2.38904e-05
1.11039e-05
-1.00326e-05
6.43514e-06
-1.2997e-07
2.87911e-06
5.68626e-06
4.78701e-07
8.08953e-06
-8.96451e-07
8.41177e-06
-1.51418e-06
-1.76433e-06
8.11921e-06
-5.88422e-05
-3.88922e-05
1.66058e-05
-2.09615e-05
1.07683e-05
-6.35006e-06
5.8419e-06
4.16563e-06
2.07458e-06
1.06765e-05
-5.25502e-07
1.39477e-05
-2.12635e-06
1.52485e-05
-2.99013e-06
-3.48857e-06
1.58798e-05
-3.4867e-05
-1.65267e-05
-1.2921e-06
4.74277e-06
9.98701e-06
8.11345e-07
1.74612e-05
-2.03019e-06
2.19396e-05
-3.908e-06
2.45982e-05
-5.07532e-06
-5.88203e-06
2.64679e-05
5.72344e-06
1.77652e-05
2.63376e-05
-4.17733e-06
3.21599e-05
-6.33689e-06
3.63053e-05
-7.8314e-06
-8.96431e-06
3.95228e-05
3.74384e-05
4.46549e-05
5.02567e-05
-1.12997e-05
-1.27498e-05
5.47484e-05
6.61135e-05
7.1992e-05
6.31827e-07
6.07667e-08
6.58657e-07
4.98385e-08
3.513e-08
8.39024e-07
3.01612e-06
-2.30927e-07
2.99573e-06
-2.46372e-07
-2.20465e-07
3.25212e-06
8.02803e-06
-7.88724e-07
8.14619e-06
-8.78903e-07
-8.3631e-07
8.52607e-06
1.63834e-05
-1.69772e-06
1.67298e-05
-1.88339e-06
-1.85308e-06
1.71667e-05
2.77596e-05
-2.9742e-06
2.84772e-05
-3.26727e-06
-3.27318e-06
2.90376e-05
4.16647e-05
-4.61305e-06
4.28476e-05
-5.01684e-06
-5.07694e-06
4.36733e-05
5.76768e-05
-6.60558e-06
5.9344e-05
-7.11142e-06
-7.23293e-06
6.05755e-05
7.57476e-05
7.78039e-05
-9.54987e-06
-9.72035e-06
7.94682e-05
9.75078e-05
9.98701e-05
1.77195e-06
-1.08188e-07
4.34806e-06
-3.69781e-07
8.80626e-06
-9.03269e-07
1.53773e-05
-1.81828e-06
2.42667e-05
-3.27006e-06
3.56363e-05
-5.45046e-06
4.96101e-05
-8.57116e-06
6.62687e-05
-1.28455e-05
-1.83804e-05
4.58716e-06
-7.9937e-07
7.71762e-06
-1.21418e-06
1.27471e-05
-2.00291e-06
1.98819e-05
-3.24846e-06
2.93173e-05
-5.11454e-06
4.12167e-05
-7.78183e-06
5.57089e-05
-1.14435e-05
7.28916e-05
-1.62941e-05
-2.24042e-05
1.01112e-05
-2.20937e-06
1.36487e-05
-2.76031e-06
1.91477e-05
-3.81182e-06
2.67725e-05
-5.39558e-06
3.66934e-05
-7.66481e-06
4.90615e-05
-1.07863e-05
6.39911e-05
-1.49314e-05
8.15626e-05
-2.02655e-05
-2.67873e-05
1.88202e-05
-4.44261e-06
2.25672e-05
-5.1456e-06
2.83763e-05
-6.45563e-06
3.63601e-05
-8.36423e-06
4.66452e-05
-1.10063e-05
5.93563e-05
-1.45285e-05
7.45776e-05
-1.90781e-05
9.23489e-05
-2.47891e-05
-3.15919e-05
3.07315e-05
-7.51168e-06
3.45882e-05
-8.40337e-06
4.05767e-05
-9.97447e-06
4.87765e-05
-1.21843e-05
5.92826e-05
-1.5156e-05
7.21805e-05
-1.9014e-05
8.75181e-05
-2.38803e-05
0.000105293
-2.98613e-05
-3.68368e-05
4.5524e-05
-1.13703e-05
4.95141e-05
-1.24876e-05
5.5635e-05
-1.43251e-05
6.39543e-05
-1.68132e-05
7.45557e-05
-2.00664e-05
8.74865e-05
-2.41915e-05
0.000102762
-2.92855e-05
0.000120347
-3.54321e-05
-4.24717e-05
6.27649e-05
-1.59412e-05
6.69905e-05
-1.73076e-05
7.32732e-05
-1.94117e-05
8.16792e-05
-2.2157e-05
9.22831e-05
-2.56433e-05
0.000105116
-2.99675e-05
0.000120165
-3.52059e-05
0.000137371
-4.14204e-05
-4.84232e-05
8.21147e-05
-2.11503e-05
8.66773e-05
-2.27623e-05
9.31905e-05
-2.51214e-05
0.00010168
-2.81015e-05
0.000112225
-3.17751e-05
0.000124858
-3.62352e-05
0.000139532
-4.1542e-05
0.000156181
-4.77355e-05
-5.46109e-05
0.000103293
0.000108374
-2.87178e-05
0.000115201
-3.13606e-05
0.000123774
-3.45601e-05
0.000134194
-3.83766e-05
0.000146528
-4.29083e-05
0.000160686
-4.82093e-05
0.000176607
-5.42993e-05
-6.09661e-05
0.00013155
0.000139022
0.000147901
0.000158187
-4.5391e-05
0.000170062
-4.99522e-05
0.000183531
-5.51564e-05
0.000198554
-6.10603e-05
-6.74432e-05
0.000183846
0.000195425
0.000208146
-6.23361e-05
0.000222062
-6.80217e-05
-7.40251e-05
0.000234268
0.000247201
-8.06741e-05
)
;

boundaryField
{
    inlet
    {
        type            calculated;
        value           nonuniform 0();
    }
    outlet
    {
        type            calculated;
        value           nonuniform 0();
    }
    flap
    {
        type            calculated;
        value           uniform 0;
    }
    upperWall
    {
        type            calculated;
        value           nonuniform 0();
    }
    lowerWall
    {
        type            calculated;
        value           uniform 0;
    }
    frontAndBack
    {
        type            empty;
        value           nonuniform 0();
    }
    procBoundary4to1
    {
        type            processor;
        value           nonuniform List<scalar> 
30
(
2.25258e-05
5.45684e-05
1.52598e-05
9.67514e-06
9.6504e-06
2.69565e-06
-1.17165e-06
-2.77676e-05
-7.12334e-06
-9.49339e-06
-5.89862e-05
-1.53585e-05
-1.71526e-05
-8.94193e-06
-9.49197e-05
-1.20595e-05
-1.23412e-05
-2.67539e-05
-0.00012549
-3.47434e-05
-3.78137e-05
-4.13654e-05
-0.000173334
-5.23498e-05
-5.71256e-05
-0.0002219
-6.92679e-05
-7.49544e-05
-0.000273352
-8.68999e-05
)
;
    }
    procBoundary4to2
    {
        type            processor;
        value           nonuniform List<scalar> 
11
(
0.000101237
0.000111923
0.000124575
0.000139167
0.000155548
0.000173542
0.000192993
0.000213805
0.000235974
0.000259623
0.00028453
)
;
    }
    procBoundary4to3
    {
        type            processor;
        value           nonuniform List<scalar> 
19
(
2.08756e-05
2.12772e-05
2.21923e-05
2.36687e-05
2.5704e-05
2.83111e-05
3.14988e-05
3.52535e-05
3.95475e-05
4.431e-05
4.94008e-05
5.46215e-05
5.9707e-05
6.43167e-05
6.80822e-05
7.33863e-05
7.63816e-05
7.76935e-05
7.66298e-05
)
;
    }
    procBoundary4to5
    {
        type            processor;
        value           nonuniform List<scalar> 
18
(
0.0002074
0.00020504
0.000198173
0.000187189
0.000173895
0.000159671
0.000145706
0.000132891
0.000121807
0.000112767
0.0001059
0.000101209
9.86129e-05
9.79995e-05
9.91702e-05
-2.08775e-05
8.53291e-05
9.23733e-05
)
;
    }
}


// ************************************************************************* //
