/*--------------------------------*- C++ -*----------------------------------*\
| =========                 |                                                 |
| \\      /  F ield         | OpenFOAM: The Open Source CFD Toolbox           |
|  \\    /   O peration     | Version:  dev                                   |
|   \\  /    A nd           | Web:      www.OpenFOAM.org                      |
|    \\/     M anipulation  |                                                 |
\*---------------------------------------------------------------------------*/
FoamFile
{
    version     2.0;
    format      ascii;
    class       volScalarField;
    location    "1";
    object      p;
}
// * * * * * * * * * * * * * * * * * * * * * * * * * * * * * * * * * * * * * //

dimensions      [0 2 -2 0 0 0 0];

internalField   nonuniform List<scalar> 
465
(
219.871
221.908
223.829
225.587
227.132
228.42
229.407
230.063
230.365
219.703
221.744
223.674
225.447
227.014
228.327
229.344
230.028
230.473
219.097
221.093
222.984
224.726
226.276
227.59
228.632
229.368
229.804
218.199
220.109
221.915
223.578
225.052
226.295
227.255
227.864
227.832
217.052
218.843
220.527
222.063
223.403
224.492
225.243
225.586
224.839
215.686
217.33
218.855
220.219
221.367
222.228
222.677
222.724
221.289
214.119
215.59
216.924
218.075
218.98
219.56
219.653
219.43
217.464
212.362
213.634
214.747
215.647
216.266
216.527
216.234
215.766
213.42
210.423
211.471
212.331
212.944
213.236
213.14
212.424
211.698
209.026
208.31
209.107
209.681
209.967
209.883
209.377
208.178
207.121
204.055
206.029
206.548
206.8
206.712
206.191
205.198
203.41
201.882
198.252
203.593
203.805
203.696
203.179
202.144
200.549
198.012
195.761
191.216
201.018
200.894
200.384
199.38
197.74
195.392
191.863
188.443
182.198
198.326
197.844
196.9
195.356
193.02
189.74
184.884
179.54
169.847
195.551
194.7
193.306
191.197
188.111
183.764
177.25
168.923
151.636
102.099
101.916
101.499
100.812
99.8172
98.4865
96.8029
94.7519
92.3132
89.4195
102.075
101.91
101.517
100.854
99.8759
98.5535
96.8739
94.8175
92.3555
89.4454
102.15
102.021
101.648
100.99
100.009
98.69
97.0033
94.923
92.4208
89.4688
102.36
102.263
101.896
101.234
100.247
98.9085
97.1881
95.0571
92.4888
89.4648
102.702
102.626
102.257
101.581
100.567
99.1867
97.408
95.202
92.545
89.4239
103.146
103.09
102.705
101.994
100.932
99.4889
97.6316
95.3313
92.5663
89.3272
103.667
103.607
103.183
102.422
101.298
99.7787
97.8298
95.4217
92.5349
89.162
104.196
104.106
103.631
102.815
101.627
100.029
97.9834
95.461
92.4437
88.9263
104.65
104.521
104.002
103.142
101.899
100.227
98.0871
95.4494
92.297
88.6274
104.964
104.811
104.275
103.395
102.115
100.381
98.1524
95.4005
92.1101
88.2821
105.096
104.971
104.464
103.599
102.304
100.521
98.2089
95.3415
91.9087
87.915
105.028
105.034
104.625
103.813
102.525
100.7
98.3013
95.3103
91.7246
87.5546
104.768
105.087
104.861
104.137
102.863
100.985
98.4814
95.3464
91.5894
87.2288
104.306
105.287
105.343
104.697
103.409
101.443
98.7952
95.4818
91.5288
86.9619
103.462
105.918
106.321
105.664
104.253
102.106
99.2458
95.7111
91.5406
86.7635
192.681
191.46
189.622
186.962
183.161
177.792
169.645
157.723
122.086
189.736
188.167
185.932
182.818
178.507
172.58
163.996
153.195
141.378
186.781
184.915
182.376
178.981
174.505
168.771
161.512
153.757
148.256
183.874
181.779
179.045
175.544
171.154
165.847
159.581
152.518
145.351
178.808
175.972
172.471
168.238
163.257
157.496
150.923
144.104
169.699
165.641
160.967
155.7
149.901
144.024
158.971
154.173
149.001
143.724
148.056
143.224
38.154
60.756
85.0127
132.092
129.858
126.063
140.251
133.691
128.656
136.693
131.555
128.218
137.684
133.681
130.56
138.751
135.209
132.162
138.963
135.734
132.897
138.88
135.933
133.324
135.985
133.574
105.94
107.817
107.816
107.167
105.497
103.015
99.843
96.0323
91.6135
118.76
113.785
111.935
109.907
107.255
104.145
100.549
96.4169
91.7327
122.034
116.516
114.101
111.762
108.702
105.134
101.161
96.7378
91.8197
123.537
118.399
115.206
112.365
109.147
105.492
101.398
96.8311
91.7737
125.921
120.627
116.517
112.883
109.237
105.397
101.233
96.6301
91.5376
127.786
122.592
117.908
113.602
109.452
105.279
100.926
96.2497
91.1521
128.971
124.091
119.181
114.452
109.897
105.381
100.767
95.9335
90.7797
129.789
125.246
120.327
115.395
110.578
105.794
100.934
95.9089
90.6426
130.352
126.131
121.339
116.377
111.447
106.507
101.474
96.2891
90.9039
126.783
122.196
117.331
112.418
107.44
102.336
97.0683
91.6097
113.408
108.496
103.422
98.1632
92.7065
104.625
99.4602
94.0851
95.6206
)
;

boundaryField
{
    inlet
    {
        type            zeroGradient;
    }
    outlet
    {
        type            fixedValue;
        value           nonuniform 0();
    }
    flap
    {
        type            zeroGradient;
    }
    upperWall
    {
        type            zeroGradient;
    }
    lowerWall
    {
        type            zeroGradient;
    }
    frontAndBack
    {
        type            empty;
    }
    procBoundary4to1
    {
        type            processor;
        value           nonuniform List<scalar> 
30
(
181.061
181.061
176.019
173.145
173.145
167.189
163.326
163.326
157.182
152.77
152.77
147.123
142.686
138.7
138.7
135.907
133.668
130.705
130.705
127.251
122.901
118.209
118.209
114.358
109.585
109.585
105.855
100.847
100.847
97.2018
)
;
    }
    procBoundary4to2
    {
        type            processor;
        value           nonuniform List<scalar> 
11
(
86.3894
86.2196
85.9481
85.5873
85.2338
85.0677
85.2695
85.9315
87.038
88.4956
90.1756
)
;
    }
    procBoundary4to3
    {
        type            processor;
        value           nonuniform List<scalar> 
19
(
217.76
217.593
217.037
216.223
215.19
213.96
212.552
210.974
209.236
207.343
205.305
203.134
200.844
198.453
195.989
193.432
190.791
188.113
185.441
)
;
    }
    procBoundary4to5
    {
        type            processor;
        value           nonuniform List<scalar> 
18
(
86.0583
86.0781
86.0629
85.9847
85.8424
85.6206
85.3122
84.9196
84.4536
83.9327
83.381
82.8256
82.2941
81.8117
81.3975
86.6098
86.6098
86.4993
)
;
    }
}


// ************************************************************************* //
