/*--------------------------------*- C++ -*----------------------------------*\
| =========                 |                                                 |
| \\      /  F ield         | OpenFOAM: The Open Source CFD Toolbox           |
|  \\    /   O peration     | Version:  dev                                   |
|   \\  /    A nd           | Web:      www.OpenFOAM.org                      |
|    \\/     M anipulation  |                                                 |
\*---------------------------------------------------------------------------*/
FoamFile
{
    version     2.0;
    format      ascii;
    class       pointVectorField;
    location    "1";
    object      pointDisplacement;
}
// * * * * * * * * * * * * * * * * * * * * * * * * * * * * * * * * * * * * * //

dimensions      [0 1 0 0 0 0 0];

internalField   nonuniform List<vector> 
1062
(
(0.074355 0 0)
(0.0663653 0 0)
(0.0579905 0 0)
(0.049337 0 0)
(0.0405377 0 0)
(0.031771 0 0)
(0.0233213 0 0)
(0.0157136 0 0)
(0.0102019 0 0)
(0 0 0)
(0.07531 0 -0.000213838)
(0.067479 0 4.5899e-05)
(0.0592989 0 0.000374868)
(0.0508904 0 0.000789389)
(0.0424107 0 0.00131031)
(0.0340677 0 0.00196523)
(0.0261731 0 0.00279108)
(0.019313 0 0.00382423)
(0.014921 0 0.00499348)
(0.00781292 0 0.00723804)
(0.0781589 0 -0.000509188)
(0.0707948 0 -1.5758e-05)
(0.0631801 0 0.000606112)
(0.0554688 0 0.00138435)
(0.0478844 0 0.00235211)
(0.0407308 0 0.00354629)
(0.0344222 0 0.00500064)
(0.0296219 0 0.00671802)
(0.0279812 0 0.0084549)
(0.0240151 0 0.0113394)
(0.0828625 0 -0.000962183)
(0.0762629 0 -0.000284929)
(0.0695683 0 0.000560624)
(0.0629736 0 0.00160541)
(0.0567637 0 0.00288042)
(0.0513648 0 0.00440368)
(0.0473776 0 0.00615786)
(0.0455418 0 0.00805575)
(0.0473409 0 0.00966204)
(0.0466278 0 0.0122577)
(0.089342 0 -0.00163901)
(0.0837771 0 -0.000846502)
(0.0783157 0 0.00013022)
(0.073216 0 0.00131208)
(0.0688124 0 0.00271063)
(0.0655876 0 0.00430857)
(0.0642966 0 0.00601303)
(0.0658015 0 0.00761482)
(0.0711425 0 0.00857265)
(0.0732431 0 0.010337)
(0.0974926 0 -0.00259278)
(0.0932088 0 -0.00176749)
(0.0892496 0 -0.000767049)
(0.0859266 0 0.000410867)
(0.0836547 0 0.0017421)
(0.0829498 0 0.00316307)
(0.0845397 0 0.00451518)
(0.0893045 0 0.00548494)
(0.0978586 0 0.00553249)
(0.102225 0 0.00636215)
(0.107178 0 -0.0038605)
(0.104389 0 -0.00309058)
(0.102175 0 -0.00218106)
(0.100868 0 -0.00115087)
(0.100926 0 -5.94348e-05)
(0.102918 0 0.00097404)
(0.107447 0 0.00174517)
(0.115212 0 0.00190244)
(0.126427 0 0.000994655)
(0.132522 0 0.000968578)
(0.118247 0 -0.00546362)
(0.117127 0 -0.00483715)
(0.116834 0 -0.00412559)
(0.117739 0 -0.00337588)
(0.120273 0 -0.00267447)
(0.124989 0 -0.00218141)
(0.132375 0 -0.0021289)
(0.142818 0 -0.0028393)
(0.156072 0 -0.00460902)
(0.16337 0 -0.00537297)
(0.130509 0 -0.00740458)
(0.131207 0 -0.0070064)
(0.132964 0 -0.0065896)
(0.136182 0 -0.00622819)
(0.141274 0 -0.00603395)
(0.148687 0 -0.00618173)
(0.158751 0 -0.00689991)
(0.171484 0 -0.00843283)
(0.186179 0 -0.0108929)
(0.194202 0 -0.0121867)
(0.143766 0 -0.00967265)
(0.146364 0 -0.00957414)
(0.150263 0 -0.00953579)
(0.155847 0 -0.00964768)
(0.163498 0 -0.0100379)
(0.173525 0 -0.010875)
(0.186026 0 -0.0123472)
(0.200644 0 -0.0145906)
(0.216291 0 -0.0175467)
(0.224725 0 -0.0191536)
(0.157786 0 -0.0122409)
(0.16232 0 -0.0125005)
(0.168386 0 -0.0129036)
(0.176331 0 -0.0135482)
(0.18647 0 -0.0145628)
(0.198956 0 -0.0160905)
(0.213631 0 -0.0182535)
(0.22979 0 -0.0210703)
(0.246059 0 -0.024353)
(0.254853 0 -0.0261527)
(0.172284 0 -0.0150622)
(0.178752 0 -0.0157262)
(0.186938 0 -0.0166116)
(0.197151 0 -0.0178185)
(0.209624 0 -0.0194635)
(0.22436 0 -0.0216497)
(0.240962 0 -0.02442)
(0.25843 0 -0.0276825)
(0.275163 0 -0.031165)
(0.284491 0 -0.0331169)
(0.186963 0 -0.0180794)
(0.195282 0 -0.0191728)
(0.205452 0 -0.0205563)
(0.217743 0 -0.0223265)
(0.232306 0 -0.0245798)
(0.249024 0 -0.0273732)
(0.26732 0 -0.0306697)
(0.285976 0 -0.0342788)
(0.303181 0 -0.0378753)
(0.313559 0 -0.039952)
(0.2015 0 -0.0212224)
(0.211495 0 -0.022746)
(0.223414 0 -0.0246169)
(0.237479 0 -0.0269235)
(0.253774 0 -0.0297396)
(0.272095 0 -0.0330798)
(0.29178 0 -0.0368396)
(0.311519 0 -0.0407424)
(0.329352 0 -0.0444188)
(0.342111 0 -0.0465559)
(0.215549 0 -0.0244084)
(0.226964 0 -0.0263401)
(0.240297 0 -0.0286608)
(0.25571 0 -0.031448)
(0.273215 0 -0.0347559)
(0.29255 0 -0.0385718)
(0.313042 0 -0.0427577)
(0.333435 0 -0.0469797)
(0.351997 0 -0.0508251)
(0.370298 0 -0.0529035)
(0.228892 0 -0.027578)
(0.241408 0 -0.029876)
(0.255736 0 -0.0325844)
(0.271954 0 -0.0357675)
(0.289979 0 -0.0394638)
(0.309454 0 -0.0436555)
(0.329658 0 -0.0482425)
(0.349337 0 -0.0530248)
(0.36715 0 -0.0580194)
(0.398455 0 -0.0591605)
(0.074355 0 0)
(0.0663653 0 0)
(0.0579905 0 0)
(0.049337 0 0)
(0.0405377 0 0)
(0.031771 0 0)
(0.0233213 0 0)
(0.0157136 0 0)
(0.0102019 0 0)
(0 0 0)
(0.07531 0 -0.000213838)
(0.067479 0 4.5899e-05)
(0.0592989 0 0.000374868)
(0.0508904 0 0.000789389)
(0.0424107 0 0.00131031)
(0.0340677 0 0.00196523)
(0.0261731 0 0.00279108)
(0.019313 0 0.00382423)
(0.014921 0 0.00499348)
(0.00781292 0 0.00723804)
(0.0781589 0 -0.000509188)
(0.0707948 0 -1.5758e-05)
(0.0631801 0 0.000606112)
(0.0554688 0 0.00138435)
(0.0478844 0 0.00235211)
(0.0407308 0 0.00354629)
(0.0344222 0 0.00500064)
(0.0296219 0 0.00671802)
(0.0279812 0 0.0084549)
(0.0240151 0 0.0113394)
(0.0828625 0 -0.000962183)
(0.0762629 0 -0.000284929)
(0.0695683 0 0.000560624)
(0.0629736 0 0.00160541)
(0.0567637 0 0.00288042)
(0.0513648 0 0.00440368)
(0.0473776 0 0.00615786)
(0.0455418 0 0.00805575)
(0.0473409 0 0.00966204)
(0.0466278 0 0.0122577)
(0.089342 0 -0.00163901)
(0.0837771 0 -0.000846502)
(0.0783157 0 0.00013022)
(0.073216 0 0.00131208)
(0.0688124 0 0.00271063)
(0.0655876 0 0.00430857)
(0.0642966 0 0.00601303)
(0.0658015 0 0.00761482)
(0.0711425 0 0.00857265)
(0.0732431 0 0.010337)
(0.0974926 0 -0.00259278)
(0.0932088 0 -0.00176749)
(0.0892496 0 -0.000767049)
(0.0859266 0 0.000410867)
(0.0836547 0 0.0017421)
(0.0829498 0 0.00316307)
(0.0845397 0 0.00451518)
(0.0893045 0 0.00548494)
(0.0978586 0 0.00553249)
(0.102225 0 0.00636215)
(0.107178 0 -0.0038605)
(0.104389 0 -0.00309058)
(0.102175 0 -0.00218106)
(0.100868 0 -0.00115087)
(0.100926 0 -5.94348e-05)
(0.102918 0 0.00097404)
(0.107447 0 0.00174517)
(0.115212 0 0.00190244)
(0.126427 0 0.000994655)
(0.132522 0 0.000968577)
(0.118247 0 -0.00546362)
(0.117127 0 -0.00483715)
(0.116834 0 -0.00412559)
(0.117739 0 -0.00337588)
(0.120273 0 -0.00267447)
(0.124989 0 -0.00218141)
(0.132375 0 -0.0021289)
(0.142818 0 -0.0028393)
(0.156072 0 -0.00460902)
(0.16337 0 -0.00537297)
(0.130509 0 -0.00740458)
(0.131207 0 -0.0070064)
(0.132964 0 -0.0065896)
(0.136182 0 -0.00622819)
(0.141274 0 -0.00603395)
(0.148687 0 -0.00618173)
(0.158751 0 -0.00689991)
(0.171484 0 -0.00843283)
(0.186179 0 -0.0108929)
(0.194202 0 -0.0121867)
(0.143766 0 -0.00967265)
(0.146364 0 -0.00957414)
(0.150263 0 -0.00953579)
(0.155847 0 -0.00964768)
(0.163498 0 -0.0100379)
(0.173525 0 -0.010875)
(0.186026 0 -0.0123472)
(0.200644 0 -0.0145906)
(0.216291 0 -0.0175467)
(0.224725 0 -0.0191536)
(0.157786 0 -0.0122409)
(0.16232 0 -0.0125005)
(0.168386 0 -0.0129036)
(0.176331 0 -0.0135482)
(0.18647 0 -0.0145628)
(0.198956 0 -0.0160905)
(0.213631 0 -0.0182535)
(0.22979 0 -0.0210703)
(0.246059 0 -0.024353)
(0.254853 0 -0.0261527)
(0.172284 0 -0.0150622)
(0.178752 0 -0.0157262)
(0.186938 0 -0.0166116)
(0.197151 0 -0.0178185)
(0.209624 0 -0.0194635)
(0.22436 0 -0.0216497)
(0.240962 0 -0.02442)
(0.25843 0 -0.0276825)
(0.275163 0 -0.031165)
(0.284491 0 -0.0331169)
(0.186963 0 -0.0180794)
(0.195282 0 -0.0191728)
(0.205452 0 -0.0205563)
(0.217743 0 -0.0223265)
(0.232306 0 -0.0245798)
(0.249024 0 -0.0273732)
(0.26732 0 -0.0306697)
(0.285976 0 -0.0342788)
(0.303181 0 -0.0378753)
(0.313559 0 -0.039952)
(0.2015 0 -0.0212224)
(0.211495 0 -0.022746)
(0.223414 0 -0.0246169)
(0.237479 0 -0.0269235)
(0.253774 0 -0.0297396)
(0.272095 0 -0.0330798)
(0.29178 0 -0.0368396)
(0.311519 0 -0.0407424)
(0.329352 0 -0.0444188)
(0.342111 0 -0.0465559)
(0.215549 0 -0.0244084)
(0.226964 0 -0.0263401)
(0.240297 0 -0.0286608)
(0.25571 0 -0.031448)
(0.273215 0 -0.0347559)
(0.29255 0 -0.0385718)
(0.313042 0 -0.0427577)
(0.333435 0 -0.0469797)
(0.351997 0 -0.0508251)
(0.370298 0 -0.0529035)
(0.228892 0 -0.027578)
(0.241408 0 -0.029876)
(0.255736 0 -0.0325844)
(0.271954 0 -0.0357675)
(0.289979 0 -0.0394638)
(0.309454 0 -0.0436555)
(0.329658 0 -0.0482425)
(0.349337 0 -0.0530248)
(0.36715 0 -0.0580194)
(0.398455 0 -0.0591605)
(0 0 0)
(0.0181833 0 0)
(0.036033 0 0)
(0.0621812 0 0)
(0.092594 0 0)
(0.123179 0 0)
(0.151147 0 0)
(0.175236 0 0)
(0.19522 0 0)
(0.211283 0 0)
(0.223799 0 0)
(0.00606664 0 -0.00790453)
(0.0225215 0 -0.00799411)
(0.0404708 0 -0.00898603)
(0.0662683 0 -0.00971321)
(0.0961069 0 -0.010144)
(0.126087 0 -0.0102775)
(0.153513 0 -0.0101794)
(0.177147 0 -0.00991492)
(0.196759 0 -0.00952947)
(0.212527 0 -0.00906565)
(0.224809 0 -0.0085676)
(0.020011 0 -0.0149262)
(0.0348373 0 -0.0157413)
(0.0530382 0 -0.0175635)
(0.0779372 0 -0.0188966)
(0.106252 0 -0.019704)
(0.134547 0 -0.0199654)
(0.160432 0 -0.0197845)
(0.18276 0 -0.0192806)
(0.2013 0 -0.0185539)
(0.2162 0 -0.0176815)
(0.227784 0 -0.0167331)
(0.0401857 0 -0.0219204)
(0.0534521 0 -0.0232237)
(0.0718557 0 -0.0256542)
(0.095503 0 -0.0274439)
(0.121693 0 -0.0285253)
(0.147588 0 -0.0288834)
(0.171219 0 -0.0286375)
(0.191594 0 -0.0279373)
(0.208497 0 -0.0269209)
(0.222046 0 -0.0256928)
(0.232534 0 -0.024351)
(0.0647532 0 -0.0290092)
(0.0766889 0 -0.0305783)
(0.0950975 0 -0.0333856)
(0.117274 0 -0.0354656)
(0.141018 0 -0.036698)
(0.164134 0 -0.0370915)
(0.185078 0 -0.0367692)
(0.203049 0 -0.035893)
(0.217892 0 -0.0346226)
(0.22972 0 -0.0330875)
(0.238798 0 -0.0314013)
(0.0922724 0 -0.0362391)
(0.103097 0 -0.0378676)
(0.121238 0 -0.0408485)
(0.141792 0 -0.043049)
(0.162978 0 -0.0443148)
(0.183156 0 -0.0446642)
(0.201165 0 -0.04422)
(0.216455 0 -0.0431581)
(0.228963 0 -0.0416516)
(0.238818 0 -0.0398477)
(0.246258 0 -0.0378643)
(0.121674 0 -0.0435227)
(0.131512 0 -0.0450645)
(0.149101 0 -0.0480609)
(0.167934 0 -0.0502415)
(0.186548 0 -0.0514341)
(0.203734 0 -0.0516546)
(0.218696 0 -0.051031)
(0.231167 0 -0.0497607)
(0.241186 0 -0.0480224)
(0.248914 0 -0.0459714)
(0.254578 0 -0.0437306)
(0.152116 0 -0.0506701)
(0.161052 0 -0.0521056)
(0.177843 0 -0.0550117)
(0.194866 0 -0.0570615)
(0.210885 0 -0.0580747)
(0.225056 0 -0.0580781)
(0.236955 0 -0.0572221)
(0.246567 0 -0.0557164)
(0.254041 0 -0.0537454)
(0.259585 0 -0.0514641)
(0.263402 0 -0.0489926)
(0.182916 0 -0.0575864)
(0.191075 0 -0.0589458)
(0.206869 0 -0.0616904)
(0.221962 0 -0.0635084)
(0.235303 0 -0.0642295)
(0.24643 0 -0.0639245)
(0.255281 0 -0.0627812)
(0.262059 0 -0.0610157)
(0.267018 0 -0.0588131)
(0.270397 0 -0.0563196)
(0.272379 0 -0.0536461)
(0.213631 0 -0.0642793)
(0.221144 0 -0.0655739)
(0.235748 0 -0.0680864)
(0.248703 0 -0.0695553)
(0.25921 0 -0.0698643)
(0.26724 0 -0.0691627)
(0.273076 0 -0.0676815)
(0.277102 0 -0.0656405)
(0.279651 0 -0.0632158)
(0.280967 0 -0.0605362)
(0.281199 0 -0.0576947)
(0.244038 0 -0.0707927)
(0.250971 0 -0.0719881)
(0.264101 0 -0.0741639)
(0.274566 0 -0.075131)
(0.282008 0 -0.0749003)
(0.286893 0 -0.073729)
(0.289799 0 -0.0718836)
(0.291229 0 -0.0695727)
(0.291539 0 -0.0669475)
(0.290959 0 -0.0641164)
(0.289591 0 -0.0611488)
(0.274035 0 -0.0771247)
(0.280317 0 -0.0781635)
(0.291466 0 -0.0798259)
(0.29891 0 -0.0800944)
(0.303032 0 -0.0792074)
(0.304781 0 -0.0775291)
(0.304927 0 -0.07533)
(0.304011 0 -0.072786)
(0.302344 0 -0.0700059)
(0.3001 0 -0.0670687)
(0.297342 0 -0.0640262)
(0.303504 0 -0.083245)
(0.308804 0 -0.0840067)
(0.317072 0 -0.0848525)
(0.320851 0 -0.0842043)
(0.321498 0 -0.0826024)
(0.320289 0 -0.0804515)
(0.318014 0 -0.0779681)
(0.315123 0 -0.0752637)
(0.311834 0 -0.0724005)
(0.308232 0 -0.0694207)
(0.304326 0 -0.0663584)
(0.332377 0 -0.0892321)
(0.335449 0 -0.089208)
(0.339526 0 -0.0887916)
(0.33922 0 -0.0871065)
(0.33665 0 -0.0848849)
(0.332984 0 -0.0824082)
(0.328829 0 -0.0797775)
(0.324445 0 -0.0770236)
(0.319931 0 -0.0741639)
(0.315289 0 -0.0712128)
(0.310474 0 -0.0681865)
(0.360754 0 -0.095251)
(0.35791 0 -0.0928388)
(0.357139 0 -0.09087)
(0.353103 0 -0.0883847)
(0.348115 0 -0.0858899)
(0.342787 0 -0.0833676)
(0.337394 0 -0.0807838)
(0.332014 0 -0.0781139)
(0.326649 0 -0.0753496)
(0.32125 0 -0.0724929)
(0.315746 0 -0.0695528)
(0.389005 0 -0.101427)
(0.37264 0 -0.0909368)
(0.368165 0 -0.0895711)
(0.362183 0 -0.0876634)
(0.356041 0 -0.0856005)
(0.349927 0 -0.0834043)
(0.343901 0 -0.081075)
(0.337961 0 -0.0786137)
(0.332071 0 -0.0760269)
(0.326169 0 -0.0733225)
(0.320175 0 -0.0705119)
(0 0 0)
(0.0181833 0 0)
(0.036033 0 0)
(0.0621812 0 0)
(0.092594 0 0)
(0.123179 0 0)
(0.151147 0 0)
(0.175236 0 0)
(0.19522 0 0)
(0.211283 0 0)
(0.223799 0 0)
(0.00606664 0 -0.00790453)
(0.0225215 0 -0.00799411)
(0.0404708 0 -0.00898603)
(0.0662683 0 -0.00971321)
(0.0961069 0 -0.010144)
(0.126087 0 -0.0102775)
(0.153513 0 -0.0101794)
(0.177147 0 -0.00991492)
(0.196759 0 -0.00952947)
(0.212527 0 -0.00906565)
(0.224809 0 -0.0085676)
(0.020011 0 -0.0149262)
(0.0348373 0 -0.0157413)
(0.0530382 0 -0.0175635)
(0.0779372 0 -0.0188966)
(0.106252 0 -0.019704)
(0.134547 0 -0.0199654)
(0.160432 0 -0.0197845)
(0.18276 0 -0.0192806)
(0.2013 0 -0.0185539)
(0.2162 0 -0.0176815)
(0.227784 0 -0.0167331)
(0.0401857 0 -0.0219204)
(0.0534521 0 -0.0232237)
(0.0718557 0 -0.0256542)
(0.095503 0 -0.0274439)
(0.121693 0 -0.0285253)
(0.147588 0 -0.0288834)
(0.171219 0 -0.0286375)
(0.191594 0 -0.0279373)
(0.208497 0 -0.0269209)
(0.222046 0 -0.0256928)
(0.232534 0 -0.024351)
(0.0647532 0 -0.0290092)
(0.0766889 0 -0.0305783)
(0.0950975 0 -0.0333856)
(0.117274 0 -0.0354656)
(0.141018 0 -0.036698)
(0.164134 0 -0.0370915)
(0.185078 0 -0.0367692)
(0.203049 0 -0.035893)
(0.217892 0 -0.0346226)
(0.22972 0 -0.0330875)
(0.238798 0 -0.0314013)
(0.0922724 0 -0.0362391)
(0.103097 0 -0.0378676)
(0.121238 0 -0.0408485)
(0.141792 0 -0.043049)
(0.162978 0 -0.0443148)
(0.183156 0 -0.0446642)
(0.201165 0 -0.04422)
(0.216455 0 -0.0431581)
(0.228963 0 -0.0416516)
(0.238818 0 -0.0398477)
(0.246258 0 -0.0378643)
(0.121674 0 -0.0435227)
(0.131512 0 -0.0450645)
(0.149101 0 -0.0480609)
(0.167934 0 -0.0502415)
(0.186548 0 -0.0514341)
(0.203734 0 -0.0516546)
(0.218696 0 -0.051031)
(0.231167 0 -0.0497607)
(0.241186 0 -0.0480224)
(0.248914 0 -0.0459714)
(0.254578 0 -0.0437306)
(0.152116 0 -0.0506701)
(0.161052 0 -0.0521056)
(0.177843 0 -0.0550117)
(0.194866 0 -0.0570615)
(0.210885 0 -0.0580747)
(0.225056 0 -0.0580781)
(0.236955 0 -0.0572221)
(0.246567 0 -0.0557164)
(0.254041 0 -0.0537454)
(0.259585 0 -0.0514641)
(0.263402 0 -0.0489926)
(0.182916 0 -0.0575864)
(0.191075 0 -0.0589458)
(0.206869 0 -0.0616904)
(0.221962 0 -0.0635084)
(0.235303 0 -0.0642295)
(0.24643 0 -0.0639245)
(0.255281 0 -0.0627812)
(0.262059 0 -0.0610157)
(0.267018 0 -0.0588131)
(0.270397 0 -0.0563196)
(0.272379 0 -0.0536461)
(0.213631 0 -0.0642793)
(0.221144 0 -0.0655739)
(0.235748 0 -0.0680864)
(0.248703 0 -0.0695553)
(0.25921 0 -0.0698643)
(0.26724 0 -0.0691627)
(0.273076 0 -0.0676815)
(0.277102 0 -0.0656405)
(0.279651 0 -0.0632158)
(0.280967 0 -0.0605362)
(0.281199 0 -0.0576947)
(0.244038 0 -0.0707927)
(0.250971 0 -0.0719881)
(0.264101 0 -0.0741639)
(0.274566 0 -0.075131)
(0.282008 0 -0.0749003)
(0.286893 0 -0.073729)
(0.289799 0 -0.0718836)
(0.291229 0 -0.0695727)
(0.291539 0 -0.0669475)
(0.290959 0 -0.0641164)
(0.289591 0 -0.0611488)
(0.274035 0 -0.0771247)
(0.280317 0 -0.0781635)
(0.291466 0 -0.0798259)
(0.29891 0 -0.0800944)
(0.303032 0 -0.0792074)
(0.304781 0 -0.0775291)
(0.304927 0 -0.07533)
(0.304011 0 -0.072786)
(0.302344 0 -0.0700059)
(0.3001 0 -0.0670687)
(0.297342 0 -0.0640262)
(0.303504 0 -0.083245)
(0.308804 0 -0.0840067)
(0.317072 0 -0.0848525)
(0.320851 0 -0.0842043)
(0.321498 0 -0.0826024)
(0.320289 0 -0.0804515)
(0.318014 0 -0.0779681)
(0.315123 0 -0.0752637)
(0.311834 0 -0.0724005)
(0.308232 0 -0.0694207)
(0.304326 0 -0.0663584)
(0.332377 0 -0.0892321)
(0.335449 0 -0.089208)
(0.339526 0 -0.0887916)
(0.33922 0 -0.0871065)
(0.33665 0 -0.0848849)
(0.332984 0 -0.0824082)
(0.328829 0 -0.0797775)
(0.324445 0 -0.0770236)
(0.319931 0 -0.0741639)
(0.315289 0 -0.0712128)
(0.310474 0 -0.0681865)
(0.360754 0 -0.095251)
(0.35791 0 -0.0928388)
(0.357139 0 -0.09087)
(0.353103 0 -0.0883847)
(0.348115 0 -0.0858899)
(0.342787 0 -0.0833676)
(0.337394 0 -0.0807838)
(0.332014 0 -0.0781139)
(0.326649 0 -0.0753496)
(0.32125 0 -0.0724929)
(0.315746 0 -0.0695528)
(0.389005 0 -0.101427)
(0.37264 0 -0.0909368)
(0.368165 0 -0.0895711)
(0.362183 0 -0.0876634)
(0.356041 0 -0.0856005)
(0.349927 0 -0.0834043)
(0.343901 0 -0.081075)
(0.337961 0 -0.0786137)
(0.332071 0 -0.0760269)
(0.326169 0 -0.0733225)
(0.320175 0 -0.0705119)
(0.241387 0 -0.0306874)
(0.254632 0 -0.0332911)
(0.269465 0 -0.0362997)
(0.285858 0 -0.0397598)
(0.303592 0 -0.0436899)
(0.322159 0 -0.0480601)
(0.340693 0 -0.0527971)
(0.357937 0 -0.0578291)
(0.372687 0 -0.0633959)
(0.383274 0 -0.0692871)
(0.252728 0 -0.0336467)
(0.266281 0 -0.0364718)
(0.281094 0 -0.0396665)
(0.297022 0 -0.0432523)
(0.313701 0 -0.0472153)
(0.330507 0 -0.0514967)
(0.346557 0 -0.056004)
(0.360818 0 -0.0606522)
(0.372321 0 -0.0654311)
(0.379657 0 -0.069862)
(0.262623 0 -0.0363586)
(0.276059 0 -0.0393047)
(0.290373 0 -0.0425609)
(0.305321 0 -0.0461207)
(0.32047 0 -0.0499432)
(0.335212 0 -0.0539567)
(0.348828 0 -0.0580764)
(0.360564 0 -0.0622231)
(0.369714 0 -0.0663299)
(0.375221 0 -0.0699115)
(0.270894 0 -0.0387469)
(0.283864 0 -0.0417195)
(0.297342 0 -0.0449317)
(0.311042 0 -0.0483585)
(0.324549 0 -0.05195)
(0.337361 0 -0.055642)
(0.348926 0 -0.0593602)
(0.358679 0 -0.0630171)
(0.366143 0 -0.0665327)
(0.370613 0 -0.0694788)
(0.28979 0 -0.0436967)
(0.302275 0 -0.0467979)
(0.314681 0 -0.050039)
(0.326654 0 -0.0533734)
(0.337798 0 -0.0567435)
(0.347674 0 -0.0600736)
(0.355882 0 -0.0632818)
(0.36214 0 -0.0663036)
(0.365957 0 -0.0687746)
(0.316716 0 -0.0512522)
(0.327331 0 -0.0543293)
(0.33705 0 -0.0573872)
(0.345542 0 -0.0603557)
(0.352555 0 -0.063174)
(0.357928 0 -0.0657917)
(0.361287 0 -0.0678991)
(0.335448 0 -0.0576597)
(0.342819 0 -0.0603066)
(0.348899 0 -0.0627936)
(0.353597 0 -0.0650794)
(0.356606 0 -0.0669016)
(0.345021 0 -0.0622021)
(0.349184 0 -0.064213)
(0.351905 0 -0.0658058)
(0.241387 0 -0.0306874)
(0.254632 0 -0.0332911)
(0.269465 0 -0.0362997)
(0.285858 0 -0.0397598)
(0.303592 0 -0.0436899)
(0.322159 0 -0.0480601)
(0.340693 0 -0.0527971)
(0.357937 0 -0.0578291)
(0.372687 0 -0.0633959)
(0.383274 0 -0.0692871)
(0.252728 0 -0.0336467)
(0.266281 0 -0.0364718)
(0.281094 0 -0.0396665)
(0.297022 0 -0.0432523)
(0.313701 0 -0.0472153)
(0.330507 0 -0.0514967)
(0.346557 0 -0.056004)
(0.360818 0 -0.0606522)
(0.372321 0 -0.0654311)
(0.379657 0 -0.069862)
(0.262623 0 -0.0363586)
(0.276059 0 -0.0393047)
(0.290373 0 -0.0425609)
(0.305321 0 -0.0461207)
(0.32047 0 -0.0499432)
(0.335212 0 -0.0539567)
(0.348828 0 -0.0580764)
(0.360564 0 -0.0622231)
(0.369714 0 -0.0663299)
(0.375221 0 -0.0699115)
(0.270894 0 -0.0387469)
(0.283864 0 -0.0417195)
(0.297342 0 -0.0449317)
(0.311042 0 -0.0483585)
(0.324549 0 -0.05195)
(0.337361 0 -0.055642)
(0.348926 0 -0.0593602)
(0.358679 0 -0.0630171)
(0.366143 0 -0.0665327)
(0.370613 0 -0.0694788)
(0.28979 0 -0.0436967)
(0.302275 0 -0.0467979)
(0.314681 0 -0.050039)
(0.326654 0 -0.0533734)
(0.337798 0 -0.0567435)
(0.347674 0 -0.0600736)
(0.355882 0 -0.0632818)
(0.36214 0 -0.0663036)
(0.365957 0 -0.0687746)
(0.316716 0 -0.0512522)
(0.327331 0 -0.0543293)
(0.33705 0 -0.0573872)
(0.345542 0 -0.0603557)
(0.352555 0 -0.063174)
(0.357928 0 -0.0657917)
(0.361287 0 -0.0678991)
(0.335448 0 -0.0576597)
(0.342819 0 -0.0603066)
(0.348899 0 -0.0627936)
(0.353597 0 -0.0650794)
(0.356606 0 -0.0669016)
(0.345021 0 -0.0622021)
(0.349184 0 -0.064213)
(0.351905 0 -0.0658058)
(0.395345 0 -0.0733578)
(0.392242 0 -0.0872667)
(0.387366 0 -0.0744274)
(0.386805 0 -0.0790431)
(0.383438 0 -0.0832005)
(0.382492 0 -0.073279)
(0.382768 0 -0.0761069)
(0.38138 0 -0.0791724)
(0.377407 0 -0.0724328)
(0.378063 0 -0.0743801)
(0.377737 0 -0.0766003)
(0.372501 0 -0.0714597)
(0.373304 0 -0.0729501)
(0.373502 0 -0.0746542)
(0.367682 0 -0.0703959)
(0.368543 0 -0.0716034)
(0.369013 0 -0.072982)
(0.362893 0 -0.069264)
(0.363772 0 -0.0702765)
(0.364388 0 -0.0714321)
(0.358107 0 -0.0680735)
(0.35898 0 -0.0689415)
(0.359672 0 -0.0699328)
(0.353308 0 -0.0668261)
(0.354157 0 -0.0675816)
(0.354882 0 -0.0684452)
(0.348482 0 -0.0655197)
(0.349296 0 -0.0661842)
(0.350024 0 -0.0669444)
(0.395345 0 -0.0733578)
(0.392242 0 -0.0872667)
(0.387366 0 -0.0744274)
(0.386805 0 -0.0790431)
(0.383438 0 -0.0832005)
(0.382492 0 -0.073279)
(0.382768 0 -0.0761069)
(0.38138 0 -0.0791724)
(0.377407 0 -0.0724328)
(0.378063 0 -0.0743801)
(0.377737 0 -0.0766003)
(0.372501 0 -0.0714597)
(0.373304 0 -0.0729501)
(0.373502 0 -0.0746542)
(0.367682 0 -0.0703959)
(0.368543 0 -0.0716034)
(0.369013 0 -0.072982)
(0.362893 0 -0.069264)
(0.363772 0 -0.0702765)
(0.364388 0 -0.0714321)
(0.358107 0 -0.0680735)
(0.35898 0 -0.0689415)
(0.359672 0 -0.0699328)
(0.353308 0 -0.0668261)
(0.354157 0 -0.0675816)
(0.354882 0 -0.0684452)
(0.348482 0 -0.0655197)
(0.349296 0 -0.0661842)
(0.350024 0 -0.0669444)
(0.37823 0 -0.0857085)
(0.372796 0 -0.0862696)
(0.366918 0 -0.085657)
(0.360837 0 -0.0843931)
(0.354688 0 -0.0827259)
(0.34854 0 -0.0807763)
(0.342408 0 -0.0786072)
(0.336275 0 -0.0762568)
(0.330092 0 -0.0737501)
(0.378105 0 -0.0819456)
(0.373631 0 -0.0832847)
(0.368597 0 -0.0833981)
(0.363134 0 -0.0827484)
(0.35739 0 -0.0815763)
(0.351469 0 -0.0800229)
(0.345428 0 -0.0781756)
(0.339279 0 -0.0760912)
(0.333003 0 -0.0738091)
(0.375885 0 -0.0789904)
(0.37255 0 -0.0805716)
(0.368393 0 -0.0811168)
(0.363647 0 -0.0809076)
(0.35846 0 -0.0801413)
(0.352941 0 -0.0789462)
(0.347163 0 -0.07741)
(0.34116 0 -0.075595)
(0.334933 0 -0.0735468)
(0.372567 0 -0.07663)
(0.370218 0 -0.0781651)
(0.366896 0 -0.0789186)
(0.362856 0 -0.0790007)
(0.358257 0 -0.0785435)
(0.353207 0 -0.0776482)
(0.347781 0 -0.0763909)
(0.342022 0 -0.0748298)
(0.335947 0 -0.0730103)
(0.368657 0 -0.0746308)
(0.367065 0 -0.0760229)
(0.364468 0 -0.0768392)
(0.361076 0 -0.0770956)
(0.357044 0 -0.07686)
(0.352473 0 -0.0762026)
(0.347434 0 -0.0751826)
(0.341975 0 -0.073849)
(0.336116 0 -0.0722427)
(0.364405 0 -0.0728352)
(0.363365 0 -0.0740715)
(0.361357 0 -0.0748731)
(0.358533 0 -0.0752205)
(0.355018 0 -0.0751349)
(0.350904 0 -0.0746584)
(0.346257 0 -0.0738327)
(0.341119 0 -0.0726958)
(0.335512 0 -0.0712814)
(0.359928 0 -0.0711475)
(0.359285 0 -0.072243)
(0.35774 0 -0.0729958)
(0.35539 0 -0.0733794)
(0.352329 0 -0.0733895)
(0.348636 0 -0.0730458)
(0.344363 0 -0.0723747)
(0.339546 0 -0.071403)
(0.334207 0 -0.0701567)
(0.355288 0 -0.0695097)
(0.354926 0 -0.0704839)
(0.353733 0 -0.0711762)
(0.351768 0 -0.0715629)
(0.349096 0 -0.07163)
(0.345776 0 -0.0713811)
(0.341849 0 -0.0708301)
(0.337341 0 -0.0699943)
(0.332269 0 -0.0688922)
(0.350517 0 -0.0678851)
(0.350349 0 -0.0687543)
(0.349418 0 -0.0693843)
(0.347757 0 -0.0697557)
(0.345411 0 -0.0698534)
(0.342416 0 -0.0696705)
(0.338798 0 -0.0692113)
(0.334578 0 -0.0684854)
(0.329764 0 -0.0675052)
(0.345637 0 -0.0662487)
(0.345594 0 -0.067026)
(0.344854 0 -0.0675963)
(0.343431 0 -0.067943)
(0.341352 0 -0.0680529)
(0.338632 0 -0.0679144)
(0.335286 0 -0.067524)
(0.331324 0 -0.0668859)
(0.326752 0 -0.0660073)
(0.33885 0 -0.0661105)
(0.336984 0 -0.0662204)
(0.334489 0 -0.0661086)
(0.331373 0 -0.0657686)
(0.327641 0 -0.0652)
(0.32329 0 -0.0644056)
(0.330039 0 -0.0642457)
(0.327117 0 -0.0639421)
(0.323584 0 -0.0634279)
(0.31943 0 -0.0627028)
(0.319206 0 -0.0615673)
(0.315225 0 -0.060899)
(0.37823 0 -0.0857085)
(0.372796 0 -0.0862696)
(0.366918 0 -0.085657)
(0.360837 0 -0.0843931)
(0.354688 0 -0.0827259)
(0.34854 0 -0.0807763)
(0.342408 0 -0.0786072)
(0.336275 0 -0.0762568)
(0.330092 0 -0.0737501)
(0.378105 0 -0.0819456)
(0.373631 0 -0.0832847)
(0.368597 0 -0.0833981)
(0.363134 0 -0.0827484)
(0.35739 0 -0.0815763)
(0.351469 0 -0.0800229)
(0.345428 0 -0.0781756)
(0.339279 0 -0.0760912)
(0.333003 0 -0.0738091)
(0.375885 0 -0.0789904)
(0.37255 0 -0.0805716)
(0.368393 0 -0.0811168)
(0.363647 0 -0.0809076)
(0.35846 0 -0.0801413)
(0.352941 0 -0.0789462)
(0.347163 0 -0.07741)
(0.34116 0 -0.075595)
(0.334933 0 -0.0735468)
(0.372567 0 -0.07663)
(0.370218 0 -0.0781651)
(0.366896 0 -0.0789186)
(0.362856 0 -0.0790007)
(0.358257 0 -0.0785435)
(0.353207 0 -0.0776482)
(0.347781 0 -0.0763909)
(0.342022 0 -0.0748298)
(0.335947 0 -0.0730103)
(0.368657 0 -0.0746308)
(0.367065 0 -0.0760229)
(0.364468 0 -0.0768392)
(0.361076 0 -0.0770956)
(0.357044 0 -0.07686)
(0.352473 0 -0.0762026)
(0.347434 0 -0.0751826)
(0.341975 0 -0.073849)
(0.336116 0 -0.0722427)
(0.364405 0 -0.0728352)
(0.363365 0 -0.0740715)
(0.361357 0 -0.0748731)
(0.358533 0 -0.0752205)
(0.355018 0 -0.0751349)
(0.350904 0 -0.0746584)
(0.346257 0 -0.0738327)
(0.341119 0 -0.0726958)
(0.335512 0 -0.0712814)
(0.359928 0 -0.0711475)
(0.359285 0 -0.072243)
(0.35774 0 -0.0729958)
(0.35539 0 -0.0733794)
(0.352329 0 -0.0733895)
(0.348636 0 -0.0730458)
(0.344363 0 -0.0723747)
(0.339546 0 -0.071403)
(0.334207 0 -0.0701567)
(0.355288 0 -0.0695097)
(0.354926 0 -0.0704839)
(0.353733 0 -0.0711762)
(0.351768 0 -0.0715629)
(0.349096 0 -0.07163)
(0.345776 0 -0.0713811)
(0.341849 0 -0.0708301)
(0.337341 0 -0.0699943)
(0.332269 0 -0.0688922)
(0.350517 0 -0.0678851)
(0.350349 0 -0.0687543)
(0.349418 0 -0.0693843)
(0.347757 0 -0.0697557)
(0.345411 0 -0.0698534)
(0.342416 0 -0.0696705)
(0.338798 0 -0.0692113)
(0.334578 0 -0.0684854)
(0.329764 0 -0.0675052)
(0.345637 0 -0.0662487)
(0.345594 0 -0.067026)
(0.344854 0 -0.0675963)
(0.343431 0 -0.067943)
(0.341352 0 -0.0680529)
(0.338632 0 -0.0679144)
(0.335286 0 -0.067524)
(0.331324 0 -0.0668859)
(0.326752 0 -0.0660073)
(0.33885 0 -0.0661105)
(0.336984 0 -0.0662204)
(0.334489 0 -0.0661086)
(0.331373 0 -0.0657686)
(0.327641 0 -0.0652)
(0.32329 0 -0.0644056)
(0.330039 0 -0.0642457)
(0.327117 0 -0.0639421)
(0.323584 0 -0.0634279)
(0.31943 0 -0.0627028)
(0.319206 0 -0.0615673)
(0.315225 0 -0.060899)
)
;

boundaryField
{
    inlet
    {
        type            fixedValue;
        value           nonuniform 0();
    }
    outlet
    {
        type            fixedValue;
        value           nonuniform 0();
    }
    flap
    {
        type            fixedValue;
        value           nonuniform List<vector> 
68
(
(0 0 0)
(0.00781292 0 0.00723804)
(0.00781292 0 0.00723804)
(0 0 0)
(0.0240151 0 0.0113394)
(0.0240151 0 0.0113394)
(0.0466278 0 0.0122577)
(0.0466278 0 0.0122577)
(0.0732431 0 0.010337)
(0.0732431 0 0.010337)
(0.102225 0 0.00636215)
(0.102225 0 0.00636215)
(0.132522 0 0.000968578)
(0.132522 0 0.000968577)
(0.16337 0 -0.00537297)
(0.16337 0 -0.00537297)
(0.194202 0 -0.0121867)
(0.194202 0 -0.0121867)
(0.224725 0 -0.0191536)
(0.224725 0 -0.0191536)
(0.254853 0 -0.0261527)
(0.254853 0 -0.0261527)
(0.284491 0 -0.0331169)
(0.284491 0 -0.0331169)
(0.313559 0 -0.039952)
(0.313559 0 -0.039952)
(0.342111 0 -0.0465559)
(0.342111 0 -0.0465559)
(0.370298 0 -0.0529035)
(0.370298 0 -0.0529035)
(0.398455 0 -0.0591605)
(0.398455 0 -0.0591605)
(0.395345 0 -0.0733578)
(0.395345 0 -0.0733578)
(0.392242 0 -0.0872667)
(0.392242 0 -0.0872667)
(0.389005 0 -0.101427)
(0.389005 0 -0.101427)
(0 0 0)
(0 0 0)
(0.00606664 0 -0.00790453)
(0.00606664 0 -0.00790453)
(0.020011 0 -0.0149262)
(0.020011 0 -0.0149262)
(0.0401857 0 -0.0219204)
(0.0401857 0 -0.0219204)
(0.0647532 0 -0.0290092)
(0.0647532 0 -0.0290092)
(0.0922724 0 -0.0362391)
(0.0922724 0 -0.0362391)
(0.121674 0 -0.0435227)
(0.121674 0 -0.0435227)
(0.152116 0 -0.0506701)
(0.152116 0 -0.0506701)
(0.182916 0 -0.0575864)
(0.182916 0 -0.0575864)
(0.213631 0 -0.0642793)
(0.213631 0 -0.0642793)
(0.244038 0 -0.0707927)
(0.244038 0 -0.0707927)
(0.274035 0 -0.0771247)
(0.274035 0 -0.0771247)
(0.303504 0 -0.083245)
(0.303504 0 -0.083245)
(0.332377 0 -0.0892321)
(0.332377 0 -0.0892321)
(0.360754 0 -0.095251)
(0.360754 0 -0.095251)
)
;
    }
    upperWall
    {
        type            slip;
    }
    lowerWall
    {
        type            slip;
    }
    frontAndBack
    {
        type            empty;
    }
    procBoundary4to1
    {
        type            processor;
    }
    procBoundary4to2
    {
        type            processor;
    }
    procBoundary4to3
    {
        type            processor;
    }
    procBoundary4to5
    {
        type            processor;
    }
}


// ************************************************************************* //
