/*--------------------------------*- C++ -*----------------------------------*\
| =========                 |                                                 |
| \\      /  F ield         | OpenFOAM: The Open Source CFD Toolbox           |
|  \\    /   O peration     | Version:  dev                                   |
|   \\  /    A nd           | Web:      www.OpenFOAM.org                      |
|    \\/     M anipulation  |                                                 |
\*---------------------------------------------------------------------------*/
FoamFile
{
    version     2.0;
    format      ascii;
    class       pointVectorField;
    location    "1";
    object      pointDisplacement;
}
// * * * * * * * * * * * * * * * * * * * * * * * * * * * * * * * * * * * * * //

dimensions      [0 1 0 0 0 0 0];

internalField   nonuniform List<vector> 
1062
(
(0.0609919 0 0)
(0.0537978 0 0)
(0.0463233 0 0)
(0.0386924 0 0)
(0.031058 0 0)
(0.0236225 0 0)
(0.0166756 0 0)
(0.0106599 0 0)
(0.00639777 0 0)
(0 0 0)
(0.0618263 0 -0.000104837)
(0.0547549 0 0.000117991)
(0.0474212 0 0.000387756)
(0.0399566 0 0.000710267)
(0.032518 0 0.00109155)
(0.0253128 0 0.00153709)
(0.0186413 0 0.0020498)
(0.0129797 0 0.002621)
(0.00918944 0 0.00318731)
(0.00385709 0 0.00400539)
(0.0642912 0 -0.00027196)
(0.0575831 0 0.000157283)
(0.0506683 0 0.000676014)
(0.0436955 0 0.00129389)
(0.0368417 0 0.00201966)
(0.030331 0 0.00285918)
(0.0244743 0 0.00381046)
(0.019792 0 0.00484254)
(0.0172516 0 0.00581291)
(0.0129999 0 0.00716709)
(0.068354 0 -0.000562297)
(0.0622339 0 4.07152e-05)
(0.0559949 0 0.000766412)
(0.0498095 0 0.00162532)
(0.0438923 0 0.00262374)
(0.0385033 0 0.00375977)
(0.0339708 0 0.0050143)
(0.0307889 0 0.00632196)
(0.0300207 0 0.0074536)
(0.0273103 0 0.00903826)
(0.0739695 0 -0.00103121)
(0.0686564 0 -0.000301713)
(0.0633432 0 0.000570642)
(0.0582146 0 0.00159449)
(0.0535193 0 0.0027678)
(0.0495804 0 0.00407082)
(0.0467821 0 0.00545375)
(0.0455608 0 0.00681523)
(0.0469319 0 0.00785188)
(0.0459081 0 0.00939067)
(0.0810443 0 -0.00172414)
(0.0767407 0 -0.000925534)
(0.0725946 0 1.99854e-05)
(0.0687932 0 0.00111494)
(0.0655932 0 0.00234653)
(0.06336 0 0.00367325)
(0.0625587 0 0.00500451)
(0.0636287 0 0.00619815)
(0.0673444 0 0.00691083)
(0.067974 0 0.0081995)
(0.0894873 0 -0.00267988)
(0.0863724 0 -0.00187706)
(0.0835776 0 -0.000937267)
(0.0813258 0 0.000128686)
(0.079888 0 0.00129271)
(0.0796008 0 0.00249582)
(0.0809683 0 0.00360946)
(0.0844709 0 0.00444419)
(0.0905767 0 0.00465471)
(0.0927703 0 0.00556138)
(0.0991689 0 -0.00392323)
(0.0974166 0 -0.00318839)
(0.0961449 0 -0.00233943)
(0.0956103 0 -0.00140135)
(0.0961243 0 -0.000424967)
(0.0979978 0 0.0005115)
(0.101667 0 0.00125952)
(0.107595 0 0.0015928)
(0.116023 0 0.00118673)
(0.119689 0 0.00163019)
(0.109924 0 -0.00546603)
(0.109667 0 -0.00486976)
(0.11009 0 -0.00419992)
(0.111436 0 -0.00349021)
(0.114035 0 -0.0028113)
(0.118219 0 -0.00226701)
(0.124285 0 -0.00200933)
(0.132596 0 -0.00227561)
(0.143218 0 -0.00335314)
(0.148251 0 -0.00339037)
(0.121595 0 -0.007312)
(0.122932 0 -0.00692175)
(0.125157 0 -0.00651054)
(0.128524 0 -0.00612567)
(0.133327 0 -0.0058454)
(0.13989 0 -0.00579332)
(0.148412 0 -0.00612257)
(0.159089 0 -0.00705372)
(0.171753 0 -0.00881303)
(0.178072 0 -0.00932612)
(0.133975 0 -0.00944634)
(0.136993 0 -0.00932933)
(0.141082 0 -0.009248)
(0.146544 0 -0.00926981)
(0.153626 0 -0.00947688)
(0.162607 0 -0.009998)
(0.173625 0 -0.010984)
(0.186656 0 -0.0126159)
(0.201212 0 -0.0150354)
(0.208822 0 -0.0160245)
(0.14682 0 -0.0118393)
(0.15155 0 -0.0120523)
(0.157535 0 -0.0123653)
(0.16509 0 -0.012859)
(0.174471 0 -0.0136257)
(0.185903 0 -0.0147892)
(0.199434 0 -0.0164807)
(0.214801 0 -0.0188225)
(0.231122 0 -0.0218569)
(0.240211 0 -0.0233073)
(0.159892 0 -0.0144536)
(0.166286 0 -0.015036)
(0.174127 0 -0.0157929)
(0.183723 0 -0.0168106)
(0.195343 0 -0.0181907)
(0.209174 0 -0.0200467)
(0.225168 0 -0.0224749)
(0.242828 0 -0.0255199)
(0.260837 0 -0.0291136)
(0.271995 0 -0.0310163)
(0.172922 0 -0.0172364)
(0.180879 0 -0.0182144)
(0.190454 0 -0.0194444)
(0.201939 0 -0.0210173)
(0.215605 0 -0.0230399)
(0.231603 0 -0.0256126)
(0.249836 0 -0.0287948)
(0.269629 0 -0.0325388)
(0.289283 0 -0.0366563)
(0.303976 0 -0.0390115)
(0.185604 0 -0.0201165)
(0.194969 0 -0.0215002)
(0.206055 0 -0.0232063)
(0.219129 0 -0.0253305)
(0.234443 0 -0.0279853)
(0.252099 0 -0.0312632)
(0.271976 0 -0.0352078)
(0.293286 0 -0.0396778)
(0.314385 0 -0.0443889)
(0.335985 0 -0.0471401)
(0.197757 0 -0.0230435)
(0.208299 0 -0.02482)
(0.220568 0 -0.0269744)
(0.234786 0 -0.0296058)
(0.251126 0 -0.0328276)
(0.26958 0 -0.0367371)
(0.289892 0 -0.041412)
(0.311019 0 -0.0467896)
(0.331482 0 -0.0530082)
(0.36803 0 -0.0553274)
(0.0609919 0 0)
(0.0537978 0 0)
(0.0463233 0 0)
(0.0386924 0 0)
(0.031058 0 0)
(0.0236225 0 0)
(0.0166756 0 0)
(0.0106599 0 0)
(0.00639777 0 0)
(0 0 0)
(0.0618263 0 -0.000104837)
(0.0547549 0 0.000117991)
(0.0474212 0 0.000387756)
(0.0399566 0 0.000710267)
(0.032518 0 0.00109155)
(0.0253128 0 0.00153709)
(0.0186413 0 0.0020498)
(0.0129797 0 0.002621)
(0.00918944 0 0.00318731)
(0.00385709 0 0.00400539)
(0.0642912 0 -0.00027196)
(0.0575831 0 0.000157283)
(0.0506683 0 0.000676014)
(0.0436955 0 0.00129389)
(0.0368417 0 0.00201966)
(0.030331 0 0.00285918)
(0.0244743 0 0.00381046)
(0.019792 0 0.00484254)
(0.0172516 0 0.00581291)
(0.0129999 0 0.00716709)
(0.068354 0 -0.000562297)
(0.0622339 0 4.07152e-05)
(0.0559949 0 0.000766412)
(0.0498095 0 0.00162532)
(0.0438923 0 0.00262374)
(0.0385033 0 0.00375977)
(0.0339708 0 0.0050143)
(0.0307889 0 0.00632196)
(0.0300207 0 0.0074536)
(0.0273103 0 0.00903826)
(0.0739695 0 -0.00103121)
(0.0686564 0 -0.000301713)
(0.0633432 0 0.000570642)
(0.0582146 0 0.00159449)
(0.0535193 0 0.0027678)
(0.0495804 0 0.00407082)
(0.0467821 0 0.00545375)
(0.0455608 0 0.00681523)
(0.0469319 0 0.00785188)
(0.0459081 0 0.00939067)
(0.0810443 0 -0.00172414)
(0.0767407 0 -0.000925534)
(0.0725946 0 1.99854e-05)
(0.0687932 0 0.00111494)
(0.0655932 0 0.00234653)
(0.06336 0 0.00367325)
(0.0625587 0 0.00500451)
(0.0636287 0 0.00619815)
(0.0673444 0 0.00691083)
(0.067974 0 0.0081995)
(0.0894873 0 -0.00267988)
(0.0863724 0 -0.00187706)
(0.0835776 0 -0.000937267)
(0.0813258 0 0.000128686)
(0.079888 0 0.00129271)
(0.0796008 0 0.00249582)
(0.0809683 0 0.00360946)
(0.0844709 0 0.00444419)
(0.0905767 0 0.00465471)
(0.0927703 0 0.00556138)
(0.0991689 0 -0.00392323)
(0.0974166 0 -0.00318839)
(0.0961449 0 -0.00233943)
(0.0956103 0 -0.00140135)
(0.0961243 0 -0.000424967)
(0.0979978 0 0.0005115)
(0.101667 0 0.00125952)
(0.107595 0 0.0015928)
(0.116023 0 0.00118673)
(0.119689 0 0.00163019)
(0.109924 0 -0.00546603)
(0.109667 0 -0.00486976)
(0.11009 0 -0.00419992)
(0.111436 0 -0.00349021)
(0.114035 0 -0.0028113)
(0.118219 0 -0.00226701)
(0.124285 0 -0.00200933)
(0.132596 0 -0.00227561)
(0.143218 0 -0.00335314)
(0.148251 0 -0.00339037)
(0.121595 0 -0.007312)
(0.122932 0 -0.00692175)
(0.125157 0 -0.00651054)
(0.128524 0 -0.00612567)
(0.133327 0 -0.0058454)
(0.13989 0 -0.00579332)
(0.148412 0 -0.00612257)
(0.159089 0 -0.00705372)
(0.171753 0 -0.00881303)
(0.178072 0 -0.00932612)
(0.133975 0 -0.00944634)
(0.136993 0 -0.00932933)
(0.141082 0 -0.009248)
(0.146544 0 -0.00926981)
(0.153626 0 -0.00947688)
(0.162607 0 -0.009998)
(0.173625 0 -0.010984)
(0.186656 0 -0.0126159)
(0.201212 0 -0.0150354)
(0.208822 0 -0.0160245)
(0.14682 0 -0.0118393)
(0.15155 0 -0.0120523)
(0.157535 0 -0.0123653)
(0.16509 0 -0.012859)
(0.174471 0 -0.0136257)
(0.185903 0 -0.0147892)
(0.199434 0 -0.0164807)
(0.214801 0 -0.0188225)
(0.231122 0 -0.0218569)
(0.240211 0 -0.0233073)
(0.159892 0 -0.0144536)
(0.166286 0 -0.015036)
(0.174127 0 -0.0157929)
(0.183723 0 -0.0168106)
(0.195343 0 -0.0181907)
(0.209174 0 -0.0200467)
(0.225168 0 -0.0224749)
(0.242828 0 -0.0255199)
(0.260837 0 -0.0291136)
(0.271995 0 -0.0310163)
(0.172922 0 -0.0172364)
(0.180879 0 -0.0182144)
(0.190454 0 -0.0194444)
(0.201939 0 -0.0210173)
(0.215605 0 -0.0230399)
(0.231603 0 -0.0256126)
(0.249836 0 -0.0287948)
(0.269629 0 -0.0325388)
(0.289283 0 -0.0366563)
(0.303976 0 -0.0390115)
(0.185604 0 -0.0201165)
(0.194969 0 -0.0215002)
(0.206055 0 -0.0232063)
(0.219129 0 -0.0253305)
(0.234443 0 -0.0279853)
(0.252099 0 -0.0312632)
(0.271976 0 -0.0352078)
(0.293286 0 -0.0396778)
(0.314385 0 -0.0443889)
(0.335985 0 -0.0471401)
(0.197757 0 -0.0230435)
(0.208299 0 -0.02482)
(0.220568 0 -0.0269744)
(0.234786 0 -0.0296058)
(0.251126 0 -0.0328276)
(0.26958 0 -0.0367371)
(0.289892 0 -0.041412)
(0.311019 0 -0.0467896)
(0.331482 0 -0.0530082)
(0.36803 0 -0.0553274)
(0 0 0)
(0.00974193 0 0)
(0.0202024 0 0)
(0.0373784 0 0)
(0.0598275 0 0)
(0.0851016 0 0)
(0.110634 0 0)
(0.134317 0 0)
(0.154936 0 0)
(0.17211 0 0)
(0.185865 0 0)
(0.00343069 0 -0.00462246)
(0.0125132 0 -0.00499767)
(0.0231897 0 -0.00566343)
(0.04045 0 -0.0064256)
(0.0627877 0 -0.00716086)
(0.0878141 0 -0.00775843)
(0.113013 0 -0.00816099)
(0.136325 0 -0.00834105)
(0.156596 0 -0.00832536)
(0.173466 0 -0.00816054)
(0.186963 0 -0.00787847)
(0.0115735 0 -0.00930221)
(0.0206046 0 -0.0101166)
(0.0319407 0 -0.0114448)
(0.0494205 0 -0.0129215)
(0.0714421 0 -0.014307)
(0.0957583 0 -0.0154211)
(0.119973 0 -0.0161414)
(0.142212 0 -0.016441)
(0.161473 0 -0.0163782)
(0.177443 0 -0.0160317)
(0.190182 0 -0.0154717)
(0.0245119 0 -0.0142546)
(0.0335186 0 -0.0154973)
(0.0458164 0 -0.0174541)
(0.0635188 0 -0.0195518)
(0.0850147 0 -0.021468)
(0.1082 0 -0.0229624)
(0.130875 0 -0.023876)
(0.15146 0 -0.0242065)
(0.169153 0 -0.0240425)
(0.183723 0 -0.0234813)
(0.19528 0 -0.0226425)
(0.0415456 0 -0.0196416)
(0.050636 0 -0.0212576)
(0.0639789 0 -0.0237751)
(0.0818278 0 -0.0263769)
(0.102587 0 -0.0286802)
(0.124262 0 -0.0303935)
(0.14496 0 -0.031365)
(0.163429 0 -0.031618)
(0.179117 0 -0.0312847)
(0.191903 0 -0.0304814)
(0.201947 0 -0.0293525)
(0.0620563 0 -0.0255445)
(0.0712227 0 -0.0274424)
(0.0855485 0 -0.0304355)
(0.103427 0 -0.0334177)
(0.123209 0 -0.0359423)
(0.143037 0 -0.0376995)
(0.161415 0 -0.0385878)
(0.177437 0 -0.0386586)
(0.190801 0 -0.0380803)
(0.201533 0 -0.0370069)
(0.209832 0 -0.0355839)
(0.0854177 0 -0.0319734)
(0.0946369 0 -0.034069)
(0.109801 0 -0.0374408)
(0.127506 0 -0.0406582)
(0.14601 0 -0.0432203)
(0.163681 0 -0.0448419)
(0.179457 0 -0.0454993)
(0.192794 0 -0.0452908)
(0.203633 0 -0.0444059)
(0.21215 0 -0.0430325)
(0.218565 0 -0.0413153)
(0.111073 0 -0.0388914)
(0.120342 0 -0.0411279)
(0.136131 0 -0.0447687)
(0.153349 0 -0.0480471)
(0.17021 0 -0.0504452)
(0.185406 0 -0.0517512)
(0.198331 0 -0.0520325)
(0.208827 0 -0.0514535)
(0.217061 0 -0.0502223)
(0.223296 0 -0.0485312)
(0.227766 0 -0.046521)
(0.138563 0 -0.046267)
(0.147856 0 -0.0485716)
(0.163977 0 -0.0523477)
(0.180283 0 -0.0554839)
(0.195059 0 -0.0575019)
(0.207453 0 -0.0583174)
(0.217342 0 -0.0581019)
(0.224931 0 -0.0570838)
(0.230557 0 -0.0554796)
(0.234526 0 -0.0534676)
(0.237069 0 -0.0511759)
(0.167507 0 -0.0540266)
(0.176766 0 -0.0563236)
(0.192806 0 -0.0600638)
(0.207627 0 -0.0628157)
(0.219805 0 -0.0642289)
(0.229092 0 -0.0643997)
(0.235838 0 -0.0636032)
(0.240542 0 -0.0621097)
(0.243637 0 -0.0601264)
(0.245434 0 -0.0578075)
(0.246148 0 -0.0552624)
(0.197579 0 -0.0620612)
(0.206693 0 -0.0642802)
(0.22205 0 -0.0677505)
(0.234628 0 -0.0698275)
(0.243656 0 -0.0704179)
(0.249599 0 -0.0698314)
(0.253205 0 -0.0684186)
(0.255143 0 -0.066453)
(0.255875 0 -0.0641158)
(0.255688 0 -0.0615297)
(0.254755 0 -0.0587789)
(0.228481 0 -0.070277)
(0.237228 0 -0.0722985)
(0.250971 0 -0.0751544)
(0.260364 0 -0.0762215)
(0.26574 0 -0.0758131)
(0.268242 0 -0.0744252)
(0.268866 0 -0.0724269)
(0.268305 0 -0.0700486)
(0.266963 0 -0.0674221)
(0.265072 0 -0.0646349)
(0.262723 0 -0.0617398)
(0.25995 0 -0.0785763)
(0.267727 0 -0.0801286)
(0.278438 0 -0.0818616)
(0.283655 0 -0.0815945)
(0.285102 0 -0.0801202)
(0.284353 0 -0.0780026)
(0.282377 0 -0.0755319)
(0.279748 0 -0.0728564)
(0.276732 0 -0.0700438)
(0.273457 0 -0.0671387)
(0.269937 0 -0.0641667)
(0.291764 0 -0.0868721)
(0.296794 0 -0.087221)
(0.302639 0 -0.087188)
(0.303149 0 -0.0854553)
(0.300966 0 -0.0830707)
(0.297548 0 -0.0804418)
(0.293581 0 -0.0776976)
(0.2894 0 -0.0748806)
(0.285123 0 -0.0720015)
(0.280775 0 -0.0690677)
(0.276322 0 -0.0660866)
(0.323704 0 -0.0951252)
(0.321637 0 -0.0923118)
(0.321748 0 -0.0901528)
(0.317963 0 -0.0872911)
(0.313073 0 -0.0844725)
(0.307834 0 -0.0817061)
(0.302543 0 -0.0789485)
(0.297306 0 -0.0761656)
(0.292136 0 -0.0733388)
(0.287001 0 -0.0704616)
(0.281838 0 -0.0675347)
(0.355735 0 -0.103336)
(0.338398 0 -0.0906156)
(0.333951 0 -0.0889534)
(0.327815 0 -0.086683)
(0.321576 0 -0.0843215)
(0.315426 0 -0.0818891)
(0.309426 0 -0.0793808)
(0.303574 0 -0.076792)
(0.297841 0 -0.0741226)
(0.292172 0 -0.0713759)
(0.2865 0 -0.0685586)
(0 0 0)
(0.00974193 0 0)
(0.0202024 0 0)
(0.0373784 0 0)
(0.0598275 0 0)
(0.0851016 0 0)
(0.110634 0 0)
(0.134317 0 0)
(0.154936 0 0)
(0.17211 0 0)
(0.185865 0 0)
(0.00343069 0 -0.00462246)
(0.0125132 0 -0.00499767)
(0.0231897 0 -0.00566343)
(0.04045 0 -0.0064256)
(0.0627877 0 -0.00716086)
(0.0878141 0 -0.00775843)
(0.113013 0 -0.00816099)
(0.136325 0 -0.00834105)
(0.156596 0 -0.00832536)
(0.173466 0 -0.00816054)
(0.186963 0 -0.00787847)
(0.0115735 0 -0.00930221)
(0.0206046 0 -0.0101166)
(0.0319407 0 -0.0114448)
(0.0494205 0 -0.0129215)
(0.0714421 0 -0.014307)
(0.0957583 0 -0.0154211)
(0.119973 0 -0.0161414)
(0.142212 0 -0.016441)
(0.161473 0 -0.0163782)
(0.177443 0 -0.0160317)
(0.190182 0 -0.0154717)
(0.0245119 0 -0.0142546)
(0.0335186 0 -0.0154973)
(0.0458164 0 -0.0174541)
(0.0635188 0 -0.0195518)
(0.0850147 0 -0.021468)
(0.1082 0 -0.0229624)
(0.130875 0 -0.023876)
(0.15146 0 -0.0242065)
(0.169153 0 -0.0240425)
(0.183723 0 -0.0234813)
(0.19528 0 -0.0226425)
(0.0415456 0 -0.0196416)
(0.050636 0 -0.0212576)
(0.0639789 0 -0.0237751)
(0.0818278 0 -0.0263769)
(0.102587 0 -0.0286802)
(0.124262 0 -0.0303935)
(0.14496 0 -0.031365)
(0.163429 0 -0.031618)
(0.179117 0 -0.0312847)
(0.191903 0 -0.0304814)
(0.201947 0 -0.0293525)
(0.0620563 0 -0.0255445)
(0.0712227 0 -0.0274424)
(0.0855485 0 -0.0304355)
(0.103427 0 -0.0334177)
(0.123209 0 -0.0359423)
(0.143037 0 -0.0376995)
(0.161415 0 -0.0385878)
(0.177437 0 -0.0386586)
(0.190801 0 -0.0380803)
(0.201533 0 -0.0370069)
(0.209832 0 -0.0355839)
(0.0854177 0 -0.0319734)
(0.0946369 0 -0.034069)
(0.109801 0 -0.0374408)
(0.127506 0 -0.0406582)
(0.14601 0 -0.0432203)
(0.163681 0 -0.0448419)
(0.179457 0 -0.0454993)
(0.192794 0 -0.0452908)
(0.203633 0 -0.0444059)
(0.21215 0 -0.0430325)
(0.218565 0 -0.0413153)
(0.111073 0 -0.0388914)
(0.120342 0 -0.0411279)
(0.136131 0 -0.0447687)
(0.153349 0 -0.0480471)
(0.17021 0 -0.0504452)
(0.185406 0 -0.0517512)
(0.198331 0 -0.0520325)
(0.208827 0 -0.0514535)
(0.217061 0 -0.0502223)
(0.223296 0 -0.0485312)
(0.227766 0 -0.046521)
(0.138563 0 -0.046267)
(0.147856 0 -0.0485716)
(0.163977 0 -0.0523477)
(0.180283 0 -0.0554839)
(0.195059 0 -0.0575019)
(0.207453 0 -0.0583174)
(0.217342 0 -0.0581019)
(0.224931 0 -0.0570838)
(0.230557 0 -0.0554796)
(0.234526 0 -0.0534676)
(0.237069 0 -0.0511759)
(0.167507 0 -0.0540266)
(0.176766 0 -0.0563236)
(0.192806 0 -0.0600638)
(0.207627 0 -0.0628157)
(0.219805 0 -0.0642289)
(0.229092 0 -0.0643997)
(0.235838 0 -0.0636032)
(0.240542 0 -0.0621097)
(0.243637 0 -0.0601264)
(0.245434 0 -0.0578075)
(0.246148 0 -0.0552624)
(0.197579 0 -0.0620612)
(0.206693 0 -0.0642802)
(0.22205 0 -0.0677505)
(0.234628 0 -0.0698275)
(0.243656 0 -0.0704179)
(0.249599 0 -0.0698314)
(0.253205 0 -0.0684186)
(0.255143 0 -0.066453)
(0.255875 0 -0.0641158)
(0.255688 0 -0.0615297)
(0.254755 0 -0.0587789)
(0.228481 0 -0.070277)
(0.237228 0 -0.0722985)
(0.250971 0 -0.0751544)
(0.260364 0 -0.0762215)
(0.26574 0 -0.0758131)
(0.268242 0 -0.0744252)
(0.268866 0 -0.0724269)
(0.268305 0 -0.0700486)
(0.266963 0 -0.0674221)
(0.265072 0 -0.0646349)
(0.262723 0 -0.0617398)
(0.25995 0 -0.0785763)
(0.267727 0 -0.0801286)
(0.278438 0 -0.0818616)
(0.283655 0 -0.0815945)
(0.285102 0 -0.0801202)
(0.284353 0 -0.0780026)
(0.282377 0 -0.0755319)
(0.279748 0 -0.0728564)
(0.276732 0 -0.0700438)
(0.273457 0 -0.0671387)
(0.269937 0 -0.0641667)
(0.291764 0 -0.0868721)
(0.296794 0 -0.087221)
(0.302639 0 -0.087188)
(0.303149 0 -0.0854553)
(0.300966 0 -0.0830707)
(0.297548 0 -0.0804418)
(0.293581 0 -0.0776976)
(0.2894 0 -0.0748806)
(0.285123 0 -0.0720015)
(0.280775 0 -0.0690677)
(0.276322 0 -0.0660866)
(0.323704 0 -0.0951252)
(0.321637 0 -0.0923118)
(0.321748 0 -0.0901528)
(0.317963 0 -0.0872911)
(0.313073 0 -0.0844725)
(0.307834 0 -0.0817061)
(0.302543 0 -0.0789485)
(0.297306 0 -0.0761656)
(0.292136 0 -0.0733388)
(0.287001 0 -0.0704616)
(0.281838 0 -0.0675347)
(0.355735 0 -0.103336)
(0.338398 0 -0.0906156)
(0.333951 0 -0.0889534)
(0.327815 0 -0.086683)
(0.321576 0 -0.0843215)
(0.315426 0 -0.0818891)
(0.309426 0 -0.0793808)
(0.303574 0 -0.076792)
(0.297841 0 -0.0741226)
(0.292172 0 -0.0713759)
(0.2865 0 -0.0685586)
(0.209283 0 -0.025984)
(0.220702 0 -0.0281171)
(0.233742 0 -0.0306602)
(0.248531 0 -0.0337059)
(0.265095 0 -0.0373508)
(0.283217 0 -0.0416748)
(0.302314 0 -0.0467339)
(0.321079 0 -0.0525114)
(0.337948 0 -0.0592709)
(0.350376 0 -0.0664532)
(0.219908 0 -0.0288536)
(0.231849 0 -0.0312801)
(0.245183 0 -0.0341158)
(0.259912 0 -0.0374299)
(0.275869 0 -0.0412771)
(0.292612 0 -0.045676)
(0.309334 0 -0.0505907)
(0.324851 0 -0.0559267)
(0.337871 0 -0.0616119)
(0.346428 0 -0.0668928)
(0.229349 0 -0.0315529)
(0.241431 0 -0.0341863)
(0.254587 0 -0.0371919)
(0.268685 0 -0.0406036)
(0.283416 0 -0.0444282)
(0.298247 0 -0.0486328)
(0.312435 0 -0.0531439)
(0.325105 0 -0.0578653)
(0.335332 0 -0.0626747)
(0.341656 0 -0.0668796)
(0.237432 0 -0.0340019)
(0.2493 0 -0.036745)
(0.261884 0 -0.0397968)
(0.274969 0 -0.0431604)
(0.28821 0 -0.0468151)
(0.301123 0 -0.0507105)
(0.313122 0 -0.054774)
(0.323557 0 -0.058904)
(0.331782 0 -0.0629645)
(0.336824 0 -0.0663787)
(0.255445 0 -0.0389028)
(0.267215 0 -0.0419054)
(0.279145 0 -0.0451335)
(0.290915 0 -0.0485546)
(0.302125 0 -0.0521166)
(0.312322 0 -0.0557472)
(0.321028 0 -0.0593445)
(0.327824 0 -0.0627916)
(0.332052 0 -0.0656238)
(0.281664 0 -0.0466025)
(0.292096 0 -0.0497715)
(0.301849 0 -0.0530064)
(0.310576 0 -0.0562359)
(0.317944 0 -0.0593711)
(0.323697 0 -0.062324)
(0.327358 0 -0.064717)
(0.300677 0 -0.0534878)
(0.308206 0 -0.0563555)
(0.314529 0 -0.059099)
(0.319497 0 -0.0616533)
(0.32273 0 -0.0637056)
(0.310905 0 -0.0586013)
(0.315258 0 -0.06083)
(0.318146 0 -0.0626109)
(0.209283 0 -0.025984)
(0.220702 0 -0.0281171)
(0.233742 0 -0.0306602)
(0.248531 0 -0.0337059)
(0.265095 0 -0.0373508)
(0.283217 0 -0.0416748)
(0.302314 0 -0.0467339)
(0.321079 0 -0.0525114)
(0.337948 0 -0.0592709)
(0.350376 0 -0.0664532)
(0.219908 0 -0.0288536)
(0.231849 0 -0.0312801)
(0.245183 0 -0.0341158)
(0.259912 0 -0.0374299)
(0.275869 0 -0.0412771)
(0.292612 0 -0.045676)
(0.309334 0 -0.0505907)
(0.324851 0 -0.0559267)
(0.337871 0 -0.0616119)
(0.346428 0 -0.0668928)
(0.229349 0 -0.0315529)
(0.241431 0 -0.0341863)
(0.254587 0 -0.0371919)
(0.268685 0 -0.0406036)
(0.283416 0 -0.0444282)
(0.298247 0 -0.0486328)
(0.312435 0 -0.0531439)
(0.325105 0 -0.0578653)
(0.335332 0 -0.0626747)
(0.341656 0 -0.0668796)
(0.237432 0 -0.0340019)
(0.2493 0 -0.036745)
(0.261884 0 -0.0397968)
(0.274969 0 -0.0431604)
(0.28821 0 -0.0468151)
(0.301123 0 -0.0507105)
(0.313122 0 -0.054774)
(0.323557 0 -0.058904)
(0.331782 0 -0.0629645)
(0.336824 0 -0.0663787)
(0.255445 0 -0.0389028)
(0.267215 0 -0.0419054)
(0.279145 0 -0.0451335)
(0.290915 0 -0.0485546)
(0.302125 0 -0.0521166)
(0.312322 0 -0.0557472)
(0.321028 0 -0.0593445)
(0.327824 0 -0.0627916)
(0.332052 0 -0.0656238)
(0.281664 0 -0.0466025)
(0.292096 0 -0.0497715)
(0.301849 0 -0.0530064)
(0.310576 0 -0.0562359)
(0.317944 0 -0.0593711)
(0.323697 0 -0.062324)
(0.327358 0 -0.064717)
(0.300677 0 -0.0534878)
(0.308206 0 -0.0563555)
(0.314529 0 -0.059099)
(0.319497 0 -0.0616533)
(0.32273 0 -0.0637056)
(0.310905 0 -0.0586013)
(0.315258 0 -0.06083)
(0.318146 0 -0.0626109)
(0.364006 0 -0.0713579)
(0.359883 0 -0.0873373)
(0.355149 0 -0.0724768)
(0.354491 0 -0.0776375)
(0.350743 0 -0.0821101)
(0.349788 0 -0.0708773)
(0.350143 0 -0.0740782)
(0.34864 0 -0.0774353)
(0.344225 0 -0.069796)
(0.345028 0 -0.0720084)
(0.344739 0 -0.074479)
(0.339003 0 -0.0686575)
(0.339957 0 -0.0703556)
(0.340254 0 -0.0722749)
(0.334003 0 -0.067479)
(0.335002 0 -0.0688552)
(0.335589 0 -0.0704178)
(0.329142 0 -0.0662701)
(0.330141 0 -0.0674219)
(0.330872 0 -0.0687344)
(0.324373 0 -0.0650316)
(0.325346 0 -0.0660159)
(0.326146 0 -0.0671415)
(0.319662 0 -0.0637589)
(0.320596 0 -0.0646124)
(0.321418 0 -0.0655914)
(0.314988 0 -0.0624461)
(0.315873 0 -0.0631938)
(0.316687 0 -0.0640535)
(0.364006 0 -0.0713579)
(0.359883 0 -0.0873373)
(0.355149 0 -0.0724768)
(0.354491 0 -0.0776375)
(0.350743 0 -0.0821101)
(0.349788 0 -0.0708773)
(0.350143 0 -0.0740782)
(0.34864 0 -0.0774353)
(0.344225 0 -0.069796)
(0.345028 0 -0.0720084)
(0.344739 0 -0.074479)
(0.339003 0 -0.0686575)
(0.339957 0 -0.0703556)
(0.340254 0 -0.0722749)
(0.334003 0 -0.067479)
(0.335002 0 -0.0688552)
(0.335589 0 -0.0704178)
(0.329142 0 -0.0662701)
(0.330141 0 -0.0674219)
(0.330872 0 -0.0687344)
(0.324373 0 -0.0650316)
(0.325346 0 -0.0660159)
(0.326146 0 -0.0671415)
(0.319662 0 -0.0637589)
(0.320596 0 -0.0646124)
(0.321418 0 -0.0655914)
(0.314988 0 -0.0624461)
(0.315873 0 -0.0631938)
(0.316687 0 -0.0640535)
(0.345045 0 -0.0847364)
(0.339219 0 -0.0852746)
(0.333051 0 -0.0845189)
(0.326785 0 -0.0830752)
(0.320539 0 -0.0812338)
(0.314373 0 -0.0791351)
(0.308299 0 -0.0768494)
(0.302298 0 -0.0744157)
(0.296329 0 -0.0718587)
(0.345085 0 -0.0804587)
(0.340281 0 -0.081926)
(0.334986 0 -0.0820313)
(0.329344 0 -0.0813021)
(0.323498 0 -0.0800251)
(0.317553 0 -0.0783669)
(0.311561 0 -0.0764288)
(0.305539 0 -0.0742747)
(0.299469 0 -0.0719466)
(0.342796 0 -0.0771203)
(0.339273 0 -0.0788796)
(0.334929 0 -0.0795017)
(0.330042 0 -0.079292)
(0.324774 0 -0.0784837)
(0.319242 0 -0.0772303)
(0.31352 0 -0.0756357)
(0.307646 0 -0.0737716)
(0.301629 0 -0.0716892)
(0.339344 0 -0.0744817)
(0.33693 0 -0.0762018)
(0.333509 0 -0.0770721)
(0.329383 0 -0.0772079)
(0.32474 0 -0.0767589)
(0.319701 0 -0.0758471)
(0.314347 0 -0.0745635)
(0.308731 0 -0.0729766)
(0.302873 0 -0.0711384)
(0.335319 0 -0.0722768)
(0.333747 0 -0.0738479)
(0.331127 0 -0.0747943)
(0.32771 0 -0.0751364)
(0.323676 0 -0.0749453)
(0.319147 0 -0.0743052)
(0.314204 0 -0.0732876)
(0.308904 0 -0.071951)
(0.303274 0 -0.0703429)
(0.331002 0 -0.0703267)
(0.330035 0 -0.0717334)
(0.328064 0 -0.0726666)
(0.325267 0 -0.0731145)
(0.321793 0 -0.0730978)
(0.317756 0 -0.0726643)
(0.313231 0 -0.0718647)
(0.308272 0 -0.070745)
(0.302911 0 -0.0693452)
(0.326523 0 -0.0685245)
(0.325983 0 -0.0697803)
(0.324515 0 -0.0706614)
(0.322237 0 -0.0711502)
(0.319258 0 -0.0712441)
(0.315673 0 -0.0709615)
(0.311549 0 -0.0703348)
(0.306934 0 -0.0693973)
(0.301857 0 -0.0681803)
(0.321944 0 -0.066805)
(0.321701 0 -0.0679279)
(0.320614 0 -0.0687441)
(0.318756 0 -0.0692362)
(0.3162 0 -0.0693938)
(0.313016 0 -0.0692174)
(0.309262 0 -0.0687242)
(0.304977 0 -0.067936)
(0.300187 0 -0.0668757)
(0.317296 0 -0.065126)
(0.317254 0 -0.0661317)
(0.31645 0 -0.0668809)
(0.314923 0 -0.0673557)
(0.312716 0 -0.0675446)
(0.30988 0 -0.0674405)
(0.306459 0 -0.0670481)
(0.302482 0 -0.0663799)
(0.297967 0 -0.0654515)
(0.312594 0 -0.063458)
(0.312681 0 -0.0643594)
(0.312081 0 -0.0650425)
(0.310807 0 -0.0654886)
(0.308885 0 -0.0656883)
(0.306345 0 -0.0656317)
(0.303216 0 -0.0653139)
(0.299517 0 -0.0647408)
(0.295261 0 -0.0639219)
(0.306468 0 -0.063619)
(0.304774 0 -0.0638161)
(0.30248 0 -0.063787)
(0.299599 0 -0.0635228)
(0.296147 0 -0.0630243)
(0.292127 0 -0.0622954)
(0.298335 0 -0.0618988)
(0.295664 0 -0.0616722)
(0.292427 0 -0.0612317)
(0.28862 0 -0.0605764)
(0.288416 0 -0.0593623)
(0.284793 0 -0.0587662)
(0.345045 0 -0.0847364)
(0.339219 0 -0.0852746)
(0.333051 0 -0.0845189)
(0.326785 0 -0.0830752)
(0.320539 0 -0.0812338)
(0.314373 0 -0.0791351)
(0.308299 0 -0.0768494)
(0.302298 0 -0.0744157)
(0.296329 0 -0.0718587)
(0.345085 0 -0.0804587)
(0.340281 0 -0.081926)
(0.334986 0 -0.0820313)
(0.329344 0 -0.0813021)
(0.323498 0 -0.0800251)
(0.317553 0 -0.0783669)
(0.311561 0 -0.0764288)
(0.305539 0 -0.0742747)
(0.299469 0 -0.0719466)
(0.342796 0 -0.0771203)
(0.339273 0 -0.0788796)
(0.334929 0 -0.0795017)
(0.330042 0 -0.079292)
(0.324774 0 -0.0784837)
(0.319242 0 -0.0772303)
(0.31352 0 -0.0756357)
(0.307646 0 -0.0737716)
(0.301629 0 -0.0716892)
(0.339344 0 -0.0744817)
(0.33693 0 -0.0762018)
(0.333509 0 -0.0770721)
(0.329383 0 -0.0772079)
(0.32474 0 -0.0767589)
(0.319701 0 -0.0758471)
(0.314347 0 -0.0745635)
(0.308731 0 -0.0729766)
(0.302873 0 -0.0711384)
(0.335319 0 -0.0722768)
(0.333747 0 -0.0738479)
(0.331127 0 -0.0747943)
(0.32771 0 -0.0751364)
(0.323676 0 -0.0749453)
(0.319147 0 -0.0743052)
(0.314204 0 -0.0732876)
(0.308904 0 -0.071951)
(0.303274 0 -0.0703429)
(0.331002 0 -0.0703267)
(0.330035 0 -0.0717334)
(0.328064 0 -0.0726666)
(0.325267 0 -0.0731145)
(0.321793 0 -0.0730978)
(0.317756 0 -0.0726643)
(0.313231 0 -0.0718647)
(0.308272 0 -0.070745)
(0.302911 0 -0.0693452)
(0.326523 0 -0.0685245)
(0.325983 0 -0.0697803)
(0.324515 0 -0.0706614)
(0.322237 0 -0.0711502)
(0.319258 0 -0.0712441)
(0.315673 0 -0.0709615)
(0.311549 0 -0.0703348)
(0.306934 0 -0.0693973)
(0.301857 0 -0.0681803)
(0.321944 0 -0.066805)
(0.321701 0 -0.0679279)
(0.320614 0 -0.0687441)
(0.318756 0 -0.0692362)
(0.3162 0 -0.0693938)
(0.313016 0 -0.0692174)
(0.309262 0 -0.0687242)
(0.304977 0 -0.067936)
(0.300187 0 -0.0668757)
(0.317296 0 -0.065126)
(0.317254 0 -0.0661317)
(0.31645 0 -0.0668809)
(0.314923 0 -0.0673557)
(0.312716 0 -0.0675446)
(0.30988 0 -0.0674405)
(0.306459 0 -0.0670481)
(0.302482 0 -0.0663799)
(0.297967 0 -0.0654515)
(0.312594 0 -0.063458)
(0.312681 0 -0.0643594)
(0.312081 0 -0.0650425)
(0.310807 0 -0.0654886)
(0.308885 0 -0.0656883)
(0.306345 0 -0.0656317)
(0.303216 0 -0.0653139)
(0.299517 0 -0.0647408)
(0.295261 0 -0.0639219)
(0.306468 0 -0.063619)
(0.304774 0 -0.0638161)
(0.30248 0 -0.063787)
(0.299599 0 -0.0635228)
(0.296147 0 -0.0630243)
(0.292127 0 -0.0622954)
(0.298335 0 -0.0618988)
(0.295664 0 -0.0616722)
(0.292427 0 -0.0612317)
(0.28862 0 -0.0605764)
(0.288416 0 -0.0593623)
(0.284793 0 -0.0587662)
)
;

boundaryField
{
    inlet
    {
        type            fixedValue;
        value           nonuniform 0();
    }
    outlet
    {
        type            fixedValue;
        value           nonuniform 0();
    }
    flap
    {
        type            fixedValue;
        value           nonuniform List<vector> 
68
(
(0 0 0)
(0.00385709 0 0.00400539)
(0.00385709 0 0.00400539)
(0 0 0)
(0.0129999 0 0.00716709)
(0.0129999 0 0.00716709)
(0.0273103 0 0.00903826)
(0.0273103 0 0.00903826)
(0.0459081 0 0.00939067)
(0.0459081 0 0.00939067)
(0.067974 0 0.0081995)
(0.067974 0 0.0081995)
(0.0927703 0 0.00556138)
(0.0927703 0 0.00556138)
(0.119689 0 0.00163019)
(0.119689 0 0.00163019)
(0.148251 0 -0.00339037)
(0.148251 0 -0.00339037)
(0.178072 0 -0.00932612)
(0.178072 0 -0.00932612)
(0.208822 0 -0.0160245)
(0.208822 0 -0.0160245)
(0.240211 0 -0.0233073)
(0.240211 0 -0.0233073)
(0.271995 0 -0.0310163)
(0.271995 0 -0.0310163)
(0.303976 0 -0.0390115)
(0.303976 0 -0.0390115)
(0.335985 0 -0.0471401)
(0.335985 0 -0.0471401)
(0.36803 0 -0.0553274)
(0.36803 0 -0.0553274)
(0.364006 0 -0.0713579)
(0.364006 0 -0.0713579)
(0.359883 0 -0.0873373)
(0.359883 0 -0.0873373)
(0.355735 0 -0.103336)
(0.355735 0 -0.103336)
(0 0 0)
(0 0 0)
(0.00343069 0 -0.00462246)
(0.00343069 0 -0.00462246)
(0.0115735 0 -0.00930221)
(0.0115735 0 -0.00930221)
(0.0245119 0 -0.0142546)
(0.0245119 0 -0.0142546)
(0.0415456 0 -0.0196416)
(0.0415456 0 -0.0196416)
(0.0620563 0 -0.0255445)
(0.0620563 0 -0.0255445)
(0.0854177 0 -0.0319734)
(0.0854177 0 -0.0319734)
(0.111073 0 -0.0388914)
(0.111073 0 -0.0388914)
(0.138563 0 -0.046267)
(0.138563 0 -0.046267)
(0.167507 0 -0.0540266)
(0.167507 0 -0.0540266)
(0.197579 0 -0.0620612)
(0.197579 0 -0.0620612)
(0.228481 0 -0.070277)
(0.228481 0 -0.070277)
(0.25995 0 -0.0785763)
(0.25995 0 -0.0785763)
(0.291764 0 -0.0868721)
(0.291764 0 -0.0868721)
(0.323704 0 -0.0951252)
(0.323704 0 -0.0951252)
)
;
    }
    upperWall
    {
        type            slip;
    }
    lowerWall
    {
        type            slip;
    }
    frontAndBack
    {
        type            empty;
    }
    procBoundary4to1
    {
        type            processor;
    }
    procBoundary4to2
    {
        type            processor;
    }
    procBoundary4to3
    {
        type            processor;
    }
    procBoundary4to5
    {
        type            processor;
    }
}


// ************************************************************************* //
