/*--------------------------------*- C++ -*----------------------------------*\
| =========                 |                                                 |
| \\      /  F ield         | OpenFOAM: The Open Source CFD Toolbox           |
|  \\    /   O peration     | Version:  dev                                   |
|   \\  /    A nd           | Web:      www.OpenFOAM.org                      |
|    \\/     M anipulation  |                                                 |
\*---------------------------------------------------------------------------*/
FoamFile
{
    version     2.0;
    format      ascii;
    class       volVectorField;
    location    "1";
    object      U;
}
// * * * * * * * * * * * * * * * * * * * * * * * * * * * * * * * * * * * * * //

dimensions      [0 1 -1 0 0 0 0];

internalField   nonuniform List<vector> 
465
(
(4.61428 4.67454e-19 0.255446)
(4.10852 1.22268e-19 0.282818)
(3.57561 0 0.312218)
(3.0175 -2.63386e-19 0.343425)
(2.43723 -2.71688e-19 0.376011)
(1.83889 0 0.409015)
(1.22769 -2.25723e-18 0.438932)
(0.586068 2.22313e-18 0.436955)
(0.023689 -1.19814e-18 0.0782751)
(5.5454 0 0.655875)
(5.05505 1.19317e-19 0.720587)
(4.5328 0 0.787435)
(3.97923 2.32016e-18 0.854841)
(3.39543 -1.84441e-18 0.920457)
(2.78263 3.79735e-18 0.980312)
(2.14212 -4.36879e-18 1.02595)
(1.4361 -5.40169e-19 1.04195)
(0.859495 -1.16464e-18 0.997501)
(5.9737 -2.25769e-19 1.0718)
(5.52703 -2.12175e-18 1.18284)
(5.04709 2.42195e-18 1.29868)
(4.53205 0 1.41694)
(3.97924 0 1.53419)
(3.38366 1.0484e-18 1.64559)
(2.73702 0 1.74305)
(1.99553 5.24908e-19 1.8162)
(1.23419 2.28188e-18 1.90437)
(6.21696 -1.32547e-18 1.44278)
(5.80917 0 1.59738)
(5.36936 -4.76284e-19 1.76116)
(4.89362 -4.87112e-19 1.93188)
(4.37603 -4.01091e-18 2.10611)
(3.8069 3.53827e-18 2.2796)
(3.17195 0 2.44739)
(2.4522 0 2.58741)
(1.5634 0 2.81705)
(6.38944 -2.1842e-19 1.78569)
(6.01208 -3.61336e-18 1.97996)
(5.60496 3.69115e-18 2.18823)
(5.16298 4.286e-18 2.40897)
(4.67852 -4.34205e-18 2.63944)
(4.14022 0 2.87529)
(3.52828 0 3.11359)
(2.8708 0 3.30213)
(1.89475 2.64484e-19 3.64615)
(6.53882 0 2.10808)
(6.18578 0 2.33899)
(5.80539 4.06084e-18 2.58884)
(5.39207 3.25083e-18 2.8568)
(4.93761 -6.97872e-18 3.14071)
(4.43137 -2.33684e-19 3.43467)
(3.84444 7.50575e-18 3.73688)
(3.26142 -7.44456e-18 3.95251)
(2.22401 -2.43015e-19 4.37162)
(6.68573 1.83379e-19 2.41409)
(6.35363 -2.21647e-20 2.67923)
(5.99643 3.04024e-18 2.96817)
(5.60844 4.45953e-19 3.28065)
(5.18102 0 3.61458)
(4.70561 2.26681e-19 3.9612)
(4.13966 2.22744e-19 4.32053)
(3.62486 -7.1186e-18 4.5513)
(2.54232 7.945e-18 5.01684)
(6.83925 3.0207e-18 2.70571)
(6.52678 0 3.00327)
(6.19113 0 3.32924)
(5.82674 6.73558e-18 3.68397)
(5.4242 -6.87335e-18 4.06524)
(4.97728 0 4.46051)
(4.42634 6.64844e-18 4.87325)
(3.96646 -6.03736e-18 5.11917)
(2.84713 7.64717e-18 5.62157)
(7.00353 -3.13003e-18 2.98345)
(6.71084 -6.42405e-18 3.31197)
(6.39652 6.47919e-18 3.67342)
(6.05529 1.03078e-19 4.06884)
(5.67667 0 4.49608)
(5.25667 0 4.93868)
(4.71625 0 5.40542)
(4.29975 -7.41996e-18 5.6764)
(3.14501 4.44382e-20 6.22452)
(7.18023 2.93899e-18 3.24667)
(6.90855 2.03874e-19 3.60494)
(6.6167 0 4.00069)
(6.29967 0 4.43581)
(5.9458 -7.78765e-19 4.90881)
(5.55338 -7.77312e-19 5.40015)
(5.02282 0 5.92561)
(4.64335 -1.57429e-18 6.23907)
(3.44935 0 6.8542)
(7.3697 -5.79558e-18 3.49398)
(7.121 -5.67235e-19 3.88066)
(6.85408 -2.37214e-21 4.3095)
(6.56411 6.74203e-18 4.78344)
(6.23833 1.4967e-18 5.30256)
(5.87743 7.55112e-19 5.84628)
(5.36142 0 6.43868)
(5.01751 1.54903e-18 6.81993)
(3.77597 0 7.53528)
(7.5717 5.33022e-18 3.7235)
(7.34856 -1.17874e-17 4.13664)
(7.11012 5.73689e-18 4.59665)
(6.85192 -7.21829e-19 5.1078)
(6.56063 -7.19474e-19 5.67294)
(6.23934 -5.64365e-18 6.27382)
(5.75098 4.32588e-18 6.94407)
(5.4466 0 7.42895)
(4.14962 0 8.3016)
(7.78564 3.44973e-19 3.93287)
(7.59109 6.92847e-19 4.3695)
(7.38549 0 4.85732)
(7.16539 0 5.40232)
(6.91822 0 6.01112)
(6.65001 0 6.67234)
(6.21475 -5.27861e-18 7.43072)
(5.97019 9.59288e-18 8.06521)
(4.61641 -5.93131e-18 9.20298)
(8.01036 0 4.11918)
(7.84751 0 4.57499)
(7.67948 -5.24895e-18 5.08525)
(7.50485 -1.23892e-18 5.65762)
(7.31416 5.18332e-18 6.30276)
(7.11882 -5.02446e-18 7.01983)
(6.77872 6.39679e-18 7.86657)
(6.65112 1.30535e-18 8.69361)
(5.26003 0 10.3091)
(8.2437 0 4.27983)
(8.11526 1.26739e-18 4.74911)
(7.98899 5.04136e-18 5.27401)
(7.86673 1.19637e-18 5.86304)
(7.74528 -1.10358e-17 6.52937)
(7.64644 4.88852e-18 7.2817)
(7.45943 2.31638e-18 8.18525)
(7.56779 -3.5516e-18 9.18774)
(6.2088 0 11.7458)
(0.345504 0 -0.260749)
(0.641743 -8.92796e-19 -0.148541)
(0.862213 8.1455e-19 -0.0692093)
(1.01385 0 -0.0277199)
(1.07006 0 0.00169842)
(1.00806 3.7029e-19 0.0336394)
(0.832907 -3.76636e-19 0.0660299)
(0.563504 0 0.0937062)
(0.22021 0 0.114367)
(-0.172213 -8.79862e-20 0.12722)
(0.0563496 0 -0.383186)
(0.226846 0 -0.238977)
(0.317895 0 -0.144759)
(0.307478 1.54077e-18 -0.0575824)
(0.186893 -1.52297e-18 0.0362431)
(-0.0324585 7.45609e-19 0.126433)
(-0.336717 -7.5393e-19 0.207646)
(-0.708871 5.44461e-19 0.277595)
(-1.13157 -7.33975e-19 0.333937)
(-1.58885 0 0.375635)
(-0.0688896 3.96696e-18 -0.424278)
(-0.102221 -3.07418e-18 -0.242518)
(-0.147441 -4.08141e-19 -0.0958284)
(-0.288884 1.54787e-18 0.0468562)
(-0.50956 -1.52407e-18 0.181186)
(-0.815123 0 0.30793)
(-1.18922 -1.28256e-18 0.42297)
(-1.61527 1.12297e-18 0.521244)
(-2.07812 5.45967e-19 0.599283)
(-2.56472 0 0.655749)
(-0.125636 3.55959e-18 -0.361264)
(-0.310395 -3.9211e-18 -0.137664)
(-0.472522 4.08259e-19 0.0429039)
(-0.703602 0 0.216668)
(-1.00624 0 0.383957)
(-1.37407 -1.39786e-18 0.541241)
(-1.79371 1.3135e-18 0.682101)
(-2.25134 -1.80459e-18 0.801131)
(-2.73501 9.20081e-19 0.895019)
(-3.23452 1.0275e-18 0.962501)
(-0.125832 -4.35675e-18 -0.207149)
(-0.415763 0 0.0543377)
(-0.66659 0 0.25047)
(-0.977009 3.35186e-18 0.44793)
(-1.34148 -3.69555e-20 0.638807)
(-1.75297 -1.5567e-18 0.816244)
(-2.20105 -1.69809e-18 0.973585)
(-2.67539 1.82909e-19 1.10534)
(-3.16766 0 1.20836)
(-3.67051 6.83059e-19 1.28126)
(-0.0688275 4.43039e-18 0.0324672)
(-0.43157 8.71576e-19 0.30846)
(-0.758432 4.16198e-19 0.518928)
(-1.13077 3.00144e-18 0.732798)
(-1.53944 -3.16591e-18 0.937711)
(-1.97883 -3.16059e-18 1.12619)
(-2.4415 3.05933e-18 1.29194)
(-2.92098 0 1.42988)
(-3.41234 -3.56386e-19 1.53696)
(-3.91092 -5.00091e-22 1.61159)
(0.0320103 3.98359e-18 0.32666)
(-0.376676 -1.74318e-18 0.619773)
(-0.764271 -4.19164e-19 0.838517)
(-1.18025 0 1.06003)
(-1.61608 -3.18896e-18 1.27041)
(-2.06852 3.17617e-18 1.46257)
(-2.53355 1.92183e-19 1.63049)
(-3.0084 -1.46946e-18 1.76969)
(-3.49102 3.22395e-18 1.87716)
(-3.97899 -2.07611e-18 1.95086)
(0.174887 0 0.674289)
(-0.266601 -2.62213e-18 0.977507)
(-0.695612 2.1268e-20 1.19586)
(-1.13645 6.67992e-18 1.41683)
(-1.58222 -6.51275e-18 1.62567)
(-2.0331 3.24449e-18 1.81581)
(-2.48903 3.9169e-19 1.98165)
(-2.95049 0 2.11895)
(-3.41771 -3.61149e-19 2.22456)
(-3.89001 3.43212e-19 2.29593)
(0.352613 4.02397e-18 1.05812)
(-0.110202 -3.5307e-18 1.36627)
(-0.561616 0 1.57619)
(-1.00712 0 1.78991)
(-1.44524 -1.5786e-19 1.99217)
(-1.88031 0 2.17672)
(-2.3163 1.57427e-18 2.33821)
(-2.75633 -1.17042e-18 2.47218)
(-3.20241 3.64912e-19 2.57526)
(-3.65496 1.68772e-18 2.64413)
(0.56344 4.03408e-18 1.45818)
(0.0851343 0 1.7689)
(-0.369281 2.21012e-19 1.96369)
(-0.797359 5.48905e-20 2.16522)
(-1.20983 -3.32035e-18 2.3582)
(-1.61541 3.40046e-18 2.53607)
(-2.02144 -4.06478e-19 2.69315)
(-2.43295 -2.19693e-22 2.82414)
(-2.85281 -1.44162e-18 2.92536)
(-3.28217 1.06648e-18 2.99278)
(0.806413 0 1.85577)
(0.312182 -3.60225e-18 2.16745)
(-0.123807 3.4074e-18 2.34113)
(-0.509991 -5.64558e-20 2.52791)
(-0.878578 0 2.71188)
(-1.24185 0 2.88451)
(-1.60906 0 3.03921)
(-1.98608 1.154e-18 3.16959)
(-2.37561 -2.59629e-18 3.27086)
(-2.77877 6.73198e-20 3.33881)
(1.08054 0 2.22981)
(0.564547 3.68537e-18 2.54175)
(0.17147 -3.75651e-18 2.68855)
(-0.145579 0 2.86164)
(-0.452738 4.58794e-19 3.04091)
(-0.762378 0 3.21303)
(-1.08379 -1.66317e-18 3.36926)
(-1.42162 3.59016e-18 3.50292)
(-1.77767 -6.39722e-20 3.60753)
(-2.15206 -1.42903e-18 3.67867)
(1.38553 0 2.55512)
(0.839524 -3.82426e-18 2.86421)
(0.514541 3.91048e-18 2.97974)
(0.297515 0 3.14962)
(0.0662482 -9.42507e-19 3.33372)
(-0.180851 0 3.51276)
(-0.451532 -2.11993e-18 3.6764)
(-0.746986 2.82594e-18 3.81823)
(-1.06707 -1.5437e-18 3.93051)
(-1.41041 -6.8154e-19 4.00833)
(1.6981 4.31806e-18 2.82333)
(1.14593 -8.47383e-18 3.11884)
(0.910653 3.53944e-18 3.1947)
(0.822299 0 3.37349)
(0.678501 4.79391e-19 3.57539)
(0.498501 4.61495e-19 3.7736)
(0.279654 4.34962e-19 3.95549)
(0.0284095 0 4.11166)
(-0.253937 3.62302e-19 4.23609)
(-0.564045 -1.40807e-18 4.32382)
(2.01501 4.88261e-18 2.75896)
(1.4586 4.94196e-19 3.16078)
(1.37364 -1.51076e-18 3.32306)
(1.41448 1.92648e-20 3.52385)
(1.36478 4.97991e-19 3.75544)
(1.25691 4.68324e-19 3.98317)
(1.09812 -8.52016e-19 4.19164)
(0.896195 8.32045e-19 4.37083)
(0.655839 -3.62041e-19 4.51506)
(0.380976 3.74033e-19 4.61991)
(8.49173 1.2266e-20 4.41489)
(8.40084 -2.36508e-18 4.89067)
(8.32049 2.37096e-18 5.42013)
(8.25666 0 6.01083)
(8.21502 1.15522e-18 6.67427)
(8.23256 1.0974e-18 7.42042)
(8.26084 -2.08475e-18 8.2973)
(8.95963 2.20147e-18 9.2517)
(9.7848 -7.60013e-19 11.8992)
(8.74805 -1.57456e-20 4.51968)
(8.69531 1.11824e-18 4.99345)
(8.66083 -2.25083e-18 5.51529)
(8.65402 2.17688e-18 6.08955)
(8.68676 -1.11776e-18 6.72076)
(8.80205 -1.07021e-18 7.40715)
(8.96009 1.01153e-18 8.15117)
(9.47435 9.31186e-19 8.86873)
(10.1036 -8.92401e-19 9.80385)
(9.00865 1.08197e-18 4.59278)
(8.99226 -2.16647e-18 5.0561)
(8.99945 0 5.55902)
(9.0402 -1.04228e-18 6.1015)
(9.12428 -2.92776e-20 6.67988)
(9.2793 -2.53425e-18 7.28023)
(9.46225 4.33048e-19 7.87081)
(9.74804 6.23332e-20 8.40467)
(10.2361 1.89587e-18 9.01076)
(9.26855 1.04553e-18 4.63296)
(9.28495 -2.04792e-18 5.07883)
(9.32733 1.04738e-18 5.55493)
(9.40378 2.28592e-20 6.05784)
(9.51985 1.5039e-18 6.57982)
(9.69004 5.09003e-19 7.10698)
(9.89445 -9.92832e-19 7.61257)
(10.1461 -1.88526e-18 8.09424)
(10.5927 9.70891e-19 8.66602)
(9.56831 0 5.06464)
(9.63962 9.94515e-19 5.51022)
(9.74313 -1.45334e-18 5.97276)
(9.88239 1.45227e-18 6.44454)
(10.0654 0 6.91579)
(10.2877 -4.64103e-19 7.3686)
(10.539 5.0457e-19 7.79755)
(10.9085 1.38452e-18 8.25575)
(10.0589 1.89581e-18 5.85665)
(10.2153 -1.39675e-20 6.28402)
(10.407 -4.64221e-19 6.70654)
(10.6324 4.47711e-19 7.11075)
(10.8757 -4.77146e-19 7.48597)
(11.1925 4.5597e-19 7.85728)
(10.7153 9.06092e-19 6.48303)
(10.9382 -4.63718e-21 6.84555)
(11.1754 -4.50104e-19 7.18286)
(11.4679 0 7.50779)
(11.4485 -2.83163e-20 6.88748)
(11.7273 -8.8848e-19 7.18091)
(10.1539 3.34048e-19 10.3152)
(6.84473 2.78106e-18 7.86967)
(2.15351 -1.19237e-18 5.83881)
(10.0899 -8.324e-19 8.02224)
(9.29062 -2.15996e-18 6.61527)
(8.04886 1.85257e-18 5.59811)
(10.4951 -4.82481e-19 8.63438)
(10.4735 8.30371e-19 8.07734)
(10.1241 4.18662e-19 7.45009)
(10.8619 -4.0773e-19 8.73057)
(10.9736 -2.00174e-19 8.59063)
(10.9063 -1.95112e-18 8.30305)
(11.1252 -4.76602e-20 8.3893)
(11.2764 -1.5876e-18 8.42506)
(11.3432 0 8.37327)
(11.3797 -1.54744e-18 8.00671)
(11.5426 1.37318e-18 8.11512)
(11.6614 0 8.18006)
(11.6395 -1.9197e-19 7.65473)
(11.7979 1.49849e-18 7.78302)
(11.9266 -1.4979e-18 7.8911)
(11.8884 1.86123e-18 7.31729)
(12.0393 -2.96458e-18 7.44367)
(12.1656 1.46469e-18 7.56107)
(12.2644 -1.43533e-18 7.10533)
(12.3864 -6.4576e-20 7.21974)
(0.121761 9.73855e-19 3.10696)
(1.54544 8.74561e-21 2.88105)
(1.84455 -9.67566e-19 3.19545)
(2.03865 1.18148e-18 3.52227)
(2.12022 -6.98106e-19 3.83983)
(2.10328 0 4.13035)
(2.01222 -4.1463e-19 4.38481)
(1.86435 7.59026e-19 4.59893)
(1.66999 -7.42049e-19 4.77095)
(6.30858 -2.95247e-20 4.2151)
(4.92355 -2.04979e-19 3.45514)
(3.80556 2.2274e-19 3.28667)
(3.30467 -1.11254e-19 3.48657)
(3.14931 2.19566e-19 3.83613)
(3.08539 0 4.19824)
(3.01472 3.96773e-19 4.51715)
(2.90784 3.64552e-19 4.78045)
(2.75885 -1.05247e-18 4.98921)
(9.09817 -4.5732e-19 6.23927)
(7.84318 4.44695e-19 5.21681)
(6.49125 -2.10099e-19 4.50814)
(5.42647 -1.08211e-19 4.15946)
(4.75877 0 4.14551)
(4.38935 0 4.35187)
(4.18477 -1.91282e-19 4.64154)
(4.04519 -3.58533e-19 4.92596)
(3.91285 6.66552e-19 5.16731)
(10.4375 4.71218e-19 7.48966)
(9.66069 4.40389e-19 6.61932)
(8.64743 -1.04552e-19 5.86017)
(7.62045 -1.1356e-19 5.28641)
(6.73953 5.03429e-20 4.94187)
(6.07523 -9.55656e-20 4.83772)
(5.62877 2.28037e-19 4.92485)
(5.34726 3.41943e-19 5.11657)
(5.1594 -1.64173e-19 5.33455)
(11.2364 2.13433e-19 7.9925)
(10.8528 -3.54688e-21 7.43592)
(10.2255 9.84722e-20 6.84995)
(9.46205 1.2019e-20 6.31309)
(8.66909 2.77042e-19 5.87556)
(7.9346 -2.73246e-19 5.58084)
(7.3265 1.71538e-19 5.44909)
(6.87432 0 5.46172)
(6.56206 0 5.569)
(11.7496 -4.15394e-19 8.0965)
(11.6419 -5.82936e-19 7.82552)
(11.3378 7.79105e-19 7.45984)
(10.8714 -4.61382e-20 7.06241)
(10.2978 1.10835e-20 6.67701)
(9.67852 -2.4773e-19 6.34497)
(9.0778 1.68839e-19 6.10166)
(8.55171 0 5.96548)
(8.13254 0 5.93058)
(12.1025 2.03246e-19 7.97763)
(12.1679 0 7.91714)
(12.1026 0 7.75052)
(11.8951 -6.50703e-19 7.51574)
(11.5632 3.4911e-19 7.24419)
(11.1408 3.30077e-19 6.96745)
(10.6701 7.68628e-20 6.71669)
(10.1973 1.45194e-19 6.51747)
(9.76478 -4.02047e-21 6.38429)
(12.3737 0 7.7305)
(12.5353 0 7.80491)
(12.6282 -6.19454e-19 7.79091)
(12.6176 7.03543e-19 7.7033)
(12.4978 0 7.55901)
(12.2815 0 7.37804)
(11.9906 2.55271e-22 7.18258)
(11.6533 -1.38456e-19 6.99409)
(11.3019 1.29785e-19 6.83029)
(12.6025 1.57504e-18 7.42006)
(12.8108 -7.62066e-19 7.56759)
(12.9977 -8.84913e-20 7.654)
(13.1219 6.58908e-19 7.67899)
(13.1654 -6.60996e-19 7.64718)
(13.1277 0 7.56772)
(13.0158 4.82222e-19 7.45329)
(12.8425 -5.4734e-19 7.31814)
(12.6263 -1.2498e-19 7.17632)
(13.0323 -7.47297e-19 7.26186)
(13.2687 -6.84226e-19 7.40391)
(13.4759 6.32479e-19 7.50258)
(13.6325 2.92607e-20 7.55504)
(13.7315 0 7.56236)
(13.7712 5.73089e-19 7.52916)
(13.7536 -5.31764e-19 7.46242)
(13.686 1.20209e-19 7.37065)
(13.9571 -6.63572e-19 7.33304)
(14.15 0 7.40338)
(14.3038 -6.77104e-20 7.43689)
(14.4143 -6.37538e-20 7.43483)
(14.4811 1.18877e-19 7.4005)
(14.6654 3.31321e-20 7.21462)
(14.8693 6.19538e-20 7.26319)
(15.0426 -1.15341e-19 7.28002)
(15.4153 0 7.03814)
)
;

boundaryField
{
    inlet
    {
        type            fixedValue;
        value           nonuniform 0();
    }
    outlet
    {
        type            zeroGradient;
    }
    flap
    {
        type            movingWallVelocity;
        value           nonuniform List<vector> 
33
(
(-5.72063e-16 0 -5.41131e-15)
(-3.01903e-15 0 -1.31866e-14)
(3.49287e-16 -2.77556e-14 1.04395e-15)
(-9.76028e-15 0 -2.37434e-14)
(0 0 0)
(-2.47818e-14 -2.77556e-14 -5.01197e-14)
(-2.5379e-14 0 -4.96298e-14)
(-5.82041e-15 -2.77556e-14 -1.12992e-14)
(-4.50004e-14 -1.36208e-31 -8.80143e-14)
(-5.63875e-15 -2.77556e-14 -1.11674e-14)
(0 0 0)
(0 0 0)
(-9.63286e-14 0 -2.02641e-13)
(0 -2.77556e-14 0)
(-9.90774e-15 -2.77556e-14 -2.12562e-14)
(0 0 0)
(0 0 0)
(0 0 0)
(-4.2759e-16 -2.77556e-14 -4.14168e-15)
(-3.79554e-15 0 -1.62349e-14)
(-9.84489e-15 0 -2.91191e-14)
(-1.17988e-14 0 -2.86129e-14)
(-2.60642e-14 -2.77556e-14 -5.62942e-14)
(-2.20736e-14 -6.71691e-32 -4.4582e-14)
(-2.82599e-14 -1.531e-33 -5.52532e-14)
(0 -2.77556e-14 0)
(-5.08118e-14 0 -9.92142e-14)
(6.64082e-32 -2.77556e-14 -3.35696e-32)
(0 0 0)
(-1.06317e-14 0 -2.18437e-14)
(5.3322e-14 2.77556e-14 1.12064e-13)
(0 0 0)
(-4.25656e-14 -1.27155e-31 -9.11434e-14)
)
;
    }
    upperWall
    {
        type            noSlip;
    }
    lowerWall
    {
        type            noSlip;
    }
    frontAndBack
    {
        type            empty;
    }
    procBoundary4to1
    {
        type            processor;
        value           nonuniform List<vector> 
30
(
(9.52336 2.00035e-18 4.64086)
(9.52336 2.00035e-18 4.64086)
(9.83947 9.62513e-19 5.01811)
(9.93442 4.71468e-19 5.43238)
(9.93442 4.71468e-19 5.43238)
(10.3511 1.03683e-18 5.71602)
(10.5192 1.0373e-18 6.10349)
(10.5192 1.0373e-18 6.10349)
(10.9952 0 6.25089)
(11.2155 1.40537e-20 6.57921)
(11.2155 1.40537e-20 6.57921)
(11.6968 -1.28506e-18 6.59329)
(11.9657 1.70551e-18 6.86074)
(12.1195 -1.29765e-18 6.98635)
(12.1195 -1.29765e-18 6.98635)
(12.4719 0 6.77072)
(12.5902 -8.66864e-20 6.87853)
(12.8051 -7.60855e-19 7.08312)
(12.8051 -7.60855e-19 7.08312)
(13.2196 -9.011e-20 6.92195)
(13.4779 0 7.08798)
(13.7303 -6.7594e-19 7.22683)
(13.7303 -6.7594e-19 7.22683)
(14.1848 0 7.02617)
(14.4352 -8.91286e-21 7.13489)
(14.4352 -8.91286e-21 7.13489)
(14.9035 -5.13977e-19 6.90183)
(15.1675 5.05361e-19 6.9835)
(15.1675 5.05361e-19 6.9835)
(15.6466 3.33342e-20 6.70887)
)
;
    }
    procBoundary4to2
    {
        type            processor;
        value           nonuniform List<vector> 
11
(
(3.76219 -2.97132e-19 5.35372)
(5.00832 9.88539e-21 5.52973)
(6.34731 0 5.71356)
(7.82246 3.30249e-19 5.96911)
(9.4017 -2.5363e-19 6.31667)
(10.9678 -4.81745e-19 6.70198)
(12.3895 0 7.03969)
(13.58 -2.16143e-19 7.26259)
(14.5079 0 7.33845)
(15.1836 -4.1682e-19 7.26585)
(15.6426 4.1353e-19 7.06393)
)
;
    }
    procBoundary4to3
    {
        type            processor;
        value           nonuniform List<vector> 
19
(
(5.09185 2.28416e-19 0.230214)
(6.00372 8.79625e-19 0.594378)
(6.38858 0 0.967093)
(6.59551 -1.7215e-18 1.29865)
(6.74056 -1.67638e-18 1.60611)
(6.86827 3.49348e-18 1.89608)
(6.9964 3.03852e-18 2.17185)
(7.13206 2.13044e-20 2.43489)
(7.27803 -3.07759e-18 2.68535)
(7.43518 2.89738e-18 2.92251)
(7.60348 9.0921e-20 3.14517)
(7.78244 0 3.3519)
(7.97117 0 3.54101)
(8.16851 0 3.71048)
(8.37272 0 3.85864)
(8.58944 2.39226e-18 3.98625)
(8.81378 -2.83986e-18 4.08972)
(9.04277 2.7265e-18 4.16769)
(9.27266 1.03191e-18 4.21846)
)
;
    }
    procBoundary4to5
    {
        type            processor;
        value           nonuniform List<vector> 
18
(
(-0.591755 -8.77821e-20 0.133649)
(-2.06672 -1.68485e-19 0.403956)
(-3.06362 -1.65575e-19 0.691082)
(-3.74108 1.63703e-18 1.00369)
(-4.1773 0 1.32377)
(-4.41215 1.32285e-18 1.65313)
(-4.46967 3.22038e-19 1.98977)
(-4.3662 -3.23016e-19 2.33154)
(-4.11359 1.33573e-18 2.67663)
(-3.72069 -1.28767e-18 3.02324)
(-3.19506 5.89359e-19 3.36924)
(-2.54397 -6.46448e-19 3.71178)
(-1.77554 -6.64534e-19 4.04733)
(-0.899751 -6.66858e-19 4.37183)
(0.0707958 0 4.68157)
(1.4377 -3.35822e-19 4.89818)
(1.4377 -3.35822e-19 4.89818)
(2.57137 -3.10801e-19 5.14494)
)
;
    }
}


// ************************************************************************* //
