/*--------------------------------*- C++ -*----------------------------------*\
| =========                 |                                                 |
| \\      /  F ield         | OpenFOAM: The Open Source CFD Toolbox           |
|  \\    /   O peration     | Version:  dev                                   |
|   \\  /    A nd           | Web:      www.OpenFOAM.org                      |
|    \\/     M anipulation  |                                                 |
\*---------------------------------------------------------------------------*/
FoamFile
{
    version     2.0;
    format      ascii;
    class       surfaceVectorField;
    location    "1";
    object      Uf;
}
// * * * * * * * * * * * * * * * * * * * * * * * * * * * * * * * * * * * * * //

dimensions      [0 1 -1 0 0 0 0];

internalField   nonuniform List<vector> 
865
(
(4.35487 2.92265e-19 0.269383)
(5.07993 2.33707e-19 0.442238)
(3.83469 6.0264e-20 0.297798)
(4.58195 1.21456e-19 0.484739)
(3.28833 -1.33415e-19 0.328131)
(4.05448 0 0.52836)
(2.71838 -2.67584e-19 0.360061)
(3.4988 1.02674e-18 0.571878)
(2.12873 -1.3465e-19 0.392882)
(2.91704 -1.06162e-18 0.613457)
(1.52485 -1.13304e-18 0.42433)
(2.31198 1.90129e-18 0.650048)
(0.914478 -2.97511e-20 0.43768)
(1.68709 -3.31589e-18 0.674915)
(0.306503 4.44991e-19 0.2497)
(1.01463 8.34509e-19 0.662694)
(0.452779 -1.24978e-18 0.357655)
(5.29461 6.0531e-20 0.688805)
(5.75954 -1.129e-19 0.869991)
(4.78775 5.8843e-20 0.754619)
(5.29106 -1.00209e-18 0.958473)
(4.24942 1.17426e-18 0.821769)
(4.79002 1.21169e-18 1.0503)
(3.68057 2.19197e-19 0.888289)
(4.25581 1.15893e-18 1.14334)
(3.08268 9.96818e-19 0.951005)
(3.68767 -9.20759e-19 1.23432)
(2.45737 -2.88899e-19 1.0037)
(3.08382 2.42008e-18 1.31782)
(1.80487 -2.47338e-18 1.03205)
(2.44098 -2.17472e-18 1.38251)
(1.10668 -8.62645e-19 1.02489)
(1.71855 -7.78995e-21 1.4069)
(1.05316 5.23304e-19 1.3736)
(5.74554 -1.18689e-18 1.12823)
(6.09533 -7.7557e-19 1.25896)
(5.28185 1.77398e-19 1.2417)
(5.66813 -1.0605e-18 1.39213)
(4.78416 1.19785e-18 1.35874)
(5.2083 9.71473e-19 1.53228)
(4.25045 0 1.47643)
(4.71302 -2.43865e-19 1.67705)
(3.67727 5.26453e-19 1.59059)
(4.178 -2.00968e-18 1.8229)
(3.05746 5.24688e-19 1.69489)
(3.59591 2.29703e-18 1.96496)
(2.37309 2.59146e-19 1.77866)
(2.95553 0 2.09647)
(1.5877 1.43268e-18 1.86588)
(2.22556 2.60461e-19 2.20641)
(1.40037 1.12648e-18 2.37978)
(6.00892 -6.54283e-19 1.52124)
(6.30319 -7.71983e-19 1.61527)
(5.58488 -2.40823e-19 1.68044)
(5.91065 -1.80726e-18 1.78988)
(5.12702 -4.81748e-19 1.84765)
(5.48722 1.60883e-18 1.97607)
(4.63064 -2.25941e-18 2.01999)
(5.02843 1.90248e-18 2.17194)
(4.0882 -2.36456e-19 2.19358)
(4.52755 -4.17682e-18 2.3745)
(3.48684 1.7774e-18 2.36413)
(3.97405 1.76361e-18 2.57991)
(2.8022 0 2.52097)
(3.35081 0 2.78509)
(2.03234 0 2.69162)
(2.66264 0 2.95859)
(1.72994 1.3347e-19 3.26241)
(6.19715 -1.93534e-18 1.88414)
(6.46412 -1.09221e-19 1.94748)
(5.80478 7.14996e-20 2.08539)
(6.09893 -1.80641e-18 2.16019)
(5.3802 3.99068e-18 2.29981)
(5.70521 3.87609e-18 2.38942)
(4.91711 -3.99829e-20 2.52525)
(5.27762 3.76791e-18 2.63406)
(4.40607 -2.17436e-18 2.75817)
(4.80824 -5.66224e-18 2.89176)
(3.83347 0 2.99449)
(4.28612 -1.17134e-19 3.15792)
(3.17338 0 3.21774)
(3.68685 3.76579e-18 3.43056)
(2.45184 1.37693e-19 3.44378)
(3.06699 -3.73921e-18 3.63914)
(2.06025 8.03282e-21 4.02534)
(6.35913 0 2.22493)
(6.61225 9.16596e-20 2.26139)
(5.99232 2.0465e-18 2.46525)
(6.26968 -1.10807e-20 2.5095)
(5.59549 3.65686e-18 2.724)
(5.90091 3.5504e-18 2.77902)
(5.16173 -1.86293e-18 2.99969)
(5.5003 1.84773e-18 3.0695)
(4.68095 -3.61721e-18 3.28856)
(5.05942 -3.48599e-18 3.37891)
(4.14093 3.60157e-18 3.58428)
(4.56869 -3.00398e-21 3.7002)
(3.51366 2.47232e-19 3.86097)
(3.99238 3.85582e-18 4.03206)
(2.83611 -3.67762e-18 4.11778)
(3.44377 -7.28108e-18 4.2583)
(2.38381 3.86753e-18 4.69735)
(6.51688 7.77901e-20 2.54805)
(6.76244 1.60112e-18 2.56008)
(6.17217 1.51605e-18 2.82499)
(6.44016 -1.10879e-20 2.84147)
(5.7996 1.73889e-18 3.12549)
(6.09374 1.52066e-18 3.149)
(5.39225 2.23103e-19 3.44831)
(5.71757 3.59047e-18 3.48273)
(4.93962 1.12843e-19 3.78877)
(5.30264 -3.43753e-18 3.84053)
(4.43043 2.24729e-19 4.1372)
(4.84153 1.13271e-19 4.21184)
(3.83337 -3.41317e-18 4.4577)
(4.28317 3.43925e-18 4.59749)
(3.18393 1.17262e-18 4.73383)
(3.79599 -6.57697e-18 4.83639)
(2.69495 7.79581e-18 5.31351)
(6.68052 1.4999e-18 2.85583)
(6.92131 -5.16311e-20 2.84473)
(6.35649 0 3.16741)
(6.61872 -3.20901e-18 3.15775)
(6.0065 3.37337e-18 3.50751)
(6.29373 3.23681e-18 3.50145)
(5.62363 -5.06344e-20 3.875)
(5.94092 3.42187e-18 3.8765)
(5.19683 -3.45309e-18 4.26381)
(5.55037 -3.43859e-18 4.28061)
(4.71437 3.3016e-18 4.66092)
(5.11693 0 4.6993)
(4.14088 5.04612e-19 5.0222)
(4.57128 3.32381e-18 5.13758)
(3.50329 1.17728e-18 5.32074)
(4.13316 -6.72848e-18 5.39516)
(2.99598 3.84397e-18 5.91388)
(6.85496 -4.786e-18 3.14894)
(7.09176 -9.95638e-20 3.1152)
(6.55154 4.16601e-20 3.49368)
(6.80956 -3.11474e-18 3.45855)
(6.22385 3.29025e-18 3.87181)
(6.50645 3.2442e-18 3.83706)
(5.86477 5.16621e-20 4.28254)
(6.1773 5.16124e-20 4.25216)
(5.4623 0 4.71854)
(5.81105 -3.88856e-19 4.70188)
(5.00313 0 5.16416)
(5.40484 -3.88206e-19 5.16817)
(4.44774 -3.71137e-18 5.56996)
(4.86935 0 5.66221)
(3.81145 -3.10483e-18 5.90487)
(4.47139 -4.49687e-18 5.95271)
(3.29693 2.22253e-20 6.52921)
(7.0424 1.566e-18 3.42688)
(7.2748 -1.42073e-18 3.37051)
(6.76075 1.01772e-19 3.80361)
(7.01458 -1.80987e-19 3.74293)
(6.4564 0 4.21871)
(6.73516 -1.18372e-21 4.15513)
(6.12205 -3.88394e-19 4.67213)
(6.43162 3.36401e-18 4.60942)
(5.74454 -7.78041e-19 5.15608)
(6.09176 3.56506e-19 5.10492)
(5.30799 -3.88911e-19 5.65375)
(5.71506 -1.29013e-20 5.62147)
(4.76933 -7.91784e-19 6.1136)
(5.19176 0 6.17792)
(4.12994 -7.40301e-19 6.5057)
(4.83006 -1.72073e-20 6.52221)
(3.61213 0 7.17981)
(7.24352 -3.17864e-18 3.68822)
(7.47049 -2.44404e-19 3.60904)
(6.98583 -2.8934e-19 4.09568)
(7.23452 -6.16434e-18 4.00895)
(6.7074 3.35977e-18 4.54678)
(6.98179 2.8601e-18 4.45334)
(6.40087 4.12534e-18 5.04268)
(6.70764 3.01987e-18 4.9457)
(6.05202 1.12638e-18 5.5766)
(6.39905 3.91601e-19 5.4873)
(5.64153 3.76445e-19 6.13302)
(6.05789 -2.43612e-18 6.05847)
(5.12368 7.83145e-19 6.66189)
(5.55564 2.1585e-18 6.68654)
(4.47997 7.28335e-19 7.14047)
(5.23141 7.75403e-19 7.11429)
(3.96172 0 7.89384)
(7.45835 -3.2385e-18 3.93083)
(7.67842 2.8437e-18 3.82868)
(7.22764 -3.03212e-18 4.3671)
(7.46951 -5.56366e-18 4.25367)
(6.97919 2.51287e-18 4.85248)
(7.24743 2.87677e-18 4.7277)
(6.70592 -7.20654e-19 5.3901)
(7.0082 -3.62032e-19 5.25585)
(6.39328 -3.18266e-18 5.9762)
(6.73889 -3.60878e-19 5.84263)
(6.01811 -5.54896e-19 6.60034)
(6.44407 -2.83035e-18 6.47283)
(5.53251 2.12881e-18 7.21962)
(5.98214 -4.65797e-19 7.18343)
(4.89037 0 7.82975)
(5.70748 4.78834e-18 7.73519)
(4.38083 -2.95071e-18 8.71204)
(7.68652 5.19085e-19 4.15186)
(7.89772 1.72941e-19 4.02679)
(7.4864 3.46645e-19 4.61381)
(7.71895 3.4743e-19 4.47327)
(7.27319 0 5.13015)
(7.53206 -2.61618e-18 4.97271)
(7.04091 0 5.70674)
(7.33462 -6.1738e-19 5.53195)
(6.77632 0 6.3452)
(7.11563 2.58284e-18 6.15962)
(6.45384 -2.66196e-18 7.04535)
(6.88383 -2.50425e-18 6.84948)
(6.02532 2.10613e-18 7.78157)
(6.49614 5.45593e-19 7.6507)
(5.41499 9.8679e-19 8.59451)
(6.30984 5.45262e-18 8.37269)
(4.93348 -2.99265e-18 9.68268)
(7.9269 0 4.34773)
(8.12675 0 4.20046)
(7.76121 -2.6228e-18 4.83059)
(7.98105 6.31935e-19 4.66343)
(7.58915 -3.25547e-18 5.372)
(7.83384 -1.19213e-19 5.1817)
(7.40727 1.96465e-18 5.98081)
(7.68534 -2.33913e-20 5.76356)
(7.20651 6.35914e-20 6.66564)
(7.52928 -2.90107e-18 6.4214)
(6.96461 7.95972e-19 7.44133)
(7.38238 -8.08423e-20 7.16022)
(6.64207 3.79839e-18 8.31459)
(7.11962 4.35808e-18 8.04299)
(6.14619 6.34302e-19 9.4451)
(7.1126 -1.1341e-18 8.96641)
(5.72437 0 10.8576)
(8.17718 6.34248e-19 4.51519)
(8.36504 5.99881e-21 4.34741)
(8.04927 3.15421e-18 5.01224)
(8.25495 -5.09679e-19 4.82048)
(7.9238 3.13107e-18 5.56952)
(8.15114 3.736e-18 5.34854)
(7.8016 -4.91421e-18 6.19777)
(8.05749 6.11659e-19 5.94006)
(7.68194 -3.07519e-18 6.91112)
(7.97519 -5.07448e-18 6.60821)
(7.55617 3.58692e-18 7.73774)
(7.93357 3.03622e-18 7.36479)
(7.41741 -5.37023e-19 8.72307)
(7.85258 1.67106e-19 8.27398)
(7.22495 -1.81856e-18 10.3543)
(8.25186 -6.95505e-19 9.32068)
(7.99843 -3.79406e-19 12.2097)
(0.434291 -4.41267e-19 -0.201029)
(0.201187 0 -0.312006)
(0.719926 -1.02758e-19 -0.108827)
(0.435269 -4.48251e-19 -0.183517)
(0.920782 4.18499e-19 -0.0479484)
(0.590999 4.08767e-19 -0.113777)
(1.02931 0 -0.0123625)
(0.661846 7.67676e-19 -0.0570126)
(1.02802 1.85843e-19 0.0182922)
(0.62997 -7.58872e-19 0.00212194)
(0.91213 -3.53197e-21 0.050298)
(0.489583 5.57312e-19 0.0629919)
(0.69334 -1.86486e-19 0.0801224)
(0.250109 -5.64647e-19 0.120119)
(0.391081 0 0.104106)
(-0.0705548 2.71345e-19 0.169702)
(0.0273328 -4.42753e-20 0.120736)
(-0.453578 -3.65883e-19 0.209321)
(-0.878525 -4.41134e-20 0.237723)
(0.0987494 0 -0.304165)
(-0.00663088 1.98573e-18 -0.433235)
(0.244175 0 -0.188383)
(0.0627693 -1.52932e-18 -0.258858)
(0.297301 7.50727e-19 -0.0991326)
(0.0860153 -2.03272e-19 -0.12917)
(0.237554 3.67574e-20 -0.00923939)
(0.0102931 1.54431e-18 -0.00992242)
(0.0685492 -3.84661e-19 0.082727)
(-0.160159 -1.52352e-18 0.104682)
(-0.192275 -5.5117e-21 0.168161)
(-0.422433 3.7409e-19 0.212261)
(-0.528227 -9.87621e-20 0.243307)
(-0.76148 -1.01733e-18 0.310481)
(-0.922807 -9.92085e-20 0.306062)
(-1.16051 8.32295e-19 0.395097)
(-1.35996 -3.64775e-19 0.354808)
(-1.60327 -9.60995e-20 0.462746)
(-2.07522 0 0.512113)
(-0.120516 6.77723e-19 -0.32539)
(-0.0978639 3.76762e-18 -0.426818)
(-0.13425 -1.79304e-18 -0.168719)
(-0.206484 -3.491e-18 -0.210263)
(-0.22492 5.48466e-19 -0.0235371)
(-0.309862 -4.04862e-21 -0.0399782)
(-0.404581 3.14622e-20 0.115204)
(-0.496006 7.7523e-19 0.121445)
(-0.668505 -7.59585e-19 0.246043)
(-0.757508 -7.63324e-19 0.274465)
(-1.00787 -6.46199e-19 0.366687)
(-1.09404 -6.97569e-19 0.418527)
(-1.40661 -7.3975e-20 0.472908)
(-1.49078 1.31119e-20 0.547974)
(-1.84909 8.31841e-19 0.560633)
(-1.93252 -3.36978e-19 0.657891)
(-2.32172 2.71571e-19 0.627566)
(-2.40573 7.32348e-19 0.744991)
(-2.89876 5.12446e-19 0.808008)
(-0.251237 1.03532e-19 -0.23989)
(-0.12637 -4.0728e-19 -0.316447)
(-0.391566 -1.82392e-18 -0.0491559)
(-0.363584 -1.96479e-18 -0.0612938)
(-0.590552 2.07673e-19 0.129947)
(-0.569791 2.04315e-19 0.132066)
(-0.858375 0 0.301286)
(-0.840409 1.67549e-18 0.321368)
(-1.19471 -7.00982e-19 0.463967)
(-1.17384 -1.84726e-20 0.50341)
(-1.5883 -3.7864e-20 0.612852)
(-1.56337 -1.47689e-18 0.672867)
(-2.02588 -2.56332e-19 0.742373)
(-1.9971 -1.90511e-19 0.823443)
(-2.49498 -4.34943e-19 0.848413)
(-2.46298 -8.12821e-19 0.949927)
(-2.98491 9.7464e-19 0.928784)
(-2.95088 4.60932e-19 1.04921)
(-3.45203 8.5529e-19 1.12007)
(-0.30271 -2.29478e-18 -0.0657543)
(-0.0978681 3.62075e-20 -0.115572)
(-0.53728 0 0.149666)
(-0.424273 4.3524e-19 0.163071)
(-0.822519 1.65473e-18 0.349064)
(-0.712821 2.08089e-19 0.371665)
(-1.16171 1.67222e-18 0.544197)
(-1.05406 3.17764e-18 0.581298)
(-1.55079 -7.89928e-19 0.728739)
(-1.44055 -1.60246e-18 0.781885)
(-1.98042 -1.62447e-18 0.89594)
(-1.86591 -2.35859e-18 0.966705)
(-2.44064 -7.52496e-19 1.04008)
(-2.3212 6.79409e-19 1.12955)
(-2.92264 9.10674e-20 1.15708)
(-2.79803 9.15397e-20 1.26529)
(-3.4188 3.4236e-19 1.24476)
(-3.2898 -1.77939e-19 1.37099)
(-3.79048 3.421e-19 1.44526)
(-0.276392 2.7553e-18 0.179969)
(-0.0188033 4.20683e-18 0.157924)
(-0.589237 6.47821e-19 0.410497)
(-0.404659 -4.2709e-19 0.448946)
(-0.944988 1.69824e-18 0.625827)
(-0.761591 7.77275e-22 0.668945)
(-1.33731 -7.11652e-20 0.836103)
(-1.15563 1.49901e-18 0.889961)
(-1.76211 -3.16324e-18 1.03304)
(-1.57781 -3.17745e-18 1.09962)
(-2.21274 -4.14901e-20 1.20989)
(-2.02369 1.02732e-20 1.29129)
(-2.68278 1.52386e-18 1.36133)
(-2.4875 1.62529e-18 1.4591)
(-3.16702 -1.78628e-19 1.4835)
(-2.96464 -7.34354e-19 1.59835)
(-3.6608 -1.78316e-19 1.57413)
(-3.45162 1.43166e-18 1.70613)
(-3.94489 -1.03663e-18 1.78066)
(-0.188603 1.29572e-18 0.478499)
(0.103201 1.99172e-18 0.48708)
(-0.564913 -1.08881e-18 0.726283)
(-0.322015 -2.18821e-18 0.787776)
(-0.973194 -2.10418e-19 0.949623)
(-0.730054 -1.9874e-19 1.01111)
(-1.40057 -1.59604e-18 1.16621)
(-1.15836 3.34508e-18 1.23479)
(-1.84489 -9.02247e-22 1.36746)
(-1.59912 -4.85328e-18 1.44565)
(-2.30283 1.6792e-18 1.54712)
(-2.05078 3.21036e-18 1.6375)
(-2.77166 -6.40392e-19 1.70029)
(-2.51126 2.9196e-19 1.8049)
(-3.24928 8.79299e-19 1.82334)
(-2.97944 -7.35058e-19 1.94355)
(-3.73359 5.75225e-19 1.91377)
(-3.45439 1.43326e-18 2.05044)
(-3.93457 -8.68216e-19 2.12325)
(-0.0543465 -1.23028e-18 0.827642)
(0.263587 2.01162e-18 0.857922)
(-0.476666 -1.29937e-18 1.0845)
(-0.188571 -3.07654e-18 1.166)
(-0.918067 3.34488e-18 1.30726)
(-0.628574 1.06193e-20 1.38377)
(-1.36207 6.97909e-20 1.52239)
(-1.07168 3.33383e-18 1.60249)
(-1.80984 -1.62124e-18 1.72156)
(-1.51362 -3.33031e-18 1.80847)
(-2.26204 1.81507e-18 1.89906)
(-1.95664 1.62082e-18 1.99594)
(-2.71957 1.95787e-19 2.05026)
(-2.40265 9.831e-19 2.15971)
(-3.18285 -1.80304e-19 2.17149)
(-2.85347 -5.84859e-19 2.29546)
(-3.65182 -1.00297e-20 2.2599)
(-3.31019 1.52445e-21 2.39994)
(-3.77268 1.01443e-18 2.47023)
(0.113189 5.37801e-19 1.21393)
(0.45796 4.02902e-18 1.2552)
(-0.333887 -1.767e-18 1.47026)
(-0.0124907 -1.76396e-18 1.56661)
(-0.787589 0 1.68451)
(-0.465255 1.10705e-19 1.77148)
(-1.22902 -7.92961e-20 1.89223)
(-0.902032 2.7498e-20 1.9792)
(-1.66431 -7.8688e-20 2.08502)
(-1.32738 -1.74118e-18 2.17638)
(-2.09832 7.87581e-19 2.25748)
(-1.7478 1.70112e-18 2.35719)
(-2.53519 2.03244e-19 2.40489)
(-2.16892 5.83975e-19 2.51625)
(-2.97732 -4.05518e-19 2.52328)
(-2.59481 -5.86019e-19 2.64863)
(-3.42599 1.02307e-18 2.60926)
(-3.02787 -5.37093e-19 2.75071)
(-3.46891 1.37743e-18 2.81888)
(0.30608 2.12905e-18 1.6205)
(0.684962 2.01738e-18 1.66048)
(-0.144098 1.11044e-19 1.8672)
(0.198916 -1.80353e-18 1.97249)
(-0.58728 1.37312e-19 2.06621)
(-0.246234 1.81683e-18 2.15761)
(-1.00599 -1.64181e-18 2.2627)
(-0.653452 -9.96473e-22 2.35039)
(-1.41306 4.62072e-20 2.44732)
(-1.04413 -1.65904e-18 2.53758)
(-1.81728 1.4998e-18 2.61427)
(-1.42871 1.70061e-18 2.71196)
(-2.22502 -2.04168e-19 2.75808)
(-1.81548 -2.03429e-19 2.86727)
(-2.64005 -7.16753e-19 2.87415)
(-2.20986 5.75787e-19 2.99764)
(-3.06416 -1.93344e-19 2.95854)
(-2.61466 -2.01795e-18 3.0987)
(-3.03099 5.6787e-19 3.1663)
(0.516136 -1.7133e-18 2.0308)
(0.943627 0 2.05449)
(0.0866885 -7.33086e-20 2.25753)
(0.438808 4.85082e-20 2.36483)
(-0.320319 1.65791e-18 2.43605)
(0.0241279 -1.81061e-19 2.52356)
(-0.695253 -2.80965e-20 2.62036)
(-0.327747 -2.82121e-20 2.70045)
(-1.05892 0 2.79782)
(-0.665864 2.29259e-19 2.87987)
(-1.42291 0 2.96112)
(-1.00251 0 3.05094)
(-1.79427 5.73275e-19 3.10356)
(-1.34696 -8.30063e-19 3.20554)
(-2.17723 -7.09283e-19 3.21947)
(-1.70447 2.36957e-18 3.33704)
(-2.5733 -1.27276e-18 3.30423)
(-2.07731 -1.33308e-18 3.43976)
(-2.46612 -6.79253e-19 3.50924)
(0.73457 1.77156e-18 2.42562)
(1.23345 0 2.41539)
(0.354263 -6.77164e-20 2.62072)
(0.702474 -7.60802e-20 2.72131)
(0.0128348 -1.8594e-18 2.77544)
(0.342896 7.69885e-20 2.84681)
(-0.297187 2.2983e-19 2.95078)
(0.0754341 0 3.01215)
(-0.603746 2.30237e-19 3.12587)
(-0.193998 -2.41181e-19 3.19048)
(-0.918879 -8.25693e-19 3.28997)
(-0.472486 0 3.36461)
(-1.24831 9.44243e-19 3.435)
(-0.768572 -1.89093e-18 3.52385)
(-1.5953 1.77726e-18 3.55433)
(-1.08522 3.20877e-18 3.66112)
(-1.96051 -7.43128e-19 3.64243)
(-1.42327 -8.02244e-19 3.7694)
(-1.78211 -1.05614e-18 3.84393)
(0.951882 -1.86076e-18 2.77833)
(1.54262 2.17027e-18 2.72293)
(0.658068 6.95008e-20 2.92876)
(0.992241 -6.14336e-18 3.01098)
(0.415162 1.94374e-18 3.06237)
(0.711379 3.72584e-18 3.09863)
(0.188927 -4.69937e-19 3.23983)
(0.558322 0 3.26664)
(-0.0503413 -4.74826e-19 3.42138)
(0.370833 -2.34182e-19 3.45639)
(-0.310228 -1.04946e-18 3.593)
(0.157435 2.29813e-19 3.64302)
(-0.593943 3.31157e-19 3.74601)
(-0.0871803 -8.47053e-19 3.81493)
(-0.902108 6.61194e-19 3.87335)
(-0.360426 1.41719e-18 3.96398)
(-1.23407 -1.1174e-18 3.96869)
(-0.661568 -5.93156e-19 4.08269)
(-0.988244 -1.04394e-18 4.16603)
(1.15205 -1.10001e-18 3.06587)
(1.85105 4.603e-18 2.98021)
(1.01339 -2.42133e-18 3.16091)
(1.29761 -4.09209e-18 3.16643)
(0.895343 1.77326e-18 3.2778)
(1.13913 1.04802e-18 3.24605)
(0.763422 2.3779e-19 3.47146)
(1.11575 9.54285e-21 3.44501)
(0.597518 4.7054e-19 3.67222)
(1.01947 4.88632e-19 3.66428)
(0.396207 4.48386e-19 3.8627)
(0.875942 4.65154e-19 3.87707)
(0.160121 2.2013e-19 4.0321)
(0.68739 -2.0612e-19 4.07216)
(-0.107535 1.78974e-19 4.17276)
(0.460985 4.14733e-19 4.24008)
(-0.404247 -5.14579e-19 4.27917)
(0.199768 1.0905e-21 4.3746)
(-0.0926023 -5.19084e-19 4.47076)
(1.31071 2.87962e-18 3.03911)
(1.17455 3.20208e-18 3.03904)
(1.45272 -5.15567e-19 3.23652)
(1.49981 2.59375e-19 3.06343)
(1.44271 -6.86096e-19 3.41612)
(1.60115 -1.24709e-18 3.29782)
(1.40218 2.72589e-19 3.63693)
(1.7181 5.85156e-19 3.5328)
(1.31788 4.87659e-19 3.86722)
(1.73334 -8.60563e-20 3.79477)
(1.18332 -1.83475e-19 4.08561)
(1.67036 2.39615e-19 4.0514)
(1.00237 -1.79201e-20 4.27975)
(1.54496 -6.3825e-19 4.28331)
(0.780658 2.42342e-19 4.4418)
(1.36969 7.96339e-19 4.48058)
(0.522393 3.24175e-21 4.56669)
(1.15199 -5.47646e-19 4.63925)
(8.44369 -1.18175e-18 4.65367)
(8.61805 -1.53542e-21 4.46766)
(8.35719 8.2669e-22 5.15642)
(8.54596 -6.4833e-19 4.94289)
(8.28346 1.1836e-18 5.71703)
(8.48822 9.43694e-20 5.46924)
(8.22904 5.79688e-19 6.34515)
(8.45251 1.07219e-18 6.05286)
(8.20526 1.12609e-18 7.05387)
(8.44756 3.58672e-20 6.702)
(8.23029 -5.1732e-19 7.86821)
(8.51324 2.68751e-20 7.42133)
(8.3651 -2.47463e-19 8.81927)
(8.60498 -5.63963e-19 8.23778)
(8.84952 7.35415e-19 10.6073)
(9.20849 1.56143e-18 9.02763)
(9.85989 -8.23518e-19 9.85497)
(12.2503 3.39852e-18 11.2998)
(8.71891 5.5646e-19 4.7577)
(8.87651 5.25204e-19 4.55694)
(8.67433 -5.66359e-19 5.25578)
(8.84169 -5.0037e-19 5.02574)
(8.65215 -2.77617e-20 5.80448)
(8.82775 -1.14166e-18 5.5383)
(8.66342 5.27751e-19 6.40838)
(8.84438 5.90346e-19 6.09634)
(8.72806 -1.09371e-18 7.06997)
(8.90234 -5.80374e-19 6.69887)
(8.88407 -1.08161e-20 7.78564)
(9.03672 -1.79193e-18 7.33275)
(9.23141 9.70384e-19 8.5183)
(9.20517 7.49964e-19 7.96833)
(9.79775 -1.18322e-20 9.35225)
(9.60344 5.02826e-19 8.54059)
(10.1725 5.2049e-19 9.47098)
(10.2526 -8.5185e-19 8.60792)
(8.99778 -5.46254e-19 4.82587)
(9.1368 1.06441e-18 4.61344)
(8.99251 -1.07754e-18 5.30933)
(9.13659 -2.10802e-18 5.06797)
(9.01579 -5.24826e-19 5.83268)
(9.16114 5.16493e-19 5.55705)
(9.07868 -5.30634e-19 6.39401)
(9.21949 -5.1762e-19 6.07838)
(9.19653 -1.29585e-18 6.98485)
(9.31928 7.27371e-19 6.62549)
(9.38316 -1.01775e-18 7.58105)
(9.4816 -1.0371e-18 7.18451)
(9.6422 2.44303e-19 8.14465)
(9.67512 -2.65145e-19 7.73251)
(9.90867 1.01064e-18 8.71481)
(9.94572 -8.99283e-19 8.2731)
(10.4191 1.43925e-18 8.98469)
(10.4092 2.92188e-19 8.75671)
(9.27445 -5.1117e-19 4.85759)
(9.30364 -4.91885e-19 5.31894)
(9.42473 -1.03768e-18 5.07179)
(9.3631 5.30174e-19 5.80904)
(9.48141 1.02091e-18 5.53207)
(9.4606 7.71492e-19 6.32223)
(9.57124 -7.05936e-19 6.01392)
(9.60344 9.99249e-19 6.84778)
(9.69879 1.4784e-18 6.51018)
(9.79385 -2.57292e-19 7.36496)
(9.87544 2.57532e-19 7.01109)
(10.0289 -1.45009e-18 7.85951)
(10.089 -7.31597e-19 7.49753)
(10.3207 -4.46068e-19 8.38647)
(10.3407 -6.98167e-19 7.95869)
(10.7482 1.17516e-18 8.45348)
(10.812 4.2404e-20 8.71184)
(9.60227 5.02009e-19 5.28969)
(9.68992 -2.43533e-19 5.74426)
(9.8121 1.94018e-20 6.21202)
(9.89905 2.00235e-19 5.91404)
(9.97313 7.13728e-19 6.68421)
(10.0468 7.28558e-19 6.36381)
(10.1762 -2.36773e-19 7.14676)
(10.2342 -2.2941e-19 6.81135)
(10.4212 3.30086e-20 7.58826)
(10.458 -1.34877e-20 7.23982)
(10.7093 9.45347e-19 8.03209)
(10.7051 1.94706e-20 7.63647)
(11.0481 9.20127e-19 8.04068)
(11.0705 4.11859e-19 8.34655)
(10.137 9.26673e-19 6.07353)
(10.3117 -2.43007e-19 6.49894)
(10.5212 7.57697e-22 6.91263)
(10.5593 2.12487e-19 6.5941)
(10.7614 -2.74988e-20 7.30264)
(10.7835 2.23369e-19 6.97698)
(11.0239 1.26701e-21 7.67558)
(11.0237 -4.62986e-19 7.33353)
(11.3285 2.3071e-19 7.68464)
(11.3244 -8.89742e-19 7.95801)
(10.8288 4.4212e-19 6.66772)
(11.062 -2.31887e-19 7.01775)
(11.312 -2.19827e-19 7.3484)
(11.3103 -2.41666e-19 7.03738)
(11.5961 -4.38962e-19 7.34814)
(11.5882 -1.28851e-19 7.60671)
(11.5793 -4.61338e-19 7.03674)
(11.84 9.56253e-19 7.27267)
(7.11955 -2.33331e-19 8.91933)
(9.90958 -2.00121e-19 7.69949)
(3.75292 1.22077e-18 6.79961)
(7.8564 3.4539e-19 5.87366)
(5.08236 3.96043e-19 4.65722)
(1.59568 -4.56545e-19 4.91928)
(9.6323 -1.52762e-18 7.2828)
(10.3567 -2.2315e-19 9.02349)
(8.69123 -6.61582e-20 6.09307)
(9.91932 -5.07471e-19 7.85085)
(9.10578 1.14292e-18 6.82584)
(7.61316 1.23967e-18 5.15134)
(10.5309 1.91626e-19 8.35161)
(10.6854 -4.8624e-19 8.80986)
(10.2868 6.2077e-19 7.75745)
(10.7249 2.95114e-19 8.41065)
(10.5134 -7.6744e-19 7.91876)
(9.79952 1.29286e-19 7.05079)
(10.9391 -3.02155e-19 8.66072)
(10.99 -2.29875e-19 8.52678)
(10.9165 -1.08521e-18 8.44382)
(11.1215 -8.79166e-19 8.47209)
(11.1206 -9.87899e-19 8.31117)
(10.7542 -1.1446e-18 8.03313)
(11.2126 -8.33957e-19 8.40809)
(11.2506 -7.88536e-19 8.19332)
(11.2979 -7.88357e-19 8.39824)
(11.4078 -1.24788e-19 8.26901)
(11.5003 0 8.27685)
(11.3144 7.09633e-20 8.24705)
(11.4711 -6.63661e-20 8.06204)
(11.5083 -8.77783e-19 7.83694)
(11.5974 6.83489e-19 8.14745)
(11.6689 1.43508e-18 7.95597)
(11.7925 -7.39799e-19 8.04136)
(11.6928 -1.38094e-19 8.15241)
(11.7272 6.6103e-19 7.71992)
(11.7626 8.22709e-19 7.48945)
(11.8604 -3.16212e-21 7.8371)
(11.9172 -7.06293e-19 7.61668)
(12.0447 -3.45364e-20 7.72908)
(11.9828 -9.32671e-19 7.91972)
(11.9712 -5.74855e-19 7.38138)
(12.1018 -7.45717e-19 7.50245)
(12.1505 -2.20909e-18 7.27667)
(12.2746 7.09255e-19 7.39265)
(12.2302 9.78337e-19 7.61707)
(12.3253 -7.49043e-19 7.16261)
(12.4526 4.76575e-19 7.2859)
(1.61677 1.8395e-20 2.93793)
(3.26326 4.61144e-19 3.17532)
(1.75602 -5.16893e-19 3.03413)
(3.22346 -9.7564e-20 2.90358)
(1.96441 9.72489e-20 3.35581)
(2.8137 -3.80051e-19 3.10851)
(2.09027 2.4497e-19 3.6785)
(2.66308 5.55221e-19 3.44426)
(2.11724 -3.53297e-19 3.98295)
(2.62721 -2.50669e-19 3.81292)
(2.06159 -2.0473e-19 4.25577)
(2.58697 0 4.15202)
(1.94169 1.64899e-19 4.49038)
(2.50601 -1.72264e-20 4.44325)
(1.77046 1.62393e-20 4.68376)
(2.37844 5.64732e-19 4.68413)
(2.20656 -8.94199e-19 4.8758)
(5.58133 -1.17447e-19 3.8374)
(7.70059 -2.41771e-19 5.4059)
(4.2419 -1.20486e-20 3.37295)
(6.36974 1.16529e-19 4.39176)
(3.53367 5.72338e-20 3.38627)
(5.13118 9.26013e-21 3.90454)
(3.22857 5.2453e-20 3.65953)
(4.35069 -1.08581e-19 3.8042)
(3.11627 1.11015e-19 4.0152)
(3.94251 1.114e-19 3.96951)
(3.04959 1.96067e-19 4.35586)
(3.72796 0 4.26116)
(2.96228 3.80853e-19 4.64723)
(3.59129 1.07089e-19 4.57121)
(2.83515 -3.35941e-19 4.88357)
(3.46833 8.28351e-21 4.84792)
(3.32763 -2.0609e-19 5.07439)
(8.47802 -7.58092e-21 5.72964)
(9.76267 1.88838e-20 6.90708)
(7.10368 1.29788e-19 4.86395)
(8.74257 4.37594e-19 5.93952)
(5.94179 -1.59567e-19 4.33515)
(7.55629 -1.57976e-19 5.20572)
(5.09937 -5.46059e-20 4.15252)
(6.50876 -1.1085e-19 4.74245)
(4.57716 0 4.24762)
(5.73521 2.48214e-20 4.55357)
(4.28659 -9.46098e-20 4.49518)
(5.22025 -4.71051e-20 4.59629)
(4.11487 -2.7398e-19 4.7822)
(4.89647 1.54245e-20 4.78141)
(3.97989 1.48292e-19 5.04529)
(4.68699 -1.35496e-20 5.019)
(4.52736 2.57336e-19 5.24879)
(10.0656 4.65046e-19 7.05615)
(10.8318 3.438e-19 7.72014)
(9.12969 1.69533e-19 6.24116)
(10.2496 2.19773e-19 7.01548)
(8.12367 -1.09022e-19 5.57515)
(9.42681 -4.31225e-21 6.34862)
(7.18263 -3.23885e-20 5.11559)
(8.52941 -5.15127e-20 5.79954)
(6.41043 -2.19255e-20 4.89028)
(7.69136 1.62982e-19 5.41247)
(5.85354 6.45939e-20 4.88085)
(6.99211 -1.83193e-19 5.21332)
(5.48927 2.84399e-19 5.01972)
(6.46582 2.00178e-19 5.18916)
(5.2546 9.15558e-20 5.22441)
(6.10015 1.73341e-19 5.28964)
(5.85099 -8.32226e-20 5.45141)
(11.0506 1.05274e-19 7.71533)
(11.4899 -9.68543e-20 8.04147)
(10.5305 4.71854e-20 7.14411)
(11.2425 -2.90222e-19 7.62566)
(9.83871 5.55457e-20 6.58314)
(10.7748 4.34626e-19 7.14849)
(9.06565 1.4347e-19 6.096)
(10.1578 -1.66923e-20 6.68199)
(8.30263 4.66946e-21 5.72946)
(9.47286 1.45791e-19 6.27267)
(7.6314 -5.29388e-20 5.51556)
(8.79495 -2.60343e-19 5.96185)
(7.10194 8.66077e-20 5.45534)
(8.1903 1.69431e-19 5.77603)
(6.72 0 5.51483)
(7.70157 0 5.71462)
(7.33657 0 5.75041)
(11.6951 -4.98813e-19 7.96153)
(11.924 -1.09139e-19 8.04165)
(11.489 9.34438e-20 7.6436)
(11.9017 -2.94999e-19 7.87256)
(11.1031 3.69248e-19 7.26234)
(11.7155 3.94327e-19 7.6035)
(10.5842 -1.77468e-20 6.8711)
(11.3768 -3.4466e-19 7.28573)
(9.98826 -1.17238e-19 6.51231)
(10.9224 1.77939e-19 6.95689)
(9.37856 -4.19492e-20 6.22435)
(10.4001 3.74169e-20 6.65319)
(8.81575 8.52052e-20 6.03418)
(9.86342 1.23457e-19 6.40749)
(8.34365 0 5.94819)
(9.36351 7.16317e-20 6.24109)
(8.93769 -1.98337e-21 6.15777)
(12.1306 1.0216e-19 7.9473)
(12.2365 1.02846e-19 7.85715)
(12.1384 0 7.83446)
(12.3493 0 7.86291)
(11.9996 -3.23173e-19 7.63392)
(12.3622 -3.05927e-19 7.77065)
(11.7286 -1.55527e-19 7.38091)
(12.2518 1.80004e-20 7.60785)
(11.3518 3.39141e-19 7.10688)
(12.0246 1.7676e-19 7.39898)
(10.9057 2.04559e-19 6.8431)
(11.7038 1.67154e-19 7.16977)
(10.4344 1.10722e-19 6.61794)
(11.3218 3.90324e-20 6.94692)
(9.98213 7.12729e-20 6.45147)
(10.9158 5.04879e-21 6.75384)
(10.5232 6.22846e-20 6.60628)
(12.4474 0 7.76711)
(12.4867 7.78039e-19 7.5778)
(12.5864 -3.07808e-19 7.79821)
(12.6714 -3.76398e-19 7.68838)
(12.6248 3.84989e-20 7.74749)
(12.8107 -3.57229e-19 7.72332)
(12.5571 3.54396e-19 7.63165)
(12.8667 6.81502e-19 7.69067)
(12.3891 0 7.4692)
(12.8274 -3.26354e-19 7.60158)
(12.1362 1.26564e-22 7.28109)
(12.6992 0 7.47064)
(11.8225 -6.8497e-20 7.08912)
(12.4967 2.38214e-19 7.31535)
(11.4784 -5.53234e-21 6.9129)
(12.2402 -3.40255e-19 7.1536)
(11.9555 4.06064e-21 7.00123)
(12.698 4.18877e-19 7.49286)
(12.9091 -4.27514e-19 7.6108)
(12.9202 -7.54771e-19 7.41728)
(13.0621 2.82566e-19 7.66654)
(13.1315 -3.82715e-19 7.5307)
(13.143 4.19442e-21 7.66318)
(13.2967 6.45857e-19 7.59149)
(13.1458 -3.33131e-19 7.60773)
(13.3961 -3.20178e-19 7.60084)
(13.0716 2.39115e-19 7.51095)
(13.4258 0 7.56395)
(12.9293 -2.78805e-20 7.38627)
(13.3887 5.27079e-19 7.48951)
(12.7348 -3.38003e-19 7.24783)
(13.2922 -5.39652e-19 7.38817)
(13.1493 -4.10466e-21 7.27127)
(13.155 -7.15984e-19 7.33267)
(13.3745 -2.91527e-20 7.45304)
(13.5535 3.33196e-19 7.5286)
(13.681 1.47473e-20 7.55864)
(13.7928 -3.1285e-19 7.44488)
(13.7508 2.84187e-19 7.54589)
(13.9381 0 7.48298)
(13.7622 2.54512e-20 7.49606)
(14.0341 2.56771e-19 7.48244)
(13.7199 -2.0858e-19 7.41692)
(14.0798 -3.0073e-19 7.44744)
(14.0785 1.19551e-19 7.38397)
(14.0523 -3.3446e-19 7.36791)
(14.2261 -3.35763e-20 7.41999)
(14.3585 -6.57487e-20 7.43587)
(14.4823 -1.79554e-20 7.32624)
(14.4474 2.67832e-20 7.41781)
(14.6389 -1.78127e-21 7.3489)
(14.7583 3.45818e-21 7.33962)
(14.7665 4.74215e-20 7.23871)
(14.9553 -2.59399e-20 7.27154)
(15.2266 -5.83989e-20 7.15947)
)
;

boundaryField
{
    inlet
    {
        type            calculated;
        value           nonuniform 0();
    }
    outlet
    {
        type            calculated;
        value           nonuniform 0();
    }
    flap
    {
        type            calculated;
        value           nonuniform List<vector> 
33
(
(-5.72063e-16 0 -5.41131e-15)
(-3.01903e-15 0 -1.31866e-14)
(3.49287e-16 -2.77556e-14 1.04395e-15)
(-9.76028e-15 0 -2.37434e-14)
(0 0 0)
(-2.47818e-14 -2.77556e-14 -5.01197e-14)
(-2.5379e-14 0 -4.96298e-14)
(-5.82041e-15 -2.77556e-14 -1.12992e-14)
(-4.50004e-14 -1.36208e-31 -8.80143e-14)
(-5.63875e-15 -2.77556e-14 -1.11674e-14)
(0 0 0)
(0 0 0)
(-9.63286e-14 0 -2.02641e-13)
(0 -2.77556e-14 0)
(-9.90774e-15 -2.77556e-14 -2.12562e-14)
(0 0 0)
(0 0 0)
(0 0 0)
(-4.2759e-16 -2.77556e-14 -4.14168e-15)
(-3.79554e-15 0 -1.62349e-14)
(-9.84489e-15 0 -2.91191e-14)
(-1.17988e-14 0 -2.86129e-14)
(-2.60642e-14 -2.77556e-14 -5.62942e-14)
(-2.20736e-14 -6.71691e-32 -4.4582e-14)
(-2.82599e-14 -1.531e-33 -5.52532e-14)
(0 -2.77556e-14 0)
(-5.08118e-14 0 -9.92142e-14)
(6.64082e-32 -2.77556e-14 -3.35696e-32)
(0 0 0)
(-1.06317e-14 0 -2.18437e-14)
(5.3322e-14 2.77556e-14 1.12064e-13)
(0 0 0)
(-4.25656e-14 -1.27155e-31 -9.11434e-14)
)
;
    }
    upperWall
    {
        type            calculated;
        value           nonuniform 0();
    }
    lowerWall
    {
        type            calculated;
        value           uniform (0 0 0);
    }
    frontAndBack
    {
        type            empty;
        value           nonuniform 0();
    }
    procBoundary4to1
    {
        type            processor;
        value           nonuniform List<vector> 
30
(
(9.39423 1.51643e-18 4.63721)
(9.54406 9.91951e-19 4.85465)
(9.70213 4.75066e-19 5.04127)
(9.78514 7.3626e-19 5.47087)
(9.9959 1.19274e-18 5.64727)
(10.2032 1.47203e-18 5.78601)
(10.3654 5.06305e-19 6.19337)
(10.6186 9.70559e-19 6.29654)
(10.8536 4.58262e-19 6.36698)
(11.0753 4.60048e-21 6.71305)
(11.3361 -8.57394e-21 6.73637)
(11.5712 -6.4936e-19 6.74218)
(11.8451 3.93143e-19 7.02281)
(12.0026 3.00417e-19 7.15386)
(12.1987 -1.36699e-18 7.04662)
(12.3669 -7.26221e-19 6.94025)
(12.4871 -7.54758e-20 7.05146)
(12.7026 4.21144e-19 7.2543)
(12.9092 -7.49643e-19 7.17132)
(13.1248 -4.22687e-19 7.09459)
(13.372 -3.46289e-19 7.2482)
(13.6015 -1.36895e-20 7.36628)
(13.8428 -6.69829e-19 7.27952)
(14.0695 -3.3589e-19 7.18126)
(14.2908 -4.40099e-21 7.27022)
(14.5492 1.19351e-20 7.17442)
(14.7829 -2.37007e-19 7.05958)
(15.0165 2.80873e-19 7.12422)
(15.2905 2.54832e-19 7.01059)
(15.5295 1.64574e-20 6.87481)
)
;
    }
    procBoundary4to2
    {
        type            processor;
        value           nonuniform List<vector> 
11
(
(3.83903 1.9003e-19 5.25947)
(5.08523 -7.81489e-20 5.4311)
(6.45636 0 5.64055)
(7.97922 1.63526e-19 5.94966)
(9.58462 -1.27617e-19 6.35079)
(11.1359 -1.7321e-19 6.7667)
(12.5085 -6.30428e-20 7.1086)
(13.6333 -4.65048e-20 7.31708)
(14.4943 5.99496e-20 7.36974)
(15.1126 -2.64793e-19 7.273)
(15.5281 2.05002e-19 7.05093)
)
;
    }
    procBoundary4to3
    {
        type            processor;
        value           nonuniform List<vector> 