/*--------------------------------*- C++ -*----------------------------------*\
| =========                 |                                                 |
| \\      /  F ield         | OpenFOAM: The Open Source CFD Toolbox           |
|  \\    /   O peration     | Version:  dev                                   |
|   \\  /    A nd           | Web:      www.OpenFOAM.org                      |
|    \\/     M anipulation  |                                                 |
\*---------------------------------------------------------------------------*/
FoamFile
{
    version     2.0;
    format      ascii;
    class       surfaceScalarField;
    location    "1.3";
    object      meshPhi;
}
// * * * * * * * * * * * * * * * * * * * * * * * * * * * * * * * * * * * * * //

dimensions      [0 3 -1 0 0 0 0];

internalField   nonuniform List<scalar> 
882
(
5.32325e-05
-0.000106946
5.3485e-05
-8.62668e-05
4.46746e-05
3.54151e-05
-0.000102898
5.18818e-05
-8.16047e-05
4.26415e-05
-5.91882e-05
3.33012e-05
-3.66189e-05
2.44003e-05
1.60784e-05
-9.46811e-05
4.84551e-05
-7.28624e-05
3.91637e-05
-5.06337e-05
2.98771e-05
-2.8623e-05
2.10996e-05
-7.60282e-06
1.29904e-05
1.15604e-05
5.70867e-06
-6.64437e-07
-8.2383e-05
4.31561e-05
-6.06932e-05
3.40892e-05
-3.875e-05
2.50658e-05
-1.71063e-05
1.65548e-05
3.56975e-06
8.6773e-06
2.2738e-05
1.54485e-06
4.00908e-05
-4.78743e-06
5.55871e-05
-1.03427e-05
-1.5075e-05
6.81006e-05
-6.57534e-05
3.59597e-05
-4.46469e-05
2.73285e-05
-2.33055e-05
1.87359e-05
-2.2345e-06
1.06111e-05
1.80272e-05
3.06723e-06
3.70729e-05
-3.81705e-06
5.47413e-05
-1.00203e-05
7.10433e-05
-1.55644e-05
-2.03365e-05
8.45034e-05
-4.45884e-05
2.68898e-05
-2.43679e-05
1.88377e-05
-3.86991e-06
1.08111e-05
1.64218e-05
3.19515e-06
3.60813e-05
-3.91143e-06
5.4826e-05
-1.04579e-05
7.25313e-05
-1.64327e-05
8.91601e-05
-2.1847e-05
-2.65492e-05
0.000103014
-1.87596e-05
1.60328e-05
3.83003e-07
8.64934e-06
1.98381e-05
1.30516e-06
3.91877e-05
-5.69989e-06
5.81159e-05
-1.22906e-05
7.64071e-05
-1.84245e-05
9.39446e-05
-2.40848e-05
0.00011066
-2.92704e-05
-3.38002e-05
0.000124745
1.17293e-05
3.50657e-06
2.96582e-05
-3.10807e-06
4.79553e-05
-9.68089e-06
6.62974e-05
-1.60141e-05
8.44303e-05
-2.20386e-05
0.000102166
-2.77056e-05
0.000119388
-3.29883e-05
0.000136006
-3.78724e-05
-4.21536e-05
0.000150143
4.6701e-05
-1.05027e-05
6.33516e-05
-1.62038e-05
8.04941e-05
-2.19568e-05
9.7847e-05
-2.75957e-05
0.000115178
-3.3032e-05
0.000132314
-3.82042e-05
0.000149133
-4.30731e-05
0.00016553
-4.76117e-05
-5.15966e-05
0.000179586
8.57491e-05
-2.54163e-05
0.000101214
-3.0236e-05
0.000117309
-3.52083e-05
0.000133756
-4.01764e-05
0.000150336
-4.50357e-05
0.000166881
-4.97131e-05
0.000183267
-5.41581e-05
0.000199375
-5.83324e-05
-6.19966e-05
0.000213265
0.000114757
-3.67794e-05
0.000128324
-4.06207e-05
0.000142856
-4.47202e-05
0.000158085
-4.90151e-05
0.000173764
-5.33755e-05
0.000189688
-5.76977e-05
0.000205695
-6.19034e-05
0.000221658
-6.59345e-05
0.00023745
-6.97439e-05
-7.30799e-05
0.000251124
0.000161025
-5.24232e-05
0.000173952
-5.56793e-05
0.00018781
-5.9168e-05
0.00020238
-6.28874e-05
0.000217449
-6.67175e-05
0.000232834
-7.05583e-05
0.000248378
-7.43299e-05
0.000263953
-7.79696e-05
0.000279426
-8.14241e-05
-8.44337e-05
0.000292852
0.000209666
-6.72247e-05
0.000222151
-7.00267e-05
0.000235541
-7.3024e-05
0.000249639
-7.62685e-05
0.000264254
-7.96487e-05
0.000279215
-8.30688e-05
0.000294374
-8.64494e-05
0.000309602
-8.97254e-05
0.000324757
-9.28397e-05
-9.55298e-05
0.000337911
0.00026007
-8.06036e-05
0.000272317
-8.30721e-05
0.000285424
-8.56907e-05
0.000299214
-8.85544e-05
0.000313509
-9.15605e-05
0.000328149
-9.46182e-05
0.000342989
-9.76499e-05
0.000357897
-0.00010059
0.00037273
-0.00010338
-0.000105759
0.000385583
0.000311586
-9.19811e-05
0.000323782
-9.42181e-05
0.00033677
-9.65549e-05
0.000350388
-9.91192e-05
0.000364471
-0.000101817
0.000378866
-0.000104563
0.000393431
-0.000107284
0.000408033
-0.000109913
0.000422524
-0.000112393
-0.000114474
0.00043504
0.000363554
-0.000100798
0.000375857
-0.000102881
0.000388856
-0.000105012
0.000402408
-0.000107341
0.000416356
-0.000109783
0.000430555
-0.000112259
0.000444865
-0.000114699
0.000459153
-0.00011704
0.00047327
-0.000119224
-0.000121019
0.000485402
0.000415319
-0.00010653
0.00042785
-0.000108509
0.00044096
-0.000110488
0.000454519
-0.000112628
0.000468381
-0.000114851
0.000482406
-0.000117087
0.000496459
-0.000119269
0.000510408
-0.00012134
0.000524105
-0.000123244
-0.00012477
0.000535799
0.000466245
-0.000108699
0.000479092
-0.0001106
0.00049238
-0.000112455
0.000505991
-0.00011443
0.000519791
-0.000116458
0.000533646
-0.000118472
0.000547425
-0.000120415
0.000560998
-0.000122231
0.000574223
-0.00012387
-0.000125148
0.000585426
0.000515726
-0.000106889
0.000528946
-0.000108707
0.000542456
-0.000110444
0.000556147
-0.000112262
0.000569893
-0.000114102
0.00058357
-0.000115904
0.000597051
-0.000117617
0.000610211
-0.000119192
0.000622914
-0.000120584
-0.000121637
0.000633579
0.000563189
-0.000100746
0.000576822
-0.000102454
0.000590581
-0.000104058
0.000604368
-0.000105708
0.000618066
-0.000107351
0.000631557
-0.000108939
0.000644723
-0.000110426
0.000657445
-0.000111771
0.000669594
-0.000112933
-0.000113786
0.000679689
0.000608093
-8.99963e-05
0.000622167
-9.15439e-05
0.0006362
-9.29769e-05
0.000650103
-9.44276e-05
0.000663767
-9.58537e-05
0.000677082
-9.72139e-05
0.000689936
-9.847e-05
0.000702219
-9.95873e-05
0.000713813
-0.000100533
-0.00010121
0.000723335
0.000649906
-7.4451e-05
0.000664449
-7.57655e-05
0.000678789
-7.69697e-05
0.000692844
-7.81735e-05
0.000706513
-7.93437e-05
0.000719691
-8.04478e-05
0.000732275
-8.14558e-05
0.000744162
-8.23407e-05
0.000755244
-8.30773e-05
-8.35939e-05
0.000764236
0.000688061
-5.40297e-05
0.00070311
-5.50169e-05
0.000717809
-5.59138e-05
0.000732082
-5.68022e-05
0.000745831
-5.7659e-05
0.00075896
-5.8461e-05
0.00077137
-5.91872e-05
0.000782964
-5.98189e-05
0.000793645
-6.03387e-05
-6.06989e-05
0.000802208
0.000721873
-2.88093e-05
0.000737467
-2.93545e-05
0.000752599
-2.98455e-05
0.000767193
-3.03294e-05
0.000781151
-3.07939e-05
0.000794378
-3.12267e-05
0.000806779
-3.16168e-05
0.00081826
-3.19544e-05
0.000828731
-3.22305e-05
-3.24203e-05
0.000837039
0.000749208
0.000765316
0.000780904
0.000795886
0.000810161
0.000823631
0.0008362
0.000847776
0.000858269
0.000866547
-8.93606e-06
9.34233e-05
-1.16194e-05
9.96553e-05
-1.31017e-05
-1.41561e-05
0.000106394
0.000112405
-1.47226e-05
0.000119326
-1.62477e-05
-1.73745e-05
0.000127034
0.000134379
-1.83006e-05
0.000141576
-1.98386e-05
-2.10015e-05
0.000149752
0.000159878
-2.23944e-05
0.000167187
-2.39206e-05
-2.50776e-05
0.000175568
0.000189301
-2.70083e-05
0.000196565
-2.85054e-05
-2.96197e-05
0.000204868
0.00022287
-3.20848e-05
0.000229957
-3.35426e-05
-3.45844e-05
0.000237934
0.000260556
-3.74929e-05
0.000267366
-3.89061e-05
-3.98543e-05
0.00027482
0.000302066
-4.30298e-05
0.00030853
-4.43967e-05
-4.52388e-05
0.000315322
0.000346871
-4.84338e-05
0.000352946
-4.97541e-05
-5.04855e-05
0.000358994
0.000394258
-5.34031e-05
0.000399921
-5.46764e-05
-5.52986e-05
0.000405195
0.000443397
-5.76162e-05
0.00044864
-5.8841e-05
-5.93604e-05
0.000453149
0.000493408
-6.07508e-05
0.000498231
-6.19238e-05
-6.23495e-05
0.000502012
0.000543421
-6.24991e-05
0.000547831
-6.36143e-05
-6.3957e-05
0.00055094
0.000592631
-6.25778e-05
0.000596639
-6.36263e-05
-6.38975e-05
0.000599142
0.000640342
-6.07345e-05
0.000643963
-6.17039e-05
-6.19147e-05
0.000645931
0.000685996
-5.67488e-05
0.000689252
-5.76231e-05
-5.77838e-05
0.000690759
0.000729194
-5.04323e-05
0.000732115
-5.11913e-05
-5.1311e-05
0.000733235
0.000769681
-4.16284e-05
0.00077231
-4.22469e-05
-4.2333e-05
0.00077312
0.000807316
-3.02155e-05
0.000809714
-3.06629e-05
-3.07206e-05
0.000810292
0.000841937
-1.61354e-05
0.000844196
-1.6375e-05
-1.64057e-05
0.000844634
0.000871392
0.000873617
0.000874002
-3.25036e-05
0.000137467
-3.93029e-05
0.000149649
-4.44039e-05
0.000162744
-5.04087e-05
-5.69808e-05
0.000161002
-4.67878e-05
0.000174244
-5.22037e-05
0.000188249
-5.85085e-05
0.000203133
-6.53761e-05
0.000218826
-7.28837e-05
-8.09912e-05
0.000187121
-5.50614e-05
0.000200706
-6.06409e-05
0.000214927
-6.70913e-05
0.000229916
-7.40449e-05
0.000245702
-8.15308e-05
0.000262101
-8.95891e-05
0.000278885
-9.82326e-05
-0.000107316
0.000216314
-6.4164e-05
0.000229783
-6.97586e-05
0.000243815
-7.61951e-05
0.000258407
-8.3095e-05
0.000273552
-9.04654e-05
0.000289246
-9.83128e-05
0.000305341
-0.000106614
0.000321411
-0.000115326
-0.000123952
0.000248886
-7.40278e-05
0.000261803
-7.951e-05
0.000275232
-8.57968e-05
0.000289106
-9.25166e-05
0.000303385
-9.96593e-05
0.000317988
-0.000107216
0.000332761
-0.00011516
0.000347518
-0.000123432
-0.00013161
0.000284955
-8.44443e-05
0.000296947
-8.97177e-05
0.000309419
-9.57501e-05
0.000322259
-0.000102188
0.000335399
-0.000109009
0.000348731
-0.000116197
0.000362103
-0.000123718
0.000375313
-0.000131518
-0.000139194
0.000324405
-9.50587e-05
0.000335188
-0.000100062
0.000346418
-0.00010577
0.000357957
-0.000111853
0.000369716
-0.000118283
0.000381576
-0.000125039
0.000393379
-0.000132087
0.000404952
-0.000139377
-0.000146494
0.000366882
-0.000105389
0.000376269
-0.000110093
0.000386057
-0.000115439
0.000396093
-0.000121125
0.00040628
-0.000127119
0.000416492
-0.000133399
0.000426576
-0.000139932
0.000436366
-0.000146672
-0.000153185
0.000411828
-0.000114857
0.000419723
-0.000119257
0.000427953
-0.000124232
0.000436358
-0.000129504
0.000444838
-0.000135041
0.000453271
-0.000140821
0.000461508
-0.000146814
0.000469375
-0.000152973
-0.000158854
0.000458536
-0.000122834
0.000464923
-0.00012694
0.000471557
-0.000131552
0.000478273
-0.000136414
0.000484977
-0.000141491
0.000491551
-0.000146766
0.000497852
-0.00015221
0.000503713
-0.000157781
-0.000163021
0.000506215
-0.000128671
0.000511141
-0.000132499
0.000516203
-0.000136765
0.000521238
-0.000141228
0.000526158
-0.000145857
0.000530852
-0.000150635
0.000535188
-0.000155538
0.000539009
-0.000160527
-0.000165138
0.000554054
-0.000131739
0.000557612
-0.0001353
0.000561179
-0.000139234
0.000564592
-0.000143313
0.000567772
-0.000147507
0.000570619
-0.000151803
0.000573012
-0.000156177
0.000574807
-0.000160599
-0.000164606
0.000601283
-0.000131448
0.000603596
-0.000134741
0.000605779
-0.000138347
0.00060767
-0.000142051
0.000609199
-0.000145821
0.000610275
-0.000149646
0.000610789
-0.000153508
0.000610614
-0.00015738
-0.000160811
0.000647227
-0.000127263
0.000648436
-0.000130272
0.000649368
-0.00013354
0.000649864
-0.000136861
0.00064986
-0.000140207
0.000649274
-0.000143568
0.000648007
-0.000146929
0.000645947
-0.000150265
-0.000153156
0.00069134
-0.000118712
0.000691594
-0.000121401
0.000691422
-0.000124299
0.000690668
-0.000127217
0.000689272
-0.000130126
0.000687159
-0.000133017
0.000684236
-0.000135879
0.000680405
-0.000138689
-0.000141068
0.000733228
-0.000105384
0.000732677
-0.000107699
0.000731557
-0.000110178
0.00072971
-0.000112651
0.000727079
-0.000115093
0.000723594
-0.000117496
0.000719167
-0.000119848
0.000713705
-0.000122132
-0.000124027
0.000772649
-8.69324e-05
0.000771443
-8.88012e-05
0.00076953
-9.07923e-05
0.000766755
-9.2763e-05
0.000763061
-9.46922e-05
0.00075838
-9.65728e-05
0.000752631
-9.83958e-05
0.000745724
-0.000100144
-0.000101559
0.000809476
-6.30825e-05
0.000807762
-6.44194e-05
0.000805214
-6.58376e-05
0.000801679
-6.72323e-05
0.0007971
-6.85877e-05
0.00079141
-6.98982e-05
0.000784534
-7.11574e-05
0.00077639
-7.2354e-05
-7.32821e-05
0.00084359
-3.36874e-05
0.00084151
-3.43957e-05
0.000838488
-3.51443e-05
0.000834368
-3.58771e-05
0.000829093
-3.65854e-05
0.000822594
-3.72659e-05
0.000814796
-3.79146e-05
0.000805623
-3.85256e-05
-3.89852e-05
0.000872837
0.000870537
0.000867219
0.000862725
0.000856993
0.000849955
0.000841535
0.000831662
)
;

boundaryField
{
    inlet
    {
        type            calculated;
        value           nonuniform 0();
    }
    outlet
    {
        type            calculated;
        value           nonuniform 0();
    }
    flap
    {
        type            calculated;
        value           nonuniform 0();
    }
    upperWall
    {
        type            calculated;
        value           nonuniform List<scalar> 
22
(
0
0
0
0
0
0
0
0
0
0
0
2.96412e-15
0
0
0
-6.25957e-15
0
0
0
0
0
0
)
;
    }
    lowerWall
    {
        type            calculated;
        value           nonuniform 0();
    }
    frontAndBack
    {
        type            empty;
        value           nonuniform 0();
    }
    procBoundary1to0
    {
        type            processor;
        value           nonuniform List<scalar> 
18
(
-3.10248e-05
-7.12454e-05
2.08663e-05
-0.000101922
-0.000148739
-0.000197657
-0.000248116
-0.000299495
-0.00035117
-0.000402523
-0.000452953
-0.000501882
-0.000548762
-0.000593061
-0.000634252
-0.00067176
-0.000704892
-0.000731599
)
;
    }
    procBoundary1to2
    {
        type            processor;
        value           nonuniform List<scalar> 
17
(
0.000335198
0.000360336
0.000386691
0.000414664
0.000444209
0.000475189
0.000507412
0.000540565
0.000574235
0.00060797
0.000641326
0.000673923
0.000705521
0.000736013
0.000765355
0.000793505
0.000818789
)
;
    }
    procBoundary1to3
    {
        type            processor;
        value           nonuniform List<scalar> 9(0.000120297 0.000123333 0.000120964 0.000113804 0.00010177 8.48482e-05 6.3039e-05 3.63977e-05 5.01668e-06);
    }
    procBoundary1to4
    {
        type            processor;
        value           nonuniform List<scalar> 
30
(
-5.03144e-05
-0.000105286
-4.48117e-05
-3.53878e-05
-6.33803e-05
-2.62022e-05
-1.74438e-05
-1.5174e-05
-8.5681e-06
-2.14441e-06
2.82138e-05
6.10667e-06
1.0571e-05
6.51268e-06
7.60588e-05
1.02996e-05
1.11792e-05
2.59403e-05
0.00011531
3.70209e-05
4.23558e-05
4.82222e-05
0.00017671
6.41035e-05
7.17125e-05
0.000234995
8.95785e-05
9.85143e-05
0.000295528
0.000116157
)
;
    }
}


// ************************************************************************* //
