/*--------------------------------*- C++ -*----------------------------------*\
| =========                 |                                                 |
| \\      /  F ield         | OpenFOAM: The Open Source CFD Toolbox           |
|  \\    /   O peration     | Version:  dev                                   |
|   \\  /    A nd           | Web:      www.OpenFOAM.org                      |
|    \\/     M anipulation  |                                                 |
\*---------------------------------------------------------------------------*/
FoamFile
{
    version     2.0;
    format      ascii;
    class       volScalarField;
    location    "3.39";
    object      p;
}
// * * * * * * * * * * * * * * * * * * * * * * * * * * * * * * * * * * * * * //

dimensions      [0 2 -2 0 0 0 0];

internalField   nonuniform List<scalar> 
465
(
136.618
136.737
135.953
136.064
136.283
135.25
135.352
135.549
135.781
134.509
134.602
134.776
134.973
135.193
133.732
133.815
133.966
134.127
134.299
134.496
132.921
132.994
133.122
133.246
133.37
133.507
133.653
132.079
132.141
132.246
132.333
132.408
132.486
132.562
132.622
132.651
131.207
131.26
131.34
131.391
131.418
131.438
131.445
131.425
131.365
131.252
130.309
130.353
130.41
130.424
130.404
130.367
130.306
130.21
130.064
129.855
129.568
129.187
129.39
129.423
129.458
129.437
129.371
129.278
129.152
128.982
128.753
128.454
128.07
127.585
126.981
126.239
128.452
128.476
128.488
128.433
128.323
128.177
127.989
127.748
127.442
127.057
126.582
126.002
125.3
124.457
123.455
127.501
127.516
127.507
127.419
127.267
127.069
126.823
126.516
126.136
125.673
125.115
124.448
123.658
122.728
121.641
120.38
118.926
126.541
126.548
126.518
126.399
126.207
125.961
125.66
125.291
124.844
124.309
123.676
122.932
122.065
121.06
119.903
118.579
117.073
115.371
113.459
125.578
125.576
125.527
125.379
125.149
124.859
124.506
124.081
123.572
122.973
122.273
121.461
120.528
119.46
118.246
116.874
115.332
113.61
111.697
109.587
107.274
124.617
124.607
124.54
124.364
124.1
123.769
123.369
122.892
122.329
121.671
120.912
120.043
119.053
117.933
116.675
115.268
113.703
111.974
110.074
107.998
105.745
123.663
123.646
123.562
123.362
123.066
122.697
122.255
121.732
121.119
120.411
119.601
118.682
117.646
116.485
115.193
113.762
112.186
110.46
108.582
106.548
122.724
122.7
122.601
122.378
122.053
121.651
121.171
120.606
119.95
119.198
118.345
117.385
116.311
115.119
113.803
112.358
110.779
109.066
107.215
105.228
121.805
121.776
121.662
121.419
121.068
120.636
120.122
119.521
118.828
118.039
117.15
116.156
115.053
113.838
112.506
111.054
109.481
107.786
105.968
104.03
120.914
120.879
120.753
120.491
120.118
119.658
119.116
118.484
117.759
116.939
116.02
114.999
113.874
112.643
111.302
109.851
108.288
106.616
104.834
102.947
120.057
120.016
119.879
119.602
119.208
118.726
118.158
117.5
116.749
115.902
114.959
113.918
112.778
111.536
110.192
108.746
107.199
105.552
103.807
101.97
119.24
119.196
119.049
118.757
118.347
117.845
117.255
116.575
115.802
114.934
113.973
112.917
111.766
110.519
109.176
107.739
106.21
104.59
102.883
101.093
118.473
118.424
118.269
117.965
117.54
117.021
116.414
115.715
114.924
114.04
113.065
111.998
110.84
109.592
108.255
106.83
105.319
103.727
102.057
100.312
117.762
117.709
117.546
117.232
116.794
116.261
115.639
114.926
114.121
113.225
112.239
111.165
110.004
108.758
107.427
106.016
104.526
102.96
101.324
99.6223
117.115
117.059
116.889
116.565
116.117
115.573
114.939
114.213
113.397
112.492
111.5
110.422
109.26
108.017
106.696
105.298
103.828
102.288
100.684
99.0207
116.54
116.481
116.304
115.973
115.515
114.961
114.318
113.583
112.759
111.847
110.85
109.77
108.61
107.372
106.06
104.676
103.224
101.708
100.134
98.504
116.046
115.984
115.8
115.461
114.996
114.435
113.783
113.042
112.212
111.295
110.295
109.215
108.058
106.826
105.523
104.152
102.717
101.223
99.6735
98.0736
115.643
115.576
115.384
115.037
114.566
113.997
113.34
112.593
111.758
110.839
109.838
108.759
107.604
106.378
105.083
103.724
102.304
100.828
99.3
97.7248
115.342
115.266
115.065
114.712
114.236
113.663
113.001
112.25
111.412
110.491
109.49
108.411
107.26
106.039
104.751
103.402
101.994
100.533
99.0219
97.4664
115.16
115.057
114.837
114.478
114
113.424
112.76
112.007
111.168
110.246
109.245
108.169
107.02
105.803
104.521
103.179
101.78
100.329
98.8301
97.288
115.137
114.981
114.737
114.37
113.888
113.309
112.642
111.887
111.047
110.125
109.124
108.049
106.903
105.689
104.412
103.075
101.682
100.238
98.7472
97.2142
)
;

boundaryField
{
    inlet
    {
        type            zeroGradient;
    }
    outlet
    {
        type            fixedValue;
        value           nonuniform 0();
    }
    flap
    {
        type            zeroGradient;
    }
    upperWall
    {
        type            zeroGradient;
    }
    lowerWall
    {
        type            zeroGradient;
    }
    frontAndBack
    {
        type            empty;
    }
    procBoundary0to1
    {
        type            processor;
        value           nonuniform List<scalar> 
18
(
104.757
103.317
104.36
104.36
103.107
101.976
100.958
100.043
99.2254
98.4991
97.859
97.3021
96.8248
96.4281
96.1071
95.8707
95.7073
95.6433
)
;
    }
    procBoundary0to3
    {
        type            processor;
        value           nonuniform List<scalar> 
34
(
137.238
137.366
136.977
136.977
136.55
136.55
136.049
136.049
135.449
135.449
134.712
134.712
133.793
133.793
133.915
132.637
132.637
131.069
131.069
130.8
128.693
128.693
128.064
125.336
125.336
122.272
122.272
120.887
117.259
117.259
115.363
111.325
111.325
108.959
)
;
    }
}


// ************************************************************************* //
