/*--------------------------------*- C++ -*----------------------------------*\
| =========                 |                                                 |
| \\      /  F ield         | OpenFOAM: The Open Source CFD Toolbox           |
|  \\    /   O peration     | Version:  dev                                   |
|   \\  /    A nd           | Web:      www.OpenFOAM.org                      |
|    \\/     M anipulation  |                                                 |
\*---------------------------------------------------------------------------*/
FoamFile
{
    version     2.0;
    format      ascii;
    class       volVectorField;
    location    "3";
    object      cellDisplacement;
}
// * * * * * * * * * * * * * * * * * * * * * * * * * * * * * * * * * * * * * //

dimensions      [0 1 0 0 0 0 0];

internalField   nonuniform List<vector> 
465
(
(0.188133 0 -0.0275733)
(0.183962 0 -0.026655)
(0.189709 0 -0.027356)
(0.18556 0 -0.0265289)
(0.181295 0 -0.0256302)
(0.176884 0 -0.0246707)
(0.190721 0 -0.0270442)
(0.186649 0 -0.026306)
(0.182414 0 -0.0254867)
(0.177993 0 -0.0245973)
(0.173354 0 -0.023647)
(0.191224 0 -0.0266553)
(0.187265 0 -0.0260003)
(0.183099 0 -0.0252574)
(0.178708 0 -0.024437)
(0.174064 0 -0.0235479)
(0.169127 0 -0.0225971)
(0.163849 0 -0.0215909)
(0.191268 0 -0.026204)
(0.187445 0 -0.0256245)
(0.183375 0 -0.0249529)
(0.179043 0 -0.0241987)
(0.174427 0 -0.02337)
(0.169492 0 -0.0224735)
(0.164194 0 -0.0215151)
(0.158482 0 -0.0204991)
(0.152297 0 -0.019429)
(0.190904 0 -0.0257019)
(0.187227 0 -0.0251892)
(0.183269 0 -0.0245828)
(0.179018 0 -0.0238905)
(0.174455 0 -0.0231196)
(0.169547 0 -0.0222763)
(0.164255 0 -0.0213659)
(0.158532 0 -0.0203926)
(0.152323 0 -0.0193594)
(0.145567 0 -0.0182685)
(0.190175 0 -0.0251577)
(0.186646 0 -0.0247031)
(0.18281 0 -0.0241548)
(0.178654 0 -0.0235193)
(0.17416 0 -0.0228028)
(0.169298 0 -0.0220106)
(0.164033 0 -0.0211474)
(0.158321 0 -0.0202169)
(0.152109 0 -0.0192218)
(0.145338 0 -0.0181636)
(0.137938 0 -0.0170421)
(0.12984 0 -0.0158568)
(0.189122 0 -0.0245775)
(0.185739 0 -0.0241724)
(0.182027 0 -0.0236753)
(0.177973 0 -0.0230912)
(0.17356 0 -0.022425)
(0.168759 0 -0.0216812)
(0.163538 0 -0.0208635)
(0.157853 0 -0.0199752)
(0.151656 0 -0.0190186)
(0.144891 0 -0.017995)
(0.137493 0 -0.0169042)
(0.129394 0 -0.0157453)
(0.120517 0 -0.014516)
(0.187783 0 -0.0239653)
(0.184538 0 -0.0236017)
(0.180948 0 -0.023149)
(0.177 0 -0.0226107)
(0.172674 0 -0.0219905)
(0.167944 0 -0.0212918)
(0.162778 0 -0.0205177)
(0.157136 0 -0.0196707)
(0.15097 0 -0.0187526)
(0.144228 0 -0.0177643)
(0.136848 0 -0.0167058)
(0.128762 0 -0.0155757)
(0.119898 0 -0.0143715)
(0.110172 0 -0.0130884)
(0.0995014 0 -0.0117211)
(0.186191 0 -0.0233227)
(0.183074 0 -0.0229936)
(0.179601 0 -0.022579)
(0.175757 0 -0.0220813)
(0.171523 0 -0.0215028)
(0.16687 0 -0.0208459)
(0.161769 0 -0.020113)
(0.15618 0 -0.0193059)
(0.150058 0 -0.0184258)
(0.143352 0 -0.0174734)
(0.136004 0 -0.0164484)
(0.127949 0 -0.0153492)
(0.119116 0 -0.0141734)
(0.109426 0 -0.0129166)
(0.0987985 0 -0.0115733)
(0.0871442 0 -0.0101363)
(0.184375 0 -0.0226499)
(0.181376 0 -0.0223493)
(0.178013 0 -0.0219673)
(0.174271 0 -0.0215051)
(0.170127 0 -0.0209641)
(0.165556 0 -0.0203458)
(0.160525 0 -0.0196517)
(0.154998 0 -0.0188829)
(0.14893 0 -0.0180403)
(0.142273 0 -0.017124)
(0.134969 0 -0.0161334)
(0.126958 0 -0.0150671)
(0.118171 0 -0.0139222)
(0.108532 0 -0.0126949)
(0.0979621 0 -0.0113797)
(0.0863733 0 -0.00996928)
(0.0736685 0 -0.00845418)
(0.0597548 0 -0.00682395)
(0.182364 0 -0.0219455)
(0.179471 0 -0.0216684)
(0.176211 0 -0.0213143)
(0.172565 0 -0.0208833)
(0.168511 0 -0.020376)
(0.164021 0 -0.0197931)
(0.159065 0 -0.0191354)
(0.153606 0 -0.0184034)
(0.1476 0 -0.0175974)
(0.141001 0 -0.0167173)
(0.133753 0 -0.0157621)
(0.125798 0 -0.0147301)
(0.117069 0 -0.0136188)
(0.107495 0 -0.0124241)
(0.0969976 0 -0.0111409)
(0.0854933 0 -0.00976235)
(0.0728914 0 -0.0082797)
(0.0590984 0 -0.00668275)
(0.0440146 0 -0.00495919)
(0.180185 0 -0.0212074)
(0.177387 0 -0.0209497)
(0.174221 0 -0.0206193)
(0.170665 0 -0.0202158)
(0.166697 0 -0.0197388)
(0.162289 0 -0.0191886)
(0.157409 0 -0.018565)
(0.152021 0 -0.0178683)
(0.146083 0 -0.0170983)
(0.139549 0 -0.0162542)
(0.132367 0 -0.0153352)
(0.124478 0 -0.0143393)
(0.115819 0 -0.0132637)
(0.106322 0 -0.0121049)
(0.0959115 0 -0.0108576)
(0.084507 0 -0.00951559)
(0.0720223 0 -0.00807069)
(0.0583666 0 -0.00651323)
(0.0434428 0 -0.00483157)
(0.0271483 0 -0.00301196)
(0.177865 0 -0.0204323)
(0.175151 0 -0.0201906)
(0.172069 0 -0.0198807)
(0.168596 0 -0.0195015)
(0.16471 0 -0.019052)
(0.160381 0 -0.0185319)
(0.155577 0 -0.0179407)
(0.150263 0 -0.017278)
(0.144398 0 -0.0165432)
(0.137935 0 -0.0157354)
(0.130825 0 -0.0148533)
(0.123012 0 -0.0138949)
(0.114434 0 -0.0128576)
(0.105025 0 -0.0117376)
(0.0947129 0 -0.0105302)
(0.0834215 0 -0.00922932)
(0.0710682 0 -0.00782753)
(0.0575656 0 -0.00631579)
(0.0428209 0 -0.00468326)
(0.0267356 0 -0.00291722)
(0.00917526 0 -0.000999649)
(0.17543 0 -0.019616)
(0.172789 0 -0.0193879)
(0.169782 0 -0.0190958)
(0.166386 0 -0.0187382)
(0.162576 0 -0.018314)
(0.158323 0 -0.0178221)
(0.153594 0 -0.0172617)
(0.148355 0 -0.0166319)
(0.142564 0 -0.015932)
(0.136178 0 -0.0151606)
(0.129146 0 -0.0143164)
(0.121415 0 -0.0133972)
(0.112926 0 -0.0124004)
(0.103615 0 -0.0113224)
(0.0934128 0 -0.0101588)
(0.0822467 0 -0.00890379)
(0.0700378 0 -0.00755057)
(0.0567031 0 -0.00609079)
(0.0421549 0 -0.00451456)
(0.0263013 0 -0.00281041)
(0.00902055 0 -0.000962434)
(0.172906 0 -0.0187534)
(0.170328 0 -0.018537)
(0.167388 0 -0.0182608)
(0.164061 0 -0.017923)
(0.160322 0 -0.0175222)
(0.156141 0 -0.017057)
(0.151486 0 -0.0165263)
(0.14632 0 -0.0159289)
(0.140606 0 -0.0152637)
(0.134298 0 -0.0145293)
(0.127349 0 -0.013724)
(0.119706 0 -0.0128459)
(0.111313 0 -0.0118921)
(0.102108 0 -0.0108594)
(0.0920249 0 -0.00974345)
(0.0809944 0 -0.00853909)
(0.0689415 0 -0.00723994)
(0.0557878 0 -0.00583843)
(0.0414508 0 -0.00432561)
(0.0258453 0 -0.00269122)
(0.00885953 0 -0.000921112)
(0.17032 0 -0.0178383)
(0.167797 0 -0.0176324)
(0.164916 0 -0.0173709)
(0.161651 0 -0.0170516)
(0.157977 0 -0.0166731)
(0.153863 0 -0.0162336)
(0.149278 0 -0.0157319)
(0.144186 0 -0.0151667)
(0.138547 0 -0.0145365)
(0.132319 0 -0.0138398)
(0.125456 0 -0.013075)
(0.117905 0 -0.0122399)
(0.109613 0 -0.0113319)
(0.100521 0 -0.0103479)
(0.0905648 0 -0.00928384)
(0.0796786 0 -0.008135)
(0.0677914 0 -0.00689557)
(0.0548293 0 -0.00555871)
(0.0407154 0 -0.0041164)
(0.0253708 0 -0.00255954)
(0.00869259 0 -0.000875579)
(0.167702 0 -0.0168639)
(0.165225 0 -0.0166679)
(0.162395 0 -0.0164202)
(0.159186 0 -0.0161188)
(0.155571 0 -0.0157619)
(0.15152 0 -0.0153479)
(0.147002 0 -0.0148751)
(0.14198 0 -0.0143422)
(0.136416 0 -0.0137477)
(0.130269 0 -0.01309)
(0.123492 0 -0.0123674)
(0.116037 0 -0.0115777)
(0.10785 0 -0.0107186)
(0.0988744 0 -0.00978692)
(0.0890508 0 -0.00877918)
(0.0783152 0 -0.00769097)
(0.066601 0 -0.00651709)
(0.0538388 0 -0.0052514)
(0.0399568 0 -0.00388681)
(0.0248825 0 -0.00241529)
(0.00852112 0 -0.000825786)
(0.165081 0 -0.0158219)
(0.162644 0 -0.0156357)
(0.159858 0 -0.0154018)
(0.156697 0 -0.0151182)
(0.153136 0 -0.0147829)
(0.149144 0 -0.0143944)
(0.144688 0 -0.0139511)
(0.139734 0 -0.0134514)
(0.134244 0 -0.0128938)
(0.128176 0 -0.0122767)
(0.121486 0 -0.0115985)
(0.114127 0 -0.010857)
(0.106046 0 -0.0100501)
(0.097191 0 -0.00917492)
(0.0875031 0 -0.00822821)
(0.0769224 0 -0.00720605)
(0.0653859 0 -0.00610379)
(0.0528287 0 -0.00491602)
(0.0391842 0 -0.00363652)
(0.0243858 0 -0.00225828)
(0.00834699 0 -0.000771676)
(0.162491 0 -0.0147031)
(0.160087 0 -0.0145271)
(0.157339 0 -0.0143074)
(0.154222 0 -0.0140419)
(0.150708 0 -0.0137289)
(0.146769 0 -0.0133668)
(0.142372 0 -0.0129539)
(0.137482 0 -0.0124887)
(0.132062 0 -0.0119698)
(0.126072 0 -0.0113956)
(0.119468 0 -0.0107645)
(0.112204 0 -0.0100746)
(0.104231 0 -0.0093238)
(0.0954958 0 -0.0085096)
(0.0859447 0 -0.00762907)
(0.0755204 0 -0.00667874)
(0.0641634 0 -0.00565455)
(0.0518132 0 -0.00455177)
(0.0384082 0 -0.003365)
(0.0238875 0 -0.00208823)
(0.00817243 0 -0.000713158)
(0.159969 0 -0.0134965)
(0.157592 0 -0.0133317)
(0.154876 0 -0.0131271)
(0.151797 0 -0.0128809)
(0.148326 0 -0.0125913)
(0.144435 0 -0.0122569)
(0.140092 0 -0.0118761)
(0.135262 0 -0.0114476)
(0.129909 0 -0.0109698)
(0.123993 0 -0.0104413)
(0.117472 0 -0.0098607)
(0.110301 0 -0.00922624)
(0.102433 0 -0.00853603)
(0.0938168 0 -0.00778787)
(0.0844012 0 -0.0069792)
(0.0741318 0 -0.00610699)
(0.0629529 0 -0.00516776)
(0.050808 0 -0.00415745)
(0.0376405 0 -0.00307146)
(0.0233948 0 -0.00190468)
(0.00799998 0 -0.000650088)
(0.157554 0 -0.0121897)
(0.155199 0 -0.0120374)
(0.152511 0 -0.0118494)
(0.149464 0 -0.011624)
(0.146031 0 -0.0113598)
(0.142183 0 -0.0110552)
(0.137889 0 -0.010709)
(0.133115 0 -0.0103197)
(0.127824 0 -0.00988615)
(0.121978 0 -0.00940704)
(0.115535 0 -0.00888101)
(0.108454 0 -0.00830659)
(0.100686 0 -0.00768213)
(0.0921853 0 -0.00700575)
(0.0829011 0 -0.00627524)
(0.0727822 0 -0.00548807)
(0.0617763 0 -0.00464127)
(0.0498311 0 -0.00373147)
(0.0368943 0 -0.00275479)
(0.0229161 0 -0.00170701)
(0.00783247 0 -0.000582262)
(0.155293 0 -0.0107682)
(0.152956 0 -0.0106302)
(0.15029 0 -0.0104608)
(0.14727 0 -0.0102586)
(0.14387 0 -0.0100221)
(0.14006 0 -0.00975021)
(0.135809 0 -0.0094416)
(0.131085 0 -0.00909518)
(0.125851 0 -0.00870984)
(0.120069 0 -0.00828448)
(0.1137 0 -0.00781795)
(0.106702 0 -0.00730901)
(0.099029 0 -0.00675627)
(0.0906364 0 -0.00615819)
(0.0814761 0 -0.00551295)
(0.0714997 0 -0.00481847)
(0.0606579 0 -0.00407231)
(0.0489021 0 -0.00327172)
(0.0361847 0 -0.00241355)
(0.0224606 0 -0.00149437)
(0.00767311 0 -0.000509406)
(0.153235 0 -0.00921493)
(0.150912 0 -0.00909363)
(0.148265 0 -0.00894548)
(0.145268 0 -0.00876927)
(0.141895 0 -0.00856385)
(0.138117 0 -0.00832817)
(0.133904 0 -0.00806123)
(0.129223 0 -0.0077621)
(0.12404 0 -0.00742986)
(0.118316 0 -0.00706362)
(0.112012 0 -0.00666246)
(0.105089 0 -0.0062254)
(0.0975029 0 -0.00575134)
(0.0892091 0 -0.00523904)
(0.0801623 0 -0.0046871)
(0.0703164 0 -0.00409385)
(0.0596254 0 -0.00345741)
(0.0480438 0 -0.00277558)
(0.0355284 0 -0.0020459)
(0.022039 0 -0.00126568)
(0.00752549 0 -0.000431167)
(0.151438 0 -0.0075099)
(0.149126 0 -0.0074082)
(0.146493 0 -0.00728458)
(0.143514 0 -0.00713808)
(0.140163 0 -0.0069678)
(0.136413 0 -0.0067729)
(0.132231 0 -0.00655263)
(0.127587 0 -0.00630625)
(0.122446 0 -0.00603308)
(0.116771 0 -0.00573246)
(0.110525 0 -0.00540369)
(0.103667 0 -0.00504606)
(0.0961554 0 -0.00465875)
(0.0879478 0 -0.00424086)
(0.0790002 0 -0.00379134)
(0.0692688 0 -0.00330897)
(0.0587101 0 -0.00279234)
(0.047282 0 -0.00223983)
(0.0349449 0 -0.00164959)
(0.0216633 0 -0.00101962)
(0.0073938 0 -0.000347108)
(0.149968 0 -0.00562951)
(0.147663 0 -0.00555099)
(0.14504 0 -0.00545596)
(0.142075 0 -0.00534374)
(0.138741 0 -0.00521367)
(0.135011 0 -0.00506518)
(0.130855 0 -0.00489772)
(0.12624 0 -0.0047108)
(0.121132 0 -0.00450397)
(0.115497 0 -0.00427677)
(0.109297 0 -0.00402876)
(0.102491 0 -0.00375946)
(0.0950406 0 -0.00346835)
(0.0869032 0 -0.00315482)
(0.0780366 0 -0.00281817)
(0.0683989 0 -0.00245759)
(0.0579488 0 -0.00207213)
(0.0466468 0 -0.00166066)
(0.0344569 0 -0.00122195)
(0.0213481 0 -0.000754613)
(0.00728299 0 -0.000256712)
(0.148898 0 -0.0035457)
(0.146598 0 -0.00349475)
(0.143982 0 -0.00343332)
(0.141026 0 -0.00336102)
(0.137703 0 -0.00327745)
(0.133987 0 -0.00318227)
(0.129848 0 -0.00307518)
(0.125253 0 -0.00295592)
(0.12017 0 -0.00282422)
(0.114563 0 -0.00267985)
(0.108395 0 -0.00252257)
(0.101627 0 -0.00235214)
(0.0942205 0 -0.00216826)
(0.0861337 0 -0.00197063)
(0.0773257 0 -0.00175886)
(0.0677558 0 -0.00153248)
(0.0573844 0 -0.00129096)
(0.0461744 0 -0.00103368)
(0.0340923 0 -0.000759904)
(0.021111 0 -0.000468845)
(0.0071992 0 -0.000159381)
(0.148313 0 -0.00122553)
(0.146015 0 -0.00120752)
(0.143402 0 -0.00118587)
(0.140451 0 -0.00116043)
(0.137134 0 -0.00113109)
(0.133426 0 -0.00109775)
(0.129295 0 -0.00106029)
(0.124711 0 -0.00101864)
(0.119641 0 -0.000972729)
(0.114048 0 -0.000922481)
(0.107898 0 -0.000867829)
(0.101151 0 -0.000808699)
(0.0937671 0 -0.00074501)
(0.0857075 0 -0.000676664)
(0.076931 0 -0.000603543)
(0.0673978 0 -0.000525505)
(0.0570691 0 -0.000442379)
(0.0459089 0 -0.000353963)
(0.0338857 0 -0.000260026)
(0.0209749 0 -0.000160312)
(0.00715058 0 -5.44646e-05)
)
;

boundaryField
{
    inlet
    {
        type            cellMotion;
        value           nonuniform 0();
    }
    outlet
    {
        type            cellMotion;
        value           uniform (0 0 0);
    }
    flap
    {
        type            cellMotion;
        value           nonuniform 0();
    }
    upperWall
    {
        type            slip;
    }
    lowerWall
    {
        type            slip;
    }
    frontAndBack
    {
        type            empty;
    }
    procBoundary2to1
    {
        type            processor;
        value           nonuniform List<vector> 
17
(
(0.184903 0 -0.0221454)
(0.182629 0 -0.0213928)
(0.180227 0 -0.0206065)
(0.177722 0 -0.0197814)
(0.175139 0 -0.0189115)
(0.172504 0 -0.0179901)
(0.169844 0 -0.0170098)
(0.167189 0 -0.0159619)
(0.164572 0 -0.0148366)
(0.162027 0 -0.0136228)
(0.159595 0 -0.0123074)
(0.15732 0 -0.0108757)
(0.155252 0 -0.00931012)
(0.153448 0 -0.00759023)
(0.151973 0 -0.00569189)
(0.1509 0 -0.00358638)
(0.150314 0 -0.00123995)
)
;
    }
    procBoundary2to4
    {
        type            processor;
        value           nonuniform List<vector> 
11
(
(0.192263 0 -0.0284199)
(0.193758 0 -0.0280983)
(0.194639 0 -0.0276881)
(0.194978 0 -0.0272101)
(0.194846 0 -0.0266805)
(0.194301 0 -0.0261114)
(0.193398 0 -0.0255113)
(0.192181 0 -0.0248853)
(0.19069 0 -0.024236)
(0.188961 0 -0.023564)
(0.187024 0 -0.0228683)
)
;
    }
    procBoundary2to5
    {
        type            processor;
        value           nonuniform List<vector> 
34
(
(0.185947 0 -0.0276763)
(0.181828 0 -0.0266679)
(0.179719 0 -0.0256761)
(0.179719 0 -0.0256761)
(0.175365 0 -0.0246464)
(0.17228 0 -0.0236579)
(0.17228 0 -0.0236579)
(0.168441 0 -0.0226411)
(0.168441 0 -0.0226411)
(0.163203 0 -0.0215861)
(0.158168 0 -0.0205325)
(0.158168 0 -0.0205325)
(0.152019 0 -0.0194253)
(0.145564 0 -0.0183051)
(0.145564 0 -0.0183051)
(0.138178 0 -0.0171176)
(0.138178 0 -0.0171176)
(0.130086 0 -0.0159063)
(0.120954 0 -0.0146034)
(0.120954 0 -0.0146034)
(0.110765 0 -0.0132094)
(0.110765 0 -0.0132094)
(0.100052 0 -0.0118202)
(0.0877832 0 -0.0102605)
(0.0877832 0 -0.0102605)
(0.0743482 0 -0.00859363)
(0.0743482 0 -0.00859363)
(0.0603129 0 -0.00693407)
(0.0445139 0 -0.00506368)
(0.0445139 0 -0.00506368)
(0.0275119 0 -0.00309177)
(0.0275119 0 -0.00309177)
(0.00932568 0 -0.00103309)
(0.00932568 0 -0.00103309)
)
;
    }
}


// ************************************************************************* //
