/*--------------------------------*- C++ -*----------------------------------*\
| =========                 |                                                 |
| \\      /  F ield         | OpenFOAM: The Open Source CFD Toolbox           |
|  \\    /   O peration     | Version:  dev                                   |
|   \\  /    A nd           | Web:      www.OpenFOAM.org                      |
|    \\/     M anipulation  |                                                 |
\*---------------------------------------------------------------------------*/
FoamFile
{
    version     2.0;
    format      ascii;
    class       surfaceScalarField;
    location    "3";
    object      meshPhi;
}
// * * * * * * * * * * * * * * * * * * * * * * * * * * * * * * * * * * * * * //

dimensions      [0 3 -1 0 0 0 0];

internalField   nonuniform List<scalar> 
881
(
-8.91442e-05
2.12638e-05
2.64999e-05
-9.63147e-05
2.33013e-05
-0.000113431
2.84172e-05
-0.000131355
3.4001e-05
3.99019e-05
-0.000104826
2.54808e-05
-0.000121389
3.04289e-05
-0.000138759
3.57612e-05
-0.00015642
4.14182e-05
4.71945e-05
-0.000114769
2.77812e-05
-0.000130623
3.25421e-05
-0.00014714
3.76185e-05
-0.000163892
4.29459e-05
-0.000180171
4.83746e-05
-0.000194927
5.3682e-05
5.85844e-05
-0.000126079
3.0198e-05
-0.000141132
3.4754e-05
-0.000156708
3.95623e-05
-0.000172329
4.45714e-05
-0.000187455
4.9633e-05
-0.000201304
5.45575e-05
-0.000213183
5.91607e-05
-0.000222334
6.32584e-05
6.66269e-05
-0.000138717
3.27308e-05
-0.000152876
3.70662e-05
-0.000167418
4.15982e-05
-0.000181881
4.62856e-05
-0.000195726
5.09931e-05
-0.000208311
5.556e-05
-0.000219092
5.98172e-05
-0.000227421
6.35913e-05
-0.000232778
6.67371e-05
6.90839e-05
-0.000152657
3.53861e-05
-0.000165836
3.94858e-05
-0.000179263
4.37338e-05
-0.0001925
4.80978e-05
-0.000205043
5.2456e-05
-0.000216333
5.66668e-05
-0.000225822
6.05776e-05
-0.000232951
6.40312e-05
-0.000237321
6.68757e-05
-0.000238415
6.89747e-05
-0.000235558
7.0163e-05
7.02636e-05
-0.000167898
3.81767e-05
-0.000180007
4.20221e-05
-0.000192244
4.59763e-05
-0.000204195
5.00133e-05
-0.000215392
5.40231e-05
-0.000225325
5.78786e-05
-0.000233481
6.14413e-05
-0.000239359
6.45672e-05
-0.000242515
6.71128e-05
-0.000242577
6.89381e-05
-0.000239086
6.9897e-05
-0.000231842
6.98709e-05
6.87359e-05
-0.000184463
4.11137e-05
-0.000195408
4.46812e-05
-0.000206381
4.8328e-05
-0.000216988
5.20322e-05
-0.00022679
5.56921e-05
-0.000235316
5.91914e-05
-0.00024209
6.24036e-05
-0.000246652
6.51959e-05
-0.000248577
6.74335e-05
-0.000247491
6.89821e-05
-0.000243044
6.97077e-05
-0.000235075
6.94857e-05
-0.000223398
6.82083e-05
-0.00020775
6.57492e-05
6.19738e-05
-0.00020239
4.42026e-05
-0.000212067
4.74543e-05
-0.000221706
5.07791e-05
-0.000230914
5.41445e-05
-0.000239273
5.7452e-05
-0.000246346
6.05934e-05
-0.000251691
6.34522e-05
-0.000254881
6.59058e-05
-0.00025552
6.7828e-05
-0.000253255
6.9092e-05
-0.000247782
6.95717e-05
-0.000238894
6.91461e-05
-0.000226462
6.77004e-05
-0.00021033
6.51178e-05
-0.000190511
6.13005e-05
5.61461e-05
-0.000221628
4.73252e-05
-0.000229996
5.02882e-05
-0.000238258
5.32979e-05
-0.000246024
5.63257e-05
-0.000252897
5.928e-05
-0.000258471
6.20617e-05
-0.000262338
6.45641e-05
-0.000264105
6.66739e-05
-0.000263402
6.8274e-05
-0.000259902
6.92451e-05
-0.000253326
6.94678e-05
-0.000243462
6.88251e-05
-0.000230162
6.72035e-05
-0.000213317
6.44917e-05
-0.000192936
6.05858e-05
-0.00016903
5.53931e-05
-0.000141578
4.88087e-05
4.07263e-05
-0.000242115
5.04125e-05
-0.000249227
5.31363e-05
-0.0002561
5.58456e-05
-0.000262388
5.85392e-05
-0.000267731
6.114e-05
-0.000271758
6.35601e-05
-0.000274097
6.57029e-05
-0.000274385
6.74646e-05
-0.000272282
6.87368e-05
-0.000267482
6.94077e-05
-0.000259726
6.93646e-05
-0.000248806
6.84953e-05
-0.000234572
6.66897e-05
-0.000216924
6.38402e-05
-0.00019583
5.98442e-05
-0.00017131
5.46045e-05
-0.000143375
4.80241e-05
-0.000112119
4.00202e-05
3.05165e-05
-0.000264049
5.35258e-05
-0.000269896
5.59839e-05
-0.000275342
5.83824e-05
-0.000280102
6.07367e-05
-0.00028386
6.29806e-05
-0.000286285
6.50364e-05
-0.000287037
6.68168e-05
-0.000285786
6.82272e-05
-0.000282218
6.91673e-05
-0.000276049
6.95332e-05
-0.000267035
6.92187e-05
-0.000254976
6.81169e-05
-0.000239723
6.61223e-05
-0.000221175
6.3131e-05
-0.000199284
5.90427e-05
-0.000174044
5.37613e-05
-0.000145475
4.71946e-05
-0.000113653
3.92589e-05
-7.86651e-05
2.98829e-05
1.89843e-05
-0.00028776
5.66203e-05
-0.000292203
5.87752e-05
-0.000296124
6.08433e-05
-0.000299276
6.28483e-05
-0.000301377
6.47303e-05
-0.000302131
6.64193e-05
-0.00030123
6.7836e-05
-0.000298371
6.88941e-05
-0.000293266
6.95012e-05
-0.000285652
6.95608e-05
-0.000275299
6.89733e-05
-0.000262015
6.7638e-05
-0.000245653
6.54542e-05
-0.000226107
6.23223e-05
-0.00020332
5.81456e-05
-0.000177269
5.28306e-05
-0.000147968
4.62887e-05
-0.000115462
3.84379e-05
-7.98292e-05
2.9205e-05
-4.11003e-05
1.85183e-05
6.44317e-06
-0.000313442
5.95691e-05
-0.000316303
6.14025e-05
-0.000318569
6.31272e-05
-0.000320008
6.47761e-05
-0.000320364
6.62938e-05
-0.000319366
6.76162e-05
-0.000316735
6.86713e-05
-0.000312192
6.938e-05
-0.000305474
6.96576e-05
-0.000296334
6.94145e-05
-0.000284556
6.85582e-05
-0.000269957
6.6994e-05
-0.00025239
6.46268e-05
-0.000231749
6.13622e-05
-0.000207964
5.71073e-05
-0.000181004
5.17728e-05
-0.000150867
4.52732e-05
-0.000117582
3.75292e-05
-8.12047e-05
2.84694e-05
-4.17673e-05
1.80261e-05
6.26586e-06
-0.000341149
6.22151e-05
-0.000342269
6.37221e-05
-0.000342747
6.51007e-05
-0.00034236
6.6394e-05
-0.000340874
6.75507e-05
-0.000338036
6.85125e-05
-0.000333592
6.92134e-05
-0.000327286
6.95815e-05
-0.000318871
6.95389e-05
-0.000308121
6.90033e-05
-0.000294831
6.78889e-05
-0.000278823
6.61078e-05
-0.000259955
6.35706e-05
-0.000238118
6.01884e-05
-0.000213235
5.58735e-05
-0.000185262
5.05406e-05
-0.000154186
4.41084e-05
-0.00012002
3.65005e-05
-8.28034e-05
2.76479e-05
-4.25556e-05
1.74852e-05
6.07359e-06
-0.000370849
6.43758e-05
-0.000370093
6.55627e-05
-0.000368661
6.66032e-05
-0.000366342
6.75505e-05
-0.000362916
6.83579e-05
-0.000358151
6.89723e-05
-0.00035181
6.9334e-05
-0.000343657
6.93774e-05
-0.000333465
6.90317e-05
-0.000321019
6.82216e-05
-0.000306127
6.68682e-05
-0.000288619
6.48903e-05
-0.000268353
6.22049e-05
-0.00024522
5.87293e-05
-0.000219135
5.4381e-05
-0.000190047
4.90798e-05
-0.000157929
4.27486e-05
-0.000122779
3.53146e-05
-8.46207e-05
2.67111e-05
-4.34579e-05
1.68743e-05
5.85781e-06
-0.000402424
6.58495e-05
-0.000399685
6.67326e-05
-0.000396242
6.74533e-05
-0.000391898
6.8074e-05
-0.000386446
6.85529e-05
-0.000379671
6.88421e-05
-0.000371354
6.8888e-05
-0.000361277
6.86315e-05
-0.000349227
6.80086e-05
-0.000335004
6.6951e-05
-0.000318424
6.53868e-05
-0.000299325
6.32418e-05
-0.000277569
6.04399e-05
-0.000253042
5.69045e-05
-0.000225657
5.25594e-05
-0.000195352
4.73297e-05
-0.000162089
4.1143e-05
-0.000125853
3.39303e-05
-8.66506e-05
2.56277e-05
-4.44684e-05
1.61728e-05
5.611e-06
-0.000435669
6.64223e-05
-0.000430871
6.70266e-05
-0.000425343
6.74552e-05
-0.0004189
6.77783e-05
-0.000411352
6.79588e-05
-0.000402499
6.79544e-05
-0.000392139
6.77175e-05
-0.000380069
6.71954e-05
-0.00036609
6.63308e-05
-0.000350015
6.50626e-05
-0.000331669
6.33261e-05
-0.000310897
6.10541e-05
-0.000287562
5.81777e-05
-0.000261551
5.4627e-05
-0.000232771
5.03322e-05
-0.000201154
4.52244e-05
-0.000166649
3.92364e-05
-0.000129228
3.23035e-05
-8.88828e-05
2.43648e-05
-4.55808e-05
1.53597e-05
5.32582e-06
-0.000470292
6.58752e-05
-0.000463392
6.62331e-05
-0.000455732
6.64058e-05
-0.000447145
6.6469e-05
-0.000437453
6.63906e-05
-0.000426474
6.61336e-05
-0.00041402
6.56564e-05
-0.000399903
6.49127e-05
-0.000383939
6.38522e-05
-0.00036595
6.24207e-05
-0.000345772
6.05608e-05
-0.000323255
5.82128e-05
-0.000298266
5.5315e-05
-0.00027069
5.18047e-05
-0.000240431
4.76188e-05
-0.000207413
4.26948e-05
-0.000171577
3.69711e-05
-0.000132881
3.0388e-05
-9.13006e-05
2.28883e-05
-4.67865e-05
1.44139e-05
4.99497e-06
-0.00050591
6.3992e-05
-0.000496898
6.41419e-05
-0.000487095
6.4102e-05
-0.000476347
6.39509e-05
-0.000464492
6.36612e-05
-0.000451364
6.32015e-05
-0.000436789
6.25359e-05
-0.000420593
6.16246e-05
-0.000402606
6.04239e-05
-0.000382661
5.88869e-05
-0.000360602
5.69635e-05
-0.000336286
5.46014e-05
-0.000309581
5.17465e-05
-0.000280374
4.83436e-05
-0.000248566
4.43367e-05
-0.000214073
3.96701e-05
-0.000176828
3.42884e-05
-0.000136776
2.81373e-05
-9.38809e-05
2.11641e-05
-4.80733e-05
1.33143e-05
4.61122e-06
-0.000542046
6.05666e-05
-0.000530951
6.05516e-05
-0.000519028
6.03483e-05
-0.000506136
6.0035e-05
-0.000492132
5.95894e-05
-0.000476862
5.89848e-05
-0.000460168
5.81913e-05
-0.000441889
5.71753e-05
-0.000421868
5.58999e-05
-0.000399949
5.43251e-05
-0.000375984
5.24084e-05
-0.000349835
5.01051e-05
-0.000321376
4.73687e-05
-0.000290491
4.41515e-05
-0.00025708
4.04052e-05
-0.000221055
3.60812e-05
-0.00018234
3.11308e-05
-0.00014087
2.5506e-05
-9.65929e-05
1.91592e-05
-4.9426e-05
1.20405e-05
4.16763e-06
-0.000578132
5.54108e-05
-0.000565021
5.52776e-05
-0.000551038
5.49646e-05
-0.00053606
5.4547e-05
-0.000519955
5.40066e-05
-0.000502586
5.33221e-05
-0.00048381
5.24688e-05
-0.000463478
5.14193e-05
-0.000441444
5.01434e-05
-0.000417564
4.86079e-05
-0.000391697
4.67779e-05
-0.000363711
4.46161e-05
-0.000333483
4.20839e-05
-0.0003009
3.91415e-05
-0.000265858
3.57482e-05
-0.000228265
3.18631e-05
-0.000188039
2.74447e-05
-0.000145105
2.24517e-05
-9.93997e-05
1.68428e-05
-5.08256e-05
1.0574e-05
3.65783e-06
-0.000613505
4.83635e-05
-0.000598482
4.81609e-05
-0.000582543
4.77954e-05
-0.000565574
4.73352e-05
-0.000547461
4.67664e-05
-0.000528079
4.60722e-05
-0.000507297
4.52335e-05
-0.000484982
4.42287e-05
-0.000460996
4.30337e-05
-0.000435204
4.16227e-05
-0.000407475
3.99676e-05
-0.000377683
3.8039e-05
-0.000345706
3.58061e-05
-0.000311433
3.32369e-05
-0.00027476
3.02989e-05
-0.000235591
2.69588e-05
-0.000193837
2.3183e-05
-0.000149417
1.89377e-05
-0.000102258
1.41885e-05
-5.22508e-05
8.8985e-06
3.07639e-06
-0.000647398
3.92997e-05
-0.000630614
3.90779e-05
-0.000612865
3.87189e-05
-0.00059405
3.82807e-05
-0.000574067
3.7753e-05
-0.000552805
3.71235e-05
-0.000530144
3.63782e-05
-0.00050596
3.55011e-05
-0.000480129
3.44744e-05
-0.000452522
3.32789e-05
-0.000423015
3.18938e-05
-0.000391487
3.02971e-05
-0.000357819
2.84659e-05
-0.000321903
2.63762e-05
-0.000283632
2.40035e-05
-0.000242908
2.13229e-05
-0.00019964
1.83088e-05
-0.000153738
1.49352e-05
-0.000105124
1.11758e-05
-5.36791e-05
7.00198e-06
2.41925e-06
-0.000678939
2.81418e-05
-0.000660591
2.79508e-05
-0.000641228
2.76579e-05
-0.000620764
2.73071e-05
-0.000599106
2.68914e-05
-0.000576153
2.64029e-05
-0.000551795
2.58321e-05
-0.000525917
2.51687e-05
-0.000498402
2.44008e-05
-0.000469129
2.35158e-05
-0.000437979
2.24999e-05
-0.000404835
2.13386e-05
-0.000369582
2.00167e-05
-0.000332109
1.85182e-05
-0.000292313
1.68268e-05
-0.000250093
1.49259e-05
-0.000205352
1.27983e-05
-0.000158001
1.04266e-05
-0.000107953
7.79279e-06
-5.50894e-05
4.8775e-06
1.68417e-06
-0.00070714
1.48744e-05
-0.00068747
1.47623e-05
-0.000666749
1.4594e-05
-0.000644897
1.43946e-05
-0.000621825
1.41608e-05
-0.000597439
1.38884e-05
-0.000571635
1.35728e-05
-0.000544304
1.32087e-05
-0.000515333
1.27904e-05
-0.000484607
1.23115e-05
-0.00045201
1.17653e-05
-0.000417427
1.11444e-05
-0.000380745
1.04412e-05
-0.000341854
9.648e-06
-0.000300649
8.75651e-06
-0.000257028
7.75841e-06
-0.000210892
6.64514e-06
-0.000162149
5.40793e-06
-0.000110713
4.03778e-06
-5.6465e-05
2.52497e-06
8.71346e-07
-0.00073069
-0.000710034
-0.00068831
-0.000665431
-0.000641309
-0.000615848
-0.000588947
-0.000560499
-0.000530393
-0.000498514
-0.000464748
-0.000428979
-0.000391096
-0.000350986
-0.000308543
-0.000263662
-0.000216245
-0.000166196
-0.00011343
-5.78324e-05
)
;

boundaryField
{
    inlet
    {
        type            calculated;
        value           nonuniform 0();
    }
    outlet
    {
        type            calculated;
        value           uniform 0;
    }
    flap
    {
        type            calculated;
        value           nonuniform 0();
    }
    upperWall
    {
        type            calculated;
        value           nonuniform List<scalar> 
21
(
0
7.45965e-15
0
0
0
0
0
0
0
0
-8.94765e-15
0
4.65039e-15
0
0
0
0
0
1.04194e-14
0
0
)
;
    }
    lowerWall
    {
        type            calculated;
        value           nonuniform 0();
    }
    frontAndBack
    {
        type            empty;
        value           nonuniform 0();
    }
    procBoundary2to1
    {
        type            processor;
        value           nonuniform List<scalar> 
17
(
0.000234587
0.000257514
0.000282467
0.000309632
0.000338997
0.000370489
0.00040396
0.000439174
0.000475803
0.000513431
0.000551546
0.000589542
0.000626718
0.000662268
0.000695271
0.000724684
0.000749109
)
;
    }
    procBoundary2to4
    {
        type            processor;
        value           nonuniform List<scalar> 
11
(
7.29333e-05
8.03298e-05
8.92241e-05
9.96365e-05
0.000111528
0.000124857
0.000139596
0.000155749
0.000173358
0.000192524
0.000213048
)
;
    }
    procBoundary2to5
    {
        type            processor;
        value           nonuniform List<scalar> 
34
(
-1.92629e-05
-2.44298e-05
-0.00010645
-3.21752e-05
-3.80251e-05
-0.000149278
-4.57457e-05
-0.000173243
-5.27127e-05
-5.76232e-05
-0.000207296
-6.28193e-05
-6.61331e-05
-0.000228018
-6.89851e-05
-0.000234351
-7.03617e-05
-7.03688e-05
-0.000228571
-6.9092e-05
-0.000220548
-6.6298e-05
-6.24108e-05
-0.000188222
-5.6742e-05
-0.000167005
-4.9504e-05
-4.12672e-05
-0.000110734
-3.10546e-05
-7.7641e-05
-1.94063e-05
-4.05298e-05
-6.61417e-06
)
;
    }
}


// ************************************************************************* //
