/*--------------------------------*- C++ -*----------------------------------*\
| =========                 |                                                 |
| \\      /  F ield         | OpenFOAM: The Open Source CFD Toolbox           |
|  \\    /   O peration     | Version:  dev                                   |
|   \\  /    A nd           | Web:      www.OpenFOAM.org                      |
|    \\/     M anipulation  |                                                 |
\*---------------------------------------------------------------------------*/
FoamFile
{
    version     2.0;
    format      ascii;
    class       volVectorField;
    location    "3";
    object      U;
}
// * * * * * * * * * * * * * * * * * * * * * * * * * * * * * * * * * * * * * //

dimensions      [0 1 -1 0 0 0 0];

internalField   nonuniform List<vector> 
465
(
(-0.229908 -6.08033e-21 0.887774)
(-0.721945 0 0.788411)
(3.8902 1.13721e-20 1.81088)
(3.02884 0 1.50464)
(2.26139 -1.07889e-20 1.2596)
(1.59426 1.04098e-20 1.07595)
(7.84105 7.5128e-21 2.71816)
(7.02303 -3.49864e-21 2.35844)
(6.23977 5.11127e-21 2.05182)
(5.49907 0 1.79484)
(4.80814 1.01683e-20 1.58347)
(11.0054 -1.16018e-20 3.46781)
(10.3468 5.36349e-21 3.08946)
(9.69029 -8.2246e-21 2.75638)
(9.04467 -7.16841e-21 2.46639)
(8.41749 -4.98382e-21 2.2167)
(7.81558 -4.63236e-21 2.00401)
(7.24508 0 1.82482)
(13.325 8.25364e-21 4.02874)
(12.8581 1.0627e-21 3.65753)
(12.3723 7.44868e-21 3.32125)
(11.8773 6.75954e-21 3.02003)
(11.3815 9.84179e-21 2.75293)
(10.892 -1.59411e-21 2.51807)
(10.4153 0 2.31284)
(9.9569 -4.94099e-22 2.13419)
(9.52183 8.76445e-22 1.97884)
(14.8946 1.79635e-20 4.39145)
(14.6143 -1.69257e-20 4.04722)
(14.3026 0 3.7268)
(13.9689 0 3.43214)
(13.6213 -1.86858e-20 3.16389)
(13.2674 0 2.92156)
(12.9137 3.79962e-22 2.70374)
(12.566 -3.75316e-22 2.50833)
(12.2294 0 2.33279)
(11.9085 3.54917e-22 2.17417)
(15.8567 3.40614e-21 4.57205)
(15.7376 1.84256e-20 4.26634)
(15.5818 -1.74575e-21 3.97413)
(15.3971 -1.42407e-20 3.69854)
(15.1909 2.52724e-20 3.4414)
(14.9699 1.03275e-20 3.20339)
(14.7405 -4.71095e-21 2.98417)
(14.5081 -1.01502e-20 2.78264)
(14.2776 -5.35736e-21 2.59708)
(14.0534 0 2.42528)
(13.8392 6.98119e-22 2.26474)
(13.6377 -6.54934e-21 2.11276)
(16.364 0 4.60227)
(16.3708 1.06958e-20 4.33913)
(16.3413 2.85936e-20 4.08114)
(16.2812 -2.42606e-21 3.8319)
(16.1962 -3.86281e-20 3.59391)
(16.092 2.10548e-20 3.36863)
(15.9738 6.7335e-21 3.15657)
(15.8465 8.18455e-21 2.95744)
(15.7145 1.20287e-21 2.77035)
(15.5814 3.92505e-21 2.59387)
(15.4503 -3.7743e-21 2.4263)
(15.3236 5.41876e-22 2.26578)
(15.2027 -1.4598e-21 2.11063)
(16.5586 0 4.51991)
(16.6541 1.53347e-20 4.29775)
(16.7174 0 4.07483)
(16.7522 0 3.85465)
(16.7622 8.39615e-21 3.6399)
(16.7517 -1.44646e-20 3.43243)
(16.7248 -1.23836e-20 3.23329)
(16.6851 0 3.04281)
(16.6362 -4.54073e-22 2.86076)
(16.581 -3.78401e-23 2.68646)
(16.522 -1.75331e-21 2.51892)
(16.461 4.31926e-21 2.3571)
(16.3988 0 2.20009)
(16.3358 1.05628e-21 2.04745)
(16.2713 4.16953e-21 1.89942)
(16.5586 7.69243e-20 4.36169)
(16.7098 3.76978e-20 4.17557)
(16.8346 -1.14282e-19 3.98503)
(16.9348 5.31536e-20 3.79319)
(17.0128 3.27037e-20 3.60255)
(17.0713 -3.86078e-20 3.41504)
(17.113 -4.4515e-22 3.23197)
(17.1407 -2.94132e-20 3.05408)
(17.1567 2.70123e-20 2.88163)
(17.1633 -3.89821e-22 2.7145)
(17.1622 9.4937e-21 2.55235)
(17.1546 6.34215e-21 2.39477)
(17.1412 -2.41656e-20 2.24153)
(17.1219 -1.6559e-21 2.09277)
(17.0962 -1.0618e-20 1.94928)
(17.0631 4.32152e-21 1.81271)
(16.4514 -1.04607e-20 4.15795)
(16.6328 -9.90098e-22 4.00182)
(16.7936 6.06263e-20 3.83935)
(16.9346 -1.13423e-19 3.6731)
(17.0567 7.10421e-21 3.5053)
(17.1616 4.67981e-20 3.33775)
(17.2508 1.78497e-20 3.17181)
(17.3261 1.78894e-20 3.00845)
(17.3891 2.34746e-21 2.84823)
(17.4412 0 2.69146)
(17.4835 -1.91296e-21 2.53826)
(17.5168 -9.70683e-21 2.38872)
(17.5413 6.0698e-21 2.24311)
(17.557 3.06925e-21 2.10199)
(17.5634 0 1.96646)
(17.5598 -7.98852e-21 1.8383)
(17.5459 3.89491e-21 1.72003)
(17.5213 1.91956e-21 1.61488)
(16.294 9.24691e-20 3.93026)
(16.4886 -6.15404e-20 3.79854)
(16.6676 -1.81629e-20 3.65964)
(16.8308 0 3.51565)
(16.9787 -2.76998e-20 3.36842)
(17.1119 -1.3071e-20 3.21959)
(17.2312 2.32379e-20 3.07047)
(17.3377 3.9069e-20 2.9221)
(17.4322 -4.95227e-20 2.77525)
(17.5156 3.12501e-20 2.63048)
(17.5884 3.6777e-20 2.48825)
(17.6511 -1.15326e-20 2.349)
(17.7037 0 2.21332)
(17.7461 1.29335e-20 2.08205)
(17.7778 -1.84187e-20 1.95644)
(17.7987 1.29606e-20 1.83828)
(17.8083 -8.62971e-21 1.72987)
(17.8069 1.90122e-21 1.63401)
(17.7954 9.99123e-22 1.55377)
(16.1191 0 3.69187)
(16.317 -2.04779e-20 3.58013)
(16.5029 1.77818e-20 3.46098)
(16.6764 1.74538e-20 3.3361)
(16.8375 -4.33105e-20 3.20706)
(16.9864 1.79563e-20 3.07529)
(17.1233 1.52931e-20 2.942)
(17.2487 -2.00866e-20 2.80827)
(17.3631 -3.75946e-20 2.67493)
(17.4667 -1.75376e-20 2.54274)
(17.5599 1.35508e-20 2.41235)
(17.6429 -1.67261e-20 2.28443)
(17.7155 -4.18934e-20 2.15977)
(17.7775 9.62221e-23 2.03936)
(17.8288 6.37406e-21 1.92454)
(17.8691 6.38681e-21 1.81697)
(17.8985 0 1.71875)
(17.9172 -7.32834e-21 1.63228)
(17.9263 5.92357e-21 1.56013)
(17.9273 -1.0774e-21 1.50481)
(15.9427 0 3.44991)
(16.1387 1.04015e-20 3.35483)
(16.3254 0 3.25245)
(16.5024 5.12115e-20 3.14411)
(16.6693 -8.38054e-20 3.03115)
(16.826 0 2.9148)
(16.9724 1.23819e-20 2.7962)
(17.1086 6.84481e-20 2.67636)
(17.2349 -2.39697e-20 2.55618)
(17.3512 1.71442e-20 2.4365)
(17.4578 1.31395e-20 2.31809)
(17.5544 9.22475e-21 2.20176)
(17.6411 -2.54297e-20 2.0884)
(17.7176 2.91673e-20 1.9791)
(17.7839 -1.78213e-20 1.87514)
(17.8397 -6.05965e-21 1.77811)
(17.8854 1.74941e-20 1.68986)
(17.9213 7.14703e-21 1.61246)
(17.9484 -4.91974e-21 1.54809)
(17.9681 0 1.49885)
(17.9851 9.54951e-22 1.46623)
(15.7716 3.88619e-19 3.20777)
(15.9635 -1.84549e-19 3.12685)
(16.1481 0 3.03893)
(16.3249 0 2.94509)
(16.4935 8.13317e-20 2.84646)
(16.6535 -6.39091e-20 2.7441)
(16.8047 0 2.63906)
(16.947 -4.94837e-20 2.53229)
(17.0804 0 2.42469)
(17.2048 0 2.31714)
(17.3201 1.64155e-20 2.21046)
(17.4263 -1.58405e-20 2.10553)
(17.5232 3.80551e-20 2.00331)
(17.6107 -4.32522e-20 1.90486)
(17.6887 5.47634e-20 1.81145)
(17.7573 -5.91088e-22 1.72453)
(17.8166 1.73583e-21 1.64574)
(17.8673 -9.9022e-21 1.57687)
(17.9101 0 1.51978)
(17.9463 -3.57482e-21 1.47626)
(17.9852 -6.66562e-22 1.44765)
(15.6086 0 2.96688)
(15.7953 1.16625e-20 2.89815)
(15.9765 1.07408e-20 2.82283)
(16.1514 1.48692e-19 2.74183)
(16.3196 -1.64145e-19 2.65605)
(16.4805 -6.14985e-20 2.56645)
(16.634 1.16038e-19 2.47393)
(16.7798 -2.94692e-20 2.37939)
(16.9176 0 2.28372)
(17.0474 0 2.18775)
(17.169 3.49919e-20 2.09236)
(17.2822 -1.89669e-20 1.99844)
(17.387 -2.50802e-20 1.90693)
(17.4833 2.43249e-20 1.81889)
(17.571 -3.37328e-21 1.73551)
(17.6503 -4.96188e-20 1.65811)
(17.7214 2.39432e-21 1.58815)
(17.7849 -1.26407e-21 1.52719)
(17.8416 7.78355e-21 1.47683)
(17.8926 4.14556e-21 1.43861)
(17.9511 0 1.41373)
(15.4544 0 2.72775)
(15.6358 -2.04068e-19 2.66955)
(15.813 1.67027e-19 2.60529)
(15.9852 0 2.53568)
(16.1519 1.57505e-19 2.46149)
(16.3127 -1.37424e-19 2.3835)
(16.4671 7.32159e-20 2.30254)
(16.6148 -5.6824e-20 2.21942)
(16.7557 2.16128e-20 2.13496)
(16.8893 -4.60749e-20 2.04999)
(17.0157 0 1.96535)
(17.1346 1.7777e-20 1.88191)
(17.2459 -1.43751e-20 1.80059)
(17.3496 2.57672e-20 1.72241)
(17.4458 8.78485e-21 1.64847)
(17.5344 -1.98878e-20 1.57996)
(17.616 0 1.51819)
(17.691 1.06652e-20 1.46453)
(17.7602 -1.08616e-20 1.42035)
(17.8245 3.2249e-21 1.38699)
(17.9008 0 1.36555)
(15.3097 -2.08775e-19 2.49047)
(15.4858 1.15963e-20 2.44138)
(15.6588 0 2.38682)
(15.828 0 2.32734)
(15.9928 1.88573e-20 2.26356)
(16.1527 0 2.19615)
(16.3073 7.14467e-22 2.12582)
(16.4562 1.43723e-20 2.0533)
(16.5991 2.46714e-20 1.97934)
(16.7358 0 1.90472)
(16.8661 0 1.83022)
(16.9898 1.65984e-20 1.75669)
(17.1067 -3.34483e-20 1.68501)
(17.217 -1.31059e-20 1.6161)
(17.3206 1.11298e-20 1.551)
(17.4177 1.75638e-20 1.49077)
(17.5087 -1.13874e-21 1.43658)
(17.5941 1.25183e-20 1.38963)
(17.6747 0 1.35112)
(17.7511 0 1.32221)
(17.8435 0 1.30391)
(15.1748 -1.92402e-19 2.25484)
(15.3459 1.83167e-19 2.21367)
(15.5148 1.82417e-19 2.16762)
(15.6808 -3.15982e-19 2.11712)
(15.8434 -2.77516e-20 2.06268)
(16.0021 2.58839e-19 2.00486)
(16.1565 -1.4656e-19 1.94425)
(16.306 -1.40595e-20 1.88152)
(16.4505 3.66417e-20 1.81733)
(16.5897 -4.91143e-20 1.75238)
(16.7232 6.13969e-20 1.68741)
(16.8511 -5.83523e-20 1.6232)
(16.9731 -1.39831e-20 1.56055)
(17.0892 3.81045e-21 1.50033)
(17.1996 2.60639e-20 1.44347)
(17.3044 1.04057e-20 1.39094)
(17.404 -3.04313e-20 1.34376)
(17.4988 2.21241e-21 1.30298)
(17.5897 0 1.26966)
(17.6771 -5.85812e-21 1.24483)
(17.7844 0 1.22939)
(15.0503 2.02784e-19 2.02061)
(15.2167 -1.61691e-19 1.98632)
(15.3817 3.43399e-19 1.94774)
(15.5447 -3.49112e-19 1.9052)
(15.7051 3.78004e-20 1.85912)
(15.8624 1.61675e-19 1.80996)
(16.0162 1.23659e-19 1.75823)
(16.1661 -2.34107e-19 1.70449)
(16.3117 1.10161e-19 1.64933)
(16.4529 4.58469e-20 1.59338)
(16.5893 -2.51565e-20 1.5373)
(16.7207 -2.16245e-20 1.4818)
(16.8472 -3.35763e-20 1.42761)
(16.9686 4.22887e-20 1.37551)
(17.0851 -2.69109e-20 1.32633)
(17.1969 -2.92792e-20 1.28094)
(17.3043 3.40564e-20 1.24024)
(17.4077 -2.07266e-20 1.20515)
(17.508 -2.63111e-22 1.1766)
(17.6055 9.02168e-21 1.15549)
(17.7261 -3.48682e-21 1.14263)
(14.937 0 1.78718)
(15.0992 -1.91128e-19 1.75888)
(15.2606 -1.74119e-21 1.72686)
(15.4206 1.79523e-19 1.69139)
(15.5788 -1.57319e-19 1.65279)
(15.7347 1.45276e-19 1.61144)
(15.8878 0 1.56777)
(16.0378 0 1.52226)
(16.1843 1.32151e-20 1.47542)
(16.3271 0 1.4278)
(16.4659 0 1.37998)
(16.6005 1.98131e-20 1.33258)
(16.731 -1.55848e-20 1.28626)
(16.8571 4.52428e-20 1.24172)
(16.9791 -5.12993e-20 1.19968)
(17.0972 2.3383e-20 1.16092)
(17.2116 0 1.1262)
(17.3228 5.90579e-21 1.09636)
(17.4315 1.38046e-20 1.07217)
(17.5381 -5.94511e-21 1.05444)
(17.6709 2.3966e-21 1.04391)
(14.8359 -2.06561e-19 1.55434)
(14.9943 -1.96393e-19 1.53126)
(15.1524 8.90191e-21 1.50502)
(15.3097 3.28823e-19 1.47582)
(15.4659 -1.47382e-19 1.44392)
(15.6203 0 1.40963)
(15.7727 -1.25417e-19 1.37329)
(15.9227 1.38255e-19 1.33532)
(16.0699 0 1.29613)
(16.214 -1.24348e-20 1.25621)
(16.3548 -1.11973e-20 1.21605)
(16.4922 -1.93635e-20 1.1762)
(16.6261 0 1.13722)
(16.7565 1.54347e-20 1.09972)
(16.8834 1.32585e-20 1.06434)
(17.007 0 1.03173)
(17.1277 1.60074e-20 1.00258)
(17.2458 -9.72475e-21 0.977575)
(17.3621 -1.57714e-20 0.957413)
(17.4768 0 0.942765)
(17.6205 0 0.934316)
(14.7479 6.28346e-21 1.32078)
(14.903 1.89033e-19 1.30228)
(15.0583 -3.3446e-19 1.28114)
(15.2133 1.67899e-19 1.25752)
(15.3676 1.38196e-19 1.23162)
(15.5207 -2.81289e-19 1.2037)
(15.6724 8.51701e-21 1.17403)
(15.8223 1.6588e-19 1.14294)
(15.9699 -5.6388e-20 1.11079)
(16.1152 1.21547e-20 1.07797)
(16.2578 1.09437e-20 1.0449)
(16.3976 -1.00374e-20 1.01205)
(16.5345 -3.31418e-20 0.979893)
(16.6685 1.75258e-20 0.948946)
(16.7996 1.14972e-20 0.919746)
(16.9282 -1.28186e-20 0.892853)
(17.0543 9.1806e-21 0.868845)
(17.1786 0 0.848307)
(17.3015 0 0.831827)
(17.4234 3.24596e-21 0.819978)
(17.5766 -1.32463e-21 0.813372)
(14.6742 2.30988e-21 1.08709)
(14.8266 1.89802e-19 1.07264)
(14.9795 -1.08497e-20 1.05606)
(15.1325 0 1.03747)
(15.2852 0 1.01702)
(15.4373 0 0.994914)
(15.5884 -6.24325e-20 0.971365)
(15.7381 4.11789e-21 0.946633)
(15.8862 5.62114e-20 0.921005)
(16.0324 0 0.8948)
(16.1765 -4.24095e-20 0.868364)
(16.3183 5.15044e-20 0.842069)
(16.4578 8.88122e-21 0.816315)
(16.5949 0 0.791521)
(16.7298 0 0.76813)
(16.8625 -2.01147e-20 0.746604)
(16.9934 1.11204e-20 0.727417)
(17.1229 7.19515e-21 0.711051)
(17.2516 4.21948e-21 0.697989)
(17.3797 -1.17316e-20 0.688703)
(17.5412 2.41767e-21 0.683712)
(14.6163 1.97854e-19 0.849747)
(14.7665 -9.35713e-20 0.83889)
(14.9176 9.44301e-20 0.826389)
(15.069 -8.71967e-20 0.812331)
(15.2205 7.25567e-20 0.79683)
(15.3718 -6.25474e-20 0.780029)
(15.5224 -6.1913e-20 0.762096)
(15.6721 5.34223e-20 0.743229)
(15.8206 5.18003e-20 0.723648)
(15.9676 -4.47481e-20 0.703598)
(16.113 5.55987e-21 0.683349)
(16.2565 2.76593e-20 0.663192)
(16.3982 -5.45025e-20 0.643437)
(16.5379 -3.65256e-20 0.624417)
(16.6758 1.04403e-20 0.606478)
(16.8121 2.33453e-20 0.589983)
(16.947 -1.00376e-20 0.575308)
(17.0809 -8.39817e-22 0.562834)
(17.2143 -6.08697e-21 0.552948)
(17.3476 3.18599e-21 0.546025)
(17.5157 1.33639e-21 0.542504)
(14.5755 1.57575e-23 0.612811)
(14.7242 0 0.605283)
(14.874 7.72246e-20 0.596581)
(15.0244 -7.60416e-20 0.586762)
(15.1751 0 0.575905)
(15.3258 5.78338e-20 0.564109)
(15.4763 -6.51355e-20 0.551492)
(15.6261 7.22246e-21 0.538193)
(15.775 -5.12688e-20 0.524369)
(15.9228 4.43648e-20 0.510195)
(16.0692 -1.09272e-20 0.495864)
(16.2142 1.4657e-20 0.481584)
(16.3577 4.25738e-21 0.467581)
(16.4996 -6.74575e-21 0.454092)
(16.64 7.5588e-21 0.441371)
(16.7791 0 0.429683)
(16.9172 0 0.419302)
(17.0546 0 0.410514)
(17.1919 0 0.403612)
(17.3294 1.04751e-21 0.39888)
(17.5032 -7.77734e-23 0.39665)
(14.553 4.35405e-20 0.365904)
(14.7009 1.38353e-21 0.361382)
(14.8499 0 0.356158)
(14.9997 -3.53935e-20 0.350262)
(15.15 3.71276e-20 0.34374)
(15.3006 3.05181e-20 0.336651)
(15.451 -6.40876e-20 0.329065)
(15.601 5.7222e-20 0.321068)
(15.7503 -3.04481e-20 0.312755)
(15.8987 0 0.304233)
(16.0461 2.66361e-21 0.295619)
(16.1922 1.60228e-20 0.287039)
(16.337 -1.38312e-20 0.278631)
(16.4805 0 0.27054)
(16.6227 -3.25327e-21 0.262922)
(16.7639 0 0.255942)
(16.9042 0 0.249774)
(17.0442 3.04552e-21 0.244609)
(17.1842 -9.13671e-22 0.240659)
(17.3246 -3.63181e-21 0.238186)
(17.5017 -6.47706e-22 0.237649)
(14.2862 1.44042e-21 0.124058)
(14.4304 -1.35525e-21 0.122542)
(14.5757 0 0.12077)
(14.7218 -2.37891e-21 0.118751)
(14.8682 0 0.116501)
(15.0149 2.06033e-21 0.114039)
(15.1613 -1.29073e-20 0.11139)
(15.3072 2.8158e-20 0.108583)
(15.4524 -2.25847e-20 0.105654)
(15.5966 1.22157e-20 0.10264)
(15.7396 2.6485e-21 0.0995832)
(15.8812 6.69577e-21 0.0965289)
(16.0215 -8.91819e-21 0.0935262)
(16.1603 0 0.0906279)
(16.2978 3.18582e-21 0.0878902)
(16.4341 0 0.0853738)
(16.5695 0 0.0831444)
(16.7045 0 0.0812776)
(16.8396 0 0.0798703)
(16.9756 0 0.0790674)
(17.1483 0 0.0792772)
)
;

boundaryField
{
    inlet
    {
        type            fixedValue;
        value           nonuniform 0();
    }
    outlet
    {
        type            zeroGradient;
    }
    flap
    {
        type            movingWallVelocity;
        value           nonuniform 0();
    }
    upperWall
    {
        type            noSlip;
    }
    lowerWall
    {
        type            noSlip;
    }
    frontAndBack
    {
        type            empty;
    }
    procBoundary2to1
    {
        type            processor;
        value           nonuniform List<vector> 
17
(
(16.0842 -5.69006e-21 4.0526)
(15.9099 6.38222e-21 3.79447)
(15.7382 -6.25375e-21 3.53632)
(15.5734 2.0441e-19 3.28062)
(15.4171 2.14097e-19 3.02823)
(15.2695 2.29619e-19 2.77927)
(15.1311 -2.12715e-19 2.53359)
(15.002 -6.89546e-21 2.29076)
(14.883 2.19822e-19 2.05031)
(14.7745 -2.21703e-19 1.81155)
(14.6777 0 1.57408)
(14.5933 3.33942e-21 1.33653)
(14.5227 2.07626e-19 1.09933)
(14.4671 1.01331e-19 0.8589)
(14.428 1.02814e-19 0.619129)
(14.4066 0 0.369704)
(14.1434 -2.49244e-20 0.125314)
)
;
    }
    procBoundary2to4
    {
        type            processor;
        value           nonuniform List<vector> 
11
(
(0.512614 -3.25768e-21 1.1064)
(4.82912 2.98152e-21 2.17789)
(8.6837 3.49669e-21 3.13405)
(11.6555 0 3.89298)
(13.7619 -2.90446e-21 4.43362)
(15.1333 -2.50539e-20 4.75607)
(15.9311 3.0945e-20 4.88671)
(16.3155 0 4.86578)
(16.4279 6.99107e-20 4.73698)
(16.3798 7.82259e-20 4.53983)
(16.2493 -9.10835e-20 4.30493)
)
;
    }
    procBoundary2to5
    {
        type            processor;
        value           nonuniform List<vector> 
34
(
(-1.82259 1.93941e-20 0.767109)
(-1.84392 -1.24374e-20 0.769019)
(-0.991165 0 0.753308)
(-0.991165 0 0.753308)
(-1.14807 0 0.739545)
(1.03657 1.03212e-20 0.952839)
(1.03657 1.03212e-20 0.952839)
(4.17452 -4.1217e-22 1.4138)
(4.17452 -4.1217e-22 1.4138)
(3.60555 -9.01565e-21 1.28238)
(6.71158 2.71291e-22 1.67563)
(6.71158 2.71291e-22 1.67563)
(6.22012 4.95152e-21 1.55293)
(9.11483 3.83551e-22 1.84325)
(9.11483 3.83551e-22 1.84325)
(11.6074 2.31304e-21 2.02918)
(11.6074 2.31304e-21 2.02918)
(11.3295 1.93711e-21 1.89438)
(13.451 7.95655e-22 1.96676)
(13.451 7.95655e-22 1.96676)
(15.0882 -1.17128e-21 1.95957)
(15.0882 -1.17128e-21 1.95957)
(14.9794 0 1.81217)
(16.2041 3.26649e-21 1.75738)
(16.2041 3.26649e-21 1.75738)
(17.0218 -7.88297e-22 1.68574)
(17.0218 -7.88297e-22 1.68574)
(16.9712 -9.21976e-23 1.57204)
(17.4866 3.20365e-22 1.52654)
(17.4866 3.20365e-22 1.52654)
(17.7755 1.22637e-21 1.49216)
(17.7755 1.22637e-21 1.49216)
(17.92 1.35946e-21 1.46802)
(17.92 1.35946e-21 1.46802)
)
;
    }
}


// ************************************************************************* //
