/*--------------------------------*- C++ -*----------------------------------*\
| =========                 |                                                 |
| \\      /  F ield         | OpenFOAM: The Open Source CFD Toolbox           |
|  \\    /   O peration     | Version:  dev                                   |
|   \\  /    A nd           | Web:      www.OpenFOAM.org                      |
|    \\/     M anipulation  |                                                 |
\*---------------------------------------------------------------------------*/
FoamFile
{
    version     2.0;
    format      ascii;
    class       surfaceScalarField;
    location    "3.16";
    object      phi;
}
// * * * * * * * * * * * * * * * * * * * * * * * * * * * * * * * * * * * * * //

dimensions      [0 3 -1 0 0 0 0];

internalField   nonuniform List<scalar> 
879
(
0.20739
0.00683189
0.0123009
0.212434
0.00709962
0.211993
0.0127575
0.0180659
0.217603
0.00734419
0.217207
0.0131696
0.216648
0.0186354
0.0238417
0.222899
0.00756274
0.222554
0.0135324
0.222068
0.0191333
0.221449
0.0244674
0.0296141
0.228326
0.00775251
0.228035
0.0138413
0.227629
0.0195533
0.227112
0.0249912
0.226495
0.0302343
0.0353522
0.233886
0.00791083
0.233655
0.0140915
0.233334
0.019889
0.232928
0.0254056
0.232447
0.0307194
0.231899
0.0358994
0.0410031
0.239582
0.0080352
0.239415
0.0142791
0.239185
0.0201349
0.238897
0.0257036
0.23856
0.0310615
0.238184
0.0362761
0.23778
0.0414036
0.237362
0.0464913
0.0515793
0.245417
0.00812333
0.245318
0.0144003
0.245184
0.0202861
0.24502
0.0258792
0.244834
0.0312537
0.244637
0.0364751
0.244441
0.0415975
0.244261
0.0466658
0.244116
0.0517174
0.0567823
0.251395
0.00817317
0.251367
0.0144519
0.251333
0.0203382
0.251298
0.0259273
0.251269
0.0312903
0.251257
0.0364903
0.251275
0.0415788
0.251339
0.0465982
0.251467
0.0515826
0.251682
0.0565591
0.252009
0.0615481
0.0665651
0.257519
0.00818294
0.257564
0.0144313
0.257634
0.020288
0.257732
0.0258441
0.257864
0.0311673
0.258041
0.0363176
0.258277
0.0413439
0.258587
0.0462857
0.258991
0.0511737
0.259511
0.0560318
0.260174
0.0608771
0.261009
0.0657207
0.262051
0.0705681
0.0754185
0.26379
0.00815127
0.263912
0.0143366
0.264088
0.0201331
0.264321
0.0256271
0.264617
0.0308819
0.264986
0.0359547
0.265441
0.0408913
0.265997
0.0457279
0.266675
0.0504923
0.267496
0.055205
0.268486
0.0598797
0.269675
0.0645241
0.271095
0.06914
0.272782
0.0737231
0.0782643
0.270214
0.00807715
0.270413
0.0141667
0.270697
0.0198723
0.271066
0.0252748
0.271527
0.0304334
0.272088
0.0354015
0.272761
0.0402217
0.273563
0.0449272
0.27451
0.0495428
0.275625
0.0540857
0.276932
0.0585668
0.278458
0.0629908
0.280234
0.0673565
0.282293
0.0716571
0.284669
0.0758804
0.287401
0.0800077
0.0840137
0.276793
0.00795976
0.277069
0.0139207
0.277462
0.019505
0.277968
0.0247873
0.278594
0.0298221
0.279345
0.0346592
0.280235
0.0393379
0.281276
0.0438883
0.282486
0.0483321
0.283885
0.0526841
0.285495
0.0569523
0.287341
0.0611391
0.28945
0.0652411
0.29185
0.0692498
0.294572
0.0731515
0.297646
0.0769272
0.3011
0.0805533
0.304962
0.0840021
0.0872418
0.283531
0.00779858
0.283885
0.0135987
0.284385
0.0190315
0.285028
0.0241655
0.285816
0.0290501
0.286755
0.0337312
0.287856
0.0382448
0.28913
0.0426181
0.290593
0.04687
0.292263
0.0510129
0.29416
0.0550528
0.296304
0.05899
0.298721
0.0628199
0.301432
0.066533
0.304462
0.0701153
0.307835
0.0735486
0.311571
0.0768109
0.31569
0.0798774
0.320206
0.0827207
0.325127
0.0853114
0.0876177
0.29043
0.00759356
0.290862
0.0132012
0.291468
0.0184534
0.292245
0.0234118
0.293192
0.0281207
0.294314
0.0326223
0.295619
0.0369491
0.297118
0.0411256
0.298822
0.0451681
0.300749
0.049087
0.302914
0.0528866
0.305335
0.0565659
0.308032
0.0601197
0.311022
0.0635381
0.314325
0.0668077
0.317957
0.0699117
0.321933
0.0728305
0.326263
0.0755427
0.330953
0.0780251
0.336007
0.080253
0.297495
0.00734498
0.298003
0.0127297
0.298714
0.017773
0.299621
0.0225295
0.300723
0.0270388
0.302021
0.0313388
0.303523
0.0354592
0.305235
0.0394213
0.307168
0.0432396
0.309335
0.0469226
0.311749
0.0504732
0.314424
0.05389
0.317374
0.0571671
0.320614
0.0602954
0.324156
0.0632624
0.328011
0.0660532
0.332186
0.0686509
0.336688
0.0710376
0.341515
0.0731944
0.0751007
0.304729
0.00705343
0.305311
0.012186
0.306124
0.0169932
0.307157
0.0215231
0.308408
0.0258102
0.309876
0.0298884
0.311564
0.0337844
0.313478
0.037517
0.315626
0.0410987
0.318016
0.0445365
0.320659
0.0478325
0.323565
0.0509849
0.326744
0.0539882
0.330204
0.0568337
0.333954
0.0595106
0.337999
0.0620061
0.342341
0.0643061
0.34698
0.0663959
0.351911
0.068261
0.0698849
0.312137
0.00671974
0.312791
0.0115722
0.313701
0.0161178
0.314856
0.0203976
0.316249
0.0244414
0.317877
0.0282794
0.319742
0.0319351
0.321846
0.035425
0.324194
0.03876
0.326791
0.0419459
0.329644
0.0449842
0.332759
0.047873
0.336141
0.0506072
0.339796
0.0531794
0.343726
0.0555803
0.347932
0.0577993
0.352412
0.059825
0.35716
0.061646
0.362169
0.0632512
0.0646282
0.319721
0.00634495
0.320445
0.0108911
0.321449
0.0151507
0.322719
0.0191585
0.324247
0.0229397
0.326028
0.0265206
0.328059
0.0299219
0.33034
0.0331581
0.332873
0.0362384
0.33566
0.0391676
0.338704
0.0419471
0.342007
0.0445749
0.345571
0.0470468
0.349396
0.0493564
0.353482
0.0514962
0.357825
0.0534576
0.362418
0.0552319
0.367254
0.0568105
0.37232
0.0581854
0.0593473
0.327487
0.00593018
0.328277
0.0101453
0.329371
0.0140963
0.330751
0.0178118
0.332407
0.0213124
0.334331
0.0246212
0.336517
0.0277558
0.338963
0.0307288
0.341667
0.0335481
0.344628
0.0362178
0.347845
0.0387388
0.351317
0.0411098
0.355042
0.043327
0.359018
0.0453855
0.363239
0.0472792
0.367698
0.0490015
0.372386
0.0505461
0.377292
0.0519067
0.382401
0.053078
0.0540534
0.335438
0.00547662
0.336293
0.00933763
0.337471
0.0129589
0.338956
0.0163631
0.340732
0.0195671
0.34279
0.0225901
0.345121
0.0254472
0.347719
0.0281492
0.350581
0.0307026
0.353701
0.0331111
0.357076
0.0353754
0.3607
0.0374944
0.36457
0.0394653
0.368678
0.0412841
0.373017
0.0429464
0.377576
0.0444473
0.382344
0.0457823
0.387308
0.0469472
0.392451
0.0479389
0.0487528
0.34358
0.00498534
0.344496
0.00847071
0.345756
0.0117425
0.347338
0.0148183
0.349228
0.0177108
0.351411
0.0204359
0.353877
0.0230062
0.356617
0.0254304
0.359624
0.0277144
0.36289
0.0298609
0.366408
0.0318707
0.370171
0.0337432
0.374171
0.0354761
0.378398
0.0370666
0.382841
0.0385113
0.387488
0.0398071
0.392326
0.0409509
0.39734
0.0419401
0.402511
0.0427733
0.0434476
0.351917
0.00445721
0.352892
0.00754669
0.354229
0.0104509
0.355905
0.0131825
0.357901
0.0157503
0.360202
0.0181665
0.362794
0.0204415
0.365666
0.0225825
0.368807
0.024594
0.372208
0.0264784
0.375858
0.0282366
0.379748
0.0298678
0.383866
0.0313708
0.3882
0.0327435
0.392739
0.0339835
0.397466
0.0350889
0.402368
0.0360578
0.407428
0.0368891
0.412627
0.0375823
0.0381356
0.360454
0.00389262
0.361487
0.00656694
0.362898
0.00908677
0.364664
0.0114601
0.366761
0.0136912
0.369172
0.0157889
0.371882
0.0177613
0.374877
0.019614
0.378143
0.0213507
0.38167
0.0229732
0.385443
0.0244822
0.38945
0.0258774
0.393678
0.0271577
0.398114
0.028322
0.402741
0.0293688
0.407545
0.0302968
0.412509
0.0311052
0.417616
0.0317936
0.422846
0.0323626
0.032811
0.369197
0.00329105
0.370287
0.00553141
0.371772
0.00765196
0.373622
0.00965463
0.375815
0.0115384
0.378332
0.0133087
0.381154
0.0149717
0.384265
0.0165317
0.38765
0.0179914
0.391295
0.019352
0.395184
0.0206141
0.399303
0.0217776
0.403637
0.0228418
0.408169
0.0238059
0.412884
0.0246691
0.417764
0.0254309
0.422793
0.0260909
0.42795
0.0266494
0.433218
0.0271073
0.0274642
0.378153
0.00265008
0.379304
0.00443752
0.380861
0.00614707
0.382793
0.00776926
0.385078
0.00929616
0.387694
0.0107309
0.390622
0.0120782
0.393844
0.0133412
0.397342
0.0145213
0.4011
0.0156196
0.405102
0.0166363
0.40933
0.0175714
0.413767
0.0184244
0.418397
0.019195
0.423201
0.0198826
0.428162
0.0204872
0.43326
0.0210087
0.438477
0.0214479
0.443794
0.0218056
0.0220818
0.387332
0.00196247
0.38855
0.00327838
0.39018
0.00457026
0.392195
0.00580401
0.39457
0.00696546
0.397284
0.00805745
0.400316
0.00908361
0.403645
0.0100455
0.407253
0.0109437
0.411122
0.0117786
0.415234
0.0125505
0.419571
0.0132592
0.424113
0.0139046
0.428843
0.0144863
0.433741
0.0150043
0.438789
0.0154585
0.443967
0.0158492
0.449256
0.0161769
0.454636
0.0164428
0.0166468
0.396754
0.00120558
0.398042
0.00205075
0.399742
0.00292634
0.401835
0.00376239
0.404298
0.0045489
0.407107
0.0052907
0.41024
0.00598964
0.413676
0.00664551
0.417394
0.00725816
0.421376
0.00782761
0.4256
0.00835388
0.430049
0.00883687
0.434702
0.00927638
0.43954
0.00967226
0.444542
0.0100244
0.449689
0.0103329
0.454961
0.010598
0.460338
0.0108202
0.4658
0.0110003
0.0111384
0.406503
0.000278536
0.407866
0.00075031
0.409635
0.00121498
0.411805
0.00164551
0.414351
0.00205157
0.417248
0.00243763
0.420476
0.00280328
0.424011
0.00314746
0.427835
0.00346966
0.431925
0.00376971
0.436262
0.00404749
0.440824
0.00430283
0.445592
0.00453556
0.450544
0.00474556
0.45566
0.00493275
0.46092
0.00509717
0.466301
0.00523896
0.471785
0.0053584
0.477351
0.0054559
0.00553158
0.415665
0.41648
0.417754
0.419454
0.421556
0.42404
0.426885
0.430072
0.433578
0.437382
0.441461
0.445794
0.450358
0.455131
0.46009
0.465212
0.470475
0.475857
0.481336
)
;

boundaryField
{
    inlet
    {
        type            calculated;
        value           nonuniform List<scalar> 
30
(
-0.20766
-0.212683
-0.217828
-0.223097
-0.228493
-0.23402
-0.239681
-0.245479
-0.251417
-0.257499
-0.263728
-0.270107
-0.276641
-0.283333
-0.290186
-0.297206
-0.304395
-0.311758
-0.3193
-0.327023
-0.334934
-0.343036
-0.351334
-0.359832
-0.368536
-0.377451
-0.386582
-0.395933
-0.40551
-0.415319
)
;
    }
    outlet
    {
        type            calculated;
        value           nonuniform 0();
    }
    flap
    {
        type            calculated;
        value           nonuniform 0();
    }
    upperWall
    {
        type            calculated;
        value           nonuniform List<scalar> 
20
(
0
0
0
0
0
0
0
0
0
0
9.92363e-15
0
0
0
0
0
0
0
0
0
)
;
    }
    lowerWall
    {
        type            calculated;
        value           nonuniform 0();
    }
    frontAndBack
    {
        type            empty;
        value           nonuniform 0();
    }
    procBoundary0to1
    {
        type            processor;
        value           nonuniform List<scalar> 
18
(
0.330457
0.341418
0.082202
0.346663
0.357124
0.367424
0.377601
0.387696
0.397754
0.407821
0.417946
0.428179
0.438576
0.449189
0.460086
0.471326
0.482978
0.486889
)
;
    }
    procBoundary0to3
    {
        type            processor;
        value           nonuniform List<scalar> 
34
(
-0.00654407
-0.0118054
0.206908
-0.0174316
0.211368
-0.0231222
0.215934
-0.0288676
0.220703
-0.0346435
0.225784
-0.0404038
0.231295
-0.0460801
-0.0511731
0.236946
-0.0567008
0.244024
-0.0618849
-0.0670452
0.252479
-0.0716197
-0.076716
0.263339
-0.0802661
0.274775
-0.0827465
-0.0871441
0.290524
-0.0878695
-0.0915406
0.309254
-0.0902379
-0.0929527
)
;
    }
}


// ************************************************************************* //
