/*--------------------------------*- C++ -*----------------------------------*\
| =========                 |                                                 |
| \\      /  F ield         | OpenFOAM: The Open Source CFD Toolbox           |
|  \\    /   O peration     | Version:  dev                                   |
|   \\  /    A nd           | Web:      www.OpenFOAM.org                      |
|    \\/     M anipulation  |                                                 |
\*---------------------------------------------------------------------------*/
FoamFile
{
    version     2.0;
    format      ascii;
    class       surfaceScalarField;
    location    "0.6";
    object      meshPhi;
}
// * * * * * * * * * * * * * * * * * * * * * * * * * * * * * * * * * * * * * //

dimensions      [0 3 -1 0 0 0 0];

internalField   nonuniform List<scalar> 
865
(
-1.10948e-05
3.61466e-07
-6.95834e-06
2.17529e-07
-4.08978e-06
1.18094e-07
-2.22111e-06
5.58514e-08
-1.08521e-06
2.15412e-08
-4.52205e-07
5.65267e-09
-1.42879e-07
9.95807e-11
-2.79924e-08
-9.87378e-10
-2.48338e-10
-1.13859e-05
7.39787e-07
-7.18587e-06
4.48079e-07
-4.26028e-06
2.45783e-07
-2.3425e-06
1.18319e-07
-1.16464e-06
4.72606e-08
-4.97032e-07
1.36996e-08
-1.62144e-07
1.35608e-09
-3.35123e-08
-1.52561e-09
-4.53812e-10
-1.21006e-05
1.15831e-06
-7.74525e-06
7.10869e-07
-4.67257e-06
3.97108e-07
-2.62561e-06
1.96676e-07
-1.3416e-06
8.27838e-08
-5.92201e-07
2.7225e-08
-2.01114e-07
5.28853e-09
-4.39058e-08
-9.49461e-10
-3.42667e-10
-1.32386e-05
1.63685e-06
-8.63671e-06
1.02266e-06
-5.32549e-06
5.85083e-07
-3.0651e-06
3.00211e-07
-1.60663e-06
1.33986e-07
-7.28378e-07
4.94714e-08
-2.54429e-07
1.35131e-08
-5.71465e-08
1.46617e-09
2.02441e-10
-1.47084e-05
2.18952e-06
-9.78758e-06
1.39499e-06
-6.16641e-06
8.18656e-07
-3.6246e-06
4.35837e-07
-1.9344e-06
2.05743e-07
-8.88456e-07
8.3338e-08
-3.12729e-07
2.72755e-08
-7.01294e-08
6.04562e-09
1.15305e-09
-1.6419e-05
2.82406e-06
-1.11193e-05
1.83459e-06
-7.13146e-06
1.10262e-06
-4.25745e-06
6.06651e-07
-2.29393e-06
2.99947e-07
-1.05339e-06
1.29615e-07
-3.66482e-07
4.64426e-08
-8.02141e-08
1.23427e-08
2.30506e-09
-1.82465e-05
3.53405e-06
-1.25284e-05
2.33807e-06
-8.13562e-06
1.43477e-06
-4.89894e-06
8.10593e-07
-2.64326e-06
4.14277e-07
-1.20167e-06
1.86055e-07
-4.08205e-07
6.9393e-08
-8.62926e-08
1.94152e-08
3.44306e-09
-2.00276e-05
4.2956e-06
-1.38842e-05
2.8876e-06
-9.07827e-06
1.80169e-06
-5.47876e-06
1.03774e-06
-2.94125e-06
5.41647e-07
-1.31611e-06
2.47902e-07
-4.34803e-07
9.36004e-08
-8.88841e-08
2.63315e-08
4.46875e-09
-2.15754e-05
5.06804e-06
-1.50415e-05
3.45127e-06
-9.85733e-06
2.18031e-06
-5.93456e-06
1.27205e-06
-3.15743e-06
6.71611e-07
-1.38834e-06
3.09474e-07
-4.47573e-07
1.16748e-07
-8.93339e-08
3.25833e-08
5.35097e-09
-2.2709e-05
5.79297e-06
-1.58712e-05
3.98426e-06
-1.03918e-05
2.5393e-06
-6.22391e-06
1.49351e-06
-3.27765e-06
7.92994e-07
-1.41971e-06
3.65967e-07
-4.50131e-07
1.37578e-07
-8.867e-08
3.81163e-08
6.12554e-09
-2.32885e-05
6.40533e-06
-1.62806e-05
4.43725e-06
-1.06307e-05
2.84459e-06
-6.32808e-06
1.68128e-06
-3.3025e-06
8.95382e-07
-1.41589e-06
4.13465e-07
-4.45063e-07
1.55193e-07
-8.70734e-08
4.28568e-08
6.78883e-09
-2.3242e-05
6.85043e-06
-1.62282e-05
4.77024e-06
-1.05577e-05
3.06979e-06
-6.24811e-06
1.8198e-06
-3.23819e-06
9.7083e-07
-1.37984e-06
4.48546e-07
-4.32099e-07
1.68322e-07
-8.40425e-08
4.64035e-08
7.26041e-09
-2.25689e-05
7.09087e-06
-1.57256e-05
4.95724e-06
-1.01905e-05
3.19847e-06
-5.99881e-06
1.8994e-06
-3.09145e-06
1.01391e-06
-1.31108e-06
4.68091e-07
-4.08767e-07
1.75159e-07
-7.84151e-08
4.79057e-08
7.33664e-09
-2.13241e-05
7.10788e-06
-1.48214e-05
4.98475e-06
-9.56513e-06
3.22156e-06
-5.60065e-06
1.91397e-06
-2.86841e-06
1.02024e-06
-1.20721e-06
4.68741e-07
-3.70877e-07
1.7315e-07
-6.7728e-08
4.57341e-08
6.44895e-09
-1.95794e-05
6.89507e-06
-1.35668e-05
4.84738e-06
-8.71202e-06
3.13395e-06
-5.06509e-06
1.85833e-06
-2.56697e-06
9.84594e-07
-1.05949e-06
4.45439e-07
-3.07971e-07
1.57405e-07
-4.13296e-08
3.45451e-08
1.72813e-09
1.68081e-07
8.4562e-10
8.6393e-07
8.51023e-09
2.75183e-06
2.71296e-08
6.29319e-06
6.95916e-08
1.16419e-05
1.38614e-07
1.87529e-05
2.27442e-07
2.75326e-05
3.178e-07
3.79142e-05
3.93875e-07
4.98701e-05
4.42076e-07
4.2225e-07
1.76821e-07
2.45229e-09
8.98584e-07
1.80175e-08
2.80384e-06
5.67215e-08
6.32447e-06
1.39536e-07
1.16137e-05
2.70286e-07
1.8633e-05
4.34928e-07
2.73025e-05
6.02176e-07
3.75749e-05
7.38487e-07
4.93961e-05
8.14005e-07
7.63038e-07
1.84643e-07
3.87042e-09
9.20249e-07
2.69995e-08
2.79251e-06
8.36693e-08
6.18993e-06
1.99106e-07
1.12775e-05
3.75326e-07
1.80466e-05
5.92135e-07
2.64493e-05
8.09018e-07
3.6461e-05
9.76384e-07
4.80238e-05
1.0491e-06
9.43904e-07
1.86229e-07
5.12555e-09
9.08025e-07
3.40529e-08
2.68616e-06
1.02952e-07
5.86548e-06
2.38024e-07
1.06314e-05
4.37883e-07
1.70267e-05
6.7723e-07
2.50441e-05
9.08393e-07
3.46754e-05
1.07076e-06
4.5876e-05
1.10651e-06
9.18945e-07
1.8071e-07
6.07381e-09
8.65562e-07
3.82009e-08
2.51594e-06
1.12509e-07
5.43824e-06
2.53024e-07
9.83473e-06
4.54466e-07
1.58026e-05
6.86464e-07
2.33803e-05
8.9564e-07
3.25762e-05
1.01461e-06
4.3352e-05
9.76101e-07
6.77596e-07
1.67923e-07
6.47461e-09
7.97613e-07
3.84114e-08
2.30409e-06
1.10913e-07
4.96445e-06
2.43146e-07
8.98904e-06
4.25554e-07
1.45195e-05
6.22838e-07
2.16397e-05
7.77032e-07
3.03822e-05
8.1594e-07
4.0713e-05
6.66915e-07
2.29527e-07
1.50429e-07
6.152e-09
7.15704e-07
3.45061e-08
2.07654e-06
9.82884e-08
4.49284e-06
2.09895e-07
8.17783e-06
3.54977e-07
1.33029e-05
4.93851e-07
1.99864e-05
5.64923e-07
2.82858e-05
4.92903e-07
3.81818e-05
2.02255e-07
-3.98713e-07
1.3224e-07
5.07228e-09
6.34805e-07
2.71462e-08
1.85989e-06
7.59685e-08
4.06182e-06
1.56168e-07
7.45892e-06
2.4809e-07
1.22402e-05
3.08245e-07
1.8545e-05
2.72645e-07
2.6448e-05
6.53114e-08
3.5948e-05
-3.89884e-07
-1.17181e-06
1.16629e-07
3.40207e-09
5.67294e-07
1.71788e-08
1.6797e-06
4.58459e-08
3.70732e-06
8.54714e-08
6.87643e-06
1.10914e-07
1.13865e-05
7.55262e-08
1.73894e-05
-8.54311e-08
2.49704e-05
-4.46822e-07
3.41393e-05
-1.08267e-06
-2.05596e-06
1.05545e-07
1.25431e-09
5.19847e-07
5.07512e-09
1.5539e-06
9.25315e-09
3.4598e-06
6.46013e-10
6.46845e-06
-5.12211e-08
1.07842e-05
-1.95282e-07
1.6567e-05
-4.95795e-07
2.39108e-05
-1.02497e-06
3.28267e-05
-1.85189e-06
-3.02141e-06
1.00433e-07
-1.34594e-09
4.96647e-07
-9.15217e-09
1.49212e-06
-3.37443e-08
3.33681e-06
-9.76858e-08
6.26047e-06
-2.36127e-07
1.04666e-05
-4.99246e-07
1.61174e-05
-9.49567e-07
2.33095e-05
-1.65483e-06
3.20498e-05
-2.67714e-06
-4.04231e-06
1.0317e-07
-4.57278e-09
5.03024e-07
-2.62301e-08
1.5037e-06
-8.46622e-08
3.35102e-06
-2.11567e-07
6.26795e-06
-4.45428e-07
1.04516e-05
-8.36132e-07
1.60591e-05
-1.44306e-06
2.31828e-05
-2.32836e-06
3.18213e-05
-3.54612e-06
-5.10213e-06
1.17793e-07
-9.0954e-09
5.49158e-07
-4.84739e-08
1.6051e-06
-1.47809e-07
3.52122e-06
-3.46635e-07
6.50723e-06
-6.84532e-07
1.07486e-05
-1.20947e-06
1.63934e-05
-1.97684e-06
2.35262e-05
-3.04321e-06
3.2133e-05
-4.45464e-06
-6.19434e-06
1.54425e-07
-1.68135e-08
6.57708e-07
-8.1849e-08
1.82741e-06
-2.3283e-07
3.87853e-06
-5.14115e-07
7.00208e-06
-9.63759e-07
1.13689e-05
-1.62683e-06
1.71172e-05
-2.55486e-06
2.43264e-05
-3.80043e-06
3.29736e-05
-5.40514e-06
-7.32138e-06
2.54196e-07
-3.53983e-08
8.91808e-07
-1.47627e-07
2.23719e-06
-3.65059e-07
4.48089e-06
-7.38473e-07
7.79502e-06
-1.30466e-06
1.23353e-05
-2.10595e-06
1.82318e-05
-3.19048e-06
2.55695e-05
-4.60996e-06
3.42791e-05
-6.39147e-06
-1.80421e-05
6.4463e-06
-1.24372e-05
4.53622e-06
-7.91555e-06
2.92281e-06
-4.53232e-06
1.71635e-06
-2.22876e-06
8.88199e-07
-8.50603e-07
3.77219e-07
-1.73181e-07
1.05346e-07
6.04793e-08
-9.36464e-09
-4.22976e-08
9.48404e-08
-1.56516e-05
5.75544e-06
-1.06549e-05
4.0339e-06
-6.62706e-06
2.55942e-06
-3.62589e-06
1.45185e-06
-1.59472e-06
6.89912e-07
-3.89021e-07
2.19271e-07
1.99004e-07
-3.1918e-08
4.08407e-07
-1.40713e-07
-1.78818e-07
4.74485e-07
-1.26198e-05
4.81718e-06
-8.29633e-06
3.31694e-06
-4.82208e-06
2.00335e-06
-2.24366e-06
1.01522e-06
-5.0693e-07
3.32812e-07
5.24671e-07
-9.13321e-08
1.04444e-06
-3.23702e-07
1.27617e-06
-4.36392e-07
-4.93949e-07
1.42719e-06
-8.83678e-06
-5.2242e-06
2.34439e-06
-2.31918e-06
1.21336e-06
-1.69461e-07
3.47678e-07
1.27864e-06
-2.52241e-07
2.1593e-06
-6.30372e-07
2.65358e-06
-8.49682e-07
2.96917e-06
-9.75769e-07
-1.06182e-06
3.26866e-06
-1.22087e-06
1.10761e-06
2.84948e-06
-6.24848e-07
4.04024e-06
-1.13906e-06
4.80758e-06
-1.47587e-06
5.32165e-06
-1.6868e-06
5.76924e-06
-1.83063e-06
-1.94727e-06
6.25577e-06
7.08968e-06
8.06299e-06
8.75866e-06
-2.69822e-06
9.32536e-06
-2.90162e-06
9.92972e-06
-3.06164e-06
-3.20507e-06
1.06185e-05
1.42569e-05
1.49132e-05
1.56898e-05
-4.71312e-06
-4.87991e-06
1.65792e-05
2.32216e-05
2.43474e-05
1.05364e-07
-2.50174e-08
1.25442e-07
-2.88786e-08
-3.86167e-08
1.82269e-07
5.30757e-07
-9.96894e-08
6.11579e-07
-1.11179e-07
-1.32428e-07
7.90006e-07
1.57723e-06
-2.70184e-07
1.74872e-06
-2.94401e-07
-3.3026e-07
2.05625e-06
3.55611e-06
-5.69683e-07
3.84329e-06
-6.09531e-07
-6.61091e-07
4.29406e-06
6.70173e-06
-1.02752e-06
7.11395e-06
-1.08415e-06
-1.15059e-06
7.71098e-06
1.12268e-05
-1.66886e-06
1.17614e-05
-1.74188e-06
-1.82066e-06
1.2495e-05
1.73397e-05
-2.51446e-06
1.79826e-05
-2.60184e-06
-2.6887e-06
1.88318e-05
2.52727e-05
2.59953e-05
-3.68248e-06
-3.76916e-06
2.69198e-05
3.58687e-05
3.68711e-05
5.67226e-07
-1.37609e-07
1.44364e-06
-2.95703e-07
3.07592e-06
-5.93473e-07
5.64486e-06
-1.06584e-06
9.31289e-06
-1.74944e-06
1.42275e-05
-2.68417e-06
2.05156e-05
-3.91467e-06
2.82761e-05
-5.49049e-06
-7.42426e-06
1.33039e-06
-3.66249e-07
2.49205e-06
-5.93062e-07
4.43209e-06
-9.78113e-07
7.32235e-06
-1.55154e-06
1.13142e-05
-2.34882e-06
1.65429e-05
-3.40689e-06
2.31254e-05
-4.76553e-06
3.11592e-05
-6.46823e-06
-8.52126e-06
2.82027e-06
-8.09016e-07
4.28083e-06
-1.10682e-06
6.53894e-06
-1.57804e-06
9.75108e-06
-2.24828e-06
1.4056e-05
-3.15022e-06
1.95724e-05
-4.31683e-06
2.64017e-05
-5.78244e-06
3.46187e-05
-7.5821e-06
-9.70592e-06
5.27952e-06
-1.52293e-06
7.02462e-06
-1.89184e-06
9.58417e-06
-2.44432e-06
1.30944e-05
-3.20264e-06
1.76767e-05
-4.19632e-06
2.34319e-05
-5.45416e-06
3.04406e-05
-7.00466e-06
3.87422e-05
-8.8734e-06
-1.10357e-05
8.908e-06
-2.55587e-06
1.09111e-05
-2.99317e-06
1.37367e-05
-3.61947e-06
1.75018e-05
-4.45381e-06
2.23085e-05
-5.52335e-06
2.82381e-05
-6.85316e-06
3.5345e-05
-8.46576e-06
4.36369e-05
-1.03791e-05
-1.25611e-05
1.38816e-05
-3.94779e-06
1.61064e-05
-4.44678e-06
1.91495e-05
-5.13657e-06
2.31111e-05
-6.033e-06
2.80753e-05
-7.16076e-06
3.41026e-05
-8.54164e-06
4.1222e-05
-1.01936e-05
4.94183e-05
-1.21296e-05
-1.4312e-05
2.03704e-05
-5.72963e-06
2.27665e-05
-6.27907e-06
2.59677e-05
-7.01886e-06
3.00566e-05
-7.962e-06
3.50999e-05
-9.12982e-06
4.11397e-05
-1.05412e-05
4.81852e-05
-1.22109e-05
5.62043e-05
-1.41484e-05
-1.63116e-05
2.85512e-05
-7.92168e-06
3.10487e-05
-8.5037e-06
3.43395e-05
-9.27758e-06
3.84774e-05
-1.02525e-05
4.35133e-05
-1.14423e-05
4.94753e-05
-1.2864e-05
5.6357e-05
-1.45303e-05
6.41157e-05
-1.64484e-05
-1.85718e-05
3.85773e-05
4.11191e-05
-1.11047e-05
4.44279e-05
-1.19123e-05
4.85278e-05
-1.29065e-05
5.34583e-05
-1.40997e-05
5.92475e-05
-1.55115e-05
6.58696e-05
-1.7154e-05
7.32779e-05
-1.90311e-05
-2.10924e-05
5.30105e-05
5.6324e-05
6.03585e-05
6.51081e-05
-1.70881e-05
7.06141e-05
-1.84807e-05
7.6868e-05
-2.00733e-05
8.38296e-05
-2.18861e-05
-2.38622e-05
7.84965e-05
8.37088e-05
8.95253e-05
-2.32557e-05
9.59273e-05
-2.49974e-05
-2.68555e-05
0.000103845
0.000109692
-3.00162e-05
)
;

boundaryField
{
    inlet
    {
        type            calculated;
        value           nonuniform 0();
    }
    outlet
    {
        type            calculated;
        value           nonuniform 0();
    }
    flap
    {
        type            calculated;
        value           uniform 0;
    }
    upperWall
    {
        type            calculated;
        value           nonuniform 0();
    }
    lowerWall
    {
        type            calculated;
        value           uniform 0;
    }
    frontAndBack
    {
        type            empty;
        value           nonuniform 0();
    }
    procBoundary4to1
    {
        type            processor;
        value           nonuniform List<scalar> 
30
(
3.57154e-06
4.04586e-06
9.60921e-07
8.71003e-08
-5.74443e-06
-2.00622e-06
-2.40783e-06
-1.35881e-05
-4.33685e-06
-4.53364e-06
-2.22391e-05
-6.75762e-06
-6.96804e-06
-3.57788e-06
-3.50589e-05
-4.90768e-06
-5.00849e-06
-1.04681e-05
-5.04233e-05
-1.39329e-05
-1.48134e-05
-1.58676e-05
-7.38933e-05
-2.02315e-05
-2.1671e-05
-9.83914e-05
-2.64855e-05
-2.82375e-05
-0.000124956
-3.31079e-05
)
;
    }
    procBoundary4to2
    {
        type            processor;
        value           nonuniform List<scalar> 
11
(
4.39515e-05
4.79892e-05
5.27218e-05
5.82851e-05
6.47834e-05
7.23311e-05
8.10472e-05
9.10609e-05
0.000102507
0.000115525
0.000130088
)
;
    }
    procBoundary4to3
    {
        type            processor;
        value           nonuniform List<scalar> 
19
(
1.67464e-05
1.71223e-05
1.79858e-05
1.93308e-05
2.10622e-05
2.3076e-05
2.5225e-05
2.7314e-05
2.91256e-05
3.04443e-05
3.10912e-05
3.09649e-05
3.00498e-05
2.84014e-05
2.61047e-05
2.41088e-05
2.10326e-05
1.72168e-05
1.25714e-05
)
;
    }
    procBoundary4to5
    {
        type            processor;
        value           nonuniform List<scalar> 
18
(
6.22209e-05
6.17363e-05
6.02531e-05
5.78833e-05
5.50679e-05
5.21033e-05
4.92398e-05
4.66861e-05
4.45883e-05
4.30288e-05
4.20495e-05
4.16603e-05
4.18455e-05
4.25792e-05
4.3768e-05
-8.45636e-06
3.73472e-05
4.04256e-05
)
;
    }
}


// ************************************************************************* //
