/*--------------------------------*- C++ -*----------------------------------*\
| =========                 |                                                 |
| \\      /  F ield         | OpenFOAM: The Open Source CFD Toolbox           |
|  \\    /   O peration     | Version:  dev                                   |
|   \\  /    A nd           | Web:      www.OpenFOAM.org                      |
|    \\/     M anipulation  |                                                 |
\*---------------------------------------------------------------------------*/
FoamFile
{
    version     2.0;
    format      ascii;
    class       surfaceVectorField;
    location    "3.62";
    object      Uf;
}
// * * * * * * * * * * * * * * * * * * * * * * * * * * * * * * * * * * * * * //

dimensions      [0 1 -1 0 0 0 0];

internalField   nonuniform List<vector> 
882
(
(9.9105 9.01187e-21 5.38864)
(10.1582 5.47103e-21 5.56175)
(10.254 5.05202e-21 5.27566)
(10.3149 5.54074e-21 6.01004)
(10.405 1.03827e-20 5.69281)
(10.5962 4.92721e-21 6.12739)
(10.5021 1.0107e-20 5.41087)
(10.5658 -5.12305e-22 5.13045)
(10.6882 9.81504e-21 5.81467)
(10.7428 1.0764e-20 5.50798)
(10.9168 -1.10744e-20 6.22903)
(10.9574 -4.20995e-22 5.89472)
(11.1947 -1.04407e-20 6.64827)
(11.2149 -1.06953e-20 6.28593)
(11.5204 0 6.67493)
(10.8088 1.63259e-22 5.23117)
(10.8444 -9.73166e-21 4.95921)
(11.015 3.15228e-22 5.59185)
(11.0397 1.94681e-20 5.29821)
(11.2594 0 5.95561)
(11.2688 -1.90808e-20 5.64011)
(11.546 0 6.31664)
(11.5352 1.91661e-20 5.98007)
(11.8782 1.96402e-23 6.66736)
(11.8419 -1.79739e-20 6.31189)
(12.2578 1.10572e-21 6.99831)
(12.1905 9.98255e-21 6.62793)
(12.5816 1.08636e-21 6.91908)
(11.0782 1.00265e-20 5.02925)
(11.0895 -9.79891e-21 4.76754)
(11.2971 -3.88247e-22 5.34949)
(11.2966 2.87624e-20 5.07016)
(11.5493 5.42993e-22 5.66748)
(11.5335 -3.78117e-20 5.37108)
(11.8369 7.58803e-22 5.97786)
(11.8021 1.88936e-20 5.66577)
(12.1613 -7.76313e-21 6.27415)
(12.1037 -1.74459e-20 5.94878)
(12.5226 9.96422e-21 6.54888)
(12.4383 1.87729e-20 6.21384)
(12.9187 0 6.79383)
(12.8052 -9.94782e-22 6.454)
(13.3456 3.67089e-21 7.00132)
(13.1969 -9.46965e-22 6.66189)
(13.6596 8.68744e-21 6.83212)
(13.7964 4.388e-22 7.13926)
(11.3113 9.37843e-21 4.81082)
(11.302 9.15265e-21 4.56033)
(11.5371 -9.55071e-21 5.09399)
(11.5159 1.76037e-20 4.82933)
(11.7913 -1.90286e-20 5.3713)
(11.7554 -2.76371e-20 5.09342)
(12.0747 2.45918e-22 5.63809)
(12.0214 -8.08645e-21 5.3486)
(12.3875 9.73874e-21 5.88903)
(12.314 8.48042e-21 5.5903)
(12.7285 7.54611e-21 6.11834)
(12.6324 -1.04364e-22 5.81355)
(13.0951 -1.96462e-21 6.31996)
(12.975 8.91811e-21 6.01319)
(13.4832 4.19279e-21 6.48878)
(13.335 -4.17957e-23 6.18402)
(13.7524 6.02713e-21 6.32279)
(13.887 -2.76158e-20 6.60082)
(11.5102 1.75784e-20 4.5806)
(11.4836 9.37369e-21 4.34171)
(11.7384 -9.10308e-22 4.83029)
(11.7002 2.58444e-20 4.58008)
(11.9904 -1.64337e-20 5.07186)
(11.9385 -2.57798e-20 4.81147)
(12.2663 3.45995e-22 5.30138)
(12.1987 -8.02913e-21 5.03247)
(12.5653 -1.60049e-21 5.51462)
(12.4801 8.18285e-21 5.23938)
(12.8857 1.30967e-21 5.70718)
(12.7814 -8.10755e-21 5.42835)
(13.2248 1.0888e-20 5.87474)
(13.1007 9.70199e-21 5.59562)
(13.5788 1.83818e-21 6.01394)
(13.4321 1.40807e-21 5.73759)
(13.8108 -4.01756e-22 5.85229)
(13.943 1.54193e-20 6.10632)
(11.6772 1.78433e-20 4.34241)
(11.6361 -1.63719e-20 4.1151)
(11.9045 3.805e-22 4.56218)
(11.8524 3.4094e-20 4.32587)
(12.1515 -1.717e-20 4.77257)
(12.0869 -1.80838e-20 4.52845)
(12.4177 -7.03386e-25 4.97038)
(12.3392 -1.68063e-20 4.72002)
(12.702 1.51815e-21 5.15229)
(12.6083 5.20615e-22 4.89764)
(13.0025 4.96903e-22 5.31505)
(12.8927 1.48536e-21 5.05843)
(13.3165 -9.04941e-24 5.45562)
(13.1902 -9.5278e-22 5.19964)
(13.6407 -8.8558e-22 5.57181)
(13.4961 -4.2885e-22 5.31884)
(13.8416 -1.38707e-20 5.41489)
(13.9713 3.12626e-20 5.64901)
(11.8149 2.80942e-22 4.09928)
(11.7619 -1.6862e-20 3.88325)
(12.0389 1.51864e-20 4.29252)
(11.9757 1.75912e-20 4.06933)
(12.2791 -1.77111e-20 4.47583)
(12.2046 -9.12768e-23 4.24665)
(12.5346 -1.62696e-20 4.64667)
(12.4478 -1.41647e-21 4.41292)
(12.8041 4.8718e-22 4.80249)
(12.7042 -1.44257e-20 4.56587)
(13.0857 -1.40994e-26 4.94092)
(12.9722 1.47084e-20 4.70334)
(13.377 -1.38299e-21 5.05985)
(13.2498 -1.41971e-20 4.8234)
(13.6752 -1.373e-20 5.15788)
(13.533 1.43721e-20 4.9244)
(13.8499 -1.32575e-20 5.00575)
(13.9772 -7.62291e-21 5.2232)
(11.9262 8.67452e-22 3.85358)
(11.8636 -5.78609e-22 3.64835)
(12.1452 1.94379e-21 4.02338)
(12.0732 -1.46654e-20 3.81245)
(12.3774 1.65984e-20 4.18322)
(12.2952 1.59414e-20 3.96765)
(12.6217 4.70003e-22 4.33109)
(12.5287 1.34281e-21 4.11217)
(12.8768 1.50202e-22 4.46508)
(12.7725 -2.36128e-22 4.24426)
(13.1409 1.63822e-22 4.58349)
(13.0251 1.5018e-20 4.36233)
(13.4118 1.97277e-21 4.68486)
(13.2846 -1.44964e-20 4.46504)
(13.6872 1.48526e-20 4.76835)
(13.5476 1.56609e-20 4.55129)
(13.8397 -4.36041e-22 4.62086)
(13.9646 -5.25666e-22 4.82418)
(12.0139 -1.64948e-20 3.6071)
(11.9435 -1.46978e-20 3.41209)
(12.2268 -3.28215e-22 3.75625)
(12.1479 -3.06678e-20 3.55665)
(12.4504 3.15773e-22 3.89573)
(12.3624 3.02198e-20 3.69252)
(12.6835 6.23452e-22 4.02399)
(12.5861 -2.84835e-20 3.81829)
(12.9249 1.50004e-20 4.13961)
(12.8177 2.9905e-20 3.93265)
(13.1728 -4.65303e-25 4.24139)
(13.0558 -1.38356e-20 4.03446)
(13.4255 -4.42741e-22 4.32835)
(13.2988 1.36467e-20 4.12278)
(13.6809 4.96307e-25 4.4)
(13.5439 1.26723e-20 4.19692)
(13.8145 -1.3328e-20 4.25686)
(13.937 -2.14689e-24 4.44813)
(11.8839 7.85815e-22 3.22234)
(11.8147 2.99352e-20 3.0414)
(12.0807 -2.92157e-20 3.36119)
(12.0043 -1.50025e-20 3.17575)
(12.2869 6.28192e-22 3.49214)
(12.2028 -1.50111e-20 3.30297)
(12.5016 7.15329e-22 3.61391)
(12.4095 1.52799e-20 3.4219)
(12.7238 1.52243e-21 3.72535)
(12.6234 -1.50822e-20 3.53145)
(12.9522 3.65846e-22 3.82541)
(12.8433 1.42379e-21 3.63066)
(13.1853 1.5138e-22 3.91325)
(13.0681 -2.36746e-22 3.71871)
(13.4216 2.70787e-20 3.98823)
(13.2962 1.42301e-20 3.79497)
(13.6594 -6.91803e-22 4.0501)
(13.5253 1.14464e-22 3.85903)
(13.7771 -3.50936e-22 3.91098)
(13.8971 -8.39607e-21 4.09186)
(11.9378 1.37597e-20 2.99436)
(11.8635 1.45722e-20 2.82162)
(12.1293 -4.54944e-22 3.1168)
(12.0484 -9.01819e-22 2.94028)
(12.3284 0 3.23168)
(12.2406 0 3.05208)
(12.5344 -9.04462e-22 3.33802)
(12.4394 -1.32297e-20 3.15612)
(12.7461 -1.51774e-20 3.43496)
(12.6439 -9.81811e-23 3.25158)
(12.9624 8.11011e-22 3.52173)
(12.8529 -7.27972e-22 3.33775)
(13.182 1.41908e-20 3.59777)
(13.0653 1.47576e-20 3.41406)
(13.4037 -1.33878e-20 3.66267)
(13.28 -2.16206e-22 3.48011)
(13.6259 4.95009e-22 3.71633)
(13.4948 -1.31748e-20 3.53564)
(13.7301 7.43803e-22 3.58085)
(13.8473 8.73364e-21 3.75274)
(11.9766 -4.46411e-22 2.76683)
(11.8984 0 2.60179)
(12.1624 -4.35729e-22 2.87457)
(12.0782 -4.42679e-22 2.70631)
(12.3544 -1.35516e-20 2.97523)
(12.264 0 2.80437)
(12.5517 -1.23995e-20 3.06806)
(12.4551 -1.37618e-20 2.89527)
(12.7535 1.47038e-20 3.15241)
(12.6505 8.25882e-22 2.97842)
(12.9586 1.35626e-20 3.22775)
(12.8493 2.71478e-20 3.05329)
(13.166 3.85121e-25 3.2937)
(13.0505 -1.32855e-20 3.11949)
(13.3744 3.75935e-25 3.35001)
(13.253 -1.25538e-20 3.17678)
(13.5829 -1.31902e-20 3.39668)
(13.4552 2.5576e-20 3.22503)
(13.6758 -3.82782e-20 3.26446)
(13.7901 2.09878e-20 3.42852)
(12.0024 4.01276e-24 2.54033)
(11.9215 -1.26498e-20 2.38249)
(12.1823 3.91676e-24 2.6349)
(12.096 1.37254e-20 2.47424)
(12.3673 -2.17677e-22 2.72293)
(12.2755 0 2.56002)
(12.5564 -2.12476e-22 2.80386)
(12.4591 -6.26053e-22 2.63928)
(12.7489 1.35777e-20 2.87722)
(12.646 0 2.71159)
(12.9437 -3.58271e-22 2.94263)
(12.8353 1.33739e-20 2.77659)
(13.1399 -2.61432e-20 2.99985)
(13.0263 -2.62196e-20 2.834)
(13.3366 1.36556e-20 3.04876)
(13.2179 -1.55722e-23 2.8837)
(13.5327 9.82701e-23 3.08942)
(13.4087 2.62923e-20 2.92563)
(13.6165 -1.35326e-20 2.96004)
(13.7275 1.27269e-20 3.11728)
(12.0174 1.40793e-21 2.31526)
(11.9348 -2.60316e-20 2.16409)
(12.1915 1.37194e-20 2.39797)
(12.1041 3.96227e-20 2.24428)
(12.3696 -4.18443e-22 2.47473)
(12.2773 -1.28927e-20 2.31901)
(12.551 -4.08445e-22 2.54511)
(12.4538 -2.19205e-22 2.3879)
(12.7348 -2.06923e-22 2.60879)
(12.6328 0 2.45061)
(12.9202 -1.31215e-20 2.66551)
(12.8135 -2.06895e-22 2.5069)
(13.1064 5.4615e-22 2.71512)
(12.9952 -1.31126e-20 2.5566)
(13.2925 1.29408e-20 2.75757)
(13.177 1.31526e-20 2.59964)
(13.4778 1.25574e-20 2.79296)
(13.3578 4.35597e-24 2.63604)
(13.5541 1.24579e-20 2.66602)
(13.6614 -4.89499e-20 2.81734)
(12.0236 1.31179e-20 2.09178)
(11.9402 -1.33923e-20 1.94676)
(12.192 1.23582e-20 2.16377)
(12.1043 2.61875e-20 2.01642)
(12.3637 -1.26866e-20 2.23041)
(12.2717 -2.54761e-20 2.08119)
(12.5378 1.99226e-22 2.29138)
(12.4416 1.29014e-20 2.14076)
(12.7137 0 2.34646)
(12.6133 -1.92172e-22 2.1949)
(12.8905 -1.99591e-22 2.39549)
(12.7861 0 2.24344)
(13.0677 -1.94829e-22 2.43838)
(12.9594 1.20329e-20 2.2863)
(13.2444 -9.82327e-23 2.47514)
(13.1324 -1.23587e-20 2.32344)
(13.42 -9.58894e-23 2.50587)
(13.3043 -4.31661e-24 2.35492)
(13.4905 -1.17295e-20 2.38095)
(13.5938 -5.47937e-23 2.52714)
(12.0229 0 1.86993)
(11.9395 0 1.7305)
(12.186 -1.25704e-20 1.93216)
(12.0988 0 1.79054)
(12.3516 7.37378e-22 1.98965)
(12.2606 -1.25685e-20 1.84623)
(12.519 1.24986e-20 2.04217)
(12.4244 2.47325e-20 1.89737)
(12.6877 -1.92146e-22 2.08956)
(12.5895 -1.21515e-20 1.94378)
(12.8568 1.25299e-20 2.13172)
(12.7552 0 1.98537)
(13.0259 -4.30402e-22 2.16862)
(12.921 1.24353e-20 2.02209)
(13.1943 -1.2261e-20 2.20028)
(13.0863 -1.25649e-20 2.05395)
(13.3614 -1.19208e-20 2.22684)
(13.2502 -1.16169e-20 2.081)
(13.4276 -2.70222e-22 2.10346)
(13.5266 2.00482e-20 2.2453)
(12.0172 0 1.64947)
(11.9343 0 1.51517)
(12.1753 0 1.70277)
(12.0891 1.16424e-20 1.56633)
(12.3353 1.20135e-20 1.75193)
(12.2459 -2.35015e-20 1.61371)
(12.4967 -5.20283e-22 1.79677)
(12.4041 3.54844e-20 1.65715)
(12.6588 -1.1953e-20 1.8372)
(12.5633 -2.40804e-20 1.69654)
(12.8211 -9.52118e-23 1.87316)
(12.7227 0 1.73182)
(12.983 1.90566e-24 1.90466)
(12.8819 -9.50316e-23 1.76297)
(13.144 -1.19051e-20 1.93172)
(13.0404 9.4834e-23 1.79002)
(13.3036 1.47565e-22 1.95449)
(13.1974 -6.14881e-22 1.81304)
(13.3671 5.69715e-22 1.83222)
(13.4613 7.7605e-21 1.97037)
(12.0081 1.19258e-20 1.43031)
(11.9264 2.28651e-20 1.30047)
(12.1615 -1.24335e-20 1.47537)
(12.077 3.71554e-22 1.34338)
(12.3165 5.46693e-22 1.51686)
(12.2293 -2.42482e-20 1.38306)
(12.4725 1.13435e-20 1.55467)
(12.3826 2.40401e-20 1.41941)
(12.6289 -1.18351e-20 1.58875)
(12.5365 -1.2212e-20 1.45234)
(12.7851 1.82517e-25 1.61906)
(12.6904 0 1.48183)
(12.9408 1.78163e-25 1.64561)
(12.8438 8.9078e-23 1.50787)
(13.0954 1.16579e-20 1.66848)
(12.9964 -1.11952e-20 1.53052)
(13.2484 -1.96641e-22 1.68776)
(13.1474 2.30609e-20 1.54982)
(13.3105 -2.28383e-20 1.56596)
(13.3996 -7.57141e-21 1.70126)
(11.9971 1.10274e-20 1.21159)
(11.917 2.34178e-20 1.08598)
(12.1465 -1.17334e-20 1.24896)
(12.064 -1.18315e-20 1.12115)
(12.2971 -1.78583e-22 1.28334)
(12.2123 1.09599e-20 1.15364)
(12.4483 -9.13275e-23 1.31465)
(12.3614 -2.19069e-22 1.18337)
(12.5996 -8.9147e-23 1.34285)
(12.5107 -3.17153e-22 1.21029)
(12.7506 9.10486e-23 1.36793)
(12.6598 -1.12483e-20 1.23439)
(12.9009 -1.13784e-20 1.38992)
(12.8084 1.10781e-20 1.25569)
(13.05 4.90787e-22 1.40888)
(12.9559 -2.26604e-20 1.27422)
(13.1975 2.87319e-23 1.4249)
(13.1018 7.71215e-22 1.29004)
(13.2592 1.05763e-20 1.3033)
(13.3431 4.46578e-20 1.43614)
(11.9857 0 0.993657)
(11.9077 -1.07603e-20 0.87114)
(12.1315 1.1414e-20 1.0238)
(12.0516 1.08877e-20 0.898969)
(12.2783 1.0916e-20 1.0515)
(12.1965 7.96869e-22 0.924651)
(12.4254 -4.51332e-22 1.07671)
(12.3419 1.06861e-20 0.948137)
(12.5725 -1.17487e-20 1.09941)
(12.4875 -6.1088e-23 0.969401)
(12.7191 7.32131e-24 1.11961)
(12.6326 -1.15202e-20 0.988439)
(12.8648 -4.82263e-22 1.13734)
(12.7771 1.12527e-20 1.00527)
(13.0092 -2.23672e-20 1.15264)
(12.9204 -1.15075e-20 1.01993)
(13.152 1.14325e-20 1.16561)
(13.0622 -2.18491e-20 1.03247)
(13.215 3.33344e-20 1.04302)
(13.2929 -1.10892e-20 1.17476)
(11.9753 3.94723e-22 0.774074)
(11.8997 -1.1103e-20 0.655263)
(12.1182 1.23521e-23 0.797316)
(12.041 1.12338e-20 0.676039)
(12.2618 5.62753e-22 0.818657)
(12.1832 -2.14843e-20 0.6952)
(12.4056 1.10832e-20 0.838069)
(12.3257 2.19921e-20 0.712715)
(12.5492 1.70128e-22 0.855544)
(12.4682 1.06208e-20 0.728568)
(12.6922 0 0.871089)
(12.6102 -2.12514e-20 0.742761)
(12.8342 -4.33207e-23 0.884731)
(12.7513 1.77115e-22 0.755309)
(12.9749 -1.09782e-20 0.89651)
(12.8913 1.06994e-20 0.766241)
(13.1139 3.07473e-22 0.906498)
(13.0298 -2.13628e-20 0.775594)
(13.1788 2.17824e-20 0.783457)
(13.2511 7.19803e-21 0.913538)
(11.9671 2.38676e-24 0.555331)
(11.8941 4.33894e-23 0.437561)
(12.1076 -1.07875e-20 0.571931)
(12.0335 1.76061e-22 0.451474)
(12.2487 4.71039e-22 0.587176)
(12.1736 -5.63254e-21 0.4643)
(12.3899 2.15169e-20 0.601049)
(12.314 1.62448e-20 0.476021)
(12.5307 -1.1324e-20 0.613546)
(12.4541 5.47406e-21 0.48663)
(12.6709 -2.10661e-20 0.624677)
(12.5938 -2.1765e-20 0.496132)
(12.81 1.1182e-20 0.634462)
(12.7325 2.22e-22 0.504541)
(12.9478 5.97176e-23 0.642933)
(12.8701 1.10024e-20 0.511882)
(13.0838 3.67214e-22 0.650143)
(13.0061 -1.07005e-20 0.518189)
(13.1524 1.09229e-20 0.523545)
(13.2179 7.10815e-21 0.655248)
(11.9623 2.21454e-22 0.330618)
(11.7986 1.70552e-22 0.217096)
(12.1012 5.45501e-21 0.340615)
(11.9346 9.32369e-23 0.224218)
(12.2405 1.05265e-20 0.34978)
(12.0714 5.36288e-21 0.230781)
(12.3799 -1.87633e-22 0.358105)
(12.2084 5.2704e-21 0.236779)
(12.5188 -5.22411e-21 0.365594)
(12.3454 -5.37097e-21 0.242208)
(12.657 4.15252e-23 0.372254)
(12.4819 0 0.247071)
(12.7941 4.05345e-23 0.378103)
(12.6175 4.15197e-23 0.251376)
(12.9299 -2.06739e-23 0.383165)
(12.752 0 0.255137)
(13.064 -2.01807e-23 0.387487)
(12.8851 -1.27432e-21 0.258369)
(13.0283 1.27731e-21 0.261125)
(13.1962 2.92375e-24 0.39051)
(11.7703 3.95426e-23 0.109265)
(11.9042 0 0.112939)
(12.0386 -2.03673e-23 0.116321)
(12.1732 -4.0256e-23 0.119408)
(12.3077 -1.98886e-23 0.122197)
(12.4416 0 0.124691)
(12.5745 0 0.126894)
(12.7062 -1.28411e-21 0.128811)
(12.8365 3.98615e-23 0.13046)
(12.9649 -2.07671e-21 0.131589)
(13.9204 -2.41742e-20 6.89387)
(14.0891 -1.18219e-20 6.64056)
(13.9859 -1.23445e-20 6.37355)
(14.2942 7.6026e-22 6.67819)
(14.2077 -8.03987e-22 6.41339)
(14.3949 -1.03493e-20 6.44337)
(14.5013 -6.50827e-21 6.70377)
(14.1246 -1.17427e-21 6.13945)
(14.0213 3.48267e-20 5.8946)
(14.3086 -1.20666e-20 6.17122)
(14.221 -3.43618e-20 5.92812)
(14.3895 2.07013e-20 5.95381)
(14.4942 0 6.19513)
(14.1357 1.24719e-21 5.677)
(14.0327 2.46538e-20 5.45064)
(14.3019 -1.46388e-21 5.70412)
(14.2138 8.6434e-23 5.47921)
(14.3665 2.13666e-20 5.50144)
(14.4693 2.01717e-20 5.72564)
(14.1269 2.37256e-20 5.24714)
(14.0245 2.65179e-22 5.03632)
(14.2781 2.32128e-20 5.27057)
(14.1898 4.44483e-20 5.06097)
(14.3292 -2.12453e-20 5.0804)
(14.4303 -7.12536e-21 5.28982)
(14.102 2.12018e-20 4.84488)
(14.0002 -1.8416e-22 4.64724)
(14.2404 -2.94655e-22 4.86534)
(14.1521 2.18909e-20 4.6687)
(14.2801 -1.11295e-21 4.68586)
(14.3796 -2.15664e-20 4.88261)
(14.0636 2.56297e-22 4.46617)
(13.9628 3.45826e-22 4.2798)
(14.1911 2.13299e-20 4.48417)
(14.103 7.37719e-24 4.29863)
(14.2213 4.21966e-20 4.31386)
(14.3193 2.07021e-20 4.49973)
(14.0144 9.49154e-23 4.10768)
(13.9148 2.70751e-22 3.93103)
(14.1325 2.0872e-20 4.12361)
(14.045 -9.44735e-24 3.94763)
(14.1548 4.20947e-20 3.96121)
(14.2511 2.81067e-20 4.13767)
(13.9566 1.67208e-22 3.76667)
(13.8586 2.1612e-20 3.59845)
(14.0665 2.12207e-20 3.78081)
(13.98 9.11551e-23 3.61312)
(14.0824 2.11353e-20 3.62526)
(14.1768 2.03878e-20 3.79352)
(13.8923 2.17925e-20 3.44081)
(13.7962 4.38281e-20 3.27993)
(13.995 -2.49013e-22 3.45339)
(13.9098 2.05248e-20 3.29292)
(14.0058 -4.08636e-20 3.30377)
(14.0981 -1.10182e-22 3.46489)
(13.8234 4.28094e-20 3.12814)
(13.7297 -1.981e-20 2.97365)
(13.9198 -2.03343e-20 3.13933)
(13.8365 6.23696e-20 2.98514)
(13.9268 -6.21765e-20 2.99483)
(14.0165 -4.02779e-20 3.14971)
(13.7518 -6.3908e-22 2.82691)
(13.6609 -4.29911e-20 2.67796)
(13.8427 2.10119e-20 2.83684)
(13.7618 6.22273e-20 2.68811)
(13.8471 -4.08905e-20 2.69672)
(13.9338 -2.77312e-20 2.84618)
(13.6794 2.02597e-20 2.53555)
(13.5918 2.04196e-20 2.39138)
(13.7654 6.67687e-23 2.54433)
(13.6875 2.05219e-20 2.40029)
(13.7683 -1.0313e-21 2.40791)
(13.8516 -2.7157e-20 2.55268)
(13.6079 2.06868e-20 2.25265)
(13.524 2.09167e-20 2.1125)
(13.6895 1.96564e-20 2.26036)
(13.6151 -3.88359e-23 2.12027)
(13.6921 1.99092e-20 2.12696)
(13.7714 2.63349e-20 2.26777)
(13.5389 -5.86276e-23 1.97673)
(13.4592 -1.73188e-24 1.83999)
(13.6168 -1.92779e-23 1.98343)
(13.5463 1.90552e-20 1.8467)
(13.6199 -2.35047e-22 1.85249)
(13.6949 -1.41056e-23 1.98994)
(13.474 1.93456e-20 1.7067)
(13.3989 3.83117e-20 1.5725)
(13.5486 1.90657e-20 1.71245)
(13.4825 5.41359e-22 1.57819)
(13.5533 1.82193e-20 1.58312)
(13.6234 -1.4391e-20 1.71808)
(13.4147 1.94176e-20 1.4407)
(13.3446 2.03173e-20 1.30876)
(13.4865 -5.37418e-22 1.44552)
(13.4253 -1.0958e-21 1.31347)
(13.4936 5.7836e-22 1.31758)
(13.5585 1.12431e-20 1.45028)
(13.3622 -5.25637e-22 1.17847)
(13.2978 -1.93549e-20 1.04726)
(13.4318 2.67247e-23 1.18243)
(13.3761 1.88105e-20 1.05101)
(13.4424 -1.0059e-21 1.05428)
(13.5015 -1.81404e-20 1.18634)
(13.3185 -9.21572e-24 0.9164)
(13.2597 -9.60414e-24 0.786821)
(13.3861 1.79903e-20 0.919451)
(13.336 4.09626e-25 0.789645)
(13.4008 7.82358e-22 0.792137)
(13.4539 1.0811e-20 0.922493)
(13.284 1.34009e-25 0.65733)
(13.2317 1.11506e-23 0.525499)
(13.3502 -1.76328e-20 0.659549)
(13.3066 -1.09815e-23 0.52736)
(13.3701 -1.78327e-20 0.528945)
(13.4167 -1.70928e-20 0.661761)
(13.2611 3.17939e-26 0.391678)
(13.1059 -2.15158e-21 0.262481)
(13.3263 -2.14531e-24 0.392887)
(13.1792 2.14845e-21 0.263303)
(13.2414 -2.09675e-21 0.264063)
(13.3916 -3.14013e-24 0.394104)
(13.0282 6.01007e-24 0.131986)
(13.0916 5.4108e-23 0.132386)
(13.1552 -2.05977e-21 0.132829)
(14.7344 1.13422e-20 6.47433)
(14.8732 0 6.21331)
(14.6954 -1.23235e-20 5.98482)
(15.2498 4.35583e-21 6.1857)
(15.0211 0 5.9842)
(15.6109 3.92388e-21 6.11174)
(15.3787 1.36279e-20 5.94408)
(15.729 -1.75733e-20 5.86212)
(14.8128 -1.26201e-20 5.74721)
(14.6436 -2.3663e-20 5.53042)
(15.1596 9.1684e-21 5.73441)
(14.9406 1.11412e-20 5.53613)
(15.5018 -7.88475e-21 5.68715)
(15.2717 9.38908e-21 5.51246)
(15.8309 -9.52938e-21 5.60466)
(15.6049 -1.74566e-20 5.45691)
(16.1388 8.16839e-21 5.48867)
(15.9218 5.13604e-22 5.37013)
(16.2168 1.43276e-20 5.25402)
(14.7427 -5.24872e-22 5.31181)
(14.5818 3.44405e-24 5.107)
(15.0606 1.14094e-20 5.30677)
(14.8532 3.46476e-22 5.11554)
(15.3789 7.14151e-23 5.27519)
(15.1579 9.74984e-21 5.10129)
(15.6919 -7.57893e-21 5.21608)
(15.4691 -9.52917e-21 5.06206)
(15.994 6.48135e-21 5.13022)
(15.7716 -7.85283e-21 4.99799)
(16.28 1.7441e-21 5.01917)
(16.0613 7.46498e-21 4.91007)
(16.5452 -7.25124e-21 4.88513)
(16.336 -1.25561e-20 4.79981)
(16.5924 1.25158e-20 4.66928)
(14.6655 8.47159e-22 4.90399)
(14.512 -8.58803e-23 4.71019)
(14.9573 -1.57952e-21 4.90338)
(14.7611 -2.22483e-20 4.72007)
(15.2518 2.56359e-22 4.88165)
(15.0418 1.05756e-20 4.71169)
(15.545 -9.84967e-21 4.83784)
(15.3309 -1.39982e-22 4.6832)
(15.833 -7.22239e-21 4.77233)
(15.6154 -8.31825e-21 4.63453)
(16.1121 -6.69967e-21 4.68601)
(15.8924 6.35018e-22 4.56625)
(16.3786 7.09704e-21 4.58021)
(16.1607 6.93461e-22 4.47923)
(16.6293 6.72874e-21 4.45675)
(16.4176 6.55147e-21 4.37478)
(16.6604 6.94553e-24 4.25466)
(14.5824 -2.28714e-20 4.52016)
(14.4354 -1.25924e-20 4.33613)
(14.8515 -1.04442e-20 4.52231)
(14.6654 -2.22754e-20 4.34663)
(15.1241 1.04122e-20 4.50726)
(14.9249 5.22929e-22 4.34221)
(15.3976 1.62518e-21 4.47412)
(15.1936 9.92879e-21 4.32129)
(15.669 -4.9252e-22 4.42306)
(15.4599 -8.50204e-21 4.28368)
(15.9357 8.20656e-21 4.35459)
(15.7219 8.33386e-21 4.22971)
(16.1949 0 4.26957)
(15.9789 7.15079e-21 4.1599)
(16.4439 -1.7502e-22 4.16919)
(16.229 -6.99788e-21 4.07509)
(16.4699 -1.79224e-22 3.97649)
(14.4947 -1.14742e-20 4.15701)
(14.3535 -1.25425e-20 3.9816)
(14.7439 -1.14436e-20 4.16098)
(14.5668 -2.23244e-20 3.9923)
(14.9971 -8.32103e-23 4.15074)
(14.8079 1.0629e-20 3.99069)
(15.2523 0 4.12547)
(15.0582 3.78865e-23 3.97536)
(15.5073 1.25889e-22 4.08521)
(15.3077 -8.65447e-21 3.9461)
(15.7601 7.28074e-21 4.03023)
(15.5548 8.53183e-21 3.90305)
(16.0084 3.17659e-22 3.96107)
(15.7991 7.32378e-21 3.84649)
(16.2502 -7.16602e-21 3.87856)
(16.0393 -7.16717e-21 3.77699)
(16.2735 0 3.69537)
(14.4033 -2.31383e-20 3.81172)
(14.2676 -1.2178e-20 3.6439)
(14.6353 -3.95736e-22 3.81688)
(14.4665 -1.12254e-20 3.65454)
(14.8714 1.10077e-20 3.81022)
(14.6913 2.09622e-20 3.65494)
(15.1102 -8.61679e-21 3.79098)
(14.9255 -9.82989e-21 3.64388)
(15.3499 -4.64566e-22 3.7591)
(15.1597 -8.8638e-21 3.6211)
(15.5889 8.6052e-21 3.71471)
(15.3927 8.54048e-21 3.58664)
(15.8255 0 3.65812)
(15.6246 -7.50199e-21 3.54064)
(16.058 0 3.58988)
(15.8541 1.42585e-20 3.48343)
(16.0799 -6.77007e-21 3.4156)
(14.3096 0 3.48189)
(14.1793 2.29354e-20 3.32078)
(14.5265 9.99248e-21 3.48781)
(14.3654 -1.11342e-20 3.33114)
(14.7476 2.7663e-22 3.48383)
(14.5761 1.02329e-20 3.33297)
(14.9717 -1.0106e-20 3.46929)
(14.7959 -7.24137e-22 3.32519)
(15.1975 -6.59202e-23 3.44406)
(15.0164 -9.21503e-21 3.30753)
(15.4237 -7.57055e-21 3.40817)
(15.2367 -6.89231e-23 3.27997)
(15.6488 6.58343e-21 3.36179)
(15.4567 -7.68345e-21 3.24254)
(15.8715 7.82469e-21 3.30526)
(15.6758 1.46034e-20 3.19543)
(15.8927 -3.27432e-22 3.13902)
(14.215 1.25678e-20 3.16549)
(14.09 2.349e-20 3.01028)
(14.4186 -1.14022e-20 3.17181)
(14.265 -1.13196e-20 3.02022)
(14.6264 9.38432e-21 3.16984)
(14.4631 0 3.02302)
(14.8375 3.78903e-22 3.15899)
(14.6702 2.33772e-22 3.01776)
(15.0508 -9.43826e-21 3.13909)
(14.8785 -2.47449e-22 3.00417)
(15.2652 -1.61026e-24 3.11012)
(15.0872 6.34602e-23 2.98219)
(15.4795 0 3.07214)
(15.2964 6.19567e-23 2.95179)
(15.6927 6.60744e-21 3.02536)
(15.5057 0 2.91306)
(15.7139 6.22975e-23 2.86624)
(14.1208 8.37589e-23 2.86072)
(14.0012 0 2.71069)
(14.3127 8.57643e-23 2.86717)
(14.1664 1.05638e-20 2.72007)
(14.5088 -9.37746e-21 2.86669)
(14.3534 -1.02509e-20 2.7235)
(14.7083 -3.97431e-22 2.85872)
(14.5493 -9.60775e-21 2.72015)
(14.9103 9.47643e-21 2.84313)
(14.7468 1.82086e-20 2.70981)
(15.1141 1.28466e-22 2.81982)
(14.945 -8.50517e-21 2.69236)
(15.3185 6.34462e-23 2.7888)
(15.1444 2.59422e-24 2.66776)
(15.5227 -6.70467e-21 2.7502)
(15.3446 0 2.63601)
(15.5446 -6.86575e-21 2.59729)
(14.0285 1.04793e-20 2.56595)
(13.9144 -2.75476e-22 2.42044)
(14.21 3.99653e-22 2.57233)
(14.071 -1.02562e-20 2.42917)
(14.3958 -1.05023e-20 2.57291)
(14.2483 -3.74238e-22 2.43293)
(14.585 8.79219e-21 2.5672)
(14.4343 9.03616e-24 2.43103)
(14.7771 4.4037e-22 2.55506)
(14.6221 2.30011e-22 2.42325)
(14.9712 -8.83856e-21 2.5364)
(14.811 7.89544e-21 2.40949)
(15.1666 -6.22041e-23 2.51118)
(15.0016 -8.13352e-21 2.38968)
(15.3625 0 2.47945)
(15.1935 7.29166e-21 2.36379)
(15.3858 -7.02237e-21 2.33193)
(13.9394 -2.10968e-20 2.27976)
(13.8311 -3.03334e-22 2.13809)
(14.112 -1.12948e-20 2.28589)
(13.9802 -2.15152e-20 2.14607)
(14.2886 1.0382e-20 2.28718)
(14.149 1.03694e-20 2.14994)
(14.4687 -8.76546e-21 2.28322)
(14.3263 5.08389e-24 2.14909)
(14.6519 7.68131e-21 2.27386)
(14.5056 -3.20761e-22 2.14333)
(14.8375 9.00467e-21 2.25902)
(14.6863 8.65966e-21 2.13258)
(15.0247 -9.72667e-22 2.23863)
(14.8689 -8.20591e-21 2.11674)
(15.2131 4.3957e-22 2.21271)
(15.0533 7.35441e-21 2.09577)
(15.2387 -7.19219e-21 2.06972)
(13.8552 -4.19754e-23 2.00062)
(13.7529 -2.13079e-20 1.86223)
(14.0198 -2.07539e-23 2.00637)
(13.8954 1.0296e-20 1.86941)
(14.1884 -9.05195e-24 2.00809)
(14.0568 0 1.87319)
(14.3606 8.66177e-21 2.00545)
(14.2265 -9.26973e-24 1.87308)
(14.536 4.64856e-22 1.99833)
(14.3983 8.87961e-21 1.8689)
(14.7139 -8.55991e-21 1.98662)
(14.5718 -8.6215e-21 1.86058)
(14.8939 -5.14622e-23 1.97027)
(14.7474 -7.52488e-21 1.84803)
(15.0754 -1.16106e-22 1.94925)
(14.9251 2.42283e-22 1.8312)
(15.1043 1.37473e-20 1.81011)
(13.777 -1.16358e-20 1.72744)
(13.681 -4.27298e-20 1.59152)
(13.9348 1.0565e-20 1.73268)
(13.8179 3.05991e-20 1.59782)
(14.0965 0 1.73461)
(13.9729 -9.67311e-21 1.60137)
(14.2618 0 1.73296)
(14.1361 0 1.60173)
(14.4304 0 1.72762)
(14.3015 8.47019e-21 1.59877)
(14.6016 -7.58782e-21 1.71849)
(14.4686 -3.17278e-22 1.59243)
(14.7752 -7.40853e-21 1.70552)
(14.6382 -2.30826e-20 1.58262)
(14.9506 1.41196e-20 1.68868)
(14.81 1.47273e-20 1.56928)
(14.9837 7.11447e-21 1.55242)
(13.7064 -1.54427e-21 1.45829)
(13.617 -1.12735e-20 1.32458)
(13.8584 1.0783e-20 1.46292)
(13.7491 1.05621e-20 1.32996)
(14.0142 -9.90584e-21 1.46487)
(13.8987 -1.915e-20 1.33313)
(14.1736 8.47119e-21 1.46392)
(14.0563 9.03897e-21 1.33375)
(14.3362 8.36159e-21 1.45999)
(14.2163 8.62548e-21 1.33172)
(14.5018 -1.56371e-20 1.45298)
(14.3781 -2.93794e-22 1.32698)
(14.6699 -1.31625e-21 1.44284)
(14.5424 -1.56825e-20 1.31945)
(14.84 7.7364e-21 1.42955)
(14.7093 7.71889e-21 1.30909)
(14.8782 -3.46506e-22 1.29588)
(13.6446 5.89836e-22 1.19299)
(13.5621 -9.74015e-21 1.06)
(13.7917 -1.94388e-20 1.19693)
(13.6902 -4.38603e-22 1.06439)
(13.9426 -3.75232e-22 1.19876)
(13.8354 -9.46869e-21 1.06709)
(14.0971 9.20694e-21 1.19831)
(13.9885 1.7895e-20 1.06781)
(14.2548 -1.95027e-23 1.19549)
(14.144 -1.66626e-20 1.06647)
(14.4155 3.18933e-23 1.19025)
(14.3014 8.04048e-21 1.06303)
(14.5789 -6.98954e-21 1.18253)
(14.4614 7.3182e-21 1.05742)
(14.7446 -3.65894e-22 1.1723)
(14.624 -1.43191e-20 1.04961)
(14.789 1.34858e-20 1.03957)
(13.5932 -1.10072e-20 0.927704)
(13.5176 -1.06532e-20 0.796325)
(13.7364 9.98972e-21 0.930854)
(13.6427 9.99301e-21 0.799699)
(13.8833 8.63619e-21 0.932412)
(13.7844 -2.29959e-24 0.801819)
(14.0337 -7.77818e-21 0.932235)
(13.9339 8.83787e-21 0.802497)
(14.1875 -9.00663e-21 0.930272)
(14.0858 -1.70295e-20 0.801667)
(14.3443 1.55203e-20 0.926472)
(14.2397 5.83354e-22 0.79929)
(14.5038 3.30181e-22 0.920788)
(14.3963 1.49509e-20 0.795322)
(14.6658 -7.97839e-22 0.913194)
(14.5556 -7.30754e-21 0.789727)
(14.7174 6.64208e-21 0.782495)
(13.5531 1.02209e-20 0.665581)
(13.485 1.02173e-20 0.53195)
(13.6932 0 0.667954)
(13.6078 0 0.534227)
(13.8371 -8.40791e-24 0.669207)
(13.7469 -4.36917e-21 0.535753)
(13.9845 -2.45834e-23 0.669238)
(13.8937 8.43117e-21 0.536301)
(14.1352 -7.63607e-21 0.668012)
(14.043 -4.06746e-21 0.535837)
(14.289 -3.47582e-22 0.665497)
(14.1943 -4.06389e-21 0.53435)
(14.4456 7.66215e-21 0.661657)
(14.3483 4.40734e-22 0.531813)
(14.6048 -2.30297e-23 0.656471)
(14.5052 3.46168e-21 0.528199)
(14.6646 -3.94539e-23 0.523498)
(13.526 -4.83226e-24 0.396311)
(13.3537 1.19429e-21 0.265125)
(13.664 -4.36963e-21 0.397761)
(13.4739 0 0.266528)
(13.8057 3.98867e-21 0.398527)
(13.61 -4.47476e-21 0.267374)
(13.9509 4.58656e-21 0.398535)
(13.7537 1.06851e-20 0.267674)
(14.0994 -4.09088e-22 0.397782)
(13.8999 -6.14687e-21 0.26747)
(14.2511 -3.36607e-21 0.396256)
(14.0481 3.82939e-21 0.26676)
(14.4057 -3.93318e-21 0.393937)
(14.1991 -7.36919e-21 0.265519)
(14.5628 3.52906e-21 0.39081)
(14.3529 3.51702e-21 0.263731)
(14.5092 6.03318e-25 0.261392)
(13.2855 1.22796e-21 0.133752)
(13.4197 0 0.134451)
(13.5575 2.04162e-21 0.134901)
(13.6988 9.01145e-23 0.135073)
(13.8434 -2.04587e-21 0.134974)
(13.991 0 0.134603)
(14.1415 0 0.133948)
(14.2945 -1.22896e-23 0.133006)
)
;

boundaryField
{
    inlet
    {
        type            calculated;
        value           nonuniform 0();
    }
    outlet
    {
        type            calculated;
        value           nonuniform 0();
    }
    flap
    {
        type            calculated;
        value           nonuniform 0();
    }
    upperWall
    {
        type            calculated;
        value           uniform (0 0 0);
    }
    lowerWall
    {
        type            calculated;
        value           nonuniform 0();
    }
    frontAndBack
    {
        type            empty;
        value           nonuniform 0();
    }
    procBoundary1to0
    {
        type            processor;
        value           nonuniform List<vector> 
18
(
(11.7211 1.72516e-20 3.67582)
(11.8124 -9.83588e-22 3.44988)
(11.7499 1.48332e-20 3.26029)
(11.6972 1.57094e-20 3.07688)
(11.7548 2.9438e-20 2.86541)
(11.7978 -8.80367e-22 2.65281)
(11.8282 1.41807e-20 2.43986)
(11.848 -1.29579e-20 2.22708)
(11.859 -2.59094e-20 2.01481)
(11.863 -3.89738e-22 1.80321)
(11.8617 -1.23558e-20 1.59221)
(11.8566 1.83826e-22 1.38182)
(11.8494 3.47481e-20 1.17131)
(11.8412 1.73972e-22 0.961148)
(11.8335 -1.10558e-22 0.748979)
(11.8274 -8.46778e-23 0.537406)
(11.8242 1.04324e-20 0.319803)
(11.6376 4.05122e-23 0.105308)
)
;
    }
    procBoundary1to2
    {
        type            processor;
        value           nonuniform List<vector> 
17
(
(16.8616 3.42268e-22 4.31786)
(16.6806 -3.35778e-22 4.05501)
(16.4838 1.79682e-22 3.78379)
(16.2849 -1.76277e-22 3.5108)
(16.0905 -1.27577e-20 3.23917)
(15.9036 1.33209e-20 2.97019)
(15.7257 -1.9712e-20 2.70428)
(15.5581 -6.07889e-21 2.4414)
(15.4017 -1.07046e-21 2.18137)
(15.2577 9.88095e-23 1.92366)
(15.1274 2.06029e-20 1.66801)
(15.0117 -1.3617e-20 1.41312)
(14.9121 6.94997e-21 1.15958)
(14.8299 6.95611e-21 0.903695)
(14.7662 -9.9941e-23 0.64994)
(14.7223 8.33274e-23 0.386877)
(14.4498 -3.56897e-23 0.131773)
)
;
    }
    procBoundary1to3
    {
        type            processor;
        value           nonuniform List<vector> 9((9.69859 1.50834e-21 5.21684) (10.039 4.91521e-21 5.13618) (10.3524 -6.98738e-22 5.02132) (10.6363 1.03588e-20 4.87782) (10.8896 -1.98505e-20 4.71102) (11.1123 9.09778e-21 4.52577) (11.3052 2.78581e-20 4.32631) (11.4697 -8.2954e-21 4.11624) (11.6076 -1.63769e-20 3.8986));
    }
    procBoundary1to4
    {
        type            processor;
        value           nonuniform List<vector> 
30
(
(9.53843 5.31119e-21 5.46298)
(9.7789 9.88078e-21 5.67646)
(10.0266 6.37112e-21 5.84486)
(10.1835 5.21249e-21 6.32857)
(10.5173 5.26364e-21 6.47871)
(10.8352 -1.04433e-20 6.57551)
(11.1302 -6.72471e-22 7.03079)
(11.528 1.18274e-21 7.06418)
(11.8786 1.19665e-21 7.05285)
(12.2922 1.05651e-21 7.40806)
(12.6843 -6.59281e-21 7.29849)
(13.0076 -7.65236e-21 7.17524)
(13.5232 1.50205e-20 7.38716)
(13.8166 -7.45833e-22 7.46279)
(14.0226 8.72343e-21 7.18747)
(14.1685 2.11492e-20 6.94173)