/*--------------------------------*- C++ -*----------------------------------*\
| =========                 |                                                 |
| \\      /  F ield         | OpenFOAM: The Open Source CFD Toolbox           |
|  \\    /   O peration     | Version:  dev                                   |
|   \\  /    A nd           | Web:      www.OpenFOAM.org                      |
|    \\/     M anipulation  |                                                 |
\*---------------------------------------------------------------------------*/
FoamFile
{
    version     2.0;
    format      ascii;
    class       surfaceScalarField;
    location    "1.94";
    object      phi;
}
// * * * * * * * * * * * * * * * * * * * * * * * * * * * * * * * * * * * * * //

dimensions      [0 3 -1 0 0 0 0];

internalField   nonuniform List<scalar> 
881
(
0.145848
0.030596
0.02652
0.226393
0.0401902
0.217463
0.035469
0.209132
0.0313535
0.0278333
0.28525
0.0476915
0.278105
0.042631
0.271332
0.0381428
0.264978
0.0342017
0.0307615
0.326454
0.0529484
0.321298
0.0478028
0.316306
0.0431488
0.31156
0.0389598
0.307134
0.0351965
0.303088
0.0317895
0.0286443
0.354593
0.0561656
0.35128
0.0511283
0.347962
0.0464786
0.344734
0.0421972
0.34168
0.0382583
0.338862
0.0346107
0.336321
0.0311853
0.334071
0.0279013
0.024683
0.373683
0.0577061
0.371914
0.0529078
0.37001
0.0483912
0.36808
0.044134
0.366201
0.0401426
0.364433
0.0363799
0.362822
0.0327956
0.361387
0.0293312
0.360131
0.0259305
0.0225389
0.386934
0.0579837
0.386353
0.053496
0.385576
0.0491738
0.384691
0.0450234
0.383759
0.0410773
0.382838
0.0373007
0.38197
0.0336599
0.38118
0.0301146
0.380479
0.0266223
0.379863
0.0231435
0.379318
0.0196415
0.0160865
0.396716
0.0573465
0.397025
0.0531912
0.397103
0.0490983
0.397015
0.0451129
0.396815
0.0412772
0.396548
0.0375655
0.396255
0.0339484
0.395961
0.0304007
0.39568
0.0268937
0.395411
0.0233989
0.395148
0.0198898
0.39487
0.0163461
0.0127493
0.40465
0.0560371
0.405629
0.0522127
0.406336
0.0483918
0.406829
0.0446187
0.40717
0.0409332
0.4074
0.0373316
0.407545
0.0337974
0.40763
0.0303067
0.40767
0.026843
0.407667
0.0233882
0.407616
0.0199246
0.407507
0.0164381
0.407317
0.0129197
0.407022
0.00936617
0.00578626
0.411722
0.0542398
0.413198
0.0507343
0.414391
0.0471964
0.415314
0.0436927
0.416038
0.0402048
0.416636
0.036728
0.417121
0.0333046
0.417504
0.0299142
0.417798
0.0265369
0.41801
0.0231632
0.418136
0.019783
0.418168
0.0163882
0.418094
0.012974
0.4179
0.00953996
0.41757
0.00609372
0.00264592
0.418477
0.0520744
0.420319
0.0488882
0.421858
0.0456537
0.423125
0.0424211
0.424176
0.039148
0.425057
0.0358396
0.425808
0.0325449
0.426436
0.0292769
0.426941
0.0260192
0.427334
0.0227568
0.427614
0.0194875
0.427777
0.0162083
0.427814
0.0129178
0.427717
0.00961675
0.427479
0.00631055
0.427093
0.00300908
0.426556
-0.00027631
-0.00353667
0.425152
0.0496321
0.427265
0.0467712
0.429074
0.0438403
0.430639
0.0408502
0.431993
0.0377874
0.433134
0.0346918
0.434095
0.0315743
0.434922
0.02844
0.435616
0.0253134
0.436173
0.022186
0.436596
0.0190499
0.436882
0.0159053
0.437029
0.0127533
0.437031
0.00959548
0.436884
0.00643723
0.436584
0.00328702
0.436129
0.000155268
0.435517
-0.00294867
-0.00600978
0.431877
0.0469802
0.434217
0.0444274
0.436277
0.0417751
0.438105
0.0390171
0.439714
0.0361715
0.441088
0.0333108
0.442241
0.0304123
0.443229
0.027442
0.444091
0.0244402
0.444813
0.0214509
0.445376
0.0184728
0.445786
0.0154798
0.446044
0.0124779
0.44615
0.00947171
0.4461
0.006468
0.445891
0.00347539
0.44552
0.000503585
0.444986
-0.00243777
0.444285
-0.00533243
-0.00826106
0.438771
0.0441554
0.441313
0.0418832
0.443592
0.0394922
0.445632
0.0369725
0.447424
0.0343735
0.448994
0.031734
0.45036
0.029038
0.451533
0.0262599
0.452554
0.0234091
0.453416
0.0205774
0.454111
0.0177646
0.454645
0.0149308
0.455021
0.0120864
0.455237
0.00923908
0.45529
0.00639674
0.455177
0.00356824
0.454897
0.000763271
0.454445
-0.00200789
0.453818
-0.00472869
0.453003
-0.00747004
-0.00908466
0.445893
0.0411957
0.448595
0.0391797
0.451051
0.0370338
0.453252
0.0347684
0.45522
0.0324017
0.456999
0.029949
0.458569
0.0274612
0.459921
0.0249008
0.461075
0.022246
0.462061
0.0195805
0.462893
0.0169216
0.463555
0.0142554
0.464051
0.0115762
0.46438
0.00889478
0.46454
0.00622025
0.464528
0.00356212
0.464342
0.000930525
0.463977
-0.0016638
0.46343
-0.00420395
0.462689
-0.00675194
-0.00823549
0.453294
0.0381351
0.456121
0.0363531
0.458716
0.0344394
0.461077
0.0324054
0.463231
0.0302459
0.465168
0.0280078
0.466892
0.0257331
0.468409
0.0233779
0.469706
0.020942
0.470823
0.0184545
0.471789
0.0159459
0.472588
0.0134453
0.473208
0.0109442
0.473651
0.0084383
0.473916
0.00593939
0.474004
0.00345855
0.47391
0.00100645
0.473633
-0.00140586
0.473169
-0.00376083
0.472507
-0.00611165
-0.00746481
0.461034
0.0350008
0.463961
0.0334295
0.466675
0.031728
0.469179
0.0299033
0.47146
0.0279649
0.473519
0.0259478
0.47539
0.0238595
0.477073
0.0216917
0.478542
0.0194682
0.479797
0.0171927
0.48087
0.0148659
0.481784
0.0125217
0.482528
0.0101906
0.483086
0.00786801
0.483459
0.0055532
0.483646
0.00325777
0.483644
0.000992068
0.483454
-0.00123319
0.483073
-0.0033994
0.482492
-0.00555086
-0.00677523
0.469177
0.0318165
0.472179
0.0304344
0.474985
0.028928
0.477589
0.0273035
0.479984
0.0255734
0.48218
0.0237535
0.484186
0.0218537
0.485995
0.0198822
0.487606
0.0178546
0.489011
0.0157843
0.490201
0.0136709
0.491204
0.0115121
0.492055
0.00933101
0.492735
0.00717913
0.493215
0.00506184
0.493499
0.00296102
0.493588
0.000888748
0.493483
-0.00114379
0.493183
-0.00311673
0.492679
-0.00506649
-0.00616431
0.477796
0.0286018
0.480851
0.0273893
0.483727
0.0260613
0.486416
0.0246225
0.488912
0.0230838
0.491214
0.0214558
0.493326
0.019746
0.495246
0.0179636
0.496974
0.016127
0.498507
0.0142507
0.49983
0.0123454
0.500953
0.010385
0.501902
0.00837637
0.502664
0.00641003
0.503226
0.00449071
0.503593
0.00258388
0.503764
0.000705138
0.503739
-0.00113211
0.503514
-0.0029084
0.503085
-0.0046547
-0.00562762
0.486971
0.0253711
0.490064
0.024311
0.492992
0.0231458
0.495747
0.0218788
0.498321
0.0205192
0.50071
0.0190753
0.502909
0.0175539
0.504929
0.0159488
0.506765
0.0142946
0.508401
0.0126164
0.509841
0.0109058
0.511076
0.00914918
0.51209
0.00735883
0.512907
0.00558857
0.51354
0.00385121
0.513978
0.00213762
0.51422
0.000452776
0.514263
-0.00118731
0.514106
-0.00276538
0.513744
-0.00430857
-0.00515932
0.496798
0.022135
0.499914
0.0212124
0.50288
0.0201959
0.505686
0.0190882
0.508321
0.0178975
0.510773
0.0166342
0.513048
0.0152894
0.515157
0.0138483
0.517072
0.0123863
0.51878
0.0109136
0.520298
0.00939137
0.5216
0.00784803
0.52267
0.0062888
0.523537
0.00471967
0.524232
0.00315165
0.524741
0.00162283
0.525041
0.000144837
0.525134
-0.00129109
0.525025
-0.00266846
0.524711
-0.00400904
-0.0047394
0.507388
0.0189016
0.510516
0.0181052
0.513505
0.0172269
0.516342
0.0162688
0.519019
0.015238
0.521523
0.0141447
0.523864
0.0129624
0.526024
0.0116994
0.527975
0.0104453
0.529726
0.0091711
0.531281
0.00784237
0.532631
0.00650303
0.53376
0.00516175
0.534681
0.00379913
0.535414
0.00241749
0.535945
0.00108793
0.536266
-0.000182834
0.536383
-0.00141632
0.5363
-0.00259538
0.536013
-0.00373512
-0.00434821
0.51888
0.0156769
0.52201
0.0149994
0.525007
0.0142525
0.52786
0.0134374
0.530558
0.0125597
0.533095
0.0116261
0.535464
0.0106103
0.537638
0.00954078
0.539607
0.00848955
0.541379
0.00741016
0.542948
0.00628226
0.544313
0.00514596
0.545473
0.00400671
0.546425
0.00285037
0.54715
0.00169291
0.54766
0.000576643
0.54797
-0.000497268
0.548078
-0.00153031
0.547986
-0.00251288
0.547693
-0.00345304
-0.00394835
0.53144
0.0124655
0.534563
0.0119041
0.537555
0.0112859
0.540406
0.0106116
0.543104
0.00988514
0.54564
0.00911148
0.548
0.00827035
0.550164
0.00739551
0.552124
0.00654536
0.55388
0.00566895
0.555428
0.00474643
0.556771
0.0038137
0.557909
0.00287652
0.558824
0.00194076
0.559502
0.00101799
0.559962
0.000116991
0.560228
-0.000764235
0.560295
-0.0016021
0.560156
-0.00238104
0.559815
-0.00312181
-0.00350542
0.545279
0.00927254
0.548384
0.00882988
0.551355
0.00834364
0.554181
0.00781392
0.55685
0.00724316
0.559353
0.00663371
0.561676
0.00597025
0.563788
0.0053056
0.565684
0.00466831
0.567379
0.00399251
0.568862
0.00327834
0.570133
0.00255593
0.571186
0.0018346
0.572013
0.00112203
0.572606
0.000429788
0.572977
-0.000250228
0.573144
-0.000931542
0.573109
-0.00156966
0.572866
-0.00214338
0.572418
-0.00268324
-0.00295274
0.560651
0.00610504
0.563724
0.00579085
0.566654
0.0054469
0.569426
0.00507293
0.57203
0.00466993
0.574455
0.00423752
0.576683
0.00376895
0.578687
0.00332709
0.580477
0.00290178
0.582061
0.00242932
0.583422
0.00193613
0.584556
0.00143755
0.585461
0.000942872
0.586136
0.000458625
0.586581
-8.06655e-06
0.58681
-0.000473456
0.58681
-0.00092979
0.586585
-0.00134595
0.586161
-0.00172347
0.585542
-0.00207184
-0.00223677
0.577807
0.00297573
0.580827
0.00280823
0.583686
0.00262542
0.586367
0.00242704
0.588858
0.00221351
0.591143
0.00198486
0.5932
0.0017426
0.595039
0.00151777
0.596671
0.00129631
0.598074
0.00105093
0.599233
0.000798262
0.600149
0.000541621
0.60082
0.00028793
0.60125
4.21194e-05
0.601447
-0.000195213
0.601414
-0.000433372
0.601137
-0.000648575
0.600632
-0.000840908
0.599931
-0.00102563
0.599041
-0.00118772
-0.00124176
0.582837
0.585687
0.588352
0.590818
0.593069
0.59509
0.596867
0.598417
0.599743
0.600821
0.601643
0.602207
0.602513
0.60257
0.602387
0.601962
0.601319
0.600479
0.599451
0.598258
)
;

boundaryField
{
    inlet
    {
        type            calculated;
        value           nonuniform 0();
    }
    outlet
    {
        type            calculated;
        value           nonuniform List<scalar> 
15
(
0.452056
0.461815
0.471713
0.48178
0.492047
0.502529
0.513257
0.524274
0.535606
0.547279
0.559359
0.571854
0.584816
0.598036
0.597006
)
;
    }
    flap
    {
        type            calculated;
        value           nonuniform 0();
    }
    upperWall
    {
        type            calculated;
        value           nonuniform List<scalar> 
21
(
0
0
0
0
0
0
-7.76115e-15
0
0
0
0
0
4.22886e-15
0
4.34784e-15
4.40865e-15
0
0
0
0
4.75554e-15
)
;
    }
    lowerWall
    {
        type            calculated;
        value           nonuniform 0();
    }
    frontAndBack
    {
        type            empty;
        value           nonuniform 0();
    }
    procBoundary2to1
    {
        type            processor;
        value           nonuniform List<scalar> 
17
(
-0.422712
-0.429226
-0.435947
-0.442933
-0.450231
-0.457894
-0.465985
-0.47457
-0.483726
-0.493544
-0.504133
-0.51563
-0.528201
-0.542055
-0.55745
-0.57464
-0.579821
)
;
    }
    procBoundary2to4
    {
        type            processor;
        value           nonuniform List<scalar> 
11
(
-0.156568
-0.235966
-0.292732
-0.331694
-0.357795
-0.375212
-0.387202
-0.396073
-0.403338
-0.409925
-0.416314
)
;
    }
    procBoundary2to5
    {
        type            processor;
        value           nonuniform List<scalar> 
34
(
-0.0198542
-0.0167431
0.13609
-0.0230051
-0.0200729
0.201384
-0.0248754
0.2591
-0.0277382
-0.0250136
0.299455
-0.0256558
-0.0227297
0.332107
-0.0214682
0.359047
-0.019113
-0.0156185
0.378831
-0.0124508
0.394551
-0.00909282
-0.00539117
0.406603
-0.00219665
0.417097
0.000789147
0.00419798
0.42587
0.0067562
0.434745
0.00911824
0.443402
0.010006
)
;
    }
}


// ************************************************************************* //
