/*--------------------------------*- C++ -*----------------------------------*\
| =========                 |                                                 |
| \\      /  F ield         | OpenFOAM: The Open Source CFD Toolbox           |
|  \\    /   O peration     | Version:  dev                                   |
|   \\  /    A nd           | Web:      www.OpenFOAM.org                      |
|    \\/     M anipulation  |                                                 |
\*---------------------------------------------------------------------------*/
FoamFile
{
    version     2.0;
    format      ascii;
    class       surfaceScalarField;
    location    "1.19";
    object      phi;
}
// * * * * * * * * * * * * * * * * * * * * * * * * * * * * * * * * * * * * * //

dimensions      [0 3 -1 0 0 0 0];

internalField   nonuniform List<scalar> 
865
(
0.0921641
0.00925076
0.0822481
0.00991364
0.0716412
0.0106058
0.0603206
0.0113202
0.0482756
0.0120451
0.0355073
0.0127684
0.0220433
0.0134642
0.00805144
0.0139919
0.00805146
0.110379
0.0182012
0.100663
0.0196265
0.090122
0.021146
0.0786777
0.0227641
0.0662393
0.0244834
0.0526926
0.0263153
0.0378759
0.028281
0.0211729
0.030695
0.0292243
0.117649
0.0265428
0.108482
0.0287902
0.0983791
0.031248
0.0871745
0.0339682
0.0746137
0.0370441
0.0603207
0.0406083
0.0437741
0.0448277
0.0238855
0.0505836
0.0531098
0.120654
0.0345385
0.111777
0.0376651
0.101846
0.0411766
0.090636
0.0451776
0.077796
0.0498837
0.0627368
0.0556674
0.0446625
0.062902
0.0234723
0.0717738
0.0765821
0.121829
0.0424529
0.112981
0.04651
0.102972
0.0511829
0.091481
0.0566677
0.0781456
0.0632184
0.0624569
0.0713556
0.0435063
0.0818524
0.0220577
0.0932223
0.0986397
0.122249
0.0504626
0.113233
0.0555215
0.102982
0.0614317
0.0911278
0.0685199
0.0772189
0.0771261
0.0609352
0.0876385
0.0415734
0.101214
0.02039
0.114405
0.11903
0.122443
0.0586344
0.113182
0.0647773
0.102564
0.0720464
0.0902941
0.0807875
0.0759105
0.091508
0.0591183
0.104429
0.0394761
0.120855
0.0187864
0.135095
0.137816
0.12268
0.0670001
0.113169
0.0742825
0.102197
0.0830138
0.0894507
0.0935309
0.0746167
0.10634
0.0574605
0.121584
0.0377184
0.140596
0.0176153
0.155197
0.155431
0.123193
0.0755211
0.113413
0.0840552
0.102139
0.0942827
0.0890099
0.106656
0.0737616
0.121585
0.0563228
0.13902
0.0366832
0.160233
0.0171547
0.174725
0.172585
0.124114
0.0841128
0.114187
0.0939747
0.102713
0.10575
0.0893817
0.119982
0.0738924
0.137069
0.0562805
0.156628
0.0368651
0.179646
0.0177033
0.193885
0.190288
0.125612
0.0926849
0.115741
0.103836
0.104279
0.117204
0.0909592
0.133295
0.0755223
0.1525
0.05802
0.174126
0.0389179
0.198745
0.019727
0.213075
0.210015
0.127881
0.101061
0.118253
0.113452
0.107105
0.128343
0.0941771
0.146213
0.0792717
0.167398
0.0623125
0.191079
0.0437409
0.217313
0.0241845
0.23263
0.234199
0.131065
0.108999
0.121983
0.12252
0.111577
0.138737
0.0996532
0.158127
0.0860068
0.181036
0.070386
0.206693
0.0531119
0.234583
0.0332283
0.252512
0.267427
0.135321
0.116218
0.127197
0.13063
0.118093
0.147828
0.107966
0.168241
0.0967084
0.192283
0.084137
0.219257
0.0704038
0.248312
0.0515334
0.271381
0.318961
0.140392
0.122473
0.133594
0.13741
0.126372
0.155034
0.118943
0.175656
0.111605
0.19961
0.104753
0.2261
0.0989391
0.254121
0.0892265
0.281092
0.408188
0.00588599
-0.00588719
0.0112152
-0.00533557
0.0166591
-0.0054644
0.0221848
-0.00556475
0.0275976
-0.00546137
0.0327176
-0.00516313
0.0373728
-0.00468632
0.0414375
-0.00408669
0.0448443
-0.00342557
-0.00269058
0.00379591
-0.00968443
0.00807839
-0.00962489
0.0126658
-0.0100732
0.0172062
-0.0101447
0.0214067
-0.00970974
0.0250145
-0.00881263
0.0278758
-0.00757751
0.0298908
-0.00612301
0.0309907
-0.0045438
-0.00285985
0.00252045
-0.0122063
0.00532984
-0.0124417
0.0083729
-0.0131381
0.0111149
-0.0129251
0.0132374
-0.011877
0.0145926
-0.0102063
0.0151503
-0.00816309
0.0149417
-0.00593495
0.0140048
-0.00362509
-0.00130417
0.00157674
-0.0137847
0.00301522
-0.0138881
0.00438181
-0.0145263
0.00513819
-0.0137169
0.0051458
-0.0119242
0.00446657
-0.0095608
0.00319312
-0.00691507
0.00142649
-0.00418825
-0.000726559
-0.00149042
0.00101262
0.000672713
-0.0144592
0.000764937
-0.0139884
0.000382132
-0.0141639
-0.000754775
-0.0126111
-0.00249108
-0.0102213
-0.00467042
-0.0074102
-0.00713597
-0.0044724
-0.00978723
-0.00155626
-0.0124768
0.00118066
0.00368218
-0.000270398
-0.0141906
-0.00159472
-0.0126722
-0.00361059
-0.0121665
-0.00624216
-0.0100058
-0.00923252
-0.00725828
-0.012378
-0.00428879
-0.015551
-0.00131982
-0.0186245
0.00149871
-0.0215816
0.00411938
0.00659421
-0.00122731
-0.0129653
-0.00396753
-0.00993959
-0.00734315
-0.00880682
-0.0110611
-0.00630923
-0.0148651
-0.00347612
-0.0185615
-0.000612435
-0.0220219
0.00212215
-0.0252585
0.00471769
-0.0283672
0.00720999
0.00960292
-0.00220683
-0.0107605
-0.00621241
-0.00594072
-0.0106121
-0.00442022
-0.0150308
-0.00190734
-0.0192282
0.000703893
-0.023076
0.00321855
-0.0265921
0.00562172
-0.0298683
0.00797715
-0.0329716
0.0102956
0.0125664
-0.00328928
-0.00747303
-0.00822327
-0.00101229
-0.0132402
0.000586429
-0.017916
0.00275545
-0.0221331
0.00490716
-0.025918
0.00698912
-0.0293481
0.00903679
-0.0324949
0.0111081
-0.0354414
0.013225
0.0153637
-0.00432002
-0.00315464
-0.00980261
0.00446592
-0.014987
0.00576303
-0.0195714
0.00732975
-0.0235865
0.00891096
-0.0271145
0.0105046
-0.0302558
0.0121644
-0.0331114
0.0139485
-0.0357767
0.0158737
0.0179018
-0.00507622
0.00192022
-0.0108174
0.0102037
-0.0157818
0.0107215
-0.0199677
0.0115077
-0.0235203
0.012454
-0.0265723
0.0135456
-0.0292543
0.0148336
-0.0316849
0.0163648
-0.0339667
0.0181394
0.0201052
-0.00557753
0.00749671
-0.0111772
0.0158009
-0.0154622
0.0150018
-0.018937
0.0149759
-0.0218124
0.0153209
-0.0242223
0.0159453
-0.0263087
0.016908
-0.0282003
0.0182425
-0.0300066
0.0199301
0.0219038
-0.00578753
0.0132835
-0.0104886
0.0205
-0.0137496
0.0182589
-0.0163836
0.017604
-0.0184569
0.0173866
-0.0200786
0.0175574
-0.0214286
0.0182464
-0.022664
0.0194644
-0.0239029
0.0211538
0.0232268
-0.0056793
0.0189622
-0.00839997
0.0232188
-0.0106145
0.0204697
-0.012479
0.0194631
-0.0136077
0.0185079
-0.0142237
0.0181641
-0.014658
0.0186694
-0.0151115
0.0199048
-0.0156879
0.0217154
0.0239996
-0.00383785
0.0227995
-0.00385413
0.023233
-0.00658978
0.0232016
-0.00785522
0.0207231
-0.00762195
0.0182674
-0.00681568
0.0173488
-0.00609896
0.0179417
-0.00564241
0.0194354
-0.00545783
0.0215162
0.153038
0.127548
0.147932
0.142497
0.143178
0.15977
0.139396
0.179421
0.137628
0.201365
0.139583
0.224136
0.147979
0.245721
0.166523
0.262547
0.26977
0.304942
0.164876
0.131108
0.161881
0.14547
0.160094
0.161537
0.160509
0.178988
0.164788
0.197071
0.175287
0.213627
0.195279
0.225725
0.226501
0.231324
0.238106
0.258167
0.178199
0.132928
0.177502
0.146143
0.178721
0.160296
0.182934
0.174755
0.191524
0.188465
0.205378
0.199763
0.224051
0.207046
0.245201
0.210174
0.210601
0.272707
0.192546
0.194034
0.14463
0.197783
0.156522
0.204547
0.167971
0.214901
0.178095
0.228692
0.185962
0.245188
0.190545
0.264167
0.191193
0.187127
0.287641
0.210772
0.216212
0.224173
0.159989
0.234775
0.167475
0.247808
0.172917
0.262795
0.175552
0.279151
0.174834
0.169894
0.296383
0.241723
0.252014
0.264063
0.160857
0.277372
0.162234
0.291116
0.161087
0.156213
0.304796
0.278361
0.290152
0.302077
0.149157
0.144595
0.313692
0.312529
0.322665
0.193429
0.111513
0.119583
0.0738458
0.0524737
0.0671089
0.25478
0.1149
0.238442
0.0901842
0.0764131
0.214503
0.284204
0.103404
0.283151
0.0912373
0.0849311
0.274634
0.296766
0.0942799
0.300407
0.0875977
0.0852918
0.300047
0.304302
0.0863614
0.309863
0.0820367
0.0816495
0.313507
0.311741
0.0794149
0.317532
0.076247
0.0767216
0.322461
0.319655
0.0734507
0.324968
0.0709345
0.0717383
0.329952
0.327863
0.332624
0.0661729
0.0670799
0.337283
0.340611
0.344897
0.0251888
0.0647187
0.0050794
0.0433401
-0.00246501
0.0307421
-0.00300177
0.0212542
-0.000443562
0.0157018
0.00244417
0.0144518
0.00458239
0.0157923
0.00614266
0.017862
0.0203471
0.164726
0.114495
0.12259
0.0854735
0.088765
0.0645635
0.0612085
0.0488052
0.0405231
0.03638
0.0278538
0.0271119
0.0225007
0.0211344
0.0218453
0.0185042
0.0191375
0.24788
0.141249
0.215969
0.117382
0.184326
0.0962029
0.154276
0.0788501
0.126328
0.0643211
0.101251
0.0521806
0.0801294
0.042245
0.0641519
0.0344687
0.0292611
0.289716
0.151581
0.271872
0.135225
0.250088
0.117984
0.226477
0.102457
0.202132
0.0886599
0.177868
0.0764359
0.154391
0.065711
0.132375
0.0564721
0.0488329
0.313202
0.151887
0.306077
0.14235
0.29383
0.13023
0.278103
0.11818
0.260063
0.106693
0.240512
0.0959798
0.22007
0.0861431
0.199272
0.0772575
0.0693917
0.327487
0.146863
0.327321
0.142518
0.322487
0.135062
0.313857
0.126807
0.30226
0.118286
0.288368
0.109865
0.272708
0.101793
0.25574
0.0942149
0.0872368
0.337196
0.139622
0.341048
0.138666
0.341312
0.134797
0.338252
0.129864
0.332263
0.124271
0.323773
0.118349
0.313167
0.11239
0.300797
0.106574
0.101037
0.345083
0.131825
0.35092
0.13283
0.354301
0.131416
0.355151
0.129012
0.353527
0.125892
0.349593
0.122277
0.343582
0.118393
0.335712
0.114435
0.110533
0.352559
0.359167
0.126223
0.36423
0.126353
0.367537
0.125704
0.368982
0.124444
0.368553
0.122701
0.366319
0.12062
0.362383
0.118362
0.116036
0.366959
0.372805
0.377507
0.380932
0.121017
0.382977
0.120652
0.383593
0.119998
0.382811
0.119136
0.118161
0.390991
0.394639
0.397263
0.117369
0.398838
0.117554
0.117633
0.408767
0.412002
0.115155
)
;

boundaryField
{
    inlet
    {
        type            calculated;
        value           nonuniform 0();
    }
    outlet
    {
        type            calculated;
        value           nonuniform 0();
    }
    flap
    {
        type            calculated;
        value           nonuniform List<scalar> 
33
(
0
-6.16298e-33
0
2.46519e-32
1.54074e-33
0
-1.97215e-31
9.86076e-32
0
0
2.95823e-31
0
0
0
0
-1.84889e-32
1.97215e-31
9.86076e-32
1.54074e-33
-6.16298e-33
-4.93038e-32
2.46519e-32
0
1.47911e-31
-9.86076e-32
0
0
0
0
1.47911e-31
0
2.46519e-31
0
)
;
    }
    upperWall
    {
        type            calculated;
        value           nonuniform 0();
    }
    lowerWall
    {
        type            calculated;
        value           uniform 0;
    }
    frontAndBack
    {
        type            empty;
        value           nonuniform 0();
    }
    procBoundary4to1
    {
        type            processor;
        value           nonuniform List<scalar> 
30
(
0.132969
-0.207495
0.141329
0.151058
-0.233386
0.151632
0.157167
-0.267345
0.149828
0.150435
-0.301956
0.138578
0.134456
0.068251
-0.336304
0.0618654
0.0627939
0.124165
-0.36019
0.119453
0.120506
0.121
-0.386397
0.116419
0.117
-0.404807
0.113404
0.114314
-0.423479
0.11132
)
;
    }
    procBoundary4to2
    {
        type            processor;
        value           nonuniform List<scalar> 
11
(
0.0540136
0.112789
0.1787
0.237882
0.286985
0.326205
0.35687
0.380678
0.399358
0.414475
0.42731
)
;
    }
    procBoundary4to3
    {
        type            processor;
        value           nonuniform List<scalar> 
19
(
-0.101419
-0.119333
-0.125995
-0.128655
-0.129749
-0.130265
-0.130621
-0.131054
-0.131723
-0.132716
-0.134196
-0.13627
-0.139018
-0.142556
-0.146664
-0.158133
-0.168456
-0.18004
-0.192608
)
;
    }
    procBoundary4to5
    {
        type            processor;
        value           nonuniform List<scalar> 
18
(
0.0475176
0.0311426
0.0124313
-0.00306165
-0.0151651
-0.0245127
-0.0313951
-0.035954
-0.0382574
-0.0383329
-0.036188
-0.0318225
-0.0252427
-0.0164771
-0.00561457
0.0241404
0.00729684
0.0230401
)
;
    }
}


// ************************************************************************* //
