/*--------------------------------*- C++ -*----------------------------------*\
| =========                 |                                                 |
| \\      /  F ield         | OpenFOAM: The Open Source CFD Toolbox           |
|  \\    /   O peration     | Version:  dev                                   |
|   \\  /    A nd           | Web:      www.OpenFOAM.org                      |
|    \\/     M anipulation  |                                                 |
\*---------------------------------------------------------------------------*/
FoamFile
{
    version     2.0;
    format      ascii;
    class       surfaceScalarField;
    location    "1.36";
    object      phi;
}
// * * * * * * * * * * * * * * * * * * * * * * * * * * * * * * * * * * * * * //

dimensions      [0 3 -1 0 0 0 0];

internalField   nonuniform List<scalar> 
879
(
0.206789
0.0174121
0.0187841
0.211833
0.0183108
0.210946
0.0197119
0.0207102
0.217005
0.0191834
0.216151
0.0206075
0.215272
0.0216224
0.0229054
0.222308
0.0200225
0.221494
0.0214643
0.220659
0.0224922
0.219784
0.0238069
0.0253877
0.227749
0.020818
0.226985
0.0222725
0.226204
0.0233088
0.225394
0.0246458
0.224544
0.026259
0.0281174
0.23333
0.0215609
0.232625
0.0230219
0.231906
0.0240648
0.231159
0.0254223
0.230382
0.0270595
0.229559
0.028957
0.0311127
0.23905
0.0222451
0.23841
0.0237076
0.23776
0.0247531
0.237092
0.0261214
0.236401
0.0277748
0.235681
0.029696
0.234927
0.0318775
0.234134
0.0343064
0.0369925
0.244916
0.0228616
0.244349
0.024321
0.243781
0.0253596
0.24321
0.0267256
0.242622
0.0283886
0.242012
0.0303268
0.241375
0.0325276
0.240711
0.0349772
0.240027
0.0376768
0.040629
0.250934
0.0233975
0.250456
0.0248471
0.249983
0.0258721
0.249509
0.0272335
0.249022
0.0289042
0.248523
0.0308477
0.248018
0.0330474
0.247515
0.03549
0.247019
0.0381759
0.246529
0.0411174
0.24604
0.0443424
0.0478501
0.25711
0.0238395
0.256728
0.0252767
0.256348
0.0262929
0.255974
0.0276419
0.255606
0.0293021
0.255245
0.0312319
0.254901
0.0334101
0.254571
0.0358319
0.254253
0.0384999
0.253955
0.0414165
0.253706
0.0445871
0.253529
0.048019
0.253435
0.0517414
0.0557441
0.263437
0.0241828
0.263157
0.0256039
0.262885
0.0266064
0.262634
0.0279296
0.262407
0.0295598
0.262198
0.0314666
0.262004
0.0336239
0.261838
0.0360125
0.261713
0.0386344
0.261642
0.0414908
0.261647
0.0445818
0.261734
0.0479274
0.261952
0.0515161
0.262351
0.0553347
0.059428
0.269921
0.0244205
0.269758
0.0258145
0.269618
0.0267884
0.269502
0.0280824
0.269407
0.0296867
0.269341
0.03156
0.269314
0.0336728
0.269342
0.036002
0.269431
0.0385571
0.269588
0.0413408
0.269833
0.0443398
0.270203
0.0475558
0.270745
0.0509699
0.271477
0.0545968
0.272442
0.0584556
0.273719
0.0625189
0.0667515
0.276576
0.0245359
0.276543
0.0258944
0.276531
0.0268425
0.276548
0.0281032
0.276601
0.0296665
0.276702
0.0314874
0.276867
0.0335326
0.277093
0.0357948
0.277384
0.0382812
0.27777
0.040965
0.278278
0.0438379
0.278933
0.0469023
0.279773
0.0501299
0.280829
0.0535379
0.282155
0.0571245
0.283817
0.0608521
0.285883
0.0646786
0.288444
0.0685296
0.0723551
0.283395
0.0245231
0.283495
0.0258399
0.283625
0.0267551
0.283794
0.0279719
0.284018
0.0294761
0.2843
0.0312355
0.284642
0.0332163
0.285056
0.0354024
0.285568
0.037787
0.286201
0.0403442
0.286967
0.0430815
0.287896
0.0459784
0.28903
0.0489984
0.290405
0.0521634
0.292071
0.0554566
0.294073
0.0588474
0.296481
0.0622677
0.299373
0.0656335
0.302782
0.0689408
0.306785
0.0720969
0.07492
0.290384
0.0243733
0.290631
0.025638
0.290922
0.0265046
0.291258
0.0276735
0.291643
0.0291259
0.292095
0.0308145
0.292629
0.0327096
0.293255
0.0348
0.293993
0.0370679
0.294864
0.0394889
0.295886
0.0420718
0.297088
0.0447849
0.298507
0.0475851
0.300186
0.0504877
0.302152
0.0534919
0.304452
0.0565474
0.307164
0.0595543
0.31032
0.0624755
0.313966
0.0652929
0.318183
0.0678759
0.297558
0.0240669
0.297965
0.0252739
0.298411
0.0260994
0.298907
0.0272148
0.299466
0.0286014
0.300108
0.030204
0.300847
0.0319991
0.301684
0.0339873
0.302647
0.0361271
0.303758
0.0383955
0.305036
0.0408075
0.306502
0.0433305
0.308188
0.0459073
0.310141
0.048541
0.31238
0.0512569
0.314952
0.0539778
0.317913
0.0565941
0.321298
0.0590905
0.325156
0.0614345
0.0635245
0.304906
0.0235991
0.305477
0.0247438
0.306089
0.0255271
0.30676
0.02658
0.307512
0.0278842
0.308348
0.0293995
0.309281
0.0310947
0.310336
0.0329586
0.311532
0.0349535
0.312879
0.0370686
0.314397
0.0393056
0.31612
0.0416215
0.318067
0.043971
0.320261
0.0463556
0.322746
0.0487778
0.325566
0.051162
0.328749
0.0534145
0.332332
0.0555104
0.336332
0.0574357
0.0591289
0.312433
0.0229641
0.31318
0.024037
0.313977
0.0247674
0.31483
0.0257625
0.315765
0.0269824
0.316801
0.0283949
0.317947
0.0299781
0.319221
0.0317118
0.320639
0.033559
0.322219
0.0355093
0.323974
0.0375684
0.325929
0.0396812
0.328116
0.0417967
0.330544
0.0439376
0.333253
0.0460776
0.336296
0.0481253
0.339682
0.0500333
0.343405
0.0517906
0.347469
0.0533743
0.0547349
0.320155
0.0221453
0.321083
0.0231463
0.322058
0.0238279
0.3231
0.0247547
0.324236
0.0258785
0.325482
0.0271796
0.326842
0.0286472
0.32833
0.0302502
0.329967
0.0319465
0.331772
0.0337253
0.333759
0.0356005
0.335939
0.0375172
0.338336
0.0394135
0.340985
0.0413008
0.343917
0.0431549
0.347147
0.0449033
0.350669
0.0465167
0.354482
0.0479829
0.358585
0.049275
0.0503571
0.328061
0.0211411
0.329174
0.0220679
0.330342
0.0226926
0.331593
0.0235358
0.332934
0.0245685
0.334382
0.0257615
0.335954
0.0271037
0.337664
0.028566
0.339523
0.0301111
0.34154
0.0317301
0.34374
0.0334198
0.346137
0.0351367
0.348744
0.036821
0.351595
0.0384624
0.35471
0.0400495
0.358084
0.0415386
0.361711
0.0428961
0.365593
0.0441063
0.369723
0.0451492
0.0459987
0.336159
0.0199461
0.337471
0.0207864
0.338844
0.02135
0.340301
0.022109
0.341851
0.0230484
0.343508
0.0241325
0.345299
0.0253392
0.347226
0.026664
0.349293
0.0280669
0.351513
0.0295317
0.353913
0.0310385
0.356518
0.0325488
0.35933
0.0340236
0.362359
0.0354449
0.365622
0.0367974
0.369119
0.0380497
0.372845
0.0391774
0.376793
0.0401644
0.38095
0.0409959
0.0416532
0.344457
0.018551
0.345976
0.0192958
0.347559
0.0197945
0.349223
0.0204722
0.350992
0.0213068
0.352869
0.0222817
0.354873
0.0233605
0.357006
0.0245539
0.359266
0.0258287
0.361683
0.027135
0.364285
0.028455
0.367084
0.0297657
0.370079
0.0310415
0.373279
0.0322572
0.37669
0.0333959
0.380312
0.0344361
0.384136
0.0353595
0.388153
0.0361526
0.392347
0.0368051
0.0373062
0.352961
0.0169461
0.354684
0.0175975
0.356488
0.0180151
0.358375
0.0186099
0.36036
0.0193468
0.362451
0.0202147
0.364647
0.0211876
0.366971
0.0222514
0.369436
0.0233837
0.372062
0.0245284
0.374865
0.0256678
0.377856
0.0267894
0.381039
0.0278716
0.384413
0.0288941
0.387977
0.0298401
0.391727
0.030693
0.395653
0.0314385
0.399744
0.0320653
0.403987
0.0325646
0.0329428
0.361675
0.015123
0.363621
0.0156725
0.365641
0.0160163
0.367744
0.0165293
0.369932
0.0171807
0.37222
0.0179482
0.374613
0.0188155
0.377139
0.0197447
0.379825
0.0207159
0.382675
0.0216956
0.385696
0.0226616
0.388894
0.023604
0.39227
0.0245068
0.39582
0.0253529
0.39954
0.0261273
0.403421
0.0268168
0.407453
0.0274099
0.411623
0.027897
0.415917
0.0282708
0.0285477
0.370602
0.013073
0.372777
0.0135153
0.375003
0.0138097
0.377304
0.0142471
0.379694
0.0148097
0.38219
0.015472
0.384811
0.0162125
0.387573
0.0170004
0.390493
0.017811
0.393578
0.0186258
0.396824
0.0194277
0.400234
0.0202047
0.403806
0.0209435
0.407536
0.0216303
0.411415
0.0222527
0.415435
0.0228
0.419583
0.0232632
0.423844
0.0236351
0.428202
0.0239109
0.0241045
0.379738
0.0107992
0.382132
0.0111356
0.38457
0.0113874
0.387083
0.0117509
0.389697
0.0122123
0.392427
0.0127587
0.395292
0.0133639
0.398303
0.0140043
0.401467
0.014661
0.404786
0.0153189
0.408259
0.0159646
0.411886
0.0165867
0.415662
0.0171741
0.419581
0.0177159
0.423633
0.0182024
0.427808
0.0186252
0.432092
0.0189776
0.436469
0.0192545
0.440922
0.0194529
0.0195843
0.389085
0.00830596
0.391709
0.00852309
0.394384
0.00872562
0.397133
0.00901631
0.399986
0.00937454
0.402963
0.00979618
0.406076
0.010264
0.409335
0.0107584
0.412743
0.0112642
0.416303
0.0117694
0.420013
0.0122635
0.423868
0.0127373
0.427865
0.013182
0.431993
0.0135896
0.436243
0.0139527
0.4406
0.0142652
0.445051
0.0145222
0.449579
0.0147204
0.454166
0.0148578
0.0149429
0.398685
0.00556141
0.401546
0.00567222
0.404456
0.00582698
0.407448
0.00603658
0.410547
0.00628839
0.413773
0.00658323
0.417138
0.00691055
0.420652
0.00725631
0.424317
0.0076094
0.428133
0.00796129
0.432099
0.00830461
0.436208
0.00863274
0.440452
0.00893962
0.444822
0.00921969
0.449305
0.00946803
0.453885
0.00968052
0.458546
0.00985395
0.463271
0.00998607
0.468041
0.0100758
0.0101285
0.408615
0.0024624
0.411711
0.00258477
0.414854
0.00269512
0.418086
0.00281542
0.42143
0.00295658
0.424904
0.00312097
0.428523
0.00330247
0.432296
0.00349339
0.436227
0.00368775
0.440315
0.00388104
0.444555
0.00406936
0.448942
0.00424921
0.453466
0.00441738
0.458113
0.00457097
0.46287
0.00470743
0.46772
0.00482464
0.472644
0.00492095
0.477623
0.0049952
0.482637
0.00504681
0.00507825
0.417787
0.42038
0.423085
0.425911
0.428879
0.432011
0.435325
0.438828
0.442525
0.446413
0.450488
0.45474
0.459158
0.463727
0.46843
0.473247
0.478158
0.48314
0.488171
)
;

boundaryField
{
    inlet
    {
        type            calculated;
        value           nonuniform List<scalar> 
30
(
-0.20766
-0.212683
-0.217828
-0.223097
-0.228493
-0.23402
-0.239681
-0.245479
-0.251417
-0.257499
-0.263728
-0.270107
-0.276641
-0.283333
-0.290186
-0.297206
-0.304395
-0.311758
-0.3193
-0.327023
-0.334934
-0.343036
-0.351334
-0.359832
-0.368536
-0.377451
-0.386582
-0.395933
-0.40551
-0.415319
)
;
    }
    outlet
    {
        type            calculated;
        value           nonuniform 0();
    }
    flap
    {
        type            calculated;
        value           nonuniform 0();
    }
    upperWall
    {
        type            calculated;
        value           uniform 0;
    }
    lowerWall
    {
        type            calculated;
        value           nonuniform 0();
    }
    frontAndBack
    {
        type            empty;
        value           nonuniform 0();
    }
    procBoundary0to1
    {
        type            processor;
        value           nonuniform List<scalar> 
18
(
0.311483
0.322984
0.0701103
0.329506
0.340727
0.351864
0.362965
0.374085
0.385299
0.396697
0.408352
0.420312
0.432642
0.445436
0.458798
0.472843
0.487673
0.493232
)
;
    }
    procBoundary0to3
    {
        type            processor;
        value           nonuniform List<scalar> 
34
(
-0.0164944
-0.0178319
0.205877
-0.019762
0.210029
-0.0219507
0.214342
-0.0244457
0.218861
-0.0271966
0.223636
-0.030226
0.22868
-0.0335098
-0.0361563
0.233293
-0.0399426
0.239334
-0.0438619
-0.0474085
0.245585
-0.0516599
-0.0558011
0.253476
-0.0600384
0.262948
-0.0638061
-0.0684339
0.27539
-0.071098
-0.0754914
0.291571
-0.0761059
-0.0796289
)
;
    }
}


// ************************************************************************* //
