/*--------------------------------*- C++ -*----------------------------------*\
| =========                 |                                                 |
| \\      /  F ield         | OpenFOAM: The Open Source CFD Toolbox           |
|  \\    /   O peration     | Version:  dev                                   |
|   \\  /    A nd           | Web:      www.OpenFOAM.org                      |
|    \\/     M anipulation  |                                                 |
\*---------------------------------------------------------------------------*/
FoamFile
{
    version     2.0;
    format      ascii;
    class       volVectorField;
    location    "2.95";
    object      Force;
}
// * * * * * * * * * * * * * * * * * * * * * * * * * * * * * * * * * * * * * //

dimensions      [1 1 -2 0 0 0 0];

internalField   uniform (0 0 0);

boundaryField
{
    inlet
    {
        type            calculated;
        value           uniform (0 0 0);
    }
    outlet
    {
        type            calculated;
        value           uniform (0 0 0);
    }
    flap
    {
        type            calculated;
        value           nonuniform List<vector> 
33
(
(3.64066 1.90861e-17 -0.228008)
(3.58115 -3.262e-21 -0.482272)
(3.50584 1.80906e-17 -0.69913)
(3.41808 -1.0359e-37 -0.841639)
(3.32746 2.71533e-22 -0.924941)
(3.23843 -1.95677e-22 -0.963199)
(3.15185 1.66148e-17 -0.96997)
(3.06645 1.37753e-40 -0.955602)
(2.97642 -5.3292e-23 -0.925952)
(2.87588 5.24132e-23 -0.883881)
(2.75799 1.60494e-17 -0.830998)
(2.61028 1.59153e-17 -0.768817)
(2.41112 0 -0.6963)
(2.11967 -3.30608e-39 -0.603284)
(1.64558 1.4165e-17 -0.466733)
(0.158063 9.01982e-18 0.5403)
(0.0872509 -2.42496e-21 0.306732)
(0.0203431 1.78301e-21 0.0755806)
(-0.0799641 2.91362e-20 0.00506894)
(-0.0806455 -1.90576e-24 0.010927)
(-0.0812994 1.45068e-17 0.0162483)
(-0.0821118 -1.03315e-40 0.0201545)
(-0.0832574 1.54363e-17 0.0229941)
(-0.0850616 2.42849e-19 0.0250711)
(-0.0880061 1.60305e-17 0.0267919)
(-0.0926824 -2.62791e-19 0.0285775)
(-0.0995764 1.6348e-17 0.0307184)
(-0.10866 1.64487e-17 0.0332452)
(-0.1198 1.65215e-17 0.0361671)
(-0.13316 -5.80066e-24 0.0396413)
(-0.148028 -9.06283e-22 0.0436164)
(-0.161743 7.20754e-23 0.0474968)
(-0.162848 -7.96418e-23 0.0481435)
)
;
    }
    upperWall
    {
        type            calculated;
        value           uniform (0 0 0);
    }
    lowerWall
    {
        type            calculated;
        value           uniform (0 0 0);
    }
    frontAndBack
    {
        type            empty;
    }
}


// ************************************************************************* //
