/*--------------------------------*- C++ -*----------------------------------*\
| =========                 |                                                 |
| \\      /  F ield         | OpenFOAM: The Open Source CFD Toolbox           |
|  \\    /   O peration     | Version:  dev                                   |
|   \\  /    A nd           | Web:      www.OpenFOAM.org                      |
|    \\/     M anipulation  |                                                 |
\*---------------------------------------------------------------------------*/
FoamFile
{
    version     2.0;
    format      ascii;
    class       surfaceScalarField;
    location    "0.57";
    object      meshPhi;
}
// * * * * * * * * * * * * * * * * * * * * * * * * * * * * * * * * * * * * * //

dimensions      [0 3 -1 0 0 0 0];

internalField   nonuniform List<scalar> 
5457
(
-1.6597e-06
-6.51036e-08
-4.50522e-06
-1.66589e-07
-9.34245e-06
-2.03621e-07
-1.64224e-05
-1.63412e-07
-2.55044e-05
-4.57021e-08
-3.6017e-05
1.41964e-07
-4.71783e-05
3.85806e-07
-5.81018e-05
6.6712e-07
-6.78975e-05
9.63317e-07
-7.57583e-05
1.24928e-06
-8.10324e-05
1.49958e-06
-8.3287e-05
1.69108e-06
-8.23592e-05
1.80535e-06
-7.83763e-05
1.83131e-06
-7.17424e-05
1.76656e-06
-6.30961e-05
1.61894e-06
-5.32288e-05
1.40578e-06
-4.29773e-05
1.15081e-06
-3.31137e-05
8.80846e-07
-2.42474e-05
6.21258e-07
-1.69533e-05
3.99951e-07
-1.13639e-05
2.36572e-07
-7.20688e-06
1.2582e-07
-4.28455e-06
5.48319e-08
-2.35306e-06
1.51903e-08
-1.16151e-06
-2.27742e-09
-4.88074e-07
-6.59969e-09
-1.5508e-07
-5.09461e-09
-3.02669e-08
-2.62979e-09
-5.16937e-10
-1.46457e-06
-1.33522e-07
-4.16636e-06
-3.42419e-07
-8.91353e-06
-4.21197e-07
-1.59479e-05
-3.44368e-07
-2.50238e-05
-1.11697e-07
-3.55675e-05
2.61495e-07
-4.6795e-05
7.47922e-07
-5.78139e-05
1.31049e-06
-6.77275e-05
1.90423e-06
-7.5722e-05
2.47889e-06
-8.11355e-05
2.98354e-06
-8.35231e-05
3.37164e-06
-8.27103e-05
3.6052e-06
-7.88148e-05
3.66102e-06
-7.22349e-05
3.53586e-06
-6.36088e-05
3.2457e-06
-5.37327e-05
2.82362e-06
-4.34521e-05
2.31684e-06
-3.35511e-05
1.7791e-06
-2.46555e-05
1.26174e-06
-1.73047e-05
8.19297e-07
-1.16366e-05
4.89762e-07
-7.41762e-06
2.64593e-07
-4.44071e-06
1.19426e-07
-2.46283e-06
3.72545e-08
-1.2323e-06
-1.12225e-10
-5.27348e-07
-1.05929e-08
-1.71684e-07
-8.87565e-09
-3.4954e-08
-4.68721e-09
-9.68916e-10
-1.21964e-06
-2.06905e-07
-3.72415e-06
-5.32365e-07
-8.32191e-06
-6.60941e-07
-1.52476e-05
-5.54815e-07
-2.4252e-05
-2.14126e-07
-3.47616e-05
3.3783e-07
-4.59959e-05
1.06057e-06
-5.70629e-05
1.89892e-06
-6.70635e-05
2.78571e-06
-7.51839e-05
3.64669e-06
-8.07584e-05
4.40664e-06
-8.33326e-05
4.99579e-06
-8.27192e-05
5.35708e-06
-7.90217e-05
5.45524e-06
-7.26263e-05
5.2841e-06
-6.41603e-05
4.86613e-06
-5.44107e-05
4.24964e-06
-4.42194e-05
3.50422e-06
-3.43721e-05
2.70983e-06
-2.55005e-05
1.94344e-06
-1.8092e-05
1.28357e-06
-1.2287e-05
7.84026e-07
-7.92355e-06
4.36241e-07
-4.81122e-06
2.08411e-07
-2.71508e-06
7.61299e-08
-1.3883e-06
1.27643e-08
-6.09927e-07
-8.40042e-09
-2.04809e-07
-9.55173e-09
-4.36197e-08
-5.4106e-09
-1.07157e-09
-9.40117e-07
-2.86576e-07
-3.20104e-06
-7.40324e-07
-7.59061e-06
-9.29531e-07
-1.43394e-05
-8.05207e-07
-2.31992e-05
-3.68164e-07
-3.35979e-05
3.50809e-07
-4.47623e-05
1.29818e-06
-5.58109e-05
2.40113e-06
-6.58495e-05
3.57136e-06
-7.40697e-05
4.71243e-06
-7.98092e-05
5.72624e-06
-8.26091e-05
6.52053e-06
-8.22711e-05
7.02015e-06
-7.88822e-05
7.17789e-06
-7.28092e-05
6.98255e-06
-6.46562e-05
6.46101e-06
-5.51859e-05
5.67518e-06
-4.52203e-05
4.71466e-06
-3.55334e-05
3.68385e-06
-2.67521e-05
2.68397e-06
-1.92982e-05
1.81386e-06
-1.33082e-05
1.14032e-06
-8.71972e-06
6.58729e-07
-5.38982e-06
3.35554e-07
-3.10086e-06
1.41396e-07
-1.61866e-06
4.24169e-08
-7.26534e-07
3.42457e-09
-2.49454e-07
-5.41302e-09
-5.44549e-08
-4.10039e-09
-7.43494e-10
-5.85253e-07
-3.74326e-07
-2.53048e-06
-9.71446e-07
-6.64523e-06
-1.23547e-06
-1.31538e-05
-1.10759e-06
-2.18105e-05
-5.89666e-07
-3.20461e-05
2.80445e-07
-4.30934e-05
1.43628e-06
-5.40875e-05
2.78842e-06
-6.41483e-05
4.22995e-06
-7.24731e-05
5.64341e-06
-7.84034e-05
6.90857e-06
-8.14785e-05
7.91234e-06
-8.14892e-05
8.56224e-06
-7.85036e-05
8.79886e-06
-7.28621e-05
8.60546e-06
-6.51382e-05
8.01172e-06
-5.60593e-05
7.09035e-06
-4.64157e-05
5.9475e-06
-3.69626e-05
4.70801e-06
-2.83185e-05
3.4951e-06
-2.08246e-05
2.42445e-06
-1.46093e-05
1.57242e-06
-9.73553e-06
9.43511e-07
-6.12541e-06
5.09967e-07
-3.58424e-06
2.40043e-07
-1.89844e-06
9.34776e-08
-8.61198e-07
2.74302e-08
-2.97462e-07
4.56595e-09
-6.4916e-08
-5.65036e-10
-2.39722e-12
-1.53042e-07
-4.71617e-07
-1.70973e-06
-1.23064e-06
-5.48401e-06
-1.58759e-06
-1.16918e-05
-1.47401e-06
-2.00859e-05
-8.93671e-07
-3.01045e-05
1.0775e-07
-4.09895e-05
1.45196e-06
-5.18913e-05
3.03447e-06
-6.19505e-05
4.73134e-06
-7.03744e-05
6.4056e-06
-7.651e-05
7.91677e-06
-7.98965e-05
9.13287e-06
-8.03146e-05
9.94506e-06
-7.78104e-05
1.02818e-05
-7.2693e-05
1.01202e-05
-6.54986e-05
9.49049e-06
-5.69124e-05
8.47339e-06
-4.76852e-05
7.18856e-06
-3.85412e-05
5.77645e-06
-3.00827e-05
4.37823e-06
-2.25604e-05
3.12123e-06
-1.60912e-05
2.08743e-06
-1.08878e-05
1.29642e-06
-6.95509e-06
7.35557e-07
-4.12175e-06
3.74698e-07
-2.19972e-06
1.6756e-07
-9.97584e-07
6.41006e-08
-3.41085e-07
2.00989e-08
-7.29546e-08
4.69141e-09
9.71993e-10
3.57262e-07
-5.80083e-07
-7.37599e-07
-1.52278e-06
-4.10428e-06
-1.99379e-06
-9.95075e-06
-1.91535e-06
-1.80242e-05
-1.29389e-06
-2.77698e-05
-1.83818e-07
-3.84453e-05
1.32543e-06
-4.92165e-05
3.11612e-06
-5.92432e-05
5.04844e-06
-6.775e-05
6.96815e-06
-7.40925e-05
8.71702e-06
-7.78113e-05
1.01461e-05
-7.86772e-05
1.11314e-05
-7.6713e-05
1.15896e-05
-7.21923e-05
1.14909e-05
-6.56072e-05
1.08639e-05
-5.75979e-05
9.79361e-06
-4.88721e-05
8.40961e-06
-4.01105e-05
6.86529e-06
-3.18891e-05
5.31632e-06
-2.43619e-05
3.89361e-06
-1.76312e-05
2.67926e-06
-1.2074e-05
1.71401e-06
-7.7963e-06
1.00983e-06
-4.6551e-06
5.42763e-07
-2.48751e-06
2.62078e-07
-1.11825e-06
1.11103e-07
-3.74483e-07
3.94836e-08
-7.77815e-08
1.07487e-08
1.96107e-09
9.45028e-07
-7.00843e-07
3.83595e-07
-1.85063e-06
-2.50925e-06
-2.45809e-06
-7.93184e-06
-2.43807e-06
-1.56283e-05
-1.80034e-06
-2.50474e-05
-6.07297e-07
-3.54627e-05
1.04062e-06
-4.60589e-05
3.01327e-06
-5.6016e-05
5.15683e-06
-6.45792e-05
7.30226e-06
-7.11166e-05
9.27622e-06
-7.51711e-05
1.09148e-05
-7.65053e-05
1.20807e-05
-7.51175e-05
1.26794e-05
-7.12433e-05
1.26735e-05
-6.53274e-05
1.20884e-05
-5.79601e-05
1.10098e-05
-4.97985e-05
9.57244e-06
-4.14772e-05
7.939e-06
-3.35435e-05
6.27664e-06
-2.60485e-05
4.71364e-06
-1.90773e-05
3.32559e-06
-1.31752e-05
2.17891e-06
-8.56047e-06
1.3201e-06
-5.12449e-06
7.35179e-07
-2.72758e-06
3.70354e-07
-1.20894e-06
1.63957e-07
-3.95161e-07
6.03279e-08
-7.99072e-08
1.67585e-08
2.86563e-09
1.60809e-06
-8.34252e-07
1.64757e-06
-2.21515e-06
-7.11271e-07
-2.98209e-06
-5.65068e-06
-3.0447e-06
-1.29127e-05
-2.41783e-06
-2.19537e-05
-1.17109e-06
-3.20594e-05
5.85462e-07
-4.24323e-05
2.70972e-06
-5.22756e-05
5.03544e-06
-6.0859e-05
7.38152e-06
-6.75649e-05
9.56233e-06
-7.1939e-05
1.14015e-05
-7.37372e-05
1.275e-05
-7.29354e-05
1.3504e-05
-6.97312e-05
1.36179e-05
-6.45199e-05
1.31112e-05
-5.78366e-05
1.20678e-05
-5.02816e-05
1.0624e-05
-4.24436e-05
8.94722e-06
-3.48399e-05
7.21093e-06
-2.74252e-05
5.5363e-06
-2.02659e-05
3.98852e-06
-1.40677e-05
2.66195e-06
-9.16387e-06
1.64475e-06
-5.4783e-06
9.36778e-07
-2.89401e-06
4.82713e-07
-1.2632e-06
2.1761e-07
-4.04528e-07
8.07244e-08
-8.04018e-08
2.23346e-08
3.66557e-09
2.34582e-06
-9.81187e-07
3.0505e-06
-2.61873e-06
1.27968e-06
-3.56922e-06
-3.12535e-06
-3.73921e-06
-9.89855e-06
-3.15073e-06
-1.85074e-05
-1.88151e-06
-2.82523e-05
-4.96993e-08
-3.83513e-05
2.19262e-06
-4.80307e-05
4.668e-06
-5.65865e-05
7.18527e-06
-6.34197e-05
9.55005e-06
-6.80803e-05
1.15763e-05
-7.0316e-05
1.31047e-05
-7.00852e-05
1.40227e-05
-6.75502e-05
1.42767e-05
-6.30532e-05
1.3879e-05
-5.70712e-05
1.29089e-05
-5.01484e-05
1.15011e-05
-4.28258e-05
9.82354e-06
-3.55861e-05
8.05267e-06
-2.83105e-05
6.2985e-06
-2.10516e-05
4.61406e-06
-1.46485e-05
3.12238e-06
-9.53989e-06
1.95528e-06
-5.68078e-06
1.12907e-06
-2.97554e-06
5.88855e-07
-1.28294e-06
2.6754e-07
-4.05639e-07
9.94005e-08
-7.98796e-08
2.7356e-08
4.37736e-09
3.16033e-06
-1.14265e-06
4.59345e-06
-3.06392e-06
3.46048e-06
-4.22267e-06
-3.653e-07
-4.52493e-06
-6.60269e-06
-4.00221e-06
-1.47245e-05
-2.74194e-06
-2.40524e-05
-8.69971e-07
-3.38246e-05
1.4546e-06
-4.32874e-05
4.04529e-06
-5.176e-05
6.70211e-06
-5.86677e-05
9.22372e-06
-6.35709e-05
1.14173e-05
-6.62073e-05
1.31157e-05
-6.6518e-05
1.41985e-05
-6.46312e-05
1.46043e-05
-6.08368e-05
1.43382e-05
-5.55539e-05
1.34731e-05
-4.92706e-05
1.2138e-05
-4.24814e-05
1.04981e-05
-3.56345e-05
8.7296e-06
-2.85665e-05
6.93068e-06
-2.13265e-05
5.1426e-06
-1.48466e-05
3.51501e-06
-9.6493e-06
2.22098e-06
-5.71807e-06
1.29347e-06
-2.97331e-06
6.79205e-07
-1.27199e-06
3.0982e-07
-3.99762e-07
1.15212e-07
-7.83134e-08
3.16275e-08
4.976e-09
4.05577e-06
-1.31962e-06
6.27951e-06
-3.55284e-06
5.82801e-06
-4.94416e-06
2.61984e-06
-5.40236e-06
-3.04402e-06
-4.97133e-06
-1.06339e-05
-3.74914e-06
-1.94925e-05
-1.87029e-06
-2.88862e-05
5.00069e-07
-3.80827e-05
3.16959e-06
-4.6422e-05
5.9318e-06
-5.33508e-05
8.57908e-06
-5.84443e-05
1.09137e-05
-6.14354e-05
1.27642e-05
-6.22446e-05
1.40038e-05
-6.09653e-05
1.45643e-05
-5.78413e-05
1.44441e-05
-5.32368e-05
1.37079e-05
-4.75857e-05
1.2477e-05
-4.13376e-05
1.09105e-05
-3.49089e-05
9.18054e-06
-2.81243e-05
7.37485e-06
-2.104e-05
5.5255e-06
-1.46346e-05
3.80384e-06
-9.48364e-06
2.41769e-06
-5.59302e-06
1.41528e-06
-2.89175e-06
7.45921e-07
-1.23121e-06
3.40896e-07
-3.8592e-07
1.26788e-07
-7.52219e-08
3.47214e-08
5.3776e-09
5.03685e-06
-1.51242e-06
8.11029e-06
-4.08551e-06
8.37284e-06
-5.73146e-06
5.81059e-06
-6.36635e-06
7.4774e-07
-6.05068e-06
-6.2818e-06
-4.89334e-06
-1.46344e-05
-3.03813e-06
-2.36055e-05
-6.57151e-07
-3.24904e-05
2.0533e-06
-4.0651e-05
4.88335e-06
-4.75509e-05
7.62152e-06
-5.27773e-05
1.0067e-05
-5.60641e-05
1.20458e-05
-5.73129e-05
1.34275e-05
-5.65854e-05
1.41387e-05
-5.40846e-05
1.41708e-05
-5.01251e-05
1.35802e-05
-4.50909e-05
1.24792e-05
-3.93899e-05
1.10183e-05
-3.34096e-05
9.3632e-06
-2.69913e-05
7.59209e-06
-2.02064e-05
5.73063e-06
-1.40309e-05
3.96543e-06
-9.06118e-06
2.5298e-06
-5.31837e-06
1.48479e-06
-2.73529e-06
7.83218e-07
-1.15913e-06
3.57335e-07
-3.61551e-07
1.32165e-07
-6.94565e-08
3.5733e-08
5.37497e-09
6.10604e-06
-1.72035e-06
1.00816e-05
-4.65903e-06
1.10735e-05
-6.57737e-06
9.17332e-06
-7.40524e-06
4.72996e-06
-7.22592e-06
-1.72006e-06
-6.15904e-06
-9.54198e-06
-4.3575e-06
-1.80553e-05
-2.00013e-06
-2.65858e-05
7.13828e-07
-3.45206e-05
3.57328e-06
-4.13393e-05
6.36555e-06
-4.66396e-05
8.88914e-06
-5.01577e-05
1.09694e-05
-5.17814e-05
1.24742e-05
-5.15458e-05
1.33265e-05
-4.96173e-05
1.35117e-05
-4.62671e-05
1.30779e-05
-4.18355e-05
1.21276e-05
-3.66928e-05
1.08015e-05
-3.12008e-05
9.25634e-06
-2.52364e-05
7.56268e-06
-1.88866e-05
5.74173e-06
-1.30837e-05
3.98755e-06
-8.41537e-06
2.54855e-06
-4.91184e-06
1.49573e-06
-2.5084e-06
7.86442e-07
-1.05277e-06
3.55515e-07
-3.22311e-07
1.28589e-07
-5.8521e-08
3.29133e-08
4.36595e-09
7.17364e-06
-1.91779e-06
1.21349e-05
-5.23332e-06
1.39232e-05
-7.46917e-06
1.26873e-05
-8.52061e-06
8.87715e-06
-8.49556e-06
3.02632e-06
-7.54391e-06
-4.23951e-06
-5.8258e-06
-1.22616e-05
-3.52587e-06
-2.03965e-05
-8.45076e-07
-2.80569e-05
2.00613e-06
-3.47409e-05
4.81607e-06
-4.00577e-05
7.38456e-06
-4.37463e-05
9.53835e-06
-4.56846e-05
1.11455e-05
-4.58859e-05
1.21269e-05
-4.44853e-05
1.24632e-05
-4.17168e-05
1.21946e-05
-3.78825e-05
1.14139e-05
-3.33197e-05
1.02505e-05
-2.83669e-05
8.85127e-06
-2.29437e-05
7.27977e-06
-1.71491e-05
5.55334e-06
-1.18402e-05
3.86519e-06
-7.5729e-06
2.46887e-06
-4.38261e-06
1.44283e-06
-2.20786e-06
7.50145e-07
-9.02697e-07
3.29977e-07
-2.57157e-07
1.10631e-07
-3.16843e-08
2.04781e-08
-5.77137e-10
1.42029e-07
7.79256e-10
7.28457e-07
7.26562e-09
2.32017e-06
2.33248e-08
5.3264e-06
5.96925e-08
9.92909e-06
1.1849e-07
1.61468e-05
1.94632e-07
2.3934e-05
2.74307e-07
3.32472e-05
3.40309e-07
4.40568e-05
3.8059e-07
5.53244e-05
3.66602e-07
6.61475e-05
2.50555e-07
7.69124e-05
2.38664e-08
8.76915e-05
-2.76947e-07
9.80874e-05
-6.1946e-07
0.000107649
-9.82781e-07
0.000115898
-1.34067e-06
0.000122391
-1.67075e-06
0.000126758
-1.95551e-06
0.000128728
-2.18302e-06
0.000128144
-2.34654e-06
0.000124966
-2.44326e-06
0.000119246
-2.47253e-06
0.000111126
-2.43415e-06
0.000100795
-2.32878e-06
8.8433e-05
-2.16026e-06
7.42002e-05
-1.9286e-06
5.81985e-05
-1.62836e-06
4.04563e-05
-1.25487e-06
2.09381e-05
-8.05278e-07
-2.82396e-07
1.48415e-07
2.16161e-09
7.54374e-07
1.53315e-08
2.35939e-06
4.84917e-08
5.34886e-06
1.19213e-07
9.90494e-06
2.30844e-07
1.60538e-05
3.72092e-07
2.37541e-05
5.18233e-07
3.29701e-05
6.38059e-07
4.36609e-05
7.04567e-07
5.49279e-05
6.63099e-07
6.58259e-05
4.28848e-07
7.66227e-05
-1.47697e-08
8.7464e-05
-6.03519e-07
9.79298e-05
-1.27548e-06
0.000107553
-1.98621e-06
0.000115849
-2.68576e-06
0.000122374
-3.33128e-06
0.000126754
-3.88873e-06
0.000128724
-4.33469e-06
0.000128129
-4.65575e-06
0.000124934
-4.8461e-06
0.000119198
-4.9042e-06
0.000111061
-4.8297e-06
0.000100713
-4.62532e-06
8.83427e-05
-4.29494e-06
7.41152e-05
-3.83605e-06
5.81276e-05
-3.24069e-06
4.04023e-05
-2.50004e-06
2.09077e-05
-1.60566e-06
-5.63117e-07
1.53815e-07
3.33692e-09
7.69455e-07
2.29142e-08
2.34828e-06
7.13031e-08
5.24049e-06
1.69799e-07
9.63503e-06
3.2076e-07
1.55825e-05
5.07248e-07
2.30625e-05
6.96072e-07
3.20534e-05
8.44175e-07
4.25177e-05
9.10748e-07
5.36829e-05
8.22797e-07
6.46163e-05
4.67375e-07
7.54809e-05
-1.80169e-07
8.64243e-05
-1.03282e-06
9.70026e-05
-2.00444e-06
0.000106731
-3.02978e-06
0.000115123
-4.04014e-06
0.000121727
-4.97404e-06
0.000126173
-5.78231e-06
0.000128194
-6.43068e-06
0.000127643
-6.89897e-06
0.000124487
-7.17794e-06
0.00011879
-7.2648e-06
0.000110691
-7.15906e-06
0.000100379
-6.86333e-06
8.80504e-05
-6.37884e-06
7.38721e-05
-5.70016e-06
5.79388e-05
-4.8174e-06
4.02721e-05
-3.71826e-06
2.08406e-05
-2.38901e-06
-8.37926e-07
1.54343e-07
4.39718e-09
7.58219e-07
2.88007e-08
2.26335e-06
8.76603e-08
4.98391e-06
2.03093e-07
9.11867e-06
3.74789e-07
1.47568e-05
5.81055e-07
2.19131e-05
7.81993e-07
3.05817e-05
9.26017e-07
4.07341e-05
9.61275e-07
5.16923e-05
8.03614e-07
6.26022e-05
3.23786e-07
7.35529e-05
-5.10852e-07
8.46195e-05
-1.59826e-06
9.53342e-05
-2.83186e-06
0.000105198
-4.13138e-06
0.00011372
-5.41432e-06
0.000120444
-6.60293e-06
0.000125
-7.63471e-06
0.000127124
-8.46534e-06
0.000126671
-9.06778e-06
0.000123613
-9.42863e-06
0.000118012
-9.54322e-06
0.000110007
-9.41035e-06
9.97891e-05
-9.02956e-06
8.75563e-05
-8.39824e-06
7.3473e-05
-7.50863e-06
5.76347e-05
-6.34794e-06
4.00672e-05
-4.90052e-06
2.07376e-05
-3.14895e-06
-1.10452e-06
1.49552e-07
5.212e-09
7.23908e-07
3.22267e-08
2.12928e-06
9.58534e-08
4.64814e-06
2.1624e-07
8.48432e-06
3.89656e-07
1.37647e-05
5.90041e-07
2.05464e-05
7.71864e-07
2.88448e-05
8.77531e-07
3.86343e-05
8.48123e-07
4.93318e-05
5.94942e-07
6.01869e-05
-1.40909e-08
7.12143e-05
-1.01701e-06
8.23963e-05
-2.30642e-06
9.32474e-05
-3.76376e-06
0.000103254
-5.29767e-06
0.000111916
-6.81329e-06
0.000118775
-8.22079e-06
0.00012346
-9.44666e-06
0.000125709
-1.04375e-05
0.000125381
-1.11594e-05
0.000122448
-1.15941e-05
0.000116974
-1.17339e-05
0.000109097
-1.15755e-05
9.90086e-05
-1.11144e-05
8.69054e-05
-1.03439e-05
7.29497e-05
-9.25287e-06
5.72371e-05
-7.82519e-06
3.97986e-05
-6.04261e-06
2.06022e-05
-3.88369e-06
-1.36235e-06
1.39502e-07
5.50288e-09
6.7077e-07
3.23627e-08
1.96334e-06
9.45496e-08
4.27549e-06
2.0811e-07
7.81173e-06
3.65339e-07
1.27268e-05
5.36063e-07
1.91167e-05
6.70489e-07
2.70252e-05
7.06255e-07
3.64324e-05
5.80258e-07
4.68433e-05
2.06821e-07
5.76157e-05
-5.37796e-07
6.86915e-05
-1.69279e-06
7.99568e-05
-3.15315e-06
9.0916e-05
-4.79687e-06
0.000101044
-6.52516e-06
0.000109831
-8.23356e-06
0.000116817
-9.8237e-06
0.000121631
-1.12135e-05
0.000124014
-1.23416e-05
0.000123824
-1.31675e-05
0.000121034
-1.36667e-05
0.000115708
-1.38284e-05
0.000107986
-1.36463e-05
9.80558e-05
-1.31102e-05
8.61126e-05
-1.22086e-05
7.23127e-05
-1.09269e-05
5.67514e-05
-9.24481e-06
3.94702e-05
-7.1409e-06
2.04369e-05
-4.59037e-06
-1.61038e-06
1.26266e-07
5.1679e-09
6.08384e-07
2.90557e-08
1.78613e-06
8.3625e-08
3.90343e-06
1.79464e-07
7.16514e-06
3.0449e-07
1.17437e-05
4.24691e-07
1.77639e-05
4.87072e-07
2.52929e-05
4.26661e-07
3.43223e-05
1.78008e-07
4.44395e-05
-3.36816e-07
5.51003e-05
-1.22356e-06
6.61819e-05
-2.5174e-06
7.74834e-05
-4.12226e-06
8.85026e-05
-5.91838e-06
9.87082e-05
-7.80314e-06
0.000107584
-9.66672e-06
0.00011467
-1.1405e-05
0.000119596
-1.29296e-05
0.000122102
-1.41726e-05
0.00012205
-1.50873e-05
0.000119411
-1.56435e-05
0.000114248
-1.58246e-05
0.000106701
-1.5619e-05
9.69533e-05
-1.50117e-05
8.51936e-05
-1.39865e-05
7.15731e-05
-1.25248e-05
5.61886e-05
-1.06023e-05
3.90904e-05
-8.19235e-06
2.02455e-05
-5.26695e-06
-1.84785e-06
1.12721e-07
4.2355e-09
5.47396e-07
2.28111e-08
1.61847e-06
6.42782e-08
3.56395e-06
1.32772e-07
6.59199e-06
2.11618e-07
1.08856e-05
2.63498e-07
1.65877e-05
2.33214e-07
2.37806e-05
5.49896e-08
3.24661e-05
-3.36563e-07
4.22995e-05
-1.00802e-06
5.28188e-05
-2.04075e-06
6.38527e-05
-3.46225e-06
7.51303e-05
-5.18912e-06
8.6147e-05
-7.10831e-06
9.63696e-05
-9.11634e-06
0.000105282
-1.11015e-05
0.000112425
-1.29567e-05
0.000117431
-1.45892e-05
0.000120041
-1.59263e-05
0.000120115
-1.69155e-05
0.000117624
-1.75217e-05
0.000112632
-1.77198e-05
0.000105275
-1.74904e-05
9.57258e-05
-1.68152e-05
8.41659e-05
-1.56736e-05
7.07445e-05
-1.40417e-05
5.55621e-05
-1.18913e-05
3.86694e-05
-9.19126e-06
2.00326e-05
-5.91018e-06
-2.07364e-06
1.01143e-07
2.79454e-09
4.96475e-07
1.42162e-08
1.48021e-06
3.81439e-08
3.28755e-06
7.12781e-08
6.13201e-06
9.22055e-08
1.02033e-05
6.08862e-08
1.56532e-05
-7.8681e-08
2.2573e-05
-3.91366e-07
3.09709e-05
-9.40189e-07
4.0546e-05
-1.77757e-06
5.08987e-05
-2.95698e-06
6.18288e-05
-4.4963e-06
7.30167e-05
-6.32654e-06
8.39604e-05
-8.34432e-06
9.4131e-05
-1.04476e-05
0.000103017
-1.25256e-05
0.000110164
-1.44704e-05
0.000115207
-1.61874e-05
0.000117891
-1.75996e-05
0.000118074
-1.86494e-05
0.000115725
-1.92955e-05
0.000110906
-1.95057e-05
0.000103743
-1.92538e-05
9.44017e-05
-1.85159e-05
8.30548e-05
-1.72658e-05
6.98489e-05
-1.54743e-05
5.48861e-05
-1.31087e-05
3.8215e-05
-1.01347e-05
1.98023e-05
-6.51781e-06
-2.28695e-06
9.31436e-08
9.18393e-10
4.6156e-07
3.64853e-09
1.38648e-06
6.23354e-09
3.10078e-06
-2.66461e-09
5.82053e-06
-4.90878e-08
9.73833e-06
-1.75081e-07
1.50087e-05
-4.36158e-07
2.17264e-05
-8.94494e-07
2.99014e-05
-1.60876e-06
3.92535e-05
-2.61565e-06
4.94217e-05
-3.93958e-06
6.01949e-05
-5.58773e-06
7.12277e-05
-7.50604e-06
8.20267e-05
-9.60244e-06
9.20729e-05
-1.17782e-05
0.000100865
-1.39251e-05
0.000107956
-1.59369e-05
0.00011299
-1.77181e-05
0.000115711
-1.91888e-05
0.000115979
-2.02867e-05
0.00011376
-2.09638e-05
0.000109106
-2.11818e-05
0.000102137
-2.09081e-05
9.30093e-05
-2.0112e-05
8.1885e-05
-1.87612e-05
6.89063e-05
-1.6821e-05
5.41738e-05
-1.42542e-05
3.77348e-05
-1.10229e-05
1.95584e-05
-7.09005e-06
-2.48785e-06
9.01587e-08
-1.37616e-09
4.47042e-07
-8.84538e-09
1.34683e-06
-3.13735e-08
3.02012e-06
-8.85304e-08
5.68053e-06
-2.10393e-07
9.51829e-06
-4.39998e-07
1.4686e-05
-8.31101e-07
2.1276e-05
-1.44178e-06
2.92952e-05
-2.32474e-06
3.84622e-05
-3.50013e-06
4.84325e-05
-4.96368e-06
5.90005e-05
-6.71188e-06
6.98169e-05
-8.70545e-06
8.04024e-05
-1.08643e-05
9.02535e-05
-1.3094e-05
9.88835e-05
-1.52907e-05
0.00010586
-1.73508e-05
0.000110832
-1.91792e-05
0.000113551
-2.06945e-05
0.000113876
-2.18296e-05
0.000111766
-2.2531e-05
0.000107267
-2.27538e-05
0.000100487
-2.24587e-05
9.15724e-05
-2.16081e-05
8.06752e-05
-2.01635e-05
6.79307e-05
-1.80845e-05
5.34356e-05
-1.53295e-05
3.7236e-05
-1.1857e-05
1.93046e-05
-7.62746e-06
-2.6765e-06
9.40929e-08
-4.23359e-09
4.58234e-07
-2.38942e-08
1.37081e-06
-7.60032e-08
3.05819e-06
-1.88117e-07
5.7264e-06
-3.93152e-07
9.55785e-06
-7.33776e-07
1.46982e-05
-1.26083e-06
2.12331e-05
-2.02738e-06
2.91609e-05
-3.07909e-06
3.81783e-05
-4.41872e-06
4.79389e-05
-6.01429e-06
5.82589e-05
-7.8532e-06
6.88041e-05
-9.91091e-06
7.91135e-05
-1.21191e-05
8.8704e-05
-1.43881e-05
9.71085e-05
-1.66191e-05
0.000103911
-1.87122e-05
0.000108772
-2.0574e-05
0.000111448
-2.21216e-05
0.000111797
-2.32847e-05
0.000109775
-2.40039e-05
0.000105416
-2.42282e-05
9.88177e-05
-2.39114e-05
9.01132e-05
-2.3009e-05
7.94439e-05
-2.14763e-05
6.69363e-05
-1.92676e-05
5.26822e-05
-1.63365e-05
3.67264e-05
-1.26382e-05
1.90451e-05
-8.1307e-06
-2.85315e-06
1.0891e-07
-8.2659e-09
5.05034e-07
-4.35821e-08
1.4744e-06
-1.31525e-07
3.23342e-06
-3.06498e-07
5.97457e-06
-6.02263e-07
9.86786e-06
-1.05968e-06
1.50488e-05
-1.72599e-06
2.15946e-05
-2.64928e-06
2.94911e-05
-3.86818e-06
3.8387e-05
-5.36576e-06
4.79219e-05
-7.08223e-06
5.7957e-05
-9.00079e-06
6.81848e-05
-1.11128e-05
7.81642e-05
-1.33596e-05
8.74364e-05
-1.56561e-05
9.55585e-05
-1.79089e-05
0.000102134
-2.00227e-05
0.000106837
-2.19062e-05
0.000109431
-2.34758e-05
0.000109775
-2.46582e-05
0.000107816
-2.5389e-05
0.000103581
-2.56111e-05
9.71536e-05
-2.52715e-05
8.86532e-05
-2.43192e-05
7.8209e-05
-2.27033e-05
6.59376e-05
-2.03727e-05
5.19247e-05
-1.72768e-05
3.62136e-05
-1.33675e-05
1.87838e-05
-8.60037e-06
-3.01797e-06
1.44258e-07
-1.52214e-08
6.08996e-07
-7.33211e-08
1.68723e-06
-2.06639e-07
3.57576e-06
-4.53771e-07
6.44857e-06
-8.47003e-07
1.04609e-05
-1.42456e-06
1.57379e-05
-2.23018e-06
2.23516e-05
-3.30848e-06
3.02795e-05
-4.69417e-06
3.90684e-05
-6.34345e-06
4.83457e-05
-8.16335e-06
5.80675e-05
-1.0147e-05
6.7942e-05
-1.23055e-05
7.75467e-05
-1.45822e-05
8.64519e-05
-1.68964e-05
9.42428e-05
-1.91608e-05
0.000100545
-2.12851e-05
0.000105049
-2.31802e-05
0.000107526
-2.47626e-05
0.000107834
-2.59563e-05
0.000105916
-2.66924e-05
0.000101787
-2.69079e-05
9.55183e-05
-2.65438e-05
8.72133e-05
-2.55424e-05
7.69882e-05
-2.38473e-05
6.49488e-05
-2.1402e-05
5.11742e-05
-1.81519e-05
3.57051e-05
-1.40457e-05
1.85248e-05
-9.03688e-06
-3.17109e-06
2.38116e-07
-3.16684e-08
8.28402e-07
-1.31986e-07
2.07089e-06
-3.23581e-07
4.13911e-06
-6.51216e-07
7.18839e-06
-1.14594e-06
1.13592e-05
-1.84347e-06
1.67686e-05
-2.78455e-06
2.34937e-05
-4.01299e-06
3.147e-05
-5.55094e-06
4.01399e-05
-7.32747e-06
4.9157e-05
-9.24118e-06
5.85583e-05
-1.12934e-05
6.80546e-05
-1.34971e-05
7.72461e-05
-1.57971e-05
8.57423e-05
-1.812e-05
9.31598e-05
-2.0387e-05
9.91489e-05
-2.25127e-05
0.000103417
-2.44107e-05
0.000105744
-2.59974e-05
0.00010599
-2.71945e-05
0.00010409
-2.79293e-05
0.00010005
-2.81335e-05
9.3926e-05
-2.77419e-05
8.58062e-05
-2.66912e-05
7.57925e-05
-2.49192e-05
6.39792e-05
-2.23648e-05
5.04376e-05
-1.89692e-05
3.52062e-05
-1.46784e-05
1.82706e-05
-9.44385e-06
-3.31381e-06
8.37892e-06
-2.08331e-06
1.46029e-05
-5.74426e-06
1.75114e-05
-8.34718e-06
1.70175e-05
-9.70739e-06
1.37269e-05
-9.88108e-06
8.29864e-06
-9.06675e-06
1.36329e-06
-7.46115e-06
-6.41782e-06
-5.25173e-06
-1.4409e-05
-2.63983e-06
-2.20291e-05
1.67073e-07
-2.87766e-05
2.96017e-06
-3.4259e-05
5.54215e-06
-3.82101e-05
7.74302e-06
-4.04961e-05
9.43288e-06
-4.1113e-05
1.05322e-05
-4.01739e-05
1.10177e-05
-3.78886e-05
1.09227e-05
-3.45365e-05
1.03299e-05
-3.04364e-05
9.35748e-06
-2.59154e-05
8.1409e-06
-2.09353e-05
6.73746e-06
-1.56024e-05
5.15928e-06
-1.07048e-05
3.58947e-06
-6.77193e-06
2.27844e-06
-3.84365e-06
1.3108e-06
-1.86121e-06
6.56506e-07
-6.85757e-07
2.60854e-07
-1.1758e-07
5.69381e-08
7.04276e-08
-2.39682e-08
-4.37203e-08
9.28783e-08
9.35106e-06
-2.23763e-06
1.66774e-05
-6.19789e-06
2.08818e-05
-9.13326e-06
2.15055e-05
-1.08721e-05
1.89402e-05
-1.13581e-05
1.40572e-05
-1.0734e-05
7.60975e-06
-9.26397e-06
2.41908e-07
-7.17596e-06
-7.43177e-06
-4.66651e-06
-1.48489e-05
-1.93695e-06
-2.15146e-05
8.08191e-07
-2.70416e-05
3.37521e-06
-3.11643e-05
5.59899e-06
-3.3742e-05
7.35324e-06
-3.4756e-05
8.55916e-06
-3.42989e-05
9.19081e-06
-3.25562e-05
9.27493e-06
-2.97824e-05
8.88459e-06
-2.62741e-05
8.12681e-06
-2.23404e-05
7.12557e-06
-1.79853e-05
5.9336e-06
-1.33049e-05
4.55282e-06
-8.98713e-06
3.14399e-06
-5.52382e-06
1.9511e-06
-2.9573e-06
1.06706e-06
-1.23359e-06
4.68965e-07
-2.25289e-07
1.08504e-07
2.52479e-07
-7.60085e-08
4.1107e-07
-1.49526e-07
-1.71457e-07
4.58496e-07
1.03308e-05
-2.39549e-06
1.86169e-05
-6.6447e-06
2.3977e-05
-9.84746e-06
2.59825e-05
-1.19157e-05
2.45545e-05
-1.28007e-05
2.03761e-05
-1.25007e-05
1.44564e-05
-1.12234e-05
7.56276e-06
-9.28042e-06
2.66049e-07
-6.90505e-06
-6.89721e-06
-4.28266e-06
-1.34332e-05
-1.61294e-06
-1.89618e-05
9.13246e-07
-2.32207e-05
3.13733e-06
-2.60644e-05
4.93805e-06
-2.74625e-05
6.2383e-06
-2.74895e-05
7.01002e-06
-2.63087e-05
7.27389e-06
-2.41512e-05
7.09376e-06
-2.12911e-05
6.5659e-06
-1.80187e-05
5.80455e-06
-1.43838e-05
4.86591e-06
-1.04326e-05
3.72858e-06
-6.74465e-06
2.50812e-06
-3.79704e-06
1.45187e-06
-1.6244e-06
6.68828e-07
-1.77095e-07
1.38421e-07
6.64938e-07
-1.8177e-07
1.07381e-06
-3.48966e-07
1.24716e-06
-4.24074e-07
-4.60802e-07
1.3687e-06
1.13802e-05
-2.55382e-06
2.06339e-05
-7.09778e-06
2.69461e-05
-1.05563e-05
3.01696e-05
-1.28744e-05
3.01824e-05
-1.40994e-05
2.71459e-05
-1.42231e-05
2.19113e-05
-1.32861e-05
1.55429e-05
-1.15508e-05
8.68471e-06
-9.33607e-06
1.81829e-06
-6.84743e-06
-4.54368e-06
-4.27635e-06
-1.00331e-05
-1.81484e-06
-1.43946e-05
3.88059e-07
-1.74797e-05
2.21739e-06
-1.92481e-05
3.59824e-06
-1.97575e-05
4.50074e-06
-1.91498e-05
4.93954e-06
-1.76326e-05
4.96916e-06
-1.54566e-05
4.67474e-06
-1.28926e-05
4.16082e-06
-1.00448e-05
3.49294e-06
-6.88205e-06
2.63727e-06
-3.84837e-06
1.64709e-06
-1.42484e-06
7.4486e-07
3.52186e-07
6.55041e-08
1.53181e-06
-3.94874e-07
2.23198e-06
-6.75661e-07
2.61332e-06
-8.30893e-07
2.85916e-06
-9.16165e-07
-9.75599e-07
3.11347e-06
1.2497e-05
-2.71161e-06
2.27947e-05
-7.55085e-06
3.00621e-05
-1.1274e-05
3.42621e-05
-1.38287e-05
3.55395e-05
-1.53007e-05
3.39665e-05
-1.57798e-05
2.98564e-05
-1.52881e-05
2.42054e-05
-1.39259e-05
1.78442e-05
-1.19474e-05
1.13031e-05
-9.60918e-06
5.1598e-06
-7.15366e-06
-2.48439e-07
-4.77965e-06
-4.67895e-06
-2.61863e-06
-7.97946e-06
-7.7833e-07
-1.01015e-05
6.68305e-07
-1.10854e-05
1.68959e-06
-1.10517e-05
2.29365e-06
-1.01823e-05
2.52495e-06
-8.70058e-06
2.45559e-06
-6.8509e-06
2.17465e-06
-4.77399e-06
1.74161e-06
-2.42911e-06
1.14843e-06
-1.02345e-07
4.3445e-07
1.79903e-06
-2.54697e-07
3.20408e-06
-8.06295e-07
4.14738e-06
-1.19464e-06
4.74181e-06
-1.44e-06
5.13806e-06
-1.58741e-06
5.50069e-06
-1.68677e-06
-1.77068e-06
5.92239e-06
1.36855e-05
-2.8677e-06
2.50976e-05
-8.00065e-06
3.34021e-05
-1.19907e-05
3.85721e-05
-1.47933e-05
4.08492e-05
-1.64968e-05
4.05522e-05
-1.72254e-05
3.78609e-05
-1.70892e-05
3.33155e-05
-1.61646e-05
2.76797e-05
-1.45749e-05
2.1578e-05
-1.25087e-05
1.56881e-05
-1.02159e-05
1.0409e-05
-7.94652e-06
5.94439e-06
-5.84799e-06
2.45832e-06
-4.01429e-06
3.70961e-09
-2.51791e-06
-1.43967e-06
-1.39211e-06
-1.9692e-06
-6.36499e-07
-1.73934e-06
-2.17019e-07
-9.40711e-07
-7.58321e-08
2.19989e-07
-1.42303e-07
1.60126e-06
-3.68481e-07
3.17381e-06
-7.3602e-07
4.76518e-06
-1.1916e-06
6.12731e-06
-1.64365e-06
7.17956e-06
-2.02961e-06
7.92701e-06
-2.3266e-06
8.45484e-06
-2.53416e-06
8.89562e-06
-2.67489e-06
9.39637e-06
-2.78683e-06
-2.89184e-06
9.99744e-06
1.49496e-05
-3.02067e-06
2.75495e-05
-8.44298e-06
3.69625e-05
-1.26995e-05
4.31841e-05
-1.57536e-05
4.64478e-05
-1.77015e-05
4.71503e-05
-1.86635e-05
4.56778e-05
-1.87781e-05
4.2379e-05
-1.81733e-05
3.78346e-05
-1.69883e-05
3.25266e-05
-1.5347e-05
2.70436e-05
-1.33721e-05
2.19427e-05
-1.12725e-05
1.74803e-05
-9.2518e-06
1.38497e-05
-7.44278e-06
1.10911e-05
-5.91556e-06
9.21634e-06
-4.70272e-06
8.1506e-06
-3.81472e-06
7.76794e-06
-3.22667e-06
7.91332e-06
-2.89408e-06
8.42103e-06
-2.76225e-06
9.15092e-06
-2.78394e-06
1.00304e-05
-2.93081e-06
1.09551e-05
-3.16138e-06
1.17933e-05
-3.40962e-06
1.25011e-05
-3.63355e-06
1.30818e-05
-3.82525e-06
1.35877e-05
-3.9866e-06
1.41074e-05
-4.12425e-06
1.47585e-05
-4.25297e-06
-4.37637e-06
1.55348e-05
1.62903e-05
-3.16837e-06
3.01524e-05
-8.87162e-06
4.07457e-05
-1.33905e-05
4.80873e-05
-1.66963e-05
5.24178e-05
-1.88924e-05
5.4112e-05
-2.01035e-05
5.36307e-05
-2.04662e-05
5.13915e-05
-2.01186e-05
4.79698e-05
-1.92266e-05
4.37332e-05
-1.79475e-05
3.89946e-05
-1.63657e-05
3.42703e-05
-1.45815e-05
2.99377e-05
-1.27549e-05
2.62108e-05
-1.10229e-05
2.31836e-05
-9.47954e-06
2.0926e-05
-8.19864e-06
1.93744e-05
-7.20339e-06
1.84299e-05
-6.47221e-06
1.79744e-05
-5.9726e-06
1.78799e-05
-5.66404e-06
1.79943e-05
-5.49778e-06
1.82412e-05
-5.43454e-06
1.85876e-05
-5.44987e-06
1.89642e-05
-5.51174e-06
1.93539e-05
-5.5924e-06
1.97764e-05
-5.68311e-06
2.02765e-05
-5.78637e-06
2.09058e-05
-5.9088e-06
2.17389e-05
-6.05687e-06
-6.21837e-06
2.27223e-05
1.77059e-05
-3.30842e-06
3.29032e-05
-9.27972e-06
4.47473e-05
-1.40526e-05
5.32769e-05
-1.76063e-05
5.87401e-05
-2.00508e-05
6.15099e-05
-2.15143e-05
6.20314e-05
-2.21343e-05
6.07633e-05
-2.20529e-05
5.82621e-05
-2.14211e-05
5.49702e-05
-2.03967e-05
5.11197e-05
-1.91031e-05
4.70698e-05
-1.76431e-05
4.31508e-05
-1.61198e-05
3.95233e-05
-1.46028e-05
3.63364e-05
-1.31482e-05
3.37543e-05
-1.1843e-05
3.17922e-05
-1.07652e-05
3.03581e-05
-9.92036e-06
2.93753e-05
-9.28099e-06
2.87496e-05
-8.82067e-06
2.83138e-05
-8.48813e-06
2.79884e-05
-8.23386e-06
2.78208e-05
-8.05172e-06
2.78006e-05
-7.94268e-06
2.79169e-05
-7.89104e-06
2.81901e-05
-7.88553e-06
2.86604e-05
-7.92311e-06
2.9377e-05
-8.00808e-06
3.03908e-05
-8.1479e-06
-8.31861e-06
3.15896e-05
1.91944e-05
-3.43843e-06
3.57983e-05
-9.66042e-06
4.89624e-05
-1.4675e-05
5.87468e-05
-1.84689e-05
6.5408e-05
-2.11581e-05
6.93174e-05
-2.28736e-05
7.09128e-05
-2.37533e-05
7.06595e-05
-2.39384e-05
6.90483e-05
-2.3573e-05
6.65387e-05
-2.27984e-05
6.34429e-05
-2.17376e-05
6.01047e-05
-2.05119e-05
5.67697e-05
-1.92321e-05
5.35677e-05
-1.79733e-05
5.05301e-05
-1.67493e-05
4.77906e-05
-1.5558e-05
4.55106e-05
-1.44645e-05
4.3672e-05
-1.35335e-05
4.22544e-05
-1.27825e-05