/*--------------------------------*- C++ -*----------------------------------*\
| =========                 |                                                 |
| \\      /  F ield         | OpenFOAM: The Open Source CFD Toolbox           |
|  \\    /   O peration     | Version:  dev                                   |
|   \\  /    A nd           | Web:      www.OpenFOAM.org                      |
|    \\/     M anipulation  |                                                 |
\*---------------------------------------------------------------------------*/
FoamFile
{
    version     2.0;
    format      ascii;
    class       surfaceScalarField;
    location    "0.57";
    object      meshPhi;
}
// * * * * * * * * * * * * * * * * * * * * * * * * * * * * * * * * * * * * * //

dimensions      [0 3 -1 0 0 0 0];

internalField   nonuniform List<scalar> 
5457
(
-1.07156e-05
-2.8419e-08
-2.11413e-05
-6.63969e-08
-3.14968e-05
-6.03356e-08
-4.19299e-05
-7.26195e-10
-5.22111e-05
1.11338e-07
-6.18645e-05
2.67473e-07
-7.02974e-05
4.54131e-07
-7.69158e-05
6.5434e-07
-8.12194e-05
8.4938e-07
-8.28727e-05
1.0205e-06
-8.17502e-05
1.1508e-06
-7.79551e-05
1.22721e-06
-7.1811e-05
1.24196e-06
-6.38249e-05
1.19331e-06
-5.46273e-05
1.08592e-06
-4.49017e-05
9.30894e-07
-3.53089e-05
7.44341e-07
-2.64166e-05
5.44843e-07
-1.86477e-05
3.5091e-07
-1.22493e-05
1.78356e-07
-7.51793e-06
4.6647e-08
-4.37139e-06
-3.12036e-08
-2.33217e-06
-6.62791e-08
-1.09996e-06
-7.51524e-08
-4.35303e-07
-6.68698e-08
-1.29254e-07
-4.9471e-08
-1.97263e-08
-3.02461e-08
3.33924e-09
-1.4543e-08
2.02706e-09
-5.00878e-09
-9.32361e-10
-1.05894e-05
-5.92707e-08
-2.09307e-05
-1.39467e-07
-3.12496e-05
-1.30483e-07
-4.16892e-05
-1.34004e-08
-5.20153e-05
2.0952e-07
-6.17447e-05
5.21535e-07
-7.02756e-05
8.95589e-07
-7.70039e-05
1.29775e-06
-8.14185e-05
1.69055e-06
-8.31735e-05
2.0363e-06
-8.2134e-05
2.30093e-06
-7.83955e-05
2.45795e-06
-7.2278e-05
2.49162e-06
-6.42886e-05
2.39807e-06
-5.50606e-05
2.18605e-06
-4.52837e-05
1.8776e-06
-3.56273e-05
1.505e-06
-2.66686e-05
1.10557e-06
-1.88395e-05
7.16676e-07
-1.23981e-05
3.70503e-07
-7.62062e-06
1.0538e-07
-4.43776e-06
-5.29513e-08
-2.38664e-06
-1.25162e-07
-1.14294e-06
-1.44302e-07
-4.67656e-07
-1.29101e-07
-1.51484e-07
-9.55505e-08
-3.27031e-08
-5.82445e-08
-2.33403e-09
-2.78369e-08
4.60397e-10
-9.49836e-09
-1.74419e-09
-1.0415e-05
-9.37945e-08
-2.06252e-05
-2.22793e-07
-3.0864e-05
-2.16209e-07
-4.12713e-05
-4.59022e-08
-5.16099e-05
2.84595e-07
-6.13919e-05
7.50266e-07
-7.00091e-05
1.31072e-06
-7.68492e-05
1.91528e-06
-8.13922e-05
2.50792e-06
-8.32825e-05
3.03209e-06
-8.2375e-05
3.43627e-06
-7.87537e-05
3.68029e-06
-7.2731e-05
3.73968e-06
-6.48103e-05
3.60804e-06
-5.56204e-05
3.29853e-06
-4.58503e-05
2.84359e-06
-3.61743e-05
2.29073e-06
-2.71759e-05
1.6956e-06
-1.92946e-05
1.11431e-06
-1.27954e-05
5.95622e-07
-7.94799e-06
1.9581e-07
-4.69879e-06
-4.70779e-08
-2.59526e-06
-1.61419e-07
-1.30005e-06
-1.95679e-07
-5.77186e-07
-1.78283e-07
-2.19748e-07
-1.3282e-07
-6.84942e-08
-8.09426e-08
-1.64329e-08
-3.84653e-08
-3.08485e-09
-1.29822e-08
-2.34563e-09
-1.01987e-05
-1.33103e-07
-2.02327e-05
-3.19683e-07
-3.03447e-05
-3.23027e-07
-4.06743e-05
-1.05998e-07
-5.09835e-05
3.26493e-07
-6.07832e-05
9.4131e-07
-6.94622e-05
1.68505e-06
-7.64037e-05
2.49068e-06
-8.10821e-05
3.28364e-06
-8.31341e-05
3.98856e-06
-8.24048e-05
4.53743e-06
-7.8965e-05
4.8766e-06
-7.31143e-05
4.97172e-06
-6.53453e-05
4.81327e-06
-5.62761e-05
4.41892e-06
-4.65884e-05
3.8305e-06
-3.69542e-05
3.1092e-06
-2.79581e-05
2.32793e-06
-2.00442e-05
1.56099e-06
-1.34824e-05
8.73404e-07
-8.54541e-06
3.38333e-07
-5.19394e-06
5.54973e-09
-2.98769e-06
-1.58967e-07
-1.5919e-06
-2.16942e-07
-7.76856e-07
-2.05657e-07
-3.41008e-07
-1.55696e-07
-1.29918e-07
-9.52734e-08
-3.96454e-08
-4.50851e-08
-8.63747e-09
-1.50399e-08
-2.66471e-09
-9.91769e-06
-1.78599e-07
-1.97175e-05
-4.34198e-07
-2.96559e-05
-4.57439e-07
-3.98727e-05
-2.02469e-07
-5.01294e-05
3.2427e-07
-5.9937e-05
1.08173e-06
-6.8681e-05
2.00395e-06
-7.574e-05
3.00753e-06
-8.05834e-05
3.9993e-06
-8.28406e-05
4.88647e-06
-8.23448e-05
5.58606e-06
-7.91521e-05
6.03081e-06
-7.35437e-05
6.17629e-06
-6.59936e-05
6.00892e-06
-5.71074e-05
5.54859e-06
-4.7557e-05
4.845e-06
-3.80062e-05
3.9718e-06
-2.9038e-05
3.01788e-06
-2.11008e-05
2.07486e-06
-1.44724e-05
1.22367e-06
-9.42158e-06
5.52893e-07
-5.92202e-06
1.2298e-07
-3.56109e-06
-1.03093e-07
-2.01483e-06
-1.9697e-07
-1.06331e-06
-2.0336e-07
-5.12973e-07
-1.59142e-07
-2.1575e-07
-9.85116e-08
-7.13515e-08
-4.65704e-08
-1.59436e-08
-1.53546e-08
-2.65405e-09
-9.56972e-06
-2.31622e-07
-1.90764e-05
-5.70195e-07
-2.87937e-05
-6.25608e-07
-3.88615e-05
-3.43669e-07
-4.90415e-05
2.67408e-07
-5.88456e-05
1.15894e-06
-6.76555e-05
2.25257e-06
-7.48441e-05
3.44852e-06
-7.98793e-05
4.63674e-06
-8.23835e-05
5.70918e-06
-8.21754e-05
6.56755e-06
-7.92937e-05
7.13052e-06
-7.39975e-05
7.34401e-06
-6.67381e-05
7.18935e-06
-5.81045e-05
6.68649e-06
-4.87547e-05
5.8911e-06
-3.93377e-05
4.88732e-06
-3.04311e-05
3.77832e-06
-2.2488e-05
2.67202e-06
-1.57956e-05
1.66476e-06
-1.06068e-05
8.58452e-07
-6.90695e-06
3.22487e-07
-4.33109e-06
2.01538e-08
-2.5772e-06
-1.25462e-07
-1.4393e-06
-1.64421e-07
-7.35339e-07
-1.3895e-07
-3.2484e-07
-8.85202e-08
-1.10628e-07
-4.20784e-08
-2.46164e-08
-1.37155e-08
-2.29566e-09
-9.15298e-06
-2.93424e-07
-1.83066e-05
-7.31267e-07
-2.77543e-05
-8.33241e-07
-3.76357e-05
-5.37347e-07
-4.77125e-05
1.46043e-07
-5.74987e-05
1.16072e-06
-6.63718e-05
2.41627e-06
-7.36988e-05
3.79767e-06
-7.89486e-05
5.18016e-06
-8.17376e-05
6.44112e-06
-8.18682e-05
7.46649e-06
-7.93584e-05
8.16136e-06
-7.44437e-05
8.46197e-06
-6.75493e-05
8.34351e-06
-5.92425e-05
7.82409e-06
-5.01635e-05
6.96386e-06
-4.09408e-05
5.85626e-06
-3.21381e-05
4.61554e-06
-2.42132e-05
3.36323e-06
-1.74663e-05
2.21062e-06
-1.21174e-05
1.27054e-06
-8.16002e-06
6.18615e-07
-5.30222e-06
2.22479e-07
-3.27842e-06
6.02723e-09
-1.9011e-06
-8.34227e-08
-1.00327e-06
-9.2157e-08
-4.53188e-07
-6.39858e-08
-1.55407e-07
-3.12021e-08
-3.40409e-08
-1.00821e-08
-1.60846e-09
-8.66557e-06
-3.65157e-07
-1.74049e-05
-9.20681e-07
-2.65339e-05
-1.08547e-06
-3.61904e-05
-7.90445e-07
-4.61349e-05
-4.87356e-08
-5.58836e-05
1.07589e-06
-6.48127e-05
2.48191e-06
-7.22843e-05
4.04078e-06
-7.77672e-05
5.61395e-06
-8.0873e-05
7.06447e-06
-8.13876e-05
8.26367e-06
-7.93067e-05
9.10384e-06
-7.48399e-05
9.51086e-06
-6.83846e-05
9.45313e-06
-6.04796e-05
8.94583e-06
-5.17412e-05
8.05128e-06
-4.27773e-05
6.87071e-06
-3.41314e-05
5.52721e-06
-2.62584e-05
4.15209e-06
-1.94721e-05
2.8692e-06
-1.39441e-05
1.79925e-06
-9.67041e-06
1.02124e-06
-6.46063e-06
5.11728e-07
-4.10369e-06
2.02854e-07
-2.43512e-06
4.27454e-08
-1.30593e-06
-1.74117e-08
-5.93816e-07
-2.46434e-08
-2.02636e-07
-1.41103e-08
-4.3445e-08
-4.62147e-09
-6.38191e-10
-8.10546e-06
-4.47863e-07
-1.63685e-05
-1.14134e-06
-2.51292e-05
-1.38676e-06
-3.45212e-05
-1.10891e-06
-4.43018e-05
-3.24576e-07
-5.39884e-05
8.94833e-07
-6.2961e-05
2.43783e-06
-7.0579e-05
4.16405e-06
-7.63075e-05
5.9218e-06
-7.9754e-05
7.56057e-06
-8.06901e-05
8.93859e-06
-7.90889e-05
9.9362e-06
-7.51311e-05
1.04685e-05
-6.91845e-05
1.04964e-05
-6.17541e-05
1.0032e-05
-5.34219e-05
9.13756e-06
-4.47771e-05
7.91784e-06
-3.63467e-05
6.5034e-06
-2.85692e-05
5.03321e-06
-2.17655e-05
3.63967e-06
-1.60441e-05
2.44663e-06
-1.13987e-05
1.53322e-06
-7.77014e-06
8.90101e-07
-5.02191e-06
4.66092e-07
-3.01695e-06
2.14143e-07
-1.62656e-06
8.4659e-08
-7.37396e-07
2.86607e-08
-2.48663e-07
8.5567e-09
-5.19947e-08
2.37543e-09
5.51851e-10
-7.47034e-06
-5.42482e-07
-1.51941e-05
-1.39579e-06
-2.35373e-05
-1.74078e-06
-3.26246e-05
-1.49749e-06
-4.22077e-05
-6.87605e-07
-5.18033e-05
6.09521e-07
-6.08001e-05
2.27355e-06
-6.85598e-05
4.15449e-06
-7.45385e-05
6.0882e-06
-7.83392e-05
7.91107e-06
-7.97239e-05
9.47018e-06
-7.86442e-05
1.06353e-05
-7.52493e-05
1.13115e-05
-6.98719e-05
1.14514e-05
-6.29805e-05
1.10619e-05
-5.51189e-05
1.02036e-05
-4.68505e-05
8.98106e-06
-3.86878e-05
7.52902e-06
-3.10516e-05
5.99269e-06
-2.42577e-05
4.5109e-06
-1.83351e-05
3.20458e-06
-1.32734e-05
2.14858e-06
-9.17087e-06
1.35294e-06
-5.98609e-06
7.91928e-07
-3.61295e-06
4.27653e-07
-1.9441e-06
2.11626e-07
-8.73234e-07
9.42657e-08
-2.89607e-07
3.59063e-08
-5.88479e-08
1.05806e-08
1.90013e-09
-6.75749e-06
-6.49873e-07
-1.38786e-05
-1.6862e-06
-2.17563e-05
-2.1504e-06
-3.04991e-05
-1.95959e-06
-3.98491e-05
-1.14214e-06
-4.93212e-05
2.14317e-07
-5.83137e-05
1.98107e-06
-6.61997e-05
4.00054e-06
-7.24252e-05
6.09837e-06
-7.65828e-05
8.09837e-06
-7.84299e-05
9.83742e-06
-7.78987e-05
1.11768e-05
-7.51075e-05
1.20129e-05
-7.03492e-05
1.22897e-05
-6.40514e-05
1.20073e-05
-5.67197e-05
1.12211e-05
-4.88832e-05
1.00333e-05
-4.10332e-05
8.57891e-06
-3.35771e-05
7.0069e-06
-2.68192e-05
5.4608e-06
-2.06964e-05
4.05363e-06
-1.51925e-05
2.85162e-06
-1.05824e-05
1.88844e-06
-6.93698e-06
1.17188e-06
-4.18346e-06
6.77535e-07
-2.23549e-06
3.59953e-07
-9.90415e-07
1.70302e-07
-3.21674e-07
6.71609e-08
-6.31245e-08
1.97646e-08
3.37905e-09
-5.96339e-06
-7.70876e-07
-1.24186e-05
-2.01454e-06
-1.97856e-05
-2.61763e-06
-2.81453e-05
-2.49709e-06
-3.72259e-05
-1.69048e-06
-4.65395e-05
-2.93986e-07
-5.54924e-05
1.55563e-06
-6.34738e-05
3.69399e-06
-6.99299e-05
5.93955e-06
-7.44369e-05
8.10582e-06
-7.67445e-05
1.00199e-05
-7.67711e-05
1.15359e-05
-7.46047e-05
1.25428e-05
-7.04985e-05
1.29766e-05
-6.48362e-05
1.28292e-05
-5.80815e-05
1.21489e-05
-5.07251e-05
1.10329e-05
-4.32298e-05
9.61326e-06
-3.5986e-05
8.03883e-06
-2.92866e-05
6.45496e-06
-2.29762e-05
4.96305e-06
-1.70315e-05
3.6175e-06
-1.19109e-05
2.4785e-06
-7.80903e-06
1.59387e-06
-4.68711e-06
9.56578e-07
-2.47803e-06
5.2608e-07
-1.07863e-06
2.55563e-07
-3.41117e-07
1.02205e-07
-6.36718e-08
3.00245e-08
5.03924e-09
-5.08322e-06
-9.0641e-07
-1.081e-05
-2.38268e-06
-1.76267e-05
-3.14372e-06
-2.5567e-05
-3.11021e-06
-3.43413e-05
-2.33278e-06
-4.3459e-05
-9.16322e-07
-5.23332e-05
9.9489e-07
-6.03674e-05
3.23004e-06
-6.70194e-05
5.60249e-06
-7.18537e-05
7.91946e-06
-7.46047e-05
9.99942e-06
-7.51796e-05
1.16892e-05
-7.36382e-05
1.2872e-05
-7.01952e-05
1.34764e-05
-6.51902e-05
1.34861e-05
-5.90426e-05
1.2941e-05
-5.22013e-05
1.19309e-05
-4.50955e-05
1.05825e-05
-3.80935e-05
9.04048e-06
-3.14759e-05
7.44844e-06
-2.50071e-05
5.89297e-06
-1.8657e-05
4.41436e-06
-1.306e-05
3.10064e-06
-8.53765e-06
2.04386e-06
-5.0848e-06
1.25748e-06
-2.65074e-06
7.07571e-07
-1.12779e-06
3.50474e-07
-3.43293e-07
1.42376e-07
-5.82829e-08
4.2247e-08
7.14741e-09
-4.11069e-06
-1.05762e-06
-9.04787e-06
-2.79282e-06
-1.52836e-05
-3.72914e-06
-2.27716e-05
-3.79735e-06
-3.12026e-05
-3.06677e-06
-4.00833e-05
-1.65075e-06
-4.88346e-05
2.99428e-07
-5.68722e-05
2.60731e-06
-6.36685e-05
5.08254e-06
-6.87893e-05
7.52946e-06
-7.1952e-05
9.76042e-06
-7.30464e-05
1.16156e-05
-7.21096e-05
1.29731e-05
-6.93195e-05
1.37551e-05
-6.49721e-05
1.39373e-05
-5.94416e-05
1.35509e-05
-5.31339e-05
1.26767e-05
-4.64423e-05
1.14331e-05
-3.97099e-05
9.95809e-06
-3.32037e-05
8.38994e-06
-2.66263e-05
6.798e-06
-1.99427e-05
5.20651e-06
-1.39416e-05
3.7304e-06
-9.06591e-06
2.50741e-06
-5.34232e-06
1.57377e-06
-2.7337e-06
9.03699e-07
-1.12544e-06
4.57709e-07
-3.19491e-07
1.9144e-07
-4.13203e-08
5.91478e-08
1.06342e-08
-3.11646e-06
-1.1998e-06
-7.17324e-06
-3.20691e-06
-1.27505e-05
-4.36333e-06
-1.97598e-05
-4.56235e-06
-2.78092e-05
-3.89401e-06
-3.64076e-05
-2.49873e-06
-4.49848e-05
-5.32841e-07
-5.29694e-05
1.82247e-06
-5.98472e-05
4.37407e-06
-6.51958e-05
6.92554e-06
-6.8721e-05
9.2873e-06
-7.02904e-05
1.12946e-05
-6.99202e-05
1.28203e-05
-6.77545e-05
1.37813e-05
-6.40477e-05
1.41459e-05
-5.91289e-05
1.39363e-05
-5.33613e-05
1.32237e-05
-4.7102e-05
1.21163e-05
-4.06687e-05
1.0743e-05
-3.43148e-05
9.23416e-06
-2.77019e-05
7.63993e-06
-2.07901e-05
5.96577e-06
-1.44898e-05
4.35012e-06
-9.35183e-06
2.9759e-06
-5.43265e-06
1.90379e-06
-2.70634e-06
1.11761e-06
-1.05103e-06
5.83185e-07
-2.46111e-07
2.56507e-07
1.2196e-08
8.78663e-08
1.8915e-08
1.7557e-07
-3.72579e-11
9.20639e-07
3.84255e-10
3.01613e-06
-7.79707e-10
7.23415e-06
-4.94258e-09
1.41682e-05
-1.78524e-08
2.41174e-05
-5.09447e-08
3.70617e-05
-1.21005e-07
5.27158e-05
-2.48363e-07
7.06171e-05
-4.53186e-07
8.85717e-05
-7.3699e-07
0.00010474
-1.08416e-06
0.000119645
-1.4873e-06
0.000133564
-1.93567e-06
0.000146204
-2.40456e-06
0.000157295
-2.86391e-06
0.000166576
-3.28426e-06
0.000173785
-3.63922e-06
0.000178648
-3.91256e-06
0.000180906
-4.09572e-06
0.000180321
-4.182e-06
0.000176692
-4.17254e-06
0.000169871
-4.07184e-06
0.000159768
-3.88369e-06
0.000146366
-3.6146e-06
0.000129697
-3.27031e-06
0.000109821
-2.85281e-06
8.68054e-05
-2.36178e-06
6.07129e-05
-1.79337e-06
3.15543e-05
-1.13954e-06
-3.97527e-07
1.79384e-07
6.36059e-11
9.4076e-07
7.48498e-10
3.0686e-06
-1.12114e-09
7.32325e-06
-8.91006e-09
1.42787e-05
-3.42428e-08
2.42205e-05
-9.99369e-08
3.71217e-05
-2.39503e-07
5.2689e-05
-4.92859e-07
7.04286e-05
-8.987e-07
8.83478e-05
-1.46161e-06
0.000104533
-2.14959e-06
0.000119364
-2.94609e-06
0.000133264
-3.83334e-06
0.000145918
-4.76173e-06
0.000157044
-5.67153e-06
0.000166373
-6.50439e-06
0.000173635
-7.21113e-06
0.000178551
-7.75744e-06
0.000180852
-8.12275e-06
0.000180296
-8.29516e-06
0.000176686
-8.27796e-06
0.000169871
-8.08137e-06
0.000159765
-7.71406e-06
0.000146356
-7.18458e-06
0.000129679
-6.50166e-06
0.000109795
-5.67241e-06
8.67771e-05
-4.69658e-06
6.06866e-05
-3.56647e-06
3.15364e-05
-2.26612e-06
-7.9047e-07
1.8323e-07
1.03101e-10
9.60148e-07
8.97273e-10
3.10859e-06
-1.50935e-09
7.3578e-06
-1.28797e-08
1.42467e-05
-5.08648e-08
2.40431e-05
-1.48985e-07
3.67194e-05
-3.56572e-07
5.1991e-05
-7.31185e-07
6.93797e-05
-1.32737e-06
8.7069e-05
-2.15316e-06
0.00010314
-3.16617e-06
0.000117878
-4.34107e-06
0.000131776
-5.64908e-06
0.000144496
-7.01892e-06
0.000155738
-8.36329e-06
0.00016521
-9.59491e-06
0.000172625
-1.06463e-05
0.000177692
-1.14641e-05
0.000180127
-1.20121e-05
0.000179687
-1.22773e-05
0.00017617
-1.22618e-05
0.000169434
-1.19776e-05
0.000159394
-1.14376e-05
0.000146039
-1.06559e-05
0.000129408
-9.64643e-06
0.000109569
-8.41884e-06
8.65973e-05
-6.97248e-06
6.05589e-05
-5.29576e-06
3.14679e-05
-3.36512e-06
-1.1738e-06
1.85856e-07
8.81487e-11
9.71501e-07
7.79499e-10
3.1141e-06
-2.36147e-09
7.29565e-06
-1.78485e-08
1.40134e-05
-6.9445e-08
2.35176e-05
-2.00721e-07
3.57865e-05
-4.74773e-07
5.05638e-05
-9.64237e-07
6.74233e-05
-1.73667e-06
8.4688e-05
-2.80389e-06
0.000100524
-4.11831e-06
0.000115176
-5.64821e-06
0.000129106
-7.35141e-06
0.000141953
-9.13381e-06
0.000153388
-1.08855e-05
0.000163098
-1.24974e-05
0.000170767
-1.3879e-05
0.000176079
-1.4957e-05
0.000178735
-1.56861e-05
0.000178489
-1.60526e-05
0.000175143
-1.60524e-05
0.000168556
-1.5695e-05
0.000158647
-1.49984e-05
0.000145406
-1.39813e-05
0.000128878
-1.26634e-05
0.000109137
-1.10574e-05
8.62648e-05
-9.1618e-06
6.03301e-05
-6.96087e-06
3.13499e-05
-4.42395e-06
-1.5432e-06
1.87511e-07
4.10488e-11
9.75341e-07
4.47473e-10
3.09035e-06
-3.8945e-09
7.15946e-06
-2.44804e-08
1.36358e-05
-9.10342e-08
2.27514e-05
-2.56519e-07
3.44945e-05
-5.95622e-07
4.86463e-05
-1.19324e-06
6.48369e-05
-2.12709e-06
8.15582e-05
-3.41346e-06
9.71087e-05
-5.00235e-06
0.000111676
-6.85521e-06
0.000125664
-8.91867e-06
0.000138683
-1.10782e-05
0.000150367
-1.32034e-05
0.000160373
-1.51695e-05
0.000168356
-1.68619e-05
0.000173975
-1.81882e-05
0.000176914
-1.90958e-05
0.000176917
-1.95649e-05
0.00017379
-1.95875e-05
0.000167393
-1.91738e-05
0.000157652
-1.83459e-05
0.000144562
-1.71219e-05
0.00012817
-1.5521e-05
0.000108561
-1.35613e-05
8.5822e-05
-1.12429e-05
6.00263e-05
-8.54579e-06
3.11938e-05
-5.43262e-06
-1.89522e-06
1.87666e-07
-3.33126e-11
9.69059e-07
-1.36308e-10
3.03423e-06
-6.42463e-09
6.95224e-06
-3.36534e-08
1.31307e-05
-1.17297e-07
2.17844e-05
-3.18718e-07
3.29162e-05
-7.22163e-07
4.63494e-05
-1.42187e-06
6.17732e-05
-2.50278e-06
7.78693e-05
-3.98534e-06
9.31049e-05
-5.82028e-06
0.000107591
-7.96109e-06
0.000121648
-1.03444e-05
0.000134868
-1.2844e-05
0.000146841
-1.53092e-05
0.00015718
-1.7596e-05
0.000165508
-1.95731e-05
0.000171469
-2.11364e-05
0.000174731
-2.22199e-05
0.000175022
-2.27919e-05
0.000172147
-2.28442e-05
0.000165973
-2.23886e-05
0.000156434
-2.14488e-05
0.000143526
-2.00446e-05
0.000127299
-1.81915e-05
0.000107849
-1.59085e-05
8.52756e-05
-1.31983e-05
5.96516e-05
-1.00374e-05
3.10013e-05
-6.3829e-06
-2.22702e-06
1.85943e-07
-1.40196e-10
9.51712e-07
-1.06819e-09
2.94636e-06
-1.03078e-08
6.68199e-06
-4.62964e-08
1.25225e-05
-1.50124e-07
2.0668e-05
-3.90374e-07
3.11394e-05
-8.58758e-07
4.38038e-05
-1.65608e-06
5.84075e-05
-2.87167e-06
7.38283e-05
-4.52855e-06
8.87289e-05
-6.5805e-06
0.000103144
-8.97704e-06
0.000117277
-1.16424e-05
0.000130705
-1.44407e-05
0.000142982
-1.72071e-05
0.000153669
-1.97789e-05
0.000162357
-2.20118e-05
0.000168672
-2.3794e-05
0.00017227
-2.50448e-05
0.000172866
-2.57202e-05
0.000170262
-2.58106e-05
0.000164331
-2.53268e-05
0.000155018
-2.42922e-05
0.000142318
-2.27294e-05
0.00012628
-2.06543e-05
0.000107015
-1.80822e-05
8.46338e-05
-1.50143e-05
5.92116e-05
-1.14256e-05
3.07751e-05
-7.26839e-06
-2.53637e-06
1.82265e-07
-3.21049e-10
9.2418e-07
-2.50976e-09
2.83185e-06
-1.61044e-08
6.36446e-06
-6.37397e-08
1.18466e-05
-1.91957e-07
1.94673e-05
-4.75314e-07
2.92674e-05
-1.01095e-06
4.11564e-05
-1.9037e-06
5.49325e-05
-3.24487e-06
6.96632e-05
-5.05838e-06
8.42143e-05
-7.30039e-06
9.85577e-05
-9.92035e-06
0.000112771
-1.28316e-05
0.000126398
-1.58867e-05
0.000138966
-1.8912e-05
0.000149993
-2.17318e-05
0.000159033
-2.41905e-05
0.000165695
-2.61662e-05
0.000169622
-2.75682e-05
0.000170522
-2.83431e-05
0.000168193
-2.8477e-05
0.000162513
-2.79783e-05
0.000153435
-2.68679e-05
0.000140955
-2.51682e-05
0.000125125
-2.2899e-05
0.00010607
-2.00718e-05
8.39063e-05
-1.66819e-05
5.87122e-05
-1.27032e-05
3.05184e-05
-8.08449e-06
-2.82165e-06
1.7699e-07
-6.0917e-10
8.89451e-07
-4.68448e-09
2.70102e-06
-2.45614e-08
6.02399e-06
-8.76658e-08
1.11498e-05
-2.45703e-07
1.82598e-05
-5.77919e-07
2.7415e-05
-1.18497e-06
3.85628e-05
-2.17357e-06
5.15475e-05
-3.63502e-06
6.56124e-05
-5.59241e-06
7.98144e-05
-8.00193e-06
9.40703e-05
-1.08125e-05
0.000108344
-1.39315e-05
0.000122145
-1.72024e-05
0.000134966
-2.04438e-05
0.000146299
-2.34719e-05
0.000155665
-2.6122e-05
0.000162647
-2.82623e-05
0.000166878
-2.97951e-05
0.000168062
-3.06619e-05
0.000165997
-3.08421e-05
0.000160564
-3.03398e-05
0.000151718
-2.91719e-05
0.000139459
-2.7359e-05
0.000123851
-2.49229e-05
0.000105028
-2.18719e-05
8.3103e-05
-1.81956e-05
5.81601e-05
-1.38658e-05
3.02342e-05
-8.8283e-06
-3.08184e-06
1.70989e-07
-1.03811e-09
8.52715e-07
-7.87372e-09
2.56922e-06
-3.66133e-08
5.69287e-06
-1.2004e-07
1.04881e-05
-3.14515e-07
1.71312e-05
-7.02673e-07
2.57011e-05
-1.38703e-06
3.61775e-05
-2.47434e-06
4.84435e-05
-4.05428e-06
6.18977e-05
-6.14672e-06
7.57691e-05
-8.70482e-06
8.99205e-05
-1.16755e-05
0.000104216
-1.49632e-05
0.000118141
-1.84064e-05
0.00013116
-2.18191e-05
0.00014274
-2.5013e-05
0.000152377
-2.78173e-05
0.000159629
-3.00926e-05
0.000164121
-3.17362e-05
0.000165555
-3.26849e-05
0.000163729
-3.29114e-05
0.000158527
-3.24142e-05
0.0001499
-3.12049e-05
0.000137856
-2.93027e-05
0.000122481
-2.67268e-05
0.000103904
-2.34815e-05
8.22347e-05
-1.95536e-05
5.75623e-05
-1.49115e-05
2.99262e-05
-9.49844e-06
-3.31644e-06
1.65729e-07
-1.65573e-09
8.21551e-07
-1.24283e-08
2.45686e-06
-5.34088e-08
5.41035e-06
-1.63019e-07
9.92428e-06
-4.01499e-07
1.61705e-05
-8.5368e-07
2.42419e-05
-1.62255e-06
3.41438e-05
-2.81348e-06
4.5791e-05
-4.513e-06
5.87089e-05
-6.73477e-06
7.22761e-05
-9.4245e-06
8.63081e-05
-1.25261e-05
0.00010058
-1.59441e-05
0.000114566
-1.95164e-05
0.000127708
-2.30558e-05
0.000139453
-2.63724e-05
0.000149282
-2.92928e-05
0.000156735
-3.16732e-05
0.000161427
-3.34069e-05
0.000163062
-3.44256e-05
0.000161436
-3.46961e-05
0.000156436
-3.42101e-05
0.00014801
-3.29733e-05
0.000136177
-3.10029e-05
0.000121039
-2.83128e-05
0.000102714
-2.49025e-05
8.1312e-05
-2.07566e-05
5.69255e-05
-1.58405e-05
2.95976e-05
-1.00949e-05
-3.52541e-06
1.63593e-07
-2.51632e-09
8.06844e-07
-1.88371e-08
2.39035e-06
-7.63978e-08
5.22263e-06
-2.18906e-07
9.5258e-06
-5.09542e-07
1.54658e-05
-1.03438e-06
2.31448e-05
-1.89582e-06
3.25868e-05
-3.19667e-06
4.37313e-05
-5.01904e-06
5.61986e-05
-7.36666e-06
6.94874e-05
-1.01725e-05
8.33806e-05
-1.33771e-05
9.7581e-05
-1.68893e-05
0.000111554
-2.05499e-05
0.000124731
-2.41731e-05
0.000136549
-2.75706e-05
0.000146476
-3.05695e-05
0.000154044
-3.30245e-05
0.000158863
-3.48259e-05
0.000160637
-3.5901e-05
0.000159163
-3.62108e-05
0.000154326
-3.57401e-05
0.000146075
-3.44885e-05
0.000134447
-3.24675e-05
0.000119542
-2.96859e-05
0.000101472
-2.61389e-05
8.03451e-05
-2.18078e-05
5.62563e-05
-1.66548e-05
2.92517e-05
-1.06187e-05
-3.70909e-06
1.69404e-07
-3.75267e-09
8.26091e-07
-2.79809e-08
2.40574e-06
-1.07627e-07
5.18482e-06
-2.90378e-07
9.36441e-06
-6.41579e-07
1.51023e-05
-1.24786e-06
2.25048e-05
-2.21011e-06
3.16096e-05
-3.62788e-06
4.23748e-05
-5.57817e-06
5.44794e-05
-8.04957e-06
6.7512e-05
-1.09558e-05
8.12417e-05
-1.42365e-05
9.53157e-05
-1.781e-05
0.000109196
-2.15212e-05
0.000122315
-2.5188e-05
0.000134102
-2.86268e-05
0.000144026
-3.1668e-05
0.000151615
-3.41674e-05
0.000156479
-3.60137e-05
0.000158322
-3.71302e-05
0.000156944
-3.74724e-05
0.000152226
-3.70188e-05
0.000144127
-3.57627e-05
0.00013269
-3.37074e-05
0.000118009
-3.08551e-05
0.000100191
-2.71976e-05
7.9343e-05
-2.2712e-05
5.55605e-05
-1.73576e-05
2.88913e-05
-1.10719e-05
-3.86815e-06
1.97319e-07
-6.03673e-09
9.13665e-07
-4.19728e-08
2.5582e-06
-1.50597e-07
5.36691e-06
-3.81863e-07
9.5189e-06
-8.02712e-07
1.51622e-05
-1.49947e-06
2.24039e-05
-2.57058e-06
3.12929e-05
-4.11257e-06
4.18031e-05
-6.19888e-06
5.36268e-05
-8.7936e-06
6.6415e-05
-1.17812e-05
7.99526e-05
-1.51109e-05
9.38422e-05
-1.87168e-05
0.000107548
-2.24447e-05
0.000120507
-2.61177e-05
0.000132159
-2.95608e-05
0.000141974
-3.26103e-05
0.000149486
-3.51251e-05
0.000154307
-3.69936e-05
0.000156146
-3.81361e-05
0.000154803
-3.85024e-05
0.000150161
-3.80649e-05
0.000142185
-3.68107e-05
0.00013092
-3.47345e-05
0.000116451
-3.18309e-05
9.88807e-05
-2.80869e-05
7.83134e-05
-2.34755e-05
5.48432e-05
-1.79535e-05
2.85188e-05
-1.14569e-05
-4.00342e-06
3.18827e-07
-1.99698e-08
1.17493e-06
-7.09021e-08
2.96626e-06
-2.19239e-07
5.88638e-06
-5.10218e-07
1.00974e-05
-1.01104e-06
1.57401e-05
-1.80673e-06
2.29215e-05
-2.99304e-06
3.17023e-05
-4.66484e-06
4.20511e-05
-6.87939e-06
5.36576e-05
-9.57714e-06
6.62197e-05
-1.26386e-05
7.95348e-05
-1.60122e-05
9.31781e-05
-1.963e-05
0.000106619
-2.33433e-05
0.000119317
-2.6987e-05
0.000130724
-3.03994e-05
0.000140324
-3.34254e-05
0.000147658
-3.59285e-05
0.000152348
-3.77978e-05
0.000154107
-3.8951e-05
0.00015274
-3.93329e-05
0.000148132
-3.89094e-05
0.000140252
-3.76605e-05
0.000129139
-3.55731e-05
0.00011487
-3.2634e-05
9.75419e-05
-2.88242e-05
7.72564e-05
-2.41124e-05
5.41041e-05
-1.84527e-05
2.81341e-05
-1.17804e-05
-4.11718e-06
-2.32524e-06
-1.31112e-06
-5.55808e-06
-3.55973e-06
-1.04591e-05
-4.98388e-06
-1.71345e-05
-5.39484e-06
-2.50604e-05
-4.82903e-06
-3.36438e-05
-3.47211e-06
-4.23101e-05
-1.51386e-06
-5.04809e-05
8.63022e-07
-5.76363e-05
3.46406e-06
-6.33514e-05
6.09383e-06
-6.73188e-05
8.56346e-06
-6.93816e-05
1.07058e-05
-6.95334e-05
1.23895e-05
-6.78909e-05
1.35269e-05
-6.46773e-05
1.40798e-05
-6.01897e-05
1.40614e-05
-5.47625e-05
1.35326e-05
-4.87306e-05
1.25905e-05
-4.24e-05
1.13536e-05
-3.60223e-05
9.94358e-06
-2.92242e-05
8.3901e-06
-2.19503e-05
6.67502e-06
-1.52288e-05
4.95259e-06
-9.7292e-06
3.44971e-06
-5.53873e-06
2.25416e-06
-2.63922e-06
1.36042e-06
-8.9609e-07
7.39911e-07
-6.28706e-08
3.49229e-07
1.91667e-07
1.35743e-07
4.04156e-08
1.67069e-07
-1.5717e-06
-1.41214e-06
-3.97002e-06
-3.85819e-06
-7.93286e-06
-5.51644e-06
-1.38756e-05
-6.20585e-06
-2.14278e-05
-5.85013e-06
-2.98208e-05
-4.5799e-06
-3.83899e-05
-2.64873e-06
-4.65678e-05
-2.76511e-07
-5.38385e-05
2.34638e-06
-5.97787e-05
5.02814e-06
-6.40783e-05
7.58155e-06
-6.6565e-05
9.83858e-06
-6.72072e-05
1.16658e-05
-6.60929e-05
1.29718e-05
-6.34116e-05
1.37125e-05
-5.94251e-05
1.3893e-05
-5.44355e-05
1.35635e-05
-4.87539e-05
1.28103e-05
-4.2674e-05
1.17423e-05
-3.64484e-05
1.04731e-05
-2.96969e-05
9.01556e-06
-2.23099e-05
7.31707e-06
-1.53728e-05
5.52968e-06
-9.67426e-06
3.92634e-06
-5.32646e-06
2.62811e-06
-2.31484e-06
1.63921e-06
-4.92792e-07
9.35998e-07
4.01014e-07
4.75451e-07
7.09074e-07
2.02856e-07
5.87298e-08
7.86951e-07
-7.77176e-07
-1.51798e-06
-2.41983e-06
-4.15405e-06
-5.51901e-06
-5.98588e-06
-1.04968e-05
-6.90783e-06
-1.73454e-05
-6.84514e-06
-2.54051e-05
-5.78847e-06
-3.38138e-05
-3.9384e-06
-4.1924e-05
-1.59336e-06
-4.92357e-05
1.02177e-06
-5.53296e-05
3.72773e-06
-5.98932e-05
6.33945e-06
-6.27426e-05
8.68779e-06
-6.38233e-05
1.06391e-05
-6.31965e-05
1.21e-05
-6.10202e-05
1.30215e-05
-5.75239e-05
1.3401e-05
-5.29808e-05
1.3279e-05
-4.76821e-05
1.27315e-05
-4.19172e-05
1.18587e-05
-3.59537e-05
1.0772e-05
-2.94578e-05
9.4854e-06
-2.21305e-05
7.88539e-06
-1.50569e-05
6.07521e-06
-9.22936e-06
4.39521e-06
-4.75329e-06
3.01682e-06
-1.61891e-06
1.94563e-06
3.33237e-07
1.16409e-06
1.37624e-06
6.28919e-07
1.86237e-06
2.84864e-07
7.40829e-08
2.13792e-06
1.15118e-07
-1.62637e-06
-7.24479e-07
-4.46204e-06
-3.07185e-06
-6.46041e-06
-7.15938e-06
-7.5434e-06
-1.30495e-05
-7.7215e-06
-2.0446e-05
-6.97362e-06
-2.85518e-05
-5.34385e-06
-3.65207e-05
-3.08653e-06
-4.37909e-05
-5.06783e-07
-4.99596e-05
2.1943e-06
-5.4711e-05
4.83782e-06
-5.78511e-05
7.25104e-06
-5.93063e-05
9.3031e-06
-5.91141e-05
1.09001e-05
-5.74043e-05
1.19893e-05
-5.43775e-05
1.25613e-05
-5.02814e-05
1.26475e-05
-4.53908e-05
1.23134e-05
-3.99936e-05
1.16506e-05
-3.43846e-05
1.07682e-05
-2.83411e-05
9.69189e-06
-2.12997e-05
8.27664e-06
-1.41932e-05
6.54761e-06
-8.25191e-06
4.84147e-06
-3.64129e-06
3.39606e-06
-3.5294e-07
2.25607e-06
1.80066e-06
1.40377e-06
3.107e-06
7.92021e-07
3.92616e-06
3.67511e-07
7.60007e-08
4.5525e-06
1.11053e-06
-1.73717e-06
1.18142e-06
-4.7785e-06
-3.62595e-07
-6.95706e-06
-3.67672e-06
-8.19487e-06
-8.66805e-06
-8.53421e-06
-1.51461e-05
-8.03841e-06
-2.26425e-05
-6.72857e-06
-3.0327e-05
-4.71008e-06
-3.74715e-05
-2.2369e-06
-4.36284e-05
4.35888e-07
-4.84817e-05
3.08589e-06
-5.1832e-05
5.53456e-06
-5.35883e-05
7.66014e-06
-5.37687e-05
9.36977e-06
-5.2478e-05
1.06078e-05
-4.98922e-05
1.13589e-05
-4.62352e-05
1.16455e-05
-4.17632e-05
1.15222e-05
-3.67549e-05
1.10681e-05
-3.15078e-05
1.03781e-05
-2.58694e-05
9.4594e-06
-1.92939e-05
8.20964e-06
-1.24607e-05
6.68023e-06
-6.52175e-06
5.11587e-06
-1.79242e-06
3.70817e-06
1.69389e-06
2.53665e-06
4.12291e-06
1.6203e-06
5.7979e-06
9.35188e-07
7.07181e-06
4.29768e-07
5.362e-08
8.1495e-06
2.21902e-06
-1.84994e-06
3.30888e-06
-5.10215e-06
2.68263e-06
-7.46946e-06
1.95645e-07
-8.87934e-06
-3.99871e-06
-9.37432e-06
-9.59654e-06
-9.04548e-06
-1.62545e-05
-7.9862e-06
-2.34069e-05
-6.27249e-06
-3.02805e-05
-4.04347e-06
-3.63088e-05
-1.50843e-06
-4.1175e-05
1.09715e-06
-4.46482e-05
3.55378e-06
-4.66237e-05
5.72223e-06
-4.71065e-05
7.51683e-06
-4.61793e-05
8.87902e-06
-4.39975e-05
9.78922e-06
-4.07617e-05
1.02611e-05
-3.67049e-05
1.03376e-05
-3.20811e-05
1.00832e-05
-2.71509e-05
9.57299e-06
-2.17453e-05
8.78941e-06
-1.56096e-05
7.66704e-06
-9.32325e-06
6.32549e-06
-3.66737e-06
4.98242e-06
1.05758e-06
3.75069e-06
4.74819e-06
2.66628e-06
7.50481e-06
1.75374e-06
9.60955e-06
1.019e-06
1.13907e-05
4.3976e-07
-1.33882e-08
1.29566e-05
3.44869e-06
-1.96394e-06
5.67334e-06
-5.43084e-06
6.07589e-06
-7.99407e-06
4.53164e-06
-9.58715e-06
1.19386e-06
-1.0258e-05
-3.59449e-06
-1.00935e-05
-9.42314e-06
-9.20895e-06
-1.58618e-05
-7.72098e-06
-2.22534e-05
-5.77033e-06
-2.80003e-05
-3.50658e-06
-3.27785e-05
-1.07309e-06
-3.62854e-05
1.32957e-06
-3.83884e-05
3.51195e-06
-3.90962e-05
5.36053e-06
-3.84657e-05
6.81673e-06
-3.66415e-05
7.85974e-06
-3.38001e-05
8.49494e-06
-3.01471e-05
8.75465e-06
-2.59051e-05
8.68976e-06
-2.12914e-05
8.36075e-06
-1.61478e-05
7.74829e-06
-1.03995e-05
6.79535e-06
-4.62919e-06
5.62466e-06
6.15282e-07
4.45792e-06
5.18507e-06
3.39998e-06
9.00243e-06
2.46274e-06
1.21055e-05
1.64621e-06
1.46692e-05
9.43668e-07
1.69559e-05
3.42919e-07
-1.61052e-07
1.89892e-05
4.80578e-06
-2.0781e-06
8.28658e-06
-5.76154e-06
9.83344e-06
-8.52597e-06
9.34292e-06
-1.03116e-05
6.97719e-06
-1.11721e-05
3.07112e-06
-1.11972e-05
-1.93893e-06
-1.05002e-05
-7.60142e-06
-9.20654e-06
-1.33648e-05
-7.4722e-06
-1.86991e-05
-5.45699e-06
-2.32805e-05
-3.26747e-06
-2.67341e-05
-1.03281e-06
-2.88812e-05
1.0751e-06
-2.97283e-05
2.92825e-06
-2.931e-05
4.44692e-06
-2.77857e-05
5.59096e-06
-2.5302e-05
6.36121e-06
-2.20348e-05
6.7818e-06
-1.81769e-05
6.89199e-06
-1.3916e-05
6.74091e-06
-9.15448e-06
6.31349e-06
-3.85702e-06
5.56497e-06
1.45879e-06
4.60634e-06
6.34118e-06
3.62809e-06
1.07138e-05
2.71856e-06
1.45679e-05
1.90047e-06
1.7959e-05
1.18327e-06
2.09723e-05
5.55923e-07
2.37811e-05
-8.56394e-10
-4.87419e-07
2.63034e-05
6.29449e-06
-2.19107e-06
1.11567e-05
-6.09026e-06
1.39665e-05
-9.05877e-06
1.46436e-05
-1.10441e-05
1.33605e-05
-1.21056e-05
1.04528e-05
-1.23356e-05
6.35143e-06
-1.18479e-05
1.52501e-06
-1.07706e-05
-3.52596e-06
-9.24735e-06
-8.34132e-06
-7.43064e-06
-1.25932e-05
-5.44768e-06
-1.59009e-05
-3.41922e-06
-1.8059e-05
-1.46839e-06
-1.89849e-05
3.02914e-07
-1.86913e-05
1.81133e-06
-1.73934e-05
3.01152e-06
-1.52218e-05
3.8858e-06
-1.23134e-05
4.44015e-06
-8.83516e-06
4.7057e-06
-4.95135e-06
4.72171e-06
-6.23661e-07
4.48033e-06
4.16327e-06
3.94965e-06
9.00482e-06
3.2194e-06
1.35488e-05
2.4442e-06
1.77361e-05
1.69947e-06
2.15743e-05
1.00608e-06
2.51268e-05
3.73856e-07
2.84865e-05
-1.95417e-07
3.17784e-05
-7.07376e-07
-1.1631e-06
3.47753e-05
7.91691e-06
-2.30116e-06
1.42879e-05
-6.41214e-06
1.84813e-05
-9.58458e-06
2.04412e-05
-1.17735e-05
2.03521e-05
-1.30442e-05
1.85509e-05
-1.34914e-05
1.54645e-05
-1.32286e-05
1.15584e-05
-1.23825e-05
7.30525e-06
-1.10896e-05
3.12711e-06
-9.48823e-06
-6.34047e-07
-7.70499e-06
-3.66585e-06
-5.86275e-06
-5.76013e-06
-4.07477e-06
-6.73933e-06
-2.43629e-06
-6.55521e-06