/*--------------------------------*- C++ -*----------------------------------*\
| =========                 |                                                 |
| \\      /  F ield         | OpenFOAM: The Open Source CFD Toolbox           |
|  \\    /   O peration     | Version:  dev                                   |
|   \\  /    A nd           | Web:      www.OpenFOAM.org                      |
|    \\/     M anipulation  |                                                 |
\*---------------------------------------------------------------------------*/
FoamFile
{
    version     2.0;
    format      ascii;
    class       volVectorField;
    location    "1.71";
    object      Force;
}
// * * * * * * * * * * * * * * * * * * * * * * * * * * * * * * * * * * * * * //

dimensions      [1 1 -2 0 0 0 0];

internalField   uniform (0 0 0);

boundaryField
{
    inlet
    {
        type            calculated;
        value           uniform (0 0 0);
    }
    outlet
    {
        type            calculated;
        value           uniform (0 0 0);
    }
    flap
    {
        type            calculated;
        value           nonuniform List<vector> 
33
(
(2.47423 1.54552e-18 -0.184143)
(2.42897 2.00105e-17 -0.462947)
(2.29778 -2.59954e-17 -0.728321)
(2.08297 -4.01536e-22 -0.919363)
(1.8193 1.96405e-17 -1.02764)
(1.54696 5.69272e-21 -1.06224)
(1.29609 1.88582e-17 -1.04165)
(1.08393 1.82998e-17 -0.986645)
(0.911642 1.76782e-17 -0.91385)
(0.772791 1.77574e-23 -0.832737)
(0.658995 -5.31711e-18 -0.747609)
(0.560036 1.66859e-21 -0.657404)
(0.466116 0 -0.558054)
(0.367654 1.62402e-17 -0.442675)
(0.251687 8.22846e-38 -0.302653)
(0.614422 -5.87747e-39 0.500107)
(0.398512 5.87747e-39 0.32269)
(0.179743 -6.24544e-19 0.147221)
(-0.00667326 0 0.00049931)
(-0.00639646 9.83394e-21 0.00117763)
(-0.00591866 3.25612e-23 0.00183454)
(-0.00527608 1.70941e-20 0.00227484)
(-0.0044974 -3.81716e-23 0.00247776)
(-0.00361554 1.27882e-20 0.00240673)
(-0.00266256 1.31701e-17 0.00204303)
(-0.00165861 -1.54972e-40 0.00138753)
(-0.000617489 6.74417e-41 0.000463732)
(0.000439265 -1.43845e-17 -0.000671476)
(0.00144798 1.48606e-17 -0.00189366)
(0.00233904 -2.12566e-22 -0.00304161)
(0.00322261 1.69422e-17 -0.00415824)
(0.00508746 -6.086e-23 -0.00601891)
(0.0159818 -2.47742e-22 -0.020263)
)
;
    }
    upperWall
    {
        type            calculated;
        value           uniform (0 0 0);
    }
    lowerWall
    {
        type            calculated;
        value           uniform (0 0 0);
    }
    frontAndBack
    {
        type            empty;
    }
}


// ************************************************************************* //
