/*--------------------------------*- C++ -*----------------------------------*\
| =========                 |                                                 |
| \\      /  F ield         | OpenFOAM: The Open Source CFD Toolbox           |
|  \\    /   O peration     | Version:  dev                                   |
|   \\  /    A nd           | Web:      www.OpenFOAM.org                      |
|    \\/     M anipulation  |                                                 |
\*---------------------------------------------------------------------------*/
FoamFile
{
    version     2.0;
    format      ascii;
    class       volVectorField;
    location    "2.66";
    object      U;
}
// * * * * * * * * * * * * * * * * * * * * * * * * * * * * * * * * * * * * * //

dimensions      [0 1 -1 0 0 0 0];

internalField   nonuniform List<vector> 
2790
(
(9.9397 0 0.0188804)
(9.86637 0 0.0264327)
(9.76523 -2.87141e-20 0.0314177)
(9.64599 0 0.03644)
(9.5137 0 0.0415446)
(9.36901 8.1469e-21 0.0466965)
(9.21148 8.52266e-21 0.0520305)
(9.04073 1.79905e-20 0.0576906)
(8.85638 -9.27668e-21 0.0637899)
(8.65788 -1.97371e-20 0.0704401)
(8.44447 -2.56828e-22 0.0777646)
(8.21518 2.14152e-20 0.0858954)
(7.96884 -4.55577e-20 0.0949749)
(7.70414 4.86163e-20 0.105162)
(7.41963 0 0.116634)
(7.11368 0 0.129585)
(6.78452 1.11108e-19 0.144223)
(6.43035 -1.43808e-19 0.160764)
(6.04935 -1.22873e-19 0.17943)
(5.63973 1.58946e-19 0.200445)
(5.19982 0 0.22401)
(4.72823 -7.05468e-20 0.25027)
(4.22404 0 0.279288)
(3.68708 0 0.310976)
(3.11818 0 0.344979)
(2.51955 0 0.380438)
(1.89557 6.92141e-19 0.415238)
(1.25433 -7.00063e-19 0.442927)
(0.603494 0 0.438204)
(0.112655 0 0.187351)
(10.0039 -5.30447e-20 0.0372207)
(9.99076 0 0.0543147)
(9.95147 2.86628e-20 0.0664855)
(9.89212 -4.4888e-20 0.0791915)
(9.81674 3.12314e-20 0.0925308)
(9.7262 -3.25542e-20 0.106352)
(9.62035 3.4046e-20 0.120926)
(9.49895 0 0.136573)
(9.36173 -9.31169e-21 0.153549)
(9.20826 0 0.172114)
(9.03787 0 0.192567)
(8.84966 -9.67448e-20 0.215229)
(8.64256 8.89894e-20 0.240441)
(8.41532 -1.46875e-21 0.268575)
(8.16653 -1.98775e-19 0.300038)
(7.8946 -3.33343e-21 0.335262)
(7.59776 2.4271e-19 0.374689)
(7.27411 2.85468e-20 0.41874)
(6.92169 -5.98102e-20 0.467789)
(6.53849 -6.02011e-19 0.522133)
(6.12251 1.05634e-18 0.581918)
(5.67183 6.27379e-19 0.647031)
(5.18476 -1.01392e-18 0.716962)
(4.65998 6.00108e-19 0.790604)
(4.09672 1.267e-18 0.865948)
(3.49471 -1.29586e-18 0.939488)
(2.85403 3.34725e-19 1.00495)
(2.17449 3.41453e-19 1.05053)
(1.42558 -2.75516e-18 1.0593)
(0.82375 2.92779e-18 0.965542)
(10.0012 5.302e-20 0.0380008)
(9.98561 -1.37431e-20 0.0626321)
(9.94894 -2.85729e-20 0.0828397)
(9.89472 1.49682e-20 0.103777)
(9.82566 3.12669e-20 0.125833)
(9.74266 2.34988e-22 0.148903)
(9.64581 -3.38871e-20 0.173348)
(9.53497 0 0.199614)
(9.40995 -3.70757e-20 0.228086)
(9.27039 -1.93858e-20 0.259181)
(9.11576 0 0.29339)
(8.9453 1.06371e-20 0.331241)
(8.75809 0 0.373298)
(8.55305 0 0.420183)
(8.32894 0 0.47258)
(8.08439 -3.88068e-19 0.531231)
(7.8178 8.87567e-19 0.596912)
(7.5274 6.37615e-20 0.670389)
(7.21129 -4.69099e-19 0.752389)
(6.86739 9.39143e-19 0.84354)
(6.49342 -1.03062e-18 0.944262)
(6.08692 0 1.05462)
(5.6452 -1.4227e-19 1.17413)
(5.16526 -1.19116e-18 1.30145)
(4.64359 3.69133e-18 1.43409)
(4.07546 -2.20692e-18 1.56786)
(3.45332 2.29462e-18 1.69596)
(2.76531 -3.11934e-19 1.80789)
(1.95722 1.69128e-20 1.90011)
(1.17138 -2.50759e-18 1.96256)
(9.99939 0 0.0410897)
(9.98127 0 0.0749109)
(9.94442 5.71519e-20 0.104584)
(9.89138 2.98722e-20 0.134132)
(9.82383 -3.10026e-20 0.164579)
(9.74265 0 0.19619)
(9.64813 -3.38948e-20 0.229501)
(9.54033 7.11023e-20 0.265109)
(9.41915 -7.34995e-20 0.303542)
(9.28438 1.93373e-20 0.345393)
(9.13561 0 0.391343)
(8.9723 0 0.442109)
(8.79374 0 0.498451)
(8.59912 0 0.561211)
(8.38753 0 0.631325)
(8.15792 -4.35119e-19 0.70982)
(7.90908 -6.97225e-21 0.797801)
(7.63965 4.42092e-19 0.896402)
(7.34807 5.85112e-20 1.00675)
(7.03259 1.10749e-18 1.12997)
(6.69108 -1.01322e-18 1.26699)
(6.32104 8.09227e-19 1.41845)
(5.91932 -1.10241e-18 1.58449)
(5.48185 2.61151e-18 1.76445)
(5.00302 -2.37469e-18 1.9567)
(4.47469 -3.09464e-19 2.15862)
(3.88428 2.53504e-18 2.36664)
(3.21465 -2.55745e-18 2.57619)
(2.41979 0 2.7868)
(1.50101 3.35232e-19 3.0567)
(9.9985 -1.18531e-19 0.0457493)
(9.97881 1.36583e-20 0.0873757)
(9.94168 0 0.125242)
(9.88958 0 0.162461)
(9.82343 0 0.200566)
(9.74389 6.49135e-20 0.240187)
(9.65132 -6.72382e-20 0.281982)
(9.54597 0 0.326626)
(9.42783 -1.11108e-19 0.374754)
(9.29668 3.07555e-19 0.427096)
(9.15224 -3.21399e-19 0.484479)
(8.99409 1.66944e-19 0.547754)
(8.82165 0 0.617815)
(8.63432 0 0.695658)
(8.43145 1.19764e-20 0.7824)
(8.21227 -2.50499e-20 0.879292)
(7.97591 -9.00267e-19 0.987702)
(7.72138 8.17741e-19 1.10906)
(7.44751 0 1.24487)
(7.15296 -1.08689e-18 1.39671)
(6.836 8.69336e-19 1.56613)
(6.49437 5.21204e-19 1.75446)
(6.125 0 1.96286)
(5.72357 -2.82342e-19 2.19204)
(5.28375 -2.33161e-18 2.44209)
(4.79618 2.36782e-18 2.71283)
(4.24727 0 3.00464)
(3.61767 -4.92391e-18 3.32003)
(2.90092 9.63953e-18 3.63967)
(1.87317 -6.32413e-18 4.12103)
(9.99811 3.15268e-19 0.0511716)
(9.97756 0 0.0998917)
(9.94042 -2.84605e-20 0.145474)
(9.88942 8.85026e-20 0.190307)
(9.82498 1.23558e-19 0.236119)
(9.74743 -1.92868e-19 0.283773)
(9.65721 0 0.333988)
(9.55473 7.0001e-20 0.387481)
(9.44 7.30478e-20 0.445007)
(9.31279 -3.07232e-19 0.507447)
(9.17292 2.77525e-19 0.575755)
(9.02008 4.15587e-20 0.650904)
(8.85381 3.50405e-19 0.733919)
(8.67361 -3.61367e-19 0.825922)
(8.47902 -1.19056e-20 0.928172)
(8.26946 8.49268e-19 1.04211)
(8.04433 1.19336e-20 1.16934)
(7.80296 -8.5938e-19 1.31157)
(7.54437 -9.09556e-19 1.4706)
(7.26761 1.05236e-18 1.64844)
(6.97152 2.09509e-18 1.84728)
(6.65413 1.7646e-18 2.06922)
(6.31272 2.61464e-19 2.31649)
(5.94336 2.69734e-19 2.59138)
(5.54023 -2.7713e-19 2.89612)
(5.09458 -4.87713e-18 3.23294)
(4.59476 4.34132e-18 3.60448)
(4.01597 4.66557e-18 4.02094)
(3.41939 -9.09251e-18 4.42139)
(2.29392 5.38822e-18 5.0908)
(9.99795 -2.09785e-19 0.0569584)
(9.97711 -2.71936e-20 0.112422)
(9.94032 2.82673e-20 0.16531)
(9.89055 -5.94275e-20 0.217503)
(9.82801 6.13546e-20 0.270778)
(9.75277 1.2839e-19 0.326168)
(9.66535 1.3349e-19 0.384444)
(9.56629 -6.98119e-20 0.446389)
(9.4555 -2.92515e-19 0.512906)
(9.3328 -7.87604e-20 0.585016)
(9.19811 6.72774e-19 0.663764)
(9.05119 -3.75538e-20 0.750221)
(8.89174 -3.85527e-19 0.845543)
(8.71938 0 0.95097)
(8.5337 2.92048e-21 1.06787)
(8.33427 -2.45399e-20 1.19782)
(8.12072 0 1.34262)
(7.89267 -5.28696e-20 1.50427)
(7.64927 -1.1e-19 1.68483)
(7.38979 -1.85179e-18 1.88665)
(7.1136 3.93695e-18 2.11249)
(6.81919 1.71975e-18 2.36534)
(6.50436 2.04815e-18 2.64848)
(6.1659 -4.46318e-18 2.96556)
(5.79912 2.41134e-18 3.32074)
(5.39687 -4.37727e-18 3.71851)
(4.95153 4.68722e-18 4.16156)
(4.42565 -6.76479e-20 4.6697)
(3.96895 0 5.12245)
(2.75281 0 5.94824)
(9.99796 0 0.0628786)
(9.97723 0 0.124838)
(9.94109 2.25236e-19 0.184663)
(9.89272 -2.35005e-19 0.243933)
(9.83219 -1.22261e-19 0.304399)
(9.75952 -2.55398e-19 0.367207)
(9.67532 -6.49891e-22 0.433186)
(9.58012 0 0.503212)
(9.47379 2.17811e-19 0.578342)
(9.3562 7.83177e-20 0.659701)
(9.22734 -2.33898e-19 0.748392)
(9.08703 0 0.84556)
(8.93511 4.27084e-20 0.952471)
(8.7714 0 1.0705)
(8.59552 8.61268e-21 1.20114)
(8.40716 -7.75109e-19 1.34608)
(8.20609 7.9644e-19 1.50725)
(7.99211 5.23276e-20 1.68688)
(7.76482 1.08734e-19 1.88741)
(7.52358 1.80449e-18 2.11146)
(7.26785 -1.9624e-18 2.3622)
(6.9968 2.41261e-19 2.64345)
(6.70899 -2.22678e-18 2.95952)
(6.40213 6.30862e-18 3.3153)
(6.07266 2.00809e-20 3.71633)
(5.71499 -3.88835e-18 4.16893)
(5.32763 0 4.67418)
(4.85225 6.56554e-20 5.26495)
(4.53819 0 5.74981)
(3.2366 0 6.70335)
(9.99814 -1.30034e-20 0.0687777)
(9.97775 1.34622e-20 0.137008)
(9.94254 -2.24847e-19 0.203447)
(9.89581 1.17122e-19 0.269506)
(9.83758 2.43613e-19 0.336868)
(9.76787 1.27062e-19 0.406734)
(9.68736 0 0.480016)
(9.59645 -2.76299e-19 0.557721)
(9.495 2.85362e-19 0.641039)
(9.38301 0 0.731159)
(9.26053 2.34357e-19 0.829231)
(9.12747 8.39398e-20 0.936465)
(8.98378 -1.01155e-18 1.05421)
(8.82939 6.96455e-19 1.18396)
(8.66413 -1.14239e-20 1.32736)
(8.48781 1.17693e-20 1.48621)
(8.30026 -1.52669e-21 1.66251)
(8.10132 1.63937e-18 1.85867)
(7.89118 -3.37626e-18 2.0775)
(7.66945 1.73589e-18 2.32199)
(7.43555 0 2.59565)
(7.18925 -1.97181e-18 2.90291)
(6.92981 -2.03011e-18 3.24894)
(6.65606 -2.61456e-19 3.63985)
(6.36578 5.43083e-20 4.08227)
(6.05378 3.93381e-18 4.58388)
(5.72628 0 5.14307)
(5.29782 0 5.80972)
(5.11936 -3.20541e-18 6.31771)
(3.73735 4.05295e-18 7.38013)
(9.9984 0 0.0745543)
(9.97854 0 0.148825)
(9.94448 -5.59712e-20 0.221564)
(9.89965 2.90425e-19 0.294087)
(9.84403 -1.21338e-19 0.367995)
(9.77767 -1.26489e-19 0.444519)
(9.70122 1.30817e-19 0.524697)
(9.61497 0 0.609687)
(9.51882 -1.43627e-19 0.700752)
(9.41288 1.46949e-19 0.799109)
(9.29732 0 0.90595)
(9.17213 -8.01298e-20 1.02255)
(9.03733 -6.67574e-19 1.15033)
(8.89294 -7.15406e-21 1.29088)
(8.73902 7.56983e-19 1.44595)
(8.57559 -1.16614e-20 1.61749)
(8.40259 -2.23961e-20 1.80763)
(8.21993 -1.58752e-18 2.01886)
(8.028 3.28588e-18 2.25422)
(7.82689 1.64546e-21 2.51713)
(7.61639 -1.7331e-18 2.81152)
(7.39665 1.39949e-19 3.14229)
(7.16751 3.75202e-18 3.51526)
(6.92873 -7.35668e-18 3.93759)
(6.67989 3.70578e-18 4.41711)
(6.41514 -3.90989e-18 4.96299)
(6.14885 3.67827e-18 5.57032)
(5.76483 0 6.30847)
(5.71097 -1.29267e-18 6.84181)
(4.25511 -7.34139e-18 8.00818)
(9.99872 2.57679e-20 0.0801479)
(9.97947 -2.66707e-20 0.160216)
(9.9467 0 0.238937)
(9.90395 -1.15862e-19 0.317565)
(9.85117 -1.20167e-19 0.397635)
(9.7884 -1.25636e-19 0.48041)
(9.71623 -8.45462e-23 0.56707)
(9.6349 4.06974e-19 0.658907)
(9.54444 -5.62036e-19 0.75722)
(9.44507 1.46676e-19 0.863229)
(9.337 1.51433e-19 0.978176)
(9.2203 0 1.10341)
(9.09506 6.57871e-19 1.2404)
(8.96142 -6.75778e-19 1.39078)
(8.81959 -4.41702e-20 1.55639)
(8.6698 0 1.7393)
(8.51223 2.36489e-20 1.94182)
(8.34698 1.54672e-18 2.16654)
(8.17447 -1.5899e-18 2.41659)
(7.99523 1.60819e-18 2.69575)
(7.80962 -1.6738e-18 3.00838)
(7.61819 -2.70087e-20 3.35982)
(7.42146 0 3.75648)
(7.21988 0 4.20636)
(7.01465 3.6387e-18 4.71858)
(6.79959 -3.25922e-18 5.30487)
(6.59696 0 5.95746)
(6.25874 0 6.76447)
(6.31868 -4.50614e-18 7.33644)
(4.79961 1.33638e-17 8.61966)
(9.9991 0 0.0855114)
(9.98059 5.31595e-20 0.171122)
(9.94928 -5.52136e-20 0.255495)
(9.90883 -2.29654e-19 0.339838)
(9.85921 -1.19943e-19 0.425662)
(9.80035 1.24091e-19 0.514296)
(9.73267 -1.29785e-19 0.60703)
(9.65648 -2.70271e-19 0.705235)
(9.57201 4.17711e-19 0.810227)
(9.47956 1.46313e-19 0.923252)
(9.37937 -4.49714e-19 1.0456)
(9.27161 0 1.17867)
(9.15648 -6.47798e-19 1.32398)
(9.03423 1.33537e-18 1.48319)
(8.90515 5.84055e-21 1.65816)
(8.76966 -7.09865e-19 1.8511)
(8.62822 1.56652e-18 2.06442)
(8.48123 -3.02324e-18 2.30084)
(8.3293 8.65338e-20 2.5636)
(8.17324 1.63245e-18 2.85663)
(8.01397 0 3.18473)
(7.85259 0 3.55361)
(7.69021 0 3.97021)
(7.5283 0 4.44341)
(7.36916 -3.87044e-18 4.98355)
(7.20707 3.24839e-18 5.60596)
(7.07208 0 6.30241)
(6.78812 -2.93334e-18 7.17644)
(6.95539 8.12328e-19 7.81223)
(5.39285 -5.55051e-18 9.24936)
(9.99952 2.5499e-20 0.0905985)
(9.98187 2.64781e-20 0.181463)
(9.95221 1.0947e-19 0.271138)
(9.91432 2.862e-19 0.360776)
(9.86809 0 0.451934)
(9.81336 -1.23795e-19 0.546041)
(9.75041 3.85058e-19 0.64445)
(9.67966 -1.31963e-19 0.748533)
(9.60148 1.37608e-19 0.859625)
(9.51622 2.86163e-19 0.979013)
(9.42422 -5.95222e-19 1.10802)
(9.32573 6.11685e-19 1.24808)
(9.22112 -6.37437e-19 1.40075)
(9.11074 8.16815e-19 1.56772)
(8.9949 6.79407e-19 1.75085)
(8.87424 -6.94868e-19 1.95239)
(8.74954 8.78071e-20 2.17484)
(8.62151 0 2.421)
(8.49107 9.16491e-20 2.69423)
(8.35927 0 2.99856)
(8.22761 1.74706e-18 3.33902)
(8.09794 1.56946e-18 3.72172)
(7.97189 -3.87777e-19 4.15396)
(7.85228 3.8461e-19 4.64552)
(7.74261 7.68722e-19 5.20796)
(7.638 7.30931e-19 5.86035)
(7.57575 -3.49193e-18 6.59779)
(7.36384 4.08294e-18 7.53456)
(7.64121 1.34887e-18 8.27055)
(6.07397 5.78586e-19 9.93761)
(9.99992 0 0.0953839)
(9.98318 5.25557e-20 0.19118)
(9.95536 -5.54405e-20 0.285783)
(9.92016 0 0.380301)
(9.87738 -2.35485e-19 0.476372)
(9.82684 -2.44435e-19 0.575535)
(9.76885 0 0.679159)
(9.70386 -2.64403e-19 0.788594)
(9.63229 -7.53189e-22 0.905197)
(9.55457 9.4151e-22 1.03029)
(9.4711 -2.91745e-19 1.16521)
(9.38224 6.07117e-19 1.31138)
(9.28848 -4.67282e-19 1.47042)
(9.19034 -3.22141e-19 1.64402)
(9.08817 0 1.83407)
(8.98284 0 2.04273)
(8.8754 -1.76007e-19 2.27253)
(8.7668 0 2.52634)
(8.65838 -1.83767e-19 2.8076)
(8.55157 -1.83113e-19 3.12037)
(8.4484 -1.88838e-19 3.46976)
(8.35146 0 3.86205)
(8.26361 1.05833e-20 4.3049)
(8.18877 -3.29669e-18 4.8086)
(8.13237 6.08088e-18 5.38601)
(8.09165 -3.51677e-18 6.05906)
(8.10946 6.73852e-19 6.82945)
(7.9981 -1.26009e-18 7.8146)
(8.40425 -1.06888e-18 8.68744)
(6.90452 -5.302e-19 10.7362)
(10.0004 -2.52069e-20 0.0998493)
(9.9846 -2.61605e-20 0.200228)
(9.95876 -1.08997e-19 0.299371)
(9.92639 5.66767e-20 0.398372)
(9.88715 -1.15874e-19 0.498956)
(9.84089 2.43693e-19 0.602733)
(9.78799 2.52644e-19 0.711067)
(9.72892 -2.61957e-19 0.825295)
(9.66416 4.05135e-19 0.946805)
(9.59422 1.38424e-19 1.07694)
(9.51953 7.23517e-19 1.21699)
(9.44053 -5.94517e-19 1.36842)
(9.35784 6.14864e-19 1.53283)
(9.2721 -3.14606e-19 1.71192)
(9.18397 1.61541e-19 1.90758)
(9.09444 1.33574e-18 2.12188)
(9.00457 -1.36078e-18 2.35725)
(8.9157 -1.39122e-18 2.61662)
(8.82958 1.06144e-18 2.90338)
(8.748 1.80326e-19 3.22154)
(8.6737 0 3.5761)
(8.60996 0 3.9732)
(8.56125 3.60628e-19 4.42063)
(8.53254 -2.75287e-18 4.92858)
(8.53219 -6.04523e-19 5.51071)
(8.5618 1.17394e-19 6.18984)
(8.66883 1.33788e-18 6.97484)
(8.69559 4.34709e-18 7.97195)
(9.26958 -2.96597e-19 8.97833)
(7.96923 -1.57624e-18 11.7498)
(0.0291795 -2.7471e-21 -0.0253266)
(0.0968566 6.43931e-21 -0.0540821)
(0.238974 -1.19601e-21 -0.0577554)
(0.392518 6.67963e-22 -0.0450813)
(0.517098 4.81981e-23 -0.0270881)
(0.5935 -4.8011e-23 -0.0112954)
(0.62455 0 -0.000673293)
(0.625238 0 0.00493148)
(0.611025 0 0.00704472)
(0.592084 -2.60058e-21 0.00722011)
(0.573537 -4.1314e-21 0.00651662)
(0.557095 1.50725e-21 0.00572029)
(0.54199 -3.51511e-21 0.00558787)
(0.526072 8.41809e-22 0.00635403)
(0.507682 9.20092e-22 0.00720623)
(0.487524 9.46669e-22 0.00725537)
(0.467594 -9.34853e-22 0.00713452)
(0.447397 0 0.00835831)
(0.423277 -4.25884e-22 0.0109631)
(0.392758 4.1995e-22 0.0129542)
(0.358916 0 0.012097)
(0.330197 1.58052e-22 0.00765482)
(0.316496 -1.55982e-22 0.000525135)
(0.323342 -8.78504e-22 -0.00774615)
(0.350301 -1.11388e-22 -0.0153471)
(0.394657 0 -0.0216504)
(0.454749 -4.63711e-22 -0.0281807)
(0.532548 3.10989e-22 -0.0362831)
(0.631453 -1.27284e-23 -0.0454217)
(0.77893 2.38643e-23 -0.0528247)
(0.0273275 -2.24978e-20 -0.0574312)
(0.0683403 9.35252e-21 -0.134886)
(0.207757 1.0252e-21 -0.155763)
(0.362044 -4.16953e-21 -0.129546)
(0.496457 2.94439e-21 -0.0866613)
(0.589132 4.36853e-22 -0.04619)
(0.638403 0 -0.0165757)
(0.655625 8.96396e-23 0.00126353)
(0.653875 -3.34234e-21 0.0100073)
(0.643663 4.40319e-21 0.0131229)
(0.630425 6.03667e-21 0.0132153)
(0.616563 -6.06145e-21 0.0122959)
(0.602393 1.72854e-21 0.0125328)
(0.58681 0 0.0147993)
(0.568602 0 0.01692)
(0.548691 3.8121e-21 0.0165125)
(0.529123 -3.7788e-21 0.0154312)
(0.510032 0 0.0178192)
(0.48857 -1.82527e-21 0.0240458)
(0.461418 -1.68769e-21 0.0294953)
(0.429545 0 0.0290008)
(0.398504 -2.70452e-21 0.0209663)
(0.372024 -2.35759e-21 0.00790039)
(0.347414 2.98607e-21 -0.00699819)
(0.328849 1.79258e-22 -0.0217834)
(0.325428 -1.77002e-22 -0.0345654)
(0.3357 4.41407e-22 -0.0468968)
(0.361495 -2.7611e-22 -0.0631567)
(0.410857 0 -0.0853009)
(0.503365 -8.53498e-23 -0.109172)
(0.0241735 1.17255e-20 -0.0925275)
(0.0356724 0 -0.209691)
(0.152784 -2.04568e-21 -0.24187)
(0.279501 -7.31798e-22 -0.201124)
(0.389676 2.88147e-21 -0.135572)
(0.464141 8.14879e-22 -0.0738433)
(0.500385 0 -0.0283965)
(0.507463 -9.04187e-23 -0.000513478)
(0.495712 -9.89848e-21 0.013922)
(0.47391 -1.69082e-21 0.0200306)
(0.446787 -1.10928e-20 0.0214673)
(0.416134 1.95438e-20 0.0208034)
(0.381985 7.61724e-21 0.0216971)
(0.344029 -1.47641e-20 0.0261834)
(0.300753 1.13253e-20 0.0304957)
(0.252504 -1.1447e-20 0.0294872)
(0.201307 -9.46748e-23 0.0255418)
(0.150298 -7.50404e-21 0.0264221)
(0.098715 1.80104e-21 0.0351523)
(0.0405182 6.86789e-21 0.0466215)
(-0.028958 3.04044e-21 0.0533987)
(-0.111079 1.27431e-21 0.0514426)
(-0.195707 2.90883e-21 0.0416447)
(-0.263655 1.53451e-21 0.0261111)
(-0.30663 0 0.00638599)
(-0.319731 2.57944e-21 -0.020786)
(-0.303394 9.25293e-23 -0.0582517)
(-0.253499 -3.77451e-23 -0.103008)
(-0.178046 -6.42114e-23 -0.150128)
(-0.099311 -9.78373e-23 -0.198494)
(0.0194039 3.24005e-21 -0.136804)
(0.00600045 0 -0.274642)
(0.0997563 0 -0.305893)
(0.194241 3.47405e-21 -0.248484)
(0.270853 -6.82752e-21 -0.163438)
(0.315452 0 -0.085177)
(0.325681 -1.03963e-21 -0.0277691)
(0.305939 4.02317e-22 0.00799573)
(0.266792 0 0.027365)
(0.215346 -1.64261e-20 0.0370992)
(0.156312 -1.71448e-20 0.0415247)
(0.0885041 -2.05782e-20 0.0429038)
(0.010444 6.75989e-21 0.0458815)
(-0.0744604 4.23634e-24 0.0556733)
(-0.168015 -7.63159e-21 0.069104)
(-0.282408 -3.88976e-21 0.0772414)
(-0.42114 1.52871e-20 0.079652)
(-0.552278 1.12934e-20 0.0845474)
(-0.646542 0 0.0954022)
(-0.712843 1.71102e-22 0.105499)
(-0.766003 0 0.106032)
(-0.807016 0 0.0919998)
(-0.831614 0 0.0642083)
(-0.835148 -4.04502e-21 0.0266915)
(-0.818618 -3.76428e-22 -0.0169244)
(-0.781744 -2.19393e-21 -0.0626528)
(-0.739235 0 -0.108682)
(-0.695642 0 -0.154412)
(-0.658027 -7.16324e-22 -0.200382)
(-0.640135 1.70598e-22 -0.239914)
(-0.000679638 -3.24772e-21 -0.190362)
(-0.0350792 0 -0.328168)
(0.0369994 -9.49725e-21 -0.3461)
(0.0958947 1.34978e-20 -0.268112)
(0.131058 1.01274e-22 -0.165196)
(0.134316 0 -0.0731823)
(0.0980438 1.6356e-21 -0.00382902)
(0.0271183 -1.59789e-20 0.042182)
(-0.0661476 3.54944e-20 0.0683451)
(-0.172571 -2.62e-20 0.0842044)
(-0.288941 -1.16814e-20 0.0962771)
(-0.423121 -2.14603e-20 0.105538)
(-0.568131 2.18584e-20 0.115767)
(-0.699528 1.55442e-20 0.130678)
(-0.809531 -7.70265e-21 0.144993)
(-0.912076 7.86633e-21 0.150031)
(-1.01233 7.96234e-21 0.143937)
(-1.09954 -7.5507e-21 0.13374)
(-1.16271 0 0.126382)
(-1.20168 -6.82056e-21 0.120139)
(-1.21992 4.97064e-21 0.107593)
(-1.22201 1.49752e-21 0.0831872)
(-1.21275 0 0.047193)
(-1.19657 -4.43811e-21 0.00426376)
(-1.17635 0 -0.0409156)
(-1.15418 0 -0.0863953)
(-1.13335 0 -0.131522)
(-1.1159 1.55875e-21 -0.176376)
(-1.10606 2.37419e-21 -0.22007)
(-1.10497 0 -0.254474)
(-0.0485386 2.13474e-20 -0.244951)
(-0.0980327 -2.65431e-20 -0.366841)
(-0.0470449 -4.56964e-21 -0.358181)
(-0.0305065 0 -0.25183)
(-0.0488612 -3.61098e-21 -0.126225)
(-0.115585 1.80817e-20 -0.0118209)
(-0.239788 -2.82043e-21 0.073926)
(-0.376474 -1.03028e-20 0.122711)
(-0.522692 0 0.149247)
(-0.665523 0 0.166065)
(-0.79953 -1.38129e-20 0.177991)
(-0.930845 2.81694e-20 0.184807)
(-1.0592 8.258e-21 0.188477)
(-1.17499 7.94529e-22 0.192924)
(-1.2722 -1.62256e-20 0.196706)
(-1.35328 8.10319e-21 0.193134)
(-1.4213 -7.91083e-21 0.179394)
(-1.47602 -1.60729e-20 0.160108)
(-1.51462 -7.73094e-21 0.141023)
(-1.53591 0 0.122308)
(-1.54183 3.46884e-21 0.0995636)
(-1.53748 -3.11975e-21 0.0691146)
(-1.52881 0 0.0309726)
(-1.51955 4.41994e-21 -0.011873)
(-1.51018 0 -0.0564746)
(-1.50229 3.36856e-22 -0.101252)
(-1.49657 -8.80569e-23 -0.145422)
(-1.49472 -1.80689e-21 -0.189123)
(-1.49812 -1.64355e-21 -0.230895)
(-1.50275 0 -0.261646)
(-0.124782 8.22549e-21 -0.284774)
(-0.182898 0 -0.380285)
(-0.15903 0 -0.326553)
(-0.201246 0 -0.173637)
(-0.306186 0 -0.0168299)
(-0.472111 0 0.110253)
(-0.623942 0 0.181339)
(-0.775255 1.64013e-20 0.218893)
(-0.924552 -1.83464e-20 0.237454)
(-1.06625 0 0.247202)
(-1.197 0 0.252924)
(-1.31782 -7.43597e-21 0.254257)
(-1.42829 1.55873e-20 0.251287)
(-1.52486 -1.65839e-20 0.24601)
(-1.60389 -3.41957e-20 0.238083)
(-1.66691 0 0.224032)
(-1.71705 8.32912e-21 0.202422)
(-1.7563 2.45509e-20 0.17632)
(-1.78463 -4.5996e-21 0.149609)
(-1.80187 -1.91066e-20 0.122827)
(-1.80969 7.51991e-21 0.0936007)
(-1.81169 0 0.0596712)
(-1.81173 -1.32554e-21 0.0207875)
(-1.81214 -1.00968e-20 -0.0214542)
(-1.8132 1.12714e-21 -0.0651941)
(-1.81595 -3.7463e-22 -0.109156)
(-1.82078 9.17442e-23 -0.152619)
(-1.82926 4.2512e-21 -0.195392)
(-1.84069 -2.46667e-21 -0.235297)
(-1.84834 -8.59892e-22 -0.263207)
(-0.217881 4.23387e-20 -0.29249)
(-0.281804 0 -0.345614)
(-0.305813 0 -0.222352)
(-0.431301 -1.20911e-20 -0.0290404)
(-0.619302 1.34086e-20 0.141369)
(-0.783887 -2.30224e-20 0.236657)
(-0.947148 1.81509e-20 0.290014)
(-1.10308 0 0.316701)
(-1.24908 2.50148e-20 0.326672)
(-1.38318 -2.4802e-20 0.327739)
(-1.50398 -1.57562e-20 0.324297)
(-1.61161 1.80132e-20 0.316751)
(-1.70608 -1.65968e-20 0.30512)
(-1.7865 -1.06966e-21 0.290327)
(-1.85234 1.74008e-20 0.272055)
(-1.90497 1.83584e-20 0.248764)
(-1.94727 1.80906e-20 0.220302)
(-1.9815 -7.53375e-21 0.188966)
(-2.0084 2.4441e-20 0.157215)
(-2.0283 1.5247e-20 0.125452)
(-2.04246 -1.77363e-20 0.092294)
(-2.05321 3.48848e-21 0.0562573)
(-2.06285 0 0.0169665)
(-2.07271 1.02303e-20 -0.0248314)
(-2.0827 1.04425e-21 -0.0679897)
(-2.09393 6.90391e-21 -0.111522)
(-2.10682 0 -0.154685)
(-2.12284 -3.96573e-21 -0.196799)
(-2.13976 -4.28199e-22 -0.235117)
(-2.14928 -1.49654e-22 -0.260909)
(-0.317293 -3.55603e-20 -0.256375)
(-0.39021 6.71598e-20 -0.239313)
(-0.48235 0 -0.0509615)
(-0.681238 1.83047e-21 0.167128)
(-0.864676 -1.92574e-22 0.292944)
(-1.04603 9.94754e-22 0.365886)
(-1.21616 3.52394e-20 0.402551)
(-1.37103 -1.72837e-20 0.415477)
(-1.50977 -2.31264e-20 0.41373)
(-1.63325 -3.16734e-20 0.40396)
(-1.74186 1.79321e-21 0.389826)
(-1.83586 -3.36218e-20 0.37236)
(-1.91732 3.65972e-20 0.351723)
(-1.9867 -1.92502e-20 0.328215)
(-2.04455 3.83323e-20 0.301566)
(-2.09245 1.15915e-21 0.271198)
(-2.13275 -3.71927e-20 0.237558)
(-2.16733 -8.64345e-21 0.202357)
(-2.19701 -1.3107e-20 0.167173)
(-2.22229 4.22884e-21 0.132249)
(-2.24409 0 0.0966514)
(-2.2638 3.46022e-21 0.0592527)
(-2.28269 -3.42071e-21 0.0195183)
(-2.30123 0 -0.0223271)
(-2.31902 1.15742e-21 -0.0655065)
(-2.337 -1.79186e-20 -0.109177)
(-2.35623 0 -0.152471)
(-2.37793 5.24858e-21 -0.194184)
(-2.39876 -4.58099e-22 -0.231223)
(-2.40942 1.01189e-21 -0.255457)
(-0.407798 -1.43333e-19 -0.164426)
(-0.504104 3.12855e-20 -0.0552982)
(-0.665849 9.80139e-21 0.188102)
(-0.869533 -5.34218e-21 0.351104)
(-1.0776 1.91567e-20 0.450514)
(-1.27021 1.6276e-20 0.500237)
(-1.44144 -1.28366e-21 0.516514)
(-1.59019 -2.20136e-20 0.511941)
(-1.71822 0 0.495518)
(-1.82843 0 0.473363)
(-1.92325 0 0.448551)
(-2.00522 -1.84434e-20 0.421856)
(-2.07654 2.01828e-20 0.393271)
(-2.1384 -1.98558e-20 0.362614)
(-2.19185 1.39103e-21 0.329613)
(-2.23851 -1.943e-20 0.29414)
(-2.28016 -1.10598e-20 0.256803)
(-2.31808 9.65851e-21 0.218848)
(-2.35289 -4.55839e-21 0.181306)
(-2.38499 4.49996e-21 0.144295)
(-2.41498 1.73607e-20 0.107068)
(-2.44352 -1.62149e-20 0.0685945)
(-2.47107 0 0.0281646)
(-2.49746 0 -0.014317)
(-2.52219 -1.28556e-21 -0.0582751)
(-2.54538 1.06395e-20 -0.102761)
(-2.5695 -9.33171e-22 -0.14658)
(-2.59537 -4.97687e-21 -0.188107)
(-2.61888 3.51801e-21 -0.224066)
(-2.63016 -1.37233e-21 -0.24709)
(-0.479165 6.03154e-20 0.0733784)
(-0.608413 0 0.242598)
(-0.802731 -4.80062e-21 0.417564)
(-1.04346 -1.16282e-21 0.547378)
(-1.26912 7.20506e-22 0.61487)
(-1.46496 3.67842e-20 0.635795)
(-1.63013 -2.1625e-20 0.627251)
(-1.76686 -1.90338e-20 0.602171)
(-1.87981 -3.66448e-20 0.569646)
(-1.97447 3.59334e-20 0.535053)
(-2.05527 0 0.500573)
(-2.12573 4.37579e-20 0.466297)
(-2.18836 -2.11709e-20 0.431559)
(-2.24473 -2.26275e-20 0.395735)
(-2.2961 -4.34199e-20 0.358459)
(-2.34373 0 0.319705)
(-2.38878 2.03319e-20 0.280003)
(-2.43198 -1.01228e-20 0.240255)
(-2.47362 9.98599e-21 0.20115)
(-2.51377 1.96487e-20 0.162701)
(-2.55252 -1.2936e-20 0.124198)
(-2.58995 1.18447e-20 0.0845958)
(-2.6258 -1.8564e-21 0.0430189)
(-2.65942 1.83607e-21 -0.000826033)
(-2.69003 0 -0.0464394)
(-2.71774 0 -0.0925524)
(-2.74513 -8.96532e-21 -0.137445)
(-2.77373 6.7645e-21 -0.179036)
(-2.79887 0 -0.214007)
(-2.81034 -1.67583e-21 -0.236021)
(-0.484324 2.41735e-20 0.460841)
(-0.663853 -3.88129e-20 0.533277)
(-0.935634 8.25472e-20 0.66593)
(-1.20828 -2.81254e-20 0.753878)
(-1.44214 -2.97384e-20 0.781112)
(-1.63226 2.86335e-20 0.767046)
(-1.78336 3.92997e-20 0.729864)
(-1.90202 -7.05549e-20 0.682535)
(-1.99586 3.76162e-20 0.633653)
(-2.07233 2.24595e-20 0.587718)
(-2.13762 2.20024e-20 0.545658)
(-2.19613 1.40676e-21 0.506238)
(-2.2505 -2.31923e-20 0.467798)
(-2.30225 2.26172e-20 0.429163)
(-2.3524 2.24661e-20 0.389748)
(-2.40187 0 0.349471)
(-2.45134 -1.11462e-20 0.3087)
(-2.50105 2.18016e-20 0.26804)
(-2.55082 -1.0667e-20 0.22794)
(-2.60023 1.47803e-21 0.188324)
(-2.64871 -2.48752e-20 0.148475)
(-2.69555 2.45976e-21 0.107298)
(-2.73986 2.18788e-21 0.0638289)
(-2.78047 0 0.0176839)
(-2.81644 1.44398e-20 -0.0305743)
(-2.848 0 -0.0793059)
(-2.87736 9.47535e-21 -0.126061)
(-2.90726 -7.27479e-21 -0.1679)
(-2.93307 4.83036e-23 -0.201516)
(-2.9444 2.96584e-21 -0.222081)
(-0.456744 1.146e-19 1.01165)
(-0.724699 -1.24853e-19 0.874933)
(-1.0768 3.55043e-21 0.936033)
(-1.36373 -1.66468e-20 0.966054)
(-1.59407 -5.21548e-21 0.943074)
(-1.76952 2.299e-20 0.887935)
(-1.89966 -6.24948e-20 0.818929)
(-1.99455 6.41005e-20 0.748435)
(-2.06433 0 0.684153)
(-2.11878 0 0.629303)
(-2.16588 -1.06626e-21 0.582915)
(-2.21055 -2.52963e-20 0.541609)
(-2.25508 -2.57601e-20 0.502388)
(-2.3006 2.52978e-20 0.463557)
(-2.34793 -1.34467e-20 0.42436)
(-2.39776 -6.91052e-23 0.384609)
(-2.45047 -1.20328e-20 0.344451)
(-2.50594 -2.41294e-20 0.304163)
(-2.56358 2.34139e-20 0.263943)
(-2.62238 1.5853e-21 0.223595)
(-2.68102 4.18394e-20 0.182317)
(-2.7379 -2.41258e-21 0.138946)
(-2.79122 2.38492e-21 0.0925221)
(-2.83916 -2.02344e-21 0.0428014)
(-2.88044 -1.24089e-20 -0.00937735)
(-2.91536 -7.43047e-22 -0.0618939)
(-2.94641 4.43012e-22 -0.111327)
(-2.97633 2.90374e-22 -0.153459)
(-3.00197 0 -0.184529)
(-3.01307 0 -0.202086)
(-0.321126 1.29446e-19 1.63729)
(-0.759457 -1.15965e-19 1.27557)
(-1.1921 -3.577e-21 1.23972)
(-1.48454 1.43963e-20 1.18832)
(-1.71013 -3.13627e-20 1.10034)
(-1.86612 0 0.995666)
(-1.96993 -2.31917e-21 0.890587)
(-2.03569 -3.04884e-21 0.795732)
(-2.0764 0 0.717229)
(-2.10455 -5.84738e-20 0.656645)
(-2.13011 2.88156e-20 0.610166)
(-2.15794 0 0.570745)
(-2.18903 -2.90565e-20 0.533767)
(-2.22362 0 0.497381)
(-2.2624 2.59349e-20 0.460944)
(-2.30637 -1.30596e-20 0.424104)
(-2.35591 1.28574e-20 0.386652)
(-2.41085 4.98437e-20 0.348456)
(-2.47068 -2.33962e-20 0.309379)
(-2.53419 -2.26048e-20 0.269037)
(-2.59943 -2.17129e-20 0.226494)
(-2.66393 -2.2473e-20 0.180508)
(-2.72475 2.12851e-20 0.13024)
(-2.77891 0 0.0758353)
(-2.82425 -1.88059e-20 0.0187737)
(-2.86077 5.62955e-22 -0.0380618)
(-2.89128 8.47305e-23 -0.0903303)
(-2.91951 -1.84448e-20 -0.132479)
(-2.9437 1.17633e-20 -0.160049)
(-2.95477 0 -0.173397)
(0.154498 0 2.23462)
(-0.417378 -3.2111e-21 1.72844)
(-1.12199 -7.7315e-23 1.62692)
(-1.46151 5.8265e-21 1.42928)
(-1.7048 9.62989e-21 1.24869)
(-1.8491 0 1.08365)
(-1.93208 4.01901e-21 0.93876)
(-1.9742 -1.65551e-21 0.819707)
(-1.99076 -3.39025e-20 0.72978)
(-1.99676 2.99304e-20 0.668573)
(-2.00425 1.58911e-21 0.627405)
(-2.01719 -3.08546e-20 0.592866)
(-2.03377 6.04533e-20 0.559511)
(-2.05288 -3.04722e-20 0.526691)
(-2.07539 1.4291e-20 0.494581)
(-2.10305 -4.28556e-20 0.462758)
(-2.1372 -6.77939e-21 0.430413)
(-2.17849 -5.30248e-20 0.396818)
(-2.22751 6.50672e-21 0.361465)
(-2.28442 0 0.323569)
(-2.34774 -2.52141e-20 0.281763)
(-2.41464 4.68386e-20 0.234452)
(-2.48065 -2.13016e-20 0.180714)
(-2.54056 0 0.12102)
(-2.59022 1.78347e-20 0.0577057)
(-2.62772 -4.63025e-22 -0.00495026)
(-2.65504 4.58935e-22 -0.0612185)
(-2.67692 -1.89999e-21 -0.104333)
(-2.69529 -1.17267e-20 -0.129192)
(-2.70459 0 -0.138864)
(10.0008 -3.86711e-19 0.104036)
(9.98621 -3.98676e-19 0.208703)
(9.96254 -5.18624e-19 0.312072)
(9.9332 1.07797e-19 0.415249)
(9.89769 1.12356e-19 0.520035)
(9.85597 -3.48348e-19 0.628068)
(9.80848 2.41355e-19 0.740691)
(9.75565 -7.46419e-19 0.859239)
(9.69805 0 0.985125)
(9.63629 5.31196e-19 1.11969)
(9.57085 -1.36503e-19 1.2642)
(9.50216 5.67085e-19 1.42011)
(9.43105 -1.31063e-18 1.58898)
(9.35828 -4.50319e-19 1.77245)
(9.28486 4.57845e-19 1.97239)
(9.21192 0 2.19084)
(9.14045 -1.28114e-18 2.43009)
(9.07222 2.60259e-18 2.69294)
(9.00938 3.30739e-19 2.98265)
(8.95408 -2.65523e-18 3.30301)
(8.9098 1.33449e-18 3.65873)
(8.88068 6.53013e-19 4.05542)
(8.87241 6.42586e-19 4.50039)
(8.89138 0 5.00297)
(8.94924 0 5.57606)
(9.05386 0 6.23957)
(9.25805 -2.11311e-18 7.0049)
(9.46427 1.88248e-18 7.94555)
(10.4554 -1.08854e-18 8.92671)
(11.4174 2.73602e-19 11.9475)
(10.0013 -2.34087e-20 0.107935)
(9.98793 4.61171e-19 0.216585)
(9.96657 4.85785e-20 0.323871)
(9.94035 -3.12859e-19 0.430916)
(9.90865 0 0.53955)
(9.8717 2.2543e-19 0.651418)
(9.82991 2.33397e-19 0.767864)
(9.78361 2.41407e-19 0.890223)
(9.73342 0 1.01991)
(9.68011 -5.12789e-19 1.15822)
(9.6242 -2.65416e-19 1.30644)
(9.56613 2.70555e-19 1.46596)
(9.50696 2.77837e-19 1.63826)
(9.44757 2.88233e-19 1.82487)
(9.38907 -5.86994e-19 2.02762)
(9.33282 8.95063e-19 2.24854)
(9.28001 -1.52005e-18 2.48971)
(9.23268 1.23576e-18 2.75366)
(9.1932 0 3.04337)
(9.16438 -3.09794e-19 3.36233)
(9.15023 0 3.71458)
(9.15546 7.24401e-21 4.10485)
(9.18656 -6.18162e-19 4.53931)
(9.25148 1.1605e-18 5.02548)
(9.36386 -1.1521e-18 5.57307)
(9.53589 0 6.19441)
(9.81945 0 6.89292)
(10.1424 0 7.6891)
(10.8659 7.617e-19 8.48652)
(11.6635 3.92665e-19 9.69864)
(10.0018 -2.27013e-20 0.111483)
(9.98976 2.34768e-20 0.223748)
(9.97083 -3.91603e-19 0.334609)
(9.94789 -4.06488e-19 0.4452)
(9.92019 0 0.5573)
(9.88817 0 0.672532)
(9.85229 0 0.79229)
(9.81275 0 0.917934)
(9.7702 0 1.05083)
(9.72559 2.13046e-21 1.19222)
(9.67939 -2.53058e-19 1.34335)
(9.63221 -2.62615e-19 1.50556)
(9.58533 -2.69524e-19 1.68022)
(9.53951 2.72605e-19 1.86874)
(9.49598 2.78229e-19 2.0729)
(9.45639 8.53562e-19 2.29459)
(9.42218 -8.67141e-19 2.53565)
(9.39559 1.1697e-18 2.79828)
(9.37901 -2.35922e-18 3.08498)