/*--------------------------------*- C++ -*----------------------------------*\
| =========                 |                                                 |
| \\      /  F ield         | OpenFOAM: The Open Source CFD Toolbox           |
|  \\    /   O peration     | Version:  dev                                   |
|   \\  /    A nd           | Web:      www.OpenFOAM.org                      |
|    \\/     M anipulation  |                                                 |
\*---------------------------------------------------------------------------*/
FoamFile
{
    version     2.0;
    format      ascii;
    class       surfaceScalarField;
    location    "3.43";
    object      meshPhi;
}
// * * * * * * * * * * * * * * * * * * * * * * * * * * * * * * * * * * * * * //

dimensions      [0 3 -1 0 0 0 0];

internalField   nonuniform List<scalar> 
5457
(
1.73812e-07
1.45835e-08
8.68001e-07
3.96779e-08
2.42758e-06
5.61373e-08
4.96542e-06
6.23927e-08
8.39102e-06
5.81414e-08
1.247e-05
4.37966e-08
1.68777e-05
2.04658e-08
2.12497e-05
-1.00293e-08
2.5227e-05
-4.51767e-08
2.84941e-05
-8.18862e-08
3.08086e-05
-1.16715e-07
3.20212e-05
-1.46199e-07
3.20847e-05
-1.67266e-07
3.10515e-05
-1.77655e-07
2.90613e-05
-1.76284e-07
2.63192e-05
-1.63469e-07
2.30698e-05
-1.40941e-07
1.9568e-05
-1.11618e-07
1.60532e-05
-7.91587e-08
1.27294e-05
-4.73758e-08
9.66972e-06
-2.07349e-08
6.941e-06
-2.40578e-09
4.6909e-06
8.24575e-09
2.9665e-06
1.29269e-08
1.72164e-06
1.29548e-08
8.87383e-07
1.01304e-08
3.82763e-07
6.33589e-09
1.22909e-07
3.05641e-09
2.40874e-08
1.0539e-09
1.87993e-10
9.21525e-08
2.94761e-08
7.26622e-07
8.02243e-08
2.24999e-06
1.13609e-07
4.77205e-06
1.26506e-07
8.20082e-06
1.18302e-07
1.22996e-05
8.97943e-08
1.67406e-05
4.31603e-08
2.11559e-05
-1.79931e-08
2.51822e-05
-8.86656e-08
2.84995e-05
-1.62679e-07
3.08612e-05
-2.33121e-07
3.21144e-05
-2.93006e-07
3.22087e-05
-3.36097e-07
3.1195e-05
-3.57767e-07
2.92124e-05
-3.5574e-07
2.64673e-05
-3.3056e-07
2.32059e-05
-2.85634e-07
1.96859e-05
-2.26797e-07
1.61489e-05
-1.61428e-07
1.27995e-05
-9.7261e-08
9.72354e-06
-4.33022e-08
6.9833e-06
-6.0225e-09
4.71807e-06
1.56787e-08
2.98333e-06
2.52656e-08
1.73137e-06
2.5478e-08
8.92457e-07
1.99461e-08
3.85008e-07
1.2459e-08
1.23675e-07
5.99023e-09
2.42667e-08
2.04707e-09
3.73149e-10
-1.00537e-08
4.4826e-08
5.43995e-07
1.22062e-07
2.01039e-06
1.73078e-07
4.49665e-06
1.9321e-07
7.90956e-06
1.81531e-07
1.20109e-05
1.39189e-07
1.64709e-05
6.9383e-08
2.0919e-05
-2.25476e-08
2.49891e-05
-1.2916e-07
2.83574e-05
-2.41216e-07
3.07733e-05
-3.48324e-07
3.20796e-05
-4.39927e-07
3.22223e-05
-5.06533e-07
3.1249e-05
-5.41012e-07
2.92966e-05
-5.39742e-07
2.65705e-05
-5.03337e-07
2.33173e-05
-4.36756e-07
1.97956e-05
-3.4868e-07
1.62491e-05
-2.50201e-07
1.28839e-05
-1.53044e-07
9.79455e-06
-7.08744e-08
7.04141e-06
-1.3691e-08
4.76014e-06
1.9884e-08
3.01198e-06
3.51147e-08
1.74927e-06
3.6207e-08
9.02331e-07
2.85776e-08
3.89535e-07
1.78937e-08
1.25228e-07
8.59202e-09
2.4613e-08
2.91333e-09
5.33259e-10
-1.269e-07
6.077e-08
3.28576e-07
1.6559e-07
1.71759e-06
2.35185e-07
4.14658e-06
2.63368e-07
7.52155e-06
2.48896e-07
1.16037e-05
1.93235e-07
1.60627e-05
1.00546e-07
2.05274e-05
-2.21688e-08
2.46298e-05
-1.65098e-07
2.80442e-05
-3.15998e-07
3.05167e-05
-4.61026e-07
3.1886e-05
-5.8603e-07
3.20937e-05
-6.78176e-07
3.11828e-05
-7.27686e-07
2.92862e-05
-7.29395e-07
2.66058e-05
-6.83766e-07
2.33863e-05
-5.971e-07
1.98855e-05
-4.80757e-07
1.63478e-05
-3.49452e-07
1.29814e-05
-2.18894e-07
9.88371e-06
-1.07524e-07
7.11713e-06
-2.91369e-08
4.81953e-06
1.7717e-08
3.05464e-06
4.00461e-08
1.77689e-06
4.34335e-08
9.17945e-07
3.49537e-08
3.968e-07
2.20641e-08
1.27725e-07
1.06155e-08
2.51539e-08
3.58436e-09
6.55143e-10
-2.75737e-07
7.74914e-08
5.14531e-08
2.11339e-07
1.33769e-06
3.0078e-07
3.68838e-06
3.38123e-07
7.00859e-06
3.21813e-07
1.1059e-05
2.53591e-07
1.55092e-05
1.38512e-07
1.99872e-05
-1.48562e-08
2.41242e-05
-1.94436e-07
2.75921e-05
-3.8507e-07
3.01337e-05
-5.6952e-07
3.15831e-05
-7.30035e-07
3.18763e-05
-8.50359e-07
3.10505e-05
-9.17904e-07
2.92327e-05
-9.25721e-07
2.66204e-05
-8.73836e-07
2.34544e-05
-7.69592e-07
1.99911e-05
-6.26774e-07
1.64744e-05
-4.63548e-07
1.31143e-05
-2.99553e-07
1.0009e-05
-1.58009e-07
7.2248e-06
-5.66676e-08
4.9048e-06
5.63777e-09
3.11622e-06
3.73705e-08
1.81685e-06
4.52801e-08
9.40526e-07
3.78971e-08
4.07292e-07
2.43332e-08
1.3132e-07
1.17863e-08
2.59196e-08
3.98096e-09
7.25229e-10
-4.57733e-07
9.51804e-08
-2.88918e-07
2.59859e-07
8.68958e-07
3.70744e-07
3.12008e-06
4.18669e-07
6.36835e-06
4.01775e-07
1.0374e-05
3.2204e-07
1.48065e-05
1.85328e-07
1.92939e-05
1.65243e-09
2.34666e-05
-2.14777e-07
2.69946e-05
-4.46019e-07
2.96171e-05
-6.71536e-07
3.11633e-05
-8.7001e-07
3.15626e-05
-1.0217e-06
3.08452e-05
-1.11106e-06
2.91309e-05
-1.12908e-06
2.66108e-05
-1.075e-06
2.35207e-05
-9.56828e-07
2.01138e-05
-7.9042e-07
1.66329e-05
-5.97112e-07
1.3289e-05
-4.00342e-07
1.01784e-05
-2.27889e-07
7.37111e-06
-1.01398e-07
5.02036e-06
-2.05575e-08
3.19942e-06
2.39038e-08
1.87058e-06
3.95281e-08
9.70705e-07
3.60214e-08
4.2121e-07
2.39558e-08
1.36045e-07
1.17839e-08
2.69102e-08
4.00527e-09
7.26743e-10
-6.73929e-07
1.14033e-07
-6.94046e-07
3.11717e-07
3.0969e-07
4.45988e-07
2.43976e-06
5.0625e-07
5.59848e-06
4.90361e-07
9.54547e-06
4.00498e-07
1.39505e-05
2.4324e-07
1.8442e-05
2.99096e-08
2.26502e-05
-2.2332e-07
2.62434e-05
-4.95898e-07
2.89575e-05
-7.64129e-07
3.06162e-05
-1.00321e-06
3.1142e-05
-1.18991e-06
3.05566e-05
-1.30556e-06
2.89715e-05
-1.33882e-06
2.65694e-05
-1.28779e-06
2.35798e-05
-1.16067e-06
2.02509e-05
-9.749e-07
1.68233e-05
-7.54578e-07
1.35084e-05
-5.26705e-07
1.03962e-05
-3.23096e-07
7.55959e-06
-1.68892e-07
5.16812e-06
-6.54532e-08
3.30497e-06
-3.81844e-09
1.93812e-06
2.37709e-08
1.00817e-06
2.78325e-08
4.38235e-07
2.01365e-08
1.41722e-07
1.02688e-08
2.80722e-08
3.55013e-09
6.42545e-10
-9.25445e-07
1.34251e-07
-1.1656e-06
3.67495e-07
-3.4193e-07
5.27448e-07
1.64544e-06
6.02149e-07
4.69655e-06
5.89215e-07
8.57026e-06
4.90995e-07
1.29368e-05
3.14684e-07
1.74256e-05
7.27587e-08
2.16672e-05
-2.16843e-07
2.53288e-05
-5.31176e-07
2.81432e-05
-8.43592e-07
2.99287e-05
-1.12595e-06
3.06002e-05
-1.35155e-06
3.01702e-05
-1.49853e-06
2.874e-05
-1.55297e-06
2.64828e-05
-1.51139e-06
2.36199e-05
-1.38171e-06
2.03932e-05
-1.18234e-06
1.70385e-05
-9.39516e-07
1.37673e-05
-6.83353e-07
1.06595e-05
-4.48949e-07
7.7881e-06
-2.64358e-07
5.34568e-06
-1.33506e-07
3.43038e-06
-4.92165e-08
2.01724e-06
-4.36907e-09
1.05122e-06
1.18596e-08
4.57302e-07
1.20985e-08
1.47876e-07
6.913e-09
2.92753e-08
2.5122e-09
4.56397e-10
-1.21355e-06
1.56038e-07
-1.7054e-06
4.27782e-07
-1.08771e-06
6.16069e-07
7.35333e-07
7.07665e-07
3.66042e-06
7.0002e-07
7.4453e-06
5.95642e-07
1.1761e-05
4.02248e-07
1.62383e-05
1.33301e-07
2.05088e-05
-1.91721e-07
2.42395e-05
-5.47742e-07
2.71604e-05
-9.05419e-07
2.90846e-05
-1.23348e-06
2.99191e-05
-1.5019e-06
2.96661e-05
-1.68557e-06
2.84158e-05
-1.76781e-06
2.63301e-05
-1.74311e-06
2.3621e-05
-1.61843e-06
2.05222e-05
-1.41253e-06
1.72627e-05
-1.15331e-06
1.40519e-05
-8.733e-07
1.0955e-05
-6.0947e-07
8.04462e-06
-3.91792e-07
5.54361e-06
-2.28128e-07
3.56894e-06
-1.15065e-07
2.10295e-06
-4.69583e-08
1.09638e-06
-1.3215e-08
4.76451e-07
-8.55302e-10
1.53685e-07
1.42438e-09
3.02966e-08
8.02215e-10
1.53597e-10
-1.53973e-06
1.79599e-07
-2.31545e-06
4.93164e-07
-1.92929e-06
7.12782e-07
-2.91924e-07
8.24081e-07
2.48851e-06
8.24455e-07
6.16814e-06
7.16578e-07
1.04189e-05
5.08607e-07
1.48737e-05
2.14826e-07
1.9166e-05
-1.44e-07
2.29633e-05
-5.40961e-07
2.59936e-05
-9.44339e-07
2.8065e-05
-1.32002e-06
2.90764e-05
-1.63486e-06
2.90196e-05
-1.86057e-06
2.79721e-05
-1.97755e-06
2.60837e-05
-1.97782e-06
2.35555e-05
-1.86664e-06
2.06105e-05
-1.66265e-06
1.74694e-05
-1.39474e-06
1.43377e-05
-1.09708e-06
1.12593e-05
-8.06662e-07
8.30766e-06
-5.53678e-07
5.74469e-06
-3.51552e-07
3.70809e-06
-2.03238e-07
2.18667e-06
-1.05513e-07
1.13828e-06
-4.84497e-08
4.92777e-07
-1.93205e-08
1.57948e-07
-6.45729e-09
3.08051e-08
-1.6592e-09
-2.78854e-10
-1.90587e-06
2.05139e-07
-2.998e-06
5.64219e-07
-2.86801e-06
8.18493e-07
-1.43694e-06
9.52627e-07
1.18022e-06
9.64134e-07
4.73737e-06
8.5589e-07
8.90749e-06
6.36431e-07
1.33263e-05
3.20694e-07
1.76302e-05
-6.95196e-08
2.14878e-05
-5.05802e-07
2.46261e-05
-9.54431e-07
2.68487e-05
-1.37882e-06
2.80469e-05
-1.74298e-06
2.82014e-05
-2.01562e-06
2.73766e-05
-2.17412e-06
2.57101e-05
-2.20761e-06
2.33887e-05
-2.11944e-06
2.06213e-05
-1.92735e-06
1.76205e-05
-1.66003e-06
1.45871e-05
-1.35238e-06
1.15394e-05
-1.03959e-06
8.5507e-06
-7.50273e-07
5.92644e-06
-5.04658e-07
3.82977e-06
-3.14689e-07
2.25641e-06
-1.80924e-07
1.16985e-06
-9.46417e-08
5.02416e-07
-4.38692e-08
1.59034e-07
-1.70303e-08
3.03097e-08
-4.97916e-09
-8.65494e-10
-2.31444e-06
2.3286e-07
-3.75575e-06
6.41512e-07
-3.90472e-06
9.3405e-07
-2.69926e-06
1.09443e-06
-2.63649e-07
1.12054e-06
3.15309e-06
1.01552e-06
7.22523e-06
7.88261e-07
1.1592e-05
4.542e-07
1.58936e-05
3.59159e-08
1.98011e-05
-4.37037e-07
2.30412e-05
-9.2934e-07
2.54139e-05
-1.40235e-06
2.68033e-05
-1.81764e-06
2.71794e-05
-2.14115e-06
2.65935e-05
-2.34723e-06
2.51691e-05
-2.42211e-06
2.30757e-05
-2.36697e-06
2.05074e-05
-2.19767e-06
1.76687e-05
-1.94152e-06
1.47533e-05
-1.63303e-06
1.1754e-05
-1.30363e-06
8.74068e-06
-9.78631e-07
6.06283e-06
-6.8605e-07
3.91399e-06
-4.49121e-07
2.29805e-06
-2.73533e-07
1.18208e-06
-1.5247e-07
5.00316e-07
-7.52313e-08
1.5462e-07
-3.08146e-08
2.79796e-08
-9.39846e-09
-1.66851e-09
-2.76894e-06
2.6297e-07
-4.59217e-06
7.25599e-07
-5.03949e-06
1.06023e-06
-4.07696e-06
1.25048e-06
-1.84047e-06
1.29495e-06
1.41744e-06
1.19718e-06
5.37259e-06
9.66376e-07
9.66852e-06
6.18386e-07
1.39503e-05
1.76317e-07
1.78926e-05
-3.29498e-07
2.1223e-05
-8.62579e-07
2.37389e-05
-1.3827e-06
2.53177e-05
-1.84943e-06
2.59195e-05
-2.22634e-06
2.55829e-05
-2.48497e-06
2.4414e-05
-2.60876e-06
2.25649e-05
-2.59627e-06
2.02164e-05
-2.46071e-06
1.75614e-05
-2.22709e-06
1.47851e-05
-1.92828e-06
1.18558e-05
-1.59002e-06
8.83887e-06
-1.23242e-06
6.12518e-06
-8.91888e-07
3.93981e-06
-6.04861e-07
2.29558e-06
-3.83262e-07
1.16364e-06
-2.22804e-07
4.79507e-07
-1.14673e-07
1.40885e-07
-4.89397e-08
2.20883e-08
-1.55545e-08
-2.87346e-09
-3.27433e-06
2.95688e-07
-5.51195e-06
8.17049e-07
-6.27125e-06
1.19774e-06
-5.56629e-06
1.42154e-06
-3.54539e-06
1.48837e-06
-4.64976e-07
1.40219e-06
3.3527e-06
1.17262e-06
7.55629e-06
8.15842e-07
1.1797e-05
3.55248e-07
1.57545e-05
-1.78404e-07
1.91582e-05
-7.47913e-07
2.18039e-05
-1.31196e-06
2.35637e-05
-1.82865e-06
2.43883e-05
-2.25965e-06
2.43036e-05
-2.57415e-06
2.33979e-05
-2.75289e-06
2.1806e-05
-2.79154e-06
1.96948e-05
-2.70018e-06
1.72444e-05
-2.50077e-06
1.46297e-05
-2.22339e-06
1.17972e-05
-1.88618e-06
8.80616e-06
-1.5022e-06
6.0835e-06
-1.11607e-06
3.88432e-06
-7.78796e-07
2.2311e-06
-5.09438e-07
1.10063e-06
-3.06796e-07
4.29334e-07
-1.64406e-07
1.10257e-07
-7.37907e-08
8.38881e-09
-2.51163e-08
-5.05871e-09
-3.78877e-06
3.29234e-07
-6.49236e-06
9.13515e-07
-7.60578e-06
1.34706e-06
-7.16776e-06
1.60978e-06
-5.37839e-06
1.70312e-06
-2.49483e-06
1.63326e-06
1.16301e-06
1.41018e-06
5.24985e-06
1.05038e-06
9.42453e-06
5.77375e-07
1.33731e-05
2.1963e-08
1.6828e-05
-5.78356e-07
1.95847e-05
-1.18166e-06
2.15107e-05
-1.74511e-06
2.25483e-05
-2.22904e-06
2.27118e-05
-2.60084e-06
2.20719e-05
-2.839e-06
2.07463e-05
-2.93615e-06
1.8888e-05
-2.89891e-06
1.66633e-05
-2.74567e-06
1.4236e-05
-2.5028e-06
1.15332e-05
-2.17922e-06
8.60594e-06
-1.77858e-06
5.90862e-06
-1.35284e-06
3.7237e-06
-9.68255e-07
2.08456e-06
-6.5197e-07
9.74711e-07
-4.06572e-07
3.3126e-07
-2.28316e-07
4.35936e-08
-1.103e-07
-3.06689e-08
-4.31277e-08
-1.03282e-08
-7.61753e-08
5.79568e-10
-3.93699e-07
3.63541e-09
-1.26033e-06
1.37343e-08
-2.98256e-06
3.72971e-08
-5.83506e-06
8.21884e-08
-1.00213e-05
1.57174e-07
-1.56454e-05
2.71022e-07
-2.27003e-05
4.31306e-07
-3.10726e-05
6.43353e-07
-3.99538e-05
8.93214e-07
-4.86231e-05
1.1501e-06
-5.71382e-05
1.40277e-06
-6.54005e-05
1.65284e-06
-7.31143e-05
1.89251e-06
-8.00008e-05
2.11074e-06
-8.58076e-05
2.29827e-06
-9.03155e-05
2.44838e-06
-9.33441e-05
2.55702e-06
-9.47555e-05
2.6224e-06
-9.4458e-05
2.64437e-06
-9.24057e-05
2.62352e-06
-8.8595e-05
2.56043e-06
-8.30571e-05
2.45498e-06
-7.58458e-05
2.30593e-06
-6.70232e-05
2.11072e-06
-5.66436e-05
1.8654e-06
-4.47386e-05
1.5648e-06
-3.1304e-05
1.20265e-06
-1.62851e-05
7.71617e-07
2.70663e-07
-7.72146e-08
1.13025e-09
-3.98944e-07
7.28114e-09
-1.27528e-06
2.73342e-08
-3.01314e-06
7.41474e-08
-5.88615e-06
1.63302e-07
-1.00953e-05
3.12146e-07
-1.57412e-05
5.38005e-07
-2.28114e-05
8.55739e-07
-3.11768e-05
1.2753e-06
-4.00886e-05
1.77047e-06
-4.87917e-05
2.28144e-06
-5.72948e-05
2.78368e-06
-6.55525e-05
3.28035e-06
-7.32636e-05
3.75722e-06
-8.01469e-05
4.19192e-06
-8.59489e-05
4.56596e-06
-9.04494e-05
4.86587e-06
-9.34671e-05
5.08352e-06
-9.48643e-05
5.2153e-06
-9.45496e-05
5.26078e-06
-9.24781e-05
5.22105e-06
-8.86478e-05
5.09712e-06
-8.3091e-05
4.88866e-06
-7.58631e-05
4.59311e-06
-6.70274e-05
4.20524e-06
-5.66391e-05
3.71718e-06
-4.47298e-05
3.11859e-06
-3.12951e-05
2.39698e-06
-1.62794e-05
1.53785e-06
5.39392e-07
-7.8175e-08
1.67953e-09
-4.03617e-07
1.08775e-08
-1.28765e-06
4.05302e-08
-3.03568e-06
1.09701e-07
-5.9178e-06
2.41282e-07
-1.01304e-05
4.60717e-07
-1.57698e-05
7.93366e-07
-2.28203e-05
1.26082e-06
-3.11514e-05
1.87697e-06
-4.00524e-05
2.60546e-06
-4.8747e-05
3.36094e-06
-5.72203e-05
4.10484e-06
-6.54614e-05
4.8411e-06
-7.31664e-05
5.54982e-06
-8.0051e-05
6.19751e-06
-8.58586e-05
6.75644e-06
-9.03665e-05
7.20639e-06
-9.33912e-05
7.53498e-06
-9.47938e-05
7.7365e-06
-9.44826e-05
7.80995e-06
-9.2413e-05
7.75656e-06
-8.85838e-05
7.57752e-06
-8.30283e-05
7.27201e-06
-7.5803e-05
6.83598e-06
-6.69718e-05
6.26153e-06
-5.65902e-05
5.53681e-06
-4.469e-05
4.64641e-06
-3.12668e-05
3.57184e-06
-1.62645e-05
2.29168e-06
8.03762e-07
-7.8807e-08
2.21395e-09
-4.06435e-07
1.43178e-08
-1.29375e-06
5.30219e-08
-3.04238e-06
1.43119e-07
-5.91646e-06
3.14185e-07
-1.01062e-05
5.99038e-07
-1.57038e-05
1.03034e-06
-2.26941e-05
1.63575e-06
-3.09552e-05
2.43263e-06
-3.97933e-05
3.37663e-06
-4.84356e-05
4.36107e-06
-5.68673e-05
5.33455e-06
-6.50852e-05
6.30049e-06
-7.27849e-05
7.23333e-06
-7.9679e-05
8.08889e-06
-8.55065e-05
8.83042e-06
-9.00402e-05
9.43087e-06
-9.30934e-05
9.87335e-06
-9.45247e-05
1.01497e-05
-9.42412e-05
1.02578e-05
-9.21981e-05
1.01985e-05
-8.83941e-05
9.97286e-06
-8.28632e-05
9.57916e-06
-7.56618e-05
9.01168e-06
-6.68543e-05
8.25971e-06
-5.64962e-05
7.30751e-06
-4.46192e-05
6.13474e-06
-3.12192e-05
4.71717e-06
-1.62404e-05
3.02685e-06
1.06162e-06
-7.93597e-08
2.71579e-09
-4.08655e-07
1.75094e-08
-1.29735e-06
6.45753e-08
-3.04167e-06
1.73814e-07
-5.89789e-06
3.80731e-07
-1.00488e-05
7.24684e-07
-1.55825e-05
1.2448e-06
-2.24854e-05
1.97409e-06
-3.06439e-05
2.93295e-06
-3.93873e-05
4.07114e-06
-4.79597e-05
5.26558e-06
-5.63449e-05
6.45385e-06
-6.45395e-05
7.63737e-06
-7.22383e-05
8.78459e-06
-7.91498e-05
9.84126e-06
-8.50075e-05
1.07619e-05
-8.95791e-05
1.15127e-05
-9.26734e-05
1.20721e-05
-9.41463e-05
1.24288e-05
-9.39032e-05
1.25792e-05
-9.18989e-05
1.25234e-05
-8.8132e-05
1.22613e-05
-8.26368e-05
1.17902e-05
-7.54699e-05
1.11023e-05
-6.66959e-05
1.01841e-05
-5.63703e-05
9.01595e-06
-4.45251e-05
7.57275e-06
-3.11561e-05
5.82486e-06
-1.62086e-05
3.73828e-06
1.31122e-06
-7.98648e-08
3.1753e-09
-4.10468e-07
2.04042e-08
-1.29896e-06
7.50554e-08
-3.03456e-06
2.01459e-07
-5.8641e-06
4.40251e-07
-9.96186e-06
8.36441e-07
-1.54118e-05
1.43472e-06
-2.22026e-05
2.27269e-06
-3.02294e-05
3.37331e-06
-3.88521e-05
4.68257e-06
-4.73413e-05
6.06596e-06
-5.56769e-05
7.45214e-06
-6.38495e-05
8.83907e-06
-7.15518e-05
1.01888e-05
-7.84872e-05
1.14379e-05
-8.43834e-05
1.25326e-05
-8.90021e-05
1.34326e-05
-9.21473e-05
1.41111e-05
-9.36716e-05
1.45537e-05
-9.3479e-05
1.47545e-05
-9.15233e-05
1.47119e-05
-8.78034e-05
1.44247e-05
-8.23534e-05
1.38882e-05
-7.52304e-05
1.30926e-05
-6.64988e-05
1.20211e-05
-5.62141e-05
1.06504e-05
-4.44085e-05
8.9508e-06
-3.10782e-05
6.88765e-06
-1.61692e-05
4.42139e-06
1.55096e-06
-8.03643e-08
3.58885e-09
-4.12148e-07
2.30049e-08
-1.29937e-06
8.44522e-08
-3.02289e-06
2.26048e-07
-5.81894e-06
4.92795e-07
-9.85232e-06
9.34468e-07
-1.52024e-05
1.60033e-06
-2.18612e-05
2.53179e-06
-2.97334e-05
3.75399e-06
-3.82156e-05
5.211e-06
-4.66127e-05
6.76143e-06
-5.48979e-05
8.32713e-06
-6.30504e-05
9.90139e-06
-7.07593e-05
1.14398e-05
-7.77228e-05
1.28705e-05
-8.36623e-05
1.41322e-05
-8.83333e-05
1.51782e-05
-9.1535e-05
1.5977e-05
-9.3117e-05
1.65101e-05
-9.29813e-05
1.67689e-05
-9.10813e-05
1.67496e-05
-8.74157e-05
1.64487e-05
-8.20187e-05
1.58596e-05
-7.49474e-05
1.49697e-05
-6.62658e-05
1.37591e-05
-5.60296e-05
1.22007e-05
-4.42708e-05
1.02605e-05
-3.09861e-05
7.8992e-06
-1.61228e-05
5.07213e-06
1.77943e-06
-8.09551e-08
3.96087e-09
-4.14218e-07
2.53629e-08
-1.30012e-06
9.29054e-08
-3.01016e-06
2.47954e-07
-5.7697e-06
5.39239e-07
-9.73288e-06
1.02042e-06
-1.49731e-05
1.74407e-06
-2.14871e-05
2.75461e-06
-2.91904e-05
4.07929e-06
-3.752e-05
5.6617e-06
-4.58199e-05
7.35721e-06
-5.4054e-05
9.08306e-06
-6.21869e-05
1.08275e-05
-6.9903e-05
1.25391e-05
-7.68947e-05
1.41384e-05
-8.28775e-05
1.55578e-05
-8.76011e-05
1.67449e-05
-9.08602e-05
1.76632e-05
-9.25012e-05
1.82901e-05
-9.2425e-05
1.86134e-05
-9.05843e-05
1.86265e-05
-8.69776e-05
1.83232e-05
-8.16391e-05
1.76943e-05
-7.46254e-05
1.6724e-05
-6.60004e-05
1.53891e-05
-5.58192e-05
1.36588e-05
-4.41136e-05
1.14951e-05
-3.0881e-05
8.85419e-06
-1.60697e-05
5.6871e-06
1.99544e-06
-8.18315e-08
4.30682e-09
-4.17622e-07
2.75716e-08
-1.30387e-06
1.00713e-07
-3.00209e-06
2.67912e-07
-5.72651e-06
5.8096e-07
-9.61992e-06
1.09647e-06
-1.4749e-05
1.86947e-06
-2.11165e-05
2.9469e-06
-2.86482e-05
4.35754e-06
-3.68223e-05
6.04536e-06
-4.50253e-05
7.86541e-06
-5.3208e-05
9.73206e-06
-6.13163e-05
1.16277e-05
-6.90325e-05
1.34945e-05
-7.60461e-05
1.52474e-05
-8.20667e-05
1.68133e-05
-8.68372e-05
1.81343e-05
-9.01485e-05
1.91693e-05
-9.1845e-05
1.98913e-05
-9.18262e-05
2.02842e-05
-9.00446e-05
2.03376e-05
-8.64984e-05
2.00424e-05
-8.12214e-05
1.93857e-05
-7.42696e-05
1.83486e-05
-6.57061e-05
1.69044e-05
-5.55852e-05
1.50185e-05
-4.39386e-05
1.26491e-05
-3.07638e-05
9.7484e-06
-1.60105e-05
6.26354e-06
2.19801e-06
-8.33443e-08
4.64536e-09
-4.23983e-07
2.97645e-08
-1.31497e-06
1.08345e-07
-3.00751e-06
2.87087e-07
-5.70261e-06
6.2004e-07
-9.5318e-06
1.16577e-06
-1.45591e-05
1.98175e-06
-2.07916e-05
3.11719e-06
-2.81612e-05
4.60111e-06
-3.6186e-05
6.37775e-06
-4.42969e-05
8.30367e-06
-5.24287e-05
1.02914e-05
-6.05039e-05
1.23175e-05
-6.82056e-05
1.43197e-05
-7.52249e-05
1.62093e-05
-8.12692e-05
1.79083e-05
-8.60744e-05
1.93539e-05
-8.9427e-05
2.05005e-05
-9.11697e-05
2.13168e-05
-9.12017e-05
2.17822e-05
-8.94751e-05
2.18824e-05
-8.59879e-05
2.1604e-05
-8.0773e-05
2.09307e-05
-7.38854e-05
1.98397e-05
-6.53868e-05
1.83008e-05
-5.53306e-05
1.62756e-05
-4.37476e-05
1.37186e-05
-3.06356e-05
1.05787e-05
-1.59457e-05
6.79936e-06
2.3864e-06
-8.61236e-08
5.00428e-09
-4.36067e-07
3.21234e-08
-1.34028e-06
1.16452e-07
-3.03896e-06
3.06922e-07
-5.71756e-06
6.59249e-07
-9.49626e-06
1.2334e-06
-1.44407e-05
2.08886e-06
-2.056e-05
3.27644e-06
-2.77869e-05
4.82451e-06
-3.56744e-05
6.67679e-06
-4.36964e-05
8.69123e-06
-5.17744e-05
1.07799e-05
-5.98082e-05
1.29156e-05
-6.74806e-05
1.50329e-05
-7.44825e-05
1.70403e-05
-8.05254e-05
1.88564e-05
-8.53452e-05
2.0415e-05
-8.87219e-05
2.16663e-05
-9.04963e-05
2.2574e-05
-9.05679e-05
2.31128e-05
-8.88886e-05
2.32638e-05
-8.54558e-05
2.30094e-05
-8.03012e-05
2.23291e-05
-7.34781e-05
2.11961e-05
-6.50465e-05
1.95762e-05
-5.5058e-05
1.74276e-05
-4.35424e-05
1.47013e-05
-3.04977e-05
1.13429e-05
-1.58758e-05
7.2931e-06
2.56009e-06
-9.14225e-08
5.4145e-09
-4.58806e-07
3.49246e-08
-1.39072e-06
1.25989e-07
-3.11404e-06
3.29378e-07
-5.79795e-06
7.02054e-07
-9.55143e-06
1.30515e-06
-1.44403e-05
2.19939e-06
-2.0475e-05
3.43621e-06
-2.75869e-05
5.04296e-06
-3.53529e-05
6.96097e-06
-4.32842e-05
9.048e-06
-5.12984e-05
1.12176e-05
-5.92767e-05
1.34418e-05
-6.69023e-05
1.56533e-05
-7.38629e-05
1.77587e-05
-7.98744e-05
1.96747e-05
-8.46804e-05
2.1333e-05
-8.80579e-05
2.26798e-05
-8.98442e-05
2.36736e-05
-8.99399e-05
2.42841e-05
-8.82969e-05
2.4488e-05
-8.49112e-05
2.42628e-05
-7.98129e-05
2.35833e-05
-7.3053e-05
2.24186e-05
-6.4689e-05
2.07305e-05
-5.47702e-05
1.84736e-05
-4.3325e-05
1.55958e-05
-3.0351e-05
1.20398e-05
-1.58013e-05
7.74384e-06
2.71872e-06
-1.02221e-07
5.94247e-09
-5.0186e-07
3.87153e-08
-1.48487e-06
1.38565e-07
-3.25972e-06
3.5744e-07
-5.97822e-06
7.53023e-07
-9.73911e-06
1.38724e-06
-1.46063e-05
2.32158e-06
-2.05916e-05
3.60775e-06
-2.76251e-05
5.27204e-06
-3.52857e-05
7.24928e-06
-4.31178e-05
9.393e-06
-5.10517e-05
1.1623e-05
-5.89529e-05
1.39151e-05
-6.65058e-05
1.62e-05
-7.33979e-05
1.83835e-05
-7.93476e-05
2.03818e-05
-8.4107e-05
2.21252e-05
-8.74558e-05
2.3556e-05
-8.92301e-05
2.46282e-05
-8.93312e-05
2.53068e-05
-8.77103e-05
2.55633e-05
-8.43622e-05
2.53702e-05
-7.93145e-05
2.46976e-05
-7.2615e-05
2.35099e-05
-6.43178e-05
2.17651e-05
-5.44697e-05
1.94141e-05
-4.30971e-05
1.6402e-05
-3.01967e-05
1.26689e-05
-1.57228e-05
8.15114e-06
2.86213e-06
-1.27497e-07
6.95261e-09
-5.86504e-07
4.49309e-08
-1.65597e-06
1.57203e-07
-3.51666e-06
3.95749e-07
-6.30236e-06
8.18258e-07
-1.0105e-05
1.48719e-06
-1.49868e-05
2.46451e-06
-2.09631e-05
3.80262e-06
-2.79687e-05
5.52947e-06
-3.55352e-05
7.56367e-06
-4.32415e-05
9.74459e-06
-5.10757e-05
1.20124e-05
-5.88746e-05
1.43541e-05
-6.63221e-05
1.6693e-05
-7.31121e-05
1.89349e-05
-7.89671e-05
2.09974e-05
-8.36446e-05
2.28096e-05
-8.69316e-05
2.43109e-05
-8.86669e-05
2.54517e-05
-8.87521e-05
2.61925e-05
-8.71375e-05
2.64993e-05
-8.38158e-05
2.63393e-05
-7.88113e-05
2.56775e-05
-7.21681e-05
2.44738e-05
-6.39363e-05
2.26823e-05
-5.4159e-05
2.02504e-05
-4.28602e-05
1.71204e-05
-3.00357e-05
1.32303e-05
-1.56405e-05
8.51488e-06
2.99022e-06
-2.12421e-07
1.393e-08
-7.79512e-07
5.9561e-08
-1.97832e-06
1.90955e-07
-3.95846e-06
4.55678e-07
-6.83992e-06
9.10887e-07
-1.07128e-05
1.619e-06
-1.56382e-05
2.64182e-06
-2.16434e-05
4.03416e-06
-2.86435e-05
5.81571e-06
-3.61082e-05
7.88725e-06
-4.36801e-05
1.00965e-05
-5.14032e-05
1.24006e-05
-5.90727e-05
1.47812e-05
-6.63762e-05
1.71564e-05
-7.30239e-05
1.94371e-05
-7.87458e-05
2.15452e-05
-8.33037e-05
2.34095e-05
-8.64941e-05
2.49675e-05
-8.81615e-05
2.61666e-05
-8.82077e-05
2.69623e-05
-8.65819e-05
2.73155e-05
-8.32742e-05
2.71878e-05
-7.8305e-05
2.6539e-05
-7.17134e-05
2.53244e-05
-6.35449e-05
2.3494e-05
-5.38382e-05
2.09923e-05
-4.26142e-05
1.77588e-05
-2.98678e-05
1.37298e-05
-1.55544e-05
8.8386e-06
3.10423e-06
-4.38782e-06
3.62072e-07
-7.71332e-06
1.01022e-06
-9.36102e-06
1.50444e-06
-9.24273e-06
1.81723e-06
-7.63781e-06
1.94437e-06
-4.86986e-06
1.89592e-06
-1.26327e-06
1.6852e-06
2.83063e-06
1.32889e-06
7.06751e-06
8.50407e-07
1.11297e-05
2.80177e-07
1.47438e-05
-3.44393e-07
1.76977e-05
-9.81199e-07
1.98505e-05
-1.58704e-06
2.11346e-05
-2.12146e-06
2.15524e-05
-2.55065e-06
2.11621e-05
-2.85127e-06
2.00698e-05
-3.0131e-06
1.84189e-05
-3.03928e-06
1.63677e-05
-2.94442e-06
1.40743e-05
-2.75085e-06
1.14458e-05
-2.457e-06
8.52021e-06
-2.05407e-06
5.78645e-06
-1.59874e-06
3.56422e-06
-1.17316e-06
1.9004e-06
-8.13856e-07
7.84805e-07
-5.27777e-07
1.52407e-07
-3.14114e-07
-1.12647e-07
-1.67157e-07
-1.59573e-07
-7.75826e-08
-3.18486e-08
-1.11552e-07
-4.87488e-06
3.95938e-07
-8.74451e-06
1.10744e-06
-1.10209e-05
1.66241e-06
-1.14193e-05
2.03576e-06
-1.01066e-05
2.21209e-06
-7.51943e-06
2.19422e-06
-4.04811e-06
2.00196e-06
-3.84105e-08
1.65649e-06
4.16977e-06
1.1805e-06
8.26185e-06
6.03452e-07
1.19623e-05
-3.76748e-08
1.50555e-05
-7.00898e-07
1.73947e-05
-1.34322e-06
1.89034e-05
-1.924e-06
1.95721e-05
-2.40873e-06
1.94476e-05
-2.77259e-06
1.86244e-05
-3.00293e-06
1.72332e-05
-3.09979e-06
1.54227e-05
-3.07446e-06
1.33437e-05
-2.94596e-06
1.08882e-05
-2.70288e-06
8.06192e-06
-2.31872e-06
5.36757e-06
-1.84826e-06
3.16607e-06
-1.39133e-06
1.51567e-06
-9.96527e-07
4.11468e-07
-6.74772e-07
-2.12495e-07
-4.2809e-07
-4.72686e-07
-2.51592e-07
-5.20348e-07
-1.35606e-07
-6.71981e-08
-5.17704e-07
-5.37552e-06
4.32058e-07
-9.72461e-06
1.20959e-06
-1.2565e-05
1.82208e-06
-1.36251e-05
2.25411e-06
-1.28252e-05
2.49329e-06
-1.05069e-05
2.52593e-06
-7.19848e-06
2.36329e-06
-3.31123e-06
2.03618e-06
8.31446e-07
1.57181e-06
4.92144e-06
9.97071e-07
8.6795e-06
3.48313e-07
1.18876e-05
-3.32641e-07
1.43941e-05
-1.00358e-06
1.61146e-05
-1.62433e-06
1.7029e-05
-2.16014e-06
1.71733e-05
-2.58511e-06
1.66308e-05
-2.8846e-06
1.55206e-05
-3.0561e-06
1.39838e-05
-3.10853e-06
1.21693e-05
-3.05996e-06
9.97326e-06
-2.89655e-06
7.3074e-06
-2.56306e-06
4.66988e-06
-2.09372e-06
2.50458e-06
-1.61507e-06
8.67409e-07
-1.19467e-06
-2.40662e-07
-8.44156e-07
-8.87187e-07
-5.68644e-07
-1.19055e-06
-3.63774e-07
-1.30762e-06
-2.20106e-07
-1.25073e-07
-1.40045e-06
-5.92343e-06
4.70176e-07
-1.07682e-05
1.31804e-06
-1.40789e-05
1.99028e-06
-1.5727e-05
2.4752e-06
-1.56082e-05
2.77381e-06
-1.3794e-05
2.87426e-06
-1.0739e-05
2.76595e-06
-7.01057e-06
2.47125e-06
-2.97584e-06
2.02815e-06
1.07769e-06
1.46572e-06
4.86006e-06
8.19169e-07
8.15297e-06
1.3071e-07
1.08017e-05
-5.59094e-07
1.27149e-05
-1.2111e-06
1.38634e-05
-1.79076e-06
1.42726e-05
-2.27152e-06
1.40144e-05
-2.63708e-06
1.31973e-05
-2.88264e-06
1.19554e-05
-3.01489e-06
1.04408e-05
-3.05163e-06
8.58107e-06
-2.98182e-06
6.16071e-06
-2.73418e-06
3.60935e-06
-2.3104e-06
1.47149e-06
-1.83299e-06
-1.68327e-07
-1.39387e-06
-1.30507e-06
-1.02215e-06
-2.01715e-06
-7.23655e-07
-2.4286e-06
-4.92626e-07
-2.70254e-06
-3.20713e-07
-1.95444e-07
-2.976e-06
-6.52028e-06
5.1018e-07
-1.19151e-05
1.43216e-06
-1.57135e-05
2.1687e-06
-1.78407e-05
2.70845e-06
-1.83284e-05
3.05801e-06
-1.71978e-05
3.22113e-06
-1.46311e-05
3.18752e-06
-1.11671e-05
2.95634e-06
-7.28363e-06
2.55308e-06
-3.30018e-06
2.0124e-06
4.6757e-07
1.37813e-06
3.80904e-06
6.93945e-07
6.5684e-06
-3.11957e-09
8.6482e-06
-6.75436e-07
1.0011e-05
-1.28897e-06
1.06723e-05
-1.81684e-06
1.06923e-05
-2.24126e-06
1.01671e-05
-2.55492e-06
9.22019e-06
-2.761e-06
7.99598e-06
-2.87235e-06
6.43715e-06
-2.86921e-06
4.32755e-06
-2.69612e-06
1.98616e-06
-2.36732e-06
-8.21279e-08
-1.96667e-06
-1.72849e-06
-1.56011e-06
-2.92645e-06
-1.18653e-06
-3.75073e-06
-8.68762e-07
-4.33195e-06
-6.14105e-07
-4.83197e-06
-4.14641e-07
-2.57344e-07
-5.34094e-06
-7.1716e-06
5.5187e-07
-1.31698e-05
1.55139e-06
-1.75167e-05
2.35603e-06
-2.01397e-05
2.95571e-06
-2.11199e-05
3.35792e-06
-2.06001e-05
3.57217e-06
-1.8688e-05
3.60372e-06
-1.56935e-05
3.45125e-06
-1.20831e-05
3.12055e-06
-8.24324e-06
2.63166e-06
-4.52888e-06
2.02673e-06
-1.18217e-06
1.35884e-06
1.64967e-06
6.6779e-07
3.86173e-06
-1.18894e-08
5.4104e-06
-6.46666e-07
6.30135e-06
-1.20984e-06
6.58243e-06
-1.68211e-06
6.33516e-06
-2.05358e-06
5.66559e-06
-2.32312e-06
4.6934e-06
-2.49651e-06
3.34149e-06
-2.54339e-06
1.51401e-06
-2.42178e-06
-5.1095e-07
-2.1742e-06
-2.39207e-06
-1.87842e-06
-3.99476e-06
-1.56968e-06
-5.26468e-06
-1.25894e-06
-6.23561e-06
-9.61094e-07
-7.0263e-06
-6.94292e-07
-7.7855e-06
-4.66574e-07
-2.77033e-07
-8.55107e-06
-7.88221e-06
5.9495e-07
-1.45418e-05
1.67491e-06
-1.94942e-05
2.55102e-06
-2.26771e-05
3.21471e-06
-2.41679e-05
3.67548e-06
-2.41491e-05
3.94292e-06
-2.28244e-05
4.02775e-06
-2.04046e-05
3.93913e-06
-1.72597e-05
3.68951e-06
-1.37347e-05
3.28913e-06
-1.01585e-05
2.75364e-06
-6.85325e-06
2.12497e-06
-3.99308e-06
1.45309e-06
-1.69247e-06
7.80501e-07
3.66782e-09
1.39475e-07
1.09154e-06
-4.44551e-07
1.60634e-06
-9.50554e-07
1.61348e-06
-1.36656e-06
1.19919e-06
-1.68785e-06
4.57524e-07
-1.91552e-06
-6.91792e-07
-2.01943e-06
-2.27638e-06
-1.95967e-06
-4.01811e-06
-1.77721e-06
-5.67084e-06
-1.55466e-06
-7.16972e-06
-1.32975e-06
-8.47827e-06
-1.10438e-06
-9.60709e-06
-8.78167e-07
-1.06263e-05
-6.5087e-07
-1.16493e-05
-4.24871e-07
-2.1225e-07
-1.26643e-05
-8.6562e-06
6.39014e-07
-1.60388e-05
1.80159e-06
-2.16573e-05
2.75193e-06
-2.54599e-05
3.48325e-06
-2.75287e-05
4.00728e-06
-2.80381e-05
4.33535e-06
-2.72285e-05
4.47891e-06
-2.53447e-05
4.44972e-06
-2.27283e-05
4.2665e-06
-1.96636e-05
3.94903e-06
-1.63816e-05
3.50685e-06
-1.32164e-05
2.9588e-06
-1.04006e-05
2.34324e-06
-8.06182e-06
1.70089e-06
-6.26632e-06
1.06853e-06
-5.02399e-06
4.79482e-07
-4.31147e-06
-4.38632e-08
-4.07966e-06
-4.89152e-07
-4.26088e-06
-8.48956e-07
-4.77919e-06
-1.12104e-06
-5.69132e-06
-1.27871e-06
-7.01856e-06
-1.28775e-06
-8.51822e-06
-1.18264e-06
-9.98152e-06
-1.03148e-06
-1.13737e-05
-8.64227e-07
-1.26891e-05
-6.91107e-07
-1.3951e-05
-5.19923e-07
-1.51933e-05
-3.46082e-07
-1.64882e-05
-1.6128e-07
2.59174e-08
-1.77663e-05
-9.49748e-06
6.83636e-07
-1.76686e-05
1.93022e-06
-2.40171e-05
2.9569e-06
-2.85027e-05
3.75892e-06
-3.12134e-05
4.3504e-06
-3.23249e-05
4.74452e-06
-3.20735e-05
4.95411e-06
-3.07254e-05
4.99271e-06
-2.86054e-05
4.87711e-06
-2.60044e-05
4.62855e-06
-2.31226e-05
4.266e-06
-2.02389e-05
3.80991e-06
-1.75774e-05
3.2851e-06
-1.52842e-05
2.71575e-06
-1.34573e-05
2.12867e-06
-1.21095e-05
1.55671e-06
-1.12422e-05
1.03278e-06
-1.08204e-05
5.75115e-07
-1.07942e-05
1.91719e-07
-1.11029e-05
-1.12166e-07
-1.17785e-05
-3.1497e-07
-1.28379e-05
-3.89835e-07
-1.40961e-05
-3.61425e-07
-1.53906e-05
-2.80742e-07
-1.66936e-05
-1.71644e-07
-1.80052e-05
-4.18007e-08
-1.93512e-05
1.03314e-07
-2.07709e-05
2.58922e-07
-2.23173e-05
4.23008e-07
5.92961e-07
-2.38495e-05
-1.04097e-05
7.28271e-07
-1.94385e-05
2.05924e-06
-2.65844e-05
3.16347e-06
-3.18197e-05
4.03843e-06
-3.5239e-05
4.70074e-06
-3.70198e-05
5.16551e-06
-3.73971e-05
5.44699e-06
-3.66408e-05
5.55983e-06
-3.50476e-05
5.52063e-06
-3.29055e-05
5.34834e-06
-3.04458e-05
5.06245e-06
-2.79146e-05
4.68723e-06
-2.55005e-05
4.24917e-06
-2.3363e-05
3.77296e-06
-2.15995e-05
3.27414e-06
-2.02178e-05
2.76292e-06
-1.92466e-05
2.26579e-06
-1.86792e-05
1.81345e-06
-1.84823e-05
1.4239e-06
-1.86093e-05
1.10434e-06
-1.90701e-05
8.69613e-07
-1.98756e-05
7.38303e-07
-2.0905e-05
6.96909e-07
-2.20407e-05
7.13938e-07
-2.32606e-05
7.72589e-07