/*--------------------------------*- C++ -*----------------------------------*\
| =========                 |                                                 |
| \\      /  F ield         | OpenFOAM: The Open Source CFD Toolbox           |
|  \\    /   O peration     | Version:  dev                                   |
|   \\  /    A nd           | Web:      www.OpenFOAM.org                      |
|    \\/     M anipulation  |                                                 |
\*---------------------------------------------------------------------------*/
FoamFile
{
    version     2.0;
    format      ascii;
    class       volVectorField;
    location    "1.14";
    object      Force;
}
// * * * * * * * * * * * * * * * * * * * * * * * * * * * * * * * * * * * * * //

dimensions      [1 1 -2 0 0 0 0];

internalField   uniform (0 0 0);

boundaryField
{
    inlet
    {
        type            calculated;
        value           nonuniform 0();
    }
    outlet
    {
        type            calculated;
        value           nonuniform 0();
    }
    flap
    {
        type            calculated;
        value           nonuniform List<vector> 
33
(
(4.25297 2.44721e-21 -0.433073)
(4.08883 3.05586e-17 -0.922196)
(3.88794 -1.96125e-17 -1.31131)
(3.65502 1.32151e-21 -1.57175)
(3.41931 1.86976e-17 -1.73762)
(3.19025 -1.83283e-17 -1.83888)
(2.97301 1.13544e-22 -1.89234)
(2.77503 -1.76397e-17 -1.90894)
(2.5919 7.12669e-21 -1.89965)
(2.42092 6.26996e-22 -1.86501)
(2.26738 -7.17579e-21 -1.80472)
(2.12477 1.46561e-17 -1.72309)
(1.97904 2.85383e-17 -1.61852)
(1.81682 -2.15851e-21 -1.48281)
(1.61035 1.12462e-17 -1.31368)
(0.037564 1.3448e-17 0.044235)
(-0.121786 1.03529e-17 -0.148362)
(-0.290883 1.24486e-18 -0.351513)
(-1.22415 1.14752e-17 0.121529)
(-1.23649 -1.87727e-18 0.283613)
(-1.227 1.67037e-17 0.417539)
(-1.20878 1.39738e-22 0.521788)
(-1.18515 -3.73514e-18 0.60436)
(-1.15976 -6.5876e-22 0.670995)
(-1.13577 1.46876e-17 0.725247)
(-1.11345 -7.44553e-18 0.768988)
(-1.09315 -7.4423e-18 0.805108)
(-1.07752 1.54672e-17 0.834174)
(-1.0674 -2.08043e-21 0.854035)
(-1.06104 7.41784e-18 0.865133)
(-1.05576 -7.38863e-18 0.868471)
(-1.0467 7.32386e-18 0.860833)
(-1.02754 -7.20237e-18 0.844762)
)
;
    }
    upperWall
    {
        type            calculated;
        value           nonuniform 0();
    }
    lowerWall
    {
        type            calculated;
        value           uniform (0 0 0);
    }
    frontAndBack
    {
        type            empty;
    }
    procBoundary4to1
    {
        type            processor;
        value           uniform (0 0 0);
    }
    procBoundary4to2
    {
        type            processor;
        value           uniform (0 0 0);
    }
    procBoundary4to3
    {
        type            processor;
        value           uniform (0 0 0);
    }
    procBoundary4to5
    {
        type            processor;
        value           uniform (0 0 0);
    }
}


// ************************************************************************* //
