/*--------------------------------*- C++ -*----------------------------------*\
| =========                 |                                                 |
| \\      /  F ield         | OpenFOAM: The Open Source CFD Toolbox           |
|  \\    /   O peration     | Version:  dev                                   |
|   \\  /    A nd           | Web:      www.OpenFOAM.org                      |
|    \\/     M anipulation  |                                                 |
\*---------------------------------------------------------------------------*/
FoamFile
{
    version     2.0;
    format      ascii;
    class       surfaceScalarField;
    location    "3.64";
    object      meshPhi;
}
// * * * * * * * * * * * * * * * * * * * * * * * * * * * * * * * * * * * * * //

dimensions      [0 3 -1 0 0 0 0];

internalField   nonuniform List<scalar> 
5457
(
-3.19824e-06
-1.12483e-07
-5.96469e-06
-3.17411e-07
-8.13208e-06
-4.85361e-07
-9.68132e-06
-6.15238e-07
-1.06354e-05
-7.10298e-07
-1.10478e-05
-7.74438e-07
-1.09949e-05
-8.11819e-07
-1.05674e-05
-8.26603e-07
-9.8629e-06
-8.22755e-07
-8.97916e-06
-8.03889e-07
-8.00649e-06
-7.73166e-07
-7.02187e-06
-7.33243e-07
-6.08415e-06
-6.8628e-07
-5.2315e-06
-6.34005e-07
-4.48134e-06
-5.77823e-07
-3.83317e-06
-5.18947e-07
-3.27346e-06
-4.5853e-07
-2.78203e-06
-3.97766e-07
-2.33839e-06
-3.37952e-07
-1.92698e-06
-2.8049e-07
-1.53839e-06
-2.2506e-07
-1.17758e-06
-1.71266e-07
-8.55152e-07
-1.22501e-07
-5.78646e-07
-8.23142e-08
-3.56805e-07
-5.13679e-08
-1.93672e-07
-2.90807e-08
-8.71348e-08
-1.43768e-08
-2.89144e-08
-5.81988e-09
-5.81433e-09
-1.7482e-09
-2.89428e-10
-3.22041e-06
-2.25218e-07
-6.00433e-06
-6.35469e-07
-8.18465e-06
-9.71588e-07
-9.74329e-06
-1.23146e-06
-1.07035e-05
-1.42165e-06
-1.11191e-05
-1.54997e-06
-1.10668e-05
-1.62476e-06
-1.06378e-05
-1.65436e-06
-9.93035e-06
-1.6467e-06
-9.04293e-06
-1.60903e-06
-8.06667e-06
-1.54767e-06
-7.0793e-06
-1.46792e-06
-6.14019e-06
-1.37412e-06
-5.28769e-06
-1.26969e-06
-4.53905e-06
-1.15743e-06
-3.89316e-06
-1.03975e-06
-3.33565e-06
-9.18923e-07
-2.84535e-06
-7.97327e-07
-2.40097e-06
-6.77534e-07
-1.98642e-06
-5.62313e-07
-1.59138e-06
-4.51212e-07
-1.22129e-06
-3.43493e-07
-8.88721e-07
-2.45659e-07
-6.02417e-07
-1.64923e-07
-3.71999e-07
-1.02806e-07
-2.02138e-07
-5.81053e-08
-9.10091e-08
-2.86541e-08
-3.02319e-08
-1.1554e-08
-6.10753e-09
-3.44283e-09
-5.72516e-10
-3.24668e-06
-3.37819e-07
-6.05237e-06
-9.5308e-07
-8.25034e-06
-1.45701e-06
-9.82344e-06
-1.84656e-06
-1.07953e-05
-2.13163e-06
-1.12203e-05
-2.32398e-06
-1.11752e-05
-2.43611e-06
-1.07517e-05
-2.48055e-06
-1.00487e-05
-2.46918e-06
-9.16489e-06
-2.41285e-06
-8.19196e-06
-2.32103e-06
-7.20796e-06
-2.2017e-06
-6.27242e-06
-2.06129e-06
-5.42355e-06
-1.90495e-06
-4.67811e-06
-1.73683e-06
-4.03426e-06
-1.56053e-06
-3.47672e-06
-1.37942e-06
-2.98348e-06
-1.19705e-06
-2.53259e-06
-1.01724e-06
-2.10776e-06
-8.44121e-07
-1.69708e-06
-6.77262e-07
-1.30681e-06
-5.15632e-07
-9.53403e-07
-3.68621e-07
-6.4775e-07
-2.4717e-07
-4.00776e-07
-1.53814e-07
-2.18096e-07
-8.67178e-08
-9.82788e-08
-4.26036e-08
-3.26824e-08
-1.70784e-08
-6.63955e-09
-5.03304e-09
-8.32468e-10
-3.27515e-06
-4.49798e-07
-6.10594e-06
-1.26889e-06
-8.32574e-06
-1.9396e-06
-9.91812e-06
-2.45797e-06
-1.09073e-05
-2.83729e-06
-1.1348e-05
-3.09326e-06
-1.13175e-05
-3.24254e-06
-1.09077e-05
-3.30178e-06
-1.02175e-05
-3.2868e-06
-9.34577e-06
-3.21201e-06
-8.38422e-06
-3.09002e-06
-7.4107e-06
-2.9314e-06
-6.48437e-06
-2.74471e-06
-5.64288e-06
-2.53679e-06
-4.90226e-06
-2.31316e-06
-4.25983e-06
-2.07853e-06
-3.69946e-06
-1.83742e-06
-3.19849e-06
-1.59449e-06
-2.73464e-06
-1.35485e-06
-2.29181e-06
-1.12397e-06
-1.8559e-06
-9.01531e-07
-1.43424e-06
-6.86207e-07
-1.04901e-06
-4.90191e-07
-7.14325e-07
-3.28178e-07
-4.42794e-07
-2.03778e-07
-2.4125e-07
-1.14525e-07
-1.08744e-07
-5.60063e-08
-3.61635e-08
-2.22969e-08
-7.37345e-09
-6.4942e-09
-1.06544e-09
-3.31093e-06
-5.60799e-07
-6.17394e-06
-1.58191e-06
-8.42209e-06
-2.41781e-06
-1.00399e-05
-3.06371e-06
-1.10522e-05
-3.53631e-06
-1.15144e-05
-3.85523e-06
-1.15043e-05
-4.04128e-06
-1.11138e-05
-4.11519e-06
-1.04421e-05
-4.09666e-06
-9.5882e-06
-4.00362e-06
-8.64334e-06
-3.85174e-06
-7.68506e-06
-3.65418e-06
-6.77189e-06
-3.42161e-06
-5.94065e-06
-3.16251e-06
-5.20637e-06
-2.88376e-06
-4.56529e-06
-2.59123e-06
-4.00035e-06
-2.29051e-06
-3.48812e-06
-1.98742e-06
-3.00608e-06
-1.68831e-06
-2.5384e-06
-1.40002e-06
-2.06825e-06
-1.1224e-06
-1.60423e-06
-8.53849e-07
-1.1761e-06
-6.09302e-07
-8.02475e-07
-4.07181e-07
-4.98156e-07
-2.52195e-07
-2.71564e-07
-1.41234e-07
-1.22328e-07
-6.87258e-08
-4.06235e-08
-2.71681e-08
-8.29043e-09
-7.82643e-09
-1.27322e-09
-3.35435e-06
-6.70452e-07
-6.25678e-06
-1.89106e-06
-8.53984e-06
-2.88998e-06
-1.01891e-05
-3.66162e-06
-1.12304e-05
-4.2261e-06
-1.17199e-05
-4.60701e-06
-1.17358e-05
-4.82924e-06
-1.13704e-05
-4.91757e-06
-1.07231e-05
-4.89548e-06
-9.89249e-06
-4.78436e-06
-8.96958e-06
-4.60288e-06
-8.03123e-06
-4.36674e-06
-7.1351e-06
-4.08869e-06
-6.31689e-06
-3.77888e-06
-5.59039e-06
-3.4455e-06
-4.95058e-06
-3.09558e-06
-4.37924e-06
-2.7358e-06
-3.85221e-06
-2.37312e-06
-3.34668e-06
-2.01512e-06
-2.84733e-06
-1.67003e-06
-2.33392e-06
-1.33793e-06
-1.81648e-06
-1.01699e-06
-1.33432e-06
-7.24793e-07
-9.11836e-07
-4.83397e-07
-5.66556e-07
-2.98599e-07
-3.08826e-07
-1.66623e-07
-1.3892e-07
-8.06907e-08
-4.60203e-08
-3.16914e-08
-9.37961e-09
-9.04413e-09
-1.46078e-09
-3.40571e-06
-7.78392e-07
-6.35485e-06
-2.19529e-06
-8.67938e-06
-3.35441e-06
-1.03661e-05
-4.24943e-06
-1.14421e-05
-4.90396e-06
-1.19646e-05
-5.34554e-06
-1.20122e-05
-5.60314e-06
-1.16777e-05
-5.70546e-06
-1.10604e-05
-5.6797e-06
-1.02585e-05
-5.55061e-06
-9.36267e-06
-5.33979e-06
-8.44877e-06
-5.06545e-06
-7.57335e-06
-4.74236e-06
-6.77075e-06
-4.38232e-06
-6.05329e-06
-3.99488e-06
-5.41449e-06
-3.58821e-06
-4.83489e-06
-3.17008e-06
-4.28945e-06
-2.74858e-06
-3.7552e-06
-2.33256e-06
-3.21742e-06
-1.93159e-06
-2.65189e-06
-1.54607e-06
-2.07018e-06
-1.17403e-06
-1.52304e-06
-8.35543e-07
-1.04199e-06
-5.56141e-07
-6.47767e-07
-3.42645e-07
-3.52961e-07
-1.9057e-07
-1.58523e-07
-9.1901e-08
-5.23717e-08
-3.59013e-08
-1.06475e-08
-1.01705e-08
-1.63428e-09
-3.46528e-06
-8.84265e-07
-6.46855e-06
-2.49356e-06
-8.84106e-06
-3.80942e-06
-1.05712e-05
-4.82488e-06
-1.16876e-05
-5.56712e-06
-1.22486e-05
-6.06768e-06
-1.23335e-05
-6.35953e-06
-1.20354e-05
-6.47524e-06
-1.14534e-05
-6.44561e-06
-1.06856e-05
-6.2986e-06
-9.82161e-06
-6.0587e-06
-8.93632e-06
-5.74651e-06
-8.08492e-06
-5.37884e-06
-7.30016e-06
-4.96913e-06
-6.5927e-06
-4.52827e-06
-5.95442e-06
-4.06561e-06
-5.36452e-06
-3.59002e-06
-4.7971e-06
-3.11075e-06
-4.22904e-06
-2.63787e-06
-3.64638e-06
-2.18231e-06
-3.02032e-06
-1.74486e-06
-2.36403e-06
-1.32351e-06
-1.74147e-06
-9.40616e-07
-1.19261e-06
-6.24918e-07
-7.41813e-07
-3.8415e-07
-4.04159e-07
-2.13076e-07
-1.8133e-07
-1.02425e-07
-5.97828e-08
-3.9859e-08
-1.21225e-08
-1.12343e-08
-1.79896e-09
-3.53335e-06
-9.87753e-07
-6.59825e-06
-2.78492e-06
-9.02515e-06
-4.25338e-06
-1.08045e-05
-5.3857e-06
-1.19668e-05
-6.2128e-06
-1.25715e-05
-6.77024e-06
-1.26991e-05
-7.09497e-06
-1.24426e-05
-7.22329e-06
-1.19012e-05
-7.18946e-06
-1.11723e-05
-7.02455e-06
-1.03445e-05
-6.75578e-06
-9.49146e-06
-6.40613e-06
-8.66683e-06
-5.99438e-06
-7.90161e-06
-5.53561e-06
-7.20462e-06
-5.04209e-06
-6.56605e-06
-4.52438e-06
-5.96369e-06
-3.99247e-06
-5.37079e-06
-3.45676e-06
-4.76413e-06
-2.92855e-06
-4.13065e-06
-2.42008e-06
-3.4365e-06
-1.93265e-06
-2.69635e-06
-1.4643e-06
-1.9889e-06
-1.0394e-06
-1.36376e-06
-6.8952e-07
-8.49204e-07
-4.23148e-07
-4.63052e-07
-2.34278e-07
-2.07826e-07
-1.12401e-07
-6.84876e-08
-4.36515e-08
-1.38652e-08
-1.22701e-08
-1.96125e-09
-3.61023e-06
-1.0886e-06
-6.74431e-06
-3.06853e-06
-9.23182e-06
-4.6848e-06
-1.10658e-05
-5.92975e-06
-1.22791e-05
-6.8383e-06
-1.29327e-05
-7.45011e-06
-1.31079e-05
-7.80604e-06
-1.28981e-05
-7.94602e-06
-1.2402e-05
-7.90758e-06
-1.17162e-05
-7.72475e-06
-1.09283e-05
-7.42736e-06
-1.01106e-05
-7.04068e-06
-9.31474e-06
-6.58544e-06
-8.57005e-06
-6.07836e-06
-7.88342e-06
-5.53311e-06
-7.24334e-06
-4.9615e-06
-6.62623e-06
-4.37469e-06
-6.00453e-06
-3.78423e-06
-5.35501e-06
-3.20263e-06
-4.66563e-06
-2.64338e-06
-3.89708e-06
-2.10837e-06
-3.06539e-06
-1.59583e-06
-2.26508e-06
-1.13178e-06
-1.55624e-06
-7.50126e-07
-9.71293e-07
-4.59955e-07
-5.30991e-07
-2.54491e-07
-2.38965e-07
-1.22058e-07
-7.89346e-08
-4.74022e-08
-1.59939e-08
-1.33235e-08
-2.12918e-09
-3.69632e-06
-1.18663e-06
-6.90716e-06
-3.34377e-06
-9.46111e-06
-5.1024e-06
-1.13548e-05
-6.45504e-06
-1.26238e-05
-7.44104e-06
-1.3331e-05
-8.10429e-06
-1.35585e-05
-8.48948e-06
-1.33998e-05
-8.64002e-06
-1.29531e-05
-8.59651e-06
-1.23142e-05
-8.39576e-06
-1.15692e-05
-8.07007e-06
-1.07888e-05
-7.6469e-06
-1.0023e-05
-7.14889e-06
-9.29899e-06
-6.59442e-06
-8.62192e-06
-5.99861e-06
-7.97867e-06
-5.37455e-06
-7.34442e-06
-4.73461e-06
-6.69097e-06
-4.09151e-06
-5.99517e-06
-3.45891e-06
-5.24602e-06
-2.85147e-06
-4.39854e-06
-2.27175e-06
-3.46986e-06
-1.71824e-06
-2.5707e-06
-1.21825e-06
-1.77215e-06
-8.07412e-07
-1.11077e-06
-4.95245e-07
-6.10496e-07
-2.74264e-07
-2.76509e-07
-1.31763e-07
-9.19677e-08
-5.13011e-08
-1.8746e-08
-1.44639e-08
-2.31642e-09
-3.79215e-06
-1.2818e-06
-7.08728e-06
-3.61032e-06
-9.71294e-06
-5.50517e-06
-1.16708e-05
-6.95977e-06
-1.29998e-05
-8.01864e-06
-1.37648e-05
-8.72998e-06
-1.40486e-05
-9.14224e-06
-1.3945e-05
-9.30211e-06
-1.35513e-05
-9.25307e-06
-1.29622e-05
-9.03446e-06
-1.22623e-05
-8.68092e-06
-1.15205e-05
-8.22197e-06
-1.07848e-05
-7.68215e-06
-1.00808e-05
-7.08149e-06
-9.41172e-06
-6.4366e-06
-8.76321e-06
-5.76191e-06
-8.10946e-06
-5.07104e-06
-7.42187e-06
-4.37787e-06
-6.67751e-06
-3.69718e-06
-5.86638e-06
-3.04463e-06
-4.93778e-06
-2.4235e-06
-3.90947e-06
-1.83261e-06
-2.90803e-06
-1.30006e-06
-2.01547e-06
-8.62656e-07
-1.27237e-06
-5.30162e-07
-7.05954e-07
-2.94495e-07
-3.2364e-07
-1.42119e-07
-1.09221e-07
-5.56721e-08
-2.26307e-08
-1.5816e-08
-2.54937e-09
-3.8985e-06
-1.37428e-06
-7.28541e-06
-3.86829e-06
-9.98711e-06
-5.89249e-06
-1.20129e-05
-7.4424e-06
-1.34054e-05
-8.56891e-06
-1.42318e-05
-9.32458e-06
-1.45757e-05
-9.76149e-06
-1.45304e-05
-9.92941e-06
-1.41927e-05
-9.87443e-06
-1.36556e-05
-9.63817e-06
-1.30021e-05
-9.2574e-06
-1.2299e-05
-8.76365e-06
-1.15927e-05
-8.18327e-06
-1.0907e-05
-7.53797e-06
-1.02437e-05
-6.84587e-06
-9.58745e-06
-6.12282e-06
-8.91201e-06
-5.38371e-06
-8.1887e-06
-4.64358e-06
-7.39501e-06
-3.91823e-06
-6.52184e-06
-3.22418e-06
-5.5128e-06
-2.56537e-06
-4.38559e-06
-1.94092e-06
-3.28146e-06
-1.37929e-06
-2.29276e-06
-9.17839e-07
-1.46369e-06
-5.66443e-07
-8.24713e-07
-3.16585e-07
-3.86127e-07
-1.54133e-07
-1.34009e-07
-6.11163e-08
-2.88393e-08
-1.76387e-08
-2.88662e-09
-4.01658e-06
-1.46449e-06
-7.50267e-06
-4.11841e-06
-1.02832e-05
-6.26415e-06
-1.23796e-05
-7.90155e-06
-1.38387e-05
-9.08986e-06
-1.47295e-05
-9.8857e-06
-1.51364e-05
-1.03446e-05
-1.51524e-05
-1.05193e-05
-1.48729e-05
-1.04581e-05
-1.43892e-05
-1.02046e-05
-1.37824e-05
-9.79749e-06
-1.31174e-05
-9.27023e-06
-1.24388e-05
-8.65093e-06
-1.17688e-05
-7.96297e-06
-1.11084e-05
-7.22602e-06
-1.04418e-05
-6.45738e-06
-9.74274e-06
-5.67325e-06
-8.98314e-06
-4.88983e-06
-8.14121e-06
-4.12383e-06
-7.20862e-06
-3.39245e-06
-6.12323e-06
-2.70013e-06
-4.90165e-06
-2.04619e-06
-3.69793e-06
-1.4589e-06
-2.61369e-06
-9.75713e-07
-1.69615e-06
-6.06562e-07
-9.78619e-07
-3.42662e-07
-4.74479e-07
-1.69516e-07
-1.73475e-07
-6.88232e-08
-4.04701e-08
-2.05412e-08
-3.48866e-09
-4.13675e-06
-1.54332e-06
-7.73411e-06
-4.34723e-06
-1.06029e-05
-6.61791e-06
-1.27714e-05
-8.34086e-06
-1.42995e-05
-9.58434e-06
-1.52574e-05
-1.04162e-05
-1.57302e-05
-1.08945e-05
-1.58101e-05
-1.10748e-05
-1.55908e-05
-1.10072e-05
-1.51615e-05
-1.0737e-05
-1.46013e-05
-1.03046e-05
-1.39732e-05
-9.74523e-06
-1.33199e-05
-9.0888e-06
-1.26625e-05
-8.36032e-06
-1.20017e-05
-7.58104e-06
-1.13218e-05
-6.76977e-06
-1.05976e-05
-5.94405e-06
-9.80228e-06
-5.12122e-06
-8.91525e-06
-4.31884e-06
-7.92893e-06
-3.55458e-06
-6.77515e-06
-2.83319e-06
-5.46772e-06
-2.1538e-06
-4.17105e-06
-1.544e-06
-2.99509e-06
-1.04098e-06
-1.98941e-06
-6.54834e-07
-1.18953e-06
-3.76712e-07
-6.1159e-07
-1.91965e-07
-2.48595e-07
-8.20728e-08
-7.13594e-08
-2.68581e-08
-5.42032e-09
-2.26047e-09
-2.02539e-10
-1.20995e-08
-1.31077e-09
-4.06281e-08
-4.72047e-09
-1.0282e-07
-1.21862e-08
-2.1874e-07
-2.5142e-08
-4.13277e-07
-4.43453e-08
-7.14499e-07
-6.96131e-08
-1.15077e-06
-9.97271e-08
-1.74705e-06
-1.32556e-07
-2.48928e-06
-1.61783e-07
-3.36528e-06
-1.77842e-07
-4.38406e-06
-1.76747e-07
-5.52327e-06
-1.59399e-07
-6.73933e-06
-1.26169e-07
-7.9768e-06
-7.77943e-08
-9.17358e-06
-1.64284e-08
-1.02668e-05
5.45741e-08
-1.11983e-05
1.31008e-07
-1.19183e-05
2.08227e-07
-1.23879e-05
2.81533e-07
-1.25785e-05
3.46484e-07
-1.24709e-05
3.991e-07
-1.20522e-05
4.35951e-07
-1.1314e-05
4.54161e-07
-1.02503e-05
4.51353e-07
-8.85627e-06
4.25586e-07
-7.1279e-06
3.75304e-07
-5.06274e-06
2.9934e-07
-2.66031e-06
1.96958e-07
6.99948e-08
-2.17611e-09
-4.14828e-10
-1.16977e-08
-2.65676e-09
-3.93996e-08
-9.50843e-09
-1.00101e-07
-2.44294e-08
-2.13863e-07
-5.02244e-08
-4.05737e-07
-8.83558e-08
-7.04099e-07
-1.3842e-07
-1.13764e-06
-1.97953e-07
-1.73113e-06
-2.62625e-07
-2.47466e-06
-3.20198e-07
-3.35541e-06
-3.51767e-07
-4.3794e-06
-3.48847e-07
-5.52598e-06
-3.13392e-07
-6.75062e-06
-2.4655e-07
-7.9969e-06
-1.49743e-07
-9.20185e-06
-2.72491e-08
-1.03019e-05
1.14259e-07
-1.12383e-05
2.66427e-07
-1.19615e-05
4.20032e-07
-1.24323e-05
5.65749e-07
-1.26227e-05
6.94767e-07
-1.25134e-05
7.99183e-07
-1.2092e-05
8.72183e-07
-1.13502e-05
9.08042e-07
-1.02822e-05
9.02024e-07
-8.88311e-06
8.50246e-07
-7.14905e-06
7.49595e-07
-5.07748e-06
5.97729e-07
-2.6679e-06
3.93182e-07
1.39695e-07
-2.05828e-09
-6.33913e-10
-1.10927e-08
-4.0247e-09
-3.7409e-08
-1.42782e-08
-9.53581e-08
-3.64416e-08
-2.04682e-07
-7.45577e-08
-3.90353e-07
-1.30696e-07
-6.80996e-07
-2.04188e-07
-1.10587e-06
-2.91332e-07
-1.69054e-06
-3.85635e-07
-2.42937e-06
-4.69435e-07
-3.31049e-06
-5.14964e-07
-4.33813e-06
-5.09008e-07
-5.49249e-06
-4.54641e-07
-6.72821e-06
-3.54096e-07
-7.98777e-06
-2.0946e-07
-9.2069e-06
-2.70612e-08
-1.03208e-05
1.83237e-07
-1.12699e-05
4.09093e-07
-1.20036e-05
6.36884e-07
-1.24826e-05
8.52829e-07
-1.26785e-05
1.04389e-06
-1.25721e-05
1.19836e-06
-1.21511e-05
1.3061e-06
-1.14072e-05
1.3586e-06
-1.03347e-05
1.34877e-06
-8.929e-06
1.2708e-06
-7.18625e-06
1.12e-06
-5.10401e-06
8.9284e-07
-2.68186e-06
5.87138e-07
2.0856e-07
-1.90486e-09
-8.54037e-10
-1.02646e-08
-5.37424e-09
-3.46068e-08
-1.88868e-08
-8.84873e-08
-4.78563e-08
-1.90984e-07
-9.738e-08
-3.66733e-07
-1.70004e-07
-6.44536e-07
-2.6475e-07
-1.05446e-06
-3.76728e-07
-1.62363e-06
-4.97444e-07
-2.35087e-06
-6.04298e-07
-3.22748e-06
-6.61287e-07
-4.25709e-06
-6.50647e-07
-5.41941e-06
-5.76596e-07
-6.66855e-06
-4.42564e-07
-7.94573e-06
-2.51308e-07
-9.18508e-06
-1.1092e-08
-1.03201e-05
2.65228e-07
-1.12896e-05
5.61572e-07
-1.20418e-05
8.60177e-07
-1.25362e-05
1.14305e-06
-1.27439e-05
1.39314e-06
-1.26454e-05
1.59508e-06
-1.2228e-05
1.73554e-06
-1.14837e-05
1.80326e-06
-1.04069e-05
1.78884e-06
-8.99315e-06
1.68453e-06
-7.23891e-06
1.48406e-06
-5.14194e-06
1.1827e-06
-2.70198e-06
7.77552e-07
2.76147e-07
-1.68638e-09
-1.06672e-09
-9.08802e-09
-6.65624e-09
-3.07056e-08
-2.3184e-08
-7.90498e-08
-5.83334e-08
-1.72324e-07
-1.18049e-07
-3.3472e-07
-2.05204e-07
-5.95272e-07
-3.18455e-07
-9.85081e-07
-4.5179e-07
-1.53308e-06
-5.94894e-07
-2.24413e-06
-7.20786e-07
-3.1146e-06
-7.86037e-07
-4.14707e-06
-7.68697e-07
-5.32003e-06
-6.74101e-07
-6.58687e-06
-5.06916e-07
-7.88728e-06
-2.70574e-07
-9.15332e-06
2.48536e-08
-1.03163e-05
3.63752e-07
-1.1313e-05
7.266e-07
-1.20897e-05
1.09181e-06
-1.26048e-05
1.43749e-06
-1.28285e-05
1.74282e-06
-1.27405e-05
1.98898e-06
-1.23282e-05
2.15959e-06
-1.15837e-05
2.24071e-06
-1.05014e-05
2.22067e-06
-9.07729e-06
2.0898e-06
-7.30804e-06
1.84025e-06
-5.19174e-06
1.46607e-06
-2.7284e-06
9.63591e-07
3.42161e-07
-1.38553e-09
-1.26124e-09
-7.50068e-09
-7.81095e-09
-2.55843e-08
-2.69957e-08
-6.69095e-08
-6.74989e-08
-1.48668e-07
-1.35897e-07
-2.94568e-07
-2.35229e-07
-5.33947e-07
-3.63729e-07
-8.99123e-07
-5.1433e-07
-1.42107e-06
-6.75085e-07
-2.11227e-06
-8.15255e-07
-2.97588e-06
-8.84992e-07
-4.01288e-06
-8.58635e-07
-5.19963e-06
-7.42565e-07
-6.48858e-06
-5.42675e-07
-7.81754e-06
-2.63075e-07
-9.11618e-06
8.44998e-08
-1.03132e-05
4.8194e-07
-1.13428e-05
9.06618e-07
-1.21494e-05
1.3335e-06
-1.26897e-05
1.73712e-06
-1.29326e-05
2.09321e-06
-1.28576e-05
2.37973e-06
-1.24516e-05
2.57741e-06
-1.17067e-05
2.66974e-06
-1.06177e-05
2.64285e-06
-9.18074e-06
2.48514e-06
-7.39302e-06
2.18717e-06
-5.25294e-06
1.74177e-06
-2.76086e-06
1.14448e-06
4.06326e-07
-9.97582e-10
-1.42571e-09
-5.49859e-09
-8.77475e-09
-1.92736e-08
-3.01409e-08
-5.22198e-08
-7.49721e-08
-1.2045e-07
-1.50262e-07
-2.47198e-07
-2.59058e-07
-4.62195e-07
-3.99114e-07
-7.99135e-07
-5.62373e-07
-1.29122e-06
-7.35444e-07
-1.96001e-06
-8.84516e-07
-2.81709e-06
-9.54497e-07
-3.86112e-06
-9.16591e-07
-5.06522e-06
-7.78088e-07
-6.38068e-06
-5.46054e-07
-7.74312e-06
-2.25287e-07
-9.07948e-06
1.70972e-07
-1.03156e-05
6.22404e-07
-1.13829e-05
1.10365e-06
-1.22235e-05
1.58662e-06
-1.27925e-05
2.04269e-06
-1.30574e-05
2.44446e-06
-1.29969e-05
2.76696e-06
-1.25978e-05
2.98819e-06
-1.18521e-05
3.08924e-06
-1.07549e-05
3.05404e-06
-9.30277e-06
2.86915e-06
-7.4932e-06
2.52352e-06
-5.32505e-06
2.00873e-06
-2.79908e-06
1.31949e-06
4.68382e-07
-5.38657e-10
-1.54849e-09
-3.16554e-09
-9.48757e-09
-1.20267e-08
-3.24498e-08
-3.55524e-08
-8.03989e-08
-8.87536e-08
-1.60537e-07
-1.94432e-07
-2.75772e-07
-3.82809e-07
-4.23333e-07
-6.89089e-07
-5.9424e-07
-1.14886e-06
-7.73837e-07
-1.79402e-06
-9.25968e-07
-2.64598e-06
-9.91611e-07
-3.70032e-06
-9.39484e-07
-4.92571e-06
-7.77594e-07
-6.27192e-06
-5.14094e-07
-7.67214e-06
-1.5448e-07
-9.05038e-06
2.86662e-07
-1.03294e-05
7.87109e-07
-1.14379e-05
1.31917e-06
-1.23155e-05
1.85214e-06
-1.29154e-05
2.35463e-06
-1.32039e-05
2.79652e-06
-1.31589e-05
3.15016e-06
-1.27668e-05
3.39108e-06
-1.20196e-05
3.49805e-06
-1.09126e-05
3.45297e-06
-9.44269e-06
3.24051e-06
-7.60791e-06
2.84806e-06
-5.40755e-06
2.26592e-06
-2.84277e-06
1.48793e-06
5.28079e-07
-5.44354e-11
-1.6199e-09
-7.00629e-10
-9.89936e-09
-4.38179e-09
-3.37802e-08
-1.80019e-08
-8.34803e-08
-5.54621e-08
-1.66211e-07
-1.39174e-07
-2.84614e-07
-2.99926e-07
-4.35363e-07
-5.74537e-07
-6.08643e-07
-1.00114e-06
-7.887e-07
-1.62294e-06
-9.37764e-07
-2.47237e-06
-9.94276e-07
-3.54105e-06
-9.25184e-07
-4.79188e-06
-7.38985e-07
-6.17275e-06
-4.44806e-07
-7.61424e-06
-4.88621e-08
-9.03732e-06
4.33086e-07
-1.03617e-05
9.77235e-07
-1.15133e-05
1.55397e-06
-1.24294e-05
2.13044e-06
-1.30613e-05
2.67294e-06
-1.33739e-05
3.14899e-06
-1.33444e-05
3.5286e-06
-1.29586e-05
3.78505e-06
-1.22087e-05
3.89498e-06
-1.109e-05
3.83829e-06
-9.59976e-06
3.59788e-06
-7.7365e-06
3.15956e-06
-5.4999e-06
2.51233e-06
-2.89164e-06
1.64913e-06
5.85175e-07
3.6776e-10
-1.63306e-09
1.54768e-09
-9.97427e-09
2.77118e-09
-3.40274e-08
-1.2869e-09
-8.39928e-08
-2.33854e-08
-1.66902e-07
-8.55459e-08
-2.8503e-07
-2.19138e-07
-4.34507e-07
-4.62651e-07
-6.04792e-07
-8.56935e-07
-7.7919e-07
-1.45733e-06
-9.18994e-07
-2.30806e-06
-9.61498e-07
-3.39581e-06
-8.72662e-07
-4.67632e-06
-6.61271e-07
-6.09526e-06
-3.37303e-07
-7.58044e-06
9.22908e-08
-9.04988e-06
6.1076e-07
-1.04204e-05
1.19305e-06
-1.16154e-05
1.80807e-06
-1.25698e-05
2.42126e-06
-1.32332e-05
2.99707e-06
-1.35693e-05
3.50106e-06
-1.35542e-05
3.90124e-06
-1.31735e-05
4.16888e-06
-1.24191e-05
4.27866e-06
-1.12865e-05
4.20862e-06
-9.77333e-06
3.9399e-06
-7.87828e-06
3.45677e-06
-5.6016e-06
2.74695e-06
-2.9454e-06
1.8024e-06
6.39431e-07
5.72427e-10
-1.58384e-09
3.01688e-09
-9.69132e-09
8.08128e-09
-3.31274e-08
1.21122e-08
-8.17955e-08
3.5933e-09
-1.62374e-07
-3.90193e-08
-2.76708e-07
-1.47571e-07
-4.20447e-07
-3.62167e-07
-5.82486e-07
-7.26647e-07
-7.45345e-07
-1.30936e-06
-8.69886e-07
-2.16667e-06
-8.93517e-07
-3.2789e-06
-7.8211e-07
-4.59326e-06
-5.4467e-07
-6.05287e-06
-1.91898e-07
-7.58286e-06
2.68532e-07
-9.09854e-06
8.19092e-07
-1.05142e-05
1.43383e-06
-1.17509e-05
2.08058e-06
-1.27418e-05
2.72356e-06
-1.34346e-05
3.32584e-06
-1.37921e-05
3.85142e-06
-1.37895e-05
4.26665e-06
-1.34119e-05
4.54106e-06
-1.26508e-05
4.64755e-06
-1.15018e-05
4.5624e-06
-9.9627e-06
4.26511e-06
-8.03261e-06
3.73842e-06
-5.7121e-06
2.96874e-06
-3.00375e-06
1.94708e-06
6.90605e-07
2.64518e-10
-1.46973e-09
2.7799e-09
-9.03984e-09
9.52334e-09
-3.10488e-08
1.87246e-08
-7.68221e-08
2.03071e-08
-1.52532e-07
-6.58985e-09
-2.5958e-07
-9.39751e-08
-3.93267e-07
-2.83261e-07
-5.42183e-07
-6.21646e-07
-6.88246e-07
-1.1923e-06
-7.9203e-07
-2.06338e-06
-7.91929e-07
-3.20619e-06
-6.54966e-07
-4.55822e-06
-3.90634e-07
-6.06006e-06
-1.01557e-08
-7.6344e-06
4.78182e-07
-9.19432e-06
1.05632e-06
-1.06521e-05
1.69774e-06
-1.19269e-05
2.36966e-06
-1.29505e-05
3.0355e-06
-1.36693e-05
3.65739e-06
-1.40448e-05
4.19821e-06
-1.40516e-05
4.62298e-06
-1.3674e-05
4.89975e-06
-1.29034e-05
4.99986e-06
-1.17352e-05
4.89796e-06
-1.01672e-05
4.57196e-06
-8.1988e-06
4.00314e-06
-5.83088e-06
3.17665e-06
-3.0664e-06
2.08246e-06
7.38448e-07
-1.19185e-09
-1.28583e-09
-8.18333e-10
-8.0057e-09
3.96923e-09
-2.77685e-08
1.3705e-08
-6.90512e-08
2.00026e-08
-1.37399e-07
2.98587e-09
-2.33797e-07
-6.88908e-08
-3.53416e-07
-2.37417e-07
-4.84973e-07
-5.53242e-07
-6.1021e-07
-1.11958e-06
-6.8868e-07
-2.01489e-06
-6.59711e-07
-3.19494e-06
-4.93754e-07
-4.58765e-06
-2.0177e-07
-6.13176e-06
2.05129e-07
-7.74816e-06
7.18325e-07
-9.34831e-06
1.3195e-06
-1.08431e-05
1.98191e-06
-1.21505e-05
2.67251e-06
-1.32011e-05
3.35439e-06
-1.39406e-05
3.98918e-06
-1.43295e-05
4.53901e-06
-1.43415e-05
4.96794e-06
-1.39603e-05
5.2428e-06
-1.31768e-05
5.33356e-06
-1.19862e-05
5.21341e-06
-1.03861e-05
4.85877e-06
-8.37616e-06
4.24953e-06
-5.95737e-06
3.36957e-06
-3.13303e-06
2.20783e-06
7.82707e-07
-5.34587e-09
-1.01318e-09
-1.10275e-08
-6.53228e-09
-1.36204e-08
-2.32171e-08
-9.74802e-09
-5.84535e-08
-6.03918e-09
-1.17069e-07
-2.1106e-08
-1.99678e-07
-8.50126e-08
-3.0158e-07
-2.37614e-07
-4.12347e-07
-5.3041e-07
-5.15018e-07
-1.10339e-06
-5.65308e-07
-2.04026e-06
-5.00987e-07
-3.26361e-06
-3.01541e-07
-4.69824e-06
1.83376e-08
-6.28274e-06
4.50006e-07
-7.93687e-06
9.84879e-07
-9.57111e-06
1.60458e-06
-1.10957e-05
2.28243e-06
-1.24281e-05
2.98546e-06
-1.34985e-05
3.67682e-06
-1.42519e-05
4.31803e-06
-1.46481e-05
4.87089e-06
-1.46601e-05
5.29882e-06
-1.42709e-05
5.56773e-06
-1.34706e-05
5.64641e-06
-1.2254e-05
5.50673e-06
-1.06187e-05
5.12377e-06
-8.5639e-06
4.47608e-06
-6.09096e-06
3.54634e-06
-3.2033e-06
2.32244e-06
8.23121e-07
-1.86453e-08
-5.7578e-10
-3.61436e-08
-4.26947e-09
-5.25321e-08
-1.69898e-08
-6.19519e-08
-4.46375e-08
-6.96356e-08
-9.1254e-08
-9.27692e-08
-1.57073e-07
-1.5868e-07
-2.37672e-07
-3.00793e-07
-3.24412e-07
-5.79351e-07
-3.99938e-07
-1.17724e-06
-4.14744e-07
-2.16601e-06
-3.10672e-07
-3.43243e-06
-7.84411e-08
-4.90739e-06
2.6755e-07
-6.52836e-06
7.21984e-07
-8.21386e-06
1.27541e-06
-9.87408e-06
1.90939e-06
-1.14194e-05
2.59744e-06
-1.27675e-05
3.30701e-06
-1.38486e-05
4.00163e-06
-1.46077e-05
4.64313e-06
-1.50041e-05
5.19335e-06
-1.50099e-05
5.6154e-06
-1.46074e-05
5.87452e-06
-1.37858e-05
5.93853e-06
-1.25394e-05
5.77816e-06
-1.08651e-05
5.36724e-06
-8.76211e-06
4.68308e-06
-6.23164e-06
3.7072e-06
-3.27719e-06
2.42645e-06
8.59749e-07
-4.40107e-06
-1.60215e-06
-8.26001e-06
-4.52949e-06
-1.13601e-05
-6.93097e-06
-1.37e-05
-8.75914e-06
-1.53599e-05
-1.00614e-05
-1.64274e-05
-1.09242e-05
-1.69901e-05
-1.14196e-05
-1.71427e-05
-1.16046e-05
-1.698e-05
-1.15309e-05
-1.65921e-05
-1.12447e-05
-1.60588e-05
-1.0788e-05
-1.54435e-05
-1.0198e-05
-1.4789e-05
-9.50624e-06
-1.41163e-05
-8.73938e-06
-1.34263e-05
-7.9203e-06
-1.2704e-05
-7.06932e-06
-1.19252e-05
-6.20539e-06
-1.10643e-05
-5.34696e-06
-1.01021e-05
-4.5124e-06
-9.032e-06
-3.7197e-06
-7.77622e-06
-2.97366e-06
-6.34271e-06
-2.27261e-06
-4.91004e-06
-1.64268e-06
-3.60101e-06
-1.12079e-06
-2.4693e-06
-7.17527e-07
-1.553e-06
-4.24189e-07
-8.70872e-07
-2.26053e-07
-4.18439e-07
-1.04664e-07
-1.68485e-07
-3.9774e-08
-1.15938e-08
-5.86718e-08
-4.59609e-06
-1.64853e-06
-8.65889e-06
-4.66621e-06
-1.19791e-05
-7.17168e-06
-1.45091e-05
-9.1199e-06
-1.63009e-05
-1.05123e-05
-1.74708e-05
-1.14134e-05
-1.81243e-05
-1.19219e-05
-1.83555e-05
-1.21111e-05
-1.82583e-05
-1.20321e-05
-1.79214e-05
-1.17311e-05
-1.74247e-05
-1.12516e-05
-1.6831e-05
-1.0633e-05
-1.61827e-05
-9.90836e-06
-1.5501e-05
-9.10596e-06
-1.47877e-05
-8.25023e-06
-1.40297e-05
-7.36305e-06
-1.32052e-05
-6.46475e-06
-1.22919e-05
-5.57486e-06
-1.12736e-05
-4.71251e-06
-1.01458e-05
-3.89605e-06
-8.82208e-06
-3.13031e-06
-7.29544e-06
-2.41147e-06
-5.75273e-06
-1.76272e-06
-4.33195e-06
-1.22127e-06
-3.09023e-06
-7.99267e-07
-2.06777e-06
-4.88492e-07
-1.28413e-06
-2.74284e-07
-7.37599e-07
-1.3817e-07
-4.02291e-07
-5.99596e-08
-2.06659e-08
-2.45958e-07
-4.79631e-06
-1.68842e-06
-9.04869e-06
-4.77743e-06
-1.2574e-05
-7.34774e-06
-1.53315e-05
-9.38464e-06
-1.73124e-05
-1.089e-05
-1.8607e-05
-1.18699e-05
-1.93565e-05
-1.2402e-05
-1.9674e-05
-1.25934e-05
-1.96483e-05
-1.25109e-05
-1.93658e-05
-1.21969e-05
-1.89076e-05
-1.16965e-05
-1.83358e-05
-1.10521e-05
-1.76925e-05
-1.0298e-05
-1.69997e-05
-9.46369e-06
-1.6261e-05
-8.57526e-06
-1.54659e-05
-7.65604e-06
-1.45967e-05
-6.72768e-06
-1.36352e-05
-5.81072e-06
-1.25707e-05
-4.92499e-06
-1.14042e-05
-4.08953e-06
-1.00478e-05
-3.31055e-06
-8.45113e-06
-2.57878e-06
-6.80461e-06
-1.91029e-06
-5.28046e-06
-1.34636e-06
-3.9331e-06
-9.03004e-07
-2.80748e-06
-5.71475e-07
-1.92284e-06
-3.37345e-07
-1.27912e-06
-1.81965e-07
-8.54411e-07
-8.52127e-08
-2.96631e-08
-6.31797e-07
-5.00969e-06
-1.7208e-06
-9.4572e-06
-4.86912e-06
-1.31648e-05
-7.48671e-06
-1.61307e-05
-9.56876e-06
-1.83445e-05
-1.11531e-05
-1.98262e-05
-1.22417e-05
-2.06943e-05
-1.28454e-05
-2.11049e-05
-1.30539e-05
-2.11577e-05
-1.29697e-05
-2.09326e-05
-1.26448e-05
-2.05149e-05
-1.21253e-05
-1.99659e-05
-1.14585e-05
-1.93273e-05
-1.06789e-05
-1.86224e-05
-9.81711e-06
-1.78572e-05
-8.90045e-06
-1.70252e-05
-7.95373e-06
-1.6113e-05
-6.9998e-06
-1.51082e-05
-6.05998e-06
-1.40064e-05
-5.15452e-06
-1.28179e-05
-4.30286e-06
-1.14667e-05
-3.51324e-06
-9.84413e-06
-2.7733e-06
-8.11664e-06
-2.08914e-06
-6.49535e-06
-1.50086e-06
-5.04709e-06
-1.03134e-06
-3.82458e-06
-6.74553e-07
-2.84292e-06
-4.15572e-07
-2.10454e-06
-2.35515e-07
-1.59155e-06
-1.14569e-07
-3.73975e-08
-1.30043e-06
-5.23651e-06
-1.7457e-06
-9.894e-06
-4.93996e-06
-1.37892e-05
-7.59628e-06
-1.69344e-05
-9.7073e-06
-1.93591e-05
-1.13232e-05
-2.10757e-05
-1.24844e-05
-2.2127e-05
-1.31936e-05
-2.26589e-05
-1.34773e-05
-2.27974e-05
-1.34141e-05
-2.26308e-05
-1.30779e-05
-2.2257e-05
-1.25399e-05
-2.17332e-05
-1.18553e-05
-2.11003e-05
-1.10553e-05
-2.03838e-05
-1.01707e-05
-1.95926e-05
-9.23067e-06
-1.87248e-05
-8.26117e-06
-1.77722e-05
-7.28621e-06
-1.67275e-05
-6.32749e-06
-1.55917e-05
-5.40506e-06
-1.43803e-05
-4.53729e-06
-1.30223e-05
-3.73065e-06
-1.14127e-05
-2.97705e-06
-9.68066e-06
-2.28349e-06
-8.00723e-06
-1.6796e-06
-6.48016e-06
-1.18506e-06
-5.16676e-06
-7.99062e-07
-4.09255e-06
-5.10121e-07
-3.26515e-06
-3.00364e-07
-2.66601e-06
-1.50209e-07
-4.69064e-08
-2.30415e-06
-5.47814e-06
-1.7632e-06
-1.03601e-05
-4.99011e-06
-1.44592e-05
-7.67483e-06
-1.77879e-05
-9.80951e-06
-2.03896e-05
-1.14418e-05
-2.23159e-05
-1.26242e-05
-2.35944e-05
-1.33955e-05
-2.43065e-05
-1.37749e-05
-2.45663e-05
-1.37901e-05
-2.44742e-05
-1.34872e-05
-2.41473e-05
-1.2945e-05
-2.36537e-05
-1.22461e-05
-2.30292e-05
-1.14313e-05
-2.23034e-05
-1.0529e-05
-2.14881e-05
-9.57052e-06
-2.05868e-05
-8.58281e-06
-1.95967e-05
-7.59121e-06
-1.85147e-05
-6.61747e-06
-1.73444e-05
-5.6809e-06
-1.60991e-05
-4.79838e-06
-1.46951e-05
-3.97326e-06
-1.30855e-05
-3.20014e-06
-1.14027e-05
-2.49284e-06
-9.76137e-06
-1.87661e-06
-8.22894e-06
-1.36169e-06
-6.86515e-06
-9.46328e-07
-5.71636e-06
-6.23876e-07
-4.80471e-06
-3.80362e-07
-4.12195e-06
-1.97763e-07
-6.54956e-08
-3.69076e-06
-5.73585e-06
-1.77336e-06
-1.08581e-05
-5.01981e-06
-1.51764e-05
-7.72268e-06
-1.87056e-05
-9.87365e-06
-2.14877e-05
-1.15199e-05
-2.35865e-05
-1.27104e-05
-2.50639e-05
-1.34952e-05
-2.5978e-05
-1.39162e-05
-2.64183e-05
-1.4012e-05
-2.64594e-05
-1.38056e-05
-2.62045e-05
-1.33243e-05
-2.57478e-05
-1.26369e-05
-2.51358e-05
-1.18112e-05
-2.44058e-05
-1.0896e-05
-2.35695e-05
-9.92403e-06
-2.26387e-05
-8.92215e-06
-2.16151e-05
-7.91843e-06
-2.04994e-05
-6.9338e-06
-1.92971e-05
-5.98671e-06
-1.80191e-05
-5.09311e-06
-1.65756e-05
-4.25508e-06
-1.49473e-05
-3.46596e-06
-1.3287e-05
-2.7408e-06
-1.16995e-05
-2.10623e-06
-1.02221e-05
-1.57012e-06
-8.88267e-06
-1.12701e-06
-7.71854e-06
-7.68779e-07
-6.75521e-06
-4.85762e-07
-6.00366e-06
-2.65984e-07
-1.02338e-07
-5.50902e-06
-6.01093e-06
-1.77629e-06
-1.13905e-05
-5.02931e-06
-1.59447e-05
-7.74023e-06
-1.96904e-05
-9.90033e-06
-2.26707e-05
-1.15562e-05
-2.49468e-05
-1.27566e-05
-2.65936e-05
-1.35503e-05
-2.76823e-05
-1.39828e-05
-2.83086e-05
-1.41077e-05
-2.85314e-05
-1.397e-05
-2.84079e-05
-1.35848e-05
-2.80237e-05
-1.29737e-05
-2.74465e-05
-1.21866e-05
-2.67194e-05
-1.12782e-05
-2.58655e-05
-1.0294e-05
-2.49119e-05
-9.28043e-06
-2.3862e-05
-8.2697e-06
-2.27198e-05
-7.27898e-06
-2.14935e-05
-6.32561e-06
-2.01955e-05
-5.42491e-06
-1.87418e-05
-4.57762e-06
-1.71127e-05
-3.77574e-06
-1.54641e-05
-3.03456e-06
-1.39068e-05
-2.3811e-06
-1.24711e-05
-1.82286e-06
-1.11806e-05
-1.3533e-06
-1.00548e-05
-9.62846e-07
-9.10119e-06
-6.41785e-07
-8.32811e-06
-3.80147e-07
-1.75539e-07
-7.80233e-06
-6.30462e-06
-1.77207e-06
-1.19598e-05
-5.01885e-06
-1.67677e-05
-7.72781e-06
-2.07474e-05
-9.88994e-06
-2.39431e-05
-1.15512e-05
-2.64166e-05
-1.27597e-05
-2.82417e-05
-1.35639e-05
-2.94965e-05
-1.40115e-05
-3.02772e-05
-1.41511e-05
-3.0661e-05
-1.4033e-05
-3.0694e-05
-1.36947e-05
-3.04369e-05
-1.31623e-05
-2.99506e-05
-1.24655e-05
-2.92644e-05
-1.1627e-05
-2.84108e-05