/*--------------------------------*- C++ -*----------------------------------*\
| =========                 |                                                 |
| \\      /  F ield         | OpenFOAM: The Open Source CFD Toolbox           |
|  \\    /   O peration     | Version:  dev                                   |
|   \\  /    A nd           | Web:      www.OpenFOAM.org                      |
|    \\/     M anipulation  |                                                 |
\*---------------------------------------------------------------------------*/
FoamFile
{
    version     2.0;
    format      ascii;
    class       pointVectorField;
    location    "3.64";
    object      pointDisplacement;
}
// * * * * * * * * * * * * * * * * * * * * * * * * * * * * * * * * * * * * * //

dimensions      [0 1 0 0 0 0 0];

internalField   nonuniform List<vector> 
5828
(
(0 0 0)
(0.00217382 0 0)
(0.0041552 0 0)
(0.00590127 0 0)
(0.00743384 0 0)
(0.00877264 0 0)
(0.00993528 0 0)
(0.0109373 0 0)
(0.0117925 0 0)
(0.0125126 0 0)
(0.0131078 0 0)
(0.0135864 0 0)
(0.0139553 0 0)
(0.0142194 0 0)
(0.0143818 0 0)
(0.014444 0 0)
(0.0144052 0 0)
(0.0142626 0 0)
(0.014011 0 0)
(0.0136427 0 0)
(0.0131477 0 0)
(0.012514 0 0)
(0.0117279 0 0)
(0.0107762 0 0)
(0.00964898 0 0)
(0.00834467 0 0)
(0.00687941 0 0)
(0.00530374 0 0)
(0.00373622 0 0)
(0.00245168 0 0)
(0 0 0)
(0 0 0)
(0.00217392 0 1.61989e-06)
(0.00415553 0 3.14513e-06)
(0.00590189 0 4.58414e-06)
(0.00743483 0 5.98895e-06)
(0.0087741 0 7.41091e-06)
(0.00993734 0 8.90463e-06)
(0.0109402 0 1.05321e-05)
(0.0117963 0 1.2367e-05)
(0.0125176 0 1.45002e-05)
(0.0131144 0 1.70468e-05)
(0.013595 0 2.01539e-05)
(0.0139664 0 2.40125e-05)
(0.0142338 0 2.88717e-05)
(0.0144004 0 3.50571e-05)
(0.014468 0 4.29954e-05)
(0.0144363 0 5.3244e-05)
(0.0143028 0 6.653e-05)
(0.0140632 0 8.37965e-05)
(0.0137105 0 0.000106259)
(0.0132361 0 0.000135472)
(0.0126291 0 0.000173396)
(0.0118779 0 0.000222479)
(0.0109716 0 0.000285717)
(0.0099033 0 0.000366674)
(0.00867503 0 0.000469385)
(0.0073077 0 0.00059792)
(0.00585759 0 0.000754922)
(0.00444779 0 0.000936848)
(0.00334 0 0.00111806)
(0.0017253 0 0.00151817)
(0 0 0)
(0.00217444 0 3.22909e-06)
(0.00415669 0 6.26847e-06)
(0.00590387 0 9.13406e-06)
(0.00743786 0 1.19285e-05)
(0.0087785 0 1.4753e-05)
(0.0099435 0 1.77146e-05)
(0.0109486 0 2.09343e-05)
(0.0118076 0 2.45559e-05)
(0.0125325 0 2.87556e-05)
(0.0131339 0 3.37553e-05)
(0.0136205 0 3.98389e-05)
(0.0139994 0 4.73728e-05)
(0.0142763 0 5.68332e-05)
(0.0144553 0 6.88406e-05)
(0.0145388 0 8.42043e-05)
(0.0145277 0 0.000103978)
(0.014421 0 0.000129528)
(0.0142163 0 0.000162618)
(0.0139092 0 0.000205504)
(0.0134941 0 0.000261046)
(0.0129644 0 0.000332809)
(0.0123138 0 0.000425163)
(0.0115376 0 0.000543311)
(0.0106366 0 0.000693155)
(0.00962188 0 0.000880805)
(0.00852403 0 0.00111122)
(0.00740727 0 0.00138469)
(0.00639109 0 0.00168777)
(0.0056839 0 0.00196957)
(0.0047441 0 0.0024629)
(0 0 0)
(0.00217529 0 4.81533e-06)
(0.00415855 0 9.34533e-06)
(0.00590705 0 1.36115e-05)
(0.00744276 0 1.77645e-05)
(0.00878562 0 2.19519e-05)
(0.00995348 0 2.63294e-05)
(0.0109622 0 3.10715e-05)
(0.0118259 0 3.6384e-05)
(0.0125568 0 4.25181e-05)
(0.0131657 0 4.97879e-05)
(0.0136617 0 5.85924e-05)
(0.0140528 0 6.94441e-05)
(0.0143451 0 8.30044e-05)
(0.0145439 0 0.00010013)
(0.0146528 0 0.00012193)
(0.0146744 0 0.000149837)
(0.0146101 0 0.000185694)
(0.0144602 0 0.000231856)
(0.0142243 0 0.0002913)
(0.0139016 0 0.00036774)
(0.0134916 0 0.000465713)
(0.0129952 0 0.000590612)
(0.0124167 0 0.00074856)
(0.0117664 0 0.000945945)
(0.0110654 0 0.00118829)
(0.0103511 0 0.00147778)
(0.00968528 0 0.00180801)
(0.00915919 0 0.00215335)
(0.00889058 0 0.00244827)
(0.00860359 0 0.00288906)
(0 0 0)
(0.00217644 0 6.3661e-06)
(0.0041611 0 1.23506e-05)
(0.00591138 0 1.79778e-05)
(0.0074494 0 2.34424e-05)
(0.00879528 0 2.89339e-05)
(0.00996702 0 3.46504e-05)
(0.0109807 0 4.08123e-05)
(0.0118507 0 4.76765e-05)
(0.0125896 0 5.55542e-05)
(0.0132085 0 6.48305e-05)
(0.0137174 0 7.59907e-05)
(0.0141245 0 8.9652e-05)
(0.0144373 0 0.000106604)
(0.0146621 0 0.000127858)
(0.0148042 0 0.000154712)
(0.0148684 0 0.000188821)
(0.0148587 0 0.000232288)
(0.0147791 0 0.00028776)
(0.0146336 0 0.000358523)
(0.0144271 0 0.000448584)
(0.0141661 0 0.000562689)
(0.0138597 0 0.000706233)
(0.0135212 0 0.000884915)
(0.0131702 0 0.00110391)
(0.0128343 0 0.00136618)
(0.0125512 0 0.00166931)
(0.0123672 0 0.00199997)
(0.0123273 0 0.00232495)
(0.0124497 0 0.0025793)
(0.0126788 0 0.00291077)
(0 0 0)
(0.00217788 0 7.86961e-06)
(0.00416424 0 1.52607e-05)
(0.00591671 0 2.21968e-05)
(0.00745758 0 2.89116e-05)
(0.00880716 0 3.56308e-05)
(0.00998368 0 4.25878e-05)
(0.0110035 0 5.00387e-05)
(0.0118812 0 5.8279e-05)
(0.0126298 0 6.76611e-05)
(0.013261 0 7.86166e-05)
(0.0137852 0 9.1682e-05)
(0.0142117 0 0.000107531)
(0.0145488 0 0.000127014)
(0.0148044 0 0.000151207)
(0.0149854 0 0.000181466)
(0.015099 0 0.000219496)
(0.0151521 0 0.00026742)
(0.0151523 0 0.000327854)
(0.0151083 0 0.000403963)
(0.0150307 0 0.000499478)
(0.0149326 0 0.000618626)
(0.0148306 0 0.000765904)
(0.0147459 0 0.000945554)
(0.0147042 0 0.0011605)
(0.0147357 0 0.00141046)
(0.0148711 0 0.00168895)
(0.0151322 0 0.00197873)
(0.0155123 0 0.00224645)
(0.0159399 0 0.002439)
(0.0165463 0 0.0026677)
(0 0 0)
(0.00217954 0 9.31497e-06)
(0.00416787 0 1.80538e-05)
(0.00592284 0 2.62352e-05)
(0.007467 0 3.41263e-05)
(0.00882085 0 4.19823e-05)
(0.0100029 0 5.00634e-05)
(0.0110297 0 5.8651e-05)
(0.0119162 0 6.80643e-05)
(0.012676 0 7.86776e-05)
(0.0133211 0 9.09416e-05)
(0.0138626 0 0.000105407)
(0.0143107 0 0.000122755)
(0.0146749 0 0.000143826)
(0.0149642 0 0.000169666)
(0.0151875 0 0.000201566)
(0.015354 0 0.000241107)
(0.0154734 0 0.000290206)
(0.0155567 0 0.000351151)
(0.0156167 0 0.0004266)
(0.0156688 0 0.000519533)
(0.0157314 0 0.000633089)
(0.0158269 0 0.000770251)
(0.0159815 0 0.000933239)
(0.016224 0 0.00112245)
(0.0165824 0 0.00133484)
(0.0170761 0 0.00156164)
(0.0177007 0 0.00178575)
(0.0184025 0 0.00197988)
(0.0190422 0 0.00210798)
(0.0199082 0 0.00225191)
(0 0 0)
(0.00218136 0 1.06925e-05)
(0.00417182 0 2.07108e-05)
(0.00592954 0 3.00645e-05)
(0.00747729 0 3.90476e-05)
(0.00883585 0 4.79381e-05)
(0.0100239 0 5.70144e-05)
(0.0110585 0 6.65719e-05)
(0.0119547 0 7.69387e-05)
(0.0127265 0 8.84914e-05)
(0.0133867 0 0.000101673)
(0.0139468 0 0.000117014)
(0.0144179 0 0.000135153)
(0.0148104 0 0.00015686)
(0.0151347 0 0.000183064)
(0.0154011 0 0.000214879)
(0.0156207 0 0.000253618)
(0.0158054 0 0.000300808)
(0.015969 0 0.000358172)
(0.0161272 0 0.000427582)
(0.0162987 0 0.000510944)
(0.0165055 0 0.000609974)
(0.0167728 0 0.000725856)
(0.0171289 0 0.000858689)
(0.0176018 0 0.00100665)
(0.0182145 0 0.00116491)
(0.0189741 0 0.00132453)
(0.0198538 0 0.00147168)
(0.0207662 0 0.00158842)
(0.0215297 0 0.00165641)
(0.0225549 0 0.0017236)
(0 0 0)
(0.00218324 0 1.19943e-05)
(0.00417592 0 2.32159e-05)
(0.0059365 0 3.36611e-05)
(0.00748804 0 4.36447e-05)
(0.00885158 0 5.34599e-05)
(0.0100461 0 6.33951e-05)
(0.0110888 0 7.37492e-05)
(0.0119952 0 8.4845e-05)
(0.0127797 0 9.70432e-05)
(0.0134554 0 0.000110756)
(0.0140347 0 0.000126461)
(0.0145291 0 0.000144715)
(0.01495 0 0.000166164)
(0.0153087 0 0.000191556)
(0.0156168 0 0.000221741)
(0.0158867 0 0.000257663)
(0.0161319 0 0.000300332)
(0.0163677 0 0.00035077)
(0.0166116 0 0.000409911)
(0.0168836 0 0.000478445)
(0.0172067 0 0.000556578)
(0.0176064 0 0.000643721)
(0.0181094 0 0.000738091)
(0.0187402 0 0.000836235)
(0.019515 0 0.000932647)
(0.0204303 0 0.00101975)
(0.0214445 0 0.0010887)
(0.0224532 0 0.00113168)
(0.023259 0 0.00114631)
(0.0243398 0 0.00114578)
(0 0 0)
(0.00218507 0 1.32139e-05)
(0.00417993 0 2.55569e-05)
(0.00594338 0 3.70075e-05)
(0.00749878 0 4.78951e-05)
(0.0088674 0 5.85219e-05)
(0.0100685 0 6.91783e-05)
(0.0111195 0 8.01566e-05)
(0.0120364 0 9.17627e-05)
(0.0128337 0 0.000104326)
(0.0135251 0 0.000118208)
(0.0141232 0 0.00013381)
(0.0146404 0 0.000151577)
(0.0150885 0 0.000171994)
(0.0154797 0 0.000195585)
(0.0158262 0 0.000222888)
(0.0161411 0 0.000254424)
(0.0164388 0 0.000290637)
(0.0167349 0 0.000331805)
(0.0170471 0 0.000377914)
(0.017395 0 0.000428481)
(0.0178001 0 0.000482327)
(0.0182851 0 0.000537355)
(0.0188726 0 0.000590352)
(0.0195809 0 0.0006369)
(0.0204189 0 0.000671653)
(0.0213753 0 0.000689251)
(0.0224032 0 0.000686208)
(0.023398 0 0.00066402)
(0.0241717 0 0.000633518)
(0.0252047 0 0.000573479)
(0 0 0)
(0.00218674 0 1.43469e-05)
(0.00418362 0 2.77253e-05)
(0.00594982 0 4.00922e-05)
(0.00750899 0 5.17858e-05)
(0.00888266 0 6.31114e-05)
(0.0100903 0 7.43545e-05)
(0.0111496 0 8.57931e-05)
(0.0120768 0 9.77062e-05)
(0.0128867 0 0.00011038)
(0.0135932 0 0.000124114)
(0.0142095 0 0.000139214)
(0.0147481 0 0.000155998)
(0.0152214 0 0.000174771)
(0.0156418 0 0.000195816)
(0.016022 0 0.000219348)
(0.0163751 0 0.000245462)
(0.0167152 0 0.000274058)
(0.0170576 0 0.000304727)
(0.0174186 0 0.000336615)
(0.0178155 0 0.000368258)
(0.0182664 0 0.00039739)
(0.0187891 0 0.000420828)
(0.0193993 0 0.000434468)
(0.0201079 0 0.000433527)
(0.0209159 0 0.000413321)
(0.0218074 0 0.000370854)
(0.0227384 0 0.00030742)
(0.0236196 0 0.000232149)
(0.024295 0 0.000165985)
(0.0251899 0 6.1814e-05)
(0 0 0)
(0.0021881 0 1.53909e-05)
(0.00418673 0 2.97167e-05)
(0.00595542 0 4.29096e-05)
(0.00751814 0 5.5312e-05)
(0.00889666 0 6.72273e-05)
(0.0101106 0 7.89308e-05)
(0.011178 0 9.06799e-05)
(0.0121151 0 0.00010272)
(0.012937 0 0.000115289)
(0.0136578 0 0.000128611)
(0.0142909 0 0.000142897)
(0.014849 0 0.000158328)
(0.0153448 0 0.000175032)
(0.0157904 0 0.000193056)
(0.0161985 0 0.000212315)
(0.0165819 0 0.000232526)
(0.0169539 0 0.000253121)
(0.017328 0 0.000273137)
(0.0177182 0 0.000291086)
(0.0181386 0 0.000304815)
(0.0186021 0 0.000311377)
(0.01912 0 0.000307009)
(0.0197001 0 0.00028728)
(0.0203445 0 0.000247531)
(0.0210465 0 0.000183921)
(0.0217872 0 9.53732e-05)
(0.0225306 0 -1.33722e-05)
(0.0232144 0 -0.000127777)
(0.0237336 0 -0.000219748)
(0.0244154 0 -0.000352099)
(0 0 0)
(0.00218902 0 1.63452e-05)
(0.00418898 0 3.15303e-05)
(0.00595979 0 4.54598e-05)
(0.00752572 0 5.84772e-05)
(0.00890872 0 7.08799e-05)
(0.0101287 0 8.29289e-05)
(0.0112035 0 9.48576e-05)
(0.0121499 0 0.000106874)
(0.0129829 0 0.000119163)
(0.0137169 0 0.000131877)
(0.0143651 0 0.000145129)
(0.0149405 0 0.000158972)
(0.0154553 0 0.000173372)
(0.0159218 0 0.000188169)
(0.016352 0 0.000203027)
(0.0167577 0 0.000217363)
(0.0171509 0 0.000230265)
(0.0175432 0 0.000240396)
(0.0179454 0 0.000245887)
(0.0183674 0 0.000244247)
(0.0188167 0 0.000232295)
(0.0192976 0 0.00020622)
(0.0198097 0 0.000161814)
(0.020346 0 9.49643e-05)
(0.0208923 0 2.67916e-06)
(0.0214265 0 -0.000115031)
(0.0219209 0 -0.000252026)
(0.0223441 0 -0.000391374)
(0.0226562 0 -0.00050047)
(0.023068 0 -0.000645881)
(0 0 0)
(0.00218934 0 1.72111e-05)
(0.00419009 0 3.31688e-05)
(0.00596253 0 4.77479e-05)
(0.00753117 0 6.12915e-05)
(0.00891818 0 7.4088e-05)
(0.0101435 0 8.63821e-05)
(0.0112253 0 9.83809e-05)
(0.0121801 0 0.000110255)
(0.0130232 0 0.000122137)
(0.0137688 0 0.000134112)
(0.0144303 0 0.000146203)
(0.0150203 0 0.000158353)
(0.0155509 0 0.000170391)
(0.0160337 0 0.000181998)
(0.0164801 0 0.000192649)
(0.0169007 0 0.000201562)
(0.0173059 0 0.000207623)
(0.0177047 0 0.000209316)
(0.018105 0 0.000204659)
(0.0185124 0 0.000191169)
(0.0189292 0 0.000165858)
(0.0193535 0 0.000125371)
(0.0197777 0 6.6252e-05)
(0.0201871 0 -1.46229e-05)
(0.0205605 0 -0.000119279)
(0.0208718 0 -0.00024735)
(0.0210967 0 -0.000393751)
(0.0212263 0 -0.000543909)
(0.0212859 0 -0.000664923)
(0.021364 0 -0.000812709)
(0 0 0)
(0.00218892 0 1.79917e-05)
(0.00418978 0 3.46379e-05)
(0.00596322 0 4.97831e-05)
(0.007534 0 6.37705e-05)
(0.00892441 0 7.68777e-05)
(0.0101545 0 8.93318e-05)
(0.0112424 0 0.000101314)
(0.0122047 0 0.00011296)
(0.0130566 0 0.000124354)
(0.0138123 0 0.000135521)
(0.014485 0 0.000146412)
(0.0150869 0 0.000156879)
(0.0156299 0 0.000166653)
(0.0161248 0 0.000175302)
(0.016582 0 0.000182192)
(0.0170111 0 0.000186442)
(0.0174204 0 0.000186875)
(0.0178168 0 0.000181984)
(0.0182054 0 0.00016991)
(0.0185881 0 0.000148469)
(0.0189632 0 0.00011522)
(0.0193241 0 6.76639e-05)
(0.0196582 0 3.55487e-06)
(0.0199465 0 -7.87252e-05)
(0.0201638 0 -0.000179684)
(0.0202812 0 -0.000298238)
(0.0202733 0 -0.000431334)
(0.0201354 0 -0.000572598)
(0.0199268 0 -0.000701764)
(0.0194877 0 -0.000882653)
(0 0 0)
(0.00218753 0 1.86793e-05)
(0.0041877 0 3.59463e-05)
(0.00596145 0 5.15948e-05)
(0.0075337 0 6.59531e-05)
(0.00892683 0 7.93009e-05)
(0.0101609 0 9.18469e-05)
(0.0112541 0 0.000103748)
(0.0122229 0 0.000115108)
(0.0130824 0 0.00012597)
(0.0138466 0 0.000136311)
(0.0145285 0 0.000146023)
(0.0151399 0 0.0001549)
(0.015692 0 0.000162605)
(0.0161952 0 0.000168649)
(0.0166588 0 0.000172359)
(0.0170909 0 0.000172851)
(0.0174985 0 0.000169006)
(0.0178863 0 0.000159477)
(0.0182572 0 0.00014271)
(0.0186104 0 0.000117027)
(0.0189415 0 8.0757e-05)
(0.0192416 0 3.25031e-05)
(0.0194964 0 -2.8486e-05)
(0.0196866 0 -0.000101878)
(0.0197883 0 -0.000185698)
(0.0197763 0 -0.000275653)
(0.0196296 0 -0.000364262)
(0.0193436 0 -0.000439088)
(0.0189657 0 -0.000473817)
(0.0175929 0 -0.00091071)
(0 0 0)
(0.00217382 0 0)
(0.0041552 0 0)
(0.00590127 0 0)
(0.00743384 0 0)
(0.00877264 0 0)
(0.00993528 0 0)
(0.0109373 0 0)
(0.0117925 0 0)
(0.0125126 0 0)
(0.0131078 0 0)
(0.0135864 0 0)
(0.0139553 0 0)
(0.0142194 0 0)
(0.0143818 0 0)
(0.014444 0 0)
(0.0144052 0 0)
(0.0142626 0 0)
(0.014011 0 0)
(0.0136427 0 0)
(0.0131477 0 0)
(0.012514 0 0)
(0.0117279 0 0)
(0.0107762 0 0)
(0.00964898 0 0)
(0.00834467 0 0)
(0.00687941 0 0)
(0.00530374 0 0)
(0.00373622 0 0)
(0.00245168 0 0)
(0 0 0)
(0 0 0)
(0.00217392 0 1.61989e-06)
(0.00415553 0 3.14513e-06)
(0.00590189 0 4.58414e-06)
(0.00743483 0 5.98895e-06)
(0.0087741 0 7.41091e-06)
(0.00993734 0 8.90463e-06)
(0.0109402 0 1.05321e-05)
(0.0117963 0 1.2367e-05)
(0.0125176 0 1.45002e-05)
(0.0131144 0 1.70468e-05)
(0.013595 0 2.01539e-05)
(0.0139664 0 2.40125e-05)
(0.0142338 0 2.88717e-05)
(0.0144004 0 3.50571e-05)
(0.014468 0 4.29954e-05)
(0.0144363 0 5.3244e-05)
(0.0143028 0 6.653e-05)
(0.0140632 0 8.37965e-05)
(0.0137105 0 0.000106259)
(0.0132361 0 0.000135472)
(0.0126291 0 0.000173396)
(0.0118779 0 0.000222479)
(0.0109716 0 0.000285717)
(0.0099033 0 0.000366674)
(0.00867503 0 0.000469385)
(0.0073077 0 0.00059792)
(0.00585759 0 0.000754922)
(0.00444779 0 0.000936848)
(0.00334 0 0.00111806)
(0.0017253 0 0.00151817)
(0 0 0)
(0.00217444 0 3.22909e-06)
(0.00415669 0 6.26847e-06)
(0.00590387 0 9.13406e-06)
(0.00743786 0 1.19285e-05)
(0.0087785 0 1.4753e-05)
(0.0099435 0 1.77146e-05)
(0.0109486 0 2.09343e-05)
(0.0118076 0 2.45559e-05)
(0.0125325 0 2.87556e-05)
(0.0131339 0 3.37553e-05)
(0.0136205 0 3.98389e-05)
(0.0139994 0 4.73728e-05)
(0.0142763 0 5.68332e-05)
(0.0144553 0 6.88406e-05)
(0.0145388 0 8.42043e-05)
(0.0145277 0 0.000103978)
(0.014421 0 0.000129528)
(0.0142163 0 0.000162618)
(0.0139092 0 0.000205504)
(0.0134941 0 0.000261046)
(0.0129644 0 0.000332809)
(0.0123138 0 0.000425163)
(0.0115376 0 0.000543311)
(0.0106366 0 0.000693155)
(0.00962188 0 0.000880805)
(0.00852403 0 0.00111122)
(0.00740727 0 0.00138469)
(0.00639109 0 0.00168777)
(0.0056839 0 0.00196957)
(0.0047441 0 0.0024629)
(0 0 0)
(0.00217529 0 4.81533e-06)
(0.00415855 0 9.34533e-06)
(0.00590705 0 1.36115e-05)
(0.00744276 0 1.77645e-05)
(0.00878562 0 2.19519e-05)
(0.00995348 0 2.63294e-05)
(0.0109622 0 3.10715e-05)
(0.0118259 0 3.6384e-05)
(0.0125568 0 4.25181e-05)
(0.0131657 0 4.97879e-05)
(0.0136617 0 5.85924e-05)
(0.0140528 0 6.94441e-05)
(0.0143451 0 8.30044e-05)
(0.0145439 0 0.00010013)
(0.0146528 0 0.00012193)
(0.0146744 0 0.000149837)
(0.0146101 0 0.000185694)
(0.0144602 0 0.000231856)
(0.0142243 0 0.0002913)
(0.0139016 0 0.00036774)
(0.0134916 0 0.000465713)
(0.0129952 0 0.000590612)
(0.0124167 0 0.00074856)
(0.0117664 0 0.000945945)
(0.0110654 0 0.00118829)
(0.0103511 0 0.00147778)
(0.00968528 0 0.00180801)
(0.00915919 0 0.00215335)
(0.00889058 0 0.00244827)
(0.00860359 0 0.00288906)
(0 0 0)
(0.00217644 0 6.3661e-06)
(0.0041611 0 1.23506e-05)
(0.00591138 0 1.79778e-05)
(0.0074494 0 2.34424e-05)
(0.00879528 0 2.89339e-05)
(0.00996702 0 3.46504e-05)
(0.0109807 0 4.08123e-05)
(0.0118507 0 4.76765e-05)
(0.0125896 0 5.55542e-05)
(0.0132085 0 6.48305e-05)
(0.0137174 0 7.59907e-05)
(0.0141245 0 8.9652e-05)
(0.0144373 0 0.000106604)
(0.0146621 0 0.000127858)
(0.0148042 0 0.000154712)
(0.0148684 0 0.000188821)
(0.0148587 0 0.000232288)
(0.0147791 0 0.00028776)
(0.0146336 0 0.000358523)
(0.0144271 0 0.000448584)
(0.0141661 0 0.000562689)
(0.0138597 0 0.000706233)
(0.0135212 0 0.000884915)
(0.0131702 0 0.00110391)
(0.0128343 0 0.00136618)
(0.0125512 0 0.00166931)
(0.0123672 0 0.00199997)
(0.0123273 0 0.00232495)
(0.0124497 0 0.0025793)
(0.0126788 0 0.00291077)
(0 0 0)
(0.00217788 0 7.86961e-06)
(0.00416424 0 1.52607e-05)
(0.00591671 0 2.21968e-05)
(0.00745758 0 2.89116e-05)
(0.00880716 0 3.56308e-05)
(0.00998368 0 4.25878e-05)
(0.0110035 0 5.00387e-05)
(0.0118812 0 5.8279e-05)
(0.0126298 0 6.76611e-05)
(0.013261 0 7.86166e-05)
(0.0137852 0 9.1682e-05)
(0.0142117 0 0.000107531)
(0.0145488 0 0.000127014)
(0.0148044 0 0.000151207)
(0.0149854 0 0.000181466)
(0.015099 0 0.000219496)
(0.0151521 0 0.00026742)
(0.0151523 0 0.000327854)
(0.0151083 0 0.000403963)
(0.0150307 0 0.000499478)
(0.0149326 0 0.000618626)
(0.0148306 0 0.000765904)
(0.0147459 0 0.000945554)
(0.0147042 0 0.0011605)
(0.0147357 0 0.00141046)
(0.0148711 0 0.00168895)
(0.0151322 0 0.00197873)
(0.0155123 0 0.00224645)
(0.0159399 0 0.002439)
(0.0165463 0 0.0026677)
(0 0 0)
(0.00217954 0 9.31497e-06)
(0.00416787 0 1.80538e-05)
(0.00592284 0 2.62352e-05)
(0.007467 0 3.41263e-05)
(0.00882085 0 4.19823e-05)
(0.0100029 0 5.00634e-05)
(0.0110297 0 5.8651e-05)
(0.0119162 0 6.80643e-05)
(0.012676 0 7.86776e-05)
(0.0133211 0 9.09416e-05)
(0.0138626 0 0.000105407)
(0.0143107 0 0.000122755)
(0.0146749 0 0.000143826)
(0.0149642 0 0.000169666)
(0.0151875 0 0.000201566)
(0.015354 0 0.000241107)
(0.0154734 0 0.000290206)
(0.0155567 0 0.000351151)
(0.0156167 0 0.0004266)
(0.0156688 0 0.000519533)
(0.0157314 0 0.000633089)
(0.0158269 0 0.000770251)
(0.0159815 0 0.000933239)
(0.016224 0 0.00112245)
(0.0165824 0 0.00133484)
(0.0170761 0 0.00156164)
(0.0177007 0 0.00178575)
(0.0184025 0 0.00197988)
(0.0190422 0 0.00210798)
(0.0199082 0 0.00225191)
(0 0 0)
(0.00218136 0 1.06925e-05)
(0.00417182 0 2.07108e-05)
(0.00592954 0 3.00645e-05)
(0.00747729 0 3.90476e-05)
(0.00883585 0 4.79381e-05)
(0.0100239 0 5.70144e-05)
(0.0110585 0 6.65719e-05)
(0.0119547 0 7.69387e-05)
(0.0127265 0 8.84914e-05)
(0.0133867 0 0.000101673)
(0.0139468 0 0.000117014)
(0.0144179 0 0.000135153)
(0.0148104 0 0.00015686)
(0.0151347 0 0.000183064)
(0.0154011 0 0.000214879)
(0.0156207 0 0.000253618)
(0.0158054 0 0.000300808)
(0.015969 0 0.000358172)
(0.0161272 0 0.000427582)
(0.0162987 0 0.000510944)
(0.0165055 0 0.000609974)
(0.0167728 0 0.000725856)
(0.0171289 0 0.000858689)
(0.0176018 0 0.00100665)
(0.0182145 0 0.00116491)
(0.0189741 0 0.00132453)
(0.0198538 0 0.00147168)
(0.0207662 0 0.00158842)
(0.0215297 0 0.00165641)
(0.0225549 0 0.0017236)
(0 0 0)
(0.00218324 0 1.19943e-05)
(0.00417592 0 2.32159e-05)
(0.0059365 0 3.36611e-05)
(0.00748804 0 4.36447e-05)
(0.00885158 0 5.34599e-05)
(0.0100461 0 6.33951e-05)
(0.0110888 0 7.37492e-05)
(0.0119952 0 8.4845e-05)
(0.0127797 0 9.70432e-05)
(0.0134554 0 0.000110756)
(0.0140347 0 0.000126461)
(0.0145291 0 0.000144715)
(0.01495 0 0.000166164)
(0.0153087 0 0.000191556)
(0.0156168 0 0.000221741)
(0.0158867 0 0.000257663)
(0.0161319 0 0.000300332)
(0.0163677 0 0.00035077)
(0.0166116 0 0.000409911)
(0.0168836 0 0.000478445)
(0.0172067 0 0.000556578)
(0.0176064 0 0.000643721)
(0.0181094 0 0.000738091)
(0.0187402 0 0.000836235)
(0.019515 0 0.000932647)
(0.0204303 0 0.00101975)
(0.0214445 0 0.0010887)
(0.0224532 0 0.00113168)
(0.023259 0 0.00114631)
(0.0243398 0 0.00114578)
(0 0 0)
(0.00218507 0 1.32139e-05)
(0.00417993 0 2.55569e-05)
(0.00594338 0 3.70075e-05)
(0.00749878 0 4.78951e-05)
(0.0088674 0 5.85219e-05)
(0.0100685 0 6.91783e-05)
(0.0111195 0 8.01566e-05)
(0.0120364 0 9.17627e-05)
(0.0128337 0 0.000104326)
(0.0135251 0 0.000118208)
(0.0141232 0 0.00013381)
(0.0146404 0 0.000151577)
(0.0150885 0 0.000171994)
(0.0154797 0 0.000195585)
(0.0158262 0 0.000222888)
(0.0161411 0 0.000254424)
(0.0164388 0 0.000290637)
(0.0167349 0 0.000331805)
(0.0170471 0 0.000377914)
(0.017395 0 0.000428481)
(0.0178001 0 0.000482327)
(0.0182851 0 0.000537355)
(0.0188726 0 0.000590352)
(0.0195809 0 0.0006369)
(0.0204189 0 0.000671653)
(0.0213753 0 0.000689251)
(0.0224032 0 0.000686208)
(0.023398 0 0.00066402)
(0.0241717 0 0.000633518)
(0.0252047 0 0.000573479)
(0 0 0)
(0.00218674 0 1.43469e-05)
(0.00418362 0 2.77253e-05)
(0.00594982 0 4.00922e-05)
(0.00750899 0 5.17858e-05)
(0.00888266 0 6.31114e-05)
(0.0100903 0 7.43545e-05)
(0.0111496 0 8.57931e-05)
(0.0120768 0 9.77062e-05)
(0.0128867 0 0.00011038)
(0.0135932 0 0.000124114)
(0.0142095 0 0.000139214)
(0.0147481 0 0.000155998)
(0.0152214 0 0.000174771)
(0.0156418 0 0.000195816)
(0.016022 0 0.000219348)
(0.0163751 0 0.000245462)
(0.0167152 0 0.000274058)
(0.0170576 0 0.000304727)
(0.0174186 0 0.000336615)
(0.0178155 0 0.000368258)
(0.0182664 0 0.00039739)
(0.0187891 0 0.000420828)
(0.0193993 0 0.000434468)
(0.0201079 0 0.000433527)
(0.0209159 0 0.000413321)
(0.0218074 0 0.000370854)
(0.0227384 0 0.00030742)
(0.0236196 0 0.000232149)
(0.024295 0 0.000165985)
(0.0251899 0 6.1814e-05)
(0 0 0)
(0.0021881 0 1.53909e-05)
(0.00418673 0 2.97167e-05)
(0.00595542 0 4.29096e-05)
(0.00751814 0 5.5312e-05)
(0.00889666 0 6.72273e-05)
(0.0101106 0 7.89308e-05)
(0.011178 0 9.06799e-05)
(0.0121151 0 0.00010272)
(0.012937 0 0.000115289)
(0.0136578 0 0.000128611)
(0.0142909 0 0.000142897)
(0.014849 0 0.000158328)
(0.0153448 0 0.000175032)
(0.0157904 0 0.000193056)
(0.0161985 0 0.000212315)
(0.0165819 0 0.000232526)
(0.0169539 0 0.000253121)
(0.017328 0 0.000273137)
(0.0177182 0 0.000291086)
(0.0181386 0 0.000304815)
(0.0186021 0 0.000311377)
(0.01912 0 0.000307009)
(0.0197001 0 0.00028728)
(0.0203445 0 0.000247531)
(0.0210465 0 0.000183921)
(0.0217872 0 9.53732e-05)
(0.0225306 0 -1.33722e-05)
(0.0232144 0 -0.000127777)
(0.0237336 0 -0.000219748)
(0.0244154 0 -0.000352099)
(0 0 0)
(0.00218902 0 1.63452e-05)
(0.00418898 0 3.15303e-05)
(0.00595979 0 4.54598e-05)
(0.00752572 0 5.84772e-05)
(0.00890872 0 7.08799e-05)
(0.0101287 0 8.29289e-05)
(0.0112035 0 9.48576e-05)
(0.0121499 0 0.000106874)
(0.0129829 0 0.000119163)
(0.0137169 0 0.000131877)
(0.0143651 0 0.000145129)
(0.0149405 0 0.000158972)
(0.0154553 0 0.000173372)
(0.0159218 0 0.000188169)
(0.016352 0 0.000203027)
(0.0167577 0 0.000217363)
(0.0171509 0 0.000230265)
(0.0175432 0 0.000240396)
(0.0179454 0 0.000245887)
(0.0183674 0 0.000244247)
(0.0188167 0 0.000232295)
(0.0192976 0 0.00020622)
(0.0198097 0 0.000161814)
(0.020346 0 9.49643e-05)
(0.0208923 0 2.67916e-06)
(0.0214265 0 -0.000115031)
(0.0219209 0 -0.000252026)
(0.0223441 0 -0.000391374)
(0.0226562 0 -0.00050047)
(0.023068 0 -0.000645881)
(0 0 0)
(0.00218934 0 1.72111e-05)
(0.00419009 0 3.31688e-05)
(0.00596253 0 4.77479e-05)
(0.00753117 0 6.12915e-05)
(0.00891818 0 7.4088e-05)
(0.0101435 0 8.63821e-05)
(0.0112253 0 9.83809e-05)
(0.0121801 0 0.000110255)
(0.0130232 0 0.000122137)
(0.0137688 0 0.000134112)
(0.0144303 0 0.000146203)
(0.0150203 0 0.000158353)
(0.0155509 0 0.000170391)
(0.0160337 0 0.000181998)
(0.0164801 0 0.000192649)
(0.0169007 0 0.000201562)
(0.0173059 0 0.000207623)
(0.0177047 0 0.000209316)
(0.018105 0 0.000204659)
(0.0185124 0 0.000191169)
(0.0189292 0 0.000165858)
(0.0193535 0 0.000125371)
(0.0197777 0 6.6252e-05)
(0.0201871 0 -1.46229e-05)
(0.0205605 0 -0.000119279)
(0.0208718 0 -0.00024735)
(0.0210967 0 -0.000393751)
(0.0212263 0 -0.000543909)
(0.0212859 0 -0.000664923)
(0.021364 0 -0.000812709)
(0 0 0)
(0.00218892 0 1.79917e-05)
(0.00418978 0 3.46379e-05)
(0.00596322 0 4.97831e-05)
(0.007534 0 6.37705e-05)
(0.00892441 0 7.68777e-05)
(0.0101545 0 8.93318e-05)
(0.0112424 0 0.000101314)
(0.0122047 0 0.00011296)
(0.0130566 0 0.000124354)
(0.0138123 0 0.000135521)
(0.014485 0 0.000146412)
(0.0150869 0 0.000156879)
(0.0156299 0 0.000166653)
(0.0161248 0 0.000175302)
(0.016582 0 0.000182192)
(0.0170111 0 0.000186442)
(0.0174204 0 0.000186875)
(0.0178168 0 0.000181984)
(0.0182054 0 0.00016991)
(0.0185881 0 0.000148469)
(0.0189632 0 0.00011522)
(0.0193241 0 6.76639e-05)
(0.0196582 0 3.55487e-06)
(0.0199465 0 -7.87252e-05)
(0.0201638 0 -0.000179684)
(0.0202812 0 -0.000298238)
(0.0202733 0 -0.000431334)
(0.0201354 0 -0.000572598)
(0.0199268 0 -0.000701764)
(0.0194877 0 -0.000882653)
(0 0 0)
(0.00218753 0 1.86793e-05)
(0.0041877 0 3.59463e-05)
(0.00596145 0 5.15948e-05)
(0.0075337 0 6.59531e-05)
(0.00892683 0 7.93009e-05)
(0.0101609 0 9.18469e-05)
(0.0112541 0 0.000103748)
(0.0122229 0 0.000115108)
(0.0130824 0 0.00012597)
(0.0138466 0 0.000136311)
(0.0145285 0 0.000146023)
(0.0151399 0 0.0001549)
(0.015692 0 0.000162605)
(0.0161952 0 0.000168649)
(0.0166588 0 0.000172359)
(0.0170909 0 0.000172851)
(0.0174985 0 0.000169006)
(0.0178863 0 0.000159477)
(0.0182572 0 0.00014271)
(0.0186104 0 0.000117027)
(0.0189415 0 8.0757e-05)
(0.0192416 0 3.25031e-05)
(0.0194964 0 -2.8486e-05)
(0.0196866 0 -0.000101878)
(0.0197883 0 -0.000185698)
(0.0197763 0 -0.000275653)
(0.0196296 0 -0.000364262)
(0.0193436 0 -0.000439088)
(0.0189657 0 -0.000473817)
(0.0175929 0 -0.00091071)
(0 0 0)
(0.00261792 0 0)
(0.00412218 0 0)
(0.00592559 0 0)
(0.00771135 0 0)
(0.00933461 0 0)
(0.0107413 0 0)
(0.0119227 0 0)
(0.0128907 0 0)
(0.0136655 0 0)
(0.0142688 0 0)
(0.0147205 0 0)
(0.0150375 0 0)
(0.015233 0 0)
(0.0153167 0 0)
(0.0152953 0 0)
(0.0151724 0 0)
(0.014949 0 0)
(0.0146241 0 0)
(0.0141945 0 0)
(0.0136551 0 0)
(0.0129994 0 0)
(0.0122188 0 0)
(0.0113034 0 0)
(0.0102417 0 0)
(0.00902032 0 0)
(0.00762446 0 0)
(0.00603744 0 0)
(0.00424085 0 0)
(0.00221428 0 0)
(0 0 0)
(0.00158895 0 -0.0014147)
(0.00347833 0 -0.00105916)
(0.00484233 0 -0.00091045)
(0.00649938 0 -0.000740103)
(0.00815828 0 -0.000582847)
(0.00967826 0 -0.000448984)
(0.0110034 0 -0.000339682)
(0.0121215 0 -0.000252695)
(0.013041 0 -0.000184699)
(0.0137789 0 -0.000132272)
(0.0143544 0 -9.23111e-05)
(0.0147852 0 -6.21622e-05)
(0.0150864 0 -3.96415e-05)
(0.0152701 0 -2.29965e-05)
(0.0153449 0 -1.08455e-05)
(0.0153167 0 -2.11339e-06)
(0.0151887 0 4.02817e-06)
(0.0149614 0 8.21249e-06)
(0.0146335 0 1.09206e-05)
(0.0142016 0 1.25155e-05)
(0.0136606 0 1.32698e-05)
(0.0130034 0 1.33862e-05)
(0.0122218 0 1.30139e-05)
(0.0113056 0 1.22605e-05)
(0.0102433 0 1.12016e-05)
(0.00902145 0 9.8867e-06)
(0.00762523 0 8.34494e-06)
(0.00603794 0 6.58794e-06)
(0.00424114 0 4.61256e-06)
(0.00221438 0 2.40244e-06)
(0 0 0)
(0.0045463 0 -0.00231754)
(0.00577394 0 -0.00187662)
(0.00680868 0 -0.00163374)
(0.00809426 0 -0.00134467)
(0.00941566 0 -0.00106935)
(0.0106532 0 -0.000829799)
(0.0117516 0 -0.000631185)
(0.0126918 0 -0.000471365)
(0.0134739 0 -0.000345398)
(0.0141069 0 -0.000247649)
(0.0146027 0 -0.000172755)
(0.0149732 0 -0.000116013)
(0.015229 0 -7.34817e-05)
(0.0153783 0 -4.196e-05)
(0.0154273 0 -1.89011e-05)
(0.0153795 0 -2.3088e-06)
(0.0152365 0 9.3644e-06)
(0.0149979 0 1.73076e-05)
(0.0146613 0 2.24282e-05)
(0.0142228 0 2.54137e-05)
(0.0136765 0 2.6782e-05)
(0.0130154 0 2.69195e-05)
(0.0122307 0 2.61109e-05)
(0.0113122 0 2.45625e-05)
(0.010248 0 2.24183e-05)
(0.00902482 0 1.97732e-05)
(0.00762757 0 1.66819e-05)
(0.00603952 0 1.31656e-05)
(0.00424214 0 9.21622e-06)
(0.00221488 0 4.79983e-06)
(0 0 0)
(0.00836295 0 -0.00276654)
(0.00894585 0 -0.00234747)
(0.00959168 0 -0.00207238)
(0.0104029 0 -0.00173129)
(0.0112685 0 -0.00139427)
(0.0121101 0 -0.00109281)
(0.0128821 0 -0.000837631)
(0.0135615 0 -0.000629022)
(0.0141394 0 -0.000462553)
(0.0146146 0 -0.000332084)
(0.0149894 0 -0.000231304)
(0.0152677 0 -0.000154433)
(0.0154534 0 -9.64923e-05)
(0.0155495 0 -5.33576e-05)
(0.015558 0 -2.16987e-05)
(0.0154795 0 1.12671e-06)
(0.015313 0 1.71879e-05)
(0.0150564 0 2.8089e-05)
(0.0147059 0 3.50631e-05)
(0.0142566 0 3.90513e-05)
(0.0137021 0 4.07662e-05)
(0.0130346 0 4.07421e-05)
(0.012245 0 3.93746e-05)
(0.0113226 0 3.69503e-05)
(0.0102555 0 3.36697e-05)
(0.00903013 0 2.9664e-05)
(0.00763123 0 2.50075e-05)
(0.00604196 0 1.97263e-05)
(0.00424366 0 1.38046e-05)
(0.00221563 0 7.18837e-06)
(0 0 0)
(0.012431 0 -0.00283695)
(0.0124823 0 -0.00248307)
(0.0127425 0 -0.00221735)
(0.0130682 0 -0.0018783)
(0.0134477 0 -0.00153238)
(0.0138518 0 -0.00121431)
(0.014253 0 -0.000938915)
(0.0146295 0 -0.000709572)
(0.0149658 0 -0.000523731)
(0.0152513 0 -0.000376199)
(0.0154789 0 -0.000260997)
(0.0156436 0 -0.000172319)
(0.015742 0 -0.00010497)
(0.0157712 0 -5.45265e-05)
(0.0157284 0 -1.73396e-05)
(0.0156104 0 9.53526e-06)
(0.0154136 0 2.84383e-05)
(0.0151336 0 4.12067e-05)
(0.014765 0 4.92687e-05)
(0.0143016 0 5.37251e-05)
(0.0137362 0 5.5416e-05)
(0.0130602 0 5.49761e-05)
(0.0122639 0 5.28776e-05)
(0.0113365 0 4.94637e-05)
(0.0102654 0 4.49739e-05)
(0.00903709 0 3.9564e-05)
(0.00763599 0 3.33193e-05)
(0.00604509 0 2.62648e-05)
(0.00424559 0 1.83724e-05)
(0.00221657 0 9.56479e-06)
(0 0 0)
(0.0163236 0 -0.00262122)
(0.0159572 0 -0.00233577)
(0.0158736 0 -0.00210419)
(0.0157615 0 -0.00180415)
(0.01569 0 -0.00149014)
(0.015676 0 -0.00119398)
(0.0157128 0 -0.000931532)
(0.0157844 0 -0.00070844)
(0.0158722 0 -0.000524385)
(0.015959 0 -0.000375965)
(0.0160295 0 -0.000258486)
(0.0160712 0 -0.000167001)
(0.0160738 0 -9.68438e-05)
(0.0160284 0 -4.38929e-05)
(0.0159277 0 -4.64975e-06)
(0.0157647 0 2.37785e-05)
(0.0155328 0 4.37376e-05)
(0.0152255 0 5.71024e-05)
(0.0148356 0 6.53525e-05)
(0.0143556 0 6.96438e-05)
(0.0137771 0 7.08688e-05)
(0.0130909 0 6.97079e-05)
(0.0122866 0 6.66707e-05)
(0.011353 0 6.21289e-05)
(0.0102772 0 5.63415e-05)
(0.00904529 0 4.9474e-05)
(0.00764152 0 4.16127e-05)
(0.00604869 0 3.27746e-05)
(0.00424776 0 2.29139e-05)
(0.00221762 0 1.19257e-05)
(0 0 0)
(0.0197289 0 -0.00218173)
(0.0190483 0 -0.0019661)
(0.0186846 0 -0.00178468)