/*--------------------------------*- C++ -*----------------------------------*\
| =========                 |                                                 |
| \\      /  F ield         | OpenFOAM: The Open Source CFD Toolbox           |
|  \\    /   O peration     | Version:  dev                                   |
|   \\  /    A nd           | Web:      www.OpenFOAM.org                      |
|    \\/     M anipulation  |                                                 |
\*---------------------------------------------------------------------------*/
FoamFile
{
    version     2.0;
    format      ascii;
    class       surfaceScalarField;
    location    "0.26";
    object      meshPhi;
}
// * * * * * * * * * * * * * * * * * * * * * * * * * * * * * * * * * * * * * //

dimensions      [0 3 -1 0 0 0 0];

internalField   nonuniform List<scalar> 
879
(
1.52707e-05
-3.15717e-08
1.77437e-05
-5.80065e-08
2.0077e-05
-8.981e-08
2.21646e-05
-1.25284e-07
2.39092e-05
-1.62918e-07
2.52307e-05
-2.0121e-07
2.60719e-05
-2.38717e-07
2.6402e-05
-2.74062e-07
2.62171e-05
-3.05911e-07
2.55371e-05
-3.32945e-07
2.44007e-05
-3.5384e-07
2.28578e-05
-3.67263e-07
2.09615e-05
-3.71867e-07
1.87597e-05
-3.66306e-07
1.62892e-05
-3.49244e-07
1.35699e-05
-3.19374e-07
1.06022e-05
-2.75443e-07
7.3653e-06
-2.1629e-07
3.81632e-06
-1.40882e-07
-4.98125e-08
1.52966e-05
-6.47055e-08
1.77677e-05
-1.17175e-07
2.0101e-05
-1.80287e-07
2.21877e-05
-2.50697e-07
2.39297e-05
-3.25472e-07
2.52466e-05
-4.01656e-07
2.60816e-05
-4.76376e-07
2.64046e-05
-5.46874e-07
2.62123e-05
-6.10461e-07
2.55257e-05
-6.64481e-07
2.4384e-05
-7.06266e-07
2.28376e-05
-7.33135e-07
2.09396e-05
-7.4239e-07
1.8738e-05
-7.31335e-07
1.62693e-05
-6.97301e-07
1.3553e-05
-6.37676e-07
1.05893e-05
-5.49958e-07
7.35679e-06
-4.3183e-07
3.81239e-06
-2.81243e-07
-9.94275e-08
1.52145e-05
-1.00624e-07
1.76799e-05
-1.78021e-07
2.00107e-05
-2.71157e-07
2.20962e-05
-3.75237e-07
2.38377e-05
-4.86038e-07
2.51547e-05
-5.99222e-07
2.59906e-05
-7.10509e-07
2.63157e-05
-8.15735e-07
2.61272e-05
-9.10822e-07
2.54461e-05
-9.91727e-07
2.43117e-05
-1.05441e-06
2.27742e-05
-1.0948e-06
2.0886e-05
-1.10886e-06
1.86947e-05
-1.09252e-06
1.6236e-05
-1.04181e-06
1.35291e-05
-9.52797e-07
1.05733e-05
-8.2176e-07
7.34755e-06
-6.45239e-07
3.80843e-06
-4.20194e-07
-1.48535e-07
1.50154e-05
-1.40203e-07
1.74721e-05
-2.40952e-07
1.9798e-05
-3.62294e-07
2.18824e-05
-4.98275e-07
2.36262e-05
-6.43543e-07
2.4949e-05
-7.92467e-07
2.57941e-05
-9.39384e-07
2.6132e-05
-1.0787e-06
2.59597e-05
-1.2049e-06
2.52976e-05
-1.31249e-06
2.41843e-05
-1.39602e-06
2.26688e-05
-1.45003e-06
2.08026e-05
-1.46907e-06
1.86319e-05
-1.44777e-06
1.61914e-05
-1.3808e-06
1.34996e-05
-1.26298e-06
1.05556e-05
-1.08936e-06
7.33822e-06
-8.55366e-07
3.80466e-06
-5.57009e-07
-1.96886e-07
1.47495e-05
-1.84002e-07
1.71946e-05
-3.06436e-07
1.95134e-05
-4.54027e-07
2.15957e-05
-6.19971e-07
2.33424e-05
-7.97956e-07
2.46731e-05
-9.8116e-07
2.55313e-05
-1.16257e-06
2.58874e-05
-1.33515e-06
2.57378e-05
-1.49189e-06
2.51022e-05
-1.62583e-06
2.4018e-05
-1.73004e-06
2.25325e-05
-1.79765e-06
2.06957e-05
-1.82183e-06
1.85522e-05
-1.79585e-06
1.61355e-05
-1.71309e-06
1.34632e-05
-1.56712e-06
1.05341e-05
-1.3518e-06
7.32706e-06
-1.06147e-06
3.80019e-06
-6.91207e-07
-2.44311e-07
1.44376e-05
-2.32523e-07
1.68662e-05
-3.75091e-07
1.91742e-05
-5.47046e-07
2.12517e-05
-7.41019e-07
2.30001e-05
-9.49905e-07
2.43392e-05
-1.1658e-06
2.52129e-05
-1.38038e-06
2.5591e-05
-1.58517e-06
2.54694e-05
-1.77167e-06
2.48666e-05
-1.93139e-06
2.38182e-05
-2.05593e-06
2.23697e-05
-2.13697e-06
2.05688e-05
-2.16631e-06
1.84585e-05
-2.13588e-06
1.60705e-05
-2.03779e-06
1.34215e-05
-1.86437e-06
1.05098e-05
-1.60832e-06
7.31473e-06
-1.26293e-06
3.79535e-06
-8.22382e-07
-2.90667e-07
1.41006e-05
-2.86329e-07
1.6507e-05
-4.47752e-07
1.87989e-05
-6.42418e-07
2.08673e-05
-8.62625e-07
2.26145e-05
-1.10062e-06
2.3961e-05
-1.34753e-06
2.48506e-05
-1.59379e-06
2.52531e-05
-1.82952e-06
2.51634e-05
-2.04472e-06
2.45983e-05
-2.22939e-06
2.35913e-05
-2.37363e-06
2.21854e-05
-2.46771e-06
2.04261e-05
-2.50204e-06
1.83538e-05
-2.46726e-06
1.59987e-05
-2.35421e-06
1.33761e-05
-2.15402e-06
1.04839e-05
-1.85827e-06
7.30198e-06
-1.45922e-06
3.79051e-06
-9.50186e-07
-3.3583e-07
1.37583e-05
-3.46167e-07
1.61361e-05
-5.25535e-07
1.84056e-05
-7.41592e-07
2.04595e-05
-9.86459e-07
2.22013e-05
-1.25187e-06
2.35525e-05
-1.52806e-06
2.44573e-05
-1.80435e-06
2.48851e-05
-2.06948e-06
2.48295e-05
-2.31201e-06
2.43056e-05
-2.52046e-06
2.33442e-05
-2.68348e-06
2.19856e-05
-2.78992e-06
2.02721e-05
-2.82886e-06
1.82419e-05
-2.78964e-06
1.59229e-05
-2.66189e-06
1.3329e-05
-2.43557e-06
1.04579e-05
-2.10115e-06
7.28968e-06
-1.64992e-06
3.78607e-06
-1.07432e-06
-3.79692e-07
1.34289e-05
-4.13049e-07
1.57715e-05
-6.09867e-07
1.80118e-05
-8.46358e-07
2.00447e-05
-1.11456e-06
2.17758e-05
-1.40578e-06
2.31279e-05
-1.7095e-06
2.40458e-05
-2.01398e-06
2.44984e-05
-2.30671e-06
2.4478e-05
-2.57488e-06
2.39973e-05
-2.8056e-06
2.30844e-05
-2.98611e-06
2.17762e-05
-3.10391e-06
2.01119e-05
-3.1468e-06
1.81266e-05
-3.10285e-06
1.58459e-05
-2.96051e-06
1.32824e-05
-2.7086e-06
1.04332e-05
-2.33655e-06
7.27873e-06
-1.83465e-06
3.78248e-06
-1.19454e-06
-4.22161e-07
1.3128e-05
-4.88291e-07
1.5429e-05
-7.02459e-07
1.76331e-05
-9.58779e-07
1.96383e-05
-1.24923e-06
2.13527e-05
-1.56476e-06
2.2701e-05
-1.89419e-06
2.36288e-05
-2.22484e-06
2.41045e-05
-2.54309e-06
2.41189e-05
-2.83486e-06
2.36823e-05
-3.08596e-06
2.28194e-05
-3.28233e-06
2.15636e-05
-3.41017e-06
1.99505e-05
-3.45604e-06
1.80118e-05
-3.40684e-06
1.57709e-05
-3.24985e-06
1.32386e-05
-2.97281e-06
1.04112e-05
-2.5641e-06
7.2701e-06
-2.01309e-06
3.7802e-06
-1.3106e-06
-4.63154e-07
1.28691e-05
-5.73484e-07
1.51224e-05
-8.0525e-07
1.72833e-05
-1.08108e-06
1.92539e-05
-1.39287e-06
2.09454e-05
-1.73124e-06
2.22848e-05
-2.08448e-06
2.32185e-05
-2.4391e-06
2.37147e-05
-2.78051e-06
2.37626e-05
-3.09352e-06
2.33696e-05
-3.36276e-06
2.2557e-05
-3.57298e-06
2.13542e-05
-3.70921e-06
1.9793e-05
-3.75683e-06
1.79018e-05
-3.70162e-06
1.57009e-05
-3.52976e-06
1.31996e-05
-3.22792e-06
1.03937e-05
-2.78351e-06
7.26475e-06
-2.18496e-06
3.77971e-06
-1.42231e-06
-5.02592e-07
1.26636e-05
-6.7042e-07
1.48632e-05
-9.20304e-07
1.69745e-05
-1.21551e-06
1.89039e-05
-1.54781e-06
2.05663e-05
-1.90756e-06
2.18912e-05
-2.28259e-06
2.28263e-05
-2.65878e-06
2.33396e-05
-3.02072e-06
2.34185e-05
-3.35229e-06
2.30676e-05
-3.6371e-06
2.23044e-05
-3.85885e-06
2.11542e-05
-4.0015e-06
1.96447e-05
-4.04936e-06
1.78004e-05
-3.98716e-06
1.5639e-05
-3.80003e-06
1.31679e-05
-3.47365e-06
1.0382e-05
-2.99444e-06
7.26365e-06
-2.34996e-06
3.78146e-06
-1.52945e-06
-5.40399e-07
1.2521e-05
-7.80985e-07
1.46612e-05
-1.0497e-06
1.6717e-05
-1.36421e-06
1.8599e-05
-1.71617e-06
2.02262e-05
-2.09572e-06
2.15311e-05
-2.49037e-06
2.24629e-05
-2.88552e-06
2.29893e-05
-3.26512e-06
2.3096e-05
-3.61229e-06
2.27847e-05
-3.9098e-06
2.20689e-05
-4.14047e-06
2.09696e-05
-4.28731e-06
1.95102e-05
-4.33369e-06
1.77115e-05
-4.26334e-06
1.55881e-05
-4.06041e-06
1.31454e-05
-3.70964e-06
1.03777e-05
-3.19652e-06
7.26768e-06
-2.50775e-06
3.78588e-06
-1.63178e-06
-5.76489e-07
1.24483e-05
-9.07057e-07
1.45241e-05
-1.19548e-06
1.65197e-05
-1.5291e-06
1.83488e-05
-1.89969e-06
1.9935e-05
-2.29729e-06
2.12144e-05
-2.7092e-06
2.21378e-05
-3.12049e-06
2.26728e-05
-3.51465e-06
2.28035e-05
-3.87423e-06
2.25283e-05
-4.18134e-06
2.1857e-05
-4.41809e-06
2.0806e-05
-4.56669e-06
1.93942e-05
-4.60966e-06
1.76387e-05
-4.52985e-06
1.55509e-05
-4.31051e-06
1.31341e-05
-3.93546e-06
1.0382e-05
-3.38933e-06
7.27765e-06
-2.65797e-06
3.79334e-06
-1.72906e-06
-6.10768e-07
1.24466e-05
-1.05291e-06
1.44583e-05
-1.36136e-06
1.63904e-05
-1.71358e-06
1.81611e-05
-2.10162e-06
1.97006e-05
-2.51536e-06
2.09488e-05
-2.94208e-06
2.18585e-05
-3.36661e-06
2.23973e-05
-3.77214e-06
2.25475e-05
-4.14081e-06
2.23045e-05
-4.45429e-06
2.16739e-05
-4.69411e-06
2.06677e-05
-4.84187e-06
1.93004e-05
-4.87933e-06
1.75849e-05
-4.78854e-06
1.55296e-05
-4.55193e-06
1.31358e-05
-4.15248e-06
1.03961e-05
-3.57397e-06
7.29432e-06
-2.80144e-06
3.80424e-06
-1.82181e-06
-6.4342e-07
1.09502e-05
-9.4525e-07
1.30068e-05
-1.22495e-06
1.50298e-05
-1.55323e-06
1.69663e-05
-1.92366e-06
1.87366e-05
-2.32793e-06
2.02793e-05
-2.7558e-06
2.15365e-05
-3.19484e-06
2.24608e-05
-3.6297e-06
2.30186e-05
-4.04335e-06
2.31895e-05
-4.4177e-06
2.29658e-05
-4.73412e-06
2.23488e-05
-4.97381e-06
2.13464e-05
-5.11784e-06
1.99688e-05
-5.14736e-06
1.82254e-05
-5.04371e-06
1.61214e-05
-4.78855e-06
1.3656e-05
-4.36405e-06
1.08207e-05
-3.7532e-06
7.5989e-06
-2.94026e-06
3.96526e-06
-1.91133e-06
-6.749e-07
1.14537e-05
1.3519e-05
1.55277e-05
-1.77533e-06
1.74295e-05
-2.16435e-06
1.91598e-05
-2.58305e-06
2.06745e-05
-3.02244e-06
2.19149e-05
-3.4711e-06
2.28336e-05
-3.91315e-06
2.33961e-05
-4.33142e-06
2.35798e-05
-4.70774e-06
2.33734e-05
-5.02338e-06
2.27742e-05
-5.25943e-06
2.17852e-05
-5.39657e-06
2.04121e-05
-5.41542e-06
1.86601e-05
-5.29672e-06
1.65311e-05
-5.02142e-06
1.4022e-05
-4.57098e-06
1.11231e-05
-3.9276e-06
7.81769e-06
-3.07478e-06
4.08148e-06
-1.99783e-06
-7.05269e-07
1.6143e-05
1.80232e-05
1.97086e-05
-2.86883e-06
2.11808e-05
-3.31804e-06
2.23954e-05
-3.77288e-06
2.3299e-05
-4.2187e-06
2.38581e-05
-4.63777e-06
2.40465e-05
-5.01204e-06
2.38501e-05
-5.3228e-06
2.3262e-05
-5.55142e-06
2.22801e-05
-5.67827e-06
2.09053e-05
-5.68351e-06
1.91386e-05
-5.54736e-06
1.69783e-05
-5.25022e-06
1.4419e-05
-4.77283e-06
1.14494e-05
-4.0967e-06
8.05294e-06
-3.20458e-06
4.20615e-06
-2.081e-06
-7.34414e-07
2.03871e-05
2.18224e-05
-3.64184e-06
2.3001e-05
-4.10326e-06
2.38781e-05
-4.54843e-06
2.44244e-05
-4.96411e-06
2.46073e-05
-5.332e-06
2.44118e-05
-5.63329e-06
2.38261e-05
-5.85054e-06
2.28429e-05
-5.96353e-06
2.14582e-05
-5.95198e-06
1.96687e-05
-5.79587e-06
1.74692e-05
-5.47501e-06
1.48514e-05
-4.96956e-06
1.18029e-05
-4.26038e-06
8.30664e-06
-3.32952e-06
4.34023e-06
-2.16072e-06
-7.62285e-07
2.25874e-05
2.37439e-05
2.45948e-05
-4.90031e-06
2.51161e-05
-5.31323e-06
2.52798e-05
-5.66868e-06
2.50744e-05
-5.95505e-06
2.44806e-05
-6.15707e-06
2.34856e-05
-6.25254e-06
2.2081e-05
-6.22089e-06
2.02588e-05
-6.04215e-06
1.80102e-05
-5.69565e-06
1.53242e-05
-5.16095e-06
1.2187e-05
-4.41839e-06
8.58105e-06
-3.44934e-06
4.4848e-06
-2.23681e-06
-7.88815e-07
2.54429e-05
2.5946e-05
2.60838e-05
-6.01784e-06
2.5854e-05
-6.28876e-06
2.52405e-05
-6.4708e-06
2.4221e-05
-6.54512e-06
2.27843e-05
-6.48973e-06
2.09177e-05
-6.28574e-06
1.86084e-05
-5.91166e-06
1.58428e-05
-5.3465e-06
1.26056e-05
-4.57024e-06
8.8786e-06
-3.56366e-06
4.64105e-06
-2.30899e-06
-8.13902e-07
2.70259e-05
2.67689e-05
-6.62512e-06
2.61216e-05
-6.79258e-06
2.5062e-05
-6.84075e-06
2.35794e-05
-6.75728e-06
2.16547e-05
-6.5257e-06
1.92711e-05
-6.12221e-06
1.64128e-05
-5.52539e-06
1.30626e-05
-4.71522e-06
9.20186e-06
-3.67188e-06
4.81022e-06
-2.37687e-06
-8.37402e-07
2.78147e-05
2.71337e-05
2.60231e-05
-7.13292e-06
2.44773e-05
-7.02309e-06
2.24795e-05
-6.76068e-06
2.00058e-05
-6.32614e-06
1.70397e-05
-5.69635e-06
1.35622e-05
-4.85226e-06
9.55348e-06
-3.7732e-06
4.99361e-06
-2.4399e-06
-8.59122e-07
2.71082e-05
2.54909e-05
-7.27576e-06
2.34025e-05
-6.99048e-06
2.08199e-05
-6.52206e-06
1.77295e-05
-5.8575e-06
1.41086e-05
-4.97995e-06
9.9361e-06
-3.86657e-06
5.19248e-06
-2.49737e-06
-8.788e-07
2.66117e-05
2.44273e-05
2.1722e-05
-6.70283e-06
1.84876e-05
-6.00778e-06
1.4706e-05
-5.09655e-06
1.03522e-05
-3.95071e-06
5.408e-06
-2.54833e-06
-8.96086e-07
2.27104e-05
1.93205e-05
-6.13633e-06
1.53589e-05
-5.20121e-06
1.08041e-05
-4.02418e-06
5.64115e-06
-2.59143e-06
-9.10507e-07
2.02162e-05
1.60658e-05
1.12944e-05
-4.08147e-06
5.8926e-06
-2.626e-06
-9.21437e-07
1.18191e-05
6.16324e-06
-2.6452e-06
-9.28568e-07
6.44889e-06
-9.2771e-07
)
;

boundaryField
{
    inlet
    {
        type            calculated;
        value           nonuniform 0();
    }
    outlet
    {
        type            calculated;
        value           uniform 0;
    }
    flap
    {
        type            calculated;
        value           nonuniform 0();
    }
    upperWall
    {
        type            calculated;
        value           nonuniform 0();
    }
    lowerWall
    {
        type            calculated;
        value           uniform 0;
    }
    frontAndBack
    {
        type            empty;
        value           nonuniform 0();
    }
    procBoundary5to2
    {
        type            processor;
        value           nonuniform List<scalar> 
34
(
-1.1251e-06
-1.42615e-06
-1.41249e-05
-2.02461e-06
-2.43365e-06
-1.87075e-05
-3.17652e-06
-2.11472e-05
-3.97104e-06
-4.4471e-06
-2.45931e-05
-5.24027e-06
-5.66386e-06
-2.68947e-05
-6.34931e-06
-2.80832e-05
-6.92101e-06
-7.09514e-06
-2.8262e-05
-7.38711e-06
-2.8295e-05
-7.47102e-06
-7.18729e-06
-2.5535e-05
-6.83671e-06
-2.37593e-05
-6.20786e-06
-5.27244e-06
-1.68087e-05
-4.10258e-06
-1.23612e-05
-2.63641e-06
-6.74009e-06
-9.15692e-07
)
;
    }
    procBoundary5to4
    {
        type            processor;
        value           nonuniform List<scalar> 
18
(
-1.26858e-05
-1.26978e-05
-1.26158e-05
-1.2432e-05
-1.21885e-05
-1.19056e-05
-1.16039e-05
-1.13024e-05
-1.10186e-05
-1.07673e-05
-1.05614e-05
-1.04126e-05
-1.03318e-05
-1.03313e-05
-1.04047e-05
7.94712e-07
-8.83204e-06
-9.3329e-06
)
;
    }
}


// ************************************************************************* //
