/*--------------------------------*- C++ -*----------------------------------*\
| =========                 |                                                 |
| \\      /  F ield         | OpenFOAM: The Open Source CFD Toolbox           |
|  \\    /   O peration     | Version:  dev                                   |
|   \\  /    A nd           | Web:      www.OpenFOAM.org                      |
|    \\/     M anipulation  |                                                 |
\*---------------------------------------------------------------------------*/
FoamFile
{
    version     2.0;
    format      ascii;
    class       volVectorField;
    location    "2.61";
    object      cellDisplacement;
}
// * * * * * * * * * * * * * * * * * * * * * * * * * * * * * * * * * * * * * //

dimensions      [0 1 0 0 0 0 0];

internalField   nonuniform List<vector> 
2790
(
(0.0108568 0 -4.13467e-05)
(0.0309778 0 -0.000118296)
(0.0481128 0 -0.000185418)
(0.0625129 0 -0.000244582)
(0.074462 0 -0.000296654)
(0.0842192 0 -0.000342772)
(0.092004 0 -0.000383626)
(0.0980054 0 -0.000419631)
(0.10239 0 -0.000450532)
(0.105305 0 -0.000476327)
(0.106878 0 -0.000496744)
(0.107221 0 -0.00051128)
(0.106433 0 -0.000519227)
(0.104603 0 -0.000519696)
(0.101812 0 -0.000511729)
(0.0981407 0 -0.000495088)
(0.0936578 0 -0.00046612)
(0.0884294 0 -0.000424002)
(0.0825242 0 -0.000366795)
(0.0760137 0 -0.000292197)
(0.0689742 0 -0.000197631)
(0.0614902 0 -8.02624e-05)
(0.0536591 0 6.28851e-05)
(0.0455911 0 0.000235074)
(0.0374152 0 0.000439824)
(0.0293198 0 0.000682314)
(0.0215517 0 0.000966366)
(0.0144708 0 0.00129544)
(0.0086577 0 0.0016646)
(0.00533791 0 0.00201904)
(0.0108721 0 -0.00012419)
(0.0310228 0 -0.000355343)
(0.0481884 0 -0.00055699)
(0.0626175 0 -0.000734955)
(0.0745954 0 -0.000891541)
(0.0843858 0 -0.00103035)
(0.0922078 0 -0.00115342)
(0.0982502 0 -0.00126217)
(0.10268 0 -0.00135558)
(0.105647 0 -0.00143381)
(0.107278 0 -0.00149608)
(0.107688 0 -0.00154089)
(0.106975 0 -0.00156616)
(0.105229 0 -0.0015692)
(0.102531 0 -0.00154673)
(0.0989655 0 -0.00149519)
(0.0946068 0 -0.00141072)
(0.0895181 0 -0.00128791)
(0.083772 0 -0.00112078)
(0.0774433 0 -0.000902597)
(0.0706123 0 -0.000625862)
(0.0633689 0 -0.0002823)
(0.0558223 0 0.00013658)
(0.0480977 0 0.000640237)
(0.0403232 0 0.00124011)
(0.0326934 0 0.00194543)
(0.0254857 0 0.00276175)
(0.0190828 0 0.00368987)
(0.0142043 0 0.00470333)
(0.0121711 0 0.00560413)
(0.0109035 0 -0.000207447)
(0.0311138 0 -0.000593638)
(0.0483411 0 -0.000930531)
(0.0628278 0 -0.00122621)
(0.0748624 0 -0.00148761)
(0.0847191 0 -0.00171965)
(0.0926155 0 -0.00192563)
(0.0987398 0 -0.00210856)
(0.10326 0 -0.00226571)
(0.106328 0 -0.00239806)
(0.108076 0 -0.00250435)
(0.108616 0 -0.00258218)
(0.108052 0 -0.00262821)
(0.106474 0 -0.0026381)
(0.103968 0 -0.00260648)
(0.100616 0 -0.00252644)
(0.096498 0 -0.00239459)
(0.091686 0 -0.00220135)
(0.0862553 0 -0.00193707)
(0.080286 0 -0.00159121)
(0.0738654 0 -0.00115218)
(0.067088 0 -0.000606983)
(0.0600865 0 5.62366e-05)
(0.0530021 0 0.000851621)
(0.0460087 0 0.00179264)
(0.0393324 0 0.00288603)
(0.0332759 0 0.00413131)
(0.0282042 0 0.00551499)
(0.0248526 0 0.00694967)
(0.0249042 0 0.00808002)
(0.0109514 0 -0.000290812)
(0.0312498 0 -0.000832291)
(0.0485545 0 -0.00130451)
(0.0631278 0 -0.00171841)
(0.0752595 0 -0.00208564)
(0.0852159 0 -0.00241188)
(0.0932241 0 -0.0027017)
(0.0994671 0 -0.0029572)
(0.104119 0 -0.00317937)
(0.107339 0 -0.0033681)
(0.109258 0 -0.00352145)
(0.109992 0 -0.00363633)
(0.109647 0 -0.00370836)
(0.108318 0 -0.00373187)
(0.106093 0 -0.00370003)
(0.103061 0 -0.00360547)
(0.0993041 0 -0.00344036)
(0.0949032 0 -0.00319372)
(0.0899411 0 -0.00285345)
(0.0845072 0 -0.00240637)
(0.0787022 0 -0.00183852)
(0.0726308 0 -0.00113416)
(0.066426 0 -0.000277775)
(0.0602658 0 0.000742592)
(0.0543452 0 0.00193857)
(0.0489809 0 0.00330744)
(0.044533 0 0.00482792)
(0.04144 0 0.00644257)
(0.0402115 0 0.00801858)
(0.0428411 0 0.0090288)
(0.0110155 0 -0.000373835)
(0.0314298 0 -0.00107004)
(0.04884 0 -0.00167734)
(0.0635286 0 -0.00221133)
(0.0757843 0 -0.00268546)
(0.0858707 0 -0.00310707)
(0.094019 0 -0.00348212)
(0.10042 0 -0.00381236)
(0.105253 0 -0.00410264)
(0.108674 0 -0.00435144)
(0.110819 0 -0.00455655)
(0.111809 0 -0.00471445)
(0.111752 0 -0.00482004)
(0.110749 0 -0.00486663)
(0.108893 0 -0.00484605)
(0.106279 0 -0.0047508)
(0.102996 0 -0.00457063)
(0.0991338 0 -0.00429323)
(0.0947837 0 -0.00390496)
(0.0900453 0 -0.00339113)
(0.0850266 0 -0.00273599)
(0.0798797 0 -0.00192767)
(0.074736 0 -0.000949329)
(0.0698071 0 0.00020553)
(0.0653028 0 0.00154424)
(0.0615393 0 0.00305078)
(0.0590124 0 0.0046642)
(0.0583041 0 0.00626509)
(0.0598653 0 0.00768288)
(0.0652353 0 0.00827092)
(0.0110968 0 -0.000456872)
(0.0316528 0 -0.00130681)
(0.0491925 0 -0.00204868)
(0.0640239 0 -0.00270245)
(0.0764301 0 -0.00328411)
(0.0866746 0 -0.00380185)
(0.0949975 0 -0.00426399)
(0.101596 0 -0.00467436)
(0.10665 0 -0.00503643)
(0.110318 0 -0.00534975)
(0.11274 0 -0.00561224)
(0.114043 0 -0.00582041)
(0.11434 0 -0.00596876)
(0.113738 0 -0.00605002)
(0.11233 0 -0.00605418)
(0.110227 0 -0.00597581)
(0.107524 0 -0.0058029)
(0.104321 0 -0.00552261)
(0.100721 0 -0.00512109)
(0.096838 0 -0.0045841)
(0.0927982 0 -0.00389739)
(0.0887457 0 -0.00304713)
(0.0848569 0 -0.00202411)
(0.0814016 0 -0.000833646)
(0.0786335 0 0.000514732)
(0.076837 0 0.00199233)
(0.0764924 0 0.00351596)
(0.0784012 0 0.00488641)
(0.0830959 0 0.00585074)
(0.0913964 0 0.00576058)
(0.0111771 0 -0.000539192)
(0.0319002 0 -0.00154275)
(0.0496081 0 -0.00241993)
(0.0646111 0 -0.00319389)
(0.077191 0 -0.00388175)
(0.0876195 0 -0.00449645)
(0.0961488 0 -0.00504758)
(0.102978 0 -0.00554017)
(0.10829 0 -0.00597762)
(0.112246 0 -0.00636021)
(0.114992 0 -0.00668622)
(0.116661 0 -0.00695279)
(0.117372 0 -0.0071545)
(0.11724 0 -0.00728447)
(0.116369 0 -0.00733417)
(0.114863 0 -0.00729329)
(0.112838 0 -0.00715309)
(0.110403 0 -0.00690144)
(0.107674 0 -0.00652539)
(0.104772 0 -0.006011)
(0.101877 0 -0.00535373)
(0.0991274 0 -0.00454)
(0.0967315 0 -0.0035682)
(0.0949344 0 -0.00244743)
(0.0940669 0 -0.00121371)
(0.0945421 0 6.47106e-05)
(0.0967435 0 0.00129192)
(0.101371 0 0.00223415)
(0.109254 0 0.00251196)
(0.12074 0 0.00152338)
(0.0112736 0 -0.000621101)
(0.0321879 0 -0.00177825)
(0.0500829 0 -0.00279061)
(0.0652709 0 -0.00368464)
(0.0780504 0 -0.00447978)
(0.0887 0 -0.00519368)
(0.097467 0 -0.00583632)
(0.10456 0 -0.00641423)
(0.110165 0 -0.00693139)
(0.114449 0 -0.00738887)
(0.117563 0 -0.00778531)
(0.119647 0 -0.00811943)
(0.120827 0 -0.00838598)
(0.121225 0 -0.00857909)
(0.12096 0 -0.00869231)
(0.120125 0 -0.0087102)
(0.118864 0 -0.00863052)
(0.117297 0 -0.00844231)
(0.115556 0 -0.00813562)
(0.11378 0 -0.00770012)
(0.112139 0 -0.0071307)
(0.110822 0 -0.00642603)
(0.11011 0 -0.00560419)
(0.110202 0 -0.00467708)
(0.111462 0 -0.00369732)
(0.114334 0 -0.00276144)
(0.119347 0 -0.00203009)
(0.126882 0 -0.00171697)
(0.138051 0 -0.00232111)
(0.15278 0 -0.00438014)
(0.0113844 0 -0.00070241)
(0.0325115 0 -0.00201184)
(0.050611 0 -0.00315841)
(0.0660076 0 -0.00417263)
(0.0790122 0 -0.00507785)
(0.0899062 0 -0.0058927)
(0.0989383 0 -0.00662934)
(0.106324 0 -0.00729583)
(0.112255 0 -0.00789716)
(0.116903 0 -0.00843544)
(0.120422 0 -0.00890916)
(0.122965 0 -0.00932047)
(0.124661 0 -0.00966364)
(0.125642 0 -0.0099344)
(0.126032 0 -0.0101267)
(0.125952 0 -0.0102314)
(0.125528 0 -0.0102413)
(0.12491 0 -0.010152)
(0.124244 0 -0.00995734)
(0.123697 0 -0.00965434)
(0.123448 0 -0.00924312)
(0.123725 0 -0.00873386)
(0.124774 0 -0.00814621)
(0.126905 0 -0.00752424)
(0.13052 0 -0.00694565)
(0.135959 0 -0.00650728)
(0.143884 0 -0.00643308)
(0.154611 0 -0.00695226)
(0.169131 0 -0.00860354)
(0.187031 0 -0.0118549)
(0.0115095 0 -0.00078337)
(0.0328675 0 -0.00224322)
(0.051187 0 -0.00352282)
(0.0668134 0 -0.00465708)
(0.0800629 0 -0.00567247)
(0.0912216 0 -0.00658938)
(0.100542 0 -0.00742199)
(0.108246 0 -0.00818)
(0.11453 0 -0.00886973)
(0.119572 0 -0.00949501)
(0.123541 0 -0.0100577)
(0.126584 0 -0.0105565)
(0.128836 0 -0.0109881)
(0.130443 0 -0.0113516)
(0.131541 0 -0.0116427)
(0.132269 0 -0.0118576)
(0.132739 0 -0.0119848)
(0.133138 0 -0.0120304)
(0.133622 0 -0.0119919)
(0.13438 0 -0.0118741)
(0.135598 0 -0.0116816)
(0.137582 0 -0.0114493)
(0.140535 0 -0.0111975)
(0.144816 0 -0.0109887)
(0.150903 0 -0.010938)
(0.159162 0 -0.0111675)
(0.170103 0 -0.0118989)
(0.184289 0 -0.0134473)
(0.202076 0 -0.0162542)
(0.222952 0 -0.0207598)
(0.0116297 0 -0.00086265)
(0.0332362 0 -0.00247177)
(0.0518072 0 -0.00388481)
(0.0676838 0 -0.00513937)
(0.0811976 0 -0.00626558)
(0.0926408 0 -0.00728603)
(0.102271 0 -0.00821695)
(0.110316 0 -0.00906977)
(0.116978 0 -0.0098522)
(0.122447 0 -0.010571)
(0.126894 0 -0.0112301)
(0.130462 0 -0.0118253)
(0.133299 0 -0.0123561)
(0.135569 0 -0.012827)
(0.137412 0 -0.013235)
(0.138972 0 -0.0135785)
(0.140398 0 -0.0138555)
(0.141864 0 -0.0140705)
(0.143543 0 -0.0142281)
(0.145679 0 -0.0143499)
(0.148455 0 -0.0144448)
(0.152158 0 -0.0145513)
(0.157095 0 -0.014723)
(0.16368 0 -0.0150477)
(0.172279 0 -0.0156297)
(0.183465 0 -0.0166666)
(0.197567 0 -0.0183526)
(0.215325 0 -0.0210817)
(0.236341 0 -0.0251317)
(0.259919 0 -0.0308817)
(0.0117605 0 -0.000940931)
(0.0336316 0 -0.00269809)
(0.0524668 0 -0.00424359)
(0.0686103 0 -0.0056183)
(0.0824049 0 -0.00685577)
(0.0941498 0 -0.00798097)
(0.104108 0 -0.00901226)
(0.112513 0 -0.00996292)
(0.119573 0 -0.0108416)
(0.125487 0 -0.0116587)
(0.130423 0 -0.0124171)
(0.134541 0 -0.0131177)
(0.138003 0 -0.0137637)
(0.140962 0 -0.0143562)
(0.143576 0 -0.0148983)
(0.146001 0 -0.0153923)
(0.148406 0 -0.0158434)
(0.150969 0 -0.0162601)
(0.153891 0 -0.0166563)
(0.157404 0 -0.0170557)
(0.161755 0 -0.0174903)
(0.16722 0 -0.018005)
(0.174159 0 -0.0186742)
(0.183055 0 -0.0196197)
(0.194227 0 -0.0209499)
(0.208278 0 -0.0228851)
(0.225667 0 -0.0256686)
(0.246916 0 -0.0296621)
(0.27119 0 -0.0350187)
(0.29718 0 -0.0419394)
(0.0118992 0 -0.00101789)
(0.034047 0 -0.00292049)
(0.053157 0 -0.00459652)
(0.0695799 0 -0.00609031)
(0.0836681 0 -0.00743869)
(0.0957276 0 -0.00866911)
(0.106028 0 -0.00980213)
(0.114807 0 -0.0108532)
(0.122289 0 -0.0118352)
(0.128667 0 -0.0127561)
(0.134111 0 -0.0136206)
(0.138799 0 -0.0144354)
(0.142902 0 -0.0152064)
(0.146558 0 -0.0159309)
(0.149957 0 -0.0166223)
(0.153257 0 -0.017285)
(0.156651 0 -0.0179327)
(0.160317 0 -0.018577)
(0.164477 0 -0.0192419)
(0.169361 0 -0.0199576)
(0.175255 0 -0.020772)
(0.182459 0 -0.0217461)
(0.191409 0 -0.0229856)
(0.202471 0 -0.0245973)
(0.21618 0 -0.0267647)
(0.233012 0 -0.0296873)
(0.253644 0 -0.0336779)
(0.278161 0 -0.0389746)
(0.305549 0 -0.0456317)
(0.333728 0 -0.0536315)
(0.0120446 0 -0.00109363)
(0.0344801 0 -0.00313942)
(0.053875 0 -0.00494438)
(0.0705886 0 -0.00655644)
(0.0849821 0 -0.00801563)
(0.0973679 0 -0.00935186)
(0.108023 0 -0.0105879)
(0.117196 0 -0.0117427)
(0.125111 0 -0.0128311)
(0.131956 0 -0.0138589)
(0.137915 0 -0.0148343)
(0.14318 0 -0.0157694)
(0.147915 0 -0.0166696)
(0.152289 0 -0.017541)
(0.156478 0 -0.0183951)
(0.160647 0 -0.0192404)
(0.165025 0 -0.0201035)
(0.169769 0 -0.0209945)
(0.17513 0 -0.0219501)
(0.181343 0 -0.0230078)
(0.188732 0 -0.024236)
(0.197597 0 -0.0257038)
(0.20841 0 -0.0275432)
(0.221513 0 -0.0298706)
(0.237469 0 -0.0328932)
(0.256842 0 -0.0368553)
(0.280293 0 -0.0420837)
(0.30757 0 -0.0486939)
(0.337626 0 -0.0566221)
(0.367978 0 -0.0657167)
(0.0121951 0 -0.00116788)
(0.0349268 0 -0.00335416)
(0.0546143 0 -0.00528606)
(0.0716273 0 -0.00701513)
(0.0863354 0 -0.00858466)
(0.0990554 0 -0.0100268)
(0.110073 0 -0.0113664)
(0.119646 0 -0.0126259)
(0.127991 0 -0.0138194)
(0.135308 0 -0.0149575)
(0.141799 0 -0.0160523)
(0.147644 0 -0.0171135)
(0.153018 0 -0.0181512)
(0.158098 0 -0.0191765)
(0.163064 0 -0.0202024)
(0.168101 0 -0.0212461)
(0.173414 0 -0.0223312)
(0.17919 0 -0.0234804)
(0.185703 0 -0.0247431)
(0.193181 0 -0.0261624)
(0.201928 0 -0.0278093)
(0.212338 0 -0.0297919)
(0.22474 0 -0.0322164)
(0.239618 0 -0.0352621)
(0.257406 0 -0.0391188)
(0.278749 0 -0.0440855)
(0.304043 0 -0.0504546)
(0.332901 0 -0.0583272)
(0.364242 0 -0.0675472)
(0.397011 0 -0.0782305)
(0.00713005 0 -0.00259783)
(0.0155149 0 -0.00302461)
(0.0333285 0 -0.00363007)
(0.0607732 0 -0.00435382)
(0.095237 0 -0.00504921)
(0.13191 0 -0.0055941)
(0.166084 0 -0.00593729)
(0.195114 0 -0.006056)
(0.218297 0 -0.00600524)
(0.236057 0 -0.00585924)
(0.249176 0 -0.00564556)
(0.258407 0 -0.00536279)
(0.264315 0 -0.00502629)
(0.267383 0 -0.00469049)
(0.26797 0 -0.00436367)
(0.266298 0 -0.00403409)
(0.262519 0 -0.00370921)
(0.256704 0 -0.00339865)
(0.248891 0 -0.00308995)
(0.239086 0 -0.00280591)
(0.227238 0 -0.00253585)
(0.213302 0 -0.00227597)
(0.197214 0 -0.00202319)
(0.178903 0 -0.00177446)
(0.158286 0 -0.00152654)
(0.135277 0 -0.00127594)
(0.109788 0 -0.00101883)
(0.0817291 0 -0.000750882)
(0.0510219 0 -0.00046721)
(0.0174928 0 -0.000161085)
(0.012967 0 -0.00790626)
(0.022058 0 -0.00918339)
(0.0405301 0 -0.0110135)
(0.0681276 0 -0.0131103)
(0.102235 0 -0.0151338)
(0.138088 0 -0.0166769)
(0.171211 0 -0.017609)
(0.199202 0 -0.0179202)
(0.221517 0 -0.0177501)
(0.238582 0 -0.0172593)
(0.251153 0 -0.0165858)
(0.259954 0 -0.0157479)
(0.265541 0 -0.0147916)
(0.268369 0 -0.013805)
(0.268773 0 -0.0128542)
(0.266956 0 -0.0118877)
(0.263061 0 -0.0109319)
(0.257161 0 -0.0100242)
(0.249277 0 -0.00914125)
(0.239407 0 -0.00831118)
(0.227509 0 -0.00751821)
(0.213531 0 -0.00675305)
(0.197409 0 -0.0060072)
(0.179068 0 -0.0052719)
(0.158425 0 -0.00453777)
(0.135394 0 -0.00379462)
(0.109884 0 -0.00303117)
(0.0818037 0 -0.00223472)
(0.0510727 0 -0.00139083)
(0.0175126 0 -0.000479601)
(0.0240531 0 -0.0134913)
(0.0347044 0 -0.0157128)
(0.0542717 0 -0.0187281)
(0.0821339 0 -0.0220938)
(0.115518 0 -0.0252234)
(0.149757 0 -0.027541)
(0.180891 0 -0.0288528)
(0.20695 0 -0.0292279)
(0.22761 0 -0.0288727)
(0.243364 0 -0.0280102)
(0.254919 0 -0.0268555)
(0.262924 0 -0.0254849)
(0.267903 0 -0.0239741)
(0.270269 0 -0.0224069)
(0.270314 0 -0.02086)
(0.268216 0 -0.019299)
(0.264102 0 -0.0177754)
(0.258027 0 -0.016322)
(0.250002 0 -0.0149261)
(0.240013 0 -0.0135929)
(0.228018 0 -0.0123118)
(0.21396 0 -0.011071)
(0.197771 0 -0.00985783)
(0.179374 0 -0.00865854)
(0.158683 0 -0.00745831)
(0.135608 0 -0.0062408)
(0.110058 0 -0.00498785)
(0.0819378 0 -0.00367883)
(0.0511627 0 -0.00229032)
(0.017547 0 -0.000789875)
(0.039971 0 -0.0196223)
(0.0527056 0 -0.0228465)
(0.0735682 0 -0.0269711)
(0.101755 0 -0.0314715)
(0.133996 0 -0.0354379)
(0.165942 0 -0.0382295)
(0.194315 0 -0.0396818)
(0.217729 0 -0.039954)
(0.23613 0 -0.0393112)
(0.250097 0 -0.0380771)
(0.260243 0 -0.0364583)
(0.267144 0 -0.0345824)
(0.271266 0 -0.0325399)
(0.272985 0 -0.0304609)
(0.272514 0 -0.0283501)
(0.270018 0 -0.0262609)
(0.26559 0 -0.0242383)
(0.259262 0 -0.0222944)
(0.251032 0 -0.0204259)
(0.240874 0 -0.0186302)
(0.228739 0 -0.0168966)
(0.214566 0 -0.0152112)
(0.198281 0 -0.0135579)
(0.179803 0 -0.0119189)
(0.159041 0 -0.0102745)
(0.135905 0 -0.00860269)
(0.110296 0 -0.00687906)
(0.0821191 0 -0.00507569)
(0.0512823 0 -0.00316077)
(0.0175917 0 -0.00109011)
(0.060147 0 -0.0265063)
(0.0751826 0 -0.03073)
(0.0975263 0 -0.0359217)
(0.125866 0 -0.0413104)
(0.156474 0 -0.0457923)
(0.185489 0 -0.0487212)
(0.210519 0 -0.0500576)
(0.230789 0 -0.0500652)
(0.246539 0 -0.0490717)
(0.258373 0 -0.0474277)
(0.266818 0 -0.0453542)
(0.272382 0 -0.0430034)
(0.275469 0 -0.0404812)
(0.276376 0 -0.0379058)
(0.275274 0 -0.0353139)
(0.272287 0 -0.0327707)
(0.267464 0 -0.0303022)
(0.260816 0 -0.0279196)
(0.252326 0 -0.0256223)
(0.241954 0 -0.0234047)
(0.229643 0 -0.0212549)
(0.215323 0 -0.0191571)
(0.198915 0 -0.0170924)
(0.180332 0 -0.0150393)
(0.159481 0 -0.0129741)
(0.136266 0 -0.0108698)
(0.110585 0 -0.00869614)
(0.0823361 0 -0.00641864)
(0.0514234 0 -0.00399785)
(0.0176436 0 -0.00137873)
(0.0840529 0 -0.0342934)
(0.10147 0 -0.0395066)
(0.125361 0 -0.0456763)
(0.153375 0 -0.0516182)
(0.181708 0 -0.0561998)
(0.207261 0 -0.058924)
(0.228551 0 -0.0599039)
(0.245388 0 -0.0594995)
(0.258272 0 -0.0581051)
(0.267751 0 -0.0560297)
(0.274308 0 -0.0535118)
(0.278379 0 -0.0507109)
(0.280312 0 -0.0477675)
(0.280304 0 -0.044754)
(0.278492 0 -0.0417569)
(0.274936 0 -0.0388158)
(0.269655 0 -0.0359544)
(0.262634 0 -0.033183)
(0.253838 0 -0.0305014)
(0.243213 0 -0.0279023)
(0.230693 0 -0.0253728)
(0.2162 0 -0.0228953)
(0.199646 0 -0.0204486)
(0.18094 0 -0.0180083)
(0.159984 0 -0.0155469)
(0.136675 0 -0.0130331)
(0.110909 0 -0.0104316)
(0.0825777 0 -0.00770197)
(0.0515787 0 -0.00479785)
(0.0176999 0 -0.00165442)
(0.111222 0 -0.043068)
(0.131021 0 -0.0492434)
(0.156225 0 -0.0561919)
(0.183206 0 -0.0622775)
(0.208612 0 -0.0665471)
(0.230267 0 -0.0687479)
(0.247579 0 -0.0691669)
(0.260842 0 -0.0682272)
(0.270761 0 -0.0663736)
(0.277781 0 -0.0638529)
(0.28236 0 -0.0609053)
(0.28488 0 -0.0577039)
(0.285596 0 -0.0543822)
(0.284632 0 -0.0510172)
(0.282052 0 -0.0476737)
(0.277876 0 -0.0443898)
(0.272089 0 -0.0411873)
(0.264654 0 -0.0380754)
(0.255517 0 -0.0350532)
(0.244611 0 -0.0321127)
(0.231856 0 -0.0292398)
(0.217167 0 -0.0264155)
(0.200449 0 -0.0236167)
(0.181605 0 -0.0208165)
(0.160529 0 -0.0179843)
(0.137117 0 -0.0150852)
(0.111256 0 -0.0120793)
(0.0828336 0 -0.00892087)
(0.0517414 0 -0.00555767)
(0.0177583 0 -0.00191607)
(0.141249 0 -0.0528488)
(0.163276 0 -0.0598941)
(0.189163 0 -0.0672736)
(0.214301 0 -0.0730628)
(0.236134 0 -0.076626)
(0.253568 0 -0.0780357)
(0.266811 0 -0.0777418)
(0.276533 0 -0.0762014)
(0.283467 0 -0.0738323)
(0.28803 0 -0.070867)
(0.290666 0 -0.0675341)
(0.291662 0 -0.0639959)
(0.291159 0 -0.0603603)
(0.289214 0 -0.056699)
(0.285839 0 -0.0530648)
(0.281013 0 -0.0494914)
(0.274691 0 -0.0459979)
(0.266815 0 -0.042592)
(0.257313 0 -0.0392721)
(0.246102 0 -0.0360293)
(0.233094 0 -0.0328486)
(0.218193 0 -0.0297101)
(0.201297 0 -0.0265891)
(0.182303 0 -0.0234567)
(0.161099 0 -0.0202797)
(0.137574 0 -0.01702)
(0.111612 0 -0.013634)
(0.083094 0 -0.0100714)
(0.0519052 0 -0.00627476)
(0.0178163 0 -0.00216276)
(0.173765 0 -0.0635824)
(0.197674 0 -0.0713153)
(0.223282 0 -0.0786557)
(0.245643 0 -0.0836765)
(0.2633 0 -0.0861842)
(0.276318 0 -0.0866041)
(0.285535 0 -0.0854987)
(0.291848 0 -0.0833356)
(0.295884 0 -0.0804367)
(0.298147 0 -0.0770674)
(0.298972 0 -0.0734127)
(0.29851 0 -0.0695974)
(0.296823 0 -0.0657085)
(0.29391 0 -0.0618069)
(0.289738 0 -0.0579361)
(0.284253 0 -0.0541243)
(0.277385 0 -0.0503876)
(0.269054 0 -0.0467322)
(0.259172 0 -0.0431556)
(0.247645 0 -0.0396484)
(0.234371 0 -0.0361949)
(0.219247 0 -0.0327741)
(0.202165 0 -0.0293606)
(0.183012 0 -0.0259237)
(0.161673 0 -0.0224281)
(0.138031 0 -0.0188332)
(0.111965 0 -0.015092)
(0.0833496 0 -0.0111506)
(0.0520642 0 -0.00694715)
(0.0178721 0 -0.0023938)
(0.208424 0 -0.0751431)
(0.233627 0 -0.0832777)
(0.257686 0 -0.0900004)
(0.276209 0 -0.0937631)
(0.289195 0 -0.0949403)
(0.29775 0 -0.0942545)
(0.303096 0 -0.0923024)
(0.306203 0 -0.0895171)
(0.307654 0 -0.0861632)
(0.307877 0 -0.0824649)
(0.307051 0 -0.0785537)
(0.305236 0 -0.074523)
(0.302431 0 -0.07044)
(0.298589 0 -0.0663533)
(0.293643 0 -0.0622976)
(0.28751 0 -0.0582959)
(0.280098 0 -0.0543614)
(0.271311 0 -0.0504988)
(0.261046 0 -0.0467049)
(0.249196 0 -0.0429696)
(0.235652 0 -0.0392768)
(0.2203 0 -0.035605)
(0.203026 0 -0.031928)
(0.183711 0 -0.0282139)
(0.162235 0 -0.0244259)
(0.138474 0 -0.0205212)
(0.112303 0 -0.0164504)
(0.0835917 0 -0.0121562)
(0.052213 0 -0.0075734)
(0.0179237 0 -0.0026087)
(0.244893 0 -0.0873624)
(0.270427 0 -0.0954551)
(0.291277 0 -0.100851)
(0.30492 0 -0.10291)
(0.312936 0 -0.102594)
(0.317157 0 -0.100784)
(0.318987 0 -0.0980473)
(0.319297 0 -0.094723)
(0.31856 0 -0.0910182)
(0.317008 0 -0.0870722)
(0.314716 0 -0.082975)
(0.311679 0 -0.0787923)
(0.307845 0 -0.0745732)
(0.303136 0 -0.0703547)
(0.297456 0 -0.0661636)
(0.290701 0 -0.0620176)
(0.282762 0 -0.0579279)
(0.273528 0 -0.0538979)
(0.262885 0 -0.0499239)
(0.250716 0 -0.045995)
(0.236902 0 -0.042095)
(0.221322 0 -0.0382023)
(0.203856 0 -0.03429)
(0.18438 0 -0.0303257)
(0.162767 0 -0.0262713)
(0.138889 0 -0.0220823)
(0.112616 0 -0.0177073)
(0.0838124 0 -0.0130868)
(0.0523468 0 -0.00815256)
(0.0179694 0 -0.00280713)
(0.282838 0 -0.100043)
(0.307008 0 -0.107349)
(0.322651 0 -0.110607)
(0.330616 0 -0.110655)
(0.333666 0 -0.108837)
(0.334052 0 -0.106043)
(0.332956 0 -0.102679)
(0.330992 0 -0.0989628)
(0.328435 0 -0.0950147)
(0.325378 0 -0.0909096)
(0.321818 0 -0.0867007)
(0.317703 0 -0.08243)
(0.312948 0 -0.0781312)
(0.307449 0 -0.0738317)
(0.301092 0 -0.0695518)
(0.293753 0 -0.0653037)
(0.285314 0 -0.0610983)
(0.275653 0 -0.0569382)
(0.264646 0 -0.0528188)
(0.252167 0 -0.0487291)
(0.238089 0 -0.0446522)
(0.222286 0 -0.0405672)
(0.204633 0 -0.0364471)
(0.184998 0 -0.0322588)
(0.163252 0 -0.0279634)
(0.139262 0 -0.0235154)
(0.112893 0 -0.0188619)
(0.0840044 0 -0.0139415)
(0.052461 0 -0.00868415)
(0.0180077 0 -0.00298893)
(0.321677 0 -0.112864)
(0.34149 0 -0.118106)
(0.350023 0 -0.118497)
(0.352095 0 -0.116504)
(0.350927 0 -0.113463)
(0.34829 0 -0.109954)
(0.344932 0 -0.106185)
(0.34118 0 -0.102243)
(0.337164 0 -0.0981764)
(0.33287 0 -0.0940079)
(0.328245 0 -0.089763)
(0.323206 0 -0.0854667)
(0.317647 0 -0.081142)
(0.311446 0 -0.076809)
(0.304478 0 -0.0724838)
(0.296603 0 -0.0681712)
(0.287699 0 -0.0638864)
(0.277638 0 -0.0596305)
(0.266287 0 -0.0553982)
(0.253515 0 -0.0511784)
(0.239185 0 -0.046953)
(0.223168 0 -0.0427028)
(0.205334 0 -0.0384012)
(0.185549 0 -0.0340143)
(0.163677 0 -0.0295028)
(0.139582 0 -0.0248207)
(0.113124 0 -0.0199141)
(0.0841613 0 -0.0147204)
(0.0525519 0 -0.00916809)
(0.0180374 0 -0.00315411)
(0.359537 0 -0.124917)
(0.370614 0 -0.12626)
(0.371786 0 -0.123704)
(0.369016 0 -0.120137)
(0.364746 0 -0.116347)
(0.359925 0 -0.112496)
(0.354905 0 -0.108586)
(0.349803 0 -0.104596)
(0.344642 0 -0.100531)
(0.339371 0 -0.0963949)
(0.333886 0 -0.0921864)
(0.328083 0 -0.0879233)
(0.321844 0 -0.0836224)
(0.31504 0 -0.0793001)
(0.307542 0 -0.0749723)
(0.299198 0 -0.0706393)
(0.28987 0 -0.0663078)
(0.279442 0 -0.061988)
(0.267774 0 -0.0576727)
(0.25473 0 -0.0533516)
(0.240163 0 -0.0490033)
(0.223943 0 -0.0446135)
(0.205942 0 -0.0401558)
(0.186017 0 -0.0355944)
(0.164029 0 -0.0308911)
(0.139839 0 -0.0259993)
(0.113304 0 -0.0208646)
(0.0842776 0 -0.0154238)
(0.052616 0 -0.00960473)
(0.0180572 0 -0.0033028)
(0.3902 0 -0.133286)
(0.392899 0 -0.130096)
(0.38747 0 -0.125297)
(0.381371 0 -0.12122)
(0.375107 0 -0.117426)
(0.368896 0 -0.113696)
(0.362796 0 -0.109928)
(0.356789 0 -0.10608)
(0.350817 0 -0.10214)
(0.344816 0 -0.0981151)
(0.338671 0 -0.0940078)
(0.332265 0 -0.0898309)
(0.325474 0 -0.0855987)
(0.318167 0 -0.0813258)
(0.310208 0 -0.0770251)
(0.301459 0 -0.0727055)
(0.291772 0 -0.0683654)
(0.281019 0 -0.0640121)
(0.269066 0 -0.0596424)
(0.255782 0 -0.0552495)
(0.241003 0 -0.0508101)
(0.224591 0 -0.0463044)
(0.20644 0 -0.0417153)
(0.186389 0 -0.0370024)
(0.164295 0 -0.0321306)
(0.140023 0 -0.0270529)
(0.113423 0 -0.0217148)
(0.0843486 0 -0.0160529)
(0.0526505 0 -0.00999464)
(0.0180662 0 -0.0034352)
(0.0123504 0 -0.00124132)
(0.0353883 0 -0.00356684)
(0.0553781 0 -0.00562497)
(0.0727012 0 -0.00747102)
(0.0877357 0 -0.00915162)
(0.1008 0 -0.0107011)
(0.112199 0 -0.0121489)
(0.122184 0 -0.0135165)
(0.130972 0 -0.0148192)
(0.13878 0 -0.0160734)
(0.145809 0 -0.0172929)
(0.15223 0 -0.0184845)
(0.158242 0 -0.019667)
(0.164027 0 -0.0208543)
(0.169767 0 -0.0220628)
(0.175649 0 -0.0233136)
(0.181869 0 -0.024632)
(0.18865 0 -0.0260553)
(0.196226 0 -0.0276282)
(0.204876 0 -0.0294165)
(0.214868 0 -0.0314903)
(0.226597 0 -0.0339727)
(0.240335 0 -0.0369689)
(0.256559 0 -0.0406762)
(0.275629 0 -0.0452944)
(0.298046 0 -0.0511266)
(0.323717 0 -0.0583924)
(0.352012 0 -0.067337)
(0.38132 0 -0.0783211)
(0.408393 0 -0.0923447)
(0.0125122 0 -0.00131476)
(0.0358689 0 -0.00377978)
(0.056173 0 -0.0059648)
(0.0738195 0 -0.00792897)
(0.0891968 0 -0.00972277)
(0.10263 0 -0.0113834)
(0.114423 0 -0.0129424)
(0.124822 0 -0.01442)
(0.134062 0 -0.0158356)
(0.142368 0 -0.0172101)
(0.14993 0 -0.0185559)
(0.156945 0 -0.0198881)
(0.163604 0 -0.0212242)
(0.170087 0 -0.022581)
(0.176574 0 -0.0239775)
(0.18327 0 -0.0254421)
(0.190362 0 -0.027002)
(0.198088 0 -0.0287053)
(0.206657 0 -0.0305958)
(0.216322 0 -0.0327398)
(0.227407 0 -0.0352347)
(0.240153 0 -0.0381703)
(0.254916 0 -0.0416956)
(0.271938 0 -0.0459529)
(0.291535 0 -0.0511568)
(0.313814 0 -0.0575243)
(0.338198 0 -0.065145)
(0.363583 0 -0.0740831)
(0.387456 0 -0.0839826)
(0.406796 0 -0.0942038)
(0.0126782 0 -0.00138728)
(0.0363616 0 -0.00399029)
(0.0569867 0 -0.00630123)
(0.0749649 0 -0.00838307)
(0.0906958 0 -0.0102905)
(0.104505 0 -0.0120626)
(0.11669 0 -0.0137313)
(0.127507 0 -0.0153204)
(0.137211 0 -0.0168543)
(0.146022 0 -0.0183529)
(0.154122 0 -0.01983)
(0.161719 0 -0.0213053)
(0.168998 0 -0.0227961)
(0.176154 0 -0.0243253)
(0.183361 0 -0.0259131)
(0.190827 0 -0.0275941)
(0.198732 0 -0.0293973)
(0.207287 0 -0.0313671)
(0.216721 0 -0.0335623)
(0.227247 0 -0.0360434)
(0.239157 0 -0.0389095)
(0.252622 0 -0.04224)
(0.267936 0 -0.046178)
(0.285158 0 -0.0508217)
(0.304447 0 -0.0563459)
(0.325472 0 -0.0628232)
(0.347356 0 -0.0701996)
(0.368693 0 -0.0782716)
(0.387563 0 -0.0866163)
(0.402116 0 -0.0948208)
(0.0128452 0 -0.0014579)
(0.0368594 0 -0.00419581)
(0.0578065 0 -0.0066301)
(0.0761253 0 -0.00882978)
(0.0922194 0 -0.0108509)
(0.106407 0 -0.0127341)
(0.118991 0 -0.0145137)
(0.130238 0 -0.0162166)
(0.140403 0 -0.0178694)
(0.149703 0 -0.0194919)
(0.158326 0 -0.0211008)
(0.166489 0 -0.02272)
(0.174372 0 -0.0243674)
(0.182168 0 -0.0260698)
(0.190052 0 -0.027849)
(0.198209 0 -0.0297365)
(0.206835 0 -0.0317724)
(0.21611 0 -0.0339963)
(0.22623 0 -0.0364622)
(0.23743 0 -0.0392457)
(0.249857 0 -0.0424093)
(0.263707 0 -0.0460485)
(0.279086 0 -0.0502536)
(0.295957 0 -0.0550964)
(0.31422 0 -0.0606593)
(0.333267 0 -0.0668845)
(0.352186 0 -0.073633)
(0.369845 0 -0.0806749)
(0.38502 0 -0.0877269)
(0.396419 0 -0.0944011)
(0.0130133 0 -0.00152647)
(0.0373622 0 -0.00439592)
(0.0586506 0 -0.00695282)
(0.0773093 0 -0.009268)
(0.0937529 0 -0.0113992)
(0.108321 0 -0.0133928)
(0.121303 0 -0.0152824)
(0.13297 0 -0.0170978)
(0.14359 0 -0.0188691)
(0.153374 0 -0.0206161)
(0.162508 0 -0.0223569)
(0.171212 0 -0.0241193)
(0.179666 0 -0.0259223)
(0.188051 0 -0.0277903)
(0.196545 0 -0.0297528)
(0.205318 0 -0.0318383)
(0.214543 0 -0.0340836)
(0.224403 0 -0.0365358)
(0.235045 0 -0.0392383)
(0.246668 0 -0.0422618)
(0.259346 0 -0.0456507)
(0.273228 0 -0.0494892)
(0.288257 0 -0.0538163)
(0.304297 0 -0.0586643)
(0.321041 0 -0.0640235)
(0.337868 0 -0.0697902)
(0.354064 0 -0.0758322)
(0.368804 0 -0.0819602)
(0.381236 0 -0.0879446)
(0.390523 0 -0.093458)
(0.0131799 0 -0.00159229)
(0.0378621 0 -0.00458843)
(0.0594869 0 -0.00726348)
(0.0784763 0 -0.00968892)
(0.095276 0 -0.0119295)
(0.110227 0 -0.0140322)
(0.123602 0 -0.0160301)
(0.13569 0 -0.0179572)
(0.146756 0 -0.0198458)
(0.156991 0 -0.0217128)
(0.166619 0 -0.0235851)
(0.175832 0 -0.0254851)
(0.184811 0 -0.0274371)
(0.193728 0 -0.0294641)
(0.202749 0 -0.0315936)
(0.212042 0 -0.0338591)
(0.221747 0 -0.0362899)
(0.232032 0 -0.0389326)
(0.243019 0 -0.0418266)
(0.254824 0 -0.04502)
(0.26751 0 -0.0485585)
(0.281098 0 -0.0524823)
(0.295435 0 -0.0567924)
(0.310308 0 -0.0614826)
(0.325374 0 -0.0665056)
(0.34014 0 -0.0717692)
(0.354033 0 -0.0771458)
(0.366487 0 -0.0824933)
(0.376878 0 -0.087603)
(0.384684 0 -0.0922285)
(0.013343 0 -0.00165459)
(0.0383521 0 -0.00477106)
(0.0603091 0 -0.00755907)
(0.0796418 0 -0.0100928)
(0.096793 0 -0.012439)
(0.112106 0 -0.0146456)
(0.125861 0 -0.0167483)
(0.138361 0 -0.0187856)
(0.14985 0 -0.020786)
(0.160525 0 -0.0227698)
(0.170613 0 -0.024768)
(0.180292 0 -0.0267996)
(0.189739 0 -0.0288889)
(0.19912 0 -0.0310619)
(0.208583 0 -0.0333417)
(0.218289 0 -0.0357624)
(0.228363 0 -0.0383529)
(0.238923 0 -0.0411463)
(0.250058 0 -0.0441755)
(0.261856 0 -0.0474795)
(0.274299 0 -0.0510771)
(0.287306 0 -0.0549735)
(0.30072 0 -0.0591564)
(0.314325 0 -0.0636028)
(0.327806 0 -0.068256)
(0.340765 0 -0.0730297)
(0.352771 0 -0.0778159)
(0.363397 0 -0.0824884)
(0.372229 0 -0.0868801)
(0.378958 0 -0.0908245)
(0.0134999 0 -0.00171253)
(0.0388246 0 -0.00494139)
(0.0611051 0 -0.00783574)
(0.0807663 0 -0.0104712)
(0.0982623 0 -0.0129179)
(0.113937 0 -0.0152251)
(0.128069 0 -0.0174295)
(0.140963 0 -0.0195722)
(0.152838 0 -0.0216771)
(0.163926 0 -0.0237727)
(0.174441 0 -0.0258883)
(0.184534 0 -0.0280409)
(0.194387 0 -0.0302549)
(0.204159 0 -0.0325567)
(0.213988 0 -0.0349699)
(0.224001 0 -0.0375198)
(0.23431 0 -0.0402332)
(0.244994 0 -0.0431333)
(0.256117 0 -0.0462457)
(0.267697 0 -0.049587)
(0.279664 0 -0.0531547)
(0.29194 0 -0.0569487)
(0.304372 0 -0.060949)
(0.316746 0 -0.0651193)
(0.328793 0 -0.0694018)
(0.3402 0 -0.0737197)
(0.350655 0 -0.0779866)
(0.359828 0 -0.0820853)
(0.367445 0 -0.0858914)
(0.373343 0 -0.089298)
(0.0136485 0 -0.00176527)
(0.0392721 0 -0.00509673)
(0.0618655 0 -0.00808948)
(0.0818625 0 -0.0108222)
(0.0996923 0 -0.0133634)
(0.115694 0 -0.0157622)
(0.130184 0 -0.0180625)
(0.143447 0 -0.0203021)
(0.155696 0 -0.0225072)
(0.167171 0 -0.0247088)
(0.178058 0 -0.0269297)
(0.18851 0 -0.029189)
(0.198714 0 -0.0315152)
(0.208801 0 -0.0339272)
(0.218899 0 -0.0364481)
(0.229109 0 -0.0390966)
(0.239523 0 -0.0418944)
(0.250186 0 -0.0448546)
(0.261122 0 -0.0479895)
(0.272316 0 -0.0513028)
(0.28371 0 -0.0547911)
(0.295209 0 -0.0584426)
(0.306667 0 -0.062231)
(0.317896 0 -0.0661159)
(0.328672 0 -0.0700429)
(0.338773 0 -0.0739534)
(0.347938 0 -0.0777613)
(0.355926 0 -0.0813689)
(0.362583 0 -0.0846974)
(0.367815 0 -0.0876704)
(0.0137874 0 -0.00181202)
(0.039686 0 -0.00523432)
(0.0625789 0 -0.00831662)
(0.0828949 0 -0.0111379)
(0.101042 0 -0.0137646)
(0.117379 0 -0.0162511)
(0.132195 0 -0.018638)
(0.145793 0 -0.0209659)
(0.158401 0 -0.023265)
(0.170206 0 -0.0255579)
(0.181418 0 -0.0278726)
(0.192183 0 -0.0302269)
(0.202673 0 -0.0326474)
(0.21299 0 -0.0351467)
(0.223259 0 -0.037747)
(0.233559 0 -0.0404615)
(0.243944 0 -0.0433014)
(0.254448 0 -0.0462739)
(0.26508 0 -0.0493854)
(0.275815 0 -0.0526338)
(0.286591 0 -0.0560092)
(0.29731 0 -0.0594935)
(0.307843 0 -0.0630573)
(0.318029 0 -0.066661)
(0.327712 0 -0.0702645)