/*--------------------------------*- C++ -*----------------------------------*\
| =========                 |                                                 |
| \\      /  F ield         | OpenFOAM: The Open Source CFD Toolbox           |
|  \\    /   O peration     | Version:  dev                                   |
|   \\  /    A nd           | Web:      www.OpenFOAM.org                      |
|    \\/     M anipulation  |                                                 |
\*---------------------------------------------------------------------------*/
FoamFile
{
    version     2.0;
    format      ascii;
    class       surfaceScalarField;
    location    "2.61";
    object      phi;
}
// * * * * * * * * * * * * * * * * * * * * * * * * * * * * * * * * * * * * * //

dimensions      [0 3 -1 0 0 0 0];

internalField   nonuniform List<scalar> 
5457
(
0.197745
0.00224244
0.195366
0.00236641
0.192815
0.00253733
0.190045
0.00275456
0.187058
0.00297229
0.183858
0.00318643
0.180446
0.00340213
0.176817
0.00362371
0.172961
0.0038555
0.168866
0.00410196
0.164511
0.00436558
0.159878
0.00464928
0.15494
0.00495613
0.14967
0.00528945
0.144036
0.00565367
0.138002
0.0060515
0.131532
0.00648597
0.124582
0.00696129
0.117111
0.00748
0.109073
0.00804401
0.100421
0.00865408
0.091111
0.00930961
0.0811024
0.0100069
0.0703643
0.0107361
0.0588798
0.0114824
0.0466559
0.0122221
0.0337574
0.0128972
0.0203991
0.0133576
0.00728277
0.0131159
0.00728267
0.199558
0.00267297
0.198501
0.00341078
0.197142
0.00388169
0.195514
0.00436759
0.193616
0.0048552
0.191453
0.00533603
0.189026
0.00581825
0.186335
0.00630887
0.183374
0.0068168
0.18013
0.00735221
0.176587
0.00791976
0.172726
0.00852558
0.168525
0.00917613
0.163956
0.00987812
0.158991
0.0106389
0.153591
0.0114696
0.147715
0.0123771
0.141322
0.0133664
0.134365
0.0144461
0.126792
0.0156229
0.118547
0.0169014
0.109569
0.0182865
0.0997963
0.0197784
0.0891635
0.0213668
0.0776047
0.0230392
0.0650521
0.0247728
0.0514459
0.026502
0.0366757
0.0281269
0.0200878
0.0297035
0.0273704
0.199415
0.00324627
0.198434
0.00437993
0.197151
0.00515003
0.195623
0.00588078
0.193853
0.00660908
0.191847
0.00732873
0.189605
0.0080487
0.187128
0.00878038
0.184407
0.00953734
0.181433
0.0103318
0.178193
0.0111712
0.174669
0.0120653
0.17084
0.0130236
0.166682
0.0140566
0.162165
0.0151758
0.157256
0.0163976
0.151914
0.0177343
0.146097
0.0191964
0.139752
0.0207997
0.132821
0.0225598
0.125235
0.0244902
0.116914
0.0266072
0.107761
0.0289298
0.0976551
0.0314708
0.0864353
0.0342569
0.073884
0.0373224
0.0596918
0.0406929
0.0433555
0.0444624
0.023623
0.0494357
0.0509932
0.199323
0.00391231
0.198346
0.00534492
0.197077
0.00640474
0.195561
0.00738101
0.193814
0.00834086
0.191839
0.00928904
0.189642
0.010235
0.187218
0.0111977
0.184561
0.0121939
0.181664
0.0132337
0.178517
0.0143293
0.175105
0.0154931
0.17141
0.0167378
0.167409
0.018077
0.163077
0.0195281
0.158384
0.0211098
0.153294
0.0228396
0.147766
0.0247375
0.141748
0.0268271
0.135179
0.0291353
0.127977
0.0316957
0.120043
0.0345407
0.111254
0.0377172
0.101443
0.0412803
0.0903813
0.0453164
0.0777158
0.0499862
0.0629075
0.0554999
0.0452779
0.0620911
0.0241512
0.070562
0.0751444
0.199275
0.0046261
0.198291
0.00631678
0.197034
0.00764809
0.195531
0.00886891
0.193801
0.0100544
0.191851
0.0112245
0.189681
0.0123938
0.187288
0.0135835
0.184669
0.0148123
0.181816
0.0160916
0.178719
0.017437
0.175364
0.0188636
0.171734
0.0203865
0.16781
0.0220213
0.163566
0.0237924
0.158972
0.0257228
0.153995
0.027833
0.148594
0.0301525
0.142716
0.0327152
0.136297
0.0355612
0.129251
0.0387445
0.121466
0.0423259
0.112783
0.0463992
0.102988
0.0510737
0.0918204
0.056482
0.0789032
0.0629018
0.0636072
0.0707947
0.0450617
0.0806359
0.0234563
0.0921671
0.0986006
0.199252
0.00536367
0.198262
0.00729468
0.197018
0.0088782
0.195536
0.0103359
0.193832
0.0117416
0.191912
0.0131294
0.189774
0.01452
0.187417
0.0159333
0.184838
0.0173896
0.182029
0.0189047
0.17898
0.0204967
0.175675
0.0221834
0.172098
0.0239823
0.168227
0.0259125
0.16404
0.0280006
0.159506
0.0302758
0.154589
0.032767
0.149245
0.0355104
0.143421
0.0385497
0.13704
0.0419503
0.13001
0.0457785
0.122213
0.0501236
0.113478
0.055133
0.103568
0.0609821
0.0921466
0.0679018
0.0788344
0.0762125
0.0631438
0.0864843
0.0440882
0.0996907
0.0224128
0.113842
0.121013
0.199243
0.00611062
0.198251
0.00827584
0.197022
0.0100935
0.195565
0.0117765
0.193893
0.0133974
0.192007
0.0149995
0.189909
0.0166056
0.187596
0.0182378
0.185065
0.0199181
0.182308
0.0216655
0.179313
0.0235016
0.176065
0.0254466
0.172545
0.0275203
0.168729
0.0297492
0.164596
0.0321545
0.160116
0.034775
0.155246
0.0376552
0.149937
0.0408339
0.144131
0.0443674
0.137749
0.0483405
0.130687
0.0528446
0.122795
0.0580163
0.113906
0.0640219
0.1038
0.0710867
0.0921157
0.0795851
0.0783869
0.0899402
0.0623048
0.102565
0.0429323
0.119063
0.0213359
0.135438
0.142349
0.199243
0.00685851
0.198255
0.00925274
0.197046
0.0112892
0.195617
0.0131889
0.193977
0.0150206
0.19213
0.0168302
0.190077
0.018645
0.187816
0.0204904
0.18534
0.0223902
0.182644
0.0243654
0.179712
0.0264427
0.176529
0.0286435
0.173078
0.0309894
0.169334
0.0335139
0.165267
0.0362421
0.160846
0.0392164
0.156029
0.0424913
0.150759
0.0461189
0.144967
0.0501714
0.138574
0.0547425
0.131468
0.0599558
0.123494
0.065992
0.11446
0.0730562
0.104102
0.0814439
0.092133
0.0915534
0.0780817
0.103991
0.0616069
0.11904
0.0418467
0.138823
0.0203431
0.156942
0.162692
0.199248
0.00760191
0.198274
0.0102162
0.19709
0.0124595
0.195695
0.0145683
0.194094
0.0166042
0.192293
0.0186144
0.190292
0.0206315
0.188089
0.0226836
0.185677
0.0247973
0.183047
0.0269982
0.180184
0.0293132
0.177078
0.0317632
0.173708
0.0343775
0.170047
0.0371947
0.16606
0.0402506
0.161715
0.043582
0.15697
0.0472551
0.15176
0.0513452
0.146011
0.0559332
0.139634
0.0611292
0.132495
0.0671014
0.124453
0.0740361
0.115322
0.0821887
0.104775
0.0919903
0.0924973
0.103831
0.0781273
0.11836
0.0612372
0.13593
0.0410847
0.158975
0.0197021
0.178325
0.182395
0.199259
0.00833531
0.198303
0.0111619
0.197148
0.0136018
0.195791
0.0159089
0.194236
0.0181414
0.192487
0.0203455
0.190546
0.0225579
0.188408
0.0248097
0.186068
0.0271322
0.183511
0.0295561
0.18073
0.0321012
0.177715
0.0347912
0.174438
0.0376711
0.170873
0.0407802
0.166988
0.0441565
0.162745
0.0478459
0.158095
0.0519253
0.152976
0.0564806
0.147304
0.0616194
0.140979
0.0674646
0.133882
0.0742055
0.125844
0.0820774
0.116636
0.0913986
0.105991
0.102636
0.0935184
0.116304
0.0788487
0.13303
0.0615504
0.153228
0.0411245
0.179402
0.0198032
0.199646
0.202198
0.199275
0.00905412
0.19834
0.0120875
0.197214
0.0147138
0.195899
0.0172077
0.194395
0.0196273
0.192705
0.0220173
0.190829
0.0244172
0.188766
0.0268612
0.186505
0.0293862
0.184039
0.0320219
0.181359
0.0347869
0.178445
0.0377165
0.175275
0.0408578
0.171825
0.0442496
0.168066
0.0479375
0.163948
0.0519848
0.159421
0.0564718
0.154428
0.0614912
0.148884
0.0671779
0.142681
0.0736791
0.135706
0.0811888
0.127783
0.0900047
0.118629
0.100556
0.10801
0.113258
0.0955739
0.128742
0.0808084
0.147797
0.063295
0.170743
0.0427989
0.199899
0.0212942
0.221152
0.223493
0.199293
0.00975518
0.198386
0.0129868
0.197296
0.01579
0.196028
0.01846
0.19458
0.0210562
0.192955
0.0236229
0.191154
0.0262017
0.189169
0.0288323
0.186996
0.0315514
0.184632
0.0343841
0.182062
0.0373607
0.179262
0.0405277
0.176218
0.043917
0.172908
0.0475778
0.169294
0.0515722
0.165332
0.0559675
0.160973
0.0608509
0.156154
0.0663277
0.150808
0.0725399
0.144831
0.0796683
0.138085
0.087944
0.13038
0.0977158
0.121506
0.109434
0.111173
0.123595
0.0990282
0.140889
0.0844899
0.162338
0.0671848
0.18805
0.04709
0.219996
0.0253198
0.242923
0.248813
0.199315
0.0104359
0.198439
0.0138552
0.197391
0.0168254
0.196173
0.0196608
0.194788
0.0224228
0.193234
0.0251562
0.191512
0.0279063
0.189612
0.030717
0.187537
0.0336172
0.185284
0.0366336
0.182834
0.0398139
0.180169
0.0432015
0.177275
0.0468252
0.174124
0.0507465
0.170685
0.0550303
0.166915
0.0597584
0.16277
0.0650162
0.158198
0.0709172
0.153129
0.0776254
0.147463
0.0853471
0.141074
0.0943436
0.13378
0.105017
0.125428
0.117792
0.115752
0.133275
0.104353
0.152293
0.0906725
0.176022
0.0744553
0.204271
0.0557968
0.238657
0.034114
0.264607
0.282927
0.199339
0.0110947
0.198497
0.01469
0.197493
0.0178164
0.196331
0.0208059
0.195012
0.0237225
0.193535
0.0266123
0.191898
0.0295248
0.190098
0.0325011
0.188137
0.0355671
0.186003
0.0387615
0.183684
0.0421343
0.18117
0.0457221
0.17844
0.0495677
0.175469
0.0537337
0.172233
0.0582856
0.168695
0.0633164
0.164823
0.0689075
0.160561
0.0751973
0.155843
0.0823594
0.150603
0.0906006
0.14472
0.100239
0.138094
0.111653
0.130587
0.125307
0.122015
0.141854
0.112091
0.162224
0.100503
0.187616
0.0871532
0.217626
0.072248
0.253565
0.0520683
0.284789
0.334995
0.199361
0.0117325
0.198554
0.0154913
0.197596
0.0187623
0.196491
0.0218941
0.195239
0.024954
0.193839
0.0279915
0.192289
0.0310552
0.190593
0.0341796
0.188747
0.0374005
0.186735
0.0407664
0.184555
0.0443129
0.1822
0.0480828
0.179643
0.0521343
0.176868
0.0565235
0.173851
0.0613205
0.170574
0.066612
0.167004
0.0724968
0.163094
0.0791253
0.158796
0.0866736
0.15407
0.0953403
0.148842
0.105479
0.14309
0.117416
0.136761
0.131645
0.12979
0.148834
0.12217
0.169852
0.114257
0.195538
0.106434
0.225455
0.0995206
0.260483
0.0895847
0.294726
0.424579
0.000795576
-0.000794633
0.00291524
-0.00211462
0.00560737
-0.00267453
0.00800528
-0.00235943
0.00961994
-0.00155875
0.0104359
-0.000759223
0.0107108
-0.000231286
0.0107244
1.59979e-05
0.010658
8.8657e-05
0.010593
8.32072e-05
0.01056
4.7519e-05
0.0105648
1.01049e-05
0.010567
1.49986e-05
0.0105079
7.73346e-05
0.0103854
0.000139819
0.0102573
0.00014259
0.010145
0.000122162
0.00997897
0.000169726
0.00967502
0.000300542
0.00924954
0.000414328
0.00883758
0.000392903
0.00862423
0.000186642
0.0087518
-0.000161393
0.00925703
-0.000545407
0.0100859
-0.000874516
0.0111974
-0.00116174
0.0126382
-0.00149478
0.0144957
-0.00191424
0.0168352
-0.00239848
-0.0028031
0.000774125
-0.00156775
0.002748
-0.00408308
0.00541416
-0.00532215
0.00786413
-0.00476995
0.00963953
-0.00327843
0.0106989
-0.00176347
0.0112381
-0.000728742
0.0114842
-0.000201977
0.0115975
-3.28295e-06
0.0116537
4.5096e-05
0.011686
3.0276e-05
0.0117179
-6.66503e-06
0.0117347
1.56399e-05
0.0116891
0.000141352
0.0115778
0.000268619
0.011466
0.000268908
0.0113881
0.000210019
0.0112821
0.000279456
0.0110575
0.000521795
0.0106999
0.000760707
0.0102925
0.000781335
0.00992119
0.000531276
0.00959557
0.000130491
0.00937183
-0.000361753
0.00934101
-0.000889265
0.00951104
-0.00138192
0.00992046
-0.00195803
0.0106883
-0.00273874
0.0119796
-0.00374865
-0.00489865
0.00082079
-0.00238744
0.00260837
-0.00586471
0.00481216
-0.00750636
0.00669812
-0.00661627
0.00798382
-0.00451088
0.00870086
-0.00242972
0.00900985
-0.000999734
0.00906678
-0.000232655
0.00897271
0.000111575
0.00877142
0.000264867
0.00848951
0.000328072
0.00815671
0.000342049
0.00775302
0.000437431
0.00721427
0.000698928
0.0065374
0.00096323
0.00582883
0.000992265
0.00515062
0.000898292
0.00440831
0.00102569
0.00347072
0.00145618
0.00230267
0.00191787
0.000929492
0.0021358
-0.00054897
0.00198344
-0.00190611
0.00145427
-0.00297027
0.00066272
-0.00361526
-0.000289432
-0.00364451
-0.0014024
-0.00298759
-0.0026684
-0.00174211
-0.00404052
-0.00010773
-0.00544153
-0.00683052
0.00102558
-0.00341182
0.00266793
-0.00750051
0.00430872
-0.00912678
0.00543845
-0.0077076
0.00600209
-0.00502612
0.0061355
-0.00251872
0.00596359
-0.000794439
0.00555676
0.000198552
0.00496266
0.000726266
0.00419321
0.00105347
0.00325143
0.00128697
0.00217081
0.00143982
0.000938744
0.0016885
-0.000575951
0.00223307
-0.0024978
0.00290325
-0.00479369
0.00330323
-0.00719307
0.00330799
-0.00930934
0.0031462
-0.0109545
0.00309849
-0.0121956
0.00314864
-0.0131206
0.00304261
-0.0137152
0.00255234
-0.0139335
0.00163992
-0.0137621
0.000452306
-0.0132259
-0.000870166
-0.012452
-0.0022254
-0.011611
-0.00356221
-0.0108129
-0.00489426
-0.0100975
-0.00621489
-0.00745071
0.00118162
-0.00459211
0.00260408
-0.00891577
0.00356769
-0.0100697
0.00377806
-0.00788228
0.00343989
-0.00464599
0.00274436
-0.00178584
0.00170934
0.00026942
0.000380032
0.00155055
-0.00118069
0.00230744
-0.00301982
0.00291238
-0.00520245
0.00348806
-0.00767018
0.00392616
-0.0101923
0.00423064
-0.012517
0.00457802
-0.0145721
0.004977
-0.0164368
0.00518333
-0.0181366
0.00501851
-0.0195885
0.00460281
-0.0206669
0.00417464
-0.0213048
0.00377672
-0.0215266
0.00324701
-0.0214295
0.00243029
-0.021136
0.00131455
-0.0207322
1.0376e-05
-0.0203
-0.00134606
-0.0199042
-0.00266949
-0.0195852
-0.00393325
-0.0193762
-0.00515816
-0.0193001
-0.00634825
-0.00737325
0.00110577
-0.00569637
0.00212572
-0.00992796
0.00219525
-0.0101192
0.00124644
-0.00690197
-0.000330074
-0.00303478
-0.00245854
0.000373127
-0.00491727
0.00275291
-0.0074482
0.00410266
-0.00998419
0.00486365
-0.0124487
0.0053971
-0.0148115
0.00587058
-0.0171087
0.00624328
-0.0193353
0.0064783
-0.0213826
0.00664614
-0.0231303
0.00674384
-0.0245584
0.00662726
-0.0257244
0.00619566
-0.0266555
0.0055391
-0.0273043
0.00482176
-0.027625
0.00408842
-0.0276537
0.00325913
-0.0275001
0.00225266
-0.0272827
0.00106627
-0.0270757
-0.000233888
-0.0269216
-0.00154282
-0.0268492
-0.00278927
-0.0268735
-0.00396
-0.0270093
-0.00507644
-0.0272887
-0.00612526
-0.00695402
0.000718771
-0.00641342
0.00100417
-0.0102054
-0.000295369
-0.00880112
-0.00288672
-0.00428423
-0.00627467
0.000380792
-0.00961165
0.00373467
-0.0124696
0.00563222
-0.0150859
0.00673865
-0.017595
0.00739255
-0.0200004
0.00782292
-0.0222543
0.00814506
-0.0243432
0.00835324
-0.0262607
0.00841759
-0.0279515
0.00835824
-0.029352
0.00816384
-0.0304599
0.0077514
-0.0313329
0.00708016
-0.0320148
0.00622678
-0.032498
0.00530397
-0.03277
0.00435219
-0.032865
0.00333836
-0.0328579
0.00222259
-0.0328284
0.00100689
-0.0328381
-0.000260301
-0.0329177
-0.00150489
-0.0330802
-0.00267305
-0.0333369
-0.00375338
-0.0337032
-0.00476319
-0.0342142
-0.00566971
-0.00633782
-5.42892e-06
-0.00640609
-0.00113243
-0.00907067
-0.00433586
-0.0055817
-0.00873287
0.000133866
-0.0128115
0.00448094
-0.0160554
0.00699854
-0.0188919
0.00848743
-0.0214745
0.00933972
-0.0238727
0.00980996
-0.0260969
0.0100673
-0.0281274
0.0101966
-0.0299524
0.0101999
-0.0315735
0.0100609
-0.0329744
0.00978075
-0.0341301
0.00933934
-0.0350556
0.00869337
-0.035802
0.00783846
-0.0364073
0.00683831
-0.0368766
0.00577291
-0.037211
0.00467915
-0.037437
0.00354958
-0.0376049
0.00236845
-0.0377697
0.00114292
-0.0379754
-8.96332e-05
-0.0382433
-0.00127752
-0.0385828
-0.00237868
-0.0390071
-0.00337797
-0.0395378
-0.00428447
-0.0402072
-0.00505472
-0.0055908
-0.00126112
-0.00514296
-0.00437532
-0.0059496
-0.00959611
-0.000347998
-0.0145409
0.00509487
-0.0183739
0.00833076
-0.0215925
0.0102337
-0.0243751
0.0112867
-0.0268357
0.0118177
-0.0290425
0.0120352
-0.0310207
0.0120654
-0.0327804
0.0119774
-0.0343399
0.0117815
-0.035716
0.0114594
-0.036908
0.0109944
-0.037914
0.0103652
-0.0387557
0.00955163
-0.0394713
0.00856625
-0.0400883
0.00746201
-0.0406142
0.00629906
-0.0410541
0.00511237
-0.0414276
0.00390919
-0.0417682
0.00268799
-0.0421115
0.00145857
-0.0424855
0.000250505
-0.042904
-0.000898333
-0.0433762
-0.00195046
-0.0439206
-0.0028813
-0.044567
-0.00368894
-0.0453459
-0.00432906
-0.00475044
-0.00280156
-0.00233944
-0.00862011
-0.000125353
-0.0147905
0.00583225
-0.0194985
0.00981517
-0.0232898
0.0121354
-0.0264144
0.0133725
-0.0290458
0.0139332
-0.0312944
0.0140828
-0.0332322
0.0139907
-0.0349195
0.013772
-0.0364056
0.0134844
-0.0377255
0.0131234
-0.0389024
0.0126585
-0.0399473
0.0120609
-0.0408705
0.011308
-0.0416916
0.0103894
-0.0424346
0.00932155
-0.0431152
0.00814955
-0.0437389
0.00692358
-0.0443102
0.00567762
-0.0448402
0.00442609
-0.0453473
0.00317509
-0.0458512
0.00193588
-0.046366
0.000732592
-0.0469007
-0.000401751
-0.0474671
-0.00142677
-0.0480899
-0.00230505
-0.0488101
-0.00301834
-0.049662
-0.00352928
-0.00384303
-0.00586243
0.00352476
-0.0134269
0.00744355
-0.0194147
0.0118274
-0.0240416
0.0144515
-0.0276731
0.0157778
-0.030585
0.0162966
-0.0329494
0.0163116
-0.034884
0.0160328
-0.0364917
0.0156154
-0.0378641
0.015163
-0.0390722
0.0147129
-0.0401665
0.0142393
-0.0411777
0.0136916
-0.0421211
0.0130254
-0.0430068
0.0122132
-0.0438474
0.0112464
-0.0446552
0.0101417
-0.0454365
0.00893798
-0.0461913
0.00767948
-0.046918
0.00639894
-0.0476174
0.00511321
-0.0482919
0.00383049
-0.0489451
0.00256348
-0.0495795
0.00133545
-0.050202
0.000183796
-0.0508275
-0.000842753
-0.0514884
-0.00168943
-0.0522424
-0.00231282
-0.0531372
-0.0026854
-0.00288411
-0.0095813
0.0131075
-0.0178524
0.0157179
-0.0237194
0.0177001
-0.0280819
0.0188216
-0.0314392
0.0191444
-0.0340397
0.0189082
-0.0360436
0.0183284
-0.0375878
0.0175917
-0.0388062
0.0168503
-0.0398239
0.0161988
-0.0407389
0.0156478
-0.0416126
0.0151341
-0.0424748
0.0145751
-0.0433365
0.0139078
-0.0442038
0.0130995
-0.0450827
0.0121414
-0.0459764
0.0110475
-0.0468836
0.00985235
-0.047797
0.00859427
-0.0487059
0.00730285
-0.0495965
0.00599222
-0.0504525
0.00466823
-0.051258
0.00334447
-0.0520042
0.00205108
-0.0526935
0.000837418
-0.0533467
-0.000229853
-0.0540088
-0.00107141
-0.0547566
-0.00161228
-0.0556712
-0.00182054
-0.00188115
-0.0138793
0.0269878
-0.0221725
0.0240136
-0.0275747
0.0231069
-0.0315678
0.0228213
-0.0345755
0.0221604
-0.0367687
0.0211117
-0.0383065
0.0198785
-0.0393603
0.0186596
-0.0401056
0.0176114
-0.0407075
0.0168181
-0.0412911
0.0162507
-0.04192
0.0157834
-0.0426131
0.0152889
-0.0433722
0.0146869
-0.044197
0.0139426
-0.0450889
0.0130489
-0.0460475
0.012018
-0.0470675
0.0108794
-0.0481365
0.00966475
-0.0492339
0.00839567
-0.0503291
0.00707629
-0.0513826
0.00570429
-0.0523558
0.00429399
-0.0532204
0.0028863
-0.0539708
0.00155318
-0.054633
0.000393254
-0.0552682
-0.000479074
-0.055975
-0.000951485
-0.0568752
-0.000968936
-0.000849574
-0.0168058
0.0437943
-0.0251975
0.0324074
-0.0303327
0.0282463
-0.0341782
0.0266729
-0.036852
0.0248422
-0.0385647
0.0228342
-0.0395439
0.0208694
-0.0400153
0.0191444
-0.0402033
0.0178147
-0.0403201
0.0169519
-0.0405235
0.0164726
-0.0408642
0.0161437
-0.0413299
0.0157744
-0.0419044
0.0152807
-0.0425824
0.0146382
-0.0433659
0.0138474
-0.0442588
0.0129224
-0.0452623
0.0118897
-0.0463695
0.0107735
-0.0475581
0.00957979
-0.0487843
0.00829195
-0.0499843
0.00688748
-0.0510912
0.00537808
-0.0520522
0.00381888
-0.0528402
0.00230766
-0.053473
0.000988046
-0.0540245
3.07632e-05
-0.0546198
-0.000401014
-0.0554079
-0.000228155
0.000161894
-0.00997845
0.0537733
-0.0206529
0.0430842
-0.0292052
0.0368026
-0.0339849
0.0314585
-0.0366704
0.0275353
-0.0380835
0.0242567
-0.0386381
0.0214352
-0.0386488
0.0191682
-0.0383838
0.0175645
-0.0380929
0.0166774
-0.0379897
0.0163872
-0.0380865
0.0162593
-0.0383068
0.0160136
-0.0386072
0.0155993
-0.0389831
0.0150308
-0.0394454
0.0143239
-0.0400121
0.0134998
-0.0407085
0.0125925
-0.0415634
0.0116296
-0.042589
0.0106011
-0.0437585
0.0094511
-0.0449948
0.00810752
-0.0461864
0.00654765
-0.0472311
0.00483601
-0.0480659
0.00310999
-0.0486793
0.00156459
-0.049123
0.000433904
-0.0495298
-3.78558e-05
-0.0500682
0.000264075
0.00114677
0.207033
0.0123592
0.206246
0.0162741
0.205315
0.0196827
0.204241
0.0229503
0.203026
0.026148
0.201667
0.029328
0.200169
0.032531
0.198538
0.0357916
0.196762
0.0391613
0.194836
0.0426834
0.192757
0.0463886
0.190512
0.0503307
0.188087
0.054568
0.18547
0.0591532
0.182646
0.0641604
0.179602
0.0696741
0.176305
0.075812
0.172742
0.0827068
0.168906
0.0905256
0.164754
0.0995069
0.160318
0.109929
0.155636
0.122111
0.150808
0.136486
0.146048
0.153607
0.141804
0.174107
0.139332
0.19802
0.140296
0.224499
0.14835
0.252434
0.168607
0.274471
0.280678
0.312508
0.212074
0.0129692
0.211316
0.0170284
0.210425
0.0205646
0.2094
0.0239588
0.208242
0.027285
0.206953
0.0305925
0.205542
0.0339188
0.204005
0.0373079
0.202333
0.040816
0.20053
0.0444745
0.19859
0.048323
0.196504
0.0524175
0.194268
0.0568105
0.191875
0.0615574
0.189313
0.0667361
0.186575
0.0724288
0.183661
0.0787437
0.180569
0.0858158
0.177325
0.0937858
0.173945
0.102901
0.170537
0.113352
0.167235
0.125428
0.16433
0.139407
0.162342
0.15561
0.162259
0.174204
0.165935
0.194356
0.176025
0.214419
0.197385
0.231079
0.232089
0.239769
0.24758
0.265187
0.217243
0.0135547
0.216524
0.017745
0.215682
0.0213996
0.214715
0.024911
0.213628
0.0283508
0.212427
0.0317688
0.211115
0.0352065
0.209686
0.0387143
0.20814
0.0423421
0.206485
0.0461166
0.204713
0.0500866
0.202823
0.0543054
0.200813
0.0588242
0.198681
0.0636978
0.196435
0.0689948
0.194076
0.0748024
0.191626
0.0812088
0.189122
0.0883359
0.186592
0.0963312
0.184152
0.105355
0.181963
0.115555
0.180277
0.127132
0.179555
0.140148
0.180506
0.154678
0.184396
0.170331
0.192885
0.185882
0.207515
0.1998
0.228666
0.209936
0.253213
0.215225
0.216804
0.283989
0.222543
0.0141102
0.221868
0.0184187
0.221079
0.0221807
0.220183
0.0257936
0.219183
0.0293318
0.21808
0.0328475
0.216878
0.0363818
0.215578
0.0399904
0.214182
0.0437175
0.212696
0.047586
0.211119
0.0516532
0.20945
0.0559696
0.207699
0.0605758
0.205874
0.0655284
0.203994
0.070885
0.202084
0.0767248
0.200172
0.0831349
0.198324
0.0901978
0.196618
0.0980509
0.195222
0.106765
0.194347
0.116443
0.194344
0.127154
0.195754
0.13876
0.199349
0.151104
0.206192
0.163509
0.217148
0.174944
0.232483
0.184478
0.251573
0.190853
0.27385
0.192953
0.189481
0.301174
0.227974
0.0146322
0.227348
0.0190432
0.226627
0.0228946
0.225814
0.0265936
0.224909
0.030219
0.223917
0.0338161
0.222844
0.0374283
0.221689
0.0411198
0.220461
0.0449227
0.219166
0.0488628
0.217806
0.0530004
0.21639
0.0573778
0.214935
0.0620282
0.213465
0.067002
0.211999
0.0723573
0.210585
0.0781492
0.209274
0.084458
0.208139
0.0913455
0.207322
0.0988806
0.207001
0.107098
0.20743
0.116027
0.209031
0.125572
0.212319
0.135495
0.217928
0.145518
0.22643
0.155029
0.238076
0.163316
0.252785
0.169783
0.270111
0.173538
0.289394
0.173676
0.168834
0.310044
0.233541
0.0151153
0.232976
0.0196079
0.232332
0.0235318
0.231609
0.0273046
0.230809
0.0310006
0.229944
0.0346585
0.229013
0.0383336
0.22802
0.0420868
0.226982
0.0459368
0.225899
0.0499251
0.224781
0.0541032
0.22365
0.0584979
0.222527
0.0631469
0.221443
0.0680858
0.220435
0.0733703
0.219547
0.0790447
0.218861
0.0851538
0.21848
0.091737
0.218554
0.0988176
0.21928
0.106384
0.220962
0.114359
0.22398
0.122571
0.228702
0.130794
0.235503
0.138739
0.24461
0.145944
0.256049
0.151897
0.269681
0.156168
0.285039
0.158192
0.301297
0.157424
0.152276
0.31786
0.239249
0.015553
0.238751
0.0201056
0.238192
0.024085
0.23757
0.0279152
0.236891
0.031662
0.236163
0.0353636
0.235388
0.039084
0.234578
0.0428696
0.233748
0.0467415
0.232896
0.0507545
0.232045
0.054936
0.231227
0.0593034
0.230465
0.0639018
0.229789
0.0687588
0.229252
0.0739095
0.228915
0.0793873
0.22887
0.0852061
0.229241
0.0913753
0.23018
0.0978886
0.231912
0.104662
0.234705
0.11158
0.238798
0.118496
0.244414
0.1252
0.25175
0.131425
0.260893
0.136821
0.27177
0.14104
0.284206
0.143748
0.29781
0.144601
0.31189
0.143354
0.138301
0.32587
0.245101
0.0159376
0.244678
0.0205296
0.244212
0.024547
0.243701
0.0284146
0.243156
0.0321905
0.242578
0.0359192
0.241975
0.0396622
0.241365
0.043453
0.240753
0.0473269
0.240152
0.0513309
0.239596
0.0554711
0.239109
0.0597753
0.238719
0.0642814
0.238469
0.0690042
0.238419
0.0739593
0.238647
0.0791621
0.239249
0.0846091
0.240352
0.0902799
0.242119
0.0961307
0.244731
0.102061
0.248354
0.107971
0.253143
0.113725
0.259241
0.119122
0.266749
0.123936
0.275659
0.127931
0.285865
0.130852
0.297201
0.132428
0.30932
0.132495
0.3217
0.130985
0.126255
0.333753
0.251102
0.0162609
0.25076
0.0208743
0.250392
0.0249116
0.250006
0.0287911
0.249605
0.0325753
0.249191
0.0363125
0.248777
0.0400508
0.248375
0.0438292
0.247995
0.0476791
0.247669
0.0516316
0.24742
0.0556963
0.247272
0.0599044
0.247266
0.0642735
0.247459
0.0688045
0.247909
0.0735066
0.248701
0.0783705
0.249935
0.0833787
0.251725
0.088496
0.254198
0.0936654
0.25747
0.0987984
0.261659
0.103794
0.266883
0.108518
0.27322
0.112805
0.280682
0.116492
0.289227
0.119406
0.298772
0.121323
0.309133
0.122083
0.319987
0.121654
0.33096
0.120024
0.115679
0.341544
0.257251
0.0165188
0.256996
0.0211338
0.256742
0.0251635
0.256492
0.029032
0.256241
0.0328119
0.256
0.0365333
0.255786
0.0402412
0.255605
0.0439844
0.25548
0.0477771
0.255437
0.0516484
0.255499
0.0556102
0.2557
0.059681
0.256094
0.063862
0.256737
0.0681495
0.25769
0.0725486
0.259028
0.0770313
0.260835
0.0815733
0.263201
0.0861352
0.266216
0.0906561
0.269973
0.0950502
0.274558
0.0992204
0.28004
0.103051
0.286437
0.106426
0.293728
0.109219
0.301887
0.111264
0.310813
0.112414
0.320289
0.112621
0.330068
0.111889
0.339891
0.110212
0.106243
0.349336
0.26355
0.0167078
0.263396
0.0212946
0.263267
0.0252925
0.263154
0.0291381
0.263062
0.0328911
0.26301
0.0365669
0.263003
0.0402258
0.263056
0.0439064
0.263193
0.0476138
0.263438
0.0513773
0.263825
0.0551986
0.264398
0.0590858
0.265203
0.0630381
0.266286
0.0670502
0.267709
0.0711155
0.269532
0.075204
0.27182
0.0792852
0.274646
0.0833117
0.278085
0.0872222
0.282202
0.0909406
0.28705
0.0943817
0.292651
0.097464
0.298995
0.100097
0.306081
0.102148
0.31386
0.103501
0.322184
0.104104
0.330878
0.103942
0.33976
0.103018
0.34864
0.101344
0.0977248
0.357167
0.27001
0.0168193
0.269966
0.0213472
0.269961
0.0252998
0.269988
0.0291063
0.270071
0.0327967
0.270217
0.0364043
0.270426
0.0399972
0.270722
0.0435867
0.271133
0.0471782
0.271686
0.0507988
0.272415
0.0544454
0.273359
0.05812
0.274554
0.0618227
0.276043
0.065545
0.277877
0.0692679
0.280111
0.0729615
0.282802
0.0765903
0.286006
0.0801076
0.289775
0.0834568
0.29415
0.0865714
0.299149
0.0893908
0.304772
0.0918519
0.311029
0.0938524
0.317896
0.0952943
0.325276
0.0961343
0.333041
0.0963512
0.341061
0.0959338
0.349195
0.0948966
0.357293
0.0932558
0.089959
0.365067
0.276633
0.0168437
0.276697
0.0212945
0.276818
0.0251838
0.277005
0.0289165
0.277276
0.0325175
0.277624
0.0360416
0.278064
0.0395397
0.278619
0.0430094
0.279314
0.04646
0.280178
0.0499111
0.281239
0.053362
0.282525
0.0568116
0.284075
0.0602538
0.285927
0.0636754
0.288127
0.067054
0.290719
0.070359
0.293748
0.0735545
0.297255
0.0765975
0.301274
0.0794384
0.305817
0.0820314
0.310886
0.0843277
0.316498
0.0862484
0.322645
0.0877156
0.329258
0.0886921
0.336247
0.0891565
0.343516
0.0890926
0.350959
0.0885021
0.358461
0.0874048
0.365907
0.0858191
0.0828164
0.373057
0.283417
0.0167789
0.283593
0.0211331
0.283857
0.024927
0.284222
0.0285524
0.284683
0.0320503
0.285242
0.0354705
0.285923
0.0388433
0.286741
0.0421723
0.287716
0.0454648
0.288873
0.0487316
0.29024
0.0519734
0.291846
0.0551856
0.293722
0.0583586
0.295905
0.0614766
0.298429
0.064516
0.30133
0.0674473
0.304638
0.0702383
0.308382
0.0728484
0.312577
0.0752418
0.317222
0.0773872
0.322332
0.0792207
0.327908
0.0806775
0.333903
0.0817283
0.34025
0.0823531
0.346881
0.0825348
0.353713
0.0822693
0.360658
0.0815658
0.367626
0.0804461
0.374524
0.0789289
0.076195
0.381152
0.290371
0.0166177
0.290675
0.0208462
0.291097
0.024515
0.291638
0.0280157
0.292291
0.0313937
0.293068
0.0346858
0.293984
0.0379143
0.295055
0.0410852
0.296299
0.0442031
0.297738
0.0472735
0.299396
0.0502957
0.301299
0.0532633
0.303476
0.0561646
0.305954
0.0589829
0.308762
0.0616946
0.311927
0.0642724
0.315462
0.0666952
0.319379
0.068926
0.323694
0.0709236
0.328418
0.0726621
0.333546
0.0740943
0.339044
0.0751824
0.344866
0.0759113
0.35096
0.0762643
0.357266
0.0762354
0.363714
0.0758282
0.370231
0.075056
0.376744
0.0739408
0.38318
0.0725006
0.0700127
0.389367
0.297504
0.0163456
0.297951
0.020421
0.298532
0.023948
0.299245
0.0273088
0.300093
0.0305469
0.301083
0.0336906
0.30223
0.0367579
0.303548
0.0397552
0.30505
0.0426853
0.306758
0.0455499
0.30869
0.0483463
0.31087
0.0510671
0.31332
0.0536995
0.316061
0.0562278
0.319115
0.0586282
0.322495
0.0608823
0.326207
0.0629758
0.330264
0.0648635
0.33468
0.0665046
0.339453
0.0678875
0.344556
0.0689911
0.349952
0.0697877
0.355603
0.0702624
0.361464
0.0704077
0.36748
0.0702247
0.373591
0.0697219
0.379739
0.0689142
0.385863
0.0678229
0.391905
0.0664648
0.064203
0.397719
0.304815
0.015956
0.305406
0.0198544
0.306148
0.0232233
0.30704
0.0264284
0.308082
0.0295086
0.309284
0.0324873
0.310658
0.0353794
0.312213
0.0381909
0.313964
0.0409232
0.315925
0.0435758
0.318114
0.0461436
0.320547
0.0486199
0.323244
0.0509896
0.326218
0.0532425
0.329475
0.055361
0.33303
0.0573187
0.336897
0.0591017
0.341081
0.0606753
0.34557
0.0620124
0.35035
0.0631055
0.355401
0.0639388
0.360691
0.0644983
0.366181
0.0647736
0.371829
0.0647626
0.377587
0.0644704
0.383406
0.0639076
0.389235
0.0630897
0.395026
0.0620367
0.400732
0.0607638
0.0587107
0.406228
0.312301
0.0154469
0.31304
0.0191448
0.313946
0.0223387
0.315016
0.0253721
0.316255
0.0282788
0.317667
0.0310782
0.319261
0.0337841
0.321046
0.036401
0.323033
0.0389283
0.325234
0.041366
0.327662
0.0437051
0.330329
0.0459427
0.33324
0.0480685
0.336412
0.0500614
0.339854
0.0519119
0.34357
0.0535956
0.347571
0.0550955
0.351846
0.0563977
0.356376
0.0574805
0.361147
0.0583321
0.36614
0.0589448
0.371324
0.0593141
0.376663
0.059435
0.38212
0.0593087
0.387651
0.0589423
0.393215
0.0583473
0.39877
0.0575386
0.404277
0.0565344
0.409697
0.0553487
0.0534893
0.414921
0.319967
0.0148173
0.320853
0.018292
0.321923
0.0212935
0.323174
0.0241398
0.324607
0.0268586
0.326227
0.0294665
0.328036
0.0319779
0.330041
0.0343949
0.332255
0.0367112
0.334683
0.0389333
0.337327
0.0410553
0.340201
0.0430619
0.343313
0.0449501
0.346669
0.0466993
0.35028
0.0482961
0.35414
0.0497323
0.358242
0.0509904
0.36258
0.0520584
0.367137
0.0529235
0.371893
0.0535751
0.376827
0.0540101
0.381911
0.05423
0.387114
0.0542341
0.392399
0.0540256
0.397732
0.0536128
0.403076
0.053007
0.408396
0.0522222
0.413661
0.0512749
0.418837
0.0501774
0.0484988
0.42383
0.327816
0.0140666
0.328849
0.0172961
0.330084
0.0200877
0.331515
0.0227323
0.33314
0.0252505
0.334964
0.0276554
0.336984
0.0299655
0.3392
0.0321833
0.341621
0.0342911
0.344258
0.0362958
0.347109
0.0382026
0.350181
0.0399881
0.353484
0.0416449
0.357014
0.0431672
0.360768
0.0445403
0.364744
0.0457552
0.368934
0.046801
0.373325
0.0476686
0.3779
0.0483502
0.382639
0.0488379
0.387518
0.0491317