/*--------------------------------*- C++ -*----------------------------------*\
| =========                 |                                                 |
| \\      /  F ield         | OpenFOAM: The Open Source CFD Toolbox           |
|  \\    /   O peration     | Version:  dev                                   |
|   \\  /    A nd           | Web:      www.OpenFOAM.org                      |
|    \\/     M anipulation  |                                                 |
\*---------------------------------------------------------------------------*/
FoamFile
{
    version     2.0;
    format      ascii;
    class       volVectorField;
    location    "4.38";
    object      Force;
}
// * * * * * * * * * * * * * * * * * * * * * * * * * * * * * * * * * * * * * //

dimensions      [1 1 -2 0 0 0 0];

internalField   uniform (0 0 0);

boundaryField
{
    inlet
    {
        type            calculated;
        value           uniform (0 0 0);
    }
    outlet
    {
        type            calculated;
        value           uniform (0 0 0);
    }
    flap
    {
        type            calculated;
        value           nonuniform List<vector> 
33
(
(3.66551 1.7671e-17 -0.113907)
(3.64149 7.08842e-23 -0.234656)
(3.61872 -3.05692e-22 -0.342714)
(3.59384 1.69498e-17 -0.419005)
(3.55973 4.8155e-18 -0.46802)
(3.5144 4.77649e-18 -0.493189)
(3.45865 3.42686e-23 -0.499267)
(3.39335 -1.63434e-17 -0.491372)
(3.31521 4.53932e-18 -0.474964)
(3.21853 2.12006e-21 -0.453987)
(3.09502 4.23519e-18 -0.429495)
(2.93152 3.43651e-24 -0.401027)
(2.70439 -1.23774e-17 -0.36583)
(2.36289 3.22776e-18 -0.316044)
(1.77241 -2.22813e-22 -0.235055)
(0.101698 8.9016e-18 0.725198)
(0.0673986 -1.2857e-39 0.494569)
(0.0304814 7.76755e-18 0.231418)
(0.0156255 -2.58287e-41 -0.00050907)
(0.0169271 -1.5239e-17 -0.00126143)
(0.0188176 1.86629e-24 -0.0020494)
(0.0210893 -9.4753e-25 -0.00281388)
(0.0234876 1.58779e-17 -0.00352337)
(0.0257379 -3.52202e-20 -0.00411291)
(0.0276013 -3.77699e-20 -0.00453052)
(0.0289646 -3.95892e-20 -0.00476644)
(0.0298344 -4.07594e-20 -0.00484782)
(0.0303253 1.63826e-17 -0.00481924)
(0.0307769 1.57479e-23 -0.00475303)
(0.0318357 1.64291e-17 -0.00475168)
(0.0349282 1.65206e-17 -0.00500541)
(0.0420487 1.68031e-17 -0.00564343)
(0.0597221 1.75759e-17 -0.00793178)
)
;
    }
    upperWall
    {
        type            calculated;
        value           uniform (0 0 0);
    }
    lowerWall
    {
        type            calculated;
        value           uniform (0 0 0);
    }
    frontAndBack
    {
        type            empty;
    }
}


// ************************************************************************* //
