/*--------------------------------*- C++ -*----------------------------------*\
| =========                 |                                                 |
| \\      /  F ield         | OpenFOAM: The Open Source CFD Toolbox           |
|  \\    /   O peration     | Version:  dev                                   |
|   \\  /    A nd           | Web:      www.OpenFOAM.org                      |
|    \\/     M anipulation  |                                                 |
\*---------------------------------------------------------------------------*/
FoamFile
{
    version     2.0;
    format      ascii;
    class       surfaceVectorField;
    location    "4.38";
    object      Uf;
}
// * * * * * * * * * * * * * * * * * * * * * * * * * * * * * * * * * * * * * //

dimensions      [0 1 -1 0 0 0 0];

internalField   nonuniform List<vector> 
5457
(
(9.91584 1.2052e-21 0.0237267)
(9.96348 -2.96021e-22 0.0388052)
(9.81804 2.57168e-22 0.0309218)
(9.92305 8.95613e-22 0.0463832)
(9.70475 -7.6655e-22 0.03688)
(9.85477 -3.68788e-21 0.055374)
(9.5739 -1.56449e-22 0.0429966)
(9.7599 2.52957e-21 0.0658901)
(9.42538 0 0.0493324)
(9.6453 0 0.0770309)
(9.25926 -3.57916e-22 0.0559471)
(9.51326 5.27654e-21 0.0887254)
(9.07524 2.37544e-23 0.0629859)
(9.36315 -5.60013e-21 0.1012)
(8.87267 6.57063e-21 0.070595)
(9.19393 -1.17145e-20 0.114684)
(8.65067 -3.57523e-22 0.0789046)
(9.00475 1.66541e-20 0.129371)
(8.40821 -4.53682e-21 0.0880402)
(8.79471 -1.73796e-20 0.145442)
(8.14406 1.62382e-21 0.0981295)
(8.56277 1.30215e-20 0.16308)
(7.85691 -1.64549e-20 0.109306)
(8.30768 0 0.182468)
(7.54533 2.87193e-21 0.121709)
(8.02806 -1.09064e-20 0.203792)
(7.20782 1.83339e-20 0.135477)
(7.72243 -1.49322e-20 0.227227)
(6.84288 1.25669e-20 0.150738)
(7.38927 3.06989e-20 0.252916)
(6.44912 -4.99366e-21 0.167606)
(7.02707 1.64139e-20 0.28095)
(6.02532 -1.67388e-20 0.186158)
(6.63443 5.94881e-20 0.311347)
(5.57062 0 0.206407)
(6.21022 -1.58844e-19 0.343994)
(5.08473 0 0.228273)
(5.75366 5.48677e-20 0.378576)
(4.56817 0 0.251553)
(5.26461 0 0.414533)
(4.02256 7.68205e-20 0.275881)
(4.74383 1.82754e-19 0.450992)
(3.45089 9.89377e-20 0.300683)
(4.19327 8.61648e-20 0.486676)
(2.85789 -9.44925e-20 0.32511)
(3.61638 1.78911e-19 0.519838)
(2.25039 -9.04949e-20 0.348015)
(3.01857 -2.76762e-19 0.548157)
(1.63758 -1.46866e-21 0.368382)
(2.40755 1.17941e-21 0.568748)
(1.03008 -2.49766e-20 0.386979)
(1.79364 -3.48048e-19 0.579276)
(0.432272 2.15525e-19 0.305064)
(1.20122 4.06674e-19 0.583212)
(-0.048939 -1.93247e-20 -0.0238671)
(0.529564 2.13587e-19 0.475038)
(-0.216311 -2.1232e-19 -0.306312)
(0.167684 6.39977e-19 0.164271)
(0.0612729 -8.92109e-19 -0.219641)
(9.9979 -5.72395e-22 0.0493324)
(9.99132 -5.80643e-22 0.0397753)
(9.96163 -3.11956e-21 0.0667094)
(9.97689 1.18922e-21 0.0635868)
(9.90443 -3.08435e-22 0.0820029)
(9.93825 -2.46116e-21 0.0833293)
(9.82783 2.64848e-21 0.09815)
(9.87372 2.68827e-21 0.104465)
(9.73166 5.35398e-21 0.115254)
(9.78895 -1.63391e-22 0.126913)
(9.61585 -1.28548e-22 0.133389)
(9.68631 5.44595e-21 0.150588)
(9.48011 -1.74272e-20 0.152852)
(9.56544 -4.54742e-21 0.175855)
(9.32388 -1.2168e-21 0.173965)
(9.42542 -1.06295e-20 0.203144)
(9.14635 -8.59085e-22 0.197017)
(9.26552 1.20425e-20 0.232843)
(8.94653 6.17249e-22 0.222286)
(9.08496 1.25545e-20 0.265323)
(8.72325 1.12108e-20 0.250048)
(8.88278 1.16853e-20 0.300957)
(8.47521 5.39724e-21 0.28058)
(8.65787 -2.69405e-20 0.340123)
(8.20098 -2.87726e-20 0.314159)
(8.40891 -5.262e-21 0.383205)
(7.89903 -1.93285e-21 0.35103)
(8.13452 -3.35451e-20 0.430582)
(7.56779 3.4362e-20 0.391376)
(7.83323 2.3048e-20 0.482569)
(7.20575 8.15391e-20 0.435288)
(7.50348 4.03987e-21 0.539384)
(6.81155 -8.56404e-20 0.48271)
(7.14378 5.14157e-20 0.601105)
(6.38409 -1.01074e-19 0.533349)
(6.75285 -1.41332e-19 0.667576)
(5.92276 5.41027e-20 0.586578)
(6.32958 5.50368e-20 0.73826)
(5.42768 1.85309e-19 0.641347)
(5.87331 -1.53358e-19 0.812116)
(4.90001 1.91462e-19 0.696071)
(5.38415 3.20666e-19 0.887457)
(4.34228 1.67537e-19 0.748494)
(4.8632 -3.6456e-19 0.961768)
(3.75884 -7.94318e-21 0.795529)
(4.31288 8.46368e-19 1.03149)
(3.15633 -1.81773e-19 0.833008)
(3.73753 -5.17541e-19 1.09177)
(2.5447 -3.49237e-19 0.855253)
(3.14384 -2.38431e-20 1.13587)
(1.94045 9.00648e-20 0.85339)
(2.54164 -2.74102e-19 1.15389)
(1.37981 4.03192e-19 0.786834)
(1.94915 -3.93715e-19 1.12696)
(0.860302 8.59847e-19 0.615786)
(1.35469 1.74565e-18 0.984382)
(0.297979 -6.70101e-21 0.157747)
(0.831688 8.56164e-19 0.706591)
(0.412386 -1.5528e-18 0.0842237)
(9.99052 1.20611e-21 0.0566483)
(9.989 2.31142e-21 0.0441497)
(9.95742 1.79381e-21 0.0833878)
(9.97198 -1.18716e-21 0.0792869)
(9.9037 6.04089e-22 0.108606)
(9.93431 6.13246e-22 0.109592)
(9.83193 -1.65808e-22 0.135263)
(9.87272 0 0.140614)
(9.74238 1.07295e-23 0.163664)
(9.79178 -4.473e-26 0.173367)
(9.63494 8.77277e-22 0.193961)
(9.69392 1.69259e-22 0.207985)
(9.50939 2.16305e-21 0.226556)
(9.579 5.84088e-25 0.244916)
(9.36531 2.96155e-21 0.261922)
(9.44632 1.68582e-24 0.284736)
(9.20206 2.54646e-20 0.300518)
(9.29526 -2.56567e-20 0.328005)
(9.01883 2.36086e-20 0.342798)
(9.12525 4.84654e-20 0.375268)
(8.81463 -2.70262e-20 0.389221)
(8.93553 -5.18585e-20 0.427074)
(8.58834 -3.72892e-20 0.440256)
(8.72522 1.99206e-20 0.483979)
(8.33871 -1.04292e-20 0.496379)
(8.49325 -3.55507e-21 0.546559)
(8.06436 -7.76438e-21 0.558032)
(8.23851 0 0.615396)
(7.76381 -7.54841e-21 0.625561)
(7.95975 -1.22639e-19 0.691013)
(7.43555 -2.5394e-20 0.699166)
(7.65562 1.25986e-19 0.773796)
(7.07813 -6.96783e-21 0.778831)
(7.32475 -8.46322e-21 0.863941)
(6.69021 1.73097e-20 0.864182)
(6.96587 1.56484e-19 0.961371)
(6.27069 -1.55435e-19 0.954298)
(6.57775 -4.14686e-19 1.06552)
(5.81893 -1.16987e-20 1.04754)
(6.15933 -1.20217e-19 1.17509)
(5.33502 -2.44104e-19 1.14136)
(5.70994 4.09862e-19 1.28786)
(4.82011 3.29353e-19 1.23201)
(5.22956 -6.6228e-19 1.40038)
(4.27682 3.21105e-19 1.31423)
(4.71894 6.87655e-19 1.50761)
(3.70977 -3.53602e-19 1.38064)
(4.18018 7.01404e-19 1.60242)
(3.12636 4.86026e-20 1.42061)
(3.61695 -6.37412e-19 1.67465)
(2.53785 -7.59996e-19 1.41755)
(3.03415 -4.68668e-20 1.70912)
(1.95705 9.72058e-19 1.33584)
(2.43969 -7.9932e-19 1.68236)
(1.36863 1.72582e-18 1.13674)
(1.82875 1.64282e-18 1.54837)
(0.767897 -6.1526e-19 0.794118)
(1.18569 -8.30224e-19 1.27562)
(0.708358 -9.90209e-20 0.797922)
(9.98625 -1.30872e-22 0.0672946)
(9.98771 1.5122e-24 0.0504903)
(9.95328 -2.3402e-21 0.104849)
(9.96891 -1.18918e-21 0.0949343)
(9.9005 0 0.140824)
(9.9311 -1.22015e-21 0.1354)
(9.82988 1.65662e-22 0.177936)
(9.87064 1.01071e-20 0.176188)
(9.74206 1.60866e-22 0.216976)
(9.79135 -1.05488e-20 0.218934)
(9.63703 -7.09558e-22 0.25837)
(9.69553 2.12804e-20 0.26411)
(9.51464 -2.1599e-21 0.302686)
(9.58323 8.67699e-22 0.312257)
(9.37461 -2.89856e-20 0.350565)
(9.45386 -2.44408e-20 0.364057)
(9.2165 -1.59084e-21 0.402646)
(9.30694 -2.41748e-20 0.420204)
(9.0397 -2.84415e-20 0.459561)
(9.142 2.79274e-20 0.481386)
(8.84351 -3.88961e-21 0.52195)
(8.95852 -5.21807e-20 0.54829)
(8.62711 5.33318e-20 0.590467)
(8.75583 5.35847e-20 0.621612)
(8.38957 6.92446e-21 0.665786)
(8.53312 1.39719e-20 0.702082)
(8.12986 -1.16614e-19 0.748559)
(8.28952 0 0.790447)
(7.84687 1.43347e-20 0.839341)
(8.02414 6.45325e-21 0.887411)
(7.5394 1.41058e-19 0.938504)
(7.73597 -1.25205e-19 0.993536)
(7.20624 1.57301e-19 1.04617)
(7.42389 1.46476e-19 1.10916)
(6.84619 -2.83325e-19 1.16207)
(7.08685 4.13491e-19 1.23432)
(6.4581 -3.75936e-19 1.28527)
(6.72378 -4.11033e-19 1.36857)
(6.04094 3.07816e-19 1.41389)
(6.33353 -2.97384e-19 1.5106)
(5.59396 -2.26731e-20 1.54487)
(5.91496 3.10585e-19 1.65801)
(5.11688 -2.88063e-19 1.67354)
(5.46709 -2.87246e-19 1.8069)
(4.61019 1.06813e-18 1.79312)
(4.9891 -3.84779e-21 1.95138)
(4.07535 4.03391e-19 1.89408)
(4.4805 9.73795e-19 2.083)
(3.51469 -7.26453e-19 1.96281)
(3.94131 -8.22473e-21 2.18992)
(2.9303 -9.40429e-20 1.97981)
(3.37093 -1.81468e-19 2.25559)
(2.32042 -1.01692e-19 1.91412)
(2.76796 -7.63696e-19 2.2576)
(1.6688 -9.36111e-19 1.73477)
(2.12577 -1.00813e-19 2.16212)
(0.947636 -3.24388e-19 1.42364)
(1.40628 8.57295e-19 1.94865)
(0.808343 -2.72895e-18 1.58516)
(9.98421 -1.07458e-21 0.0787418)
(9.9871 -2.31085e-21 0.0577743)
(9.95087 -6.97732e-23 0.125727)
(9.9674 5.92221e-21 0.110757)
(9.89896 9.05586e-21 0.171289)
(9.92964 7.32851e-21 0.160787)
(9.82962 -8.98726e-22 0.217975)
(9.87033 -1.18144e-21 0.211131)
(9.74352 1.10362e-20 0.266973)
(9.79283 -1.10365e-20 0.263621)
(9.64075 2.25505e-20 0.31896)
(9.69927 2.16188e-20 0.319045)
(9.52117 -2.17902e-20 0.37462)
(9.58971 1.77908e-22 0.378073)
(9.38455 -1.96263e-20 0.434696)
(9.46365 2.31866e-20 0.441474)
(9.23052 6.09602e-21 0.499938)
(9.32067 -4.7392e-20 0.510053)
(9.05862 3.05535e-21 0.571091)
(9.16039 -6.15369e-21 0.584613)
(8.86829 6.80321e-21 0.648905)
(8.9824 -6.39125e-21 0.665945)
(8.6589 1.3661e-20 0.734159)
(8.78614 6.70991e-21 0.754865)
(8.42972 6.85195e-21 0.827654)
(8.57093 2.58928e-23 0.852238)
(8.17996 1.23186e-19 0.930181)
(8.33609 1.43158e-20 0.958925)
(7.90882 -1.34906e-19 1.04245)
(8.08092 1.06649e-19 1.07576)
(7.61542 -1.16187e-19 1.16499)
(7.80468 -1.67746e-20 1.20345)
(7.29879 4.06397e-19 1.29806)
(7.50647 -3.54526e-19 1.34249)
(6.95796 2.75023e-19 1.44152)
(7.1854 3.04396e-19 1.49306)
(6.59189 -3.30885e-19 1.59456)
(6.84053 5.62739e-19 1.65485)
(6.19938 -2.87205e-19 1.75537)
(6.4707 -9.11704e-19 1.82675)
(5.77913 3.80987e-20 1.92078)
(6.07447 -2.68874e-19 2.00649)
(5.32972 0 2.08578)
(5.65016 7.43439e-21 2.19019)
(4.8496 -8.69362e-20 2.24296)
(5.19562 -7.27769e-19 2.37186)
(4.3371 5.51418e-19 2.38188)
(4.70817 8.25735e-20 2.54273)
(3.78991 5.35335e-19 2.48823)
(4.18458 7.16063e-19 2.69075)
(3.2039 -8.56414e-19 2.54284)
(3.62026 -8.57779e-20 2.79978)
(2.57083 -7.57297e-19 2.51984)
(3.00824 -8.56054e-19 2.8492)
(1.87477 1.69556e-18 2.39434)
(2.34124 -1.55045e-18 2.81135)
(1.0969 -1.55541e-18 2.1512)
(1.57882 4.82777e-18 2.66918)
(0.902042 -6.66964e-18 2.39104)
(9.98329 4.80293e-21 0.0905273)
(9.98685 0 0.065482)
(9.94982 1.3321e-20 0.146348)
(9.96685 9.45843e-21 0.126644)
(9.89896 -3.02404e-21 0.201197)
(9.92951 3.68985e-21 0.185672)
(9.83126 -1.14522e-20 0.257397)
(9.8716 -1.12877e-20 0.245256)
(9.7473 2.20243e-23 0.316297)
(9.79622 3.24074e-22 0.307211)
(9.64722 -1.07854e-21 0.378745)
(9.70533 3.77443e-22 0.372562)
(9.5309 4.54775e-20 0.445523)
(9.59899 -6.999e-22 0.442118)
(9.39814 -5.59599e-21 0.51746)
(9.47676 4.47636e-20 0.516736)
(9.24863 -5.90659e-20 0.595403)
(9.33826 -4.74335e-20 0.597314)
(9.08198 -1.56056e-20 0.680203)
(9.18318 4.62219e-20 0.684745)
(8.89772 -6.30285e-21 0.772719)
(9.0112 -4.42939e-20 0.779924)
(8.69528 -7.01977e-21 0.87385)
(8.82177 0 0.883786)
(8.47405 7.68811e-21 0.984514)
(8.6143 6.7256e-21 0.997304)
(8.23337 -9.63824e-22 1.10561)
(8.38822 -1.41e-20 1.12143)
(7.97259 2.2316e-19 1.23797)
(8.14292 -1.4784e-20 1.2571)
(7.69101 -2.59604e-19 1.38227)
(7.87774 5.12186e-19 1.40516)
(7.38781 -4.4807e-19 1.53893)
(7.59193 -7.69833e-19 1.56624)
(7.0621 5.95619e-19 1.70797)
(7.28462 2.62825e-19 1.74071)
(6.71284 -3.68081e-20 1.88879)
(6.95487 2.86338e-19 1.92845)
(6.33868 -8.85504e-19 2.07982)
(6.60138 -5.45952e-19 2.12867)
(5.93787 -2.96851e-19 2.27813)
(6.22245 2.87021e-19 2.33943)
(5.50806 -7.28872e-19 2.47892)
(5.81577 5.08527e-22 2.55728)
(5.04616 -5.48936e-19 2.67494)
(5.37819 -9.57323e-20 2.77669)
(4.548 2.54537e-19 2.85587)
(4.90537 8.60545e-20 2.98938)
(4.00806 8.69051e-20 3.00788)
(4.39166 1.42405e-21 3.18387)
(3.4188 -9.28628e-20 3.11299)
(3.82982 8.92973e-20 3.34491)
(2.7697 -1.65435e-18 3.14835)
(3.21008 -4.67408e-20 3.45305)
(2.04705 1.62901e-18 3.09048)
(2.52525 -1.54871e-18 3.48271)
(1.24238 -2.8373e-19 2.92043)
(1.74034 3.13858e-18 3.41268)
(1.00414 -3.37557e-18 3.20377)
(9.983 4.78953e-21 0.102414)
(9.98679 -7.96407e-24 0.073321)
(9.94979 -3.0015e-22 0.166668)
(9.96695 9.42411e-21 0.142413)
(9.90017 -4.78449e-21 0.230411)
(9.93039 -1.69864e-20 0.209957)
(9.83443 6.59948e-22 0.295797)
(9.87414 1.37129e-20 0.278405)
(9.75301 6.80274e-22 0.364239)
(9.8012 -2.0021e-20 0.349502)
(9.65607 7.40665e-22 0.436737)
(9.71338 1.99219e-22 0.42442)
(9.54355 -7.67539e-22 0.514186)
(9.61075 -2.15497e-20 0.504106)
(9.41526 1.60075e-21 0.597507)
(9.49291 4.53189e-20 0.589505)
(9.27094 5.91865e-20 0.687637)
(9.35953 2.96603e-21 0.681595)
(9.11025 1.62644e-20 0.785524)
(9.21038 6.51407e-21 0.781354)
(8.93277 -3.73827e-20 0.892138)
(9.04514 5.99564e-21 0.889789)
(8.73797 1.38412e-20 1.00848)
(8.86329 0 1.00795)
(8.52531 -1.53463e-20 1.13557)
(8.66434 5.73082e-23 1.13688)
(8.29423 -2.79411e-20 1.27439)
(8.4478 -3.23354e-22 1.27764)
(8.04409 2.81373e-19 1.42589)
(8.21304 2.13019e-22 1.43127)
(7.77422 -1.49383e-20 1.5909)
(7.95945 5.0581e-19 1.59874)
(7.48385 -4.52365e-20 1.76999)
(7.68624 -2.82206e-19 1.78087)
(7.17203 -4.62802e-20 1.9634)
(7.39255 -2.54523e-19 1.97821)
(6.83758 -2.33607e-19 2.17083)
(7.07725 -5.22905e-21 2.19096)
(6.4789 6.37461e-19 2.3911)
(6.73884 3.50454e-20 2.41868)
(6.09378 5.81208e-19 2.6218)
(6.37528 5.95342e-19 2.65998)
(5.67913 6.33111e-19 2.85873)
(5.98369 -6.08107e-19 2.91209)
(5.23062 5.42065e-19 3.09538)
(5.56003 1.98616e-18 3.17034)
(4.74237 -1.68327e-19 3.32227)
(5.09873 -7.18913e-19 3.4275)
(4.2067 4.72556e-21 3.52642)
(4.5924 -1.41192e-18 3.67308)
(3.61416 1.34492e-19 3.69079)
(4.03191 1.44771e-18 3.89269)
(2.95349 4.59664e-20 3.79337)
(3.40572 1.34348e-19 4.06731)
(2.21275 0 3.80828)
(2.70603 1.46252e-18 4.1711)
(1.38863 2.57113e-20 3.70737)
(1.90608 -3.00957e-18 4.17498)
(1.11641 1.58357e-18 4.02786)
(9.98311 4.82678e-21 0.114207)
(9.98687 -2.14391e-23 0.0811115)
(9.95052 -7.67753e-21 0.186543)
(9.96749 4.70185e-21 0.157892)
(9.90237 1.95416e-21 0.258768)
(9.93205 -2.46211e-21 0.233529)
(9.83888 -7.463e-21 0.332962)
(9.87774 1.29271e-21 0.310435)
(9.76038 -2.02092e-20 0.410573)
(9.80754 -2.06719e-20 0.390297)
(9.66703 -2.23964e-20 0.492719)
(9.72318 4.86662e-22 0.474382)
(9.55882 2.55042e-20 0.580403)
(9.62472 -2.29292e-20 0.563754)
(9.43559 4.60937e-20 0.674628)
(9.51181 4.53475e-20 0.659446)
(9.29713 -4.96691e-20 0.776415)
(9.38418 0 0.762507)
(9.14314 -3.77577e-21 0.886807)
(9.24163 -4.89939e-20 0.874009)
(8.97322 4.33164e-20 1.00688)
(9.08385 4.39276e-20 0.995068)
(8.78692 -1.37846e-20 1.13773)
(8.91042 -6.45585e-21 1.12681)
(8.58377 1.50765e-20 1.28045)
(8.72095 1.0765e-19 1.27036)
(8.36321 2.78516e-20 1.43615)
(8.51491 1.27122e-19 1.42691)
(8.12462 2.31362e-19 1.60592)
(8.29172 -2.14328e-19 1.59763)
(7.86729 2.28445e-19 1.79071)
(8.05074 2.28328e-19 1.78362)
(7.59039 -4.91057e-19 1.99133)
(7.79116 3.03061e-21 1.98589)
(7.29285 -2.10515e-19 2.20828)
(7.512 -5.20222e-19 2.20528)
(6.97325 2.64261e-19 2.44165)
(7.21195 2.68135e-19 2.44232)
(6.62969 -4.07584e-22 2.69077)
(6.88926 -3.47496e-20 2.69708)
(6.25945 -6.08596e-19 2.95394)
(6.54147 0 2.96884)
(5.85874 7.74327e-19 3.22789)
(6.16515 -1.69668e-20 3.25573)
(5.42224 6.95335e-19 3.50723)
(5.75547 7.18744e-19 3.55427)
(4.94275 -1.97073e-18 3.78372)
(5.3058 -6.75206e-19 3.85859)
(4.41103 5.99322e-20 4.04544)
(4.80733 -1.32763e-18 4.15958)
(3.816 1.43501e-18 4.27589)
(4.24916 2.6821e-18 4.44382)
(3.14559 1.56369e-18 4.45262)
(3.61798 -1.31071e-18 4.69227)
(2.38798 -1.58548e-18 4.54537)
(2.90341 2.87187e-18 4.87781)
(1.54058 -1.42877e-18 4.51295)
(2.08705 -5.93331e-18 4.96215)
(1.24095 1.55551e-18 4.8778)
(9.98347 -1.30642e-23 0.125757)
(9.98703 -2.79739e-23 0.0887339)
(9.95181 9.81115e-21 0.205838)
(9.96836 0 0.172936)
(9.90539 -3.0669e-21 0.286136)
(9.93432 9.6672e-21 0.256264)
(9.84443 -1.22383e-20 0.368734)
(9.88222 -3.22698e-20 0.341205)
(9.76919 3.33931e-22 0.455106)
(9.81506 2.03789e-20 0.429416)
(9.67986 -3.70334e-22 0.546458)
(9.73453 -1.64487e-21 0.522226)
(9.57644 -2.10541e-21 0.643889)
(9.64067 -6.85109e-22 0.620797)
(9.45883 -1.39041e-21 0.74848)
(9.53319 -1.40356e-21 0.726244)
(9.32686 0 0.861336)
(9.41186 0 0.839691)
(9.18025 0 0.983592)
(9.27654 9.63875e-20 0.962301)
(9.01868 -6.54505e-21 1.11641)
(9.12696 -1.98456e-19 1.09527)
(8.84179 1.16544e-19 1.26097)
(8.96281 2.05188e-19 1.23979)
(8.64913 2.20042e-19 1.41848)
(8.78372 1.56266e-20 1.39712)
(8.44015 -1.19534e-19 1.59018)
(8.58917 9.90624e-20 1.56855)
(8.21424 -2.11735e-19 1.77729)
(8.37868 1.34751e-20 1.75539)
(7.97067 0 1.98095)
(8.15157 -2.33347e-19 1.95892)
(7.70852 -3.2494e-20 2.20222)
(7.907 -2.5865e-19 2.18037)
(7.42656 -3.16965e-20 2.44197)
(7.64389 2.48032e-19 2.42091)
(7.12316 -3.4765e-20 2.70072)
(7.36078 5.19168e-19 2.6815)
(6.79605 -3.39474e-20 2.97847)
(7.05565 -1.06707e-18 2.96279)
(6.44205 5.91958e-19 3.2744)
(6.72569 1.09826e-18 3.2649)
(6.05669 -6.43558e-20 3.58641)
(6.36696 1.18382e-18 3.58708)
(5.63377 -6.6807e-19 3.91057)
(5.97391 -6.00651e-19 3.92728)
(5.1649 -3.79528e-20 4.24021)
(5.53891 6.36574e-19 4.28139)
(4.63924 1.33631e-18 4.5648)
(5.05169 -1.80936e-18 4.64214)
(4.04378 -1.0488e-19 4.86841)
(4.49932 2.58597e-18 4.99754)
(3.36445 4.00541e-20 5.12774)
(3.86592 -2.70676e-18 5.3288)
(2.58745 -1.55874e-18 5.30741)
(3.13586 2.75447e-18 5.60744)
(1.70741 -2.92113e-18 5.35054)
(2.29686 -1.52353e-18 5.78549)
(1.38345 -1.46948e-18 5.7746)
(9.98402 -1.41934e-23 0.136948)
(9.98725 -3.02909e-23 0.0961033)
(9.95354 0 0.224428)
(9.96947 0 0.187424)
(9.90909 -2.01438e-20 0.312387)
(9.93708 1.4393e-20 0.278045)
(9.85092 1.0961e-21 0.402957)
(9.88746 -5.92922e-20 0.370579)
(9.77928 1.80848e-20 0.497641)
(9.82362 3.8127e-20 0.466688)
(9.69434 -1.94613e-21 0.597715)
(9.74724 4.13705e-20 0.567745)
(9.59616 6.64888e-24 0.704359)
(9.65838 -4.31154e-20 0.67499)
(9.48468 6.46551e-24 0.818731)
(9.55679 1.40466e-21 0.789614)
(9.35976 9.77311e-20 0.942012)
(9.44229 0 0.912813)
(9.22121 -1.06102e-19 1.07542)
(9.31477 1.94925e-19 1.04583)
(9.06877 1.8705e-20 1.22019)
(9.17409 -2.9641e-19 1.18991)
(8.90215 1.01785e-19 1.37759)
(9.02 1.16113e-19 1.34635)
(8.72091 -1.0433e-19 1.54897)
(8.85212 -8.01387e-21 1.51652)
(8.52458 2.3109e-19 1.73568)
(8.67008 0 1.70183)
(8.31257 -1.10652e-20 1.9391)
(8.47342 2.28225e-19 1.90371)
(8.08417 -4.92519e-19 2.16059)
(8.26151 -2.33533e-19 2.12363)
(7.83838 2.79779e-20 2.4015)
(8.03352 -2.4392e-19 2.36311)
(7.57387 8.02592e-19 2.66312)
(7.7883 4.95799e-19 2.62368)
(7.28882 -5.31713e-19 2.94652)
(7.52433 2.68317e-19 2.90679)
(6.9807 8.96816e-20 3.25247)
(7.23943 -1.06667e-18 3.21378)
(6.64592 1.69223e-18 3.58122)
(6.93056 1.13273e-18 3.54573)
(6.27944 6.28484e-19 3.93209)
(6.59338 5.30495e-19 3.90321)
(5.87423 7.18277e-19 4.30293)
(6.22178 5.28e-22 4.28594)
(5.42068 -1.16138e-18 4.68915)
(5.8072 6.2451e-20 4.69202)
(4.90611 -5.14361e-19 5.08228)
(5.33786 -1.27852e-18 5.11675)
(4.31467 -7.20595e-20 5.46769)
(4.79821 5.41122e-20 5.55067)
(3.62844 6.89483e-20 5.82172)
(4.16857 -6.78748e-20 5.97645)
(2.82864 2.74771e-18 6.10401)
(3.42462 1.34559e-18 6.36524)
(1.90308 -8.03659e-20 6.23978)
(2.55512 2.71871e-18 6.65985)
(1.55491 -4.22986e-18 6.74619)
(9.98471 -1.52736e-23 0.14769)
(9.98752 -9.04886e-21 0.103156)
(9.95562 1.46095e-20 0.242203)
(9.97078 4.62871e-21 0.201255)
(9.91337 -2.58138e-20 0.337396)
(9.94025 1.91681e-20 0.298761)
(9.85824 -2.08873e-20 0.435484)
(9.89334 -3.94473e-20 0.398434)
(9.79049 6.1463e-20 0.537998)
(9.83308 2.02799e-20 0.50196)
(9.7103 -1.00664e-21 0.646273)
(9.76116 4.3355e-20 0.610751)
(9.61776 -4.11001e-20 0.761558)
(9.67766 -4.31269e-20 0.726109)
(9.51287 1.37876e-21 0.88508)
(9.58235 1.35515e-21 0.849291)
(9.39555 9.98656e-20 1.01809)
(9.47516 -1.42373e-21 0.981559)
(9.26567 -2.00903e-21 1.16187)
(9.35601 3.86593e-21 1.1242)
(9.12307 -1.9352e-19 1.31773)
(9.22486 -9.88728e-22 1.27856)
(8.96748 4.61367e-21 1.48705)
(9.08149 -2.02761e-19 1.446)
(8.79855 9.64985e-20 1.67126)
(8.92563 2.00844e-19 1.62798)
(8.61593 0 1.87186)
(8.75704 0 1.82602)
(8.41908 0 2.09039)
(8.57535 0 2.04169)
(8.20732 1.51453e-20 2.32846)
(8.37997 -2.27598e-19 2.27669)
(7.97965 2.32869e-19 2.58775)
(8.17015 2.61871e-19 2.5328)
(7.73475 -4.1341e-20 2.86999)
(7.94481 2.30498e-19 2.81194)
(7.47073 -2.81808e-19 3.17688)
(7.70246 -2.51697e-19 3.11609)
(7.18494 1.06369e-21 3.51008)
(7.44096 -1.71011e-20 3.44736)
(6.87356 -3.65533e-20 3.87104)
(7.15721 -5.19095e-19 3.80788)
(6.5312 -1.03714e-19 4.26078)
(6.84679 -5.64172e-19 4.19973)
(6.15015 -6.5558e-19 4.67938)
(6.50329 -3.55576e-20 4.62473)
(5.71965 -6.81001e-20 5.12506)
(6.11752 -6.14498e-19 5.08379)
(5.22489 -6.96053e-19 5.59255)
(5.67635 5.52241e-19 5.57589)
(4.64618 5.89274e-20 6.07027)
(5.16128 -1.22102e-18 6.09591)
(3.95914 1.22576e-18 6.53615)
(4.54743 1.23775e-18 6.63074)
(3.13536 1.33431e-18 6.9464)
(3.79772 -1.19259e-18 7.15437)
(2.14867 -1.49346e-18 7.20678)
(2.89265 2.5522e-18 7.60318)
(1.77567 -2.76351e-18 7.83363)
(9.98551 -4.1472e-21 0.157907)
(9.98782 -6.87228e-23 0.109842)
(9.95798 9.40363e-21 0.259064)
(9.97225 -4.56935e-21 0.214345)
(9.91813 4.70212e-21 0.361053)
(9.94376 -9.48324e-21 0.318311)
(9.86627 2.56872e-21 0.46618)
(9.89976 3.41746e-20 0.424653)
(9.80268 2.4958e-21 0.576014)
(9.84332 -1.75306e-20 0.535093)
(9.72755 0 0.691936)
(9.77613 2.5816e-21 0.651074)
(9.64102 -4.37504e-23 0.815253)
(9.6983 0 0.773951)
(9.54314 -1.4861e-21 0.947251)
(9.60965 -8.85923e-26 0.905035)
(9.4339 -9.73804e-20 1.08924)
(9.51017 -9.09395e-20 1.04564)
(9.31326 4.79791e-21 1.24255)
(9.39987 -3.06819e-21 1.19711)
(9.18109 -1.28485e-20 1.40859)
(9.27878 9.69674e-20 1.36083)
(9.03724 -1.32674e-21 1.5888)
(9.14677 -7.55641e-21 1.53827)
(8.88149 1.01767e-19 1.78472)
(9.00369 -5.13484e-21 1.73094)
(8.71358 0 1.99794)
(8.84944 0 1.94044)
(8.53309 -2.3049e-19 2.2302)
(8.68373 0 2.16851)
(8.3394 2.48644e-20 2.48336)
(8.50613 -4.512e-19 2.41704)
(8.13166 2.59183e-19 2.75943)
(8.31603 4.60706e-19 2.68809)
(7.90865 1.47232e-20 3.0606)
(8.11255 -2.35231e-19 2.98393)
(7.6686 1.58469e-20 3.38922)
(7.89439 2.39855e-19 3.30709)
(7.40895 -5.43013e-19 3.7479)
(7.65964 1.53732e-20 3.66043)
(7.12599 -1.04844e-18 4.13942)
(7.40549 -5.5288e-19 4.04719)
(6.81428 -4.90844e-19 4.56673)
(7.1278 -4.96306e-19 4.47108)
(6.46593 0 5.0326)
(6.82044 0 4.93626)
(6.06939 1.80728e-20 5.53899)
(6.47428 0 5.44708)
(5.60792 8.80791e-21 6.08562)
(6.07562 1.58516e-20 6.00749)
(5.05737 -1.32085e-20 6.66703)
(5.60365 -4.1656e-22 6.61941)
(4.38423 -1.21343e-18 7.2674)
(5.02792 -1.02083e-22 7.27886)
(3.5434 8.10881e-20 7.845)
(4.29483 -1.19542e-18 7.97031)
(2.48046 1.21375e-18 8.28856)
(3.36224 1.23666e-18 8.63404)
(2.08628 -1.15022e-18 9.10258)
(9.98639 -4.90062e-22 0.16754)
(9.98816 -8.91699e-21 0.116123)
(9.96058 -2.35327e-20 0.274928)
(9.97384 -7.37963e-24 0.226626)
(9.9233 2.06013e-20 0.383254)
(9.94755 -1.89856e-20 0.336608)
(9.87492 1.33515e-20 0.494924)
(9.90665 3.90458e-20 0.449133)
(9.81572 -1.71605e-20 0.611542)
(9.85422 -4.00895e-20 0.565961)
(9.74593 2.54565e-21 0.734527)
(9.792 2.05358e-20 0.688565)
(9.66573 4.36632e-23 0.865233)
(9.72011 0 0.818338)
(9.57522 -9.07115e-20 1.005)
(9.63845 -1.31608e-21 0.956635)
(9.47448 4.5505e-21 1.15516)
(9.54704 -8.95474e-20 1.10481)
(9.36353 9.04458e-20 1.31713)
(9.446 9.02292e-20 1.26424)
(9.24235 1.00901e-19 1.49236)
(9.33542 -1.48223e-21 1.43639)
(9.1109 -1.13044e-20 1.68235)
(9.21532 9.96244e-20 1.62274)
(8.9691 -1.0691e-19 1.88871)
(9.08568 -1.11443e-19 1.82487)
(8.8168 0 2.11316)
(8.94652 6.44484e-21 2.04447)
(8.65373 -2.26214e-19 2.3576)
(8.7977 0 2.28339)
(8.47947 -4.84783e-21 2.62411)
(8.63899 -4.36806e-21 2.5437)
(8.29337 -4.19143e-20 2.915)
(8.47002 -1.67374e-20 2.82769)
(8.09448 -5.02276e-21 3.23288)
(8.29023 -2.75907e-20 3.13793)
(7.88135 2.37064e-19 3.58076)
(8.09867 5.99591e-21 3.47745)
(7.6518 -2.91029e-22 3.96213)
(7.89393 -1.54129e-20 3.84977)
(7.40261 0 4.38117)
(7.67383 0 4.25919)
(7.12892 0 4.84281)
(7.43506 -1.90552e-21 4.71097)
(6.82339 0 5.35288)
(7.17256 0 5.21164)
(6.4748 -2.07236e-21 5.91799)
(6.8785 0 5.76935)
(6.06571 6.43632e-21 6.54491)
(6.54044 -2.4067e-23 6.39409)
(5.56861 1.27062e-20 7.23885)
(6.13795 -4.83956e-19 7.09771)
(4.93994 3.19223e-21 7.99923)
(5.63821 5.05894e-19 7.89237)
(4.10997 -8.29294e-22 8.80229)
(4.97258 -1.1111e-21 8.78825)
(2.96948 -1.1708e-18 9.54146)
(4.06189 3.55932e-21 9.75978)
(2.5761 -2.11361e-18 10.6692)
(9.98733 -8.30913e-21 0.176539)
(9.98851 -8.96806e-21 0.121967)
(9.96336 4.25884e-21 0.289721)
(9.97553 9.19395e-21 0.238039)
(9.92881 2.78006e-22 0.403911)
(9.95157 1.40604e-20 0.353578)
(9.88408 -1.55194e-20 0.521611)
(9.91392 -9.60274e-21 0.471784)
(9.82948 -1.53226e-21 0.644457)
(9.86569 -2.00265e-20 0.594458)
(9.76526 1.7705e-20 0.773899)
(9.80863 2.30535e-20 0.723095)
(9.69166 -1.3781e-21 0.911327)
(9.74292 -4.21574e-20 0.859118)
(9.60884 -1.34091e-21 1.05811)
(9.66849 -2.0846e-22 1.00391)
(9.51694 -1.47053e-21 1.21564)
(9.58546 1.35105e-19 1.15886)
(9.41608 -2.9341e-21 1.38534)
(9.49402 -9.28321e-20 1.32537)
(9.30636 -1.46334e-21 1.5687)
(9.39435 -9.44837e-20 1.50493)
(9.18786 -3.17682e-21 1.76729)
(9.2866 1.93709e-19 1.69905)
(9.06065 3.42972e-21 1.98275)
(9.17093 -9.92467e-20 1.90934)
(8.92472 6.36799e-21 2.21691)
(9.04745 1.02431e-19 2.13757)
(8.78 2.21933e-19 2.47179)
(8.91625 -3.1126e-19 2.38567)
(8.62633 -1.63221e-20 2.74964)
(8.77735 4.36899e-19 2.65581)
(8.46339 -2.5725e-21 3.05302)
(8.6307 -2.27182e-19 2.95044)
(8.29061 -1.60897e-20 3.38488)
(8.47612 2.26561e-19 3.27239)
(8.10708 -2.4697e-19 3.74877)
(8.31322 -4.61244e-19 3.62501)
(7.91134 -1.4951e-20 4.14896)
(8.14129 4.49705e-19 4.01236)
(7.7011 -1.92621e-21 4.59081)
(7.95916 1.07222e-21 4.43953)
(7.47282 -1.8875e-21 5.08112)
(7.76492 2.38996e-19 4.91301)
(7.22087 0 5.62869)
(7.55552 -7.38419e-21 5.44136)
(6.93622 2.04123e-21 6.24507)
(7.32605 -4.91285e-19 6.03606)
(6.60385 -4.95783e-19 6.94554)
(7.06836 9.57149e-19 6.71304)
(6.19762 1.73575e-20 7.75047)
(6.76798 -1.00763e-18 7.49528)
(5.66986 4.95319e-19 8.68761)
(6.40042 5.09368e-19 8.4169)
(4.92735 3.34251e-21 9.78783)
(5.90269 -4.17517e-19 9.5347)
(3.77198 -9.69921e-19 11.0557)
(5.18636 4.4973e-19 10.9288)
(3.4519 -9.65349e-19 12.759)
(9.98833 8.79246e-21 0.184864)
(9.98889 9.08703e-21 0.127351)
(9.9663 1.90693e-20 0.303381)
(9.9773 0 0.248537)
(9.93461 3.86599e-21 0.422944)
(9.95576 1.03463e-20 0.369156)
(9.89368 -1.42605e-20 0.546137)
(9.9215 -1.9289e-20 0.492531)
(9.84384 5.16786e-21 0.674628)
(9.87761 4.65088e-21 0.620494)
(9.7854 -3.7726e-20 0.80989)
(9.82589 -3.32827e-20 0.754559)
(9.71862 -4.04244e-20 0.953335)
(9.76657 -4.31142e-20 0.896168)
(9.64373 1.38076e-19 1.10636)
(9.69962 4.16728e-20 1.04672)
(9.56097 4.07525e-20 1.27037)
(9.62525 1.33786e-19 1.20763)
(9.47053 -1.84441e-19 1.44682)
(9.54372 -1.7776e-19 1.3803)
(9.37263 1.04372e-19 1.63721)
(9.45534 -9.51977e-20 1.56622)
(9.26751 9.40208e-20 1.84313)
(9.36039 2.88408e-19 1.76693)
(9.15536 2.25732e-21 2.06627)
(9.25916 -9.79686e-20 1.98405)
(9.03638 -2.20191e-19 2.30851)
(9.15196 2.50392e-21 2.21937)
(8.91074 -8.77278e-20 2.57194)
(9.03909 -2.23297e-19 2.47486)
(8.77858 2.18621e-19 2.85891)
(8.92085 2.18615e-19 2.75274)
(8.63997 7.10674e-21 3.17212)
(8.79759 -1.96873e-19 3.05552)
(8.49488 -2.25962e-19 3.51477)
(8.66958 6.86604e-21 3.38614)
(8.3431 2.44954e-19 3.89073)
(8.5371 -2.52752e-20 3.74814)
(8.18415 4.61856e-19 4.30481)
(8.40035 4.80689e-19 4.14584)
(8.01714 2.45327e-19 4.76316)
(8.25941 2.14866e-19 4.58471)
(7.84056 2.3112e-19 5.27388)
(8.11427 2.47864e-19 5.07189)
(7.65182 -5.03775e-19 5.84798)
(7.96473 2.19031e-19 5.61697)
(7.44654 4.74656e-19 6.50087)
(7.81035 -4.87023e-19 6.23327)
(7.2169 4.31251e-19 7.25522)
(7.65043 7.63965e-19 6.94017)
(6.94802 -5.01573e-19 8.1465)
(7.48377 -2.84929e-19 7.76773)
(6.60887 -4.15098e-19 9.23685)
(7.31236 3.14587e-20 8.76661)
(6.12422 1.86551e-20 10.6547)
(7.13685 -4.24982e-19 10.0391)
(5.26451 4.47723e-19 12.9505)
(7.18429 4.22849e-19 11.8377)
(6.50346 -1.73648e-19 15.8328)
(0.2077 0 -0.143633)
(0.123213 4.51415e-21 -0.190448)
(0.428546 -1.1003e-21 -0.130498)
(0.303421 0 -0.196128)
(0.626958 -2.90979e-21 -0.10663)
(0.500914 -1.27342e-21 -0.169262)
(0.796085 3.82055e-22 -0.0840268)
(0.68483 2.41591e-21 -0.139891)
(0.937097 1.50217e-21 -0.0647207)
(0.842081 -1.10431e-21 -0.113778)
(1.05223 1.67531e-22 -0.0482536)
(0.97284 1.3528e-22 -0.0909843)
(1.14325 0 -0.0338856)
(1.08059 -2.86328e-21 -0.07063)
(1.21127 -8.88765e-22 -0.0210618)
(1.16774 1.35276e-21 -0.0519112)
(1.257 -1.85482e-22 -0.00952877)
(1.23556 -8.00993e-22 -0.0343364)
(1.28123 7.10635e-22 0.000553249)
(1.28477 2.13376e-21 -0.0178873)
(1.28572 0 0.00860829)
(1.31611 0 -0.00322051)
(1.27385 0 0.0140647)
(1.33095 1.72689e-22 0.0085923)
(1.25034 0 0.0167385)
(1.33127 -6.50878e-22 0.0166792)
(1.22063 0 0.0168442)
(1.32111 2.11393e-23 0.0207318)
(1.19019 -6.94723e-23 0.0149412)
(1.30621 4.57523e-22 0.0208918)
(1.16371 -7.07492e-23 0.0117627)
(1.29191 -2.51739e-24 0.0178796)
(1.14441 0 0.00797043)
(1.28213 2.55975e-22 0.0128336)
(1.13415 0 0.00403571)
(1.2789 -1.35164e-22 0.00674107)
(1.13364 0 0.000343219)
(1.28298 -3.40977e-22 0.000396468)
(1.14219 0 -0.00278368)
(1.2942 1.11587e-22 -0.00530088)
(1.15824 0 -0.0052507)
(1.31162 -9.63242e-23 -0.00982777)
(1.18022 3.89479e-23 -0.00715297)
(1.33404 -8.37683e-23 -0.0132468)
(1.20673 5.79217e-23 -0.00857825)
(1.36009 8.21122e-23 -0.0157099)
(1.23648 6.32926e-23 -0.00953114)
(1.38846 -1.58223e-23 -0.0173276)
(1.26815 2.15849e-23 -0.00996024)
(1.41796 -1.51594e-23 -0.0181277)
(1.30034 -5.60977e-24 -0.00986869)
(1.44747 -2.9291e-23 -0.0181106)
(1.33182 7.16536e-24 -0.00941751)
(1.47584 1.15868e-23 -0.0173957)
(1.36183 -1.40049e-23 -0.00883734)
(1.50213 1.5356e-23 -0.0163039)
(1.39004 -1.41364e-24 -0.00808691)
(1.52595 2.14837e-24 -0.0150615)
(1.55182 4.91393e-24 -0.0130428)
(0.179543 4.56282e-21 -0.298038)
(0.0935956 4.5196e-21 -0.371502)
(0.383801 -1.46886e-22 -0.281372)
(0.253299 5.05298e-21 -0.3777)
(0.572346 2.34019e-21 -0.238642)
(0.429001 -4.97815e-21 -0.329358)
(0.737052 1.27291e-21 -0.196109)
(0.593835 2.53446e-21 -0.275464)
(0.879039 -2.8128e-21 -0.159177)
(0.736767 -2.61841e-21 -0.227921)
(1.00088 -3.00147e-21 -0.127262)
(0.858848 -1.66029e-22 -0.187035)
(1.10454 -1.6128e-21 -0.0988872)
(0.963249 -2.86268e-21 -0.150964)
(1.19142 1.50634e-21 -0.0729174)
(1.0523 1.35245e-21 -0.118175)
(1.26255 1.58805e-21 -0.0487648)
(1.12741 5.23479e-22 -0.0877629)
(1.31865 1.44151e-21 -0.0264865)