/*--------------------------------*- C++ -*----------------------------------*\
| =========                 |                                                 |
| \\      /  F ield         | OpenFOAM: The Open Source CFD Toolbox           |
|  \\    /   O peration     | Version:  dev                                   |
|   \\  /    A nd           | Web:      www.OpenFOAM.org                      |
|    \\/     M anipulation  |                                                 |
\*---------------------------------------------------------------------------*/
FoamFile
{
    version     2.0;
    format      ascii;
    class       volVectorField;
    location    "2.2";
    object      Force;
}
// * * * * * * * * * * * * * * * * * * * * * * * * * * * * * * * * * * * * * //

dimensions      [1 1 -2 0 0 0 0];

internalField   uniform (0 0 0);

boundaryField
{
    inlet
    {
        type            calculated;
        value           uniform (0 0 0);
    }
    outlet
    {
        type            calculated;
        value           uniform (0 0 0);
    }
    flap
    {
        type            calculated;
        value           nonuniform List<vector> 
33
(
(2.91531 3.58302e-18 -0.272058)
(2.83264 -7.17774e-18 -0.622335)
(2.673 -2.68169e-20 -0.930303)
(2.45797 2.24144e-20 -1.13525)
(2.22751 1.89579e-18 -1.25059)
(2.01027 -1.05858e-17 -1.29811)
(1.81976 3.59412e-18 -1.29893)
(1.65941 -5.96018e-22 -1.26998)
(1.52242 -1.67758e-18 -1.22114)
(1.39962 1.30122e-17 -1.15714)
(1.28192 1.58186e-18 -1.07954)
(1.15892 1.52971e-18 -0.986054)
(1.02005 2.88708e-18 -0.872014)
(0.853695 6.07514e-18 -0.729113)
(0.640807 1.16732e-18 -0.547556)
(0.497812 1.41846e-18 0.574365)
(0.291729 1.00162e-18 0.3392)
(0.105352 4.3145e-19 0.123392)
(-0.0339099 2.66686e-23 0.00323504)
(-0.0337152 1.63883e-22 0.00746287)
(-0.0330936 -1.03196e-19 0.011609)
(-0.0321178 1.38654e-18 0.0148904)
(-0.0309478 1.01567e-19 0.0174205)
(-0.0298289 -1.39277e-18 0.0192853)
(-0.0290082 1.65597e-22 0.0206934)
(-0.0286367 -1.68285e-22 0.0218763)
(-0.0288204 1.51921e-18 0.0230562)
(-0.0295601 -1.95115e-22 0.0243749)
(-0.0306967 -1.17549e-38 0.025822)
(-0.0319078 1.6128e-18 0.0272172)
(-0.0329344 1.69702e-18 0.028408)
(-0.0327823 1.17549e-38 0.0287452)
(-0.0255539 2.69891e-18 0.0221494)
)
;
    }
    upperWall
    {
        type            calculated;
        value           uniform (0 0 0);
    }
    lowerWall
    {
        type            calculated;
        value           uniform (0 0 0);
    }
    frontAndBack
    {
        type            empty;
    }
}


// ************************************************************************* //
