/*--------------------------------*- C++ -*----------------------------------*\
| =========                 |                                                 |
| \\      /  F ield         | OpenFOAM: The Open Source CFD Toolbox           |
|  \\    /   O peration     | Version:  dev                                   |
|   \\  /    A nd           | Web:      www.OpenFOAM.org                      |
|    \\/     M anipulation  |                                                 |
\*---------------------------------------------------------------------------*/
FoamFile
{
    version     2.0;
    format      ascii;
    class       surfaceVectorField;
    location    "0.17";
    object      Uf;
}
// * * * * * * * * * * * * * * * * * * * * * * * * * * * * * * * * * * * * * //

dimensions      [0 1 -1 0 0 0 0];

internalField   nonuniform List<vector> 
882
(
(10.1959 -1.0438e-21 5.109)
(10.4742 -9.02725e-22 5.23282)
(10.5393 -1.4328e-21 4.94707)
(10.6942 9.0196e-22 5.63112)
(10.7463 1.34672e-21 5.30966)
(11.0048 -2.58302e-22 5.68616)
(10.8126 8.55021e-22 5.02713)
(10.8429 -1.42826e-21 4.75366)
(11.0586 1.53647e-22 5.36824)
(11.0725 1.81653e-21 5.06565)
(11.3587 -4.64993e-22 5.71518)
(11.3494 -1.27835e-21 5.38133)
(11.7207 2.05783e-21 6.06179)
(11.6803 1.13712e-21 5.69576)
(12.0716 9.47549e-22 6.00155)
(11.105 -4.5509e-22 4.7948)
(11.1056 -8.59805e-22 4.53662)
(11.3661 3.60545e-22 5.08149)
(11.3484 -1.39855e-21 4.80039)
(11.6749 3.51969e-22 5.36474)
(11.6332 1.27821e-21 5.06001)
(12.0364 0 5.63825)
(11.9644 -1.02309e-21 5.31041)
(12.4548 4.42492e-23 5.89356)
(12.3454 1.0384e-21 5.54473)
(12.9326 2.32319e-22 6.11994)
(12.7786 5.1812e-22 5.75434)
(13.2651 -3.27418e-22 5.92876)
(11.3519 -1.8261e-21 4.54417)
(11.3278 -3.36582e-21 4.30302)
(11.6192 -4.71168e-22 4.78079)
(11.5763 1.43574e-23 4.52229)
(11.9272 -1.33257e-22 5.00732)
(11.8609 1.09381e-21 4.73167)
(12.2789 3.49314e-23 5.21796)
(12.1841 3.46074e-23 4.92645)
(12.676 1.52269e-21 5.40548)
(12.5475 9.56735e-23 5.10067)
(13.1188 -5.63941e-23 5.56128)
(12.9514 4.84352e-22 5.24718)
(13.6054 -5.17852e-22 5.6757)
(13.3949 -5.34786e-22 5.3579)
(14.1315 -1.34159e-24 5.73975)
(13.8702 -1.47912e-25 5.42403)
(14.4333 0 5.43914)
(14.6901 -6.77435e-24 5.74879)
(11.5554 -1.48612e-21 4.28243)
(11.5112 -5.7873e-21 4.05902)
(11.822 1.60867e-21 4.4742)
(11.7594 1.31321e-21 4.23823)
(12.1225 1.26695e-21 4.65139)
(12.0379 1.24268e-21 4.40361)
(12.4582 9.34998e-23 4.80902)
(12.3477 1.10493e-21 4.55108)
(12.8293 -9.67726e-22 4.94116)
(12.6889 -9.91203e-22 4.6757)
(13.2345 -6.07316e-24 5.04113)
(13.0608 0 4.77189)
(13.6708 -4.57828e-24 5.10173)
(13.4612 6.181e-25 4.8336)
(14.1336 1.31844e-24 5.11669)
(13.883 -1.16228e-22 4.85458)
(14.3718 1.19434e-22 4.83072)
(14.6163 -5.90135e-24 5.09179)
(11.7186 -2.93015e-21 4.01549)
(11.6584 -1.05459e-21 3.80973)
(11.9793 9.34706e-22 4.16795)
(11.9018 -2.23542e-21 3.95366)
(12.2676 1.07543e-21 4.30307)
(12.17 -8.85628e-22 4.08128)
(12.5836 -4.91397e-24 4.41678)
(12.4628 1.79132e-21 4.18926)
(12.9263 0 4.50446)
(12.7798 -1.39348e-21 4.27373)
(13.2937 6.85304e-24 4.56109)
(13.1191 1.41687e-21 4.33049)
(13.6825 -1.1374e-22 4.58156)
(13.4781 -6.75873e-22 4.35521)
(14.0879 -2.8118e-22 4.56173)
(13.8508 8.30575e-22 4.34361)
(14.2743 -1.5526e-22 4.29321)
(14.5043 6.59394e-23 4.51394)
(11.8451 -3.38719e-22 3.74803)
(11.7726 1.20068e-21 3.55931)
(12.0964 -4.10047e-21 3.86669)
(12.008 -2.25341e-21 3.67273)
(12.3695 -1.53687e-22 3.9666)
(12.2631 -1.78558e-21 3.76854)
(12.6638 3.67845e-22 4.04459)
(12.5372 1.95132e-21 3.84415)
(12.9777 6.23288e-23 4.09721)
(12.8291 -2.84159e-21 3.89668)
(13.3088 7.17389e-22 4.12088)
(13.1367 3.90802e-21 3.92312)
(13.6538 3.13861e-22 4.11214)
(13.4574 -1.03265e-21 3.9205)
(14.0083 9.05281e-22 4.06837)
(13.7857 6.24022e-22 3.88606)
(14.1526 -6.8111e-22 3.8185)
(14.3673 -1.84699e-22 4.0059)
(11.9389 -7.56898e-22 3.48365)
(11.8572 -3.33498e-22 3.31096)
(12.1784 1.17534e-22 3.57376)
(12.0826 -1.5672e-23 3.39845)
(12.4348 3.70948e-22 3.6447)
(12.323 1.38849e-22 3.46792)
(12.7068 -1.33521e-21 3.69415)
(12.5777 2.23183e-22 3.51746)
(12.9926 1.10712e-21 3.71964)
(12.845 -1.40232e-21 3.54505)
(13.2898 2.10865e-21 3.71878)
(13.1228 1.42723e-21 3.54865)
(13.5952 -7.09677e-22 3.68933)
(13.4084 7.74833e-22 3.52637)
(13.905 -5.56743e-22 3.62983)
(13.6975 -3.59645e-22 3.47658)
(14.0157 -4.07577e-22 3.39877)
(14.215 -3.65445e-22 3.55873)
(12.0041 4.26993e-22 3.225)
(11.916 2.56649e-21 3.06708)
(12.2306 5.41326e-24 3.29139)
(12.13 1.31592e-22 3.13289)
(12.4696 -1.32209e-23 3.3389)
(12.3552 -1.09131e-23 3.1809)
(12.7197 1.54639e-22 3.36594)
(12.5906 5.34306e-24 3.20982)
(12.979 -1.06886e-21 3.37088)
(12.8345 2.04676e-24 3.21833)
(13.2452 6.04837e-23 3.35222)
(13.0848 -1.13497e-21 3.20518)
(13.5154 1.11485e-21 3.30867)
(13.339 2.00979e-21 3.16928)
(13.7863 -2.36152e-24 3.23956)
(13.5936 -1.51906e-21 3.1098)
(13.8702 2.98126e-22 3.0268)
(14.0546 9.90633e-25 3.16425)
(12.0449 2.26309e-21 2.97388)
(11.9527 3.36273e-22 2.82933)
(12.2577 1.14239e-22 3.02087)
(12.1546 2.017e-21 2.8773)
(12.4795 7.50495e-24 3.04977)
(12.3646 5.66797e-24 2.90814)
(12.7087 -1.5152e-22 3.05958)
(12.5815 -1.07264e-22 2.92107)
(12.9435 -6.57484e-23 3.04935)
(12.8036 1.3249e-21 2.91536)
(13.1817 8.6803e-22 3.01825)
(13.0289 -1.37236e-21 2.89033)
(13.4209 -6.9943e-22 2.96567)
(13.2554 8.87553e-22 2.84551)
(13.6584 -1.3527e-21 2.8915)
(13.48 -1.55429e-21 2.78063)
(13.7213 7.79192e-22 2.69609)
(13.8913 6.16966e-22 2.81513)
(11.8731 2.38441e-22 2.68356)
(11.7874 2.3269e-21 2.5495)
(12.0651 8.43825e-23 2.7314)
(11.9706 -2.03318e-21 2.59879)
(12.2643 1.90457e-21 2.7628)
(12.1605 1.80116e-22 2.63231)
(12.4695 -1.12397e-22 2.77721)
(12.3558 1.69028e-21 2.64967)
(12.6792 1.40515e-21 2.7741)
(12.5553 0 2.65051)
(12.8917 -1.7511e-23 2.75304)
(12.7574 4.11166e-23 2.63453)
(13.1051 -1.35213e-21 2.7137)
(12.9604 1.12864e-21 2.60151)
(13.3173 2.1747e-25 2.65597)
(13.1625 -1.1716e-21 2.55139)
(13.526 4.8446e-22 2.58008)
(13.3612 8.72149e-27 2.4843)
(13.5725 4.84213e-22 2.40084)
(13.7291 -4.55772e-23 2.50491)
(11.8873 0 2.46353)
(11.7997 3.74788e-21 2.33909)
(12.0684 -1.93483e-21 2.49814)
(11.9733 -3.79372e-21 2.37602)
(12.2544 -3.78709e-23 2.51724)
(12.1513 -1.78458e-21 2.39805)
(12.444 1.80526e-21 2.52062)
(12.3327 3.6964e-21 2.40507)
(12.6359 -1.39699e-21 2.50814)
(12.5162 4.80019e-23 2.39705)
(12.8284 1.21455e-21 2.47973)
(12.7003 -1.35348e-21 2.374)
(13.0199 1.30913e-21 2.43545)
(12.8836 1.40984e-21 2.33605)
(13.2087 -1.17173e-21 2.37548)
(13.0644 -1.02419e-21 2.28342)
(13.3929 -2.08177e-25 2.30033)
(13.2409 1.03007e-21 2.21648)
(13.4269 3.20598e-24 2.13597)
(13.5707 0 2.22792)
(11.8878 -1.38904e-22 2.2502)
(11.7995 4.07993e-21 2.13427)
(12.0583 -3.63833e-21 2.27423)
(11.9637 -3.7721e-21 2.16122)
(12.2318 2.04416e-21 2.28383)
(12.1306 1.53713e-22 2.17429)
(12.407 1.89639e-21 2.27908)
(12.299 1.7907e-21 2.1736)
(12.5827 9.2565e-23 2.26011)
(12.4679 2.27115e-24 2.15936)
(12.7574 -1.14922e-21 2.22713)
(12.636 4.45634e-23 2.13182)
(12.9298 -9.8074e-22 2.18044)
(12.8019 -1.17286e-21 2.09133)
(13.0984 1.2368e-21 2.12044)
(12.9644 -8.52872e-22 2.03831)
(13.2617 1.03349e-21 2.04777)
(13.1218 1.21018e-21 1.97326)
(13.2865 9.22342e-22 1.897)
(13.4184 8.36565e-24 1.97923)
(11.8774 3.58171e-22 2.04376)
(11.7896 -3.43354e-21 1.93523)
(12.0379 1.13277e-22 2.05946)
(11.9448 1.82416e-21 1.95425)
(12.1997 -1.0405e-22 2.06193)
(12.1012 -1.60723e-21 1.9605)
(12.3618 -1.49722e-22 2.05143)
(12.2578 1.53458e-21 1.95429)
(12.523 -4.69999e-23 2.0283)
(12.4136 -4.81393e-23 1.93598)
(12.6821 2.0262e-23 1.99294)
(12.5675 1.25325e-21 1.90601)
(12.8379 -1.03809e-21 1.9458)
(12.7183 -1.34016e-21 1.86484)
(12.9892 -8.69285e-22 1.88741)
(12.865 -1.05752e-21 1.81302)
(13.1348 1.02058e-21 1.81848)
(13.0062 1.60686e-22 1.75114)
(13.1529 9.41287e-22 1.68)
(13.2737 5.98492e-22 1.75453)
(11.8588 -1.93081e-21 1.84409)
(11.7724 -3.7705e-21 1.74192)
(12.0098 6.15046e-23 1.85339)
(11.919 3.39353e-21 1.75473)
(12.161 7.31183e-23 1.85069)
(12.0658 -3.4238e-21 1.75597)
(12.3113 1.63849e-21 1.8364)
(12.2118 1.67822e-21 1.74603)
(12.4596 1.28363e-21 1.81098)
(12.356 -1.38261e-21 1.72541)
(12.6051 -1.42865e-22 1.77494)
(12.4974 1.44898e-21 1.69461)
(12.7465 -1.36004e-21 1.72885)
(12.6351 -4.29449e-23 1.65421)
(12.8831 2.26662e-24 1.67329)
(12.7682 -8.5372e-24 1.60479)
(13.0138 1.93272e-24 1.60898)
(12.8958 9.80652e-22 1.54699)
(13.0274 -9.93973e-22 1.48158)
(13.1378 3.04887e-24 1.5501)
(11.8342 1.68429e-21 1.65085)
(11.7499 1.06481e-22 1.55403)
(11.9766 -1.78073e-22 1.65536)
(11.8887 1.68414e-21 1.56213)
(12.1182 -1.77758e-21 1.64913)
(12.0269 -2.01335e-22 1.55984)
(12.2579 -1.41612e-21 1.63263)
(12.1633 -2.99336e-21 1.54765)
(12.3951 -1.21084e-21 1.60641)
(12.2973 -1.26103e-21 1.5261)
(12.5286 1.55086e-21 1.57104)
(12.4279 2.81942e-22 1.49576)
(12.6578 1.34123e-21 1.52712)
(12.5544 2.66349e-21 1.45723)
(12.7818 9.93566e-22 1.47528)
(12.676 6.9983e-26 1.41111)
(12.8999 1.84369e-23 1.4162)
(12.7919 1.00232e-21 1.35803)
(12.911 -1.92253e-21 1.29872)
(13.0115 -6.53718e-22 1.36267)
(11.8059 1.06472e-22 1.46354)
(11.7242 -1.6965e-21 1.37114)
(11.9405 1.65878e-21 1.46462)
(11.856 1.54834e-21 1.37574)
(12.0734 -1.44821e-21 1.45618)
(11.9864 1.7497e-22 1.37115)
(12.204 -2.83256e-21 1.43875)
(12.1145 -4.47733e-21 1.3579)
(12.3313 2.72092e-22 1.41291)
(12.2395 1.55504e-21 1.33654)
(12.4547 1.426e-21 1.37924)
(12.3608 9.45813e-23 1.30766)
(12.5734 1.28973e-21 1.33836)
(12.4777 1.29202e-21 1.27184)
(12.6868 9.10598e-24 1.29087)
(12.5895 9.50745e-24 1.22968)
(12.7944 -9.26442e-22 1.23743)
(12.6957 1.01993e-21 1.18178)
(12.8043 -1.03887e-21 1.1288)
(12.8956 -4.37906e-22 1.18943)
(11.7757 -2.19673e-22 1.28151)
(11.6971 -1.84933e-21 1.19265)
(11.9033 2.71738e-23 1.28027)
(11.8226 1.58574e-21 1.19477)
(12.0287 -2.92942e-21 1.27071)
(11.9461 -1.5663e-21 1.1889)
(12.1512 2.02292e-23 1.25337)
(12.0669 -1.44576e-21 1.17554)
(12.2701 1.37507e-21 1.22883)
(12.1843 1.43001e-21 1.15526)
(12.3847 -4.04818e-23 1.19767)
(12.2977 -1.24772e-21 1.1286)
(12.4946 -1.92213e-23 1.16046)
(12.4064 1.2706e-21 1.09614)
(12.5991 1.04484e-21 1.1178)
(12.5101 1.09501e-21 1.05843)
(12.6979 9.50482e-22 1.07027)
(12.6082 -7.88353e-23 1.01602)
(12.7081 -1.13279e-22 0.969501)
(12.7906 -2.22407e-22 1.02787)
(11.7453 0 1.10408)
(11.6701 -1.59665e-21 1.01788)
(11.8667 -4.80411e-23 1.10142)
(11.7901 0 1.01836)
(11.9855 -4.69001e-23 1.09161)
(11.9077 -9.35014e-23 1.01201)
(12.1011 0 1.07518)
(12.0222 0 0.999311)
(12.2129 -1.25635e-21 1.05267)
(12.1331 4.18147e-23 0.98079)
(12.3202 9.68015e-23 1.02462)
(12.2398 -2.46662e-21 0.956964)
(12.4226 2.41174e-21 0.991574)
(12.3417 2.59543e-21 0.928349)
(12.5197 -5.769e-23 0.954062)
(12.4386 1.12127e-21 0.895448)
(12.6112 -1.12135e-21 0.912613)
(12.53 -1.1505e-21 0.858748)
(12.6228 9.70671e-25 0.818763)
(12.6969 -2.91783e-24 0.875853)
(11.7162 -1.59651e-21 0.930262)
(11.6446 -1.72956e-21 0.846047)
(11.8323 -4.65993e-23 0.926922)
(11.7598 1.42766e-21 0.845545)
(11.9455 -4.54926e-23 0.917573)
(11.8724 -1.50292e-21 0.839362)
(12.0553 4.28281e-23 0.902693)
(11.9818 -1.32438e-21 0.827937)
(12.161 -1.19789e-21 0.882777)
(12.0872 1.35279e-21 0.811728)
(12.2622 9.57771e-23 0.858317)
(12.1883 -2.49116e-21 0.791198)
(12.3584 1.27368e-21 0.829792)
(12.2847 2.52247e-21 0.7668)
(12.4495 4.44379e-26 0.797667)
(12.376 0 0.73897)
(12.5351 -9.80782e-25 0.762401)
(12.462 -2.03731e-24 0.708126)
(12.5491 9.54749e-25 0.674697)
(12.615 -2.17732e-21 0.731267)
(11.6896 1.36792e-21 0.759502)
(11.6218 -4.36272e-24 0.676279)
(11.8012 -6.5277e-23 0.756058)
(11.7331 1.50673e-21 0.675328)
(11.9098 -2.81267e-21 0.747715)
(11.8416 -1.49149e-21 0.669825)
(12.0147 1.86896e-23 0.734891)
(11.9466 -1.3355e-21 0.660143)
(12.1155 2.7939e-23 0.718013)
(12.0477 1.34157e-21 0.646672)
(12.2117 -2.7607e-24 0.697505)
(12.1443 -6.97066e-23 0.629799)
(12.303 1.21783e-21 0.673776)
(12.2362 2.14991e-23 0.609904)
(12.3891 -2.13081e-24 0.647216)
(12.3231 1.08417e-21 0.587347)
(12.4699 -5.45252e-26 0.618211)
(12.4048 -1.10989e-21 0.562473)
(12.4873 -9.6699e-22 0.535634)
(12.5452 2.1993e-21 0.5927)
(11.6666 1.37938e-22 0.590059)
(11.6028 1.56235e-21 0.507616)
(11.7747 4.45988e-23 0.586974)
(11.711 2.15383e-24 0.506617)
(11.8795 2.13613e-23 0.580072)
(11.8162 -1.29366e-21 0.502183)
(11.9806 2.08541e-23 0.569696)
(11.9179 2.61106e-21 0.494609)
(12.0775 1.24142e-21 0.556197)
(12.0155 -7.30237e-23 0.484201)
(12.1697 -4.47342e-23 0.539918)
(12.1087 -4.34469e-24 0.471264)
(12.2571 -1.15303e-22 0.521188)
(12.1972 -2.35925e-21 0.45609)
(12.3394 -5.16393e-23 0.50032)
(12.2807 2.25887e-21 0.43896)
(12.4165 -2.10016e-21 0.477617)
(12.359 -1.13245e-21 0.420133)
(12.4381 -2.99248e-23 0.399874)
(12.4883 3.88222e-21 0.457702)
(11.6485 1.42305e-21 0.422499)
(11.5883 2.87987e-21 0.339047)
(11.7538 -1.36862e-21 0.4201)
(11.6942 -7.41359e-22 0.338283)
(11.8557 1.35998e-21 0.414957)
(11.797 -1.98803e-21 0.335197)
(11.9539 2.51352e-21 0.407327)
(11.8962 3.92823e-21 0.329996)
(12.0478 -1.34997e-21 0.397469)
(11.9913 -6.98294e-22 0.322894)
(12.1371 -2.3761e-21 0.385637)
(12.082 -1.84596e-21 0.314104)
(12.2215 7.36818e-23 0.372076)
(12.168 -5.53036e-22 0.30383)
(12.301 1.15053e-21 0.357014)
(12.2491 1.17411e-21 0.292266)
(12.3753 9.8784e-22 0.340672)
(12.3251 2.09902e-24 0.279593)
(12.4017 9.8577e-22 0.265999)
(12.4444 5.35794e-22 0.326367)
(11.6353 6.62375e-22 0.252363)
(11.5018 1.7811e-21 0.169419)
(11.7387 -1.37578e-21 0.250883)
(11.6055 -7.13513e-22 0.169064)
(11.8386 6.44495e-22 0.247726)
(11.706 -6.7909e-22 0.167507)
(11.9348 6.36807e-22 0.243058)
(11.803 1.0026e-21 0.164859)
(12.0266 -1.2075e-21 0.237044)
(11.8959 -3.37554e-22 0.161238)
(12.1139 2.17538e-23 0.229845)
(11.9844 -5.88509e-22 0.156755)
(12.1964 5.75231e-22 0.221613)
(12.0682 5.9138e-22 0.15152)
(12.2739 -2.11042e-24 0.212493)
(12.1472 -4.23485e-24 0.145635)
(12.3464 6.20548e-26 0.202624)
(12.2211 0 0.139193)
(12.2955 3.08481e-27 0.132294)
(12.4138 5.85295e-25 0.19398)
(11.4715 3.71368e-22 0.0850253)
(11.5723 0 0.0845824)
(11.6698 -3.11646e-22 0.0835255)
(11.7635 4.2531e-24 0.0819192)
(11.8529 2.96272e-22 0.0798278)
(11.9379 -4.53803e-24 0.0773131)
(12.018 -2.13726e-24 0.0744331)
(12.0932 -2.08655e-24 0.0712408)
(12.1633 -6.07786e-26 0.06779)
(12.2284 -5.74133e-25 0.0647559)
(14.7501 -9.32028e-24 5.41728)
(14.8581 -3.00032e-23 5.05691)
(14.6441 -1.4251e-23 4.79494)
(15.1039 -2.56054e-23 4.99889)
(14.9036 -1.83366e-21 4.74179)
(15.123 1.80071e-21 4.67325)
(15.3525 9.4216e-23 4.90423)
(14.7116 -1.83999e-21 4.4717)
(14.5082 -1.01984e-23 4.2487)
(14.921 -9.17659e-24 4.4075)
(14.73 -6.45334e-22 4.18979)
(14.9169 6.28271e-22 4.11819)
(15.1316 2.44669e-21 4.31069)
(14.545 1.22099e-21 3.95968)
(14.3537 -2.82765e-23 3.76909)
(14.7236 -1.05924e-23 3.89297)
(14.5435 1.94209e-21 3.70777)
(14.703 -1.95333e-21 3.636)
(14.9022 -8.24429e-22 3.79713)
(14.3676 6.86529e-22 3.51096)
(14.1889 -2.76856e-23 3.34721)
(14.5203 -3.21374e-24 3.44428)
(14.3518 7.26219e-22 3.28582)
(14.4882 -7.22914e-22 3.21583)
(14.6723 -3.80347e-22 3.35168)
(14.186 4.02738e-24 3.11662)
(14.0199 2.77069e-22 2.97504)
(14.317 4.64831e-24 3.05171)
(14.1601 3.94558e-22 2.91519)
(14.2774 -2.15357e-22 2.84825)
(14.4468 2.56541e-24 2.96379)
(14.005 7.64642e-22 2.76881)
(13.8511 4.38852e-23 2.64549)
(14.1177 1.79709e-22 2.70679)
(13.9724 -1.85266e-22 2.58824)
(14.0735 -2.16454e-22 2.52515)
(14.2292 -1.57249e-22 2.6244)
(13.8278 -9.10744e-22 2.46069)
(13.6857 -2.44359e-22 2.35235)
(13.9254 -5.87328e-22 2.40227)
(13.7911 -5.99895e-22 2.29839)
(13.8789 -4.54727e-22 2.23962)
(14.0216 6.45451e-24 2.32587)
(13.6569 9.16046e-25 2.18631)
(13.5261 4.58678e-24 2.09022)
(13.7419 -4.65582e-22 2.13193)
(13.6182 -2.23373e-24 2.03997)
(13.6948 2.12807e-22 1.98576)
(13.8254 -5.09316e-22 2.06169)
(13.4941 1.48117e-24 1.94054)
(13.3739 -4.93152e-24 1.8544)
(13.5686 6.89999e-22 1.89042)
(13.455 -3.1985e-24 1.8081)
(13.5224 6.97432e-22 1.75853)
(13.6416 5.53724e-22 1.82636)
(13.3407 -9.71854e-24 1.71896)
(13.2306 -7.56817e-24 1.64081)
(13.4064 -4.0282e-24 1.67319)
(13.3025 0 1.59857)
(13.362 -1.39897e-25 1.55364)
(13.4707 -1.04723e-23 1.61519)
(13.1975 2.27087e-24 1.51772)
(13.0969 7.94274e-24 1.44592)
(13.2559 3.95205e-24 1.47631)
(13.1611 0 1.40778)
(13.2143 -1.15708e-21 1.36741)
(13.3129 1.02688e-23 1.42422)
(13.0651 5.70259e-24 1.33352)
(12.9737 1.15981e-22 1.26667)
(13.1175 -1.17514e-21 1.29642)
(13.0315 1.46276e-21 1.23259)
(13.0794 -2.44733e-21 1.19669)
(13.1685 -7.95769e-22 1.25003)
(12.9441 1.6244e-21 1.16349)
(12.8614 1.3523e-23 1.10038)
(12.9915 2.06948e-22 1.13062)
(12.914 -2.66618e-23 1.07031)
(12.9574 -2.6374e-21 1.03874)
(13.0376 -1.2502e-21 1.08972)
(12.8349 -1.6727e-21 1.00511)
(12.7605 -1.04855e-22 0.944701)
(12.8782 -2.90825e-21 0.976356)
(12.8088 -1.5616e-21 0.918556)
(12.8486 -2.78548e-21 0.8912)
(12.9202 -1.35476e-21 0.940745)
(12.7378 -3.12686e-24 0.856221)
(12.6715 -1.60509e-21 0.797537)
(12.7777 -1.42111e-21 0.831493)
(12.7162 8.17015e-23 0.775245)
(12.7531 -1.37292e-21 0.751978)
(12.8164 -1.39772e-21 0.800974)
(12.6531 -1.51479e-21 0.714711)
(12.5946 -2.2988e-23 0.657043)
(12.6902 1.46749e-22 0.693906)
(12.6365 -1.53109e-21 0.638532)
(12.6711 7.24571e-23 0.619255)
(12.7263 1.17013e-22 0.668308)
(12.5812 -1.90653e-23 0.579182)
(12.5305 4.982e-21 0.521455)
(12.6161 -1.62838e-21 0.562224)
(12.5701 -3.28127e-21 0.506662)
(12.6028 8.90633e-24 0.491277)
(12.6501 7.83938e-24 0.541405)
(12.5225 1.69784e-21 0.447176)
(12.4794 3.33442e-21 0.389279)
(12.5557 -1.64407e-21 0.433994)
(12.5173 -1.73282e-21 0.378164)
(12.5487 -1.54943e-21 0.366627)
(12.588 4.07256e-24 0.417845)
(12.4774 -1.58014e-22 0.318819)
(12.4417 -7.24905e-23 0.258767)
(12.5094 -1.63665e-21 0.309372)
(12.4784 7.00752e-22 0.2513)
(12.5087 -3.09716e-21 0.243536)
(12.5405 -2.10941e-21 0.29781)
(12.4459 7.78064e-22 0.189398)
(12.3343 1.91683e-26 0.128755)
(12.4771 -7.47085e-22 0.183657)
(12.3699 7.86913e-22 0.124898)
(12.3993 -1.17805e-21 0.120924)
(12.5073 -1.77579e-21 0.176655)
(12.2595 -3.9822e-25 0.0631303)
(12.2896 3.69932e-22 0.061092)
(12.3187 3.61955e-22 0.0586291)
(15.5219 1.45007e-22 4.48814)
(15.5598 0 4.06587)
(15.2536 1.24445e-21 3.93552)
(15.9855 2.51507e-21 3.78801)
(15.6066 2.85578e-22 3.70173)
(16.3946 6.12834e-22 3.43525)
(15.9897 2.97037e-21 3.40351)
(16.3606 -4.03479e-21 3.03497)
(15.2623 1.33945e-21 3.56359)
(14.9878 2.14797e-21 3.45966)
(15.6185 8.05016e-22 3.30915)
(15.2837 -4.38825e-22 3.24208)
(15.96 -1.39794e-21 2.99507)
(15.6034 3.33843e-22 2.97323)
(16.2743 -1.94754e-21 2.61931)
(15.9127 -1.85557e-22 2.64833)
(16.5485 7.58794e-23 2.18473)
(16.188 -1.72861e-21 2.26839)
(16.4177 -1.88353e-21 1.83758)
(14.976 -1.94522e-23 3.13191)
(14.73 8.94558e-22 3.04856)
(15.2745 -8.16617e-22 2.89975)
(14.9791 -8.12849e-22 2.84764)
(15.5595 1.69016e-21 2.61995)
(15.2466 -5.46992e-24 2.60558)
(15.8211 9.97848e-23 2.29094)
(15.5048 1.80471e-21 2.31873)
(16.0493 -3.72169e-21 1.91501)
(15.7343 -1.7704e-21 1.98794)
(16.2336 4.70037e-22 1.49693)
(15.9259 -3.75335e-21 1.6165)
(16.3644 2.33232e-22 1.04383)
(16.0726 4.00953e-21 1.20962)
(16.1668 -2.62616e-21 0.774668)
(14.7043 -6.86445e-23 2.75927)
(14.4836 8.87975e-23 2.69167)
(14.9557 -1.09058e-24 2.54839)
(14.6944 -5.4508e-23 2.50745)
(15.1945 7.08701e-23 2.29924)
(14.9196 1.02492e-22 2.29001)
(15.4133 0 2.01068)
(15.1362 0 2.03661)
(15.6039 -1.75501e-21 1.68459)
(15.3285 -1.17013e-21 1.748)
(15.7583 -3.37115e-22 1.32467)
(15.4892 -7.17728e-22 1.42679)
(15.8691 1.22311e-21 0.936383)
(15.6129 1.50099e-21 1.077)
(15.9295 -2.84454e-22 0.527005)
(15.6937 -4.5743e-22 0.704261)
(15.7258 0 0.315801)
(14.4487 1.07573e-22 2.43578)
(14.2505 8.84706e-23 2.38009)
(14.6617 4.86535e-23 2.24503)
(14.43 2.94119e-22 2.21223)
(14.8632 3.23803e-23 2.02337)
(14.6208 -7.47341e-22 2.01737)
(15.0473 -1.1702e-21 1.77)
(14.8039 1.14265e-21 1.79352)
(15.2076 -1.21012e-22 1.48648)
(14.9662 -2.70832e-21 1.54132)
(15.3379 1.10563e-21 1.1757)
(15.1019 9.48915e-22 1.26286)
(15.4323 -1.72968e-22 0.841867)
(15.207 8.70113e-22 0.961292)
(15.4854 -1.77127e-22 0.490536)
(15.2768 -1.44983e-22 0.640913)
(15.3066 -1.44011e-22 0.307279)
(14.2099 2.73984e-22 2.15318)
(14.0316 2.58067e-22 2.10636)
(14.3917 -4.44393e-22 1.98131)
(14.1855 2.83783e-22 1.95423)
(14.5629 2.95063e-22 1.78434)
(14.3485 -5.46503e-22 1.78008)
(14.719 -3.26435e-22 1.56177)
(14.5044 9.3685e-22 1.58242)
(14.8549 -1.70218e-21 1.31484)
(14.6425 -1.54641e-21 1.36186)
(14.9658 7.08973e-22 1.04588)
(14.7582 -1.11201e-22 1.12006)
(15.0469 9.28978e-22 0.758117)
(14.8482 1.00143e-21 0.8595)
(15.0939 -1.05224e-22 0.455858)
(14.909 1.63417e-22 0.583509)
(14.9368 -1.20178e-22 0.29638)
(13.9881 2.67483e-22 1.90461)
(13.8275 -3.71888e-22 1.86425)
(14.1443 2.53793e-22 1.75034)
(13.9605 2.49018e-22 1.72708)
(14.2911 6.63441e-23 1.5756)
(14.1008 2.62624e-22 1.57188)
(14.4245 -2.3905e-22 1.38009)
(14.2348 -2.5281e-22 1.39756)
(14.5408 4.88173e-23 1.16486)
(14.3533 3.76204e-22 1.20465)
(14.636 1.64635e-22 0.931728)
(14.4528 -3.27263e-22 0.994513)
(14.7063 2.46612e-22 0.683253)
(14.5308 6.92498e-22 0.769102)
(14.7482 1.64339e-22 0.422765)
(14.5843 -1.22945e-21 0.53102)
(14.6102 1.2265e-22 0.28361)
(13.7831 -4.86809e-22 1.68435)
(13.6384 -6.6245e-22 1.64851)
(13.9185 2.57735e-22 1.54641)
(13.7543 2.4733e-22 1.52547)
(14.0453 -1.22736e-23 1.39175)
(13.8761 -7.24935e-24 1.38763)
(14.1605 3.60814e-22 1.22017)
(13.9923 -6.69091e-23 1.23418)
(14.2609 8.60776e-24 1.03255)
(14.0951 4.24256e-22 1.06561)
(14.3435 1.8877e-22 0.83038)
(14.1815 -7.00557e-23 0.883018)
(14.4051 -7.69438e-22 0.615649)
(14.2497 -7.7327e-23 0.687968)
(14.4429 -1.30437e-21 0.390973)
(14.2973 -1.42862e-21 0.482508)
(14.3218 -1.21818e-22 0.269256)
(13.5948 -1.51146e-23 1.4876)
(13.4644 -1.95118e-25 1.45472)
(13.7132 -1.70641e-23 1.36481)
(13.5663 -7.4967e-24 1.34498)
(13.8237 -6.12981e-23 1.22832)
(13.673 -2.64731e-24 1.22306)
(13.9241 -2.2745e-23 1.07803)
(13.7747 -4.63187e-23 1.08838)
(14.0117 3.56327e-22 0.914662)
(13.8647 3.86681e-23 0.941362)
(14.084 -3.38252e-22 0.739424)
(13.9406 3.25321e-22 0.782924)
(14.1386 -7.14708e-22 0.553902)
(14.001 -6.88495e-22 0.614305)
(14.1732 -2.55275e-22 0.360153)
(14.0438 -3.51405e-22 0.437129)
(14.0672 -2.5404e-22 0.253461)
(13.4227 7.63862e-24 1.31033)
(13.3054 1.23048e-21 1.27916)
(13.5271 6.77264e-24 1.20161)
(13.3957 -1.0569e-22 1.1819)
(13.6245 1.33594e-23 1.08164)
(13.4902 -4.3942e-22 1.07463)
(13.7129 6.57832e-24 0.950383)
(13.5801 -7.53747e-26 0.956915)
(13.7901 0 0.808467)
(13.6598 0 0.829129)
(13.8543 -7.53009e-24 0.656854)
(13.7272 4.68939e-24 0.692027)
(13.9032 -3.27459e-22 0.496815)
(13.7812 -6.07525e-24 0.546605)
(13.9352 -3.55111e-22 0.329977)
(13.8204 -3.27457e-22 0.394154)
(13.8429 -2.8382e-22 0.236305)
(13.2665 1.19993e-21 1.14915)
(13.1612 1.98506e-21 1.11865)
(13.3596 -5.78189e-22 1.0535)
(13.242 4.19358e-22 1.03313)
(13.4462 -4.63414e-22 0.948616)
(13.3265 -5.45194e-22 0.939378)
(13.5248 -6.44382e-24 0.834513)
(13.4069 -4.04804e-22 0.837091)
(13.5937 4.68963e-24 0.711708)
(13.4782 8.91162e-24 0.726589)
(13.6513 8.1385e-24 0.580988)
(13.5388 1.08338e-22 0.608492)
(13.6958 2.64707e-24 0.443367)
(13.5878 -9.13891e-23 0.483605)
(13.7256 -2.57853e-22 0.300137)
(13.6239 0 0.352955)
(13.6458 -3.83212e-22 0.217832)
(13.1259 1.27797e-21 1.00119)
(13.0316 1.50624e-21 0.970463)
(13.2097 4.31424e-22 0.917721)
(13.1047 1.10978e-21 0.896004)
(13.2876 -5.07694e-22 0.826699)
(13.181 -6.40246e-22 0.814805)
(13.3583 -3.99056e-22 0.728154)
(13.2537 -3.93877e-22 0.726644)
(13.4205 1.12667e-22 0.622518)
(13.3183 -1.10063e-23 0.631801)
(13.4727 1.06718e-23 0.510433)
(13.3735 -1.02044e-22 0.530785)
(13.5137 -9.70971e-23 0.392711)
(13.4184 1.9395e-22 0.424244)
(13.5419 -1.18312e-22 0.270379)
(13.4522 -7.15147e-23 0.312995)
(13.4735 -1.86557e-22 0.198062)
(13.0006 1.34373e-21 0.863945)
(12.9165 1.57484e-21 0.832275)
(13.0768 1.5275e-23 0.791892)
(12.9834 1.20907e-21 0.768276)
(13.1476 -5.48949e-22 0.713681)
(13.0531 -1.70301e-21 0.69879)
(13.212 -5.40792e-24 0.629358)
(13.1196 5.18161e-22 0.623663)
(13.2688 -2.28426e-22 0.539284)
(13.1788 -3.40901e-22 0.543132)
(13.3168 7.89944e-23 0.443978)
(13.2295 -1.30486e-22 0.457613)
(13.3549 2.25816e-22 0.344089)
(13.2713 5.39488e-22 0.367625)
(13.3819 -1.40083e-22 0.240432)
(13.3032 4.10457e-23 0.273819)
(13.3243 -1.78995e-22 0.177002)
(12.8904 1.44574e-21 0.735366)
(12.8159 8.93943e-22 0.702045)
(12.9604 -5.1512e-22 0.674065)
(12.8777 2.02605e-21 0.647988)
(13.0255 -6.48347e-22 0.607785)
(12.9422 -1.8332e-21 0.589514)
(13.0848 1.95263e-22 0.53658)
(13.0036 5.16084e-22 0.526516)
(13.1373 -2.467e-22 0.460746)
(13.0585 -7.36711e-22 0.459193)
(13.182 3.25146e-22 0.380701)
(13.1058 1.53471e-22 0.387881)
(13.2178 3.60847e-22 0.296961)
(13.1451 5.72539e-22 0.312993)
(13.2439 3.74813e-24 0.210171)
(13.1756 2.92684e-22 0.235041)
(13.1964 -1.834e-22 0.15466)
(12.7951 1.42631e-21 0.613425)
(12.7298 7.57685e-23 0.57798)
(12.8602 7.3815e-22 0.56232)
(12.7876 1.41813e-21 0.533436)
(12.9208 -6.81815e-22 0.507246)
(12.8478 -1.28044e-21 0.485396)
(12.976 -4.07999e-22 0.448256)
(12.9054 5.86434e-22 0.433794)
(13.0251 -3.49037e-22 0.385591)
(12.9569 1.56215e-23 0.37879)
(13.0671 3.9653e-22 0.319584)
(13.0014 -3.42274e-22 0.320652)
(13.1013 5.09028e-22 0.250641)
(13.0388 3.22845e-22 0.259703)
(13.1267 1.10073e-22 0.179264)
(13.0682 1.79877e-22 0.19634)
(13.089 -2.22876e-22 0.131056)
(12.7148 -5.25023e-25 0.496862)
(12.6584 0 0.458453)
(12.776 -5.99155e-22 0.455501)
(12.713 -6.9606e-22 0.423077)
(12.833 -1.41698e-23 0.411048)
(12.77 7.36574e-23 0.385024)
(12.8851 1.03405e-21 0.363551)
(12.8245 6.00595e-22 0.344247)
(12.9315 3.1048e-23 0.313202)
(12.8733 4.51819e-22 0.300872)
(12.9715 -4.33745e-22 0.260259)
(12.9158 -4.23206e-22 0.255106)
(13.0043 -1.08088e-23 0.205035)
(12.9517 -3.33807e-25 0.207196)
(13.0293 -1.52894e-22 0.147916)
(12.9803 9.3519e-24 0.157443)
(13.001 -1.5658e-22 0.106215)
(12.6496 -6.95606e-22 0.383359)
(12.6019 0 0.341984)
(12.7078 -1.32695e-23 0.351411)
(12.6541 -7.12515e-22 0.315533)
(12.7621 7.03266e-22 0.31715)
(12.7087 7.03287e-22 0.287134)
(12.8118 7.89502e-24 0.280618)
(12.7609 -5.50387e-22 0.256763)
(12.8562 8.08506e-24 0.241958)
(12.8078 1.02408e-21 0.224511)
(12.8946 1.03186e-23 0.201366)
(12.8488 -4.66805e-22 0.19053)
(12.9265 1.99192e-23 0.159074)
(12.8835 1.64852e-23 0.154997)
(12.951 9.57731e-24 0.115367)
(12.9116 3.69069e-25 0.118132)
(12.9323 -2.2453e-22 0.0801986)
(12.5998 -1.41704e-25 0.273153)
(12.5603 4.20865e-22 0.227106)
(12.6559 -1.45116e-25 0.250357)
(12.6109 -3.47897e-22 0.20942)
(12.7082 -5.50404e-22 0.225951)
(12.6637 3.46246e-22 0.190495)
(12.7562 4.55012e-22 0.199964)
(12.7143 -2.86321e-22 0.170272)
(12.7991 5.74091e-22 0.172501)
(12.7599 5.19282e-22 0.148818)
(12.8365 -4.72138e-22 0.143699)
(12.7998 -2.41372e-22 0.126238)
(12.8677 -3.0796e-24 0.113719)
(12.8338 3.21849e-24 0.102652)
(12.892 -2.339e-22 0.0827585)
(12.8615 -4.30196e-24 0.0782008)
(12.8823 -2.29951e-22 0.0530563)
(12.5651 8.32147e-23 0.161804)
(12.4491 2.23042e-22 0.112408)
(12.6198 -4.42602e-24 0.148141)
(12.4979 -1.81064e-22 0.10356)
(12.6708 6.3195e-22 0.133526)
(12.5489 1.83091e-22 0.094023)
(12.7175 -2.38406e-22 0.117969)
(12.5976 1.46019e-22 0.083818)
(12.7596 -2.97241e-22 0.10154)
(12.6414 -2.7796e-22 0.0730066)
(12.7962 2.39623e-22 0.084327)
(12.6796 2.28484e-22 0.0616461)
(12.8269 2.21059e-24 0.0664271)
(12.7121 -1.07843e-22 0.0497963)
(12.8511 5.18034e-24 0.04796)
(12.7384 -7.40763e-23 0.0375321)
(12.758 7.28089e-23 0.0249494)
(12.374 -3.7874e-23 0.0534645)
(12.4262 5.27143e-24 0.0487523)
(12.4747 -3.1368e-22 0.0437177)
(12.519 1.15072e-22 0.0383653)
(12.5585 2.48137e-22 0.0327258)
(12.5926 -1.19281e-22 0.0268338)
(12.6209 -1.86832e-22 0.0207278)
(12.6427 -8.2e-24 0.0144553)
)
;

boundaryField
{
    inlet
    {
        type            calculated;
        value           nonuniform 0();
    }
    outlet
    {
        type            calculated;
        value           nonuniform 0();
    }
    flap
    {
        type            calculated;
        value           nonuniform 0();
    }
    upperWall
    {
        type            calculated;
        value           uniform (0 0 0);
    }
    lowerWall
    {
        type            calculated;
        value           nonuniform 0();
    }
    frontAndBack
    {
        type            empty;
        value           nonuniform 0();
    }
    procBoundary1to0
    {
        type            processor;
        value           nonuniform List<vector> 
18
(
(11.7911 -1.20778e-23 3.14126)
(11.8421 2.15037e-21 2.90979)
(11.7599 2.09792e-21 2.765)
(11.6893 4.84819e-21 2.61986)
(11.712 -2.25623e-21 2.41366)
(11.7212 5.86412e-21 2.21177)
(11.7194 -1.55963e-21 2.01465)
(11.7089 -5.87467e-21 1.82247)
(11.692 -2.28537e-22 1.63516)
(11.6707 2.15265e-21 1.45247)
(11.6469 -5.16742e-21 1.27395)
(11.6221 1.69503e-21 1.09911)
(11.5979 -1.66027e-21 0.927153)
(11.5755 -1.68872e-21 0.757661)
(11.556 1.68795e-21 0.589008)
(11.5405 2.89683e-21 0.421914)
(11.5292 1.4104e-21 0.252013)
(11.368 3.80631e-22 0.0847928)
)
;
    }
    procBoundary1to2
    {
        type            processor;
        value           nonuniform List<vector> 
17
(
(15.9348 -2.19999e-21 0.105422)
(15.4931 0 0.128552)
(15.1033 -3.00794e-22 0.144412)
(14.7589 1.83008e-22 0.154417)
(14.4546 -6.74157e-22 0.159605)
(14.1857 -1.41982e-21 0.16073)
(13.9483 -2.81765e-23 0.158351)
(13.7394 -8.1793e-22 0.152888)
(13.5563 -2.34202e-22 0.144694)
(13.3968 -1.10449e-22 0.134002)
(13.2594 -1.14723e-22 0.121114)
(13.1426 -2.4884e-23 0.106065)
(13.0456 -2.99362e-22 0.0893683)
(12.9677 -2.09238e-23 0.0705886)
(12.909 -4.37996e-22 0.0510504)
(12.8683 0 0.0290719)
(12.6575 7.4564e-23 0.00807716)
)
;
    }
    procBoundary1to3
    {
        type            processor;
        value           nonuniform List<vector> 9((9.95855 4.43203e-22 4.97912) (10.3028 -1.34023e-21 4.8546) (10.6128 -1.39513e-21 4.6955) (10.8861 4.69046e-22 4.50897) (11.122 -8.46694e-22 4.30177) (11.3209 -6.20606e-21 4.08004) (11.4847 -5.77321e-21 3.84909) (11.6156 1.91831e-21 3.61336) (11.7167 1.74719e-21 3.37648));
    }
    procBoundary1to4
    {
        type            processor;