/*--------------------------------*- C++ -*----------------------------------*\
| =========                 |                                                 |
| \\      /  F ield         | OpenFOAM: The Open Source CFD Toolbox           |
|  \\    /   O peration     | Version:  dev                                   |
|   \\  /    A nd           | Web:      www.OpenFOAM.org                      |
|    \\/     M anipulation  |                                                 |
\*---------------------------------------------------------------------------*/
FoamFile
{
    version     2.0;
    format      ascii;
    class       volScalarField;
    location    "2.24";
    object      p;
}
// * * * * * * * * * * * * * * * * * * * * * * * * * * * * * * * * * * * * * //

dimensions      [0 2 -2 0 0 0 0];

internalField   nonuniform List<scalar> 
2790
(
89.7483
89.6138
89.7717
90.1448
90.6455
91.2506
91.9607
92.7768
93.6987
94.7259
95.8593
97.1
98.4496
99.909
101.479
103.158
104.945
106.837
108.826
110.903
113.055
115.262
117.498
119.726
121.902
123.97
125.86
127.495
128.785
129.605
89.5955
89.5559
89.7339
90.105
90.6037
91.2074
91.9151
92.7277
93.6448
94.6665
95.7932
97.0262
98.3668
99.8161
101.374
103.041
104.814
106.689
108.662
110.722
112.857
115.048
117.271
119.49
121.665
123.74
125.651
127.322
128.665
129.62
89.4531
89.4872
89.683
90.0463
90.5364
91.1327
91.8316
92.6332
93.5373
94.5436
95.6525
96.8646
98.181
99.602
101.128
102.756
104.485
106.311
108.226
110.221
112.283
114.394
116.528
118.654
120.73
122.704
124.509
126.06
127.22
127.605
89.3086
89.3815
89.5912
89.9482
90.4289
91.0159
91.7036
92.4912
93.3782
94.3642
95.4491
96.6331
97.9164
99.2988
100.779
102.355
104.022
105.776
107.608
109.507
111.457
113.44
115.428
117.388
119.273
121.02
122.543
123.695
124.29
123.086
89.1531
89.2469
89.4689
89.8223
90.2933
90.8685
91.5419
92.3114
93.1764
94.1362
95.1904
96.3385
97.5799
98.9133
100.337
101.846
103.436
105.1
106.827
108.605
110.414
112.233
114.03
115.765
117.38
118.793
119.877
120.388
120.221
116.855
88.9823
89.0878
89.3182
89.6675
90.1271
90.6875
91.3428
92.0903
92.9288
93.8575
94.8751
95.9806
97.1724
98.4483
99.8047
101.237
102.737
104.297
105.903
107.539
109.184
110.81
112.38
113.842
115.125
116.119
116.661
116.38
115.46
109.924
88.794
88.9061
89.1407
89.4847
89.9313
90.4746
91.1089
91.831
92.6391
93.5318
94.5076
95.5643
96.6996
97.91
99.1908
100.535
101.935
103.377
104.848
106.327
107.788
109.199
110.513
111.669
112.576
113.098
113.047
111.904
110.34
102.961
88.5872
88.7028
88.9382
89.2751
89.7074
90.2313
90.8418
91.5351
92.3089
93.1613
94.0901
95.0924
96.1647
97.3026
98.4999
99.7483
101.037
102.352
103.675
104.983
106.246
107.423
108.462
109.287
109.791
109.813
109.158
107.142
105.053
96.248
88.3616
88.4786
88.7121
89.04
89.4564
89.9589
90.5429
91.2044
91.9405
92.7485
93.6258
94.5686
95.5724
96.6316
97.7385
98.8833
100.053
101.232
102.397
103.524
104.576
105.507
106.255
106.734
106.821
106.331
105.082
102.214
99.6818
89.8059
88.1174
88.2345
88.4639
88.781
89.1798
89.6588
90.214
90.841
91.5361
92.2963
93.1181
93.997
94.9275
95.9026
96.9135
97.9485
98.9927
100.027
101.028
101.965
102.797
103.473
103.921
104.045
103.708
102.702
100.874
97.1853
94.2213
83.4962
87.8551
87.9713
88.1949
88.4993
88.879
89.3328
89.857
90.447
91.0984
91.8077
92.5706
93.3819
94.2349
95.1216
96.0316
96.9518
97.8651
98.7506
99.5812
100.322
100.929
101.344
101.488
101.252
100.489
98.967
96.562
92.0741
88.5991
77.0564
87.5754
87.69
87.9063
88.1966
88.5556
88.9827
89.474
90.0247
90.6302
91.2859
91.987
92.7275
93.4996
94.2943
95.1
95.9016
96.6804
97.413
98.0695
98.6118
98.9909
99.1427
98.9808
98.385
97.1963
95.159
92.1647
86.8755
82.6905
70.1074
87.2791
87.3917
87.5995
87.8744
88.2114
88.6102
89.067
89.5767
90.134
90.7339
91.3709
92.0382
92.727
93.4272
94.1259
94.8066
95.4485
96.0263
96.5074
96.8503
97.0017
96.8924
96.4273
95.4757
93.8666
91.315
87.7013
81.5838
76.3436
62.1593
86.9674
87.0773
87.2757
87.5341
87.8479
88.2172
88.6381
89.1053
89.6128
90.1551
90.7264
91.3186
91.9223
92.5264
93.1166
93.6751
94.1795
94.6023
94.9089
95.0544
94.9819
94.6168
93.8561
92.5601
90.5427
87.4861
83.222
76.2396
69.4494
52.5766
86.6412
86.7483
86.9365
87.1773
87.467
87.8058
88.1896
88.613
89.0696
89.5533
90.0575
90.5735
91.0911
91.5984
92.0799
92.5165
92.8841
93.154
93.2893
93.2422
92.9529
92.3417
91.3002
89.6805
87.2803
83.7534
78.8499
71.036
62.2287
40.3937
5.25903
5.25321
5.20803
5.08003
4.85084
4.55615
4.24598
3.94717
3.6666
3.40391
3.1582
2.92925
2.71747
2.52475
2.35457
2.20898
2.08432
1.97436
1.87692
1.79521
1.73035
1.67478
1.61418
1.53617
1.43637
1.31134
1.14857
0.929978
0.640593
0.270692
5.26001
5.25224
5.20145
5.06773
4.83523
4.54093
4.23284
3.93611
3.6569
3.39485
3.14953
2.92072
2.7085
2.51464
2.3439
2.19996
2.07759
1.96793
1.86886
1.78715
1.72629
1.67727
1.62207
1.54593
1.44793
1.32848
1.17127
0.952913
0.656558
0.268439
5.2639
5.25407
5.19365
5.04859
4.80904
4.51457
4.20956
3.91615
3.63925
3.37832
3.13393
2.90592
2.69338
2.49782
2.32648
2.18671
2.06892
1.95794
1.8533
1.77052
1.71771
1.68235
1.63802
1.56295
1.46018
1.33611
1.17231
0.945418
0.639416
0.240851
5.27303
5.26129
5.18769
5.02638
4.77676
4.48139
4.17961
3.89004
3.61584
3.35602
3.11333
2.8875
2.67507
2.47699
2.30442
2.17157
2.06516
1.9562
1.84465
1.75416
1.69863
1.66387
1.62185
1.55053
1.44861
1.31651
1.14154
0.907203
0.597578
0.20873
5.29026
5.27696
5.18643
5.0046
4.74281
4.44581
4.14665
3.86096
3.58962
3.3302
3.09014
2.87164
2.6644
2.46209
2.28024
2.14376
2.0442
1.94728
1.84387
1.75205
1.68624
1.63765
1.5841
1.50685
1.3996
1.25782
1.07325
0.833796
0.528951
0.175902
5.31919
5.30478
5.19321
4.98754
4.71243
4.41297
4.11516
3.83268
3.56708
3.30936
3.06327
2.84119
2.64008
2.44984
2.27628
2.13627
2.02798
1.92957
1.83016
1.73822
1.66255
1.5976
1.52761
1.43768
1.31976
1.16913
0.979112
0.739163
0.448456
0.143006
5.36459
5.34942
5.21271
4.98113
4.69205
4.38759
4.08931
3.80047
3.52976
3.27737
3.03921
2.81943
2.61924
2.43451
2.2685
2.12914
2.01355
1.90819
1.80537
1.7084
1.62116
1.53917
1.45108
1.34539
1.21491
1.05691
0.864978
0.629805
0.361471
0.109907
5.43395
5.41717
5.25085
4.98892
4.67993
4.36052
4.05101
3.76135
3.49017
3.23801
3.00421
2.78975
2.5938
2.41436
2.25344
2.11426
1.99311
1.88059
1.77098
1.66493
1.56355
1.46311
1.3557
1.23313
1.0903
0.926296
0.735118
0.509588
0.270124
0.0764444
5.53873
5.51401
5.30665
5.0025
4.66069
4.32146
4.00208
3.70634
3.43435
3.18482
2.95634
2.74827
2.55884
2.38606
2.23012
2.09121
1.96534
1.8456
1.72729
1.60952
1.492
1.37191
1.24426
1.1043
0.949559
0.780143
0.591623
0.380032
0.174827
0.0423834
5.69132
5.63934
5.36686
5.00436
4.625
4.26239
3.9293
3.62789
3.35688
3.1131
2.89307
2.69394
2.51304
2.3481
2.1978
2.06018
1.93089
1.80428
1.67621
1.54498
1.40978
1.26888
1.11994
0.961705
0.79481
0.619592
0.434438
0.240836
0.0749601
0.00731366
5.89945
5.78518
5.41173
4.97992
4.5564
4.16742
3.82133
3.51817
3.25346
3.02061
2.81318
2.62622
2.4562
2.30059
2.15707
2.02228
1.89132
1.75887
1.62087
1.4752
1.32101
1.15776
0.985557
0.806699
0.625444
0.444583
0.263732
0.0904352
-0.0307893
-0.0293905
6.17834
5.92495
5.41814
4.9053
4.43304
4.01887
3.66652
3.37087
3.12163
2.90714
2.71754
2.54617
2.38932
2.24472
2.10963
1.97969
1.84922
1.71254
1.56524
1.4048
1.23046
1.04285
0.844444
0.641047
0.441189
0.251882
0.076358
-0.0730392
-0.144363
-0.0686276
6.51531
6.01162
5.34613
4.74612
4.22666
3.79783
3.4549
3.18281
2.96233
2.77555
2.60935
2.4565
2.31447
2.18238
2.05767
1.93505
1.80768
1.66893
1.51365
1.33868
1.14313
0.928591
0.699833
0.466265
0.241305
0.0380433
-0.133242
-0.253164
-0.266237
-0.110904
6.8342
5.96975
5.14273
4.45458
3.90342
3.48641
3.18113
2.95642
2.78162
2.63259
2.49443
2.36144
2.23449
2.11582
2.00355
1.89115
1.76994
1.63182
1.47054
1.282
1.06474
0.820694
0.556585
0.285433
0.0262243
-0.199656
-0.370298
-0.454284
-0.396008
-0.156771
6.57756
5.7498
4.72779
3.96679
3.42828
3.07387
2.84986
2.70373
2.59321
2.49026
2.38145
2.26603
2.15167
2.04623
1.94854
1.84962
1.73796
1.60356
1.43884
1.2385
0.999984
0.724821
0.420964
0.104954
-0.197636
-0.454371
-0.6277
-0.671537
-0.532154
-0.206625
86.2953
86.3991
86.5764
86.7984
87.0628
87.3696
87.7149
88.0928
88.4965
88.9196
89.3548
89.7926
90.2223
90.6309
91.0023
91.3157
91.5462
91.6637
91.6292
91.3931
90.8928
90.0456
88.7399
86.8223
84.0797
80.1555
74.7258
66.3399
55.6636
23.7753
85.9257
86.0258
86.1913
86.3933
86.6308
86.9041
87.209
87.5392
87.888
88.2484
88.6122
88.9696
89.3092
89.6175
89.8771
90.0665
90.1601
90.1266
89.9255
89.5063
88.8053
87.739
86.1964
84.0251
81.0177
76.8484
71.2188
63.057
53.5724
45.7832
85.535
85.6312
85.784
85.9649
86.1743
86.4129
86.6758
86.957
87.2494
87.5455
87.8366
88.1124
88.3611
88.5685
88.7165
88.7829
88.742
88.5616
88.2007
87.609
86.7236
85.4633
83.7227
81.3619
78.2029
74.0045
68.6347
61.7606
54.5736
50.9116
85.1239
85.2159
85.3554
85.514
85.6943
85.8971
86.1171
86.3481
86.5831
86.8139
87.0315
87.2252
87.383
87.4901
87.5279
87.4742
87.303
86.9821
86.4712
85.7214
84.6727
83.2497
81.3586
78.8828
75.6905
71.6387
66.7079
60.8188
54.0652
47.6524
84.6932
84.7806
84.9061
85.0418
85.1922
85.3582
85.5344
85.7145
85.8914
86.0565
86.2005
86.3124
86.3801
86.3886
86.3191
86.1495
85.8542
85.4018
84.7534
83.8633
82.6764
81.1262
79.135
76.614
73.4757
69.6418
65.1047
59.8193
53.6775
47.5548
84.2441
84.3264
84.4373
84.5498
84.6694
84.7978
84.9295
85.0586
85.1772
85.2766
85.3475
85.3787
85.358
85.2707
85.098
84.8182
84.4067
83.8335
83.0625
82.0521
80.754
79.1127
77.0676
74.556
71.5231
67.9275
63.7665
59.0516
53.7946
48.5696
83.7778
83.8545
83.9504
84.0392
84.1277
84.2179
84.3049
84.3828
84.4434
84.4779
84.4769
84.4291
84.3227
84.1433
83.8727
83.4897
82.9713
82.2897
81.4123
80.3028
78.9204
77.2211
75.1607
72.6974
69.7994
66.4496
62.6572
58.46
53.8958
49.2753
83.2956
83.3664
83.447
83.5119
83.569
83.621
83.6634
83.6902
83.6933
83.6642
83.5931
83.4688
83.2803
83.0137
82.6512
82.1732
81.5584
80.7818
79.8151
78.6273
77.1857
75.4573
73.4117
71.0229
68.2748
65.1647
61.7089
57.9452
53.9115
49.8088
82.7993
82.864
82.9289
82.9698
82.9954
83.0096
83.0078
82.984
82.9307
82.8397
82.7006
82.5031
82.237
81.8888
81.4415
80.8774
80.1773
79.3197
78.2804
77.0342
75.5558
73.8222
71.8135
69.5149
66.9206
64.0362
60.8812
57.4911
53.906
50.2723
82.2908
82.349
82.398
82.415
82.4097
82.3864
82.3409
82.2677
82.1599
82.0088
81.8045
81.5377
81.199
80.7752
80.251
79.6103
78.8364
77.9115
76.8157
75.529
74.0333
72.313
70.356
68.1558
65.713
63.0382
60.1523
57.088
53.8836
50.6483
81.7724
81.8236
81.8567
81.85
81.8144
81.7543
81.6661
81.5451
81.3846
81.176
80.9099
80.5784
80.1722
79.6793
79.0863
78.3788
77.5426
76.5637
75.4261
74.115
72.6175
70.924
69.0283
66.9293
64.6324
62.1501
59.5033
56.7214
53.8377
50.9364
81.2462
81.2903
81.3073
81.2775
81.2121
81.1164
80.9871
80.82
80.609
80.3457
80.022
79.6304
79.1624
78.6073
77.9537
77.1888
76.3016
75.2812
74.1153
72.7927
71.3056
69.6483
67.8191
65.821
63.6618
61.3547
58.9196
56.3818
53.7699
51.1501
80.715
80.7517
80.7528
80.7004
80.6061
80.4758
80.3073
80.0964
79.8374
79.5228
79.1456
78.6989
78.175
77.5649
76.8586
76.0459
75.1183
74.0675
72.8841
71.5609
70.0931
68.4784
66.7184
64.8183
62.7872
60.6385
58.39
56.0638
53.6834
51.3019
80.1814
80.2105
80.196
80.1218
79.9996
79.8361
79.6303
79.3781
79.074
78.7118
78.2855
77.7888
77.2151
76.5568
75.8059
74.9544
73.9959
72.924
71.7324
70.4168
68.975
67.407
65.7163
63.9098
61.9969
59.9906
57.9066
55.7636
53.5813
51.4021
79.6483
79.6699
79.6403
79.5448
79.3959
79.2012
78.9603
78.669
78.323
77.9171
77.4461
76.9048
76.2873
75.5879
74.8
73.9177
72.9363
71.8513
70.6591
69.3575
67.9461
66.4267
64.8041
63.0857
61.2811
59.4022
57.4629
55.479
53.4667
51.4604
79.1187
79.1332
79.0892
78.973
78.7988
78.5747
78.3007
77.9733
77.5888
77.1431
76.6321
76.0513
75.3961
74.6619
73.8439
72.9379
71.9406
70.8493
69.6624
68.3794
67.0012
65.5307
63.9736
62.3375
60.6315
58.8665
57.0544
55.2087
53.3428
51.4847
78.5958
78.6037
78.546
78.4102
78.2119
77.9603
77.6557
77.2951
76.8756
76.3943
75.8478
75.2325
74.5451
73.7821
72.9401
72.0165
71.0093
69.9173
68.7403
67.479
66.1353
64.7129
63.218
61.658
60.0413
58.3776
56.6774
54.952
53.2126
51.4819
78.0837
78.085
78.0144
77.86
77.6392
77.3621
77.0293
76.6386
76.1877
75.6746
75.0969
74.452
73.7375
72.9511
72.0907
71.1547
70.1425
69.054
67.8902
66.6525
65.3437
63.9679
62.5313
61.0411
59.5049
57.9312
56.3293
54.7087
53.0788
51.4581
77.5861
77.5808
77.4979
77.3263
77.0847
76.7842
76.4258
76.0079
75.5291
74.988
74.3833
73.7132
72.9763
72.1712
71.297
70.3532
69.34
68.2583
67.1098
65.8968
64.6223
63.2909
61.9085
60.4817
59.0177
57.5239
56.0083
54.479
52.944
51.4185
77.1071
77.0953
77.0008
76.8132
76.5526
76.2307
75.8492
75.4071
74.9036
74.3382
73.7103
73.0191
72.264
71.4445
70.5605
69.6124
68.6013
67.5287
66.3969
65.2087
63.9674
62.6776
61.345
59.9758
58.5762
57.153
55.7131
54.2634
52.8107
51.3674
76.6508
76.6325
76.527
76.3249
76.0468
75.7057
75.3037
74.8401
74.3151
73.7288
73.0813
72.3727
71.603
70.7726
69.8822
68.9328
67.926
66.864
65.7496
64.5857
63.3759
62.1247
60.8375
59.5199
58.1777
56.8167
55.443
54.0626
52.6811
51.309
76.2216
76.1968
76.081
75.8655
75.5718
75.2135
74.7932
74.311
73.7673
73.1632
72.4995
71.7767
70.9957
70.1574
69.2631
68.3146
67.3138
66.2634
65.1662
64.0257
62.8454
61.6295
60.3833
59.1118
57.8202
56.5138
55.1978
53.8775
52.5576
51.2469
75.8239
75.7929
75.6672
75.4395
75.1318
74.7583
74.322
73.8236
73.2641
72.6451
71.9679
71.2338
70.4441
69.6004
68.7044
67.7583
66.7645
65.7259
64.6455
63.5269
62.3736
61.1897
59.98
58.7493
57.5022
56.2433
54.9774
53.7088
52.442
51.184
75.4625
75.4253
75.2903
75.0514
74.7312
74.3443
73.8943
73.3821
72.8093
72.1779
71.4898
70.7469
69.9508
69.1036
68.2075
67.265
66.2786
65.2516
64.1871
63.0886
61.9597
60.8044
59.627
58.4319
57.2234
56.0056
54.7827
53.5586
52.337
51.1241
75.1425
75.0992
74.955
74.7056
74.3743
73.9759
73.5141
72.9902
72.4063
71.7648
71.0681
70.3183
69.5176
68.6684
67.7732
66.8347
65.8558
64.8397
63.7898
62.7094
61.6021
60.4717
59.3223
58.1579
56.9824
55.7996
54.6131
53.4265
52.2432
51.068
74.8693
74.8196
74.6659
74.4066
74.0658
73.6578
73.1863
72.6529
72.0601
71.4107
70.7073
69.9525
69.1488
68.2987
67.4051
66.4709
65.4991
64.493
63.4559
62.3913
61.3026
60.1936
59.068
57.9295
56.7818
55.6282
54.4722
53.317
52.1655
51.0219
74.6495
74.592
74.4275
74.1586
73.8092
73.3929
72.9132
72.3719
71.772
71.1164
70.408
69.6495
68.8438
67.9937
67.102
66.1719
65.2065
64.209
63.1829
62.1316
61.0584
59.9669
58.8607
57.7433
56.618
55.488
54.3564
53.2261
52.0998
50.9809
74.4912
74.4213
74.2447
73.9685
73.6134
73.191
72.705
72.1578
71.5524
70.8922
70.1801
69.4192
68.6123
67.7624
66.8726
65.946
64.9859
63.9955
62.9783
61.9376
60.8767
59.7991
58.7083
57.6074
56.4997
55.3882
54.2757
53.165
52.0588
50.9599
74.4073
74.3062
74.111
73.829
73.4709
73.0447
72.5547
72.0039
71.3955
70.7328
70.0188
69.2567
68.4495
67.6003
66.7122
65.7885
64.8323
63.847
62.836
61.8027
60.7502
59.682
58.6015
57.5117
56.4156
55.3162
54.2163
53.1183
52.0248
50.9382
74.4279
74.2736
74.0554
73.7673
73.4056
72.9756
72.4821
71.9285
71.318
70.6537
69.9388
69.1763
68.3694
67.5211
66.6346
65.7132
64.7601
63.7786
62.772
61.7437
60.697
59.635
58.5612
57.4785
56.3898
55.298
54.2058
53.1156
52.0299
50.9504
-64.1666
-36.3324
-9.80377
37.2816
33.8962
29.5422
40.891
32.1615
26.2119
37.8892
31.8444
27.8684
40.8373
36.353
32.8253
43.2348
39.4634
36.3151
44.6993
41.5034
38.824
45.8789
43.1593
40.871
46.861
44.5041
42.5158
47.6445
45.5719
43.8218
48.2641
46.4222
44.8656
48.7521
47.1003
45.7026
49.1326
47.6391
46.3735
49.4253
48.065
46.9105
49.6466
48.3992
47.339
49.8101
48.659
47.6791
49.9267
48.8581
47.9473
50.0056
49.0082
48.1567
50.0545
49.1185
48.3183
50.0801
49.1972
48.4413
50.0879
49.2508
48.5332
50.083
49.2855
48.6009
50.069
49.3056
48.6494
50.0511
49.3168
48.6847
50.03
49.3202
48.7086
50.0136
49.324
48.729
49.9953
49.322
48.7409
49.9933
49.3323
48.7608
49.9828
49.3305
48.7668
50.0082
49.365
48.8055
11.1582
6.17466
3.70805
3.02889
2.63999
2.48146
2.4347
2.42591
2.40862
2.36007
2.27749
2.17263
2.06581
1.97391
1.89396
1.81218
1.71354
1.58599
1.42082
1.21157
0.954042
0.648656
0.303965
-0.0602721
-0.411658
-0.706487
-0.892215
-0.909465
-0.698601
-0.26198
19.3112
7.09369
3.38526
3.04409
2.89476
2.71175
2.58593
2.49986
2.41498
2.31386
2.19846
2.07473
1.96505
1.88803
1.82896
1.76864
1.68836
1.57277
1.41169
1.19781
0.925143
0.59285
0.210268
-0.199706
-0.598464
-0.93137
-1.12987
-1.12398
-0.860344
-0.333025
18.9508
10.6344
6.88392
5.44679
4.43299
3.59517
3.02721
2.68765
2.48195
2.33738
2.21508
2.09816
1.99252
1.90774
1.84096
1.77816
1.69743
1.57941
1.41294
1.18984
0.900825
0.542408
0.124573
-0.326062
-0.763549
-1.12249
-1.32252
-1.28703
-0.983636
-0.385451
22.8686
16.8439
12.5026
9.61764
7.53131
5.95841
4.82202
4.02657
3.45872
3.03318
2.69929
2.43011
2.21551
2.05076
1.92614
1.82393
1.72023
1.59167
1.41961
1.18778
0.882729
0.50052
0.0530317
-0.42815
-0.889764
-1.25869
-1.45038
-1.39266
-1.05351
-0.358241
28.247
22.9549
18.196
14.4177
11.5567
9.36633
7.6775
6.37821
5.37289
4.58316
3.95265
3.44437
3.03497
2.70724
2.44298
2.22004
2.01333
1.79832
1.55365
1.26136
0.908474
0.491967
0.0244444
-0.461796
-0.913466
-1.25988
-1.42471
-1.3486
-0.994649
-0.250271
32.383
27.8069
23.1754
19.1211
15.8536
13.2326
11.1032
9.3698
7.96057
6.81064
5.86546
5.08389
4.43545
3.89557
3.44104
3.04755
2.68974
2.34299
1.98544
1.59941
1.17363
0.706979
0.212967
-0.277371
-0.715785
-1.04204
-1.1956
-1.13288
-0.78954
-0.135588
35.5472
31.6473
27.3898
23.4013
20.0018
17.1468
14.7281
12.677
10.9446
9.48262
8.24533
7.19441
6.29854
5.53086
4.86644
4.28071
3.74918
3.24845
2.75778
2.26091
1.74855
1.22111
0.691498
0.186702
-0.253522
-0.581694
-0.751204
-0.725657
-0.464928
-0.0348609
38.0811
34.706
30.8625
27.0951
23.7423
20.8171
18.2529
16.006
14.0477
12.3466
10.8686
9.58244
8.46025
7.47661
6.60764
5.83023
5.12195
4.46177
3.83133
3.21646
2.60931
2.01059
1.43106
0.892048
0.423732
0.060809
-0.163865
-0.225862
-0.127117
0.0427536
40.0887
37.1201
33.667
30.181
26.9765
24.0935
21.494
19.1541
17.0607
15.1966
13.5396
12.0664
10.7549
9.58338
8.53097
7.57742
6.70321
5.89023
5.12281
4.38902
3.68208
3.00197
2.35629
1.76028
1.23497
0.803289
0.484976
0.290413
0.196964
0.123797
41.6791
39.0372
35.93
32.7306
29.7176
26.94
24.377
22.0181
19.8611
17.8995
16.1209
14.51
13.0504
11.7252
10.5175
9.41069
8.38849
7.43581
6.5396
5.6898
4.88044
4.11056
3.38452
2.71181
2.10542
1.57864
1.14065
0.791259
0.503483
0.214212
42.9523
40.578
37.7678
34.8344
32.0216
29.3784
26.8933
24.5633
22.3936
20.3849
18.5322
16.8266
15.2572
13.8121
12.4783
11.2428
10.0927
9.01592
8.00162
7.04138
6.12974
5.26483
4.44833
3.68507
2.98168
2.34405
1.77408
1.26548
0.79394
0.313239
43.9778
41.8258
39.2689
36.5732
33.9529
31.4533
29.0672
26.7955
24.6469
22.6272
20.7365
18.971
17.3245
15.7892
14.3559
13.0151
11.7568
10.5715
9.45073
8.38725
7.37606
6.41449
5.50219
4.6406
3.83182
3.07669
2.37248
1.71006
1.06943
0.417302
44.8062
42.8413
40.5008
38.0148
35.5727
33.2151
30.9363
28.739
26.6334
24.6276
22.7253
20.9266
19.2293
17.6287
16.1189
14.6933
13.3447
12.0659
10.8502
9.69152
8.5854
7.52865
6.51947
5.55695
4.64021
3.76698
2.93197
2.12514
1.33015
0.522465
45.476
43.6703
41.5158
39.214
36.9336
34.7108
32.5403
30.4247
28.3748
26.3995
24.5047
22.6934
20.9658
19.3201
17.753
16.2605
14.8374
13.4787
12.1791
10.9338
9.73872
8.59051
7.48648
6.42425
5.40105
4.41285
3.45319
2.51212
1.57601
0.625579
46.0173
44.348
42.3541
40.2138
38.0788
35.9813
33.9156
31.8838
29.8961
27.962
26.0882
24.2792
22.5373
20.8625
19.254
17.7096
16.226
14.7997
13.4268
12.1036
10.8264
9.59198
8.39727
7.239
6.11341
5.01551
3.93846
2.8729
1.80688
0.724509
46.4541
44.902
43.0472
41.0485
39.0434
37.0607
35.0941
33.1448
31.2221
29.3352
27.4913
25.6955
23.9514
22.2606
20.6235
19.0397
17.5076
16.0248
14.5886
13.196
11.8441
10.5297
9.24984
8.00079
6.77829
5.57705
4.39021
3.20906
2.02296
0.818248
46.8053
45.3544
43.6204
41.746
39.8565
37.9779
36.1034
34.2332
32.3755
30.5389
28.7302
26.9553
25.2181
23.5211
21.866
20.2534
18.6829
17.1534
15.6631
14.2095
12.7901
11.4026
10.0439
8.71023
7.39717
6.09945
4.81046
3.52209
2.2248
0.906324
47.0862
45.723
44.0941
42.3287
40.5418
38.7571
36.9672
35.1715
33.3768
31.5911
29.8208
28.0715
26.3476
24.6521
22.9873
21.3544
19.7541
18.1865
16.6505
15.1439
13.6646
12.211
10.7802
9.36849
7.97159
6.58445
5.20084
3.81323
2.41294
0.988662
47.3097
46.0225
44.485
42.8151
41.1192
39.4185
37.7056
35.9789
34.2442
32.5084
30.7774
29.0566
27.3504
25.662
23.994
22.3479
20.7251
19.1271
17.5532
16.0006
14.4682
12.9554
11.4594
9.97644
8.50262
7.03323
5.56243
4.08325
2.58775
1.06532
47.4862
46.2648
44.807
43.2208
41.605
39.9793
38.336
36.6725
34.9938
33.3057
31.6138
29.9229
28.2371
26.5597
24.8933
23.2396
21.6004
19.9782
18.3727
16.7808
15.2023
13.6371
12.0826
10.5352
8.99141
7.44686
5.89616
4.33287
2.74965
1.13645
47.6244
46.46
45.0715
43.5584
42.0132
40.454
38.8728
37.2668
35.6396
33.9965
32.3422
30.6811
29.017
27.3529
25.6915
24.0347
22.3845
20.7433
19.1112
17.4863
15.8685
14.2575
12.6508
11.0456
9.43854
7.8258
6.20233
4.56215
2.89846
1.20179
47.7319
46.6168
45.2884
43.839
42.3555
40.8549
39.3291
37.7745
36.1941
34.5925
32.9737
31.3415
29.6993
28.05
26.3961
24.7395
23.0824
21.4267
19.7728
18.1201
16.4688
14.8179
13.1653
11.5086
9.84493
8.17088
6.4817
4.7718
3.03485
1.26184
47.8147
46.742
45.4654
44.0711
42.6413
41.1919
39.7148
38.206
36.6676
35.1037
33.5177
31.9128
30.2921
28.6581
27.013
25.3588
23.6975
22.0309
20.3597
18.6838
17.0037
15.3186
13.6261
11.9239
10.2101
8.48141
6.73336
4.96075
3.15772
1.31577
47.8791
46.8425
45.6103
44.2634
42.8798
41.4748
40.0401
38.5713
37.0702
35.5399
33.9836
32.4039
30.8034
29.1844
27.5488
25.8983
24.2352
22.5611
20.8762
19.1809
17.4767
15.7628
14.0357
12.2937
10.5359
8.75913
6.9591
5.13085
3.2689
1.36497
47.9278
46.9218
45.7271
44.4203
43.0761
41.7088
40.3105
38.8762
37.4073
35.9064
34.3763
32.8192
31.2371
29.6322
28.006
26.36
24.6966
23.0172
21.3216
19.6101
17.8855
16.1473
14.391
12.6148
10.8189
9.00047
7.15514
5.27824
3.3647
1.40682
47.9682
46.9875
45.8241
44.5507
43.2392
41.9036
40.5357
39.1306
37.6889
36.2132
34.7057
33.1682
31.6024
30.0101
28.3927
26.7515
25.0887
23.4055
21.702
19.9781
18.2363
16.4772
14.6972
12.893
11.0645
9.21043
7.32648
5.40792
3.44991
1.4447
47.9971
47.0367
45.8983
44.6517
43.3665
42.0564
40.7132
39.3316
37.9122
36.4571
34.9681
33.4468
31.8946
30.313
28.7031
27.0665
25.4046
23.7187
22.0091
20.2759
18.52
16.7436
14.9443
13.1173
11.2623
9.3788
7.46301
5.51014
3.51568
1.47275
48.0284
47.0836
45.9645
44.7384
43.4734
42.1828
40.8585
39.4951
38.0929
36.6537
35.1791
33.6705
32.129
30.5557
28.9519
27.319
25.658
23.9701
22.2559
20.5153
18.7492
16.9591
15.1437
13.2989
11.4237
9.51724
7.57592
5.59539
3.57114
1.49701
48.0442
47.1094
46.003
44.7911
43.5399
42.2625
40.951
39.6
38.2094
36.781
35.3164
33.8164
32.2822
30.7148
29.1153
27.4848
25.8246
24.1354
22.4181
20.6728
18.9001
17.1008
15.2738
13.4169
11.5281
9.60581
7.64688
5.64725
3.6024
1.5073
48.0821
47.1464
46.0465
44.8431
43.5997
42.3294
41.0246
39.6799
38.2952
36.8722
35.4123
33.9164
32.3855
30.8204
29.2223
27.5924
25.9317
24.241
22.5211
20.7722
18.9948
17.1893
15.3551
13.4905
11.5931
9.6607
7.6898
5.6762
3.61485
1.49594
)
;

boundaryField
{
    inlet
    {
        type            zeroGradient;
    }
    outlet
    {
        type            fixedValue;
        value           uniform 0;
    }
    flap
    {
        type            zeroGradient;
    }
    upperWall
    {
        type            zeroGradient;
    }
    lowerWall
    {
        type            zeroGradient;
    }
    frontAndBack
    {
        type            empty;
    }
}


// ************************************************************************* //
