/*--------------------------------*- C++ -*----------------------------------*\
| =========                 |                                                 |
| \\      /  F ield         | OpenFOAM: The Open Source CFD Toolbox           |
|  \\    /   O peration     | Version:  dev                                   |
|   \\  /    A nd           | Web:      www.OpenFOAM.org                      |
|    \\/     M anipulation  |                                                 |
\*---------------------------------------------------------------------------*/
FoamFile
{
    version     2.0;
    format      ascii;
    class       volScalarField;
    location    "3.24";
    object      p;
}
// * * * * * * * * * * * * * * * * * * * * * * * * * * * * * * * * * * * * * //

dimensions      [0 2 -2 0 0 0 0];

internalField   nonuniform List<scalar> 
465
(
173.747
175.693
177.411
178.852
179.976
180.762
181.216
181.399
181.498
173.591
175.554
177.297
178.767
179.925
180.743
181.221
181.446
181.689
172.985
174.947
176.709
178.227
179.464
180.406
181.074
181.545
182.007
172.055
173.994
175.762
177.324
178.655
179.752
180.642
181.356
182.021
170.841
172.736
174.489
176.076
177.481
178.7
179.746
180.588
181.305
169.361
171.182
172.888
174.459
175.883
177.151
178.253
179.105
179.72
167.617
169.33
170.944
172.443
173.816
175.042
176.099
176.868
177.266
165.607
167.17
168.639
170
171.238
172.33
173.244
173.854
173.944
163.324
164.689
165.952
167.097
168.111
168.965
169.63
170.006
169.703
160.766
161.878
162.863
163.706
164.387
164.882
165.169
165.206
164.41
157.936
158.733
159.362
159.797
160.015
159.992
159.717
159.249
157.812
154.847
155.265
155.45
155.358
154.949
154.188
153.07
151.789
149.415
151.525
151.503
151.153
150.402
149.166
147.368
144.952
142.248
138.226
148.014
147.499
146.536
144.998
142.721
139.501
135.089
129.73
122.071
144.375
143.338
141.714
139.305
135.82
130.813
123.518
113.226
95.4824
4.75874
4.72144
4.62292
4.46323
4.26642
4.05899
3.85821
3.67098
3.49726
3.33368
4.75342
4.70423
4.59456
4.43143
4.23734
4.03486
3.83903
3.65611
3.48623
3.32574
4.75145
4.68474
4.56161
4.39325
4.20101
4.00369
3.81385
3.63619
3.47026
3.31275
4.75784
4.66844
4.5328
4.35963
4.16843
3.97505
3.79051
3.61782
3.4547
3.29869
4.78524
4.67073
4.52463
4.34802
4.15727
3.96549
3.78263
3.61083
3.44744
3.28951
4.8534
4.7164
4.56323
4.38342
4.19012
3.99665
3.80792
3.62403
3.44913
3.28485
4.98828
4.83583
4.67778
4.4882
4.27931
4.067
3.85582
3.65145
3.46114
3.28312
5.21521
5.04775
4.87127
4.65265
4.40877
4.15787
3.91247
3.68327
3.47207
3.27747
5.53231
5.34082
5.11956
4.84663
4.54726
4.24753
3.96487
3.70611
3.47228
3.26106
5.9145
5.68264
5.39037
5.03918
4.67153
4.31788
3.99462
3.70665
3.45238
3.22725
6.33986
6.05095
5.65079
5.20045
4.75344
4.34363
3.98341
3.6723
3.40388
3.17034
6.84917
6.41265
5.85558
5.2833
4.75596
4.29872
3.91401
3.59232
3.3202
3.0862
7.42873
6.68634
5.91759
5.22509
4.63876
4.15818
3.77196
3.45936
3.19785
2.97288
7.95213
6.69879
5.7052
4.94932
4.36476
3.90248
3.54817
3.2719
3.0383
2.83157
8.05818
6.10397
4.99776
4.36723
3.92377
3.52858
3.24244
3.03727
2.85049
2.66703
140.615
139.049
136.76
133.477
128.77
121.891
111.265
93.4841
42.5533
136.78
134.718
131.832
127.817
122.188
114.14
102.162
85.779
63.1281
132.977
130.498
127.157
122.679
116.684
108.713
98.1899
85.8542
72.5428
129.291
126.495
122.862
118.182
112.208
104.715
95.4159
84.2736
71.123
122.77
118.979
114.259
108.44
101.365
92.8276
82.6539
71.1544
110.835
105.248
98.6376
90.9211
82.0792
72.5493
96.498
89.5994
81.9205
73.786
81.8483
74.7773
-47.9234
-24.8749
-4.60591
45.9082
40.0691
29.2076
56.8772
45.4295
34.7132
55.8896
46.1197
38.5514
59.5473
51.8785
45.5645
63.2818
56.9005
51.4138
65.941
60.5191
55.8413
68.0617
63.4394
59.4599
65.8811
62.4568
6.11897
3.64692
3.21086
3.43428
3.44238
3.06035
2.8427
2.76308
2.65026
12.0622
4.34453
3.64037
3.79717
3.08719
2.22066
2.19421
2.49859
2.51512
19.936
9.69809
6.07913
4.12737
2.7447
2.30028
2.58108
2.80765
2.45602
28.1405
18.0974
11.9712
7.92612
5.27879
3.83226
3.13261
2.65998
2.27639
36.696
27.1797
19.7288
14.1404
10.1053
7.30773
5.41242
4.11522
3.23939
43.9245
35.4239
27.64
21.1581
16.0938
12.242
9.35671
7.21013
5.61016
49.6824
42.3732
34.8962
28.1545
22.5537
18.014
14.3626
11.4451
9.12568
54.3371
48.0801
41.2088
34.6486
28.921
24.0347
19.8858
16.3914
13.4781
58.1031
52.7014
46.5192
40.3753
34.7972
29.8438
25.4617
21.6182
18.2862
56.4363
50.9145
45.2732
39.9971
35.1659
30.7551
26.7608
23.1857
44.49
39.8851
35.578
31.5783
27.9052
39.8594
35.9472
32.2798
36.2336
)
;

boundaryField
{
    inlet
    {
        type            zeroGradient;
    }
    outlet
    {
        type            fixedValue;
        value           nonuniform 0();
    }
    flap
    {
        type            zeroGradient;
    }
    upperWall
    {
        type            zeroGradient;
    }
    lowerWall
    {
        type            zeroGradient;
    }
    frontAndBack
    {
        type            empty;
    }
    procBoundary4to1
    {
        type            processor;
        value           nonuniform List<scalar> 
30
(
125.783
125.783
119.343
115.495
115.495
107.871
102.586
102.586
94.7887
88.6035
88.6035
81.8486
75.6627
69.8659
69.8659
67.9049
64.9211
61.1519
61.1519
59.4797
54.5428
49.4033
49.4033
48.3253
43.9902
43.9902
43.6032
39.8296
39.8296
39.7516
)
;
    }
    procBoundary4to2
    {
        type            processor;
        value           nonuniform List<scalar> 
11
(
1.98191
2.03612
2.65832
4.41537
7.29319
11.0707
15.4254
20.0175
24.5652
28.8746
32.8372
)
;
    }
    procBoundary4to3
    {
        type            processor;
        value           nonuniform List<scalar> 
19
(
171.628
171.461
170.872
169.985
168.837
167.447
165.822
163.964
161.872
159.547
156.996
154.233
151.282
148.177
144.965
141.64
138.223
134.796
131.421
)
;
    }
    procBoundary4to5
    {
        type            processor;
        value           nonuniform List<scalar> 
18
(
3.17659
3.17076
3.16024
3.14762
3.13688
3.12622
3.11428
3.09671
3.0688
3.026
2.96456
2.88187
2.7768
2.65005
2.50371
2.4843
2.4843
2.306
)
;
    }
}


// ************************************************************************* //
