/*--------------------------------*- C++ -*----------------------------------*\
| =========                 |                                                 |
| \\      /  F ield         | OpenFOAM: The Open Source CFD Toolbox           |
|  \\    /   O peration     | Version:  dev                                   |
|   \\  /    A nd           | Web:      www.OpenFOAM.org                      |
|    \\/     M anipulation  |                                                 |
\*---------------------------------------------------------------------------*/
FoamFile
{
    version     2.0;
    format      ascii;
    class       volVectorField;
    location    "2.61";
    object      Force;
}
// * * * * * * * * * * * * * * * * * * * * * * * * * * * * * * * * * * * * * //

dimensions      [1 1 -2 0 0 0 0];

internalField   uniform (0 0 0);

boundaryField
{
    inlet
    {
        type            calculated;
        value           nonuniform 0();
    }
    outlet
    {
        type            calculated;
        value           nonuniform 0();
    }
    flap
    {
        type            calculated;
        value           nonuniform List<vector> 
33
(
(3.01514 1.39875e-22 -0.183467)
(2.9786 3.83505e-18 -0.431911)
(2.90145 1.88094e-17 -0.670419)
(2.77909 1.10713e-17 -0.857126)
(2.62242 -5.87747e-39 -0.99317)
(2.44549 3.8204e-21 -1.0841)
(2.25932 3.45545e-21 -1.1373)
(2.07269 -9.40395e-38 -1.15841)
(1.89044 7.71418e-39 -1.15142)
(1.71586 2.93874e-39 -1.11859)
(1.55104 1.00453e-17 -1.06209)
(1.39087 -6.81705e-18 -0.982793)
(1.22373 1.51132e-17 -0.87888)
(1.03148 -6.87962e-18 -0.743603)
(0.78344 3.22487e-22 -0.56491)
(0.412394 -2.35099e-38 0.565614)
(0.240063 1.093e-18 0.329393)
(0.0803542 3.69564e-19 0.112811)
(-0.0103433 1.3038e-17 0.000635277)
(-0.0104635 1.32827e-17 0.00150276)
(-0.0107326 0 0.00246045)
(-0.0112342 -3.36942e-20 0.00342507)
(-0.0120709 3.67118e-20 0.00450677)
(-0.0133572 -4.12352e-20 0.00582054)
(-0.0152394 1.45292e-17 0.00752772)
(-0.0179076 -4.10189e-23 0.00983578)
(-0.0215853 -6.97202e-20 0.012966)
(-0.0265547 1.73594e-19 0.0171481)
(-0.0334279 1.55392e-17 0.0228424)
(-0.042385 1.14074e-21 0.0301573)
(-0.0525547 -3.49615e-19 0.0383849)
(-0.0604639 6.98191e-24 0.0449479)
(-0.0517739 2.49625e-17 0.0396803)
)
;
    }
    upperWall
    {
        type            calculated;
        value           nonuniform 0();
    }
    lowerWall
    {
        type            calculated;
        value           uniform (0 0 0);
    }
    frontAndBack
    {
        type            empty;
    }
    procBoundary4to1
    {
        type            processor;
        value           uniform (0 0 0);
    }
    procBoundary4to2
    {
        type            processor;
        value           uniform (0 0 0);
    }
    procBoundary4to3
    {
        type            processor;
        value           uniform (0 0 0);
    }
    procBoundary4to5
    {
        type            processor;
        value           uniform (0 0 0);
    }
}


// ************************************************************************* //
