/*--------------------------------*- C++ -*----------------------------------*\
| =========                 |                                                 |
| \\      /  F ield         | OpenFOAM: The Open Source CFD Toolbox           |
|  \\    /   O peration     | Version:  dev                                   |
|   \\  /    A nd           | Web:      www.OpenFOAM.org                      |
|    \\/     M anipulation  |                                                 |
\*---------------------------------------------------------------------------*/
FoamFile
{
    version     2.0;
    format      ascii;
    class       volVectorField;
    location    "2.63";
    object      cellDisplacement;
}
// * * * * * * * * * * * * * * * * * * * * * * * * * * * * * * * * * * * * * //

dimensions      [0 1 0 0 0 0 0];

internalField   nonuniform List<vector> 
2790
(
(0.0107497 0 -3.9672e-05)
(0.030675 0 -0.000113517)
(0.0476509 0 -0.000177895)
(0.0619327 0 -0.000234459)
(0.07379 0 -0.000284722)
(0.0834701 0 -0.000328985)
(0.0911965 0 -0.000368062)
(0.0971587 0 -0.000402359)
(0.10152 0 -0.000432041)
(0.104423 0 -0.000456635)
(0.105995 0 -0.00047593)
(0.106347 0 -0.000489462)
(0.105576 0 -0.000496546)
(0.103771 0 -0.00049632)
(0.101013 0 -0.000487857)
(0.0973794 0 -0.000470864)
(0.0929392 0 -0.000441822)
(0.0877574 0 -0.000399888)
(0.0819021 0 -0.000343154)
(0.0754439 0 -0.000269349)
(0.0684594 0 -0.000175948)
(0.0610346 0 -6.03193e-05)
(0.0532653 0 8.05481e-05)
(0.0452607 0 0.000249887)
(0.0371494 0 0.000451165)
(0.0291187 0 0.000689593)
(0.0214139 0 0.000969082)
(0.0143916 0 0.00129343)
(0.00862579 0 0.00165845)
(0.00532932 0 0.00201107)
(0.0107648 0 -0.000119161)
(0.0307191 0 -0.000340995)
(0.0477233 0 -0.000534432)
(0.0620359 0 -0.000704414)
(0.0739237 0 -0.000855743)
(0.0836351 0 -0.000988931)
(0.0913978 0 -0.00110666)
(0.0974009 0 -0.00121012)
(0.101808 0 -0.00129999)
(0.104762 0 -0.00137458)
(0.106392 0 -0.00143344)
(0.10681 0 -0.00147521)
(0.106114 0 -0.00149783)
(0.104393 0 -0.00149873)
(0.101727 0 -0.00147475)
(0.0981982 0 -0.00142232)
(0.0938816 0 -0.00133759)
(0.0888388 0 -0.00121526)
(0.0831417 0 -0.00104947)
(0.076864 0 -0.000833541)
(0.0700845 0 -0.000560032)
(0.0628989 0 -0.000221547)
(0.0554119 0 0.000190726)
(0.0477472 0 0.000686156)
(0.0400328 0 0.00127596)
(0.0324626 0 0.0019693)
(0.0253129 0 0.00277196)
(0.0189655 0 0.00368539)
(0.0141317 0 0.00468415)
(0.0121126 0 0.0055746)
(0.0107958 0 -0.000199046)
(0.0308088 0 -0.000569691)
(0.0478694 0 -0.000893011)
(0.0622443 0 -0.00117714)
(0.0741924 0 -0.00142814)
(0.0839653 0 -0.00165064)
(0.0918003 0 -0.00184773)
(0.0978851 0 -0.00202125)
(0.102383 0 -0.00217305)
(0.105438 0 -0.00229918)
(0.107183 0 -0.00239969)
(0.10773 0 -0.00247236)
(0.107182 0 -0.00251387)
(0.105628 0 -0.00252004)
(0.103153 0 -0.00248582)
(0.0998362 0 -0.00240423)
(0.0957595 0 -0.00227176)
(0.0909921 0 -0.00207909)
(0.0856089 0 -0.00181678)
(0.0796885 0 -0.00147439)
(0.0733097 0 -0.00103967)
(0.0665892 0 -0.000502728)
(0.0596438 0 0.000150141)
(0.052613 0 0.000932707)
(0.045671 0 0.00185806)
(0.0390417 0 0.00293281)
(0.0330273 0 0.0041565)
(0.0279912 0 0.00551561)
(0.0246665 0 0.00692415)
(0.0246865 0 0.00803555)
(0.0108432 0 -0.000279034)
(0.0309442 0 -0.000798754)
(0.0480868 0 -0.00125226)
(0.0625417 0 -0.00165083)
(0.0745806 0 -0.00200219)
(0.0844568 0 -0.00231526)
(0.0924003 0 -0.00259294)
(0.0986072 0 -0.00283774)
(0.103237 0 -0.0030501)
(0.10644 0 -0.0032296)
(0.108355 0 -0.00337473)
(0.109095 0 -0.00348225)
(0.108764 0 -0.00354775)
(0.107456 0 -0.00356573)
(0.105261 0 -0.00353009)
(0.102263 0 -0.00343295)
(0.0985456 0 -0.00326653)
(0.0941873 0 -0.00302019)
(0.0892713 0 -0.00268216)
(0.083889 0 -0.00223987)
(0.0781223 0 -0.0016778)
(0.072088 0 -0.000981733)
(0.0659342 0 -0.000138499)
(0.0598176 0 0.00086582)
(0.053936 0 0.00204202)
(0.0485985 0 0.00338786)
(0.0441708 0 0.00488124)
(0.0410686 0 0.00646656)
(0.0398003 0 0.00801232)
(0.0423315 0 0.00900817)
(0.0109066 0 -0.000358692)
(0.0311233 0 -0.00102694)
(0.0483727 0 -0.00161021)
(0.0629373 0 -0.0021234)
(0.0750973 0 -0.00257771)
(0.0851059 0 -0.0029828)
(0.0931912 0 -0.00334265)
(0.0995534 0 -0.00366061)
(0.104358 0 -0.00393631)
(0.107762 0 -0.00417295)
(0.109902 0 -0.00436733)
(0.110896 0 -0.00451558)
(0.110851 0 -0.00461241)
(0.109867 0 -0.00465115)
(0.108039 0 -0.00462561)
(0.105457 0 -0.00452646)
(0.102211 0 -0.00434387)
(0.0983873 0 -0.00406591)
(0.094079 0 -0.00367933)
(0.089385 0 -0.00316996)
(0.0844128 0 -0.00252258)
(0.0792917 0 -0.00172245)
(0.0741824 0 -0.000757405)
(0.0692804 0 0.000380617)
(0.0647917 0 0.00169844)
(0.0610185 0 0.00318184)
(0.0584972 0 0.00476635)
(0.0577339 0 0.00633947)
(0.0591639 0 0.00773868)
(0.0643162 0 0.00833816)
(0.0109867 0 -0.000438345)
(0.0313445 0 -0.00125417)
(0.0487238 0 -0.0019667)
(0.0634257 0 -0.0025946)
(0.0757347 0 -0.00315187)
(0.0859038 0 -0.00365013)
(0.0941617 0 -0.00409346)
(0.100716 0 -0.00448712)
(0.10574 0 -0.00483244)
(0.10939 0 -0.00513081)
(0.111806 0 -0.00538009)
(0.113111 0 -0.00557621)
(0.113418 0 -0.00571342)
(0.112827 0 -0.00578342)
(0.111448 0 -0.00578201)
(0.109375 0 -0.00569798)
(0.106705 0 -0.00552096)
(0.103536 0 -0.00523854)
(0.0999714 0 -0.00483724)
(0.0961247 0 -0.00430328)
(0.0921181 0 -0.00362236)
(0.0880905 0 -0.00278047)
(0.084226 0 -0.0017701)
(0.0807844 0 -0.000595769)
(0.0780163 0 0.000732484)
(0.0761867 0 0.00219171)
(0.0757798 0 0.00369589)
(0.0775718 0 0.00504955)
(0.0820427 0 0.00602028)
(0.0899792 0 0.00598404)
(0.0110656 0 -0.000517294)
(0.0315894 0 -0.00148056)
(0.0491371 0 -0.00232313)
(0.0640036 0 -0.00306642)
(0.0764896 0 -0.00372734)
(0.0868435 0 -0.0043177)
(0.0953021 0 -0.00484595)
(0.102084 0 -0.00531796)
(0.107363 0 -0.00573586)
(0.111299 0 -0.00610059)
(0.114038 0 -0.00641097)
(0.115708 0 -0.00666309)
(0.116427 0 -0.00685158)
(0.116309 0 -0.00696983)
(0.115456 0 -0.00700916)
(0.113974 0 -0.00695982)
(0.111976 0 -0.00681318)
(0.10957 0 -0.00655704)
(0.106869 0 -0.00617869)
(0.103997 0 -0.00566531)
(0.101125 0 -0.00501094)
(0.0983888 0 -0.00420263)
(0.0959983 0 -0.00323918)
(0.0941979 0 -0.00213042)
(0.0933112 0 -0.000910807)
(0.0937333 0 0.000355546)
(0.0957808 0 0.00158034)
(0.100219 0 0.00252579)
(0.107761 0 0.00284691)
(0.118749 0 0.00196576)
(0.0111596 0 -0.000595813)
(0.0318734 0 -0.00170646)
(0.0496105 0 -0.00267908)
(0.0646649 0 -0.00353833)
(0.0773427 0 -0.00430327)
(0.0879086 0 -0.00498734)
(0.0966058 0 -0.00560336)
(0.103648 0 -0.00615702)
(0.109218 0 -0.00665151)
(0.11348 0 -0.00708784)
(0.116585 0 -0.0074664)
(0.118668 0 -0.00778348)
(0.119854 0 -0.00803451)
(0.120269 0 -0.00821507)
(0.120011 0 -0.0083126)
(0.119193 0 -0.00831866)
(0.117954 0 -0.00822974)
(0.116408 0 -0.00803384)
(0.114684 0 -0.00772077)
(0.11293 0 -0.00728275)
(0.111302 0 -0.00671245)
(0.109988 0 -0.00600875)
(0.109257 0 -0.00518779)
(0.109323 0 -0.00426462)
(0.110524 0 -0.00328712)
(0.113292 0 -0.00235004)
(0.118095 0 -0.00160022)
(0.125353 0 -0.00125404)
(0.136059 0 -0.00177006)
(0.150137 0 -0.00365671)
(0.0112662 0 -0.000673701)
(0.0321914 0 -0.00193041)
(0.050138 0 -0.00303227)
(0.0654011 0 -0.00400748)
(0.0782938 0 -0.00487708)
(0.089099 0 -0.00565858)
(0.0980599 0 -0.00636489)
(0.105392 0 -0.00700354)
(0.111285 0 -0.00757894)
(0.115906 0 -0.00809199)
(0.119418 0 -0.0085462)
(0.121956 0 -0.00893741)
(0.123654 0 -0.00926188)
(0.124643 0 -0.00951554)
(0.125039 0 -0.0096901)
(0.124967 0 -0.00977879)
(0.124562 0 -0.0097765)
(0.123958 0 -0.00967558)
(0.123292 0 -0.00946826)
(0.122764 0 -0.00915935)
(0.122516 0 -0.00874135)
(0.122773 0 -0.00822474)
(0.123776 0 -0.00762733)
(0.125873 0 -0.00700158)
(0.129382 0 -0.00640822)
(0.134662 0 -0.00594778)
(0.14232 0 -0.00582938)
(0.15265 0 -0.0062717)
(0.166577 0 -0.00777959)
(0.183649 0 -0.0107776)
(0.0113845 0 -0.000751175)
(0.0325408 0 -0.00215316)
(0.0507176 0 -0.00338392)
(0.0662062 0 -0.00447348)
(0.0793326 0 -0.00544796)
(0.090398 0 -0.00632768)
(0.0996447 0 -0.00712625)
(0.107292 0 -0.00785285)
(0.113535 0 -0.00851367)
(0.118555 0 -0.00911272)
(0.12251 0 -0.00965065)
(0.125541 0 -0.0101254)
(0.127789 0 -0.0105347)
(0.129399 0 -0.0108772)
(0.130498 0 -0.0111472)
(0.131221 0 -0.0113402)
(0.131712 0 -0.0114533)
(0.132121 0 -0.0114835)
(0.132608 0 -0.0114295)
(0.133358 0 -0.0112956)
(0.134564 0 -0.0110893)
(0.13651 0 -0.0108404)
(0.139418 0 -0.0105707)
(0.143613 0 -0.010338)
(0.149549 0 -0.0102522)
(0.157567 0 -0.0104273)
(0.168173 0 -0.01108)
(0.181808 0 -0.0124886)
(0.198897 0 -0.0150911)
(0.218754 0 -0.0192438)
(0.0115136 0 -0.000828079)
(0.0329176 0 -0.00237424)
(0.0513284 0 -0.00373242)
(0.067061 0 -0.00493644)
(0.0804522 0 -0.00601741)
(0.091799 0 -0.00699676)
(0.101353 0 -0.00788986)
(0.109339 0 -0.00870752)
(0.115961 0 -0.00945872)
(0.121406 0 -0.0101494)
(0.125827 0 -0.0107778)
(0.12938 0 -0.0113451)
(0.132209 0 -0.0118499)
(0.134477 0 -0.0122963)
(0.136317 0 -0.0126799)
(0.137876 0 -0.0129994)
(0.139308 0 -0.0132551)
(0.140774 0 -0.0134489)
(0.14246 0 -0.0135877)
(0.144556 0 -0.0136814)
(0.1473 0 -0.0137519)
(0.150947 0 -0.0138292)
(0.155848 0 -0.0139766)
(0.162277 0 -0.0142509)
(0.170675 0 -0.0147722)
(0.181563 0 -0.0157208)
(0.195245 0 -0.0172821)
(0.212327 0 -0.0198021)
(0.232492 0 -0.02356)
(0.254865 0 -0.0288446)
(0.0116515 0 -0.000903845)
(0.0333176 0 -0.00259212)
(0.0519773 0 -0.0040765)
(0.0679719 0 -0.00539612)
(0.0816424 0 -0.00658402)
(0.0932882 0 -0.00766423)
(0.103166 0 -0.00865386)
(0.111508 0 -0.00956501)
(0.118529 0 -0.0104101)
(0.124409 0 -0.0111939)
(0.129319 0 -0.0119191)
(0.133416 0 -0.0125882)
(0.136864 0 -0.0132035)
(0.139819 0 -0.0137682)
(0.142426 0 -0.0142821)
(0.144847 0 -0.0147482)
(0.147244 0 -0.0151711)
(0.149791 0 -0.0155584)
(0.152698 0 -0.015926)
(0.156159 0 -0.0162886)
(0.160474 0 -0.016691)
(0.165886 0 -0.0171679)
(0.172728 0 -0.0177875)
(0.181429 0 -0.0186599)
(0.192337 0 -0.0198943)
(0.206073 0 -0.021713)
(0.222932 0 -0.02431)
(0.243426 0 -0.0280273)
(0.266649 0 -0.0329783)
(0.291281 0 -0.0393232)
(0.0117991 0 -0.000978746)
(0.0337378 0 -0.00280641)
(0.0526571 0 -0.0044152)
(0.0689255 0 -0.00584924)
(0.0828872 0 -0.00714373)
(0.0948457 0 -0.00832537)
(0.10506 0 -0.00941306)
(0.113782 0 -0.0104231)
(0.121218 0 -0.0113659)
(0.12755 0 -0.0122479)
(0.132965 0 -0.0130765)
(0.137627 0 -0.0138557)
(0.141705 0 -0.0145904)
(0.145359 0 -0.0152849)
(0.148746 0 -0.0159436)
(0.152039 0 -0.0165742)
(0.15541 0 -0.0171858)
(0.159039 0 -0.0177907)
(0.163179 0 -0.0184208)
(0.168019 0 -0.0190947)
(0.17384 0 -0.0198587)
(0.180995 0 -0.0207869)
(0.189777 0 -0.0219482)
(0.200619 0 -0.0234653)
(0.214044 0 -0.0255095)
(0.230474 0 -0.0282631)
(0.250435 0 -0.0319883)
(0.274141 0 -0.0369427)
(0.300321 0 -0.0430849)
(0.327052 0 -0.0504173)
(0.0119368 0 -0.00105111)
(0.0341582 0 -0.00301599)
(0.0533629 0 -0.00474902)
(0.0699171 0 -0.00629668)
(0.084181 0 -0.00769754)
(0.0964654 0 -0.00898137)
(0.107037 0 -0.0101694)
(0.116148 0 -0.0112804)
(0.124002 0 -0.0123231)
(0.130795 0 -0.0133069)
(0.136725 0 -0.0142441)
(0.141959 0 -0.0151398)
(0.146676 0 -0.0160025)
(0.151034 0 -0.016837)
(0.155203 0 -0.017653)
(0.159365 0 -0.0184625)
(0.163698 0 -0.01928)
(0.16841 0 -0.0201275)
(0.173732 0 -0.0210369)
(0.1799 0 -0.0220467)
(0.187197 0 -0.0232107)
(0.19595 0 -0.0246062)
(0.206562 0 -0.0263463)
(0.219407 0 -0.0285504)
(0.235082 0 -0.0314307)
(0.253933 0 -0.035163)
(0.276657 0 -0.0400681)
(0.303024 0 -0.0462517)
(0.331757 0 -0.0535686)
(0.360624 0 -0.0619202)
(0.0120806 0 -0.00112193)
(0.0345934 0 -0.00322169)
(0.0540896 0 -0.00507695)
(0.0709374 0 -0.006737)
(0.0855115 0 -0.00824345)
(0.0981316 0 -0.00962971)
(0.109065 0 -0.0109181)
(0.118564 0 -0.0121287)
(0.126842 0 -0.0132734)
(0.134113 0 -0.0143659)
(0.140565 0 -0.0154163)
(0.146376 0 -0.0164346)
(0.15173 0 -0.0174322)
(0.156777 0 -0.0184125)
(0.161714 0 -0.0193943)
(0.166724 0 -0.0203931)
(0.171995 0 -0.0214288)
(0.17774 0 -0.0225299)
(0.184182 0 -0.0237323)
(0.191592 0 -0.0250895)
(0.200252 0 -0.026666)
(0.210484 0 -0.0285486)
(0.222664 0 -0.0308558)
(0.237266 0 -0.0337557)
(0.254695 0 -0.0374263)
(0.275446 0 -0.0421168)
(0.299999 0 -0.0481264)
(0.327823 0 -0.055489)
(0.357804 0 -0.0640269)
(0.38907 0 -0.0738762)
(0.00706527 0 -0.00255711)
(0.0152427 0 -0.00295747)
(0.0324318 0 -0.00351684)
(0.0586764 0 -0.00418391)
(0.0914616 0 -0.00482459)
(0.126495 0 -0.0053466)
(0.159362 0 -0.00564324)
(0.187494 0 -0.00575709)
(0.210233 0 -0.00572194)
(0.227842 0 -0.00556717)
(0.240954 0 -0.00534818)
(0.250278 0 -0.00509644)
(0.256376 0 -0.00479857)
(0.25968 0 -0.00448908)
(0.260513 0 -0.00417461)
(0.259104 0 -0.00385924)
(0.255599 0 -0.0035574)
(0.250088 0 -0.00325936)
(0.242604 0 -0.00297469)
(0.23315 0 -0.00269177)
(0.221708 0 -0.00243045)
(0.208205 0 -0.00218034)
(0.192584 0 -0.00193755)
(0.174772 0 -0.00169888)
(0.15469 0 -0.00146116)
(0.132253 0 -0.00122102)
(0.107371 0 -0.000974772)
(0.079957 0 -0.000718267)
(0.0499305 0 -0.000446817)
(0.0171227 0 -0.000153998)
(0.0128606 0 -0.00776522)
(0.0216883 0 -0.00896196)
(0.039477 0 -0.0106578)
(0.0658424 0 -0.0125892)
(0.0982932 0 -0.0144513)
(0.13253 0 -0.0158998)
(0.164385 0 -0.016736)
(0.191554 0 -0.0170333)
(0.213448 0 -0.0169015)
(0.230374 0 -0.0164454)
(0.242959 0 -0.0157922)
(0.251862 0 -0.0150211)
(0.25763 0 -0.014134)
(0.260686 0 -0.013224)
(0.261326 0 -0.0123012)
(0.259767 0 -0.0113719)
(0.256147 0 -0.0104908)
(0.250545 0 -0.00961289)
(0.242995 0 -0.00878035)
(0.233482 0 -0.00796975)
(0.221983 0 -0.00720456)
(0.208436 0 -0.00646873)
(0.19278 0 -0.00575254)
(0.174938 0 -0.0050471)
(0.154831 0 -0.00434327)
(0.132371 0 -0.0036312)
(0.107468 0 -0.00290005)
(0.0800317 0 -0.00213764)
(0.0499813 0 -0.00133013)
(0.0171424 0 -0.000458508)
(0.0238283 0 -0.0132064)
(0.0341129 0 -0.0152864)
(0.0529107 0 -0.0180896)
(0.0794782 0 -0.0211881)
(0.111239 0 -0.0240724)
(0.143936 0 -0.0262181)
(0.173915 0 -0.0274287)
(0.199253 0 -0.0277882)
(0.219561 0 -0.0274892)
(0.2352 0 -0.026717)
(0.246771 0 -0.0256337)
(0.254875 0 -0.0243475)
(0.260031 0 -0.0229257)
(0.262616 0 -0.0214569)
(0.262889 0 -0.0199705)
(0.261042 0 -0.018486)
(0.257199 0 -0.0170502)
(0.251422 0 -0.0156486)
(0.243727 0 -0.014313)
(0.234098 0 -0.013028)
(0.222498 0 -0.0117955)
(0.20887 0 -0.0106035)
(0.193146 0 -0.00943903)
(0.175247 0 -0.00828876)
(0.15509 0 -0.00713827)
(0.132586 0 -0.00597184)
(0.107642 0 -0.004772)
(0.0801661 0 -0.00351901)
(0.0500714 0 -0.00219039)
(0.0171767 0 -0.000755158)
(0.0395278 0 -0.019146)
(0.0517849 0 -0.0221678)
(0.0717671 0 -0.0260008)
(0.0985953 0 -0.0301471)
(0.129264 0 -0.0338031)
(0.159786 0 -0.0363781)
(0.187161 0 -0.0377328)
(0.209973 0 -0.037997)
(0.228108 0 -0.037445)
(0.241977 0 -0.0363162)
(0.252142 0 -0.0348022)
(0.259139 0 -0.0330259)
(0.263451 0 -0.0311338)
(0.265366 0 -0.0291522)
(0.265115 0 -0.0271439)
(0.262867 0 -0.0251674)
(0.258704 0 -0.0232315)
(0.252672 0 -0.021366)
(0.244769 0 -0.0195748)
(0.23497 0 -0.0178497)
(0.223229 0 -0.0161846)
(0.209483 0 -0.0145667)
(0.193661 0 -0.0129806)
(0.17568 0 -0.0114091)
(0.155452 0 -0.0098331)
(0.132884 0 -0.00823167)
(0.107882 0 -0.00658129)
(0.0803483 0 -0.0048552)
(0.0501913 0 -0.00302292)
(0.0172214 0 -0.00104223)
(0.0593886 0 -0.025795)
(0.0738363 0 -0.0297535)
(0.0951523 0 -0.0345614)
(0.1221 0 -0.0395345)
(0.15123 0 -0.0436743)
(0.179031 0 -0.0463999)
(0.203237 0 -0.0476537)
(0.223015 0 -0.0476576)
(0.238562 0 -0.0467697)
(0.250311 0 -0.0452511)
(0.258781 0 -0.0433119)
(0.264449 0 -0.0410871)
(0.267715 0 -0.0387319)
(0.2688 0 -0.0362778)
(0.267909 0 -0.0338112)
(0.265159 0 -0.0313906)
(0.260599 0 -0.0290306)
(0.254244 0 -0.026748)
(0.246078 0 -0.024546)
(0.236063 0 -0.0224183)
(0.224143 0 -0.0203555)
(0.210248 0 -0.018343)
(0.194301 0 -0.0163629)
(0.176214 0 -0.014395)
(0.155896 0 -0.0124161)
(0.133249 0 -0.0104007)
(0.108173 0 -0.00831963)
(0.0805667 0 -0.00613987)
(0.0503332 0 -0.0038236)
(0.0172734 0 -0.00131825)
(0.0828967 0 -0.0333021)
(0.099589 0 -0.0381709)
(0.122276 0 -0.0438555)
(0.14894 0 -0.0493553)
(0.175963 0 -0.053607)
(0.200531 0 -0.0561693)
(0.221154 0 -0.0570987)
(0.237621 0 -0.0567178)
(0.250339 0 -0.055421)
(0.259755 0 -0.0534859)
(0.266348 0 -0.0511262)
(0.27054 0 -0.048496)
(0.272613 0 -0.045698)
(0.272775 0 -0.0428324)
(0.271163 0 -0.0399766)
(0.267836 0 -0.0371711)
(0.262813 0 -0.0344355)
(0.256082 0 -0.0317821)
(0.247608 0 -0.0292127)
(0.237338 0 -0.0267208)
(0.225206 0 -0.0242951)
(0.211136 0 -0.0219196)
(0.195041 0 -0.0195741)
(0.17683 0 -0.0172356)
(0.156404 0 -0.0148776)
(0.133663 0 -0.0124703)
(0.108501 0 -0.00997992)
(0.0808106 0 -0.00736758)
(0.0504897 0 -0.00458891)
(0.0173301 0 -0.00158195)
(0.109597 0 -0.0417409)
(0.12851 0 -0.0474813)
(0.152404 0 -0.0538739)
(0.178097 0 -0.0595112)
(0.202373 0 -0.0634874)
(0.223232 0 -0.0655612)
(0.24005 0 -0.0659699)
(0.253093 0 -0.0651099)
(0.262868 0 -0.0633531)
(0.269853 0 -0.0609863)
(0.274482 0 -0.0582128)
(0.277116 0 -0.0551994)
(0.277954 0 -0.0520323)
(0.277148 0 -0.0488258)
(0.27476 0 -0.0456364)
(0.270807 0 -0.0425007)
(0.265274 0 -0.0394387)
(0.258125 0 -0.0364601)
(0.249307 0 -0.0335654)
(0.238752 0 -0.0307476)
(0.226384 0 -0.0279939)
(0.212116 0 -0.0252869)
(0.195855 0 -0.0226047)
(0.177503 0 -0.019922)
(0.156957 0 -0.0172094)
(0.13411 0 -0.0144335)
(0.108852 0 -0.0115562)
(0.0810696 0 -0.00853375)
(0.0506542 0 -0.00531587)
(0.017389 0 -0.00183225)
(0.13908 0 -0.0511151)
(0.160051 0 -0.0576354)
(0.184598 0 -0.0644328)
(0.208533 0 -0.0697956)
(0.229444 0 -0.0731254)
(0.246282 0 -0.0744601)
(0.259181 0 -0.0741922)
(0.268773 0 -0.0727658)
(0.275609 0 -0.0705175)
(0.280169 0 -0.0677188)
(0.282859 0 -0.0645682)
(0.283949 0 -0.0612153)
(0.283565 0 -0.0577521)
(0.281772 0 -0.0542606)
(0.278583 0 -0.0507916)
(0.273974 0 -0.0473778)
(0.267903 0 -0.0440372)
(0.26031 0 -0.0407778)
(0.251124 0 -0.0375989)
(0.240263 0 -0.0344924)
(0.227639 0 -0.031445)
(0.213156 0 -0.0284378)
(0.196716 0 -0.0254478)
(0.178212 0 -0.0224475)
(0.157535 0 -0.0194052)
(0.134574 0 -0.0162846)
(0.109213 0 -0.0130438)
(0.081334 0 -0.00963466)
(0.0508205 0 -0.00600206)
(0.0174478 0 -0.00206832)
(0.170964 0 -0.0613632)
(0.193654 0 -0.0684986)
(0.217935 0 -0.0752664)
(0.239268 0 -0.0799311)
(0.256233 0 -0.0822849)
(0.26884 0 -0.0826874)
(0.277823 0 -0.0816387)
(0.284064 0 -0.0796063)
(0.288067 0 -0.0768636)
(0.290346 0 -0.0736718)
(0.291221 0 -0.0702027)
(0.290845 0 -0.0665746)
(0.289273 0 -0.0628677)
(0.286508 0 -0.0591446)
(0.282517 0 -0.055448)
(0.277247 0 -0.0518055)
(0.270626 0 -0.0482324)
(0.262576 0 -0.0447349)
(0.253007 0 -0.041311)
(0.241827 0 -0.0379522)
(0.228935 0 -0.0346443)
(0.214228 0 -0.0313677)
(0.197598 0 -0.0280983)
(0.178933 0 -0.024807)
(0.15812 0 -0.0214603)
(0.13504 0 -0.0180191)
(0.109573 0 -0.0144388)
(0.0815945 0 -0.0106674)
(0.0509826 0 -0.0066456)
(0.0175047 0 -0.00228947)
(0.20489 0 -0.0723684)
(0.228765 0 -0.0798694)
(0.251609 0 -0.0860842)
(0.269329 0 -0.0895895)
(0.281843 0 -0.0906977)
(0.29015 0 -0.0900535)
(0.295384 0 -0.0882015)
(0.298436 0 -0.0855517)
(0.299878 0 -0.0823693)
(0.300119 0 -0.0788523)
(0.299343 0 -0.0751286)
(0.297611 0 -0.0712875)
(0.294919 0 -0.0673919)
(0.291223 0 -0.0634899)
(0.286456 0 -0.0596155)
(0.280535 0 -0.0557911)
(0.273369 0 -0.0520292)
(0.26486 0 -0.0483341)
(0.254907 0 -0.0447029)
(0.243401 0 -0.0411265)
(0.230236 0 -0.0375903)
(0.215299 0 -0.0340742)
(0.198475 0 -0.0305533)
(0.179647 0 -0.0269974)
(0.158694 0 -0.0233713)
(0.135494 0 -0.0196342)
(0.10992 0 -0.0157386)
(0.0818427 0 -0.0116299)
(0.0511352 0 -0.0072451)
(0.0175575 0 -0.00249522)
(0.240534 0 -0.0839866)
(0.264724 0 -0.0914605)
(0.284573 0 -0.096463)
(0.297653 0 -0.0983756)
(0.30539 0 -0.0980688)
(0.309492 0 -0.0963492)
(0.311289 0 -0.0937488)
(0.311551 0 -0.0905699)
(0.310807 0 -0.0870361)
(0.309278 0 -0.0832719)
(0.307039 0 -0.0793628)
(0.304085 0 -0.0753709)
(0.300366 0 -0.0713422)
(0.295802 0 -0.0673124)
(0.290301 0 -0.0633076)
(0.283757 0 -0.0593456)
(0.276064 0 -0.055436)
(0.267108 0 -0.0515816)
(0.256774 0 -0.0477785)
(0.244947 0 -0.0440175)
(0.231509 0 -0.0402838)
(0.216342 0 -0.036557)
(0.199324 0 -0.0328116)
(0.180331 0 -0.0290169)
(0.159239 0 -0.0251364)
(0.13592 0 -0.0211277)
(0.110242 0 -0.0169415)
(0.0820704 0 -0.0125206)
(0.0512733 0 -0.00779965)
(0.0176048 0 -0.00268526)
(0.277593 0 -0.0960534)
(0.300527 0 -0.102815)
(0.31546 0 -0.105829)
(0.323082 0 -0.105836)
(0.326002 0 -0.104093)
(0.326336 0 -0.101421)
(0.325218 0 -0.0982037)
(0.32324 0 -0.0946481)
(0.320688 0 -0.090873)
(0.317662 0 -0.0869493)
(0.314162 0 -0.0829278)
(0.310135 0 -0.0788476)
(0.305497 0 -0.0747403)
(0.300146 0 -0.0706316)
(0.293967 0 -0.0665412)
(0.286842 0 -0.0624827)
(0.278649 0 -0.0584638)
(0.269265 0 -0.0544858)
(0.258565 0 -0.050544)
(0.246425 0 -0.0466294)
(0.232722 0 -0.0427274)
(0.217329 0 -0.0388174)
(0.200121 0 -0.0348738)
(0.180968 0 -0.0308654)
(0.159741 0 -0.026755)
(0.136306 0 -0.0224989)
(0.110529 0 -0.0180466)
(0.0822704 0 -0.013339)
(0.0513926 0 -0.00830878)
(0.0176449 0 -0.00285944)
(0.315533 0 -0.108279)
(0.334358 0 -0.113118)
(0.342507 0 -0.113431)
(0.344394 0 -0.11148)
(0.343172 0 -0.108555)
(0.340513 0 -0.105186)
(0.337153 0 -0.101574)
(0.333411 0 -0.0977995)
(0.329409 0 -0.0939033)
(0.325156 0 -0.0899131)
(0.320601 0 -0.0858531)
(0.315658 0 -0.081746)
(0.310221 0 -0.0776123)
(0.30417 0 -0.0734706)
(0.297381 0 -0.0693359)
(0.289724 0 -0.0652192)
(0.281069 0 -0.0611263)
(0.271286 0 -0.0570578)
(0.26024 0 -0.0530075)
(0.247802 0 -0.0489682)
(0.233845 0 -0.0449255)
(0.218236 0 -0.0408584)
(0.200845 0 -0.0367416)
(0.181539 0 -0.0325439)
(0.160183 0 -0.0282275)
(0.136641 0 -0.023748)
(0.110773 0 -0.0190538)
(0.0824362 0 -0.0140848)
(0.051489 0 -0.00877239)
(0.0176765 0 -0.00301775)
(0.352558 0 -0.119795)
(0.363014 0 -0.120946)
(0.364018 0 -0.118439)
(0.361176 0 -0.11498)
(0.356891 0 -0.111327)
(0.352079 0 -0.107626)
(0.347084 0 -0.103876)
(0.342024 0 -0.100059)
(0.336909 0 -0.0961678)
(0.33169 0 -0.0922041)
(0.326282 0 -0.0881772)
(0.32058 0 -0.0841006)
(0.314465 0 -0.0799888)
(0.30781 0 -0.075856)
(0.300484 0 -0.0717146)
(0.292352 0 -0.0675739)
(0.283279 0 -0.0634391)
(0.273131 0 -0.0593108)
(0.261763 0 -0.055179)
(0.249046 0 -0.0510415)
(0.234852 0 -0.0468842)
(0.219041 0 -0.0426844)
(0.201477 0 -0.0384182)
(0.182028 0 -0.0340548)
(0.160554 0 -0.0295556)
(0.136914 0 -0.024876)
(0.110966 0 -0.0199639)
(0.0825623 0 -0.0147586)
(0.0515593 0 -0.00919078)
(0.0176985 0 -0.00316031)
(0.382579 0 -0.127775)
(0.384936 0 -0.124587)
(0.379489 0 -0.119935)
(0.373402 0 -0.115999)
(0.367169 0 -0.112348)
(0.360998 0 -0.108766)
(0.354945 0 -0.105154)
(0.348996 0 -0.101473)
(0.343098 0 -0.097706)
(0.337172 0 -0.0938549)
(0.331113 0 -0.0899266)
(0.324813 0 -0.0859328)
(0.318149 0 -0.0818866)
(0.310993 0 -0.0778008)
(0.30321 0 -0.0736869)
(0.294666 0 -0.0695538)
(0.285226 0 -0.0654069)
(0.274759 0 -0.0612495)
(0.263106 0 -0.057069)
(0.25013 0 -0.0528577)
(0.235721 0 -0.0486106)
(0.219723 0 -0.0443005)
(0.201999 0 -0.0399074)
(0.182421 0 -0.0354011)
(0.160842 0 -0.0307414)
(0.137116 0 -0.0258845)
(0.111101 0 -0.0207782)
(0.0826437 0 -0.0153612)
(0.0516002 0 -0.00956447)
(0.0177098 0 -0.00328731)
(0.0122309 0 -0.00119215)
(0.0350448 0 -0.00342559)
(0.0548417 0 -0.00540244)
(0.0719916 0 -0.00717486)
(0.0868921 0 -0.00878963)
(0.099862 0 -0.0102803)
(0.111167 0 -0.011671)
(0.121069 0 -0.0129845)
(0.12979 0 -0.014236)
(0.137545 0 -0.0154415)
(0.144517 0 -0.0166083)
(0.150905 0 -0.0177543)
(0.156882 0 -0.0188894)
(0.162632 0 -0.020028)
(0.168332 0 -0.0211859)
(0.174171 0 -0.0223838)
(0.18034 0 -0.0236457)
(0.187063 0 -0.0250085)
(0.19456 0 -0.0265126)
(0.203121 0 -0.0282258)
(0.212986 0 -0.0302104)
(0.224516 0 -0.0325766)
(0.238007 0 -0.0354352)
(0.253933 0 -0.0389771)
(0.272539 0 -0.0433602)
(0.294287 0 -0.0488678)
(0.319186 0 -0.0557438)
(0.346404 0 -0.0641412)
(0.374382 0 -0.0744125)
(0.400249 0 -0.0876363)
(0.0123882 0 -0.00126245)
(0.0355157 0 -0.00362982)
(0.0556273 0 -0.00572916)
(0.0731057 0 -0.00761655)
(0.088345 0 -0.00934145)
(0.101664 0 -0.0109373)
(0.11335 0 -0.0124323)
(0.12367 0 -0.0138524)
(0.132842 0 -0.0152142)
(0.141078 0 -0.0165334)
(0.148587 0 -0.0178253)
(0.155559 0 -0.0191055)
(0.162164 0 -0.020386)
(0.168609 0 -0.0216903)
(0.175045 0 -0.0230293)
(0.181683 0 -0.0244328)
(0.188708 0 -0.0259275)
(0.196352 0 -0.0275582)
(0.204817 0 -0.0293667)
(0.214384 0 -0.0314262)
(0.225301 0 -0.0338121)
(0.237819 0 -0.0366147)
(0.252278 0 -0.0399728)
(0.268965 0 -0.044042)
(0.288025 0 -0.0489773)
(0.309626 0 -0.0550033)
(0.333205 0 -0.0622087)
(0.357515 0 -0.0705933)
(0.380271 0 -0.0798755)
(0.398774 0 -0.0895677)
(0.0125495 0 -0.00133185)
(0.0359981 0 -0.00383162)
(0.0564331 0 -0.00605268)
(0.074246 0 -0.00805442)
(0.0898271 0 -0.0098875)
(0.103502 0 -0.011589)
(0.115582 0 -0.0131918)
(0.126327 0 -0.014721)
(0.135954 0 -0.0161953)
(0.144681 0 -0.0176328)
(0.152721 0 -0.019052)
(0.16026 0 -0.0204684)
(0.167491 0 -0.0219016)
(0.174592 0 -0.0233701)
(0.181729 0 -0.0248918)
(0.189119 0 -0.0265028)
(0.196939 0 -0.028231)
(0.205391 0 -0.0301178)
(0.214722 0 -0.0322251)
(0.225111 0 -0.0346041)
(0.236814 0 -0.0373435)
(0.250009 0 -0.0405208)
(0.264995 0 -0.0442748)
(0.281845 0 -0.0487095)
(0.300555 0 -0.0539435)
(0.320898 0 -0.0600751)
(0.341946 0 -0.0670215)
(0.362347 0 -0.0746001)
(0.380366 0 -0.0824634)
(0.394271 0 -0.0902584)
(0.0127129 0 -0.00139979)
(0.0364859 0 -0.00402936)
(0.0572497 0 -0.00637036)
(0.0754034 0 -0.0084855)
(0.0913348 0 -0.0104269)
(0.105383 0 -0.0122355)
(0.117857 0 -0.0139466)
(0.129016 0 -0.0155836)
(0.139096 0 -0.0171714)
(0.148303 0 -0.0187276)
(0.156864 0 -0.0202751)
(0.164963 0 -0.0218302)
(0.172793 0 -0.0234165)
(0.180507 0 -0.0250472)
(0.188304 0 -0.0267524)
(0.196369 0 -0.0285613)
(0.204894 0 -0.0305133)
(0.214048 0 -0.0326437)
(0.224063 0 -0.0350171)
(0.235066 0 -0.0376755)
(0.247277 0 -0.0407037)
(0.260823 0 -0.0441733)
(0.275872 0 -0.0481893)
(0.2923 0 -0.0527935)
(0.309959 0 -0.0580528)
(0.328325 0 -0.063932)
(0.346487 0 -0.0702869)
(0.363373 0 -0.076914)
(0.377885 0 -0.083586)
(0.388779 0 -0.0899355)
(0.0128763 0 -0.00146568)
(0.036972 0 -0.00422124)
(0.0580666 0 -0.00667938)
(0.0765658 0 -0.00890622)
(0.0928516 0 -0.010955)
(0.10727 0 -0.0128692)
(0.120127 0 -0.0146843)
(0.131707 0 -0.0164316)
(0.142235 0 -0.0181331)
(0.151917 0 -0.0198086)
(0.160982 0 -0.0214844)
(0.169615 0 -0.023178)
(0.177996 0 -0.0249104)
(0.186279 0 -0.0266994)
(0.194673 0 -0.0285802)
(0.203331 0 -0.0305771)
(0.212446 0 -0.0327322)
(0.222173 0 -0.0350831)
(0.232678 0 -0.0376792)
(0.24409 0 -0.0405688)
(0.256534 0 -0.0438118)
(0.270082 0 -0.0474671)
(0.284741 0 -0.0515899)
(0.300293 0 -0.0561823)
(0.316455 0 -0.0612455)
(0.332659 0 -0.0666902)
(0.348207 0 -0.07239)
(0.36232 0 -0.0781761)
(0.3742 0 -0.0838428)
(0.383066 0 -0.0890849)
(0.0130366 0 -0.00152852)
(0.0374461 0 -0.00440421)
(0.0588727 0 -0.00697639)
(0.0777219 0 -0.00931258)
(0.0943607 0 -0.0114662)
(0.109147 0 -0.0134841)
(0.122395 0 -0.0154037)
(0.134387 0 -0.0172593)
(0.145336 0 -0.0190704)
(0.155481 0 -0.0208652)
(0.165026 0 -0.0226649)
(0.174159 0 -0.0244924)
(0.183034 0 -0.0263632)
(0.191835 0 -0.0283036)
(0.200747 0 -0.0303463)
(0.20992 0 -0.032518)
(0.219508 0 -0.034853)
(0.22965 0 -0.0373882)
(0.240465 0 -0.0401621)
(0.25205 0 -0.0432167)
(0.264454 0 -0.0465901)
(0.277678 0 -0.0503182)
(0.29161 0 -0.0544114)
(0.306007 0 -0.058852)
(0.320543 0 -0.0635999)
(0.334755 0 -0.0685723)
(0.348103 0 -0.0736544)
(0.360034 0 -0.0787134)
(0.36996 0 -0.083553)
(0.377405 0 -0.0879512)
(0.0131955 0 -0.00158824)
(0.0379303 0 -0.00458015)
(0.0596829 0 -0.0072612)
(0.0788604 0 -0.00970053)
(0.0958448 0 -0.0119551)
(0.11099 0 -0.0140731)
(0.124625 0 -0.0160962)
(0.137014 0 -0.0180555)
(0.148377 0 -0.0199741)
(0.158956 0 -0.0218829)
(0.168945 0 -0.0238018)
(0.178524 0 -0.0257521)
(0.187853 0 -0.0277548)
(0.197117 0 -0.0298377)
(0.206468 0 -0.0320268)
(0.216048 0 -0.0343495)
(0.225979 0 -0.0368338)
(0.236378 0 -0.0395121)
(0.24732 0 -0.0424116)
(0.25886 0 -0.0455634)
(0.270983 0 -0.048983)
(0.283625 0 -0.0526821)
(0.296638 0 -0.05665)
(0.309797 0 -0.0608603)
(0.322798 0 -0.0652608)
(0.335259 0 -0.069771)
(0.346811 0 -0.0743066)
(0.357006 0 -0.0787358)
(0.365437 0 -0.082894)
(0.371852 0 -0.0866436)
(0.0133488 0 -0.00164388)
(0.0383898 0 -0.00474338)
(0.0604609 0 -0.00752699)
(0.079966 0 -0.0100649)
(0.0972871 0 -0.0124154)
(0.112797 0 -0.0146312)
(0.126803 0 -0.0167532)
(0.139556 0 -0.0188094)
(0.151314 0 -0.0208316)
(0.162305 0 -0.0228484)
(0.172694 0 -0.0248777)
(0.182671 0 -0.0269423)
(0.192408 0 -0.0290672)
(0.202058 0 -0.0312758)
(0.211757 0 -0.0335906)
(0.221632 0 -0.0360366)
(0.231776 0 -0.0386354)
(0.242279 0 -0.0414127)
(0.253173 0 -0.0443831)
(0.264467 0 -0.047562)
(0.276115 0 -0.0509522)
(0.288038 0 -0.0545537)
(0.300087 0 -0.0583475)
(0.312051 0 -0.0622979)
(0.32367 0 -0.0663515)
(0.334649 0 -0.0704383)
(0.344696 0 -0.0744808)
(0.353492 0 -0.0783644)
(0.360774 0 -0.0819737)
(0.366399 0 -0.0852125)
(0.0134954 0 -0.00169467)
(0.0388477 0 -0.0048951)
(0.0612263 0 -0.00777383)
(0.0810251 0 -0.0104007)
(0.0986706 0 -0.0128416)
(0.114529 0 -0.0151492)
(0.128888 0 -0.0173624)
(0.141995 0 -0.0195116)
(0.154125 0 -0.021632)
(0.165484 0 -0.0237474)
(0.17623 0 -0.0258763)
(0.186565 0 -0.028046)
(0.196639 0 -0.0302769)
(0.206595 0 -0.0325914)
(0.216548 0 -0.0350076)
(0.226605 0 -0.0375467)
(0.236834 0 -0.0402223)
(0.247285 0 -0.0430494)
(0.257969 0 -0.046035)
(0.26888 0 -0.0491867)
(0.279963 0 -0.0525013)
(0.291126 0 -0.0559677)
(0.302227 0 -0.0595609)
(0.313082 0 -0.0632428)
(0.323478 0 -0.0669632)
(0.333201 0 -0.0706666)
(0.342005 0 -0.0742739)
(0.349664 0 -0.0776939)
(0.356033 0 -0.0808526)
(0.361024 0 -0.0836798)
(0.0136302 0 -0.00173954)
(0.0392693 0 -0.00502958)
(0.0619448 0 -0.00799446)
(0.0820492 0 -0.0107056)
(0.0999948 0 -0.0132283)
(0.116167 0 -0.0156182)
(0.130862 0 -0.0179165)
(0.144311 0 -0.0201526)
(0.156766 0 -0.0223586)
(0.168452 0 -0.0245628)
(0.17952 0 -0.0267823)
(0.190155 0 -0.0290426)
(0.200496 0 -0.0313614)
(0.210673 0 -0.0337591)
(0.220783 0 -0.0362492)
(0.230903 0 -0.0388457)
(0.241082 0 -0.0415563)
(0.251361 0 -0.0443917)
(0.261743 0 -0.0473549)
(0.272202 0 -0.0504448)
(0.282681 0 -0.0536524)
(0.293084 0 -0.0569606)