/*--------------------------------*- C++ -*----------------------------------*\
| =========                 |                                                 |
| \\      /  F ield         | OpenFOAM: The Open Source CFD Toolbox           |
|  \\    /   O peration     | Version:  dev                                   |
|   \\  /    A nd           | Web:      www.OpenFOAM.org                      |
|    \\/     M anipulation  |                                                 |
\*---------------------------------------------------------------------------*/
FoamFile
{
    version     2.0;
    format      ascii;
    class       volVectorField;
    location    "1.64";
    object      cellDisplacement;
}
// * * * * * * * * * * * * * * * * * * * * * * * * * * * * * * * * * * * * * //

dimensions      [0 1 0 0 0 0 0];

internalField   nonuniform List<vector> 
465
(
(0.481391 0 -0.182054)
(0.472372 0 -0.175318)
(0.481764 0 -0.181633)
(0.472656 0 -0.175379)
(0.462881 0 -0.168776)
(0.452322 0 -0.161882)
(0.481011 0 -0.18048)
(0.471942 0 -0.174722)
(0.462148 0 -0.168552)
(0.451531 0 -0.162033)
(0.43998 0 -0.155213)
(0.479165 0 -0.178687)
(0.470237 0 -0.173417)
(0.46052 0 -0.167686)
(0.449931 0 -0.161554)
(0.438376 0 -0.15507)
(0.425748 0 -0.148274)
(0.411934 0 -0.141197)
(0.476277 0 -0.176336)
(0.467569 0 -0.171535)
(0.458005 0 -0.166233)
(0.447518 0 -0.160488)
(0.436027 0 -0.154347)
(0.423438 0 -0.147851)
(0.409647 0 -0.14103)
(0.394542 0 -0.133904)
(0.378008 0 -0.126488)
(0.472416 0 -0.173501)
(0.463982 0 -0.169137)
(0.454629 0 -0.164245)
(0.444303 0 -0.158878)
(0.432936 0 -0.153082)
(0.420442 0 -0.146892)
(0.406728 0 -0.140338)
(0.39169 0 -0.133441)
(0.375221 0 -0.126215)
(0.357203 0 -0.118664)
(0.467663 0 -0.170245)
(0.459531 0 -0.166278)
(0.450431 0 -0.161771)
(0.440313 0 -0.156768)
(0.429117 0 -0.151308)
(0.416767 0 -0.145424)
(0.403177 0 -0.139144)
(0.388252 0 -0.132488)
(0.371892 0 -0.12547)
(0.353988 0 -0.118094)
(0.334429 0 -0.110358)
(0.313101 0 -0.102253)
(0.462066 0 -0.1666)
(0.454279 0 -0.163002)
(0.445459 0 -0.158852)
(0.435583 0 -0.154192)
(0.424598 0 -0.149058)
(0.412433 0 -0.143477)
(0.399008 0 -0.137474)
(0.384237 0 -0.131066)
(0.368026 0 -0.124267)
(0.350275 0 -0.117082)
(0.330877 0 -0.109511)
(0.309725 0 -0.101545)
(0.286704 0 -0.0931655)
(0.455723 0 -0.162611)
(0.448293 0 -0.159346)
(0.439776 0 -0.155525)
(0.430158 0 -0.151183)
(0.41942 0 -0.146365)
(0.407471 0 -0.141079)
(0.394244 0 -0.135349)
(0.379662 0 -0.129193)
(0.363637 0 -0.122623)
(0.346074 0 -0.115644)
(0.326875 0 -0.108256)
(0.305935 0 -0.10045)
(0.283149 0 -0.0922133)
(0.258408 0 -0.083523)
(0.231604 0 -0.0743517)
(0.448733 0 -0.158311)
(0.441638 0 -0.155338)
(0.433431 0 -0.151815)
(0.424117 0 -0.147784)
(0.413643 0 -0.143261)
(0.401924 0 -0.138255)
(0.38892 0 -0.132793)
(0.374554 0 -0.12689)
(0.358745 0 -0.120555)
(0.341404 0 -0.113793)
(0.322437 0 -0.106604)
(0.301746 0 -0.0989797)
(0.279229 0 -0.0909087)
(0.254784 0 -0.0823715)
(0.228308 0 -0.0733428)
(0.199696 0 -0.0637899)
(0.441195 0 -0.153721)
(0.434414 0 -0.151007)
(0.426521 0 -0.14776)
(0.417505 0 -0.14401)
(0.407296 0 -0.139759)
(0.395841 0 -0.135026)
(0.383075 0 -0.129825)
(0.368949 0 -0.124172)
(0.353382 0 -0.118077)
(0.336292 0 -0.111542)
(0.317587 0 -0.104565)
(0.297176 0 -0.0971422)
(0.274962 0 -0.0892606)
(0.250849 0 -0.0809036)
(0.224737 0 -0.0720487)
(0.196528 0 -0.0626675)
(0.166127 0 -0.0527261)
(0.13344 0 -0.0421865)
(0.433196 0 -0.148852)
(0.426706 0 -0.146366)
(0.419114 0 -0.143369)
(0.410356 0 -0.139863)
(0.400411 0 -0.135867)
(0.389244 0 -0.131399)
(0.376759 0 -0.12646)
(0.362889 0 -0.121056)
(0.347586 0 -0.115203)
(0.33077 0 -0.108902)
(0.312355 0 -0.102152)
(0.292253 0 -0.0949472)
(0.270373 0 -0.0872769)
(0.246623 0 -0.0791264)
(0.220908 0 -0.0704756)
(0.193138 0 -0.0612996)
(0.163221 0 -0.0515688)
(0.131069 0 -0.0412496)
(0.0965989 0 -0.0303039)
(0.424816 0 -0.143706)
(0.418581 0 -0.141417)
(0.411245 0 -0.138634)
(0.402767 0 -0.135362)
(0.393092 0 -0.131609)
(0.382179 0 -0.127383)
(0.369998 0 -0.122702)
(0.356428 0 -0.117554)
(0.341404 0 -0.111945)
(0.324881 0 -0.105886)
(0.306778 0 -0.0993736)
(0.28701 0 -0.0924032)
(0.265491 0 -0.0849652)
(0.242133 0 -0.0770463)
(0.216847 0 -0.068629)
(0.189548 0 -0.0596914)
(0.160148 0 -0.050208)
(0.128567 0 -0.0401496)
(0.0947269 0 -0.0294837)
(0.0585644 0 -0.0181784)
(0.416141 0 -0.13828)
(0.410129 0 -0.136163)
(0.403031 0 -0.133575)
(0.394805 0 -0.130516)
(0.385396 0 -0.126989)
(0.374773 0 -0.123009)
(0.362853 0 -0.118563)
(0.349593 0 -0.113666)
(0.334891 0 -0.108312)
(0.318675 0 -0.1025)
(0.300901 0 -0.0962368)
(0.281488 0 -0.0895169)
(0.260353 0 -0.0823315)
(0.237412 0 -0.0746689)
(0.212582 0 -0.0665137)
(0.185781 0 -0.0578472)
(0.156929 0 -0.0486475)
(0.12595 0 -0.0388895)
(0.0927718 0 -0.028546)
(0.0573371 0 -0.0175902)
(0.0194851 0 -0.00596072)
(0.407252 0 -0.132562)
(0.401434 0 -0.130598)
(0.394553 0 -0.128187)
(0.386565 0 -0.125326)
(0.377423 0 -0.122019)
(0.36704 0 -0.118253)
(0.355385 0 -0.11404)
(0.34243 0 -0.109393)
(0.328069 0 -0.104298)
(0.312208 0 -0.09875)
(0.294776 0 -0.0927468)
(0.275734 0 -0.086293)
(0.255 0 -0.0793802)
(0.232497 0 -0.071998)
(0.208145 0 -0.0641332)
(0.181867 0 -0.05577)
(0.153588 0 -0.0468898)
(0.123237 0 -0.0374716)
(0.0907483 0 -0.0274927)
(0.0560688 0 -0.0169312)
(0.0190507 0 -0.00573379)
(0.39823 0 -0.126535)
(0.392577 0 -0.124707)
(0.385887 0 -0.122457)
(0.378111 0 -0.119778)
(0.369196 0 -0.116668)
(0.359079 0 -0.113123)
(0.347722 0 -0.109154)
(0.335043 0 -0.104744)
(0.320996 0 -0.0999034)
(0.305503 0 -0.0946272)
(0.288462 0 -0.0889052)
(0.2698 0 -0.0827329)
(0.249483 0 -0.0761128)
(0.227432 0 -0.0690352)
(0.203575 0 -0.0614891)
(0.177839 0 -0.0534613)
(0.150153 0 -0.0449364)
(0.120451 0 -0.0358971)
(0.0886728 0 -0.0263248)
(0.05477 0 -0.0162023)
(0.0186067 0 -0.00548352)
(0.389159 0 -0.120173)
(0.383645 0 -0.118469)
(0.377123 0 -0.116367)
(0.369541 0 -0.113861)
(0.360849 0 -0.110946)
(0.350994 0 -0.10762)
(0.339881 0 -0.103869)
(0.327479 0 -0.0997011)
(0.313761 0 -0.095126)
(0.298616 0 -0.0901257)
(0.281981 0 -0.084699)
(0.26375 0 -0.0788351)
(0.243855 0 -0.072528)
(0.222266 0 -0.065779)
(0.198915 0 -0.0585801)
(0.173734 0 -0.0509202)
(0.146655 0 -0.0427868)
(0.117617 0 -0.0341658)
(0.0865635 0 -0.0250424)
(0.0534519 0 -0.0154034)
(0.0181571 0 -0.00521)
(0.380122 0 -0.113441)
(0.374722 0 -0.111852)
(0.368345 0 -0.10989)
(0.360938 0 -0.107548)
(0.352446 0 -0.10482)
(0.342812 0 -0.1017)
(0.331967 0 -0.0981801)
(0.319873 0 -0.0942711)
(0.306457 0 -0.0899594)
(0.291653 0 -0.0852431)
(0.275392 0 -0.080119)
(0.257606 0 -0.0745832)
(0.238182 0 -0.0686224)
(0.217049 0 -0.0622239)
(0.19421 0 -0.0554015)
(0.169591 0 -0.0481431)
(0.143127 0 -0.0404382)
(0.114761 0 -0.0322757)
(0.0844407 0 -0.0236443)
(0.052127 0 -0.0145341)
(0.0177061 0 -0.004913)
(0.371206 0 -0.106296)
(0.3659 0 -0.104815)
(0.359648 0 -0.102989)
(0.352398 0 -0.100808)
(0.344093 0 -0.0982665)
(0.334677 0 -0.0953573)
(0.32409 0 -0.0920763)
(0.312272 0 -0.0884221)
(0.299151 0 -0.0843798)
(0.284686 0 -0.0799598)
(0.268803 0 -0.0751557)
(0.251442 0 -0.0699649)
(0.23247 0 -0.0643636)
(0.211826 0 -0.0583545)
(0.18951 0 -0.0519434)
(0.165456 0 -0.0451228)
(0.139609 0 -0.0378853)
(0.111915 0 -0.0302229)
(0.0823266 0 -0.0221276)
(0.050809 0 -0.0135927)
(0.0172583 0 -0.00459202)
(0.362503 0 -0.0986814)
(0.357273 0 -0.0973075)
(0.351129 0 -0.0956153)
(0.344018 0 -0.0935957)
(0.335885 0 -0.0912413)
(0.326673 0 -0.088546)
(0.31633 0 -0.0855062)
(0.304752 0 -0.0821045)
(0.291912 0 -0.0783481)
(0.27779 0 -0.074246)
(0.262273 0 -0.0697801)
(0.245302 0 -0.0649481)
(0.226809 0 -0.059745)
(0.206688 0 -0.054162)
(0.184879 0 -0.0481953)
(0.161381 0 -0.0418492)
(0.136142 0 -0.0351195)
(0.109112 0 -0.0280009)
(0.080246 0 -0.0204879)
(0.0495131 0 -0.0125766)
(0.0168186 0 -0.00424617)
(0.354115 0 -0.0905298)
(0.348945 0 -0.0892642)
(0.342892 0 -0.0877081)
(0.335903 0 -0.0858526)
(0.327922 0 -0.0836897)
(0.318892 0 -0.0812127)
(0.308752 0 -0.0784153)
(0.297435 0 -0.0752897)
(0.284902 0 -0.0718475)
(0.271083 0 -0.0680746)
(0.255913 0 -0.0639679)
(0.239326 0 -0.0595246)
(0.22126 0 -0.0547417)
(0.201653 0 -0.0496175)
(0.180391 0 -0.0441425)
(0.157422 0 -0.0383072)
(0.132773 0 -0.0321285)
(0.106389 0 -0.0256002)
(0.0782258 0 -0.0187187)
(0.0482557 0 -0.011482)
(0.0163927 0 -0.00387418)
(0.346152 0 -0.0817577)
(0.341029 0 -0.0806051)
(0.335053 0 -0.0791911)
(0.328171 0 -0.077507)
(0.320327 0 -0.0755455)
(0.311464 0 -0.0733002)
(0.301525 0 -0.0707659)
(0.290449 0 -0.0679384)
(0.27818 0 -0.064817)
(0.264657 0 -0.0613975)
(0.249818 0 -0.057677)
(0.233602 0 -0.0536536)
(0.215949 0 -0.0493259)
(0.196809 0 -0.0446943)
(0.176051 0 -0.0397403)
(0.153623 0 -0.0344708)
(0.12955 0 -0.0288941)
(0.103786 0 -0.0230078)
(0.076296 0 -0.0168109)
(0.0470552 0 -0.0103037)
(0.0159866 0 -0.00347434)
(0.338739 0 -0.0722624)
(0.333653 0 -0.0712313)
(0.327741 0 -0.0699692)
(0.320952 0 -0.0684686)
(0.313229 0 -0.0667225)
(0.304518 0 -0.0647256)
(0.294761 0 -0.0624733)
(0.283899 0 -0.0599621)
(0.271874 0 -0.0571896)
(0.258626 0 -0.0541535)
(0.244096 0 -0.0508522)
(0.228223 0 -0.0472843)
(0.210948 0 -0.0434487)
(0.192213 0 -0.0393443)
(0.171961 0 -0.0349688)
(0.150085 0 -0.0303197)
(0.12654 0 -0.0253973)
(0.101353 0 -0.0202081)
(0.0744911 0 -0.0147535)
(0.0459323 0 -0.00903501)
(0.0156071 0 -0.00304445)
(0.332018 0 -0.0619179)
(0.32696 0 -0.0610205)
(0.321102 0 -0.0599248)
(0.314392 0 -0.0586243)
(0.306775 0 -0.0571133)
(0.298196 0 -0.055387)
(0.2886 0 -0.0534417)
(0.277928 0 -0.0512747)
(0.266121 0 -0.0488838)
(0.253123 0 -0.0462678)
(0.238872 0 -0.0434256)
(0.223311 0 -0.0403567)
(0.206381 0 -0.0370611)
(0.188025 0 -0.0335387)
(0.168189 0 -0.0297896)
(0.146824 0 -0.0258153)
(0.123818 0 -0.0216143)
(0.0991413 0 -0.017181)
(0.0728484 0 -0.0125319)
(0.0449098 0 -0.00766743)
(0.0152619 0 -0.00258173)
(0.326156 0 -0.0505687)
(0.32112 0 -0.0498217)
(0.315305 0 -0.048912)
(0.308659 0 -0.0478344)
(0.301131 0 -0.0465842)
(0.292665 0 -0.045158)
(0.283206 0 -0.0435528)
(0.272697 0 -0.0417667)
(0.26108 0 -0.0397984)
(0.248297 0 -0.0376471)
(0.23429 0 -0.0353129)
(0.219001 0 -0.0327958)
(0.202374 0 -0.0300966)
(0.184355 0 -0.0272163)
(0.164892 0 -0.0241564)
(0.143946 0 -0.0209198)
(0.121395 0 -0.0174969)
(0.0971965 0 -0.0138975)
(0.0714073 0 -0.0101277)
(0.044013 0 -0.00619052)
(0.0149595 0 -0.00208281)
(0.32135 0 -0.0380215)
(0.316328 0 -0.0374472)
(0.310546 0 -0.0367496)
(0.303952 0 -0.0359249)
(0.296494 0 -0.03497)
(0.288119 0 -0.0338823)
(0.278771 0 -0.03266)
(0.268394 0 -0.031302)
(0.256931 0 -0.0298077)
(0.244325 0 -0.0281771)
(0.230517 0 -0.0264107)
(0.215451 0 -0.0245091)
(0.199072 0 -0.0224734)
(0.181325 0 -0.0203051)
(0.16216 0 -0.0180055)
(0.141529 0 -0.015576)
(0.119387 0 -0.0130172)
(0.095624 0 -0.010334)
(0.0702273 0 -0.00752174)
(0.043275 0 -0.00459268)
(0.0147105 0 -0.00154391)
(0.317834 0 -0.0240346)
(0.312822 0 -0.0236625)
(0.307063 0 -0.0232117)
(0.300505 0 -0.0226799)
(0.293098 0 -0.0220652)
(0.284788 0 -0.0213664)
(0.275521 0 -0.0205825)
(0.26524 0 -0.0197132)
(0.253889 0 -0.0187583)
(0.241411 0 -0.0177183)
(0.227748 0 -0.0165937)
(0.212845 0 -0.0153855)
(0.196647 0 -0.0140948)
(0.179099 0 -0.0127228)
(0.160153 0 -0.0112709)
(0.139764 0 -0.00974049)
(0.117899 0 -0.00813349)
(0.0944394 0 -0.00644621)
(0.069355 0 -0.00468837)
(0.0427297 0 -0.00285998)
(0.0145269 0 -0.00096066)
(0.315902 0 -0.00833156)
(0.310895 0 -0.00820002)
(0.305147 0 -0.00804094)
(0.298609 0 -0.00785357)
(0.291229 0 -0.00763736)
(0.282954 0 -0.00739191)
(0.27373 0 -0.00711699)
(0.263501 0 -0.00681254)
(0.252211 0 -0.00647866)
(0.239803 0 -0.00611556)
(0.22622 0 -0.00572357)
(0.211406 0 -0.00530312)
(0.195306 0 -0.00485468)
(0.177866 0 -0.0043788)
(0.159038 0 -0.00387602)
(0.138773 0 -0.00334682)
(0.117031 0 -0.00279131)
(0.0937747 0 -0.00220887)
(0.0689032 0 -0.0016071)
(0.0424308 0 -0.000979481)
(0.0144244 0 -0.000328777)
)
;

boundaryField
{
    inlet
    {
        type            cellMotion;
        value           nonuniform 0();
    }
    outlet
    {
        type            cellMotion;
        value           uniform (0 0 0);
    }
    flap
    {
        type            cellMotion;
        value           nonuniform 0();
    }
    upperWall
    {
        type            slip;
    }
    lowerWall
    {
        type            slip;
    }
    frontAndBack
    {
        type            empty;
    }
    procBoundary2to1
    {
        type            processor;
        value           nonuniform List<vector> 
17
(
(0.43861 0 -0.150817)
(0.429989 0 -0.1455)
(0.42111 0 -0.139927)
(0.412053 0 -0.134084)
(0.402896 0 -0.127948)
(0.393718 0 -0.12149)
(0.384599 0 -0.114671)
(0.375622 0 -0.107444)
(0.366876 0 -0.0997498)
(0.358458 0 -0.0915175)
(0.350477 0 -0.0826606)
(0.343053 0 -0.0730733)
(0.336328 0 -0.0626265)
(0.330466 0 -0.0511607)
(0.325661 0 -0.0384782)
(0.322148 0 -0.0243315)
(0.320218 0 -0.00843679)
)
;
    }
    procBoundary2to4
    {
        type            processor;
        value           nonuniform List<vector> 
11
(
(0.489912 0 -0.188445)
(0.490308 0 -0.187466)
(0.489438 0 -0.185755)
(0.487366 0 -0.183423)
(0.484175 0 -0.180571)
(0.479964 0 -0.177279)
(0.474812 0 -0.173606)
(0.468823 0 -0.169602)
(0.462095 0 -0.165293)
(0.454752 0 -0.160717)
(0.446891 0 -0.155888)
)
;
    }
    procBoundary2to5
    {
        type            processor;
        value           nonuniform List<vector> 
34
(
(0.47989 0 -0.181652)
(0.47111 0 -0.174469)
(0.462729 0 -0.168301)
(0.462729 0 -0.168301)
(0.452329 0 -0.161058)
(0.440857 0 -0.154745)
(0.440857 0 -0.154745)
(0.427379 0 -0.148133)
(0.427379 0 -0.148133)
(0.413605 0 -0.140821)
(0.396815 0 -0.133861)
(0.396815 0 -0.133861)
(0.380268 0 -0.126277)
(0.359926 0 -0.118785)
(0.359926 0 -0.118785)
(0.337525 0 -0.110787)
(0.337525 0 -0.110787)
(0.316065 0 -0.10257)
(0.289889 0 -0.093761)
(0.289889 0 -0.093761)
(0.261706 0 -0.0843524)
(0.261706 0 -0.0843524)
(0.234616 0 -0.0750726)
(0.202629 0 -0.0646641)
(0.202629 0 -0.0646641)
(0.168849 0 -0.0536766)
(0.168849 0 -0.0536766)
(0.135666 0 -0.0429588)
(0.0983766 0 -0.0310054)
(0.0983766 0 -0.0310054)
(0.0597423 0 -0.018695)
(0.0597423 0 -0.018695)
(0.0199067 0 -0.0061641)
(0.0199067 0 -0.0061641)
)
;
    }
}


// ************************************************************************* //
