/*--------------------------------*- C++ -*----------------------------------*\
| =========                 |                                                 |
| \\      /  F ield         | OpenFOAM: The Open Source CFD Toolbox           |
|  \\    /   O peration     | Version:  dev                                   |
|   \\  /    A nd           | Web:      www.OpenFOAM.org                      |
|    \\/     M anipulation  |                                                 |
\*---------------------------------------------------------------------------*/
FoamFile
{
    version     2.0;
    format      ascii;
    class       surfaceScalarField;
    location    "3.14";
    object      meshPhi;
}
// * * * * * * * * * * * * * * * * * * * * * * * * * * * * * * * * * * * * * //

dimensions      [0 3 -1 0 0 0 0];

internalField   nonuniform List<scalar> 
5457
(
-6.54168e-06
1.58311e-07
-1.05381e-05
4.29794e-07
-1.07168e-05
6.08598e-07
-6.86711e-06
6.84333e-07
5.91708e-07
6.60904e-07
1.08342e-05
5.489e-07
2.27988e-05
3.63725e-07
3.53287e-05
1.24598e-07
4.72869e-05
-1.46179e-07
5.76572e-05
-4.24435e-07
6.56324e-05
-6.85794e-07
7.06774e-05
-9.07719e-07
7.25607e-05
-1.0719e-06
7.13553e-05
-1.16624e-06
6.74091e-05
-1.18621e-06
6.12835e-05
-1.13559e-06
5.36677e-05
-1.02531e-06
4.52838e-05
-8.71382e-07
3.68058e-05
-6.93393e-07
2.87943e-05
-5.11289e-07
2.16164e-05
-3.47539e-07
1.54609e-05
-2.19259e-07
1.04648e-05
-1.261e-07
6.65137e-06
-6.21077e-08
3.89729e-06
-2.33849e-08
2.03928e-06
-4.03593e-09
8.98107e-07
2.75586e-09
2.95005e-07
3.21286e-09
5.84697e-08
1.84499e-09
4.04783e-10
-6.78737e-06
3.19603e-07
-1.0962e-05
8.67885e-07
-1.12502e-05
1.22977e-06
-7.45359e-06
1.38468e-06
3.92978e-09
1.34054e-06
1.0291e-05
1.11847e-06
2.23403e-05
7.49164e-07
3.49882e-05
2.70821e-07
4.7089e-05
-2.72096e-07
5.76139e-05
-8.31283e-07
6.57423e-05
-1.35789e-06
7.09277e-05
-1.80652e-06
7.2928e-05
-2.14017e-06
7.18082e-05
-2.33424e-06
6.79116e-05
-2.37901e-06
6.18024e-05
-2.28134e-06
5.41767e-05
-2.06308e-06
4.57622e-05
-1.7571e-06
3.72402e-05
-1.40282e-06
2.91798e-05
-1.04017e-06
2.19478e-05
-7.12988e-07
1.57284e-05
-4.54372e-07
1.0668e-05
-2.65095e-07
6.79858e-06
-1.34434e-07
3.99608e-06
-5.44269e-08
2.09878e-06
-1.33815e-08
9.28498e-07
2.19776e-09
3.06723e-07
4.67795e-09
6.1418e-08
2.94521e-09
6.79561e-10
-7.06996e-06
4.85081e-07
-1.14649e-05
1.31783e-06
-1.19114e-05
1.86946e-06
-8.21983e-06
2.10957e-06
-8.17263e-07
2.0502e-06
9.46175e-06
1.72309e-06
2.15484e-05
1.17391e-06
3.42797e-05
4.59338e-07
4.65072e-05
-3.54461e-07
5.71926e-05
-1.19518e-06
6.55025e-05
-1.98938e-06
7.08808e-05
-2.66927e-06
7.3073e-05
-3.17949e-06
7.213e-05
-3.48236e-06
6.83834e-05
-3.56211e-06
6.23903e-05
-3.42756e-06
5.48448e-05
-3.11082e-06
4.64737e-05
-2.66186e-06
3.79612e-05
-2.13969e-06
2.98826e-05
-1.60363e-06
2.25888e-05
-1.11645e-06
1.62624e-05
-7.25024e-07
1.10837e-05
-4.33718e-07
7.10355e-06
-2.30027e-07
4.20229e-06
-1.02574e-07
2.22282e-06
-3.43162e-08
9.90589e-07
-5.30846e-09
3.29744e-07
2.69269e-09
6.68802e-08
2.69303e-09
6.59727e-10
-7.36803e-06
6.55645e-07
-1.20152e-05
1.78242e-06
-1.26659e-05
2.53269e-06
-9.13428e-06
2.86656e-06
-1.84768e-06
2.80036e-06
8.35925e-06
2.37616e-06
2.04206e-05
1.65448e-06
3.31814e-05
7.10448e-07
4.54983e-05
-3.68849e-07
5.63302e-05
-1.488e-06
6.48357e-05
-2.54986e-06
7.04492e-05
-3.46514e-06
7.29026e-05
-4.16049e-06
7.22286e-05
-4.58465e-06
6.87409e-05
-4.71503e-06
6.29779e-05
-4.56164e-06
5.56166e-05
-4.16529e-06
4.73763e-05
-3.59072e-06
3.89402e-05
-2.91557e-06
3.0885e-05
-2.218e-06
2.35283e-05
-1.57663e-06
1.70532e-05
-1.04923e-06
1.17006e-05
-6.46889e-07
7.55375e-06
-3.59933e-07
4.50547e-06
-1.7545e-07
2.40451e-06
-7.16267e-08
1.08061e-06
-2.23766e-08
3.62303e-07
-3.89913e-09
7.41784e-08
7.4288e-10
2.93183e-10
-7.74047e-06
8.32572e-07
-1.27116e-05
2.26545e-06
-1.3631e-05
3.22579e-06
-1.03162e-05
3.66467e-06
-3.19406e-06
3.60244e-06
6.90129e-06
3.09148e-06
1.89087e-05
2.20773e-06
3.16834e-05
1.04439e-06
4.40878e-05
-2.91854e-07
5.50828e-05
-1.68413e-06
6.38252e-05
-3.01338e-06
6.97358e-05
-4.1694e-06
7.2527e-05
-5.06016e-06
7.22094e-05
-5.62048e-06
6.90736e-05
-5.82098e-06
6.36327e-05
-5.67218e-06
5.65385e-05
-5.22156e-06
4.84949e-05
-4.54552e-06
4.01817e-05
-3.73768e-06
3.2176e-05
-2.89417e-06
2.47476e-05
-2.10622e-06
1.80787e-05
-1.43906e-06
1.24945e-05
-9.14298e-07
8.12613e-06
-5.31156e-07
4.88396e-06
-2.7763e-07
2.6271e-06
-1.27811e-07
1.18938e-06
-5.0121e-08
4.00785e-07
-1.54685e-08
8.23157e-08
-2.94063e-09
-3.98484e-10
-8.19043e-06
1.01698e-06
-1.35576e-05
2.77019e-06
-1.48097e-05
3.95377e-06
-1.17687e-05
4.51028e-06
-4.86165e-06
4.46501e-06
5.08004e-06
3.88135e-06
1.70027e-05
2.85034e-06
2.97731e-05
1.48134e-06
4.22609e-05
-1.01108e-07
5.34303e-05
-1.75954e-06
6.24405e-05
-3.35417e-06
6.87001e-05
-4.75497e-06
7.1898e-05
-5.85149e-06
7.20176e-05
-6.56467e-06
6.93194e-05
-6.858e-06
6.42865e-05
-6.7407e-06
5.75416e-05
-6.26473e-06
4.97658e-05
-5.51589e-06
4.16283e-05
-4.60078e-06
3.37049e-05
-3.63146e-06
2.62041e-05
-2.70786e-06
1.93022e-05
-1.8985e-06
1.34335e-05
-1.23924e-06
8.79407e-06
-7.45748e-07
5.31592e-06
-4.10051e-07
2.87364e-06
-2.02997e-07
1.30582e-06
-8.81986e-08
4.40266e-07
-3.15804e-08
9.01252e-08
-8.0759e-09
-1.32783e-09
-8.71992e-06
1.20984e-06
-1.45552e-05
3.29931e-06
-1.62022e-05
4.72044e-06
-1.34913e-05
5.40833e-06
-6.85109e-06
5.39579e-06
2.89302e-06
4.75751e-06
1.46955e-05
3.59726e-06
2.74356e-05
2.03921e-06
3.99966e-05
2.25064e-07
5.13481e-05
-1.68918e-06
6.06486e-05
-3.5445e-06
6.72964e-05
-5.19208e-06
7.09577e-05
-6.50438e-06
7.15851e-05
-7.38897e-06
6.94025e-05
-7.80041e-06
6.48562e-05
-7.74407e-06
5.85361e-05
-7.27385e-06
5.10983e-05
-6.48283e-06
4.31924e-05
-5.48877e-06
3.53882e-05
-4.417e-06
2.78233e-05
-3.37168e-06
2.06621e-05
-2.42041e-06
1.44664e-05
-1.61666e-06
9.51629e-06
-9.99597e-07
5.77161e-06
-5.69187e-07
3.124e-06
-2.94362e-07
1.41776e-06
-1.3453e-07
4.75894e-07
-5.09896e-08
9.65865e-08
-1.41242e-08
-2.36737e-09
-9.33094e-06
1.41195e-06
-1.57068e-05
3.85508e-06
-1.78098e-05
5.52986e-06
-1.54834e-05
6.3655e-06
-9.16011e-06
6.40376e-06
3.40624e-07
5.73041e-06
1.19826e-05
4.46073e-06
2.46589e-05
2.73328e-06
3.72716e-05
7.05744e-07
4.88025e-05
-1.45014e-06
5.84064e-05
-3.55848e-06
6.54699e-05
-5.45277e-06
6.96375e-05
-6.98959e-06
7.08302e-05
-8.06324e-06
6.92319e-05
-8.61788e-06
6.52449e-05
-8.65301e-06
5.94207e-05
-8.22176e-06
5.2385e-05
-7.42164e-06
4.47631e-05
-6.37899e-06
3.71137e-05
-5.22989e-06
2.94987e-05
-4.07831e-06
2.20686e-05
-2.98775e-06
1.55221e-05
-2.0327e-06
1.02386e-05
-1.28203e-06
6.21294e-06
-7.4706e-07
3.35447e-06
-3.96253e-07
1.51356e-06
-1.85585e-07
5.03715e-07
-7.18946e-08
1.00802e-07
-2.04033e-08
-3.38782e-09
-1.00258e-05
1.62403e-06
-1.70149e-05
4.43951e-06
-1.96343e-05
6.3855e-06
-1.7746e-05
7.38717e-06
-1.17893e-05
7.49599e-06
-2.57895e-06
6.80807e-06
8.85782e-06
5.4508e-06
2.14323e-05
3.57704e-06
3.40671e-05
1.35757e-06
4.57591e-05
-1.02235e-06
5.56639e-05
-3.37193e-06
6.31562e-05
-5.50912e-06
6.78589e-05
-7.27567e-06
6.96603e-05
-8.55265e-06
6.87015e-05
-9.27327e-06
6.53369e-05
-9.42945e-06
6.00732e-05
-9.07105e-06
5.34983e-05
-8.29672e-06
4.62095e-05
-7.23788e-06
3.87516e-05
-6.03852e-06
3.11069e-05
-4.79869e-06
2.34122e-05
-3.57502e-06
1.65132e-05
-2.4662e-06
1.08975e-05
-1.57671e-06
6.59732e-06
-9.31929e-07
3.54089e-06
-5.00853e-07
1.58232e-06
-2.36805e-07
5.19806e-07
-9.21266e-08
1.01822e-07
-2.61539e-08
-4.24982e-09
-1.08077e-05
1.84667e-06
-1.84826e-05
5.05411e-06
-2.16764e-05
7.28927e-06
-2.02783e-05
8.47565e-06
-1.474e-05
8.67603e-06
-5.86722e-06
7.99627e-06
5.31876e-06
6.57559e-06
1.7747e-05
4.58117e-06
3.03658e-05
2.19473e-06
4.21877e-05
-3.87612e-07
5.23744e-05
-2.96221e-06
6.02913e-05
-5.33355e-06
6.55404e-05
-7.33002e-06
6.79759e-05
-8.82004e-06
6.76941e-05
-9.7255e-06
6.49991e-05
-1.00295e-05
6.03481e-05
-9.776e-06
5.42856e-05
-9.06176e-06
4.73767e-05
-8.01973e-06
4.01487e-05
-6.79867e-06
3.25053e-05
-5.4919e-06
2.45714e-05
-4.14728e-06
1.73445e-05
-2.88963e-06
1.1425e-05
-1.86315e-06
6.8811e-06
-1.10952e-06
3.65924e-06
-5.99106e-07
1.61303e-06
-2.83171e-07
5.20213e-07
-1.09425e-07
9.88089e-08
-3.06412e-08
-4.82146e-09
-1.16808e-05
2.0804e-06
-2.0114e-05
5.70007e-06
-2.39365e-05
8.24278e-06
-2.30775e-05
9.6329e-06
-1.80087e-05
9.94579e-06
-9.52352e-06
9.29859e-06
1.36597e-06
7.84112e-06
1.35995e-05
5.75296e-06
2.61535e-05
3.22706e-06
3.80627e-05
4.68248e-07
4.84968e-05
-2.31007e-06
5.68156e-05
-4.90114e-06
6.26012e-05
-7.1217e-06
6.56745e-05
-8.82844e-06
6.60867e-05
-9.93209e-06
6.40898e-05
-1.04058e-05
6.00882e-05
-1.02858e-05
5.45793e-05
-9.66377e-06
4.8092e-05
-8.67102e-06
4.11325e-05
-7.45782e-06
3.35354e-05
-6.10889e-06
2.54171e-05
-4.66284e-06
1.79195e-05
-3.27089e-06
1.17542e-05
-2.11835e-06
7.02283e-06
-1.26447e-06
3.68714e-06
-6.81705e-07
1.59561e-06
-3.19801e-07
5.01536e-07
-1.21715e-07
9.08733e-08
-3.31961e-08
-4.97879e-09
-1.26516e-05
2.32581e-06
-2.19155e-05
6.37868e-06
-2.64166e-05
9.24724e-06
-2.6139e-05
1.08592e-05
-2.15849e-05
1.13043e-05
-1.35418e-05
1.07147e-05
-2.99781e-06
9.24893e-06
8.99208e-06
7.09551e-06
2.14247e-05
4.4599e-06
3.33656e-05
1.55451e-06
4.3997e-05
-1.40108e-06
5.26757e-05
-4.19145e-06
5.89666e-05
-6.62353e-06
6.26586e-05
-8.54368e-06
6.37592e-05
-9.85193e-06
6.24681e-05
-1.0511e-05
5.91356e-05
-1.05479e-05
5.42095e-05
-1.00469e-05
4.81798e-05
-9.13455e-06
4.15285e-05
-7.9595e-06
3.40382e-05
-6.59714e-06
2.58223e-05
-5.07746e-06
1.81464e-05
-3.5765e-06
1.1824e-05
-2.31891e-06
6.98566e-06
-1.38158e-06
3.6048e-06
-7.39723e-07
1.5207e-06
-3.42105e-07
4.59812e-07
-1.27021e-07
7.62625e-08
-3.30985e-08
-4.55299e-09
-1.37293e-05
2.58357e-06
-2.38962e-05
7.09116e-06
-2.91155e-05
1.03018e-05
-2.94546e-05
1.21511e-05
-2.54532e-05
1.27482e-05
-1.79049e-05
1.22399e-05
-7.76278e-06
1.07949e-05
3.9319e-06
8.60752e-06
1.61827e-05
5.89376e-06
2.80879e-05
2.87465e-06
3.88516e-05
-2.26865e-07
4.78302e-05
-3.19016e-06
5.45742e-05
-5.81434e-06
5.88437e-05
-7.93702e-06
6.06044e-05
-9.44862e-06
6.00059e-05
-1.03016e-05
5.73446e-05
-1.05128e-05
5.30185e-05
-1.01573e-05
4.74775e-05
-9.35434e-06
4.11776e-05
-8.24845e-06
3.38717e-05
-6.90565e-06
2.56755e-05
-5.34866e-06
1.79465e-05
-3.77464e-06
1.15825e-05
-2.4428e-06
6.73749e-06
-1.44655e-06
3.39257e-06
-7.64508e-07
1.37583e-06
-3.45259e-07
3.87211e-07
-1.22944e-07
5.0588e-08
-2.92707e-08
-3.21993e-09
-1.49267e-05
2.85459e-06
-2.60674e-05
7.83879e-06
-3.20265e-05
1.14046e-05
-3.30117e-05
1.35041e-05
-2.95956e-05
1.42715e-05
-2.25855e-05
1.38662e-05
-1.29085e-05
1.24704e-05
-1.57073e-06
1.02836e-05
1.04371e-05
7.52581e-06
2.22331e-05
4.42679e-06
3.30516e-05
1.21376e-06
4.22544e-05
-1.89077e-06
4.93808e-05
-4.68106e-06
5.4166e-05
-6.98799e-06
5.65381e-05
-8.69387e-06
5.65995e-05
-9.74169e-06
5.45961e-05
-1.01379e-05
5.0877e-05
-9.94748e-06
4.58532e-05
-9.2809e-06
3.99539e-05
-8.27593e-06
3.29265e-05
-6.98993e-06
2.48922e-05
-5.43953e-06
1.72603e-05
-3.83744e-06
1.0989e-05
-2.47024e-06
6.24886e-06
-1.44567e-06
3.02585e-06
-7.46532e-07
1.13842e-06
-3.22556e-07
2.64857e-07
-1.05169e-07
2.25544e-09
-1.9555e-08
-1.97656e-10
-1.61186e-05
3.10875e-06
-2.83558e-05
8.57508e-06
-3.51574e-05
1.2543e-05
-3.68036e-05
1.49224e-05
-3.40049e-05
1.58753e-05
-2.75733e-05
1.55961e-05
-1.8426e-05
1.42782e-05
-7.52325e-06
1.21276e-05
4.17155e-06
9.36382e-06
1.57844e-05
6.22054e-06
2.65719e-05
2.93147e-06
3.59113e-05
-2.79475e-07
4.33354e-05
-3.20538e-06
4.856e-05
-5.67294e-06
5.14805e-05
-7.55836e-06
5.21571e-05
-8.79647e-06
5.07888e-05
-9.38397e-06
4.76802e-05
-9.37535e-06
4.32051e-05
-8.87131e-06
3.77676e-05
-8.00136e-06
3.11283e-05
-6.8145e-06
2.34148e-05
-5.32102e-06
1.60459e-05
-3.74227e-06
1.001e-05
-2.38382e-06
5.48704e-06
-1.3649e-06
2.46709e-06
-6.733e-07
7.63903e-07
-2.61827e-07
4.37438e-08
-6.17782e-08
-1.12787e-07
4.61263e-09
1.1354e-08
-2.0466e-07
-8.44068e-11
-1.07688e-06
-1.58368e-09
-3.5412e-06
-4.24276e-09
-8.46988e-06
-1.0091e-08
-1.64331e-05
-1.61067e-08
-2.75758e-05
-1.19851e-08
-4.16735e-05
1.95358e-08
-5.83081e-05
1.01112e-07
-7.69981e-05
2.53269e-07
-9.54772e-05
4.92319e-07
-0.000111875
8.26102e-07
-0.000126908
1.24866e-06
-0.000140986
1.73509e-06
-0.000153756
2.25011e-06
-0.000164806
2.75965e-06
-0.000173717
3.231e-06
-0.000180095
3.63633e-06
-0.000183597
3.94781e-06
-0.000183984
4.16079e-06
-0.000181134
4.27736e-06
-0.000175021
4.28933e-06
-0.000165728
4.20287e-06
-0.000153423
4.02551e-06
-0.000138326
3.76041e-06
-0.000120673
3.41045e-06
-0.000100686
2.97892e-06
-7.85507e-05
2.4667e-06
-5.43682e-05
1.87159e-06
-2.80586e-05
1.18784e-06
4.1409e-07
-2.10546e-07
-3.45654e-10
-1.10625e-06
-3.27607e-09
-3.61308e-06
-9.28384e-09
-8.578e-06
-2.13187e-08
-1.6539e-05
-3.23258e-08
-2.76271e-05
-2.0874e-08
-4.16182e-05
4.72757e-08
-5.80935e-05
2.14953e-07
-7.65374e-05
5.24174e-07
-9.49352e-05
1.00498e-06
-0.000111363
1.67213e-06
-0.000126356
2.51003e-06
-0.000140466
3.4696e-06
-0.000153302
4.48532e-06
-0.000164431
5.48952e-06
-0.000173419
6.41804e-06
-0.000179861
7.21632e-06
-0.000183417
7.83828e-06
-0.000183846
8.26581e-06
-0.000181021
8.49532e-06
-0.000174919
8.51911e-06
-0.000165626
8.34835e-06
-0.000153319
7.99887e-06
-0.000138219
7.47448e-06
-0.000120566
6.78017e-06
-0.000100587
5.9234e-06
-7.84677e-05
4.90593e-06
-5.43067e-05
3.72305e-06
-2.80255e-05
2.36305e-06
8.23756e-07
-2.16024e-07
-5.16677e-10
-1.13153e-06
-4.60379e-09
-3.65471e-06
-1.36374e-08
-8.57702e-06
-2.99893e-08
-1.63871e-05
-4.13122e-08
-2.7209e-05
-1.56051e-08
-4.08431e-05
9.93422e-08
-5.68949e-05
3.64993e-07
-7.4862e-05
8.41164e-07
-9.29589e-05
1.56593e-06
-0.000109291
2.55482e-06
-0.000124264
3.78899e-06
-0.000138462
5.19734e-06
-0.000151452
6.6846e-06
-0.00016277
8.15401e-06
-0.000171957
9.51317e-06
-0.000178592
1.06832e-05
-0.000182331
1.16035e-05
-0.000182924
1.22375e-05
-0.000180235
1.25755e-05
-0.000174247
1.26175e-05
-0.000165054
1.2373e-05
-0.000152838
1.18598e-05
-0.000137819
1.10855e-05
-0.000120238
1.00596e-05
-0.000100328
8.79182e-06
-7.82763e-05
7.28485e-06
-5.4177e-05
5.5314e-06
-2.7958e-05
3.5121e-06
1.2244e-06
-2.19055e-07
-5.87706e-10
-1.14141e-06
-5.26713e-09
-3.63311e-06
-1.58535e-08
-8.40955e-06
-3.26396e-08
-1.59123e-05
-3.66618e-08
-2.6269e-05
1.57704e-08
-3.93211e-05
1.92823e-07
-5.47212e-05
5.72032e-07
-7.20145e-05
1.22567e-06
-8.96043e-05
2.19382e-06
-0.000105736
3.48773e-06
-0.000120725
5.08887e-06
-0.000135067
6.90849e-06
-0.000148289
8.82507e-06
-0.000159889
1.07178e-05
-0.000169381
1.24703e-05
-0.000176323
1.39826e-05
-0.000180355
1.51788e-05
-0.000181221
1.60096e-05
-0.000178776
1.64579e-05
-0.000173006
1.65275e-05
-0.000164016
1.62242e-05
-0.000151985
1.55606e-05
-0.000137128
1.4554e-05
-0.00011969
1.32181e-05
-9.99079e-05
1.15613e-05
-7.79731e-05
9.58693e-06
-5.39785e-05
7.28393e-06
-2.78575e-05
4.62664e-06
1.61316e-06
-2.20166e-07
-5.91656e-10
-1.13676e-06
-5.33073e-09
-3.55896e-06
-1.53681e-08
-8.12274e-06
-2.71738e-08
-1.5228e-05
-1.39882e-08
-2.50077e-05
8.01821e-08
-3.73509e-05
3.36531e-07
-5.19636e-05
8.4469e-07
-6.8439e-05
1.6831e-06
-8.54012e-05
2.89137e-06
-0.000101293
4.47553e-06
-0.000116316
6.41062e-06
-0.00013083
8.59702e-06
-0.000144321
1.08945e-05
-0.000156254
1.31627e-05
-0.000166108
1.52656e-05
-0.000173419
1.70856e-05
-0.000177808
1.85326e-05
-0.000179008
1.95482e-05
-0.000176876
2.01063e-05
-0.000171393
2.02058e-05
-0.000162664
1.9853e-05
-0.000150864
1.906e-05
-0.000136216
1.78495e-05
-0.000118965
1.62329e-05
-9.93502e-05
1.42152e-05
-7.75714e-05
1.18e-05
-5.37172e-05
8.97283e-06
-2.77264e-05
5.70216e-06
1.9884e-06
-2.18543e-07
-5.1488e-10
-1.11374e-06
-4.68142e-09
-3.4328e-06
-1.14628e-08
-7.73829e-06
-1.14548e-08
-1.43901e-05
3.08689e-08
-2.35275e-05
1.82306e-07
-3.50903e-05
5.34588e-07
-4.88427e-05
1.18537e-06
-6.44303e-05
2.21518e-06
-8.07042e-05
3.65995e-06
-9.63245e-05
5.5166e-06
-0.000111374
7.75101e-06
-0.000126056
1.02584e-05
-0.000139821
1.28864e-05
-0.000152096
1.54802e-05
-0.000162331
1.78885e-05
-0.000170037
1.99793e-05
-0.000174816
2.16505e-05
-0.000176392
2.2834e-05
-0.000174614
2.34954e-05
-0.000169462
2.36266e-05
-0.000161031
2.32336e-05
-0.000149502
2.23311e-05
-0.000135103
2.09399e-05
-0.000118078
1.90698e-05
-9.86676e-05
1.67205e-05
-7.70797e-05
1.3894e-05
-5.34013e-05
1.05763e-05
-2.757e-05
6.72657e-06
2.34637e-06
-2.1362e-07
-3.00797e-10
-1.07371e-06
-2.79729e-09
-3.26622e-06
-2.75651e-09
-7.28798e-06
1.67466e-08
-1.34631e-05
1.00512e-07
-2.19408e-05
3.24463e-07
-3.27093e-05
7.8772e-07
-4.55931e-05
1.59203e-06
-6.02944e-05
2.81809e-06
-7.58716e-05
4.49414e-06
-9.11984e-05
6.60241e-06
-0.00010625
9.1006e-06
-0.000121069
1.1883e-05
-0.000135075
1.47912e-05
-0.000147667
1.76603e-05
-0.000158264
2.0328e-05
-0.000166355
2.26516e-05
-0.000171524
2.45186e-05
-0.000173483
2.58523e-05
-0.000172075
2.66101e-05
-0.000167272
2.67771e-05
-0.000159165
2.63564e-05
-0.000147935
2.5361e-05
-0.000133817
2.38087e-05
-0.000117052
2.17083e-05
-9.78714e-05
1.9056e-05
-7.64986e-05
1.58506e-05
-5.30299e-05
1.20773e-05
-2.73897e-05
7.68805e-06
2.68321e-06
-2.05785e-07
1.42184e-10
-1.02248e-06
7.86778e-10
-3.07771e-06
1.19597e-08
-6.81127e-06
5.92394e-08
-1.25198e-05
1.96436e-07
-2.03654e-05
5.06729e-07
-3.03799e-05
1.09345e-06
-4.24436e-05
2.05925e-06
-5.63132e-05
3.4829e-06
-7.12249e-05
5.38215e-06
-8.62464e-05
7.72068e-06
-0.00010126
1.0448e-05
-0.000116164
1.34613e-05
-0.000130354
1.66013e-05
-0.000143203
1.96969e-05
-0.000154111
2.25791e-05
-0.000162544
2.50975e-05
-0.000168073
2.71318e-05
-0.000170397
2.85973e-05
-0.00016935
2.94436e-05
-0.000164897
2.96492e-05
-0.000157125
2.92119e-05
-0.000146209
2.8141e-05
-0.00013239
2.64499e-05
-0.000115905
2.41444e-05
-9.69759e-05
2.12186e-05
-7.58364e-05
1.76671e-05
-5.26002e-05
1.34719e-05
-2.71843e-05
8.58238e-06
2.99702e-06
-1.96224e-07
8.77215e-10
-9.67223e-07
6.3383e-09
-2.88797e-06
3.33617e-08
-6.35153e-06
1.16958e-07
-1.16353e-05
3.18883e-07
-1.89151e-05
7.27307e-07
-2.82585e-05
1.44702e-06
-3.95938e-05
2.57909e-06
-5.27251e-05
4.19866e-06
-6.70311e-05
6.31089e-06
-8.17434e-05
8.85832e-06
-9.6672e-05
1.17819e-05
-0.000111592
1.49852e-05
-0.000125886
1.83117e-05
-0.000138912
2.15881e-05
-0.000150052
2.46422e-05
-0.000158759
2.73188e-05
-0.000164592
2.94921e-05
-0.000167239
3.10707e-05
-0.000166525
3.19969e-05
-0.000162407
3.22421e-05
-0.000154964
3.17977e-05
-0.000144367
3.06673e-05
-0.000130855
2.88596e-05
-0.00011466
2.63755e-05
-9.60009e-05
2.32057e-05
-7.51111e-05
1.93404e-05
-5.21223e-05
1.47587e-05
-2.69553e-05
9.40748e-06
3.28629e-06
-1.86547e-07
1.95543e-09
-9.1613e-07
1.41631e-08
-2.7198e-06
6.21519e-08
-5.95386e-06
1.90554e-07
-1.0882e-05
4.67328e-07
-1.76912e-05
9.83357e-07
-2.64764e-05
1.84275e-06
-3.72031e-05
3.1432e-06
-4.9714e-05
4.95475e-06
-6.34923e-05
7.26844e-06
-7.78972e-05
1.00039e-05
-9.2689e-05
1.30933e-05
-0.00010755
1.64491e-05
-0.000121858
1.99209e-05
-0.000134963
2.33361e-05
-0.00014624
2.65223e-05
-0.000155134
2.93227e-05
-0.000161196
3.16077e-05
-0.000164106
3.32806e-05
-0.000163679
3.42773e-05
-0.000159865
3.45615e-05
-0.000152734
3.41174e-05
-0.000142449
3.29421e-05
-0.000129243
3.10378e-05
-0.000113344
2.84002e-05
-9.4966e-05
2.50156e-05
-7.43424e-05
2.08697e-05
-5.16126e-05
1.59375e-05
-2.67038e-05
1.01627e-05
3.55048e-06
-1.78834e-07
3.44402e-09
-8.79118e-07
2.46645e-08
-2.59826e-06
9.92412e-08
-5.66317e-06
2.80768e-07
-1.03256e-05
6.41205e-07
-1.6779e-05
1.27222e-06
-2.51359e-05
2.27573e-06
-3.53885e-05
3.74481e-06
-4.74084e-05
5.74317e-06
-6.07452e-05
8.24623e-06
-7.48487e-05
1.11493e-05
-8.94522e-05
1.43763e-05
-0.000104177
1.78505e-05
-0.000118403
2.14305e-05
-0.000131483
2.49466e-05
-0.000142792
2.82287e-05
-0.000151775
3.11206e-05
-0.000157979
3.34914e-05
-0.000161078
3.52402e-05
-0.000160881
3.62969e-05
-0.00015733
3.66179e-05
-0.000150482
3.61797e-05
-0.000140492
3.49715e-05
-0.000127584
3.29887e-05
-0.000111979
3.02207e-05
-9.38896e-05
2.66491e-05
-7.35463e-05
2.22554e-05
-5.10829e-05
1.70088e-05
-2.64323e-05
1.08489e-05
3.79007e-06
-1.7593e-07
5.46073e-09
-8.69027e-07
3.86287e-08
-2.55211e-06
1.46351e-07
-5.52475e-06
3.89257e-07
-1.00252e-05
8.41085e-07
-1.62474e-05
1.59301e-06
-2.43116e-05
2.74366e-06
-3.42274e-05
4.38056e-06
-4.58871e-05
6.56038e-06
-5.88693e-05
9.24092e-06
-7.2678e-05
1.22913e-05
-8.70446e-05
1.56288e-05
-0.000101559
1.91906e-05
-0.000115609
2.28456e-05
-0.000128559
2.64286e-05
-0.000139793
2.97736e-05
-0.000148761
3.27276e-05
-0.000155013
3.51595e-05
-0.000158221
3.6966e-05
-0.000158189
3.80716e-05
-0.000154849
3.84256e-05
-0.000148249
3.79965e-05
-0.00013853
3.67652e-05
-0.000125905
3.47191e-05
-0.000110588
3.18415e-05
-9.27871e-05
2.81092e-05
-7.2731e-05
2.34986e-05
-5.05382e-05
1.79724e-05
-2.61474e-05
1.14671e-05
4.00607e-06
-1.83314e-07
8.37353e-09
-9.05406e-07
5.78362e-08
-2.61757e-06
2.06819e-07
-5.58793e-06
5.19694e-07
-1.00377e-05
1.07052e-06
-1.61539e-05
1.94879e-06
-2.40555e-05
3.24869e-06
-3.37647e-05
5.05237e-06
-4.51907e-05
7.41074e-06
-5.7898e-05
1.0259e-05
-7.14136e-05
1.34347e-05
-8.54981e-05
1.68556e-05
-9.97323e-05
2.04775e-05
-0.000113519
2.41783e-05
-0.000126238
2.77978e-05
-0.00013729
3.11761e-05
-0.00014614
3.41649e-05
-0.000152344
3.66349e-05
-0.000155578
3.84812e-05
-0.000155642
3.9624e-05
-0.000152459
4.00058e-05
-0.000146066
3.95868e-05
-0.00013659
3.83393e-05
-0.000124228
3.62419e-05
-0.000109186
3.32717e-05
-9.16713e-05
2.94016e-05
-7.19007e-05
2.46013e-05
-4.99793e-05
1.88281e-05
-2.58569e-05
1.20174e-05
4.19887e-06
-2.18084e-07
1.38131e-08
-1.02567e-06
8.72303e-08
-2.84898e-06
2.883e-07
-5.91754e-06
6.82205e-07
-1.04298e-05
1.34199e-06
-1.65567e-05
2.35313e-06
-2.44125e-05
3.80483e-06
-3.40338e-05
5.77648e-06
-4.53494e-05
8.31788e-06
-5.78406e-05
1.13269e-05
-7.10425e-05
1.45974e-05
-8.48024e-05
1.80698e-05
-9.86929e-05
2.17281e-05
-0.000112131
2.54488e-05
-0.000124522
2.90768e-05
-0.000135292
3.24608e-05
-0.000143924
3.54591e-05
-0.000149989
3.79455e-05
-0.000153168
3.98144e-05
-0.000153258
4.0982e-05
-0.000150178
4.13847e-05
-0.000143951
4.09747e-05
-0.000134688
3.97155e-05
-0.000122568
3.75766e-05
-0.000107789
3.45283e-05
-9.05555e-05
3.05386e-05
-7.1062e-05
2.55713e-05
-4.9408e-05
1.95796e-05
-2.55631e-05
1.25003e-05
4.36807e-06
-3.72529e-07
4.21718e-08
-1.35771e-06
1.53063e-07
-3.38376e-06
4.24658e-07
-6.64399e-06
9.15487e-07
-1.13118e-05
1.69499e-06
-1.75398e-05
2.84367e-06
-2.5441e-05
4.44687e-06
-3.50741e-05
6.58573e-06
-4.63427e-05
9.29168e-06
-5.86338e-05
1.24225e-05
-7.15196e-05
1.57693e-05
-8.49244e-05
1.92918e-05
-9.84111e-05
2.29731e-05
-0.000111416
2.66896e-05
-0.000123385
3.02983e-05
-0.000133777
3.36615e-05
-0.000142098
3.66453e-05
-0.000147937
3.91271e-05
-0.000150982
4.10014e-05
-0.000151035
4.21812e-05
-0.000148005
4.25968e-05
-0.000141904
4.21928e-05
-0.000132828
4.0924e-05
-0.000120934
3.87512e-05
-0.00010641
3.56371e-05
-8.94481e-05
3.15435e-05
-7.02223e-05
2.64286e-05
-4.88318e-05
2.02435e-05
-2.52676e-05
1.29263e-05
4.51719e-06
-1.77041e-05
3.31921e-06
-3.16151e-05
9.21959e-06
-3.98823e-05
1.364e-05
-4.24307e-05
1.63937e-05
-4.01906e-05
1.75788e-05
-3.41623e-05
1.74473e-05
-2.52788e-05
1.62365e-05
-1.44998e-05
1.41568e-05
-2.77418e-06
1.14277e-05
9.00863e-06
8.28052e-06
2.00842e-05
4.95272e-06
2.98256e-05
1.67069e-06
3.77488e-05
-1.35909e-06
4.35441e-05
-3.962e-06
4.70751e-05
-6.01029e-06
4.83666e-05
-7.43214e-06
4.75825e-05
-8.21543e-06
4.49974e-05
-8.40456e-06
4.09647e-05
-8.09004e-06
3.58796e-05
-7.39213e-06
2.95216e-05
-6.35189e-06
2.20246e-05
-4.97172e-06
1.48231e-05
-3.47163e-06
8.94208e-06
-2.16672e-06
4.57433e-06
-1.18643e-06
1.71419e-06
-5.24927e-07
1.68309e-07
-1.39046e-07
-4.09374e-07
3.80495e-08
-4.49631e-07
8.33353e-08
7.49879e-08
-2.63324e-07
-1.88392e-05
3.50993e-06
-3.40921e-05
9.77661e-06
-4.40042e-05
1.45965e-05
-4.79472e-05
1.78e-05
-4.65262e-05
1.93481e-05
-4.10512e-05
1.94221e-05
-3.26425e-05
1.834e-05
-2.22422e-05
1.63637e-05
-1.07631e-05
1.37088e-05
9.24771e-07
1.05998e-05
1.20453e-05
7.27246e-06
2.19699e-05
3.95545e-06
3.02101e-05
8.54356e-07
3.64398e-05
-1.85708e-06
4.04972e-05
-4.04905e-06
4.23751e-05
-5.64476e-06
4.22041e-05
-6.62448e-06
4.02291e-05
-7.0233e-06
3.67812e-05
-6.92213e-06
3.22426e-05
-6.43248e-06
2.64333e-05
-5.5905e-06
1.94595e-05
-4.38366e-06
1.2693e-05
-3.01267e-06
7.17377e-06
-1.79769e-06
3.10403e-06
-8.82021e-07
4.78874e-07
-2.65774e-07
-8.96497e-07
9.01898e-08
-1.36207e-06
2.49806e-07
-1.33604e-06
2.88171e-07
2.83143e-07
-1.22505e-06
-1.99533e-05
3.69833e-06
-3.63089e-05
1.03065e-05
-4.76334e-05
1.54352e-05
-5.33441e-05
1.90182e-05
-5.33455e-05
2.1028e-05
-4.86575e-05
2.1466e-05
-4.07839e-05
2.05773e-05
-3.08619e-05
1.87294e-05
-1.97415e-05
1.61863e-05
-8.25368e-06
1.31534e-05
2.81429e-06
9.86349e-06
1.283e-05
6.54791e-06
2.13044e-05
3.40911e-06
2.79e-05
6.18111e-07
3.24344e-05
-1.69502e-06
3.48743e-05
-3.45006e-06
3.53219e-05
-4.62087e-06
3.39967e-05
-5.23423e-06
3.12125e-05
-5.36255e-06
2.7347e-05
-5.11157e-06
2.22977e-05
-4.52537e-06
1.60269e-05
-3.55616e-06
9.78789e-06
-2.34842e-06
4.70317e-06
-1.2418e-06
9.58823e-07
-4.06406e-07
-1.44924e-06
1.57933e-07
-2.71344e-06
4.84992e-07
-3.16113e-06
6.35523e-07
-3.19754e-06
6.8179e-07
7.0027e-07
-3.2211e-06
-2.11395e-05
3.88076e-06
-3.85816e-05
1.08253e-05
-5.09933e-05
1.62379e-05
-5.82088e-05
2.0092e-05
-6.00735e-05
2.24816e-05
-5.68242e-05
2.34026e-05
-4.97262e-05
2.28891e-05
-4.0369e-05
2.12464e-05
-2.9716e-05
1.88476e-05
-1.85175e-05
1.59245e-05
-7.59874e-06
1.27042e-05
2.41418e-06
9.42575e-06
1.10379e-05
6.28341e-06
1.79272e-05
3.44311e-06
2.28851e-05
1.03382e-06
2.58561e-05
-8.62069e-07
2.69187e-05
-2.21283e-06
2.62698e-05
-3.0373e-06
2.42078e-05
-3.39906e-06
2.11113e-05
-3.39758e-06
1.69953e-05
-3.09128e-06
1.16037e-05
-2.41359e-06
5.95997e-06
-1.42985e-06
1.31114e-06
-4.55389e-07
-2.12779e-06
2.98599e-07
-4.36353e-06
8.08599e-07
-5.59423e-06
1.10776e-06
-6.14272e-06
1.25708e-06
-6.40493e-06
1.32496e-06
1.38343e-06
-6.72479e-06
-2.23959e-05
4.05613e-06
-4.10114e-05
1.13259e-05
-5.44924e-05
1.70233e-05
-6.28346e-05
2.11233e-05
-6.62858e-05
2.37674e-05
-6.49543e-05
2.50785e-05
-5.92972e-05
2.50705e-05
-5.08041e-05
2.38436e-05
-4.07204e-05
2.16866e-05
-2.9875e-05
1.88955e-05
-1.92028e-05
1.57699e-05
-9.29009e-06
1.25644e-05
-6.04127e-07
9.45289e-06
6.50393e-06
6.59421e-06
1.18275e-05
4.11565e-06
1.52925e-05
2.10079e-06
1.69551e-05
5.86891e-07
1.69891e-05
-4.36415e-07
1.5669e-05
-1.02114e-06
1.33528e-05
-1.2514e-06
1.01297e-05
-1.17643e-06
5.73498e-06
-7.65269e-07
8.81583e-07
-7.552e-08
-3.2894e-06
6.73469e-07
-6.44294e-06
1.30026e-06
-8.55374e-06
1.74491e-06
-9.81928e-06
2.01805e-06
-1.05693e-05
2.17071e-06
-1.11725e-05
2.26633e-06
2.3692e-06
-1.18764e-05
-2.37293e-05
4.22307e-06
-4.35964e-05
1.18046e-05
-5.82474e-05
1.77799e-05
-6.76894e-05
2.2132e-05
-7.23166e-05
2.5004e-05
-7.26136e-05
2.6563e-05
-6.88392e-05
2.69396e-05
-6.17997e-05
2.62086e-05
-5.26432e-05
2.44931e-05
-4.23448e-05
2.19982e-05
-3.19998e-05
1.90347e-05
-2.22924e-05
1.59309e-05
-1.3632e-05
1.2885e-05
-6.38464e-06
1.00389e-05
-7.5748e-07
7.5195e-06
3.15566e-06
5.41039e-06
5.38944e-06
3.75538e-06
6.09052e-06
2.55268e-06
5.49722e-06
1.76359e-06
3.91376e-06
1.32383e-06
1.42637e-06
1.19925e-06
-2.01808e-06
1.38471e-06
-5.89601e-06
1.79307e-06
-9.42338e-06
2.26757e-06
-1.22557e-05
2.69834e-06
-1.42857e-05
3.03785e-06
-1.56426e-05
3.2727e-06
-1.66373e-05
3.42572e-06
-1.76075e-05
3.54465e-06
3.68429e-06
-1.8701e-05
-2.51442e-05
4.37999e-06
-4.63452e-05
1.22567e-05
-6.22508e-05
1.85003e-05
-7.28981e-05
2.31018e-05
-7.86693e-05
2.62126e-05
-8.01704e-05
2.79945e-05
-7.7976e-05
2.86164e-05
-7.26078e-05
2.82241e-05
-6.49461e-05
2.69711e-05
-5.57535e-05
2.49839e-05
-4.59908e-05
2.24008e-05
-3.65907e-05
1.9494e-05
-2.80397e-05
1.65399e-05
-2.07425e-05
1.37361e-05
-1.48783e-05
1.12061e-05
-1.05739e-05
9.02912e-06
-7.81414e-06
7.25945e-06
-6.48072e-06
5.90189e-06
-6.37764e-06
4.92975e-06
-7.26015e-06
4.29495e-06
-9.03134e-06
3.96219e-06
-1.16053e-05
3.91154e-06
-1.45371e-05
4.06518e-06
-1.73216e-05
4.29654e-06
-1.9747e-05
4.52722e-06
-2.16969e-05
4.73358e-06
-2.3216e-05
4.90785e-06
-2.44913e-05
5.05384e-06
-2.58001e-05
5.19063e-06
5.35513e-06
-2.72225e-05
-2.66432e-05
4.5251e-06
-4.92629e-05
1.26772e-05
-6.65092e-05
1.91764e-05
-7.84489e-05
2.4022e-05
-8.54747e-05
2.7373e-05
-8.81635e-05
2.93965e-05
-8.72094e-05
3.02606e-05
-8.3242e-05
3.0126e-05
-7.71425e-05
2.91878e-05
-6.94984e-05
2.76281e-05
-6.08451e-05
2.5536e-05
-5.2064e-05
2.30324e-05
-4.3828e-05
2.03349e-05
-3.65693e-05
1.76485e-05
-3.05338e-05
1.51288e-05
-2.5911e-05
1.29091e-05
-2.26896e-05
1.10561e-05
-2.0777e-05
9.57291e-06
-2.00192e-05
8.44272e-06
-2.02197e-05
7.6311e-06
-2.12335e-05
7.09775e-06
-2.2939e-05
6.80702e-06
-2.50055e-05
6.70206e-06
-2.70821e-05
6.70223e-06
-2.90414e-05
6.75115e-06
-3.08357e-05
6.82609e-06
-3.24957e-05
6.92085e-06
-3.40807e-05
7.0383e-06
-3.57573e-05
7.18591e-06
7.38283e-06
-3.75241e-05
-2.82271e-05
4.6564e-06
-5.23511e-05
1.30602e-05
-7.10249e-05
1.97991e-05
-8.43451e-05
2.48802e-05
-9.27169e-05
2.84697e-05
-9.6718e-05
3.07393e-05
-9.70252e-05
3.18595e-05
-9.43361e-05
3.1999e-05
-8.95091e-05
3.1336e-05
-8.32422e-05
3.00594e-05
-7.59359e-05
2.83164e-05
-6.82281e-05
2.62331e-05
-6.07224e-05
2.3949e-05
-5.37818e-05
2.15725e-05
-4.77318e-05
1.92061e-05
-4.28674e-05
1.70007e-05
-3.92736e-05
1.50936e-05
-3.68555e-05
1.35189e-05
-3.55057e-05
1.22599e-05
-3.5065e-05
1.12955e-05
-3.5336e-05
1.05776e-05
-3.6179e-05
1.00569e-05
-3.74218e-05
9.70436e-06
-3.8845e-05
9.48522e-06
-4.03461e-05
9.36045e-06
-4.19027e-05
9.30605e-06
-4.3545e-05
9.31046e-06
-4.53309e-05
9.37355e-06
-4.73538e-05
9.5015e-06
9.70057e-06
-4.94682e-05
-2.98951e-05
4.77172e-06
-5.56084e-05
1.33996e-05
-7.5796e-05
2.03583e-05
-9.05844e-05
2.56628e-05
-0.000100392
2.94854e-05
-0.000105799
3.20015e-05
-0.000107475
3.33835e-05
-0.000106134
3.38019e-05
-0.000102537
3.34283e-05
-9.74107e-05
3.24328e-05
-9.12706e-05
3.09649e-05
-8.47097e-05
2.91808e-05
-7.81868e-05
2.7231e-05
-7.20149e-05
2.52258e-05
-6.63627e-05
2.32057e-05
-6.14711e-05
2.11983e-05
-5.76097e-05
1.93211e-05
-5.47736e-05
1.76845e-05
-5.29184e-05
1.63263e-05
-5.19014e-05
1.52364e-05
-5.14802e-05
1.43565e-05
-5.1512e-05
1.3627e-05
-5.19941e-05