/*--------------------------------*- C++ -*----------------------------------*\
| =========                 |                                                 |
| \\      /  F ield         | OpenFOAM: The Open Source CFD Toolbox           |
|  \\    /   O peration     | Version:  dev                                   |
|   \\  /    A nd           | Web:      www.OpenFOAM.org                      |
|    \\/     M anipulation  |                                                 |
\*---------------------------------------------------------------------------*/
FoamFile
{
    version     2.0;
    format      ascii;
    class       volVectorField;
    location    "3.14";
    object      U;
}
// * * * * * * * * * * * * * * * * * * * * * * * * * * * * * * * * * * * * * //

dimensions      [0 1 -1 0 0 0 0];

internalField   nonuniform List<vector> 
2790
(
(9.94581 5.89956e-22 0.0196227)
(9.86962 6.08541e-22 0.0284253)
(9.76069 -1.25472e-21 0.0346574)
(9.63092 0 0.0409589)
(9.48425 0 0.0474298)
(9.32036 5.61791e-21 0.0540308)
(9.13871 -5.79151e-21 0.0608904)
(8.939 0 0.0681623)
(8.7209 0 0.0759764)
(8.48382 -1.31574e-20 0.084454)
(8.22694 1.35609e-20 0.0937097)
(7.94931 0 0.103857)
(7.64985 3.70822e-21 0.115024)
(7.32743 0 0.127346)
(6.98086 3.26247e-20 0.140943)
(6.60894 -3.36545e-20 0.155906)
(6.21069 0 0.172314)
(5.78536 1.85455e-20 0.190229)
(5.33246 1.94147e-20 0.209651)
(4.85203 0 0.230478)
(4.34485 4.25272e-20 0.252482)
(3.81268 -1.7685e-19 0.275257)
(3.25852 4.64194e-20 0.298151)
(2.68698 -1.94377e-19 0.320135)
(2.10466 -2.03309e-19 0.33956)
(1.52075 4.15043e-19 0.353659)
(0.947521 0 0.357185)
(0.40594 1.0966e-19 0.334553)
(-0.156804 0 0.113197)
(-0.14748 9.21917e-19 -0.310384)
(10.0062 0 0.0395822)
(9.98688 4.84055e-21 0.0602513)
(9.93704 -5.01637e-21 0.0760645)
(9.86492 -1.03758e-20 0.0924903)
(9.77329 0 0.109759)
(9.66201 2.23819e-20 0.127709)
(9.53074 -2.30585e-20 0.146587)
(9.37929 0 0.166727)
(9.20735 0 0.188418)
(9.01439 0 0.21193)
(8.79967 -5.44365e-20 0.237513)
(8.56227 5.60655e-20 0.265413)
(8.30113 -3.67606e-21 0.295902)
(8.0151 0 0.329249)
(7.70298 -1.29016e-19 0.365665)
(7.3635 1.4967e-19 0.405259)
(6.99549 1.40909e-19 0.448045)
(6.59806 1.31069e-19 0.493942)
(6.17052 -6.31043e-19 0.542668)
(5.71259 -4.41873e-20 0.593618)
(5.22464 3.73792e-20 0.645772)
(4.70792 0 0.697577)
(4.16483 7.77196e-19 0.746791)
(3.59935 -8.75642e-20 0.790225)
(3.01739 -7.83839e-19 0.823258)
(2.42755 6.13202e-19 0.838964)
(1.84211 -8.36709e-19 0.825916)
(1.27847 -1.82522e-18 0.760884)
(0.723645 1.95942e-18 0.584989)
(0.477146 0 0.205295)
(10.0034 0 0.0421401)
(9.9813 -2.9059e-20 0.0723366)
(9.93387 1.00183e-20 0.0984702)
(9.86688 2.07909e-20 0.125559)
(9.7818 1.20377e-22 0.154129)
(9.67857 -2.21852e-20 0.184068)
(9.55716 4.63597e-20 0.2157)
(9.4175 -9.58892e-20 0.249501)
(9.25935 4.6465e-20 0.285909)
(9.0823 -4.04101e-22 0.325341)
(8.8858 1.11732e-19 0.368207)
(8.66906 -1.11551e-19 0.414935)
(8.4311 0 0.465989)
(8.17092 0 0.521819)
(7.88744 0 0.582809)
(7.57944 -2.83775e-19 0.649216)
(7.24562 2.75132e-19 0.721125)
(6.88487 -3.27342e-19 0.798442)
(6.49623 3.00018e-19 0.880788)
(6.07892 -5.95387e-19 0.967303)
(5.63249 1.23386e-18 1.05644)
(5.15707 6.82144e-19 1.14575)
(4.65349 6.28889e-19 1.23167)
(4.12364 -6.46306e-19 1.3091)
(3.57054 1.54734e-18 1.37069)
(2.99835 -1.38929e-18 1.40575)
(2.41153 2.04915e-19 1.39837)
(1.81525 -2.10124e-19 1.32285)
(1.17052 3.00685e-18 1.14547)
(0.686348 -3.38647e-18 0.814411)
(10.0017 0 0.0471933)
(9.97721 9.67128e-21 0.0884928)
(9.9297 -1.00498e-20 0.126289)
(9.86404 3.09982e-20 0.164327)
(9.78073 -4.2972e-20 0.203703)
(9.67973 4.42603e-20 0.244673)
(9.56128 0 0.287755)
(9.42546 0 0.3336)
(9.27212 3.10332e-21 0.382809)
(9.10108 1.04065e-19 0.435949)
(8.91203 -1.06676e-19 0.493601)
(8.70435 0 0.556393)
(8.47733 0 0.624974)
(8.23028 -2.28464e-19 0.699956)
(7.96247 2.19139e-19 0.781907)
(7.673 0 0.871304)
(7.36083 0 0.968414)
(7.02491 3.58145e-20 1.07323)
(6.66425 0 1.18543)
(6.27795 7.74702e-20 1.30412)
(5.86512 6.51757e-19 1.42763)
(5.42487 -1.68013e-19 1.55313)
(4.95651 1.58444e-18 1.67634)
(4.45951 -1.4488e-18 1.79112)
(3.93334 0 1.88877)
(3.37684 1.94323e-19 1.95707)
(2.78652 3.02238e-18 1.97947)
(2.15902 -3.08517e-18 1.93361)
(1.4425 -3.37644e-18 1.80314)
(0.810438 3.32995e-18 1.54478)
(10.0009 3.74644e-20 0.0537745)
(9.97511 -3.85762e-20 0.104734)
(9.92749 0 0.152845)
(9.86295 0 0.200862)
(9.78133 2.13423e-20 0.250254)
(9.68251 0 0.301646)
(9.56678 -1.1457e-20 0.355745)
(9.43422 -1.18828e-20 0.413313)
(9.28476 -6.16597e-21 0.475024)
(9.11836 0 0.541527)
(8.9348 -3.33643e-21 0.613533)
(8.73358 0 0.691817)
(8.51417 -1.4386e-20 0.777132)
(8.27611 2.11555e-19 0.870177)
(8.01887 -2.17075e-19 0.971651)
(7.74184 -5.56344e-19 1.08221)
(7.4443 1.08432e-18 1.20231)
(7.12541 -5.60995e-19 1.33212)
(6.7842 0 1.47137)
(6.41976 -7.67391e-20 1.6193)
(6.031 0 1.77437)
(5.61637 1.66029e-19 1.9338)
(5.17393 -1.72391e-19 2.09327)
(4.70115 -1.43123e-18 2.24649)
(4.19457 1.46794e-18 2.38467)
(3.64907 -3.43779e-18 2.49596)
(3.05634 3.12979e-18 2.56529)
(2.41054 0 2.57352)
(1.65856 2.06891e-19 2.51187)
(0.928831 3.48527e-18 2.34124)
(10.0006 -7.35652e-23 0.061042)
(9.97421 3.85492e-20 0.120948)
(9.92676 0 0.178874)
(9.86356 0 0.236769)
(9.78409 -2.13167e-20 0.296111)
(9.68798 0 0.357796)
(9.57541 1.14374e-20 0.422743)
(9.44653 1.18591e-20 0.49178)
(9.30139 1.22852e-20 0.565603)
(9.14001 0 0.644949)
(8.96218 0 0.730679)
(8.76747 2.21367e-19 0.823703)
(8.55552 1.69263e-20 0.924869)
(8.32589 -2.36421e-19 1.03496)
(8.07814 -4.66937e-19 1.15476)
(7.81179 1.06141e-18 1.28509)
(7.52631 -5.98544e-19 1.42657)
(7.22108 5.60064e-19 1.57957)
(6.8952 -1.66764e-18 1.74402)
(6.54752 2.40568e-18 1.91935)
(6.17674 -1.39751e-18 2.10431)
(5.78088 0 2.29651)
(5.35711 1.67077e-19 2.49204)
(4.90149 0 2.68518)
(4.40856 -2.88723e-18 2.8679)
(3.87091 3.14226e-18 3.02933)
(3.27793 3.0674e-18 3.15593)
(2.62403 -3.13495e-18 3.22917)
(1.8616 0 3.23859)
(1.05707 1.05459e-19 3.14848)
(10.0007 -2.8013e-20 0.0685838)
(9.97408 -2.88243e-20 0.137094)
(9.92708 1.98146e-20 0.204371)
(9.86562 -4.1125e-20 0.271768)
(9.78881 8.49077e-20 0.34069)
(9.69576 2.2408e-20 0.41229)
(9.58676 -1.82027e-19 0.487689)
(9.46215 8.21731e-20 0.567742)
(9.32204 -6.11845e-21 0.65317)
(9.16641 0 0.744836)
(8.99504 2.11859e-19 0.843746)
(8.80756 -4.29978e-19 0.950903)
(8.60372 2.25513e-19 1.06724)
(8.38313 1.47526e-20 1.19364)
(8.14529 -1.87738e-22 1.33098)
(7.88981 0 1.48017)
(7.61617 4.87454e-22 1.64197)
(7.32381 0 1.817)
(7.01189 -1.21519e-18 2.0055)
(6.67899 1.17309e-18 2.20719)
(6.32346 3.05664e-19 2.42125)
(5.94296 1.26031e-18 2.6459)
(5.53394 -1.89855e-21 2.87798)
(5.09152 -2.72077e-18 3.11271)
(4.60904 5.41748e-18 3.34319)
(4.0778 -2.69246e-18 3.55961)
(3.48602 -1.84075e-19 3.74906)
(2.82858 0 3.89202)
(2.0672 0 3.97016)
(1.19686 1.00535e-19 3.94887)
(10.0008 9.30431e-21 0.0761646)
(9.97446 9.60294e-21 0.153032)
(9.92834 -1.97484e-20 0.229185)
(9.86899 0 0.305605)
(9.79514 -4.22109e-20 0.383742)
(9.70545 -6.58488e-20 0.464937)
(9.60047 9.02574e-20 0.550379)
(9.48079 1.17394e-20 0.640949)
(9.34644 0 0.737463)
(9.19731 0 0.840931)
(9.03317 -2.10141e-19 0.952462)
(8.85377 2.05226e-19 1.07312)
(8.65891 0 1.20392)
(8.44822 -1.45018e-20 1.34587)
(8.22125 -5.46011e-19 1.49995)
(7.97759 4.98162e-19 1.66716)
(7.71666 6.51765e-20 1.84845)
(7.43779 1.08269e-18 2.04465)
(7.14004 -1.17886e-18 2.25637)
(6.82185 -1.16103e-18 2.48381)
(6.48124 -1.62225e-19 2.72668)
(6.11543 -2.31679e-18 2.98397)
(5.72025 1.10911e-18 3.25347)
(5.29005 0 3.53157)
(4.81737 1.70581e-19 3.81264)
(4.2926 -2.80117e-18 4.08782)
(3.70296 5.83094e-18 4.34415)
(3.04242 1.14785e-20 4.56067)
(2.28396 -3.02538e-18 4.70794)
(1.34863 -2.01636e-19 4.74946)
(10.001 0 0.0836362)
(9.97524 1.91002e-20 0.168583)
(9.93049 -9.84934e-20 0.253157)
(9.87348 8.13055e-20 0.338146)
(9.80272 1.29916e-22 0.425137)
(9.71675 0 0.515542)
(9.61642 0 0.610523)
(9.50229 0 0.711047)
(9.37426 0 0.818095)
(9.23225 0 0.932799)
(9.07611 2.14333e-19 1.05632)
(8.90565 -2.10006e-19 1.18978)
(8.72069 -4.46301e-19 1.33428)
(8.52091 4.7217e-19 1.49095)
(8.30593 2.29328e-22 1.66089)
(8.07527 -3.06978e-20 1.84527)
(7.82832 0 2.0452)
(7.56424 1.06211e-18 2.26181)
(7.28193 -1.0185e-18 2.49609)
(6.9797 -1.064e-18 2.74878)
(6.65528 1.23201e-18 3.02029)
(6.30548 -7.66787e-20 3.31054)
(5.92558 -7.6702e-20 3.61848)
(5.5092 0 3.9418)
(5.04804 0 4.27631)
(4.53147 2.61e-18 4.61423)
(3.94531 5.58464e-20 4.94249)
(3.2802 -2.83758e-18 5.23856)
(2.52093 1.67715e-20 5.46085)
(1.51528 -3.07703e-18 5.56841)
(10.0012 -7.37523e-20 0.0908992)
(9.97632 0 0.183577)
(9.93335 1.19926e-22 0.276146)
(9.87886 -1.29467e-22 0.369301)
(9.81138 4.19562e-20 0.464729)
(9.72963 0 0.563847)
(9.63445 0 0.667804)
(9.5263 -2.30951e-20 0.777717)
(9.40509 1.92291e-19 0.894731)
(9.2708 -1.97411e-19 1.02004)
(9.12336 -2.12349e-19 1.15485)
(8.96264 2.14539e-19 1.30033)
(8.78851 1.70849e-21 1.45768)
(8.6007 4.56258e-19 1.62814)
(8.39885 -4.37955e-19 1.813)
(8.18248 3.04764e-20 2.01356)
(7.95092 9.76724e-19 2.23118)
(7.70327 -1.03103e-18 2.46731)
(7.43827 -6.63579e-20 2.72336)
(7.15414 -1.17518e-18 3.00068)
(6.84835 1.05795e-18 3.30047)
(6.51738 -7.34394e-20 3.62375)
(6.15609 7.54836e-20 3.97089)
(5.75741 0 4.34119)
(5.31195 -2.52451e-18 4.73217)
(4.80758 2.45605e-18 5.13767)
(4.22792 6.22743e-20 5.5452)
(3.55738 0 5.93127)
(2.79088 -6.52305e-20 6.24243)
(1.70359 2.25474e-20 6.43052)
(10.0015 -1.81706e-20 0.0978806)
(9.97762 1.89137e-20 0.197885)
(9.93669 3.91379e-20 0.29803)
(9.88496 -4.04202e-20 0.398945)
(9.82111 0 0.502331)
(9.74402 8.63401e-20 0.609617)
(9.6543 -1.3312e-19 0.721996)
(9.55248 1.07354e-22 0.840725)
(9.43857 -1.90758e-19 0.967074)
(9.31256 3.92961e-19 1.10229)
(9.17448 -6.22666e-19 1.24759)
(9.02426 4.14732e-19 1.40422)
(8.86182 -1.70006e-21 1.57348)
(8.68695 0 1.75673)
(8.49935 0 1.95542)
(8.29855 1.48375e-20 2.17104)
(8.0839 1.56337e-20 2.40521)
(7.85448 -3.14935e-20 2.65971)
(7.60901 1.11343e-18 2.93643)
(7.34565 -2.57242e-20 3.23735)
(7.06177 -1.13219e-18 3.5646)
(6.75364 0 3.92039)
(6.41592 2.31694e-18 4.30683)
(6.04097 -2.35974e-18 4.72525)
(5.61817 0 5.17553)
(5.13338 -2.43196e-18 5.65428)
(4.5669 -1.73101e-20 6.15123)
(3.89351 5.901e-21 6.64413)
(3.11383 2.70529e-18 7.06966)
(1.92678 -2.21702e-20 7.37049)
(10.0018 1.282e-19 0.104523)
(9.97909 -5.64068e-20 0.211425)
(9.94036 0 0.3187)
(9.89166 0 0.426924)
(9.83179 4.1367e-20 0.537755)
(9.75967 -4.27035e-20 0.652668)
(9.67574 8.83804e-20 0.772919)
(9.58063 -1.60257e-19 0.89985)
(9.47444 1.87943e-19 1.03484)
(9.35722 2.42578e-20 1.17918)
(9.22909 -1.24356e-20 1.33413)
(9.09004 0 1.50097)
(8.94006 4.16514e-19 1.6811)
(8.77902 -4.33078e-19 1.87603)
(8.6067 0 2.08733)
(8.42269 -1.4731e-20 2.3167)
(8.22644 9.83805e-19 2.56603)
(8.0171 -9.42179e-19 2.83742)
(7.7935 0 3.13324)
(7.5539 4.90773e-20 3.45618)
(7.29576 3.36967e-20 3.80929)
(7.01541 0 4.19613)
(6.70758 0 4.62072)
(6.36446 -2.26291e-18 5.08703)
(5.97457 2.28879e-18 5.59827)
(5.52159 2.37744e-18 6.15565)
(4.98158 -4.759e-18 6.75436)
(4.31612 4.85098e-18 7.37839)
(3.52388 -2.78677e-20 7.9611)
(2.21116 -2.64396e-18 8.44077)
(10.0022 -7.30721e-20 0.110782)
(9.98068 7.51633e-20 0.22414)
(9.94429 0 0.338063)
(9.8989 0 0.453096)
(9.84326 -4.13014e-20 0.570846)
(9.77635 4.26257e-20 0.692834)
(9.69858 -8.77752e-20 0.820377)
(9.61055 1.81692e-19 0.954867)
(9.51244 -1.86397e-19 1.09776)
(9.40446 -2.41789e-20 1.25041)
(9.2868 1.74598e-22 1.41409)
(9.15951 2.55278e-20 1.59014)
(9.02264 1.32604e-20 1.78004)
(8.8762 4.29866e-19 1.98542)
(8.72006 -4.60297e-19 2.20797)
(8.55396 0 2.44959)
(8.37749 -3.67083e-21 2.7124)
(8.19003 9.6115e-19 2.99881)
(7.99061 -1.99058e-18 3.31165)
(7.7778 9.97602e-19 3.65426)
(7.54945 0 4.03065)
(7.30234 0 4.44571)
(7.03175 -2.13985e-18 4.90549)
(6.73047 4.33313e-18 5.41699)
(6.38724 -4.29807e-18 5.9879)
(5.98464 4.45174e-18 6.62632)
(5.49517 -2.24082e-18 7.33796)
(4.86509 0 8.12316)
(4.08154 0 8.93039)
(2.61094 3.78094e-20 9.72778)
(10.0026 1.81611e-20 0.116619)
(9.9824 1.87186e-20 0.235975)
(9.94845 -3.84731e-20 0.356035)
(9.90655 0 0.47735)
(9.85535 0 0.601482)
(9.79389 -8.47024e-20 0.729963)
(9.7226 1.30659e-19 0.864177)
(9.64196 -1.35407e-19 1.00557)
(9.55226 1.84812e-19 1.15562)
(9.45393 0 1.31572)
(9.34719 4.19322e-19 1.48717)
(9.23213 -4.54594e-19 1.67137)
(9.10893 4.18183e-19 1.86987)
(8.97771 -4.2748e-19 2.08436)
(8.8385 1.38388e-20 2.31668)
(8.69126 0 2.56884)
(8.5358 -1.07368e-20 2.84316)
(8.37179 -3.73117e-21 3.14233)
(8.19866 3.38309e-20 3.46954)
(8.01547 9.57274e-19 3.8287)
(7.82079 -3.55484e-23 4.2246)
(7.61232 1.01855e-18 4.66336)
(7.38665 -1.08923e-18 5.15289)
(7.13836 3.10254e-18 5.70319)
(6.85846 -4.22121e-18 6.32698)
(6.53167 4.20881e-18 7.04101)
(6.13194 -4.24591e-18 7.86696)
(5.59564 7.19695e-20 8.83675)
(4.89699 4.02956e-18 9.95879)
(3.24318 -2.04826e-18 11.395)
(10.0031 -7.21022e-20 0.122002)
(9.98424 -7.41421e-20 0.246884)
(9.95279 0 0.372561)
(9.9145 0 0.499605)
(9.86794 0 0.629546)
(9.81213 -8.41218e-20 0.763906)
(9.7475 4.32108e-20 0.904138)
(9.67451 1.34006e-19 1.05173)
(9.59356 -1.83205e-19 1.20815)
(9.50522 0 1.3748)
(9.40972 -4.84506e-20 1.55302)
(9.30725 5.00213e-20 1.74427)
(9.19813 0 1.95013)
(9.08262 0 2.17233)
(8.96095 2.69161e-20 2.41278)
(8.8333 0 2.6736)
(8.69979 1.42813e-20 2.95723)
(8.56049 -9.2767e-19 3.26653)
(8.41532 9.13856e-19 3.60496)
(8.26406 9.89555e-19 3.97676)
(8.10627 -1.0339e-18 4.3873)
(7.94107 0 4.84349)
(7.76715 6.26741e-20 5.35453)
(7.58233 0 5.93265)
(7.3827 -9.73642e-19 6.59458)
(7.16092 8.60872e-19 7.36481)
(6.90474 1.22734e-19 8.28117)
(6.56799 -9.86211e-19 9.41388)
(6.17174 8.99798e-19 10.8843)
(4.34912 -1.04391e-19 13.7876)
(0.0548445 4.69066e-20 -0.0441769)
(0.189304 -3.33194e-20 -0.0866475)
(0.361007 3.12261e-20 -0.0871496)
(0.524649 -1.48589e-20 -0.0693363)
(0.656038 0 -0.047089)
(0.745492 -1.28023e-20 -0.0262271)
(0.793835 1.10179e-20 -0.00916778)
(0.808217 0 0.00296312)
(0.798866 0 0.0101578)
(0.775304 -1.32524e-21 0.0134795)
(0.744873 0 0.0140743)
(0.712845 1.15523e-21 0.0129905)
(0.68248 -8.79422e-23 0.0111728)
(0.655086 -2.19759e-21 0.00939601)
(0.630223 -1.0171e-21 0.00822772)
(0.606136 9.58404e-22 0.00799594)
(0.580589 -8.79793e-22 0.00865474)
(0.551923 8.65206e-22 0.00974405)
(0.520002 -3.83278e-22 0.0105049)
(0.486847 2.21496e-23 0.010042)
(0.45666 6.98955e-22 0.00782982)
(0.434261 3.19804e-22 0.00419126)
(0.423497 0 -7.45162e-05)
(0.426653 -1.14453e-22 -0.00457779)
(0.444688 1.12518e-22 -0.00968848)
(0.478739 3.50601e-22 -0.0154608)
(0.530655 2.77759e-22 -0.0209244)
(0.600249 0 -0.026081)
(0.686786 0 -0.0313564)
(0.808453 -4.33937e-23 -0.0355319)
(0.0668576 1.43302e-19 -0.146419)
(0.200625 -1.33195e-19 -0.22084)
(0.363012 6.27963e-20 -0.217928)
(0.51588 0 -0.178037)
(0.64149 0 -0.128237)
(0.733432 0 -0.080822)
(0.792715 1.54293e-21 -0.0410457)
(0.824666 0 -0.0105781)
(0.833089 0 0.0105616)
(0.824355 3.97576e-21 0.0233579)
(0.805453 9.91252e-21 0.0293837)
(0.781262 -6.17345e-21 0.030602)
(0.75506 0 0.0290366)
(0.728429 4.21934e-21 0.0266082)
(0.701417 -1.10356e-21 0.024986)
(0.672765 -2.8732e-21 0.025346)
(0.640571 -1.79983e-21 0.0277598)
(0.60343 1.6873e-21 0.0309306)
(0.561627 0 0.0328033)
(0.517862 0 0.0314489)
(0.477096 -2.02967e-21 0.0260751)
(0.444146 -1.82686e-21 0.0177992)
(0.420356 5.44246e-23 0.00879808)
(0.404027 5.17567e-22 0.000599649)
(0.392451 0 -0.00721327)
(0.381008 3.53164e-22 -0.0162122)
(0.378305 -8.35689e-22 -0.0285919)
(0.397417 4.12259e-23 -0.0456969)
(0.439581 -4.05319e-23 -0.066132)
(0.51348 1.28227e-22 -0.0821931)
(0.056 -2.14663e-21 -0.281734)
(0.186209 5.17263e-22 -0.353715)
(0.327753 0 -0.335973)
(0.452014 0 -0.273352)
(0.548793 3.43748e-21 -0.198185)
(0.61627 5.44949e-20 -0.127219)
(0.656766 -1.68278e-21 -0.0684869)
(0.675355 -4.77955e-20 -0.0232657)
(0.675063 5.58265e-21 0.00968416)
(0.661183 1.82503e-20 0.0311486)
(0.638454 0 0.0425217)
(0.609684 -2.12785e-20 0.0466004)
(0.57636 1.85848e-20 0.046296)
(0.539256 0 0.0443438)
(0.498495 2.03396e-21 0.0433774)
(0.452999 1.92048e-21 0.0455295)
(0.400815 -1.71998e-21 0.0514116)
(0.340131 1.77433e-21 0.0598124)
(0.271616 -3.0799e-21 0.0674986)
(0.197078 3.02902e-21 0.0696324)
(0.118988 1.30899e-21 0.0635839)
(0.0428688 -5.07203e-23 0.0512692)
(-0.0200874 0 0.0365356)
(-0.0616793 0 0.0211458)
(-0.0797645 -3.9233e-22 0.0038893)
(-0.078409 -1.02795e-21 -0.0181489)
(-0.0646655 5.59097e-22 -0.0450868)
(-0.0384948 0 -0.0730872)
(-0.0109759 4.70924e-22 -0.0984734)
(0.00578025 -2.29212e-22 -0.118212)
(0.0104056 0 -0.430828)
(0.14352 -1.28692e-19 -0.478205)
(0.264386 1.25432e-19 -0.430936)
(0.357557 1.17109e-19 -0.342278)
(0.421343 -1.15801e-19 -0.244398)
(0.458948 -5.47747e-20 -0.154475)
(0.473821 9.94362e-20 -0.0804605)
(0.467198 -4.80746e-20 -0.0230082)
(0.439539 -5.62667e-21 0.0195102)
(0.402746 0 0.0471912)
(0.358635 -5.07872e-21 0.0633309)
(0.306892 1.89547e-20 0.0720879)
(0.244395 3.87223e-21 0.0776322)
(0.17029 -2.19997e-20 0.0825407)
(0.0859681 -8.16709e-24 0.0878853)
(-0.00494249 0 0.0952135)
(-0.0918983 -3.61425e-21 0.105252)
(-0.170419 -3.38566e-21 0.115544)
(-0.240615 3.16471e-21 0.12088)
(-0.304022 0 0.116935)
(-0.360305 1.35924e-21 0.102681)
(-0.406293 -2.4876e-21 0.0800152)
(-0.438696 -2.23814e-21 0.0525411)
(-0.456995 0 0.0238647)
(-0.463465 0 -0.00368638)
(-0.461767 1.02369e-21 -0.0301769)
(-0.458235 -1.18272e-21 -0.0565071)
(-0.454646 -1.1203e-21 -0.0819128)
(-0.454866 -4.10059e-22 -0.105249)
(-0.458815 1.6469e-22 -0.124592)
(-0.060012 0 -0.569087)
(0.0720884 1.28651e-19 -0.585056)
(0.16611 -2.49347e-19 -0.499068)
(0.220938 1.17672e-19 -0.3818)
(0.245227 -1.06288e-19 -0.262591)
(0.244828 1.07581e-19 -0.156274)
(0.22291 0 -0.0679625)
(0.160365 -5.97786e-21 0.0112105)
(0.0896877 0 0.0649364)
(0.0118829 -3.69959e-20 0.0952872)
(-0.067354 8.75104e-21 0.113177)
(-0.150638 -3.94526e-20 0.126624)
(-0.236444 -4.5831e-21 0.137538)
(-0.323045 2.1273e-20 0.145329)
(-0.409405 -2.07146e-20 0.149966)
(-0.491125 0 0.152924)
(-0.564478 -7.02337e-21 0.155722)
(-0.626578 1.34898e-20 0.157458)
(-0.677205 -9.61585e-21 0.154619)
(-0.717733 -2.93458e-21 0.143586)
(-0.749835 0 0.123016)
(-0.775022 2.47949e-21 0.0946754)
(-0.794668 2.23121e-21 0.0624834)
(-0.809986 -9.24036e-22 0.0302971)
(-0.821574 9.08913e-22 0.000287508)
(-0.828665 -3.16685e-22 -0.0278147)
(-0.836098 1.41969e-21 -0.0547534)
(-0.845332 7.98727e-22 -0.0800968)
(-0.856763 4.69421e-22 -0.103577)
(-0.866079 3.08197e-22 -0.12244)
(-0.139201 0 -0.677585)
(-0.0228414 -2.09767e-21 -0.657029)
(0.0311827 2.45726e-22 -0.524506)
(0.0341666 -1.1791e-19 -0.373896)
(0.00587771 1.11897e-19 -0.228779)
(-0.0598855 -6.77444e-21 -0.087902)
(-0.174388 1.00207e-19 0.0207134)
(-0.260614 -9.21453e-20 0.0871775)
(-0.34469 0 0.129392)
(-0.430138 -5.39787e-21 0.156554)
(-0.516384 -5.1084e-21 0.174644)
(-0.600828 0 0.187239)
(-0.681127 0 0.195435)
(-0.756339 1.68483e-20 0.199212)
(-0.82639 -3.23979e-20 0.198965)
(-0.890154 1.55694e-20 0.196116)
(-0.945863 3.58262e-21 0.191986)
(-0.992097 8.51651e-24 0.186124)
(-1.02886 -6.11966e-21 0.176159)
(-1.05778 8.93792e-21 0.159474)
(-1.08154 0 0.135183)
(-1.10271 -2.47372e-21 0.104836)
(-1.12264 2.22842e-21 0.0714553)
(-1.14137 0 0.0378954)
(-1.15817 2.46757e-21 0.00624062)
(-1.17153 -7.65715e-22 -0.0227229)
(-1.18566 0 -0.0494821)
(-1.20323 -1.54934e-21 -0.0743976)
(-1.22184 -4.68278e-22 -0.0974908)
(-1.2339 -1.10944e-23 -0.11529)
(-0.218025 3.57346e-23 -0.737053)
(-0.136248 -5.06422e-23 -0.667992)
(-0.140306 1.2746e-19 -0.474998)
(-0.208909 -1.28366e-19 -0.282826)
(-0.317823 -1.14116e-19 -0.114726)
(-0.454139 1.18499e-19 0.0188893)
(-0.553194 0 0.100448)
(-0.64669 -4.16192e-20 0.155343)
(-0.736322 9.17261e-20 0.193407)
(-0.821385 -8.65045e-20 0.218)
(-0.901794 0 0.232628)
(-0.976615 0 0.240537)
(-1.04493 -9.03313e-21 0.243421)
(-1.10678 -8.51301e-21 0.241954)
(-1.16286 0 0.236786)
(-1.21347 0 0.229063)
(-1.2582 -6.96085e-21 0.219736)
(-1.29649 1.01767e-20 0.208469)
(-1.32856 -6.09363e-21 0.193629)
(-1.35582 5.98466e-21 0.173449)
(-1.38039 5.29594e-21 0.147332)
(-1.40408 -1.90194e-22 0.116308)
(-1.42741 -4.54741e-21 0.0825269)
(-1.44999 0 0.0482081)
(-1.47142 -1.68447e-21 0.0153653)
(-1.49083 -6.23927e-22 -0.0142232)
(-1.51079 2.77039e-21 -0.0405815)
(-1.5355 1.54583e-21 -0.0648663)
(-1.56024 3.72732e-23 -0.0874153)
(-1.57448 -3.34628e-22 -0.104234)
(-0.291373 -3.58217e-23 -0.721339)
(-0.263789 -1.36262e-19 -0.585596)
(-0.341872 1.3631e-19 -0.349946)
(-0.481524 1.28216e-19 -0.14443)
(-0.641509 -2.38524e-19 0.0171652)
(-0.761379 1.14286e-19 0.11649)
(-0.87048 6.57746e-21 0.183388)
(-0.970888 2.52441e-23 0.229061)
(-1.06154 -5.66722e-20 0.258927)
(-1.14304 1.79e-21 0.276361)
(-1.21635 -1.17996e-20 0.284569)
(-1.28208 -8.61645e-20 0.286367)
(-1.3409 4.58321e-20 0.283565)
(-1.39381 -8.12135e-21 0.277174)
(-1.44203 8.35952e-21 0.267958)
(-1.48635 1.4727e-20 0.256723)
(-1.52691 -1.44473e-20 0.243953)
(-1.5635 6.48689e-21 0.229232)
(-1.59631 -1.24296e-20 0.211325)
(-1.62627 3.20129e-22 0.188954)
(-1.65471 2.84518e-21 0.161698)
(-1.68277 -9.19274e-23 0.130267)
(-1.71078 -4.41765e-21 0.0961604)
(-1.73837 4.1422e-21 0.0611994)
(-1.76529 1.80049e-21 0.0274903)
(-1.79148 0 -0.00265862)
(-1.81702 -2.15272e-21 -0.0286103)
(-1.84753 0 -0.0519576)
(-1.87796 0 -0.0738155)
(-1.89427 0 -0.0899259)
(-0.361146 -1.54577e-19 -0.614561)
(-0.394145 1.48121e-19 -0.425825)
(-0.5357 -1.06936e-21 -0.173022)
(-0.726924 -1.2416e-19 0.0292897)
(-0.879249 1.17753e-19 0.145729)
(-1.01491 0 0.223226)
(-1.13486 -6.61723e-21 0.274269)
(-1.23926 -1.03032e-19 0.306067)
(-1.32936 6.10598e-20 0.323838)
(-1.40721 1.91148e-21 0.331378)
(-1.47519 8.43855e-21 0.3317)
(-1.53517 -6.66305e-20 0.327128)
(-1.58878 1.01029e-20 0.319186)
(-1.63756 1.71772e-20 0.308802)
(-1.68288 3.13544e-20 0.296589)
(-1.72561 -8.02637e-21 0.282956)
(-1.76602 -7.34476e-21 0.267929)
(-1.80405 6.44224e-21 0.250937)
(-1.83977 -6.32175e-21 0.230967)
(-1.87384 0 0.207121)
(-1.90716 5.32763e-21 0.179069)
(-1.94046 4.89766e-21 0.147279)
(-1.97398 -4.40709e-21 0.11288)
(-2.00736 -2.07411e-21 0.0774767)
(-2.04044 1.54296e-21 0.0431589)
(-2.07346 -3.35254e-21 0.0123796)
(-2.10687 8.27701e-22 -0.0134233)
(-2.14277 -7.76927e-23 -0.0357996)
(-2.17871 -1.41503e-22 -0.0567633)
(-2.19722 -2.60107e-22 -0.0724657)
(-0.42559 1.76008e-22 -0.42445)
(-0.511805 -1.52095e-19 -0.198623)
(-0.707876 8.65174e-21 0.0650113)
(-0.905282 2.71411e-19 0.201968)
(-1.08137 -1.21517e-19 0.287711)
(-1.23218 -7.27234e-21 0.340232)
(-1.35924 -6.70139e-21 0.36991)
(-1.4655 1.23887e-20 0.383877)
(-1.55429 1.14919e-20 0.387332)
(-1.62925 -4.21341e-20 0.383925)
(-1.69396 -4.11993e-20 0.376122)
(-1.75108 0 0.365539)
(-1.80266 1.7687e-20 0.353173)
(-1.85039 0 0.339621)
(-1.89556 -7.87737e-21 0.325178)
(-1.93898 7.41391e-21 0.309802)
(-1.981 -6.9757e-21 0.293155)
(-2.02168 0 0.274585)
(-2.06122 -6.10222e-21 0.253251)
(-2.10009 0 0.228447)
(-2.13898 -1.06152e-20 0.199902)
(-2.17843 0 0.167926)
(-2.21862 8.42572e-24 0.133399)
(-2.25922 -1.81697e-21 0.0977648)
(-2.29989 -7.79531e-22 0.0630626)
(-2.34071 1.98337e-21 0.0317)
(-2.38254 0 0.00548609)
(-2.42572 0 -0.0163813)
(-2.46497 0 -0.0364208)
(-2.48576 5.05914e-22 -0.0517395)
(-0.48147 -5.21926e-22 -0.135576)
(-0.613195 1.59337e-19 0.146138)
(-0.831448 -1.57995e-19 0.302426)
(-1.06798 -1.3102e-20 0.395452)
(-1.2657 -1.24027e-19 0.443022)
(-1.42642 1.2865e-19 0.463466)
(-1.55648 -1.1129e-19 0.467267)
(-1.6619 1.38116e-19 0.460938)
(-1.74812 -5.87417e-20 0.449114)
(-1.82027 0 0.434746)
(-1.88273 0 0.419285)
(-1.93848 -3.64687e-20 0.403328)
(-1.98956 5.26321e-20 0.38718)
(-2.03749 -3.28517e-20 0.370989)
(-2.08348 1.57618e-20 0.354713)
(-2.1284 7.2241e-21 0.338017)
(-2.17273 0 0.320284)
(-2.2167 0 0.300746)
(-2.26057 6.09644e-21 0.278645)
(-2.30478 0 0.253399)
(-2.3499 1.05515e-20 0.224756)
(-2.39636 0 0.192891)
(-2.44423 6.4623e-21 0.158483)
(-2.49312 -2.04388e-21 0.122807)
(-2.54246 0 0.0877705)
(-2.59202 -2.71051e-21 0.0557041)
(-2.64277 -4.33872e-22 0.0286025)
(-2.69547 1.78909e-21 0.00649366)
(-2.74142 3.06748e-23 -0.0128511)
(-2.76236 -2.76579e-22 -0.0277533)
(-0.498766 3.71151e-19 0.326806)
(-0.671002 -1.78147e-19 0.487537)
(-0.963684 1.50854e-19 0.577578)
(-1.23575 -1.30421e-19 0.608437)
(-1.44602 0 0.605209)
(-1.60824 -1.13184e-19 0.587481)
(-1.73528 1.23981e-19 0.562802)
(-1.83589 1.20804e-20 0.535217)
(-1.91708 -1.11538e-20 0.508258)
(-1.98521 -1.03494e-20 0.483788)
(-2.04515 -2.86126e-20 0.461674)
(-2.09972 5.52883e-20 0.441136)
(-2.15048 -9.34251e-21 0.421682)
(-2.19866 -8.59628e-21 0.403208)
(-2.24551 -1.54931e-20 0.385521)
(-2.29205 -7.22453e-21 0.367996)
(-2.33894 0 0.349733)
(-2.38653 6.25755e-21 0.329836)
(-2.4351 -1.21137e-20 0.307581)
(-2.48511 0 0.28246)
(-2.53707 -1.04875e-20 0.254203)
(-2.59138 4.81951e-21 0.222856)
(-2.64809 0 0.188911)
(-2.70668 -1.8073e-21 0.153444)
(-2.76625 1.77665e-21 0.118174)
(-2.82619 2.70484e-21 0.0853838)
(-2.88747 2.03093e-21 0.0573087)
(-2.95088 -1.35925e-21 0.0345431)
(-3.00654 -6.46413e-22 0.0154904)
(-3.03281 -2.89798e-23 0.00134521)
(-0.513495 1.99111e-19 0.8565)
(-0.760472 -3.51816e-19 0.902305)
(-1.13802 1.67116e-19 0.885357)
(-1.42768 -1.44979e-19 0.829436)
(-1.63255 1.40944e-19 0.763264)
(-1.78282 0 0.70473)
(-1.89843 -3.78182e-20 0.651909)
(-1.98871 2.5514e-20 0.603682)
(-2.06085 1.11829e-20 0.562773)
(-2.12231 4.03296e-20 0.530046)
(-2.17836 3.8786e-20 0.502958)
(-2.23099 2.63023e-20 0.47883)
(-2.28075 -1.71083e-20 0.456549)
(-2.32843 7.98332e-21 0.43617)
(-2.37544 7.36819e-21 0.417571)
(-2.42311 6.87433e-21 0.399846)
(-2.47224 -1.35573e-20 0.381726)
(-2.52318 0 0.362135)
(-2.57622 5.97432e-21 0.340368)
(-2.63179 0 0.315996)
(-2.69051 1.04282e-20 0.288742)
(-2.7529 -4.81311e-21 0.258514)
(-2.81906 2.29049e-21 0.225564)
(-2.88834 7.70741e-21 0.190664)
(-2.95937 1.53331e-21 0.155241)
(-3.03078 5.93598e-22 0.121487)
(-3.1029 -4.62143e-21 0.091958)
(-3.17591 1.23129e-22 0.0679815)
(-3.23875 5.25835e-22 0.0487259)
(-3.26798 2.70393e-23 0.0351624)
(-0.582765 -6.53204e-21 1.51006)
(-0.943558 0 1.38997)
(-1.38495 0 1.21836)
(-1.6582 -8.20834e-21 1.04145)
(-1.82843 -7.79987e-21 0.89833)
(-1.9469 0 0.804216)
(-2.04116 -6.13512e-20 0.728855)
(-2.11457 5.91272e-20 0.662171)
(-2.1718 -4.16192e-20 0.609333)
(-2.22237 5.06798e-20 0.571617)
(-2.27225 -3.25119e-22 0.542285)
(-2.32152 -2.92607e-22 0.515844)
(-2.36869 -1.66343e-20 0.491128)
(-2.41394 2.27582e-20 0.469167)
(-2.45914 -2.21986e-20 0.450302)
(-2.50613 1.48874e-22 0.433198)
(-2.55578 0 0.41599)
(-2.60822 0 0.397361)
(-2.66362 1.16047e-20 0.376698)
(-2.72251 -1.10685e-20 0.353734)
(-2.78574 -2.40634e-21 0.328212)
(-2.85408 -2.33052e-21 0.299868)
(-2.92775 -2.28306e-21 0.268604)
(-3.00607 -2.02e-21 0.234759)
(-3.08724 1.49925e-23 0.19934)
(-3.16925 -3.28344e-21 0.164348)
(-3.25162 2.58884e-21 0.132694)
(-3.33371 -1.25477e-21 0.10677)
(-3.40361 0 0.0869812)
(-3.43649 0 0.0741493)
(-0.678903 -2.27375e-19 2.38658)
(-1.2155 -7.68201e-20 1.97263)
(-1.725 1.434e-19 1.5708)
(-1.93711 -1.10801e-19 1.20053)
(-2.02475 1.13651e-19 0.970016)
(-2.08151 -9.80748e-21 0.873595)
(-2.14789 -4.85465e-20 0.791322)
(-2.19983 0 0.707)
(-2.23439 0 0.642728)
(-2.26802 1.39953e-20 0.605479)
(-2.30929 -9.08063e-21 0.578314)
(-2.35369 1.67333e-20 0.550924)
(-2.3958 0 0.52365)
(-2.43514 -7.60541e-21 0.50014)
(-2.47486 0 0.481745)
(-2.51774 1.59699e-22 0.466235)
(-2.5645 6.329e-21 0.45067)
(-2.61471 -1.22566e-20 0.433477)
(-2.66832 -1.16194e-20 0.414359)
(-2.72608 5.48973e-21 0.393404)
(-2.78934 0 0.37045)
(-2.85937 9.62638e-21 0.344986)
(-2.93687 0 0.316477)
(-3.02142 -3.87778e-21 0.284708)
(-3.11115 -6.66527e-21 0.250094)
(-3.20348 2.10018e-21 0.214169)
(-3.29683 5.80826e-22 0.179949)
(-3.38927 -1.20407e-21 0.150992)
(-3.46766 1.15247e-23 0.129299)
(-3.50523 -1.16522e-23 0.115895)
(10.0036 -5.20666e-20 0.126994)
(9.98621 -1.24764e-19 0.257008)
(9.95739 -3.66693e-20 0.387882)
(9.9229 -7.57671e-20 0.520197)
(9.88125 1.5596e-19 0.655469)
(9.8314 -1.60305e-19 0.795217)
(9.77377 4.1483e-20 0.940942)
(9.70885 4.24493e-20 1.09415)
(9.63722 0 1.25627)
(9.55943 0 1.4287)
(9.47579 4.65406e-20 1.61284)
(9.38664 -2.39147e-20 1.81016)
(9.29243 3.43144e-19 2.02224)
(9.19357 1.52202e-21 2.25083)
(9.09052 -8.9786e-19 2.49786)
(8.98373 4.19255e-19 2.76549)
(8.87369 0 3.0562)
(8.7609 8.73577e-19 3.3729)
(8.64594 -8.33192e-19 3.71912)
(8.52944 5.56942e-20 4.09922)
(8.41218 1.02047e-18 4.51869)
(8.29512 8.12001e-21 4.98467)
(8.17971 9.22453e-19 5.50655)
(8.0682 0 6.09703)
(7.9643 8.87082e-19 6.77385)
(7.87478 -8.97011e-19 7.56327)
(7.81822 -6.04146e-19 8.50652)
(7.82849 5.61827e-19 9.67703)
(8.45096 2.04748e-19 11.1395)
(8.84092 1.20088e-19 13.9668)
(10.0042 -1.17339e-19 0.1316)
(9.98829 -5.18697e-20 0.266342)
(9.96226 3.5602e-20 0.401977)
(9.93175 7.32441e-20 0.539074)
(9.89519 -7.54266e-20 0.679147)
(9.85153 4.49577e-22 0.823724)
(9.80113 -3.99496e-20 0.974327)
(9.74463 -4.13677e-20 1.13244)
(9.68265 0 1.29948)
(9.61575 0 1.47681)
(9.54435 3.58618e-19 1.66587)
(9.46894 -3.66671e-19 1.86811)
(9.39011 4.73142e-20 2.0851)
(9.30844 4.79101e-20 2.31854)
(9.22461 4.95963e-20 2.57033)
(9.13936 -4.02671e-19 2.84258)
(9.05356 8.20156e-19 3.13772)
(8.96822 -4.17236e-19 3.45857)
(8.88455 -5.34031e-20 3.80852)
(8.8041 -1.06985e-19 4.1917)
(8.7289 -1.61066e-19 4.61326)
(8.66178 -1.06703e-19 5.07968)
(8.60692 1.06306e-19 5.59927)
(8.57075 0 6.18285)
(8.56392 4.10963e-19 6.84459)
(8.60503 -6.10095e-19 7.60303)
(8.7325 3.86881e-19 8.48085)
(8.9591 1.71318e-19 9.50575)
(9.59476 1.55433e-19 10.6285)
(10.1391 -1.20246e-19 11.8404)
(10.0047 2.61109e-19 0.135737)
(9.99047 -6.69386e-20 0.274726)
(9.96735 -6.89874e-20 0.414626)
(9.94099 2.13809e-19 0.55598)
(9.90971 2.20263e-19 0.7003)
(9.87241 3.14646e-22 0.849119)
(9.8295 -1.16548e-19 1.00395)
(9.78169 1.594e-19 1.16626)
(9.72963 0 1.3374)
(9.6739 4.19172e-20 1.51875)
(9.61505 0 1.7117)
(9.5537 0 1.91767)
(9.49055 -3.62875e-19 2.13818)
(9.42639 6.94676e-19 2.37485)
(9.36211 -3.78285e-19 2.62949)
(9.29873 0 2.90409)
(9.23749 0 3.20089)
(9.17986 0 3.52249)
(9.12766 0 3.8719)
(9.08325 -3.53615e-19 4.25274)
(9.0497 5.14504e-19 4.66929)
(9.03129 -2.00842e-19 5.12673)
(9.03403 3.07496e-19 5.6312)
(9.06663 0 6.18989)