/*--------------------------------*- C++ -*----------------------------------*\
| =========                 |                                                 |
| \\      /  F ield         | OpenFOAM: The Open Source CFD Toolbox           |
|  \\    /   O peration     | Version:  dev                                   |
|   \\  /    A nd           | Web:      www.OpenFOAM.org                      |
|    \\/     M anipulation  |                                                 |
\*---------------------------------------------------------------------------*/
FoamFile
{
    version     2.0;
    format      ascii;
    class       volScalarField;
    location    "3";
    object      p;
}
// * * * * * * * * * * * * * * * * * * * * * * * * * * * * * * * * * * * * * //

dimensions      [0 2 -2 0 0 0 0];

internalField   nonuniform List<scalar> 
465
(
134.998
134.928
135.22
135.765
136.475
137.336
138.349
139.51
140.813
142.252
143.822
145.518
147.333
149.258
151.284
153.396
155.58
157.814
160.072
162.326
164.538
134.825
134.851
135.165
135.707
136.414
137.273
138.283
139.439
140.736
142.168
143.73
145.417
147.222
149.138
151.153
153.256
155.43
157.655
159.908
162.159
164.373
134.65
134.749
135.081
135.614
136.309
137.157
138.154
139.295
140.574
141.985
143.525
145.185
146.962
148.845
150.825
152.889
155.023
157.207
159.418
161.628
163.807
134.46
134.595
134.94
135.464
136.146
136.98
137.961
139.081
140.337
141.721
143.228
144.853
146.589
148.426
150.356
152.365
154.439
156.559
158.704
160.849
162.964
134.245
134.398
134.752
135.269
135.938
136.754
137.713
138.808
140.033
141.382
142.849
144.428
146.111
147.891
149.757
151.696
153.693
155.732
157.792
159.849
161.879
134.001
134.162
134.522
135.031
135.682
136.477
137.409
138.473
139.661
140.967
142.386
143.91
145.532
147.243
149.033
150.889
152.796
154.738
156.696
158.648
160.571
133.725
133.89
134.25
134.749
135.381
136.15
137.051
138.079
139.224
140.481
141.844
143.305
144.856
146.489
148.192
149.953
151.757
153.587
155.427
157.255
159.05
133.418
133.583
133.939
134.425
135.035
135.775
136.642
137.628
138.726
139.927
141.227
142.617
144.089
145.633
147.239
148.892
150.579
152.284
153.988
155.673
157.317
133.078
133.242
133.591
134.062
134.647
135.355
136.184
137.124
138.168
139.308
140.538
141.85
143.234
144.681
146.178
147.713
149.271
150.834
152.385
153.905
155.373
132.707
132.869
133.208
133.661
134.219
134.892
135.678
136.569
137.555
138.628
139.783
141.009
142.298
143.638
145.018
146.423
147.838
149.244
150.624
151.956
153.218
132.306
132.464
132.793
133.225
133.754
134.389
135.129
135.966
136.889
137.892
138.965
140.1
141.286
142.512
143.765
145.029
146.288
147.523
148.712
149.832
150.858
131.876
132.03
132.346
132.755
133.252
133.847
134.539
135.319
136.176
137.103
138.09
139.127
140.205
141.31
142.427
143.541
144.632
145.679
146.66
147.545
148.303
131.419
131.568
131.87
132.255
132.718
133.271
133.912
134.631
135.419
136.266
137.162
138.098
139.062
140.039
141.013
141.967
142.88
143.728
144.483
145.111
145.573
130.935
131.081
131.368
131.726
132.153
132.662
133.25
133.907
134.622
135.386
136.189
137.019
137.864
138.708
139.533
140.321
141.047
141.684
142.2
142.554
142.696
130.429
130.569
130.84
131.17
131.561
132.024
132.557
133.149
133.79
134.469
135.175
135.896
136.619
137.326
137.999
138.615
139.148
139.568
139.836
139.904
139.712
130.278
130.58
130.932
131.348
131.823
132.348
132.911
133.501
134.107
134.715
135.311
135.877
136.391
136.83
137.165
137.36
137.372
137.145
136.612
129.949
130.26
130.625
131.041
131.495
131.977
132.475
132.976
133.467
133.932
134.351
134.702
134.959
135.089
135.055
134.808
134.286
133.415
129.549
129.863
130.216
130.597
130.995
131.398
131.792
132.163
132.494
132.764
132.95
133.023
132.949
132.687
132.186
131.381
130.193
129.061
129.351
129.658
129.97
130.276
130.561
130.811
131.007
131.128
131.148
131.039
130.766
130.285
129.544
128.478
127.01
128.449
128.68
128.906
129.114
129.29
129.418
129.48
129.453
129.312
129.028
128.563
127.877
126.916
125.621
123.916
127.668
127.808
127.918
127.985
127.993
127.924
127.753
127.457
127.006
126.363
125.489
124.335
122.844
120.95
126.694
126.655
126.546
126.348
126.041
125.598
124.991
124.187
123.146
121.826
120.175
118.138
125.306
125.084
124.766
124.329
123.75
123.001
122.052
120.868
119.409
117.634
115.496
123.186
122.629
121.925
121.05
119.975
118.67
117.102
115.235
113.034
120.138
119.152
117.97
116.567
114.915
112.986
110.752
117.318
116.048
114.568
112.855
110.889
108.649
112.678
110.925
108.943
106.717
107.145
104.948
)
;

boundaryField
{
    inlet
    {
        type            zeroGradient;
    }
    outlet
    {
        type            fixedValue;
        value           nonuniform 0();
    }
    flap
    {
        type            zeroGradient;
    }
    upperWall
    {
        type            zeroGradient;
    }
    lowerWall
    {
        type            zeroGradient;
    }
    frontAndBack
    {
        type            empty;
    }
    procBoundary3to0
    {
        type            processor;
        value           nonuniform List<scalar> 
34
(
129.89
130.025
130.025
129.677
129.677
129.28
129.28
128.802
128.802
128.224
128.224
127.513
127.513
126.627
126.68
126.68
125.449
125.449
123.947
123.619
123.619
121.62
120.953
120.953
118.399
118.399
115.556
114.216
114.216
110.901
109.126
109.126
105.489
103.333
)
;
    }
    procBoundary3to1
    {
        type            processor;
        value           nonuniform List<scalar> 9(121.711 118.576 115.652 112.946 110.46 108.187 106.117 104.236 102.531);
    }
    procBoundary3to4
    {
        type            processor;
        value           nonuniform List<scalar> 
19
(
166.668
166.509
165.915
165.016
163.851
162.44
160.79
158.9
156.766
154.385
151.76
148.899
145.823
142.569
139.188
135.682
132.092
128.517
125.037
)
;
    }
}


// ************************************************************************* //
