/*--------------------------------*- C++ -*----------------------------------*\
| =========                 |                                                 |
| \\      /  F ield         | OpenFOAM: The Open Source CFD Toolbox           |
|  \\    /   O peration     | Version:  dev                                   |
|   \\  /    A nd           | Web:      www.OpenFOAM.org                      |
|    \\/     M anipulation  |                                                 |
\*---------------------------------------------------------------------------*/
FoamFile
{
    version     2.0;
    format      ascii;
    class       pointVectorField;
    location    "3";
    object      pointDisplacement;
}
// * * * * * * * * * * * * * * * * * * * * * * * * * * * * * * * * * * * * * //

dimensions      [0 1 0 0 0 0 0];

internalField   nonuniform List<vector> 
1030
(
(0 0 0)
(0.0149551 0 0)
(0.0283407 0 0)
(0.0397942 0 0)
(0.0494918 0 0)
(0.0576026 0 0)
(0.0642741 0 0)
(0.0696362 0 0)
(0.0738025 0 0)
(0.0768727 0 0)
(0.0789352 0 0)
(0.0800669 0 0)
(0.0803342 0 0)
(0.0797948 0 0)
(0.0784999 0 0)
(0.0764956 0 0)
(0.0738248 0 0)
(0.0705281 0 0)
(0.0666466 0 0)
(0.0622232 0 0)
(0.0573044 0 0)
(0.0519434 0 0)
(0 0 0)
(0.0149642 0 -4.63522e-05)
(0.0283593 0 -8.83234e-05)
(0.0398217 0 -0.000125071)
(0.0495286 0 -0.00015724)
(0.05765 0 -0.000185364)
(0.0643334 0 -0.000209733)
(0.0697088 0 -0.000230427)
(0.0738904 0 -0.000247504)
(0.0769777 0 -0.000260599)
(0.0790599 0 -0.000269174)
(0.0802146 0 -0.00027282)
(0.0805082 0 -0.000270819)
(0.0799992 0 -0.000262231)
(0.0787393 0 -0.000245883)
(0.0767753 0 -0.000220333)
(0.0741506 0 -0.000183838)
(0.070907 0 -0.0001343)
(0.0670865 0 -6.92178e-05)
(0.0627331 0 1.43807e-05)
(0.0578952 0 0.000120042)
(0.0526278 0 0.000252016)
(0 0 0)
(0.0149941 0 -9.28562e-05)
(0.0284178 0 -0.000176979)
(0.0399067 0 -0.000250668)
(0.0496413 0 -0.000315212)
(0.0577943 0 -0.000371715)
(0.064513 0 -0.000420773)
(0.0699284 0 -0.000462498)
(0.074155 0 -0.000496819)
(0.0772928 0 -0.000523255)
(0.0794334 0 -0.000540986)
(0.080656 0 -0.000549068)
(0.0810279 0 -0.000546078)
(0.0806089 0 -0.000530192)
(0.0794525 0 -0.000499141)
(0.0776075 0 -0.000450147)
(0.0751194 0 -0.000379848)
(0.0720326 0 -0.000284221)
(0.0683919 0 -0.000158495)
(0.0642452 0 2.94797e-06)
(0.0596455 0 0.000206735)
(0.0546534 0 0.000460711)
(0 0 0)
(0.0150446 0 -0.000139613)
(0.0285163 0 -0.000266066)
(0.0400483 0 -0.000376846)
(0.0498286 0 -0.000474017)
(0.058034 0 -0.000559257)
(0.0648112 0 -0.000633504)
(0.0702913 0 -0.000696832)
(0.0745909 0 -0.000748832)
(0.0778131 0 -0.000789251)
(0.0800513 0 -0.00081728)
(0.0813861 0 -0.000831303)
(0.0818869 0 -0.000829264)
(0.081616 0 -0.00080858)
(0.0806298 0 -0.000766048)
(0.0789803 0 -0.000697758)
(0.0767166 0 -0.000599003)
(0.073887 0 -0.000464184)
(0.0705408 0 -0.000286722)
(0.0667318 0 -5.90211e-05)
(0.0625203 0 0.000227683)
(0.0579751 0 0.000583524)
(0 0 0)
(0.0151123 0 -0.000186528)
(0.0286483 0 -0.000355407)
(0.040242 0 -0.000503413)
(0.0500877 0 -0.000633478)
(0.0583664 0 -0.000747836)
(0.0652239 0 -0.000847609)
(0.0707914 0 -0.000933029)
(0.0751915 0 -0.00100385)
(0.0785316 0 -0.00105979)
(0.0809051 0 -0.00109984)
(0.0823945 0 -0.00112198)
(0.0830726 0 -0.00112369)
(0.0830054 0 -0.00110182)
(0.0822531 0 -0.00105245)
(0.0808721 0 -0.000970854)
(0.0789165 0 -0.000851349)
(0.0764397 0 -0.000687248)
(0.0734966 0 -0.000470782)
(0.0701493 0 -0.00019327)
(0.0664679 0 0.000154896)
(0.0625324 0 0.000584371)
(0 0 0)
(0.015197 0 -0.000233506)
(0.0288133 0 -0.000444931)
(0.0404858 0 -0.000630364)
(0.0504153 0 -0.000793632)
(0.0587857 0 -0.000937576)
(0.0657429 0 -0.00106331)
(0.0714222 0 -0.00117152)
(0.0759515 0 -0.0012626)
(0.0794403 0 -0.0013359)
(0.0819836 0 -0.00139013)
(0.0836673 0 -0.00142315)
(0.084568 0 -0.00143216)
(0.084756 0 -0.00141364)
(0.0842967 0 -0.0013633)
(0.0832519 0 -0.00127591)
(0.0816817 0 -0.00114532)
(0.0796457 0 -0.000964303)
(0.0772045 0 -0.000724534)
(0.0744298 0 -0.000417211)
(0.0714056 0 -3.3295e-05)
(0.068225 0 0.000436646)
(0 0 0)
(0.0152983 0 -0.000280519)
(0.0290098 0 -0.000534564)
(0.0407769 0 -0.000757615)
(0.0508079 0 -0.000954429)
(0.059287 0 -0.00112833)
(0.0663619 0 -0.00128081)
(0.0721766 0 -0.00141308)
(0.0768617 0 -0.00152587)
(0.0805274 0 -0.00161842)
(0.0832726 0 -0.00168932)
(0.0851869 0 -0.00173645)
(0.0863514 0 -0.00175686)
(0.0868416 0 -0.00174699)
(0.0867287 0 -0.00170246)
(0.0860808 0 -0.00161796)
(0.0849657 0 -0.00148739)
(0.0834509 0 -0.00130374)
(0.0816044 0 -0.0010589)
(0.079502 0 -0.00074436)
(0.0772407 0 -0.000352714)
(0.0749315 0 0.000122269)
(0 0 0)
(0.0154161 0 -0.000327551)
(0.029236 0 -0.000624249)
(0.0411117 0 -0.000885068)
(0.0512588 0 -0.00111575)
(0.0598625 0 -0.00132001)
(0.0670752 0 -0.00150009)
(0.0730468 0 -0.00165777)
(0.0779107 0 -0.0017939)
(0.0817788 0 -0.00190781)
(0.0847542 0 -0.0019981)
(0.0869317 0 -0.00206289)
(0.0883961 0 -0.0020992)
(0.0892293 0 -0.00210372)
(0.089509 0 -0.00207238)
(0.0893102 0 -0.00200014)
(0.0887096 0 -0.00188152)
(0.087784 0 -0.00171033)
(0.0866133 0 -0.00147985)
(0.0852763 0 -0.00118255)
(0.0838692 0 -0.000812434)
(0.0825214 0 -0.000367878)
(0 0 0)
(0.0155506 0 -0.000374592)
(0.02949 0 -0.000713853)
(0.0414862 0 -0.00101254)
(0.0517633 0 -0.00127746)
(0.0605072 0 -0.00151296)
(0.0678762 0 -0.00172179)
(0.0740244 0 -0.0019061)
(0.0790866 0 -0.00206703)
(0.083178 0 -0.00220423)
(0.0864081 0 -0.00231673)
(0.0888772 0 -0.00240298)
(0.0906751 0 -0.00246031)
(0.0918889 0 -0.00248567)
(0.0926001 0 -0.00247516)
(0.0928926 0 -0.00242469)
(0.0928541 0 -0.00233009)
(0.0925693 0 -0.00218633)
(0.0921287 0 -0.00198856)
(0.0916235 0 -0.00173202)
(0.0911462 0 -0.00141253)
(0.0908308 0 -0.00103234)
(0 0 0)
(0.0156955 0 -0.000421476)
(0.0297655 0 -0.000803279)
(0.0418967 0 -0.0011401)
(0.0523201 0 -0.00143978)
(0.0612194 0 -0.00170724)
(0.0687575 0 -0.00194567)
(0.0750955 0 -0.00215777)
(0.0803712 0 -0.00234485)
(0.0847045 0 -0.00250729)
(0.0882111 0 -0.00264491)
(0.0909957 0 -0.00275642)
(0.0931552 0 -0.00283996)
(0.09478 0 -0.00289265)
(0.0959558 0 -0.00291098)
(0.0967747 0 -0.00289202)
(0.0973333 0 -0.0028331)
(0.0977259 0 -0.00273113)
(0.0980489 0 -0.00258319)
(0.0984065 0 -0.0023879)
(0.0989023 0 -0.00214483)
(0.0996659 0 -0.00185945)
(0 0 0)
(0.0158476 0 -0.000468121)
(0.0300632 0 -0.000892598)
(0.0423423 0 -0.00126785)
(0.0529213 0 -0.00160246)
(0.061985 0 -0.00190203)
(0.0697038 0 -0.00217065)
(0.0762444 0 -0.00241168)
(0.0817483 0 -0.00262677)
(0.086341 0 -0.0028169)
(0.090142 0 -0.00298251)
(0.09326 0 -0.00312284)
(0.0957978 0 -0.00323679)
(0.0978506 0 -0.00332218)
(0.0995133 0 -0.00337682)
(0.100885 0 -0.00339894)
(0.102065 0 -0.00338699)
(0.103155 0 -0.00333989)
(0.104259 0 -0.00325736)
(0.105489 0 -0.0031412)
(0.106965 0 -0.00299546)
(0.108812 0 -0.00282892)
(0 0 0)
(0.016007 0 -0.000514582)
(0.0303804 0 -0.00098171)
(0.0428151 0 -0.00139535)
(0.0535549 0 -0.00176487)
(0.0627933 0 -0.00209691)
(0.0707055 0 -0.00239656)
(0.0774614 0 -0.00266775)
(0.0832065 0 -0.00291269)
(0.0880709 0 -0.00313274)
(0.0921782 0 -0.00332895)
(0.0956414 0 -0.00350137)
(0.098567 0 -0.00364952)
(0.101056 0 -0.00377234)
(0.103215 0 -0.00386947)
(0.105151 0 -0.00394083)
(0.106961 0 -0.00398554)
(0.108748 0 -0.00400424)
(0.110627 0 -0.00399974)
(0.112716 0 -0.00397707)
(0.115146 0 -0.00394439)
(0.118037 0 -0.00391328)
(0 0 0)
(0.0161684 0 -0.000560665)
(0.0307078 0 -0.0010703)
(0.0433074 0 -0.00152226)
(0.0542149 0 -0.0019269)
(0.0636382 0 -0.00229208)
(0.0717554 0 -0.00262362)
(0.0787356 0 -0.00292586)
(0.0847284 0 -0.00320172)
(0.0898709 0 -0.00345332)
(0.0942913 0 -0.00368239)
(0.0981055 0 -0.00388971)
(0.101424 0 -0.00407574)
(0.104356 0 -0.00424077)
(0.107014 0 -0.00438601)
(0.109506 0 -0.00451237)
(0.111928 0 -0.00462032)
(0.114391 0 -0.00471281)
(0.117014 0 -0.00479528)
(0.119918 0 -0.00487545)
(0.123242 0 -0.0049656)
(0.127101 0 -0.00507931)
(0 0 0)
(0.0163286 0 -0.000606119)
(0.0310398 0 -0.00115805)
(0.0438122 0 -0.00164829)
(0.0548973 0 -0.00208833)
(0.0645139 0 -0.00248724)
(0.0728413 0 -0.00285126)
(0.0800497 0 -0.00318517)
(0.0862953 0 -0.00349287)
(0.0917208 0 -0.00377751)
(0.0964568 0 -0.0040413)
(0.100623 0 -0.00428586)
(0.104333 0 -0.00451269)
(0.107704 0 -0.00472366)
(0.110849 0 -0.00492074)
(0.11387 0 -0.00510549)
(0.116872 0 -0.0052808)
(0.119971 0 -0.00545193)
(0.123283 0 -0.0056263)
(0.126933 0 -0.00581414)
(0.131062 0 -0.00603067)
(0.135767 0 -0.00629035)
(0 0 0)
(0.0164911 0 -0.000650912)
(0.0313758 0 -0.00124461)
(0.0443247 0 -0.00177294)
(0.0555941 0 -0.00224852)
(0.0654086 0 -0.00268114)
(0.0739479 0 -0.00307782)
(0.0813877 0 -0.00344423)
(0.0878902 0 -0.00378494)
(0.0936 0 -0.00410382)
(0.0986495 0 -0.00440375)
(0.103162 0 -0.00468721)
(0.107255 0 -0.0049567)
(0.111046 0 -0.00521517)
(0.114646 0 -0.00546534)
(0.118162 0 -0.00571035)
(0.121702 0 -0.00595515)
(0.125378 0 -0.00620658)
(0.129306 0 -0.00647359)
(0.133615 0 -0.00676946)
(0.138428 0 -0.0071097)
(0.14382 0 -0.00750827)
(0 0 0)
(0.0166563 0 -0.000695211)
(0.0317142 0 -0.00133024)
(0.0448457 0 -0.00189665)
(0.0563014 0 -0.00240772)
(0.0663133 0 -0.002874)
(0.0750701 0 -0.00330367)
(0.0827461 0 -0.00370333)
(0.0895052 0 -0.00407794)
(0.0954963 0 -0.00443191)
(0.100854 0 -0.00476901)
(0.105703 0 -0.00509253)
(0.110163 0 -0.0054058)
(0.11435 0 -0.0057125)
(0.118376 0 -0.00601658)
(0.122348 0 -0.00632274)
(0.126375 0 -0.00663727)
(0.130563 0 -0.00696824)
(0.135025 0 -0.00732593)
(0.139886 0 -0.00772549)
(0.14524 0 -0.0081811)
(0.151142 0 -0.00870606)
(0 0 0)
(0.0149551 0 0)
(0.0283407 0 0)
(0.0397942 0 0)
(0.0494918 0 0)
(0.0576026 0 0)
(0.0642741 0 0)
(0.0696362 0 0)
(0.0738025 0 0)
(0.0768727 0 0)
(0.0789352 0 0)
(0.0800669 0 0)
(0.0803342 0 0)
(0.0797948 0 0)
(0.0784999 0 0)
(0.0764956 0 0)
(0.0738248 0 0)
(0.0705281 0 0)
(0.0666466 0 0)
(0.0622232 0 0)
(0.0573044 0 0)
(0.0519434 0 0)
(0 0 0)
(0.0149642 0 -4.63522e-05)
(0.0283593 0 -8.83234e-05)
(0.0398217 0 -0.000125071)
(0.0495286 0 -0.00015724)
(0.05765 0 -0.000185364)
(0.0643334 0 -0.000209733)
(0.0697088 0 -0.000230427)
(0.0738904 0 -0.000247504)
(0.0769777 0 -0.000260599)
(0.0790599 0 -0.000269174)
(0.0802146 0 -0.00027282)
(0.0805082 0 -0.000270819)
(0.0799992 0 -0.000262231)
(0.0787393 0 -0.000245883)
(0.0767753 0 -0.000220333)
(0.0741506 0 -0.000183838)
(0.070907 0 -0.0001343)
(0.0670865 0 -6.92178e-05)
(0.0627331 0 1.43807e-05)
(0.0578952 0 0.000120042)
(0.0526278 0 0.000252016)
(0 0 0)
(0.0149941 0 -9.28562e-05)
(0.0284178 0 -0.000176979)
(0.0399067 0 -0.000250668)
(0.0496413 0 -0.000315212)
(0.0577943 0 -0.000371715)
(0.064513 0 -0.000420773)
(0.0699284 0 -0.000462498)
(0.074155 0 -0.000496819)
(0.0772928 0 -0.000523255)
(0.0794334 0 -0.000540986)
(0.080656 0 -0.000549068)
(0.0810279 0 -0.000546078)
(0.0806089 0 -0.000530192)
(0.0794525 0 -0.000499141)
(0.0776075 0 -0.000450147)
(0.0751194 0 -0.000379848)
(0.0720326 0 -0.000284221)
(0.0683919 0 -0.000158495)
(0.0642452 0 2.94797e-06)
(0.0596455 0 0.000206735)
(0.0546534 0 0.000460711)
(0 0 0)
(0.0150446 0 -0.000139613)
(0.0285163 0 -0.000266066)
(0.0400483 0 -0.000376846)
(0.0498286 0 -0.000474017)
(0.058034 0 -0.000559257)
(0.0648112 0 -0.000633504)
(0.0702913 0 -0.000696832)
(0.0745909 0 -0.000748832)
(0.0778131 0 -0.000789251)
(0.0800513 0 -0.00081728)
(0.0813861 0 -0.000831303)
(0.0818869 0 -0.000829264)
(0.081616 0 -0.00080858)
(0.0806298 0 -0.000766048)
(0.0789803 0 -0.000697758)
(0.0767166 0 -0.000599003)
(0.073887 0 -0.000464184)
(0.0705408 0 -0.000286722)
(0.0667318 0 -5.90211e-05)
(0.0625203 0 0.000227683)
(0.0579751 0 0.000583524)
(0 0 0)
(0.0151123 0 -0.000186528)
(0.0286483 0 -0.000355407)
(0.040242 0 -0.000503413)
(0.0500877 0 -0.000633478)
(0.0583664 0 -0.000747836)
(0.0652239 0 -0.000847609)
(0.0707914 0 -0.000933029)
(0.0751915 0 -0.00100385)
(0.0785316 0 -0.00105979)
(0.0809051 0 -0.00109984)
(0.0823945 0 -0.00112198)
(0.0830726 0 -0.00112369)
(0.0830054 0 -0.00110182)
(0.0822531 0 -0.00105245)
(0.0808721 0 -0.000970854)
(0.0789165 0 -0.000851349)
(0.0764397 0 -0.000687248)
(0.0734966 0 -0.000470782)
(0.0701493 0 -0.00019327)
(0.0664679 0 0.000154896)
(0.0625324 0 0.000584371)
(0 0 0)
(0.015197 0 -0.000233506)
(0.0288133 0 -0.000444931)
(0.0404858 0 -0.000630364)
(0.0504153 0 -0.000793632)
(0.0587857 0 -0.000937576)
(0.0657429 0 -0.00106331)
(0.0714222 0 -0.00117152)
(0.0759515 0 -0.0012626)
(0.0794403 0 -0.0013359)
(0.0819836 0 -0.00139013)
(0.0836673 0 -0.00142315)
(0.084568 0 -0.00143216)
(0.084756 0 -0.00141364)
(0.0842967 0 -0.0013633)
(0.0832519 0 -0.00127591)
(0.0816817 0 -0.00114532)
(0.0796457 0 -0.000964303)
(0.0772045 0 -0.000724534)
(0.0744298 0 -0.000417211)
(0.0714056 0 -3.3295e-05)
(0.068225 0 0.000436646)
(0 0 0)
(0.0152983 0 -0.000280519)
(0.0290098 0 -0.000534564)
(0.0407769 0 -0.000757615)
(0.0508079 0 -0.000954429)
(0.059287 0 -0.00112833)
(0.0663619 0 -0.00128081)
(0.0721766 0 -0.00141308)
(0.0768617 0 -0.00152587)
(0.0805274 0 -0.00161842)
(0.0832726 0 -0.00168932)
(0.0851869 0 -0.00173645)
(0.0863514 0 -0.00175686)
(0.0868416 0 -0.00174699)
(0.0867287 0 -0.00170246)
(0.0860808 0 -0.00161796)
(0.0849657 0 -0.00148739)
(0.0834509 0 -0.00130374)
(0.0816044 0 -0.0010589)
(0.079502 0 -0.00074436)
(0.0772407 0 -0.000352714)
(0.0749315 0 0.000122269)
(0 0 0)
(0.0154161 0 -0.000327551)
(0.029236 0 -0.000624249)
(0.0411117 0 -0.000885068)
(0.0512588 0 -0.00111575)
(0.0598625 0 -0.00132001)
(0.0670752 0 -0.00150009)
(0.0730468 0 -0.00165777)
(0.0779107 0 -0.0017939)
(0.0817788 0 -0.00190781)
(0.0847542 0 -0.0019981)
(0.0869317 0 -0.00206289)
(0.0883961 0 -0.0020992)
(0.0892293 0 -0.00210372)
(0.089509 0 -0.00207238)
(0.0893102 0 -0.00200014)
(0.0887096 0 -0.00188152)
(0.087784 0 -0.00171033)
(0.0866133 0 -0.00147985)
(0.0852763 0 -0.00118255)
(0.0838692 0 -0.000812434)
(0.0825214 0 -0.000367878)
(0 0 0)
(0.0155506 0 -0.000374592)
(0.02949 0 -0.000713853)
(0.0414862 0 -0.00101254)
(0.0517633 0 -0.00127746)
(0.0605072 0 -0.00151296)
(0.0678762 0 -0.00172179)
(0.0740244 0 -0.0019061)
(0.0790866 0 -0.00206703)
(0.083178 0 -0.00220423)
(0.0864081 0 -0.00231673)
(0.0888772 0 -0.00240298)
(0.0906751 0 -0.00246031)
(0.0918889 0 -0.00248567)
(0.0926001 0 -0.00247516)
(0.0928926 0 -0.00242469)
(0.0928541 0 -0.00233009)
(0.0925693 0 -0.00218633)
(0.0921287 0 -0.00198856)
(0.0916235 0 -0.00173202)
(0.0911462 0 -0.00141253)
(0.0908308 0 -0.00103234)
(0 0 0)
(0.0156955 0 -0.000421476)
(0.0297655 0 -0.000803279)
(0.0418967 0 -0.0011401)
(0.0523201 0 -0.00143978)
(0.0612194 0 -0.00170724)
(0.0687575 0 -0.00194567)
(0.0750955 0 -0.00215777)
(0.0803712 0 -0.00234485)
(0.0847045 0 -0.00250729)
(0.0882111 0 -0.00264491)
(0.0909957 0 -0.00275642)
(0.0931552 0 -0.00283996)
(0.09478 0 -0.00289265)
(0.0959558 0 -0.00291098)
(0.0967747 0 -0.00289202)
(0.0973333 0 -0.0028331)
(0.0977259 0 -0.00273113)
(0.0980489 0 -0.00258319)
(0.0984065 0 -0.0023879)
(0.0989023 0 -0.00214483)
(0.0996659 0 -0.00185945)
(0 0 0)
(0.0158476 0 -0.000468121)
(0.0300632 0 -0.000892598)
(0.0423423 0 -0.00126785)
(0.0529213 0 -0.00160246)
(0.061985 0 -0.00190203)
(0.0697038 0 -0.00217065)
(0.0762444 0 -0.00241168)
(0.0817483 0 -0.00262677)
(0.086341 0 -0.0028169)
(0.090142 0 -0.00298251)
(0.09326 0 -0.00312284)
(0.0957978 0 -0.00323679)
(0.0978506 0 -0.00332218)
(0.0995133 0 -0.00337682)
(0.100885 0 -0.00339894)
(0.102065 0 -0.00338699)
(0.103155 0 -0.00333989)
(0.104259 0 -0.00325736)
(0.105489 0 -0.0031412)
(0.106965 0 -0.00299546)
(0.108812 0 -0.00282892)
(0 0 0)
(0.016007 0 -0.000514582)
(0.0303804 0 -0.00098171)
(0.0428151 0 -0.00139535)
(0.0535549 0 -0.00176487)
(0.0627933 0 -0.00209691)
(0.0707055 0 -0.00239656)
(0.0774614 0 -0.00266775)
(0.0832065 0 -0.00291269)
(0.0880709 0 -0.00313274)
(0.0921782 0 -0.00332895)
(0.0956414 0 -0.00350137)
(0.098567 0 -0.00364952)
(0.101056 0 -0.00377234)
(0.103215 0 -0.00386947)
(0.105151 0 -0.00394083)
(0.106961 0 -0.00398554)
(0.108748 0 -0.00400424)
(0.110627 0 -0.00399974)
(0.112716 0 -0.00397707)
(0.115146 0 -0.00394439)
(0.118037 0 -0.00391328)
(0 0 0)
(0.0161684 0 -0.000560665)
(0.0307078 0 -0.0010703)
(0.0433074 0 -0.00152226)
(0.0542149 0 -0.0019269)
(0.0636382 0 -0.00229208)
(0.0717554 0 -0.00262362)
(0.0787356 0 -0.00292586)
(0.0847284 0 -0.00320172)
(0.0898709 0 -0.00345332)
(0.0942913 0 -0.00368239)
(0.0981055 0 -0.00388971)
(0.101424 0 -0.00407574)
(0.104356 0 -0.00424077)
(0.107014 0 -0.00438601)
(0.109506 0 -0.00451237)
(0.111928 0 -0.00462032)
(0.114391 0 -0.00471281)
(0.117014 0 -0.00479528)
(0.119918 0 -0.00487545)
(0.123242 0 -0.0049656)
(0.127101 0 -0.00507931)
(0 0 0)
(0.0163286 0 -0.000606119)
(0.0310398 0 -0.00115805)
(0.0438122 0 -0.00164829)
(0.0548973 0 -0.00208833)
(0.0645139 0 -0.00248724)
(0.0728413 0 -0.00285126)
(0.0800497 0 -0.00318517)
(0.0862953 0 -0.00349287)
(0.0917208 0 -0.00377751)
(0.0964568 0 -0.0040413)
(0.100623 0 -0.00428586)
(0.104333 0 -0.00451269)
(0.107704 0 -0.00472366)
(0.110849 0 -0.00492074)
(0.11387 0 -0.00510549)
(0.116872 0 -0.0052808)
(0.119971 0 -0.00545193)
(0.123283 0 -0.0056263)
(0.126933 0 -0.00581414)
(0.131062 0 -0.00603067)
(0.135767 0 -0.00629035)
(0 0 0)
(0.0164911 0 -0.000650912)
(0.0313758 0 -0.00124461)
(0.0443247 0 -0.00177294)
(0.0555941 0 -0.00224852)
(0.0654086 0 -0.00268114)
(0.0739479 0 -0.00307782)
(0.0813877 0 -0.00344423)
(0.0878902 0 -0.00378494)
(0.0936 0 -0.00410382)
(0.0986495 0 -0.00440375)
(0.103162 0 -0.00468721)
(0.107255 0 -0.0049567)
(0.111046 0 -0.00521517)
(0.114646 0 -0.00546534)
(0.118162 0 -0.00571035)
(0.121702 0 -0.00595515)
(0.125378 0 -0.00620658)
(0.129306 0 -0.00647359)
(0.133615 0 -0.00676946)
(0.138428 0 -0.0071097)
(0.14382 0 -0.00750827)
(0 0 0)
(0.0166563 0 -0.000695211)
(0.0317142 0 -0.00133024)
(0.0448457 0 -0.00189665)
(0.0563014 0 -0.00240772)
(0.0663133 0 -0.002874)
(0.0750701 0 -0.00330367)
(0.0827461 0 -0.00370333)
(0.0895052 0 -0.00407794)
(0.0954963 0 -0.00443191)
(0.100854 0 -0.00476901)
(0.105703 0 -0.00509253)
(0.110163 0 -0.0054058)
(0.11435 0 -0.0057125)
(0.118376 0 -0.00601658)
(0.122348 0 -0.00632274)
(0.126375 0 -0.00663727)
(0.130563 0 -0.00696824)
(0.135025 0 -0.00732593)
(0.139886 0 -0.00772549)
(0.14524 0 -0.0081811)
(0.151142 0 -0.00870606)
(0.0320576 0 -0.0014157)
(0.0453733 0 -0.00202031)
(0.0570198 0 -0.00256716)
(0.0672335 0 -0.00306781)
(0.0762116 0 -0.00353121)
(0.0841266 0 -0.00396455)
(0.0911414 0 -0.00437361)
(0.0974098 0 -0.00476347)
(0.103069 0 -0.00513867)
(0.108245 0 -0.00550316)
(0.113055 0 -0.00586105)
(0.117616 0 -0.00621677)
(0.122036 0 -0.00657527)
(0.126424 0 -0.00694241)
(0.130881 0 -0.00732548)
(0.135511 0 -0.00773345)
(0.14042 0 -0.00817795)
(0.145711 0 -0.00867283)
(0.151446 0 -0.00923048)
(0.157671 0 -0.0098645)
(0.0459028 0 -0.00214284)
(0.0577429 0 -0.00272567)
(0.0681605 0 -0.00326104)
(0.0773572 0 -0.00375853)
(0.0855081 0 -0.00422583)
(0.0927763 0 -0.00466961)
(0.0993166 0 -0.00509583)
(0.105267 0 -0.00550947)
(0.110752 0 -0.00591512)
(0.11589 0 -0.00631753)
(0.120794 0 -0.00672178)
(0.12557 0 -0.00713357)
(0.13032 0 -0.00755948)
(0.135143 0 -0.00800735)
(0.140132 0 -0.0084866)
(0.14538 0 -0.00900899)
(0.150961 0 -0.00958575)
(0.156914 0 -0.0102276)
(0.163269 0 -0.0109476)
(0.058458 0 -0.00288078)
(0.0690755 0 -0.0034504)
(0.0784846 0 -0.00398166)
(0.0868639 0 -0.00448285)
(0.0943778 0 -0.00496137)
(0.101179 0 -0.00542366)
(0.107403 0 -0.00587518)
(0.113175 0 -0.0063211)
(0.11861 0 -0.00676666)
(0.123818 0 -0.00721743)
(0.1289 0 -0.0076795)
(0.133952 0 -0.00815975)
(0.139064 0 -0.00866608)
(0.144317 0 -0.00920754)
(0.149785 0 -0.00979447)
(0.155517 0 -0.0104364)
(0.161538 0 -0.0111426)
(0.167855 0 -0.0119238)
(0.0699624 0 -0.00363365)
(0.0795758 0 -0.00419785)
(0.0881734 0 -0.00473227)
(0.095919 0 -0.00524471)
(0.102962 0 -0.00574196)
(0.109437 0 -0.00622994)
(0.115467 0 -0.00671428)
(0.121163 0 -0.00720056)
(0.126631 0 -0.00769457)
(0.131966 0 -0.00820254)
(0.137256 0 -0.00873124)
(0.142579 0 -0.00928815)
(0.148003 0 -0.00988139)
(0.153584 0 -0.0105195)
(0.159353 0 -0.0112106)
(0.165322 0 -0.0119623)
(0.171477 0 -0.0127822)
(0.0806142 0 -0.00440491)
(0.0894159 0 -0.00497122)
(0.097375 0 -0.00551607)
(0.104639 0 -0.00604654)
(0.111338 0 -0.00656895)
(0.117594 0 -0.00708916)
(0.123514 0 -0.00761294)
(0.129196 0 -0.00814611)
(0.13473 0 -0.00869474)
(0.140194 0 -0.00926524)
(0.145656 0 -0.00986435)
(0.151172 0 -0.010499)
(0.156779 0 -0.0111762)
(0.162498 0 -0.0119022)
(0.168325 0 -0.0126827)
(0.174235 0 -0.0135226)
(0.0905735 0 -0.00519704)
(0.0987265 0 -0.00577242)
(0.106187 0 -0.00633402)
(0.113084 0 -0.00688835)
(0.119533 0 -0.00744141)
(0.125637 0 -0.00799897)
(0.13149 0 -0.00856671)
(0.137171 0 -0.00915036)
(0.142752 0 -0.00975573)
(0.14829 0 -0.0103887)
(0.153828 0 -0.0110549)
(0.159394 0 -0.0117598)
(0.164995 0 -0.0125079)
(0.17062 0 -0.013303)
(0.176237 0 -0.0141482)
(0.107589 0 -0.00660092)
(0.114655 0 -0.00718429)
(0.121265 0 -0.00776677)
(0.127516 0 -0.00835402)
(0.133496 0 -0.00895143)
(0.139277 0 -0.00956425)
(0.144924 0 -0.0101976)
(0.150483 0 -0.0108563)
(0.155989 0 -0.0115449)
(0.161461 0 -0.0122673)
(0.166899 0 -0.0130267)
(0.172286 0 -0.0138251)
(0.177591 0 -0.0146642)
(0.116035 0 -0.00745294)
(0.122773 0 -0.00806112)
(0.129136 0 -0.00867372)
(0.135204 0 -0.00929575)
(0.141044 0 -0.00993187)
(0.146712 0 -0.0105864)
(0.152248 0 -0.0112633)
(0.15768 0 -0.011966)
(0.16302 0 -0.0126971)
(0.168265 0 -0.0134586)
(0.173398 0 -0.0142513)
(0.178386 0 -0.0150749)
(0.130488 0 -0.00895399)
(0.136609 0 -0.00959556)
(0.142472 0 -0.0102493)
(0.148124 0 -0.0109187)
(0.153602 0 -0.0116069)
(0.158928 0 -0.0123163)
(0.164111 0 -0.0130485)
(0.169147 0 -0.0138043)
(0.17402 0 -0.0145836)
(0.178697 0 -0.0153843)
(0.143567 0 -0.0105131)
(0.149175 0 -0.0111915)
(0.154568 0 -0.0118848)
(0.159766 0 -0.0125945)
(0.164777 0 -0.0133212)
(0.169596 0 -0.0140651)
(0.174212 0 -0.0148251)
(0.178592 0 -0.0155977)
(0.149881 0 -0.0114023)
(0.155171 0 -0.0120952)
(0.160227 0 -0.0127996)
(0.165058 0 -0.0135156)
(0.169661 0 -0.0142425)
(0.174027 0 -0.0149786)
(0.178129 0 -0.0157197)
(0.160344 0 -0.012931)
(0.164995 0 -0.0136322)
(0.169388 0 -0.0143383)
(0.173514 0 -0.0150468)
(0.177356 0 -0.0157538)
(0.168812 0 -0.0143526)
(0.172714 0 -0.0150313)
(0.176319 0 -0.0157034)
(0.0320576 0 -0.0014157)
(0.0453733 0 -0.00202031)
(0.0570198 0 -0.00256716)
(0.0672335 0 -0.00306781)
(0.0762116 0 -0.00353121)
(0.0841266 0 -0.00396455)
(0.0911414 0 -0.00437361)
(0.0974098 0 -0.00476347)
(0.103069 0 -0.00513867)
(0.108245 0 -0.00550316)
(0.113055 0 -0.00586105)
(0.117616 0 -0.00621677)
(0.122036 0 -0.00657527)
(0.126424 0 -0.00694241)
(0.130881 0 -0.00732548)
(0.135511 0 -0.00773345)
(0.14042 0 -0.00817795)
(0.145711 0 -0.00867283)
(0.151446 0 -0.00923048)
(0.157671 0 -0.0098645)
(0.0459028 0 -0.00214284)
(0.0577429 0 -0.00272567)
(0.0681605 0 -0.00326104)
(0.0773572 0 -0.00375853)
(0.0855081 0 -0.00422583)
(0.0927763 0 -0.00466961)
(0.0993166 0 -0.00509583)
(0.105267 0 -0.00550947)
(0.110752 0 -0.00591512)
(0.11589 0 -0.00631753)
(0.120794 0 -0.00672178)
(0.12557 0 -0.00713357)
(0.13032 0 -0.00755948)
(0.135143 0 -0.00800735)
(0.140132 0 -0.0084866)
(0.14538 0 -0.00900899)
(0.150961 0 -0.00958575)
(0.156914 0 -0.0102276)
(0.163269 0 -0.0109476)
(0.058458 0 -0.00288078)
(0.0690755 0 -0.0034504)
(0.0784846 0 -0.00398166)
(0.0868639 0 -0.00448285)
(0.0943778 0 -0.00496137)
(0.101179 0 -0.00542366)
(0.107403 0 -0.00587518)
(0.113175 0 -0.0063211)
(0.11861 0 -0.00676666)
(0.123818 0 -0.00721743)
(0.1289 0 -0.0076795)
(0.133952 0 -0.00815975)
(0.139064 0 -0.00866608)
(0.144317 0 -0.00920754)
(0.149785 0 -0.00979447)
(0.155517 0 -0.0104364)
(0.161538 0 -0.0111426)
(0.167855 0 -0.0119238)
(0.0699624 0 -0.00363365)
(0.0795758 0 -0.00419785)
(0.0881734 0 -0.00473227)
(0.095919 0 -0.00524471)
(0.102962 0 -0.00574196)
(0.109437 0 -0.00622994)
(0.115467 0 -0.00671428)
(0.121163 0 -0.00720056)
(0.126631 0 -0.00769457)
(0.131966 0 -0.00820254)
(0.137256 0 -0.00873124)
(0.142579 0 -0.00928815)
(0.148003 0 -0.00988139)
(0.153584 0 -0.0105195)
(0.159353 0 -0.0112106)
(0.165322 0 -0.0119623)
(0.171477 0 -0.0127822)
(0.0806142 0 -0.00440491)
(0.0894159 0 -0.00497122)
(0.097375 0 -0.00551607)
(0.104639 0 -0.00604654)
(0.111338 0 -0.00656895)
(0.117594 0 -0.00708916)
(0.123514 0 -0.00761294)
(0.129196 0 -0.00814611)
(0.13473 0 -0.00869474)
(0.140194 0 -0.00926524)
(0.145656 0 -0.00986435)
(0.151172 0 -0.010499)
(0.156779 0 -0.0111762)
(0.162498 0 -0.0119022)
(0.168325 0 -0.0126827)
(0.174235 0 -0.0135226)
(0.0905735 0 -0.00519704)
(0.0987265 0 -0.00577242)
(0.106187 0 -0.00633402)
(0.113084 0 -0.00688835)
(0.119533 0 -0.00744141)
(0.125637 0 -0.00799897)
(0.13149 0 -0.00856671)
(0.137171 0 -0.00915036)
(0.142752 0 -0.00975573)
(0.14829 0 -0.0103887)
(0.153828 0 -0.0110549)
(0.159394 0 -0.0117598)
(0.164995 0 -0.0125079)
(0.17062 0 -0.013303)
(0.176237 0 -0.0141482)
(0.107589 0 -0.00660092)
(0.114655 0 -0.00718429)
(0.121265 0 -0.00776677)
(0.127516 0 -0.00835402)
(0.133496 0 -0.00895143)
(0.139277 0 -0.00956425)
(0.144924 0 -0.0101976)
(0.150483 0 -0.0108563)
(0.155989 0 -0.0115449)
(0.161461 0 -0.0122673)
(0.166899 0 -0.0130267)
(0.172286 0 -0.0138251)
(0.177591 0 -0.0146642)
(0.116035 0 -0.00745294)
(0.122773 0 -0.00806112)
(0.129136 0 -0.00867372)
(0.135204 0 -0.00929575)
(0.141044 0 -0.00993187)
(0.146712 0 -0.0105864)
(0.152248 0 -0.0112633)
(0.15768 0 -0.011966)
(0.16302 0 -0.0126971)
(0.168265 0 -0.0134586)
(0.173398 0 -0.0142513)
(0.178386 0 -0.0150749)
(0.130488 0 -0.00895399)
(0.136609 0 -0.00959556)
(0.142472 0 -0.0102493)
(0.148124 0 -0.0109187)
(0.153602 0 -0.0116069)
(0.158928 0 -0.0123163)
(0.164111 0 -0.0130485)
(0.169147 0 -0.0138043)
(0.17402 0 -0.0145836)
(0.178697 0 -0.0153843)
(0.143567 0 -0.0105131)
(0.149175 0 -0.0111915)
(0.154568 0 -0.0118848)
(0.159766 0 -0.0125945)
(0.164777 0 -0.0133212)
(0.169596 0 -0.0140651)
(0.174212 0 -0.0148251)
(0.178592 0 -0.0155977)
(0.149881 0 -0.0114023)
(0.155171 0 -0.0120952)
(0.160227 0 -0.0127996)
(0.165058 0 -0.0135156)
(0.169661 0 -0.0142425)
(0.174027 0 -0.0149786)
(0.178129 0 -0.0157197)
(0.160344 0 -0.012931)
(0.164995 0 -0.0136322)
(0.169388 0 -0.0143383)
(0.173514 0 -0.0150468)
(0.177356 0 -0.0157538)
(0.168812 0 -0.0143526)
(0.172714 0 -0.0150313)
(0.176319 0 -0.0157034)
)
;

boundaryField
{
    inlet
    {
        type            fixedValue;
        value           uniform (0 0 0);
    }
    outlet
    {
        type            fixedValue;
        value           nonuniform 0();
    }
    flap
    {
        type            fixedValue;
        value           nonuniform 0();
    }
    upperWall
    {
        type            slip;
    }
    lowerWall
    {
        type            slip;
    }
    frontAndBack
    {
        type            empty;
    }
    procBoundary3to0
    {
        type            processor;
    }
    procBoundary3to1
    {
        type            processor;
    }
    procBoundary3to4
    {
        type            processor;
    }
}


// ************************************************************************* //
