/*--------------------------------*- C++ -*----------------------------------*\
| =========                 |                                                 |
| \\      /  F ield         | OpenFOAM: The Open Source CFD Toolbox           |
|  \\    /   O peration     | Version:  dev                                   |
|   \\  /    A nd           | Web:      www.OpenFOAM.org                      |
|    \\/     M anipulation  |                                                 |
\*---------------------------------------------------------------------------*/
FoamFile
{
    version     2.0;
    format      ascii;
    class       volVectorField;
    location    "3.57";
    object      cellDisplacement;
}
// * * * * * * * * * * * * * * * * * * * * * * * * * * * * * * * * * * * * * //

dimensions      [0 1 0 0 0 0 0];

internalField   nonuniform List<vector> 
2790
(
(0.00157 0 9.42246e-07)
(0.00451768 0 2.7505e-06)
(0.00710605 0 4.44846e-06)
(0.00936288 0 6.1034e-06)
(0.0113148 0 7.773e-06)
(0.0129862 0 9.50939e-06)
(0.014399 0 1.13627e-05)
(0.0155727 0 1.33843e-05)
(0.0165246 0 1.56292e-05)
(0.0172699 0 1.81591e-05)
(0.0178214 0 2.10456e-05)
(0.0181903 0 2.43732e-05)
(0.0183856 0 2.82438e-05)
(0.0184148 0 3.27816e-05)
(0.0182838 0 3.81397e-05)
(0.017997 0 4.45075e-05)
(0.0175575 0 5.21217e-05)
(0.0169677 0 6.12786e-05)
(0.0162293 0 7.23515e-05)
(0.0153435 0 8.58115e-05)
(0.0143122 0 0.000102255)
(0.0131386 0 0.000122435)
(0.0118279 0 0.000147304)
(0.0103896 0 0.000178051)
(0.00884012 0 0.00021613)
(0.00720722 0 0.000263241)
(0.0055379 0 0.000321137)
(0.00391358 0 0.000390893)
(0.00248287 0 0.000470192)
(0.00155728 0 0.000543274)
(0.00157121 0 2.81922e-06)
(0.00452132 0 8.22936e-06)
(0.00711216 0 1.33088e-05)
(0.00937164 0 1.82582e-05)
(0.0113265 0 2.32495e-05)
(0.0130013 0 2.84379e-05)
(0.014418 0 3.39727e-05)
(0.0155963 0 4.00059e-05)
(0.0165536 0 4.67006e-05)
(0.0173053 0 5.42393e-05)
(0.0178646 0 6.28327e-05)
(0.0182426 0 7.27294e-05)
(0.0184488 0 8.42282e-05)
(0.0184911 0 9.76926e-05)
(0.0183757 0 0.000113569)
(0.0181075 0 0.000132407)
(0.0176905 0 0.000154892)
(0.0171276 0 0.000181878)
(0.0164214 0 0.000214432)
(0.0155745 0 0.000253894)
(0.0145903 0 0.00030194)
(0.0134736 0 0.000360668)
(0.0122323 0 0.00043268)
(0.010879 0 0.000521148)
(0.00943436 0 0.000629797)
(0.00793165 0 0.000762659)
(0.00642529 0 0.000923157)
(0.00500535 0 0.00111135)
(0.00382428 0 0.00131577)
(0.00315187 0 0.00148887)
(0.00157363 0 4.67333e-06)
(0.00452855 0 1.36408e-05)
(0.00712429 0 2.20575e-05)
(0.00938902 0 3.02542e-05)
(0.0113498 0 3.85138e-05)
(0.0130312 0 4.70911e-05)
(0.0144557 0 5.62302e-05)
(0.0156431 0 6.61791e-05)
(0.0166113 0 7.72024e-05)
(0.0173757 0 8.9595e-05)
(0.0179501 0 0.000103696)
(0.0183462 0 0.000119902)
(0.018574 0 0.00013869)
(0.0186419 0 0.000160635)
(0.0185571 0 0.000186437)
(0.0183256 0 0.000216958)
(0.0179523 0 0.000253256)
(0.0174419 0 0.000296639)
(0.0167986 0 0.000348723)
(0.0160272 0 0.000411502)
(0.0151337 0 0.00048743)
(0.0141264 0 0.000579491)
(0.0130172 0 0.000691264)
(0.011824 0 0.000826881)
(0.0105736 0 0.000990787)
(0.00930641 0 0.00118697)
(0.0080831 0 0.001417)
(0.00699389 0 0.00167527)
(0.00616869 0 0.00193797)
(0.00578801 0 0.00213811)
(0.00157722 0 6.48892e-06)
(0.00453927 0 1.89386e-05)
(0.00714227 0 3.06179e-05)
(0.00941478 0 4.19822e-05)
(0.0113842 0 5.34198e-05)
(0.0130755 0 6.52797e-05)
(0.0145114 0 7.78939e-05)
(0.0157123 0 9.15981e-05)
(0.0166964 0 0.000106748)
(0.0174796 0 0.000123738)
(0.0180762 0 0.000143016)
(0.0184987 0 0.000165106)
(0.0187579 0 0.000190628)
(0.0188633 0 0.000220326)
(0.018823 0 0.000255097)
(0.0186446 0 0.000296031)
(0.0183346 0 0.00034445)
(0.0178996 0 0.00040196)
(0.0173464 0 0.000470508)
(0.0166824 0 0.000552439)
(0.0159172 0 0.000650542)
(0.015063 0 0.000768076)
(0.0141366 0 0.000908711)
(0.013161 0 0.0010763)
(0.0121687 0 0.00127432)
(0.0112045 0 0.00150451)
(0.0103292 0 0.00176422)
(0.00962072 0 0.00204102)
(0.00916927 0 0.00230295)
(0.00905921 0 0.00248239)
(0.00158193 0 8.25051e-06)
(0.00455334 0 2.40769e-05)
(0.00716583 0 3.89141e-05)
(0.00944848 0 5.33342e-05)
(0.0114292 0 6.78242e-05)
(0.0131334 0 8.28187e-05)
(0.0145843 0 9.87293e-05)
(0.0158026 0 0.000115968)
(0.0168072 0 0.000134969)
(0.0176147 0 0.000156205)
(0.0182401 0 0.000180213)
(0.0186966 0 0.000207612)
(0.0189962 0 0.000239124)
(0.0191494 0 0.000275608)
(0.0191659 0 0.000318085)
(0.0190549 0 0.000367772)
(0.0188249 0 0.000426121)
(0.0184847 0 0.000494854)
(0.0180439 0 0.000575998)
(0.017513 0 0.000671907)
(0.016905 0 0.000785245)
(0.0162361 0 0.000918917)
(0.0155272 0 0.00107586)
(0.0148052 0 0.00125863)
(0.0141054 0 0.00146851)
(0.0134721 0 0.00170395)
(0.0129584 0 0.00195786)
(0.0126208 0 0.0022132)
(0.0125033 0 0.00243697)
(0.0126059 0 0.00257408)
(0.0015877 0 9.94318e-06)
(0.00457053 0 2.90116e-05)
(0.00719457 0 4.68732e-05)
(0.00948956 0 6.42073e-05)
(0.011484 0 8.15903e-05)
(0.0132038 0 9.95333e-05)
(0.0146727 0 0.000118516)
(0.0159122 0 0.000139015)
(0.0169416 0 0.000161523)
(0.0177783 0 0.000186576)
(0.018438 0 0.000214768)
(0.0189352 0 0.000246778)
(0.0192827 0 0.000283387)
(0.0194926 0 0.000325506)
(0.0195761 0 0.000374198)
(0.019544 0 0.000430705)
(0.0194072 0 0.000496467)
(0.0191768 0 0.000573139)
(0.0188649 0 0.000662587)
(0.0184851 0 0.00076686)
(0.0180535 0 0.000888101)
(0.0175892 0 0.00102837)
(0.0171157 0 0.0011893)
(0.0166614 0 0.00137155)
(0.0162604 0 0.00157381)
(0.0159514 0 0.00179136)
(0.0157738 0 0.00201401)
(0.015758 0 0.00222362)
(0.0159047 0 0.00239221)
(0.0161519 0 0.00248299)
(0.00159442 0 1.1553e-05)
(0.00459055 0 3.37016e-05)
(0.007228 0 5.44273e-05)
(0.00953729 0 7.45059e-05)
(0.0115476 0 9.45925e-05)
(0.0132854 0 0.000115264)
(0.0147752 0 0.000137056)
(0.0160389 0 0.000160494)
(0.0170967 0 0.000186114)
(0.0179667 0 0.000214488)
(0.0186656 0 0.000246243)
(0.0192087 0 0.000282078)
(0.0196104 0 0.000322787)
(0.0198838 0 0.000369271)
(0.0200419 0 0.000422558)
(0.0200974 0 0.000483812)
(0.020063 0 0.000554336)
(0.0199523 0 0.000635556)
(0.0197795 0 0.000728983)
(0.0195609 0 0.000836125)
(0.0193145 0 0.000958335)
(0.0190614 0 0.00109655)
(0.0188255 0 0.00125087)
(0.0186337 0 0.00141997)
(0.0185153 0 0.00160023)
(0.0184991 0 0.00178465)
(0.0186074 0 0.00196186)
(0.0188445 0 0.00211558)
(0.0191771 0 0.00222599)
(0.0195062 0 0.00227468)
(0.00160199 0 1.30674e-05)
(0.00461304 0 3.81098e-05)
(0.00726551 0 6.15155e-05)
(0.0095908 0 8.41447e-05)
(0.0116188 0 0.00010672)
(0.0133767 0 0.000129872)
(0.0148896 0 0.000154179)
(0.0161802 0 0.000180199)
(0.0172693 0 0.000208495)
(0.0181759 0 0.000239652)
(0.0189177 0 0.000274299)
(0.0195109 0 0.000313123)
(0.0199711 0 0.000356881)
(0.0203129 0 0.000406412)
(0.0205508 0 0.000462638)
(0.020699 0 0.000526562)
(0.0207723 0 0.000599246)
(0.0207859 0 0.000681773)
(0.0207561 0 0.000775165)
(0.0207008 0 0.000880262)
(0.0206392 0 0.000997516)
(0.0205925 0 0.00112669)
(0.0205831 0 0.00126646)
(0.0206341 0 0.00141385)
(0.0207668 0 0.00156361)
(0.0209976 0 0.00170772)
(0.0213307 0 0.00183529)
(0.0217479 0 0.00193371)
(0.0221932 0 0.00199187)
(0.0225532 0 0.00200671)
(0.00161025 0 1.44753e-05)
(0.00463759 0 4.22039e-05)
(0.00730642 0 6.80853e-05)
(0.0096491 0 9.3051e-05)
(0.0116963 0 0.000117879)
(0.013476 0 0.000143241)
(0.0150139 0 0.000169746)
(0.0163334 0 0.00019797)
(0.017456 0 0.000228481)
(0.0184017 0 0.000261858)
(0.0191888 0 0.000298706)
(0.0198349 0 0.000339665)
(0.0203563 0 0.000385421)
(0.0207691 0 0.000436701)
(0.0210891 0 0.000494267)
(0.0213321 0 0.000558899)
(0.0215141 0 0.000631353)
(0.0216519 0 0.000712297)
(0.0217631 0 0.000802214)
(0.0218663 0 0.000901251)
(0.0219808 0 0.001009)
(0.0221266 0 0.00112421)
(0.0223231 0 0.00124446)
(0.0225875 0 0.00136569)
(0.022932 0 0.00148196)
(0.0233595 0 0.00158537)
(0.0238573 0 0.00166673)
(0.0243896 0 0.00171765)
(0.0248881 0 0.00173462)
(0.0252424 0 0.00172559)
(0.00161905 0 1.57675e-05)
(0.00466373 0 4.5957e-05)
(0.00734996 0 7.40931e-05)
(0.0097111 0 0.000101166)
(0.0117786 0 0.000127995)
(0.0135814 0 0.000155283)
(0.0151456 0 0.000183654)
(0.0164954 0 0.000213689)
(0.0176531 0 0.000245946)
(0.0186392 0 0.000280976)
(0.0194732 0 0.000319339)
(0.0201733 0 0.000361603)
(0.0207571 0 0.000408348)
(0.0212415 0 0.000460157)
(0.0216435 0 0.000517598)
(0.02198 0 0.000581189)
(0.0222682 0 0.000651349)
(0.0225257 0 0.000728318)
(0.0227706 0 0.000812052)
(0.0230216 0 0.000902069)
(0.023297 0 0.000997256)
(0.0236149 0 0.00109564)
(0.0239903 0 0.00119413)
(0.0244343 0 0.00128832)
(0.0249495 0 0.00137242)
(0.0255265 0 0.00143959)
(0.0261385 0 0.00148299)
(0.0267366 0 0.00149811)
(0.0272478 0 0.00148686)
(0.0275757 0 0.00146353)
(0.00162823 0 1.69367e-05)
(0.00469098 0 4.93478e-05)
(0.00739531 0 7.95055e-05)
(0.00977564 0 0.000108444)
(0.0118643 0 0.000137014)
(0.0136908 0 0.000165935)
(0.0152822 0 0.000195836)
(0.0166631 0 0.000227289)
(0.0178566 0 0.000260827)
(0.0188839 0 0.000296959)
(0.0197651 0 0.00033618)
(0.0205192 0 0.000378966)
(0.0211647 0 0.000425774)
(0.0217194 0 0.000477021)
(0.0222009 0 0.000533061)
(0.022627 0 0.000594143)
(0.0230155 0 0.000660349)
(0.0233843 0 0.00073152)
(0.0237515 0 0.000807149)
(0.024135 0 0.000886251)
(0.0245517 0 0.000967223)
(0.0250167 0 0.00104769)
(0.0255411 0 0.00112439)
(0.0261295 0 0.00119318)
(0.0267769 0 0.00124918)
(0.0274639 0 0.00128728)
(0.0281533 0 0.0013032)
(0.0287874 0 0.00129548)
(0.0292917 0 0.00126875)
(0.0295863 0 0.00123913)
(0.0016376 0 1.79775e-05)
(0.0047188 0 5.23612e-05)
(0.00744161 0 8.42989e-05)
(0.00984152 0 0.000114855)
(0.0119517 0 0.000144901)
(0.0138024 0 0.000175161)
(0.0154212 0 0.00020626)
(0.0168335 0 0.000238747)
(0.0180628 0 0.000273119)
(0.0191309 0 0.000309832)
(0.0200587 0 0.000349303)
(0.0208656 0 0.000391905)
(0.0215708 0 0.00043796)
(0.0221926 0 0.000487713)
(0.0227492 0 0.000541304)
(0.0232587 0 0.000598723)
(0.023739 0 0.00065975)
(0.0242079 0 0.00072388)
(0.0246828 0 0.000790242)
(0.0251803 0 0.000857502)
(0.0257155 0 0.000923785)
(0.0263004 0 0.000986617)
(0.0269423 0 0.00104297)
(0.027641 0 0.00108943)
(0.0283859 0 0.0011225)
(0.029152 0 0.00113927)
(0.0298961 0 0.00113816)
(0.0305558 0 0.00112005)
(0.0310549 0 0.00108994)
(0.0313225 0 0.00106107)
(0.00164699 0 1.88866e-05)
(0.00474665 0 5.49875e-05)
(0.00748797 0 8.84595e-05)
(0.00990751 0 0.000120385)
(0.0120393 0 0.000151642)
(0.0139141 0 0.000182952)
(0.0155602 0 0.000214924)
(0.0170035 0 0.000248079)
(0.0182679 0 0.000282868)
(0.0193759 0 0.000319685)
(0.0203486 0 0.000358862)
(0.021206 0 0.000400666)
(0.0219675 0 0.00044528)
(0.0226519 0 0.000492786)
(0.0232775 0 0.000543125)
(0.0238624 0 0.000596055)
(0.024424 0 0.000651101)
(0.0249796 0 0.000707493)
(0.0255456 0 0.000764103)
(0.0261368 0 0.000819398)
(0.026766 0 0.000871422)
(0.0274426 0 0.000917831)
(0.0281706 0 0.00095606)
(0.0289466 0 0.000983629)
(0.0297574 0 0.000998642)
(0.0305767 0 0.00100049)
(0.0313621 0 0.000990541)
(0.0320524 0 0.000972301)
(0.0325694 0 0.000950534)
(0.0328357 0 0.000931256)
(0.00165619 0 1.96623e-05)
(0.00477399 0 5.72224e-05)
(0.00753352 0 9.19825e-05)
(0.00997238 0 0.000125029)
(0.0121254 0 0.000157239)
(0.0140239 0 0.000189321)
(0.0156967 0 0.000221859)
(0.0171701 0 0.000255341)
(0.0184685 0 0.000290167)
(0.0196146 0 0.000326663)
(0.0206298 0 0.000365077)
(0.0215344 0 0.000405568)
(0.0223481 0 0.000448195)
(0.0230894 0 0.000492884)
(0.0237767 0 0.000539406)
(0.0244275 0 0.000587331)
(0.0250587 0 0.000635989)
(0.0256865 0 0.000684422)
(0.0263258 0 0.000731359)
(0.0269895 0 0.000775194)
(0.0276881 0 0.000814028)
(0.0284282 0 0.00084577)
(0.0292114 0 0.000868377)
(0.0300324 0 0.00088024)
(0.0308777 0 0.000880779)
(0.0317238 0 0.000871286)
(0.0325352 0 0.000855869)
(0.0332618 0 0.000841803)
(0.0338327 0 0.000836927)
(0.0341507 0 0.000839758)
(0.00166501 0 2.03048e-05)
(0.00480026 0 5.90664e-05)
(0.00757736 0 9.48722e-05)
(0.0100349 0 0.000128799)
(0.0122084 0 0.000161711)
(0.0141299 0 0.0001943)
(0.0158284 0 0.00022712)
(0.0173306 0 0.000260618)
(0.0186612 0 0.000295142)
(0.019843 0 0.000330952)
(0.0208978 0 0.000368212)
(0.0218458 0 0.000406985)
(0.0227064 0 0.000447213)
(0.0234982 0 0.000488695)
(0.024239 0 0.000531063)
(0.0249456 0 0.000573747)
(0.0256341 0 0.000615944)
(0.0263191 0 0.000656594)
(0.0270138 0 0.000694372)
(0.0277291 0 0.000727708)
(0.028473 0 0.000754849)
(0.0292497 0 0.000773994)
(0.0300585 0 0.00078355)
(0.0308929 0 0.000782488)
(0.0317397 0 0.000770851)
(0.0325792 0 0.000750506)
(0.0333848 0 0.000726306)
(0.0341237 0 0.00070796)
(0.0347522 0 0.000711984)
(0.0351832 0 0.000747317)
(0.00159558 0 -0.000503137)
(0.00267481 0 -0.000455731)
(0.00431715 0 -0.000391692)
(0.00618361 0 -0.000330301)
(0.00808611 0 -0.000276681)
(0.00992214 0 -0.00023154)
(0.0116364 0 -0.000194147)
(0.0132 0 -0.000163377)
(0.0145993 0 -0.000138099)
(0.015829 0 -0.000117307)
(0.016888 0 -0.000100148)
(0.0177777 0 -8.59296e-05)
(0.0185003 0 -7.40883e-05)
(0.0190577 0 -6.41716e-05)
(0.0194509 0 -5.58155e-05)
(0.0196797 0 -4.87275e-05)
(0.0197426 0 -4.26714e-05)
(0.0196365 0 -3.74556e-05)
(0.0193564 0 -3.29238e-05)
(0.0188959 0 -2.89472e-05)
(0.0182466 0 -2.54185e-05)
(0.0173984 0 -2.22469e-05)
(0.016339 0 -1.93539e-05)
(0.0150548 0 -1.66702e-05)
(0.0135297 0 -1.41323e-05)
(0.0117461 0 -1.16797e-05)
(0.00968433 0 -9.25191e-06)
(0.00732311 0 -6.78558e-06)
(0.00463949 0 -4.21057e-06)
(0.00160836 0 -1.44444e-06)
(0.00311596 0 -0.00139768)
(0.00402124 0 -0.0012804)
(0.00544945 0 -0.00111409)
(0.0071188 0 -0.000948535)
(0.00885331 0 -0.000800377)
(0.0105502 0 -0.000673601)
(0.0121505 0 -0.000567369)
(0.0136214 0 -0.000479202)
(0.0149451 0 -0.000406288)
(0.0161132 0 -0.00034599)
(0.0171218 0 -0.000296012)
(0.0179703 0 -0.000254445)
(0.0186592 0 -0.00021972)
(0.0191888 0 -0.000190562)
(0.0195591 0 -0.000165936)
(0.019769 0 -0.000145006)
(0.0198163 0 -0.000127091)
(0.0196973 0 -0.000111638)
(0.0194065 0 -9.81927e-05)
(0.0189371 0 -8.63797e-05)
(0.0182804 0 -7.58853e-05)
(0.017426 0 -6.64432e-05)
(0.0163615 0 -5.78227e-05)
(0.0150729 0 -4.98193e-05)
(0.0135441 0 -4.2245e-05)
(0.0117574 0 -3.49204e-05)
(0.00969288 0 -2.76661e-05)
(0.00732916 0 -2.02935e-05)
(0.00464318 0 -1.25935e-05)
(0.00160961 0 -4.32035e-06)
(0.00568503 0 -0.00204319)
(0.00638484 0 -0.00190144)
(0.00749864 0 -0.00168469)
(0.00884632 0 -0.0014567)
(0.0102906 0 -0.00124472)
(0.011739 0 -0.0010583)
(0.0131313 0 -0.000898873)
(0.01443 0 -0.000764459)
(0.0156119 0 -0.000651893)
(0.0166633 0 -0.000557849)
(0.0175759 0 -0.000479237)
(0.0183453 0 -0.000413386)
(0.018969 0 -0.000358042)
(0.0194447 0 -0.000311328)
(0.0197706 0 -0.000271697)
(0.0199438 0 -0.00023788)
(0.0199606 0 -0.000208835)
(0.0198163 0 -0.000183705)
(0.0195046 0 -0.000161779)
(0.0190177 0 -0.000142467)
(0.0183465 0 -0.000125273)
(0.01748 0 -0.000109771)
(0.0164054 0 -9.55928e-05)
(0.0151082 0 -8.24078e-05)
(0.0135723 0 -6.99117e-05)
(0.0117794 0 -5.78125e-05)
(0.00970947 0 -4.58168e-05)
(0.0073409 0 -3.36151e-05)
(0.00465031 0 -2.08639e-05)
(0.00161205 0 -7.15814e-06)
(0.00891146 0 -0.00243451)
(0.00940047 0 -0.00229513)
(0.0101731 0 -0.0020706)
(0.0111487 0 -0.00182203)
(0.0122399 0 -0.00158119)
(0.0133741 0 -0.00136234)
(0.0144959 0 -0.00117023)
(0.0155656 0 -0.00100478)
(0.0165554 0 -0.000863793)
(0.0174464 0 -0.000744287)
(0.0182257 0 -0.000643172)
(0.0188842 0 -0.000557595)
(0.0194157 0 -0.000485036)
(0.0198151 0 -0.000423327)
(0.0200774 0 -0.000370629)
(0.0201978 0 -0.000325402)
(0.0201708 0 -0.000286358)
(0.01999 0 -0.000252422)
(0.0196479 0 -0.000222694)
(0.0191357 0 -0.000196414)
(0.0184433 0 -0.000172939)
(0.0175591 0 -0.000151712)
(0.0164697 0 -0.000132245)
(0.0151601 0 -0.000114098)
(0.0136136 0 -9.68627e-05)
(0.0118116 0 -8.01441e-05)
(0.00973381 0 -6.35431e-05)
(0.00735811 0 -4.66364e-05)
(0.00466076 0 -2.89526e-05)
(0.0016156 0 -9.93447e-06)
(0.0124396 0 -0.00260712)
(0.0127335 0 -0.00248413)
(0.0131856 0 -0.00227925)
(0.0137951 0 -0.00204196)
(0.0145229 0 -0.00180233)
(0.0153204 0 -0.00157668)
(0.0161426 0 -0.00137251)
(0.0169516 0 -0.00119215)
(0.017718 0 -0.00103512)
(0.0184192 0 -0.000899586)
(0.0190381 0 -0.000783131)
(0.0195619 0 -0.000683266)
(0.0199803 0 -0.000597633)
(0.020285 0 -0.000524086)
(0.0204681 0 -0.000460741)
(0.0205223 0 -0.000405965)
(0.02044 0 -0.000358363)
(0.020213 0 -0.000316742)
(0.0198322 0 -0.000280088)
(0.0192877 0 -0.000247531)
(0.0185683 0 -0.000218322)
(0.0176613 0 -0.000191807)
(0.0165528 0 -0.000167406)
(0.0152271 0 -0.000144587)
(0.013667 0 -0.000122855)
(0.0118533 0 -0.000101724)
(0.0097653 0 -8.06994e-05)
(0.00738037 0 -5.92539e-05)
(0.00467426 0 -3.67968e-05)
(0.00162019 0 -1.2628e-05)
(0.0159897 0 -0.002609)
(0.0161168 0 -0.00250923)
(0.0162958 0 -0.00233912)
(0.016581 0 -0.00213339)
(0.016972 0 -0.00191652)
(0.0174446 0 -0.00170421)
(0.0179669 0 -0.00150547)
(0.018507 0 -0.0013247)
(0.0190369 0 -0.00116334)
(0.019533 0 -0.00102106)
(0.0199758 0 -0.000896553)
(0.0203492 0 -0.000788094)
(0.0206401 0 -0.000693819)
(0.0208369 0 -0.000611887)
(0.0209291 0 -0.000540583)
(0.0209067 0 -0.000478358)
(0.02076 0 -0.000423841)
(0.0204788 0 -0.000375827)
(0.0200525 0 -0.000333266)
(0.0194698 0 -0.000295241)
(0.0187182 0 -0.000260946)
(0.0177842 0 -0.000229665)
(0.0166529 0 -0.000200753)
(0.0153079 0 -0.000173612)
(0.0137313 0 -0.000147676)
(0.0119035 0 -0.000122383)
(0.0098032 0 -9.7156e-05)
(0.00740714 0 -7.13748e-05)
(0.00469048 0 -4.43399e-05)
(0.00162571 0 -1.52196e-05)
(0.0193611 0 -0.00248783)
(0.0193582 0 -0.00241491)
(0.0193243 0 -0.00228645)
(0.0193451 0 -0.00212282)
(0.0194479 0 -0.0019415)
(0.0196294 0 -0.0017559)
(0.0198723 0 -0.00157532)
(0.0201535 0 -0.00140553)
(0.0204495 0 -0.0012496)
(0.0207381 0 -0.00110873)
(0.0209992 0 -0.000982861)
(0.0212152 0 -0.000871213)
(0.0213708 0 -0.000772632)
(0.0214518 0 -0.000685773)
(0.0214453 0 -0.000609263)
(0.0213391 0 -0.000541777)
(0.0211213 0 -0.000482084)
(0.02078 0 -0.000429062)
(0.0203029 0 -0.000381701)
(0.0196773 0 -0.000339096)
(0.0188894 0 -0.000300429)
(0.0179247 0 -0.000264963)
(0.0167674 0 -0.000232016)
(0.0154004 0 -0.000200948)
(0.0138051 0 -0.000171141)
(0.0119612 0 -0.000141973)
(0.00984666 0 -0.000112799)
(0.00743781 0 -8.29171e-05)
(0.00470905 0 -5.15318e-05)
(0.00163201 0 -1.7692e-05)
(0.0224301 0 -0.0022903)
(0.0223374 0 -0.00224461)
(0.0221529 0 -0.00215835)
(0.021974 0 -0.00203958)
(0.0218453 0 -0.00189897)
(0.0217808 0 -0.00174696)
(0.0217772 0 -0.0015922)
(0.0218221 0 -0.00144108)
(0.0218982 0 -0.00129779)
(0.0219871 0 -0.00116478)
(0.02207 0 -0.00104313)
(0.0221289 0 -0.000933011)
(0.0221474 0 -0.000834051)
(0.0221096 0 -0.000745496)
(0.0220008 0 -0.000666416)
(0.0218069 0 -0.000595809)
(0.0215141 0 -0.000532676)
(0.0211088 0 -0.000476051)
(0.0205772 0 -0.000425029)
(0.0199051 0 -0.000378766)
(0.0190779 0 -0.000336483)
(0.0180797 0 -0.000297449)
(0.016894 0 -0.000260979)
(0.0155028 0 -0.000226412)
(0.0138867 0 -0.000193097)
(0.0120249 0 -0.00016037)
(0.00989473 0 -0.000127531)
(0.00747171 0 -9.38104e-05)
(0.00472955 0 -5.83288e-05)
(0.00163896 0 -2.00303e-05)
(0.0251414 0 -0.00205898)
(0.0249964 0 -0.00203729)
(0.0247168 0 -0.00198865)
(0.0243974 0 -0.00191149)
(0.0240921 0 -0.0018107)
(0.0238286 0 -0.00169367)
(0.0236167 0 -0.00156785)
(0.0234546 0 -0.00143953)
(0.0233327 0 -0.00131345)
(0.0232375 0 -0.00119284)
(0.0231525 0 -0.00107964)
(0.0230609 0 -0.000974858)
(0.0229459 0 -0.000878833)
(0.022791 0 -0.000791411)
(0.02258 0 -0.000712143)
(0.0222974 0 -0.000640403)
(0.021928 0 -0.000575475)
(0.0214568 0 -0.000516605)
(0.0208686 0 -0.000463042)
(0.0201481 0 -0.000414047)
(0.0192794 0 -0.000368909)
(0.0182458 0 -0.000326942)
(0.0170298 0 -0.000287479)
(0.0156128 0 -0.00024986)
(0.0139745 0 -0.000213422)
(0.0120935 0 -0.000177472)
(0.00994639 0 -0.000141272)
(0.00750811 0 -0.000103995)
(0.00475153 0 -6.46941e-05)
(0.0016464 0 -2.22219e-05)
(0.0274932 0 -0.00182705)
(0.0273253 0 -0.00182384)
(0.0269927 0 -0.00180487)
(0.0265793 0 -0.00176201)
(0.0261436 0 -0.00169586)
(0.0257239 0 -0.00161116)
(0.0253416 0 -0.00151384)
(0.0250045 0 -0.00140952)
(0.0247109 0 -0.00130284)
(0.0244521 0 -0.00119734)
(0.024215 0 -0.00109547)
(0.0239844 0 -0.00099882)
(0.0237441 0 -0.000908322)
(0.0234773 0 -0.000824356)
(0.0231675 0 -0.000746933)
(0.0227982 0 -0.00067581)
(0.022353 0 -0.000610578)
(0.0218159 0 -0.000550724)
(0.0211706 0 -0.000495679)
(0.0204008 0 -0.000444841)
(0.0194896 0 -0.000397596)
(0.0184195 0 -0.000353326)
(0.0171721 0 -0.000311402)
(0.0157281 0 -0.000271188)
(0.0140666 0 -0.000232022)
(0.0121654 0 -0.0001932)
(0.0100006 0 -0.000153956)
(0.00754624 0 -0.000113423)
(0.00477453 0 -7.05972e-05)
(0.00165418 0 -2.42563e-05)
(0.0295182 0 -0.00161663)
(0.0293453 0 -0.00162575)
(0.0289844 0 -0.00162682)
(0.0285068 0 -0.00160863)
(0.0279743 0 -0.00156946)
(0.0274338 0 -0.00151197)
(0.0269158 0 -0.00144038)
(0.0264361 0 -0.00135911)
(0.0259989 0 -0.00127219)
(0.0256003 0 -0.00118297)
(0.0252303 0 -0.00109406)
(0.0248757 0 -0.00100737)
(0.0245217 0 -0.000924256)
(0.0241518 0 -0.000845518)
(0.0237494 0 -0.000771572)
(0.0232975 0 -0.00070253)
(0.0227794 0 -0.000638283)
(0.0221781 0 -0.000578566)
(0.0214766 0 -0.000523006)
(0.0206579 0 -0.000471154)
(0.0197041 0 -0.000422513)
(0.0185972 0 -0.000376546)
(0.017318 0 -0.000332685)
(0.0158464 0 -0.000290329)
(0.0141611 0 -0.000248833)
(0.0122392 0 -0.000207495)
(0.0100561 0 -0.000165534)
(0.0075853 0 -0.000122057)
(0.00479806 0 -7.60143e-05)
(0.00166214 0 -2.61251e-05)
(0.031267 0 -0.00144111)
(0.0310924 0 -0.00145588)
(0.0307071 0 -0.00146624)
(0.0301769 0 -0.00146218)
(0.0295689 0 -0.0014416)
(0.0289359 0 -0.00140537)
(0.0283136 0 -0.00135567)
(0.0277224 0 -0.0012953)
(0.0271705 0 -0.00122723)
(0.0266574 0 -0.00115429)
(0.026176 0 -0.00107893)
(0.0257152 0 -0.00100317)
(0.0252615 0 -0.000928594)
(0.0247994 0 -0.000856312)
(0.0243128 0 -0.000787059)
(0.0237847 0 -0.00072125)
(0.0231981 0 -0.000659049)
(0.0225359 0 -0.000600425)
(0.0217805 0 -0.000545198)
(0.0209142 0 -0.00049308)
(0.0199187 0 -0.000443696)
(0.0187754 0 -0.000396604)
(0.0174645 0 -0.000351307)
(0.0159654 0 -0.00030725)
(0.0142562 0 -0.000263817)
(0.0123134 0 -0.000220319)
(0.0101119 0 -0.000175973)
(0.00762448 0 -0.000129869)
(0.00482162 0 -8.09278e-05)
(0.00167009 0 -2.78222e-05)
(0.0327917 0 -0.00130781)
(0.0325977 0 -0.00131855)
(0.0321695 0 -0.00132617)
(0.0315844 0 -0.00132654)
(0.0309146 0 -0.00131746)
(0.0302135 0 -0.00129733)
(0.0295163 0 -0.0012658)
(0.0288441 0 -0.00122376)
(0.0282065 0 -0.00117294)
(0.0276051 0 -0.00111547)
(0.0270349 0 -0.00105345)
(0.026487 0 -0.000988862)
(0.0259493 0 -0.000923364)
(0.0254077 0 -0.000858262)
(0.0248467 0 -0.000794515)
(0.0242502 0 -0.00073278)
(0.0236012 0 -0.000673447)
(0.0228824 0 -0.000616694)
(0.0220763 0 -0.00056252)
(0.0211648 0 -0.000510788)
(0.0201293 0 -0.000461247)
(0.0189507 0 -0.000413555)
(0.0176089 0 -0.000367289)
(0.0160828 0 -0.000321951)
(0.01435 0 -0.000276962)
(0.0123865 0 -0.000231655)
(0.0101668 0 -0.000185254)
(0.00766293 0 -0.000136843)
(0.00484469 0 -8.53259e-05)
(0.00167787 0 -2.93432e-05)
(0.0341185 0 -0.00121224)
(0.0338558 0 -0.0012043)
(0.0333525 0 -0.00119901)
(0.0327101 0 -0.00119895)
(0.0319957 0 -0.00119828)
(0.0312532 0 -0.00119138)
(0.0305116 0 -0.00117522)
(0.0297888 0 -0.00114904)
(0.0290944 0 -0.00111353)
(0.0284308 0 -0.00107017)
(0.0277947 0 -0.0010207)
(0.0271791 0 -0.000966944)
(0.0265739 0 -0.000910552)
(0.0259663 0 -0.00085291)
(0.0253422 0 -0.000795118)
(0.024686 0 -0.000738001)
(0.0239814 0 -0.000682127)
(0.0232115 0 -0.000627841)
(0.0223588 0 -0.0005753)
(0.0214053 0 -0.000524502)
(0.0203321 0 -0.000475315)
(0.01912 0 -0.000427492)
(0.0177485 0 -0.000380687)
(0.0161963 0 -0.000334461)
(0.0144406 0 -0.000288278)
(0.0124571 0 -0.000241502)
(0.0102196 0 -0.00019337)
(0.00769983 0 -0.000142972)
(0.00486676 0 -8.92029e-05)
(0.00168529 0 -3.06861e-05)
(0.0351605 0 -0.00111972)
(0.0347701 0 -0.0010789)
(0.0341915 0 -0.00106639)
(0.0335199 0 -0.00107335)
(0.032796 0 -0.00108414)
(0.0320472 0 -0.00109015)
(0.0312941 0 -0.00108747)
(0.0305515 0 -0.00107483)
(0.0298281 0 -0.00105248)
(0.0291274 0 -0.00102152)
(0.0284476 0 -0.000983369)
(0.0277837 0 -0.000939675)
(0.0271275 0 -0.000892005)
(0.0264678 0 -0.000841737)
(0.0257919 0 -0.000790032)
(0.0250854 0 -0.000737814)
(0.0243329 0 -0.000685772)
(0.0235179 0 -0.000634378)
(0.0226234 0 -0.000583914)
(0.0216316 0 -0.000534496)
(0.0205236 0 -0.000486092)
(0.0192802 0 -0.000438546)
(0.0178808 0 -0.000391587)
(0.0163039 0 -0.000344834)
(0.0145264 0 -0.000297799)
(0.0125237 0 -0.000249877)
(0.0102693 0 -0.00020033)
(0.00773434 0 -0.000148257)
(0.0048873 0 -9.25581e-05)
(0.00169217 0 -3.18501e-05)
(0.00167339 0 2.08309e-05)
(0.00482529 0 6.05661e-05)
(0.00761943 0 9.71815e-05)
(0.0100951 0 0.000131768)
(0.0122886 0 0.000165156)
(0.0142322 0 0.00019801)
(0.0159555 0 0.000230853)
(0.0174853 0 0.000264086)
(0.0188465 0 0.000298005)
(0.020062 0 0.000332805)
(0.0211535 0 0.000368573)
(0.0221411 0 0.000405284)
(0.023044 0 0.000442781)
(0.0238802 0 0.000480761)
(0.0246669 0 0.000518752)
(0.0254199 0 0.000556089)
(0.0261541 0 0.000591898)
(0.0268825 0 0.000625087)
(0.0276164 0 0.000654358)
(0.0283645 0 0.000678248)
(0.0291325 0 0.000695207)
(0.0299221 0 0.000703724)
(0.0307305 0 0.000702536)
(0.0315497 0 0.000690874)
(0.0323664 0 0.000668644)
(0.0331623 0 0.000636428)
(0.0339143 0 0.00059497)
(0.0345964 0 0.000542384)
(0.0351863 0 0.000467081)
(0.0356565 0 0.000337247)
(0.00168117 0 2.12362e-05)
(0.00484865 0 6.17175e-05)
(0.00765894 0 9.89261e-05)
(0.0101522 0 0.000133929)
(0.0123648 0 0.000167567)
(0.0143298 0 0.000200449)
(0.0160768 0 0.000233061)
(0.017633 0 0.00026576)
(0.019023 0 0.000298789)
(0.0202699 0 0.000332282)
(0.0213951 0 0.000366256)
(0.0224185 0 0.000400611)
(0.0233588 0 0.000435111)
(0.0242333 0 0.000469376)
(0.0250584 0 0.000502866)
(0.0258487 0 0.000534867)
(0.0266176 0 0.000564486)
(0.0273766 0 0.000590657)
(0.0281349 0 0.000612171)
(0.0288991 0 0.000627718)
(0.0296726 0 0.000635977)
(0.0304552 0 0.000635703)
(0.0312423 0 0.000625845)
(0.0320244 0 0.000605751)
(0.0327881 0 0.000575049)
(0.0335162 0 0.000533143)
(0.0341876 0 0.00047891)
(0.0347783 0 0.000408788)
(0.0352622 0 0.000314821)
(0.0356261 0 0.000179341)
(0.00168807 0 2.15113e-05)
(0.00486955 0 6.24889e-05)
(0.00769459 0 0.000100075)
(0.0102041 0 0.000135275)
(0.0124349 0 0.000168907)
(0.0144199 0 0.00020159)
(0.0161892 0 0.000233735)
(0.0177698 0 0.000265656)
(0.0191864 0 0.000297547)
(0.0204618 0 0.000329487)
(0.0216172 0 0.000361437)
(0.0226721 0 0.000393232)
(0.0236444 0 0.00042458)
(0.0245508 0 0.000455051)
(0.0254065 0 0.000484069)
(0.0262251 0 0.000510911)
(0.0270184 0 0.000534706)
(0.0277963 0 0.000554461)
(0.0285662 0 0.000569084)
(0.0293328 0 0.000577443)
(0.0300976 0 0.000578438)
(0.0308589 0 0.000571085)
(0.0316117 0 0.000554375)
(0.0323448 0 0.000527786)
(0.0330473 0 0.000490695)
(0.0337018 0 0.000442429)
(0.0342877 0 0.000381818)
(0.0347861 0 0.000306326)
(0.0351815 0 0.000210133)
(0.035464 0 7.91639e-05)
(0.00169385 0 2.16539e-05)
(0.00488731 0 6.28762e-05)
(0.00772544 0 0.000100603)
(0.0102495 0 0.000135802)
(0.012497 0 0.000169217)
(0.0145006 0 0.000201443)
(0.0162903 0 0.000232907)
(0.0178931 0 0.000263835)
(0.0193338 0 0.000294375)
(0.0206347 0 0.000324567)
(0.0218165 0 0.00035432)
(0.0228983 0 0.000383425)
(0.0238974 0 0.000411551)
(0.0248294 0 0.000438243)
(0.0257085 0 0.00046292)
(0.0265471 0 0.000484878)
(0.0273556 0 0.000503305)
(0.0281425 0 0.000517299)
(0.0289136 0 0.000525908)
(0.0296721 0 0.000528173)
(0.0304178 0 0.000523181)
(0.0311501 0 0.000510067)
(0.0318622 0 0.000488135)
(0.0325424 0 0.000456937)
(0.03318 0 0.000415961)
(0.0337603 0 0.000364874)
(0.0342686 0 0.000302564)
(0.0346918 0 0.000226954)
(0.0350192 0 0.000133886)
(0.0352418 0 1.59828e-05)
(0.00169827 0 2.16636e-05)
(0.00490128 0 6.28783e-05)
(0.00775044 0 0.000100516)
(0.0102873 0 0.000135492)
(0.0125494 0 0.00016851)
(0.0145698 0 0.000200087)
(0.0163779 0 0.000230628)
(0.0180006 0 0.000260379)
(0.0194625 0 0.000289394)
(0.0207855 0 0.000317689)
(0.0219899 0 0.000345133)
(0.0230942 0 0.000371483)
(0.0241148 0 0.000396392)
(0.0250664 0 0.000419401)
(0.0259623 0 0.000439945)
(0.0268136 0 0.000457367)
(0.0276296 0 0.000470929)
(0.0284174 0 0.000479842)
(0.0291817 0 0.000483293)
(0.0299249 0 0.000480484)
(0.0306467 0 0.000470654)
(0.0313444 0 0.000453074)
(0.0320105 0 0.000427533)
(0.0326361 0 0.000393609)
(0.0332117 0 0.00035095)
(0.0337265 0 0.000299186)
(0.0341698 0 0.000237543)
(0.0345327 0 0.000164623)
(0.0348078 0 7.81761e-05)
(0.0349888 0 -2.43263e-05)
(0.00170113 0 2.15416e-05)
(0.00491085 0 6.24996e-05)
(0.00776866 0 9.98224e-05)
(0.0103162 0 0.000134367)
(0.0125908 0 0.000166788)
(0.0146255 0 0.000197566)
(0.0164498 0 0.000227021)
(0.01809 0 0.000255389)
(0.0195701 0 0.000282739)
(0.0209118 0 0.000309038)
(0.022135 0 0.000334113)
(0.0232574 0 0.000357706)
(0.0242946 0 0.000379467)
(0.0252604 0 0.000398951)
(0.0261671 0 0.000415631)
(0.0270248 0 0.000428908)
(0.0278418 0 0.000438134)
(0.0286242 0 0.000442636)
(0.0293759 0 0.000441742)
(0.0300987 0 0.000434815)
(0.0307924 0 0.000421259)
(0.0314525 0 0.000400608)
(0.0320724 0 0.000372785)
(0.0326463 0 0.000337461)
(0.0331665 0 0.000294419)
(0.033625 0 0.000243414)
(0.0340146 0 0.000184006)
(0.0343292 0 0.000115517)
(0.0345641 0 3.71797e-05)
(0.034716 0 -5.11113e-05)
(0.00170223 0 2.12909e-05)
(0.00491545 0 6.17497e-05)
(0.00777918 0 9.854e-05)
(0.0103349 0 0.000132455)
(0.0126197 0 0.000164099)
(0.0146664 0 0.000193907)
(0.0165041 0 0.00022217)
(0.018159 0 0.00024905)
(0.0196544 0 0.000274611)
(0.0210114 0 0.000298802)
(0.0222495 0 0.000321511)
(0.0233861 0 0.000342391)
(0.0244353 0 0.000361127)
(0.0254104 0 0.000377294)
(0.0263228 0 0.000390417)
(0.0271817 0 0.000399966)
(0.0279946 0 0.000405384)
(0.0287668 0 0.000406115)
(0.0295016 0 0.000401625)
(0.0302007 0 0.000391431)
(0.0308639 0 0.000375118)
(0.031486 0 0.000352519)
(0.0320622 0 0.000323446)
(0.0325891 0 0.000287717)
(0.0330609 0 0.000245265)
(0.0334718 0 0.000196012)
(0.0338172 0 0.000139835)
(0.0340931 0 7.66247e-05)
(0.034297 0 6.49544e-06)
(0.0344278 0 -6.97304e-05)
(0.00170139 0 2.09164e-05)
(0.00491458 0 6.06432e-05)
(0.00778123 0 9.66944e-05)