/*--------------------------------*- C++ -*----------------------------------*\
| =========                 |                                                 |
| \\      /  F ield         | OpenFOAM: The Open Source CFD Toolbox           |
|  \\    /   O peration     | Version:  dev                                   |
|   \\  /    A nd           | Web:      www.OpenFOAM.org                      |
|    \\/     M anipulation  |                                                 |
\*---------------------------------------------------------------------------*/
FoamFile
{
    version     2.0;
    format      ascii;
    class       pointVectorField;
    location    "3.57";
    object      pointDisplacement;
}
// * * * * * * * * * * * * * * * * * * * * * * * * * * * * * * * * * * * * * //

dimensions      [0 1 0 0 0 0 0];

internalField   nonuniform List<vector> 
5828
(
(0 0 0)
(0.00304709 0 0)
(0.00581467 0 0)
(0.00823679 0 0)
(0.0103408 0 0)
(0.0121521 0 0)
(0.0136939 0 0)
(0.0149868 0 0)
(0.0160494 0 0)
(0.0168978 0 0)
(0.017546 0 0)
(0.0180061 0 0)
(0.0182881 0 0)
(0.0184002 0 0)
(0.0183492 0 0)
(0.0181402 0 0)
(0.017777 0 0)
(0.0172623 0 0)
(0.0165981 0 0)
(0.0157859 0 0)
(0.0148274 0 0)
(0.0137249 0 0)
(0.0124827 0 0)
(0.0111081 0 0)
(0.00961425 0 0)
(0.00802307 0 0)
(0.006372 0 0)
(0.00472526 0 0)
(0.00319788 0 0)
(0.00201967 0 0)
(0 0 0)
(0 0 0)
(0.00304817 0 3.68914e-06)
(0.00581699 0 7.18777e-06)
(0.00824041 0 1.05329e-05)
(0.0103458 0 1.38491e-05)
(0.0121587 0 1.72455e-05)
(0.0137023 0 2.08238e-05)
(0.0149974 0 2.46846e-05)
(0.0160625 0 2.89334e-05)
(0.0169139 0 3.36857e-05)
(0.0175657 0 3.90731e-05)
(0.0180299 0 4.52494e-05)
(0.0183169 0 5.23983e-05)
(0.0184351 0 6.07416e-05)
(0.0183913 0 7.05512e-05)
(0.0181908 0 8.21618e-05)
(0.0178379 0 9.59889e-05)
(0.0173355 0 0.00011255)
(0.0166862 0 0.000132493)
(0.0158918 0 0.000156631)
(0.0149547 0 0.000185984)
(0.0138783 0 0.000221833)
(0.0126677 0 0.00026578)
(0.0113318 0 0.000319802)
(0.00988538 0 0.000386284)
(0.00835298 0 0.000467953)
(0.00677522 0 0.000567534)
(0.00522032 0 0.000686605)
(0.00380642 0 0.000822008)
(0.00275382 0 0.000954453)
(0.00133386 0 0.00123617)
(0 0 0)
(0.0030518 0 7.34827e-06)
(0.00582427 0 1.43161e-05)
(0.00825151 0 2.09761e-05)
(0.0103611 0 2.75751e-05)
(0.0121787 0 3.43292e-05)
(0.0137277 0 4.14392e-05)
(0.0150292 0 4.91033e-05)
(0.0161018 0 5.75287e-05)
(0.016962 0 6.69415e-05)
(0.0176243 0 7.75983e-05)
(0.0181011 0 8.97982e-05)
(0.018403 0 0.000103896)
(0.018539 0 0.000120321)
(0.0185164 0 0.000139594)
(0.0183413 0 0.000162355)
(0.0180188 0 0.000189391)
(0.0175528 0 0.000221681)
(0.016947 0 0.000260434)
(0.0162051 0 0.000307155)
(0.015331 0 0.000363709)
(0.0143306 0 0.0004324)
(0.013212 0 0.000516044)
(0.0119877 0 0.000618009)
(0.0106773 0 0.000742164)
(0.00931109 0 0.000892557)
(0.00793621 0 0.00107244)
(0.00662654 0 0.00128167)
(0.00549776 0 0.00151006)
(0.00473284 0 0.00172016)
(0.00377449 0 0.00207838)
(0 0 0)
(0.0030578 0 1.09467e-05)
(0.00583629 0 2.13241e-05)
(0.00826983 0 3.12376e-05)
(0.0103863 0 4.10517e-05)
(0.0122117 0 5.10852e-05)
(0.0137697 0 6.16329e-05)
(0.0150816 0 7.29848e-05)
(0.0161665 0 8.54419e-05)
(0.0170413 0 9.93314e-05)
(0.0177208 0 0.000115022)
(0.0182181 0 0.000132942)
(0.0185444 0 0.000153595)
(0.0187093 0 0.000177584)
(0.0187213 0 0.00020564)
(0.0185875 0 0.000238648)
(0.0183141 0 0.000277693)
(0.0179069 0 0.000324097)
(0.0173713 0 0.000379481)
(0.0167133 0 0.000445818)
(0.0159397 0 0.000525505)
(0.0150597 0 0.000621413)
(0.0140854 0 0.000736914)
(0.0130343 0 0.000875819)
(0.0119314 0 0.0010421)
(0.0108128 0 0.00123917)
(0.00973032 0 0.0014682)
(0.00875626 0 0.0017244)
(0.00798777 0 0.00198933)
(0.00754593 0 0.00221539)
(0.00705595 0 0.00255051)
(0 0 0)
(0.00306608 0 1.44537e-05)
(0.00585288 0 2.81506e-05)
(0.00829509 0 4.12248e-05)
(0.010421 0 5.41522e-05)
(0.0122571 0 6.73475e-05)
(0.0138274 0 8.11924e-05)
(0.0151536 0 9.60597e-05)
(0.0162554 0 0.000112334)
(0.0171501 0 0.000130429)
(0.0178531 0 0.000150808)
(0.0183782 0 0.000174003)
(0.0187375 0 0.000200635)
(0.0189418 0 0.00023144)
(0.0190004 0 0.0002673)
(0.018922 0 0.000309269)
(0.0187146 0 0.000358618)
(0.0183857 0 0.000416873)
(0.0179434 0 0.00048586)
(0.0173961 0 0.000567745)
(0.0167541 0 0.000665068)
(0.01603 0 0.000780733)
(0.0152403 0 0.000917932)
(0.0144071 0 0.00107992)
(0.0135596 0 0.00126949)
(0.0127372 0 0.00148787)
(0.0119905 0 0.00173269)
(0.0113818 0 0.00199414)
(0.0109782 0 0.00224861)
(0.0108342 0 0.00244916)
(0.0107321 0 0.00271288)
(0 0 0)
(0.00307653 0 1.7839e-05)
(0.00587378 0 3.47358e-05)
(0.00832687 0 5.08478e-05)
(0.0104647 0 6.67539e-05)
(0.0123141 0 8.29563e-05)
(0.0138998 0 9.99141e-05)
(0.0152439 0 0.000118072)
(0.0163667 0 0.000137884)
(0.017286 0 0.000159835)
(0.0180182 0 0.000184458)
(0.0185778 0 0.000212362)
(0.0189779 0 0.000244246)
(0.0192303 0 0.000280929)
(0.019346 0 0.000323374)
(0.0193352 0 0.000372717)
(0.0192076 0 0.000430296)
(0.0189732 0 0.000497677)
(0.0186423 0 0.00057668)
(0.0182265 0 0.000669377)
(0.0177389 0 0.000778071)
(0.0171956 0 0.000905204)
(0.0166167 0 0.00105316)
(0.016027 0 0.00122389)
(0.0154577 0 0.00141818)
(0.0149469 0 0.00163448)
(0.0145385 0 0.00186688)
(0.0142774 0 0.00210226)
(0.0141965 0 0.00231659)
(0.0142913 0 0.00247163)
(0.0144763 0 0.00265569)
(0 0 0)
(0.00308897 0 2.10741e-05)
(0.00589864 0 4.10233e-05)
(0.00836463 0 6.00218e-05)
(0.0105165 0 7.87415e-05)
(0.0123817 0 9.77622e-05)
(0.0139855 0 0.00011761)
(0.0153508 0 0.000138788)
(0.0164981 0 0.000161805)
(0.0174464 0 0.000187194)
(0.0182126 0 0.000215539)
(0.0188122 0 0.000247489)
(0.0192595 0 0.000283781)
(0.0195675 0 0.000325263)
(0.0197486 0 0.000372911)
(0.0198148 0 0.000427849)
(0.0197778 0 0.000491363)
(0.0196497 0 0.00056491)
(0.0194432 0 0.000650106)
(0.0191724 0 0.000748682)
(0.0188533 0 0.000862403)
(0.0185044 0 0.000992889)
(0.0181477 0 0.00114133)
(0.0178088 0 0.00130798)
(0.0175174 0 0.00149146)
(0.0173062 0 0.00168759)
(0.0172077 0 0.00188806)
(0.0172457 0 0.00207886)
(0.017421 0 0.00223943)
(0.017685 0 0.00234402)
(0.0180563 0 0.00245421)
(0 0 0)
(0.00310318 0 2.41329e-05)
(0.00592702 0 4.69614e-05)
(0.00840769 0 6.86693e-05)
(0.0105755 0 9.00107e-05)
(0.0124587 0 0.000111632)
(0.014083 0 0.000134112)
(0.015472 0 0.000158002)
(0.0166471 0 0.000183846)
(0.0176278 0 0.000212209)
(0.018432 0 0.000243693)
(0.0190761 0 0.00027896)
(0.0195755 0 0.000318743)
(0.0199447 0 0.000363866)
(0.0201974 0 0.00041525)
(0.0203473 0 0.000473925)
(0.0204079 0 0.000541025)
(0.0203933 0 0.000617766)
(0.0203183 0 0.000705411)
(0.0201992 0 0.000805179)
(0.0200537 0 0.000918109)
(0.0199017 0 0.00104483)
(0.0197654 0 0.0011852)
(0.0196689 0 0.00133785)
(0.0196373 0 0.00149949)
(0.0196946 0 0.00166413)
(0.0198586 0 0.00182246)
(0.0201326 0 0.00196169)
(0.0204907 0 0.00206684)
(0.0208575 0 0.00212484)
(0.0213284 0 0.00217025)
(0 0 0)
(0.00311891 0 2.6992e-05)
(0.0059584 0 5.25041e-05)
(0.00845526 0 7.67225e-05)
(0.0106407 0 0.000100471)
(0.0125435 0 0.000124449)
(0.0141904 0 0.000149281)
(0.0156054 0 0.000175545)
(0.0168106 0 0.000203809)
(0.0178264 0 0.000234645)
(0.0186716 0 0.000268653)
(0.0193635 0 0.000306474)
(0.0199186 0 0.000348801)
(0.0203526 0 0.000396384)
(0.0206806 0 0.000450037)
(0.0209178 0 0.000510626)
(0.0210794 0 0.000579052)
(0.021181 0 0.000656207)
(0.0212392 0 0.000742905)
(0.0212715 0 0.000839769)
(0.0212967 0 0.000947057)
(0.0213347 0 0.00106441)
(0.0214062 0 0.00119052)
(0.0215319 0 0.00132268)
(0.02173 0 0.00145634)
(0.022014 0 0.00158473)
(0.0223863 0 0.00169884)
(0.0228315 0 0.0017884)
(0.0233049 0 0.00184449)
(0.0237194 0 0.00186471)
(0.0242157 0 0.00186182)
(0 0 0)
(0.00313587 0 2.96315e-05)
(0.0059922 0 5.76128e-05)
(0.00850647 0 8.41243e-05)
(0.0107107 0 0.000110047)
(0.0126347 0 0.000136123)
(0.0143055 0 0.000163004)
(0.0157481 0 0.000191288)
(0.0169854 0 0.000221545)
(0.0180382 0 0.00025434)
(0.0189263 0 0.000290246)
(0.019668 0 0.000329855)
(0.0202807 0 0.000373788)
(0.0207813 0 0.000422687)
(0.021186 0 0.000477213)
(0.0215113 0 0.000538023)
(0.0217737 0 0.000605734)
(0.02199 0 0.000680869)
(0.0221779 0 0.000763763)
(0.0223554 0 0.000854442)
(0.0225414 0 0.000952442)
(0.0227548 0 0.00105658)
(0.0230137 0 0.00116466)
(0.0233338 0 0.0012732)
(0.0237259 0 0.00137715)
(0.024192 0 0.00146988)
(0.0247206 0 0.00154371)
(0.0252807 0 0.0015914)
(0.0258158 0 0.00160932)
(0.0262387 0 0.00160265)
(0.0267086 0 0.00156846)
(0 0 0)
(0.00315373 0 3.20353e-05)
(0.00602779 0 6.2256e-05)
(0.00856034 0 9.08295e-05)
(0.0107844 0 0.00011868)
(0.0127304 0 0.000146582)
(0.0144263 0 0.000175202)
(0.0158977 0 0.000205142)
(0.017168 0 0.000236963)
(0.0182589 0 0.000271203)
(0.019191 0 0.000308391)
(0.0199832 0 0.00034905)
(0.020654 0 0.000393702)
(0.021221 0 0.000442856)
(0.0217016 0 0.000496992)
(0.0221131 0 0.000556532)
(0.0224728 0 0.000621793)
(0.0227985 0 0.000692922)
(0.0231081 0 0.0007698)
(0.0234198 0 0.000851922)
(0.0237514 0 0.000938243)
(0.0241202 0 0.00102699)
(0.0245408 0 0.0011155)
(0.0250239 0 0.00120005)
(0.0255727 0 0.00127581)
(0.0261794 0 0.00133715)
(0.0268208 0 0.00137829)
(0.0274542 0 0.00139496)
(0.0280161 0 0.0013873)
(0.0284255 0 0.00136456)
(0.0288453 0 0.00131454)
(0 0 0)
(0.00317216 0 3.41912e-05)
(0.00606449 0 6.64105e-05)
(0.00861588 0 9.68052e-05)
(0.0108603 0 0.000126331)
(0.012829 0 0.000155779)
(0.0145505 0 0.000185824)
(0.0160512 0 0.000217059)
(0.0173549 0 0.000250022)
(0.0184843 0 0.000285211)
(0.0194603 0 0.000323096)
(0.0203026 0 0.000364117)
(0.0210305 0 0.000408681)
(0.0216622 0 0.000457147)
(0.0222158 0 0.000509807)
(0.0227092 0 0.000566841)
(0.0231603 0 0.000628275)
(0.0235868 0 0.00069391)
(0.0240068 0 0.000763234)
(0.0244376 0 0.000835323)
(0.0248958 0 0.000908727)
(0.0253962 0 0.000981364)
(0.0259503 0 0.00105045)
(0.0265637 0 0.00111253)
(0.0272335 0 0.0011636)
(0.0279449 0 0.00119958)
(0.0286666 0 0.00121699)
(0.0293484 0 0.00121422)
(0.0299227 0 0.00119354)
(0.030314 0 0.00116471)
(0.0306747 0 0.00110878)
(0 0 0)
(0.00319078 0 3.60905e-05)
(0.00610159 0 7.00606e-05)
(0.00867203 0 0.00010203)
(0.010937 0 0.000132974)
(0.0129286 0 0.000163692)
(0.0146759 0 0.000194851)
(0.0162058 0 0.000227029)
(0.0175429 0 0.00026073)
(0.0187102 0 0.000296403)
(0.0197292 0 0.000334448)
(0.0206202 0 0.000375212)
(0.0214029 0 0.000418981)
(0.0220961 0 0.000465964)
(0.0227181 0 0.000516262)
(0.0232872 0 0.000569833)
(0.0238213 0 0.000626439)
(0.0243379 0 0.000685588)
(0.0248542 0 0.000746461)
(0.0253866 0 0.000807843)
(0.0259499 0 0.000868057)
(0.0265564 0 0.000924942)
(0.0272142 0 0.000975896)
(0.0279254 0 0.00101804)
(0.028683 0 0.00104857)
(0.0294683 0 0.00106523)
(0.030247 0 0.00106712)
(0.0309668 0 0.00105526)
(0.0315583 0 0.00103319)
(0.0319457 0 0.00100819)
(0.032261 0 0.000956393)
(0 0 0)
(0.00320925 0 3.77287e-05)
(0.00613839 0 7.31983e-05)
(0.00872774 0 0.000106496)
(0.0110131 0 0.000138603)
(0.0130273 0 0.000170317)
(0.0148002 0 0.000202291)
(0.0163588 0 0.000235078)
(0.0177285 0 0.00026914)
(0.0189325 0 0.000304873)
(0.0199929 0 0.000342599)
(0.0209303 0 0.000382571)
(0.0217645 0 0.000424955)
(0.0225147 0 0.000469815)
(0.0231993 0 0.000517079)
(0.0238363 0 0.000566508)
(0.0244434 0 0.000617648)
(0.0250375 0 0.000669779)
(0.0256346 0 0.000721871)
(0.0262497 0 0.000772539)
(0.0268954 0 0.000820034)
(0.0275815 0 0.000862284)
(0.0283135 0 0.000897026)
(0.0290905 0 0.000922088)
(0.0299038 0 0.000935829)
(0.0307342 0 0.0009378)
(0.0315498 0 0.000929543)
(0.0323031 0 0.000915121)
(0.0329292 0 0.000900383)
(0.0333472 0 0.000889612)
(0.0336801 0 0.000861965)
(0 0 0)
(0.00322718 0 3.91044e-05)
(0.00617415 0 7.58224e-05)
(0.00878196 0 0.000110204)
(0.0110873 0 0.000143225)
(0.0131236 0 0.000175671)
(0.0149212 0 0.000208178)
(0.0165077 0 0.000241262)
(0.0179086 0 0.000275344)
(0.0191477 0 0.000310758)
(0.020247 0 0.000347753)
(0.0212275 0 0.000386487)
(0.0221092 0 0.000427017)
(0.022911 0 0.000469273)
(0.0236512 0 0.000513039)
(0.0243476 0 0.000557913)
(0.0250168 0 0.000603278)
(0.0256749 0 0.000648261)
(0.0263366 0 0.000691709)
(0.0270148 0 0.000732178)
(0.0277202 0 0.000767962)
(0.0284601 0 0.000797174)
(0.0292373 0 0.000817932)
(0.0300491 0 0.000828668)
(0.030886 0 0.000828589)
(0.0317305 0 0.00081835)
(0.0325561 0 0.000800984)
(0.0333267 0 0.000782978)
(0.0339928 0 0.000774667)
(0.0344797 0 0.000784001)
(0.0350008 0 0.000820374)
(0 0 0)
(0.00324431 0 4.02332e-05)
(0.00620846 0 7.79583e-05)
(0.00883412 0 0.000113188)
(0.0111588 0 0.000146888)
(0.0132165 0 0.000179822)
(0.0150379 0 0.000212597)
(0.0166511 0 0.000245695)
(0.0180819 0 0.000279488)
(0.019354 0 0.000314251)
(0.0204897 0 0.000350161)
(0.02151 0 0.000387289)
(0.0224347 0 0.000425592)
(0.0232825 0 0.000464889)
(0.0240713 0 0.000504846)
(0.0248181 0 0.000544942)
(0.0255386 0 0.00058445)
(0.0262476 0 0.000622412)
(0.026958 0 0.000657636)
(0.027681 0 0.000688705)
(0.0284248 0 0.000714037)
(0.0291944 0 0.000731978)
(0.0299903 0 0.000740986)
(0.030808 0 0.000739897)
(0.0316372 0 0.000728249)
(0.032462 0 0.000706643)
(0.0332602 0 0.000677093)
(0.0340049 0 0.000642957)
(0.0346647 0 0.000607431)
(0.0351945 0 0.000566044)
(0.0363085 0 0.000807313)
(0 0 0)
(0.00304709 0 0)
(0.00581467 0 0)
(0.00823679 0 0)
(0.0103408 0 0)
(0.0121521 0 0)
(0.0136939 0 0)
(0.0149868 0 0)
(0.0160494 0 0)
(0.0168978 0 0)
(0.017546 0 0)
(0.0180061 0 0)
(0.0182881 0 0)
(0.0184002 0 0)
(0.0183492 0 0)
(0.0181402 0 0)
(0.017777 0 0)
(0.0172623 0 0)
(0.0165981 0 0)
(0.0157859 0 0)
(0.0148274 0 0)
(0.0137249 0 0)
(0.0124827 0 0)
(0.0111081 0 0)
(0.00961425 0 0)
(0.00802307 0 0)
(0.006372 0 0)
(0.00472526 0 0)
(0.00319788 0 0)
(0.00201967 0 0)
(0 0 0)
(0 0 0)
(0.00304817 0 3.68914e-06)
(0.00581699 0 7.18777e-06)
(0.00824041 0 1.05329e-05)
(0.0103458 0 1.38491e-05)
(0.0121587 0 1.72455e-05)
(0.0137023 0 2.08238e-05)
(0.0149974 0 2.46846e-05)
(0.0160625 0 2.89334e-05)
(0.0169139 0 3.36857e-05)
(0.0175657 0 3.90731e-05)
(0.0180299 0 4.52494e-05)
(0.0183169 0 5.23983e-05)
(0.0184351 0 6.07416e-05)
(0.0183913 0 7.05512e-05)
(0.0181908 0 8.21618e-05)
(0.0178379 0 9.59889e-05)
(0.0173355 0 0.00011255)
(0.0166862 0 0.000132493)
(0.0158918 0 0.000156631)
(0.0149547 0 0.000185984)
(0.0138783 0 0.000221833)
(0.0126677 0 0.00026578)
(0.0113318 0 0.000319802)
(0.00988538 0 0.000386284)
(0.00835298 0 0.000467953)
(0.00677522 0 0.000567534)
(0.00522032 0 0.000686605)
(0.00380642 0 0.000822008)
(0.00275382 0 0.000954453)
(0.00133386 0 0.00123617)
(0 0 0)
(0.0030518 0 7.34827e-06)
(0.00582427 0 1.43161e-05)
(0.00825151 0 2.09761e-05)
(0.0103611 0 2.75751e-05)
(0.0121787 0 3.43292e-05)
(0.0137277 0 4.14392e-05)
(0.0150292 0 4.91033e-05)
(0.0161018 0 5.75287e-05)
(0.016962 0 6.69415e-05)
(0.0176243 0 7.75983e-05)
(0.0181011 0 8.97982e-05)
(0.018403 0 0.000103896)
(0.018539 0 0.000120321)
(0.0185164 0 0.000139594)
(0.0183413 0 0.000162355)
(0.0180188 0 0.000189391)
(0.0175528 0 0.000221681)
(0.016947 0 0.000260434)
(0.0162051 0 0.000307155)
(0.015331 0 0.000363709)
(0.0143306 0 0.0004324)
(0.013212 0 0.000516044)
(0.0119877 0 0.000618009)
(0.0106773 0 0.000742164)
(0.00931109 0 0.000892557)
(0.00793621 0 0.00107244)
(0.00662654 0 0.00128167)
(0.00549776 0 0.00151006)
(0.00473284 0 0.00172016)
(0.00377449 0 0.00207838)
(0 0 0)
(0.0030578 0 1.09467e-05)
(0.00583629 0 2.13241e-05)
(0.00826983 0 3.12376e-05)
(0.0103863 0 4.10517e-05)
(0.0122117 0 5.10852e-05)
(0.0137697 0 6.16329e-05)
(0.0150816 0 7.29848e-05)
(0.0161665 0 8.54419e-05)
(0.0170413 0 9.93314e-05)
(0.0177208 0 0.000115022)
(0.0182181 0 0.000132942)
(0.0185444 0 0.000153595)
(0.0187093 0 0.000177584)
(0.0187213 0 0.00020564)
(0.0185875 0 0.000238648)
(0.0183141 0 0.000277693)
(0.0179069 0 0.000324097)
(0.0173713 0 0.000379481)
(0.0167133 0 0.000445818)
(0.0159397 0 0.000525505)
(0.0150597 0 0.000621413)
(0.0140854 0 0.000736914)
(0.0130343 0 0.000875819)
(0.0119314 0 0.0010421)
(0.0108128 0 0.00123917)
(0.00973032 0 0.0014682)
(0.00875626 0 0.0017244)
(0.00798777 0 0.00198933)
(0.00754593 0 0.00221539)
(0.00705595 0 0.00255051)
(0 0 0)
(0.00306608 0 1.44537e-05)
(0.00585288 0 2.81506e-05)
(0.00829509 0 4.12248e-05)
(0.010421 0 5.41522e-05)
(0.0122571 0 6.73475e-05)
(0.0138274 0 8.11924e-05)
(0.0151536 0 9.60597e-05)
(0.0162554 0 0.000112334)
(0.0171501 0 0.000130429)
(0.0178531 0 0.000150808)
(0.0183782 0 0.000174003)
(0.0187375 0 0.000200635)
(0.0189418 0 0.00023144)
(0.0190004 0 0.0002673)
(0.018922 0 0.000309269)
(0.0187146 0 0.000358618)
(0.0183857 0 0.000416873)
(0.0179434 0 0.00048586)
(0.0173961 0 0.000567745)
(0.0167541 0 0.000665068)
(0.01603 0 0.000780733)
(0.0152403 0 0.000917932)
(0.0144071 0 0.00107992)
(0.0135596 0 0.00126949)
(0.0127372 0 0.00148787)
(0.0119905 0 0.00173269)
(0.0113818 0 0.00199414)
(0.0109782 0 0.00224861)
(0.0108342 0 0.00244916)
(0.0107321 0 0.00271288)
(0 0 0)
(0.00307653 0 1.7839e-05)
(0.00587378 0 3.47358e-05)
(0.00832687 0 5.08478e-05)
(0.0104647 0 6.67539e-05)
(0.0123141 0 8.29563e-05)
(0.0138998 0 9.99141e-05)
(0.0152439 0 0.000118072)
(0.0163667 0 0.000137884)
(0.017286 0 0.000159835)
(0.0180182 0 0.000184458)
(0.0185778 0 0.000212362)
(0.0189779 0 0.000244246)
(0.0192303 0 0.000280929)
(0.019346 0 0.000323374)
(0.0193352 0 0.000372717)
(0.0192076 0 0.000430296)
(0.0189732 0 0.000497677)
(0.0186423 0 0.00057668)
(0.0182265 0 0.000669377)
(0.0177389 0 0.000778071)
(0.0171956 0 0.000905204)
(0.0166167 0 0.00105316)
(0.016027 0 0.00122389)
(0.0154577 0 0.00141818)
(0.0149469 0 0.00163448)
(0.0145385 0 0.00186688)
(0.0142774 0 0.00210226)
(0.0141965 0 0.00231659)
(0.0142913 0 0.00247163)
(0.0144763 0 0.00265569)
(0 0 0)
(0.00308897 0 2.10741e-05)
(0.00589864 0 4.10233e-05)
(0.00836463 0 6.00218e-05)
(0.0105165 0 7.87415e-05)
(0.0123817 0 9.77622e-05)
(0.0139855 0 0.00011761)
(0.0153508 0 0.000138788)
(0.0164981 0 0.000161805)
(0.0174464 0 0.000187194)
(0.0182126 0 0.000215539)
(0.0188122 0 0.000247489)
(0.0192595 0 0.000283781)
(0.0195675 0 0.000325263)
(0.0197486 0 0.000372911)
(0.0198148 0 0.000427849)
(0.0197778 0 0.000491363)
(0.0196497 0 0.00056491)
(0.0194432 0 0.000650106)
(0.0191724 0 0.000748682)
(0.0188533 0 0.000862403)
(0.0185044 0 0.000992889)
(0.0181477 0 0.00114133)
(0.0178088 0 0.00130798)
(0.0175174 0 0.00149146)
(0.0173062 0 0.00168759)
(0.0172077 0 0.00188806)
(0.0172457 0 0.00207886)
(0.017421 0 0.00223943)
(0.017685 0 0.00234402)
(0.0180563 0 0.00245421)
(0 0 0)
(0.00310318 0 2.41329e-05)
(0.00592702 0 4.69614e-05)
(0.00840769 0 6.86693e-05)
(0.0105755 0 9.00107e-05)
(0.0124587 0 0.000111632)
(0.014083 0 0.000134112)
(0.015472 0 0.000158002)
(0.0166471 0 0.000183846)
(0.0176278 0 0.000212209)
(0.018432 0 0.000243693)
(0.0190761 0 0.00027896)
(0.0195755 0 0.000318743)
(0.0199447 0 0.000363866)
(0.0201974 0 0.00041525)
(0.0203473 0 0.000473925)
(0.0204079 0 0.000541025)
(0.0203933 0 0.000617766)
(0.0203183 0 0.000705411)
(0.0201992 0 0.000805179)
(0.0200537 0 0.000918109)
(0.0199017 0 0.00104483)
(0.0197654 0 0.0011852)
(0.0196689 0 0.00133785)
(0.0196373 0 0.00149949)
(0.0196946 0 0.00166413)
(0.0198586 0 0.00182246)
(0.0201326 0 0.00196169)
(0.0204907 0 0.00206684)
(0.0208575 0 0.00212484)
(0.0213284 0 0.00217025)
(0 0 0)
(0.00311891 0 2.6992e-05)
(0.0059584 0 5.25041e-05)
(0.00845526 0 7.67225e-05)
(0.0106407 0 0.000100471)
(0.0125435 0 0.000124449)
(0.0141904 0 0.000149281)
(0.0156054 0 0.000175545)
(0.0168106 0 0.000203809)
(0.0178264 0 0.000234645)
(0.0186716 0 0.000268653)
(0.0193635 0 0.000306474)
(0.0199186 0 0.000348801)
(0.0203526 0 0.000396384)
(0.0206806 0 0.000450037)
(0.0209178 0 0.000510626)
(0.0210794 0 0.000579052)
(0.021181 0 0.000656207)
(0.0212392 0 0.000742905)
(0.0212715 0 0.000839769)
(0.0212967 0 0.000947057)
(0.0213347 0 0.00106441)
(0.0214062 0 0.00119052)
(0.0215319 0 0.00132268)
(0.02173 0 0.00145634)
(0.022014 0 0.00158473)
(0.0223863 0 0.00169884)
(0.0228315 0 0.0017884)
(0.0233049 0 0.00184449)
(0.0237194 0 0.00186471)
(0.0242157 0 0.00186182)
(0 0 0)
(0.00313587 0 2.96315e-05)
(0.0059922 0 5.76128e-05)
(0.00850647 0 8.41243e-05)
(0.0107107 0 0.000110047)
(0.0126347 0 0.000136123)
(0.0143055 0 0.000163004)
(0.0157481 0 0.000191288)
(0.0169854 0 0.000221545)
(0.0180382 0 0.00025434)
(0.0189263 0 0.000290246)
(0.019668 0 0.000329855)
(0.0202807 0 0.000373788)
(0.0207813 0 0.000422687)
(0.021186 0 0.000477213)
(0.0215113 0 0.000538023)
(0.0217737 0 0.000605734)
(0.02199 0 0.000680869)
(0.0221779 0 0.000763763)
(0.0223554 0 0.000854442)
(0.0225414 0 0.000952442)
(0.0227548 0 0.00105658)
(0.0230137 0 0.00116466)
(0.0233338 0 0.0012732)
(0.0237259 0 0.00137715)
(0.024192 0 0.00146988)
(0.0247206 0 0.00154371)
(0.0252807 0 0.0015914)
(0.0258158 0 0.00160932)
(0.0262387 0 0.00160265)
(0.0267086 0 0.00156846)
(0 0 0)
(0.00315373 0 3.20353e-05)
(0.00602779 0 6.2256e-05)
(0.00856034 0 9.08295e-05)
(0.0107844 0 0.00011868)
(0.0127304 0 0.000146582)
(0.0144263 0 0.000175202)
(0.0158977 0 0.000205142)
(0.017168 0 0.000236963)
(0.0182589 0 0.000271203)
(0.019191 0 0.000308391)
(0.0199832 0 0.00034905)
(0.020654 0 0.000393702)
(0.021221 0 0.000442856)
(0.0217016 0 0.000496992)
(0.0221131 0 0.000556532)
(0.0224728 0 0.000621793)
(0.0227985 0 0.000692922)
(0.0231081 0 0.0007698)
(0.0234198 0 0.000851922)
(0.0237514 0 0.000938243)
(0.0241202 0 0.00102699)
(0.0245408 0 0.0011155)
(0.0250239 0 0.00120005)
(0.0255727 0 0.00127581)
(0.0261794 0 0.00133715)
(0.0268208 0 0.00137829)
(0.0274542 0 0.00139496)
(0.0280161 0 0.0013873)
(0.0284255 0 0.00136456)
(0.0288453 0 0.00131454)
(0 0 0)
(0.00317216 0 3.41912e-05)
(0.00606449 0 6.64105e-05)
(0.00861588 0 9.68052e-05)
(0.0108603 0 0.000126331)
(0.012829 0 0.000155779)
(0.0145505 0 0.000185824)
(0.0160512 0 0.000217059)
(0.0173549 0 0.000250022)
(0.0184843 0 0.000285211)
(0.0194603 0 0.000323096)
(0.0203026 0 0.000364117)
(0.0210305 0 0.000408681)
(0.0216622 0 0.000457147)
(0.0222158 0 0.000509807)
(0.0227092 0 0.000566841)
(0.0231603 0 0.000628275)
(0.0235868 0 0.00069391)
(0.0240068 0 0.000763234)
(0.0244376 0 0.000835323)
(0.0248958 0 0.000908727)
(0.0253962 0 0.000981364)
(0.0259503 0 0.00105045)
(0.0265637 0 0.00111253)
(0.0272335 0 0.0011636)
(0.0279449 0 0.00119958)
(0.0286666 0 0.00121699)
(0.0293484 0 0.00121422)
(0.0299227 0 0.00119354)
(0.030314 0 0.00116471)
(0.0306747 0 0.00110878)
(0 0 0)
(0.00319078 0 3.60905e-05)
(0.00610159 0 7.00606e-05)
(0.00867203 0 0.00010203)
(0.010937 0 0.000132974)
(0.0129286 0 0.000163692)
(0.0146759 0 0.000194851)
(0.0162058 0 0.000227029)
(0.0175429 0 0.00026073)
(0.0187102 0 0.000296403)
(0.0197292 0 0.000334448)
(0.0206202 0 0.000375212)
(0.0214029 0 0.000418981)
(0.0220961 0 0.000465964)
(0.0227181 0 0.000516262)
(0.0232872 0 0.000569833)
(0.0238213 0 0.000626439)
(0.0243379 0 0.000685588)
(0.0248542 0 0.000746461)
(0.0253866 0 0.000807843)
(0.0259499 0 0.000868057)
(0.0265564 0 0.000924942)
(0.0272142 0 0.000975896)
(0.0279254 0 0.00101804)
(0.028683 0 0.00104857)
(0.0294683 0 0.00106523)
(0.030247 0 0.00106712)
(0.0309668 0 0.00105526)
(0.0315583 0 0.00103319)
(0.0319457 0 0.00100819)
(0.032261 0 0.000956393)
(0 0 0)
(0.00320925 0 3.77287e-05)
(0.00613839 0 7.31983e-05)
(0.00872774 0 0.000106496)
(0.0110131 0 0.000138603)
(0.0130273 0 0.000170317)
(0.0148002 0 0.000202291)
(0.0163588 0 0.000235078)
(0.0177285 0 0.00026914)
(0.0189325 0 0.000304873)
(0.0199929 0 0.000342599)
(0.0209303 0 0.000382571)
(0.0217645 0 0.000424955)
(0.0225147 0 0.000469815)
(0.0231993 0 0.000517079)
(0.0238363 0 0.000566508)
(0.0244434 0 0.000617648)
(0.0250375 0 0.000669779)
(0.0256346 0 0.000721871)
(0.0262497 0 0.000772539)
(0.0268954 0 0.000820034)
(0.0275815 0 0.000862284)
(0.0283135 0 0.000897026)
(0.0290905 0 0.000922088)
(0.0299038 0 0.000935829)
(0.0307342 0 0.0009378)
(0.0315498 0 0.000929543)
(0.0323031 0 0.000915121)
(0.0329292 0 0.000900383)
(0.0333472 0 0.000889612)
(0.0336801 0 0.000861965)
(0 0 0)
(0.00322718 0 3.91044e-05)
(0.00617415 0 7.58224e-05)
(0.00878196 0 0.000110204)
(0.0110873 0 0.000143225)
(0.0131236 0 0.000175671)
(0.0149212 0 0.000208178)
(0.0165077 0 0.000241262)
(0.0179086 0 0.000275344)
(0.0191477 0 0.000310758)
(0.020247 0 0.000347753)
(0.0212275 0 0.000386487)
(0.0221092 0 0.000427017)
(0.022911 0 0.000469273)
(0.0236512 0 0.000513039)
(0.0243476 0 0.000557913)
(0.0250168 0 0.000603278)
(0.0256749 0 0.000648261)
(0.0263366 0 0.000691709)
(0.0270148 0 0.000732178)
(0.0277202 0 0.000767962)
(0.0284601 0 0.000797174)
(0.0292373 0 0.000817932)
(0.0300491 0 0.000828668)
(0.030886 0 0.000828589)
(0.0317305 0 0.00081835)
(0.0325561 0 0.000800984)
(0.0333267 0 0.000782978)
(0.0339928 0 0.000774667)
(0.0344797 0 0.000784001)
(0.0350008 0 0.000820374)
(0 0 0)
(0.00324431 0 4.02332e-05)
(0.00620846 0 7.79583e-05)
(0.00883412 0 0.000113188)
(0.0111588 0 0.000146888)
(0.0132165 0 0.000179822)
(0.0150379 0 0.000212597)
(0.0166511 0 0.000245695)
(0.0180819 0 0.000279488)
(0.019354 0 0.000314251)
(0.0204897 0 0.000350161)
(0.02151 0 0.000387289)
(0.0224347 0 0.000425592)
(0.0232825 0 0.000464889)
(0.0240713 0 0.000504846)
(0.0248181 0 0.000544942)
(0.0255386 0 0.00058445)
(0.0262476 0 0.000622412)
(0.026958 0 0.000657636)
(0.027681 0 0.000688705)
(0.0284248 0 0.000714037)
(0.0291944 0 0.000731978)
(0.0299903 0 0.000740986)
(0.030808 0 0.000739897)
(0.0316372 0 0.000728249)
(0.032462 0 0.000706643)
(0.0332602 0 0.000677093)
(0.0340049 0 0.000642957)
(0.0346647 0 0.000607431)
(0.0351945 0 0.000566044)
(0.0363085 0 0.000807313)
(0 0 0)
(0.00213502 0 0)
(0.00349534 0 0)
(0.00524971 0 0)
(0.0071342 0 0)
(0.00900349 0 0)
(0.0107786 0 0)
(0.0124176 0 0)
(0.0138991 0 0)
(0.0152137 0 0)
(0.016358 0 0)
(0.0173324 0 0)
(0.0181387 0 0)
(0.0187788 0 0)
(0.0192541 0 0)
(0.0195652 0 0)
(0.0197112 0 0)
(0.0196896 0 0)
(0.0194966 0 0)
(0.0191265 0 0)
(0.0185717 0 0)
(0.0178231 0 0)
(0.0168694 0 0)
(0.0156978 0 0)
(0.0142933 0 0)
(0.0126392 0 0)
(0.0107168 0 0)
(0.00850565 0 0)
(0.00598357 0 0)
(0.00312666 0 0)
(0 0 0)
(0.00122995 0 -0.00114771)
(0.00285157 0 -0.000909339)
(0.00411481 0 -0.000810574)
(0.00576635 0 -0.00069625)
(0.00755958 0 -0.000589055)
(0.00935213 0 -0.000495614)
(0.0110641 0 -0.000416715)
(0.0126514 0 -0.000351063)
(0.0140908 0 -0.000296773)
(0.0153711 0 -0.000251946)
(0.0164875 0 -0.000214884)
(0.0174391 0 -0.00018415)
(0.0182265 0 -0.000158559)
(0.0188512 0 -0.000137147)
(0.0193139 0 -0.000119131)
(0.0196146 0 -0.00010388)
(0.0197519 0 -9.08811e-05)
(0.0197232 0 -7.97203e-05)
(0.0195243 0 -7.00581e-05)
(0.0191493 0 -6.16158e-05)
(0.0185904 0 -5.41622e-05)
(0.0178384 0 -4.75027e-05)
(0.0168819 0 -4.14706e-05)
(0.0157079 0 -3.59203e-05)
(0.0143015 0 -3.07204e-05)
(0.0126456 0 -2.5748e-05)
(0.0107217 0 -2.08833e-05)
(0.00850923 0 -1.60032e-05)
(0.00598593 0 -1.0975e-05)
(0.0031278 0 -5.64704e-06)
(0 0 0)
(0.00362845 0 -0.00195054)
(0.00480165 0 -0.00165577)
(0.00583804 0 -0.00149528)
(0.00722774 0 -0.00130114)
(0.00877667 0 -0.00111271)
(0.0103577 0 -0.000944354)
(0.0118922 0 -0.000799621)
(0.0133328 0 -0.000677545)
(0.0146516 0 -0.000575516)
(0.0158329 0 -0.00049055)
(0.0168681 0 -0.000419809)
(0.017753 0 -0.000360801)
(0.0184857 0 -0.000311424)
(0.0190652 0 -0.000269934)
(0.0194906 0 -0.000234899)
(0.0197605 0 -0.000205146)
(0.0198724 0 -0.000179717)
(0.0198227 0 -0.000157829)
(0.0196063 0 -0.000138839)
(0.0192168 0 -0.000122214)
(0.0186459 0 -0.00010751)
(0.0178838 0 -9.43513e-05)
(0.0169189 0 -8.24152e-05)
(0.0157379 0 -7.14181e-05)
(0.0143255 0 -6.11032e-05)
(0.0126646 0 -5.12297e-05)
(0.0107363 0 -4.15614e-05)
(0.00851997 0 -3.18557e-05)
(0.00599308 0 -2.18499e-05)
(0.00313143 0 -1.12436e-05)
(0 0 0)
(0.00687242 0 -0.00244926)
(0.00759548 0 -0.00216864)
(0.00836407 0 -0.00198807)
(0.00941645 0 -0.00175863)
(0.0106311 0 -0.00152629)
(0.0119105 0 -0.00131175)
(0.0131847 0 -0.00112254)
(0.0144053 0 -0.00095967)
(0.0155403 0 -0.000821302)
(0.0165689 0 -0.000704515)
(0.0174775 0 -0.000606186)
(0.0182575 0 -0.000523389)
(0.0189033 0 -0.00045355)
(0.0194109 0 -0.000394463)
(0.0197768 0 -0.000344271)
(0.0199973 0 -0.000301425)
(0.0200682 0 -0.000264639)
(0.0199845 0 -0.000232848)
(0.0197399 0 -0.000205166)
(0.0193268 0 -0.000180853)
(0.0187363 0 -0.000159286)
(0.0179578 0 -0.000139936)
(0.0169793 0 -0.000122342)
(0.0157867 0 -0.000106097)
(0.0143646 0 -9.08308e-05)
(0.0126955 0 -7.61935e-05)
(0.0107601 0 -6.18401e-05)
(0.00853745 0 -4.74144e-05)
(0.00600472 0 -3.25295e-05)
(0.00313733 0 -1.67415e-05)
(0 0 0)
(0.0105306 0 -0.00269063)
(0.0108714 0 -0.00245526)
(0.0113732 0 -0.00228235)
(0.0120756 0 -0.00205355)
(0.0129266 0 -0.00181198)
(0.0138642 0 -0.00158074)
(0.0148331 0 -0.00137054)
(0.0157887 0 -0.001185)
(0.0166974 0 -0.00102404)
(0.0175345 0 -0.000885763)
(0.0182821 0 -0.000767601)
(0.0189272 0 -0.00066684)
(0.0194603 0 -0.000580925)
(0.0198739 0 -0.000507557)
(0.0201613 0 -0.000444728)
(0.0203164 0 -0.000390713)
(0.0203328 0 -0.000344047)
(0.0202035 0 -0.000303494)
(0.019921 0 -0.000268007)
(0.0194762 0 -0.0002367)
(0.0188592 0 -0.000208818)
(0.0180586 0 -0.000183711)
(0.0170615 0 -0.000160807)
(0.0158533 0 -0.000139598)
(0.0144181 0 -0.000119615)
(0.0127377 0 -0.000100411)
(0.0107926 0 -8.15421e-05)
(0.00856128 0 -6.25484e-05)
(0.00602058 0 -4.29264e-05)
(0.00314536 0 -2.20968e-05)
(0 0 0)
(0.0142807 0 -0.00273595)
(0.01432 0 -0.00255239)
(0.0145831 0 -0.00240297)
(0.0149646 0 -0.00219849)
(0.0154679 0 -0.00197362)
(0.016065 0 -0.00175002)
(0.0167186 0 -0.0015398)
(0.0173919 0 -0.00134879)
(0.0180532 0 -0.0011789)
(0.0186766 0 -0.00102984)
(0.0192414 0 -0.000900141)
(0.0197311 0 -0.000787814)
(0.0201328 0 -0.00069075)
(0.0204355 0 -0.000606897)
(0.0206297 0 -0.000534361)
(0.0207066 0 -0.000471444)
(0.0206573 0 -0.000416661)
(0.0204731 0 -0.00036872)
(0.0201444 0 -0.000326505)
(0.0196609 0 -0.000289054)
(0.0190115 0 -0.00025553)
(0.0181836 0 -0.000225204)
(0.0171636 0 -0.000197426)
(0.0159361 0 -0.000171607)
(0.0144845 0 -0.0001472)
(0.0127901 0 -0.000123677)
(0.0108329 0 -0.000100508)
(0.00859089 0 -7.71398e-05)
(0.00604027 0 -5.29616e-05)
(0.00315532 0 -2.72693e-05)
(0 0 0)
(0.0178833 0 -0.00263598)
(0.0177065 0 -0.00250525)
(0.0177739 0 -0.00238744)
(0.0178868 0 -0.00222048)
(0.0180867 0 -0.00202861)
(0.0183736 0 -0.00182959)
(0.0187284 0 -0.00163529)
(0.0191249 0 -0.00145282)