/*--------------------------------*- C++ -*----------------------------------*\
| =========                 |                                                 |
| \\      /  F ield         | OpenFOAM: The Open Source CFD Toolbox           |
|  \\    /   O peration     | Version:  dev                                   |
|   \\  /    A nd           | Web:      www.OpenFOAM.org                      |
|    \\/     M anipulation  |                                                 |
\*---------------------------------------------------------------------------*/
FoamFile
{
    version     2.0;
    format      ascii;
    class       surfaceScalarField;
    location    "1.01";
    object      phi;
}
// * * * * * * * * * * * * * * * * * * * * * * * * * * * * * * * * * * * * * //

dimensions      [0 3 -1 0 0 0 0];

internalField   nonuniform List<scalar> 
5457
(
0.197864
0.00213043
0.195591
0.00227218
0.193133
0.00246317
0.19044
0.00270491
0.187505
0.00295119
0.184328
0.00319554
0.180902
0.00344503
0.177212
0.00370684
0.173243
0.0039828
0.168976
0.0042753
0.164393
0.00458587
0.159473
0.00491708
0.154193
0.00527254
0.148526
0.00565451
0.142446
0.00606522
0.135922
0.00650679
0.128925
0.00698068
0.12142
0.00748853
0.113376
0.00802997
0.104762
0.00860148
0.0955551
0.00919759
0.0857365
0.0098113
0.0752968
0.0104342
0.0642407
0.0110522
0.0525968
0.0116411
0.0404271
0.0121679
0.0278411
0.0125848
0.0150626
0.0127779
0.00297005
0.0120923
0.00296999
0.199646
0.00247867
0.198676
0.00324081
0.197394
0.00375059
0.195826
0.00428408
0.193969
0.00482449
0.191819
0.00536419
0.18937
0.0059141
0.18661
0.00648431
0.183527
0.0070798
0.180104
0.00770688
0.176325
0.00836797
0.17217
0.00906876
0.167617
0.00981756
0.162641
0.0106186
0.157214
0.011477
0.151306
0.0123977
0.144885
0.0133848
0.137916
0.0144418
0.13036
0.0155716
0.122178
0.0167717
0.113333
0.0180326
0.103796
0.019341
0.0935402
0.0206842
0.0825442
0.0220441
0.0708006
0.0233817
0.0583343
0.0246324
0.0452295
0.0256884
0.0316984
0.0263083
0.0179044
0.025886
0.0208744
0.199503
0.00296969
0.198604
0.00413763
0.197393
0.00496674
0.195922
0.00576664
0.194195
0.00656747
0.192205
0.0073735
0.189943
0.00819623
0.187401
0.00904377
0.18457
0.00992559
0.181435
0.0108509
0.177981
0.0118256
0.174188
0.0128587
0.170038
0.0139602
0.165507
0.0151376
0.160569
0.0163999
0.155194
0.0177556
0.149349
0.0192132
0.142994
0.0207798
0.136089
0.0224623
0.128584
0.0242647
0.120423
0.0261831
0.111549
0.0282077
0.101899
0.0303281
0.0914039
0.0325349
0.0799764
0.0348062
0.0675147
0.0370921
0.0538956
0.0393062
0.0388469
0.0413563
0.0212413
0.0434913
0.0421156
0.199412
0.00355107
0.198515
0.0050324
0.197318
0.00616844
0.195864
0.00723237
0.194161
0.00828734
0.192202
0.00935154
0.189982
0.0104359
0.187496
0.0115488
0.184733
0.0127029
0.181685
0.0139085
0.178336
0.0151783
0.17467
0.0165234
0.170671
0.0179518
0.166321
0.0194758
0.161597
0.0211084
0.156474
0.0228624
0.150919
0.0247509
0.144897
0.0267857
0.138361
0.0289829
0.13126
0.031353
0.123528
0.0339044
0.115082
0.0366459
0.105824
0.0395798
0.0956376
0.042717
0.0843605
0.04608
0.0717444
0.0497059
0.0574417
0.0536074
0.0410084
0.0577888
0.0217988
0.0627006
0.0639142
0.199365
0.00417896
0.198457
0.00593788
0.197273
0.00735713
0.195836
0.00868064
0.194152
0.00998836
0.192217
0.0113055
0.190029
0.0126442
0.18758
0.0140169
0.18486
0.0154375
0.181861
0.0169186
0.178567
0.0184766
0.174965
0.0201236
0.171041
0.0218688
0.166778
0.023728
0.162154
0.0257174
0.157146
0.0278542
0.151723
0.0301567
0.14585
0.0326418
0.139484
0.0353344
0.132564
0.0382594
0.125017
0.0414405
0.116744
0.0449104
0.10761
0.0487071
0.0974503
0.052872
0.0860661
0.0574605
0.0731599
0.0626096
0.0582732
0.0684924
0.0408892
0.0751718
0.0211865
0.0824028
0.0851006
0.19934
0.00483104
0.198425
0.00684993
0.197256
0.00853094
0.195839
0.0101081
0.194179
0.0116652
0.192275
0.0132294
0.190123
0.0148173
0.187714
0.0164451
0.185039
0.0181283
0.182086
0.0198826
0.178843
0.0217246
0.175298
0.0236678
0.171434
0.0257267
0.167233
0.0279189
0.162673
0.030263
0.15773
0.0327808
0.152374
0.0354959
0.146565
0.038434
0.140257
0.041627
0.133387
0.0451163
0.125867
0.0489487
0.11759
0.0531783
0.108407
0.057883
0.0981054
0.0631677
0.0864326
0.0691291
0.0731313
0.0759078
0.0577963
0.0838253
0.0398647
0.0931022
0.0201495
0.102118
0.10525
0.19933
0.0054924
0.198416
0.00776045
0.197262
0.00968925
0.195868
0.0115134
0.194237
0.0133127
0.192369
0.0151175
0.190258
0.0169494
0.187895
0.0188276
0.185271
0.0207694
0.182373
0.0227922
0.17919
0.024914
0.175708
0.0271502
0.171907
0.029522
0.167767
0.0320492
0.163265
0.0347506
0.158376
0.0376541
0.153066
0.0407889
0.147293
0.044191
0.141
0.0479043
0.134118
0.0519842
0.126547
0.0565081
0.118157
0.0615587
0.108803
0.0672283
0.0982854
0.0736794
0.0862948
0.081115
0.0725458
0.0896533
0.0568242
0.0995445
0.0386536
0.111271
0.0191266
0.121644
0.124376
0.199328
0.00615479
0.198421
0.00866318
0.197286
0.010828
0.195919
0.012891
0.194324
0.0149245
0.192499
0.016963
0.190436
0.0190333
0.188128
0.0211568
0.185563
0.0233522
0.182729
0.0256391
0.179613
0.0280368
0.1762
0.0305647
0.17247
0.033248
0.168401
0.0361092
0.163967
0.0391716
0.159138
0.0424671
0.153879
0.0460319
0.148134
0.0499188
0.141843
0.0541795
0.134931
0.0588822
0.127294
0.064133
0.118784
0.0700578
0.109219
0.0767849
0.0984251
0.0844657
0.0861261
0.0934084
0.0719711
0.103804
0.0559119
0.115601
0.0376176
0.129564
0.0183165
0.140944
0.142693
0.199331
0.00681285
0.198437
0.00955273
0.197326
0.0119428
0.195991
0.0142356
0.194438
0.0164949
0.192661
0.0187601
0.190654
0.0210625
0.188407
0.0234252
0.185909
0.0258682
0.183149
0.028414
0.18011
0.0310841
0.176774
0.0339029
0.173127
0.0368922
0.169145
0.0400836
0.164793
0.0435113
0.16004
0.0472049
0.154844
0.0512123
0.149146
0.0555995
0.142881
0.0604286
0.13595
0.0657991
0.128247
0.0718231
0.119647
0.078646
0.109937
0.0864852
0.0988811
0.0955131
0.0862893
0.105994
0.0718642
0.118225
0.0555317
0.13193
0.0370893
0.148004
0.0179394
0.160093
0.160632
0.199341
0.00746007
0.198463
0.0104258
0.197376
0.0130315
0.19608
0.015542
0.194574
0.0180178
0.192852
0.0205024
0.190907
0.0230304
0.188728
0.0256255
0.186307
0.0283087
0.18363
0.0311067
0.18068
0.0340442
0.177441
0.0371464
0.173893
0.0404388
0.170009
0.0439608
0.165758
0.0477505
0.161106
0.0518436
0.155995
0.0563072
0.150373
0.0612055
0.14417
0.0666156
0.137283
0.0726715
0.129577
0.0795148
0.12092
0.0872906
0.111145
0.0962491
0.09996
0.106689
0.0871825
0.118764
0.0725884
0.132813
0.056042
0.148472
0.0374511
0.166593
0.0182938
0.17925
0.178925
0.199354
0.00809357
0.198493
0.0112795
0.197438
0.0140885
0.196187
0.0168031
0.194734
0.0194872
0.193072
0.0221857
0.191193
0.0249321
0.189092
0.0277492
0.186758
0.0306635
0.184175
0.0337065
0.181327
0.0369033
0.1782
0.0402794
0.174765
0.043874
0.170997
0.0477239
0.166872
0.0518651
0.162346
0.056357
0.157367
0.0612716
0.151871
0.0666854
0.145772
0.0726985
0.13899
0.0794391
0.131402
0.087088
0.122823
0.0958565
0.113096
0.105964
0.101987
0.117788
0.089217
0.131526
0.0745582
0.147466
0.0579136
0.165113
0.0392424
0.185262
0.0198533
0.198638
0.198779
0.199368
0.00871175
0.198531
0.012108
0.197514
0.0151074
0.196311
0.0180157
0.194914
0.0209005
0.193315
0.0238054
0.191511
0.0267592
0.189498
0.0297857
0.18726
0.032923
0.184782
0.0362029
0.18205
0.0396485
0.179044
0.0432923
0.175742
0.0471785
0.17212
0.0513423
0.16815
0.0558272
0.16378
0.0607145
0.158967
0.0660709
0.153656
0.0719812
0.147757
0.0785821
0.141171
0.0860102
0.133807
0.0944374
0.125496
0.104153
0.116029
0.115418
0.105215
0.12859
0.0927477
0.143984
0.0783865
0.16182
0.0619686
0.181526
0.0434239
0.203804
0.0235814
0.218479
0.22236
0.199385
0.00931038
0.198578
0.0129065
0.1976
0.016086
0.196446
0.0191788
0.195109
0.0222537
0.193584
0.0253515
0.191867
0.0284998
0.189948
0.031729
0.187812
0.0350816
0.185449
0.0385854
0.182845
0.0422671
0.179979
0.046168
0.176832
0.0503293
0.173382
0.0547907
0.169592
0.059611
0.165424
0.0648717
0.160829
0.0706537
0.155753
0.0770425
0.150143
0.084177
0.143897
0.0922419
0.136892
0.101426
0.129028
0.112001
0.120106
0.124326
0.109952
0.138732
0.0983275
0.155598
0.0849633
0.175176
0.0694894
0.196995
0.0517992
0.221492
0.0315968
0.238681
0.253957
0.199406
0.00988633
0.198631
0.0136721
0.197694
0.0170222
0.196594
0.0202881
0.195323
0.0235396
0.19388
0.0268161
0.192255
0.0301488
0.190434
0.0335742
0.18841
0.0371297
0.186175
0.0408415
0.183714
0.0447441
0.181008
0.0488853
0.178039
0.0533039
0.174783
0.0580476
0.171202
0.0631872
0.167274
0.0687912
0.162966
0.0749506
0.158213
0.081783
0.152969
0.0894065
0.147184
0.0980119
0.140742
0.107854
0.133569
0.119157
0.125559
0.13232
0.116618
0.147659
0.106622
0.165583
0.0953531
0.186437
0.0824092
0.209934
0.0677879
0.236111
0.0486333
0.257835
0.30259
0.199425
0.0104416
0.198682
0.0144041
0.197789
0.0179141
0.196743
0.0213413
0.195543
0.0247558
0.194181
0.0281985
0.192649
0.0317054
0.190933
0.0353153
0.189028
0.0390597
0.186928
0.042963
0.184619
0.0470711
0.18208
0.0514375
0.179296
0.0560962
0.176248
0.0610974
0.172912
0.0665212
0.169258
0.0724395
0.165269
0.0789295
0.160907
0.0861328
0.156121
0.0941803
0.150896
0.103222
0.145195
0.113539
0.138972
0.125364
0.13225
0.139026
0.125073
0.154821
0.117542
0.173102
0.109846
0.194125
0.102131
0.217643
0.0950222
0.243217
0.0844047
0.268452
0.386996
0.00733569
-0.00733632
0.0119508
-0.00461812
0.0154957
-0.00355452
0.017891
-0.00241498
0.0186568
-0.000794935
0.0175269
0.00109619
0.0146184
0.00287541
0.0102303
0.00435794
0.0046964
0.0055059
-0.00163957
0.0063116
-0.00848493
0.00682592
-0.0156396
0.00713764
-0.022924
0.00726815
-0.0301598
0.0072212
-0.0371756
0.00700376
-0.0438048
0.0066209
-0.0498525
0.00604405
-0.0551328
0.00528228
-0.0594632
0.00433821
-0.0626555
0.0032064
-0.0645369
0.00190139
-0.064901
0.000389935
-0.0634373
-0.00143276
-0.059789
-0.00361274
-0.0536593
-0.00609029
-0.044751
-0.00886553
-0.0325347
-0.0121709
-0.0155327
-0.0169545
0.00941193
-0.0248953
-0.0313171
0.00265261
-0.00998961
0.00467115
-0.00663991
0.00545909
-0.00435242
0.00453105
-0.00150688
0.00193611
0.00177098
-0.00202585
0.00502503
-0.00714041
0.0079577
-0.0131949
0.010383
-0.01998
0.0122637
-0.0273163
0.0136237
-0.035052
0.014542
-0.0430109
0.0150793
-0.0510107
0.0152516
-0.0588924
0.015088
-0.0664842
0.0145832
-0.0736106
0.0137387
-0.0800919
0.0125215
-0.0857416
0.0109336
-0.0903826
0.00898689
-0.0938298
0.00666738
-0.0959093
0.00400071
-0.0964486
0.000954758
-0.0952893
-0.00256133
-0.0922749
-0.00659182
-0.0872576
-0.0110684
-0.0800967
-0.0159839
-0.0706477
-0.0215747
-0.0591359
-0.0284189
-0.0475709
-0.0364111
-0.0433376
-0.000333296
-0.00965705
-0.00141174
-0.00556494
-0.00368543
-0.00208897
-0.00720319
0.00199113
-0.0117625
0.00630242
-0.0172599
0.0104912
-0.0235283
0.0141956
-0.030408
0.0172346
-0.0377739
0.0196033
-0.0455249
0.0213508
-0.0535515
0.0225487
-0.0617316
0.0232417
-0.0699222
0.0234253
-0.077988
0.0231384
-0.0857813
0.0223637
-0.0931267
0.021075
-0.0998702
0.0192605
-0.105838
0.0169027
-0.110856
0.0140117
-0.114764
0.0105884
-0.117392
0.00664829
-0.118608
0.00219593
-0.118338
-0.00280204
-0.116524
-0.00837103
-0.113129
-0.0144243
-0.108181
-0.0208893
-0.10187
-0.0278413
-0.0948237
-0.0354177
-0.0880326
-0.0431533
-0.0496237
-0.00262854
-0.00702931
-0.00628691
-0.00191021
-0.0108433
0.00245714
-0.0161892
0.00731813
-0.022234
0.0123215
-0.0288082
0.0170368
-0.0357949
0.0211544
-0.0431243
0.0245377
-0.0507519
0.0272057
-0.0586432
0.0292186
-0.066735
0.0306204
-0.0749498
0.0314384
-0.0831902
0.031648
-0.0913262
0.0312584
-0.0992265
0.0302504
-0.106736
0.028575
-0.113703
0.0262224
-0.119965
0.0231643
-0.125345
0.019398
-0.129698
0.0149539
-0.132873
0.00984201
-0.134759
0.00410598
-0.135326
-0.00220634
-0.134592
-0.00907053
-0.132586
-0.016392
-0.12942
-0.0240139
-0.125382
-0.0318348
-0.121032
-0.0397216
-0.116986
-0.0471508
-0.0530261
-0.00447049
-0.00255966
-0.01007
0.00368554
-0.0163306
0.00870772
-0.0231021
0.0140722
-0.0301812
0.0193775
-0.0374232
0.0242534
-0.044788
0.0284941
-0.0522961
0.0320215
-0.05997
0.0348557
-0.0678263
0.037052
-0.0758463
0.0386201
-0.0839806
0.0395538
-0.0921587
0.0398078
-0.100265
0.0393482
-0.108177
0.0381481
-0.115758
0.0361448
-0.122854
0.0333122
-0.129314
0.0296235
-0.134979
0.0250681
-0.139705
0.0196912
-0.143371
0.0135249
-0.14589
0.00664858
-0.147245
-0.000822364
-0.14748
-0.00880308
-0.146664
-0.0171704
-0.144947
-0.0256896
-0.142623
-0.0341156
-0.140139
-0.0421589
-0.13796
-0.0492817
-0.0546189
-0.00584408
0.00328354
-0.0129846
0.0108223
-0.0205672
0.0162809
-0.0282969
0.0217861
-0.0359597
0.02702
-0.0434928
0.0317645
-0.0509377
0.0359165
-0.0583907
0.0394522
-0.0659359
0.0423784
-0.0736219
0.0447158
-0.0814579
0.0464355
-0.0894162
0.0474926
-0.0974425
0.0478151
-0.105442
0.04733
-0.113301
0.0459914
-0.120891
0.043724
-0.128067
0.0404803
-0.134685
0.0362403
-0.140609
0.0309961
-0.1457
0.0247919
-0.149847
0.0176884
-0.152974
0.00979787
-0.155049
0.00127999
-0.156125
-0.00769493
-0.156319
-0.0169395
-0.155783
-0.0261857
-0.154781
-0.0350745
-0.153677
-0.0432176
-0.152845
-0.0500659
-0.0549556
-0.00690268
0.0101853
-0.015253
0.0191689
-0.0236945
0.0247137
-0.0318878
0.0299657
-0.0396941
0.0348091
-0.0471606
0.0392118
-0.0544178
0.0431538
-0.0616202
0.0466342
-0.0688892
0.0496263
-0.0762932
0.0520985
-0.0838587
0.0539804
-0.0915725
0.0551864
-0.0993904
0.0556133
-0.107233
0.0551539
-0.114992
0.0537343
-0.122551
0.0512708
-0.12978
0.0477013
-0.136544
0.0430018
-0.142715
0.03717
-0.148163
0.0302485
-0.152778
0.0223187
-0.156479
0.0135202
-0.159229
0.0040563
-0.161075
-0.00581817
-0.162146
-0.015833
-0.16259
-0.0257019
-0.162639
-0.0349833
-0.162595
-0.0432167
-0.162773
-0.0498409
-0.054368
-0.00773657
0.017921
-0.0168859
0.0283148
-0.025682
0.0335022
-0.0338346
0.0381065
-0.0413585
0.0423183
-0.0484309
0.0462677
-0.0552669
0.0499721
-0.0620533
0.0534018
-0.0689246
0.0564777
-0.0759605
0.0591139
-0.0831944
0.0611937
-0.0906188
0.0625904
-0.0981933
0.0631676
-0.105849
0.0627907
-0.11349
0.0613584
-0.121008
0.0587758
-0.128287
0.054972
-0.135201
0.0499115
-0.141621
0.0435923
-0.147424
0.0360592
-0.152499
0.0274084
-0.156762
0.0178029
-0.160166
0.00748527
-0.162731
-0.00322325
-0.164571
-0.0139577
-0.165843
-0.0243918
-0.166745
-0.0340397
-0.167537
-0.0423811
-0.168492
-0.0488395
-0.0530731
-0.00831542
0.0262355
-0.017797
0.0377933
-0.0263847
0.0420833
-0.0339755
0.0456874
-0.0408159
0.0491462
-0.0472126
0.0526502
-0.053433
0.0561765
-0.0596704
0.0596218
-0.0660577
0.0628462
-0.0726709
0.0657071
-0.0795396
0.068042
-0.0866539
0.0696842
-0.0939725
0.0704658
-0.101435
0.0702343
-0.108959
0.0688647
-0.116445
0.0662486
-0.123786
0.0623035
-0.130863
0.0569832
-0.13755
0.0502813
-0.143727
0.0422426
-0.149278
0.0329726
-0.154109
0.0226521
-0.158152
0.0115525
-0.161385
3.90786e-05
-0.1639
-0.0114087
-0.165883
-0.0223725
-0.167492
-0.0323897
-0.168956
-0.0408742
-0.170521
-0.0472285
-0.05123
-0.00859037
0.034825
-0.0178125
0.0470128
-0.0255312
0.0497965
-0.0320345
0.0521824
-0.0378404
0.0549414
-0.0433416
0.0581388
-0.0488097
0.0616301
-0.0544204
0.0652163
-0.0602865
0.0686944
-0.0664618
0.0718631
-0.0729573
0.0745175
-0.0797555
0.0764619
-0.0868182
0.0775082
-0.0940929
0.0774898
-0.101507
0.076262
-0.108974
0.0737015
-0.116394
0.0697133
-0.123655
0.0642389
-0.130635
0.0572619
-0.137207
0.0488207
-0.143245
0.0390221
-0.148633
0.0280581
-0.153285
0.0162272
-0.157175
0.00395726
-0.160346
-0.00820537
-0.162957
-0.019725
-0.165167
-0.03014
-0.167183
-0.0388157
-0.169238
-0.0451291
-0.048957
-0.00845449
0.0432788
-0.0165974
0.0551533
-0.0226873
0.0558817
-0.0276326
0.0571205
-0.0321532
0.0594528
-0.0366393
0.0626135
-0.0413144
0.0662918
-0.0462972
0.0701837
-0.0516523
0.0740323
-0.0573932
0.0775853
-0.0635132
0.0806177
-0.069991
0.0829194
-0.0767964
0.0842935
-0.0838847
0.0845589
-0.0911943
0.0835543
-0.0986486
0.0811416
-0.106158
0.0772124
-0.113617
0.0716926
-0.120905
0.064549
-0.127885
0.0558067
-0.134422
0.0455699
-0.14039
0.0340425
-0.145689
0.0215484
-0.150254
0.00854921
-0.154064
-0.00436434
-0.157246
-0.0165077
-0.15998
-0.0273668
-0.162463
-0.0362914
-0.164922
-0.0426264
-0.0463301
-0.00759675
0.0508749
-0.0135073
0.0610619
-0.0172251
0.0595955
-0.0203259
0.060215
-0.0235184
0.0626369
-0.0270359
0.0661204
-0.0309798
0.0702229
-0.0353796
0.0745687
-0.0402386
0.0788745
-0.0455439
0.0828724
-0.0512804
0.0863351
-0.0574298
0.089049
-0.063968
0.0908119
-0.0708587
0.0914309
-0.0780514
0.09073
-0.0854819
0.0885578
-0.0930732
0.0847933
-0.100731
0.0793442
-0.108337
0.0721542
-0.115754
0.0632285
-0.122837
0.0526637
-0.129447
0.040668
-0.135453
0.0275753
-0.140732
0.0138545
-0.145171
0.000104926
-0.148865
-0.0127791
-0.152079
-0.0241157
-0.154974
-0.0333562
-0.157783
-0.0397739
-0.0433904
-0.0051167
0.0559911
-0.00741776
0.0633611
-0.00848627
0.0606603
-0.00991221
0.0616352
-0.0119814
0.0646982
-0.0146774
0.0688064
-0.0179596
0.0734928
-0.0218022
0.0783968
-0.0261676
0.0832237
-0.0310332
0.0877203
-0.036375
0.0916582
-0.0421765
0.0948312
-0.0484206
0.0970367
-0.0550807
0.0980726
-0.062117
0.0977497
-0.0694796
0.0959065
-0.0771102
0.0924135
-0.0849338
0.0871619
-0.0928445
0.0800637
-0.100708
0.071096
-0.10837
0.0603358
-0.115662
0.0479751
-0.122393
0.0343261
-0.128375
0.0198614
-0.133532
0.00529173
-0.13786
-0.00841828
-0.141555
-0.0203837
-0.144841
-0.0300307
-0.147978
-0.0365944
-0.0401468
0.000483777
0.0555068
0.00244665
0.0613965
0.0035764
0.0595269
0.00330932
0.0618967
0.0021411
0.0658587
0.000192459
0.0707452
-0.00246702
0.0761404
-0.00576595
0.0816817
-0.00963924
0.087081
-0.0140578
0.0921217
-0.0189823
0.0965646
-0.0244009
0.100231
-0.0303042
0.102922
-0.0366748
0.104426
-0.0434815
0.10454
-0.0506886
0.1031
-0.0582615
0.0999763
-0.0661584
0.0950528
-0.0742927
0.0881967
-0.0825407
0.0793479
-0.0907473
0.0685515
-0.0987254
0.0559676
-0.106252
0.0418718
-0.11312
0.0267537
-0.11917
0.0113702
-0.124231
-0.00332408
-0.128446
-0.0161335
-0.132145
-0.0262926
-0.135622
-0.0330757
-0.0365801
0.0121994
0.0433069
0.0174441
0.0561497
0.0182302
0.0587371
0.0184931
0.0616281
0.0181728
0.0661714
0.0170166
0.0718917
0.0150681
0.0780771
0.0124067
0.0843294
0.00909739
0.0903747
0.00518826
0.0960141
0.000692144
0.101043
-0.00435529
0.105261
-0.00988661
0.108435
-0.0158894
0.110411
-0.0223604
0.110996
-0.0292778
0.110005
-0.0366319
0.107321
-0.0444333
0.102848
-0.0526185
0.0963806
-0.0610873
0.0878205
-0.0697078
0.0771808
-0.0783307
0.0646043
-0.0867415
0.0503014
-0.0946939
0.0347296
-0.101857
0.0185615
-0.107845
0.00269478
-0.112699
-0.0112442
-0.116915
-0.0220386
-0.120797
-0.0291536
-0.0326402
0.207093
0.0109868
0.206365
0.015118
0.205494
0.0187819
0.204479
0.022363
0.203319
0.0259322
0.202005
0.0295334
0.200527
0.0332089
0.198873
0.0369957
0.197043
0.0409157
0.195031
0.0449991
0.192822
0.0493005
0.190401
0.0538739
0.187751
0.0587568
0.184861
0.0639921
0.181726
0.0696565
0.17832
0.0758414
0.174617
0.082625
0.170622
0.0901164
0.166329
0.0984612
0.161724
0.107813
0.15685
0.118398
0.151765
0.13043
0.146642
0.144131
0.141745
0.159703
0.137564
0.17727
0.135004
0.196676
0.135517
0.217125
0.14157
0.237162
0.156744
0.253279
0.26068
0.283061
0.212131
0.0115153
0.211429
0.0158042
0.210594
0.0196105
0.20963
0.0233332
0.208531
0.0270459
0.207288
0.0307984
0.205889
0.0346338
0.204333
0.0385789
0.202619
0.0426572
0.200733
0.0469106
0.198668
0.0513879
0.19642
0.0561392
0.193975
0.0612149
0.191319
0.0666551
0.188459
0.0725191
0.185387
0.078911
0.182092
0.0859146
0.178605
0.0935941
0.174958
0.102097
0.171174
0.111584
0.167372
0.122185
0.16374
0.134043
0.160595
0.147257
0.158448
0.161833
0.158162
0.177543
0.16112
0.193708
0.169338
0.208902
0.185651
0.220847
0.21156
0.22737
0.234522
0.237719
0.217297
0.0120209
0.216629
0.0164553
0.215839
0.0203918
0.214933
0.0242426
0.213904
0.0280877
0.212742
0.0319823
0.211441
0.0359599
0.210006
0.040043
0.208426
0.0442656
0.206693
0.0486704
0.204804
0.0533008
0.202761
0.0582024
0.200559
0.0634322
0.198194
0.0690293
0.19567
0.0750481
0.192996
0.0815855
0.190208
0.0886987
0.187339
0.0964564
0.184444
0.104983
0.181636
0.114381
0.179094
0.124712
0.177098
0.136021
0.176079
0.148255
0.176683
0.161212
0.179787
0.174424
0.186422
0.187064
0.197308
0.198011
0.212224
0.20593
0.229189
0.210406
0.212323
0.251389
0.222592
0.0124996
0.221965
0.0170636
0.22123
0.0211169
0.220389
0.0250839
0.219437
0.0290501
0.21837
0.0330692
0.217187
0.0371682
0.215885
0.0413736
0.214459
0.0457208
0.212905
0.0502527
0.211224
0.0550074
0.209418
0.0600306
0.207492
0.0653757
0.205461
0.0710729
0.203328
0.0771885
0.201124
0.083792
0.198912
0.0909089
0.196734
0.0986301
0.194689
0.10702
0.192953
0.116108
0.191746
0.125905
0.191402
0.136347
0.192367
0.14727
0.195192
0.158369
0.200436
0.169166
0.208496
0.178993
0.219346
0.187155
0.232597
0.192677
0.248065
0.194938
0.193079
0.26731
0.228018
0.0129471
0.22744
0.0176219
0.22677
0.0217756
0.226005
0.0258478
0.22514
0.0299233
0.224179
0.0340459
0.223126
0.0382455
0.221977
0.0425511
0.220728
0.0470002
0.219374
0.0516356
0.217927
0.0564818
0.216394
0.0615871
0.214786
0.067003
0.213122
0.0727518
0.211426
0.0788936
0.209751
0.085472
0.208158
0.0925028
0.206726
0.10006
0.205599
0.108141
0.204969
0.11673
0.205071
0.125792
0.206215
0.135188
0.208745
0.144721
0.213014
0.154082
0.219305
0.16286
0.22773
0.170558
0.238226
0.176652
0.250492
0.180408
0.264012
0.181418
0.178862
0.27823
0.233581
0.0133572
0.233058
0.0181236
0.23246
0.0223608
0.231782
0.0265237
0.231018
0.030694
0.230174
0.0349032
0.229262
0.0391785
0.228284
0.0435556
0.227232
0.0480817
0.226106
0.0527917
0.224921
0.057695
0.223692
0.0628402
0.222432
0.0682842
0.22117
0.0740303
0.219955
0.0801213
0.218843
0.0865909
0.217908
0.0934409
0.217268
0.1007
0.217072
0.108333
0.217491
0.116305
0.21874
0.124534
0.221049
0.132865
0.224655
0.1411
0.229769
0.148953
0.236526
0.156089
0.244941
0.162134
0.254901
0.166685
0.265982
0.169323
0.277498
0.1699
0.167369
0.288991
0.239284
0.0137238
0.238822
0.0185621
0.238303
0.0228657
0.237719
0.0271032
0.237067
0.0313509
0.236358
0.0356243
0.235606
0.039949
0.234815
0.0443709
0.233978
0.0489459
0.233101
0.0536974
0.232204
0.0586211
0.231299
0.063771
0.230414
0.0691917
0.229594
0.0748682
0.228892
0.080837
0.228376
0.0871166
0.228131
0.0936912
0.228274
0.100558
0.228932
0.107674
0.230255
0.114978
0.232415
0.122366
0.235582
0.129687
0.23992
0.136748
0.245531
0.14333
0.252454
0.149154
0.260676
0.153902
0.270018
0.157336
0.28005
0.159287
0.290271
0.159677
0.157308
0.300331
0.245129
0.0140406
0.244736
0.01893
0.2443
0.023286
0.243815
0.0275824
0.243289
0.031879
0.242738
0.036186
0.242168
0.0405362
0.241578
0.0449835
0.240968
0.0495811
0.240358
0.0543341
0.239767
0.05924
0.239212
0.0643517
0.238739
0.0696879
0.238389
0.0752371
0.238218
0.0810233
0.238301
0.0870454
0.238716
0.0932829
0.239566
0.099713
0.240961
0.106278
0.243035
0.112902
0.245917
0.119478
0.249729
0.125866
0.254555
0.131911
0.260443
0.13743
0.267412
0.142175
0.275381
0.145925
0.284138
0.148573
0.293365
0.150056
0.302712
0.150327
0.148207
0.311812
0.25112
0.0143022
0.250799
0.0192239
0.25045
0.0236166
0.25008
0.0279452
0.249702
0.0322576
0.249323
0.0365734
0.248945
0.0409298
0.248568
0.0453807
0.248207
0.0499655
0.247887
0.0546797
0.247621
0.0595314
0.247442
0.0645561
0.247393
0.0697598
0.247514
0.0751362
0.247862
0.0806918
0.248505
0.086415
0.249519
0.0922782
0.250996
0.0982413
0.253034
0.104242
0.255736
0.1102
0.259195
0.116016
0.263477
0.121578
0.268625
0.126754
0.274687
0.13136
0.281638
0.135216
0.289337
0.138218
0.297595
0.140309
0.306192
0.141453
0.314873
0.141642
0.139778
0.323299
0.257259
0.0145043
0.257015
0.0194373
0.25677
0.0238416
0.256534
0.0281714
0.256314
0.0324758
0.256114
0.0367798
0.255937
0.0411202
0.255791
0.0455442
0.2557
0.0500784
0.255681
0.0547225
0.255753
0.0594842
0.255952
0.064381
0.256318
0.0694158
0.256893
0.0745811
0.257732
0.0798697
0.258898
0.0852628
0.26046
0.0907261
0.262498
0.0962112
0.265089
0.101655
0.268312
0.106979
0.272221
0.112106
0.276848
0.116946
0.282243
0.121353
0.288416
0.125181
0.295282
0.128344
0.302714
0.13078
0.310569
0.132449
0.318676
0.133342
0.326848
0.133466
0.131825
0.334798
0.26355
0.0146409
0.263396
0.0195589
0.263268
0.0239468
0.263174
0.0282529
0.263119
0.0325271
0.263106
0.0367964
0.263141
0.0410953
0.26324
0.0454615
0.263422
0.0499155
0.263707
0.0544592
0.264118
0.0590956
0.26469
0.0638317
0.265461
0.0686661
0.266474
0.0735882
0.267778
0.0785825
0.26943
0.0836249
0.271489
0.0886774
0.27402
0.0936887
0.277083
0.0985976
0.280731
0.103334
0.284997
0.107842
0.289909
0.112034
0.295489
0.11577
0.301699
0.118967
0.308454
0.121584
0.315657
0.123574
0.323188
0.124914
0.330915
0.125611
0.338699
0.125678
0.12422
0.346301
0.27
0.0147043
0.269944
0.0195799
0.269939
0.0239259
0.269992
0.0281844
0.270107
0.0324056
0.270288
0.0366163
0.270544
0.0408469
0.270891
0.0451271
0.27135
0.0494731
0.271942
0.0538866
0.272691
0.058367
0.27363
0.0629141
0.274794
0.0675221
0.276223
0.0721773
0.277963
0.0768592
0.280061
0.081541
0.282565
0.0861843
0.285527
0.0907359
0.288991
0.0951401
0.292991
0.0993395
0.297552
0.103283
0.302692
0.106895
0.308391
0.11007
0.3146
0.112757
0.321253
0.11493
0.328264
0.11656
0.335538
0.117639
0.342969
0.118178
0.350452
0.118192
0.116885
0.357786
0.27661
0.0146881
0.276658
0.0194942
0.276781
0.0237736
0.276986
0.0279609
0.277276
0.0321057
0.277657
0.0362332
0.27814
0.0403692
0.27874
0.0445367
0.279478
0.0487486
0.280375
0.0530058
0.281456
0.0573042
0.28275
0.0616387
0.284291
0.0659998
0.286114
0.0703715
0.288259
0.0747299
0.290762
0.0790508
0.293659
0.0832986
0.296994
0.0874106
0.300801
0.09134
0.305099
0.0950479
0.309901
0.0984855
0.315209
0.10159
0.320988
0.104293
0.327188
0.106558
0.33375
0.108366
0.340606
0.109704
0.347674
0.110569
0.354872
0.110978
0.362118
0.110945
0.109762
0.369241
0.283384
0.0145873
0.28354
0.0192966
0.283797
0.023485
0.284158
0.0275777
0.284628
0.0316226
0.285213
0.0356427
0.285925
0.0396588
0.286779
0.0436888
0.287795
0.047743
0.288993
0.0518211
0.290397
0.0559157
0.292033
0.0600191
0.293931
0.0641178
0.29612
0.068198
0.298627
0.0722367
0.301491
0.0761993
0.304747
0.0800533
0.308419
0.0837484
0.312523
0.0872428
0.317072
0.0905054
0.322068
0.093495
0.3275
0.0961634
0.333331
0.0984649
0.339516
0.100375
0.346003
0.101881
0.352731
0.102976
0.359634
0.103666
0.366647
0.103965
0.373703
0.103888
0.102808
0.380657
0.290323
0.0143976
0.290592
0.0189828
0.290985
0.0230561
0.291507
0.0270308
0.29216
0.0309526
0.292952
0.034842
0.293894
0.0387151
0.295001
0.0425847
0.296291
0.0464593
0.297783
0.0503392
0.299499
0.0542122
0.301459
0.0580716
0.303685
0.0619057
0.306207
0.0656896
0.309053
0.0694029
0.312251
0.0730119
0.31583
0.0764842
0.319798
0.0797889
0.324159
0.082889
0.328917
0.0857537
0.334067
0.0883509
0.339593
0.0906434
0.345462
0.0926013
0.35163
0.0942101
0.358052
0.0954612
0.364676
0.096354
0.371447
0.096896
0.37831
0.0971022
0.385212
0.0969862
0.0959928
0.392028
0.297431
0.0141157
0.297816
0.0185495
0.29835
0.0224838
0.299034
0.0263171
0.299874
0.0300928
0.300873
0.0338299
0.302042
0.03754
0.303397
0.0412288
0.304957
0.0449026
0.306735
0.0485681
0.308741
0.0522138
0.311003
0.0558201
0.313542
0.0593775
0.316381
0.062861
0.319546
0.0662472
0.323052
0.0695156
0.326908
0.0726363
0.331124
0.0755806
0.3357
0.0783189
0.340632
0.0808274
0.34591
0.0830791
0.351515
0.0850452
0.357413
0.0867083
0.363567
0.0880598
0.369935
0.0890954
0.376474
0.0898176
0.383136
0.0902352
0.389876
0.0903625
0.396651
0.0902118
0.089294
0.403351
0.304712
0.0137388
0.305215
0.0179946
0.30589
0.0217662
0.306739
0.0254348
0.307768
0.0290401
0.308977
0.0326043
0.310369
0.0361372
0.311963
0.0396305
0.313777
0.043088
0.315824
0.0465234
0.318115
0.0499278
0.320668
0.0532733
0.323508
0.0565452
0.326646
0.0597303
0.330094
0.0628062
0.333865
0.0657515
0.337966
0.0685422
0.342398
0.0711539
0.347159
0.0735631
0.352239
0.0757518
0.357625
0.0776987
0.363295
0.0793815
0.369217
0.0807905
0.375359
0.0819214
0.381684
0.0827736
0.388152
0.0833514
0.394724
0.0836638
0.401363
0.0837244
0.408031
0.0835441
0.0826938
0.414632
0.312169
0.0132644
0.312792
0.0173159
0.313609
0.0209024
0.314623
0.0243845
0.315835
0.0277999
0.317248
0.0311702
0.318866
0.0345047
0.320698
0.0377898
0.322756
0.0410247
0.32506
0.0442184
0.327625
0.0473638
0.330458
0.0504422
0.333571
0.0534358
0.336976
0.0563299
0.34068
0.0591063
0.34469
0.061746
0.349007
0.0642287
0.35363
0.0665345
0.358551
0.0686449
0.363759
0.0705472
0.369237
0.072225
0.374963
0.0736608
0.380907
0.0748497
0.38704
0.0757912
0.393329
0.0764869
0.39974
0.0769422
0.406238
0.0771662
0.412791
0.0771711
0.419368
0.0769669
0.0761785
0.425884
0.319806
0.0126904
0.320551
0.0165116
0.321512
0.0198914
0.322688
0.0231676
0.324079
0.0263768
0.325689
0.0295349
0.327527
0.0326482
0.329594
0.0357094
0.331896
0.0387129
0.334449
0.0416595
0.337266
0.0445438
0.340354
0.0473526
0.343719
0.0500701
0.347368
0.0526815
0.351305
0.055171
0.35553
0.0575222
0.360041
0.0597183
0.364833
0.0617434
0.369895
0.0635829
0.375215
0.0652288
0.380774
0.0666687
0.38655
0.0678883
0.392516
0.0688863
0.398643
0.0696649
0.404904
0.0702271
0.411268
0.0705788
0.417704
0.0707289
0.424186
0.0706885
0.430685
0.0704664
0.0697364
0.437127
0.327627
0.012016
0.328493
0.0155815
0.329597
0.0187335
0.330935
0.0217854
0.332505
0.0247703
0.33431
0.0277004
0.336355
0.0305792
0.338645
0.0334019
0.341181
0.0361623
0.343974
0.0388568
0.34703
0.0414799
0.350356
0.0440211
0.353954
0.0464673
0.357827
0.0488051
0.361975
0.0510207
0.366394
0.0531001
0.371081
0.0550299
0.376024
0.0567973
0.381213
0.0583913
0.386633
0.0598075
0.392266
0.0610365
0.398088
0.0620667
0.404076
0.0628989
0.410203
0.0635374
0.416443
0.063986
0.42277
0.0642508
0.429157
0.0643401
0.435579
0.0642639
0.442012
0.0640304
0.0633568
0.448389
0.335634
0.0112409
0.336622
0.0145263
0.337867
0.0174304
0.339364
0.0202398
0.34111
0.0229837
0.343105
0.0256708
0.345354
0.028303
0.347857
0.0308762
0.350616
0.0333846
0.353635
0.035823
0.356917
0.0381853
0.360465
0.0404625
0.36428
0.0426439
0.36836
0.0447176
0.372702
0.0466722
0.3773
0.048496
0.382145
0.0501783
0.387227
0.0517093
0.392532
0.0530807
0.398044
0.0542907
0.403746
0.0553326
0.409615
0.0561964
0.415626