/*--------------------------------*- C++ -*----------------------------------*\
| =========                 |                                                 |
| \\      /  F ield         | OpenFOAM: The Open Source CFD Toolbox           |
|  \\    /   O peration     | Version:  dev                                   |
|   \\  /    A nd           | Web:      www.OpenFOAM.org                      |
|    \\/     M anipulation  |                                                 |
\*---------------------------------------------------------------------------*/
FoamFile
{
    version     2.0;
    format      ascii;
    class       surfaceScalarField;
    location    "2.29";
    object      meshPhi;
}
// * * * * * * * * * * * * * * * * * * * * * * * * * * * * * * * * * * * * * //

dimensions      [0 3 -1 0 0 0 0];

internalField   nonuniform List<scalar> 
865
(
2.03056e-05
-1.55222e-06
1.40702e-05
-1.13211e-06
9.21918e-06
-7.82797e-07
5.61572e-06
-5.07903e-07
3.08414e-06
-3.03319e-07
1.43833e-06
-1.6079e-07
5.00073e-07
-7.00638e-08
1.02367e-07
-2.12488e-08
-3.49477e-09
2.07789e-05
-3.15702e-06
1.44566e-05
-2.3081e-06
9.52433e-06
-1.60012e-06
5.84572e-06
-1.04144e-06
3.24652e-06
-6.24728e-07
1.54001e-06
-3.33786e-07
5.4877e-07
-1.47577e-07
1.17502e-07
-4.57399e-08
-7.66264e-09
2.17769e-05
-4.86901e-06
1.52857e-05
-3.5758e-06
1.01804e-05
-2.49121e-06
6.32986e-06
-1.62905e-06
3.57569e-06
-9.80704e-07
1.74233e-06
-5.26489e-07
6.47725e-07
-2.35678e-07
1.50147e-07
-7.5034e-08
-1.33511e-08
2.3348e-05
-6.73806e-06
1.66044e-05
-4.97755e-06
1.12345e-05
-3.49065e-06
7.11355e-06
-2.29907e-06
4.10177e-06
-1.39228e-06
2.0524e-06
-7.49287e-07
7.97168e-07
-3.36157e-07
2.03547e-07
-1.09121e-07
-2.11287e-08
2.55413e-05
-8.81235e-06
1.84564e-05
-6.55562e-06
1.27274e-05
-4.63177e-06
8.24448e-06
-3.07667e-06
4.87445e-06
-1.87961e-06
2.49999e-06
-1.01636e-06
1.00604e-06
-4.55186e-07
2.79853e-07
-1.49519e-07
-3.15827e-08
2.84268e-05
-1.11326e-05
2.09125e-05
-8.34508e-06
1.47277e-05
-5.94452e-06
9.77965e-06
-3.98811e-06
5.94579e-06
-2.46449e-06
3.1291e-06
-1.34528e-06
1.29452e-06
-6.04099e-07
3.79556e-07
-1.99995e-07
-4.51264e-08
3.20809e-05
-1.37336e-05
2.4047e-05
-1.03776e-05
1.73083e-05
-7.45334e-06
1.17873e-05
-5.05326e-06
7.37128e-06
-3.1678e-06
3.98333e-06
-1.75811e-06
1.68617e-06
-8.00977e-07
4.99143e-07
-2.67472e-07
-6.15356e-08
3.65872e-05
-1.6644e-05
2.79462e-05
-1.26858e-05
2.05367e-05
-9.18752e-06
1.43194e-05
-6.28964e-06
9.18825e-06
-3.9991e-06
5.09252e-06
-2.26733e-06
2.19696e-06
-1.06138e-06
6.26692e-07
-3.58209e-07
-7.95812e-08
4.20079e-05
-1.98729e-05
3.26813e-05
-1.52897e-05
2.44781e-05
-1.11754e-05
1.74077e-05
-7.72213e-06
1.13963e-05
-4.96685e-06
6.44567e-06
-2.87064e-06
2.80363e-06
-1.38033e-06
7.38721e-07
-4.66861e-07
-9.58567e-08
4.83457e-05
-2.34004e-05
3.82625e-05
-1.81828e-05
2.91542e-05
-1.34266e-05
2.10501e-05
-9.36738e-06
1.39539e-05
-6.07465e-06
7.96597e-06
-3.54725e-06
3.42267e-06
-1.72305e-06
8.0241e-07
-5.71015e-07
-1.04216e-07
5.55082e-05
-2.71685e-05
4.46006e-05
-2.13147e-05
3.44809e-05
-1.59029e-05
2.51613e-05
-1.12033e-05
1.67481e-05
-7.30248e-06
9.48993e-06
-4.24877e-06
3.91993e-06
-2.02444e-06
7.80584e-07
-6.3175e-07
-9.61599e-08
6.32908e-05
-3.10778e-05
5.14778e-05
-2.45922e-05
4.02209e-05
-1.85051e-05
2.95197e-05
-1.31352e-05
1.95529e-05
-8.56984e-06
1.07763e-05
-4.89262e-06
4.1386e-06
-2.20744e-06
6.37338e-07
-6.0585e-07
-6.23596e-08
7.13569e-05
-3.49701e-05
5.85318e-05
-2.78645e-05
4.59789e-05
-2.10699e-05
3.37282e-05
-1.49853e-05
2.19962e-05
-9.70047e-06
1.15464e-05
-5.34378e-06
3.94222e-06
-2.19772e-06
3.47979e-07
-4.66714e-07
3.38741e-09
7.92051e-05
-3.86048e-05
6.52505e-05
-3.09074e-05
5.12381e-05
-2.33794e-05
3.7248e-05
-1.65182e-05
2.36029e-05
-1.04521e-05
1.15362e-05
-5.42548e-06
3.25753e-06
-1.9241e-06
-9.70073e-08
-2.07864e-07
1.12417e-07
8.62181e-05
-4.17075e-05
7.10326e-05
-3.34629e-05
5.54074e-05
-2.51849e-05
3.95092e-05
-1.7483e-05
2.39638e-05
-1.0602e-05
1.06097e-05
-4.98946e-06
2.11203e-06
-1.3095e-06
-7.07556e-07
1.90242e-07
3.32384e-07
-2.34521e-06
5.325e-08
-1.65927e-05
3.22412e-07
-6.34159e-05
1.0741e-06
-0.000137309
1.75047e-06
-0.000195322
1.66466e-06
-0.0002151
7.76137e-07
-0.0002126
-2.70633e-07
-0.000208243
-8.99574e-07
-0.000210816
-1.22654e-06
-1.24563e-06
-2.59656e-06
9.98562e-08
-1.81284e-05
6.40221e-07
-6.64991e-05
1.97879e-06
-0.000139379
2.92031e-06
-0.000194394
2.5209e-06
-0.000212282
9.74651e-07
-0.00020974
-7.64768e-07
-0.000206144
-1.91487e-06
-0.000209506
-2.47039e-06
-2.45432e-06
-2.95001e-06
1.61291e-07
-1.99514e-05
9.74193e-07
-6.82375e-05
2.64081e-06
-0.00013563
3.53928e-06
-0.000183804
2.72143e-06
-0.000199368
6.89508e-07
-0.000198474
-1.51886e-06
-0.000197602
-2.99902e-06
-0.000203215
-3.61017e-06
-3.46379e-06
-3.35148e-06
2.37924e-07
-2.12942e-05
1.23646e-06
-6.67347e-05
2.88337e-06
-0.000124456
3.49287e-06
-0.000163574
2.321e-06
-0.00017723
1.91912e-08
-0.000179535
-2.32793e-06
-0.000182898
-3.8136e-06
-0.000191835
-4.29996e-06
-3.91709e-06
-3.78351e-06
3.17995e-07
-2.1912e-05
1.38488e-06
-6.23885e-05
2.74869e-06
-0.000108826
2.90689e-06
-0.000139019
1.46675e-06
-0.000151476
-8.13212e-07
-0.000157429
-2.8753e-06
-0.00016525
-4.04924e-06
-0.000177689
-4.27686e-06
-3.57022e-06
-4.17757e-06
3.89573e-07
-2.15494e-05
1.40249e-06
-5.54651e-05
2.29294e-06
-9.07488e-05
1.94624e-06
-0.000113628
4.09218e-07
-0.000125858
-1.53147e-06
-0.000135336
-3.06516e-06
-0.000147086
-3.79232e-06
-0.000162614
-3.66896e-06
-2.55251e-06
-4.44068e-06
4.34888e-07
-2.00446e-05
1.26072e-06
-4.66392e-05
1.59318e-06
-7.23226e-05
8.5399e-07
-9.01234e-05
-5.44577e-07
-0.000102787
-1.946e-06
-0.000115147
-2.89182e-06
-0.00012992
-3.14708e-06
-0.000147842
-2.5852e-06
-9.09176e-07
-4.46801e-06
4.37524e-07
-1.74617e-05
9.82323e-07
-3.70436e-05
8.32713e-07
-5.55047e-05
-6.72579e-08
-7.02285e-05
-1.14734e-06
-8.34759e-05
-1.96537e-06
-9.78232e-05
-2.32899e-06
-0.000114644
-2.06451e-06
-0.000134259
-9.27875e-07
1.47305e-06
-4.19479e-06
3.9058e-07
-1.41904e-05
6.37687e-07
-2.79899e-05
2.12445e-07
-4.16318e-05
-6.00935e-07
-5.45897e-05
-1.2954e-06
-6.82219e-05
-1.60066e-06
-8.37425e-05
-1.40916e-06
-0.000101816
-5.29292e-07
-0.00012253
1.34263e-06
4.58951e-06
-3.63616e-06
3.01655e-07
-1.08042e-05
3.13588e-07
-2.04859e-05
-1.4196e-07
-3.11757e-05
-6.97773e-07
-4.30176e-05
-1.02196e-06
-5.67261e-05
-8.96405e-07
-7.2833e-05
-1.48264e-07
-9.16002e-05
1.4511e-06
-0.000112952
4.18928e-06
8.38264e-06
-2.88434e-06
1.89877e-07
-7.82089e-06
7.01181e-08
-1.49458e-05
-2.27564e-07
-2.389e-05
-4.54239e-07
-3.49202e-05
-4.23865e-07
-4.8485e-05
1.2592e-07
-6.48065e-05
1.46936e-06
-8.3903e-05
3.86536e-06
-0.000105588
7.56842e-06
1.27964e-05
-2.06869e-06
7.63869e-08
-5.5262e-06
-7.76665e-08
-1.12469e-05
-1.3303e-07
-1.9192e-05
-1.75856e-08
-2.96544e-05
4.1586e-07
-4.30004e-05
1.47292e-06
-5.93426e-05
3.48773e-06
-7.85786e-05
6.74233e-06
-0.000100437
1.14711e-05
1.77839e-05
-1.32465e-06
-1.67547e-08
-3.98482e-06
-1.37207e-07
-9.03429e-06
5.5193e-08
-1.6514e-05
5.3391e-07
-2.66917e-05
1.46378e-06
-3.9875e-05
3.14781e-06
-5.61806e-05
5.93341e-06
-7.54843e-05
1.01133e-05
-9.7455e-05
1.59083e-05
2.3315e-05
-8.07966e-07
-5.76831e-08
-3.20366e-06
-9.6964e-08
-8.07546e-06
3.61339e-07
-1.54769e-05
1.23363e-06
-2.56341e-05
2.74631e-06
-3.88057e-05
5.17307e-06
-5.51246e-05
8.832e-06
-7.4496e-05
1.40112e-05
-9.65728e-05
2.09224e-05
2.94127e-05
-8.63902e-07
1.13092e-07
-3.48247e-06
1.35038e-07
-8.46609e-06
9.19677e-07
-1.59863e-05
2.27694e-06
-2.62921e-05
4.45583e-06
-3.96003e-05
7.70748e-06
-5.60246e-05
1.23114e-05
-7.55083e-05
1.85438e-05
-9.76124e-05
2.65381e-05
9.53241e-05
-4.39981e-05
7.82196e-05
-3.5264e-05
6.02118e-05
-2.62272e-05
4.17058e-05
-1.76664e-05
2.38933e-05
-1.00298e-05
9.26257e-06
-3.99156e-06
6.06633e-07
-2.70218e-07
-1.86114e-06
1.04186e-06
8.64408e-07
-7.07714e-07
0.000101485
-4.51833e-05
8.25432e-05
-3.60372e-05
6.22721e-05
-2.62609e-05
4.15307e-05
-1.69267e-05
2.21691e-05
-8.7143e-06
6.98191e-06
-2.4297e-06
-1.66899e-06
1.32294e-06
-4.23688e-06
2.6924e-06
2.68343e-06
-3.83698e-06
0.00010536
-4.50465e-05
8.4447e-05
-3.55763e-05
6.20572e-05
-2.51139e-05
3.9513e-05
-1.51999e-05
1.92055e-05
-6.63783e-06
3.76722e-06
-2.31227e-07
-5.13302e-06
3.62398e-06
-8.34156e-06
5.22091e-06
5.48996e-06
-8.58891e-06
0.000106026
8.36135e-05
-3.35112e-05
5.94455e-05
-2.27339e-05
3.56314e-05
-1.24356e-05
1.48909e-05
-3.71355e-06
-7.14617e-07
2.74692e-06
-1.02119e-05
6.79e-06
-1.46713e-05
8.77911e-06
9.52008e-06
-1.62793e-05
7.87837e-05
5.40272e-05
2.97626e-05
-8.39948e-06
8.90897e-06
1.96527e-07
-6.92193e-06
6.6979e-06
-1.72973e-05
1.0989e-05
-2.33421e-05
1.34473e-05
1.47343e-05
-2.65896e-05
2.10774e-05
6.23768e-07
-1.54367e-05
1.19214e-05
-2.68223e-05
1.64333e-05
-3.4494e-05
1.93556e-05
2.11574e-05
-3.94035e-05
-2.70046e-05
-3.92921e-05
-4.84209e-05
2.66636e-05
2.8907e-05
-5.48258e-05
-6.53781e-05
-7.31909e-05
-6.61142e-07
9.868e-08
-6.95481e-07
6.26843e-09
-3.55046e-10
-9.63216e-07
-3.25051e-06
9.98715e-07
-3.14477e-06
8.41687e-07
7.34922e-07
-3.45686e-06
-8.36908e-06
2.49099e-06
-8.44383e-06
2.46589e-06
2.30087e-06
-8.89514e-06
-1.68658e-05
4.66586e-06
-1.72229e-05
4.80986e-06
4.66539e-06
-1.77926e-05
-2.82426e-05
7.47438e-06
-2.91472e-05
7.80066e-06
7.74245e-06
-3.0021e-05
-4.21898e-05
1.08907e-05
-4.37945e-05
1.13947e-05
1.14639e-05
-4.52054e-05
-5.86493e-05
1.49495e-05
-6.09737e-05
1.56073e-05
1.58141e-05
-6.30807e-05
-7.79854e-05
-8.09077e-05
2.05212e-05
2.0837e-05
-8.37094e-05
-0.000103472
-0.000107077
-2.10887e-06
3.0968e-07
-5.28503e-06
9.29302e-07
-1.07534e-05
2.13616e-06
-1.88404e-05
4.07696e-06
-2.98169e-05
6.96999e-06
-4.38677e-05
1.10608e-05
-6.10849e-05
1.66065e-05
-8.14454e-05
2.38667e-05
3.28898e-05
-5.09413e-06
2.01996e-06
-8.87311e-06
2.87571e-06
-1.49603e-05
4.52854e-06
-2.36577e-05
7.03878e-06
-3.52259e-05
1.06182e-05
-4.98412e-05
1.54955e-05
-6.75803e-05
2.19008e-05
-8.8424e-05
3.00601e-05
3.99609e-05
-1.08418e-05
5.33638e-06
-1.51418e-05
6.33235e-06
-2.181e-05
8.35773e-06
-3.10938e-05
1.13868e-05
-4.32084e-05
1.55925e-05
-5.8303e-05
2.11653e-05
-7.64298e-05
2.82955e-05
-9.75356e-05
3.71605e-05
4.76314e-05
-1.98978e-05
1.0288e-05
-2.45258e-05
1.14411e-05
-3.16409e-05
1.37982e-05
-4.14109e-05
1.72769e-05
-5.39691e-05
2.20127e-05
-6.94053e-05
2.81559e-05
-8.7733e-05
3.5849e-05
-0.000108851
4.52154e-05
5.60208e-05
-3.23499e-05
1.67569e-05
-3.72404e-05
1.81628e-05
-4.46752e-05
2.08564e-05
-5.47769e-05
2.47348e-05
-6.7616e-05
2.98986e-05
-8.32189e-05
3.64713e-05
-0.000101543
4.45605e-05
-0.000122441
5.42411e-05
6.52061e-05
-4.79742e-05
2.45987e-05
-5.32064e-05
2.63721e-05
-6.09115e-05
2.94267e-05
-7.12055e-05
3.36649e-05
-8.41472e-05
3.91726e-05
-9.97239e-05
4.60436e-05
-0.000117844
5.43666e-05
-0.000138316
6.41895e-05
7.51447e-05
-6.65078e-05
3.3729e-05
-7.22169e-05
3.59423e-05
-8.02055e-05
3.93752e-05
-9.06074e-05
4.39351e-05
-0.000103492
4.97082e-05
-0.000118849
5.67681e-05
-0.000136568
6.5182e-05
-0.000156411
7.49836e-05
8.57682e-05
-8.78728e-05
4.41527e-05
-9.41261e-05
4.6793e-05
-0.000102426
5.05881e-05
-0.000112884
5.54311e-05
-0.00012558
6.1387e-05
-0.000140534
6.85312e-05
-0.000157634
7.69062e-05
-0.000176632
8.65274e-05
9.69894e-05
-0.000112122
-0.000118971
5.87885e-05
-0.000127584
6.29806e-05
-0.00013802
6.80702e-05
-0.000150382
7.41153e-05
-0.000164744
8.12196e-05
-0.000180988
8.94289e-05
-0.000198913
9.87332e-05
0.00010873
-0.000146389
-0.000155517
-0.000166059
-0.000178
8.77962e-05
-0.000191535
9.47946e-05
-0.000206665
0.000102681
-0.000223275
0.000111533
0.00012093
-0.000208046
-0.000220917
-0.00023483
0.000116523
-0.00024983
0.00012488
0.000133505
-0.000265009
-0.000278557
0.000146223
)
;

boundaryField
{
    inlet
    {
        type            calculated;
        value           nonuniform 0();
    }
    outlet
    {
        type            calculated;
        value           nonuniform 0();
    }
    flap
    {
        type            calculated;
        value           uniform 0;
    }
    upperWall
    {
        type            calculated;
        value           nonuniform 0();
    }
    lowerWall
    {
        type            calculated;
        value           uniform 0;
    }
    frontAndBack
    {
        type            empty;
        value           nonuniform 0();
    }
    procBoundary4to1
    {
        type            processor;
        value           nonuniform List<scalar> 
30
(
-4.27542e-05
-0.00010091
-2.83962e-05
-1.83623e-05
-4.42555e-05
-2.25034e-06
5.60224e-06
1.10481e-05
1.88349e-05
2.33718e-05
5.5024e-05
3.52911e-05
3.79762e-05
1.97119e-05
9.99303e-05
2.57447e-05
2.62593e-05
5.55715e-05
0.000138716
7.10955e-05
7.59344e-05
8.15254e-05
0.000196177
0.000101422
0.000108725
0.00025184
0.000129788
0.000138136
0.000308326
0.000157848
)
;
    }
    procBoundary4to2
    {
        type            processor;
        value           nonuniform List<scalar> 
11
(
-0.000120685
-0.000131621
-0.000144616
-0.000159729
-0.000176876
-0.000195965
-0.000216922
-0.000239738
-0.000264446
-0.000291095
-0.000319094
)
;
    }
    procBoundary4to3
    {
        type            processor;
        value           nonuniform List<scalar> 
19
(
-2.79177e-05
-2.84827e-05
-2.9641e-05
-3.14404e-05
-3.3932e-05
-3.71795e-05
-4.12542e-05
-4.62265e-05
-5.21448e-05
-5.89995e-05
-6.66968e-05
-7.50323e-05
-8.36587e-05
-9.20647e-05
-9.96317e-05
-0.000109779
-0.000116703
-0.000121072
-0.000121553
)
;
    }
    procBoundary4to5
    {
        type            processor;
        value           nonuniform List<scalar> 
18
(
-0.000219429
-0.000218946
-0.000214372
-0.000205366
-0.00019381
-0.000181022
-0.000168079
-0.000155895
-0.000145117
-0.000136108
-0.000129041
-0.000124013
-0.000121041
-0.000120053
-0.000120818
3.59945e-05
-0.000104297
-0.000111577
)
;
    }
}


// ************************************************************************* //
