/*--------------------------------*- C++ -*----------------------------------*\
| =========                 |                                                 |
| \\      /  F ield         | OpenFOAM: The Open Source CFD Toolbox           |
|  \\    /   O peration     | Version:  dev                                   |
|   \\  /    A nd           | Web:      www.OpenFOAM.org                      |
|    \\/     M anipulation  |                                                 |
\*---------------------------------------------------------------------------*/
FoamFile
{
    version     2.0;
    format      ascii;
    class       volVectorField;
    location    "2.55";
    object      U;
}
// * * * * * * * * * * * * * * * * * * * * * * * * * * * * * * * * * * * * * //

dimensions      [0 1 -1 0 0 0 0];

internalField   nonuniform List<vector> 
465
(
(0.672162 0 0.000363643)
(0.676172 0 -0.000103468)
(0.680022 -7.10968e-22 0.000244014)
(0.681203 7.05213e-22 0.00168538)
(0.677892 7.72349e-22 0.00308145)
(0.671617 -7.61841e-22 0.00324341)
(0.665667 0 0.00291698)
(0.660108 -2.95048e-21 0.00402669)
(0.650791 1.39543e-21 0.00669884)
(0.634826 1.28369e-21 0.00873985)
(0.61511 0 0.00781597)
(0.60045 1.09742e-21 0.00313312)
(0.601044 -1.1168e-22 -0.00418029)
(0.621566 -6.5215e-22 -0.0120314)
(0.66067 -4.96362e-22 -0.0186058)
(0.714703 -3.52284e-22 -0.0243248)
(0.782771 0 -0.0315019)
(0.868339 1.08874e-22 -0.0410182)
(0.975317 -6.53069e-26 -0.0515441)
(1.13382 6.39331e-26 -0.0595475)
(0.735644 0 -0.00495741)
(0.740744 -4.92075e-21 -0.00550801)
(0.744867 -2.85711e-21 -0.00439302)
(0.747007 5.86012e-21 -0.000463625)
(0.74513 -2.99227e-21 0.00325681)
(0.739645 0 0.00323368)
(0.73421 -1.51112e-21 0.00117674)
(0.731419 4.42868e-21 0.0025589)
(0.729046 -2.0663e-21 0.00893358)
(0.719617 1.37036e-21 0.0154412)
(0.702133 6.03295e-22 0.0159923)
(0.683033 9.94835e-22 0.00816097)
(0.66517 0 -0.00571777)
(0.652041 6.5125e-22 -0.0217134)
(0.649714 3.89671e-22 -0.035828)
(0.659774 5.28804e-22 -0.0461857)
(0.676333 -7.08006e-23 -0.0561976)
(0.702928 -1.17141e-22 -0.0708739)
(0.751103 8.06164e-24 -0.0930284)
(0.84559 0 -0.118911)
(0.547288 -4.25554e-21 -0.0073409)
(0.532345 9.95175e-21 -0.00806103)
(0.514096 5.67034e-21 -0.00696616)
(0.493782 3.07556e-21 -0.000487368)
(0.466784 -9.35747e-21 0.00655558)
(0.432774 -3.1334e-21 0.00623531)
(0.394824 3.09275e-21 0.000104956)
(0.358685 0 -0.00209117)
(0.320942 0 0.00572096)
(0.273778 -1.35366e-21 0.0190006)
(0.213595 -1.22941e-21 0.0286856)
(0.138681 -2.44063e-21 0.0296103)
(0.0596455 4.52377e-22 0.0214563)
(-0.0102957 -2.91071e-22 0.00658338)
(-0.0558846 7.22173e-23 -0.0110132)
(-0.0587625 1.75277e-21 -0.0341576)
(-0.0360468 -1.02057e-21 -0.0700665)
(0.0241756 5.06563e-22 -0.116463)
(0.10976 1.77482e-22 -0.165916)
(0.199857 0 -0.21808)
(0.26628 -1.74683e-20 0.000746878)
(0.213518 9.90733e-21 0.00175054)
(0.149233 -5.10445e-21 0.0027727)
(0.081661 -1.2284e-20 0.0120318)
(0.00206664 1.25721e-20 0.0285783)
(-0.102587 0 0.0413835)
(-0.245809 3.12344e-21 0.0456826)
(-0.392467 -3.07772e-21 0.0495175)
(-0.491907 -5.89683e-21 0.0614729)
(-0.550914 -1.27072e-21 0.0751926)
(-0.59546 6.07717e-21 0.0798874)
(-0.628857 -4.14099e-21 0.0686896)
(-0.645525 0 0.041394)
(-0.639661 3.00087e-22 0.00303068)
(-0.607392 -2.96448e-22 -0.0430297)
(-0.553075 -1.45793e-21 -0.0910715)
(-0.492887 -1.18595e-22 -0.137219)
(-0.434497 -5.04092e-22 -0.181961)
(-0.385248 -7.46648e-22 -0.227673)
(-0.358783 0 -0.272733)
(-0.164273 4.01085e-21 0.040548)
(-0.295439 2.12689e-20 0.0532004)
(-0.451653 -5.05145e-21 0.0639502)
(-0.597869 -6.13774e-21 0.0816806)
(-0.706515 1.34533e-20 0.102523)
(-0.801485 -1.9979e-20 0.113847)
(-0.897691 6.45591e-21 0.109694)
(-0.984127 -1.2732e-20 0.0975173)
(-1.04501 -6.2388e-21 0.0880134)
(-1.07747 1.11428e-20 0.0821435)
(-1.08502 -1.47428e-20 0.0715357)
(-1.07222 8.42462e-21 0.0481672)
(-1.04491 7.98731e-22 0.0109625)
(-1.01179 -3.75842e-21 -0.0351709)
(-0.969584 4.6912e-21 -0.0829945)
(-0.928841 0 -0.12915)
(-0.892335 -1.4128e-21 -0.172563)
(-0.863486 -3.25631e-23 -0.214477)
(-0.846966 1.46098e-21 -0.256133)
(-0.843438 -7.12521e-24 -0.291723)
(-0.725537 -9.45844e-21 0.118208)
(-0.849423 1.16747e-20 0.128853)
(-0.975047 8.02079e-23 0.13377)
(-1.09235 8.63042e-22 0.139116)
(-1.18945 6.64744e-22 0.147032)
(-1.2677 1.33133e-20 0.149225)
(-1.33209 -7.11612e-21 0.138226)
(-1.38245 -7.13477e-21 0.117524)
(-1.41469 1.19918e-20 0.0955251)
(-1.42607 -1.10708e-20 0.0747117)
(-1.41754 9.89858e-21 0.0507203)
(-1.3944 -1.34127e-20 0.0188481)
(-1.36447 -8.55287e-22 -0.0215298)
(-1.33424 3.79878e-21 -0.0674328)
(-1.30394 -4.66798e-21 -0.113686)
(-1.27866 -2.00639e-22 -0.156978)
(-1.25953 5.55461e-21 -0.196887)
(-1.24922 1.96196e-21 -0.234937)
(-1.24913 -8.51299e-22 -0.272289)
(-1.25323 -4.12019e-22 -0.301927)
(-1.12665 -1.13536e-20 0.183861)
(-1.24477 -1.30617e-20 0.189298)
(-1.35387 2.52853e-20 0.19024)
(-1.45075 -1.35317e-20 0.188467)
(-1.53053 -1.39002e-20 0.184864)
(-1.59195 0 0.174997)
(-1.63776 2.05552e-20 0.154751)
(-1.67026 2.02861e-20 0.126407)
(-1.68916 3.10008e-21 0.0954808)
(-1.69346 9.17979e-21 0.0643117)
(-1.6844 2.52341e-21 0.0311942)
(-1.66631 1.63571e-20 -0.006225)
(-1.64485 0 -0.0483242)
(-1.62303 0 -0.0929576)
(-1.60451 -6.37283e-21 -0.13662)
(-1.59109 6.00768e-22 -0.176687)
(-1.58436 -2.88722e-21 -0.213039)
(-1.58653 -1.95507e-21 -0.247319)
(-1.59636 -1.51124e-21 -0.280314)
(-1.60426 4.12496e-22 -0.305036)
(-1.43131 0 0.2499)
(-1.53793 0 0.246965)
(-1.63279 -1.69537e-22 0.240486)
(-1.7144 -1.43754e-20 0.23034)
(-1.78051 1.57389e-20 0.216094)
(-1.83081 0 0.195225)
(-1.8677 0 0.166137)
(-1.89355 -1.38833e-20 0.130875)
(-1.90902 0 0.0931616)
(-1.91413 -1.51991e-20 0.0549261)
(-1.91015 2.98043e-21 0.0157784)
(-1.90015 -9.72881e-21 -0.0253047)
(-1.88802 -8.16854e-21 -0.0683613)
(-1.87636 -1.57675e-22 -0.111654)
(-1.86809 4.22327e-21 -0.152689)
(-1.86436 6.74812e-22 -0.189708)
(-1.86716 0 -0.222763)
(-1.87844 -2.85522e-21 -0.2535)
(-1.89495 1.48971e-21 -0.282435)
(-1.90506 -1.28906e-21 -0.303229)
(-1.66319 1.36994e-20 0.311968)
(-1.75751 -1.33472e-20 0.300143)
(-1.83982 2.94098e-20 0.285224)
(-1.90984 1.66934e-20 0.266463)
(-1.96683 -1.56734e-20 0.242924)
(-2.01132 -8.07891e-21 0.21314)
(-2.04519 -1.64126e-20 0.176765)
(-2.07024 7.74989e-21 0.135676)
(-2.08731 -1.5085e-20 0.0925915)
(-2.09683 0 0.0491759)
(-2.09992 0 0.00574658)
(-2.09883 1.27438e-20 -0.0378659)
(-2.09614 1.67988e-20 -0.0813571)
(-2.09436 9.68755e-21 -0.123455)
(-2.09504 -7.63813e-22 -0.162401)
(-2.09936 1.05633e-21 -0.196912)
(-2.10964 -2.9761e-22 -0.227111)
(-2.12774 2.84803e-21 -0.254546)
(-2.14892 0 -0.279705)
(-2.16028 1.30849e-21 -0.297243)
(-1.83575 0 0.368412)
(-1.91758 -3.15136e-20 0.34824)
(-1.98891 1.61886e-20 0.325625)
(-2.05028 -3.42526e-20 0.299325)
(-2.10173 1.73513e-20 0.268232)
(-2.14386 8.71348e-21 0.231477)
(-2.17801 7.87455e-21 0.189322)
(-2.20547 0 0.14348)
(-2.22696 3.50904e-20 0.0961183)
(-2.24305 1.14112e-20 0.0487561)
(-2.2546 0 0.00210568)
(-2.26308 -1.14107e-20 -0.0434515)
(-2.2701 -1.00041e-20 -0.0873626)
(-2.27721 -9.59259e-21 -0.128698)
(-2.28578 8.48903e-21 -0.166267)
(-2.29671 6.46332e-21 -0.198979)
(-2.31275 5.32942e-21 -0.226837)
(-2.33584 9.18804e-23 -0.251153)
(-2.36019 4.83779e-21 -0.27262)
(-2.37212 0 -0.287194)
(-1.95446 0 0.418788)
(-2.02387 0 0.391665)
(-2.08555 0 0.363004)
(-2.14027 0 0.330929)
(-2.1882 -2.00597e-20 0.294171)
(-2.22979 9.44852e-21 0.252237)
(-2.26596 -9.32086e-21 0.205732)
(-2.29766 -4.36639e-21 0.156259)
(-2.32547 -1.6006e-20 0.105672)
(-2.34982 5.37325e-21 0.055386)
(-2.37127 3.44148e-21 0.00626272)
(-2.39041 -3.40422e-21 -0.0410562)
(-2.40774 0 -0.0858523)
(-2.42348 0 -0.127256)
(-2.43916 -7.39833e-21 -0.164344)
(-2.45554 -6.82993e-21 -0.196174)
(-2.47578 -1.58903e-20 -0.222379)
(-2.50217 -8.46455e-21 -0.243811)
(-2.52843 -4.9227e-21 -0.261461)
(-2.54036 -1.86865e-21 -0.273068)
(-2.02097 1.93899e-20 0.46262)
(-2.07742 1.86996e-21 0.430803)
(-2.12955 -7.32472e-22 0.39832)
(-2.17804 1.19378e-20 0.362563)
(-2.2229 3.15772e-20 0.322123)
(-2.26432 0 0.276798)
(-2.30293 0 0.227438)
(-2.33953 2.02098e-20 0.175588)
(-2.3747 0 0.122888)
(-2.40868 -1.63717e-20 0.070582)
(-2.4415 0 0.0194833)
(-2.47279 0 -0.0298195)
(-2.50181 0 -0.0765018)
(-2.5275 1.06986e-20 -0.119398)
(-2.55003 6.18442e-22 -0.157374)
(-2.57109 -1.58236e-20 -0.189545)
(-2.59422 -4.54349e-22 -0.215031)
(-2.62242 8.15203e-21 -0.2338)
(-2.64955 0 -0.246904)
(-2.66107 3.84358e-21 -0.254648)
(-2.03268 0 0.498648)
(-2.07409 -2.08813e-20 0.46521)
(-2.11524 2.1526e-20 0.43168)
(-2.15602 -2.18604e-20 0.394625)
(-2.19599 -3.44165e-20 0.352638)
(-2.23514 2.35207e-20 0.305862)
(-2.27408 -3.39569e-20 0.255466)
(-2.31383 -2.01603e-20 0.203036)
(-2.35528 1.58947e-20 0.14998)
(-2.39878 -1.00741e-20 0.0971815)
(-2.44364 -2.21573e-20 0.0451053)
(-2.4881 0 -0.00592043)
(-2.53032 -1.59714e-21 -0.0552701)
(-2.56799 2.61221e-21 -0.101502)
(-2.59911 -5.63575e-22 -0.14271)
(-2.62473 1.59451e-20 -0.1769)
(-2.64991 1.20381e-20 -0.20262)
(-2.67875 6.0163e-23 -0.218649)
(-2.70613 5.98568e-21 -0.225633)
(-2.71747 -1.95885e-21 -0.227386)
(-1.98284 0 0.52422)
(-2.00684 0 0.493277)
(-2.03467 -1.26364e-20 0.461793)
(-2.06435 1.24261e-20 0.425688)
(-2.09441 3.64434e-20 0.384112)
(-2.12478 -3.58795e-20 0.33791)
(-2.15654 2.28738e-20 0.288683)
(-2.19155 0 0.238108)
(-2.23165 -2.06859e-20 0.187258)
(-2.27799 1.92755e-20 0.136242)
(-2.32987 1.55031e-20 0.0845419)
(-2.38405 1.95506e-20 0.0319643)
(-2.43671 0 -0.0207296)
(-2.48452 -1.23071e-20 -0.0717152)
(-2.52424 -2.23711e-20 -0.1181)
(-2.55504 -1.79502e-20 -0.156463)
(-2.57987 -9.05117e-23 -0.183213)
(-2.60564 1.2075e-22 -0.195906)
(-2.62985 -6.09652e-21 -0.19494)
(-2.63933 0 -0.188333)
(-1.85103 0 0.539172)
(-1.86104 -1.46945e-20 0.515545)
(-1.87743 -1.35297e-20 0.487837)
(-1.89446 0 0.452897)
(-1.9092 2.85264e-20 0.41183)
(-1.92151 0 0.366819)
(-1.9333 0 0.320286)
(-1.94793 6.04169e-21 0.274198)
(-1.96942 2.10256e-20 0.229276)
(-2.00118 -2.79496e-21 0.184423)
(-2.04443 2.30314e-20 0.137324)
(-2.09706 -3.84232e-20 0.0862671)
(-2.15419 0 0.0316712)
(-2.20932 0 -0.0237884)
(-2.25684 2.25458e-20 -0.0760928)
(-2.29389 1.76797e-20 -0.120341)
(-2.32208 1.26678e-22 -0.151033)
(-2.34449 7.70025e-24 -0.162946)
(-2.36309 5.66029e-21 -0.155645)
(-2.37178 0 -0.141514)
(-1.49756 8.94747e-22 0.577095)
(-1.52597 1.26111e-20 0.560095)
(-1.5558 1.32644e-20 0.544808)
(-1.584 3.0353e-20 0.516523)
(-1.60261 -1.45291e-20 0.477335)
(-1.60944 1.10563e-21 0.432015)
(-1.60535 -2.10168e-20 0.384571)
(-1.59283 6.84093e-21 0.338612)
(-1.57627 -2.66812e-20 0.297118)
(-1.56173 -2.33098e-20 0.261036)
(-1.55552 0 0.228036)
(-1.56218 -1.86883e-20 0.193245)
(-1.58333 1.7929e-20 0.151899)
(-1.61827 -1.09691e-21 0.101716)
(-1.66428 0 0.0440581)
(-1.71477 -4.19781e-23 -0.0156661)
(-1.76235 4.16248e-23 -0.0691229)
(-1.80151 -4.56813e-23 -0.107147)
(-1.83093 7.39152e-23 -0.121731)
(-1.85288 -5.50214e-21 -0.110202)
(-1.86482 1.43029e-21 -0.0869252)
(-0.0713982 -2.89977e-20 0.701436)
(-0.431178 1.37209e-20 0.613641)
(-0.641976 -1.64526e-20 0.568429)
(-0.781712 -1.41021e-20 0.524541)
(-0.875027 -5.51252e-20 0.475758)
(-0.936321 7.65588e-21 0.423763)
(-0.972505 3.0751e-20 0.372207)
(-0.987006 -7.01696e-21 0.325829)
(-0.983565 3.30867e-20 0.288839)
(-0.96786 0 0.262302)
(-0.946569 1.41303e-21 0.242629)
(-0.925214 -2.04064e-21 0.223369)
(-0.907079 6.36415e-22 0.199089)
(-0.894566 3.50444e-20 0.167451)
(-0.890952 3.00212e-20 0.128466)
(-0.900749 2.10363e-22 0.0830252)
(-0.927323 2.57877e-22 0.0338426)
(-0.96809 -2.55854e-22 -0.0111826)
(-1.01222 0 -0.0359419)
(-1.0484 0 -0.0240359)
(-1.07568 -1.40139e-21 0.014737)
(2.80356 5.19587e-23 1.12252)
(2.32438 0 0.963115)
(1.91402 3.05824e-20 0.827046)
(1.56207 -7.78254e-21 0.707272)
(1.25705 -5.29763e-20 0.598864)
(0.988463 0 0.500184)
(0.750577 2.83685e-20 0.41287)
(0.546749 -2.73694e-20 0.339943)
(0.38718 7.8316e-22 0.282251)
(0.27813 -1.65641e-22 0.23654)
(0.215476 1.64048e-22 0.198093)
(0.188566 -3.44947e-20 0.16438)
(0.18548 -2.95349e-20 0.135563)
(0.195575 2.47801e-20 0.11308)
(0.208 -1.93677e-20 0.0974116)
(0.216026 4.95781e-22 0.0878047)
(0.218935 8.7544e-23 0.0852003)
(0.214743 -8.70423e-23 0.098771)
(0.152781 0 0.170604)
(5.87312 2.67831e-20 1.47603)
(5.43678 2.97423e-23 1.3037)
(5.03952 -2.37386e-21 1.15019)
(4.67795 0 1.01395)
(4.34903 -2.64838e-20 0.893604)
(4.05072 2.48607e-20 0.78702)
(3.78159 1.40827e-21 0.691292)
(3.53927 -2.09795e-20 0.603695)
(3.31961 3.61116e-20 0.522775)
(3.11758 3.25371e-20 0.448688)
(2.92937 0 0.382862)
(2.75322 -2.28524e-20 0.327408)
(2.59156 3.36996e-20 0.284634)
(2.44819 -4.35375e-22 0.256737)
(2.32693 -1.30421e-22 0.246612)
(2.23723 1.29823e-22 0.258175)
(2.13925 -3.77312e-22 0.312137)
(8.97424 1.99496e-20 1.85972)
(8.60913 2.56553e-20 1.67821)
(8.2672 -1.48414e-21 1.51497)
(7.94824 1.47332e-21 1.36911)
(7.65175 2.26959e-20 1.23926)
(7.37672 -2.66812e-21 1.12374)
(7.12133 2.17898e-20 1.02107)
(6.88295 -8.15945e-21 0.930444)
(6.65875 -2.85344e-20 0.851744)
(6.44642 0 0.785166)
(6.24459 1.86487e-20 0.73079)
(6.05287 -1.53275e-20 0.68848)
(5.87184 -7.33018e-22 0.658213)
(5.70353 -3.95266e-21 0.640617)
(5.55982 -1.27657e-21 0.638095)
(5.3961 3.56072e-22 0.65552)
(11.111 0 1.93206)
(10.848 1.3557e-20 1.77343)
(10.5974 -1.88611e-20 1.6311)
(10.3594 3.85159e-21 1.50421)
(10.1337 -1.25917e-20 1.39195)
(9.91925 -1.06249e-20 1.29379)
(9.71509 0 1.2096)
(9.52051 0 1.13941)
(9.33543 -1.73894e-20 1.08325)
(9.16048 2.55284e-22 1.04102)
(8.99737 -4.25913e-21 1.01276)
(8.84844 3.39847e-21 0.99865)
(8.71845 5.86639e-22 0.998832)
(8.57538 2.96149e-23 1.01053)
(12.7584 -2.37408e-21 1.93742)
(12.5747 0 1.80686)
(12.3964 1.16755e-20 1.69132)
(12.2237 -9.56666e-21 1.59068)
(12.0571 0 1.50495)
(11.897 0 1.43418)
(11.7441 -9.56716e-22 1.37831)
(11.5995 4.7497e-21 1.3371)
(11.4644 4.68338e-21 1.31011)
(11.3404 -2.21944e-22 1.29689)
(11.2328 5.92512e-22 1.29647)
(11.1175 0 1.30387)
(14.0966 -1.02413e-21 2.02707)
(13.9686 -5.3679e-22 1.91276)
(13.8419 -1.03611e-20 1.81317)
(13.7173 -5.94871e-22 1.72841)
(13.596 -4.28255e-22 1.65855)
(13.479 1.13896e-21 1.60349)
(13.3678 -3.63428e-21 1.56299)
(13.264 1.84145e-21 1.53659)
(13.1696 2.26377e-21 1.52341)
(13.0886 0 1.52167)
(13.0027 4.2159e-22 1.5267)
(14.9047 0 1.96766)
(14.8207 -8.5721e-23 1.88561)
(14.7373 -8.85614e-21 1.81783)
(14.6561 -1.18907e-21 1.76429)
(14.5785 -5.83416e-21 1.72468)
(14.5062 -2.24557e-21 1.69842)
(14.441 -1.83266e-21 1.68445)
(14.3857 0 1.68111)
(14.3278 -3.28177e-23 1.6849)
(15.4996 -2.42053e-20 1.98543)
(15.4505 1.20824e-20 1.92053)
(15.4017 0 1.86887)
(15.3547 5.50399e-21 1.83022)
(15.311 1.02025e-20 1.80403)
(15.2722 8.4436e-22 1.78935)
(15.24 -4.58887e-21 1.78489)
(15.2076 -3.59746e-22 1.78825)
(15.8324 -4.15915e-21 1.9274)
(15.8116 4.13523e-21 1.88999)
(15.7925 -9.66665e-21 1.86412)
(15.7763 -1.0421e-20 1.84909)
(15.7643 4.44228e-21 1.84397)
(15.7547 0 1.84723)
(16.0492 -2.34229e-20 1.91409)
(16.0505 -1.74637e-21 1.88888)
(16.0533 1.06497e-20 1.87385)
(16.0586 9.28964e-21 1.86842)
(16.069 3.13618e-22 1.87172)
(16.1838 1.78165e-20 1.87225)
(16.2038 -9.66137e-21 1.86678)
(16.2317 -4.1245e-21 1.8701)
(16.2596 -2.26467e-21 1.84545)
(16.3029 4.48852e-21 1.84875)
(16.3227 -5.57901e-22 1.81199)
)
;

boundaryField
{
    inlet
    {
        type            fixedValue;
        value           nonuniform 0();
    }
    outlet
    {
        type            zeroGradient;
    }
    flap
    {
        type            movingWallVelocity;
        value           nonuniform 0();
    }
    upperWall
    {
        type            noSlip;
    }
    lowerWall
    {
        type            noSlip;
    }
    frontAndBack
    {
        type            empty;
    }
    procBoundary5to2
    {
        type            processor;
        value           nonuniform List<vector> 
34
(
(3.99181 -1.42344e-20 1.54356)
(3.35875 0 1.31326)
(3.35875 0 1.31326)
(6.87304 -2.75396e-20 1.88805)
(6.35137 -2.88969e-20 1.66965)
(6.35137 -2.88969e-20 1.66965)
(9.3623 2.45351e-20 2.06028)
(9.3623 2.45351e-20 2.06028)
(11.6688 1.88043e-20 2.30024)
(11.3851 1.17517e-20 2.10756)
(11.3851 1.17517e-20 2.10756)
(13.1388 -2.20633e-21 2.24449)
(12.9468 7.85887e-21 2.08322)
(12.9468 7.85887e-21 2.08322)
(14.2249 -4.59734e-22 2.15596)
(14.2249 -4.59734e-22 2.15596)
(15.0693 -2.28489e-21 2.17396)
(14.988 1.75132e-21 2.06386)
(14.988 1.75132e-21 2.06386)
(15.5473 -2.4289e-20 2.06359)
(15.5473 -2.4289e-20 2.06359)
(15.8734 -4.97119e-20 2.03823)
(15.8535 3.19287e-20 1.97676)
(15.8535 3.19287e-20 1.97676)
(16.0484 0 1.94994)
(16.0484 0 1.94994)
(16.1471 -3.56306e-20 1.9112)
(16.1652 5.71642e-21 1.88696)
(16.1652 5.71642e-21 1.88696)
(16.2269 1.40703e-20 1.8508)
(16.2269 1.40703e-20 1.8508)
(16.2656 1.47737e-21 1.80877)
(16.2656 1.47737e-21 1.80877)
(16.3157 0 1.76249)
)
;
    }
    procBoundary5to4
    {
        type            processor;
        value           nonuniform List<vector> 
18
(
(0.669194 0 0.000932232)
(0.728986 0 -0.00501218)
(0.55745 -5.40064e-21 -0.00887525)
(0.307696 0 -0.00413335)
(-0.0623716 1.24657e-20 0.0259344)
(-0.592206 1.36068e-20 0.102724)
(-0.99691 0 0.176573)
(-1.31168 1.70766e-20 0.250862)
(-1.55612 0 0.321741)
(-1.74199 9.29692e-21 0.387341)
(-1.87533 -2.94134e-20 0.446307)
(-1.95794 1.60155e-20 0.496972)
(-1.98897 0 0.537176)
(-1.96201 0 0.562987)
(-1.84988 2.54788e-20 0.571836)
(-1.84988 2.54788e-20 0.571836)
(-1.46455 -1.47464e-21 0.619799)
(0.403214 5.91113e-20 0.853295)
)
;
    }
}


// ************************************************************************* //
