/*--------------------------------*- C++ -*----------------------------------*\
| =========                 |                                                 |
| \\      /  F ield         | OpenFOAM: The Open Source CFD Toolbox           |
|  \\    /   O peration     | Version:  dev                                   |
|   \\  /    A nd           | Web:      www.OpenFOAM.org                      |
|    \\/     M anipulation  |                                                 |
\*---------------------------------------------------------------------------*/
FoamFile
{
    version     2.0;
    format      ascii;
    class       volVectorField;
    location    "4.21";
    object      cellDisplacement;
}
// * * * * * * * * * * * * * * * * * * * * * * * * * * * * * * * * * * * * * //

dimensions      [0 1 0 0 0 0 0];

internalField   nonuniform List<vector> 
2790
(
(0.00258277 0 5.56955e-07)
(0.00742008 0 1.66507e-06)
(0.0116401 0 2.81526e-06)
(0.015284 0 4.10133e-06)
(0.0183936 0 5.60318e-06)
(0.0210077 0 7.39389e-06)
(0.0231615 0 9.54484e-06)
(0.0248871 0 1.21294e-05)
(0.0262129 0 1.52255e-05)
(0.0271644 0 1.89175e-05)
(0.0277639 0 2.32974e-05)
(0.0280314 0 2.84654e-05)
(0.0279845 0 3.45298e-05)
(0.0276391 0 4.16059e-05)
(0.0270099 0 4.98139e-05)
(0.0261112 0 5.92752e-05)
(0.0249572 0 7.01076e-05)
(0.0235635 0 8.24183e-05)
(0.0219476 0 9.6296e-05)
(0.0201305 0 0.000111802)
(0.0181379 0 0.000128963)
(0.0160014 0 0.000147766)
(0.0137605 0 0.000168154)
(0.0114644 0 0.00019004)
(0.00917279 0 0.000213331)
(0.0069583 0 0.00023796)
(0.00490882 0 0.000263915)
(0.00313143 0 0.000291189)
(0.00176163 0 0.000319203)
(0.000996873 0 0.000343878)
(0.00258617 0 1.65667e-06)
(0.00743016 0 4.95322e-06)
(0.0116568 0 8.37594e-06)
(0.0153077 0 1.2204e-05)
(0.0184248 0 1.66753e-05)
(0.0210471 0 2.2007e-05)
(0.0232103 0 2.84115e-05)
(0.0249466 0 3.61066e-05)
(0.0262847 0 4.53238e-05)
(0.0272503 0 5.63132e-05)
(0.0278661 0 6.93478e-05)
(0.0281523 0 8.47246e-05)
(0.0281268 0 0.000102765)
(0.027806 0 0.00012381)
(0.0272048 0 0.000148217)
(0.0263377 0 0.000176346)
(0.0252193 0 0.000208546)
(0.0238653 0 0.000245134)
(0.0222932 0 0.000286373)
(0.0205239 0 0.000332439)
(0.0185828 0 0.000383398)
(0.016501 0 0.000439189)
(0.0143177 0 0.000499595)
(0.0120814 0 0.000564267)
(0.00985165 0 0.00063275)
(0.00770154 0 0.000704515)
(0.00572049 0 0.000778902)
(0.00401886 0 0.000854704)
(0.00273626 0 0.000928387)
(0.00206193 0 0.000987445)
(0.002593 0 2.71477e-06)
(0.00745037 0 8.11808e-06)
(0.0116903 0 1.3731e-05)
(0.0153548 0 2.00119e-05)
(0.0184868 0 2.73507e-05)
(0.0211256 0 3.61034e-05)
(0.0233073 0 4.66172e-05)
(0.0250647 0 5.92481e-05)
(0.0264271 0 7.43734e-05)
(0.0274206 0 9.24011e-05)
(0.0280685 0 0.000113775)
(0.0283916 0 0.00013898)
(0.0284086 0 0.000168537)
(0.0281363 0 0.000203003)
(0.0275905 0 0.000242957)
(0.0267862 0 0.000288986)
(0.0257384 0 0.000341659)
(0.024463 0 0.00040149)
(0.0229778 0 0.000468901)
(0.0213034 0 0.000544167)
(0.0194645 0 0.00062736)
(0.0174914 0 0.00071831)
(0.0154221 0 0.000816528)
(0.0133037 0 0.000921185)
(0.0111949 0 0.00103108)
(0.00916792 0 0.00114455)
(0.00731212 0 0.00125915)
(0.00573769 0 0.0013708)
(0.00458012 0 0.00147142)
(0.0040092 0 0.0015433)
(0.00260313 0 3.70493e-06)
(0.00748035 0 1.10815e-05)
(0.0117398 0 1.87498e-05)
(0.0154248 0 2.7337e-05)
(0.0185787 0 3.73759e-05)
(0.0212418 0 4.93522e-05)
(0.023451 0 6.37381e-05)
(0.0252396 0 8.10169e-05)
(0.0266378 0 0.0001017)
(0.0276725 0 0.00012634)
(0.0283678 0 0.000155535)
(0.0287454 0 0.00018994)
(0.0288249 0 0.000230258)
(0.0286243 0 0.000277238)
(0.0281601 0 0.000331664)
(0.0274482 0 0.000394326)
(0.0265045 0 0.000465991)
(0.0253453 0 0.000547354)
(0.0239885 0 0.000638974)
(0.0224544 0 0.0007412)
(0.0207668 0 0.000854078)
(0.0189547 0 0.000977262)
(0.0170538 0 0.00110987)
(0.0151091 0 0.00125038)
(0.0131761 0 0.0013965)
(0.0113241 0 0.00154491)
(0.00963906 0 0.00169081)
(0.00822645 0 0.00182693)
(0.00721318 0 0.00194178)
(0.00675237 0 0.00201689)
(0.00261643 0 4.60183e-06)
(0.00751971 0 1.37681e-05)
(0.0118049 0 2.33066e-05)
(0.0155165 0 3.39991e-05)
(0.0186992 0 4.65088e-05)
(0.0213942 0 6.1438e-05)
(0.0236392 0 7.93712e-05)
(0.0254687 0 0.000100904)
(0.0269135 0 0.000126667)
(0.0280018 0 0.000157335)
(0.0287588 0 0.000193644)
(0.0292074 0 0.000236391)
(0.0293683 0 0.000286436)
(0.0292607 0 0.000344694)
(0.0289026 0 0.000412119)
(0.0283109 0 0.000489678)
(0.0275026 0 0.000578308)
(0.0264948 0 0.000678856)
(0.0253055 0 0.000792002)
(0.0239548 0 0.000918145)
(0.0224654 0 0.00105728)
(0.020864 0 0.00120886)
(0.0191837 0 0.00137154)
(0.0174653 0 0.00154302)
(0.0157595 0 0.00171974)
(0.0141294 0 0.00189663)
(0.012654 0 0.00206662)
(0.0114304 0 0.00222)
(0.0105754 0 0.00234371)
(0.0102309 0 0.00242059)
(0.00263272 0 5.38193e-06)
(0.00756789 0 1.61083e-05)
(0.0118846 0 2.72851e-05)
(0.0156288 0 3.98316e-05)
(0.0188466 0 5.45254e-05)
(0.0215804 0 7.20703e-05)
(0.0238692 0 9.31463e-05)
(0.0257482 0 0.000118444)
(0.0272499 0 0.000148691)
(0.0284033 0 0.000184664)
(0.0292351 0 0.000227208)
(0.0297694 0 0.000277235)
(0.0300288 0 0.000335726)
(0.0300338 0 0.000403727)
(0.0298038 0 0.000482324)
(0.0293576 0 0.000572622)
(0.0287131 0 0.000675693)
(0.0278886 0 0.000792508)
(0.0269028 0 0.00092384)
(0.0257751 0 0.00107014)
(0.0245274 0 0.00123134)
(0.0231836 0 0.00140672)
(0.0217731 0 0.00159453)
(0.0203312 0 0.00179171)
(0.0189016 0 0.00199354)
(0.0175383 0 0.00219334)
(0.0163098 0 0.00238218)
(0.015302 0 0.00254871)
(0.0146217 0 0.00267934)
(0.014404 0 0.00275823)
(0.00265176 0 6.02399e-06)
(0.00762424 0 1.80389e-05)
(0.0119777 0 3.05803e-05)
(0.01576 0 4.46846e-05)
(0.0190188 0 6.12254e-05)
(0.0217979 0 8.09898e-05)
(0.0241374 0 0.000104735)
(0.0260741 0 0.000133225)
(0.0276415 0 0.00016726)
(0.0288703 0 0.000207694)
(0.0297884 0 0.000255449)
(0.0304218 0 0.000311517)
(0.0307944 0 0.000376964)
(0.0309289 0 0.000452919)
(0.0308465 0 0.000540559)
(0.0305674 0 0.000641077)
(0.0301116 0 0.000755637)
(0.0294984 0 0.000885299)
(0.0287474 0 0.00103091)
(0.0278784 0 0.00119295)
(0.0269118 0 0.00137137)
(0.0258686 0 0.00156531)
(0.0247736 0 0.00177277)
(0.0236563 0 0.00199016)
(0.022551 0 0.00221184)
(0.0215001 0 0.00242985)
(0.020558 0 0.00263371)
(0.0197965 0 0.00281069)
(0.0193115 0 0.00294661)
(0.0192336 0 0.00302617)
(0.00267331 0 6.50942e-06)
(0.00768797 0 1.95051e-05)
(0.012083 0 3.31011e-05)
(0.0159084 0 4.84284e-05)
(0.0192133 0 6.64359e-05)
(0.0220433 0 8.79742e-05)
(0.0244399 0 0.000113856)
(0.0264413 0 0.000144896)
(0.0280823 0 0.000181943)
(0.0293951 0 0.000225898)
(0.0304094 0 0.000277724)
(0.0311529 0 0.000338456)
(0.0316514 0 0.0004092)
(0.0319294 0 0.000491123)
(0.0320102 0 0.000585435)
(0.0319164 0 0.000693367)
(0.0316694 0 0.00081612)
(0.0312905 0 0.0009548)
(0.0308007 0 0.00111029)
(0.0302201 0 0.00128314)
(0.0295691 0 0.00147328)
(0.0288644 0 0.0016799)
(0.0281262 0 0.001901)
(0.0273791 0 0.00213279)
(0.0266459 0 0.00236914)
(0.0259553 0 0.00260119)
(0.0253441 0 0.00281717)
(0.0248651 0 0.00300281)
(0.0245994 0 0.0031425)
(0.0246725 0 0.00322051)
(0.00269706 0 6.82265e-06)
(0.0077582 0 2.04607e-05)
(0.012199 0 3.47714e-05)
(0.0160717 0 5.09553e-05)
(0.0194275 0 7.00148e-05)
(0.0223133 0 9.28421e-05)
(0.0247723 0 0.000120283)
(0.0268442 0 0.00015318)
(0.0285653 0 0.000192401)
(0.0299694 0 0.000238863)
(0.0310878 0 0.000293536)
(0.0319501 0 0.000357458)
(0.0325841 0 0.000431726)
(0.0330164 0 0.000517493)
(0.0332726 0 0.000615945)
(0.0333773 0 0.000728282)
(0.0333542 0 0.000855682)
(0.0332266 0 0.000999248)
(0.0330178 0 0.00115985)
(0.0327482 0 0.0013381)
(0.0324414 0 0.00153393)
(0.0321067 0 0.00174664)
(0.0317595 0 0.00197467)
(0.0314243 0 0.00221448)
(0.0311098 0 0.00245997)
(0.0308308 0 0.00270201)
(0.0306022 0 0.00292788)
(0.030451 0 0.00312162)
(0.0304353 0 0.00326527)
(0.0306706 0 0.00334134)
(0.00272268 0 6.95141e-06)
(0.00783397 0 2.08697e-05)
(0.0123241 0 3.55319e-05)
(0.0162478 0 5.21823e-05)
(0.0196582 0 7.18535e-05)
(0.0226039 0 9.5457e-05)
(0.0251297 0 0.000123849)
(0.0272768 0 0.000157874)
(0.0290831 0 0.000198393)
(0.0305839 0 0.000246305)
(0.0318124 0 0.000302554)
(0.0327998 0 0.000368136)
(0.033576 0 0.000444095)
(0.0341698 0 0.000531513)
(0.0346091 0 0.000631491)
(0.0349208 0 0.000745123)
(0.035131 0 0.000873488)
(0.0352644 0 0.00101764)
(0.0353493 0 0.00117832)
(0.0354024 0 0.00135626)
(0.0354481 0 0.00155125)
(0.0355052 0 0.00176265)
(0.0355871 0 0.00199002)
(0.0357011 0 0.00223046)
(0.0358465 0 0.00247855)
(0.0360321 0 0.00272587)
(0.0362475 0 0.00295945)
(0.0364846 0 0.00316185)
(0.0367649 0 0.00331186)
(0.0371827 0 0.00338782)
(0.00274982 0 6.88688e-06)
(0.00791424 0 2.07063e-05)
(0.0124567 0 3.53408e-05)
(0.0164343 0 5.2052e-05)
(0.0199022 0 7.18787e-05)
(0.022911 0 9.57295e-05)
(0.025507 0 0.000124448)
(0.0277328 0 0.000158856)
(0.0296278 0 0.000199781)
(0.0312291 0 0.000248073)
(0.0325714 0 0.000304614)
(0.0336876 0 0.000370319)
(0.0346096 0 0.000446132)
(0.0353683 0 0.000533013)
(0.0359939 0 0.000631915)
(0.036516 0 0.000743746)
(0.0369628 0 0.000869369)
(0.037358 0 0.00100981)
(0.0377308 0 0.00116548)
(0.0381071 0 0.0013368)
(0.0385085 0 0.00152416)
(0.0389644 0 0.00172722)
(0.0394898 0 0.00194539)
(0.0400795 0 0.00217689)
(0.0407331 0 0.00241871)
(0.0414332 0 0.0026647)
(0.0421628 0 0.00290232)
(0.0428686 0 0.00311382)
(0.043517 0 0.00327386)
(0.0441551 0 0.00335258)
(0.00277812 0 6.62382e-06)
(0.00799791 0 1.99551e-05)
(0.0125948 0 3.41746e-05)
(0.0166285 0 5.05335e-05)
(0.0201563 0 7.00534e-05)
(0.0232304 0 9.36181e-05)
(0.0258987 0 0.000122037)
(0.0282054 0 0.000156085)
(0.0301914 0 0.00019653)
(0.0318951 0 0.000244146)
(0.0333526 0 0.00029972)
(0.0345988 0 0.000364049)
(0.0356671 0 0.000437935)
(0.0365904 0 0.00052217)
(0.0374009 0 0.000617507)
(0.0381311 0 0.000724583)
(0.0388038 0 0.000843971)
(0.039452 0 0.000976233)
(0.0401042 0 0.00112195)
(0.040796 0 0.00128113)
(0.0415517 0 0.00145396)
(0.0423974 0 0.00164033)
(0.0433509 0 0.00183998)
(0.0444185 0 0.00205222)
(0.0455997 0 0.00227579)
(0.0468612 0 0.00250884)
(0.0481759 0 0.00274254)
(0.0494489 0 0.00296084)
(0.050573 0 0.00313475)
(0.051497 0 0.00322004)
(0.00280719 0 6.16062e-06)
(0.00808386 0 1.86116e-05)
(0.0127367 0 3.20279e-05)
(0.0168279 0 4.76222e-05)
(0.0204169 0 6.63766e-05)
(0.0235576 0 8.91291e-05)
(0.0262995 0 0.000116634)
(0.0286881 0 0.000149599)
(0.0307656 0 0.000188709)
(0.0325718 0 0.000234636)
(0.0341442 0 0.000288043)
(0.0355189 0 0.000349577)
(0.0367309 0 0.000419865)
(0.0378145 0 0.000499491)
(0.0388037 0 0.000588983)
(0.0397285 0 0.000688486)
(0.0406143 0 0.000798385)
(0.0415032 0 0.000918905)
(0.0424251 0 0.00105008)
(0.0434132 0 0.00119166)
(0.0444972 0 0.00134337)
(0.0457051 0 0.00150489)
(0.0470596 0 0.0016759)
(0.0485754 0 0.00185634)
(0.0502565 0 0.00204672)
(0.0520894 0 0.00224898)
(0.0540285 0 0.00246171)
(0.0559623 0 0.00267644)
(0.0577051 0 0.00286633)
(0.0590313 0 0.00296622)
(0.00283663 0 5.4993e-06)
(0.00817092 0 1.66813e-05)
(0.0128804 0 2.89132e-05)
(0.0170298 0 4.334e-05)
(0.0206805 0 6.08831e-05)
(0.0238883 0 8.23157e-05)
(0.0267039 0 0.000108319)
(0.0291741 0 0.000139514)
(0.0313423 0 0.000176483)
(0.0332495 0 0.000219777)
(0.0349343 0 0.000269909)
(0.0364337 0 0.000327354)
(0.0377839 0 0.000392532)
(0.0390202 0 0.000465782)
(0.0401775 0 0.000547266)
(0.0412799 0 0.000637013)
(0.0423678 0 0.000734678)
(0.0434779 0 0.000840213)
(0.0446424 0 0.000953065)
(0.0458948 0 0.00107244)
(0.0472669 0 0.00119736)
(0.0487891 0 0.00132679)
(0.0504884 0 0.00145966)
(0.0523871 0 0.00159529)
(0.0544995 0 0.00173421)
(0.0568342 0 0.00187997)
(0.0593472 0 0.00204014)
(0.0619577 0 0.00222063)
(0.0644469 0 0.00241729)
(0.0663725 0 0.00255384)
(0.00286608 0 4.64566e-06)
(0.00825792 0 1.41791e-05)
(0.013024 0 2.48609e-05)
(0.0172314 0 3.77341e-05)
(0.0209437 0 5.36418e-05)
(0.024218 0 7.32758e-05)
(0.0271064 0 9.72275e-05)
(0.0296568 0 0.000126018)
(0.0319136 0 0.000160111)
(0.0339187 0 0.000199918)
(0.0357115 0 0.00024579)
(0.0373298 0 0.000298008)
(0.0388102 0 0.000356768)
(0.0401886 0 0.000422186)
(0.0414962 0 0.000494041)
(0.0427632 0 0.000571998)
(0.0440326 0 0.00065537)
(0.0453375 0 0.000743471)
(0.0467105 0 0.000835185)
(0.0481846 0 0.000929018)
(0.0497915 0 0.00102311)
(0.0515615 0 0.00111527)
(0.0535226 0 0.00120292)
(0.0556994 0 0.0012833)
(0.0581117 0 0.00135409)
(0.0607725 0 0.00141461)
(0.0636596 0 0.00147139)
(0.0667301 0 0.00154223)
(0.0698311 0 0.00167519)
(0.0725409 0 0.00187814)
(0.00104763 0 -0.000402145)
(0.00193256 0 -0.000395799)
(0.00356225 0 -0.000387561)
(0.00575835 0 -0.000379974)
(0.00835648 0 -0.000372157)
(0.0112037 0 -0.000363021)
(0.0141616 0 -0.000351917)
(0.0171115 0 -0.00033868)
(0.0199561 0 -0.000323506)
(0.0226201 0 -0.000306802)
(0.0250487 0 -0.000289073)
(0.0272023 0 -0.000270803)
(0.0290542 0 -0.000252415)
(0.0305869 0 -0.000234248)
(0.0317892 0 -0.00021655)
(0.0326533 0 -0.000199484)
(0.0331727 0 -0.000183141)
(0.0333413 0 -0.000167554)
(0.0331516 0 -0.000152711)
(0.0325943 0 -0.000138563)
(0.0316577 0 -0.000125033)
(0.0303275 0 -0.000112023)
(0.0285863 0 -9.94156e-05)
(0.0264139 0 -8.70739e-05)
(0.0237869 0 -7.48422e-05)
(0.0206791 0 -6.25415e-05)
(0.0170617 0 -4.9965e-05)
(0.0129036 0 -3.68695e-05)
(0.0081723 0 -2.29654e-05)
(0.00283167 0 -7.89252e-06)
(0.00208771 0 -0.00117683)
(0.00292981 0 -0.00116702)
(0.00451056 0 -0.00115044)
(0.00665873 0 -0.00113242)
(0.00920634 0 -0.00111142)
(0.0119977 0 -0.00108515)
(0.0148943 0 -0.0010523)
(0.0177783 0 -0.00101274)
(0.020555 0 -0.000967253)
(0.0231514 0 -0.000917182)
(0.0255146 0 -0.00086408)
(0.027607 0 -0.00080941)
(0.0294027 0 -0.000754435)
(0.030885 0 -0.000700155)
(0.0320426 0 -0.0006473)
(0.0328676 0 -0.000596344)
(0.0333533 0 -0.000547553)
(0.0334928 0 -0.000501017)
(0.0332783 0 -0.000456694)
(0.0326998 0 -0.000414438)
(0.0317453 0 -0.000374019)
(0.0303999 0 -0.000335143)
(0.0286458 0 -0.000297458)
(0.0264623 0 -0.000260557)
(0.0238258 0 -0.000223975)
(0.0207098 0 -0.000187178)
(0.017085 0 -0.000149548)
(0.0129202 0 -0.000110358)
(0.00818244 0 -6.87431e-05)
(0.00283514 0 -2.36256e-05)
(0.00399321 0 -0.00189552)
(0.00481843 0 -0.00189768)
(0.00634617 0 -0.00188692)
(0.00842097 0 -0.00186745)
(0.0108782 0 -0.00183809)
(0.0135632 0 -0.00179692)
(0.0163396 0 -0.00174313)
(0.0190939 0 -0.0016774)
(0.0217363 0 -0.00160157)
(0.0241989 0 -0.00151818)
(0.0264333 0 -0.00142991)
(0.028405 0 -0.00133924)
(0.0300902 0 -0.00124822)
(0.0314733 0 -0.00115848)
(0.0325431 0 -0.00107116)
(0.0332913 0 -0.000987031)
(0.0337105 0 -0.000906484)
(0.0337929 0 -0.000829654)
(0.0335295 0 -0.000756459)
(0.0329095 0 -0.000686647)
(0.0319196 0 -0.000619839)
(0.0305441 0 -0.000555546)
(0.0287644 0 -0.000493188)
(0.0265591 0 -0.000432093)
(0.0239038 0 -0.000371493)
(0.0207714 0 -0.000310508)
(0.017132 0 -0.000248115)
(0.0129536 0 -0.000183114)
(0.00820278 0 -0.000114071)
(0.00284207 0 -3.92057e-05)
(0.00668411 0 -0.00257916)
(0.00751575 0 -0.00259763)
(0.00899985 0 -0.00259936)
(0.0109895 0 -0.00258378)
(0.0133256 0 -0.00254914)
(0.0158588 0 -0.00249424)
(0.0184595 0 -0.00241954)
(0.0210224 0 -0.00232723)
(0.0234666 0 -0.00222071)
(0.0257323 0 -0.00210392)
(0.0277774 0 -0.00198079)
(0.0295723 0 -0.00185476)
(0.0310959 0 -0.0017286)
(0.032334 0 -0.00160446)
(0.0332757 0 -0.00148383)
(0.0339119 0 -0.00136769)
(0.0342341 0 -0.00125651)
(0.0342331 0 -0.00115046)
(0.0338984 0 -0.00104937)
(0.0332175 0 -0.000952905)
(0.0321758 0 -0.000860517)
(0.0307563 0 -0.000771536)
(0.0289391 0 -0.000685159)
(0.0267018 0 -0.000600462)
(0.0240188 0 -0.000516385)
(0.0208621 0 -0.00043171)
(0.0172011 0 -0.000345027)
(0.0130029 0 -0.000254674)
(0.00823277 0 -0.000158667)
(0.00285228 0 -5.4536e-05)
(0.0101016 0 -0.00325111)
(0.0109591 0 -0.00328333)
(0.0124089 0 -0.00329662)
(0.0143042 0 -0.00328474)
(0.0164913 0 -0.00324419)
(0.0188293 0 -0.00317428)
(0.0212006 0 -0.00307714)
(0.023513 0 -0.00295692)
(0.0256983 0 -0.00281888)
(0.0277077 0 -0.00266853)
(0.0295077 0 -0.00251099)
(0.0310743 0 -0.00235054)
(0.0323901 0 -0.00219054)
(0.0334421 0 -0.00203351)
(0.0342194 0 -0.00188118)
(0.0347121 0 -0.00173463)
(0.03491 0 -0.00159439)
(0.034802 0 -0.00146056)
(0.0343756 0 -0.00133293)
(0.0336164 0 -0.00121103)
(0.0325081 0 -0.00109417)
(0.0310317 0 -0.000981493)
(0.0291661 0 -0.00087199)
(0.0268871 0 -0.000764496)
(0.0241683 0 -0.000657677)
(0.0209802 0 -0.000549996)
(0.0172912 0 -0.000439669)
(0.013067 0 -0.000324593)
(0.00827183 0 -0.000202255)
(0.00286558 0 -6.95231e-05)
(0.0142073 0 -0.00392445)
(0.0151008 0 -0.00396616)
(0.0165175 0 -0.00398637)
(0.0183039 0 -0.00397385)
(0.0203101 0 -0.0039231)
(0.0224074 0 -0.0038342)
(0.0244954 0 -0.00371128)
(0.0264999 0 -0.00356082)
(0.0283693 0 -0.00339007)
(0.0300684 0 -0.003206)
(0.0315734 0 -0.00301476)
(0.032867 0 -0.00282126)
(0.0339349 0 -0.00262919)
(0.0347655 0 -0.00244127)
(0.0353477 0 -0.00225931)
(0.0356699 0 -0.00208441)
(0.0357201 0 -0.00191706)
(0.0354848 0 -0.0017573)
(0.0349492 0 -0.00160481)
(0.0340967 0 -0.001459)
(0.0329086 0 -0.00131904)
(0.0313642 0 -0.0011839)
(0.0294403 0 -0.00105238)
(0.0271113 0 -0.000923099)
(0.0243493 0 -0.000794455)
(0.0211233 0 -0.00066462)
(0.0174003 0 -0.000531459)
(0.0131447 0 -0.00039245)
(0.00831917 0 -0.000244578)
(0.0028817 0 -8.40785e-05)
(0.0189637 0 -0.00460249)
(0.0198956 0 -0.00465063)
(0.0212707 0 -0.00467228)
(0.0229234 0 -0.00465214)
(0.0247079 0 -0.00458396)
(0.0265133 0 -0.00446963)
(0.0282625 0 -0.00431612)
(0.0299036 0 -0.00413242)
(0.0314047 0 -0.00392768)
(0.0327459 0 -0.00371005)
(0.0339141 0 -0.00348636)
(0.0348976 0 -0.00326175)
(0.0356853 0 -0.00303992)
(0.0362665 0 -0.00282365)
(0.036629 0 -0.00261463)
(0.0367594 0 -0.00241387)
(0.0366432 0 -0.00222176)
(0.0362644 0 -0.00203824)
(0.0356054 0 -0.00186288)
(0.034647 0 -0.00169496)
(0.0333683 0 -0.00153352)
(0.0317463 0 -0.00137737)
(0.0297559 0 -0.00122515)
(0.0273697 0 -0.00107526)
(0.024558 0 -0.000925872)
(0.0212884 0 -0.000774892)
(0.0175263 0 -0.000619855)
(0.0132345 0 -0.000457851)
(0.00837387 0 -0.000285392)
(0.00290033 0 -9.81191e-05)
(0.0243269 0 -0.0052854)
(0.0252951 0 -0.00533789)
(0.0266095 0 -0.00535446)
(0.028089 0 -0.00531718)
(0.0295979 0 -0.0052216)
(0.0310523 0 -0.00507353)
(0.0324055 0 -0.00488385)
(0.0336305 0 -0.00466395)
(0.0347173 0 -0.00442446)
(0.0356618 0 -0.0041742)
(0.0364605 0 -0.00392008)
(0.0371068 0 -0.00366707)
(0.0375907 0 -0.00341847)
(0.0379028 0 -0.00317694)
(0.0380283 0 -0.00294392)
(0.0379518 0 -0.0027202)
(0.0376558 0 -0.00250604)
(0.0371214 0 -0.00230124)
(0.0363284 0 -0.00210527)
(0.0352547 0 -0.00191727)
(0.0338769 0 -0.00173617)
(0.0321699 0 -0.00156066)
(0.0301063 0 -0.00138921)
(0.027657 0 -0.00122005)
(0.0247903 0 -0.00105116)
(0.0214724 0 -0.00088018)
(0.0176668 0 -0.000704361)
(0.0133346 0 -0.000520435)
(0.00843488 0 -0.000324475)
(0.00292111 0 -0.000111569)
(0.0302513 0 -0.00597556)
(0.0312482 0 -0.00602829)
(0.0324664 0 -0.00602961)
(0.0337123 0 -0.00596185)
(0.0348746 0 -0.00582624)
(0.0359105 0 -0.00563514)
(0.0368123 0 -0.00540425)
(0.0375733 0 -0.00514622)
(0.0382089 0 -0.00487252)
(0.038729 0 -0.00459181)
(0.0391375 0 -0.00431046)
(0.0394308 0 -0.00403276)
(0.0395969 0 -0.00376096)
(0.0396294 0 -0.00349792)
(0.0395085 0 -0.0032444)
(0.0392163 0 -0.003001)
(0.0387327 0 -0.0027678)
(0.0380355 0 -0.00254447)
(0.0371015 0 -0.00233036)
(0.0359062 0 -0.00212452)
(0.0344236 0 -0.00192577)
(0.0326261 0 -0.00173269)
(0.0304844 0 -0.00154363)
(0.0279674 0 -0.00135668)
(0.0250416 0 -0.00116963)
(0.0216715 0 -0.000979924)
(0.0178189 0 -0.000784535)
(0.0134431 0 -0.000579876)
(0.00850102 0 -0.000361624)
(0.00294364 0 -0.000124358)
(0.0366962 0 -0.00667428)
(0.0376998 0 -0.00671853)
(0.0387571 0 -0.00668823)
(0.0396791 0 -0.00657195)
(0.0404038 0 -0.0063818)
(0.0409488 0 -0.00613897)
(0.0413314 0 -0.00586224)
(0.041589 0 -0.00556643)
(0.0417516 0 -0.00526136)
(0.0418367 0 -0.00495441)
(0.0418512 0 -0.00465063)
(0.0417917 0 -0.00435341)
(0.0416468 0 -0.00406409)
(0.0414004 0 -0.00378399)
(0.0410311 0 -0.00351385)
(0.0405216 0 -0.00325434)
(0.039848 0 -0.00300537)
(0.0389853 0 -0.00276645)
(0.0379075 0 -0.00253685)
(0.0365875 0 -0.00231554)
(0.0349967 0 -0.00210128)
(0.0331055 0 -0.00189255)
(0.0308825 0 -0.00168761)
(0.0282947 0 -0.00148445)
(0.0253071 0 -0.00128071)
(0.0218821 0 -0.00107363)
(0.0179799 0 -0.000859987)
(0.013558 0 -0.00063589)
(0.00857103 0 -0.000396663)
(0.00296749 0 -0.000136427)
(0.0436188 0 -0.00737515)
(0.0445757 0 -0.00739562)
(0.0453594 0 -0.00730941)
(0.04583 0 -0.00712271)
(0.0460088 0 -0.00686422)
(0.0459826 0 -0.00656442)
(0.045803 0 -0.00624303)
(0.0455404 0 -0.00591338)
(0.0452294 0 -0.00558285)
(0.0448879 0 -0.00525608)
(0.0445202 0 -0.00493613)
(0.0441204 0 -0.00462489)
(0.0436765 0 -0.00432356)
(0.0431628 0 -0.00403207)
(0.0425584 0 -0.00375063)
(0.0418365 0 -0.00347882)
(0.0409763 0 -0.0032175)
(0.03995 0 -0.00296608)
(0.0387292 0 -0.00272375)
(0.0372843 0 -0.00248945)
(0.0355847 0 -0.00226189)
(0.0335986 0 -0.00203951)
(0.031293 0 -0.00182052)
(0.0286329 0 -0.0016028)
(0.0255816 0 -0.00138389)
(0.0221 0 -0.0011609)
(0.0181466 0 -0.000930386)
(0.0136769 0 -0.00068823)
(0.00864357 0 -0.000429437)
(0.0029922 0 -0.000147721)
(0.0509504 0 -0.00805826)
(0.0517461 0 -0.00802923)
(0.0520756 0 -0.00785398)
(0.0519362 0 -0.0075754)
(0.0514662 0 -0.00724221)
(0.0508138 0 -0.00688855)
(0.050073 0 -0.00653188)
(0.0493059 0 -0.00617873)
(0.0485458 0 -0.00583242)
(0.0478049 0 -0.00549451)
(0.0470816 0 -0.00516597)
(0.0463647 0 -0.00484732)
(0.0456361 0 -0.00453881)
(0.0448717 0 -0.00424043)
(0.0440482 0 -0.00395249)
(0.0431315 0 -0.00367357)
(0.042093 0 -0.00340343)
(0.0409092 0 -0.00314263)
(0.0395497 0 -0.00289038)
(0.0379828 0 -0.00264562)
(0.0361762 0 -0.00240703)
(0.0340962 0 -0.00217305)
(0.031708 0 -0.00194185)
(0.0289754 0 -0.00171127)
(0.02586 0 -0.00147879)
(0.0223213 0 -0.00124138)
(0.0183159 0 -0.00099546)
(0.0137978 0 -0.000736691)
(0.00871725 0 -0.000459818)
(0.0030173 0 -0.000158197)
(0.0585458 0 -0.0086831)
(0.0589515 0 -0.00855894)
(0.0585753 0 -0.0082555)
(0.0576745 0 -0.00787563)
(0.0565029 0 -0.00747875)
(0.0552355 0 -0.00708995)
(0.0539708 0 -0.00671615)
(0.0527507 0 -0.00635539)
(0.0515943 0 -0.00600632)
(0.0505027 0 -0.00566779)
(0.0494669 0 -0.00533924)
(0.0484695 0 -0.0050203)
(0.0474882 0 -0.00471075)
(0.0464969 0 -0.00441045)
(0.0454686 0 -0.00411939)
(0.0443738 0 -0.00383731)
(0.0431757 0 -0.00356287)
(0.041844 0 -0.00329577)
(0.0403532 0 -0.0030364)
(0.0386699 0 -0.00278369)
(0.0367602 0 -0.00253633)
(0.0345889 0 -0.00229279)
(0.0321202 0 -0.00205126)
(0.0293162 0 -0.00180956)
(0.0261374 0 -0.00156512)
(0.0225419 0 -0.00131483)
(0.0184848 0 -0.001055)
(0.0139182 0 -0.000781112)
(0.00879065 0 -0.000487701)
(0.00304229 0 -0.000167817)
(0.0660316 0 -0.00916655)
(0.0656517 0 -0.00886445)
(0.0643271 0 -0.00841063)
(0.0626224 0 -0.00795866)
(0.0608121 0 -0.00754028)
(0.0590256 0 -0.00715343)
(0.0573372 0 -0.00679003)
(0.0557568 0 -0.00644183)
(0.0542847 0 -0.00610487)
(0.0529109 0 -0.00577695)
(0.0516194 0 -0.00545715)
(0.0503887 0 -0.00514499)
(0.0491935 0 -0.00484025)
(0.0480065 0 -0.00454295)
(0.0467989 0 -0.00425309)
(0.0455402 0 -0.00397058)
(0.0441989 0 -0.00369513)
(0.0427372 0 -0.00342555)
(0.0411254 0 -0.00316178)
(0.0393336 0 -0.00290358)
(0.0373265 0 -0.00264967)
(0.0350684 0 -0.00239859)
(0.0325223 0 -0.00214857)
(0.0296493 0 -0.00189746)
(0.0264089 0 -0.00164268)
(0.0227578 0 -0.00138107)
(0.01865 0 -0.00110884)
(0.014036 0 -0.000821371)
(0.00886232 0 -0.000513006)
(0.00306666 0 -0.000176553)
(0.0722738 0 -0.00926446)
(0.0707918 0 -0.00869546)
(0.0685906 0 -0.00818561)
(0.0663208 0 -0.00777459)
(0.0641187 0 -0.00741559)
(0.0620254 0 -0.00708126)
(0.0600733 0 -0.0067592)
(0.0582586 0 -0.00644401)
(0.0565706 0 -0.0061334)
(0.054994 0 -0.00582652)
(0.053511 0 -0.00552353)
(0.0520987 0 -0.00522455)
(0.0507318 0 -0.00492995)
(0.0493831 0 -0.00464012)
(0.0480239 0 -0.00435538)
(0.0466238 0 -0.00407589)
(0.0451512 0 -0.00380158)
(0.0435729 0 -0.00353209)
(0.0418537 0 -0.00326681)
(0.0399629 0 -0.00300547)
(0.0378659 0 -0.00274712)
(0.0355267 0 -0.00249043)
(0.0329075 0 -0.00223373)
(0.029969 0 -0.0019749)
(0.0266696 0 -0.00171137)
(0.0229651 0 -0.00143999)
(0.0188085 0 -0.0011569)
(0.0141488 0 -0.000857387)
(0.00893081 0 -0.000535675)
(0.0030899 0 -0.000184383)
(0.00289572 0 3.61204e-06)
(0.00834539 0 1.11317e-05)
(0.0131678 0 1.98316e-05)
(0.0174335 0 3.07637e-05)
(0.0212072 0 4.46099e-05)
(0.0245476 0 6.197e-05)
(0.027508 0 8.33323e-05)
(0.0301372 0 0.000109103)
(0.0324805 0 0.000139616)
(0.0345802 0 0.000175134)
(0.0364765 0 0.000215832)
(0.0382074 0 0.000261785)
(0.0398094 0 0.000312945)
(0.0413175 0 0.00036912)
(0.0427628 0 0.000429915)
(0.0441823 0 0.000494419)
(0.0456113 0 0.000561674)
(0.0470824 0 0.000630414)
(0.0486274 0 0.000698918)
(0.0502766 0 0.000764963)
(0.052059 0 0.000825742)
(0.054001 0 0.000877818)
(0.0561257 0 0.000916781)
(0.0584509 0 0.000937022)
(0.0609866 0 0.000931184)
(0.0637286 0 0.000888513)
(0.0666431 0 0.000790617)
(0.0696543 0 0.000597395)
(0.0726343 0 0.000203956)
(0.0754043 0 -0.000626918)
(0.0029252 0 2.37664e-06)
(0.00843253 0 7.50649e-06)
(0.0133113 0 1.38489e-05)
(0.0176343 0 2.23384e-05)
(0.021469 0 3.36901e-05)
(0.0248748 0 4.82907e-05)
(0.027906 0 6.65207e-05)
(0.0306121 0 8.86609e-05)
(0.0330389 0 0.000114907)
(0.0352293 0 0.000145366)
(0.0372234 0 0.000180031)
(0.0390593 0 0.000218768)
(0.0407733 0 0.000261287)
(0.0423998 0 0.0003071)
(0.0439716 0 0.000355462)
(0.0455226 0 0.000405252)
(0.0470856 0 0.000455092)
(0.0486909 0 0.000503226)
(0.0503671 0 0.000547391)
(0.0521406 0 0.000584721)
(0.0540345 0 0.000611612)
(0.0560679 0 0.000623583)
(0.0582537 0 0.000614766)
(0.0605961 0 0.000577383)
(0.0630855 0 0.000500774)
(0.0656913 0 0.000368988)
(0.0683511 0 0.000156561)
(0.0709766 0 -0.000181469)
(0.07339 0 -0.000709056)
(0.0753964 0 -0.00152793)
(0.0029537 0 9.42077e-07)
(0.00851696 0 3.29109e-06)
(0.0134509 0 6.96094e-06)
(0.01783 0 1.26488e-05)
(0.0217235 0 2.09763e-05)
(0.0251927 0 3.23833e-05)
(0.028292 0 4.6991e-05)
(0.0310716 0 6.49591e-05)
(0.0335775 0 8.63404e-05)
(0.0358526 0 0.00011109)
(0.0379371 0 0.00013902)
(0.0398686 0 0.000169796)
(0.0416828 0 0.0002029)
(0.0434134 0 0.000237589)
(0.0450925 0 0.000272838)
(0.0467514 0 0.000307281)
(0.0484197 0 0.000339211)
(0.0501247 0 0.000366491)
(0.0518905 0 0.000386449)
(0.0537381 0 0.000395759)
(0.0556838 0 0.000390286)
(0.0577379 0 0.000364931)
(0.0599024 0 0.000313088)
(0.0621683 0 0.000226033)
(0.0645107 0 9.23717e-05)
(0.0668858 0 -0.000104516)
(0.0692195 0 -0.000386317)
(0.0714009 0 -0.000781563)
(0.0732861 0 -0.00132275)
(0.0747454 0 -0.00208211)
(0.00298068 0 -6.83554e-07)
(0.00859712 0 -1.48545e-06)
(0.0135838 0 -8.58665e-07)
(0.0180172 0 1.74683e-06)
(0.0219672 0 6.69397e-06)
(0.0254963 0 1.43523e-05)
(0.0286604 0 2.49093e-05)
(0.0315091 0 3.82253e-05)
(0.0340887 0 5.42226e-05)
(0.0364419 0 7.27196e-05)
(0.0386084 0 9.33535e-05)
(0.0406251 0 0.000115604)
(0.0425267 0 0.000138753)
(0.0443458 0 0.000161843)
(0.0461128 0 0.00018363)
(0.0478562 0 0.000202536)
(0.0496024 0 0.000216615)
(0.0513746 0 0.000223481)
(0.0531923 0 0.00022021)
(0.0550707 0 0.000203241)
(0.0570192 0 0.000168229)
(0.0590403 0 0.00010993)
(0.0611274 0 2.18372e-05)
(0.0632627 0 -0.000104898)
(0.0654144 0 -0.000280446)
(0.0675272 0 -0.000517131)
(0.069523 0 -0.000828878)
(0.0713136 0 -0.00123247)
(0.0728013 0 -0.00175058)
(0.0738845 0 -0.00241773)
(0.00300558 0 -2.48773e-06)
(0.00867144 0 -6.78685e-06)
(0.0137077 0 -9.53839e-06)
(0.0181922 0 -1.03661e-05)
(0.022196 0 -9.04067e-06)
(0.0257816 0 -5.47055e-06)
(0.0290055 0 4.86495e-07)
(0.0319185 0 8.76371e-06)
(0.0345655 0 1.89448e-05)
(0.0369892 0 3.07709e-05)
(0.0392285 0 4.36988e-05)
(0.0413193 0 5.70497e-05)
(0.0432952 0 6.99445e-05)
(0.0451869 0 8.12509e-05)
(0.0470228 0 8.95658e-05)
(0.0488287 0 9.31656e-05)
(0.0506271 0 8.99647e-05)
(0.0524375 0 7.74576e-05)
(0.0542748 0 5.26461e-05)
(0.0561489 0 1.19545e-05)
(0.0580635 0 -4.88715e-05)
(0.0600146 0 -0.000134804)
(0.0619934 0 -0.000252163)
(0.0639732 0 -0.000407726)
(0.0659132 0 -0.000609023)
(0.0677627 0 -0.00086387)
(0.069461 0 -0.00118177)
(0.0709407 0 -0.00157282)
(0.0721326 0 -0.00204813)
(0.0729673 0 -0.0026167)
(0.00302786 0 -4.4531e-06)
(0.00873839 0 -1.25622e-05)
(0.0138201 0 -1.89933e-05)
(0.0183519 0 -2.35539e-05)
(0.0224055 0 -2.61714e-05)
(0.0260439 0 -2.68735e-05)
(0.0293229 0 -2.58095e-05)
(0.0322935 0 -2.30639e-05)
(0.0350011 0 -1.90286e-05)
(0.0374873 0 -1.41491e-05)
(0.0397897 0 -9.17599e-06)
(0.0419432 0 -4.90404e-06)
(0.04398 0 -2.32621e-06)
(0.0459289 0 -2.70952e-06)
(0.0478159 0 -7.55102e-06)
(0.0496637 0 -1.86464e-05)
(0.0514918 0 -3.81205e-05)
(0.0533157 0 -6.84681e-05)
(0.0551464 0 -0.000112604)
(0.0569896 0 -0.000173918)
(0.058845 0 -0.000256347)
(0.0607064 0 -0.000364459)
(0.0625565 0 -0.000503015)
(0.0643651 0 -0.000676442)
(0.0660982 0 -0.00089033)
(0.0677136 0 -0.00115)
(0.0691636 0 -0.00146081)
(0.0703989 0 -0.0018274)
(0.0713719 0 -0.00225251)
(0.07204 0 -0.00273299)
(0.003047 0 -6.55729e-06)
(0.00879648 0 -1.8746e-05)
(0.0139187 0 -2.91148e-05)
(0.0184932 0 -3.76619e-05)
(0.0225921 0 -4.44738e-05)
(0.0262782 0 -4.97167e-05)
(0.0296074 0 -5.36399e-05)
(0.0326297 0 -5.65993e-05)
(0.0353903 0 -5.89939e-05)
(0.0379298 0 -6.13798e-05)
(0.0402855 0 -6.44203e-05)
(0.0424902 0 -6.92211e-05)
(0.0445748 0 -7.67864e-05)
(0.0465664 0 -8.85105e-05)
(0.048488 0 -0.000105903)
(0.0503597 0 -0.000130761)
(0.052198 0 -0.000165154)
(0.0540151 0 -0.000211455)
(0.055819 0 -0.000272355)
(0.0576123 0 -0.000350901)
(0.0593929 0 -0.000450536)
(0.0611493 0 -0.000574812)
(0.0628608 0 -0.000726625)
(0.064504 0 -0.000909702)
(0.0660493 0 -0.00112755)
(0.0674628 0 -0.00138318)
(0.0687089 0 -0.00167885)
(0.0697525 0 -0.00201539)
(0.0705623 0 -0.00239085)
(0.0711138 0 -0.00279796)
(0.00306253 0 -8.77298e-06)
(0.00884435 0 -2.5258e-05)
(0.0140014 0 -3.97711e-05)
(0.0186134 0 -5.25034e-05)
(0.0227521 0 -6.37009e-05)
(0.0264805 0 -7.3665e-05)
(0.0298538 0 -8.27654e-05)
(0.0329216 0 -9.14559e-05)
(0.0357279 0 -0.00010027)
(0.0383121 0 -0.000109957)
(0.0407105 0 -0.000121138)
(0.042955 0 -0.000134827)