/*--------------------------------*- C++ -*----------------------------------*\
| =========                 |                                                 |
| \\      /  F ield         | OpenFOAM: The Open Source CFD Toolbox           |
|  \\    /   O peration     | Version:  dev                                   |
|   \\  /    A nd           | Web:      www.OpenFOAM.org                      |
|    \\/     M anipulation  |                                                 |
\*---------------------------------------------------------------------------*/
FoamFile
{
    version     2.0;
    format      ascii;
    class       surfaceScalarField;
    location    "4.21";
    object      phi;
}
// * * * * * * * * * * * * * * * * * * * * * * * * * * * * * * * * * * * * * //

dimensions      [0 3 -1 0 0 0 0];

internalField   nonuniform List<scalar> 
5457
(
0.198357
0.00163772
0.196426
0.00192747
0.194172
0.00225104
0.191557
0.00261377
0.188579
0.0029784
0.185239
0.00334165
0.181531
0.00371136
0.177439
0.00409465
0.172947
0.00449652
0.16803
0.00492091
0.162662
0.00537129
0.156814
0.00585069
0.150454
0.00636151
0.143549
0.00690523
0.136067
0.00748203
0.127975
0.00809017
0.119247
0.00872529
0.109865
0.00937944
0.0998218
0.0100401
0.0891296
0.010689
0.0778254
0.0113009
0.0659791
0.0118431
0.0537022
0.0122741
0.0411553
0.0125447
0.0285515
0.0126022
0.0161193
0.0124311
0.00380622
0.0123124
-0.00385697
0.00766283
-0.00562753
0.00177042
-0.00562757
0.199955
0.00167761
0.19923
0.00264844
0.198079
0.00339896
0.196534
0.00415784
0.194591
0.00492177
0.192248
0.00568643
0.189498
0.00646393
0.186329
0.00726746
0.182722
0.00810711
0.178656
0.00899106
0.174104
0.00992655
0.169037
0.01092
0.163424
0.0119767
0.157229
0.0131003
0.150419
0.0142918
0.142959
0.0155488
0.134818
0.0168638
0.125973
0.0182221
0.11641
0.0196
0.106133
0.0209623
0.0951713
0.0222593
0.0835865
0.0234246
0.0714855
0.0243723
0.0590341
0.0249937
0.0464846
0.02515
0.0342784
0.0246361
0.0235994
0.0229907
0.0129517
0.0183102
0.00332763
0.0113943
-0.00229997
0.199806
0.00186658
0.199141
0.00330926
0.198057
0.00447958
0.196606
0.00560773
0.194793
0.00673514
0.192615
0.00786603
0.190067
0.00901489
0.187139
0.0101992
0.183817
0.0114335
0.180081
0.0127303
0.175911
0.0141005
0.17128
0.0155538
0.166159
0.0170989
0.160518
0.018742
0.154323
0.0204863
0.14754
0.0223306
0.140135
0.0242666
0.132078
0.0262767
0.123344
0.0283305
0.113922
0.0303812
0.103817
0.0323605
0.0930641
0.0341744
0.081736
0.0356976
0.0699631
0.0367644
0.0579591
0.0371524
0.0460525
0.0365416
0.0346185
0.034424
0.0231163
0.029812
0.0121405
0.02237
0.00984048
0.199721
0.00214003
0.199056
0.00396962
0.197991
0.00554239
0.196562
0.00703548
0.194782
0.00851517
0.192651
0.00999895
0.190164
0.0115044
0.187315
0.0130519
0.184093
0.0146597
0.180484
0.0163436
0.17647
0.0181174
0.172033
0.0199937
0.16715
0.0219836
0.161797
0.0240958
0.155947
0.0263356
0.149573
0.0287035
0.142645
0.0311923
0.135134
0.0337845
0.127014
0.0364477
0.118262
0.0391298
0.108866
0.0417529
0.098831
0.0442066
0.0881853
0.0463405
0.0769933
0.0479541
0.0653599
0.0487841
0.0534137
0.0484866
0.0412306
0.0466064
0.0285806
0.0424616
0.0152111
0.0357393
0.0250516
0.199681
0.00245386
0.199007
0.00463857
0.197958
0.006589
0.196553
0.00843886
0.194806
0.010262
0.192719
0.0120882
0.190287
0.0139396
0.187503
0.0158389
0.18436
0.0178073
0.180844
0.0198632
0.176942
0.0220229
0.172638
0.024301
0.167913
0.0267104
0.162748
0.0292614
0.157122
0.0319612
0.151013
0.0348117
0.144396
0.0378073
0.137245
0.040932
0.129535
0.0441546
0.121238
0.0474236
0.112328
0.0506594
0.102784
0.0537475
0.0925924
0.0565293
0.0817502
0.0587939
0.0702624
0.0602702
0.0581259
0.0606219
0.0452885
0.059443
0.0315349
0.0562148
0.0165437
0.0507303
0.0415952
0.199662
0.00278599
0.198985
0.00531108
0.197955
0.00761607
0.196582
0.00981049
0.194877
0.0119673
0.192841
0.0141254
0.190472
0.0163116
0.187763
0.0185514
0.184706
0.0208684
0.18129
0.0232833
0.177502
0.0258145
0.173327
0.0284785
0.16875
0.0312896
0.163753
0.0342598
0.158316
0.0373975
0.15242
0.0407063
0.146043
0.0441826
0.139159
0.047813
0.131741
0.0515696
0.123756
0.0554052
0.115167
0.0592456
0.10593
0.0629815
0.0959954
0.0664605
0.0853086
0.0694784
0.0738041
0.0717731
0.0614006
0.0730242
0.0479821
0.0728609
0.0333564
0.0708401
0.0173318
0.0667547
0.058927
0.199656
0.00312412
0.198983
0.00597928
0.197976
0.0086195
0.196641
0.0111442
0.194985
0.0136234
0.193011
0.0161014
0.190715
0.0186102
0.188092
0.0211778
0.185135
0.0238301
0.181832
0.0265901
0.178172
0.0294782
0.174141
0.0325127
0.169723
0.0357097
0.164901
0.0390827
0.159657
0.042642
0.153969
0.0463932
0.147814
0.0503356
0.141165
0.0544593
0.133989
0.0587422
0.126247
0.0631445
0.117888
0.0676017
0.108849
0.072017
0.0990521
0.0762543
0.0884016
0.0801265
0.0767849
0.083388
0.0640741
0.0857338
0.0501265
0.0868077
0.0347882
0.086178
0.0179905
0.0835522
0.0769175
0.199657
0.00346071
0.198996
0.0066359
0.198017
0.00959449
0.196726
0.0124341
0.195127
0.0152225
0.193222
0.0180074
0.19101
0.020825
0.188485
0.0237062
0.185641
0.026679
0.182466
0.0297687
0.17895
0.0329977
0.17508
0.0363862
0.17084
0.0399523
0.166212
0.0437117
0.161177
0.047677
0.155712
0.051857
0.149792
0.0562546
0.143383
0.0608657
0.136446
0.0656755
0.128933
0.0706553
0.120778
0.0757531
0.111902
0.0808891
0.1022
0.0859536
0.0915415
0.0907828
0.0797771
0.0951507
0.0667447
0.098765
0.0522866
0.101265
0.0362738
0.10219
0.0187205
0.101105
0.0956379
0.199664
0.00379078
0.19902
0.0072748
0.198074
0.010536
0.196832
0.0136747
0.195297
0.0167575
0.193471
0.0198349
0.191353
0.0229462
0.188937
0.0261253
0.186218
0.0294023
0.183186
0.0328046
0.179831
0.0363566
0.17614
0.0400807
0.172097
0.0439973
0.167686
0.0481246
0.162884
0.0524785
0.157669
0.0570716
0.15201
0.0619122
0.14587
0.0670038
0.139202
0.0723405
0.131947
0.0779069
0.124027
0.0836706
0.115338
0.0895747
0.105752
0.0955365
0.0951103
0.101422
0.0832224
0.107037
0.0698829
0.112103
0.0549069
0.11624
0.0381613
0.118936
0.0197064
0.11956
0.115344
0.199673
0.00411074
0.199052
0.0078909
0.198145
0.011439
0.196958
0.0148603
0.195493
0.018222
0.193753
0.0215759
0.191738
0.0249647
0.189442
0.0284246
0.18686
0.0319879
0.183985
0.0356838
0.180807
0.0395391
0.177313
0.0435781
0.173489
0.0478239
0.169318
0.0522975
0.164778
0.0570188
0.159844
0.0620052
0.154484
0.0672703
0.148659
0.0728271
0.142314
0.0786827
0.135382
0.0848363
0.127767
0.091282
0.119344
0.0979945
0.109962
0.104916
0.0994285
0.111953
0.0875054
0.118958
0.0739233
0.125684
0.0584259
0.131737
0.0408272
0.136534
0.021185
0.139202
0.136529
0.199686
0.00441791
0.199091
0.00847996
0.198227
0.0122988
0.1971
0.015986
0.195712
0.0196096
0.194066
0.0232232
0.192161
0.0268719
0.189995
0.0305941
0.187563
0.0344241
0.184858
0.0383932
0.181871
0.0425298
0.178592
0.0468607
0.175008
0.0514112
0.171101
0.056206
0.166852
0.0612688
0.162236
0.0666208
0.157222
0.0722831
0.151768
0.0782795
0.145815
0.0846332
0.139286
0.0913627
0.132079
0.0984857
0.124058
0.106013
0.115041
0.11393
0.104791
0.122201
0.0930117
0.130735
0.0793413
0.139353
0.063385
0.147692
0.0448017
0.155117
0.0235364
0.160467
0.160066
0.199701
0.00471017
0.199136
0.00903844
0.198319
0.0131114
0.197256
0.0170469
0.19595
0.0209147
0.194405
0.0247701
0.192619
0.0286599
0.190592
0.0326247
0.18832
0.0367006
0.185797
0.0409204
0.183016
0.0453145
0.179969
0.0499115
0.176644
0.0547394
0.173026
0.0598256
0.169098
0.0651975
0.16484
0.0708795
0.160219
0.0769035
0.155191
0.0833051
0.149703
0.0901197
0.143676
0.0973871
0.137008
0.10515
0.12956
0.113457
0.121133
0.122355
0.11145
0.131882
0.10014
0.142043
0.0867122
0.15278
0.0705527
0.163851
0.0509726
0.174697
0.0275197
0.18392
0.187585
0.199717
0.00498583
0.199185
0.00956336
0.198419
0.013873
0.197425
0.0180387
0.196207
0.0221324
0.194767
0.0262106
0.193108
0.0303218
0.191228
0.0345084
0.189124
0.0388079
0.186794
0.0432546
0.184233
0.0478802
0.181433
0.0527153
0.178386
0.0577896
0.17508
0.0631333
0.171504
0.068775
0.167638
0.0747465
0.163452
0.0810891
0.15891
0.0878454
0.153966
0.0950622
0.148552
0.102799
0.142575
0.111125
0.135901
0.120128
0.128337
0.129916
0.119602
0.140614
0.109271
0.152372
0.0967292
0.165321
0.0810662
0.179513
0.060958
0.194804
0.0348619
0.210016
0.222447
0.199734
0.0052435
0.199239
0.0100522
0.198527
0.0145804
0.197605
0.0189578
0.196478
0.0232582
0.19515
0.0275395
0.193623
0.0318516
0.191897
0.0362381
0.189971
0.0407378
0.187844
0.045386
0.185513
0.0502156
0.182973
0.0552583
0.180221
0.0605452
0.177249
0.0661078
0.174049
0.0719767
0.170604
0.0781917
0.166895
0.0847981
0.162898
0.0918417
0.158577
0.0993811
0.153884
0.10749
0.148747
0.11626
0.143063
0.12581
0.136676
0.136299
0.12935
0.147939
0.120702
0.161018
0.110108
0.175914
0.0964639
0.193157
0.0777122
0.213556
0.0499272
0.237801
0.272374
0.199753
0.00548215
0.199295
0.0105031
0.198639
0.015231
0.197793
0.019801
0.196762
0.0242885
0.19555
0.0287527
0.194159
0.0332444
0.192592
0.0378082
0.19085
0.0424838
0.188933
0.0473071
0.186841
0.0523118
0.184573
0.05753
0.182129
0.0629935
0.179505
0.0687338
0.176698
0.0747857
0.173699
0.0811917
0.170501
0.0879961
0.167094
0.0952488
0.163459
0.103014
0.159573
0.111373
0.155402
0.120428
0.150895
0.130315
0.145975
0.141217
0.140522
0.15339
0.134337
0.167202
0.12705
0.1832
0.117907
0.202298
0.105082
0.22638
0.0827114
0.260172
0.355086
0.0047088
-0.00470887
0.00937484
-0.00466635
0.0134315
-0.00405748
0.01682
-0.0033901
0.0195855
-0.00276808
0.021775
-0.00219331
0.0234239
-0.00165386
0.0245613
-0.0011435
0.0252203
-0.000666023
0.0254525
-0.000239295
0.0253378
0.000108163
0.0249805
0.000351279
0.0244922
0.000482873
0.0239741
0.000513636
0.0235029
0.000467835
0.0231271
0.000373754
0.0228715
0.000254867
0.0227435
0.000128801
0.022738
7.79652e-06
0.0228421
-0.000100427
0.0230399
-0.000192748
0.0233175
-0.000271382
0.0236654
-0.000340559
0.0240746
-0.000400816
0.024532
-0.000448122
0.0250219
-0.000479852
0.0255362
-0.000503526
0.0260848
-0.000537071
0.026678
-0.000580847
-0.000548703
0.00424144
-0.00895038
0.00849118
-0.00891639
0.0122826
-0.00784974
0.0155459
-0.006655
0.0183318
-0.00555656
0.0206933
-0.0045586
0.0226678
-0.00363333
0.0242823
-0.00276419
0.0255558
-0.00194648
0.0264986
-0.00118935
0.0271177
-0.000517513
0.02745
1.29963e-05
0.0275898
0.000337608
0.0276449
0.000454118
0.0276917
0.00041761
0.0277773
0.000286008
0.0279249
0.000106615
0.0281374
-8.29394e-05
0.0284018
-0.000254336
0.028695
-0.000389926
0.0289919
-0.000484697
0.0292744
-0.000547578
0.0295346
-0.000593439
0.0297733
-0.000631071
0.0299926
-0.000658251
0.0301914
-0.000668647
0.0303653
-0.000666546
0.0305208
-0.00068106
0.0306987
-0.000746476
-0.00077916
0.00354467
-0.0124951
0.00700567
-0.0123777
0.010058
-0.0109029
0.0127078
-0.00930635
0.0150131
-0.00786456
0.0170188
-0.00656808
0.0187549
-0.00537443
0.0202428
-0.00425812
0.0214991
-0.00320979
0.0225394
-0.00223695
0.0233861
-0.00137078
0.0240526
-0.000659587
0.024549
-0.000164237
0.0249225
7.60831e-05
0.0252347
0.000101895
0.0255173
1.21139e-06
0.0257775
-0.000154355
0.0260115
-0.000316181
0.0262077
-0.000448323
0.0263474
-0.000526032
0.0264105
-0.000542887
0.0263831
-0.000513984
0.0262646
-0.000467613
0.0260696
-0.000427782
0.0258209
-0.000400318
0.0255414
-0.000379126
0.0252512
-0.000365607
0.0249774
-0.000395756
0.0247866
-0.000543435
-0.000807701
0.00283369
-0.0153289
0.00542406
-0.0149684
0.00762405
-0.0131037
0.00953521
-0.0112191
0.0112224
-0.00955433
0.012722
-0.00807152
0.0140602
-0.00671757
0.0152543
-0.00545832
0.0163159
-0.00427837
0.017251
-0.00317927
0.0180674
-0.00219379
0.0187749
-0.00137315
0.0193674
-0.000762342
0.0198266
-0.000387733
0.0201508
-0.00022593
0.0203489
-0.000199184
0.0204166
-0.000222969
0.0203443
-0.000243251
0.0201344
-0.000236405
0.0198117
-0.000199863
0.0194186
-0.000144958
0.0190029
-9.21248e-05
0.0186067
-6.42462e-05
0.0182631
-7.59209e-05
0.0179943
-0.000122472
0.0178002
-0.000175105
0.0176405
-0.000195166
0.0174721
-0.000215853
0.0173102
-0.000369353
-0.000823006
0.00206898
-0.017398
0.00374736
-0.0166471
0.00505781
-0.014415
0.00617574
-0.0123387
0.00715804
-0.0105392
0.00803788
-0.0089551
0.00884135
-0.00752595
0.00958619
-0.00620916
0.0102886
-0.00498767
0.0109524
-0.00385035
0.0115486
-0.00279661
0.0120398
-0.00187049
0.0124088
-0.00113695
0.01265
-0.000633708
0.0127601
-0.00033983
0.012748
-0.000189493
0.012637
-0.000113027
0.0124587
-6.45558e-05
0.012246
-2.1911e-05
0.0120271
2.24296e-05
0.0118196
6.71636e-05
0.0116294
0.000104061
0.011451
0.000121233
0.0112725
0.000110617
0.011082
7.7087e-05
0.0108743
4.24398e-05
0.0106571
3.26129e-05
0.0104082
4.44537e-05
0.0101104
-5.92533e-05
-0.000631455
0.00125928
-0.0186573
0.00200506
-0.0173931
0.00243862
-0.0148494
0.00275203
-0.0126537
0.00298436
-0.0107741
0.00316814
-0.00914257
0.00333045
-0.0076931
0.00348434
-0.00636898
0.00364251
-0.00515271
0.00383342
-0.00404841
0.00407442
-0.00304431
0.00435487
-0.00215716
0.00464197
-0.00142977
0.00489389
-0.000890564
0.00508245
-0.000532277
0.00520344
-0.000313147
0.0052698
-0.000180658
0.00529755
-9.21123e-05
0.00529753
-2.02242e-05
0.00527305
5.00302e-05
0.00522078
0.000123931
0.00513269
0.000197911
0.00499848
0.000262352
0.00480885
0.000308201
0.0045587
0.000336115
0.00424911
0.000361766
0.00388927
0.000403013
0.0035129
0.000432172
0.00317246
0.00029338
-0.000247528
0.000403806
-0.0190612
0.000219696
-0.0172093
-0.000174356
-0.0144562
-0.00064092
-0.0121887
-0.00113857
-0.010279
-0.00162028
-0.0086645
-0.00204833
-0.0072698
-0.0023743
-0.00604886
-0.00256507
-0.00496873
-0.00262146
-0.00399912
-0.00254795
-0.00312454
-0.00235729
-0.00235411
-0.00208547
-0.00170742
-0.00178225
-0.00119887
-0.00149354
-0.000825058
-0.00124769
-0.000561851
-0.00105585
-0.000373989
-0.000920827
-0.000227175
-0.000844362
-9.52452e-05
-0.000828846
3.74128e-05
-0.000876269
0.000175635
-0.00098752
0.000314724
-0.00116278
0.000444347
-0.00140229
0.000555487
-0.00170635
0.000648917
-0.00207369
0.000738728
-0.00249476
0.00083454
-0.00293364
0.000882337
-0.00333756
0.000709441
0.000265608
-0.000505886
-0.0185554
-0.00157166
-0.0161439
-0.00275565
-0.013273
-0.00394705
-0.0109989
-0.00506852
-0.00916008
-0.0060598
-0.00767679
-0.00686763
-0.00646666
-0.00746532
-0.00545691
-0.00785888
-0.00458184
-0.00806438
-0.00380065
-0.00809812
-0.00309753
-0.00798765
-0.00247094
-0.00777382
-0.0019272
-0.00750642
-0.00147149
-0.00723431
-0.00110142
-0.00699454
-0.000804692
-0.0068088
-0.000561447
-0.00668692
-0.000349322
-0.00663252
-0.000148443
-0.00664648
5.40341e-05
-0.00672837
0.000261577
-0.00687767
0.000469369
-0.00709495
0.000668158
-0.00738201
0.000850151
-0.00773989
0.00101538
-0.00816441
0.00117273
-0.0086405
0.00132098
-0.00914334
0.00139638
-0.00967606
0.00125425
0.000915824
-0.00143885
-0.0171166
-0.00337451
-0.0142085
-0.00534538
-0.0113029
-0.00721675
-0.00912905
-0.00886185
-0.00751746
-0.0102198
-0.00632239
-0.0112787
-0.00541235
-0.0120645
-0.00467672
-0.0126053
-0.0040476
-0.0129293
-0.00348356
-0.0130684
-0.00296515
-0.0130591
-0.00248666
-0.0129441
-0.00204825
-0.0127704
-0.00165054
-0.0125829
-0.00129334
-0.0124162
-0.000974696
-0.0122915
-0.000688069
-0.0122198
-0.000421484
-0.0122069
-0.000160404
-0.0122569
0.000106428
-0.0123741
0.000382572
-0.0125633
0.000663753
-0.0128297
0.000940848
-0.0131769
0.00120474
-0.0136039
0.00145085
-0.0141004
0.00167857
-0.0146433
0.00187408
-0.0152074
0.00197161
-0.015804
0.00186291
0.00162276
-0.00244928
-0.0146674
-0.00535493
-0.0113032
-0.00816325
-0.00849544
-0.0106446
-0.0066493
-0.0126988
-0.00546569
-0.0143321
-0.00469251
-0.0155928
-0.00415619
-0.0165272
-0.00374784
-0.0171849
-0.00339637
-0.0176132
-0.00306211
-0.0178551
-0.00272991
-0.0179504
-0.00239786
-0.0179393
-0.0020654
-0.0178645
-0.00173081
-0.0177663
-0.00139619
-0.0176758
-0.00106859
-0.0176131
-0.000752952
-0.0175902
-0.000445043
-0.0176173
-0.000132576
-0.0177049
0.000196215
-0.0178638
0.00054499
-0.0181027
0.000907577
-0.0184266
0.0012708
-0.0188343
0.00161972
-0.0193173
0.00194202
-0.0198573
0.00222778
-0.0204288
0.00245574
-0.0210144
0.00256824
-0.0216365
0.00249694
0.00234548
-0.00363215
-0.0110353
-0.00774147
-0.00719419
-0.0113996
-0.00483819
-0.014411
-0.00363939
-0.0168037
-0.0030755
-0.0186549
-0.00284474
-0.0200547
-0.00276083
-0.0210877
-0.00272029
-0.0218263
-0.00266404
-0.0223325
-0.00256271
-0.0226561
-0.00241302
-0.0228357
-0.00222469
-0.0229069
-0.00200036
-0.022909
-0.00173425
-0.0228818
-0.001428
-0.0228563
-0.00109767
-0.022851
-0.000760635
-0.0228779
-0.000419053
-0.0229502
-5.97951e-05
-0.0230835
0.000331516
-0.0232928
0.00075765
-0.0235874
0.00120684
-0.0239686
0.00165784
-0.0244293
0.00208742
-0.024955
0.00247573
-0.0255248
0.00280669
-0.0261161
0.00305699
-0.0267182
0.00318135
-0.0273554
0.003146
0.00306799
-0.00520846
-0.00582696
-0.0107989
-0.00160409
-0.0152951
-0.000342831
-0.0187645
-0.000171626
-0.0213781
-0.00046427
-0.0233254
-0.000900873
-0.0247684
-0.00132226
-0.0258272
-0.00166691
-0.0265883
-0.00190915
-0.027123
-0.00203465
-0.0274867
-0.00205596
-0.027713
-0.0020048
-0.027828
-0.00189148
-0.0278688
-0.00169907
-0.0278797
-0.00142188
-0.0278935
-0.00108759
-0.0279252
-0.00073137
-0.0279834
-0.000361979
-0.028082
3.91078e-05
-0.0282418
0.000493063
-0.0284822
0.00100121
-0.0288131
0.00154214
-0.0292326
0.00208298
-0.0297289
0.00259059
-0.0302837
0.00303832
-0.0308748
0.00340669
-0.0314821
0.00367422
-0.0320986
0.0038087
-0.0327434
0.0038026
0.0037746
-0.00844418
0.00261713
-0.0157092
0.00566056
-0.0207764
0.00472346
-0.024243
0.00329337
-0.0266558
0.00194605
-0.0283716
0.000811453
-0.0296516
-4.65866e-05
-0.0306162
-0.000707608
-0.031311
-0.00122054
-0.0317993
-0.00155297
-0.0321439
-0.00171782
-0.0323684
-0.00178666
-0.0324786
-0.00178742
-0.0325082
-0.00167507
-0.032514
-0.00142081
-0.0325349
-0.0010705
-0.0325784
-0.000690447
-0.0326436
-0.000298032
-0.032744
0.000139693
-0.0329079
0.000658521
-0.0331614
0.00125763
-0.0335156
0.00190047
-0.033965
0.0025378
-0.0344927
0.00312492
-0.0350758
0.00362915
-0.0356908
0.0040304
-0.0363192
0.00431236
-0.0369549
0.00445512
-0.0376091
0.0044686
0.00446933
-0.0120415
0.0146585
-0.0210518
0.0146704
-0.0265068
0.0101775
-0.0297342
0.00651903
-0.0319004
0.00410977
-0.0333552
0.00226279
-0.0343809
0.000974721
-0.03515
5.62007e-05
-0.0356903
-0.000686335
-0.0360502
-0.00119953
-0.0363194
-0.00145505
-0.0365079
-0.00160435
-0.0365748
-0.00172661
-0.0365449
-0.00171053
-0.0365068
-0.00146363
-0.0365146
-0.00106651
-0.0365588
-0.000648843
-0.0366186
-0.000239574
-0.0367056
0.000226625
-0.0368605
0.000814806
-0.0371206
0.00152044
-0.0374979
0.0022818
-0.0379814
0.00302651
-0.0385469
0.00369691
-0.0391662
0.00425594
-0.0398133
0.00468606
-0.0404711
0.0049798
-0.041134
0.00512871
-0.0418047
0.00515104
0.00516757
-0.0168865
0.0315447
-0.0287741
0.0265576
-0.0341386
0.0155409
-0.0354749
0.00785356
-0.0368773
0.00550961
-0.0378887
0.00327076
-0.0384974
0.00157905
-0.0390569
0.000610416
-0.0394067
-0.000342625
-0.039553
-0.00105963
-0.0396992
-0.00131503
-0.0398556
-0.00145414
-0.0398636
-0.00172447
-0.0397239
-0.0018557
-0.0396042
-0.00158803
-0.039595
-0.00107948
-0.0396478
-0.000598693
-0.0397007
-0.000188003
-0.0397625
0.000288262
-0.0398985
0.000952006
-0.0401649
0.00178946
-0.0405733
0.00269404
-0.0411024
0.00356058
-0.0417177
0.0043185
-0.0423841
0.0049297
-0.043073
0.00538332
-0.0437689
0.00568523
-0.0444685
0.00583885
-0.045167
0.00586127
0.00587708
0.207424
0.00570841
0.206991
0.0109291
0.206372
0.0158437
0.205577
0.0205925
0.204612
0.0252527
0.203481
0.0298842
0.202189
0.0345386
0.200739
0.0392612
0.199135
0.044092
0.197379
0.0490673
0.195475
0.0542206
0.193425
0.0595842
0.191232
0.0651896
0.1889
0.0710689
0.18643
0.077258
0.183826
0.0837972
0.181093
0.0907294
0.178236
0.0981055
0.175261
0.105989
0.172177
0.114457
0.168995
0.123608
0.165735
0.133572
0.16243
0.144519
0.159138
0.156679
0.155968
0.170371
0.153123
0.186044
0.151057
0.204363
0.151249
0.226188
0.162217
0.249205
0.26504
0.252263
0.212465
0.00591678
0.212066
0.0113195
0.2115
0.0164035
0.210776
0.0213132
0.2099
0.0261274
0.208878
0.0309066
0.207716
0.0357028
0.206419
0.0405614
0.204992
0.0455223
0.203442
0.0506217
0.201775
0.0558925
0.199997
0.0613662
0.198117
0.0670736
0.196143
0.0730461
0.194087
0.0793172
0.191962
0.0859234
0.189788
0.0929047
0.187586
0.100307
0.185388
0.108186
0.183237
0.116607
0.181193
0.125651
0.179347
0.135416
0.17784
0.146024
0.1769
0.157617
0.176916
0.170353
0.178612
0.184347
0.18346
0.199515
0.19431
0.215338
0.212663
0.230852
0.247264
0.230439
0.217629
0.00610491
0.21727
0.0116699
0.216763
0.0169039
0.216117
0.021955
0.21534
0.0269027
0.214438
0.0318082
0.213419
0.0367234
0.21229
0.0416934
0.211059
0.0467576
0.209734
0.0519513
0.208324
0.0573063
0.206843
0.0628526
0.205301
0.0686191
0.203716
0.0746347
0.202107
0.0809292
0.200498
0.087534
0.198922
0.0944825
0.197417
0.101812
0.196038
0.109565
0.194856
0.117788
0.193973
0.126533
0.193528
0.135858
0.193731
0.14582
0.194885
0.156462
0.19745
0.167786
0.202095
0.179702
0.209639
0.19197
0.220732
0.204245
0.234883
0.2167
0.227767
0.25438
0.22292
0.00627056
0.222605
0.0119762
0.222163
0.017339
0.221603
0.02251
0.220933
0.0275696
0.220163
0.0325783
0.2193
0.037588
0.218353
0.0426432
0.217332
0.0477821
0.216249
0.0530387
0.215117
0.058443
0.213952
0.0640228
0.212771
0.069804
0.211597
0.0758118
0.210459
0.0820709
0.209389
0.0886059
0.208432
0.0954419
0.20764
0.102605
0.207085
0.11012
0.20686
0.118013
0.207088
0.126305
0.20793
0.135014
0.209609
0.144139
0.212422
0.153647
0.216751
0.163456
0.223031
0.173421
0.231678
0.183323
0.243126
0.192797
0.25823
0.201596
0.207834
0.278162
0.228341
0.00641154
0.228073
0.0122343
0.227702
0.0177031
0.227235
0.0229712
0.226683
0.028119
0.226053
0.0332067
0.225357
0.0382852
0.224605
0.0433978
0.223809
0.0485817
0.222984
0.0538686
0.222145
0.0592864
0.221312
0.0648599
0.220509
0.0706113
0.219764
0.0765611
0.219111
0.0827277
0.218591
0.0891283
0.218257
0.0957781
0.218172
0.10269
0.218419
0.109874
0.219098
0.117333
0.220339
0.125064
0.222305
0.133048
0.225203
0.14124
0.229286
0.149563
0.234838
0.157903
0.242164
0.166094
0.251584
0.173902
0.263442
0.180939
0.278149
0.186888
0.190769
0.295215
0.233894
0.00652583
0.233678
0.0124404
0.233382
0.017991
0.233016
0.0233318
0.232588
0.0285431
0.232109
0.0336842
0.23159
0.0388046
0.231044
0.0439462
0.230485
0.0491443
0.229929
0.0544284
0.229396
0.0598237
0.228909
0.0653514
0.228495
0.0710297
0.228187
0.0768734
0.228024
0.0828946
0.228053
0.0891022
0.228331
0.0955018
0.228929
0.102094
0.229931
0.108873
0.231438
0.115827
0.233575
0.122927
0.236494
0.130128
0.240372
0.137361
0.245401
0.144533
0.251787
0.151516
0.259742
0.158139
0.269457
0.164185
0.281037
0.169359
0.294512
0.173413
0.175777
0.309502
0.239583
0.0066115
0.239422
0.0125911
0.239207
0.0181976
0.238946
0.0235857
0.238651
0.0288347
0.23833
0.0340026
0.237998
0.0391374
0.237666
0.044279
0.237353
0.0494606
0.237076
0.0547089
0.236858
0.0600461
0.236724
0.0654899
0.236704
0.071054
0.236835
0.0767476
0.237157
0.0825757
0.237723
0.08854
0.23859
0.0946368
0.23983
0.100856
0.241525
0.10718
0.243771
0.113582
0.246681
0.120018
0.250384
0.126425
0.255015
0.132729
0.260715
0.138833
0.267623
0.144608
0.275861
0.149901
0.285509
0.154537
0.296563
0.158305
0.308965
0.16101
0.162255
0.322487
0.245411
0.00666686
0.245307
0.0126832
0.245177
0.0183189
0.245028
0.0237278
0.24487
0.0289878
0.244715
0.0341553
0.244576
0.0392765
0.244467
0.0443891
0.244406
0.0495236
0.244414
0.0547041
0.244515
0.0599491
0.244736
0.0652731
0.245109
0.0706857
0.245671
0.0761895
0.246467
0.0817837
0.247547
0.0874636
0.248969
0.0932175
0.250801
0.0990267
0.253119
0.104864
0.256009
0.110693
0.259567
0.116461
0.263891
0.122101
0.26908
0.12754
0.275233
0.13268
0.282431
0.137409
0.290732
0.1416
0.300153
0.145115
0.310652
0.147805
0.322132
0.149529
0.150007
0.33438
0.25138
0.00669044
0.251337
0.0127143
0.251295
0.0183513
0.251261
0.0237536
0.251247
0.0289975
0.251262
0.0341373
0.25132
0.0392169
0.251438
0.0442717
0.251634
0.0493295
0.25193
0.0544115
0.25235
0.0595328
0.252922
0.0647044
0.253681
0.0699312
0.254664
0.0752109
0.255913
0.080538
0.257479
0.0859021
0.259414
0.091285
0.261781
0.0966621
0.264648
0.102
0.268086
0.107256
0.27217
0.112378
0.276972
0.1173
0.282562
0.12195
0.289001
0.126242
0.296329
0.130081
0.304561
0.133367
0.313679
0.135996
0.323616
0.137868
0.334256
0.13889
0.138858
0.345403
0.257494
0.00668103
0.257513
0.0126822
0.257562
0.0182921
0.257648
0.0236601
0.257779
0.0288604
0.257968
0.0339451
0.258228
0.0389555
0.258575
0.0439245
0.259028
0.0488772
0.25961
0.0538319
0.260346
0.0588007
0.261263
0.0637905
0.262396
0.0688019
0.263781
0.0738298
0.265459
0.0788645
0.267474
0.0838908
0.269876
0.0888864
0.272718
0.0938228
0.276056
0.098664
0.279948
0.103366
0.28445
0.107878
0.289612
0.11214
0.295477
0.116085
0.302078
0.119642
0.309425
0.122734
0.317507
0.125286
0.326281
0.127222
0.335671
0.128478
0.345562
0.128999
0.128631
0.355788
0.263756
0.00663766
0.263839
0.0125854
0.263981
0.0181391
0.264187
0.0234449
0.264467
0.0285744
0.264831
0.0335768
0.265294
0.0384912
0.26587
0.0433476
0.266579
0.0481686
0.267444
0.0529695
0.268488
0.0577595
0.269739
0.0625421
0.27123
0.0673149
0.272993
0.07207
0.275067
0.0767943
0.277492
0.0814697
0.28031
0.0860717
0.283565
0.0905703
0.287302
0.0949291
0.291565
0.0991059
0.296392
0.103053
0.301815
0.106718
0.307857
0.110044
0.314528
0.112972
0.321818
0.115444
0.3297
0.117404
0.33812
0.118802
0.346999
0.119598
0.356235
0.119763
0.119178
0.365688
0.270169
0.00655961
0.270317
0.0124227
0.270553
0.0178912
0.270882
0.023107
0.271311
0.0281385
0.27185
0.0330325
0.272514
0.0378249
0.273317
0.0425436
0.274277
0.0472081
0.275416
0.0518315
0.276758
0.0564201
0.278328
0.0609748
0.280155
0.0654907
0.282271
0.0699579
0.284707
0.0743612
0.287499
0.0786807
0.290683
0.0828914
0.294292
0.0869635
0.298362
0.0908625
0.30292
0.0945495
0.307993
0.0979824
0.313597
0.101116
0.31974
0.103904
0.326414
0.1063
0.333598
0.108261
0.341255
0.109748
0.349328
0.110729
0.357742
0.111184
0.366406
0.111098
0.110381
0.375202
0.276737
0.00644652
0.27695
0.0121938
0.277281
0.0175481
0.277731
0.0226463
0.278309
0.0275536
0.279022
0.0323137
0.279883
0.0369599
0.280908
0.0415173
0.282112
0.0460032
0.283516
0.0504282
0.285141
0.0547964
0.287011
0.0591068
0.289152
0.0633525
0.291591
0.0675224
0.294354
0.0716002
0.297472
0.0755657
0.300972
0.0793944
0.30488
0.083058
0.30922
0.0865251
0.31401
0.0897615
0.319263
0.0927314
0.324985
0.0953971
0.331168
0.0977214
0.337799
0.0996703
0.344847
0.101213
0.35227
0.102325
0.360013
0.102987
0.368007
0.10319
0.376173
0.102932
0.10214
0.384413
0.283463
0.00629831
0.283742
0.0118988
0.284166
0.0171105
0.284737
0.0220642
0.28546
0.0268217
0.286344
0.0314238
0.287398
0.0359009
0.288637
0.0402757
0.290076
0.0445633
0.291732
0.0487722
0.293624
0.0529048
0.295774
0.0569583
0.298204
0.0609252
0.300935
0.0647934
0.303991
0.0685467
0.307394
0.0721654
0.311164
0.0756266
0.31532
0.0789045
0.319876
0.0819713
0.324842
0.0847977
0.330221
0.0873547
0.336008
0.0896119
0.342191
0.0915406
0.348746
0.0931167
0.35564
0.0943198
0.362831
0.0951346
0.370266
0.0955524
0.377883
0.0955722
0.385615
0.0951999
0.0943748
0.39338
0.29035
0.00611522
0.290693
0.0115386
0.29121
0.0165796
0.291899
0.0213628
0.292766
0.0259462
0.293815
0.0303675
0.295056
0.0346546
0.2965
0.0388277
0.298162
0.0428998
0.300055
0.0468778
0.302197
0.0507629
0.304605
0.0545512
0.307297
0.0582347
0.310291
0.0618012
0.313604
0.0652354
0.317253
0.0685187
0.321251
0.0716304
0.32561
0.0745479
0.330336
0.0772473
0.33543
0.0797047
0.34089
0.0818966
0.346705
0.0837995
0.352855
0.0853925
0.359313
0.0866593
0.366047
0.0875873
0.373013
0.0881689
0.380163
0.0884021
0.387444
0.0882912
0.394797
0.0878461
0.0870166
0.402155
0.297403
0.00589774
0.297809
0.0111143
0.298416
0.0159576
0.299221
0.0205453
0.300225
0.0249316
0.301433
0.029151
0.302853
0.0332288
0.304493
0.0371832
0.306365
0.0410254
0.30848
0.0447608
0.310853
0.0483897
0.313496
0.0519077
0.316425
0.0553068
0.319652
0.0585754
0.323189
0.0616992
0.327048
0.0646616
0.331235
0.0674444
0.335757
0.0700281
0.340612
0.0723931
0.345798
0.0745206
0.351304
0.0763919
0.357116
0.0779894
0.363211
0.079299
0.369561
0.0803105
0.376132
0.0810172
0.382884
0.0814168
0.389774
0.081512
0.396755
0.0813104
0.403777
0.0808238
0.0800101
0.410782
0.304625
0.00564662
0.305092
0.0106277
0.305786
0.0152472
0.306702
0.0196156
0.30784
0.0237831
0.3092
0.0277811
0.310789
0.0316326
0.312614
0.0353535
0.314682
0.0389536
0.317002
0.0424374
0.319586
0.0458043
0.322443
0.0490501
0.325583
0.0521668
0.329015
0.055144
0.332746
0.0579688
0.336782
0.0606267
0.341125
0.0631022
0.345774
0.0653793
0.350726
0.067442
0.355972
0.0692759
0.361498
0.0708673
0.367286
0.0722031
0.373312
0.0732745
0.379547
0.0740763
0.385958
0.0746059
0.39251
0.074865
0.399163
0.074859
0.405876
0.0745972
0.412606
0.0740924
0.0733089
0.419307
0.31202
0.00536282
0.312546
0.0100807
0.313324
0.0144517
0.314347
0.0185784
0.315611
0.0225069
0.317116
0.0262658
0.318865
0.0298756
0.320861
0.0333504
0.323112
0.0366988
0.325621
0.0399242
0.328397
0.0430259
0.331446
0.0459998
0.334773
0.0488386
0.338384
0.0515331
0.34228
0.0540719
0.346464
0.056443
0.350933
0.0586333
0.355683
0.06063
0.360704
0.0624207
0.365986
0.063995
0.371511
0.0653428
0.37726
0.0664553
0.383208
0.0673275
0.389327
0.0679578
0.395586
0.0683469
0.401952
0.0684987
0.40839
0.0684204
0.414865
0.0681222
0.421339
0.0676167
0.0668736
0.427774
0.319591
0.00504744
0.320175
0.00947594
0.321033
0.0135748
0.322157
0.0174387
0.323541
0.0211096
0.325182
0.0246134
0.327081
0.027968
0.329238
0.0311861
0.331656
0.0342749
0.334338
0.0372374
0.337288
0.0400728
0.340508
0.0427772
0.344
0.0453443
0.347766
0.0477661
0.351804
0.0500331
0.356111
0.0521352
0.360681
0.054062
0.365507
0.0558036
0.370577
0.0573507
0.375876
0.0586959
0.381387
0.0598327
0.387088
0.0607551
0.392954
0.0614614
0.39896
0.0619523
0.405076
0.0622308
0.411271
0.0623022
0.417516
0.0621747
0.423779
0.0618584
0.430029
0.0613655
0.0606701
0.436231
0.327344
0.0047017
0.327982
0.00881577
0.328917
0.0126203
0.330137
0.0162017
0.331634
0.0195981
0.333403
0.0228323
0.33544
0.02592
0.337746