/*--------------------------------*- C++ -*----------------------------------*\
| =========                 |                                                 |
| \\      /  F ield         | OpenFOAM: The Open Source CFD Toolbox           |
|  \\    /   O peration     | Version:  dev                                   |
|   \\  /    A nd           | Web:      www.OpenFOAM.org                      |
|    \\/     M anipulation  |                                                 |
\*---------------------------------------------------------------------------*/
FoamFile
{
    version     2.0;
    format      ascii;
    class       surfaceVectorField;
    location    "1.26";
    object      Uf;
}
// * * * * * * * * * * * * * * * * * * * * * * * * * * * * * * * * * * * * * //

dimensions      [0 1 -1 0 0 0 0];

internalField   nonuniform List<vector> 
865
(
(4.75245 0 0.259322)
(5.47809 3.80586e-19 0.426217)
(4.24238 0 0.290918)
(4.99534 0 0.474201)
(3.69741 0 0.326024)
(4.47568 -6.72461e-19 0.525669)
(3.11767 0 0.364803)
(3.91804 6.89546e-19 0.579899)
(2.50428 3.84051e-19 0.407247)
(3.32178 1.78972e-19 0.635577)
(1.85936 -2.27785e-21 0.452781)
(2.68635 1.96453e-19 0.690159)
(1.18684 -5.76841e-19 0.496099)
(2.01019 -1.96014e-19 0.737915)
(0.48894 -3.98257e-19 0.41154)
(1.27647 1.28851e-18 0.761845)
(0.588663 -1.66136e-18 0.55604)
(5.70982 3.75002e-19 0.66906)
(6.15796 -2.9303e-19 0.836325)
(5.21561 -6.81268e-19 0.745051)
(5.70726 -6.32183e-19 0.93572)
(4.6812 3.12908e-20 0.826505)
(5.21745 -1.33783e-18 1.0435)
(4.10469 8.62859e-19 0.91245)
(4.68552 2.202e-18 1.1588)
(3.484 -7.42711e-21 1.00108)
(4.10768 1.76108e-19 1.28001)
(2.81568 3.69517e-21 1.08906)
(3.47833 -3.32785e-21 1.40416)
(2.09153 1.66609e-18 1.17126)
(2.78779 -3.56208e-19 1.52556)
(1.27861 5.17538e-20 1.24617)
(1.99964 1.48013e-18 1.63779)
(1.2033 -1.38554e-18 1.7371)
(6.14593 -1.30409e-18 1.09215)
(6.47982 -1.11192e-18 1.20664)
(5.69833 -1.29924e-18 1.22222)
(6.07286 6.0507e-19 1.35513)
(5.20974 8.66229e-19 1.36315)
(5.62866 -3.05453e-18 1.51826)
(4.6754 1.49808e-18 1.51409)
(5.14246 2.65235e-18 1.696)
(4.08834 1.78307e-19 1.6738)
(4.60751 1.18736e-18 1.88796)
(3.43685 -3.61348e-19 1.84091)
(4.01359 -1.53539e-18 2.09386)
(2.69748 -5.45452e-19 2.01441)
(3.3439 -1.54161e-20 2.31519)
(1.83512 1.78893e-21 2.23742)
(2.57804 1.76517e-19 2.55056)
(1.63663 -3.04441e-18 2.92996)
(6.39847 8.17916e-19 1.46809)
(6.68076 -5.84228e-19 1.54399)
(5.99389 -1.18981e-18 1.64892)
(6.31122 1.08587e-18 1.73718)
(5.55111 -1.21649e-18 1.84803)
(5.90852 -1.44864e-18 1.95186)
(5.06359 2.32805e-18 2.06589)
(5.4672 -1.28069e-19 2.18946)
(4.52143 -5.19663e-19 2.30332)
(4.97932 3.80011e-18 2.4516)
(3.90931 -1.19788e-18 2.56327)
(4.43345 -3.99964e-18 2.7408)
(3.19831 6.96998e-19 2.8444)
(3.80658 -2.29443e-18 3.06556)
(2.39996 -2.96271e-18 3.20114)
(3.13386 2.77041e-18 3.39117)
(2.0798 -2.96662e-18 3.9839)
(6.58614 -2.93821e-19 1.81317)
(6.84388 -1.58086e-19 1.85634)
(6.21765 7.96573e-19 2.03973)
(6.50567 -1.49143e-20 2.08973)
(5.81555 -3.42796e-19 2.29219)
(6.13915 2.42648e-18 2.35124)
(5.37302 1.35941e-18 2.57287)
(5.73919 -3.72855e-18 2.64393)
(4.8801 3.42253e-19 2.88437)
(5.29818 5.09192e-18 2.97124)
(4.32346 -5.08322e-18 3.23196)
(4.80704 -2.28233e-18 3.3361)
(3.67067 -4.51253e-19 3.6073)
(4.23204 -2.7838e-18 3.75348)
(2.9754 2.4563e-18 4.0537)
(3.69167 2.57105e-18 4.12582)
(2.54801 0 4.87279)
(6.75669 1.19727e-19 2.13407)
(7.00127 -1.89494e-21 2.14837)
(6.41971 1.63243e-18 2.40188)
(6.69105 1.44023e-19 2.418)
(6.05448 -9.90562e-19 2.70259)
(6.35739 1.93098e-19 2.72169)
(5.65509 1.60408e-20 3.04004)
(5.99622 -2.45749e-18 3.06379)
(5.21273 2.49142e-18 3.41766)
(5.60089 2.40332e-18 3.449)
(4.71872 0 3.8403)
(5.16689 0 3.87805)
(4.13499 4.7281e-21 4.28887)
(4.64237 2.48384e-18 4.37459)
(3.53489 4.54594e-21 4.78229)
(4.24202 -6.8071e-18 4.76212)
(3.02447 1.02845e-17 5.61454)
(6.92942 2.41583e-20 2.43403)
(7.16514 7.70905e-20 2.42207)
(6.62184 -1.28956e-18 2.73898)
(6.88173 -2.17231e-18 2.72451)
(6.2914 -1.29108e-18 3.08295)
(6.57948 9.16688e-19 3.0661)
(5.93374 -7.33398e-20 3.47059)
(6.25558 -2.2331e-18 3.4521)
(5.54125 -7.38631e-20 3.90508)
(5.90423 2.21943e-18 3.88794)
(5.10936 2.44246e-18 4.38973)
(5.52666 0 4.37009)
(4.59301 -3.87676e-18 4.89478)
(5.04603 2.32726e-18 4.93492)
(4.06245 5.7974e-18 5.40835)
(4.77433 -6.75301e-18 5.32285)
(3.49392 9.84696e-18 6.24513)
(7.11171 -2.1322e-18 2.71438)
(7.33975 1.30989e-21 2.67782)
(6.83306 3.98538e-20 3.05281)
(7.08325 -2.17892e-18 3.01002)
(6.53659 -2.56438e-20 3.43532)
(6.81224 8.63636e-20 3.38569)
(6.21931 3.43346e-20 3.86721)
(6.52494 -2.24826e-18 3.81073)
(5.87451 2.3074e-18 4.35052)
(6.21576 4.32275e-18 4.29134)
(5.49986 -1.37133e-19 4.8871)
(5.89244 -2.08943e-18 4.81844)
(5.04394 -1.41169e-19 5.43929)
(5.44813 1.42071e-18 5.44444)
(4.55641 -3.10718e-19 5.96476)
(5.2859 -4.91344e-19 5.83302)
(3.95105 2.65527e-19 6.80744)
(7.30604 -6.01267e-20 2.9751)
(7.52627 -3.4397e-21 2.91518)
(7.05675 -2.125e-18 3.3438)
(7.29745 2.00563e-18 3.27427)
(6.79434 -2.15253e-18 3.76079)
(7.05825 -4.14391e-18 3.68062)
(6.51665 1.99844e-18 4.23208)
(6.80776 -2.03428e-18 4.1407)
(6.21713 -1.48174e-20 4.75872)
(6.53964 6.40884e-18 4.66178)
(5.89377 -4.92812e-19 5.34152)
(6.26866 -3.57852e-18 5.2293)
(5.49054 1.09088e-18 5.93856)
(5.85542 2.04028e-18 5.91333)
(5.02587 1.43996e-19 6.48416)
(5.78333 -3.64885e-18 6.3153)
(4.40071 8.70875e-18 7.3444)
(7.51294 2.07119e-18 3.21561)
(7.7245 -1.15956e-19 3.13331)
(7.29393 -1.29038e-20 3.61149)
(7.52454 2.00561e-18 3.51641)
(7.06625 -4.03762e-18 4.05964)
(7.31817 -2.02281e-18 3.95028)
(6.82825 2.31149e-18 4.56672)
(7.10548 -1.78513e-18 4.4421)
(6.57291 2.97769e-18 5.13371)
(6.87869 2.28205e-18 5.00063)
(6.2966 -1.02881e-18 5.7616)
(6.65963 3.29448e-19 5.60723)
(5.94105 -2.64661e-18 6.40798)
(6.27735 4.84939e-19 6.34972)
(5.48891 7.24805e-18 6.99568)
(6.28188 -2.31077e-18 6.78778)
(4.85772 8.14175e-18 7.89619)
(7.73182 -1.77051e-19 3.43482)
(7.9335 -6.29111e-20 3.33093)
(7.54441 0 3.85485)
(7.76388 2.25644e-19 3.73509)
(7.35263 2.34254e-19 4.33107)
(7.59186 -2.03389e-18 4.19332)
(7.15542 -1.84821e-18 4.87117)
(7.41873 2.24912e-18 4.71369)
(6.94528 -3.54161e-19 5.47714)
(7.23537 -3.75698e-19 5.3072)
(6.71537 1.84138e-18 6.15263)
(7.0703 -3.11315e-19 5.95389)
(6.40875 8.43791e-19 6.85888)
(6.72631 0 6.75736)
(5.97217 7.77387e-19 7.52297)
(6.80417 2.79921e-20 7.26168)
(5.34749 4.08328e-19 8.49692)
(7.96164 3.41008e-19 3.63122)
(8.15188 7.70573e-19 3.50651)
(7.80749 -1.80571e-18 4.07219)
(8.01422 -2.08062e-19 3.9284)
(7.6535 -5.28866e-20 4.57312)
(7.87872 -3.53346e-18 4.4074)
(7.49942 3.7556e-18 5.14324)
(7.74793 3.28891e-18 4.95251)
(7.33835 -3.31072e-19 5.78732)
(7.61221 1.7407e-18 5.57766)
(7.15946 -2.15822e-18 6.51485)
(7.50691 -2.15197e-18 6.26591)
(6.91244 -8.26462e-19 7.29503)
(7.21828 -7.20227e-19 7.1319)
(6.51085 -3.18436e-19 8.08307)
(7.37939 -8.24162e-19 7.73824)
(5.90816 -2.89753e-18 9.17358)
(8.20075 2.2241e-19 3.80292)
(8.37791 1.28169e-18 3.65836)
(8.08185 -1.92539e-18 4.2611)
(8.27356 1.81303e-19 4.094)
(7.96847 -2.53772e-19 4.78258)
(8.17714 -1.49923e-18 4.58912)
(7.86156 1.28152e-18 5.37832)
(8.09245 1.27422e-18 5.15356)
(7.75664 0 6.05802)
(8.01089 0 5.80428)
(7.64038 -7.19781e-19 6.8402)
(7.97503 0 6.53208)
(7.4763 -7.15699e-19 7.70761)
(7.7709 -1.9833e-18 7.45571)
(7.15128 -3.5686e-18 8.68465)
(8.04252 3.14649e-18 8.20132)
(6.59431 -6.98802e-18 9.94745)
(8.44707 1.24396e-18 3.94775)
(8.60962 -2.56459e-18 3.78493)
(8.36511 6.22476e-19 4.41828)
(8.53959 1.80595e-18 4.22936)
(8.29558 0 4.95434)
(8.48426 0 4.73419)
(8.24123 0 5.56844)
(8.4493 0 5.30976)
(8.20235 0 6.27608)
(8.42969 0 5.97489)
(8.16786 -1.26629e-18 7.10629)
(8.47509 -6.4981e-19 6.7304)
(8.12556 1.58618e-18 8.06361)
(8.39551 -3.94005e-20 7.69015)
(7.95484 -1.68757e-18 9.32085)
(8.82899 1.28799e-18 8.59735)
(7.47956 -3.70249e-18 10.8352)
(8.69833 -2.02717e-18 4.06429)
(8.84626 -1.46456e-18 3.88527)
(8.65437 1.19479e-18 4.54085)
(8.81165 -2.15767e-19 4.33268)
(8.63096 0 5.08284)
(8.79864 0 4.83893)
(8.6341 0 5.70358)
(8.81564 0 5.41402)
(8.67131 -6.48643e-19 6.42215)
(8.86414 6.16741e-19 6.07551)
(8.74117 5.71116e-19 7.27386)
(8.99966 5.04776e-19 6.83095)
(8.87017 -2.59618e-19 8.28996)
(9.08412 1.29135e-18 7.77278)
(9.00074 -1.8597e-18 9.9591)
(9.82713 -1.19106e-18 8.76348)
(9.76584 -4.7023e-19 11.7209)
(0.268153 0 -0.178074)
(0.128084 -2.0049e-19 -0.197133)
(0.555359 -3.97823e-20 -0.15525)
(0.323529 1.89148e-19 -0.183542)
(0.874609 -8.23716e-20 -0.133788)
(0.608193 6.64831e-21 -0.17161)
(1.2203 -4.00984e-20 -0.120095)
(0.92221 4.95449e-21 -0.165533)
(1.57158 3.95342e-20 -0.110774)
(1.2495 0 -0.160278)
(1.90572 -3.76325e-21 -0.10332)
(1.56782 1.97818e-20 -0.153824)
(2.20831 -5.02101e-20 -0.0963799)
(1.85731 -4.33995e-20 -0.145277)
(2.4738 -2.00144e-20 -0.0892956)
(2.10753 -2.12349e-20 -0.13433)
(2.70151 2.1882e-20 -0.0819639)
(2.31584 2.16069e-20 -0.121336)
(2.48297 1.6338e-22 -0.106895)
(0.133137 -5.43451e-20 -0.279315)
(0.0476955 -5.5142e-19 -0.330713)
(0.365459 2.41052e-19 -0.274303)
(0.149784 5.59107e-19 -0.327442)
(0.645997 8.20512e-20 -0.262789)
(0.386251 -7.09401e-19 -0.318556)
(0.949695 3.99601e-20 -0.25473)
(0.640907 3.55732e-19 -0.308591)
(1.25116 -1.97976e-20 -0.245422)
(0.90113 0 -0.296771)
(1.52644 -2.17466e-20 -0.232653)
(1.14219 8.04866e-22 -0.280879)
(1.76162 -1.29414e-20 -0.215899)
(1.34665 1.54502e-19 -0.259979)
(1.95202 2.14772e-20 -0.195437)
(1.50623 -1.95771e-19 -0.234045)
(2.09732 -3.97061e-22 -0.171934)
(1.62055 1.01006e-20 -0.203802)
(1.69202 -1.04811e-20 -0.170081)
(0.0131834 -1.23916e-20 -0.384952)
(0.00503026 1.87196e-21 -0.425846)
(0.16692 -3.45014e-19 -0.394841)
(-0.0118001 7.32232e-19 -0.419898)
(0.373728 -4.67481e-19 -0.385267)
(0.166018 -1.33256e-18 -0.422416)
(0.593871 3.18708e-19 -0.370883)
(0.338552 6.35417e-19 -0.407977)
(0.79859 1.99821e-20 -0.350217)
(0.505071 -7.85206e-20 -0.385903)
(0.967893 1.80084e-19 -0.323081)
(0.643815 1.97829e-20 -0.356862)
(1.09323 -3.70246e-20 -0.289788)
(0.74143 1.63228e-19 -0.32106)
(1.17319 -2.0466e-19 -0.251179)
(0.796432 -1.66457e-19 -0.278708)
(1.21072 4.82302e-22 -0.208273)
(0.812139 -1.04047e-19 -0.231355)
(0.793468 6.41192e-20 -0.180365)
(-0.0866599 7.13269e-19 -0.450035)
(-0.0186851 -1.57166e-19 -0.494691)
(-0.00240313 -2.18168e-19 -0.469362)
(-0.150517 7.18053e-19 -0.469536)
(0.127518 -2.81555e-19 -0.458717)
(-0.0279087 -9.15768e-19 -0.482401)
(0.255612 2.40993e-19 -0.434759)
(0.0578938 7.77912e-20 -0.458588)
(0.358309 -7.75622e-20 -0.399818)
(0.129178 6.04795e-19 -0.422804)
(0.422367 5.21545e-21 -0.357243)
(0.168434 -6.34455e-19 -0.378839)
(0.445326 2.62389e-20 -0.308635)
(0.170989 1.75001e-19 -0.328293)
(0.432237 -6.40704e-20 -0.25495)
(0.140836 6.52848e-20 -0.272788)
(0.388815 -4.06315e-20 -0.197615)
(0.0844141 -8.17359e-20 -0.213452)
(0.00808616 2.97338e-19 -0.151984)
(-0.170809 -2.04555e-19 -0.481143)
(-0.0289213 1.11207e-19 -0.539712)
(-0.148753 -1.72637e-20 -0.503902)
(-0.267717 3.35855e-21 -0.48237)
(-0.0965256 -5.75356e-19 -0.485129)
(-0.200471 -6.67012e-19 -0.496861)
(-0.0603381 4.58377e-19 -0.446753)
(-0.199773 1.00588e-20 -0.457854)
(-0.0534574 2.14184e-20 -0.397315)
(-0.21585 1.05177e-18 -0.40749)
(-0.0793957 -4.4512e-19 -0.341853)
(-0.260157 -1.32629e-18 -0.351148)
(-0.133989 2.1368e-19 -0.282373)
(-0.328776 5.12864e-19 -0.291117)
(-0.21054 4.57363e-20 -0.220434)
(-0.416511 -4.01597e-20 -0.228777)
(-0.301917 2.58284e-19 -0.15722)
(-0.516083 8.83214e-20 -0.165139)
(-0.622374 3.41394e-19 -0.101347)
(-0.237356 5.58604e-19 -0.480341)
(-0.025586 5.04115e-19 -0.559473)
(-0.274966 -6.8632e-19 -0.496803)
(-0.360302 -1.77406e-19 -0.459145)
(-0.300711 -8.7728e-20 -0.462698)
(-0.352425 -6.69846e-19 -0.463455)
(-0.34793 6.17655e-19 -0.410445)
(-0.4272 5.83689e-19 -0.408418)
(-0.417688 -3.44853e-19 -0.351003)
(-0.51559 3.69001e-19 -0.3479)
(-0.507931 -3.30111e-19 -0.289027)
(-0.619895 -1.03615e-18 -0.285148)
(-0.612536 2.51412e-19 -0.226165)
(-0.735931 6.94009e-19 -0.222293)
(-0.725118 1.85058e-21 -0.162968)
(-0.857386 -4.34391e-20 -0.15988)
(-0.840652 1.71735e-19 -0.100288)
(-0.979137 9.96483e-22 -0.0981056)
(-1.09683 8.55609e-20 -0.0382693)
(-0.282582 5.09306e-20 -0.448816)
(-0.00438486 -5.13556e-19 -0.551924)
(-0.379749 -1.53486e-19 -0.447558)
(-0.423337 1.82978e-19 -0.397167)
(-0.476399 2.36638e-21 -0.396824)
(-0.477948 -3.35772e-19 -0.385064)
(-0.589486 3.32547e-19 -0.335199)
(-0.614466 7.67424e-20 -0.318949)
(-0.715047 -3.49454e-19 -0.271007)
(-0.755608 3.30983e-19 -0.253863)
(-0.847809 1.85104e-20 -0.208188)
(-0.900374 -3.43932e-19 -0.191273)
(-0.98234 3.92022e-19 -0.147283)
(-1.04437 3.06375e-19 -0.131744)
(-1.11391 -4.42881e-20 -0.0880286)
(-1.18249 4.39368e-20 -0.0748758)
(-1.23809 -8.70895e-20 -0.0310796)
(-1.31116 -8.76033e-20 -0.020768)
(-1.42915 -1.74266e-19 0.030199)
(-0.301432 -7.79266e-19 -0.384343)
(0.0426649 -1.33771e-18 -0.515484)
(-0.455742 -4.65406e-22 -0.357328)
(-0.455117 5.17051e-19 -0.294673)
(-0.614025 -2.60452e-19 -0.294444)
(-0.56998 -3.51719e-19 -0.267091)
(-0.776723 8.94081e-20 -0.228433)
(-0.7538 -3.89625e-19 -0.197679)
(-0.939544 3.25325e-19 -0.165766)
(-0.930158 3.52095e-19 -0.134843)
(-1.0974 -4.55722e-20 -0.107636)
(-1.09836 -4.62189e-20 -0.0785337)
(-1.24582 -4.47774e-20 -0.0536779)
(-1.25373 4.8909e-22 -0.0282328)
(-1.38147 0 -0.00349131)
(-1.39475 0 0.0175142)
(-1.50406 -1.74933e-19 0.043844)
(-1.52157 0 0.0607956)
(-1.63631 -2.64898e-19 0.103145)
(-0.297894 -5.1806e-19 -0.282448)
(0.117389 -1.75682e-18 -0.442941)
(-0.502098 6.45453e-20 -0.231083)
(-0.45429 8.8013e-19 -0.15509)
(-0.707613 -4.81264e-19 -0.162335)
(-0.624305 1.01986e-19 -0.117683)
(-0.904461 -1.08379e-19 -0.0981528)
(-0.839447 -8.80424e-20 -0.0526698)
(-1.08815 -2.43494e-20 -0.0421703)
(-1.03464 -3.55833e-19 0.000612799)
(-1.2548 6.8031e-22 0.00533658)
(-1.21041 8.09543e-19 0.0435685)
(-1.40338 4.5992e-20 0.046581)
(-1.36563 -3.32663e-19 0.0796482)
(-1.53587 0 0.0849701)
(-1.50222 -2.80929e-19 0.112928)
(-1.65507 -8.94276e-20 0.122718)
(-1.62371 2.76863e-19 0.145865)
(-1.73209 -9.12859e-20 0.179083)
(-0.274575 -1.58279e-18 -0.140795)
(0.218667 9.33313e-19 -0.324812)
(-0.516144 8.9806e-19 -0.0694167)
(-0.419124 -7.26744e-19 0.0147701)
(-0.753656 4.87978e-19 -0.00293841)
(-0.637387 7.32235e-19 0.0544133)
(-0.967047 -3.39601e-19 0.0502945)
(-0.868421 3.4298e-20 0.105567)
(-1.15565 4.97676e-19 0.0902268)
(-1.06805 -3.78565e-19 0.142257)
(-1.32048 4.68826e-19 0.121272)
(-1.24045 8.10577e-19 0.1684)
(-1.46437 -6.61544e-19 0.148825)
(-1.38857 -2.83867e-19 0.189469)
(-1.59041 -6.01424e-21 0.17585)
(-1.51607 -4.7452e-19 0.209624)
(-1.70136 2.78239e-19 0.203585)
(-1.62665 3.73133e-19 0.231215)
(-1.72341 1.82578e-19 0.254806)
(-0.22496 2.10646e-18 0.0422458)
(0.350518 9.81177e-19 -0.156908)
(-0.494657 -6.93717e-19 0.12071)
(-0.359401 -9.83917e-19 0.208509)
(-0.749205 2.6002e-19 0.167669)
(-0.612447 2.7916e-19 0.238417)
(-0.965557 -1.1837e-20 0.200844)
(-0.845143 3.62682e-22 0.269352)
(-1.14993 -4.9202e-20 0.222837)
(-1.03815 -5.02721e-20 0.28611)
(-1.30653 4.85254e-20 0.23794)
(-1.19879 -2.49309e-19 0.292998)
(-1.43912 -9.36797e-20 0.251022)
(-1.33183 -1.59929e-21 0.296796)
(-1.55194 -9.98281e-20 0.26548)
(-1.44256 -9.67764e-20 0.302514)
(-1.64889 2.78203e-19 0.282682)
(-1.53578 2.85233e-19 0.312405)
(-1.61566 9.20569e-20 0.326715)
(-0.151104 -7.30945e-19 0.254643)
(0.510724 -1.66785e-18 0.0607504)
(-0.448193 8.80269e-20 0.31669)
(-0.285362 -3.47417e-21 0.423468)
(-0.702816 1.28208e-20 0.340201)
(-0.558562 -5.00878e-20 0.428461)
(-0.910494 -3.85383e-20 0.353183)
(-0.77879 1.25808e-20 0.434668)
(-1.08147 -2.51518e-19 0.354744)
(-0.95428 -2.04777e-19 0.426636)
(-1.22056 -2.98881e-19 0.350543)
(-1.09291 -2.95011e-22 0.410003)
(-1.33323 -3.91729e-21 0.347247)
(-1.20116 -1.00063e-19 0.394316)
(-1.42551 2.86387e-19 0.348669)
(-1.28667 -1.006e-19 0.385245)
(-1.50254 1.00562e-19 0.355802)
(-1.35578 4.82836e-19 0.384226)
(-1.41329 -9.35081e-20 0.390589)
(-0.0592875 -1.01037e-18 0.494052)
(0.661118 -4.39666e-19 0.337878)
(-0.378765 -1.44438e-19 0.522547)
(-0.200759 -4.84318e-19 0.661648)
(-0.620265 -4.939e-20 0.514115)
(-0.483919 -1.00624e-19 0.618892)
(-0.809388 -1.55633e-19 0.502532)
(-0.677481 0 0.595288)
(-0.957516 5.11061e-20 0.478027)
(-0.82556 -1.56748e-19 0.555123)
(-1.06887 2.0486e-19 0.450713)
(-0.930619 -1.33508e-21 0.509334)
(-1.15195 -1.96494e-19 0.430017)
(-1.00247 -2.03372e-21 0.472576)
(-1.21579 8.80777e-20 0.419283)
(-1.05327 -1.00694e-19 0.450158)
(-1.26665 2.95182e-19 0.417981)
(-1.09121 1.94791e-19 0.440609)
(-1.12066 9.67611e-20 0.441434)
(0.00186763 9.83833e-19 0.788973)
(0.821188 4.35347e-19 0.764642)
(-0.289293 -4.31217e-19 0.736589)
(-0.185334 -5.45151e-19 0.880496)
(-0.505485 -5.08862e-20 0.689131)
(-0.39233 3.75704e-19 0.803219)
(-0.673699 0 0.643307)
(-0.554405 -2.0148e-19 0.747198)
(-0.789555 -2.05359e-19 0.582305)
(-0.668439 0 0.659405)
(-0.859533 -2.10496e-19 0.527237)
(-0.723453 -1.0513e-19 0.575802)
(-0.900709 9.69117e-20 0.490005)
(-0.742336 -2.07243e-19 0.518712)
(-0.927558 2.45585e-21 0.470249)
(-0.747392 2.01043e-19 0.488319)
(-0.946037 -4.95793e-21 0.463559)
(-0.747521 -2.00091e-19 0.474912)
(-0.743382 1.9632e-19 0.473453)
(-0.105136 -1.29098e-19 0.621949)
(0.255146 0 1.45328)
(-0.161934 4.79965e-19 0.890343)
(0.0439292 -2.83438e-19 1.02779)
(-0.376236 2.03842e-19 0.897433)
(-0.182545 6.93046e-19 1.03438)
(-0.531939 -2.06732e-19 0.781151)
(-0.450612 -2.1087e-19 0.890109)
(-0.598213 1.03495e-19 0.655312)
(-0.517126 -5.03235e-20 0.715384)
(-0.602714 -9.81883e-20 0.564431)
(-0.485721 1.07466e-19 0.582603)
(-0.58465 -1.07279e-19 0.515615)
(-0.422297 -2.11616e-19 0.514781)
(-0.566549 2.8663e-21 0.493975)
(-0.369585 2.02978e-19 0.491097)
(-0.547682 -6.319e-21 0.486402)
(-0.328264 -1.03602e-19 0.481237)
(8.96067 3.95455e-19 4.1521)
(9.09264 1.87481e-18 3.95852)
(8.95664 -1.47175e-18 4.62699)
(9.09477 -1.82006e-18 4.4017)
(8.9817 0 5.1636)
(9.12497 -6.42056e-19 4.89888)
(9.04627 6.28684e-19 5.77386)
(9.1944 0 5.45767)
(9.16684 1.82346e-18 6.47437)
(9.31141 3.8171e-20 6.08972)
(9.36209 1.21086e-18 7.29284)
(9.5328 6.91914e-19 6.798)
(9.7092 3.7741e-19 8.25806)
(9.77035 -4.68335e-19 7.62561)
(10.3904 6.7221e-19 10.2616)
(10.6024 7.08957e-19 8.41452)
(11.4674 -1.61706e-18 9.42194)
(13.8435 -2.23457e-19 11.4497)
(9.2257 -3.36275e-19 4.20668)
(9.33884 -6.49471e-19 4.00194)
(9.26098 -9.88489e-19 4.67071)
(9.37594 -2.15832e-20 4.4333)
(9.33276 -6.54513e-19 5.18856)
(9.44617 -4.06482e-20 4.91074)
(9.45463 -6.11019e-19 5.76716)
(9.56156 0 5.43748)
(9.64892 -1.14273e-18 6.4126)
(9.73275 -6.21781e-19 6.01562)
(9.95005 -1.01522e-18 7.12288)
(10.0049 -5.39926e-19 6.63362)
(10.4662 -4.90065e-19 7.8618)
(10.3121 -4.61347e-20 7.26799)
(11.2046 1.52046e-19 8.80192)
(10.8774 -4.60681e-19 7.84475)
(11.7138 -5.36722e-20 8.95611)
(11.8025 1.22942e-18 8.11536)
(9.48799 -3.34513e-19 4.2272)
(9.58129 -6.69646e-19 4.01443)
(9.55904 9.56113e-19 4.67145)
(9.6496 -2.60392e-19 4.42678)
(9.67095 6.30805e-19 5.15832)
(9.75376 6.40919e-19 4.87541)
(9.83667 0 5.68796)
(9.90427 0 5.35909)
(10.0737 0 6.25486)
(10.1094 0 5.87289)
(10.3956 5.07582e-19 6.83508)
(10.3962 -4.41919e-19 6.40399)
(10.8076 1.78039e-20 7.39251)
(10.7259 8.04841e-19 6.9294)
(11.2345 -6.61022e-19 8.01908)
(11.1429 3.42096e-19 7.45403)
(11.8711 -1.41514e-19 8.2404)
(12.0081 -3.50009e-19 8.1583)
(9.74209 -6.00854e-19 4.21374)
(9.84303 -5.97875e-19 4.63104)
(9.91014 -3.32086e-20 4.38451)
(9.98524 0 5.07881)
(10.0406 0 4.79866)
(10.178 0 5.55229)
(10.2151 0 5.23526)
(10.4305 -4.54474e-19 6.04172)
(10.439 0 5.68707)
(10.7463 -1.28752e-19 6.52526)
(10.7271 1.03881e-19 6.14449)
(11.1232 1.10801e-18 6.98862)
(11.067 -2.32919e-19 6.58686)
(11.5776 7.99246e-19 7.51665)
(11.4518 1.00914e-18 7.00064)
(12.0674 -4.24006e-19 7.48341)
(12.3098 1.05515e-19 7.86922)
(10.1076 5.80666e-19 4.55431)
(10.2707 0 4.95974)
(10.4789 0 5.3781)
(10.4927 -5.20001e-19 5.07786)
(10.7378 5.76777e-19 5.80009)
(10.7259 0 5.47232)
(11.0523 2.1864e-21 6.21033)
(11.0101 6.91754e-19 5.86203)
(11.423 -3.09218e-19 6.59493)
(11.3438 -6.6926e-19 6.22843)
(11.8514 -2.08653e-19 6.98655)
(11.7073 4.38795e-19 6.55438)
(12.2119 -2.11461e-19 6.89552)
(12.3923 9.35281e-20 7.26344)
(10.7429 -5.19962e-19 5.17848)
(11.002 1.20684e-19 5.54148)
(11.3064 -7.32908e-21 5.88777)
(11.2485 3.55942e-19 5.57072)
(11.6522 1.11783e-19 6.20213)
(11.5637 -1.22856e-19 5.87765)
(12.0302 4.41338e-19 6.49162)
(11.9012 8.05311e-21 6.14732)
(12.3295 4.13161e-19 6.40432)
(12.4668 -6.39856e-19 6.70263)
(11.5129 2.33875e-19 5.56789)
(11.8312 -2.27949e-19 5.82993)
(12.1726 -1.46224e-20 6.06074)
(12.0527 -2.25435e-19 5.76789)
(12.4289 1.99042e-19 5.96894)
(12.5481 -8.42124e-19 6.22957)
(12.287 0 5.67286)
(12.6154 -1.04743e-18 5.81126)
(8.40232 1.67467e-19 8.83267)
(11.2632 6.52062e-19 7.4178)
(4.71873 -5.50646e-19 6.83609)
(9.22419 8.80922e-19 5.87133)
(6.62326 -1.65617e-19 4.90022)
(2.37106 -2.33893e-19 4.87286)
(11.2264 5.00779e-19 6.89907)
(11.9705 1.16353e-19 8.58826)
(10.3916 -1.71185e-19 5.97837)
(11.6412 -9.4645e-19 7.51708)
(11.0005 3.63702e-20 6.68295)
(9.44702 4.27001e-20 5.25324)
(12.2761 -5.86902e-19 7.84461)
(12.278 -7.54417e-20 8.08627)
(12.1685 -3.79988e-19 7.40004)
(12.4674 -4.26513e-19 7.75616)
(12.4096 3.65816e-19 7.37926)
(11.8488 6.85394e-20 6.84945)
(12.5609 7.99932e-20 7.83976)
(12.4382 3.6012e-19 7.5558)
(12.6776 3.3792e-19 7.67309)
(12.7039 6.00992e-19 7.51407)
(12.8335 -4.03044e-19 7.39136)
(12.6848 4.28974e-19 7.34674)
(12.6376 8.82203e-19 7.3076)
(12.5158 -3.06132e-19 7.01645)
(12.839 -1.53654e-19 7.28991)
(12.7782 1.29051e-18 7.06037)
(12.9702 -1.29355e-18 7.05038)
(12.9936 -1.01023e-18 7.16139)
(12.691 1.35311e-19 6.76812)
(12.5843 -1.30246e-18 6.5049)
(12.9011 1.43874e-19 6.80966)
(12.8206 6.90967e-19 6.56805)
(13.0128 -5.38886e-19 6.60191)
(13.0942 -4.18726e-19 6.78637)
(12.7413 -7.0978e-19 6.29209)
(12.6478 -1.50094e-18 6.05043)
(12.9308 0 6.3453)
(12.8536 6.95029e-19 6.1113)
(13.0257 4.13547e-20 6.15566)
(13.1168 -8.63556e-20 6.36493)
(12.7827 -5.12311e-20 5.86485)
(12.9489 7.43791e-19 5.91473)
(12.8793 6.6811e-19 5.70039)
(13.0307 1.62758e-21 5.74359)
(13.1161 8.50948e-20 5.94852)
(12.9618 -8.48785e-20 5.52374)
(13.1101 -2.94057e-19 5.56103)
(1.41431 -1.31573e-19 1.87022)
(3.93411 6.80763e-20 3.37219)
(0.253622 8.58929e-20 0.991076)
(3.55569 -1.39437e-19 2.30262)
(-0.264388 1.7053e-19 0.704687)
(2.563 1.45408e-19 1.6498)
(-0.430243 -5.11836e-20 0.552085)
(1.6222 -7.2995e-20 1.12465)
(-0.399539 -5.23818e-20 0.481623)
(1.01358 1.58795e-20 0.740302)
(-0.288893 0 0.473832)
(0.58348 -8.27379e-22 0.520314)
(-0.188368 1.00047e-19 0.487937)
(0.304933 -4.89214e-20 0.454263)
(-0.123735 1.02469e-19 0.491559)
(0.191491 2.83717e-20 0.459539)
(0.195723 4.98156e-20 0.455197)
(7.54421 6.60547e-20 3.94708)
(9.77035 4.97836e-20 5.45563)
(5.83338 -2.51607e-20 2.97397)
(8.58993 1.16086e-19 4.26518)
(4.37881 -9.91701e-20 2.15428)
(7.16931 -2.31118e-20 3.35167)
(3.11172 2.11766e-20 1.47157)
(5.79608 -4.95481e-20 2.60682)
(2.03903 9.7662e-20 0.929434)
(4.6047 9.89795e-20 1.98147)
(1.21878 -5.27233e-20 0.559157)
(3.56961 1.64912e-20 1.46439)
(0.713512 -9.79035e-20 0.377751)
(2.71782 -5.05818e-20 1.05258)
(0.511279 5.64572e-21 0.33343)
(2.10206 -1.51682e-21 0.74011)
(1.67485 2.58575e-20 0.524222)
(10.9065 1.53606e-19 5.673)
(11.9685 7.06621e-21 6.53703)
(9.74784 1.2082e-19 4.69096)
(11.2779 -5.74373e-20 5.60313)
(8.55069 2.54786e-20 3.82615)
(10.3469 1.76079e-20 4.74498)
(7.36817 2.30291e-20 3.07977)
(9.3225 2.65514e-20 3.988)
(6.22672 -2.91341e-21 2.43483)
(8.29923 2.56587e-20 3.31321)
(5.15078 -2.97397e-21 1.87721)
(7.29623 1.3204e-20 2.71434)
(4.16429 4.76148e-20 1.39379)
(6.32456 4.74551e-20 2.19091)
(3.29163 3.73341e-21 0.978548)
(5.40727 9.94321e-22 1.73736)
(4.56301 -4.60971e-20 1.34437)
(12.3942 -2.17121e-19 6.50876)
(12.8402 -2.32784e-20 6.90689)
(11.8363 -1.71909e-19 5.71658)
(12.6067 -1.5205e-19 6.26828)
(11.1166 1.8481e-20 4.96365)
(12.1582 3.46677e-20 5.59439)
(10.3003 2.93214e-20 4.27271)
(11.5575 -3.16949e-21 4.94722)
(9.42602 4.60566e-20 3.64036)
(10.8639 4.31486e-21 4.33598)
(8.52352 6.788e-20 3.06463)
(10.1102 4.3318e-20 3.76424)
(7.61858 4.93527e-21 2.54515)
(9.31808 3.16756e-20 3.23711)
(6.73165 -4.46298e-20 2.08066)
(8.50808 -4.4837e-20 2.75611)
(7.6974 4.06554e-20 2.32045)
(13.0757 3.65607e-20 6.70439)
(13.1913 4.32929e-19 6.83752)
(12.9325 5.54425e-20 6.17791)
(13.2418 1.89822e-21 6.45699)
(12.6068 1.19453e-20 5.61326)
(13.1316 -4.70049e-20 5.99385)
(12.1446 -3.126e-20 5.04936)
(12.8695 -3.65588e-21 5.50272)
(11.5805 5.18008e-22 4.50067)
(12.4845 -2.47057e-20 5.00636)
(10.9406 4.59788e-21 3.97687)
(12.0048 2.95915e-20 4.5172)
(10.2473 -2.09298e-20 3.48538)
(11.4515 -4.68925e-20 4.04559)
(9.51794 4.08741e-20 3.02999)
(10.842 0 3.59896)
(10.1905 7.01119e-20 3.1818)
(13.354 4.03724e-19 6.58421)
(13.3028 3.14102e-19 6.54512)
(13.4551 -1.02441e-19 6.27683)
(13.4991 -3.57427e-20 6.35521)
(13.4036 -6.40206e-20 5.89632)
(13.5962 -7.12789e-20 6.07353)
(13.2203 3.60963e-21 5.47883)
(13.5708 1.21664e-20 5.73672)
(12.9258 3.04823e-21 5.04536)
(13.4281 -1.15777e-19 5.3684)
(12.5381 -2.29188e-20 4.6105)
(13.185 -7.17604e-22 4.98444)
(12.0732 -2.64615e-20 4.18537)
(12.8566 1.04947e-19 4.59755)
(11.5454 2.65305e-20 3.77787)
(12.4556 0 4.21775)
(11.9929 -1.68302e-20 3.85234)
(13.4328 -1.29613e-19 6.30406)
(13.3152 -8.69478e-20 6.17146)
(13.6562 -3.30432e-21 6.14857)
(13.567 0 6.09952)
(13.7727 5.26717e-21 5.91749)
(13.7722 2.17712e-19 5.94974)
(13.7835 -1.07882e-19 5.63513)
(13.893 -2.77477e-19 5.74074)
(13.6952 -1.23501e-19 5.32006)
(13.919 1.36088e-19 5.48994)
(13.5162 1.27707e-19 4.98671)
(13.8562 -4.15445e-20 5.21148)
(13.2557 1.35054e-19 4.64689)
(13.7126 2.17927e-20 4.91726)
(12.9231 -4.52675e-20 4.31003)
(13.4953 -7.44069e-20 4.61738)
(13.2111 5.45061e-20 4.32001)
(13.4296 4.41479e-20 5.95737)
(13.2964 -3.09966e-19 5.78822)
(13.6978 2.22699e-19 5.8958)
(13.5549 -2.25888e-20 5.77953)
(13.901 -6.57514e-20 5.77181)
(13.8026 3.61467e-19 5.71419)
(14.0302 -3.51386e-20 5.59798)
(13.9998 -1.61896e-19 5.59833)
(14.0826 2.23214e-19 5.38702)
(14.1294 3.92491e-19 5.44198)
(14.0587 -1.52149e-19 5.15029)
(14.1897 -2.72906e-19 5.25521)
(13.9614 -1.9125e-19 4.89792)
(14.1829 1.00863e-19 5.04728)
(13.7952 2.47992e-20 4.63879)
(14.1112 -2.14512e-19 4.82666)
(13.9772 1.03572e-19 4.60088)
(13.4005 -3.9367e-19 5.60093)
(13.6722 1.2023e-19 5.59164)
(13.5166 3.55966e-19 5.44517)
(13.9088 2.72551e-19 5.53642)
(13.7702 -5.27024e-19 5.42911)
(14.0992 2.65957e-19 5.44035)
(13.998 7.53061e-19 5.37477)
(14.2362 -1.02243e-19 5.3107)
(14.1818 -1.5519e-19 5.28692)
(14.316 -2.05969e-20 5.15504)
(14.3167 -2.32481e-19 5.17174)
(14.3369 8.37052e-20 4.98079)
(14.4014 2.38287e-19 5.03556)
(14.2994 -1.41229e-19 4.79506)
(14.4346 -2.52741e-19 4.88459)
(14.416 1.09643e-19 4.72492)
(13.6249 -2.90425e-19 5.27621)
(13.8657 -5.19649e-20 5.26198)
(14.08 3.3797e-19 5.21712)
(14.2605 -2.86829e-19 5.14548)
(14.1557 -5.73159e-19 5.0721)
(14.4018 2.32158e-20 5.05158)
(14.3296 1.53704e-19 5.00842)
(14.5003 -9.64811e-20 4.94034)
(14.469 1.59758e-19 4.92685)
(14.5537 -3.07548e-21 4.8169)
(14.571 8.85077e-22 4.83166)
(14.6337 1.07135e-19 4.72735)
(14.2225 -1.3599e-19 4.93108)
(14.3953 2.93609e-19 4.88101)
(14.5392 2.62978e-19 4.81676)
(14.4555 3.96159e-19 4.75742)
(14.6512 1.11633e-19 4.7419)
(14.5982 1.17611e-19 4.70377)
(14.7132 1.05174e-19 4.64231)
(14.5131 2.52785e-19 4.64163)
(14.6592 1.11361e-19 4.60227)
(14.7143 1.13664e-19 4.49857)
)
;

boundaryField
{
    inlet
    {
        type            calculated;
        value           nonuniform 0();
    }
    outlet
    {
        type            calculated;
        value           nonuniform 0();
    }
    flap
    {
        type            calculated;
        value           nonuniform List<vector> 
33
(
(0 0 0)
(-2.72387e-15 0 -1.33208e-14)
(3.15113e-16 -2.77556e-14 9.96981e-16)
(-9.73847e-15 -2.7061e-32 -2.37649e-14)
(0 0 0)
(0 0 0)
(-2.81556e-14 2.77556e-14 -4.69486e-14)
(0 -2.77556e-14 0)
(-5.09196e-14 0 -7.76173e-14)
(-5.12555e-14 3.32382e-31 -7.68268e-14)
(-5.13716e-14 0 -7.65456e-14)
(0 0 0)
(5.13767e-14 2.77556e-14 7.6533e-14)
(-5.13394e-14 -3.3494e-31 -7.6624e-14)
(-5.13845e-14 2.77556e-14 -7.65139e-14)
(1.02785e-13 -2.77556e-14 -6.90554e-14)
(1.28505e-14 0 -8.57493e-15)
(8.96248e-14 1.65689e-31 -6.04161e-14)
(-3.76616e-16 -2.77556e-14 -4.07582e-15)
(3.31657e-15 0 1.60589e-14)
(0 0 0)
(-1.17715e-14 -2.77556e-14 -2.86219e-14)
(2.67885e-15 -2.77556e-14 5.47725e-15)
(-2.34851e-14 2.77556e-14 -4.25482e-14)
(7.35089e-15 -2.77556e-14 1.22471e-14)
(-2.51139e-14 -2.77556e-14 -3.95735e-14)
(-4.21703e-14 -2.77556e-14 -6.42653e-14)
(0 0 0)
(-6.86119e-14 -2.77556e-14 -1.0223e-13)
(5.13887e-14 -2.77556e-14 7.65036e-14)
(-6.86276e-14 -2.77556e-14 -1.02216e-13)
(0 0 0)
(-6.86406e-14 0 -1.02205e-13)
)
;
    }
    upperWall
    {
        type            calculated;
        value           nonuniform 0();
    }
    lowerWall
    {
        type            calculated;
        value           uniform (0 0 0);
    }
    frontAndBack
    {
        type            empty;
        value           nonuniform 0();
    }
    procBoundary4to1
    {
        type            processor;
        value           nonuniform List<vector> 
30
(
(9.81559 0 3.99672)
(9.98342 5.866e-19 4.16848)
(10.1536 -2.2686e-19 4.31066)
(10.3032 -2.61146e-19 4.68803)
(10.5267 -7.93482e-19 4.81098)
(10.7378 -9.15173e-19 4.89657)
(10.973 -5.95723e-20 5.23939)
(11.225 1.83447e-19 5.27506)
(11.4474 7.02004e-19 5.28111)
(11.7412 -2.31855e-19 5.54115)
(11.9764 -2.29589e-19 5.48078)
(12.1727 0 5.41199)
(12.5079 -4.09018e-19 5.57733)
(12.6995 -7.38898e-20 5.64629)
(12.815 6.72975e-19 5.47861)
(12.8988 6.55237e-19 5.32828)
(13.0331 -4.1582e-20 5.36844)
(13.2718 -3.6294e-19 5.42292)
(13.3669 3.80835e-19 5.2582)
(13.474 3.59992e-19 5.11886)
(13.7172 -3.65567e-19 5.13012)
(13.9499 6.52235e-19 5.11386)
(14.0247 -2.58845e-19 4.96382)
(14.0976 1.56918e-20 4.82869)
(14.2877 4.15683e-19 4.80003)
(14.3458 5.21171e-19 4.67273)
(14.4044 5.09351e-19 4.55309)
(14.5684 -2.51857e-19 4.52883)
(14.6218 -2.57063e-19 4.42223)
(14.6753 0 4.31756)
)
;