/*--------------------------------*- C++ -*----------------------------------*\
| =========                 |                                                 |
| \\      /  F ield         | OpenFOAM: The Open Source CFD Toolbox           |
|  \\    /   O peration     | Version:  dev                                   |
|   \\  /    A nd           | Web:      www.OpenFOAM.org                      |
|    \\/     M anipulation  |                                                 |
\*---------------------------------------------------------------------------*/
FoamFile
{
    version     2.0;
    format      ascii;
    class       volVectorField;
    location    "0.88";
    object      Force;
}
// * * * * * * * * * * * * * * * * * * * * * * * * * * * * * * * * * * * * * //

dimensions      [1 1 -2 0 0 0 0];

internalField   uniform (0 0 0);

boundaryField
{
    inlet
    {
        type            calculated;
        value           uniform (0 0 0);
    }
    outlet
    {
        type            calculated;
        value           uniform (0 0 0);
    }
    flap
    {
        type            calculated;
        value           nonuniform List<vector> 
33
(
(4.49457 1.45603e-18 -0.178311)
(4.47103 -2.11167e-17 -0.428478)
(4.4269 1.80914e-17 -0.688045)
(4.34963 2.37572e-17 -0.915541)
(4.23892 3.35152e-24 -1.10659)
(4.1029 3.52892e-17 -1.25867)
(3.95058 -1.54513e-22 -1.37384)
(3.79025 1.73246e-17 -1.45527)
(3.62489 -1.68238e-22 -1.50628)
(3.45569 -2.99723e-23 -1.52755)
(3.28492 4.31069e-21 -1.51857)
(3.10829 -9.40395e-38 -1.47938)
(2.91424 -1.56208e-17 -1.40923)
(2.68056 8.06247e-18 -1.30246)
(2.35881 7.10205e-18 -1.14824)
(-0.0683908 5.87747e-39 -0.142726)
(-0.178454 2.35099e-38 -0.363327)
(-0.288422 7.62653e-18 -0.587272)
(-1.81058 -2.09447e-22 0.0708196)
(-1.81284 -6.21293e-23 0.174291)
(-1.81373 2.59798e-18 0.28322)
(-1.81176 -2.60881e-18 0.382667)
(-1.80602 -1.34785e-22 0.473472)
(-1.79579 2.74927e-22 0.553597)
(-1.78076 -1.40678e-22 0.622282)
(-1.76028 -1.00068e-17 0.679678)
(-1.73518 -2.35099e-38 0.725663)
(-1.70705 -2.81503e-22 0.759718)
(-1.67649 -2.09981e-21 0.780941)
(-1.64502 -1.38393e-22 0.789607)
(-1.61428 4.88268e-18 0.787872)
(-1.58539 2.42492e-21 0.778681)
(-1.55848 1.13618e-21 0.768004)
)
;
    }
    upperWall
    {
        type            calculated;
        value           uniform (0 0 0);
    }
    lowerWall
    {
        type            calculated;
        value           uniform (0 0 0);
    }
    frontAndBack
    {
        type            empty;
    }
}


// ************************************************************************* //
