/*--------------------------------*- C++ -*----------------------------------*\
| =========                 |                                                 |
| \\      /  F ield         | OpenFOAM: The Open Source CFD Toolbox           |
|  \\    /   O peration     | Version:  dev                                   |
|   \\  /    A nd           | Web:      www.OpenFOAM.org                      |
|    \\/     M anipulation  |                                                 |
\*---------------------------------------------------------------------------*/
FoamFile
{
    version     2.0;
    format      ascii;
    class       pointVectorField;
    location    "0.88";
    object      pointDisplacement;
}
// * * * * * * * * * * * * * * * * * * * * * * * * * * * * * * * * * * * * * //

dimensions      [0 1 0 0 0 0 0];

internalField   nonuniform List<vector> 
5828
(
(0 0 0)
(0.0201182 0 0)
(0.0380478 0 0)
(0.0533033 0 0)
(0.0661535 0 0)
(0.0768453 0 0)
(0.0855931 0 0)
(0.092594 0 0)
(0.0980181 0 0)
(0.102007 0 0)
(0.104683 0 0)
(0.106152 0 0)
(0.10651 0 0)
(0.105838 0 0)
(0.104209 0 0)
(0.101686 0 0)
(0.0983288 0 0)
(0.0941888 0 0)
(0.0893158 0 0)
(0.0837611 0 0)
(0.0775801 0 0)
(0.0708316 0 0)
(0.0635802 0 0)
(0.0558999 0 0)
(0.0478806 0 0)
(0.039638 0 0)
(0.0313315 0 0)
(0.0232228 0 0)
(0.0158205 0 0)
(0.0103887 0 0)
(0 0 0)
(0 0 0)
(0.0201284 0 -9.88931e-05)
(0.0380688 0 -0.000188477)
(0.0533355 0 -0.000267511)
(0.0661985 0 -0.000337905)
(0.0769042 0 -0.000401198)
(0.0856661 0 -0.000458318)
(0.0926833 0 -0.000509867)
(0.0981266 0 -0.00055625)
(0.102137 0 -0.000597498)
(0.104838 0 -0.00063367)
(0.106337 0 -0.000663785)
(0.106727 0 -0.000686601)
(0.106093 0 -0.00070131)
(0.104508 0 -0.000706429)
(0.102036 0 -0.000700011)
(0.0987366 0 -0.000679619)
(0.0946649 0 -0.000642108)
(0.0898706 0 -0.000583261)
(0.0844072 0 -0.000498456)
(0.0783339 0 -0.000381778)
(0.0717139 0 -0.000225062)
(0.0646183 0 -1.80439e-05)
(0.0571304 0 0.000252646)
(0.0493553 0 0.000604448)
(0.0414345 0 0.0010601)
(0.0335608 0 0.00165007)
(0.0260288 0 0.00241558)
(0.0194093 0 0.00339818)
(0.0151455 0 0.00452546)
(0.0080965 0 0.00687952)
(0 0 0)
(0.0201614 0 -0.000198024)
(0.0381342 0 -0.000377467)
(0.0534334 0 -0.000535851)
(0.0663309 0 -0.000676945)
(0.0770754 0 -0.000803373)
(0.085882 0 -0.000917471)
(0.0929502 0 -0.00102095)
(0.0984512 0 -0.00111421)
(0.102528 0 -0.00119723)
(0.105304 0 -0.00126972)
(0.106886 0 -0.0013303)
(0.107374 0 -0.00137711)
(0.106853 0 -0.00140825)
(0.105398 0 -0.0014208)
(0.103076 0 -0.00141102)
(0.0999514 0 -0.00137434)
(0.0960837 0 -0.00130499)
(0.0915271 0 -0.00119521)
(0.0863377 0 -0.0010358)
(0.0805842 0 -0.000815506)
(0.0743444 0 -0.00051994)
(0.0677066 0 -0.000130974)
(0.0607776 0 0.000374694)
(0.0536969 0 0.0010266)
(0.0466744 0 0.00186047)
(0.0400046 0 0.00291714)
(0.0340952 0 0.00423613)
(0.0296021 0 0.00582538)
(0.0281481 0 0.00743842)
(0.0246677 0 0.0103022)
(0 0 0)
(0.020216 0 -0.000296995)
(0.0382424 0 -0.000566226)
(0.0535948 0 -0.00080398)
(0.0665477 0 -0.00101592)
(0.0773551 0 -0.00120616)
(0.0862371 0 -0.00137819)
(0.0933909 0 -0.00153443)
(0.0989875 0 -0.00167555)
(0.103173 0 -0.00180151)
(0.106071 0 -0.00191124)
(0.107795 0 -0.00200366)
(0.108445 0 -0.00207705)
(0.108111 0 -0.0021281)
(0.106871 0 -0.00215265)
(0.104797 0 -0.00214544)
(0.101958 0 -0.00210033)
(0.0984237 0 -0.00200966)
(0.0942575 0 -0.00186341)
(0.0895225 0 -0.00164849)
(0.0842953 0 -0.00134929)
(0.0786766 0 -0.000948592)
(0.0727847 0 -0.000425008)
(0.0667603 0 0.000248273)
(0.0607854 0 0.00110344)
(0.0551322 0 0.00217391)
(0.0502173 0 0.00348143)
(0.0466307 0 0.00501326)
(0.045095 0 0.00668573)
(0.0469807 0 0.0080771)
(0.0469693 0 0.0104506)
(0 0 0)
(0.0202916 0 -0.000395439)
(0.0383924 0 -0.000754086)
(0.0538183 0 -0.00107098)
(0.0668493 0 -0.00135375)
(0.0777455 0 -0.00160834)
(0.0867301 0 -0.0018391)
(0.0940004 0 -0.00204894)
(0.0997284 0 -0.00223908)
(0.104062 0 -0.00240961)
(0.107131 0 -0.00255934)
(0.109051 0 -0.00268716)
(0.109926 0 -0.00279105)
(0.10985 0 -0.00286704)
(0.108907 0 -0.00291015)
(0.107173 0 -0.00291384)
(0.104727 0 -0.0028712)
(0.101647 0 -0.00277371)
(0.0980099 0 -0.00260986)
(0.0938957 0 -0.00236519)
(0.089393 0 -0.00202256)
(0.0846204 0 -0.00156399)
(0.0797308 0 -0.000969599)
(0.0749085 0 -0.000216881)
(0.070397 0 0.000715937)
(0.0665136 0 0.00184295)
(0.0637265 0 0.00315014)
(0.0627639 0 0.00454914)
(0.0643983 0 0.00584597)
(0.0694436 0 0.00655548)
(0.0722205 0 0.00794795)
(0 0 0)
(0.0203875 0 -0.000493457)
(0.038583 0 -0.000941024)
(0.0541014 0 -0.00133663)
(0.0672316 0 -0.00169012)
(0.0782409 0 -0.00200916)
(0.0873541 0 -0.00229903)
(0.0947703 0 -0.00256328)
(0.100664 0 -0.00280373)
(0.105186 0 -0.00302081)
(0.10847 0 -0.00321372)
(0.110637 0 -0.003381)
(0.111795 0 -0.00352017)
(0.112043 0 -0.00362736)
(0.111474 0 -0.00369741)
(0.110171 0 -0.00372339)
(0.108219 0 -0.00369766)
(0.105708 0 -0.00361144)
(0.10273 0 -0.00345331)
(0.0993838 0 -0.00320982)
(0.0957808 0 -0.00286575)
(0.0920571 0 -0.00240523)
(0.088395 0 -0.00181423)
(0.0850178 0 -0.00108081)
(0.082218 0 -0.000202207)
(0.0803779 0 0.000801576)
(0.0799693 0 0.00187427)
(0.0816888 0 0.0028646)
(0.0862056 0 0.00350529)
(0.093761 0 0.00337429)
(0.0985471 0 0.0037833)
(0 0 0)
(0.0204987 0 -0.000591033)
(0.0388048 0 -0.00112702)
(0.0544374 0 -0.0016011)
(0.0676907 0 -0.0020255)
(0.0788365 0 -0.00240933)
(0.0881037 0 -0.00275896)
(0.0956942 0 -0.00307876)
(0.101785 0 -0.00337121)
(0.106533 0 -0.00363721)
(0.110075 0 -0.00387632)
(0.112535 0 -0.0040871)
(0.114029 0 -0.00426694)
(0.114662 0 -0.00441248)
(0.114537 0 -0.00451903)
(0.113747 0 -0.00458032)
(0.112382 0 -0.00458784)
(0.110544 0 -0.00453319)
(0.108343 0 -0.00440744)
(0.105898 0 -0.00419959)
(0.103342 0 -0.00389863)
(0.100831 0 -0.00349398)
(0.0985823 0 -0.00298258)
(0.0968559 0 -0.00236881)
(0.0959473 0 -0.00166967)
(0.0962776 0 -0.000940974)
(0.098316 0 -0.000282632)
(0.10258 0 0.000123426)
(0.109448 0 1.17217e-05)
(0.118666 0 -0.000891398)
(0.124711 0 -0.00128271)
(0 0 0)
(0.020624 0 -0.000687795)
(0.0390558 0 -0.00131185)
(0.0548235 0 -0.00186455)
(0.0682225 0 -0.00236016)
(0.079527 0 -0.00280929)
(0.0889718 0 -0.00321954)
(0.0967634 0 -0.00359622)
(0.103083 0 -0.0039426)
(0.10809 0 -0.00426015)
(0.111927 0 -0.00454892)
(0.114724 0 -0.0048077)
(0.116601 0 -0.00503399)
(0.117675 0 -0.00522542)
(0.118054 0 -0.00537843)
(0.117845 0 -0.00548727)
(0.117147 0 -0.00554469)
(0.116075 0 -0.00554387)
(0.114752 0 -0.005478)
(0.113319 0 -0.00534093)
(0.111937 0 -0.00512861)
(0.110775 0 -0.00483704)
(0.110074 0 -0.00447569)
(0.110128 0 -0.0040686)
(0.111229 0 -0.00365416)
(0.113764 0 -0.00331366)
(0.118136 0 -0.00317554)
(0.124614 0 -0.00341614)
(0.133196 0 -0.00423369)
(0.143223 0 -0.00571864)
(0.149864 0 -0.00673961)
(0 0 0)
(0.0207663 0 -0.000783457)
(0.0393406 0 -0.00149492)
(0.0552589 0 -0.00212594)
(0.0688204 0 -0.00269266)
(0.0803025 0 -0.00320733)
(0.089946 0 -0.00367882)
(0.0979622 0 -0.00411354)
(0.104536 0 -0.00451562)
(0.109833 0 -0.00488728)
(0.113999 0 -0.00522922)
(0.117171 0 -0.00554077)
(0.119476 0 -0.0058202)
(0.121038 0 -0.00606607)
(0.121976 0 -0.00627577)
(0.122402 0 -0.00644456)
(0.122439 0 -0.00656875)
(0.122213 0 -0.00664413)
(0.121855 0 -0.006666)
(0.121522 0 -0.00663339)
(0.121404 0 -0.00655063)
(0.121695 0 -0.00642428)
(0.122637 0 -0.00627415)
(0.124523 0 -0.00613997)
(0.127646 0 -0.00608107)
(0.132309 0 -0.00619065)
(0.138767 0 -0.00659998)
(0.147002 0 -0.00744507)
(0.156637 0 -0.00882027)
(0.166734 0 -0.0106452)
(0.173346 0 -0.0120806)
(0 0 0)
(0.0209244 0 -0.00087806)
(0.0396561 0 -0.00167605)
(0.055739 0 -0.00238478)
(0.0694781 0 -0.0030224)
(0.0811549 0 -0.00360278)
(0.0910157 0 -0.00413604)
(0.0992776 0 -0.00462985)
(0.10613 0 -0.00508938)
(0.111742 0 -0.00551767)
(0.116267 0 -0.00591626)
(0.119846 0 -0.00628541)
(0.122616 0 -0.00662467)
(0.124707 0 -0.00693325)
(0.126247 0 -0.00720969)
(0.12736 0 -0.00745182)
(0.12818 0 -0.00765823)
(0.12885 0 -0.00782863)
(0.129522 0 -0.0079639)
(0.130358 0 -0.00806685)
(0.13156 0 -0.00814863)
(0.133354 0 -0.00822831)
(0.135972 0 -0.00833423)
(0.139674 0 -0.00851508)
(0.144733 0 -0.00884344)
(0.151332 0 -0.00940841)
(0.159536 0 -0.0103189)
(0.16904 0 -0.0116461)
(0.179161 0 -0.0133753)
(0.188796 0 -0.0152961)
(0.19483 0 -0.0168621)
(0 0 0)
(0.0210976 0 -0.000971632)
(0.0399996 0 -0.00185528)
(0.0562595 0 -0.00264115)
(0.0701903 0 -0.00334953)
(0.0820768 0 -0.00399582)
(0.0921711 0 -0.00459138)
(0.100697 0 -0.00514531)
(0.107849 0 -0.00566399)
(0.113799 0 -0.00615134)
(0.118706 0 -0.00660993)
(0.122719 0 -0.00704109)
(0.125981 0 -0.00744563)
(0.12863 0 -0.00782366)
(0.130803 0 -0.00817589)
(0.132641 0 -0.00850378)
(0.13428 0 -0.00880694)
(0.135876 0 -0.00908882)
(0.137603 0 -0.00935648)
(0.139639 0 -0.00961935)
(0.142187 0 -0.00989372)
(0.145476 0 -0.0102064)
(0.149724 0 -0.0105924)
(0.155154 0 -0.0111041)
(0.161978 0 -0.0118132)
(0.170243 0 -0.0127901)
(0.179815 0 -0.0141002)
(0.190137 0 -0.0157396)
(0.200345 0 -0.0176081)
(0.209269 0 -0.0194262)
(0.214503 0 -0.0208642)
(0 0 0)
(0.0212844 0 -0.00106377)
(0.0403663 0 -0.00203167)
(0.0568133 0 -0.00289372)
(0.0709475 0 -0.00367234)
(0.0830556 0 -0.00438445)
(0.0933972 0 -0.00504297)
(0.102204 0 -0.0056583)
(0.109672 0 -0.00623758)
(0.115977 0 -0.00678606)
(0.121286 0 -0.00730757)
(0.125753 0 -0.00780465)
(0.129527 0 -0.0082795)
(0.132754 0 -0.00873364)
(0.135581 0 -0.0091697)
(0.138159 0 -0.0095921)
(0.140637 0 -0.0100041)
(0.143176 0 -0.010412)
(0.145954 0 -0.0108261)
(0.149174 0 -0.011264)
(0.153034 0 -0.0117464)
(0.157744 0 -0.0123027)
(0.163506 0 -0.012972)
(0.1705 0 -0.0138042)
(0.178827 0 -0.0148531)
(0.18844 0 -0.016165)
(0.199015 0 -0.0177479)
(0.209815 0 -0.0195266)
(0.219916 0 -0.0213504)
(0.228189 0 -0.0229472)
(0.232788 0 -0.0241322)
(0 0 0)
(0.0214741 0 -0.00115376)
(0.0407473 0 -0.00220444)
(0.0573939 0 -0.00314168)
(0.0717421 0 -0.00398988)
(0.0840842 0 -0.00476764)
(0.0946862 0 -0.00548977)
(0.103784 0 -0.00616737)
(0.111581 0 -0.00680878)
(0.118258 0 -0.00742077)
(0.123981 0 -0.00800756)
(0.128914 0 -0.00857379)
(0.133214 0 -0.00912337)
(0.137032 0 -0.00965928)
(0.140523 0 -0.0101861)
(0.143842 0 -0.0107099)
(0.147153 0 -0.0112385)
(0.150621 0 -0.0117809)
(0.154423 0 -0.0123506)
(0.158763 0 -0.0129686)
(0.163832 0 -0.0136593)
(0.169821 0 -0.0144535)
(0.176907 0 -0.0153894)
(0.185199 0 -0.0165052)
(0.194707 0 -0.0178327)
(0.205325 0 -0.0193899)
(0.216591 0 -0.021129)
(0.227705 0 -0.0229213)
(0.237761 0 -0.024591)
(0.245712 0 -0.0259272)
(0.250201 0 -0.0268062)
(0 0 0)
(0.0216652 0 -0.00124164)
(0.0411403 0 -0.00237387)
(0.057998 0 -0.00338546)
(0.0725697 0 -0.00430263)
(0.0851558 0 -0.00514581)
(0.0960262 0 -0.00593108)
(0.105424 0 -0.00667126)
(0.113562 0 -0.00737674)
(0.12062 0 -0.00805414)
(0.126765 0 -0.00870829)
(0.13217 0 -0.00934593)
(0.136997 0 -0.00997267)
(0.141404 0 -0.0105932)
(0.145552 0 -0.0112146)
(0.149598 0 -0.011844)
(0.153708 0 -0.0124917)
(0.158053 0 -0.0131703)
(0.162811 0 -0.0138963)
(0.16816 0 -0.0146895)
(0.174281 0 -0.0155761)
(0.181354 0 -0.0165887)
(0.189499 0 -0.0177568)
(0.198759 0 -0.0191045)
(0.209112 0 -0.0206477)
(0.22038 0 -0.0223723)
(0.232064 0 -0.0241913)
(0.243438 0 -0.0259486)
(0.253683 0 -0.0274519)
(0.261802 0 -0.0285505)
(0.267284 0 -0.0290861)
(0 0 0)
(0.0218643 0 -0.00132756)
(0.0415459 0 -0.00253962)
(0.0586195 0 -0.00362422)
(0.0734209 0 -0.00460941)
(0.0862557 0 -0.00551727)
(0.0974003 0 -0.00636526)
(0.107109 0 -0.00716864)
(0.115594 0 -0.00793853)
(0.123031 0 -0.00868125)
(0.129597 0 -0.00940367)
(0.135468 0 -0.0101132)
(0.140809 0 -0.0108171)
(0.145786 0 -0.0115228)
(0.150563 0 -0.0122386)
(0.155293 0 -0.0129727)
(0.160147 0 -0.0137379)
(0.165294 0 -0.0145493)
(0.170897 0 -0.0154229)
(0.177108 0 -0.0163776)
(0.184098 0 -0.0174406)
(0.192011 0 -0.0186401)
(0.200906 0 -0.0199952)
(0.210795 0 -0.0215215)
(0.221625 0 -0.0232219)
(0.233169 0 -0.0250596)
(0.244963 0 -0.0269361)
(0.256428 0 -0.0286969)
(0.266932 0 -0.0301391)
(0.275617 0 -0.0310972)
(0.284302 0 -0.03121)
(0 0 0)
(0.0220687 0 -0.00141154)
(0.0419608 0 -0.00270169)
(0.0592547 0 -0.00385797)
(0.0742909 0 -0.00491028)
(0.08738 0 -0.00588229)
(0.0988068 0 -0.00679341)
(0.10883 0 -0.00765986)
(0.117659 0 -0.00849299)
(0.125471 0 -0.00930066)
(0.132452 0 -0.0100914)
(0.138781 0 -0.0108734)
(0.144621 0 -0.0116545)
(0.150142 0 -0.0124444)
(0.155511 0 -0.0132527)
(0.160881 0 -0.0140898)
(0.166417 0 -0.0149692)
(0.172268 0 -0.0159041)
(0.17857 0 -0.0169092)
(0.185479 0 -0.0180061)
(0.193135 0 -0.0192192)
(0.20162 0 -0.020567)
(0.210959 0 -0.0220631)
(0.221133 0 -0.023716)
(0.232047 0 -0.025519)
(0.243444 0 -0.0274306)
(0.254905 0 -0.029371)
(0.265954 0 -0.0312469)
(0.276086 0 -0.0329764)
(0.284745 0 -0.0346232)
(0.301415 0 -0.0333988)
(0 0 0)
(0.0201182 0 0)
(0.0380478 0 0)
(0.0533033 0 0)
(0.0661535 0 0)
(0.0768453 0 0)
(0.0855931 0 0)
(0.092594 0 0)
(0.0980181 0 0)
(0.102007 0 0)
(0.104683 0 0)
(0.106152 0 0)
(0.10651 0 0)
(0.105838 0 0)
(0.104209 0 0)
(0.101686 0 0)
(0.0983288 0 0)
(0.0941888 0 0)
(0.0893158 0 0)
(0.0837611 0 0)
(0.0775801 0 0)
(0.0708316 0 0)
(0.0635802 0 0)
(0.0558999 0 0)
(0.0478806 0 0)
(0.039638 0 0)
(0.0313315 0 0)
(0.0232228 0 0)
(0.0158205 0 0)
(0.0103887 0 0)
(0 0 0)
(0 0 0)
(0.0201284 0 -9.88931e-05)
(0.0380688 0 -0.000188477)
(0.0533355 0 -0.000267511)
(0.0661985 0 -0.000337905)
(0.0769042 0 -0.000401198)
(0.0856661 0 -0.000458318)
(0.0926833 0 -0.000509867)
(0.0981266 0 -0.00055625)
(0.102137 0 -0.000597498)
(0.104838 0 -0.00063367)
(0.106337 0 -0.000663785)
(0.106727 0 -0.000686601)
(0.106093 0 -0.00070131)
(0.104508 0 -0.000706429)
(0.102036 0 -0.000700011)
(0.0987366 0 -0.000679619)
(0.0946649 0 -0.000642108)
(0.0898706 0 -0.000583261)
(0.0844072 0 -0.000498456)
(0.0783339 0 -0.000381778)
(0.0717139 0 -0.000225062)
(0.0646183 0 -1.80439e-05)
(0.0571304 0 0.000252646)
(0.0493553 0 0.000604448)
(0.0414345 0 0.0010601)
(0.0335608 0 0.00165007)
(0.0260288 0 0.00241558)
(0.0194093 0 0.00339818)
(0.0151455 0 0.00452546)
(0.0080965 0 0.00687952)
(0 0 0)
(0.0201614 0 -0.000198024)
(0.0381342 0 -0.000377467)
(0.0534334 0 -0.000535851)
(0.0663309 0 -0.000676945)
(0.0770754 0 -0.000803373)
(0.085882 0 -0.000917471)
(0.0929502 0 -0.00102095)
(0.0984512 0 -0.00111421)
(0.102528 0 -0.00119723)
(0.105304 0 -0.00126972)
(0.106886 0 -0.0013303)
(0.107374 0 -0.00137711)
(0.106853 0 -0.00140825)
(0.105398 0 -0.0014208)
(0.103076 0 -0.00141102)
(0.0999514 0 -0.00137434)
(0.0960837 0 -0.00130499)
(0.0915271 0 -0.00119521)
(0.0863377 0 -0.0010358)
(0.0805842 0 -0.000815506)
(0.0743444 0 -0.00051994)
(0.0677066 0 -0.000130974)
(0.0607776 0 0.000374694)
(0.0536969 0 0.0010266)
(0.0466744 0 0.00186047)
(0.0400046 0 0.00291714)
(0.0340952 0 0.00423613)
(0.0296021 0 0.00582538)
(0.0281481 0 0.00743842)
(0.0246677 0 0.0103022)
(0 0 0)
(0.020216 0 -0.000296995)
(0.0382424 0 -0.000566226)
(0.0535948 0 -0.00080398)
(0.0665477 0 -0.00101592)
(0.0773551 0 -0.00120616)
(0.0862371 0 -0.00137819)
(0.0933909 0 -0.00153443)
(0.0989875 0 -0.00167555)
(0.103173 0 -0.00180151)
(0.106071 0 -0.00191124)
(0.107795 0 -0.00200366)
(0.108445 0 -0.00207705)
(0.108111 0 -0.0021281)
(0.106871 0 -0.00215265)
(0.104797 0 -0.00214544)
(0.101958 0 -0.00210033)
(0.0984237 0 -0.00200966)
(0.0942575 0 -0.00186341)
(0.0895225 0 -0.00164849)
(0.0842953 0 -0.00134929)
(0.0786766 0 -0.000948592)
(0.0727847 0 -0.000425008)
(0.0667603 0 0.000248273)
(0.0607854 0 0.00110344)
(0.0551322 0 0.00217391)
(0.0502173 0 0.00348143)
(0.0466307 0 0.00501326)
(0.045095 0 0.00668573)
(0.0469807 0 0.0080771)
(0.0469693 0 0.0104506)
(0 0 0)
(0.0202916 0 -0.000395439)
(0.0383924 0 -0.000754086)
(0.0538183 0 -0.00107098)
(0.0668493 0 -0.00135375)
(0.0777455 0 -0.00160834)
(0.0867301 0 -0.0018391)
(0.0940004 0 -0.00204894)
(0.0997284 0 -0.00223908)
(0.104062 0 -0.00240961)
(0.107131 0 -0.00255934)
(0.109051 0 -0.00268716)
(0.109926 0 -0.00279105)
(0.10985 0 -0.00286704)
(0.108907 0 -0.00291015)
(0.107173 0 -0.00291384)
(0.104727 0 -0.0028712)
(0.101647 0 -0.00277371)
(0.0980099 0 -0.00260986)
(0.0938957 0 -0.00236519)
(0.089393 0 -0.00202256)
(0.0846204 0 -0.00156399)
(0.0797308 0 -0.000969599)
(0.0749085 0 -0.000216881)
(0.070397 0 0.000715937)
(0.0665136 0 0.00184295)
(0.0637265 0 0.00315014)
(0.0627639 0 0.00454914)
(0.0643983 0 0.00584597)
(0.0694436 0 0.00655548)
(0.0722205 0 0.00794795)
(0 0 0)
(0.0203875 0 -0.000493457)
(0.038583 0 -0.000941024)
(0.0541014 0 -0.00133663)
(0.0672316 0 -0.00169012)
(0.0782409 0 -0.00200916)
(0.0873541 0 -0.00229903)
(0.0947703 0 -0.00256328)
(0.100664 0 -0.00280373)
(0.105186 0 -0.00302081)
(0.10847 0 -0.00321372)
(0.110637 0 -0.003381)
(0.111795 0 -0.00352017)
(0.112043 0 -0.00362736)
(0.111474 0 -0.00369741)
(0.110171 0 -0.00372339)
(0.108219 0 -0.00369766)
(0.105708 0 -0.00361144)
(0.10273 0 -0.00345331)
(0.0993838 0 -0.00320982)
(0.0957808 0 -0.00286575)
(0.0920571 0 -0.00240523)
(0.088395 0 -0.00181423)
(0.0850178 0 -0.00108081)
(0.082218 0 -0.000202207)
(0.0803779 0 0.000801576)
(0.0799693 0 0.00187427)
(0.0816888 0 0.0028646)
(0.0862056 0 0.00350529)
(0.093761 0 0.00337429)
(0.0985471 0 0.0037833)
(0 0 0)
(0.0204987 0 -0.000591033)
(0.0388048 0 -0.00112702)
(0.0544374 0 -0.0016011)
(0.0676907 0 -0.0020255)
(0.0788365 0 -0.00240933)
(0.0881037 0 -0.00275896)
(0.0956942 0 -0.00307876)
(0.101785 0 -0.00337121)
(0.106533 0 -0.00363721)
(0.110075 0 -0.00387632)
(0.112535 0 -0.0040871)
(0.114029 0 -0.00426694)
(0.114662 0 -0.00441248)
(0.114537 0 -0.00451903)
(0.113747 0 -0.00458032)
(0.112382 0 -0.00458784)
(0.110544 0 -0.00453319)
(0.108343 0 -0.00440744)
(0.105898 0 -0.00419959)
(0.103342 0 -0.00389863)
(0.100831 0 -0.00349398)
(0.0985823 0 -0.00298258)
(0.0968559 0 -0.00236881)
(0.0959473 0 -0.00166967)
(0.0962776 0 -0.000940974)
(0.098316 0 -0.000282632)
(0.10258 0 0.000123426)
(0.109448 0 1.17217e-05)
(0.118666 0 -0.000891398)
(0.124711 0 -0.00128271)
(0 0 0)
(0.020624 0 -0.000687795)
(0.0390558 0 -0.00131185)
(0.0548235 0 -0.00186455)
(0.0682225 0 -0.00236016)
(0.079527 0 -0.00280929)
(0.0889718 0 -0.00321954)
(0.0967634 0 -0.00359622)
(0.103083 0 -0.0039426)
(0.10809 0 -0.00426015)
(0.111927 0 -0.00454892)
(0.114724 0 -0.0048077)
(0.116601 0 -0.00503399)
(0.117675 0 -0.00522542)
(0.118054 0 -0.00537843)
(0.117845 0 -0.00548727)
(0.117147 0 -0.00554469)
(0.116075 0 -0.00554387)
(0.114752 0 -0.005478)
(0.113319 0 -0.00534093)
(0.111937 0 -0.00512861)
(0.110775 0 -0.00483704)
(0.110074 0 -0.00447569)
(0.110128 0 -0.0040686)
(0.111229 0 -0.00365416)
(0.113764 0 -0.00331366)
(0.118136 0 -0.00317554)
(0.124614 0 -0.00341614)
(0.133196 0 -0.00423369)
(0.143223 0 -0.00571864)
(0.149864 0 -0.00673961)
(0 0 0)
(0.0207663 0 -0.000783457)
(0.0393406 0 -0.00149492)
(0.0552589 0 -0.00212594)
(0.0688204 0 -0.00269266)
(0.0803025 0 -0.00320733)
(0.089946 0 -0.00367882)
(0.0979622 0 -0.00411354)
(0.104536 0 -0.00451562)
(0.109833 0 -0.00488728)
(0.113999 0 -0.00522922)
(0.117171 0 -0.00554077)
(0.119476 0 -0.0058202)
(0.121038 0 -0.00606607)
(0.121976 0 -0.00627577)
(0.122402 0 -0.00644456)
(0.122439 0 -0.00656875)
(0.122213 0 -0.00664413)
(0.121855 0 -0.006666)
(0.121522 0 -0.00663339)
(0.121404 0 -0.00655063)
(0.121695 0 -0.00642428)
(0.122637 0 -0.00627415)
(0.124523 0 -0.00613997)
(0.127646 0 -0.00608107)
(0.132309 0 -0.00619065)
(0.138767 0 -0.00659998)
(0.147002 0 -0.00744507)
(0.156637 0 -0.00882027)
(0.166734 0 -0.0106452)
(0.173346 0 -0.0120806)
(0 0 0)
(0.0209244 0 -0.00087806)
(0.0396561 0 -0.00167605)
(0.055739 0 -0.00238478)
(0.0694781 0 -0.0030224)
(0.0811549 0 -0.00360278)
(0.0910157 0 -0.00413604)
(0.0992776 0 -0.00462985)
(0.10613 0 -0.00508938)
(0.111742 0 -0.00551767)
(0.116267 0 -0.00591626)
(0.119846 0 -0.00628541)
(0.122616 0 -0.00662467)
(0.124707 0 -0.00693325)
(0.126247 0 -0.00720969)
(0.12736 0 -0.00745182)
(0.12818 0 -0.00765823)
(0.12885 0 -0.00782863)
(0.129522 0 -0.0079639)
(0.130358 0 -0.00806685)
(0.13156 0 -0.00814863)
(0.133354 0 -0.00822831)
(0.135972 0 -0.00833423)
(0.139674 0 -0.00851508)
(0.144733 0 -0.00884344)
(0.151332 0 -0.00940841)
(0.159536 0 -0.0103189)
(0.16904 0 -0.0116461)
(0.179161 0 -0.0133753)
(0.188796 0 -0.0152961)
(0.19483 0 -0.0168621)
(0 0 0)
(0.0210976 0 -0.000971632)
(0.0399996 0 -0.00185528)
(0.0562595 0 -0.00264115)
(0.0701903 0 -0.00334953)
(0.0820768 0 -0.00399582)
(0.0921711 0 -0.00459138)
(0.100697 0 -0.00514531)
(0.107849 0 -0.00566399)
(0.113799 0 -0.00615134)
(0.118706 0 -0.00660993)
(0.122719 0 -0.00704109)
(0.125981 0 -0.00744563)
(0.12863 0 -0.00782366)
(0.130803 0 -0.00817589)
(0.132641 0 -0.00850378)
(0.13428 0 -0.00880694)
(0.135876 0 -0.00908882)
(0.137603 0 -0.00935648)
(0.139639 0 -0.00961935)
(0.142187 0 -0.00989372)
(0.145476 0 -0.0102064)
(0.149724 0 -0.0105924)
(0.155154 0 -0.0111041)
(0.161978 0 -0.0118132)
(0.170243 0 -0.0127901)
(0.179815 0 -0.0141002)
(0.190137 0 -0.0157396)
(0.200345 0 -0.0176081)
(0.209269 0 -0.0194262)
(0.214503 0 -0.0208642)
(0 0 0)
(0.0212844 0 -0.00106377)
(0.0403663 0 -0.00203167)
(0.0568133 0 -0.00289372)
(0.0709475 0 -0.00367234)
(0.0830556 0 -0.00438445)
(0.0933972 0 -0.00504297)
(0.102204 0 -0.0056583)
(0.109672 0 -0.00623758)
(0.115977 0 -0.00678606)
(0.121286 0 -0.00730757)
(0.125753 0 -0.00780465)
(0.129527 0 -0.0082795)
(0.132754 0 -0.00873364)
(0.135581 0 -0.0091697)
(0.138159 0 -0.0095921)
(0.140637 0 -0.0100041)
(0.143176 0 -0.010412)
(0.145954 0 -0.0108261)
(0.149174 0 -0.011264)
(0.153034 0 -0.0117464)
(0.157744 0 -0.0123027)
(0.163506 0 -0.012972)
(0.1705 0 -0.0138042)
(0.178827 0 -0.0148531)
(0.18844 0 -0.016165)
(0.199015 0 -0.0177479)
(0.209815 0 -0.0195266)
(0.219916 0 -0.0213504)
(0.228189 0 -0.0229472)
(0.232788 0 -0.0241322)
(0 0 0)
(0.0214741 0 -0.00115376)
(0.0407473 0 -0.00220444)
(0.0573939 0 -0.00314168)
(0.0717421 0 -0.00398988)
(0.0840842 0 -0.00476764)
(0.0946862 0 -0.00548977)
(0.103784 0 -0.00616737)
(0.111581 0 -0.00680878)
(0.118258 0 -0.00742077)
(0.123981 0 -0.00800756)
(0.128914 0 -0.00857379)
(0.133214 0 -0.00912337)
(0.137032 0 -0.00965928)
(0.140523 0 -0.0101861)
(0.143842 0 -0.0107099)
(0.147153 0 -0.0112385)
(0.150621 0 -0.0117809)
(0.154423 0 -0.0123506)
(0.158763 0 -0.0129686)
(0.163832 0 -0.0136593)
(0.169821 0 -0.0144535)
(0.176907 0 -0.0153894)
(0.185199 0 -0.0165052)
(0.194707 0 -0.0178327)
(0.205325 0 -0.0193899)
(0.216591 0 -0.021129)
(0.227705 0 -0.0229213)
(0.237761 0 -0.024591)
(0.245712 0 -0.0259272)
(0.250201 0 -0.0268062)
(0 0 0)
(0.0216652 0 -0.00124164)
(0.0411403 0 -0.00237387)
(0.057998 0 -0.00338546)
(0.0725697 0 -0.00430263)
(0.0851558 0 -0.00514581)
(0.0960262 0 -0.00593108)
(0.105424 0 -0.00667126)
(0.113562 0 -0.00737674)
(0.12062 0 -0.00805414)
(0.126765 0 -0.00870829)
(0.13217 0 -0.00934593)
(0.136997 0 -0.00997267)
(0.141404 0 -0.0105932)
(0.145552 0 -0.0112146)
(0.149598 0 -0.011844)
(0.153708 0 -0.0124917)
(0.158053 0 -0.0131703)
(0.162811 0 -0.0138963)
(0.16816 0 -0.0146895)
(0.174281 0 -0.0155761)
(0.181354 0 -0.0165887)
(0.189499 0 -0.0177568)
(0.198759 0 -0.0191045)
(0.209112 0 -0.0206477)
(0.22038 0 -0.0223723)
(0.232064 0 -0.0241913)
(0.243438 0 -0.0259486)
(0.253683 0 -0.0274519)
(0.261802 0 -0.0285505)
(0.267284 0 -0.0290861)
(0 0 0)
(0.0218643 0 -0.00132756)
(0.0415459 0 -0.00253962)
(0.0586195 0 -0.00362422)
(0.0734209 0 -0.00460941)
(0.0862557 0 -0.00551727)
(0.0974003 0 -0.00636526)
(0.107109 0 -0.00716864)
(0.115594 0 -0.00793853)
(0.123031 0 -0.00868125)
(0.129597 0 -0.00940367)
(0.135468 0 -0.0101132)
(0.140809 0 -0.0108171)
(0.145786 0 -0.0115228)
(0.150563 0 -0.0122386)
(0.155293 0 -0.0129727)
(0.160147 0 -0.0137379)
(0.165294 0 -0.0145493)
(0.170897 0 -0.0154229)
(0.177108 0 -0.0163776)
(0.184098 0 -0.0174406)
(0.192011 0 -0.0186401)
(0.200906 0 -0.0199952)
(0.210795 0 -0.0215215)
(0.221625 0 -0.0232219)
(0.233169 0 -0.0250596)
(0.244963 0 -0.0269361)
(0.256428 0 -0.0286969)
(0.266932 0 -0.0301391)
(0.275617 0 -0.0310972)
(0.284302 0 -0.03121)
(0 0 0)
(0.0220687 0 -0.00141154)
(0.0419608 0 -0.00270169)
(0.0592547 0 -0.00385797)
(0.0742909 0 -0.00491028)
(0.08738 0 -0.00588229)
(0.0988068 0 -0.00679341)
(0.10883 0 -0.00765986)
(0.117659 0 -0.00849299)
(0.125471 0 -0.00930066)
(0.132452 0 -0.0100914)
(0.138781 0 -0.0108734)
(0.144621 0 -0.0116545)
(0.150142 0 -0.0124444)
(0.155511 0 -0.0132527)
(0.160881 0 -0.0140898)
(0.166417 0 -0.0149692)
(0.172268 0 -0.0159041)
(0.17857 0 -0.0169092)
(0.185479 0 -0.0180061)
(0.193135 0 -0.0192192)
(0.20162 0 -0.020567)
(0.210959 0 -0.0220631)
(0.221133 0 -0.023716)
(0.232047 0 -0.025519)
(0.243444 0 -0.0274306)
(0.254905 0 -0.029371)
(0.265954 0 -0.0312469)
(0.276086 0 -0.0329764)
(0.284745 0 -0.0346232)
(0.301415 0 -0.0333988)
(0 0 0)
(0.0181142 0 0)
(0.0337416 0 0)
(0.0544627 0 0)
(0.0765632 0 0)
(0.097534 0 0)
(0.116215 0 0)
(0.132294 0 0)
(0.14581 0 0)
(0.156948 0 0)
(0.165917 0 0)
(0.172909 0 0)
(0.178088 0 0)
(0.181578 0 0)
(0.183484 0 0)
(0.18388 0 0)
(0.182807 0 0)
(0.18029 0 0)
(0.176337 0 0)
(0.17093 0 0)
(0.164035 0 0)
(0.155617 0 0)
(0.145626 0 0)
(0.133992 0 0)
(0.120635 0 0)
(0.105475 0 0)
(0.0884268 0 0)
(0.0693987 0 0)
(0.0483001 0 0)
(0.0250185 0 0)
(0 0 0)
(0.00650556 0 -0.00875796)
(0.0223858 0 -0.00830672)
(0.0378986 0 -0.00882926)
(0.0580898 0 -0.00887681)
(0.0795422 0 -0.00861156)
(0.0999255 0 -0.00816946)
(0.118126 0 -0.00765279)
(0.133825 0 -0.0071132)
(0.147044 0 -0.00658445)
(0.157948 0 -0.00607639)
(0.166734 0 -0.00560035)
(0.173576 0 -0.0051625)
(0.178632 0 -0.00474832)
(0.182025 0 -0.0043636)
(0.183851 0 -0.0040119)
(0.184182 0 -0.00368761)
(0.183057 0 -0.00338512)
(0.180498 0 -0.00309627)
(0.176509 0 -0.00282392)
(0.171071 0 -0.00257013)
(0.164151 0 -0.0023299)
(0.155712 0 -0.00210018)
(0.145705 0 -0.00187731)
(0.134059 0 -0.00165841)
(0.120691 0 -0.00144142)
(0.105521 0 -0.00122357)
(0.0884642 0 -0.00100171)
(0.0694285 0 -0.000772269)
(0.0483222 0 -0.000531234)
(0.0250315 0 -0.000273684)
(0 0 0)
(0.0208045 0 -0.0161143)
(0.0343865 0 -0.0160356)
(0.0495397 0 -0.0169064)
(0.0683208 0 -0.0169592)
(0.0880404 0 -0.0164755)
(0.106811 0 -0.0156754)
(0.123667 0 -0.0147325)
(0.13829 0 -0.0137406)
(0.150656 0 -0.0127591)
(0.160887 0 -0.0118168)
(0.169132 0 -0.0109196)
(0.175534 0 -0.0100799)
(0.180234 0 -0.00929482)
(0.183341 0 -0.00856068)
(0.184933 0 -0.0078792)
(0.185072 0 -0.00724868)
(0.183792 0 -0.00665947)
(0.181106 0 -0.00610211)
(0.177012 0 -0.00557603)
(0.171486 0 -0.00508036)
(0.164495 0 -0.00460955)
(0.155997 0 -0.00415601)
(0.145942 0 -0.0037146)
(0.134254 0 -0.00328272)
(0.120852 0 -0.00285442)
(0.105653 0 -0.00242397)
(0.0885706 0 -0.00198512)
(0.0695116 0 -0.00153089)
(0.0483821 0 -0.00105335)
(0.0250645 0 -0.000542773)
(0 0 0)
(0.0409817 0 -0.0228645)
(0.0521936 0 -0.0229595)
(0.0666343 0 -0.0239571)
(0.0834485 0 -0.0239672)
(0.10079 0 -0.0233173)
(0.117302 0 -0.0222666)
(0.132224 0 -0.0210173)
(0.145264 0 -0.0196918)
(0.15635 0 -0.0183602)
(0.165545 0 -0.0170707)
(0.172945 0 -0.0158312)
(0.178662 0 -0.0146533)
(0.182805 0 -0.0135484)
(0.185455 0 -0.0125108)
(0.186675 0 -0.0115402)
(0.186508 0 -0.0106327)
(0.184977 0 -0.00977972)
(0.182086 0 -0.00897695)
(0.177822 0 -0.00821784)
(0.172156 0 -0.00749658)
(0.16505 0 -0.00680748)
(0.156461 0 -0.00614212)
(0.146326 0 -0.00549397)
(0.13457 0 -0.00485836)
(0.121111 0 -0.00422696)
(0.105865 0 -0.00359137)
(0.0887405 0 -0.00294246)
(0.0696436 0 -0.00227002)
(0.0484768 0 -0.00156241)
(0.0251165 0 -0.00080527)
(0 0 0)
(0.0648344 0 -0.0290286)
(0.0738487 0 -0.0291105)
(0.0871703 0 -0.0300284)
(0.101734 0 -0.0299382)
(0.116431 0 -0.0291578)
(0.130404 0 -0.0279484)
(0.143082 0 -0.0264996)
(0.154231 0 -0.0249487)
(0.163748 0 -0.0233691)
(0.171639 0 -0.0218112)
(0.177966 0 -0.0203044)
(0.182804 0 -0.0188605)
(0.18622 0 -0.0174876)
(0.188271 0 -0.0161892)
(0.188999 0 -0.0149683)
(0.188428 0 -0.0138182)
(0.186562 0 -0.0127321)
(0.183398 0 -0.0117076)
(0.178909 0 -0.0107355)
(0.173057 0 -0.00980629)
(0.165796 0 -0.00891246)
(0.15708 0 -0.00804785)
(0.146838 0 -0.00720578)
(0.13499 0 -0.00637713)
(0.121456 0 -0.00555204)
(0.106145 0 -0.00471987)
(0.0889652 0 -0.0038689)
(0.0698176 0 -0.00298594)
(0.0486018 0 -0.00205589)
(0.0251857 0 -0.00105988)
(0 0 0)
(0.0905904 0 -0.0345834)
(0.0976205 0 -0.0344925)
(0.109469 0 -0.0351903)
(0.121711 0 -0.0349591)
(0.133772 0 -0.0340782)
(0.145177 0 -0.0327798)
(0.15553 0 -0.0312212)
(0.164647 0 -0.0295284)
(0.172432 0 -0.0277867)
(0.178854 0 -0.0260399)
(0.18395 0 -0.0243291)
(0.187762 0 -0.0226775)
(0.190327 0 -0.0210934)
(0.191673 0 -0.0195829)
(0.191815 0 -0.0181482)
(0.190757 0 -0.0167886)
(0.188491 0 -0.0155)
(0.184994 0 -0.014277)
(0.180231 0 -0.0131115)
(0.174155 0 -0.0119934)
(0.166709 0 -0.0109135)
(0.157835 0 -0.00986554)
(0.147459 0 -0.00884197)
(0.135501 0 -0.00783175)
(0.121874 0 -0.00682334)
(0.106484 0 -0.00580412)
(0.0892359 0 -0.00476007)
(0.0700267 0 -0.00367527)
(0.0487538 0 -0.00253153)
(0.025273 0 -0.00130565)
(0 0 0)
(0.116884 0 -0.0394023)
(0.122114 0 -0.0390635)
(0.132262 0 -0.039486)
(0.142268 0 -0.0391187)
(0.151863 0 -0.0381775)
(0.160814 0 -0.0368398)
(0.168911 0 -0.0352407)
(0.175985 0 -0.0334739)
(0.181972 0 -0.0316307)
(0.186854 0 -0.0297648)
(0.190633 0 -0.0279114)
(0.193331 0 -0.0261016)
(0.194962 0 -0.0243532)
(0.195526 0 -0.0226744)
(0.195016 0 -0.0210679)
(0.193417 0 -0.0195353)
(0.1907 0 -0.0180734)
(0.186825 0 -0.0166754)
(0.181749 0 -0.0153362)
(0.175414 0 -0.0140482)
(0.167754 0 -0.0128012)
(0.158699 0 -0.0115867)
(0.148172 0 -0.0103954)
(0.136086 0 -0.00921593)
(0.122351 0 -0.00803533)
(0.106871 0 -0.00683939)
(0.0895433 0 -0.00561206)
(0.070263 0 -0.00433495)
(0.0489196 0 -0.00298674)
(0.0253607 0 -0.00154063)
(0 0 0)
(0.14267 0 -0.0433021)
(0.146285 0 -0.0427853)
(0.154678 0 -0.0429672)
(0.162615 0 -0.0425094)
(0.169989 0 -0.0415564)
(0.176695 0 -0.0402216)
(0.182664 0 -0.0386226)
(0.187768 0 -0.0368344)
(0.191978 0 -0.0349381)
(0.195308 0 -0.0330011)
(0.197752 0 -0.0310604)
(0.199305 0 -0.0291444)
(0.199958 0 -0.0272735)
(0.199693 0 -0.0254613)
(0.198489 0 -0.0237171)
(0.196311 0 -0.0220443)
(0.193112 0 -0.0204395)
(0.188833 0 -0.0188949)
(0.183418 0 -0.0174063)
(0.176799 0 -0.0159683)
(0.168902 0 -0.014571)