/*--------------------------------*- C++ -*----------------------------------*\
| =========                 |                                                 |
| \\      /  F ield         | OpenFOAM: The Open Source CFD Toolbox           |
|  \\    /   O peration     | Version:  dev                                   |
|   \\  /    A nd           | Web:      www.OpenFOAM.org                      |
|    \\/     M anipulation  |                                                 |
\*---------------------------------------------------------------------------*/
FoamFile
{
    version     2.0;
    format      ascii;
    class       volScalarField;
    location    "0.56";
    object      p;
}
// * * * * * * * * * * * * * * * * * * * * * * * * * * * * * * * * * * * * * //

dimensions      [0 2 -2 0 0 0 0];

internalField   nonuniform List<scalar> 
2790
(
156.238
156.101
156.365
157.094
158.134
159.381
160.812
162.425
164.212
166.159
168.25
170.47
172.803
175.229
177.726
180.27
182.83
185.371
187.855
190.236
192.466
194.495
196.275
197.762
198.93
199.769
200.307
200.587
200.769
201.061
156.05
156.006
156.289
157.014
158.049
159.292
160.717
162.324
164.103
166.041
168.124
170.335
172.659
175.078
177.569
180.108
182.666
185.208
187.697
190.089
192.335
194.386
196.192
197.709
198.906
199.77
200.323
200.635
200.88
201.169
155.844
155.867
156.164
156.875
157.895
159.122
160.529
162.115
163.871
165.784
167.839
170.02
172.313
174.698
177.156
179.663
182.192
184.71
187.181
189.566
191.818
193.891
195.739
197.32
198.604
199.584
200.282
200.766
201.15
201.51
155.604
155.657
155.96
156.657
157.658
158.865
160.249
161.807
163.532
165.409
167.425
169.564
171.811
174.149
176.558
179.015
181.497
183.973
186.411
188.776
191.026
193.121
195.019
196.685
198.094
199.24
200.144
200.846
201.403
201.916
155.322
155.386
155.692
156.375
157.354
158.534
159.887
161.41
163.093
164.925
166.89
168.975
171.164
173.44
175.785
178.179
180.599
183.02
185.413
187.747
189.989
192.103
194.056
195.817
197.365
198.691
199.802
200.709
201.424
202.08
154.994
155.059
155.36
156.026
156.978
158.126
159.441
160.92
162.554
164.331
166.235
168.254
170.373
172.575
174.844
177.161
179.507
181.859
184.195
186.487
188.711
190.837
192.838
194.688
196.367
197.859
199.155
200.242
201.1
201.938
154.618
154.678
154.968
155.613
156.535
157.644
158.915
160.343
161.919
163.631
165.465
167.407
169.443
171.559
173.739
175.966
178.223
180.493
182.756
184.992
187.182
189.304
191.337
193.259
195.047
196.68
198.13
199.363
200.306
201.166
154.195
154.244
154.518
155.138
156.025
157.091
158.311
159.68
161.19
162.829
164.582
166.436
168.379
170.395
172.472
174.594
176.747
178.916
181.088
183.248
185.382
187.477
189.517
191.484
193.355
195.1
196.678
198.035
199.064
200.03
153.723
153.76
154.012
154.603
155.451
156.469
157.632
158.936
160.373
161.929
163.591
165.347
167.183
169.087
171.045
173.045
175.074
177.122
179.179
181.235
183.284
185.319
187.332
189.309
191.23
193.061
194.752
196.24
197.383
198.457
153.205
153.226
153.454
154.012
154.817
155.782
156.882
158.114
159.47
160.935
162.498
164.144
165.862
167.638
169.462
171.321
173.205
175.106
177.017
178.935
180.858
182.787
184.724
186.663
188.589
190.472
192.263
193.901
195.256
196.769
152.641
152.645
152.845
153.366
154.124
155.032
156.065
157.219
158.486
159.853
161.306
162.833
164.42
166.056
167.728
169.426
171.14
172.865
174.594
176.329
178.074
179.837
181.629
183.457
185.321
187.197
189.041
190.802
192.349
193.978
152.034
152.018
152.188
152.67
153.378
154.225
155.185
156.255
157.428
158.689
160.024
161.421
162.866
164.347
165.85
167.367
168.886
170.401
171.909
173.409
174.909
176.425
177.978
179.591
181.283
183.045
184.83
186.597
188.512
193.726
151.385
151.349
151.487
151.926
152.581
153.362
154.246
155.228
156.3
157.449
158.658
159.916
161.208
162.52
163.839
165.153
166.451
167.723
168.962
170.169
171.348
172.515
173.7
174.942
176.282
177.736
179.227
180.489
180.339
179.581
150.696
150.64
150.743
151.138
151.737
152.45
153.253
154.143
155.11
156.14
157.217
158.327
159.456
160.587
161.707
162.799
163.849
164.843
165.768
166.617
167.387
168.083
168.727
169.361
170.045
170.827
171.632
172.09
170.512
165.167
149.971
149.893
149.961
150.309
150.85
151.492
152.212
153.005
153.863
154.769
155.708
156.664
157.62
158.56
159.465
160.318
161.097
161.781
162.35
162.781
163.051
163.142
163.041
162.757
162.355
162.058
162.513
165.505
174.393
186.255
-11.6969
-13.3494
-15.8057
-19.4638
-24.3206
-30.3248
-37.3621
-45.2732
-53.8648
-62.9154
-72.1779
-81.3791
-90.2202
-98.3786
-105.514
-111.278
-115.333
-117.36
-117.052
-114.11
-108.294
-99.4736
-87.6251
-72.8376
-55.313
-35.3087
-13.3052
8.62459
24.0319
22.6875
-13.0685
-13.9007
-16.2048
-19.8689
-24.7816
-30.8591
-37.9725
-45.9574
-54.6201
-63.74
-73.0709
-82.34
-91.2476
-99.4695
-106.663
-112.48
-116.583
-118.659
-118.415
-115.559
-109.864
-101.228
-89.6538
-75.2543
-58.2655
-39.0485
-18.2805
2.08944
16.8326
15.3753
-13.8067
-15.4221
-18.0007
-21.8203
-26.8374
-32.9841
-40.1361
-48.1352
-56.7951
-65.9031
-75.2198
-84.4771
-93.3783
-101.599
-108.796
-114.618
-118.725
-120.811
-120.586
-117.765
-112.14
-103.644
-92.3089
-78.2716
-61.8007
-43.3602
-23.81
-4.97149
9.06821
9.65364
-16.8893
-18.2953
-21.0303
-24.9897
-30.0867
-36.2691
-43.4247
-51.4061
-60.0373
-69.1152
-78.4077
-87.652
-96.5533
-104.787
-112.005
-117.852
-121.986
-124.1
-123.913
-121.151
-115.629
-107.316
-96.2717
-82.6492
-66.7318
-49.0291
-30.4578
-12.6442
1.31384
5.07872
-20.7575
-22.2646
-25.084
-29.1073
-34.2374
-40.4205
-47.5483
-55.4827
-64.058
-73.0806
-82.3261
-91.5366
-100.419
-108.648
-115.87
-121.726
-125.869
-127.993
-127.827
-125.107
-119.675
-111.54
-100.788
-87.5813
-72.2023
-55.1586
-37.3282
-20.0914
-5.70396
1.40535
-25.1811
-27.0114
-29.8921
-33.9306
-39.05
-45.1998
-52.2733
-60.1404
-68.6452
-77.6037
-86.7994
-95.9789
-104.85
-113.084
-120.323
-126.197
-130.351
-132.475
-132.304
-129.591
-124.211
-116.217
-105.715
-92.8671
-77.937
-61.3923
-44.0184
-26.9468
-11.7772
-1.57158
-31.6918
-32.5676
-35.2219
-39.1974
-44.2631
-50.3511
-57.3506
-65.1371
-73.5633
-82.4535
-91.5979
-100.747
-109.608
-117.848
-125.103
-130.992
-135.148
-137.253
-137.049
-134.308
-128.945
-121.054
-110.759
-98.2106
-83.6332
-67.427
-50.2598
-33.0419
-16.904
-3.99503
-36.8502
-37.9845
-40.6868
-44.6067
-49.5999
-55.6113
-62.5266
-70.2263
-78.5707
-87.3921
-96.4865
-105.607
-114.462
-122.714
-129.989
-135.896
-140.05
-142.119
-141.85
-139.042
-133.651
-125.82
-115.686
-103.376
-89.0601
-73.0532
-55.8989
-38.3289
-21.1591
-5.96427
-41.1482
-43.1422
-45.9651
-49.8572
-54.7895
-60.7252
-67.5537
-75.1644
-83.4262
-92.1795
-101.226
-110.322
-119.174
-127.442
-134.743
-140.671
-144.822
-146.843
-146.482
-143.572
-138.113
-130.304
-120.29
-108.168
-94.0415
-78.1301
-60.8582
-42.8238
-24.6375
-7.55069
-49.0182
-48.5772
-50.9197
-54.7257
-59.5971
-65.4571
-72.1958
-79.7141
-87.8915
-96.5769
-105.577
-114.652
-123.506
-131.795
-139.13
-145.088
-149.244
-151.212
-150.741
-147.7
-142.144
-134.325
-124.402
-112.434
-98.4489
-82.5693
-65.1094
-46.5737
-27.4359
-8.81004
-50.9594
-52.4955
-55.2096
-59.0124
-63.8214
-69.5941
-76.2305
-83.6479
-91.737
-100.355
-109.311
-118.367
-127.228
-135.545
-142.925
-148.931
-153.106
-155.036
-154.449
-151.262
-145.594
-137.746
-127.895
-116.061
-102.195
-86.3228
-68.6583
-49.6428
-29.6526
-9.79339
-56.6723
-56.1652
-58.7017
-62.5277
-67.2747
-72.9333
-79.4449
-86.7503
-94.7489
-103.302
-112.22
-121.261
-130.133
-138.485
-145.921
-151.993
-156.214
-158.126
-157.451
-154.135
-148.354
-140.472
-130.683
-118.976
-105.228
-89.3726
-71.5332
-52.1048
-31.3904
-10.5555
-57.814
-57.9491
-61.3062
-65.1973
-69.7907
-75.2702
-81.629
-88.8216
-96.7428
-105.245
-114.131
-123.162
-132.044
-140.43
-147.925
-154.077
-158.375
-160.313
-159.597
-156.201
-150.34
-142.44
-132.718
-121.143
-107.528
-91.7221
-73.7695
-54.0235
-32.7395
-11.1521
-48.6091
-58.5615
-63.3249
-66.8768
-71.1491
-76.4009
-82.6189
-89.7348
-97.6149
-106.088
-114.954
-123.969
-132.846
-141.245
-148.774
-154.989
-159.376
-161.391
-160.709
-157.319
-151.465
-143.606
-133.985
-122.561
-109.1
-93.3839
-75.3858
-55.422
-33.7347
-11.6189
-80.8063
-72.0141
-67.0615
-67.7814
-71.2106
-76.1722
-82.323
-89.4489
-97.3509
-105.834
-114.693
-123.688
-132.539
-140.916
-148.44
-154.677
-159.13
-161.238
-160.638
-157.341
-151.619
-143.917
-134.478
-123.247
-109.963
-94.3615
-76.3731
-56.2846
-34.3629
-11.9518
149.196
149.097
149.127
149.427
149.906
150.474
151.107
151.799
152.542
153.318
154.112
154.905
155.68
156.417
157.094
157.689
158.175
158.522
158.695
158.654
158.348
157.715
156.679
155.134
152.937
149.851
145.357
138.27
128.117
80.883
148.363
148.241
148.232
148.48
148.895
149.385
149.926
150.513
151.135
151.775
152.416
153.038
153.622
154.144
154.58
154.902
155.076
155.062
154.812
154.263
153.335
151.918
149.854
146.902
142.663
136.42
126.735
110.063
85.68
34.8379
147.476
147.331
147.282
147.477
147.825
148.234
148.68
149.157
149.653
150.153
150.635
151.08
151.465
151.765
151.952
151.991
151.843
151.459
150.776
149.715
148.169
145.989
142.964
138.771
132.906
124.567
112.552
94.3164
70.9001
36.509
146.538
146.369
146.279
146.418
146.698
147.024
147.371
147.735
148.104
148.458
148.778
149.042
149.224
149.298
149.231
148.986
148.516
147.764
146.66
145.11
142.994
140.146
136.339
131.255
124.447
115.311
103.196
86.8671
67.1727
41.8081
145.548
145.356
145.224
145.307
145.517
145.758
146.006
146.255
146.493
146.7
146.856
146.936
146.915
146.763
146.444
145.918
145.135
144.032
142.534
140.543
137.936
134.55
130.177
124.55
117.336
108.137
96.5927
82.0609
64.7062
43.737
144.509
144.295
144.121
144.147
144.285
144.441
144.588
144.721
144.828
144.888
144.88
144.778
144.555
144.18
143.617
142.821
141.741
140.313
138.462
136.091
133.084
129.295
124.549
118.637
111.319
102.326
91.4227
78.2581
62.826
45.2185
143.424
143.187
142.972
142.942
143.008
143.077
143.124
143.141
143.118
143.032
142.861
142.581
142.162
141.573
140.775
139.726
138.373
136.655
134.498
131.814
128.498
124.428
119.463
113.443
106.2
97.556
87.3657
75.4751
61.8998
46.9841
142.294
142.037
141.782
141.695
141.69
141.674
141.62
141.524
141.371
141.143
140.814
140.361
139.754
138.961
137.946
136.665
135.068
133.097
130.685
127.755
124.216
119.969
114.904
108.908
101.864
93.6654
84.2362
73.5273
61.5634
48.6938
141.125
140.849
140.554
140.412
140.337
140.237
140.085
139.877
139.599
139.232
138.752
138.134
137.35
136.368
135.154
133.664
131.855
129.672
127.056
123.941
120.254
115.916
110.847
104.966
98.2013
90.4921
81.806
72.1402
61.523
50.2697
139.92
139.626
139.294
139.098
138.955
138.773
138.527
138.21
137.812
137.313
136.689
135.916
134.968
133.814
132.42
130.749
128.759
126.403
123.632
120.389
116.617
112.258
107.253
101.55
95.106
87.892
79.9008
71.1517
61.679
51.7565
138.685
138.374
138.008
137.76
137.552
137.291
136.953
136.534
136.021
135.397
134.638
133.722
132.624
131.315
129.764
127.938
125.8
123.31
120.425
117.103
113.3
108.971
104.08
98.5925
92.4874
85.7554
78.4048
70.4653
61.975
53.164
137.424
137.1
136.701
136.404
136.133
135.798
135.373
134.857
134.237
133.496
132.613
131.567
130.334
128.889
127.204
125.248
122.992
120.402
117.443
114.083
110.288
106.031
101.285
96.0346
90.2707
83.9969
77.2307
70.0055
62.3598
54.4842
136.143
135.809
135.381
135.038
134.708
134.302
133.797
133.189
132.47
131.622
130.627
129.464
128.113
126.55
124.751
122.692
120.345
117.685
114.685
111.32
107.567
103.408
98.8289
93.8233
88.3925
82.5473
76.3097
69.7135
62.7954
55.7129
134.851
134.508
134.054
133.67
133.285
132.813
132.233
131.542
130.731
129.787
128.691
127.425
125.971
124.308
122.417
120.277
117.865
115.162
112.147
108.804
105.116
101.075
96.6729
91.9121
86.7994
81.3502
75.588
69.5452
63.256
56.8499
133.554
133.206
132.73
132.307
131.871
131.339
130.69
129.923
129.031
128.001
126.815
125.46
123.919
122.175
120.21
118.009
115.554
112.83
109.823
106.521
102.916
99.0029
94.7825
90.2601
85.4469
80.3601
75.0237
69.4677
63.7234
57.8971
132.261
131.909
131.415
130.957
130.476
129.89
129.179
128.344
127.38
126.273
125.011
123.58
121.966
120.156
118.136
115.892
113.413
110.686
107.704
104.458
100.946
97.1674
93.1266
88.8322
84.2973
79.5403
74.5841
69.4562
64.1848
58.8574
130.979
130.628
130.119
129.631
129.109
128.474
127.709
126.814
125.786
124.613
123.286
121.792
120.12
118.259
116.198
113.928
111.439
108.724
105.779
102.6
99.1873
95.5442
91.6776
87.598
83.3197
78.8608
74.2431
69.4915
64.6311
59.7344
129.719
129.37
128.85
128.337
127.779
127.102
126.288
125.341
124.258
123.03
121.648
120.103
118.385
116.486
114.398
112.114
109.629
106.938
104.039
100.933
97.6221
94.1121
90.4115
86.532
82.4881
78.2975
73.9803
69.559
65.0562
60.5317
128.49
128.146
127.618
127.084
126.495
125.781
124.926
123.935
122.806
121.531
120.105
118.519
116.766
114.84
112.737
110.451
107.979
105.32
102.474
99.4436
96.2338
92.8519
89.3074
85.6123
81.7811
77.8306
73.7794
69.6477
65.4559
61.2533
127.302
126.965
126.433
125.881
125.266
124.521
123.632
122.604
121.436
120.124
118.662
117.045
115.267
113.325
111.215
108.935
106.484
103.862
101.073
98.1189
95.0075
91.747
88.3474
84.8208
81.1811
77.4444
73.6277
69.7494
65.8275
61.9033
126.166
125.837
125.305
124.739
124.103
123.332
122.414
121.355
120.157
118.815
117.326
115.686
113.892
111.941
109.832
107.565
105.14
102.559
99.8263
96.9476
93.9301
90.7829
87.5162
84.1419
80.6736
77.1261
73.5153
69.8576
66.1696
62.4854
125.092
124.774
124.243
123.667
123.013
122.221
121.28
120.197
118.975
117.61
116.102
114.446
112.642
110.689
108.587
106.337
103.941
101.402
98.7266
95.9198
92.9902
89.9472
86.801
83.5632
80.2467
76.8656
73.4344
69.9682
66.4818
63.004
124.092
123.785
123.259
122.675
122.007
121.199
120.24
119.138
117.897
116.516
114.994
113.328
111.52
109.57
107.479
105.249
102.884
100.387
97.7659
95.0265
92.1777
89.2291
86.1908
83.0738
79.8907
76.6545
73.3789
70.0774
66.7638
63.4621
123.178
122.883
122.362
121.773
121.094
120.273
119.3
118.185
116.93
115.538
114.007
112.337
110.529
108.585
106.508
104.299
101.965
99.509
96.9384
94.2608
91.485
88.6206
85.6773
82.666
79.5985
76.4873
73.3449
70.1839
67.017
63.8646
122.362
122.078
121.563
120.97
120.283
119.452
118.47
117.345
116.081
114.681
113.145
111.474
109.669
107.734
105.671
103.485
101.18
98.7618
96.2376
93.6153
90.9039
88.1129
85.2519
82.3313
79.3625
76.3571
73.3271
70.2841
67.2399
64.2118
121.656
121.383
120.873
120.277
119.584
118.747
117.758
116.626
115.356
113.952
112.414
110.745
108.946
107.021
104.973
102.807
100.53
98.1454
95.6621
93.0878
90.4319
87.7035
84.912
82.0675
79.1809
76.2635
73.3264
70.3807
67.4374
64.5114
121.075
120.81
120.302
119.703
119.005
118.163
117.169
116.032
114.76
113.354
111.816
110.15
108.357
106.442
104.408
102.262
100.008
97.6527
95.2039
92.6698
90.0595
87.3824
84.6474
81.8643
79.0438
76.1967
73.3335
70.4647
67.6008
64.7545
120.635
120.371
119.861
119.261
118.56
117.715
116.718
115.58
114.306
112.899
111.364
109.701
107.914
106.008
103.987
101.856
99.6219
97.2904
94.8694
92.3672
89.793
87.1559
84.4648
81.7292
78.9596
76.1662
73.3595
70.5496
67.7466
64.9618
120.356
120.072
119.55
118.946
118.244
117.398
116.401
115.262
113.988
112.583
111.05
109.39
107.61
105.711
103.7
101.581
99.3608
97.0464
94.6449
92.1648
89.6155
87.0057
84.3444
81.6408
78.9052
76.1478
73.3785
70.6072
67.8438
65.0978
120.283
119.95
119.407
118.797
118.092
117.243
116.243
115.103
113.83
112.426
110.894
109.238
107.462
105.569
103.564
101.454
99.2437
96.9404
94.5516
92.0856
89.5517
86.9587
84.3152
81.6307
78.915
76.1782
73.4302
70.6808
67.9394
65.2148
-56.0222
-76.9619
-74.5441
-16.3192
-37.4217
-44.372
5.43088
-11.4641
-22.267
15.8272
-0.0310496
-11.3921
22.7159
9.1755
-1.46981
28.3191
17.0045
7.42824
32.8253
23.1174
14.6171
36.4849
28.0425
20.5784
39.6197
32.2398
25.7185
42.3984
35.9111
30.2057
44.8854
39.1479
34.1326
47.1151
42.0115
37.5756
49.1161
44.5513
40.602
50.9127
46.8082
43.269
52.5256
48.8161
45.6245
53.973
50.6035
47.7081
55.2704
52.1945
49.5523
56.4311
53.609
51.1841
57.4671
54.8644
52.6261
58.3886
55.9755
53.8975
59.2046
56.9548
55.0142
59.9239
57.8142
55.991
60.5528
58.5622
56.8386
61.0996
59.2093
57.5694
61.566
59.759
58.189
61.9639
60.2245
58.7107
62.2819
60.5954
59.1267
62.5479
60.9003
59.4635
62.7187
61.0971
59.6837
62.8664
61.2652
59.8629
-70.279
-65.3944
-63.6294
-65.3358
-69.0992
-74.3301
-80.7236
-88.0298
-96.0442
-104.581
-113.445
-122.408
-131.205
-139.52
-146.986
-153.183
-157.631
-159.788
-159.29
-156.183
-150.755
-143.362
-134.21
-123.231
-110.147
-94.6797
-76.7507
-56.6346
-34.6425
-12.1473
-46.1382
-49.6908
-54.1758
-59.1305
-64.6622
-70.9385
-77.9518
-85.6147
-93.8179
-102.43
-111.289
-120.19
-128.888
-137.084
-144.429
-150.521
-154.905
-157.098
-156.747
-153.923
-148.911
-141.947
-133.173
-122.495
-109.634
-94.3259
-76.5127
-56.4798
-34.5883
-12.233
-33.6427
-40.527
-46.1664
-52.913
-59.9171
-67.1155
-74.6731
-82.6423
-90.9893
-99.6275
-108.425
-117.205
-125.741
-133.755
-140.919
-146.853
-151.142
-153.367
-153.212
-150.747
-146.214
-139.746
-131.396
-121.038
-108.408
-93.2789
-75.6429
-55.8147
-34.2029
-12.2152
-25.4067
-36.0185
-42.251
-48.97
-56.3522
-63.9176
-71.6599
-79.6765
-87.9794
-96.5026
-105.128
-113.694
-121.987
-129.749
-136.672
-142.408
-146.584
-148.843
-148.92
-146.86
-142.825
-136.856
-128.92
-118.86
-106.445
-91.5133
-74.1251
-54.6356
-33.4925
-12.1031
-16.0859
-29.7571
-38.6289
-46.2413
-53.7704
-61.3659
-69.0858
-76.9887
-85.0911
-93.3526
-101.678
-109.92
-117.881
-125.318
-131.945
-137.447
-141.495
-143.788
-144.112
-142.463
-138.893
-133.354
-125.754
-115.929
-103.699
-88.9897
-71.9384
-52.9397
-32.465
-11.9056
-6.35985
-21.0797
-32.56
-42.1675
-50.7161
-58.7005
-66.4953
-74.3146
-82.2256
-90.2096
-98.1947
-106.059
-113.63
-120.689
-126.98
-132.219
-136.12
-138.429
-138.974
-137.684
-134.473
-129.224
-121.828
-112.153
-100.091
-85.6588
-69.0654
-50.7319
-31.1351
-11.6318
2.4664
-11.653
-24.4821
-35.8165
-45.7589
-54.6813
-62.9933
-71.0052
-78.8914
-86.7104
-94.4354
-101.976
-109.189
-115.886
-121.844
-126.816
-130.553
-132.837
-133.521
-132.446
-129.406
-124.267
-116.952
-107.38
-95.5237
-81.4795
-65.5072
-48.0352
-29.5274
-11.2885
10.1952
-2.56519
-15.5606
-27.7472
-38.6957
-48.5692
-57.6499
-66.1751
-74.3208
-82.1947
-89.8271
-97.1753
-104.134
-110.551
-116.234
-120.968
-124.535
-126.734
-127.414
-126.346
-123.281
-118.136
-110.872
-101.459
-89.9358
-76.4563
-61.306
-44.9012
-27.6798
-10.8781
16.9051
5.69309
-6.67794
-18.8742
-30.1802
-40.597
-50.276
-59.3369
-67.8789
-75.9844
-83.697
-91.0038
-97.8343
-104.069
-109.548
-114.085
-117.48
-119.533
-120.06
-118.834
-115.673
-110.553
-103.447
-94.3607
-83.3775
-70.6826
-56.5659
-41.4182
-25.6444
-10.3972
22.6747
12.9261
1.5977
-10.0061
-21.079
-31.5276
-41.4111
-50.7539
-59.5717
-67.8893
-75.7223
-83.0552
-89.8305
-95.9495
-101.276
-105.645
-108.87
-110.75
-111.068
-109.671
-106.508
-101.566
-94.8122
-86.2717
-76.0547
-64.3565
-51.4553
-37.7084
-23.4854
-9.84053
27.6193
19.14
8.98514
-1.69956
-12.133
-22.1848
-31.8656
-41.1424
-49.9695
-58.3175
-66.1626
-73.4669
-80.1677
-86.1722
-91.3575
-95.5735
-98.6479
-100.389
-100.577
-99.1452
-96.1472
-91.5636
-85.3562
-77.5608
-68.2958
-57.751
-46.1831
-33.9123
-21.2726
-9.2064
31.8733
24.4519
15.4268
5.76618
-3.82285
-13.2072
-22.3807
-31.2867
-39.8461
-47.9927
-55.6705
-62.818
-69.3595
-75.2002
-80.2238
-84.2932
-87.2532
-88.9335
-89.1459
-87.8645
-85.1873
-81.1064
-75.5886
-68.6709
-60.4673
-51.1529
-40.9581
-30.1653
-19.0731
-8.50293
35.5561
29.0052
20.9889
12.321
3.62569
-4.97497
-13.4737
-21.811
-29.8975
-37.6495
-44.9916
-51.8468
-58.1294
-63.7419
-68.5731
-72.4987
-75.3832
-77.0849
-77.4583
-76.4796
-74.2352
-70.7434
-65.9873
-60.0019
-52.8893
-44.8054
-35.9529
-26.5778
-16.944
-7.74951
38.7629
32.9293
25.7824
18.0124
10.1679
2.35754
-5.41537
-13.098
-20.6041
-27.8462
-34.7418
-41.2077
-47.1556
-52.489
-57.1033
-60.8871
-63.7245
-65.5014
-66.1111
-65.5154
-63.7638
-60.894
-56.909
-51.844
-45.7877
-38.8759
-31.284
-23.2243
-14.9275
-6.97336
41.5682
36.3296
29.9216
22.9366
15.8589
8.78486
1.71341
-5.31177
-12.2125
-18.9056
-25.3098
-31.343
-36.9197
-41.9494
-46.3357
-49.9799
-52.7839
-54.6557
-55.517
-55.3184
-54.069
-51.8102
-48.5624
-44.3622
-39.2868
-33.4529
-27.0112
-20.1438
-13.0501
-6.2032
44.0299
39.2888
33.5071
27.1983
20.7924
14.3756
7.94378
1.53208
-4.79086
-10.9492
-16.8673
-22.4685
-27.6735
-32.3995
-36.5604
-40.0692
-42.8423
-44.8038
-45.8926
-46.0625
-45.2903
-43.6011
-41.0303
-37.6168
-33.4273
-28.5619
-23.1501
-17.3471
-11.3244
-5.46327
46.1942
41.8717
36.6213
30.8915
25.0663
19.2237
13.3576
7.49592
1.6981
-3.96803
-9.4342
-14.6309
-19.4864
-23.9263
-27.8743
-31.2542
-33.9939
-36.0289
-37.3065
-37.7926
-37.451
-36.2773
-34.3125
-31.5995
-28.1967
-24.1894
-19.6889
-14.8279
-9.75295
-4.77042
48.098
44.1293
39.3304
34.0957
28.7698
23.4239
18.0504
12.6712
7.33797
2.11069
-2.94975
-7.78143
-12.3203
-16.4999
-20.2528
-23.5123
-26.216
-28.3078
-29.7417
-30.4873
-30.5105
-29.7921
-28.3634
-26.2667
-23.5553
-20.3024
-16.603
-12.5711
-8.33262
-4.13395
49.7719
46.1031
41.6886
36.8771
31.9792
27.0602
22.1117
17.1511
12.223
7.38045
2.67739
-1.8314
-6.08904
-10.0364
-13.6139
-16.7631
-19.4293
-21.5629
-23.123
-24.0819
-24.4113
-24.0852
-23.1223
-21.5626
-19.4543
-16.8605
-13.8627
-10.5586
-7.05718
-3.55772
51.241
47.8269
43.7397
39.2895
34.7574
30.2039
25.6204
21.0204
16.4428
11.9342
7.54245
3.31595
-0.694941
-4.43784
-7.85978
-10.9091
-13.5373
-15.7001
-17.3606
-18.4915
-19.0764
-19.0885
-18.5271
-17.4314
-15.8457
-13.8248
-11.4387
-8.77163
-5.9184
-3.04144
52.5263
49.3284
45.5195
41.377
37.1572
32.9161
28.6446
24.3536
20.0769
15.856
11.7331
7.75114
3.9547
0.390375
-2.89464
-5.8544
-8.44535
-10.6279
-12.3691
-13.6438
-14.4366
-14.7295
-14.5143
-13.8194
-12.6851
-11.16
-9.30498
-7.19337
-4.90801
-2.5828
53.6465
50.6319
47.0589
43.1779
39.2235
35.2475
31.2415
27.2137
23.1939
19.219
15.3268
11.5551
7.94375
4.53424
1.36877
-1.51135
-4.06671
-6.26209
-8.06822
-9.46178
-10.4277
-10.9543
-11.032
-10.6794
-9.93211
-8.83372
-7.43756
-5.80785
-4.01766
-2.17857
54.6158
51.7563
48.3827
44.7226
40.9922
37.2402
33.4584
29.6533
25.8512
22.0852
18.3891
14.7968
11.3437
8.06726
5.00537
2.19533
-0.327585
-2.53174
-4.39001
-5.88054
-6.98886
-7.70901
-8.0337
-7.97107
-7.55314
-6.8192
-5.81652
-4.60188
-3.24028
-1.82611
55.4488
52.7196
49.5133
46.0381
42.4951
38.9306
35.3365
31.7181
28.0986
24.5081
20.9771
17.536
14.2168
11.0532
8.07978
5.3301
2.8361
0.626957
-1.27217
-2.84165
-4.06838
-4.94681
-5.47455
-5.65603
-5.51633
-5.09089
-4.4225
-3.56209
-2.56808
-1.52177
56.1539
53.533
50.4649
47.1424
43.7542
40.3445
36.9057
33.4416
29.9731
26.5279
23.1338
19.8183
16.6105
13.5413
10.6421
7.94374
5.47554
3.26421
1.33269
-0.301009
-1.62462
-2.63272
-3.3258
-3.70837
-3.79965
-3.63157
-3.24322
-2.68086
-1.99758
-1.26448
56.7442
54.2114
51.2557
48.057
44.7943
41.5101
38.1969
34.8576
31.5115
28.1841
24.901
21.6876
18.5705
15.5784
12.7403
10.0845
7.63805
5.42571
3.46887
1.78447
0.383663
-0.728575
-1.554
-2.0988
-2.37833
-2.42098
-2.26291
-1.94676
-1.52145
-1.05038
57.2165
54.7539
51.8864
48.7847
45.6203
42.4343
39.2195
35.9781
32.7279
29.4929
26.297
23.1638
20.1183
17.1871
14.3974
11.7757
9.34719
7.13514
5.15965
3.43646
1.9758
0.782257
-0.145849
-0.816427
-1.24375
-1.45293
-1.47765
-1.35791
-1.13945
-0.879786
57.5926
55.1828
52.3815
49.3517
46.2597
43.1463
40.0043
36.8352
33.6557
30.4889
27.3574
24.2835
21.2908
18.4046
15.6507
13.0543
10.6392
8.42746
6.43797
4.68559
3.18017
1.92607
0.921464
0.157674
-0.380128
-0.71524
-0.879161
-0.909895
-0.850776
-0.754524
57.8441
55.4695
52.7121
49.7306
46.687
43.6218
40.5281
37.4071
34.2749
31.1535
28.0651
25.0309
22.0738
19.2182
16.4888
13.91
11.5048
9.29428
7.29662
5.52615
3.99242
2.69949
1.6458
0.822882
0.214249
-0.203604
-0.460921
-0.594713
-0.647757
-0.67224
58.0273
55.6606
52.9255
49.9698
46.951
43.9094
40.8391
37.7412
34.6313
31.5312
28.4624
25.4461
22.5047
19.6622
16.9429
14.3709
11.9687
9.75707
7.75397
5.97349
4.42469
3.11058
2.02805
1.16864
0.518052
0.0542781
-0.253273
-0.442038
-0.556132
-0.651052
)
;

boundaryField
{
    inlet
    {
        type            zeroGradient;
    }
    outlet
    {
        type            fixedValue;
        value           uniform 0;
    }
    flap
    {
        type            zeroGradient;
    }
    upperWall
    {
        type            zeroGradient;
    }
    lowerWall
    {
        type            zeroGradient;
    }
    frontAndBack
    {
        type            empty;
    }
}


// ************************************************************************* //
