/*--------------------------------*- C++ -*----------------------------------*\
| =========                 |                                                 |
| \\      /  F ield         | OpenFOAM: The Open Source CFD Toolbox           |
|  \\    /   O peration     | Version:  dev                                   |
|   \\  /    A nd           | Web:      www.OpenFOAM.org                      |
|    \\/     M anipulation  |                                                 |
\*---------------------------------------------------------------------------*/
FoamFile
{
    version     2.0;
    format      ascii;
    class       volScalarField;
    location    "1.02";
    object      p;
}
// * * * * * * * * * * * * * * * * * * * * * * * * * * * * * * * * * * * * * //

dimensions      [0 2 -2 0 0 0 0];

internalField   nonuniform List<scalar> 
465
(
217.4
219.442
221.374
223.153
224.727
226.049
227.075
227.769
228.095
217.228
219.271
221.212
223.004
224.599
225.946
227.001
227.724
228.193
216.617
218.61
220.507
222.262
223.832
225.171
226.241
226.999
227.434
215.711
217.612
219.416
221.081
222.562
223.812
224.775
225.374
225.281
214.554
216.329
218
219.523
220.851
221.92
222.637
222.928
222.026
213.178
214.797
216.296
217.63
218.74
219.548
219.916
219.86
218.146
211.602
213.037
214.331
215.432
216.272
216.763
216.719
216.338
213.933
209.838
211.064
212.122
212.953
213.479
213.612
213.121
212.446
209.514
207.896
208.889
209.68
210.206
210.379
210.122
209.154
208.193
204.868
205.786
206.521
207.016
207.2
206.978
206.287
204.795
203.501
199.791
203.519
203.97
204.137
203.938
203.268
202.079
199.977
198.216
193.951
201.106
201.249
201.053
200.426
199.242
197.452
194.594
192.113
186.895
198.566
198.376
197.786
196.68
194.901
192.372
188.538
184.897
177.933
195.921
195.382
194.369
192.741
190.288
186.86
181.75
176.233
165.852
193.206
192.309
190.863
188.691
185.522
181.083
174.417
166.058
148.326
99.8994
99.7337
99.3455
98.6998
97.7672
96.5424
95.0204
93.1828
91.0143
88.4962
99.8525
99.7013
99.3349
98.7144
97.8057
96.5957
95.083
93.2529
91.0804
88.5464
99.8811
99.7613
99.4168
98.8171
97.9209
96.7184
95.2131
93.3799
91.19
88.6221
100.024
99.9424
99.6145
99.0222
98.1335
96.9399
95.4264
93.5671
91.3345
88.7074
100.294
100.239
99.922
99.3341
98.4481
97.2462
95.7058
93.7996
91.5017
88.7933
100.665
100.634
100.328
99.7374
98.8398
97.612
96.0266
94.0548
91.6723
88.8628
101.116
101.113
100.801
100.196
99.2737
98.0067
96.3627
94.3115
91.8295
88.9028
101.617
101.623
101.294
100.668
99.7161
98.4038
96.6939
94.5547
91.9632
88.9075
102.102
102.107
101.761
101.121
100.145
98.789
97.0117
94.7802
92.0726
88.8794
102.508
102.521
102.177
101.543
100.557
99.1646
97.3222
94.9965
92.1677
88.8294
102.783
102.844
102.542
101.945
100.969
99.5515
97.6465
95.2237
92.2672
88.7744
102.889
103.088
102.892
102.373
101.428
99.9905
98.0189
95.4894
92.393
88.7333
102.795
103.306
103.311
102.909
102.005
100.537
98.4804
95.8228
92.5673
88.7249
102.435
103.627
103.945
103.666
102.782
101.252
99.0687
96.2481
92.8079
88.7648
101.547
104.308
105.039
104.806
103.844
102.162
99.7842
96.7544
93.1064
88.8563
190.405
189.152
187.281
184.584
180.74
175.345
167.187
155.493
120.514
187.537
185.952
183.702
180.574
176.254
170.351
161.836
151.228
139.935
184.666
182.796
180.255
176.863
172.399
166.704
159.517
151.878
146.69
181.844
179.754
177.029
173.544
169.182
163.924
157.737
150.783
143.83
176.876
174.059
170.587
166.397
161.481
155.816
149.37
142.75
167.929
163.927
159.331
154.17
148.508
142.813
157.462
152.774
147.739
142.631
146.91
142.241
35.8892
58.8128
83.2703
130.707
128.298
124.378
138.68
132.019
126.988
135.287
130.225
126.978
136.501
132.611
129.595
137.708
134.283
131.348
138.037
134.928
132.207
138.062
135.233
132.737
135.371
133.066
104.231
106.271
106.625
106.476
105.302
103.31
100.636
97.3383
93.4448
116.938
112.202
110.945
109.475
107.307
104.682
101.587
97.9685
93.8065
120.502
115.274
113.293
111.488
108.965
105.904
102.427
98.5089
94.1039
122.471
117.616
114.751
112.324
109.581
106.429
102.84
98.776
94.2223
125.148
120.144
116.347
113.079
109.851
106.467
102.787
98.6815
94.0878
127.172
122.272
117.908
113.96
110.205
106.455
102.552
98.3481
93.7347
128.471
123.871
119.279
114.902
110.728
106.615
102.425
98.0348
93.339
129.374
125.089
120.477
115.884
111.432
107.033
102.575
97.9691
93.1332
130.001
126.011
121.506
116.866
112.28
107.703
103.051
98.2628
93.2824
126.686
122.361
117.794
113.199
108.56
103.814
98.9173
93.8376
114.122
109.521
104.778
99.8618
94.7556
105.849
100.995
95.9405
97.2812
)
;

boundaryField
{
    inlet
    {
        type            zeroGradient;
    }
    outlet
    {
        type            fixedValue;
        value           nonuniform 0();
    }
    flap
    {
        type            zeroGradient;
    }
    upperWall
    {
        type            zeroGradient;
    }
    lowerWall
    {
        type            zeroGradient;
    }
    frontAndBack
    {
        type            empty;
    }
    procBoundary4to1
    {
        type            processor;
        value           nonuniform List<scalar> 
30
(
179.115
179.115
174.179
171.334
171.334
165.529
161.732
161.732
155.79
151.488
151.488
146.083
141.801
137.973
137.973
135.363
133.222
130.4
130.4
127.167
123.054
118.632
118.632
115
110.509
110.509
106.946
102.218
102.218
98.6768
)
;
    }
    procBoundary4to2
    {
        type            processor;
        value           nonuniform List<scalar> 
11
(
89.1909
89.1734
88.9933
88.6539
88.2566
87.9946
88.0568
88.541
89.4406
90.6749
92.1291
)
;
    }
    procBoundary4to3
    {
        type            processor;
        value           nonuniform List<scalar> 
19
(
215.294
215.124
214.565
213.749
212.711
211.479
210.068
208.491
206.756
204.872
202.851
200.703
198.446
196.098
193.685
191.187
188.612
186.006
183.41
)
;
    }
    procBoundary4to5
    {
        type            processor;
        value           nonuniform List<scalar> 
18
(
85.5949
85.622
85.6553
85.6714
85.665
85.6208
85.5296
85.3895
85.2054
84.9893
84.7575
84.5279
84.319
84.147
84.0216
88.971
88.971
89.0995
)
;
    }
}


// ************************************************************************* //
