/*--------------------------------*- C++ -*----------------------------------*\
| =========                 |                                                 |
| \\      /  F ield         | OpenFOAM: The Open Source CFD Toolbox           |
|  \\    /   O peration     | Version:  dev                                   |
|   \\  /    A nd           | Web:      www.OpenFOAM.org                      |
|    \\/     M anipulation  |                                                 |
\*---------------------------------------------------------------------------*/
FoamFile
{
    version     2.0;
    format      ascii;
    class       volVectorField;
    location    "1.07";
    object      Force;
}
// * * * * * * * * * * * * * * * * * * * * * * * * * * * * * * * * * * * * * //

dimensions      [1 1 -2 0 0 0 0];

internalField   uniform (0 0 0);

boundaryField
{
    inlet
    {
        type            calculated;
        value           nonuniform 0();
    }
    outlet
    {
        type            calculated;
        value           nonuniform 0();
    }
    flap
    {
        type            calculated;
        value           nonuniform List<vector> 
33
(
(4.54977 -2.24353e-17 -0.313275)
(4.46953 -4.13103e-22 -0.706315)
(4.34618 -1.14861e-17 -1.06487)
(4.18757 -5.90402e-21 -1.33177)
(4.01128 -3.4435e-22 -1.52161)
(3.83037 1.77644e-17 -1.64871)
(3.65354 -3.5598e-23 -1.72544)
(3.488 -4.69163e-21 -1.76169)
(3.33288 1.6871e-17 -1.76558)
(3.18441 -9.74411e-18 -1.74261)
(3.03827 2.07851e-22 -1.6966)
(2.88402 4.06289e-21 -1.6293)
(2.70671 8.41838e-18 -1.53896)
(2.48579 3.01993e-21 -1.41548)
(2.18203 -6.80331e-18 -1.24548)
(-0.0315678 1.83325e-20 -0.0573289)
(-0.161279 8.90676e-18 -0.281363)
(-0.295538 5.57859e-22 -0.511548)
(-1.43084 -1.05815e-18 0.100158)
(-1.43205 1.32268e-17 0.227806)
(-1.42689 -1.36569e-17 0.351777)
(-1.41785 1.8302e-17 0.452313)
(-1.40743 -1.80639e-22 0.535448)
(-1.39808 -1.05397e-17 0.603628)
(-1.39131 4.26552e-18 0.65899)
(-1.38686 -4.28437e-18 0.702866)
(-1.38506 4.30188e-18 0.73662)
(-1.3854 1.58398e-17 0.761346)
(-1.38607 -4.32944e-18 0.777797)
(-1.38587 -2.11752e-22 0.787355)
(-1.38336 -4.32425e-18 0.791516)
(-1.37638 -6.38439e-23 0.789708)
(-1.35894 1.85236e-17 0.781857)
)
;
    }
    upperWall
    {
        type            calculated;
        value           nonuniform 0();
    }
    lowerWall
    {
        type            calculated;
        value           uniform (0 0 0);
    }
    frontAndBack
    {
        type            empty;
    }
    procBoundary4to1
    {
        type            processor;
        value           uniform (0 0 0);
    }
    procBoundary4to2
    {
        type            processor;
        value           uniform (0 0 0);
    }
    procBoundary4to3
    {
        type            processor;
        value           uniform (0 0 0);
    }
    procBoundary4to5
    {
        type            processor;
        value           uniform (0 0 0);
    }
}


// ************************************************************************* //
