/*--------------------------------*- C++ -*----------------------------------*\
| =========                 |                                                 |
| \\      /  F ield         | OpenFOAM: The Open Source CFD Toolbox           |
|  \\    /   O peration     | Version:  dev                                   |
|   \\  /    A nd           | Web:      www.OpenFOAM.org                      |
|    \\/     M anipulation  |                                                 |
\*---------------------------------------------------------------------------*/
FoamFile
{
    version     2.0;
    format      ascii;
    class       volScalarField;
    location    "2.28";
    object      p;
}
// * * * * * * * * * * * * * * * * * * * * * * * * * * * * * * * * * * * * * //

dimensions      [0 2 -2 0 0 0 0];

internalField   nonuniform List<scalar> 
2790
(
91.2661
91.1365
91.3011
91.6791
92.1846
92.7956
93.5125
94.3366
95.2672
96.3041
97.448
98.7
100.061
101.533
103.114
104.805
106.603
108.504
110.501
112.585
114.74
116.946
119.177
121.395
123.554
125.598
127.458
129.056
130.305
131.088
91.1127
91.0781
91.2629
91.6389
92.1424
92.752
93.4665
94.2869
95.2128
96.244
97.3812
98.6254
99.9777
101.439
103.009
104.687
106.47
108.356
110.337
112.403
114.542
116.733
118.951
121.162
123.321
125.374
127.257
128.894
130.202
131.137
90.9696
91.0087
91.2112
91.5793
92.0742
92.6763
93.3819
94.1912
95.1039
96.1196
97.2387
98.4618
99.7897
101.222
102.759
104.399
106.139
107.974
109.897
111.899
113.965
116.077
118.209
120.328
122.393
124.352
126.139
127.674
128.828
129.271
90.824
90.902
91.1184
91.48
91.9655
92.5581
93.2524
94.0475
94.9429
95.938
97.0328
98.2275
99.5219
100.916
102.407
103.993
105.671
107.434
109.274
111.179
113.134
115.119
117.107
119.064
120.944
122.685
124.205
125.368
125.991
124.958
90.667
90.766
90.9947
91.3525
91.8282
92.409
93.0886
93.8654
94.7386
95.7072
96.771
97.9293
99.1813
100.525
101.959
103.479
105.079
106.751
108.486
110.27
112.085
113.907
115.706
117.44
119.056
120.472
121.568
122.116
121.998
118.889
90.4944
90.6052
90.8421
91.1958
91.6599
92.2257
92.887
93.6416
94.488
95.425
96.4517
97.5669
98.7688
100.055
101.421
102.863
104.372
105.94
107.553
109.195
110.845
112.475
114.048
115.513
116.801
117.805
118.368
118.14
117.269
112.004
90.3041
90.4214
90.6625
91.0107
91.4618
92.0102
92.6502
93.3791
94.1947
95.0954
96.0796
97.1454
98.2902
99.51
100.8
102.154
103.561
105.011
106.488
107.972
109.438
110.853
112.17
113.33
114.243
114.779
114.75
113.666
112.132
104.955
90.095
90.2156
90.4574
90.7986
91.2351
91.7638
92.3798
93.0795
93.8604
94.7203
95.657
96.6677
97.7488
98.8954
100.101
101.358
102.654
103.975
105.304
106.616
107.882
109.063
110.104
110.932
111.441
111.474
110.837
108.871
106.784
98.0512
89.8668
89.9887
90.2286
90.5607
90.981
91.4879
92.0771
92.7447
93.4873
94.3023
95.1869
96.1375
97.1493
98.2163
99.3308
100.483
101.659
102.843
104.013
105.143
106.197
107.129
107.878
108.356
108.445
107.96
106.718
103.88
101.317
91.3648
89.6197
89.7416
89.9773
90.2985
90.7009
91.1841
91.7441
92.3766
93.0778
93.8444
94.673
95.559
96.4965
97.4786
98.4961
99.5371
100.586
101.625
102.629
103.567
104.4
105.074
105.52
105.64
105.299
104.29
102.453
98.7664
95.7436
84.8165
89.3541
89.4751
89.7049
90.0135
90.3964
90.854
91.3827
91.9777
92.6346
93.3497
94.1188
94.9363
95.7954
96.6881
97.6037
98.5286
99.4458
100.334
101.165
101.906
102.511
102.922
103.059
102.815
102.041
100.506
98.0769
93.5625
90.0116
78.2002
89.0709
89.1903
89.4127
89.7071
90.0691
90.4995
90.995
91.5503
92.1605
92.8214
93.528
94.2737
95.051
95.8508
96.6609
97.4659
98.2471
98.9806
99.6365
100.176
100.551
100.695
100.522
99.9128
98.7067
96.6454
93.6137
88.2767
84.0133
71.1745
88.7709
88.8882
89.1021
89.3809
89.7206
90.1224
90.583
91.0967
91.658
92.2625
92.9043
93.5759
94.2689
94.9732
95.675
96.3577
97.0006
97.5777
98.0562
98.3943
98.538
98.4172
97.9372
96.9678
95.3342
92.7493
89.0894
82.9138
77.6064
63.2467
88.4553
88.5699
88.7744
89.0365
89.3526
89.7245
90.1489
90.6194
91.1303
91.6767
92.2518
92.8474
93.4544
94.0614
94.6534
95.2125
95.7164
96.1368
96.4387
96.577
96.4936
96.1136
95.3348
94.0159
91.967
88.8712
84.5579
77.5178
70.6801
53.7318
88.125
88.2367
88.4309
88.6754
88.967
89.3079
89.6949
90.121
90.5804
91.0674
91.5746
92.0932
92.6132
93.1221
93.604
94.0398
94.4055
94.6712
94.7997
94.7429
94.4397
93.8111
92.7486
91.101
88.6644
85.0955
80.1436
72.2784
63.4416
41.6057
6.03484
6.0276
5.97899
5.84527
5.60817
5.30314
4.98175
4.67271
4.3833
4.11299
3.86074
3.6256
3.40712
3.20698
3.02834
2.87196
2.73242
2.603
2.48221
2.37314
2.27567
2.18073
2.0737
1.94252
1.78289
1.59328
1.36431
1.08048
0.728937
0.299636
6.03649
6.02729
5.97269
5.8328
5.59199
5.28713
4.96781
4.66096
4.37308
4.10355
3.85187
3.61706
3.39814
3.19704
3.01843
2.86439
2.72721
2.59779
2.47562
2.36734
2.2746
2.18633
2.08448
1.95505
1.79656
1.61119
1.38662
1.10236
0.744356
0.296872
6.04189
6.03053
5.96563
5.81355
5.5648
5.25925
4.94296
4.63964
4.35428
4.08608
3.83574
3.6021
3.38281
3.18029
3.00219
2.85358
2.7217
2.5906
2.46296
2.35515
2.27193
2.19754
2.10635
1.97612
1.81253
1.62311
1.39053
1.09589
0.727362
0.271211
6.05365
6.04008
5.96094
5.79129
5.53112
5.22392
4.91075
4.61147
4.32899
4.06206
3.81408
3.58339
3.36408
3.1592
2.98231
2.843
2.72228
2.59214
2.45834
2.34522
2.26146
2.18915
2.10021
1.97319
1.80944
1.61145
1.36768
1.06436
0.688966
0.240312
6.07497
6.05908
5.96145
5.76944
5.49536
5.18562
4.87487
4.57961
4.3002
4.03366
3.78894
3.56675
3.35361
3.14482
2.95984
2.81997
2.70829
2.59081
2.46509
2.35111
2.25866
2.17467
2.07578
1.94402
1.7751
1.56689
1.31286
1.00279
0.629299
0.210032
6.10972
6.09125
5.9704
5.75224
5.46288
5.14963
4.83983
4.54783
4.27422
4.00979
3.75966
3.53521
3.3299
3.1344
2.95777
2.81499
2.69768
2.58263
2.4633
2.35002
2.24864
2.15
2.03664
1.89393
1.71515
1.49788
1.23702
0.923598
0.559645
0.180913
6.16278
6.14121
5.99254
5.74577
5.44027
5.12067
4.80929
4.51049
4.23266
3.97457
3.73279
3.51124
3.30894
3.12159
2.95378
2.81197
2.68931
2.57122
2.45208
2.33603
2.22489
2.11127
1.98205
1.82545
1.63566
1.41098
1.14575
0.832923
0.48518
0.152275
6.24174
6.21545
6.03408
5.75358
5.42522
5.08849
4.76516
4.46512
4.18689
3.93044
3.69472
3.47993
3.28386
3.1042
2.94326
2.80286
2.67682
2.55508
2.4329
2.31097
2.18858
2.05954
1.91406
1.74321
1.54216
1.31069
1.04333
0.734644
0.408108
0.123903
6.35802
6.32041
6.09368
5.76613
5.4014
5.04253
4.70798
4.40188
4.12374
3.87161
3.64335
3.4372
3.25008
3.07948
2.92539
2.78693
2.65868
2.53327
2.40638
2.2767
2.14214
1.9975
1.83571
1.65052
1.43876
1.20083
0.932249
0.63058
0.329053
0.0956233
6.52398
6.45566
6.15704
5.76497
5.35819
4.97347
4.62437
4.31304
4.03752
3.79358
3.5765
3.38208
3.20631
3.04612
2.89972
2.76451
2.63547
2.50679
2.37443
2.23606
2.08891
1.92866
1.75044
1.55064
1.32803
1.08289
0.813103
0.520966
0.247736
0.0671343
6.74776
6.6125
6.20269
5.73381
5.27823
4.86472
4.50222
4.19042
3.92379
3.69413
3.4932
3.31436
3.15263
3.00446
2.86704
2.73676
2.60871
2.47779
2.34009
2.19276
2.03283
1.85669
1.66128
1.44555
1.21066
0.957838
0.686511
0.405012
0.163305
0.037907
7.05026
6.76144
6.20521
5.64687
5.13774
4.6971
4.32889
4.02718
3.77997
3.57326
3.39467
3.23545
3.09037
2.95604
2.82927
2.7059
2.58088
2.44927
2.30709
2.15116
1.97845
1.78588
1.57177
1.33734
1.08662
0.823884
0.551226
0.281849
0.0743258
0.00705993
7.41866
6.853
6.1218
5.46701
4.90599
4.44974
4.09314
3.81951
3.60694
3.43411
3.28454
3.14852
3.02206
2.90315
2.78886
2.67462
2.55495
2.42466
2.27945
2.11576
1.9304
1.72058
1.48553
1.22838
0.956328
0.678383
0.40304
0.149955
-0.018018
-0.0254947
7.76741
6.80484
5.89475
5.14186
4.54545
4.1022
3.78808
3.56926
3.4109
3.284
3.16923
3.05828
2.95103
2.8485
2.74846
2.64573
2.53396
2.40737
2.26119
2.0913
1.89392
1.66602
1.40715
1.12178
0.820515
0.519135
0.237167
0.00579194
-0.112326
-0.0600481
7.52638
6.56222
5.43613
4.59995
4.01566
3.63978
3.41586
3.28732
3.20559
3.1356
3.05802
2.97008
2.88006
2.79395
2.70985
2.621
2.51971
2.39938
2.25474
2.08099
1.87327
1.62744
1.34255
1.02397
0.68613
0.353703
0.0607226
-0.147068
-0.207994
-0.0970933
87.7748
87.8831
88.0663
88.292
88.5578
88.8664
89.2144
89.5944
90.0002
90.4259
90.8633
91.3028
91.7338
92.1429
92.5132
92.8246
93.0517
93.1631
93.1198
92.8714
92.355
91.4885
90.1588
88.2096
85.4282
81.4614
75.9855
67.5534
56.8513
25.0054
87.4006
87.5051
87.6764
87.882
88.1205
88.395
88.7022
89.0341
89.3843
89.7465
90.1117
90.4699
90.8098
91.1172
91.3744
91.5606
91.6492
91.6077
91.3957
90.9622
90.2435
89.1559
87.5865
85.3817
82.3354
78.1242
72.4505
64.244
54.7231
46.8777
87.005
87.1055
87.264
87.4485
87.6584
87.8977
88.1626
88.4449
88.738
89.0351
89.3268
89.6024
89.8503
90.0555
90.2001
90.2621
90.2146
90.0244
89.6507
89.0432
88.1387
86.8552
85.0863
82.6918
79.4948
75.2557
69.8438
62.9263
55.6942
51.9537
86.5889
86.6849
86.8299
86.9922
87.1726
87.3756
87.5972
87.8287
88.0636
88.2948
88.512
88.7048
88.8607
88.9644
88.9978
88.9384
88.759
88.4267
87.9017
87.135
86.066
84.6188
82.6989
80.1898
76.9604
72.8692
67.8973
61.9639
55.1607
48.677
86.1529
86.2441
86.3751
86.5143
86.6643
86.8302
87.0075
87.1875
87.3638
87.5284
87.6711
87.7813
87.8461
87.8503
87.7752
87.5986
87.2937
86.8287
86.1654
85.2575
84.0494
82.4746
80.4547
77.9009
74.7266
70.8545
66.2768
60.9467
54.7546
48.5696
85.6982
85.7842
85.9006
86.0162
86.135
86.2631
86.3956
86.5239
86.6413
86.7393
86.8081
86.8368
86.8125
86.7198
86.5403
86.2524
85.8303
85.2437
84.4571
83.4282
82.1084
80.4425
78.3691
75.8254
72.7579
69.1256
64.9253
60.1675
54.8631
49.5852
85.2262
85.3065
85.4077
85.4994
85.5867
85.6764
85.7638
85.8404
85.899
85.9313
85.9274
85.8765
85.7657
85.58
85.3014
84.9094
84.3798
83.6843
82.7906
81.6621
80.2581
78.5345
76.4463
73.9522
71.0213
67.6363
63.8065
59.5691
54.9615
50.2944
84.7383
84.8123
84.8978
84.9657
85.0215
85.0723
85.1148
85.14
85.1404
85.1082
85.0336
84.9057
84.7121
84.438
84.0667
83.5791
82.9527
82.1618
81.1781
79.9713
78.5084
76.7562
74.6837
72.2655
69.4861
66.3427
62.8518
59.0508
54.9771
50.8324
84.2363
84.3034
84.373
84.4171
84.4413
84.4536
84.4516
84.426
84.3694
84.2743
84.1313
83.9299
83.6578
83.301
82.8444
82.2703
81.5583
80.6858
79.6293
78.3644
76.8654
75.1086
73.074
70.7475
68.1235
65.2079
62.02
58.5953
54.9735
51.3021
83.7218
83.7819
83.8355
83.8557
83.8487
83.8231
83.7773
83.702
83.59
83.4342
83.2258
82.9546
82.609
82.176
81.6419
80.991
80.2049
79.2648
78.1519
76.847
75.3312
73.5884
71.6069
69.3802
66.9095
64.2054
61.2889
58.1927
54.9548
51.6854
83.1966
83.2501
83.2879
83.284
83.2461
83.1839
83.0951
82.9714
82.8062
82.5925
82.3221
81.9855
81.5717
81.0692
80.466
79.7481
78.8996
77.9055
76.7511
75.4221
73.9052
72.1901
70.2711
68.1472
65.824
63.3144
60.6392
57.8278
54.9135
51.9813
82.6632
82.7104
82.7327
82.7047
82.6367
82.539
82.4087
82.2383
82.0223
81.7538
81.4253
81.0281
80.552
79.9871
79.323
78.5476
77.6482
76.6127
75.4302
74.0903
72.5843
70.9066
69.0554
67.0338
64.85
62.5174
60.0558
57.4908
54.8508
52.2029
82.1242
82.1654
82.1725
82.1208
82.0237
81.8919
81.7215
81.5065
81.2426
80.9228
80.5403
80.0874
79.5552
78.9351
78.2184
77.3951
76.4552
75.3895
74.1902
72.8502
71.3643
69.7302
67.9493
66.0272
63.9731
61.8006
59.5275
57.1759
54.7697
52.3624
81.5828
81.6179
81.6101
81.5356
81.4104
81.2456
81.0372
80.7806
80.4716
80.1039
79.6718
79.1686
78.5865
77.9185
77.1572
76.2949
75.3239
74.2377
73.0308
71.699
70.2399
68.6534
66.943
65.1158
63.1814
61.1527
59.0458
56.8793
54.6732
52.4703
81.0421
81.0708
81.0486
80.9523
80.8001
80.6037
80.3598
80.0644
79.7134
79.3017
78.8247
78.2764
77.6506
76.9416
76.1434
75.2502
74.2565
73.1578
71.9508
70.6336
69.2057
67.6686
66.0274
64.2896
62.4648
60.5651
58.6044
56.5986
54.5642
52.5358
80.5054
80.5275
80.4913
80.3745
80.1966
79.9702
79.6933
79.3617
78.9722
78.5207
78.0033
77.4154
76.7519
76.0083
75.1801
74.2632
73.2539
72.1494
70.9484
69.6504
68.2563
66.7691
65.1944
63.5399
61.815
60.0304
58.1983
56.3322
54.4458
52.5671
79.9762
79.9915
79.9417
79.8055
79.6036
79.3493
79.0416
78.6768
78.2524
77.7652
77.2121
76.5896
75.894
75.1217
74.2698
73.3355
72.3165
71.2118
70.0212
68.7456
67.3868
65.9485
64.4369
62.8596
61.225
59.543
57.824
56.0795
54.3208
52.5709
79.4583
79.4666
79.4034
79.2491
79.0249
78.7449
78.4089
78.014
77.5581
77.0392
76.4549
75.8027
75.0801
74.2847
73.4145
72.468
71.4445
70.3438
69.1669
67.9155
66.5922
65.2013
63.7489
62.2423
60.6892
59.0983
57.4787
55.8401
54.1921
52.5534
78.9552
78.9564
78.8805
78.7094
78.4647
78.161
77.7994
77.3774
76.8936
76.3467
75.7354
75.0581
74.3132
73.4994
72.6156
71.6616
70.6374
69.5439
68.3829
67.1568
65.8685
64.5226
63.1252
61.6829
60.2029
58.6928
57.1605
55.6143
54.0621
52.5195
78.4709
78.4651
78.3773
78.1905
77.927
77.602
77.2172
76.771
76.2626
75.6914
75.0571
74.3588
73.5958
72.7678
71.8745
70.9165
69.8948
68.8109
67.6671
66.4663
65.2119
63.9082
62.5613
61.1773
59.7625
58.3238
56.8681
55.4024
53.9334
52.4739
78.0095
77.997
77.8979
77.6966
77.416
77.0718
76.6664
76.1989
75.669
75.077
74.4233
73.7077
72.9304
72.0916
71.1922
70.2332
69.2162
68.1433
67.0174
65.8415
64.619
63.3546
62.0537
60.722
59.3653
57.9896
56.6008
55.205
53.8081
52.4205
77.5754
77.5563
77.4467
77.2321
76.9361
76.5747
76.1511
75.665
75.1166
74.507
73.8371
73.1075
72.319
71.4727
70.5697
69.6119
68.6012
67.5403
66.4321
65.28
64.0875
62.859
61.5997
60.3147
59.0093
57.6887
56.3583
55.0233
53.6886
52.363
77.1732
77.1477
77.0281
76.8014
76.4915
76.115
75.6756
75.1733
74.6093
73.9849
73.3017
72.5609
71.764
70.9125
70.0081
69.053
68.0496
67.0009
65.9099
64.7802
63.6152
62.4191
61.1968
59.9531
58.6927
57.4202
56.1404
54.8578
53.5766
52.3043
76.8076
76.7759
76.6469
76.409
76.0868
75.6971
75.2439
74.728
74.1507
73.5141
72.8203
72.0709
71.2678
70.413
69.5087
68.5575
67.5619
66.5251
65.4504
64.3412
63.201
62.0339
60.8444
59.6368
58.4154
57.1845
55.9482
54.7104
53.4751
52.2482
76.4838
76.446
76.3077
76.0595
75.7263
75.3252
74.8603
74.3328
73.7446
73.098
72.3956
71.6396
70.8321
69.9755
69.0724
68.1255
67.1377
66.1121
65.0523
63.9615
62.8433
61.7015
60.5404
59.3639
58.1759
56.9804
55.7809
54.5811
53.3842
52.1954
76.2074
76.1631
76.0154
75.7573
75.4147
75.004
74.5296
73.9927
73.3957
72.7414
72.0325
71.2716
70.4612
69.604
68.7027
67.7603
66.7799
65.7646
64.7179
63.6432
62.544
61.4239
60.2869
59.1366
57.9768
56.8108
55.6421
54.4739
53.3093
52.1524
75.9849
75.9328
75.7743
75.5066
75.1555
74.7367
74.2541
73.7094
73.1054
72.445
71.7312
70.9668
70.1547
69.2975
68.3984
67.4603
66.4864
65.4801
64.4446
63.3835
62.3
61.1977
60.0804
58.9515
57.8143
56.6722
55.5281
54.3852
53.2459
52.1139
75.8245
75.76
75.5894
75.3144
74.9577
74.5329
74.0441
73.4935
72.8842
72.2193
71.5019
70.7352
69.922
69.0652
68.1681
67.2337
66.2654
65.2663
64.2399
63.1896
62.1187
61.0305
59.9288
58.8166
57.6973
56.5738
55.4491
54.326
53.207
52.0952
75.7391
75.6434
75.4542
75.1736
74.8138
74.3853
73.8925
73.3384
72.7261
72.0588
71.3396
70.5718
69.7584
68.9025
68.0072
67.0758
66.1115
65.1177
64.0977
63.0548
61.9924
60.9139
59.8225
58.7216
57.6141
56.5029
55.3908
54.2805
53.1744
52.0749
75.7592
75.6103
75.398
75.1111
74.7479
74.3155
73.8193
73.2625
72.6481
71.9792
71.2592
70.4911
69.678
68.8231
67.9295
67.0005
66.0394
65.0494
64.0339
62.9963
61.9397
60.8675
59.783
58.6892
57.5892
56.4858
55.3816
54.2792
53.1809
52.0887
-62.566
-34.775
-8.50009
38.3924
35.0415
30.5987
41.9314
33.2077
27.1952
38.8687
32.79
28.764
41.7979
37.2777
33.7107
44.2022
40.3982
37.2162
45.6751
42.4496
39.7412
46.864
44.1182
41.8052
47.8567
45.4768
43.4673
48.6512
46.558
44.7894
49.2814
47.421
45.8479
49.7797
48.1111
46.6985
50.17
48.6611
47.3819
50.472
49.0973
47.9304
50.7021
49.4411
48.3694
50.8737
49.7098
48.7192
50.9979
49.9172
48.9962
51.0839
50.0748
49.2137
51.1394
50.1921
49.3827
51.171
50.2772
49.5124
51.1843
50.3367
49.6105
51.1844
50.3767
49.6838
51.175
50.4016
49.7373
51.1612
50.4171
49.7771
51.1438
50.4243
49.8049
51.1305
50.4314
49.8288
51.1149
50.4321
49.8435
51.1153
50.4449
49.866
51.1063
50.4446
49.8736
51.1333
50.4807
49.9139
12.0698
6.88275
4.32035
3.56915
3.14496
2.97721
2.94753
2.97593
3.00563
3.00408
2.96079
2.88774
2.81048
2.74113
2.67501
2.60222
2.51355
2.40186
2.26162
2.08759
1.87334
1.61254
1.30275
0.949612
0.570843
0.199359
-0.116535
-0.31562
-0.327013
-0.138038
20.0876
7.65826
3.8862
3.49999
3.32018
3.14085
3.05204
3.02262
2.99942
2.95678
2.88353
2.79577
2.72658
2.67845
2.63428
2.58092
2.5084
2.40888
2.277
2.10783
1.89331
1.6242
1.29582
0.913127
0.495909
0.0841992
-0.259767
-0.461834
-0.44732
-0.191999
19.7531
11.2364
7.39036
5.89792
4.85147
4.015
3.47996
3.19415
3.05324
2.97622
2.915
2.85299
2.79322
2.73683
2.68
2.61659
2.53727
2.43351
2.30024
2.13271
1.91977
1.64699
1.30647
0.902233
0.456201
0.0140749
-0.352341
-0.557574
-0.537573
-0.244131
23.6644
17.5021
13.0661
10.121
8.00089
6.42391
5.31226
4.56317
4.05432
3.69173
3.41712
3.19951
3.02519
2.88558
2.77131
2.67138
2.57322
2.46473
2.33553
2.17366
1.96254
1.6852
1.33231
0.909102
0.4416
-0.0188452
-0.395967
-0.602926
-0.572306
-0.236856
29.0631
23.672
18.8294
14.992
12.096
9.89535
8.2205
6.9548
5.99555
5.25697
4.67624
4.21167
3.83657
3.53169
3.28002
3.06533
2.87208
2.68568
2.49227
2.27681
2.02208
1.71173
1.33682
0.902773
0.435728
-0.0136005
-0.372269
-0.558999
-0.499279
-0.137302
33.2299
28.5786
23.8758
19.7657
16.4614
13.8234
11.6964
9.98212
8.60386
7.49118
6.58428
5.83772
5.2181
4.69968
4.26074
3.88176
3.54462
3.2323
2.92831
2.61599
2.27862
1.90202
1.47983
1.01948
0.54704
0.109211
-0.23044
-0.402807
-0.342034
-0.0278552
36.4215
32.4635
28.1462
24.1069
20.6703
17.7929
15.3668
13.322
11.6064
10.1679
8.957
7.93183
7.05878
6.31026
5.66261
5.09462
4.58673
4.12054
3.67846
3.24362
2.80083
2.3388
1.8538
1.35419
0.863508
0.4208
0.07647
-0.117328
-0.115137
0.0701729
38.9805
35.5588
31.6649
27.852
24.4629
21.5122
18.9334
16.6826
14.7294
13.0399
11.5774
10.308
9.20217
8.23388
7.38009
6.61977
5.93342
5.30281
4.71093
4.14198
3.58261
3.02381
2.46347
1.90922
1.37998
0.905269
0.520987
0.261045
0.148791
0.15311
41.0107
38.0035
34.5074
30.9806
27.7416
24.8317
22.2132
19.8621
17.7649
15.9029
14.2522
12.7878
11.486
10.3248
9.28374
8.3436
7.48633
6.69503
5.95419
5.24984
4.57044
3.90844
3.262
2.63674
2.04624
1.51052
1.0522
0.689446
0.428298
0.232987
42.6213
39.9465
36.802
33.566
30.5207
27.7159
25.1314
22.7567
20.5896
18.6232
16.8438
15.2346
13.7784
12.4579
11.2565
10.1578
9.14599
8.20624
7.32494
6.48998
5.69154
4.92301
4.18209
3.47177
2.80034
2.17969
1.62193
1.13397
0.711998
0.320204
43.9124
41.5095
38.6665
35.7001
32.8571
30.1873
27.6794
25.331
23.1472
21.1285
19.2693
17.5597
15.9882
14.5423
13.2094
11.9762
10.8298
9.75754
8.74791
7.79059
6.87708
6.00139
5.16061
4.35528
3.58913
2.86763
2.19537
1.57201
0.988444
0.413831
44.9542
42.7769
40.1906
37.4649
34.8164
32.2911
29.8819
27.5901
25.4247
23.3914
21.4899
19.7158
18.0624
16.5215
15.084
13.7399
12.4789
11.2909
10.1662
9.09624
8.07362
7.09272
6.15
5.24412
4.37542
3.5448
2.75172
1.99161
1.2532
0.511695
45.797
43.8097
41.4427
38.9291
36.4604
34.078
31.7763
29.5581
27.4338
25.4118
23.4955
21.6846
19.9764
18.3661
16.8475
15.4136
14.0566
12.7687
11.5421
10.3697
9.2451
8.16296
7.11933
6.11143
5.13736
4.19501
3.2808
2.38787
1.50461
0.610874
46.4799
44.654
42.4753
40.1478
37.8425
35.5959
33.4026
31.2657
29.1959
27.2026
25.2913
23.4649
21.7231
20.064
18.4842
16.9788
15.5425
14.1694
12.8535
11.5888
10.3699
9.192
8.05075
6.94258
5.86406
4.81134
3.77914
2.75965
1.7417
0.708445
47.0332
45.3454
43.3291
41.1648
39.0061
36.8857
34.7976
32.7442
30.7359
28.7824
26.8902
25.0638
23.305
21.6139
19.989
18.4279
16.927
15.4821
14.0883
12.7413
11.4363
10.169
8.93507
7.73047
6.55098
5.39175
4.24669
3.10775
1.96453
0.802529
47.4808
45.9117
44.036
42.0147
39.987
37.982
35.9934
34.0225
32.0788
30.1715
28.3077
26.4925
24.7294
23.0196
21.3632
19.7596
18.2068
16.7017
15.241
13.8211
12.4382
11.0885
9.7679
8.47215
7.1967
5.93629
4.68454
3.43353
2.17365
0.892107
47.8417
46.3752
44.6215
42.7255
40.8144
38.9142
37.0181
35.1264
33.2473
31.3894
29.5598
27.764
26.0059
24.2878
22.6109
20.9759
19.3819
17.8271
16.3092
14.8255
13.3729
11.9482
10.5474
9.16664
7.80118
6.44572
5.09393
3.7382
2.36963
0.976681
48.1316
46.7537
45.1061
43.32
41.5123
39.7066
37.8955
36.0783
34.2621
32.4546
30.6624
28.891
27.1447
25.4263
23.7378
22.0804
20.4544
18.8591
17.2929
15.7538
14.2394
12.747
11.273
9.81376
8.36477
6.92085
5.47588
4.02267
2.55295
1.05611
48.3631
47.0621
45.5069
43.8171
42.1008
40.3797
38.646
36.8979
35.1415
33.3835
31.6299
29.886
28.1561
26.4434
24.7501
23.0777
21.4275
19.7996
18.193
16.6064
15.0377
13.4848
11.9446
10.4137
8.88789
7.36228
5.83108
4.28752
2.72391
1.13039
48.5469
47.3125
45.8376
44.2322
42.5966
40.9509
39.287
37.6023
35.9017
34.1913
32.4761
30.7613
29.0509
27.3479
25.6548
23.9735
22.3057
20.6518
19.0118
17.3845
15.7686
14.1622
12.5626
10.9668
9.371
7.77055
6.16007
4.53321
2.88283
1.19966
48.6917
47.515
46.11
44.5782
43.0136
41.4348
39.8333
38.2062
36.5571
34.8913
33.2134
31.5279
29.8383
28.1478
26.4587
24.7732
23.0929
21.4188
19.7511
18.0896
16.4329
14.7795
13.1272
11.4732
9.81408
8.14559
6.46272
4.75955
3.0294
1.26354
48.8052
47.6783
46.3339
44.8662
43.3638
41.8438
40.2979
38.7223
37.1201
35.4956
33.853
32.1959
30.5276
28.8511
27.1687
25.4824
23.7939
22.1042
20.4143
18.724
17.0324
15.3382
13.6395
11.9337
10.2179
8.4881
6.73968
4.96711
3.16414
1.3224
48.8934
47.8093
46.5171
45.105
43.6565
42.188
40.691
39.1613
37.6011
36.0142
34.404
32.7738
31.1266
29.4647
27.7904
26.1058
24.4123
22.7111
21.0033
19.289
17.5677
15.8383
14.099
12.3477
10.5815
8.79697
6.98971
5.1546
3.28579
1.37531
48.9625
47.9149
46.6676
45.3031
43.9012
42.4772
41.0228
39.5332
38.0102
36.4568
34.8762
33.2709
31.6435
29.9962
28.3309
26.6495
24.9534
23.2439
21.5219
19.7878
18.0416
16.2821
14.5079
12.717
10.9067
9.07389
7.21452
5.32376
3.39607
1.42362
49.0154
47.9987
46.7892
45.4651
44.1027
42.7167
41.2987
39.8438
38.353
36.829
35.2744
33.6915
32.0823
30.4486
28.7922
27.1149
25.418
23.7025
21.9694
20.2192
18.452
16.6671
14.8631
13.0381
11.1897
9.31497
7.41008
5.47059
3.49129
1.46477
49.0595
48.0683
46.8903
45.5999
44.2704
42.9162
41.5288
40.103
38.6395
37.1407
35.6086
34.0451
32.452
30.8307
29.1828
27.5099
25.8131
24.0936
22.3519
20.5888
18.8045
16.9986
15.1697
13.3161
11.4355
9.52513
7.58139
5.60011
3.57627
1.50233
49.0914
48.1209
46.9681
45.7046
44.4016
43.0729
41.7103
40.3082
38.8669
37.3886
35.875
34.3276
32.7479
31.1371
29.4966
27.8277
26.1316
24.4092
22.661
20.8878
19.0898
17.2667
15.4175
13.5407
11.6337
9.69402
7.71824
5.70249
3.64219
1.53039
49.1254
48.1705
47.0373
45.7945
44.5117
43.2027
41.859
40.4751
39.051
37.5886
36.0894
34.5546
32.9854
31.383
29.7484
28.0829
26.3874
24.6629
22.9099
21.129
19.3202
17.4837
15.6187
13.7236
11.7959
9.83296
7.83165
5.78833
3.69851
1.55522
49.1429
48.1982
47.0778
45.8492
44.5803
43.2846
41.9538
40.5823
39.1699
37.7183
36.2289
34.7027
33.1409
31.5442
29.9138
28.2506
26.5557
24.8298
23.0736
21.2875
19.4715
17.6258
15.75
13.8427
11.9008
9.9216
7.9024
5.83981
3.72937
1.56527
49.1825
48.237
47.1231
45.9032
44.6422
43.3536
42.0295
40.6644
39.2579
37.8117
36.3271
34.8049
33.2462
31.6519
30.0229
28.3601
26.6646
24.9372
23.1783
21.3884
19.5676
17.7158
15.8332
13.9183
11.9677
9.97809
7.94714
5.87081
3.74291
1.5536
)
;

boundaryField
{
    inlet
    {
        type            zeroGradient;
    }
    outlet
    {
        type            fixedValue;
        value           uniform 0;
    }
    flap
    {
        type            zeroGradient;
    }
    upperWall
    {
        type            zeroGradient;
    }
    lowerWall
    {
        type            zeroGradient;
    }
    frontAndBack
    {
        type            empty;
    }
}


// ************************************************************************* //
