/*--------------------------------*- C++ -*----------------------------------*\
| =========                 |                                                 |
| \\      /  F ield         | OpenFOAM: The Open Source CFD Toolbox           |
|  \\    /   O peration     | Version:  dev                                   |
|   \\  /    A nd           | Web:      www.OpenFOAM.org                      |
|    \\/     M anipulation  |                                                 |
\*---------------------------------------------------------------------------*/
FoamFile
{
    version     2.0;
    format      ascii;
    class       surfaceScalarField;
    location    "3.97";
    object      phi;
}
// * * * * * * * * * * * * * * * * * * * * * * * * * * * * * * * * * * * * * //

dimensions      [0 3 -1 0 0 0 0];

internalField   nonuniform List<scalar> 
881
(
-0.0480617
0.00166114
0.00398794
-0.0155369
0.032037
-0.0360686
0.0245182
-0.045465
0.0181337
0.0114346
0.0927022
0.058687
0.0676419
0.0495771
0.044663
0.0411112
0.0226852
0.0334111
0.0275786
0.186503
0.0814416
0.164012
0.0720668
0.141889
0.0632322
0.120182
0.0551173
0.0995739
0.0481855
0.0794463
0.0419939
0.0364477
0.265767
0.099483
0.247271
0.090562
0.228466
0.0820352
0.209552
0.0740301
0.190952
0.0667842
0.172718
0.0602273
0.154998
0.0541669
0.137793
0.0485145
0.0433531
0.330145
0.112397
0.316242
0.104463
0.301572
0.0967044
0.286358
0.0892426
0.270907
0.0822339
0.255429
0.0757048
0.240012
0.0695831
0.224685
0.0638406
0.209505
0.0585329
0.0537433
0.38033
0.120292
0.371126
0.113665
0.360842
0.106988
0.349697
0.100386
0.33794
0.0939895
0.325776
0.0878677
0.313326
0.0820322
0.300669
0.0764974
0.287888
0.0713137
0.275086
0.0665451
0.26237
0.0622245
0.0583189
0.417889
0.123697
0.413066
0.118487
0.40701
0.113043
0.399906
0.107489
0.391949
0.101945
0.383319
0.0964976
0.374147
0.0912031
0.364538
0.0861057
0.35459
0.081261
0.344407
0.0767282
0.334086
0.0725457
0.323691
0.0687141
0.0652127
0.444964
0.123415
0.443892
0.119558
0.441586
0.115348
0.438177
0.110898
0.433806
0.106314
0.428616
0.101687
0.422726
0.0970918
0.416243
0.0925886
0.409264
0.0882396
0.401887
0.0841049
0.394203
0.0802302
0.386279
0.0766383
0.378156
0.0733364
0.369856
0.0703339
0.0676531
0.463958
0.120368
0.465835
0.117679
0.466596
0.114587
0.466312
0.111181
0.465074
0.107551
0.462979
0.103781
0.460123
0.0999477
0.456594
0.0961172
0.452479
0.0923545
0.447863
0.0887204
0.442828
0.0852661
0.437438
0.0820287
0.431741
0.079034
0.42577
0.0763066
0.419548
0.0738773
0.0717845
0.477222
0.115439
0.481219
0.113681
0.484285
0.111519
0.486445
0.10902
0.487741
0.106254
0.488231
0.103291
0.487976
0.100202
0.487044
0.0970496
0.4855
0.0938982
0.483414
0.0908068
0.480851
0.087829
0.477871
0.0850095
0.474521
0.0823857
0.470836
0.0799927
0.466847
0.0778681
0.462581
0.0760536
0.458063
0.074592
0.0735218
0.486797
0.109361
0.492176
0.108302
0.496829
0.106866
0.500747
0.105101
0.50394
0.10306
0.50643
0.100801
0.508252
0.0983801
0.509445
0.0958564
0.510056
0.0932869
0.510135
0.0907281
0.509732
0.0882324
0.508895
0.0858474
0.507666
0.0836163
0.50608
0.0815806
0.504168
0.0797824
0.501958
0.0782658
0.499479
0.0770742
0.496759
0.0762458
0.075803
0.494249
0.102668
0.500441
0.10211
0.50609
0.101215
0.511173
0.100017
0.515678
0.0985549
0.519606
0.0968726
0.522968
0.0950176
0.525786
0.0930389
0.528086
0.090987
0.529901
0.0889134
0.531267
0.0868676
0.532218
0.0848968
0.53279
0.083046
0.533013
0.0813595
0.532916
0.079882
0.532526
0.0786589
0.531868
0.0777352
0.530967
0.0771515
0.529837
0.0769379
0.0771077
0.500649
0.0956972
0.507265
0.095494
0.513485
0.0949943
0.51928
0.0942218
0.524629
0.0932057
0.529521
0.0919802
0.533955
0.0905837
0.537938
0.089057
0.541481
0.0874437
0.544606
0.0857892
0.547336
0.0841394
0.549694
0.0825395
0.551708
0.0810337
0.553403
0.0796667
0.554804
0.0784839
0.555935
0.0775316
0.556817
0.0768564
0.55747
0.0765027
0.557903
0.0765102
0.558104
0.0769128
0.077711
0.506645
0.0886399
0.513452
0.0886869
0.519972
0.0884744
0.526174
0.0880193
0.532036
0.0873435
0.537543
0.0864739
0.542685
0.0854414
0.547462
0.0842805
0.551878
0.0830283
0.555944
0.0817244
0.559674
0.0804104
0.563087
0.079129
0.5662
0.0779226
0.569035
0.0768344
0.571612
0.0759096
0.573952
0.0751946
0.576076
0.0747372
0.577997
0.0745857
0.579724
0.0747885
0.581247
0.0753962
0.0764489
0.512595
0.0815908
0.519468
0.0818141
0.526132
0.0818109
0.532558
0.0815931
0.538725
0.0811774
0.544614
0.0805848
0.550215
0.0798405
0.555523
0.0789734
0.560537
0.0780154
0.565262
0.0770007
0.569708
0.0759666
0.573886
0.0749528
0.577811
0.0739997
0.5815
0.0731483
0.58497
0.0724422
0.588241
0.0719277
0.59133
0.071653
0.594251
0.0716693
0.597014
0.0720313
0.599615
0.0728013
0.0740467
0.518691
0.0745917
0.525568
0.0749368
0.532294
0.075085
0.538843
0.0750446
0.545193
0.074828
0.551327
0.0744517
0.557232
0.0739362
0.562901
0.0733056
0.568331
0.0725872
0.573522
0.0718109
0.578481
0.0710095
0.583217
0.0702193
0.587741
0.0694783
0.592067
0.0688254
0.596211
0.0683021
0.600189
0.0679531
0.60402
0.0678269
0.607719
0.0679758
0.611298
0.068458
0.614764
0.0693418
0.0707108
0.52504
0.0676577
0.531895
0.068082
0.538645
0.0683363
0.545264
0.0684262
0.551732
0.0683606
0.558032
0.0681526
0.564151
0.0678185
0.57008
0.0673784
0.575813
0.0668555
0.58135
0.066276
0.586693
0.0656683
0.59185
0.0650649
0.59683
0.0645013
0.601645
0.0640142
0.606309
0.0636423
0.610838
0.0634286
0.61525
0.0634201
0.619562
0.0636688
0.623793
0.0642337
0.627957
0.0651844
0.0666109
0.531722
0.0607909
0.538546
0.0612596
0.5453
0.0615829
0.551963
0.0617643
0.558515
0.0618102
0.564939
0.0617305
0.57122
0.0615384
0.57735
0.0612504
0.583321
0.060886
0.589132
0.0604678
0.594782
0.0600208
0.600276
0.0595734
0.605623
0.0591577
0.610833
0.0588082
0.615919
0.058561
0.620896
0.058456
0.625784
0.058538
0.630601
0.0588574
0.63537
0.0594713
0.640115
0.060447
0.0618744
0.538812
0.0539864
0.545602
0.0544704
0.552355
0.0548315
0.559049
0.0550714
0.565666
0.0551949
0.572189
0.0552094
0.578604
0.0551252
0.584901
0.0549559
0.591072
0.0547177
0.597112
0.0544299
0.603021
0.0541144
0.608803
0.0537955
0.614462
0.0535017
0.62001
0.0532647
0.625458
0.053118
0.630821
0.053098
0.636118
0.0532463
0.641372
0.05361
0.646608
0.054243
0.651855
0.0552077
0.056589
0.546382
0.0472346
0.553145
0.0477093
0.559897
0.0480815
0.566618
0.0483519
0.573292
0.0485237
0.579901
0.0486024
0.586432
0.0485962
0.592875
0.048516
0.59922
0.0483752
0.605463
0.0481899
0.611602
0.047979
0.617638
0.0477633
0.623576
0.0475676
0.629425
0.0474203
0.635196
0.0473517
0.640905
0.0473945
0.646572
0.0475863
0.652218
0.0479703
0.657873
0.0485953
0.663571
0.0495181
0.0508162
0.554516
0.0405218
0.561261
0.0409667
0.568017
0.0413273
0.574767
0.041604
0.581495
0.0417988
0.588184
0.0419157
0.594822
0.0419611
0.601397
0.0419436
0.607901
0.0418742
0.614329
0.0417662
0.620676
0.0416354
0.626944
0.0414997
0.633136
0.0413799
0.639261
0.0413006
0.645329
0.0412887
0.651357
0.0413732
0.657362
0.0415872
0.663371
0.0419688
0.669413
0.0425615
0.675525
0.0434147
0.0445972
0.563299
0.0338309
0.57004
0.0342285
0.576811
0.0345587
0.583597
0.034821
0.590381
0.035017
0.59715
0.0351496
0.603891
0.0352236
0.610592
0.0352457
0.617245
0.0352247
0.623844
0.0351714
0.630385
0.0350986
0.636868
0.0350215
0.643296
0.034957
0.649676
0.0349254
0.65602
0.0349503
0.662343
0.0350567
0.668665
0.0352728
0.67501
0.0356311
0.681411
0.0361688
0.687906
0.0369287
0.0379715
0.572823
0.0271413
0.579578
0.0274773
0.586379
0.0277608
0.593211
0.0279917
0.600061
0.0281706
0.606914
0.0282998
0.613759
0.0283827
0.620583
0.0284246
0.62738
0.028432
0.634142
0.0284135
0.640866
0.0283794
0.647551
0.0283415
0.6542
0.0283135
0.66082
0.0283116
0.667421
0.0283554
0.674019
0.0284655
0.680634
0.0286649
0.687293
0.0289802
0.694028
0.0294425
0.70088
0.0300864
0.0309616
0.583196
0.0204292
0.589985
0.0206916
0.596834
0.0209156
0.603729
0.0211008
0.610655
0.0212477
0.617601
0.0213577
0.624555
0.0214333
0.631505
0.0214783
0.638444
0.0214975
0.645365
0.0214972
0.652265
0.0214851
0.659141
0.02147
0.665998
0.0214622
0.672842
0.0214743
0.679683
0.0215211
0.686537
0.0216188
0.693425
0.0217848
0.700373
0.0220399
0.707416
0.0224087
0.714593
0.0229196
0.0236162
0.594517
0.0136668
0.601367
0.0138462
0.608286
0.0140003
0.615262
0.0141286
0.622282
0.0142316
0.629334
0.01431
0.636406
0.0143655
0.643488
0.0144005
0.650572
0.0144183
0.657652
0.014423
0.664722
0.0144197
0.671784
0.0144142
0.678838
0.0144139
0.685892
0.0144268
0.692957
0.0144633
0.700049
0.0145348
0.707188
0.0146531
0.714404
0.0148329
0.72173
0.015092
0.729209
0.0154511
0.015941
0.606901
0.00682521
0.613836
0.00691466
0.62085
0.00699122
0.627928
0.00705473
0.635059
0.0071053
0.64223
0.00714337
0.64943
0.00716975
0.65665
0.00718566
0.663881
0.00719273
0.671116
0.00719306
0.678352
0.00718923
0.685588
0.00718433
0.692826
0.00718202
0.700074
0.00718639
0.707341
0.00720281
0.714647
0.00723749
0.722011
0.00729675
0.729465
0.00738872
0.737042
0.0075248
0.744781
0.00772268
0.00802838
0.610156
0.617075
0.62407
0.63113
0.63824
0.645388
0.652562
0.659753
0.666951
0.67415
0.681345
0.688536
0.695724
0.702918
0.710128
0.717374
0.724679
0.732077
0.739612
0.747346
)
;

boundaryField
{
    inlet
    {
        type            calculated;
        value           nonuniform 0();
    }
    outlet
    {
        type            calculated;
        value           nonuniform List<scalar> 
15
(
0.55801
0.582515
0.602024
0.618108
0.632065
0.64486
0.657149
0.669353
0.681753
0.694541
0.7079
0.721949
0.736895
0.752704
0.755385
)
;
    }
    flap
    {
        type            calculated;
        value           nonuniform 0();
    }
    upperWall
    {
        type            calculated;
        value           nonuniform List<scalar> 
21
(
0
0
0
0
0
0
8.6188e-15
0
9.03431e-15
0
0
-9.69403e-15
0
0
0
-5.32284e-15
0
0
0
0
-5.98389e-15
)
;
    }
    lowerWall
    {
        type            calculated;
        value           nonuniform 0();
    }
    frontAndBack
    {
        type            empty;
        value           nonuniform 0();
    }
    procBoundary2to1
    {
        type            processor;
        value           nonuniform List<scalar> 
17
(
-0.48072
-0.487557
-0.493679
-0.499588
-0.505546
-0.511691
-0.518105
-0.524855
-0.532006
-0.539629
-0.547801
-0.556606
-0.566131
-0.576481
-0.587751
-0.600055
-0.603326
)
;
    }
    procBoundary2to4
    {
        type            processor;
        value           nonuniform List<scalar> 
11
(
0.0511694
-0.0148405
-0.119354
-0.209259
-0.28381
-0.34306
-0.388227
-0.421295
-0.444684
-0.460911
-0.472294
)
;
    }
    procBoundary2to5
    {
        type            processor;
        value           nonuniform List<scalar> 
34
(
-0.00477032
-0.00529327
-0.0467578
-0.00873864
-0.00767834
-0.0492225
-0.00428304
-0.000611548
-0.0218674
-0.0177757
0.0607735
-0.0313107
-0.0266871
0.121127
-0.0388071
0.194568
-0.049509
-0.0457453
0.249797
-0.0547678
0.313247
-0.062032
-0.0591859
0.36139
-0.0653287
0.413094
-0.0700714
-0.0687805
0.453326
-0.0728638
0.493824
-0.0757382
0.528473
-0.0776114
)
;
    }
}


// ************************************************************************* //
