/*--------------------------------*- C++ -*----------------------------------*\
| =========                 |                                                 |
| \\      /  F ield         | OpenFOAM: The Open Source CFD Toolbox           |
|  \\    /   O peration     | Version:  dev                                   |
|   \\  /    A nd           | Web:      www.OpenFOAM.org                      |
|    \\/     M anipulation  |                                                 |
\*---------------------------------------------------------------------------*/
FoamFile
{
    version     2.0;
    format      ascii;
    class       volScalarField;
    location    "0.41";
    object      p;
}
// * * * * * * * * * * * * * * * * * * * * * * * * * * * * * * * * * * * * * //

dimensions      [0 2 -2 0 0 0 0];

internalField   nonuniform List<scalar> 
2790
(
78.9032
78.783
79.0061
79.5639
80.3501
81.312
82.4424
83.7431
85.2115
86.8421
88.6291
90.5658
92.6439
94.8526
97.1776
99.5999
102.095
104.633
107.176
109.678
112.089
114.354
116.416
118.224
119.738
120.938
121.829
122.444
122.832
123.039
78.7169
78.6944
78.9407
79.4964
80.2793
81.2381
82.3641
83.6589
85.12
86.7424
88.5202
90.4469
92.5144
94.7122
97.0265
99.439
101.926
104.459
106.999
109.505
111.926
114.208
116.294
118.133
119.685
120.928
121.869
122.542
123.003
123.321
78.5251
78.5734
78.8382
79.3842
80.1545
81.1007
82.2121
83.4891
84.9295
86.5281
88.279
90.1757
92.2099
94.3715
96.6471
99.0193
101.466
103.96
106.466
108.946
111.353
113.637
115.747
117.637
119.269
120.624
121.704
122.533
123.14
123.587
78.3108
78.3925
78.6691
79.2059
79.9615
80.8916
81.9836
83.2371
84.6497
86.2159
87.9298
89.7846
91.772
93.882
96.1015
98.4141
100.799
103.232
105.681
108.112
110.484
112.755
114.881
116.822
118.546
120.031
121.272
122.269
123.013
123.554
78.0643
78.1613
78.4461
78.9749
79.7141
80.6235
81.6904
82.9135
84.29
85.8146
87.481
89.2821
91.2096
93.2536
95.4014
97.6376
99.9433
102.296
104.669
107.032
109.351
111.592
113.719
115.699
117.503
119.11
120.497
121.643
122.501
123.115
77.7812
77.8845
78.1717
78.6905
79.41
80.2938
81.3297
82.5158
83.849
85.3236
86.933
88.6701
90.5262
92.4916
94.554
96.6989
98.9091
101.164
103.442
105.717
107.962
110.15
112.253
114.246
116.105
117.805
119.314
120.59
121.562
122.284
77.4596
77.5642
77.8486
78.3544
79.0513
79.9053
80.9051
82.0483
83.3312
84.7479
86.2915
87.9544
89.7281
91.6027
93.5663
95.6052
97.7035
99.8436
102.006
104.17
106.315
108.42
110.465
112.433
114.306
116.06
117.66
119.052
120.151
121.051
77.0991
77.2019
77.4792
77.9688
78.6401
79.4605
80.4192
81.5138
82.7398
84.0911
85.5604
87.1398
88.8204
90.5923
92.4438
94.3618
96.3316
98.3373
100.362
102.389
104.401
106.385
108.328
110.22
112.05
113.803
115.451
116.939
118.176
119.326
76.7001
76.799
77.0659
77.5362
78.1788
78.9618
79.8751
80.9156
82.0787
83.3576
84.7447
86.2315
87.809
89.4667
91.1931
92.9752
94.7988
96.6492
98.511
100.37
102.212
104.028
105.81
107.557
109.268
110.941
112.567
114.11
115.475
116.945
76.2636
76.3571
76.6108
77.0591
77.67
78.4123
79.2758
80.2575
81.352
82.5522
83.8498
85.2358
86.7006
88.2333
89.8219
91.453
93.1124
94.7854
96.4568
98.1126
99.7407
101.332
102.883
104.396
105.881
107.357
108.844
110.348
111.793
113.651
75.7911
75.8781
76.1164
76.54
77.1166
77.815
78.6251
79.5435
80.5645
81.6802
82.8817
84.1594
85.5029
86.9004
88.3391
89.8048
91.2823
92.7555
94.2081
95.6241
96.9891
98.2918
99.5263
100.695
101.815
102.92
104.069
105.345
106.728
109.023
75.2843
75.3638
75.585
75.9817
76.5215
77.1732
77.9266
78.778
79.7211
80.7473
81.8469
83.0097
84.2241
85.4774
86.7554
88.0424
89.3212
90.5734
91.7794
92.9186
93.9709
94.9171
95.7416
96.4366
97.0095
97.4973
97.988
98.6622
99.6258
102.294
74.7451
74.8165
75.0191
75.3869
75.8879
76.4905
77.1844
77.9654
78.8269
79.7593
80.7523
81.7946
82.8735
83.9748
85.0828
86.1797
87.2454
88.2578
89.1921
90.0209
90.7139
91.2378
91.5575
91.6384
91.4534
91.0009
90.3429
89.7179
89.4069
91.9885
74.1756
74.2384
74.4212
74.7587
75.219
75.7704
76.4025
77.1107
77.8874
78.7227
79.6052
80.5226
81.4608
82.4043
83.3351
84.2327
85.0739
85.8316
86.4746
86.9661
87.2619
87.3089
87.0414
86.3787
85.2221
83.4596
80.9882
77.8694
74.2806
74.8155
73.5782
73.632
73.7942
74.1
74.5181
75.0168
75.5853
76.2184
76.9081
77.6438
78.413
79.2023
79.9964
80.7777
81.5263
82.2189
82.828
83.3216
83.6609
83.7981
83.6736
83.2099
82.3035
80.8112
78.5268
75.1412
70.1642
62.874
51.6254
41.1173
-59.0922
-59.5453
-60.5648
-62.3737
-65.0881
-68.7607
-73.3916
-78.9307
-85.2751
-92.2631
-99.6675
-107.19
-114.463
-121.052
-126.478
-130.246
-131.878
-130.95
-127.132
-120.28
-110.494
-98.103
-83.6195
-67.7103
-51.1528
-34.81
-19.6714
-7.10076
0.775421
5.54269
-58.9632
-59.5118
-60.6035
-62.4771
-65.2511
-68.9835
-73.6785
-79.2893
-85.7149
-92.7944
-100.3
-107.932
-115.317
-122.017
-127.546
-131.401
-133.104
-132.234
-128.455
-121.625
-111.863
-99.5027
-85.06
-69.1999
-52.705
-36.4485
-21.4197
-8.93534
-1.04329
3.43819
-59.0614
-59.8717
-61.2024
-63.2817
-66.218
-70.0781
-74.8775
-80.5803
-87.095
-94.2679
-101.876
-109.623
-117.132
-123.959
-129.608
-133.566
-135.349
-134.528
-130.758
-123.902
-114.108
-101.726
-87.2761
-71.4271
-54.9717
-38.7993
-23.9006
-11.5084
-3.42141
1.56652
-59.7317
-60.8301
-62.4075
-64.7104
-67.8285
-71.8353
-76.7584
-82.5748
-89.2049
-96.5044
-104.257
-112.165
-119.853
-126.864
-132.69
-136.802
-138.698
-137.94
-134.171
-127.265
-117.406
-104.963
-90.4627
-74.5756
-58.1023
-41.9447
-27.0896
-14.6537
-6.06358
-0.0408727
-61.2214
-62.5124
-64.2395
-66.7067
-69.9723
-74.1112
-79.1566
-85.0951
-91.8568
-99.306
-107.232
-115.338
-123.244
-130.483
-136.528
-140.829
-142.859
-142.166
-138.384
-131.404
-121.457
-108.931
-94.3551
-78.3965
-61.8584
-45.6447
-30.724
-18.0757
-8.72615
-1.37879
-63.604
-64.901
-66.6422
-69.1839
-72.537
-76.7732
-81.926
-87.987
-94.8931
-102.515
-110.646
-118.991
-127.161
-134.675
-140.986
-145.515
-147.702
-147.056
-143.225
-136.142
-126.079
-113.446
-98.7683
-82.7017
-66.0443
-49.6911
-34.5777
-21.536
-11.2558
-2.48268
-66.6981
-67.7876
-69.4248
-71.9584
-75.3398
-79.6377
-84.881
-91.0625
-98.1226
-105.936
-114.298
-122.912
-131.381
-139.209
-145.822
-150.606
-152.956
-152.342
-148.431
-141.214
-131.016
-118.264
-103.473
-87.2714
-70.4474
-53.8771
-38.4508
-24.8525
-13.5592
-3.4015
-70.0727
-70.8085
-72.2888
-74.7665
-78.1397
-82.4781
-87.8031
-94.1061
-101.329
-109.347
-117.958
-126.862
-135.657
-143.828
-150.77
-155.829
-158.346
-157.742
-153.715
-146.339
-135.996
-123.128
-108.225
-91.8789
-74.8552
-58.0103
-42.1748
-27.9052
-15.5835
-4.1805
-73.2087
-73.5493
-74.8947
-77.3139
-80.6744
-85.0532
-90.4631
-96.8936
-104.286
-112.517
-121.384
-130.588
-139.718
-148.247
-155.536
-160.881
-163.56
-162.942
-158.77
-151.221
-140.736
-127.772
-112.78
-96.3057
-79.069
-61.9231
-45.6118
-30.633
-17.3114
-4.85049
-75.6378
-75.6454
-76.9316
-79.3266
-82.6992
-87.1376
-92.6462
-99.2134
-106.78
-115.222
-124.339
-133.832
-143.288
-152.168
-159.806
-165.437
-168.271
-167.622
-163.288
-155.571
-144.965
-131.944
-116.911
-100.36
-82.9305
-65.4801
-48.6579
-32.986
-18.7756
-5.42189
-77.0429
-76.8485
-78.1702
-80.5957
-84.0232
-88.5515
-94.1775
-100.889
-108.625
-117.261
-126.601
-136.35
-146.095
-155.294
-163.259
-169.162
-172.141
-171.464
-166.982
-159.143
-148.471
-135.453
-120.438
-103.875
-86.329
-68.5416
-51.2441
-34.9528
-19.9656
-5.90849
-77.3103
-77.0575
-78.495
-81.0127
-84.5439
-89.1935
-94.9522
-101.803
-109.685
-118.477
-127.99
-137.931
-147.891
-157.332
-165.561
-171.7
-174.815
-174.16
-169.591
-161.714
-151.114
-138.183
-123.251
-106.697
-89.066
-71.0111
-53.2947
-36.4988
-20.8815
-6.32328
-76.5053
-76.3309
-77.9215
-80.5724
-84.2488
-89.05
-94.9557
-101.939
-109.937
-118.836
-128.448
-138.485
-148.551
-158.117
-166.503
-172.822
-176.057
-175.46
-170.905
-163.098
-152.678
-139.94
-125.168
-108.681
-90.9876
-72.7668
-54.7654
-37.6063
-21.53
-6.67672
-74.8889
-74.8709
-76.5919
-79.3749
-83.2213
-88.1996
-94.2627
-101.367
-109.447
-118.392
-128.015
-138.041
-148.087
-157.64
-166.038
-172.4
-175.676
-175.13
-170.715
-163.139
-152.993
-140.555
-126.029
-109.695
-92.0474
-73.779
-55.6376
-38.2732
-21.9227
-6.97608
-72.8721
-73
-74.7263
-77.5802
-81.6194
-86.7992
-93.0165
-100.215
-108.327
-117.246
-126.791
-136.698
-146.595
-155.984
-164.213
-170.422
-173.608
-173.119
-168.977
-161.798
-152.078
-140.04
-125.837
-109.737
-92.2387
-74.0467
-55.9156
-38.5121
-22.0758
-7.22412
72.9433
72.9878
73.1281
73.4007
73.7749
74.2187
74.721
75.2764
75.8761
76.5086
77.1608
77.8179
78.4633
79.0776
79.6385
80.1196
80.4897
80.7111
80.7374
80.5101
79.9533
78.9655
77.4046
75.0627
71.616
66.5216
58.7561
46.1588
21.0087
-47.2771
72.2636
72.2982
72.4156
72.6533
72.9812
73.3677
73.8012
74.2756
74.7819
75.3076
75.8387
76.3593
76.8514
77.2938
77.662
77.9268
78.053
77.9981
77.7086
77.117
76.1341
74.6395
72.4639
69.3576
64.9324
58.5439
49.0316
34.4981
13.1775
-17.3117
71.5441
71.5684
71.6622
71.8636
72.1438
72.4711
72.8337
73.2251
73.6355
74.052
74.4596
74.8415
75.1782
75.4471
75.6215
75.6699
75.554
75.2271
74.6312
73.6922
72.3139
70.3679
67.6785
63.9996
58.9806
52.1325
42.8226
30.4571
15.7167
-1.01032
70.7861
70.8
70.8693
71.0335
71.2648
71.5317
71.822
72.1289
72.4422
72.7482
73.0315
73.2741
73.4556
73.5519
73.535
73.3714
73.0209
72.4344
71.5514
70.2961
68.5718
66.2543
63.182
59.1466
53.8867
47.0995
38.4862
27.7548
14.8829
-0.55116
69.9912
69.9945
70.039
70.1653
70.347
70.5525
70.7698
70.9916
71.2074
71.403
71.5624
71.667
71.6955
71.6231
71.4208
71.0541
70.482
69.655
68.5129
66.9821
64.9716
62.3695
59.0384
54.8141
49.5074
42.9128
34.8255
25.0071
13.2913
-0.103043
69.1616
69.1542
69.1736
69.2617
69.3933
69.5373
69.6815
69.8184
69.9372
70.0235
70.0609
70.0306
69.9107
69.676
69.2973
68.7401
67.9639
66.9205
65.5527
63.7921
61.5574
58.7526
55.2659
50.9712
45.7314
39.4048
31.8626
23.0021
12.8192
1.73358
68.2998
68.2817
68.276
68.3259
68.4074
68.4903
68.5619
68.6149
68.6383
68.6177
68.5366
68.376
68.114
67.7258
67.1824
66.4505
65.491
64.2589
62.7014
60.7578
58.3581
55.4233
51.866
47.593
42.5106
36.5331
29.5996
21.6933
12.8546
3.40687
67.4087
67.38
67.3494
67.3613
67.3935
67.4159
67.4163
67.3872
67.3178
67.1938
66.9989
66.7143
66.3186
65.7876
65.0935
64.2048
63.0851
61.6934
59.9828
57.9012
55.3906
52.3885
48.8293
44.648
39.785
34.1943
27.8535
20.774
12.9953
4.77307
66.4917
66.4526
66.3976
66.3722
66.3559
66.3194
66.2505
66.142
65.9833
65.7605
65.4577
65.0567
64.537
63.8756
63.0464
62.0203
60.7644
59.2423
57.414
55.2359
52.6618
49.6441
46.1357
42.0937
37.4829
32.2819
26.4885
20.1262
13.2366
6.03414
65.5526
65.5034
65.4247
65.363
65.2996
65.206
65.0704
64.8859
64.6423
64.3264
63.9227
63.4141
62.7813
62.0029
61.0551
59.9115
58.5434
56.9193
55.0059
52.7682
50.1705
47.1781
43.7589
39.8862
35.5419
30.7203
25.4311
19.7039
13.5806
7.23618
64.5957
64.5368
64.4352
64.3386
64.2298
64.0817
63.8826
63.626
63.3027
62.8999
62.4033
61.7967
61.0626
60.1814
59.1317
57.8906
56.4332
54.7334
52.7643
50.4986
47.91
44.9741
41.6707
37.9849
33.9105
29.4513
24.6237
19.4588
13.995
8.37354
63.6256
63.5575
63.4341
63.3041
63.1523
62.9524
62.6934
62.3695
61.9721
61.4895
60.9084
60.2142
59.3908
58.4211
57.2862
55.9666
54.4416
52.69
50.6907
48.4234
45.8695
43.0131
39.8428
36.3523
32.543
28.4247
24.0164
19.348
14.4541
9.44844
62.6474
62.5706
62.4266
62.2651
62.0728
61.8244
61.5097
61.1236
60.6583
60.1033
59.4466
58.6751
57.7748
56.7305
55.5265
54.1464
52.5733
50.7908
48.783
46.5354
44.0358
41.275
38.2478
34.9542
31.4001
27.5985
23.5693
19.3399
14.9409
10.4646
61.6665
61.5816
61.4184
61.2276
60.9974
60.7041
60.3381
59.8952
59.3686
58.749
58.0257
57.1875
56.2221
55.1168
53.8587
52.4343
50.8306
49.0352
47.0367
44.8256
42.3946
39.7395
36.8599
33.7596
30.4475
26.9379
23.2503
19.4094
15.4421
11.4233
60.6885
60.5962
60.4155
60.1974
59.9324
59.598
59.1855
58.6914
58.1101
57.4336
56.6528
55.758
54.739
53.5855
52.2868
50.8328
49.2136
47.4203
45.4454
43.2833
40.9306
38.3869
35.655
32.7412
29.656
26.4139
23.0333
19.5364
15.9466
12.3245
59.7196
59.6206
59.4238
59.1809
58.8843
58.5127
58.0584
57.5189
56.8896
56.164
55.3343
54.3927
53.3308
52.1405
50.8138
49.3428
47.7207
45.9418
44.0014
41.8973
39.6289
37.1987
34.6114
31.8749
29.0004
26.002
22.8968
19.7044
16.445
13.1682
58.7661
58.6611
58.4498
58.1846
57.8595
57.4548
56.9635
56.3842
55.7135
54.9461
54.0759
53.0965
52.0016
50.7851
49.4408
47.9637
46.3492
44.5941
42.6964
40.6561
38.4751
36.1574
33.7093
31.1395
28.4592
25.6818
22.823
19.8998
16.9301
13.9541
57.8344
57.7241
57.5001
57.215
56.8647
56.4307
55.9072
55.2936
54.5878
53.7857
52.8826
51.8739
50.7548
49.5209
48.1685
46.6941
45.0954
43.3712
41.5217
39.5485
37.4553
35.2471
32.9312
30.5165
28.014
25.4361
22.797
20.1118
17.396
14.6823
56.9314
56.8165
56.5813
56.2788
55.9063
55.4469
54.8958
54.2532
53.5181
52.6878
51.759
50.7283
49.5926
48.3494
46.9962
45.5317
43.9551
42.2669
40.4688
38.5639
36.5568
34.4536
32.2617
29.99
27.6491
25.2505
22.8068
20.3314
17.8378
15.3528
56.064
55.9452
55.7004
55.3827
54.991
54.51
53.9355
53.2688
52.5099
51.6573
50.7089
49.6627
48.5172
47.2709
45.9232
44.4739
42.9238
41.2747
39.5295
37.6922
35.7682
33.764
31.6871
29.5462
27.3512
25.1128
22.8423
20.5515
18.252
15.9659
55.2393
55.1172
54.8642
54.5335
54.1255
53.6261
53.0322
52.3459
51.5681
50.6985
49.736
48.6799
47.5299
46.2857
44.9481
43.5179
41.9972
40.3887
38.6961
36.9243
35.079
33.1669
31.1955
29.1732
27.1092
25.0132
22.8953
20.7661
18.6358
16.5224
54.4647
54.3398
54.0799
53.7381
53.3163
52.8017
52.192
51.49
50.6977
49.8155
48.8435
47.7821
46.6319
45.3939
44.0696
42.6611
41.1711
39.6032
37.9618
36.2521
34.4802
32.6528
30.7771
28.8612
26.9136
24.9433
22.9593
20.971
18.9873
17.0231
53.7476
53.6203
53.3546
53.0034
52.5701
52.0431
51.4207
50.7065
49.9033
49.0123
48.0347
46.9715
45.8245
44.5953
43.2864
41.9007
40.4415
38.9131
37.3202
35.6683
33.9636
32.2128
30.423
28.6016
26.7566
24.8962
23.0286
21.1621
19.3046
17.4685
53.0958
52.9665
52.6958
52.3365
51.8936
51.3564
50.7241
50.0007
49.1896
48.293
47.3127
46.2505
45.1089
43.8904
42.598
41.2351
39.8058
38.3146
36.7666
35.1674
33.5233
31.8408
30.1267
28.3881
26.6323
24.867
23.0996
21.3374
19.5878
17.8607
52.5173
52.3861
52.1107
51.7443
51.2933
50.7479
50.1079
49.3776
48.5611
47.6611
46.6802
45.6208
44.486
43.2787
42.0027
40.6617
39.2603
37.8031
36.2955
34.7432
33.1525
31.5296
29.8811
28.2137
26.5343
24.8499
23.1673
21.4932
19.834
18.1982
52.0207
51.8874
51.6069
51.2339
50.7761
50.2245
49.5787
48.8437
48.0238
47.1224
46.1424
45.087
43.9595
42.7634
41.5029
40.1821
38.8056
37.3786
35.9063
34.3946
32.8495
31.2774
29.6844
28.0769
26.4614
24.8443
23.2322
21.6309
20.0465
18.4862
51.6156
51.4789
51.1919
50.8118
50.3477
49.7906
49.1402
48.4015
47.5793
46.6775
45.6993
44.6481
43.5277
42.342
41.0952
39.7919
38.4369
37.0353
35.5926
34.1145
32.6071
31.0764
29.5285
27.9694
26.4053
24.8424
23.2864
21.7431
20.2179
18.7168
51.3133
51.1692
50.8737
50.4879
50.0199
49.4591
48.8054
48.0642
47.2407
46.339
45.3627
44.3154
43.201
42.0239
40.7885
39.4993
38.1615
36.7801
35.3607
33.909
32.431
30.9325
29.4194
27.8976
26.373
24.8514
23.3384
21.8394
20.3595
18.9041
51.1306
50.9598
50.6471
50.2559
49.7857
49.2229
48.5673
47.825
47.0014
46.1007
45.1265
44.0827
42.9733
41.8029
40.5758
39.2969
37.9713
36.6041
35.2009
33.7673
32.3094
30.8328
29.3433
27.8466
26.3484
24.8544
23.37
21.9002
20.4501
19.0243
51.1083
50.8853
50.5478
50.1492
49.6754
49.1093
48.451
47.7071
46.883
45.9826
45.0096
43.968
42.8618
41.6955
40.4737
39.2013
37.8831
36.5246
35.1311
33.7082
32.2619
30.7979
29.3218
27.8391
26.3557
24.8768
23.4078
21.9537
20.5193
19.1085
-140.693
-121.635
-94.3767
-36.7837
-41.4059
-47.0897
-17.9234
-29.0289
-38.2268
-16.9852
-27.2871
-34.8665
-12.932
-21.2743
-28.0017
-8.69106
-15.8105
-21.9135
-5.57447
-11.7859
-17.1742
-3.04291
-8.44986
-13.1394
-0.786018
-5.50695
-9.59136
1.24748
-2.8995
-6.47286
3.08471
-0.576238
-3.71686
4.75697
1.51172
-1.2613
6.28675
3.39906
0.939599
7.68918
5.11063
2.92003
8.97552
6.66533
4.70629
10.1544
8.07777
6.31876
11.2324
9.35944
7.77352
12.2153
10.5197
9.0837
13.1076
11.5666
10.2603
13.9137
12.507
11.3129
14.6372
13.347
12.2495
15.2823
14.0923
13.0779
15.8512
14.7472
13.8038
16.3486
15.3175
14.434
16.7737
15.8038
14.9704
17.1344
16.2145
15.4219
17.4216
16.5416
15.7819
17.6535
16.8035
16.0675
17.8023
16.9732
16.2545
17.91
17.0976
16.388
-70.5454
-71.2037
-72.6859
-75.4376
-79.6802
-85.0639
-91.4044
-98.6427
-106.716
-115.52
-124.882
-134.546
-144.154
-153.22
-161.11
-167.013
-170.034
-169.631
-165.858
-159.197
-150.004
-138.434
-124.612
-108.816
-91.5644
-73.5764
-55.6108
-38.3388
-22.0075
-7.42479
-58.4907
-65.2752
-68.7907
-72.8085
-77.6755
-83.2831
-89.6628
-96.8362
-104.76
-113.331
-122.383
-131.669
-140.842
-149.436
-156.852
-162.358
-165.192
-164.91
-161.555
-155.456
-146.819
-135.731
-122.316
-106.88
-89.9736
-72.3275
-54.6957
-37.7405
-21.7132
-7.57428
-51.2195
-60.9451
-65.8234
-70.3755
-75.6762
-81.5746
-88.0056
-95.0356
-102.688
-110.894
-119.503
-128.277
-136.887
-144.895
-151.753
-156.824
-159.476
-159.329
-156.37
-150.778
-142.634
-131.98
-118.961
-103.931
-87.4717
-70.3136
-53.1906
-36.7389
-21.2081
-7.66875
-45.1532
-55.4087
-62.3201
-68.1606
-73.9531
-79.9653
-86.3599
-93.2341
-100.594
-108.376
-116.453
-124.617
-132.569
-139.91
-146.158
-150.775
-153.246
-153.205
-150.539
-145.305
-137.509
-127.193
-114.548
-99.978
-84.0818
-67.5692
-51.1328
-35.3664
-20.5112
-7.70326
-37.4879
-47.9259
-56.6243
-64.1814
-71.0823
-77.6754
-84.2693
-91.0847
-98.2086
-105.614
-113.189
-120.75
-128.033
-134.694
-140.323
-144.49
-146.727
-146.657
-144.09
-138.996
-131.379
-121.32
-109.064
-95.0468
-79.8577
-64.1597
-48.5851
-33.6717
-19.6475
-7.67198
-30.3667
-40.2342
-49.7043
-58.4053
-66.3167
-73.6883
-80.7912
-87.8296
-94.9199
-102.087
-109.27
-116.32
-123.015
-129.057
-134.102
-137.8
-139.693
-139.38
-136.682
-131.564
-124.054
-114.279
-102.518
-89.2075
-74.8993
-60.1891
-45.6369
-31.7186
-18.6479
-7.56869
-24.3892
-33.208
-42.5725
-51.6445
-60.0594
-67.9421
-75.485
-82.8177
-90.0142
-97.0961
-104.023
-110.681
-116.887
-122.387
-126.88
-130.044
-131.443
-130.739
-127.841
-122.726
-115.429
-106.1
-95.026
-82.6183
-69.3708
-55.8037
-42.4026
-29.5834
-17.5469
-7.38854
-19.2644
-26.9717
-35.7314
-44.5833
-52.9899
-60.9746
-68.6582
-76.1014
-83.3225
-90.3111
-97.0176
-103.339
-109.112
-114.115
-118.072
-120.659
-121.533
-120.498
-117.53
-112.593
-105.715
-97.0492
-86.8688
-75.5423
-63.4986
-51.183
-39.0124
-27.348
-16.3809
-7.13051
-14.8359
-21.5324
-29.4646
-37.7286
-45.741
-53.4607
-60.9559
-68.238
-75.28
-82.038
-88.4441
-94.3917
-99.7276
-104.249
-107.704
-109.788
-110.273
-109.098
-106.249
-101.677
-95.4065
-87.5785
-78.4377
-68.302
-57.5353
-46.5144
-35.5949
-25.0908
-15.1845
-6.79966
-11.0084
-16.8304
-23.8868
-31.3898
-38.7792
-45.9819
-53.0334
-59.9161
-66.5746
-72.9408
-78.9315
-84.4361
-89.3092
-93.3675
-96.3908
-98.1222
-98.4199
-97.2859
-94.7035
-90.6242
-85.071
-78.1683
-70.1233
-61.2026
-51.7099
-41.9612
-32.2593
-22.877
-13.9879
-6.40789
-7.67294
-12.7536
-18.9827
-25.6904
-32.3667
-38.9271
-45.3889
-51.7215
-57.8566
-63.7142
-69.2041
-74.2168
-78.6184
-82.2487
-84.9252
-86.4484
-86.719
-85.7457
-83.5111
-79.9803
-75.1762
-69.2023
-62.2289
-54.4751
-46.1916
-37.6423
-29.0842
-20.7541
-12.815
-5.97239
-4.7366
-9.1925
-14.6825
-20.6377
-26.6035
-32.4943
-38.3184
-44.0416
-49.5935
-54.892
-59.8482
-64.3598
-68.3076
-71.5567
-73.9606
-75.3708
-75.7037
-74.9474
-73.0871
-70.1034
-66.0195
-60.9189
-54.9388
-48.2574
-41.0805
-33.6274
-26.116
-18.7511
-11.6835
-5.51251
-2.1318
-6.06042
-10.9067
-16.1843
-21.4904
-26.7432
-31.9469
-37.0685
-42.0409
-46.7868
-51.2233
-55.259
-58.7912
-61.7081
-63.894
-65.2383
-65.663
-65.1342
-63.6365
-61.1625
-57.7352
-53.4213
-48.3303
-42.606
-36.4169
-29.9452
-23.3748
-16.8824
-10.6055
-5.04641
0.190949
-3.29099
-7.58221
-12.2641
-16.9799
-21.6538
-26.2881
-30.8529
-35.2876
-39.5217
-43.4813
-47.0866
-50.2507
-52.8815
-54.887
-56.1822
-56.6946
-56.3761
-55.2081
-53.1895
-50.3419
-46.7185
-42.4062
-37.5211
-32.2009
-26.5965
-20.8631
-15.1526
-9.58867
-4.58871
2.26901
-0.833192
-4.64741
-8.81135
-13.0091
-17.1711
-21.2989
-25.3666
-29.3207
-33.0986
-36.6355
-39.8626
-42.7068
-45.0921
-46.9437
-48.1939
-48.7769
-48.6397
-47.7603
-46.1383
-43.793
-40.7669
-37.129
-32.9726
-28.4102
-23.5671
-18.5739
-13.5605
-8.63743
-4.14968
4.13114
1.35259
-2.05206
-5.76807
-9.51541
-13.2307
-16.9153
-20.5476
-24.0806
-27.4599
-30.6287
-33.5284
-36.0971
-38.2713
-39.9893
-41.195
-41.8306
-41.8444
-41.2113
-39.9297
-38.0153
-35.502
-32.4445
-28.9178
-25.0139
-20.8364
-16.4954
-12.1019
-7.75392
-3.73571
5.80003
3.29779
0.244725
-3.08492
-6.44262
-9.77084
-13.0713
-16.3257
-19.4937
-22.5277
-25.3787
-27.9964
-30.3283
-32.3208
-33.922
-35.0843
-35.7576
-35.8947
-35.4692
-34.4772
-32.9304
-30.8556
-28.296
-25.3121
-21.9789
-18.3823
-14.6148
-10.7714
-6.93854
-3.35021
7.2941
5.02803
2.27666
-0.720298
-3.74201
-6.73637
-9.70525
-12.6337
-15.4868
-18.2234
-20.801
-23.1765
-25.3049
-27.1406
-28.6393
-29.7602
-30.4602
-30.6974
-30.4456
-29.6983
-28.464
-26.7632
-24.6301
-22.1131
-19.2737
-16.183
-12.9191
-9.56274
-6.19054
-2.99468
8.62871
6.56456
4.0719
1.36091
-1.3718
-4.07907
-6.76294
-9.4111
-11.9937
-14.4748
-16.8177
-18.9853
-20.9388
-22.6391
-24.0481
-25.1303
-25.8489
-26.1672
-26.0599
-25.5189
-24.5493
-23.1667
-21.398
-19.2822
-16.8693
-14.2186
-11.3957
-8.46982
-5.50839
-2.66948
9.81695
7.92538
5.65428
3.18862
0.703865
-1.75725
-4.19686
-6.60492
-8.9557
-11.218
-13.3599
-15.3492
-17.1525
-18.736
-20.0665
-21.1131
-21.8445
-22.2285
-22.241
-21.8731
-21.127
-20.0146
-18.5568
-16.7848
-14.7397
-12.4706
-10.033
-7.48639
-4.89007
-2.37426
10.87
9.12571
7.04396
4.78819
2.51552
0.264777
-1.96621
-4.16925
-6.32209
-8.39748
-10.3677
-12.2046
-13.8792
-15.3621
-16.6241
-17.6378
-18.378
-18.8158
-18.9272
-18.7037
-18.146
-17.2622
-16.0688
-14.5907
-12.8615
-10.9224
-8.82041
-6.60664
-4.33344
-2.10837
11.7978
10.1789
8.25841
6.18152
4.08955
2.01786
-0.0356995
-2.06441
-4.04896
-5.96541
-7.78944
-9.49652
-11.0613
-12.4579
-13.6607
-14.6455
-15.3903
-15.8703
-16.0635
-15.9608
-15.5612
-14.8703
-13.9008
-12.6729
-11.2143
-9.55934
-7.74817
-5.82503
-3.83617
-1.87088
12.6083
11.0956
9.31175
7.38647
5.44755
3.52737
1.62384
-0.25751
-2.09978
-3.88184
-5.58222
-7.17932
-8.65083
-9.97388
-11.1259
-12.0851
-12.832
-13.3453
-13.6055
-13.6029
-13.3352
-12.8061
-12.0253
-11.0093
-9.78083
-8.36906
-6.80828
-5.13705
-3.39646
-1.66105
13.3096
11.8863
10.2172
8.41939
6.60903
4.81599
3.03829
1.28048
-0.442507
-2.11185
-3.70845
-5.21312
-6.60606
-7.86691
-8.97546
-9.91235
-10.6597
-11.1992
-11.5138
-11.5935
-11.4351
-11.0406
-10.4176
-9.57949
-8.54536
-7.33992
-5.99282
-4.53792
-3.01192
-1.47763
13.9058
12.5566
10.9828
9.2907
7.58695
5.89927
4.22574
2.57021
0.94597
-0.630038
-2.14063
-3.56862
-4.89624
-6.10517
-7.17719
-8.09477
-8.84165
-9.4017
-9.7599
-9.90642
-9.83733
-9.55354
-9.06081
-8.37014
-7.49777
-6.46494
-5.29754
-4.02558
-2.68211
-1.32052
14.4052
13.1163
11.6201
10.0141
8.39704
6.79496
5.20604
3.63355
2.08949
0.589305
-0.851379
-2.21696
-3.49129
-4.65771
-5.6996
-6.60089
-7.34664
-7.92247
-8.31504
-8.51487
-8.51759
-8.32324
-7.93627
-7.36582
-6.62585
-5.73493
-4.71599
-3.59593
-2.40481
-1.18853
14.8043
13.563
12.1279
10.5896
9.04082
7.50614
5.98382
4.47667
2.99571
1.5552
0.169588
-1.14677
-2.37899
-3.5117
-4.52952
-5.41754
-6.16183
-6.74935
-7.16805
-7.40891
-7.46731
-7.34269
-7.03846
-6.56242
-5.92686
-5.14839
-4.24764
-3.24912
-2.18055
-1.08188
15.1172
13.9109
12.5214
11.0336
9.53573
8.05117
6.57833
5.11974
3.68567
2.28952
0.944828
-0.334932
-1.53582
-2.6434
-3.6432
-4.52118
-5.26415
-5.86008
-6.2981
-6.56967
-6.67001
-6.59802
-6.3563
-5.95164
-5.39527
-4.70232
-3.89176
-2.98641
-2.01228
-1.00437
15.3247
14.1407
12.7813
11.328
9.86453
8.41366
6.97403
5.54806
4.14552
2.77921
1.46212
0.207088
-0.972549
-2.06299
-3.05034
-3.92101
-4.66194
-5.26164
-5.71043
-6.00052
-6.12717
-6.08901
-5.88799
-5.53032
-5.02669
-4.39124
-3.64176
-2.80026
-1.89235
-0.951891
15.4606
14.2794
12.9344
11.4994
10.0536
8.61947
7.1961
5.78607
4.39888
3.04704
1.74325
0.500084
-0.669435
-1.75185
-2.73371
-3.60205
-4.34493
-4.95071
-5.40868
-5.71109
-5.85365
-5.83503
-5.65678
-5.32493
-4.85004
-4.24558
-3.52866
-2.72074
-1.84684
-0.937485
)
;

boundaryField
{
    inlet
    {
        type            zeroGradient;
    }
    outlet
    {
        type            fixedValue;
        value           uniform 0;
    }
    flap
    {
        type            zeroGradient;
    }
    upperWall
    {
        type            zeroGradient;
    }
    lowerWall
    {
        type            zeroGradient;
    }
    frontAndBack
    {
        type            empty;
    }
}


// ************************************************************************* //
