/*--------------------------------*- C++ -*----------------------------------*\
| =========                 |                                                 |
| \\      /  F ield         | OpenFOAM: The Open Source CFD Toolbox           |
|  \\    /   O peration     | Version:  dev                                   |
|   \\  /    A nd           | Web:      www.OpenFOAM.org                      |
|    \\/     M anipulation  |                                                 |
\*---------------------------------------------------------------------------*/
FoamFile
{
    version     2.0;
    format      ascii;
    class       volVectorField;
    location    "0.41";
    object      U;
}
// * * * * * * * * * * * * * * * * * * * * * * * * * * * * * * * * * * * * * //

dimensions      [0 1 -1 0 0 0 0];

internalField   nonuniform List<vector> 
2790
(
(9.93466 -3.378e-22 0.0194357)
(9.86789 -1.73109e-22 0.0281371)
(9.77193 0 0.0342441)
(9.64897 6.49316e-22 0.0404266)
(9.50665 -8.09228e-22 0.0468347)
(9.3474 0 0.053454)
(9.17048 1.6687e-21 0.0604179)
(8.97471 -1.92934e-21 0.0678839)
(8.75918 0 0.0759871)
(8.52296 3.34515e-21 0.0848505)
(8.26492 -3.92126e-21 0.0945965)
(7.98381 5.24588e-21 0.10535)
(7.67821 -4.32379e-21 0.117235)
(7.3467 0 0.130371)
(6.98784 0 0.144864)
(6.60032 -2.55532e-21 0.160791)
(6.18309 0 0.178183)
(5.73547 -2.30769e-20 0.196989)
(5.25747 2.37805e-20 0.217032)
(4.74999 0 0.237947)
(4.21524 5.4131e-20 0.259095)
(3.65715 -1.51862e-20 0.279428)
(3.08184 5.88063e-20 0.297291)
(2.49829 1.25317e-19 0.310122)
(1.91919 -1.29339e-19 0.314109)
(1.36213 -1.3612e-19 0.304079)
(0.850924 1.40017e-19 0.27418)
(0.417048 0 0.220031)
(0.0963705 -7.38336e-20 0.144425)
(0.0206652 6.15296e-19 0.0284723)
(9.99197 6.7489e-22 0.0393963)
(9.97892 -1.2106e-21 0.0597904)
(9.9392 7.10698e-22 0.0752815)
(9.87148 9.19892e-23 0.0914318)
(9.78219 -2.92493e-21 0.108584)
(9.67383 -6.53386e-23 0.126633)
(9.54585 3.06676e-21 0.145833)
(9.39719 2.14744e-22 0.166523)
(9.22698 -8.13663e-21 0.189002)
(9.03432 -6.14441e-22 0.213541)
(8.81814 7.78031e-21 0.240405)
(8.57719 -3.08895e-21 0.269854)
(8.31007 -2.16126e-21 0.302132)
(8.0153 4.54507e-21 0.337449)
(7.6914 -4.78386e-21 0.375944)
(7.33696 4.84817e-20 0.417654)
(6.95074 -8.5205e-20 0.462449)
(6.53188 4.43735e-20 0.509959)
(6.08008 9.5871e-20 0.559459)
(5.59585 -1.99751e-19 0.609752)
(5.08087 2.10423e-19 0.659027)
(4.5384 4.1463e-20 0.704686)
(3.97354 2.34595e-19 0.743139)
(3.39368 -4.87602e-19 0.769562)
(2.80855 2.53316e-19 0.777622)
(2.23015 0 0.75951)
(1.67216 -4.83929e-19 0.706671)
(1.14882 5.67276e-19 0.611529)
(0.662005 -8.51234e-23 0.473257)
(0.331395 0 0.278193)
(9.98905 -6.73036e-22 0.0423742)
(9.97307 2.41772e-21 0.07202)
(9.93533 -4.27076e-21 0.0975538)
(9.87222 5.87744e-21 0.124163)
(9.7889 -3.1229e-21 0.152519)
(9.68797 1.23727e-23 0.182596)
(9.56917 2.05456e-22 0.214722)
(9.43163 0 0.249376)
(9.27462 8.93736e-22 0.287018)
(9.09741 2.79727e-21 0.328086)
(8.89911 0 0.37302)
(8.67865 2.05105e-21 0.422258)
(8.43478 6.44136e-21 0.476221)
(8.16619 -4.52458e-21 0.535279)
(7.87147 -4.31817e-20 0.599709)
(7.54921 3.4501e-20 0.669621)
(7.19804 -1.04894e-20 0.744873)
(6.81683 1.10445e-20 0.824946)
(6.40473 0 0.908781)
(5.9614 -2.23352e-19 0.994563)
(5.48725 2.04657e-19 1.07951)
(4.98377 2.46417e-19 1.15962)
(4.45364 -7.43202e-19 1.22949)
(3.90102 4.14672e-19 1.28209)
(3.33129 0 1.3087)
(2.75036 1.29797e-19 1.29932)
(2.16401 -2.02543e-19 1.24419)
(1.57725 9.82057e-19 1.13675)
(0.977965 -1.22069e-18 0.98239)
(0.488111 -3.01134e-19 0.779782)
(9.98733 0 0.0479366)
(9.96907 0 0.0883646)
(9.93118 0 0.125264)
(9.86929 0 0.162654)
(9.78764 6.10072e-21 0.201773)
(9.68881 9.09386e-23 0.242978)
(9.57277 -6.49974e-21 0.286773)
(9.43883 0 0.333794)
(9.28642 1.52326e-20 0.384679)
(9.11501 -1.6574e-20 0.440045)
(8.92395 3.13959e-20 0.500508)
(8.71242 6.96423e-22 0.566683)
(8.47951 -6.82934e-20 0.639172)
(8.22419 3.54141e-20 0.718526)
(7.94539 -6.67252e-20 0.805191)
(7.64197 7.81644e-20 0.899428)
(7.31279 -8.4101e-20 1.0012)
(6.95674 2.52508e-19 1.11002)
(6.57279 -2.04729e-19 1.22477)
(6.16008 2.42711e-20 1.34341)
(5.71803 -5.05275e-20 1.46268)
(5.24646 -2.6466e-19 1.57784)
(4.74569 5.61134e-20 1.68245)
(4.21657 5.87149e-20 1.76818)
(3.66057 0 1.82513)
(3.07881 -1.15234e-18 1.84221)
(2.47186 2.25087e-18 1.80916)
(1.84152 -9.56525e-19 1.72013)
(1.17314 2.12823e-19 1.583)
(0.59134 2.96872e-19 1.39644)
(9.98651 -2.67303e-21 0.0550134)
(9.96702 2.74105e-21 0.104816)
(9.92901 -1.41023e-21 0.151707)
(9.86817 -5.86312e-21 0.198881)
(9.78818 6.01382e-21 0.247977)
(9.69143 -1.26172e-20 0.299717)
(9.57797 1.33452e-20 0.354748)
(9.44719 -8.45091e-22 0.413801)
(9.29859 8.76541e-22 0.47762)
(9.13173 0 0.546937)
(8.94608 -3.11553e-20 0.62248)
(8.74097 3.1947e-20 0.704979)
(8.51568 6.4136e-20 0.795151)
(8.2694 -7.23029e-21 0.893668)
(8.00127 -7.35517e-20 1.0011)
(7.71039 -7.9018e-20 1.11783)
(7.39583 -7.4598e-20 1.24395)
(7.05655 1.70272e-19 1.37909)
(6.6915 2.27193e-20 1.52223)
(6.29957 -3.83891e-19 1.67138)
(5.87944 7.97216e-19 1.82324)
(5.42974 8.349e-19 1.97294)
(4.94895 6.22322e-20 2.11372)
(4.43536 -4.53165e-19 2.23679)
(3.88733 0 2.33171)
(3.30289 -1.23617e-19 2.3869)
(2.67983 -1.287e-19 2.39133)
(2.01954 1.07976e-18 2.33791)
(1.31008 -1.18157e-18 2.23232)
(0.671631 7.24944e-20 2.06679)
(9.98613 2.66761e-21 0.0627635)
(9.96613 -2.73517e-21 0.121267)
(9.92838 7.05652e-21 0.177628)
(9.86883 -5.79189e-21 0.234472)
(9.79085 0 0.293508)
(9.69663 -1.25506e-20 0.355682)
(9.58621 1.22607e-20 0.421759)
(9.45907 2.80019e-20 0.492551)
(9.31476 -1.28901e-21 0.568901)
(9.15286 -5.85685e-20 0.651646)
(8.97292 3.02885e-20 0.741625)
(8.77435 3.97855e-21 0.839676)
(8.5565 0 0.946626)
(8.31865 -6.20455e-20 1.06326)
(8.06007 7.26136e-20 1.19026)
(7.77993 9.56431e-21 1.32815)
(7.47731 0 1.47715)
(7.15119 0 1.63707)
(6.80044 0 1.80709)
(6.42364 -3.7587e-19 1.98545)
(6.01894 4.3449e-19 2.16915)
(5.58404 0 2.35358)
(5.11606 -5.36405e-20 2.53218)
(4.61152 5.51749e-20 2.69629)
(4.06639 5.75728e-20 2.83517)
(3.47671 1.03635e-18 2.9366)
(2.83898 -8.12765e-19 2.98807)
(2.15492 0 2.9793)
(1.4168 -3.38709e-20 2.91015)
(0.739053 -7.15277e-20 2.76092)
(9.98599 0 0.0707765)
(9.966 -1.35749e-21 0.137637)
(9.9289 -1.39719e-21 0.202998)
(9.87091 0 0.269166)
(9.79526 1.20275e-20 0.337799)
(9.70399 -2.48049e-20 0.410003)
(9.59715 2.59458e-20 0.48668)
(9.47424 -1.32805e-20 0.56874)
(9.33485 -2.63427e-20 0.65712)
(9.17864 2.87716e-20 0.752762)
(9.00517 0 0.856603)
(8.81391 -6.78304e-20 0.969582)
(8.60423 6.54327e-20 1.09263)
(8.37547 0 1.22663)
(8.12688 8.98525e-21 1.37239)
(7.85764 -1.16642e-22 1.53058)
(7.56674 -1.40583e-19 1.70159)
(7.25304 1.64169e-19 1.88543)
(6.9152 2.15276e-20 2.08158)
(6.55141 2.25076e-20 2.28867)
(6.15932 0 2.5042)
(5.73582 4.49678e-19 2.72414)
(5.27692 7.44483e-21 2.94251)
(4.7777 -5.3632e-19 3.15108)
(4.23239 -5.67832e-20 3.33907)
(3.63545 5.91572e-20 3.49338)
(2.98231 -6.16158e-20 3.59922)
(2.27462 0 3.64173)
(1.50814 3.34738e-20 3.61266)
(0.79719 0 3.47471)
(9.986 0 0.0788162)
(9.96639 -1.35538e-21 0.153763)
(9.9303 4.17789e-21 0.22768)
(9.87415 0 0.302762)
(9.80116 -1.19523e-20 0.380612)
(9.71326 -1.37767e-22 0.462444)
(9.61048 1.26965e-20 0.549286)
(9.49237 -8.26002e-22 0.642145)
(9.35858 -1.30446e-23 0.742045)
(9.20879 -1.78742e-21 0.850019)
(9.04261 0 0.967102)
(8.85955 5.91769e-20 1.09433)
(8.65901 -2.78682e-21 1.23274)
(8.44033 -6.74268e-20 1.38335)
(8.20275 -1.77769e-20 1.54708)
(7.94537 1.40879e-19 1.72479)
(7.6671 -1.73358e-19 1.91708)
(7.36663 0 2.12425)
(7.04225 -2.13701e-20 2.34613)
(6.69175 -2.23217e-20 2.58188)
(6.31225 -3.95668e-19 2.82968)
(5.89985 -7.24047e-20 3.08629)
(5.44954 2.47744e-20 3.34662)
(4.95497 2.69982e-20 3.60315)
(4.40883 8.76482e-19 3.84535)
(3.80382 -8.71292e-19 4.05929)
(3.13354 -9.49387e-19 4.2274)
(2.39857 9.78879e-19 4.32932)
(1.59557 -1.03347e-18 4.34722)
(0.848888 1.07871e-18 4.22029)
(9.98612 0 0.0867324)
(9.96714 2.70921e-21 0.16949)
(9.93237 -2.76887e-21 0.251544)
(9.87836 1.42399e-21 0.335111)
(9.80834 0 0.42176)
(9.7242 -1.22947e-20 0.512782)
(9.62596 1.25973e-20 0.609309)
(9.51319 2.73095e-20 0.712439)
(9.38562 -5.72255e-20 0.823279)
(9.24296 2.8214e-20 0.94295)
(9.08487 0 1.07258)
(8.9109 3.87157e-21 1.21331)
(8.7205 6.88776e-20 1.36629)
(8.51301 -6.63646e-20 1.53266)
(8.28765 8.79219e-21 1.71352)
(8.04347 -9.03324e-21 1.90991)
(7.77929 -1.44065e-19 2.1227)
(7.4936 -3.01367e-21 2.35257)
(7.18441 1.43204e-19 2.5998)
(6.8491 0 2.86419)
(6.48422 3.8384e-19 3.14473)
(6.08509 4.1583e-19 3.43925)
(5.64567 -2.44949e-20 3.74383)
(5.15816 -7.85079e-19 4.05206)
(4.61336 1.6845e-18 4.35415)
(4.00138 -8.7731e-19 4.63575)
(3.31284 9.11922e-19 4.8767)
(2.54534 1.01081e-20 5.05049)
(1.69202 -1.97758e-18 5.12859)
(0.898851 1.05239e-18 5.01997)
(9.98629 0 0.0944221)
(9.96817 2.68344e-21 0.184684)
(9.935 5.50313e-21 0.274463)
(9.8834 5.72691e-21 0.366066)
(9.81666 -1.02168e-20 0.46106)
(9.73664 1.29476e-20 0.560788)
(9.64336 -1.20992e-20 0.666472)
(9.53645 -1.01266e-22 0.779293)
(9.41566 8.48369e-22 0.900436)
(9.28079 -5.48372e-20 1.0311)
(9.13155 5.79368e-20 1.17252)
(8.96754 6.12586e-20 1.32592)
(8.78825 -1.26449e-19 1.49257)
(8.59307 6.52356e-20 1.67376)
(8.38122 1.38252e-19 1.87076)
(8.15175 -2.763e-19 2.08485)
(7.90341 2.7834e-19 2.31721)
(7.63455 -3.08814e-19 2.56892)
(7.34301 1.79431e-19 2.84084)
(7.02582 3.36179e-19 3.13353)
(6.67906 -6.92184e-19 3.44697)
(6.29737 -3.78994e-19 3.78027)
(5.87365 3.85962e-19 4.1311)
(5.3986 -3.94575e-19 4.49479)
(4.86059 -1.26838e-20 4.86306)
(4.24611 -1.63286e-20 5.22224)
(3.54081 -1.7112e-21 5.55061)
(2.73637 0 5.8157)
(1.81561 0 5.97701)
(0.955736 -1.32704e-21 5.90554)
(9.98653 0 0.10181)
(9.96942 0 0.199236)
(9.93808 -5.46482e-21 0.296317)
(9.88915 -1.27203e-20 0.39549)
(9.82597 1.01271e-20 0.49834)
(9.7504 -1.28375e-20 0.606253)
(9.66248 1.2759e-20 0.720524)
(9.56188 3.01463e-22 0.842409)
(9.44842 0 0.973166)
(9.32195 5.58565e-20 1.11407)
(9.18225 -5.71556e-20 1.26643)
(9.029 0 1.43158)
(8.86175 0 1.61091)
(8.67997 -1.30192e-19 1.80583)
(8.48294 -6.34136e-21 2.01783)
(8.26973 2.7875e-19 2.24842)
(8.03911 -2.80266e-19 2.49912)
(7.78941 1.48967e-19 2.77146)
(7.5184 3.13565e-19 3.06697)
(7.22297 -3.20077e-19 3.38702)
(6.89891 3.4589e-19 3.73278)
(6.54038 3.42489e-19 4.10494)
(6.13946 -3.68927e-19 4.50318)
(5.68534 8.09975e-21 4.92538)
(5.16372 3.76754e-19 5.36613)
(4.55643 -3.77171e-19 5.81435)
(3.8415 8.08224e-19 6.24937)
(3.00018 -4.43567e-19 6.63483)
(1.99442 0 6.91772)
(1.03529 -5.1815e-19 6.92111)
(9.9868 2.57567e-21 0.108839)
(9.97084 2.64753e-21 0.21305)
(9.94153 -2.6952e-21 0.316997)
(9.8955 2.78276e-21 0.423255)
(9.83613 0 0.533443)
(9.76532 0 0.648986)
(9.68312 -1.53886e-21 0.771238)
(9.58924 -2.00053e-22 0.901518)
(9.48358 0 1.04115)
(9.36606 0 1.19147)
(9.23654 -5.71179e-20 1.35387)
(9.09478 -8.37568e-22 1.52977)
(8.94045 6.05736e-20 1.72066)
(8.7731 0 1.9281)
(8.59211 4.13775e-21 2.15376)
(8.39668 0 2.3994)
(8.18567 -4.34948e-21 2.66688)
(7.95755 1.4666e-19 2.95821)
(7.71016 -3.05773e-19 3.27556)
(7.44051 -1.58005e-19 3.62124)
(7.14442 3.08502e-19 3.9977)
(6.81599 1.57795e-22 4.40742)
(6.4469 2.58669e-21 4.85261)
(6.02539 0 5.3346)
(5.53477 0 5.8526)
(4.95186 1.02887e-20 6.40124)
(4.24459 0 6.96582)
(3.37747 2.49353e-20 7.51265)
(2.27463 -2.36101e-20 7.98042)
(1.16693 2.72867e-20 8.13277)
(9.9871 5.09104e-21 0.115464)
(9.9724 5.24394e-21 0.226049)
(9.94529 -5.37421e-21 0.336404)
(9.90237 8.33637e-21 0.449245)
(9.84704 -1.13873e-20 0.56623)
(9.78125 1.18456e-20 0.688817)
(9.70507 -3.58476e-20 0.818409)
(9.61829 2.42775e-20 0.956378)
(9.52085 -2.62071e-20 1.1041)
(9.41276 2.67548e-20 1.26297)
(9.29397 5.61885e-20 1.43443)
(9.16436 -1.15627e-19 1.61998)
(9.02371 5.94636e-20 1.82122)
(8.87171 0 2.03982)
(8.7079 -1.28996e-19 2.27762)
(8.53165 -1.63242e-21 2.5366)
(8.34205 1.40378e-19 2.81895)
(8.13781 0 3.12712)
(7.91711 4.61044e-21 3.4639)
(7.67732 0 3.8325)
(7.41473 3.0519e-19 4.23668)
(7.12395 3.13113e-19 4.68081)
(6.79715 -1.23313e-20 5.16994)
(6.42273 -3.25537e-19 5.70966)
(5.98317 6.41508e-19 6.30563)
(5.45178 -3.58148e-19 6.96211)
(4.7862 0 7.67842)
(3.92811 0 8.43852)
(2.73716 3.30414e-20 9.1948)
(1.41025 -2.03702e-20 9.65648)
(9.98742 -5.0895e-21 0.121649)
(9.97407 5.17353e-21 0.238168)
(9.9493 -5.34763e-21 0.354456)
(9.90966 2.74516e-21 0.47336)
(9.85857 1.41725e-20 0.59658)
(9.79803 9.10319e-23 0.725603)
(9.72814 -3.6194e-20 0.861869)
(9.64876 5.42969e-22 1.00679)
(9.55989 5.14129e-20 1.16178)
(9.46164 -7.97948e-20 1.32828)
(9.35406 -6.16878e-22 1.50778)
(9.23715 1.13538e-19 1.70184)
(9.11083 -5.83272e-20 1.91211)
(8.97496 0 2.14039)
(8.8293 0 2.38864)
(8.67346 -1.28618e-19 2.65901)
(8.50684 1.32201e-19 2.95397)
(8.32855 1.37071e-19 3.27633)
(8.13729 -2.29858e-22 3.62941)
(7.93112 -1.43142e-19 4.01721)
(7.70726 2.3345e-21 4.44461)
(7.46156 9.09653e-21 4.91776)
(7.18783 1.88644e-20 5.44445)
(6.87654 1.50986e-19 6.03474)
(6.5125 -1.33904e-19 6.70177)
(6.07057 0 7.46276)
(5.50503 -1.73972e-20 8.34035)
(4.73896 8.20423e-21 9.36177)
(3.53745 -5.95856e-21 10.5617)
(1.90357 1.57702e-19 11.7473)
(9.98777 5.00679e-21 0.127366)
(9.97583 -5.1716e-21 0.249354)
(9.95351 0 0.371076)
(9.91729 -5.47039e-21 0.495504)
(9.87062 -2.88243e-21 0.62437)
(9.81551 1.15052e-20 0.759188)
(9.75214 0 0.901423)
(9.6804 0 1.05252)
(9.60039 0 1.21391)
(9.5123 -8.11396e-22 1.38707)
(9.4163 -5.42547e-20 1.57351)
(9.31252 -5.51437e-22 1.77483)
(9.20105 5.6728e-20 1.99274)
(9.08195 5.94881e-20 2.22909)
(8.9552 -6.07046e-20 2.48591)
(8.82073 -9.91856e-22 2.76551)
(8.67833 0 3.07051)
(8.52763 -1.30182e-19 3.40397)
(8.36801 2.74857e-19 3.76959)
(8.19851 -1.33199e-19 4.1719)
(8.01766 -1.47663e-19 4.61659)
(7.82328 -2.99322e-19 5.11106)
(7.61203 1.42013e-19 5.66518)
(7.37876 0 6.29253)
(7.11506 -1.52409e-19 7.01265)
(6.80666 1.37937e-19 7.85511)
(6.42482 7.71034e-20 8.86851)
(5.91859 -6.89702e-20 10.142)
(5.01556 -3.5955e-21 11.9035)
(3.02884 3.26488e-21 15.017)
(-0.127311 0 0.237786)
(-0.573661 0 0.372587)
(-1.2844 -1.38068e-19 0.433547)
(-2.10188 2.01506e-19 0.46336)
(-2.99255 -1.3604e-19 0.473128)
(-3.93007 6.74045e-20 0.470518)
(-4.895 0 0.459401)
(-5.87114 -3.88534e-20 0.441699)
(-6.84371 3.77198e-20 0.418391)
(-7.79817 0 0.389946)
(-8.71928 0 0.356543)
(-9.59052 -3.48855e-20 0.318223)
(-10.3939 2.28802e-20 0.275008)
(-11.1098 -1.24894e-20 0.226985)
(-11.7179 1.21938e-20 0.174362)
(-12.197 0 0.117504)
(-12.5265 -6.26543e-21 0.0569011)
(-12.6869 6.10762e-21 -0.00710973)
(-12.6594 -5.82432e-21 -0.0745904)
(-12.4295 -2.45609e-22 -0.145242)
(-11.99 -2.48812e-21 -0.216182)
(-11.3405 -2.02717e-21 -0.285323)
(-10.4858 3.43623e-21 -0.351498)
(-9.43361 -3.06021e-21 -0.414301)
(-8.19241 0 -0.474416)
(-6.76809 0 -0.534949)
(-5.15879 4.24932e-22 -0.603958)
(-3.34669 0 -0.696641)
(-1.32898 0 -0.838835)
(2.69143 0 -1.41436)
(-0.305784 7.09054e-19 0.62478)
(-0.865017 -5.50314e-19 0.854314)
(-1.62116 -3.37497e-20 0.987584)
(-2.4479 0 1.07415)
(-3.33432 3.37462e-20 1.12598)
(-4.26063 -3.45224e-20 1.15211)
(-5.21026 1.82947e-19 1.15758)
(-6.16827 -1.42855e-19 1.145)
(-7.12059 0 1.1156)
(-8.05298 0 1.06968)
(-8.95026 2.1747e-20 1.00696)
(-9.79583 1.12848e-20 0.926873)
(-10.5715 7.24532e-20 0.828865)
(-11.2575 -4.74969e-20 0.712674)
(-11.8327 0 0.578581)
(-12.2757 -1.27348e-20 0.42767)
(-12.5656 1.86387e-20 0.261946)
(-12.6824 -3.07257e-20 0.0839213)
(-12.6072 5.82131e-21 -0.103891)
(-12.3344 5.9385e-21 -0.294476)
(-11.8588 5.37694e-21 -0.480092)
(-11.1806 8.62841e-21 -0.656094)
(-10.3045 -1.79926e-21 -0.81984)
(-9.23777 -1.52006e-21 -0.970329)
(-7.98904 -1.86103e-21 -1.10878)
(-6.56546 2.44059e-21 -1.24152)
(-4.96863 -1.01311e-21 -1.38594)
(-3.19107 0 -1.57886)
(-1.26648 0 -1.89097)
(2.01257 0 -2.70427)
(-0.331318 4.26173e-19 1.22377)
(-0.944581 -5.46112e-19 1.50911)
(-1.72955 3.34226e-20 1.68612)
(-2.54725 0 1.8068)
(-3.40598 2.43722e-19 1.8799)
(-4.29357 -2.34035e-19 1.91442)
(-5.19853 -7.1604e-20 1.91602)
(-6.10919 3.77827e-20 1.88795)
(-7.01374 2.03139e-19 1.8318)
(-7.89941 -1.59002e-19 1.74789)
(-8.75204 -1.89273e-19 1.63572)
(-9.55574 4.6308e-20 1.49442)
(-10.2927 -9.79957e-20 1.32316)
(-10.9434 1.21318e-19 1.12164)
(-11.4866 2.58829e-20 0.890548)
(-11.9004 -8.95848e-20 0.632055)
(-12.1638 1.14604e-19 0.350166)
(-12.2566 -6.29596e-20 0.0506199)
(-12.159 0 -0.259841)
(-11.8691 -1.09861e-20 -0.57229)
(-11.3819 0 -0.875612)
(-10.6994 -4.34312e-21 -1.16238)
(-9.82706 0 -1.42812)
(-8.77283 2.94643e-21 -1.67067)
(-7.5463 -4.67778e-21 -1.8909)
(-6.15763 0 -2.09633)
(-4.61468 0 -2.30871)
(-2.92343 -1.50418e-22 -2.57805)
(-1.17031 1.48671e-22 -3.00747)
(1.50186 -5.77241e-23 -3.86506)
(-0.289472 0 1.92636)
(-0.909743 0 2.22056)
(-1.70214 0 2.40349)
(-2.49434 5.54744e-19 2.53193)
(-3.31198 -4.66294e-19 2.60964)
(-4.1487 0 2.64338)
(-4.99841 3.59907e-20 2.63758)
(-5.85326 2.79158e-19 2.59483)
(-6.70405 -5.54789e-19 2.51612)
(-7.53971 1.62206e-19 2.40102)
(-8.34712 1.3957e-19 2.24819)
(-9.11081 -2.73824e-19 2.05585)
(-9.81292 -2.41601e-20 1.82231)
(-10.4332 -2.50584e-20 1.54656)
(-10.9496 -8.00223e-20 1.22898)
(-11.3392 1.03856e-19 0.871921)
(-11.5794 5.25613e-20 0.480323)
(-11.6495 -1.42828e-20 0.0621876)
(-11.5285 -4.9883e-20 -0.371972)
(-11.2219 0 -0.805727)
(-10.7257 -4.05447e-20 -1.22448)
(-10.0442 -6.90663e-21 -1.61899)
(-9.18371 2.44101e-20 -1.98379)
(-8.15256 -5.54433e-21 -2.31597)
(-6.96147 1.01177e-20 -2.61565)
(-5.62401 0 -2.89046)
(-4.15515 -8.40195e-22 -3.16265)
(-2.57178 8.29859e-22 -3.48481)
(-0.994985 0 -3.97203)
(1.1683 5.71053e-23 -4.73974)
(-0.215072 -1.15024e-18 2.67039)
(-0.810708 -5.6867e-19 2.94381)
(-1.58539 5.47658e-19 3.10935)
(-2.33269 0 3.22901)
(-3.09588 -6.94164e-20 3.30103)
(-3.87159 0 3.32866)
(-4.65811 -3.87105e-19 3.31382)
(-5.45082 7.07261e-19 3.25716)
(-6.24261 -3.17979e-19 3.15793)
(-7.02384 1.80426e-19 3.01413)
(-7.7821 3.11723e-20 2.82286)
(-8.50213 3.82938e-19 2.58093)
(-9.16573 -1.94602e-19 2.28545)
(-9.75196 0 1.93459)
(-10.2378 0 1.52867)
(-10.5993 -2.77334e-20 1.07099)
(-10.8129 -2.77586e-20 0.56858)
(-10.8574 2.64478e-20 0.0333052)
(-10.7126 2.59565e-20 -0.518191)
(-10.3908 0 -1.06483)
(-9.89004 4.13401e-20 -1.5895)
(-9.21697 -9.02833e-21 -2.08177)
(-8.37859 2.40438e-20 -2.53585)
(-7.38296 -1.43918e-20 -2.94809)
(-6.24171 -1.04797e-20 -3.31698)
(-4.97165 -3.09089e-21 -3.64928)
(-3.59463 2.07361e-21 -3.96503)
(-2.13443 9.61525e-22 -4.31062)
(-0.731373 1.54618e-21 -4.79637)
(1.01408 0 -5.41983)
(-0.126443 0 3.408)
(-0.674388 -3.67304e-20 3.64537)
(-1.40505 -5.8267e-19 3.78244)
(-2.08705 5.63381e-19 3.88508)
(-2.78143 -5.99892e-19 3.9461)
(-3.48493 5.81447e-19 3.96518)
(-4.19898 7.62467e-20 3.94126)
(-4.92123 1.74666e-19 3.87254)
(-5.64622 -2.85722e-19 3.75596)
(-6.36544 0 3.58746)
(-7.06723 0 3.3623)
(-7.73666 2.54816e-19 3.0756)
(-8.35546 -3.98236e-20 2.72304)
(-8.90217 -2.10415e-19 2.30179)
(-9.35299 -5.67397e-20 1.81175)
(-9.68295 2.792e-20 1.25684)
(-9.86711 -9.72056e-22 0.646076)
(-9.88221 8.3892e-20 -0.00465438)
(-9.71444 -8.00156e-20 -0.671378)
(-9.37969 0 -1.32578)
(-8.88001 0 -1.94898)
(-8.22433 -1.92294e-20 -2.53082)
(-7.4196 -1.71325e-20 -3.06624)
(-6.47267 0 -3.55104)
(-5.39565 1.51916e-20 -3.98086)
(-4.20755 -4.66136e-21 -4.36066)
(-2.93661 0 -4.70635)
(-1.60932 0 -5.05241)
(-0.376744 -1.6653e-21 -5.49328)
(1.03276 1.28909e-22 -5.95927)
(-0.0353907 0 4.09635)
(-0.517428 3.65388e-20 4.29242)
(-1.17727 -3.77463e-20 4.39834)
(-1.77351 3.79225e-20 4.48201)
(-2.38391 -7.70124e-20 4.53115)
(-3.00267 7.9027e-20 4.54224)
(-3.63344 8.18591e-20 4.51105)
(-4.27518 8.26466e-20 4.43313)
(-4.92373 0 4.30297)
(-5.57158 -4.72601e-20 4.11414)
(-6.20792 4.98357e-20 3.85976)
(-6.81844 2.13715e-19 3.53299)
(-7.38519 -2.11067e-19 3.12777)
(-7.88646 0 2.63989)
(-8.29767 1.16294e-19 2.06861)
(-8.59264 0 1.4185)
(-8.74459 2.9256e-20 0.701274)
(-8.72741 8.70909e-20 -0.0617105)
(-8.53735 -1.12597e-19 -0.837478)
(-8.193 2.34383e-20 -1.59065)
(-7.70154 -4.83853e-20 -2.30138)
(-7.0736 -2.09463e-20 -2.96172)
(-6.31508 9.61904e-22 -3.56865)
(-5.43028 1.58794e-20 -4.11757)
(-4.43165 0 -4.59981)
(-3.33789 -3.71115e-21 -5.01736)
(-2.18404 3.65071e-21 -5.38028)
(-0.995708 4.10044e-21 -5.70913)
(0.0671136 0 -6.07754)
(1.21103 0 -6.39505)
(0.0505832 0 4.69591)
(-0.350322 6.251e-19 4.85394)
(-0.91301 -5.70119e-19 4.93252)
(-1.40397 -7.72986e-20 5.00026)
(-1.91518 7.72402e-20 5.04039)
(-2.43595 -1.20323e-19 5.04676)
(-2.97168 -8.22409e-20 5.01201)
(-3.52194 3.62784e-19 4.92906)
(-4.08341 -3.5322e-19 4.78994)
(-4.64956 4.75483e-20 4.58588)
(-5.21055 3.42168e-19 4.30779)
(-5.75306 0 3.94668)
(-6.25993 -1.76764e-19 3.49453)
(-6.70972 2.28078e-19 2.9454)
(-7.07717 -1.21504e-19 2.29739)
(-7.3346 1.21888e-19 1.55559)
(-7.45242 0 0.734994)
(-7.40049 0 -0.136304)
(-7.18915 2.95433e-20 -1.01415)
(-6.84 2.64227e-20 -1.85519)
(-6.36528 0 -2.64057)
(-5.77625 6.14565e-20 -3.367)
(-5.07663 -5.82774e-20 -4.03493)
(-4.26648 -1.77043e-21 -4.6395)
(-3.35961 -1.36321e-20 -5.16653)
(-2.37016 1.36368e-20 -5.61334)
(-1.34133 -6.71973e-21 -5.98199)
(-0.294805 -1.36669e-21 -6.28149)
(0.594148 0 -6.56241)
(1.53209 0 -6.75195)
(0.127961 -6.55651e-19 5.17194)
(-0.178606 -2.028e-20 5.30274)
(-0.620201 6.27714e-19 5.36291)
(-0.988371 1.05469e-19 5.4215)
(-1.38622 -6.37546e-19 5.45846)
(-1.79606 -1.16855e-21 5.46554)
(-2.22504 0 5.4325)
(-2.67265 0 5.34982)
(-3.13616 0 5.20724)
(-3.60984 4.17064e-19 4.99385)
(-4.08501 4.07437e-19 4.69846)
(-4.5497 0 4.30992)
(-4.98817 0 3.81799)
(-5.38008 6.20414e-20 3.21455)
(-5.69998 -1.2664e-19 2.49575)
(-5.91815 1.30804e-19 1.66653)
(-6.00071 -1.29641e-19 0.746177)
(-5.91063 0 -0.228564)
(-5.68177 6.02311e-20 -1.19927)
(-5.33517 -5.75362e-20 -2.11432)
(-4.88763 0 -2.9595)
(-4.349 0 -3.73885)
(-3.7201 -7.4104e-22 -4.45748)
(-2.99542 1.57436e-20 -5.10971)
(-2.19143 -1.70245e-21 -5.67451)
(-1.31497 -2.09463e-20 -6.14369)
(-0.416096 0 -6.50775)
(0.472395 -1.07055e-20 -6.76756)
(1.21263 8.98518e-22 -6.96507)
(1.97824 -1.49768e-21 -7.04545)
(0.196876 6.77741e-19 5.4968)
(-0.00363002 2.44168e-20 5.61736)
(-0.304961 -2.95885e-19 5.67122)
(-0.535975 -3.65986e-19 5.72991)
(-0.808318 0 5.7716)
(-1.09573 -3.36043e-19 5.7864)
(-1.40732 3.47441e-19 5.76145)
(-1.74194 -3.89089e-19 5.68513)
(-2.09712 3.79291e-19 5.54519)
(-2.46772 4.31845e-19 5.32891)
(-2.84626 4.22121e-19 5.02335)
(-3.22246 0 4.61529)
(-3.58271 -2.51124e-19 4.09219)
(-3.909 2.48553e-19 3.4433)
(-4.17677 1.99556e-19 2.66168)
(-4.35378 -2.01475e-19 1.75033)
(-4.40023 0 0.733983)
(-4.26691 -6.79498e-20 -0.337951)
(-4.02982 -3.11962e-20 -1.38906)
(-3.69801 -8.59793e-20 -2.36121)
(-3.29107 5.47771e-20 -3.2497)
(-2.8145 -2.04326e-20 -4.06922)
(-2.26624 6.27543e-20 -4.8297)
(-1.63578 -1.71712e-20 -5.5239)
(-0.940698 2.7209e-20 -6.12)
(-0.186192 -6.16819e-21 -6.60479)
(0.576179 -4.4667e-21 -6.95439)
(1.29389 9.67081e-21 -7.16972)
(1.92392 0 -7.29955)
(2.53163 1.48712e-21 -7.2842)
(0.259999 -3.44214e-19 5.65313)
(0.175875 5.20307e-21 5.7836)
(0.0272555 -3.39743e-19 5.84392)
(-0.0559021 3.33108e-19 5.91335)
(-0.193682 -1.08314e-20 5.96903)
(-0.34954 2.19963e-20 5.99953)
(-0.535306 0 5.98957)
(-0.74848 -2.42305e-20 5.92581)
(-0.986525 0 5.79455)
(-1.24441 -2.22687e-19 5.58189)
(-1.5157 -2.17816e-19 5.27336)
(-1.79199 0 4.85392)
(-2.06226 0 4.30877)
(-2.31234 -6.53078e-20 3.62413)
(-2.52055 0 2.78918)
(-2.65082 2.11732e-19 1.80251)
(-2.65628 -2.13028e-19 0.69437)
(-2.47396 1.54962e-21 -0.464393)
(-2.24988 1.99158e-19 -1.57844)
(-1.95232 -2.85947e-20 -2.59036)
(-1.60269 4.35307e-21 -3.50608)
(-1.20075 5.13717e-20 -4.35377)
(-0.740588 0 -5.14809)
(-0.211115 3.3376e-20 -5.87961)
(0.37656 -4.22299e-20 -6.50495)
(0.987307 4.51525e-20 -6.98579)
(1.60573 -3.33323e-21 -7.31777)
(2.19485 1.29495e-20 -7.50265)
(2.71425 1.01004e-21 -7.5717)
(3.17467 1.75671e-21 -7.47276)
(0.32127 -6.94981e-19 5.63731)
(0.361006 3.38193e-19 5.79425)
(0.372857 -1.31708e-21 5.87324)
(0.441168 3.49759e-19 5.96356)
(0.444145 -3.36145e-19 6.04289)
(0.425242 1.12637e-20 6.09759)
(0.370951 0 6.11072)
(0.285323 4.33328e-19 6.06746)
(0.170727 -3.73886e-19 5.95224)
(0.0321735 0 5.74902)
(-0.123112 0 5.44472)
(-0.28878 6.16418e-20 5.02263)
(-0.45628 0 4.46661)
(-0.616571 6.82282e-20 3.76063)
(-0.754641 0 2.88996)
(-0.826142 7.31019e-20 1.8455)
(-0.756042 2.94794e-19 0.648637)
(-0.543336 -2.88536e-19 -0.594449)
(-0.367679 -1.02501e-21 -1.7511)
(-0.130182 -1.24238e-19 -2.78967)
(0.146771 1.69911e-21 -3.73152)
(0.461925 -2.45479e-20 -4.59739)
(0.829029 0 -5.41714)
(1.24728 -1.63792e-20 -6.16683)
(1.70833 4.49664e-20 -6.80192)
(2.19857 -2.67745e-20 -7.29084)
(2.6954 1.31559e-21 -7.61394)
(3.15998 -8.35527e-21 -7.76967)
(3.56881 7.21506e-21 -7.78368)
(3.88921 -1.74492e-21 -7.61346)
(0.388764 -2.1505e-20 5.45465)
(0.557587 0 5.6476)
(0.732599 1.71232e-19 5.75743)
(0.948018 -1.67006e-19 5.87794)
(1.09354 5.41842e-21 5.98982)
(1.21001 -5.59993e-21 6.07582)
(1.28679 0 6.1177)
(1.32892 0 6.09914)
(1.34012 -2.569e-20 6.00413)
(1.3257 -2.26889e-19 5.81654)
(1.29196 -2.22459e-19 5.52216)
(1.24509 -3.05261e-20 5.10454)
(1.19232 2.35127e-19 4.54703)
(1.13963 -3.31922e-19 3.83269)
(1.0952 0 2.94402)
(1.10628 -1.46011e-19 1.8599)
(1.26648 -1.47981e-19 0.590022)
(1.45256 2.14129e-19 -0.702742)
(1.56865 -6.9249e-20 -1.88236)
(1.71923 -6.19182e-20 -2.92861)
(1.90196 1.0914e-19 -3.8739)
(2.12417 -5.16814e-20 -4.76341)
(2.39562 4.28181e-20 -5.60929)
(2.71426 0 -6.38404)
(3.07104 -2.87342e-20 -7.039)
(3.44975 -4.94662e-21 -7.53268)
(3.82875 2.14643e-20 -7.84419)
(4.17201 1.09191e-21 -7.97205)
(4.47105 -7.18893e-21 -7.93711)
(4.65684 1.93325e-21 -7.7075)
(0.47139 2.16193e-20 5.1092)
(0.772321 0 5.34481)
(1.10717 -1.68954e-19 5.49849)
(1.46319 1.59193e-19 5.65748)
(1.74796 0 5.81098)
(1.99419 -1.87841e-19 5.93648)
(2.19687 1.77514e-19 6.01345)
(2.36221 0 6.02447)
(2.49564 -1.98672e-19 5.95323)
(2.60277 -1.6978e-20 5.78375)
(2.68967 -4.55524e-19 5.5014)
(2.76264 1.71999e-19 5.09014)
(2.82848 -1.31192e-19 4.53335)
(2.89268 1.29555e-19 3.81383)
(2.96177 1.41962e-19 2.9126)
(3.0716 -6.89795e-20 1.81409)
(3.25595 3.6638e-20 0.557015)
(3.40356 1.39388e-19 -0.741025)
(3.47089 -2.00137e-19 -1.93881)
(3.53921 6.08737e-20 -3.00219)
(3.63322 0 -3.96876)
(3.76819 -2.56026e-20 -4.88208)
(3.95332 -6.46286e-20 -5.75322)
(4.18395 -3.56695e-20 -6.54947)
(4.44612 2.24944e-20 -7.21744)
(4.72052 -1.62768e-20 -7.7121)
(4.9866 1.67026e-22 -8.01049)
(5.21264 -1.10127e-21 -8.11154)
(5.40341 1.33986e-21 -8.03351)
(5.45924 -2.17714e-21 -7.75555)
(0.572775 0 4.57284)
(1.01403 7.25318e-20 4.90648)
(1.49752 2.47117e-21 5.12135)
(1.98507 -7.5087e-20 5.31831)
(2.40219 5.16799e-21 5.51798)
(2.76884 0 5.68899)
(3.08752 -1.87038e-19 5.80574)
(3.36677 1.76219e-19 5.85002)
(3.61398 1.94914e-19 5.80574)
(3.83513 1.66758e-20 5.65724)
(4.03607 2.14527e-19 5.3898)
(4.22278 1.51817e-19 4.98784)
(4.40127 -8.8864e-20 4.43519)
(4.57613 1.33868e-19 3.71472)
(4.75127 -9.86592e-20 2.80784)
(4.93826 -3.45883e-20 1.70924)
(5.13327 1.41844e-19 0.467584)
(5.25697 -1.03347e-19 -0.799069)
(5.28256 -9.49415e-20 -1.9734)
(5.28174 6.08044e-20 -3.03278)
(5.29933 5.3625e-20 -4.01334)
(5.3619 4.81306e-20 -4.9523)
(5.47737 1.95475e-20 -5.85015)
(5.63472 1.63054e-20 -6.66603)
(5.81348 -2.22195e-20 -7.34254)
(5.99156 1.60902e-20 -7.83336)
(6.15023 -7.89489e-24 -8.11581)
(6.2635 1.22193e-20 -8.19038)
(6.34801 -1.07921e-21 -8.07444)
(6.27845 0 -7.75806)
(9.98814 0 0.132684)
(9.97769 0 0.259754)
(9.95797 -3.36309e-23 0.386505)
(9.92537 5.15234e-21 0.516016)
(9.88334 -8.05425e-21 0.650053)
(9.83396 8.22874e-21 0.790143)
(9.77745 2.81422e-21 0.937767)
(9.71377 0 1.09438)
(9.6431 -2.26656e-20 1.26144)
(9.56575 2.54762e-20 1.44042)
(9.482 0 1.63285)
(9.39213 0 1.84032)
(9.29641 -5.39764e-20 2.06457)
(9.19512 5.55287e-20 2.30746)
(9.08853 1.76747e-21 2.57108)
(8.97691 5.88614e-20 2.85775)
(8.8605 -5.62954e-20 3.17017)
(8.73955 -5.72445e-21 3.51152)
(8.61427 -1.32637e-19 3.88562)
(8.48485 1.22993e-19 4.29721)
(8.35149 -1.26793e-19 4.75228)
(8.21447 -1.13238e-19 5.25869)
(8.07428 1.17497e-19 5.827)
(7.93199 -1.27704e-19 6.47201)
(7.79008 -4.25523e-20 7.21538)
(7.65524 1.12921e-19 8.09065)
(7.54538 -5.42995e-20 9.15384)
(7.55477 0 10.5025)
(8.15423 0 12.2896)
(8.5922 -1.50974e-21 15.2009)
(9.98854 -4.61959e-21 0.137608)
(9.97967 -7.10888e-21 0.269372)
(9.96269 7.33875e-21 0.400727)
(9.93389 7.52723e-21 0.534844)
(9.89673 -1.28764e-20 0.67352)
(9.85331 -7.9705e-21 0.818287)
(9.80393 8.13758e-21 0.970631)
(9.74861 -2.25471e-20 1.13201)
(9.68762 4.48079e-20 1.30388)
(9.62137 -2.78558e-21 1.4877)
(9.55028 -2.28904e-20 1.68497)
(9.47477 5.05266e-20 1.8973)
(9.39533 -5.15825e-20 2.12638)
(9.31245 0 2.37405)
(9.22671 1.6344e-21 2.64235)
(9.13873 -3.4286e-21 2.93359)
(9.04927 -3.60542e-21 3.2504)
(8.95918 3.67502e-21 3.59586)
(8.86955 3.73361e-21 3.97369)
(8.78175 5.87233e-20 4.38842)
(8.69768 -1.03592e-19 4.84572)
(8.62006 -1.25426e-19 5.35285)
(8.55313 2.19098e-21 5.91932)
(8.50388 5.77388e-20 6.55782)
(8.48468 0 7.28562)
(8.51949 0 8.12608)
(8.65198 0 9.1093)
(8.93885 3.98149e-23 10.2677)
(9.67498 6.49924e-21 11.5402)
(10.3 -2.02748e-21 12.6161)
(9.98897 4.50977e-21 0.142053)
(9.98174 4.79041e-23 0.278047)
(9.96763 0 0.413521)
(9.94278 0 0.551724)
(9.91067 -4.9429e-21 0.694472)
(9.87344 0 0.843294)
(9.83143 1.054e-20 0.999667)
(9.78473 -1.07789e-20 1.16503)
(9.7337 -2.22824e-20 1.34083)
(9.67885 2.56498e-20 1.52847)
(9.62073 -1.47951e-21 1.72944)
(9.55993 0 1.94527)
(9.4971 0 2.17761)
(9.43299 -3.11894e-21 2.42821)
(9.36846 -3.2717e-21 2.69902)
(9.30452 3.34132e-21 2.99219)
(9.24235 -5.34411e-20 3.31018)
(9.18344 -6.30919e-21 3.65581)
(9.12963 5.50386e-20 4.03242)
(9.08336 -6.7231e-21 4.44396)
(9.0479 -6.11527e-20 4.89521)
(9.02785 -5.49868e-20 5.39195)
(9.02989 -1.27971e-20 5.94115)
(9.06409 0 6.55109)
(9.14569 2.2465e-20 7.23085)
(9.29768 -1.1272e-20 7.98816)
(9.55276 0 8.82297)
(9.91628 0 9.71955)
(10.5184 -2.96072e-21 10.6218)
(11.2571 1.73343e-21 11.3145)
(9.98942 -5.39396e-21 0.145964)
(9.9839 1.15827e-21 0.285669)
(9.97274 0 0.424721)
(9.95198 0 0.566428)
(9.92506 -4.82453e-21 0.712614)
(9.89418 0 0.864796)
(9.85972 1.01376e-20 1.02443)
(9.82184 -1.03664e-20 1.19292)
(9.78098 0 1.37167)
(9.73774 0 1.56205)
(9.69278 2.52531e-20 1.76546)