/*--------------------------------*- C++ -*----------------------------------*\
| =========                 |                                                 |
| \\      /  F ield         | OpenFOAM: The Open Source CFD Toolbox           |
|  \\    /   O peration     | Version:  dev                                   |
|   \\  /    A nd           | Web:      www.OpenFOAM.org                      |
|    \\/     M anipulation  |                                                 |
\*---------------------------------------------------------------------------*/
FoamFile
{
    version     2.0;
    format      ascii;
    class       surfaceVectorField;
    location    "0.41";
    object      Uf;
}
// * * * * * * * * * * * * * * * * * * * * * * * * * * * * * * * * * * * * * //

dimensions      [0 1 -1 0 0 0 0];

internalField   nonuniform List<vector> 
5457
(
(9.91738 -2.54352e-22 0.0238442)
(9.96331 1.71478e-22 0.0388493)
(9.82036 -8.53489e-23 0.0312331)
(9.92341 -6.91392e-22 0.0468497)
(9.70719 3.29149e-22 0.0373784)
(9.85556 3.55347e-22 0.0561967)
(9.57583 -8.86496e-23 0.0436748)
(9.76023 3.70749e-22 0.0670558)
(9.42615 -3.99088e-22 0.0501895)
(9.64442 -1.86704e-21 0.0785366)
(9.2582 8.45687e-22 0.0569831)
(9.51062 -3.26691e-23 0.0905676)
(9.07163 -1.55601e-22 0.0642013)
(9.35816 2.36772e-21 0.103376)
(8.86578 -9.51674e-22 0.07199)
(9.18595 -8.57313e-22 0.117191)
(8.63976 1.69505e-21 0.0804782)
(8.99308 -4.06826e-21 0.132202)
(8.39247 -3.38159e-22 0.0897887)
(8.77863 1.36514e-21 0.148587)
(8.1227 7.23686e-22 0.100045)
(8.54153 1.92943e-21 0.166521)
(7.8291 3.96259e-22 0.111372)
(8.28049 1.07975e-21 0.186177)
(7.51025 -2.13295e-21 0.123891)
(7.99413 -3.24255e-21 0.207715)
(7.1647 0 0.137715)
(7.68099 2.27247e-21 0.231272)
(6.79108 -1.29482e-21 0.152935)
(7.33961 -2.39185e-21 0.256937)
(6.38817 -1.26046e-21 0.169605)
(6.96863 2.29538e-20 0.284727)
(5.95511 -1.16943e-20 0.187715)
(6.5669 -4.26006e-20 0.314548)
(5.49155 6.33826e-22 0.20715)
(6.13366 1.06466e-20 0.346138)
(4.99795 1.17286e-20 0.227639)
(5.66876 5.98237e-20 0.378994)
(4.47592 2.74343e-20 0.248676)
(5.1729 -9.98694e-20 0.412289)
(3.92859 1.91605e-20 0.269416)
(4.64804 1.32272e-19 0.444771)
(3.36111 2.2124e-20 0.288504)
(4.09776 1.29833e-20 0.474627)
(2.78127 9.25088e-20 0.303823)
(3.52769 1.46697e-19 0.499302)
(2.20024 -3.29286e-21 0.312177)
(2.94602 -1.81138e-19 0.515227)
(1.63353 -1.32772e-19 0.309064)
(2.36395 6.19973e-20 0.517469)
(1.10208 3.44671e-21 0.28897)
(1.79629 -6.80498e-20 0.499485)
(0.632955 6.93021e-20 0.246816)
(1.26181 -1.72063e-19 0.453217)
(0.259648 -3.71686e-20 0.181901)
(0.783369 2.83835e-19 0.369515)
(0.0206191 2.77724e-19 0.0860482)
(0.379846 -3.97833e-20 0.240038)
(0.17744 3.07085e-19 0.0211789)
(9.99755 -2.8854e-22 0.0497288)
(9.99051 9.33425e-25 0.0400024)
(9.96099 -2.33651e-22 0.0676434)
(9.976 6.03095e-22 0.0645039)
(9.90308 3.97065e-22 0.0834689)
(9.93727 -1.78001e-21 0.0849555)
(9.82529 -1.43719e-21 0.100126)
(9.87185 2.98468e-21 0.106767)
(9.72743 -1.47477e-21 0.117732)
(9.78555 -3.02385e-21 0.129883)
(9.60939 1.52421e-21 0.136363)
(9.6809 -2.64923e-23 0.15422)
(9.47085 1.62148e-21 0.156318)
(9.55751 1.63611e-21 0.180144)
(9.3112 -4.01717e-21 0.177914)
(9.41441 1.07374e-22 0.208084)
(9.12961 -4.32238e-21 0.201436)
(9.2508 -3.62124e-21 0.238424)
(8.92502 3.64169e-21 0.227153)
(9.06586 1.09193e-21 0.271524)
(8.69626 2.273e-21 0.255326)
(8.85863 3.89029e-21 0.307743)
(8.44197 -2.6189e-21 0.286209)
(8.62792 -5.16732e-22 0.347438)
(8.16074 1.23673e-21 0.320026)
(8.37242 2.1429e-21 0.390947)
(7.85106 -1.81783e-22 0.356954)
(8.09074 2.69506e-24 0.438564)
(7.51148 2.22056e-20 0.39708)
(7.78143 -2.39718e-20 0.490498)
(7.14067 -1.92337e-20 0.440355)
(7.44307 4.148e-20 0.54682)
(6.73757 -1.9583e-20 0.486529)
(7.07438 -4.78504e-20 0.607389)
(6.3016 7.04695e-20 0.535052)
(6.67434 2.77106e-20 0.671744)
(5.83288 -5.37847e-20 0.584961)
(6.24239 4.79407e-20 0.738966)
(5.33255 7.91275e-21 0.634747)
(5.7786 -2.1155e-19 0.80751)
(4.80313 1.25042e-19 0.682201)
(5.28403 2.0754e-19 0.875014)
(4.24894 1.39326e-19 0.72422)
(4.76105 1.43824e-19 0.938089)
(3.67639 -1.30723e-19 0.756588)
(4.21355 -2.54261e-19 0.99207)
(3.09428 -1.1287e-19 0.773712)
(3.64733 -3.64791e-20 1.03078)
(2.51374 1.25096e-19 0.76851)
(3.06993 1.26648e-19 1.04626)
(1.94774 -2.44713e-19 0.732799)
(2.49033 6.49153e-20 1.02891)
(1.40967 4.73603e-20 0.658569)
(1.91827 -3.42874e-19 0.968544)
(0.910284 2.81677e-19 0.541611)
(1.36339 7.74899e-19 0.856503)
(0.44968 -4.18496e-23 0.37662)
(0.820531 -6.13105e-19 0.692424)
(0.410691 -1.5096e-19 0.462806)
(9.99014 9.05186e-22 0.0573941)
(9.98819 -3.36523e-22 0.0446381)
(9.95665 -9.80261e-22 0.0849638)
(9.97107 1.20888e-21 0.0806802)
(9.90215 8.67174e-22 0.111043)
(9.93326 -2.13541e-21 0.112021)
(9.82913 1.32006e-21 0.138536)
(9.87076 2.93877e-21 0.144047)
(9.73785 -1.53387e-21 0.167763)
(9.78827 1.48882e-21 0.177783)
(9.62815 1.10224e-22 0.198877)
(9.68839 5.16614e-23 0.213376)
(9.4998 1.01341e-22 0.232283)
(9.57097 -3.14706e-21 0.251274)
(9.35232 4.52878e-22 0.268449)
(9.43523 0 0.292052)
(9.18506 1.85826e-21 0.307827)
(9.28052 8.0629e-21 0.336266)
(8.99715 1.37994e-21 0.350853)
(9.10621 -6.88852e-21 0.384444)
(8.78759 1.03921e-21 0.397967)
(8.91153 1.56972e-20 0.437119)
(8.55521 4.27546e-21 0.449599)
(8.69553 1.37377e-21 0.49482)
(8.29872 8.8535e-22 0.506144)
(8.45714 -3.09247e-20 0.558064)
(8.01676 -2.41106e-20 0.567924)
(8.19519 1.54431e-20 0.627314)
(7.70791 -3.83485e-21 0.635133)
(7.90843 -5.49487e-20 0.702935)
(7.37078 1.17059e-20 0.707753)
(7.59558 5.63303e-20 0.785116)
(7.00412 4.21265e-22 0.785451)
(7.25541 -4.72849e-20 0.873763)
(6.60694 5.44847e-21 0.867436)
(6.88677 1.31753e-19 0.968369)
(6.17864 -1.13167e-19 0.952265)
(6.48875 -1.02349e-19 1.06783)
(5.71932 -6.80693e-21 1.03763)
(6.06072 -9.95402e-20 1.1702)
(5.22997 2.25814e-19 1.12014)
(5.60262 7.70866e-20 1.2724)
(4.71277 -2.54476e-19 1.19508)
(5.11509 -9.12545e-21 1.37001)
(4.17128 -1.57629e-19 1.2562)
(4.59964 -3.43561e-19 1.45698)
(3.61039 2.04743e-19 1.29564)
(4.05879 2.36722e-19 1.52553)
(3.03584 6.56662e-20 1.30402)
(3.49594 0 1.56613)
(2.45347 -3.81706e-20 1.27148)
(2.91465 -5.11226e-19 1.56799)
(1.86774 3.95274e-19 1.18998)
(2.31807 1.02446e-18 1.52084)
(1.27948 -1.29703e-19 1.05874)
(1.70962 1.077e-20 1.4183)
(0.68104 -7.54053e-19 0.883563)
(1.07586 -5.03778e-19 1.26723)
(0.540065 -5.15185e-21 1.0668)
(9.98595 0 0.0684194)
(9.98692 -1.33649e-21 0.0512473)
(9.95253 0 0.10707)
(9.96804 1.3705e-21 0.0968209)
(9.89897 0 0.144218)
(9.9301 -7.051e-22 0.138619)
(9.82713 3.09221e-21 0.182482)
(9.86873 -2.93149e-21 0.18073)
(9.7376 3.05433e-21 0.222656)
(9.78791 6.05727e-21 0.224768)
(9.63035 -3.25274e-21 0.265172)
(9.69012 -6.26296e-21 0.271221)
(9.5052 -3.20605e-21 0.3106)
(9.57537 3.4224e-21 0.320634)
(9.36183 7.71854e-21 0.359578)
(9.44301 -4.22528e-22 0.373689)
(9.19978 -8.87792e-22 0.412732)
(9.2925 8.05496e-21 0.431074)
(9.0184 7.73081e-21 0.470679)
(9.12337 -8.28744e-21 0.493458)
(8.81693 1.58354e-20 0.534035)
(8.93501 1.22426e-22 0.561511)
(8.59451 -3.42604e-20 0.603408)
(8.7267 1.63205e-20 0.635905)
(8.35016 -1.57519e-20 0.679375)
(8.49759 -2.08523e-21 0.717298)
(8.08284 -1.63318e-20 0.762433)
(8.24679 1.40942e-20 0.806301)
(7.79142 6.65645e-21 0.852935)
(7.97333 -7.0138e-20 0.903421)
(7.47477 -4.04048e-21 0.95099)
(7.67617 -4.15877e-22 1.00898)
(7.13177 8.6371e-20 1.05633)
(7.3543 -7.93469e-20 1.12299)
(6.76135 2.10273e-20 1.16816)
(7.00664 2.11398e-19 1.24503)
(6.36257 -8.87251e-20 1.28489)
(6.63213 -9.1019e-20 1.37401)
(5.93473 -1.36166e-20 1.40385)
(6.22981 -1.79766e-19 1.5079)
(5.47752 -1.58979e-19 1.52105)
(5.79871 3.73264e-19 1.64337)
(4.99105 -1.0223e-19 1.63087)
(5.33808 2.84998e-19 1.77558)
(4.47601 5.74304e-20 1.72592)
(4.8473 5.91722e-20 1.89788)
(3.93355 2.90049e-20 1.79708)
(4.32595 -1.97189e-19 2.00166)
(3.36496 -5.82677e-19 1.83385)
(3.77396 0 2.0767)
(2.77102 5.66042e-19 1.82559)
(3.19089 -6.37883e-19 2.11169)
(2.15169 6.33943e-19 1.7644)
(2.57593 1.06048e-18 2.09613)
(1.50627 -3.6734e-19 1.6509)
(1.93066 6.26197e-20 2.02383)
(0.833383 2.55412e-19 1.49286)
(1.24176 -4.85314e-19 1.90237)
(0.631571 1.8451e-19 1.72906)
(9.98396 8.96235e-23 0.080246)
(9.98632 -2.89256e-24 0.0587903)
(9.95017 6.36532e-22 0.128586)
(9.96657 2.87539e-24 0.113143)
(9.89749 -3.66742e-21 0.17562)
(9.9287 2.8232e-21 0.164784)
(9.82695 1.49548e-22 0.223766)
(9.8685 -5.8275e-21 0.216754)
(9.73918 -3.42855e-21 0.274199)
(9.78951 3.007e-21 0.270833)
(9.63425 5.46269e-22 0.327605)
(9.69403 -1.25839e-20 0.327824)
(9.51198 6.15457e-21 0.384671)
(9.58209 1.28029e-20 0.388406)
(9.3721 2.72551e-23 0.446137)
(9.45313 1.35778e-20 0.453348)
(9.21423 4.32425e-22 0.51274)
(9.30667 -2.06469e-22 0.523449)
(9.03784 -1.57846e-20 0.58521)
(9.1423 -2.92823e-20 0.599495)
(8.8423 8.19196e-22 0.664275)
(8.9595 -4.35835e-22 0.682268)
(8.62691 4.82541e-20 0.75066)
(8.75766 1.79641e-20 0.772556)
(8.39091 2.79832e-20 0.845059)
(8.53609 3.20716e-20 0.871129)
(8.13347 -4.0818e-20 0.948092)
(8.29402 -3.46325e-20 0.978716)
(7.8537 -7.63207e-20 1.06023)
(8.03067 -4.79836e-22 1.09595)
(7.55068 -7.68104e-20 1.18172)
(7.74515 -3.47343e-20 1.22326)
(7.22345 4.93407e-20 1.31241)
(7.43656 -3.73061e-20 1.36082)
(6.87096 9.55399e-20 1.4516)
(7.10386 8.51545e-20 1.50834)
(6.49212 -1.83203e-19 1.59779)
(6.74596 1.13624e-20 1.66488)
(6.08575 2.13823e-19 1.74831)
(6.36159 -3.79882e-19 1.82856)
(5.65053 8.16711e-19 1.89907)
(5.94917 6.15905e-19 1.9962)
(5.18505 4.44264e-19 2.04425)
(5.50687 4.17569e-19 2.16303)
(4.68772 -1.98086e-19 2.17605)
(5.03248 4.33011e-21 2.32237)
(4.15682 -2.2398e-19 2.28487)
(4.52343 -1.99052e-19 2.46546)
(3.59045 -6.24787e-20 2.3597)
(3.97686 2.87825e-20 2.58174)
(2.98647 -1.26184e-19 2.38927)
(3.38982 4.56202e-19 2.65938)
(2.34316 4.81142e-19 2.36467)
(2.75944 -4.71068e-19 2.68675)
(1.66134 -6.05998e-20 2.28469)
(2.0873 5.39518e-19 2.65543)
(0.947288 -5.46756e-19 2.15264)
(1.36351 -6.07033e-19 2.56854)
(0.705376 4.42584e-22 2.41354)
(9.98309 -8.86838e-23 0.0924044)
(9.98606 1.33384e-21 0.0667438)
(9.94918 2.22876e-21 0.149838)
(9.96607 -2.04635e-21 0.129522)
(9.89756 5.50372e-22 0.206443)
(9.92864 2.82978e-21 0.190428)
(9.8287 -2.85629e-21 0.264395)
(9.86987 -2.89603e-21 0.251922)
(9.74313 -6.36064e-21 0.325018)
(9.79305 6.01354e-21 0.315751)
(9.64095 2.85379e-23 0.389166)
(9.70031 -1.86775e-20 0.382946)
(9.52204 2.0237e-20 0.45763)
(9.59168 1.91029e-20 0.454329)
(9.38613 1.3153e-20 0.531235)
(9.46665 7.36184e-21 0.530761)
(9.23288 -3.0316e-20 0.610823)
(9.3248 -1.3815e-20 0.613136)
(9.06183 -1.35464e-20 0.69723)
(9.16575 -1.49019e-20 0.702342)
(8.87242 1.69602e-20 0.791296)
(8.98904 1.51457e-20 0.799267)
(8.66404 1.96316e-21 0.893853)
(8.79412 -3.19226e-20 0.904798)
(8.436 -3.14285e-20 1.0057)
(8.58036 3.27122e-20 1.01981)
(8.18757 6.15241e-21 1.12759)
(8.34706 -3.10273e-20 1.14514)
(7.91798 4.06799e-20 1.26011)
(8.09347 4.08048e-20 1.28153)
(7.62635 4.72044e-21 1.40362)
(7.81877 4.72316e-21 1.42956)
(7.31173 0 1.55814)
(7.52202 -7.02759e-20 1.58955)
(6.97303 0 1.72317)
(7.2021 8.2064e-20 1.76139)
(6.60899 -1.90301e-19 1.89741)
(6.8578 1.07608e-20 1.94439)
(6.21799 3.40729e-20 2.07847)
(6.4875 -1.76742e-19 2.137)
(5.79797 2.14599e-19 2.26252)
(6.0891 2.17316e-19 2.33645)
(5.34634 -2.71388e-20 2.44398)
(5.65991 2.24763e-19 2.53837)
(4.85989 1.39291e-21 2.61523)
(5.19647 -2.31081e-20 2.73651)
(4.33481 5.6387e-20 2.76657)
(4.69459 -2.40436e-19 2.92239)
(3.76697 5.52115e-19 2.88652)
(4.14938 4.74767e-22 3.08527)
(3.15261 1.039e-19 2.96276)
(3.55608 5.47726e-19 3.21255)
(2.48963 -4.02424e-19 2.984)
(2.91066 -4.3705e-19 3.29062)
(1.78066 -1.71057e-20 2.94452)
(2.21481 0 3.30705)
(1.03715 -5.2921e-20 2.83841)
(1.46251 -2.546e-22 3.25763)
(0.768144 -3.57475e-20 3.11449)
(9.98284 -6.87821e-22 0.104651)
(9.986 0 0.0748143)
(9.94922 -1.37761e-21 0.17077)
(9.9662 -1.35635e-21 0.145767)
(9.89886 -6.88962e-22 0.236539)
(9.9296 1.3904e-21 0.215446)
(9.832 6.09601e-21 0.303953)
(9.87253 0 0.286071)
(9.74904 -6.63938e-21 0.374391)
(9.79821 3.80954e-23 0.359308)
(9.6501 9.17803e-22 0.448858)
(9.70863 -1.24719e-20 0.436332)
(9.53508 6.06535e-21 0.528259)
(9.60381 1.93215e-20 0.518103)
(9.40377 -1.98986e-20 0.613518)
(9.4833 -7.05367e-21 0.605575)
(9.25583 1.58455e-21 0.705574)
(9.34671 -1.31791e-20 0.69973)
(9.09086 1.41963e-20 0.805366)
(9.19371 1.34934e-20 0.801555)
(8.90835 -3.43597e-20 0.913832)
(9.02389 0 0.912034)
(8.70772 -3.28457e-22 1.03191)
(8.83672 -4.33445e-21 1.03216)
(8.48833 3.22918e-20 1.1605)
(8.63162 3.13277e-20 1.1629)
(8.24946 4.55061e-21 1.30045)
(8.4079 -3.37079e-20 1.30521)
(7.99034 4.37591e-21 1.4525)
(8.16481 -4.39506e-21 1.45996)
(7.71005 -7.12438e-20 1.61718)
(7.90149 7.0364e-20 1.6279)
(7.40755 1.36525e-20 1.79468)
(7.61691 -1.5697e-19 1.80952)
(7.08158 9.19587e-20 1.98474)
(7.30982 8.2107e-20 2.00498)
(6.73056 2.20236e-20 2.18641)
(6.9787 8.38036e-23 2.21391)
(6.35243 1.11177e-20 2.39776)
(6.62155 1.00926e-22 2.4352)
(5.94448 2.27499e-19 2.61549)
(6.23575 -1.97762e-19 2.66668)
(5.50312 2.26225e-19 2.83461)
(5.81781 1.88753e-19 2.90469)
(5.02384 -2.67232e-19 3.04799)
(5.3632 1.61062e-20 3.14367)
(4.50126 -2.93976e-19 3.24614)
(4.8663 -2.54816e-19 3.37573)
(3.92955 1.79082e-21 3.41712)
(4.32058 4.09688e-19 3.59021)
(3.3036 -1.84668e-21 3.54699)
(3.71962 -4.05942e-19 3.77354)
(2.62094 -3.04879e-20 3.62103)
(3.05793 -5.05435e-19 3.90955)
(1.88529 1.69266e-20 3.62719)
(2.33661 4.89458e-19 3.98068)
(1.11075 1.65466e-20 3.5465)
(1.55188 -5.00159e-19 3.97382)
(0.823046 5.39375e-19 3.84021)
(9.98297 -6.86748e-22 0.116788)
(9.98606 0 0.0828217)
(9.95 1.4598e-21 0.191233)
(9.96677 6.76852e-22 0.1617)
(9.90116 2.06017e-21 0.265739)
(9.93134 7.04635e-22 0.239715)
(9.83661 -6.05777e-21 0.34222)
(9.87625 7.11967e-22 0.319048)
(9.75664 -5.96436e-21 0.422082)
(9.80475 -5.97641e-21 0.401298)
(9.6614 6.37039e-21 0.506449)
(9.71873 -6.21593e-21 0.487733)
(9.55082 5.84496e-21 0.596335)
(9.61822 1.26469e-20 0.579431)
(9.42471 -4.14129e-22 0.692757)
(9.50278 1.32409e-20 0.677439)
(9.28279 -9.11933e-22 0.796743)
(9.3721 -2.86172e-20 0.782825)
(9.12468 -8.81995e-22 0.909327)
(9.22587 1.32121e-20 0.896665)
(8.94992 2.9974e-20 1.03155)
(9.06374 0 1.02004)
(8.75797 2.77951e-20 1.16443)
(8.88522 3.15286e-20 1.15404)
(8.5482 -3.55167e-20 1.30901)
(8.68975 3.30408e-20 1.29975)
(8.31989 -4.22847e-20 1.46626)
(8.47666 -6.68958e-20 1.45825)
(8.07223 6.25565e-20 1.63706)
(8.24519 -4.49308e-21 1.63056)
(7.80422 -1.81672e-20 1.82214)
(7.99441 6.59401e-20 1.8176)
(7.51468 -8.56033e-20 2.02196)
(7.72318 -1.58716e-19 2.02013)
(7.20209 -1.08158e-20 2.23656)
(7.43009 -1.50639e-21 2.23861)
(6.8645 -2.18516e-20 2.46544)
(7.11331 6.08896e-20 2.4731)
(6.49936 -2.11199e-19 2.70725)
(6.7704 -1.11649e-20 2.72307)
(6.10329 -2.323e-19 2.95948)
(6.3982 -6.06936e-21 2.98707)
(5.6718 -2.32697e-20 3.21793)
(5.99244 1.71605e-19 3.26239)
(5.19916 2.58984e-20 3.4763)
(5.54756 1.61889e-22 3.54449)
(4.6785 4.56256e-19 3.72556)
(5.05652 -3.78883e-19 3.82635)
(4.1023 -5.99095e-21 3.9535)
(4.51106 1.28032e-18 4.09773)
(3.46365 -9.10752e-19 4.14434)
(3.90257 -8.74244e-19 4.34439)
(2.75875 2.32578e-20 4.27918)
(3.22317 -1.90322e-20 4.54739)
(1.99111 -3.98384e-20 4.33846)
(2.47194 4.94596e-19 4.68328)
(1.17551 5.14771e-21 4.28663)
(1.64379 -1.5055e-18 4.72887)
(0.873856 1.06561e-18 4.60847)
(9.98336 1.37271e-21 0.128661)
(9.98621 0 0.0906456)
(9.95135 -8.72854e-23 0.211085)
(9.96766 2.69654e-21 0.17717)
(9.90428 -6.43593e-22 0.293903)
(9.93369 1.3667e-21 0.263108)
(9.84233 7.02284e-22 0.379027)
(9.88088 3.5752e-21 0.350704)
(9.76573 -6.2305e-21 0.467887)
(9.8125 -5.10815e-21 0.441531)
(9.67461 3.22413e-22 0.561693)
(9.73042 3.25765e-22 0.536914)
(9.56897 2.00514e-20 0.66156)
(9.63466 2.49845e-22 0.638033)
(9.44865 -1.55205e-20 0.768592)
(9.52482 1.36052e-20 0.746023)
(9.3134 -1.39425e-20 0.8839)
(9.40064 -2.81909e-20 0.862032)
(9.16291 1.3923e-20 1.00861)
(9.26187 -1.33071e-20 0.987221)
(8.99675 1.96085e-21 1.14386)
(9.10821 2.8965e-20 1.12276)
(8.81442 3.67925e-20 1.29079)
(8.93921 3.25612e-20 1.26985)
(8.61533 4.0255e-22 1.45054)
(8.75437 -2.87704e-20 1.42969)
(8.39874 -2.83109e-20 1.62424)
(8.55303 -5.76426e-22 1.60349)
(8.16381 -2.32165e-22 1.81295)
(8.33442 7.35088e-20 1.79244)
(7.90948 -7.73855e-20 2.01763)
(8.0976 -1.42632e-19 1.99768)
(7.63439 -7.27294e-20 2.23905)
(7.84133 6.70781e-20 2.22027)
(7.33681 7.09182e-20 2.47768)
(7.56406 -1.55867e-19 2.46105)
(7.01445 7.07557e-20 2.73357)
(7.26368 1.61316e-19 2.7206)
(6.66424 1.94142e-19 3.0061)
(6.93743 1.68027e-19 2.99907)
(6.28215 4.00101e-19 3.29367)
(6.5816 -1.53955e-19 3.29596)
(5.86277 1.93235e-19 3.59323)
(6.19118 1.85904e-20 3.60968)
(5.39916 -4.08897e-19 3.89962)
(5.75961 1.80639e-19 3.93708)
(4.88277 4.62822e-19 4.20472)
(5.27832 -5.89919e-19 4.27252)
(4.30383 3.90077e-19 4.49647)
(4.73692 8.36329e-19 4.60682)
(3.65265 2.71591e-20 4.7576)
(4.12369 -4.46994e-19 4.92578)
(2.92237 4.57177e-19 4.96478)
(3.42678 4.55316e-19 5.20824)
(2.11406 -9.97763e-19 5.08999)
(2.64081 5.05608e-21 5.42453)
(1.24112 -4.80223e-19 5.07724)
(1.75378 -9.89141e-19 5.54015)
(0.92725 5.26131e-19 5.44553)
(9.98394 1.35965e-21 0.140153)
(9.98641 0 0.0982002)
(9.95314 4.11285e-21 0.230195)
(9.9688 1.34177e-21 0.192052)
(9.9081 5.62449e-21 0.320895)
(9.93654 1.90858e-23 0.285497)
(9.84902 -2.34161e-21 0.414211)
(9.88628 -3.49644e-21 0.380897)
(9.77612 1.52175e-21 0.511597)
(9.82131 -4.55345e-23 0.479827)
(9.68954 2.53065e-22 0.614337)
(9.74352 5.5699e-23 0.583658)
(9.58931 -6.02057e-21 0.723631)
(9.65292 3.29009e-22 0.693648)
(9.47531 3.79808e-22 0.840662)
(9.54916 1.00099e-22 0.811017)
(9.34736 -2.73585e-20 0.966625)
(9.43204 4.24222e-22 0.936985)
(9.20519 2.28038e-21 1.10273)
(9.30137 5.03901e-22 1.07279)
(9.04844 5.96191e-20 1.25021)
(9.1569 3.97546e-22 1.2197)
(8.87665 -3.37856e-20 1.41031)
(8.99826 3.06335e-20 1.379)
(8.68928 -2.94062e-20 1.58431)
(8.825 -6.32346e-20 1.55202)
(8.48562 1.02201e-19 1.7735)
(8.63651 -3.24604e-20 1.7401)
(8.26482 -7.15498e-20 1.97914)
(8.43207 6.59705e-20 1.94464)
(8.02577 4.3631e-21 2.20245)
(8.21073 1.15945e-21 2.167)
(7.76703 -1.87208e-20 2.44459)
(7.97124 -8.85216e-22 2.40855)
(7.4867 -6.1855e-20 2.7065)
(7.71196 -7.99916e-20 2.67061)
(7.18223 2.58717e-19 2.9889)
(7.43067 2.46476e-19 2.95434)
(6.85016 -1.83771e-19 3.29205)
(7.12436 8.16987e-21 3.26071)
(6.48586 -5.33913e-19 3.61549)
(6.78894 -1.73352e-19 3.59029)
(6.08308 7.68084e-21 3.95761)
(6.41882 -1.84054e-20 3.94294)
(5.63363 -8.55752e-21 4.31491)
(6.00649 8.68512e-21 4.31728)
(5.12697 -2.01566e-19 4.6809)
(5.5419 -1.93334e-19 4.70979)
(4.5504 -1.45263e-20 5.0446)
(5.01208 1.8194e-19 5.11344)
(3.8899 -8.93583e-21 5.38828)
(4.40119 -1.96665e-19 5.5155)
(3.1329 -8.44936e-22 5.68485)
(3.69107 4.03048e-19 5.89428)
(2.27419 0 5.89721)
(2.86819 -2.21666e-19 6.21475)
(1.32222 -6.70867e-22 5.94428)
(1.90493 0 6.42993)
(0.995424 -2.59065e-19 6.38787)
(9.98465 0 0.15117)
(9.98666 1.28779e-21 0.105421)
(9.95529 -2.7703e-21 0.248448)
(9.97013 1.32372e-21 0.206243)
(9.9125 -9.14236e-21 0.346586)
(9.93981 -4.07977e-21 0.306769)
(9.85655 -1.15359e-21 0.447615)
(9.89233 -4.9691e-21 0.409496)
(9.78766 -1.50988e-21 0.553023)
(9.83105 5.06379e-21 0.516024)
(9.70599 1.34523e-22 0.664151)
(9.75786 -6.41912e-21 0.627763)
(9.61159 6.44775e-21 0.782273)
(9.6728 5.61042e-21 0.746038)
(9.50442 1.48753e-22 0.908646)
(9.57556 5.06918e-23 0.872137)
(9.38434 2.82919e-20 1.04454)
(9.466 0 1.00735)
(9.25114 -1.37442e-21 1.19123)
(9.344 2.79312e-20 1.15299)
(9.10455 -2.8212e-20 1.35006)
(9.20939 -5.71367e-20 1.31039)
(8.94417 0 1.52238)
(9.06188 -4.18726e-22 1.48094)
(8.76953 -6.59134e-20 1.7096)
(8.9011 3.0282e-20 1.66608)
(8.57999 -6.75391e-20 1.91315)
(8.72653 -6.51077e-20 1.8673)
(8.37473 1.37903e-19 2.13455)
(8.53752 -1.10147e-21 2.08618)
(8.15267 -4.08284e-21 2.37529)
(8.33319 1.39407e-19 2.32433)
(7.91238 -6.31561e-20 2.63692)
(8.11237 -1.42343e-19 2.58347)
(7.6519 2.32232e-19 2.92096)
(7.87346 1.47814e-19 2.86538)
(7.36856 -6.76402e-21 3.22885)
(7.61425 3.99275e-21 3.17187)
(7.05871 1.66753e-20 3.56187)
(7.33171 -2.39068e-19 3.50481)
(6.71733 3.44279e-19 3.92094)
(7.02162 3.27196e-19 3.86601)
(6.33754 -1.71258e-20 4.30625)
(6.67813 1.71391e-19 4.25701)
(5.91 -1.78328e-19 4.71659)
(6.29312 -1.83247e-19 4.67873)
(5.42214 1.94622e-19 5.14817)
(5.85529 4.05164e-21 5.13064)
(4.85766 -4.48549e-21 5.59273)
(5.34916 1.88463e-19 5.60941)
(4.19657 2.23269e-19 6.03437)
(4.75405 -1.83522e-19 6.1063)
(3.41679 1.73711e-19 6.44453)
(4.04293 4.04323e-19 6.60266)
(2.50034 -2.18587e-19 6.77782)
(3.18869 -2.09679e-19 7.06182)
(1.44276 -2.62043e-19 6.92246)
(2.13439 -1.17969e-20 7.42496)
(1.10095 -2.46429e-19 7.48687)
(9.98546 2.57634e-21 0.161637)
(9.98695 3.83331e-21 0.112257)
(9.95771 -7.9205e-23 0.265742)
(9.97162 3.94569e-21 0.219657)
(9.91739 8.13439e-23 0.370856)
(9.94341 -4.03465e-21 0.326817)
(9.86481 1.37249e-21 0.479098)
(9.89894 5.5591e-21 0.436377)
(9.80021 0 0.591991)
(9.84159 -5.69334e-21 0.549973)
(9.72378 -7.79676e-22 0.710926)
(9.77328 5.92246e-21 0.66905)
(9.6356 -8.60619e-22 0.837238)
(9.69409 -1.8692e-20 0.794986)
(9.53569 -9.87179e-23 0.972247)
(9.60376 1.20378e-20 0.929129)
(9.42399 0 1.11729)
(9.50221 -1.31024e-20 1.07282)
(9.30037 -2.8926e-20 1.27372)
(9.38941 1.3376e-20 1.22744)
(9.16462 -2.86315e-20 1.44294)
(9.26525 -4.71457e-22 1.3944)
(9.01645 3.02388e-20 1.62642)
(9.12957 -5.82242e-20 1.57516)
(8.85548 2.9909e-20 1.82568)
(8.98207 6.00187e-20 1.77126)
(8.68118 2.09439e-21 2.04233)
(8.82239 0 1.98433)
(8.49284 2.04369e-21 2.27808)
(8.64999 -6.2416e-20 2.21611)
(8.28948 -2.20086e-21 2.53475)
(8.46415 -8.16035e-22 2.46848)
(8.06977 7.20485e-20 2.81428)
(8.26384 6.79992e-20 2.74347)
(7.83187 -8.2099e-20 3.11875)
(8.04766 7.33492e-20 3.04331)
(7.57321 -2.31141e-19 3.4504)
(7.8136 -1.50622e-19 3.3705)
(7.2902 7.7677e-20 3.81161)
(7.55888 -7.90265e-20 3.7278)
(6.97779 1.52613e-19 4.20486)
(7.27953 3.06847e-19 4.11832)
(6.62892 1.38567e-21 4.63249)
(6.96992 1.56581e-19 4.54549)
(6.23355 1.27901e-21 5.09628)
(6.62197 -4.87332e-21 5.01293)
(5.77755 0 5.59651)
(6.22398 -1.62707e-19 5.52405)
(5.24108 5.20442e-21 6.13008)
(5.75888 3.20629e-19 6.08107)
(4.59691 5.08075e-21 6.6869)
(5.20172 -1.73878e-19 6.68286)
(3.80932 1.26343e-20 7.24273)
(4.51527 0 7.32026)
(2.83705 3.07782e-22 7.74924)
(3.65262 1.24744e-20 7.96473)
(1.64436 2.1453e-21 8.05997)
(2.50568 4.04339e-21 8.55457)
(1.28831 3.47543e-21 8.82149)
(9.98636 5.16851e-21 0.171492)
(9.98726 3.91349e-25 0.11867)
(9.96037 -1.56873e-22 0.281989)
(9.97323 5.20873e-21 0.232222)
(9.9227 1.57499e-21 0.393599)
(9.94729 -5.36092e-21 0.345551)
(9.8737 -1.6458e-21 0.508532)
(9.90601 5.54089e-21 0.461433)
(9.81364 3.85019e-22 0.628346)
(9.85281 1.39197e-21 0.581544)
(9.74273 -1.23195e-20 0.754474)
(9.78964 5.96867e-21 0.707361)
(9.66111 -5.38917e-21 0.888301)
(9.71661 -3.60208e-20 0.840304)
(9.56886 -1.29396e-21 1.0312)
(9.63352 1.24113e-20 0.981766)
(9.46599 6.11309e-22 1.18456)
(9.54037 1.25994e-20 1.13314)
(9.35246 4.166e-20 1.34979)
(9.43719 -2.65146e-20 1.29585)
(9.22815 -3.07913e-20 1.52838)
(9.32401 2.77891e-20 1.47136)
(9.09291 -2.70045e-20 1.72186)
(9.20075 -1.05893e-21 1.66119)
(8.94646 2.9363e-20 1.93188)
(9.06726 5.76834e-22 1.86699)
(8.78842 -6.52884e-20 2.16019)
(8.92333 0 2.09048)
(8.61825 -6.46201e-20 2.40869)
(8.76859 -6.45095e-20 2.33356)
(8.43518 7.01301e-20 2.67947)
(8.60254 -6.51125e-20 2.59831)
(8.23811 6.93629e-20 2.97486)
(8.42443 1.36291e-19 2.88706)
(8.02547 2.33196e-21 3.29748)
(8.23316 6.85196e-20 3.20245)
(7.79503 2.27885e-21 3.65033)
(8.02717 2.19089e-21 3.54754)
(7.54362 1.5432e-19 4.0369)
(7.80419 -7.15523e-20 3.92597)
(7.26668 3.09544e-19 4.46126)
(7.56095 1.53807e-19 4.34208)
(6.95762 1.48571e-19 4.92814)
(7.29271 1.61148e-19 4.80116)
(6.60675 -1.70698e-19 5.44287)
(6.99244 3.28389e-21 5.30969)
(6.19963 1.6328e-19 6.0111)
(6.64957 -8.73442e-20 5.87557)
(5.7144 1.35676e-19 6.63779)
(6.24776 2.53998e-19 6.50821)
(5.11759 -1.76814e-19 7.3247)
(5.76109 -1.79127e-19 7.21814)
(4.3575 0 8.06343)
(5.14551 -8.69585e-21 8.01502)
(3.35637 1.67624e-20 8.82127)
(4.33339 4.10059e-21 8.89874)
(2.00695 5.99911e-21 9.43014)
(3.13706 1.3926e-20 9.84047)
(1.65642 6.51447e-20 10.5331)
(9.98733 1.10522e-22 0.180683)
(9.9876 -4.15342e-23 0.124627)
(9.96322 -1.59873e-22 0.297115)
(9.97495 5.45332e-25 0.24388)
(9.92836 -1.25487e-21 0.414723)
(9.95141 -2.67392e-21 0.362892)
(9.88312 8.53615e-21 0.535805)
(9.91347 -1.36207e-21 0.484568)
(9.8278 7.03943e-21 0.661956)
(9.8646 5.64504e-21 0.610624)
(9.76267 -1.82929e-20 0.794639)
(9.80677 5.79779e-21 0.74256)
(9.6879 -1.75857e-20 0.935282)
(9.74014 -1.80982e-20 0.881828)
(9.60364 2.6304e-20 1.08529)
(9.66458 2.71505e-22 1.02986)
(9.50998 -1.50292e-20 1.24611)
(9.58014 2.57086e-20 1.18807)
(9.40697 -3.97175e-20 1.41918)
(9.48696 -4.03069e-20 1.35793)
(9.29462 5.71604e-20 1.60604)
(9.38518 -2.74329e-20 1.54094)
(9.17289 2.65585e-20 1.80829)
(9.27483 5.65004e-20 1.73867)
(9.04168 -2.88034e-20 2.02767)
(9.15594 -8.07256e-22 1.9528)
(8.90079 0 2.26604)
(9.02845 2.97397e-20 2.18517)
(8.7499 -6.50841e-20 2.52546)
(8.89224 -3.03474e-20 2.43778)
(8.58851 3.23281e-21 2.80826)
(8.74709 -6.48164e-20 2.71285)
(8.41587 1.34665e-19 3.11705)
(8.59257 6.61128e-20 3.01294)
(8.23089 6.77814e-20 3.45493)
(8.42807 3.4705e-21 3.341)
(8.03191 -7.23172e-20 3.82555)
(8.25262 1.37287e-19 3.70055)
(7.81658 -6.95772e-20 4.23337)
(8.06479 -1.38172e-19 4.09587)
(7.58138 5.75377e-21 4.6839)
(7.86243 -7.26489e-20 4.53231)
(7.32112 1.40358e-20 5.18414)
(7.64238 -1.45101e-19 5.01671)
(7.02792 8.56825e-20 5.74304)
(7.39989 8.03989e-20 5.55802)
(6.68943 7.37449e-21 6.37224)
(7.12761 7.5507e-20 6.16832)
(6.28565 -6.61389e-20 7.08696)
(6.81374 -1.43155e-19 6.8644)
(5.78261 -8.80937e-21 7.90718)
(6.43858 6.89589e-20 7.67047)
(5.1191 -4.42367e-21 8.85791)
(5.96491 3.02097e-20 8.62346)
(4.17703 1.02082e-21 9.96939)
(5.32883 -3.06703e-20 9.78134)
(2.70986 7.68878e-20 11.1619)
(4.27674 -4.84508e-21 11.2464)
(2.46569 7.93675e-20 12.9234)
(9.98835 -1.5033e-22 0.189171)
(9.98795 2.54988e-21 0.130104)
(9.96622 -2.55003e-21 0.311055)
(9.97674 -2.63448e-21 0.254581)
(9.93429 -2.77258e-21 0.434142)
(9.9557 -1.64989e-23 0.378776)
(9.89296 -4.17329e-21 0.560809)
(9.92125 -2.59433e-22 0.505706)
(9.84257 4.40499e-21 0.692681)
(9.87686 -5.41962e-21 0.637119)
(9.78342 5.6765e-21 0.831246)
(9.82456 9.89784e-21 0.774536)
(9.71573 0 0.977959)
(9.76455 1.38058e-21 0.91943)
(9.63973 0 1.13426)
(9.69677 0 1.07325)
(9.55558 -4.10906e-22 1.3016)
(9.62134 -1.11189e-20 1.23745)
(9.46345 -2.78727e-20 1.48148)
(9.53852 1.20844e-20 1.41349)
(9.36346 -2.70905e-20 1.67544)
(9.44853 -2.764e-20 1.6029)
(9.25573 2.84137e-20 1.88514)
(9.35157 -2.80932e-22 1.80728)
(9.14032 5.81251e-20 2.11237)
(9.24783 2.42322e-21 2.02834)
(9.01727 -1.29398e-21 2.35907)
(9.13747 5.75459e-20 2.26795)
(8.88651 -3.04891e-20 2.6274)
(9.02061 -3.00603e-20 2.52818)
(8.74791 -4.90033e-22 2.91983)
(8.89734 2.83676e-20 2.81134)
(8.60116 -6.58559e-20 3.23921)
(8.76769 -2.7614e-20 3.12009)
(8.44574 7.44968e-20 3.58893)
(8.63158 -6.9135e-20 3.45758)
(8.28086 6.87191e-20 3.97309)
(8.4888 7.49702e-20 3.82757)
(8.10524 -1.40514e-19 4.39683)
(8.33896 -7.53755e-21 4.23472)
(7.91702 -2.24758e-19 4.8667)
(8.18141 -1.37411e-19 4.68494)
(7.71331 -7.66467e-20 5.39137)
(8.01517 -2.08022e-19 5.18592)
(7.4897 7.01787e-20 5.98259)
(7.83879 1.29957e-19 5.74805)
(7.23911 -7.71127e-20 6.65699)
(7.65015 -6.26448e-20 6.38589)
(6.94957 -7.04609e-21 7.43921)
(7.44621 -9.83589e-20 7.12089)
(6.59931 1.07131e-19 8.3685)
(7.22298 1.25665e-19 7.9868)
(6.14414 5.14406e-21 9.51411)
(6.97462 1.26384e-20 9.0426)
(5.47757 -3.58224e-20 11.035)
(6.72144 -3.51333e-20 10.4082)
(4.24363 -1.31772e-22 13.4726)
(6.5558 -1.83158e-21 12.4352)
(5.76047 6.71501e-20 16.7345)
(-0.342629 0 0.304718)
(-0.215794 3.54118e-19 0.31492)
(-0.944219 -6.78376e-20 0.402941)
(-0.718979 -2.74785e-19 0.538772)
(-1.6951 3.07208e-20 0.448371)
(-1.45247 -8.59511e-20 0.650371)
(-2.54339 3.45481e-20 0.468205)
(-2.27467 1.008e-19 0.717777)
(-3.45408 -3.55727e-20 0.471811)
(-3.16328 -5.117e-20 0.756249)
(-4.40311 3.40321e-20 0.464974)
(-4.09525 1.64489e-20 0.774938)
(-5.37206 -1.92398e-20 0.450592)
(-5.05257 9.14656e-20 0.778449)
(-6.3452 -1.25899e-21 0.430115)
(-6.01966 -9.08519e-20 0.769097)
(-7.30778 1.90438e-20 0.404269)
(-6.98212 1.88604e-20 0.748009)
(-8.24488 0 0.373376)
(-7.92556 0 0.715599)
(-9.14071 -1.7268e-20 0.337546)
(-8.83476 1.08735e-20 0.671827)
(-9.9781 -6.50897e-21 0.29681)
(-9.69317 -1.17523e-20 0.616432)
(-10.7385 5.37662e-21 0.251224)
(-10.4827 4.76668e-20 0.549141)
(-11.4019 -3.698e-22 0.200931)
(-11.1837 -2.99933e-20 0.469871)
(-11.9475 6.16034e-21 0.146219)
(-11.7753 6.09686e-21 0.378886)
(-12.3545 -3.09996e-21 0.0875136)
(-12.2364 -6.36744e-21 0.276999)
(-12.603 -1.43785e-22 0.0252289)
(-12.5461 6.16445e-21 0.165695)
(-12.6746 2.04328e-22 -0.0404947)
(-12.6847 -1.228e-20 0.0467791)
(-12.5521 -3.06428e-21 -0.109541)
(-12.6333 -3.79836e-23 -0.0785077)
(-12.2228 -1.41221e-21 -0.180335)
(-12.382 2.80212e-21 -0.206545)
(-11.6832 -2.22135e-21 -0.250385)
(-11.9244 1.4984e-21 -0.331582)
(-10.9356 6.76008e-22 -0.318059)
(-11.2606 3.2346e-21 -0.45003)
(-9.98624 1.65935e-22 -0.382568)
(-10.3951 8.58825e-22 -0.55987)
(-8.84356 -1.54593e-21 -0.444043)
(-9.33569 -2.33933e-21 -0.660197)
(-7.51604 0 -0.504367)
(-8.09073 -9.30514e-22 -0.75151)
(-6.00615 2.10295e-22 -0.569097)
(-6.66679 1.2203e-21 -0.837595)
(-4.29597 2.14622e-22 -0.649827)
(-5.06372 -2.00251e-22 -0.929798)
(-2.32414 0 -0.767023)
(-3.26889 0 -1.05084)
(0.0648069 0 -1.12353)
(-1.29775 0 -1.24818)
(2.35198 0 -1.9226)
(-0.567147 9.58551e-20 0.737624)
(-0.318201 5.60616e-19 0.878595)
(-1.25359 -2.96363e-19 0.920715)
(-0.904661 -5.48217e-19 1.16557)
(-2.03412 -1.7103e-20 1.03051)
(-1.67528 -1.79088e-22 1.33576)
(-2.88701 1.66774e-20 1.0998)
(-2.49757 0 1.44663)
(-3.79084 -2.79152e-23 1.13886)
(-3.37018 1.3903e-19 1.51218)
(-4.727 7.31229e-20 1.15473)
(-4.27714 -1.34616e-19 1.54336)
(-5.6794 2.25328e-20 1.15125)
(-5.20443 5.6027e-20 1.54653)
(-6.6334 -7.21298e-20 1.13034)
(-6.13876 -5.25428e-20 1.52518)
(-7.5748 0 1.09277)
(-7.06719 1.01565e-19 1.48103)