/*--------------------------------*- C++ -*----------------------------------*\
| =========                 |                                                 |
| \\      /  F ield         | OpenFOAM: The Open Source CFD Toolbox           |
|  \\    /   O peration     | Version:  dev                                   |
|   \\  /    A nd           | Web:      www.OpenFOAM.org                      |
|    \\/     M anipulation  |                                                 |
\*---------------------------------------------------------------------------*/
FoamFile
{
    version     2.0;
    format      ascii;
    class       volVectorField;
    location    "1.69";
    object      U;
}
// * * * * * * * * * * * * * * * * * * * * * * * * * * * * * * * * * * * * * //

dimensions      [0 1 -1 0 0 0 0];

internalField   nonuniform List<vector> 
465
(
(5.87942 1.00106e-21 1.43224)
(5.2921 -9.98656e-22 1.22335)
(9.17972 -1.96595e-20 2.24265)
(8.70861 -3.49352e-20 2.00937)
(8.25389 0 1.7842)
(7.8113 1.58317e-20 1.56423)
(11.4143 1.84177e-20 2.82839)
(11.0746 3.27154e-20 2.60231)
(10.7304 0 2.38619)
(10.3792 -4.47952e-20 2.18007)
(10.0174 -2.80703e-20 1.9904)
(12.8256 -4.22968e-20 3.21133)
(12.6119 -5.25158e-20 3.00867)
(12.3823 -1.91366e-20 2.81486)
(12.1368 4.23824e-20 2.63084)
(11.875 -1.2348e-20 2.46008)
(11.599 1.2306e-20 2.30534)
(11.3122 4.40869e-20 2.16649)
(13.6492 -4.49583e-21 3.42454)
(13.5422 3.20418e-20 3.25173)
(13.4147 -1.16395e-20 3.0858)
(13.2677 5.73662e-20 2.92832)
(13.1023 -8.57485e-22 2.78178)
(12.9206 -3.14632e-20 2.64836)
(12.7251 -9.16676e-20 2.52871)
(12.518 -1.53687e-22 2.42235)
(12.3 3.919e-20 2.32886)
(14.0775 -5.63734e-20 3.50903)
(14.0529 5.21143e-20 3.36666)
(14.0073 1.46787e-19 3.22917)
(13.9423 -4.55003e-20 3.09844)
(13.8592 -4.2362e-20 2.97652)
(13.7598 0 2.86513)
(13.6464 6.54448e-20 2.76527)
(13.521 7.62735e-20 2.67729)
(13.3851 0 2.60129)
(13.2404 3.77462e-20 2.53728)
(14.2565 7.38368e-20 3.50206)
(14.2904 -6.07055e-20 3.38725)
(14.3054 8.3727e-21 3.2756)
(14.3028 4.75499e-20 3.16912)
(14.2841 4.70329e-20 3.06958)
(14.2508 -2.89802e-21 2.97847)
(14.2048 -2.41357e-21 2.89694)
(14.1479 -1.14428e-19 2.82579)
(14.0818 0 2.76535)
(14.0083 9.42332e-21 2.71561)
(13.9293 -3.32475e-20 2.67618)
(13.8467 3.31043e-20 2.64622)
(14.2898 1.52842e-19 3.43393)
(14.3622 -2.29659e-19 3.3424)
(14.4187 0 3.25269)
(14.4605 -5.8464e-20 3.16676)
(14.489 -1.97053e-21 3.08625)
(14.5051 -5.00213e-20 3.01245)
(14.5103 4.97329e-20 2.94657)
(14.5064 -4.35367e-20 2.88953)
(14.495 4.33009e-20 2.84176)
(14.4778 -7.39162e-20 2.80326)
(14.4566 0 2.77369)
(14.4333 0 2.75234)
(14.4097 -9.11619e-20 2.73812)
(14.2449 -1.46618e-20 3.32707)
(14.3409 -2.47669e-19 3.25455)
(14.4241 1.53952e-19 3.18279)
(14.4955 0 3.11359)
(14.5561 -8.09216e-21 3.04846)
(14.6068 -6.12647e-20 2.98872)
(14.6487 5.16285e-20 2.93555)
(14.6833 -9.92325e-20 2.88975)
(14.7122 9.21232e-20 2.85173)
(14.7368 -8.54928e-20 2.82155)
(14.7588 4.10342e-20 2.79898)
(14.7798 -7.64557e-20 2.78341)
(14.8012 -6.9724e-20 2.77392)
(14.8245 5.81132e-20 2.76933)
(14.8511 -2.51262e-20 2.76825)
(14.1617 1.97826e-19 3.19659)
(14.2711 -9.15017e-20 3.13937)
(14.3705 -2.39416e-19 3.08216)
(14.4607 -6.66963e-20 3.02645)
(14.5422 1.34438e-19 2.97359)
(14.6158 5.94526e-20 2.92493)
(14.6827 5.11911e-20 2.88164)
(14.7442 -7.78668e-21 2.84441)
(14.8015 -1.03364e-19 2.81362)
(14.8558 0 2.7894)
(14.9084 0 2.77153)
(14.9607 1.17948e-19 2.75951)
(15.0139 1.04424e-19 2.75258)
(15.0693 0 2.74982)
(15.1278 0 2.75006)
(15.1899 5.02504e-20 2.75205)
(14.0625 0 3.05203)
(14.1792 8.90321e-20 3.00717)
(14.2881 -7.43255e-21 2.96167)
(14.39 7.56487e-20 2.91686)
(14.4849 6.97907e-20 2.87396)
(14.5735 7.07585e-20 2.83415)
(14.657 -1.26637e-19 2.79844)
(14.7364 1.19996e-19 2.76754)
(14.8128 -1.02651e-19 2.74198)
(14.8872 1.96293e-19 2.72193)
(14.9607 -1.87439e-19 2.70716)
(15.0342 -7.8545e-20 2.69717)
(15.109 -7.71374e-20 2.69139)
(15.1859 6.89518e-20 2.68912)
(15.2655 2.73194e-20 2.6895)
(15.3483 -5.26517e-20 2.69153)
(15.4344 -6.39676e-20 2.69422)
(15.5237 -6.53581e-20 2.69674)
(13.9593 -2.18242e-19 2.8987)
(14.0797 0 2.8639)
(14.1942 8.70941e-20 2.82794)
(14.303 -7.5264e-20 2.79204)
(14.4064 1.60902e-19 2.75735)
(14.5048 -2.81947e-19 2.72484)
(14.5992 2.01208e-19 2.69524)
(14.6904 1.18058e-19 2.66923)
(14.7793 -8.6923e-21 2.64749)
(14.867 -1.07901e-19 2.63036)
(14.9542 -7.40054e-21 2.61761)
(15.0419 -8.944e-20 2.60874)
(15.1307 1.5552e-19 2.60331)
(15.2215 -6.69083e-20 2.60087)
(15.3147 2.85015e-20 2.60078)
(15.4106 5.03502e-20 2.6023)
(15.5092 -2.41446e-20 2.60467)
(15.6105 -7.32953e-20 2.60732)
(15.7141 5.50221e-20 2.60991)
(13.8568 4.36866e-19 2.73941)
(13.9788 -2.09699e-19 2.71288)
(14.0962 0 2.68489)
(14.2091 -8.45695e-20 2.65649)
(14.3178 0 2.62868)
(14.4227 -5.17462e-21 2.60225)
(14.5244 0 2.57782)
(14.6235 6.6391e-20 2.55594)
(14.7208 0 2.53723)
(14.8173 8.05947e-21 2.52221)
(14.9139 1.99167e-19 2.5108)
(15.0108 8.68716e-20 2.50256)
(15.1088 -1.62186e-19 2.4972)
(15.2086 0 2.4944)
(15.3104 0 2.49367)
(15.4145 -2.1589e-20 2.49447)
(15.521 7.23597e-20 2.49628)
(15.6297 1.47042e-19 2.49868)
(15.7406 3.67552e-21 2.50146)
(15.853 -3.53349e-20 2.50468)
(13.7569 -4.47877e-19 2.57603)
(13.879 1.2667e-20 2.55635)
(13.9977 1.21294e-20 2.53505)
(14.1131 1.8698e-19 2.51298)
(14.2251 1.62807e-19 2.49094)
(14.3343 -1.66106e-19 2.46963)
(14.4411 0 2.44964)
(14.5459 -6.45516e-20 2.43145)
(14.6489 0 2.41547)
(14.7516 -2.25382e-19 2.40216)
(14.8544 0 2.3917)
(14.9577 7.22277e-21 2.38395)
(15.0619 1.7004e-19 2.37865)
(15.1677 -3.52695e-20 2.37552)
(15.2752 3.50873e-20 2.3742)
(15.3847 -5.48227e-20 2.37432)
(15.4964 2.85844e-21 2.37551)
(15.6101 -7.36842e-20 2.37749)
(15.7258 3.42408e-21 2.38014)
(15.8432 0 2.38347)
(15.9935 0 2.38804)
(13.6604 -5.79763e-20 2.40971)
(13.7819 0 2.39567)
(13.9009 5.07972e-20 2.37993)
(14.0175 0 2.36317)
(14.1317 1.67379e-19 2.34603)
(14.2437 -5.66482e-21 2.32909)
(14.3539 -7.62624e-20 2.31294)
(14.4626 0 2.29801)
(14.5701 6.50525e-20 2.28458)
(14.6772 1.12991e-19 2.27292)
(14.7845 -1.01702e-19 2.26336)
(14.8922 1.06467e-19 2.25607)
(15.0009 0 2.25089)
(15.111 -7.92811e-20 2.24755)
(15.2227 0 2.2458)
(15.3362 -2.67959e-20 2.24538)
(15.4515 -9.26249e-20 2.24604)
(15.5689 2.19017e-20 2.2476)
(15.6882 -5.69856e-20 2.24996)
(15.8092 0 2.25313)
(15.9643 1.86557e-20 2.25758)
(13.5677 5.05455e-19 2.24114)
(13.688 -4.44137e-19 2.23171)
(13.8067 -4.95214e-20 2.22055)
(13.9237 0 2.2082)
(14.039 8.9872e-20 2.19522)
(14.1528 -8.00363e-20 2.18209)
(14.2653 7.42232e-20 2.16926)
(14.3768 7.19892e-20 2.15713)
(14.4877 6.1746e-20 2.14596)
(14.5983 -7.06472e-20 2.13596)
(14.7091 -2.18266e-21 2.12746)
(14.8203 4.97499e-21 2.12071)
(14.9325 8.42679e-20 2.11572)
(15.0459 7.42677e-20 2.11232)
(15.1608 -7.10188e-20 2.11033)
(15.2773 2.74257e-20 2.10956)
(15.3956 2.12341e-20 2.10983)
(15.5159 4.08971e-20 2.111)
(15.6382 -3.06303e-20 2.11301)
(15.7623 0 2.11589)
(15.9215 -1.80867e-20 2.12001)
(13.4788 -2.93622e-20 2.07077)
(13.5976 4.24438e-19 2.06504)
(13.7154 -3.6808e-19 2.05761)
(13.8323 0 2.04892)
(13.9482 -8.75489e-20 2.03943)
(14.0632 1.61282e-19 2.02952)
(14.1774 -1.02278e-20 2.01957)
(14.291 -2.18396e-19 2.00986)
(14.4043 -6.744e-20 2.00067)
(14.5176 5.9333e-20 1.99225)
(14.631 -1.08401e-19 1.98489)
(14.7451 -1.9437e-19 1.97884)
(14.86 9.53855e-20 1.97417)
(14.9761 -8.51932e-20 1.97085)
(15.0937 -6.43975e-21 1.96882)
(15.2129 -6.20149e-20 1.96789)
(15.3337 -2.28966e-20 1.96787)
(15.4566 -1.69006e-20 1.96868)
(15.5816 -7.64604e-21 1.97034)
(15.7085 -1.40978e-20 1.97284)
(15.8714 -1.88745e-20 1.97655)
(13.394 2.86564e-20 1.89893)
(13.511 -5.53138e-20 1.89609)
(13.6278 -5.05648e-20 1.89163)
(13.7442 0 1.8859)
(13.8602 4.56933e-20 1.87924)
(13.9757 0 1.87201)
(14.091 0 1.8645)
(14.206 7.37183e-20 1.85694)
(14.321 1.26491e-19 1.84956)
(14.4362 -9.72671e-21 1.84263)
(14.5518 -6.00514e-20 1.83641)
(14.6682 -1.04038e-19 1.83111)
(14.7854 8.71056e-20 1.82683)
(14.9039 -6.54501e-21 1.8237)
(15.0239 6.23377e-21 1.82176)
(15.1454 1.2662e-19 1.8208)
(15.2688 0 1.82057)
(15.3941 -5.99455e-20 1.82107)
(15.5217 4.80507e-20 1.82239)
(15.6513 3.84467e-20 1.82455)
(15.8175 1.25847e-21 1.82785)
(13.3136 0 1.72575)
(13.4289 5.39531e-20 1.72511)
(13.5443 0 1.72295)
(13.6599 -4.24508e-19 1.71955)
(13.7755 2.81448e-19 1.7152)
(13.8912 0 1.71016)
(14.007 0 1.7047)
(14.123 -7.17433e-20 1.69899)
(14.2393 -6.37698e-20 1.69323)
(14.3561 1.28944e-19 1.68764)
(14.4734 -2.21999e-19 1.68248)
(14.5917 2.02438e-19 1.67795)
(14.7109 -3.26527e-21 1.67412)
(14.8312 0 1.67116)
(14.9533 -7.09324e-20 1.66929)
(15.0773 3.45857e-20 1.66834)
(15.2029 8.11091e-20 1.66802)
(15.3305 5.88492e-20 1.66835)
(15.4603 1.34135e-20 1.66942)
(15.5923 -1.99079e-20 1.67126)
(15.7617 1.83045e-20 1.67417)
(13.2382 4.50637e-19 1.55138)
(13.3515 -4.725e-19 1.55232)
(13.4655 -4.51455e-19 1.55188)
(13.5801 4.42771e-19 1.55027)
(13.6951 -3.0676e-19 1.54771)
(13.8107 3.47659e-19 1.54442)
(13.9268 -7.29117e-20 1.54061)
(14.0434 7.70868e-20 1.53646)
(14.1607 0 1.53211)
(14.2786 5.66198e-20 1.5277)
(14.3973 -6.27002e-20 1.5235)
(14.5172 4.92948e-20 1.51979)
(14.638 -9.1587e-20 1.5166)
(14.7597 -8.41274e-20 1.51393)
(14.8835 0 1.512)
(15.0094 -6.13286e-20 1.51093)
(15.137 -7.46715e-20 1.51064)
(15.2666 -3.71259e-20 1.51099)
(15.3985 -5.9769e-21 1.51191)
(15.5328 1.60265e-20 1.51345)
(15.7051 -1.84012e-21 1.51593)
(13.168 -2.87257e-20 1.37568)
(13.2794 2.67307e-20 1.37768)
(13.3919 -8.92343e-22 1.37844)
(13.5053 4.21649e-19 1.37811)
(13.6196 -3.69168e-19 1.37686)
(13.7347 -1.21013e-19 1.37486)
(13.8507 4.93392e-21 1.37231)
(13.9676 4.62244e-21 1.36942)
(14.0855 2.08273e-19 1.36629)
(14.2042 1.24353e-19 1.36296)
(14.3237 0 1.35965)
(14.4446 1.49758e-19 1.35669)
(14.5668 -9.79882e-20 1.35417)
(14.6902 8.17089e-20 1.35193)
(14.8155 0 1.34997)
(14.9429 -6.32691e-20 1.34868)
(15.0722 0 1.34835)
(15.2037 4.1021e-20 1.34872)
(15.3378 6.43075e-21 1.34947)
(15.4743 -5.86182e-21 1.35068)
(15.6494 0 1.35276)
(13.1034 -4.32315e-19 1.19885)
(13.2129 2.68318e-20 1.20147)
(13.3238 1.00644e-19 1.203)
(13.4359 -4.70224e-20 1.20355)
(13.5492 0 1.20325)
(13.6637 -2.03729e-19 1.20223)
(13.7792 3.89184e-19 1.20062)
(13.896 -8.11264e-20 1.19865)
(14.0143 -7.5828e-20 1.19648)
(14.1334 -2.52409e-19 1.19416)
(14.2535 1.08778e-19 1.19175)
(14.3752 -1.07885e-19 1.18942)
(14.4985 0 1.18733)
(14.6235 -7.78499e-20 1.18542)
(14.7503 1.13976e-19 1.18362)
(14.8788 9.00787e-20 1.1823)
(15.0098 -5.75577e-20 1.18191)
(15.1433 -5.13107e-21 1.18222)
(15.2792 -1.80542e-20 1.18286)
(15.4176 2.29792e-21 1.18389)
(15.5952 -1.82147e-21 1.18569)
(13.0446 2.17669e-19 1.02011)
(13.1523 -6.14941e-20 1.02297)
(13.2616 -4.71835e-19 1.0249)
(13.3725 1.44759e-19 1.02598)
(13.4848 0 1.02631)
(13.5985 -4.15903e-20 1.02598)
(13.7135 0 1.02505)
(13.8301 3.6224e-20 1.02367)
(13.9482 6.71943e-20 1.0221)
(14.0675 6.08341e-20 1.02054)
(14.1883 -5.6789e-20 1.01888)
(14.3107 0 1.01703)
(14.4349 8.75207e-20 1.01516)
(14.5611 -8.68643e-20 1.01349)
(14.689 -3.55899e-20 1.01201)
(14.8183 0 1.01084)
(14.9505 5.10116e-20 1.01023)
(15.0855 2.35726e-20 1.01023)
(15.2229 -1.30458e-20 1.01074)
(15.3629 -1.97577e-20 1.01169)
(15.5426 0 1.01325)
(12.9917 2.22442e-19 0.840318)
(13.0978 2.57113e-20 0.843119)
(13.2056 4.88503e-20 0.845158)
(13.3153 -1.34282e-19 0.846497)
(13.4266 1.77976e-19 0.8472)
(13.5395 8.1387e-20 0.847336)
(13.6541 -1.86219e-19 0.846941)
(13.7703 7.54869e-20 0.846074)
(13.8879 6.18984e-20 0.844975)
(14.0073 -2.12376e-19 0.843901)
(14.1286 1.71085e-19 0.842756)
(14.2515 5.10152e-20 0.841384)
(14.3762 -4.59844e-20 0.839927)
(14.5029 0 0.838648)
(14.6315 -3.32418e-20 0.837646)
(14.7619 9.2033e-20 0.8368)
(14.895 -2.80014e-20 0.836076)
(15.0308 -4.93444e-20 0.835755)
(15.1694 5.42519e-20 0.836079)
(15.3109 -1.79907e-21 0.836949)
(15.4926 1.78269e-21 0.838313)
(12.9453 -2.09552e-19 0.656822)
(13.0498 3.92478e-19 0.659239)
(13.1563 -2.19736e-19 0.661051)
(13.2648 1.76788e-19 0.6623)
(13.3751 -1.7467e-19 0.663034)
(13.4872 -1.96965e-20 0.663308)
(13.6013 7.48326e-20 0.663191)
(13.7169 -1.00591e-19 0.662731)
(13.8341 2.59182e-19 0.661992)
(13.9534 -1.83783e-19 0.661087)
(14.0747 0 0.660119)
(14.1978 -7.46712e-20 0.659135)
(14.3227 4.46793e-20 0.65815)
(14.4497 0 0.657221)
(14.5789 0 0.656416)
(14.7103 -2.99645e-20 0.655664)
(14.8443 2.61969e-21 0.65492)
(14.9808 3.14062e-20 0.654426)
(15.1202 -2.36181e-20 0.654453)
(15.2627 8.01376e-21 0.654991)
(15.4456 1.75379e-21 0.656012)
(12.9054 7.88077e-21 0.473473)
(13.0085 2.26671e-19 0.475405)
(13.1137 0 0.476897)
(13.2209 0 0.477973)
(13.3302 0 0.478667)
(13.4414 -3.91516e-20 0.479027)
(13.5545 -1.79083e-19 0.47914)
(13.6695 1.41113e-19 0.479065)
(13.7864 -1.59444e-20 0.47871)
(13.9053 2.91947e-20 0.478028)
(14.0263 -5.16829e-20 0.47728)
(14.1493 7.56414e-20 0.476701)
(14.2744 0 0.476201)
(14.4018 0 0.47565)
(14.5314 0 0.475059)
(14.6635 2.73448e-20 0.474477)
(14.7981 -5.18154e-20 0.47396)
(14.9354 8.66757e-21 0.473626)
(15.0755 -2.34099e-20 0.473614)
(15.2188 -9.51516e-21 0.473979)
(15.4028 -4.27608e-21 0.474747)
(12.8723 -2.09373e-19 0.281929)
(12.9741 -1.42121e-20 0.28308)
(13.0781 9.32078e-20 0.283965)
(13.1842 -1.08011e-20 0.2846)
(13.2923 0 0.285012)
(13.4025 2.86275e-20 0.285232)
(13.5146 -7.85387e-20 0.2853)
(13.6289 6.05022e-20 0.285218)
(13.7454 1.54734e-20 0.284904)
(13.8638 -6.9645e-20 0.284354)
(13.9841 1.0533e-19 0.283772)
(14.1068 -9.59635e-20 0.283326)
(14.2318 4.5481e-20 0.282965)
(14.3591 0 0.282585)
(14.4887 -1.58012e-20 0.282175)
(14.6209 1.57007e-20 0.281783)
(14.7557 4.8689e-21 0.281467)
(14.8933 -1.08993e-20 0.281295)
(15.0337 2.16303e-20 0.281358)
(15.1772 -8.504e-22 0.281766)
(15.3611 2.93309e-21 0.282741)
(12.6016 5.48184e-20 0.0946756)
(12.6997 -4.21065e-20 0.0950279)
(12.8 0 0.0952734)
(12.9022 1.05192e-20 0.0954198)
(13.0065 0 0.0954776)
(13.1127 -9.32545e-21 0.0954568)
(13.2209 8.73886e-21 0.0953554)
(13.3311 3.98579e-20 0.0951474)
(13.4432 -6.07851e-20 0.0948282)
(13.5571 4.31337e-20 0.0944367)
(13.6727 0 0.0940283)
(13.7904 0 0.0936396)
(13.9102 0 0.0932677)
(14.0321 -8.92016e-21 0.0928935)
(14.1562 8.86271e-21 0.0925074)
(14.2826 0 0.0921188)
(14.4115 3.25708e-21 0.0917536)
(14.5429 2.67582e-21 0.0914522)
(14.6772 -7.07148e-21 0.0912613)
(14.8146 0 0.0912549)
(14.9915 2.02748e-21 0.0917643)
)
;

boundaryField
{
    inlet
    {
        type            fixedValue;
        value           nonuniform 0();
    }
    outlet
    {
        type            zeroGradient;
    }
    flap
    {
        type            movingWallVelocity;
        value           nonuniform 0();
    }
    upperWall
    {
        type            noSlip;
    }
    lowerWall
    {
        type            noSlip;
    }
    frontAndBack
    {
        type            empty;
    }
    procBoundary2to1
    {
        type            processor;
        value           nonuniform List<vector> 
17
(
(13.8327 -2.20141e-19 2.93121)
(13.7302 4.69141e-19 2.76353)
(13.6313 -2.32839e-19 2.59329)
(13.5365 0 2.42137)
(13.4458 -3.11011e-20 2.24831)
(13.3592 6.15342e-20 2.0744)
(13.2768 -5.34469e-19 1.89983)
(13.1988 -3.09349e-20 1.72464)
(13.1257 3.01906e-20 1.54887)
(13.0578 4.72495e-19 1.37231)
(12.9953 -4.66588e-19 1.19504)
(12.9385 1.46945e-20 1.01626)
(12.8875 2.25676e-19 0.83671)
(12.8428 8.30851e-23 0.653771)
(12.8044 4.25345e-19 0.471082)
(12.7727 -1.04878e-19 0.280498)
(12.5056 0 0.0942115)
)
;
    }
    procBoundary2to4
    {
        type            processor;
        value           nonuniform List<vector> 
11
(
(6.49778 -1.22531e-20 1.67107)
(9.66279 1.12988e-20 2.49602)
(11.7471 3.47336e-20 3.06925)
(13.021 -3.29645e-20 3.42403)
(13.7333 0 3.60346)
(14.0793 0 3.65455)
(14.2024 2.8063e-19 3.61797)
(14.2007 -4.08265e-20 3.5252)
(14.1355 -3.8651e-19 3.3985)
(14.0417 -1.59699e-20 3.2522)
(13.9377 2.26388e-19 3.0949)
)
;
    }
    procBoundary2to5
    {
        type            processor;
        value           nonuniform List<vector> 
34
(
(1.40793 0 0.224191)
(0.684593 -1.76858e-20 0.0347873)
(4.76119 0 1.01941)
(4.76119 0 1.01941)
(4.30469 1.73512e-20 0.805957)
(7.36542 1.8626e-20 1.3641)
(7.36542 1.8626e-20 1.3641)
(9.64613 0 1.82087)
(9.64613 0 1.82087)
(9.27004 0 1.6677)
(11.0166 2.9884e-22 2.04194)
(11.0166 2.9884e-22 2.04194)
(10.7116 5.71643e-20 1.93107)
(12.0722 -4.87376e-20 2.24816)
(12.0722 -4.87376e-20 2.24816)
(13.0886 -7.59633e-20 2.48494)
(13.0886 -7.59633e-20 2.48494)
(12.9319 5.74363e-20 2.44334)
(13.7628 -6.30837e-20 2.62447)
(13.7628 -6.30837e-20 2.62447)
(14.3875 2.99013e-20 2.72966)
(14.3875 2.99013e-20 2.72966)
(14.3685 3.81632e-20 2.72535)
(14.8819 -2.50332e-20 2.7691)
(14.8819 -2.50332e-20 2.7691)
(15.2561 -4.21096e-20 2.75448)
(15.2561 -4.21096e-20 2.75448)
(15.3265 -6.7471e-20 2.75623)
(15.6159 0 2.69858)
(15.6159 0 2.69858)
(15.8194 3.5394e-20 2.61253)
(15.8194 3.5394e-20 2.61253)
(15.997 0 2.50896)
(15.997 0 2.50896)
)
;
    }
}


// ************************************************************************* //
