/*--------------------------------*- C++ -*----------------------------------*\
| =========                 |                                                 |
| \\      /  F ield         | OpenFOAM: The Open Source CFD Toolbox           |
|  \\    /   O peration     | Version:  dev                                   |
|   \\  /    A nd           | Web:      www.OpenFOAM.org                      |
|    \\/     M anipulation  |                                                 |
\*---------------------------------------------------------------------------*/
FoamFile
{
    version     2.0;
    format      ascii;
    class       volScalarField;
    location    "1.21";
    object      p;
}
// * * * * * * * * * * * * * * * * * * * * * * * * * * * * * * * * * * * * * //

dimensions      [0 2 -2 0 0 0 0];

internalField   nonuniform List<scalar> 
2790
(
121.639
121.493
121.62
121.971
122.453
123.034
123.713
124.491
125.368
126.345
127.424
128.606
129.894
131.288
132.791
134.401
136.117
137.936
139.849
141.846
143.913
146.027
148.161
150.278
152.332
154.269
156.025
157.527
158.696
159.404
121.488
121.437
121.584
121.933
122.413
122.993
123.669
124.443
125.316
126.288
127.36
128.534
129.813
131.197
132.688
134.285
135.987
137.789
139.685
141.665
143.714
145.812
147.932
150.039
152.089
154.029
155.795
157.316
158.514
159.318
121.35
121.371
121.536
121.877
122.35
122.922
123.589
124.352
125.212
126.168
127.222
128.375
129.629
130.984
132.44
133.998
135.654
137.404
139.24
141.152
143.125
145.138
147.167
149.175
151.121
152.95
154.599
155.983
156.989
157.267
121.21
121.27
121.449
121.784
122.247
122.81
123.466
124.216
125.059
125.995
127.024
128.149
129.368
130.683
132.093
133.595
135.187
136.861
138.609
140.419
142.275
144.154
146.029
147.862
149.605
151.195
152.545
153.516
153.951
152.72
121.062
121.142
121.333
121.665
122.118
122.67
123.312
124.043
124.864
125.774
126.773
127.861
129.037
130.302
131.652
133.086
134.596
136.176
137.814
139.496
141.202
142.908
144.579
146.173
147.629
148.864
149.75
150.05
149.695
146.337
120.899
120.991
121.19
121.518
121.96
122.498
123.122
123.831
124.626
125.505
126.467
127.511
128.637
129.843
131.124
132.477
133.894
135.364
136.874
138.406
139.937
141.437
142.866
144.168
145.267
146.051
146.353
145.799
144.627
139.007
120.721
120.819
121.022
121.345
121.775
122.295
122.898
123.583
124.347
125.19
126.11
127.106
128.174
129.313
130.517
131.779
133.09
134.437
135.805
137.17
138.506
139.775
140.928
141.898
142.588
142.855
142.501
140.98
139.064
131.293
120.526
120.627
120.831
121.146
121.562
122.063
122.644
123.3
124.03
124.833
125.706
126.647
127.652
128.716
129.834
130.997
132.194
133.408
134.62
135.804
136.928
137.947
138.801
139.41
139.656
139.363
138.322
135.769
133.202
123.434
120.314
120.416
120.617
120.924
121.324
121.805
122.359
122.983
123.677
124.436
125.258
126.138
127.074
128.059
129.085
130.141
131.214
132.286
133.333
134.326
135.225
135.979
136.518
136.747
136.527
135.653
133.919
130.306
127.156
115.546
120.084
120.186
120.382
120.679
121.062
121.52
122.045
122.636
123.29
124.001
124.768
125.585
126.447
127.347
128.275
129.218
130.162
131.084
131.959
132.752
133.417
133.898
134.112
133.949
133.256
131.791
129.371
124.701
120.99
107.705
119.838
119.938
120.129
120.413
120.777
121.21
121.706
122.261
122.871
123.533
124.241
124.99
125.775
126.585
127.411
128.238
129.047
129.816
130.513
131.1
131.528
131.73
131.615
131.059
129.892
127.839
124.747
119.051
114.713
99.9083
119.577
119.674
119.857
120.127
120.472
120.879
121.342
121.858
122.424
123.033
123.68
124.359
125.063
125.781
126.502
127.208
127.88
128.492
129.009
129.39
129.579
129.502
129.06
128.117
126.486
123.859
120.108
113.442
108.292
92.0783
119.3
119.394
119.568
119.823
120.146
120.526
120.956
121.432
121.951
122.505
123.089
123.696
124.317
124.941
125.554
126.139
126.672
127.126
127.464
127.639
127.592
127.243
126.483
125.166
123.09
119.918
115.519
107.964
101.687
84.1126
119.009
119.1
119.264
119.502
119.804
120.154
120.55
120.985
121.454
121.952
122.472
123.005
123.542
124.071
124.576
125.038
125.433
125.731
125.892
125.866
125.591
124.98
123.918
122.25
119.761
116.09
111.064
102.734
94.9199
75.5914
118.705
118.792
118.945
119.167
119.445
119.766
120.125
120.518
120.938
121.379
121.833
122.292
122.744
123.178
123.575
123.916
124.175
124.32
124.309
124.091
123.599
122.742
121.404
119.419
116.567
112.469
106.887
97.9811
88.3584
65.3842
42.4482
42.4505
42.4367
42.4262
42.3775
42.1995
41.8511
41.359
40.762
40.0875
39.3524
38.5662
37.7309
36.8413
35.8865
34.8477
33.7052
32.4353
31.0183
29.4503
27.7351
25.8697
23.848
21.6638
19.2992
16.7286
13.9121
10.786
7.2479
3.12431
42.369
42.3622
42.3501
42.3443
42.2942
42.1137
41.7683
41.2857
40.7029
40.0454
39.3292
38.5632
37.7487
36.8798
35.944
34.9174
33.7725
32.4965
31.0789
29.5102
27.7914
25.9217
23.8952
21.7019
19.3229
16.7324
13.8885
10.7261
7.14302
2.94806
42.2561
42.2475
42.2323
42.2278
42.1762
41.9998
41.6723
41.2196
40.6733
40.0545
39.3761
38.6442
37.8574
37.0085
36.0743
35.0366
33.8866
32.6051
31.1774
29.5959
27.8612
25.9736
23.9274
21.71
19.301
16.6733
13.7854
10.5768
6.95674
2.72487
42.1111
42.1088
42.0875
42.0868
42.0426
41.8863
41.5979
41.1977
40.7087
40.146
39.5179
38.8266
38.0673
37.221
36.2765
35.2307
34.0639
32.759
31.3039
29.6926
27.9253
26.0021
23.9169
21.6569
19.2016
16.5233
13.583
10.3266
6.67707
2.46758
41.9331
41.9488
41.9248
41.9391
41.919
41.8038
41.5762
41.2472
40.8302
40.3341
39.7615
39.1115
38.3664
37.5164
36.5636
35.4949
34.2943
32.9489
31.4496
29.7922
27.9767
26.0039
23.8677
21.5543
19.0435
16.3093
13.3163
10.0171
6.34819
2.22229
41.7206
41.7704
41.7555
41.804
41.8307
41.7783
41.6293
41.3862
41.0516
40.6263
40.1088
39.4869
38.7519
37.9007
36.927
35.8203
34.5699
33.1674
31.6077
29.8884
28.0094
25.9731
23.7749
21.4001
18.8302
16.0417
13.0042
9.67602
6.00888
2.01945
41.4696
41.5786
41.5941
41.7016
41.7995
41.831
41.7739
41.6238
41.376
41.0226
40.5526
39.9562
39.2291
38.3657
37.3585
36.2005
34.8861
33.4122
31.778
29.9833
28.0283
25.9175
23.6483
21.2065
18.576
15.7368
12.6625
9.31555
5.67738
1.86639
41.1711
41.3827
41.4562
41.6508
41.8418
41.9727
42.0182
41.9659
41.8038
41.5169
41.0923
40.5205
39.7953
38.9091
37.8566
36.6349
35.2439
33.6857
31.9643
30.0828
28.0425
25.8495
23.5035
20.9929
18.3039
15.4202
12.3178
8.96381
5.37469
1.74301
40.8134
41.1914
41.3556
41.6636
41.9666
42.2092
42.3642
42.4127
42.3352
42.114
41.7335
41.182
40.4499
39.5307
38.4222
37.1259
35.647
33.9932
32.1737
30.1958
28.0633
25.7826
23.3567
20.7773
18.0334
15.1117
11.9891
8.63844
5.10935
1.64161
40.39
41.0046
41.2991
41.7461
42.1789
42.5456
42.8175
42.9694
42.978
42.8218
42.4814
41.9423
41.1943
40.2329
39.0588
37.6782
36.1015
34.3424
32.4154
30.3329
28.1029
25.7307
23.2232
20.5763
17.7811
14.8264
11.6895
8.34883
4.8826
1.55878
39.9005
40.8124
41.2873
41.9039
42.4871
42.9923
43.3893
43.6492
43.7443
43.6478
43.3398
42.8047
42.0324
41.0199
39.7715
38.2979
36.6149
34.742
32.6994
30.5051
28.1719
25.7069
23.1171
20.403
17.5591
14.5747
11.4264
8.0987
4.69281
1.4922
39.3141
40.6058
41.3266
42.1532
42.91
43.5686
44.1
44.4695
44.6439
44.5986
44.314
43.7738
42.9684
41.8966
40.566
38.9918
37.1952
35.2012
33.0359
30.7231
28.2811
25.7209
23.0477
20.2674
17.3755
14.3622
11.2031
7.88776
4.53665
1.43965
38.5372
40.4009
41.4596
42.5314
43.4796
44.3044
44.9746
45.445
45.6866
45.6805
45.408
44.8527
44.005
42.8659
41.4462
39.7652
37.8489
35.7278
33.4338
30.9968
28.4405
25.7805
23.0244
20.1761
17.2349
14.1911
11.0188
7.71299
4.40949
1.39857
37.5986
40.2576
41.7686
43.1014
44.2346
45.2327
46.0386
46.591
46.8783
46.8946
46.6213
46.0401
45.1409
43.9271
42.4129
40.6206
38.5805
36.3279
33.9005
31.3344
28.6589
25.8941
23.0514
20.1325
17.14
14.0609
10.8711
7.56947
4.30574
1.36647
36.9512
40.3157
42.4201
43.9313
45.1816
46.3735
47.3165
47.9156
48.214
48.2316
47.9421
47.3229
46.3653
45.0727
43.4605
41.5548
39.3891
37.0028
34.4388
31.7405
28.9414
26.0667
23.1313
20.1396
17.0887
13.9692
10.7551
7.45119
4.21977
1.341
118.383
118.466
118.608
118.811
119.064
119.355
119.677
120.026
120.395
120.777
121.164
121.547
121.913
122.25
122.539
122.759
122.883
122.878
122.699
122.295
121.597
120.513
118.923
116.663
113.511
109.098
103.138
94.0464
83.0472
51.852
118.04
118.118
118.247
118.431
118.659
118.917
119.2
119.503
119.819
120.14
120.458
120.763
121.043
121.282
121.462
121.561
121.553
121.4
121.061
120.481
119.593
118.305
116.501
114.025
110.671
106.12
100.136
91.6369
82.1995
76.2846
117.677
117.75
117.866
118.03
118.231
118.455
118.698
118.954
119.216
119.475
119.724
119.95
120.142
120.284
120.357
120.338
120.2
119.907
119.417
118.677
117.619
116.159
114.189
111.572
108.139
103.667
98.0867
91.1088
84.1465
82.1617
117.297
117.364
117.466
117.609
117.781
117.971
118.173
118.381
118.588
118.785
118.964
119.112
119.217
119.263
119.231
119.099
118.838
118.413
117.784
116.901
115.701
114.105
112.023
109.344
105.949
101.717
96.686
90.8503
84.4381
79.2169
116.898
116.96
117.048
117.168
117.312
117.466
117.626
117.787
117.938
118.073
118.182
118.253
118.272
118.225
118.093
117.853
117.476
116.931
116.179
115.174
113.859
112.167
110.026
107.355
104.078
100.144
95.6033
90.4832
84.7764
79.6019
116.483
116.539
116.612
116.71
116.824
116.943
117.061
117.172
117.268
117.342
117.382
117.377
117.314
117.178
116.95
116.608
116.126
115.474
114.616
113.511
112.11
110.359
108.206
105.593
102.479
98.8564
94.7693
90.2896
85.5068
81.0834
116.053
116.103
116.161
116.235
116.32
116.402
116.478
116.541
116.583
116.595
116.569
116.49
116.348
116.127
115.81
115.375
114.798
114.053
113.106
111.924
110.464
108.69
106.559
104.037
101.112
97.7937
94.1293
90.1992
86.0953
82.1569
115.608
115.652
115.695
115.746
115.801
115.847
115.881
115.896
115.884
115.837
115.746
115.597
115.38
115.081
114.681
114.162
113.502
112.677
111.66
110.42
108.929
107.156
105.074
102.666
99.9342
96.9002
93.6049
90.1155
86.5053
82.9845
115.151
115.19
115.217
115.244
115.269
115.28
115.272
115.239
115.175
115.072
114.918
114.703
114.416
114.044
113.57
112.976
112.244
111.355
110.284
109.007
107.504
105.754
103.738
101.453
98.911
96.1323
93.1539
90.0313
86.8271
83.6902
114.684
114.716
114.728
114.732
114.727
114.703
114.654
114.576
114.462
114.303
114.09
113.813
113.461
113.023
112.482
111.824
111.033
110.093
108.982
107.685
106.188
104.475
102.536
100.378
98.0124
95.4613
92.7569
89.9454
87.0787
84.2658
114.208
114.234
114.231
114.211
114.177
114.12
114.031
113.909
113.746
113.535
113.267
112.932
112.521
112.023
111.425
110.713
109.874
108.895
107.758
106.455
104.976
103.309
101.454
99.4187
97.2161
94.8665
92.3986
89.8501
87.2621
84.7177
113.727
113.746
113.727
113.685
113.623
113.532
113.406
113.242
113.033
112.773
112.453
112.066
111.601
111.05
110.403
109.645
108.769
107.762
106.612
105.314
103.862
102.249
100.478
98.5591
96.5043
94.3325
92.0683
89.742
87.3861
85.0663
113.243
113.253
113.22
113.156
113.066
112.943
112.782
112.577
112.325
112.02
111.653
111.218
110.706
110.109
109.42
108.626
107.721
106.697
105.544
104.259
102.84
101.284
99.5962
97.785
95.8633
93.8477
91.7589
89.6215
87.4611
85.3303
112.757
112.76
112.711
112.627
112.51
112.357
112.161
111.92
111.628
111.28
110.871
110.393
109.839
109.204
108.479
107.657
106.732
105.699
104.551
103.286
101.905
100.407
98.7968
97.085
95.2828
93.4044
91.4669
89.4906
87.4957
85.525
112.274
112.268
112.205
112.1
111.959
111.776
111.549
111.273
110.944
110.558
110.11
109.595
109.006
108.338
107.585
106.742
105.804
104.768
103.63
102.39
101.048
99.6065
98.0706
96.4497
94.7544
92.9963
91.1897
89.3516
87.498
85.6636
111.795
111.781
111.703
111.579
111.414
111.205
110.949
110.64
110.277
109.857
109.375
108.827
108.208
107.513
106.738
105.881
104.937
103.903
102.78
101.567
100.265
98.8769
97.41
95.8719
94.2713
92.6186
90.9259
89.2071
87.4746
85.7571
111.325
111.302
111.209
111.067
110.88
110.647
110.363
110.025
109.632
109.181
108.67
108.093
107.449
106.733
105.942
105.075
104.129
103.103
101.996
100.81
99.5476
98.2116
96.8086
95.345
93.8284
92.2681
90.6749
89.0592
87.4312
85.8146
110.866
110.833
110.726
110.567
110.361
110.105
109.796
109.431
109.011
108.534
107.996
107.396
106.731
105.999
105.197
104.324
103.379
102.363
101.275
100.118
98.8927
97.6052
96.2606
94.8637
93.4217
91.9431
90.4365
88.9104
87.3727
85.8437
110.421
110.379
110.258
110.084
109.859
109.582
109.25
108.862
108.418
107.918
107.358
106.739
106.057
105.312
104.502
103.627
102.687
101.683
100.614
99.4844
98.296
97.0533
95.7611
94.4241
93.0487
91.642
90.211
88.7626
87.3035
85.8507
109.993
109.943
109.809
109.62
109.378
109.082
108.73
108.321
107.857
107.336
106.759
106.123
105.428
104.674
103.859
102.985
102.051
101.059
100.011
98.9077
97.7535
96.5519
95.3071
94.0237
92.7073
91.3637
89.9987
88.6181
87.2274
85.841
109.587
109.529
109.382
109.178
108.922
108.609
108.239
107.812
107.33
106.792
106.199
105.55
104.846
104.085
103.268
102.396
101.47
100.492
99.4623
98.3848
97.2623
96.0981
94.8961
93.6604
92.396
91.1076
89.8002
88.4787
87.1477
85.8192
109.207
109.14
108.981
108.764
108.494
108.167
107.781
107.338
106.84
106.289
105.683
105.024
104.311
103.546
102.729
101.861
100.944
99.9785
98.9677
97.9139
96.8203
95.69
94.5262
93.3328
92.1139
90.8738
89.6166
88.3466
87.0674
85.7894
108.856
108.781
108.609
108.381
108.099
107.759
107.359
106.902
106.391
105.828
105.212
104.544
103.826
103.059
102.243
101.38
100.471
99.5189
98.5255
97.4935
96.4261
95.3259
94.196
93.0396
91.8606
90.6625
89.449
88.2234
86.9892
85.7548
108.538
108.455
108.272
108.032
107.74
107.388
106.976
106.508
105.986
105.413
104.789
104.115
103.393
102.624
101.81
100.952
100.053
99.1129
98.1356
97.1233
96.0791
95.0056
93.9053
92.7812
91.6367
90.4749
89.2989
88.1117
86.9162
85.7196
108.257
108.166
107.972
107.722
107.42
107.058
106.637
106.159
105.628
105.046
104.415
103.737
103.013
102.244
101.432
100.58
99.6882
98.7599
97.797
96.8021
95.7783
94.7279
93.6531
92.5567
91.4417
90.3108
89.1667
88.012
86.8494
85.6845
108.018
107.919
107.715
107.455
107.144
106.774
106.344
105.858
105.32
104.732
104.097
103.415
102.689
101.921
101.112
100.264
99.3804
98.4622
97.5119
96.5321
95.5257
94.495
93.4419
92.3689
91.2787
90.1738
89.0566
87.9294
86.7946
85.6569
107.827
107.72
107.503
107.233
106.915
106.538
106.101
105.608
105.064
104.471
103.832
103.148
102.421
101.654
100.847
100.005
99.1276
98.218
97.2784
96.3111
95.319
94.3044
93.2689
92.2149
91.1446
90.0605
88.9648
87.8594
86.7464
85.6294
107.692
107.571
107.341
107.064
106.741
106.358
105.915
105.417
104.869
104.273
103.631
102.945
102.218
101.451
100.648
99.8088
98.9371
98.0347
97.1037
96.1467
95.1663
94.1646
93.1434
92.1047
91.0508
89.9837
88.9055
87.8183
86.7239
85.6255
107.624
107.471
107.223
106.94
106.613
106.227
105.781
105.28
104.729
104.131
103.488
102.801
102.074
101.309
100.507
99.6717
98.804
97.9066
96.9815
96.0313
95.0585
94.0654
93.0533
92.0244
90.9806
89.9241
88.8566
87.78
86.696
85.6068
107.652
107.447
107.175
106.885
106.556
106.166
105.717
105.213
104.66
104.061
103.417
102.73
102.004
101.24
100.441
99.6077
98.7437
97.8508
96.9309
95.9866
95.0204
94.0344
93.0301
92.0093
90.9742
89.9265
88.8681
87.8008
86.7264
85.6461
-38.493
-13.1316
14.2782
68.9178
64.7202
60.9035
73.5373
65.5666
60.8628
71.1933
66.5135
63.8232
74.5047
71.2502
68.7769
77.0793
74.3218
72.0282
78.6598
76.2899
74.2941
79.9272
77.872
76.125
80.9824
79.1569
77.5977
81.8265
80.1767
78.7673
82.495
80.9871
79.7007
83.0232
81.6329
80.4485
83.4378
82.1459
81.0477
83.7599
82.5517
81.5272
84.0073
82.8709
81.9102
84.1947
83.1204
82.2152
84.3337
83.3137
82.457
84.4341
83.4616
82.6476
84.5037
83.5732
82.7969
84.5492
83.6559
82.9128
84.5762
83.7158
83.0021
84.5895
83.7585
83.0705
84.593
83.7879
83.1226
84.5913
83.8092
83.1635
84.5851
83.8231
83.1943
84.5833
83.8387
83.2241
84.5759
83.846
83.2437
84.5918
83.8743
83.2803
84.5838
83.8764
83.2909
84.6391
83.9412
83.3592
41.0664
43.6109
43.8818
44.9639
46.333
47.8229
48.8478
49.4176
49.6967
49.6999
49.3781
48.7046
47.6759
46.2974
44.5861
42.5706
40.2863
37.7672
35.0634
32.2301
29.3019
26.3104
23.2741
20.1965
17.0788
13.9071
10.6586
7.34667
4.14111
1.31745
54.7042
47.6276
46.4431
47.9179
49.4259
50.2167
50.5961
50.9369
51.2345
51.2618
50.907
50.1681
49.0569
47.5867
45.7769
43.6534
41.2497
38.6071
35.7829
32.8175
29.7484
26.6307
23.4836
20.3051
17.1022
13.8637
10.5731
7.24044
4.05502
1.2878
56.3154
51.7687
50.59
50.9174
51.2831
51.6298
52.2218
52.8476
53.136
52.9837
52.474
51.6334
50.4364
48.879
46.9769
44.7549
42.2478
39.4992
36.5549
33.4573
30.2711
27.037
23.755
20.4596
17.1554
13.8266
10.4777
7.13177
3.97072
1.24981
60.606
57.1165
55.2786
54.4952
54.1438
54.0606
54.1942
54.3899
54.5038
54.4013
53.9311
53.0321
51.7414
50.0982
48.1178
45.8178
43.2293
40.3919
37.3473
34.1454
30.8415
27.4668
24.0729
20.6703
17.2182
13.768
10.3512
6.99346
3.87228
1.20026
65.5115
62.0944
59.642
58.0605
57.0872
56.5065
56.1824
55.993
55.8089
55.4983
54.9477
54.0688
52.8026
51.1425
49.1196
46.7701
44.1283
41.2299
38.1144
34.8294
31.4216
27.9309
24.4016
20.8275
17.2556
13.6985
10.1463
6.77662
3.7539
1.12662
69.1013
65.9501
63.2785
61.2465
59.8049
58.7895
58.06
57.5009
56.9952
56.4297
55.7066
54.7435
53.4735
51.8511
49.8617
47.5231
44.8724
41.9503
38.7974
35.4576
31.9736
28.3851
24.725
21.009
17.28
13.5291
9.88658
6.61013
3.62923
1.00983
71.7881
68.9635
66.2881
64.0298
62.2658
60.8981
59.8096
58.9014
58.0783
57.2446
56.3121
55.2046
53.8597
52.2282
50.2764
47.9916
45.3855
42.4885
39.3395
35.9813
32.4547
28.7973
25.0414
21.2132
17.3489
13.4865
9.77301
6.38699
3.40652
0.813475
73.9323
71.3762
68.7795
66.4279
64.4587
62.8249
61.4382
60.2217
59.1022
58.0025
56.8466
55.5659
54.1018
52.4066
50.4448
48.193
45.6429
42.8033
39.6982
36.362
32.8321
29.1456
25.3374
21.4417
17.5037
13.5877
9.81703
6.34033
3.31534
0.580237
75.6403
73.3054
70.8234
68.4621
66.3803
64.5635
62.9487
61.4795
60.1019
58.7565
57.3817
55.9181
54.3118
52.5182
50.5032
48.2412
45.717
42.9266
39.8781
36.5911
33.0939
29.4199
25.6052
21.6908
17.7302
13.7978
10.0061
6.48583
3.37427
0.478016
76.999
74.8539
72.4987
70.1764
68.0487
66.1192
64.3436
62.6813
61.0939
59.5378
57.965
56.3255
54.5715
52.6636
50.5698
48.2646
45.7308
42.9596
39.951
36.7139
33.266
29.6335
25.85
21.9586
18.0161
14.0984
10.308
6.75545
3.55154
0.518282
78.0887
76.109
73.8794
71.621
69.4916
67.5037
65.6244
63.825
62.0786
60.3541
58.6152
56.8203
54.929
52.9077
50.7269
48.362
45.7958
43.018
40.0252
36.8215
33.4183
29.8353
26.1019
22.2585
18.3595
14.4766
10.6985
7.11666
3.8215
0.659579
78.9683
77.1333
75.0228
72.8404
70.7374
68.7304
66.7932
64.9046
63.0466
61.1975
59.3292
57.4078
55.4009
53.2799
51.0179
48.592
45.986
43.1889
40.1962
37.0098
33.6385
30.0985
26.4151
22.6245
18.7756
14.931
11.1651
7.55163
4.16293
0.870167
79.6802
77.9728
75.9737
73.8719
71.8129
69.8144
67.854
65.9152
63.986
62.0517
60.0903
58.0747
55.9793
53.7797
51.4514
48.9742
46.333
43.5168
40.5201
37.3439
33.9955
30.4889
26.8468
23.1007
19.2931
15.4765
11.7113
8.05566
4.56591
1.13726
80.257
78.6631
76.7673
74.7469
72.742
70.7707
68.8123
66.8533
64.8855
62.8991
60.877
58.7978
56.6411
54.3859
52.0106
49.4977
46.8332
44.0062
41.0107
37.8463
34.5186
31.0403
27.4309
23.7179
19.937
16.1316
12.3495
8.6359
5.03402
1.46484
80.7248
79.2318
77.4315
75.4911
73.5457
71.6133
69.6746
67.7172
65.7359
63.7237
61.6677
59.5511
57.3571
55.068
52.6657
50.134
47.4598
44.6334
41.6483
38.5021
35.1985
31.748
28.167
24.4784
20.7114
16.901
13.0849
9.29772
5.57222
1.85862
81.1041
79.701
77.9887
76.1251
74.2415
72.3553
70.4478
68.5077
66.531
64.5131
62.4442
60.3111
58.0994
55.7947
53.3817
50.8458
48.1746
45.3597
42.3941
39.2733
35.9986
32.578
29.0243
25.3551
21.5936
17.767
13.9042
10.0314
6.17286
2.31037
81.4111
80.0883
78.4566
76.6661
74.8442
73.0081
71.1392
69.2267
67.2675
65.2585
63.1922
61.0578
58.8434
56.5371
54.126
51.597
48.9386
46.1429
43.2027
40.1118
36.8696
33.4809
29.954
26.3016
22.5407
18.6914
14.7745
10.8089
6.81097
2.79345
81.6591
80.4078
78.8497
77.1278
75.3661
73.5814
71.7553
69.877
67.9439
65.9538
63.901
61.7764
59.5702
57.2723
54.8715
52.3563
49.7167
46.9447
44.0318
40.9718
37.7628
34.406
30.9045
27.2662
23.5023
19.6263
15.6516
11.5899
7.44971
3.26987
81.8588
80.671
79.1797
77.5217
75.8175
74.0838
72.3023
70.462
68.5603
66.5958
64.5637
62.4565
60.2657
57.9825
55.597
53.0997
50.482
47.7347
44.8484
41.8169
38.6381
35.3099
31.8304
28.2022
24.4317
20.526
16.4915
12.3331
8.05119
3.70286
82.019
80.8873
79.4565
77.8574
76.2074
74.523
72.786
70.9851
69.1178
67.1828
65.176
63.0909
60.92
58.6555
56.2884
53.811
51.2148
48.4901
45.628
42.6216
39.4675
36.1617
32.6983
29.075
25.2936
21.3553
17.26
13.006
8.5862
4.06686
82.1471
81.0647
79.6882
78.1429
76.5432
74.9055
73.2117
71.4502
69.6182
67.7145
65.7354
63.675
61.5264
59.2824
56.9354
54.4777
51.901
49.1967
46.3558
43.3699
40.2344
36.9434
33.4884
29.864
26.0671
22.0931
17.9365
13.5898
9.03907
4.35151
82.2493
81.2098
79.8817
78.3851
76.8316
75.2373
73.5844
71.8609
70.0637
68.1915
66.2409
64.2061
62.0807
59.8582
57.5316
55.0927
52.5337
49.8476
47.024
44.0535
40.9304
37.6466
34.1926
30.5615
26.7449
22.7329
18.5156
14.0805
9.40818
4.56071
82.3305
81.328
80.0427
78.5898
77.0779
75.5234
73.9083
72.2205
70.4566
68.6151
66.6925
64.6832
62.5811
60.3798
58.0724
55.6506
53.1083
50.438
47.6275
44.6676
41.5519
38.2699
34.8112
31.168
27.3278
23.2766
19.0003
14.4827
9.70043
4.70634
82.3961
81.425
80.1771
78.7628
77.2881
75.7693
74.1886
72.5337
70.8008
68.9881
67.0921
65.1073
63.0275
60.8466
58.557
56.1511
53.6242
50.9676
48.1669
45.2134
42.1008
38.8176
35.3511
31.6909
27.8242
23.7344
19.4032
14.8105
9.93065
4.80555
82.448
81.503
80.2872
78.9064
77.4643
75.9769
74.4268
72.8013
71.0963
69.3098
67.4383
65.4761
63.417
61.2548
58.9818
56.5905
54.0768
51.4312
48.6381
45.6883
42.5761
39.2897
35.8135
32.1337
28.2386
24.112
19.7312
15.0718
10.1073
4.86885
82.4941
81.5703
80.3816
79.0297
77.6155
76.1552
74.6316
73.032
71.3517
69.5887
67.7392
65.7974
63.7571
61.612
59.3541
56.976
54.4737
51.8372
49.0503
46.1035
42.9904
39.6994
36.2139
32.5159
28.593
24.4318
20.0074
15.2908
10.254
4.91609
82.5281
81.6204
80.4534
79.125
77.7338
76.2958
74.7941
73.2159
71.5562
69.8129
67.9818
66.0573
64.0328
61.9021
59.657
57.2899
54.7965
52.1667
49.3843
46.4393
43.3243
40.0272
36.5321
32.819
28.8715
24.6773
20.2141
15.4501
10.3544
4.93654
82.5723
81.6761
80.5266
79.2177
77.8452
76.4254
74.9418
73.3814
71.7391
70.0123
68.1971
66.2874
64.2768
62.1588
59.9254
57.5685
55.0828
52.4589
49.6814
46.7394
43.624
40.3224
36.8195
33.0959
29.1305
24.9084
20.4124
15.6106
10.4659
4.97147
82.592
81.7013
80.5625
79.2664
77.9064
76.4985
75.0266
73.4777
71.8466
70.1306
68.3254
66.4252
64.4232
62.3131
60.0872
57.7369
55.2555
52.6343
49.8596
46.9191
43.8026
40.4966
36.9864
33.2542
29.2761
25.0327
20.5098
15.6792
10.5009
4.95866
82.6576
81.7663
80.6361
79.351
78.0009
76.6021
75.1394
73.5996
71.9776
70.2702
68.4735
66.5814
64.5871
62.4841
60.2649
57.9209
55.4445
52.827
50.0562
47.1193
44.0048
40.6991
37.1871
33.4517
29.4696
25.2165
20.677
15.8257
10.6152
4.99694
)
;

boundaryField
{
    inlet
    {
        type            zeroGradient;
    }
    outlet
    {
        type            fixedValue;
        value           uniform 0;
    }
    flap
    {
        type            zeroGradient;
    }
    upperWall
    {
        type            zeroGradient;
    }
    lowerWall
    {
        type            zeroGradient;
    }
    frontAndBack
    {
        type            empty;
    }
}


// ************************************************************************* //
