/*--------------------------------*- C++ -*----------------------------------*\
| =========                 |                                                 |
| \\      /  F ield         | OpenFOAM: The Open Source CFD Toolbox           |
|  \\    /   O peration     | Version:  dev                                   |
|   \\  /    A nd           | Web:      www.OpenFOAM.org                      |
|    \\/     M anipulation  |                                                 |
\*---------------------------------------------------------------------------*/
FoamFile
{
    version     2.0;
    format      ascii;
    class       surfaceScalarField;
    location    "2.72";
    object      phi;
}
// * * * * * * * * * * * * * * * * * * * * * * * * * * * * * * * * * * * * * //

dimensions      [0 3 -1 0 0 0 0];

internalField   nonuniform List<scalar> 
865
(
0.0871027
0.00957844
0.0768778
0.0102214
0.0660032
0.0108709
0.0544917
0.0115083
0.0423929
0.0120961
0.0298293
0.0125617
0.0170985
0.0127297
0.00507743
0.0120205
0.0050773
0.105428
0.0188472
0.0954152
0.0202309
0.0846256
0.0216569
0.0730308
0.0230998
0.060619
0.0245052
0.0474124
0.0257664
0.0334372
0.0267038
0.0183172
0.0271401
0.0233943
0.112967
0.0274622
0.10356
0.0296342
0.0932724
0.0319407
0.0819905
0.0343784
0.0695611
0.036932
0.0557692
0.0395564
0.0402313
0.0422405
0.0218421
0.0455288
0.0452363
0.116277
0.0356802
0.107236
0.0386718
0.0972358
0.0419375
0.0860887
0.0455222
0.0735029
0.0495151
0.0590547
0.0540027
0.0422335
0.0590605
0.0224071
0.0653546
0.0676433
0.117821
0.0437521
0.108881
0.047609
0.0988873
0.0519276
0.0876177
0.0567886
0.0747468
0.0623835
0.0597576
0.06899
0.0420488
0.0767682
0.0217634
0.0856395
0.0894065
0.11866
0.0518423
0.109657
0.0566088
0.0995171
0.0620641
0.0879561
0.0683466
0.0746918
0.0756453
0.0592772
0.0844028
0.0410545
0.0949899
0.0207435
0.10595
0.11015
0.119316
0.0600407
0.110143
0.0657798
0.099787
0.0724168
0.0879183
0.0802125
0.0742056
0.0893556
0.0584
0.100207
0.0399371
0.113452
0.019769
0.126118
0.129919
0.120105
0.0683359
0.11074
0.0751421
0.10011
0.0830446
0.0879459
0.0923742
0.0738387
0.103461
0.0576718
0.116372
0.0390307
0.132092
0.0190116
0.146137
0.14893
0.1212
0.0766901
0.111721
0.0846199
0.100863
0.0939006
0.0884183
0.104817
0.0740382
0.117839
0.0575575
0.132852
0.0386659
0.150983
0.018699
0.166104
0.167629
0.122756
0.0850673
0.113241
0.0941344
0.102313
0.104827
0.0896956
0.117433
0.075117
0.132417
0.0583715
0.149597
0.039223
0.170132
0.0191557
0.186171
0.186785
0.124945
0.0933275
0.115522
0.103558
0.10469
0.115659
0.0920865
0.130036
0.0774523
0.147051
0.0605784
0.166471
0.0412704
0.18944
0.0209178
0.206524
0.207703
0.127929
0.101275
0.118809
0.11268
0.108297
0.126172
0.0960507
0.142283
0.0817452
0.161357
0.0650577
0.183159
0.0458417
0.208657
0.0250458
0.22732
0.232749
0.131807
0.108726
0.123307
0.121183
0.113537
0.135944
0.102212
0.153611
0.0889191
0.174652
0.0731423
0.198938
0.0548518
0.226949
0.0337923
0.248381
0.266541
0.136712
0.115419
0.129225
0.128675
0.120743
0.144431
0.111086
0.163272
0.0999754
0.185767
0.086915
0.212002
0.0719674
0.241899
0.0520923
0.268257
0.318633
0.142472
0.121103
0.136314
0.134841
0.129664
0.151087
0.122601
0.170342
0.115293
0.19308
0.107904
0.219395
0.100953
0.248852
0.0901525
0.279057
0.408785
0.0008872
-0.000886543
0.0031634
-0.0022729
0.00594784
-0.00277351
0.00835467
-0.00238276
0.0099406
-0.00154748
0.0106854
-0.000697619
0.0108088
-7.59151e-05
0.0105757
0.00027579
0.0101867
0.000426578
0.000460992
0.000977322
-0.00186317
0.00312061
-0.0044127
0.00579227
-0.00543375
0.0081661
-0.00473188
0.00985086
-0.00319353
0.0108033
-0.00160344
0.0111775
-0.000403693
0.0111703
0.000324368
0.0109555
0.000677576
0.000797014
0.00115465
-0.00301707
0.00309938
-0.00635367
0.00523161
-0.00755399
0.00696159
-0.0064368
0.00807456
-0.00426853
0.00860443
-0.00208877
0.00869425
-0.000449989
0.00847801
0.000579338
0.00806906
0.00112069
0.0013518
0.00143893
-0.00445518
0.00317839
-0.00808905
0.00467226
-0.00903538
0.00558447
-0.00732417
0.00591291
-0.00456102
0.00579044
-0.00192549
0.00530625
7.35414e-05
0.00455036
0.00137048
0.00361336
0.00208939
0.00247616
0.00157436
-0.00602866
0.00299946
-0.00950973
0.00374469
-0.00976781
0.003695
-0.0072505
0.00306495
-0.00389806
0.00195485
-0.000779276
0.00045959
0.00160338
-0.00126016
0.00312172
-0.00315212
0.00401034
0.00459913
0.00139148
-0.00741917
0.00229486
-0.0104084
0.00207675
-0.00953693
0.000796104
-0.00594749
-0.00130709
-0.00176583
-0.00397966
0.00192425
-0.00672832
0.0043818
-0.00934438
0.0057656
-0.0118937
0.00658596
0.00712217
0.000862379
-0.00828049
0.000859704
-0.0104008
-0.000852383
-0.00781258
-0.00400879
-0.00277105
-0.00784031
0.00209042
-0.0113275
0.00543736
-0.0142956
0.00737523
-0.0170392
0.00853368
-0.0196381
0.00920876
0.00959973
-6.85399e-05
-0.00821081
-0.00169181
-0.0087727
-0.00546004
-0.00403311
-0.0102278
0.00201386
-0.0144562
0.00633934
-0.0178762
0.0088789
-0.0208882
0.0104088
-0.0236084
0.0112755
-0.0260953
0.0117174
0.0118907
-0.00159622
-0.00661338
-0.00535659
-0.00500773
-0.0109603
0.00158036
-0.0160817
0.00714941
-0.020141
0.0104153
-0.0235821
0.0123379
-0.0265465
0.0133918
-0.029142
0.0138902
-0.0314378
0.0140332
0.0139463
-0.00346186
-0.00315032
-0.00985812
0.0013926
-0.016214
0.00794439
-0.0211653
0.012112
-0.025226
0.0144896
-0.0285823
0.0157092
-0.0313906
0.0162163
-0.0337756
0.0162925
-0.0358278
0.016104
0.0157409
-0.00676098
0.00361179
-0.0147069
0.00934195
-0.020994
0.014238
-0.0259329
0.0170599
-0.0298354
0.0184033
-0.0329635
0.0188501
-0.0355057
0.018773
-0.0375972
0.0183999
-0.0393454
0.0178695
0.0172532
-0.0104439
0.0140567
-0.0192249
0.0181256
-0.0255853
0.0206036
-0.0303224
0.0218044
-0.0339274
0.0220178
-0.0367004
0.0216345
-0.0388587
0.0209444
-0.040566
0.0201221
-0.0419608
0.0192806
0.0184636
-0.0148232
0.0288807
-0.0239677
0.0272724
-0.0299105
0.0265507
-0.0342001
0.0261004
-0.0373681
0.0251943
-0.0396821
0.0239587
-0.0413611
0.0226356
-0.0426014
0.0213764
-0.0435784
0.0202732
0.0193319
-0.0184157
0.047297
-0.0277543
0.036613
-0.0332538
0.0320542
-0.0372178
0.0300704
-0.0399198
0.0279041
-0.0416795
0.0257281
-0.0427817
0.0237493
-0.0434724
0.0220803
-0.0439652
0.020781
0.0198088
-0.0135613
0.0608589
-0.0248195
0.0478734
-0.0329606
0.0401992
-0.037519
0.0346345
-0.0400157
0.0304082
-0.041356
0.0270776
-0.0420023
0.0244066
-0.0422607
0.0223515
-0.0423679
0.0209026
0.155778
0.125573
0.151303
0.139326
0.14709
0.155309
0.143643
0.173798
0.141879
0.194851
0.14337
0.217909
0.150616
0.241609
0.167421
0.262253
0.274779
0.301427
0.168242
0.128503
0.165881
0.1417
0.164612
0.156591
0.165352
0.173069
0.169605
0.190608
0.179614
0.207906
0.198588
0.222638
0.228099
0.232743
0.245307
0.257571
0.182106
0.1297
0.18202
0.141803
0.183724
0.154902
0.188194
0.168613
0.196626
0.182187
0.209958
0.194582
0.228134
0.204466
0.249268
0.21161
0.217261
0.277314
0.196904
0.198952
0.139774
0.20309
0.150782
0.209976
0.161743
0.220144
0.172031
0.233729
0.181006
0.250494
0.187706
0.270638
0.191467
0.191464
0.296436
0.2159
0.221616
0.22968
0.153698
0.240302
0.161424
0.253555
0.167764
0.269315
0.171952
0.28731
0.173476
0.171449
0.307327
0.247335
0.25789
0.270467
0.155199
0.284769
0.157658
0.300222
0.158028
0.155127
0.316547
0.285219
0.298075
0.311628
0.144482
0.141184
0.325575
0.322129
0.334244
0.185903
0.115524
0.104585
0.0813185
0.0607371
0.0438479
0.252911
0.120183
0.235615
0.0986141
0.0860862
0.210266
0.289558
0.107939
0.290334
0.0978384
0.0926111
0.283809
0.307262
0.0971134
0.31325
0.0918504
0.0903207
0.315541
0.317015
0.087427
0.324783
0.0840824
0.0841354
0.330968
0.325075
0.0789008
0.332752
0.0764057
0.0770477
0.33984
0.332869
0.0716095
0.339717
0.0695584
0.0703378
0.346427
0.340531
0.346523
0.0635676
0.064324
0.352537
0.353451
0.358794
0.016767
0.0879408
-0.00436536
0.0690083
-0.0179819
0.0538199
-0.0259939
0.0426524
-0.030456
0.0348778
-0.0330987
0.0297296
-0.0348332
0.0261522
-0.036027
0.023558
0.0217556
0.162064
0.136144
0.124441
0.106633
0.0929419
0.0853234
0.0658817
0.0697183
0.0432094
0.0575576
0.0248518
0.0480963
0.0102455
0.0407694
-0.001259
0.0350751
0.0304294
0.261434
0.15852
0.233371
0.134699
0.205106
0.113592
0.178061
0.0967698
0.152654
0.0829713
0.129297
0.0714621
0.108238
0.0618396
0.0895585
0.0537668
0.0469319
0.310593
0.163469
0.29761
0.147683
0.280481
0.130725
0.261617
0.115639
0.242166
0.102429
0.222818
0.0908187
0.204026
0.0806416
0.186075
0.0717299
0.0638829
0.336089
0.158348
0.334384
0.149389
0.327553
0.137559
0.317476
0.125721
0.305443
0.114469
0.292271
0.103998
0.278558
0.0943644
0.264727
0.085573
0.0775725
0.349734
0.148454
0.354783
0.144341
0.355396
0.136949
0.352562
0.128558
0.34723
0.119807
0.340119
0.111117
0.331789
0.102704
0.322682
0.0946915
0.0871361
0.35767
0.137211
0.366019
0.135993
0.371195
0.131775
0.373481
0.126277
0.373339
0.119954
0.371269
0.113195
0.36769
0.106292
0.362975
0.0994182
0.0926904
0.363477
0.126272
0.372921
0.12655
0.380356
0.124343
0.3857
0.120936
0.38906
0.116599
0.390671
0.111592
0.390791
0.10618
0.389677
0.100543
0.0948131
0.368874
0.378253
0.117173
0.386445
0.116153
0.393266
0.114119
0.398638
0.111232
0.402598
0.107639
0.405274
0.103513
0.406802
0.099026
0.0942924
0.383339
0.391502
0.398792
0.405089
0.10494
0.410344
0.10239
0.414575
0.0992898
0.417834
0.0957778
0.0919356
0.41032
0.416154
0.421193
0.094259
0.425452
0.0915277
0.0884288
0.426693
0.431463
0.0842673
)
;

boundaryField
{
    inlet
    {
        type            calculated;
        value           nonuniform 0();
    }
    outlet
    {
        type            calculated;
        value           nonuniform 0();
    }
    flap
    {
        type            calculated;
        value           nonuniform List<scalar> 
33
(
-2.65778e-32
4.31408e-32
6.54816e-33
-2.46519e-32
0
-9.24446e-33
0
-9.86076e-32
1.84889e-32
7.39557e-32
0
0
-1.97215e-31
0
1.97215e-31
2.46519e-32
4.93038e-32
3.88267e-31
4.16001e-32
0
0
0
2.77334e-32
0
-2.46519e-31
0
0
8.62817e-32
0
0
9.86076e-32
0
-1.97215e-31
)
;
    }
    upperWall
    {
        type            calculated;
        value           nonuniform 0();
    }
    lowerWall
    {
        type            calculated;
        value           uniform 0;
    }
    frontAndBack
    {
        type            empty;
        value           nonuniform 0();
    }
    procBoundary4to1
    {
        type            processor;
        value           nonuniform List<scalar> 
30
(
0.129143
-0.212169
0.136064
0.145086
-0.238805
0.145186
0.150885
-0.273507
0.143499
0.144812
-0.310075
0.132436
0.129074
0.0653263
-0.348165
0.0582838
0.0589821
0.116192
-0.374492
0.10833
0.107994
0.106833
-0.403742
0.0983694
0.096563
-0.421318
0.0888936
0.0867667
-0.436947
0.0797701
)
;
    }
    procBoundary4to2
    {
        type            processor;
        value           nonuniform List<scalar> 
11
(
0.0730701
0.169138
0.251051
0.313131
0.357433
0.387566
0.407334
0.420201
0.428969
0.435634
0.441453
)
;
    }
    procBoundary4to3
    {
        type            processor;
        value           nonuniform List<scalar> 
19
(
-0.0966837
-0.1147
-0.121584
-0.124497
-0.125895
-0.126751
-0.127516
-0.128401
-0.129554
-0.131132
-0.133203
-0.135873
-0.139253
-0.143398
-0.148147
-0.160236
-0.171159
-0.183287
-0.19633
)
;
    }
    procBoundary4to5
    {
        type            processor;
        value           nonuniform List<scalar> 
18
(
0.00975611
0.0106493
0.00754311
0.00251657
-0.00524893
-0.014392
-0.0220924
-0.0283644
-0.0334727
-0.0376027
-0.0408388
-0.0431532
-0.0444294
-0.0444254
-0.0425249
0.019982
-0.0368655
-0.0099186
)
;
    }
}


// ************************************************************************* //
