/*--------------------------------*- C++ -*----------------------------------*\
| =========                 |                                                 |
| \\      /  F ield         | OpenFOAM: The Open Source CFD Toolbox           |
|  \\    /   O peration     | Version:  dev                                   |
|   \\  /    A nd           | Web:      www.OpenFOAM.org                      |
|    \\/     M anipulation  |                                                 |
\*---------------------------------------------------------------------------*/
FoamFile
{
    version     2.0;
    format      ascii;
    class       surfaceScalarField;
    location    "2.16";
    object      phi;
}
// * * * * * * * * * * * * * * * * * * * * * * * * * * * * * * * * * * * * * //

dimensions      [0 3 -1 0 0 0 0];

internalField   nonuniform List<scalar> 
5457
(
0.197494
0.00252137
0.194969
0.00253509
0.192368
0.00260575
0.189628
0.00273886
0.186741
0.00288191
0.183706
0.00302556
0.180519
0.00317531
0.177169
0.00333623
0.173646
0.0035098
0.169936
0.00369868
0.16602
0.00390701
0.161883
0.00413182
0.157506
0.0043761
0.152861
0.00464793
0.147918
0.00494879
0.142643
0.0052826
0.136998
0.00565394
0.13094
0.00606716
0.124416
0.00653179
0.117369
0.00705411
0.109737
0.00763812
0.101446
0.00829371
0.0924179
0.00903094
0.0825575
0.00986177
0.0717549
0.0108033
0.0598758
0.0118793
0.0467485
0.0131273
0.0321316
0.0146168
0.0154919
0.0166397
0.0154919
0.199353
0.00318391
0.198171
0.00372683
0.196776
0.00400597
0.195185
0.0043286
0.193396
0.00466621
0.191403
0.00500897
0.189202
0.00536453
0.186789
0.00573579
0.184156
0.00612896
0.181294
0.0065493
0.178189
0.00700295
0.174824
0.00749089
0.171179
0.0080197
0.167231
0.00859942
0.16295
0.0092352
0.158305
0.00993584
0.153256
0.0107119
0.147758
0.0115739
0.141761
0.012538
0.135201
0.0136211
0.128005
0.014839
0.120086
0.0162165
0.111336
0.0177835
0.10162
0.019579
0.0907567
0.0216677
0.0784769
0.0241594
0.0643613
0.027243
0.0476986
0.0312795
0.0266467
0.0376916
0.0421386
0.199216
0.00398312
0.198115
0.00483828
0.196795
0.00533041
0.195302
0.0058211
0.193634
0.0063291
0.191785
0.0068483
0.189753
0.007385
0.187532
0.00794298
0.185116
0.00853125
0.182496
0.00915655
0.179666
0.00982392
0.176605
0.0105466
0.173289
0.0113346
0.169699
0.0121916
0.165811
0.0131292
0.161593
0.0141616
0.157008
0.0153058
0.152008
0.0165837
0.146542
0.0180132
0.140546
0.0196241
0.133936
0.0214552
0.126598
0.0235578
0.118388
0.0259967
0.109113
0.028855
0.0985025
0.0322792
0.0861265
0.0365358
0.0712258
0.0421438
0.0525856
0.0499196
0.0288203
0.0614569
0.0709589
0.199124
0.00487394
0.198029
0.00594393
0.196724
0.00664054
0.195245
0.00729997
0.193594
0.00797431
0.19177
0.00866322
0.18977
0.00937219
0.18759
0.010109
0.185224
0.0108835
0.182664
0.0117041
0.179901
0.0125775
0.176921
0.0135209
0.173705
0.0145482
0.170235
0.0156641
0.166487
0.016883
0.162433
0.018224
0.158039
0.0197088
0.153259
0.0213737
0.148033
0.0232481
0.142293
0.0253719
0.135948
0.0278061
0.128878
0.0306323
0.120904
0.0339733
0.111774
0.0379867
0.101115
0.042939
0.0884031
0.0492486
0.0728079
0.0577392
0.0526548
0.0700727
0.0277889
0.0863228
0.0987478
0.199078
0.00581161
0.197974
0.00705827
0.196679
0.00794042
0.195211
0.00876695
0.193577
0.00960367
0.191773
0.010458
0.189796
0.0113366
0.187641
0.0122494
0.185303
0.0132077
0.182772
0.0142216
0.180038
0.0153014
0.177092
0.0164606
0.173918
0.01772
0.170494
0.019091
0.166796
0.0205863
0.162796
0.0222325
0.158458
0.0240563
0.153741
0.0261007
0.148584
0.028414
0.142906
0.0310583
0.136602
0.0341167
0.129545
0.0376941
0.121538
0.0419841
0.112284
0.0472424
0.101364
0.0538606
0.0881001
0.062513
0.071756
0.0740836
0.0506469
0.091182
0.0255893
0.111381
0.124337
0.199053
0.00677361
0.197943
0.00817954
0.196661
0.00922754
0.19521
0.0102173
0.193595
0.0112136
0.191813
0.0122298
0.189861
0.0132758
0.187734
0.0143629
0.185423
0.0155036
0.182921
0.0167099
0.180217
0.0179948
0.177297
0.0193735
0.174148
0.0208667
0.17075
0.0224901
0.167078
0.0242638
0.163099
0.0262203
0.158769
0.0283954
0.15405
0.0308305
0.148885
0.0335888
0.14318
0.0367721
0.136813
0.040491
0.129633
0.0448789
0.121428
0.0501933
0.111869
0.0568036
0.100533
0.0651987
0.0867463
0.0763005
0.069631
0.0911997
0.0477289
0.113084
0.0229596
0.13615
0.147297
0.199043
0.0077463
0.197931
0.00930228
0.196661
0.010502
0.195229
0.0116497
0.193635
0.0128014
0.19188
0.0139761
0.189956
0.0151864
0.187859
0.0164455
0.18558
0.0177671
0.183111
0.0191648
0.18044
0.0206546
0.177548
0.0222579
0.174425
0.0239865
0.171057
0.0258595
0.16741
0.0279158
0.163448
0.0301895
0.159133
0.0327211
0.154404
0.0355697
0.149191
0.0388121
0.143409
0.0425639
0.136931
0.0469764
0.129574
0.0522415
0.121108
0.0586633
0.1112
0.0667151
0.0993477
0.077053
0.0849839
0.0906658
0.0672587
0.108926
0.0447681
0.135576
0.0204111
0.160507
0.167709
0.199043
0.00871872
0.197934
0.010422
0.196677
0.0117645
0.195264
0.013062
0.193696
0.014364
0.19197
0.0156931
0.190079
0.0170641
0.188017
0.0184924
0.185775
0.0199927
0.183346
0.0215795
0.180717
0.0232718
0.177871
0.0250949
0.174793
0.0270608
0.171463
0.0291901
0.167847
0.0315366
0.163904
0.0341398
0.159593
0.0370424
0.15485
0.0403239
0.149587
0.0440857
0.143723
0.0484382
0.137126
0.0535811
0.129587
0.0597878
0.120856
0.0673991
0.110594
0.0769802
0.0983094
0.0893407
0.0833076
0.10567
0.0650721
0.127163
0.0423114
0.158338
0.0183886
0.184431
0.186098
0.199051
0.00968342
0.197952
0.0115318
0.196714
0.0130083
0.195328
0.0144475
0.193791
0.0158952
0.1921
0.0173745
0.190249
0.018902
0.188229
0.0204964
0.186033
0.022173
0.18365
0.0239464
0.181072
0.0258371
0.178281
0.0278763
0.175253
0.0300838
0.171961
0.0324815
0.168377
0.0351245
0.164463
0.0380613
0.160161
0.0413542
0.155417
0.0450795
0.150144
0.0493694
0.144225
0.0543683
0.137525
0.0602897
0.129827
0.0674929
0.12086
0.0763729
0.110273
0.087571
0.09759
0.102027
0.0820737
0.121189
0.063432
0.145807
0.0405655
0.181206
0.0172251
0.207773
0.203324
0.199064
0.010635
0.197983
0.0126238
0.19677
0.0142266
0.195417
0.015801
0.193917
0.0173895
0.192268
0.0190145
0.190463
0.0206933
0.188493
0.0224505
0.186347
0.0243012
0.184019
0.0262587
0.181492
0.02835
0.178751
0.0306064
0.175776
0.0330527
0.172533
0.0357232
0.168997
0.0386634
0.165137
0.0419287
0.160885
0.0456157
0.156167
0.0498076
0.150902
0.0546462
0.144961
0.0603206
0.138192
0.0670681
0.130403
0.0752903
0.121282
0.0855005
0.110478
0.0983805
0.0974648
0.115045
0.0816405
0.137017
0.0627138
0.164737
0.0399088
0.204014
0.0172875
0.230397
0.220612
0.199082
0.0115692
0.198024
0.0136932
0.19684
0.0154154
0.195523
0.0171185
0.194065
0.0188424
0.192461
0.0206083
0.190703
0.0224372
0.188783
0.0243539
0.186695
0.0263716
0.184427
0.0285099
0.181958
0.0308036
0.17928
0.0332724
0.176377
0.0359486
0.173215
0.0388819
0.16976
0.0421205
0.165964
0.0457314
0.161775
0.0498127
0.157116
0.0544774
0.151891
0.0598825
0.145983
0.06624
0.139221
0.0738409
0.131418
0.0831025
0.122287
0.094639
0.111405
0.109268
0.0982981
0.128157
0.0824514
0.152868
0.0633791
0.183814
0.0410303
0.226368
0.0191185
0.252312
0.239731
0.199101
0.0124839
0.198069
0.0147372
0.196918
0.0165721
0.195639
0.0183974
0.194225
0.020251
0.19267
0.0221534
0.190963
0.0241304
0.189101
0.0261995
0.18708
0.0283746
0.184883
0.0306888
0.182495
0.0331744
0.179907
0.0358475
0.177092
0.0387546
0.174018
0.041951
0.170652
0.0454874
0.166939
0.0494486
0.162843
0.0539171
0.15829
0.0590402
0.153171
0.0650128
0.14737
0.0720518
0.140729
0.0804929
0.133035
0.0908067
0.124034
0.103648
0.113316
0.119994
0.10049
0.140991
0.0849633
0.168401
0.066169
0.202615
0.0449342
0.247608
0.0236403
0.273609
0.263373
0.199123
0.0133775
0.198118
0.015753
0.197002
0.0176938
0.195766
0.0196345
0.194401
0.0216113
0.1929
0.0236439
0.191259
0.0257578
0.189471
0.0279705
0.187527
0.0302993
0.185412
0.0327839
0.183117
0.0354523
0.180621
0.0383287
0.177898
0.0414667
0.17492
0.0449227
0.171665
0.0487412
0.168092
0.0530252
0.164135
0.0578801
0.159727
0.0634578
0.154781
0.069969
0.149184
0.0776599
0.142787
0.0869009
0.135411
0.0981928
0.126775
0.112295
0.116597
0.13018
0.104504
0.153093
0.0898647
0.183049
0.0723057
0.220183
0.0531828
0.266739
0.0325013
0.294294
0.295874
0.19915
0.0142444
0.19818
0.0167347
0.197105
0.0187747
0.195916
0.0208242
0.194605
0.0229171
0.193168
0.0250713
0.191601
0.0273106
0.189893
0.0296613
0.188027
0.032145
0.185998
0.0347934
0.183796
0.0376351
0.181397
0.040711
0.178788
0.0440632
0.175949
0.047753
0.172842
0.0518456
0.169428
0.0564397
0.165651
0.0616623
0.161449
0.0676671
0.156761
0.0746662
0.151473
0.0829586
0.145467
0.0929177
0.138585
0.105085
0.130644
0.120247
0.121473
0.139361
0.110704
0.163872
0.0980638
0.1957
0.0835471
0.234711
0.0689984
0.281295
0.0504723
0.312824
0.346347
0.199176
0.0150853
0.19824
0.0176828
0.197206
0.0198151
0.196064
0.0219666
0.194808
0.0241683
0.193434
0.0264355
0.191933
0.0287975
0.190294
0.0312833
0.188504
0.0339148
0.186564
0.0367124
0.184467
0.0397116
0.182187
0.0429727
0.179705
0.0465307
0.177006
0.0504418
0.174052
0.054794
0.170808
0.0596824
0.167239
0.0652342
0.163287
0.0716244
0.158895
0.079066
0.153995
0.0878674
0.148488
0.0984342
0.14227
0.111316
0.135341
0.127187
0.127591
0.147123
0.118948
0.172527
0.109953
0.204708
0.101476
0.2432
0.0963347
0.286446
0.0896034
0.319559
0.435951
0.000640892
-0.000638069
0.00237318
-0.00171382
0.00454492
-0.00211125
0.00663004
-0.00199553
0.00824205
-0.00155135
0.00945422
-0.00119838
0.0104676
-0.0010195
0.0114152
-0.000950474
0.0123552
-0.000932427
0.0132893
-0.000918925
0.0141939
-0.000886864
0.0150363
-0.000823526
0.0157959
-0.000741569
0.0164306
-0.000620098
0.0168761
-0.000436024
0.0171133
-0.000234302
0.017182
-7.31294e-05
0.0171303
4.00364e-05
0.0169428
0.000168697
0.0165808
0.000336668
0.0160831
0.000466788
0.0155824
0.000465155
0.0152429
0.00030019
0.0151909
9.936e-06
0.0155499
-0.000403086
0.0164946
-0.000990001
0.0181586
-0.00170993
0.0205756
-0.00246298
0.023737
-0.00320716
-0.00374732
0.000538813
-0.00117375
0.00227217
-0.00342704
0.00477709
-0.00455346
0.00718132
-0.00431025
0.00905062
-0.00336171
0.0104552
-0.00259033
0.0116055
-0.00217585
0.012631
-0.00197816
0.0135841
-0.0018772
0.0144794
-0.00179854
0.015308
-0.00169738
0.0160537
-0.00155031
0.0166965
-0.00136657
0.0172213
-0.00113042
0.0175838
-0.000789306
0.0177591
-0.000407
0.0177909
-0.000109541
0.0177267
9.22936e-05
0.0175224
0.000354053
0.0171037
0.000730072
0.0164992
0.00104033
0.0158384
0.00109053
0.0152665
0.000832859
0.0148223
0.000412157
0.0143872
-1.17938e-05
0.0140033
-0.000651322
0.0139399
-0.00169227
0.0145156
-0.0030845
0.016089
-0.0048261
-0.00670878
0.000439644
-0.00160985
0.00200953
-0.00497482
0.0042466
-0.00672752
0.00623982
-0.00621994
0.00773726
-0.00480662
0.00881923
-0.00366068
0.009638
-0.00299829
0.0102884
-0.00262816
0.0108108
-0.00238966
0.0112157
-0.00218672
0.0114904
-0.00195347
0.0116153
-0.00165623
0.0116009
-0.00133444
0.0114632
-0.000978536
0.0111341
-0.000451382
0.0105235
0.000205984
0.00968898
0.00072031
0.00877161
0.000997748
0.00768013
0.00142673
0.00618819
0.00219692
0.00421515
0.00298282
0.00186779
0.00340277
-0.000622308
0.0032842
-0.00282442
0.00257276
-0.00424429
0.0013646
-0.00485385
-8.64965e-05
-0.00452929
-0.00206222
-0.00293085
-0.00472846
-0.000306738
-0.00749552
-0.00983415
0.000557644
-0.00216346
0.00200249
-0.00639612
0.00378275
-0.00844782
0.00513983
-0.00750464
0.00605753
-0.00568074
0.00663604
-0.00422764
0.00695423
-0.00331569
0.00705837
-0.00272754
0.00697086
-0.00228954
0.00669479
-0.00189269
0.00621433
-0.0014537
0.00550502
-0.000927837
0.00460744
-0.000419294
0.00351399
0.000128825
0.00202038
0.00105088
-0.000180008
0.00240866
-0.0031967
0.00373237
-0.00666196
0.00445134
-0.00988411
0.00463047
-0.0124499
0.00473814
-0.0144487
0.00495163
-0.0160482
0.00496791
-0.0172216
0.00441945
-0.0178321
0.00314249
-0.0177352
0.00122479
-0.0167287
-0.00113711
-0.0150658
-0.00376995
-0.013376
-0.00646331
-0.0120188
-0.00889766
-0.010795
0.000793054
-0.00295186
0.00205599
-0.00763481
0.00322598
-0.00956365
0.00382296
-0.00804264
0.00402924
-0.00585246
0.00394994
-0.00413627
0.00359396
-0.00295412
0.00295435
-0.00207869
0.00203436
-0.00135417
0.000835778
-0.000674749
-0.000813367
0.000215394
-0.00307789
0.00135592
-0.00592237
0.00244263
-0.00906087
0.00328106
-0.0120054
0.00400399
-0.014518
0.00492353
-0.0167757
0.0059857
-0.0190458
0.00671019
-0.0213086
0.00687542
-0.0233082
0.00671395
-0.0248011
0.00641535
-0.0256894
0.0058226
-0.0259859
0.00467872
-0.0257721
0.00288871
-0.0251641
0.000574692
-0.024304
-0.0020406
-0.0234355
-0.00468266
-0.0228133
-0.00712995
-0.0225624
-0.00919303
-0.0106725
0.00104255
-0.00398912
0.00196053
-0.00852895
0.00234844
-0.00990539
0.002051
-0.00769973
0.00138549
-0.00516031
0.000413212
-0.00315142
-0.000934851
-0.00159645
-0.00283674
-0.000163964
-0.0053811
0.00120767
-0.00837611
0.00234057
-0.0113648
0.00322445
-0.014024
0.00403453
-0.0164459
0.00488189
-0.0188121
0.00566083
-0.0211643
0.00636476
-0.0233861
0.00714775
-0.0253653
0.00796089
-0.0271462
0.00848039
-0.0287949
0.00850703
-0.0302309
0.00812695
-0.0312829
0.00743917
-0.0318621
0.00636923
-0.0320126
0.00479298
-0.0318644
0.00270146
-0.0315662
0.000235376
-0.0312621
-0.0023872
-0.0310783
-0.00490996
-0.0311264
-0.0071256
-0.031488
-0.00887531
-0.0100331
0.00116651
-0.0051498
0.00149682
-0.00883728
0.000857977
-0.00922958
-0.000573014
-0.006235
-0.00243808
-0.00327431
-0.00486142
-0.000714922
-0.00784272
0.0013974
-0.0109309
0.00293974
-0.0137473
0.00404307
-0.0163238
0.00493797
-0.0187862
0.00570758
-0.0211546
0.00642235
-0.0233833
0.00712782
-0.0255004
0.00779144
-0.0275465
0.00841941
-0.029461
0.00906495
-0.0311561
0.00965239
-0.0326413
0.00995563
-0.0339698
0.00981926
-0.0351193
0.00925441
-0.0360077
0.00830054
-0.036594
0.00692397
-0.0369184
0.00508229
-0.0370739
0.00281904
-0.0371656
0.000286913
-0.0373029
-0.00229153
-0.0375758
-0.00467963
-0.0380531
-0.00669135
-0.0387951
-0.00817649
-0.00908386
0.000969154
-0.00611288
0.00036416
-0.00821341
-0.00167637
-0.00716121
-0.00453061
-0.00335621
-0.00793129
0.000143717
-0.0113718
0.00273955
-0.0144106
0.00445086
-0.0171289
0.00567531
-0.0196707
0.00660492
-0.0220628
0.00735123
-0.0243188
0.00798439
-0.0264421
0.00856499
-0.0284304
0.0091332
-0.0303065
0.00968097
-0.0320847
0.0102063
-0.0337267
0.01071
-0.0351857
0.0111083
-0.036476
0.0112366
-0.0376422
0.0109702
-0.0386883
0.0102796
-0.0395794
0.0091656
-0.0402949
0.00760919
-0.0408563
0.0056098
-0.0413187
0.00324462
-0.041756
0.000685165
-0.0422483
-0.00183987
-0.0428618
-0.00410777
-0.0436456
-0.00594969
-0.044644
-0.00722058
-0.00793836
0.00021948
-0.00632646
-0.00178162
-0.00619734
-0.00546048
-0.00346246
-0.00966177
0.000863007
-0.0134409
0.00393783
-0.0165772
0.00589034
-0.0193843
0.00727399
-0.0219534
0.00826263
-0.0243153
0.00898716
-0.0264898
0.00954692
-0.0285001
0.0100153
-0.0303654
0.0104494
-0.0320954
0.0108802
-0.033708
0.0113069
-0.0352153
0.0117222
-0.0366041
0.0121021
-0.0378623
0.012364
-0.0390125
0.0123783
-0.0400937
0.0120371
-0.041121
0.011287
-0.0420816
0.0101014
-0.0429624
0.00846088
-0.0437681
0.00638285
-0.0445238
0.00396468
-0.0452722
0.00139572
-0.0460661
-0.00108549
-0.0469528
-0.0032618
-0.0479681
-0.00497575
-0.0491478
-0.00608262
-0.00665855
-0.00125699
-0.00506417
-0.00498544
-0.00245792
-0.00996764
0.00153356
-0.0142305
0.00513937
-0.0176687
0.00738935
-0.0206923
0.00892846
-0.0233746
0.00997276
-0.025762
0.0106686
-0.0278914
0.0111369
-0.0298025
0.0114789
-0.0315323
0.0117653
-0.0331083
0.0120444
-0.034551
0.0123394
-0.0358795
0.0126487
-0.0371115
0.0129629
-0.0382556
0.0132498
-0.0393255
0.0134319
-0.0403529
0.013398
-0.0413753
0.0130461
-0.0424132
0.0123062
-0.0434657
0.0111303
-0.0445227
0.00949007
-0.0455754
0.00740411
-0.0466207
0.00497556
-0.0476676
0.00240589
-0.0487373
-5.42544e-05
-0.049855
-0.0021838
-0.051052
-0.00381922
-0.0523634
-0.00481212
-0.00528396
-0.00347263
-0.00158718
-0.00883891
0.00291592
-0.0138137
0.00651808
-0.017726
0.00906245
-0.0210732
0.0107487
-0.0239686
0.011838
-0.0264661
0.0124867
-0.0286106
0.0128316
-0.0304559
0.0130024
-0.0320589
0.0131024
-0.0334698
0.013196
-0.0347248
0.0133179
-0.0358515
0.0134824
-0.0368747
0.013685
-0.0378197
0.0139167
-0.0387135
0.0141475
-0.0395884
0.0143054
-0.040485
0.0142875
-0.0414425
0.0139911
-0.042487
0.013333
-0.0436274
0.0122483
-0.0448587
0.0106948
-0.0461632
0.00867838
-0.0475097
0.0062889
-0.0488634
0.00372402
-0.0502012
0.00124621
-0.0515252
-0.000898468
-0.05287
-0.00251398
-0.0542774
-0.00344489
-0.00384463
-0.00610561
0.00452167
-0.0120987
0.00891405
-0.016678
0.0111047
-0.0204568
0.0128504
-0.0236871
0.0139902
-0.0264147
0.0145792
-0.0286697
0.0147577
-0.0305071
0.0146871
-0.0320053
0.0145203
-0.033246
0.0143631
-0.0342971
0.0142664
-0.0352028
0.0142416
-0.0359902
0.0142857
-0.0366867
0.0143941
-0.037325
0.0145638
-0.0379479
0.0147744
-0.0386032
0.0149596
-0.0393388
0.0150167
-0.0401965
0.0148372
-0.0412082
0.0143281
-0.0423944
0.0134132
-0.0437614
0.0120363
-0.0452933
0.0101813
-0.0469422
0.00790587
-0.0486266
0.00537406
-0.0502645
0.00284786
-0.0518093
0.00060862
-0.0532806
-0.00108139
-0.0547525
-0.00201234
-0.00237154
-0.00901683
0.0135406
-0.0145471
0.0144479
-0.0187731
0.0153367
-0.0224297
0.0165154
-0.0255393
0.0171105
-0.0280427
0.0170958
-0.0299686
0.0166993
-0.0314102
0.0161464
-0.0324843
0.0156137
-0.0333027
0.0152011
-0.0339514
0.0149338
-0.0344809
0.0147885
-0.0349124
0.0147327
-0.0352641
0.0147582
-0.0355726
0.0148809
-0.0358956
0.0151015
-0.0362938
0.0153571
-0.0368181
0.0155351
-0.0375083
0.0155165
-0.0383984
0.0152024
-0.0395208
0.0145153
-0.0409026
0.0133938
-0.0425506
0.0118014
-0.0444278
0.00975223
-0.0464317
0.00734478
-0.0484123
0.0047932
-0.0502472
0.00240685
-0.05188
0.000513786
-0.0533782
-0.000552725
-0.00091512
-0.0108843
0.0244262
-0.0159082
0.0194747
-0.0199347
0.0193687
-0.0236224
0.020211
-0.0266221
0.0201207
-0.0288245
0.0193111
-0.0303007
0.0181907
-0.0312209
0.0170839
-0.0317675
0.0161792
-0.0320932
0.0155457
-0.032301
0.0151595
-0.0324373
0.0149415
-0.0325053
0.0148154
-0.0324998
0.0147646
-0.0324524
0.0148417
-0.0324396
0.0150927
-0.0325365
0.0154535
-0.0327857
0.0157788
-0.0332109
0.0159315
-0.0338364
0.0158128
-0.0346967
0.0153563
-0.0358371
0.014511
-0.0373016
0.0132391
-0.039107
0.0115279
-0.0412037
0.0094093
-0.0434404
0.00699571
-0.0456042
0.00453494
-0.0475212
0.00239397
-0.049088
0.000976387
0.000501554
-0.00634582
0.0307729
-0.0121334
0.0252651
-0.0191863
0.0264269
-0.0236852
0.0247175
-0.0267132
0.0231588
-0.0284976
0.021108
-0.0293365
0.0190444
-0.0295651
0.0173294
-0.0294632
0.0160958
-0.0292308
0.0153315
-0.0289806
0.0149264
-0.0287381
0.0147147
-0.0284646
0.0145557
-0.0281066
0.0144178
-0.0276776
0.0144203
-0.0272971
0.0147159
-0.0270688
0.0152245
-0.0270005
0.0157053
-0.0270689
0.0159901
-0.0272672
0.0159968
-0.0276129
0.0156834
-0.0281455
0.0150213
-0.0289189
0.0139867
-0.0299955
0.0125758
-0.0314349
0.0108174
-0.0332351
0.00876279
-0.0352665
0.00653149
-0.0373125
0.00440407
-0.0389954
0.00262241
0.00188289
0.206851
0.0159116
0.205934
0.0186133
0.204918
0.0208379
0.203797
0.0230893
0.202567
0.0253931
0.201224
0.0277695
0.199752
0.0302546
0.198148
0.0328693
0.196409
0.0356317
0.194534
0.0385654
0.1925
0.0417232
0.190289
0.0451627
0.187886
0.0489167
0.185283
0.0530313
0.182458
0.0576105
0.179368
0.0627679
0.175991
0.068612
0.172285
0.0753332
0.168209
0.0831484
0.163744
0.0923387
0.158858
0.10333
0.15359
0.116596
0.148
0.132792
0.142207
0.15293
0.136902
0.177847
0.133716
0.207909
0.135212
0.241718
0.146963
0.274704
0.173734
0.292791
0.283855
0.32583
0.211893
0.0167192
0.211001
0.0195199
0.210013
0.0218341
0.208928
0.0241768
0.207744
0.0265723
0.206452
0.0290524
0.205042
0.0316493
0.203511
0.0343814
0.201856
0.0372644
0.200066
0.0403317
0.198116
0.0436482
0.196013
0.0472432
0.193751
0.0511587
0.191307
0.055459
0.188662
0.0602443
0.1858
0.0656222
0.18271
0.0716992
0.17936
0.0786839
0.175752
0.0867597
0.171902
0.0961932
0.167896
0.107344
0.163868
0.120636
0.159986
0.136689
0.156869
0.156063
0.155924
0.178809
0.159507
0.204344
0.171345
0.229894
0.197683
0.248376
0.239547
0.250931
0.247045
0.276357
0.217063
0.0175023
0.216203
0.0203952
0.215257
0.022789
0.214227
0.0252111
0.213104
0.0276923
0.211878
0.0302683
0.210544
0.0329687
0.209095
0.0358111
0.20753
0.0388057
0.20584
0.0419971
0.204017
0.0454452
0.202065
0.0491698
0.199974
0.0532275
0.197725
0.0576886
0.195316
0.0626384
0.192755
0.0681719
0.190024
0.0744242
0.187137
0.0815681
0.184134
0.0897617
0.181097
0.0992327
0.178191
0.110255
0.175617
0.123223
0.173832
0.138492
0.173853
0.15606
0.177283
0.175398
0.186402
0.195244
0.203871
0.21244
0.230391
0.221866
0.260089
0.221237
0.213336
0.293797
0.222367
0.0182511
0.22155
0.0212277
0.220659
0.0236898
0.219693
0.0261821
0.218638
0.0287466
0.217483
0.0314149
0.216227
0.0342101
0.214874
0.0371442
0.213427
0.0402293
0.21187
0.0435275
0.210202
0.0470858
0.208421
0.0509237
0.206525
0.0550974
0.204519
0.059673
0.202403
0.0647352
0.200188
0.0703731
0.197887
0.0767148
0.195567
0.0838813
0.193283
0.0920426
0.191192
0.101322
0.189513
0.111936
0.188569
0.124178
0.189033
0.138046
0.192007
0.153105
0.198896
0.168529
0.211288
0.182871
0.230075
0.193668
0.253706
0.198246
0.279493
0.195455
0.184482
0.308349
0.227808
0.0189566
0.22704
0.0220108
0.22621
0.0245304
0.225313
0.0270855
0.224332
0.0297282
0.223264
0.032477
0.222113
0.0353484
0.220883
0.0383541
0.219571
0.0415174
0.218163
0.0449077
0.216668
0.0485517
0.215091
0.0524717
0.213437
0.0567241
0.211713
0.0613722
0.209935
0.0664906
0.208123
0.0721674
0.206342
0.0784818
0.204659
0.0855537
0.203178
0.0935156
0.202113
0.102382
0.201718
0.112329
0.202438
0.123466
0.205002
0.135497
0.210371
0.147755
0.219511
0.159409
0.233156
0.169244
0.251123
0.175716
0.271781
0.177599
0.293187
0.174055
0.163306
0.314365
0.233378
0.0196194
0.23267
0.0227347
0.231913
0.025299
0.231095
0.0279104
0.230206
0.0306187
0.229246
0.033433
0.228217
0.0363675
0.227122
0.0394318
0.225957
0.0426594
0.224722
0.0461144
0.223431
0.0498128
0.222087
0.0537851
0.220701
0.0580807
0.219301
0.0627443
0.21791
0.0678566
0.216564
0.0734921
0.215348
0.0796794
0.214345
0.086543
0.213721
0.094129
0.213707
0.102388
0.214596
0.111436
0.216868
0.121197
0.221189
0.131186
0.22822
0.140739
0.238428
0.14922
0.25191
0.15578
0.268107
0.159534
0.285791
0.159926
0.303436
0.156416
0.146589
0.320157
0.239092
0.0202296
0.238457
0.0233868
0.237782
0.0259858
0.237056
0.0286441
0.236267
0.0314094
0.23542
0.0342776
0.234526
0.0372535
0.233587
0.0403568
0.232595
0.0436313
0.231559
0.0471241
0.23049
0.0508518
0.229402
0.0548415
0.228319
0.0591314
0.227279
0.0637541
0.226304
0.0688047
0.225455
0.0743159
0.224837
0.080277
0.224556
0.0868064
0.224805
0.0938654
0.225817
0.101364
0.227898
0.109349
0.2315
0.117596
0.237114
0.125578
0.245044
0.132818
0.255402
0.138874
0.268015
0.143181
0.282329
0.145233
0.297538
0.144727
0.312606
0.141355
0.132592
0.326605
0.244962
0.0207683
0.244404
0.0239623
0.243813
0.0265894
0.243184
0.0292814
0.242509
0.0320882
0.241797
0.0349872
0.241059
0.0379843
0.240289
0.0411151
0.239487
0.0444163
0.238668
0.0479198
0.237846
0.0516464
0.237045
0.0556117
0.236296
0.0598474
0.235632
0.0643866
0.235097
0.0693106
0.234775
0.0746106
0.234778
0.0802504
0.235235
0.0863299
0.23633
0.0927536
0.238284
0.0993969
0.241395
0.106229
0.246027
0.112962
0.252417
0.119192
0.260631
0.12461
0.270634
0.12888
0.2822
0.131624
0.29488
0.132563
0.308105
0.13151
0.321168
0.128298
0.120592
0.333171
0.250971
0.0212365
0.250503
0.0244492
0.250011
0.0270948
0.249492
0.0298092
0.248948
0.032636
0.248389
0.0355457
0.247815
0.0385527
0.247224
0.0416958
0.24663
0.0449944
0.246048
0.0484822
0.245497
0.0521729
0.245005
0.0560752
0.244604
0.0602177
0.244337
0.0646221
0.244269
0.0693485
0.244495
0.0743565
0.245117
0.0796031
0.246277
0.0851471
0.248154
0.0908584
0.25094
0.0965956
0.254882
0.102276
0.26018
0.107661
0.266893
0.112479
0.275019
0.116488
0.284482
0.119421
0.295037
0.121076
0.306325
0.121281
0.317951
0.11989
0.329392
0.116862
0.110105
0.339882
0.257134
0.0216243
0.256767
0.0248351
0.256384
0.0274928
0.255986
0.030217
0.255587
0.03304
0.255188
0.0359455
0.254787
0.0389496
0.254396
0.0420777
0.254029
0.0453473
0.253698
0.048795
0.253436
0.0524133
0.253267
0.0562186
0.253228
0.0602291
0.253377
0.064444
0.253791
0.0689056
0.254554
0.0735652
0.255761
0.0783689
0.257582
0.0833027
0.260166
0.0882545
0.263637
0.0931081
0.268143
0.0977581
0.273769
0.102027
0.280533
0.105712
0.288403
0.108618
0.297264
0.110563
0.3069
0.111443
0.317039
0.111145
0.327369
0.109564
0.337494
0.106741
0.100796
0.346804
0.263458
0.0219179
0.263194
0.0251191
0.26293
0.0277721
0.262672
0.0304861
0.262425
0.0332938
0.262195
0.0361769
0.261989
0.0391538
0.261812
0.0422471
0.261682
0.0454653
0.261618
0.048843
0.261648
0.0523639
0.261816
0.0560278
0.262158
0.0598619
0.262723
0.063853
0.263608
0.0679942
0.264893
0.0722535
0.266676
0.0765603
0.269098
0.0808578
0.272249
0.0850827
0.276199
0.0891403
0.281028
0.0929142
0.286786
0.0962595
0.293464
0.0990278
0.301001
0.101078
0.309259
0.102304
0.318078
0.102625
0.327264
0.101961
0.336531
0.100299
0.345582
0.0976924
0.0924339
0.353944
0.26994
0.022109
0.269788
0.0252919
0.269657
0.0279202
0.269549
0.0306062
0.269462
0.0333886
0.269414
0.0362293
0.269414
0.0391527
0.269464
0.0421925
0.26958
0.0453392
0.26979
0.0486196
0.270127
0.05201
0.270641
0.0554937
0.271365
0.0591157
0.272353
0.0628418
0.273702
0.0666208
0.275497
0.0704359
0.277807
0.0742268
0.280705
0.0779389
0.284251
0.0815167
0.288506
0.0848678
0.293516
0.0878884
0.299294
0.090469
0.305811
0.0925027
0.312981
0.0939027
0.320685
0.0945972
0.328802
0.0945055
0.337168
0.0935951
0.34555
0.0919173
0.353725
0.0895171
0.084845
0.361313
0.276583
0.0221922
0.276563
0.0253335
0.276567
0.0279345
0.276608
0.0305786
0.276703
0.0333034
0.276851
0.0360867
0.277062
0.0389434
0.277344
0.0419076
0.277714
0.0449622
0.278215
0.0481077
0.278878
0.0513334
0.27973
0.0546244
0.280836
0.0579905
0.282261
0.0613973
0.284059
0.0648015
0.286295
0.06818
0.289014
0.0714883
0.292263
0.0746712
0.296096
0.0776661
0.300552
0.0803964
0.305647
0.0827774
0.311374
0.0847297
0.317676
0.0861902
0.324474
0.087098
0.331691
0.0873749
0.339218
0.0869758
0.346884
0.0859272
0.354518
0.0842819
0.361968
0.0820666
0.077898
0.368912
0.283388
0.0221627
0.283505
0.0252395
0.283661
0.0277977
0.283869
0.030386
0.284148
0.0330358
0.284497
0.0357444
0.284927
0.0385175
0.285456
0.0413787
0.286098
0.0443163
0.286892
0.0473059
0.287879
0.0503355
0.289091
0.0533996
0.290583
0.0564828
0.292403
0.0595603
0.294585
0.0626025
0.297173
0.0655753
0.300209
0.068435
0.303734
0.0711308
0.307779
0.0736072
0.312359
0.0758023
0.317475
0.0776484
0.323091
0.0790996
0.329155
0.0801159
0.335622
0.0806239
0.342418
0.0805733
0.349415
0.0799747
0.356479
0.0788601
0.363491
0.0772678
0.370335
0.075221
0.0714891
0.376742
0.290369
0.0220073
0.29062
0.0250118
0.290939
0.0274993
0.291328
0.030014
0.291797
0.03258
0.292357
0.0351936
0.293017
0.0378637
0.293798
0.0406011
0.294725
0.0433878
0.295829
0.0461977
0.297146
0.049012
0.29871
0.0518264
0.300551
0.0546305
0.302702
0.0573961
0.3052
0.0600908
0.308082
0.0626803
0.311378
0.0651253
0.315115
0.0673814
0.319309
0.0694023
0.32396
0.0711402
0.329042
0.0725539
0.334519
0.0736119
0.340367
0.0742584
0.346541
0.0744424
0.352944
0.0741647
0.359471
0.0734439
0.366025
0.0723026
0.372515
0.0707762
0.37885
0.0688845
0.0655354
0.384801
0.297516
0.0217253
0.297917
0.0246353
0.298405
0.0270331
0.298985
0.0294529
0.299659
0.0319202
0.30044
0.0344248
0.301344
0.0369685
0.30239
0.0395604
0.303608
0.0421726
0.305023
0.0447818
0.306653
0.0473794
0.308522
0.0499517
0.310663
0.0524818
0.313107
0.0549438
0.315881
0.0573074
0.319012
0.0595407
0.322519
0.0616086
0.326418
0.0634736
0.330715
0.0650973
0.335389
0.0664584
0.340404
0.06753
0.34575
0.0682563
0.351405
0.0685961
0.357295
0.0685458
0.363339
0.0681163
0.36946
0.0673199
0.375581
0.0661795
0.381629
0.0647271
0.387534
0.0629794
0.0599693
0.393098
0.304841
0.0213078
0.305403
0.0241002
0.30607
0.0263894
0.30685
0.0286929
0.307745
0.0310423
0.308761
0.0334228
0.309915
0.035826
0.311232
0.0382522
0.31273
0.0406803
0.314424
0.0430909
0.316335
0.0454692
0.318486
0.0477994
0.320903
0.0500625
0.323608
0.0522346
0.326622
0.0542886
0.329961
0.0561961
0.333637
0.057927
0.337656
0.0594503
0.342014
0.0607353
0.346684
0.0617835
0.351637
0.0625703
0.356864
0.0630236
0.362322
0.0631326
0.367947
0.0629175
0.373677
0.0623843
0.379448
0.0615471
0.385199
0.0604278
0.390872
0.0590546
0.39641
0.0574418
0.0547348
0.401644
0.312354
0.020742
0.313092
0.0233898
0.313954
0.0255524
0.314939
0.0277292
0.316057
0.0299441
0.317311
0.0321849
0.318714
0.0344377
0.320285
0.0366918
0.322044
0.0389312
0.324003
0.0411386
0.32618
0.0432971
0.328593
0.0453893
0.331261
0.0473963
0.334199
0.0492962
0.337422
0.0510654
0.340938
0.0526794
0.344751
0.0541135
0.348857
0.0553432
0.353246
0.0563464
0.357901
0.0571271
0.362798
0.0576708
0.367902
0.0579167
0.373173
0.0578592
0.378563
0.0575268
0.38402
0.0569276
0.389491
0.0560763
0.394928
0.0549933
0.400282
0.0537031
0.405508
0.0522178
0.0497844
0.41046
0.320064
0.020009
0.320994
0.0224887
0.322057
0.0245154
0.32325
0.0265598
0.324584
0.0286317
0.326068
0.0307201
0.327712
0.0328097
0.329533
0.0348859
0.331543
0.0369337
0.333755
0.0389367
0.336183
0.040878
0.338839
0.0427401
0.341737
0.0445048
0.344885
0.0461526
0.348291
0.0476632
0.351958
0.0490161
0.355884
0.0501916
0.360059
0.0511713
0.36447
0.0519396
0.3691
0.0524999
0.373927
0.0528442
0.378915
0.0529297
0.384022
0.0527539
0.389208
0.0523432
0.394431
0.0517083
0.399647
0.0508639
0.404815
0.0498288
0.409899
0.0486243
0.414861
0.0472608
0.0450767
0.419573
0.327974
0.019091
0.329096
0.0213966
0.33036
0.0232799
0.331764
0.0251807
0.333318
0.0271013
0.335031
0.0290286
0.336913
0.030947
0.338975
0.0328413
0.341228
0.0346965
0.343682
0.0364971
0.346346
0.0382267
0.349228
0.0398689
0.352337
0.0414069
0.355675
0.0428234
0.359245
0.0441015
0.363045
0.0452245
0.367067
0.0461772
0.3713
0.046946
0.375727
0.0475203
0.380332
0.0479022
0.385092
0.048089
0.389973
0.0480537
0.394936
0.0477958