/*--------------------------------*- C++ -*----------------------------------*\
| =========                 |                                                 |
| \\      /  F ield         | OpenFOAM: The Open Source CFD Toolbox           |
|  \\    /   O peration     | Version:  dev                                   |
|   \\  /    A nd           | Web:      www.OpenFOAM.org                      |
|    \\/     M anipulation  |                                                 |
\*---------------------------------------------------------------------------*/
FoamFile
{
    version     2.0;
    format      ascii;
    class       volVectorField;
    location    "3.51";
    object      cellDisplacement;
}
// * * * * * * * * * * * * * * * * * * * * * * * * * * * * * * * * * * * * * //

dimensions      [0 1 0 0 0 0 0];

internalField   nonuniform List<vector> 
2790
(
(0.00202373 0 7.03827e-07)
(0.00581832 0 2.07125e-06)
(0.0091384 0 3.40207e-06)
(0.0120173 0 4.76965e-06)
(0.014488 0 6.2365e-06)
(0.016581 0 7.85917e-06)
(0.0183243 0 9.69229e-06)
(0.0197427 0 1.17916e-05)
(0.0208587 0 1.42163e-05)
(0.0216917 0 1.70314e-05)
(0.022259 0 2.03098e-05)
(0.0225755 0 2.41336e-05)
(0.0226539 0 2.85968e-05)
(0.0225053 0 3.38066e-05)
(0.0221394 0 3.98857e-05)
(0.0215649 0 4.69747e-05)
(0.0207898 0 5.52347e-05)
(0.0198224 0 6.48511e-05)
(0.0186715 0 7.60386e-05)
(0.0173478 0 8.90486e-05)
(0.0158644 0 0.00010418)
(0.0142385 0 0.000121792)
(0.0124921 0 0.000142325)
(0.0106541 0 0.000166318)
(0.00876286 0 0.000194418)
(0.00686885 0 0.000227351)
(0.00504 0 0.000265785)
(0.00337107 0 0.000309864)
(0.00200368 0 0.000357654)
(0.00118498 0 0.000399656)
(0.00202599 0 2.10152e-06)
(0.00582505 0 6.18434e-06)
(0.00914956 0 1.01574e-05)
(0.0120331 0 1.42394e-05)
(0.0145088 0 1.86164e-05)
(0.0166075 0 2.34569e-05)
(0.0183572 0 2.89231e-05)
(0.0197831 0 3.51805e-05)
(0.0209076 0 4.24048e-05)
(0.0217506 0 5.07886e-05)
(0.0223296 0 6.0547e-05)
(0.0226597 0 7.19231e-05)
(0.0227539 0 8.51935e-05)
(0.0226238 0 0.000100674)
(0.0222794 0 0.000118724)
(0.0217297 0 0.000139756)
(0.0209832 0 0.000164239)
(0.0200487 0 0.00019271)
(0.0189355 0 0.000225785)
(0.0176547 0 0.000264178)
(0.0162201 0 0.000308724)
(0.0146494 0 0.000360413)
(0.0129656 0 0.000420424)
(0.0111987 0 0.000490156)
(0.00938863 0 0.000571203)
(0.00758825 0 0.000665183)
(0.00586876 0 0.000773167)
(0.00432883 0 0.000894035)
(0.00311132 0 0.00101987)
(0.0024403 0 0.00112258)
(0.0020305 0 3.46958e-06)
(0.00583843 0 1.02098e-05)
(0.00917178 0 1.67672e-05)
(0.0120645 0 2.35013e-05)
(0.0145504 0 3.07181e-05)
(0.0166603 0 3.86935e-05)
(0.0184228 0 4.76932e-05)
(0.0198634 0 5.79871e-05)
(0.0210049 0 6.98614e-05)
(0.0218678 0 8.36287e-05)
(0.0224699 0 9.96371e-05)
(0.0228268 0 0.000118279)
(0.0229524 0 0.00014)
(0.0228587 0 0.000165305)
(0.0225566 0 0.000194769)
(0.0220557 0 0.000229044)
(0.0213657 0 0.000268866)
(0.0204959 0 0.000315069)
(0.0194568 0 0.000368592)
(0.0182604 0 0.000430499)
(0.0169213 0 0.000501995)
(0.0154585 0 0.000584449)
(0.0138962 0 0.000679408)
(0.0122661 0 0.000788564)
(0.0106102 0 0.000913615)
(0.00898382 0 0.00105581)
(0.00746027 0 0.00121484)
(0.00613702 0 0.00138607)
(0.00514354 0 0.00155438)
(0.00465498 0 0.00168003)
(0.0020372 0 4.78871e-06)
(0.00585829 0 1.40905e-05)
(0.00920474 0 2.31362e-05)
(0.0121112 0 3.24194e-05)
(0.0146119 0 4.2359e-05)
(0.0167385 0 5.33321e-05)
(0.0185199 0 6.57004e-05)
(0.0199822 0 7.98299e-05)
(0.0211489 0 9.61071e-05)
(0.022041 0 0.000114952)
(0.0226771 0 0.000136832)
(0.0230736 0 0.000162269)
(0.0232452 0 0.000191855)
(0.023205 0 0.000226255)
(0.0229648 0 0.000266222)
(0.0225356 0 0.000312601)
(0.0219281 0 0.000366334)
(0.0211529 0 0.000428466)
(0.0202218 0 0.000500145)
(0.019148 0 0.000582623)
(0.0179475 0 0.000677243)
(0.0166403 0 0.000785417)
(0.0152517 0 0.000908572)
(0.0138148 0 0.00104801)
(0.0123724 0 0.00120458)
(0.0109804 0 0.00137799)
(0.00971027 0 0.00156528)
(0.00865155 0 0.00175787)
(0.0079114 0 0.00193588)
(0.00761214 0 0.00205811)
(0.00204599 0 6.04024e-06)
(0.00588437 0 1.7771e-05)
(0.00924797 0 2.91726e-05)
(0.0121724 0 4.08625e-05)
(0.0146926 0 5.33639e-05)
(0.0168409 0 6.71459e-05)
(0.018647 0 8.26563e-05)
(0.0201376 0 0.000100346)
(0.0213371 0 0.000120688)
(0.0222672 0 0.000144194)
(0.0229474 0 0.000171429)
(0.0233952 0 0.000203023)
(0.0236263 0 0.00023968)
(0.0236552 0 0.000282191)
(0.0234949 0 0.000331438)
(0.023158 0 0.0003884)
(0.0226566 0 0.000454148)
(0.022003 0 0.000529841)
(0.0212102 0 0.000616706)
(0.0202931 0 0.000716003)
(0.0192687 0 0.000828972)
(0.0181579 0 0.000956738)
(0.0169866 0 0.00110016)
(0.0157875 0 0.00125956)
(0.0146024 0 0.00143425)
(0.013484 0 0.0016217)
(0.0124972 0 0.00181612)
(0.0117182 0 0.002006)
(0.0112279 0 0.00217047)
(0.0111008 0 0.00227417)
(0.00205676 0 7.2066e-06)
(0.00591627 0 2.11995e-05)
(0.00930085 0 3.47899e-05)
(0.0122471 0 4.87075e-05)
(0.0147911 0 6.35688e-05)
(0.0169659 0 7.99235e-05)
(0.018802 0 9.82934e-05)
(0.0203271 0 0.0001192)
(0.0215662 0 0.000143187)
(0.0225422 0 0.000170839)
(0.0232756 0 0.000202793)
(0.0237851 0 0.000239757)
(0.0240879 0 0.000282516)
(0.0241996 0 0.000331938)
(0.0241351 0 0.000388985)
(0.0239084 0 0.0004547)
(0.0235335 0 0.000530205)
(0.0230243 0 0.000616673)
(0.0223957 0 0.000715281)
(0.0216636 0 0.000827144)
(0.0208463 0 0.000953202)
(0.0199649 0 0.00109404)
(0.0190446 0 0.00124966)
(0.018116 0 0.00141905)
(0.0172168 0 0.00159972)
(0.0163928 0 0.00178684)
(0.0156975 0 0.00197224)
(0.0151898 0 0.00214311)
(0.014925 0 0.00228065)
(0.0149394 0 0.00235922)
(0.00206934 0 8.2717e-06)
(0.00595354 0 2.43282e-05)
(0.00936257 0 3.99092e-05)
(0.0123344 0 5.58427e-05)
(0.0149059 0 7.28252e-05)
(0.0171115 0 9.14745e-05)
(0.0189824 0 0.000112372)
(0.0205472 0 0.000136095)
(0.0218322 0 0.000163239)
(0.022861 0 0.000194437)
(0.0236556 0 0.000230376)
(0.0242358 0 0.000271807)
(0.0246203 0 0.000319556)
(0.0248264 0 0.000374525)
(0.0248707 0 0.000437696)
(0.0247689 0 0.000510115)
(0.0245369 0 0.000592874)
(0.0241906 0 0.000687069)
(0.0237464 0 0.000793729)
(0.0232215 0 0.000913711)
(0.0226349 0 0.00104753)
(0.0220073 0 0.00119514)
(0.021362 0 0.00135556)
(0.0207255 0 0.00152649)
(0.0201285 0 0.00170369)
(0.0196057 0 0.00188043)
(0.0191959 0 0.002047)
(0.0189381 0 0.00219056)
(0.0188646 0 0.00229607)
(0.0189861 0 0.0023485)
(0.00208356 0 9.22126e-06)
(0.00599562 0 2.71151e-05)
(0.00943221 0 4.44612e-05)
(0.0124327 0 6.21699e-05)
(0.0150353 0 8.10039e-05)
(0.0172753 0 0.000101634)
(0.0191851 0 0.000124688)
(0.0207944 0 0.000150779)
(0.0221303 0 0.000180536)
(0.0232178 0 0.000214619)
(0.02408 0 0.000253733)
(0.0247383 0 0.000298642)
(0.0252126 0 0.000350173)
(0.0255222 0 0.000409215)
(0.0256851 0 0.000476715)
(0.0257193 0 0.000553661)
(0.0256424 0 0.000641047)
(0.0254721 0 0.000739821)
(0.0252264 0 0.000850792)
(0.0249239 0 0.000974505)
(0.0245837 0 0.00111104)
(0.0242256 0 0.00125971)
(0.0238701 0 0.00141875)
(0.023538 0 0.00158478)
(0.0232504 0 0.00175234)
(0.0230284 0 0.00191345)
(0.0228922 0 0.00205767)
(0.0228597 0 0.00217297)
(0.0229432 0 0.00224822)
(0.0231402 0 0.00227783)
(0.00209918 0 1.00431e-05)
(0.00604185 0 2.95244e-05)
(0.00950869 0 4.83869e-05)
(0.0125406 0 6.76068e-05)
(0.0151772 0 8.79972e-05)
(0.0174548 0 0.000110268)
(0.019407 0 0.000135075)
(0.0210645 0 0.000163052)
(0.0224555 0 0.000194841)
(0.0236062 0 0.000231103)
(0.024541 0 0.000272537)
(0.0252827 0 0.000319885)
(0.0258528 0 0.000373937)
(0.026272 0 0.000435526)
(0.0265604 0 0.000505515)
(0.0267375 0 0.000584778)
(0.026823 0 0.000674156)
(0.0268363 0 0.000774396)
(0.0267969 0 0.000886056)
(0.0267245 0 0.00100936)
(0.0266382 0 0.001144)
(0.0265569 0 0.00128885)
(0.0264975 0 0.00144162)
(0.0264744 0 0.00159838)
(0.026498 0 0.00175317)
(0.0265738 0 0.00189763)
(0.0267016 0 0.00202138)
(0.0268765 0 0.00211343)
(0.0270916 0 0.00216571)
(0.0273406 0 0.0021792)
(0.00211598 0 1.07275e-05)
(0.00609153 0 3.15273e-05)
(0.00959083 0 5.16395e-05)
(0.0126564 0 7.20885e-05)
(0.0153293 0 9.37219e-05)
(0.0176471 0 0.000117273)
(0.0196443 0 0.00014341)
(0.0213528 0 0.000172771)
(0.022802 0 0.000205987)
(0.0240193 0 0.000243703)
(0.0250301 0 0.000286582)
(0.0258586 0 0.000335316)
(0.0265279 0 0.000390623)
(0.0270603 0 0.000453238)
(0.0274773 0 0.0005239)
(0.0278004 0 0.000603325)
(0.0280507 0 0.000692158)
(0.0282494 0 0.000790913)
(0.0284174 0 0.000899881)
(0.0285751 0 0.001019)
(0.0287422 0 0.00114769)
(0.028936 0 0.00128458)
(0.0291707 0 0.00142727)
(0.0294545 0 0.00157194)
(0.0297878 0 0.00171295)
(0.0301606 0 0.00184264)
(0.0305514 0 0.00195147)
(0.0309305 0 0.00202942)
(0.0312699 0 0.0020696)
(0.0315615 0 0.00207535)
(0.00213368 0 1.1267e-05)
(0.00614389 0 3.31023e-05)
(0.00967736 0 5.41847e-05)
(0.0127784 0 7.55684e-05)
(0.0154894 0 9.81197e-05)
(0.0178491 0 0.00012258)
(0.0198933 0 0.000149614)
(0.0216548 0 0.000179847)
(0.0231642 0 0.000213885)
(0.0244498 0 0.000252329)
(0.0255384 0 0.000295788)
(0.0264553 0 0.000344875)
(0.027225 0 0.000400205)
(0.0278711 0 0.000462387)
(0.0284166 0 0.000532001)
(0.0288845 0 0.000609567)
(0.0292973 0 0.000695506)
(0.0296775 0 0.00079008)
(0.0300472 0 0.000893313)
(0.0304278 0 0.0010049)
(0.0308388 0 0.00112407)
(0.0312974 0 0.00124947)
(0.0318152 0 0.00137893)
(0.0323965 0 0.00150935)
(0.0330341 0 0.00163635)
(0.0337055 0 0.00175403)
(0.03437 0 0.00185479)
(0.0349715 0 0.00192964)
(0.0354537 0 0.00197062)
(0.0357968 0 0.00197789)
(0.00215202 0 1.16568e-05)
(0.00619813 0 3.42356e-05)
(0.00976694 0 5.6001e-05)
(0.0129046 0 7.80189e-05)
(0.0156548 0 0.000101158)
(0.0180577 0 0.000126154)
(0.02015 0 0.000153653)
(0.0219656 0 0.000184253)
(0.023536 0 0.000218516)
(0.0248905 0 0.000256985)
(0.0260571 0 0.000300192)
(0.0270621 0 0.00034865)
(0.0279311 0 0.000402851)
(0.0286888 0 0.00046325)
(0.0293594 0 0.000530242)
(0.029967 0 0.000604131)
(0.0305353 0 0.000685094)
(0.0310877 0 0.000773126)
(0.0316472 0 0.000867991)
(0.0322357 0 0.000969161)
(0.0328731 0 0.00107576)
(0.0335762 0 0.00118651)
(0.0343562 0 0.00129977)
(0.0352157 0 0.00141351)
(0.0361444 0 0.00152529)
(0.0371136 0 0.00163213)
(0.0380702 0 0.00172983)
(0.0389345 0 0.00181162)
(0.0396115 0 0.00186706)
(0.0400421 0 0.0018862)
(0.00217072 0 1.18946e-05)
(0.00625339 0 3.49208e-05)
(0.00985822 0 5.70796e-05)
(0.0130331 0 7.94306e-05)
(0.0158232 0 0.00010283)
(0.0182698 0 0.000127993)
(0.0204105 0 0.000155536)
(0.0222803 0 0.000186013)
(0.0239115 0 0.000219932)
(0.0253344 0 0.000257763)
(0.0265777 0 0.000299943)
(0.0276686 0 0.000346871)
(0.0286337 0 0.0003989)
(0.0294983 0 0.000456313)
(0.0302877 0 0.000519308)
(0.0310266 0 0.000587961)
(0.0317393 0 0.000662192)
(0.0324497 0 0.000741729)
(0.0331812 0 0.00082607)
(0.0339558 0 0.000914464)
(0.0347935 0 0.00100591)
(0.0357113 0 0.00109923)
(0.0367206 0 0.0011932)
(0.037825 0 0.00128686)
(0.0390161 0 0.00137981)
(0.0402677 0 0.00147256)
(0.0415271 0 0.00156608)
(0.0427042 0 0.00165911)
(0.0436642 0 0.00174122)
(0.0442623 0 0.00178536)
(0.00218947 0 1.19807e-05)
(0.00630885 0 3.51586e-05)
(0.00994981 0 5.74244e-05)
(0.013162 0 7.98121e-05)
(0.015992 0 0.000103152)
(0.0184821 0 0.000128127)
(0.0206709 0 0.000155311)
(0.0225942 0 0.000185205)
(0.0242851 0 0.00021825)
(0.0257745 0 0.000254832)
(0.0270918 0 0.000295286)
(0.028265 0 0.000339886)
(0.029321 0 0.000388835)
(0.0302859 0 0.000442242)
(0.0311852 0 0.0005001)
(0.0320438 0 0.000562256)
(0.0328863 0 0.000628378)
(0.0337365 0 0.000697928)
(0.0346172 0 0.000770136)
(0.0355502 0 0.000844005)
(0.0365549 0 0.000918352)
(0.0376478 0 0.000991909)
(0.038841 0 0.00106359)
(0.0401396 0 0.00113288)
(0.04154 0 0.00120051)
(0.0430254 0 0.00126952)
(0.0445579 0 0.00134622)
(0.0460641 0 0.00143952)
(0.0474004 0 0.00155089)
(0.0483076 0 0.00163997)
(0.002208 0 1.19178e-05)
(0.00636365 0 3.49561e-05)
(0.0100403 0 5.70506e-05)
(0.0132894 0 7.9189e-05)
(0.0161587 0 0.000102164)
(0.0186916 0 0.000126614)
(0.0209275 0 0.000153064)
(0.0229028 0 0.000181951)
(0.0246512 0 0.000213642)
(0.0262043 0 0.000248434)
(0.0275918 0 0.000286553)
(0.0288422 0 0.000328145)
(0.0299825 0 0.000373263)
(0.0310391 0 0.000421843)
(0.0320373 0 0.000473682)
(0.0330019 0 0.000528409)
(0.0339569 0 0.000585456)
(0.0349254 0 0.00064403)
(0.0359291 0 0.000703106)
(0.0369884 0 0.000761423)
(0.0381212 0 0.000817536)
(0.0393425 0 0.000869901)
(0.0406629 0 0.000917092)
(0.0420879 0 0.000958113)
(0.0436162 0 0.000992939)
(0.0452377 0 0.00102359)
(0.0469313 0 0.00105637)
(0.0486562 0 0.00110703)
(0.0503212 0 0.0012073)
(0.0516746 0 0.00136084)
(0.00124608 0 -0.000458711)
(0.00219124 0 -0.000436083)
(0.003776 0 -0.000402597)
(0.00574331 0 -0.000368135)
(0.00791529 0 -0.000335582)
(0.0101649 0 -0.000305669)
(0.0123991 0 -0.000278399)
(0.0145497 0 -0.000253556)
(0.0165672 0 -0.000230895)
(0.0184163 0 -0.000210197)
(0.0200722 0 -0.000191277)
(0.021519 0 -0.000173986)
(0.0227459 0 -0.00015819)
(0.0237459 0 -0.000143764)
(0.0245137 0 -0.000130584)
(0.0250449 0 -0.000118532)
(0.0253349 0 -0.000107486)
(0.0253781 0 -9.73326e-05)
(0.0251677 0 -8.79566e-05)
(0.024695 0 -7.92481e-05)
(0.0239496 0 -7.10995e-05)
(0.0229187 0 -6.34052e-05)
(0.0215875 0 -5.606e-05)
(0.0199387 0 -4.89574e-05)
(0.0179529 0 -4.19865e-05)
(0.0156083 0 -3.50289e-05)
(0.0128812 0 -2.79541e-05)
(0.009746 0 -2.06144e-05)
(0.0061757 0 -1.28372e-05)
(0.00214084 0 -4.41157e-06)
(0.00246548 0 -0.00131847)
(0.00331786 0 -0.00126271)
(0.00478409 0 -0.0011749)
(0.00663572 0 -0.00108062)
(0.00870098 0 -0.000989222)
(0.0108537 0 -0.000903815)
(0.0130004 0 -0.000825053)
(0.0150722 0 -0.000752711)
(0.017019 0 -0.000686329)
(0.018805 0 -0.000625441)
(0.0204052 0 -0.000569609)
(0.0218029 0 -0.000518465)
(0.022987 0 -0.000471665)
(0.0239499 0 -0.000428864)
(0.0246858 0 -0.000389719)
(0.0251897 0 -0.000353887)
(0.0254564 0 -0.000321024)
(0.0254798 0 -0.000290791)
(0.0252526 0 -0.000262854)
(0.0247657 0 -0.000236889)
(0.0240083 0 -0.00021258)
(0.0229672 0 -0.000189613)
(0.0216274 0 -0.000167677)
(0.0199712 0 -0.000146455)
(0.017979 0 -0.000125618)
(0.0156289 0 -0.000104813)
(0.0128969 0 -8.36517e-05)
(0.00975717 0 -6.16921e-05)
(0.0061825 0 -3.84193e-05)
(0.00214314 0 -1.32033e-05)
(0.00462833 0 -0.00204837)
(0.00538372 0 -0.00198138)
(0.00667776 0 -0.00186424)
(0.008337 0 -0.00173043)
(0.0102128 0 -0.00159535)
(0.0121872 0 -0.00146549)
(0.0141694 0 -0.00134327)
(0.0160909 0 -0.00122933)
(0.0179017 0 -0.00112363)
(0.0195657 0 -0.00102589)
(0.0210574 0 -0.000935757)
(0.0223594 0 -0.000852833)
(0.0234599 0 -0.000776703)
(0.0243503 0 -0.000706901)
(0.0250236 0 -0.000642928)
(0.0254739 0 -0.000584261)
(0.0256948 0 -0.00053037)
(0.0256793 0 -0.000480718)
(0.0254191 0 -0.000434776)
(0.0249043 0 -0.000392024)
(0.0241232 0 -0.000351951)
(0.0230622 0 -0.000314049)
(0.0217053 0 -0.000277813)
(0.0200346 0 -0.000242724)
(0.01803 0 -0.000208243)
(0.0156691 0 -0.000173791)
(0.0129275 0 -0.000138727)
(0.0097789 0 -0.000102323)
(0.00619573 0 -6.37286e-05)
(0.00214765 0 -2.19022e-05)
(0.00753326 0 -0.00264224)
(0.00818916 0 -0.00257544)
(0.00928999 0 -0.00244906)
(0.0107167 0 -0.00229613)
(0.0123505 0 -0.00213477)
(0.0140881 0 -0.00197428)
(0.0158456 0 -0.00181923)
(0.0175581 0 -0.00167181)
(0.0191771 0 -0.00153303)
(0.0206675 0 -0.00140335)
(0.0220039 0 -0.0012828)
(0.0231684 0 -0.00117124)
(0.0241484 0 -0.00106836)
(0.0249339 0 -0.000973692)
(0.0255167 0 -0.00088667)
(0.0258892 0 -0.00080666)
(0.0260436 0 -0.00073299)
(0.0259716 0 -0.000664972)
(0.0256633 0 -0.000601911)
(0.0251077 0 -0.000543121)
(0.024292 0 -0.000487918)
(0.0232016 0 -0.000435624)
(0.0218198 0 -0.000385553)
(0.0201279 0 -0.000337004)
(0.018105 0 -0.000289237)
(0.0157282 0 -0.00024146)
(0.0129724 0 -0.000192792)
(0.00981087 0 -0.000142228)
(0.00621519 0 -8.85943e-05)
(0.00215428 0 -3.04501e-05)
(0.0109765 0 -0.00311083)
(0.0115375 0 -0.00304983)
(0.0124462 0 -0.00292749)
(0.0136285 0 -0.00277145)
(0.0149949 0 -0.00259915)
(0.0164601 0 -0.00242123)
(0.0179511 0 -0.00224419)
(0.01941 0 -0.00207202)
(0.0207931 0 -0.00190722)
(0.0220677 0 -0.00175129)
(0.0232097 0 -0.00160503)
(0.0242013 0 -0.00146874)
(0.025029 0 -0.00134237)
(0.0256818 0 -0.00122558)
(0.0261497 0 -0.00111782)
(0.0264233 0 -0.00101842)
(0.026493 0 -0.000926612)
(0.0263486 0 -0.000841616)
(0.0259787 0 -0.000762612)
(0.0253708 0 -0.000688779)
(0.0245106 0 -0.000619295)
(0.0233824 0 -0.000553334)
(0.0219685 0 -0.000490054)
(0.0202491 0 -0.000428588)
(0.0182025 0 -0.000368018)
(0.015805 0 -0.000307352)
(0.0130309 0 -0.000245483)
(0.00985242 0 -0.000181146)
(0.00624047 0 -0.000112856)
(0.00216288 0 -3.87926e-05)
(0.0147808 0 -0.00347175)
(0.015256 0 -0.00341959)
(0.0159874 0 -0.0033093)
(0.0169322 0 -0.00316083)
(0.0180254 0 -0.0029888)
(0.0192005 0 -0.00280395)
(0.020399 0 -0.0026142)
(0.0215738 0 -0.0024253)
(0.0226885 0 -0.00224133)
(0.0237152 0 -0.00206506)
(0.0246324 0 -0.00189813)
(0.025423 0 -0.00174143)
(0.0260733 0 -0.00159529)
(0.0265707 0 -0.00145955)
(0.0269037 0 -0.00133375)
(0.0270609 0 -0.00121725)
(0.0270306 0 -0.00110927)
(0.0268005 0 -0.00100896)
(0.0263574 0 -0.00091543)
(0.0256871 0 -0.000827759)
(0.0247739 0 -0.000745022)
(0.0236005 0 -0.000666276)
(0.0221479 0 -0.000590551)
(0.0203954 0 -0.000516837)
(0.0183203 0 -0.000444057)
(0.0158979 0 -0.000371038)
(0.0131016 0 -0.000296466)
(0.00990268 0 -0.000218834)
(0.00627105 0 -0.000136365)
(0.00217329 0 -4.68789e-05)
(0.0188026 0 -0.00374523)
(0.0192058 0 -0.00370409)
(0.0197819 0 -0.00361005)
(0.0205053 0 -0.00347487)
(0.0213303 0 -0.00330964)
(0.0222092 0 -0.00312467)
(0.023101 0 -0.00292894)
(0.0239723 0 -0.00272978)
(0.0247969 0 -0.00253272)
(0.0255537 0 -0.00234166)
(0.0262247 0 -0.00215908)
(0.0267944 0 -0.00198646)
(0.0272487 0 -0.00182448)
(0.0275741 0 -0.00167322)
(0.0277572 0 -0.00153236)
(0.0277844 0 -0.00140132)
(0.0276421 0 -0.00127935)
(0.0273158 0 -0.0011656)
(0.0267903 0 -0.00105913)
(0.0260494 0 -0.000958994)
(0.0250759 0 -0.000864179)
(0.023851 0 -0.00077366)
(0.0223543 0 -0.00068637)
(0.0205639 0 -0.000601179)
(0.0184561 0 -0.000516877)
(0.016005 0 -0.00043213)
(0.0131831 0 -0.00034544)
(0.00996064 0 -0.000255074)
(0.00630631 0 -0.000158987)
(0.00218528 0 -5.46628e-05)
(0.0229395 0 -0.00395431)
(0.0232862 0 -0.00392499)
(0.0237293 0 -0.00384772)
(0.0242479 0 -0.00372671)
(0.0248115 0 -0.0035701)
(0.0253928 0 -0.00338797)
(0.0259703 0 -0.00319025)
(0.0265274 0 -0.0029855)
(0.0270497 0 -0.00278033)
(0.027524 0 -0.00257949)
(0.0279364 0 -0.00238606)
(0.0282732 0 -0.00220195)
(0.0285203 0 -0.00202812)
(0.0286631 0 -0.00186488)
(0.0286864 0 -0.00171206)
(0.0285747 0 -0.00156918)
(0.028312 0 -0.00143557)
(0.0278818 0 -0.00131038)
(0.027267 0 -0.00119272)
(0.0264494 0 -0.0010816)
(0.0254101 0 -0.000975988)
(0.0241286 0 -0.000874811)
(0.0225834 0 -0.000776927)
(0.0207512 0 -0.000681117)
(0.0186071 0 -0.00058606)
(0.0161242 0 -0.000490288)
(0.0132738 0 -0.000392134)
(0.0100252 0 -0.000289668)
(0.00634554 0 -0.0001806)
(0.00219862 0 -6.21026e-05)
(0.027129 0 -0.00412286)
(0.0274329 0 -0.00410377)
(0.0277579 0 -0.00403963)
(0.0280795 0 -0.00392894)
(0.0283828 0 -0.00377846)
(0.0286636 0 -0.00359874)
(0.0289228 0 -0.00340062)
(0.0291614 0 -0.00319339)
(0.0293777 0 -0.00298415)
(0.0295658 0 -0.00277798)
(0.029716 0 -0.00257819)
(0.0298161 0 -0.00238684)
(0.029852 0 -0.00220511)
(0.0298079 0 -0.00203344)
(0.0296669 0 -0.00187181)
(0.0294116 0 -0.00171985)
(0.029024 0 -0.00157699)
(0.0284854 0 -0.00144246)
(0.0277768 0 -0.0013154)
(0.0268784 0 -0.00119486)
(0.0257692 0 -0.00107982)
(0.0244276 0 -0.00096917)
(0.0228306 0 -0.000861732)
(0.0209536 0 -0.000756228)
(0.0187704 0 -0.000651247)
(0.0162532 0 -0.000545211)
(0.0133721 0 -0.000436313)
(0.010095 0 -0.000322445)
(0.006388 0 -0.000201097)
(0.00221306 0 -6.91614e-05)
(0.0313435 0 -0.00427128)
(0.0316108 0 -0.00425822)
(0.0318157 0 -0.00419925)
(0.0319309 0 -0.00409065)
(0.0319634 0 -0.00394037)
(0.0319367 0 -0.00376035)
(0.0318754 0 -0.00356201)
(0.0317977 0 -0.00335455)
(0.0317122 0 -0.00314475)
(0.0316194 0 -0.00293732)
(0.0315125 0 -0.00273537)
(0.0313802 0 -0.00254088)
(0.0312079 0 -0.00235504)
(0.0309787 0 -0.0021784)
(0.0306741 0 -0.00201104)
(0.030275 0 -0.00185273)
(0.0297614 0 -0.00170302)
(0.029113 0 -0.00156124)
(0.0283087 0 -0.00142662)
(0.0273272 0 -0.00129827)
(0.0261461 0 -0.00117519)
(0.0247421 0 -0.00105629)
(0.023091 0 -0.00094039)
(0.0211671 0 -0.000826161)
(0.0189429 0 -0.000712137)
(0.0163896 0 -0.000596649)
(0.0134759 0 -0.000477774)
(0.0101688 0 -0.000353253)
(0.00643287 0 -0.000220382)
(0.00222831 0 -7.5807e-05)
(0.0355785 0 -0.00441393)
(0.0357991 0 -0.00439938)
(0.0358544 0 -0.00433288)
(0.0357298 0 -0.00421458)
(0.0354678 0 -0.0040569)
(0.0351238 0 -0.00387344)
(0.0347442 0 -0.00367515)
(0.0343598 0 -0.00346985)
(0.0339863 0 -0.00326299)
(0.0336273 0 -0.00305828)
(0.033277 0 -0.00285819)
(0.0329241 0 -0.00266443)
(0.0325534 0 -0.0024781)
(0.0321466 0 -0.00229976)
(0.0316841 0 -0.00212963)
(0.031145 0 -0.00196761)
(0.030508 0 -0.00181337)
(0.0297509 0 -0.0016664)
(0.0288516 0 -0.00152604)
(0.0277868 0 -0.00139146)
(0.0265331 0 -0.00126175)
(0.025066 0 -0.00113586)
(0.0233598 0 -0.0010126)
(0.0213877 0 -0.000890641)
(0.0191214 0 -0.000768484)
(0.0165307 0 -0.000644392)
(0.0135834 0 -0.000516349)
(0.0102452 0 -0.000381967)
(0.0064793 0 -0.000238379)
(0.00224409 0 -8.20117e-05)
(0.0398354 0 -0.0045565)
(0.0399673 0 -0.00452754)
(0.0398035 0 -0.00443563)
(0.0393815 0 -0.00429455)
(0.0387947 0 -0.00412336)
(0.0381285 0 -0.00393565)
(0.0374428 0 -0.00373958)
(0.0367731 0 -0.00354001)
(0.0361362 0 -0.00334013)
(0.0355353 0 -0.00314221)
(0.0349638 0 -0.00294791)
(0.0344096 0 -0.00275852)
(0.0338563 0 -0.00257503)
(0.0332848 0 -0.00239804)
(0.0326743 0 -0.00222788)
(0.0320029 0 -0.00206461)
(0.031248 0 -0.00190806)
(0.0303864 0 -0.00175787)
(0.0293946 0 -0.0016135)
(0.0282484 0 -0.00147425)
(0.0269231 0 -0.0013393)
(0.0253931 0 -0.00120764)
(0.0236318 0 -0.00107813)
(0.0216114 0 -0.000949462)
(0.0193025 0 -0.000820102)
(0.016674 0 -0.000688277)
(0.0136926 0 -0.000551901)
(0.0103228 0 -0.000408483)
(0.00652641 0 -0.000255019)
(0.00226009 0 -8.77529e-05)
(0.0440866 0 -0.00469072)
(0.0440286 0 -0.00462472)
(0.0435317 0 -0.004486)
(0.0427463 0 -0.00431357)
(0.041818 0 -0.00412978)
(0.0408449 0 -0.00394273)
(0.0398845 0 -0.00375466)
(0.0389668 0 -0.00356626)
(0.0381038 0 -0.00337816)
(0.0372953 0 -0.00319124)
(0.0365327 0 -0.00300642)
(0.0358026 0 -0.00282473)
(0.035088 0 -0.00264709)
(0.0343691 0 -0.00247419)
(0.0336244 0 -0.00230648)
(0.0328315 0 -0.00214419)
(0.0319671 0 -0.00198736)
(0.0310073 0 -0.00183577)
(0.0299277 0 -0.00168904)
(0.0287034 0 -0.00154661)
(0.0273089 0 -0.00140774)
(0.0257177 0 -0.00127153)
(0.0239023 0 -0.00113687)
(0.0218342 0 -0.00100249)
(0.019483 0 -0.000866859)
(0.0168168 0 -0.000728184)
(0.0138014 0 -0.000584327)
(0.0104001 0 -0.000432721)
(0.0065733 0 -0.000270252)
(0.002276 0 -9.30121e-05)
(0.0481853 0 -0.00478069)
(0.0477489 0 -0.00463873)
(0.0467978 0 -0.00443987)
(0.0456268 0 -0.00424572)
(0.0443903 0 -0.00406475)
(0.0431652 0 -0.00389176)
(0.0419894 0 -0.00372158)
(0.0408796 0 -0.00355139)
(0.0398403 0 -0.00338026)
(0.0388675 0 -0.00320836)
(0.0379505 0 -0.00303635)
(0.0370752 0 -0.00286524)
(0.0362246 0 -0.00269602)
(0.0353789 0 -0.00252953)
(0.0345168 0 -0.00236641)
(0.0336157 0 -0.00220709)
(0.0326524 0 -0.00205178)
(0.0316025 0 -0.00190045)
(0.0304415 0 -0.00175288)
(0.029144 0 -0.00160864)
(0.0276839 0 -0.00146713)
(0.0260341 0 -0.00132751)
(0.0241666 0 -0.00118876)
(0.0220522 0 -0.00104965)
(0.0196598 0 -0.000908678)
(0.0169567 0 -0.000764033)
(0.0139079 0 -0.000613555)
(0.0104756 0 -0.000454623)
(0.00661905 0 -0.000284039)
(0.0022915 0 -9.77756e-05)
(0.0515828 0 -0.00470863)
(0.0505994 0 -0.00444947)
(0.0492287 0 -0.00423322)
(0.047791 0 -0.00406841)
(0.0463699 0 -0.00392502)
(0.0449997 0 -0.00378636)
(0.0436965 0 -0.00364573)
(0.0424669 0 -0.00350076)
(0.041311 0 -0.00335115)
(0.0402231 0 -0.00319757)
(0.0391924 0 -0.00304097)
(0.0382059 0 -0.00288268)
(0.0372473 0 -0.00272391)
(0.0362978 0 -0.00256572)
(0.0353369 0 -0.00240896)
(0.0343429 0 -0.00225427)
(0.0332927 0 -0.00210203)
(0.0321625 0 -0.00195241)
(0.0309278 0 -0.00180536)
(0.029563 0 -0.00166058)
(0.0280419 0 -0.00151759)
(0.0263371 0 -0.00137565)
(0.0244203 0 -0.00123384)
(0.0222617 0 -0.00109095)
(0.0198298 0 -0.000945531)
(0.0170912 0 -0.000795788)
(0.0140101 0 -0.000639546)
(0.0105479 0 -0.000474153)
(0.00666272 0 -0.000296354)
(0.00230627 0 -0.000102033)
(0.00222628 0 1.17172e-05)
(0.0064178 0 3.43418e-05)
(0.0101299 0 5.59628e-05)
(0.0134156 0 7.75738e-05)
(0.0163238 0 9.98854e-05)
(0.0188988 0 0.000123485)
(0.0211809 0 0.000148838)
(0.0232069 0 0.000176315)
(0.0250109 0 0.0002062)
(0.0266249 0 0.000238697)
(0.028079 0 0.000273923)
(0.0294015 0 0.000311896)
(0.0306195 0 0.000352523)
(0.0317591 0 0.000395576)
(0.0328453 0 0.000440671)
(0.0339019 0 0.00048724)
(0.034952 0 0.000534502)
(0.036017 0 0.000581444)
(0.0371171 0 0.000626805)
(0.03827 0 0.000669075)
(0.0394909 0 0.000706518)
(0.0407918 0 0.000737188)
(0.0421797 0 0.000759019)
(0.0436563 0 0.000769798)
(0.0452164 0 0.000766969)
(0.0468462 0 0.000746859)
(0.0485197 0 0.000701878)
(0.0501933 0 0.000612382)
(0.0518048 0 0.00042418)
(0.0532559 0 1.40234e-05)
(0.00224414 0 1.13666e-05)
(0.00647074 0 3.32951e-05)
(0.0102178 0 5.41679e-05)
(0.0135395 0 7.49145e-05)
(0.0164861 0 9.62599e-05)
(0.0191025 0 0.000118678)
(0.0214296 0 0.000142572)
(0.0235046 0 0.000168237)
(0.025362 0 0.000195874)
(0.0270338 0 0.000225594)
(0.0285501 0 0.000257404)
(0.0299392 0 0.000291199)
(0.0312277 0 0.00032675)
(0.032441 0 0.000363681)
(0.0336033 0 0.00040145)
(0.0347372 0 0.000439317)
(0.035864 0 0.000476328)
(0.0370033 0 0.000511289)
(0.0381724 0 0.000542752)
(0.0393862 0 0.000568998)
(0.040656 0 0.000588027)
(0.0419893 0 0.000597513)
(0.043388 0 0.000594753)
(0.0448476 0 0.000576388)
(0.0463555 0 0.000537765)
(0.0478887 0 0.000471745)
(0.0494115 0 0.00036533)
(0.0508693 0 0.00019652)
(0.052175 0 -7.02898e-05)
(0.0532437 0 -0.000495315)
(0.00226107 0 1.08628e-05)
(0.00652111 0 3.1798e-05)
(0.0103015 0 5.16698e-05)
(0.0136581 0 7.12839e-05)
(0.0166417 0 9.13085e-05)
(0.0192979 0 0.00011224)
(0.021668 0 0.00013434)
(0.0237895 0 0.000157833)
(0.0256969 0 0.000182836)
(0.0274223 0 0.00020937)
(0.0289956 0 0.000237337)
(0.0304444 0 0.000266521)
(0.0317949 0 0.000296571)
(0.0330716 0 0.000326984)
(0.0342972 0 0.000357085)
(0.035493 0 0.000386002)
(0.0366781 0 0.000412649)
(0.0378699 0 0.000435703)
(0.0390826 0 0.000453582)
(0.0403277 0 0.000464425)
(0.0416126 0 0.000466054)
(0.04294 0 0.000455886)
(0.0443069 0 0.000430823)
(0.0457036 0 0.000386916)
(0.0471122 0 0.000318475)
(0.0485054 0 0.000217852)
(0.0498387 0 7.41686e-05)
(0.051052 0 -0.000127458)
(0.0520821 0 -0.000408747)
(0.0528689 0 -0.000813849)
(0.00227668 0 1.02082e-05)
(0.00656782 0 2.98599e-05)
(0.0103797 0 4.84492e-05)
(0.0137691 0 6.66985e-05)
(0.0167879 0 8.51391e-05)
(0.0194818 0 0.000104218)
(0.0218923 0 0.000124226)
(0.0240571 0 0.000145226)
(0.0260108 0 0.000167258)
(0.027785 0 0.000190264)
(0.0294092 0 0.000214049)
(0.0309107 0 0.000238295)
(0.0323144 0 0.000262551)
(0.0336438 0 0.000286211)
(0.0349202 0 0.000308499)
(0.036163 0 0.000328449)
(0.0373893 0 0.00034489)
(0.0386137 0 0.000356423)
(0.0398478 0 0.000361404)
(0.0410997 0 0.000357913)
(0.0423731 0 0.000343703)
(0.0436671 0 0.000316117)
(0.0449747 0 0.000271971)
(0.0462849 0 0.000207154)
(0.0475741 0 0.00011684)
(0.0488095 0 -5.01792e-06)
(0.0499517 0 -0.000165719)
(0.0509562 0 -0.000375854)
(0.0517771 0 -0.00065002)
(0.0523656 0 -0.00101015)
(0.00229062 0 9.40755e-06)
(0.00660982 0 2.74954e-05)
(0.0104505 0 4.45375e-05)
(0.0138704 0 6.11561e-05)
(0.0169217 0 7.78047e-05)
(0.0196508 0 9.47827e-05)
(0.0220989 0 0.000112343)
(0.0243034 0 0.000130581)
(0.0262989 0 0.000149358)
(0.0281167 0 0.000168568)
(0.0297857 0 0.000187924)
(0.0313323 0 0.000207017)
(0.0327805 0 0.000225319)
(0.0341522 0 0.000242149)
(0.0354674 0 0.000256665)
(0.0367434 0 0.000267845)
(0.0379954 0 0.00027448)
(0.0392354 0 0.000275156)
(0.0404724 0 0.000268237)
(0.0417119 0 0.000251831)
(0.0429549 0 0.000223749)
(0.0441978 0 0.000181412)
(0.0454317 0 0.000121936)
(0.0466409 0 4.19932e-05)
(0.0478014 0 -6.18265e-05)
(0.0488862 0 -0.000194175)
(0.0498638 0 -0.000360317)
(0.050701 0 -0.000566773)
(0.0513644 0 -0.000821135)
(0.0518203 0 -0.00113004)
(0.00230252 0 8.46897e-06)
(0.00664608 0 2.47284e-05)
(0.0105125 0 3.99753e-05)
(0.01396 0 5.47241e-05)
(0.017041 0 6.93372e-05)
(0.0198018 0 8.40428e-05)
(0.022284 0 9.89397e-05)
(0.0245245 0 0.000114099)
(0.0265572 0 0.000129399)
(0.0284129 0 0.000144628)
(0.0301201 0 0.000159401)
(0.0317045 0 0.000173235)
(0.0331885 0 0.000185554)
(0.0345927 0 0.000195627)
(0.0359355 0 0.000202579)
(0.0372324 0 0.000205374)
(0.0384966 0 0.00020281)
(0.0397381 0 0.000193512)
(0.0409636 0 0.000175922)
(0.0421765 0 0.000148271)
(0.0433764 0 0.000108541)
(0.0445573 0 5.44645e-05)
(0.0457075 0 -1.60621e-05)
(0.046812 0 -0.000105544)
(0.0478515 0 -0.000216761)
(0.0488035 0 -0.000352794)
(0.0496439 0 -0.000516889)
(0.0503486 0 -0.000712327)
(0.0508945 0 -0.000941577)
(0.0512611 0 -0.00120387)
(0.00231204 0 7.40355e-06)
(0.00667564 0 2.15919e-05)
(0.0105641 0 3.4818e-05)
(0.0140357 0 4.74829e-05)
(0.017143 0 5.98546e-05)
(0.0199323 0 7.20805e-05)
(0.0224445 0 8.41995e-05)
(0.0247166 0 9.6141e-05)
(0.0267816 0 0.000107766)
(0.0286695 0 0.000118811)
(0.0304084 0 0.000128965)
(0.0320235 0 0.000137536)
(0.0335351 0 0.000143964)
(0.0349627 0 0.000147489)
(0.036323 0 0.000147236)
(0.0376302 0 0.000142187)
(0.0388955 0 0.00013119)
(0.0401271 0 0.000112958)
(0.0413302 0 8.60699e-05)
(0.0425066 0 4.89636e-05)
(0.0436552 0 -7.38517e-08)
(0.0447672 0 -6.26282e-05)
(0.0458318 0 -0.00014043)
(0.0468376 0 -0.000235422)
(0.0477682 0 -0.000349448)
(0.0486064 0 -0.000484328)
(0.049334 0 -0.000641645)
(0.0499341 0 -0.000822368)
(0.0503919 0 -0.00102603)
(0.050696 0 -0.00124921)
(0.00231887 0 6.22556e-06)
(0.00669762 0 1.81276e-05)
(0.0106039 0 2.91353e-05)
(0.0140959 0 3.95322e-05)
(0.0172258 0 4.94908e-05)
(0.0200395 0 5.90785e-05)
(0.0225777 0 6.82643e-05)
(0.0248768 0 7.69204e-05)
(0.0269689 0 8.48322e-05)
(0.0288829 0 9.16341e-05)
(0.0306481 0 9.70022e-05)