/*--------------------------------*- C++ -*----------------------------------*\
| =========                 |                                                 |
| \\      /  F ield         | OpenFOAM: The Open Source CFD Toolbox           |
|  \\    /   O peration     | Version:  dev                                   |
|   \\  /    A nd           | Web:      www.OpenFOAM.org                      |
|    \\/     M anipulation  |                                                 |
\*---------------------------------------------------------------------------*/
FoamFile
{
    version     2.0;
    format      ascii;
    class       surfaceScalarField;
    location    "3.51";
    object      meshPhi;
}
// * * * * * * * * * * * * * * * * * * * * * * * * * * * * * * * * * * * * * //

dimensions      [0 3 -1 0 0 0 0];

internalField   nonuniform List<scalar> 
5457
(
3.54268e-07
4.87656e-08
1.00462e-06
1.36284e-07
2.16188e-06
2.04397e-07
3.90479e-06
2.51465e-07
6.1871e-06
2.78243e-07
8.87195e-06
2.86183e-07
1.17633e-05
2.77283e-07
1.46363e-05
2.54039e-07
1.72645e-05
2.19411e-07
1.94445e-05
1.76753e-07
2.10148e-05
1.2969e-07
2.187e-05
8.19234e-08
2.19684e-05
3.6973e-08
2.13328e-05
-2.1169e-09
2.00446e-05
-3.30612e-08
1.82318e-05
-5.45566e-08
1.60528e-05
-6.63903e-08
1.3678e-05
-6.94018e-08
1.12718e-05
-6.52905e-08
8.97819e-06
-5.63013e-08
6.84396e-06
-4.47196e-08
4.91978e-06
-3.24868e-08
3.3253e-06
-2.13074e-08
2.10151e-06
-1.24748e-08
1.21796e-06
-6.40181e-09
6.26539e-07
-2.76904e-09
2.69626e-07
-9.36198e-10
8.63798e-08
-2.00215e-10
1.68941e-08
8.19066e-12
5.18941e-12
3.02421e-07
9.78608e-08
9.1439e-07
2.73478e-07
2.04771e-06
4.10164e-07
3.7793e-06
5.04683e-07
6.06213e-06
5.58566e-07
8.758e-06
5.74705e-07
1.16691e-05
5.57079e-07
1.45684e-05
5.10654e-07
1.72271e-05
4.41322e-07
1.9439e-05
3.55776e-07
2.10399e-05
2.61266e-07
2.1922e-05
1.65216e-07
2.20414e-05
7.4704e-08
2.14198e-05
-4.12138e-09
2.0138e-05
-6.66225e-08
1.83242e-05
-1.10126e-07
1.61381e-05
-1.34153e-07
1.37517e-05
-1.40355e-07
1.13308e-05
-1.32128e-07
9.01943e-06
-1.13985e-07
6.87496e-06
-9.05787e-08
4.94449e-06
-6.58639e-08
3.34045e-06
-4.32524e-08
2.11043e-06
-2.53708e-08
1.22278e-06
-1.3075e-08
6.28829e-07
-5.70597e-09
2.7051e-07
-1.96934e-09
8.66376e-08
-4.51071e-10
1.69555e-08
-9.97888e-12
1.09997e-11
2.35933e-07
1.47294e-07
7.94883e-07
4.11614e-07
1.88973e-06
6.17376e-07
3.59605e-06
7.59802e-07
5.86609e-06
8.41224e-07
8.56077e-06
8.65971e-07
1.14812e-05
8.39967e-07
1.43989e-05
7.70611e-07
1.70832e-05
6.66681e-07
1.93259e-05
5.38165e-07
2.09603e-05
3.95913e-07
2.1876e-05
2.51062e-07
2.20268e-05
1.14278e-07
2.1432e-05
-5.13462e-09
2.01709e-05
-1.00104e-07
1.8371e-05
-1.66494e-07
1.61917e-05
-2.03464e-07
1.38056e-05
-2.134e-07
1.13794e-05
-2.01349e-07
9.05837e-06
-1.74077e-07
6.90729e-06
-1.38665e-07
4.97174e-06
-1.01168e-07
3.35988e-06
-6.67552e-08
2.12338e-06
-3.94343e-08
1.23058e-06
-2.05568e-08
6.32881e-07
-9.15174e-09
2.72198e-07
-3.28457e-09
8.71525e-08
-8.34906e-10
1.70725e-08
-8.24123e-11
5.23349e-12
1.58331e-07
1.97042e-07
6.51157e-07
5.50644e-07
1.69323e-06
8.26009e-07
3.35941e-06
1.01687e-06
5.60145e-06
1.12638e-06
8.27994e-06
1.1603e-06
1.11957e-05
1.12647e-06
1.41197e-05
1.03467e-06
1.68208e-05
8.96487e-07
1.90894e-05
7.25135e-07
2.0757e-05
5.34998e-07
2.17111e-05
3.40894e-07
2.19026e-05
1.57072e-07
2.13481e-05
-3.96582e-09
2.0124e-05
-1.32629e-07
1.83557e-05
-2.23197e-07
1.62008e-05
-2.74336e-07
1.38311e-05
-2.89028e-07
1.14136e-05
-2.73869e-07
9.09464e-06
-2.3782e-07
6.94211e-06
-1.90375e-07
5.00319e-06
-1.39756e-07
3.3857e-06
-9.30007e-08
2.14226e-06
-5.56084e-08
1.24276e-06
-2.95195e-08
6.39579e-07
-1.35289e-08
2.75148e-07
-5.10874e-09
8.8098e-08
-1.44898e-09
1.72816e-08
-2.36613e-10
-1.65716e-11
5.90869e-08
2.47157e-07
4.65649e-07
6.90737e-07
1.43756e-06
1.03636e-06
3.04899e-06
1.27633e-06
5.25108e-06
1.41465e-06
7.90408e-06
1.45853e-06
1.08087e-05
1.41767e-06
1.37357e-05
1.30415e-06
1.64534e-05
1.13228e-06
1.87511e-05
9.1841e-07
2.04587e-05
6.80353e-07
2.14609e-05
4.36543e-07
2.17056e-05
2.04788e-07
2.12057e-05
8.24997e-10
2.00341e-05
-1.63148e-07
1.83127e-05
-2.7968e-07
1.61966e-05
-3.46761e-07
1.38558e-05
-3.67789e-07
1.14569e-05
-3.50743e-07
9.1467e-06
-3.0667e-07
6.9949e-06
-2.47379e-07
5.05136e-06
-1.83236e-07
3.42562e-06
-1.23351e-07
2.17173e-06
-7.49496e-08
1.26196e-06
-4.07094e-08
6.50276e-07
-1.93072e-08
2.79956e-07
-7.69458e-09
8.9677e-08
-2.40049e-09
1.7625e-08
-5.02351e-10
-5.90321e-11
-6.24956e-08
2.97694e-07
2.37446e-07
8.32052e-07
1.12172e-06
1.24871e-06
2.66364e-06
1.53858e-06
4.81358e-06
1.70662e-06
7.43143e-06
1.76145e-06
1.03179e-05
1.7146e-06
1.32439e-05
1.58037e-06
1.59774e-05
1.37568e-06
1.8307e-05
1.11985e-06
2.00607e-05
8.34027e-07
2.11206e-05
5.40144e-07
2.14312e-05
2.5952e-07
2.10009e-05
1.11324e-08
1.98981e-05
-1.90119e-07
1.82404e-05
-3.34896e-07
1.61792e-05
-4.20294e-07
1.38819e-05
-4.49887e-07
1.15135e-05
-4.32813e-07
9.22109e-06
-3.82036e-07
7.07314e-06
-3.1143e-07
5.12238e-06
-2.33361e-07
3.48379e-06
-1.59312e-07
2.21445e-06
-9.86327e-08
1.28974e-06
-5.49651e-08
6.65787e-07
-2.70181e-08
2.86975e-07
-1.13281e-08
9.2e-08
-3.80984e-09
1.81205e-08
-9.13696e-10
-1.27358e-10
-2.07028e-07
3.48702e-07
-3.43289e-08
9.74735e-07
7.44711e-07
1.46329e-06
2.20226e-06
1.80401e-06
4.2876e-06
2.00282e-06
6.8602e-06
2.06981e-06
9.72092e-06
2.0183e-06
1.2641e-05
1.86469e-06
1.53888e-05
1.62837e-06
1.7752e-05
1.33148e-06
1.95573e-05
9.98325e-07
2.0684e-05
6.54198e-07
2.10727e-05
3.2383e-07
2.07272e-05
2.94234e-08
1.97104e-05
-2.11357e-07
1.81344e-05
-3.87118e-07
1.6146e-05
-4.93824e-07
1.39085e-05
-5.34932e-07
1.15847e-05
-5.20443e-07
9.32092e-06
-4.64989e-07
7.18089e-06
-3.84088e-07
5.21953e-06
-2.9179e-07
3.56215e-06
-2.0234e-07
2.27143e-06
-1.27817e-07
1.32653e-06
-7.31269e-08
6.86219e-07
-3.72e-08
2.96187e-07
-1.62999e-08
9.50343e-08
-5.79903e-09
1.87517e-08
-1.5055e-09
-2.26719e-10
-3.75143e-07
4.00234e-07
-3.50593e-07
1.11893e-06
3.05582e-07
1.68033e-06
1.66383e-06
2.07291e-06
3.67189e-06
2.30372e-06
6.18868e-06
2.38431e-06
9.01532e-06
2.32975e-06
1.19238e-05
2.15844e-06
1.46829e-05
1.89209e-06
1.70803e-05
1.55547e-06
1.89415e-05
1.17581e-06
2.0143e-05
7.81591e-07
2.06215e-05
4.00809e-07
2.03755e-05
5.88246e-08
1.94618e-05
-2.23895e-07
1.79862e-05
-4.33758e-07
1.60893e-05
-5.65338e-07
1.39295e-05
-6.21642e-07
1.16659e-05
-6.13169e-07
9.44326e-06
-5.55877e-07
7.31639e-06
-4.66326e-07
5.34123e-06
-3.5974e-07
3.65896e-06
-2.53588e-07
2.34105e-06
-1.63462e-07
1.371e-06
-9.59205e-08
7.10639e-07
-5.03318e-08
3.07059e-07
-2.28734e-08
9.85573e-08
-8.48011e-09
1.9459e-08
-2.31025e-09
-3.62769e-10
-5.67532e-07
4.52344e-07
-7.12308e-07
1.26478e-06
-1.96555e-07
1.90003e-06
1.04752e-06
2.34559e-06
2.96547e-06
2.60973e-06
5.41539e-06
2.70557e-06
8.19882e-06
2.64987e-06
1.10888e-05
2.46296e-06
1.38551e-05
2.16864e-06
1.62857e-05
1.7941e-06
1.82053e-05
1.36927e-06
1.9488e-05
9.25578e-07
2.00664e-05
4.94078e-07
1.99334e-05
1.03169e-07
1.91393e-05
-2.23895e-07
1.77824e-05
-4.71202e-07
1.5996e-05
-6.31689e-07
1.39322e-05
-7.07546e-07
1.17454e-05
-7.09335e-07
9.57739e-06
-6.53905e-07
7.47034e-06
-5.58086e-07
5.47972e-06
-4.37598e-07
3.76788e-06
-3.13607e-07
2.41846e-06
-2.0614e-07
1.41974e-06
-1.23843e-07
7.3691e-07
-6.67772e-08
3.18473e-07
-3.12647e-08
1.02134e-07
-1.1951e-08
2.01342e-08
-3.35823e-09
-5.40889e-10
-7.8501e-07
5.05099e-07
-1.1205e-06
1.41245e-06
-7.62433e-07
2.12259e-06
3.52877e-07
2.62225e-06
2.16783e-06
2.92118e-06
4.53938e-06
3.0341e-06
7.26956e-06
2.97951e-06
1.01329e-05
2.77947e-06
1.29005e-05
2.45975e-06
1.53615e-05
2.04971e-06
1.73398e-05
1.58167e-06
1.87079e-05
1.08972e-06
1.93941e-05
6.07745e-07
1.93858e-05
1.66978e-07
1.87258e-05
-2.06608e-07
1.75044e-05
-4.94721e-07
1.58466e-05
-6.88428e-07
1.38969e-05
-7.88729e-07
1.18034e-05
-8.05764e-07
9.70418e-06
-7.56743e-07
7.62536e-06
-6.57877e-07
5.6207e-06
-5.24568e-07
3.87779e-06
-3.821e-07
2.49551e-06
-2.55874e-07
1.46724e-06
-1.5709e-07
7.61699e-07
-8.6766e-08
3.28725e-07
-4.16514e-08
1.05106e-07
-1.63088e-08
2.0612e-08
-4.68494e-09
-7.68503e-10
-1.0286e-06
5.58587e-07
-1.57635e-06
1.56213e-06
-1.39256e-06
2.3482e-06
-4.2008e-07
2.90306e-06
1.2791e-06
3.23827e-06
3.56039e-06
3.3703e-06
6.22639e-06
3.31932e-06
9.05341e-06
3.10908e-06
1.18148e-05
2.76708e-06
1.43009e-05
2.32457e-06
1.6336e-05
1.816e-06
1.77907e-05
1.27778e-06
1.85898e-05
7.46289e-07
1.87147e-05
2.55371e-07
1.82008e-05
-1.66444e-07
1.71295e-05
-4.98474e-07
1.56164e-05
-7.29744e-07
1.37974e-05
-8.59702e-07
1.18132e-05
-8.97555e-07
9.79691e-06
-8.60279e-07
7.75691e-06
-7.62506e-07
5.74407e-06
-6.18441e-07
3.97339e-06
-4.57762e-07
2.56122e-06
-3.12069e-07
1.50618e-06
-1.95542e-07
7.80599e-07
-1.10427e-07
3.35543e-07
-5.42239e-08
1.06565e-07
-2.1692e-08
2.06419e-08
-6.35251e-09
-1.06054e-09
-1.29971e-06
6.12927e-07
-2.08124e-06
1.71409e-06
-2.08711e-06
2.57706e-06
-1.27063e-06
3.1881e-06
3.00336e-07
3.56108e-06
2.47917e-06
3.71435e-06
5.06919e-06
3.66977e-06
7.84891e-06
3.45266e-06
1.05943e-05
3.09205e-06
1.3098e-05
2.62081e-06
1.51849e-05
2.07517e-06
1.67244e-05
1.49352e-06
1.76378e-05
9.14377e-07
1.7901e-05
3.73869e-07
1.75415e-05
-9.71359e-08
1.66315e-05
-4.75652e-07
1.52767e-05
-7.48554e-07
1.3603e-05
-9.13436e-07
1.1743e-05
-9.78071e-07
9.82354e-06
-9.58562e-07
7.83541e-06
-8.67011e-07
5.82572e-06
-7.15536e-07
4.03651e-06
-5.38242e-07
2.60257e-06
-3.73502e-07
1.52782e-06
-2.38804e-07
7.88235e-07
-1.37872e-07
3.36004e-07
-6.92922e-08
1.05218e-07
-2.83741e-08
1.97969e-08
-8.50105e-09
-1.45373e-09
-1.60035e-06
6.68301e-07
-2.63708e-06
1.86868e-06
-2.8458e-06
2.80937e-06
-2.19713e-06
3.47735e-06
-7.66268e-07
3.88951e-06
1.29779e-06
4.06622e-06
3.7992e-06
4.03103e-06
6.51915e-06
3.81074e-06
9.23698e-06
3.43574e-06
1.1748e-05
2.9402e-06
1.38787e-05
2.36178e-06
1.54975e-05
1.74049e-06
1.6523e-05
1.1166e-06
1.69254e-05
5.28124e-07
1.67246e-05
7.96521e-09
1.59834e-05
-4.18758e-07
1.47969e-05
-7.36769e-07
1.32809e-05
-9.41587e-07
1.15587e-05
-1.03912e-06
9.74994e-06
-1.04397e-06
7.82945e-06
-9.64818e-07
5.84005e-06
-8.10814e-07
4.04783e-06
-6.20221e-07
2.60553e-06
-4.38378e-07
1.52244e-06
-2.86272e-07
7.78185e-07
-1.693e-07
3.26168e-07
-8.74435e-08
9.8971e-08
-3.6938e-08
1.71884e-08
-1.14705e-08
-2.04575e-09
-1.93347e-06
7.24988e-07
-3.24652e-06
2.02649e-06
-3.66758e-06
3.04541e-06
-3.19678e-06
3.77066e-06
-1.91709e-06
4.22324e-06
1.99014e-08
4.42554e-06
2.41936e-06
4.40287e-06
5.06571e-06
4.18344e-06
7.74232e-06
3.79875e-06
1.02481e-05
3.28399e-06
1.24113e-05
2.67793e-06
1.41007e-05
2.02179e-06
1.52319e-05
1.35716e-06
1.57704e-05
7.23544e-07
1.57284e-05
1.55486e-07
1.51594e-05
-3.20037e-07
1.41481e-05
-6.85712e-07
1.27995e-05
-9.34905e-07
1.12273e-05
-1.07135e-06
9.54361e-06
-1.10758e-06
7.70938e-06
-1.04809e-06
5.76282e-06
-8.98156e-07
3.98878e-06
-6.99549e-07
2.55613e-06
-5.04364e-07
1.47957e-06
-3.37124e-07
7.42591e-07
-2.05039e-07
3.0015e-07
-1.09701e-07
8.37757e-08
-4.85664e-08
1.06092e-08
-1.60882e-08
-3.11345e-09
-2.27387e-06
7.78438e-07
-3.89612e-06
2.18093e-06
-4.55632e-06
3.28454e-06
-4.27016e-06
4.07055e-06
-3.15239e-06
4.56454e-06
-1.35518e-06
4.79474e-06
9.27957e-07
4.78789e-06
3.48519e-06
4.57363e-06
6.10486e-06
4.18439e-06
8.59024e-06
3.656e-06
1.07722e-05
3.02801e-06
1.252e-05
2.34252e-06
1.37474e-05
1.64205e-06
1.44153e-05
9.67078e-07
1.45289e-05
3.53375e-07
1.41325e-05
-1.70582e-07
1.33006e-05
-5.85676e-07
1.21278e-05
-8.83186e-07
1.0718e-05
-1.06454e-06
9.17517e-06
-1.13982e-06
7.44929e-06
-1.10863e-06
5.57275e-06
-9.7133e-07
3.84242e-06
-7.72069e-07
2.44067e-06
-5.69215e-07
1.38765e-06
-3.90822e-07
6.70936e-07
-2.46017e-07
2.47654e-07
-1.38151e-07
4.92852e-08
-6.60524e-08
-9.48494e-09
-2.50982e-08
-5.82817e-09
-4.61032e-08
4.59219e-10
-2.3725e-07
2.91938e-09
-7.55564e-07
1.09977e-08
-1.77896e-06
2.95102e-08
-3.46572e-06
6.38749e-08
-5.93484e-06
1.19568e-07
-9.25139e-06
2.01465e-07
-1.34194e-05
3.13142e-07
-1.83826e-05
4.56413e-07
-2.36918e-05
6.19388e-07
-2.89425e-05
7.78544e-07
-3.41569e-05
9.25551e-07
-3.92603e-05
1.06287e-06
-4.40651e-05
1.18711e-06
-4.83913e-05
1.29299e-06
-5.20733e-05
1.3769e-06
-5.49655e-05
1.43709e-06
-5.69468e-05
1.47348e-06
-5.79245e-05
1.48717e-06
-5.7837e-05
1.47982e-06
-5.66537e-05
1.45296e-06
-5.43729e-05
1.40749e-06
-5.10159e-05
1.3433e-06
-4.66193e-05
1.25909e-06
-4.12241e-05
1.15245e-06
-3.48651e-05
1.02001e-06
-2.75603e-05
8.57702e-07
-1.93023e-05
6.61013e-07
-1.00497e-05
4.25161e-07
1.4936e-07
-4.67261e-08
9.08112e-10
-2.40406e-07
5.86647e-09
-7.64441e-07
2.19542e-08
-1.79705e-06
5.8764e-08
-3.4964e-06
1.26995e-07
-5.98081e-06
2.37451e-07
-9.31407e-06
3.99731e-07
-1.34976e-05
6.20798e-07
-1.84662e-05
9.03834e-07
-2.3802e-05
1.22636e-06
-2.90793e-05
1.54259e-06
-3.42931e-05
1.83435e-06
-3.93981e-05
2.10661e-06
-4.42035e-05
2.35357e-06
-4.85281e-05
2.5645e-06
-5.22057e-05
2.73212e-06
-5.50906e-05
2.85288e-06
-5.70615e-05
2.92656e-06
-5.80261e-05
2.95527e-06
-5.79234e-05
2.94219e-06
-5.67238e-05
2.89028e-06
-5.44265e-05
2.80122e-06
-5.1054e-05
2.67467e-06
-4.66437e-05
2.50802e-06
-4.12375e-05
2.2964e-06
-3.48705e-05
2.03306e-06
-2.7561e-05
1.70989e-06
-1.9301e-05
1.31792e-06
-1.00485e-05
8.4768e-07
2.97773e-07
-4.73394e-08
1.36198e-09
-2.43435e-07
8.79564e-09
-7.72383e-07
3.26314e-08
-1.81181e-06
8.70023e-08
-3.51887e-06
1.87552e-07
-6.01069e-06
3.50059e-07
-9.34991e-06
5.88513e-07
-1.35367e-05
9.12951e-07
-1.85047e-05
1.32755e-06
-2.38527e-05
1.80094e-06
-2.91393e-05
2.26756e-06
-3.43466e-05
2.69886e-06
-3.94488e-05
3.10173e-06
-4.42533e-05
3.46862e-06
-4.85776e-05
3.78337e-06
-5.22543e-05
4.03498e-06
-5.51369e-05
4.21796e-06
-5.71038e-05
4.3317e-06
-5.80626e-05
4.37902e-06
-5.79527e-05
4.36433e-06
-5.67451e-05
4.29171e-06
-5.44399e-05
4.16338e-06
-5.10604e-05
3.97866e-06
-4.66444e-05
3.73348e-06
-4.12342e-05
3.42052e-06
-3.48652e-05
3.02972e-06
-2.75554e-05
2.54901e-06
-1.92966e-05
1.9651e-06
-1.00462e-05
1.26403e-06
4.4402e-07
-4.77858e-08
1.80667e-09
-2.45538e-07
1.16219e-08
-7.77177e-07
4.27431e-08
-1.81874e-06
1.13444e-07
-3.52552e-06
2.43814e-07
-6.01314e-06
4.54095e-07
-9.34356e-06
7.6221e-07
-1.35177e-05
1.18093e-06
-1.84733e-05
1.71529e-06
-2.38124e-05
2.32669e-06
-2.90892e-05
2.93295e-06
-3.42867e-05
3.49594e-06
-3.9384e-05
4.02363e-06
-4.41885e-05
4.50665e-06
-4.85159e-05
4.92362e-06
-5.21976e-05
5.25981e-06
-5.50855e-05
5.50757e-06
-5.70572e-05
5.66556e-06
-5.80201e-05
5.73686e-06
-5.79136e-05
5.72662e-06
-5.67091e-05
5.63967e-06
-5.44069e-05
5.47843e-06
-5.10308e-05
5.24161e-06
-4.66187e-05
4.92362e-06
-4.12128e-05
4.51469e-06
-3.48485e-05
4.00152e-06
-2.75433e-05
3.36825e-06
-1.9289e-05
2.5975e-06
-1.00425e-05
1.67107e-06
5.87025e-07
-4.81883e-08
2.22742e-09
-2.47326e-07
1.42636e-08
-7.80761e-07
5.20493e-08
-1.82233e-06
1.37509e-07
-3.52488e-06
2.94593e-07
-6.00217e-06
5.47414e-07
-9.31571e-06
9.17316e-07
-1.34677e-05
1.41945e-06
-1.83992e-05
2.05959e-06
-2.37179e-05
2.79363e-06
-2.898e-05
3.52641e-06
-3.4168e-05
4.21156e-06
-3.92624e-05
4.85707e-06
-4.40697e-05
5.45146e-06
-4.84043e-05
5.96846e-06
-5.20954e-05
6.38963e-06
-5.49933e-05
6.70496e-06
-5.69745e-05
6.91195e-06
-5.7946e-05
7.01347e-06
-5.78473e-05
7.01487e-06
-5.66499e-05
6.92118e-06
-5.43547e-05
6.73464e-06
-5.09856e-05
6.4531e-06
-4.65808e-05
6.06931e-06
-4.11823e-05
5.57103e-06
-3.48251e-05
4.94185e-06
-2.75267e-05
4.1623e-06
-1.92786e-05
3.21117e-06
-1.00376e-05
2.06634e-06
7.25936e-07
-4.85578e-08
2.61251e-09
-2.48838e-07
1.66571e-08
-7.83298e-07
6.03711e-08
-1.82307e-06
1.58803e-07
-3.51794e-06
3.39142e-07
-5.97947e-06
6.28745e-07
-9.26867e-06
1.05184e-06
-1.33891e-05
1.62558e-06
-1.82851e-05
2.35636e-06
-2.35735e-05
3.19631e-06
-2.8817e-05
4.04103e-06
-3.39962e-05
4.83753e-06
-3.90899e-05
5.59275e-06
-4.39034e-05
6.29277e-06
-4.82488e-05
6.9068e-06
-5.19531e-05
7.41282e-06
-5.48648e-05
7.79827e-06
-5.68592e-05
8.05912e-06
-5.78429e-05
8.19742e-06
-5.77553e-05
8.21818e-06
-5.65685e-05
8.12606e-06
-5.42838e-05
7.92265e-06
-5.09251e-05
7.60464e-06
-4.65306e-05
7.16295e-06
-4.11424e-05
6.58288e-06
-3.47949e-05
5.84502e-06
-2.75055e-05
4.92654e-06
-1.92652e-05
3.80265e-06
-1.00313e-05
2.44764e-06
8.59993e-07
-4.89207e-08
2.9541e-09
-2.50213e-07
1.87655e-08
-7.85247e-07
6.76199e-08
-1.82204e-06
1.77164e-07
-3.5068e-06
3.77216e-07
-5.94849e-06
6.97756e-07
-9.20743e-06
1.16535e-06
-1.32885e-05
1.7988e-06
-1.8139e-05
2.60495e-06
-2.33885e-05
3.53378e-06
-2.86109e-05
4.47525e-06
-3.37826e-05
5.37145e-06
-3.88778e-05
6.22732e-06
-4.37e-05
7.02619e-06
-4.80587e-05
7.7333e-06
-5.17787e-05
8.3232e-06
-5.47065e-05
8.7807e-06
-5.67163e-05
9.09983e-06
-5.77145e-05
9.28131e-06
-5.76405e-05
9.32916e-06
-5.64669e-05
9.24708e-06
-5.41952e-05
9.03555e-06
-5.08497e-05
8.68974e-06
-4.64684e-05
8.19856e-06
-4.10931e-05
7.54487e-06
-3.47578e-05
6.70638e-06
-2.74794e-05
5.6571e-06
-1.92488e-05
4.36898e-06
-1.00234e-05
2.81311e-06
9.88541e-07
-4.93441e-08
3.25195e-09
-2.51799e-07
2.05876e-08
-7.87629e-07
7.38219e-08
-1.82144e-06
1.92705e-07
-3.4954e-06
4.09114e-07
-5.91546e-06
7.55066e-07
-9.14093e-06
1.25895e-06
-1.31777e-05
1.94084e-06
-1.79755e-05
2.80789e-06
-2.31799e-05
3.80926e-06
-2.83798e-05
4.83246e-06
-3.35454e-05
5.81624e-06
-3.86433e-05
6.76288e-06
-4.3475e-05
7.65285e-06
-4.78475e-05
8.448e-06
-5.15834e-05
9.11977e-06
-5.45273e-05
9.65026e-06
-5.65528e-05
1.00313e-05
-5.75658e-05
1.02617e-05
-5.75062e-05
1.03438e-05
-5.63472e-05
1.028e-05
-5.40904e-05
1.00689e-05
-5.07603e-05
9.70393e-06
-4.63946e-05
9.17182e-06
-4.10345e-05
8.45294e-06
-3.47137e-05
7.52225e-06
-2.74483e-05
6.35085e-06
-1.92293e-05
4.90775e-06
-1.0014e-05
3.16116e-06
1.11103e-06
-4.99668e-08
3.512e-09
-2.54269e-07
2.21639e-08
-7.92307e-07
7.91311e-08
-1.82506e-06
2.05827e-07
-3.49019e-06
4.35677e-07
-5.89013e-06
8.02206e-07
-9.08271e-06
1.33515e-06
-1.30743e-05
2.05549e-06
-1.78163e-05
2.97049e-06
-2.29722e-05
4.02949e-06
-2.81489e-05
5.12012e-06
-3.33089e-05
6.17925e-06
-3.84089e-05
7.20613e-06
-4.32483e-05
8.17855e-06
-4.76322e-05
9.05564e-06
-5.1381e-05
9.80608e-06
-5.43383e-05
1.04093e-05
-5.63769e-05
1.08546e-05
-5.7403e-05
1.11386e-05
-5.7357e-05
1.12614e-05
-5.62124e-05
1.12232e-05
-5.39713e-05
1.10205e-05
-5.0658e-05
1.06447e-05
-4.63097e-05
1.008e-05
-4.0967e-05
9.30427e-06
-3.46626e-05
8.28994e-06
-2.74123e-05
7.0054e-06
-1.92065e-05
5.41703e-06
-1.0003e-05
3.49056e-06
1.22701e-06
-5.10475e-08
3.74815e-09
-2.58794e-07
2.35814e-08
-8.02339e-07
8.38388e-08
-1.83876e-06
2.17225e-07
-3.5006e-06
4.58264e-07
-5.88614e-06
8.41519e-07
-9.05111e-06
1.39763e-06
-1.30017e-05
2.14815e-06
-1.76899e-05
3.10023e-06
-2.2797e-05
4.20394e-06
-2.79499e-05
5.34882e-06
-3.31029e-05
6.47118e-06
-3.82012e-05
7.56737e-06
-4.30431e-05
8.61286e-06
-4.74322e-05
9.56478e-06
-5.11875e-05
1.03895e-05
-5.41518e-05
1.10639e-05
-5.61983e-05
1.15746e-05
-5.72332e-05
1.19154e-05
-5.71979e-05
1.2084e-05
-5.60661e-05
1.20776e-05
-5.38403e-05
1.18905e-05
-5.05443e-05
1.15112e-05
-4.62147e-05
1.09217e-05
-4.0891e-05
1.00972e-05
-3.46049e-05
9.00766e-06
-2.73713e-05
7.61905e-06
-1.91805e-05
5.89541e-06
-9.99043e-06
3.80033e-06
1.33614e-06
-5.30633e-08
3.98438e-09
-2.67349e-07
2.49835e-08
-8.22512e-07
8.83959e-08
-1.8711e-06
2.27909e-07
-3.53957e-06
4.78738e-07
-5.92119e-06
8.76067e-07
-9.06888e-06
1.45106e-06
-1.29878e-05
2.22553e-06
-1.76297e-05
3.20624e-06
-2.26909e-05
4.34402e-06
-2.78184e-05
5.53127e-06
-3.29598e-05
6.70499e-06
-3.80493e-05
7.85932e-06
-4.28845e-05
8.96799e-06
-4.72683e-05
9.98684e-06
-5.10196e-05
1.08803e-05
-5.39812e-05
1.1623e-05
-5.60269e-05
1.21986e-05
-5.70639e-05
1.25982e-05
-5.70341e-05
1.28159e-05
-5.5912e-05
1.28463e-05
-5.36999e-05
1.26805e-05
-5.04209e-05
1.23043e-05
-4.61106e-05
1.16969e-05
-4.08071e-05
1.08311e-05
-3.45408e-05
9.67443e-06
-2.73256e-05
8.1907e-06
-1.91514e-05
6.34187e-06
-9.97625e-06
4.08976e-06
1.43816e-06
-5.69619e-08
4.26161e-09
-2.83385e-07
2.66041e-08
-8.60353e-07
9.34867e-08
-1.93432e-06
2.39287e-07
-3.62411e-06
4.99512e-07
-6.01693e-06
9.09569e-07
-9.16232e-06
1.50083e-06
-1.30642e-05
2.29519e-06
-1.76726e-05
3.29883e-06
-2.2693e-05
4.46254e-06
-2.77909e-05
5.68137e-06
-3.29124e-05
6.89473e-06
-3.79818e-05
8.09603e-06
-4.27969e-05
9.2578e-06
-4.7161e-05
1.03351e-05
-5.08937e-05
1.12909e-05
-5.38392e-05
1.20976e-05
-5.58725e-05
1.27364e-05
-5.69022e-05
1.31947e-05
-5.68711e-05
1.34636e-05
-5.57539e-05
1.35341e-05
-5.35526e-05
1.3394e-05
-5.02894e-05
1.3026e-05
-4.59985e-05
1.24066e-05
-4.0716e-05
1.15061e-05
-3.44708e-05
1.029e-05
-2.72754e-05
8.71977e-06
-1.91191e-05
6.75581e-06
-9.96051e-06
4.35838e-06
1.53289e-06
-6.48862e-08
4.66359e-09
-3.134e-07
2.88808e-08
-9.2812e-07
1.00239e-07
-2.04599e-06
2.53407e-07
-3.77604e-06
5.2372e-07
-6.1986e-06
9.46423e-07
-9.35999e-06
1.55288e-06
-1.32637e-05
2.36522e-06
-1.78576e-05
3.38932e-06
-2.28426e-05
4.57348e-06
-2.79013e-05
5.81341e-06
-3.29904e-05
7.05441e-06
-3.80248e-05
8.29192e-06
-4.28024e-05
9.49689e-06
-4.71283e-05
1.06238e-05
-5.08244e-05
1.16347e-05
-5.37373e-05
1.25002e-05
-5.57441e-05
1.31987e-05
-5.67549e-05
1.37144e-05
-5.67136e-05
1.40347e-05
-5.55952e-05
1.41469e-05
-5.3401e-05
1.40352e-05
-5.01517e-05
1.36792e-05
-4.58795e-05
1.30526e-05
-4.06184e-05
1.21233e-05
-3.43952e-05
1.08545e-05
-2.72209e-05
9.20613e-06
-1.9084e-05
7.13689e-06
-9.94325e-06
4.60589e-06
1.6202e-06
-8.25933e-08
5.44646e-09
-3.71023e-07
3.28256e-08
-1.04684e-06
1.10737e-07
-2.23162e-06
2.73455e-07
-4.02304e-06
5.55596e-07
-6.49461e-06
9.91861e-07
-9.6908e-06
1.6135e-06
-1.36184e-05
2.44372e-06
-1.82272e-05
3.49032e-06
-2.31788e-05
4.69285e-06
-2.81758e-05
5.9413e-06
-3.32175e-05
7.1966e-06
-3.81998e-05
8.46098e-06
-4.29192e-05
9.69994e-06
-4.7185e-05
1.08675e-05
-5.08234e-05
1.19257e-05
-5.36847e-05
1.28436e-05
-5.56486e-05
1.35972e-05
-5.66274e-05
1.41674e-05
-5.65658e-05
1.45376e-05
-5.5439e-05
1.46913e-05
-5.32472e-05
1.46092e-05
-5.00094e-05
1.42677e-05
-4.57549e-05
1.36374e-05
-4.05153e-05
1.26841e-05
-3.43147e-05
1.13688e-05
-2.71624e-05
9.64995e-06
-1.9046e-05
7.48503e-06
-9.92448e-06
4.83213e-06
1.70003e-06
-1.36862e-07
9.06592e-09
-4.96695e-07
4.22777e-08
-1.26131e-06
1.30615e-07
-2.535e-06
3.06086e-07
-4.40603e-06
6.02446e-07
-6.94205e-06
1.0536e-06
-1.01875e-05
1.69051e-06
-1.41602e-05
2.53886e-06
-1.87938e-05
3.6028e-06
-2.3702e-05
4.81142e-06
-2.8629e-05
6.06246e-06
-3.36149e-05
7.33189e-06
-3.85271e-05
8.61881e-06
-4.31635e-05
9.88373e-06
-4.73437e-05
1.10832e-05
-5.09005e-05
1.21806e-05
-5.36888e-05
1.31442e-05
-5.55916e-05
1.39476e-05
-5.65235e-05
1.45682e-05
-5.64303e-05
1.49856e-05
-5.52871e-05
1.51796e-05
-5.30925e-05
1.5127e-05
-4.9863e-05
1.48008e-05
-4.5625e-05
1.41691e-05
-4.04066e-05
1.31952e-05
-3.42292e-05
1.18384e-05
-2.70998e-05
1.00557e-05
-1.9005e-05
7.80346e-06
-9.90411e-06
5.0391e-06
1.77305e-06
-2.66792e-06
8.24465e-07
-4.69645e-06
2.31955e-06
-5.7075e-06
3.51581e-06
-5.63963e-06
4.37778e-06
-4.65609e-06
4.91995e-06
-2.94955e-06
5.18019e-06
-7.16174e-07
5.19288e-06
1.82854e-06
4.9886e-06
4.47116e-06
4.60042e-06
7.01303e-06
4.0644e-06
9.28178e-06
3.42056e-06
1.11427e-05
2.71166e-06
1.25051e-05
1.98068e-06
1.3324e-05
1.26862e-06
1.35982e-05
6.12041e-07
1.33648e-05
4.05134e-08
1.26909e-05
-4.25345e-07
1.16642e-05
-7.74938e-07
1.03832e-05
-1.00748e-06
8.94717e-06
-1.1305e-06
7.29529e-06
-1.13828e-06
5.45182e-06
-1.02471e-06
3.72922e-06
-8.34372e-07
2.32864e-06
-6.31364e-07
1.27676e-06
-4.47562e-07
5.64764e-07
-2.941e-07
1.50815e-07
-1.76074e-07
-3.46528e-08
-9.36276e-08
-7.98664e-08
-4.29939e-08
-1.72354e-08
-6.3046e-08
-2.99844e-06
8.66977e-07
-5.39e-06
2.44287e-06
-6.81333e-06
3.72259e-06
-7.08745e-06
4.67343e-06
-6.30695e-06
5.28598e-06
-4.73376e-06
5.58557e-06
-2.60432e-06
5.62097e-06
-1.30504e-07
5.43197e-06
2.47721e-06
5.0512e-06
5.02242e-06
4.51415e-06
7.33194e-06
3.86111e-06
9.26948e-06
3.13538e-06
1.07414e-05
2.37998e-06
1.16981e-05
1.63598e-06
1.21321e-05
9.40243e-07
1.20728e-05
3.23065e-07
1.15792e-05
-1.9381e-07
1.07315e-05
-5.9827e-07
9.62142e-06
-8.87723e-07
8.34301e-06
-1.06763e-06
6.82839e-06
-1.1275e-06
5.08219e-06
-1.05196e-06
3.4188e-06
-8.81848e-07
2.05918e-06
-6.87332e-07
1.03557e-06
-5.05293e-07
3.42864e-07
-3.48633e-07
-5.90463e-08
-2.24144e-07
-2.38887e-07
-1.33124e-07
-2.85646e-07
-7.25495e-08
-3.67603e-08
-2.95694e-07
-3.34167e-06
9.08919e-07
-6.06082e-06
2.56104e-06
-7.86047e-06
3.90829e-06
-8.5686e-06
4.93575e-06
-8.12915e-06
5.63653e-06
-6.74572e-06
6.00401e-06
-4.73909e-06
6.07375e-06
-2.36129e-06
5.90478e-06
1.87778e-07
5.53866e-06
2.71608e-06
5.00779e-06
5.04852e-06
4.35273e-06
7.04773e-06
3.61759e-06
8.61783e-06
2.84491e-06
9.70504e-06
2.07531e-06
1.02959e-05
1.34555e-06
1.04127e-05
6.86263e-07
1.01069e-05
1.19951e-07
9.45145e-06
-3.40154e-07
8.53293e-06
-6.90293e-07
7.44321e-06
-9.3532e-07
6.11866e-06
-1.06419e-06
4.50857e-06
-1.04613e-06
2.9176e-06
-9.07492e-07
1.61093e-06
-7.29119e-07
6.19165e-07
-5.56718e-07
-5.85588e-08
-4.03268e-07
-4.62488e-07
-2.77269e-07
-6.6227e-07
-1.80794e-07
-7.49839e-07
-1.11761e-07
-6.56983e-08
-8.19176e-07
-3.71826e-06
9.49725e-07
-6.7792e-06
2.67706e-06
-8.90154e-06
4.08738e-06
-1.00016e-05
5.17211e-06
-1.00094e-05
5.9468e-06
-8.96273e-06
6.40491e-06
-7.13655e-06
6.54336e-06
-4.87861e-06
6.40949e-06
-2.41533e-06
6.06528e-06
7.45407e-08
5.54822e-06
2.4094e-06
4.89845e-06
4.452e-06
4.16212e-06
6.10518e-06
3.38032e-06
7.31149e-06
2.59265e-06
8.05208e-06
1.83545e-06
8.34241e-06
1.13934e-06
8.22653e-06
5.27388e-07
7.77057e-06
1.37114e-08
7.05652e-06
-3.9695e-07
6.17701e-06
-7.09331e-07
5.08896e-06
-9.15202e-07
3.6661e-06
-9.75142e-07
2.16632e-06
-8.93865e-07
9.0993e-07
-7.45984e-07
-5.60991e-08
-5.88909e-07
-7.30225e-07
-4.44989e-07
-1.15943e-06
-3.23192e-07
-1.41593e-06
-2.25089e-07
-1.59447e-06
-1.49978e-07
-9.43419e-08
-1.77272e-06
-4.12933e-06
9.89305e-07
-7.56962e-06
2.78996e-06
-1.00293e-05
4.26369e-06
-1.14579e-05
5.40139e-06
-1.18697e-05
6.2272e-06
-1.12727e-05
6.75947e-06
-9.77401e-06
6.99287e-06
-7.70279e-06
6.93635e-06
-5.35302e-06
6.63492e-06
-2.92243e-06
6.13758e-06
-6.08986e-07
5.49966e-06
1.45483e-06
4.77133e-06
3.17187e-06
3.98959e-06
4.48132e-06
3.1925e-06
5.35947e-06
2.41586e-06
5.81522e-06
1.69006e-06
5.88504e-06
1.03869e-06
5.62732e-06
4.76862e-07
5.11697e-06
1.09886e-08
4.44133e-06
-3.60973e-07
3.56808e-06
-6.27009e-07
2.3705e-06
-7.5774e-07
1.03642e-06
-7.62411e-07
-1.4284e-07
-6.89038e-07
-1.08459e-06
-5.77562e-07
-1.77481e-06
-4.55541e-07
-2.25742e-06
-3.41778e-07
-2.60683e-06
-2.45702e-07
-2.91697e-06
-1.67463e-07
-1.03708e-07
-3.23674e-06
-4.57851e-06
1.02752e-06
-8.43528e-06
2.89934e-06
-1.12736e-05
4.43557e-06
-1.30446e-05
5.628e-06
-1.37929e-05
6.50064e-06
-1.36026e-05
7.08053e-06
-1.25359e-05
7.38638e-06
-1.07804e-05
7.42474e-06
-8.62146e-06
7.20894e-06
-6.29601e-06
6.76758e-06
-4.02747e-06
6.15753e-06
-1.96942e-06
5.44572e-06
-2.1224e-07
4.67422e-06
1.17913e-06
3.87732e-06
2.17704e-06
3.09056e-06
2.78382e-06
2.34383e-06
3.02792e-06
1.66149e-06
2.95844e-06
1.05967e-06
2.63928e-06
5.46875e-07
2.14267e-06
1.2499e-07
1.42602e-06
-1.89072e-07
4.33814e-07
-3.75162e-07
-6.74842e-07
-4.56124e-07
-1.70932e-06
-4.72145e-07
-2.59658e-06
-4.44324e-07
-3.30903e-06
-3.83243e-07
-3.86645e-06
-3.01873e-07
-4.3344e-06
-2.1608e-07
-4.79823e-06
-1.35917e-07
-6.55079e-08
-5.27407e-06
-5.06895e-06
1.06416e-06
-9.38229e-06
3.00463e-06
-1.26384e-05
4.60218e-06
-1.47948e-05
5.84957e-06
-1.5894e-05
6.77225e-06
-1.60447e-05
7.3962e-06
-1.53695e-05
7.74828e-06
-1.39958e-05
7.85081e-06
-1.21499e-05
7.72634e-06
-1.00395e-05
7.38893e-06
-7.87068e-06
6.8581e-06
-5.84815e-06
6.18726e-06
-4.0787e-06
5.43504e-06
-2.63253e-06
4.64834e-06
-1.53842e-06
3.86174e-06
-8.01062e-07
3.1037e-06
-4.00249e-07
2.40027e-06
-2.97177e-07
1.76808e-06
-4.40434e-07
1.21729e-06
-7.73473e-07
7.52489e-07
-1.33993e-06
3.89261e-07
-2.15718e-06
1.45328e-07
-3.07067e-06
1.32099e-09
-3.94433e-06
-8.26184e-08
-4.74532e-06
-1.28269e-07
-5.45978e-06
-1.40464e-07
-6.0964e-06
-1.23008e-07
-6.69529e-06
-7.99831e-08
-7.31993e-06
-1.70708e-08
5.37572e-08
-7.9526e-06
-5.60376e-06
1.09903e-06
-1.04167e-05
3.10526e-06
-1.41324e-05
4.76264e-06
-1.67151e-05
6.06505e-06
-1.82106e-05
7.03945e-06
-1.87223e-05
7.7131e-06
-1.83958e-05
8.11304e-06
-1.73807e-05
8.26492e-06
-1.58873e-05
8.20162e-06
-1.40873e-05
7.95292e-06
-1.21211e-05
7.53002e-06
-1.01979e-05
6.95187e-06
-8.46245e-06
6.26165e-06
-6.99235e-06
5.50656e-06
-5.83096e-06
4.72837e-06
-4.98906e-06
3.96835e-06
-4.45395e-06
3.25507e-06
-4.1973e-06
2.60327e-06
-4.17981e-06
2.02429e-06
-4.35701e-06
1.52486e-06
-4.76006e-06
1.1178e-06
-5.40425e-06
8.16276e-07
-6.15729e-06
6.06069e-07
-6.90404e-06
4.58797e-07
-7.62915e-06
3.58707e-07
-8.33476e-06
2.95913e-07
-9.03844e-06
2.61462e-07
-9.76482e-06
2.54227e-07
-1.05558e-05
2.75344e-07
3.15678e-07
-1.13559e-05
-6.18596e-06
1.13184e-06
-1.15444e-05
3.20043e-06
-1.57641e-05
4.91567e-06
-1.88169e-05
6.27276e-06
-2.07521e-05
7.30016e-06
-2.16744e-05
8.02637e-06
-2.17267e-05
8.47942e-06
-2.10717e-05
8.6871e-06
-1.991e-05
8.67931e-06
-1.84211e-05
8.48936e-06
-1.67243e-05
8.1435e-06
-1.49901e-05
7.66384e-06
-1.336e-05
7.07697e-06
-1.19218e-05
6.40582e-06
-1.07373e-05
5.67586e-06
-9.82267e-06
4.93169e-06
-9.18262e-06
4.21957e-06
-8.79735e-06
3.5608e-06
-8.63977e-06
2.96521e-06
-8.67644e-06
2.44172e-06
-8.92584e-06
1.9994e-06
-9.39998e-06
1.64596e-06
-1.00005e-05
1.37403e-06
-1.06414e-05
1.16775e-06
-1.13116e-05
1.01612e-06
-1.20147e-05
9.11149e-07
-1.277e-05
8.45708e-07
-1.36043e-05
8.12765e-07
-1.45512e-05
8.06925e-07
8.23869e-07
-1.55147e-05
-6.81715e-06
1.1621e-06
-1.27685e-05
3.28873e-06
-1.75384e-05
5.05902e-06
-2.11063e-05
6.46962e-06
-2.35261e-05
7.55047e-06
-2.49036e-05
8.33126e-06
-2.53809e-05
8.84097e-06
-2.51231e-05
9.10834e-06
-2.43127e-05
9.16284e-06
-2.31282e-05
9.03459e-06
-2.17097e-05
8.7509e-06
-2.02081e-05
8.34265e-06
-1.87439e-05
7.84182e-06
-1.74148e-05
7.27317e-06
-1.62766e-05
6.64557e-06
-1.5341e-05
5.96973e-06
-1.46335e-05
5.28502e-06
-1.4154e-05
4.63151e-06
-1.38876e-05
4.03199e-06
-1.381e-05
3.497e-06
-1.39265e-05
3.03023e-06
-1.42451e-05
2.63382e-06
-1.47078e-05
2.30809e-06
-1.52559e-05
2.05078e-06
-1.58815e-05
1.85587e-06
-1.65879e-05
1.71614e-06
-1.73894e-05
1.62476e-06
-1.83098e-05
1.57576e-06
-1.93757e-05