/*--------------------------------*- C++ -*----------------------------------*\
| =========                 |                                                 |
| \\      /  F ield         | OpenFOAM: The Open Source CFD Toolbox           |
|  \\    /   O peration     | Version:  dev                                   |
|   \\  /    A nd           | Web:      www.OpenFOAM.org                      |
|    \\/     M anipulation  |                                                 |
\*---------------------------------------------------------------------------*/
FoamFile
{
    version     2.0;
    format      ascii;
    class       surfaceScalarField;
    location    "0.79";
    object      phi;
}
// * * * * * * * * * * * * * * * * * * * * * * * * * * * * * * * * * * * * * //

dimensions      [0 3 -1 0 0 0 0];

internalField   nonuniform List<scalar> 
879
(
-0.151411
0.0147726
-0.165303
0.0138734
-0.178124
0.0128039
-0.189717
0.0115775
-0.199912
0.0101827
-0.208538
0.00861733
-0.215428
0.00688407
-0.220378
0.00494868
-0.223175
0.00279982
-0.223601
0.000433065
-0.221351
-0.00223814
-0.21607
-0.00526468
-0.207416
-0.00863237
-0.195022
-0.012369
-0.178443
-0.0165485
-0.157124
-0.0212855
-0.130197
-0.0268904
-0.0956963
-0.0344604
-0.0495004
-0.0461529
-0.0578496
-0.167978
0.0299998
-0.182272
0.0281491
-0.19548
0.0259947
-0.207436
0.0235184
-0.217968
0.0207026
-0.226912
0.0175517
-0.234087
0.0140533
-0.23931
0.0101704
-0.242395
0.00588722
-0.24315
0.00119502
-0.241412
-0.00396424
-0.236997
-0.00966367
-0.229682
-0.015926
-0.219254
-0.0227721
-0.205507
-0.0302651
-0.188249
-0.0385099
-0.167292
-0.0478114
-0.142701
-0.0590109
-0.115934
-0.0728766
-0.0873788
-0.172426
0.0448131
-0.1864
0.0421043
-0.199385
0.038963
-0.211234
0.0353531
-0.2218
0.0312562
-0.230917
0.0266585
-0.238395
0.0215257
-0.244064
0.0158371
-0.247751
0.00957606
-0.249292
0.00274291
-0.248559
-0.00468528
-0.245428
-0.0127787
-0.239766
-0.0215676
-0.231477
-0.0310361
-0.220519
-0.0411934
-0.206928
-0.0520681
-0.190903
-0.0637998
-0.17308
-0.0767938
-0.154609
-0.0913054
-0.105633
-0.170685
0.0589446
-0.184142
0.0555439
-0.196761
0.051565
-0.2084
0.0469774
-0.218906
0.0417496
-0.228107
0.0358497
-0.235825
0.0292372
-0.241883
0.021892
-0.246109
0.0138042
-0.248355
0.00499504
-0.248521
-0.00450909
-0.246544
-0.0147406
-0.242362
-0.0257292
-0.235962
-0.0374117
-0.2274
-0.0497259
-0.216838
-0.0625975
-0.204631
-0.0759702
-0.191488
-0.0898973
-0.178419
-0.104333
-0.117656
-0.164587
0.0722081
-0.177334
0.0682728
-0.189405
0.0636197
-0.200658
0.0582149
-0.210929
0.052008
-0.220047
0.044957
-0.227845
0.0370286
-0.234152
0.0281959
-0.238805
0.018458
-0.241664
0.0078593
-0.242641
-0.00352187
-0.241708
-0.0156595
-0.238859
-0.0285587
-0.234136
-0.0421099
-0.22766
-0.0561743
-0.219654
-0.070571
-0.210521
-0.0850669
-0.200923
-0.0994562
-0.191753
-0.113461
-0.12565
-0.154838
0.0844896
-0.166748
0.0801659
-0.178139
0.0749945
-0.188868
0.0689292
-0.198783
0.0619094
-0.20772
0.0538834
-0.215514
0.0448142
-0.221996
0.0346742
-0.227006
0.0234686
-0.230402
0.0112602
-0.232093
-0.00182229
-0.232086
-0.0156523
-0.230434
-0.0301918
-0.227209
-0.0453113
-0.222563
-0.0607927
-0.216744
-0.076359
-0.210141
-0.0916346
-0.20334
-0.106218
-0.197104
-0.119656
-0.130782
-0.141869
0.0957118
-0.15286
0.0911404
-0.163482
0.0855998
-0.173595
0.0790273
-0.183056
0.071356
-0.191712
0.0625288
-0.199406
0.0524999
-0.205977
0.0412405
-0.21127
0.0287603
-0.215141
0.0151349
-0.217476
0.000521371
-0.218308
-0.0148065
-0.217756
-0.0307263
-0.215897
-0.0471475
-0.212898
-0.0637648
-0.209004
-0.0802226
-0.204551
-0.0960532
-0.200026
-0.110705
-0.196083
-0.123558
-0.133726
-0.12604
0.105846
-0.136064
0.101149
-0.145852
0.0953718
-0.15528
0.0884391
-0.164212
0.0802746
-0.172508
0.0708131
-0.180018
0.0600002
-0.186584
0.0478015
-0.192051
0.0342263
-0.196285
0.019372
-0.19923
0.0034742
-0.200886
-0.0131388
-0.201339
-0.0302562
-0.200728
-0.0477361
-0.199233
-0.0652341
-0.197073
-0.082352
-0.194514
-0.0985783
-0.191921
-0.113261
-0.189844
-0.125595
-0.134909
-0.107669
0.114896
-0.116716
0.110179
-0.125645
0.104286
-0.134346
0.0971245
-0.142696
0.0886104
-0.150565
0.0786693
-0.157813
0.0672385
-0.164297
0.0542797
-0.169879
0.0398063
-0.17444
0.0239351
-0.177904
0.00694584
-0.180253
-0.0107789
-0.18159
-0.0289021
-0.1821
-0.0472052
-0.181984
-0.0653255
-0.181425
-0.0828812
-0.180592
-0.0993784
-0.179716
-0.114101
-0.179234
-0.126037
-0.134599
-0.0870848
0.122881
-0.0951652
0.118244
-0.103242
0.112346
-0.111211
0.105078
-0.118963
0.0963481
-0.126381
0.086075
-0.133339
0.0741865
-0.139705
0.0606391
-0.145348
0.0454469
-0.150143
0.0287317
-0.153992
0.0108005
-0.15687
-0.00789006
-0.158916
-0.0268404
-0.160376
-0.0457254
-0.161488
-0.0641886
-0.162415
-0.0819259
-0.163219
-0.098542
-0.16396
-0.113324
-0.164919
-0.125039
-0.132988
-0.0645989
0.129855
-0.071754
0.125384
-0.0790008
0.119577
-0.0862524
0.112314
-0.093416
0.103497
-0.100394
0.0930398
-0.107069
0.0808521
-0.113313
0.0668756
-0.118983
0.0511137
-0.123932
0.0336818
-0.128034
0.0149072
-0.131252
-0.00466128
-0.133776
-0.0243012
-0.135956
-0.0435264
-0.138093
-0.0620281
-0.140357
-0.0796346
-0.142723
-0.0961435
-0.145054
-0.110958
-0.147392
-0.122663
-0.130189
-0.0405156
0.135857
-0.0467777
0.13163
-0.053217
0.126
-0.0597619
0.118843
-0.0663371
0.110058
-0.0728765
0.0995663
-0.0792805
0.0872457
-0.0854187
0.0730064
-0.0911298
0.0568212
-0.0962235
0.0387759
-0.100517
0.0192062
-0.103921
-0.0012486
-0.106684
-0.021524
-0.109326
-0.0408652
-0.112223
-0.059108
-0.115598
-0.0762334
-0.119399
-0.0923118
-0.123307
-0.107016
-0.127046
-0.118887
-0.126227
-0.01518
0.140911
-0.0205553
0.136991
-0.0261847
0.131614
-0.0320003
0.124643
-0.037932
0.115975
-0.0439655
0.105587
-0.0500279
0.0932975
-0.0560079
0.0789788
-0.0617517
0.062561
-0.067043
0.0440674
-0.0715719
0.0237395
-0.0751424
0.00233092
-0.0780604
-0.0185925
-0.0809987
-0.037909
-0.0844017
-0.0556828
-0.0885824
-0.0720264
-0.0935751
-0.0872891
-0.0990016
-0.101556
-0.104222
-0.11363
-0.121093
0.0110782
0.144995
0.0066275
0.141427
0.00186131
0.136365
-0.00318609
0.129676
-0.00843184
0.121206
-0.0138282
0.11097
-0.019353
0.0988117
-0.0249448
0.084563
-0.0304994
0.0681115
-0.0359328
0.0495006
-0.0408861
0.0286969
-0.0448351
0.00628839
-0.0480549
-0.0153597
-0.0513591
-0.0345875
-0.0551787
-0.0518417
-0.0598945
-0.0672851
-0.0657142
-0.0814401
-0.0724241
-0.0948133
-0.0791753
-0.106843
-0.114748
0.037525
0.148106
0.0340219
0.144915
0.0302022
0.14017
0.0260961
0.133767
0.0217222
0.125566
0.0171526
0.115527
0.0124173
0.103537
0.0075399
0.089433
0.00257318
0.0730742
-0.00243677
0.0545104
-0.00755251
0.0338165
-0.0123951
0.0111392
-0.0165744
-0.0111678
-0.0205669
-0.0305782
-0.0249428
-0.0474449
-0.0301025
-0.0621006
-0.0364048
-0.0751095
-0.0439704
-0.0872159
-0.0521342
-0.0986443
-0.107162
0.0694751
0.151476
0.0673018
0.150265
0.0647067
0.147495
0.0617604
0.143101
0.058508
0.137004
0.0549645
0.129095
0.051182
0.119297
0.0471996
0.107509
0.0430343
0.0935906
0.0386984
0.0774061
0.0342413
0.0589672
0.0294763
0.0385855
0.0237433
0.0168804
0.0176568
-0.00506878
0.0120518
-0.0249563
0.00647834
-0.0418503
0.000435006
-0.0560323
-0.00653771
-0.068108
-0.0147963
-0.0789251
-0.0242102
-0.0891951
-0.0979283
0.0988138
0.0977401
0.0962015
0.149019
0.0942691
0.145018
0.0919987
0.13926
0.089419
0.131661
0.0865648
0.122139
0.0834638
0.1106
0.0801157
0.0969315
0.0764751
0.0810428
0.0724538
0.0629884
0.0678454
0.0431979
0.0621075
0.0226266
0.0553635
0.00168783
0.0484879
-0.0180638
0.0415541
-0.0348955
0.0344126
-0.0488657
0.0268066
-0.0604733
0.0183948
-0.0704812
0.00869063
-0.0794556
-0.0878411
0.128445
0.127607
0.126381
0.140472
0.124799
0.133229
0.122889
0.124038
0.120655
0.112824
0.118069
0.0995109
0.115039
0.0840701
0.1114
0.0666273
0.106953
0.0476491
0.101537
0.0280509
0.0947334
0.00850459
0.086983
-0.0102964
0.0789937
-0.0268851
0.07084
-0.0406871
0.0624289
-0.0520334
0.0536089
-0.061629
0.044276
-0.0700874
-0.0781681
0.160996
0.160428
0.133784
0.159454
0.125001
0.158055
0.114213
0.156172
0.101388
0.153683
0.0865563
0.150405
0.0699066
0.14615
0.0519085
0.140847
0.0333627
0.134214
0.0151507
0.126326
-0.00239069
0.117825
-0.0183637
0.109046
-0.0318832
0.100127
-0.0430852
0.0911001
-0.05257
0.0820052
-0.0609572
-0.0689522
0.195778
0.19567
0.195046
0.114829
0.193811
0.102618
0.191825
0.0885404
0.188909
0.0728235
0.1849
0.0559233
0.179729
0.0385432
0.173348
0.0215448
0.165685
0.00528993
0.157169
-0.00982639
0.148283
-0.0229722
0.139315
-0.0340885
0.130439
-0.043662
0.121758
-0.0522405
-0.0603304
0.231439
0.230732
0.229189
0.0900822
0.226636
0.0753794
0.222933
0.0596329
0.218039
0.0434466
0.212071
0.0275265
0.204918
0.0124608
0.19677
-0.00165671
0.188251
-0.0144282
0.179741
-0.0255493
0.171479
-0.0353683
0.163552
-0.0442779
-0.0525198
0.266327
0.264073
0.0776359
0.260707
0.0630064
0.256199
0.0479654
0.250649
0.0330905
0.244194
0.0189334
0.236934
0.00562553
0.22931
-0.00677874
0.221794
-0.0180041
0.214612
-0.0281543
0.20778
-0.0374102
-0.0457193
0.302831
0.299779
0.295753
0.0520028
0.290852
0.0380066
0.285303
0.0245011
0.27921
0.0117403
0.272839
-0.000382372
0.266638
-0.0117739
0.260766
-0.0222497
0.255154
-0.0317624
-0.0399675
0.338653
0.334518
0.0421571
0.329927
0.0291107
0.325082
0.0166076
0.320111
0.00461467
0.315237
-0.0068709
0.310585
-0.0175645
0.306018
-0.0271601
-0.0350779
0.382245
0.37861
0.374866
0.0203753
0.371063
0.00844319
0.367235
-0.00301249
0.363418
-0.0137156
0.359488
-0.0231941
-0.0307039
0.426506
0.42347
0.0115053
0.420278
0.000209143
0.416874
-0.0102785
0.413162
-0.0194459
-0.0264963
0.473833
0.470902
0.467563
-0.00690643
0.463788
-0.0156356
-0.0222291
0.512363
0.508437
-0.0116736
-0.0178362
0.545309
-0.0133898
)
;

boundaryField
{
    inlet
    {
        type            calculated;
        value           nonuniform 0();
    }
    outlet
    {
        type            calculated;
        value           nonuniform List<scalar> 
30
(
0.00839368
-0.0863608
-0.13631
-0.166351
-0.183715
-0.191929
-0.193096
-0.188619
-0.179503
-0.166489
-0.150151
-0.13097
-0.109318
-0.0854824
-0.0596833
-0.033406
-0.00135894
0.0346406
0.0728269
0.113174
0.155779
0.201017
0.24944
0.301166
0.355152
0.408992
0.45956
0.504083
0.540902
0.569785
)
;
    }
    flap
    {
        type            calculated;
        value           nonuniform 0();
    }
    upperWall
    {
        type            calculated;
        value           nonuniform 0();
    }
    lowerWall
    {
        type            calculated;
        value           uniform 0;
    }
    frontAndBack
    {
        type            empty;
        value           nonuniform 0();
    }
    procBoundary5to2
    {
        type            processor;
        value           nonuniform List<scalar> 
34
(
0.151997
0.151324
-0.128854
0.149412
0.145841
-0.161157
0.140619
-0.195437
0.13343
0.125098
-0.23148
0.114861
0.10332
-0.267597
0.0913511
-0.304934
0.0797422
0.0660654
-0.34215
0.0555118
-0.385598
0.0455251
0.0327649
-0.429438
0.0233307
-0.476432
0.014131
0.00316976
-0.515771
-0.00346553
-0.549309
-0.00763735
-0.574103
-0.00903268
)
;
    }
    procBoundary5to4
    {
        type            processor;
        value           nonuniform List<scalar> 
18
(
0.136617
0.15273
0.157592
0.156533
0.151305
0.142538
0.130629
0.115888
0.098603
0.0790843
0.0576102
0.0344991
0.0101123
-0.0151766
-0.040649
-0.149822
-0.0711426
-0.0993478
)
;
    }
}


// ************************************************************************* //
