/*--------------------------------*- C++ -*----------------------------------*\
| =========                 |                                                 |
| \\      /  F ield         | OpenFOAM: The Open Source CFD Toolbox           |
|  \\    /   O peration     | Version:  dev                                   |
|   \\  /    A nd           | Web:      www.OpenFOAM.org                      |
|    \\/     M anipulation  |                                                 |
\*---------------------------------------------------------------------------*/
FoamFile
{
    version     2.0;
    format      ascii;
    class       volScalarField;
    location    "0.24";
    object      p;
}
// * * * * * * * * * * * * * * * * * * * * * * * * * * * * * * * * * * * * * //

dimensions      [0 2 -2 0 0 0 0];

internalField   nonuniform List<scalar> 
465
(
-122.211
-124.395
-124.441
-121.802
-116.153
-107.499
-96.2492
-83.1691
-69.2351
-55.4514
-42.6716
-31.4735
-22.1263
-14.3037
-7.72697
-2.79491
0.393276
2.11739
2.58894
1.97406
-123.394
-125.742
-125.911
-123.348
-117.729
-109.059
-97.7554
-84.5881
-70.5348
-56.6027
-43.6558
-32.2901
-22.7962
-14.818
-8.11298
-3.12113
0.127436
1.90997
2.43756
1.93742
-125.806
-128.4
-128.752
-126.289
-120.661
-111.873
-100.372
-86.9551
-72.6224
-58.3992
-45.1678
-33.5427
-23.8166
-15.5861
-8.67285
-3.57363
-0.228446
1.64359
2.25682
1.90623
-129.589
-132.55
-133.177
-130.853
-125.192
-116.187
-104.337
-90.4877
-75.6837
-60.9863
-47.309
-35.288
-25.1996
-16.5992
-9.41749
-4.17736
-0.705051
1.28551
2.01452
1.84317
-134.647
-138.095
-139.08
-136.926
-131.195
-121.876
-109.536
-95.0901
-79.6437
-64.3103
-50.0441
-37.5025
-26.9125
-17.8185
-10.34
-4.92227
-1.29014
0.848159
1.722
1.75325
-140.91
-144.965
-146.387
-144.416
-138.556
-128.813
-115.843
-100.645
-84.4005
-68.2882
-53.3096
-40.1382
-28.8725
-19.2003
-11.4406
-5.79894
-1.97563
0.336641
1.38139
1.63308
-148.168
-152.943
-154.871
-153.078
-147.02
-136.747
-123.026
-106.95
-89.7866
-72.788
-56.9993
-43.0704
-30.9972
-20.742
-12.6851
-6.78926
-2.74899
-0.240186
0.998375
1.48318
-156.093
-161.685
-164.173
-162.537
-156.202
-145.309
-130.754
-113.726
-95.5744
-77.6308
-60.9626
-46.1376
-33.2015
-22.4256
-14.0419
-7.87028
-3.59449
-0.871625
0.579489
1.30465
-164.226
-170.708
-173.789
-172.273
-165.586
-154.018
-138.61
-120.635
-101.488
-82.5922
-64.9892
-49.1693
-35.4433
-24.2099
-15.4743
-9.01493
-4.49332
-1.54507
0.132292
1.09961
-171.986
-179.39
-183.064
-181.632
-174.548
-162.31
-146.12
-127.303
-107.239
-87.4137
-68.8119
-52.0549
-37.7097
-26.0212
-16.936
-10.1922
-5.42423
-2.2464
-0.334938
0.871
-178.693
-186.993
-191.212
-189.853
-182.425
-169.643
-152.83
-133.331
-112.521
-91.7604
-72.25
-54.7673
-39.877
-27.7799
-18.3763
-11.3681
-6.36419
-2.96038
-0.813403
0.622592
-183.565
-192.641
-197.317
-196.103
-188.539
-175.55
-158.342
-138.297
-116.861
-95.3772
-75.1695
-57.1381
-41.8282
-29.4084
-19.7439
-12.5079
-7.28943
-3.67115
-1.29389
0.359091
-186.128
-195.806
-200.847
-199.785
-192.256
-179.325
-162.031
-141.723
-119.882
-97.9829
-77.378
-59.0239
-43.4613
-30.8366
-20.9906
-13.5782
-8.17688
-4.36307
-1.76711
0.0861261
-186.251
-196.182
-201.371
-200.401
-193.081
-180.431
-163.401
-143.214
-121.369
-99.4158
-78.7362
-60.3172
-44.6971
-32.0078
-22.0767
-14.5511
-9.00676
-5.02259
-2.22506
-0.190656
-183.977
-193.686
-198.724
-197.852
-190.977
-178.916
-162.456
-142.733
-121.25
-99.5969
-79.1673
-60.9531
-45.4847
-32.8836
-22.9734
-15.4052
-9.76391
-5.63955
-2.6622
-0.466766
-167.865
-179.55
-188.67
-193.387
-192.636
-186.329
-175.021
-159.33
-140.333
-119.529
-98.5075
-78.6433
-60.9044
-45.8014
-33.4466
-23.6682
-16.1321
-10.4427
-6.21039
-3.07655
-0.739116
-162.642
-173.396
-181.722
-186.01
-185.332
-179.562
-168.98
-154.114
-136.02
-116.166
-96.0921
-77.106
-60.117
-45.6
-33.6573
-24.1289
-16.7061
-11.0236
-6.72073
-3.45861
-0.999086
-173.651
-177.426
-176.671
-171.17
-161.101
-147.008
-129.933
-111.266
-92.4277
-74.6063
-58.6187
-44.8896
-33.5115
-24.3436
-17.1125
-11.4924
-7.15898
-3.8005
-1.2402
-166.819
-161.213
-151.457
-138.136
-122.233
-104.994
-87.6585
-71.2527
-56.4798
-43.7083
-33.024
-24.3128
-17.3443
-11.8393
-7.51602
-4.09499
-1.45607
-149.31
-139.968
-127.629
-113.157
-97.6058
-82.0082
-67.2146
-53.8139
-42.1233
-32.2287
-24.0489
-17.4022
-12.0603
-7.78622
-4.33689
-1.64209
-115.899
-103.136
-89.4857
-75.7804
-62.7107
-50.7654
-40.2217
-31.1725
-23.5738
-17.2938
-12.1554
-7.96693
-4.52279
-1.79517
-81.1014
-69.3172
-57.9767
-47.4874
-38.0968
-29.9087
-22.9151
-17.0315
-12.1288
-8.05851
-4.65128
-1.914
-62.9234
-53.2206
-44.1163
-35.8345
-28.4888
-22.1022
-16.631
-11.9883
-8.06401
-4.72293
-1.99889
-40.7555
-33.5044
-26.9586
-21.1641
-16.1099
-11.7439
-7.98881
-4.74002
-2.05144
-31.158
-25.3559
-20.1279
-15.4867
-11.4075
-7.84004
-4.70626
-2.07412
-19.0186
-14.78
-10.9921
-7.62612
-4.62642
-2.06989
-14.0082
-10.5113
-7.35626
-4.50596
-2.042
-7.0401
-4.35079
-1.99378
-4.16697
-1.92861
-1.84981
)
;

boundaryField
{
    inlet
    {
        type            zeroGradient;
    }
    outlet
    {
        type            fixedValue;
        value           uniform 0;
    }
    flap
    {
        type            zeroGradient;
    }
    upperWall
    {
        type            zeroGradient;
    }
    lowerWall
    {
        type            zeroGradient;
    }
    frontAndBack
    {
        type            empty;
    }
    procBoundary5to2
    {
        type            processor;
        value           nonuniform List<scalar> 
34
(
-156.646
-166.256
-166.256
-164.95
-168.009
-168.009
-155.1
-155.1
-135.468
-126.918
-126.918
-103.679
-92.774
-92.774
-72.8833
-72.8833
-56.8136
-48.5928
-48.5928
-37.4731
-37.4731
-28.8323
-23.7123
-23.7123
-17.8592
-17.8592
-13.189
-9.9788
-9.9788
-6.68729
-6.68729
-3.96061
-3.96061
-1.76058
)
;
    }
    procBoundary5to4
    {
        type            processor;
        value           nonuniform List<scalar> 
18
(
-118.532
-119.526
-121.66
-125.026
-129.534
-135.107
-141.546
-148.536
-155.644
-162.336
-168.002
-171.987
-173.919
-173.769
-171.68
-171.68
-155.275
-150.89
)
;
    }
}


// ************************************************************************* //
