/*--------------------------------*- C++ -*----------------------------------*\
| =========                 |                                                 |
| \\      /  F ield         | OpenFOAM: The Open Source CFD Toolbox           |
|  \\    /   O peration     | Version:  dev                                   |
|   \\  /    A nd           | Web:      www.OpenFOAM.org                      |
|    \\/     M anipulation  |                                                 |
\*---------------------------------------------------------------------------*/
FoamFile
{
    version     2.0;
    format      ascii;
    class       volVectorField;
    location    "3.06";
    object      U;
}
// * * * * * * * * * * * * * * * * * * * * * * * * * * * * * * * * * * * * * //

dimensions      [0 1 -1 0 0 0 0];

internalField   nonuniform List<vector> 
465
(
(9.74113 3.62603e-19 4.99285)
(10.0624 1.73617e-19 4.91136)
(10.1928 3.41975e-19 5.31614)
(10.3614 0 5.74138)
(10.3591 1.62412e-19 4.79789)
(10.5149 -1.29062e-19 5.166)
(10.7068 1.17722e-19 5.5462)
(10.9403 0 5.93438)
(11.2208 1.53835e-19 6.32446)
(10.6289 4.07184e-20 4.65797)
(10.803 -4.11784e-20 4.98982)
(11.01 -2.31117e-19 5.32711)
(11.2536 7.42745e-20 5.66537)
(11.5369 1.4188e-19 5.99865)
(11.8623 -2.14124e-19 6.31957)
(12.2312 0 6.61906)
(10.8706 7.45443e-20 4.49679)
(11.0572 -2.04193e-21 4.79396)
(11.2729 -3.54446e-22 5.0916)
(11.5198 -7.28269e-20 5.38536)
(11.7997 6.72157e-20 5.66994)
(12.113 -7.09017e-20 5.93912)
(12.4596 0 6.18595)
(12.8323 -6.20715e-20 6.40262)
(13.2782 0 6.58513)
(11.0842 -7.32885e-20 4.319)
(11.2784 -1.62793e-21 4.58382)
(11.4978 -7.00006e-20 4.84557)
(11.7435 0 5.10031)
(12.0159 6.83047e-20 5.34348)
(12.3146 0 5.57007)
(12.6383 2.46567e-19 5.77476)
(12.9807 -2.51123e-19 5.95192)
(13.381 0 6.09877)
(11.2705 2.06976e-19 4.12861)
(11.4684 -2.08942e-19 4.36379)
(11.6878 1.16149e-21 4.59351)
(11.929 -2.62277e-19 4.81433)
(12.1916 2.67188e-19 5.02251)
(12.4746 2.49226e-19 5.2141)
(12.7762 -2.53903e-19 5.38515)
(13.0909 5.97889e-20 5.53171)
(13.4526 2.88447e-20 5.65211)
(11.4308 0 3.92894)
(11.6295 -1.96315e-19 4.13732)
(11.8462 1.99124e-19 4.33871)
(12.0808 3.17829e-19 4.53027)
(12.3323 -3.21555e-19 4.70898)
(12.5995 2.42656e-19 4.87182)
(12.8804 -1.1326e-20 5.01592)
(13.1703 -2.40411e-19 5.13854)
(13.4991 1.91332e-19 5.23881)
(11.5667 6.38597e-20 3.72274)
(11.764 1.2787e-19 3.90707)
(11.9762 0 4.08359)
(12.2029 -6.29103e-20 4.24999)
(12.4429 6.18528e-20 4.40389)
(12.6948 -2.96573e-19 4.54303)
(12.9567 -4.87765e-20 4.66534)
(13.2247 2.06505e-19 4.76899)
(13.5253 -2.17294e-19 4.85361)
(11.68 -6.25339e-20 3.51217)
(11.8743 -6.21571e-20 3.67505)
(12.081 1.8026e-19 3.82981)
(12.2991 -5.4419e-19 3.97458)
(12.5277 1.83332e-19 4.10755)
(12.7651 5.89539e-20 4.22704)
(13.0097 2.83617e-19 4.3316)
(13.2583 -4.22836e-19 4.41998)
(13.5348 1.06223e-20 4.49222)
(11.7729 0 3.29895)
(11.9631 -5.93212e-20 3.44276)
(12.1634 -1.7397e-19 3.57849)
(12.3728 2.97184e-19 3.70466)
(12.5902 2.86486e-19 3.8199)
(12.8142 -2.32678e-19 3.92298)
(13.0433 0 4.0129)
(13.2746 0 4.08885)
(13.5304 0 4.15108)
(11.6706 5.77356e-20 2.95084)
(11.8473 -1.71486e-19 3.08436)
(12.0328 2.34377e-19 3.21125)
(12.2263 -2.83647e-19 3.33032)
(12.4271 5.12264e-19 3.44043)
(12.6339 -6.84128e-21 3.54057)
(12.8455 -2.26504e-19 3.62984)
(13.0605 0 3.70757)
(13.2768 0 3.77326)
(13.5145 0 3.82726)
(11.7323 1.65787e-19 2.75106)
(11.9054 -5.05145e-19 2.86938)
(12.0857 3.38305e-19 2.98123)
(12.2724 5.59642e-20 3.08569)
(12.4647 1.62683e-19 3.18188)
(12.6616 -2.22603e-19 3.26907)
(12.8618 -2.7113e-20 3.34661)
(13.0644 0 3.41408)
(13.2672 0 3.47116)
(13.4892 -1.30916e-20 3.5183)
(11.7802 2.15287e-19 2.55007)
(11.9492 -4.34752e-19 2.65469)
(12.1241 1.64907e-19 2.75315)
(12.3041 0 2.84474)
(12.4884 2.12287e-19 2.9288)
(12.676 -2.16545e-19 3.00479)
(12.8659 1.16137e-22 3.07229)
(13.0572 0 3.131)
(13.2482 0 3.18078)
(13.4565 -4.02947e-19 3.22208)
(11.816 -2.12802e-19 2.34849)
(11.9808 0 2.44074)
(12.1503 2.0821e-19 2.52724)
(12.3238 -1.86294e-19 2.60744)
(12.5005 0 2.68085)
(12.6796 2.59522e-20 2.74709)
(12.8601 2.29829e-19 2.80588)
(13.0414 1.965e-19 2.85704)
(13.2219 -4.12518e-19 2.90052)
(13.4181 3.95669e-19 2.93677)
(11.8416 0 2.14674)
(12.002 -2.02489e-19 2.22778)
(12.1662 2.32156e-19 2.30355)
(12.3335 -2.56171e-20 2.3736)
(12.5032 2.01147e-19 2.43759)
(12.6745 -2.05347e-19 2.49526)
(12.8466 -2.5173e-20 2.54642)
(13.0189 0 2.59099)
(13.1901 0 2.62896)
(13.3758 4.00629e-19 2.66078)
(11.8587 -1.96511e-19 1.94505)
(12.0148 3.92764e-21 2.0159)
(12.174 1.75856e-19 2.08196)
(12.3355 0 2.14291)
(12.4986 -1.95924e-19 2.19851)
(12.6629 1.75155e-19 2.24857)
(12.8274 2.46468e-20 2.29298)
(12.9917 0 2.33171)
(13.1547 0 2.36479)
(13.3311 0 2.39266)
(11.8689 -1.6689e-19 1.74352)
(12.0209 3.86132e-19 1.80505)
(12.1753 -1.95201e-19 1.86229)
(12.3314 0 1.91501)
(12.4887 -1.90908e-19 1.96305)
(12.6465 2.84159e-20 2.00627)
(12.8043 5.85901e-19 2.04464)
(12.9615 -7.77236e-19 2.07814)
(13.1173 3.85605e-19 2.10684)
(13.2857 0 2.13113)
(11.8738 -2.12432e-19 1.54201)
(12.0219 0 1.59494)
(12.1719 0 1.64409)
(12.3232 0 1.68931)
(12.4752 0 1.73047)
(12.6273 -3.52521e-20 1.7675)
(12.7792 1.619e-19 1.80038)
(12.9302 -1.77399e-19 1.82914)
(13.0797 0 1.85383)
(13.241 -3.71485e-19 1.87483)
(11.8748 0 1.34051)
(12.0194 2.27878e-20 1.38544)
(12.1654 -1.58457e-19 1.42711)
(12.3124 1.62215e-19 1.46541)
(12.4597 -1.81434e-19 1.50025)
(12.6069 3.92247e-21 1.53159)
(12.7536 2.68768e-20 1.55944)
(12.8992 4.093e-21 1.58384)
(13.0433 4.1733e-21 1.60484)
(13.1986 1.89371e-19 1.62277)
(11.8734 -3.06781e-21 1.13826)
(12.0149 -4.00161e-19 1.17568)
(12.1575 1.57621e-19 1.21036)
(12.3006 2.237e-20 1.2422)
(12.4439 1.11588e-20 1.27115)
(12.5868 2.23521e-20 1.29721)
(12.729 1.65577e-19 1.32037)
(12.8701 -3.87711e-21 1.34069)
(13.0096 -1.85615e-19 1.35822)
(13.1598 1.75277e-19 1.37324)
(11.8709 -1.74056e-19 0.935687)
(12.0097 1.08877e-20 0.96599)
(12.1493 0 0.994041)
(12.2893 1.08702e-20 1.01979)
(12.4292 -1.09128e-20 1.0432)
(12.5685 -1.09168e-20 1.06428)
(12.707 0 1.08303)
(12.8443 0 1.0995)
(12.98 -1.66761e-19 1.11375)
(13.1259 3.47218e-19 1.12601)
(11.8687 1.66741e-19 0.730465)
(12.0053 -1.49198e-19 0.753929)
(12.1426 0 0.775634)
(12.28 1.57583e-19 0.795545)
(12.4171 -1.71724e-19 0.813645)
(12.5536 -1.68582e-19 0.829937)
(12.6892 1.72052e-19 0.844437)
(12.8235 -1.63201e-19 0.85718)
(12.9562 3.40291e-19 0.86821)
(13.0989 -3.3688e-19 0.877722)
(11.8679 0 0.525101)
(12.0029 -2.05886e-20 0.541919)
(12.1383 0 0.557477)
(12.2738 0 0.571755)
(12.4089 1.59245e-19 0.584743)
(12.5433 -1.73037e-19 0.596445)
(12.6766 0 0.606876)
(12.8087 -5.20108e-21 0.616061)
(12.9391 2.59839e-21 0.624033)
(13.0792 -2.59614e-21 0.63094)
(11.8697 -8.06241e-20 0.313078)
(12.0036 5.03007e-21 0.323256)
(12.1379 0 0.332657)
(12.2721 -2.52629e-21 0.341271)
(12.4059 8.5328e-20 0.349097)
(12.539 3.51302e-21 0.35614)
(12.671 -8.20223e-20 0.362412)
(12.8016 -8.29723e-20 0.367935)
(12.9306 7.95285e-20 0.372733)
(13.0692 0 0.376914)
(11.6768 1.97209e-20 0.103392)
(11.806 4.38812e-20 0.107119)
(11.9357 -3.97984e-20 0.110573)
(12.0657 2.47424e-21 0.113749)
(12.1954 -3.93006e-20 0.116643)
(12.3245 7.94813e-20 0.119257)
(12.4528 -7.78243e-22 0.121594)
(12.5798 -3.77195e-20 0.123659)
(12.7054 0 0.125457)
(12.8404 0 0.127035)
(13.5322 0 6.655)
(13.6067 2.39714e-20 6.15526)
(13.8213 -2.2912e-20 6.20008)
(14.0027 2.12838e-20 6.23461)
(13.6549 3.47968e-19 5.6987)
(13.8467 8.35618e-21 5.73587)
(14.0087 -3.56111e-19 5.76478)
(13.6819 -3.59252e-19 5.2779)
(13.8549 3.57211e-19 5.30928)
(14.0009 -3.56368e-19 5.33391)
(13.6917 3.67185e-19 4.88688)
(13.8489 3.55992e-19 4.9138)
(13.9816 -3.55235e-19 4.93516)
(13.6873 3.6239e-19 4.52088)
(13.8312 0 4.54426)
(13.9527 -3.33906e-19 4.56302)
(13.671 0 4.176)
(13.8036 3.50518e-19 4.19651)
(13.9156 -3.49806e-19 4.21313)
(13.6449 -1.12426e-20 3.84909)
(13.7678 0 3.8672)
(13.8716 9.67303e-23 3.88202)
(13.6107 3.60602e-19 3.53751)
(13.7253 -3.43977e-19 3.55358)
(13.822 -1.0536e-20 3.56686)
(13.5703 1.37944e-18 3.23905)
(13.6776 -6.93223e-19 3.25336)
(13.7682 0 3.26528)
(13.5252 -7.30345e-21 2.95179)
(13.6262 -6.76561e-19 2.96454)
(13.7115 5.15579e-21 2.97524)
(13.477 -6.71596e-19 2.67406)
(13.5724 0 2.68541)
(13.6531 -5.05187e-21 2.69501)
(13.4272 0 2.40437)
(13.5178 0 2.41444)
(13.5943 0 2.42302)
(13.3773 0 2.14141)
(13.4636 6.31028e-19 2.1503)
(13.5366 -8.083e-21 2.1579)
(13.3287 6.37963e-19 1.88377)
(13.4114 0 1.89154)
(13.4813 -6.11326e-19 1.89822)
(13.2829 4.85007e-21 1.63045)
(13.3625 -6.04882e-19 1.63716)
(13.4297 6.07014e-19 1.64294)
(13.2413 -3.10677e-19 1.3797)
(13.3182 2.95237e-19 1.38536)
(13.3833 -5.91561e-19 1.39026)
(13.2051 -2.97105e-19 1.13132)
(13.2798 0 1.13598)
(13.3431 0 1.14004)
(13.1762 2.90642e-19 0.881842)
(13.2492 0 0.885469)
(13.311 -2.83283e-19 0.888634)
(13.1551 0 0.633947)
(13.2269 0 0.636598)
(13.2877 2.76161e-19 0.638912)
(13.1443 -1.38219e-19 0.378676)
(13.2151 1.37593e-19 0.380173)
(13.2751 1.05957e-21 0.381458)
(12.9136 6.79094e-20 0.127653)
(12.9827 -6.73395e-20 0.128146)
(13.0413 -6.63481e-20 0.128572)
(14.3329 0 6.27069)
(14.3034 2.42176e-20 5.79895)
(14.6181 2.14286e-20 5.80255)
(14.9638 2.0315e-20 5.76821)
(15.3028 -1.3539e-19 5.69352)
(14.2659 -4.8166e-20 5.36495)
(14.5504 -1.72867e-19 5.37353)
(14.8675 1.4946e-19 5.35399)
(15.1866 9.4748e-21 5.30363)
(15.4901 0 5.22321)
(15.773 1.18516e-19 5.11496)
(14.2219 -1.40813e-19 4.96322)
(14.4802 1.8531e-19 4.97386)
(14.77 -1.61103e-19 4.96275)
(15.0657 1.48623e-19 4.92749)
(15.3528 -8.88397e-21 4.86819)
(15.6275 0 4.7861)
(15.888 -4.61119e-22 4.68303)
(16.1312 0 4.5613)
(14.1723 1.73952e-19 4.58855)
(14.4084 0 4.6001)
(14.674 0 4.59432)
(14.9472 0 4.56908)
(15.2155 8.71438e-21 4.52427)
(15.4763 -4.18e-21 4.46059)
(15.7284 9.31155e-22 4.3792)
(15.9696 -1.01298e-19 4.28161)
(16.1972 1.03337e-19 4.16975)
(14.1178 1.21249e-20 4.23651)
(14.335 -1.14454e-20 4.24851)
(14.5798 0 4.24637)
(14.8327 -1.628e-19 4.22828)
(15.0829 2.91002e-19 4.19398)
(15.3286 -1.34323e-19 4.1439)
(15.5688 -2.23493e-22 4.07875)
(15.8021 -1.62225e-21 3.99957)
(16.0263 -6.2593e-21 3.9077)
(14.0589 -2.00026e-19 3.9035)
(14.26 1.95542e-19 3.91563)
(14.4869 1.54928e-19 3.91614)
(14.7221 -1.52576e-19 3.90341)
(14.956 0 3.87712)
(15.187 0 3.8375)
(15.4149 1.22282e-19 3.785)
(15.6383 -1.20108e-19 3.72032)
(15.8555 0 3.6444)
(13.9965 3.7322e-19 3.58658)
(14.1838 -3.54375e-19 3.59861)
(14.3953 3.52139e-19 3.60104)
(14.615 -3.24425e-19 3.59243)
(14.8344 -1.39671e-19 3.57241)
(15.0521 7.19548e-21 3.54109)
(15.2681 7.0463e-21 3.49872)
(15.4814 1.20485e-19 3.44576)
(15.6905 -1.06535e-19 3.38288)
(13.9316 0 3.28338)
(14.1069 -1.10771e-20 3.2951)
(14.3049 -1.04411e-20 3.29888)
(14.5112 0 3.29344)
(14.7178 -4.58079e-21 3.2784)
(14.9236 0 3.25374)
(15.1287 5.11439e-22 3.21961)
(15.3324 0 3.17629)
(15.5334 0 3.12424)
(13.8652 -3.64861e-19 2.99182)
(14.0301 3.57543e-19 3.00312)
(14.2164 0 3.00781)
(14.4109 -4.94271e-21 3.00479)
(14.6062 0 2.99366)
(14.8013 -2.7233e-19 2.97438)
(14.9965 5.19089e-19 2.94699)
(15.1913 -4.81441e-19 2.91166)
(15.3846 2.35607e-19 2.86869)
(13.7984 5.70952e-21 2.71015)
(13.9542 -1.0908e-20 2.72089)
(14.1303 0 2.72615)
(14.3145 4.84264e-21 2.72495)
(14.4998 -2.88152e-19 2.71691)
(14.6854 2.84662e-19 2.70197)
(14.8718 0 2.68011)
(15.0585 -2.45165e-19 2.65141)
(15.2446 2.2952e-19 2.61607)
(13.7323 3.4883e-19 2.43675)
(13.8802 -3.36677e-19 2.44685)
(14.0474 3.205e-19 2.45238)
(14.2225 -6.1726e-19 2.4525)
(14.3991 5.83261e-19 2.44688)
(14.5763 -2.8212e-19 2.43543)
(14.7548 1.01843e-21 2.41811)
(14.9342 -6.90014e-23 2.39493)
(15.1137 -3.59009e-21 2.36603)
(13.6682 -3.57055e-19 2.17026)
(13.8092 5.28732e-21 2.1796)
(13.9687 0 2.18516)
(14.1359 0 2.18621)
(14.3048 2.83435e-19 2.18246)
(14.4747 -5.44904e-19 2.17381)
(14.6461 2.62353e-19 2.1602)
(14.8189 3.74944e-21 2.14163)
(14.9924 3.51536e-21 2.11815)
(13.6074 3.55957e-19 1.9092)
(13.7424 -1.03738e-20 1.91771)
(13.8952 0 1.9231)
(14.0555 0 1.92475)
(14.2177 2.80175e-19 1.9224)
(14.3812 -2.74536e-19 1.91597)
(14.5465 -9.89524e-22 1.9054)
(14.7135 -3.77536e-21 1.89065)
(14.8816 0 1.87174)
(13.5511 -3.36429e-19 1.65255)
(13.681 3.34887e-19 1.66015)
(13.828 -2.43649e-21 1.6652)
(13.9825 0 1.66717)
(14.139 0 1.66587)
(14.2968 -1.29506e-22 1.66119)
(14.4567 0 1.65309)
(14.6186 3.69528e-21 1.64151)
(14.782 -2.19363e-19 1.62647)
(13.5006 3.28384e-19 1.39848)
(13.6262 -1.61781e-19 1.40507)
(13.7684 4.77697e-21 1.40962)
(13.9179 0 1.4117)
(14.0695 -5.41749e-22 1.41112)
(14.2226 0 1.40781)
(14.378 1.94954e-21 1.4017)
(14.5355 0 1.39276)
(14.6949 -3.47853e-21 1.38098)
(13.4572 0 1.14685)
(13.5793 1.55044e-19 1.15238)
(13.7174 -3.04644e-19 1.15632)
(13.8628 4.16278e-21 1.1583)
(14.0104 4.71932e-21 1.1582)
(14.1597 1.3129e-19 1.15594)
(14.3113 -9.47692e-22 1.15147)
(14.4652 -1.81623e-21 1.14475)
(14.6212 -2.74981e-23 1.13576)
(13.4225 3.20172e-19 0.894)
(13.5418 -1.55369e-19 0.898403)
(13.6767 3.44619e-21 0.901592)
(13.8189 0 0.903306)
(13.9633 1.31533e-19 0.903433)
(14.1095 -1.28449e-19 0.901924)
(14.2581 -9.38342e-22 0.898741)
(14.4092 -1.10195e-19 0.893849)
(14.5625 1.13155e-19 0.887228)
(13.3974 -3.12177e-19 0.64284)
(13.5146 1.52113e-19 0.64612)
(13.6473 -2.25143e-21 0.648558)
(13.7872 -5.3756e-22 0.64995)
(13.9293 0 0.650213)
(14.0733 -4.85639e-22 0.64932)
(14.2197 0 0.647248)
(14.3687 0 0.643971)
(14.52 0 0.639474)
(13.3835 -1.19651e-21 0.383698)
(13.4995 0 0.385696)
(13.6307 5.49825e-22 0.387204)
(13.769 7.88404e-22 0.388058)
(13.9097 -6.31888e-20 0.388225)
(14.0522 6.17081e-20 0.387699)
(14.1972 0 0.386466)
(14.3449 0 0.384507)
(14.4951 0 0.381813)
(13.147 7.51675e-20 0.129411)
(13.2599 -7.73097e-22 0.130261)
(13.3877 -3.22691e-22 0.130936)
(13.5227 -3.37279e-20 0.131368)
(13.6599 0 0.131555)
(13.799 2.33747e-22 0.131498)
(13.9406 0 0.13119)
(14.0848 0 0.13062)
(14.2314 0 0.129782)
)
;

boundaryField
{
    inlet
    {
        type            fixedValue;
        value           nonuniform 0();
    }
    outlet
    {
        type            zeroGradient;
    }
    flap
    {
        type            movingWallVelocity;
        value           nonuniform 0();
    }
    upperWall
    {
        type            noSlip;
    }
    lowerWall
    {
        type            noSlip;
    }
    frontAndBack
    {
        type            empty;
    }
    procBoundary1to0
    {
        type            processor;
        value           nonuniform List<vector> 
18
(
(11.4985 0 3.34301)
(11.5933 0 3.14853)
(11.5933 0 3.14853)
(11.5032 -5.7718e-20 2.81188)
(11.5671 -1.70084e-19 2.62725)
(11.6177 -2.73272e-19 2.44008)
(11.6567 -2.0793e-19 2.2511)
(11.6857 5.12414e-20 2.06087)
(11.7062 0 1.86976)
(11.7198 2.17654e-19 1.67798)
(11.728 3.03641e-21 1.48552)
(11.7321 2.92111e-21 1.29247)
(11.7334 -1.97121e-19 1.09818)
(11.7333 2.80622e-21 0.903206)
(11.7331 -1.04469e-20 0.705291)
(11.7338 1.021e-20 0.507057)
(11.7366 -1.59091e-19 0.302139)
(11.5486 1.93005e-20 0.0993989)
)
;
    }
    procBoundary1to2
    {
        type            processor;
        value           nonuniform List<vector> 
17
(
(16.4095 -9.33432e-20 4.04583)
(16.2395 0 3.80477)
(16.0649 0 3.55844)
(15.8941 -6.47476e-21 3.31095)
(15.7305 6.57944e-21 3.0641)
(15.5753 9.56087e-20 2.81855)
(15.4291 -2.06234e-19 2.57443)
(15.2924 -2.14055e-19 2.33162)
(15.1658 6.57494e-21 2.08991)
(15.0501 0 1.84878)
(14.9463 -4.20961e-19 1.60802)
(14.8555 0 1.36639)
(14.7787 -1.05168e-19 1.12453)
(14.7175 0 0.878886)
(14.6733 0 0.633758)
(14.6472 4.99838e-20 0.378384)
(14.38 2.35983e-20 0.128676)
)
;
    }
    procBoundary1to3
    {
        type            processor;
        value           nonuniform List<vector> 9((9.6744 -3.66044e-19 4.58262) (9.96351 0 4.52851) (10.2342 2.48572e-19 4.44455) (10.4838 -7.99627e-20 4.33486) (10.7106 0 4.20352) (10.9138 7.19262e-20 4.05438) (11.0934 -7.03955e-20 3.89092) (11.25 0 3.71619) (11.3846 1.30471e-19 3.53283));
    }
    procBoundary1to4
    {
        type            processor;
        value           nonuniform List<vector> 
30
(
(9.39928 9.15364e-20 5.03667)
(9.83847 1.77194e-19 5.43312)
(9.83847 1.77194e-19 5.43312)
(9.9743 -1.79651e-19 5.90386)
(10.5759 1.00088e-20 6.18404)
(10.5759 1.00088e-20 6.18404)
(10.8442 -8.71221e-20 6.63882)
(11.5536 0 6.70823)
(11.5536 0 6.70823)
(11.9424 0 7.07393)
(12.6359 0 6.88683)
(12.6359 0 6.88683)
(13.1353 -1.63786e-19 7.11806)
(13.4237 3.90689e-19 7.20652)
(13.7743 0 6.71011)
(13.7743 0 6.71011)
(13.9794 -3.33657e-19 6.75187)
(14.3503 1.90879e-19 6.78395)
(14.68 -2.06649e-20 6.2619)
(14.68 -2.06649e-20 6.2619)
(15.0499 1.24558e-19 6.19979)
(15.3957 -2.68051e-19 6.08411)
(15.6139 -1.40396e-19 5.5807)
(15.6139 -1.40396e-19 5.5807)
(15.8906 3.46796e-22 5.43402)
(16.0325 2.15612e-19 4.98188)
(16.0325 2.15612e-19 4.98188)
(16.2654 -9.82101e-20 4.82761)
(16.3545 5.5286e-21 4.42368)
(16.3545 5.5286e-21 4.42368)
)
;
    }
}


// ************************************************************************* //
