/*--------------------------------*- C++ -*----------------------------------*\
| =========                 |                                                 |
| \\      /  F ield         | OpenFOAM: The Open Source CFD Toolbox           |
|  \\    /   O peration     | Version:  dev                                   |
|   \\  /    A nd           | Web:      www.OpenFOAM.org                      |
|    \\/     M anipulation  |                                                 |
\*---------------------------------------------------------------------------*/
FoamFile
{
    version     2.0;
    format      ascii;
    class       volVectorField;
    location    "4";
    object      Force;
}
// * * * * * * * * * * * * * * * * * * * * * * * * * * * * * * * * * * * * * //

dimensions      [1 1 -2 0 0 0 0];

internalField   uniform (0 0 0);

boundaryField
{
    inlet
    {
        type            calculated;
        value           uniform (0 0 0);
    }
    outlet
    {
        type            calculated;
        value           uniform (0 0 0);
    }
    flap
    {
        type            calculated;
        value           nonuniform List<vector> 
33
(
(3.77551 1.46937e-39 -0.0913043)
(3.75527 6.83424e-22 -0.17896)
(3.73949 -1.69092e-18 -0.254472)
(3.72469 3.34609e-18 -0.304285)
(3.70308 2.49197e-18 -0.334654)
(3.66985 9.54117e-22 -0.350203)
(3.62322 -3.28345e-18 -0.355021)
(3.56241 -2.40805e-18 -0.351443)
(3.48492 -1.62678e-18 -0.341959)
(3.38666 -3.92881e-18 -0.328772)
(3.26092 8.67813e-24 -0.312958)
(3.09588 -4.74881e-19 -0.295091)
(2.86999 3.23736e-18 -0.273192)
(2.53787 1.60154e-18 -0.240693)
(1.97896 1.27398e-21 -0.186282)
(0.0481505 8.28211e-19 0.471117)
(0.0231759 7.99345e-20 0.238339)
(0.00454754 2.10635e-20 0.0656356)
(-0.0770895 3.06864e-18 0.00175265)
(-0.0768542 2.65193e-20 0.00353006)
(-0.076309 -5.22714e-20 0.00495743)
(-0.075616 5.16111e-20 0.00585076)
(-0.075028 5.82943e-24 0.00638576)
(-0.0748654 1.61837e-18 0.00670214)
(-0.0754603 1.62585e-18 0.00692488)
(-0.0771093 -2.06977e-22 0.00715061)
(-0.0799638 -1.63442e-18 0.00744053)
(-0.0838747 5.66812e-20 0.0078212)
(-0.0883481 1.63694e-18 0.00829098)
(-0.0925479 6.24917e-20 0.00881771)
(-0.0963139 1.64532e-18 0.00947644)
(-0.0973894 3.26692e-18 0.00991255)
(-0.0869713 3.49876e-18 0.00933656)
)
;
    }
    upperWall
    {
        type            calculated;
        value           uniform (0 0 0);
    }
    lowerWall
    {
        type            calculated;
        value           uniform (0 0 0);
    }
    frontAndBack
    {
        type            empty;
    }
}


// ************************************************************************* //
