/*--------------------------------*- C++ -*----------------------------------*\
| =========                 |                                                 |
| \\      /  F ield         | OpenFOAM: The Open Source CFD Toolbox           |
|  \\    /   O peration     | Version:  dev                                   |
|   \\  /    A nd           | Web:      www.OpenFOAM.org                      |
|    \\/     M anipulation  |                                                 |
\*---------------------------------------------------------------------------*/
FoamFile
{
    version     2.0;
    format      ascii;
    class       volVectorField;
    location    "4";
    object      Force;
}
// * * * * * * * * * * * * * * * * * * * * * * * * * * * * * * * * * * * * * //

dimensions      [1 1 -2 0 0 0 0];

internalField   uniform (0 0 0);

boundaryField
{
    inlet
    {
        type            calculated;
        value           uniform (0 0 0);
    }
    outlet
    {
        type            calculated;
        value           uniform (0 0 0);
    }
    flap
    {
        type            calculated;
        value           nonuniform List<vector> 
33
(
(3.85297 6.42848e-40 -0.0528297)
(3.84062 6.44082e-19 -0.0917165)
(3.83379 1.65608e-17 -0.12429)
(3.82927 1.17549e-38 -0.140788)
(3.82144 -3.72633e-23 -0.14494)
(3.804 3.67237e-23 -0.139701)
(3.77425 1.62495e-17 -0.128208)
(3.73113 -1.26571e-18 -0.112516)
(3.6721 -1.62198e-17 -0.0954727)
(3.5927 -3.18524e-17 -0.0797844)
(3.48498 8.31523e-24 -0.0667755)
(3.33558 -4.00041e-24 -0.0574059)
(3.11959 -2.76286e-22 -0.0507711)
(2.78268 -3.82672e-24 -0.0433856)
(2.1715 -1.67654e-22 -0.0317071)
(0.0110777 2.68635e-22 0.48261)
(0.00527491 9.07123e-23 0.278539)
(-5.24171e-05 -7.97129e-18 0.0888107)
(-0.080685 6.91741e-21 0.000913382)
(-0.0797146 -6.46802e-26 0.00170663)
(-0.0783478 -5.93214e-24 0.00222351)
(-0.0769686 -3.58732e-43 0.00242292)
(-0.0759781 1.63166e-17 0.00241277)
(-0.0757544 1.63533e-17 0.00227933)
(-0.0765813 1.64206e-17 0.00209157)
(-0.0785564 -1.98549e-23 0.00189616)
(-0.0814576 1.30067e-23 0.00171875)
(-0.0847819 1.64135e-17 0.00158562)
(-0.0879397 1.64026e-17 0.00153185)
(-0.0902887 1.51886e-20 0.00161359)
(-0.091199 1.53353e-20 0.00182725)
(-0.0881426 2.16792e-25 0.00206406)
(-0.0731431 2.14939e-23 0.00213353)
)
;
    }
    upperWall
    {
        type            calculated;
        value           uniform (0 0 0);
    }
    lowerWall
    {
        type            calculated;
        value           uniform (0 0 0);
    }
    frontAndBack
    {
        type            empty;
    }
}


// ************************************************************************* //
