/*--------------------------------*- C++ -*----------------------------------*\
| =========                 |                                                 |
| \\      /  F ield         | OpenFOAM: The Open Source CFD Toolbox           |
|  \\    /   O peration     | Version:  dev                                   |
|   \\  /    A nd           | Web:      www.OpenFOAM.org                      |
|    \\/     M anipulation  |                                                 |
\*---------------------------------------------------------------------------*/
FoamFile
{
    version     2.0;
    format      ascii;
    class       volScalarField;
    location    "4";
    object      p;
}
// * * * * * * * * * * * * * * * * * * * * * * * * * * * * * * * * * * * * * //

dimensions      [0 2 -2 0 0 0 0];

internalField   nonuniform List<scalar> 
2790
(
143.754
143.579
143.754
144.243
144.946
145.822
146.868
148.083
149.462
150.999
152.688
154.521
156.49
158.585
160.79
163.088
165.454
167.859
170.266
172.631
174.904
177.028
178.945
180.595
181.93
182.914
183.539
183.79
183.878
183.977
143.571
143.494
143.691
144.178
144.878
145.751
146.793
148.003
149.375
150.904
152.583
154.407
156.366
158.449
160.644
162.931
165.288
167.686
170.09
172.456
174.736
176.874
178.811
180.487
181.85
182.859
183.492
183.74
183.89
184.087
143.385
143.379
143.594
144.072
144.759
145.62
146.648
147.84
149.191
150.697
152.35
154.143
156.069
158.115
160.27
162.514
164.827
167.182
169.544
171.875
174.128
176.253
178.195
179.899
181.317
182.413
183.182
183.661
184.021
184.398
143.18
143.206
143.434
143.902
144.574
145.42
146.429
147.598
148.922
150.396
152.013
153.765
155.643
157.637
159.734
161.915
164.162
166.447
168.741
171.008
173.208
175.296
177.224
178.949
180.432
181.651
182.617
183.375
184
184.619
142.945
142.987
143.222
143.682
144.339
145.164
146.149
147.288
148.578
150.011
151.581
153.28
155.098
157.025
159.048
161.15
163.311
165.508
167.713
169.895
172.018
174.048
175.946
177.679
179.219
180.556
181.699
182.676
183.488
184.244
142.677
142.724
142.961
143.411
144.049
144.85
145.805
146.908
148.155
149.54
151.054
152.69
154.437
156.286
158.222
160.229
162.289
164.38
166.477
168.553
170.579
172.526
174.368
176.079
177.642
179.05
180.304
181.408
182.3
183.072
142.373
142.42
142.654
143.092
143.707
144.479
145.399
146.461
147.66
148.988
150.438
152.001
153.667
155.425
157.262
159.16
161.104
163.072
165.043
166.992
168.896
170.733
172.483
174.128
175.657
177.065
178.344
179.478
180.362
181.068
142.032
142.077
142.303
142.725
143.316
144.055
144.936
145.951
147.095
148.359
149.737
151.219
152.794
154.45
156.175
157.952
159.764
161.592
163.417
165.216
166.97
168.661
170.275
171.798
173.223
174.546
175.752
176.82
177.623
178.203
141.655
141.695
141.911
142.313
142.876
143.58
144.416
145.38
146.463
147.658
148.956
150.348
151.822
153.367
154.968
156.61
158.276
159.946
161.603
163.227
164.799
166.303
167.725
169.058
170.296
171.434
172.459
173.353
173.991
174.383
141.244
141.276
141.479
141.86
142.392
143.056
143.845
144.751
145.768
146.888
148.1
149.394
150.759
152.182
153.649
155.143
156.647
158.142
159.609
161.029
162.381
163.65
164.819
165.882
166.832
167.666
168.374
168.954
169.312
169.424
140.798
140.823
141.009
141.366
141.864
142.487
143.224
144.07
145.016
146.054
147.174
148.364
149.612
150.905
152.227
153.561
154.889
156.19
157.444
158.629
159.723
160.703
161.551
162.252
162.795
163.174
163.385
163.45
163.34
163.019
140.32
140.336
140.504
140.834
141.297
141.875
142.557
143.339
144.211
145.163
146.185
147.265
148.389
149.544
150.712
151.875
153.013
154.103
155.122
156.043
156.838
157.476
157.929
158.167
158.163
157.896
157.359
156.596
155.68
154.634
139.811
139.817
139.966
140.268
140.694
141.223
141.849
142.563
143.356
144.219
145.139
146.104
147.099
148.109
149.115
150.098
151.034
151.898
152.661
153.291
153.751
153.998
153.983
153.654
152.949
151.804
150.171
148.072
145.695
143.248
139.273
139.27
139.398
139.67
140.056
140.536
141.102
141.746
142.459
143.228
144.043
144.888
145.75
146.61
147.449
148.243
148.969
149.595
150.087
150.406
150.502
150.316
149.775
148.786
147.23
144.955
141.781
137.55
132.363
126.608
138.709
138.695
138.802
139.042
139.387
139.817
140.322
140.894
141.523
142.197
142.903
143.627
144.352
145.058
145.725
146.328
146.836
147.217
147.43
147.425
147.141
146.499
145.397
143.692
141.186
137.582
132.428
125.012
114.384
98.72
4.03381
4.00429
3.91852
3.78048
3.612
3.43249
3.25353
3.08162
2.92066
2.77266
2.63774
2.51485
2.40202
2.29607
2.19359
2.09188
1.98915
1.88406
1.7752
1.66122
1.54123
1.41485
1.28184
1.14172
0.993596
0.83639
0.669518
0.49287
0.306384
0.110117
4.0025
3.9632
3.87163
3.7348
3.57197
3.39917
3.22634
3.05955
2.90281
2.75828
2.62638
2.5064
2.39639
2.29288
2.19211
2.09146
1.98952
1.88508
1.77669
1.66291
1.54293
1.41665
1.28408
1.14457
0.996743
0.839416
0.672115
0.494929
0.307455
0.108161
3.95567
3.90661
3.80947
3.67469
3.51894
3.35454
3.18946
3.02931
2.87826
2.7386
2.61062
2.4937
2.38694
2.28711
2.18934
2.09093
1.99096
1.88833
1.78112
1.66757
1.54707
1.42027
1.28784
1.149
1.00167
0.844228
0.676321
0.498499
0.310373
0.108056
3.90148
3.84572
3.745
3.61324
3.46487
3.30889
3.15156
2.99813
2.85302
2.71847
2.59438
2.48091
2.37793
2.28155
2.18622
2.08951
1.99142
1.89101
1.78576
1.67341
1.55329
1.4265
1.29424
1.15565
1.00813
0.849449
0.679732
0.50035
0.311239
0.108079
3.85462
3.79614
3.69507
3.56776
3.42653
3.27788
3.12699
2.97888
2.83848
2.70806
2.58615
2.47335
2.37255
2.27976
2.18683
2.0912
1.99378
1.89412
1.78951
1.67771
1.55841
1.43269
1.3013
1.16297
1.01502
0.855343
0.683701
0.502003
0.311108
0.107038
3.83228
3.77418
3.67605
3.55363
3.41787
3.27415
3.12746
2.98268
2.84455
2.71594
2.59612
2.48441
2.3808
2.28453
2.19102
2.09571
1.9984
1.89853
1.79399
1.68289
1.56475
1.44016
1.30929
1.17066
1.02177
0.860717
0.687105
0.502439
0.308479
0.104528
3.8509
3.79427
3.70016
3.57996
3.44493
3.30143
3.155
3.01038
2.87173
2.74156
2.6199
2.5061
2.39937
2.29878
2.20159
2.10415
2.00539
1.90431
1.79914
1.68831
1.57113
1.4476
1.31719
1.17822
1.02837
0.86582
0.689942
0.501637
0.303738
0.101389
3.92462
3.8667
3.77042
3.64467
3.50307
3.35375
3.20285
3.05488
2.91305
2.77907
2.65328
2.53481
2.42311
2.31755
2.2157
2.11481
2.0135
1.91057
1.80448
1.69377
1.57749
1.45498
1.32511
1.18597
1.03529
0.871202
0.692542
0.499699
0.29787
0.0986494
4.06016
3.99085
3.87958
3.73711
3.58057
3.41962
3.26033
3.10632
2.95963
2.82109
2.69048
2.56668
2.44956
2.33876
2.23188
2.12688
2.02238
1.91723
1.81004
1.69939
1.584
1.46255
1.33337
1.19427
1.04295
0.877309
0.695437
0.497496
0.291972
0.0961071
4.25081
4.15173
4.00959
3.83985
3.66218
3.48674
3.31803
3.15777
3.00648
2.86352
2.72778
2.59908
2.47724
2.36118
2.24924
2.1398
2.03175
1.92411
1.8157
1.70509
1.59062
1.47039
1.34217
1.20347
1.05183
0.884693
0.699235
0.495574
0.286099
0.0937097
4.47226
4.32176
4.13258
3.93031
3.73216
3.54396
3.36781
3.20302
3.04823
2.9023
2.76369
2.63124
2.50481
2.38381
2.26697
2.15304
2.04118
1.93082
1.8211
1.71057
1.5972
1.4785
1.35168
1.21391
1.06243
0.89407
0.704973
0.495303
0.2814
0.0917183
4.68072
4.47417
4.22839
3.98963
3.77376
3.57987
3.40259
3.23815
3.08419
2.93817
2.79773
2.66195
2.53126
2.40574
2.28439
2.16602
2.05012
1.93675
1.82559
1.7153
1.6034
1.48675
1.36199
1.22588
1.07528
0.906223
0.713708
0.497931
0.278969
0.0904333
4.86747
4.5506
4.25027
3.99343
3.77578
3.58811
3.41833
3.25983
3.11103
2.9688
2.82883
2.69029
2.55549
2.42598
2.30076
2.17814
2.05786
1.94101
1.82829
1.71856
1.60881
1.49503
1.37322
1.23976
1.09099
0.921985
0.726441
0.50443
0.279454
0.0900971
4.917
4.41879
4.10498
3.88921
3.70893
3.55504
3.40989
3.265
3.12663
2.99363
2.85719
2.71584
2.57624
2.44329
2.31539
2.18895
2.06371
1.94258
1.8281
1.71958
1.61308
1.50337
1.3857
1.25606
1.11028
0.942318
0.744269
0.515718
0.283288
0.0908654
4.39118
3.74031
3.63585
3.66421
3.57234
3.48023
3.38201
3.25387
3.12915
3.01383
2.88549
2.73916
2.59189
2.45603
2.32781
2.19839
2.06702
1.94012
1.82352
1.71731
1.61584
1.51187
1.39975
1.27532
1.13396
0.968309
0.768478
0.532916
0.291061
0.0929135
138.109
138.084
138.168
138.376
138.678
139.055
139.496
139.993
140.536
141.111
141.706
142.304
142.888
143.437
143.927
144.331
144.617
144.747
144.673
144.337
143.665
142.561
140.89
138.466
135.002
130.042
122.772
111.495
91.8056
38.0571
137.466
137.429
137.49
137.663
137.92
138.241
138.616
139.035
139.488
139.962
140.441
140.91
141.348
141.735
142.044
142.246
142.306
142.181
141.818
141.154
140.102
138.553
136.354
133.287
129.024
123.046
114.463
101.701
83.9357
58.6395
136.786
136.736
136.772
136.909
137.12
137.383
137.69
138.029
138.39
138.759
139.121
139.457
139.748
139.971
140.098
140.099
139.934
139.559
138.917
137.94
136.537
134.593
131.952
128.402
123.647
117.281
108.797
97.5946
84.3072
69.3021
136.068
136.006
136.016
136.116
136.279
136.484
136.72
136.978
137.246
137.509
137.752
137.955
138.099
138.159
138.107
137.909
137.527
136.914
136.011
134.749
133.039
130.77
127.8
123.948
118.989
112.664
104.72
94.8603
83.0555
69.0466
135.314
135.24
135.224
135.286
135.4
135.545
135.711
135.886
136.06
136.217
136.342
136.414
136.412
136.313
136.086
135.699
135.111
134.276
133.138
131.628
129.665
127.147
123.956
119.948
114.962
108.822
101.36
92.3635
81.6847
69.5868
134.527
134.439
134.397
134.421
134.486
134.571
134.666
134.759
134.839
134.891
134.898
134.841
134.698
134.445
134.052
133.487
132.71
131.675
130.331
128.615
126.453
123.76
120.44
116.385
111.479
105.605
98.6616
90.5656
81.3102
71.3147
133.708
133.608
133.539
133.524
133.54
133.565
133.589
133.601
133.588
133.537
133.43
133.248
132.97
132.571
132.022
131.293
130.345
129.136
127.619
125.738
123.43
120.627
117.254
113.233
108.488
102.951
96.5786
89.367
81.3556
72.8746
132.86
132.747
132.652
132.599
132.566
132.532
132.486
132.417
132.315
132.164
131.947
131.645
131.239
130.703
130.012
129.134
128.036
126.679
125.022
123.016
120.611
117.754
114.389
110.463
105.931
100.76
94.9424
88.4999
81.4781
74.141
131.987
131.861
131.74
131.649
131.568
131.475
131.361
131.215
131.025
130.778
130.456
130.042
129.516
128.856
128.035
127.027
125.8
124.322
122.556
120.463
118.003
115.136
111.824
108.033
103.741
98.9356
93.6267
87.8482
81.6493
75.2493
131.09
130.952
130.806
130.679
130.55
130.401
130.221
130
129.727
129.388
128.968
128.45
127.814
127.04
126.106
124.985
123.652
122.077
120.231
118.083
115.602
112.761
109.534
105.903
101.859
97.4043
92.5582
87.359
81.8557
76.2262
130.176
130.026
129.855
129.692
129.518
129.315
129.071
128.779
128.428
128.003
127.492
126.877
126.142
125.268
124.235
123.019
121.599
119.952
118.052
115.876
113.404
110.614
107.494
104.035
100.237
96.1109
91.6813
86.9853
82.0678
77.0715
129.246
129.086
128.891
128.694
128.477
128.222
127.919
127.559
127.134
126.63
126.035
125.334
124.511
123.549
122.431
121.138
119.652
117.952
116.02
113.84
111.397
108.678
105.677
102.392
98.8318
95.0098
90.9511
86.6905
82.2672
77.7962
128.308
128.137
127.92
127.69
127.432
127.128
126.769
126.347
125.853
125.277
124.607
123.828
122.928
121.891
120.704
119.349
117.813
116.079
114.135
111.968
109.57
106.933
104.058
100.946
97.6096
94.0642
90.334
86.4499
82.4457
78.4142
127.365
127.184
126.946
126.686
126.389
126.04
125.628
125.149
124.593
123.952
123.214
122.367
121.401
120.302
119.058
117.656
116.085
114.334
112.392
110.252
107.91
105.363
102.614
99.6692
96.5406
93.2451
89.8048
86.2467
82.5994
78.9382
126.423
126.233
125.976
125.688
125.355
124.963
124.504
123.972
123.361
122.661
121.863
120.958
119.936
118.786
117.497
116.062
114.47
112.713
110.786
108.683
106.405
103.95
101.325
98.5382
95.601
92.5299
89.3449
86.0693
82.727
79.3798
125.487
125.29
125.015
124.701
124.335
123.905
123.403
122.824
122.162
121.411
120.562
119.607
118.539
117.348
116.026
114.568
112.965
111.214
109.31
107.252
105.041
102.68
100.174
97.5341
94.7712
91.9007
88.9402
85.9096
82.8292
79.7493
124.565
124.36
124.07
123.732
123.336
122.871
122.33
121.709
121.004
120.208
119.316
118.32
117.214
115.991
114.647
113.175
111.571
109.833
107.959
105.95
103.808
101.537
99.145
96.6406
94.0355
91.3436
88.5802
85.7625
82.9074
80.0563
123.661
123.451
123.146
122.787
122.365
121.869
121.293
120.636
119.893
119.059
118.13
117.1
115.965
114.719
113.359
111.882
110.284
108.566
106.727
104.768
102.694
100.511
98.2243
95.8442
93.3812
90.8478
88.2574
85.6246
82.9638
80.3092
122.784
122.568
122.251
121.873
121.427
120.904
120.298
119.609
118.834
117.968
117.009
115.952
114.795
113.533
112.165
110.688
109.103
107.408
105.605
103.699
101.691
99.5898
97.4011
95.1339
92.7982
90.405
87.9662
85.4941
83.0011
80.5155
121.939
121.719
121.391
120.996
120.53
119.983
119.352
118.635
117.833
116.941
115.958
114.88
113.707
112.435
111.064
109.593
108.023
106.355
104.59
102.734
100.79
98.7654
96.6662
94.5008
92.2785
90.009
87.7027
85.3703
83.0222
80.6821
121.134
120.911
120.573
120.164
119.68
119.112
118.459
117.72
116.895
115.982
114.98
113.887
112.703
111.426
110.057
108.595
107.043
105.403
103.676
101.869
99.9847
98.0302
96.012
93.9379
91.816
89.6551
87.4643
85.2529
83.0299
80.815
120.377
120.15
119.805
119.383
118.884
118.299
117.627
116.87
116.026
115.096
114.08
112.977
111.786
110.508
109.143
107.694
106.161
104.549
102.859
101.097
99.2685
97.3781
95.4328
93.4396
91.4061
89.3401
87.2497
85.1428
83.0274
80.92
119.674
119.445
119.093
118.661
118.149
117.549
116.862
116.089
115.231
114.289
113.262
112.151
110.957
109.68
108.323
106.887
105.375
103.789
102.135
100.416
98.6369
96.8041
94.9235
93.0016
91.0453
89.0616
87.0577
85.0407
83.0174
81.0017
119.034
118.803
118.446
118.004
117.481
116.869
116.17
115.385
114.515
113.563
112.529
111.414
110.219
108.946
107.598
106.176
104.683
103.124
101.502
99.8211
98.0872
96.3054
94.4815
92.6216
90.732
88.8191
86.8892
84.9488
83.0038
81.066
118.465
118.233
117.87
117.421
116.887
116.266
115.557
114.762
113.884
112.924
111.885
110.768
109.574
108.307
106.967
105.559
104.085
102.55
100.957
99.3103
97.6157
95.8782
94.1032
92.2964
90.4635
88.6105
86.743
84.8669
82.9875
81.1146
117.976
117.742
117.373
116.917
116.376
115.746
115.029
114.227
113.343
112.379
111.337
110.219
109.028
107.766
106.435
105.04
103.583
102.069
100.501
98.8845
97.2237
95.5238
93.7901
92.0278
90.2423
88.4391
86.6234
84.8005
82.9754
81.1564
117.576
117.339
116.964
116.499
115.951
115.315
114.592
113.784
112.895
111.927
110.884
109.767
108.578
107.322
106
104.616
103.174
101.678
100.132
98.5396
96.9065
95.2373
93.537
91.8106
90.0631
88.2997
86.5252
84.7445
82.9621
81.1849
117.278
117.034
116.65
116.179
115.626
114.985
114.257
113.445
112.553
111.584
110.539
109.423
108.238
106.986
105.672
104.297
102.868
101.386
99.8566
98.2841
96.673
95.028
93.3539
91.6555
89.9377
88.2052
86.4627
84.7149
82.9661
81.2223
117.097
116.827
116.425
115.949
115.394
114.75
114.019
113.205
112.312
111.342
110.298
109.183
108
106.753
105.444
104.077
102.656
101.184
99.6668
98.1078
96.5116
94.8828
93.2262
91.5465
89.8482
88.136
86.4143
84.6876
82.96
81.2362
117.076
116.753
116.327
115.843
115.284
114.637
113.903
113.087
112.192
111.222
110.179
109.065
107.885
106.641
105.336
103.974
102.559
101.095
99.5857
98.0358
96.4495
94.8315
93.1862
91.5184
89.8325
88.133
86.4244
84.7107
82.9963
81.285
-46.7938
-23.2944
-6.22147
39.1616
31.532
18.7974
52.7519
40.9783
30.0614
53.6255
43.7496
36.1404
57.721
49.8713
43.4679
61.815
55.2592
49.6687
64.8479
59.2646
54.4733
67.2648
62.4898
58.3961
69.3085
65.1844
61.6544
71.0346
67.4297
64.3517
72.4858
69.3014
66.5895
73.708
70.8687
68.4555
74.7388
72.1854
70.0186
75.6084
73.2943
71.3326
76.3417
74.2295
72.4403
76.9593
75.019
73.3758
77.4784
75.6852
74.1666
77.9135
76.2467
74.8347
78.2768
76.7191
75.3985
78.5788
77.1153
75.8734
78.8285
77.4464
76.2722
79.0342
77.7222
76.606
79.2021
77.9503
76.8836
79.3399
78.1393
77.1146
79.4499
78.2923
77.3029
79.5433
78.4213
77.4605
79.6113
78.5178
77.5805
79.6819
78.6101
77.6893
79.7152
78.659
77.7515
79.7844
78.7418
77.8406
1.25256
1.40305
2.61767
3.54855
3.39581
3.33244
3.35057
3.2365
3.12013
3.03545
2.92324
2.76295
2.59932
2.46123
2.33806
2.20751
2.06754
1.93183
1.81245
1.71051
1.61702
1.52113
1.41625
1.29864
1.16344
1.00174
0.801045
0.557721
0.303643
0.0965563
5.87597
3.24988
4.56009
4.04189
2.72358
2.94689
3.50151
3.28662
3.07692
3.04034
2.98286
2.7892
2.5915
2.45411
2.3489
2.22085
2.06593
1.91491
1.7913
1.69719
1.61671
1.53221
1.43637
1.32736
1.20052
1.04493
0.844702
0.592843
0.322675
0.10222
16.559
8.58596
5.87722
3.59499
3.17274
4.31524
4.26525
3.09954
2.6758
3.00919
3.19088
2.8685
2.56551
2.41763
2.35851
2.2426
2.05956
1.88223
1.75322
1.67417
1.61563
1.54689
1.46121
1.36233
1.24648
1.09976
0.901998
0.641485
0.350681
0.110451
25.9333
16.4699
10.8577
7.2408
5.49266
4.91018
3.77258
3.04193
3.15139
3.83183
3.67648
2.79047
2.2992
2.24818
2.38941
2.31802
2.06573
1.83449
1.69394
1.64038
1.61837
1.56964
1.4922
1.4041
1.30282
1.16884
0.976086
0.70765
0.391679
0.122217
34.5883
25.2557
18.2612
13.1873
9.67004
7.28096
5.45404
4.37181
3.9368
3.85711
3.38777
2.77701
2.43743
2.55156
2.69673
2.4449
1.98719
1.67876
1.55474
1.57588
1.63005
1.60606
1.52894
1.45215
1.37127
1.25497
1.06884
0.793866
0.452676
0.138976
42.0749
33.5649
26.0298
19.8732
15.1377
11.6107
8.98535
7.08929
5.77336
4.8506
4.03779
3.33613
2.85636
2.68278
2.56047
2.30327
1.95713
1.69973
1.60706
1.66508
1.72154
1.66145
1.55877
1.49698
1.44816
1.35783
1.18077
0.904247
0.551997
0.163096
48.1814
40.7473
33.3177
26.7212
21.3175
17.0098
13.5788
10.8671
8.7706
7.16346
5.87229
4.80245
3.9749
3.40661
2.98016
2.58022
2.18209
1.86706
1.70346
1.67894
1.69117
1.66639
1.62521
1.60757
1.58582
1.5043
1.32283
1.03943
0.685238
0.198488
53.1517
46.7388
39.8013
33.2596
27.6088
22.8384
18.8213
15.4728
12.7291
10.5003
8.66482
7.13683
5.89886
4.93637
4.17619
3.52758
2.95387
2.49321
2.18676
2.02034
1.92718
1.84937
1.7788
1.72941
1.6814
1.58748
1.40513
1.11678
0.75237
0.12561
57.2016
51.6537
45.3555
39.1516
33.5616
28.6323
24.3013
20.5345
17.3039
14.5583
12.2255
10.2455
8.5862
7.21856
6.08859
5.13229
4.31632
3.64968
3.1466
2.79059
2.53375
2.3287
2.15604
2.01273
1.87827
1.71135
1.47123
1.13237
0.684829
-0.129393
60.5041
55.663
50.0111
44.2708
38.9314
34.0656
29.645
25.665
22.1273
19.0148
16.2922
13.9222
11.8754
10.1232
8.62731
7.3448
6.24682
5.32546
4.57789
3.98647
3.51552
3.12687
2.79579
2.5068
2.2358
1.94557
1.59699
1.15569
0.580683
-0.365352
63.2156
58.9473
53.8848
48.6343
43.6345
38.9634
34.6079
30.5786
26.8953
23.5636
20.5727
17.904
15.5387
13.4564
11.6318
10.0363
8.64657
7.44851
6.43162
5.57841
4.86099
4.24792
3.71273
3.23332
2.78349
2.32915
1.83277
1.25576
0.552694
-0.457849
65.4611
61.6597
57.1096
52.3225
47.6851
43.2709
39.0724
35.1054
31.398
27.9682
24.82
21.9494
19.3483
17.0058
14.9069
13.0339
11.3695
9.89994
8.61289
7.49208
6.51497
5.65535
4.88782
4.18836
3.53063
2.8835
2.21262
1.48213
0.656365
-0.392486
67.3339
63.9171
59.8043
55.4336
51.1457
47.0066
43.0095
39.1701
35.5184
32.078
28.8613
25.8735
23.1149
20.5825
18.2696
16.1663
14.2616
12.5447
11.0045
9.62686
8.39366
7.28334
6.2732
5.3402
4.45959
3.60374
2.74306
1.84821
0.895889
-0.198433
68.9046
65.808
62.0668
58.0615
54.0946
50.2241
46.4421
42.7619
39.2122
35.8181
32.596
29.5562
26.7047
24.0441
21.5737
19.2896
17.186
15.2557
13.49
11.8778
10.4048
9.05366
7.80506
6.63855
5.53216
4.46228
3.40467
2.33713
1.24624
0.0810766
70.2272
67.3996
63.9748
60.2873
56.6079
52.9879
49.4174
45.9067
42.4819
39.1672
35.9805
32.9345
30.0386
27.2989
24.7188
22.2988
20.0369
17.9294
15.9704
14.1517
12.4624
10.8891
9.41588
8.02556
6.69948
5.41808
4.16211
2.91529
1.67047
0.401926
71.344
68.7438
65.5894
62.1775
58.7527
55.3604
51.9893
48.6463
45.3543
42.136
39.009
35.9868
33.0803
30.298
27.6458
25.1271
22.7428
20.4919
18.3711
16.3751
14.4959
12.7231
11.0445
9.44583
7.91182
6.42655
4.97483
3.5445
2.13126
0.727307
72.2885
69.8815
66.9587
63.7858
60.585
57.3972
54.2095
51.026
47.8664
44.751
41.6966
38.7166
35.8224
33.0235
30.3274
27.7392
25.2622
22.8972
20.6432
18.4972
16.4537
14.5051
12.642
10.853
9.12567
7.44721
5.8053
4.19016
2.59778
1.03199
73.0876
70.8452
68.1215
65.1558
62.1516
59.1456
56.1243
53.089
50.0562
47.0443
44.0683
41.1411
38.2738
35.4763
32.7569
30.1218
27.5756
25.1209
22.7583
20.4865
18.3023
16.2002
14.1731
12.2122
10.3073
8.44792
6.62358
4.82552
3.04846
1.30265
73.7632
71.6614
69.109
66.3229
63.4907
60.6457
57.7737
54.8739
51.96
49.048
46.1516
43.2823
40.4509
37.6671
34.9393
32.2745
29.6779
27.1533
24.7026
22.3261
20.0219
17.7866
15.6148
13.4997
11.433
9.40563
7.40834
5.43243
3.47059
1.5356
74.3336
72.3518
69.9468
67.3164
64.6342
61.931
59.192
56.4146
53.6102
50.7925
47.9736
45.164
42.3735
39.6113
36.8858
34.204
31.5717
28.9934
26.4719
24.0084
21.6025
19.2521
16.9533
14.7006
12.4873
10.3053
8.14595
6.00008
3.85829
1.73337
74.8139
72.9345
70.6562
68.1605
65.6088
63.0297
60.4083
57.7404
55.0353
52.3049
49.5596
46.8088
44.0612
41.3255
38.6095
35.9203
33.2637
30.6447
28.0666
25.5315
23.0397
20.5903
18.1805
15.8059
13.4607
11.1377
8.82819
6.52263
4.20976
1.90095
75.2172
73.4249
71.2553
68.8756
66.4368
63.9658
61.4475
58.8766
56.2606
53.6096
50.9326
48.2379
45.5332
42.8263
40.1246
37.4348
34.7628
32.1134
29.4906
26.8967
24.333
21.799
19.2928
16.8109
14.3481
11.8975
9.45083
6.99773
4.52562
2.04377
75.5539
73.8354
71.7585
69.4782
67.1366
64.7589
62.3302
59.8443
57.3071
54.7272
52.1124
49.4698
46.8062
44.1287
41.4439
38.7582
36.0773
33.4059
30.7481
28.1065
25.4828
22.877
20.2878
17.7122
15.1455
12.5812
10.0108
7.4237
4.80628
2.16546
75.8343
74.1779
72.1795
69.9837
67.7247
65.4269
63.0752
60.6629
58.1943
55.677
53.1176
50.5223
47.897
45.2478
42.581
39.9024
37.2172
34.5303
31.8453
29.1654
26.4921
23.8261
21.1662
18.5099
15.8527
13.1884
10.5083
7.80154
5.05401
2.26982
76.0642
74.4594
72.5265
70.4015
68.2121
65.9814
63.6949
61.345
58.9352
56.4719
53.9609
51.4072
48.8163
46.1935
43.5443
40.8742
38.188
35.4902
32.7846
30.0741
27.3605
24.6445
21.9252
19.2004
16.4656
13.7148
10.9394
8.1281
5.26661
2.35634
76.2549
74.6919
72.8129
70.7462
68.614
66.4388
64.2062
61.9083
59.5476
57.1297
54.6595
52.1417
49.5806
46.9812
44.3483
41.687
39.0017
36.2967
33.5756
30.8412
28.0953
25.3387
22.5707
19.7889
16.9893
14.1656
11.3092
8.40887
5.44988
2.43025
76.4026
74.8727
73.0364
71.0159
68.9292
66.7981
64.6086
62.3523
60.0311
57.6498
55.2129
52.7242
50.1878
47.608
44.9892
42.3359
39.6524
36.9427
34.2101
31.4574
28.6864
25.8977
23.0908
20.2633
17.4112
14.5282
11.6058
8.6323
5.59327
2.48413
76.5293
75.0238
73.22
71.2346
69.1823
67.0847
64.9278
62.7032
60.4121
58.0589
55.6475
53.1814
50.6641
48.0996
45.492
42.8454
40.1639
37.4511
34.7103
31.9441
29.1543
26.3414
23.505
20.6425
17.7501
14.8213
11.8474
8.81665
5.7142
2.53128
76.6076
75.1173
73.3348
71.3733
69.3442
67.2689
65.1339
62.9305
60.6595
58.3251
55.9308
53.4799
50.9756
48.4215
45.8216
43.1797
40.4996
37.7849
35.0388
32.2637
29.4613
26.6323
23.7759
20.8898
17.97
15.0098
12.0004
8.92962
5.78266
2.54898
76.6957
75.2063
73.4356
71.4887
69.4728
67.4096
65.2863
63.0942
60.8339
58.5092
56.1237
53.6804
51.1823
48.6331
46.0364
43.3961
40.7159
37.9993
35.2493
32.4685
29.6584
26.8198
23.9518
21.0523
18.1169
15.1391
12.1095
9.015
5.838
2.55586
)
;

boundaryField
{
    inlet
    {
        type            zeroGradient;
    }
    outlet
    {
        type            fixedValue;
        value           uniform 0;
    }
    flap
    {
        type            zeroGradient;
    }
    upperWall
    {
        type            zeroGradient;
    }
    lowerWall
    {
        type            zeroGradient;
    }
    frontAndBack
    {
        type            empty;
    }
}


// ************************************************************************* //
