/*--------------------------------*- C++ -*----------------------------------*\
| =========                 |                                                 |
| \\      /  F ield         | OpenFOAM: The Open Source CFD Toolbox           |
|  \\    /   O peration     | Version:  dev                                   |
|   \\  /    A nd           | Web:      www.OpenFOAM.org                      |
|    \\/     M anipulation  |                                                 |
\*---------------------------------------------------------------------------*/
FoamFile
{
    version     2.0;
    format      ascii;
    class       surfaceScalarField;
    location    "4";
    object      phi;
}
// * * * * * * * * * * * * * * * * * * * * * * * * * * * * * * * * * * * * * //

dimensions      [0 3 -1 0 0 0 0];

internalField   nonuniform List<scalar> 
5457
(
0.198407
0.00159208
0.196501
0.00190501
0.194246
0.00225369
0.191603
0.00264247
0.188569
0.00303444
0.185144
0.00342581
0.181321
0.00382411
0.177086
0.00423632
0.17242
0.00466735
0.1673
0.00512107
0.161701
0.00560086
0.155592
0.00610958
0.148944
0.00664934
0.141723
0.00722113
0.133899
0.0078243
0.125444
0.00845586
0.116334
0.00910956
0.106558
0.00977485
0.0961222
0.0104357
0.0850522
0.0110692
0.0734067
0.0116447
0.0612828
0.012123
0.0488262
0.0124559
0.036238
0.0125875
0.0237746
0.0124629
0.011695
0.0120793
6.5492e-05
0.0116293
-0.00582709
0.00589247
-0.00639985
0.000572715
-0.00639986
0.19997
0.00162105
0.199252
0.00262208
0.198086
0.00341845
0.196502
0.00422621
0.194495
0.00504173
0.192062
0.00585997
0.189194
0.00669234
0.18588
0.00755165
0.182101
0.00844777
0.177835
0.00938873
0.173056
0.0103816
0.167734
0.0114324
0.161838
0.012546
0.155335
0.0137248
0.148191
0.0149686
0.140375
0.0162723
0.13186
0.0176247
0.122628
0.019006
0.112677
0.0203857
0.102026
0.0217192
0.0907245
0.0229458
0.0788605
0.0239862
0.0665752
0.0247404
0.0540764
0.0250857
0.0416674
0.0248714
0.0298707
0.0238757
0.0199679
0.0215319
0.00980459
0.0160556
0.00166623
0.00871104
-0.00473364
0.19982
0.00179959
0.199161
0.00328036
0.198063
0.00451526
0.196575
0.00571407
0.194701
0.00691589
0.192438
0.00812401
0.189779
0.00935196
0.186716
0.0106166
0.183233
0.0119322
0.179312
0.0133109
0.174931
0.0147633
0.170066
0.016299
0.164687
0.0179256
0.158765
0.0196481
0.152266
0.0214678
0.145158
0.0233797
0.137412
0.0253708
0.129001
0.0274163
0.11991
0.0294759
0.110139
0.0314898
0.0997105
0.0333736
0.0886816
0.0350142
0.0771565
0.0362647
0.0653043
0.0369373
0.0533874
0.0367878
0.0417852
0.0354775
0.0308509
0.032466
0.020011
0.0268954
0.0100411
0.0186808
0.0053075
0.199737
0.00206111
0.199078
0.00393843
0.197999
0.00559321
0.196535
0.00717789
0.194697
0.00875395
0.192484
0.0103375
0.189893
0.0119448
0.186915
0.0135954
0.183542
0.0153071
0.179759
0.0170951
0.17555
0.018973
0.170898
0.0209529
0.165779
0.0230449
0.160172
0.0252561
0.154051
0.0275894
0.147389
0.0300412
0.140161
0.0325987
0.132341
0.0352357
0.123908
0.0379083
0.114849
0.0405488
0.105162
0.0430594
0.0948698
0.0453056
0.0840247
0.047109
0.0727226
0.0482388
0.0611083
0.0484016
0.0493566
0.0472288
0.0375819
0.0442405
0.025666
0.0388112
0.0136037
0.0307431
0.0189112
0.199698
0.00236153
0.199031
0.00460462
0.19797
0.00665369
0.196532
0.00861504
0.194731
0.0105556
0.192566
0.012503
0.190034
0.0144777
0.187129
0.0165014
0.183843
0.0185945
0.180165
0.0207747
0.176081
0.0230578
0.171578
0.0254576
0.166638
0.0279859
0.161243
0.0306513
0.155375
0.0334579
0.149013
0.0364034
0.142135
0.0394761
0.13472
0.042651
0.126743
0.0458842
0.118184
0.0491073
0.109024
0.0522188
0.0992517
0.0550767
0.0888704
0.0574894
0.0779006
0.0592079
0.0663817
0.0599201
0.0543612
0.0592489
0.0418547
0.0567469
0.0287665
0.0518992
0.0149472
0.0445624
0.0338584
0.199681
0.00267899
0.199011
0.0052733
0.197971
0.00769302
0.196568
0.0100177
0.194812
0.0123119
0.192704
0.0146114
0.190242
0.0169412
0.187419
0.0193252
0.184229
0.0217858
0.180662
0.0243431
0.176707
0.0270146
0.17235
0.0298157
0.167577
0.0327595
0.162374
0.0358555
0.156723
0.0391093
0.150606
0.0425199
0.144005
0.0460772
0.136897
0.0497586
0.129257
0.0535237
0.121055
0.057308
0.112259
0.0610146
0.102829
0.0645054
0.092727
0.0675909
0.0819125
0.0700217
0.0703494
0.0714827
0.0580044
0.0715935
0.0448348
0.0699163
0.0307704
0.0659635
0.0157932
0.0595395
0.0496516
0.199676
0.00300139
0.199012
0.0059363
0.197997
0.00870673
0.196635
0.0113793
0.194933
0.0140145
0.192892
0.0166529
0.19051
0.0193239
0.187783
0.0220538
0.184703
0.024867
0.181262
0.0277854
0.17745
0.0308283
0.173254
0.0340128
0.168661
0.0373531
0.163657
0.0408603
0.158226
0.0445412
0.152349
0.0483969
0.146006
0.0524199
0.139173
0.0565915
0.131819
0.0608771
0.123906
0.0652201
0.115385
0.0695341
0.106196
0.0736934
0.0962649
0.0775216
0.0855051
0.0807809
0.0738252
0.0831621
0.0611374
0.084281
0.0473687
0.0836847
0.0324874
0.0808447
0.0165947
0.0754321
0.0662463
0.199678
0.00332131
0.199027
0.00658619
0.198043
0.00968971
0.196729
0.0126938
0.195088
0.0156554
0.193123
0.0186181
0.190833
0.021615
0.188213
0.0246748
0.185258
0.0278237
0.181959
0.0310857
0.178307
0.0344817
0.174291
0.0380303
0.169897
0.0417476
0.165112
0.0456463
0.159918
0.0497354
0.154297
0.0540186
0.148224
0.0584926
0.141671
0.0631442
0.1346
0.0679468
0.126965
0.0728552
0.1187
0.0777982
0.109723
0.0826687
0.0999321
0.0873122
0.0892011
0.0915112
0.0773927
0.09497
0.0643728
0.0973005
0.0500397
0.0980176
0.0343748
0.0965095
0.0175427
0.0922642
0.083789
0.199686
0.00363387
0.199054
0.00721674
0.198106
0.0106367
0.196844
0.013955
0.195273
0.0172271
0.193393
0.0204981
0.191205
0.0238041
0.188705
0.0271762
0.185887
0.0306426
0.182746
0.0342287
0.179271
0.0379575
0.175454
0.0418493
0.17128
0.045922
0.166737
0.0501907
0.161805
0.0546671
0.156465
0.0593588
0.15069
0.0642676
0.144446
0.0693878
0.137689
0.0747033
0.130361
0.0801831
0.122383
0.0857753
0.113653
0.0913977
0.104039
0.0969247
0.0933806
0.102169
0.0814902
0.10686
0.0681783
0.110612
0.0532902
0.112905
0.0367759
0.113024
0.0188122
0.110228
0.102601
0.199696
0.00393559
0.199089
0.00782287
0.198182
0.0115424
0.196979
0.0151574
0.195484
0.0187227
0.193698
0.0222845
0.191621
0.0258815
0.189252
0.029547
0.186585
0.0333108
0.183615
0.0372001
0.180334
0.0412396
0.176733
0.0454513
0.172801
0.0498554
0.168523
0.0544696
0.163881
0.0593091
0.158855
0.0643859
0.153414
0.0697083
0.147522
0.0752796
0.141129
0.0810959
0.134167
0.0871437
0.126548
0.0933941
0.118149
0.0997955
0.108812
0.10626
0.0983364
0.112645
0.0864763
0.118719
0.0729613
0.124127
0.0575369
0.12833
0.0400513
0.130509
0.0206244
0.129655
0.123226
0.19971
0.00422386
0.199131
0.00840036
0.19827
0.0124024
0.197131
0.0162958
0.195718
0.0201358
0.194033
0.02397
0.192077
0.0278387
0.189848
0.0317771
0.187343
0.0358169
0.184558
0.0399867
0.181486
0.0443126
0.17812
0.0488189
0.174449
0.0535276
0.17046
0.0584594
0.166136
0.0636331
0.161456
0.069066
0.156391
0.0747733
0.150902
0.0807682
0.144937
0.0870609
0.138423
0.0936567
0.131263
0.100554
0.123322
0.107736
0.114417
0.115164
0.104306
0.122755
0.0926741
0.130351
0.0791363
0.137664
0.0632659
0.1442
0.0446884
0.149086
0.0233208
0.151022
0.146546
0.199725
0.00449665
0.199178
0.00894574
0.198367
0.0132123
0.197297
0.0173653
0.195972
0.0214609
0.194395
0.0255477
0.192567
0.0296676
0.190487
0.0338575
0.188155
0.0381504
0.185567
0.0425763
0.182718
0.0471629
0.179602
0.051936
0.176211
0.0569198
0.172534
0.0621376
0.168556
0.067612
0.164257
0.0733653
0.15961
0.07942
0.154579
0.0857993
0.149112
0.0925273
0.143138
0.0996296
0.136559
0.107132
0.129234
0.11506
0.120967
0.12343
0.111481
0.13224
0.100391
0.14144
0.0871692
0.150886
0.0711274
0.160241
0.0514651
0.168749
0.0275512
0.174936
0.174098
0.199742
0.00475236
0.19923
0.00945614
0.198473
0.0139685
0.197476
0.0183617
0.196243
0.0226929
0.19478
0.0270117
0.193087
0.0313615
0.191165
0.0357803
0.189014
0.0403023
0.186633
0.0449587
0.184019
0.0497783
0.181168
0.0547883
0.178074
0.0600149
0.174729
0.0654836
0.171122
0.0712203
0.167235
0.077252
0.163048
0.0836074
0.158528
0.0903189
0.153631
0.0974237
0.148294
0.104966
0.142427
0.112999
0.135898
0.121588
0.128515
0.130812
0.119994
0.14076
0.109903
0.151531
0.0975835
0.163205
0.0820279
0.175797
0.0617304
0.189046
0.0347276
0.201939
0.208825
0.19976
0.00498972
0.199286
0.00992919
0.198585
0.014668
0.197664
0.0192813
0.19653
0.0238275
0.195184
0.0283572
0.193632
0.0329146
0.191875
0.0375389
0.189913
0.042265
0.187748
0.0471249
0.18538
0.0521485
0.182805
0.0573639
0.180023
0.0627985
0.177027
0.0684799
0.173812
0.0744362
0.170367
0.080698
0.166675
0.087299
0.162715
0.0942787
0.158454
0.101684
0.153844
0.109575
0.148815
0.118027
0.143264
0.127139
0.137031
0.137044
0.12987
0.147921
0.121378
0.160022
0.110872
0.17371
0.0971378
0.189531
0.0778508
0.208333
0.0483195
0.23147
0.257145
0.19978
0.00520767
0.199344
0.0103629
0.198702
0.0153082
0.197862
0.0201211
0.196828
0.0248613
0.195605
0.02958
0.194198
0.0343222
0.19261
0.0391278
0.190844
0.0440323
0.188902
0.0490681
0.186787
0.0542656
0.184499
0.0596534
0.182039
0.0652597
0.179406
0.0711129
0.176601
0.0772428
0.173617
0.0836817
0.17045
0.0904665
0.167088
0.0976406
0.163515
0.105258
0.159705
0.113385
0.15562
0.122112
0.151202
0.131557
0.146358
0.141886
0.140943
0.153336
0.134704
0.166261
0.127185
0.181229
0.11747
0.199246
0.10339
0.222413
0.0778816
0.256978
0.335026
0.0048244
-0.00482441
0.00951409
-0.00468977
0.013483
-0.00396907
0.0166523
-0.00316976
0.0190703
-0.00241861
0.0208019
-0.0017324
0.0219115
-0.00111076
0.0224687
-0.000558715
0.0225592
-9.21542e-05
0.0222938
0.00026364
0.0217945
0.000497555
0.0211688
0.00062408
0.0205027
0.000664633
0.0198601
0.000641386
0.0192865
0.0005726
0.0188117
0.000474154
0.0184506
0.000360782
0.018204
0.000246637
0.0180613
0.000143203
0.0180089
5.32826e-05
0.0180424
-3.22175e-05
0.0181665
-0.000122486
0.0183851
-0.000216752
0.018692
-0.000304648
0.0190692
-0.000374809
0.0195021
-0.000430278
0.0199962
-0.000491297
0.0205807
-0.000581537
0.0212735
-0.000689672
-0.000694827
0.0043148
-0.00913923
0.00861048
-0.00898553
0.0123426
-0.00770135
0.0154442
-0.0062718
0.0179682
-0.00494316
0.0199732
-0.00373837
0.0215109
-0.00264963
0.0226286
-0.00167782
0.023364
-0.000829285
0.0237433
-0.00011742
0.0238339
0.000405252
0.0237432
0.000713155
0.0235588
0.00084757
0.0233477
0.000851186
0.023157
0.000762298
0.0230134
0.000617061
0.0229248
0.000449077
0.022883
0.000288589
0.0228695
0.000157156
0.0228656
5.81373e-05
0.0228589
-2.433e-05
0.0228515
-0.000113494
0.0228552
-0.000218522
0.0228775
-0.000324736
0.0229157
-0.000410655
0.0229587
-0.000470679
0.0230002
-0.00052993
0.0230641
-0.000642493
0.0232195
-0.000841873
-0.0010229
0.00357829
-0.0127175
0.00703537
-0.0124427
0.00999692
-0.0106631
0.0124922
-0.00876744
0.0145787
-0.00703035
0.016297
-0.00545751
0.0176796
-0.00403345
0.0187567
-0.00275646
0.0195605
-0.00163475
0.0201272
-0.000685921
0.0204776
5.3129e-05
0.0206471
0.000542009
0.0206987
0.000794489
0.0206828
0.000865814
0.0206298
0.000814247
0.0205514
0.000694753
0.0204448
0.000555406
0.0202956
0.000437914
0.0200817
0.000371502
0.0197827
0.000358059
0.0193927
0.000366904
0.0189266
0.000354268
0.0184185
0.000291426
0.0179162
0.000179733
0.0174643
4.36346e-05
0.0170869
-9.06545e-05
0.0167844
-0.000224627
0.0165743
-0.000429402
0.0165117
-0.000776035
-0.00124777
0.00279749
-0.015515
0.00527283
-0.0149181
0.00730046
-0.0126909
0.00901934
-0.0104867
0.0104922
-0.00850383
0.0117453
-0.0067115
0.0127979
-0.00508733
0.0136652
-0.00362525
0.0143578
-0.00232911
0.0148929
-0.00122284
0.0152665
-0.00032221
0.0154557
0.000351173
0.0154853
0.000763402
0.0153921
0.00095767
0.0151806
0.00102468
0.0148352
0.00103955
0.0143443
0.00104591
0.0137239
0.00105841
0.0130221
0.00107379
0.0123016
0.00107944
0.0116166
0.00105321
0.0110046
0.000967819
0.0104902
0.000807792
0.0100868
0.000585216
0.00979552
0.000337356
0.00959943
0.000108048
0.00944416
-6.65437e-05
0.00929452
-0.000276779
0.00917361
-0.00065195
-0.00133811
0.00190251
-0.0174176
0.00330333
-0.016319
0.00432522
-0.013713
0.00517228
-0.0113342
0.00590201
-0.0092342
0.00653819
-0.0073486
0.00709317
-0.00564354
0.00757999
-0.00411359
0.00798621
-0.00273711
0.00823981
-0.00147831
0.0082876
-0.000371779
0.00817383
0.000463262
0.00794475
0.000990939
0.00760198
0.00129911
0.00715461
0.001471
0.00663034
0.00156311
0.00606798
0.00160794
0.00550826
0.0016182
0.00498658
0.00159594
0.00452836
0.00153854
0.00414402
0.0014388
0.00382563
0.00128779
0.00355093
0.00108438
0.00329561
0.000842699
0.0030458
0.000589564
0.00280287
0.000353583
0.0025839
0.000155234
0.00232247
-1.23508e-05
0.00203193
-0.000358239
-0.00110263
0.000893721
-0.0183113
0.00117321
-0.0165986
0.00119094
-0.013731
0.00112519
-0.0112688
0.00102291
-0.00913258
0.000907155
-0.00723379
0.000775552
-0.00551319
0.000599511
-0.00393909
0.000392511
-0.00253191
0.000213989
-0.00130169
8.52503e-05
-0.000244856
-3.47273e-05
0.000581533
-0.000204718
0.00115936
-0.000437498
0.00153053
-0.000717503
0.00174993
-0.0010212
0.00186608
-0.00132627
0.00191267
-0.00161729
0.00190928
-0.00188677
0.00186588
-0.00213446
0.00178709
-0.00236785
0.00167343
-0.00260141
0.00152293
-0.00285101
0.00133586
-0.00312583
0.00111968
-0.00342484
0.000890967
-0.00374284
0.000674191
-0.00407589
0.000491088
-0.00439468
0.000309441
-0.00470449
-4.52387e-05
-0.000679399
-0.000222089
-0.0180892
-0.00104642
-0.0157743
-0.00199691
-0.0127807
-0.00295076
-0.0103154
-0.00386637
-0.00821763
-0.00470432
-0.00639681
-0.00542778
-0.00479099
-0.00600407
-0.00336437
-0.00643811
-0.0020997
-0.00674903
-0.000992705
-0.00693999
-5.5744e-05
-0.00705064
0.000690443
-0.00713734
0.00124446
-0.00723173
0.00162353
-0.00734535
0.00186245
-0.00747971
0.0019997
-0.00763338
0.00206597
-0.0078054
0.00208134
-0.00799642
0.00205735
-0.00820812
0.00199964
-0.00844263
0.00190916
-0.00870193
0.00178378
-0.0089863
0.0016221
-0.00929311
0.00142863
-0.00961863
0.00121887
-0.00996283
0.001021
-0.0103275
0.000858515
-0.0107012
0.000686214
-0.0110854
0.000342194
-0.000177295
-0.00139538
-0.0166939
-0.00323579
-0.013934
-0.00505969
-0.010957
-0.00676247
-0.008613
-0.00828245
-0.00669833
-0.00958037
-0.00509985
-0.0106389
-0.00373374
-0.0114617
-0.0025432
-0.0120674
-0.00149585
-0.0124841
-0.000577938
-0.0127407
0.000198975
-0.0128822
0.000830203
-0.012964
0.00132459
-0.0130281
0.00168626
-0.0131042
0.00193734
-0.0132096
0.00210435
-0.0133527
0.00220867
-0.0135351
0.00226382
-0.0137544
0.0022771
-0.0140055
0.00225154
-0.0142822
0.00218707
-0.0145788
0.00208194
-0.0148912
0.00193635
-0.0152182
0.00175773
-0.0155632
0.00156628
-0.0159342
0.00139465
-0.0163359
0.00126295
-0.0167623
0.00111569
-0.0172307
0.000813819
0.00040558
-0.0025538
-0.0141401
-0.0053366
-0.0111513
-0.00794065
-0.00835318
-0.0102606
-0.0062935
-0.0122395
-0.00472007
-0.0138689
-0.00347148
-0.0151679
-0.00243607
-0.0161682
-0.00154449
-0.0169087
-0.000757197
-0.0174274
-6.12716e-05
-0.0177708
0.000540485
-0.0179953
0.00105287
-0.0181491
0.00147675
-0.0182762
0.00181192
-0.0184113
0.00207132
-0.0185768
0.00226905
-0.0187822
0.00241373
-0.0190271
0.00250866
-0.0193045
0.00255491
-0.0196055
0.00255335
-0.0199218
0.00250463
-0.020248
0.00240968
-0.0205827
0.00227282
-0.0209298
0.00210703
-0.0213001
0.00193896
-0.0217079
0.00180504
-0.0221637
0.00172155
-0.0226735
0.0016285
-0.0232586
0.00140211
0.00109131
-0.00375256
-0.0103876
-0.0074795
-0.00742445
-0.0108274
-0.00500553
-0.0136865
-0.00343484
-0.016039
-0.00236828
-0.0179252
-0.00158627
-0.0194035
-0.000959155
-0.0205345
-0.000415121
-0.0213752
8.16404e-05
-0.0219851
0.000546606
-0.0224322
0.000985675
-0.0227698
0.00138866
-0.0230361
0.00174138
-0.0232695
0.00204386
-0.023503
0.00230366
-0.0237586
0.0025239
-0.024045
0.00269969
-0.0243596
0.00282324
-0.0246944
0.00289009
-0.0250411
0.00290088
-0.0253944
0.00285907
-0.0257525
0.00276931
-0.0261179
0.00264008
-0.0264979
0.00248914
-0.026904
0.0023474
-0.0273482
0.00225186
-0.027838
0.00221411
-0.0283809
0.00217442
-0.0290006
0.0020251
0.00181273
-0.00503294
-0.00535464
-0.00998783
-0.00246965
-0.0141511
-0.000842478
-0.017488
-9.8467e-05
-0.020089
0.000232048
-0.02209
0.000413715
-0.0236241
0.000573557
-0.0247954
0.000754483
-0.0256919
0.000976258
-0.0263937
0.00124639
-0.0269573
0.00154731
-0.0274184
0.00184791
-0.0278069
0.00212821
-0.0281542
0.0023897
-0.0284914
0.00263975
-0.0288412
0.00287288
-0.0292121
0.00307011
-0.0296006
0.00321181
-0.0299991
0.00328892
-0.0304013
0.00330389
-0.0308053
0.00326419
-0.0312121
0.00317761
-0.0316248
0.00305463
-0.0320488
0.00291528
-0.032492
0.00279295
-0.032963
0.00272545
-0.0334698
0.00272369
-0.0340254
0.00273304
-0.0346569
0.00265983
0.00254448
-0.00705249
0.00169782
-0.0133383
0.00381609
-0.0180678
0.0038867
-0.0215859
0.00341918
-0.0242222
0.0028676
-0.0262262
0.00241669
-0.0277799
0.00212585
-0.029001
0.00197388
-0.029971
0.00194432
-0.0307617
0.00203498
-0.031429
0.00221274
-0.032003
0.00242003
-0.0325002
0.00262381
-0.0329444
0.00283243
-0.0333677
0.00306187
-0.033796
0.00330042
-0.0342381
0.00351174
-0.0346878
0.00366152
-0.0351352
0.00373674
-0.0355753
0.00374469
-0.0360091
0.00369918
-0.0364407
0.0036107
-0.0368739
0.00348963
-0.0373128
0.00335627
-0.0377634
0.00324591
-0.0382341
0.00319875
-0.0387363
0.0032287
-0.0392882
0.00328792
-0.0399153
0.00329026
0.00325563
-0.00944301
0.0111408
-0.016946
0.0113189
-0.022152
0.00909246
-0.0258102
0.00707682
-0.0284595
0.00551614
-0.0304207
0.00437677
-0.0319464
0.00365014
-0.0331714
0.00319718
-0.0341601
0.0029311
-0.0349861
0.00285887
-0.0357153
0.00294001
-0.0363673
0.00307024
-0.0369361
0.003191
-0.0374348
0.00332962
-0.0379022
0.00352821
-0.0383736
0.00377102
-0.0388575
0.00399522
-0.0393413
0.0041453
-0.0398097
0.00420553
-0.0402583
0.00419401
-0.0406934
0.00413549
-0.0411242
0.00404292
-0.0415561
0.00392327
-0.041992
0.0037943
-0.0424362
0.00369241
-0.0428967
0.00366182
-0.0433881
0.00372294
-0.0439328
0.00383564
-0.044553
0.00391375
0.00394535
-0.0129886
0.0241293
-0.0219983
0.0203285
-0.0273137
0.0144075
-0.0305856
0.0103482
-0.0329273
0.00785699
-0.034605
0.00605336
-0.0359387
0.00498237
-0.0370782
0.00433492
-0.0380072
0.00385813
-0.0387897
0.00363931
-0.0395249
0.00367328
-0.0402189
0.00376251
-0.0408213
0.00379179
-0.0413265
0.00383337
-0.0417922
0.00399284
-0.0422739
0.00425193
-0.0427787
0.00449967
-0.0432802
0.00464677
-0.0437524
0.00467807
-0.0441914
0.00463383
-0.0446127
0.00455784
-0.0450327
0.00446438
-0.0454585
0.00435082
-0.0458901
0.00422795
-0.0463279
0.00413255
-0.0467788
0.00411522
-0.04726
0.00420698
-0.0477988
0.00437752
-0.0484153
0.0045336
0.00463405
-0.0194562
0.0435854
-0.0299249
0.0307971
-0.0342916
0.0187739
-0.0356999
0.0117559
-0.0373511
0.00950731
-0.0384982
0.00719927
-0.0394107
0.00589344
-0.0404048
0.00532726
-0.0412033
0.0046546
-0.0418381
0.00427206
-0.0425195
0.00435286
-0.0432429
0.00448422
-0.0438606
0.00440786
-0.0443276
0.00429897
-0.044746
0.00441018
-0.0452155
0.0047207
-0.0457369
0.00502074
-0.0462549
0.00516479
-0.0467239
0.00514741
-0.0471416
0.00505226
-0.0475389
0.00495627
-0.0479447
0.00487157
-0.0483664
0.0047743
-0.0487981
0.00466167
-0.0492341
0.00457088
-0.0496787
0.0045623
-0.0501514
0.00468258
-0.0506866
0.00491578
-0.0513068
0.00515719
0.00533078
0.207452
0.00541269
0.207043
0.0107703
0.206441
0.0159081
0.205655
0.0209058
0.204692
0.0258243
0.203557
0.0307154
0.202255
0.0356245
0.200792
0.0405917
0.199173
0.0456529
0.197402
0.0508407
0.195484
0.0561851
0.193423
0.0617151
0.191225
0.0674587
0.188895
0.0734445
0.186436
0.0797021
0.183854
0.0862643
0.181153
0.0931683
0.178336
0.100458
0.175406
0.108187
0.172365
0.116425
0.169215
0.125261
0.165958
0.134813
0.162597
0.145246
0.159142
0.156791
0.15562
0.169782
0.152123
0.184726
0.148971
0.202398
0.147651
0.223734
0.158326
0.246302
0.259545
0.233808
0.212493
0.00559942
0.212121
0.0111408
0.211574
0.0164525
0.210863
0.0216159
0.209994
0.0266929
0.208974
0.0317354
0.20781
0.0367891
0.206509
0.041894
0.205077
0.047086
0.203522
0.052397
0.201852
0.0578569
0.200074
0.0634936
0.1982
0.0693347
0.196238
0.0754074
0.194201
0.0817402
0.192102
0.088364
0.189957
0.0953136
0.187785
0.10263
0.185612
0.110361
0.183469
0.118568
0.181401
0.127328
0.179475
0.136739
0.177795
0.146926
0.176536
0.158049
0.176016
0.170301
0.17688
0.183862
0.180525
0.198753
0.189582
0.214677
0.205155
0.230729
0.246236
0.218464
0.217658
0.00576576
0.217326
0.0114704
0.216841
0.0169354
0.216212
0.0222436
0.215447
0.0274575
0.214554
0.0326288
0.21354
0.0378032
0.212415
0.0430202
0.211187
0.0483151
0.209866
0.053719
0.208464
0.0592606
0.206993
0.0649666
0.205466
0.0708628
0.2039
0.0769743
0.202314
0.0833269
0.200732
0.0899477
0.199179
0.0968665
0.197692
0.104117
0.196315
0.111738
0.195108
0.119775
0.194152
0.128284
0.193564
0.137327
0.193518
0.146971
0.194279
0.157288
0.196258
0.168322
0.200062
0.180057
0.206458
0.192357
0.216089
0.205045
0.228628
0.218191
0.229223
0.245641
0.22295
0.00590971
0.222662
0.011755
0.222245
0.0173511
0.221705
0.0227816
0.221053
0.028109
0.220296
0.033385
0.219446
0.0386545
0.21851
0.0439564
0.217501
0.0493249
0.216432
0.0547898
0.215316
0.060378
0.21417
0.0661144
0.213011
0.0720222
0.211864
0.0781234
0.210752
0.0844396
0.209708
0.0909927
0.208769
0.0978054
0.207985
0.104902
0.207415
0.112308
0.207139
0.120051
0.207263
0.12816
0.207929
0.13666
0.209335
0.145565
0.211744
0.154878
0.215503
0.164563
0.221023
0.174537
0.228739
0.184641
0.239194
0.194589
0.25329
0.204095
0.21087
0.271642
0.22837
0.00602936
0.228132
0.011991
0.227786
0.0176942
0.227343
0.0232228
0.226812
0.0286391
0.226203
0.0339942
0.225525
0.039332
0.224792
0.0446903
0.224016
0.0501019
0.223213
0.0555949
0.222398
0.0611939
0.221593
0.0669212
0.220819
0.072797
0.220105
0.0788391
0.219481
0.0850642
0.218987
0.0914877
0.218669
0.0981241
0.218585
0.104987
0.218806
0.112088
0.219421
0.119436
0.220548
0.127034
0.222334
0.134874
0.224963
0.142936
0.228666
0.151175
0.233718
0.159511
0.240437
0.167817
0.249188
0.17589
0.260396
0.183381
0.274525
0.189966
0.194522
0.290873
0.233923
0.00612296
0.233736
0.012175
0.233468
0.0179597
0.233129
0.0235609
0.232726
0.0290402
0.232272
0.0344477
0.231778
0.0398258
0.231258
0.0452112
0.230726
0.0506347
0.2302
0.0561223
0.229699
0.0616962
0.229246
0.0673755
0.228868
0.0731766
0.228596
0.0791129
0.228466
0.0851954
0.228522
0.0914327
0.228816
0.0978309
0.229411
0.104392
0.230383
0.111116
0.231826
0.117993
0.233854
0.125007
0.236603
0.132125
0.240236
0.139303
0.244942
0.146468
0.250936
0.153517
0.258453
0.1603
0.267724
0.16662
0.278914
0.17219
0.292118
0.176761
0.179785
0.306856
0.239612
0.0061889
0.23948
0.0123038
0.239293
0.0181433
0.239062
0.0237904
0.238795
0.0293057
0.238504
0.0347378
0.238202
0.0401279
0.237903
0.0455104
0.237625
0.0509142
0.237385
0.0563632
0.237205
0.0618769
0.237112
0.0674706
0.237133
0.0731564
0.237304
0.0789434
0.237664
0.0848369
0.238259
0.0908388
0.239144
0.0969467
0.240384
0.103154
0.242053
0.109447
0.244243
0.115804
0.247056
0.122194
0.250612
0.12857
0.255043
0.134871
0.260497
0.141015
0.267125
0.146889
0.275072
0.152354
0.28445
0.157242
0.295298
0.161341
0.307608
0.164452
0.166276
0.321116
0.245438
0.0062258
0.245364
0.0123748
0.245263
0.0182411
0.245145
0.0239064
0.245019
0.0294299
0.244898
0.0348586
0.244794
0.0402316
0.244723
0.0455815
0.244703
0.0509346
0.244754
0.0563126
0.2449
0.061732
0.245168
0.0672043
0.245588
0.0727376
0.246197
0.0783363
0.247035
0.0840006
0.248149
0.0897259
0.249593
0.0955031
0.251431
0.101317
0.253733
0.107146
0.256579
0.112958
0.26006
0.118714
0.264271
0.124359
0.269317
0.129826
0.2753
0.135031
0.282318
0.139871
0.290446
0.144226
0.299729
0.147959
0.310152
0.150918
0.321651
0.152953
0.153906
0.33402
0.251406
0.0062325
0.251392
0.0123857
0.25138
0.0182501
0.251378
0.0239052
0.251398
0.0294086
0.25145
0.0348054
0.251549
0.0401325
0.25171
0.0454203
0.251952
0.0506927
0.252297
0.0559687
0.252768
0.0612615
0.253394
0.0665794
0.254207
0.0719268
0.25524
0.0773037
0.256537
0.0827055
0.258142
0.0881225
0.260106
0.0935398
0.262488
0.0989364
0.26535
0.104284
0.268762
0.109547
0.272796
0.114681
0.277526
0.119629
0.283028
0.124325
0.289368
0.128692
0.296599
0.13264
0.304754
0.136072
0.313831
0.138882
0.323785
0.140964
0.334519
0.142219
0.142564
0.345862
0.257519
0.00620811
0.257566
0.0123349
0.257644
0.0181678
0.257763
0.023784
0.257931
0.0292389
0.25816
0.0345753
0.258463
0.0398281
0.258858
0.0450252
0.259363
0.0501881
0.26
0.0553327
0.260792
0.0604696
0.261769
0.0656039
0.262961
0.0707364
0.264402
0.0758636
0.266132
0.0809769
0.268193
0.0860627
0.270632
0.091102
0.273499
0.09607
0.276849
0.100935
0.280737
0.10566
0.28522
0.110199
0.29035
0.114499
0.296177
0.118498
0.302739
0.12213
0.310059
0.125321
0.318136
0.127995
0.326942
0.130076
0.336414
0.131492
0.34645
0.132183
0.132107
0.356907
0.263779
0.006152
0.263888
0.0122212
0.26406
0.0179929
0.2643
0.0235411
0.264617
0.0289191
0.265024
0.0341673
0.265533
0.0393182
0.266161
0.0443971
0.266926
0.0494231
0.267849
0.0544096
0.268955
0.0593642
0.270271
0.0642894
0.271825
0.0691832
0.273651
0.0740388
0.275784
0.0788449
0.278263
0.0835852
0.281128
0.0882382
0.284422
0.0927772
0.288188
0.0971702
0.292469
0.10138
0.297307
0.105363
0.302736
0.109071
0.308783
0.112451
0.315465
0.115449
0.322782
0.118005
0.330715
0.120063
0.339219
0.121572
0.348226
0.122486
0.357639
0.12277
0.122407
0.367338
0.27019
0.00606383
0.270363
0.012044
0.270627
0.0177244
0.270989
0.023176
0.271457
0.0284491
0.27204
0.0335819
0.272753
0.0386042
0.273611
0.0435391
0.27463
0.0484032
0.275833
0.0532073
0.277241
0.0579566
0.278879
0.0626515
0.280776
0.0672875
0.28296
0.0718558
0.285463
0.0763429
0.288318
0.080731
0.29156
0.0849976
0.295222
0.0891162
0.299338
0.0930555
0.303938
0.0967805
0.309049
0.100253
0.314691
0.10343
0.320875
0.106268
0.327601
0.108723
0.334854
0.110752
0.342602
0.112315
0.350796
0.113378
0.359367
0.113915
0.368228
0.113909
0.113357
0.377279
0.276756
0.00594354
0.276991
0.0118033
0.277349
0.0173627
0.277832
0.0226892
0.278449
0.0278303
0.279207
0.0328214
0.28012
0.0376901
0.281201
0.0424568
0.282468
0.0471361
0.283939
0.0517364
0.285634
0.0562611
0.287578
0.0607086
0.289793
0.0650727
0.292307
0.0693433
0.295145
0.0735057
0.298335
0.0775418
0.301904
0.0814293
0.305879
0.0851427
0.310282
0.0886532
0.315134
0.0919296
0.320449
0.0949385
0.326235
0.0976447
0.332491
0.100013
0.339205
0.10201
0.346352
0.103605
0.353896
0.104772
0.361786
0.105489
0.369955
0.105745
0.378329
0.105536
0.104865
0.386821
0.283479
0.00579135
0.283777
0.0114996
0.284227
0.0169087
0.28483
0.0220823
0.285592
0.027065
0.286522
0.0318896
0.287629
0.0365811
0.288927
0.0411577
0.290431
0.0456318
0.292157
0.0500101
0.294124
0.0542942
0.296351
0.0584812
0.29886
0.062564
0.301673
0.0665314
0.30481
0.0703689
0.308294
0.0740586
0.312145
0.0775795
0.31638
0.0809081
0.321015
0.0840189
0.326061
0.0868848
0.331522
0.0894783
0.337397
0.0917712
0.343675
0.0937361
0.350337
0.0953491
0.357353
0.0965893
0.364685
0.0974406
0.372282
0.0978926
0.380085
0.0979424
0.388028
0.0975937
0.0968546
0.396039
0.290364
0.00560777
0.290724
0.0111338
0.291264
0.0163641
0.291984
0.021358
0.292888
0.0261573
0.293983
0.0307918
0.295278
0.0352843
0.296783
0.0396509
0.298512
0.0439021
0.300478
0.0480431
0.302698
0.0520742
0.305188
0.0559915
0.307965
0.0597874
0.311046
0.0634509
0.314448
0.0669676
0.318186
0.0703209
0.322274
0.0734917
0.326724
0.0764591
0.331543
0.0792012
0.336733
0.0816956
0.342292
0.0839201
0.348211
0.0858528
0.354474
0.0874739
0.361057
0.0887669
0.367928
0.0897189
0.375047
0.0903215
0.382369
0.0905717
0.389839
0.0904724
0.397401
0.090032
0.0892608
0.404995
0.297413
0.00539352
0.297834
0.0107076
0.298461
0.0157313
0.299295
0.0205199
0.300337
0.0251118
0.301591
0.0295345
0.303065
0.0338081
0.304767
0.0379471
0.306707
0.0419603
0.308898
0.0458514
0.311352
0.0496201
0.314081
0.053262
0.317099
0.0567694
0.320418
0.0601316
0.324051
0.0633353
0.328007
0.0663655
0.332293
0.0692053
0.336916
0.0718369
0.341876
0.074242
0.347169
0.0764029
0.352788
0.0783022
0.358718
0.0799235
0.364939
0.0812533
0.371425
0.0822814
0.378144
0.0830009
0.385057
0.083409
0.392121
0.0835076
0.39929
0.0833034
0.406515
0.0828073
0.0820306
0.413745
0.304632
0.00514957
0.30511
0.0102228
0.305823
0.0150134
0.306766
0.0195721
0.307939
0.0239344
0.309345
0.0281249
0.310989
0.0321619
0.312876
0.0360579
0.315014
0.0398203
0.317412
0.0434519
0.32008
0.0469519
0.323026
0.0503156
0.326259
0.0535356
0.329788
0.0566022
0.33362
0.0595034
0.33776
0.062226
0.34221
0.0647556
0.34697
0.0670774
0.352035
0.0691768
0.357398
0.0710402
0.363046
0.0726545
0.368962
0.0740082
0.375123
0.075093
0.381502
0.0759031
0.388067
0.0764364
0.394782
0.076694
0.401609
0.0766809
0.408507
0.076406
0.415433
0.0758816
0.0751187
0.422344
0.312023
0.00487705
0.312557
0.00968183
0.313351
0.0142139
0.314398
0.0185196
0.315697
0.0226314
0.317247
0.0265714
0.31905
0.0303558
0.32111
0.0339954
0.323431
0.0374966
0.32602
0.0408615
0.328882
0.0440887
0.332023
0.047174
0.335447
0.0501105
0.339159
0.0528894
0.343162
0.0555005
0.347456
0.0579323
0.352038
0.060173
0.356905
0.0622109
0.362047
0.0640346
0.367453
0.065634
0.373108
0.067
0.378992
0.0681251
0.385081
0.0690045
0.391348
0.0696366
0.397762
0.070022
0.404292
0.0701648
0.410901
0.0700718
0.417554
0.0697531
0.424214
0.069221
0.0684863
0.430847
0.319591
0.00457722
0.320179
0.00908705
0.32105
0.0133364
0.322196
0.0173676
0.323613
0.0212096
0.325298
0.0248824
0.32725
0.0284001
0.32947
0.0317722
0.331961
0.0350038
0.334723
0.0380968
0.337761
0.0410496
0.341076
0.0438582
0.344668
0.0465167
0.348539
0.0490175
0.352688
0.0513517
0.357109
0.0535102
0.361798
0.0554835
0.366747
0.0572623
0.371943
0.0588383
0.377372
0.0602045
0.383017
0.0613551
0.388857
0.0622855
0.394868
0.062994
0.401023
0.0634815
0.407294
0.063751
0.413651
0.063808
0.420062
0.0636605
0.426496
0.0633188
0.432922
0.0627951
0.0620992
0.439309
0.327341
0.00425143
0.327979
0.00844115
0.328923
0.0123852
0.330163
0.0161215
0.331691
0.0196762
0.333502
0.0230667
0.335593
0.0263054
0.337962
0.0294003
0.340607
0.0323559
0.343527
0.0351736
0.346723
0.0378519
0.350192
0.0403873
0.353933
0.0427747
0.357941
0.0450077
0.362213
0.0470791
0.366741
0.0489816
0.371516