/*--------------------------------*- C++ -*----------------------------------*\
| =========                 |                                                 |
| \\      /  F ield         | OpenFOAM: The Open Source CFD Toolbox           |
|  \\    /   O peration     | Version:  dev                                   |
|   \\  /    A nd           | Web:      www.OpenFOAM.org                      |
|    \\/     M anipulation  |                                                 |
\*---------------------------------------------------------------------------*/
FoamFile
{
    version     2.0;
    format      ascii;
    class       volVectorField;
    location    "4";
    object      U;
}
// * * * * * * * * * * * * * * * * * * * * * * * * * * * * * * * * * * * * * //

dimensions      [0 1 -1 0 0 0 0];

internalField   nonuniform List<vector> 
2790
(
(9.94046 2.64743e-21 0.019474)
(9.87284 0 0.0285223)
(9.77444 0 0.0350004)
(9.65005 -3.58577e-22 0.0415565)
(9.50591 -3.7167e-22 0.0483515)
(9.34344 -7.61733e-22 0.0553703)
(9.16182 -1.57567e-21 0.0627482)
(8.96003 3.23649e-21 0.0706479)
(8.73716 0 0.0792105)
(8.49223 -1.74932e-21 0.0885655)
(8.22405 1.79414e-21 0.0988434)
(7.93125 3.77149e-21 0.110179)
(7.61234 -7.76352e-21 0.122708)
(7.26572 0 0.136565)
(6.88982 0 0.151874)
(6.48314 0 0.168732)
(6.04442 -4.58483e-21 0.187192)
(5.5728 0 0.207236)
(5.06807 1.51308e-20 0.228736)
(4.53097 -2.07204e-20 0.251409)
(3.96355 3.27833e-20 0.274766)
(3.36958 6.8238e-20 0.298038)
(2.7549 -3.52641e-20 0.320107)
(2.12781 1.23131e-20 0.339416)
(1.49911 0 0.354038)
(0.882758 -2.65294e-20 0.362986)
(0.284528 8.2355e-20 0.35905)
(-0.45479 -1.12624e-19 -0.122639)
(-0.321069 0 -0.348978)
(-0.0991563 -5.90932e-20 -0.400908)
(9.99637 -2.64654e-21 0.0395166)
(9.98127 2.70548e-21 0.0608344)
(9.93818 2.77538e-21 0.0773668)
(9.86831 0 0.0945652)
(9.77662 0 0.112794)
(9.6646 -1.51183e-21 0.131949)
(9.5316 0 0.152286)
(9.37668 -1.61389e-21 0.174151)
(9.19897 0 0.197855)
(8.99751 6.95053e-21 0.22368)
(8.77113 -7.12334e-21 0.251904)
(8.51847 0 0.2828)
(8.238 3.86091e-21 0.316631)
(7.92812 0 0.353621)
(7.58714 0 0.393928)
(7.21346 3.50244e-20 0.437594)
(6.8056 -6.79262e-20 0.484485)
(6.36248 -5.42712e-22 0.534208)
(5.88354 4.40186e-20 0.586005)
(5.36914 -2.04934e-20 0.638637)
(4.82088 -7.5469e-20 0.690255)
(4.24208 -1.7839e-19 0.738261)
(3.63825 8.08066e-20 0.77918)
(3.01777 -1.20816e-20 0.808515)
(2.39275 5.01074e-20 0.820564)
(1.78306 -1.82253e-19 0.807549)
(1.20322 2.41519e-19 0.75275)
(0.697134 0 0.565134)
(0.285413 0 0.274158)
(0.0852117 -2.94771e-19 -0.368542)
(9.99342 -5.27858e-21 0.0426266)
(9.97531 2.69917e-21 0.0736391)
(9.93414 -2.77427e-21 0.100843)
(9.86889 0 0.129172)
(9.78325 0 0.159304)
(9.6788 -3.01556e-21 0.191215)
(9.55521 0 0.225238)
(9.41174 6.43067e-21 0.26186)
(9.24768 0 0.301559)
(9.06225 0 0.344789)
(8.8545 -1.43506e-20 0.39201)
(8.62324 7.31783e-21 0.443686)
(8.36717 0 0.500263)
(8.08483 0 0.56214)
(7.77466 0 0.629618)
(7.43507 -4.33231e-20 0.702823)
(7.06453 1.77226e-20 0.781604)
(6.66166 -1.86332e-20 0.865398)
(6.22543 -1.94014e-20 0.95305)
(5.75544 2.02873e-20 1.0426)
(5.25219 -2.11256e-20 1.13106)
(4.71758 1.98458e-19 1.21413)
(4.15543 -1.81715e-19 1.28591)
(3.57216 0 1.33851)
(2.97756 -4.93201e-20 1.36143)
(2.38684 3.58137e-19 1.33961)
(1.81382 -7.9219e-19 1.24622)
(1.27387 4.91454e-19 1.02614)
(0.750809 5.65703e-20 0.676044)
(0.398975 -1.17569e-19 0.0541506)
(9.99173 5.93759e-21 0.0483981)
(9.97135 -6.07751e-21 0.0906135)
(9.93003 0 0.129776)
(9.86602 -8.53645e-21 0.169525)
(9.78213 1.46384e-20 0.211067)
(9.67989 6.07308e-21 0.254766)
(9.55922 -1.24043e-20 0.301128)
(9.41957 -6.42212e-21 0.350804)
(9.26042 0 0.404449)
(9.08121 6.84912e-21 0.462702)
(8.88125 0 0.526207)
(8.65968 7.36685e-21 0.595613)
(8.41553 0 0.671556)
(8.14773 0 0.754626)
(7.85511 8.26671e-20 0.845302)
(7.53645 -1.282e-19 0.94387)
(7.1905 8.83962e-20 1.05029)
(6.81604 -3.74876e-20 1.16401)
(6.41198 9.56268e-20 1.28377)
(5.9775 -1.41045e-19 1.40724)
(5.51228 2.06728e-19 1.53076)
(5.01682 -2.16716e-20 1.64887)
(4.49281 0 1.75389)
(3.94364 -4.64907e-20 1.83536)
(3.37465 -4.8252e-20 1.87918)
(2.79361 5.02622e-20 1.86619)
(2.20727 3.6469e-19 1.76839)
(1.62089 -1.34824e-18 1.54646)
(1.01126 8.37955e-19 1.19137)
(0.536326 0 0.660099)
(9.99093 -1.05184e-20 0.0556863)
(9.96935 0 0.107691)
(9.92793 0 0.157404)
(9.86504 5.68142e-21 0.207553)
(9.78289 -5.84367e-21 0.259703)
(9.68285 0 0.31458)
(9.56492 1.3776e-23 0.372833)
(9.42863 0 0.435202)
(9.27356 -1.32745e-20 0.502449)
(9.09925 -2.75217e-20 0.575325)
(8.90514 2.81111e-20 0.654585)
(8.69058 -1.46026e-20 0.740989)
(8.45481 1.513e-20 0.835288)
(8.19704 -1.56866e-20 0.938188)
(7.9164 4.93547e-20 1.05029)
(7.612 -1.35529e-19 1.172)
(7.28288 5.23625e-20 1.30339)
(6.92809 -1.83249e-20 1.44399)
(6.54662 -1.52874e-19 1.59258)
(6.13749 1.36979e-19 1.74677)
(5.69981 -3.07869e-22 1.90262)
(5.23292 -4.23658e-20 2.05414)
(4.73655 3.55071e-19 2.19272)
(4.21104 -3.6457e-19 2.3065)
(3.65741 -3.34042e-19 2.37968)
(3.07737 3.93105e-19 2.39194)
(2.47174 5.1009e-20 2.31734)
(1.84148 5.30107e-20 2.12466)
(1.15476 0 1.80164)
(0.573733 5.77089e-20 1.30427)
(9.99057 1.05168e-20 0.0636349)
(9.96852 0 0.124762)
(9.9274 0 0.184482)
(9.86586 0 0.244889)
(9.78582 -1.16297e-20 0.307587)
(9.68846 0 0.373512)
(9.57376 6.18246e-21 0.44343)
(9.44134 -1.27171e-20 0.518161)
(9.29083 0 0.598557)
(9.12183 -2.05099e-20 0.685474)
(8.93387 5.62097e-20 0.779768)
(8.72637 -1.43526e-20 0.882302)
(8.49871 -1.50876e-20 0.993925)
(8.25023 7.84276e-20 1.11544)
(7.98022 8.17443e-22 1.24755)
(7.68792 -1.17469e-19 1.39076)
(7.37256 8.6599e-20 1.54526)
(7.03325 -1.79783e-20 1.71072)
(6.66902 -1.50801e-19 1.88603)
(6.27871 3.10961e-19 2.06896)
(5.86092 -2.00846e-19 2.25565)
(5.414 -6.68845e-19 2.44015)
(4.93602 3.88394e-19 2.6137)
(4.42479 -2.71597e-19 2.76416)
(3.8779 7.4633e-19 2.87542)
(3.2928 -3.85678e-19 2.92721)
(2.66613 -1.00438e-19 2.8952)
(1.99796 -3.35354e-22 2.75152)
(1.25161 0 2.48249)
(0.597468 -5.70179e-20 2.03646)
(9.99045 1.04676e-20 0.0718297)
(9.96844 -1.07138e-20 0.14173)
(9.92803 0 0.210968)
(9.86813 0 0.281259)
(9.79055 1.1621e-20 0.354134)
(9.6963 1.19828e-20 0.430677)
(9.58537 -2.46073e-20 0.511787)
(9.45744 1.2676e-20 0.598375)
(9.31217 -2.62876e-20 0.691384)
(9.14922 2.68967e-20 0.791762)
(8.96817 1.39263e-20 0.900459)
(8.76851 0 1.01842)
(8.54968 0 1.14659)
(8.31105 0 1.28585)
(8.05198 6.44443e-20 1.43699)
(7.77175 -8.25976e-20 1.60062)
(7.46956 0 1.77706)
(7.14448 1.78841e-20 1.96615)
(6.79539 -3.67354e-20 2.16701)
(6.42081 3.80542e-20 2.37772)
(6.01881 3.9417e-20 2.59484)
(5.58684 8.2106e-20 2.81288)
(5.12154 3.41601e-19 3.02362)
(4.61868 -3.5148e-19 3.21546)
(4.07319 -4.5401e-20 3.37278)
(3.4795 0 3.47574)
(2.83137 4.94507e-20 3.50051)
(2.12971 7.70748e-19 3.41936)
(1.33545 -1.72291e-18 3.21478)
(0.623269 8.77674e-19 2.82277)
(9.99048 -1.17728e-20 0.0800333)
(9.96887 9.37017e-21 0.158423)
(9.92954 8.23038e-21 0.236714)
(9.87158 5.61956e-21 0.316452)
(9.79679 1.15463e-20 0.399094)
(9.70609 -2.38081e-20 0.485823)
(9.59945 1.22073e-20 0.577658)
(9.47659 3.79777e-20 0.675598)
(9.33725 -1.29366e-20 0.780667)
(9.18111 -2.69802e-20 0.893897)
(9.00781 -3.40782e-22 1.01632)
(8.81688 4.2787e-20 1.14898)
(8.60781 -1.47583e-20 1.29289)
(8.38 0 1.44902)
(8.1328 0 1.61829)
(7.86546 0 1.80141)
(7.57709 1.70277e-19 1.99888)
(7.26661 1.61926e-21 2.21077)
(6.93261 -1.08016e-19 2.43653)
(6.57322 -3.78062e-20 2.67471)
(6.18592 -7.77877e-20 2.92252)
(5.76724 -5.20643e-22 3.17531)
(5.31255 -8.32569e-20 3.42589)
(4.81586 -4.33816e-20 3.66379)
(4.26986 4.49268e-20 3.87442)
(3.6665 2.29496e-20 4.03848)
(2.99693 -2.3829e-20 4.13183)
(2.26272 8.02864e-19 4.12446)
(1.42297 2.45172e-20 3.99181)
(0.655432 1.94536e-20 3.65314)
(9.99061 1.30317e-21 0.0880953)
(9.96966 1.72925e-20 0.174679)
(9.93173 2.72946e-21 0.261582)
(9.87602 -3.58442e-23 0.350308)
(9.80435 -1.15378e-20 0.44227)
(9.71759 -1.61144e-23 0.538716)
(9.61572 2.43793e-20 0.640761)
(9.4985 1.44323e-23 0.74949)
(9.36571 -6.05756e-23 0.866001)
(9.2171 0 0.991403)
(9.05234 -7.79034e-23 1.12682)
(8.87104 4.28573e-20 1.27336)
(8.67271 -1.02657e-19 1.43214)
(8.45678 7.54051e-20 1.60425)
(8.22259 -6.29792e-20 1.7907)
(7.96934 1.9457e-19 1.9924)
(7.69604 -3.21714e-20 2.21005)
(7.40141 -2.42212e-19 2.44402)
(7.08376 1.77656e-19 2.6942)
(6.74079 1.85048e-19 2.95976)
(6.36934 -1.13384e-19 3.23877)
(5.96508 2.76873e-19 3.52774)
(5.52216 4.39124e-20 3.82092)
(5.03295 2.90729e-21 4.10948)
(4.48792 -6.95467e-19 4.38036)
(3.87638 -2.55973e-20 4.61514)
(3.18618 2.06351e-20 4.78899)
(2.41789 3.87169e-19 4.86816)
(1.52772 -4.13093e-19 4.81842)
(0.6981 4.06414e-19 4.53759)
(9.9908 -2.07391e-20 0.0959127)
(9.97073 -1.86278e-20 0.190362)
(9.93447 1.90199e-20 0.285437)
(9.88129 -1.67857e-20 0.382675)
(9.81305 5.72345e-21 0.48347)
(9.73061 0 0.589118)
(9.63395 1.2096e-20 0.700812)
(9.52287 -5.85458e-23 0.819713)
(9.39722 -6.59408e-23 0.946991)
(9.2568 0 1.08383)
(9.10134 -8.45534e-23 1.23142)
(8.9305 -7.06054e-20 1.39096)
(8.74385 5.78315e-20 1.56368)
(8.54086 -1.50474e-20 1.75076)
(8.32088 1.53952e-20 1.95338)
(8.08309 1.58818e-20 2.17263)
(7.8264 -1.32462e-19 2.40948)
(7.54941 1.01158e-19 2.66468)
(7.25017 -1.76267e-19 2.93866)
(6.92602 1.07625e-19 3.23134)
(6.57326 0 3.54187)
(6.18679 2.70746e-19 3.86819)
(5.75964 -3.3545e-19 4.20641)
(5.28254 2.0213e-20 4.54989)
(4.74357 -3.38533e-19 4.88786)
(4.12869 6.97084e-19 5.20358)
(3.42096 -3.48549e-19 5.47206)
(2.61677 0 5.65547)
(1.66636 0 5.70769)
(0.758608 -3.96157e-19 5.49859)
(9.99104 2.07353e-20 0.10341)
(9.97201 2.37858e-20 0.205357)
(9.93765 -2.78822e-21 0.308156)
(9.88727 0 0.413409)
(9.82275 -5.10554e-23 0.522517)
(9.74496 -5.94492e-23 0.636812)
(9.65391 -5.94371e-23 0.757552)
(9.54944 -1.24309e-20 0.885967)
(9.43146 1.28227e-20 1.02329)
(9.29982 -3.92841e-20 1.17076)
(9.15434 -1.35787e-20 1.32965)
(8.99475 1.39956e-20 1.50125)
(8.82067 5.77463e-20 1.68687)
(8.63164 -1.18524e-19 1.88782)
(8.42705 3.02759e-20 2.10544)
(8.20612 -3.14688e-20 2.34103)
(7.96774 1.30298e-19 2.59588)
(7.71044 3.43152e-20 2.87117)
(7.43217 -3.09359e-19 3.16795)
(7.13005 1.76207e-19 3.48702)
(6.80004 0 3.82875)
(6.43649 3.78052e-20 4.1928)
(6.03156 1.94497e-20 4.57757)
(5.57447 -2.00142e-20 4.97933)
(5.05078 -3.26588e-19 5.39072)
(4.44228 3.24329e-19 5.7983)
(3.72493 -3.58044e-19 6.17895)
(2.88614 -1.79853e-21 6.49232)
(1.86329 3.73522e-19 6.67923)
(0.85003 0 6.57149)
(9.99132 1.28931e-21 0.110531)
(9.97346 -2.5087e-20 0.21957)
(9.9412 -1.89449e-20 0.329627)
(9.89385 0 0.442379)
(9.8333 -1.1386e-20 0.559251)
(9.76046 2.33346e-20 0.681605)
(9.67538 -2.39103e-20 0.810754)
(9.57793 -1.24334e-20 0.947981)
(9.46808 3.80589e-20 1.09457)
(9.34577 8.45406e-23 1.25183)
(9.21088 2.69329e-20 1.4211)
(9.06323 -4.12683e-20 1.60372)
(8.90252 0 1.80111)
(8.7284 0 2.0147)
(8.54035 3.01236e-20 2.24599)
(8.33764 1.55901e-20 2.49652)
(8.11928 0 2.76788)
(7.88385 -1.64678e-19 3.06172)
(7.62935 1.68325e-19 3.37974)
(7.35292 -1.5661e-19 3.72369)
(7.05051 2.84131e-19 4.0953)
(6.71633 1.45349e-19 4.49614)
(6.34212 0 4.92732)
(5.91615 -3.06101e-19 5.38884)
(5.42178 -5.28258e-22 5.87824)
(4.83625 3.40518e-19 6.38809)
(4.12625 -3.29198e-19 6.90146)
(3.26337 -4.25227e-22 7.38127)
(2.15846 7.00767e-19 7.7588)
(0.997273 -3.65887e-19 7.81423)
(9.99163 1.28407e-21 0.117231)
(9.97504 1.3152e-21 0.232922)
(9.94505 -2.68625e-21 0.349749)
(9.90092 2.19928e-20 0.469468)
(9.84458 0 0.593531)
(9.77697 -1.1629e-20 0.723328)
(9.69815 1.1943e-20 0.860213)
(9.60808 -3.68171e-20 1.00552)
(9.50677 3.76941e-20 1.16057)
(9.39425 8.78929e-23 1.32672)
(9.27048 -5.31731e-20 1.50535)
(9.13537 5.45772e-20 1.6979)
(8.98876 7.04061e-20 1.90584)
(8.83039 -7.19775e-20 2.13073)
(8.65988 -1.49348e-20 2.3742)
(8.47668 0 2.63802)
(8.27995 1.41342e-19 2.92407)
(8.06849 7.28557e-22 3.23447)
(7.84057 -1.15268e-19 3.57153)
(7.59363 -1.70534e-20 3.93795)
(7.324 0 4.3368)
(7.02634 -1.4147e-19 4.77167)
(6.69282 1.44231e-19 5.24662)
(6.31184 -1.46886e-19 5.76606)
(5.86599 1.4984e-19 6.33406)
(5.32924 2.84335e-19 6.95279)
(4.65883 -2.0987e-21 7.61876)
(3.80368 -6.29721e-19 8.31195)
(2.62371 6.41051e-19 8.97457)
(1.25284 -3.44995e-19 9.33492)
(9.99197 -2.16857e-20 0.123474)
(9.97673 1.30657e-21 0.245349)
(9.94915 0 0.36844)
(9.90841 -2.19823e-20 0.494575)
(9.85647 -2.2431e-20 0.625237)
(9.7943 0 0.76184)
(9.72201 1.18648e-20 0.905768)
(9.63961 -3.64888e-20 1.05838)
(9.54718 -1.34882e-22 1.22105)
(9.44483 1.27156e-20 1.39517)
(9.33261 5.2666e-20 1.58214)
(9.21056 -4.05492e-20 1.78345)
(9.07863 -6.96873e-20 2.00065)
(8.93673 7.12204e-20 2.23537)
(8.78465 -7.328e-20 2.48938)
(8.62205 -3.20102e-22 2.76462)
(8.44837 4.59292e-20 3.06325)
(8.26278 0 3.38773)
(8.06398 -1.6276e-20 3.74096)
(7.85006 -1.15658e-19 4.12642)
(7.61819 1.34471e-19 4.54841)
(7.36417 1.19926e-19 5.01235)
(7.0817 -1.39354e-19 5.52516)
(6.76114 8.66007e-21 6.09577)
(6.38723 -1.415e-19 6.73576)
(5.93528 1.62018e-19 7.45992)
(5.35936 1.33107e-19 8.28703)
(4.58847 -1.4477e-19 9.23799)
(3.40127 -2.77951e-19 10.3307)
(1.74308 3.0177e-19 11.3767)
(9.99232 2.0404e-20 0.129232)
(9.9785 0 0.256799)
(9.95343 1.59211e-20 0.385626)
(9.91623 2.72149e-20 0.517605)
(9.86885 2.24181e-20 0.654246)
(9.8123 2.28638e-20 0.796982)
(9.74675 1.16617e-20 0.947218)
(9.67226 1.34998e-23 1.10634)
(9.58897 -1.23346e-20 1.27574)
(9.49708 0 1.45682)
(9.39677 1.29819e-20 1.65103)
(9.28817 -4.03356e-20 1.85987)
(9.17139 1.09793e-19 2.08493)
(9.0465 -1.1259e-19 2.32792)
(8.91353 1.29908e-19 2.59068)
(8.77239 -1.18187e-19 2.87527)
(8.62291 7.53745e-20 3.18403)
(8.46469 6.18741e-20 3.51971)
(8.29708 6.3181e-20 3.88559)
(8.11906 -1.44806e-19 4.28573)
(7.92907 0 4.72531)
(7.72473 1.32612e-19 5.21111)
(7.50247 -1.34472e-19 5.75221)
(7.25679 1.25256e-19 6.3612)
(6.97876 -1.36052e-19 7.05609)
(6.65371 1.19016e-19 7.86388)
(6.25142 2.8228e-21 8.8284)
(5.72168 -1.30957e-19 10.0297)
(4.80896 0 11.6681)
(2.82511 -7.22809e-20 14.52)
(0.143849 -2.51484e-21 -0.158104)
(0.362951 0 -0.14614)
(0.575884 0 -0.117493)
(0.759212 0 -0.0885313)
(0.9028 0 -0.0630483)
(1.00774 0 -0.0413464)
(1.07843 0 -0.0231326)
(1.11919 -5.84632e-22 -0.00821902)
(1.13399 7.66232e-22 0.00332722)
(1.12799 0 0.0112007)
(1.1071 -3.30339e-22 0.0156549)
(1.0773 3.23119e-22 0.0173434)
(1.04366 -7.53686e-23 0.0171238)
(1.00996 0 0.0156573)
(0.978864 3.36841e-23 0.0133781)
(0.952216 3.16702e-23 0.0106264)
(0.931137 -1.48155e-23 0.00772328)
(0.915999 0 0.0049723)
(0.906481 4.93551e-23 0.00258861)
(0.901797 -4.82559e-23 0.0005906)
(0.901311 5.30715e-24 -0.00120092)
(0.905178 0 -0.00292482)
(0.913605 0 -0.00452436)
(0.926703 0 -0.0058154)
(0.943866 0 -0.00669054)
(0.964152 -2.29571e-24 -0.00735398)
(0.987178 1.74716e-24 -0.00828102)
(1.01378 5.77841e-25 -0.0098776)
(1.04536 -5.64976e-25 -0.0118147)
(1.0891 0 -0.0123673)
(0.0982011 -2.4721e-21 -0.35136)
(0.322015 -5.83989e-22 -0.336778)
(0.521619 0 -0.279209)
(0.696895 4.08312e-21 -0.21919)
(0.841272 -3.98064e-21 -0.165649)
(0.956114 3.09691e-21 -0.119119)
(1.04501 -3.4644e-21 -0.0788837)
(1.11119 1.9595e-22 -0.0445448)
(1.15731 0 -0.016113)
(1.18524 -1.21391e-21 0.00606842)
(1.19526 -1.66827e-22 0.0208815)
(1.19344 -1.58468e-22 0.0286952)
(1.18516 7.52675e-23 0.0311469)
(1.17427 0 0.0299123)
(1.16354 2.30342e-22 0.0262864)
(1.1548 -2.89744e-22 0.0213046)
(1.14891 1.47866e-23 0.0158406)
(1.1458 -2.75639e-23 0.0106392)
(1.14466 -2.54732e-23 0.00620685)
(1.14445 0 0.00258101)
(1.14434 6.55135e-23 -0.000703597)
(1.14379 -7.961e-23 -0.00420255)
(1.14338 4.22818e-24 -0.00803068)
(1.14373 0 -0.0116992)
(1.14513 0 -0.0145319)
(1.14727 0 -0.0163029)
(1.14949 -4.98986e-25 -0.0175481)
(1.15178 1.4278e-24 -0.0193454)
(1.15608 8.64687e-25 -0.0221128)
(1.16991 0 -0.0230794)
(0.056744 -1.1872e-21 -0.544828)
(0.256547 5.83032e-22 -0.524501)
(0.416134 -7.48969e-21 -0.439625)
(0.558125 8.34865e-21 -0.352132)
(0.677081 6.5531e-21 -0.274257)
(0.774761 -5.98488e-21 -0.206236)
(0.853699 4.12791e-21 -0.146961)
(0.915952 -6.32092e-21 -0.0958275)
(0.963237 3.02972e-21 -0.0526912)
(0.997421 -1.56339e-21 -0.0177718)
(1.02109 -1.18857e-21 0.00801227)
(1.03243 1.41039e-21 0.0237307)
(1.03665 -3.58337e-23 0.0308374)
(1.03675 -5.99187e-22 0.0316169)
(1.03453 -6.1703e-22 0.0281935)
(1.031 0 0.0223885)
(1.02635 0 0.0157136)
(1.02011 5.52848e-23 0.00946452)
(1.01132 5.10943e-23 0.0046451)
(0.998809 -2.34685e-23 0.00162594)
(0.981634 -7.11483e-23 -3.92552e-05)
(0.959875 7.99689e-23 -0.00125867)
(0.934653 5.99516e-23 -0.00267676)
(0.908346 -6.27719e-23 -0.00427667)
(0.883827 2.26621e-23 -0.00569247)
(0.863021 -4.0746e-24 -0.00683969)
(0.846499 -1.70659e-23 -0.00845964)
(0.833757 3.10433e-27 -0.0122281)
(0.826563 8.71299e-25 -0.0191811)
(0.827218 -5.89384e-25 -0.027085)
(0.0230018 1.98234e-20 -0.703493)
(0.186183 -1.81709e-20 -0.66757)
(0.296602 -1.96619e-23 -0.557062)
(0.397669 -1.0003e-21 -0.449116)
(0.482327 7.42751e-21 -0.354703)
(0.55387 -1.50976e-20 -0.272503)
(0.613994 1.33449e-20 -0.200824)
(0.663648 -4.09841e-21 -0.138747)
(0.703977 -3.01903e-21 -0.0855859)
(0.735153 3.51472e-22 -0.0418669)
(0.759542 2.71141e-21 -0.00898375)
(0.773104 1.57314e-21 0.0127948)
(0.777148 -2.26742e-21 0.0246688)
(0.77489 1.16549e-21 0.0288714)
(0.767048 2.03669e-22 0.0281699)
(0.753096 0 0.0252098)
(0.732037 -4.66815e-22 0.0221311)
(0.703764 4.28703e-22 0.0204139)
(0.6701 -2.25084e-22 0.0206391)
(0.634168 3.63978e-23 0.0222108)
(0.598748 1.78126e-22 0.0235649)
(0.565665 -1.47163e-22 0.0230715)
(0.536423 2.17144e-22 0.0199365)
(0.512768 -6.32365e-23 0.0145108)
(0.495753 -1.49282e-27 0.007956)
(0.484156 1.29344e-24 0.00159545)
(0.47708 0 -0.00370768)
(0.471109 -1.43874e-24 -0.00948204)
(0.464178 -1.74312e-24 -0.018499)
(0.449669 5.90993e-25 -0.0343662)
(-0.00699276 0 -0.821534)
(0.110488 -5.5298e-22 -0.761684)
(0.166503 -1.0629e-21 -0.629093)
(0.222608 6.65284e-24 -0.508177)
(0.266615 3.76248e-24 -0.404272)
(0.304726 0 -0.314164)
(0.338093 -1.67157e-21 -0.235772)
(0.36624 1.18348e-21 -0.168435)
(0.391013 3.73652e-22 -0.111729)
(0.411548 2.78841e-21 -0.0631057)
(0.419973 2.72498e-21 -0.021146)
(0.416342 -3.19706e-22 0.0107176)
(0.40693 -1.52092e-22 0.0295577)
(0.391843 -9.92931e-22 0.0387055)
(0.37103 9.75792e-22 0.0427385)
(0.34573 0 0.0447265)
(0.3179 -5.30696e-22 0.0460452)
(0.289641 4.59845e-22 0.0467917)
(0.262807 4.01782e-22 0.046508)
(0.238675 -3.92815e-22 0.0447422)
(0.217769 -2.16516e-23 0.0411707)
(0.199892 0 0.035631)
(0.184407 -8.59353e-24 0.0283784)
(0.170826 0 0.0202127)
(0.158627 3.96165e-25 0.0121966)
(0.14645 -1.29702e-24 0.00534939)
(0.134578 0 0.000469036)
(0.127443 0 -0.00401383)
(0.108683 4.08125e-24 -0.0137088)
(0.0834352 -3.44765e-24 -0.0338413)
(-0.0345384 3.6683e-20 -0.892136)
(0.0310423 1.96715e-22 -0.802278)
(0.0311816 -1.65535e-20 -0.65241)
(0.0405261 1.00095e-21 -0.524086)
(0.040238 9.33542e-21 -0.415129)
(0.0392985 -7.27121e-21 -0.32072)
(0.0387058 8.40554e-22 -0.237587)
(0.0352824 -7.94003e-22 -0.163995)
(0.0256049 -7.55936e-22 -0.100688)
(0.0193893 -3.56582e-22 -0.0483164)
(0.0120187 -2.68788e-21 -0.00646401)
(0.00636069 5.18201e-21 0.0231946)
(-0.00208492 -2.49668e-21 0.0419461)
(-0.013501 -2.92097e-22 0.0529377)
(-0.0273625 1.38346e-22 0.0587546)
(-0.0426331 0 0.0612029)
(-0.0581318 1.21316e-22 0.0613714)
(-0.0730154 -5.65293e-23 0.0598204)
(-0.0867904 0 0.0568643)
(-0.0993731 3.6909e-22 0.0527297)
(-0.111138 -3.60825e-22 0.0475555)
(-0.122827 0 0.0414254)
(-0.135198 1.30859e-22 0.0345125)
(-0.148614 -2.40342e-22 0.0271753)
(-0.163077 1.09902e-22 0.0199475)
(-0.178554 0 0.0134762)
(-0.195065 0 0.0082689)
(-0.212053 -6.42363e-24 0.00331205)
(-0.229 7.35443e-24 -0.0065198)
(-0.248576 2.26968e-24 -0.0228511)
(-0.061136 0 -0.908347)
(-0.0505217 0 -0.785504)
(-0.103198 -5.31084e-22 -0.625698)
(-0.140995 0 -0.495209)
(-0.183699 6.59175e-21 -0.386705)
(-0.223686 -1.49515e-20 -0.294684)
(-0.259556 6.95937e-21 -0.215923)
(-0.289464 6.77097e-21 -0.148605)
(-0.312706 -5.4519e-21 -0.0914599)
(-0.32975 3.65931e-22 -0.0433675)
(-0.34161 3.06122e-21 -0.00424415)
(-0.347324 -2.65072e-21 0.0252677)
(-0.352293 2.44047e-21 0.0454368)
(-0.357193 -2.23797e-21 0.0578162)
(-0.36277 1.02916e-24 0.0644002)
(-0.36922 -1.1484e-21 0.0670236)
(-0.376516 9.34066e-22 0.0670424)
(-0.384627 5.63706e-23 0.0653298)
(-0.393586 0 0.0624089)
(-0.403513 -4.79803e-23 0.0585825)
(-0.414606 -9.49483e-26 0.0539877)
(-0.427062 1.68807e-22 0.0486433)
(-0.440929 -1.4585e-22 0.0425641)
(-0.456008 -1.12514e-22 0.0359033)
(-0.471963 1.09993e-22 0.0290782)
(-0.488699 -3.73778e-23 0.0228027)
(-0.506785 6.43882e-23 0.0176338)
(-0.527033 -1.52306e-23 0.0123721)
(-0.547865 -1.22988e-23 0.0028094)
(-0.561582 -1.11853e-24 -0.0110662)
(-0.0896467 1.88374e-20 -0.864765)
(-0.131397 -1.86055e-20 -0.717743)
(-0.231928 -1.72349e-20 -0.558536)
(-0.31228 2.44774e-20 -0.433705)
(-0.388935 -7.97223e-21 -0.332716)
(-0.455999 -7.28653e-21 -0.249709)
(-0.512101 1.3973e-20 -0.180343)
(-0.556774 -6.69841e-21 -0.121736)
(-0.59075 -3.85648e-22 -0.0721155)
(-0.614897 -3.2705e-21 -0.0305975)
(-0.630982 -3.53723e-21 0.00295172)
(-0.639214 -2.60396e-21 0.0286613)
(-0.644416 2.54316e-21 0.0471783)
(-0.647937 0 0.0592751)
(-0.651441 8.13194e-22 0.0663458)
(-0.656013 -1.95846e-21 0.069852)
(-0.662254 -1.45786e-23 0.0709367)
(-0.670414 9.30306e-22 0.0703462)
(-0.68048 0 0.0685154)
(-0.692281 -3.46617e-22 0.0656706)
(-0.705571 3.83801e-22 0.0618878)
(-0.720081 -1.95476e-23 0.0571551)
(-0.735544 -8.69343e-24 0.0514887)
(-0.751722 0 0.0450865)
(-0.768519 0 0.0384794)
(-0.786304 3.73229e-23 0.0325231)
(-0.806247 -3.64911e-23 0.0277431)
(-0.829474 -5.66781e-24 0.0227187)
(-0.852981 5.51898e-24 0.0138401)
(-0.865355 -2.16283e-24 0.00242974)
(-0.122161 -9.72313e-21 -0.764273)
(-0.210033 3.6237e-22 -0.604526)
(-0.354158 9.06595e-21 -0.453801)
(-0.470704 -7.5954e-21 -0.341345)
(-0.574214 1.63643e-20 -0.254888)
(-0.661211 -1.49597e-20 -0.186695)
(-0.731833 7.28391e-21 -0.13123)
(-0.787346 -4.16759e-22 -0.0849607)
(-0.829311 6.26745e-21 -0.0459519)
(-0.859893 -6.12178e-21 -0.0131744)
(-0.880117 3.14799e-21 0.0135116)
(-0.89317 -5.36932e-21 0.0345976)
(-0.902095 2.73709e-21 0.0505935)
(-0.908799 0 0.0618719)
(-0.915197 1.39563e-22 0.0693464)
(-0.922674 0 0.0739741)
(-0.931984 -4.24682e-25 0.0764608)
(-0.943328 -8.84546e-22 0.0772272)
(-0.956496 9.17002e-22 0.076511)
(-0.971082 -3.47282e-22 0.0744549)
(-0.98666 3.62858e-22 0.0711401)
(-1.00289 0 0.0666252)
(-1.01959 1.3027e-23 0.0610441)
(-1.03672 1.1819e-25 0.0547535)
(-1.05451 3.19956e-24 0.0484643)
(-1.07376 0 0.0431377)
(-1.09615 0 0.0391915)
(-1.12314 8.87022e-24 0.0350614)
(-1.15089 -5.52126e-24 0.027633)
(-1.16657 0 0.0185034)
(-0.160806 1.06461e-20 -0.610126)
(-0.294478 -7.79439e-23 -0.447441)
(-0.478551 7.16518e-23 -0.314531)
(-0.627198 -2.70727e-22 -0.22411)
(-0.753232 7.87359e-21 -0.159466)
(-0.856212 -3.94541e-23 -0.110913)
(-0.938156 -7.47044e-21 -0.0726416)
(-1.00165 0 -0.0411396)
(-1.04985 -2.0607e-22 -0.0143512)
(-1.08499 3.0195e-21 0.0086206)
(-1.11011 2.76461e-21 0.0282712)
(-1.12907 2.67882e-21 0.044747)
(-1.14367 -5.13328e-21 0.0579554)
(-1.15581 9.54053e-23 0.0680714)
(-1.1673 2.31089e-21 0.0756372)
(-1.17947 0 0.0811147)
(-1.19308 -8.98647e-22 0.0847027)
(-1.20822 1.7684e-21 0.0864371)
(-1.22459 -9.19885e-22 0.0863643)
(-1.24176 -3.72216e-22 0.0846103)
(-1.25939 2.74592e-23 0.0813452)
(-1.27732 3.38596e-22 0.0767606)
(-1.29554 -4.34444e-24 0.0711444)
(-1.31421 -1.17912e-25 0.0650237)
(-1.33368 -9.60192e-24 0.0592594)
(-1.35477 0 0.0548391)
(-1.37917 0 0.0520128)
(-1.40808 0 0.0490854)
(-1.4369 -3.14567e-24 0.0432136)
(-1.45237 0 0.0358348)
(-0.209407 1.02433e-20 -0.399529)
(-0.396625 -2.5191e-22 -0.249605)
(-0.624251 -9.89464e-21 -0.142283)
(-0.804495 0 -0.0811895)
(-0.948378 0 -0.0463407)
(-1.06023 0 -0.0243468)
(-1.14651 0 -0.00766595)
(-1.21269 2.23455e-22 0.00690773)
(-1.26307 2.05764e-22 0.0207172)
(-1.30211 0 0.0343745)
(-1.33314 3.68728e-22 0.0476324)
(-1.35828 0 0.0596909)
(-1.37911 -1.61465e-22 0.0699526)
(-1.39719 -2.54482e-21 0.0784936)
(-1.4141 2.33548e-21 0.0856595)
(-1.43123 0 0.0915066)
(-1.44931 0 0.0957258)
(-1.46841 -8.33943e-22 0.0979607)
(-1.48822 8.70702e-22 0.0981033)
(-1.50836 -2.42392e-23 0.0963269)
(-1.52864 -3.26206e-22 0.0929309)
(-1.54905 3.19765e-22 0.0882262)
(-1.56969 0 0.0825948)
(-1.59066 0 0.0766518)
(-1.61217 6.39485e-24 0.0713213)
(-1.63489 -1.04539e-23 0.0675722)
(-1.6605 0 0.0655769)
(-1.69022 1.08624e-23 0.063737)
(-1.71926 0 0.0595577)
(-1.73438 0 0.0540674)
(-0.283898 -1.88563e-22 -0.083111)
(-0.541822 -1.05553e-20 0.0495639)
(-0.805906 1.50615e-22 0.0840079)
(-1.00285 -7.14784e-23 0.0830844)
(-1.15168 -8.4576e-21 0.0730386)
(-1.26493 8.23448e-21 0.0635702)
(-1.35224 -7.52436e-21 0.058095)
(-1.42045 3.45895e-21 0.0566737)
(-1.4743 1.21819e-22 0.0587999)
(-1.51768 3.15746e-21 0.0641535)
(-1.55376 -1.85892e-22 0.0716259)
(-1.58452 0 0.079465)
(-1.611 2.58738e-21 0.086578)
(-1.63423 -2.45117e-21 0.0930647)
(-1.65571 1.12677e-21 0.0993402)
(-1.67696 -1.10063e-21 0.105159)
(-1.69881 0 0.109649)
(-1.72125 0 0.112001)
(-1.74382 -4.10596e-22 0.111968)
(-1.76611 4.49746e-22 0.109838)
(-1.78808 -2.20185e-23 0.106077)
(-1.80986 -3.06623e-22 0.101086)
(-1.83165 2.94887e-22 0.095272)
(-1.85351 1.21116e-22 0.0892761)
(-1.87556 -1.66639e-23 0.0840717)
(-1.89846 -7.12742e-23 0.0806607)
(-1.92399 -2.70478e-23 0.079251)
(-1.95351 1.56093e-23 0.0784128)
(-1.98218 -5.87532e-24 0.0758852)
(-1.99686 0 0.0721517)
(-0.357617 -2.41338e-22 0.35575)
(-0.69115 -1.05673e-20 0.384126)
(-0.997691 3.70746e-23 0.315868)
(-1.20941 9.0693e-21 0.246337)
(-1.36202 -8.71406e-21 0.19142)
(-1.47439 4.12236e-21 0.150758)
(-1.56017 -3.94506e-21 0.12426)
(-1.62803 1.13612e-22 0.1082)
(-1.68251 -3.43048e-21 0.099266)
(-1.72735 2.24247e-22 0.0967654)
(-1.76614 -3.12225e-21 0.099099)
(-1.80066 2.80606e-21 0.103082)
(-1.83097 -2.02332e-22 0.106758)
(-1.8573 -1.26031e-21 0.110552)
(-1.8812 -2.25807e-21 0.115432)
(-1.90467 1.11079e-21 0.120954)
(-1.92871 9.74669e-22 0.125476)
(-1.95309 -9.52254e-22 0.127574)
(-1.97703 0 0.12689)
(-2.00004 -2.42604e-23 0.123966)
(-2.02222 -3.22712e-22 0.119544)
(-2.04402 6.39242e-22 0.114109)
(-2.06576 -2.95883e-22 0.108008)
(-2.08752 -1.21552e-22 0.101843)
(-2.10932 9.84445e-23 0.0966184)
(-2.13179 2.69409e-23 0.0934104)
(-2.15683 -6.36438e-23 0.0925404)
(-2.18591 1.56628e-23 0.0927532)
(-2.21418 9.74229e-24 0.0918389)
(-2.22859 1.92476e-24 0.0896305)
(-0.473595 0 0.908608)
(-0.906382 4.81144e-21 0.794214)
(-1.25478 -4.72495e-21 0.573943)
(-1.45685 0 0.405331)
(-1.59188 -6.7239e-23 0.303685)
(-1.68914 -6.41498e-23 0.232267)
(-1.76345 3.81513e-21 0.186422)
(-1.82484 -3.84392e-21 0.15845)
(-1.87561 2.72782e-23 0.139275)
(-1.91783 1.63929e-24 0.129371)
(-1.95605 -2.45801e-23 0.127801)
(-1.99218 -2.87042e-21 0.128859)
(-2.02443 1.494e-21 0.128848)
(-2.05159 6.03551e-23 0.129139)
(-2.0755 2.28271e-21 0.13223)
(-2.09924 -1.12135e-21 0.137586)
(-2.1242 -3.16021e-23 0.142273)
(-2.14963 4.50567e-22 0.143929)
(-2.17408 -4.4027e-22 0.14216)
(-2.19688 -3.76783e-22 0.13804)
(-2.21844 2.29058e-23 0.132785)
(-2.23963 3.37851e-22 0.126932)
(-2.26098 1.33394e-22 0.120627)
(-2.2825 -1.15022e-22 0.114322)
(-2.30401 1.21296e-22 0.109035)
(-2.32606 -5.55226e-23 0.105973)
(-2.35062 -6.4048e-23 0.105665)
(-2.37932 3.98739e-23 0.107045)
(-2.40741 2.4042e-24 0.107771)
(-2.42177 0 0.106901)
(-0.738588 0 1.86657)
(-1.2722 4.08212e-21 1.34473)
(-1.63187 -4.00022e-21 0.802721)
(-1.75588 0 0.500339)
(-1.82873 2.62203e-22 0.398675)
(-1.89492 -1.28548e-22 0.302914)
(-1.94603 6.16932e-23 0.23494)
(-1.99453 3.78574e-21 0.201623)
(-2.03795 -3.63989e-21 0.174423)
(-2.07277 -1.63635e-24 0.157915)
(-2.10658 3.23942e-21 0.155304)
(-2.14287 1.70811e-23 0.155872)
(-2.17624 1.38693e-21 0.151926)
(-2.20237 -2.5638e-21 0.147286)
(-2.22392 2.38107e-21 0.148143)
(-2.24633 -1.13238e-21 0.154041)
(-2.27166 1.01514e-21 0.15953)
(-2.29805 -9.60967e-22 0.160706)
(-2.32278 4.14309e-22 0.157341)
(-2.34485 -4.04909e-22 0.151551)
(-2.3652 4.88701e-24 0.145361)
(-2.38545 -4.98894e-24 0.139289)
(-2.4064 0 0.133004)
(-2.42786 -1.30715e-22 0.126646)
(-2.44933 9.97467e-23 0.121242)
(-2.47113 1.65608e-23 0.11822)
(-2.49531 -3.72347e-23 0.118431)
(-2.52378 -1.08607e-23 0.121058)
(-2.55197 5.86028e-24 0.123494)
(-2.5665 -3.70649e-24 0.123839)
(9.9927 0 0.134576)
(9.98038 -2.49542e-21 0.267425)
(9.95796 -2.65308e-21 0.401556)
(9.92449 -2.09603e-20 0.538919)
(9.88189 3.20844e-20 0.681043)
(9.83126 -2.19796e-20 0.829372)
(9.77279 -3.3806e-20 0.985324)
(9.70661 5.76897e-20 1.1503)
(9.63295 -1.1739e-20 1.32568)
(9.5521 0 1.51289)
(9.46433 -1.24943e-20 1.71339)
(9.36993 -2.5503e-20 1.92867)
(9.26916 -5.23785e-20 2.16035)
(9.1623 5.34361e-20 2.41015)
(9.04961 0 2.67995)
(8.93135 0 2.97186)
(8.80774 -7.17154e-20 3.28832)
(8.67897 4.39025e-20 3.63218)
(8.54515 5.94276e-20 4.00691)
(8.40636 -1.20837e-19 4.41686)
(8.26261 1.83515e-19 4.86756)
(8.11392 1.68017e-20 5.36636)
(7.96038 1.25177e-19 5.92323)
(7.80241 -3.81643e-21 6.55218)
(7.64144 0 7.27367)
(7.48239 3.88816e-21 8.11926)
(7.33878 5.51487e-20 9.14103)
(7.29312 -5.47846e-20 10.4294)
(7.77006 1.94557e-20 12.1217)
(7.9748 5.65989e-20 14.8321)
(9.9931 0 0.139516)
(9.98236 2.42382e-21 0.277232)
(9.96274 1.74032e-20 0.416218)
(9.93316 2.02407e-20 0.558463)
(9.89557 -2.08485e-20 0.705514)
(9.85108 -2.12273e-20 0.858819)
(9.79996 1.09274e-20 1.0198)
(9.74238 -1.13237e-20 1.18984)
(9.67866 0 1.37034)
(9.60918 0 1.56271)
(9.53434 1.21234e-20 1.76836)
(9.45456 -2.4626e-20 1.98882)
(9.37029 1.26353e-20 2.22564)
(9.28201 3.88219e-20 2.48055)
(9.19026 -3.95649e-20 2.75538)
(9.09563 0 3.05224)
(8.99879 0 3.37351)
(8.90052 -5.55558e-20 3.72201)
(8.80177 9.94364e-20 4.10113)
(8.70375 -5.76612e-20 4.51508)
(8.60811 5.78246e-20 4.96916)
(8.51724 6.60022e-20 5.47028)
(8.43489 0 6.02753)
(8.36728 1.92351e-21 6.65322)
(8.32544 1.0925e-22 7.36408)
(8.33095 -1.6848e-21 8.1829)
(8.42269 0 9.13912)
(8.65069 5.26009e-21 10.2657)
(9.29603 4.70988e-21 11.5092)
(9.7777 -3.08621e-20 12.6023)
(9.99352 1.15108e-21 0.143963)
(9.98443 1.75919e-20 0.286057)
(9.96772 0 0.429386)
(9.94219 1.97594e-20 0.575971)
(9.90978 2.01059e-20 0.727361)
(9.87164 2.072e-20 0.885002)
(9.82809 2.1072e-20 1.0503)