/*--------------------------------*- C++ -*----------------------------------*\
| =========                 |                                                 |
| \\      /  F ield         | OpenFOAM: The Open Source CFD Toolbox           |
|  \\    /   O peration     | Version:  dev                                   |
|   \\  /    A nd           | Web:      www.OpenFOAM.org                      |
|    \\/     M anipulation  |                                                 |
\*---------------------------------------------------------------------------*/
FoamFile
{
    version     2.0;
    format      ascii;
    class       surfaceVectorField;
    location    "4";
    object      Uf;
}
// * * * * * * * * * * * * * * * * * * * * * * * * * * * * * * * * * * * * * //

dimensions      [0 1 -1 0 0 0 0];

internalField   nonuniform List<vector> 
5457
(
(9.91928 1.30722e-21 0.0240544)
(9.96841 -1.15775e-23 0.0389206)
(9.82301 0 0.0318024)
(9.92706 1.35274e-21 0.0476021)
(9.7094 -1.81555e-22 0.03832)
(9.85631 1.38769e-21 0.0576255)
(9.57643 -3.65418e-22 0.0449969)
(9.75918 -1.79289e-22 0.0691843)
(9.42391 -5.68985e-22 0.0519051)
(9.64127 -1.85835e-22 0.0813894)
(9.25187 -1.17381e-21 0.0591056)
(9.50402 -1.13642e-21 0.0941615)
(9.05994 8.60958e-22 0.0667475)
(9.34671 -7.87837e-22 0.10773)
(8.84743 1.59798e-21 0.0749827)
(9.16835 8.11357e-22 0.122332)
(8.61338 -8.85602e-22 0.0839465)
(8.96806 0 0.138164)
(8.35666 4.48076e-23 0.0937686)
(8.74487 2.60059e-21 0.155411)
(8.07596 2.79516e-21 0.104582)
(8.49759 -2.66458e-21 0.174255)
(7.76984 -2.06815e-21 0.116521)
(8.22486 1.88575e-21 0.194879)
(7.43674 -3.83325e-21 0.129723)
(7.92517 -1.95516e-21 0.217456)
(7.07509 0 0.144315)
(7.59692 0 0.24213)
(6.68331 0 0.160409)
(7.23848 0 0.269002)
(6.26002 -2.32113e-21 0.178078)
(6.8483 1.7512e-20 0.298092)
(5.80412 -2.26367e-21 0.197341)
(6.42501 -3.62676e-20 0.3293)
(5.31507 7.66037e-21 0.218123)
(5.96763 -2.71352e-22 0.362346)
(4.79314 -2.98837e-21 0.240219)
(5.4758 2.95531e-20 0.396708)
(4.23975 6.36786e-21 0.26324)
(4.95005 -2.06069e-20 0.431538)
(3.65786 5.0786e-20 0.286556)
(4.39222 -2.12705e-20 0.465579)
(3.05244 1.5963e-20 0.309222)
(3.80583 -5.50744e-20 0.497084)
(2.43084 -1.11783e-20 0.329897)
(3.19658 2.28857e-20 0.523748)
(1.80327 6.08028e-21 0.346836)
(2.57281 2.58035e-22 0.542693)
(1.18264 -1.34264e-20 0.358582)
(1.94597 2.50542e-20 0.550773)
(0.582052 2.8558e-20 0.360987)
(1.33297 -1.04763e-19 0.546899)
(0.0038137 -2.01415e-20 0.115032)
(0.743948 1.6178e-19 0.538914)
(-0.290011 -5.57432e-20 -0.237544)
(0.12124 -5.62985e-20 0.27909)
(-0.319255 -2.99816e-20 -0.37452)
(-0.0177697 0 0.0276531)
(-0.00710403 -1.75585e-19 -0.31788)
(9.99744 6.2823e-23 0.050308)
(9.9949 -3.96255e-21 0.0401573)
(9.96055 2.74087e-21 0.0692053)
(9.97829 2.70415e-21 0.0658425)
(9.90137 1.37015e-21 0.0860749)
(9.93616 2.52165e-24 0.0876471)
(9.8213 0 0.103795)
(9.8686 0 0.110844)
(9.72011 -7.65427e-22 0.122492)
(9.77994 0 0.135394)
(9.59761 -7.46423e-22 0.142245)
(9.6717 -2.26423e-21 0.161211)
(9.45344 -8.17063e-22 0.163355)
(9.54341 0 0.188662)
(9.28693 -7.96844e-22 0.186152)
(9.39421 2.40837e-21 0.218188)
(9.09718 3.51872e-21 0.210929)
(9.22332 0 0.250184)
(8.88308 -1.7525e-22 0.237968)
(9.02988 3.47529e-21 0.285027)
(8.64334 -3.51719e-21 0.267545)
(8.81281 -1.07369e-20 0.323091)
(8.37652 1.95456e-21 0.299927)
(8.57086 3.65888e-21 0.364755)
(8.08103 1.90635e-21 0.335357)
(8.30259 1.93048e-21 0.410379)
(7.75523 0 0.374027)
(8.00647 0 0.46028)
(7.39745 1.77311e-20 0.416035)
(7.6809 0 0.514687)
(7.00615 -1.70773e-20 0.461334)
(7.32426 -4.14857e-21 0.573686)
(6.58003 -3.38386e-20 0.509661)
(6.93506 -2.51028e-20 0.637128)
(6.11827 2.19806e-20 0.560436)
(6.51206 -9.58772e-21 0.704521)
(5.62079 1.13582e-20 0.612658)
(6.05448 1.23096e-20 0.774888)
(5.08859 -4.83259e-20 0.664781)
(5.56228 -5.44479e-23 0.846602)
(4.52421 -1.27728e-19 0.714576)
(5.03652 -4.83534e-20 0.917199)
(3.93217 -4.73506e-20 0.759)
(4.47982 1.00285e-20 0.983185)
(3.31962 3.37853e-20 0.79406)
(3.89683 -5.04516e-20 1.03982)
(2.697 1.93955e-20 0.814649)
(3.29496 -6.04081e-21 1.08091)
(2.07949 -6.74779e-20 0.814024)
(2.68515 2.55048e-22 1.09835)
(1.49302 3.23979e-20 0.779789)
(2.08497 8.7969e-20 1.08008)
(1.00032 1.19412e-19 0.657144)
(1.50859 -2.75443e-19 0.997008)
(0.493226 0 0.418102)
(0.985689 2.45822e-19 0.760153)
(0.081586 -1.49334e-19 -0.0494328)
(0.518376 2.83045e-20 0.420842)
(0.242473 -2.02904e-19 -0.233305)
(9.98997 -1.23998e-21 0.0583258)
(9.99257 3.28143e-22 0.0449914)
(9.95604 -7.22219e-23 0.087413)
(9.97333 -1.69044e-21 0.0826189)
(9.90028 -1.3696e-21 0.115187)
(9.93208 -1.38714e-21 0.115933)
(9.82502 0 0.144428)
(9.86746 -4.26821e-21 0.149995)
(9.73051 -1.52675e-21 0.17546)
(9.78269 7.31916e-21 0.185828)
(9.61654 -1.48885e-21 0.20844)
(9.67935 1.53046e-21 0.223585)
(9.48283 3.25563e-21 0.243779)
(9.55722 -6.2021e-21 0.263714)
(9.32888 3.1751e-21 0.281958)
(9.41565 2.87766e-24 0.306804)
(9.15399 0 0.323444)
(9.25405 0 0.353428)
(8.95723 -7.26489e-21 0.368694)
(9.07173 3.42453e-21 0.404134)
(8.73753 -3.38012e-21 0.41817)
(8.86787 -7.17539e-21 0.45948)
(8.49363 3.61328e-21 0.472327)
(8.64146 7.34361e-21 0.520025)
(8.22415 0 0.531587)
(8.39135 0 0.586318)
(7.92756 0 0.5963)
(8.11628 0 0.658857)
(7.6023 -2.19318e-20 0.666678)
(7.81488 4.13325e-20 0.738038)
(7.24678 -1.24344e-20 0.742707)
(7.48576 -8.57576e-20 0.824071)
(6.85955 -6.8225e-22 0.824028)
(7.12752 5.30652e-20 0.916861)
(6.43939 -1.90221e-20 0.909777)
(6.73885 -2.80511e-20 1.01585)
(5.98562 6.90711e-22 0.998396)
(6.3187 3.81216e-20 1.11982)
(5.4983 -6.7746e-22 1.0874)
(5.86646 -6.0375e-20 1.22662)
(4.97871 9.0033e-20 1.17314)
(5.38223 9.27958e-20 1.33288)
(4.4298 6.28708e-21 1.25049)
(4.86719 8.83789e-20 1.43368)
(3.85683 -8.97388e-20 1.31257)
(4.32411 -9.08601e-20 1.52217)
(3.26827 -2.49601e-20 1.35015)
(3.7579 -2.32452e-20 1.58898)
(2.67704 1.56841e-19 1.35041)
(3.17611 -4.8786e-20 1.62137)
(2.10152 -2.24457e-19 1.29229)
(2.59025 2.04148e-19 1.60113)
(1.55783 -1.404e-19 1.1346)
(2.01061 -2.13459e-19 1.49917)
(1.01544 2.7177e-19 0.849142)
(1.4475 -4.28428e-19 1.26931)
(0.508948 -3.15956e-20 0.362968)
(0.881198 4.48231e-19 0.89958)
(0.468001 -5.87434e-20 0.262855)
(9.98585 -1.47773e-22 0.0697685)
(9.99133 -2.29034e-21 0.051816)
(9.95195 -3.00026e-21 0.110442)
(9.97035 -3.03877e-21 0.0993793)
(9.89715 -4.32216e-21 0.149902)
(9.92898 0 0.143728)
(9.82313 3.19593e-21 0.190558)
(9.86553 -1.42765e-21 0.188505)
(9.73046 1.03014e-20 0.233191)
(9.78251 4.39771e-21 0.235282)
(9.61907 -3.28296e-21 0.278238)
(9.68137 3.03656e-21 0.28455)
(9.48875 -9.37574e-21 0.326277)
(9.56207 -6.19565e-21 0.336861)
(9.33918 -3.17091e-21 0.377961)
(9.4241 -3.21109e-21 0.392905)
(9.16985 3.46732e-21 0.433939)
(9.26699 -6.6372e-21 0.453387)
(8.98011 3.38185e-21 0.49485)
(9.09023 -1.0336e-20 0.519)
(8.76916 3.72933e-21 0.561342)
(8.8932 1.40553e-20 0.590439)
(8.53609 3.63756e-21 0.634057)
(8.67513 -3.61769e-21 0.668409)
(8.27987 0 0.713608)
(8.43517 7.56482e-21 0.753604)
(7.99937 4.18479e-20 0.800529)
(8.17238 -7.84308e-21 0.84667)
(7.6934 -2.40609e-20 0.895201)
(7.88576 6.60089e-20 0.94815)
(7.36071 -1.85811e-20 0.997744)
(7.57422 -1.31865e-19 1.05839)
(7.00007 2.46717e-20 1.10786)
(7.23669 7.03801e-20 1.17739)
(6.61032 2.98469e-20 1.22464)
(6.87206 -2.79119e-20 1.30466)
(6.19053 -2.41776e-20 1.34628)
(6.47929 -2.86171e-20 1.43892)
(5.74015 3.48384e-20 1.46978)
(6.05749 -2.04737e-21 1.57779)
(5.25932 9.11186e-20 1.59056)
(5.60604 1.03203e-19 1.71745)
(4.74923 -1.07028e-20 1.70206)
(5.12486 -3.20181e-20 1.8521)
(4.21256 -2.35282e-20 1.79516)
(4.61467 1.77527e-19 1.97349)
(3.65401 -4.73819e-20 1.85756)
(4.07734 -2.05538e-19 2.07029)
(3.08042 1.58557e-21 1.87261)
(3.51604 -1.91189e-19 2.1273)
(2.49957 2.0928e-19 1.81667)
(2.93552 2.21699e-19 2.12455)
(1.9153 -5.02011e-19 1.65608)
(2.33955 2.07819e-19 2.0354)
(1.31922 -2.41389e-19 1.36684)
(1.73125 -6.47366e-19 1.8246)
(0.708038 4.13922e-19 0.924611)
(1.08309 4.18734e-19 1.4754)
(0.555178 2.88697e-20 0.92927)
(9.98393 -5.19365e-21 0.0820124)
(9.99075 -1.39244e-24 0.0595652)
(9.94966 0 0.132862)
(9.96893 0 0.116326)
(9.89577 2.8766e-21 0.182796)
(9.92767 0 0.171063)
(9.82312 -1.53733e-22 0.233957)
(9.86545 2.84073e-21 0.226303)
(9.73232 -2.88511e-21 0.287486)
(9.78435 -8.73666e-21 0.28374)
(9.62338 6.97437e-24 0.344071)
(9.68565 0 0.344175)
(9.49613 6.80178e-24 0.404407)
(9.56934 3.09856e-21 0.40829)
(9.35029 -6.72019e-21 0.469245)
(9.43499 -6.35849e-21 0.476862)
(9.18545 -2.04856e-20 0.539341)
(9.2822 -6.63735e-21 0.550702)
(9.00109 6.43319e-22 0.615449)
(9.11054 -2.40152e-20 0.630615)
(8.79658 6.48852e-21 0.698324)
(8.9195 4.21601e-20 0.71741)
(8.57122 4.48431e-22 0.788724)
(8.70847 -1.44759e-20 0.811897)
(8.32422 -4.69619e-22 0.887377)
(8.47676 1.97126e-23 0.914879)
(8.05476 1.72375e-20 0.994935)
(8.22363 3.13712e-20 1.02711)
(7.76195 -4.42179e-20 1.1119)
(7.94831 2.5087e-20 1.14924)
(7.44487 -4.04425e-20 1.23851)
(7.64996 -1.265e-19 1.28173)
(7.10256 1.65816e-20 1.37456)
(7.32772 6.94828e-20 1.4247)
(6.73405 -8.64306e-20 1.51921)
(6.98067 -1.81516e-20 1.57775)
(6.33836 -6.26092e-21 1.67064)
(6.60782 -1.51838e-19 1.7397)
(5.91457 6.74926e-20 1.82566)
(6.20809 2.23964e-19 1.90821)
(5.46195 -2.15939e-20 1.97933)
(5.78036 -1.00574e-19 2.07936)
(4.9801 1.58765e-19 2.1243)
(5.32345 -3.55584e-19 2.24712)
(4.46915 -8.82459e-21 2.25032)
(4.83628 3.71731e-19 2.40274)
(3.92993 -3.49125e-19 2.34354)
(4.31791 -3.18107e-19 2.53411)
(3.36382 3.37364e-20 2.38589)
(3.76766 2.0614e-19 2.62524)
(2.77194 2.20106e-19 2.3542)
(3.1851 3.6941e-21 2.65587)
(2.15296 5.2021e-20 2.21993)
(2.56896 -2.46218e-20 2.601)
(1.49937 2.62143e-20 1.96121)
(1.91976 2.64721e-20 2.43103)
(0.800572 2.91924e-20 1.55217)
(1.20322 0 2.13259)
(0.58563 5.90985e-22 1.6576)
(9.98311 5.19285e-21 0.0945787)
(9.99051 1.04922e-20 0.067709)
(9.94875 0 0.155)
(9.96848 -5.35685e-21 0.133316)
(9.89596 0 0.215067)
(9.92771 0 0.197843)
(9.82509 -5.88808e-21 0.276633)
(9.86699 0 0.263182)
(9.7366 -5.7418e-21 0.340963)
(9.78818 -3.84991e-24 0.330962)
(9.63059 3.12997e-21 0.408909)
(9.69238 5.99135e-21 0.402203)
(9.5069 -3.38549e-21 0.481263)
(9.57956 -9.21228e-21 0.477726)
(9.36529 -6.27921e-21 0.558861)
(9.44939 -1.99146e-23 0.558394)
(9.20539 -1.03827e-20 0.642557)
(9.3015 -1.31436e-20 0.645108)
(9.02676 1.83285e-20 0.733207)
(9.13553 3.19301e-21 0.738771)
(8.82886 2.04899e-20 0.831671)
(8.95102 3.50684e-20 0.840286)
(8.61109 -1.47247e-20 0.938805)
(8.74744 -7.17649e-21 0.950558)
(8.37282 3.2249e-20 1.05544)
(8.5242 -7.544e-21 1.07048)
(8.11334 3.91518e-20 1.18231)
(8.28064 3.92152e-20 1.20088)
(7.83193 -5.90421e-20 1.32004)
(8.0161 3.26296e-20 1.34253)
(7.52784 -1.41969e-20 1.46897)
(7.72983 -1.00036e-19 1.49596)
(7.20022 3.36672e-20 1.62901)
(7.42106 4.33019e-20 1.66142)
(6.84816 -8.52047e-20 1.79946)
(7.08886 -4.6299e-23 1.83867)
(6.4706 8.28285e-20 1.97862)
(6.7322 -9.37724e-20 2.02671)
(6.06628 5.20255e-20 2.16345)
(6.34975 1.74518e-19 2.22342)
(5.6337 -4.37678e-19 2.34903)
(5.93986 -8.07242e-20 2.42516)
(5.17112 -1.34049e-19 2.52799)
(5.50041 -2.93407e-19 2.62615)
(4.67649 5.44742e-20 2.68984)
(5.02877 3.65013e-19 2.81789)
(4.14752 2.43241e-19 2.82045)
(4.52173 -3.11512e-19 2.98845)
(3.58161 1.73834e-19 2.90162)
(3.97554 3.5048e-19 3.12198)
(2.97564 -2.41431e-19 2.91103)
(3.38616 -1.92838e-19 3.19845)
(2.32523 -4.98208e-20 2.82264)
(2.74877 -2.55657e-20 3.19387)
(1.62417 -1.65772e-22 2.61536)
(2.06385 3.85366e-19 3.08058)
(0.868478 -2.88372e-20 2.25874)
(1.29355 -8.61706e-19 2.84344)
(0.610378 4.10449e-19 2.42518)
(9.9829 -2.55096e-22 0.107215)
(9.99047 -6.52601e-22 0.0759524)
(9.94887 -5.28905e-21 0.176787)
(9.96865 -6.71541e-22 0.150146)
(9.89741 0 0.246558)
(9.92878 4.11515e-21 0.223951)
(9.82864 5.88366e-21 0.318156)
(9.86986 2.80975e-21 0.298966)
(9.74291 1.18042e-20 0.392886)
(9.79367 1.15836e-20 0.376721)
(9.64032 -6.54324e-21 0.47174)
(9.70119 -5.91249e-21 0.458364)
(9.52076 -5.73115e-21 0.555622)
(9.59241 -6.20022e-21 0.544849)
(9.38401 -7.04857e-21 0.645459)
(9.46701 2.53276e-20 0.637128)
(9.22976 6.36988e-22 0.742197)
(9.32471 -1.96122e-20 0.736184)
(9.05762 2.0331e-20 0.846785)
(9.16517 -4.1246e-23 0.843007)
(8.86711 6.87689e-21 0.960173)
(8.98799 6.79161e-21 0.95859)
(8.65768 0 1.0833)
(8.7927 2.13929e-20 1.08392)
(8.42876 0 1.21708)
(8.57874 -7.37893e-21 1.21998)
(8.17971 3.26191e-20 1.36235)
(8.34553 0 1.36769)
(7.90984 -9.96758e-21 1.51981)
(8.09239 3.22235e-20 1.52791)
(7.6184 -4.07924e-20 1.68993)
(7.8186 -4.13009e-20 1.70129)
(7.30454 9.05141e-21 1.87276)
(7.52332 8.51334e-20 1.88822)
(6.96723 -9.75842e-21 2.06781)
(7.20554 9.75224e-21 2.08867)
(6.60518 1.11318e-21 2.27365)
(6.86399 -7.23708e-20 2.30191)
(6.21671 3.87438e-20 2.4876)
(6.49701 1.26532e-22 2.52624)
(5.79959 6.10175e-20 2.70518)
(6.10236 -1.91777e-20 2.75852)
(5.35086 2.13398e-19 2.91952)
(5.67704 4.08036e-20 2.99366)
(4.8667 -8.95085e-21 3.12068)
(5.21704 1.29206e-19 3.22394)
(4.34241 -1.96654e-19 3.29504)
(4.71726 -1.9742e-19 3.43828)
(3.77246 -2.24381e-20 3.42486)
(4.17152 -2.7683e-22 3.62159)
(3.15087 2.50091e-20 3.48829)
(3.573 1.14743e-20 3.75428)
(2.47171 4.14246e-19 3.45961)
(2.91416 1.28106e-20 3.8124)
(1.73082 -4.91679e-19 3.31578)
(2.19622 7.86807e-19 3.76715)
(0.930397 -4.22981e-19 3.01803)
(1.37922 -8.49089e-19 3.59753)
(0.639357 4.48475e-19 3.23126)
(9.98307 -1.0649e-21 0.119716)
(9.99054 -5.23492e-21 0.0841145)
(9.94975 8.79516e-21 0.198064)
(9.96927 1.33313e-20 0.166628)
(9.89987 6.9102e-21 0.277086)
(9.93063 5.47995e-21 0.249255)
(9.83352 8.6202e-21 0.358293)
(9.8738 2.79125e-21 0.333495)
(9.75095 -6.3527e-21 0.443003)
(9.80057 3.68072e-24 0.420799)
(9.65225 -5.5735e-21 0.532315)
(9.71184 -1.19115e-20 0.512395)
(9.53737 2.52533e-20 0.627239)
(9.60758 1.82932e-20 0.609349)
(9.40613 1.2202e-20 0.728786)
(9.48755 1.89963e-20 0.7127)
(9.25826 -2.00456e-20 0.837985)
(9.35148 -6.49977e-21 0.823507)
(9.0934 -1.34951e-20 0.955868)
(9.1991 -1.34903e-20 0.942843)
(8.91113 2.1489e-20 1.08347)
(9.03007 -2.10758e-22 1.07178)
(8.71097 1.36595e-20 1.22182)
(8.84396 4.28205e-20 1.2114)
(8.49236 -7.28836e-21 1.37192)
(8.64026 -5.87043e-20 1.36277)
(8.25467 0 1.5347)
(8.41839 3.77011e-20 1.52691)
(7.99721 0 1.71097)
(8.1777 -3.14882e-20 1.70479)
(7.71916 8.61771e-20 1.90135)
(7.9174 9.72802e-20 1.8972)
(7.41954 8.49584e-20 2.10612)
(7.63656 6.90542e-20 2.10475)
(7.09712 -5.38231e-20 2.32502)
(7.334 -1.20288e-19 2.32765)
(6.75028 -7.24884e-20 2.55706)
(7.00818 3.48089e-20 2.56556)
(6.37681 -5.80364e-20 2.8001)
(6.657 7.36116e-20 2.81733)
(5.97373 -3.86944e-20 3.05042)
(6.27762 -9.55849e-20 3.08058)
(5.53697 -4.23776e-20 3.30208)
(5.86615 1.38168e-19 3.35122)
(5.06117 -6.30854e-20 3.54624)
(5.41735 -1.96897e-20 3.62275)
(4.53959 1.28684e-21 3.77033)
(4.92439 -2.02394e-20 3.88548)
(3.9643 3.38108e-20 3.95741)
(4.37888 -3.25236e-19 4.12552)
(3.32693 -7.10923e-22 4.08572)
(3.77143 -1.29553e-21 4.32397)
(2.62012 3.9436e-19 4.12826)
(3.09155 -1.63786e-21 4.45626)
(1.84055 4.0807e-19 4.05725)
(2.34031 5.95019e-19 4.49044)
(0.993936 3.5825e-20 3.82178)
(1.47535 -1.94274e-19 4.39705)
(0.676768 2.12952e-19 4.08473)
(9.98349 9.39285e-21 0.131926)
(9.9907 -9.7178e-21 0.0920751)
(9.95118 9.92071e-21 0.21868)
(9.9702 -6.68362e-22 0.182607)
(9.90317 1.32936e-21 0.306505)
(9.9331 1.08746e-20 0.273618)
(9.83954 -5.85914e-21 0.396867)
(9.87866 -8.41137e-21 0.36661)
(9.76049 -5.70473e-21 0.491098)
(9.8087 -2.90725e-21 0.462995)
(9.66615 1.23354e-20 0.590376)
(9.7241 -8.05728e-24 0.564051)
(9.55647 1.2044e-20 0.695803)
(9.62483 1.82377e-20 0.670934)
(9.43133 -2.35378e-23 0.808469)
(9.51069 -2.30582e-23 0.784766)
(9.2905 -2.99123e-23 0.929479)
(9.38146 -6.44011e-23 0.906678)
(9.13368 -3.94334e-23 1.05995)
(9.23695 0 1.03782)
(8.96051 2.16545e-20 1.20099)
(9.07684 -8.2715e-23 1.17934)
(8.77054 -3.07899e-20 1.35372)
(8.90077 -1.38725e-20 1.33241)
(8.56325 -1.25411e-20 1.51925)
(8.70828 -2.24151e-20 1.49818)
(8.33802 5.36688e-21 1.69862)
(8.49882 3.01784e-20 1.6778)
(8.09413 6.73526e-20 1.89279)
(8.27174 -2.37937e-20 1.87236)
(7.83069 7.9852e-20 2.10255)
(8.02621 1.0523e-19 2.08285)
(7.54656 -1.38429e-19 2.32845)
(7.76122 -8.23137e-20 2.3101)
(7.24028 -2.97853e-20 2.57062)
(7.4754 -7.05434e-20 2.55468)
(6.90985 1.81396e-19 2.82857)
(7.16696 7.02291e-22 2.81673)
(6.55254 3.40826e-20 3.10093)
(6.83339 1.46336e-19 3.09579)
(6.16462 8.40525e-20 3.38496)
(6.47129 -5.66968e-20 3.39046)
(5.74098 1.5903e-19 3.67605)
(6.07592 2.7381e-19 3.69793)
(5.27481 2.31505e-20 3.96688)
(5.64089 -1.4575e-19 4.01334)
(4.75744 -3.50382e-19 4.24649)
(5.15773 1.15592e-20 4.32889)
(4.17849 -3.56641e-19 4.49912)
(4.61573 -5.17019e-19 4.63255)
(3.52678 -2.28432e-21 4.7031)
(4.00253 3.35707e-19 4.90658)
(2.7924 2.05234e-19 4.82918)
(3.30356 -1.6394e-19 5.12584)
(1.97061 -1.7883e-20 4.8429)
(2.51733 1.936e-19 5.25433)
(1.06805 -5.40764e-21 4.67747)
(1.59704 -2.06561e-19 5.25185)
(0.728348 5.07769e-21 5.00274)
(9.98409 -1.96703e-20 0.143725)
(9.99092 -1.31358e-24 0.0997482)
(9.95306 4.32528e-22 0.238501)
(9.97137 2.57877e-21 0.197955)
(9.90716 8.91276e-22 0.334669)
(9.93606 8.11476e-21 0.296908)
(9.84653 -5.3908e-21 0.433706)
(9.88428 -8.39294e-21 0.398165)
(9.77136 2.82588e-21 0.536956)
(9.8179 2.83623e-21 0.503125)
(9.68178 6.12354e-21 0.645662)
(9.73778 -2.97243e-23 0.613106)
(9.57778 5.94308e-21 0.761003)
(9.64393 6.01744e-21 0.729337)
(9.45928 -6.22892e-23 0.884142)
(9.53616 -6.24571e-21 0.853012)
(9.32612 -3.25623e-23 1.01626)
(9.41434 6.37707e-21 0.98533)
(9.17806 -4.27984e-23 1.15853)
(9.27831 -1.96417e-20 1.12751)
(9.01477 -3.57788e-20 1.31217)
(9.12784 -6.83303e-21 1.28077)
(8.83589 -5.6053e-21 1.47838)
(8.96262 -2.83042e-20 1.44637)
(8.64092 2.09465e-20 1.65837)
(8.78226 5.77889e-20 1.62556)
(8.42928 3.59323e-22 1.85331)
(8.58625 -6.67839e-20 1.81961)
(8.20024 1.56414e-20 2.06434)
(8.37397 2.28327e-20 2.02976)
(7.95284 -5.91865e-20 2.29249)
(8.1446 -7.79525e-21 2.25721)
(7.68586 -1.42788e-20 2.53862)
(7.89707 -1.08894e-21 2.50308)
(7.39762 -3.9215e-20 2.80331)
(7.62992 6.77384e-20 2.76835)
(7.08581 -3.26609e-20 3.08675)
(7.34116 -2.42808e-19 3.05374)
(6.74727 5.31755e-20 3.38845)
(7.02802 1.41913e-19 3.35962)
(6.3776 1.36967e-19 3.70696)
(6.68664 0 3.68573)
(5.97075 -3.59101e-20 4.03928)
(6.31163 1.54292e-19 4.03083)
(5.51854 -1.5554e-19 4.38015)
(5.89559 -1.58015e-19 4.39216)
(5.01033 -1.61257e-19 4.72084)
(5.42849 1.03019e-22 4.76441)
(4.43287 1.85425e-19 5.04757)
(4.89716 -3.32561e-19 5.13835)
(3.77108 1.67964e-19 5.33941)
(4.28547 5.10727e-19 5.49858)
(3.01016 -1.72157e-19 5.56497)
(3.57293 -3.53273e-19 5.82056)
(2.14039 0 5.68179)
(2.75144 -8.99158e-22 6.0646)
(1.16573 -2.00407e-19 5.6029)
(1.76481 1.86736e-19 6.17782)
(0.804303 -1.98102e-19 6.01225)
(9.98482 2.22796e-20 0.155019)
(9.99118 1.10124e-20 0.10707)
(9.95528 1.03289e-20 0.257407)
(9.97273 -6.51396e-22 0.212568)
(9.91173 -1.37653e-21 0.361446)
(9.93943 -1.08677e-20 0.319007)
(9.85437 -2.58484e-23 0.468648)
(9.89056 0 0.428021)
(9.7834 -5.49696e-23 0.58038)
(9.82802 -5.71926e-21 0.54102)
(9.69894 -5.86405e-23 0.697935)
(9.75271 1.16375e-20 0.659356)
(9.60105 -6.32211e-21 0.822558)
(9.66464 -1.19847e-20 0.784314)
(9.4897 3.52396e-22 0.955478)
(9.56369 -1.24322e-20 0.917152)
(9.36477 -1.35515e-20 1.09793)
(9.44977 2.54406e-20 1.05913)
(9.2261 -2.62731e-20 1.25119)
(9.3228 -1.95987e-20 1.21152)
(9.07343 3.77734e-22 1.41651)
(9.18261 6.67672e-21 1.37562)
(8.90646 3.61386e-20 1.5952)
(9.02898 -1.36357e-20 1.55276)
(8.72476 -3.14534e-20 1.78857)
(8.86159 2.8874e-20 1.74429)
(8.52781 -4.32328e-20 1.99795)
(8.68002 -5.92639e-20 1.9516)
(8.31491 -9.69833e-22 2.22466)
(8.4837 3.02025e-20 2.17609)
(8.08511 5.03883e-20 2.46999)
(8.27187 -7.9372e-21 2.4192)
(7.83713 8.1767e-20 2.73518)
(8.0435 6.51521e-20 2.68235)
(7.56922 -1.39533e-19 3.02133)
(7.79714 -6.51843e-20 2.96697)
(7.27891 -6.37326e-20 3.32938)
(7.53075 -7.05213e-20 3.27443)
(6.96275 8.70645e-20 3.6599)
(7.24148 9.79831e-21 3.60601)
(6.61589 1.91245e-20 4.01291)
(6.92527 1.42056e-19 3.96276)
(6.23159 2.85201e-20 4.38743)
(6.5764 9.15731e-20 4.34527)
(5.80053 -5.1297e-22 4.78079)
(6.18683 9.72563e-21 4.75326)
(5.31008 -1.751e-19 5.18743)
(5.74529 -1.63046e-19 5.18476)
(4.74373 2.8623e-21 5.59691)
(5.23626 -1.63573e-19 5.63464)
(4.08095 -2.09678e-20 5.99088)
(4.63924 3.32417e-19 6.092)
(3.29869 -1.78007e-19 6.3376)
(3.92557 -3.43623e-19 6.53589)
(2.3762 1.89593e-19 6.58679)
(3.07473 -1.11197e-21 6.92604)
(1.30692 1.84512e-19 6.62564)
(2.01085 5.37133e-19 7.19685)
(0.923624 -1.82918e-19 7.15609)
(9.98565 -1.20677e-20 0.16573)
(9.99148 1.28669e-21 0.113989)
(9.95777 -2.19754e-20 0.275295)
(9.97425 -1.18861e-20 0.226357)
(9.91679 -9.35306e-21 0.386714)
(9.94313 -1.08156e-20 0.339808)
(9.86294 -5.76449e-21 0.501549)
(9.89739 1.09963e-20 0.456054)
(9.79643 6.19143e-21 0.621193)
(9.83894 -5.69306e-21 0.576531)
(9.71744 -5.82789e-22 0.746984)
(9.76871 5.85209e-21 0.702619)
(9.62605 -1.81006e-20 0.88022)
(9.68676 -5.98283e-21 0.83565)
(9.52228 1.31241e-20 1.02218)
(9.59301 -2.46262e-20 0.976932)
(9.40608 1.88393e-20 1.17417)
(9.48743 3.78778e-20 1.12777)
(9.27737 1.36738e-20 1.33751)
(9.37001 8.47581e-23 1.2895)
(9.13598 -7.58181e-21 1.51353)
(9.24068 -1.31193e-20 1.46348)
(8.98167 -2.03822e-20 1.70362)
(9.0993 6.65535e-21 1.65109)
(8.81412 0 1.9092)
(8.94564 3.52022e-20 1.85379)
(8.6329 1.52442e-20 2.13175)
(8.77939 -3.59877e-20 2.07307)
(8.43737 2.27692e-20 2.37277)
(8.60011 7.59215e-21 2.3105)
(8.2267 7.70151e-21 2.63383)
(8.40715 7.79535e-21 2.56773)
(7.99966 -8.33222e-20 2.91656)
(8.19961 7.06683e-20 2.84651)
(7.75455 3.75651e-21 3.22262)
(7.97617 -8.19783e-20 3.14871)
(7.48895 3.93737e-21 3.55376)
(7.73495 2.65355e-20 3.47637)
(7.1994 6.63068e-20 3.91169)
(7.47327 -8.68424e-20 3.8317)
(6.88097 2.13969e-19 4.29808)
(7.18725 1.42073e-19 4.21711)
(6.52665 7.18245e-20 4.71426)
(6.87133 1.94741e-21 4.63521)
(6.12647 -1.54842e-19 5.16078)
(6.51746 7.21116e-20 5.08855)
(5.66631 -1.51472e-19 5.63641)
(6.11398 -2.26498e-19 5.57929)
(5.12641 1.72176e-19 6.13618)
(5.64387 7.46516e-20 6.10806)
(4.47971 1.59581e-21 6.64784)
(5.08273 3.12423e-19 6.67167)
(3.69081 -1.62531e-19 7.14433)
(4.39252 -1.65661e-19 7.25852)
(2.71807 3.57075e-19 7.57218)
(3.5335 -3.15042e-19 7.83657)
(1.5267 1.68314e-19 7.7877)
(2.39106 6.70913e-19 8.33559)
(1.12502 -3.55443e-19 8.50584)
(9.98657 1.29542e-21 0.175797)
(9.9918 -1.02007e-20 0.120468)
(9.9605 -7.12535e-22 0.292075)
(9.97589 1.31088e-21 0.239253)
(9.92225 9.80876e-21 0.410363)
(9.9471 -1.34314e-21 0.359218)
(9.87212 1.08584e-20 0.532278)
(9.90467 4.00933e-24 0.482154)
(9.81033 -5.88717e-21 0.659241)
(9.85052 -1.12154e-20 0.609526)
(9.73709 3.03781e-22 0.792623)
(9.78563 -5.81454e-21 0.742737)
(9.65252 -1.27396e-20 0.933766)
(9.71008 1.19039e-20 0.883156)
(9.55671 8.9727e-22 1.084)
(9.62385 -3.6653e-20 1.03213)
(9.44969 1.86593e-20 1.24467)
(9.52698 1.87798e-20 1.19101)
(9.33143 -2.68659e-20 1.41713)
(9.41954 6.40309e-21 1.36117)
(9.20188 1.35643e-21 1.60281)
(9.30154 -2.54389e-22 1.544)
(9.06089 6.25881e-20 1.80314)
(9.17296 7.013e-21 1.74095)
(8.90828 -1.6355e-21 2.01965)
(9.03369 3.58743e-22 1.95356)
(8.7437 -4.31115e-20 2.25394)
(8.88356 -3.77774e-22 2.18341)
(8.56671 -7.37759e-21 2.5077)
(8.72226 -4.41067e-20 2.4322)
(8.37659 7.15172e-20 2.78276)
(8.54936 -1.60046e-22 2.7018)
(8.17235 7.02498e-20 3.08112)
(8.36416 9.36329e-20 2.99423)
(7.95249 -5.78987e-20 3.405)
(8.16563 3.64291e-22 3.31178)
(7.71487 -6.55812e-20 3.75691)
(7.95227 -6.57803e-20 3.65708)
(7.45638 -8.42649e-21 4.13973)
(7.72184 -6.63538e-20 4.03322)
(7.1725 -7.15638e-20 4.55679)
(7.47109 6.72334e-20 4.44394)
(6.85665 2.96913e-21 5.01194)
(7.19525 -1.07764e-20 4.89376)
(6.49913 -3.03399e-21 5.5094)
(6.88725 2.44312e-21 5.38824)
(6.08557 3.16666e-21 6.05342)
(6.53648 -6.9115e-20 5.93409)
(5.59435 2.1789e-19 6.64712)
(6.1266 4.17275e-21 6.53917)
(4.9926 1.38931e-19 7.28978)
(5.63226 2.23202e-19 7.21173)
(4.23015 -3.20543e-19 7.96961)
(5.00909 6.55045e-20 7.95814)
(3.23157 1.81652e-20 8.6471)
(4.19608 -3.87244e-19 8.77344)
(1.89528 1.47717e-19 9.15759)
(3.0125 1.81462e-19 9.61642)
(1.49793 -2.25241e-20 10.1962)
(9.98754 -1.00419e-20 0.18517)
(9.99214 -6.39897e-22 0.126474)
(9.9634 6.45018e-22 0.307673)
(9.97762 6.5329e-22 0.251196)
(9.92805 -1.11296e-20 0.432302)
(9.95129 7.96048e-21 0.377161)
(9.88181 -2.22094e-20 0.560725)
(9.91232 2.61612e-21 0.506229)
(9.82495 -1.10754e-20 0.694391)
(9.86266 -4.91972e-24 0.639893)
(9.7577 6.00623e-21 0.834699)
(9.8033 1.14318e-20 0.779578)
(9.68023 -1.2611e-20 0.983022)
(9.73438 1.17633e-20 0.926678)
(9.5927 -1.80899e-20 1.14072)
(9.65593 -1.82378e-20 1.08257)
(9.49521 6.36592e-21 1.30918)
(9.56808 -6.23466e-21 1.24863)
(9.38782 3.29312e-20 1.4898)
(9.47096 6.35789e-21 1.42625)
(9.27058 5.49476e-21 1.68402)
(9.36469 3.28243e-20 1.61687)
(9.14347 -5.52955e-20 1.89337)
(9.24936 -4.04424e-20 1.82199)
(9.00643 1.60348e-21 2.11943)
(9.12501 2.00511e-20 2.04316)
(8.8593 -1.90137e-21 2.36391)
(8.99161 -2.06827e-20 2.28207)
(8.70182 -3.63853e-20 2.62866)
(8.84908 2.83152e-20 2.54052)
(8.53353 2.30536e-20 2.91573)
(8.69722 -5.9252e-20 2.82052)
(8.35372 2.26914e-20 3.22743)
(8.53564 6.06515e-20 3.12432)
(8.16132 -8.23438e-21 3.56644)
(8.36373 3.09363e-20 3.45453)
(7.95472 -6.65529e-20 3.93597)
(8.18053 2.34517e-20 3.81426)
(7.73151 1.0771e-20 4.33991)
(7.98456 -1.30242e-19 4.20732)
(7.48817 1.27113e-19 4.78311)
(7.77362 6.72367e-20 4.63848)
(7.21941 -1.10758e-20 5.27178)
(7.54444 1.26287e-19 5.11391)
(6.91725 -6.44774e-20 5.81384)
(7.29208 -1.36913e-19 5.64173)
(6.56926 -6.73067e-20 6.41958)
(7.00897 6.69392e-20 6.23293)
(6.15553 1.18125e-20 7.1022)
(6.683 -1.38776e-19 6.90272)
(5.64258 1.47387e-19 7.8785)
(6.29451 1.40465e-19 7.67276)
(4.971 -7.71043e-21 8.76838)
(5.80544 6.80415e-20 8.57548)
(4.02707 -2.12213e-19 9.79082)
(5.15522 -1.37862e-19 9.66101)
(2.57673 1.78235e-20 10.8598)
(4.10552 -1.38895e-19 11.0106)
(2.28437 1.14818e-19 12.5178)
(9.98857 1.00748e-20 0.19381)
(9.99251 1.03938e-20 0.131984)
(9.96645 8.06125e-21 0.322027)
(9.97942 -1.22426e-21 0.262141)
(9.93411 2.16365e-20 0.452446)
(9.95566 6.80715e-21 0.393574)
(9.89192 2.47864e-20 0.586782)
(9.92028 3.5785e-21 0.528202)
(9.84015 2.26437e-20 0.726505)
(9.87525 2.71604e-20 0.667543)
(9.77908 1.71931e-20 0.873034)
(9.8216 8.61629e-22 0.813035)
(9.70894 5.76442e-21 1.02777)
(9.75953 -1.0647e-20 0.966089)
(9.62994 -6.23672e-21 1.19209)
(9.68911 2.83107e-20 1.1281)
(9.54226 -6.09149e-21 1.36739)
(9.61055 -1.20411e-20 1.30046)
(9.44606 6.57041e-21 1.55511)
(9.52407 0 1.48457)
(9.3415 -1.4002e-20 1.75672)
(9.42992 4.815e-22 1.68189)
(9.22869 3.56246e-20 1.97377)
(9.32828 -3.30607e-20 1.89393)
(9.10774 -2.72461e-21 2.2079)
(9.21935 3.02316e-20 2.12228)
(8.97867 1.00972e-20 2.46088)
(9.10331 -3.11375e-20 2.36866)
(8.84147 4.39956e-21 2.73468)
(8.98029 6.61752e-20 2.63493)
(8.696 -2.02822e-20 3.0315)
(8.85038 -6.02044e-20 2.92319)
(8.54195 6.8544e-20 3.35387)
(8.71359 3.20743e-21 3.23584)
(8.3788 6.25817e-20 3.70482)
(8.56981 5.30572e-20 3.57567)
(8.20567 -4.19261e-20 4.08803)
(8.41878 6.13396e-20 3.94609)
(8.02125 -7.15508e-20 4.50812)
(8.26001 -1.33047e-19 4.35131)
(7.82351 6.70853e-20 4.97108)
(8.09271 9.00336e-20 4.79675)
(7.60938 -2.25326e-21 5.48487)
(7.91567 7.58134e-20 5.28955)
(7.37416 -3.07743e-21 6.06033)
(7.72713 -7.08415e-21 5.83939)
(7.11038 -6.45739e-21 6.71281)
(7.52449 6.19302e-20 6.45991)
(6.80561 -6.99473e-21 7.46488)
(7.30389 -6.93003e-20 7.17114)
(6.43754 6.12846e-20 8.35208)
(7.0603 6.25648e-20 8.0044)
(5.96187 -6.30736e-20 9.43665)
(6.78494 2.84971e-20 9.01385)
(5.27383 -6.46472e-20 10.8592)
(6.49276 -9.35293e-20 10.3095)
(4.02966 -3.64848e-20 13.1055)
(6.26202 9.54689e-21 12.2109)
(5.35243 1.15226e-19 16.1913)
(0.241988 -1.2693e-21 -0.152104)
(0.120986 -3.40589e-21 -0.232341)
(0.478073 0 -0.132077)
(0.342473 -2.91863e-22 -0.221293)
(0.677373 0 -0.103252)
(0.548741 0 -0.181943)
(0.836086 0 -0.0759677)
(0.728046 2.04131e-21 -0.141487)
(0.956857 0 -0.0523309)
(0.87203 -1.99021e-21 -0.105261)
(1.04312 0 -0.0323445)
(0.981922 1.54843e-21 -0.0735424)
(1.09822 -2.89017e-22 -0.0157591)
(1.06172 -1.73221e-21 -0.0459563)
(1.12572 6.64873e-23 -0.00250923)
(1.11518 -2.11471e-22 -0.022427)
(1.12992 3.87419e-22 0.00722158)
(1.14565 3.83108e-22 -0.00333807)
(1.11639 -1.63313e-22 0.0134045)
(1.15661 -6.06968e-22 0.0105898)
(1.09122 -1.94438e-23 0.0164909)
(1.15118 -2.48581e-22 0.0192477)
(1.05979 1.26124e-22 0.0172356)
(1.13537 8.23205e-23 0.0235069)
(1.02638 -3.81105e-23 0.0163993)
(1.11441 5.20451e-25 0.0244296)
(0.994187 1.66512e-23 0.0145309)
(1.09212 0 0.0230238)
(0.965465 3.26886e-23 0.012018)
(1.0712 1.31784e-22 0.020081)
(0.941694 8.69151e-24 0.00919139)
(1.05351 -1.29295e-22 0.0162484)
(0.923615 -7.492e-24 0.00636345)
(1.04003 1.18334e-25 0.0120819)
(0.91126 2.43967e-23 0.00379403)
(1.0309 -1.37821e-23 0.0080715)
(0.904092 1.30107e-24 0.00160099)
(1.02557 1.19407e-23 0.00457918)
(0.90143 -2.17792e-23 -0.000294942)
(1.02313 -2.41278e-23 0.00166316)
(0.903051 2.68375e-24 -0.00205304)
(1.02282 3.54177e-23 -0.000987862)
(0.909193 0 -0.00371549)
(1.02448 -3.98052e-23 -0.00366159)
(0.920053 0 -0.00516256)
(1.02849 2.1141e-24 -0.00633029)
(0.935311 0 -0.00624803)
(1.03522 0 -0.00869513)
(0.954079 -1.13488e-24 -0.00701853)
(1.0445 0 -0.0104562)
(0.975621 -2.68668e-25 -0.00781228)
(1.05571 -1.14785e-24 -0.0117337)
(1.00021 1.16908e-24 -0.00907033)
(1.06833 6.16074e-25 -0.0130964)
(1.02932 2.53284e-26 -0.0108353)
(1.08278 1.00282e-24 -0.0151532)
(1.06382 -2.85716e-25 -0.0120878)
(1.10072 1.49857e-25 -0.0175676)
(1.1295 0 -0.017296)
(0.210306 -1.53816e-21 -0.344175)
(0.0774689 -1.83003e-21 -0.442342)
(0.427538 -2.95999e-22 -0.308512)
(0.289293 5.42536e-23 -0.425085)
(0.616353 2.01569e-21 -0.249701)
(0.468886 -3.74352e-21 -0.354145)
(0.772879 -2.96901e-22 -0.192799)
(0.627515 6.2155e-21 -0.280866)
(0.899879 -4.83186e-22 -0.142675)
(0.759177 1.28583e-21 -0.215846)
(1.00051 -1.85115e-22 -0.0992358)
(0.865435 -1.41299e-21 -0.15927)
(1.07752 -1.655e-21 -0.0619077)
(0.949349 3.31828e-22 -0.110143)
(1.13337 9.90819e-23 -0.0304859)
(1.01356 -3.08172e-21 -0.0679827)
(1.17005 -6.00109e-22 -0.0051422)
(1.06027 1.51493e-21 -0.0325999)