/*--------------------------------*- C++ -*----------------------------------*\
| =========                 |                                                 |
| \\      /  F ield         | OpenFOAM: The Open Source CFD Toolbox           |
|  \\    /   O peration     | Version:  dev                                   |
|   \\  /    A nd           | Web:      www.OpenFOAM.org                      |
|    \\/     M anipulation  |                                                 |
\*---------------------------------------------------------------------------*/
FoamFile
{
    version     2.0;
    format      ascii;
    class       surfaceVectorField;
    location    "4";
    object      Uf;
}
// * * * * * * * * * * * * * * * * * * * * * * * * * * * * * * * * * * * * * //

dimensions      [0 1 -1 0 0 0 0];

internalField   nonuniform List<vector> 
5457
(
(9.9174 2.14915e-21 0.0238163)
(9.96764 9.74126e-22 0.0387117)
(9.82016 2.84321e-21 0.0313114)
(9.92667 1.01842e-21 0.0468327)
(9.70628 -2.00488e-21 0.0375909)
(9.85569 -2.03348e-21 0.0564247)
(9.57373 0 0.0440281)
(9.75905 0 0.0675578)
(9.42242 -4.50489e-21 0.0506819)
(9.64245 -8.47964e-21 0.0793133)
(9.25246 1.98706e-22 0.0576113)
(9.50723 -1.72001e-22 0.091614)
(9.06356 4.45482e-21 0.0649633)
(9.35275 8.44963e-23 0.104689)
(8.8551 9.8627e-21 0.0728861)
(9.17813 4.58535e-20 0.118773)
(8.62623 1.98299e-20 0.0815108)
(8.98258 1.97243e-20 0.13406)
(8.3759 -6.84925e-22 0.090963)
(8.76523 -7.71643e-20 0.150732)
(8.10291 -1.03562e-20 0.10137)
(8.52501 -4.13496e-22 0.168971)
(7.80593 0 0.112864)
(8.26066 0 0.188958)
(7.48354 -7.32432e-20 0.125576)
(7.9708 0 0.210871)
(7.13426 -2.05504e-20 0.139634)
(7.65395 -2.32324e-19 0.234865)
(6.75664 1.30892e-19 0.155151)
(7.30861 4.29349e-19 0.261059)
(6.34937 -6.20562e-20 0.172213)
(6.93334 -1.41557e-19 0.289508)
(5.91136 -1.37607e-19 0.190858)
(6.52683 -1.1345e-19 0.320168)
(5.44197 3.20958e-20 0.211052)
(6.08809 4.97395e-19 0.352845)
(4.94122 3.07527e-19 0.232651)
(5.6166 -4.00287e-19 0.387142)
(4.41004 -3.196e-19 0.255358)
(5.1126 2.72612e-19 0.422378)
(3.85063 1.39818e-19 0.278672)
(4.57733 -5.80877e-19 0.457513)
(3.2668 9.31211e-21 0.301823)
(4.01342 7.7338e-19 0.491058)
(2.66438 4.49645e-19 0.3237)
(3.42529 5.24043e-19 0.520992)
(2.05161 4.8493e-19 0.34276)
(2.81954 -1.74881e-19 0.544693)
(1.43949 -5.91243e-19 0.357251)
(2.20556 -9.43906e-19 0.558945)
(0.84094 -9.72776e-19 0.365395)
(1.59555 0 0.560924)
(0.265362 3.55437e-19 0.259112)
(1.0179 -4.21725e-18 0.551736)
(-0.161047 -8.75459e-19 -0.0665912)
(0.372043 4.62866e-18 0.414705)
(-0.2706 1.1836e-19 -0.323054)
(0.0713417 -6.1236e-18 0.105976)
(0.0400142 6.04877e-18 -0.26955)
(9.99819 -1.64276e-22 0.0495552)
(9.99501 3.8974e-21 0.0395605)
(9.96185 -3.89951e-21 0.067765)
(9.97965 1.18197e-20 0.0643392)
(9.90362 0 0.0839706)
(9.93805 1.60939e-20 0.0852804)
(9.825 -8.59815e-21 0.101025)
(9.87159 1.15691e-22 0.107631)
(9.72585 -4.02995e-21 0.119027)
(9.78473 -1.66823e-20 0.131291)
(9.60609 -2.81468e-22 0.138049)
(9.67893 -2.13686e-20 0.156171)
(9.46546 4.21132e-20 0.158393)
(9.55377 4.3743e-21 0.182638)
(9.30339 5.5355e-20 0.180383)
(9.40852 1.87275e-20 0.21113)
(9.11907 -7.86018e-20 0.20431)
(9.2425 -4.62396e-20 0.242039)
(8.9115 -7.58469e-20 0.230448)
(9.05493 -1.08392e-20 0.275733)
(8.67952 9.95043e-21 0.259072)
(8.84484 1.69695e-19 0.312586)
(8.42179 0 0.29045)
(8.61108 -1.63224e-19 0.352975)
(8.13688 -1.62236e-19 0.324835)
(8.35235 -4.24841e-20 0.397268)
(7.82327 2.26587e-19 0.362434)
(8.06725 -2.04182e-19 0.445801)
(7.47943 1.49167e-19 0.403385)
(7.75429 5.48813e-20 0.498841)
(7.10391 -1.92528e-19 0.447702)
(7.412 -1.79371e-19 0.55654)
(6.69544 5.29912e-19 0.49522)
(7.03894 4.23869e-19 0.618859)
(6.25314 5.29254e-20 0.54551)
(6.6339 5.49548e-19 0.685476)
(5.77671 -4.26181e-19 0.597785)
(6.196 -3.77443e-19 0.755662)
(5.26669 0 0.650779)
(5.72495 0 0.828135)
(4.72483 7.03916e-20 0.702619)
(5.22128 1.21809e-19 0.900878)
(4.15449 1.28489e-18 0.750686)
(4.6867 -6.01174e-20 0.970936)
(3.56115 -1.08712e-19 0.791457)
(4.12457 1.20077e-18 1.03421)
(2.95299 -1.61338e-18 0.820265)
(3.54033 -9.87161e-19 1.08515)
(2.34198 -3.42217e-19 0.830764)
(2.94231 -3.01008e-18 1.1163)
(1.74753 -3.28934e-18 0.81275)
(2.34232 2.34444e-18 1.11664)
(1.20945 1.54217e-19 0.725679)
(1.76109 -3.61626e-18 1.06501)
(0.716042 -6.95953e-19 0.536049)
(1.18759 9.70351e-18 0.891892)
(0.208339 -5.16104e-20 0.0719403)
(0.70085 -1.10581e-17 0.593604)
(0.347859 3.83575e-18 -0.0437394)
(9.99076 1.59887e-20 0.0569742)
(9.99267 -1.55157e-20 0.0438925)
(9.95753 3.18741e-20 0.0850177)
(9.9747 1.57777e-20 0.0803425)
(9.9028 1.59898e-20 0.111727)
(9.93405 -3.19869e-20 0.112404)
(9.82907 -8.19874e-21 0.139885)
(9.87057 4.90444e-20 0.145208)
(9.73668 -3.40871e-20 0.169781)
(9.78764 -8.20366e-21 0.179729)
(9.6255 -1.63572e-20 0.201566)
(9.68674 -8.60269e-21 0.216105)
(9.49533 -1.88145e-20 0.23565)
(9.56772 9.64397e-20 0.254786)
(9.34577 -8.37646e-20 0.272509)
(9.43005 -8.06277e-20 0.296359)
(9.17618 2.20056e-20 0.312604)
(9.27321 -2.04425e-19 0.341388)
(8.98575 2.37175e-19 0.356387)
(9.09659 1.89584e-19 0.390416)
(8.77349 -8.0094e-21 0.404316)
(8.89946 1.59623e-19 0.443995)
(8.53826 -2.0408e-19 0.456851)
(8.68091 -1.63243e-19 0.502683)
(8.27879 -8.66242e-20 0.514428)
(8.43988 -6.57255e-22 0.567038)
(7.99369 -3.72402e-19 0.577429)
(8.17523 -7.86626e-22 0.637584)
(7.68152 -2.76935e-19 0.646128)
(7.88571 -3.69481e-19 0.714765)
(7.34079 4.45185e-19 0.720617)
(7.57003 4.2618e-20 0.798882)
(6.97011 4.45268e-19 0.800702)
(7.22688 3.01086e-19 0.889993)
(6.56827 1.0683e-19 0.885773)
(6.855 -8.64084e-19 0.987778)
(6.13441 5.39424e-20 0.974633)
(6.45331 7.88072e-19 1.09137)
(5.66824 1.23444e-19 1.06529)
(6.02099 -8.89788e-19 1.19912)
(5.17034 -1.09448e-20 1.15471)
(5.55773 -9.38416e-19 1.30834)
(4.64257 -1.27796e-19 1.23855)
(5.06395 -1.51797e-19 1.41495)
(4.0885 2.9518e-19 1.31081)
(4.54118 2.29915e-18 1.51312)
(3.51407 -2.4082e-18 1.36332)
(3.99239 2.47233e-18 1.59477)
(2.92844 -2.63473e-19 1.38458)
(3.42251 -4.67506e-18 1.64868)
(2.34479 1.9533e-18 1.35702)
(2.83816 2.65327e-18 1.65873)
(1.77696 6.06427e-18 1.24529)
(2.24937 -2.92686e-20 1.60065)
(1.21013 -8.18005e-19 1.01527)
(1.65245 5.9979e-18 1.43065)
(0.651461 -6.97642e-18 0.637544)
(1.03839 -7.0673e-18 1.12256)
(0.599098 4.72308e-19 0.599038)
(9.98653 -1.53031e-20 0.0677652)
(9.99138 -1.13206e-23 0.0502091)
(9.95338 -4.87659e-20 0.107069)
(9.97164 -1.56823e-20 0.0963078)
(9.89961 2.2026e-21 0.145083)
(9.93086 -4.80838e-20 0.139054)
(9.8271 4.82457e-20 0.184244)
(9.86855 3.26976e-20 0.182175)
(9.73651 1.72751e-20 0.225315)
(9.78733 1.65596e-20 0.227226)
(9.62785 1.05647e-19 0.268725)
(9.68857 6.80741e-20 0.274688)
(9.501 3.21921e-20 0.31505)
(9.57231 1.17592e-21 0.325106)
(9.35571 -2.02987e-19 0.364938)
(9.43813 -8.89933e-20 0.379171)
(9.19154 -3.14703e-20 0.41903)
(9.28564 -1.11779e-19 0.437583)
(9.00791 1.11621e-19 0.477959)
(9.11441 1.88128e-19 0.501026)
(8.80412 0 0.542369)
(8.92387 -3.8515e-20 0.570191)
(8.57934 4.23982e-20 0.612906)
(8.71336 -3.96858e-20 0.645783)
(8.33264 8.51868e-20 0.690201)
(8.4821 -2.88488e-19 0.728508)
(8.06299 -2.8134e-21 0.774828)
(8.22924 3.80465e-19 0.819042)
(7.76931 -4.43533e-20 0.867246)
(7.95386 -1.32463e-19 0.917988)
(7.45043 -9.80973e-20 0.967707)
(7.655 0 1.0258)
(7.10521 -1.0241e-18 1.07613)
(7.33165 -9.62648e-20 1.14266)
(6.73249 -1.60972e-19 1.19192)
(6.98275 -8.18955e-19 1.26835)
(6.33127 -1.77921e-19 1.31378)
(6.60726 9.3655e-19 1.40203)
(5.90074 -1.95286e-18 1.43937)
(6.20419 -8.90147e-19 1.54197)
(5.44049 -1.06991e-18 1.565)
(5.77264 -1.06066e-18 1.68519)
(4.95076 2.30595e-18 1.68519)
(5.31192 1.83902e-18 1.82702)
(4.43274 4.47915e-18 1.79222)
(4.82169 1.25857e-19 1.96061)
(3.8888 1.20926e-19 1.87548)
(4.30216 -1.25965e-19 2.07641)
(3.32251 -1.67585e-18 1.92036)
(3.75411 4.07496e-19 2.16142)
(2.73759 6.42813e-19 1.90666)
(3.17824 3.09288e-19 2.19816)
(2.13421 -3.61519e-20 1.80393)
(2.57538 5.28463e-18 2.16392)
(1.49958 -3.60224e-19 1.58461)
(1.9409 -5.39333e-18 2.02623)
(0.811178 4.83146e-19 1.22432)
(1.24046 0 1.76801)
(0.664881 4.4242e-20 1.34337)
(9.98451 -6.01421e-22 0.0793629)
(9.99075 -1.5365e-20 0.0574699)
(9.951 -1.54644e-20 0.128527)
(9.97014 -2.36929e-23 0.112455)
(9.89812 -1.64603e-20 0.176653)
(9.92944 0 0.165265)
(9.82694 7.84489e-22 0.225923)
(9.86833 -5.20291e-23 0.218471)
(9.73816 6.80736e-20 0.277477)
(9.78898 6.78596e-23 0.273784)
(9.63188 -3.73271e-20 0.331996)
(9.69259 8.46313e-20 0.332003)
(9.50799 -1.21259e-19 0.390174)
(9.57921 -1.20805e-19 0.393799)
(9.3663 1.91176e-21 0.452757)
(9.44852 -2.53171e-22 0.459953)
(9.20645 1.11913e-19 0.520496)
(9.3002 -3.5707e-20 0.531271)
(9.02801 3.49157e-20 0.594138)
(9.13387 3.7899e-20 0.608552)
(8.8304 -7.82232e-20 0.67444)
(8.9491 -4.22299e-22 0.692601)
(8.61301 -3.73955e-19 0.762165)
(8.74535 -4.95202e-22 0.784234)
(8.37515 1.57452e-20 0.858064)
(8.522 -3.30402e-19 0.884268)
(8.11605 2.43979e-19 0.962839)
(8.27839 3.37216e-19 0.993496)
(7.83493 -8.63449e-20 1.07708)
(8.01384 -6.06316e-19 1.11264)
(7.53093 5.47749e-22 1.20118)
(7.72759 7.04096e-19 1.24228)
(7.20318 9.93996e-20 1.33518)
(7.41885 9.24152e-20 1.38274)
(6.85073 3.01862e-19 1.47861)
(7.08677 -1.5241e-18 1.53392)
(6.47258 2.0025e-19 1.63021)
(6.73039 2.95382e-18 1.69512)
(6.06767 0 1.78764)
(6.34859 -1.62086e-18 1.86473)
(5.63488 1.88551e-18 1.947)
(5.94012 0 2.03985)
(5.17306 -3.62635e-19 2.10237)
(5.50344 1.86229e-18 2.21578)
(4.68115 -4.48389e-18 2.24526)
(5.03658 -2.40398e-18 2.38543)
(4.15805 1.65864e-19 2.36406)
(4.53728 -2.54796e-18 2.53892)
(3.60226 2.39226e-18 2.44334)
(4.00287 6.23897e-18 2.66301)
(3.01103 5.00087e-18 2.4633)
(3.42956 3.19254e-20 2.74051)
(2.3784 -1.6953e-19 2.39851)
(2.8124 -4.53233e-18 2.75051)
(1.69183 -4.98565e-18 2.2269)
(2.14674 -5.43643e-20 2.66638)
(0.933941 -4.37309e-19 1.9251)
(1.38989 -5.51525e-18 2.47556)
(0.724622 1.46344e-19 2.13115)
(9.98362 -1.45808e-20 0.0912979)
(9.99048 -2.76155e-23 0.0651505)
(9.94999 1.5442e-20 0.149717)
(9.9696 4.68087e-20 0.128662)
(9.89818 1.64084e-20 0.207633)
(9.92936 0 0.190949)
(9.82872 -7.66529e-22 0.26693)
(9.86971 1.61823e-20 0.253899)
(9.74218 1.77932e-20 0.328889)
(9.79258 -1.14854e-19 0.319177)
(9.63873 -1.67459e-21 0.394361)
(9.69899 1.67392e-19 0.387808)
(9.51828 1.85421e-21 0.464135)
(9.58899 7.2299e-22 0.460607)
(9.38066 -3.83534e-20 0.539045)
(9.46233 -2.08779e-19 0.538439)
(9.22557 -1.08738e-19 0.619941)
(9.31873 3.92181e-19 0.622204)
(9.05263 2.03633e-21 0.707676)
(9.15787 -3.28056e-19 0.712799)
(8.86138 7.7317e-20 0.803111)
(8.97938 3.81054e-20 0.811128)
(8.65129 3.86777e-20 0.907114)
(8.78279 -2.70265e-19 0.918102)
(8.42179 0 1.02054)
(8.56757 2.3574e-19 1.03463)
(8.17228 -5.25756e-19 1.1442)
(8.33317 -6.54525e-19 1.16161)
(7.90209 2.0143e-19 1.27881)
(8.07898 6.29709e-20 1.29986)
(7.61055 7.88076e-19 1.42486)
(7.80436 6.18449e-19 1.45007)
(7.2969 -1.55256e-18 1.58256)
(7.5086 3.33834e-21 1.6127)
(6.96027 1.18597e-18 1.75157)
(7.19087 -1.62251e-18 1.78782)
(6.59964 1.07441e-18 1.93084)
(6.8502 1.41722e-18 1.97494)
(6.21373 -1.60072e-18 2.11823)
(6.48528 -1.63992e-18 2.17269)
(5.80085 0 2.31007)
(6.09453 1.81534e-18 2.37855)
(5.35875 -2.31773e-19 2.50057)
(5.67575 -1.48218e-18 2.58826)
(4.88446 -4.68835e-19 2.68134)
(5.2256 1.73032e-18 2.79514)
(4.37422 3.62707e-18 2.84092)
(4.73991 3.87721e-18 2.9898)
(3.82302 3.81094e-18 2.96429)
(4.21347 -2.17787e-19 3.15961)
(3.22436 -9.54621e-18 3.0328)
(3.63957 4.07253e-18 3.28819)
(2.56969 -4.37433e-18 3.02386)
(3.00985 -9.44774e-18 3.35577)
(1.84838 -6.36672e-19 2.91713)
(2.32071 4.85071e-18 3.33758)
(1.05183 -4.88767e-18 2.68603)
(1.52786 -5.48629e-18 3.21892)
(0.793584 -5.31402e-18 2.94543)
(9.98335 6.19985e-20 0.103327)
(9.99039 3.08498e-20 0.0729572)
(9.95 3.07066e-20 0.170585)
(9.9697 6.21527e-20 0.144737)
(9.89949 0 0.237877)
(9.9303 -6.29025e-20 0.215999)
(9.83207 -9.9731e-20 0.306849)
(9.87239 6.40852e-20 0.288293)
(9.74819 3.86425e-20 0.378833)
(9.79781 -9.82421e-20 0.363187)
(9.64804 1.67508e-19 0.454825)
(9.70744 1.66984e-19 0.441849)
(9.53158 -2.1278e-19 0.535726)
(9.60133 3.5065e-20 0.525228)
(9.39865 2.29908e-19 0.622465)
(9.47928 -2.78598e-19 0.614278)
(9.249 1.63189e-19 0.715985)
(9.34105 7.47506e-19 0.709982)
(9.08231 -2.87108e-19 0.817233)
(9.18639 -5.78157e-19 0.81333)
(8.89816 -3.13631e-19 0.927164)
(9.01495 0 0.925313)
(8.69609 -6.6517e-20 1.04674)
(8.82632 -6.89058e-19 1.04693)
(8.4756 -4.30599e-19 1.1769)
(8.62005 6.22225e-19 1.17919)
(8.23611 -5.63867e-20 1.31855)
(8.3956 -6.54755e-19 1.32308)
(7.97705 4.87406e-19 1.47251)
(8.15242 5.82189e-19 1.47951)
(7.69775 -1.74577e-19 1.63942)
(7.88986 8.19408e-20 1.64932)
(7.39743 -8.74534e-20 1.81963)
(7.60719 -1.92158e-21 1.8331)
(7.07518 -1.35262e-18 2.01302)
(7.30353 1.42891e-18 2.03116)
(6.72978 -1.33732e-18 2.21881)
(6.97773 -4.26084e-18 2.24326)
(6.35966 1.82049e-18 2.43526)
(6.6282 1.66717e-18 2.46841)
(5.96264 2.92693e-19 2.65926)
(6.25293 1.81426e-18 2.70462)
(5.53556 5.18541e-19 2.88569)
(5.84916 -1.4859e-18 2.94848)
(5.07395 6.10354e-18 3.10685)
(5.41251 5.2937e-18 3.19424)
(4.57209 -1.40428e-20 3.31213)
(4.93726 4.14617e-18 3.43346)
(4.0227 9.00121e-20 3.48742)
(4.41636 -7.38902e-18 3.65459)
(3.41705 4.03186e-18 3.61494)
(3.84104 7.81856e-18 3.84217)
(2.74544 -8.30851e-20 3.67283)
(3.20067 3.08705e-19 3.97682)
(1.99895 -9.5169e-20 3.63884)
(2.49231 3.94468e-20 4.03306)
(1.17438 -5.92151e-18 3.47953)
(1.67322 -9.24902e-18 3.99018)
(0.875866 -7.81494e-19 3.78495)
(9.98346 3.14258e-20 0.115251)
(9.99043 0 0.08071)
(9.95076 -3.32299e-20 0.190981)
(9.97024 -3.08446e-20 0.160502)
(9.90179 2.95947e-21 0.267214)
(9.93202 3.12066e-20 0.240294)
(9.83672 6.33316e-20 0.345459)
(9.87614 6.09083e-22 0.3215)
(9.7559 3.37556e-20 0.427069)
(9.80443 2.17075e-23 0.405609)
(9.65952 3.27209e-20 0.513154)
(9.71768 3.31762e-20 0.493876)
(9.54758 -3.50106e-20 0.604722)
(9.61594 3.3395e-20 0.587366)
(9.41995 2.52869e-19 0.702787)
(9.49906 -3.4545e-20 0.687121)
(9.27644 -1.1659e-20 0.808375)
(9.36684 3.54906e-21 0.794203)
(9.11676 -2.83333e-19 0.922521)
(9.21908 -2.1868e-19 0.909683)
(8.94054 -3.84578e-19 1.04627)
(9.05548 2.16931e-19 1.03464)
(8.74739 1.69721e-20 1.18066)
(8.87569 -3.05091e-19 1.17016)
(8.53682 3.81425e-19 1.32675)
(8.67928 3.10768e-19 1.31735)
(8.3083 0 1.48553)
(8.46577 -6.26067e-19 1.47728)
(8.06123 1.70109e-19 1.65794)
(8.2346 6.34631e-19 1.65101)
(7.79492 2.53622e-19 1.84478)
(7.98511 8.24378e-19 1.83949)
(7.50851 1.53303e-18 2.0466)
(7.7165 7.67314e-19 2.04354)
(7.20091 -1.55075e-18 2.26357)
(7.42775 6.30887e-20 2.2637)
(6.87066 -1.18311e-18 2.49528)
(7.11753 -2.92677e-18 2.50014)
(6.51575 1.66289e-18 2.74049)
(6.78394 1.68416e-18 2.75234)
(6.13346 -5.01866e-21 2.99691)
(6.42438 -1.89186e-19 3.01899)
(5.7199 3.37104e-18 3.26048)
(6.03546 -1.94739e-19 3.29771)
(5.26948 3.3226e-18 3.52467)
(5.61215 3.33578e-18 3.58416)
(4.7749 -3.36059e-18 3.78007)
(5.14747 -3.78926e-19 3.87123)
(4.22719 5.07468e-19 4.01371)
(4.63269 -3.35033e-18 4.14875)
(3.61588 4.01646e-18 4.2084)
(4.0573 3.562e-18 4.40232)
(2.93018 4.35305e-19 4.34159)
(3.40837 2.76495e-19 4.61255)
(2.16135 -9.2122e-18 4.38676)
(2.68216 1.56737e-19 4.75195)
(1.30827 -3.98305e-18 4.30092)
(1.83874 -9.26727e-18 4.79158)
(0.974777 5.13982e-18 4.65782)
(9.98383 -6.26917e-20 0.126918)
(9.99056 -1.51958e-20 0.0882891)
(9.9521 3.4463e-20 0.210763)
(9.97111 -1.56042e-20 0.175807)
(9.90492 2.84386e-20 0.295503)
(9.93435 1.25394e-19 0.263705)
(9.84249 -6.27128e-20 0.382592)
(9.88079 -9.50508e-20 0.353373)
(9.76509 -1.02988e-22 0.473393)
(9.81225 -1.60788e-19 0.446251)
(9.67291 3.38523e-20 0.569104)
(9.7295 2.60733e-19 0.543656)
(9.56599 3.29461e-20 0.670826)
(9.63259 -1.32021e-19 0.646745)
(9.44424 -2.83388e-19 0.779653)
(9.52138 2.70887e-19 0.756643)
(9.30752 -2.06488e-19 0.89669)
(9.39576 -8.29818e-19 0.874485)
(9.15558 2.87431e-19 1.02305)
(9.25556 3.47474e-19 1.00142)
(8.98812 2.89621e-19 1.15987)
(9.10055 2.17422e-19 1.13861)
(8.80477 -3.20971e-21 1.30828)
(8.93042 7.45437e-20 1.28722)
(8.60511 -7.09089e-19 1.46942)
(8.74481 -1.00369e-21 1.44845)
(8.38861 2.47074e-20 1.64442)
(8.54326 -6.26318e-19 1.6235)
(8.15467 1.29161e-18 1.83436)
(8.32522 1.26011e-18 1.81355)
(7.90255 1.3377e-18 2.04021)
(8.09003 -1.33334e-18 2.01973)
(7.63127 -7.1169e-19 2.26279)
(7.83683 1.97393e-18 2.24309)
(7.33959 -1.35033e-18 2.50263)
(7.56448 -1.5325e-18 2.4845)
(7.02576 -2.34724e-21 2.75982)
(7.27144 0 2.74458)
(6.68733 -1.91393e-19 3.03376)
(6.95558 -1.76846e-19 3.02349)
(6.32094 -3.79125e-19 3.32307)
(6.61376 -1.86953e-19 3.32073)
(5.92208 -1.8996e-19 3.62505)
(6.24186 2.89797e-18 3.63504)
(5.4843 -4.10121e-19 3.93479)
(5.83438 -5.94004e-18 3.96377)
(4.99894 -4.00899e-19 4.24445)
(5.3833 3.01426e-18 4.30172)
(4.4553 -2.1921e-19 4.54245)
(4.8782 3.1474e-18 4.64048)
(3.84093 -2.14331e-19 4.81217)
(4.30653 -3.25321e-18 4.96714)
(3.14299 0 5.02988)
(3.65239 1.04361e-19 5.26247)
(2.35083 0 5.16352)
(2.90872 -3.47014e-18 5.4967)
(1.46253 3.85481e-20 5.15836)
(2.03814 3.82771e-18 5.63116)
(1.09617 3.90724e-20 5.57932)
(9.98439 3.1873e-20 0.13821)
(9.99074 1.52202e-20 0.0956096)
(9.95387 7.73118e-20 0.229803)
(9.97221 4.62601e-20 0.190528)
(9.90874 -1.16076e-21 0.322611)
(9.93718 3.12727e-20 0.286108)
(9.84922 -1.94041e-19 0.418084)
(9.8862 -1.57227e-19 0.383769)
(9.77558 1.05831e-19 0.5176)
(9.82112 -2.24755e-19 0.484939)
(9.688 8.95294e-20 0.622425)
(9.74271 2.60153e-19 0.590973)
(9.58656 1.11354e-19 0.73374)
(9.65103 -3.44962e-20 0.703107)
(9.47122 -2.90261e-19 0.852714)
(9.54598 3.04221e-19 0.82254)
(9.34189 -2.60242e-19 0.980523)
(9.42749 -8.2282e-19 0.950475)
(9.19837 2.75759e-19 1.11836)
(9.29547 5.54061e-19 1.08813)
(9.04043 4.24683e-22 1.26743)
(9.14973 3.53656e-19 1.23674)
(8.86775 7.57688e-20 1.42897)
(8.99005 -2.85589e-19 1.39756)
(8.67995 7.38451e-20 1.60423)
(8.8161 7.48163e-20 1.57188)
(8.47656 6.33264e-19 1.79445)
(8.62751 6.72058e-19 1.76102)
(8.25697 -1.39799e-18 2.00088)
(8.42375 -5.3986e-20 1.9663)
(8.0204 -6.56691e-19 2.22472)
(8.20418 -1.91429e-18 2.18906)
(7.76584 1.11053e-18 2.46708)
(7.96791 1.29373e-18 2.43061)
(7.49187 -1.62984e-19 2.72893)
(7.71375 -3.72383e-21 2.6922)
(7.19655 -1.76659e-19 3.01096)
(7.44004 1.14848e-18 2.97497)
(6.8771 -1.72542e-19 3.31342)
(7.14448 -1.49845e-18 3.27989)
(6.52962 3.1272e-18 3.63595)
(6.82366 -1.35625e-18 3.60745)
(6.14892 -2.95386e-18 3.97735)
(6.47285 4.2912e-18 3.95763)
(5.72785 -2.41558e-18 4.33474)
(6.08598 -5.94597e-18 4.3297)
(5.25649 6.56749e-18 4.70245)
(5.65424 3.06671e-18 4.72093)
(4.72216 4.10131e-20 5.07086)
(5.16552 3.15057e-18 5.12546)
(4.10961 -2.89663e-18 5.42456)
(4.60472 -2.94712e-18 5.5328)
(3.40221 -3.40933e-18 5.739)
(3.9517 3.00546e-18 5.92498)
(2.58446 4.45859e-19 5.97615)
(3.19256 -3.57514e-18 6.27084)
(1.64984 3.77323e-18 6.06716)
(2.28991 3.44802e-19 6.52124)
(1.25031 4.51026e-20 6.57244)
(9.98507 3.00084e-20 0.149036)
(9.99096 3.03648e-20 0.102608)
(9.95598 0 0.247985)
(9.97351 -3.05341e-20 0.204564)
(9.91313 -1.27421e-19 0.348408)
(9.94041 3.06469e-20 0.307389)
(9.85678 -1.88879e-19 0.45178)
(9.89225 -3.21405e-20 0.41256)
(9.7872 -6.38058e-20 0.559501)
(9.8309 -6.40597e-20 0.52151)
(9.70459 1.32126e-19 0.67289)
(9.75714 1.27811e-19 0.635632)
(9.60905 1.62938e-19 0.793197)
(9.67105 -2.59422e-19 0.756221)
(9.5006 -2.4336e-19 0.921656)
(9.57258 2.30554e-19 0.88454)
(9.3792 9.70227e-21 1.05951)
(9.46171 -5.41639e-19 1.02185)
(9.24472 6.29368e-19 1.20802)
(9.33841 2.04926e-19 1.16944)
(9.097 5.93881e-20 1.36846)
(9.20257 9.07325e-19 1.32859)
(8.93579 -2.81977e-19 1.54217)
(9.05404 -6.36339e-19 1.50066)
(8.76077 6.80718e-19 1.73049)
(8.89258 -7.12511e-20 1.68702)
(8.57153 -2.432e-20 1.93481)
(8.71788 1.49933e-20 1.88911)
(8.36751 -5.93415e-19 2.15655)
(8.5295 -8.98416e-20 2.10839)
(8.14796 7.5915e-20 2.39716)
(8.32685 1.34276e-21 2.34643)
(7.91184 1.63288e-19 2.65808)
(8.10911 -1.22466e-18 2.6048)
(7.6577 1.32195e-18 2.94076)
(7.8751 1.39539e-18 2.88518)
(7.3835 -2.04108e-19 3.24659)
(7.62319 1.38534e-18 3.18928)
(7.08633 -2.68155e-18 3.57677)
(7.35102 -1.40369e-18 3.51887)
(6.76202 -1.29602e-19 3.93217)
(7.05522 -1.35742e-18 3.87564)
(6.40485 1.18526e-18 4.31329)
(6.73085 1.11862e-18 4.26106)
(6.00697 -3.60875e-19 4.71963)
(6.37136 2.71969e-18 4.67645)
(5.55737 -3.52885e-19 5.14842)
(5.96736 -1.86311e-19 5.12215)
(5.04117 9.31556e-20 5.59323)
(5.50534 -2.69912e-18 5.59598)
(4.43931 3.02796e-18 6.04137)
(4.96727 5.11226e-21 6.0916)
(3.72885 2.76191e-18 6.46925)
(4.32742 2.99272e-18 6.59488)
(2.88481 -3.6312e-18 6.83391)
(3.56039 -1.0329e-19 7.07634)
(1.88909 -3.38676e-18 7.04975)
(2.62243 -4.7659e-19 7.47796)
(1.45578 -3.23379e-18 7.67321)
(9.98587 -3.0969e-20 0.159319)
(9.99122 -1.11176e-22 0.109234)
(9.95838 9.8345e-22 0.265209)
(9.97496 -6.08777e-20 0.217829)
(9.91801 1.25057e-19 0.372779)
(9.94398 -4.50034e-23 0.327445)
(9.86506 9.2254e-20 0.483543)
(9.89884 9.35483e-20 0.439625)
(9.79982 1.30188e-19 0.598928)
(9.84146 0 0.555822)
(9.72248 -2.6899e-19 0.720297)
(9.77263 1.28448e-19 0.677459)
(9.63322 -1.85294e-19 0.848956)
(9.69246 -3.90461e-19 0.805878)
(9.53209 -7.79435e-20 0.986197)
(9.60093 1.97487e-19 0.942397)
(9.4191 -3.36652e-19 1.13332)
(9.4981 -2.69087e-19 1.08833)
(9.29422 4.91978e-19 1.29164)
(9.38401 -7.01987e-20 1.24501)
(9.15734 1.91765e-19 1.46251)
(9.25862 7.59719e-19 1.41378)
(9.00832 -4.18429e-19 1.64734)
(9.12187 -2.06161e-21 1.59607)
(8.84692 -7.36102e-19 1.84757)
(8.97363 -4.90153e-19 1.79333)
(8.67282 -5.19863e-20 2.06474)
(8.81367 -7.28365e-19 2.0071)
(8.48555 5.06396e-19 2.30043)
(8.64169 6.62694e-19 2.23901)
(8.28444 -1.31442e-18 2.55635)
(8.4572 5.10458e-19 2.4908)
(8.06856 3.83724e-20 2.8343)
(8.25953 -6.28827e-19 2.76435)
(7.83652 1.45883e-18 3.13621)
(8.04766 -3.18745e-20 3.06173)
(7.58636 1.53621e-19 3.46417)
(7.8201 1.3704e-18 3.38522)
(7.31528 -7.79693e-20 3.82041)
(7.57471 2.27505e-21 3.7374)
(7.01918 -8.14971e-20 4.20724)
(7.30839 -1.14934e-18 4.12116)
(6.69223 2.67116e-18 4.62704)
(7.01651 -1.16019e-18 4.53967)
(6.32619 2.86437e-18 5.08206)
(6.6926 3.80602e-18 4.99659)
(5.90931 -2.5611e-18 5.57337)
(6.32722 1.70888e-19 5.49572)
(5.42472 -2.75774e-18 6.09942)
(5.90624 -2.62557e-18 6.03996)
(4.8488 4.09373e-21 6.65318)
(5.40924 -2.56137e-18 6.62969)
(4.14958 8.78936e-20 7.2164)
(4.80437 2.59725e-18 7.25927)
(3.2855 3.05131e-18 7.74601)
(4.05001 0 7.90852)
(2.21262 -3.86368e-19 8.13939)
(3.08411 5.68616e-18 8.51926)
(1.74958 -6.02743e-18 8.94111)
(9.98674 -3.084e-20 0.169001)
(9.9915 -5.40809e-23 0.115451)
(9.96101 -6.10437e-20 0.281391)
(9.97653 -3.03436e-20 0.230254)
(9.9233 -3.02702e-20 0.395619)
(9.94782 3.02689e-20 0.346189)
(9.87395 0 0.513249)
(9.90589 6.17611e-20 0.464861)
(9.81328 0 0.635731)
(9.85268 -1.24255e-19 0.587748)
(9.74151 0 0.764467)
(9.78902 -3.13905e-20 0.7163)
(9.65884 1.8465e-22 0.900806)
(9.71503 0 0.851898)
(9.56539 1.79823e-22 1.04609)
(9.63077 6.46936e-20 0.995899)
(9.46124 0 1.20165)
(9.53635 -2.2952e-19 1.14966)
(9.34644 2.0824e-19 1.36888)
(9.43186 5.29554e-19 1.31454)
(9.22096 5.56196e-19 1.54916)
(9.31739 3.41232e-19 1.49196)
(9.08475 -7.98227e-20 1.74399)
(9.19297 7.80466e-20 1.68338)
(8.93771 -4.85389e-19 1.95489)
(9.05856 -4.88074e-19 1.89031)
(8.77963 3.47851e-21 2.18351)
(8.91409 6.82734e-20 2.1144)
(8.61018 6.64876e-19 2.43162)
(8.7594 -4.91429e-19 2.35739)
(8.42887 1.18309e-18 2.70114)
(8.5942 1.79295e-18 2.62121)
(8.23494 -6.91962e-19 2.9942)
(8.41802 2.50279e-20 2.90798)
(8.02725 -1.04743e-19 3.31321)
(8.23012 -1.26625e-18 3.22013)
(7.80413 1.20418e-18 3.66094)
(8.02936 1.13497e-18 3.56045)
(7.56313 -1.08195e-18 4.0406)
(7.81406 1.534e-19 3.93226)
(7.30065 -2.22905e-18 4.45593)
(7.58173 -5.60324e-20 4.33956)
(7.01137 2.73129e-20 4.9114)
(7.32861 -3.48823e-18 4.78716)
(6.68748 1.07262e-18 5.4123)
(7.04915 2.28775e-18 5.28117)
(6.31739 7.70912e-20 5.96436)
(6.73502 1.1481e-18 5.82916)
(5.8834 -2.42785e-18 6.57299)
(6.37324 1.15546e-18 6.44009)
(5.35821 9.30817e-20 7.24124)
(5.94338 -4.73878e-18 7.12405)
(4.69943 2.4767e-18 7.96483)
(5.41039 2.50991e-18 7.89075)
(3.84049 2.71602e-18 8.71533)
(4.71598 -3.20605e-20 8.74428)
(2.68402 -1.90738e-19 9.38856)
(3.76549 2.54673e-18 9.6549)
(2.21395 -2.75278e-18 10.486)
(9.98768 0 0.178032)
(9.9918 -6.17185e-23 0.121227)
(9.96381 6.1829e-20 0.296457)
(9.9782 6.01305e-20 0.241783)
(9.92891 1.22758e-19 0.41684)
(9.95187 3.06608e-20 0.363545)
(9.88335 -6.50391e-20 0.540789)
(9.91331 6.17691e-20 0.488175)
(9.82745 -1.54397e-19 0.669782)
(9.86445 3.01679e-20 0.617179)
(9.76148 -3.0972e-20 0.805248)
(9.80615 -1.2471e-19 0.752027)
(9.68568 6.53723e-20 0.948571)
(9.73858 1.2642e-19 0.894126)
(9.60022 -1.68887e-19 1.10112)
(9.66184 -9.48007e-20 1.04487)
(9.50526 3.09908e-19 1.26429)
(9.57611 -2.29788e-19 1.20563)
(9.40092 6.60216e-19 1.43946)
(9.48158 5.29682e-19 1.37781)
(9.2873 -1.40309e-19 1.6281)
(9.3784 6.94046e-20 1.56284)
(9.16445 -3.37337e-19 1.83173)
(9.26673 -2.7085e-19 1.76223)
(9.03238 7.25974e-20 2.05196)
(9.14667 -6.09352e-19 1.97754)
(8.89107 -4.33545e-19 2.29052)
(9.0183 6.81107e-19 2.21048)
(8.74038 6.64039e-19 2.54932)
(8.88164 -5.64162e-19 2.46289)
(8.58004 6.14051e-19 2.83047)
(8.73664 1.13763e-18 2.7368)
(8.40959 -5.64181e-19 3.13638)
(8.58314 -6.41078e-19 3.03455)
(8.22827 1.11687e-21 3.46985)
(8.42076 1.25801e-18 3.35882)
(8.03494 7.30293e-20 3.83421)
(8.24891 -1.11795e-18 3.71281)
(7.82781 1.17803e-18 4.23351)
(8.0666 1.11869e-18 4.10041)
(7.60424 -1.35157e-18 4.6728)
(7.87231 -2.03758e-20 4.52646)
(7.36015 -1.16714e-18 5.15847)
(7.66368 -2.40928e-18 4.99716)
(7.08937 2.35133e-18 5.69883)
(7.43711 1.52041e-19 5.52065)
(6.78229 2.22849e-18 6.30459)
(7.18704 2.22039e-18 6.10794)
(6.42326 -1.2179e-18 6.98961)
(6.90445 1.04235e-18 6.77401)
(5.98559 -2.23713e-18 7.77168)
(6.5743 -2.26344e-18 7.54003)
(5.42146 -3.24691e-20 8.67356)
(6.16851 0 8.43728)
(4.63814 -1.64379e-19 9.71649)
(5.62961 -2.36753e-21 9.51559)
(3.44571 -1.29373e-19 10.8842)
(4.84995 -7.54274e-20 10.8437)
(3.04438 0 12.5313)
(9.98867 6.09201e-20 0.186374)
(9.99211 -5.61797e-20 0.126539)
(9.96676 2.85372e-20 0.310348)
(9.97994 6.13983e-20 0.25237)
(9.93479 -2.98961e-20 0.436362)
(9.9561 -8.78153e-20 0.379452)
(9.89315 1.56567e-19 0.566062)
(9.92103 1.43655e-19 0.509496)
(9.84219 5.77809e-20 0.700951)
(9.87667 4.13478e-20 0.644028)
(9.78222 3.60469e-20 0.842478)
(9.8239 -2.12421e-19 0.784536)
(9.7135 -3.66789e-20 0.992049)
(9.76296 2.46987e-19 0.932444)
(9.63628 -1.57475e-19 1.15106)
(9.69399 -1.3255e-19 1.08916)
(9.55079 -2.1428e-22 1.32092)
(9.61724 2.1162e-19 1.25607)
(9.45724 -6.70958e-20 1.50304)
(9.53297 -2.43628e-19 1.43461)
(9.35582 -6.54142e-20 1.69891)
(9.44146 -6.75032e-20 1.6262)
(9.24673 -5.47105e-19 1.91007)
(9.34297 0 1.83237)
(9.13013 1.49541e-20 2.13819)
(9.23775 -1.65112e-20 2.05472)
(9.00618 5.35541e-19 2.38506)
(9.12606 -4.74553e-20 2.29496)
(8.87497 -7.03859e-20 2.65267)
(9.00814 0 2.55499)
(8.73652 -1.38545e-19 2.94325)
(8.88422 -1.02628e-19 2.83693)
(8.59077 1.2035e-18 3.2594)
(8.75448 5.08005e-19 3.14319)
(8.43746 1.12336e-19 3.60418)
(8.61904 7.02427e-19 3.47662)
(8.27614 -4.7304e-20 3.98132)
(8.47795 -1.1395e-18 3.84062)
(8.10601 -9.19576e-20 4.39546)
(8.3311 2.08658e-18 4.2394)
(7.92579 -1.1034e-18 4.85251)
(8.17825 -2.15309e-18 4.67827)
(7.73343 -1.06327e-18 5.3603)
(8.01892 9.95098e-19 5.16417)
(7.52572 4.13221e-20 5.92942)
(7.85232 -1.09002e-18 5.70642)
(7.29749 1.02248e-18 6.57463)
(7.67726 1.50083e-19 6.31797)
(7.03984 -3.70046e-20 7.31736)
(7.49193 -3.44354e-20 7.01753)
(6.7363 0 8.1908)
(7.29391 0 7.83384)
(6.35317 2.97735e-20 9.25293)
(7.08071 7.67869e-19 8.81559)
(5.80812 8.4481e-20 10.6237)
(6.85345 -6.29511e-19 10.0617)
(4.85039 5.48218e-20 12.7883)
(6.79508 5.57192e-20 11.8205)
(5.93618 0 15.553)
(0.167841 -4.47795e-20 -0.100406)
(0.0839002 -5.91713e-20 -0.160724)
(0.369488 -2.86121e-21 -0.105716)
(0.266028 4.65764e-23 -0.18384)
(0.556494 0 -0.091866)
(0.451682 0 -0.16466)
(0.716473 1.48292e-20 -0.0739822)
(0.624038 -7.33227e-20 -0.136922)
(0.84839 -1.51827e-21 -0.0569061)
(0.772473 8.80385e-20 -0.110176)
(0.953753 -7.79866e-21 -0.0416515)
(0.895093 -4.77784e-20 -0.0860804)
(1.03422 -4.48372e-21 -0.0282118)
(0.993663 3.75544e-20 -0.0644086)
(1.09145 -7.44809e-21 -0.0165044)
(1.07034 -1.38383e-20 -0.0449182)
(1.12742 6.65633e-21 -0.00654034)
(1.12696 6.59092e-21 -0.0276877)
(1.14454 0 0.00158116)
(1.16546 0 -0.0129141)
(1.14577 1.29396e-21 0.00765638)
(1.18799 1.08068e-20 -0.000874713)
(1.13476 1.31944e-21 0.0115806)
(1.19688 -8.02386e-21 0.00807284)
(1.11554 0 0.013544)
(1.19414 -2.42339e-21 0.0138007)
(1.09183 0 0.0140139)
(1.18404 2.27834e-21 0.0167032)
(1.0664 9.87734e-22 0.0135129)
(1.17029 4.18817e-21 0.0175791)
(1.04114 3.89583e-23 0.0123075)
(1.15532 -3.1184e-21 0.0171239)
(1.01788 -9.91796e-22 0.0104481)
(1.14078 -5.58072e-21 0.0154753)
(0.998579 0 0.00806928)
(1.1284 6.17099e-21 0.0125981)
(0.984688 0 0.00555886)
(1.11994 -1.66971e-21 0.0089003)
(0.976301 6.71396e-22 0.00337721)
(1.11611 -6.90252e-22 0.00528239)
(0.972179 3.62442e-22 0.00168449)
(1.11599 1.74868e-21 0.00256118)
(0.970986 -3.2917e-22 0.000161568)
(1.11774 -3.25883e-22 0.000748278)
(0.972894 0 -0.00169314)
(1.1202 -5.44275e-22 -0.00109666)
(0.979654 0 -0.00407423)
(1.12388 0 -0.00388412)
(0.993077 0 -0.00676132)
(1.13021 -4.06871e-22 -0.00758924)
(1.01389 0 -0.00943562)
(1.14003 0 -0.0115533)
(1.04199 0 -0.0119479)
(1.15348 1.1446e-22 -0.0153138)
(1.07715 0 -0.0140191)
(1.17071 -7.36365e-23 -0.0188026)
(1.11775 0 -0.0145782)
(1.19242 -1.54241e-22 -0.0213012)
(1.2247 -3.99072e-23 -0.0198319)
(0.158661 -1.47669e-20 -0.266147)
(0.0532574 5.24655e-21 -0.332687)
(0.351804 2.79319e-21 -0.266918)
(0.23184 -2.49034e-21 -0.360589)
(0.531232 -7.22434e-20 -0.232374)
(0.402071 7.74745e-20 -0.322346)
(0.688553 -7.89887e-22 -0.191859)
(0.558524 -1.43606e-19 -0.27115)
(0.823157 4.30625e-20 -0.153945)
(0.694737 1.39638e-19 -0.222264)
(0.936544 -3.11852e-21 -0.120036)
(0.810545 -1.50085e-19 -0.178485)
(1.03023 2.875e-20 -0.0897935)
(0.907691 8.88917e-20 -0.139239)
(1.10555 0 -0.0629795)
(0.987852 0 -0.103947)
(1.16414 0 -0.0396392)
(1.05221 0 -0.0727596)
(1.20782 1.06999e-20 -0.0198048)
(1.10213 0 -0.0459092)