/*--------------------------------*- C++ -*----------------------------------*\
| =========                 |                                                 |
| \\      /  F ield         | OpenFOAM: The Open Source CFD Toolbox           |
|  \\    /   O peration     | Version:  dev                                   |
|   \\  /    A nd           | Web:      www.OpenFOAM.org                      |
|    \\/     M anipulation  |                                                 |
\*---------------------------------------------------------------------------*/
FoamFile
{
    version     2.0;
    format      ascii;
    class       volScalarField;
    location    "1.22";
    object      p;
}
// * * * * * * * * * * * * * * * * * * * * * * * * * * * * * * * * * * * * * //

dimensions      [0 2 -2 0 0 0 0];

internalField   nonuniform List<scalar> 
465
(
49.1161
48.8218
50.4829
50.26
49.6178
48.5709
51.6499
51.2938
50.6458
49.6362
48.2382
52.6813
52.1275
51.365
50.3247
48.9558
47.2331
45.164
53.6036
52.8268
51.9015
50.764
49.3638
47.6646
45.647
43.315
40.6931
54.4655
53.4567
52.3465
51.0752
49.5946
47.8676
45.8686
43.5851
41.0206
38.1934
55.3121
54.0793
52.7781
51.3551
49.7648
47.9709
45.9471
43.6762
41.1511
38.3754
35.3639
32.14
56.1698
54.7356
53.2532
51.6764
49.9636
48.0806
46.0018
43.7089
41.1905
38.4438
35.4737
32.2932
28.9223
57.0456
55.4425
53.801
52.0826
50.2494
48.2705
46.1222
43.7864
41.25
38.5071
35.5586
32.4119
29.0811
25.5884
21.9655
57.9328
56.1975
54.4264
52.5875
50.6475
48.5791
46.3612
43.9763
41.4106
38.6568
35.7139
32.587
29.2874
25.8339
22.2548
18.5899
58.8177
56.9865
55.1172
53.1832
51.1567
49.0145
46.7376
44.3087
41.7141
38.946
36.0024
32.887
29.6095
26.1866
22.6433
19.0141
15.3437
11.6851
59.6859
57.7905
55.8525
53.8496
51.7598
49.5634
47.2424
44.7807
42.1655
39.3882
36.446
33.3413
30.0822
26.6831
23.1657
19.5596
15.9015
12.2339
8.59874
60.5246
58.591
56.6094
54.5618
52.4303
50.1981
47.849
45.3684
42.7439
39.9665
37.0323
33.9424
30.7027
27.3248
23.8269
20.2332
16.5735
12.8812
9.18878
5.52925
61.3231
59.3716
57.3669
55.2946
53.1399
50.8881
48.5255
46.0385
43.4149
40.6459
37.7273
34.6578
31.4405
28.084
24.6024
21.0144
17.3434
13.6148
9.85333
6.08358
2.2925
62.0743
60.1204
58.1085
56.0269
53.8629
51.6043
49.2392
46.7552
44.1406
41.3865
38.4883
35.4432
32.251
28.9164
25.4492
21.863
18.1748
14.4027
10.5644
6.67674
2.75616
62.7737
60.8286
58.8209
56.7408
54.578
52.3219
49.9619
47.4874
44.8868
42.151
39.2746
36.254
33.087
29.7738
26.3189
22.7314
19.0219
15.2021
11.2825
7.27203
3.21175
63.4186
61.4898
59.4943
57.4239
55.2696
53.022
50.672
48.2097
45.6248
42.9082
40.0528
37.0543
33.9092
30.6139
27.1679
23.5752
19.8412
15.9707
11.9676
7.83254
3.62359
64.0078
62.1005
60.1225
58.0667
55.9254
53.6903
51.3528
48.9039
46.3348
43.6359
40.7991
37.8186
34.6893
31.4058
27.9637
24.3615
20.5992
16.6757
12.5885
8.3305
3.96779
64.5415
62.6584
60.7012
58.6632
56.5378
54.3174
51.9935
49.5584
47.0038
44.3194
41.4971
38.5297
35.4097
32.1308
28.6866
25.0704
21.2763
17.2982
13.1277
8.75138
4.23543
65.0206
63.1631
61.2282
59.2098
57.1018
54.8967
52.5868
50.1652
47.6229
44.9497
42.1378
39.179
36.0633
32.7821
29.3282
25.6933
21.8654
17.8322
13.5813
9.09402
4.43105
65.4461
63.614
61.7018
59.7035
57.613
55.4237
53.1283
50.7187
48.1858
45.5214
42.7168
39.7622
36.6469
33.3587
29.8893
26.231
22.3676
18.2807
13.9537
9.36519
4.56655
65.821
64.0133
62.1231
60.1444
58.0712
55.8975
53.6161
51.2169
48.6916
46.0344
43.2348
40.2809
37.1623
33.8649
30.3775
26.6921
22.792
18.6544
14.2581
9.57935
4.65877
66.1445
64.3596
62.49
60.5298
58.4729
56.3137
54.0448
51.6549
49.1363
46.4846
43.6878
40.7321
37.6072
34.2995
30.7944
27.0808
23.1436
18.9588
14.501
9.74385
4.71748
66.4248
64.6604
62.8096
60.8664
58.8246
56.6788
54.4211
52.0399
49.5279
46.8807
44.0855
41.1275
37.9956
34.6771
31.156
27.4166
23.4438
19.2161
14.7053
9.88133
4.76166
66.6499
64.9027
63.0679
61.1391
59.1102
56.9755
54.7271
52.3533
49.8467
47.2026
44.4077
41.4467
38.3079
34.9788
31.4428
27.6806
23.6756
19.4094
14.8536
9.97483
4.78016
66.8492
65.1169
63.2959
61.38
59.3627
57.2381
54.9982
52.6317
50.1312
47.4904
44.6964
41.7341
38.5911
35.2539
31.7061
27.9272
23.8973
19.5982
15.0043
10.0796
4.81295
66.9676
65.2449
63.4328
61.525
59.5151
57.3966
55.1614
52.7994
50.3027
47.6631
44.8683
41.9041
38.7573
35.4132
31.8556
28.0644
24.0159
19.6907
15.0674
10.1102
4.79901
67.104
65.3893
63.5848
61.6841
59.681
57.5685
55.3385
52.9818
50.4899
47.8534
45.0607
42.0982
38.9518
35.6065
32.0456
28.2489
24.1917
19.853
15.2093
10.2194
4.83486
)
;

boundaryField
{
    inlet
    {
        type            zeroGradient;
    }
    outlet
    {
        type            fixedValue;
        value           uniform 0;
    }
    flap
    {
        type            zeroGradient;
    }
    upperWall
    {
        type            zeroGradient;
    }
    lowerWall
    {
        type            zeroGradient;
    }
    frontAndBack
    {
        type            empty;
    }
    procBoundary2to1
    {
        type            processor;
        value           nonuniform List<scalar> 
17
(
61.5579
62.4259
63.2341
63.9805
64.6648
65.2877
65.8508
66.3561
66.8062
67.2034
67.5513
67.8502
68.1083
68.3149
68.4984
68.6066
68.7348
)
;
    }
    procBoundary2to4
    {
        type            processor;
        value           nonuniform List<scalar> 
11
(
49.0602
50.4029
51.8084
53.1108
54.3104
55.4428
56.5362
57.6046
58.6489
59.6621
60.6345
)
;
    }
    procBoundary2to5
    {
        type            processor;
        value           nonuniform List<scalar> 
34
(
47.4256
47.2689
48.2022
48.2022
47.2404
47.1701
47.1701
46.4741
46.4741
44.383
42.7814
42.7814
40.1269
37.8181
37.8181
35.1336
35.1336
31.8761
28.732
28.732
25.3879
25.3879
21.7244
18.2567
18.2567
14.892
14.892
11.2263
8.09208
8.09208
5.03918
5.03918
1.85893
1.85893
)
;
    }
}


// ************************************************************************* //
