/*--------------------------------*- C++ -*----------------------------------*\
| =========                 |                                                 |
| \\      /  F ield         | OpenFOAM: The Open Source CFD Toolbox           |
|  \\    /   O peration     | Version:  dev                                   |
|   \\  /    A nd           | Web:      www.OpenFOAM.org                      |
|    \\/     M anipulation  |                                                 |
\*---------------------------------------------------------------------------*/
FoamFile
{
    version     2.0;
    format      ascii;
    class       volVectorField;
    location    "2.62";
    object      U;
}
// * * * * * * * * * * * * * * * * * * * * * * * * * * * * * * * * * * * * * //

dimensions      [0 1 -1 0 0 0 0];

internalField   nonuniform List<vector> 
465
(
(9.93955 -1.60862e-21 0.0187719)
(9.86683 2.83388e-20 0.0262181)
(9.76671 0 0.0310898)
(9.64874 7.28929e-21 0.0359853)
(9.51829 -7.57559e-21 0.0409775)
(9.37583 7.9735e-21 0.0460237)
(9.22076 -8.27311e-21 0.0512393)
(9.05278 0 0.05677)
(8.87156 0 0.0627399)
(8.67651 1.91791e-20 0.0692637)
(8.46681 -4.49654e-20 0.0764601)
(8.24146 -2.13856e-20 0.0844587)
(7.99932 4.5055e-20 0.0934031)
(7.73904 0 0.103451)
(7.45913 5.49843e-20 0.114779)
(7.15795 -1.02039e-19 0.127586)
(6.83372 6.65939e-20 0.142095)
(6.48456 1.13835e-19 0.158539)
(6.10852 -8.80139e-20 0.177163)
(5.70368 0 0.198194)
(5.26821 6.55395e-20 0.221836)
(10.0039 -5.13557e-20 0.0368803)
(9.99161 -2.6637e-20 0.0536641)
(9.95349 0 0.0655108)
(9.89546 0 0.0778397)
(9.82207 0 0.0908319)
(9.73393 -3.17654e-20 0.104344)
(9.63064 3.2938e-20 0.118589)
(9.5121 6.93097e-20 0.133874)
(9.3781 1.86853e-20 0.150489)
(9.22815 1.97951e-20 0.168707)
(9.06154 -5.40668e-20 0.188816)
(8.87738 -9.40688e-20 0.211127)
(8.67457 9.06222e-20 0.235988)
(8.45186 -1.87112e-19 0.263776)
(8.2078 -9.0161e-21 0.294899)
(7.94076 2.18571e-20 0.329801)
(7.64899 1.96664e-19 0.368955)
(7.33053 -2.24298e-19 0.412834)
(6.98332 2.02353e-19 0.461889)
(6.60525 -6.1194e-20 0.516465)
(6.19408 -6.4416e-20 0.576708)
(10.0012 -4.47589e-20 0.0374116)
(9.98652 9.96529e-20 0.0615507)
(9.95106 6.93283e-20 0.0812488)
(9.8981 -7.23022e-20 0.101555)
(9.83099 3.0328e-20 0.123004)
(9.75039 3.16285e-20 0.145561)
(9.65604 0 0.169473)
(9.54797 -3.44914e-20 0.195137)
(9.42605 -9.04794e-20 0.223002)
(9.28988 9.38245e-20 0.253515)
(9.13887 -1.97507e-20 0.287142)
(8.97227 1.76832e-19 0.324398)
(8.78914 -1.72087e-19 0.365856)
(8.58841 -1.80137e-19 0.412147)
(8.36882 1.8899e-19 0.463965)
(8.12894 -4.99096e-20 0.522064)
(7.86718 0 0.587255)
(7.58176 4.43415e-19 0.660387)
(7.27068 -3.99795e-19 0.742296)
(6.9319 1.0361e-18 0.833742)
(6.56289 -1.13092e-18 0.935188)
(9.99931 1.08828e-19 0.0402402)
(9.98213 -1.12846e-19 0.0733856)
(9.94655 -1.38275e-19 0.102376)
(9.89477 2.89719e-20 0.131055)
(9.82908 -6.02528e-20 0.160646)
(9.75023 -6.30036e-20 0.191547)
(9.65824 0 0.224135)
(9.5532 0 0.258922)
(9.43508 3.59371e-20 0.296536)
(9.30361 1.13486e-19 0.337605)
(9.15836 1.90064e-21 0.382763)
(8.99878 -1.63385e-19 0.432714)
(8.82417 -5.38566e-21 0.488233)
(8.63372 0 0.550176)
(8.42648 -1.17744e-20 0.619488)
(8.20138 2.47763e-20 0.697215)
(7.9572 0 0.784504)
(7.69256 0 0.88258)
(7.40583 -5.70116e-20 0.992696)
(7.09533 -1.18551e-19 1.11614)
(6.75895 1.24892e-19 1.25401)
(9.9983 2.16715e-19 0.0446592)
(9.97959 6.60507e-20 0.0854002)
(9.94385 2.48404e-19 0.122407)
(9.89302 0 0.158557)
(9.82853 1.20478e-19 0.195577)
(9.75122 1.31928e-22 0.23426)
(9.66126 0 0.275106)
(9.55871 0 0.318719)
(9.44357 0 0.365844)
(9.31565 0 0.417224)
(9.17464 -2.75267e-19 0.473615)
(9.02011 6.53336e-19 0.535855)
(8.85153 -3.60727e-19 0.604871)
(8.66831 -3.59988e-19 0.681679)
(8.46974 3.83081e-19 0.767411)
(8.25501 -7.88727e-19 0.863331)
(8.02326 -1.25684e-20 0.970857)
(7.77347 1.7135e-18 1.09153)
(7.50446 -8.88625e-19 1.22696)
(7.21489 1.17396e-19 1.37889)
(6.90323 0 1.54914)
(9.9978 -3.94304e-19 0.0498644)
(9.97827 -1.1885e-19 0.0974442)
(9.94266 -8.26093e-20 0.14199)
(9.89291 -2.8653e-20 0.185623)
(9.8299 6.00917e-20 0.230148)
(9.75453 -2.50339e-19 0.276585)
(9.66699 1.29975e-19 0.325587)
(9.56726 0 0.377863)
(9.45543 0 0.43424)
(9.33138 -7.40825e-20 0.495555)
(9.19486 -7.751e-20 0.562677)
(9.04554 3.26032e-19 0.636573)
(8.88305 -3.15262e-19 0.718306)
(8.7069 3.67298e-19 0.809039)
(8.51659 -3.67295e-19 0.910061)
(8.31152 -2.40643e-20 1.02282)
(8.09104 -8.13331e-19 1.14897)
(7.85447 8.36866e-19 1.2903)
(7.60096 0 1.44876)
(7.32951 0 1.62653)
(7.03898 0 1.82604)
(9.99768 2.15743e-19 0.0554416)
(9.97778 1.31934e-20 0.109495)
(9.94251 -2.46535e-19 0.161176)
(9.89399 0 0.212077)
(9.83279 -5.98385e-20 0.263868)
(9.75976 -6.28524e-20 0.31773)
(9.67501 -9.8733e-22 0.374532)
(9.57854 -1.15564e-21 0.435107)
(9.47055 1.40617e-19 0.500341)
(9.35094 -1.48988e-19 0.571152)
(9.21953 3.44529e-19 0.648516)
(9.07609 0 0.733508)
(8.92034 -2.95473e-19 0.827309)
(8.75193 3.36664e-19 0.931209)
(8.57051 0 1.04663)
(8.3756 7.90911e-19 1.17518)
(8.16678 -7.89016e-19 1.31868)
(7.94362 0 1.47918)
(7.70551 1.6284e-18 1.65888)
(7.45179 -1.89141e-18 1.86039)
(7.18167 1.15447e-19 2.08668)
(9.99779 -2.14444e-19 0.0611544)
(9.97777 1.96172e-19 0.121466)
(9.94303 2.46071e-19 0.179909)
(9.89598 2.27519e-19 0.237753)
(9.83694 -1.1911e-19 0.296523)
(9.76654 1.23436e-19 0.35752)
(9.6849 0 0.421814)
(9.59214 -1.35111e-19 0.490346)
(9.48849 2.09615e-19 0.564052)
(9.37392 -7.32535e-20 0.643921)
(9.24826 0 0.731019)
(9.11139 -3.19666e-19 0.826516)
(8.96314 2.87945e-19 0.931687)
(8.80328 6.94986e-19 1.04794)
(8.63161 -7.15387e-19 1.17682)
(8.44778 0 1.32006)
(8.25151 -7.60954e-19 1.47969)
(8.04266 2.48947e-18 1.65792)
(7.82072 -1.51634e-18 1.85721)
(7.58538 1.09873e-19 2.08052)
(7.33636 -1.13775e-19 2.33135)
(9.998 2.01503e-19 0.0668717)
(9.97807 -2.35096e-19 0.133258)
(9.94418 -2.73334e-20 0.198092)
(9.89894 -8.9912e-22 0.262517)
(9.84235 -5.90144e-20 0.327977)
(9.77483 0 0.395829)
(9.6966 -1.27986e-19 0.467276)
(9.60793 0 0.543356)
(9.50906 6.91009e-20 0.625076)
(9.40003 1.44552e-19 0.713496)
(9.28072 7.52514e-20 0.80976)
(9.15108 0 0.915112)
(9.01105 0 1.0309)
(8.86051 0 1.15863)
(8.69943 4.40902e-20 1.29998)
(8.52753 0 1.4568)
(8.34479 -2.40232e-20 1.63124)
(8.1514 -4.98708e-20 1.82575)
(7.94684 -5.16844e-20 2.04299)
(7.73107 0 2.28616)
(7.50439 0 2.55924)
(9.99827 0 0.072503)
(9.97868 0 0.144751)
(9.94593 0 0.215597)
(9.9027 -2.25948e-19 0.286235)
(9.84878 -1.16874e-19 0.358091)
(9.78444 0 0.432504)
(9.70999 1.27599e-19 0.510735)
(9.62577 -1.32258e-19 0.593925)
(9.53208 -4.15382e-19 0.683167)
(9.42903 1.41988e-19 0.779584)
(9.31658 -7.48771e-20 0.884392)
(9.1948 0 0.998903)
(9.06363 0 1.12452)
(8.92309 -8.35157e-20 1.26281)
(8.77334 -4.3732e-20 1.41559)
(8.61422 -4.49337e-20 1.58478)
(8.4459 1.50559e-18 1.77261)
(8.26883 -1.51774e-18 1.98177)
(8.08295 -1.61092e-18 2.2152)
(7.88833 -1.43332e-20 2.47628)
(7.68538 3.38643e-18 2.76923)
(9.99853 -2.49362e-20 0.0779685)
(9.97966 -2.59199e-20 0.155826)
(9.94817 -1.60163e-22 0.232345)
(9.907 1.68417e-19 0.30884)
(9.85592 -1.15671e-19 0.386752)
(9.79507 0 0.467373)
(9.72475 0 0.551996)
(9.64533 3.95737e-19 0.641851)
(9.55719 -2.7243e-19 0.738106)
(9.46052 0 0.841932)
(9.3554 0 0.954603)
(9.24198 -1.52769e-19 1.07751)
(9.12028 0 1.21212)
(8.9904 8.28881e-20 1.36003)
(8.85264 0 1.5231)
(8.7071 1.32543e-19 1.7034)
(8.55411 -1.47092e-18 1.90318)
(8.39411 1.48035e-18 2.12521)
(8.22785 3.06018e-21 2.37282)
(8.05559 -1.60183e-18 2.64959)
(7.87787 1.57809e-18 2.95991)
(9.99886 0 0.0832004)
(9.98088 -5.14687e-20 0.166387)
(9.95083 5.34893e-20 0.248292)
(9.91182 0 0.330297)
(9.86373 4.64086e-19 0.413864)
(9.80659 -3.61818e-19 0.500281)
(9.7407 1.251e-19 0.590877)
(9.66639 0 0.686933)
(9.58418 -1.36797e-19 0.789667)
(9.49432 2.80119e-19 0.900291)
(9.3969 1.45352e-19 1.02012)
(9.29222 1.51832e-19 1.15063)
(9.18045 0 1.29334)
(9.06181 -6.52078e-19 1.44985)
(8.93664 5.85118e-19 1.62203)
(8.80534 -8.71676e-20 1.81207)
(8.66852 8.87799e-20 2.02229)
(8.5265 9.12655e-20 2.25541)
(8.38057 0 2.51503)
(8.23149 0 2.80497)
(8.08018 1.62388e-18 3.12978)
(9.99927 0 0.088149)
(9.98222 5.11801e-20 0.176365)
(9.95377 -5.31795e-20 0.263365)
(9.91715 0 0.35053)
(9.87223 -3.46467e-19 0.439338)
(9.819 4.79676e-19 0.531121)
(9.75772 -1.24097e-19 0.627242)
(9.68883 0 0.729004)
(9.61291 -1.34414e-19 0.83766)
(9.53019 -1.38525e-19 0.954459)
(9.44081 -1.44548e-19 1.08076)
(9.34516 1.48541e-19 1.21806)
(9.24365 0 1.36791)
(9.13668 6.40341e-19 1.53191)
(9.0246 -1.39756e-18 1.71197)
(8.90815 6.75885e-19 1.91031)
(8.78812 -8.777e-20 2.12934)
(8.66485 -1.70204e-18 2.37175)
(8.53986 1.64093e-18 2.64111)
(8.41477 0 2.94154)
(8.29087 0 3.27762)
(9.99972 0 0.092786)
(9.98363 0 0.185714)
(9.95693 -4.22456e-19 0.277477)
(9.92289 0 0.369437)
(9.88132 -1.1467e-19 0.46308)
(9.8321 3.55703e-19 0.559796)
(9.77558 0 0.660966)
(9.71234 2.56627e-19 0.767898)
(9.64295 -7.94931e-19 0.881883)
(9.56764 6.87368e-19 1.00421)
(9.48661 -2.83428e-19 1.13626)
(9.40037 -1.23717e-21 1.27953)
(9.30948 0 1.43554)
(9.21445 0 1.60589)
(9.11575 1.84843e-21 1.79252)
(9.01449 1.32972e-18 1.99767)
(8.91152 1.75422e-19 2.22377)
(8.80756 1.80499e-19 2.47351)
(8.7042 -3.18785e-18 2.75029)
(8.60368 1.08134e-18 3.05827)
(8.50802 0 3.40219)
(10.0002 0 0.0970954)
(9.98508 0 0.1944)
(9.96021 4.21503e-19 0.290573)
(9.92891 2.18212e-19 0.386952)
(9.8908 0 0.485033)
(9.84568 -2.36366e-19 0.586241)
(9.79415 2.45123e-19 0.691958)
(9.73677 -2.52795e-19 0.80351)
(9.67405 1.71583e-21 0.922232)
(9.60633 2.70461e-19 1.04943)
(9.53384 -2.79422e-19 1.18649)
(9.45727 2.91356e-19 1.33489)
(9.37731 -5.95616e-19 1.49609)
(9.29443 0 1.67169)
(9.20936 1.5892e-19 1.86362)
(9.12338 0 2.07406)
(9.03748 -1.6692e-19 2.30541)
(8.95304 3.35168e-19 2.5604)
(8.87182 1.20565e-18 2.84218)
(8.7961 -1.03807e-18 3.15472)
(8.72878 -3.44903e-19 3.50288)
(9.96376 0 0.30283)
(9.93541 -1.04917e-19 0.403323)
(9.901 -1.0842e-19 0.505528)
(9.86032 2.25668e-19 0.61086)
(9.81413 -2.32934e-19 0.720695)
(9.7629 2.40836e-19 0.836411)
(9.70717 2.508e-19 0.959374)
(9.64741 2.58564e-19 1.09087)
(9.58386 -7.98572e-19 1.23226)
(9.51747 9.59734e-19 1.38499)
(9.44896 -2.85637e-19 1.55047)
(9.37883 5.80029e-19 1.7303)
(9.30809 5.9718e-19 1.92632)
(9.23808 -6.0894e-19 2.14061)
(9.17002 -1.24523e-18 2.37547)
(9.10574 9.45559e-19 2.63352)
(9.04735 -9.55989e-19 2.91777)
(8.99733 1.29247e-18 3.23188)
(8.95903 3.26955e-19 3.5805)
(9.94221 0 0.418506)
(9.91166 -2.09753e-19 0.524482)
(9.87571 2.17351e-19 0.633534)
(9.83506 0 0.747035)
(9.7901 -2.34242e-19 0.866421)
(9.74167 -2.41718e-19 0.993066)
(9.69017 5.29731e-22 1.12822)
(9.63587 0 1.27319)
(9.57997 1.0369e-21 1.42936)
(9.52312 -5.40865e-19 1.5981)
(9.46603 -8.32539e-19 1.78098)
(9.4099 0 1.97972)
(9.35614 -1.16383e-18 2.19623)
(9.30628 1.18337e-18 2.43269)
(9.26227 0 2.69146)
(9.22657 0 2.97532)
(9.20209 0 3.28759)
(9.19257 0 3.63237)
(9.92285 -2.01879e-19 0.541654)
(9.89185 -2.11547e-19 0.654008)
(9.85685 2.17455e-19 0.770729)
(9.81835 0 0.893269)
(9.77746 -2.3308e-19 1.02299)
(9.73441 7.2201e-19 1.16111)
(9.68963 -2.47244e-19 1.30889)
(9.64445 -2.53117e-19 1.46761)
(9.59948 5.22879e-19 1.6386)
(9.55559 5.32984e-19 1.82334)
(9.51418 1.08905e-18 2.0234)
(9.4767 -8.33516e-19 2.24049)
(9.44496 -2.79091e-19 2.47661)
(9.42101 0 2.73382)
(9.40756 2.83622e-19 3.01449)
(9.40779 0 3.32144)
(9.42588 0 3.65804)
(9.90862 4.06619e-19 0.672009)
(9.87939 -4.51405e-22 0.791458)
(9.84757 2.17368e-19 0.916567)
(9.81436 -4.47504e-19 1.04869)
(9.77989 4.6462e-19 1.18905)
(9.7448 -1.18824e-18 1.33879)
(9.71049 9.74523e-19 1.4991)
(9.67747 4.20498e-22 1.67127)
(9.6468 4.79361e-23 1.85664)
(9.62003 -5.19925e-19 2.05657)
(9.59864 -5.28547e-19 2.27255)
(9.58466 4.66494e-21 2.50636)
(9.58028 0 2.75972)
(9.58831 -2.74172e-19 3.03447)
(9.6119 0 3.33273)
(9.65552 0 3.65701)
(9.90255 -2.03861e-19 0.808964)
(9.8776 -2.07794e-21 0.936038)
(9.85213 3.25036e-22 1.06988)
(9.82626 8.89088e-19 1.21169)
(9.80099 0 1.36251)
(9.77751 -2.32608e-19 1.52343)
(9.75634 -2.40693e-19 1.6957)
(9.73879 -2.42126e-19 1.88045)
(9.72642 4.96957e-19 2.07878)
(9.72075 5.03945e-19 2.29198)
(9.72391 1.27294e-18 2.52154)
(9.73829 -7.25338e-21 2.7688)
(9.76652 -5.23863e-19 3.03504)
(9.81159 0 3.32163)
(9.8781 0 3.6301)
(9.90821 -2.03173e-19 0.951414)
(9.8904 2.08752e-19 1.08629)
(9.87318 -8.55927e-19 1.22875)
(9.85776 -2.18276e-19 1.37974)
(9.84485 8.98091e-19 1.5403)
(9.8353 -6.86487e-19 1.71156)
(9.83067 4.66568e-19 1.89443)
(9.83222 -7.10601e-19 2.08973)
(9.84162 -1.20098e-18 2.29856)
(9.86103 9.72876e-19 2.52204)
(9.89282 1.45381e-18 2.76112)
(9.93937 -1.47493e-18 3.01656)
(10.0037 0 3.28898)
(10.09 -9.53061e-19 3.57899)
(9.92036 2.07023e-19 1.23994)
(9.91458 4.23986e-19 1.39023)
(9.91192 -6.48079e-19 1.54948)
(9.91375 2.8506e-21 1.71863)
(9.92158 -4.44028e-19 1.89836)
(9.93637 2.28559e-19 2.08929)
(9.95998 0 2.29228)
(9.9945 -4.58344e-19 2.50806)
(10.042 4.54348e-19 2.73717)
(10.1048 -4.74507e-19 2.97993)
(10.1858 0 3.23629)
(10.2885 4.52846e-19 3.506)
(9.97087 6.09002e-19 1.3938)
(9.97824 -4.14203e-19 1.5508)
(9.99112 2.12138e-19 1.71675)
(10.0107 8.56464e-19 1.89217)
(10.038 -4.30518e-19 2.07754)
(10.0748 0 2.27339)
(10.1231 8.82824e-19 2.4801)
(10.1846 -4.3868e-19 2.69784)
(10.2615 -8.29136e-21 2.9265)
(10.3564 -1.31672e-18 3.16548)
(10.4717 4.41248e-19 3.414)
(10.0666 8.04926e-19 1.70587)
(10.0972 -1.23347e-18 1.87597)
(10.1361 8.34959e-19 2.05472)
(10.1849 0 2.24231)
(10.2453 -8.44822e-19 2.43881)
(10.319 8.52543e-19 2.64411)
(10.4079 0 2.85771)
(10.5137 4.25695e-19 3.07873)
(10.6385 0 3.30606)
(10.2295 0 2.02121)
(10.289 0 2.1996)
(10.3601 0 2.38504)
(10.4441 8.02674e-19 2.57719)
(10.5425 -8.0851e-19 2.77534)
(10.6567 6.06148e-19 2.97844)
(10.7883 -4.63268e-21 3.18519)
(10.3864 -3.85635e-19 2.14595)
(10.4664 -3.88374e-19 2.31983)
(10.5588 -9.73899e-19 2.49854)
(10.6647 -1.95425e-19 2.68129)
(10.7851 0 2.86692)
(10.921 3.8074e-19 3.05402)
(10.6627 1.90944e-19 2.40971)
(10.7742 2.9155e-21 2.57738)
(10.8988 -1.87452e-19 2.74622)
(11.0372 -6.77513e-21 2.91487)
(10.9982 1.1039e-20 2.6182)
(11.1374 -3.70173e-19 2.7697)
)
;

boundaryField
{
    inlet
    {
        type            fixedValue;
        value           uniform (10 0 0);
    }
    outlet
    {
        type            zeroGradient;
    }
    flap
    {
        type            movingWallVelocity;
        value           nonuniform 0();
    }
    upperWall
    {
        type            noSlip;
    }
    lowerWall
    {
        type            noSlip;
    }
    frontAndBack
    {
        type            empty;
    }
    procBoundary3to0
    {
        type            processor;
        value           nonuniform List<vector> 
34
(
(10.0007 0 0.101134)
(9.98665 0 0.202539)
(9.98665 0 0.202539)
(9.96748 0 0.314226)
(9.96748 0 0.314226)
(9.94931 -3.91692e-19 0.4323)
(9.94931 -3.91692e-19 0.4323)
(9.93453 -4.93795e-19 0.556799)
(9.93453 -4.93795e-19 0.556799)
(9.92579 9.85823e-19 0.687307)
(9.92579 9.85823e-19 0.687307)
(9.92611 0 0.822966)
(9.92611 0 0.822966)
(9.93899 1.95466e-19 0.96245)
(9.92883 -6.00488e-19 1.09766)
(9.92883 -6.00488e-19 1.09766)
(9.9674 3.94423e-19 1.24504)
(9.9674 3.94423e-19 1.24504)
(10.0261 -3.89256e-19 1.39033)
(10.0433 3.97929e-19 1.54414)
(10.0433 3.97929e-19 1.54414)
(10.1394 1.55166e-18 1.68612)
(10.1801 -3.94453e-19 1.85001)
(10.1801 -3.94453e-19 1.85001)
(10.3175 -3.78135e-19 1.97743)
(10.3175 -3.78135e-19 1.97743)
(10.4762 -3.68343e-19 2.08225)
(10.5637 1.81427e-19 2.24437)
(10.5637 1.81427e-19 2.24437)
(10.7556 -3.54709e-19 2.31208)
(10.8711 -3.60954e-19 2.46523)
(10.8711 -3.60954e-19 2.46523)
(11.0839 -3.44181e-19 2.48439)
(11.2227 0 2.62016)
)
;
    }
    procBoundary3to1
    {
        type            processor;
        value           nonuniform List<vector> 9((9.971 9.87644e-19 3.96151) (10.2022 -9.59198e-19 3.88648) (10.4157 0 3.78823) (10.6098 8.51351e-19 3.67079) (10.784 -4.17745e-19 3.53815) (10.9383 0 3.39386) (11.0733 0 3.24089) (11.1897 3.63473e-19 3.08169) (11.2887 -3.56533e-19 2.9183));
    }
    procBoundary3to4
    {
        type            processor;
        value           nonuniform List<vector> 
19
(
(4.80056 -6.88147e-20 0.248287)
(5.7477 -4.77025e-19 0.642605)
(6.16088 0 1.04678)
(6.39371 7.89396e-19 1.40702)
(6.56696 2.5544e-19 1.73922)
(6.72751 2.46117e-19 2.0497)
(6.89385 -2.17995e-18 2.34099)
(7.07283 0 2.61363)
(7.26653 1.11492e-19 2.86686)
(7.47451 1.61807e-18 3.09926)
(7.69563 3.33177e-18 3.30929)
(7.92848 1.59261e-18 3.4953)
(8.17078 0 3.65548)
(8.42004 3.5961e-19 3.78822)
(8.67318 1.37622e-18 3.8927)
(8.93673 -9.66541e-19 3.96925)
(9.20301 -3.50002e-20 4.01446)
(9.46729 -5.71218e-19 4.02794)
(9.72471 0 4.00968)
)
;
    }
}


// ************************************************************************* //
