/*--------------------------------*- C++ -*----------------------------------*\
| =========                 |                                                 |
| \\      /  F ield         | OpenFOAM: The Open Source CFD Toolbox           |
|  \\    /   O peration     | Version:  dev                                   |
|   \\  /    A nd           | Web:      www.OpenFOAM.org                      |
|    \\/     M anipulation  |                                                 |
\*---------------------------------------------------------------------------*/
FoamFile
{
    version     2.0;
    format      ascii;
    class       volVectorField;
    location    "3.72";
    object      cellDisplacement;
}
// * * * * * * * * * * * * * * * * * * * * * * * * * * * * * * * * * * * * * //

dimensions      [0 1 0 0 0 0 0];

internalField   nonuniform List<vector> 
2790
(
(0.000743008 0 -2.0834e-06)
(0.00214414 0 -6.04184e-06)
(0.00339013 0 -9.64591e-06)
(0.00449923 0 -1.29807e-05)
(0.00548747 0 -1.61107e-05)
(0.00636888 0 -1.90823e-05)
(0.00715569 0 -2.19251e-05)
(0.0078585 0 -2.46523e-05)
(0.00848647 0 -2.72596e-05)
(0.00904735 0 -2.97228e-05)
(0.00954749 0 -3.19935e-05)
(0.00999184 0 -3.39926e-05)
(0.0103838 0 -3.56024e-05)
(0.010725 0 -3.66541e-05)
(0.0110151 0 -3.69128e-05)
(0.0112516 0 -3.6058e-05)
(0.0114288 0 -3.36585e-05)
(0.011538 0 -2.91427e-05)
(0.0115665 0 -2.17636e-05)
(0.0114973 0 -1.05599e-05)
(0.0113086 0 5.68442e-06)
(0.010974 0 2.84755e-05)
(0.0104641 0 5.964e-05)
(0.0097486 0 0.000101322)
(0.00880167 0 0.000155935)
(0.00761101 0 0.000226005)
(0.0061933 0 0.000313756)
(0.00462114 0 0.000419908)
(0.00307548 0 0.000539742)
(0.00198801 0 0.000648664)
(0.000742417 0 -6.24445e-06)
(0.00214244 0 -1.81094e-05)
(0.00338746 0 -2.89134e-05)
(0.00449568 0 -3.89116e-05)
(0.00548312 0 -4.82978e-05)
(0.0063638 0 -5.72117e-05)
(0.00714996 0 -6.57434e-05)
(0.00785223 0 -7.39342e-05)
(0.00847982 0 -8.1774e-05)
(0.00904055 0 -8.91941e-05)
(0.00954091 0 -9.60549e-05)
(0.009986 0 -0.000102128)
(0.0103795 0 -0.000107073)
(0.0107234 0 -0.000110401)
(0.011018 0 -0.000111432)
(0.0112614 0 -0.000109241)
(0.0114491 0 -0.000102583)
(0.0115739 0 -8.98127e-05)
(0.0116251 0 -6.87856e-05)
(0.0115882 0 -3.67499e-05)
(0.0114449 0 9.75889e-06)
(0.0111732 0 7.50028e-05)
(0.0107488 0 0.000164094)
(0.0101479 0 0.000282921)
(0.00935197 0 0.000437872)
(0.00835715 0 0.000635113)
(0.00718939 0 0.000878829)
(0.00593027 0 0.00116677)
(0.00476063 0 0.00147815)
(0.00404741 0 0.00173784)
(0.000741199 0 -1.0387e-05)
(0.00213895 0 -3.01248e-05)
(0.00338197 0 -4.8101e-05)
(0.00448838 0 -6.47405e-05)
(0.00547418 0 -8.03676e-05)
(0.00635338 0 -9.5217e-05)
(0.00713821 0 -0.000109442)
(0.00783938 0 -0.000123118)
(0.00846617 0 -0.000136237)
(0.00902655 0 -0.000148696)
(0.00952722 0 -0.000160283)
(0.00997364 0 -0.000170645)
(0.01037 0 -0.000179253)
(0.010719 0 -0.000185351)
(0.0110219 0 -0.000187887)
(0.0112783 0 -0.000185432)
(0.0114859 0 -0.000176074)
(0.0116399 0 -0.000157294)
(0.0117335 0 -0.000125824)
(0.0117572 0 -7.75033e-05)
(0.0116989 0 -7.13823e-06)
(0.0115445 0 9.15714e-05)
(0.0112794 0 0.000226021)
(0.0108908 0 0.000404412)
(0.0103722 0 0.000635009)
(0.00973149 0 0.000924464)
(0.00900222 0 0.0012742)
(0.00826102 0 0.00167264)
(0.00764687 0 0.00207816)
(0.0073848 0 0.00238149)
(0.000739386 0 -1.44959e-05)
(0.00213375 0 -4.20446e-05)
(0.00337377 0 -6.71401e-05)
(0.00447747 0 -9.03774e-05)
(0.0054608 0 -0.000112212)
(0.00633775 0 -0.000132976)
(0.00712058 0 -0.000152892)
(0.00782003 0 -0.000172076)
(0.00844553 0 -0.000190533)
(0.00900522 0 -0.000208148)
(0.00950613 0 -0.00022466)
(0.00995416 0 -0.000239631)
(0.0103542 0 -0.000252399)
(0.0107099 0 -0.00026202)
(0.0110239 0 -0.000267183)
(0.0112978 0 -0.000266114)
(0.0115318 0 -0.000256452)
(0.0117251 0 -0.000235109)
(0.0118756 0 -0.000198114)
(0.0119803 0 -0.00014046)
(0.0120353 0 -5.59922e-05)
(0.0120369 0 6.26083e-05)
(0.0119825 0 0.000223657)
(0.0118728 0 0.000435869)
(0.0117146 0 0.000707035)
(0.0115253 0 0.00104138)
(0.011338 0 0.0014345)
(0.011205 0 0.00186416)
(0.0111919 0 0.00227424)
(0.0113568 0 0.00254899)
(0.000736998 0 -1.85541e-05)
(0.00212688 0 -5.38191e-05)
(0.00336292 0 -8.59519e-05)
(0.00446301 0 -0.000115717)
(0.00544305 0 -0.000143701)
(0.00631697 0 -0.000170339)
(0.00709706 0 -0.000195927)
(0.00779414 0 -0.000220632)
(0.00841774 0 -0.000244489)
(0.00897625 0 -0.000267389)
(0.00947705 0 -0.000289059)
(0.00992656 0 -0.000309023)
(0.0103304 0 -0.000326557)
(0.0106934 0 -0.000340625)
(0.0110198 0 -0.000349795)
(0.0113133 0 -0.000352142)
(0.0115773 0 -0.000345125)
(0.0118148 0 -0.000325452)
(0.0120293 0 -0.000288943)
(0.0122248 0 -0.000230407)
(0.0124065 0 -0.000143587)
(0.0125815 0 -2.12565e-05)
(0.0127599 0 0.000144451)
(0.0129557 0 0.000361147)
(0.013187 0 0.00063443)
(0.0134765 0 0.000964718)
(0.0138474 0 0.00134187)
(0.0143131 0 0.00173688)
(0.014851 0 0.00209071)
(0.0153583 0 0.00230287)
(0.000734055 0 -2.25429e-05)
(0.0021184 0 -6.53936e-05)
(0.00334949 0 -0.000104449)
(0.00444509 0 -0.00014064)
(0.00542099 0 -0.000174689)
(0.00629109 0 -0.000207133)
(0.00706769 0 -0.000238348)
(0.00776166 0 -0.000268565)
(0.00838266 0 -0.000297865)
(0.00893932 0 -0.000326171)
(0.00943936 0 -0.000353232)
(0.00988974 0 -0.000378587)
(0.0102969 0 -0.000401525)
(0.0106667 0 -0.000421024)
(0.011005 0 -0.000435679)
(0.0113177 0 -0.000443615)
(0.011611 0 -0.000442389)
(0.011892 0 -0.000428883)
(0.0121693 0 -0.000399203)
(0.0124537 0 -0.000348623)
(0.0127585 0 -0.000271599)
(0.013101 0 -0.000161976)
(0.0135021 0 -1.34414e-05)
(0.0139869 0 0.000179438)
(0.0145818 0 0.000419359)
(0.0153095 0 0.000703234)
(0.0161772 0 0.00101764)
(0.0171543 0 0.00133299)
(0.0181333 0 0.00159829)
(0.0188783 0 0.00174045)
(0.00073058 0 -2.64422e-05)
(0.00210837 0 -7.671e-05)
(0.00333357 0 -0.000122536)
(0.0044238 0 -0.000165019)
(0.00539473 0 -0.000205013)
(0.00626022 0 -0.000243161)
(0.00703254 0 -0.000279928)
(0.00772261 0 -0.000315616)
(0.00834021 0 -0.000350367)
(0.00889414 0 -0.000384163)
(0.00939247 0 -0.00041681)
(0.00984264 0 -0.000447915)
(0.0102517 0 -0.000476849)
(0.0106268 0 -0.000502705)
(0.0109748 0 -0.000524242)
(0.0113036 0 -0.000539826)
(0.011622 0 -0.00054736)
(0.0119402 0 -0.000544231)
(0.0122712 0 -0.000527264)
(0.0126308 0 -0.000492731)
(0.0130392 0 -0.000436445)
(0.0135207 0 -0.000354033)
(0.0141045 0 -0.000241416)
(0.0148227 0 -9.57774e-05)
(0.0157061 0 8.28676e-05)
(0.0167739 0 0.000289352)
(0.0180164 0 0.000510339)
(0.0193642 0 0.000721415)
(0.0206431 0 0.000886524)
(0.0215256 0 0.000963518)
(0.000726594 0 -3.02316e-05)
(0.00209685 0 -8.77079e-05)
(0.00331525 0 -0.000140117)
(0.00439924 0 -0.000188719)
(0.0053644 0 -0.000234502)
(0.00622448 0 -0.000278216)
(0.00699172 0 -0.000320419)
(0.00767706 0 -0.000361491)
(0.00829034 0 -0.000401653)
(0.00884053 0 -0.000440966)
(0.00933593 0 -0.000479324)
(0.00978437 0 -0.000516445)
(0.0101935 0 -0.000551845)
(0.010571 0 -0.000584814)
(0.0109251 0 -0.000614389)
(0.0112648 0 -0.000639321)
(0.0116007 0 -0.000658058)
(0.0119452 0 -0.000668734)
(0.012314 0 -0.000669194)
(0.0127261 0 -0.000657065)
(0.0132052 0 -0.00062991)
(0.0137797 0 -0.000585508)
(0.0144826 0 -0.000522254)
(0.0153487 0 -0.000439852)
(0.016409 0 -0.000340285)
(0.0176785 0 -0.000229006)
(0.0191346 0 -0.000116149)
(0.020683 0 -1.69229e-05)
(0.0221109 0 5.06108e-05)
(0.0230463 0 7.32219e-05)
(0.00072212 0 -3.38904e-05)
(0.00208389 0 -9.83268e-05)
(0.00329462 0 -0.000157092)
(0.00437156 0 -0.000211605)
(0.00533014 0 -0.000262982)
(0.00618403 0 -0.000312084)
(0.00694539 0 -0.00035956)
(0.00762514 0 -0.00040588)
(0.00823314 0 -0.000451352)
(0.00877844 0 -0.00049613)
(0.0092695 0 -0.000540225)
(0.00971438 0 -0.000583494)
(0.0101211 0 -0.000625644)
(0.0104977 0 -0.000666222)
(0.010853 0 -0.000704612)
(0.0111968 0 -0.000740049)
(0.0115404 0 -0.000771633)
(0.0118971 0 -0.000798379)
(0.0122834 0 -0.000819293)
(0.0127191 0 -0.0008335)
(0.0132284 0 -0.00084042)
(0.0138394 0 -0.00084002)
(0.0145843 0 -0.000833044)
(0.0154962 0 -0.000821301)
(0.016603 0 -0.00080787)
(0.0179157 0 -0.000796998)
(0.0194069 0 -0.000793521)
(0.0209769 0 -0.000801361)
(0.0224087 0 -0.000820338)
(0.0233309 0 -0.000839707)
(0.00071718 0 -3.73986e-05)
(0.00206957 0 -0.000108508)
(0.00327177 0 -0.000173365)
(0.00434087 0 -0.000233544)
(0.00529212 0 -0.000290284)
(0.00613906 0 -0.000344553)
(0.00689376 0 -0.000397094)
(0.00756706 0 -0.000448469)
(0.00816879 0 -0.000499077)
(0.00870801 0 -0.000549181)
(0.00919321 0 -0.000598917)
(0.00963252 0 -0.000648305)
(0.010034 0 -0.000697262)
(0.010406 0 -0.000745619)
(0.0107572 0 -0.000793143)
(0.0110975 0 -0.000839576)
(0.0114379 0 -0.000884698)
(0.0117915 0 -0.000928408)
(0.0121735 0 -0.000970853)
(0.0126023 0 -0.00101258)
(0.0130992 0 -0.00105471)
(0.0136885 0 -0.00109915)
(0.0143969 0 -0.0011486)
(0.0152513 0 -0.00120646)
(0.0162736 0 -0.00127627)
(0.0174719 0 -0.00136039)
(0.0188229 0 -0.00145777)
(0.0202428 0 -0.00156097)
(0.0215452 0 -0.00165298)
(0.0224013 0 -0.00170445)
(0.000711792 0 -4.07372e-05)
(0.00205394 0 -0.000118196)
(0.00324682 0 -0.000188848)
(0.00430732 0 -0.000254412)
(0.00525053 0 -0.000316246)
(0.0060898 0 -0.00037542)
(0.00683709 0 -0.00043277)
(0.00750311 0 -0.000488948)
(0.00809762 0 -0.00054445)
(0.00862957 0 -0.000599644)
(0.00910738 0 -0.000654798)
(0.0095391 0 -0.000710096)
(0.00993265 0 -0.000765671)
(0.0102961 0 -0.000821632)
(0.0106379 0 -0.000878113)
(0.0109671 0 -0.000935337)
(0.0112939 0 -0.000993698)
(0.0116296 0 -0.00105388)
(0.0119871 0 -0.00111699)
(0.0123809 0 -0.00118474)
(0.0128271 0 -0.00125958)
(0.013343 0 -0.00134488)
(0.0139464 0 -0.00144475)
(0.0146542 0 -0.00156367)
(0.0154794 0 -0.00170541)
(0.0164265 0 -0.0018708)
(0.0174819 0 -0.00205415)
(0.0185955 0 -0.00223859)
(0.0196444 0 -0.00239262)
(0.0203818 0 -0.00247135)
(0.000705975 0 -4.38887e-05)
(0.00203705 0 -0.000127339)
(0.00321987 0 -0.000203456)
(0.00427107 0 -0.000274093)
(0.00520555 0 -0.000340718)
(0.0060365 0 -0.000404498)
(0.00677568 0 -0.000466358)
(0.00743367 0 -0.000527033)
(0.00802005 0 -0.000587111)
(0.00854363 0 -0.000647066)
(0.00901263 0 -0.000707287)
(0.00943486 0 -0.000768115)
(0.00981791 0 -0.000829875)
(0.0101693 0 -0.000892928)
(0.0104968 0 -0.000957723)
(0.0108084 0 -0.00102488)
(0.0111126 0 -0.00109528)
(0.0114181 0 -0.00117019)
(0.0117345 0 -0.00125141)
(0.0120712 0 -0.00134142)
(0.0124378 0 -0.00144349)
(0.0128425 0 -0.00156178)
(0.0132923 0 -0.00170114)
(0.0137914 0 -0.00186659)
(0.0143409 0 -0.00206219)
(0.0149386 0 -0.00228845)
(0.0155795 0 -0.00253801)
(0.0162531 0 -0.00278909)
(0.0169238 0 -0.00299913)
(0.0174734 0 -0.00310693)
(0.000699745 0 -4.68373e-05)
(0.00201898 0 -0.000135891)
(0.00319101 0 -0.000217116)
(0.00423226 0 -0.000292485)
(0.00515741 0 -0.00036357)
(0.00597944 0 -0.000431623)
(0.0067099 0 -0.000497649)
(0.00735917 0 -0.000562464)
(0.00793664 0 -0.000626739)
(0.00845089 0 -0.000691038)
(0.00890984 0 -0.000755861)
(0.00932096 0 -0.000821678)
(0.00969135 0 -0.000888977)
(0.0100279 0 -0.000958315)
(0.0103372 0 -0.00103038)
(0.0106261 0 -0.00110607)
(0.0109008 0 -0.00118658)
(0.0111675 0 -0.00127353)
(0.0114316 0 -0.00136907)
(0.0116976 0 -0.00147597)
(0.0119678 0 -0.00159773)
(0.0122417 0 -0.00173858)
(0.0125151 0 -0.00190327)
(0.0127793 0 -0.0020967)
(0.0130215 0 -0.00232297)
(0.0132279 0 -0.00258354)
(0.0133924 0 -0.00287336)
(0.0135307 0 -0.00317327)
(0.0136947 0 -0.00343731)
(0.013947 0 -0.00358367)
(0.000693116 0 -4.9569e-05)
(0.00199976 0 -0.000143811)
(0.00316033 0 -0.000229763)
(0.00419105 0 -0.000309502)
(0.00510632 0 -0.000384688)
(0.00591889 0 -0.000456652)
(0.0066401 0 -0.000526469)
(0.00728009 0 -0.000595024)
(0.00784801 0 -0.000663057)
(0.00835214 0 -0.000731212)
(0.00880009 0 -0.000800072)
(0.00919886 0 -0.00087021)
(0.00955498 0 -0.000942229)
(0.00987453 0 -0.00101682)
(0.0101631 0 -0.0010948)
(0.0104259 0 -0.00117724)
(0.0106672 0 -0.00126546)
(0.0108904 0 -0.00136117)
(0.0110975 0 -0.00146651)
(0.011288 0 -0.00158412)
(0.0114584 0 -0.00171713)
(0.0116008 0 -0.00186913)
(0.0117022 0 -0.00204388)
(0.0117435 0 -0.00224509)
(0.0116998 0 -0.00247597)
(0.011544 0 -0.00273857)
(0.0112559 0 -0.00303247)
(0.0108464 0 -0.00335041)
(0.0104055 0 -0.00366221)
(0.010186 0 -0.00387237)
(0.000686096 0 -5.20718e-05)
(0.00197944 0 -0.000151063)
(0.00312793 0 -0.000241344)
(0.00414757 0 -0.000325069)
(0.00505248 0 -0.000403979)
(0.00585515 0 -0.000479468)
(0.00656668 0 -0.000552672)
(0.00719696 0 -0.000624533)
(0.00775484 0 -0.000695845)
(0.00824831 0 -0.000767309)
(0.00868458 0 -0.000839572)
(0.00907019 0 -0.000913267)
(0.00941107 0 -0.000989064)
(0.00971249 0 -0.00106772)
(0.00997901 0 -0.0011501)
(0.0102144 0 -0.00123729)
(0.0104211 0 -0.00133057)
(0.0106004 0 -0.00143152)
(0.0107512 0 -0.001542)
(0.0108697 0 -0.00166413)
(0.0109485 0 -0.00180021)
(0.0109751 0 -0.00195259)
(0.010932 0 -0.0021233)
(0.0107953 0 -0.00231369)
(0.0105355 0 -0.00252419)
(0.0101192 0 -0.00275422)
(0.00951499 0 -0.00300335)
(0.00870903 0 -0.0032757)
(0.00774603 0 -0.00358266)
(0.00692659 0 -0.00388991)
(0.00210573 0 -0.000685402)
(0.00342963 0 -0.000613373)
(0.00524962 0 -0.000508969)
(0.00707962 0 -0.000405802)
(0.00869393 0 -0.000315258)
(0.0100134 0 -0.000240312)
(0.0110321 0 -0.000180432)
(0.0117775 0 -0.000133733)
(0.0122886 0 -9.79582e-05)
(0.0126059 0 -7.09369e-05)
(0.0127658 0 -5.07678e-05)
(0.0127989 0 -3.58669e-05)
(0.0127295 0 -2.49615e-05)
(0.0125764 0 -1.70535e-05)
(0.0123529 0 -1.13734e-05)
(0.0120683 0 -7.33608e-06)
(0.0117281 0 -4.50119e-06)
(0.0113349 0 -2.54035e-06)
(0.0108889 0 -1.21049e-06)
(0.0103881 0 -3.32887e-07)
(0.00982877 0 2.22985e-07)
(0.00920559 0 5.51794e-07)
(0.00851175 0 7.21626e-07)
(0.00773907 0 7.80909e-07)
(0.00687791 0 7.63555e-07)
(0.00591717 0 6.92742e-07)
(0.00484416 0 5.83677e-07)
(0.00364443 0 4.45623e-07)
(0.00230158 0 2.83381e-07)
(0.000796746 0 9.84164e-08)
(0.00406251 0 -0.00189494)
(0.00512687 0 -0.00170718)
(0.00661266 0 -0.00142873)
(0.00813021 0 -0.00114677)
(0.00948122 0 -0.000895439)
(0.0105903 0 -0.000685264)
(0.0114465 0 -0.00051614)
(0.0120695 0 -0.000383538)
(0.0124902 0 -0.000281535)
(0.0127419 0 -0.000204228)
(0.0128549 0 -0.000146361)
(0.0128549 0 -0.000103505)
(0.0127627 0 -7.20744e-05)
(0.0125939 0 -4.92419e-05)
(0.01236 0 -3.28173e-05)
(0.0120686 0 -2.11286e-05)
(0.0117242 0 -1.29138e-05)
(0.0113285 0 -7.22893e-06)
(0.0108812 0 -3.37347e-06)
(0.0103799 0 -8.31186e-07)
(0.00982051 0 7.75768e-07)
(0.00919767 0 1.72191e-06)
(0.00850441 0 2.20496e-06)
(0.00773244 0 2.36574e-06)
(0.0068721 0 2.30294e-06)
(0.00591226 0 2.08401e-06)
(0.00484021 0 1.75315e-06)
(0.00364151 0 1.33718e-06)
(0.00229977 0 8.49835e-07)
(0.00079613 0 2.95031e-07)
(0.00730101 0 -0.00272466)
(0.00803308 0 -0.00247737)
(0.00900768 0 -0.00209797)
(0.0100067 0 -0.00170135)
(0.0109025 0 -0.00133977)
(0.0116392 0 -0.00103248)
(0.0122038 0 -0.000782182)
(0.0126048 0 -0.000584056)
(0.0128605 0 -0.000430464)
(0.0129917 0 -0.000313302)
(0.0130183 0 -0.000225118)
(0.0129572 0 -0.000159498)
(0.0128226 0 -0.000111175)
(0.0126248 0 -7.59456e-05)
(0.0123715 0 -5.05276e-05)
(0.0120676 0 -3.23955e-05)
(0.0117153 0 -1.96303e-05)
(0.011315 0 -1.07885e-05)
(0.0108652 0 -4.79312e-06)
(0.010363 0 -8.46948e-07)
(0.00980373 0 1.63599e-06)
(0.00918161 0 3.08297e-06)
(0.00848951 0 3.8027e-06)
(0.00771899 0 4.01558e-06)
(0.0068603 0 3.87628e-06)
(0.00590227 0 3.49052e-06)
(0.00483217 0 2.92743e-06)
(0.00363558 0 2.2286e-06)
(0.00229609 0 1.41477e-06)
(0.000794874 0 4.90849e-07)
(0.0112253 0 -0.00312937)
(0.0115787 0 -0.00286103)
(0.0119715 0 -0.00244826)
(0.0123612 0 -0.00200728)
(0.0127061 0 -0.00159681)
(0.0129823 0 -0.00124171)
(0.0131797 0 -0.000948117)
(0.0132979 0 -0.000712781)
(0.013341 0 -0.000528375)
(0.0133158 0 -0.000386402)
(0.0132294 0 -0.000278678)
(0.0130881 0 -0.000197953)
(0.0128975 0 -0.000138138)
(0.0126614 0 -9.43001e-05)
(0.0123826 0 -6.25297e-05)
(0.012062 0 -3.9786e-05)
(0.0116993 0 -2.37348e-05)
(0.0112931 0 -1.26043e-05)
(0.0108404 0 -5.06214e-06)
(0.0103371 0 -1.14694e-07)
(0.00977824 0 2.97298e-06)
(0.00915737 0 4.73982e-06)
(0.00846709 0 5.57704e-06)
(0.00769878 0 5.76496e-06)
(0.00684259 0 5.50071e-06)
(0.00588728 0 4.91905e-06)
(0.00482011 0 4.10767e-06)
(0.00362665 0 3.11861e-06)
(0.00229055 0 1.97656e-06)
(0.000792982 0 6.85213e-07)
(0.0152369 0 -0.00312258)
(0.0152041 0 -0.00286501)
(0.0150283 0 -0.00247456)
(0.0148165 0 -0.00205173)
(0.0146072 0 -0.00165084)
(0.0144107 0 -0.00129756)
(0.014225 0 -0.00100046)
(0.0140434 0 -0.000758648)
(0.0138586 0 -0.000566566)
(0.013664 0 -0.000416881)
(0.0134542 0 -0.000302076)
(0.0132247 0 -0.000215221)
(0.0129723 0 -0.000150324)
(0.0126938 0 -0.000102415)
(0.0123866 0 -6.74865e-05)
(0.0120477 0 -4.2365e-05)
(0.0116739 0 -2.45812e-05)
(0.0112613 0 -1.22361e-05)
(0.0108056 0 -3.8853e-06)
(0.0103018 0 1.55963e-06)
(0.00974376 0 4.91102e-06)
(0.00912479 0 6.76926e-06)
(0.00843708 0 7.57304e-06)
(0.0076718 0 7.63822e-06)
(0.00681897 0 7.18755e-06)
(0.00586729 0 6.37317e-06)
(0.00480402 0 5.2934e-06)
(0.00361474 0 4.00517e-06)
(0.00228314 0 2.53331e-06)
(0.000790447 0 8.77361e-07)
(0.0188078 0 -0.00275362)
(0.0184257 0 -0.00253703)
(0.0177609 0 -0.00221369)
(0.0170316 0 -0.00185896)
(0.0163388 0 -0.00151587)
(0.0157227 0 -0.00120707)
(0.0151908 0 -0.000941988)
(0.0147343 0 -0.000722076)
(0.0143375 0 -0.00054431)
(0.0139835 0 -0.000403563)
(0.0136563 0 -0.000294062)
(0.0133424 0 -0.000210161)
(0.0130304 0 -0.000146766)
(0.0127111 0 -9.95182e-05)
(0.0123766 0 -6.48012e-05)
(0.0120202 0 -3.9686e-05)
(0.0116359 0 -2.18444e-05)
(0.0112178 0 -9.45354e-06)
(0.01076 0 -1.10387e-06)
(0.0102563 0 4.28179e-06)
(0.00969995 0 7.51764e-06)
(0.0090837 0 9.21191e-06)
(0.00839941 0 9.81291e-06)
(0.00763803 0 9.64545e-06)
(0.00678945 0 8.93934e-06)
(0.00584232 0 7.8512e-06)
(0.00478391 0 6.48103e-06)
(0.00359984 0 4.8845e-06)
(0.00227386 0 3.0822e-06)
(0.000787264 0 1.06625e-06)
(0.0215146 0 -0.00209885)
(0.0208684 0 -0.00195131)
(0.0198462 0 -0.00172875)
(0.0187372 0 -0.00147756)
(0.017684 0 -0.00122687)
(0.0167493 0 -0.000994152)
(0.0159497 0 -0.000788469)
(0.0152765 0 -0.000613151)
(0.0147098 0 -0.000467874)
(0.014226 0 -0.000350234)
(0.0138022 0 -0.000256851)
(0.013418 0 -0.000184019)
(0.0130562 0 -0.000128134)
(0.0127026 0 -8.59432e-05)
(0.0123454 0 -5.46232e-05)
(0.0119749 0 -3.18017e-05)
(0.0115825 0 -1.55317e-05)
(0.0111607 0 -4.24608e-06)
(0.0107023 0 3.29603e-06)
(0.0102 0 8.06271e-06)
(0.00964647 0 1.07987e-05)
(0.00903397 0 1.20686e-05)
(0.00835404 0 1.22934e-05)
(0.00759748 0 1.17806e-05)
(0.00675405 0 1.07486e-05)
(0.00581241 0 9.3453e-06)
(0.00475982 0 7.66331e-06)
(0.00358197 0 5.75072e-06)
(0.00226271 0 3.61935e-06)
(0.000783433 0 1.25051e-06)
(0.0230748 0 -0.00126465)
(0.0222859 0 -0.00120288)
(0.0210705 0 -0.00109901)
(0.0197509 0 -0.00097026)
(0.0184919 0 -0.000831347)
(0.0173697 0 -0.000693546)
(0.0164074 0 -0.000564551)
(0.0155987 0 -0.000448935)
(0.0149227 0 -0.000348826)
(0.0143534 0 -0.000264596)
(0.0138646 0 -0.000195491)
(0.0134325 0 -0.000140057)
(0.0130364 0 -9.65094e-05)
(0.0126594 0 -6.30036e-05)
(0.0122872 0 -3.77744e-05)
(0.0119079 0 -1.92237e-05)
(0.0115113 0 -5.96103e-06)
(0.0110887 0 3.18754e-06)
(0.0106317 0 9.18841e-06)
(0.0101324 0 1.28204e-05)
(0.00958308 0 1.46988e-05)
(0.00897548 0 1.53e-05)
(0.00830096 0 1.49853e-05)
(0.00755017 0 1.40211e-05)
(0.00671284 0 1.25973e-05)
(0.0057776 0 1.08411e-05)
(0.00473178 0 8.82904e-06)
(0.00356116 0 6.59564e-06)
(0.0022497 0 4.13966e-06)
(0.000778958 0 1.42839e-06)
(0.0233644 0 -0.000371492)
(0.022566 0 -0.00039498)
(0.021331 0 -0.000409409)
(0.0199806 0 -0.000404981)
(0.0186828 0 -0.000382113)
(0.0175171 0 -0.000345184)
(0.0165101 0 -0.000299641)
(0.0156585 0 -0.000250574)
(0.0149438 0 -0.000202056)
(0.0143413 0 -0.000156948)
(0.0138255 0 -0.000116998)
(0.0133727 0 -8.29962e-05)
(0.0129619 0 -5.50358e-05)
(0.0125752 0 -3.27762e-05)
(0.0121976 0 -1.56177e-05)
(0.0118163 0 -2.84286e-06)
(0.0114204 0 6.28626e-06)
(0.0110004 0 1.24673e-05)
(0.0105474 0 1.63235e-05)
(0.0100533 0 1.83891e-05)
(0.00950964 0 1.91061e-05)
(0.00890823 0 1.88295e-05)
(0.00824022 0 1.78347e-05)
(0.0074962 0 1.63282e-05)
(0.00666589 0 1.44571e-05)
(0.00573798 0 1.23177e-05)
(0.00469986 0 9.963e-06)
(0.00353745 0 7.40871e-06)
(0.00223487 0 4.63682e-06)
(0.000773847 0 1.59774e-06)
(0.0224054 0 0.000470875)
(0.0217192 0 0.000377177)
(0.0206284 0 0.000260221)
(0.0194211 0 0.000152922)
(0.0182478 0 6.86999e-05)
(0.0171808 0 1.04931e-05)
(0.0162464 0 -2.42789e-05)
(0.0154448 0 -4.05767e-05)
(0.0147627 0 -4.38122e-05)
(0.0141807 0 -3.88126e-05)
(0.0136776 0 -2.94257e-05)
(0.013233 0 -1.8397e-05)
(0.0128283 0 -7.51395e-06)
(0.0124468 0 2.16193e-06)
(0.0120744 0 1.01102e-05)
(0.0116987 0 1.61758e-05)
(0.0113089 0 2.04306e-05)
(0.0108954 0 2.30718e-05)
(0.0104494 0 2.43521e-05)
(0.0099624 0 2.45338e-05)
(0.00942619 0 2.38617e-05)
(0.00883231 0 2.2548e-05)
(0.00817195 0 2.07661e-05)
(0.0074357 0 1.86489e-05)
(0.00661335 0 1.62904e-05)
(0.00569366 0 1.37482e-05)
(0.00466416 0 1.10463e-05)
(0.00351092 0 8.17722e-06)
(0.00221824 0 5.10336e-06)
(0.000768115 0 1.75609e-06)
(0.0203369 0 0.00117947)
(0.0198598 0 0.00103771)
(0.0190566 0 0.000842798)
(0.0181483 0 0.000646268)
(0.017246 0 0.000474164)
(0.0164043 0 0.000336296)
(0.0156462 0 0.00023293)
(0.0149769 0 0.000159588)
(0.0143912 0 0.000110112)
(0.0138782 0 7.83776e-05)
(0.0134243 0 5.90627e-05)
(0.013015 0 4.79776e-05)
(0.012636 0 4.20258e-05)
(0.0122742 0 3.90148e-05)
(0.0119175 0 3.74826e-05)
(0.0115549 0 3.65115e-05)
(0.0111767 0 3.557e-05)
(0.0107738 0 3.43867e-05)
(0.0103376 0 3.28558e-05)
(0.00986008 0 3.09694e-05)
(0.00933296 0 2.87703e-05)
(0.00874796 0 2.63216e-05)
(0.00809637 0 2.36868e-05)
(0.00736888 0 2.09186e-05)
(0.00655538 0 1.80519e-05)
(0.00564479 0 1.51009e-05)
(0.0046248 0 1.20568e-05)
(0.00348165 0 8.88658e-06)
(0.00219989 0 5.53083e-06)
(0.000761782 0 1.90062e-06)
(0.017382 0 0.00170212)
(0.0171894 0 0.00153341)
(0.016796 0 0.0012869)
(0.0163162 0 0.00102903)
(0.0158008 0 0.000795656)
(0.0152808 0 0.000601263)
(0.0147769 0 0.000447913)
(0.0143017 0 0.000331592)
(0.0138609 0 0.000245982)
(0.0134547 0 0.000184464)
(0.0130789 0 0.000141038)
(0.012727 0 0.00011075)
(0.0123906 0 8.9728e-05)
(0.0120609 0 7.50418e-05)
(0.0117291 0 6.45658e-05)
(0.0113866 0 5.68088e-05)
(0.011025 0 5.07596e-05)
(0.0106364 0 4.57558e-05)
(0.0102129 0 4.13805e-05)
(0.00974682 0 3.73818e-05)
(0.00923041 0 3.36149e-05)
(0.00865559 0 2.99998e-05)
(0.00801384 0 2.64923e-05)
(0.00729603 0 2.30643e-05)
(0.00649225 0 1.96906e-05)
(0.00559159 0 1.63403e-05)
(0.00458193 0 1.29703e-05)
(0.00344977 0 9.52083e-06)
(0.00217989 0 5.91006e-06)
(0.000754873 0 2.02832e-06)
(0.0138336 0 0.00201035)
(0.0139978 0 0.00182913)
(0.0141179 0 0.00155497)
(0.0141553 0 0.00126718)
(0.0140939 0 0.00100512)
(0.013946 0 0.000783203)
(0.0137358 0 0.000603372)
(0.0134871 0 0.000462029)
(0.0132184 0 0.00035346)
(0.0129415 0 0.000271536)
(0.0126625 0 0.000210504)
(0.012383 0 0.000165425)
(0.0121012 0 0.000132261)
(0.0118131 0 0.000107799)
(0.0115135 0 8.95859e-05)
(0.0111966 0 7.57914e-05)
(0.0108558 0 6.50881e-05)
(0.0104846 0 5.6533e-05)
(0.0100762 0 4.94702e-05)
(0.00962348 0 4.34507e-05)
(0.00911923 0 3.81709e-05)
(0.00855574 0 3.34254e-05)
(0.0079248 0 2.90725e-05)
(0.00721753 0 2.50091e-05)
(0.00642426 0 2.11528e-05)
(0.00553428 0 1.7429e-05)
(0.00453575 0 1.37612e-05)
(0.00341539 0 1.00633e-05)
(0.00215831 0 6.23155e-06)
(0.000747419 0 2.13605e-06)
(0.0100866 0 0.00209326)
(0.0107055 0 0.00189747)
(0.0114015 0 0.00161866)
(0.0119681 0 0.00133952)
(0.01235 0 0.00108782)
(0.0125612 0 0.000871327)
(0.0126369 0 0.000690762)
(0.0126127 0 0.000543789)
(0.0125186 0 0.00042656)
(0.0123765 0 0.000334607)
(0.012201 0 0.000263386)
(0.0120008 0 0.000208747)
(0.0117799 0 0.000167074)
(0.011539 0 0.000135329)
(0.0112763 0 0.000111063)
(0.0109888 0 9.23569e-05)
(0.0106719 0 7.77445e-05)
(0.0103205 0 6.61279e-05)
(0.00992906 0 5.66989e-05)
(0.00949121 0 4.88708e-05)
(0.0090003 0 4.22208e-05)
(0.00844912 0 3.64442e-05)
(0.00782982 0 3.13185e-05)
(0.00713383 0 2.66762e-05)
(0.00635175 0 2.23845e-05)
(0.00547316 0 1.83295e-05)
(0.00448646 0 1.4404e-05)
(0.00337869 0 1.04974e-05)
(0.00213526 0 6.48581e-06)
(0.000739452 0 2.22072e-06)
(0.0068376 0 0.00191726)
(0.00797853 0 0.00168897)
(0.00914351 0 0.00145527)
(0.0100962 0 0.00124331)
(0.0108018 0 0.00104744)
(0.0112865 0 0.000869164)
(0.0115913 0 0.000711703)
(0.0117565 0 0.000576744)
(0.0118165 0 0.000464034)
(0.0117983 0 0.000371887)
(0.0117215 0 0.000297746)
(0.0115994 0 0.000238874)
(0.0114401 0 0.000192549)
(0.0112479 0 0.000156275)
(0.0110242 0 0.000127903)
(0.0107679 0 0.000105647)
(0.0104766 0 8.80705e-05)
(0.0101467 0 7.4044e-05)
(0.00977336 0 6.26978e-05)
(0.00935138 0 5.33714e-05)
(0.00887469 0 4.5568e-05)
(0.00833655 0 3.89145e-05)
(0.00772954 0 3.31288e-05)
(0.00704543 0 2.79935e-05)
(0.00627514 0 2.33349e-05)
(0.00540853 0 1.90062e-05)
(0.00443432 0 1.48742e-05)
(0.00333983 0 1.08073e-05)
(0.00211083 0 6.66385e-06)
(0.000731009 0 2.27937e-06)
(0.000678469 0 -5.44009e-05)
(0.00195746 0 -0.000157799)
(0.00309319 0 -0.000252032)
(0.00410099 0 -0.00033943)
(0.00499489 0 -0.000421744)
(0.00578708 0 -0.000500426)
(0.00648838 0 -0.000576662)
(0.0071084 0 -0.000651436)
(0.0076557 0 -0.000725584)
(0.00813792 0 -0.000799844)
(0.00856188 0 -0.000874896)
(0.00893364 0 -0.000951402)
(0.00925854 0 -0.00103005)
(0.00954108 0 -0.00111159)
(0.00978489 0 -0.00119687)
(0.00999251 0 -0.00128686)
(0.0101651 0 -0.00138267)
(0.010302 0 -0.00148557)
(0.0104005 0 -0.00159691)
(0.0104547 0 -0.00171805)
(0.0104553 0 -0.00185019)
(0.0103889 0 -0.00199409)
(0.0102377 0 -0.00214957)
(0.00997963 0 -0.00231487)
(0.00959012 0 -0.00248583)
(0.00904441 0 -0.00265428)
(0.00832205 0 -0.00280368)
(0.00742312 0 -0.00290276)
(0.00637292 0 -0.00288508)
(0.00528778 0 -0.00262717)
(0.000670139 0 -5.65544e-05)
(0.00193344 0 -0.000164042)
(0.00305531 0 -0.000261927)
(0.00405066 0 -0.000352613)
(0.00493274 0 -0.000438027)
(0.00571374 0 -0.000519577)
(0.00640414 0 -0.000598491)
(0.0070133 0 -0.000675784)
(0.00754944 0 -0.000752317)
(0.00801983 0 -0.000828845)
(0.0084309 0 -0.000906053)
(0.00878826 0 -0.000984599)
(0.00909668 0 -0.00106514)
(0.00936002 0 -0.00114838)
(0.00958111 0 -0.00123503)
(0.00976159 0 -0.0013259)
(0.00990162 0 -0.00142181)
(0.0099996 0 -0.00152359)
(0.0100518 0 -0.00163196)
(0.0100518 0 -0.00174741)
(0.00999064 0 -0.00186994)
(0.00985613 0 -0.00199869)
(0.00963401 0 -0.00213149)
(0.00930761 0 -0.00226369)
(0.00886336 0 -0.00238748)
(0.00829001 0 -0.00249047)
(0.00759162 0 -0.00255181)
(0.00679879 0 -0.00253917)
(0.00597254 0 -0.00240651)
(0.00519169 0 -0.00207995)
(0.000661174 0 -5.8489e-05)
(0.00190764 0 -0.000169648)
(0.00301451 0 -0.00027086)
(0.00399654 0 -0.000364492)
(0.00486648 0 -0.000452538)
(0.00563564 0 -0.00053659)
(0.00631464 0 -0.000617778)
(0.0069125 0 -0.000697144)
(0.00743711 0 -0.000775561)
(0.00789536 0 -0.000853777)
(0.00829331 0 -0.000932459)
(0.00863617 0 -0.00101223)
(0.00892823 0 -0.00109368)
(0.00917283 0 -0.00117739)
(0.00937223 0 -0.00126394)
(0.00952749 0 -0.00135387)
(0.00963825 0 -0.00144767)
(0.00970254 0 -0.00154568)
(0.00971658 0 -0.00164799)
(0.00967468 0 -0.00175423)
(0.00956925 0 -0.00186332)
(0.00939107 0 -0.00197308)
(0.00912993 0 -0.00207998)
(0.00877793 0 -0.00217788)
(0.00833174 0 -0.00225741)
(0.00779505 0 -0.0023056)
(0.00718835 0 -0.0023051)
(0.00654765 0 -0.00223185)
(0.00592631 0 -0.00205374)
(0.00538997 0 -0.00171716)
(0.000651571 0 -6.0185e-05)
(0.00188005 0 -0.000174565)
(0.00297102 0 -0.000278682)
(0.0039387 0 -0.000374941)
(0.00479576 0 -0.000465254)
(0.00555298 0 -0.000551277)
(0.00622006 0 -0.000634321)
(0.00680631 0 -0.000715293)
(0.00731919 0 -0.000795069)
(0.00776519 0 -0.00087438)
(0.00815006 0 -0.000953843)
(0.00847869 0 -0.00103402)
(0.00875498 0 -0.0011154)
(0.00898191 0 -0.00119845)
(0.0091614 0 -0.00128353)
(0.00929424 0 -0.00137093)
(0.00937996 0 -0.00146077)
(0.0094168 0 -0.00155293)
(0.00940162 0 -0.00164692)
(0.00933004 0 -0.0017417)
(0.0091967 0 -0.0018354)
(0.00899549 0 -0.00192503)
(0.00872213 0 -0.00200619)
(0.00837682 0 -0.00207252)
(0.007963 0 -0.00211534)
(0.00749247 0 -0.00212356)
(0.0069882 0 -0.0020835)
(0.0064839 0 -0.0019783)
(0.0060235 0 -0.00178707)
(0.00566294 0 -0.00148348)
(0.000641338 0 -6.16234e-05)
(0.00185071 0 -0.000178739)
(0.00292486 0 -0.000285317)
(0.00387749 0 -0.00038377)
(0.00472077 0 -0.000476029)
(0.00546547 0 -0.000563625)
(0.0061207 0 -0.000647929)
(0.00669511 0 -0.000730037)
(0.00719628 0 -0.00081064)
(0.0076301 0 -0.000890452)
(0.00800221 0 -0.000970017)
(0.00831719 0 -0.00104981)
(0.00857872 0 -0.00113024)
(0.00878956 0 -0.00121158)
(0.00895147 0 -0.00129402)
(0.00906527 0 -0.00137757)
(0.00913074 0 -0.00146202)
(0.00914666 0 -0.00154686)
(0.00911098 0 -0.00163114)
(0.00902104 0 -0.00171334)
(0.00887395 0 -0.0017912)
(0.00866782 0 -0.00186133)
(0.00840296 0 -0.00191926)
(0.00808291 0 -0.00195915)
(0.00771594 0 -0.00197366)
(0.0073167 0 -0.00195409)
(0.00690696 0 -0.00189059)
(0.00651532 0 -0.00177234)
(0.00617659 0 -0.00158831)
(0.00593178 0 -0.00133061)
(0.000630495 0 -6.27872e-05)
(0.00181965 0 -0.000182119)
(0.00287612 0 -0.000290688)
(0.00381302 0 -0.000390892)
(0.00464203 0 -0.00048465)
(0.00537346 0 -0.000573493)
(0.0060163 0 -0.000658609)
(0.00657902 0 -0.000741239)
(0.00706865 0 -0.000822153)
(0.0074905 0 -0.000901901)
(0.00785034 0 -0.000980917)
(0.00815257 0 -0.00105961)
(0.00840067 0 -0.00113825)
(0.00859736 0 -0.001217)
(0.00874446 0 -0.00129582)
(0.008843 0 -0.00137451)
(0.00889324 0 -0.00145259)
(0.00889481 0 -0.00152924)
(0.0088469 0 -0.00160322)
(0.00874869 0 -0.00167273)
(0.00859987 0 -0.00173531)
(0.00840145 0 -0.00178781)
(0.00815633 0 -0.00182598)
(0.00787079 0 -0.00184487)
(0.00755485 0 -0.00183872)
(0.00722308 0 -0.00180122)
(0.00689466 0 -0.00172587)
(0.00659272 0 -0.00160667)
(0.00634327 0 -0.00143945)
(0.00617363 0 -0.00122501)
(0.000619036 0 -6.36637e-05)
(0.00178688 0 -0.000184671)
(0.0028248 0 -0.00029474)
(0.00374528 0 -0.000396235)
(0.00455955 0 -0.000491048)
(0.00527749 0 -0.00058069)
(0.00590786 0 -0.000666369)