/*--------------------------------*- C++ -*----------------------------------*\
| =========                 |                                                 |
| \\      /  F ield         | OpenFOAM: The Open Source CFD Toolbox           |
|  \\    /   O peration     | Version:  dev                                   |
|   \\  /    A nd           | Web:      www.OpenFOAM.org                      |
|    \\/     M anipulation  |                                                 |
\*---------------------------------------------------------------------------*/
FoamFile
{
    version     2.0;
    format      ascii;
    class       volVectorField;
    location    "1.29";
    object      U;
}
// * * * * * * * * * * * * * * * * * * * * * * * * * * * * * * * * * * * * * //

dimensions      [0 1 -1 0 0 0 0];

internalField   nonuniform List<vector> 
465
(
(3.91573 0 -0.0845384)
(4.14806 0 -0.0796958)
(4.35271 0 -0.0745239)
(4.53085 -4.97708e-21 -0.0691239)
(4.68339 9.637e-21 -0.0636639)
(4.81143 -4.66725e-21 -0.0582727)
(4.91631 0 -0.0529597)
(4.99967 0 -0.047615)
(5.06362 0 -0.0421159)
(5.11104 0 -0.0365715)
(5.14601 0 -0.0315058)
(5.17402 -1.60713e-21 -0.0277314)
(5.20186 3.05417e-21 -0.0259934)
(5.23694 -1.44963e-21 -0.0266781)
(5.28768 -1.98903e-20 -0.0298631)
(5.36224 0 -0.035913)
(5.47056 1.42984e-20 -0.0459992)
(5.62403 1.07411e-20 -0.0620348)
(5.83395 2.83611e-22 -0.0859395)
(6.19109 0 -0.118924)
(3.41569 0 -0.190336)
(3.57883 0 -0.175875)
(3.711 -8.27069e-20 -0.159712)
(3.81265 -7.99594e-20 -0.141764)
(3.88379 9.61131e-20 -0.12224)
(3.92496 -1.86748e-20 -0.10157)
(3.93812 -6.23379e-20 -0.0804566)
(3.9276 -1.69404e-20 -0.0600126)
(3.90049 1.61403e-20 -0.04176)
(3.86591 -7.80538e-21 -0.0274278)
(3.83354 -3.51528e-21 -0.0186132)
(3.81206 -5.06213e-20 -0.0165499)
(3.8085 0 -0.0222534)
(3.82894 -4.81066e-20 -0.03672)
(3.87979 2.27923e-20 -0.06102)
(3.96733 0 -0.0968222)
(4.09883 1.45595e-20 -0.145769)
(4.28101 1.11887e-20 -0.2093)
(4.51927 0 -0.289229)
(4.89737 -6.15791e-21 -0.385605)
(2.53079 -8.62057e-20 -0.285031)
(2.60574 -1.69156e-19 -0.258853)
(2.65204 2.47316e-19 -0.22892)
(2.67108 7.98082e-20 -0.195456)
(2.6649 -9.62745e-20 -0.159567)
(2.63743 3.72319e-20 -0.123414)
(2.59485 5.33743e-20 -0.0899123)
(2.54522 0 -0.0622977)
(2.49708 0 -0.0434009)
(2.45844 0 -0.0350672)
(2.43604 -5.89259e-20 -0.0380172)
(2.43515 5.46507e-20 -0.052358)
(2.46033 0 -0.0783829)
(2.51627 4.58792e-20 -0.116911)
(2.6084 0 -0.168678)
(2.7379 3.53715e-20 -0.23493)
(2.90576 -2.7659e-20 -0.316964)
(3.1121 -2.41428e-20 -0.41685)
(3.35861 2.94025e-20 -0.539111)
(3.69821 1.79297e-20 -0.689496)
(1.66929 0 -0.343935)
(1.67619 8.43329e-20 -0.306331)
(1.66244 -8.16758e-20 -0.264203)
(1.63132 0 -0.218795)
(1.5873 3.85862e-20 -0.17269)
(1.536 7.62598e-20 -0.129449)
(1.48393 3.66826e-20 -0.0929827)
(1.4378 0 -0.0667458)
(1.40393 1.6338e-20 -0.053048)
(1.38718 -1.58589e-19 -0.0529678)
(1.39165 -4.50815e-20 -0.0670258)
(1.42127 6.71955e-21 -0.096471)
(1.47936 -4.73035e-22 -0.14255)
(1.56707 -6.05414e-21 -0.205013)
(1.68547 8.23816e-20 -0.28231)
(1.83193 3.52306e-20 -0.374474)
(2.00304 0 -0.482338)
(2.19616 0 -0.60805)
(2.40958 -2.96099e-20 -0.757635)
(2.6479 -1.18118e-20 -0.945651)
(0.905195 3.42571e-19 -0.376283)
(0.872244 0 -0.331275)
(0.829127 -4.15428e-19 -0.282021)
(0.77947 8.12821e-20 -0.230752)
(0.727487 0 -0.181038)
(0.677933 2.08327e-21 -0.137238)
(0.636122 0 -0.103722)
(0.606211 1.73924e-20 -0.0839237)
(0.592463 -5.82888e-22 -0.0797809)
(0.597693 1.11016e-19 -0.0919888)
(0.625016 1.19892e-19 -0.12116)
(0.677232 1.05799e-19 -0.168311)
(0.754086 6.67805e-21 -0.233174)
(0.853801 -9.88469e-20 -0.314186)
(0.975334 -7.71858e-20 -0.409473)
(1.11596 -1.43502e-19 -0.518497)
(1.26807 -5.541e-20 -0.640955)
(1.42696 0 -0.77828)
(1.58332 0 -0.936979)
(1.70592 0 -1.13798)
(0.270947 -2.55393e-19 -0.390735)
(0.221816 1.71932e-19 -0.342647)
(0.171049 4.15337e-19 -0.290708)
(0.12125 -8.11952e-20 -0.238162)
(0.0754823 8.01233e-20 -0.189296)
(0.0371217 -1.53312e-19 -0.14887)
(0.00938488 -1.50486e-19 -0.121101)
(-0.00511847 0 -0.109223)
(-0.00374928 -1.20899e-19 -0.114985)
(0.0159917 -1.65075e-20 -0.138973)
(0.0562476 -1.22202e-19 -0.181752)
(0.117992 -1.12571e-19 -0.243518)
(0.198919 -1.03788e-19 -0.323212)
(0.296615 1.81203e-19 -0.418469)
(0.408055 -7.65694e-20 -0.526489)
(0.529353 7.05598e-20 -0.644873)
(0.651674 5.75755e-20 -0.773231)
(0.767597 8.51183e-20 -0.911474)
(0.858804 -5.37417e-20 -1.06546)
(0.888729 0 -1.25322)
(-0.224069 1.71152e-19 -0.394017)
(-0.273542 -3.37674e-19 -0.346471)
(-0.319624 0 -0.295414)
(-0.361199 0 -0.244594)
(-0.396569 4.02469e-19 -0.198712)
(-0.423705 -7.81885e-20 -0.162783)
(-0.440751 1.8528e-19 -0.141196)
(-0.445191 -3.64098e-20 -0.137217)
(-0.435218 1.35906e-19 -0.152696)
(-0.408725 -2.45164e-19 -0.188072)
(-0.364455 -1.68917e-20 -0.243112)
(-0.303149 1.3589e-20 -0.316983)
(-0.228 -1.38168e-20 -0.40776)
(-0.141593 -9.29823e-20 -0.512397)
(-0.0484522 -8.09823e-20 -0.62742)
(0.0478604 0 -0.749645)
(0.136994 0 -0.876854)
(0.208373 -8.38062e-20 -1.00758)
(0.240124 5.22937e-20 -1.14651)
(0.214903 1.32467e-22 -1.29977)
(-0.582398 0 -0.3914)
(-0.624484 3.44315e-19 -0.346064)
(-0.661121 3.39964e-19 -0.296979)
(-0.692413 0 -0.248563)
(-0.717757 -2.38828e-19 -0.20595)
(-0.736266 -7.87784e-20 -0.17448)
(-0.746184 0 -0.158878)
(-0.745937 0 -0.162501)
(-0.733535 -1.68365e-20 -0.187053)
(-0.707433 2.74879e-19 -0.232571)
(-0.666778 1.21013e-19 -0.297956)
(-0.613028 0 -0.381484)
(-0.549468 1.0868e-19 -0.480609)
(-0.479341 -1.90291e-19 -0.591564)
(-0.407501 7.795e-22 -0.709928)
(-0.338453 0 -0.830998)
(-0.282425 0 -0.951506)
(-0.251985 5.06126e-22 -1.06977)
(-0.265812 -5.00394e-22 -1.18797)
(-0.313949 -1.53679e-20 -1.29765)
(-0.8158 0 -0.384438)
(-0.84571 -3.4001e-19 -0.342019)
(-0.870282 -3.35608e-19 -0.295318)
(-0.89065 0 -0.24926)
(-0.907066 8.07459e-20 -0.209518)
(-0.919091 -7.97146e-20 -0.181801)
(-0.925773 3.75563e-20 -0.171145)
(-0.925429 -3.70842e-20 -0.181177)
(-0.91621 0 -0.213533)
(-0.896537 -2.79826e-19 -0.267724)
(-0.865613 2.61639e-19 -0.341746)
(-0.824773 0 -0.432907)
(-0.777189 0 -0.537881)
(-0.726402 1.88178e-19 -0.652147)
(-0.677339 -4.90962e-21 -0.770396)
(-0.634826 -1.31539e-19 -0.886965)
(-0.608443 -1.8671e-21 -0.997652)
(-0.61149 7.67346e-20 -1.10077)
(-0.656213 -6.02739e-23 -1.19706)
(-0.714253 3.00279e-20 -1.27462)
(-0.932836 1.75364e-19 -0.376033)
(-0.947234 -1.73129e-19 -0.335963)
(-0.958183 0 -0.290831)
(-0.967504 0 -0.246009)
(-0.976103 8.1998e-20 -0.207698)
(-0.984089 -8.09921e-20 -0.18207)
(-0.990733 -2.75708e-19 -0.174594)
(-0.994541 -3.76294e-20 -0.189217)
(-0.993528 1.71332e-20 -0.227624)
(-0.985553 2.60935e-19 -0.288912)
(-0.969339 -1.20264e-20 -0.370125)
(-0.945573 -2.34374e-19 -0.467469)
(-0.917089 6.69421e-21 -0.576677)
(-0.887445 -2.67225e-21 -0.69243)
(-0.861421 3.1909e-19 -0.80862)
(-0.843915 2.64905e-19 -0.918844)
(-0.843491 0 -1.01838)
(-0.873202 -7.63831e-20 -1.1059)
(-0.938915 0 -1.18155)
(-1.00203 -4.55513e-22 -1.23477)
(-0.939453 1.75984e-19 -0.368436)
(-0.935756 0 -0.329117)
(-0.931835 0 -0.283668)
(-0.930035 0 -0.237997)
(-0.931842 0 -0.198788)
(-0.937677 0 -0.172742)
(-0.947174 -8.9026e-21 -0.165848)
(-0.958914 -2.68761e-19 -0.182554)
(-0.970526 -3.64556e-20 -0.224818)
(-0.979268 0 -0.291567)
(-0.982643 -2.46278e-19 -0.37894)
(-0.980056 2.26192e-19 -0.481751)
(-0.973526 3.0492e-21 -0.594449)
(-0.966427 -1.68059e-21 -0.710789)
(-0.963297 -1.58811e-19 -0.824001)
(-0.969222 4.28334e-22 -0.92732)
(-0.991804 -1.7504e-22 -1.01583)
(-1.04317 2.89418e-22 -1.08842)
(-1.12395 -5.83449e-23 -1.14554)
(-1.18995 -1.42095e-20 -1.18009)
(-0.839182 0 -0.363938)
(-0.815138 0 -0.322795)
(-0.795166 0 -0.274188)
(-0.782067 -3.58939e-19 -0.224601)
(-0.777738 4.37068e-19 -0.181307)
(-0.782934 -8.46461e-20 -0.151525)
(-0.797624 -4.97295e-20 -0.141889)
(-0.820221 3.43053e-19 -0.157459)
(-0.848551 0 -0.200876)
(-0.878649 0 -0.271174)
(-0.90672 -7.58285e-21 -0.363875)
(-0.930019 2.40542e-19 -0.472127)
(-0.948971 -2.09759e-19 -0.588554)
(-0.966432 0 -0.70567)
(-0.98663 -1.13998e-21 -0.816037)
(-1.01495 -1.29486e-19 -0.912813)
(-1.05892 -9.1698e-22 -0.991282)
(-1.12891 0 -1.05045)
(-1.22152 4.38331e-20 -1.09147)
(-1.28948 2.80896e-20 -1.11137)
(-0.633885 -1.85853e-19 -0.365117)
(-0.58735 -1.92169e-19 -0.318579)
(-0.55006 0 -0.262964)
(-0.525256 3.56646e-19 -0.205565)
(-0.514874 -3.494e-19 -0.154168)
(-0.520424 3.51516e-19 -0.116578)
(-0.541545 3.26715e-19 -0.100062)
(-0.577423 1.93215e-20 -0.110536)
(-0.625073 -1.91081e-20 -0.151289)
(-0.680975 0 -0.222463)
(-0.739036 -2.57114e-19 -0.319344)
(-0.794192 1.78139e-21 -0.43359)
(-0.843959 2.10531e-19 -0.555296)
(-0.889701 1.17784e-21 -0.67488)
(-0.935168 -1.64836e-19 -0.783839)
(-0.986259 -1.34773e-19 -0.875365)
(-1.05129 -1.07439e-19 -0.945381)
(-1.13892 2.33077e-21 -0.993231)
(-1.24212 -1.33614e-19 -1.02075)
(-1.31181 5.42314e-22 -1.02881)
(-0.324855 -9.53721e-20 -0.375177)
(-0.253792 8.53909e-19 -0.318718)
(-0.197728 0 -0.250884)
(-0.160136 3.81354e-19 -0.180672)
(-0.143135 4.19671e-19 -0.116242)
(-0.148725 -3.95164e-19 -0.0659295)
(-0.17673 3.49642e-19 -0.0377599)
(-0.226905 3.42656e-19 -0.0384145)
(-0.296656 -9.85589e-21 -0.0722107)
(-0.381125 0 -0.140272)
(-0.474442 2.60353e-19 -0.239299)
(-0.568286 -4.81198e-19 -0.360048)
(-0.656431 3.1844e-21 -0.489607)
(-0.737001 1.89533e-19 -0.614862)
(-0.812463 3.22805e-19 -0.725323)
(-0.889046 1.39141e-19 -0.814021)
(-0.976363 1.05847e-19 -0.877873)
(-1.08269 0 -0.917165)
(-1.19677 8.88585e-20 -0.933911)
(-1.2684 -2.86368e-20 -0.932172)
(0.0873603 -9.60777e-20 -0.396887)
(0.183962 -2.84938e-19 -0.325029)
(0.259302 2.99254e-19 -0.239547)
(0.310377 -8.17485e-19 -0.151841)
(0.33538 -3.23015e-19 -0.0692788)
(0.33205 2.26281e-20 -0.000326192)
(0.298517 -3.6909e-19 0.0456604)
(0.234304 -3.25243e-19 0.0606119)
(0.142672 -5.09114e-21 0.0389585)
(0.0278045 -2.97647e-19 -0.0217314)
(-0.103979 3.75377e-21 -0.11926)
(-0.242895 4.80637e-19 -0.244883)
(-0.378532 7.29327e-21 -0.383351)
(-0.504483 -1.92501e-19 -0.518051)
(-0.619806 -1.6557e-19 -0.635047)
(-0.728869 1.37916e-19 -0.725447)
(-0.84276 3.87826e-21 -0.786882)
(-0.970598 0 -0.82091)
(-1.09742 9.49931e-20 -0.830053)
(-1.17138 -4.8085e-22 -0.820262)
(0.495128 0 -0.488791)
(0.615696 0 -0.435151)
(0.734852 3.89613e-19 -0.339296)
(0.830842 -3.74553e-19 -0.231837)
(0.899504 -1.54137e-20 -0.12311)
(0.938064 -2.30819e-20 -0.0168268)
(0.942683 2.28831e-20 0.0780962)
(0.909384 -3.5664e-19 0.150376)
(0.836627 3.4219e-19 0.190198)
(0.72614 3.1776e-19 0.190197)
(0.581613 -1.20091e-20 0.14613)
(0.409486 -2.75965e-19 0.0581017)
(0.215359 -2.41971e-19 -0.0690276)
(0.0131645 0 -0.220393)
(-0.1774 0 -0.371107)
(-0.350192 -1.70366e-19 -0.502674)
(-0.506257 -1.36537e-19 -0.603125)
(-0.65652 0 -0.668762)
(-0.811835 -1.60248e-19 -0.702364)
(-0.955479 -9.10679e-20 -0.707638)
(-1.03304 0 -0.691616)
(1.41212 -9.12006e-20 -0.574277)
(1.4014 0 -0.493734)
(1.44812 -3.72918e-19 -0.363436)
(1.52129 0 -0.229336)
(1.59634 7.68513e-19 -0.095395)
(1.65102 -1.74749e-20 0.0391707)
(1.66941 8.53866e-21 0.165002)
(1.64374 -2.90036e-20 0.270027)
(1.57118 2.55135e-20 0.343096)
(1.45216 -3.07426e-19 0.375045)
(1.28772 6.04639e-19 0.359409)
(1.08133 2.63824e-19 0.293503)
(0.840516 -3.08889e-20 0.180029)
(0.573973 1.46621e-20 0.0282159)
(0.296021 0 -0.143454)
(0.0371153 2.63031e-21 -0.303344)
(-0.191538 1.34659e-19 -0.427665)
(-0.400417 0 -0.51064)
(-0.597655 1.56567e-19 -0.552915)
(-0.765923 9.90972e-22 -0.558123)
(-0.851157 -9.89651e-22 -0.537257)
(2.72746 -3.60271e-19 -0.279502)
(2.543 0 -0.237519)
(2.48675 -3.69275e-19 -0.106264)
(2.49163 -3.80438e-19 0.0662479)
(2.50366 0 0.239891)
(2.48631 -1.5421e-20 0.391313)
(2.42226 -6.68391e-19 0.508231)
(2.30714 -2.8408e-19 0.582297)
(2.13966 -3.25359e-19 0.607651)
(1.92022 0 0.58044)
(1.6495 2.53718e-19 0.499307)
(1.33113 0 0.366689)
(0.979234 0 0.194561)
(0.616079 1.67958e-19 0.00829231)
(0.273374 6.58801e-21 -0.157669)
(-0.0290089 6.13652e-21 -0.278806)
(-0.29319 -6.0947e-21 -0.348096)
(-0.502226 0 -0.364005)
(-0.604069 0 -0.340559)
(4.32143 -4.65001e-20 0.281768)
(3.91632 8.3064e-19 0.272912)
(3.6732 -4.56329e-20 0.374272)
(3.52274 3.42589e-19 0.525856)
(3.40569 -5.51137e-20 0.67677)
(3.27606 3.48862e-19 0.796137)
(3.10957 0 0.869784)
(2.89459 0 0.891939)
(2.62507 -2.42628e-19 0.860757)
(2.29885 0 0.776919)
(1.91354 0 0.643016)
(1.466 1.98556e-20 0.462207)
(0.984443 1.51433e-19 0.253185)
(0.528144 2.19817e-19 0.0594148)
(0.146156 1.75702e-19 -0.070385)
(-0.125754 9.91552e-20 -0.113011)
(-0.251061 0 -0.0872311)
(6.04672 1.20846e-20 0.999553)
(5.46871 0 0.898203)
(5.01719 0 0.890168)
(4.68654 3.25075e-19 0.955794)
(4.43482 -3.19557e-19 1.0546)
(4.21339 -2.28378e-19 1.14814)
(3.98394 -3.47471e-19 1.21122)
(3.72128 0 1.23143)
(3.41107 1.75709e-19 1.20473)
(3.04399 2.55592e-19 1.13154)
(2.61661 -1.95732e-19 1.01455)
(2.12844 -2.63314e-19 0.852335)
(1.57142 -2.38394e-19 0.63021)
(0.999959 -1.56408e-19 0.373968)
(0.553018 -9.55959e-20 0.212299)
(0.312804 -3.1939e-20 0.217262)
(6.83686 0 1.54585)
(6.32165 7.93271e-20 1.48528)
(5.89147 1.49524e-19 1.48138)
(5.53697 6.55631e-20 1.5184)
(5.2301 2.64124e-19 1.57027)
(4.93785 0 1.61255)
(4.63249 -2.17992e-19 1.62899)
(4.29416 -1.93325e-19 1.61155)
(3.91166 -6.46233e-21 1.55703)
(3.47821 -2.91195e-19 1.46107)
(2.98998 -1.22306e-20 1.316)
(2.46908 1.22819e-20 1.1182)
(1.89155 0 0.853922)
(1.25173 3.05352e-20 0.67965)
(7.54048 -3.02081e-19 2.08162)
(7.07951 6.23797e-20 2.04119)
(6.67313 1.98083e-19 2.03474)
(6.31107 3.02964e-19 2.04955)
(5.97387 -5.88177e-21 2.06918)
(5.64022 1.45392e-19 2.0789)
(5.29283 1.65721e-19 2.06773)
(4.91963 2.77053e-19 2.02663)
(4.51232 2.2471e-19 1.94549)
(4.06999 1.61179e-19 1.81529)
(3.59727 -1.8774e-21 1.63191)
(2.93528 1.87248e-21 1.43414)
(8.6775 4.76005e-21 2.65115)
(8.23127 -1.2095e-19 2.59822)
(7.81874 -1.76899e-19 2.56965)
(7.43983 -5.64106e-21 2.56063)
(7.08686 -4.68947e-20 2.56184)
(6.74819 1.656e-19 2.56183)
(6.41171 3.0677e-19 2.54839)
(6.0664 -2.44374e-19 2.50885)
(5.70274 -3.00673e-19 2.4333)
(5.32708 -5.92368e-21 2.31687)
(4.78092 1.8898e-20 2.16264)
(9.34712 -3.44739e-19 3.12926)
(8.96359 0 3.0947)
(8.60295 1.56107e-21 3.07411)
(8.265 -1.5765e-19 3.06218)
(7.94532 -2.92428e-19 3.0501)
(7.63668 2.9565e-20 3.02686)
(7.32922 1.54934e-19 2.982)
(7.02516 -7.34828e-21 2.9086)
(6.59431 -1.95952e-20 2.79997)
(10.4321 1.96298e-19 3.61657)
(10.1025 -2.67794e-19 3.58578)
(9.78719 -3.47978e-20 3.56181)
(9.48924 -2.18051e-19 3.54117)
(9.20814 0 3.51753)
(8.93907 1.41822e-19 3.48324)
(8.68401 -8.40952e-20 3.43211)
(8.34083 1.57528e-21 3.35567)
(11.2285 -7.78631e-20 4.02281)
(10.9762 2.14174e-19 4.0004)
(10.7351 -1.62445e-19 3.97545)
(10.5055 -1.28468e-19 3.94418)
(10.2918 7.03803e-20 3.90304)
(10.0164 1.51372e-21 3.84519)
(12.3304 0 4.39092)
(12.1504 1.80799e-19 4.3735)
(11.9751 1.42579e-19 4.34912)
(11.8105 -1.57873e-20 4.31665)
(11.6006 2.29413e-20 4.27145)
(13.2887 -1.24109e-19 4.67168)
(13.1867 0 4.65312)
(13.0522 3.18113e-21 4.62246)
(14.3742 0 4.89163)
(14.3261 -2.13275e-20 4.88055)
(15.3922 0 5.03272)
)
;

boundaryField
{
    inlet
    {
        type            fixedValue;
        value           nonuniform 0();
    }
    outlet
    {
        type            zeroGradient;
    }
    flap
    {
        type            movingWallVelocity;
        value           nonuniform 0();
    }
    upperWall
    {
        type            noSlip;
    }
    lowerWall
    {
        type            noSlip;
    }
    frontAndBack
    {
        type            empty;
    }
    procBoundary5to2
    {
        type            processor;
        value           nonuniform List<vector> 
34
(
(3.92513 2.32644e-20 0.132554)
(3.13682 3.57119e-19 -0.177831)
(3.13682 3.57119e-19 -0.177831)
(5.68091 3.88841e-20 0.721971)
(4.92539 0 0.437975)
(4.92539 0 0.437975)
(6.70945 -4.51579e-20 1.17911)
(6.70945 -4.51579e-20 1.17911)
(8.04282 9.01306e-22 1.81806)
(7.42121 8.68682e-20 1.66109)
(7.42121 8.68682e-20 1.66109)
(8.59595 0 2.27069)
(8.05172 0 2.15991)
(8.05172 0 2.15991)
(9.14891 5.76178e-19 2.72756)
(9.14891 5.76178e-19 2.72756)
(10.1594 -2.60739e-19 3.24204)
(9.7488 -1.17951e-19 3.17914)
(9.7488 -1.17951e-19 3.17914)
(10.7696 2.16071e-19 3.65459)
(10.7696 2.16071e-19 3.65459)
(11.7498 -8.87499e-20 4.06747)
(11.4883 1.07292e-20 4.04502)
(11.4883 1.07292e-20 4.04502)
(12.5126 0 4.4026)
(12.5126 0 4.4026)
(13.4969 0 4.68149)
(13.394 0 4.68117)
(13.394 0 4.68117)
(14.4039 1.24276e-19 4.89032)
(14.4039 1.24276e-19 4.89032)
(15.3485 1.2288e-20 5.02027)
(15.3485 1.2288e-20 5.02027)
(16.2418 0 5.07534)
)
;
    }
    procBoundary5to4
    {
        type            processor;
        value           nonuniform List<vector> 
18
(
(3.65335 -8.97385e-20 -0.0890575)
(3.22016 -8.78326e-20 -0.203478)
(2.42502 1.73725e-19 -0.308127)
(1.63859 -3.43395e-19 -0.377355)
(0.92484 -3.41827e-19 -0.416772)
(0.316456 0 -0.433891)
(-0.17167 -1.73524e-19 -0.436028)
(-0.534174 3.42006e-19 -0.430284)
(-0.778826 3.49238e-19 -0.419345)
(-0.9124 -1.7298e-19 -0.407171)
(-0.939711 1.784e-19 -0.397258)
(-0.863602 -1.78162e-19 -0.392972)
(-0.685257 0 -0.397643)
(-0.40492 0 -0.413944)
(-0.0210968 -9.74706e-20 -0.441396)
(-0.0210968 -9.74706e-20 -0.441396)
(0.401935 0 -0.507264)
(1.48329 9.05649e-20 -0.574657)
)
;
    }
}


// ************************************************************************* //
