/*--------------------------------*- C++ -*----------------------------------*\
| =========                 |                                                 |
| \\      /  F ield         | OpenFOAM: The Open Source CFD Toolbox           |
|  \\    /   O peration     | Version:  dev                                   |
|   \\  /    A nd           | Web:      www.OpenFOAM.org                      |
|    \\/     M anipulation  |                                                 |
\*---------------------------------------------------------------------------*/
FoamFile
{
    version     2.0;
    format      ascii;
    class       surfaceScalarField;
    location    "0.82";
    object      phi;
}
// * * * * * * * * * * * * * * * * * * * * * * * * * * * * * * * * * * * * * //

dimensions      [0 3 -1 0 0 0 0];

internalField   nonuniform List<scalar> 
882
(
0.14031
0.224396
0.138184
0.227419
0.145656
0.152871
0.23879
0.135257
0.242567
0.141868
0.247268
0.148161
0.252941
0.154023
0.159348
0.252997
0.131668
0.257369
0.137488
0.262568
0.142954
0.268616
0.147969
0.275508
0.15245
0.283211
0.156328
0.159537
0.266977
0.127533
0.271825
0.132633
0.277411
0.137362
0.283739
0.141635
0.290792
0.145392
0.298533
0.148583
0.3069
0.151166
0.315814
0.153105
0.154016
0.325131
0.28071
0.122947
0.28594
0.127398
0.291829
0.131468
0.298367
0.135092
0.30553
0.138225
0.313278
0.140831
0.321554
0.142886
0.330288
0.144368
0.144942
0.33936
0.294175
0.117989
0.299715
0.121856
0.30584
0.125339
0.312534
0.128395
0.319766
0.13099
0.327496
0.133099
0.335672
0.134707
0.344234
0.135803
0.136093
0.35308
0.307363
0.112721
0.313155
0.116062
0.319464
0.119028
0.326268
0.121589
0.333536
0.12372
0.341229
0.125404
0.349298
0.126635
0.357692
0.127407
0.127464
0.366319
0.320278
0.107199
0.32627
0.11007
0.332716
0.112581
0.339594
0.11471
0.346871
0.116441
0.354509
0.117764
0.362464
0.118677
0.370689
0.11918
0.119048
0.379103
0.33292
0.101472
0.339066
0.103924
0.345612
0.106035
0.352532
0.10779
0.359795
0.109178
0.367364
0.110195
0.375199
0.110841
0.383257
0.111122
0.110839
0.391465
0.345293
0.0955799
0.351557
0.0976611
0.358171
0.0994221
0.365108
0.100853
0.372338
0.101948
0.379825
0.102706
0.387534
0.103132
0.395424
0.10323
0.102831
0.403432
0.351388
0.0875149
0.357411
0.0895589
0.363761
0.0913129
0.370415
0.0927689
0.377347
0.0939212
0.384527
0.0947675
0.391923
0.0953099
0.399501
0.095554
0.407223
0.0955066
0.0950206
0.415033
0.363171
0.0817025
0.369292
0.0834397
0.3757
0.0849064
0.382371
0.0860981
0.38928
0.0870121
0.396399
0.0876491
0.403695
0.0880129
0.411138
0.0881104
0.418694
0.0879493
0.0874033
0.426311
0.374766
0.0757812
0.380959
0.0772474
0.387403
0.0784632
0.394074
0.0794273
0.400946
0.0801395
0.407993
0.0806021
0.415184
0.0808204
0.422492
0.080802
0.429884
0.0805553
0.0799722
0.437314
0.386197
0.0697743
0.392443
0.0710022
0.398905
0.0720005
0.405562
0.0727702
0.412387
0.0733129
0.419356
0.0736323
0.42644
0.0737345
0.433612
0.0736275
0.440846
0.0733199
0.0727195
0.448097
0.397497
0.0636999
0.403779
0.0647195
0.410247
0.0655305
0.41688
0.0661358
0.423652
0.0665381
0.43054
0.0667421
0.437518
0.0667542
0.444559
0.0665827
0.45164
0.0662358
0.0656357
0.458722
0.408703
0.0575715
0.41501
0.0584101
0.421476
0.0590612
0.428079
0.0595288
0.434797
0.0598167
0.441605
0.05993
0.44848
0.0598752
0.455398
0.0596603
0.462336
0.0592934
0.0587088
0.46926
0.419858
0.0513977
0.426183
0.0520799
0.432643
0.0525955
0.439217
0.0529496
0.445882
0.0531463
0.452616
0.0531907
0.459395
0.0530894
0.4662
0.0528499
0.473008
0.0524798
0.0519243
0.479787
0.431009
0.0451824
0.437351
0.0457302
0.443807
0.0461324
0.450354
0.0463942
0.456973
0.04652
0.463641
0.0465149
0.470337
0.0463851
0.477042
0.0461374
0.483735
0.0457788
0.045264
0.490389
0.442208
0.0389248
0.448571
0.0393577
0.455027
0.0396656
0.461557
0.039854
0.46814
0.0399269
0.474756
0.0398892
0.481384
0.0397466
0.488006
0.0395051
0.494604
0.0391712
0.0387076
0.501152
0.453513
0.0326192
0.459904
0.0329541
0.466372
0.0331847
0.472897
0.0333159
0.479459
0.0333515
0.48604
0.033296
0.492619
0.0331541
0.499181
0.0329314
0.505707
0.0326331
0.0322294
0.512174
0.464982
0.0262551
0.471414
0.0265067
0.477908
0.0266744
0.484446
0.0267624
0.491007
0.0267742
0.497574
0.0267135
0.504128
0.0265845
0.510653
0.0263916
0.517133
0.0261393
0.0258045
0.523545
0.476686
0.0198172
0.483176
0.0199974
0.489717
0.020114
0.49629
0.0201706
0.502875
0.0201698
0.509456
0.0201147
0.516014
0.0200083
0.522534
0.0198542
0.529001
0.0196556
0.0193951
0.535395
0.488685
0.0132857
0.495256
0.0134042
0.501868
0.0134795
0.508502
0.0135143
0.51514
0.0135104
0.521763
0.01347
0.528355
0.0133953
0.5349
0.0132889
0.541383
0.0131532
0.0129772
0.547783
0.501062
0.00663415
0.507743
0.00669762
0.514459
0.00673866
0.521189
0.0067587
0.527916
0.00675878
0.534622
0.00673999
0.54129
0.00670355
0.547905
0.00665067
0.554454
0.00658256
0.00649396
0.560917
0.505659
0.512329
0.51904
0.525771
0.532503
0.539217
0.545895
0.55252
0.559078
0.56555
0.0770124
0.343975
0.0723943
0.348652
0.0728793
0.0739272
0.353441
0.357571
0.0679009
0.362123
0.0683267
0.069259
0.366789
0.370689
0.0635286
0.375116
0.0638992
0.0647237
0.379649
0.383353
0.0592763
0.387655
0.0595963
0.0603189
0.392059
0.395601
0.0551381
0.399782
0.0554148
0.0560443
0.404055
0.40746
0.0511079
0.411527
0.0513476
0.0518968
0.415674
0.418954
0.0471855
0.42291
0.0473914
0.0478684
0.426938
0.430127
0.0433684
0.433974
0.043544
0.0439547
0.437887
0.441029
0.0396517
0.444773
0.0398006
0.0401522
0.448575
0.451716
0.0360307
0.45536
0.0361563
0.0364553
0.459057
0.46225
0.0325001
0.465801
0.0326052
0.0328579
0.469399
0.472704
0.0290531
0.476168
0.0291404
0.0293523
0.479674
0.483155
0.025682
0.486541
0.0257536
0.0259297
0.489964
0.49369
0.0223773
0.497006
0.0224352
0.0225799
0.500357
0.504397
0.0191279
0.507656
0.0191737
0.0192907
0.510945
0.515375
0.0159217
0.518589
0.0159568
0.0160495
0.521829
0.526717
0.0127429
0.529901
0.0127686
0.0128393
0.53311
0.538551
0.00957824
0.541719
0.00959583
0.00964728
0.544909
0.550949
0.00640368
0.554124
0.00641379
0.00644604
0.557323
0.5641
0.00321033
0.567292
0.00321379
0.00322933
0.570505
0.568749
0.571955
0.575179
0.153596
0.37653
0.143853
0.386429
0.14993
0.396072
0.155263
0.159831
0.38919
0.134311
0.399131
0.139986
0.409224
0.145167
0.419199
0.14985
0.428784
0.153879
0.157115
0.401332
0.125037
0.41109
0.130225
0.421198
0.135056
0.431492
0.139552
0.441779
0.143586
0.451854
0.147034
0.461519
0.14977
0.151685
0.413043
0.116049
0.422525
0.120741
0.432427
0.125151
0.442661
0.129314
0.453108
0.133134
0.463625
0.136512
0.474051
0.139338
0.484227
0.141502
0.142912
0.424375
0.107349
0.43355
0.111565
0.443154
0.115546
0.453139
0.119326
0.463437
0.122833
0.473955
0.125989
0.484582
0.128706
0.495191
0.130888
0.132447
0.435364
0.0989234
0.444233
0.102697
0.453511
0.106266
0.463172
0.109664
0.473173
0.11283
0.483456
0.115703
0.493945
0.118212
0.504551
0.120278
0.121825
0.446053
0.0907591
0.454626
0.0941243
0.463582
0.0973107
0.472899
0.100345
0.482551
0.103177
0.492496
0.105756
0.502682
0.108023
0.513043
0.109913
0.111365
0.456493
0.0828441
0.464785
0.0858332
0.47343
0.0886657
0.482413
0.0913629
0.491709
0.0938807
0.501288
0.096176
0.511109
0.0981998
0.521122
0.0998981
0.10122
0.466739
0.0751646
0.474768
0.0778069
0.483122
0.0803128
0.491787
0.0826983
0.500743
0.0849247
0.509964
0.0869553
0.519415
0.0887485
0.529053
0.0902585
0.0914434
0.476861
0.0677048
0.484643
0.0700269
0.492727
0.0722309
0.501098
0.0743283
0.509738
0.0762856
0.518623
0.0780711
0.527722
0.0796496
0.536999
0.0809821
0.0820339
0.486934
0.0604473
0.49449
0.0624727
0.502326
0.064397
0.510429
0.0662276
0.51878
0.0679356
0.527358
0.0694941
0.536135
0.0708732
0.545078
0.07204
0.0729658
0.497042
0.0533717
0.504395
0.0551216
0.512008
0.0567855
0.519869
0.0583681
0.527962
0.0598444
0.536266
0.0611919
0.544755
0.0623853
0.553399
0.063397
0.0642038
0.507274
0.0464552
0.514449
0.0479481
0.521868
0.0493686
0.529518
0.0507194
0.537385
0.0519792
0.545449
0.0531294
0.553687
0.0541489
0.56207
0.0550148
0.0557082
0.517728
0.0396721
0.524754
0.0409237
0.532008
0.0421155
0.53948
0.0432483
0.547156
0.0443047
0.555017
0.0452692
0.563043
0.0461247
0.571207
0.0468523
0.0474373
0.528507
0.0329934
0.535414
0.0340174
0.542537
0.0349924
0.549866
0.035919
0.557389
0.0367828
0.565087
0.0375714
0.572942
0.038271
0.580929
0.0388666
0.0393469
0.539714
0.0263869
0.546537
0.0271937
0.553566
0.0279624
0.560792
0.0286923
0.568202
0.0293724
0.575781
0.029993
0.583508
0.0305435
0.591363
0.0310122
0.0313907
0.551475
0.0198172
0.55825
0.0204158
0.565225
0.0209855
0.572389
0.0215262
0.579731
0.0220295
0.587234
0.0224885
0.594882
0.0228952
0.602652
0.0232412
0.0235204
0.563891
0.0132433
0.570664
0.013639
0.577629
0.0140167
0.584778
0.0143741
0.592098
0.014706
0.599576
0.0150081
0.607194
0.0152753
0.614932
0.0155019
0.0156842
0.57712
0.00662078
0.583931
0.00682238
0.590931
0.00701072
0.598113
0.00718762
0.605463
0.00735164
0.612966
0.00750058
0.620606
0.00763165
0.628363
0.00774196
0.00782964
0.581791
0.588606
0.59561
0.602791
0.610137
0.617632
0.625259
0.632996
)
;

boundaryField
{
    inlet
    {
        type            calculated;
        value           nonuniform 0();
    }
    outlet
    {
        type            calculated;
        value           nonuniform 0();
    }
    flap
    {
        type            calculated;
        value           nonuniform 0();
    }
    upperWall
    {
        type            calculated;
        value           nonuniform List<scalar> 
22
(
0
0
0
-7.09406e-15
0
0
0
-6.38107e-15
0
0
0
0
0
0
0
0
0
6.55781e-15
0
-6.84016e-15
0
0
)
;
    }
    lowerWall
    {
        type            calculated;
        value           nonuniform 0();
    }
    frontAndBack
    {
        type            empty;
        value           nonuniform 0();
    }
    procBoundary1to0
    {
        type            processor;
        value           nonuniform List<scalar> 
18
(
-0.327191
-0.339399
-0.0931903
-0.345711
-0.357357
-0.368843
-0.38019
-0.391424
-0.402578
-0.413689
-0.424802
-0.435962
-0.447222
-0.458636
-0.470268
-0.482177
-0.494438
-0.499055
)
;
    }
    procBoundary1to2
    {
        type            processor;
        value           nonuniform List<scalar> 
17
(
0.494005
0.505651
0.515168
0.523501
0.531266
0.538829
0.546409
0.554148
0.562163
0.570569
0.579481
0.589022
0.599322
0.610524
0.622769
0.636217
0.640824
)
;
    }
    procBoundary1to3
    {
        type            processor;
        value           nonuniform List<scalar> 9(-0.208705 -0.222281 -0.235872 -0.249416 -0.262848 -0.276129 -0.289219 -0.302096 -0.314757);
    }
    procBoundary1to4
    {
        type            processor;
        value           nonuniform List<scalar> 
30
(
-0.141501
0.209883
-0.148691
-0.156932
0.23147
-0.159704
-0.166018
0.259605
-0.164036
-0.167986
0.291655
-0.162022
-0.163336
-0.0817583
0.329874
-0.0775575
-0.0787174
-0.163347
0.36319
-0.159832
-0.16491
-0.168845
0.405082
-0.16347
-0.166065
0.437727
-0.159442
-0.160775
0.470601
-0.152697
)
;
    }
}


// ************************************************************************* //
