/*--------------------------------*- C++ -*----------------------------------*\
| =========                 |                                                 |
| \\      /  F ield         | OpenFOAM: The Open Source CFD Toolbox           |
|  \\    /   O peration     | Version:  dev                                   |
|   \\  /    A nd           | Web:      www.OpenFOAM.org                      |
|    \\/     M anipulation  |                                                 |
\*---------------------------------------------------------------------------*/
FoamFile
{
    version     2.0;
    format      ascii;
    class       volVectorField;
    location    "0.82";
    object      U;
}
// * * * * * * * * * * * * * * * * * * * * * * * * * * * * * * * * * * * * * //

dimensions      [0 1 -1 0 0 0 0];

internalField   nonuniform List<vector> 
465
(
(9.37028 2.30622e-19 5.17126)
(9.68275 -2.25386e-19 5.13422)
(9.75869 0 5.57229)
(9.86453 0 6.03138)
(9.98113 1.05972e-19 5.06465)
(10.0857 -1.07814e-19 5.47313)
(10.2193 0 5.89613)
(10.3858 2.08997e-19 6.33023)
(10.5891 2.04353e-19 6.77068)
(10.2625 -5.17122e-20 4.96635)
(10.3904 0 5.3448)
(10.5455 2.01602e-19 5.73254)
(10.7305 -4.1143e-19 6.12609)
(10.9476 -5.96434e-19 6.52111)
(11.1983 4.00642e-19 6.91257)
(11.483 -9.68764e-20 7.2944)
(10.5248 -2.48558e-20 4.84294)
(10.6715 0 5.19181)
(10.843 -1.93798e-19 5.54584)
(11.0413 7.78139e-19 5.90184)
(11.2674 -3.91231e-19 6.25607)
(11.5219 -9.4155e-20 6.60443)
(11.8049 4.55748e-19 6.94253)
(12.1106 -3.70306e-19 7.26591)
(12.4802 3.40775e-19 7.57248)
(10.7667 -1.87927e-19 4.69779)
(10.9281 1.91475e-19 5.01802)
(11.1119 1.87448e-19 5.34031)
(11.3194 0 5.66177)
(11.5509 0 5.97924)
(11.8065 1.29001e-21 6.28938)
(12.0858 -9.04638e-20 6.58878)
(12.3838 -8.74941e-20 6.87396)
(12.7386 3.32728e-19 7.14359)
(10.9876 0 4.53405)
(11.1601 -1.81249e-19 4.82687)
(11.3528 -5.43123e-19 5.11945)
(11.5662 9.67462e-21 5.40923)
(11.8003 3.63621e-19 5.6935)
(12.0548 1.13935e-21 5.96955)
(12.329 0 6.2347)
(12.6185 8.57146e-20 6.48628)
(12.959 -4.16213e-20 6.72349)
(11.1872 -1.71175e-19 4.35453)
(11.3679 7.07852e-19 4.62137)
(11.5665 0 4.88627)
(11.7832 -3.44527e-19 5.14699)
(12.0177 3.51177e-19 5.40127)
(12.2694 8.6178e-20 5.64687)
(12.5374 0 5.88168)
(12.818 -6.50696e-19 6.10362)
(13.1445 1.10223e-19 6.31227)
(11.3656 -3.36495e-19 4.16168)
(11.552 5.08073e-19 4.40407)
(11.7542 -3.42724e-19 4.64328)
(11.9721 0 4.87741)
(12.2052 8.32974e-20 5.10454)
(12.4527 0 5.32287)
(12.7138 0 5.53071)
(12.9852 6.33653e-19 5.72641)
(13.298 -1.30561e-18 5.90984)
(11.5231 -5.97887e-21 3.95766)
(11.7131 -8.81705e-20 4.17716)
(11.917 -6.55031e-19 4.39262)
(12.1344 4.11373e-19 4.60241)
(12.3647 -8.15901e-20 4.80498)
(12.6071 0 4.99882)
(12.8608 0 5.1826)
(13.1227 -6.56451e-19 5.35501)
(13.4222 1.23484e-18 5.51613)
(11.6606 0 3.74443)
(11.8525 3.93871e-19 3.94256)
(12.0564 -3.20266e-19 4.13608)
(12.2719 -7.94701e-20 4.32364)
(12.4984 -6.20479e-19 4.50393)
(12.735 6.3255e-19 4.67576)
(12.9808 3.85152e-20 4.83803)
(13.2332 6.78088e-19 4.98973)
(13.5197 -6.13437e-19 5.13108)
(11.5975 7.60121e-20 3.3417)
(11.7789 -3.03781e-19 3.52371)
(11.9712 6.13821e-19 3.70193)
(12.1739 -3.09999e-19 3.87522)
(12.3866 -7.61761e-20 4.04245)
(12.6084 -5.26204e-19 4.20255)
(12.8386 6.13868e-19 4.35454)
(13.0763 -3.77297e-20 4.49757)
(13.3192 -3.73319e-20 4.63082)
(13.5932 5.41152e-19 4.75462)
(11.6973 -3.72553e-19 3.13316)
(11.8793 0 3.29698)
(12.0708 -5.88742e-19 3.4567)
(12.2713 6.00603e-19 3.61134)
(12.4802 1.48489e-19 3.75999)
(12.6967 -1.48008e-19 3.90175)
(12.9202 -3.66789e-20 4.03586)
(13.1497 6.13592e-19 4.16162)
(13.3833 -5.88285e-19 4.2784)
(13.6451 3.60096e-20 4.38661)
(11.7816 0 2.91876)
(11.9631 7.15448e-20 3.06553)
(12.1529 0 3.20806)
(12.3503 5.70675e-19 3.34554)
(12.5548 -1.29604e-18 3.47719)
(12.7657 6.53329e-19 3.60231)
(12.9822 2.52307e-22 3.72026)
(13.2035 -3.57114e-20 3.83051)
(13.4278 0 3.93257)
(13.6781 0 4.02688)
(11.8515 0 2.69961)
(12.0317 -6.41944e-22 2.83045)
(12.219 5.53574e-19 2.95703)
(12.4128 5.87093e-20 3.07869)
(12.6125 5.86052e-20 3.1948)
(12.8175 -5.64585e-19 3.30478)
(13.0269 6.9641e-20 3.40813)
(13.2401 0 3.50443)
(13.4555 0 3.59331)
(13.6947 -1.71034e-20 3.67524)
(11.9085 -6.01077e-19 2.47668)
(12.0867 -5.8725e-20 2.59261)
(12.271 5.47124e-19 2.7044)
(12.4608 4.69784e-19 2.81149)
(12.6554 -5.48923e-19 2.91336)
(12.8543 0 3.00956)
(13.0568 -3.39865e-20 3.09969)
(13.2621 -5.33895e-19 3.18343)
(13.4689 1.30641e-20 3.26049)
(13.6975 5.41891e-19 3.33136)
(11.9538 6.55917e-20 2.25071)
(12.1296 -5.20396e-19 2.35271)
(12.3105 5.96848e-19 2.45076)
(12.496 0 2.5444)
(12.6855 5.23129e-19 2.63322)
(12.8784 -5.33732e-19 2.71686)
(13.074 0 2.795)
(13.2717 0 2.86739)
(13.4704 0 2.93384)
(13.6892 1.63574e-20 2.99481)
(11.9889 5.11221e-19 2.0223)
(12.1619 0 2.11126)
(12.3393 4.43028e-19 2.19653)
(12.5204 -9.37811e-21 2.27775)
(12.7048 -5.18822e-19 2.35457)
(12.8919 -5.09041e-19 2.42672)
(13.081 5.51378e-19 2.49396)
(13.2715 1.60105e-20 2.55609)
(13.4625 -5.06195e-19 2.61298)
(13.6721 5.32204e-19 2.66507)
(12.0153 0 1.7918)
(12.1853 0 1.86852)
(12.359 0 1.94188)
(12.5359 5.25703e-19 2.01157)
(12.7154 -1.00023e-18 2.07733)
(12.8968 9.77031e-21 2.13894)
(13.0798 4.74482e-19 2.19622)
(13.2636 -1.56716e-20 2.24903)
(13.4475 0 2.29727)
(13.6487 -1.5598e-20 2.34136)
(12.0341 0 1.55955)
(12.2012 -3.00465e-20 1.62476)
(12.3714 -3.01842e-20 1.68695)
(12.5442 -3.04424e-20 1.74591)
(12.7189 4.82465e-19 1.80142)
(12.8952 2.11369e-20 1.85332)
(13.0724 -4.92925e-19 1.90147)
(13.2501 1.52323e-20 1.94577)
(13.4275 4.67228e-19 1.98615)
(13.6211 -9.80209e-19 2.023)
(12.0469 4.40634e-19 1.3253)
(12.2111 2.93833e-20 1.37959)
(12.3779 -4.37648e-19 1.43128)
(12.5468 4.76979e-19 1.48018)
(12.7173 -2.9598e-20 1.52613)
(12.8888 -2.97693e-20 1.56901)
(13.0609 0 1.60871)
(13.2331 -4.02496e-23 1.64517)
(13.4047 3.30121e-23 1.67834)
(13.5916 7.43733e-21 1.70857)
(12.0547 -3.93637e-19 1.08964)
(12.2163 -2.13222e-20 1.13354)
(12.38 4.33884e-19 1.17526)
(12.5454 0 1.21466)
(12.712 4.33696e-20 1.25164)
(12.8793 0 1.28609)
(13.0468 -4.59707e-19 1.31794)
(13.2142 4.54522e-19 1.34714)
(13.3807 -4.52654e-19 1.37368)
(13.5617 1.04644e-20 1.39784)
(12.0589 -2.50312e-19 0.850781)
(12.218 8.31242e-23 0.884671)
(12.379 2.49669e-19 0.91683)
(12.5413 -2.26363e-19 0.947158)
(12.7046 -2.23343e-19 0.975569)
(12.8683 2.27941e-19 1.002)
(13.0319 -2.24247e-19 1.02639)
(13.1952 2.28821e-19 1.04872)
(13.3576 -4.41982e-19 1.06896)
(13.5337 4.58098e-19 1.08737)
(12.0602 2.03511e-19 0.611333)
(12.2172 2.42162e-19 0.635552)
(12.3759 -3.49941e-21 0.65852)
(12.5356 -2.20699e-19 0.680167)
(12.6961 2.0406e-19 0.700436)
(12.8567 -2.15453e-19 0.719282)
(13.0172 -2.25744e-19 0.736672)
(13.1771 2.30228e-19 0.752586)
(13.3359 0 0.767017)
(13.5079 0 0.780153)
(12.0599 1.18912e-19 0.364813)
(12.2152 0 0.379341)
(12.372 9.8754e-20 0.393087)
(12.5297 1.10761e-19 0.406014)
(12.688 -2.22858e-19 0.418091)
(12.8465 -2.19828e-19 0.429295)
(13.0046 2.24242e-19 0.439612)
(13.162 -2.20643e-19 0.449036)
(13.3184 4.32306e-19 0.457567)
(13.4875 -4.6462e-21 0.465346)
(11.873 -7.5387e-22 0.122174)
(12.0237 -7.9016e-22 0.127464)
(12.176 -9.74551e-20 0.132475)
(12.3295 4.61303e-20 0.137194)
(12.4837 5.85591e-20 0.141605)
(12.6381 -5.3088e-20 0.145699)
(12.7922 0 0.149468)
(12.9458 0 0.152907)
(13.0984 0 0.156007)
(13.2635 5.23686e-20 0.158826)
(12.6937 -6.00511e-19 7.7122)
(12.9422 -6.20708e-19 7.26702)
(13.137 0 7.3846)
(13.3032 -3.38263e-20 7.4969)
(13.1532 -5.1878e-19 6.83231)
(13.3388 5.53414e-19 6.93603)
(13.4971 1.06368e-18 7.03534)
(13.3296 1.12844e-20 6.40807)
(13.5064 1.08093e-18 6.49927)
(13.657 1.04339e-18 6.5865)
(13.4744 2.15639e-18 5.99408)
(13.6428 -1.05591e-18 6.07414)
(13.7861 1.59009e-20 6.15054)
(13.5903 -2.10517e-18 5.5901)
(13.7506 1.03167e-18 5.66027)
(13.887 9.72012e-19 5.72708)
(13.6799 3.40154e-23 5.19594)
(13.8325 0 5.25733)
(13.9623 0 5.31561)
(13.7458 -1.00617e-18 4.81138)
(13.8911 0 4.86498)
(14.0145 -9.33854e-19 4.91571)
(13.7905 1.52305e-20 4.43617)
(13.9288 0 4.48286)
(14.0463 -1.46307e-20 4.52692)
(13.8167 0 4.07004)
(13.9483 -7.28912e-21 4.1106)
(14.0601 0 4.14875)
(13.8268 -7.25923e-21 3.71268)
(13.9521 7.13804e-21 3.74779)
(14.0586 7.0171e-21 3.78071)
(13.8235 7.10902e-21 3.36371)
(13.943 -8.80107e-19 3.39397)
(14.0445 8.79092e-19 3.42226)
(13.8094 -8.81789e-19 3.02262)
(13.9234 8.74054e-19 3.04855)
(14.0202 0 3.07273)
(13.787 0 2.6888)
(13.896 0 2.71088)
(13.9885 8.3853e-19 2.7314)
(13.7588 0 2.36142)
(13.8631 3.26523e-21 2.38005)
(13.9517 -8.20886e-19 2.39731)
(13.7269 8.35566e-19 2.03975)
(13.8271 -3.19625e-21 2.05528)
(13.9121 0 2.06962)
(13.6935 0 1.72229)
(13.79 0 1.73498)
(13.872 0 1.74668)
(13.6602 1.00283e-20 1.40881)
(13.7536 7.8701e-19 1.41894)
(13.8329 3.01783e-21 1.42824)
(13.6295 0 1.0957)
(13.7202 0 1.10336)
(13.7972 -7.54856e-19 1.1104)
(13.6014 0 0.786103)
(13.6901 3.71416e-19 0.791561)
(13.7654 -3.71307e-19 0.796551)
(13.5794 -3.71856e-19 0.468794)
(13.6663 0 0.471891)
(13.7401 -3.59803e-19 0.474698)
(13.3533 -1.81486e-19 0.160013)
(13.4383 9.01079e-20 0.161048)
(13.5106 6.91844e-22 0.161999)
(13.6109 -2.50486e-19 7.70299)
(13.7925 -8.80343e-19 7.22603)
(14.1205 2.77875e-19 7.39128)
(14.4877 -2.24054e-19 7.51765)
(14.85 2.34841e-19 7.59546)
(13.9381 -1.14712e-18 6.75676)
(14.2544 5.65606e-19 6.91224)
(14.6188 -1.53457e-20 7.04299)
(14.9951 0 7.14038)
(15.3619 1.97374e-19 7.19802)
(15.7108 -1.93482e-19 7.21139)
(14.0529 0 6.30015)
(14.3536 -1.64953e-20 6.4399)
(14.7043 -1.54651e-20 6.56281)
(15.0751 -7.13387e-21 6.66229)
(15.4488 -3.98877e-19 6.73292)
(15.8196 3.0156e-20 6.76989)
(16.1819 3.64287e-19 6.76927)
(16.5293 0 6.72846)
(14.1401 -5.6547e-19 5.8576)
(14.4246 5.11103e-19 5.98048)
(14.7575 -5.00436e-19 6.09066)
(15.1131 6.99424e-21 6.18324)
(15.4777 8.1959e-22 6.25419)
(15.8478 0 6.29952)
(16.2202 3.97241e-22 6.31535)
(16.5894 1.98193e-20 6.29837)
(16.9496 -2.44658e-19 6.24616)
(14.2024 -5.53615e-19 5.42902)
(14.4712 5.41336e-19 5.53595)
(14.7853 -4.56213e-19 5.63242)
(15.1222 4.57856e-19 5.71464)
(15.47 8.34323e-22 5.77965)
(15.8272 0 5.82445)
(16.1922 3.26415e-19 5.84586)
(16.5614 -3.4989e-19 5.84077)
(16.93 -2.72158e-19 5.80649)
(14.2424 5.78033e-19 5.01394)
(14.4962 4.98364e-19 5.10645)
(14.7922 -4.87902e-19 5.18994)
(15.1097 3.46402e-21 5.26127)
(15.4382 4.01973e-19 5.31814)
(15.7769 -4.01396e-19 5.35834)
(16.1257 3.41842e-19 5.37936)
(16.4821 -6.46608e-19 5.37866)
(16.8428 2.87532e-19 5.35382)
(14.2626 -3.28879e-20 4.61179)
(14.5024 -1.56038e-20 4.69153)
(14.7813 0 4.76332)
(15.0801 4.32027e-19 4.82444)
(15.3891 -4.2319e-19 4.87305)
(15.708 5.94302e-21 4.9074)
(16.037 3.4492e-19 4.92554)
(16.3749 -3.38072e-19 4.92543)
(16.7191 2.8875e-19 4.90508)
(14.2655 1.61276e-20 4.22188)
(14.4923 -7.69892e-21 4.2904)
(14.7553 -4.56078e-19 4.35186)
(15.0366 8.74944e-19 4.40391)
(15.3271 -4.19489e-19 4.44495)
(15.6265 0 4.47358)
(15.9355 0 4.48824)
(16.2531 0 4.48728)
(16.5776 0 4.46908)
(14.2538 0 3.84351)
(14.4685 1.51094e-20 3.90219)
(14.7167 0 3.95463)
(14.9818 0 3.99874)
(15.2551 0 4.03316)
(15.5364 0 4.05673)
(15.8262 3.4681e-19 4.06815)
(16.1242 -3.39991e-19 4.06608)
(16.4287 0 4.04919)
(14.2301 -4.90787e-19 3.47596)
(14.4336 4.73435e-19 3.52602)
(14.6682 4.43217e-19 3.57058)
(14.9184 -4.34066e-19 3.60781)
(15.176 0 3.63654)
(15.4405 5.93652e-21 3.65579)
(15.7128 1.1143e-20 3.66449)
(15.9924 3.22334e-19 3.66153)
(16.2781 -3.35501e-19 3.64579)
(14.197 0 3.11843)
(14.3902 4.59421e-19 3.16091)
(14.6124 -4.50163e-19 3.1986)
(14.849 -2.04598e-22 3.22987)
(15.0922 0 3.25374)
(15.3416 -1.16922e-20 3.26937)
(15.5979 -2.19771e-20 3.27589)
(15.8609 3.32061e-19 3.27235)
(16.1294 3.18745e-21 3.25785)
(14.1571 -4.89847e-19 2.77003)
(14.3409 4.50955e-19 2.80586)
(14.5518 -4.4021e-19 2.83754)
(14.7761 0 2.86366)
(15.0064 0 2.88337)
(15.2421 5.75548e-21 2.896)
(15.484 3.41196e-19 2.9008)
(15.7321 -3.44836e-19 2.89701)
(15.9852 -2.79762e-19 2.88386)
(14.113 1.7273e-20 2.42968)
(14.2882 4.53097e-19 2.45964)
(14.489 -1.66867e-21 2.48604)
(14.7023 0 2.50769)
(14.9209 3.79027e-19 2.52385)
(15.1444 -7.29874e-19 2.53398)
(15.3736 3.62024e-19 2.53746)
(15.6084 0 2.53366)
(15.8478 -3.16371e-19 2.52197)
(14.0668 -4.52726e-19 2.09642)
(14.2344 8.77457e-19 2.12117)
(14.4262 -4.23395e-19 2.14294)
(14.6297 0 2.16068)
(14.8381 0 2.17381)
(15.0509 0 2.18186)
(15.2689 3.2298e-19 2.18435)
(15.492 -6.41419e-19 2.18075)
(15.7195 2.26283e-20 2.17056)
(14.0208 -3.49681e-21 1.76846)
(14.1818 0 1.78857)
(14.3656 4.03937e-19 1.8062)
(14.5606 -3.96005e-19 1.8205)
(14.7601 0 1.83099)
(14.9636 -3.42204e-19 1.8373)
(15.1719 3.46176e-19 1.83904)
(15.385 3.10281e-19 1.83578)
(15.6022 -3.04258e-19 1.82714)
(13.9768 3.42107e-21 1.44551)
(14.1321 1.64494e-21 1.46143)
(14.3092 3.93596e-22 1.47537)
(14.497 -1.49931e-21 1.48663)
(14.6889 -2.86054e-21 1.49484)
(14.8845 1.90344e-23 1.49969)
(15.0846 5.13571e-21 1.50089)
(15.2892 0 1.49811)
(15.4977 -1.83683e-20 1.49104)
(13.9368 4.32429e-19 1.12346)
(14.0874 4.05571e-19 1.13551)
(14.2589 -3.99158e-19 1.14604)
(14.4406 0 1.15451)
(14.6263 2.79817e-21 1.16063)
(14.8155 -5.32002e-21 1.16419)
(15.0089 0 1.16496)
(15.2065 -4.79701e-21 1.16268)
(15.4078 -4.80083e-23 1.15714)
(13.9019 0 0.805756)
(14.0487 1.99171e-19 0.814285)
(14.2158 -1.95538e-19 0.821745)
(14.3928 0 0.827736)
(14.5736 1.73075e-19 0.832054)
(14.7577 -1.69714e-19 0.834558)
(14.9458 1.53585e-19 0.835087)
(15.138 -2.91363e-19 0.833467)
(15.3338 2.93116e-19 0.829536)
(13.8739 2.07321e-19 0.479962)
(14.018 0 0.484981)
(14.1819 -1.38176e-22 0.489359)
(14.3554 0 0.492813)
(14.5326 1.69373e-19 0.495244)
(14.7129 -1.67368e-19 0.496583)
(14.8972 2.42641e-21 0.496736)
(15.0854 1.4244e-19 0.495601)
(15.2772 -5.29908e-21 0.493082)
(13.6414 4.89018e-20 0.163919)
(13.7819 -4.87245e-20 0.165856)
(13.9416 4.51491e-23 0.167555)
(14.1109 0 0.168905)
(14.2838 0 0.169882)
(14.4598 1.25333e-21 0.170467)
(14.6394 0 0.170624)
(14.8229 -2.25837e-21 0.170315)
(15.0098 0 0.169504)
)
;

boundaryField
{
    inlet
    {
        type            fixedValue;
        value           nonuniform 0();
    }
    outlet
    {
        type            zeroGradient;
    }
    flap
    {
        type            movingWallVelocity;
        value           nonuniform 0();
    }
    upperWall
    {
        type            noSlip;
    }
    lowerWall
    {
        type            noSlip;
    }
    frontAndBack
    {
        type            empty;
    }
    procBoundary1to0
    {
        type            processor;
        value           nonuniform List<vector> 
18
(
(11.3471 -4.89247e-19 3.7357)
(11.4811 0 3.54305)
(11.4811 0 3.54305)
(11.4272 -4.59607e-19 3.15708)
(11.5251 -5.88674e-19 2.96626)
(11.6087 2.87107e-19 2.7686)
(11.6789 6.87387e-20 2.56526)
(11.7368 4.72109e-19 2.35721)
(11.7838 0 2.14526)
(11.8209 5.00553e-19 1.93006)
(11.8494 6.1064e-20 1.71204)
(11.8707 4.19892e-19 1.49162)
(11.8858 4.59794e-19 1.26861)
(11.8959 0 1.04373)
(11.9021 3.05266e-20 0.815282)
(11.9053 -1.64478e-20 0.585947)
(11.9064 1.9547e-19 0.349552)
(11.7244 -5.06237e-20 0.116627)
)
;
    }
    procBoundary1to2
    {
        type            processor;
        value           nonuniform List<vector> 
17
(
(17.2954 -1.14748e-19 6.15727)
(17.2932 2.42103e-19 5.7409)
(17.2039 -2.76438e-19 5.3027)
(17.0667 2.83185e-19 4.86261)
(16.9067 0 4.43208)
(16.738 2.9092e-19 4.01621)
(16.5684 2.58667e-19 3.61624)
(16.4021 2.93906e-19 3.23153)
(16.2422 0 2.86066)
(16.0909 0 2.50179)
(15.9504 -2.89428e-19 2.15333)
(15.8226 0 1.81273)
(15.7093 -8.67305e-21 1.47939)
(15.6122 8.48524e-21 1.1481)
(15.5326 1.36744e-19 0.823145)
(15.4719 2.62801e-19 0.489095)
(15.1994 0 0.168158)
)
;
    }
    procBoundary1to3
    {
        type            processor;
        value           nonuniform List<vector> 9((9.35234 0 4.7345) (9.63168 0 4.71887) (9.90152 0 4.67307) (10.1587 -5.08098e-20 4.59982) (10.401 -2.44077e-20 4.50193) (10.6266 0 4.38221) (10.8345 9.18382e-20 4.24338) (11.0241 1.74231e-19 4.08787) (11.1949 -1.68374e-19 3.91795));
    }
    procBoundary1to4
    {
        type            processor;
        value           nonuniform List<vector> 
30
(
(9.04756 7.30178e-19 5.17183)
(9.41173 4.6115e-19 5.63734)
(9.41173 4.6115e-19 5.63734)
(9.48284 -2.34413e-19 6.13231)
(10.006 0 6.50852)
(10.006 0 6.50852)
(10.1886 0 6.999)
(10.8323 2.08258e-19 7.21142)
(10.8323 2.08258e-19 7.21142)
(11.1164 -9.88744e-20 7.64374)
(11.7953 -9.39197e-20 7.66093)
(11.7953 -9.39197e-20 7.66093)
(12.1799 -4.39699e-19 8.00927)
(12.404 5.79173e-19 8.16655)
(12.8976 0 7.84446)
(12.8976 0 7.84446)
(13.0715 3.43796e-20 7.96913)
(13.3843 3.75212e-20 8.17499)
(13.9403 -5.78916e-19 7.86265)
(13.9403 -5.78916e-19 7.86265)
(14.288 2.58576e-19 7.96101)
(14.6028 0 7.99137)
(15.1821 0 7.61937)
(15.1821 0 7.61937)
(15.4751 1.73373e-19 7.58777)
(16.0354 0 7.1781)
(16.0354 0 7.1781)
(16.3294 0 7.09799)
(16.8556 0 6.64639)
(16.8556 0 6.64639)
)
;
    }
}


// ************************************************************************* //
