/*--------------------------------*- C++ -*----------------------------------*\
| =========                 |                                                 |
| \\      /  F ield         | OpenFOAM: The Open Source CFD Toolbox           |
|  \\    /   O peration     | Version:  dev                                   |
|   \\  /    A nd           | Web:      www.OpenFOAM.org                      |
|    \\/     M anipulation  |                                                 |
\*---------------------------------------------------------------------------*/
FoamFile
{
    version     2.0;
    format      ascii;
    class       volVectorField;
    location    "1.75";
    object      Force;
}
// * * * * * * * * * * * * * * * * * * * * * * * * * * * * * * * * * * * * * //

dimensions      [1 1 -2 0 0 0 0];

internalField   uniform (0 0 0);

boundaryField
{
    inlet
    {
        type            calculated;
        value           nonuniform 0();
    }
    outlet
    {
        type            calculated;
        value           nonuniform 0();
    }
    flap
    {
        type            calculated;
        value           nonuniform List<vector> 
33
(
(2.43417 2.58245e-22 -0.188338)
(2.38537 6.06561e-18 -0.467154)
(2.24963 2.40068e-21 -0.728934)
(2.03203 8.14942e-22 -0.912269)
(1.76981 2.99745e-17 -1.0111)
(1.50227 2.86218e-17 -1.03777)
(1.25602 4.22139e-21 -1.0125)
(1.04551 -1.45127e-22 -0.95514)
(0.872646 2.42297e-17 -0.880814)
(0.733363 9.40395e-38 -0.798639)
(0.620987 1.64377e-17 -0.71329)
(0.525419 4.38122e-18 -0.623822)
(0.435728 1.46154e-17 -0.52571)
(0.340432 0 -0.411302)
(0.225347 -6.19383e-22 -0.271094)
(0.633419 -2.1739e-18 0.513551)
(0.416122 1.16095e-17 0.335844)
(0.195993 6.78773e-19 0.159754)
(0.0314863 2.38263e-20 -0.00250215)
(0.0312888 4.79254e-20 -0.00620293)
(0.0308855 1.18677e-17 -0.0101535)
(0.0302815 1.22133e-17 -0.0137528)
(0.0295749 1.24989e-17 -0.0171038)
(0.0288648 1.01641e-19 -0.0202007)
(0.028247 3.30731e-22 -0.0230766)
(0.0277742 1.34864e-17 -0.0257531)
(0.027516 -1.40985e-17 -0.0282371)
(0.0275016 -1.46937e-39 -0.0305069)
(0.0276557 2.57832e-22 -0.032441)
(0.0279322 -2.72262e-22 -0.0339525)
(0.0283934 -2.45442e-19 -0.0351427)
(0.0298349 2.03306e-17 -0.0365757)
(0.040338 5.44731e-22 -0.0504347)
)
;
    }
    upperWall
    {
        type            calculated;
        value           nonuniform 0();
    }
    lowerWall
    {
        type            calculated;
        value           uniform (0 0 0);
    }
    frontAndBack
    {
        type            empty;
    }
    procBoundary4to1
    {
        type            processor;
        value           uniform (0 0 0);
    }
    procBoundary4to2
    {
        type            processor;
        value           uniform (0 0 0);
    }
    procBoundary4to3
    {
        type            processor;
        value           uniform (0 0 0);
    }
    procBoundary4to5
    {
        type            processor;
        value           uniform (0 0 0);
    }
}


// ************************************************************************* //
