/*--------------------------------*- C++ -*----------------------------------*\
| =========                 |                                                 |
| \\      /  F ield         | OpenFOAM: The Open Source CFD Toolbox           |
|  \\    /   O peration     | Version:  dev                                   |
|   \\  /    A nd           | Web:      www.OpenFOAM.org                      |
|    \\/     M anipulation  |                                                 |
\*---------------------------------------------------------------------------*/
FoamFile
{
    version     2.0;
    format      ascii;
    class       surfaceVectorField;
    location    "0.95";
    object      Uf;
}
// * * * * * * * * * * * * * * * * * * * * * * * * * * * * * * * * * * * * * //

dimensions      [0 1 -1 0 0 0 0];

internalField   nonuniform List<vector> 
5457
(
(9.91198 2.28068e-20 0.0228568)
(9.96253 -8.83037e-22 0.0379497)
(9.81408 3.90883e-21 0.0291581)
(9.92303 7.48369e-22 0.0435889)
(9.70381 1.62679e-20 0.0342533)
(9.85762 -3.41468e-20 0.050919)
(9.57898 1.6172e-20 0.0394979)
(9.7685 1.29247e-20 0.0597799)
(9.43957 -1.094e-20 0.04491)
(9.66267 3.39072e-21 0.0691946)
(9.28582 1.12907e-21 0.0505367)
(9.54231 6.94988e-21 0.0790579)
(9.11754 6.64678e-21 0.0565176)
(9.40692 7.35397e-21 0.0895993)
(8.93422 8.73259e-21 0.0629839)
(9.25573 -7.5833e-21 0.101035)
(8.73516 -5.31284e-21 0.0700516)
(9.08807 3.17832e-20 0.113527)
(8.5195 -2.02317e-20 0.0778386)
(8.90319 8.50905e-21 0.127253)
(8.2862 0 0.0864656)
(8.70024 -6.80879e-20 0.142398)
(8.03412 0 0.0960594)
(8.47822 7.15537e-20 0.159144)
(7.76199 2.4843e-21 0.10676)
(8.23593 6.86927e-22 0.177688)
(7.46845 7.59062e-21 0.118721)
(7.97207 -7.70399e-20 0.198246)
(7.15202 -5.81613e-21 0.132111)
(7.68523 6.34076e-23 0.221041)
(6.81118 8.32324e-22 0.147104)
(7.37391 -2.11996e-20 0.246299)
(6.44438 1.09587e-20 0.163873)
(7.03654 -1.7672e-19 0.274225)
(6.05012 2.47112e-20 0.182575)
(6.67152 1.82641e-19 0.304975)
(5.62708 2.39444e-20 0.203336)
(6.27736 4.80041e-22 0.338617)
(5.17424 0 0.226235)
(5.8527 0 0.375091)
(4.69102 -1.12998e-19 0.25127)
(5.39651 0 0.414151)
(4.17751 6.418e-21 0.278329)
(4.90824 -5.48185e-19 0.455291)
(3.63468 1.13316e-19 0.307128)
(4.38796 5.648e-19 0.497645)
(3.06471 -3.15695e-19 0.33714)
(3.83663 0 0.539841)
(2.47137 1.38886e-20 0.367465)
(3.25644 7.23982e-19 0.579812)
(1.86055 2.51136e-19 0.396485)
(2.65124 2.65524e-19 0.614453)
(1.24114 -2.00498e-19 0.419284)
(2.02669 1.71824e-21 0.638927)
(0.627957 -1.34421e-19 0.388731)
(1.39393 -2.23518e-18 0.643089)
(0.0783333 0 0.0484699)
(0.699597 9.21517e-19 0.567963)
(0.301527 2.79744e-19 0.0875614)
(10.0005 -2.27213e-20 0.0465588)
(9.99255 -2.31257e-20 0.0377039)
(9.96785 -3.79823e-20 0.0613554)
(9.98129 1.19439e-20 0.0581221)
(9.91668 -3.66114e-20 0.0741159)
(9.94738 -2.48789e-20 0.0745266)
(9.84861 -1.85111e-23 0.087714)
(9.89007 -1.88624e-23 0.0923537)
(9.76362 2.13405e-20 0.102149)
(9.81531 2.68818e-20 0.111351)
(9.66186 1.31816e-20 0.117464)
(9.7253 7.14876e-21 0.131362)
(9.5432 -7.143e-21 0.133946)
(9.61981 -3.62129e-20 0.152754)
(9.40729 1.6154e-20 0.151884)
(9.49824 3.01699e-20 0.175923)
(9.25354 4.51881e-20 0.171544)
(9.36003 3.15935e-20 0.201208)
(9.08115 -4.06772e-20 0.193196)
(9.20451 5.36143e-20 0.228971)
(8.8892 5.82228e-21 0.217119)
(9.03098 -6.80987e-20 0.259574)
(8.6766 7.10348e-20 0.243599)
(8.83856 7.15659e-20 0.293392)
(8.44215 -8.01554e-20 0.272949)
(8.62615 -1.4828e-19 0.330836)
(8.1845 -8.33154e-20 0.305503)
(8.39256 7.36778e-20 0.372354)
(7.90218 -1.56523e-20 0.341602)
(8.13645 1.56157e-19 0.418411)
(7.59364 -2.01289e-19 0.381581)
(7.85641 -1.55904e-19 0.46949)
(7.25723 6.33411e-22 0.425726)
(7.55087 -1.87928e-19 0.526051)
(6.89133 1.55422e-19 0.474229)
(7.2182 1.82672e-19 0.588467)
(6.49439 -2.35954e-20 0.527127)
(6.85676 -4.04799e-19 0.656961)
(6.06505 0 0.584238)
(6.46493 -4.2371e-21 0.731527)
(5.60226 -4.43213e-19 0.645062)
(6.04122 3.06237e-19 0.811817)
(5.10549 2.4656e-20 0.70865)
(5.58439 -1.18937e-18 0.896989)
(4.57488 4.44058e-19 0.77343)
(5.09349 3.30624e-19 0.985503)
(4.01153 1.0491e-18 0.836939)
(4.56806 1.06632e-19 1.07482)
(3.41791 9.72438e-19 0.895371)
(4.00823 1.98395e-18 1.16096)
(2.79855 1.76278e-20 0.942471)
(3.41503 -5.61133e-20 1.23763)
(2.16134 -2.03032e-18 0.965832)
(2.7897 3.20231e-19 1.29401)
(1.52109 -1.16377e-18 0.931015)
(2.1361 -1.96314e-18 1.30699)
(0.881742 1.18499e-18 0.797345)
(1.40285 -1.02397e-18 1.22116)
(0.874203 2.23055e-18 0.959128)
(9.99338 1.21529e-20 0.0518557)
(9.99017 0 0.0405684)
(9.96437 2.43186e-20 0.0745508)
(9.97654 7.15214e-20 0.0710655)
(9.91691 1.21805e-20 0.0956427)
(9.94375 4.17003e-23 0.0964817)
(9.85387 2.73822e-20 0.118089)
(9.88942 -5.14607e-20 0.122592)
(9.77563 1.23214e-20 0.142073)
(9.81852 8.03907e-20 0.15025)
(9.68217 -4.30466e-20 0.167691)
(9.73318 1.39972e-20 0.17949)
(9.57342 2.27001e-21 0.195321)
(9.63337 -5.78685e-20 0.210735)
(9.44915 4.56339e-20 0.225388)
(9.51874 5.36768e-23 0.244507)
(9.30889 4.03789e-20 0.258315)
(9.38878 1.57151e-20 0.281313)
(9.152 2.40994e-20 0.294539)
(9.24296 8.22018e-21 0.321672)
(8.97771 0 0.334512)
(9.08079 -1.36118e-19 0.366104)
(8.7851 -1.51465e-19 0.378721)
(8.90157 1.40512e-19 0.415162)
(8.57313 9.23167e-21 0.427698)
(8.70443 1.39306e-21 0.469462)
(8.34061 3.14561e-19 0.482008)
(8.4884 1.01312e-21 0.529661)
(8.08624 1.08067e-20 0.542247)
(8.2524 1.61263e-19 0.596458)
(7.80858 -1.4312e-19 0.609016)
(7.99526 -1.45481e-19 0.670602)
(7.50606 0 0.682858)
(7.71565 0 0.752839)
(7.17701 -3.86797e-19 0.764181)
(7.41214 0 0.843822)
(6.81972 -3.79612e-19 0.85318)
(7.08317 -1.22672e-18 0.944037)
(6.43245 3.06243e-19 0.949712)
(6.72707 7.7044e-19 1.05371)
(6.0135 -4.6142e-19 1.05314)
(6.34206 4.07751e-19 1.17263)
(5.56131 -8.64464e-19 1.16215)
(5.92629 -7.44914e-19 1.29998)
(5.07441 -1.1404e-20 1.27441)
(5.47777 2.15438e-19 1.43405)
(4.55157 1.06135e-18 1.3862)
(4.9942 -2.49056e-18 1.57184)
(3.99177 9.38118e-19 1.49169)
(4.47288 2.7996e-18 1.70848)
(3.39392 2.52281e-19 1.58176)
(3.91032 0 1.83645)
(2.7548 3.7806e-19 1.64161)
(3.30057 4.76595e-21 1.94433)
(2.06004 -1.79836e-18 1.64598)
(2.6361 -1.87239e-18 2.01443)
(1.25433 -1.74458e-20 1.5873)
(1.85888 4.10259e-18 2.02717)
(1.13767 -2.93613e-18 1.98376)
(9.98884 6.06212e-20 0.060325)
(9.98877 9.19408e-20 0.0453913)
(9.96003 4.57657e-20 0.0924408)
(9.97324 1.19721e-20 0.0839253)
(9.91341 -6.45804e-20 0.122751)
(9.94023 -3.71261e-20 0.118065)
(9.85138 3.98998e-21 0.154047)
(9.88687 2.55794e-20 0.152367)
(9.77467 8.08622e-20 0.187024)
(9.81742 9.19834e-23 0.188414)
(9.68332 -2.11787e-21 0.222027)
(9.7338 1.11181e-19 0.226572)
(9.57735 -5.90625e-20 0.259569)
(9.63621 -5.76243e-20 0.267288)
(9.45664 -2.95952e-20 0.300239)
(9.52442 -3.01215e-20 0.311189)
(9.32086 -1.65749e-20 0.34463)
(9.39798 1.56319e-19 0.35894)
(9.16956 -1.54458e-19 0.393336)
(9.2565 -1.4555e-19 0.411174)
(9.00218 9.0505e-21 0.446975)
(9.09964 -2.71587e-19 0.468532)
(8.81809 2.91137e-19 0.506224)
(8.9269 -1.45417e-21 0.531715)
(8.6165 -6.78255e-21 0.571815)
(8.73763 4.38803e-19 0.601501)
(8.39656 -1.49787e-19 0.644532)
(8.53114 -1.52289e-19 0.678719)
(8.15732 0 0.725216)
(8.30664 1.97039e-20 0.764256)
(7.8977 0 0.81475)
(8.06326 0 0.859089)
(7.61648 0 0.913977)
(7.80006 0 0.964227)
(7.31233 -8.58832e-19 1.02362)
(7.51597 0 1.0806)
(6.98375 -4.74959e-20 1.14418)
(7.20973 -7.53548e-19 1.209)
(6.62904 8.66449e-19 1.27582)
(6.87996 7.74894e-19 1.35001)
(6.24629 1.07779e-19 1.41814)
(6.52493 -6.98551e-19 1.50376)
(5.83329 3.47385e-19 1.56999)
(6.14253 -2.57493e-18 1.6698)
(5.38731 -2.29501e-18 1.72907)
(5.73014 1.60751e-18 1.8468)
(4.90485 -7.00551e-19 1.89153)
(5.28422 -2.81591e-18 2.03216)
(4.38108 1.83605e-18 2.05146)
(4.79973 1.85028e-18 2.22152)
(3.80869 -2.46794e-19 2.20029)
(4.26943 0 2.4084)
(3.17512 -2.24559e-18 2.32644)
(3.68216 -4.813e-19 2.58438)
(2.45532 3.98411e-18 2.4146)
(3.02435 -1.99062e-18 2.73945)
(1.61292 1.00012e-18 2.48301)
(2.25371 2.10161e-18 2.86263)
(1.40932 4.50956e-19 3.01401)
(9.98656 4.19025e-20 0.0696362)
(9.98809 1.03328e-19 0.051198)
(9.95731 -7.19225e-20 0.109849)
(9.97145 -8.32391e-20 0.0969846)
(9.91143 5.42106e-20 0.148278)
(9.93836 -2.48035e-20 0.139317)
(9.85044 2.12115e-20 0.187591)
(9.88597 1.02664e-19 0.181662)
(9.77511 3.24064e-20 0.228931)
(9.81798 -5.34466e-20 0.225915)
(9.6856 5.26569e-20 0.272859)
(9.73619 1.38768e-19 0.272744)
(9.58194 -2.81944e-20 0.319971)
(9.64085 -8.60586e-20 0.322653)
(9.46405 1.59038e-19 0.370972)
(9.53177 -1.19859e-19 0.376377)
(9.33166 2.21965e-20 0.426569)
(9.40856 9.35096e-20 0.434708)
(9.18443 -2.64826e-19 0.487452)
(9.27092 3.1502e-20 0.498375)
(9.02193 -2.77582e-19 0.554347)
(9.11859 -1.35484e-19 0.568115)
(8.8437 1.53424e-19 0.628058)
(8.95118 -4.39354e-19 0.644742)
(8.64917 2.83751e-19 0.709459)
(8.76821 8.67912e-19 0.729165)
(8.43772 2.00232e-20 0.799484)
(8.56922 -2.9993e-19 0.822354)
(8.20866 1.93999e-20 0.899149)
(8.35356 -3.14175e-19 0.92534)
(7.96126 0 1.00955)
(8.12059 9.5652e-19 1.03927)
(7.69464 0 1.13179)
(7.86969 -6.7221e-19 1.16538)
(7.40787 9.39233e-20 1.26686)
(7.60012 -7.4829e-19 1.30483)
(7.09981 9.12151e-20 1.4156)
(7.31095 8.1685e-19 1.4587)
(6.76904 -8.11123e-19 1.57861)
(7.00113 -9.39966e-20 1.62797)
(6.41367 -3.40677e-18 1.75596)
(6.6692 7.69869e-19 1.81329)
(6.03123 -1.26367e-18 1.94706)
(6.31298 -1.17438e-18 2.0148)
(5.61839 1.0353e-18 2.15029)
(5.92966 1.48245e-18 2.23191)
(5.17029 -2.18988e-19 2.36263)
(5.51516 -2.2101e-19 2.46305)
(4.67963 0 2.5794)
(5.06339 2.19595e-19 2.70529)
(4.13556 -2.37194e-19 2.79438)
(4.56529 0 2.95418)
(3.52244 -2.35601e-19 3.00055)
(4.00775 -4.28839e-21 3.20414)
(2.81511 -3.8573e-18 3.18619)
(3.37335 -2.31126e-19 3.45047)
(2.00617 1.66097e-18 3.38192)
(2.65911 -3.92064e-18 3.66724)
(1.72049 4.65883e-18 3.99015)
(9.98542 -2.52202e-20 0.0793329)
(9.98776 -8.02662e-20 0.057495)
(9.95591 -3.49074e-20 0.127063)
(9.97062 -1.19378e-20 0.11017)
(9.91091 2.60079e-20 0.173367)
(9.9378 -7.38707e-20 0.160175)
(9.85124 2.51215e-20 0.220706)
(9.88652 -2.54736e-20 0.21034)
(9.77763 5.63996e-20 0.270418)
(9.8202 0 0.262593)
(9.69032 -3.98372e-21 0.323205)
(9.74062 -1.65389e-19 0.31782)
(9.58935 -1.78338e-19 0.379743)
(9.64794 -3.3011e-22 0.376646)
(9.4746 -1.81765e-19 0.440836)
(9.54193 -2.39213e-19 0.4399)
(9.34589 1.01757e-19 0.507288)
(9.42235 2.76762e-19 0.508467)
(9.20294 1.58191e-19 0.579878)
(9.28895 2.26364e-19 0.583162)
(9.04544 -3.02197e-19 0.65943)
(9.14151 -2.32235e-19 0.664808)
(8.873 2.96425e-19 0.746858)
(8.97973 3.21142e-20 0.754307)
(8.68524 2.65583e-19 0.843166)
(8.80326 2.31974e-20 0.852675)
(8.48165 -6.34571e-19 0.949426)
(8.61179 -2.99373e-21 0.961021)
(8.26171 6.42652e-19 1.06679)
(8.4048 -3.34156e-19 1.08051)
(8.02485 2.59991e-19 1.19654)
(8.18169 9.77434e-19 1.21242)
(7.77052 -1.42213e-18 1.33996)
(7.94211 -1.34216e-18 1.35812)
(7.49806 -3.27464e-21 1.4983)
(7.68554 6.76177e-19 1.519)
(7.20663 6.19143e-19 1.67275)
(7.41129 -7.68292e-20 1.6964)
(6.89511 1.49826e-18 1.86436)
(7.11855 -1.15108e-21 1.89169)
(6.56182 2.978e-18 2.07383)
(6.80612 3.10799e-18 2.1061)
(6.20425 1.60395e-18 2.30132)
(6.47208 3.18051e-18 2.34051)
(5.81889 2.07267e-19 2.5463)
(6.11365 2.09404e-19 2.59527)
(5.4005 2.21319e-19 2.80718)
(5.72665 1.46855e-18 2.8701)
(4.9412 2.18029e-19 3.08103)
(5.30503 -1.70289e-18 3.16376)
(4.42934 2.31591e-19 3.36371)
(4.83976 2.16835e-19 3.47378)
(3.84987 -8.86308e-23 3.65128)
(4.31842 3.55708e-18 3.79589)
(3.17758 -2.89146e-19 3.92946)
(3.71655 -3.57699e-18 4.13004)
(2.43055 -5.81859e-19 4.22892)
(3.0906 -7.58395e-22 4.41779)
(2.07005 -4.40285e-18 4.88638)
(9.98493 -6.59316e-20 0.0892079)
(9.98764 -8.02431e-20 0.0640047)
(9.95549 -5.20885e-20 0.14408)
(9.97046 -8.24544e-20 0.123328)
(9.91149 -1.24529e-19 0.197943)
(9.9382 -7.38489e-20 0.180583)
(9.85338 -5.01427e-20 0.253067)
(9.88821 -1.62789e-22 0.238298)
(9.78181 -2.24815e-19 0.310855)
(9.82382 1.24765e-22 0.298291)
(9.69708 -1.58857e-19 0.372156)
(9.7468 -2.21113e-19 0.361617)
(9.59917 -6.53014e-20 0.437759)
(9.65713 2.27898e-19 0.42906)
(9.48803 2.28242e-19 0.508557)
(9.55464 -1.19365e-19 0.501514)
(9.36351 4.0066e-19 0.58544)
(9.43919 2.78401e-19 0.579935)
(9.22539 -1.71756e-19 0.669272)
(9.31057 3.53159e-19 0.665226)
(9.07343 1.06431e-19 0.760953)
(9.16861 -8.27541e-19 0.758283)
(8.90735 -2.41251e-19 0.861486)
(9.01309 5.68896e-19 0.860082)
(8.72686 -2.46258e-19 0.971991)
(8.84373 -8.60678e-19 0.971718)
(8.53161 2.92748e-19 1.09368)
(8.66035 6.09856e-19 1.09443)
(8.32113 2.04311e-20 1.22784)
(8.46256 6.1684e-19 1.22956)
(8.09495 -6.59661e-19 1.37584)
(8.24983 -6.11379e-19 1.37848)
(7.85271 7.85571e-19 1.53914)
(8.0219 -6.70074e-19 1.54265)
(7.59394 5.93487e-19 1.71922)
(7.77843 7.44077e-19 1.72364)
(7.31797 -6.97291e-19 1.91761)
(7.51891 -1.44883e-20 1.92311)
(7.02389 1.64864e-18 2.13584)
(7.24258 -1.36372e-18 2.14277)
(6.71031 3.31408e-18 2.37526)
(6.9485 2.93593e-18 2.3844)
(6.37502 1.75358e-18 2.63689)
(6.63512 1.77283e-18 2.64964)
(6.01459 1.48157e-18 2.92133)
(6.29998 0 2.93985)
(5.62394 -4.75656e-19 3.22858)
(5.93918 -5.26151e-20 3.25605)
(5.19579 -1.69268e-18 3.55753)
(5.5471 -3.68531e-18 3.59855)
(4.71949 3.5449e-18 3.90521)
(5.11565 3.36242e-18 3.96652)
(4.18196 -1.68319e-20 4.26892)
(4.6352 3.53116e-18 4.35547)
(3.55527 -3.29778e-18 4.62857)
(4.06832 -3.33376e-18 4.77123)
(2.87484 -3.9798e-18 5.00516)
(3.54515 3.45313e-18 5.11021)
(2.44884 -7.5533e-18 5.69755)
(9.98489 -9.6936e-20 0.0990788)
(9.98764 1.14212e-20 0.070531)
(9.95584 -1.04133e-19 0.160794)
(9.97079 -1.19753e-20 0.13632)
(9.913 5.18882e-20 0.221881)
(9.93935 0 0.200474)
(9.85669 5.00967e-20 0.284493)
(9.89088 3.88211e-22 0.265414)
(9.7875 -9.85125e-23 0.350054)
(9.82872 -1.57806e-19 0.332845)
(9.70568 1.73665e-19 0.419559)
(9.75454 1.08673e-19 0.403961)
(9.61125 1.67939e-19 0.4939)
(9.66826 1.70913e-19 0.479688)
(9.50418 -6.25311e-20 0.574036)
(9.56975 5.87588e-20 0.560966)
(9.38438 2.32008e-19 0.660933)
(9.45892 -5.91788e-22 0.648815)
(9.2517 -3.2191e-19 0.755529)
(9.33565 2.87878e-19 0.744224)
(9.10594 -3.42949e-19 0.858796)
(9.1998 -4.97303e-19 0.848156)
(8.94689 -7.29656e-20 0.971802)
(9.0512 2.05359e-19 0.961652)
(8.77435 1.82646e-20 1.09577)
(8.88966 -3.03844e-19 1.08587)
(8.58809 9.3428e-19 1.23205)
(8.71506 2.94465e-19 1.22216)
(8.38775 -3.26986e-20 1.38208)
(8.52713 6.15183e-19 1.37204)
(8.17296 -6.22936e-19 1.54732)
(8.32552 -6.32884e-19 1.53699)
(7.94343 -6.92136e-19 1.72935)
(8.11002 6.58857e-19 1.71854)
(7.69883 1.24367e-19 1.92988)
(7.88036 -1.34832e-18 1.91845)
(7.43862 -6.96937e-19 2.15078)
(7.63618 7.46019e-19 2.13867)
(7.16195 -2.72938e-20 2.394)
(7.37685 -1.45839e-18 2.3813)
(6.86772 1.38325e-18 2.66155)
(7.10155 1.49071e-18 2.64857)
(6.55413 0 2.95536)
(6.809 0 2.94281)
(6.21825 -1.53281e-18 3.27711)
(6.49723 0 3.26641)
(5.85549 -3.28947e-18 3.62808)
(6.16303 -1.42239e-18 3.62156)
(5.45937 1.39366e-18 4.00877)
(5.80136 -1.56535e-18 4.00984)
(5.02062 3.353e-18 4.41689)
(5.40474 3.14267e-18 4.43179)
(4.52874 2.14313e-19 4.84981)
(4.96808 3.45644e-18 4.88163)
(3.95115 3.37595e-18 5.28058)
(4.43492 -3.26063e-18 5.37335)
(3.32886 -1.0331e-18 5.71423)
(4.0158 3.37937e-18 5.75143)
(2.84746 -1.64398e-19 6.436)
(9.9851 9.58828e-20 0.108806)
(9.98771 1.69939e-19 0.0769671)
(9.95674 9.24275e-20 0.177096)
(9.97141 1.05985e-19 0.149013)
(9.91527 -5.15148e-20 0.245083)
(9.94106 0 0.21975)
(9.86103 -2.10474e-19 0.314854)
(9.89438 2.61711e-22 0.291566)
(9.79451 -4.43e-20 0.387868)
(9.83472 -1.05373e-19 0.366105)
(9.71596 1.07035e-19 0.46524)
(9.76365 1.08688e-19 0.444677)
(9.62542 5.97752e-20 0.54795)
(9.68112 -1.1269e-19 0.52831)
(9.52291 1.19769e-19 0.637008)
(9.58702 2.25567e-22 0.617995)
(9.40837 5.99627e-20 0.733448)
(9.48128 -2.42893e-19 0.714814)
(9.2817 9.99414e-20 0.83828)
(9.36387 2.50509e-19 0.819824)
(9.14278 6.237e-20 0.95254)
(9.23471 9.81663e-20 0.934052)
(8.99145 -3.34231e-20 1.07736)
(9.09366 -2.14887e-22 1.0586)
(8.82757 -1.85635e-20 1.21404)
(8.94066 3.47607e-20 1.19469)
(8.65101 -2.0428e-20 1.36406)
(8.77554 1.76402e-20 1.34375)
(8.46155 -2.95185e-21 1.52899)
(8.59819 -2.36928e-21 1.50744)
(8.25893 6.67664e-19 1.7104)
(8.40851 -5.98724e-19 1.68738)
(8.04297 -2.30947e-20 1.90998)
(8.20632 1.28305e-18 1.88517)
(7.81342 -7.00694e-19 2.12973)
(7.99141 -6.66055e-19 2.10275)
(7.56984 -4.23948e-20 2.37182)
(7.76354 -1.37401e-18 2.34239)
(7.31157 9.26956e-20 2.63859)
(7.52229 2.79228e-18 2.60655)
(7.03763 9.08315e-20 2.93259)
(7.26699 9.93497e-20 2.89788)
(6.74656 0 3.25659)
(6.99656 1.45018e-18 3.21933)
(6.43608 9.9193e-20 3.61341)
(6.70943 -1.48479e-18 3.57418)
(6.10247 2.97883e-19 4.00539)
(6.40321 1.60428e-18 3.96579)
(5.73993 1.98241e-19 4.43423)
(6.07367 -2.94913e-18 4.39685)
(5.33986 3.24342e-18 4.89827)
(5.71319 3.12717e-18 4.86919)
(4.89421 -4.5421e-20 5.39464)
(5.32225 3.23869e-18 5.375)
(4.36526 -3.26288e-18 5.89033)
(4.82055 -3.25247e-18 5.93915)
(3.78695 3.65913e-18 6.37161)
(4.4985 2.66928e-18 6.35438)
(3.26073 1.65643e-19 7.12474)
(9.98546 1.79068e-19 0.118291)
(9.98788 -1.10079e-20 0.0832482)
(9.95804 1.15018e-20 0.192878)
(9.97224 1.17298e-20 0.161294)
(9.91818 5.17988e-20 0.267433)
(9.94322 0 0.238298)
(9.86624 1.03573e-19 0.344026)
(9.89861 3.02611e-19 0.316644)
(9.80266 5.14585e-20 0.424147)
(9.84167 -2.08361e-19 0.39795)
(9.72766 -1.14929e-19 0.509013)
(9.77396 -1.09084e-19 0.483613)
(9.64138 -1.70412e-19 0.599672)
(9.6955 1.11164e-19 0.574738)
(9.54384 -3.66615e-19 0.69719)
(9.60616 5.73666e-20 0.672378)
(9.43502 -4.44539e-20 0.802662)
(9.50593 -1.83975e-19 0.777671)
(9.31489 2.46439e-19 0.917158)
(9.39485 2.5075e-19 0.891727)
(9.18337 3.40294e-20 1.04177)
(9.27287 1.29454e-19 1.01563)
(9.04041 6.85553e-20 1.1777)
(9.13997 -7.67123e-19 1.15053)
(8.8859 7.07654e-20 1.3263)
(8.99616 4.81129e-19 1.29772)
(8.71978 3.54613e-20 1.48917)
(8.84124 3.04689e-22 1.45871)
(8.54197 -6.06694e-19 1.66798)
(8.67522 3.66082e-20 1.63524)
(8.3524 4.07645e-20 1.86443)
(8.49829 -1.02083e-20 1.82903)
(8.15098 6.16031e-19 2.08034)
(8.31031 -6.23792e-19 2.04181)
(7.9375 -1.34773e-18 2.31794)
(8.11112 1.92719e-18 2.27573)
(7.71172 1.50583e-18 2.57975)
(7.90067 -3.9385e-18 2.53332)
(7.47316 2.77646e-18 2.86852)
(7.6788 5.46698e-18 2.81739)
(7.22108 1.47309e-18 3.18727)
(7.44502 -1.35954e-18 3.13103)
(6.9543 -5.56235e-20 3.53942)
(7.19855 1.45287e-18 3.47772)
(6.67103 3.53144e-20 3.92887)
(6.93815 -1.48746e-18 3.8615)
(6.36841 -1.66087e-18 4.35914)
(6.66205 1.50825e-18 4.2869)
(6.04147 -1.49217e-20 4.83295)
(6.36703 -3.15286e-18 4.75782)
(5.68154 3.12537e-18 5.34934)
(6.04489 3.26472e-18 5.27762)
(5.28156 0 5.906)
(5.70179 0 5.83648)
(4.79936 2.6636e-18 6.46617)
(5.23098 -2.53535e-18 6.4724)
(4.25072 -1.47993e-18 6.99878)
(4.99584 6.32531e-18 6.9342)
(3.69104 -3.58678e-18 7.79439)
(9.98598 -1.77905e-19 0.127452)
(9.98816 -1.81101e-19 0.0893003)
(9.95966 0 0.208041)
(9.97322 4.65801e-20 0.173097)
(9.92163 2.56491e-19 0.288821)
(9.94573 -4.82804e-20 0.25602)
(9.87223 -1.85296e-20 0.371886)
(9.90343 2.519e-19 0.340534)
(9.81182 -3.67287e-19 0.458757)
(9.8494 -2.60922e-19 0.428259)
(9.74068 1.20865e-19 0.550717)
(9.7853 -1.08889e-19 0.520627)
(9.65896 3.38255e-19 0.648878)
(9.7112 2.2375e-19 0.618808)
(9.56674 2.36313e-19 0.754363)
(9.62694 8.20291e-22 0.723924)
(9.46405 1.1831e-19 0.868321)
(9.53259 -1.19721e-19 0.837158)
(9.35091 1.31787e-19 0.991868)
(9.42825 2.46519e-19 0.959666)
(9.22732 -6.85552e-19 1.12615)
(9.31394 -1.25995e-19 1.09257)
(9.09332 -3.36695e-19 1.27242)
(9.1897 -1.068e-18 1.23706)
(8.94885 4.04123e-19 1.43211)
(9.05564 1.12638e-18 1.39453)
(8.79389 1.91356e-21 1.60689)
(8.91157 5.2774e-19 1.56656)
(8.62852 6.3322e-19 1.7985)
(8.75766 -5.7694e-19 1.75489)
(8.45286 -6.82307e-19 2.00874)
(8.59429 5.89892e-19 1.96131)
(8.26688 7.16429e-19 2.23964)
(8.42137 -1.28859e-18 2.18777)
(8.07052 -7.26783e-19 2.49361)
(8.23887 1.93114e-18 2.43657)
(7.86377 1.15609e-19 2.77348)
(8.04696 -1.33075e-18 2.71044)
(7.64641 1.26964e-18 3.08238)
(7.84574 1.46097e-20 3.01249)
(7.41795 -1.35828e-18 3.42386)
(7.63512 -4.27477e-20 3.34633)
(7.17764 0 3.80193)
(7.41464 -1.44669e-18 3.71592)
(6.92411 0 4.22135)
(7.18348 1.37754e-18 4.12601)
(6.65506 -7.22077e-22 4.68704)
(6.94034 0 4.58221)
(6.36647 1.34302e-19 5.20299)
(6.68309 2.60208e-18 5.08979)
(6.04938 1.34853e-19 5.76947)
(6.40288 -2.82743e-18 5.65445)
(5.69558 -2.53508e-18 6.38653)
(6.11129 0 6.26572)
(5.26011 8.85547e-19 7.01729)
(5.67581 -2.88348e-18 6.97548)
(4.73177 3.14665e-18 7.62042)
(5.51988 3.31252e-18 7.50508)
(4.1521 -1.10075e-19 8.48226)
(9.98659 4.74022e-20 0.136229)
(9.98847 2.24358e-20 0.0950926)
(9.96151 -3.63455e-21 0.222507)
(9.97431 2.3429e-20 0.184355)
(9.92549 -4.73765e-20 0.309156)
(9.94854 -4.83084e-20 0.272833)
(9.8788 3.72237e-22 0.398331)
(9.90872 2.1767e-23 0.363154)
(9.82178 2.68135e-22 0.49157)
(9.85779 1.03819e-19 0.456929)
(9.75473 -3.46949e-22 0.590196)
(9.79751 3.54902e-22 0.555588)
(9.67787 -1.1755e-19 0.695384)
(9.728 -2.2201e-19 0.660363)
(9.59131 -3.57416e-19 0.808314)
(9.64913 -5.04664e-22 0.772441)
(9.49515 1.41416e-20 0.930177)
(9.56102 -3.59006e-19 0.893048)
(9.38943 -1.69925e-20 1.06213)
(9.4638 2.46797e-19 1.02338)
(9.27424 -5.2249e-19 1.20534)
(9.35756 -1.9279e-19 1.16459)
(9.14969 4.26923e-19 1.36113)
(9.24244 -2.01378e-19 1.31789)
(9.01582 1.24224e-18 1.53102)
(9.11857 7.34757e-20 1.48474)
(8.87271 -6.54919e-20 1.7167)
(8.98592 1.67275e-18 1.66682)
(8.72055 -6.06398e-19 1.91994)
(8.84485 -6.8284e-19 1.86582)
(8.55962 -3.86082e-20 2.14267)
(8.69577 2.81597e-21 2.0836)
(8.38999 -3.77376e-20 2.38709)
(8.5387 -6.74625e-19 2.32231)
(8.21177 1.29433e-18 2.65579)
(8.37385 1.23241e-18 2.58441)
(8.02519 -1.41714e-18 2.95179)
(8.20157 1.28725e-18 2.87269)
(7.83048 -1.30522e-18 3.27863)
(8.02222 -3.90603e-18 3.19053)
(7.62754 -1.37265e-19 3.64034)
(7.83635 1.41228e-18 3.54195)
(7.416 -5.78185e-20 4.04156)
(7.64389 -1.36833e-18 3.9315)
(7.19509 1.37522e-18 4.48785)
(7.44456 1.38208e-18 4.36461)
(6.96306 2.61103e-18 4.9855)
(7.23778 2.64976e-18 4.84789)
(6.71674 -3.56443e-19 5.54054)
(7.02252 -2.84274e-18 5.38814)
(6.4473 -2.96772e-18 6.15573)
(6.78977 -3.32507e-19 5.99442)
(6.1439 -3.47441e-19 6.83607)
(6.55651 -3.19041e-19 6.65854)
(5.76147 -6.9574e-19 7.54991)
(6.16983 -3.47701e-19 7.44543)
(5.25565 -1.31584e-19 8.26184)
(6.09484 -3.48789e-19 8.07531)
(4.67469 1.88503e-19 9.22938)
(9.98725 -1.77146e-21 0.144578)
(9.98882 -1.33696e-19 0.100602)
(9.96357 -2.27398e-20 0.236204)
(9.97557 -4.6268e-20 0.194996)
(9.92971 0 0.328353)
(9.95161 0 0.288661)
(9.88591 1.05433e-19 0.423269)
(9.91441 0 0.384418)
(9.83247 1.02152e-19 0.522477)
(9.86679 6.36109e-22 0.483858)
(9.76973 -2.25138e-19 0.627321)
(9.81055 2.13288e-19 0.588382)
(9.69799 -1.01361e-19 0.739033)
(9.74585 -5.5244e-19 0.699267)
(9.61741 -7.61793e-21 0.858853)
(9.67262 2.28609e-19 0.817759)
(9.5281 -1.17e-19 0.988015)
(9.59102 -1.18895e-19 0.945151)
(9.43015 6.437e-20 1.12769)
(9.50121 -2.43308e-19 1.08268)
(9.32374 1.2857e-19 1.27907)
(9.40339 6.89234e-19 1.23145)
(9.20907 -5.51621e-19 1.44352)
(9.29777 -2.57027e-19 1.39272)
(9.08628 5.24494e-19 1.62264)
(9.1845 -6.07922e-19 1.56805)
(8.95557 1.02633e-18 1.81811)
(9.06373 5.62628e-19 1.75909)
(8.81731 -6.41612e-20 2.03174)
(8.93609 5.62169e-19 1.96754)
(8.67183 -6.4104e-19 2.26556)
(8.80191 -6.88222e-20 2.19534)
(8.5194 6.16175e-19 2.52194)
(8.66135 -5.63918e-19 2.44477)
(8.36032 1.22788e-18 2.80355)
(8.51502 2.29087e-18 2.71838)
(8.19508 -1.24424e-18 3.11352)
(8.36344 -1.06796e-18 3.01902)
(8.02433 -1.14967e-18 3.4557)
(8.20721 -1.24173e-18 3.35015)
(7.84863 1.63825e-19 3.83457)
(8.04743 1.26187e-18 3.71611)
(7.66814 8.26406e-20 4.2554)
(7.88475 1.35489e-18 4.12199)
(7.48283 2.66054e-18 4.72458)
(7.71973 0 4.57384)
(7.29192 -2.80695e-18 5.24967)
(7.55291 2.97593e-18 5.07918)
(7.09329 -2.83163e-18 5.83934)
(7.38471 -5.16051e-18 5.64643)
(6.8795 2.32874e-18 6.50069)
(7.20722 2.65272e-18 6.28843)
(6.63735 -3.19149e-19 7.24721)
(7.04355 5.87796e-19 7.00327)
(6.3265 0 8.06072)
(6.7327 2.32935e-18 7.86705)
(5.86786 0 8.94624)
(6.76022 -2.38537e-18 8.63748)
(5.31577 0 10.082)
(9.98806 -1.77198e-19 0.152449)
(9.98925 3.55177e-19 0.10576)
(9.96586 -2.26448e-20 0.249073)
(9.97703 -1.13767e-22 0.204985)
(9.93426 0 0.346338)
(9.95493 0 0.303461)
(9.89352 -1.04854e-19 0.446605)
(9.92045 0 0.404242)
(9.84386 1.15427e-19 0.551375)
(9.87633 -4.09707e-19 0.508945)
(9.78565 -1.2677e-19 0.661975)
(9.82431 4.24766e-19 0.618907)
(9.71924 -2.09892e-19 0.779686)
(9.76463 -5.49307e-19 0.735399)
(9.64486 1.11921e-19 0.905818)
(9.69729 4.53382e-19 0.859746)
(9.56264 -2.47149e-19 1.04165)
(9.62238 -1.16472e-19 0.993332)
(9.47274 3.95433e-19 1.18834)
(9.54021 -2.55435e-21 1.13737)
(9.37546 2.9047e-19 1.34709)
(9.45113 6.50845e-21 1.29293)
(9.27104 -3.18067e-19 1.51931)
(9.35531 -6.80016e-20 1.46133)
(9.15972 -5.55264e-19 1.70662)
(9.25297 0 1.64416)
(9.04188 9.71382e-20 1.9107)
(9.14455 -1.08849e-18 1.84305)
(8.91803 5.51203e-19 2.13337)
(9.03069 1.73665e-18 2.05966)
(8.78858 3.88886e-21 2.37679)
(8.91178 -5.65423e-19 2.29605)
(8.654 1.14048e-18 2.64339)
(8.78831 2.17896e-19 2.55456)
(8.51496 -3.41548e-20 2.93589)
(8.66112 1.20616e-18 2.83772)
(8.37221 -1.06559e-18 3.25744)
(8.53106 -1.22577e-18 3.14838)
(8.22667 1.19043e-18 3.61202)
(8.39912 1.50635e-19 3.49008)
(8.0796 2.46025e-18 4.00441)
(8.26659 1.03316e-18 3.86718)
(7.93211 1.27034e-18 4.44044)
(8.13505 2.50319e-18 4.28507)
(7.78525 3.16044e-19 4.92721)
(8.0064 -1.2319e-18 4.75022)
(7.63981 6.35301e-19 5.47334)
(7.88271 7.42872e-21 5.27074)
(7.49558 3.20118e-19 6.09007)
(7.76663 2.70627e-18 5.85628)
(7.34892 9.08324e-19 6.79001)
(7.65361 -4.12383e-18 6.52258)
(7.18782 3.24656e-18 7.59842)
(7.57463 2.64654e-18 7.27668)
(6.98656 1.71784e-19 8.52269)
(7.38239 2.8773e-18 8.20173)
(6.64502 -2.32751e-18 9.68661)
(7.57176 -1.32493e-18 9.1427)
(6.16569 1.98002e-19 11.0931)
(9.98899 5.26286e-19 0.159792)
(9.98963 5.21253e-19 0.110523)
(9.96837 2.25473e-20 0.261076)
(9.97861 2.34235e-20 0.214283)
(9.9391 0 0.36306)
(9.95848 -1.34165e-19 0.3172)
(9.90152 -3.1218e-19 0.468257)
(9.92678 -1.39361e-19 0.422585)
(9.85579 -8.61651e-20 0.578152)
(9.88625 7.15946e-20 0.532125)
(9.8023 -1.38764e-20 0.694028)
(9.83862 2.15574e-19 0.64706)
(9.74146 1.30166e-19 0.817205)
(9.78421 1.87657e-19 0.768641)
(9.67349 2.16238e-19 0.949072)
(9.72292 2.82885e-20 0.89831)
(9.59854 1.30006e-19 1.09092)
(9.6549 -2.29092e-19 1.03749)
(9.51695 -3.91643e-19 1.24389)
(9.58069 6.96466e-19 1.18732)
(9.42907 -3.53651e-19 1.40917)
(9.50062 -8.64145e-19 1.34889)
(9.3352 2.51474e-19 1.58824)
(9.41486 6.18679e-19 1.52354)
(9.23571 -5.47154e-19 1.7827)
(9.32383 1.62076e-21 1.71289)
(9.13107 5.85013e-19 1.99418)
(9.22825 -1.05243e-18 1.9185)
(9.02189 5.94506e-19 2.22453)
(9.12854 1.12819e-18 2.14201)
(8.90884 -3.43691e-19 2.47597)
(9.02527 -6.34862e-19 2.38552)
(8.79261 2.92122e-19 2.75094)
(8.91942 1.45462e-19 2.65136)
(8.67418 -5.03287e-21 3.0521)
(8.81197 1.24103e-18 2.94197)
(8.55471 2.28229e-21 3.38262)
(8.70409 -1.25873e-18 3.26016)
(8.43543 -3.01943e-21 3.74643)
(8.59729 1.33458e-20 3.60946)
(8.3181 1.08247e-18 4.14833)
(8.49312 -1.13516e-18 3.99407)
(8.205 -8.74875e-21 4.59429)
(8.39407 1.24848e-18 4.41918)
(8.09875 -1.54251e-18 5.09176)
(8.30344 -1.2713e-18 4.89114)
(8.00239 2.08216e-18 5.64974)
(8.22516 -3.08326e-18 5.41788)
(7.91905 -1.72518e-18 6.28089)
(8.16497 3.54492e-18 6.00913)
(7.85219 -2.43605e-18 7.00201)
(8.12421 -3.72597e-18 6.6805)
(7.799 2.2811e-18 7.84772)
(8.14361 7.39786e-19 7.44493)
(7.76675 1.59391e-18 8.85729)
(8.11895 3.83993e-20 8.37761)
(7.70395 1.27078e-18 10.4667)
(8.65361 2.54619e-20 9.41985)
(8.41858 -5.09199e-20 12.2336)
(0.335764 -2.51153e-20 -0.120294)
(0.147075 1.49248e-21 -0.279911)
(0.467651 -5.67855e-20 -0.0163526)
(0.250947 -1.11312e-19 -0.09947)
(0.497167 0 0.028898)
(0.219683 7.98435e-19 -0.017667)
(0.42591 -4.34751e-20 0.0585949)
(0.114386 -6.57094e-19 0.0499984)
(0.241697 -4.49431e-20 0.0901921)
(-0.0892461 -3.53844e-19 0.117314)
(-0.0509575 0 0.118129)
(-0.39825 7.68537e-19 0.178115)
(-0.429496 0 0.138304)
(-0.792993 -3.7737e-19 0.226056)
(-0.869696 7.79199e-20 0.151256)
(-1.25092 0 0.262287)
(-1.34984 -5.73192e-20 0.157861)
(-1.75113 7.75927e-20 0.28811)
(-1.85161 -2.40579e-19 0.15895)
(-2.27432 -1.5124e-19 0.304298)
(-2.36056 -7.328e-20 0.155353)
(-2.80578 -6.59119e-20 0.31202)
(-2.86494 3.5995e-20 0.147676)
(-3.3338 1.71248e-19 0.312079)
(-3.35449 3.15095e-20 0.136328)
(-3.84867 -2.90426e-20 0.305042)
(-3.81943 4.20401e-20 0.12153)
(-4.34112 8.31386e-20 0.291215)
(-4.25031 -4.08121e-23 0.103436)
(-4.802 9.7677e-21 0.270613)
(-4.63768 -1.21516e-20 0.0823307)
(-5.22259 -1.21162e-20 0.24336)
(-4.97261 0 0.058609)
(-5.5941 0 0.20997)
(-5.24669 1.53035e-20 0.0325056)
(-5.90789 1.62895e-20 0.170998)
(-5.45129 1.54617e-20 0.00393702)
(-6.15552 1.39835e-20 0.126679)
(-5.57788 2.70701e-21 -0.0276083)
(-6.32823 0 0.0770999)
(-5.61731 7.48875e-23 -0.0634171)
(-6.41698 7.99445e-21 0.0220137)
(-5.55709 -2.69976e-21 -0.105746)
(-6.41327 -1.24879e-20 -0.0404669)
(-5.38097 0 -0.156941)
(-6.30886 4.82202e-22 -0.112712)
(-5.07312 -8.75705e-22 -0.218633)
(-6.08913 3.99708e-21 -0.194264)
(-4.61881 -5.09927e-22 -0.293372)
(-5.74502 -2.53108e-21 -0.284392)
(-4.00122 6.9316e-22 -0.388231)
(-5.25908 1.57487e-20 -0.384349)
(-3.19171 8.15872e-23 -0.520349)
(-4.60071 -1.09671e-21 -0.501332)
(-2.11785 -7.80149e-22 -0.716199)
(-3.74331 2.5652e-22 -0.66245)
(-0.636719 -1.61882e-21 -0.979908)
(-2.74073 -6.76777e-23 -0.911543)
(-1.59466 8.66344e-21 -1.09142)
(-0.00853817 -8.22739e-20 -0.181049)
(-0.0548618 8.78278e-19 -0.289459)
(-0.0438125 7.07443e-19 -0.0330288)
(-0.117152 -8.15438e-19 -0.0549695)
(-0.178276 1.98733e-19 0.0717111)
(-0.286741 7.9814e-19 0.0922361)
(-0.411789 -9.71844e-19 0.169814)
(-0.530582 -7.47866e-19 0.217587)
(-0.737812 4.45768e-19 0.258706)
(-0.860671 -3.07359e-19 0.33279)
(-1.14423 3.95276e-19 0.332955)
(-1.26895 6.83402e-19 0.433196)
(-1.61507 -3.76306e-19 0.391068)
(-1.74093 -3.36203e-19 0.513748)
(-2.1302 0 0.434237)
(-2.25853 5.00794e-21 0.574145)
(-2.67064 -1.87676e-20 0.463796)
(-2.80358 3.02284e-19 0.615647)
(-3.22125 2.48241e-20 0.481142)
(-3.36106 -3.2051e-19 0.639988)