/*--------------------------------*- C++ -*----------------------------------*\
| =========                 |                                                 |
| \\      /  F ield         | OpenFOAM: The Open Source CFD Toolbox           |
|  \\    /   O peration     | Version:  dev                                   |
|   \\  /    A nd           | Web:      www.OpenFOAM.org                      |
|    \\/     M anipulation  |                                                 |
\*---------------------------------------------------------------------------*/
FoamFile
{
    version     2.0;
    format      ascii;
    class       volVectorField;
    location    "4.24";
    object      U;
}
// * * * * * * * * * * * * * * * * * * * * * * * * * * * * * * * * * * * * * //

dimensions      [0 1 -1 0 0 0 0];

internalField   nonuniform List<vector> 
2790
(
(9.93662 0 0.0194465)
(9.86905 1.27845e-21 0.0281733)
(9.77187 -6.56857e-22 0.034287)
(9.64874 0 0.0404644)
(9.50674 -1.39886e-21 0.0468598)
(9.34788 0 0.0534608)
(9.17139 4.51572e-21 0.0604051)
(8.97621 -7.72451e-21 0.0678556)
(8.76145 -1.60715e-21 0.0759537)
(8.52613 0 0.0848297)
(8.26911 1.04949e-20 0.0946157)
(7.98904 -1.435e-20 0.105449)
(7.68444 3.75686e-21 0.117472)
(7.35373 3.91582e-21 0.130827)
(6.99531 0 0.145651)
(6.60761 0 0.162067)
(6.18921 0 0.180162)
(5.739 0 0.199971)
(5.25637 -9.73794e-21 0.221442)
(4.74144 -1.01813e-20 0.244399)
(4.19535 0 0.2685)
(3.62065 0 0.293179)
(3.02158 0 0.317594)
(2.40447 9.70326e-20 0.340576)
(1.77795 -1.00048e-19 0.36068)
(1.15155 0 0.377372)
(0.552999 2.68638e-20 0.395513)
(-0.257064 0 0.0403739)
(-0.282149 2.2447e-19 -0.312962)
(-0.0802219 -2.30643e-19 -0.378763)
(9.99396 -1.24476e-21 0.0393998)
(9.98016 6.3794e-22 0.0598542)
(9.93929 0 0.0753591)
(9.87146 -1.35121e-21 0.0914898)
(9.78253 -1.39317e-21 0.108603)
(9.67457 0 0.126602)
(9.54702 4.46797e-21 0.145752)
(9.39892 1.54255e-21 0.166407)
(9.22941 -1.59566e-21 0.188884)
(9.03756 0 0.213473)
(8.82228 3.11609e-20 0.240463)
(8.58222 3.58428e-22 0.270146)
(8.3159 -4.07697e-20 0.302809)
(8.02172 -3.87973e-21 0.338715)
(7.698 -4.89982e-20 0.378077)
(7.34309 1.34929e-19 0.421019)
(6.95541 8.9537e-20 0.467524)
(6.53362 -1.45932e-19 0.517358)
(6.0768 9.60017e-21 0.56998)
(5.58471 1.00263e-20 0.624429)
(5.05807 -2.08886e-20 0.6792)
(4.49893 1.32097e-19 0.732107)
(3.91117 1.39464e-19 0.780139)
(3.30099 -3.29834e-19 0.819309)
(2.67794 -3.94743e-19 0.844435)
(2.05719 3.55586e-19 0.848455)
(1.46027 -2.62989e-20 0.81924)
(0.890231 0 0.662909)
(0.453666 -4.45749e-19 0.397502)
(0.105469 4.03048e-19 -0.298323)
(9.99104 2.48659e-21 0.0423401)
(9.97429 -7.65213e-21 0.0720622)
(9.9354 7.85682e-21 0.0976122)
(9.87218 1.48753e-20 0.124185)
(9.78922 -8.32452e-21 0.152475)
(9.68869 2.87347e-21 0.182469)
(9.57032 -8.91413e-21 0.214517)
(9.43333 0 0.249118)
(9.27702 3.51751e-20 0.286761)
(9.10065 -7.28463e-20 0.327916)
(8.90329 5.45511e-20 0.373062)
(8.68382 1.42267e-20 0.422688)
(8.44094 2.22004e-20 0.477285)
(8.17323 -1.24139e-19 0.537312)
(7.87916 1.1142e-19 0.603159)
(7.55713 0 0.675087)
(7.20551 -1.74502e-20 0.753137)
(6.8228 -3.62622e-20 0.837011)
(6.40768 0 0.925919)
(5.95925 0 1.01838)
(5.47729 2.06488e-20 1.11199)
(4.96258 8.58761e-20 1.20315)
(4.41737 4.48036e-20 1.28678)
(3.84597 -4.65793e-20 1.35588)
(3.25558 0 1.40083)
(2.65749 -7.51565e-19 1.40764)
(2.06624 8.24607e-19 1.35268)
(1.48693 0 1.1768)
(0.913126 0 0.862415)
(0.53033 1.1477e-19 0.323748)
(9.98933 2.80442e-24 0.0478759)
(9.97029 -2.54459e-21 0.0884038)
(9.93125 -2.61822e-21 0.125327)
(9.86926 -1.35027e-20 0.162668)
(9.78798 1.10874e-20 0.201694)
(9.68956 -3.16357e-20 0.242785)
(9.57396 5.74926e-21 0.286466)
(9.4406 2.44302e-20 0.333407)
(9.28893 -1.2697e-20 0.384277)
(9.11841 -6.58663e-21 0.439735)
(8.92838 0 0.500445)
(8.718 -1.41877e-20 0.567091)
(8.48632 -4.65072e-23 0.64036)
(8.23228 -1.52746e-20 0.720914)
(7.95471 1.58867e-20 0.809348)
(7.6524 0 0.906113)
(7.32406 0 1.01141)
(6.96837 1.83519e-22 1.12505)
(6.58408 -3.73281e-20 1.24622)
(6.17003 -3.14124e-19 1.37327)
(5.72535 3.22793e-19 1.50332)
(5.24967 -4.23857e-20 1.63193)
(4.74336 7.06927e-19 1.75259)
(4.20798 -8.17941e-19 1.85613)
(3.64644 0 1.92983)
(3.06307 0 1.95587)
(2.46227 0 1.90822)
(1.84328 0 1.7439)
(1.1756 5.41846e-20 1.44431)
(0.649459 -1.81972e-18 0.96115)
(9.98851 7.42876e-21 0.0549277)
(9.96824 0 0.104849)
(9.92909 0 0.151765)
(9.86817 0 0.198872)
(9.78857 0 0.247844)
(9.69224 -1.72398e-20 0.299432)
(9.57925 2.35558e-20 0.354312)
(9.44908 0 0.413248)
(9.30127 5.71704e-20 0.477027)
(9.13538 -1.25395e-20 0.546425)
(8.95087 -4.0474e-20 0.622226)
(8.74709 1.13378e-19 0.705234)
(8.5233 -1.30936e-19 0.796259)
(8.27868 1.07235e-19 0.896098)
(8.01239 -1.41297e-19 1.00548)
(7.72351 0 1.125)
(7.41108 2.75059e-19 1.25501)
(7.07407 3.9508e-20 1.39544)
(6.7114 -5.17398e-19 1.54562)
(6.32189 3.05503e-19 1.70391)
(5.9043 6.43577e-19 1.86737)
(5.45734 5.78129e-19 2.03125)
(4.97977 0 2.18842)
(4.47042 8.99405e-20 2.32874)
(3.92813 0 2.43828)
(3.35143 -9.58995e-20 2.49849)
(2.73745 0 2.48527)
(2.0818 0 2.366)
(1.34416 -5.35224e-20 2.12385)
(0.720686 -1.85059e-18 1.71255)
(9.98814 -2.98182e-24 0.0626523)
(9.96736 -5.06694e-21 0.121291)
(9.92847 0 0.177678)
(9.86886 -5.35674e-21 0.234436)
(9.79128 1.66542e-20 0.293319)
(9.69751 -2.27412e-20 0.355303)
(9.58759 0 0.421187)
(9.4611 -4.88922e-20 0.491824)
(9.31762 6.26961e-20 0.568096)
(9.15677 1.17829e-19 0.650891)
(8.97809 -1.20946e-19 0.741106)
(8.78102 -1.39584e-20 0.839655)
(8.56494 0 0.94746)
(8.32917 -2.12305e-19 1.06543)
(8.07301 2.4862e-19 1.1944)
(7.7957 -2.93922e-19 1.33511)
(7.49646 5.39904e-19 1.48802)
(7.1744 -3.13536e-19 1.65324)
(6.82851 -3.65572e-20 1.83026)
(6.45756 7.53095e-20 2.01767)
(6.06001 6.32444e-19 2.21274)
(5.63384 7.30809e-19 2.4109)
(5.17647 6.80756e-19 2.60518)
(4.68457 -6.9884e-19 2.78553)
(4.15388 0 2.93824)
(3.579 9.35028e-22 3.04553)
(2.95258 0 3.08558)
(2.26914 0 3.03122)
(1.4849 0 2.86654)
(0.790749 -1.81624e-18 2.54036)
(9.98803 0 0.0706382)
(9.96725 0 0.137648)
(9.92901 -5.18869e-21 0.203034)
(9.87097 5.35257e-21 0.269097)
(9.79576 2.76127e-20 0.337546)
(9.70496 -2.26578e-20 0.40952)
(9.59863 0 0.48596)
(9.4764 1.20901e-20 0.567817)
(9.3379 7.55922e-20 0.656071)
(9.18281 -1.03141e-19 0.751713)
(9.01072 0 0.855739)
(8.82112 -1.37807e-20 0.96916)
(8.61347 0 1.09299)
(8.38716 0 1.22825)
(8.14153 2.79901e-19 1.37587)
(7.8759 -2.23011e-19 1.53669)
(7.58949 2.68083e-19 1.71133)
(7.28142 -2.40006e-19 1.90009)
(6.95059 7.13246e-20 2.10269)
(6.59561 5.23697e-19 2.31808)
(6.2146 -6.95654e-20 2.54398)
(5.80488 -7.94415e-20 2.77642)
(5.36281 0 3.00918)
(4.8834 0 3.23306)
(4.36018 -1.34027e-18 3.4354)
(3.78518 3.13035e-18 3.59968)
(3.14829 -1.42592e-18 3.70561)
(2.44415 1.58646e-18 3.72808)
(1.62973 -1.6348e-18 3.64875)
(0.874785 7.21492e-22 3.41021)
(9.98806 0 0.0786487)
(9.96765 0 0.153756)
(9.93043 -1.55648e-20 0.227696)
(9.87426 4.26392e-20 0.302654)
(9.80172 -2.73808e-20 0.380288)
(9.71431 0 0.461851)
(9.61207 0 0.54841)
(9.49466 -1.20699e-20 0.641013)
(9.36179 1.24711e-20 0.740729)
(9.21318 -1.28354e-20 0.848637)
(9.04847 0 0.965828)
(8.86723 -1.10606e-19 1.0934)
(8.66893 -1.15918e-19 1.23248)
(8.45303 2.64345e-19 1.38417)
(8.21889 -3.06911e-20 1.54952)
(7.96582 0 1.72952)
(7.69299 -5.60988e-19 1.92494)
(7.39944 1.15589e-18 2.13631)
(7.0839 -6.31152e-19 2.3637)
(6.74466 0 2.60647)
(6.37947 1.50986e-19 2.86304)
(5.98502 7.8471e-19 3.13034)
(5.55677 -7.2409e-19 3.40329)
(5.08849 1.34466e-18 3.67412)
(4.57198 -1.38034e-18 3.9316)
(3.99737 -1.52877e-18 4.16062)
(3.35242 2.87363e-18 4.34181)
(2.63138 9.07686e-21 4.44989)
(1.79527 -1.58816e-18 4.46058)
(0.978904 5.26196e-20 4.30978)
(9.9882 4.90232e-21 0.0865333)
(9.96842 -5.02164e-21 0.16946)
(9.93253 0 0.251533)
(9.87851 -2.1279e-20 0.334958)
(9.80897 2.18312e-20 0.421362)
(9.72532 0 0.512076)
(9.62763 0 0.608273)
(9.51559 -1.19539e-20 0.711092)
(9.38896 8.70263e-20 0.821682)
(9.24751 1.36937e-20 0.941209)
(9.09096 -1.05146e-19 1.07085)
(8.91891 2.73757e-20 1.2118)
(8.73092 0 1.36527)
(8.52645 -5.83824e-20 1.53248)
(8.30491 0 1.71462)
(8.06562 -3.10966e-20 1.91282)
(7.80766 3.235e-22 2.12808)
(7.52997 4.7053e-19 2.36121)
(7.2311 -5.50137e-19 2.61269)
(6.90898 0 2.88246)
(6.5609 4.45851e-19 3.16974)
(6.18301 5.30375e-19 3.47262)
(5.76996 -1.18581e-18 3.7875)
(5.31451 1.21494e-18 4.1084)
(4.807 -1.43285e-18 4.42604)
(4.23561 2.77497e-18 4.72678)
(3.58572 -1.42997e-18 4.99191)
(2.84927 1.48777e-18 5.19494)
(1.99366 -1.48609e-18 5.30262)
(1.10775 4.96054e-20 5.24238)
(9.9884 -9.5951e-24 0.0941892)
(9.96947 5.00363e-21 0.184626)
(9.93518 0 0.27442)
(9.8836 0 0.365864)
(9.81734 1.97071e-23 0.460585)
(9.73782 0 0.559969)
(9.64509 -1.15228e-20 0.665278)
(9.5389 5.47283e-23 0.777732)
(9.41907 1.23134e-20 0.898557)
(9.28542 1.26413e-20 1.02899)
(9.13774 0 1.1703)
(8.9757 0 1.32377)
(8.79892 -2.24504e-19 1.4907)
(8.60691 2.58667e-19 1.67243)
(8.39915 2.09961e-19 1.8703)
(8.17497 -2.1415e-19 2.08562)
(7.93343 -4.79254e-19 2.31963)
(7.67333 5.2265e-19 2.57349)
(7.39312 0 2.84821)
(7.09049 4.92117e-19 3.14442)
(6.76229 -5.72644e-19 3.46228)
(6.40424 0 3.80121)
(6.01026 0 4.15935)
(5.57215 1.64823e-21 4.53299)
(5.07886 -8.00673e-20 4.91533)
(4.51623 8.23813e-20 5.29495)
(3.86632 0 5.65403)
(3.11544 4.37343e-20 5.96485)
(2.23774 -1.47721e-21 6.18301)
(1.26737 -1.64512e-21 6.22262)
(9.98866 -4.87332e-21 0.101541)
(9.97074 4.97699e-21 0.199144)
(9.93828 2.05098e-20 0.296238)
(9.88938 -2.62746e-20 0.395238)
(9.82668 2.12817e-23 0.497791)
(9.75161 3.359e-20 0.605328)
(9.66424 -3.42934e-20 0.719182)
(9.56434 -9.49092e-20 0.840648)
(9.45181 9.72342e-20 0.971018)
(9.32654 -1.2612e-20 1.1116)
(9.18839 1.04208e-19 1.26374)
(9.03711 1.08426e-19 1.42879)
(8.87238 -4.14367e-19 1.60816)
(8.69382 2.26918e-19 1.8033)
(8.50101 2.65696e-19 2.0157)
(8.29328 -7.28512e-19 2.24685)
(8.06973 9.99879e-19 2.49832)
(7.82916 -5.44926e-19 2.77164)
(7.56994 0 3.06836)
(7.28974 1.36421e-19 3.38994)
(6.98524 7.07504e-20 3.73761)
(6.65183 -1.73129e-18 4.1123)
(6.28293 1.1807e-18 4.51421)
(5.86945 7.67967e-20 4.94232)
(5.39884 7.8885e-20 5.39322)
(4.85424 -1.3611e-18 5.85904)
(4.213 1.3123e-18 6.32453)
(3.45119 -8.42868e-20 6.76238)
(2.54582 -4.43733e-20 7.11667)
(1.46816 -4.64021e-20 7.28025)
(9.98896 -9.69467e-21 0.108533)
(9.97217 4.95354e-21 0.212921)
(9.94174 2.04184e-20 0.316879)
(9.89575 -1.56766e-20 0.422953)
(9.83687 5.39791e-21 0.532826)
(9.76654 -3.3346e-20 0.647968)
(9.68486 -4.60221e-20 0.769768)
(9.59165 1.99806e-19 0.899583)
(9.48687 -9.65195e-20 1.03877)
(9.3705 0 1.18869)
(9.24245 2.06378e-19 1.35074)
(9.1026 -3.974e-19 1.52637)
(8.95072 2.17245e-19 1.71707)
(8.78653 2.25842e-19 1.92439)
(8.60972 -4.63397e-19 2.14995)
(8.41969 2.37626e-19 2.39548)
(8.21568 0 2.66284)
(7.99662 3.17684e-20 2.95396)
(7.76097 -4.88104e-19 3.27097)
(7.50654 -7.01457e-20 3.61612)
(7.23012 5.44306e-19 3.99185)
(6.92713 0 4.40074)
(6.59092 7.05319e-20 4.84537)
(6.21191 -7.19169e-20 5.328)
(5.77634 0 5.84966)
(5.26451 0 6.40827)
(4.64793 0 6.99476)
(3.88682 4.04923e-20 7.58746)
(2.95069 -2.55477e-18 8.1243)
(1.73243 2.71026e-18 8.47018)
(9.98929 -9.65333e-21 0.11512)
(9.97374 9.88434e-21 0.22588)
(9.9455 5.06345e-21 0.336248)
(9.90262 0 0.448899)
(9.84778 -4.29544e-20 0.565558)
(9.78245 5.49839e-20 0.687726)
(9.70674 -1.02243e-19 0.816842)
(9.62057 1.11133e-20 0.95431)
(9.52393 1.92139e-19 1.10153)
(9.41689 -1.97782e-19 1.25992)
(9.29946 3.0574e-19 1.43093)
(9.17162 -2.35151e-19 1.61606)
(9.03326 -5.3912e-20 1.81688)
(8.88425 0 2.03503)
(8.72437 2.28995e-19 2.27227)
(8.55319 -4.69115e-19 2.53052)
(8.37019 2.70051e-19 2.8119)
(8.17456 -5.26326e-19 3.11874)
(7.96502 4.73448e-19 3.45367)
(7.73974 -4.87325e-19 3.81977)
(7.49597 4.96371e-19 4.2206)
(7.22966 3.33807e-20 4.66047)
(6.93478 -6.97057e-20 5.1445)
(6.60225 1.15256e-18 5.67869)
(6.21823 -1.1362e-18 6.26973)
(5.76137 -3.50106e-20 6.92408)
(5.19787 -3.51534e-20 7.64496)
(4.46804 3.52044e-20 8.42812)
(3.51583 -2.39108e-18 9.22616)
(2.11129 2.41399e-18 9.89428)
(9.98964 9.61e-21 0.121266)
(9.97543 -1.47494e-20 0.237959)
(9.94951 -2.15664e-23 0.354263)
(9.9099 -3.63773e-20 0.472979)
(9.85929 4.25583e-20 0.59587)
(9.79917 -1.09801e-20 0.724468)
(9.7297 1.12909e-20 0.860245)
(9.65084 8.12691e-20 1.00464)
(9.56266 -1.0689e-19 1.1591)
(9.46532 0 1.32506)
(9.35893 1.25448e-20 1.50403)
(9.24357 1.28934e-20 1.69753)
(9.11928 5.32417e-20 1.90718)
(8.9861 0 2.13473)
(8.84394 0 2.38202)
(8.69263 0 2.65112)
(8.53195 -2.97477e-20 2.94436)
(8.36143 4.79203e-22 3.26437)
(8.18025 0 3.61426)
(7.9872 4.73209e-19 3.99774)
(7.78037 -1.02722e-18 4.41942)
(7.55685 -5.88021e-19 4.88508)
(7.31213 0 5.40221)
(7.03917 -1.02912e-18 5.9806)
(6.72655 1.07998e-18 6.63314)
(6.3551 3.43969e-20 7.37704)
(5.89145 -1.01796e-18 8.23475)
(5.26144 2.07434e-18 9.23864)
(4.36805 -1.06231e-18 10.4121)
(2.72691 3.41675e-20 11.7627)
(9.99001 -4.77104e-21 0.126946)
(9.97719 9.79363e-21 0.249105)
(9.95372 1.50827e-20 0.370853)
(9.91752 -6.71002e-20 0.495101)
(9.87129 -1.34779e-22 0.623648)
(9.81656 4.34613e-20 0.758047)
(9.75353 -8.96598e-20 0.899797)
(9.6822 1.10386e-20 1.05037)
(9.60275 1.06096e-19 1.21121)
(9.51539 -1.20875e-20 1.3838)
(9.42036 9.98846e-20 1.56965)
(9.31785 -1.02269e-19 1.77032)
(9.20806 -2.64142e-20 1.98747)
(9.09118 0 2.22286)
(8.96737 -2.21678e-19 2.47843)
(8.83672 4.24925e-19 2.75632)
(8.69935 2.04063e-19 3.05899)
(8.55522 -4.43049e-19 3.38929)
(8.40416 4.82892e-19 3.75061)
(8.24579 -5.06549e-19 4.14712)
(8.07937 3.15319e-20 4.58408)
(7.9037 -4.70754e-19 5.06836)
(7.71679 5.10455e-19 5.60911)
(7.51541 -7.82405e-21 6.21895)
(7.29409 0 6.91586)
(7.04297 0 7.72674)
(6.74461 -9.6378e-19 8.69436)
(6.34564 1.85514e-18 9.89896)
(5.76813 -2.03603e-19 11.5109)
(3.86976 -7.89145e-19 14.5454)
(0.146239 5.19485e-21 -0.16187)
(0.352602 -5.96711e-23 -0.151484)
(0.565567 -4.83104e-21 -0.12436)
(0.75773 -1.39289e-22 -0.097736)
(0.917326 -4.1546e-21 -0.0747349)
(1.04488 4.04566e-21 -0.0550746)
(1.14386 0 -0.0380444)
(1.21675 2.23551e-22 -0.0231594)
(1.26507 -2.14498e-22 -0.0102693)
(1.29034 -2.0699e-22 0.000407047)
(1.29536 1.5435e-23 0.00833179)
(1.28469 1.37524e-21 0.0131476)
(1.26368 5.69667e-22 0.0150406)
(1.23812 -5.59567e-22 0.0145844)
(1.21306 0 0.0125554)
(1.19212 3.47783e-22 0.00967116)
(1.17733 -1.71628e-22 0.00647382)
(1.16956 -1.62197e-22 0.00333972)
(1.16881 0 0.000487609)
(1.17471 -1.41254e-22 -0.00195086)
(1.18613 3.36718e-24 -0.00394914)
(1.20205 0 -0.00561138)
(1.22166 -1.11838e-22 -0.00700013)
(1.24432 9.88225e-23 -0.00806457)
(1.26938 -8.49551e-23 -0.00870216)
(1.29601 -7.03512e-23 -0.00889573)
(1.32334 0 -0.00885505)
(1.3511 0 -0.00899077)
(1.37972 -1.00703e-24 -0.0093953)
(1.41454 9.85775e-25 -0.00895322)
(0.108398 -6.31014e-22 -0.338205)
(0.312893 -9.80539e-21 -0.329203)
(0.511696 9.46497e-21 -0.279495)
(0.693118 9.11033e-21 -0.228356)
(0.849373 -8.19486e-21 -0.183685)
(0.981568 -7.51372e-21 -0.145103)
(1.09289 1.90598e-22 -0.11106)
(1.18565 6.54842e-21 -0.0804573)
(1.26124 -2.1161e-22 -0.0527739)
(1.32035 -2.6701e-21 -0.028183)
(1.36334 3.73738e-22 -0.00740675)
(1.39043 -2.93727e-21 0.00824082)
(1.40369 1.90415e-22 0.0173951)
(1.40936 1.86032e-22 0.0202097)
(1.41279 0 0.0182882)
(1.41751 3.51483e-22 0.0135535)
(1.42548 8.30262e-22 0.00753088)
(1.4373 -1.47474e-21 0.00128675)
(1.45273 2.95112e-22 -0.00446141)
(1.47067 -1.44838e-21 -0.00922431)
(1.49003 9.59454e-22 -0.0128406)
(1.50949 2.37994e-22 -0.0155286)
(1.52807 1.02706e-22 -0.01765)
(1.54531 -9.85809e-23 -0.0194131)
(1.56114 8.47573e-23 -0.0207456)
(1.57552 6.83701e-24 -0.0214545)
(1.5882 6.20962e-23 -0.0215523)
(1.59892 -1.60073e-23 -0.0214701)
(1.60811 1.97084e-23 -0.021567)
(1.61992 -3.93388e-24 -0.0198397)
(0.073855 -1.92817e-20 -0.522545)
(0.249081 7.41673e-23 -0.510404)
(0.409868 -1.40806e-22 -0.438496)
(0.558363 -1.73119e-20 -0.364395)
(0.687682 1.90839e-22 -0.299785)
(0.799491 1.54722e-20 -0.243975)
(0.896481 -4.58307e-22 -0.194674)
(0.980377 4.44636e-22 -0.150314)
(1.05229 -4.20573e-22 -0.110064)
(1.11309 5.33294e-21 -0.0738467)
(1.16327 6.03393e-21 -0.0424267)
(1.20435 -6.24192e-21 -0.0171641)
(1.23709 2.30324e-21 8.83768e-06)
(1.2612 5.59093e-21 0.00788618)
(1.28036 -5.8112e-21 0.00793245)
(1.2977 1.77663e-21 0.00307387)
(1.31423 3.39792e-22 -0.00407408)
(1.33025 3.25598e-22 -0.011708)
(1.34547 2.15107e-21 -0.0186061)
(1.3591 -9.0178e-22 -0.0239359)
(1.3701 -2.71085e-22 -0.0272558)
(1.37739 0 -0.0285933)
(1.38018 2.04378e-22 -0.0283771)
(1.37834 -8.21205e-22 -0.0271116)
(1.37256 0 -0.0250787)
(1.36382 -2.85468e-22 -0.022395)
(1.3531 0 -0.0194206)
(1.34133 -1.92943e-22 -0.0172081)
(1.33012 -7.30796e-23 -0.0171913)
(1.32151 7.92843e-24 -0.0181476)
(0.0448344 -3.86044e-20 -0.674912)
(0.181446 -1.86025e-20 -0.650952)
(0.29792 3.57293e-20 -0.556793)
(0.409082 -1.70706e-20 -0.464407)
(0.505445 0 -0.385524)
(0.590013 0 -0.318089)
(0.665186 1.58621e-20 -0.258978)
(0.732265 -2.15074e-22 -0.206126)
(0.792098 -1.28156e-20 -0.158345)
(0.845524 8.25716e-22 -0.115082)
(0.892542 0 -0.0771905)
(0.933719 -6.26895e-21 -0.0466908)
(0.969442 6.14018e-21 -0.0252731)
(0.999207 7.5298e-22 -0.0135225)
(1.02243 2.18575e-21 -0.0102779)
(1.03974 -2.15107e-21 -0.0125851)
(1.05161 2.72613e-21 -0.0172349)
(1.05748 -6.57207e-23 -0.0218322)
(1.05684 -5.04238e-21 -0.0248252)
(1.05 1.20802e-21 -0.0254713)
(1.03826 0 -0.0238713)
(1.02361 0 -0.0208688)
(1.00808 -4.60898e-22 -0.0176525)
(0.993565 4.02256e-22 -0.0151714)
(0.981651 -3.21194e-22 -0.0136937)
(0.973176 3.10923e-22 -0.0128167)
(0.967637 0 -0.0119204)
(0.962713 1.61143e-22 -0.0113329)
(0.956574 9.69688e-23 -0.0132356)
(0.94372 0 -0.0196914)
(0.0183778 3.75157e-20 -0.793182)
(0.110299 -3.6063e-20 -0.750732)
(0.179797 3.4923e-20 -0.635987)
(0.252494 3.24418e-20 -0.530967)
(0.312482 -3.18726e-20 -0.443074)
(0.365054 0 -0.368614)
(0.412417 -9.12939e-22 -0.303837)
(0.455713 -1.39443e-20 -0.246301)
(0.495364 1.45011e-20 -0.1951)
(0.533353 1.31968e-20 -0.149513)
(0.569216 1.13094e-20 -0.109122)
(0.600764 0 -0.0748162)
(0.626286 7.72975e-22 -0.0482982)
(0.645363 -7.56932e-22 -0.0309063)
(0.658167 7.39394e-22 -0.0219434)
(0.665093 0 -0.0186286)
(0.666931 -2.76682e-21 -0.0177637)
(0.66491 2.70985e-21 -0.0172423)
(0.660538 6.34981e-22 -0.0163057)
(0.65526 1.78225e-21 -0.0150238)
(0.650106 -1.15124e-21 -0.0137456)
(0.645477 -4.7141e-22 -0.0128008)
(0.641261 1.43412e-21 -0.0123931)
(0.63713 -3.87169e-22 -0.0125206)
(0.632595 7.06579e-22 -0.0128725)
(0.626718 -2.94371e-23 -0.0127153)
(0.61922 -4.64322e-22 -0.0111062)
(0.612561 -3.32749e-22 -0.00850132)
(0.601357 1.99882e-22 -0.0088596)
(0.574747 0 -0.0197443)
(-0.00495971 0 -0.874938)
(0.0369717 0 -0.808079)
(0.060114 0 -0.674779)
(0.0946457 2.56708e-22 -0.561309)
(0.116893 3.09911e-20 -0.467492)
(0.134874 -3.12256e-20 -0.388637)
(0.150399 0 -0.320654)
(0.16462 0 -0.260398)
(0.176948 8.58905e-22 -0.206466)
(0.190401 0 -0.158688)
(0.205554 -1.14405e-20 -0.116949)
(0.222169 -2.26216e-23 -0.0821206)
(0.239307 1.25548e-20 -0.0554633)
(0.255405 1.55067e-21 -0.037267)
(0.269418 0 -0.0264281)
(0.280905 0 -0.0208985)
(0.290112 0 -0.0185551)
(0.297603 2.69586e-21 -0.0177966)
(0.30393 -1.32596e-21 -0.0175933)
(0.309337 3.02991e-21 -0.0173061)
(0.313629 -3.50667e-21 -0.0165802)
(0.316252 -5.22133e-22 -0.0153363)
(0.316514 9.63172e-22 -0.0137307)
(0.313858 0 -0.0119976)
(0.307844 0 -0.0101868)
(0.298082 8.77523e-22 -0.00790029)
(0.284547 9.8979e-23 -0.00452464)
(0.26864 4.33609e-22 -0.000717856)
(0.250812 -2.17484e-22 -0.000967584)
(0.228937 -5.08476e-23 -0.0134059)
(-0.0238298 0 -0.91683)
(-0.0380601 0 -0.82136)
(-0.0566997 -3.34001e-20 -0.674706)
(-0.0601137 9.89395e-22 -0.556288)
(-0.0741282 3.13604e-20 -0.459867)
(-0.0895762 -2.99307e-20 -0.380181)
(-0.104936 2.74585e-20 -0.313047)
(-0.118091 0 -0.255559)
(-0.126592 -3.45699e-21 -0.205939)
(-0.128632 0 -0.163012)
(-0.124792 0 -0.125785)
(-0.114934 1.63616e-21 -0.0942773)
(-0.100306 0 -0.0691698)
(-0.0829599 -3.13537e-21 -0.0508838)
(-0.0648843 6.12036e-21 -0.0390017)
(-0.0476084 -4.48423e-21 -0.0321671)
(-0.0320073 5.74547e-21 -0.0285889)
(-0.0184843 -4.21691e-21 -0.0266159)
(-0.00727544 -1.3184e-21 -0.0250187)
(0.00137793 2.65188e-23 -0.0230248)
(0.00714938 1.1615e-21 -0.0202865)
(0.00970153 0 -0.0168346)
(0.00876756 2.38588e-23 -0.012964)
(0.00414217 0 -0.00901069)
(-0.00432555 7.54407e-22 -0.00504997)
(-0.0167988 -6.08816e-22 -0.000713891)
(-0.0332622 0 0.00431963)
(-0.0534351 0 0.00864602)
(-0.0758945 -2.08381e-22 0.00756727)
(-0.0915971 1.36278e-22 -0.00140464)
(-0.0410919 0 -0.915884)
(-0.112735 0 -0.790582)
(-0.168373 -3.32456e-20 -0.638857)
(-0.210096 4.10245e-22 -0.520862)
(-0.256693 3.1324e-20 -0.426577)
(-0.300095 3.10109e-20 -0.351136)
(-0.338164 -2.75835e-20 -0.289724)
(-0.367756 0 -0.239323)
(-0.387932 -1.75182e-23 -0.197015)
(-0.399411 -1.19708e-20 -0.16072)
(-0.402408 -1.50856e-20 -0.129486)
(-0.397661 -1.63626e-21 -0.103082)
(-0.386681 1.63288e-21 -0.0816371)
(-0.371567 1.57741e-21 -0.0652023)
(-0.35458 0 -0.0534195)
(-0.337679 -1.50552e-21 -0.0454142)
(-0.322233 -5.84697e-21 -0.0399736)
(-0.309021 5.75377e-21 -0.0358467)
(-0.298455 0 -0.0319965)
(-0.290794 3.17276e-23 -0.0277381)
(-0.286271 1.21688e-21 -0.0227834)
(-0.285122 1.12221e-21 -0.017191)
(-0.28765 -9.88099e-22 -0.011221)
(-0.294146 -9.00862e-22 -0.00513174)
(-0.304828 2.25986e-23 0.00103405)
(-0.319703 0 0.007513)
(-0.338911 0 0.0142687)
(-0.362537 0 0.0195077)
(-0.388618 4.20187e-22 0.0191546)
(-0.407022 -6.86524e-23 0.0131882)
(-0.0593525 -1.39932e-22 -0.871255)
(-0.185569 0 -0.72211)
(-0.277886 3.32947e-20 -0.569501)
(-0.357024 -8.73807e-22 -0.45547)
(-0.433532 -3.24388e-20 -0.368534)
(-0.499877 0 -0.303007)
(-0.553236 0 -0.253159)
(-0.594226 -3.07494e-20 -0.213439)
(-0.62356 4.42206e-20 -0.180528)
(-0.642177 -1.38325e-20 -0.152483)
(-0.651213 -2.64914e-23 -0.128296)
(-0.652033 0 -0.107569)
(-0.646326 -3.2949e-21 -0.0901895)
(-0.636124 0 -0.0760381)
(-0.623562 -4.7305e-21 -0.0648544)
(-0.610492 2.95643e-23 -0.0561802)
(-0.5982 1.58559e-21 -0.0493338)
(-0.587473 4.4088e-21 -0.0434752)
(-0.57879 0 -0.0377683)
(-0.572575 -1.29823e-21 -0.0315741)
(-0.569312 -1.2146e-21 -0.0245869)
(-0.569555 -1.12006e-21 -0.016827)
(-0.573884 0 -0.00851682)
(-0.582771 1.82869e-21 6.23087e-05)
(-0.596279 -7.73645e-22 0.00875007)
(-0.61437 3.69703e-22 0.0175544)
(-0.636964 2.86711e-22 0.0261142)
(-0.663999 7.2725e-23 0.0325372)
(-0.692268 -2.83081e-22 0.0334741)
(-0.70984 0 0.0297943)
(-0.0796299 1.40231e-22 -0.784365)
(-0.261801 0 -0.611233)
(-0.393592 0 -0.462264)
(-0.510445 -3.13646e-20 -0.358804)
(-0.61275 3.4624e-20 -0.289404)
(-0.696913 0 -0.241404)
(-0.763729 -2.99831e-20 -0.206554)
(-0.814644 2.92783e-20 -0.179818)
(-0.851547 -1.80871e-21 -0.157976)
(-0.876462 -3.52836e-21 -0.139126)
(-0.891309 1.71959e-21 -0.122397)
(-0.8978 0 -0.107531)
(-0.89761 1.66215e-21 -0.0944295)
(-0.8926 0 -0.0829318)
(-0.884707 -1.60044e-21 -0.0728972)
(-0.875617 0 -0.0642395)
(-0.866517 3.95827e-23 -0.0567261)
(-0.858153 -1.50883e-21 -0.049813)
(-0.851167 0 -0.0427429)
(-0.846303 -1.37726e-21 -0.0348348)
(-0.84443 -1.29325e-21 -0.0257443)
(-0.846429 0 -0.0155179)
(-0.852995 -1.01521e-21 -0.0044889)
(-0.86431 6.62686e-23 0.00687086)
(-0.880245 0 0.0181628)
(-0.900341 -1.34781e-21 0.0290866)
(-0.924477 0 0.0390233)
(-0.952737 -7.59173e-22 0.046259)
(-0.98144 1.83483e-23 0.0484148)
(-0.998055 -1.8105e-23 0.0468585)
(-0.102358 0 -0.649558)
(-0.34756 0 -0.444831)
(-0.52523 3.35358e-20 -0.313066)
(-0.677366 -3.38481e-20 -0.237564)
(-0.80375 3.16947e-20 -0.193409)
(-0.904364 -2.90381e-20 -0.167516)
(-0.982126 0 -0.151461)
(-1.04062 3.71591e-21 -0.14015)
(-1.0833 1.81283e-21 -0.130676)
(-1.11318 1.78046e-21 -0.121575)
(-1.13279 0 -0.112478)
(-1.14399 1.39608e-20 -0.103605)
(-1.14829 -1.53716e-20 -0.0950608)
(-1.14737 0 -0.0866264)
(-1.14314 -4.94452e-21 -0.0782014)
(-1.1373 1.2939e-20 -0.0700397)
(-1.131 -7.88121e-21 -0.0623485)
(-1.12492 3.06078e-21 -0.0548126)
(-1.11974 -1.49604e-21 -0.0466397)
(-1.11649 -5.08009e-23 -0.0370434)
(-1.11633 1.29102e-21 -0.0256904)
(-1.12031 0 -0.0127969)
(-1.12901 1.05432e-21 0.00102471)
(-1.14239 -1.95476e-21 0.0150401)
(-1.16005 9.03358e-22 0.028624)
(-1.1814 1.71524e-21 0.0412668)
(-1.20648 -3.07976e-22 0.0522854)
(-1.23555 1.62182e-21 0.0603045)
(-1.26456 -9.44334e-23 0.0638195)
(-1.28069 1.86404e-23 0.0642556)
(-0.12656 7.38281e-20 -0.437707)
(-0.447726 0 -0.231208)
(-0.684081 0 -0.134659)
(-0.871809 0 -0.0939825)
(-1.01884 -1.98697e-21 -0.0828568)
(-1.13069 -5.02252e-24 -0.0849335)
(-1.2145 0 -0.0910025)
(-1.27666 -1.87243e-21 -0.0967469)
(-1.32194 1.86493e-21 -0.100375)
(-1.35418 0 -0.101244)
(-1.37637 0 -0.0997057)
(-1.39038 0 -0.0968235)
(-1.39733 1.57751e-20 -0.093098)
(-1.39861 -1.37233e-20 -0.0880799)
(-1.39628 -1.67382e-21 -0.0814902)
(-1.39228 0 -0.0739756)
(-1.38769 0 -0.0663459)
(-1.38294 -7.81418e-21 -0.0585215)
(-1.3786 7.62095e-21 -0.0495286)
(-1.3759 -5.84799e-23 -0.0383492)
(-1.37637 1.39826e-21 -0.024688)
(-1.38123 1.29819e-21 -0.00906463)
(-1.39098 0 0.00753286)
(-1.40551 0 0.024077)
(-1.42418 0 0.0397346)
(-1.44636 1.11111e-21 0.0538708)
(-1.47219 8.44095e-22 0.0658342)
(-1.50196 -1.6054e-21 0.0746103)
(-1.53127 4.75159e-22 0.0793773)
(-1.54718 0 0.0814307)
(-0.186288 7.02594e-20 -0.113788)
(-0.628302 0 0.107589)
(-0.933093 0 0.113967)
(-1.13689 0 0.0767507)
(-1.2805 -1.93224e-21 0.0347372)
(-1.383 3.12603e-20 -0.00250846)
(-1.45876 -2.8573e-20 -0.0317145)
(-1.51717 -1.72202e-20 -0.0536493)
(-1.55996 1.3062e-20 -0.0700967)
(-1.59046 1.49246e-20 -0.0806899)
(-1.61197 2.92918e-20 -0.0861478)
(-1.62626 -1.43774e-20 -0.0889019)
(-1.63351 1.80546e-21 -0.0902453)
(-1.63455 0 -0.0890513)
(-1.63186 6.97833e-21 -0.0843299)
(-1.62795 -6.82154e-21 -0.0772766)
(-1.62377 4.9822e-21 -0.0697407)
(-1.61916 -6.53967e-21 -0.0619543)
(-1.6144 1.61233e-21 -0.0524857)
(-1.61097 -1.49031e-21 -0.0398119)
(-1.61094 4.29471e-21 -0.023676)
(-1.61584 -4.02136e-21 -0.00508406)
(-1.62613 0 0.0144672)
(-1.64155 0 0.033606)
(-1.6612 -8.54337e-22 0.0513031)
(-1.68436 9.1519e-22 0.0668704)
(-1.71124 -1.16334e-21 0.0797533)
(-1.74204 4.41383e-23 0.089266)
(-1.772 -1.05082e-21 0.0950609)
(-1.78809 0 0.0982713)
(-0.28364 -6.67088e-20 0.454854)
(-0.8226 0 0.517558)
(-1.19507 -3.02582e-20 0.374204)
(-1.40764 2.95881e-20 0.22924)
(-1.54397 1.93158e-21 0.137234)
(-1.63629 -1.93123e-21 0.0706307)
(-1.70095 -1.9237e-21 0.0205202)
(-1.7473 -1.40696e-23 -0.0160146)
(-1.78227 1.53291e-20 -0.0438515)
(-1.8068 -1.49476e-20 -0.0632495)
(-1.8243 1.87881e-21 -0.0741732)
(-1.83681 7.41946e-21 -0.0813327)
(-1.84264 -1.63982e-20 -0.0879569)
(-1.84122 1.44562e-20 -0.0912198)
(-1.83599 1.88977e-21 -0.088102)
(-1.83089 -7.02222e-21 -0.0807215)
(-1.82657 -5.22168e-21 -0.0729833)
(-1.8216 6.77161e-21 -0.0655807)
(-1.81562 -1.6105e-21 -0.0560767)
(-1.81059 -1.62129e-21 -0.0419253)
(-1.80945 0 -0.0229223)
(-1.81415 -1.43447e-21 -0.000880894)
(-1.82512 -2.52238e-21 0.021974)
(-1.8417 1.24237e-22 0.043883)
(-1.86274 1.04162e-21 0.0636693)
(-1.88737 8.84991e-23 0.0806678)
(-1.91581 -1.0188e-21 0.094483)
(-1.94819 5.92794e-22 0.104707)
(-1.97936 4.94044e-22 0.111264)
(-1.99604 0 0.115164)
(-0.481654 3.60234e-20 1.31719)
(-1.11225 2.35028e-20 1.14764)
(-1.56634 -1.19392e-21 0.650868)
(-1.73014 -1.7187e-21 0.32361)
(-1.80574 1.51764e-20 0.222812)
(-1.86886 -1.29443e-20 0.136939)
(-1.91447 0 0.0559608)
(-1.94822 1.92137e-21 0.00940125)
(-1.97235 -1.55244e-20 -0.0243723)
(-1.98733 1.51383e-20 -0.0509339)
(-1.99784 -1.8781e-21 -0.0652275)
(-2.00798 7.56092e-21 -0.0743212)
(-2.01219 -9.2592e-21 -0.0869657)
(-2.00638 7.48034e-21 -0.0963326)
(-1.99627 -9.12426e-21 -0.0942833)
(-1.98919 0 -0.084729)
(-1.98517 1.82537e-21 -0.076047)
(-1.98009 0 -0.0696283)
(-1.97236 0 -0.0608904)
(-1.96489 3.32666e-21 -0.0452627)
(-1.96218 -1.45888e-21 -0.0226961)
(-1.96683 4.45223e-21 0.00354824)
(-1.97895 -7.87685e-23 0.030189)
(-1.9973 2.46656e-21 0.0550883)
(-2.02033 1.17472e-21 0.0770273)
(-2.04702 -7.25424e-22 0.0954545)
(-2.07762 1.28612e-21 0.110198)
(-2.11223 0 0.121085)
(-2.14534 -2.20548e-23 0.128117)
(-2.16308 1.98216e-22 0.132236)
(9.99041 -4.59323e-21 0.132226)
(9.97906 9.38594e-21 0.259467)
(9.95816 0 0.386257)
(9.92556 0 0.515606)
(9.88395 0 0.649343)
(9.83488 0 0.789036)
(9.77861 0 0.936196)
(9.71522 -8.81426e-20 1.0923)
(9.64494 7.88228e-20 1.25883)
(9.5681 1.16273e-20 1.43724)
(9.48503 -1.19386e-20 1.62905)
(9.39608 -1.22538e-20 1.83583)
(9.30159 2.12923e-19 2.05922)
(9.20195 -2.04618e-19 2.30102)
(9.09757 -2.10197e-19 2.56316)
(8.98887 2.41326e-19 2.84783)
(8.87633 2.60463e-19 3.15749)
(8.76046 2.23425e-19 3.49505)
(8.64181 -4.54664e-19 3.86402)
(8.521 2.88317e-20 4.2687)
(8.39874 -4.57681e-19 4.71456)
(8.27596 -4.72123e-19 5.20877)
(8.15394 0 5.76095)
(8.03476 -4.63577e-19 6.38451)
(7.92205 9.24916e-19 7.09878)
(7.8231 -4.60496e-19 7.93323)
(7.75849 1.4006e-20 8.9355)
(7.78198 -4.69681e-20 10.1903)
(8.43326 2.00848e-19 11.8026)
(8.88318 -2.95085e-20 14.7035)
(9.99084 4.44008e-21 0.137117)
(9.98105 -4.5693e-21 0.269052)
(9.96286 -1.87137e-20 0.400464)
(9.93404 -1.91681e-20 0.534447)
(9.89724 3.45226e-20 0.672858)
(9.85406 -8.08345e-20 0.817267)
(9.80482 4.14144e-20 0.96919)
(9.74964 -9.59569e-20 1.13011)
(9.68884 9.81541e-20 1.30148)
(9.62285 0 1.48476)
(9.5521 -9.20316e-20 1.68145)
(9.4771 9.39875e-20 1.89309)
(9.39835 -1.21199e-20 2.12131)
(9.31645 0 2.36783)
(9.23207 1.25213e-20 2.63458)
(9.14595 0 2.92365)
(9.059 -1.32263e-20 3.23745)
(8.97227 6.61108e-21 3.57878)
(8.88705 4.25681e-19 3.95099)
(8.80498 -4.50108e-19 4.35816)
(8.72823 -7.00131e-21 4.8054)
(8.65983 0 5.29924)
(8.60425 0 5.84825)
(8.56853 -1.99422e-20 6.46377)
(8.56456 -4.19744e-19 7.16106)
(8.61377 4.75039e-19 7.96057)
(8.75938 -4.73472e-20 8.88794)
(9.03037 1.30189e-19 9.97281)
(9.7461 -7.1342e-20 11.1638)
(10.3821 -1.8448e-19 12.3249)
(9.99129 -4.33348e-21 0.141532)
(9.98312 2.2068e-21 0.277699)
(9.96776 -1.81637e-20 0.413256)
(9.94286 5.58745e-20 0.551364)
(9.91107 4.29481e-20 0.693897)
(9.874 0 0.842422)
(9.832 0 0.998442)
(9.78528 8.25501e-20 1.16342)
(9.73422 -8.96526e-20 1.33879)
(9.67934 5.38904e-21 1.52599)
(9.6212 -5.51804e-21 1.72645)
(9.56042 1.81859e-19 1.94168)
(9.49769 -1.79836e-19 2.17323)