/*--------------------------------*- C++ -*----------------------------------*\
| =========                 |                                                 |
| \\      /  F ield         | OpenFOAM: The Open Source CFD Toolbox           |
|  \\    /   O peration     | Version:  dev                                   |
|   \\  /    A nd           | Web:      www.OpenFOAM.org                      |
|    \\/     M anipulation  |                                                 |
\*---------------------------------------------------------------------------*/
FoamFile
{
    version     2.0;
    format      ascii;
    class       surfaceVectorField;
    location    "1.44";
    object      Uf;
}
// * * * * * * * * * * * * * * * * * * * * * * * * * * * * * * * * * * * * * //

dimensions      [0 1 -1 0 0 0 0];

internalField   nonuniform List<vector> 
5457
(
(9.91294 1.52158e-21 0.0214271)
(9.96865 4.12111e-20 0.0361569)
(9.82092 5.65841e-22 0.0266582)
(9.93151 6.3315e-21 0.0394952)
(9.72061 1.72199e-21 0.0307071)
(9.87207 -4.40901e-21 0.0447827)
(9.60952 1.29508e-20 0.0348768)
(9.79538 2.15407e-20 0.0515846)
(9.48756 6.04174e-21 0.0391578)
(9.70649 -2.25631e-20 0.0588519)
(9.35493 3.1364e-22 0.0435839)
(9.60646 -4.39864e-20 0.0664794)
(9.21142 -4.06696e-21 0.0482789)
(9.49475 1.05381e-20 0.0746632)
(9.05654 6.87485e-22 0.0533652)
(9.37074 2.22573e-20 0.0835983)
(8.8896 1.60904e-20 0.0589513)
(9.23387 -1.54299e-20 0.0934488)
(8.70975 1.70522e-20 0.0651465)
(9.08346 8.26212e-21 0.104379)
(8.51596 8.86591e-21 0.0720699)
(8.91867 4.32384e-20 0.116569)
(8.30706 -1.65947e-20 0.0798535)
(8.73844 -4.44009e-20 0.130224)
(8.08171 4.31247e-21 0.0886479)
(8.54158 -1.88798e-20 0.145569)
(7.83842 -2.12831e-21 0.0986296)
(8.32671 2.01844e-20 0.162866)
(7.57549 2.43542e-20 0.11)
(8.09228 -1.9609e-20 0.182421)
(7.29103 -9.09584e-21 0.122986)
(7.83654 -4.36404e-20 0.204565)
(6.98302 -5.12645e-20 0.137839)
(7.55756 3.34704e-20 0.229657)
(6.64925 0 0.15485)
(7.2532 2.42041e-20 0.258084)
(6.28738 0 0.17434)
(6.92118 -1.80716e-19 0.290262)
(5.89501 -1.18158e-19 0.196661)
(6.55906 1.86037e-19 0.326606)
(5.46964 -2.05783e-19 0.2222)
(6.16426 -3.44495e-19 0.367513)
(5.00886 -8.84005e-20 0.251375)
(5.73411 -5.52066e-20 0.413327)
(4.51039 1.36576e-19 0.284644)
(5.26592 -3.08798e-19 0.464287)
(3.9722 6.41976e-20 0.322526)
(4.75699 -5.21496e-19 0.520462)
(3.39259 -6.78304e-20 0.365592)
(4.20461 4.04593e-19 0.58166)
(2.77035 0 0.414394)
(3.606 4.28347e-19 0.647211)
(2.1047 -3.07826e-19 0.469187)
(2.95779 -4.3299e-19 0.715353)
(1.39587 -6.18624e-19 0.527853)
(2.25455 1.03493e-18 0.781237)
(0.642639 3.4066e-19 0.53207)
(1.472 -1.33692e-18 0.830706)
(0.758662 3.30453e-19 0.733791)
(10.0057 4.54142e-20 0.0420517)
(10.0001 -4.44129e-20 0.0337682)
(9.98135 1.11797e-21 0.053661)
(9.99259 4.21846e-21 0.0498744)
(9.94224 1.59648e-20 0.0633051)
(9.96594 -2.93729e-21 0.0621724)
(9.88981 -1.48751e-20 0.0737324)
(9.92215 3.07109e-20 0.0758587)
(9.82397 -7.30092e-20 0.0848739)
(9.86514 6.30219e-21 0.090544)
(9.74485 -3.26694e-20 0.0967403)
(9.79611 -1.36327e-20 0.106058)
(9.65236 3.70924e-20 0.109582)
(9.71478 -2.12614e-20 0.122708)
(9.54614 5.41023e-21 0.12367)
(9.62067 5.92431e-20 0.140857)
(9.42565 -2.2817e-20 0.139259)
(9.5133 3.88914e-20 0.160833)
(9.29015 3.50836e-20 0.156611)
(9.39213 3.30703e-20 0.182964)
(9.13872 -1.16722e-20 0.176014)
(9.25641 -1.62609e-20 0.207615)
(8.9703 -4.6253e-20 0.197791)
(9.10522 -3.57061e-20 0.235197)
(8.78363 -2.31642e-21 0.222309)
(8.93751 7.32018e-20 0.266167)
(8.57731 1.98541e-21 0.249993)
(8.752 -1.57508e-19 0.301052)
(8.34968 -8.80149e-20 0.281329)
(8.54732 8.2696e-20 0.340474)
(8.09893 2.79769e-22 0.316839)
(8.32186 -2.69047e-19 0.385119)
(7.82303 1.08813e-19 0.357099)
(8.07381 4.73672e-19 0.435735)
(7.51972 -1.59907e-19 0.40273)
(7.80113 -1.90063e-19 0.493153)
(7.18659 1.12389e-20 0.454389)
(7.5016 -2.31181e-19 0.558273)
(6.82099 -4.87156e-20 0.512733)
(7.17276 -2.14881e-19 0.632036)
(6.42011 -1.90364e-19 0.578395)
(6.81188 7.16377e-19 0.715395)
(5.98097 -2.79135e-19 0.651927)
(6.41596 4.94893e-19 0.809265)
(5.50043 -9.69154e-19 0.733753)
(5.98166 -2.46818e-19 0.914464)
(4.97508 -1.73499e-19 0.824137)
(5.50524 -5.26295e-19 1.03162)
(4.40104 8.98268e-19 0.923144)
(4.9821 6.01616e-19 1.16114)
(3.77341 -7.01678e-21 1.03047)
(4.40639 4.29742e-19 1.30309)
(3.08461 9.08537e-19 1.14552)
(3.76956 -5.72987e-19 1.45715)
(2.31892 3.34921e-19 1.27018)
(3.05744 1.47245e-18 1.62286)
(1.42952 -1.32019e-18 1.43123)
(2.23073 -1.29987e-18 1.8062)
(1.34706 2.78987e-18 2.04878)
(9.99871 -8.46833e-20 0.0441505)
(9.99787 4.27656e-20 0.0343176)
(9.97836 0 0.0616748)
(9.98792 -8.9521e-20 0.058649)
(9.94309 1.24835e-20 0.0776246)
(9.96251 0 0.0779799)
(9.89567 5.13561e-20 0.0948114)
(9.92173 -3.69109e-20 0.0979538)
(9.83637 6.53418e-20 0.113319)
(9.86841 1.28335e-20 0.119257)
(9.76515 -2.33255e-21 0.13319)
(9.80378 5.37799e-20 0.141865)
(9.68192 2.45553e-21 0.154752)
(9.72776 -3.37136e-23 0.166134)
(9.58641 9.233e-20 0.178401)
(9.63997 4.5661e-23 0.192549)
(9.47818 9.46559e-20 0.204532)
(9.54004 6.2081e-20 0.221576)
(9.35661 -1.92382e-20 0.233565)
(9.42752 -3.2e-20 0.253695)
(9.22091 -4.06999e-20 0.265975)
(9.30182 -3.10789e-22 0.289433)
(9.07018 8.56961e-20 0.302292)
(9.16219 2.66779e-20 0.329384)
(8.90333 -8.61152e-20 0.343119)
(9.00776 9.41731e-20 0.374207)
(8.71917 -7.25695e-20 0.389163)
(8.83748 9.69748e-21 0.424658)
(8.51627 -1.04383e-19 0.441236)
(8.65022 -2.47903e-19 0.481638)
(8.29306 2.17039e-19 0.500236)
(8.44475 -4.58439e-21 0.546166)
(8.04771 1.63759e-19 0.567152)
(8.21954 3.76712e-19 0.619372)
(7.77818 -2.61848e-19 0.643079)
(7.97287 -1.90566e-19 0.702522)
(7.4822 -4.56885e-19 0.729198)
(7.70285 2.40773e-20 0.797025)
(7.1572 5.63653e-19 0.826747)
(7.40733 -3.49001e-19 0.904413)
(6.80025 1.39868e-18 0.936998)
(7.08382 8.88991e-19 1.02633)
(6.40797 5.16672e-19 1.0612)
(6.72938 4.03332e-19 1.16451)
(5.97642 1.89581e-19 1.20051)
(6.34051 -1.01807e-18 1.32074)
(5.50076 2.59027e-19 1.35596)
(5.91286 2.34178e-19 1.49687)
(4.97453 1.3188e-19 1.52868)
(5.44065 1.02023e-18 1.69488)
(4.38833 -1.39887e-19 1.72039)
(4.91576 1.35157e-19 1.91734)
(3.72698 -2.22671e-21 1.93489)
(4.32619 1.26201e-19 2.16848)
(2.96153 -1.36696e-19 2.17946)
(3.65145 -2.04786e-18 2.45824)
(2.06293 2.9396e-18 2.52457)
(2.88349 1.99809e-18 2.79073)
(1.84202 2.44351e-18 3.36812)
(9.99402 3.54026e-20 0.049334)
(9.99643 4.32617e-20 0.0368179)
(9.9739 -8.75691e-20 0.0743653)
(9.98444 1.1097e-20 0.0673306)
(9.9394 -5.01408e-20 0.0975828)
(9.95875 -1.16726e-20 0.0934584)
(9.89285 -7.43848e-20 0.121634)
(9.91887 -4.91016e-20 0.119672)
(9.83489 2.10099e-21 0.147089)
(9.86678 -3.12852e-22 0.14736)
(9.76553 5.50043e-20 0.174223)
(9.80365 5.35156e-20 0.176786)
(9.68472 -2.44004e-21 0.203495)
(9.72955 2.81812e-20 0.208364)
(9.59228 -2.90127e-20 0.23544)
(9.6442 8.81095e-20 0.242661)
(9.48789 -6.63574e-20 0.270604)
(9.54732 -1.22651e-19 0.280263)
(9.37108 -1.25021e-20 0.309568)
(9.43854 -6.5109e-20 0.321778)
(9.24125 6.75873e-20 0.35298)
(9.31742 -5.15169e-20 0.367868)
(9.09769 3.63485e-20 0.401559)
(9.18336 1.4034e-19 0.419284)
(8.93954 1.88463e-19 0.456108)
(9.03571 -1.30377e-19 0.476859)
(8.7659 -1.70047e-19 0.517561)
(8.87359 4.67557e-19 0.541515)
(8.57573 -1.44005e-19 0.587024)
(8.69614 -6.52958e-19 0.614348)
(8.36785 1.61692e-19 0.665749)
(8.50254 3.50304e-19 0.696674)
(8.14084 1.28588e-20 0.755125)
(8.29164 -1.1313e-20 0.789968)
(7.89312 9.88145e-20 0.856707)
(8.06216 1.66349e-22 0.895866)
(7.6229 1.25914e-19 0.972233)
(7.81268 2.52959e-20 1.01622)
(7.32812 -4.46513e-21 1.10361)
(7.54161 4.33984e-22 1.15313)
(7.00626 -1.12055e-19 1.25292)
(7.24701 -8.10505e-19 1.30895)
(6.65421 -1.14838e-18 1.42245)
(6.92648 -9.41212e-19 1.48632)
(6.26808 -9.60837e-19 1.61465)
(6.57699 -1.89412e-18 1.68824)
(5.84262 9.9786e-19 1.8323)
(6.1945 8.19324e-19 1.91813)
(5.37047 1.01617e-18 2.07879)
(5.77345 8.85801e-19 2.18016)
(4.84066 3.98304e-19 2.35917)
(5.30576 3.82563e-19 2.47989)
(4.23688 -1.89455e-18 2.68365)
(4.78038 3.45321e-21 2.82549)
(3.52573 -1.08506e-19 3.05848)
(4.16973 -4.46257e-18 3.23749)
(2.74156 1.54209e-18 3.56489)
(3.54881 4.22617e-18 3.66899)
(2.37992 -2.7987e-19 4.52318)
(9.99154 1.82575e-20 0.0553969)
(9.99567 -1.66189e-19 0.0403471)
(9.97095 8.64443e-20 0.0866408)
(9.98246 6.08968e-21 0.0762173)
(9.93707 -1.14257e-20 0.116068)
(9.95654 8.14219e-20 0.108672)
(9.89136 2.59978e-20 0.146173)
(9.91744 7.29688e-20 0.141016)
(9.83456 5.22208e-20 0.177942)
(9.86663 -2.57476e-20 0.174921)
(9.76678 2.61906e-20 0.211874)
(9.80507 1.06633e-19 0.210949)
(9.68796 1.19901e-19 0.248516)
(9.73289 0 0.249602)
(9.59795 -9.52237e-21 0.28849)
(9.64989 5.91882e-20 0.291516)
(9.49651 -1.20373e-19 0.332448)
(9.55583 -1.53487e-19 0.337376)
(9.38325 -1.03835e-19 0.381086)
(9.45043 6.36042e-20 0.387898)
(9.25771 2.47119e-20 0.435172)
(9.33332 -2.70138e-19 0.443863)
(9.11933 -3.11291e-20 0.495575)
(9.20403 2.61842e-19 0.50614)
(8.96743 1.59084e-19 0.563254)
(9.06206 -1.67424e-19 0.575729)
(8.80126 -3.45119e-20 0.639283)
(8.90676 6.09299e-19 0.653707)
(8.62008 -1.41746e-19 0.724961)
(8.73736 -6.43095e-19 0.74128)
(8.42308 1.71364e-19 0.821825)
(8.55329 1.69125e-19 0.839969)
(8.20927 -2.37933e-20 0.931594)
(8.35382 -3.54128e-19 0.951549)
(7.97754 -7.28797e-20 1.05619)
(8.13811 3.18305e-19 1.07796)
(7.72662 -1.00445e-19 1.19782)
(7.90517 -9.67791e-20 1.22144)
(7.45508 -8.16602e-19 1.35899)
(7.65396 -1.58444e-21 1.38454)
(7.16106 -1.64186e-18 1.54257)
(7.3832 -9.1196e-19 1.57028)
(6.84218 -1.69909e-18 1.75191)
(7.09123 -9.64946e-21 1.78217)
(6.49528 -9.27903e-20 1.99085)
(6.77589 -1.596e-18 2.02432)
(6.11591 7.07156e-19 2.26409)
(6.4342 2.69019e-18 2.30175)
(5.69768 2.50283e-19 2.57762)
(6.06198 -1.8873e-18 2.6207)
(5.2312 -7.51097e-21 2.93917)
(5.65292 -1.14977e-19 2.98932)
(4.70535 -2.52322e-18 3.36269)
(5.20122 -2.18878e-18 3.41649)
(4.08162 -6.21606e-19 3.84574)
(4.66419 -3.69119e-19 3.93484)
(3.45394 2.15553e-18 4.45477)
(4.23938 -1.61109e-18 4.40448)
(2.96461 4.35333e-18 5.47589)
(9.99023 -1.75077e-19 0.0618854)
(9.9953 5.19852e-21 0.0444186)
(9.96924 2.6556e-21 0.0987721)
(9.98143 -1.68325e-20 0.0852814)
(9.93606 1.6567e-19 0.134194)
(9.95553 1.17654e-20 0.123585)
(9.89147 1.91851e-20 0.170385)
(9.91736 7.27696e-20 0.161853)
(9.83616 3.13367e-20 0.208517)
(9.86805 -5.12434e-20 0.201792)
(9.77026 7.83753e-20 0.249237)
(9.80837 -2.63001e-20 0.2442)
(9.69374 -5.96086e-20 0.293162)
(9.73845 5.54636e-20 0.289687)
(9.60649 -8.88238e-20 0.340985)
(9.65816 -1.1686e-19 0.338948)
(9.5083 3.45391e-20 0.393448)
(9.56731 1.51633e-19 0.392752)
(9.39887 -1.0867e-19 0.451353)
(9.46569 -1.2601e-19 0.451911)
(9.27783 -2.34842e-20 0.515576)
(9.35299 -3.01694e-19 0.517306)
(9.14474 1.18147e-19 0.587114)
(9.22884 1.37625e-19 0.589906)
(8.9991 2.96154e-19 0.66709)
(9.09283 1.25769e-19 0.670833)
(8.8403 -2.03115e-20 0.75672)
(8.94458 3.93334e-21 0.761338)
(8.66773 -3.18901e-19 0.85742)
(8.78349 -2.40193e-20 0.862749)
(8.48085 -3.64786e-19 0.970923)
(8.609 -1.55646e-20 0.976681)
(8.27907 -1.97381e-21 1.09922)
(8.42077 -3.54299e-19 1.1051)
(8.0617 2.88375e-19 1.24456)
(8.21828 3.75688e-19 1.25024)
(7.82794 3.38408e-21 1.40953)
(8.00099 7.56167e-19 1.41462)
(7.57691 -1.09543e-19 1.59715)
(7.7683 -7.75607e-19 1.60123)
(7.3075 7.27797e-19 1.811)
(7.51958 -1.55808e-19 1.81359)
(7.01821 7.89483e-20 2.05533)
(7.25397 2.68349e-20 2.05593)
(6.70703 1.21756e-18 2.33525)
(6.97033 -1.34348e-19 2.33335)
(6.37109 8.50381e-20 2.657)
(6.66713 1.97279e-18 2.65207)
(6.00624 -2.24382e-18 3.0285)
(6.34216 -3.57959e-18 3.0198)
(5.60597 -2.27613e-18 3.45887)
(5.99136 1.57339e-18 3.44646)
(5.16715 -6.81812e-20 3.96284)
(5.61737 -3.7145e-18 3.9383)
(4.64259 -1.51651e-18 4.52477)
(5.15126 3.64733e-18 4.54503)
(4.16251 2.66517e-18 5.17938)
(4.93456 -3.5195e-18 5.00451)
(3.57111 4.08885e-18 6.23859)
(9.98959 1.63047e-19 0.0686102)
(9.99515 8.54561e-20 0.0487539)
(9.96848 -7.06793e-21 0.11079)
(9.98104 7.77784e-20 0.094404)
(9.9361 -7.98749e-20 0.151913)
(9.95544 -8.1397e-20 0.138151)
(9.89287 -2.16151e-22 0.193969)
(9.91837 -4.80354e-22 0.18208)
(9.83932 -1.08393e-19 0.238209)
(9.87076 5.0719e-20 0.227837)
(9.77563 -4.7665e-20 0.285414)
(9.81323 -1.06075e-19 0.276384)
(9.70179 -5.03381e-21 0.336287)
(9.74591 1.85469e-22 0.32843)
(9.61771 1.28655e-19 0.39159)
(9.66873 -1.16709e-19 0.384734)
(9.52326 -1.39471e-20 0.452157)
(9.58154 3.62784e-19 0.446132)
(9.41818 -3.22255e-19 0.518882)
(9.48418 -2.53276e-19 0.513525)
(9.30219 -1.32845e-19 0.592738)
(9.37644 -6.94149e-20 0.587883)
(9.17493 1.45054e-19 0.674815)
(9.25803 3.10321e-20 0.670265)
(9.03607 -1.6854e-19 0.766355)
(9.12861 2.86776e-19 0.761866)
(8.88524 -5.35292e-22 0.868727)
(8.98802 -3.05459e-19 0.864055)
(8.72196 2.7984e-19 0.983469)
(8.83589 3.14822e-19 0.978339)
(8.54581 -1.03053e-20 1.11243)
(8.67175 -2.52673e-22 1.10643)
(8.35648 3.43401e-20 1.25778)
(8.49544 0 1.25039)
(8.15365 8.48389e-19 1.42203)
(8.30676 -6.8779e-19 1.41265)
(7.93694 -4.13433e-20 1.6081)
(8.10549 2.27123e-18 1.59601)
(7.70599 -8.14802e-19 1.81942)
(7.89153 -1.55776e-18 1.80375)
(7.46041 -8.52571e-19 2.06009)
(7.6648 5.03342e-20 2.03982)
(7.19962 -1.91182e-19 2.33511)
(7.4252 -1.65933e-18 2.30898)
(6.92289 6.4024e-19 2.65052)
(7.17266 1.62829e-18 2.61704)
(6.62917 -1.70104e-18 3.01368)
(6.90708 5.23475e-20 2.97109)
(6.31697 2.06599e-19 3.43353)
(6.6284 -1.80305e-18 3.37968)
(5.98271 1.68141e-19 3.91899)
(6.33425 1.94884e-18 3.85369)
(5.63089 -4.41245e-20 4.48442)
(6.03804 -1.78617e-18 4.39373)
(5.20407 1.80214e-18 5.10047)
(5.63461 -1.43405e-18 5.07302)
(4.84181 1.22139e-19 5.76145)
(5.61402 3.08801e-18 5.49297)
(4.17679 3.3883e-18 6.84414)
(9.98937 0 0.0754089)
(9.99514 -1.05846e-20 0.0531792)
(9.96844 0 0.122605)
(9.9811 1.09963e-20 0.103457)
(9.937 -2.54742e-22 0.169115)
(9.95607 -2.30571e-20 0.15231)
(9.89532 5.15282e-20 0.216773)
(9.92027 -7.26193e-20 0.20161)
(9.84379 4.99448e-20 0.266867)
(9.87457 -4.96707e-20 0.252938)
(9.7826 -5.61647e-20 0.320284)
(9.81945 -5.24886e-20 0.307354)
(9.71178 -1.1373e-19 0.377803)
(9.75504 -6.67755e-22 0.365656)
(9.63129 1.26302e-19 0.440253)
(9.6813 -1.15768e-19 0.428662)
(9.54103 1.12386e-19 0.508538)
(9.59818 1.20409e-19 0.497269)
(9.44084 2.95282e-21 0.583633)
(9.50556 6.18482e-20 0.572449)
(9.33049 9.63913e-20 0.666597)
(9.4033 2.86053e-22 0.655253)
(9.20974 1.77112e-19 0.758591)
(9.29123 -4.09367e-19 0.746817)
(9.07837 1.40281e-19 0.860939)
(9.16912 6.38325e-19 0.848394)
(8.9362 1.9896e-20 0.975136)
(9.03689 -2.56569e-19 0.96143)
(8.78294 2.96646e-20 1.10286)
(8.89438 2.90375e-19 1.08758)
(8.61836 1.00687e-20 1.24607)
(8.74136 -2.67783e-19 1.22867)
(8.44232 -7.31871e-19 1.40705)
(8.57781 2.06472e-20 1.38686)
(8.25481 7.72957e-19 1.58849)
(8.40376 -7.22247e-19 1.56469)
(8.05584 7.10143e-19 1.79355)
(8.21936 7.49497e-19 1.76514)
(7.84555 -6.74683e-19 2.026)
(8.02489 -7.62974e-19 1.99175)
(7.62417 -7.72751e-19 2.29033)
(7.82079 1.57086e-18 2.24878)
(7.39204 1.7779e-19 2.59203)
(7.60772 -3.4324e-20 2.54136)
(7.14963 1.03281e-18 2.9378)
(7.38652 2.52871e-18 2.87577)
(6.8976 -5.60464e-20 3.33561)
(7.15838 -1.60795e-18 3.25962)
(6.63691 -8.28642e-20 3.79484)
(6.92522 -1.71934e-18 3.70178)
(6.36625 2.65299e-20 4.32305)
(6.68536 1.60283e-18 4.21389)
(6.09632 -3.10685e-18 4.93377)
(6.46445 0 4.78838)
(5.76013 -1.19267e-18 5.58618)
(6.11469 -5.69249e-18 5.52704)
(5.48188 6.3287e-18 6.23592)
(6.26596 5.86933e-18 5.89705)
(4.7692 6.21577e-18 7.3322)
(9.98943 8.89204e-22 0.0821531)
(9.99523 -2.11259e-20 0.0575805)
(9.96894 -1.28066e-20 0.134122)
(9.98149 2.19469e-20 0.112326)
(9.93861 -9.64865e-20 0.185719)
(9.95726 -2.30713e-20 0.165986)
(9.89866 -1.73414e-19 0.238701)
(9.92292 -7.24082e-20 0.220358)
(9.84938 -1.52262e-19 0.294378)
(9.87931 9.95169e-20 0.276984)
(9.79097 4.04281e-21 0.353709)
(9.82683 5.14552e-20 0.336977)
(9.72349 -4.78755e-21 0.41754)
(9.76562 5.47315e-20 0.401208)
(9.64695 -1.17398e-19 0.486755)
(9.69567 5.59729e-20 0.470544)
(9.56131 6.87774e-20 0.56232)
(9.61699 5.82698e-20 0.545936)
(9.46646 5.82193e-20 0.64528)
(9.52953 6.39158e-20 0.62842)
(9.36229 -5.12596e-19 0.736763)
(9.43323 -6.40097e-20 0.719109)
(9.24867 6.88082e-20 0.837996)
(9.32801 -3.75764e-19 0.819196)
(9.1255 2.27466e-19 0.950368)
(9.2138 5.66319e-19 0.929995)
(8.99267 2.22096e-20 1.07547)
(9.09058 -2.21058e-19 1.05303)
(8.85013 -1.50405e-20 1.21509)
(8.95834 3.0903e-19 1.19002)
(8.69788 -2.5337e-19 1.37126)
(8.81713 -9.47923e-19 1.3429)
(8.53597 2.03893e-20 1.54638)
(8.6671 -6.62081e-21 1.51391)
(8.36467 -7.27472e-19 1.74327)
(8.50854 6.27416e-19 1.70569)
(8.18435 -7.43171e-19 1.96526)
(8.34187 -1.4602e-18 1.92134)
(7.99557 1.50363e-18 2.21635)
(8.16773 -3.70497e-20 2.16458)
(7.79919 2.29885e-18 2.50132)
(7.98708 2.25292e-18 2.43986)
(7.59633 2.32843e-18 2.82597)
(7.80126 7.7746e-19 2.7526)
(7.38852 -1.10021e-19 3.19734)
(7.61194 1.49789e-18 3.10932)
(7.17785 -3.26819e-18 3.62371)
(7.42133 -3.27528e-18 3.51794)
(6.96724 -7.01196e-20 4.1145)
(7.23306 1.41922e-18 3.98732)
(6.75656 1.59728e-18 4.67578)
(7.04509 -1.38806e-18 4.53002)
(6.56094 -2.47251e-18 5.31964)
(6.89547 1.09234e-18 5.12887)
(6.30719 -8.75413e-19 5.99752)
(6.59215 -6.11815e-18 5.916)
(6.08327 5.79007e-18 6.63673)
(6.88677 5.33994e-18 6.24265)
(5.34546 2.95912e-18 7.74063)
(9.98968 8.80451e-22 0.0887442)
(9.99538 1.56833e-19 0.0618787)
(9.96985 1.07096e-20 0.145255)
(9.98211 -1.41265e-19 0.120916)
(9.94081 0 0.201646)
(9.9589 -2.27531e-20 0.179102)
(9.90277 2.04132e-19 0.259662)
(9.92621 0 0.238244)
(9.85596 3.02468e-19 0.320627)
(9.88486 1.00582e-19 0.299871)
(9.80059 1.02287e-19 0.385551)
(9.83525 3.88268e-22 0.36513)
(9.73675 1.15555e-19 0.45533)
(9.77748 6.17593e-22 0.434934)
(9.66449 2.31858e-19 0.530898)
(9.71163 -1.11823e-19 0.510202)
(9.58384 5.35404e-20 0.613275)
(9.63774 6.18138e-22 0.591928)
(9.49477 -6.06078e-20 0.703565)
(9.55582 1.21551e-19 0.681203)
(9.39724 6.79502e-20 0.802944)
(9.4659 0 0.779189)
(9.29124 1.36995e-19 0.912689)
(9.36799 4.92821e-22 0.887112)
(9.17679 1.05433e-19 1.03424)
(9.26215 -2.74764e-19 1.00634)
(9.05393 7.38197e-20 1.16927)
(9.14848 2.4844e-19 1.13845)
(8.92278 -6.41989e-19 1.31963)
(9.02713 3.79525e-20 1.28522)
(8.78355 -6.8957e-19 1.48742)
(8.89834 -5.39305e-20 1.44864)
(8.63654 6.07599e-19 1.67515)
(8.76248 5.73239e-20 1.63102)
(8.48226 -1.28599e-19 1.8857)
(8.62009 -6.40153e-19 1.83506)
(8.32141 -7.42717e-19 2.12252)
(8.47188 -1.11872e-19 2.06397)
(8.15497 7.28049e-19 2.38976)
(8.31885 -6.77578e-21 2.32155)
(7.98435 7.23957e-19 2.69238)
(8.16236 7.3167e-19 2.61237)
(7.81142 -4.99458e-20 3.0364)
(8.0044 -1.43598e-18 2.94201)
(7.63863 -1.66214e-18 3.42901)
(7.84747 1.4416e-18 3.31718)
(7.4691 1.37438e-18 3.87858)
(7.69456 -2.95862e-18 3.74596)
(7.30725 1.37435e-19 4.3946)
(7.55069 4.45157e-18 4.23705)
(7.15318 -1.98841e-18 4.98189)
(7.4129 -4.31218e-18 4.80448)
(7.02362 -2.39613e-18 5.65089)
(7.33037 4.01896e-18 5.42148)
(6.84547 -2.24232e-18 6.3498)
(7.07003 -4.20344e-18 6.24799)
(6.65406 2.29368e-18 6.99408)
(7.48009 5.69644e-18 6.55269)
(5.91183 -2.53796e-18 8.10703)
(9.99007 8.96721e-21 0.095105)
(9.99557 1.66903e-19 0.0660167)
(9.9711 -1.72231e-19 0.155921)
(9.98293 2.13586e-20 0.129145)
(9.94351 -2.22848e-20 0.216818)
(9.96092 -2.27695e-20 0.191584)
(9.90754 -1.01615e-19 0.279567)
(9.93002 1.88878e-19 0.255193)
(9.8634 -2.03647e-19 0.345507)
(9.8911 -9.96552e-20 0.321513)
(9.81128 -1.01371e-19 0.415678)
(9.84453 -1.04006e-19 0.391702)
(9.75134 -2.28967e-19 0.491015)
(9.79044 1.07553e-19 0.4667)
(9.68369 -3.41355e-19 0.572498)
(9.72896 -3.37772e-19 0.547471)
(9.60839 7.06699e-20 0.66119)
(9.66017 -1.17942e-19 0.635054)
(9.52547 1.80307e-19 0.758239)
(9.58412 6.21626e-20 0.730582)
(9.43499 -6.7507e-20 0.864853)
(9.50094 2.52399e-19 0.835246)
(9.33707 -4.15897e-19 0.982345)
(9.41075 -5.88606e-19 0.950289)
(9.23183 -1.24353e-19 1.11221)
(9.3137 -7.76986e-21 1.07712)
(9.11946 2.09746e-19 1.25615)
(9.21004 1.43092e-19 1.21735)
(9.00024 6.25406e-19 1.41606)
(9.10006 7.22372e-20 1.3728)
(8.87459 6.96106e-19 1.59412)
(8.98417 1.50384e-20 1.54548)
(8.74307 -1.1992e-18 1.79285)
(8.863 7.00394e-19 1.73774)
(8.60645 -6.21401e-19 2.01521)
(8.73732 -6.32126e-19 1.95231)
(8.46573 6.25359e-19 2.26472)
(8.60813 6.36551e-19 2.19246)
(8.32228 0 2.54559)
(8.47677 2.77532e-21 2.46205)
(8.17799 -1.43995e-18 2.86285)
(8.34502 -6.76416e-19 2.76568)
(8.03547 5.11067e-20 3.22264)
(8.21538 -1.26699e-18 3.10891)
(7.89797 1.55136e-19 3.63235)
(8.09105 1.49138e-18 3.49866)
(7.76942 5.02786e-20 4.10037)
(7.97593 7.75163e-23 3.94327)
(7.65527 1.07734e-19 4.63652)
(7.87618 -1.20765e-18 4.45122)
(7.55595 1.43699e-18 5.24472)
(7.78757 -6.93672e-19 5.03813)
(7.48582 2.21713e-18 5.93495)
(7.76888 2.35864e-18 5.67047)
(7.37997 2.4658e-18 6.65621)
(7.55421 4.97535e-19 6.52824)
(7.21052 -2.08744e-18 7.33549)
(8.05668 3.06007e-18 6.84568)
(6.48535 -2.53618e-18 8.4711)
(9.99055 1.76532e-19 0.101174)
(9.99578 -3.32257e-19 0.0699529)
(9.97261 1.6996e-19 0.16605)
(9.98388 3.24282e-19 0.136944)
(9.94663 1.92893e-19 0.231166)
(9.96326 6.75891e-20 0.203363)
(9.91286 1.85175e-19 0.298339)
(9.93429 -4.62757e-20 0.271141)
(9.87152 0 0.368923)
(9.89789 0 0.341836)
(9.82285 1.08969e-19 0.443969)
(9.85451 0 0.416598)
(9.76705 -9.20324e-21 0.524445)
(9.80428 2.13206e-19 0.496385)
(9.70427 -1.10373e-19 0.611372)
(9.7474 -6.58486e-22 0.582205)
(9.63462 -1.23466e-19 0.705857)
(9.68396 6.49262e-22 0.675145)
(9.55818 1.37286e-19 0.809073)
(9.61406 -2.40576e-19 0.776371)
(9.4751 -2.81936e-19 0.92224)
(9.53794 2.52797e-19 0.887074)
(9.38562 -1.71851e-19 1.0467)
(9.45579 -1.36639e-19 1.0085)
(9.28999 2.62247e-19 1.18398)
(9.36787 -5.97771e-20 1.14208)
(9.18853 4.33211e-21 1.3358)
(9.27457 -7.11277e-22 1.28947)
(9.08168 -5.39594e-19 1.50407)
(9.17634 8.18363e-22 1.45247)
(8.97005 2.62084e-20 1.69097)
(9.07375 -6.04074e-19 1.6331)
(8.85446 1.25613e-18 1.89906)
(8.96762 5.41079e-19 1.8337)
(8.73595 6.40489e-19 2.13131)
(8.859 1.4138e-18 2.05703)
(8.61585 9.67221e-21 2.39131)
(8.74918 -5.45501e-19 2.30634)
(8.49588 -6.75753e-19 2.68324)
(8.63986 1.61822e-19 2.58554)
(8.37835 -5.06e-19 3.01212)
(8.53329 -1.97592e-18 2.89919)
(8.26645 1.69246e-19 3.38409)
(8.43226 -2.5999e-18 3.25275)
(8.16425 1.33952e-18 3.80679)
(8.34052 1.29915e-18 3.65318)
(8.07647 -1.24242e-18 4.28879)
(8.26315 1.34885e-18 4.10921)
(8.00922 -2.02528e-18 4.84032)
(8.20745 -2.03783e-18 4.62931)
(7.96416 1.14775e-19 5.46512)
(8.16786 8.04715e-20 5.23021)
(7.95025 6.8085e-19 6.1758)
(8.21086 -1.13019e-18 5.87699)
(7.91978 1.04734e-18 6.92543)
(8.05251 1.91402e-19 6.75723)
(7.77894 -7.4966e-20 7.68458)
(8.63402 -1.01829e-18 7.13217)
(7.09543 2.03804e-18 8.87047)
(9.99112 -1.71918e-19 0.106901)
(9.99598 -1.66696e-19 0.0736578)
(9.97434 2.16388e-19 0.175575)
(9.98494 -4.25271e-20 0.14425)
(9.95011 -1.74051e-19 0.244627)
(9.96588 -8.86244e-20 0.214374)
(9.91865 -2.30727e-19 0.315918)
(9.93892 -2.39352e-21 0.286043)
(9.88022 0 0.390802)
(9.90513 -2.42787e-19 0.360789)
(9.83514 1.08202e-19 0.470331)
(9.86509 1.006e-19 0.439745)
(9.78366 2.18065e-19 0.555503)
(9.8189 1.05773e-19 0.523893)
(9.72596 1.10533e-19 0.647388)
(9.76678 1.118e-19 0.614294)
(9.66217 -1.20491e-19 0.747128)
(9.70886 6.95687e-22 0.712078)
(9.59247 -1.17316e-19 0.855908)
(9.64531 2.36127e-19 0.818422)
(9.51708 3.92561e-19 0.97494)
(9.57652 -1.22065e-19 0.934503)
(9.43634 -2.29687e-20 1.10556)
(9.5027 2.59806e-19 1.06155)
(9.35063 -3.22681e-19 1.24933)
(9.42414 -2.67223e-19 1.20102)
(9.26039 -4.14037e-21 1.40796)
(9.34145 -2.01882e-19 1.35457)
(9.16624 -7.07555e-20 1.58335)
(9.25522 6.75508e-20 1.52397)
(9.06895 -7.68364e-20 1.77767)
(9.16618 0 1.71124)
(8.96956 7.06499e-19 1.99345)
(9.07533 6.58254e-19 1.91865)
(8.8694 2.13806e-19 2.23366)
(8.98393 2.52132e-20 2.14892)
(8.77015 -3.87811e-19 2.50186)
(8.8936 -5.52396e-19 2.40529)
(8.67395 -1.14614e-18 2.80224)
(8.80638 -7.67715e-19 2.69159)
(8.58344 -4.08082e-18 3.1397)
(8.7251 -3.72193e-19 3.01239)
(8.50222 -1.48902e-18 3.52031)
(8.65274 -2.78036e-18 3.37299)
(8.4352 1.3102e-18 3.9518)
(8.59343 1.30509e-18 3.78015)
(8.38806 6.00945e-19 4.44315)
(8.55357 0 4.24284)
(8.36748 3.9494e-20 5.00482)
(8.54182 1.19394e-18 4.76974)
(8.37733 -1.14264e-18 5.64167)
(8.55222 -5.89973e-19 5.37811)
(8.42055 -1.47234e-18 6.37209)
(8.65609 -5.5644e-19 6.03771)
(8.47723 -1.85433e-18 7.15753)
(8.57321 -3.55213e-20 6.92776)
(8.39653 1.37599e-18 8.05616)
(9.23303 -1.65317e-18 7.40758)
(7.78359 1.24767e-18 9.33133)
(9.99171 -3.48591e-20 0.112243)
(9.9962 1.75559e-19 0.0771177)
(9.97623 -3.48734e-19 0.184437)
(9.98608 -1.82598e-19 0.151005)
(9.95386 8.49351e-20 0.257155)
(9.96867 -4.03025e-22 0.224571)
(9.92477 -1.90876e-20 0.332262)
(9.94384 4.74667e-20 0.299867)
(9.88937 -1.35734e-19 0.411079)
(9.9128 -4.93694e-20 0.378316)
(9.84806 9.82944e-20 0.494677)
(9.87625 -2.01609e-19 0.461052)
(9.80108 -5.1256e-22 0.584097)
(9.83427 3.12154e-19 0.549132)
(9.7486 0 0.680448)
(9.78708 2.16984e-19 0.643658)
(9.69084 3.61456e-19 0.784884)
(9.7348 -7.3606e-23 0.74577)
(9.62808 2.26178e-19 0.898583)
(9.67774 3.55969e-19 0.856618)
(9.56064 -2.49578e-19 1.02275)
(9.61644 -2.43484e-19 0.977379)
(9.48887 8.03637e-21 1.15871)
(9.55111 -1.27447e-19 1.1093)
(9.41325 -1.45214e-19 1.30801)
(9.48209 3.90096e-19 1.2538)
(9.33442 -1.27365e-19 1.47236)
(9.41015 -5.36448e-19 1.4125)
(9.25313 1.37838e-19 1.65364)
(9.33603 -2.69945e-19 1.58716)
(9.17034 7.42875e-19 1.85394)
(9.26063 5.58192e-19 1.77973)
(9.08728 -2.77395e-20 2.07573)
(9.18512 5.9229e-19 1.99241)
(9.00551 -7.46042e-19 2.32193)
(9.11096 -8.96979e-19 2.22784)
(8.92706 -9.33619e-19 2.596)
(9.04001 0 2.48914)
(8.8545 6.18742e-21 2.90208)
(8.97463 -4.80382e-19 2.78)
(8.7909 9.32299e-19 3.24502)
(8.91824 3.2925e-19 3.10496)
(8.74016 0 3.63054)
(8.87417 -1.76926e-18 3.46911)
(8.70785 0 4.06636)
(8.84694 1.16814e-18 3.87879)
(8.70099 5.76128e-19 4.5617)
(8.84389 0 4.34275)
(8.72726 5.93853e-19 5.12709)
(8.87531 -4.53385e-19 4.86988)
(8.7938 0 5.76972)
(8.93715 1.00785e-18 5.47709)
(8.89994 8.73318e-19 6.51404)
(9.10206 -8.61674e-19 6.14278)
(9.06338 1.7284e-19 7.33559)
(9.12015 8.93067e-19 7.02038)
(9.10835 -1.62248e-18 8.44676)
(9.86965 3.82496e-20 7.63674)
(8.60486 -3.50363e-19 9.85838)
(9.99234 2.08945e-20 0.117171)
(9.99651 -3.06398e-19 0.0803169)
(9.97824 1.69834e-19 0.192591)
(9.98728 2.08692e-20 0.157184)
(9.95784 -3.69129e-20 0.268705)
(9.9715 1.17276e-19 0.233912)
(9.93128 1.52505e-20 0.347321)
(9.94899 -1.60972e-20 0.31255)
(9.89908 -1.18064e-19 0.429686)
(9.9209 2.42714e-19 0.394341)
(9.8617 2.15199e-20 0.516929)
(9.88798 -2.14008e-19 0.480446)
(9.81936 5.28327e-19 0.61016)
(9.85032 2.52379e-20 0.572036)
(9.77224 2.1348e-19 0.710498)
(9.80815 1.19627e-19 0.670245)
(9.7206 -7.2485e-23 0.81907)
(9.76163 -2.11563e-19 0.776177)
(9.66487 -1.23128e-19 0.937031)
(9.7112 1.08663e-19 0.890921)
(9.60547 -1.19523e-19 1.06561)
(9.65746 -1.23704e-19 1.01567)
(9.54278 2.62051e-19 1.20612)
(9.60073 0 1.15171)
(9.47738 -1.28056e-20 1.36005)
(9.54147 1.43065e-19 1.3004)
(9.41002 -6.76655e-19 1.52908)
(9.48043 -2.50777e-20 1.46327)
(9.34163 1.58428e-19 1.71502)
(9.41853 -1.04856e-18 1.64207)
(9.27332 4.07965e-19 1.9199)
(9.35681 5.69092e-19 1.83864)
(9.20653 -2.88917e-19 2.14608)
(9.29665 9.03696e-19 2.0551)
(9.14301 -1.43758e-19 2.39636)
(9.23972 -1.07993e-18 2.29396)
(9.08503 4.52823e-19 2.674)
(9.18807 1.07781e-18 2.55816)
(9.03552 -1.54575e-19 2.98303)
(9.14432 7.31891e-19 2.85116)
(8.99814 -2.37801e-18 3.32815)
(9.11218 -1.43412e-18 3.17726)
(8.97724 -6.22386e-19 3.71472)
(9.09565 -1.81358e-18 3.54137)
(8.97881 1.18162e-18 4.14999)
(9.10001 1.19853e-18 3.9492)
(9.01116 -1.02942e-18 4.64278)
(9.13273 0 4.40854)
(9.08371 -7.09582e-20 5.20348)
(9.20559 -1.98284e-18 4.92797)
(9.20844 1.84512e-19 5.84116)
(9.31902 1.08179e-18 5.52206)
(9.38609 -8.78501e-19 6.58145)
(9.54367 6.6653e-19 6.17723)
(9.67719 7.1391e-19 7.41811)
(9.68542 6.34518e-19 7.00225)
(9.96647 1.46623e-18 8.82448)
(10.5996 1.43053e-18 7.69267)
(10.5876 -8.87759e-20 10.2796)
(0.173052 3.09115e-21 -0.12247)
(0.0893444 4.97822e-21 -0.12546)
(0.392329 -2.25671e-21 -0.111798)
(0.221537 1.78105e-22 -0.132462)
(0.65107 -4.02772e-21 -0.0954581)
(0.455535 -7.95634e-21 -0.122785)
(0.948263 -2.28581e-21 -0.085654)
(0.728484 7.73182e-21 -0.118387)
(1.26425 5.07302e-22 -0.0805838)
(1.03125 -6.91389e-21 -0.117771)
(1.57064 -1.18545e-21 -0.077155)
(1.33751 4.62071e-21 -0.117672)
(1.84813 -6.50726e-22 -0.0732776)
(1.62036 -3.12772e-22 -0.115042)
(2.09006 7.23527e-23 -0.0683479)
(1.86644 2.0724e-22 -0.108916)
(2.29699 9.02389e-23 -0.0626126)
(2.07413 3.47931e-22 -0.100235)
(2.47183 8.61086e-22 -0.0564251)
(2.24628 1.6994e-22 -0.0900969)
(2.61734 6.83036e-22 -0.0501)
(2.38658 9.89276e-22 -0.0790412)
(2.7364 0 -0.0439757)
(2.49803 9.33957e-22 -0.0677064)
(2.83197 0 -0.0383535)
(2.58339 1.08239e-22 -0.0566765)
(2.90719 0 -0.0334222)
(2.64558 -1.56367e-21 -0.046412)
(2.96496 0 -0.0293064)
(2.68726 5.33632e-22 -0.0370886)
(3.00779 0 -0.0262007)
(2.71039 0 -0.0287735)
(3.03846 0 -0.024253)
(2.71665 0 -0.021825)
(3.05973 0 -0.0234128)
(2.70827 0 -0.0163687)
(3.07402 4.37532e-23 -0.0234894)
(2.68774 0 -0.0122924)
(3.08377 -2.12946e-23 -0.0241044)
(2.65826 4.39794e-23 -0.00968284)
(3.09176 -4.33881e-23 -0.0247027)
(2.62536 -5.49907e-22 -0.0088141)
(3.10101 -2.08957e-23 -0.0248726)
(2.59607 0 -0.00986827)
(3.11459 4.30925e-22 -0.024728)
(2.57671 -2.0982e-23 -0.0129487)
(3.13634 -1.70023e-22 -0.0249184)
(2.57227 6.59987e-22 -0.0185978)
(3.17139 1.49716e-22 -0.0262779)
(2.58721 -7.21258e-22 -0.027788)
(3.22639 -6.03947e-23 -0.029741)
(2.62684 8.92494e-22 -0.0416723)
(3.31014 -1.75315e-21 -0.0365885)
(2.69852 -8.903e-22 -0.0618745)
(3.43404 -9.17124e-22 -0.0484631)
(2.8108 -2.55082e-21 -0.0904419)
(3.61172 0 -0.0665685)
(2.97316 1.48698e-21 -0.129357)
(3.25521 8.32176e-22 -0.177549)
(0.0887676 2.98166e-20 -0.187655)
(0.036579 -1.50768e-21 -0.212297)
(0.271117 -1.42771e-20 -0.197392)
(0.0985172 1.34085e-20 -0.238611)
(0.520665 -3.32262e-21 -0.189023)
(0.312616 3.54243e-21 -0.236422)
(0.813133 -1.8441e-21 -0.186023)
(0.558844 1.09225e-21 -0.232137)
(1.11815 5.42427e-21 -0.184919)
(0.830606 -1.13228e-20 -0.230865)