/*--------------------------------*- C++ -*----------------------------------*\
| =========                 |                                                 |
| \\      /  F ield         | OpenFOAM: The Open Source CFD Toolbox           |
|  \\    /   O peration     | Version:  dev                                   |
|   \\  /    A nd           | Web:      www.OpenFOAM.org                      |
|    \\/     M anipulation  |                                                 |
\*---------------------------------------------------------------------------*/
FoamFile
{
    version     2.0;
    format      ascii;
    class       volVectorField;
    location    "3.84";
    object      Force;
}
// * * * * * * * * * * * * * * * * * * * * * * * * * * * * * * * * * * * * * //

dimensions      [1 1 -2 0 0 0 0];

internalField   uniform (0 0 0);

boundaryField
{
    inlet
    {
        type            calculated;
        value           uniform (0 0 0);
    }
    outlet
    {
        type            calculated;
        value           uniform (0 0 0);
    }
    flap
    {
        type            calculated;
        value           nonuniform List<vector> 
33
(
(3.90629 7.42946e-23 -0.0906)
(3.8778 1.81551e-17 -0.170945)
(3.8538 4.69262e-22 -0.222441)
(3.83392 7.73017e-22 -0.235051)
(3.81591 1.10203e-39 -0.215127)
(3.79453 -1.30041e-18 -0.169194)
(3.76775 1.29405e-18 -0.105591)
(3.73498 -1.83671e-40 -0.0329509)
(3.69233 -1.11612e-22 0.0396727)
(3.63446 -3.25428e-22 0.104134)
(3.55146 1.2154e-18 0.154444)
(3.4283 -1.17016e-18 0.185978)
(3.23742 2.2045e-18 0.196614)
(2.9179 5.57864e-22 0.186705)
(2.29755 -6.34626e-22 0.150373)
(-0.0249409 7.49225e-23 0.452307)
(-0.0163444 8.03023e-18 0.265647)
(-0.00660225 7.33109e-23 0.084519)
(-0.0732308 1.54231e-17 0.00172846)
(-0.0726151 1.11043e-23 0.00300092)
(-0.0715917 -3.67342e-40 0.00382194)
(-0.0705254 -1.63361e-17 0.00390695)
(-0.0698619 4.71877e-20 0.00344527)
(-0.0701322 0 0.00259207)
(-0.0717336 1.68202e-17 0.00147111)
(-0.0746831 -1.11445e-26 0.000172768)
(-0.0785106 -1.82318e-24 -0.00123078)
(-0.0823746 2.75312e-20 -0.00261964)
(-0.0855215 5.6182e-23 -0.00381107)
(-0.08795 2.95183e-20 -0.00456722)
(-0.0885181 1.6384e-17 -0.00490104)
(-0.0840563 5.65857e-20 -0.0045594)
(-0.0683322 1.58362e-17 -0.00336879)
)
;
    }
    upperWall
    {
        type            calculated;
        value           uniform (0 0 0);
    }
    lowerWall
    {
        type            calculated;
        value           uniform (0 0 0);
    }
    frontAndBack
    {
        type            empty;
    }
}


// ************************************************************************* //
