/*--------------------------------*- C++ -*----------------------------------*\
| =========                 |                                                 |
| \\      /  F ield         | OpenFOAM: The Open Source CFD Toolbox           |
|  \\    /   O peration     | Version:  dev                                   |
|   \\  /    A nd           | Web:      www.OpenFOAM.org                      |
|    \\/     M anipulation  |                                                 |
\*---------------------------------------------------------------------------*/
FoamFile
{
    version     2.0;
    format      ascii;
    class       volVectorField;
    location    "3.16";
    object      U;
}
// * * * * * * * * * * * * * * * * * * * * * * * * * * * * * * * * * * * * * //

dimensions      [0 1 -1 0 0 0 0];

internalField   nonuniform List<vector> 
2790
(
(9.94595 5.32557e-21 0.0196185)
(9.87 -6.09284e-22 0.0284459)
(9.7613 2.52402e-21 0.0346962)
(9.63168 -2.6028e-21 0.0410097)
(9.4851 -2.70201e-21 0.0475016)
(9.32122 0 0.0541311)
(9.13946 0 0.061019)
(8.93955 0 0.0683271)
(8.72111 0 0.0761905)
(8.48352 0 0.0847188)
(8.22595 1.37224e-20 0.0940276)
(7.94744 -4.27663e-20 0.104242)
(7.64691 -3.75682e-22 0.115482)
(7.32321 3.08015e-20 0.127871)
(6.97516 3.26221e-20 0.141537)
(6.60158 -3.36461e-20 0.156597)
(6.20143 0 0.173129)
(5.77384 -5.61743e-20 0.191155)
(5.31843 7.71186e-20 0.210653)
(4.83536 1.02118e-19 0.231538)
(4.32542 -8.4478e-20 0.253578)
(3.79042 4.4417e-20 0.276349)
(3.23349 -4.63709e-20 0.299162)
(2.65935 4.83171e-20 0.320925)
(2.07485 5.02074e-20 0.339943)
(1.48947 0 0.353398)
(0.915753 0 0.355847)
(0.373937 0 0.330622)
(-0.188997 0 0.0874223)
(-0.134199 5.7515e-19 -0.312693)
(10.0062 -1.41824e-20 0.0395812)
(9.98684 9.72641e-21 0.0603166)
(9.93707 0 0.0761795)
(9.86497 -5.19986e-21 0.0926388)
(9.77334 -8.11436e-21 0.109969)
(9.66199 1.11341e-20 0.128003)
(9.53054 2.89527e-21 0.14696)
(9.37882 0 0.167196)
(9.20652 -7.80974e-22 0.189018)
(9.01307 0 0.212668)
(8.79764 0 0.238398)
(8.55934 0 0.266476)
(8.29712 1.18387e-19 0.297152)
(8.00981 -1.21934e-19 0.330666)
(7.69618 -1.59958e-20 0.36724)
(7.35501 0 0.407034)
(6.98514 1.58325e-19 0.450083)
(6.58552 -1.99998e-19 0.496225)
(6.15542 -3.07875e-19 0.545088)
(5.69474 2.97519e-19 0.59607)
(5.20393 0 0.648153)
(4.68425 -3.94392e-19 0.699745)
(4.13829 4.07194e-19 0.748536)
(3.5701 7.13191e-19 0.791184)
(2.98582 -8.32189e-19 0.822941)
(2.39454 0 0.83683)
(1.80911 0 0.821199)
(1.24682 0 0.752145)
(0.69975 0 0.568263)
(0.453153 1.13767e-19 0.170793)
(10.0033 2.3598e-20 0.0421575)
(9.98124 4.86605e-21 0.0724471)
(9.93386 -1.00296e-20 0.0986508)
(9.86687 1.55779e-20 0.125788)
(9.78177 0 0.154465)
(9.67845 2.23711e-20 0.184551)
(9.55682 -2.01502e-20 0.216312)
(9.41685 -4.82072e-20 0.250258)
(9.25838 5.03994e-20 0.286868)
(9.0809 0 0.326534)
(8.88373 3.3651e-21 0.369664)
(8.66613 -1.12914e-19 0.416694)
(8.4272 1.1621e-19 0.468058)
(8.16586 0 0.524181)
(7.88097 2.71857e-19 0.585456)
(7.57133 -2.63502e-19 0.652179)
(7.23579 -3.30728e-19 0.724487)
(6.87313 3.23349e-19 0.802231)
(6.4822 -6.07883e-19 0.88488)
(6.0623 7.04705e-19 0.971498)
(5.61313 0 1.06054)
(5.13483 -6.89631e-19 1.14951)
(4.62841 7.99135e-19 1.23475)
(4.09589 -1.30638e-18 1.31094)
(3.54035 1.34179e-18 1.37043)
(2.96647 1.98713e-19 1.40237)
(2.37943 1.64522e-18 1.3906)
(1.78471 -1.89059e-18 1.30868)
(1.14625 1.71989e-18 1.12138)
(0.668028 -1.35494e-18 0.776906)
(10.0016 -3.77034e-20 0.0472398)
(9.97715 0 0.0886588)
(9.9297 0 0.126537)
(9.86405 -3.11614e-20 0.164634)
(9.78075 2.141e-20 0.204169)
(9.67966 0 0.245362)
(9.56094 -5.76651e-21 0.288625)
(9.42477 9.60919e-20 0.334644)
(9.27115 -9.57791e-20 0.384101)
(9.09973 -1.0374e-19 0.437562)
(8.91 1.03367e-19 0.495585)
(8.70154 -1.1228e-19 0.558775)
(8.47366 3.49321e-19 0.627754)
(8.22559 -2.40525e-19 0.703143)
(7.9565 0 0.785518)
(7.66549 -2.64651e-19 0.875345)
(7.35164 3.06599e-19 0.97293)
(7.01398 -5.75513e-19 1.07829)
(6.65138 5.92113e-19 1.19096)
(6.26279 -6.25756e-19 1.30991)
(5.84743 -7.99995e-21 1.43338)
(5.40449 -6.699e-19 1.5585)
(4.93338 1.49545e-18 1.68087)
(4.43377 -1.63038e-18 1.79414)
(3.9051 1.89015e-19 1.88915)
(3.34654 -1.75985e-18 1.95336)
(2.75523 4.82658e-18 1.96995)
(2.12818 -3.08742e-18 1.91599)
(1.41512 0 1.77403)
(0.788534 -3.78513e-18 1.49987)
(10.0008 5.64215e-20 0.0538507)
(9.97505 1.93916e-20 0.104957)
(9.92753 -1.99797e-20 0.153145)
(9.86303 0 0.20122)
(9.78142 0 0.250847)
(9.68245 0 0.302561)
(9.5664 -1.14728e-20 0.356882)
(9.43352 9.57139e-20 0.414624)
(9.28386 -1.01554e-19 0.476619)
(9.11709 -1.03416e-19 0.543541)
(8.93285 3.24024e-19 0.616021)
(8.73089 -2.20615e-19 0.694768)
(8.51071 -2.46506e-19 0.780543)
(8.27174 4.65252e-19 0.874104)
(8.01337 -2.17202e-19 0.97615)
(7.73497 0 1.08727)
(7.43585 5.45533e-19 1.20792)
(7.11527 -1.12889e-18 1.3383)
(6.77233 5.10744e-19 1.47814)
(6.40589 1.15436e-18 1.62647)
(6.01477 -2.46601e-18 1.7816)
(5.59761 -1.15055e-18 1.94067)
(5.15254 -3.43219e-19 2.09923)
(4.67715 1.43073e-18 2.25079)
(4.16793 -1.46783e-18 2.38608)
(3.61997 0 2.49279)
(3.02529 -2.95617e-18 2.5555)
(2.37845 3.22143e-18 2.55488)
(1.62664 -3.31516e-18 2.48176)
(0.901627 3.48452e-18 2.29476)
(10.0005 -3.75723e-20 0.0611446)
(9.97419 0 0.121216)
(9.92695 3.99259e-20 0.179203)
(9.86373 -6.19439e-20 0.237177)
(9.78414 -2.25282e-22 0.296868)
(9.68781 4.40523e-20 0.358966)
(9.575 1.03336e-19 0.424121)
(9.44593 -1.06351e-19 0.493307)
(9.30062 -9.27134e-20 0.567475)
(9.13883 1.01833e-19 0.647363)
(8.96033 -1.1954e-23 0.733666)
(8.76493 0 0.827198)
(8.55223 2.4452e-19 0.928861)
(8.32175 -2.21618e-19 1.03954)
(8.07302 -3.0994e-20 1.16004)
(7.80552 3.20513e-20 1.29107)
(7.51868 -6.6648e-20 1.43321)
(7.21186 0 1.58684)
(6.88428 5.52121e-22 1.75193)
(6.53475 -1.20961e-18 1.9278)
(6.16179 6.26078e-20 2.11293)
(5.76351 -1.6268e-19 2.30479)
(5.33715 1.68665e-19 2.49944)
(4.87887 2.62148e-18 2.69094)
(4.38314 -2.86355e-18 2.87075)
(3.84263 2.98048e-18 3.02758)
(3.24681 -3.05332e-18 3.14747)
(2.59046 0 3.212)
(1.82516 0 3.21101)
(1.02457 3.61665e-18 3.10569)
(10.0004 -3.73915e-20 0.0687012)
(9.97415 1.92898e-20 0.137373)
(9.92751 -3.97834e-20 0.204724)
(9.86577 0 0.272281)
(9.78862 0 0.341659)
(9.69555 0 0.413684)
(9.58651 1.13724e-20 0.489232)
(9.46173 3.69276e-23 0.569449)
(9.32134 -6.12444e-21 0.655337)
(9.16525 -3.16392e-21 0.747658)
(8.9933 2.06645e-19 0.847199)
(8.80525 -2.1735e-19 0.9549)
(8.60071 -1.41344e-20 1.07178)
(8.37928 4.44334e-19 1.19881)
(8.14056 -4.86312e-19 1.33691)
(7.88408 -3.18465e-20 1.4869)
(7.60928 6.61653e-20 1.6495)
(7.31548 1.03375e-18 1.82527)
(7.00185 -1.12974e-18 2.01447)
(6.6672 1.18619e-18 2.21682)
(6.30974 -1.36981e-18 2.43122)
(5.92688 1.70526e-19 2.65562)
(5.51526 -1.14141e-18 2.88688)
(5.07013 2.89178e-18 3.1201)
(4.58469 2.28801e-20 3.34789)
(4.05026 -5.59117e-18 3.56007)
(3.45502 5.75846e-18 3.74345)
(2.79395 -6.11662e-18 3.87832)
(2.02718 -8.07443e-21 3.94757)
(1.15986 3.20143e-18 3.91363)
(10.0005 -9.24399e-21 0.0762813)
(9.97462 9.59511e-21 0.153284)
(9.9289 -3.9728e-20 0.229591)
(9.86898 4.08997e-20 0.306303)
(9.7948 -2.11469e-20 0.38491)
(9.70542 1.0977e-19 0.46645)
(9.6005 -3.3368e-20 0.55203)
(9.48045 -8.17864e-20 0.642876)
(9.34569 0 0.739972)
(9.19614 2.05582e-19 0.844136)
(9.03157 -4.16132e-19 0.956297)
(8.85174 2.15481e-19 1.07753)
(8.65626 4.65526e-19 1.20894)
(8.44481 -8.87854e-19 1.35158)
(8.21702 4.50337e-19 1.50646)
(7.97241 5.0373e-19 1.67455)
(7.71039 -5.165e-19 1.85676)
(7.43019 6.75797e-20 2.05384)
(7.13081 6.98276e-22 2.26635)
(6.81097 0 2.49452)
(6.46866 -1.27518e-18 2.73792)
(6.10062 9.85554e-21 2.99515)
(5.70284 -1.4303e-18 3.26398)
(5.26992 -2.47925e-18 3.54078)
(4.79415 2.70226e-18 3.81951)
(4.26594 -2.80555e-18 4.09105)
(3.67245 2.86782e-18 4.34235)
(3.00759 2.96469e-18 4.5518)
(2.24202 -6.08317e-18 4.69216)
(1.30846 3.12672e-18 4.72474)
(10.0007 3.72452e-20 0.0837435)
(9.97541 -1.91609e-20 0.168801)
(9.93101 1.97289e-20 0.25365)
(9.87335 -4.0898e-20 0.339044)
(9.80245 6.32005e-20 0.426424)
(9.717 -2.18334e-20 0.517095)
(9.61656 2.25831e-20 0.612315)
(9.50188 0 0.713267)
(9.37349 -1.20441e-20 0.82095)
(9.23121 0 0.936318)
(9.07474 0 1.06045)
(8.90392 0 1.19454)
(8.71844 4.39561e-19 1.33973)
(8.518 -4.7229e-19 1.49716)
(8.30224 2.30806e-22 1.66797)
(8.07067 0 1.85329)
(7.82266 0 2.05424)
(7.55735 6.56901e-20 2.27185)
(7.27356 6.8649e-20 2.50701)
(6.96976 -7.00971e-20 2.76049)
(6.64368 -1.02489e-18 3.03265)
(6.29186 -3.76162e-18 3.3231)
(5.90956 2.46645e-18 3.63065)
(5.49048 2.3968e-18 3.95297)
(5.02618 9.75176e-20 4.2856)
(4.50603 -1.55677e-19 4.62059)
(3.91581 -2.67827e-18 4.94486)
(3.2464 -2.19801e-20 5.23553)
(2.47951 0 5.45351)
(1.47389 -2.43763e-20 5.55659)
(10.001 9.27113e-21 0.0909993)
(9.97644 2.85407e-20 0.183784)
(9.93372 0 0.276726)
(9.87875 0 0.370337)
(9.81133 0 0.466066)
(9.73004 0 0.565451)
(9.63459 8.99484e-20 0.669804)
(9.5259 9.36667e-20 0.780247)
(9.40446 -1.79065e-19 0.897864)
(9.26999 0 1.02379)
(9.12229 0 1.15921)
(8.96125 0 1.30537)
(8.78667 -4.34338e-19 1.46349)
(8.59826 9.08578e-19 1.6348)
(8.39568 1.93166e-20 1.82058)
(8.17846 -2.55879e-20 2.02216)
(7.94592 5.08748e-19 2.24088)
(7.69715 -1.09626e-18 2.47809)
(7.43085 1.00707e-18 2.73513)
(7.14526 -2.06535e-18 3.0133)
(6.83781 1.05828e-18 3.31382)
(6.50502 -2.26912e-18 3.63756)
(6.14161 2.46348e-18 3.98467)
(5.74031 7.60758e-20 4.35431)
(5.29181 -7.96497e-20 4.74394)
(4.78398 0 5.1473)
(4.20033 -4.30773e-20 5.5519)
(3.52598 2.74917e-18 5.93452)
(2.75292 -2.76593e-18 6.24393)
(1.66353 1.12877e-20 6.43252)
(10.0013 -1.84691e-20 0.0979848)
(9.97765 -1.32887e-19 0.198111)
(9.9369 -1.11408e-22 0.298666)
(9.88495 8.07522e-20 0.400043)
(9.82123 4.16807e-20 0.5037)
(9.74443 0 0.611307)
(9.65449 2.2225e-20 0.724205)
(9.55227 -2.29596e-20 0.843507)
(9.43818 -1.90968e-19 0.970415)
(9.31204 2.08184e-19 1.10621)
(9.17374 -1.26589e-20 1.25215)
(9.02324 6.53829e-21 1.40952)
(8.86038 -5.27546e-23 1.57962)
(8.68497 0 1.76379)
(8.4967 1.45224e-20 1.96347)
(8.29513 2.99847e-20 2.18016)
(8.0796 0 2.41548)
(7.8492 0 2.67112)
(7.60261 1.14616e-18 2.94891)
(7.33796 -2.18107e-18 3.25079)
(7.05256 2.20417e-18 3.57886)
(6.74279 -1.21054e-18 3.93531)
(6.40312 4.55536e-18 4.32203)
(6.02574 -2.43753e-18 4.74017)
(5.60021 -2.42056e-18 5.18967)
(5.11234 4.95973e-18 5.66706)
(4.5423 -2.5681e-18 6.16213)
(3.86579 2.58519e-18 6.65324)
(3.08196 -9.8472e-20 7.07864)
(1.89059 -2.29275e-20 7.38465)
(10.0016 7.33909e-20 0.104645)
(9.97904 1.1359e-19 0.211691)
(9.94045 -3.89565e-20 0.319362)
(9.89174 -8.04865e-20 0.428029)
(9.83202 -8.30683e-20 0.539155)
(9.76008 -8.59689e-20 0.654445)
(9.67604 2.1964e-20 0.775279)
(9.58065 4.56935e-20 0.902816)
(9.47432 2.12896e-19 1.03835)
(9.35702 -1.82146e-19 1.18325)
(9.2287 8.37154e-23 1.33886)
(9.08938 -6.51076e-21 1.5065)
(8.93902 6.7185e-21 1.68754)
(8.77749 0 1.88344)
(8.60457 -4.57191e-19 2.09578)
(8.41988 4.67339e-19 2.32627)
(8.22288 -9.53993e-19 2.57677)
(8.01273 -6.7426e-21 2.84934)
(7.78819 9.83816e-19 3.14629)
(7.5475 -4.91041e-20 3.47028)
(7.28807 -1.08844e-18 3.82434)
(7.00626 2.05425e-20 4.21201)
(6.69668 -1.13078e-18 4.63715)
(6.35143 0 5.10353)
(5.9592 2.30654e-18 5.6145)
(5.50366 -4.69177e-18 6.1712)
(4.96078 2.39254e-18 6.76893)
(4.29289 2.42064e-18 7.3923)
(3.49952 -2.49962e-18 7.97528)
(2.18047 -2.5674e-18 8.46286)
(10.002 -7.33252e-20 0.110929)
(9.98061 3.7676e-20 0.224452)
(9.94432 -3.87712e-20 0.338731)
(9.89901 4.01152e-20 0.454181)
(9.84354 4.13874e-20 0.572267)
(9.77679 4.2913e-20 0.694678)
(9.69896 1.98601e-22 0.822837)
(9.61073 -4.53471e-20 0.957961)
(9.5126 -1.37036e-22 1.1014)
(9.40459 -4.82523e-20 1.25461)
(9.28673 -3.86958e-19 1.41898)
(9.15919 4.09019e-19 1.59588)
(9.02199 -6.63454e-21 1.78674)
(8.87511 -4.36938e-19 1.99313)
(8.71846 4.46596e-19 2.21676)
(8.5518 1.789e-21 2.45951)
(8.37472 -1.53374e-20 2.72349)
(8.18659 0 3.0111)
(7.98642 0 3.32512)
(7.77273 1.70004e-20 3.66887)
(7.54332 1.8365e-20 4.04631)
(7.29499 1.0473e-18 4.46237)
(7.02292 -1.05547e-18 4.92293)
(6.71987 -2.16792e-18 5.43481)
(6.37474 -1.94291e-20 6.00582)
(5.97011 4.37526e-18 6.64409)
(5.47851 -4.45791e-18 7.35539)
(4.84653 4.56323e-18 8.14057)
(4.06433 1.88356e-20 8.94754)
(2.58587 -5.04589e-20 9.75242)
(10.0025 0 0.11679)
(9.98234 -1.12247e-19 0.236328)
(9.94847 3.85785e-20 0.356708)
(9.90668 -3.97351e-20 0.478406)
(9.85567 0 0.602903)
(9.79434 4.2434e-20 0.731854)
(9.72298 -2.623e-19 0.866705)
(9.64227 2.02108e-19 1.00873)
(9.55268 -2.32405e-19 1.15934)
(9.45433 2.14609e-19 1.32002)
(9.34739 0 1.4922)
(9.2321 3.81458e-19 1.67729)
(9.10862 -4.15981e-19 1.87678)
(8.97706 0 2.09232)
(8.83745 4.28253e-19 2.32571)
(8.68976 -9.06299e-19 2.57901)
(8.53382 4.62896e-19 2.8545)
(8.36929 0 3.15488)
(8.19556 0 3.48331)
(8.01169 -1.00487e-18 3.84365)
(7.8162 1.03367e-18 4.24071)
(7.60677 1.01159e-18 4.6806)
(7.37994 1.02701e-18 5.17109)
(7.13029 -2.01027e-18 5.72201)
(6.84891 1.14402e-18 6.34618)
(6.52059 -3.02581e-20 7.06044)
(6.11934 6.26445e-20 7.88647)
(5.58137 1.99938e-18 8.85651)
(4.88502 -2.09681e-18 9.9776)
(3.22249 -1.98729e-18 11.418)
(10.003 1.81346e-20 0.122191)
(9.98419 9.33606e-20 0.247267)
(9.95283 -3.83794e-20 0.373239)
(9.91465 3.99806e-20 0.500634)
(9.86826 -1.22213e-19 0.630957)
(9.81256 8.4276e-20 0.765828)
(9.7479 -4.30437e-20 0.906702)
(9.67495 -1.78951e-19 1.05491)
(9.59417 2.06483e-19 1.2119)
(9.50578 0 1.37917)
(9.41011 0 1.55817)
(9.30748 5.00631e-20 1.75033)
(9.19816 2.56016e-20 1.95719)
(9.08241 -4.23598e-19 2.18044)
(8.96044 4.46051e-19 2.42198)
(8.83246 4.44822e-19 2.68393)
(8.6986 -4.81534e-19 2.96873)
(8.5589 9.28292e-19 3.27924)
(8.41329 -9.44349e-19 3.61889)
(8.26152 1.51572e-20 3.99192)
(8.10313 -3.07663e-20 4.40368)
(7.93724 9.80409e-19 4.86111)
(7.7625 -9.93454e-19 5.37324)
(7.57674 -6.30047e-20 5.95214)
(7.37606 -6.29224e-20 6.61465)
(7.15317 -8.94464e-19 7.38536)
(6.89594 -1.32587e-19 8.3021)
(6.55754 8.81459e-19 9.43524)
(6.16294 -7.96228e-19 10.905)
(4.33117 2.20873e-18 13.808)
(0.0578348 0 -0.0466416)
(0.196556 1.55202e-20 -0.0887116)
(0.369764 -1.52159e-20 -0.0884981)
(0.533829 8.56511e-22 -0.0703359)
(0.665444 8.036e-22 -0.0479562)
(0.755467 0 -0.0270191)
(0.804839 7.04321e-21 -0.00986148)
(0.820488 -5.51917e-21 0.00244378)
(0.812333 0 0.00982921)
(0.789786 1.21898e-21 0.013301)
(0.760188 1.75889e-22 0.0139913)
(0.728849 4.47816e-21 0.0129204)
(0.699172 0 0.0110239)
(0.672669 -9.81371e-22 0.0091005)
(0.649081 -1.81016e-21 0.00775239)
(0.626755 2.65063e-21 0.00733633)
(0.603446 0 0.00782455)
(0.577462 -7.63477e-22 0.00873847)
(0.54868 0 0.00931948)
(0.519135 -3.19801e-22 0.00873152)
(0.492898 3.14355e-22 0.00649682)
(0.474546 0 0.00293915)
(0.467586 -4.97986e-22 -0.00115825)
(0.473957 0 -0.00543762)
(0.494447 0 -0.0102891)
(0.530044 0 -0.0157824)
(0.582466 0 -0.0210323)
(0.651707 0 -0.0259411)
(0.736959 0 -0.0308608)
(0.856528 3.93063e-23 -0.0346666)
(0.0698742 -2.00726e-21 -0.154931)
(0.208916 6.17365e-20 -0.225785)
(0.372757 -5.79012e-20 -0.220588)
(0.525805 -8.56581e-22 -0.179753)
(0.651267 -8.04557e-22 -0.129705)
(0.743333 2.52683e-20 -0.0823003)
(0.803201 -4.71692e-20 -0.0425571)
(0.8362 2.20609e-20 -0.0120351)
(0.846303 2.56519e-21 0.00926938)
(0.839224 -1.2203e-21 0.0222824)
(0.821856 -2.66185e-21 0.0285046)
(0.799054 -8.95073e-21 0.029807)
(0.774186 0 0.0281553)
(0.749 9.81281e-22 0.0254656)
(0.723696 1.84821e-21 0.0234637)
(0.697098 -2.53012e-21 0.0233986)
(0.667274 -1.47253e-21 0.0254202)
(0.632784 5.41953e-21 0.0281873)
(0.593974 0 0.0296051)
(0.553573 0 0.0278481)
(0.516436 0 0.022258)
(0.487265 5.31441e-22 0.0140065)
(0.467383 -5.50734e-22 0.00527744)
(0.454904 -4.65262e-22 -0.00242874)
(0.44625 0 -0.00965216)
(0.437806 -6.31862e-22 -0.0179559)
(0.436974 0 -0.029363)
(0.456205 3.70557e-23 -0.0452795)
(0.497328 1.86281e-22 -0.06445)
(0.569656 -3.93775e-23 -0.0796248)
(0.056635 1.30685e-19 -0.296106)
(0.193554 -6.13839e-20 -0.362036)
(0.336627 5.77607e-20 -0.340312)
(0.46124 0 -0.276149)
(0.558083 0 -0.200624)
(0.625871 -1.5163e-21 -0.129654)
(0.667053 -4.78358e-20 -0.0709284)
(0.686776 4.42079e-20 -0.0257485)
(0.688257 -2.57879e-21 0.0072211)
(0.676164 1.92099e-20 0.0288988)
(0.655239 3.94565e-20 0.0405573)
(0.628281 -1.79385e-20 0.0447923)
(0.596829 0 0.0443847)
(0.561742 0 0.0420524)
(0.523236 -1.85372e-21 0.040507)
(0.480358 -1.74286e-21 0.0420014)
(0.431153 -1.5551e-21 0.047295)
(0.373709 3.13461e-21 0.0550629)
(0.308589 0 0.0620223)
(0.237716 1.28752e-21 0.0636833)
(0.163584 -2.49293e-21 0.0575056)
(0.0914264 1.07113e-21 0.0452743)
(0.03198 -1.05714e-21 0.0308471)
(-0.00636882 8.88091e-22 0.0161765)
(-0.0209697 7.63935e-22 4.24066e-05)
(-0.0179123 2.8575e-22 -0.0205489)
(-0.00286896 -1.72581e-22 -0.0457304)
(0.0238239 -1.07422e-22 -0.0719932)
(0.0516058 -2.42307e-22 -0.0959728)
(0.0692831 -1.29916e-22 -0.115232)
(0.0076716 1.01228e-21 -0.448355)
(0.148737 1.22243e-19 -0.489349)
(0.270696 -1.1688e-19 -0.436911)
(0.364314 -1.09138e-19 -0.34625)
(0.428516 1.04653e-19 -0.24791)
(0.46685 0 -0.157968)
(0.482895 5.61469e-24 -0.0840871)
(0.478682 0 -0.0268145)
(0.453148 0 0.015644)
(0.418319 0 0.0435717)
(0.376391 0 0.0599634)
(0.327179 1.73257e-20 0.0687889)
(0.267704 -1.28765e-20 0.0739766)
(0.196893 -3.93918e-21 0.0782505)
(0.115947 0 0.0829491)
(0.0281991 0 0.08968)
(-0.0563878 3.27296e-21 0.0991752)
(-0.131834 -1.53251e-21 0.108769)
(-0.199167 0 0.113412)
(-0.259629 0 0.108934)
(-0.312651 1.22517e-21 0.0944351)
(-0.35518 0 0.0719004)
(-0.384095 4.99739e-23 0.0449706)
(-0.399164 8.84402e-22 0.0173128)
(-0.402714 -1.57907e-21 -0.00873292)
(-0.398964 1.89916e-21 -0.0334036)
(-0.393673 0 -0.0577406)
(-0.388962 0 -0.0811071)
(-0.388591 1.83728e-23 -0.102873)
(-0.392278 1.30398e-22 -0.121635)
(-0.0645534 -1.31189e-19 -0.586793)
(0.0752333 0 -0.597552)
(0.169252 0 -0.506094)
(0.224354 -4.76104e-24 -0.38678)
(0.249223 0 -0.267298)
(0.250104 0 -0.161043)
(0.230927 2.90629e-21 -0.0736328)
(0.172291 0 0.00481316)
(0.103981 -4.10576e-20 0.0593465)
(0.0290811 4.03693e-20 0.0902646)
(-0.047719 4.68328e-21 0.1083)
(-0.127799 0 0.121435)
(-0.210537 -1.49619e-23 0.131844)
(-0.294286 -1.14776e-20 0.139087)
(-0.377831 4.19706e-21 0.143275)
(-0.456701 3.78458e-21 0.145859)
(-0.527172 6.6584e-21 0.148099)
(-0.586455 -3.04164e-21 0.149044)
(-0.634328 2.77035e-21 0.145393)
(-0.671986 -1.52583e-22 0.133685)
(-0.700974 -4.96538e-21 0.112749)
(-0.722843 -2.13867e-21 0.0844676)
(-0.739046 3.15719e-21 0.052839)
(-0.750971 9.36552e-22 0.0218543)
(-0.759101 0 -0.00631864)
(-0.763721 -1.26229e-21 -0.0322779)
(-0.769163 2.14681e-22 -0.056889)
(-0.77705 -2.82772e-22 -0.0797522)
(-0.787858 7.0523e-23 -0.101315)
(-0.796993 0 -0.119451)
(-0.144245 -1.31878e-19 -0.693419)
(-0.021179 0 -0.669214)
(0.0314361 -2.32362e-22 -0.531708)
(0.0344923 -1.09782e-19 -0.379746)
(0.00711915 1.07431e-19 -0.235424)
(-0.0543882 -9.81573e-20 -0.0956541)
(-0.165009 3.51949e-21 0.0126303)
(-0.25003 9.07113e-20 0.0798784)
(-0.33056 0 0.122364)
(-0.412848 3.89093e-20 0.149664)
(-0.495736 -1.08214e-20 0.167696)
(-0.576865 -3.16034e-20 0.180056)
(-0.654181 -2.00728e-23 0.187902)
(-0.726725 0 0.191258)
(-0.794263 3.68571e-21 0.190615)
(-0.855503 -1.02099e-20 0.187365)
(-0.908627 3.38338e-21 0.182675)
(-0.952204 8.94719e-21 0.176038)
(-0.986207 -3.11636e-21 0.165209)
(-1.01218 -8.04476e-21 0.147747)
(-1.03271 2.43617e-21 0.122963)
(-1.05039 0 0.0925517)
(-1.06662 -2.54955e-24 0.0596621)
(-1.08154 -9.36418e-22 0.0273707)
(-1.09457 -8.13023e-22 -0.00216955)
(-1.10472 1.24981e-21 -0.0285641)
(-1.11686 9.75901e-22 -0.0525417)
(-1.13292 -8.3234e-22 -0.0745258)
(-1.15077 1.37822e-22 -0.0953507)
(-1.16258 2.65178e-22 -0.112262)
(-0.222808 6.70074e-23 -0.74946)
(-0.135279 -1.25569e-19 -0.67825)
(-0.141854 1.22518e-19 -0.482218)
(-0.209795 3.58358e-21 -0.291022)
(-0.315668 -1.0602e-19 -0.124481)
(-0.447777 1.03752e-19 0.0082091)
(-0.545459 0 0.0905258)
(-0.635196 0 0.145647)
(-0.721367 -5.27945e-21 0.183921)
(-0.803136 -3.89178e-20 0.208757)
(-0.880387 4.12865e-20 0.223529)
(-0.952271 -4.02911e-20 0.231439)
(-1.01794 -4.1433e-21 0.234186)
(-1.07743 0 0.232459)
(-1.13129 -3.63541e-21 0.226953)
(-1.17966 0 0.218789)
(-1.22201 -3.20179e-21 0.208825)
(-1.25772 0 0.196696)
(-1.28698 5.62443e-21 0.180875)
(-1.31113 2.62419e-21 0.159771)
(-1.33222 2.33783e-21 0.132999)
(-1.35204 -1.75488e-22 0.101767)
(-1.37125 -4.07991e-21 0.068362)
(-1.38968 1.75891e-21 0.0353251)
(-1.40697 8.10923e-22 0.00490495)
(-1.42245 -5.65199e-22 -0.0215872)
(-1.44046 -7.65352e-22 -0.0446523)
(-1.46357 -7.30179e-22 -0.0655811)
(-1.48733 -1.00906e-22 -0.0854784)
(-1.50115 -2.98388e-22 -0.101207)
(-0.29538 -2.7831e-19 -0.729537)
(-0.263053 1.30724e-19 -0.594135)
(-0.342823 -4.97809e-22 -0.359021)
(-0.480743 1.92976e-21 -0.155806)
(-0.636477 -1.08712e-19 0.00358484)
(-0.755471 1.06285e-19 0.103841)
(-0.861129 0 0.170988)
(-0.958255 -4.43633e-20 0.216935)
(-1.04573 4.87245e-20 0.247186)
(-1.12427 9.91509e-21 0.26503)
(-1.19481 0 0.273568)
(-1.25804 8.70343e-21 0.275567)
(-1.31461 0 0.272813)
(-1.36548 0 0.266298)
(-1.41173 3.63476e-21 0.256783)
(-1.45401 1.32961e-20 0.245042)
(-1.49233 -9.84264e-21 0.231506)
(-1.52639 0 0.215766)
(-1.55634 -2.801e-21 0.19669)
(-1.58304 0 0.173184)
(-1.60777 -2.32322e-21 0.145049)
(-1.63165 2.2822e-21 0.113216)
(-1.6551 -1.88112e-21 0.0793956)
(-1.67814 3.48624e-21 0.0457329)
(-1.70063 -3.11076e-21 0.0146476)
(-1.72213 0 -0.0118087)
(-1.74512 2.04562e-22 -0.0337802)
(-1.77424 -3.01427e-22 -0.0533324)
(-1.80347 9.8241e-23 -0.0721755)
(-1.81913 3.17084e-23 -0.0869608)
(-0.364305 -1.46323e-19 -0.620008)
(-0.392554 2.10424e-21 -0.434656)
(-0.53434 1.28496e-19 -0.184776)
(-0.722735 -9.26335e-21 0.0137963)
(-0.87454 -1.24398e-19 0.130927)
(-1.00732 -6.67275e-21 0.208338)
(-1.12435 0 0.259519)
(-1.22582 0 0.291725)
(-1.31313 4.16035e-20 0.310064)
(-1.38845 -8.94814e-20 0.318211)
(-1.45413 -3.79956e-20 0.319067)
(-1.51203 -4.27149e-20 0.31488)
(-1.56375 1.73505e-20 0.307126)
(-1.61077 1.56054e-20 0.2967)
(-1.65434 0 0.284186)
(-1.6952 6.67952e-21 0.269948)
(-1.7335 0 0.253987)
(-1.76907 0 0.23576)
(-1.80193 1.09016e-20 0.214383)
(-1.83265 -1.04301e-20 0.189138)
(-1.86207 0 0.159931)
(-1.89091 2.09575e-21 0.127493)
(-1.91946 -4.11932e-21 0.093252)
(-1.94787 -1.83822e-21 0.0591766)
(-1.97612 2.2913e-21 0.0276551)
(-2.00429 6.72963e-22 0.001069)
(-2.0336 0 -0.0199695)
(-2.06825 1.61783e-22 -0.0378926)
(-2.10285 -1.25742e-22 -0.0555105)
(-2.1204 2.30357e-22 -0.0696254)
(-0.427759 -1.5637e-19 -0.429625)
(-0.509169 1.16596e-21 -0.209295)
(-0.704232 -2.17907e-21 0.0490092)
(-0.901388 1.19532e-19 0.185703)
(-1.0753 -1.21017e-19 0.270679)
(-1.22359 6.71448e-21 0.323093)
(-1.34813 0 0.353041)
(-1.45186 0 0.367575)
(-1.53826 4.15066e-20 0.371807)
(-1.61111 -3.07597e-20 0.36922)
(-1.67394 0 0.362137)
(-1.72936 0 0.352081)
(-1.77937 0 0.339994)
(-1.82558 0 0.32644)
(-1.8692 0 0.311647)
(-1.91093 -6.67946e-21 0.295536)
(-1.95101 0 0.277764)
(-1.9894 5.71324e-21 0.257723)
(-2.02616 -1.11044e-20 0.234695)
(-2.06169 -4.91427e-21 0.208166)
(-2.09657 2.58495e-21 0.178124)
(-2.13134 2.246e-21 0.1452)
(-2.16622 3.92322e-21 0.11066)
(-2.20139 0 0.0763618)
(-2.23666 -8.54089e-24 0.0446153)
(-2.27204 0 0.0177984)
(-2.30941 1.8517e-21 -0.00286838)
(-2.34971 1.40241e-21 -0.0194619)
(-2.38783 5.53218e-22 -0.0356275)
(-2.40737 -2.30595e-22 -0.0490932)
(-0.482615 -8.3878e-23 -0.145805)
(-0.610871 -1.17002e-21 0.132033)
(-0.828361 6.71363e-21 0.285801)
(-1.0633 1.22876e-20 0.376887)
(-1.25895 1.30576e-19 0.42387)
(-1.41754 -7.45104e-21 0.444384)
(-1.54548 -2.00148e-19 0.448583)
(-1.64875 9.46102e-20 0.442963)
(-1.73292 0 0.432127)
(-1.80333 3.79855e-20 0.418793)
(-1.8643 3.728e-20 0.404207)
(-1.91868 -3.31357e-20 0.388877)
(-1.96844 1.69024e-20 0.373038)
(-2.01506 2.96879e-20 0.356825)
(-2.05973 -1.42167e-20 0.340154)
(-2.10323 -6.32675e-21 0.322613)
(-2.1459 1.85448e-20 0.303561)
(-2.18783 -5.88881e-21 0.282283)
(-2.22912 0 0.258151)
(-2.27008 9.98316e-21 0.230787)
(-2.31116 -2.42483e-21 0.200228)
(-2.35273 6.51073e-21 0.167035)
(-2.39495 3.87933e-21 0.132358)
(-2.43788 0 0.0979338)
(-2.48111 -2.95501e-21 0.0659592)
(-2.52449 0 0.0387964)
(-2.57023 -3.87366e-21 0.0179267)
(-2.61963 -1.02281e-21 0.00202901)
(-2.66333 -6.73285e-22 -0.0127122)
(-2.6831 0 -0.0253114)
(-0.498767 1.52248e-21 0.312683)
(-0.669235 0 0.472104)
(-0.960341 -1.46449e-19 0.558556)
(-1.23078 1.22691e-19 0.587725)
(-1.43924 -1.23484e-19 0.584312)
(-1.59982 1.06647e-19 0.56686)
(-1.72514 -5.40047e-20 0.542612)
(-1.82396 9.06901e-20 0.515793)
(-1.9034 -2.39026e-21 0.490018)
(-1.97008 -7.72038e-20 0.466823)
(-2.02889 -4.53693e-20 0.445733)
(-2.08237 0 0.425838)
(-2.13202 0 0.40668)
(-2.17912 -7.179e-21 0.388201)
(-2.22494 0 0.370108)
(-2.27043 -1.2808e-20 0.351649)
(-2.31607 5.96423e-21 0.331871)
(-2.36199 5.6138e-21 0.30993)
(-2.4083 0 0.285243)
(-2.45525 -4.94757e-21 0.257525)
(-2.50322 -4.65473e-21 0.226834)
(-2.55253 -4.27904e-21 0.193675)
(-2.60326 -3.87288e-21 0.159095)
(-2.65531 0 0.124694)
(-2.70796 0 0.092557)
(-2.7609 2.40988e-21 0.0650887)
(-2.81638 1.82887e-21 0.0439832)
(-2.87571 1.32455e-21 0.028345)
(-2.92858 4.88169e-22 0.0148377)
(-2.95344 0 0.0036116)
(-0.511386 1.89008e-19 0.83384)
(-0.758156 0 0.884416)
(-1.13423 0 0.864748)
(-1.42268 8.36543e-21 0.807248)
(-1.62626 0 0.741216)
(-1.7756 6.46566e-20 0.683083)
(-1.88997 -4.40439e-20 0.630508)
(-1.97867 -4.27965e-20 0.582978)
(-2.04934 4.17501e-20 0.543468)
(-2.10973 -1.86727e-20 0.512296)
(-2.16497 1.73338e-20 0.486345)
(-2.21679 7.87931e-21 0.46281)
(-2.26561 -2.29248e-20 0.440804)
(-2.31245 7.18381e-21 0.420481)
(-2.3588 6.57506e-21 0.401538)
(-2.40591 1.86361e-20 0.382831)
(-2.45433 -6.38235e-21 0.362995)
(-2.50411 -1.12821e-20 0.341013)
(-2.5553 -5.1206e-21 0.316346)
(-2.60815 9.96406e-21 0.288815)
(-2.66306 0 0.258509)
(-2.72042 -2.03635e-21 0.225854)
(-2.78029 5.83709e-21 0.191736)
(-2.84229 0 0.157539)
(-2.90524 2.94133e-21 0.125184)
(-2.96828 -4.8147e-21 0.0971025)
(-3.03306 1.87733e-22 0.075281)
(-3.10047 -1.34527e-21 0.059442)
(-3.1595 -1.16773e-21 0.0468251)
(-3.187 0 0.0369041)
(-0.579099 -2.30369e-19 1.48443)
(-0.94044 0 1.37156)
(-1.38107 8.74904e-21 1.19714)
(-1.65361 6.12666e-20 1.01815)
(-1.82323 -1.14522e-19 0.875726)
(-1.94186 -2.37536e-21 0.782189)
(-2.03546 4.79789e-20 0.706485)
(-2.10722 0 0.640232)
(-2.1631 0 0.589176)
(-2.21311 2.68343e-20 0.553425)
(-2.26271 -7.75354e-21 0.525242)
(-2.31145 1.63139e-20 0.499231)
(-2.35782 7.45764e-21 0.474727)
(-2.40244 0 0.452979)
(-2.44743 -1.86264e-22 0.433958)
(-2.49449 6.02469e-21 0.415883)
(-2.54408 -1.72098e-22 0.396745)
(-2.59599 -1.66909e-22 0.375328)
(-2.65008 0 0.351228)
(-2.70667 0 0.324451)
(-2.76636 -4.50467e-21 0.295127)
(-2.82966 0 0.263548)
(-2.8967 -3.83383e-21 0.230344)
(-2.9669 4.22038e-21 0.196593)
(-3.03878 -7.35102e-21 0.163976)
(-3.11096 3.6006e-21 0.134874)
(-3.18431 -3.36256e-22 0.111662)
(-3.2592 9.75593e-22 0.0950817)
(-3.3243 5.67417e-22 0.0833155)
(-3.35507 0 0.075028)
(-0.683702 -1.39795e-19 2.36788)
(-1.21756 -7.23109e-20 1.95796)
(-1.7248 6.3202e-20 1.54843)
(-1.93534 0 1.17415)
(-2.02191 -6.30677e-21 0.947407)
(-2.08033 0 0.852674)
(-2.14677 5.17579e-21 0.76849)
(-2.19633 -1.95462e-20 0.683541)
(-2.22917 1.9077e-20 0.621789)
(-2.26301 0 0.587408)
(-2.30493 0 0.561232)
(-2.34918 2.98806e-20 0.533808)
(-2.39045 -5.29837e-22 0.50659)
(-2.42924 -4.90635e-22 0.483601)
(-2.46926 -1.92365e-20 0.465464)
(-2.51299 -6.02922e-21 0.449074)
(-2.56051 -1.10563e-20 0.431334)
(-2.61094 -5.20009e-21 0.410887)
(-2.6639 5.12287e-21 0.387714)
(-2.7199 0 0.362189)
(-2.77997 2.22642e-21 0.334534)
(-2.84511 -4.16296e-21 0.304842)
(-2.91581 1.52497e-22 0.273381)
(-2.99167 -1.62137e-21 0.24085)
(-3.07113 6.49205e-22 0.208549)
(-3.15229 -6.6764e-22 0.178549)
(-3.23494 1.86514e-22 0.153454)
(-3.31859 -1.27728e-21 0.135228)
(-3.39116 -5.19576e-23 0.123303)
(-3.4261 0 0.115674)
(10.0035 -1.73774e-20 0.127194)
(9.98617 1.78447e-20 0.257408)
(9.95748 0 0.38856)
(9.92309 7.6028e-20 0.521205)
(9.88156 1.17422e-19 0.656872)
(9.83181 -1.60969e-19 0.797152)
(9.7742 2.48768e-19 0.943506)
(9.70942 4.31927e-20 1.09731)
(9.63794 -1.75182e-19 1.26003)
(9.56011 0 1.43313)
(9.47637 0 1.61807)
(9.38713 -2.39365e-20 1.81631)
(9.29279 3.67505e-19 2.02939)
(9.19379 -4.00405e-19 2.25904)
(9.09055 4.1149e-19 2.50716)
(8.98355 -4.19556e-19 2.77591)
(8.87326 2.70126e-20 3.06777)
(8.76021 2.70927e-20 3.38567)
(8.64494 -8.88025e-19 3.73312)
(8.52809 9.02076e-19 4.11447)
(8.41042 0 4.53521)
(8.29292 -5.65436e-20 5.00246)
(8.17703 0 5.52549)
(8.06496 0 6.11687)
(7.9604 0 6.79443)
(7.87016 -1.07555e-19 7.58451)
(7.81297 -9.53577e-20 8.52837)
(7.82193 3.60663e-19 9.69946)
(8.44533 -1.19053e-19 11.162)
(8.82685 -2.36196e-19 13.9865)
(10.004 0 0.131805)
(9.98826 0 0.266745)
(9.96237 0 0.402648)
(9.93196 0 0.540067)
(9.8955 0 0.680543)
(9.85192 0 0.825652)
(9.80161 -4.00147e-20 0.976859)
(9.74527 -2.06888e-19 1.13557)
(9.68342 -6.10051e-22 1.30323)
(9.61653 1.74179e-19 1.48128)
(9.5451 -3.58987e-19 1.67115)
(9.46967 3.67016e-19 1.8743)
(9.39078 -4.68541e-20 2.09228)
(9.30905 3.86328e-19 2.32677)
(9.22513 8.05895e-22 2.57964)
(9.13978 -8.05461e-19 2.85301)
(9.05386 8.20791e-19 3.14929)
(8.96836 -4.43901e-19 3.47133)
(8.88452 0 3.8225)
(8.80387 -5.29608e-20 4.20693)
(8.72845 0 4.62975)
(8.6611 -8.04792e-19 5.09743)
(8.60602 8.70781e-19 5.61819)
(8.5696 7.38523e-19 6.20276)
(8.56244 -8.53542e-19 6.86535)
(8.60317 4.93233e-21 7.62459)
(8.73033 1.988e-19 8.50315)
(8.9561 1.05518e-20 9.52874)
(9.59255 1.62057e-19 10.6522)
(10.1336 -1.19681e-19 11.8633)
(10.0046 0 0.135942)
(9.99045 3.36874e-20 0.275124)
(9.96748 -6.93637e-20 0.415286)
(9.94121 1.07172e-19 0.556961)
(9.91001 7.34322e-20 0.701686)
(9.8728 -7.5385e-20 0.85102)
(9.83 3.90093e-20 1.00643)
(9.78235 0 1.16933)
(9.73042 -4.08937e-20 1.34112)
(9.67476 0 1.5232)
(9.61594 0 1.71697)
(9.55462 3.54862e-19 1.92385)
(9.49149 -2.71731e-19 2.14533)
(9.42735 0 2.38304)
(9.36308 0 2.63875)
(9.2997 0 2.91444)
(9.23844 -3.92398e-19 3.21238)
(9.18077 7.97103e-19 3.53514)
(9.12853 -4.04451e-19 3.88576)
(9.08405 4.56882e-19 4.26783)
(9.05045 -4.11335e-19 4.68563)
(9.03199 0 5.1443)
(9.03469 0 5.64993)
(9.06726 1.02448e-19 6.20967)
(9.14257 0 6.83131)