/*--------------------------------*- C++ -*----------------------------------*\
| =========                 |                                                 |
| \\      /  F ield         | OpenFOAM: The Open Source CFD Toolbox           |
|  \\    /   O peration     | Version:  dev                                   |
|   \\  /    A nd           | Web:      www.OpenFOAM.org                      |
|    \\/     M anipulation  |                                                 |
\*---------------------------------------------------------------------------*/
FoamFile
{
    version     2.0;
    format      ascii;
    class       surfaceVectorField;
    location    "5";
    object      Uf;
}
// * * * * * * * * * * * * * * * * * * * * * * * * * * * * * * * * * * * * * //

dimensions      [0 1 -1 0 0 0 0];

internalField   nonuniform List<vector> 
879
(
(1.52151 -5.15683e-22 -0.0203982)
(1.52691 -1.23484e-21 -0.0488265)
(1.5991 9.6444e-22 -0.0172206)
(1.6168 -1.53503e-21 -0.045533)
(1.66814 9.7761e-22 -0.0134254)
(1.70045 1.14785e-21 -0.0411478)
(1.72759 -6.05965e-22 -0.00918202)
(1.77713 4.36682e-22 -0.0358154)
(1.77668 4.41805e-24 -0.0048466)
(1.84624 -8.07209e-22 -0.0297256)
(1.81531 -8.33071e-23 -0.000976528)
(1.90726 -5.64687e-23 -0.0233641)
(1.84454 -4.4653e-22 0.00187857)
(1.95998 9.58969e-22 -0.0175237)
(1.8664 -1.64863e-22 0.00341058)
(2.00528 -2.26385e-22 -0.0128883)
(1.88346 -1.0245e-22 0.00360395)
(2.04478 -1.09398e-22 -0.00982296)
(1.89839 -2.74075e-22 0.00268071)
(2.07997 3.9568e-22 -0.00845412)
(1.91358 -1.3672e-22 0.00103359)
(2.11277 2.26252e-22 -0.00860103)
(1.93065 -7.94112e-23 -0.000903543)
(2.14482 -8.61533e-23 -0.00977063)
(1.95026 -7.44868e-23 -0.00274604)
(2.17696 3.08065e-23 -0.0113693)
(1.97218 2.28338e-24 -0.0041827)
(2.20938 8.24337e-24 -0.0128166)
(1.99546 -3.64342e-24 -0.00502261)
(2.24157 5.97454e-24 -0.0136594)
(2.01881 5.96028e-24 -0.00523572)
(2.27265 -9.5055e-23 -0.0136793)
(2.04102 -2.78298e-23 -0.00495454)
(2.30165 -7.59597e-23 -0.0129161)
(2.06134 -2.80446e-23 -0.00442086)
(2.32773 5.0868e-23 -0.0116511)
(2.07962 0 -0.00400952)
(2.35058 0 -0.0102734)
(2.37418 -9.57365e-24 -0.00950966)
(1.62179 -2.26113e-21 -0.0763361)
(1.48544 2.28311e-21 -0.108443)
(1.71809 -1.31333e-21 -0.0714658)
(1.57878 -3.21558e-21 -0.103705)
(1.80959 5.63526e-22 -0.0651746)
(1.66877 -1.98097e-21 -0.0974252)
(1.89597 2.39673e-22 -0.0576064)
(1.75523 1.01429e-21 -0.089653)
(1.97689 -8.46872e-22 -0.0491463)
(1.83804 1.37629e-21 -0.080624)
(2.05191 1.00916e-21 -0.0405214)
(1.91711 -8.73572e-22 -0.0708313)
(2.12081 1.1927e-21 -0.0326486)
(1.99192 1.76515e-21 -0.0612374)
(2.18379 -1.66313e-22 -0.0262873)
(2.06232 -4.53925e-22 -0.0528554)
(2.24144 3.91447e-22 -0.0219142)
(2.12856 -7.73212e-22 -0.0463466)
(2.29466 8.94253e-22 -0.0196847)
(2.19067 1.56126e-22 -0.0420577)
(2.34444 2.79346e-22 -0.0193203)
(2.24894 2.40539e-22 -0.0399314)
(2.39165 1.59227e-23 -0.0201753)
(2.30371 -1.10488e-23 -0.0393751)
(2.43668 1.10008e-22 -0.0214594)
(2.35503 -2.61283e-22 -0.0395112)
(2.47943 1.19476e-23 -0.0224343)
(2.40269 2.86215e-22 -0.039452)
(2.51946 -8.23247e-23 -0.0225873)
(2.44624 -2.17263e-22 -0.0385179)
(2.55614 -1.77107e-22 -0.0217252)
(2.48512 6.61717e-24 -0.0363902)
(2.58891 1.07482e-23 -0.0199697)
(2.51879 -6.86249e-24 -0.0331167)
(2.61726 8.76882e-23 -0.0176602)
(2.54682 3.65049e-23 -0.0290268)
(2.64076 -9.50837e-24 -0.0152236)
(2.56899 -8.86164e-23 -0.0245595)
(2.58797 -6.20063e-23 -0.0198756)
(1.44104 1.08656e-21 -0.136713)
(1.28411 8.90784e-21 -0.164358)
(1.52839 -3.71462e-21 -0.130934)
(1.36394 -8.32741e-21 -0.159626)
(1.61349 -1.471e-21 -0.123367)
(1.4424 5.92262e-21 -0.153128)
(1.6964 2.15575e-21 -0.114151)
(1.52004 -1.7182e-21 -0.14482)
(1.77726 1.43672e-21 -0.103713)
(1.59679 2.34536e-21 -0.135049)
(1.85601 -7.76219e-23 -0.0927996)
(1.67294 5.5275e-22 -0.124257)
(1.93241 2.52221e-23 -0.0824326)
(1.74814 5.47674e-23 -0.113318)
(2.00619 -1.06129e-21 -0.0735285)
(1.82196 -7.67392e-22 -0.103235)
(2.07701 -1.00038e-21 -0.066677)
(1.89398 -7.22192e-22 -0.0947182)
(2.14443 -4.62917e-22 -0.0620841)
(1.96339 -3.72754e-22 -0.0881037)
(2.20794 -1.81477e-23 -0.0594598)
(2.02939 -9.28858e-23 -0.0833148)
(2.26704 -2.79119e-22 -0.0580442)
(2.09114 3.76657e-22 -0.0797939)
(2.32119 -9.85171e-23 -0.0568694)
(2.14776 -3.32426e-22 -0.0766627)
(2.36979 7.24639e-23 -0.0550637)
(2.19838 8.24186e-23 -0.0730209)
(2.4123 -1.31014e-22 -0.0520798)
(2.24224 -2.15063e-22 -0.0682048)
(2.44819 1.81254e-22 -0.0477823)
(2.27867 -8.36621e-23 -0.0619389)
(2.47708 1.2594e-23 -0.0424007)
(2.30713 7.44028e-23 -0.0543497)
(2.49877 -1.56857e-22 -0.0363878)
(2.32733 -6.83223e-23 -0.0459008)
(2.51338 -7.96979e-23 -0.0300921)
(2.3394 -2.06693e-23 -0.0372368)
(2.34363 7.52374e-24 -0.028597)
(1.2052 -1.01614e-21 -0.188834)
(1.04254 4.70234e-21 -0.212524)
(1.27649 1.7995e-21 -0.183491)
(1.10491 -1.51903e-20 -0.208532)
(1.3477 6.07363e-21 -0.176421)
(1.16764 1.19095e-20 -0.203123)
(1.41928 -1.51263e-21 -0.167579)
(1.2316 -1.65068e-21 -0.195864)
(1.4913 1.25627e-21 -0.157321)
(1.29705 1.14659e-22 -0.186864)
(1.56378 7.17626e-22 -0.14631)
(1.36429 1.53717e-22 -0.176646)
(1.6364 -7.40385e-22 -0.135455)
(1.43282 -4.35008e-22 -0.165892)
(1.70852 -3.12297e-22 -0.125597)
(1.50188 2.78673e-22 -0.155409)
(1.77926 2.15111e-23 -0.117239)
(1.57057 4.77977e-22 -0.145861)
(1.84754 0 -0.110458)
(1.63764 2.08201e-22 -0.13749)
(1.9121 3.00215e-22 -0.104896)
(1.70182 -5.50062e-22 -0.130147)
(1.97167 5.06587e-22 -0.0998262)
(1.76168 6.86715e-23 -0.123282)
(2.02503 -2.0539e-22 -0.0943869)
(1.8158 2.13965e-22 -0.116089)
(2.07111 -1.85302e-22 -0.0878403)
(1.86297 -1.4228e-23 -0.107781)
(2.10904 2.07673e-23 -0.0797632)
(1.9022 4.09918e-22 -0.0978221)
(2.1381 -1.8425e-22 -0.0701359)
(1.93271 -9.24326e-23 -0.0860644)
(2.15784 0 -0.0593278)
(1.95392 1.46358e-22 -0.0728096)
(2.16817 1.91287e-22 -0.0480168)
(1.96553 1.16551e-23 -0.0587452)
(2.16956 1.98693e-22 -0.0369654)
(1.9679 1.3696e-22 -0.0449148)
(1.95847 -1.00294e-22 -0.0325322)
(0.940361 -9.98176e-21 -0.232986)
(0.777831 -3.20195e-21 -0.251589)
(0.9944 -4.49975e-21 -0.228998)
(0.822906 -1.74178e-20 -0.24935)
(1.04999 4.11527e-21 -0.223525)
(0.870351 4.44908e-21 -0.245975)
(1.108 0 -0.216343)
(0.9208 -1.47804e-21 -0.240934)
(1.16881 -1.14149e-21 -0.207559)
(0.974749 1.4602e-21 -0.234083)
(1.23205 -1.15077e-21 -0.197624)
(1.03227 -1.14883e-21 -0.22556)
(1.29696 7.57067e-22 -0.187235)
(1.0927 1.7389e-21 -0.215861)
(1.36261 1.36714e-21 -0.177064)
(1.15515 4.44135e-22 -0.205703)
(1.42778 8.16316e-22 -0.167502)
(1.21825 -1.3496e-22 -0.195642)
(1.49106 -3.3583e-22 -0.158552)
(1.2806 -7.78434e-22 -0.185818)
(1.55088 -9.20514e-22 -0.149843)
(1.34069 -1.46816e-22 -0.176033)
(1.60564 -3.85059e-22 -0.140728)
(1.39685 -4.27629e-22 -0.165733)
(1.65387 4.44354e-22 -0.13051)
(1.44747 6.67741e-23 -0.154247)
(1.69444 6.79661e-22 -0.118638)
(1.49117 4.09886e-22 -0.140993)
(1.72644 3.90917e-22 -0.104868)
(1.52673 1.51362e-22 -0.125623)
(1.74919 3.07132e-22 -0.0893727)
(1.55323 1.39817e-22 -0.108133)
(1.76225 1.38304e-22 -0.0727757)
(1.56987 8.9571e-23 -0.0889997)
(1.76554 -8.64273e-23 -0.0560959)
(1.57602 3.09517e-23 -0.0691664)
(1.75943 -1.91729e-22 -0.0406317)
(1.57187 -9.3545e-23 -0.0499835)
(1.55188 -5.28717e-23 -0.0330295)
(0.65864 -1.10901e-20 -0.267916)
(0.500098 1.5941e-20 -0.282072)
(0.697276 -8.02139e-21 -0.266356)
(0.531014 -8.63794e-21 -0.282767)
(0.739532 -1.14619e-21 -0.263463)
(0.566433 8.72951e-22 -0.282565)
(0.78602 4.81515e-23 -0.258819)
(0.606796 -1.16258e-21 -0.280682)
(0.836802 1.47074e-21 -0.252348)
(0.652309 4.02063e-21 -0.27674)
(0.891508 1.73483e-21 -0.24428)
(0.7027 0 -0.270708)
(0.949449 1.43429e-21 -0.235057)
(0.75715 1.57774e-21 -0.262931)
(1.00944 -1.02509e-21 -0.225189)
(0.814624 -3.19346e-22 -0.253835)
(1.06997 -1.73124e-21 -0.215004)
(0.873654 1.83363e-22 -0.243817)
(1.12949 -4.77094e-22 -0.204459)
(0.932866 -2.47712e-22 -0.233019)
(1.18632 4.76858e-22 -0.193166)
(0.990395 4.92862e-22 -0.221204)
(1.23873 -3.91949e-23 -0.180548)
(1.0444 1.60735e-22 -0.207825)
(1.28514 -1.38926e-22 -0.166033)
(1.0931 -2.34671e-22 -0.192315)
(1.32412 -3.8169e-22 -0.149238)
(1.13489 -1.95308e-22 -0.174232)
(1.35441 -2.0554e-22 -0.130083)
(1.16829 -1.14498e-22 -0.153354)
(1.37491 -2.17328e-22 -0.10887)
(1.19201 1.77669e-22 -0.129789)
(1.38461 -1.74938e-22 -0.0863673)
(1.20473 -1.47996e-22 -0.104118)
(1.38281 1.93605e-23 -0.0638311)
(1.20521 -2.35048e-22 -0.0774775)
(1.3693 9.80561e-23 -0.0429219)
(1.1925 1.90387e-22 -0.0516174)
(1.15868 1.96681e-22 -0.0289135)
(0.370991 1.79644e-20 -0.295913)
(0.217192 2.35523e-20 -0.306363)
(0.398774 -7.34961e-24 -0.298069)
(0.238657 -8.69129e-21 -0.311206)
(0.432196 7.78803e-22 -0.298956)
(0.26641 4.3092e-21 -0.315221)
(0.47162 2.87366e-21 -0.297905)
(0.300679 3.68639e-21 -0.317412)
(0.516763 2.5721e-21 -0.294593)
(0.3413 -1.31911e-21 -0.317112)
(0.566834 -1.04801e-22 -0.289091)
(0.387754 1.12351e-21 -0.314052)
(0.620772 -1.05888e-22 -0.281746)
(0.438781 -1.7584e-21 -0.308465)
(0.677438 1.05361e-21 -0.272908)
(0.493008 0 -0.300776)
(0.735494 2.02309e-21 -0.262703)
(0.549141 1.06104e-21 -0.291277)
(0.793167 9.47532e-22 -0.250963)
(0.605775 9.65186e-22 -0.279861)
(0.848394 2.41232e-22 -0.23729)
(0.660958 -4.05746e-23 -0.266135)
(0.899166 -7.08818e-23 -0.221193)
(0.712662 3.53508e-22 -0.249622)
(0.943633 -3.57697e-22 -0.202254)
(0.75888 -4.53076e-22 -0.229895)
(0.980199 -8.28078e-24 -0.180201)
(0.797636 4.43484e-23 -0.206703)
(1.00732 3.57402e-22 -0.154988)
(0.827343 4.8146e-23 -0.179875)
(1.02343 2.171e-22 -0.12699)
(0.846398 5.4348e-22 -0.149527)
(1.02682 -1.94693e-22 -0.0970542)
(0.852677 -1.27793e-22 -0.11619)
(1.01552 -5.80474e-23 -0.0666258)
(0.843842 -1.33943e-22 -0.0808683)
(0.988997 2.88984e-22 -0.0384966)
(0.819628 -9.87092e-23 -0.0462655)
(0.772962 -1.90347e-22 -0.0174851)
(0.0837632 -3.24113e-21 -0.320148)
(-0.0669908 1.04571e-20 -0.327309)
(0.105158 -4.43881e-21 -0.327089)
(-0.0511761 3.03651e-22 -0.33724)
(0.133587 7.13084e-21 -0.33262)
(-0.0280214 1.076e-22 -0.34615)
(0.169059 -5.54111e-22 -0.335821)
(0.00235127 3.12604e-21 -0.352928)
(0.210996 -2.57647e-21 -0.336092)
(0.039787 -1.38608e-21 -0.356621)
(0.258292 -5.01477e-22 -0.333304)
(0.0834983 2.95263e-21 -0.356695)
(0.309502 -1.65237e-21 -0.32776)
(0.131937 -2.27695e-21 -0.353232)
(0.363325 0 -0.31982)
(0.183262 6.21266e-22 -0.346809)
(0.418385 0 -0.309536)
(0.236257 4.7572e-22 -0.337694)
(0.473044 0 -0.296588)
(0.289712 1.43616e-22 -0.325627)
(0.525343 -3.371e-22 -0.280459)
(0.341796 0 -0.310035)
(0.573096 2.75931e-23 -0.260652)
(0.390365 -3.39205e-22 -0.290328)
(0.614131 4.97068e-22 -0.236894)
(0.433167 7.94949e-22 -0.266126)
(0.646528 2.05012e-23 -0.209078)
(0.468042 4.93505e-22 -0.237372)
(0.668545 -3.51664e-22 -0.17711)
(0.493222 -2.42111e-23 -0.204031)
(0.677933 -3.5845e-22 -0.14097)
(0.507002 -2.16235e-22 -0.165906)
(0.671884 9.86065e-23 -0.101282)
(0.50797 -4.81014e-22 -0.123155)
(0.649148 4.80941e-23 -0.060701)
(0.494143 2.8561e-22 -0.0777928)
(0.611075 -2.9796e-22 -0.024811)
(0.465588 -2.60558e-22 -0.0342145)
(0.419642 -1.33132e-22 0.000490402)
(-0.202549 1.41715e-20 -0.342687)
(-0.352006 1.08006e-20 -0.346788)
(-0.185229 4.56792e-21 -0.354882)
(-0.339621 8.3575e-21 -0.362159)
(-0.160366 -3.9469e-21 -0.365381)
(-0.319559 -3.93265e-21 -0.376137)
(-0.128038 2.32419e-21 -0.37311)
(-0.292121 0 -0.387671)
(-0.0888443 4.17018e-21 -0.377128)
(-0.257145 3.12365e-21 -0.395519)
(-0.0441211 1.21154e-21 -0.376978)
(-0.215973 -9.72886e-22 -0.398754)
(0.00430458 6.01742e-23 -0.372958)
(-0.170419 -6.32809e-22 -0.397215)
(0.0548864 1.09997e-21 -0.365666)
(-0.122402 9.76273e-22 -0.39172)
(0.106561 6.43803e-22 -0.355146)
(-0.0729032 -2.49872e-22 -0.382871)
(0.157973 1.44613e-22 -0.340843)
(-0.022698 2.74722e-22 -0.370218)
(0.207064 0 -0.322023)
(0.026599 9.29787e-23 -0.352747)
(0.251391 -9.28328e-23 -0.298155)
(0.0726888 1.97486e-23 -0.329663)
(0.288669 -1.53891e-22 -0.269038)
(0.113015 -9.33876e-23 -0.300731)
(0.316886 -1.77484e-22 -0.234648)
(0.145463 -6.05274e-23 -0.266098)
(0.334264 -6.03577e-24 -0.194977)
(0.168579 -2.6229e-24 -0.225883)
(0.339879 5.85929e-23 -0.150268)
(0.181361 3.50738e-22 -0.180433)
(0.33326 1.72576e-22 -0.101827)
(0.183148 4.05477e-22 -0.130176)
(0.313329 -2.13583e-23 -0.052981)
(0.172604 2.39542e-22 -0.076709)
(0.279273 -9.64972e-23 -0.00999495)
(0.148621 -3.40507e-22 -0.0246384)
(0.116529 -3.38808e-22 0.0169941)
(-0.489314 4.9831e-21 -0.364523)
(-0.637499 -4.74324e-22 -0.365857)
(-0.474638 0 -0.38196)
(-0.627112 7.77235e-21 -0.386645)
(-0.452267 0 -0.397332)
(-0.609182 -1.0046e-20 -0.405675)
(-0.422272 8.7441e-22 -0.409463)
(-0.583459 3.00651e-21 -0.421968)
(-0.385376 -1.94039e-21 -0.417024)
(-0.549995 -2.36406e-21 -0.433897)
(-0.343429 -2.83615e-21 -0.419271)
(-0.510538 -1.90485e-21 -0.439868)
(-0.298398 3.50997e-22 -0.416586)
(-0.467439 1.4541e-21 -0.439763)
(-0.251507 -7.00165e-22 -0.409872)
(-0.422514 -8.76276e-23 -0.434964)
(-0.203336 -8.44407e-22 -0.399307)
(-0.376231 -1.13778e-21 -0.426488)
(-0.154735 2.10419e-22 -0.383974)
(-0.328677 2.71692e-22 -0.413679)
(-0.10763 1.65278e-22 -0.362633)
(-0.280967 -2.90321e-22 -0.394817)
(-0.0647257 1.98714e-23 -0.334616)
(-0.235587 -8.0739e-24 -0.368647)
(-0.0285003 0 -0.300041)
(-0.195348 6.28855e-22 -0.335139)
(-0.000563517 0 -0.259389)
(-0.162252 7.24212e-23 -0.295029)
(0.018365 3.52976e-22 -0.213215)
(-0.137202 0 -0.249005)
(0.0276599 2.95226e-22 -0.161928)
(-0.12072 -2.00172e-22 -0.197456)
(0.0262495 -3.24191e-23 -0.106395)
(-0.114029 7.5456e-24 -0.140536)
(0.0128347 2.14493e-23 -0.0498429)
(-0.119027 -4.01434e-23 -0.0797135)
(-0.0128151 9.68185e-23 0.000562934)
(-0.136182 6.18993e-23 -0.0202691)
(-0.153338 -1.21603e-22 0.0268869)
(-0.775342 2.73091e-21 -0.38625)
(-0.919075 -2.65442e-22 -0.385036)
(-0.762212 -1.95114e-21 -0.408859)
(-0.909346 3.44079e-21 -0.410956)
(-0.741247 -7.21402e-21 -0.429136)
(-0.892241 -3.30105e-21 -0.435044)
(-0.712345 -6.78375e-23 -0.445662)
(-0.866847 3.02177e-21 -0.456232)
(-0.676373 -2.17642e-21 -0.456525)
(-0.833514 -3.13629e-21 -0.472258)
(-0.635615 2.37486e-21 -0.46058)
(-0.794097 1.6675e-21 -0.480654)
(-0.592663 1.0003e-21 -0.458565)
(-0.751872 -4.90649e-23 -0.481271)
(-0.548603 -6.11465e-22 -0.45212)
(-0.709037 1.37254e-23 -0.476616)
(-0.503068 -2.30791e-22 -0.441663)
(-0.665162 -4.19291e-23 -0.468637)
(-0.456025 -8.75902e-23 -0.425742)
(-0.618978 -9.85822e-23 -0.456362)
(-0.409212 -1.18945e-22 -0.402402)
(-0.571008 -8.55329e-23 -0.436878)
(-0.365587 5.58411e-22 -0.370853)
(-0.524129 8.51276e-23 -0.408198)
(-0.3277 7.74133e-22 -0.331719)
(-0.481718 -4.25903e-22 -0.370637)
(-0.296955 7.28135e-23 -0.286059)
(-0.445851 1.96439e-22 -0.325714)
(-0.274056 -3.4214e-22 -0.234493)
(-0.417233 -1.28027e-21 -0.274566)
(-0.259827 -3.44839e-22 -0.177236)
(-0.396302 -4.51248e-22 -0.217496)
(-0.255306 0 -0.115176)
(-0.384224 4.96555e-23 -0.154515)
(-0.261501 0 -0.0518514)
(-0.383132 1.41444e-21 -0.0871178)
(-0.278405 -1.55441e-22 0.00396457)
(-0.392661 -1.30088e-23 -0.0212157)
(-0.400023 6.15631e-22 0.0301271)
(-1.05302 7.7243e-22 -0.408194)
(-1.18734 4.72693e-21 -0.404782)
(-1.0398 2.39295e-21 -0.435811)
(-1.17676 -4.04026e-21 -0.43551)
(-1.01872 6.57315e-21 -0.461006)
(-1.15876 3.06816e-21 -0.464603)
(-0.98946 0 -0.482026)
(-1.13249 0 -0.490824)
(-0.952702 7.39966e-22 -0.496155)
(-1.09763 -1.78641e-21 -0.511164)
(-0.911308 -7.97551e-22 -0.501559)
(-1.05624 -4.88194e-22 -0.521739)
(-0.869052 -1.15805e-21 -0.499531)
(-1.01322 -3.28922e-22 -0.522044)
(-0.826916 4.5697e-22 -0.493141)
(-0.971696 4.58687e-22 -0.516678)
(-0.782952 1.65765e-22 -0.483398)
(-0.929718 8.27095e-23 -0.509473)
(-0.735662 -3.59336e-23 -0.467955)
(-0.883738 1.76143e-22 -0.49895)
(-0.6867 1.12615e-22 -0.443554)
(-0.833494 -2.09354e-22 -0.480041)
(-0.63998 -7.8808e-22 -0.409028)
(-0.782968 1.13378e-22 -0.44937)
(-0.598836 -7.56391e-22 -0.365598)
(-0.736931 -8.7667e-22 -0.407778)
(-0.564759 -1.217e-21 -0.31506)
(-0.697838 1.24126e-22 -0.358045)
(-0.538018 -1.42396e-21 -0.258383)
(-0.665851 1.70517e-21 -0.302087)
(-0.518847 -2.14888e-23 -0.195714)
(-0.640581 1.4391e-21 -0.24018)
(-0.508133 1.45994e-21 -0.127689)
(-0.622951 1.53722e-21 -0.171896)
(-0.507312 1.33073e-21 -0.0579175)
(-0.615392 -3.98554e-22 -0.0983784)
(-0.51728 1.42415e-22 0.00331486)
(-0.617414 -1.30143e-23 -0.0258882)
(-0.618816 1.56415e-22 0.0298264)
(-1.31098 3.30773e-22 -0.430835)
(-1.4294 3.28493e-22 -0.425346)
(-1.29609 -3.17128e-21 -0.463115)
(-1.41685 3.4755e-21 -0.460568)
(-1.2734 -3.2312e-21 -0.493218)
(-1.39719 -6.61834e-21 -0.494658)
(-1.24253 -1.77521e-21 -0.519025)
(-1.36921 0 -0.525927)
(-1.20319 -3.12051e-21 -0.536613)
(-1.33135 -1.60887e-21 -0.551229)
(-1.15896 9.71575e-24 -0.542711)
(-1.28567 -1.70262e-21 -0.564006)
(-1.11603 1.36595e-21 -0.539455)
(-1.24009 1.3578e-21 -0.562339)
(-1.07555 0 -0.532663)
(-1.19982 0 -0.554677)
(-1.03288 2.10926e-22 -0.52455)
(-1.16038 -5.13024e-22 -0.54862)
(-0.984056 2.05651e-22 -0.511108)
(-1.11418 1.56119e-21 -0.541823)
(-0.930976 -2.10821e-22 -0.486575)
(-1.05988 -5.22357e-22 -0.525153)
(-0.879713 0 -0.449059)
(-1.00385 -2.12766e-21 -0.492651)
(-0.834976 0 -0.400985)
(-0.953461 0 -0.446315)
(-0.797914 2.94656e-21 -0.345586)
(-0.91143 -2.40141e-21 -0.391341)
(-0.767627 4.51358e-21 -0.284357)
(-0.876548 1.16344e-21 -0.33092)
(-0.743475 3.06021e-21 -0.217059)
(-0.847089 6.87649e-23 -0.265069)
(-0.726345 9.99455e-23 -0.14362)
(-0.823635 -1.12958e-23 -0.192328)
(-0.718505 -1.40252e-21 -0.0674528)
(-0.809103 -1.39906e-21 -0.112954)
(-0.721986 0 -0.00042529)
(-0.803608 -2.04727e-21 -0.0333958)
(-0.8002 -7.46205e-22 0.0275209)
(-1.53529 3.44861e-21 -0.454003)
(-1.62695 4.1372e-21 -0.445918)
(-1.5184 2.53235e-22 -0.490662)
(-1.61454 -5.57131e-22 -0.485379)
(-1.49354 -3.44906e-21 -0.526152)
(-1.59428 -3.42566e-21 -0.524789)
(-1.46055 1.00645e-22 -0.557286)
(-1.5645 -3.36704e-21 -0.561152)
(-1.41714 -2.68836e-22 -0.578708)
(-1.52306 2.28808e-21 -0.592874)
(-1.36745 -5.94854e-22 -0.584492)
(-1.47103 9.74132e-22 -0.608697)
(-1.32271 -1.9281e-22 -0.577888)
(-1.4213 -2.43675e-22 -0.60228)
(-1.28501 -5.1037e-22 -0.569787)
(-1.38364 2.86756e-23 -0.589201)
(-1.24485 1.0847e-21 -0.564741)
(-1.34929 4.37927e-22 -0.584736)
(-1.1938 1.39479e-21 -0.555594)
(-1.30342 2.34968e-21 -0.585036)
(-1.13449 -2.433e-21 -0.531956)
(-1.24292 -3.13262e-22 -0.573221)
(-1.07716 -2.14169e-21 -0.490876)
(-1.179 3.38578e-21 -0.538597)
(-1.02868 -2.3921e-21 -0.437256)
(-1.12355 -4.8621e-22 -0.485851)
(-0.989241 -4.27179e-21 -0.37684)
(-1.07927 8.36896e-23 -0.424711)
(-0.9559 -3.36489e-21 -0.311751)
(-1.04236 -4.8368e-21 -0.360254)
(-0.926733 -2.90632e-21 -0.240804)
(-1.00897 -1.58138e-21 -0.291683)
(-0.902729 -1.41195e-21 -0.162551)
(-0.979159 3.87293e-21 -0.215566)
(-0.887367 -2.04187e-21 -0.0798475)
(-0.956692 0 -0.130563)
(-0.88408 -2.80146e-21 -0.00626085)
(-0.943226 3.17438e-21 -0.0432336)
(-0.935041 9.35709e-23 0.0241324)
(-1.70619 4.90452e-22 -0.474399)
(-1.74438 8.34746e-21 -0.46101)
(-1.69146 -4.10586e-21 -0.517528)
(-1.74355 -1.28413e-22 -0.505304)
(-1.66472 -3.34249e-21 -0.560275)
(-1.72703 3.00176e-21 -0.553589)
(-1.63034 -8.42217e-22 -0.596603)
(-1.69647 4.08671e-22 -0.594752)
(-1.58298 4.63577e-21 -0.622495)
(-1.65449 2.08799e-21 -0.635076)
(-1.5254 1.31128e-21 -0.627348)
(-1.59748 1.84989e-22 -0.656843)
(-1.47828 5.23016e-22 -0.614254)
(-1.54332 9.68034e-22 -0.641521)
(-1.44666 1.45671e-21 -0.603096)
(-1.51165 3.60401e-22 -0.617187)
(-1.41239 1.69436e-21 -0.603344)
(-1.48763 9.6039e-22 -0.614892)
(-1.35871 6.75519e-22 -0.602243)
(-1.44374 -1.08445e-22 -0.628427)
(-1.28985 5.21254e-21 -0.580906)
(-1.37395 0 -0.626034)
(-1.22415 4.69122e-21 -0.534833)
(-1.29859 2.35721e-21 -0.588198)
(-1.17207 2.12713e-21 -0.473821)
(-1.2377 3.17873e-21 -0.525708)
(-1.13156 -3.81882e-22 -0.407948)
(-1.1931 2.61606e-21 -0.456723)
(-1.09612 -3.05658e-21 -0.339979)
(-1.15613 -5.18525e-22 -0.388937)
(-1.06184 5.18162e-21 -0.266793)
(-1.11947 6.9746e-21 -0.319575)
(-1.02994 5.30217e-21 -0.184538)
(-1.08258 2.2321e-22 -0.241721)
(-1.00579 4.89096e-21 -0.0950127)
(-1.05077 0 -0.151416)
(-0.994946 5.67851e-21 -0.0136872)
(-1.0284 1.89302e-21 -0.0552124)
(-1.01495 7.63601e-22 0.0203286)
(-1.76528 -9.87257e-22 -0.452284)
(-1.67158 -7.14733e-21 -0.467989)
(-1.78321 8.31359e-21 -0.476485)
(-1.69916 -1.39024e-20 -0.444731)
(-1.78729 7.19334e-21 -0.539447)
(-1.7389 4.98065e-21 -0.504253)
(-1.75744 7.5325e-21 -0.593152)
(-1.74085 7.5338e-21 -0.580478)
(-1.72533 4.51941e-21 -0.631146)
(-1.71631 3.76742e-22 -0.622438)
(-1.68249 -7.0237e-22 -0.665407)
(-1.68963 -1.13134e-21 -0.671116)
(-1.61834 -8.03251e-22 -0.673288)
(-1.64191 -8.89851e-25 -0.708389)
(-1.5689 1.36467e-21 -0.648837)
(-1.58784 -1.16581e-21 -0.680471)
(-1.54976 -1.4838e-21 -0.629334)
(-1.56841 1.76292e-21 -0.633663)
(-1.52838 -2.7455e-21 -0.637626)
(-1.56519 -1.21457e-21 -0.634119)
(-1.47193 -1.55935e-21 -0.651557)
(-1.52771 7.25783e-22 -0.673213)
(-1.38804 -2.67107e-21 -0.63533)
(-1.4445 -3.37836e-21 -0.689185)
(-1.31073 1.02902e-21 -0.581405)
(-1.35213 -2.93216e-21 -0.645142)
(-1.25652 3.76965e-21 -0.509407)
(-1.28588 -2.06123e-22 -0.565703)
(-1.21829 2.92097e-21 -0.437269)
(-1.24511 1.25392e-22 -0.485595)
(-1.18301 1.01156e-20 -0.368147)
(-1.21165 2.97254e-21 -0.415904)
(-1.14377 2.13584e-21 -0.295069)
(-1.17241 -7.54572e-21 -0.349148)
(-1.10252 -5.14357e-21 -0.210099)
(-1.12657 -5.18304e-21 -0.272229)
(-1.06759 -2.74699e-21 -0.113233)
(-1.08255 0 -0.176991)
(-1.04791 -2.77055e-21 -0.0222546)
(-1.04926 -2.78872e-21 -0.06983)
(-1.02942 1.78577e-21 0.0170742)
(-1.51827 -6.09488e-21 -0.416071)
(-1.66822 -8.10877e-21 -0.454268)
(-1.72415 -7.0104e-21 -0.565756)
(-1.32023 -6.03548e-21 -0.440889)
(-1.68218 -4.24328e-21 -0.618469)
(-1.44291 -1.61953e-21 -0.604032)
(-1.67321 3.51559e-22 -0.644627)
(-1.49162 -2.70734e-22 -0.620349)
(-1.67508 2.49488e-21 -0.70212)
(-1.51691 -4.43391e-21 -0.663005)
(-1.61808 -3.47314e-22 -0.725772)
(-1.52113 1.09477e-20 -0.748639)
(-1.56537 3.30388e-22 -0.676908)
(-1.49726 5.64742e-21 -0.716818)
(-1.57038 1.45037e-21 -0.634635)
(-1.50561 3.46059e-21 -0.626461)
(-1.57771 2.31191e-21 -0.658121)
(-1.54333 0 -0.627761)
(-1.52116 -1.64237e-23 -0.705171)
(-1.52291 4.05519e-21 -0.715532)
(-1.41419 -3.53468e-21 -0.701364)
(-1.42754 -1.52717e-21 -0.767292)
(-1.32004 -3.97506e-21 -0.633046)
(-1.31583 -8.83982e-23 -0.711909)
(-1.26702 -3.57057e-21 -0.542233)
(-1.24789 -9.42507e-21 -0.602002)
(-1.23727 1.2765e-22 -0.462416)
(-1.22038 1.47585e-22 -0.505591)
(-1.20531 -1.55537e-20 -0.395538)
(-1.19683 -1.44374e-22 -0.437833)
(-1.16015 -1.56788e-20 -0.326623)
(-1.15535 2.03156e-21 -0.380136)
(-1.10598 7.35496e-24 -0.240946)
(-1.09667 -6.79947e-23 -0.308665)
(-1.05633 0 -0.135732)
(-1.0357 8.7305e-21 -0.209044)
(-1.02559 1.79735e-21 -0.0318117)
(-0.988449 2.89797e-23 -0.0875325)
(-0.960892 2.56227e-21 0.0156546)
(-1.11816 2.06513e-20 -0.625643)
(-1.15211 -9.92186e-21 -0.615214)
(-1.29005 2.74972e-21 -0.626629)
(-0.742571 4.14822e-22 -0.470137)
(-1.43749 -3.81366e-21 -0.731324)
(-0.775349 -8.53393e-20 -0.508786)
(-1.42453 5.79188e-22 -0.772268)
(-0.921828 -6.55077e-22 -0.733261)
(-1.37849 -2.45942e-21 -0.668038)
(-1.10118 1.2521e-21 -0.735182)
(-1.43942 -3.58524e-21 -0.589155)
(-1.21575 -1.5714e-20 -0.564613)
(-1.5129 -2.1193e-21 -0.657276)
(-1.31177 1.19376e-23 -0.560426)
(-1.47012 -3.86089e-21 -0.775434)
(-1.31505 -2.13332e-21 -0.739444)
(-1.33658 -5.91007e-22 -0.791898)
(-1.24067 1.43027e-20 -0.860099)
(-1.22441 -5.50662e-21 -0.69093)
(-1.14259 1.30314e-22 -0.787838)
(-1.18466 -5.65209e-21 -0.565091)
(-1.09487 -3.61183e-21 -0.624163)
(-1.1777 -1.26373e-22 -0.47681)
(-1.10378 5.67194e-21 -0.505015)
(-1.1543 1.85586e-20 -0.419895)
(-1.1026 1.06529e-20 -0.450172)
(-1.10064 1.90096e-20 -0.362434)
(-1.05833 -3.32226e-22 -0.413941)
(-1.02748 8.75128e-21 -0.279327)
(-0.97982 -7.73605e-23 -0.354952)
(-0.956911 8.89572e-21 -0.164106)
(-0.894619 -1.70514e-21 -0.251409)
(-0.912209 5.03451e-22 -0.041777)
(-0.829395 1.58997e-22 -0.109476)
(-0.793105 -9.0417e-22 0.0187516)
(-0.187972 5.56364e-21 -0.574656)
(-0.503703 3.25153e-21 -0.736121)
(2.11984 3.53866e-21 -0.115091)
(-0.634496 -2.16111e-21 -0.740405)
(1.3324 -1.27312e-22 -0.525504)
(-0.762167 2.27398e-21 -0.582255)
(0.269624 1.78545e-22 -0.568453)
(-0.986741 2.14056e-21 -0.512533)
(-0.438553 2.14182e-21 -0.346755)
(-1.17401 -9.22919e-22 -0.675701)
(-0.467732 -9.04549e-20 -0.372595)
(-1.17331 3.80403e-21 -0.876524)
(-0.486302 3.63035e-23 -0.702481)
(-1.05191 3.82188e-21 -0.888386)
(-0.609068 3.84952e-21 -0.925668)
(-0.962398 5.48641e-21 -0.722551)
(-0.714063 -9.15735e-21 -0.836856)
(-0.98063 1.12442e-20 -0.547108)
(-0.77772 5.5905e-21 -0.595226)
(-1.02909 1.66457e-20 -0.462461)
(-0.864149 7.92256e-21 -0.456634)
(-1.02133 -1.0493e-20 -0.436869)
(-0.901707 1.08497e-20 -0.44566)
(-0.953177 -2.16673e-20 -0.405657)
(-0.853411 9.00367e-21 -0.453634)
(-0.851562 -8.79331e-21 -0.33061)
(-0.748732 3.89798e-22 -0.41706)
(-0.750621 -8.55942e-21 -0.201792)
(-0.636871 -9.64942e-21 -0.310268)
(-0.688505 -2.13445e-21 -0.0508774)
(-0.553491 1.04981e-20 -0.137279)
(-0.509804 -2.3071e-21 0.0323437)
(3.67562 -4.31854e-21 0.462075)
(2.27761 5.55162e-23 0.0597548)
(0.993386 0 -0.221881)
(3.81606 -4.32158e-21 0.67914)
(0.256513 -7.77746e-23 -0.450885)
(2.88626 2.7635e-21 0.416761)
(0.0180374 -3.48713e-21 -0.692605)
(2.62631 -2.92801e-20 -0.0377921)
(-0.10323 6.14322e-24 -0.865973)
(2.10407 -4.96406e-21 -0.486142)
(-0.24305 -9.2235e-21 -0.833798)
(1.25363 -8.19638e-21 -0.727449)
(-0.401602 -9.3339e-21 -0.626854)
(0.347809 -6.08486e-20 -0.661642)
(-0.603451 -5.57563e-21 -0.449308)
(-0.187973 7.30672e-21 -0.408978)
(-0.752649 -4.9162e-21 -0.423911)
(-0.2878 -4.9857e-21 -0.311892)
(-0.760818 2.54537e-20 -0.47095)
(-0.338178 -9.06705e-20 -0.409605)
(-0.674831 2.53377e-20 -0.480386)
(-0.31741 -3.03857e-20 -0.48976)
(-0.545551 8.19851e-23 -0.410174)
(-0.235888 3.99882e-22 -0.485592)
(-0.41179 1.03067e-20 -0.253887)
(-0.180618 -7.31827e-22 -0.383475)
(-0.334013 1.05567e-20 -0.0541701)
(-0.136971 1.13463e-20 -0.168623)
(-0.104141 4.32387e-21 0.0693803)
(6.10361 -1.63572e-21 1.04383)
(5.42679 5.23419e-21 0.791364)
(4.50654 -2.55595e-21 0.438904)
(6.70691 1.65749e-20 0.924582)
(3.28924 -1.33238e-20 0.0634218)
(5.86979 2.06256e-20 0.703127)
(1.9406 5.68121e-22 -0.210541)
(4.82779 5.96192e-20 0.551165)
(0.803958 1.63961e-20 -0.344508)
(3.73344 9.10172e-21 0.425278)
(0.214933 8.14286e-21 -0.417446)
(3.00485 -2.60533e-20 0.221846)
(0.0785432 -7.25595e-21 -0.499418)
(2.66122 7.11561e-22 -0.0530909)
(0.070795 -2.50954e-20 -0.563301)
(2.22996 -1.20539e-20 -0.267251)
(0.0803455 -1.32571e-20 -0.558411)
(1.77852 -1.33721e-20 -0.381016)
(0.106121 0 -0.466555)
(1.38163 1.83706e-20 -0.411411)
(0.149134 -9.77628e-21 -0.278383)
(0.955408 1.15276e-21 -0.346833)
(0.169917 -6.39297e-21 -0.01794)
(0.633747 -9.92869e-21 -0.134032)
(0.47083 3.74525e-20 0.164381)
(8.03137 2.41389e-21 1.19006)
(7.39411 1.24216e-20 1.03552)
(9.03904 4.77261e-21 1.39316)
(6.76881 7.78012e-21 0.930972)
(8.46087 -1.27281e-21 1.24837)
(6.18392 -6.78745e-21 0.804874)
(7.88834 9.20412e-21 1.11193)
(5.55757 -6.86462e-21 0.607308)
(7.36451 4.01773e-21 0.954383)
(4.79304 0 0.365015)
(6.77342 -2.00469e-21 0.782803)
(3.93388 0 0.152481)
(6.06649 0 0.633275)
(3.05546 1.85291e-20 0.011139)
(5.30819 1.91783e-20 0.521129)
(2.21762 1.93264e-20 -0.0590361)
(4.56865 -3.17123e-20 0.443112)
(1.51141 1.17122e-21 -0.0362879)
(3.82294 1.18233e-21 0.390153)
(1.06401 -8.7598e-21 0.152733)
(3.18531 -2.6341e-22 0.387385)
(2.62311 -1.85356e-20 0.55286)
(10.1227 -9.16916e-21 1.6287)
(9.63114 -1.92382e-23 1.4877)
(9.13844 2.03982e-20 1.34031)
(10.4859 1.30278e-21 1.65854)
(8.62299 8.8978e-21 1.18631)
(10.0343 3.2723e-21 1.52326)
(8.06772 -2.0417e-21 1.05267)
(9.55645 -4.36e-21 1.39097)
(7.47639 1.93369e-20 0.956842)
(9.03943 0 1.28266)
(6.85803 1.05484e-21 0.892457)
(8.49089 2.59967e-20 1.2075)
(6.21955 -1.86116e-20 0.847773)
(7.9251 -3.72738e-20 1.16157)
(5.56482 -2.65879e-22 0.819074)
(7.34864 8.53384e-22 1.14044)
(4.92121 2.87318e-21 0.822656)
(6.78333 9.28333e-21 1.14521)
(6.09741 2.32075e-20 1.16602)
(11.4238 -1.51107e-20 1.84654)
(11.0049 -8.74461e-21 1.72727)
(12.1124 -6.31853e-21 1.98978)
(10.5555 -2.34482e-21 1.62455)
(11.7325 -7.41392e-21 1.88845)
(10.0798 1.44971e-21 1.54694)
(11.3255 5.02583e-21 1.80904)
(9.58686 -1.71911e-20 1.49585)
(10.8976 -1.69031e-20 1.75695)
(9.08497 -1.79526e-20 1.46857)
(10.4594 1.81683e-20 1.72961)
(8.58475 1.10506e-20 1.46105)
(10.0205 8.75421e-22 1.72121)
(8.11074 1.25978e-20 1.46131)
(9.59917 -6.33423e-21 1.7224)
(9.09131 2.91706e-21 1.7067)
(12.8678 -5.08875e-21 2.15647)
(12.5259 -5.4041e-22 2.07839)
(12.1655 -1.13301e-20 2.02255)
(13.125 5.15831e-21 2.21821)
(11.7948 1.68883e-20 1.99011)
(12.8129 -1.67426e-20 2.18286)
(11.4221 3.34545e-20 1.97708)
(12.4956 1.31639e-20 2.16701)
(11.0574 -9.95934e-21 1.97499)
(12.1811 1.49109e-20 2.1639)
(10.7136 -1.00577e-20 1.96624)
(11.8824 -1.79209e-20 2.16224)
(11.5198 0 2.14008)
(13.7908 0 2.38038)
(13.5337 -1.8854e-20 2.3607)
(14.2867 0 2.4906)
(13.2771 -4.10919e-21 2.35477)
(14.078 -1.9187e-20 2.4828)
(13.0279 7.2936e-21 2.35381)
(13.8724 2.74714e-21 2.48337)
(12.7916 -7.94856e-21 2.34295)
(13.6779 -7.98377e-22 2.48246)
(13.4385 1.22498e-21 2.46386)
(14.8464 0 2.61495)
(14.691 -1.26219e-20 2.61424)
(14.5406 -4.9178e-21 2.61594)
(15.1411 -1.28421e-20 2.69308)
(14.3971 7.90966e-21 2.60899)
(15.0353 7.65273e-21 2.69574)
(14.9022 8.60244e-22 2.68521)
(15.6498 -2.9382e-22 2.77604)
(15.5854 -8.70644e-22 2.77585)
(16.0128 -2.98856e-22 2.81507)
(15.9703 -1.17415e-21 2.81429)
(16.4192 0 2.85582)
(16.7076 0 2.86329)
)
;

boundaryField
{
    inlet
    {
        type            calculated;
        value           nonuniform 0();
    }
    outlet
    {
        type            calculated;
        value           nonuniform List<vector> 
30
(
(2.09693 0 -0.00389491)
(2.65824 -1.9147e-23 -0.0140198)
(2.52126 1.91732e-23 -0.0268654)
(2.16412 -4.12439e-24 -0.0315393)
(1.74497 -1.96449e-22 -0.0333032)
(1.3452 1.97372e-22 -0.0329992)
(0.951161 1.95991e-22 -0.0253394)
(0.562545 -1.96965e-22 -0.00876817)
(0.234109 -6.9308e-23 0.00920491)