/*--------------------------------*- C++ -*----------------------------------*\
| =========                 |                                                 |
| \\      /  F ield         | OpenFOAM: The Open Source CFD Toolbox           |
|  \\    /   O peration     | Version:  dev                                   |
|   \\  /    A nd           | Web:      www.OpenFOAM.org                      |
|    \\/     M anipulation  |                                                 |
\*---------------------------------------------------------------------------*/
FoamFile
{
    version     2.0;
    format      ascii;
    class       volScalarField;
    location    "0.35";
    object      p;
}
// * * * * * * * * * * * * * * * * * * * * * * * * * * * * * * * * * * * * * //

dimensions      [0 2 -2 0 0 0 0];

internalField   nonuniform List<scalar> 
2790
(
90.8062
90.6889
90.937
91.5575
92.4322
93.4955
94.7363
96.1551
97.7471
99.5038
101.416
103.474
105.665
107.977
110.39
112.884
115.432
118.002
120.556
123.051
125.439
127.673
129.704
131.49
133.001
134.222
135.156
135.824
136.264
136.532
90.6143
90.5939
90.8646
91.4827
92.3536
93.4133
94.6493
96.0618
97.6464
99.3947
101.298
103.346
105.528
107.83
110.234
112.721
115.263
117.83
120.386
122.887
125.289
127.542
129.599
131.419
132.971
134.238
135.221
135.938
136.42
136.734
90.4111
90.4603
90.7484
91.3557
92.2129
93.2589
94.479
95.8726
97.4354
99.1593
101.035
103.053
105.203
107.471
109.84
112.291
114.799
117.337
119.869
122.358
124.76
127.032
129.13
131.014
132.653
134.028
135.132
135.973
136.57
136.989
90.1793
90.2604
90.5588
91.1554
91.9963
93.0245
94.2235
95.592
97.1254
98.8157
100.654
102.63
104.734
106.952
109.269
111.667
114.122
116.61
119.1
121.558
123.947
126.227
128.361
130.312
132.049
133.548
134.795
135.781
136.506
137.073
89.9093
90.0042
90.3088
90.8955
91.718
92.7232
93.8949
95.2307
96.726
98.3729
100.162
102.085
104.129
106.284
108.534
110.862
113.248
115.668
118.098
120.508
122.866
125.14
127.296
129.301
131.125
132.739
134.119
135.241
136.083
136.793
89.5968
89.6964
90.0011
90.5753
91.3755
92.3524
93.4902
94.7863
96.2356
97.8302
99.5611
101.419
103.392
105.47
107.639
109.883
112.183
114.52
116.872
119.214
121.521
123.766
125.92
127.955
129.84
131.544
133.033
134.268
135.201
136.019
89.2401
89.339
89.6382
90.1966
90.9712
91.915
93.0133
94.263
95.6588
97.1927
98.8554
100.637
102.529
104.518
106.591
108.735
110.934
113.169
115.423
117.675
119.905
122.092
124.213
126.243
128.155
129.913
131.477
132.797
133.799
134.731
88.8389
88.9337
89.2229
89.7619
90.5072
91.4137
92.467
93.6639
94.999
96.4638
98.0491
99.7455
101.543
103.43
105.394
107.423
109.502
111.615
113.748
115.883
118.006
120.1
122.149
124.132
126.024
127.793
129.392
130.764
131.802
132.796
88.3937
88.4821
88.7575
89.2736
89.9863
90.8511
91.8543
92.9926
94.2601
95.6481
97.1473
98.748
100.44
102.213
104.054
105.951
107.891
109.86
111.845
113.833
115.812
117.769
119.695
121.576
123.392
125.117
126.704
128.092
129.14
130.118
87.9055
87.9858
88.2445
88.7345
89.4112
90.2304
91.1788
92.2529
93.4464
94.7505
96.1553
97.651
99.2273
100.873
102.576
104.325
106.106
107.906
109.714
111.518
113.309
115.078
116.819
118.526
120.191
121.796
123.306
124.673
125.779
127.134
87.3759
87.4468
87.6864
88.1474
88.785
89.555
90.4443
91.4492
92.5631
93.7765
95.0794
96.4613
97.9115
99.4183
100.97
102.552
104.154
105.76
107.36
108.94
110.492
112.01
113.489
114.931
116.34
117.715
119.042
120.294
121.295
122.344
86.8069
86.8674
87.0858
87.5153
88.1109
88.8285
89.6549
90.5861
91.6152
92.7321
93.9261
95.1863
96.5011
97.8581
99.244
100.645
102.046
103.433
104.791
106.106
107.365
108.559
109.684
110.743
111.75
112.726
113.692
114.671
115.623
117.643
86.2004
86.2497
86.4455
86.8412
87.3924
88.0548
88.815
89.6687
90.6084
91.6236
92.7029
93.8344
95.0055
96.2028
97.4114
98.6155
99.7982
100.941
102.026
103.032
103.942
104.736
105.401
105.932
106.339
106.657
106.942
107.247
107.364
109.555
85.5589
85.5964
85.7681
86.1285
86.6332
87.2379
87.9291
88.7021
89.5488
90.458
91.4175
92.4145
93.4352
94.4644
95.4854
96.48
97.4275
98.3055
99.0887
99.7492
100.256
100.574
100.669
100.507
100.065
99.3433
98.3773
97.1445
94.1542
86.9657
84.8848
84.9102
85.0568
85.3803
85.8367
86.3819
87.0018
87.6914
88.4421
89.242
90.0778
90.9357
91.8004
92.6551
93.4806
94.2555
94.9553
95.5515
96.0112
96.2952
96.356
96.1363
95.5656
94.5579
93.0115
90.8285
88.024
85.3924
86.1542
98.7834
-80.7267
-81.5978
-83.1699
-85.6282
-89.0371
-93.4098
-98.6988
-104.79
-111.494
-118.544
-125.591
-132.203
-137.886
-142.104
-144.317
-144.024
-140.82
-134.469
-125.003
-112.749
-98.2929
-82.4196
-66.0315
-50.0563
-35.3593
-22.6731
-12.4661
-4.8375
0.589691
3.19856
-80.9678
-81.7208
-83.314
-85.8179
-89.2882
-93.7375
-99.1177
-105.314
-112.137
-119.317
-126.501
-133.253
-139.067
-143.402
-145.712
-145.492
-142.337
-136.011
-126.548
-114.287
-99.8117
-83.9046
-67.4635
-51.4128
-36.615
-23.808
-13.4936
-5.70002
-0.15175
2.68038
-81.4727
-82.5635
-84.3279
-86.9802
-90.5796
-95.1473
-100.642
-106.955
-113.904
-121.223
-128.558
-135.468
-141.439
-145.916
-148.342
-148.202
-145.075
-138.721
-129.185
-116.822
-102.228
-86.1894
-69.6068
-53.4061
-38.4503
-25.4799
-15.0147
-6.95449
-1.1409
2.16103
-83.2061
-84.2702
-86.1561
-88.9607
-92.703
-97.4093
-103.046
-109.512
-116.633
-124.146
-131.697
-138.837
-145.036
-149.721
-152.317
-152.288
-149.191
-142.777
-133.11
-120.566
-105.757
-89.4773
-72.6376
-56.1729
-40.9542
-27.7248
-16.9988
-8.53536
-2.32059
1.58044
-85.5873
-86.7421
-88.7138
-91.6383
-95.5112
-100.36
-106.154
-112.8
-120.129
-127.881
-135.701
-143.128
-149.613
-154.558
-157.364
-157.468
-154.396
-147.893
-138.048
-125.265
-110.171
-93.5722
-76.3896
-59.5735
-44.0081
-30.4355
-19.3312
-10.3433
-3.61771
0.96662
-88.7699
-89.8715
-91.8772
-94.8881
-98.8697
-103.854
-109.813
-116.659
-124.23
-132.268
-140.413
-148.191
-155.029
-160.29
-163.342
-163.591
-160.523
-153.888
-143.816
-130.741
-115.303
-98.3188
-80.7201
-63.4774
-47.4912
-33.4966
-21.8821
-12.2693
-4.9758
0.343682
-92.4367
-93.454
-95.4623
-98.5265
-102.591
-107.697
-113.82
-120.879
-128.717
-137.079
-145.596
-153.779
-161.023
-166.648
-169.974
-170.367
-167.278
-160.471
-150.14
-136.742
-120.925
-103.515
-85.452
-67.7301
-51.2662
-36.7798
-24.5084
-14.2137
-6.35664
-0.271449
-96.2513
-97.2244
-99.2253
-102.316
-106.437
-111.647
-117.927
-125.204
-133.325
-142.035
-150.958
-159.588
-167.284
-173.313
-176.931
-177.459
-174.316
-167.304
-156.698
-142.974
-126.775
-108.931
-90.3866
-72.162
-55.182
-40.1105
-27.0943
-16.1392
-7.70754
-0.866148
-100.082
-100.954
-102.908
-105.992
-110.14
-115.432
-121.856
-129.345
-137.752
-146.821
-156.169
-165.269
-173.448
-179.909
-183.825
-184.468
-181.239
-174.002
-163.135
-149.116
-132.565
-114.318
-95.3173
-76.5954
-59.0709
-43.3095
-29.5612
-18.0285
-8.98579
-1.43265
-103.71
-104.395
-106.249
-109.281
-113.421
-118.768
-125.314
-133
-141.68
-151.098
-160.865
-170.437
-179.107
-186.014
-190.225
-190.954
-187.618
-180.16
-169.079
-154.841
-138.006
-119.425
-100.043
-80.8433
-62.7296
-46.2761
-31.8939
-19.8194
-10.1613
-1.96793
-107.038
-107.291
-108.984
-111.918
-116.008
-121.378
-128.019
-135.874
-144.798
-154.532
-164.682
-174.695
-183.836
-191.179
-195.673
-196.456
-193.015
-185.383
-174.178
-159.843
-142.859
-124.037
-104.355
-84.7156
-66.0079
-48.9636
-34.0389
-21.4525
-11.2122
-2.47171
-109.307
-109.354
-110.884
-113.661
-117.657
-123.017
-129.723
-137.711
-146.829
-156.818
-167.28
-177.657
-187.2
-194.935
-199.699
-200.53
-197.033
-189.342
-178.137
-163.852
-146.922
-127.989
-108.024
-88.002
-68.8225
-51.2966
-35.914
-22.8799
-12.1231
-2.9446
-110.495
-110.599
-111.781
-114.307
-118.178
-123.518
-130.274
-138.36
-147.612
-157.765
-168.424
-179.034
-188.854
-196.896
-201.943
-202.887
-199.4
-191.809
-180.766
-166.665
-149.896
-130.98
-110.85
-90.545
-71.0481
-53.1827
-37.4555
-24.0661
-12.8848
-3.38714
-113.34
-111.258
-111.485
-113.67
-117.448
-122.811
-129.643
-137.817
-147.149
-157.373
-168.102
-178.794
-188.729
-196.943
-202.169
-203.242
-199.88
-192.547
-181.842
-168.076
-151.544
-132.766
-112.643
-92.2456
-72.6048
-54.5584
-38.6207
-24.99
-13.4947
-3.79968
-115.128
-110.287
-109.594
-111.572
-115.44
-120.959
-127.931
-136.199
-145.57
-155.781
-166.458
-177.075
-186.932
-195.078
-200.28
-201.43
-198.332
-191.451
-181.257
-167.966
-151.81
-133.309
-113.359
-93.053
-73.4491
-55.39
-39.3894
-25.6442
-13.9565
-4.18153
84.1673
84.18
84.3005
84.5853
84.9913
85.4743
86.0201
86.623
87.2739
87.96
88.6672
89.3805
90.0829
90.7557
91.377
91.9221
92.3618
92.6613
92.7787
92.662
92.2453
91.4432
90.1419
88.1843
85.346
81.2902
75.4155
66.3069
49.128
-1.0664
83.3978
83.3974
83.4904
83.7345
84.0877
84.5058
84.974
85.4864
86.0332
86.6008
87.1742
87.7369
88.2706
88.7542
89.1634
89.4698
89.6394
89.6311
89.3941
88.8638
87.9564
86.5596
84.5171
81.6011
77.4576
71.4855
62.5353
48.266
25.4788
-13.4783
82.5819
82.5681
82.6327
82.8348
83.1332
83.4841
83.8723
84.2915
84.7311
85.177
85.613
86.0215
86.3826
86.6731
86.8662
86.9302
86.8267
86.5091
85.9189
84.9815
83.5994
81.6414
78.9254
75.1892
70.0413
62.8847
52.8315
38.6195
19.8745
-4.68633
81.721
81.6936
81.7291
81.888
82.1303
82.4123
82.7189
83.0429
83.3734
83.6955
83.9923
84.2449
84.4319
84.5285
84.5056
84.3288
83.9564
83.3374
82.4083
81.0886
79.2743
76.8283
73.5676
69.2445
63.5254
55.9764
46.0924
33.2759
17.3184
-2.53635
80.8167
80.7756
80.7817
80.8966
81.0818
81.2941
81.5179
81.7457
81.9662
82.164
82.3212
82.4181
82.4322
82.3373
82.1028
81.6921
81.0616
80.1581
78.916
77.2539
75.0687
72.2299
68.5721
63.8868
57.9185
50.3662
40.906
29.1501
14.7887
-2.23053
79.8714
79.8167
79.7931
79.8637
79.9914
80.1334
80.2741
80.4057
80.5165
80.5905
80.6096
80.5533
80.3982
80.1174
79.6792
79.0465
78.1748
77.011
75.4905
73.5351
71.049
67.9158
63.995
59.1204
53.1007
45.7238
36.7726
26.0251
13.3238
-0.995705
78.8875
78.8195
78.7665
78.7928
78.8631
78.9351
78.9931
79.0293
79.0318
78.9843
78.8683
78.6631
78.3451
77.8869
77.2568
76.418
75.3269
73.9321
72.1731
69.978
67.2618
63.9256
59.8555
54.9242
48.994
41.9243
33.588
23.8895
12.7817
0.618149
77.8684
77.7875
77.7056
77.6881
77.7015
77.7044
77.6811
77.6237
77.5203
77.3548
77.1086
76.7609
76.2883
75.6639
74.8567
73.831
72.5456
70.9527
68.9973
66.616
63.7367
60.2786
56.1535
51.2683
45.5299
38.8528
31.1718
22.4564
12.7026
2.21329
76.8177
76.7245
76.6145
76.5541
76.5118
76.4471
76.3446
76.1964
75.9909
75.7121
75.3419
74.8599
74.2432
73.4659
72.4985
71.3076
69.8551
68.098
65.9881
63.4716
60.4895
56.9785
52.8732
48.1091
42.627
36.3795
29.3389
21.5066
12.902
3.78442
75.7398
75.6351
75.4981
75.396
75.2996
75.1696
74.9907
74.7554
74.4525
74.0665
73.5799
72.9731
72.2243
71.3091
70.2001
68.8667
67.2749
65.3872
63.1627
60.5573
57.5244
54.0165
49.9875
45.3951
40.2049
34.3948
27.96
20.9195
13.3061
5.33633
74.6395
74.5241
74.3614
74.2194
74.0711
73.8784
73.6268
73.309
72.9143
72.4281
71.8338
71.1129
70.2451
69.2079
67.9766
66.524
64.8203
62.8339
60.5312
57.8773
54.8369
51.3761
47.464
43.0753
38.193
32.8117
26.9406
20.6073
13.8494
6.84398
73.522
73.3969
73.2101
73.0303
72.8326
72.5807
72.2605
71.8654
71.3854
70.807
70.1145
69.291
68.3181
67.1754
65.8412
64.2918
62.5022
60.4464
58.0977
55.4295
52.4165
49.0356
45.2679
41.1008
36.5291
31.558
26.2043
20.4987
14.4789
8.28866
72.3931
72.2595
72.0505
71.8351
71.5911
71.2838
70.8997
70.4331
69.8749
69.2127
68.4323
67.5183
66.4542
65.2224
63.8041
62.1793
60.3277
58.2286
55.8615
53.2072
50.2484
46.9709
43.3649
39.4266
35.1588
30.5728
25.6894
20.539
15.1574
9.66091
71.2592
71.1181
70.8889
70.6406
70.3537
69.995
69.5524
69.0205
68.3917
67.6545
66.7965
65.8041
64.6629
63.3579
61.8733
60.193
58.3007
56.1806
53.8181
51.1999
48.3153
45.1569
41.7216
38.0116
34.0349
29.8061
25.3471
20.6869
15.8583
10.9551
70.1268
69.9795
69.7322
69.4539
69.1276
68.7222
68.2264
67.6359
66.944
66.141
65.2158
64.1569
62.9521
61.5889
60.0546
58.3364
56.422
54.3001
51.9605
49.3952
46.5987
43.5688
40.307
36.8194
33.117
29.2162
25.1385
20.9106
16.5617
12.1679
69.003
68.8508
68.5876
68.2822
67.9203
67.4729
66.9295
66.287
65.54
64.6801
63.698
62.5841
61.3283
59.9208
58.3516
56.611
54.6903
52.5819
50.2797
47.7796
45.0801
42.1828
39.0924
35.8176
32.3708
28.7689
25.0322
21.1849
17.2529
13.2977
67.8953
67.7393
67.4625
67.1331
66.7395
66.2548
65.6696
64.9818
64.1873
63.2792
62.2499
61.0917
59.7968
58.3574
56.7662
55.0166
53.1026
51.02
48.7657
46.3389
43.7412
40.9767
38.0523
34.978
31.7671
28.4358
25.0031
21.4906
17.921
14.3441
66.8114
66.6528
66.3646
66.0143
65.5929
65.0755
64.4542
63.7276
62.8929
61.9449
60.8776
59.6851
58.3614
56.9011
55.2992
53.5515
51.6546
49.6069
47.4079
45.0593
42.5647
39.9302
37.1638
34.2765
31.2812
28.1936
25.031
21.8125
18.558
15.3079
65.7593
65.5992
65.3018
64.9336
64.4882
63.9428
63.2906
62.5315
61.6637
60.6835
59.5865
58.3684
57.0253
55.5535
53.9501
52.2131
50.3413
48.3349
46.1958
43.9272
41.5345
39.0248
36.407
33.692
30.8926
28.0232
25.0996
22.1389
19.1582
16.1904
64.7473
64.5867
64.282
63.8988
63.433
62.864
62.1861
61.4002
60.5057
59.5004
58.3811
57.1453
55.7906
54.3152
52.7179
50.9983
49.1571
47.1963
45.1191
42.9302
40.636
38.2443
35.7643
33.2067
30.5838
27.9089
25.1962
22.4607
19.7176
16.9935
63.7838
63.6237
63.3136
62.9179
62.4351
61.8466
61.1478
60.3404
59.4251
58.4007
57.2657
56.0188
54.6592
53.1864
51.6008
49.9035
48.0966
46.1834
44.1683
42.0568
39.8561
37.5743
35.2207
32.8056
30.3405
27.8378
25.3102
22.771
20.2333
17.7193
62.8776
62.7186
62.4047
61.999
61.5023
60.8979
60.1824
59.3582
58.4272
57.3893
56.2441
54.9916
53.6322
52.1669
50.5971
48.9253
47.1546
45.2893
43.3345
41.2967
39.1832
37.0024
34.7633
32.4759
30.1509
27.7996
25.4336
23.0645
20.704
18.3702
62.0375
61.8802
61.5638
61.1501
60.6421
60.0251
59.2966
58.4599
57.5176
56.4706
55.3197
54.0659
52.7108
51.2563
49.7049
48.0601
46.3259
44.5072
42.6098
40.6406
38.6071
36.5177
34.3811
32.2068
30.0048
27.7855
25.5593
23.3368
21.128
18.948
61.2729
61.1175
60.7994
60.3794
59.8623
59.2356
58.4973
57.6515
56.7015
55.6491
54.4961
53.2444
51.8963
50.4548
48.9232
47.3056
45.6068
43.8322
41.9881
40.0814
38.12
36.1119
34.0656
31.9902
29.895
27.7895
25.6832
23.5856
21.5056
19.4559
60.5931
60.4396
60.1202
59.6948
59.1706
58.5364
57.7909
56.9388
55.9838
54.9288
53.7762
52.5287
51.1893
49.7616
48.2497
46.6583
44.9926
43.2584
41.4622
39.6113
37.7132
35.776
33.8079
31.8174
29.8132
27.8042
25.7991
23.8064
21.8343
19.8931
60.0083
59.8562
59.535
59.1047
58.5748
57.9351
57.1848
56.3286
55.3712
54.3157
53.1654
51.9234
50.5934
49.1796
47.6864
46.1191
44.4832
42.7848
41.0306
39.2278
37.384
35.5071
33.6049
31.6856
29.7574
27.8286
25.9072
24.001
22.1175
20.2656
59.5294
59.3771
59.0522
58.6165
58.0814
57.4372
56.6832
55.8243
54.8656
53.8108
52.6636
51.4274
50.1065
48.7054
47.2291
45.6828
44.0724
42.4043
40.6852
38.9223
37.1232
35.2955
33.4469
31.585
29.7179
27.8532
25.9984
24.1608
22.3473
20.5654
59.1694
59.0124
58.6813
58.2414
57.7033
57.0564
56.3
55.4396
54.4806
53.4271
52.283
51.0523
49.7393
48.3489
46.8864
45.3572
43.7674
42.1234
40.432
38.7003
36.9359
35.1463
33.3389
31.5211
29.7006
27.8847
26.0806
24.2952
22.5349
20.8065
58.9468
58.7648
58.4181
57.9737
57.4342
56.786
56.0285
55.1678
54.2097
53.1582
52.0173
50.7912
49.4846
48.1025
46.6503
45.1335
43.5584
41.9314
40.2593
38.5492
36.8087
35.0451
33.2657
31.4777
29.6885
27.9053
26.135
24.3841
22.659
20.9653
58.9044
58.671
58.3001
57.8488
57.306
56.6548
55.8951
55.0333
54.0751
53.0245
51.8856
50.6625
49.36
47.9831
46.5372
45.028
43.4618
41.8449
40.1841
38.4866
36.7597
35.0107
33.2469
31.4753
29.7033
27.9378
26.1856
24.4531
22.7462
21.0703
-109.131
-126.901
-115.339
-48.3102
-62.8122
-79.1722
-29.2292
-44.3909
-58.3871
-24.3431
-38.5305
-50.1295
-19.7363
-31.4763
-41.428
-15.1449
-24.8985
-33.4474
-11.2816
-19.5696
-26.881
-7.96786
-15.0609
-21.2936
-4.9837
-11.0842
-16.4116
-2.26338
-7.54392
-12.1257
0.215307
-4.38352
-8.35072
2.47496
-1.55195
-5.00967
4.53647
0.992662
-2.03976
6.4169
3.28352
0.608615
8.13057
5.34754
2.975
9.68978
7.20687
5.09126
11.1053
8.88002
6.98346
12.3866
10.3828
8.67336
13.5422
11.7288
10.1794
14.5802
12.9301
11.5177
15.5073
13.9973
12.7017
16.3303
14.9398
13.7438
17.0542
15.765
14.6533
17.6853
16.4813
15.4405
18.2243
17.0911
16.1092
18.6805
17.6046
16.6704
19.0449
18.0142
17.1181
19.3361
18.339
17.4703
19.5267
18.5524
17.7033
19.6568
18.7001
17.8614
-108.828
-105.273
-105.396
-107.932
-112.306
-118.177
-125.361
-133.714
-143.062
-153.158
-163.644
-174.013
-183.583
-191.441
-196.465
-197.701
-194.98
-188.688
-179.126
-166.401
-150.715
-132.603
-112.977
-92.9419
-73.559
-55.6621
-39.755
-26.03
-14.278
-4.533
-88.9173
-94.6047
-98.9061
-103.444
-108.665
-114.926
-122.274
-130.627
-139.837
-149.678
-159.81
-169.751
-178.851
-186.275
-191.055
-192.392
-190.108
-184.447
-175.531
-163.384
-148.208
-130.575
-111.416
-91.8336
-72.8679
-55.3231
-39.6812
-26.126
-14.4485
-4.84414
-75.8952
-87.9368
-93.7914
-99.112
-105.139
-111.828
-119.223
-127.396
-136.286
-145.695
-155.303
-164.656
-173.155
-180.062
-184.572
-186.009
-184.133
-179.012
-170.633
-158.984
-144.305
-127.218
-108.666
-89.7215
-71.3731
-54.3738
-39.1714
-25.9371
-14.4721
-5.10782
-66.2086
-80.6399
-89.2127
-95.814
-102.234
-109.023
-116.36
-124.286
-132.748
-141.588
-150.531
-159.168
-166.967
-173.295
-177.511
-178.995
-177.383
-172.577
-164.515
-153.222
-139.01
-122.545
-104.751
-86.6361
-69.1054
-52.841
-38.2463
-25.4776
-14.3547
-5.31594
-55.6568
-70.4628
-81.7433
-90.7476
-98.5204
-105.84
-113.236
-120.963
-129.042
-137.34
-145.614
-153.512
-160.579
-166.291
-170.148
-171.51
-169.858
-165.045
-157.065
-146.028
-132.315
-116.598
-99.743
-82.6561
-66.1367
-50.7823
-36.9475
-24.7737
-14.1066
-5.46093
-45.5591
-59.4004
-71.9879
-82.8939
-92.2761
-100.688
-108.657
-116.524
-124.425
-132.323
-140.04
-147.285
-153.671
-158.75
-162.082
-163.012
-160.985
-155.965
-148.014
-137.306
-124.251
-109.484
-93.7776
-77.9151
-62.5803
-48.2842
-35.3347
-23.8612
-13.7416
-5.53659
-36.9095
-49.104
-61.6339
-73.2942
-83.6504
-92.9757
-101.638
-109.889
-117.859
-125.556
-132.867
-139.565
-145.322
-149.742
-152.33
-152.559
-150.107
-144.995
-137.276
-127.147
-115.008
-101.431
-87.077
-72.6042
-58.5866
-45.4559
-33.4803
-22.7824
-13.2759
-5.53956
-29.5847
-40.0362
-51.6825
-63.132
-73.6605
-83.3304
-92.3499
-100.848
-108.879
-116.431
-123.409
-129.62
-134.78
-138.522
-140.349
-139.972
-137.343
-132.419
-125.227
-115.961
-104.988
-92.797
-79.9384
-66.9567
-54.3281
-42.4179
-31.4624
-21.5823
-12.7273
-5.47055
-23.3426
-32.2269
-42.6303
-53.2685
-63.3413
-72.7857
-81.6952
-90.0993
-97.9756
-105.267
-111.867
-117.596
-122.2
-125.348
-126.662
-126.021
-123.482
-118.993
-112.563
-104.363
-94.7058
-83.9959
-72.6828
-61.2114
-49.9759
-39.2867
-29.3557
-20.3038
-12.1143
-5.33493
-18
-25.5666
-34.6698
-44.2239
-53.4688
-62.2837
-70.6955
-78.673
-86.141
-93.0046
-99.1406
-104.38
-108.503
-111.237
-112.317
-111.7
-109.461
-105.563
-100.015
-92.9583
-84.6454
-75.4025
-65.5915
-55.5734
-45.6747
-36.161
-27.2239
-18.9844
-11.4544
-5.14221
-13.3915
-19.8788
-27.7818
-36.2081
-44.4807
-52.4629
-60.1495
-67.482
-74.3599
-80.6693
-86.2809
-91.0402
-94.7636
-97.2435
-98.2878
-97.868
-96.0412
-92.7939
-88.1421
-82.1975
-75.1594
-67.2857
-58.8649
-50.1895
-41.5298
-33.1139
-25.1155
-17.6543
-10.7635
-4.90459
-9.37933
-14.9868
-21.8464
-29.2241
-36.5319
-43.6368
-50.5219
-57.1218
-63.3313
-69.034
-74.1065
-78.4125
-81.8028
-84.1232
-85.2299
-85.0764
-83.6913
-81.0789
-77.2635
-72.3334
-66.4429
-59.7941
-52.6161
-45.1452
-37.6056
-30.1932
-23.0648
-16.3362
-10.056
-4.63503
-5.85971
-10.7462
-16.722
-23.1771
-29.6036
-35.88
-41.9871
-47.8632
-53.4094
-58.5172
-63.0753
-66.967
-70.0711
-72.2692
-73.4604
-73.5775
-72.6072
-70.5694
-67.4946
-63.4525
-58.5615
-52.9792
-46.8873
-40.4769
-33.9338
-27.4259
-21.0937
-15.047
-9.3441
-4.3455
-2.7554
-7.04626
-12.2798
-17.9432
-23.5974
-29.134
-34.5356
-39.748
-44.6834
-49.2452
-53.3362
-56.858
-59.7114
-61.8034
-63.0572
-63.4017
-62.7965
-61.258
-58.8191
-55.5357
-51.4987
-46.8307
-41.6761
-36.1895
-30.5248
-24.8254
-19.216
-13.7993
-8.63821
-4.04608
-0.00748738
-3.80264
-8.41299
-13.4037
-18.394
-23.288
-28.0714
-32.6985
-37.0933
-41.1718
-44.8505
-48.0466
-50.6783
-52.6698
-53.9587
-54.4771
-54.1751
-53.0587
-51.1563
-48.5129
-45.1985
-41.3086
-36.9578
-32.2715
-27.3771
-22.3967
-17.4404
-12.6022
-7.94706
-3.74469
2.43005
-0.94996
-5.03595
-9.45674
-13.8808
-18.2238
-22.4744
-26.5949
-30.5203
-34.1786
-37.4984
-40.4096
-42.8437
-44.7376
-46.0381
-46.6847
-46.6269
-45.8603
-44.4056
-42.2984
-39.5926
-36.3626
-32.6994
-28.7045
-24.4837
-20.1408
-15.772
-11.463
-7.27777
-3.44734
4.59405
1.56337
-2.08023
-6.01814
-9.96084
-13.8339
-17.6288
-21.3145
-24.8362
-28.132
-31.1408
-33.8031
-36.0611
-37.8612
-39.1567
-39.896
-40.0317
-39.5512
-38.4675
-36.8077
-34.6134
-31.9422
-28.8663
-25.4681
-21.8353
-18.0559
-14.2141
-10.387
-6.63616
-3.15857
6.51468
3.77905
0.509503
-3.01906
-6.55285
-10.0261
-13.4324
-16.7466
-19.9223
-22.9064
-25.6466
-28.0921
-30.1937
-31.9046
-33.1837
-33.9897
-34.2784
-34.0295
-33.2514
-31.9641
-30.1988
-28.0002
-25.4256
-22.5417
-19.4212
-16.1389
-12.7682
-9.37802
-6.02686
-2.88184
8.21707
5.73133
2.77857
-0.402793
-3.5894
-6.72288
-9.79863
-12.7961
-15.676
-18.3928
-20.9016
-23.1587
-25.1216
-26.7491
-28.0044
-28.8566
-29.266
-29.2047
-28.6774
-27.6993
-26.2935
-24.4942
-22.3468
-19.9055
-17.2307
-14.3857
-11.4346
-8.43899
-5.45349
-2.61975
9.72254
7.44882
4.76452
1.87762
-1.01438
-3.85951
-6.65445
-9.3825
-12.0101
-14.4982
-16.808
-18.9016
-20.7421
-22.2937
-23.524
-24.4054
-24.905
-24.9955
-24.675
-23.9536
-22.8485
-21.3861
-19.6023
-17.5412
-15.253
-12.7917
-10.213
-7.5718
-4.91893
-2.3743
11.049
8.95531
6.49846
3.86106
1.21869
-1.38207
-3.93892
-6.43819
-8.85114
-11.1439
-13.2829
-15.2353
-16.9688
-18.4522
-19.6564
-20.5562
-21.1242
-21.3358
-21.1844
-20.6754
-19.8213
-18.6426
-17.1675
-15.432
-13.4782
-11.3521
-9.10223
-6.7777
-4.42539
-2.14701
12.2122
10.2711
8.00664
5.58014
3.14879
0.754542
-1.60103
-3.90667
-6.13759
-8.26434
-10.2576
-12.0885
-13.729
-15.1511
-16.3288
-17.2393
-17.8596
-18.1677
-18.1539
-17.82
-17.1749
-16.2341
-15.0202
-13.5627
-11.8967
-10.062
-8.10088
-6.05733
-3.97451
-1.939
13.2245
11.4125
9.31
7.06102
4.80721
2.58671
0.400504
-1.74207
-3.81946
-5.80583
-7.67526
-9.40242
-10.9623
-12.3301
-13.4823
-14.3977
-15.0581
-15.4434
-15.5409
-15.3505
-14.8784
-14.1362
-13.1421
-11.9203
-10.5007
-8.91731
-7.2077
-5.41128
-3.56778
-1.75124
14.0979
12.3942
10.4273
8.32664
6.22113
4.14572
2.10099
0.0947164
-1.85419
-3.72274
-5.48788
-7.12714
-8.61823
-9.93882
-11.0674
-11.9848
-12.6746
-13.1199
-13.3073
-13.2341
-12.9043
-12.3269
-11.5164
-10.493
-9.28222
-7.9138
-6.42103
-4.83953
-3.206
-1.58422
14.8387
13.2252
11.3703
9.39217
7.40907
5.45341
3.52542
1.63169
-0.210963
-1.98187
-3.66035
-5.22624
-6.65944
-7.93966
-9.04718
-9.96435
-10.676
-11.1674
-11.4261
-11.4474
-11.2334
-10.7909
-10.1318
-9.27312
-8.23695
-7.04957
-5.74083
-4.34319
-2.8907
-1.43876
15.4579
13.9178
12.1541
10.2751
8.39113
6.53238
4.69891
2.89637
1.13991
-0.551691
-2.15962
-3.66551
-5.05104
-6.29755
-7.38683
-8.30247
-9.03019
-9.55684
-9.87116
-9.96743
-9.84605
-9.51228
-8.97598
-8.25183
-7.35916
-6.32151
-5.166
-3.9225
-2.62284
-1.31557
15.9529
14.4711
12.7788
10.9777
9.17146
7.38882
5.62961
3.89872
2.21002
0.58087
-0.971338
-2.42967
-3.77715
-4.99642
-6.07042
-6.98372
-7.72275
-8.27549
-8.63168
-8.78513
-8.7352
-8.48588
-8.0456
-7.42726
-6.64821
-5.72989
-4.69731
-3.57837
-2.40308
-1.21463
16.3386
14.9002
13.2613
11.518
9.76939
8.04318
6.33901
4.66124
3.0228
1.44
-0.0708106
-1.49376
-2.81289
-4.01173
-5.07409
-5.98527
-6.73226
-7.30378
-7.69052
-7.88642
-7.89001
-7.70427
-7.33648
-6.79828
-6.10558
-5.27832
-4.33995
-3.31692
-2.23793
-1.14156
16.5964
15.1864
13.583
11.8788
10.1691
8.48065
6.81333
5.17119
3.56654
2.01498
0.532179
-0.866673
-2.16628
-3.3508
-4.40459
-5.31341
-6.06431
-6.64601
-7.05025
-7.27191
-7.30925
-7.16458
-6.84445
-6.35966
-5.72515
-4.95981
-4.08607
-3.12947
-2.11827
-1.08969
16.7591
15.3549
13.7687
12.0852
10.3953
8.7256
7.07634
5.4516
3.86336
2.32685
0.857437
-0.530005
-1.82048
-2.99846
-4.04873
-4.95757
-5.71299
-6.30445
-6.72269
-6.96141
-7.01901
-6.89792
-6.60446
-6.14899
-5.54595
-4.81361
-3.97377
-3.0512
-2.07312
-1.07166
)
;

boundaryField
{
    inlet
    {
        type            zeroGradient;
    }
    outlet
    {
        type            fixedValue;
        value           uniform 0;
    }
    flap
    {
        type            zeroGradient;
    }
    upperWall
    {
        type            zeroGradient;
    }
    lowerWall
    {
        type            zeroGradient;
    }
    frontAndBack
    {
        type            empty;
    }
}


// ************************************************************************* //
