/*--------------------------------*- C++ -*----------------------------------*\
| =========                 |                                                 |
| \\      /  F ield         | OpenFOAM: The Open Source CFD Toolbox           |
|  \\    /   O peration     | Version:  dev                                   |
|   \\  /    A nd           | Web:      www.OpenFOAM.org                      |
|    \\/     M anipulation  |                                                 |
\*---------------------------------------------------------------------------*/
FoamFile
{
    version     2.0;
    format      ascii;
    class       surfaceScalarField;
    location    "0.35";
    object      phi;
}
// * * * * * * * * * * * * * * * * * * * * * * * * * * * * * * * * * * * * * //

dimensions      [0 3 -1 0 0 0 0];

internalField   nonuniform List<scalar> 
5457
(
0.198803
0.00119522
0.197184
0.00161678
0.195116
0.00206404
0.192579
0.00253465
0.189579
0.0029959
0.186129
0.00344699
0.182229
0.00389721
0.177871
0.00435448
0.173044
0.00482424
0.16773
0.0053104
0.161911
0.00581587
0.155566
0.00634232
0.148672
0.0068899
0.141213
0.00745667
0.133171
0.00803802
0.124542
0.0086259
0.115331
0.00920801
0.105562
0.00976688
0.0952799
0.0102792
0.0845625
0.0107152
0.0735219
0.0110386
0.0623132
0.011207
0.0511383
0.0111735
0.0402473
0.0108899
0.0299347
0.0103118
0.0205278
0.00940643
0.0123645
0.00816289
0.00577065
0.00659374
0.00119583
0.00457475
0.00119582
0.200407
0.000786654
0.2
0.00202091
0.199044
0.00301658
0.197586
0.00398946
0.195634
0.00494507
0.193193
0.00588395
0.190266
0.0068212
0.186846
0.00777179
0.18292
0.00874685
0.178473
0.00975473
0.173484
0.0108017
0.167931
0.0118919
0.161791
0.0130263
0.155043
0.014202
0.147666
0.015411
0.13965
0.0166387
0.130993
0.0178623
0.121708
0.0190493
0.111828
0.0201563
0.101413
0.0211282
0.0905504
0.0218992
0.079361
0.0223946
0.0679979
0.0225352
0.0566429
0.0222439
0.0454984
0.0214554
0.0347762
0.0201281
0.0246831
0.0182557
0.0154057
0.0158709
0.00704506
0.0129354
0.00824086
0.200255
0.00053008
0.199906
0.00236731
0.199016
0.00390309
0.197653
0.0053493
0.195834
0.00676076
0.193565
0.0081491
0.19085
0.00953351
0.187684
0.0109344
0.184059
0.0123684
0.179962
0.0138484
0.175376
0.0153843
0.170282
0.0169833
0.164656
0.0186483
0.158478
0.0203772
0.151724
0.0221613
0.144377
0.0239828
0.136423
0.0258131
0.127859
0.0276105
0.118695
0.029318
0.108957
0.0308632
0.0986954
0.0321591
0.0879805
0.0331076
0.0769078
0.0336065
0.065592
0.0335585
0.054163
0.0328836
0.0427608
0.0315298
0.031539
0.0294771
0.0206794
0.0267304
0.0102992
0.0233155
0.01854
0.20017
0.000357993
0.199822
0.00271225
0.198953
0.00476946
0.197616
0.00668315
0.195836
0.00853752
0.193621
0.01036
0.190977
0.0121746
0.187902
0.0140058
0.184393
0.0158749
0.180439
0.0177986
0.17603
0.0197903
0.17115
0.0218597
0.165783
0.0240119
0.159911
0.0262463
0.153514
0.0285547
0.146575
0.0309191
0.139076
0.033309
0.131004
0.0356789
0.122354
0.0379657
0.113127
0.0400877
0.103338
0.0419454
0.0930183
0.0434257
0.0822137
0.0444095
0.0709887
0.0447823
0.0594246
0.0444468
0.0476203
0.0433335
0.0356927
0.0414043
0.0237628
0.0386601
0.0118555
0.0352227
0.0303955
0.200128
0.000228089
0.199772
0.00306532
0.198921
0.00561688
0.197614
0.00798748
0.195874
0.0102735
0.193714
0.0125171
0.191137
0.0147484
0.188143
0.0169959
0.184731
0.0192843
0.180892
0.0216341
0.176618
0.0240614
0.171896
0.0265783
0.166712
0.029192
0.161052
0.0319034
0.154898
0.0347057
0.148231
0.0375819
0.141035
0.0405024
0.133289
0.0434215
0.124977
0.046275
0.116084
0.0489785
0.106601
0.0514264
0.0965282
0.0534964
0.0858803
0.0550558
0.0746888
0.0559724
0.0630065
0.0561283
0.0509075
0.0554318
0.0384825
0.053829
0.0258211
0.0513212
0.0129524
0.0480914
0.0433478
0.200107
0.000119177
0.199748
0.00342161
0.19892
0.00644152
0.19765
0.00925381
0.195961
0.0119586
0.193866
0.0146095
0.191368
0.0172432
0.188468
0.0198921
0.185165
0.0225845
0.181452
0.0253439
0.17732
0.0281894
0.17276
0.0311355
0.167757
0.0341916
0.162296
0.0373607
0.15636
0.0406382
0.149929
0.0440093
0.142982
0.0474471
0.135491
0.0509086
0.127431
0.0543324
0.118772
0.0576349
0.109487
0.0607095
0.0995535
0.0634275
0.0889637
0.0656438
0.077728
0.0672067
0.0658823
0.0679729
0.0534869
0.0678263
0.0406162
0.0666993
0.0273419
0.0645953
0.0137219
0.0617114
0.0570696
0.200097
1.98721e-05
0.199742
0.00377362
0.198941
0.00723902
0.197717
0.0104752
0.196088
0.0135837
0.194068
0.0166262
0.191662
0.0196462
0.188871
0.0226798
0.185693
0.0257587
0.182124
0.0289097
0.178156
0.0321548
0.173777
0.0355113
0.168974
0.0389912
0.163731
0.0426004
0.158028
0.0463374
0.151842
0.0501915
0.145146
0.0541401
0.137906
0.0581458
0.130083
0.0621527
0.121632
0.0660825
0.112508
0.0698307
0.102668
0.0732654
0.0920808
0.0762294
0.0807378
0.0785482
0.0686627
0.0800468
0.0559112
0.080577
0.0425597
0.0800503
0.028694
0.0784608
0.0143885
0.0760167
0.0714581
0.200094
-7.64247e-05
0.19975
0.00411443
0.198981
0.00800443
0.197808
0.0116451
0.196248
0.01514
0.194314
0.0185569
0.192012
0.0219448
0.189344
0.0253443
0.186309
0.0287903
0.182903
0.0323126
0.179118
0.0359365
0.174944
0.0396822
0.170367
0.0435649
0.16537
0.0475943
0.15993
0.0517734
0.154022
0.0560966
0.147611
0.0605482
0.140654
0.065099
0.133101
0.0697025
0.124891
0.0742899
0.115955
0.0787641
0.106223
0.082995
0.0956345
0.0868157
0.0841543
0.0900267
0.0717883
0.0924115
0.0585914
0.093773
0.0446558
0.0939853
0.0300918
0.0930245
0.0150048
0.0911037
0.0864629
0.200095
-0.000173757
0.199768
0.00443839
0.199036
0.00873268
0.19792
0.0127575
0.196437
0.0166197
0.194599
0.0203917
0.192413
0.0241278
0.189881
0.0278724
0.187005
0.0316638
0.183779
0.0355349
0.180198
0.0395141
0.176252
0.0436248
0.171928
0.047886
0.167207
0.0523116
0.162067
0.05691
0.156478
0.0616825
0.1504
0.0666222
0.143785
0.0717109
0.136569
0.0769155
0.128674
0.0821824
0.120005
0.0874301
0.110458
0.0925391
0.0999294
0.0973421
0.0883356
0.101618
0.0756467
0.105099
0.0619121
0.107507
0.0472627
0.108634
0.0318936
0.108393
0.0162081
0.106789
0.102671
0.200098
-0.000274561
0.199792
0.0047411
0.199102
0.00941909
0.198049
0.0138068
0.19665
0.0180156
0.194916
0.0221219
0.192856
0.0261847
0.190473
0.030252
0.187769
0.0343652
0.18474
0.0385604
0.181382
0.0428688
0.177687
0.0473172
0.173641
0.0519286
0.169227
0.0567215
0.164424
0.0617101
0.159199
0.0669038
0.153512
0.0723057
0.147309
0.077911
0.140517
0.0837038
0.133044
0.0896522
0.124772
0.0957
0.115554
0.101754
0.105228
0.107665
0.093632
0.113213
0.0806543
0.118075
0.0663028
0.121857
0.0507447
0.124191
0.0342517
0.124886
0.0167838
0.124257
0.119455
0.200103
-0.000380276
0.199822
0.00501918
0.199178
0.0100595
0.198193
0.0147882
0.196883
0.0193215
0.195262
0.0237399
0.193337
0.0281064
0.191113
0.0324724
0.188593
0.0368822
0.185776
0.0413747
0.182658
0.0459838
0.179232
0.0507398
0.175488
0.0556691
0.171411
0.0607951
0.16698
0.0661381
0.162165
0.0717153
0.156927
0.0775405
0.151211
0.0836235
0.144943
0.0899679
0.138024
0.0965679
0.130318
0.103403
0.121642
0.110426
0.111768
0.117536
0.100425
0.124553
0.0873414
0.131157
0.0723647
0.136832
0.0556168
0.140938
0.0375968
0.142905
0.0193769
0.142476
0.138832
0.200108
-0.000491429
0.199854
0.00527034
0.199259
0.0106508
0.198346
0.0156973
0.197132
0.020532
0.195629
0.0252392
0.193847
0.0298852
0.191792
0.0345247
0.189467
0.0392044
0.186872
0.0439657
0.184008
0.0488451
0.180869
0.0538758
0.177447
0.0590875
0.173731
0.0645079
0.169703
0.0701629
0.165338
0.076077
0.160601
0.0822741
0.155443
0.0887776
0.149797
0.0956105
0.143569
0.102793
0.136623
0.110346
0.128764
0.118282
0.119711
0.126585
0.109088
0.135174
0.0963926
0.14385
0.0811158
0.152107
0.0630322
0.159021
0.0425998
0.163337
0.0205445
0.164531
0.159376
0.200114
-0.000608441
0.199888
0.00549267
0.199345
0.01119
0.198508
0.0165308
0.197394
0.0216427
0.196015
0.0266144
0.194383
0.0315149
0.192503
0.0364014
0.190381
0.0413232
0.18802
0.0463234
0.185422
0.051441
0.182583
0.0567113
0.1795
0.0621669
0.176166
0.067839
0.172568
0.0737578
0.168687
0.0799542
0.164498
0.0864599
0.159963
0.0933096
0.155027
0.100542
0.149621
0.108196
0.143634
0.116329
0.136903
0.12501
0.129171
0.134313
0.120036
0.144306
0.108838
0.155045
0.0945385
0.166405
0.0757397
0.177818
0.0510196
0.188056
0.0180992
0.197452
0.177475
0.20012
-0.000731407
0.199925
0.00568405
0.199437
0.0116742
0.198679
0.0172848
0.197669
0.0226492
0.19642
0.02786
0.194943
0.0329889
0.193246
0.0380953
0.191336
0.0432303
0.189218
0.0484385
0.186896
0.0537605
0.184371
0.0592332
0.181644
0.0648914
0.178711
0.0707686
0.175567
0.0768982
0.172204
0.0833147
0.168605
0.090055
0.164751
0.0971606
0.160611
0.104679
0.156142
0.112662
0.151281
0.121186
0.145939
0.130348
0.139978
0.14027
0.133159
0.151122
0.125034
0.163167
0.114668
0.176768
0.100359
0.192125
0.0806236
0.20779
0.062981
0.215093
0.240456
0.200129
-0.000863938
0.199969
0.0058403
0.19954
0.0120992
0.198867
0.0179547
0.197967
0.0235456
0.196853
0.0289699
0.195539
0.0343007
0.194032
0.0395993
0.192342
0.0449178
0.190475
0.0503022
0.188439
0.0557938
0.186238
0.0614308
0.183878
0.067249
0.18136
0.0732831
0.178688
0.0795679
0.17586
0.0861395
0.172874
0.0930367
0.169729
0.100303
0.166418
0.107986
0.162924
0.116152
0.15923
0.124876
0.155329
0.134245
0.15121
0.144385
0.146859
0.15547
0.142256
0.167766
0.137251
0.18177
0.130842
0.198532
0.117499
0.221132
0.0746837
0.257908
0.315139
-0.0115298
0.0115298
-0.0279533
0.0164235
-0.0458008
0.0178475
-0.0648069
0.019006
-0.0845688
0.0197619
-0.104733
0.0201638
-0.124972
0.0202393
-0.144959
0.0199872
-0.164346
0.0193876
-0.182755
0.0184092
-0.199771
0.0170166
-0.214947
0.0151759
-0.227808
0.0128624
-0.237874
0.0100668
-0.244672
0.00679843
-0.247756
0.00308429
-0.246723
-0.0010314
-0.241251
-0.00547216
-0.231212
-0.010038
-0.2167
-0.0145116
-0.197991
-0.018708
-0.175524
-0.0224662
-0.149867
-0.0256559
-0.121678
-0.0281879
-0.0916566
-0.0300194
-0.0604966
-0.0311579
-0.0287811
-0.0317129
0.0038106
-0.0325883
0.0374351
-0.0336204
-0.0404271
-0.0181624
0.0296922
-0.0343855
0.0326466
-0.0522201
0.0356821
-0.0711569
0.0379427
-0.0907934
0.0393984
-0.110784
0.0401545
-0.130807
0.0402619
-0.150536
0.0397166
-0.169625
0.0384764
-0.187691
0.0364765
-0.204317
0.0336427
-0.219046
0.0299052
-0.231395
0.0252128
-0.240875
0.0195475
-0.247008
0.0129321
-0.249353
0.00542922
-0.24754
-0.00284314
-0.241336
-0.0116761
-0.230675
-0.0206975
-0.215664
-0.0295222
-0.196576
-0.0377954
-0.17384
-0.0452012
-0.148017
-0.0514786
-0.119756
-0.056447
-0.0897368
-0.0600373
-0.0585554
-0.0623372
-0.0265761
-0.0636895
0.00585144
-0.0650125
0.0389547
-0.0667196
-0.0753901
-0.0171577
0.0468499
-0.0355807
0.0510696
-0.054001
0.0541024
-0.0727815
0.0567231
-0.0919234
0.0585403
-0.111272
0.0595032
-0.130595
0.0595852
-0.149615
0.0587365
-0.168012
0.0568735
-0.185422
0.0538871
-0.201437
0.0496574
-0.215603
0.044072
-0.227436
0.037047
-0.23644
0.0285516
-0.24213
0.0186229
-0.244068
0.00736789
-0.241886
-0.00502485
-0.235364
-0.0181974
-0.224472
-0.0315889
-0.209347
-0.0446461
-0.190282
-0.0568597
-0.167712
-0.0677709
-0.142197
-0.0769926
-0.11439
-0.0842525
-0.0849665
-0.0894596
-0.0545137
-0.0927879
-0.02342
-0.0947805
0.00771753
-0.0961467
0.0390508
-0.0980489
-0.106577
-0.0174499
0.0642998
-0.0351894
0.0688091
-0.0532679
0.0721809
-0.0715354
0.0749906
-0.089974
0.0769789
-0.108513
0.0780427
-0.127002
0.0780741
-0.145218
0.0769528
-0.162876
0.0745312
-0.179627
0.0706389
-0.195066
0.0650962
-0.208729
0.057736
-0.220113
0.0484317
-0.228694
0.0371328
-0.233965
0.0238947
-0.23548
0.00888415
-0.23289
-0.00761509
-0.226028
-0.0250591
-0.214925
-0.0426914
-0.199756
-0.0598142
-0.180829
-0.0757871
-0.158575
-0.0900234
-0.13355
-0.102017
-0.106403
-0.111399
-0.0778056
-0.118055
-0.0483637
-0.122228
-0.0185361
-0.124606
0.0109179
-0.125597
0.0400177
-0.127145
-0.13439
-0.016555
0.0808548
-0.033667
0.085921
-0.0508734
0.0893873
-0.0682159
0.0923331
-0.0856748
0.0944378
-0.103207
0.0955745
-0.120702
0.0955696
-0.137976
0.0942267
-0.154766
0.0913219
-0.170737
0.0866098
-0.18548
0.0798395
-0.198523
0.0707795
-0.209342
0.0592517
-0.21739
0.0451812
-0.222143
0.028648
-0.223163
0.00990457
-0.220127
-0.0106504
-0.212941
-0.0322452
-0.201703
-0.0539298
-0.186623
-0.074894
-0.168012
-0.0943975
-0.146291
-0.111744
-0.121993
-0.126314
-0.0957588
-0.137632
-0.068259
-0.145554
-0.0401213
-0.150364
-0.0119153
-0.152809
0.0155675
-0.153077
0.0422054
-0.153778
-0.159072
-0.0154986
0.0963535
-0.0312709
0.101693
-0.0471683
0.105285
-0.0631934
0.108358
-0.0793438
0.110588
-0.0955933
0.111824
-0.111853
0.111829
-0.127959
0.110333
-0.143668
0.107031
-0.158655
0.101597
-0.172517
0.0937016
-0.184776
0.0830397
-0.194897
0.0693724
-0.202306
0.0525902
-0.206456
0.0327989
-0.20692
0.0103686
-0.203417
-0.0141535
-0.195948
-0.0397138
-0.184692
-0.0651866
-0.169884
-0.0897022
-0.151819
-0.112462
-0.130889
-0.132674
-0.107589
-0.149614
-0.082548
-0.162673
-0.0564268
-0.171674
-0.0298748
-0.176914
-0.00362208
-0.179059
0.0216713
-0.178367
0.0457797
-0.177883
-0.18083
-0.0139134
0.110267
-0.0280625
0.115842
-0.0422878
0.11951
-0.0566292
0.122699
-0.0711238
0.125083
-0.0857691
0.126469
-0.100493
0.126553
-0.115148
0.124989
-0.129509
0.121392
-0.143267
0.115355
-0.15603
0.106465
-0.167323
0.094333
-0.176598
0.0786474
-0.183258
0.0592508
-0.186727
0.0362681
-0.186585
0.0102257
-0.182611
-0.0181271
-0.174943
-0.0473821
-0.163841
-0.0762897
-0.149543
-0.104001
-0.132301
-0.129704
-0.112455
-0.15252
-0.0904524
-0.171617
-0.0669027
-0.186222
-0.0424453
-0.19613
-0.0177202
-0.201638
0.00626896
-0.203046
0.0291533
-0.201249
0.0508044
-0.19953
-0.199865
-0.0119622
0.122229
-0.0241729
0.128053
-0.0363476
0.131685
-0.048631
0.134983
-0.0611101
0.137562
-0.0738052
0.139165
-0.0866594
0.139408
-0.0995449
0.137874
-0.112258
0.134106
-0.124515
0.127613
-0.135943
0.117892
-0.146073
0.104464
-0.154352
0.0869262
-0.16016
0.0650592
-0.162886
0.0389937
-0.162103
0.00944177
-0.157679
-0.0225512
-0.149939
-0.0551228
-0.139216
-0.0870137
-0.125712
-0.117506
-0.109597
-0.14582
-0.091148
-0.170969
-0.0707533
-0.192012
-0.0489963
-0.207979
-0.026494
-0.218632
-0.003983
-0.224147
0.0176415
-0.224669
0.0381292
-0.221733
0.0572977
-0.218695
-0.216344
-0.00978472
0.132014
-0.0196593
0.137928
-0.0294074
0.141433
-0.03928
0.144855
-0.0493972
0.147679
-0.0597958
0.149563
-0.0704368
0.150049
-0.0812181
0.148656
-0.0919681
0.144856
-0.102435
0.13808
-0.112275
0.127733
-0.121039
0.113227
-0.128166
0.0940535
-0.133016
0.0699084
-0.13495
0.0409271
-0.133519
0.00801001
-0.128712
-0.0273596
-0.121085
-0.0627504
-0.111022
-0.0970786
-0.0986299
-0.129899
-0.083953
-0.160498
-0.0672061
-0.187717
-0.0487224
-0.210496
-0.0290314
-0.22767
-0.00871244
-0.23895
0.0112009
-0.244059
0.030285
-0.243751
0.0485032
-0.239949
0.0652067
-0.235394
-0.230404
-0.00718713
0.139201
-0.0144633
0.145204
-0.0215001
0.14847
-0.028669
0.152025
-0.0361106
0.155121
-0.0438855
0.157338
-0.051983
0.158147
-0.0603344
0.157007
-0.0688061
0.153328
-0.0771878
0.146462
-0.0851766
0.135721
-0.0923576
0.120408
-0.0981814
0.0998769
-0.101981
0.0737068
-0.103112
0.0420577
-0.101043
0.00593973
-0.0959654
-0.0324391
-0.0887103
-0.0700071
-0.0796269
-0.106164
-0.0686806
-0.140847
-0.0557322
-0.173448
-0.0409593
-0.202491
-0.0246527
-0.226803
-0.00723577
-0.245087
0.010396
-0.256582
0.0276102
-0.261273
0.0443328
-0.260471
0.0601771
-0.25579
0.0744232
-0.249637
-0.24215
-0.00452251
0.143723
-0.00864267
0.149324
-0.0127375
0.152565
-0.0169314
0.156219
-0.0214105
0.159601
-0.026277
0.162205
-0.0315514
0.163421
-0.0371936
0.16265
-0.0431028
0.159237
-0.0491113
0.15247
-0.0549691
0.141579
-0.0603202
0.125758
-0.0646692
0.104225
-0.0673347
0.076371
-0.0676321
0.0423536
-0.0649802
0.00328603
-0.0599159
-0.0375055
-0.0533847
-0.0765404
-0.0455988
-0.113952
-0.0363832
-0.150065
-0.025422
-0.184411
-0.0128347
-0.21508
0.00112965
-0.240769
0.0157963
-0.259755
0.03059
-0.271375
0.0453372
-0.276019
0.0596313
-0.274764
0.0730043
-0.269161
0.0847935
-0.261422
-0.251664
-0.0013608
0.145084
-0.00241122
0.150375
-0.00322592
0.15338
-0.00415447
0.157147
-0.00545892
0.160905
-0.00723937
0.163986
-0.0095238
0.165706
-0.0122783
0.165404
-0.0154173
0.162376
-0.0188049
0.155858
-0.0222474
0.145021
-0.0254696
0.12898
-0.0280996
0.106854
-0.0295892
0.0778588
-0.0289515
0.0417139
-0.0258432
0.000175316
-0.0213397
-0.0420115
-0.0159699
-0.0819129
-0.00975814
-0.120166
-0.00236649
-0.157459
0.00643722
-0.193217
0.0166175
-0.225262
0.0278362
-0.251989
0.0397614
-0.271681
0.0520324
-0.283647
0.0642381
-0.288224
0.0759665
-0.286491
0.0867907
-0.279982
0.0961248
-0.270753
-0.259004
0.00425224
0.140832
0.00531827
0.149309
0.00757065
0.151127
0.00976695
0.154951
0.0115373
0.159135
0.0127794
0.162744
0.0134604
0.165025
0.0136146
0.16525
0.013322
0.162668
0.0127018
0.156477
0.0119065
0.145815
0.0111301
0.129755
0.010637
0.107345
0.0109621
0.0775314
0.0128351
0.0398383
0.0157874
-0.00278001
0.0190222
-0.0452494
0.0227248
-0.0856189
0.027076
-0.124521
0.0323868
-0.162773
0.0388415
-0.199675
0.0466266
-0.23305
0.0553973
-0.260762
0.0647994
-0.281084
0.0744625
-0.29331
0.0840095
-0.297771
0.0930769
-0.295557
0.101303
-0.288206
0.108193
-0.27764
-0.264224
0.0129293
0.127903
0.0158764
0.146362
0.0200104
0.146994
0.0246839
0.150278
0.0291817
0.154638
0.0332096
0.158717
0.0366822
0.161553
0.0396174
0.162315
0.0420877
0.160197
0.0441975
0.154367
0.0460724
0.143939
0.0478657
0.127959
0.0498457
0.105362
0.0523696
0.0750046
0.0551425
0.0370621
0.0574122
-0.00505335
0.0592416
-0.0470827
0.0611142
-0.0874954
0.0635519
-0.126962
0.0669483
-0.166173
0.0714716
-0.204202
0.0771142
-0.238695
0.0835619
-0.267212
0.0904608
-0.287985
0.0974776
-0.300328
0.104307
-0.3046
0.110666
-0.301915
0.116278
-0.293816
0.120754
-0.282113
-0.267379
-0.00342004
0.131323
0.0164632
0.126479
0.028801
0.134656
0.0382816
0.140798
0.046225
0.146695
0.0531872
0.151754
0.0593913
0.155348
0.0649723
0.156733
0.0700531
0.155116
0.0747518
0.149666
0.079186
0.139503
0.0834752
0.123668
0.0877397
0.101095
0.0918348
0.0709059
0.0950896
0.0338033
0.0969657
-0.00693382
0.0976732
-0.0477946
0.0980422
-0.087869
0.0989258
-0.12785
0.100808
-0.168059
0.103742
-0.20714
0.107529
-0.242485
0.111818
-0.271504
0.116283
-0.292452
0.120667
-0.304713
0.124771
-0.308703
0.128419
-0.305562
0.13144
-0.296835
0.133554
-0.284222
-0.268534
0.207795
-0.00100234
0.207657
0.00597418
0.207267
0.0124849
0.206652
0.0185659
0.20583
0.0243641
0.204814
0.0299822
0.203618
0.0354942
0.202252
0.0409624
0.200727
0.0464398
0.199054
0.0519731
0.197241
0.0576042
0.195297
0.0633716
0.193232
0.0693114
0.191053
0.0754588
0.188769
0.0818485
0.186389
0.0885166
0.183921
0.0955017
0.181374
0.102846
0.178759
0.110597
0.176088
0.118819
0.173382
0.127578
0.170672
0.13695
0.168002
0.147051
0.165431
0.158036
0.163043
0.170151
0.160973
0.183836
0.159558
0.199944
0.160592
0.220096
0.174605
0.243893
0.262155
0.227588
0.212826
-0.00114892
0.21272
0.00607608
0.212386
0.0128142
0.21185
0.019098
0.21113
0.0250803
0.210242
0.0308678
0.209197
0.0365357
0.20801
0.0421465
0.206693
0.0477539
0.205259
0.0534045
0.203721
0.0591404
0.20209
0.0649998
0.20038
0.0710184
0.198605
0.0772305
0.196781
0.08367
0.194923
0.0903713
0.19305
0.0973709
0.191185
0.104708
0.189351
0.112427
0.187587
0.120579
0.185937
0.129223
0.184453
0.138429
0.183202
0.148296
0.18227
0.158964
0.181775
0.170641
0.18197
0.183637
0.183601
0.198309
0.188729
0.214966
0.199394
0.233226
0.254548
0.207
0.217976
-0.00130072
0.217902
0.00614568
0.21763
0.0130824
0.217179
0.0195445
0.216568
0.0256876
0.215815
0.0316177
0.214935
0.0374136
0.21394
0.0431386
0.212846
0.0488451
0.211668
0.0545798
0.210422
0.0603842
0.209124
0.0662955
0.207791
0.0723483
0.206444
0.0785749
0.205103
0.0850072
0.203795
0.0916765
0.202547
0.0986153
0.201394
0.105858
0.200376
0.113441
0.199544
0.121407
0.198961
0.129801
0.198704
0.13868
0.198874
0.148121
0.199609
0.158223
0.201129
0.169116
0.203802
0.18096
0.208199
0.193907
0.215013
0.208149
0.223964
0.224272
0.243923
0.234586
0.223249
-0.00145713
0.22321
0.00618058
0.223002
0.0132862
0.222644
0.0198986
0.222152
0.0261763
0.221544
0.0322224
0.220838
0.0381166
0.22005
0.0439248
0.219194
0.0496986
0.218288
0.0554828
0.217352
0.0613184
0.216404
0.0672406
0.215468
0.0732821
0.214567
0.0794727
0.21373
0.0858409
0.212989
0.0924141
0.212381
0.0992195
0.21195
0.106285
0.211749
0.113638
0.211842
0.12131
0.212304
0.129334
0.213233
0.137746
0.214752
0.146596
0.217025
0.155944
0.220278
0.165857
0.224812
0.17642
0.230989
0.187726
0.239283
0.199851
0.250403
0.213149
0.227869
0.266456
0.22865
-0.0016177
0.228648
0.00617852
0.228506
0.0134233
0.228245
0.0201561
0.22788
0.0265378
0.227428
0.0326717
0.226907
0.0386357
0.226334
0.0444949
0.225728
0.0503018
0.225108
0.0561003
0.224495
0.0619293
0.223912
0.0678214
0.223385
0.0738066
0.222943
0.0799118
0.222619
0.0861614
0.222452
0.0925779
0.222485
0.0991826
0.22277
0.105996
0.223367
0.113036
0.224349
0.120324
0.225802
0.127876
0.227829
0.135712
0.230562
0.143857
0.234165
0.152334
0.238849
0.161166
0.244887
0.170376
0.252638
0.179969
0.26261
0.189874
0.275599
0.200155
0.210861
0.292604
0.23418
-0.00178167
0.234216
0.00613859
0.234144
0.0134905
0.233984
0.0203126
0.233752
0.0267669
0.233464
0.0329572
0.233136
0.038961
0.232789
0.0448403
0.232442
0.0506466
0.232117
0.056423
0.231837
0.0622072
0.231626
0.0680292
0.231516
0.0739147
0.231537
0.0798877
0.231727
0.0859678
0.232129
0.0921727
0.23279
0.0985171
0.233768
0.105014
0.235126
0.111673
0.236942
0.118502
0.239305
0.125507
0.24232
0.13269
0.246116
0.140054
0.25085
0.147592
0.256719
0.15529
0.263973
0.163115
0.272922
0.171013
0.283928
0.178862
0.297487
0.186591
0.194196
0.314147
0.239843
-0.00194804
0.239917
0.00606012
0.239918
0.0134854
0.239863
0.0203643
0.239767
0.0268595
0.239648
0.033074
0.239522
0.0390849
0.239408
0.0449526
0.239327
0.0507266
0.239301
0.0564467
0.239358
0.0621482
0.239525
0.0678602
0.239831
0.0736056
0.240312
0.0794033
0.241008
0.0852684
0.241964
0.0912135
0.243229
0.0972472
0.244863
0.103375
0.246932
0.109599
0.249511
0.115918
0.252688
0.122323
0.256566
0.128805
0.261264
0.135348
0.266925
0.141924
0.273717
0.14849
0.281839
0.154986
0.291518
0.161328
0.302986
0.167386
0.316552
0.17302
0.178165
0.332578
0.245642
-0.00211511
0.245754
0.00594301
0.245829
0.013406
0.245882
0.0203082
0.245926
0.0268119
0.245979
0.0330187
0.246058
0.0390042
0.246182
0.0448275
0.246372
0.0505361
0.24665
0.0561676
0.247044
0.061753
0.247583
0.0673186
0.248301
0.0728854
0.249232
0.0784686
0.250418
0.0840792
0.251903
0.0897247
0.253738
0.0954075
0.255981
0.101127
0.258696
0.106878
0.261957
0.112651
0.265844
0.118429
0.270451
0.124191
0.275883
0.129908
0.28226
0.135539
0.289716
0.141027
0.298394
0.1463
0.308451
0.151264
0.320037
0.155792
0.333323
0.159727
0.162985
0.348496
0.251578
-0.00228071
0.251728
0.00578787
0.251878
0.0132518
0.25204
0.0201428
0.252227
0.0266218
0.252455
0.0327887
0.252741
0.0387172
0.253103
0.0444643
0.253563
0.0500751
0.254145
0.0555855
0.254874
0.0610235
0.25578
0.0664119
0.256896
0.0717677
0.258259
0.0771025
0.25991
0.0824245
0.261892
0.0877381
0.264254
0.0930404
0.267051
0.0983244
0.270343
0.10358
0.274197
0.108791
0.278684
0.113934
0.283885
0.118981
0.289888
0.123896
0.296786
0.128632
0.304677
0.133127
0.313663
0.137305
0.323842
0.141077
0.335298
0.144328
0.348097
0.14692
0.148774
0.362301
0.257655
-0.00244241
0.257842
0.0055959
0.258067
0.013023
0.258338
0.0198677
0.258669
0.0262888
0.259072
0.0323838
0.259563
0.038224
0.260163
0.0438644
0.26089
0.0493474
0.261769
0.0547064
0.262825
0.0599671
0.264088
0.0651496
0.265587
0.0702673
0.267359
0.0753288
0.269443
0.0803372
0.271883
0.0852939
0.274724
0.0901947
0.278014
0.0950285
0.281808
0.0997803
0.286162
0.10443
0.29114
0.108949
0.296806
0.113306
0.303229
0.117465
0.310476
0.121376
0.318616
0.124977
0.327712
0.128201
0.337815
0.130965
0.348959
0.133176
0.361144
0.134727
0.135548
0.374362
0.263877
-0.00259761
0.264099
0.00536891
0.264397
0.0127209
0.264777
0.0194839
0.265249
0.025814
0.265826
0.0318056
0.266521
0.0375275
0.267353
0.0430319
0.268341
0.0483591
0.269508
0.0535397
0.270878
0.0585971
0.27248
0.0635483
0.274343
0.0684044
0.276499
0.0731719
0.278983
0.0778509
0.281836
0.0824378
0.2851
0.0869262
0.288818
0.0913043
0.293037
0.095555
0.297803
0.099656
0.303166
0.103577
0.309177
0.107286
0.315884
0.110749
0.323335
0.113916
0.33157
0.116733
0.340621
0.11914
0.350506
0.121071
0.36122
0.122453
0.37273
0.123208
0.12328
0.384989
0.270247
-0.00274353
0.270501
0.00510927
0.27087
0.0123476
0.271357
0.0189939
0.271968
0.0252002
0.272714
0.0310578
0.273608
0.0366324
0.274666
0.0419737
0.275906
0.0471193
0.277349
0.0520974
0.279017
0.056929
0.280937
0.0616287
0.283136
0.0662055
0.285644
0.0706633
0.288493
0.0750012
0.291716
0.0792136
0.295347
0.083291
0.299427
0.0872202
0.303992
0.090983
0.309083
0.0945584
0.314734
0.0979174
0.320982
0.10103
0.327859
0.103863
0.33539
0.106374
0.343598
0.108516
0.352488
0.11024
0.362056
0.111494
0.372273
0.112226
0.383088
0.112383
0.11192
0.394439
0.276768
-0.00287727
0.277052
0.00481991
0.277489
0.0119062
0.278078
0.0184011
0.278824
0.024452
0.279734
0.0301461
0.280819
0.0355462
0.282094
0.0406991
0.283574
0.0456399
0.285277
0.0503945
0.287225
0.0549817
0.289441
0.0594142
0.291948
0.063699
0.294772
0.0678385
0.297943
0.0718303
0.301487
0.0756679
0.305434
0.0793418
0.309814
0.0828377
0.314654
0.0861374
0.319986
0.0892203
0.325836
0.0920598
0.332226
0.0946316
0.339173
0.096908
0.346687
0.0988507
0.354772
0.100422
0.363419
0.101583
0.372606
0.102298
0.382292
0.10253
0.392419
0.102246
0.101412
0.402917
0.283444
-0.00299577
0.283754
0.00450429
0.284255
0.0114009
0.284942
0.0177105
0.285816
0.0235751
0.286883
0.0290778
0.288151
0.034278
0.28963
0.0392195
0.291336
0.0439351
0.293283
0.0484485
0.295489
0.0527766
0.297974
0.0569303
0.300759
0.0609154
0.303865
0.0647331
0.307314
0.0683803
0.311131
0.0718505
0.315338
0.0751336
0.319956
0.0782163
0.325007
0.0810828
0.330509
0.0837136
0.336479
0.0860834
0.34293
0.088174
0.349865
0.0899648
0.357284
0.0914233
0.365177
0.0925198
0.373523
0.0932273
0.382291
0.0935201
0.391435
0.093376
0.400895
0.0927763
0.091695
0.410601
0.290279
-0.00309591
0.290611
0.00416632
0.29117
0.0108365
0.291949
0.016928
0.292945
0.0225769
0.29416
0.0278619
0.295599
0.0328386
0.29727
0.0375482
0.299185
0.0420209
0.301357
0.0462786
0.303798
0.0503365
0.306526
0.0542041
0.309556
0.0578863
0.312907
0.0613836
0.316595
0.0646929
0.320637
0.0678077
0.32505
0.070719
0.32985
0.0734147
0.335048
0.0758811
0.340658
0.0781001
0.346684
0.0800519
0.353128
0.081724
0.359987
0.083099
0.367251
0.0841517
0.374901
0.0848612
0.382911
0.0852092
0.391242
0.0851798
0.399848
0.084761
0.40867
0.0839449
0.0827111
0.417644
0.297277
-0.00317447
0.297626
0.00381035
0.298239
0.0102184
0.299103
0.0160605
0.300211
0.0214658
0.301563
0.0265085
0.303161
0.0312405
0.30501
0.0357001
0.307117
0.0399151
0.309492
0.0439057
0.312145
0.0476856
0.315087
0.0512634
0.318332
0.0546434
0.321891
0.0578259
0.325777
0.060808
0.330001
0.063584
0.334574
0.066146
0.339503
0.0684839
0.344796
0.0705863
0.350456
0.0724368
0.356482
0.0740224
0.362866
0.0753353
0.369599
0.0763601
0.376665
0.0770792
0.38404
0.0774793
0.391692
0.0775494
0.399582
0.0772812
0.407664
0.0766703
0.415884
0.0757161
0.0744025
0.424184
0.30444
-0.0032282
0.304803
0.00344105
0.305463
0.00955275
0.306404
0.0151156
0.307616
0.0202512
0.309094
0.025029
0.310838
0.0294971
0.312848
0.0336908
0.315129
0.0376359
0.317686
0.0413509
0.320526
0.0448484
0.323655
0.0481361
0.327083
0.051218
0.330817
0.0540946
0.334863
0.0567635
0.339228
0.0592202
0.343916
0.0614581
0.34893
0.0634693
0.35427
0.0652449
0.359934
0.0667715
0.365913
0.0680408
0.372196
0.0690489
0.378768
0.069784
0.385607
0.0702346
0.392687
0.0703935
0.399974
0.0702555
0.40743
0.069818
0.415011
0.0690818
0.422668
0.0680513
0.0667137
0.430349
0.311775
-0.0032538
0.312145
0.00306335
0.312846
0.00884622
0.313856
0.0141015
0.315162
0.0189432
0.316754
0.0234354
0.318629
0.0276224
0.320784
0.0315369
0.32322
0.0352024
0.325938
0.0386358
0.32894
0.0418489
0.33223
0.044849
0.335812
0.0476397
0.339687
0.0502219
0.343859
0.0525941
0.348328
0.054753
0.353094
0.0566936
0.358154
0.0584101
0.363502
0.0598961
0.369131
0.0611414
0.37503
0.0621412
0.381181
0.0628952
0.387567
0.0633956
0.394162
0.0636356
0.400939
0.0636123
0.407864
0.0633249
0.414902
0.0627752
0.42201
0.0619676
0.429145
0.0609095
0.0595906
0.436262
0.319284
-0.00324798
0.319657
0.00268238
0.320391
0.00810565
0.321462
0.013027
0.322851
0.0175521
0.324545
0.0217399
0.326537
0.0256309
0.328821
0.0292548
0.331393
0.0326331
0.33425
0.0357815
0.337392
0.0387106
0.340817
0.0414275
0.344524
0.043936
0.348513
0.0462373
0.352779
0.0483309
0.35732
0.0502145
0.362131
0.051885
0.367205
0.0533386
0.372531
0.0545711
0.378097
0.0555752
0.38389
0.056349
0.389889
0.0568955
0.396073
0.0572101
0.402417
0.0572895
0.408892
0.0571343
0.415467
0.0567469
0.422106
0.0561319
0.428774
0.055296
0.43543
0.0542483
0.0529804
0.442035
0.326972
-0.00320744
0.327343
0.00230331
0.328104
0.00733807
0.329226
0.0119008
0.330687
0.0160887
0.332471
0.0199552
0.334566
0.0235369
0.336962
0.0268607
0.339651
0.0299463
0.342629
0.0328078
0.345888
0.0354553
0.349425
0.0378953
0.353233
0.040132
0.357308
0.042167
0.361643
0.0440005
0.366229
0.0456317
0.371059
0.0470589
0.37612
0.0482802
0.3814
0.0492934
0.386884
0.0500935
0.392553
0.0506811
0.398388
0.0510617
0.404366
0.0512334
0.410459
0.0511954
0.416642
0.0509508
0.422883
0.0505042
0.429151
0.0498619
0.435412
0.0490319
0.441634
0.0480242
0.0468315
0.447779
0.334844
-0.0031289
0.335207
0.0019313
0.335988
0.00655049
0.337152
0.0107318
0.338675
0.0145635
0.340537
0.0180935
0.34272
0.0213544
0.345213
0.0243704
0.348003
0.0271592
0.351082
0.0297336
0.354439
0.0321029
0.358066
0.0342735
0.361954
0.0362495
0.366093
0.0380331
0.370473
0.0396254
0.375084
0.0410266
0.379911
0.0422362
0.384941
0.0432539
0.390159
0.0440794
0.395547
0.0447094
0.401085
0.0451465
0.406752
0.0453978
0.412524
0.0454637
0.418376
0.0453451
0.424281
0.0450467
0.430211
0.0445743
0.436138
0.0439353
0.442031
0.0431382
0.447861
0.0421929
0.0410933
0.453598
0.342904
-0.00300912
0.343254
0.00157136