/*--------------------------------*- C++ -*----------------------------------*\
| =========                 |                                                 |
| \\      /  F ield         | OpenFOAM: The Open Source CFD Toolbox           |
|  \\    /   O peration     | Version:  dev                                   |
|   \\  /    A nd           | Web:      www.OpenFOAM.org                      |
|    \\/     M anipulation  |                                                 |
\*---------------------------------------------------------------------------*/
FoamFile
{
    version     2.0;
    format      ascii;
    class       pointVectorField;
    location    "4.65";
    object      pointDisplacement;
}
// * * * * * * * * * * * * * * * * * * * * * * * * * * * * * * * * * * * * * //

dimensions      [0 1 0 0 0 0 0];

internalField   nonuniform List<vector> 
1062
(
(0.0512494 0 0)
(0.0455235 0 0)
(0.039505 0 0)
(0.0332881 0 0)
(0.0269945 0 0)
(0.0207905 0 0)
(0.0149215 0 0)
(0.00976269 0 0)
(0.0060295 0 0)
(0 0 0)
(0.0519282 0 0.000284123)
(0.0463089 0 0.000446618)
(0.0404158 0 0.000645002)
(0.0343474 0 0.000885884)
(0.0282307 0 0.00117712)
(0.0222376 0 0.00152793)
(0.0166326 0 0.00194818)
(0.0118258 0 0.00243645)
(0.00854709 0 0.00294055)
(0.00394913 0 0.00380912)
(0.0539377 0 0.000526039)
(0.0486316 0 0.000838323)
(0.0431063 0 0.00121783)
(0.0374748 0 0.00167545)
(0.0318814 0 0.00222287)
(0.0265104 0 0.0028723)
(0.0216427 0 0.00363117)
(0.0177546 0 0.00447877)
(0.0155963 0 0.00529682)
(0.0122669 0 0.00654055)
(0.0572335 0 0.000684047)
(0.052431 0 0.0011206)
(0.0474929 0 0.00164707)
(0.0425527 0 0.00227493)
(0.0377817 0 0.00301397)
(0.0333902 0 0.0038696)
(0.0296491 0 0.00483306)
(0.0270274 0 0.00585102)
(0.0262593 0 0.00674482)
(0.0243987 0 0.00800538)
(0.0617624 0 0.00072255)
(0.0576421 0 0.0012481)
(0.0534804 0 0.00187517)
(0.0494358 0 0.00261157)
(0.0457084 0 0.00345922)
(0.0425343 0 0.00440825)
(0.0401828 0 0.0054269)
(0.0390282 0 0.00643093)
(0.039697 0 0.00720873)
(0.0391906 0 0.00826519)
(0.0674268 0 0.000615181)
(0.0641566 0 0.00118775)
(0.0609477 0 0.00186156)
(0.0579674 0 0.00263824)
(0.0554389 0 0.00350709)
(0.0536117 0 0.00443951)
(0.0527416 0 0.00538099)
(0.0531026 0 0.00622896)
(0.0551262 0 0.00677491)
(0.0557621 0 0.00754217)
(0.0740964 0 0.000343645)
(0.0718063 0 0.000919271)
(0.0697008 0 0.00158413)
(0.0679301 0 0.00233276)
(0.0667124 0 0.00314207)
(0.0662974 0 0.00396545)
(0.0668955 0 0.00473184)
(0.0686856 0 0.00533589)
(0.0718801 0 0.00560149)
(0.0734197 0 0.00606584)
(0.0816452 0 -0.000102205)
(0.0804268 0 0.000434204)
(0.0795197 0 0.00103883)
(0.0790631 0 0.00169792)
(0.0792324 0 0.00237995)
(0.0802378 0 0.0030265)
(0.0822366 0 0.00355837)
(0.0852963 0 0.00388072)
(0.0894185 0 0.00386748)
(0.0916264 0 0.00404265)
(0.0899187 0 -0.000722372)
(0.0898396 0 -0.00026422)
(0.0901839 0 0.000236276)
(0.0910857 0 0.00075725)
(0.0926672 0 0.00126207)
(0.0950651 0 0.0016895)
(0.0983609 0 0.00196272)
(0.102503 0 0.00200656)
(0.107312 0 0.00175043)
(0.109977 0 0.00168674)
(0.0987274 0 -0.00150693)
(0.0998227 0 -0.00116046)
(0.101438 0 -0.00079931)
(0.10369 0 -0.000450381)
(0.106662 0 -0.000153062)
(0.110406 0 3.66817e-05)
(0.114887 0 5.58602e-05)
(0.119938 0 -0.000146237)
(0.125235 0 -0.000590347)
(0.128187 0 -0.000833589)
(0.107861 0 -0.0024376)
(0.110128 0 -0.00222909)
(0.112995 0 -0.00203286)
(0.116553 0 -0.00187681)
(0.120864 0 -0.00179984)
(0.125888 0 -0.00184613)
(0.131456 0 -0.00205596)
(0.13729 0 -0.00245408)
(0.142947 0 -0.00302491)
(0.146089 0 -0.00338744)
(0.117093 0 -0.00348891)
(0.120485 0 -0.0034365)
(0.124543 0 -0.00342125)
(0.12934 0 -0.00346909)
(0.134906 0 -0.00361279)
(0.14112 0 -0.00387944)
(0.147704 0 -0.00428294)
(0.154274 0 -0.00482159)
(0.160267 0 -0.00546011)
(0.163629 0 -0.00587571)
(0.126184 0 -0.00462925)
(0.130612 0 -0.00474273)
(0.135755 0 -0.00491553)
(0.141677 0 -0.00517037)
(0.148371 0 -0.00552823)
(0.155659 0 -0.00599627)
(0.163214 0 -0.00656169)
(0.170562 0 -0.00719326)
(0.176994 0 -0.00784945)
(0.180854 0 -0.00825237)
(0.134898 0 -0.00582267)
(0.140223 0 -0.00610322)
(0.146288 0 -0.00646227)
(0.153151 0 -0.00691913)
(0.160774 0 -0.00748328)
(0.16897 0 -0.00814365)
(0.17742 0 -0.00886121)
(0.185621 0 -0.00956717)
(0.192715 0 -0.0102092)
(0.197874 0 -0.0105152)
(0.143018 0 -0.00703108)
(0.149054 0 -0.0074709)
(0.15582 0 -0.00800539)
(0.163357 0 -0.00865162)
(0.171617 0 -0.00941368)
(0.180423 0 -0.0102725)
(0.189502 0 -0.0111751)
(0.198428 0 -0.0120109)
(0.206352 0 -0.0126578)
(0.214776 0 -0.0126938)
(0.15042 0 -0.00822686)
(0.156952 0 -0.00881044)
(0.164153 0 -0.00950089)
(0.172039 0 -0.0103151)
(0.180535 0 -0.0112584)
(0.189454 0 -0.0123228)
(0.198541 0 -0.0134923)
(0.207402 0 -0.0147423)
(0.215423 0 -0.0161402)
(0.231703 0 -0.0148677)
(0.0512494 0 0)
(0.0455235 0 0)
(0.039505 0 0)
(0.0332881 0 0)
(0.0269945 0 0)
(0.0207905 0 0)
(0.0149215 0 0)
(0.00976269 0 0)
(0.0060295 0 0)
(0 0 0)
(0.0519282 0 0.000284123)
(0.0463089 0 0.000446618)
(0.0404158 0 0.000645002)
(0.0343474 0 0.000885884)
(0.0282307 0 0.00117712)
(0.0222376 0 0.00152793)
(0.0166326 0 0.00194818)
(0.0118258 0 0.00243645)
(0.00854709 0 0.00294055)
(0.00394913 0 0.00380912)
(0.0539377 0 0.000526039)
(0.0486316 0 0.000838323)
(0.0431063 0 0.00121783)
(0.0374748 0 0.00167545)
(0.0318814 0 0.00222287)
(0.0265104 0 0.0028723)
(0.0216427 0 0.00363117)
(0.0177546 0 0.00447877)
(0.0155963 0 0.00529682)
(0.0122669 0 0.00654055)
(0.0572335 0 0.000684047)
(0.052431 0 0.0011206)
(0.0474929 0 0.00164707)
(0.0425527 0 0.00227493)
(0.0377817 0 0.00301397)
(0.0333902 0 0.0038696)
(0.0296491 0 0.00483306)
(0.0270274 0 0.00585102)
(0.0262593 0 0.00674482)
(0.0243987 0 0.00800538)
(0.0617624 0 0.00072255)
(0.0576421 0 0.0012481)
(0.0534804 0 0.00187517)
(0.0494358 0 0.00261157)
(0.0457084 0 0.00345922)
(0.0425343 0 0.00440825)
(0.0401828 0 0.0054269)
(0.0390282 0 0.00643093)
(0.039697 0 0.00720873)
(0.0391906 0 0.00826519)
(0.0674268 0 0.000615181)
(0.0641566 0 0.00118775)
(0.0609477 0 0.00186156)
(0.0579674 0 0.00263824)
(0.0554389 0 0.00350709)
(0.0536117 0 0.00443951)
(0.0527416 0 0.00538099)
(0.0531026 0 0.00622896)
(0.0551262 0 0.00677491)
(0.0557621 0 0.00754217)
(0.0740964 0 0.000343645)
(0.0718063 0 0.000919271)
(0.0697008 0 0.00158413)
(0.0679301 0 0.00233276)
(0.0667124 0 0.00314207)
(0.0662974 0 0.00396545)
(0.0668955 0 0.00473184)
(0.0686856 0 0.00533589)
(0.0718801 0 0.00560149)
(0.0734197 0 0.00606584)
(0.0816452 0 -0.000102205)
(0.0804268 0 0.000434204)
(0.0795197 0 0.00103883)
(0.0790631 0 0.00169792)
(0.0792324 0 0.00237995)
(0.0802378 0 0.0030265)
(0.0822366 0 0.00355837)
(0.0852963 0 0.00388072)
(0.0894185 0 0.00386748)
(0.0916264 0 0.00404265)
(0.0899187 0 -0.000722372)
(0.0898396 0 -0.00026422)
(0.0901839 0 0.000236276)
(0.0910857 0 0.00075725)
(0.0926672 0 0.00126207)
(0.0950651 0 0.0016895)
(0.0983609 0 0.00196272)
(0.102503 0 0.00200656)
(0.107312 0 0.00175043)
(0.109977 0 0.00168674)
(0.0987274 0 -0.00150693)
(0.0998227 0 -0.00116046)
(0.101438 0 -0.00079931)
(0.10369 0 -0.000450381)
(0.106662 0 -0.000153062)
(0.110406 0 3.66817e-05)
(0.114887 0 5.58602e-05)
(0.119938 0 -0.000146237)
(0.125235 0 -0.000590347)
(0.128187 0 -0.000833589)
(0.107861 0 -0.0024376)
(0.110128 0 -0.00222909)
(0.112995 0 -0.00203286)
(0.116553 0 -0.00187681)
(0.120864 0 -0.00179984)
(0.125888 0 -0.00184613)
(0.131456 0 -0.00205596)
(0.13729 0 -0.00245408)
(0.142947 0 -0.00302491)
(0.146089 0 -0.00338744)
(0.117093 0 -0.00348891)
(0.120485 0 -0.0034365)
(0.124543 0 -0.00342125)
(0.12934 0 -0.00346909)
(0.134906 0 -0.00361279)
(0.14112 0 -0.00387944)
(0.147704 0 -0.00428294)
(0.154274 0 -0.00482159)
(0.160267 0 -0.00546011)
(0.163629 0 -0.00587571)
(0.126184 0 -0.00462925)
(0.130612 0 -0.00474273)
(0.135755 0 -0.00491553)
(0.141677 0 -0.00517037)
(0.148371 0 -0.00552823)
(0.155659 0 -0.00599627)
(0.163214 0 -0.00656169)
(0.170562 0 -0.00719326)
(0.176994 0 -0.00784945)
(0.180854 0 -0.00825237)
(0.134898 0 -0.00582267)
(0.140223 0 -0.00610322)
(0.146288 0 -0.00646227)
(0.153151 0 -0.00691913)
(0.160774 0 -0.00748328)
(0.16897 0 -0.00814365)
(0.17742 0 -0.00886121)
(0.185621 0 -0.00956717)
(0.192715 0 -0.0102092)
(0.197874 0 -0.0105152)
(0.143018 0 -0.00703108)
(0.149054 0 -0.0074709)
(0.15582 0 -0.00800539)
(0.163357 0 -0.00865162)
(0.171617 0 -0.00941368)
(0.180423 0 -0.0102725)
(0.189502 0 -0.0111751)
(0.198428 0 -0.0120109)
(0.206352 0 -0.0126578)
(0.214776 0 -0.0126938)
(0.15042 0 -0.00822686)
(0.156952 0 -0.00881044)
(0.164153 0 -0.00950089)
(0.172039 0 -0.0103151)
(0.180535 0 -0.0112584)
(0.189454 0 -0.0123228)
(0.198541 0 -0.0134923)
(0.207402 0 -0.0147423)
(0.215423 0 -0.0161402)
(0.231703 0 -0.0148677)
(0 0 0)
(0.00819098 0 0)
(0.0152571 0 0)
(0.0255561 0 0)
(0.037785 0 0)
(0.0507372 0 0)
(0.063534 0 0)
(0.075576 0 0)
(0.0864724 0 0)
(0.0960125 0 0)
(0.104146 0 0)
(0.00350021 0 -0.00407466)
(0.0106167 0 -0.00391373)
(0.0176416 0 -0.00403321)
(0.0277981 0 -0.00407926)
(0.0398065 0 -0.00406768)
(0.0525072 0 -0.00399906)
(0.0650619 0 -0.00388813)
(0.0768783 0 -0.00374363)
(0.0875677 0 -0.00356823)
(0.0969292 0 -0.00337605)
(0.104913 0 -0.00318044)
(0.0111151 0 -0.00772874)
(0.0175081 0 -0.00764945)
(0.024479 0 -0.00789401)
(0.0342493 0 -0.0079948)
(0.0456411 0 -0.00797053)
(0.0576478 0 -0.00783707)
(0.06952 0 -0.00762303)
(0.0806837 0 -0.00734386)
(0.090774 0 -0.00700588)
(0.0996226 0 -0.00663605)
(0.107168 0 -0.00625635)
(0.0224406 0 -0.0111135)
(0.0280511 0 -0.0111443)
(0.0349642 0 -0.0114997)
(0.0441645 0 -0.0116521)
(0.0546623 0 -0.0116195)
(0.0656648 0 -0.0114334)
(0.0765111 0 -0.0111261)
(0.0866733 0 -0.0107213)
(0.0958511 0 -0.0102391)
(0.103905 0 -0.00971196)
(0.110754 0 -0.00916305)
(0.0364955 0 -0.0143159)
(0.0414108 0 -0.0144234)
(0.0481937 0 -0.0148472)
(0.0566995 0 -0.0150304)
(0.0661537 0 -0.0149894)
(0.0759524 0 -0.0147583)
(0.0855293 0 -0.0143678)
(0.0944492 0 -0.0138499)
(0.102489 0 -0.0132399)
(0.109521 0 -0.0125712)
(0.115469 0 -0.0118708)
(0.0524973 0 -0.0173819)
(0.056791 0 -0.017509)
(0.0633451 0 -0.0179558)
(0.0710795 0 -0.0181425)
(0.0794144 0 -0.0180821)
(0.0878859 0 -0.017801)
(0.0960513 0 -0.0173331)
(0.10359 0 -0.0167175)
(0.110336 0 -0.015994)
(0.116188 0 -0.0151987)
(0.121092 0 -0.0143658)
(0.0697778 0 -0.0202966)
(0.0735117 0 -0.020405)
(0.0797358 0 -0.0208392)
(0.0866499 0 -0.0210045)
(0.0938276 0 -0.0209088)
(0.100913 0 -0.0205688)
(0.107599 0 -0.0200232)
(0.113678 0 -0.0193176)
(0.119038 0 -0.0184925)
(0.123612 0 -0.0175861)
(0.127382 0 -0.0166388)
(0.0877922 0 -0.0230162)
(0.0910179 0 -0.0231044)
(0.0968232 0 -0.0235045)
(0.102884 0 -0.0236299)
(0.108885 0 -0.023482)
(0.114559 0 -0.0230716)
(0.119736 0 -0.0224432)
(0.12432 0 -0.0216493)
(0.128251 0 -0.0207315)
(0.131506 0 -0.0197287)
(0.134102 0 -0.0186837)
(0.106101 0 -0.025532)
(0.108877 0 -0.0256056)
(0.114194 0 -0.0259612)
(0.11937 0 -0.0260312)
(0.124169 0 -0.0258116)
(0.128417 0 -0.0253154)
(0.132075 0 -0.024595)
(0.135153 0 -0.0237112)
(0.137653 0 -0.0227083)
(0.139599 0 -0.0216243)
(0.141019 0 -0.0204983)
(0.124375 0 -0.0278437)
(0.126771 0 -0.0279215)
(0.131542 0 -0.0282249)
(0.135779 0 -0.0282179)
(0.139323 0 -0.0278995)
(0.142122 0 -0.0272977)
(0.144257 0 -0.026475)
(0.145839 0 -0.0254996)
(0.146942 0 -0.024419)
(0.147618 0 -0.0232678)
(0.1479 0 -0.0220785)
(0.142398 0 -0.0299802)
(0.144488 0 -0.0300801)
(0.148629 0 -0.0303122)
(0.151811 0 -0.0301887)
(0.153995 0 -0.029732)
(0.155298 0 -0.0290003)
(0.155918 0 -0.0280681)
(0.156053 0 -0.0270056)
(0.155832 0 -0.025859)
(0.155316 0 -0.0246561)
(0.154534 0 -0.023422)
(0.160074 0 -0.0320077)
(0.161885 0 -0.0321146)
(0.165221 0 -0.0322223)
(0.167125 0 -0.031914)
(0.167796 0 -0.0312716)
(0.167554 0 -0.0303904)
(0.166704 0 -0.0293514)
(0.165494 0 -0.0282172)
(0.164067 0 -0.0270238)
(0.16248 0 -0.0257901)
(0.160746 0 -0.0245322)
(0.177415 0 -0.034)
(0.178793 0 -0.0340272)
(0.180951 0 -0.0338982)
(0.181243 0 -0.0333128)
(0.180255 0 -0.0324491)
(0.178485 0 -0.0314231)
(0.176282 0 -0.030301)
(0.173885 0 -0.0291238)
(0.171422 0 -0.0279114)
(0.168925 0 -0.0266723)
(0.166388 0 -0.0254147)
(0.194512 0 -0.0360244)
(0.194745 0 -0.0357057)
(0.195103 0 -0.035162)
(0.19345 0 -0.0342314)
(0.190795 0 -0.0331681)
(0.187671 0 -0.0320502)
(0.184358 0 -0.0308993)
(0.181022 0 -0.0297245)
(0.177745 0 -0.0285287)
(0.174533 0 -0.0273125)
(0.17136 0 -0.0260793)
(0.211458 0 -0.0381137)
(0.208335 0 -0.0367198)
(0.206438 0 -0.0356349)
(0.202919 0 -0.0344587)
(0.198932 0 -0.0333387)
(0.19484 0 -0.0322449)
(0.190784 0 -0.0311478)
(0.186829 0 -0.030033)
(0.182999 0 -0.0288946)
(0.179281 0 -0.0277312)
(0.17564 0 -0.0265449)
(0.228409 0 -0.0402655)
(0.217153 0 -0.0350477)
(0.213561 0 -0.0345342)
(0.209139 0 -0.0337709)
(0.204582 0 -0.0329268)
(0.200074 0 -0.0320276)
(0.195678 0 -0.0310783)
(0.191411 0 -0.0300812)
(0.18727 0 -0.0290388)
(0.183236 0 -0.0279553)
(0.179277 0 -0.0268363)
(0 0 0)
(0.00819098 0 0)
(0.0152571 0 0)
(0.0255561 0 0)
(0.037785 0 0)
(0.0507372 0 0)
(0.063534 0 0)
(0.075576 0 0)
(0.0864724 0 0)
(0.0960125 0 0)
(0.104146 0 0)
(0.00350021 0 -0.00407466)
(0.0106167 0 -0.00391373)
(0.0176416 0 -0.00403321)
(0.0277981 0 -0.00407926)
(0.0398065 0 -0.00406768)
(0.0525072 0 -0.00399906)
(0.0650619 0 -0.00388813)
(0.0768783 0 -0.00374363)
(0.0875677 0 -0.00356823)
(0.0969292 0 -0.00337605)
(0.104913 0 -0.00318044)
(0.0111151 0 -0.00772874)
(0.0175081 0 -0.00764945)
(0.024479 0 -0.00789401)
(0.0342493 0 -0.0079948)
(0.0456411 0 -0.00797053)
(0.0576478 0 -0.00783707)
(0.06952 0 -0.00762303)
(0.0806837 0 -0.00734386)
(0.090774 0 -0.00700588)
(0.0996226 0 -0.00663605)
(0.107168 0 -0.00625635)
(0.0224406 0 -0.0111135)
(0.0280511 0 -0.0111443)
(0.0349642 0 -0.0114997)
(0.0441645 0 -0.0116521)
(0.0546623 0 -0.0116195)
(0.0656648 0 -0.0114334)
(0.0765111 0 -0.0111261)
(0.0866733 0 -0.0107213)
(0.0958511 0 -0.0102391)
(0.103905 0 -0.00971196)
(0.110754 0 -0.00916305)
(0.0364955 0 -0.0143159)
(0.0414108 0 -0.0144234)
(0.0481937 0 -0.0148472)
(0.0566995 0 -0.0150304)
(0.0661537 0 -0.0149894)
(0.0759524 0 -0.0147583)
(0.0855293 0 -0.0143678)
(0.0944492 0 -0.0138499)
(0.102489 0 -0.0132399)
(0.109521 0 -0.0125712)
(0.115469 0 -0.0118708)
(0.0524973 0 -0.0173819)
(0.056791 0 -0.017509)
(0.0633451 0 -0.0179558)
(0.0710795 0 -0.0181425)
(0.0794144 0 -0.0180821)
(0.0878859 0 -0.017801)
(0.0960513 0 -0.0173331)
(0.10359 0 -0.0167175)
(0.110336 0 -0.015994)
(0.116188 0 -0.0151987)
(0.121092 0 -0.0143658)
(0.0697778 0 -0.0202966)
(0.0735117 0 -0.020405)
(0.0797358 0 -0.0208392)
(0.0866499 0 -0.0210045)
(0.0938276 0 -0.0209088)
(0.100913 0 -0.0205688)
(0.107599 0 -0.0200232)
(0.113678 0 -0.0193176)
(0.119038 0 -0.0184925)
(0.123612 0 -0.0175861)
(0.127382 0 -0.0166388)
(0.0877922 0 -0.0230162)
(0.0910179 0 -0.0231044)
(0.0968232 0 -0.0235045)
(0.102884 0 -0.0236299)
(0.108885 0 -0.023482)
(0.114559 0 -0.0230716)
(0.119736 0 -0.0224432)
(0.12432 0 -0.0216493)
(0.128251 0 -0.0207315)
(0.131506 0 -0.0197287)
(0.134102 0 -0.0186837)
(0.106101 0 -0.025532)
(0.108877 0 -0.0256056)
(0.114194 0 -0.0259612)
(0.11937 0 -0.0260312)
(0.124169 0 -0.0258116)
(0.128417 0 -0.0253154)
(0.132075 0 -0.024595)
(0.135153 0 -0.0237112)
(0.137653 0 -0.0227083)
(0.139599 0 -0.0216243)
(0.141019 0 -0.0204983)
(0.124375 0 -0.0278437)
(0.126771 0 -0.0279215)
(0.131542 0 -0.0282249)
(0.135779 0 -0.0282179)
(0.139323 0 -0.0278995)
(0.142122 0 -0.0272977)
(0.144257 0 -0.026475)
(0.145839 0 -0.0254996)
(0.146942 0 -0.024419)
(0.147618 0 -0.0232678)
(0.1479 0 -0.0220785)
(0.142398 0 -0.0299802)
(0.144488 0 -0.0300801)
(0.148629 0 -0.0303122)
(0.151811 0 -0.0301887)
(0.153995 0 -0.029732)
(0.155298 0 -0.0290003)
(0.155918 0 -0.0280681)
(0.156053 0 -0.0270056)
(0.155832 0 -0.025859)
(0.155316 0 -0.0246561)
(0.154534 0 -0.023422)
(0.160074 0 -0.0320077)
(0.161885 0 -0.0321146)
(0.165221 0 -0.0322223)
(0.167125 0 -0.031914)
(0.167796 0 -0.0312716)
(0.167554 0 -0.0303904)
(0.166704 0 -0.0293514)
(0.165494 0 -0.0282172)
(0.164067 0 -0.0270238)
(0.16248 0 -0.0257901)
(0.160746 0 -0.0245322)
(0.177415 0 -0.034)
(0.178793 0 -0.0340272)
(0.180951 0 -0.0338982)
(0.181243 0 -0.0333128)
(0.180255 0 -0.0324491)
(0.178485 0 -0.0314231)
(0.176282 0 -0.030301)
(0.173885 0 -0.0291238)
(0.171422 0 -0.0279114)
(0.168925 0 -0.0266723)
(0.166388 0 -0.0254147)
(0.194512 0 -0.0360244)
(0.194745 0 -0.0357057)
(0.195103 0 -0.035162)
(0.19345 0 -0.0342314)
(0.190795 0 -0.0331681)
(0.187671 0 -0.0320502)
(0.184358 0 -0.0308993)
(0.181022 0 -0.0297245)
(0.177745 0 -0.0285287)
(0.174533 0 -0.0273125)
(0.17136 0 -0.0260793)
(0.211458 0 -0.0381137)
(0.208335 0 -0.0367198)
(0.206438 0 -0.0356349)
(0.202919 0 -0.0344587)
(0.198932 0 -0.0333387)
(0.19484 0 -0.0322449)
(0.190784 0 -0.0311478)
(0.186829 0 -0.030033)
(0.182999 0 -0.0288946)
(0.179281 0 -0.0277312)
(0.17564 0 -0.0265449)
(0.228409 0 -0.0402655)
(0.217153 0 -0.0350477)
(0.213561 0 -0.0345342)
(0.209139 0 -0.0337709)
(0.204582 0 -0.0329268)
(0.200074 0 -0.0320276)
(0.195678 0 -0.0310783)
(0.191411 0 -0.0300812)
(0.18727 0 -0.0290388)
(0.183236 0 -0.0279553)
(0.179277 0 -0.0268363)
(0.157036 0 -0.00938955)
(0.16383 0 -0.010094)
(0.171178 0 -0.0109105)
(0.179051 0 -0.0118549)
(0.187322 0 -0.012934)
(0.19577 0 -0.0141544)
(0.204103 0 -0.0155411)
(0.21191 0 -0.017168)
(0.218721 0 -0.0192518)
(0.223861 0 -0.0219651)
(0.16272 0 -0.0104814)
(0.169541 0 -0.0112763)
(0.17676 0 -0.0121794)
(0.184296 0 -0.0132022)
(0.191986 0 -0.0143512)
(0.199588 0 -0.0156352)
(0.206804 0 -0.0170776)
(0.213262 0 -0.0187247)
(0.218547 0 -0.0206589)
(0.221961 0 -0.0227795)
(0.167381 0 -0.0114689)
(0.174039 0 -0.0123229)
(0.180927 0 -0.0132742)
(0.187936 0 -0.01433)
(0.194895 0 -0.0154953)
(0.20158 0 -0.0167761)
(0.207721 0 -0.0181828)
(0.213008 0 -0.0197308)
(0.217144 0 -0.0214539)
(0.219612 0 -0.0231806)
(0.171062 0 -0.0123393)
(0.177431 0 -0.0132259)
(0.18388 0 -0.0141959)
(0.190294 0 -0.0152534)
(0.196516 0 -0.0164005)
(0.20234 0 -0.017636)
(0.207542 0 -0.0189575)
(0.2119 0 -0.0203661)
(0.215219 0 -0.0218733)
(0.217157 0 -0.0232898)
(0.179872 0 -0.0139896)
(0.185842 0 -0.0149569)
(0.191661 0 -0.015994)
(0.197187 0 -0.0170981)
(0.202247 0 -0.0182616)
(0.206673 0 -0.019478)
(0.210318 0 -0.0207429)
(0.213061 0 -0.0220522)
(0.214669 0 -0.0232283)
(0.192256 0 -0.0165701)
(0.197149 0 -0.0176143)
(0.201555 0 -0.0186948)
(0.205357 0 -0.0198037)
(0.208457 0 -0.0209328)
(0.210782 0 -0.0220699)
(0.212166 0 -0.02306)
(0.200442 0 -0.0189714)
(0.203742 0 -0.0199775)
(0.206418 0 -0.0209831)
(0.208429 0 -0.0219742)
(0.209647 0 -0.0228189)
(0.204253 0 -0.0209253)
(0.206019 0 -0.0217936)
(0.207106 0 -0.0225226)
(0.157036 0 -0.00938955)
(0.16383 0 -0.010094)
(0.171178 0 -0.0109105)
(0.179051 0 -0.0118549)
(0.187322 0 -0.012934)
(0.19577 0 -0.0141544)
(0.204103 0 -0.0155411)
(0.21191 0 -0.017168)
(0.218721 0 -0.0192518)
(0.223861 0 -0.0219651)
(0.16272 0 -0.0104814)
(0.169541 0 -0.0112763)
(0.17676 0 -0.0121794)
(0.184296 0 -0.0132022)
(0.191986 0 -0.0143512)
(0.199588 0 -0.0156352)
(0.206804 0 -0.0170776)
(0.213262 0 -0.0187247)
(0.218547 0 -0.0206589)
(0.221961 0 -0.0227795)
(0.167381 0 -0.0114689)
(0.174039 0 -0.0123229)
(0.180927 0 -0.0132742)
(0.187936 0 -0.01433)
(0.194895 0 -0.0154953)
(0.20158 0 -0.0167761)
(0.207721 0 -0.0181828)
(0.213008 0 -0.0197308)
(0.217144 0 -0.0214539)
(0.219612 0 -0.0231806)
(0.171062 0 -0.0123393)
(0.177431 0 -0.0132259)
(0.18388 0 -0.0141959)
(0.190294 0 -0.0152534)
(0.196516 0 -0.0164005)
(0.20234 0 -0.017636)
(0.207542 0 -0.0189575)
(0.2119 0 -0.0203661)
(0.215219 0 -0.0218733)
(0.217157 0 -0.0232898)
(0.179872 0 -0.0139896)
(0.185842 0 -0.0149569)
(0.191661 0 -0.015994)
(0.197187 0 -0.0170981)
(0.202247 0 -0.0182616)
(0.206673 0 -0.019478)
(0.210318 0 -0.0207429)
(0.213061 0 -0.0220522)
(0.214669 0 -0.0232283)
(0.192256 0 -0.0165701)
(0.197149 0 -0.0176143)
(0.201555 0 -0.0186948)
(0.205357 0 -0.0198037)
(0.208457 0 -0.0209328)
(0.210782 0 -0.0220699)
(0.212166 0 -0.02306)
(0.200442 0 -0.0189714)
(0.203742 0 -0.0199775)
(0.206418 0 -0.0209831)
(0.208429 0 -0.0219742)
(0.209647 0 -0.0228189)
(0.204253 0 -0.0209253)
(0.206019 0 -0.0217936)
(0.207106 0 -0.0225226)
(0.230637 0 -0.023382)
(0.229553 0 -0.0317531)
(0.226024 0 -0.024804)
(0.225783 0 -0.02758)
(0.223771 0 -0.0302383)
(0.223288 0 -0.0246663)
(0.223349 0 -0.026354)
(0.222419 0 -0.0282631)
(0.220541 0 -0.0245467)
(0.220734 0 -0.0256788)
(0.220358 0 -0.0270369)
(0.217908 0 -0.0243353)
(0.218152 0 -0.0251694)
(0.218038 0 -0.0261754)
(0.215328 0 -0.024061)
(0.215593 0 -0.0247132)
(0.215612 0 -0.0254967)
(0.212763 0 -0.0237437)
(0.213036 0 -0.0242736)
(0.213129 0 -0.0249079)
(0.210195 0 -0.0233931)
(0.210468 0 -0.0238354)
(0.210604 0 -0.0243633)
(0.207612 0 -0.0230129)
(0.207878 0 -0.0233891)
(0.208039 0 -0.0238371)
(0.205006 0 -0.0226045)
(0.205261 0 -0.0229289)
(0.205432 0 -0.0233145)
(0.230637 0 -0.023382)
(0.229553 0 -0.0317531)
(0.226024 0 -0.024804)
(0.225783 0 -0.02758)
(0.223771 0 -0.0302383)
(0.223288 0 -0.0246663)
(0.223349 0 -0.026354)
(0.222419 0 -0.0282631)
(0.220541 0 -0.0245467)
(0.220734 0 -0.0256788)
(0.220358 0 -0.0270369)
(0.217908 0 -0.0243353)
(0.218152 0 -0.0251694)
(0.218038 0 -0.0261754)
(0.215328 0 -0.024061)
(0.215593 0 -0.0247132)
(0.215612 0 -0.0254967)
(0.212763 0 -0.0237437)
(0.213036 0 -0.0242736)
(0.213129 0 -0.0249079)
(0.210195 0 -0.0233931)
(0.210468 0 -0.0238354)
(0.210604 0 -0.0243633)
(0.207612 0 -0.0230129)
(0.207878 0 -0.0233891)
(0.208039 0 -0.0238371)
(0.205006 0 -0.0226045)
(0.205261 0 -0.0229289)
(0.205432 0 -0.0233145)
(0.220374 0 -0.0319892)
(0.216613 0 -0.0325726)
(0.21245 0 -0.0325131)
(0.208086 0 -0.0321062)
(0.203662 0 -0.0314961)
(0.199265 0 -0.0307528)
(0.194932 0 -0.0299114)
(0.190672 0 -0.0289922)
(0.186479 0 -0.0280094)
(0.220267 0 -0.0300041)
(0.217255 0 -0.0309333)
(0.213764 0 -0.0312298)
(0.209917 0 -0.0311377)
(0.205854 0 -0.0307841)
(0.201683 0 -0.0302454)
(0.19747 0 -0.0295685)
(0.193248 0 -0.0287842)
(0.189026 0 -0.0279137)
(0.219012 0 -0.028514)
(0.216714 0 -0.0295384)
(0.213847 0 -0.030027)
(0.210545 0 -0.0301428)
(0.206927 0 -0.0299862)
(0.203092 0 -0.029623)
(0.199115 0 -0.0290991)
(0.195041 0 -0.028447)
(0.190893 0 -0.0276907)
(0.217193 0 -0.0273799)
(0.215476 0 -0.0283579)
(0.213148 0 -0.0289282)
(0.210341 0 -0.0291721)
(0.20716 0 -0.0291572)
(0.20369 0 -0.0289346)
(0.199998 0 -0.0285427)
(0.196134 0 -0.0280112)
(0.192127 0 -0.0273635)
(0.215081 0 -0.0264806)
(0.213799 0 -0.0273568)
(0.211915 0 -0.0279374)
(0.20954 0 -0.0282488)
(0.206757 0 -0.028329)
(0.203639 0 -0.0282125)
(0.200245 0 -0.0279287)
(0.196619 0 -0.027502)
(0.192791 0 -0.0269529)
(0.212801 0 -0.0257232)
(0.211834 0 -0.02649)
(0.210306 0 -0.0270428)
(0.208293 0 -0.0273799)
(0.205861 0 -0.0275181)
(0.203068 0 -0.0274776)
(0.19996 0 -0.0272785)
(0.196578 0 -0.0269392)
(0.192948 0 -0.0264764)
(0.21041 0 -0.0250494)
(0.209672 0 -0.0257161)
(0.20842 0 -0.0262247)
(0.206705 0 -0.0265615)
(0.204575 0 -0.0267306)
(0.20207 0 -0.0267414)
(0.19923 0 -0.0266062)
(0.196084 0 -0.0263375)
(0.192655 0 -0.0259481)
(0.207934 0 -0.0244228)
(0.207361 0 -0.0250033)
(0.206323 0 -0.0254628)
(0.204851 0 -0.0257847)
(0.202974 0 -0.0259659)
(0.200722 0 -0.0260091)
(0.198123 0 -0.0259202)
(0.195198 0 -0.0257071)
(0.191965 0 -0.0253784)
(0.205384 0 -0.0238199)
(0.204932 0 -0.024327)
(0.20406 0 -0.0247387)
(0.202782 0 -0.0250383)
(0.201116 0 -0.0252196)
(0.199081 0 -0.0252812)
(0.196695 0 -0.0252247)
(0.193972 0 -0.025054)
(0.190924 0 -0.0247747)
(0.202772 0 -0.0232257)
(0.202406 0 -0.0236701)
(0.20166 0 -0.024037)
(0.200537 0 -0.0243113)
(0.199045 0 -0.0244854)
(0.197193 0 -0.0245555)
(0.194992 0 -0.0245205)
(0.19245 0 -0.0243816)
(0.189574 0 -0.0241416)
(0.198145 0 -0.0235939)
(0.196793 0 -0.0237563)
(0.195095 0 -0.023828)
(0.193054 0 -0.0238063)
(0.190672 0 -0.0236906)
(0.187951 0 -0.0234815)
(0.19282 0 -0.0230941)
(0.190914 0 -0.0230797)
(0.18867 0 -0.0229802)
(0.186088 0 -0.0227951)
(0.186478 0 -0.0222487)
(0.184016 0 -0.0220817)
(0.220374 0 -0.0319892)
(0.216613 0 -0.0325726)
(0.21245 0 -0.0325131)
(0.208086 0 -0.0321062)
(0.203662 0 -0.0314961)
(0.199265 0 -0.0307528)
(0.194932 0 -0.0299114)
(0.190672 0 -0.0289922)
(0.186479 0 -0.0280094)
(0.220267 0 -0.0300041)
(0.217255 0 -0.0309333)
(0.213764 0 -0.0312298)
(0.209917 0 -0.0311377)
(0.205854 0 -0.0307841)
(0.201683 0 -0.0302454)
(0.19747 0 -0.0295685)
(0.193248 0 -0.0287842)
(0.189026 0 -0.0279137)
(0.219012 0 -0.028514)
(0.216714 0 -0.0295384)
(0.213847 0 -0.030027)
(0.210545 0 -0.0301428)
(0.206927 0 -0.0299862)
(0.203092 0 -0.029623)
(0.199115 0 -0.0290991)
(0.195041 0 -0.028447)
(0.190893 0 -0.0276907)
(0.217193 0 -0.0273799)
(0.215476 0 -0.0283579)
(0.213148 0 -0.0289282)
(0.210341 0 -0.0291721)
(0.20716 0 -0.0291572)
(0.20369 0 -0.0289346)
(0.199998 0 -0.0285427)
(0.196134 0 -0.0280112)
(0.192127 0 -0.0273635)
(0.215081 0 -0.0264806)
(0.213799 0 -0.0273568)
(0.211915 0 -0.0279374)
(0.20954 0 -0.0282488)
(0.206757 0 -0.028329)
(0.203639 0 -0.0282125)
(0.200245 0 -0.0279287)
(0.196619 0 -0.027502)
(0.192791 0 -0.0269529)
(0.212801 0 -0.0257232)
(0.211834 0 -0.02649)
(0.210306 0 -0.0270428)
(0.208293 0 -0.0273799)
(0.205861 0 -0.0275181)
(0.203068 0 -0.0274776)
(0.19996 0 -0.0272785)
(0.196578 0 -0.0269392)
(0.192948 0 -0.0264764)
(0.21041 0 -0.0250494)
(0.209672 0 -0.0257161)
(0.20842 0 -0.0262247)
(0.206705 0 -0.0265615)
(0.204575 0 -0.0267306)
(0.20207 0 -0.0267414)
(0.19923 0 -0.0266062)
(0.196084 0 -0.0263375)
(0.192655 0 -0.0259481)
(0.207934 0 -0.0244228)
(0.207361 0 -0.0250033)
(0.206323 0 -0.0254628)
(0.204851 0 -0.0257847)
(0.202974 0 -0.0259659)
(0.200722 0 -0.0260091)
(0.198123 0 -0.0259202)
(0.195198 0 -0.0257071)
(0.191965 0 -0.0253784)
(0.205384 0 -0.0238199)
(0.204932 0 -0.024327)
(0.20406 0 -0.0247387)
(0.202782 0 -0.0250383)
(0.201116 0 -0.0252196)
(0.199081 0 -0.0252812)
(0.196695 0 -0.0252247)
(0.193972 0 -0.025054)
(0.190924 0 -0.0247747)
(0.202772 0 -0.0232257)
(0.202406 0 -0.0236701)
(0.20166 0 -0.024037)
(0.200537 0 -0.0243113)
(0.199045 0 -0.0244854)
(0.197193 0 -0.0245555)
(0.194992 0 -0.0245205)
(0.19245 0 -0.0243816)
(0.189574 0 -0.0241416)
(0.198145 0 -0.0235939)
(0.196793 0 -0.0237563)
(0.195095 0 -0.023828)
(0.193054 0 -0.0238063)
(0.190672 0 -0.0236906)
(0.187951 0 -0.0234815)
(0.19282 0 -0.0230941)
(0.190914 0 -0.0230797)
(0.18867 0 -0.0229802)
(0.186088 0 -0.0227951)
(0.186478 0 -0.0222487)
(0.184016 0 -0.0220817)
)
;

boundaryField
{
    inlet
    {
        type            fixedValue;
        value           nonuniform 0();
    }
    outlet
    {
        type            fixedValue;
        value           nonuniform 0();
    }
    flap
    {
        type            fixedValue;
        value           nonuniform List<vector> 
68
(
(0 0 0)
(0.00394913 0 0.00380912)
(0.00394913 0 0.00380912)
(0 0 0)
(0.0122669 0 0.00654055)
(0.0122669 0 0.00654055)
(0.0243987 0 0.00800538)
(0.0243987 0 0.00800538)
(0.0391906 0 0.00826519)
(0.0391906 0 0.00826519)
(0.0557621 0 0.00754217)
(0.0557621 0 0.00754217)
(0.0734197 0 0.00606584)
(0.0734197 0 0.00606584)
(0.0916264 0 0.00404265)
(0.0916264 0 0.00404265)
(0.109977 0 0.00168674)
(0.109977 0 0.00168674)
(0.128187 0 -0.000833589)
(0.128187 0 -0.000833589)
(0.146089 0 -0.00338744)
(0.146089 0 -0.00338744)
(0.163629 0 -0.00587571)
(0.163629 0 -0.00587571)
(0.180854 0 -0.00825237)
(0.180854 0 -0.00825237)
(0.197874 0 -0.0105152)
(0.197874 0 -0.0105152)
(0.214776 0 -0.0126938)
(0.214776 0 -0.0126938)
(0.231703 0 -0.0148677)
(0.231703 0 -0.0148677)
(0.230637 0 -0.023382)
(0.230637 0 -0.023382)
(0.229553 0 -0.0317531)
(0.229553 0 -0.0317531)
(0.228409 0 -0.0402655)
(0.228409 0 -0.0402655)
(0 0 0)
(0 0 0)
(0.00350021 0 -0.00407466)
(0.00350021 0 -0.00407466)
(0.0111151 0 -0.00772874)
(0.0111151 0 -0.00772874)
(0.0224406 0 -0.0111135)
(0.0224406 0 -0.0111135)
(0.0364955 0 -0.0143159)
(0.0364955 0 -0.0143159)
(0.0524973 0 -0.0173819)
(0.0524973 0 -0.0173819)
(0.0697778 0 -0.0202966)
(0.0697778 0 -0.0202966)
(0.0877922 0 -0.0230162)
(0.0877922 0 -0.0230162)
(0.106101 0 -0.025532)
(0.106101 0 -0.025532)
(0.124375 0 -0.0278437)
(0.124375 0 -0.0278437)
(0.142398 0 -0.0299802)
(0.142398 0 -0.0299802)
(0.160074 0 -0.0320077)
(0.160074 0 -0.0320077)
(0.177415 0 -0.034)
(0.177415 0 -0.034)
(0.194512 0 -0.0360244)
(0.194512 0 -0.0360244)
(0.211458 0 -0.0381137)
(0.211458 0 -0.0381137)
)
;
    }
    upperWall
    {
        type            slip;
    }
    lowerWall
    {
        type            slip;
    }
    frontAndBack
    {
        type            empty;
    }
    procBoundary4to1
    {
        type            processor;
    }
    procBoundary4to2
    {
        type            processor;
    }
    procBoundary4to3
    {
        type            processor;
    }
    procBoundary4to5
    {
        type            processor;
    }
}


// ************************************************************************* //
