/*--------------------------------*- C++ -*----------------------------------*\
| =========                 |                                                 |
| \\      /  F ield         | OpenFOAM: The Open Source CFD Toolbox           |
|  \\    /   O peration     | Version:  dev                                   |
|   \\  /    A nd           | Web:      www.OpenFOAM.org                      |
|    \\/     M anipulation  |                                                 |
\*---------------------------------------------------------------------------*/
FoamFile
{
    version     2.0;
    format      ascii;
    class       volVectorField;
    location    "4.2";
    object      cellDisplacement;
}
// * * * * * * * * * * * * * * * * * * * * * * * * * * * * * * * * * * * * * //

dimensions      [0 1 0 0 0 0 0];

internalField   nonuniform List<vector> 
2790
(
(0.00415955 0 -2.07766e-06)
(0.0119362 0 -5.92239e-06)
(0.0186944 0 -9.1505e-06)
(0.0245063 0 -1.17362e-05)
(0.0294461 0 -1.36509e-05)
(0.0335816 0 -1.48528e-05)
(0.0369743 0 -1.5283e-05)
(0.0396791 0 -1.48625e-05)
(0.0417449 0 -1.34897e-05)
(0.043215 0 -1.10389e-05)
(0.0441278 0 -7.35788e-06)
(0.044517 0 -2.2675e-06)
(0.0444127 0 4.44024e-06)
(0.0438419 0 1.30016e-05)
(0.0428293 0 2.36805e-05)
(0.0413987 0 3.67638e-05)
(0.0395734 0 5.25562e-05)
(0.0373781 0 7.13754e-05)
(0.0348399 0 9.3542e-05)
(0.0319907 0 0.000119364)
(0.0288686 0 0.000149119)
(0.0255202 0 0.000183033)
(0.0220035 0 0.000221258)
(0.01839 0 0.000263832)
(0.0147685 0 0.000310637)
(0.0112486 0 0.000361316)
(0.00796596 0 0.000415136)
(0.0050918 0 0.000470689)
(0.0028533 0 0.000524932)
(0.00160119 0 0.000569496)
(0.00416484 0 -6.24743e-06)
(0.011952 0 -1.7811e-05)
(0.0187207 0 -2.75272e-05)
(0.0245437 0 -3.53216e-05)
(0.0294955 0 -4.11111e-05)
(0.0336444 0 -4.47738e-05)
(0.0370521 0 -4.61361e-05)
(0.039774 0 -4.49648e-05)
(0.0418593 0 -4.096e-05)
(0.0433519 0 -3.37495e-05)
(0.0442905 0 -2.2884e-05)
(0.0447093 0 -7.83353e-06)
(0.0446389 0 1.20171e-05)
(0.0441069 0 3.7366e-05)
(0.0431385 0 6.89938e-05)
(0.0417581 0 0.000107748)
(0.0399895 0 0.000154528)
(0.0378577 0 0.000210266)
(0.0353902 0 0.000275907)
(0.0326188 0 0.000352348)
(0.0295816 0 0.000440389)
(0.026325 0 0.000540662)
(0.0229062 0 0.000653548)
(0.0193966 0 0.000779058)
(0.0158848 0 0.000916659)
(0.0124814 0 0.00106496)
(0.00932381 0 0.00122118)
(0.00658663 0 0.00137994)
(0.00449996 0 0.00153037)
(0.00340236 0 0.00164657)
(0.00417575 0 -1.04601e-05)
(0.0119844 0 -2.98295e-05)
(0.0187746 0 -4.6128e-05)
(0.0246199 0 -5.92414e-05)
(0.0295958 0 -6.90409e-05)
(0.0337713 0 -7.53331e-05)
(0.0372089 0 -7.784e-05)
(0.0399647 0 -7.61859e-05)
(0.0420888 0 -6.98864e-05)
(0.0436258 0 -5.83394e-05)
(0.0446153 0 -4.08176e-05)
(0.0450926 0 -1.64641e-05)
(0.0450893 0 1.5717e-05)
(0.0446339 0 5.68537e-05)
(0.0437529 0 0.00010821)
(0.0424718 0 0.000171158)
(0.0408156 0 0.000247138)
(0.0388097 0 0.000337645)
(0.0364822 0 0.000444192)
(0.0338653 0 0.000568193)
(0.0309968 0 0.000710872)
(0.0279223 0 0.000873134)
(0.024698 0 0.0010554)
(0.0213937 0 0.00125737)
(0.0180971 0 0.00147769)
(0.0149192 0 0.00171329)
(0.0119979 0 0.00195821)
(0.00950664 0 0.0022016)
(0.00766774 0 0.00242339)
(0.00679127 0 0.00258371)
(0.004192 0 -1.47425e-05)
(0.0120327 0 -4.20592e-05)
(0.0188547 0 -6.5093e-05)
(0.0247331 0 -8.37051e-05)
(0.0297448 0 -9.77346e-05)
(0.0339598 0 -0.000106932)
(0.0374418 0 -0.000110931)
(0.0402479 0 -0.000109232)
(0.0424293 0 -0.000101189)
(0.044032 0 -8.59972e-05)
(0.0450967 0 -6.2683e-05)
(0.0456605 0 -3.01021e-05)
(0.0457561 0 1.308e-05)
(0.0454141 0 6.83653e-05)
(0.044662 0 0.000137451)
(0.0435273 0 0.00022217)
(0.0420374 0 0.000324425)
(0.0402176 0 0.000446176)
(0.0380973 0 0.000589423)
(0.0357092 0 0.000755987)
(0.0330909 0 0.000947371)
(0.030287 0 0.00116457)
(0.0273511 0 0.00140778)
(0.02435 0 0.00167607)
(0.0213672 0 0.00196682)
(0.0185137 0 0.00227483)
(0.015924 0 0.00259035)
(0.0137662 0 0.00289686)
(0.0122483 0 0.00316652)
(0.0116495 0 0.00335114)
(0.00421341 0 -1.91191e-05)
(0.0120962 0 -5.45742e-05)
(0.0189601 0 -8.45506e-05)
(0.0248821 0 -0.000108904)
(0.0299407 0 -0.000127463)
(0.0342077 0 -0.000139939)
(0.0377478 0 -0.000145901)
(0.0406197 0 -0.000144752)
(0.0428762 0 -0.000135715)
(0.0445646 0 -0.000117819)
(0.0457277 0 -8.98849e-05)
(0.0464042 0 -5.05384e-05)
(0.0466289 0 1.84178e-06)
(0.0464348 0 6.90456e-05)
(0.0458505 0 0.00015314)
(0.0449062 0 0.000256348)
(0.0436338 0 0.000380912)
(0.0420569 0 0.000529111)
(0.0402074 0 0.000703364)
(0.0381189 0 0.000905748)
(0.0358288 0 0.00113789)
(0.0333803 0 0.00140067)
(0.0308239 0 0.00169383)
(0.0282202 0 0.00201545)
(0.0256411 0 0.00236136)
(0.0232011 0 0.00272446)
(0.0210244 0 0.00309107)
(0.0192721 0 0.00343995)
(0.0181332 0 0.00373804)
(0.0178559 0 0.00393282)
(0.00423973 0 -2.36113e-05)
(0.0121743 0 -6.74395e-05)
(0.0190895 0 -0.000104613)
(0.025065 0 -0.000135008)
(0.0301812 0 -0.000158463)
(0.0345117 0 -0.00017468)
(0.038123 0 -0.000183188)
(0.0410753 0 -0.000183323)
(0.0434233 0 -0.000174216)
(0.0452161 0 -0.000154776)
(0.0464987 0 -0.000123664)
(0.0473123 0 -7.93567e-05)
(0.0476935 0 -1.99902e-05)
(0.0476793 0 5.63751e-05)
(0.0472983 0 0.000152115)
(0.0465829 0 0.000269783)
(0.0455667 0 0.000411656)
(0.044282 0 0.000580249)
(0.0427588 0 0.000778375)
(0.0410323 0 0.00100817)
(0.0391399 0 0.00127122)
(0.0371236 0 0.00156815)
(0.0350314 0 0.00189812)
(0.0329201 0 0.00225799)
(0.0308499 0 0.00264292)
(0.0289058 0 0.00304282)
(0.0272095 0 0.00344072)
(0.0259234 0 0.00381216)
(0.0252108 0 0.00412059)
(0.0252876 0 0.00431177)
(0.00427063 0 -2.82369e-05)
(0.0122659 0 -8.0709e-05)
(0.0192414 0 -0.000125374)
(0.0252795 0 -0.000162158)
(0.0304632 0 -0.000190936)
(0.034868 0 -0.000211428)
(0.0385624 0 -0.000223157)
(0.0416085 0 -0.000225426)
(0.0440629 0 -0.000217321)
(0.0459771 0 -0.000197685)
(0.047398 0 -0.000165052)
(0.0483709 0 -0.000117887)
(0.0489319 0 -5.40586e-05)
(0.04912 0 2.84121e-05)
(0.0489717 0 0.000131846)
(0.0485208 0 0.000258988)
(0.0477992 0 0.00041237)
(0.0468483 0 0.000594627)
(0.0456996 0 0.000808445)
(0.044389 0 0.001056)
(0.0429546 0 0.00133874)
(0.0414374 0 0.00165702)
(0.0398819 0 0.00200943)
(0.0383385 0 0.00239215)
(0.0368656 0 0.00279817)
(0.0355129 0 0.00321512)
(0.0343747 0 0.00362526)
(0.0336084 0 0.00400038)
(0.0333592 0 0.00430093)
(0.0338082 0 0.00447323)
(0.00430574 0 -3.30092e-05)
(0.0123701 0 -9.44233e-05)
(0.0194139 0 -0.000146905)
(0.0255231 0 -0.00019046)
(0.0307832 0 -0.000225033)
(0.0352722 0 -0.000250394)
(0.0390604 0 -0.000266094)
(0.0422121 0 -0.000271438)
(0.0447862 0 -0.000265515)
(0.0468365 0 -0.000247184)
(0.0484117 0 -0.000214828)
(0.0495576 0 -0.000166919)
(0.0503172 0 -0.000101568)
(0.0507301 0 -1.65104e-05)
(0.0508399 0 9.04321e-05)
(0.0506822 0 0.000221928)
(0.0502941 0 0.000380574)
(0.0497153 0 0.000568986)
(0.0489828 0 0.000789657)
(0.048135 0 0.0010446)
(0.0472112 0 0.00133504)
(0.0462515 0 0.00166094)
(0.0452968 0 0.00202043)
(0.0443891 0 0.00240889)
(0.043572 0 0.0028179)
(0.0428903 0 0.00323375)
(0.0424014 0 0.00363759)
(0.0422013 0 0.00399887)
(0.0424424 0 0.00427513)
(0.0432638 0 0.00441507)
(0.00434465 0 -3.79364e-05)
(0.0124854 0 -0.000108608)
(0.0196049 0 -0.000169251)
(0.0257925 0 -0.000219984)
(0.031137 0 -0.000260855)
(0.0357189 0 -0.000291717)
(0.0396104 0 -0.000312189)
(0.0428778 0 -0.000321607)
(0.045583 0 -0.000319114)
(0.0477775 0 -0.000303441)
(0.0495171 0 -0.000273337)
(0.0508506 0 -0.000227113)
(0.0518268 0 -0.000163162)
(0.0524877 0 -7.93153e-05)
(0.052877 0 2.66331e-05)
(0.0530356 0 0.0001571)
(0.0530047 0 0.000314512)
(0.0528264 0 0.000501257)
(0.0525416 0 0.00071953)
(0.0521918 0 0.000971031)
(0.0518189 0 0.0012566)
(0.051463 0 0.00157585)
(0.0511617 0 0.00192651)
(0.0509495 0 0.00230356)
(0.0508562 0 0.00269805)
(0.0509083 0 0.00309577)
(0.0511335 0 0.00347639)
(0.0515594 0 0.00380947)
(0.0523162 0 0.0040505)
(0.0535001 0 0.0041509)
(0.00438686 0 -4.30217e-05)
(0.0126104 0 -0.000123273)
(0.0198119 0 -0.00019243)
(0.0260844 0 -0.00025076)
(0.0315201 0 -0.000298445)
(0.0362023 0 -0.00033546)
(0.0402052 0 -0.000361537)
(0.0435964 0 -0.000376058)
(0.0464352 0 -0.000378065)
(0.0487819 0 -0.000366616)
(0.0506992 0 -0.000340735)
(0.052236 0 -0.000298852)
(0.0534418 0 -0.000239357)
(0.0543634 0 -0.000160393)
(0.0550465 0 -5.99427e-05)
(0.0555365 0 6.40632e-05)
(0.0558788 0 0.000213688)
(0.0561185 0 0.00039091)
(0.0563007 0 0.000597476)
(0.0564704 0 0.000834628)
(0.0566736 0 0.00110268)
(0.0569518 0 0.0014008)
(0.0573409 0 0.00172654)
(0.0578694 0 0.00207495)
(0.0585547 0 0.00243748)
(0.0594007 0 0.0028006)
(0.0603972 0 0.00314439)
(0.0615236 0 0.00343948)
(0.0628354 0 0.00364026)
(0.0643779 0 0.00369999)
(0.00443185 0 -4.82626e-05)
(0.0127437 0 -0.000138412)
(0.0200324 0 -0.000216433)
(0.026395 0 -0.000282776)
(0.0319274 0 -0.000337788)
(0.0367164 0 -0.000381603)
(0.0408371 0 -0.000414132)
(0.0443517 0 -0.00043455)
(0.0473299 0 -0.000442308)
(0.0498415 0 -0.000436868)
(0.0519446 0 -0.000417207)
(0.0536922 0 -0.000382054)
(0.0551354 0 -0.000329965)
(0.0563253 0 -0.000259487)
(0.0573094 0 -0.00016889)
(0.0581379 0 -5.65968e-05)
(0.0588598 0 7.89199e-05)
(0.0595238 0 0.000239048)
(0.0601785 0 0.000424923)
(0.0608725 0 0.000637235)
(0.0616584 0 0.000875488)
(0.0625807 0 0.00113831)
(0.0636758 0 0.00142315)
(0.0649692 0 0.00172562)
(0.0664699 0 0.00203851)
(0.068163 0 0.00235065)
(0.0700028 0 0.0026451)
(0.0719116 0 0.00289592)
(0.0738453 0 0.003057)
(0.075763 0 0.00307951)
(0.00447908 0 -5.3651e-05)
(0.0128835 0 -0.000154001)
(0.0202634 0 -0.000241222)
(0.0267201 0 -0.00031598)
(0.0323533 0 -0.000378814)
(0.0372543 0 -0.000430041)
(0.0414916 0 -0.00046964)
(0.0451325 0 -0.000496909)
(0.0482606 0 -0.000511867)
(0.0509412 0 -0.000513945)
(0.0532346 0 -0.000502377)
(0.0551966 0 -0.000476249)
(0.0568796 0 -0.000434309)
(0.0583404 0 -0.000375727)
(0.0596255 0 -0.00029901)
(0.0607909 0 -0.000203271)
(0.061889 0 -8.76697e-05)
(0.0629716 0 4.84188e-05)
(0.06409 0 0.000205333)
(0.0652935 0 0.000383305)
(0.066647 0 0.000580508)
(0.0681987 0 0.000794711)
(0.0699868 0 0.00102325)
(0.0720383 0 0.00126237)
(0.074361 0 0.00150697)
(0.0769312 0 0.00174997)
(0.0796789 0 0.00198071)
(0.0824742 0 0.00218106)
(0.0851428 0 0.0023069)
(0.0874927 0 0.00229985)
(0.00452795 0 -5.91735e-05)
(0.0130281 0 -0.00017)
(0.0205022 0 -0.000266732)
(0.0270557 0 -0.000350278)
(0.0327918 0 -0.000421394)
(0.0378047 0 -0.00048058)
(0.0421606 0 -0.000527863)
(0.0459349 0 -0.000563103)
(0.0492145 0 -0.000586388)
(0.0520653 0 -0.000597367)
(0.0545497 0 -0.000595585)
(0.0567265 0 -0.000580629)
(0.0586459 0 -0.000551211)
(0.0603656 0 -0.000506989)
(0.0619418 0 -0.000447546)
(0.0634324 0 -0.000372445)
(0.0648913 0 -0.000281631)
(0.0663731 0 -0.000175405)
(0.0679322 0 -5.45932e-05)
(0.0696262 0 7.99124e-05)
(0.0715083 0 0.000226617)
(0.0736464 0 0.00038057)
(0.0760784 0 0.000538767)
(0.0788375 0 0.000697635)
(0.0819388 0 0.000853814)
(0.0853646 0 0.00100501)
(0.0890442 0 0.00115016)
(0.0928246 0 0.00128639)
(0.0963922 0 0.00138177)
(0.0993043 0 0.00135991)
(0.00457789 0 -6.48111e-05)
(0.0131758 0 -0.000186354)
(0.0207458 0 -0.00029287)
(0.0273975 0 -0.00038554)
(0.0332372 0 -0.000465357)
(0.0383617 0 -0.000533023)
(0.0428381 0 -0.000588704)
(0.0467475 0 -0.000632733)
(0.0501785 0 -0.000665357)
(0.0531978 0 -0.000686459)
(0.0558706 0 -0.000695876)
(0.0582528 0 -0.000693562)
(0.0603961 0 -0.000678707)
(0.0623631 0 -0.000651237)
(0.0642172 0 -0.00061181)
(0.0660137 0 -0.000560598)
(0.0678085 0 -0.000498349)
(0.0696583 0 -0.000426357)
(0.0716207 0 -0.00034659)
(0.0737565 0 -0.000261858)
(0.0761133 0 -0.000173838)
(0.0787658 0 -8.90589e-05)
(0.081752 0 -1.23084e-05)
(0.0851128 0 5.16157e-05)
(0.0888748 0 9.90029e-05)
(0.0930386 0 0.000129823)
(0.09756 0 0.0001519)
(0.102321 0 0.000185487)
(0.106933 0 0.000240626)
(0.110656 0 0.000235499)
(0.00462832 0 -7.05398e-05)
(0.0133248 0 -0.000202992)
(0.0209912 0 -0.000319518)
(0.0277413 0 -0.000421598)
(0.0336843 0 -0.000510485)
(0.0389185 0 -0.000587092)
(0.043515 0 -0.000651731)
(0.0475597 0 -0.000705288)
(0.0511396 0 -0.000748129)
(0.0543229 0 -0.00078039)
(0.0571757 0 -0.000802184)
(0.0597506 0 -0.000813614)
(0.0621079 0 -0.000814918)
(0.0643135 0 -0.00080653)
(0.0664267 0 -0.000789364)
(0.0685042 0 -0.000764464)
(0.0706029 0 -0.000733433)
(0.0727796 0 -0.000698548)
(0.0750915 0 -0.000662889)
(0.0775953 0 -0.000630442)
(0.0803524 0 -0.000605642)
(0.0834161 0 -0.000594828)
(0.0868255 0 -0.000605368)
(0.0906236 0 -0.000645107)
(0.0948407 0 -0.000721738)
(0.0994874 0 -0.000840505)
(0.104544 0 -0.000997996)
(0.109953 0 -0.00116466)
(0.115372 0 -0.00124089)
(0.120175 0 -0.00119237)
(0.00175793 0 -0.000704294)
(0.00336017 0 -0.000713538)
(0.0063625 0 -0.000719459)
(0.0104591 0 -0.000723328)
(0.015326 0 -0.000723283)
(0.0206476 0 -0.000717658)
(0.0261365 0 -0.000705622)
(0.0315497 0 -0.000687104)
(0.0366981 0 -0.000662794)
(0.0414448 0 -0.000633851)
(0.0456978 0 -0.00060159)
(0.0493996 0 -0.000567253)
(0.052517 0 -0.000531877)
(0.0550337 0 -0.000496273)
(0.0569426 0 -0.000461133)
(0.0582409 0 -0.000426861)
(0.0589268 0 -0.000393674)
(0.0589971 0 -0.000361701)
(0.0584455 0 -0.000330955)
(0.0572614 0 -0.000301358)
(0.0554295 0 -0.000272787)
(0.0529297 0 -0.000245069)
(0.0497364 0 -0.000217986)
(0.0458191 0 -0.000191279)
(0.0411425 0 -0.000164642)
(0.0356665 0 -0.000137715)
(0.0293471 0 -0.000110077)
(0.022137 0 -8.12302e-05)
(0.0139869 0 -5.058e-05)
(0.0048383 0 -1.73792e-05)
(0.00349574 0 -0.00209246)
(0.00508114 0 -0.00212521)
(0.00804208 0 -0.00214887)
(0.0120791 0 -0.00216368)
(0.0168667 0 -0.00216483)
(0.0220892 0 -0.00214816)
(0.0274623 0 -0.00211178)
(0.0327476 0 -0.00205574)
(0.037763 0 -0.00198235)
(0.0423785 0 -0.00189524)
(0.046507 0 -0.00179841)
(0.0500942 0 -0.00169556)
(0.0531086 0 -0.00158975)
(0.0555341 0 -0.00148331)
(0.057364 0 -0.00137836)
(0.0585944 0 -0.00127605)
(0.0592222 0 -0.00117696)
(0.0592432 0 -0.00108151)
(0.0586499 0 -0.000989702)
(0.0574308 0 -0.000901306)
(0.0555695 0 -0.000815954)
(0.0530449 0 -0.000733125)
(0.0498307 0 -0.000652171)
(0.0458957 0 -0.000572321)
(0.041204 0 -0.000492662)
(0.035715 0 -0.00041212)
(0.029384 0 -0.000329433)
(0.0221634 0 -0.000243112)
(0.0140031 0 -0.000151386)
(0.00484386 0 -5.20173e-05)
(0.00676299 0 -0.0034404)
(0.00839121 0 -0.00350811)
(0.0113155 0 -0.00355927)
(0.0152556 0 -0.00359015)
(0.0198954 0 -0.00359412)
(0.0249255 0 -0.00356587)
(0.030071 0 -0.00350383)
(0.0351032 0 -0.00340845)
(0.039856 0 -0.00328442)
(0.044213 0 -0.00313824)
(0.0480968 0 -0.00297665)
(0.0514592 0 -0.00280575)
(0.0542716 0 -0.00263045)
(0.0565187 0 -0.00245421)
(0.0581941 0 -0.00228086)
(0.0592915 0 -0.00211198)
(0.0598054 0 -0.00194838)
(0.0597298 0 -0.00179079)
(0.0590551 0 -0.0016392)
(0.0577672 0 -0.00149316)
(0.0558481 0 -0.00135208)
(0.0532748 0 -0.00121509)
(0.0500194 0 -0.00108113)
(0.0460495 0 -0.000948935)
(0.0413279 0 -0.00081699)
(0.0358128 0 -0.000683522)
(0.0294587 0 -0.000546447)
(0.0222167 0 -0.000403302)
(0.0140357 0 -0.000251154)
(0.00485501 0 -8.63022e-05)
(0.0114626 0 -0.00477129)
(0.0131723 0 -0.00487469)
(0.0160687 0 -0.00495503)
(0.0198844 0 -0.00500219)
(0.0243177 0 -0.00500758)
(0.0290682 0 -0.00496463)
(0.0338804 0 -0.00487402)
(0.0385377 0 -0.00473556)
(0.0429039 0 -0.00455801)
(0.0468826 0 -0.00435118)
(0.05041 0 -0.00412455)
(0.0534457 0 -0.00388643)
(0.0559652 0 -0.00364331)
(0.0579528 0 -0.00339879)
(0.0594047 0 -0.00315944)
(0.0603092 0 -0.00292647)
(0.0606575 0 -0.00270052)
(0.0604417 0 -0.00248301)
(0.0596485 0 -0.00227372)
(0.0582604 0 -0.00207188)
(0.056257 0 -0.00187677)
(0.0536124 0 -0.00168717)
(0.0502968 0 -0.00150161)
(0.0462757 0 -0.00131835)
(0.0415101 0 -0.00113531)
(0.0359568 0 -0.000950042)
(0.0295686 0 -0.000759652)
(0.0222951 0 -0.000560735)
(0.0140836 0 -0.000349231)
(0.00487142 0 -0.00012001)
(0.0174835 0 -0.00610624)
(0.0193013 0 -0.00623941)
(0.0221717 0 -0.00634312)
(0.0258354 0 -0.00640087)
(0.0300095 0 -0.00640264)
(0.0343942 0 -0.00633774)
(0.0387498 0 -0.00620721)
(0.0429124 0 -0.00601906)
(0.0467796 0 -0.00578422)
(0.0502747 0 -0.00551534)
(0.053349 0 -0.00522421)
(0.0559713 0 -0.00492088)
(0.058121 0 -0.00461344)
(0.0597872 0 -0.00430695)
(0.0609568 0 -0.00400539)
(0.061616 0 -0.00371184)
(0.0617525 0 -0.0034263)
(0.061358 0 -0.00315196)
(0.0604134 0 -0.00288785)
(0.0588971 0 -0.00263267)
(0.0567854 0 -0.00238588)
(0.0540494 0 -0.00214574)
(0.0506561 0 -0.00191049)
(0.0465689 0 -0.00167792)
(0.0417465 0 -0.00144542)
(0.0361437 0 -0.00120988)
(0.0297113 0 -0.000967638)
(0.022397 0 -0.00071439)
(0.0141459 0 -0.000444988)
(0.0048927 0 -0.000152927)
(0.0247158 0 -0.00745382)
(0.0266498 0 -0.00760902)
(0.0294822 0 -0.00772679)
(0.0329574 0 -0.0077847)
(0.0367956 0 -0.0077696)
(0.0407052 0 -0.00767031)
(0.0444972 0 -0.00748981)
(0.0480699 0 -0.00724462)
(0.0513435 0 -0.00694869)
(0.0542671 0 -0.00661685)
(0.0568088 0 -0.00626256)
(0.0589472 0 -0.00589695)
(0.060666 0 -0.00552871)
(0.0619552 0 -0.00516485)
(0.062792 0 -0.00480642)
(0.0631644 0 -0.0044575)
(0.0630572 0 -0.00411901)
(0.0624523 0 -0.00379195)
(0.0613292 0 -0.0034767)
(0.0596602 0 -0.00317108)
(0.0574199 0 -0.00287556)
(0.0545749 0 -0.00258746)
(0.0510888 0 -0.00230487)
(0.0469222 0 -0.00202518)
(0.0420316 0 -0.00174525)
(0.0363692 0 -0.00146134)
(0.0298836 0 -0.00116908)
(0.02252 0 -0.000863307)
(0.014221 0 -0.000537834)
(0.0049184 0 -0.000184851)
(0.0330343 0 -0.00881058)
(0.0350765 0 -0.00898183)
(0.0378441 0 -0.00910389)
(0.0410814 0 -0.00914969)
(0.0444776 0 -0.00909859)
(0.0478132 0 -0.00894934)
(0.0509636 0 -0.00871162)
(0.0538589 0 -0.00840354)
(0.056458 0 -0.00804347)
(0.0587377 0 -0.00764847)
(0.0606837 0 -0.0072331)
(0.0622829 0 -0.00680885)
(0.063521 0 -0.00638413)
(0.064385 0 -0.00596539)
(0.0648526 0 -0.00555491)
(0.0649062 0 -0.00515555)
(0.0645269 0 -0.00476919)
(0.063688 0 -0.00439476)
(0.0623665 0 -0.00403329)
(0.0605299 0 -0.00368298)
(0.0581449 0 -0.00334241)
(0.0551763 0 -0.00300928)
(0.0515846 0 -0.00268212)
(0.0473276 0 -0.00235788)
(0.0423589 0 -0.0020329)
(0.0366283 0 -0.00170289)
(0.0300815 0 -0.00136278)
(0.0226613 0 -0.0010066)
(0.0143074 0 -0.000627222)
(0.00494794 0 -0.000215594)
(0.0422982 0 -0.0101709)
(0.0444302 0 -0.0103535)
(0.0470892 0 -0.0104682)
(0.0500037 0 -0.0104836)
(0.0528643 0 -0.0103792)
(0.0555361 0 -0.0101648)
(0.0579533 0 -0.0098579)
(0.0600934 0 -0.00948078)
(0.0619539 0 -0.00905473)
(0.0635376 0 -0.00859796)
(0.0648455 0 -0.00812519)
(0.0658706 0 -0.00764749)
(0.0665967 0 -0.00717201)
(0.0670116 0 -0.0067054)
(0.0670851 0 -0.00624864)
(0.0667975 0 -0.00580434)
(0.0661208 0 -0.00537288)
(0.0650306 0 -0.00495583)
(0.0634944 0 -0.00455267)
(0.0614768 0 -0.00416218)
(0.058939 0 -0.00378143)
(0.0558399 0 -0.00340848)
(0.0521322 0 -0.00303988)
(0.0477758 0 -0.002674)
(0.0427213 0 -0.00230669)
(0.0369154 0 -0.00193313)
(0.030301 0 -0.00154762)
(0.022818 0 -0.00114347)
(0.0144031 0 -0.000712657)
(0.00498066 0 -0.000244986)
(0.0523652 0 -0.0115339)
(0.0545596 0 -0.0117209)
(0.0570401 0 -0.0118108)
(0.0595138 0 -0.01177)
(0.0617368 0 -0.0115916)
(0.0636464 0 -0.0112958)
(0.0652477 0 -0.0109095)
(0.0665715 0 -0.0104594)
(0.0676508 0 -0.00996804)
(0.0685097 0 -0.0094533)
(0.0691607 0 -0.00892896)
(0.0695993 0 -0.00840504)
(0.0697989 0 -0.00788537)
(0.0697449 0 -0.00737585)
(0.0694139 0 -0.00687945)
(0.0687774 0 -0.00639706)
(0.0678018 0 -0.00592878)
(0.0664513 0 -0.00547453)
(0.0646919 0 -0.00503466)
(0.0624808 0 -0.00460666)
(0.0597782 0 -0.00418924)
(0.0565429 0 -0.00378079)
(0.0527194 0 -0.00337613)
(0.0482572 0 -0.00297181)
(0.043111 0 -0.00256516)
(0.0372243 0 -0.00215085)
(0.0305372 0 -0.00172265)
(0.0229865 0 -0.0012732)
(0.014506 0 -0.0007937)
(0.00501585 0 -0.000272878)
(0.0631075 0 -0.0129002)
(0.0653188 0 -0.0130784)
(0.067511 0 -0.013116)
(0.0694005 0 -0.0129873)
(0.0708489 0 -0.0127086)
(0.071892 0 -0.0123156)
(0.0726093 0 -0.0118434)
(0.0730797 0 -0.0113207)
(0.0733622 0 -0.0107689)
(0.0734935 0 -0.0102031)
(0.0734944 0 -0.00963545)
(0.0733414 0 -0.00907196)
(0.0730205 0 -0.00851715)
(0.0725044 0 -0.0079727)
(0.0717736 0 -0.00744321)
(0.0707901 0 -0.00692896)
(0.069517 0 -0.0064305)
(0.0679075 0 -0.0059457)
(0.0659252 0 -0.00547503)
(0.063523 0 -0.00501621)
(0.0606508 0 -0.00456615)
(0.0572685 0 -0.00412439)
(0.0533257 0 -0.00368752)
(0.0487615 0 -0.00324988)
(0.0435197 0 -0.00280707)
(0.0375487 0 -0.00235505)
(0.0307852 0 -0.00188705)
(0.0231633 0 -0.0013952)
(0.014614 0 -0.000869969)
(0.00505272 0 -0.000299137)
(0.0744116 0 -0.0142653)
(0.0765509 0 -0.0144101)
(0.0782732 0 -0.0143516)
(0.079381 0 -0.0140944)
(0.079903 0 -0.0136902)
(0.0799885 0 -0.0131904)
(0.0797833 0 -0.0126336)
(0.0793978 0 -0.0120459)
(0.0789015 0 -0.0114437)
(0.0783306 0 -0.0108374)
(0.0777033 0 -0.0102369)
(0.0769871 0 -0.00964426)
(0.0761726 0 -0.0090629)
(0.075226 0 -0.00849414)
(0.0741139 0 -0.00794005)
(0.0727957 0 -0.00740112)
(0.0712284 0 -0.0068773)
(0.069365 0 -0.00636744)
(0.0671613 0 -0.00587099)
(0.064572 0 -0.00538691)
(0.0615382 0 -0.00491069)
(0.0580086 0 -0.00443983)
(0.0539373 0 -0.0039728)
(0.0492699 0 -0.00350551)
(0.0439391 0 -0.00303144)
(0.0378819 0 -0.00254487)
(0.0310398 0 -0.00204014)
(0.0233445 0 -0.00150893)
(0.0147244 0 -0.00094114)
(0.00509046 0 -0.000323653)
(0.0861552 0 -0.0156111)
(0.0880379 0 -0.0156753)
(0.0889998 0 -0.0154563)
(0.089082 0 -0.0150274)
(0.0885393 0 -0.0144832)
(0.0876196 0 -0.0138812)
(0.0865048 0 -0.0132538)
(0.0853087 0 -0.0126179)
(0.0840923 0 -0.0119821)
(0.0828784 0 -0.0113508)
(0.0816715 0 -0.0107294)
(0.080452 0 -0.0101205)
(0.0791886 0 -0.00952332)
(0.0778446 0 -0.00893905)
(0.0763795 0 -0.00836867)
(0.0747487 0 -0.00781247)
(0.072905 0 -0.00727022)
(0.0707993 0 -0.00674106)
(0.0683826 0 -0.00622406)
(0.0656051 0 -0.00571784)
(0.0624145 0 -0.00522005)
(0.058748 0 -0.0047261)
(0.0545497 0 -0.0042328)
(0.0497711 0 -0.00373792)
(0.0443521 0 -0.00323611)
(0.0382177 0 -0.00271971)
(0.0312959 0 -0.00218135)
(0.023526 0 -0.00161397)
(0.014835 0 -0.00100694)
(0.0051282 0 -0.000346332)
(0.0981363 0 -0.0168894)
(0.0993822 0 -0.0167812)
(0.0991775 0 -0.0163201)
(0.0980044 0 -0.0156951)
(0.0963358 0 -0.0150252)
(0.0944516 0 -0.0143499)
(0.0925157 0 -0.0136824)
(0.090613 0 -0.0130253)
(0.0887789 0 -0.0123783)
(0.0870163 0 -0.0117407)
(0.0853115 0 -0.011114)
(0.0836538 0 -0.0105006)
(0.0819981 0 -0.0098982)
(0.0803026 0 -0.00930753)
(0.078522 0 -0.00872906)
(0.0766084 0 -0.00816293)
(0.074512 0 -0.00760889)
(0.0721815 0 -0.00706624)
(0.0695651 0 -0.00653398)
(0.0666102 0 -0.00601061)
(0.0632622 0 -0.00549392)
(0.0594646 0 -0.00498103)
(0.0551504 0 -0.00446686)
(0.0502636 0 -0.00394812)
(0.0447498 0 -0.00342065)
(0.0385406 0 -0.00287789)
(0.0315484 0 -0.00231026)
(0.0237035 0 -0.00170998)
(0.014943 0 -0.00106717)
(0.00516507 0 -0.000367102)
(0.109818 0 -0.0179709)
(0.109761 0 -0.0175219)
(0.108008 0 -0.0167648)
(0.105519 0 -0.0159876)
(0.102841 0 -0.0152593)
(0.100168 0 -0.0145709)
(0.0975915 0 -0.0139094)
(0.0951463 0 -0.0132655)
(0.0928372 0 -0.0126332)
(0.0906504 0 -0.0120098)
(0.0885577 0 -0.0113944)
(0.0865428 0 -0.0107885)
(0.0845611 0 -0.0101913)
(0.082567 0 -0.00960313)
(0.0805134 0 -0.00902438)
(0.0783509 0 -0.00845524)
(0.0760285 0 -0.00789563)
(0.0734939 0 -0.00734502)
(0.0706939 0 -0.0068025)
(0.0675742 0 -0.00626665)
(0.0640786 0 -0.00573536)
(0.0601488 0 -0.00520581)
(0.0557226 0 -0.0046742)
(0.0507371 0 -0.00413578)
(0.0451333 0 -0.00358621)
(0.038845 0 -0.00301932)
(0.0317838 0 -0.00242601)
(0.023872 0 -0.00179666)
(0.0150459 0 -0.00112166)
(0.00520017 0 -0.000385908)
(0.11941 0 -0.0184135)
(0.117591 0 -0.0174538)
(0.11443 0 -0.0165571)
(0.111051 0 -0.0158184)
(0.107754 0 -0.0151639)
(0.104614 0 -0.0145466)
(0.10165 0 -0.0139451)
(0.0988617 0 -0.0133499)
(0.0962364 0 -0.0127572)
(0.0937541 0 -0.012166)
(0.091385 0 -0.0115768)
(0.0891003 0 -0.0109908)
(0.0868606 0 -0.0104086)
(0.0846223 0 -0.00983122)
(0.0823392 0 -0.0092593)
(0.0799625 0 -0.00869345)
(0.0774418 0 -0.00813388)
(0.074725 0 -0.00758035)
(0.0717586 0 -0.00703217)
(0.0684876 0 -0.00648807)
(0.0648552 0 -0.00594613)
(0.0608024 0 -0.00540365)
(0.0562673 0 -0.00485707)
(0.0511865 0 -0.00430195)
(0.0454963 0 -0.0037334)
(0.0391272 0 -0.00314507)
(0.031998 0 -0.00252863)
(0.0240282 0 -0.00187394)
(0.0151414 0 -0.00117034)
(0.0052326 0 -0.000402713)
(0.00467942 0 -7.64187e-05)
(0.0134755 0 -0.000220079)
(0.0212392 0 -0.000346932)
(0.0280881 0 -0.000458786)
(0.0341343 0 -0.000557174)
(0.0394759 0 -0.000643239)
(0.0441941 0 -0.000717652)
(0.0483763 0 -0.000781585)
(0.0521037 0 -0.000835575)
(0.0554471 0 -0.000880065)
(0.0584732 0 -0.000915459)
(0.0612334 0 -0.000942001)
(0.0637958 0 -0.000961024)
(0.0662247 0 -0.000973335)
(0.0685772 0 -0.000980273)
(0.0709098 0 -0.000983605)
(0.0732782 0 -0.000985726)
(0.0757377 0 -0.000989812)
(0.0783428 0 -0.00099998)
(0.0811463 0 -0.00102146)
(0.0842097 0 -0.00106093)
(0.0875631 0 -0.00112447)
(0.0912404 0 -0.00122204)
(0.0952733 0 -0.00136506)
(0.0996753 0 -0.00156738)
(0.104434 0 -0.00184717)
(0.109495 0 -0.00223289)
(0.114715 0 -0.00278081)
(0.119744 0 -0.00361362)
(0.124336 0 -0.00512345)
(0.00473058 0 -8.24595e-05)
(0.0136265 0 -0.000237652)
(0.0214875 0 -0.000375169)
(0.0284354 0 -0.000497175)
(0.0345846 0 -0.000605512)
(0.0400357 0 -0.000701617)
(0.0448764 0 -0.000786602)
(0.0491925 0 -0.000861658)
(0.0530639 0 -0.000927651)
(0.0565622 0 -0.000985344)
(0.0597528 0 -0.00103547)
(0.0626927 0 -0.00107867)
(0.0654502 0 -0.00111682)
(0.068085 0 -0.00115117)
(0.0706535 0 -0.00118355)
(0.0732105 0 -0.00121632)
(0.0758089 0 -0.00125254)
(0.0785001 0 -0.00129608)
(0.0813334 0 -0.00135182)
(0.0843555 0 -0.00142582)
(0.0876115 0 -0.00152571)
(0.0911173 0 -0.0016583)
(0.0948946 0 -0.00183483)
(0.098949 0 -0.00206852)
(0.10326 0 -0.00237613)
(0.107771 0 -0.0027803)
(0.112368 0 -0.00331524)
(0.116863 0 -0.00403944)
(0.120943 0 -0.0050352)
(0.124293 0 -0.00644677)
(0.00478053 0 -8.85838e-05)
(0.0137741 0 -0.000255485)
(0.0217306 0 -0.000403872)
(0.0287756 0 -0.00053628)
(0.0350262 0 -0.000654877)
(0.0405852 0 -0.000761408)
(0.0455438 0 -0.00085732)
(0.0499877 0 -0.000943967)
(0.0539959 0 -0.0010225)
(0.0576399 0 -0.00109401)
(0.0609857 0 -0.00115957)
(0.064094 0 -0.00122042)
(0.0670275 0 -0.00127838)
(0.0698442 0 -0.00133525)
(0.0725985 0 -0.00139333)
(0.0753421 0 -0.00145542)
(0.0781236 0 -0.00152505)
(0.0809886 0 -0.0016065)
(0.0839784 0 -0.00170503)
(0.087129 0 -0.00182695)
(0.0904677 0 -0.0019797)
(0.0940049 0 -0.00217153)
(0.097741 0 -0.00241323)
(0.101657 0 -0.00271775)
(0.105705 0 -0.00310131)
(0.109799 0 -0.00358454)
(0.113824 0 -0.00419871)
(0.117571 0 -0.00497616)
(0.120778 0 -0.00595549)
(0.123236 0 -0.00722305)
(0.00482834 0 -9.4745e-05)
(0.0139158 0 -0.000273445)
(0.0219646 0 -0.000432828)
(0.0291036 0 -0.000575808)
(0.0354524 0 -0.000704887)
(0.0411156 0 -0.000822112)
(0.0461866 0 -0.000929222)
(0.0507509 0 -0.00102779)
(0.054887 0 -0.00111923)
(0.0586663 0 -0.00120492)
(0.0621543 0 -0.00128627)
(0.0654123 0 -0.00136489)
(0.0684994 0 -0.00144272)
(0.0714711 0 -0.00152195)
(0.0743786 0 -0.00160519)
(0.0772693 0 -0.00169556)
(0.0801867 0 -0.0017968)
(0.0831692 0 -0.0019134)
(0.0862498 0 -0.00205066)
(0.0894531 0 -0.00221476)
(0.0927935 0 -0.00241285)
(0.0962705 0 -0.00265303)
(0.0998688 0 -0.00294516)
(0.103553 0 -0.00330043)
(0.107264 0 -0.00373341)
(0.110911 0 -0.00425976)
(0.114362 0 -0.00489642)
(0.117443 0 -0.00565634)
(0.11999 0 -0.00656572)
(0.121841 0 -0.00766471)
(0.00487308 0 -0.000100889)
(0.0140488 0 -0.000291376)
(0.0221853 0 -0.000461785)
(0.029414 0 -0.000615414)
(0.0358564 0 -0.000755092)
(0.0416186 0 -0.000883159)
(0.0467952 0 -0.00100162)
(0.0514715 0 -0.00111228)
(0.0557253 0 -0.0012168)
(0.0596275 0 -0.0013168)
(0.0632428 0 -0.00141399)
(0.0666312 0 -0.0015102)
(0.069849 0 -0.00160757)
(0.0729482 0 -0.0017085)
(0.0759764 0 -0.00181581)
(0.0789763 0 -0.00193275)
(0.0819853 0 -0.00206312)
(0.0850351 0 -0.00221134)
(0.0881501 0 -0.0023825)
(0.0913454 0 -0.00258235)
(0.0946249 0 -0.00281748)
(0.0979789 0 -0.00309489)
(0.101383 0 -0.00342356)
(0.104797 0 -0.00381269)
(0.108153 0 -0.00427141)
(0.111353 0 -0.0048079)
(0.11429 0 -0.00542997)
(0.116845 0 -0.00614622)
(0.118901 0 -0.00696729)
(0.120351 0 -0.00790075)
(0.00491385 0 -0.000106953)
(0.0141708 0 -0.000309097)
(0.0223887 0 -0.000490455)
(0.0297013 0 -0.000654699)
(0.0362314 0 -0.000804976)
(0.0420862 0 -0.000943904)
(0.0473603 0 -0.00107374)
(0.052139 0 -0.00119649)
(0.0564993 0 -0.00131404)
(0.060511 0 -0.00142825)
(0.0642375 0 -0.00154101)
(0.0677368 0 -0.00165436)
(0.071062 0 -0.00177054)
(0.0742617 0 -0.00189208)
(0.0773796 0 -0.00202186)
(0.0804535 0 -0.00216316)
(0.0835148 0 -0.00231963)
(0.0865887 0 -0.00249543)
(0.0896924 0 -0.00269529)
(0.0928333 0 -0.00292415)
(0.0960085 0 -0.00318817)
(0.0992061 0 -0.00349353)
(0.102394 0 -0.00384634)
(0.105518 0 -0.00425214)
(0.108517 0 -0.00471538)
(0.111313 0 -0.0052411)
(0.113825 0 -0.00583286)
(0.115967 0 -0.00649307)
(0.11766 0 -0.00722186)
(0.118839 0 -0.00801144)
(0.00494978 0 -0.000112868)
(0.0142791 0 -0.000326407)
(0.022571 0 -0.000518513)
(0.0299605 0 -0.000693214)
(0.0365712 0 -0.000853961)
(0.0425106 0 -0.00100363)
(0.0478734 0 -0.00114469)
(0.0527439 0 -0.00127937)
(0.0571983 0 -0.00140971)
(0.0613054 0 -0.00153776)
(0.0651266 0 -0.00166559)
(0.0687172 0 -0.00179531)
(0.0721273 0 -0.00192923)
(0.0754018 0 -0.0020699)
(0.0785807 0 -0.00222016)
(0.0816973 0 -0.00238324)
(0.0847769 0 -0.00256245)
(0.0878395 0 -0.00276146)
(0.0908969 0 -0.00298482)
(0.0939552 0 -0.00323706)
(0.0970049 0 -0.00352263)
(0.100021 0 -0.00384568)
(0.10297 0 -0.00420944)
(0.105808 0 -0.00461772)
(0.108482 0 -0.00507305)
(0.110933 0 -0.00557714)
(0.113096 0 -0.00613018)
(0.114915 0 -0.0067303)
(0.116337 0 -0.00737206)
(0.117325 0 -0.00804299)
(0.00498004 0 -0.000118556)
(0.0143714 0 -0.000343081)
(0.0227284 0 -0.000545597)
(0.0301866 0 -0.000730465)
(0.0368696 0 -0.000901415)
(0.0428849 0 -0.00106155)
(0.0483264 0 -0.00121355)
(0.0532776 0 -0.00135979)
(0.0578131 0 -0.00150247)
(0.0620008 0 -0.00164376)
(0.0659003 0 -0.00178588)
(0.0695634 0 -0.00193095)
(0.0730369 0 -0.00208127)
(0.0763621 0 -0.00223929)