/*--------------------------------*- C++ -*----------------------------------*\
| =========                 |                                                 |
| \\      /  F ield         | OpenFOAM: The Open Source CFD Toolbox           |
|  \\    /   O peration     | Version:  dev                                   |
|   \\  /    A nd           | Web:      www.OpenFOAM.org                      |
|    \\/     M anipulation  |                                                 |
\*---------------------------------------------------------------------------*/
FoamFile
{
    version     2.0;
    format      ascii;
    class       volVectorField;
    location    "2.67";
    object      cellDisplacement;
}
// * * * * * * * * * * * * * * * * * * * * * * * * * * * * * * * * * * * * * //

dimensions      [0 1 0 0 0 0 0];

internalField   nonuniform List<vector> 
2790
(
(0.0105227 0 -3.62229e-05)
(0.0300347 0 -0.000103701)
(0.0466721 0 -0.000162592)
(0.0606807 0 -0.000214319)
(0.0723232 0 -0.000260251)
(0.0818398 0 -0.000300682)
(0.0894466 0 -0.000336368)
(0.095326 0 -0.000367652)
(0.0996359 0 -0.000394633)
(0.102515 0 -0.000416822)
(0.104087 0 -0.000433998)
(0.10446 0 -0.000445731)
(0.10373 0 -0.000451396)
(0.101982 0 -0.00045015)
(0.0992935 0 -0.000440958)
(0.0957366 0 -0.000422683)
(0.0913861 0 -0.000394708)
(0.0863053 0 -0.000353612)
(0.080558 0 -0.000298233)
(0.0742139 0 -0.000226486)
(0.0673487 0 -0.000135956)
(0.0600467 0 -2.4061e-05)
(0.052401 0 0.000112091)
(0.0445129 0 0.000275675)
(0.0365289 0 0.000471044)
(0.0286292 0 0.00070191)
(0.0210519 0 0.00097275)
(0.0141494 0 0.0012874)
(0.00848433 0 0.00164171)
(0.00524136 0 0.00198469)
(0.010537 0 -0.000108794)
(0.0300775 0 -0.000311494)
(0.0467426 0 -0.00048845)
(0.060781 0 -0.000643891)
(0.0724532 0 -0.000782169)
(0.0820005 0 -0.000903814)
(0.0896431 0 -0.00101133)
(0.0955631 0 -0.00110571)
(0.0999181 0 -0.00118742)
(0.102847 0 -0.00125474)
(0.104477 0 -0.00130716)
(0.104915 0 -0.00134343)
(0.104258 0 -0.00136171)
(0.102593 0 -0.00135951)
(0.0999988 0 -0.00133371)
(0.0965454 0 -0.00128059)
(0.0923124 0 -0.00119611)
(0.0873705 0 -0.00107582)
(0.0817792 0 -0.000913846)
(0.0756126 0 -0.000703838)
(0.06895 0 -0.00043867)
(0.0618851 0 -0.000110995)
(0.0545244 0 0.000287599)
(0.0469657 0 0.000767733)
(0.0393575 0 0.00133916)
(0.0319116 0 0.00200969)
(0.0248753 0 0.00278702)
(0.0186324 0 0.00367261)
(0.0138759 0 0.00464079)
(0.0118658 0 0.00550506)
(0.0105663 0 -0.000181706)
(0.0301644 0 -0.000520349)
(0.0468852 0 -0.000816152)
(0.0609838 0 -0.00107596)
(0.0727145 0 -0.00130534)
(0.0823223 0 -0.00150854)
(0.0900364 0 -0.00168854)
(0.0960371 0 -0.00184689)
(0.100482 0 -0.00198499)
(0.10351 0 -0.0020989)
(0.105252 0 -0.00218852)
(0.105818 0 -0.00225178)
(0.105307 0 -0.00228583)
(0.103807 0 -0.00228664)
(0.101399 0 -0.00224923)
(0.0981605 0 -0.00216759)
(0.0941653 0 -0.00203416)
(0.089492 0 -0.00184413)
(0.084209 0 -0.00158754)
(0.0783936 0 -0.00125423)
(0.072126 0 -0.00083272)
(0.0655181 0 -0.000312626)
(0.0586844 0 0.000319431)
(0.0517609 0 0.00107724)
(0.0449104 0 0.00197227)
(0.0383746 0 0.00301193)
(0.0324367 0 0.00419688)
(0.0274594 0 0.00551332)
(0.0241687 0 0.0068774)
(0.0241054 0 0.0079582)
(0.0106106 0 -0.000254686)
(0.0302954 0 -0.000729482)
(0.0470978 0 -0.0011445)
(0.0612733 0 -0.00150892)
(0.0730919 0 -0.00183003)
(0.0828009 0 -0.00211585)
(0.0906226 0 -0.00236949)
(0.0967442 0 -0.00259299)
(0.101319 0 -0.00278652)
(0.104493 0 -0.00294882)
(0.106402 0 -0.00307841)
(0.107156 0 -0.00317231)
(0.106859 0 -0.00322697)
(0.105603 0 -0.00323705)
(0.103471 0 -0.00319606)
(0.100547 0 -0.00309645)
(0.0969097 0 -0.00292944)
(0.0926394 0 -0.00268604)
(0.0878158 0 -0.00235477)
(0.0825274 0 -0.00192336)
(0.0768622 0 -0.00137787)
(0.0709284 0 -0.000703431)
(0.0648691 0 0.000113)
(0.0588383 0 0.00108493)
(0.0530347 0 0.0022221)
(0.0477598 0 0.00352332)
(0.0433639 0 0.00496837)
(0.0402454 0 0.00650483)
(0.0389252 0 0.00800307)
(0.0412502 0 0.00898172)
(0.0106688 0 -0.000327335)
(0.0304685 0 -0.000937743)
(0.0473783 0 -0.0014718)
(0.0616581 0 -0.00194095)
(0.0735937 0 -0.0023561)
(0.0834325 0 -0.00272574)
(0.091395 0 -0.00305451)
(0.0976705 0 -0.00334497)
(0.102418 0 -0.00359675)
(0.10579 0 -0.00381099)
(0.107919 0 -0.00398487)
(0.108922 0 -0.00411465)
(0.108907 0 -0.00419688)
(0.10797 0 -0.00422495)
(0.106201 0 -0.00419129)
(0.103688 0 -0.00408737)
(0.100518 0 -0.00390315)
(0.0967754 0 -0.0036275)
(0.09255 0 -0.00324758)
(0.0879333 0 -0.00274903)
(0.083055 0 -0.00212073)
(0.0780182 0 -0.00134494)
(0.072982 0 -0.00041013)
(0.0681353 0 0.000691957)
(0.0636887 0 0.0019664)
(0.0599417 0 0.00339905)
(0.0573945 0 0.00493127)
(0.0565249 0 0.00645797)
(0.0577513 0 0.00782191)
(0.0625787 0 0.00843229)
(0.0107399 0 -0.000399929)
(0.0306829 0 -0.00114598)
(0.0477244 0 -0.00179801)
(0.0621325 0 -0.00237182)
(0.0742119 0 -0.00288112)
(0.0842081 0 -0.00333538)
(0.0923428 0 -0.00374059)
(0.0988094 0 -0.00410034)
(0.103774 0 -0.00441659)
(0.107385 0 -0.00468704)
(0.109785 0 -0.00491055)
(0.111092 0 -0.00508231)
(0.111424 0 -0.00520068)
(0.110878 0 -0.00525737)
(0.109551 0 -0.00524423)
(0.107541 0 -0.00515261)
(0.104941 0 -0.00497182)
(0.101845 0 -0.00468997)
(0.0983562 0 -0.00429424)
(0.0945812 0 -0.00377134)
(0.0906392 0 -0.00310692)
(0.0866768 0 -0.00228955)
(0.0828614 0 -0.00131001)
(0.0794388 0 -0.000171318)
(0.0766642 0 0.00111493)
(0.074795 0 0.00252556)
(0.0743002 0 0.00397796)
(0.0758896 0 0.00529248)
(0.0799911 0 0.00625604)
(0.0874168 0 0.00627909)
(0.0108225 0 -0.000472362)
(0.0309205 0 -0.00135348)
(0.0481186 0 -0.00212372)
(0.0626926 0 -0.00280326)
(0.074943 0 -0.00340761)
(0.0851243 0 -0.00394795)
(0.0934618 0 -0.00443167)
(0.100155 0 -0.00486329)
(0.105367 0 -0.00524412)
(0.109257 0 -0.00557492)
(0.111974 0 -0.00585437)
(0.113646 0 -0.00607923)
(0.114385 0 -0.00624401)
(0.114296 0 -0.00634156)
(0.113486 0 -0.00636384)
(0.112062 0 -0.00630352)
(0.110126 0 -0.00614978)
(0.107783 0 -0.00589088)
(0.105137 0 -0.0055135)
(0.102345 0 -0.00501184)
(0.0995117 0 -0.00436961)
(0.0968103 0 -0.00358126)
(0.0944301 0 -0.00264369)
(0.0925955 0 -0.00156399)
(0.0916715 0 -0.000382992)
(0.0919774 0 0.000845415)
(0.0938282 0 0.00203415)
(0.0979701 0 0.00295571)
(0.104968 0 0.00331049)
(0.11515 0 0.00256728)
(0.0109162 0 -0.000544218)
(0.0311945 0 -0.00155969)
(0.0485728 0 -0.00244901)
(0.0633338 0 -0.00323475)
(0.0757797 0 -0.00393507)
(0.0861719 0 -0.00456301)
(0.0947399 0 -0.00512738)
(0.101685 0 -0.00563351)
(0.10718 0 -0.00608268)
(0.111393 0 -0.00647934)
(0.114472 0 -0.00682157)
(0.116556 0 -0.00710791)
(0.117754 0 -0.00732955)
(0.118183 0 -0.00748127)
(0.117951 0 -0.00755466)
(0.117189 0 -0.00754653)
(0.116005 0 -0.00744588)
(0.114515 0 -0.00724297)
(0.112841 0 -0.00692719)
(0.111127 0 -0.00649106)
(0.109528 0 -0.00592855)
(0.108227 0 -0.00523904)
(0.107477 0 -0.0044364)
(0.107475 0 -0.00353167)
(0.108538 0 -0.00257139)
(0.11114 0 -0.00165997)
(0.115617 0 -0.000915129)
(0.122423 0 -0.000554485)
(0.132335 0 -0.000967817)
(0.145238 0 -0.00259556)
(0.0110203 0 -0.000615416)
(0.031501 0 -0.00176427)
(0.0490798 0 -0.00277189)
(0.0640471 0 -0.00366363)
(0.0767098 0 -0.00446028)
(0.0873354 0 -0.00517684)
(0.0961587 0 -0.00582369)
(0.103386 0 -0.0064075)
(0.109199 0 -0.00693178)
(0.113768 0 -0.00739976)
(0.117245 0 -0.00781095)
(0.119773 0 -0.00816399)
(0.121475 0 -0.00845327)
(0.122475 0 -0.00867376)
(0.122894 0 -0.00881956)
(0.12286 0 -0.00888583)
(0.122497 0 -0.00886497)
(0.121936 0 -0.0087501)
(0.12132 0 -0.0085358)
(0.120801 0 -0.00821769)
(0.120557 0 -0.00779721)
(0.120798 0 -0.00728247)
(0.121759 0 -0.0066917)
(0.123768 0 -0.00607258)
(0.127057 0 -0.00546941)
(0.13205 0 -0.0049966)
(0.13926 0 -0.00483983)
(0.148898 0 -0.00519414)
(0.161721 0 -0.00649)
(0.177183 0 -0.00905324)
(0.0111345 0 -0.000686182)
(0.0318382 0 -0.00196782)
(0.0496366 0 -0.00309346)
(0.0648293 0 -0.00409148)
(0.0777291 0 -0.00498531)
(0.0886101 0 -0.00579201)
(0.0977124 0 -0.00652366)
(0.105248 0 -0.00718844)
(0.111407 0 -0.00779153)
(0.116361 0 -0.00833622)
(0.120267 0 -0.00882297)
(0.123278 0 -0.00925225)
(0.125524 0 -0.00962048)
(0.127138 0 -0.00992386)
(0.128251 0 -0.0101584)
(0.128998 0 -0.0103208)
(0.129515 0 -0.0104065)
(0.129947 0 -0.0104128)
(0.130458 0 -0.0103401)
(0.131208 0 -0.0101881)
(0.132399 0 -0.00996711)
(0.134293 0 -0.00970212)
(0.137109 0 -0.00941595)
(0.141161 0 -0.00916402)
(0.146834 0 -0.00903963)
(0.154387 0 -0.00913921)
(0.164405 0 -0.00968899)
(0.177027 0 -0.0108874)
(0.192713 0 -0.0131341)
(0.210506 0 -0.016628)
(0.011258 0 -0.000756365)
(0.0322025 0 -0.00216987)
(0.0502378 0 -0.00341307)
(0.0656728 0 -0.00451744)
(0.0788278 0 -0.00550912)
(0.0899831 0 -0.00640731)
(0.0993849 0 -0.00722587)
(0.107252 0 -0.00797463)
(0.113779 0 -0.00866038)
(0.119142 0 -0.00928707)
(0.123504 0 -0.00985554)
(0.127027 0 -0.0103701)
(0.12985 0 -0.0108283)
(0.132112 0 -0.0112281)
(0.133956 0 -0.0115685)
(0.135524 0 -0.0118479)
(0.136961 0 -0.0120654)
(0.138424 0 -0.0122223)
(0.140121 0 -0.0123312)
(0.142198 0 -0.012393)
(0.144895 0 -0.0124301)
(0.14846 0 -0.0124717)
(0.153213 0 -0.0125722)
(0.15942 0 -0.0127877)
(0.167483 0 -0.0132281)
(0.177797 0 -0.0140347)
(0.190674 0 -0.0153904)
(0.206398 0 -0.0175381)
(0.22483 0 -0.0207513)
(0.244721 0 -0.0251309)
(0.0113883 0 -0.000825423)
(0.0325881 0 -0.00236891)
(0.0508741 0 -0.00372834)
(0.0665654 0 -0.00493836)
(0.07999 0 -0.00602785)
(0.0914347 0 -0.00701821)
(0.101152 0 -0.00792513)
(0.109366 0 -0.00876016)
(0.11628 0 -0.00953202)
(0.122073 0 -0.0102459)
(0.126921 0 -0.0109061)
(0.130982 0 -0.0115144)
(0.134405 0 -0.012073)
(0.13734 0 -0.0125821)
(0.139938 0 -0.0130435)
(0.14235 0 -0.013459)
(0.144734 0 -0.0138319)
(0.147275 0 -0.0141727)
(0.150156 0 -0.0144919)
(0.153572 0 -0.0148055)
(0.157803 0 -0.0151514)
(0.163084 0 -0.0155632)
(0.169736 0 -0.0161047)
(0.178142 0 -0.0168714)
(0.188623 0 -0.0179642)
(0.201695 0 -0.0195681)
(0.217485 0 -0.0218248)
(0.236355 0 -0.0249977)
(0.257432 0 -0.0291658)
(0.279244 0 -0.0343693)
(0.0115252 0 -0.000893535)
(0.032993 0 -0.00256543)
(0.0515426 0 -0.0040401)
(0.0675032 0 -0.00535539)
(0.0812108 0 -0.00654294)
(0.0929587 0 -0.00762637)
(0.103005 0 -0.00862323)
(0.111581 0 -0.00954678)
(0.118898 0 -0.0104082)
(0.125141 0 -0.0112145)
(0.13049 0 -0.0119722)
(0.135095 0 -0.0126803)
(0.139134 0 -0.0133483)
(0.142754 0 -0.0139777)
(0.146119 0 -0.0145741)
(0.149386 0 -0.0151423)
(0.152717 0 -0.0156892)
(0.156339 0 -0.0162381)
(0.160408 0 -0.0167976)
(0.165168 0 -0.0174)
(0.170876 0 -0.0180847)
(0.177844 0 -0.0189133)
(0.186359 0 -0.0199505)
(0.19686 0 -0.021317)
(0.209699 0 -0.023132)
(0.225356 0 -0.0255825)
(0.244015 0 -0.0288198)
(0.265882 0 -0.0330557)
(0.289547 0 -0.0381742)
(0.313221 0 -0.0441594)
(0.0116673 0 -0.000960499)
(0.0334135 0 -0.00275883)
(0.0522371 0 -0.00434741)
(0.0684775 0 -0.00576726)
(0.0824789 0 -0.00705279)
(0.0945408 0 -0.00822986)
(0.104926 0 -0.00931785)
(0.113874 0 -0.0103314)
(0.121606 0 -0.0112854)
(0.128305 0 -0.0121872)
(0.134152 0 -0.0130439)
(0.139322 0 -0.0138612)
(0.143985 0 -0.0146472)
(0.148294 0 -0.0154065)
(0.152425 0 -0.0161492)
(0.156541 0 -0.0168837)
(0.160825 0 -0.0176247)
(0.165481 0 -0.0183934)
(0.1707 0 -0.0192124)
(0.176758 0 -0.0201278)
(0.183897 0 -0.0211828)
(0.192421 0 -0.0224467)
(0.202716 0 -0.0240202)
(0.215109 0 -0.0260083)
(0.230094 0 -0.0285823)
(0.247985 0 -0.0318946)
(0.269136 0 -0.0361426)
(0.293527 0 -0.0414541)
(0.319512 0 -0.0475407)
(0.345168 0 -0.0543563)
(0.0118121 0 -0.00102573)
(0.0338431 0 -0.00294749)
(0.0529475 0 -0.00464771)
(0.0694749 0 -0.00617057)
(0.0837771 0 -0.00755319)
(0.0961599 0 -0.00882372)
(0.106889 0 -0.0100034)
(0.116223 0 -0.0111109)
(0.124377 0 -0.0121598)
(0.131539 0 -0.0131603)
(0.137893 0 -0.0141213)
(0.143624 0 -0.0150518)
(0.148902 0 -0.0159607)
(0.153888 0 -0.0168561)
(0.158773 0 -0.0177535)
(0.163721 0 -0.0186646)
(0.168921 0 -0.0196087)
(0.174567 0 -0.0206096)
(0.18089 0 -0.021704)
(0.188132 0 -0.0229358)
(0.196587 0 -0.0243724)
(0.206522 0 -0.0260809)
(0.218351 0 -0.028185)
(0.232346 0 -0.0307886)
(0.249021 0 -0.0340915)
(0.268566 0 -0.0382332)
(0.291396 0 -0.043458)
(0.317121 0 -0.0498088)
(0.344244 0 -0.0569482)
(0.372181 0 -0.0650205)
(0.00685909 0 -0.00246883)
(0.0146371 0 -0.00282994)
(0.0307012 0 -0.00330875)
(0.0548098 0 -0.00387888)
(0.0845176 0 -0.00440933)
(0.116216 0 -0.00483207)
(0.146299 0 -0.00506539)
(0.172589 0 -0.00517864)
(0.194254 0 -0.00513608)
(0.211325 0 -0.00499542)
(0.224296 0 -0.00480474)
(0.233737 0 -0.00458532)
(0.240109 0 -0.00432532)
(0.243788 0 -0.00405535)
(0.245074 0 -0.00379429)
(0.244169 0 -0.00350879)
(0.24122 0 -0.0032327)
(0.236326 0 -0.00296665)
(0.229511 0 -0.00271032)
(0.220788 0 -0.00246039)
(0.210136 0 -0.00222145)
(0.19751 0 -0.00198373)
(0.182865 0 -0.00176016)
(0.166096 0 -0.00154198)
(0.147132 0 -0.00132536)
(0.125889 0 -0.00110694)
(0.102281 0 -0.000883267)
(0.0762202 0 -0.00065055)
(0.0476272 0 -0.000404498)
(0.0163409 0 -0.000139307)
(0.0125351 0 -0.00748479)
(0.0208915 0 -0.00856215)
(0.0374903 0 -0.0100384)
(0.0616443 0 -0.0116607)
(0.0909874 0 -0.0131954)
(0.121953 0 -0.0143672)
(0.151172 0 -0.0150633)
(0.176587 0 -0.0153343)
(0.197439 0 -0.0151936)
(0.213861 0 -0.0147787)
(0.226324 0 -0.0142039)
(0.235351 0 -0.0135302)
(0.241391 0 -0.012754)
(0.244818 0 -0.0119541)
(0.245908 0 -0.0111648)
(0.244851 0 -0.010352)
(0.24178 0 -0.00953955)
(0.236791 0 -0.00875741)
(0.229902 0 -0.00800518)
(0.221119 0 -0.00726782)
(0.210424 0 -0.00656752)
(0.197758 0 -0.00588207)
(0.183067 0 -0.00522465)
(0.166265 0 -0.00458039)
(0.147274 0 -0.00393925)
(0.126007 0 -0.00329172)
(0.102378 0 -0.00262773)
(0.0762949 0 -0.00193609)
(0.0476777 0 -0.00120416)
(0.0163604 0 -0.000414781)
(0.0232559 0 -0.0126986)
(0.0329349 0 -0.0145596)
(0.0504004 0 -0.017003)
(0.0745751 0 -0.0195718)
(0.10325 0 -0.0219517)
(0.132872 0 -0.0237167)
(0.160436 0 -0.0247374)
(0.184147 0 -0.0250412)
(0.203499 0 -0.0247458)
(0.218695 0 -0.0240451)
(0.230178 0 -0.0230869)
(0.23842 0 -0.0219634)
(0.243847 0 -0.0207193)
(0.246793 0 -0.0194144)
(0.247505 0 -0.0181114)
(0.246153 0 -0.016805)
(0.242855 0 -0.0155133)
(0.237679 0 -0.014248)
(0.23065 0 -0.013037)
(0.22175 0 -0.0118573)
(0.210954 0 -0.0107294)
(0.198206 0 -0.00963501)
(0.183441 0 -0.00856998)
(0.166579 0 -0.0075208)
(0.147537 0 -0.00647342)
(0.126225 0 -0.00541309)
(0.102554 0 -0.00432369)
(0.0764297 0 -0.00318716)
(0.0477676 0 -0.00198299)
(0.0163943 0 -0.000683172)
(0.0385752 0 -0.0183576)
(0.0500516 0 -0.0210417)
(0.0684628 0 -0.0243363)
(0.0927544 0 -0.0277768)
(0.120359 0 -0.0307615)
(0.148047 0 -0.0329007)
(0.173246 0 -0.0340256)
(0.194645 0 -0.0342461)
(0.21198 0 -0.0337488)
(0.225485 0 -0.0327213)
(0.23561 0 -0.0313809)
(0.242768 0 -0.0298332)
(0.247332 0 -0.0281492)
(0.249606 0 -0.0263996)
(0.249786 0 -0.0246302)
(0.248014 0 -0.0228616)
(0.244387 0 -0.0211259)
(0.238951 0 -0.0194309)
(0.231711 0 -0.0178027)
(0.22264 0 -0.0162279)
(0.211701 0 -0.0147075)
(0.198833 0 -0.0132291)
(0.183967 0 -0.0117817)
(0.167019 0 -0.0103498)
(0.147903 0 -0.00891601)
(0.126527 0 -0.00746082)
(0.102796 0 -0.00596272)
(0.076613 0 -0.00439731)
(0.0478879 0 -0.00273677)
(0.0164389 0 -0.000942949)
(0.0579297 0 -0.0246469)
(0.0713707 0 -0.0281225)
(0.0908075 0 -0.0321895)
(0.115065 0 -0.0363069)
(0.141218 0 -0.039674)
(0.166428 0 -0.0418957)
(0.188787 0 -0.0429337)
(0.207444 0 -0.0429453)
(0.222365 0 -0.0421789)
(0.233841 0 -0.0408137)
(0.242327 0 -0.0390922)
(0.248163 0 -0.0371427)
(0.251675 0 -0.0350387)
(0.253121 0 -0.032878)
(0.252639 0 -0.0306842)
(0.250355 0 -0.0285153)
(0.246317 0 -0.0263778)
(0.240552 0 -0.024306)
(0.233044 0 -0.0223045)
(0.223755 0 -0.0203665)
(0.212634 0 -0.0184862)
(0.199615 0 -0.0166512)
(0.18462 0 -0.0148471)
(0.167564 0 -0.0130559)
(0.148355 0 -0.0112566)
(0.126897 0 -0.00942593)
(0.10309 0 -0.00753739)
(0.0768338 0 -0.00556084)
(0.048031 0 -0.00346182)
(0.0164911 0 -0.00119278)
(0.0807911 0 -0.0316734)
(0.096152 0 -0.0358724)
(0.116586 0 -0.0406038)
(0.140453 0 -0.0451292)
(0.164752 0 -0.0486185)
(0.187071 0 -0.0506911)
(0.206232 0 -0.0514488)
(0.221841 0 -0.0511266)
(0.234081 0 -0.0499989)
(0.243331 0 -0.0482841)
(0.249985 0 -0.0461879)
(0.254343 0 -0.0438582)
(0.256683 0 -0.0413862)
(0.257177 0 -0.0388332)
(0.255951 0 -0.03627)
(0.253078 0 -0.0337447)
(0.248571 0 -0.0312697)
(0.242423 0 -0.028863)
(0.234601 0 -0.0265288)
(0.225055 0 -0.0242619)
(0.21372 0 -0.0220538)
(0.200522 0 -0.0198908)
(0.185376 0 -0.0177561)
(0.168193 0 -0.0156292)
(0.148874 0 -0.0134865)
(0.127319 0 -0.0113007)
(0.103423 0 -0.00904131)
(0.0770815 0 -0.00667287)
(0.0481896 0 -0.00415496)
(0.0165483 0 -0.00143154)
(0.106666 0 -0.039464)
(0.123837 0 -0.0443213)
(0.145062 0 -0.0495568)
(0.168061 0 -0.0542077)
(0.189958 0 -0.0574909)
(0.209065 0 -0.0591963)
(0.224753 0 -0.0594951)
(0.237144 0 -0.0587329)
(0.246586 0 -0.0571938)
(0.253502 0 -0.0551037)
(0.258227 0 -0.0526407)
(0.261022 0 -0.0499511)
(0.262119 0 -0.0471434)
(0.26162 0 -0.0442645)
(0.259607 0 -0.0413949)
(0.256097 0 -0.0385665)
(0.251074 0 -0.035796)
(0.244503 0 -0.0330954)
(0.236332 0 -0.0304672)
(0.226497 0 -0.027906)
(0.214923 0 -0.0254017)
(0.201524 0 -0.0229394)
(0.186209 0 -0.0205005)
(0.168882 0 -0.0180622)
(0.14944 0 -0.0155984)
(0.127776 0 -0.0130789)
(0.103782 0 -0.0104692)
(0.077346 0 -0.00772927)
(0.0483573 0 -0.00481353)
(0.0166081 0 -0.00165826)
(0.135097 0 -0.0479902)
(0.153888 0 -0.0534229)
(0.175543 0 -0.0589564)
(0.197003 0 -0.0633946)
(0.215947 0 -0.0661593)
(0.231477 0 -0.0672585)
(0.243564 0 -0.0669722)
(0.252698 0 -0.0656935)
(0.259336 0 -0.0637109)
(0.263914 0 -0.0612397)
(0.266703 0 -0.058427)
(0.267948 0 -0.0554237)
(0.267801 0 -0.0523252)
(0.266309 0 -0.0491862)
(0.263488 0 -0.0460602)
(0.259315 0 -0.0429774)
(0.253748 0 -0.0399543)
(0.246728 0 -0.0369999)
(0.238185 0 -0.0341149)
(0.22804 0 -0.0312933)
(0.216207 0 -0.028524)
(0.20259 0 -0.025791)
(0.187093 0 -0.023074)
(0.16961 0 -0.0203487)
(0.150034 0 -0.0175868)
(0.128254 0 -0.0147554)
(0.104154 0 -0.0118166)
(0.0776176 0 -0.0087267)
(0.0485279 0 -0.00543533)
(0.0166684 0 -0.00187217)
(0.165663 0 -0.05719)
(0.185802 0 -0.0630811)
(0.207237 0 -0.0686115)
(0.226372 0 -0.0724703)
(0.241808 0 -0.0744223)
(0.253478 0 -0.0747145)
(0.26197 0 -0.0737612)
(0.267909 0 -0.0719299)
(0.271831 0 -0.0694963)
(0.274163 0 -0.0666607)
(0.27513 0 -0.063548)
(0.274913 0 -0.0602898)
(0.273572 0 -0.0569593)
(0.271104 0 -0.0536066)
(0.267478 0 -0.0502717)
(0.262638 0 -0.04698)
(0.256517 0 -0.043746)
(0.249036 0 -0.0405762)
(0.240108 0 -0.0374703)
(0.22964 0 -0.0344214)
(0.217535 0 -0.0314174)
(0.203691 0 -0.0284415)
(0.188001 0 -0.0254725)
(0.170355 0 -0.0224845)
(0.150638 0 -0.0194475)
(0.128736 0 -0.0163263)
(0.104527 0 -0.0130804)
(0.0778874 0 -0.00966255)
(0.0486957 0 -0.00601867)
(0.0167271 0 -0.00207266)
(0.198009 0 -0.0669811)
(0.219085 0 -0.0731543)
(0.239298 0 -0.0782546)
(0.255239 0 -0.0811498)
(0.266674 0 -0.0820408)
(0.274366 0 -0.0814086)
(0.279343 0 -0.0797456)
(0.282248 0 -0.0773641)
(0.283672 0 -0.0745181)
(0.283967 0 -0.0713669)
(0.283296 0 -0.0680194)
(0.281732 0 -0.0645628)
(0.279273 0 -0.061055)
(0.275874 0 -0.0575366)
(0.271469 0 -0.0540385)
(0.265977 0 -0.0505809)
(0.259308 0 -0.0471756)
(0.251366 0 -0.0438274)
(0.242049 0 -0.0405347)
(0.231254 0 -0.03729)
(0.218874 0 -0.0340806)
(0.204796 0 -0.0308891)
(0.188908 0 -0.0276934)
(0.171095 0 -0.0244668)
(0.151235 0 -0.0211776)
(0.129208 0 -0.017789)
(0.104888 0 -0.014258)
(0.0781467 0 -0.0105349)
(0.0488553 0 -0.00656228)
(0.0167824 0 -0.00225929)
(0.231851 0 -0.0772757)
(0.253175 0 -0.0834301)
(0.270807 0 -0.087543)
(0.282606 0 -0.0890858)
(0.289685 0 -0.0887482)
(0.293484 0 -0.08717)
(0.295119 0 -0.0848064)
(0.295334 0 -0.0819472)
(0.294601 0 -0.0787675)
(0.293139 0 -0.0753795)
(0.291021 0 -0.071858)
(0.288246 0 -0.0682602)
(0.284766 0 -0.0646275)
(0.280503 0 -0.0609907)
(0.275366 0 -0.0573729)
(0.269251 0 -0.0537898)
(0.262053 0 -0.0502507)
(0.25366 0 -0.0467589)
(0.243962 0 -0.0433118)
(0.232843 0 -0.0399013)
(0.220188 0 -0.0365145)
(0.205877 0 -0.0331336)
(0.189791 0 -0.029736)
(0.17181 0 -0.0262941)
(0.151807 0 -0.0227754)
(0.129656 0 -0.0191416)
(0.105228 0 -0.0153479)
(0.0783876 0 -0.0113425)
(0.0490018 0 -0.00706533)
(0.0168326 0 -0.00243178)
(0.266956 0 -0.0879656)
(0.287195 0 -0.0935346)
(0.300512 0 -0.0959766)
(0.307338 0 -0.0958584)
(0.309953 0 -0.0942465)
(0.310174 0 -0.0918138)
(0.308963 0 -0.088883)
(0.306969 0 -0.085664)
(0.304456 0 -0.0822538)
(0.30152 0 -0.078713)
(0.29816 0 -0.0750846)
(0.294326 0 -0.0714033)
(0.289937 0 -0.0676967)
(0.284893 0 -0.0639868)
(0.279083 0 -0.0602906)
(0.272387 0 -0.0566196)
(0.264689 0 -0.0529814)
(0.255868 0 -0.0493784)
(0.245803 0 -0.0458072)
(0.23437 0 -0.0422594)
(0.221446 0 -0.0387217)
(0.206906 0 -0.0351764)
(0.190627 0 -0.0316006)
(0.172481 0 -0.0279664)
(0.152338 0 -0.0242405)
(0.130068 0 -0.0203835)
(0.105536 0 -0.0163494)
(0.0786028 0 -0.0120846)
(0.0491308 0 -0.00752737)
(0.0168761 0 -0.00258997)
(0.302875 0 -0.098814)
(0.319489 0 -0.102753)
(0.326744 0 -0.102868)
(0.328198 0 -0.100998)
(0.326855 0 -0.0983124)
(0.324146 0 -0.0952353)
(0.320772 0 -0.0919467)
(0.317064 0 -0.0885232)
(0.313136 0 -0.0849977)
(0.309001 0 -0.0813921)
(0.304608 0 -0.077726)
(0.299874 0 -0.0740182)
(0.294698 0 -0.0702863)
(0.288964 0 -0.0665459)
(0.282549 0 -0.0628097)
(0.275324 0 -0.0590852)
(0.267164 0 -0.05538)
(0.257943 0 -0.0516958)
(0.247531 0 -0.0480288)
(0.2358 0 -0.0443699)
(0.222619 0 -0.0407063)
(0.207861 0 -0.0370203)
(0.191395 0 -0.0332891)
(0.17309 0 -0.0294847)
(0.152814 0 -0.0255732)
(0.130431 0 -0.0215147)
(0.105803 0 -0.0172623)
(0.0787859 0 -0.0127611)
(0.0492383 0 -0.00794831)
(0.0169116 0 -0.00273385)
(0.337965 0 -0.109048)
(0.347006 0 -0.109776)
(0.347615 0 -0.107379)
(0.344612 0 -0.104165)
(0.340298 0 -0.100811)
(0.33551 0 -0.0974316)
(0.330568 0 -0.0940202)
(0.325591 0 -0.0905587)
(0.320589 0 -0.0870368)
(0.315517 0 -0.0834542)
(0.310294 0 -0.0798173)
(0.304819 0 -0.0761367)
(0.29898 0 -0.0724244)
(0.292652 0 -0.0686926)
(0.285709 0 -0.0649514)
(0.278009 0 -0.0612036)
(0.269431 0 -0.0574602)
(0.259843 0 -0.0537224)
(0.249113 0 -0.0499857)
(0.237103 0 -0.04624)
(0.223682 0 -0.0424737)
(0.208717 0 -0.0386694)
(0.192075 0 -0.0348046)
(0.173623 0 -0.0308511)
(0.153223 0 -0.0267751)
(0.130736 0 -0.0225364)
(0.106021 0 -0.0180873)
(0.0789312 0 -0.0133725)
(0.0493209 0 -0.00832839)
(0.0169381 0 -0.00286351)
(0.36645 0 -0.116086)
(0.368028 0 -0.112935)
(0.362548 0 -0.108635)
(0.356501 0 -0.105022)
(0.350347 0 -0.10169)
(0.344272 0 -0.0984312)
(0.338328 0 -0.0951539)
(0.332503 0 -0.0918192)
(0.326751 0 -0.088413)
(0.320997 0 -0.0849338)
(0.315143 0 -0.081387)
(0.309087 0 -0.077782)
(0.30271 0 -0.0741299)
(0.295891 0 -0.0704418)
(0.288504 0 -0.0667297)
(0.280401 0 -0.0629929)
(0.27145 0 -0.0592369)
(0.261535 0 -0.0554707)
(0.250519 0 -0.0516886)
(0.238254 0 -0.0478776)
(0.224611 0 -0.0440303)
(0.209456 0 -0.0401285)
(0.192652 0 -0.0361505)
(0.174064 0 -0.0320683)
(0.153551 0 -0.0278482)
(0.130972 0 -0.0234498)
(0.106183 0 -0.0188255)
(0.0790334 0 -0.0139195)
(0.0493755 0 -0.00866808)
(0.0169543 0 -0.00297913)
(0.0119623 0 -0.00109059)
(0.0342884 0 -0.00313531)
(0.0536845 0 -0.00494706)
(0.0705105 0 -0.00657344)
(0.0851253 0 -0.00805417)
(0.0978416 0 -0.0094198)
(0.108935 0 -0.0106942)
(0.118663 0 -0.0118982)
(0.12724 0 -0.0130438)
(0.134872 0 -0.014147)
(0.141737 0 -0.0152167)
(0.148032 0 -0.0162656)
(0.153927 0 -0.0173041)
(0.159585 0 -0.0183425)
(0.165215 0 -0.0194037)
(0.170965 0 -0.0204982)
(0.177039 0 -0.0216526)
(0.183628 0 -0.0228943)
(0.190987 0 -0.0242725)
(0.199319 0 -0.0258284)
(0.208927 0 -0.0276396)
(0.220085 0 -0.0297879)
(0.233121 0 -0.0323875)
(0.24833 0 -0.0355672)
(0.266057 0 -0.0395058)
(0.286428 0 -0.0443664)
(0.309543 0 -0.0503869)
(0.334523 0 -0.0576652)
(0.359678 0 -0.0664442)
(0.382869 0 -0.0779122)
(0.0121181 0 -0.00115546)
(0.0347509 0 -0.00332337)
(0.0544509 0 -0.00524739)
(0.0715879 0 -0.0069783)
(0.0865282 0 -0.00855875)
(0.0995905 0 -0.0100215)
(0.111056 0 -0.0113925)
(0.12118 0 -0.012693)
(0.130199 0 -0.0139418)
(0.138314 0 -0.0151525)
(0.145701 0 -0.0163368)
(0.152561 0 -0.0175096)
(0.159064 0 -0.0186827)
(0.165396 0 -0.0198736)
(0.171733 0 -0.0210997)
(0.178258 0 -0.0223842)
(0.185165 0 -0.0237558)
(0.192635 0 -0.025243)
(0.200917 0 -0.0268996)
(0.210232 0 -0.0287805)
(0.220793 0 -0.0309468)
(0.232911 0 -0.0335031)
(0.246765 0 -0.0365351)
(0.262647 0 -0.0401889)
(0.280665 0 -0.0445978)
(0.300753 0 -0.0498986)
(0.322521 0 -0.0562128)
(0.34462 0 -0.0634662)
(0.365023 0 -0.0714597)
(0.381641 0 -0.0799675)
(0.0122771 0 -0.00121945)
(0.0352229 0 -0.00350912)
(0.0552353 0 -0.00554472)
(0.0726927 0 -0.00738012)
(0.0879657 0 -0.00906033)
(0.101381 0 -0.0106209)
(0.113224 0 -0.0120895)
(0.123757 0 -0.0134894)
(0.133223 0 -0.0148435)
(0.141809 0 -0.0161628)
(0.149709 0 -0.0174634)
(0.157124 0 -0.0187626)
(0.164226 0 -0.0200742)
(0.171204 0 -0.0214201)
(0.178225 0 -0.0228171)
(0.185464 0 -0.0242894)
(0.193118 0 -0.025871)
(0.201391 0 -0.027602)
(0.210455 0 -0.029521)
(0.220545 0 -0.0316945)
(0.231825 0 -0.0341779)
(0.24455 0 -0.037071)
(0.258798 0 -0.0404405)
(0.27477 0 -0.0444182)
(0.292293 0 -0.0490596)
(0.311098 0 -0.05444)
(0.330393 0 -0.0605067)
(0.348848 0 -0.0670695)
(0.365048 0 -0.073914)
(0.377522 0 -0.0807934)
(0.012438 0 -0.00128215)
(0.035699 0 -0.00369118)
(0.0560284 0 -0.00583671)
(0.0738142 0 -0.00777607)
(0.089425 0 -0.00955565)
(0.103196 0 -0.0112136)
(0.115416 0 -0.0127799)
(0.126365 0 -0.014282)
(0.136269 0 -0.01574)
(0.14532 0 -0.0171682)
(0.153727 0 -0.0185873)
(0.161679 0 -0.0200143)
(0.169356 0 -0.0214662)
(0.176932 0 -0.0229622)
(0.184585 0 -0.0245274)
(0.192479 0 -0.0261846)
(0.20079 0 -0.0279663)
(0.209716 0 -0.0299173)
(0.219398 0 -0.0320718)
(0.23004 0 -0.0344937)
(0.241776 0 -0.0372379)
(0.25474 0 -0.0403747)
(0.268971 0 -0.0439662)
(0.284449 0 -0.0480799)
(0.300859 0 -0.0527172)
(0.317761 0 -0.057869)
(0.334338 0 -0.0634131)
(0.349635 0 -0.0691919)
(0.362688 0 -0.0750328)
(0.372442 0 -0.0806504)
(0.0125981 0 -0.00134268)
(0.0361704 0 -0.00386701)
(0.0568211 0 -0.00612065)
(0.0749407 0 -0.00816253)
(0.0908913 0 -0.0100404)
(0.105018 0 -0.0117949)
(0.117623 0 -0.013459)
(0.128983 0 -0.015063)
(0.139304 0 -0.0166229)
(0.148818 0 -0.0181624)
(0.157714 0 -0.019699)
(0.166168 0 -0.0212492)
(0.174384 0 -0.0228382)
(0.182512 0 -0.0244815)
(0.19072 0 -0.0262029)
(0.19918 0 -0.0280328)
(0.208036 0 -0.0299971)
(0.217468 0 -0.0321398)
(0.227606 0 -0.0344977)
(0.23858 0 -0.0371175)
(0.250485 0 -0.040047)
(0.263355 0 -0.0433304)
(0.277153 0 -0.0470058)
(0.291702 0 -0.0510839)
(0.306653 0 -0.0555384)
(0.321536 0 -0.0603132)
(0.33572 0 -0.0653017)
(0.348515 0 -0.0703718)
(0.35921 0 -0.0753508)
(0.36714 0 -0.0799984)
(0.0127591 0 -0.00140105)
(0.0366596 0 -0.00403844)
(0.0576285 0 -0.00639662)
(0.0760617 0 -0.00853614)
(0.0923471 0 -0.0105095)
(0.106826 0 -0.0123589)
(0.119814 0 -0.0141206)
(0.131569 0 -0.0158222)
(0.142305 0 -0.0174835)
(0.152263 0 -0.0191323)
(0.161604 0 -0.0207805)
(0.170534 0 -0.0224515)
(0.179243 0 -0.0241707)
(0.18786 0 -0.0259521)
(0.196546 0 -0.0278181)
(0.205468 0 -0.029801)
(0.214762 0 -0.0319277)
(0.224555 0 -0.034231)
(0.234958 0 -0.0367455)
(0.246042 0 -0.0395035)
(0.25785 0 -0.0425394)
(0.270337 0 -0.045871)
(0.283389 0 -0.0495084)
(0.296788 0 -0.0534362)
(0.310219 0 -0.0576182)
(0.323269 0 -0.0619885)
(0.335454 0 -0.0664528)
(0.346267 0 -0.0708961)
(0.355203 0 -0.0751578)
(0.361868 0 -0.0790646)
(0.0129186 0 -0.00145674)
(0.0371384 0 -0.00420163)
(0.0584181 0 -0.00665903)
(0.0771611 0 -0.0088923)
(0.0937753 0 -0.0109575)
(0.108615 0 -0.0129007)
(0.121975 0 -0.0147575)
(0.134095 0 -0.0165519)
(0.145228 0 -0.0183116)
(0.155599 0 -0.0200626)
(0.165362 0 -0.0218188)
(0.174731 0 -0.0236061)
(0.183875 0 -0.0254458)
(0.192904 0 -0.0273501)
(0.201996 0 -0.0293477)
(0.21128 0 -0.0314626)
(0.220878 0 -0.033721)
(0.230879 0 -0.0361469)
(0.241364 0 -0.0387682)
(0.25235 0 -0.0416015)
(0.263825 0 -0.0446641)
(0.275707 0 -0.0479581)
(0.287869 0 -0.0514799)
(0.300095 0 -0.055204)
(0.312103 0 -0.059086)
(0.323556 0 -0.0630615)
(0.334099 0 -0.0670546)
(0.343338 0 -0.0709504)
(0.350935 0 -0.0746215)
(0.356681 0 -0.0779554)
(0.0130718 0 -0.00150858)
(0.0375986 0 -0.00435383)
(0.0591816 0 -0.00690481)
(0.0782232 0 -0.0092265)
(0.0951588 0 -0.01138)
(0.110348 0 -0.0134125)
(0.124065 0 -0.0153586)
(0.136546 0 -0.0172437)
(0.148058 0 -0.0190991)
(0.158804 0 -0.0209453)
(0.168951 0 -0.022802)
(0.178708 0 -0.024695)
(0.188223 0 -0.0266429)
(0.197596 0 -0.0286559)
(0.206999 0 -0.030764)
(0.216536 0 -0.0329853)
(0.226308 0 -0.0353423)
(0.236368 0 -0.0378492)
(0.246755 0 -0.0405228)
(0.25746 0 -0.0433703)
(0.26845 0 -0.0463991)
(0.279637 0 -0.0496047)
(0.290881 0 -0.052971)
(0.301985 0 -0.056467)
(0.312713 0 -0.0600473)
(0.322817 0 -0.0636619)
(0.331998 0 -0.0672288)
(0.339967 0 -0.0706489)
(0.346532 0 -0.0738402)
(0.351575 0 -0.0767214)
(0.0132164 0 -0.00155576)
(0.0380353 0 -0.0044929)
(0.0599123 0 -0.00713069)
(0.0792592 0 -0.00953677)
(0.0964941 0 -0.0117717)
(0.112003 0 -0.0138865)
(0.126068 0 -0.015918)
(0.138899 0 -0.0178894)
(0.150746 0 -0.0198302)
(0.161831 0 -0.021765)
(0.172328 0 -0.0237141)
(0.182414 0 -0.0257002)
(0.19223 0 -0.0277402)
(0.20187 0 -0.0298442)
(0.211491 0 -0.0320399)
(0.221173 0 -0.0343391)
(0.230982 0 -0.0367562)
(0.240954 0 -0.0392999)
(0.251111 0 -0.0419807)
(0.261434 0 -0.0448014)
(0.271872 0 -0.0477596)
(0.282331 0 -0.050844)
(0.292681 0 -0.0540332)
(0.302751 0 -0.0572941)
(0.312372 0 -0.0605934)
(0.321318 0 -0.063872)
(0.329352 0 -0.0670532)
(0.336303 0 -0.0700725)
(0.342052 0 -0.0728697)
(0.34653 0 -0.0753855)
(0.0133518 0 -0.0015978)
(0.0384452 0 -0.00461729)
(0.060602 0 -0.00733373)
(0.0802363 0 -0.00981627)
(0.097761 0 -0.0121257)
(0.113578 0 -0.0143172)
(0.127959 0 -0.0164259)
(0.141104 0 -0.0184744)
(0.153256 0 -0.0204919)
(0.164655 0 -0.0225081)
(0.175448 0 -0.0245379)
(0.185804 0 -0.0266032)
(0.195847 0 -0.0287171)
(0.205674 0 -0.0308916)
(0.21541 0 -0.0331465)
(0.225119 0 -0.035491)
(0.234856 0 -0.0379345)
(0.244649 0 -0.0404834)
(0.2545 0 -0.0431408)
(0.264382 0 -0.0459043)