/*--------------------------------*- C++ -*----------------------------------*\
| =========                 |                                                 |
| \\      /  F ield         | OpenFOAM: The Open Source CFD Toolbox           |
|  \\    /   O peration     | Version:  dev                                   |
|   \\  /    A nd           | Web:      www.OpenFOAM.org                      |
|    \\/     M anipulation  |                                                 |
\*---------------------------------------------------------------------------*/
FoamFile
{
    version     2.0;
    format      ascii;
    class       pointVectorField;
    location    "2.67";
    object      pointDisplacement;
}
// * * * * * * * * * * * * * * * * * * * * * * * * * * * * * * * * * * * * * //

dimensions      [0 1 0 0 0 0 0];

internalField   nonuniform List<vector> 
5828
(
(0 0 0)
(0.0203147 0 0)
(0.0383858 0 0)
(0.0537015 0 0)
(0.0665212 0 0)
(0.077096 0 0)
(0.0856538 0 0)
(0.0923939 0 0)
(0.0974861 0 0)
(0.101079 0 0)
(0.103303 0 0)
(0.104274 0 0)
(0.104095 0 0)
(0.102855 0 0)
(0.100636 0 0)
(0.0975125 0 0)
(0.0935584 0 0)
(0.0888424 0 0)
(0.0834282 0 0)
(0.0773824 0 0)
(0.0707778 0 0)
(0.0636942 0 0)
(0.0562206 0 0)
(0.0484539 0 0)
(0.0405182 0 0)
(0.0325768 0 0)
(0.0248389 0 0)
(0.0175997 0 0)
(0.011317 0 0)
(0.00686064 0 0)
(0 0 0)
(0 0 0)
(0.0203285 0 -0.000140298)
(0.0384134 0 -0.00026678)
(0.0537435 0 -0.000377488)
(0.066578 0 -0.000475296)
(0.0771679 0 -0.000561837)
(0.0857425 0 -0.000638132)
(0.0925018 0 -0.000705328)
(0.0976155 0 -0.000763901)
(0.101232 0 -0.000813434)
(0.103483 0 -0.000853196)
(0.104485 0 -0.000882583)
(0.10434 0 -0.000900558)
(0.10314 0 -0.000905671)
(0.100965 0 -0.000896053)
(0.0978917 0 -0.000869452)
(0.0939932 0 -0.000823487)
(0.0893416 0 -0.000755027)
(0.0840014 0 -0.000660348)
(0.0780394 0 -0.000535586)
(0.0715301 0 -0.000376249)
(0.0645569 0 -0.000177473)
(0.0572142 0 6.60441e-05)
(0.0496016 0 0.000360569)
(0.0418426 0 0.000713065)
(0.0341089 0 0.00112993)
(0.0266199 0 0.00161705)
(0.0196808 0 0.00217878)
(0.013789 0 0.00280896)
(0.00986554 0 0.00344152)
(0.00429467 0 0.00438259)
(0 0 0)
(0.0203719 0 -0.000281078)
(0.0384992 0 -0.000534555)
(0.0538726 0 -0.000756464)
(0.0667516 0 -0.000952117)
(0.0773864 0 -0.00112518)
(0.0860107 0 -0.00127822)
(0.0928271 0 -0.00141325)
(0.0980048 0 -0.00153135)
(0.101692 0 -0.00163157)
(0.104023 0 -0.00171236)
(0.105116 0 -0.00177273)
(0.105074 0 -0.00181067)
(0.10399 0 -0.00182338)
(0.101948 0 -0.00180722)
(0.0990241 0 -0.00175771)
(0.0952939 0 -0.00166954)
(0.090833 0 -0.00153748)
(0.0857107 0 -0.00135527)
(0.0799968 0 -0.00111482)
(0.073769 0 -0.000807372)
(0.0671187 0 -0.000423833)
(0.0601523 0 4.56627e-05)
(0.0529835 0 0.000612655)
(0.0457486 0 0.00128853)
(0.0386388 0 0.00208238)
(0.0318997 0 0.00300008)
(0.0258508 0 0.00404062)
(0.0210326 0 0.0051736)
(0.0184974 0 0.00624394)
(0.0141536 0 0.00774165)
(0 0 0)
(0.020445 0 -0.000422296)
(0.0386426 0 -0.000803288)
(0.0540846 0 -0.00113691)
(0.0670345 0 -0.00143048)
(0.0777463 0 -0.00169026)
(0.0864557 0 -0.00192086)
(0.0933673 0 -0.00212467)
(0.0986504 0 -0.00230299)
(0.102454 0 -0.0024549)
(0.104916 0 -0.00257871)
(0.106157 0 -0.00267277)
(0.106285 0 -0.0027342)
(0.105393 0 -0.00275907)
(0.103568 0 -0.00274216)
(0.100893 0 -0.00267723)
(0.0974435 0 -0.00255679)
(0.0932993 0 -0.00237332)
(0.0885368 0 -0.002118)
(0.0832343 0 -0.00177989)
(0.0774752 0 -0.00134701)
(0.0713568 0 -0.000806717)
(0.0649982 0 -0.000146095)
(0.0585365 0 0.000648277)
(0.0521343 0 0.00158851)
(0.0460175 0 0.00268144)
(0.0404801 0 0.00392377)
(0.0358706 0 0.0052941)
(0.0326914 0 0.00672255)
(0.0321004 0 0.00795487)
(0.0293903 0 0.009663)
(0 0 0)
(0.0205468 0 -0.000563301)
(0.0388421 0 -0.00107177)
(0.0543766 0 -0.00151725)
(0.067423 0 -0.00190956)
(0.0782438 0 -0.00225737)
(0.0870731 0 -0.00256674)
(0.0941154 0 -0.00284075)
(0.099543 0 -0.0030805)
(0.103508 0 -0.0032859)
(0.106152 0 -0.00345584)
(0.1076 0 -0.00358758)
(0.107961 0 -0.00367767)
(0.107334 0 -0.00372139)
(0.10581 0 -0.00371222)
(0.103475 0 -0.00364265)
(0.100413 0 -0.00350393)
(0.096708 0 -0.00328635)
(0.0924425 0 -0.00297879)
(0.087704 0 -0.00256852)
(0.0825917 0 -0.00204263)
(0.077213 0 -0.0013867)
(0.0716963 0 -0.000586453)
(0.0662026 0 0.0003697)
(0.0609199 0 0.00149089)
(0.0561007 0 0.00277699)
(0.0521071 0 0.00420456)
(0.0493703 0 0.00571467)
(0.0483451 0 0.00719616)
(0.0501113 0 0.00831123)
(0.0491221 0 0.00997011)
(0 0 0)
(0.0206764 0 -0.000703986)
(0.039096 0 -0.0013395)
(0.0547483 0 -0.00189652)
(0.067918 0 -0.0023882)
(0.0788758 0 -0.00282514)
(0.0878551 0 -0.00321449)
(0.0950619 0 -0.00356044)
(0.100673 0 -0.00386491)
(0.104845 0 -0.00412801)
(0.107721 0 -0.00434845)
(0.10943 0 -0.00452312)
(0.110086 0 -0.0046486)
(0.109794 0 -0.00471988)
(0.108648 0 -0.00472932)
(0.106743 0 -0.00466869)
(0.104169 0 -0.00452851)
(0.101017 0 -0.00429785)
(0.0973787 0 -0.00396455)
(0.0933519 0 -0.00351527)
(0.0890486 0 -0.00293675)
(0.0845933 0 -0.00221532)
(0.0801299 0 -0.00133852)
(0.0758486 0 -0.000299823)
(0.0719744 0 0.00090047)
(0.0687629 0 0.00225137)
(0.0665954 0 0.00370834)
(0.0660096 0 0.00516526)
(0.067515 0 0.00645841)
(0.0719186 0 0.00720049)
(0.0726552 0 0.0086265)
(0 0 0)
(0.0208281 0 -0.000844427)
(0.0393944 0 -0.00160664)
(0.0551922 0 -0.00227526)
(0.0685142 0 -0.00286679)
(0.0796363 0 -0.00339368)
(0.0887949 0 -0.00386442)
(0.0961999 0 -0.00428438)
(0.102032 0 -0.00465639)
(0.106449 0 -0.00498088)
(0.109602 0 -0.00525684)
(0.111625 0 -0.00548166)
(0.112636 0 -0.00565153)
(0.112745 0 -0.0057608)
(0.112051 0 -0.00580159)
(0.110658 0 -0.00576582)
(0.108665 0 -0.00564415)
(0.106171 0 -0.00542527)
(0.103277 0 -0.00509677)
(0.100101 0 -0.00464731)
(0.0967647 0 -0.00406448)
(0.0934041 0 -0.00333637)
(0.0901882 0 -0.00245565)
(0.0873235 0 -0.00142177)
(0.0850822 0 -0.000250262)
(0.0837633 0 0.00102656)
(0.0837076 0 0.00234694)
(0.085474 0 0.00356706)
(0.0896748 0 0.00445731)
(0.0968668 0 0.00460756)
(0.0993811 0 0.00565063)
(0 0 0)
(0.0210004 0 -0.000984176)
(0.0397347 0 -0.00187304)
(0.0557049 0 -0.00265392)
(0.0692067 0 -0.00334616)
(0.0805194 0 -0.0039642)
(0.0898854 0 -0.00451812)
(0.0975184 0 -0.00501444)
(0.103602 0 -0.00545626)
(0.108303 0 -0.00584552)
(0.111776 0 -0.00618271)
(0.114163 0 -0.00646583)
(0.115585 0 -0.00669015)
(0.116154 0 -0.00684899)
(0.115978 0 -0.00693515)
(0.11517 0 -0.00694187)
(0.113843 0 -0.00686108)
(0.112104 0 -0.00668195)
(0.110065 0 -0.00639313)
(0.107858 0 -0.00598532)
(0.105622 0 -0.00544959)
(0.103513 0 -0.00477884)
(0.101728 0 -0.00397417)
(0.100484 0 -0.00304282)
(0.100057 0 -0.00201116)
(0.100814 0 -0.000940335)
(0.103118 0 7.88817e-05)
(0.107432 0 0.000883971)
(0.114389 0 0.00119193)
(0.124413 0 0.000583217)
(0.128735 0 0.0011074)
(0 0 0)
(0.0211954 0 -0.00112289)
(0.0401205 0 -0.00213801)
(0.0562842 0 -0.00303124)
(0.0699874 0 -0.00382456)
(0.0815142 0 -0.0045347)
(0.0911127 0 -0.00517345)
(0.0990008 0 -0.00574858)
(0.105369 0 -0.00626429)
(0.110389 0 -0.00672369)
(0.114222 0 -0.0071281)
(0.117013 0 -0.0074762)
(0.11889 0 -0.00776367)
(0.119971 0 -0.00798436)
(0.120374 0 -0.00813211)
(0.120222 0 -0.00820135)
(0.119635 0 -0.0081854)
(0.118735 0 -0.00807547)
(0.117649 0 -0.00786338)
(0.116517 0 -0.00754216)
(0.115497 0 -0.00710769)
(0.11477 0 -0.00656068)
(0.114555 0 -0.00591101)
(0.115107 0 -0.00518126)
(0.116693 0 -0.0044089)
(0.119676 0 -0.00367125)
(0.12449 0 -0.00309847)
(0.131517 0 -0.00286992)
(0.141306 0 -0.00329354)
(0.154117 0 -0.00477294)
(0.160194 0 -0.00484416)
(0 0 0)
(0.0214114 0 -0.00126066)
(0.0405478 0 -0.00240138)
(0.0569244 0 -0.00340672)
(0.0708489 0 -0.00430146)
(0.0826114 0 -0.00510463)
(0.0924657 0 -0.00582987)
(0.100635 0 -0.00648647)
(0.107316 0 -0.00708031)
(0.112688 0 -0.00761518)
(0.116913 0 -0.00809271)
(0.120142 0 -0.00851267)
(0.122513 0 -0.00887251)
(0.124153 0 -0.00916775)
(0.125188 0 -0.00939369)
(0.125749 0 -0.00954584)
(0.125965 0 -0.0096191)
(0.125971 0 -0.00960802)
(0.125911 0 -0.00950894)
(0.125942 0 -0.00931946)
(0.126234 0 -0.00904133)
(0.127003 0 -0.00868571)
(0.128478 0 -0.00827112)
(0.130935 0 -0.00783357)
(0.134686 0 -0.00743302)
(0.140058 0 -0.00715675)
(0.147495 0 -0.00716011)
(0.15736 0 -0.00764461)
(0.17005 0 -0.00891675)
(0.185539 0 -0.0113246)
(0.193315 0 -0.0120246)
(0 0 0)
(0.0216467 0 -0.00139754)
(0.0410132 0 -0.00266331)
(0.0576207 0 -0.00378065)
(0.0717852 0 -0.00477727)
(0.0838032 0 -0.00567459)
(0.0939345 0 -0.00648813)
(0.102408 0 -0.00722888)
(0.109428 0 -0.00790432)
(0.115177 0 -0.00851923)
(0.119821 0 -0.00907574)
(0.123521 0 -0.00957538)
(0.12642 0 -0.0100178)
(0.128656 0 -0.0104001)
(0.130363 0 -0.0107195)
(0.131681 0 -0.0109736)
(0.132747 0 -0.0111597)
(0.133709 0 -0.0112761)
(0.134733 0 -0.0113258)
(0.135991 0 -0.011312)
(0.137668 0 -0.0112431)
(0.140002 0 -0.0111409)
(0.143257 0 -0.0110381)
(0.14771 0 -0.0109818)
(0.153704 0 -0.0110506)
(0.161598 0 -0.0113546)
(0.171783 0 -0.0120558)
(0.184586 0 -0.0133665)
(0.200205 0 -0.0155675)
(0.218211 0 -0.0189121)
(0.227724 0 -0.020264)
(0 0 0)
(0.0218982 0 -0.00153288)
(0.0415105 0 -0.00292253)
(0.0583646 0 -0.00415128)
(0.0727849 0 -0.00524978)
(0.0850749 0 -0.0062419)
(0.0955008 0 -0.00714516)
(0.104298 0 -0.00797227)
(0.111676 0 -0.00873245)
(0.117823 0 -0.00943183)
(0.122913 0 -0.010074)
(0.12711 0 -0.0106618)
(0.130567 0 -0.0111965)
(0.133427 0 -0.0116778)
(0.135836 0 -0.0121054)
(0.137941 0 -0.0124794)
(0.13989 0 -0.0128005)
(0.141845 0 -0.0130724)
(0.14399 0 -0.0133036)
(0.146506 0 -0.0135042)
(0.14961 0 -0.0136934)
(0.153551 0 -0.013902)
(0.158611 0 -0.0141752)
(0.165112 0 -0.0145803)
(0.173396 0 -0.0152078)
(0.183872 0 -0.016192)
(0.196879 0 -0.0176958)
(0.21269 0 -0.0199272)
(0.231223 0 -0.0231037)
(0.251583 0 -0.0273578)
(0.26311 0 -0.0293763)
(0 0 0)
(0.0221632 0 -0.0016663)
(0.0420349 0 -0.0031784)
(0.0591489 0 -0.00451771)
(0.0738386 0 -0.00571787)
(0.086415 0 -0.00680525)
(0.0971501 0 -0.00779937)
(0.106286 0 -0.00871475)
(0.114039 0 -0.00956254)
(0.120603 0 -0.0103507)
(0.12616 0 -0.0110851)
(0.130874 0 -0.0117685)
(0.134906 0 -0.0124041)
(0.138409 0 -0.0129953)
(0.141537 0 -0.0135442)
(0.144447 0 -0.0140545)
(0.147295 0 -0.0145301)
(0.150263 0 -0.0149823)
(0.153541 0 -0.0154241)
(0.157321 0 -0.0158725)
(0.161848 0 -0.0163587)
(0.167393 0 -0.0169259)
(0.174244 0 -0.01763)
(0.182759 0 -0.0185569)
(0.193312 0 -0.0198159)
(0.206319 0 -0.0215548)
(0.222108 0 -0.02394)
(0.240904 0 -0.0271647)
(0.262285 0 -0.0313412)
(0.284888 0 -0.0364714)
(0.299186 0 -0.0391989)
(0 0 0)
(0.0224398 0 -0.0017978)
(0.0425826 0 -0.00343087)
(0.0599681 0 -0.00487988)
(0.0749394 0 -0.00618148)
(0.0878141 0 -0.00736453)
(0.0988706 0 -0.00845059)
(0.108357 0 -0.00945584)
(0.116497 0 -0.0103938)
(0.123493 0 -0.0112745)
(0.129526 0 -0.012105)
(0.134768 0 -0.0128898)
(0.139386 0 -0.0136345)
(0.143543 0 -0.014345)
(0.147398 0 -0.0150268)
(0.151117 0 -0.0156871)
(0.154866 0 -0.0163346)
(0.158839 0 -0.0169857)
(0.163229 0 -0.0176595)
(0.168254 0 -0.0183832)
(0.174169 0 -0.0191972)
(0.181252 0 -0.0201547)
(0.189825 0 -0.0213298)
(0.200249 0 -0.0228203)
(0.212925 0 -0.024755)
(0.228266 0 -0.0272919)
(0.246604 0 -0.0306027)
(0.268128 0 -0.0348618)
(0.292122 0 -0.0400544)
(0.316876 0 -0.0460579)
(0.335672 0 -0.0495744)
(0 0 0)
(0.0227247 0 -0.0019266)
(0.0431469 0 -0.00367852)
(0.0608127 0 -0.00523576)
(0.0760743 0 -0.00663799)
(0.0892564 0 -0.00791656)
(0.100642 0 -0.00909507)
(0.110488 0 -0.010192)
(0.119028 0 -0.0112228)
(0.126463 0 -0.0121989)
(0.132977 0 -0.0131288)
(0.138751 0 -0.01402)
(0.143961 0 -0.0148805)
(0.148769 0 -0.0157178)
(0.153346 0 -0.0165413)
(0.157865 0 -0.0173626)
(0.162501 0 -0.0181951)
(0.167447 0 -0.0190586)
(0.172907 0 -0.0199791)
(0.179117 0 -0.0209939)
(0.186339 0 -0.0221533)
(0.194851 0 -0.0235188)
(0.204996 0 -0.0251808)
(0.217122 0 -0.0272475)
(0.231634 0 -0.0298641)
(0.24891 0 -0.0331967)
(0.269271 0 -0.0374291)
(0.292816 0 -0.0427174)
(0.318654 0 -0.0489484)
(0.345254 0 -0.0559517)
(0.372283 0 -0.0602904)
(0 0 0)
(0.0230178 0 -0.00205344)
(0.0437279 0 -0.00392269)
(0.061683 0 -0.00558727)
(0.0772441 0 -0.00708986)
(0.090743 0 -0.0084643)
(0.102469 0 -0.0097365)
(0.112687 0 -0.0109276)
(0.121633 0 -0.0120539)
(0.129512 0 -0.0131282)
(0.136514 0 -0.0141616)
(0.142824 0 -0.0151639)
(0.148622 0 -0.0161454)
(0.154076 0 -0.0171155)
(0.159364 0 -0.0180884)
(0.164666 0 -0.0190792)
(0.170158 0 -0.020105)
(0.176034 0 -0.02119)
(0.182513 0 -0.0223685)
(0.189825 0 -0.0236832)
(0.198234 0 -0.0251917)
(0.208022 0 -0.0269674)
(0.219511 0 -0.0291071)
(0.233028 0 -0.0317285)
(0.248933 0 -0.0349849)
(0.267519 0 -0.0390469)
(0.288999 0 -0.0441122)
(0.313192 0 -0.0503387)
(0.338975 0 -0.0577377)
(0.364817 0 -0.0666016)
(0.408921 0 -0.0711796)
(0 0 0)
(0.0203147 0 0)
(0.0383858 0 0)
(0.0537015 0 0)
(0.0665212 0 0)
(0.077096 0 0)
(0.0856538 0 0)
(0.0923939 0 0)
(0.0974861 0 0)
(0.101079 0 0)
(0.103303 0 0)
(0.104274 0 0)
(0.104095 0 0)
(0.102855 0 0)
(0.100636 0 0)
(0.0975125 0 0)
(0.0935584 0 0)
(0.0888424 0 0)
(0.0834282 0 0)
(0.0773824 0 0)
(0.0707778 0 0)
(0.0636942 0 0)
(0.0562206 0 0)
(0.0484539 0 0)
(0.0405182 0 0)
(0.0325768 0 0)
(0.0248389 0 0)
(0.0175997 0 0)
(0.011317 0 0)
(0.00686064 0 0)
(0 0 0)
(0 0 0)
(0.0203285 0 -0.000140298)
(0.0384134 0 -0.00026678)
(0.0537435 0 -0.000377488)
(0.066578 0 -0.000475296)
(0.0771679 0 -0.000561837)
(0.0857425 0 -0.000638132)
(0.0925018 0 -0.000705328)
(0.0976155 0 -0.000763901)
(0.101232 0 -0.000813434)
(0.103483 0 -0.000853196)
(0.104485 0 -0.000882583)
(0.10434 0 -0.000900558)
(0.10314 0 -0.000905671)
(0.100965 0 -0.000896053)
(0.0978917 0 -0.000869452)
(0.0939932 0 -0.000823487)
(0.0893416 0 -0.000755027)
(0.0840014 0 -0.000660348)
(0.0780394 0 -0.000535586)
(0.0715301 0 -0.000376249)
(0.0645569 0 -0.000177473)
(0.0572142 0 6.60441e-05)
(0.0496016 0 0.000360569)
(0.0418426 0 0.000713065)
(0.0341089 0 0.00112993)
(0.0266199 0 0.00161705)
(0.0196808 0 0.00217878)
(0.013789 0 0.00280896)
(0.00986554 0 0.00344152)
(0.00429467 0 0.00438259)
(0 0 0)
(0.0203719 0 -0.000281078)
(0.0384992 0 -0.000534555)
(0.0538726 0 -0.000756464)
(0.0667516 0 -0.000952117)
(0.0773864 0 -0.00112518)
(0.0860107 0 -0.00127822)
(0.0928271 0 -0.00141325)
(0.0980048 0 -0.00153135)
(0.101692 0 -0.00163157)
(0.104023 0 -0.00171236)
(0.105116 0 -0.00177273)
(0.105074 0 -0.00181067)
(0.10399 0 -0.00182338)
(0.101948 0 -0.00180722)
(0.0990241 0 -0.00175771)
(0.0952939 0 -0.00166954)
(0.090833 0 -0.00153748)
(0.0857107 0 -0.00135527)
(0.0799968 0 -0.00111482)
(0.073769 0 -0.000807372)
(0.0671187 0 -0.000423833)
(0.0601523 0 4.56627e-05)
(0.0529835 0 0.000612655)
(0.0457486 0 0.00128853)
(0.0386388 0 0.00208238)
(0.0318997 0 0.00300008)
(0.0258508 0 0.00404062)
(0.0210326 0 0.0051736)
(0.0184974 0 0.00624394)
(0.0141536 0 0.00774165)
(0 0 0)
(0.020445 0 -0.000422296)
(0.0386426 0 -0.000803288)
(0.0540846 0 -0.00113691)
(0.0670345 0 -0.00143048)
(0.0777463 0 -0.00169026)
(0.0864557 0 -0.00192086)
(0.0933673 0 -0.00212467)
(0.0986504 0 -0.00230299)
(0.102454 0 -0.0024549)
(0.104916 0 -0.00257871)
(0.106157 0 -0.00267277)
(0.106285 0 -0.0027342)
(0.105393 0 -0.00275907)
(0.103568 0 -0.00274216)
(0.100893 0 -0.00267723)
(0.0974435 0 -0.00255679)
(0.0932993 0 -0.00237332)
(0.0885368 0 -0.002118)
(0.0832343 0 -0.00177989)
(0.0774752 0 -0.00134701)
(0.0713568 0 -0.000806717)
(0.0649982 0 -0.000146095)
(0.0585365 0 0.000648277)
(0.0521343 0 0.00158851)
(0.0460175 0 0.00268144)
(0.0404801 0 0.00392377)
(0.0358706 0 0.0052941)
(0.0326914 0 0.00672255)
(0.0321004 0 0.00795487)
(0.0293903 0 0.009663)
(0 0 0)
(0.0205468 0 -0.000563301)
(0.0388421 0 -0.00107177)
(0.0543766 0 -0.00151725)
(0.067423 0 -0.00190956)
(0.0782438 0 -0.00225737)
(0.0870731 0 -0.00256674)
(0.0941154 0 -0.00284075)
(0.099543 0 -0.0030805)
(0.103508 0 -0.0032859)
(0.106152 0 -0.00345584)
(0.1076 0 -0.00358758)
(0.107961 0 -0.00367767)
(0.107334 0 -0.00372139)
(0.10581 0 -0.00371222)
(0.103475 0 -0.00364265)
(0.100413 0 -0.00350393)
(0.096708 0 -0.00328635)
(0.0924425 0 -0.00297879)
(0.087704 0 -0.00256852)
(0.0825917 0 -0.00204263)
(0.077213 0 -0.0013867)
(0.0716963 0 -0.000586453)
(0.0662026 0 0.0003697)
(0.0609199 0 0.00149089)
(0.0561007 0 0.00277699)
(0.0521071 0 0.00420456)
(0.0493703 0 0.00571467)
(0.0483451 0 0.00719616)
(0.0501113 0 0.00831123)
(0.0491221 0 0.00997011)
(0 0 0)
(0.0206764 0 -0.000703986)
(0.039096 0 -0.0013395)
(0.0547483 0 -0.00189652)
(0.067918 0 -0.0023882)
(0.0788758 0 -0.00282514)
(0.0878551 0 -0.00321449)
(0.0950619 0 -0.00356044)
(0.100673 0 -0.00386491)
(0.104845 0 -0.00412801)
(0.107721 0 -0.00434845)
(0.10943 0 -0.00452312)
(0.110086 0 -0.0046486)
(0.109794 0 -0.00471988)
(0.108648 0 -0.00472932)
(0.106743 0 -0.00466869)
(0.104169 0 -0.00452851)
(0.101017 0 -0.00429785)
(0.0973787 0 -0.00396455)
(0.0933519 0 -0.00351527)
(0.0890486 0 -0.00293675)
(0.0845933 0 -0.00221532)
(0.0801299 0 -0.00133852)
(0.0758486 0 -0.000299823)
(0.0719744 0 0.00090047)
(0.0687629 0 0.00225137)
(0.0665954 0 0.00370834)
(0.0660096 0 0.00516526)
(0.067515 0 0.00645841)
(0.0719186 0 0.00720049)
(0.0726552 0 0.0086265)
(0 0 0)
(0.0208281 0 -0.000844427)
(0.0393944 0 -0.00160664)
(0.0551922 0 -0.00227526)
(0.0685142 0 -0.00286679)
(0.0796363 0 -0.00339368)
(0.0887949 0 -0.00386442)
(0.0961999 0 -0.00428438)
(0.102032 0 -0.00465639)
(0.106449 0 -0.00498088)
(0.109602 0 -0.00525684)
(0.111625 0 -0.00548166)
(0.112636 0 -0.00565153)
(0.112745 0 -0.0057608)
(0.112051 0 -0.00580159)
(0.110658 0 -0.00576582)
(0.108665 0 -0.00564415)
(0.106171 0 -0.00542527)
(0.103277 0 -0.00509677)
(0.100101 0 -0.00464731)
(0.0967647 0 -0.00406448)
(0.0934041 0 -0.00333637)
(0.0901882 0 -0.00245565)
(0.0873235 0 -0.00142177)
(0.0850822 0 -0.000250262)
(0.0837633 0 0.00102656)
(0.0837076 0 0.00234694)
(0.085474 0 0.00356706)
(0.0896748 0 0.00445731)
(0.0968668 0 0.00460756)
(0.0993811 0 0.00565063)
(0 0 0)
(0.0210004 0 -0.000984176)
(0.0397347 0 -0.00187304)
(0.0557049 0 -0.00265392)
(0.0692067 0 -0.00334616)
(0.0805194 0 -0.0039642)
(0.0898854 0 -0.00451812)
(0.0975184 0 -0.00501444)
(0.103602 0 -0.00545626)
(0.108303 0 -0.00584552)
(0.111776 0 -0.00618271)
(0.114163 0 -0.00646583)
(0.115585 0 -0.00669015)
(0.116154 0 -0.00684899)
(0.115978 0 -0.00693515)
(0.11517 0 -0.00694187)
(0.113843 0 -0.00686108)
(0.112104 0 -0.00668195)
(0.110065 0 -0.00639313)
(0.107858 0 -0.00598532)
(0.105622 0 -0.00544959)
(0.103513 0 -0.00477884)
(0.101728 0 -0.00397417)
(0.100484 0 -0.00304282)
(0.100057 0 -0.00201116)
(0.100814 0 -0.000940335)
(0.103118 0 7.88817e-05)
(0.107432 0 0.000883971)
(0.114389 0 0.00119193)
(0.124413 0 0.000583217)
(0.128735 0 0.0011074)
(0 0 0)
(0.0211954 0 -0.00112289)
(0.0401205 0 -0.00213801)
(0.0562842 0 -0.00303124)
(0.0699874 0 -0.00382456)
(0.0815142 0 -0.0045347)
(0.0911127 0 -0.00517345)
(0.0990008 0 -0.00574858)
(0.105369 0 -0.00626429)
(0.110389 0 -0.00672369)
(0.114222 0 -0.0071281)
(0.117013 0 -0.0074762)
(0.11889 0 -0.00776367)
(0.119971 0 -0.00798436)
(0.120374 0 -0.00813211)
(0.120222 0 -0.00820135)
(0.119635 0 -0.0081854)
(0.118735 0 -0.00807547)
(0.117649 0 -0.00786338)
(0.116517 0 -0.00754216)
(0.115497 0 -0.00710769)
(0.11477 0 -0.00656068)
(0.114555 0 -0.00591101)
(0.115107 0 -0.00518126)
(0.116693 0 -0.0044089)
(0.119676 0 -0.00367125)
(0.12449 0 -0.00309847)
(0.131517 0 -0.00286992)
(0.141306 0 -0.00329354)
(0.154117 0 -0.00477294)
(0.160194 0 -0.00484416)
(0 0 0)
(0.0214114 0 -0.00126066)
(0.0405478 0 -0.00240138)
(0.0569244 0 -0.00340672)
(0.0708489 0 -0.00430146)
(0.0826114 0 -0.00510463)
(0.0924657 0 -0.00582987)
(0.100635 0 -0.00648647)
(0.107316 0 -0.00708031)
(0.112688 0 -0.00761518)
(0.116913 0 -0.00809271)
(0.120142 0 -0.00851267)
(0.122513 0 -0.00887251)
(0.124153 0 -0.00916775)
(0.125188 0 -0.00939369)
(0.125749 0 -0.00954584)
(0.125965 0 -0.0096191)
(0.125971 0 -0.00960802)
(0.125911 0 -0.00950894)
(0.125942 0 -0.00931946)
(0.126234 0 -0.00904133)
(0.127003 0 -0.00868571)
(0.128478 0 -0.00827112)
(0.130935 0 -0.00783357)
(0.134686 0 -0.00743302)
(0.140058 0 -0.00715675)
(0.147495 0 -0.00716011)
(0.15736 0 -0.00764461)
(0.17005 0 -0.00891675)
(0.185539 0 -0.0113246)
(0.193315 0 -0.0120246)
(0 0 0)
(0.0216467 0 -0.00139754)
(0.0410132 0 -0.00266331)
(0.0576207 0 -0.00378065)
(0.0717852 0 -0.00477727)
(0.0838032 0 -0.00567459)
(0.0939345 0 -0.00648813)
(0.102408 0 -0.00722888)
(0.109428 0 -0.00790432)
(0.115177 0 -0.00851923)
(0.119821 0 -0.00907574)
(0.123521 0 -0.00957538)
(0.12642 0 -0.0100178)
(0.128656 0 -0.0104001)
(0.130363 0 -0.0107195)
(0.131681 0 -0.0109736)
(0.132747 0 -0.0111597)
(0.133709 0 -0.0112761)
(0.134733 0 -0.0113258)
(0.135991 0 -0.011312)
(0.137668 0 -0.0112431)
(0.140002 0 -0.0111409)
(0.143257 0 -0.0110381)
(0.14771 0 -0.0109818)
(0.153704 0 -0.0110506)
(0.161598 0 -0.0113546)
(0.171783 0 -0.0120558)
(0.184586 0 -0.0133665)
(0.200205 0 -0.0155675)
(0.218211 0 -0.0189121)
(0.227724 0 -0.020264)
(0 0 0)
(0.0218982 0 -0.00153288)
(0.0415105 0 -0.00292253)
(0.0583646 0 -0.00415128)
(0.0727849 0 -0.00524978)
(0.0850749 0 -0.0062419)
(0.0955008 0 -0.00714516)
(0.104298 0 -0.00797227)
(0.111676 0 -0.00873245)
(0.117823 0 -0.00943183)
(0.122913 0 -0.010074)
(0.12711 0 -0.0106618)
(0.130567 0 -0.0111965)
(0.133427 0 -0.0116778)
(0.135836 0 -0.0121054)
(0.137941 0 -0.0124794)
(0.13989 0 -0.0128005)
(0.141845 0 -0.0130724)
(0.14399 0 -0.0133036)
(0.146506 0 -0.0135042)
(0.14961 0 -0.0136934)
(0.153551 0 -0.013902)
(0.158611 0 -0.0141752)
(0.165112 0 -0.0145803)
(0.173396 0 -0.0152078)
(0.183872 0 -0.016192)
(0.196879 0 -0.0176958)
(0.21269 0 -0.0199272)
(0.231223 0 -0.0231037)
(0.251583 0 -0.0273578)
(0.26311 0 -0.0293763)
(0 0 0)
(0.0221632 0 -0.0016663)
(0.0420349 0 -0.0031784)
(0.0591489 0 -0.00451771)
(0.0738386 0 -0.00571787)
(0.086415 0 -0.00680525)
(0.0971501 0 -0.00779937)
(0.106286 0 -0.00871475)
(0.114039 0 -0.00956254)
(0.120603 0 -0.0103507)
(0.12616 0 -0.0110851)
(0.130874 0 -0.0117685)
(0.134906 0 -0.0124041)
(0.138409 0 -0.0129953)
(0.141537 0 -0.0135442)
(0.144447 0 -0.0140545)
(0.147295 0 -0.0145301)
(0.150263 0 -0.0149823)
(0.153541 0 -0.0154241)
(0.157321 0 -0.0158725)
(0.161848 0 -0.0163587)
(0.167393 0 -0.0169259)
(0.174244 0 -0.01763)
(0.182759 0 -0.0185569)
(0.193312 0 -0.0198159)
(0.206319 0 -0.0215548)
(0.222108 0 -0.02394)
(0.240904 0 -0.0271647)
(0.262285 0 -0.0313412)
(0.284888 0 -0.0364714)
(0.299186 0 -0.0391989)
(0 0 0)
(0.0224398 0 -0.0017978)
(0.0425826 0 -0.00343087)
(0.0599681 0 -0.00487988)
(0.0749394 0 -0.00618148)
(0.0878141 0 -0.00736453)
(0.0988706 0 -0.00845059)
(0.108357 0 -0.00945584)
(0.116497 0 -0.0103938)
(0.123493 0 -0.0112745)
(0.129526 0 -0.012105)
(0.134768 0 -0.0128898)
(0.139386 0 -0.0136345)
(0.143543 0 -0.014345)
(0.147398 0 -0.0150268)
(0.151117 0 -0.0156871)
(0.154866 0 -0.0163346)
(0.158839 0 -0.0169857)
(0.163229 0 -0.0176595)
(0.168254 0 -0.0183832)
(0.174169 0 -0.0191972)
(0.181252 0 -0.0201547)
(0.189825 0 -0.0213298)
(0.200249 0 -0.0228203)
(0.212925 0 -0.024755)
(0.228266 0 -0.0272919)
(0.246604 0 -0.0306027)
(0.268128 0 -0.0348618)
(0.292122 0 -0.0400544)
(0.316876 0 -0.0460579)
(0.335672 0 -0.0495744)
(0 0 0)
(0.0227247 0 -0.0019266)
(0.0431469 0 -0.00367852)
(0.0608127 0 -0.00523576)
(0.0760743 0 -0.00663799)
(0.0892564 0 -0.00791656)
(0.100642 0 -0.00909507)
(0.110488 0 -0.010192)
(0.119028 0 -0.0112228)
(0.126463 0 -0.0121989)
(0.132977 0 -0.0131288)
(0.138751 0 -0.01402)
(0.143961 0 -0.0148805)
(0.148769 0 -0.0157178)
(0.153346 0 -0.0165413)
(0.157865 0 -0.0173626)
(0.162501 0 -0.0181951)
(0.167447 0 -0.0190586)
(0.172907 0 -0.0199791)
(0.179117 0 -0.0209939)
(0.186339 0 -0.0221533)
(0.194851 0 -0.0235188)
(0.204996 0 -0.0251808)
(0.217122 0 -0.0272475)
(0.231634 0 -0.0298641)
(0.24891 0 -0.0331967)
(0.269271 0 -0.0374291)
(0.292816 0 -0.0427174)
(0.318654 0 -0.0489484)
(0.345254 0 -0.0559517)
(0.372283 0 -0.0602904)
(0 0 0)
(0.0230178 0 -0.00205344)
(0.0437279 0 -0.00392269)
(0.061683 0 -0.00558727)
(0.0772441 0 -0.00708986)
(0.090743 0 -0.0084643)
(0.102469 0 -0.0097365)
(0.112687 0 -0.0109276)
(0.121633 0 -0.0120539)
(0.129512 0 -0.0131282)
(0.136514 0 -0.0141616)
(0.142824 0 -0.0151639)
(0.148622 0 -0.0161454)
(0.154076 0 -0.0171155)
(0.159364 0 -0.0180884)
(0.164666 0 -0.0190792)
(0.170158 0 -0.020105)
(0.176034 0 -0.02119)
(0.182513 0 -0.0223685)
(0.189825 0 -0.0236832)
(0.198234 0 -0.0251917)
(0.208022 0 -0.0269674)
(0.219511 0 -0.0291071)
(0.233028 0 -0.0317285)
(0.248933 0 -0.0349849)
(0.267519 0 -0.0390469)
(0.288999 0 -0.0441122)
(0.313192 0 -0.0503387)
(0.338975 0 -0.0577377)
(0.364817 0 -0.0666016)
(0.408921 0 -0.0711796)
(0 0 0)
(0.0107436 0 0)
(0.022634 0 0)
(0.0427056 0 0)
(0.0696213 0 0)
(0.10035 0 0)
(0.131264 0 0)
(0.15946 0 0)
(0.183436 0 0)
(0.2028 0 0)
(0.217816 0 0)
(0.229019 0 0)
(0.236924 0 0)
(0.241949 0 0)
(0.244431 0 0)
(0.244622 0 0)
(0.242695 0 0)
(0.238774 0 0)
(0.23292 0 0)
(0.225151 0 0)
(0.215463 0 0)
(0.203825 0 0)
(0.19019 0 0)
(0.174483 0 0)
(0.156617 0 0)
(0.136514 0 0)
(0.114088 0 0)
(0.0892544 0 0)
(0.0619276 0 0)
(0.0319933 0 0)
(0 0 0)
(0.00375114 0 -0.00490211)
(0.0137157 0 -0.00533407)
(0.0258759 0 -0.00617894)
(0.046084 0 -0.00721553)
(0.0729133 0 -0.00828149)
(0.103366 0 -0.00919908)
(0.133884 0 -0.0098322)
(0.161652 0 -0.0101616)
(0.185214 0 -0.010212)
(0.204217 0 -0.0100272)
(0.218949 0 -0.00969668)
(0.229925 0 -0.00928179)
(0.237645 0 -0.0087993)
(0.242525 0 -0.00827266)
(0.244897 0 -0.0077425)
(0.245001 0 -0.00720525)
(0.243006 0 -0.00665852)
(0.239031 0 -0.00612432)
(0.233135 0 -0.0056101)
(0.225333 0 -0.00511113)
(0.21562 0 -0.00462948)
(0.203961 0 -0.00416388)
(0.190305 0 -0.00371284)
(0.174578 0 -0.00327697)
(0.156697 0 -0.00284691)
(0.136582 0 -0.00241598)
(0.114146 0 -0.00197758)
(0.0893009 0 -0.00152458)
(0.061963 0 -0.001049)
(0.0320152 0 -0.000540966)
(0 0 0)
(0.0124941 0 -0.00980769)
(0.0223827 0 -0.0108208)
(0.0353712 0 -0.0125298)
(0.0559548 0 -0.0145578)
(0.0825495 0 -0.0165875)
(0.112228 0 -0.0183053)
(0.141595 0 -0.0194723)
(0.168084 0 -0.0200468)
(0.190419 0 -0.0200815)
(0.208374 0 -0.0196932)
(0.222264 0 -0.0190306)
(0.232567 0 -0.0181977)
(0.239751 0 -0.017243)
(0.244212 0 -0.0162115)
(0.246256 0 -0.015162)
(0.246105 0 -0.014109)
(0.243911 0 -0.0130531)
(0.239778 0 -0.0120151)
(0.233758 0 -0.0110124)
(0.225858 0 -0.0100423)
(0.216065 0 -0.00910594)
(0.20434 0 -0.0082039)
(0.190622 0 -0.00732829)
(0.174843 0 -0.00647429)
(0.156919 0 -0.00562879)
(0.136767 0 -0.00477969)
(0.114298 0 -0.00391437)
(0.0894212 0 -0.00301899)
(0.0620503 0 -0.00207794)
(0.0320635 0 -0.00107182)
(0 0 0)
(0.0262088 0 -0.0150298)
(0.0361732 0 -0.0166556)
(0.0504013 0 -0.0192208)
(0.0714821 0 -0.0221587)
(0.0976869 0 -0.0250079)
(0.126114 0 -0.0273315)
(0.153652 0 -0.028848)
(0.178127 0 -0.0295167)
(0.198575 0 -0.0294494)
(0.214919 0 -0.0288187)
(0.227494 0 -0.0278113)
(0.236745 0 -0.0265683)
(0.243092 0 -0.0251681)
(0.246895 0 -0.0236721)
(0.248423 0 -0.0221402)
(0.247865 0 -0.0206032)
(0.245354 0 -0.0190774)
(0.24097 0 -0.0175804)
(0.23475 0 -0.0161304)
(0.226691 0 -0.0147319)
(0.216765 0 -0.0133812)
(0.204928 0 -0.0120758)
(0.191116 0 -0.0108045)
(0.175256 0 -0.00955606)
(0.157265 0 -0.00831549)
(0.137054 0 -0.00706629)
(0.114532 0 -0.00579054)
(0.0896051 0 -0.00446819)
(0.0621822 0 -0.00307655)
(0.0321355 0 -0.00158725)
(0 0 0)
(0.0441711 0 -0.0208448)
(0.05444 0 -0.02303)
(0.0701112 0 -0.0264062)
(0.091717 0 -0.0301391)
(0.117322 0 -0.0336243)
(0.144015 0 -0.0363095)
(0.169143 0 -0.0379437)
(0.191047 0 -0.038543)
(0.209121 0 -0.0382845)
(0.223426 0 -0.0373697)
(0.23432 0 -0.0360053)
(0.242219 0 -0.0343649)
(0.247486 0 -0.0325432)
(0.250434 0 -0.0306183)
(0.251289 0 -0.0286496)
(0.2502 0 -0.0266742)
(0.24727 0 -0.0247214)
(0.242554 0 -0.0228112)
(0.236067 0 -0.020962)
(0.227791 0 -0.0191763)
(0.217686 0 -0.0174478)
(0.2057 0 -0.0157692)
(0.191763 0 -0.0141279)
(0.175798 0 -0.0125093)
(0.157716 0 -0.0108952)
(0.137426 0 -0.00926542)
(0.114834 0 -0.0075973)
(0.0898401 0 -0.00586517)
(0.0623488 0 -0.00403981)
(0.0322253 0 -0.00208458)
(0 0 0)
(0.0658518 0 -0.0274246)
(0.076509 0 -0.0300635)
(0.0936696 0 -0.0341804)
(0.115688 0 -0.0385467)
(0.140366 0 -0.0424303)
(0.164886 0 -0.0452242)
(0.187156 0 -0.0467488)
(0.206099 0 -0.0471198)
(0.221449 0 -0.0465676)
(0.233415 0 -0.045323)
(0.242377 0 -0.043598)
(0.248708 0 -0.0415731)
(0.252718 0 -0.0393589)
(0.254666 0 -0.0370361)
(0.254724 0 -0.0346682)
(0.253008 0 -0.0323052)
(0.249582 0 -0.0299783)
(0.244468 0 -0.0277054)
(0.237658 0 -0.0255017)
(0.229117 0 -0.0233664)
(0.218795 0 -0.021293)
(0.206627 0 -0.0192714)
(0.192538 0 -0.0172871)
(0.176443 0 -0.0153228)
(0.158252 0 -0.0133577)
(0.137867 0 -0.0113681)
(0.115189 0 -0.00932703)
(0.090114 0 -0.00720381)
(0.0625411 0 -0.00496336)
(0.0323277 0 -0.00256147)
(0 0 0)
(0.0907513 0 -0.0348307)
(0.1018 0 -0.0378146)
(0.120357 0 -0.0425734)
(0.142519 0 -0.0473682)
(0.165821 0 -0.0513645)
(0.187744 0 -0.0540063)
(0.206813 0 -0.0552155)
(0.222519 0 -0.0552073)
(0.234931 0 -0.0542682)
(0.244386 0 -0.0526492)
(0.251269 0 -0.0505575)
(0.255899 0 -0.0481623)
(0.258545 0 -0.0455871)
(0.259402 0 -0.0429089)
(0.258591 0 -0.0401925)
(0.256186 0 -0.0374957)
(0.252207 0 -0.0348457)
(0.246645 0 -0.0322574)
(0.239468 0 -0.0297398)
(0.230625 0 -0.027292)
(0.220052 0 -0.0249068)
(0.207676 0 -0.0225724)
(0.193412 0 -0.0202726)
(0.17717 0 -0.0179878)
(0.158852 0 -0.0156949)
(0.138358 0 -0.0133669)
(0.115581 0 -0.0109733)
(0.0904149 0 -0.00847895)
(0.0627505 0 -0.00584348)
(0.0324383 0 -0.00301593)
(0 0 0)
(0.118396 0 -0.0430298)
(0.129804 0 -0.0462792)
(0.149544 0 -0.0515529)
(0.171419 0 -0.056529)
(0.192775 0 -0.0603207)
(0.211653 0 -0.0625355)
(0.22725 0 -0.0632386)
(0.239566 0 -0.0627297)
(0.248959 0 -0.0613376)
(0.255846 0 -0.0593158)
(0.260594 0 -0.0568559)
(0.26348 0 -0.0541133)
(0.264726 0 -0.0512132)
(0.264465 0 -0.0482319)
(0.262759 0 -0.0452283)
(0.259629 0 -0.0422514)
(0.255061 0 -0.0393251)
(0.249016 0 -0.0364628)
(0.24144 0 -0.0336706)
(0.232267 0 -0.0309465)
(0.22142 0 -0.0282823)
(0.208815 0 -0.025665)
(0.194358 0 -0.0230771)
(0.177953 0 -0.0204972)
(0.159497 0 -0.0178999)
(0.138881 0 -0.0152557)
(0.115998 0 -0.0125309)