/*--------------------------------*- C++ -*----------------------------------*\
| =========                 |                                                 |
| \\      /  F ield         | OpenFOAM: The Open Source CFD Toolbox           |
|  \\    /   O peration     | Version:  dev                                   |
|   \\  /    A nd           | Web:      www.OpenFOAM.org                      |
|    \\/     M anipulation  |                                                 |
\*---------------------------------------------------------------------------*/
FoamFile
{
    version     2.0;
    format      ascii;
    class       pointVectorField;
    location    "0.74";
    object      pointDisplacement;
}
// * * * * * * * * * * * * * * * * * * * * * * * * * * * * * * * * * * * * * //

dimensions      [0 1 0 0 0 0 0];

internalField   nonuniform List<vector> 
5828
(
(0 0 0)
(0.0140114 0 0)
(0.0265558 0 0)
(0.0372865 0 0)
(0.0463553 0 0)
(0.0539101 0 0)
(0.0600842 0 0)
(0.0649977 0 0)
(0.0687577 0 0)
(0.0714581 0 0)
(0.0731813 0 0)
(0.0740007 0 0)
(0.0739823 0 0)
(0.0731848 0 0)
(0.0716619 0 0)
(0.0694632 0 0)
(0.0666366 0 0)
(0.0632301 0 0)
(0.0592913 0 0)
(0.0548697 0 0)
(0.0500207 0 0)
(0.0448081 0 0)
(0.0393063 0 0)
(0.0336035 0 0)
(0.0278103 0 0)
(0.0220661 0 0)
(0.0165465 0 0)
(0.0114818 0 0)
(0.00718972 0 0)
(0.00419462 0 0)
(0 0 0)
(0 0 0)
(0.0140209 0 -4.61827e-05)
(0.0265753 0 -8.78662e-05)
(0.0373159 0 -0.000124135)
(0.0463951 0 -0.000155554)
(0.0539611 0 -0.00018253)
(0.0601473 0 -0.000205209)
(0.0650743 0 -0.000223584)
(0.0688498 0 -0.000237582)
(0.0715677 0 -0.000246992)
(0.0733107 0 -0.000251309)
(0.0741527 0 -0.000249852)
(0.0741599 0 -0.000241916)
(0.0733916 0 -0.000226632)
(0.0719017 0 -0.000202955)
(0.0697404 0 -0.000169668)
(0.0669557 0 -0.000125388)
(0.0635968 0 -6.86321e-05)
(0.0597121 0 2.31571e-06)
(0.0553507 0 8.93218e-05)
(0.0505689 0 0.000194224)
(0.0454316 0 0.000318859)
(0.0400137 0 0.000465004)
(0.0344031 0 0.000634335)
(0.0287114 0 0.000828862)
(0.023081 0 0.0010501)
(0.0176903 0 0.00129829)
(0.0127778 0 0.00157155)
(0.00867317 0 0.00186061)
(0.00590236 0 0.00213339)
(0.00238525 0 0.0025344)
(0 0 0)
(0.0140515 0 -9.24814e-05)
(0.0266355 0 -0.00017598)
(0.0374053 0 -0.000248667)
(0.0465152 0 -0.000311682)
(0.0541144 0 -0.000365877)
(0.0603366 0 -0.000411532)
(0.0653038 0 -0.000448624)
(0.0691251 0 -0.000477038)
(0.0718953 0 -0.000496434)
(0.0736975 0 -0.00050579)
(0.0746066 0 -0.000503717)
(0.0746902 0 -0.000488885)
(0.0740089 0 -0.000459601)
(0.0726178 0 -0.000413826)
(0.0705679 0 -0.00034918)
(0.067908 0 -0.000262938)
(0.064689 0 -0.000152207)
(0.0609633 0 -1.38126e-05)
(0.0567808 0 0.000155827)
(0.0521985 0 0.000360339)
(0.0472844 0 0.000603201)
(0.0421178 0 0.000887635)
(0.0367866 0 0.00121675)
(0.0314007 0 0.00159343)
(0.026107 0 0.00201852)
(0.0210901 0 0.00249001)
(0.0166053 0 0.00300094)
(0.0130076 0 0.00352766)
(0.010815 0 0.00400245)
(0.00783109 0 0.004624)
(0 0 0)
(0.0141022 0 -0.000138991)
(0.0267354 0 -0.000264548)
(0.0375534 0 -0.000373929)
(0.0467141 0 -0.000468869)
(0.0543684 0 -0.000550755)
(0.0606499 0 -0.000619962)
(0.0656833 0 -0.000676426)
(0.0695805 0 -0.000720046)
(0.0724366 0 -0.000750233)
(0.0743357 0 -0.000765709)
(0.0753553 0 -0.000764614)
(0.0755649 0 -0.0007449)
(0.0750271 0 -0.000704135)
(0.0737987 0 -0.000639396)
(0.0719331 0 -0.000547276)
(0.0694806 0 -0.000423885)
(0.0664933 0 -0.00026502)
(0.0630275 0 -6.63059e-05)
(0.0591377 0 0.000177151)
(0.054882 0 0.000470519)
(0.0503323 0 0.000818593)
(0.0455732 0 0.00122563)
(0.0406994 0 0.00169535)
(0.0358217 0 0.00222933)
(0.0310865 0 0.00282529)
(0.0266768 0 0.00347665)
(0.022846 0 0.00416681)
(0.0199747 0 0.00485328)
(0.0185727 0 0.00543644)
(0.0162817 0 0.0061462)
(0 0 0)
(0.0141733 0 -0.000185785)
(0.0268752 0 -0.00035374)
(0.0377596 0 -0.000500199)
(0.0469906 0 -0.000627501)
(0.0547213 0 -0.00073751)
(0.061084 0 -0.000830813)
(0.0662083 0 -0.000907496)
(0.0702094 0 -0.000967409)
(0.073183 0 -0.00100956)
(0.0752161 0 -0.00103278)
(0.0763884 0 -0.001035)
(0.0767715 0 -0.00101332)
(0.0764308 0 -0.000964751)
(0.0754263 0 -0.000885652)
(0.0738143 0 -0.000771796)
(0.0716491 0 -0.000618406)
(0.0689847 0 -0.000420254)
(0.0658794 0 -0.000171885)
(0.0623924 0 0.000132525)
(0.0585844 0 0.000499122)
(0.0545313 0 0.000933472)
(0.0503227 0 0.00144008)
(0.0460611 0 0.0020218)
(0.0418671 0 0.00267759)
(0.0378885 0 0.00340088)
(0.0343037 0 0.00417787)
(0.0313344 0 0.00497986)
(0.0293504 0 0.00574618)
(0.0288673 0 0.00635313)
(0.0272899 0 0.00706811)
(0 0 0)
(0.0142646 0 -0.000232912)
(0.0270543 0 -0.000443552)
(0.0380216 0 -0.000627365)
(0.0473393 0 -0.000787428)
(0.0551651 0 -0.000926016)
(0.0616314 0 -0.00104409)
(0.0668714 0 -0.00114204)
(0.0710034 0 -0.00121966)
(0.0741259 0 -0.00127581)
(0.0763283 0 -0.00130914)
(0.0776923 0 -0.00131746)
(0.0782932 0 -0.00129752)
(0.0782003 0 -0.00124586)
(0.077477 0 -0.0011583)
(0.0761838 0 -0.00103003)
(0.0743791 0 -0.000855677)
(0.0721217 0 -0.00062937)
(0.0694728 0 -0.000344944)
(0.0664964 0 3.87953e-06)
(0.0632576 0 0.000423652)
(0.059832 0 0.000920242)
(0.05631 0 0.00149752)
(0.0528018 0 0.00215637)
(0.0494403 0 0.00289242)
(0.046376 0 0.00369367)
(0.043784 0 0.00453718)
(0.041857 0 0.00538341)
(0.0408984 0 0.00615909)
(0.04141 0 0.00672413)
(0.0405297 0 0.00740356)
(0 0 0)
(0.0143722 0 -0.000280225)
(0.0272653 0 -0.000533708)
(0.0383329 0 -0.000755132)
(0.0477552 0 -0.000948404)
(0.0556945 0 -0.00111627)
(0.0622855 0 -0.00126009)
(0.0676646 0 -0.00138059)
(0.0719534 0 -0.00147763)
(0.0752538 0 -0.00155013)
(0.077657 0 -0.00159631)
(0.0792483 0 -0.00161402)
(0.0801084 0 -0.00160028)
(0.0803098 0 -0.00155111)
(0.0799201 0 -0.00146204)
(0.0790046 0 -0.001328)
(0.0776271 0 -0.00114332)
(0.0758512 0 -0.00090185)
(0.0737427 0 -0.000597186)
(0.0713727 0 -0.000223108)
(0.0688154 0 0.000226458)
(0.0661454 0 0.000756793)
(0.0634485 0 0.00137091)
(0.0608328 0 0.00206804)
(0.0584386 0 0.0028396)
(0.0564241 0 0.00366679)
(0.0549529 0 0.00451828)
(0.0541977 0 0.00534559)
(0.0543787 0 0.00606951)
(0.0559522 0 0.0065413)
(0.0557629 0 0.00716716)
(0 0 0)
(0.0144948 0 -0.000327613)
(0.0275062 0 -0.000624123)
(0.03869 0 -0.000883484)
(0.0482333 0 -0.00111044)
(0.0563035 0 -0.00130833)
(0.0630385 0 -0.00147897)
(0.0685782 0 -0.00162345)
(0.0730474 0 -0.0017418)
(0.0765517 0 -0.00183309)
(0.0791858 0 -0.0018955)
(0.0810396 0 -0.00192693)
(0.0821971 0 -0.00192445)
(0.0827348 0 -0.00188405)
(0.082726 0 -0.00180127)
(0.0822416 0 -0.0016711)
(0.0813507 0 -0.00148794)
(0.0801227 0 -0.00124579)
(0.0786274 0 -0.000938351)
(0.0769437 0 -0.000559969)
(0.0751558 0 -0.000105807)
(0.073345 0 0.000427835)
(0.0716031 0 0.00104188)
(0.0700241 0 0.00173408)
(0.0687287 0 0.00249359)
(0.0678823 0 0.00329503)
(0.0676461 0 0.0040987)
(0.0681617 0 0.00484918)
(0.0695755 0 0.00546701)
(0.0722758 0 0.00580096)
(0.0728066 0 0.00635058)
(0 0 0)
(0.0146311 0 -0.000375032)
(0.0277745 0 -0.00071471)
(0.039089 0 -0.00101233)
(0.0487681 0 -0.0012735)
(0.0569848 0 -0.00150217)
(0.0638816 0 -0.00170076)
(0.0696012 0 -0.00187076)
(0.0742719 0 -0.00201244)
(0.0780035 0 -0.00212516)
(0.0808958 0 -0.0022074)
(0.0830421 0 -0.00225708)
(0.0845296 0 -0.00227131)
(0.0854396 0 -0.00224636)
(0.0858519 0 -0.00217815)
(0.0858438 0 -0.00206212)
(0.0854902 0 -0.00189311)
(0.0848679 0 -0.00166587)
(0.0840534 0 -0.00137483)
(0.0831297 0 -0.00101506)
(0.0821835 0 -0.000582887)
(0.0813097 0 -7.69643e-05)
(0.0806145 0 0.000500322)
(0.0801931 0 0.00114324)
(0.080136 0 0.00184001)
(0.0805767 0 0.00256345)
(0.0816793 0 0.00326619)
(0.0835608 0 0.00388643)
(0.0862936 0 0.00434807)
(0.0901676 0 0.00450293)
(0.0914552 0 0.00494826)
(0 0 0)
(0.0147797 0 -0.000422436)
(0.0280675 0 -0.000805384)
(0.0395255 0 -0.00114154)
(0.0493532 0 -0.00143741)
(0.0577302 0 -0.00169759)
(0.0648048 0 -0.00192528)
(0.0707213 0 -0.00212242)
(0.0756113 0 -0.00228949)
(0.0795902 0 -0.00242632)
(0.0827622 0 -0.00253177)
(0.0852243 0 -0.00260402)
(0.0870677 0 -0.00264048)
(0.088378 0 -0.00263773)
(0.0892423 0 -0.0025925)
(0.0897453 0 -0.0025011)
(0.0899674 0 -0.00235906)
(0.0899946 0 -0.00216239)
(0.0899153 0 -0.00190734)
(0.0898137 0 -0.00159005)
(0.0897776 0 -0.00120816)
(0.0899095 0 -0.000762307)
(0.0903246 0 -0.000258068)
(0.0911349 0 0.000293796)
(0.0924268 0 0.000878166)
(0.0942819 0 0.00146977)
(0.0968349 0 0.00201919)
(0.100184 0 0.00245895)
(0.104325 0 0.00271712)
(0.109395 0 0.00265676)
(0.11147 0 0.00296399)
(0 0 0)
(0.0149391 0 -0.000469735)
(0.028382 0 -0.000895974)
(0.0399948 0 -0.00127092)
(0.049982 0 -0.00160197)
(0.0585318 0 -0.00189456)
(0.0657984 0 -0.00215249)
(0.0719253 0 -0.00237814)
(0.0770491 0 -0.00257259)
(0.0812915 0 -0.00273619)
(0.0847603 0 -0.00286824)
(0.0875569 0 -0.00296739)
(0.0897768 0 -0.00303161)
(0.0915117 0 -0.00305826)
(0.0928546 0 -0.00304477)
(0.0938947 0 -0.00298839)
(0.0947178 0 -0.00288569)
(0.0954206 0 -0.00273451)
(0.0961023 0 -0.00253328)
(0.0968547 0 -0.00228046)
(0.0977781 0 -0.00197661)
(0.098973 0 -0.00162392)
(0.100551 0 -0.00122948)
(0.102639 0 -0.000808862)
(0.105342 0 -0.00038249)
(0.108717 0 2.47812e-05)
(0.11284 0 0.000368433)
(0.117756 0 0.000581308)
(0.123396 0 0.000594459)
(0.12967 0 0.000292999)
(0.132578 0 0.000421775)
(0 0 0)
(0.0151073 0 -0.00051684)
(0.0287144 0 -0.000986305)
(0.0404921 0 -0.00140022)
(0.0506497 0 -0.00176693)
(0.0593822 0 -0.00209274)
(0.066849 0 -0.00238183)
(0.073197 0 -0.00263727)
(0.0785674 0 -0.00286108)
(0.0830857 0 -0.00305399)
(0.0868642 0 -0.00321589)
(0.0900086 0 -0.00334608)
(0.0926196 0 -0.00344333)
(0.0947966 0 -0.00350621)
(0.0966353 0 -0.00353282)
(0.0982278 0 -0.00352132)
(0.0996699 0 -0.00347025)
(0.101065 0 -0.00337917)
(0.102514 0 -0.00324824)
(0.104125 0 -0.00307931)
(0.106015 0 -0.00287709)
(0.108292 0 -0.0026474)
(0.11106 0 -0.00239831)
(0.114454 0 -0.00214812)
(0.118593 0 -0.00192237)
(0.123543 0 -0.00174749)
(0.129318 0 -0.00165925)
(0.135894 0 -0.00171581)
(0.143115 0 -0.00197797)
(0.15061 0 -0.00253043)
(0.154492 0 -0.00259557)
(0 0 0)
(0.0152825 0 -0.000563621)
(0.0290609 0 -0.00107611)
(0.041012 0 -0.0015291)
(0.0513488 0 -0.00193183)
(0.0602707 0 -0.00229139)
(0.0679452 0 -0.00261274)
(0.0745246 0 -0.00289962)
(0.0801518 0 -0.00315473)
(0.084955 0 -0.00337936)
(0.0890518 0 -0.00357415)
(0.0925526 0 -0.00373921)
(0.0955621 0 -0.0038742)
(0.0981837 0 -0.00397857)
(0.100518 0 -0.00405181)
(0.102665 0 -0.00409372)
(0.104731 0 -0.00410521)
(0.10682 0 -0.0040875)
(0.109035 0 -0.00404259)
(0.111494 0 -0.00397535)
(0.114323 0 -0.00389435)
(0.117651 0 -0.00381102)
(0.121591 0 -0.00373783)
(0.126269 0 -0.00369326)
(0.131814 0 -0.00370591)
(0.13831 0 -0.00380541)
(0.145749 0 -0.00401861)
(0.154046 0 -0.00438624)
(0.162927 0 -0.00494505)
(0.1717 0 -0.00574259)
(0.176955 0 -0.00599632)
(0 0 0)
(0.0154628 0 -0.000609954)
(0.0294176 0 -0.00116523)
(0.0415498 0 -0.00165729)
(0.0520721 0 -0.00209619)
(0.0611894 0 -0.00248999)
(0.0690787 0 -0.00284459)
(0.0758952 0 -0.0031643)
(0.0817838 0 -0.00345233)
(0.0868767 0 -0.00371077)
(0.0912958 0 -0.00394113)
(0.0951555 0 -0.00414441)
(0.0985641 0 -0.00432125)
(0.101628 0 -0.00447215)
(0.104454 0 -0.00459804)
(0.107145 0 -0.0047002)
(0.109813 0 -0.00478177)
(0.112572 0 -0.00484689)
(0.115531 0 -0.00490072)
(0.118808 0 -0.00495025)
(0.122527 0 -0.00500646)
(0.126833 0 -0.00508663)
(0.131861 0 -0.00521031)
(0.137725 0 -0.00539718)
(0.144559 0 -0.00567835)
(0.152466 0 -0.00608725)
(0.161452 0 -0.00664506)
(0.171408 0 -0.00736975)
(0.18196 0 -0.00825345)
(0.192111 0 -0.0092854)
(0.199748 0 -0.00969984)
(0 0 0)
(0.0156499 0 -0.000655846)
(0.0297835 0 -0.00125347)
(0.0420971 0 -0.00178422)
(0.0528093 0 -0.00225928)
(0.0621281 0 -0.00268771)
(0.0702351 0 -0.00307614)
(0.07729 0 -0.00342948)
(0.083441 0 -0.00375167)
(0.0888231 0 -0.00404554)
(0.0935627 0 -0.00431353)
(0.0977781 0 -0.00455771)
(0.101581 0 -0.00477979)
(0.105082 0 -0.00498182)
(0.108388 0 -0.00516564)
(0.111603 0 -0.00533377)
(0.114843 0 -0.00549116)
(0.118228 0 -0.00564521)
(0.121878 0 -0.00580484)
(0.125908 0 -0.00597996)
(0.130437 0 -0.00618356)
(0.135613 0 -0.00643709)
(0.141575 0 -0.00676628)
(0.14844 0 -0.0071963)
(0.15634 0 -0.00776253)
(0.165371 0 -0.00850218)
(0.175556 0 -0.00944018)
(0.186787 0 -0.0105802)
(0.198669 0 -0.0118587)
(0.210161 0 -0.0131527)
(0.222659 0 -0.0136027)
(0 0 0)
(0.0158363 0 -0.000701223)
(0.0301531 0 -0.00134097)
(0.0426529 0 -0.00191057)
(0.0535613 0 -0.00242225)
(0.0630875 0 -0.00288596)
(0.0714153 0 -0.00330895)
(0.0787101 0 -0.0036969)
(0.0851239 0 -0.00405455)
(0.0907939 0 -0.00438542)
(0.0958511 0 -0.00469296)
(0.100417 0 -0.00498045)
(0.104606 0 -0.00525061)
(0.108529 0 -0.00550663)
(0.112293 0 -0.00575173)
(0.116008 0 -0.00599043)
(0.119787 0 -0.00622879)
(0.123753 0 -0.00647646)
(0.128025 0 -0.00674543)
(0.132714 0 -0.00704859)
(0.137943 0 -0.00740266)
(0.143846 0 -0.00783161)
(0.150545 0 -0.00836419)
(0.158153 0 -0.00903275)
(0.166778 0 -0.00987727)
(0.176464 0 -0.0109406)
(0.187202 0 -0.0122671)
(0.198812 0 -0.0138914)
(0.210791 0 -0.0158353)
(0.222331 0 -0.0182399)
(0.245599 0 -0.0176206)
(0 0 0)
(0.0140114 0 0)
(0.0265558 0 0)
(0.0372865 0 0)
(0.0463553 0 0)
(0.0539101 0 0)
(0.0600842 0 0)
(0.0649977 0 0)
(0.0687577 0 0)
(0.0714581 0 0)
(0.0731813 0 0)
(0.0740007 0 0)
(0.0739823 0 0)
(0.0731848 0 0)
(0.0716619 0 0)
(0.0694632 0 0)
(0.0666366 0 0)
(0.0632301 0 0)
(0.0592913 0 0)
(0.0548697 0 0)
(0.0500207 0 0)
(0.0448081 0 0)
(0.0393063 0 0)
(0.0336035 0 0)
(0.0278103 0 0)
(0.0220661 0 0)
(0.0165465 0 0)
(0.0114818 0 0)
(0.00718972 0 0)
(0.00419462 0 0)
(0 0 0)
(0 0 0)
(0.0140209 0 -4.61827e-05)
(0.0265753 0 -8.78662e-05)
(0.0373159 0 -0.000124135)
(0.0463951 0 -0.000155554)
(0.0539611 0 -0.00018253)
(0.0601473 0 -0.000205209)
(0.0650743 0 -0.000223584)
(0.0688498 0 -0.000237582)
(0.0715677 0 -0.000246992)
(0.0733107 0 -0.000251309)
(0.0741527 0 -0.000249852)
(0.0741599 0 -0.000241916)
(0.0733916 0 -0.000226632)
(0.0719017 0 -0.000202955)
(0.0697404 0 -0.000169668)
(0.0669557 0 -0.000125388)
(0.0635968 0 -6.86321e-05)
(0.0597121 0 2.31571e-06)
(0.0553507 0 8.93218e-05)
(0.0505689 0 0.000194224)
(0.0454316 0 0.000318859)
(0.0400137 0 0.000465004)
(0.0344031 0 0.000634335)
(0.0287114 0 0.000828862)
(0.023081 0 0.0010501)
(0.0176903 0 0.00129829)
(0.0127778 0 0.00157155)
(0.00867317 0 0.00186061)
(0.00590236 0 0.00213339)
(0.00238525 0 0.0025344)
(0 0 0)
(0.0140515 0 -9.24814e-05)
(0.0266355 0 -0.00017598)
(0.0374053 0 -0.000248667)
(0.0465152 0 -0.000311682)
(0.0541144 0 -0.000365877)
(0.0603366 0 -0.000411532)
(0.0653038 0 -0.000448624)
(0.0691251 0 -0.000477038)
(0.0718953 0 -0.000496434)
(0.0736975 0 -0.00050579)
(0.0746066 0 -0.000503717)
(0.0746902 0 -0.000488885)
(0.0740089 0 -0.000459601)
(0.0726178 0 -0.000413826)
(0.0705679 0 -0.00034918)
(0.067908 0 -0.000262938)
(0.064689 0 -0.000152207)
(0.0609633 0 -1.38126e-05)
(0.0567808 0 0.000155827)
(0.0521985 0 0.000360339)
(0.0472844 0 0.000603201)
(0.0421178 0 0.000887635)
(0.0367866 0 0.00121675)
(0.0314007 0 0.00159343)
(0.026107 0 0.00201852)
(0.0210901 0 0.00249001)
(0.0166053 0 0.00300094)
(0.0130076 0 0.00352766)
(0.010815 0 0.00400245)
(0.00783109 0 0.004624)
(0 0 0)
(0.0141022 0 -0.000138991)
(0.0267354 0 -0.000264548)
(0.0375534 0 -0.000373929)
(0.0467141 0 -0.000468869)
(0.0543684 0 -0.000550755)
(0.0606499 0 -0.000619962)
(0.0656833 0 -0.000676426)
(0.0695805 0 -0.000720046)
(0.0724366 0 -0.000750233)
(0.0743357 0 -0.000765709)
(0.0753553 0 -0.000764614)
(0.0755649 0 -0.0007449)
(0.0750271 0 -0.000704135)
(0.0737987 0 -0.000639396)
(0.0719331 0 -0.000547276)
(0.0694806 0 -0.000423885)
(0.0664933 0 -0.00026502)
(0.0630275 0 -6.63059e-05)
(0.0591377 0 0.000177151)
(0.054882 0 0.000470519)
(0.0503323 0 0.000818593)
(0.0455732 0 0.00122563)
(0.0406994 0 0.00169535)
(0.0358217 0 0.00222933)
(0.0310865 0 0.00282529)
(0.0266768 0 0.00347665)
(0.022846 0 0.00416681)
(0.0199747 0 0.00485328)
(0.0185727 0 0.00543644)
(0.0162817 0 0.0061462)
(0 0 0)
(0.0141733 0 -0.000185785)
(0.0268752 0 -0.00035374)
(0.0377596 0 -0.000500199)
(0.0469906 0 -0.000627501)
(0.0547213 0 -0.00073751)
(0.061084 0 -0.000830813)
(0.0662083 0 -0.000907496)
(0.0702094 0 -0.000967409)
(0.073183 0 -0.00100956)
(0.0752161 0 -0.00103278)
(0.0763884 0 -0.001035)
(0.0767715 0 -0.00101332)
(0.0764308 0 -0.000964751)
(0.0754263 0 -0.000885652)
(0.0738143 0 -0.000771796)
(0.0716491 0 -0.000618406)
(0.0689847 0 -0.000420254)
(0.0658794 0 -0.000171885)
(0.0623924 0 0.000132525)
(0.0585844 0 0.000499122)
(0.0545313 0 0.000933472)
(0.0503227 0 0.00144008)
(0.0460611 0 0.0020218)
(0.0418671 0 0.00267759)
(0.0378885 0 0.00340088)
(0.0343037 0 0.00417787)
(0.0313344 0 0.00497986)
(0.0293504 0 0.00574618)
(0.0288673 0 0.00635313)
(0.0272899 0 0.00706811)
(0 0 0)
(0.0142646 0 -0.000232912)
(0.0270543 0 -0.000443552)
(0.0380216 0 -0.000627365)
(0.0473393 0 -0.000787428)
(0.0551651 0 -0.000926016)
(0.0616314 0 -0.00104409)
(0.0668714 0 -0.00114204)
(0.0710034 0 -0.00121966)
(0.0741259 0 -0.00127581)
(0.0763283 0 -0.00130914)
(0.0776923 0 -0.00131746)
(0.0782932 0 -0.00129752)
(0.0782003 0 -0.00124586)
(0.077477 0 -0.0011583)
(0.0761838 0 -0.00103003)
(0.0743791 0 -0.000855677)
(0.0721217 0 -0.00062937)
(0.0694728 0 -0.000344944)
(0.0664964 0 3.87953e-06)
(0.0632576 0 0.000423652)
(0.059832 0 0.000920242)
(0.05631 0 0.00149752)
(0.0528018 0 0.00215637)
(0.0494403 0 0.00289242)
(0.046376 0 0.00369367)
(0.043784 0 0.00453718)
(0.041857 0 0.00538341)
(0.0408984 0 0.00615909)
(0.04141 0 0.00672413)
(0.0405297 0 0.00740356)
(0 0 0)
(0.0143722 0 -0.000280225)
(0.0272653 0 -0.000533708)
(0.0383329 0 -0.000755132)
(0.0477552 0 -0.000948404)
(0.0556945 0 -0.00111627)
(0.0622855 0 -0.00126009)
(0.0676646 0 -0.00138059)
(0.0719534 0 -0.00147763)
(0.0752538 0 -0.00155013)
(0.077657 0 -0.00159631)
(0.0792483 0 -0.00161402)
(0.0801084 0 -0.00160028)
(0.0803098 0 -0.00155111)
(0.0799201 0 -0.00146204)
(0.0790046 0 -0.001328)
(0.0776271 0 -0.00114332)
(0.0758512 0 -0.00090185)
(0.0737427 0 -0.000597186)
(0.0713727 0 -0.000223108)
(0.0688154 0 0.000226458)
(0.0661454 0 0.000756793)
(0.0634485 0 0.00137091)
(0.0608328 0 0.00206804)
(0.0584386 0 0.0028396)
(0.0564241 0 0.00366679)
(0.0549529 0 0.00451828)
(0.0541977 0 0.00534559)
(0.0543787 0 0.00606951)
(0.0559522 0 0.0065413)
(0.0557629 0 0.00716716)
(0 0 0)
(0.0144948 0 -0.000327613)
(0.0275062 0 -0.000624123)
(0.03869 0 -0.000883484)
(0.0482333 0 -0.00111044)
(0.0563035 0 -0.00130833)
(0.0630385 0 -0.00147897)
(0.0685782 0 -0.00162345)
(0.0730474 0 -0.0017418)
(0.0765517 0 -0.00183309)
(0.0791858 0 -0.0018955)
(0.0810396 0 -0.00192693)
(0.0821971 0 -0.00192445)
(0.0827348 0 -0.00188405)
(0.082726 0 -0.00180127)
(0.0822416 0 -0.0016711)
(0.0813507 0 -0.00148794)
(0.0801227 0 -0.00124579)
(0.0786274 0 -0.000938351)
(0.0769437 0 -0.000559969)
(0.0751558 0 -0.000105807)
(0.073345 0 0.000427835)
(0.0716031 0 0.00104188)
(0.0700241 0 0.00173408)
(0.0687287 0 0.00249359)
(0.0678823 0 0.00329503)
(0.0676461 0 0.0040987)
(0.0681617 0 0.00484918)
(0.0695755 0 0.00546701)
(0.0722758 0 0.00580096)
(0.0728066 0 0.00635058)
(0 0 0)
(0.0146311 0 -0.000375032)
(0.0277745 0 -0.00071471)
(0.039089 0 -0.00101233)
(0.0487681 0 -0.0012735)
(0.0569848 0 -0.00150217)
(0.0638816 0 -0.00170076)
(0.0696012 0 -0.00187076)
(0.0742719 0 -0.00201244)
(0.0780035 0 -0.00212516)
(0.0808958 0 -0.0022074)
(0.0830421 0 -0.00225708)
(0.0845296 0 -0.00227131)
(0.0854396 0 -0.00224636)
(0.0858519 0 -0.00217815)
(0.0858438 0 -0.00206212)
(0.0854902 0 -0.00189311)
(0.0848679 0 -0.00166587)
(0.0840534 0 -0.00137483)
(0.0831297 0 -0.00101506)
(0.0821835 0 -0.000582887)
(0.0813097 0 -7.69643e-05)
(0.0806145 0 0.000500322)
(0.0801931 0 0.00114324)
(0.080136 0 0.00184001)
(0.0805767 0 0.00256345)
(0.0816793 0 0.00326619)
(0.0835608 0 0.00388643)
(0.0862936 0 0.00434807)
(0.0901676 0 0.00450293)
(0.0914552 0 0.00494826)
(0 0 0)
(0.0147797 0 -0.000422436)
(0.0280675 0 -0.000805384)
(0.0395255 0 -0.00114154)
(0.0493532 0 -0.00143741)
(0.0577302 0 -0.00169759)
(0.0648048 0 -0.00192528)
(0.0707213 0 -0.00212242)
(0.0756113 0 -0.00228949)
(0.0795902 0 -0.00242632)
(0.0827622 0 -0.00253177)
(0.0852243 0 -0.00260402)
(0.0870677 0 -0.00264048)
(0.088378 0 -0.00263773)
(0.0892423 0 -0.0025925)
(0.0897453 0 -0.0025011)
(0.0899674 0 -0.00235906)
(0.0899946 0 -0.00216239)
(0.0899153 0 -0.00190734)
(0.0898137 0 -0.00159005)
(0.0897776 0 -0.00120816)
(0.0899095 0 -0.000762307)
(0.0903246 0 -0.000258068)
(0.0911349 0 0.000293796)
(0.0924268 0 0.000878166)
(0.0942819 0 0.00146977)
(0.0968349 0 0.00201919)
(0.100184 0 0.00245895)
(0.104325 0 0.00271712)
(0.109395 0 0.00265676)
(0.11147 0 0.00296399)
(0 0 0)
(0.0149391 0 -0.000469735)
(0.028382 0 -0.000895974)
(0.0399948 0 -0.00127092)
(0.049982 0 -0.00160197)
(0.0585318 0 -0.00189456)
(0.0657984 0 -0.00215249)
(0.0719253 0 -0.00237814)
(0.0770491 0 -0.00257259)
(0.0812915 0 -0.00273619)
(0.0847603 0 -0.00286824)
(0.0875569 0 -0.00296739)
(0.0897768 0 -0.00303161)
(0.0915117 0 -0.00305826)
(0.0928546 0 -0.00304477)
(0.0938947 0 -0.00298839)
(0.0947178 0 -0.00288569)
(0.0954206 0 -0.00273451)
(0.0961023 0 -0.00253328)
(0.0968547 0 -0.00228046)
(0.0977781 0 -0.00197661)
(0.098973 0 -0.00162392)
(0.100551 0 -0.00122948)
(0.102639 0 -0.000808862)
(0.105342 0 -0.00038249)
(0.108717 0 2.47812e-05)
(0.11284 0 0.000368433)
(0.117756 0 0.000581308)
(0.123396 0 0.000594459)
(0.12967 0 0.000292999)
(0.132578 0 0.000421775)
(0 0 0)
(0.0151073 0 -0.00051684)
(0.0287144 0 -0.000986305)
(0.0404921 0 -0.00140022)
(0.0506497 0 -0.00176693)
(0.0593822 0 -0.00209274)
(0.066849 0 -0.00238183)
(0.073197 0 -0.00263727)
(0.0785674 0 -0.00286108)
(0.0830857 0 -0.00305399)
(0.0868642 0 -0.00321589)
(0.0900086 0 -0.00334608)
(0.0926196 0 -0.00344333)
(0.0947966 0 -0.00350621)
(0.0966353 0 -0.00353282)
(0.0982278 0 -0.00352132)
(0.0996699 0 -0.00347025)
(0.101065 0 -0.00337917)
(0.102514 0 -0.00324824)
(0.104125 0 -0.00307931)
(0.106015 0 -0.00287709)
(0.108292 0 -0.0026474)
(0.11106 0 -0.00239831)
(0.114454 0 -0.00214812)
(0.118593 0 -0.00192237)
(0.123543 0 -0.00174749)
(0.129318 0 -0.00165925)
(0.135894 0 -0.00171581)
(0.143115 0 -0.00197797)
(0.15061 0 -0.00253043)
(0.154492 0 -0.00259557)
(0 0 0)
(0.0152825 0 -0.000563621)
(0.0290609 0 -0.00107611)
(0.041012 0 -0.0015291)
(0.0513488 0 -0.00193183)
(0.0602707 0 -0.00229139)
(0.0679452 0 -0.00261274)
(0.0745246 0 -0.00289962)
(0.0801518 0 -0.00315473)
(0.084955 0 -0.00337936)
(0.0890518 0 -0.00357415)
(0.0925526 0 -0.00373921)
(0.0955621 0 -0.0038742)
(0.0981837 0 -0.00397857)
(0.100518 0 -0.00405181)
(0.102665 0 -0.00409372)
(0.104731 0 -0.00410521)
(0.10682 0 -0.0040875)
(0.109035 0 -0.00404259)
(0.111494 0 -0.00397535)
(0.114323 0 -0.00389435)
(0.117651 0 -0.00381102)
(0.121591 0 -0.00373783)
(0.126269 0 -0.00369326)
(0.131814 0 -0.00370591)
(0.13831 0 -0.00380541)
(0.145749 0 -0.00401861)
(0.154046 0 -0.00438624)
(0.162927 0 -0.00494505)
(0.1717 0 -0.00574259)
(0.176955 0 -0.00599632)
(0 0 0)
(0.0154628 0 -0.000609954)
(0.0294176 0 -0.00116523)
(0.0415498 0 -0.00165729)
(0.0520721 0 -0.00209619)
(0.0611894 0 -0.00248999)
(0.0690787 0 -0.00284459)
(0.0758952 0 -0.0031643)
(0.0817838 0 -0.00345233)
(0.0868767 0 -0.00371077)
(0.0912958 0 -0.00394113)
(0.0951555 0 -0.00414441)
(0.0985641 0 -0.00432125)
(0.101628 0 -0.00447215)
(0.104454 0 -0.00459804)
(0.107145 0 -0.0047002)
(0.109813 0 -0.00478177)
(0.112572 0 -0.00484689)
(0.115531 0 -0.00490072)
(0.118808 0 -0.00495025)
(0.122527 0 -0.00500646)
(0.126833 0 -0.00508663)
(0.131861 0 -0.00521031)
(0.137725 0 -0.00539718)
(0.144559 0 -0.00567835)
(0.152466 0 -0.00608725)
(0.161452 0 -0.00664506)
(0.171408 0 -0.00736975)
(0.18196 0 -0.00825345)
(0.192111 0 -0.0092854)
(0.199748 0 -0.00969984)
(0 0 0)
(0.0156499 0 -0.000655846)
(0.0297835 0 -0.00125347)
(0.0420971 0 -0.00178422)
(0.0528093 0 -0.00225928)
(0.0621281 0 -0.00268771)
(0.0702351 0 -0.00307614)
(0.07729 0 -0.00342948)
(0.083441 0 -0.00375167)
(0.0888231 0 -0.00404554)
(0.0935627 0 -0.00431353)
(0.0977781 0 -0.00455771)
(0.101581 0 -0.00477979)
(0.105082 0 -0.00498182)
(0.108388 0 -0.00516564)
(0.111603 0 -0.00533377)
(0.114843 0 -0.00549116)
(0.118228 0 -0.00564521)
(0.121878 0 -0.00580484)
(0.125908 0 -0.00597996)
(0.130437 0 -0.00618356)
(0.135613 0 -0.00643709)
(0.141575 0 -0.00676628)
(0.14844 0 -0.0071963)
(0.15634 0 -0.00776253)
(0.165371 0 -0.00850218)
(0.175556 0 -0.00944018)
(0.186787 0 -0.0105802)
(0.198669 0 -0.0118587)
(0.210161 0 -0.0131527)
(0.222659 0 -0.0136027)
(0 0 0)
(0.0158363 0 -0.000701223)
(0.0301531 0 -0.00134097)
(0.0426529 0 -0.00191057)
(0.0535613 0 -0.00242225)
(0.0630875 0 -0.00288596)
(0.0714153 0 -0.00330895)
(0.0787101 0 -0.0036969)
(0.0851239 0 -0.00405455)
(0.0907939 0 -0.00438542)
(0.0958511 0 -0.00469296)
(0.100417 0 -0.00498045)
(0.104606 0 -0.00525061)
(0.108529 0 -0.00550663)
(0.112293 0 -0.00575173)
(0.116008 0 -0.00599043)
(0.119787 0 -0.00622879)
(0.123753 0 -0.00647646)
(0.128025 0 -0.00674543)
(0.132714 0 -0.00704859)
(0.137943 0 -0.00740266)
(0.143846 0 -0.00783161)
(0.150545 0 -0.00836419)
(0.158153 0 -0.00903275)
(0.166778 0 -0.00987727)
(0.176464 0 -0.0109406)
(0.187202 0 -0.0122671)
(0.198812 0 -0.0138914)
(0.210791 0 -0.0158353)
(0.222331 0 -0.0182399)
(0.245599 0 -0.0176206)
(0 0 0)
(0.0053571 0 0)
(0.0105101 0 0)
(0.0186784 0 0)
(0.0292365 0 0)
(0.0413338 0 0)
(0.0540818 0 0)
(0.0667011 0 0)
(0.0785897 0 0)
(0.0893455 0 0)
(0.0987394 0 0)
(0.106663 0 0)
(0.113098 0 0)
(0.118079 0 0)
(0.121658 0 0)
(0.123885 0 0)
(0.124807 0 0)
(0.124465 0 0)
(0.122886 0 0)
(0.120086 0 0)
(0.116065 0 0)
(0.110803 0 0)
(0.104267 0 0)
(0.0964188 0 0)
(0.0872228 0 0)
(0.0766138 0 0)
(0.0645006 0 0)
(0.0507888 0 0)
(0.0354343 0 0)
(0.0183918 0 0)
(0 0 0)
(0.00219402 0 -0.00271899)
(0.00704954 0 -0.00273673)
(0.0122269 0 -0.00289273)
(0.0203901 0 -0.00306933)
(0.0309096 0 -0.00325284)
(0.0429224 0 -0.00341096)
(0.0555462 0 -0.00351802)
(0.0680186 0 -0.00356592)
(0.0797496 0 -0.00355485)
(0.0903491 0 -0.00349121)
(0.0995941 0 -0.00338731)
(0.10738 0 -0.00325541)
(0.113695 0 -0.0031031)
(0.118574 0 -0.00293911)
(0.122067 0 -0.00276894)
(0.124222 0 -0.00259314)
(0.125084 0 -0.00241141)
(0.124692 0 -0.00222815)
(0.123073 0 -0.00205082)
(0.12024 0 -0.00187917)
(0.11619 0 -0.00171141)
(0.110908 0 -0.00154699)
(0.104355 0 -0.00138507)
(0.0964944 0 -0.00122358)
(0.0872848 0 -0.0010626)
(0.0766613 0 -0.000902213)
(0.0645367 0 -0.000739561)
(0.0508209 0 -0.000570945)
(0.0354628 0 -0.000392453)
(0.0184079 0 -0.000201825)
(0 0 0)
(0.0072832 0 -0.00530979)
(0.0119579 0 -0.00545247)
(0.0172627 0 -0.00578127)
(0.0254499 0 -0.00615089)
(0.035863 0 -0.00651959)
(0.0476152 0 -0.00682412)
(0.0598686 0 -0.00702456)
(0.0719079 0 -0.00710861)
(0.0831729 0 -0.00707716)
(0.0933051 0 -0.00694259)
(0.102108 0 -0.00672532)
(0.109493 0 -0.00645082)
(0.115458 0 -0.00614142)
(0.120036 0 -0.00581074)
(0.123273 0 -0.0054696)
(0.125214 0 -0.00512086)
(0.1259 0 -0.00476492)
(0.125364 0 -0.00440867)
(0.123626 0 -0.00405985)
(0.120695 0 -0.00371877)
(0.116566 0 -0.00338411)
(0.111218 0 -0.00305755)
(0.104614 0 -0.00273808)
(0.0967123 0 -0.00242152)
(0.0874636 0 -0.00210582)
(0.0768036 0 -0.00178909)
(0.0646486 0 -0.00146609)
(0.0509127 0 -0.00113113)
(0.0355344 0 -0.000778096)
(0.0184464 0 -0.00040062)
(0 0 0)
(0.0152431 0 -0.00787289)
(0.0197549 0 -0.0081796)
(0.0253309 0 -0.00870058)
(0.0335903 0 -0.00927324)
(0.0438116 0 -0.00981235)
(0.0551311 0 -0.0102347)
(0.0667971 0 -0.010501)
(0.0781406 0 -0.0105953)
(0.0886503 0 -0.0105213)
(0.0980309 0 -0.0103024)
(0.106131 0 -0.00996912)
(0.112884 0 -0.00955175)
(0.11829 0 -0.00908228)
(0.122386 0 -0.00858243)
(0.125213 0 -0.00806848)
(0.126811 0 -0.00754942)
(0.127215 0 -0.00702652)
(0.126447 0 -0.00650553)
(0.124519 0 -0.00599174)
(0.121434 0 -0.00548895)
(0.117179 0 -0.00499768)
(0.111724 0 -0.00451783)
(0.105033 0 -0.00404843)
(0.0970593 0 -0.00358433)
(0.0877494 0 -0.00312066)
(0.0770375 0 -0.00265338)
(0.0648382 0 -0.00217512)
(0.05106 0 -0.00167837)
(0.0356379 0 -0.0011552)
(0.0185001 0 -0.000595219)
(0 0 0)
(0.0256712 0 -0.0105205)
(0.0301324 0 -0.0109933)
(0.0360926 0 -0.0117104)
(0.0444365 0 -0.0124715)
(0.0543753 0 -0.0131486)
(0.0651255 0 -0.0136527)
(0.0760074 0 -0.013945)
(0.0864035 0 -0.0140092)
(0.095897 0 -0.0138598)
(0.104287 0 -0.0135368)
(0.111461 0 -0.0130788)
(0.117376 0 -0.0125198)
(0.122047 0 -0.0118946)
(0.125508 0 -0.0112307)
(0.127794 0 -0.0105477)
(0.128939 0 -0.00986184)
(0.12897 0 -0.0091791)
(0.127897 0 -0.00850242)
(0.125719 0 -0.00783631)
(0.122429 0 -0.00718559)
(0.118004 0 -0.00655023)
(0.112406 0 -0.00592705)
(0.105594 0 -0.0053148)
(0.0975228 0 -0.00470897)
(0.0881303 0 -0.0041034)
(0.0773488 0 -0.0034917)
(0.0650894 0 -0.00286492)
(0.0512533 0 -0.00221254)
(0.0357702 0 -0.00152357)
(0.0185659 0 -0.000785158)
(0 0 0)
(0.0382899 0 -0.0133489)
(0.0427951 0 -0.0139679)
(0.0491968 0 -0.0148661)
(0.057605 0 -0.0157807)
(0.0671818 0 -0.0165512)
(0.0772295 0 -0.0170887)
(0.0871165 0 -0.017352)
(0.0963253 0 -0.0173365)
(0.104591 0 -0.0170784)
(0.111789 0 -0.0166278)
(0.117842 0 -0.0160275)
(0.122755 0 -0.0153213)
(0.126554 0 -0.0145461)
(0.129262 0 -0.0137277)
(0.130907 0 -0.0128883)
(0.131516 0 -0.0120473)
(0.131102 0 -0.0112151)
(0.129664 0 -0.0103959)
(0.127186 0 -0.00959258)
(0.123647 0 -0.00880605)
(0.119015 0 -0.00803548)
(0.113245 0 -0.00727787)
(0.106286 0 -0.00653006)
(0.0980903 0 -0.00578866)
(0.088593 0 -0.005048)
(0.077721 0 -0.00429847)
(0.0653834 0 -0.00352945)
(0.0514811 0 -0.00272801)
(0.0359327 0 -0.00187962)
(0.0186522 0 -0.000968894)
(0 0 0)
(0.0528777 0 -0.0164301)
(0.0574893 0 -0.0171589)
(0.0643371 0 -0.0182078)
(0.0727502 0 -0.0192247)
(0.0818483 0 -0.0200257)
(0.0910093 0 -0.0205272)
(0.0996787 0 -0.0206961)
(0.107498 0 -0.0205498)
(0.114361 0 -0.0201486)
(0.120197 0 -0.0195462)
(0.124994 0 -0.0187924)
(0.128795 0 -0.0179373)
(0.131621 0 -0.0170148)
(0.133494 0 -0.0160528)
(0.134436 0 -0.0150743)
(0.134451 0 -0.0140944)
(0.133539 0 -0.0131257)
(0.131687 0 -0.0121758)
(0.128867 0 -0.0112454)
(0.125043 0 -0.0103316)
(0.120174 0 -0.00943472)
(0.114207 0 -0.00855268)
(0.107082 0 -0.00768009)