/*--------------------------------*- C++ -*----------------------------------*\
| =========                 |                                                 |
| \\      /  F ield         | OpenFOAM: The Open Source CFD Toolbox           |
|  \\    /   O peration     | Version:  dev                                   |
|   \\  /    A nd           | Web:      www.OpenFOAM.org                      |
|    \\/     M anipulation  |                                                 |
\*---------------------------------------------------------------------------*/
FoamFile
{
    version     2.0;
    format      ascii;
    class       volVectorField;
    location    "1";
    object      cellDisplacement;
}
// * * * * * * * * * * * * * * * * * * * * * * * * * * * * * * * * * * * * * //

dimensions      [0 1 0 0 0 0 0];

internalField   nonuniform List<vector> 
465
(
(0.0100082 0 -3.10256e-05)
(0.0285755 0 -8.88843e-05)
(0.0444307 0 -0.000139453)
(0.0578063 0 -0.000183937)
(0.0689506 0 -0.000223283)
(0.0780833 0 -0.000258151)
(0.0853951 0 -0.000289188)
(0.0910567 0 -0.000316022)
(0.0952217 0 -0.000338919)
(0.098021 0 -0.000357789)
(0.0995692 0 -0.000372381)
(0.0999674 0 -0.000382297)
(0.0993051 0 -0.00038668)
(0.0976633 0 -0.000384834)
(0.0951156 0 -0.000375858)
(0.0917297 0 -0.000358631)
(0.08757 0 -0.000331821)
(0.0826992 0 -0.000293874)
(0.0771825 0 -0.000243075)
(0.0710966 0 -0.000178017)
(0.0645079 0 -9.55575e-05)
(0.0100222 0 -9.31717e-05)
(0.0286161 0 -0.000266951)
(0.0444967 0 -0.000418869)
(0.0578991 0 -0.00055257)
(0.0690719 0 -0.000670888)
(0.0782366 0 -0.000775755)
(0.0855826 0 -0.000869415)
(0.0912812 0 -0.000950315)
(0.0954891 0 -0.00101953)
(0.0983369 0 -0.00107677)
(0.0999401 0 -0.00112129)
(0.100401 0 -0.00115207)
(0.0998091 0 -0.0011663)
(0.0982474 0 -0.00116209)
(0.0957909 0 -0.00113677)
(0.0925087 0 -0.00108705)
(0.0884667 0 -0.00100898)
(0.0837284 0 -0.000897966)
(0.0783557 0 -0.000748602)
(0.0724375 0 -0.000556287)
(0.0660556 0 -0.000314808)
(0.010051 0 -0.000155576)
(0.0286981 0 -0.000445836)
(0.0446293 0 -0.000699683)
(0.0580848 0 -0.000923288)
(0.0693139 0 -0.00112138)
(0.0785426 0 -0.00129688)
(0.0859548 0 -0.00145177)
(0.0917258 0 -0.0015873)
(0.0960186 0 -0.00170387)
(0.0989625 0 -0.00180078)
(0.100674 0 -0.00187685)
(0.101259 0 -0.00193108)
(0.100807 0 -0.00195786)
(0.0994038 0 -0.00195477)
(0.0971275 0 -0.00191753)
(0.0940504 0 -0.00184088)
(0.0902414 0 -0.00171858)
(0.0857682 0 -0.00154334)
(0.0806937 0 -0.00130618)
(0.0751076 0 -0.00100014)
(0.0690998 0 -0.000615983)
(0.0100952 0 -0.000218017)
(0.0288219 0 -0.000624907)
(0.0448273 0 -0.000980853)
(0.058362 0 -0.00129473)
(0.0696738 0 -0.00157322)
(0.0789882 0 -0.00181993)
(0.0864999 0 -0.00203702)
(0.092387 0 -0.00222865)
(0.0968071 0 -0.00239432)
(0.0998941 0 -0.00253305)
(0.101767 0 -0.00264304)
(0.102531 0 -0.0027214)
(0.102284 0 -0.00276467)
(0.101115 0 -0.00276823)
(0.0991051 0 -0.00272625)
(0.0963306 0 -0.00263182)
(0.0928662 0 -0.00247696)
(0.0887887 0 -0.00225269)
(0.0841639 0 -0.00194795)
(0.0790788 0 -0.00155197)
(0.0736369 0 -0.00105338)
(0.010155 0 -0.000280467)
(0.0289855 0 -0.00080326)
(0.0450868 0 -0.00126088)
(0.0587265 0 -0.00166492)
(0.0701471 0 -0.00202419)
(0.0795762 0 -0.00234281)
(0.0872207 0 -0.00262529)
(0.0932578 0 -0.00287493)
(0.0978452 0 -0.00309202)
(0.10112 0 -0.00327552)
(0.103204 0 -0.0034231)
(0.104205 0 -0.00353039)
(0.104229 0 -0.00359633)
(0.103368 0 -0.00361433)
(0.101708 0 -0.00357738)
(0.0993298 0 -0.00347741)
(0.096315 0 -0.00330523)
(0.0927454 0 -0.00305047)
(0.0887016 0 -0.00270138)
(0.0842786 0 -0.00224562)
(0.0795841 0 -0.00167051)
(0.0102137 0 -0.000342473)
(0.0291713 0 -0.000981106)
(0.0454044 0 -0.0015409)
(0.0591766 0 -0.00203551)
(0.0707292 0 -0.00247452)
(0.080299 0 -0.0028656)
(0.0881057 0 -0.00321427)
(0.0943253 0 -0.00352368)
(0.099117 0 -0.00379463)
(0.102621 0 -0.00402626)
(0.104964 0 -0.00421621)
(0.10626 0 -0.00436083)
(0.106617 0 -0.00445725)
(0.106133 0 -0.00449923)
(0.1049 0 -0.00447928)
(0.103006 0 -0.00438877)
(0.100541 0 -0.004218)
(0.097596 0 -0.0039564)
(0.0942639 0 -0.00359247)
(0.0906411 0 -0.00311248)
(0.0868525 0 -0.00250531)
(0.0102867 0 -0.000404169)
(0.0293939 0 -0.00115865)
(0.0457779 0 -0.00182063)
(0.0596958 0 -0.00240592)
(0.0714046 0 -0.00292543)
(0.0811508 0 -0.00339055)
(0.0891496 0 -0.00380706)
(0.0955837 0 -0.00417864)
(0.100616 0 -0.0045067)
(0.10439 0 -0.00479071)
(0.107037 0 -0.00502851)
(0.108675 0 -0.00521654)
(0.109422 0 -0.00535209)
(0.109378 0 -0.00542897)
(0.108644 0 -0.00543966)
(0.107315 0 -0.00537562)
(0.105489 0 -0.00522728)
(0.103261 0 -0.00498377)
(0.100761 0 -0.00463855)
(0.0980789 0 -0.0041761)
(0.0953556 0 -0.0035887)
(0.0103717 0 -0.000465406)
(0.0296489 0 -0.00133478)
(0.0462032 0 -0.00209837)
(0.0602898 0 -0.00277465)
(0.0721779 0 -0.00337668)
(0.0821232 0 -0.00391715)
(0.0903409 0 -0.00440328)
(0.0970187 0 -0.00483959)
(0.102324 0 -0.00522822)
(0.106404 0 -0.00556921)
(0.109396 0 -0.00586072)
(0.111421 0 -0.0060988)
(0.112607 0 -0.00628284)
(0.113061 0 -0.00640648)
(0.11289 0 -0.0064627)
(0.112198 0 -0.00644371)
(0.111094 0 -0.00634135)
(0.109693 0 -0.00614778)
(0.108109 0 -0.0058534)
(0.106473 0 -0.00545052)
(0.104928 0 -0.0049331)
(0.0104675 0 -0.000526353)
(0.0299338 0 -0.00151009)
(0.046679 0 -0.00237514)
(0.0609524 0 -0.00314129)
(0.073037 0 -0.00382572)
(0.0832018 0 -0.00444238)
(0.0916616 0 -0.0049996)
(0.0986086 0 -0.00550292)
(0.104215 0 -0.00595544)
(0.108634 0 -0.00635798)
(0.112006 0 -0.00670956)
(0.114466 0 -0.00700842)
(0.116137 0 -0.00725094)
(0.117139 0 -0.00743377)
(0.117584 0 -0.00755095)
(0.117589 0 -0.00759605)
(0.117268 0 -0.007562)
(0.116771 0 -0.00744798)
(0.116197 0 -0.00724199)
(0.115711 0 -0.00694437)
(0.115469 0 -0.00655389)
(0.0105731 0 -0.000586888)
(0.030245 0 -0.00168423)
(0.0471864 0 -0.00264981)
(0.0616656 0 -0.00350602)
(0.0739757 0 -0.00427395)
(0.084381 0 -0.00496803)
(0.0931044 0 -0.00559817)
(0.100344 0 -0.00617112)
(0.106277 0 -0.00669117)
(0.111063 0 -0.00716009)
(0.114849 0 -0.00757818)
(0.117779 0 -0.00794555)
(0.119966 0 -0.00825536)
(0.121556 0 -0.00850984)
(0.122664 0 -0.00870352)
(0.123417 0 -0.00883227)
(0.123951 0 -0.00889398)
(0.124397 0 -0.00888451)
(0.124888 0 -0.00880023)
(0.125623 0 -0.0086505)
(0.126775 0 -0.00844128)
(0.0106866 0 -0.000646576)
(0.0305787 0 -0.00185605)
(0.0477328 0 -0.00292139)
(0.0624353 0 -0.00386865)
(0.0749852 0 -0.00472046)
(0.0856482 0 -0.00549301)
(0.0946537 0 -0.00619774)
(0.102206 0 -0.00684272)
(0.108489 0 -0.00743374)
(0.113665 0 -0.00797356)
(0.117888 0 -0.00846356)
(0.121303 0 -0.00890406)
(0.124047 0 -0.00929358)
(0.126258 0 -0.00963214)
(0.128062 0 -0.00991701)
(0.129594 0 -0.0101466)
(0.131023 0 -0.0103266)
(0.132462 0 -0.010451)
(0.134088 0 -0.0105268)
(0.136081 0 -0.0105629)
(0.138632 0 -0.0105741)
(0.0108079 0 -0.000705602)
(0.0309338 0 -0.00202606)
(0.0483147 0 -0.00319052)
(0.0632538 0 -0.00422845)
(0.0760566 0 -0.00516437)
(0.0869919 0 -0.00601626)
(0.0962947 0 -0.00679707)
(0.104176 0 -0.00751619)
(0.110826 0 -0.00818143)
(0.116411 0 -0.00879637)
(0.12109 0 -0.00936366)
(0.125014 0 -0.00988514)
(0.128333 0 -0.0103625)
(0.131185 0 -0.0107958)
(0.133706 0 -0.0111856)
(0.136056 0 -0.0115363)
(0.13838 0 -0.0118504)
(0.140824 0 -0.0121308)
(0.143604 0 -0.0123958)
(0.146872 0 -0.0126539)
(0.150851 0 -0.0129295)
(0.0109368 0 -0.000763852)
(0.031308 0 -0.00219387)
(0.0489258 0 -0.00345639)
(0.0641125 0 -0.0045844)
(0.077179 0 -0.00560446)
(0.0883984 0 -0.0065363)
(0.0980099 0 -0.00739439)
(0.106232 0 -0.00818919)
(0.113264 0 -0.00893161)
(0.119271 0 -0.00962542)
(0.124418 0 -0.0102747)
(0.128862 0 -0.0108831)
(0.132769 0 -0.011456)
(0.136273 0 -0.0119938)
(0.139518 0 -0.0124995)
(0.142691 0 -0.0129855)
(0.145916 0 -0.0134514)
(0.14938 0 -0.0139119)
(0.153266 0 -0.0143821)
(0.157795 0 -0.0148897)
(0.16321 0 -0.0154695)
(0.0110728 0 -0.000821189)
(0.0316959 0 -0.00235817)
(0.0495558 0 -0.00371676)
(0.0649981 0 -0.00493361)
(0.078336 0 -0.00603712)
(0.0898475 0 -0.00704889)
(0.0997744 0 -0.00798491)
(0.108352 0 -0.00885898)
(0.115778 0 -0.00968138)
(0.122215 0 -0.0104572)
(0.127836 0 -0.0111925)
(0.132807 0 -0.0118927)
(0.137307 0 -0.0125684)
(0.14146 0 -0.0132179)
(0.145439 0 -0.0138519)
(0.149406 0 -0.0144798)
(0.153511 0 -0.0151093)
(0.157969 0 -0.0157648)
(0.162952 0 -0.0164633)
(0.168672 0 -0.0172347)
(0.175416 0 -0.0181326)
(0.0111973 0 -0.000876189)
(0.0320781 0 -0.00251788)
(0.0502005 0 -0.00397194)
(0.0659067 0 -0.00527663)
(0.0795228 0 -0.00646303)
(0.0913338 0 -0.00755477)
(0.10159 0 -0.00857003)
(0.110527 0 -0.00952406)
(0.118344 0 -0.0104275)
(0.125212 0 -0.0112875)
(0.131307 0 -0.0121118)
(0.136813 0 -0.0129106)
(0.141891 0 -0.013691)
(0.14668 0 -0.0144571)
(0.151373 0 -0.0152256)
(0.15611 0 -0.0160031)
(0.161073 0 -0.0168076)
(0.166449 0 -0.0176601)
(0.172461 0 -0.0185955)
(0.179284 0 -0.0196398)
(0.187203 0 -0.0208529)
(0.0508671 0 -0.00422586)
(0.0668468 0 -0.00561862)
(0.0807501 0 -0.00688852)
(0.0928702 0 -0.00806122)
(0.10346 0 -0.00915684)
(0.112765 0 -0.0101927)
(0.120985 0 -0.0111801)
(0.12829 0 -0.0121274)
(0.134865 0 -0.0130446)
(0.140906 0 -0.013946)
(0.146555 0 -0.0148364)
(0.151983 0 -0.0157275)
(0.157353 0 -0.0166315)
(0.162837 0 -0.0175654)
(0.168619 0 -0.0185511)
(0.174864 0 -0.0196083)
(0.181808 0 -0.0207796)
(0.189646 0 -0.0221029)
(0.19857 0 -0.023623)
(0.0678211 0 -0.00596142)
(0.0820216 0 -0.00731588)
(0.0944616 0 -0.0085709)
(0.105405 0 -0.00974976)
(0.115086 0 -0.01087)
(0.123708 0 -0.0119433)
(0.131453 0 -0.0129811)
(0.138518 0 -0.013997)
(0.145079 0 -0.0150017)
(0.1513 0 -0.0160072)
(0.157353 0 -0.0170283)
(0.16339 0 -0.0180758)
(0.169578 0 -0.0191681)
(0.176109 0 -0.0203336)
(0.183165 0 -0.0215996)
(0.190939 0 -0.0230033)
(0.199611 0 -0.0245873)
(0.209346 0 -0.0263957)
(0.0833169 0 -0.0077396)
(0.0960883 0 -0.0090792)
(0.107388 0 -0.0103421)
(0.117441 0 -0.0115453)
(0.126467 0 -0.012706)
(0.134655 0 -0.0138365)
(0.142201 0 -0.0149528)
(0.149275 0 -0.016065)
(0.156043 0 -0.0171862)
(0.162683 0 -0.0183353)
(0.169343 0 -0.0195264)
(0.176181 0 -0.0207765)
(0.183394 0 -0.0221189)
(0.191151 0 -0.0235833)
(0.199594 0 -0.0251991)
(0.208892 0 -0.0270121)
(0.21921 0 -0.0290728)
(0.0977429 0 -0.00958161)
(0.109384 0 -0.0109269)
(0.119813 0 -0.0122158)
(0.129243 0 -0.0134647)
(0.13786 0 -0.0146871)
(0.14587 0 -0.0159024)
(0.153433 0 -0.0171218)
(0.160719 0 -0.0183583)
(0.167907 0 -0.0196341)
(0.175123 0 -0.0209612)
(0.182548 0 -0.0223647)
(0.190342 0 -0.0238721)
(0.198644 0 -0.0255103)
(0.207602 0 -0.0273146)
(0.21733 0 -0.0293209)
(0.227953 0 -0.0315756)
(0.111384 0 -0.0115002)
(0.122182 0 -0.012874)
(0.131989 0 -0.0142084)
(0.141024 0 -0.0155229)
(0.149481 0 -0.0168365)
(0.157499 0 -0.0181586)
(0.165271 0 -0.0195092)
(0.172953 0 -0.020906)
(0.18066 0 -0.0223616)
(0.188574 0 -0.0239041)
(0.196825 0 -0.0255561)
(0.205536 0 -0.0273442)
(0.214839 0 -0.0293035)
(0.22477 0 -0.0314533)
(0.23543 0 -0.0338358)
(0.124504 0 -0.0135108)
(0.134682 0 -0.0149296)
(0.144121 0 -0.0163356)
(0.152991 0 -0.0177437)
(0.16143 0 -0.0191645)
(0.169636 0 -0.0206219)
(0.177746 0 -0.0221301)
(0.185867 0 -0.023702)
(0.194169 0 -0.0253659)
(0.202757 0 -0.0271405)
(0.211741 0 -0.0290515)
(0.221182 0 -0.0311178)
(0.231111 0 -0.0333583)
(0.241559 0 -0.0357987)
(0.147109 0 -0.0171143)
(0.156353 0 -0.0186106)
(0.165166 0 -0.020123)
(0.173752 0 -0.0216781)
(0.182215 0 -0.0232848)
(0.190662 0 -0.0249571)
(0.199247 0 -0.0267215)
(0.208048 0 -0.0285914)
(0.217136 0 -0.0305852)
(0.226544 0 -0.0327148)
(0.236293 0 -0.0349955)
(0.246366 0 -0.0374392)
(0.159516 0 -0.019423)
(0.168666 0 -0.0210207)
(0.177562 0 -0.0226601)
(0.186293 0 -0.0243483)
(0.194976 0 -0.026102)
(0.203727 0 -0.0279404)
(0.212603 0 -0.0298731)
(0.221659 0 -0.031914)
(0.230917 0 -0.0340721)
(0.240371 0 -0.0363551)
(0.249983 0 -0.0387658)
(0.180984 0 -0.023543)
(0.189905 0 -0.0252956)
(0.19873 0 -0.027109)
(0.207545 0 -0.0289965)
(0.216403 0 -0.030967)
(0.225339 0 -0.0330287)
(0.23436 0 -0.0351867)
(0.243447 0 -0.0374426)
(0.25255 0 -0.0397932)
(0.201899 0 -0.0279621)
(0.210705 0 -0.0298791)
(0.219471 0 -0.0318654)
(0.228218 0 -0.0339254)
(0.236945 0 -0.0360601)
(0.245624 0 -0.0382667)
(0.254202 0 -0.0405383)
(0.213225 0 -0.0305806)
(0.221843 0 -0.0325639)
(0.230354 0 -0.0346033)
(0.238751 0 -0.0366964)
(0.247003 0 -0.0388378)
(0.255061 0 -0.0410175)
(0.231805 0 -0.035063)
(0.239854 0 -0.0371011)
(0.247682 0 -0.0391666)
(0.255245 0 -0.041249)
(0.247743 0 -0.0392615)
(0.254838 0 -0.0412423)
)
;

boundaryField
{
    inlet
    {
        type            cellMotion;
        value           uniform (0 0 0);
    }
    outlet
    {
        type            cellMotion;
        value           nonuniform 0();
    }
    flap
    {
        type            cellMotion;
        value           nonuniform 0();
    }
    upperWall
    {
        type            slip;
    }
    lowerWall
    {
        type            slip;
    }
    frontAndBack
    {
        type            empty;
    }
    procBoundary3to0
    {
        type            processor;
        value           nonuniform List<vector> 
34
(
(0.0113286 0 -0.0009308)
(0.0324764 0 -0.00267683)
(0.0324764 0 -0.00267683)
(0.0515588 0 -0.00448009)
(0.0515588 0 -0.00448009)
(0.0688162 0 -0.00630087)
(0.0688162 0 -0.00630087)
(0.0846395 0 -0.00815797)
(0.0846395 0 -0.00815797)
(0.0993936 0 -0.0100723)
(0.0993936 0 -0.0100723)
(0.113357 0 -0.0120564)
(0.113357 0 -0.0120564)
(0.126761 0 -0.0141212)
(0.137294 0 -0.0156213)
(0.137294 0 -0.0156213)
(0.149953 0 -0.0178481)
(0.149953 0 -0.0178481)
(0.162446 0 -0.0201683)
(0.171866 0 -0.0218378)
(0.171866 0 -0.0218378)
(0.183967 0 -0.0243076)
(0.193009 0 -0.0261081)
(0.193009 0 -0.0261081)
(0.204489 0 -0.0286523)
(0.204489 0 -0.0286523)
(0.215134 0 -0.0310956)
(0.223561 0 -0.0330596)
(0.223561 0 -0.0330596)
(0.232633 0 -0.0353068)
(0.240331 0 -0.0372796)
(0.240331 0 -0.0372796)
(0.247267 0 -0.0391302)
(0.25392 0 -0.0410067)
)
;
    }
    procBoundary3to1
    {
        type            processor;
        value           nonuniform List<vector> 9((0.246792 0 -0.0364716) (0.252462 0 -0.0384459) (0.256688 0 -0.0400468) (0.259668 0 -0.0412988) (0.261587 0 -0.0422291) (0.262607 0 -0.0428632) (0.26288 0 -0.0432287) (0.262507 0 -0.0433402) (0.261582 0 -0.0432116));
    }
    procBoundary3to4
    {
        type            processor;
        value           nonuniform List<vector> 
19
(
(0.0574826 0 6.66875e-06)
(0.0592621 0 -1.54717e-05)
(0.0627522 0 -0.000141311)
(0.0679343 0 -0.000438337)
(0.0747337 0 -0.000962784)
(0.0830222 0 -0.0017587)
(0.0927389 0 -0.00286845)
(0.103677 0 -0.00430539)
(0.115649 0 -0.00607553)
(0.128521 0 -0.00818241)
(0.142007 0 -0.0105938)
(0.155822 0 -0.0132665)
(0.169713 0 -0.0161557)
(0.18337 0 -0.0191942)
(0.19644 0 -0.0222914)
(0.208841 0 -0.0254151)
(0.220383 0 -0.0285066)
(0.230686 0 -0.0314406)
(0.239529 0 -0.0341207)
)
;
    }
}


// ************************************************************************* //
