/*--------------------------------*- C++ -*----------------------------------*\
| =========                 |                                                 |
| \\      /  F ield         | OpenFOAM: The Open Source CFD Toolbox           |
|  \\    /   O peration     | Version:  dev                                   |
|   \\  /    A nd           | Web:      www.OpenFOAM.org                      |
|    \\/     M anipulation  |                                                 |
\*---------------------------------------------------------------------------*/
FoamFile
{
    version     2.0;
    format      ascii;
    class       volVectorField;
    location    "1";
    object      cellDisplacement;
}
// * * * * * * * * * * * * * * * * * * * * * * * * * * * * * * * * * * * * * //

dimensions      [0 1 0 0 0 0 0];

internalField   nonuniform List<vector> 
465
(
(0.0117114 0 -3.50279e-05)
(0.0334015 0 -0.000100247)
(0.0518546 0 -0.000157131)
(0.0673689 0 -0.000207075)
(0.080265 0 -0.000251299)
(0.0908092 0 -0.000291306)
(0.0992464 0 -0.000326316)
(0.105799 0 -0.000357248)
(0.110647 0 -0.000384194)
(0.113949 0 -0.00040706)
(0.115842 0 -0.000425655)
(0.116446 0 -0.000439784)
(0.115864 0 -0.000448049)
(0.114193 0 -0.000449889)
(0.111514 0 -0.000444307)
(0.107905 0 -0.000429995)
(0.103434 0 -0.000405339)
(0.0981672 0 -0.000368271)
(0.092167 0 -0.000316187)
(0.0855027 0 -0.000246502)
(0.0782455 0 -0.000155344)
(0.0117258 0 -0.000105317)
(0.0334443 0 -0.000301458)
(0.0519252 0 -0.000472624)
(0.0674675 0 -0.000622974)
(0.0803975 0 -0.000756044)
(0.0909745 0 -0.000874014)
(0.0994457 0 -0.000979033)
(0.10604 0 -0.00107203)
(0.110935 0 -0.00115316)
(0.11429 0 -0.00122214)
(0.116243 0 -0.00127837)
(0.116915 0 -0.0013218)
(0.116411 0 -0.00134748)
(0.114828 0 -0.00135426)
(0.11225 0 -0.00133917)
(0.108757 0 -0.00129841)
(0.10442 0 -0.00122732)
(0.0993084 0 -0.00111994)
(0.0934833 0 -0.000968303)
(0.0870231 0 -0.000765792)
(0.080006 0 -0.000500971)
(0.0117545 0 -0.000175727)
(0.0335294 0 -0.000503085)
(0.0520644 0 -0.000788929)
(0.067661 0 -0.00104014)
(0.0806455 0 -0.00126255)
(0.0912887 0 -0.00145907)
(0.0998389 0 -0.0016351)
(0.106517 0 -0.0017913)
(0.111507 0 -0.00192799)
(0.114968 0 -0.0020447)
(0.117041 0 -0.00214016)
(0.117846 0 -0.00221216)
(0.117496 0 -0.0022579)
(0.116089 0 -0.00227355)
(0.113714 0 -0.00225413)
(0.110451 0 -0.00219353)
(0.106381 0 -0.00208477)
(0.101581 0 -0.0019189)
(0.0961159 0 -0.00168433)
(0.0900621 0 -0.00136744)
(0.08352 0 -0.000952781)
(0.0117971 0 -0.000245871)
(0.0336562 0 -0.00070401)
(0.0522715 0 -0.00110432)
(0.0679486 0 -0.00145631)
(0.0810192 0 -0.00176846)
(0.0917618 0 -0.00204618)
(0.100425 0 -0.00229455)
(0.107228 0 -0.0025155)
(0.112357 0 -0.00270969)
(0.115976 0 -0.00287661)
(0.118226 0 -0.0030144)
(0.119232 0 -0.00311898)
(0.119113 0 -0.00318997)
(0.11797 0 -0.00322105)
(0.115894 0 -0.00320557)
(0.112973 0 -0.00313543)
(0.109295 0 -0.0030024)
(0.104944 0 -0.00279492)
(0.100007 0 -0.00249984)
(0.0945634 0 -0.00209829)
(0.0887187 0 -0.00157176)
(0.0118528 0 -0.000315675)
(0.0338233 0 -0.000904055)
(0.0525446 0 -0.00141866)
(0.0683272 0 -0.00187136)
(0.0815135 0 -0.00227359)
(0.0923863 0 -0.00263277)
(0.101196 0 -0.0029545)
(0.108161 0 -0.00324167)
(0.113473 0 -0.00349544)
(0.117298 0 -0.0037155)
(0.119783 0 -0.00389994)
(0.121057 0 -0.00404538)
(0.121241 0 -0.00414878)
(0.120443 0 -0.004204)
(0.118761 0 -0.00420357)
(0.116285 0 -0.00413727)
(0.113119 0 -0.00399795)
(0.109357 0 -0.0037717)
(0.105099 0 -0.00344411)
(0.100453 0 -0.00299785)
(0.0955346 0 -0.00241275)
(0.0119207 0 -0.000385388)
(0.0340305 0 -0.00110398)
(0.0528813 0 -0.00173181)
(0.0687924 0 -0.00228508)
(0.0821227 0 -0.00277779)
(0.0931554 0 -0.00321906)
(0.102143 0 -0.00361544)
(0.109307 0 -0.00397076)
(0.114843 0 -0.00428678)
(0.118922 0 -0.0045637)
(0.121693 0 -0.00479978)
(0.123294 0 -0.00499191)
(0.123848 0 -0.00513603)
(0.123471 0 -0.00522608)
(0.122274 0 -0.00525509)
(0.120357 0 -0.00521356)
(0.117819 0 -0.00509008)
(0.114773 0 -0.00487229)
(0.11134 0 -0.00454762)
(0.107647 0 -0.00410028)
(0.103842 0 -0.00351415)
(0.0119995 0 -0.000454886)
(0.034258 0 -0.00130304)
(0.053263 0 -0.00204425)
(0.0693406 0 -0.00269901)
(0.0828435 0 -0.00328316)
(0.0940651 0 -0.00380781)
(0.103263 0 -0.00428076)
(0.110662 0 -0.00470684)
(0.116461 0 -0.0050885)
(0.120838 0 -0.0054268)
(0.123946 0 -0.00572034)
(0.12593 0 -0.00596634)
(0.126918 0 -0.00616057)
(0.127032 0 -0.00629708)
(0.126397 0 -0.00637049)
(0.125129 0 -0.00637292)
(0.123326 0 -0.00628972)
(0.121109 0 -0.0061103)
(0.118636 0 -0.00582801)
(0.116051 0 -0.00542994)
(0.113526 0 -0.00490579)
(0.0120888 0 -0.000523744)
(0.0345207 0 -0.00150063)
(0.0537032 0 -0.00235593)
(0.0699681 0 -0.00311256)
(0.0836686 0 -0.00378897)
(0.095106 0 -0.00439832)
(0.104543 0 -0.00494981)
(0.112209 0 -0.00544936)
(0.118308 0 -0.00590012)
(0.123023 0 -0.00630461)
(0.126514 0 -0.00666174)
(0.128931 0 -0.00696947)
(0.130409 0 -0.00722388)
(0.131076 0 -0.00741873)
(0.131073 0 -0.0075522)
(0.130522 0 -0.00761581)
(0.129546 0 -0.00759963)
(0.12828 0 -0.00749525)
(0.126882 0 -0.00729617)
(0.125519 0 -0.00699593)
(0.124427 0 -0.00659889)
(0.0121882 0 -0.000591871)
(0.0348152 0 -0.00169637)
(0.0541947 0 -0.00266487)
(0.0706659 0 -0.00352305)
(0.0845859 0 -0.00429198)
(0.0962625 0 -0.00498686)
(0.105964 0 -0.00561846)
(0.113925 0 -0.00619398)
(0.120354 0 -0.00671686)
(0.125444 0 -0.00719237)
(0.129357 0 -0.00761926)
(0.132251 0 -0.00799697)
(0.134271 0 -0.0083227)
(0.135559 0 -0.00859316)
(0.136251 0 -0.00880361)
(0.136489 0 -0.00895014)
(0.136414 0 -0.00902663)
(0.136181 0 -0.00902911)
(0.13596 0 -0.00895513)
(0.135948 0 -0.00880694)
(0.136357 0 -0.00858981)
(0.0122967 0 -0.000659146)
(0.0351377 0 -0.00188988)
(0.0547323 0 -0.0029706)
(0.0714275 0 -0.00392992)
(0.0855864 0 -0.00479156)
(0.0975233 0 -0.0055728)
(0.107513 0 -0.00628612)
(0.115794 0 -0.00694045)
(0.12259 0 -0.00754213)
(0.128089 0 -0.0080941)
(0.132457 0 -0.00859695)
(0.135867 0 -0.00905294)
(0.138472 0 -0.00946065)
(0.140427 0 -0.00981961)
(0.14186 0 -0.0101223)
(0.142945 0 -0.0103727)
(0.143831 0 -0.0105671)
(0.144696 0 -0.0107075)
(0.145712 0 -0.0107947)
(0.147137 0 -0.0108466)
(0.149169 0 -0.0108727)
(0.0124141 0 -0.000725749)
(0.0354867 0 -0.00208165)
(0.0553133 0 -0.00327396)
(0.0722496 0 -0.00433433)
(0.0866657 0 -0.00528917)
(0.0988823 0 -0.00615785)
(0.109182 0 -0.00695461)
(0.117814 0 -0.00769108)
(0.125001 0 -0.00837519)
(0.130928 0 -0.00900776)
(0.135777 0 -0.0095919)
(0.139735 0 -0.0101341)
(0.142956 0 -0.0106329)
(0.145599 0 -0.0110891)
(0.147826 0 -0.0115034)
(0.1498 0 -0.0118772)
(0.151686 0 -0.012212)
(0.153699 0 -0.01252)
(0.156019 0 -0.0128066)
(0.158877 0 -0.0130895)
(0.162579 0 -0.0134071)
(0.0125392 0 -0.000791507)
(0.0358587 0 -0.00227118)
(0.0559319 0 -0.00357417)
(0.0731241 0 -0.00473523)
(0.0878129 0 -0.00578348)
(0.100325 0 -0.0067404)
(0.110952 0 -0.0076217)
(0.119953 0 -0.00844229)
(0.127542 0 -0.00920911)
(0.133917 0 -0.00992648)
(0.139281 0 -0.0106008)
(0.143813 0 -0.0112369)
(0.147672 0 -0.0118358)
(0.151028 0 -0.0124005)
(0.154075 0 -0.0129401)
(0.156962 0 -0.0134542)
(0.159885 0 -0.0139528)
(0.16304 0 -0.0144465)
(0.166677 0 -0.0149607)
(0.170992 0 -0.0155102)
(0.17632 0 -0.016147)
(0.0126698 0 -0.000855897)
(0.036248 0 -0.002457)
(0.0565791 0 -0.00386895)
(0.0740385 0 -0.00512959)
(0.0890123 0 -0.00627081)
(0.101831 0 -0.00731624)
(0.112806 0 -0.00828534)
(0.122192 0 -0.00919239)
(0.130201 0 -0.0100453)
(0.137046 0 -0.0108518)
(0.142937 0 -0.0116206)
(0.148053 0 -0.0123563)
(0.152563 0 -0.0130628)
(0.156662 0 -0.0137495)
(0.160518 0 -0.0144208)
(0.164324 0 -0.0150885)
(0.168286 0 -0.0157673)
(0.172586 0 -0.0164678)
(0.177499 0 -0.0172249)
(0.183254 0 -0.0180666)
(0.190151 0 -0.0190446)
(0.0128058 0 -0.000919066)
(0.0366531 0 -0.00263952)
(0.0572525 0 -0.00415891)
(0.0749892 0 -0.00551816)
(0.0902595 0 -0.00675203)
(0.103404 0 -0.00788704)
(0.114736 0 -0.00894443)
(0.124511 0 -0.00993873)
(0.132949 0 -0.01088)
(0.140269 0 -0.0117779)
(0.146697 0 -0.0126451)
(0.152407 0 -0.0134857)
(0.157573 0 -0.0143057)
(0.162416 0 -0.0151223)
(0.167094 0 -0.0159386)
(0.171799 0 -0.0167676)
(0.17676 0 -0.017633)
(0.182186 0 -0.0185553)
(0.188322 0 -0.0195671)
(0.195421 0 -0.0207079)
(0.203758 0 -0.0220309)
(0.0129458 0 -0.000980811)
(0.0370706 0 -0.00281816)
(0.0579461 0 -0.00444312)
(0.075967 0 -0.00589961)
(0.0915416 0 -0.00722526)
(0.105017 0 -0.00844925)
(0.116714 0 -0.00959531)
(0.126888 0 -0.0106782)
(0.135759 0 -0.0117092)
(0.143561 0 -0.0127005)
(0.150531 0 -0.0136699)
(0.156826 0 -0.0146184)
(0.16265 0 -0.0155579)
(0.168217 0 -0.0165066)
(0.173697 0 -0.0174729)
(0.179279 0 -0.0184713)
(0.185198 0 -0.0195293)
(0.19168 0 -0.0206759)
(0.198941 0 -0.0219422)
(0.207243 0 -0.0233755)
(0.216832 0 -0.0250295)
(0.0586672 0 -0.00472583)
(0.0769814 0 -0.00627956)
(0.0928712 0 -0.00769732)
(0.106699 0 -0.00901223)
(0.118773 0 -0.0102489)
(0.129347 0 -0.0114215)
(0.138656 0 -0.0125445)
(0.146952 0 -0.0136338)
(0.154463 0 -0.0147067)
(0.161351 0 -0.0157678)
(0.16784 0 -0.0168344)
(0.174117 0 -0.0179195)
(0.180357 0 -0.0190352)
(0.186802 0 -0.020211)
(0.193621 0 -0.0214624)
(0.201083 0 -0.022833)
(0.20935 0 -0.0243466)
(0.218692 0 -0.0260584)
(0.229312 0 -0.028018)
(0.0780353 0 -0.00666033)
(0.0942559 0 -0.00817283)
(0.108448 0 -0.00958009)
(0.120906 0 -0.0109074)
(0.131894 0 -0.0121721)
(0.141656 0 -0.0133907)
(0.15046 0 -0.0145835)
(0.158515 0 -0.0157638)
(0.165996 0 -0.016941)
(0.173142 0 -0.0181383)
(0.180108 0 -0.0193622)
(0.187097 0 -0.020634)
(0.194339 0 -0.0219831)
(0.201997 0 -0.0234279)
(0.210316 0 -0.0250102)
(0.219429 0 -0.0267524)
(0.229616 0 -0.0287178)
(0.240993 0 -0.030941)
(0.095686 0 -0.00864503)
(0.110241 0 -0.0101455)
(0.123093 0 -0.0115648)
(0.134499 0 -0.0129229)
(0.144718 0 -0.0142384)
(0.154027 0 -0.0155359)
(0.162614 0 -0.016824)
(0.170689 0 -0.0181221)
(0.178456 0 -0.019447)
(0.186068 0 -0.0208074)
(0.193764 0 -0.0222348)
(0.201709 0 -0.0237464)
(0.210115 0 -0.0253761)
(0.219125 0 -0.0271459)
(0.228919 0 -0.0290933)
(0.239697 0 -0.0312681)
(0.25154 0 -0.033701)
(0.112078 0 -0.0107058)
(0.125309 0 -0.0122155)
(0.137133 0 -0.013667)
(0.147818 0 -0.0150825)
(0.157613 0 -0.0164818)
(0.166728 0 -0.0178805)
(0.175368 0 -0.0192971)
(0.183693 0 -0.0207411)
(0.191915 0 -0.0222367)
(0.200223 0 -0.0238056)
(0.208795 0 -0.0254718)
(0.217798 0 -0.0272619)
(0.22734 0 -0.029193)
(0.237623 0 -0.0313118)
(0.248724 0 -0.0336421)
(0.260728 0 -0.036219)
(0.127537 0 -0.0128555)
(0.139786 0 -0.0144008)
(0.15092 0 -0.015914)
(0.161182 0 -0.0174134)
(0.170797 0 -0.0189187)
(0.179937 0 -0.0204438)
(0.188795 0 -0.0220064)
(0.197558 0 -0.0236272)
(0.206387 0 -0.0253242)
(0.21547 0 -0.027126)
(0.224898 0 -0.0290447)
(0.234819 0 -0.0311091)
(0.245357 0 -0.0333496)
(0.256532 0 -0.0357788)
(0.26838 0 -0.0384213)
(0.142416 0 -0.0151157)
(0.153981 0 -0.0167225)
(0.164678 0 -0.0183168)
(0.174745 0 -0.0199213)
(0.184355 0 -0.0215505)
(0.19368 0 -0.0232214)
(0.202882 0 -0.0249495)
(0.212143 0 -0.0267599)
(0.221585 0 -0.028668)
(0.231306 0 -0.0306893)
(0.241422 0 -0.0328476)
(0.251985 0 -0.0351569)
(0.263013 0 -0.0376299)
(0.274485 0 -0.0402759)
(0.168044 0 -0.0191778)
(0.178525 0 -0.0208747)
(0.18853 0 -0.0225952)
(0.198233 0 -0.0243569)
(0.207792 0 -0.0261773)
(0.21736 0 -0.028076)
(0.227031 0 -0.0300637)
(0.236898 0 -0.0321557)
(0.247036 0 -0.0343672)
(0.257476 0 -0.0367077)
(0.26821 0 -0.0391828)
(0.279185 0 -0.041792)
(0.18203 0 -0.0217522)
(0.192363 0 -0.0235509)
(0.202368 0 -0.0253887)
(0.212189 0 -0.027282)
(0.221951 0 -0.0292449)
(0.231743 0 -0.0312885)
(0.241638 0 -0.0334235)
(0.251683 0 -0.035659)
(0.261888 0 -0.0379992)
(0.272229 0 -0.040444)
(0.282638 0 -0.0429867)
(0.206026 0 -0.0262975)
(0.216025 0 -0.0282457)
(0.225896 0 -0.0302538)
(0.235718 0 -0.0323313)
(0.245545 0 -0.0344852)
(0.255407 0 -0.0367194)
(0.265301 0 -0.039034)
(0.275189 0 -0.0414243)
(0.285003 0 -0.04388)
(0.229194 0 -0.031093)
(0.238968 0 -0.0331845)
(0.248654 0 -0.0353363)
(0.258268 0 -0.0375483)
(0.267798 0 -0.0398176)
(0.277205 0 -0.0421362)
(0.286422 0 -0.0444915)
(0.241518 0 -0.0338426)
(0.251009 0 -0.0359748)
(0.260331 0 -0.0381479)
(0.26947 0 -0.040357)
(0.278391 0 -0.0425926)
(0.287037 0 -0.0448422)
(0.261662 0 -0.0385211)
(0.270401 0 -0.0406592)
(0.278843 0 -0.0428039)
(0.286946 0 -0.0449435)
(0.278649 0 -0.042779)
(0.286238 0 -0.0448064)
)
;

boundaryField
{
    inlet
    {
        type            cellMotion;
        value           uniform (0 0 0);
    }
    outlet
    {
        type            cellMotion;
        value           nonuniform 0();
    }
    flap
    {
        type            cellMotion;
        value           nonuniform 0();
    }
    upperWall
    {
        type            slip;
    }
    lowerWall
    {
        type            slip;
    }
    frontAndBack
    {
        type            empty;
    }
    procBoundary3to0
    {
        type            processor;
        value           nonuniform List<vector> 
34
(
(0.0130908 0 -0.00104195)
(0.0375034 0 -0.00299532)
(0.0375034 0 -0.00299532)
(0.0594168 0 -0.00500833)
(0.0594168 0 -0.00500833)
(0.0791292 0 -0.0070377)
(0.0791292 0 -0.0070377)
(0.0971496 0 -0.00911133)
(0.0971496 0 -0.00911133)
(0.113917 0 -0.0112534)
(0.113917 0 -0.0112534)
(0.129759 0 -0.013478)
(0.129759 0 -0.013478)
(0.144982 0 -0.0157993)
(0.156934 0 -0.0174925)
(0.156934 0 -0.0174925)
(0.171209 0 -0.0199768)
(0.171209 0 -0.0199768)
(0.185192 0 -0.0225339)
(0.19579 0 -0.0243979)
(0.19579 0 -0.0243979)
(0.20918 0 -0.0270701)
(0.219286 0 -0.0290568)
(0.219286 0 -0.0290568)
(0.231849 0 -0.0317533)
(0.231849 0 -0.0317533)
(0.2434 0 -0.0343003)
(0.252657 0 -0.0363992)
(0.252657 0 -0.0363992)
(0.262328 0 -0.0386697)
(0.270668 0 -0.0407296)
(0.270668 0 -0.0407296)
(0.277888 0 -0.0425241)
(0.284996 0 -0.0444391)
)
;
    }
    procBoundary3to1
    {
        type            processor;
        value           nonuniform List<vector> 9((0.280818 0 -0.0412787) (0.286301 0 -0.0430904) (0.290291 0 -0.0445247) (0.293006 0 -0.0456127) (0.294642 0 -0.0463847) (0.295382 0 -0.0468724) (0.295349 0 -0.0470931) (0.294653 0 -0.047063) (0.29339 0 -0.0467967));
    }
    procBoundary3to4
    {
        type            processor;
        value           nonuniform List<vector> 
19
(
(0.0704722 0 -3.8038e-05)
(0.0725187 0 -0.000160742)
(0.0765958 0 -0.0004219)
(0.0826247 0 -0.000902131)
(0.0905043 0 -0.0016698)
(0.10011 0 -0.00277582)
(0.111263 0 -0.00424893)
(0.123805 0 -0.0061051)
(0.137486 0 -0.00833034)
(0.152093 0 -0.010905)
(0.167348 0 -0.0137872)
(0.18293 0 -0.0169166)
(0.198487 0 -0.0202184)
(0.213633 0 -0.0236036)
(0.22799 0 -0.0269752)
(0.241459 0 -0.0302973)
(0.253786 0 -0.033496)
(0.26458 0 -0.0364478)
(0.273617 0 -0.0390621)
)
;
    }
}


// ************************************************************************* //
