/*--------------------------------*- C++ -*----------------------------------*\
| =========                 |                                                 |
| \\      /  F ield         | OpenFOAM: The Open Source CFD Toolbox           |
|  \\    /   O peration     | Version:  dev                                   |
|   \\  /    A nd           | Web:      www.OpenFOAM.org                      |
|    \\/     M anipulation  |                                                 |
\*---------------------------------------------------------------------------*/
FoamFile
{
    version     2.0;
    format      ascii;
    class       surfaceScalarField;
    location    "1";
    object      meshPhi;
}
// * * * * * * * * * * * * * * * * * * * * * * * * * * * * * * * * * * * * * //

dimensions      [0 3 -1 0 0 0 0];

internalField   nonuniform List<scalar> 
881
(
-5.37442e-05
7.81817e-07
-0.000100391
2.20583e-06
-0.000138252
3.39243e-06
-0.000167532
4.35716e-06
-0.000187966
5.10631e-06
-0.000199139
5.62306e-06
-0.000200897
5.88241e-06
-0.000193577
5.86566e-06
-0.000178122
5.57082e-06
-0.000156066
5.01684e-06
-0.000129401
4.24624e-06
-0.000100343
3.32265e-06
-7.10738e-05
2.31675e-06
-4.35324e-05
1.30405e-06
-1.92567e-05
3.58011e-07
7.19834e-07
-4.63091e-07
1.58887e-05
-1.11984e-06
2.62254e-05
-1.59316e-06
3.21019e-05
-1.88392e-06
3.42079e-05
-2.01058e-06
-1.95977e-06
-5.37115e-05
1.56144e-06
-0.000100391
4.40723e-06
-0.000138378
6.78291e-06
-0.000167869
8.71985e-06
-0.000188567
1.02279e-05
-0.000200016
1.12694e-05
-0.000202019
1.17991e-05
-0.000194879
1.17815e-05
-0.000179513
1.12065e-05
-0.000157441
1.01098e-05
-0.000130667
8.57491e-06
-0.00010143
6.72703e-06
-7.19292e-05
4.71178e-06
-4.41295e-05
2.68231e-06
-1.9597e-05
7.83851e-07
6.13362e-07
-8.66529e-07
1.5977e-05
-2.18919e-06
2.6461e-05
-3.14552e-06
3.24299e-05
-3.73641e-06
3.45462e-05
-3.99626e-06
-3.9012e-06
-5.35787e-05
2.33027e-06
-0.000100213
6.5805e-06
-0.000138276
1.01365e-05
-0.000167953
1.30462e-05
-0.000188925
1.53243e-05
-0.000200702
1.6914e-05
-0.000203041
1.77429e-05
-0.0001962
1.77537e-05
-0.000181063
1.69285e-05
-0.000159125
1.53182e-05
-0.000132382
1.30438e-05
-0.000103081
1.02871e-05
-7.34312e-05
7.27191e-06
-4.54166e-05
4.23134e-06
-2.06295e-05
1.37965e-06
-1.4881e-07
-1.10727e-06
1.54772e-05
-3.10845e-06
2.61986e-05
-4.56458e-06
3.23678e-05
-5.47446e-06
3.46367e-05
-5.88534e-06
-5.76432e-06
-5.33349e-05
3.07968e-06
-9.98305e-05
8.70183e-06
-0.000137893
1.34181e-05
-0.000167709
1.72938e-05
-0.000188944
2.03502e-05
-0.00020108
2.25122e-05
-0.000203831
2.3675e-05
-0.00019741
2.37547e-05
-0.000182658
2.27258e-05
-0.000161033
2.06508e-05
-0.000134499
1.7685e-05
-0.000105285
1.40639e-05
-7.56074e-05
1.00823e-05
-4.74633e-05
6.04968e-06
-2.24597e-05
2.25191e-06
-1.69904e-06
-1.07587e-06
1.42409e-05
-3.76935e-06
2.52825e-05
-5.74569e-06
3.17585e-05
-6.99937e-06
3.43177e-05
-7.58968e-06
-7.47387e-06
-5.29903e-05
3.805e-06
-9.92779e-05
1.07574e-05
-0.00013731
1.66054e-05
-0.000167277
2.14358e-05
-0.000188831
2.52774e-05
-0.000201416
2.80342e-05
-0.000204697
2.95688e-05
-0.000198833
2.97695e-05
-0.000184609
2.85985e-05
-0.000163439
2.61254e-05
-0.000137237
2.25347e-05
-0.000108203
1.81121e-05
-7.85542e-05
1.32144e-05
-5.03046e-05
8.2231e-06
-2.50734e-05
3.49637e-06
-3.98705e-06
-6.70841e-07
1.23369e-05
-4.06941e-06
2.37837e-05
-6.58879e-06
3.0658e-05
-8.21587e-06
3.35933e-05
-9.02086e-06
-8.94921e-06
-5.25344e-05
4.50068e-06
-9.85364e-05
1.27323e-05
-0.000136507
1.96791e-05
-0.000166638
2.54525e-05
-0.000188561
3.00886e-05
-0.00020168
3.34682e-05
-0.000205606
3.54215e-05
-0.000200435
3.58065e-05
-0.000186887
3.45689e-05
-0.000166313
3.17797e-05
-0.000140575
2.76461e-05
-0.000111832
2.24961e-05
-8.22913e-05
1.67436e-05
-5.39763e-05
1.08373e-05
-2.85274e-05
5.206e-06
-7.09853e-06
2.07549e-07
9.65278e-06
-3.9034e-06
2.15676e-05
-6.98745e-06
2.89138e-05
-9.01939e-06
3.22984e-05
-1.00756e-05
-1.00893e-05
-5.19573e-05
5.15864e-06
-9.75866e-05
1.46072e-05
-0.000135463
2.26172e-05
-0.000165768
2.93224e-05
-0.000188105
3.47622e-05
-0.000201837
3.87958e-05
-0.00020652
4.12203e-05
-0.00020218
4.1862e-05
-0.00018946
4.06444e-05
-0.000169637
3.76348e-05
-0.000144507
3.30554e-05
-0.000116184
2.72685e-05
-8.68478e-05
2.07381e-05
-5.85238e-05
1.39732e-05
-3.28865e-05
7.47247e-06
-1.11309e-05
1.65948e-06
6.05605e-06
-3.16302e-06
1.84741e-05
-6.82634e-06
2.63405e-05
-9.29032e-06
3.0224e-05
-1.06318e-05
-1.07722e-05
-5.12576e-05
5.77176e-06
-9.64266e-05
1.63623e-05
-0.000134166
2.53879e-05
-0.000164646
3.30036e-05
-0.000187435
3.92505e-05
-0.000201855
4.39666e-05
-0.000207402
4.6916e-05
-0.000204027
4.78911e-05
-0.000192288
4.67889e-05
-0.000173376
4.36673e-05
-0.000149012
3.87563e-05
-0.000121256
3.24434e-05
-9.22507e-05
2.52355e-05
-6.40072e-05
1.76944e-05
-3.82396e-05
1.03806e-05
-1.61964e-05
3.78345e-06
1.40302e-06
-1.74045e-06
1.43192e-05
-5.98769e-06
2.2716e-05
-8.89992e-06
2.71135e-05
-1.0551e-05
-1.08563e-05
-5.04318e-05
6.33387e-06
-9.50503e-05
1.7979e-05
-0.000132604
2.79604e-05
-0.000163248
3.64553e-05
-0.000186515
4.35057e-05
-0.000201685
4.89282e-05
-0.000208193
5.24545e-05
-0.000205909
5.38443e-05
-0.000195301
5.29663e-05
-0.000177466
4.98563e-05
-0.000154038
4.47409e-05
-0.000127014
3.80276e-05
-9.84944e-05
3.02592e-05
-7.04681e-05
2.20445e-05
-4.46745e-05
1.39963e-05
-2.24176e-05
6.6664e-06
-4.46304e-06
4.69118e-07
8.90363e-06
-4.35275e-06
1.77923e-05
-7.71726e-06
2.2672e-05
-9.68847e-06
-1.01865e-05
-4.94705e-05
6.84029e-06
-9.34398e-05
1.94444e-05
-0.000130751
3.03159e-05
-0.000161538
3.9654e-05
-0.000185297
4.74996e-05
-0.000201265
5.36486e-05
-0.000208818
5.78016e-05
-0.000207744
5.96869e-05
-0.000198417
5.91438e-05
-0.000181829
5.61745e-05
-0.000159518
5.09908e-05
-0.000133405
4.40143e-05
-0.000105549
3.58158e-05
-7.79166e-05
2.70441e-05
-5.22495e-05
1.83609e-05
-2.99005e-05
1.03727e-05
-1.1696e-05
3.55141e-06
2.02665e-06
-1.81378e-06
1.13242e-05
-5.61509e-06
1.66038e-05
-7.90414e-06
-8.61625e-06
-4.83634e-05
7.28671e-06
-9.15767e-05
2.07467e-05
-0.000128581
3.24367e-05
-0.000159482
4.25763e-05
-0.000183733
5.12026e-05
-0.000200532
5.80909e-05
-0.000209197
6.29129e-05
-0.00020944
6.53644e-05
-0.000201538
6.52516e-05
-0.000186369
6.25474e-05
-0.000165364
5.74443e-05
-0.00014036
5.03596e-05
-0.000113365
4.18782e-05
-8.63238e-05
3.26829e-05
-6.09784e-05
2.34851e-05
-3.87101e-05
1.494e-05
-2.04076e-05
7.56845e-06
-6.4752e-06
1.71021e-06
3.10022e-06
-2.49194e-06
8.66516e-06
-5.07767e-06
-6.02157e-06
-4.71018e-05
7.66678e-06
-8.94479e-05
2.18686e-05
-0.00012608
3.42966e-05
-0.000157055
4.51865e-05
-0.000181783
5.45677e-05
-0.000199423
6.21974e-05
-0.000209247
6.7723e-05
-0.000210889
7.0804e-05
-0.000204534
7.121e-05
-0.000190945
6.88902e-05
-0.000171439
6.40166e-05
-0.000147762
5.69872e-05
-0.000121849
4.8388e-05
-9.56146e-05
3.89244e-05
-7.08118e-05
2.93462e-05
-4.88467e-05
2.03618e-05
-3.06432e-05
1.25398e-05
-1.66791e-05
6.26085e-06
-6.99572e-06
1.70715e-06
-1.27645e-06
-1.14282e-06
-2.33449e-06
-4.56761e-05
7.97563e-06
-8.70409e-05
2.27971e-05
-0.000123232
3.58766e-05
-0.000154234
4.74591e-05
-0.000179407
5.75606e-05
-0.000197878
6.59225e-05
-0.000208876
7.21705e-05
-0.000211971
7.59294e-05
-0.000207254
7.69342e-05
-0.000195386
7.51094e-05
-0.000177565
7.06021e-05
-0.00015543
6.37846e-05
-0.00013084
5.52378e-05
-0.000105661
4.56811e-05
-8.16344e-05
3.58814e-05
-6.02065e-05
2.65876e-05
-4.23342e-05
1.84255e-05
-2.8537e-05
1.18167e-05
-1.89127e-05
6.97171e-06
-1.31505e-05
3.88388e-06
2.41238e-06
-4.40769e-05
8.21075e-06
-8.43435e-05
2.35261e-05
-0.000120027
3.71685e-05
-0.000150994
4.93807e-05
-0.000176563
6.01579e-05
-0.000195827
6.92267e-05
-0.000207986
7.61938e-05
-0.000212553
8.06566e-05
-0.000209537
8.23198e-05
-0.000199497
8.10823e-05
-0.000183522
7.70654e-05
-0.000163127
7.0611e-05
-0.000140086
6.22809e-05
-0.000116226
5.28019e-05
-9.32357e-05
4.29547e-05
-7.25741e-05
3.35051e-05
-5.52548e-05
2.5122e-05
-4.18175e-05
1.82734e-05
-3.23779e-05
1.31922e-05
-2.6604e-05
9.87354e-06
8.06091e-06
-4.23969e-05
-8.14053e-05
-0.000116442
3.81955e-05
-0.000147305
5.09501e-05
-0.000173196
6.23537e-05
-0.000193189
7.20937e-05
-0.00020646
7.97627e-05
-0.000212486
8.49383e-05
-0.0002112
8.73031e-05
-0.000203068
8.67293e-05
-0.000189073
8.33083e-05
-0.000170602
7.73573e-05
-0.000149323
6.94094e-05
-0.000127014
6.01721e-05
-0.000105321
5.04393e-05
-8.5658e-05
4.09901e-05
-6.90764e-05
3.25111e-05
-5.61355e-05
2.55036e-05
-4.69282e-05
2.02185e-05
-4.10615e-05
1.66436e-05
1.43965e-05
-0.000116823
-0.000148599
5.2197e-05
-0.000175734
6.41547e-05
-0.000197164
7.45313e-05
-0.000212028
8.28766e-05
-0.000219763
8.87658e-05
-0.000220229
9.18689e-05
-0.000213817
9.20284e-05
-0.000201445
8.9298e-05
-0.000184432
8.39735e-05
-0.00016438
7.65603e-05
-0.000143042
6.77272e-05
-0.000122081
5.82605e-05
-0.00010291
4.89448e-05
-8.65999e-05
4.04724e-05
-7.3732e-05
3.33576e-05
-6.436e-05
2.78647e-05
-5.7985e-05
2.39726e-05
2.118e-05
-0.00014721
-0.000175098
6.55556e-05
-0.000197628
7.65058e-05
-0.000213874
8.54955e-05
-0.000223258
9.20899e-05
-0.00022557
9.59526e-05
-0.000221107
9.68898e-05
-0.000210718
9.49229e-05
-0.000195632
9.03234e-05
-0.000177356
8.35589e-05
-0.000157552
7.52622e-05
-0.000137836
6.61888e-05
-0.000119593
5.71089e-05
-0.000103863
4.87116e-05
-9.12004e-05
4.15068e-05
-8.16292e-05
3.57685e-05
-7.45648e-05
3.14804e-05
2.80635e-05
-0.000173638
-0.000197171
7.79801e-05
-0.000214726
8.7565e-05
-0.000225752
9.48397e-05
-0.000229935
9.94632e-05
-0.00022747
0.000101188
-0.000219161
0.000100018
-0.000206137
9.62022e-05
-0.000189794
9.01588e-05
-0.000171686
8.24828e-05
-0.000153335
7.38846e-05
-0.000136079
6.51046e-05
-0.000120898
5.6811e-05
-0.000108295
4.95064e-05
-9.82817e-05
4.34694e-05
-9.02901e-05
3.8712e-05
3.4692e-05
-0.000195638
-0.000214452
8.90156e-05
-0.000227074
9.69638e-05
-0.000233103
0.00010233
-0.000232588
0.000104817
-0.000226367
0.000104427
-0.00021545
0.000101408
-0.000201092
9.61222e-05
-0.000184718
8.91054e-05
-0.000167739
8.10168e-05
-0.00015141
7.25552e-05
-0.000136631
6.43586e-05
-0.000123857
5.69165e-05
-0.000113096
5.05041e-05
-0.000103914
4.51779e-05
4.04947e-05
-0.000212744
-0.000227072
9.83543e-05
-0.000234876
0.000104516
-0.000236122
0.000107687
-0.000231909
0.000108002
-0.000223051
0.000105758
-0.000210614
0.000101217
-0.000195899
9.48485e-05
-0.000180178
8.72598e-05
-0.000164611
7.90944e-05
-0.000150015
7.09648e-05
-0.000136781
6.33347e-05
-0.000124921
5.64679e-05
-0.000114113
5.04432e-05
4.48243e-05
-0.000224999
-0.000234808
-0.000237782
0.000109609
-0.000235382
0.000110642
-0.000228445
0.000109104
-0.000217741
0.000105248
-0.0002045
9.94645e-05
-0.000189819
9.23174e-05
-0.000174783
8.43989e-05
-0.000160122
7.62977e-05
-0.00014617
6.84461e-05
-0.000132932
6.11006e-05
-0.000120105
5.43479e-05
4.77511e-05
-0.000236894
-0.000236481
0.000112075
-0.000231246
0.000111374
-0.000221958
0.000108091
-0.000209924
0.000102787
-0.000195969
9.59874e-05
-0.000181204
8.82396e-05
-0.000166267
8.01378e-05
-0.000151446
7.2072e-05
-0.000136755
6.42933e-05
-0.000121929
5.69128e-05
4.95682e-05
-0.000233995
-0.000230791
-0.000222982
0.000109522
-0.000211808
0.000104804
-0.000198137
9.819e-05
-0.000183389
9.04963e-05
-0.000168036
8.23806e-05
-0.000152316
7.41408e-05
-0.000136292
6.60181e-05
-0.000119807
5.81573e-05
5.02745e-05
-0.000219553
-0.000209608
-0.000196088
9.87599e-05
-0.000181062
9.11745e-05
-0.000165229
8.30094e-05
-0.000148661
7.46512e-05
-0.00013153
6.62849e-05
-0.000113793
5.80968e-05
4.98701e-05
-0.000189195
-0.000174149
9.00514e-05
-0.00015782
8.2108e-05
-0.00014046
7.36584e-05
-0.000122473
6.51282e-05
-0.000103847
5.6747e-05
4.83338e-05
-0.000161853
-0.000145634
-0.000127796
7.11428e-05
-0.000109139
6.26492e-05
-8.98698e-05
5.41373e-05
4.56438e-05
-0.000110143
-9.13746e-05
-7.17701e-05
5.02305e-05
4.18149e-05
-4.90544e-05
)
;

boundaryField
{
    inlet
    {
        type            calculated;
        value           uniform 0;
    }
    outlet
    {
        type            calculated;
        value           nonuniform 0();
    }
    flap
    {
        type            calculated;
        value           nonuniform 0();
    }
    upperWall
    {
        type            calculated;
        value           nonuniform 0();
    }
    lowerWall
    {
        type            calculated;
        value           uniform 0;
    }
    frontAndBack
    {
        type            empty;
        value           nonuniform 0();
    }
    procBoundary3to0
    {
        type            processor;
        value           nonuniform List<scalar> 
34
(
8.41186e-06
2.41186e-05
8.14005e-05
3.90375e-05
0.000115244
5.3161e-05
0.000145198
6.65266e-05
0.000171153
7.88271e-05
0.000192542
8.959e-05
0.000208724
9.83855e-05
0.000105539
0.000231495
0.000109832
0.000231641
0.000111116
0.000111776
0.000224986
0.000108142
0.000104724
0.000201451
9.67114e-05
0.000175596
8.60457e-05
7.91556e-05
0.000127408
6.62172e-05
5.84555e-05
6.82366e-05
4.43807e-05
3.65055e-05
)
;
    }
    procBoundary3to1
    {
        type            processor;
        value           nonuniform List<scalar> 9(-0.000101907 -0.000105226 -0.000104687 -0.000100968 -9.39333e-05 -8.34184e-05 -6.92148e-05 -5.11095e-05 -2.87376e-05);
    }
    procBoundary3to4
    {
        type            processor;
        value           nonuniform List<scalar> 
19
(
3.22973e-05
3.26782e-05
3.28993e-05
3.27979e-05
3.23627e-05
3.1426e-05
2.97667e-05
2.71127e-05
2.31504e-05
1.75634e-05
1.01013e-05
6.57928e-07
-1.06398e-05
-2.33575e-05
-3.6837e-05
-5.22993e-05
-6.7228e-05
-8.14049e-05
-9.36604e-05
)
;
    }
}


// ************************************************************************* //
