/*--------------------------------*- C++ -*----------------------------------*\
| =========                 |                                                 |
| \\      /  F ield         | OpenFOAM: The Open Source CFD Toolbox           |
|  \\    /   O peration     | Version:  dev                                   |
|   \\  /    A nd           | Web:      www.OpenFOAM.org                      |
|    \\/     M anipulation  |                                                 |
\*---------------------------------------------------------------------------*/
FoamFile
{
    version     2.0;
    format      ascii;
    class       volScalarField;
    location    "1";
    object      p;
}
// * * * * * * * * * * * * * * * * * * * * * * * * * * * * * * * * * * * * * //

dimensions      [0 2 -2 0 0 0 0];

internalField   nonuniform List<scalar> 
465
(
190.772
190.654
190.852
191.335
191.998
192.793
193.714
194.761
195.93
197.22
198.625
200.144
201.772
203.507
205.34
207.266
209.272
211.345
213.467
215.614
217.76
190.611
190.587
190.805
191.285
191.946
192.74
193.658
194.7
195.865
197.148
198.546
200.057
201.677
203.402
205.226
207.141
209.136
211.199
213.312
215.452
217.593
190.453
190.502
190.737
191.208
191.859
192.643
193.55
194.58
195.729
196.995
198.373
199.861
201.454
203.149
204.94
206.817
208.772
210.791
212.856
214.946
217.037
190.285
190.371
190.619
191.082
191.721
192.494
193.388
194.401
195.53
196.772
198.123
199.58
201.137
202.791
204.535
206.36
208.256
210.209
212.202
214.215
216.223
190.099
190.204
190.461
190.919
191.547
192.305
193.181
194.172
195.276
196.488
197.805
199.221
200.733
202.335
204.02
205.779
207.6
209.471
211.373
213.287
215.19
189.89
190.004
190.268
190.719
191.332
192.073
192.927
193.892
194.964
196.141
197.416
198.785
200.243
201.784
203.4
205.082
206.817
208.592
210.388
212.185
213.96
189.656
189.775
190.039
190.482
191.079
191.799
192.627
193.562
194.599
195.734
196.962
198.277
199.674
201.145
202.683
204.277
205.915
207.581
209.257
210.922
212.552
189.396
189.516
189.778
190.211
190.789
191.485
192.284
193.185
194.181
195.27
196.444
197.699
199.027
200.421
201.873
203.37
204.899
206.445
207.988
209.506
210.974
189.111
189.229
189.485
189.905
190.464
191.133
191.9
192.762
193.714
194.751
195.867
197.055
198.308
199.618
200.975
202.366
203.777
205.192
206.59
207.947
209.236
188.801
188.916
189.163
189.568
190.104
190.744
191.476
192.296
193.2
194.182
195.234
196.35
197.522
198.74
199.994
201.272
202.556
203.829
205.069
206.251
207.343
188.466
188.577
188.814
189.201
189.713
190.321
191.015
191.791
192.642
193.564
194.548
195.587
196.672
197.793
198.939
200.094
201.243
202.364
203.436
204.427
205.305
188.108
188.213
188.438
188.806
189.292
189.866
190.52
191.247
192.044
192.902
193.814
194.772
195.765
196.783
197.814
198.841
199.846
200.807
201.698
202.487
203.134
187.727
187.827
188.037
188.384
188.842
189.381
189.992
190.669
191.407
192.199
193.036
193.908
194.806
195.717
196.627
197.52
198.375
199.168
199.869
200.442
200.844
187.326
187.419
187.613
187.938
188.367
188.869
189.434
190.059
190.737
191.46
192.218
193.001
193.8
194.6
195.387
196.14
196.84
197.458
197.962
198.311
198.453
186.905
186.99
187.169
187.47
187.867
188.331
188.85
189.42
190.035
190.687
191.365
192.057
192.754
193.441
194.1
194.712
195.252
195.692
195.993
196.112
195.989
186.696
186.972
187.337
187.76
188.23
188.743
189.293
189.871
190.464
191.063
191.654
192.223
192.751
193.216
193.593
193.848
193.942
193.825
193.432
186.439
186.769
187.149
187.567
188.02
188.502
189.002
189.508
190.009
190.491
190.937
191.33
191.644
191.853
191.92
191.804
191.451
190.791
186.167
186.503
186.867
187.258
187.669
188.089
188.505
188.904
189.274
189.596
189.851
190.012
190.051
189.931
189.608
189.026
188.113
185.823
186.132
186.459
186.797
187.135
187.458
187.755
188.01
188.206
188.323
188.331
188.202
187.9
187.379
186.582
185.441
185.363
185.625
185.889
186.142
186.372
186.565
186.706
186.777
186.755
186.614
186.323
185.848
185.142
184.151
182.815
184.76
184.947
185.116
185.252
185.341
185.368
185.315
185.16
184.874
184.43
183.793
182.919
181.761
180.266
184.061
184.103
184.09
184.005
183.832
183.547
183.125
182.538
181.754
180.734
179.436
177.815
182.932
182.818
182.625
182.337
181.93
181.381
180.664
179.749
178.603
177.19
175.474
181.238
180.84
180.319
179.653
178.82
177.791
176.54
175.036
173.251
178.725
177.955
177.018
175.892
174.554
172.98
171.147
176.294
175.267
174.06
172.651
171.025
169.162
172.3
170.837
169.172
167.294
167.423
165.54
)
;

boundaryField
{
    inlet
    {
        type            zeroGradient;
    }
    outlet
    {
        type            fixedValue;
        value           nonuniform 0();
    }
    flap
    {
        type            zeroGradient;
    }
    upperWall
    {
        type            zeroGradient;
    }
    lowerWall
    {
        type            zeroGradient;
    }
    frontAndBack
    {
        type            empty;
    }
    procBoundary3to0
    {
        type            processor;
        value           nonuniform List<scalar> 
34
(
186.458
186.535
186.535
186.19
186.19
185.874
185.874
185.534
185.534
185.11
185.11
184.564
184.564
183.865
183.977
183.977
182.981
182.981
181.744
181.533
181.533
179.851
179.351
179.351
177.158
177.158
174.679
173.576
173.576
170.618
169.113
169.113
165.775
163.896
)
;
    }
    procBoundary3to1
    {
        type            processor;
        value           nonuniform List<scalar> 9(181.061 178.372 175.823 173.418 171.156 169.035 167.05 165.193 163.458);
    }
    procBoundary3to4
    {
        type            processor;
        value           nonuniform List<scalar> 
19
(
219.871
219.703
219.097
218.199
217.052
215.686
214.119
212.362
210.423
208.31
206.029
203.593
201.018
198.326
195.551
192.681
189.736
186.781
183.874
)
;
    }
}


// ************************************************************************* //
