/*--------------------------------*- C++ -*----------------------------------*\
| =========                 |                                                 |
| \\      /  F ield         | OpenFOAM: The Open Source CFD Toolbox           |
|  \\    /   O peration     | Version:  dev                                   |
|   \\  /    A nd           | Web:      www.OpenFOAM.org                      |
|    \\/     M anipulation  |                                                 |
\*---------------------------------------------------------------------------*/
FoamFile
{
    version     2.0;
    format      ascii;
    class       volScalarField;
    location    "1";
    object      p;
}
// * * * * * * * * * * * * * * * * * * * * * * * * * * * * * * * * * * * * * //

dimensions      [0 2 -2 0 0 0 0];

internalField   nonuniform List<scalar> 
465
(
179.8
179.65
179.821
180.293
180.955
181.759
182.695
183.766
184.966
186.291
187.738
189.302
190.98
192.768
194.66
196.649
198.723
200.871
203.072
205.305
207.539
179.636
179.581
179.773
180.242
180.902
181.703
182.637
183.702
184.897
186.216
187.655
189.211
190.88
192.658
194.539
196.517
198.58
200.716
202.907
205.131
207.36
179.475
179.492
179.701
180.161
180.811
181.603
182.526
183.578
184.756
186.057
187.475
189.007
190.648
192.395
194.241
196.178
198.198
200.286
202.427
204.598
206.774
179.303
179.356
179.578
180.031
180.669
181.449
182.357
183.392
184.55
185.826
187.215
188.714
190.318
192.021
193.817
195.698
197.655
199.673
201.736
203.824
205.911
179.111
179.183
179.416
179.862
180.488
181.253
182.143
183.155
184.285
185.53
186.883
188.34
189.895
191.543
193.277
195.088
196.965
198.894
200.859
202.84
204.812
178.895
178.977
179.215
179.655
180.266
181.012
181.879
182.863
183.961
185.168
186.477
187.884
189.383
190.967
192.627
194.355
196.139
197.965
199.814
201.668
203.501
178.654
178.74
178.979
179.41
180.004
180.728
181.568
182.52
183.581
184.744
186.004
187.354
188.787
190.297
191.874
193.509
195.187
196.896
198.615
200.323
201.997
178.385
178.472
178.709
179.129
179.704
180.403
181.212
182.128
183.147
184.261
185.464
186.75
188.111
189.539
191.024
192.555
194.117
195.695
197.269
198.816
200.31
178.09
178.176
178.406
178.813
179.367
180.038
180.814
181.69
182.661
183.722
184.863
186.079
187.361
188.699
190.083
191.5
192.936
194.372
195.788
197.158
198.453
177.769
177.851
178.074
178.465
178.995
179.636
180.375
181.207
182.128
183.129
184.204
185.344
186.54
187.781
189.057
190.352
191.651
192.935
194.18
195.358
196.437
177.423
177.501
177.712
178.086
178.591
179.198
179.897
180.683
181.549
182.488
183.491
184.55
185.654
186.793
187.953
189.119
190.274
191.395
192.457
193.43
194.275
177.052
177.124
177.324
177.678
178.155
178.728
179.384
180.12
180.928
181.8
182.728
183.702
184.71
185.741
186.779
187.81
188.812
189.762
190.632
191.387
191.985
176.657
176.724
176.91
177.243
177.691
178.227
178.838
179.522
180.269
181.072
181.92
182.805
183.713
184.631
185.544
186.433
187.277
188.05
188.719
189.247
189.585
176.242
176.302
176.473
176.783
177.201
177.697
178.262
178.891
179.575
180.306
181.073
181.865
182.67
183.472
184.255
184.999
185.681
186.271
186.735
187.03
187.1
175.805
175.86
176.015
176.301
176.686
177.142
177.659
178.231
178.85
179.506
180.19
180.888
181.587
182.271
182.922
183.519
184.036
184.442
184.698
184.758
184.559
175.528
175.788
176.139
176.553
177.02
177.533
178.084
178.663
179.259
179.86
180.45
181.012
181.528
181.974
182.323
182.541
182.587
182.409
181.941
175.239
175.554
175.924
176.337
176.788
177.268
177.767
178.274
178.773
179.25
179.687
180.064
180.356
180.534
180.563
180.398
179.986
179.257
174.935
175.259
175.617
176.004
176.411
176.827
177.241
177.636
177.998
178.308
178.544
178.682
178.69
178.532
178.162
177.525
176.551
174.56
174.861
175.182
175.514
175.846
176.165
176.455
176.701
176.883
176.979
176.964
176.805
176.466
175.901
175.057
173.865
174.072
174.325
174.581
174.827
175.051
175.236
175.365
175.421
175.379
175.215
174.896
174.385
173.641
172.611
171.234
173.437
173.616
173.776
173.904
173.984
173.999
173.93
173.755
173.447
172.977
172.309
171.403
170.212
168.684
172.697
172.73
172.706
172.61
172.421
172.117
171.675
171.064
170.253
169.205
167.881
166.237
171.535
171.411
171.206
170.902
170.477
169.91
169.172
168.234
167.066
165.634
163.902
169.796
169.384
168.847
168.164
167.313
166.266
164.997
163.48
161.685
167.235
166.45
165.498
164.358
163.008
161.425
159.59
164.775
163.737
162.519
161.103
159.474
157.614
160.755
159.289
157.626
155.756
155.883
154.013
)
;

boundaryField
{
    inlet
    {
        type            zeroGradient;
    }
    outlet
    {
        type            fixedValue;
        value           nonuniform 0();
    }
    flap
    {
        type            zeroGradient;
    }
    upperWall
    {
        type            zeroGradient;
    }
    lowerWall
    {
        type            zeroGradient;
    }
    frontAndBack
    {
        type            empty;
    }
    procBoundary3to0
    {
        type            processor;
        value           nonuniform List<scalar> 
34
(
175.341
175.389
175.389
175.007
175.007
174.657
174.657
174.285
174.285
173.83
173.83
173.252
173.252
172.521
172.623
172.623
171.596
171.596
170.326
170.105
170.105
168.389
167.875
167.875
165.652
165.652
163.149
162.037
162.037
159.07
157.566
157.566
154.243
152.381
)
;
    }
    procBoundary3to1
    {
        type            processor;
        value           nonuniform List<scalar> 9(169.44 166.763 164.226 161.835 159.589 157.483 155.513 153.671 151.953);
    }
    procBoundary3to4
    {
        type            processor;
        value           nonuniform List<scalar> 
19
(
209.739
209.559
208.921
207.969
206.747
205.286
203.606
201.719
199.638
197.376
194.948
192.372
189.672
186.876
184.024
181.099
178.122
175.154
172.246
)
;
    }
}


// ************************************************************************* //
