/*--------------------------------*- C++ -*----------------------------------*\
| =========                 |                                                 |
| \\      /  F ield         | OpenFOAM: The Open Source CFD Toolbox           |
|  \\    /   O peration     | Version:  dev                                   |
|   \\  /    A nd           | Web:      www.OpenFOAM.org                      |
|    \\/     M anipulation  |                                                 |
\*---------------------------------------------------------------------------*/
FoamFile
{
    version     2.0;
    format      ascii;
    class       surfaceVectorField;
    location    "1";
    object      Uf;
}
// * * * * * * * * * * * * * * * * * * * * * * * * * * * * * * * * * * * * * //

dimensions      [0 1 -1 0 0 0 0];

internalField   nonuniform List<vector> 
881
(
(9.91058 0 0.0224365)
(9.9636 0 0.0375107)
(9.81314 0 0.0283801)
(9.92382 0 0.0422835)
(9.7045 1.72545e-20 0.033207)
(9.85968 0 0.0490503)
(9.58211 2.73722e-20 0.0382343)
(9.77326 -1.01037e-20 0.0574587)
(9.44583 1.03804e-20 0.0434614)
(9.67078 1.05538e-20 0.0664812)
(9.29576 1.56501e-20 0.0489242)
(9.55423 2.93269e-20 0.0760151)
(9.13166 1.50686e-20 0.0547471)
(9.42309 3.07247e-20 0.0862533)
(8.953 8.5077e-21 0.0610535)
(9.27654 -3.17893e-20 0.0973867)
(8.75907 1.70751e-20 0.0679515)
(9.11391 4.79854e-23 0.109574)
(8.54905 -1.00299e-20 0.0755467)
(8.93454 5.81218e-23 0.122969)
(8.32197 4.01232e-20 0.0839517)
(8.7376 -1.8262e-20 0.137734)
(8.07676 -2.46626e-20 0.0932884)
(8.52216 5.70457e-20 0.154047)
(7.81227 -3.59651e-20 0.103689)
(8.28712 -7.9303e-20 0.172101)
(7.52721 -3.68839e-21 0.115296)
(8.03129 2.05859e-19 0.192097)
(7.22027 3.04594e-21 0.12826)
(7.7534 -2.19065e-19 0.214242)
(6.89009 4.42099e-20 0.142739)
(7.45209 3.38315e-20 0.23874)
(6.53531 0 0.158894)
(7.12597 1.87271e-19 0.265781)
(6.15465 0 0.176886)
(6.7737 -1.69306e-19 0.295541)
(5.74697 1.10111e-19 0.196847)
(6.394 4.08217e-19 0.32813)
(5.31136 2.22756e-19 0.218881)
(5.98568 -7.39367e-19 0.363548)
(5.54782 5.54028e-19 0.401674)
(10.002 0 0.045236)
(9.99465 5.97063e-21 0.0366562)
(9.97134 0 0.0590146)
(9.98397 6.20126e-21 0.0555601)
(9.92301 -2.75554e-20 0.0709949)
(9.95212 3.87377e-20 0.0708342)
(9.85839 -2.65016e-20 0.0839597)
(9.89817 -8.08613e-20 0.0877625)
(9.77733 2.98766e-20 0.0978556)
(9.82723 -2.81724e-20 0.105987)
(9.67989 4.4433e-20 0.112695)
(9.74145 8.78912e-20 0.125339)
(9.56593 -1.73159e-20 0.128724)
(9.64057 -4.55675e-20 0.14612)
(9.43507 -3.9666e-20 0.14621)
(9.52392 -3.17935e-20 0.168689)
(9.28673 -1.6974e-20 0.165394)
(9.39096 -8.30825e-21 0.193365)
(9.1202 -8.50519e-21 0.186515)
(9.24112 -8.66106e-21 0.22046)
(8.93461 0 0.209831)
(9.07373 1.44393e-19 0.250304)
(8.72898 0 0.235619)
(8.88793 -2.99862e-19 0.283256)
(8.5022 1.67504e-19 0.264178)
(8.68277 1.55627e-19 0.319711)
(8.25305 -1.68596e-20 0.295817)
(8.45715 3.28264e-19 0.360088)
(7.98022 -1.83973e-19 0.330853)
(8.20988 1.76472e-21 0.404822)
(7.68232 1.79491e-19 0.369589)
(7.93967 -3.52548e-19 0.454353)
(7.35795 1.20405e-20 0.41231)
(7.64514 -2.06718e-19 0.5091)
(7.00572 2.48466e-19 0.459245)
(7.32488 5.76438e-19 0.569453)
(6.62433 -4.59599e-19 0.510511)
(6.97756 8.95042e-21 0.635716)
(6.21258 -3.87902e-19 0.566063)
(6.60175 -8.47754e-19 0.708013)
(6.19613 4.398e-19 0.786237)
(9.99495 1.20951e-20 0.0495628)
(9.99234 5.97154e-21 0.0387876)
(9.96814 4.55779e-20 0.0706685)
(9.97924 -9.26902e-20 0.0672249)
(9.92365 -1.7024e-20 0.0904946)
(9.94864 -1.28752e-20 0.0909623)
(9.86419 -8.14971e-20 0.111904)
(9.89778 -4.264e-23 0.115738)
(9.78998 3.21047e-20 0.134999)
(9.8307 -8.41917e-20 0.142261)
(9.70096 -4.68369e-21 0.159823)
(9.74962 2.93277e-20 0.170513)
(9.59703 -5.98077e-20 0.186699)
(9.65449 -9.15255e-20 0.200843)
(9.47792 0 0.216014)
(9.5448 1.58495e-19 0.233728)
(9.34318 0 0.248148)
(9.4201 6.66383e-20 0.269627)
(9.19221 1.46983e-19 0.283489)
(9.27999 -2.75093e-19 0.308998)
(9.02431 -1.63352e-19 0.32246)
(9.12392 2.51403e-19 0.352321)
(8.83863 -1.3629e-19 0.365522)
(8.95127 -4.68347e-19 0.400118)
(8.63422 3.19403e-19 0.413177)
(8.76125 -1.56417e-21 0.452965)
(8.41002 3.41275e-19 0.465961)
(8.553 4.88521e-19 0.511484)
(8.16484 -1.7279e-19 0.524425)
(8.32557 1.77485e-19 0.576339)
(7.8974 -7.36446e-19 0.589119)
(8.07789 -3.41555e-19 0.648215)
(7.60631 3.70542e-19 0.660562)
(7.80878 -3.713e-19 0.727789)
(7.29018 3.28136e-19 0.739209)
(7.51697 7.46121e-19 0.815698)
(6.94756 -3.93033e-19 0.825377)
(7.20121 -4.98333e-19 0.912517)
(6.57694 0 0.919149)
(6.8601 -1.02838e-19 1.01865)
(6.49203 -8.60734e-19 1.13422)
(9.99033 -1.00757e-19 0.0570013)
(9.99089 1.19023e-20 0.0428561)
(9.96378 -1.49508e-19 0.0869847)
(9.97585 -3.71455e-20 0.0787861)
(9.92014 4.36682e-21 0.115553)
(9.94506 -2.58847e-20 0.110723)
(9.86166 -4.43077e-21 0.145419)
(9.89518 5.38147e-20 0.143274)
(9.78895 -8.47519e-20 0.177162)
(9.82947 -1.03612e-22 0.177835)
(9.70202 -5.98401e-20 0.211058)
(9.75007 -2.92328e-20 0.21467)
(9.60083 1.31477e-19 0.247558)
(9.65711 3.0045e-20 0.254183)
(9.48521 2.23472e-19 0.287189)
(9.55016 6.3825e-20 0.296931)
(9.35487 -2.14673e-19 0.330481)
(9.42889 1.98606e-19 0.343487)
(9.20941 -1.61356e-19 0.377976)
(9.293 -4.11703e-19 0.394424)
(9.04832 -6.62401e-20 0.430253)
(9.14212 1.42666e-19 0.450345)
(8.871 -3.25478e-19 0.487941)
(8.97577 -4.84695e-19 0.511902)
(8.67678 1.75913e-19 0.55173)
(8.7934 1.50207e-19 0.57981)
(8.46489 3.19476e-19 0.622363)
(8.59441 3.32564e-19 0.654857)
(8.23449 0 0.700626)
(8.37811 3.35754e-19 0.737894)
(7.98461 2.32628e-20 0.787323)
(8.14377 3.52405e-19 0.829815)
(7.7142 2.25211e-20 0.883244)
(7.89052 -7.42678e-19 0.931536)
(7.42212 -1.00459e-19 0.989136)
(7.61743 7.55764e-19 1.04395)
(7.10712 -2.01813e-19 1.10564)
(7.32347 -1.56454e-18 1.16791)
(6.76779 -9.74736e-19 1.23318)
(7.0075 1.62227e-18 1.30418)
(6.66802 -1.69894e-18 1.45326)
(9.98794 7.44783e-20 0.0652845)
(9.99012 2.37829e-20 0.0479297)
(9.96098 8.68189e-20 0.102834)
(9.97397 -4.9027e-20 0.0905281)
(9.91806 2.52011e-20 0.139071)
(9.94307 2.5732e-20 0.130174)
(9.86055 5.70789e-20 0.176576)
(9.89411 -5.36259e-20 0.170372)
(9.78917 5.48809e-20 0.216341)
(9.82982 2.7903e-19 0.212785)
(9.70401 6.17976e-20 0.258855)
(9.75217 -5.79741e-20 0.257967)
(9.60503 -3.69812e-20 0.304655)
(9.66133 6.05722e-20 0.306408)
(9.4921 4.1332e-20 0.354346)
(9.55698 -2.20872e-19 0.358728)
(9.36502 -9.37022e-21 0.408553)
(9.43881 2.62585e-19 0.415592)
(9.22347 -9.78404e-20 0.467916)
(9.30659 -6.85357e-20 0.477675)
(9.06706 -2.86739e-19 0.533114)
(9.16003 3.56733e-20 0.545675)
(8.89536 1.9767e-21 0.604886)
(8.99876 -5.75302e-19 0.620344)
(8.70789 3.10122e-19 0.684047)
(8.8224 6.32158e-19 0.70251)
(8.50413 3.4881e-19 0.771488)
(8.6305 -2.23265e-20 0.793083)
(8.28348 6.88689e-19 0.868162)
(8.42258 1.00354e-18 0.893061)
(8.04531 -4.30998e-19 0.97507)
(8.19814 -3.43384e-19 1.0035)
(7.78888 1.38611e-20 1.09323)
(7.9566 -6.99115e-19 1.12552)
(7.51337 -7.43377e-19 1.22364)
(7.6973 7.56336e-19 1.26023)
(7.21783 3.05562e-19 1.36728)
(7.41949 -6.93735e-19 1.40876)
(6.9011 8.52427e-19 1.52495)
(7.12227 -7.69047e-19 1.57223)
(6.8044 9.07869e-19 1.75158)
(9.98672 -1.01343e-19 0.0739636)
(9.98972 1.18811e-20 0.0535131)
(9.95947 -1.08479e-19 0.118501)
(9.97306 -2.33523e-19 0.102404)
(9.91736 -5.47313e-20 0.162178)
(9.94234 -7.67966e-20 0.149267)
(9.86113 1.74908e-19 0.207339)
(9.89445 -1.07117e-19 0.196891)
(9.7914 1.59682e-19 0.255145)
(9.83184 1.6738e-19 0.24696)
(9.70833 -5.69833e-20 0.306233)
(9.75626 -1.73662e-19 0.30025)
(9.61188 -1.28536e-19 0.361205)
(9.66791 6.03832e-20 0.357357)
(9.50196 9.13815e-21 0.420733)
(9.56651 -3.14071e-19 0.418961)
(9.3784 1.97557e-19 0.485525)
(9.45183 -7.20778e-22 0.485807)
(9.24093 6.6869e-20 0.556312)
(9.32365 6.09656e-19 0.558657)
(9.08927 -2.63378e-19 0.633866)
(9.18175 -5.63023e-19 0.638294)
(8.92306 7.53645e-20 0.719021)
(9.02584 3.243e-20 0.725554)
(8.74195 2.88843e-19 0.812701)
(8.85561 3.05661e-19 0.821351)
(8.54556 6.49229e-19 0.915923)
(8.67075 6.23334e-19 0.926699)
(8.33348 -5.00691e-20 1.02979)
(8.47089 6.70686e-19 1.04272)
(8.10526 -6.17508e-19 1.15545)
(8.25567 -6.82091e-19 1.1706)
(7.86043 6.60731e-20 1.29411)
(8.02473 5.06877e-20 1.31162)
(7.59838 7.84407e-19 1.44701)
(7.77758 5.14158e-20 1.46708)
(7.31841 -1.7672e-18 1.61543)
(7.51366 2.04168e-20 1.63838)
(7.01957 -6.96154e-19 1.80057)
(7.23225 -2.30197e-18 1.82696)
(6.9323 3.26608e-18 2.03421)
(9.98618 -1.25016e-19 0.0828353)
(9.98954 1.18182e-20 0.0593221)
(9.95894 -1.98491e-19 0.133996)
(9.9728 6.12022e-20 0.114282)
(9.91778 -1.29817e-19 0.184806)
(9.94257 -2.57295e-20 0.167944)
(9.86308 -1.09332e-19 0.237387)
(9.89594 -3.40463e-22 0.222718)
(9.79531 -1.72612e-19 0.292969)
(9.83522 -1.66496e-19 0.280211)
(9.71466 -5.19044e-20 0.352316)
(9.76202 -1.15518e-19 0.341349)
(9.62114 -1.32045e-19 0.416112)
(9.67653 6.05089e-20 0.406829)
(9.51468 -3.18344e-19 0.485106)
(9.57851 -3.12535e-19 0.477395)
(9.39513 4.22168e-19 0.560086)
(9.46778 1.283e-19 0.553864)
(9.26228 -4.04205e-20 0.641868)
(9.34416 2.06335e-19 0.637076)
(9.1159 -2.5724e-19 0.7313)
(9.20748 -5.63515e-19 0.727895)
(8.95571 2.67497e-19 0.829298)
(9.0575 2.91784e-19 0.827225)
(8.78143 6.45322e-19 0.936866)
(8.89399 -1.90348e-20 0.936056)
(8.59279 6.45874e-19 1.05512)
(8.71671 1.24165e-18 1.05549)
(8.38947 1.75089e-20 1.18529)
(8.52539 -1.29219e-18 1.18676)
(8.17117 -2.00341e-21 1.32867)
(8.31976 6.73762e-19 1.33117)
(7.93754 3.62658e-20 1.48662)
(8.09958 -1.64475e-20 1.49015)
(7.68815 -7.12827e-19 1.6606)
(7.8645 -1.59048e-20 1.66519)
(7.42242 -5.46108e-19 1.85217)
(7.61403 7.34836e-19 1.8579)
(7.13955 1.73024e-18 2.06292)
(7.34756 6.29717e-20 2.07008)
(7.06418 1.53098e-18 2.30354)
(9.98606 1.98909e-19 0.0917305)
(9.9895 1.18229e-20 0.06518)
(9.95914 2.32294e-19 0.14922)
(9.97301 1.84018e-19 0.126027)
(9.91909 1.04282e-19 0.206835)
(9.94354 5.11166e-20 0.186137)
(9.86612 -6.07967e-20 0.266557)
(9.89836 7.7682e-23 0.247755)
(9.8006 -1.0842e-19 0.329641)
(9.83976 5.48019e-20 0.312402)
(9.72272 1.96825e-22 0.396952)
(9.76923 1.15102e-19 0.381099)
(9.63251 -1.26806e-19 0.469254)
(9.68694 0 0.45463)
(9.52994 1.42113e-19 0.54736)
(9.59269 2.48022e-19 0.533801)
(9.41489 -8.62615e-20 0.632134)
(9.48635 1.31735e-19 0.619493)
(9.28722 -3.30161e-19 0.724466)
(9.3678 -3.35993e-19 0.712625)
(9.14671 0 0.825275)
(9.23689 6.91851e-20 0.81413)
(8.99317 0 0.935543)
(9.09345 5.05005e-19 0.924978)
(8.82639 5.97304e-19 1.05635)
(8.93731 -5.94e-19 1.04622)
(8.64616 -7.36019e-19 1.18892)
(8.76829 7.77103e-21 1.17905)
(8.45224 -6.0732e-19 1.33457)
(8.58621 -5.82709e-20 1.32479)
(8.24441 6.50122e-19 1.49473)
(8.39085 1.17239e-20 1.48486)
(8.02245 -6.83451e-20 1.67094)
(8.18206 0 1.66083)
(7.78598 1.44259e-18 1.86485)
(7.9596 -4.53956e-20 1.85438)
(7.53451 1.33953e-18 2.07829)
(7.72301 1.4888e-18 2.06739)
(7.26728 -1.19307e-19 2.31323)
(7.47174 -7.44067e-20 2.30194)
(7.20497 -1.52665e-18 2.56027)
(9.98623 0 0.100516)
(9.98955 0 0.0709661)
(9.95991 0 0.164076)
(9.97354 -2.43684e-20 0.137521)
(9.92114 -5.41949e-20 0.228179)
(9.94509 2.53522e-20 0.20377)
(9.8701 1.16753e-19 0.294743)
(9.90158 1.57951e-19 0.271911)
(9.8071 2.79592e-19 0.365032)
(9.84531 -5.42115e-20 0.343408)
(9.73229 1.12815e-19 0.439988)
(9.77772 2.29038e-19 0.419344)
(9.64575 3.79457e-19 0.520441)
(9.69896 -4.0152e-22 0.500577)
(9.54747 2.35678e-19 0.607263)
(9.60886 4.95898e-19 0.587963)
(9.43739 -1.26132e-19 0.70139)
(9.50732 -2.56409e-19 0.682445)
(9.3154 7.03717e-20 0.803782)
(9.3943 0 0.785013)
(9.18134 5.81577e-19 0.915423)
(9.26968 4.35376e-22 0.896671)
(9.03506 -1.06325e-19 1.03735)
(9.13334 5.84923e-21 1.01844)
(8.87642 -1.17531e-18 1.17073)
(8.98516 -7.15256e-21 1.15143)
(8.70531 6.84688e-19 1.31686)
(8.82507 -5.81593e-19 1.29691)
(8.52154 5.63776e-19 1.47715)
(8.65293 1.2797e-18 1.45631)
(8.32495 -6.40067e-19 1.65317)
(8.46862 4.38438e-20 1.63116)
(8.11537 2.23957e-20 1.84662)
(8.27204 -6.27047e-19 1.82314)
(7.89255 1.8991e-20 2.05938)
(8.06295 2.21382e-20 2.03414)
(7.65599 5.6368e-20 2.29358)
(7.84104 -4.80638e-23 2.26633)
(7.40501 -1.49497e-18 2.55154)
(7.60581 4.71911e-20 2.52211)
(7.3565 -9.39162e-20 2.80409)
(9.9866 -2.48293e-20 0.109088)
(9.98963 2.34146e-20 0.0765982)
(9.96111 2.08435e-21 0.178469)
(9.97431 -4.86405e-20 0.148661)
(9.92382 2.40257e-19 0.248754)
(9.94711 2.53664e-20 0.220753)
(9.87493 -1.72109e-20 0.32184)
(9.90549 1.05929e-19 0.295087)
(9.8147 -9.95516e-20 0.399009)
(9.85179 -1.18901e-21 0.373103)
(9.74327 1.11609e-19 0.481264)
(9.78743 2.27692e-19 0.455937)
(9.66073 1.24822e-19 0.569487)
(9.71251 -7.05367e-22 0.544501)
(9.56711 -9.39805e-21 0.664601)
(9.62688 4.90765e-19 0.63969)
(9.4624 -1.25934e-19 0.767605)
(9.53051 -2.54738e-19 0.742497)
(9.34656 -6.99852e-20 0.879528)
(9.42342 0 0.85398)
(9.21946 -5.75807e-19 1.00142)
(9.30555 -6.89084e-20 0.97522)
(9.081 1.04555e-19 1.13435)
(9.17683 -6.41092e-19 1.10728)
(8.93114 5.79394e-19 1.27956)
(9.03719 5.88568e-19 1.25131)
(8.7698 4.00767e-20 1.43843)
(8.88663 0 1.40865)
(8.59692 7.42299e-19 1.61249)
(8.72511 -5.05821e-19 1.58082)
(8.41238 4.96809e-20 1.80341)
(8.55259 2.5763e-18 1.76949)
(8.21604 -6.20224e-19 2.01306)
(8.36906 -6.62283e-19 1.97647)
(8.0077 2.81749e-21 2.24356)
(8.17423 -1.43342e-18 2.20382)
(7.787 -8.78687e-21 2.49735)
(7.96793 8.91005e-20 2.45399)
(7.55332 1.44899e-18 2.77713)
(7.74982 -1.14563e-20 2.72972)
(7.51919 1.49645e-18 3.03405)
(9.98709 -1.94737e-21 0.117368)
(9.98974 2.34267e-20 0.0820275)
(9.96263 -2.3761e-20 0.192308)
(9.97523 -2.4273e-20 0.159364)
(9.92703 -1.07425e-19 0.268455)
(9.9495 -2.51559e-19 0.236991)
(9.88053 1.19961e-19 0.347728)
(9.90997 5.18791e-20 0.317175)
(9.82333 3.30532e-19 0.431432)
(9.85905 -1.07785e-19 0.401361)
(9.75557 1.1123e-19 0.520619)
(9.79816 -1.12853e-19 0.490731)
(9.67734 3.74034e-19 0.61621)
(9.72737 2.34429e-19 0.586238)
(9.58871 2.32792e-19 0.719163)
(9.64652 -2.40267e-19 0.688804)
(9.48974 -1.24561e-19 0.830529)
(9.55566 -2.54013e-19 0.799447)
(9.38046 0 0.951414)
(9.45487 1.30084e-19 0.919288)
(9.26078 -1.42878e-19 1.08293)
(9.34416 0 1.0495)
(9.13066 -1.38606e-19 1.22618)
(9.22354 5.57904e-19 1.19118)
(8.99013 0 1.38243)
(9.09298 -4.30666e-19 1.34548)
(8.8392 -5.53356e-19 1.55318)
(8.95253 -5.95254e-19 1.51384)
(8.67787 1.36883e-18 1.74005)
(8.80226 6.29745e-20 1.69787)
(8.50615 1.82736e-18 1.94486)
(8.64216 1.96422e-18 1.8993)
(8.32392 -1.48368e-18 2.16962)
(8.47244 4.64842e-20 2.12016)
(8.13101 -1.3338e-18 2.41666)
(8.29279 -1.35423e-18 2.36269)
(7.92724 8.57011e-20 2.68871)
(8.10312 1.61444e-21 2.6295)
(7.7121 4.5771e-20 2.98889)
(7.90333 0 2.92369)
(7.69279 4.55478e-20 3.24882)
(9.98767 0 0.125299)
(9.98987 -3.4814e-19 0.0872148)
(9.96439 -2.56862e-19 0.205514)
(9.9763 -2.40742e-20 0.169563)
(9.93065 -8.6216e-20 0.287191)
(9.95219 -7.85511e-22 0.252409)
(9.8867 -1.78881e-19 0.372294)
(9.91493 1.05244e-19 0.338093)
(9.83275 -5.51614e-19 0.462164)
(9.86696 -4.34945e-19 0.428079)
(9.76891 1.65559e-20 0.557897)
(9.80974 -4.51598e-19 0.523599)
(9.69527 -3.88453e-19 0.660439)
(9.74331 3.506e-19 0.625645)
(9.61193 -7.27915e-19 0.770762)
(9.66751 -1.25849e-19 0.73514)
(9.51904 6.97941e-21 0.889953)
(9.58246 -2.52183e-19 0.853101)
(9.41671 1.2813e-19 1.0192)
(9.48831 3.88812e-19 0.98071)
(9.3049 7.09817e-19 1.15968)
(9.38514 6.68726e-19 1.11924)
(9.18361 2.51971e-19 1.3125)
(9.27309 1.49662e-19 1.26983)
(9.05296 -1.02914e-18 1.47898)
(9.1521 -5.73947e-19 1.43361)
(8.91301 2.98448e-20 1.66071)
(9.02224 -7.42379e-19 1.61209)
(8.76382 6.82063e-19 1.85937)
(8.88384 5.35348e-19 1.80701)
(8.60554 1.59017e-19 2.07691)
(8.73682 1.04396e-21 2.02012)
(8.43822 1.63728e-19 2.31555)
(8.58151 -1.56446e-19 2.2536)
(8.26173 -3.40337e-21 2.5778)
(8.41784 8.32928e-20 2.50993)
(8.076 -8.44294e-20 2.86662)
(8.24582 -2.49334e-19 2.79188)
(7.88075 0 3.18555)
(8.06552 -1.66682e-19 3.10284)
(7.8766 0 3.44685)
(9.98835 -3.66511e-19 0.132828)
(9.99002 2.2405e-20 0.0921177)
(9.9664 2.32625e-19 0.218023)
(9.97751 -7.20782e-20 0.179198)
(9.93465 1.92903e-19 0.304893)
(9.9552 2.51028e-19 0.266945)
(9.8934 -1.61139e-19 0.395462)
(9.92034 -1.04189e-19 0.357773)
(9.84286 -3.35127e-19 0.491113)
(9.87545 3.2284e-19 0.453176)
(9.78314 -1.03266e-19 0.592987)
(9.82206 -2.17887e-21 0.554445)
(9.71432 6.05424e-19 0.702045)
(9.76018 -6.01801e-22 0.662605)
(9.63653 3.48518e-19 0.819244)
(9.68967 4.83704e-19 0.778557)
(9.55003 1.40007e-19 0.945692)
(9.61075 -3.7386e-19 0.903291)
(9.45498 9.34261e-19 1.08266)
(9.52352 7.70846e-19 1.03805)
(9.35141 1.00688e-19 1.23139)
(9.42816 1.41502e-19 1.18422)
(9.2394 -6.87528e-19 1.39302)
(9.32505 -5.5116e-19 1.34295)
(9.11909 -2.88742e-19 1.56886)
(9.21403 -7.05179e-19 1.51537)
(8.99065 -2.20754e-19 1.7606)
(9.09516 5.74278e-19 1.70306)
(8.85426 -1.53175e-19 1.97)
(8.96915 -2.23245e-19 1.9078)
(8.71005 -3.16716e-19 2.19908)
(8.83587 9.87046e-19 2.13145)
(8.55825 -2.35181e-19 2.45022)
(8.69557 -1.16614e-18 2.37626)
(8.39899 -1.65741e-19 2.72613)
(8.54852 1.57444e-19 2.64486)
(8.23233 -3.31436e-19 3.03)
(8.39503 1.5689e-19 2.94019)
(8.05832 -1.66206e-19 3.36569)
(8.23535 -3.27509e-19 3.26587)
(8.06962 0 3.62633)
(9.98912 3.15052e-19 0.139905)
(9.99018 3.70937e-19 0.0967026)
(9.96863 -4.69654e-20 0.229772)
(9.97883 -4.80195e-20 0.188205)
(9.93903 -5.32307e-20 0.321498)
(9.95849 -6.95282e-23 0.280531)
(9.90061 3.88051e-19 0.417163)
(9.9262 5.12965e-20 0.376151)
(9.85362 6.50263e-19 0.518196)
(9.88449 2.1674e-19 0.476587)
(9.79816 1.00704e-19 0.625786)
(9.83501 -1.10428e-19 0.583192)
(9.73436 -1.14426e-19 0.740893)
(9.77783 -1.16462e-19 0.69701)
(9.6624 -2.53172e-19 0.864443)
(9.71288 -2.37646e-19 0.818903)
(9.58258 2.75106e-19 0.997559)
(9.64041 1.19457e-19 0.949846)
(9.49505 -3.19883e-20 1.14158)
(9.56034 1.32038e-19 1.09116)
(9.39999 -5.21088e-19 1.29782)
(9.47303 1.26415e-19 1.24425)
(9.29759 -5.70682e-19 1.46742)
(9.37914 -5.37998e-19 1.41031)
(9.18796 1.7462e-19 1.65172)
(9.27833 -5.63541e-19 1.59052)
(9.07141 5.63027e-19 1.85244)
(9.17084 7.22092e-19 1.78644)
(8.94831 9.31879e-19 2.07144)
(9.05753 -7.30794e-19 1.99986)
(8.8188 1.17388e-19 2.3108)
(8.93836 3.00641e-18 2.23281)
(8.68314 -7.62558e-19 2.57299)
(8.81358 -1.08085e-18 2.48759)
(8.54179 4.81091e-19 2.86081)
(8.68372 -2.16413e-18 2.7668)
(8.39516 1.58768e-19 3.17764)
(8.54955 2.67477e-18 3.07351)
(8.24368 -1.59896e-19 3.5276)
(8.41154 -1.10987e-18 3.41143)
(8.2704 0 3.78527)
(9.98994 0 0.146484)
(9.97106 0 0.240692)
(9.94375 1.05476e-19 0.336938)
(9.96199 0 0.293102)
(9.90828 -1.17024e-19 0.437334)
(9.9324 2.02633e-19 0.393181)
(9.8649 -5.50416e-19 0.543347)
(9.8939 -2.18998e-19 0.498282)
(9.81382 -3.27924e-19 0.656202)
(9.84841 -2.35937e-19 0.609794)
(9.75523 -2.41773e-19 0.776847)
(9.7961 0 0.728766)
(9.68941 1.40966e-19 0.906192)
(9.73701 -1.86934e-20 0.856033)
(9.61655 -2.34207e-20 1.0454)
(9.67126 -8.48904e-20 0.992618)
(9.5368 2.90417e-19 1.19584)
(9.59859 -6.27399e-19 1.1399)
(9.45046 1.00915e-19 1.35882)
(9.51972 1.64814e-18 1.29925)
(9.35788 -5.31325e-19 1.53555)
(9.4353 -1.55608e-18 1.47182)
(9.25921 0 1.72739)
(9.34491 2.58448e-19 1.65894)
(9.15483 -5.90363e-19 1.93602)
(9.24932 -2.64083e-19 1.8621)
(9.04523 1.38412e-18 2.1634)
(9.14898 -4.59372e-19 2.08306)
(8.93068 1.77276e-18 2.41171)
(9.04416 2.2567e-18 2.32406)
(8.8116 -2.4925e-18 2.68337)
(8.93539 -1.52929e-19 2.58734)
(8.68879 6.13987e-20 2.9812)
(8.82335 -3.80677e-18 2.87532)
(8.56306 1.38919e-18 3.30863)
(8.70935 3.27614e-18 3.19113)
(8.43522 -9.47465e-19 3.6699)
(8.59403 -1.26161e-18 3.53853)
(8.47876 1.17028e-18 3.9222)
(9.94879 1.01067e-19 0.351454)
(9.91637 9.70177e-20 0.456331)
(9.93909 1.00346e-19 0.409394)
(9.87673 1.07902e-19 0.567016)
(9.90401 -3.94295e-19 0.518947)
(9.83023 1.0449e-19 0.684746)
(9.86274 1.07653e-19 0.635047)
(9.77722 2.31945e-19 0.810473)
(9.81568 0 0.758759)
(9.71792 -2.53213e-19 0.945149)
(9.7629 6.66655e-19 0.890968)
(9.65243 -7.10636e-19 1.08998)
(9.7042 -4.76269e-19 1.03281)
(9.58095 7.7296e-19 1.24631)
(9.63934 -2.47765e-19 1.18562)
(9.5039 -5.61285e-20 1.41543)
(9.56954 1.01173e-18 1.35065)
(9.42166 -7.47186e-19 1.59855)
(9.49509 -1.04068e-18 1.52912)
(9.33457 -1.22522e-20 1.79711)
(9.41574 5.18864e-19 1.72239)
(9.24308 -1.26102e-19 2.01273)
(9.33274 -1.53228e-20 1.9319)
(9.14765 4.21666e-19 2.24742)
(9.24602 -9.09628e-19 2.15946)
(9.04881 2.78834e-19 2.5034)
(9.15632 2.15554e-18 2.40732)
(8.9473 -1.47422e-18 2.78291)
(9.0645 -1.08674e-18 2.67755)
(8.84423 -5.59966e-19 3.08871)
(8.97159 -2.58482e-18 2.97235)
(8.74084 5.86029e-19 3.4242)
(8.87899 2.29518e-18 3.2948)
(8.63831 9.05304e-19 3.79354)
(8.78778 2.59842e-19 3.64864)
(8.70001 -1.86088e-19 4.03806)
(9.92501 -4.06341e-19 0.474127)
(9.88934 -3.91815e-19 0.589138)
(9.91466 -4.03243e-19 0.538092)
(9.84772 0 0.711284)
(9.8779 -5.52895e-22 0.658346)
(9.80059 4.48426e-19 0.841591)
(9.83639 4.08347e-19 0.78627)
(9.74806 4.34355e-19 0.981112)
(9.79008 2.35279e-19 0.922936)
(9.69014 -9.73867e-22 1.13105)
(9.7385 -4.35795e-19 1.06957)
(9.62721 -8.39266e-22 1.29265)
(9.68179 2.22716e-19 1.2273)
(9.55981 0 1.46718)
(9.62131 -6.89903e-19 1.3973)
(9.48825 2.58207e-19 1.6559)
(9.557 2.36213e-19 1.58094)
(9.41305 5.16213e-19 1.86023)
(9.48914 1.53915e-20 1.77946)
(9.33476 -8.17741e-19 2.08178)
(9.41882 7.58489e-19 1.99432)
(9.25391 8.59813e-19 2.32254)
(9.34592 -1.32993e-18 2.22733)
(9.17133 7.689e-19 2.58458)
(9.27177 1.92176e-18 2.48057)
(9.08813 -2.21924e-18 2.86999)
(9.19748 -8.57702e-19 2.75586)
(9.00561 3.11219e-19 3.1813)
(9.12437 -1.13284e-18 3.05525)
(8.92524 1.97773e-18 3.52183)
(9.05344 1.43354e-18 3.38165)
(8.84871 -8.59733e-19 3.89532)
(8.9867 -7.59883e-19 3.73854)
(8.92666 -9.62968e-20 4.12916)
(9.90263 6.06234e-23 0.60943)
(9.86619 4.20027e-19 0.735525)
(9.8939 -1.61818e-21 0.679408)
(9.82512 1.89189e-19 0.869926)
(9.85816 4.18204e-19 0.811049)
(9.77947 -6.59058e-19 1.01381)
(9.81829 -6.25392e-19 0.951701)
(9.72933 -2.05176e-19 1.16829)
(9.77399 -2.68114e-20 1.10256)
(9.67524 -4.85365e-19 1.3345)
(9.72581 2.29406e-19 1.2645)
(9.61771 -4.47474e-19 1.51371)
(9.67473 -4.85238e-19 1.43875)
(9.55715 -1.28793e-20 1.70721)
(9.62082 4.7089e-19 1.62672)
(9.49409 2.62594e-19 1.91634)
(9.5648 -2.51079e-19 1.82956)
(9.42918 2.37983e-19 2.14267)
(9.50722 3.13169e-20 2.04868)
(9.36322 -2.52068e-19 2.38808)
(9.4485 4.70005e-19 2.28579)
(9.29741 2.65107e-19 2.65442)
(9.3903 2.45225e-19 2.54264)
(9.23307 2.60781e-19 2.9436)
(9.334 1.52884e-20 2.8209)
(9.17149 0 3.25793)
(9.28064 -2.51199e-19 3.12257)
(9.11431 -1.36329e-18 3.60039)
(9.23128 0 3.45019)
(9.06388 1.88454e-20 3.97398)
(9.18889 -1.37455e-18 3.80649)
(9.15612 1.89114e-18 4.19356)
(9.88551 -1.60462e-21 0.757152)
(9.85059 -4.20917e-19 0.895161)
(9.88071 1.91579e-19 0.832902)
(9.81188 2.45772e-20 1.04285)
(9.84728 -6.16411e-19 0.97703)
(9.76976 4.19499e-19 1.20121)
(9.81051 6.33515e-19 1.13141)
(9.72471 2.28778e-19 1.37129)
(9.77105 2.09978e-19 1.29685)
(9.67722 4.57159e-19 1.55436)
(9.7294 -2.00126e-19 1.47458)
(9.62784 2.26941e-19 1.75173)
(9.68615 2.34436e-19 1.66595)
(9.57715 -4.89362e-19 1.96461)
(9.64205 4.45816e-19 1.8721)
(9.52592 2.67895e-19 2.19445)
(9.59741 -1.40459e-18 2.09427)
(9.47524 9.81696e-19 2.44289)
(9.55324 1.21387e-18 2.33392)
(9.42648 -1.0346e-20 2.71161)
(9.51128 1.40958e-20 2.59257)
(9.38089 -5.09239e-19 3.00234)
(9.47279 -2.57985e-19 2.87183)
(9.33985 -2.52924e-19 3.31711)
(9.43853 -9.81711e-19 3.1735)
(9.30542 0 3.65829)
(9.41033 9.78206e-19 3.49946)
(9.28048 5.19043e-19 4.02781)
(9.39157 -9.7733e-19 3.85142)
(9.38484 2.48e-18 4.23041)
(9.87672 -1.15357e-20 0.917089)
(9.84512 1.10986e-20 1.06795)
(9.8768 -3.94196e-19 0.998633)
(9.81115 4.17908e-19 1.22947)
(9.84778 4.03522e-19 1.15581)
(9.77523 -2.30259e-19 1.40263)
(9.81701 2.16646e-19 1.324)
(9.73789 -4.28812e-19 1.5887)
(9.7849 -6.46585e-19 1.50437)
(9.69979 4.58977e-19 1.7889)
(9.75244 -2.11233e-19 1.69816)
(9.66162 -4.89948e-19 2.00434)
(9.72026 2.42218e-19 1.90647)
(9.62433 -4.41458e-19 2.23626)
(9.68878 -1.60124e-18 2.13032)
(9.58911 2.24526e-19 2.48608)
(9.65925 9.27633e-19 2.37094)
(9.55719 -2.38878e-19 2.75532)
(9.63329 -2.44306e-19 2.62971)
(9.52981 -7.39724e-19 3.04547)
(9.61192 2.30821e-19 2.90813)
(9.50868 2.70082e-19 3.35811)
(9.59616 -7.45556e-19 3.20747)
(9.49624 -1.36371e-20 3.6947)
(9.5886 3.02156e-19 3.52879)
(9.49555 1.01295e-18 4.05615)
(9.5923 -1.00443e-18 3.87292)
(9.60984 2.00508e-18 4.24009)
(9.87881 1.00129e-20 1.08882)
(9.85304 1.96754e-19 1.25272)
(9.82629 -2.10931e-19 1.42815)
(9.86324 3.92036e-19 1.34559)
(9.79916 -4.23358e-19 1.61628)
(9.84082 -1.12102e-20 1.52769)
(9.77242 -4.34242e-19 1.8182)
(9.81918 -4.20562e-19 1.72285)
(9.74688 -8.94745e-19 2.03491)
(9.79891 1.94503e-19 1.93207)
(9.72348 -2.03156e-19 2.26744)
(9.7805 -8.89752e-19 2.15625)
(9.70333 4.50355e-19 2.51704)
(9.76524 8.93346e-19 2.39638)
(9.68765 2.36182e-19 2.78502)
(9.75462 0 2.65369)
(9.67788 2.30623e-19 3.07251)
(9.7497 4.60148e-19 2.92934)
(9.67604 -7.20205e-19 3.38041)
(9.75203 -2.2472e-19 3.22395)
(9.68464 -7.07017e-19 3.70932)
(9.76427 -2.70879e-19 3.53788)
(9.70659 -6.01967e-21 4.0594)
(9.78901 -4.51104e-19 3.87134)
(9.82877 4.4649e-19 4.2239)
(9.87751 5.9678e-19 1.44745)
(9.86065 -8.30238e-21 1.6366)
(9.89683 2.06045e-19 1.5441)
(9.84527 2.23943e-19 1.8391)
(9.88588 -4.05991e-19 1.73953)
(9.83214 2.01682e-19 2.05581)
(9.87723 2.62438e-20 1.94851)
(9.82217 2.30699e-19 2.28759)
(9.8715 1.93262e-19 2.17175)
(9.81648 4.33751e-19 2.53546)
(9.86999 8.59928e-19 2.41)
(9.81643 2.28181e-19 2.8004)
(9.87413 -8.44463e-19 2.6642)
(9.82375 -4.04231e-21 3.08308)
(9.88522 2.309e-19 2.93505)
(9.84046 2.38072e-19 3.38376)
(9.90507 -2.23849e-19 3.22267)
(9.8689 -7.97131e-21 3.70242)
(9.93596 6.81173e-19 3.52696)
(9.91162 1.00179e-20 4.03868)
(9.98011 -2.23717e-20 3.8476)
(10.0398 2.16521e-20 4.18368)
(9.92194 -2.01979e-19 1.6493)
(9.91755 -6.09817e-19 1.85126)
(9.91635 1.71065e-20 2.06678)
(9.95442 -9.95383e-19 1.95558)
(9.91933 8.3733e-19 2.29648)
(9.96099 6.20347e-19 2.17659)
(9.92769 -4.4748e-19 2.54106)
(9.97286 2.58721e-20 2.41149)
(9.94292 -8.45565e-19 2.80115)
(9.9914 -4.58866e-19 2.66087)
(9.96674 6.40761e-21 3.07697)
(10.018 2.07121e-19 2.92506)
(10.001 2.27073e-19 3.36833)
(10.0545 4.22328e-19 3.20384)
(10.0478 6.69234e-19 3.67481)
(10.1026 -1.98174e-19 3.49674)
(10.1092 -1.13156e-20 3.99559)
(10.1644 4.52104e-19 3.80303)
(10.2417 -6.65343e-19 4.12146)
(9.99897 -3.79208e-19 2.06762)
(10.0146 -2.11627e-19 2.29382)
(10.0368 1.57522e-20 2.53353)
(10.0737 -4.10244e-19 2.40052)
(10.0668 6.19256e-19 2.78706)
(10.1062 8.12854e-19 2.64353)
(10.1062 6.32933e-19 3.05429)
(10.1476 2.10011e-19 2.8995)
(10.1568 -1.2777e-20 3.33474)
(10.1994 8.30917e-19 3.16797)
(10.2202 -4.2243e-19 3.62766)
(10.2632 -6.36198e-19 3.44818)
(10.2981 -2.16336e-19 3.9319)
(10.3407 3.05034e-19 3.73913)
(10.4333 -3.1999e-19 4.03934)
(10.1435 4.04765e-19 2.5127)
(10.1875 3.93894e-19 2.75821)
(10.2179 2.29053e-20 2.6123)
(10.2415 4.11942e-19 3.01551)
(10.273 -1.74633e-21 2.85879)
(10.3069 1.94867e-19 3.28387)
(10.3389 4.11622e-19 3.11582)
(10.3851 1.08433e-19 3.5623)
(10.4168 -2.10763e-19 3.38244)
(10.4775 1.99449e-19 3.84945)
(10.508 6.45482e-20 3.65745)
(10.6137 -5.59016e-20 3.93931)
(10.3042 -3.82844e-19 2.71504)
(10.3715 -2.56199e-21 2.96134)
(10.4502 -3.15287e-21 3.21675)
(10.472 -1.5005e-21 3.0483)
(10.5414 -2.5618e-19 3.4801)
(10.5623 -1.92892e-19 3.30071)
(10.6463 -1.97005e-19 3.74998)
(10.6655 -2.66378e-19 3.55951)
(10.7824 3.51394e-19 3.82316)
(10.5858 -1.95837e-19 3.13447)
(10.6884 -2.03294e-19 3.38243)
(10.8039 2.95727e-19 3.63509)
(10.8125 -3.55412e-20 3.44675)
(10.9387 -1.59884e-19 3.69252)
(10.9497 -5.02676e-19 3.50627)
)
;

boundaryField
{
    inlet
    {
        type            calculated;
        value           uniform (10 0 0);
    }
    outlet
    {
        type            calculated;
        value           nonuniform 0();
    }
    flap
    {
        type            calculated;
        value           nonuniform 0();
    }
    upperWall
    {
        type            calculated;
        value           nonuniform 0();
    }
    lowerWall
    {
        type            calculated;
        value           uniform (0 0 0);
    }
    frontAndBack
    {
        type            empty;
        value           nonuniform 0();
    }
    procBoundary3to0
    {
        type            processor;
        value           nonuniform List<vector> 
34
(
(9.99033 0 0.100947)
(9.98021 0 0.196527)
(9.97365 0 0.25093)
(9.96578 4.57157e-20 0.305022)
(9.95416 4.53815e-20 0.365026)
(9.94607 9.21758e-20 0.424401)
(9.934 9.22643e-20 0.490479)
(9.92579 1.85668e-19 0.555467)
(9.91654 1.82972e-19 0.627581)
(9.91062 3.71244e-19 0.697977)
(9.90546 5.68648e-19 0.775963)
(9.90365 1.96579e-19 0.851632)
(9.90316 -1.97691e-19 0.93546)
(9.90657 -5.6792e-19 1.01619)
(9.88537 3.91959e-19 1.17543)
(9.89505 5.92348e-19 1.27062)
(9.90952 4.01075e-19 1.36125)
(9.92868 0 1.46012)
(9.95248 -3.73476e-19 1.55326)
(9.95187 -1.16985e-20 1.74797)
(9.98857 -4.06696e-19 1.85454)
(10.0302 -5.98128e-19 1.95304)
(10.0488 1.13133e-20 2.17046)
(10.1081 -1.92127e-19 2.27931)
(10.1723 -1.85492e-19 2.377)
(10.2473 -5.7789e-19 2.47871)
(10.3259 -7.58917e-19 2.56755)
(10.3935 2.7675e-19 2.80356)
(10.4953 2.78187e-19 2.89265)
(10.5978 0 2.96641)
(10.699 -2.18776e-19 3.20422)
(10.8252 -4.67973e-20 3.27061)
(10.9483 -1.14419e-19 3.32053)
(11.0823 -8.42288e-19 3.54883)
)
;
    }
    procBoundary3to1
    {
        type            processor;
        value           nonuniform List<vector> 9((9.51011 2.9794e-18 4.44289) (9.74502 -4.79154e-19 4.43022) (9.97132 4.60488e-19 4.39148) (10.1875 1.0943e-20 4.32918) (10.3925 -2.11543e-19 4.24576) (10.5854 1.0875e-19 4.14356) (10.7657 -5.45723e-20 4.02464) (10.9329 3.98742e-19 3.8908) (11.0867 -3.72263e-19 3.74361));
    }
    procBoundary3to4
    {
        type            processor;
        value           nonuniform List<vector> 
19
(
(4.84732 3.50144e-19 0.243056)
(5.76952 4.33077e-19 0.625663)
(6.17676 -1.14544e-19 1.02031)
(6.40241 -1.52157e-18 1.37183)
(6.5616 -9.38068e-19 1.69719)
(6.7005 1.72648e-18 2.00348)
(6.83832 1.59784e-18 2.29441)
(6.98319 1.53597e-18 2.57173)
(7.13858 -3.10566e-18 2.83575)
(7.30571 2.92003e-18 3.08585)
(7.48473 -2.86668e-18 3.32072)