/*--------------------------------*- C++ -*----------------------------------*\
| =========                 |                                                 |
| \\      /  F ield         | OpenFOAM: The Open Source CFD Toolbox           |
|  \\    /   O peration     | Version:  dev                                   |
|   \\  /    A nd           | Web:      www.OpenFOAM.org                      |
|    \\/     M anipulation  |                                                 |
\*---------------------------------------------------------------------------*/
FoamFile
{
    version     2.0;
    format      ascii;
    class       volScalarField;
    location    "3.96";
    object      p;
}
// * * * * * * * * * * * * * * * * * * * * * * * * * * * * * * * * * * * * * //

dimensions      [0 2 -2 0 0 0 0];

internalField   nonuniform List<scalar> 
2790
(
149.129
149.033
149.284
149.849
150.63
151.588
152.72
154.023
155.496
157.132
158.924
160.865
162.948
165.159
167.483
169.899
172.381
174.895
177.398
179.842
182.168
184.314
186.213
187.807
189.047
189.908
190.392
190.535
190.58
190.717
148.938
148.94
149.216
149.779
150.557
151.512
152.638
153.936
155.402
157.029
158.812
160.743
162.814
165.014
167.327
169.733
172.207
174.715
177.217
179.664
182.001
184.164
186.087
187.71
188.98
189.863
190.332
190.453
190.607
190.798
148.74
148.813
149.108
149.661
150.426
151.369
152.48
153.76
155.204
156.807
158.561
160.462
162.498
164.66
166.932
169.295
171.724
174.19
176.654
179.072
181.391
183.552
185.497
187.164
188.506
189.493
190.125
190.495
190.801
191.089
148.519
148.624
148.931
149.475
150.225
151.151
152.243
153.499
154.914
156.483
158.2
160.056
162.044
164.151
166.363
168.662
171.025
173.423
175.824
178.185
180.463
182.605
184.56
186.278
187.721
188.871
189.745
190.41
190.944
191.421
148.262
148.382
148.697
149.234
149.967
150.872
151.939
153.163
154.542
156.068
157.735
159.536
161.461
163.498
165.634
167.852
170.129
172.44
174.756
177.042
179.258
181.365
183.32
185.087
186.639
187.966
189.081
190.019
190.795
191.478
147.967
148.093
148.41
148.936
149.65
150.53
151.565
152.751
154.085
155.56
157.169
158.903
160.754
162.709
164.755
166.876
169.051
171.258
173.47
175.659
177.794
179.844
181.778
183.573
185.212
186.689
188.006
189.172
190.14
190.971
147.631
147.758
148.072
148.585
149.277
150.126
151.124
152.267
153.55
154.966
156.507
158.165
159.93
161.791
163.734
165.743
167.8
169.885
171.974
174.046
176.074
178.039
179.92
181.703
183.381
184.952
186.411
187.745
188.852
189.793
147.255
147.379
147.686
148.183
148.848
149.663
150.62
151.714
152.939
154.288
155.753
157.326
158.995
160.75
162.577
164.461
166.384
168.329
170.275
172.203
174.096
175.938
177.719
179.435
181.087
182.677
184.199
185.631
186.837
187.884
146.838
146.958
147.254
147.731
148.368
149.145
150.056
151.095
152.257
153.532
154.914
156.392
157.956
159.594
161.293
163.037
164.81
166.595
168.375
170.132
171.853
173.527
175.151
176.727
178.266
179.777
181.263
182.71
183.968
185.135
146.381
146.496
146.778
147.233
147.838
148.575
149.436
150.415
151.507
152.703
153.993
155.369
156.819
158.33
159.889
161.48
163.087
164.693
166.28
167.834
169.342
170.794
172.191
173.539
174.853
176.157
177.47
178.811
180.043
181.34
145.886
145.995
146.261
146.691
147.262
147.954
148.762
149.678
150.695
151.806
152.999
154.266
155.593
156.968
158.376
159.8
161.225
162.631
164.001
165.318
166.567
167.738
168.827
169.838
170.789
171.714
172.654
173.686
174.732
176.137
145.356
145.456
145.706
146.109
146.642
147.288
148.038
148.887
149.826
150.847
151.938
153.089
154.286
155.517
156.764
158.01
159.237
160.425
161.553
162.599
163.544
164.37
165.062
165.615
166.034
166.348
166.616
166.985
167.5
168.876
144.791
144.884
145.114
145.488
145.983
146.58
147.27
148.048
148.906
149.832
150.816
151.847
152.909
153.988
155.066
156.124
157.141
158.093
158.956
159.701
160.3
160.72
160.929
160.894
160.587
159.998
159.156
158.24
157.462
158.302
144.195
144.279
144.489
144.833
145.287
145.833
146.461
147.166
147.939
148.768
149.642
150.548
151.47
152.392
153.295
154.157
154.954
155.658
156.238
156.659
156.876
156.841
156.491
155.751
154.526
152.707
150.177
146.945
143.159
141.606
143.569
143.644
143.833
144.146
144.558
145.051
145.616
146.246
146.932
147.661
148.423
149.201
149.98
150.742
151.465
152.126
152.697
153.145
153.432
153.512
153.329
152.808
151.853
150.332
148.052
144.73
139.915
132.946
122.528
110.768
3.87444
3.83187
3.72067
3.56155
3.38788
3.22115
3.07063
2.93915
2.82632
2.72984
2.64582
2.56919
2.49521
2.42019
2.34152
2.25741
2.16669
2.06863
1.96271
1.84845
1.72531
1.59262
1.44945
1.29478
1.12798
0.949118
0.758838
0.55782
0.345966
0.12289
3.81021
3.75982
3.65171
3.50284
3.34109
3.18486
3.04264
2.91749
2.80975
2.71798
2.63838
2.56537
2.49396
2.42066
2.34309
2.2596
2.16916
2.07119
1.96529
1.85112
1.72822
1.59577
1.45261
1.29767
1.13035
0.950927
0.760305
0.559241
0.347163
0.121988
3.72875
3.67127
3.56715
3.42979
3.28204
3.13849
3.00661
2.88972
2.78854
2.70176
2.62709
2.55947
2.49247
2.42239
2.34701
2.26486
2.17506
2.07721
1.97114
1.85677
1.73383
1.60153
1.45854
1.30343
1.13552
0.955187
0.763542
0.561681
0.348951
0.121663
3.64952
3.58699
3.48734
3.36078
3.22631
3.09479
2.97281
2.86383
2.76892
2.68736
2.61736
2.55425
2.49153
2.42482
2.35176
2.27101
2.18202
2.08464
1.97882
1.86457
1.74166
1.60927
1.46593
1.31011
1.14104
0.959189
0.766039
0.563042
0.349617
0.121194
3.59408
3.5296
3.43563
3.31878
3.19523
3.07315
2.95866
2.85521
2.76369
2.68463
2.61733
2.55665
2.49581
2.43069
2.35867
2.27844
2.18965
2.09241
1.98686
1.87299
1.75038
1.61796
1.4742
1.31762
1.14749
0.964073
0.768694
0.563477
0.348375
0.119331
3.58202
3.5175
3.42912
3.3193
3.20249
3.0858
2.97511
2.87413
2.78403
2.70474
2.63466
2.57063
2.50798
2.44171
2.36884
2.28808
2.19911
2.10196
1.99667
1.88298
1.76026
1.62736
1.48277
1.32515
1.15378
0.968788
0.771173
0.562718
0.344454
0.116107
3.62783
3.5622
3.47563
3.36662
3.25005
3.13307
3.02135
2.91843
2.82565
2.7426
2.667
2.59671
2.52893
2.45879
2.38325
2.3008
2.21085
2.1132
2.00766
1.89374
1.77063
1.63707
1.49157
1.33283
1.16012
0.973387
0.773146
0.560598
0.338369
0.1127
3.73568
3.6622
3.56874
3.45263
3.32936
3.20654
3.08936
2.98075
2.88168
2.79166
2.70859
2.63087
2.55637
2.48083
2.40133
2.31615
2.22445
2.12576
2.01961
1.90528
1.78169
1.64744
1.50101
1.34109
1.16691
0.978151
0.774658
0.557152
0.331231
0.109619
3.8918
3.80152
3.69071
3.56007
3.42482
3.29249
3.16737
3.05144
2.94495
2.84663
2.75526
2.66996
2.58822
2.50659
2.42237
2.33381
2.23985
2.13977
2.03282
1.91797
1.79386
1.6589
1.51145
1.35021
1.17437
0.983316
0.776075
0.553119
0.323699
0.106466
4.06703
3.95403
3.81857
3.66907
3.52034
3.37842
3.24579
3.12304
3.00919
2.90306
2.80427
2.71159
2.62271
2.53492
2.4458
2.35357
2.25705
2.15537
2.0475
1.93208
1.80742
1.67168
1.52312
1.36043
1.18278
0.989171
0.777724
0.548878
0.315945
0.103349
4.22829
4.08639
3.92526
3.7608
3.60259
3.45464
3.31715
3.18928
3.07016
2.95859
2.85345
2.75385
2.65834
2.56482
2.47103
2.37515
2.27598
2.17258
2.06374
1.94776
1.82255
1.68598
1.53622
1.37198
1.19244
0.996186
0.780403
0.545582
0.309
0.100491
4.3556
4.18096
3.99391
3.81902
3.65982
3.51348
3.37686
3.24827
3.12686
3.01142
2.90085
2.79502
2.69365
2.59525
2.49744
2.39819
2.29635
2.19117
2.08138
1.96492
1.83923
1.70182
1.55078
1.38496
1.20357
1.00477
0.784782
0.54416
0.303767
0.0981522
4.4039
4.1823
3.9891
3.82515
3.68077
3.54813
3.42035
3.29591
3.176
3.05946
2.94481
2.83333
2.72697
2.62502
2.52437
2.42227
2.31779
2.21076
2.10017
1.98354
1.85758
1.71938
1.56702
1.3996
1.21648
1.01537
0.791476
0.545278
0.300718
0.0965128
4.22917
3.95832
3.82761
3.74093
3.64727
3.55139
3.44513
3.32978
3.21555
3.10182
2.98447
2.86706
2.7563
2.65284
2.55132
2.44713
2.33987
2.23085
2.11977
2.00357
1.87784
1.73899
1.58523
1.41619
1.23151
1.02847
0.801153
0.549565
0.300161
0.0956813
3.46114
3.2438
3.40137
3.57164
3.56377
3.52637
3.45698
3.34957
3.24397
3.1396
3.02089
2.89476
2.77905
2.6773
2.57826
2.47285
2.36214
2.25066
2.13963
2.02504
1.90042
1.76112
1.60581
1.43503
1.24898
1.04456
0.81449
0.557636
0.302331
0.0957701
142.904
142.969
143.137
143.416
143.785
144.223
144.722
145.275
145.87
146.498
147.143
147.79
148.422
149.019
149.558
150.013
150.351
150.536
150.522
150.254
149.658
148.641
147.068
144.748
141.385
136.489
129.151
117.489
95.4159
35.9284
142.192
142.247
142.392
142.636
142.959
143.34
143.771
144.243
144.746
145.267
145.792
146.304
146.785
147.213
147.564
147.808
147.91
147.828
147.511
146.895
145.894
144.396
142.242
139.203
134.921
128.815
119.849
106.29
86.7333
58.3416
141.438
141.483
141.604
141.813
142.088
142.41
142.77
143.16
143.568
143.98
144.383
144.758
145.086
145.344
145.506
145.539
145.407
145.063
144.452
143.504
142.127
140.2
137.56
133.975
129.12
122.539
113.634
101.767
87.4878
70.7595
140.644
140.679
140.775
140.947
141.173
141.436
141.724
142.03
142.341
142.644
142.924
143.162
143.337
143.426
143.401
143.229
142.869
142.276
141.39
140.14
138.433
136.153
133.147
129.218
124.118
117.554
109.228
98.8061
86.2378
71.0709
139.812
139.835
139.907
140.041
140.218
140.42
140.636
140.857
141.072
141.266
141.423
141.525
141.55
141.474
141.268
140.898
140.324
139.499
138.365
136.851
134.872
132.321
129.068
124.958
119.809
113.422
105.598
96.0958
84.7585
71.7958
138.943
138.955
139.002
139.098
139.226
139.366
139.51
139.647
139.765
139.851
139.888
139.857
139.736
139.501
139.123
138.568
137.797
136.764
135.413
133.68
131.487
128.743
125.344
121.169
116.089
109.971
102.692
94.1546
84.3557
73.7064
138.04
138.041
138.063
138.121
138.199
138.279
138.351
138.405
138.429
138.409
138.329
138.169
137.909
137.524
136.985
136.26
135.311
134.095
132.562
130.654
128.304
125.438
121.974
117.826
112.906
107.136
100.462
92.8756
84.4213
75.4347
137.106
137.097
137.093
137.114
137.143
137.164
137.165
137.137
137.069
136.947
136.754
136.473
136.081
135.555
134.869
133.991
132.887
131.516
129.835
127.794
125.339
122.411
118.949
114.894
110.193
104.807
98.7228
91.9605
84.5717
76.8292
136.145
136.125
136.097
136.081
136.062
136.024
135.957
135.85
135.694
135.474
135.174
134.778
134.264
133.61
132.791
131.778
130.541
129.043
127.248
125.114
122.598
119.656
116.246
112.329
107.877
102.876
97.3314
91.2784
84.771
78.0378
135.161
135.131
135.079
135.026
134.961
134.867
134.733
134.551
134.31
133.998
133.598
133.095
132.469
131.7
130.764
129.635
128.287
126.69
124.811
122.618
120.079
117.161
113.838
110.085
105.893
101.261
96.2069
90.7711
85.0062
79.0983
134.158
134.117
134.042
133.955
133.846
133.697
133.5
133.246
132.926
132.528
132.036
131.435
130.708
129.836
128.799
127.574
126.137
124.464
122.529
120.307
117.774
114.909
111.695
108.121
104.187
99.9014
95.2886
90.3877
85.2467
80.0146
133.14
133.091
132.994
132.873
132.721
132.521
132.264
131.944
131.55
131.071
130.495
129.806
128.99
128.03
126.907
125.602
124.097
122.37
120.402
118.175
115.672
112.879
109.789
106.399
102.713
98.7478
94.5275
90.0885
85.4726
80.7998
132.114
132.056
131.938
131.786
131.594
131.346
131.033
130.65
130.188
129.637
128.985
128.218
127.325
126.289
125.095
123.728
122.172
120.411
118.43
116.217
113.76
111.053
108.094
104.884
101.434
97.76
93.8868
89.8466
85.6753
81.4695
131.085
131.018
130.881
130.7
130.47
130.177
129.813
129.373
128.849
128.233
127.513
126.679
125.718
124.619
123.369
121.955
120.364
118.585
116.607
114.422
112.024
109.411
106.584
103.549
100.317
96.9064
93.3393
89.6439
85.8506
82.0377
130.059
129.984
129.829
129.621
129.356
129.021
128.611
128.119
127.54
126.866
126.087
125.194
124.178
123.028
121.734
120.286
118.674
116.89
114.928
112.783
110.451
107.935
105.238
102.367
99.3369
96.1624
92.8646
89.4677
85.9972
82.5168
129.042
128.96
128.788
128.555
128.258
127.887
127.434
126.896
126.268
125.543
124.713
123.771
122.71
121.519
120.192
118.722
117.101
115.324
113.387
111.288
109.027
106.608
104.036
101.32
98.4723
95.5088
92.4476
89.3094
86.1155
82.9181
128.04
127.952
127.765
127.509
127.184
126.779
126.288
125.71
125.039
124.27
123.398
122.415
121.317
120.096
118.747
117.263
115.642
113.88
111.975
109.928
107.739
105.415
102.962
100.388
97.7063
94.9306
92.077
89.1632
86.2072
83.2516
127.061
126.967
126.767
126.491
126.14
125.705
125.181
124.567
123.859
123.054
122.146
121.131
120.004
118.761
117.398
115.91
114.297
112.556
110.687
108.693
106.577
104.344
102.001
99.5578
97.0253
94.4162
91.7445
89.0256
86.2745
83.5263
126.112
126.013
125.801
125.507
125.133
124.672
124.12
123.475
122.736
121.9
120.963
119.923
118.775
117.517
116.146
114.661
113.061
111.345
109.516
107.576
105.53
103.383
101.142
98.8174
96.4184
93.9566
91.4443
88.8946
86.3202
83.7503
125.199
125.096
124.873
124.564
124.171
123.687
123.11
122.439
121.674
120.813
119.854
118.794
117.631
116.364
114.992
113.514
111.931
110.244
108.455
106.569
104.589
102.522
100.375
98.1574
95.8773
93.5453
91.1722
88.7693
86.3475
83.9309
124.331
124.224
123.993
123.669
123.259
122.756
122.158
121.466
120.68
119.799
118.822
117.748
116.576
115.305
113.936
112.469
110.906
109.248
107.5
105.664
103.747
101.754
99.6926
97.5701
95.3953
93.1772
90.9255
88.6497
86.3595
84.0746
123.515
123.405
123.166
122.831
122.406
121.887
121.272
120.562
119.759
118.863
117.872
116.789
115.611
114.341
112.978
111.524
109.983
108.355
106.645
104.858
102.999
101.073
99.0875
97.0499
94.9677
92.8491
90.7026
88.5367
86.3595
84.1877
122.76
122.647
122.401
122.056
121.619
121.086
120.457
119.733
118.916
118.008
117.009
115.919
114.739
113.472
112.118
110.679
109.159
107.56
105.887
104.145
102.338
100.473
98.5551
96.5921
94.5907
92.5585
90.5027
88.431
86.3505
84.2752
122.072
121.957
121.705
121.351
120.904
120.36
119.719
118.984
118.157
117.241
116.235
115.142
113.963
112.701
111.356
109.933
108.434
106.863
105.224
103.522
101.763
99.9507
98.0925
96.1943
94.2628
92.3046
90.3264
88.335
86.3367
84.3431
121.462
121.344
121.087
120.725
120.269
119.716
119.066
118.322
117.488
116.565
115.555
114.461
113.285
112.028
110.694
109.286
107.807
106.261
104.653
102.987
101.269
99.5031
97.696
95.8534
93.9812
92.0857
90.1729
88.2488
86.3193
84.3938
120.937
120.817
120.554
120.185
119.722
119.161
118.504
117.754
116.914
115.987
114.976
113.882
112.709
111.459
110.135
108.741
107.28
105.757
104.176
102.541
100.858
99.1313
97.3673
95.5712
93.7486
91.9052
90.0465
88.1782
86.3056
84.4366
120.508
120.384
120.115
119.738
119.268
118.701
118.038
117.282
116.439
115.509
114.497
113.405
112.235
110.992
109.677
108.296
106.851
105.346
103.788
102.178
100.524
98.8302
97.1012
95.3426
93.5597
91.7578
89.9423
88.1181
86.2901
84.4649
120.188
120.056
119.778
119.395
118.92
118.348
117.681
116.922
116.076
115.145
114.133
113.042
111.876
110.638
109.332
107.96
106.528
105.039
103.498
101.91
100.279
98.6097
96.9081
95.1787
93.4267
91.6572
89.8751
88.0852
86.2924
84.5022
119.992
119.834
119.538
119.149
118.672
118.098
117.428
116.667
115.82
114.889
113.877
112.789
111.626
110.392
109.092
107.728
106.305
104.827
103.299
101.724
100.108
98.4566
96.7732
95.0632
93.3316
91.5832
89.8229
88.055
86.2843
84.5151
119.964
119.754
119.432
119.036
118.554
117.977
117.304
116.541
115.693
114.762
113.751
112.664
111.504
110.274
108.978
107.62
106.203
104.733
103.213
101.648
100.043
98.4019
96.7302
95.0327
93.3139
91.5788
89.8318
88.0777
86.3205
84.5643
-46.6161
-26.7204
-8.42113
38.5689
31.1754
18.9726
53.1384
41.13
30.1239
54.8165
44.554
36.636
59.2847
51.1167
44.439
63.6781
56.8517
51.0177
66.9598
61.1385
56.1282
69.5701
64.5882
60.304
71.7701
67.4681
63.7753
73.6263
69.8692
66.6526
75.187
71.8721
69.0419
76.5016
73.55
71.0355
77.6106
74.9602
72.7062
78.5465
76.1481
74.1108
79.3358
77.1502
75.295
80.0008
77.9959
76.295
80.5596
78.7095
77.1398
81.0278
79.3106
77.8531
81.4184
79.8157
78.4545
81.7427
80.2388
78.9604
82.0103
80.5917
79.3843
82.2301
80.8849
79.7383
82.4087
81.1265
80.0319
82.5546
81.3259
80.2752
82.6701
81.4864
80.4726
82.7673
81.6208
80.6369
82.8374
81.7205
80.7612
82.9095
81.8153
80.8731
82.9427
81.8646
80.9364
83.0133
81.9492
81.0272
0.595897
1.18874
2.61035
3.53224
3.44703
3.45459
3.47832
3.3627
3.26236
3.17947
3.06026
2.91527
2.79091
2.69674
2.60669
2.50085
2.38462
2.26949
2.15946
2.04861
1.92664
1.7871
1.62974
1.45686
1.26956
1.06443
0.832461
0.570401
0.307616
0.0969548
5.84825
3.31967
4.53583
4.02907
2.91003
3.27135
3.68997
3.40474
3.24204
3.21634
3.11168
2.9247
2.78315
2.70937
2.64224
2.535
2.40733
2.28558
2.17825
2.07518
1.95854
1.81873
1.65821
1.48245
1.29397
1.08899
0.856417
0.589588
0.317216
0.0994788
16.3445
8.52185
5.80617
3.83778
3.62197
4.63133
4.32867
3.11983
2.95251
3.29671
3.27427
2.9464
2.73881
2.70243
2.69135
2.57726
2.42588
2.2934
2.19306
2.10568
1.99901
1.85804
1.69195
1.51188
1.32227
1.11859
0.887403
0.617281
0.333102
0.103739
25.9554
16.4615
10.939
7.48621
5.75317
4.99063
3.85608
3.238
3.61353
4.02214
3.55311
2.75048
2.46713
2.63328
2.80587
2.65691
2.44737
2.29231
2.20333
2.14379
2.05377
1.90758
1.73108
1.54473
1.3545
1.15392
0.926581
0.655883
0.358276
0.110403
35.0871
25.5368
18.4674
13.3436
9.77609
7.36042
5.59591
4.55408
4.16691
3.847
3.32723
2.78885
2.64202
3.02151
3.1056
2.70489
2.3759
2.2146
2.17664
2.18774
2.13259
1.9713
1.7763
1.58133
1.39145
1.19563
0.973626
0.706265
0.398129
0.120386
42.9932
34.1776
26.4416
20.1336
15.3021
11.7295
9.08683
7.16947
5.8454
4.86821
4.06065
3.40316
3.05598
3.05033
2.93027
2.68929
2.46538
2.34538
2.3278
2.35618
2.2626
2.03589
1.80994
1.60894
1.42645
1.24129
1.02802
0.771736
0.467518
0.135016
49.4583
41.7056
34.018
27.2094
21.6488
17.2309
13.7241
10.9643
8.84773
7.22358
5.92854
4.89628
4.17225
3.73466
3.38417
3.0463
2.74369
2.54067
2.44479
2.39762
2.28623
2.1003
1.89554
1.70004
1.51587
1.32575
1.10851
0.857306
0.563299
0.156698
54.7413
48.0338
40.8189
34.027
28.1734
23.2472
19.1159
15.6888
12.8961
10.6345
8.78785
7.29065
6.13186
5.27236
4.59607
4.01508
3.52392
3.15402
2.90109
2.71127
2.5103
2.27561
2.03132
1.80163
1.59063
1.38421
1.16153
0.904086
0.619595
0.0943672
59.0579
53.2512
46.6809
40.2146
34.3997
29.2876
24.812
20.9344
17.6236
14.8242
12.4669
10.4986
8.88715
7.58928
6.52767
5.63411
4.8863
4.28488
3.81353
3.42757
3.07306
2.72367
2.38674
2.07631
1.79339
1.52446
1.24839
0.940808
0.576701
-0.142427
62.5835
57.5198
51.616
45.6206
40.0529
34.9917
30.4069
26.2924
22.6498
19.4613
16.6924
14.3074
12.2754
10.5596
9.10848
7.8721
6.82064
5.93766
5.20092
4.57405
4.01592
3.50043
3.02284
2.58593
2.18574
1.80763
1.42835
1.01443
0.508256
-0.375788
65.4808
61.0222
55.7338
50.246
45.026
40.1591
35.6315
31.4542
27.6485
24.2208
21.1607
18.4502
16.0688
13.991
12.183
10.6092
9.24082
8.0562
7.03204
6.13826
5.34229
4.61939
3.95746
3.35074
2.79048
2.26006
1.73363
1.17162
0.509956
-0.478993
67.881
63.9167
59.167
54.1643
49.3214
44.7189
40.3493
36.2293
32.3893
28.8486
25.6126
22.6771
20.033
17.666
15.5556
13.6779
12.01
10.5314
9.22084
8.05355
7.00324
6.04743
5.17067
4.36186
3.60854
2.89243
2.18688
1.45313
0.637587
-0.426271
69.8833
66.326
62.0378
57.4735
52.9972
48.6815
44.5196
40.5284
36.74
33.1801
29.8623
26.7919
23.9688
21.3878
19.0383
16.9061
14.9753
13.2293
11.6508
10.2199
8.91549
7.7181
6.61156
5.58222
4.61551
3.69275
2.78885
1.87057
0.899284
-0.239572
71.5624
68.3438
64.4483
60.27
56.1319
52.098
48.1604
44.3334
40.6476
37.1302
33.7988
30.6644
27.7325
25.0046
22.4774
20.1441
17.9948
16.0182
14.201
12.5281
10.9831
9.54945
8.21208
6.95681
5.76868
4.62984
3.51834
2.40787
1.27298
0.0406297
72.976
70.0417
66.4807
62.6385
58.804
55.0337
51.3179
47.6674
44.1099
40.6717
37.3719
34.2237
31.2366
28.416
25.7639
23.2786
20.9553
18.7871
16.7651
14.8782
13.114
11.4591
9.90021
8.42405
7.01641
5.66119
4.33992
3.0326
1.72304
0.370064
74.1693
71.4751
68.1998
64.6492
61.0837
57.5536
54.0474
50.5724
47.1528
43.8131
40.572
37.4436
34.4392
31.5668
28.8316
26.2355
23.7776
21.4546
19.2611
17.1897
15.2312
13.3752
11.6106
9.92549
8.30717
6.74155
5.2133
3.70708
2.21198
0.710012
75.1779
72.6874
69.6568
66.3589
63.0303
59.716
56.4029
53.0952
49.8138
46.5805
43.4131
40.3255
37.3295
34.4346
31.6479
28.9737
26.4138
23.9677
21.633
19.4051
17.2775
15.2423
13.2906
11.4123
9.59616
7.83004
6.10099
4.39655
2.7079
1.03259
76.0306
73.7134
70.8929
67.8142
64.6934
61.571
58.4332
55.2813
52.1327
49.007
45.9201
42.8855
39.9148
37.0179
34.2029
31.4757
28.84
26.2973
23.8473
21.4878
19.2145
17.0217
14.9023
12.8478
10.8486
8.89405
6.97276
5.07367
3.18784
1.32201
76.7508
74.5815
71.9416
69.0527
66.1136
63.1612
60.1808
57.1714
54.1476
51.1262
48.1218
45.1465
42.2114
39.3264
36.5
33.7389
31.0479
28.4301
25.8867
23.4173
21.0193
18.6889
16.4204
14.2069
12.04
9.91018
7.80695
5.71959
3.6378
1.57272
77.3581
75.3148
72.8302
70.1058
67.3252
64.5224
61.6821
58.8016
55.8927
52.9701
50.0465
47.1328
44.2393
41.3753
38.5495
35.7687
33.0385
30.363
27.7446
25.1838
22.6798
20.2299
17.8299
15.4738
13.1545
10.8631
8.58957
6.32291
4.05102
1.78612
77.8686
75.9328
73.5815
70.9992
68.3564
65.6845
62.9682
60.203
57.3985
54.5675
51.7208
48.8682
46.0188
43.1816
40.3645
37.5746
34.8178
32.0986
29.4202
26.784
24.1903
21.6373
19.1219
16.639
14.1823
11.7433
9.3122
6.87744
4.42519
1.96687
78.2963
76.4518
74.2148
71.7549
69.2312
66.6733
64.0656
61.4026
58.6918
55.9441
53.169
50.3749
47.57
44.7623
41.9594
39.1681
36.3942
33.6425
30.9166
28.2187
25.5495
22.9082
20.2923
17.6975
15.1179
12.5456
9.97054
7.38067
4.76078
2.12047
78.6524
76.8853
74.7457
72.3905
69.9692
67.5097
64.9965
62.4229
59.795
57.122
54.4122
51.6726
48.9106
46.1333
43.3476
40.56
37.7762
35.0009
32.2379
29.4897
26.7576
24.0412
21.3385
18.646
15.9578
13.2664
10.5616
7.83096
5.05826
2.25083
78.9481
77.2458
75.1886
72.9224
70.5883
68.2129
65.7808
63.2846
60.729
58.1218
55.4702
52.7802
50.0581
47.3103
44.5432
41.7626
38.9739
36.1819
33.3902
30.6016
27.8175
25.038
22.2614
19.4844
16.7016
13.9053
11.0856
8.22943
5.32005
2.36208
79.1895
77.5412
75.5528
73.361
71.1001
68.7954
66.4319
64.0016
61.5078
58.9574
56.3565
53.7103
51.0242
48.3039
45.5551
42.7831
39.9932
37.1895
34.376
31.5552
28.7287
25.8968
23.058
20.2093
17.3453
14.4586
11.5389
8.57312
5.54418
2.45399
79.3888
77.7841
75.8522
73.7218
71.521
69.2747
66.968
64.5923
62.1502
59.6475
57.0896
54.481
51.8262
49.1304
46.3985
43.6357
40.8465
38.0352
35.2052
32.3593
29.4989
26.6243
23.7344
20.8261
17.8941
14.9311
11.9267
8.86763
5.73656
2.53196
79.5424
77.9723
76.085
74.0032
71.8503
69.6504
67.3889
65.057
62.6564
60.1923
57.6693
55.0914
52.4625
49.7872
47.07
44.3156
41.5282
38.7118
35.8697
33.0045
30.1177
27.2096
24.2789
21.3227
18.3359
15.3109
12.2373
9.10174
5.88695
2.58878
79.6733
78.1286
76.2753
74.2304
72.1136
69.9489
67.7217
65.4231
63.0541
60.6195
58.1233
55.569
52.9603
50.301
47.5956
44.8481
42.0627
39.243
36.3922
33.5128
30.6062
27.6727
24.7111
21.7183
18.6892
15.6163
12.4889
9.29351
6.01256
2.63768
79.7536
78.2249
76.3938
74.3739
72.2816
70.1403
67.9361
65.6597
63.3119
60.8971
58.4189
55.8806
53.2855
50.6372
47.9398
45.1972
42.4133
39.5916
36.7353
33.8465
30.9268
27.9763
24.9939
21.9764
18.9186
15.813
12.6487
9.4116
6.08428
2.65636
79.8437
78.316
76.4972
74.4924
72.4138
70.2852
68.0932
65.8286
63.4919
61.0873
58.6182
56.0878
53.4992
50.8559
48.1619
45.4209
42.6368
39.813
36.9526
34.0577
31.1299
28.1694
25.1749
22.1432
19.0691
15.945
12.7598
9.49821
6.14015
2.66292
)
;

boundaryField
{
    inlet
    {
        type            zeroGradient;
    }
    outlet
    {
        type            fixedValue;
        value           uniform 0;
    }
    flap
    {
        type            zeroGradient;
    }
    upperWall
    {
        type            zeroGradient;
    }
    lowerWall
    {
        type            zeroGradient;
    }
    frontAndBack
    {
        type            empty;
    }
}


// ************************************************************************* //
