/*--------------------------------*- C++ -*----------------------------------*\
| =========                 |                                                 |
| \\      /  F ield         | OpenFOAM: The Open Source CFD Toolbox           |
|  \\    /   O peration     | Version:  dev                                   |
|   \\  /    A nd           | Web:      www.OpenFOAM.org                      |
|    \\/     M anipulation  |                                                 |
\*---------------------------------------------------------------------------*/
FoamFile
{
    version     2.0;
    format      ascii;
    class       volScalarField;
    location    "1.4";
    object      p;
}
// * * * * * * * * * * * * * * * * * * * * * * * * * * * * * * * * * * * * * //

dimensions      [0 2 -2 0 0 0 0];

internalField   nonuniform List<scalar> 
2790
(
90.457
90.3067
90.4488
90.8264
91.3465
91.9772
92.7163
93.5645
94.5203
95.5823
96.7502
98.0248
99.4071
100.898
102.498
104.207
106.021
107.937
109.945
112.035
114.19
116.385
118.591
120.769
122.87
124.837
126.604
128.097
129.237
129.91
90.3035
90.2479
90.4101
90.7857
91.3036
91.9328
92.6695
93.5139
94.4649
95.5211
96.6822
97.9489
99.3222
100.803
102.391
104.087
105.887
107.788
109.781
111.854
113.993
116.175
118.371
120.543
122.646
124.623
126.411
127.938
129.131
129.958
90.1602
90.1779
90.3578
90.7254
91.2344
91.8559
92.5834
93.4164
94.3538
95.3941
96.5367
97.7818
99.1299
100.581
102.136
103.793
105.548
107.397
109.332
111.341
113.408
115.512
117.625
119.711
121.725
123.616
125.319
126.759
127.833
128.286
90.0144
90.0704
90.2638
90.6247
91.1241
91.7357
92.4515
93.27
94.1896
95.2088
96.3265
97.5424
98.8563
100.268
101.776
103.378
105.07
106.845
108.695
110.607
112.564
114.542
116.514
118.442
120.279
121.965
123.421
124.526
125.122
124.278
89.8571
89.9334
90.1386
90.4955
90.9847
91.584
92.2847
93.0843
93.9811
94.9732
96.0591
97.2377
98.5081
99.8688
101.318
102.851
104.464
106.147
107.891
109.68
111.495
113.311
115.096
116.807
118.389
119.764
120.82
121.349
121.246
118.5
89.6842
89.7715
89.9843
90.3367
90.8138
91.3976
92.0793
92.856
93.7254
94.6852
95.7331
96.8676
98.0867
99.3879
100.768
102.221
103.741
105.317
106.937
108.583
110.232
111.856
113.416
114.862
116.123
117.098
117.64
117.429
116.598
111.853
89.4935
89.5865
89.8025
90.149
90.6125
91.1783
91.8381
92.5883
93.4261
94.3486
95.3531
96.4371
97.5977
98.8312
100.133
101.496
102.912
104.368
105.849
107.334
108.798
110.204
111.509
112.651
113.542
114.058
114.022
112.985
111.509
105.017
89.2839
89.3794
89.5953
89.9338
90.3823
90.9277
91.5626
92.2828
93.085
93.9657
94.9215
95.9492
97.0446
98.203
99.4182
100.682
101.983
103.308
104.638
105.948
107.209
108.38
109.406
110.214
110.703
110.721
110.086
108.193
106.178
98.3227
89.0553
89.1512
89.364
89.6926
90.1242
90.6471
91.2543
91.9414
92.7043
93.539
94.4415
95.4075
96.432
97.5089
98.6305
99.7871
100.966
102.149
103.317
104.441
105.485
106.404
107.133
107.589
107.654
107.153
105.915
103.17
100.691
91.8134
88.8079
88.9028
89.1101
89.4269
89.84
90.3383
90.9152
91.5661
92.2865
93.0716
93.9167
94.8165
95.765
96.7547
97.7767
98.8194
99.8677
100.903
101.9
102.827
103.645
104.299
104.719
104.808
104.434
103.402
101.563
97.9783
95.0366
85.3325
88.5421
88.6349
88.8351
89.1382
89.5311
90.0029
90.5473
91.1595
91.8344
92.5667
93.3507
94.1803
95.0485
95.9465
96.8638
97.7871
98.6995
99.5793
100.399
101.123
101.706
102.088
102.189
101.901
101.08
99.5041
97.0527
92.6274
89.1284
78.5704
88.2588
88.3488
88.5402
88.8282
89.1992
89.6428
90.1528
90.7239
91.3508
92.0274
92.7473
93.5035
94.2879
95.0904
95.8991
96.699
97.4712
98.1916
98.8294
99.3455
99.689
99.7939
99.5711
98.9005
97.6237
95.4908
92.3958
87.1003
82.8151
71.0788
87.9589
88.0455
88.227
88.4982
88.846
89.2599
89.7336
90.2618
90.8385
91.4571
92.1105
92.7908
93.4886
94.1929
94.8902
95.5641
96.1934
96.7517
97.2053
97.5113
97.6139
97.4406
96.8931
95.8386
94.1013
91.3978
87.6102
81.3792
75.9138
62.2714
87.6435
87.7262
87.8967
88.1501
88.4733
88.8562
89.2922
89.7758
90.3006
90.8595
91.4444
92.0468
92.6563
93.2604
93.8448
94.3911
94.8763
95.272
95.5417
95.6385
95.5023
95.0539
94.1863
92.7532
90.5588
87.283
82.7522
75.5043
68.2982
51.3993
87.3138
87.3922
87.551
87.7854
88.0831
88.4339
88.831
89.2687
89.7404
90.2381
90.7534
91.2767
91.7967
92.3001
92.7711
93.1898
93.5317
93.7664
93.8548
93.747
93.3784
92.6641
91.4887
89.6933
87.0638
83.2458
77.97
69.6999
60.1984
37.3336
1.21864
1.22431
1.19545
1.12859
1.01587
0.853358
0.656557
0.448318
0.246292
0.0629272
-0.0929312
-0.213644
-0.292099
-0.323797
-0.307148
-0.242115
-0.13068
0.021564
0.207371
0.418554
0.644534
0.872201
1.08802
1.27857
1.42888
1.52075
1.53011
1.42295
1.14856
0.64036
1.18076
1.17969
1.14457
1.0762
0.961727
0.798601
0.603524
0.398478
0.200238
0.020899
-0.1311
-0.248283
-0.323568
-0.352386
-0.332784
-0.264449
-0.148797
0.0086379
0.200637
0.418858
0.65129
0.883165
1.10097
1.29243
1.44308
1.53464
1.54324
1.43531
1.15834
0.634473
1.12693
1.1218
1.0756
1.00192
0.88416
0.722696
0.534472
0.338975
0.150959
-0.018885
-0.162763
-0.272819
-0.34186
-0.365165
-0.340531
-0.268194
-0.148706
0.0107429
0.199994
0.41381
0.644576
0.876591
1.0935
1.28222
1.42804
1.51338
1.51559
1.40339
1.12439
0.587485
1.05893
1.05293
0.992657
0.912504
0.793486
0.63906
0.464502
0.285401
0.113709
-0.0417552
-0.174347
-0.275613
-0.337966
-0.356859
-0.329183
-0.258787
-0.149541
0.000771844
0.186075
0.396247
0.620804
0.844392
1.05235
1.23158
1.36714
1.44079
1.43047
1.31035
1.03081
0.495244
0.978127
0.975976
0.902691
0.819285
0.705076
0.564844
0.410264
0.252293
0.100187
-0.0382631
-0.158008
-0.252403
-0.311564
-0.334006
-0.318519
-0.258839
-0.157349
-0.0179307
0.154821
0.353375
0.565228
0.775885
0.972345
1.13988
1.26322
1.3244
1.30139
1.17167
0.893718
0.381751
0.887117
0.894695
0.813305
0.73276
0.63084
0.511941
0.381524
0.246438
0.113382
-0.0109948
-0.120677
-0.21134
-0.27843
-0.312524
-0.307876
-0.264021
-0.180768
-0.0602721
0.0934257
0.273416
0.467331
0.662483
0.846458
1.00301
1.11596
1.16801
1.13987
1.00693
0.733911
0.27522
0.78969
0.812952
0.730809
0.661613
0.578097
0.48311
0.377413
0.26465
0.14887
0.0353476
-0.0727978
-0.169252
-0.244454
-0.292414
-0.307508
-0.28678
-0.228547
-0.133198
-0.00371768
0.15262
0.326032
0.50619
0.678694
0.826578
0.932915
0.981064
0.953599
0.826873
0.569757
0.190586
0.689217
0.733296
0.657788
0.60603
0.54518
0.47465
0.392167
0.299223
0.19712
0.0875108
-0.0219716
-0.124961
-0.214715
-0.283677
-0.325077
-0.333697
-0.305967
-0.240692
-0.139667
-0.00869552
0.145261
0.312673
0.477636
0.622382
0.729198
0.781521
0.762104
0.647241
0.41789
0.126516
0.58616
0.65192
0.590363
0.559857
0.524074
0.478688
0.41944
0.342816
0.250888
0.145843
0.0313859
-0.0851559
-0.195869
-0.292118
-0.365475
-0.408475
-0.415428
-0.383494
-0.31302
-0.206787
-0.0692832
0.0895862
0.25316
0.402635
0.519182
0.585355
0.582448
0.486576
0.291945
0.0783104
0.476957
0.55713
0.518034
0.514286
0.509228
0.49119
0.454932
0.396541
0.313141
0.206546
0.0814783
-0.054343
-0.191763
-0.320692
-0.430738
-0.512027
-0.556515
-0.559451
-0.519424
-0.435695
-0.310445
-0.154238
0.0156744
0.179182
0.315708
0.405689
0.427586
0.35683
0.197667
0.0445047
0.349758
0.430939
0.431586
0.467852
0.499535
0.514095
0.502545
0.459245
0.380694
0.267939
0.126719
-0.0339051
-0.203235
-0.369473
-0.520043
-0.642466
-0.726075
-0.763867
-0.752476
-0.6878
-0.569779
-0.40944
-0.224683
-0.0373157
0.129508
0.252811
0.306966
0.265325
0.137345
0.0245245
0.177699
0.267943
0.330421
0.422802
0.498358
0.547157
0.561827
0.533593
0.456605
0.332288
0.168841
-0.0221942
-0.228266
-0.43581
-0.629933
-0.795321
-0.918416
-0.989703
-1.00379
-0.953861
-0.837734
-0.666282
-0.458236
-0.237543
-0.0308212
0.134319
0.226954
0.216319
0.112041
0.0180975
-0.0984646
0.0571219
0.218397
0.379393
0.505871
0.596792
0.64303
0.630015
0.549322
0.405585
0.212388
-0.0150245
-0.262396
-0.514718
-0.754669
-0.9638
-1.12547
-1.22759
-1.2628
-1.22275
-1.10336
-0.914311
-0.675404
-0.413109
-0.158342
0.0556514
0.191567
0.212175
0.122464
0.0252156
-0.559657
-0.219535
0.106106
0.350221
0.53809
0.682455
0.767321
0.767349
0.672341
0.496411
0.263549
-0.00655309
-0.299393
-0.599496
-0.886805
-1.13912
-1.33676
-1.4655
-1.51624
-1.48079
-1.35346
-1.1413
-0.865593
-0.555478
-0.246697
0.021146
0.203394
0.254219
0.169606
0.0463798
-1.67449
-0.432573
0.0620764
0.36865
0.623242
0.83613
0.967604
0.971861
0.840991
0.612414
0.327715
0.00918771
-0.332512
-0.683184
-1.0189
-1.31227
-1.54084
-1.68946
-1.74796
-1.71032
-1.57
-1.33076
-1.01558
-0.655172
-0.28937
0.0345363
0.264049
0.343348
0.255379
0.0829215
86.9644
87.0382
87.1843
87.3985
87.6693
87.9865
88.343
88.733
89.1496
89.5843
90.0278
90.47
90.8986
91.2994
91.6552
91.9452
92.1433
92.2173
92.1258
91.8163
91.2212
90.2509
88.7834
86.6521
83.6317
79.3494
73.4438
64.3982
52.6481
17.6359
86.5912
86.6601
86.7926
86.9852
87.2275
87.5094
87.8234
88.1636
88.523
88.8922
89.2616
89.6203
89.9553
90.2517
90.491
90.6514
90.706
90.6206
90.3526
89.8479
89.0372
87.8287
86.0988
83.6829
80.3617
75.7864
69.6131
60.6819
50.0699
40.7047
86.1969
86.2606
86.3788
86.5488
86.7614
87.0065
87.2764
87.5654
87.866
88.1683
88.4621
88.7361
88.9768
89.1683
89.2914
89.3237
89.2372
88.9972
88.5604
87.8722
86.8639
85.4455
83.4983
80.8739
77.3842
72.7663
66.8643
59.3332
51.3924
47.121
85.7823
85.8405
85.9438
86.0902
86.272
86.4793
86.7039
86.9405
87.1813
87.4156
87.633
87.8221
87.9686
88.0561
88.0649
87.9721
87.7495
87.3622
86.7678
85.9125
84.731
83.1388
81.0303
78.2858
74.7655
70.3128
64.9082
58.4926
51.2062
44.339
85.3482
85.4006
85.4885
85.6106
85.7609
85.9294
86.1077
86.2911
86.4714
86.6373
86.7785
86.8831
86.9365
86.922
86.8198
86.6069
86.2552
85.7311
84.9936
83.9917
82.6658
80.9412
78.7313
75.9484
72.499
68.2993
63.3503
57.625
51.0517
44.5228
84.8956
84.9421
85.0142
85.1114
85.2294
85.3585
85.4903
85.62
85.7394
85.8372
85.9028
85.9242
85.8867
85.7735
85.565
85.2385
84.7668
84.1186
83.2552
82.1296
80.6905
78.8756
76.619
73.8606
70.542
66.6208
62.1044
57.019
51.4045
45.848
84.4259
84.4663
84.5224
84.5942
84.6794
84.7689
84.8541
84.93
84.9888
85.0192
85.0107
84.9509
84.8256
84.6182
84.3093
83.8772
83.2964
82.5385
81.5677
80.3424
78.8213
76.9551
74.6961
72.0059
68.8512
65.216
61.1192
56.6107
51.75
46.8605
83.9406
83.9748
84.0147
84.0609
84.1129
84.1628
84.2017
84.2244
84.2233
84.1877
84.107
83.969
83.7599
83.4638
83.0616
82.5329
81.8553
81.0031
79.9436
78.6427
77.0688
75.1843
72.9563
70.3625
67.3869
64.0293
60.3139
56.2883
52.0048
47.6762
83.4417
83.4693
83.4928
83.5135
83.5325
83.543
83.5363
83.5065
83.4469
83.3472
83.1969
82.9843
82.6965
82.3177
81.83
81.2152
80.4537
79.5225
78.3931
77.0395
75.438
73.5612
71.3878
68.9065
66.1128
63.0151
59.639
56.0275
52.2301
48.4038
82.9313
82.9517
82.9589
82.9545
82.9405
82.9125
82.8611
82.78
82.6637
82.5024
82.2858
82.0031
81.6416
81.1869
80.6225
79.9326
79.1002
78.1046
76.9235
75.5377
73.9294
72.0797
69.9764
67.6152
64.9991
62.1414
59.0675
55.8155
52.4302
49.0299
82.4116
82.4244
82.4153
82.3864
82.3399
82.274
82.1793
82.0488
81.878
81.6581
81.3793
81.031
80.6015
80.0781
79.4465
78.6926
77.8015
76.7561
75.5399
74.1388
72.5399
70.7313
68.7071
66.4681
64.0215
61.3832
58.577
55.6357
52.5976
49.5542
81.8846
81.8898
81.8649
81.8119
81.7336
81.6308
81.4943
81.3167
81.0942
80.8192
80.4824
80.0734
79.5822
78.998
78.3083
77.5008
76.5629
75.4815
74.2444
72.8416
71.2643
69.5063
67.5659
65.4472
63.1598
60.7202
58.1499
55.477
52.7332
49.9909
81.3531
81.351
81.3102
81.2336
81.1249
80.9865
80.8099
80.5877
80.3168
79.9904
79.5998
79.1357
78.5896
77.9524
77.2134
76.3621
75.3886
74.2831
73.0369
71.643
70.0965
68.3948
66.5396
64.5369
62.3974
60.1364
57.7736
55.333
52.8403
50.3535
80.8201
80.8108
80.7541
80.6545
80.5172
80.3446
80.1299
79.866
79.5498
79.176
78.7364
78.223
77.629
76.9464
76.1663
75.2804
74.2812
73.1615
71.9155
70.5388
69.0294
67.3874
65.6164
63.7237
61.7199
59.6193
57.4392
55.1999
52.9224
50.6532
80.2889
80.2721
80.1996
80.0778
79.9135
79.7089
79.4582
79.1555
78.7978
78.3805
77.8969
77.3403
76.7048
75.9839
75.1705
74.2584
73.2419
72.1162
70.8777
69.5244
68.0561
66.4749
64.7856
62.9958
61.1158
59.1587
57.1395
55.0751
52.9827
50.9
79.7633
79.7381
79.6496
79.5071
79.3176
79.083
78.7989
78.4604
78.0649
77.6085
77.0859
76.4917
75.8209
75.0683
74.2288
73.2977
72.271
71.1459
69.9206
68.5948
67.1698
65.6489
64.0375
62.3432
60.5757
58.7466
56.869
54.9568
53.0244
51.1023
79.2465
79.2122
79.1078
78.9457
78.7331
78.4709
78.156
77.7849
77.3553
76.8642
76.3074
75.6808
74.9804
74.2023
73.3429
72.399
71.3681
70.2488
69.0408
67.7452
66.3643
64.902
63.3639
61.7575
60.0917
58.3767
56.6235
54.8442
53.0504
51.2672
78.7418
78.6982
78.5782
78.3977
78.1637
77.8764
77.5336
77.1329
76.6729
76.1513
75.565
74.9109
74.1861
73.388
72.5142
71.5626
70.5322
69.4228
68.235
66.9709
65.6336
64.2275
62.7578
61.2317
59.6574
58.0437
56.4002
54.7368
53.0635
51.4008
78.2524
78.1995
78.0648
77.8672
77.6136
77.3035
76.9354
76.5083
76.0214
75.4733
74.8618
74.1848
73.4404
72.6271
71.7434
70.7886
69.7624
68.6657
67.4999
66.2676
64.9727
63.6194
62.2129
60.7599
59.2675
57.7437
56.1966
54.6347
53.0662
51.5081
77.7819
77.7203
77.5717
77.3581
77.0866
76.7559
76.3653
75.9149
75.4046
74.8337
74.2009
73.5052
72.7454
71.9209
71.0312
70.0764
69.0573
67.9752
66.8322
65.6314
64.3768
63.0728
61.7242
60.3371
58.918
57.4737
56.0114
54.5381
53.0609
51.5937
77.3343
77.2644
77.1028
76.8746
76.5868
76.2377
75.8272
75.3564
74.8259
74.2356
73.5852
72.8743
72.1027
71.2704
70.3779
69.4258
68.4156
67.3492
66.2291
65.0586
63.842
62.5834
61.2874
59.9595
58.6055
57.2314
55.8434
54.4475
53.0496
51.6614
76.9137
76.836
76.6624
76.4208
76.1182
75.7528
75.325
74.8364
74.2886
73.6821
73.0173
72.2944
71.514
70.6768
69.7838
68.8364
67.8364
66.7861
65.6883
64.5466
63.3651
62.148
60.8994
59.6242
58.3277
57.0152
55.6921
54.3635
53.0345
51.7148
76.5245
76.4394
76.2547
76.0007
75.6849
75.3052
74.8623
74.3586
73.7962
73.1763
72.4998
71.7677
70.9811
70.1411
69.2495
68.3079
67.3186
66.2843
65.2078
64.0929
62.9435
61.7636
60.5571
59.3285
58.0825
56.8238
55.557
54.2866
53.0171
51.7564
76.1712
76.0792
75.884
75.6187
75.2911
74.8989
74.4431
73.9266
73.3521
72.7213
72.0356
71.2966
70.5057
69.6648
68.7757
67.8407
66.8623
65.8432
64.7866
63.696
62.5754
61.4287
60.2593
59.0714
57.8692
56.6569
55.4386
54.2183
52.9997
51.7896
75.8586
75.76
75.5548
75.2791
74.9409
74.5379
74.0712
73.544
72.9594
72.3198
71.6269
70.8828
70.0893
69.2485
68.3628
67.4345
66.4665
65.4615
64.4228
63.3539
62.2587
61.1408
60.0035
58.8506
57.6859
56.5131
55.336
54.158
52.9825
51.8149
75.5922
75.4869
75.2716
74.9859
74.6386
74.2267
73.751
73.2152
72.6227
71.9763
71.2781
70.5304
69.7355
68.8957
68.0136
67.0919
66.1334
65.1411
64.1181
63.0681
61.9946
60.9013
59.7912
58.6677
57.5345
56.3948
55.2521
54.1095
52.97
51.8381
75.3782
75.265
75.0385
74.743
74.3876
73.968
73.4847
72.9416
72.3428
71.6911
70.989
70.2389
69.4434
68.605
67.7266
66.8108
65.8606
64.8792
63.8695
62.8351
61.7797
60.7064
59.6185
58.5189
57.411
56.298
55.1828
54.0683
52.9572
51.8532
75.2245
75.0991
74.8601
74.5572
74.1963
73.7711
73.2819
72.7335
72.1299
71.4743
70.7693
70.0176
69.2219
68.385
67.5096
66.5988
65.6555
64.6828
63.6837
62.6619
61.6207
60.5633
59.4928
58.412
57.3241
56.2319
55.1384
54.0462
52.9579
51.8767
75.144
74.9875
74.7297
74.421
74.0572
73.6284
73.1356
72.5839
71.9777
71.3201
70.6138
69.8616
69.0663
68.2308
67.3581
66.451
65.5126
64.5461
63.5545
62.5411
61.5096
60.4629
59.4039
58.3355
57.2607
56.1821
55.1026
54.0246
52.9505
51.8827
75.1667
74.9572
74.6762
74.3611
73.9937
73.5613
73.0651
72.5107
71.9026
71.2436
70.5365
69.7843
68.9896
68.1555
67.2848
66.3806
65.446
64.4839
63.4975
62.4901
61.4652
60.4257
59.3745
58.3143
57.248
56.1783
55.1077
54.0388
52.9739
51.9148
-78.2538
-50.4746
-22.1486
30.2753
26.0192
21.3479
36.5583
27.4621
21.4343
34.296
28.1517
24.2356
37.634
33.1187
29.6156
40.3936
36.5962
33.4318
42.1737
38.9362
36.2137
43.6318
40.8565
38.512
44.8775
42.457
40.4079
45.9136
43.7733
41.9621
46.7734
44.8629
43.2475
47.4901
45.7713
44.3185
48.0884
46.5309
45.2151
48.5882
47.1678
45.9684
49.0061
47.7031
46.6033
49.3555
48.1537
47.1396
49.6476
48.5333
47.5933
49.8915
48.8532
47.9775
50.0948
49.1227
48.3029
50.2639
49.3496
48.5784
50.4044
49.5404
48.8114
50.521
49.7007
49.0084
50.6173
49.8348
49.1741
50.6977
49.9479
49.3142
50.7628
50.0408
49.43
50.8201
50.1215
49.5295
50.8618
50.1822
49.6059
50.9081
50.2434
49.6783
50.9281
50.2745
49.7186
50.9752
50.3319
49.7805
1.4105
0.853414
0.0348821
0.357285
0.735174
1.08477
1.29142
1.28081
1.07166
0.758378
0.408521
0.0375399
-0.356113
-0.761423
-1.14726
-1.4779
-1.72853
-1.8858
-1.9405
-1.89064
-1.72944
-1.45923
-1.10592
-0.698221
-0.277512
0.100443
0.377479
0.48455
0.386216
0.138635
12.2729
3.26116
1.48224
1.90386
2.15997
2.20183
2.08172
1.77112
1.34264
0.905656
0.492392
0.0753299
-0.371239
-0.837498
-1.27583
-1.63702
-1.89603
-2.04655
-2.08399
-2.00154
-1.79606
-1.4823
-1.08807
-0.639041
-0.180109
0.23871
0.558431
0.688998
0.57288
0.221881
14.5472
7.71749
5.17633
4.33037
3.64628
3.02777
2.56008
2.17502
1.7686
1.29487
0.782553
0.242047
-0.336436
-0.919502
-1.43287
-1.81979
-2.06737
-2.18607
-2.18131
-2.04143
-1.76439
-1.383
-0.935074
-0.44469
0.0475242
0.496811
0.834327
0.956544
0.803146
0.334638
19.3491
13.8672
10.2955
7.99778
6.28863
4.95562
3.93714
3.11772
2.37759
1.66269
0.97253
0.303829
-0.350214
-0.96794
-1.49396
-1.88251
-2.1311
-2.24967
-2.22299
-2.03385
-1.67569
-1.20251
-0.679589
-0.128247
0.404584
0.870033
1.19488
1.27203
1.04688
0.434321
25.013
19.8948
15.6135
12.3014
9.76736
7.77724
6.17699
4.84703
3.69044
2.64994
1.70002
0.824792
0.015268
-0.717701
-1.34118
-1.81969
-2.12763
-2.23874
-2.12021
-1.77507
-1.31128
-0.839693
-0.318533
0.266423
0.824566
1.27054
1.52542
1.51826
1.2
0.451319
29.4142
24.8402
20.4417
16.666
13.6104
11.1157
9.02903
7.24993
5.70439
4.33792
3.11514
2.01395
1.02381
0.150968
-0.580842
-1.14102
-1.50462
-1.65688
-1.5949
-1.3397
-0.931433
-0.378529
0.259085
0.865482
1.37442
1.73588
1.89564
1.78822
1.34694
0.4395
32.8339
28.8554
24.6638
20.7944
17.4919
14.6847
12.2574
10.1358
8.26824
6.61239
5.13583
3.8173
2.64738
1.63002
0.781179
0.121502
-0.33249
-0.572264
-0.598367
-0.425808
-0.0869165
0.373566
0.884545
1.38561
1.83216
2.16158
2.28668
2.10909
1.53375
0.405982
35.6204
32.1389
28.2669
24.5108
21.1667
18.2237
15.605
13.2616
11.1633
9.2834
7.59853
6.09213
4.7571
3.59568
2.61772
1.8365
1.26324
0.903158
0.752428
0.793953
0.995086
1.31099
1.68743
2.06809
2.39181
2.58668
2.57078
2.25474
1.54309
0.260664
37.8863
34.8091
31.2811
27.7427
24.4891
21.5434
18.8576
16.4034
14.168
12.1392
10.3029
8.64898
7.17349
5.87814
4.76946
3.85632
3.14599
2.64036
2.33291
2.20619
2.23087
2.36699
2.56553
2.7702
2.91872
2.94234
2.76479
2.30289
1.47358
0.122809
39.7343
36.9919
33.7913
30.5074
27.4138
24.549
21.8839
19.4046
17.1106
14.9997
13.0665
11.3073
9.72119
8.31018
7.0792
6.03455
5.18063
4.51705
4.03643
3.72258
3.54938
3.48103
3.4731
3.4738
3.42513
3.26338
2.91978
2.32354
1.4135
0.072447
41.2594
38.7971
35.8903
32.8601
29.9536
27.2139
24.6232
22.1765
19.8805
17.7398
15.7555
13.9292
12.2627
10.758
9.41945
8.25219
7.25888
6.43799
5.78226
5.27716
4.89986
4.61904
4.39567
4.18395
3.93235
3.58495
3.08369
2.37304
1.41314
0.121922
42.5296
40.3037
37.6547
34.8613
32.1455
29.5497
27.0622
24.6827
22.4221
20.2888
18.2884
16.4262
14.7055
13.1288
11.7004
10.425
9.30416
8.33606
7.51401
6.82539
6.25067
5.76324
5.32975
4.91101
4.4631
3.93938
3.29345
2.48419
1.48776
0.251113
43.5939
41.5692
39.1454
36.5669
34.0338
31.5861
29.2144
26.9208
24.7177
22.6161
20.6245
18.7497
16.9958
15.3667
13.8667
12.5
11.2676
10.168
9.19512
8.33847
7.58167
6.90257
6.27347
5.66182
5.03154
4.34506
3.56654
2.66651
1.6315
0.431235
44.4899
42.6379
40.4106
38.0246
35.6613
33.3574
31.1045
28.9049
26.7714
24.7167
22.7505
20.8797
19.1095
17.4448
15.8901
14.4488
13.1222
11.9087
10.8036
9.79814
8.87893
8.02785
7.22234
6.43606
5.64008
4.80483
3.90304
2.91358
1.82865
0.634991
45.2472
43.5442
41.4887
39.2741
37.0658
34.8973
32.7604
30.657
28.5992
26.6002
24.6697
22.8147
21.0414
19.3549
17.7598
16.2595
14.855
13.5454
12.327
11.1928
10.1319
9.12983
8.1684
7.22663
6.28162
5.3103
4.29179
3.21042
2.06062
0.840914
45.8889
44.3152
42.4099
40.3475
38.2795
36.2364
34.2099
32.2009
30.2207
28.2815
26.393
24.5624
22.7959
21.0985
19.4753
17.9294
16.4621
15.0729
13.7591
12.5151
11.3324
10.1993
9.1015
8.02226
6.9435
5.84706
4.71651
3.53937
2.31017
1.03474
46.4338
44.9723
43.1988
41.2714
39.3295
37.4011
35.4777
33.559
31.6551
29.7772
27.9346
26.1342
24.3816
22.6822
21.041
19.4612
17.9443
16.4903
15.0971
13.7605
12.4738
11.2278
10.0111
8.81046
7.61134
6.39914
5.16034
3.88408
2.56378
1.20906
46.8971
45.5331
43.8752
42.0671
40.2382
38.414
36.5855
34.7518
32.9212
31.1043
29.3094
27.5424
25.809
24.115
22.4646
20.8607
19.3054
17.7992
16.3405
14.9262
13.5512
12.208
10.8876
9.57944
8.27157
6.95183
5.6085
4.23132
2.81219
1.36196
47.2911
46.012
44.4553
42.7527
41.0244
39.2942
37.5526
35.7977
34.0367
32.2789
30.5315
28.8
27.0899
25.4066
23.7534
22.1334
20.5493
19.0015
17.4893
16.0104
14.5604
13.1336
11.7228
10.3192
8.91277
7.49303
6.04933
4.57146
3.04984
1.49494
47.6261
46.4209
44.9527
43.3431
41.7042
40.0581
38.3954
36.7129
35.0168
33.3152
31.6142
29.9189
28.2345
26.5654
24.9144
23.2853
21.6801
20.0996
18.5443
17.0121
15.4989
14.0002
12.5103
11.0218
9.52604
8.01356
6.47436
4.89807
3.2739
1.61108
47.9107
46.7694
45.3786
43.8506
42.2908
40.7197
39.1276
37.511
35.8746
34.2255
32.5692
30.9102
29.2525
27.5993
25.9548
24.3224
22.7026
21.097
19.5071
17.9308
16.3642
14.8037
13.2448
11.6809
10.1043
8.50635
6.87733
5.20673
3.48285
1.71331
48.1521
47.0661
45.7425
44.2859
42.7956
41.2908
39.7619
38.2045
36.6225
35.0218
33.4077
31.7837
30.1523
28.5166
26.8817
25.2498
23.6208
21.9966
20.3789
18.7659
17.1545
15.5414
13.9224
12.2919
10.6427
8.96664
7.25428
5.49493
3.67634
1.80423
48.3561
47.3174
46.052
44.6575
43.2278
41.7813
40.3081
38.8035
37.2703
35.7138
34.1384
32.547
30.941
29.3237
27.6999
26.071
24.4369
22.7995
21.1598
19.5168
17.868
16.2101
14.5393
12.8502
11.1362
9.3896
7.60099
5.75961
3.85289
1.88463
48.5286
47.53
46.3144
44.9734
43.5962
42.2002
40.7757
39.3174
37.8276
36.3106
34.7702
33.2085
31.6267
30.0278
28.4156
26.7914
25.1554
23.5087
21.852
20.1847
18.5047
16.8092
15.0941
13.3542
11.5833
9.77383
7.91665
6.00086
4.01366
1.95655
48.6719
47.707
46.5334
45.2377
43.9051
42.5523
41.1695
39.7513
38.299
36.8165
35.307
33.7721
32.2126
30.6309
29.0303
27.4119
25.7757
24.1226
22.4531
20.7662
19.0603
17.3332
15.5807
13.7973
11.977
10.1125
8.19476
6.21282
4.15384
2.01727
48.7932
47.8557
46.7171
45.4593
44.1639
42.8472
41.4995
40.115
38.6946
37.2416
35.7588
34.2474
32.7077
31.1416
29.5523
27.9402
26.305
24.6479
22.9692
21.2668
19.5397
17.7869
16.0038
14.1841
12.322
10.4107
8.44094
6.40174
4.28004
2.07226
48.8881
47.9721
46.8613
45.6338
44.3685
43.0808
41.7615
40.4043
39.01
37.5811
36.1201
34.6278
33.1045
31.5519
29.9721
28.3652
26.7314
25.0718
23.3862
21.672
19.928
18.1544
16.3465
14.4973
12.6011
10.6509
8.63783
6.55081
4.37697
2.11107
48.9722
48.0718
46.9825
45.7786
44.5364
43.2712
41.9739
40.6381
39.2641
37.8542
36.4103
34.9331
33.4232
31.8819
30.3096
28.7073
27.0754
25.4145
23.7241
22.0017
20.2459
18.4563
16.629
14.7576
12.8354
10.8552
8.80822
6.68329
4.46699
2.15007
49.0228
48.1316
47.0559
45.868
44.6415
43.3913
42.1086
40.7869
39.4264
38.029
36.5963
35.1294
33.629
32.095
30.5278
28.9287
27.2981
25.6359
23.9418
22.2142
20.4501
18.6484
16.8076
14.9213
12.9809
10.9795
8.9084
6.75655
4.51074
2.16141
49.0837
48.1918
47.1238
45.946
44.7289
43.4873
42.2127
40.8991
39.5461
38.1556
36.7289
35.2676
33.7721
32.2414
30.6765
29.079
27.449
25.786
24.0901
22.3602
20.5914
18.7826
16.935
15.0413
13.0914
11.0783
8.99378
6.82551
4.55778
2.17173
)
;

boundaryField
{
    inlet
    {
        type            zeroGradient;
    }
    outlet
    {
        type            fixedValue;
        value           uniform 0;
    }
    flap
    {
        type            zeroGradient;
    }
    upperWall
    {
        type            zeroGradient;
    }
    lowerWall
    {
        type            zeroGradient;
    }
    frontAndBack
    {
        type            empty;
    }
}


// ************************************************************************* //
