/*--------------------------------*- C++ -*----------------------------------*\
| =========                 |                                                 |
| \\      /  F ield         | OpenFOAM: The Open Source CFD Toolbox           |
|  \\    /   O peration     | Version:  dev                                   |
|   \\  /    A nd           | Web:      www.OpenFOAM.org                      |
|    \\/     M anipulation  |                                                 |
\*---------------------------------------------------------------------------*/
FoamFile
{
    version     2.0;
    format      ascii;
    class       surfaceScalarField;
    location    "0.48";
    object      phi;
}
// * * * * * * * * * * * * * * * * * * * * * * * * * * * * * * * * * * * * * //

dimensions      [0 3 -1 0 0 0 0];

internalField   nonuniform List<scalar> 
881
(
0.199217
0.000774034
0.197919
0.00128923
0.196069
0.00184132
0.193654
0.00240721
0.190695
0.00295315
0.187208
0.00348075
0.183202
0.00400162
0.178674
0.00452513
0.173613
0.00505747
0.168008
0.00560287
0.161843
0.00616411
0.155099
0.00674241
0.147762
0.00733711
0.139816
0.00794539
0.131255
0.00856199
0.122079
0.00917661
0.112301
0.00977805
0.10195
0.0103516
0.0910766
0.0108747
0.0797566
0.0113208
0.0116589
0.200883
-0.00011849
0.200835
0.00132912
0.200129
0.00253855
0.198824
0.00370496
0.196937
0.00483303
0.194485
0.00592759
0.191473
0.00700843
0.187901
0.00809378
0.183759
0.00919655
0.179034
0.0103259
0.173709
0.011488
0.167764
0.0126863
0.16118
0.0139203
0.153941
0.0151848
0.146032
0.0164712
0.137452
0.0177571
0.128209
0.0190216
0.118324
0.0202374
0.107843
0.0213568
0.0968385
0.0223259
0.0230821
0.200726
-0.00085368
0.200732
0.00131372
0.20009
0.00317246
0.19888
0.00490733
0.197131
0.00657538
0.194858
0.00819462
0.192071
0.00979123
0.18877
0.0113906
0.184952
0.0130122
0.180605
0.0146702
0.175717
0.016375
0.17027
0.0181327
0.164245
0.0199446
0.157624
0.0218057
0.15039
0.0237053
0.14253
0.0256181
0.134039
0.0275128
0.124929
0.029348
0.115227
0.03106
0.10498
0.0325734
0.0337989
0.200641
-0.00150408
0.200652
0.00129372
0.200032
0.0037836
0.198852
0.00608008
0.197146
0.00827381
0.194934
0.0104011
0.192226
0.0124949
0.189026
0.0145863
0.185336
0.0167001
0.181149
0.018855
0.176457
0.0210649
0.17125
0.0233386
0.165515
0.0256796
0.159236
0.0280844
0.152402
0.0305398
0.144993
0.0330272
0.137002
0.0355053
0.128435
0.037915
0.119307
0.0401894
0.109641
0.0422398
0.0439583
0.2006
-0.00211368
0.200606
0.0012785
0.200008
0.00437275
0.19886
0.00722036
0.197199
0.00992783
0.195045
0.0125492
0.192409
0.0151257
0.189298
0.0176936
0.185713
0.0202824
0.181651
0.0229148
0.177106
0.0256078
0.172071
0.0283729
0.166535
0.0312154
0.160486
0.0341331
0.153913
0.0371129
0.146804
0.0401367
0.13915
0.0431601
0.130948
0.0461185
0.122198
0.0489403
0.11291
0.0515291
0.0537648
0.200576
-0.00269958
0.200577
0.00126782
0.200001
0.00493965
0.198891
0.00832268
0.197282
0.0115301
0.195195
0.0146303
0.192642
0.0176736
0.18963
0.0207015
0.186161
0.0237481
0.182234
0.0268399
0.177843
0.0299972
0.172981
0.0332339
0.167639
0.0365574
0.161805
0.039967
0.155466
0.043452
0.148613
0.046991
0.141232
0.0505421
0.133307
0.0540443
0.124828
0.0574207
0.115788
0.0605698
0.0633636
0.20056
-0.00326959
0.20056
0.00125759
0.200008
0.00548214
0.198942
0.00938114
0.197393
0.0130716
0.195384
0.0166331
0.192928
0.0201247
0.190032
0.0235937
0.186699
0.0270785
0.182927
0.0306094
0.178713
0.0342101
0.174048
0.0378973
0.168924
0.0416811
0.163328
0.0455632
0.157245
0.0495358
0.150657
0.0535799
0.143542
0.0576575
0.135877
0.0617108
0.127635
0.0656635
0.118793
0.0694129
0.0728257
0.200549
-0.00382939
0.200555
0.00124189
0.200032
0.00599596
0.199015
0.0103894
0.197536
0.0145434
0.195617
0.0185462
0.193271
0.0224655
0.190506
0.0263542
0.187327
0.0302549
0.183732
0.0342021
0.179718
0.0382226
0.175278
0.0423366
0.170401
0.0465574
0.165074
0.0508904
0.159279
0.055332
0.152989
0.0598701
0.146175
0.0644725
0.138802
0.069086
0.130825
0.0736409
0.1222
0.0780392
0.0821475
0.200542
-0.00438176
0.200557
0.00121613
0.200066
0.00647684
0.199105
0.0113418
0.197704
0.0159375
0.195884
0.0203599
0.19366
0.0246841
0.191041
0.0289689
0.188032
0.0332611
0.184633
0.0375988
0.180842
0.0420126
0.176651
0.0465264
0.172051
0.0511569
0.167027
0.0559146
0.16156
0.0607999
0.155617
0.0658142
0.149159
0.0709323
0.14214
0.0761057
0.134502
0.0812804
0.126172
0.0863707
0.0912539
0.200535
-0.00492812
0.200564
0.00117663
0.20011
0.00692058
0.19921
0.0122329
0.197893
0.0172469
0.196181
0.0220652
0.194091
0.0267698
0.19163
0.031425
0.188806
0.0360819
0.185621
0.0407821
0.182072
0.0455601
0.178155
0.0504433
0.173858
0.0554533
0.169167
0.0606056
0.16406
0.0659082
0.158507
0.0713679
0.15247
0.0769706
0.145891
0.0826863
0.138694
0.0884788
0.130786
0.0942808
0.0999986
0.200528
-0.00546789
0.200572
0.00112187
0.200157
0.00732461
0.199322
0.0130592
0.198095
0.0184663
0.196498
0.0236552
0.194549
0.0287142
0.192257
0.0337126
0.18963
0.0387056
0.186672
0.0437384
0.183382
0.0488486
0.179756
0.0540682
0.175786
0.0594233
0.171458
0.0649346
0.166747
0.0706201
0.161635
0.0764805
0.15609
0.082518
0.150042
0.0887358
0.143407
0.0951146
0.136074
0.101615
0.10818
0.200518
-0.00599828
0.200576
0.0010526
0.200201
0.00768829
0.199433
0.0138187
0.198298
0.0195926
0.196822
0.0251256
0.195019
0.0305117
0.192902
0.0358249
0.190481
0.0411242
0.187759
0.0464578
0.18474
0.0518666
0.181422
0.0573857
0.1778
0.0630453
0.173865
0.0688704
0.169602
0.074884
0.164991
0.0810929
0.159997
0.0875134
0.154567
0.0941678
0.148624
0.10106
0.142051
0.10819
0.115535
0.200507
-0.00651802
0.20058
0.000967833
0.200248
0.00800915
0.199549
0.0145079
0.198513
0.0206211
0.197161
0.0264705
0.195512
0.032155
0.19358
0.0377534
0.191373
0.0433277
0.1889
0.0489288
0.186166
0.0546001
0.183172
0.0603792
0.179918
0.0662988
0.176402
0.0723874
0.172617
0.0786703
0.168545
0.085167
0.164158
0.0919019
0.159426
0.0989018
0.154297
0.10619
0.148693
0.113796
0.121738
0.200497
-0.00702816
0.200588
0.000864403
0.200303
0.00828301
0.199679
0.0151218
0.198746
0.021546
0.197527
0.0276827
0.19604
0.0336361
0.194301
0.0394884
0.192321
0.0453049
0.190109
0.0511385
0.187674
0.0570343
0.185021
0.0630317
0.182155
0.0691653
0.179077
0.0754657
0.175788
0.0819605
0.172282
0.0886748
0.16855
0.0956358
0.164582
0.102872
0.16036
0.110414
0.155861
0.118297
0.126561
0.200494
0.200611
0.20038
0.00850234
0.199839
0.0156528
0.199017
0.0223593
0.197939
0.0287544
0.196623
0.0349467
0.195085
0.0410219
0.193339
0.0470475
0.191398
0.0530782
0.189271
0.0591604
0.186968
0.0653344
0.184498
0.0716359
0.181868
0.0780963
0.179086
0.0847442
0.176157
0.0916061
0.173086
0.0987085
0.169882
0.106079
0.166554
0.113745
0.163115
0.121738
0.130095
0.208083
0.207596
0.016129
0.20685
0.0230967
0.205868
0.0297289
0.204672
0.0361376
0.203278
0.0424115
0.201702
0.0486202
0.199958
0.0548197
0.198061
0.061057
0.196022
0.0673733
0.193854
0.0738044
0.191569
0.0803822
0.18918
0.0871352
0.186699
0.0940895
0.184139
0.10127
0.181518
0.108703
0.178852
0.116413
0.176162
0.124431
0.132792
0.212762
0.212117
0.0237323
0.211264
0.030574
0.210224
0.0371715
0.209016
0.0436152
0.207657
0.0499762
0.206163
0.0563116
0.20455
0.0626688
0.202834
0.0690889
0.201032
0.075608
0.199158
0.0822575
0.197229
0.0890654
0.195264
0.0960573
0.19328
0.103257
0.191297
0.110689
0.189333
0.11838
0.187403
0.126363
0.134687
0.217506
0.216789
0.0312825
0.215917
0.0380381
0.214907
0.0446205
0.213779
0.0511011
0.212551
0.0575377
0.211241
0.0639779
0.209867
0.0704622
0.20845
0.0770261
0.207009
0.0837005
0.205563
0.0905127
0.204136
0.097487
0.202749
0.104647
0.201425
0.112017
0.200183
0.119625
0.199041
0.127509
0.135728
0.222463
0.221769
0.0387264
0.22097
0.045414
0.220088
0.0519802
0.219141
0.0584821
0.218151
0.0649672
0.217138
0.0714753
0.216124
0.0780407
0.215133
0.0846934
0.214188
0.0914593
0.213316
0.0983618
0.212543
0.105424
0.211894
0.112668
0.211397
0.120125
0.211075
0.127834
0.135854
0.227779
0.227203
0.0459851
0.226579
0.0526006
0.225928
0.059131
0.225271
0.0656229
0.224632
0.0721142
0.224035
0.0786381
0.223507
0.0852232
0.223075
0.0918939
0.222767
0.098672
0.222615
0.105579
0.22265
0.112637
0.222906
0.119873
0.223419
0.127324
0.135041
0.233601
0.233245
0.232898
0.0594751
0.232585
0.0659346
0.23233
0.0723693
0.232159
0.0788098
0.232101
0.0852831
0.232185
0.0918118
0.232444
0.0984158
0.232912
0.105114
0.233626
0.111926
0.234627
0.118874
0.235965
0.125989
0.133309
0.240041
0.240077
0.0658975
0.24021
0.0722358
0.240468
0.0785527
0.24088
0.0848726
0.241478
0.0912158
0.242297
0.0975996
0.243374
0.10404
0.24475
0.110552
0.246474
0.117153
0.248603
0.123864
0.130707
0.24773
0.24825
0.248933
0.0778705
0.249809
0.0839979
0.250911
0.0901157
0.252274
0.0962384
0.253939
0.102378
0.255949
0.108544
0.258356
0.114749
0.261221
0.121001
0.127311
0.257526
0.258853
0.260441
0.0885297
0.262325
0.0943557
0.264547
0.100158
0.267151
0.105943
0.270188
0.111713
0.27372
0.11747
0.123213
0.270026
0.2724
0.0919828
0.27514
0.0974208
0.278287
0.102797
0.281892
0.10811
0.286012
0.113352
0.118514
0.282455
0.285665
0.2893
0.0991642
0.293403
0.104008
0.298025
0.108731
0.113317
0.300141
0.304669
0.309708
0.103693
0.107724
0.321026
)
;

boundaryField
{
    inlet
    {
        type            calculated;
        value           nonuniform List<scalar> 
15
(
-0.2
-0.2
-0.2
-0.2
-0.2
-0.2
-0.2
-0.2
-0.2
-0.2
-0.2
-0.2
-0.2
-0.2
-0.2
)
;
    }
    outlet
    {
        type            calculated;
        value           nonuniform 0();
    }
    flap
    {
        type            calculated;
        value           nonuniform 0();
    }
    upperWall
    {
        type            calculated;
        value           nonuniform 0();
    }
    lowerWall
    {
        type            calculated;
        value           uniform 0;
    }
    frontAndBack
    {
        type            empty;
        value           nonuniform 0();
    }
    procBoundary3to0
    {
        type            processor;
        value           nonuniform List<scalar> 
34
(
-0.00753598
0.000734489
-0.208281
0.00868771
-0.213174
0.0165304
-0.218044
0.0242611
-0.223034
0.0318453
-0.228286
0.0392269
-0.233946
0.0463244
0.0529538
-0.240077
0.0595085
-0.247344
0.06551
0.0717154
-0.256427
0.0767719
0.0826725
-0.267977
0.0864824
-0.279627
0.0891568
0.0942117
-0.29608
0.0951044
0.09948
-0.315654
0.0983211
0.101828
)
;
    }
    procBoundary3to1
    {
        type            processor;
        value           nonuniform List<scalar> 9(0.224235 0.237701 0.251208 0.26462 0.277821 0.290712 0.303223 0.315302 0.326923);
    }
    procBoundary3to4
    {
        type            processor;
        value           nonuniform List<scalar> 
19
(
0.0680985
0.0854161
0.0942643
0.0994827
0.103104
0.10619
0.109332
0.11288
0.117067
0.122043
0.127894
0.134698
0.142493
0.151039
0.159582
0.173468
0.18551
0.198002
0.210953
)
;
    }
}


// ************************************************************************* //
