/*--------------------------------*- C++ -*----------------------------------*\
| =========                 |                                                 |
| \\      /  F ield         | OpenFOAM: The Open Source CFD Toolbox           |
|  \\    /   O peration     | Version:  dev                                   |
|   \\  /    A nd           | Web:      www.OpenFOAM.org                      |
|    \\/     M anipulation  |                                                 |
\*---------------------------------------------------------------------------*/
FoamFile
{
    version     2.0;
    format      ascii;
    class       surfaceVectorField;
    location    "0.37";
    object      Uf;
}
// * * * * * * * * * * * * * * * * * * * * * * * * * * * * * * * * * * * * * //

dimensions      [0 1 -1 0 0 0 0];

internalField   nonuniform List<vector> 
5457
(
(9.91121 -1.34838e-20 0.025818)
(9.95868 -2.61922e-20 0.0416471)
(9.80358 -1.31329e-20 0.0343073)
(9.91192 2.55232e-22 0.0520877)
(9.67632 0 0.041421)
(9.83277 4.27897e-22 0.0635293)
(9.5281 2.32139e-22 0.0486047)
(9.72171 4.45001e-22 0.076247)
(9.35926 1.52843e-20 0.0559572)
(9.58724 -6.74834e-22 0.0894393)
(9.1702 1.46705e-20 0.0635463)
(9.43278 2.89171e-20 0.103079)
(8.96094 0 0.0715045)
(9.25805 1.95117e-21 0.117378)
(8.73118 -8.86391e-21 0.079965)
(9.06213 -2.02721e-21 0.132534)
(8.48034 6.01713e-22 0.0890485)
(8.84439 1.65162e-20 0.148726)
(8.20769 9.30368e-21 0.0988648)
(8.60428 3.17736e-22 0.166111)
(7.91232 -4.91324e-21 0.109511)
(8.34104 -7.73701e-21 0.184826)
(7.59327 -5.07064e-21 0.121064)
(8.05377 -3.47686e-22 0.204978)
(7.24956 0 0.133591)
(7.74149 -5.01263e-21 0.226626)
(6.88028 1.77e-21 0.147139)
(7.40319 8.30931e-23 0.249801)
(6.4846 1.35811e-21 0.161724)
(7.03794 2.89091e-22 0.274483)
(6.06194 -8.18517e-21 0.177291)
(6.64494 -6.14503e-21 0.300545)
(5.61219 7.1475e-21 0.193695)
(6.22371 -4.76128e-21 0.327704)
(5.13587 3.17428e-20 0.210667)
(5.77423 -1.40032e-20 0.355506)
(4.63438 -1.28298e-21 0.227737)
(5.29721 -2.97088e-20 0.383264)
(4.11048 -1.77157e-20 0.244138)
(4.79438 -3.98675e-21 0.40992)
(3.56873 -1.61426e-20 0.258723)
(4.26881 2.97029e-20 0.433931)
(3.01602 1.36827e-21 0.269911)
(3.72541 -5.74302e-22 0.453227)
(2.46205 -9.8706e-22 0.275658)
(3.17125 -1.59132e-20 0.465171)
(1.91973 -1.72092e-20 0.273581)
(2.61596 -1.7464e-20 0.466547)
(1.40529 0 0.261378)
(2.07183 0 0.453747)
(0.937696 0 0.237656)
(1.55357 1.50804e-19 0.423232)
(0.537092 0 0.20291)
(1.07738 -1.55671e-19 0.372343)
(0.222219 4.35595e-20 0.155604)
(0.661398 -6.45566e-19 0.299936)
(0.0153545 4.28782e-20 0.0724596)
(0.325595 -6.92679e-21 0.196928)
(0.168011 2.41908e-18 0.0047488)
(9.99157 -1.21621e-20 0.0558284)
(9.98593 5.16334e-20 0.0456263)
(9.94419 1.37604e-20 0.0771626)
(9.96444 1.39239e-20 0.0750507)
(9.87182 8.75912e-22 0.0959647)
(9.91415 -5.53014e-20 0.0997038)
(9.77664 -4.73659e-22 0.115311)
(9.8327 -5.56466e-20 0.125257)
(9.65901 1.33571e-20 0.135408)
(9.72736 -9.13104e-22 0.151806)
(9.51923 1.58598e-20 0.156359)
(9.60173 -1.50159e-20 0.179352)
(9.35732 -1.28202e-22 0.178443)
(9.4558 1.95122e-21 0.208263)
(9.17298 2.35967e-20 0.201946)
(9.28873 -2.02729e-21 0.238939)
(8.96565 1.60211e-20 0.22712)
(9.09992 4.19914e-20 0.271727)
(8.73465 -1.68352e-20 0.254186)
(8.88891 -2.6287e-20 0.306923)
(8.47913 -3.06637e-21 0.283324)
(8.65505 2.27529e-21 0.344796)
(8.19815 -3.38093e-22 0.314669)
(8.39759 -1.66107e-20 0.385574)
(7.89071 -4.86513e-21 0.348298)
(8.11559 1.11703e-20 0.42942)
(7.55577 -1.40251e-21 0.384222)
(7.80802 5.28788e-21 0.476426)
(7.19241 -7.30438e-21 0.42234)
(7.47389 -1.46638e-21 0.52657)
(6.79991 -2.65511e-21 0.462363)
(7.11228 -1.8537e-23 0.579638)
(6.37788 -2.61242e-20 0.503761)
(6.72248 3.01655e-21 0.635133)
(5.92653 -7.59506e-20 0.545704)
(6.30405 -3.29663e-21 0.692207)
(5.44688 -3.20327e-20 0.586945)
(5.85712 -6.90165e-21 0.749561)
(4.94108 4.40901e-20 0.625659)
(5.38271 -5.51753e-20 0.805256)
(4.41272 4.51835e-20 0.659351)
(4.88277 -5.81083e-20 0.856544)
(3.86711 -1.77868e-20 0.684835)
(4.36054 -1.53021e-20 0.899812)
(3.31159 -3.23541e-20 0.698252)
(3.82081 3.15864e-20 0.930556)
(2.75545 0 0.695266)
(3.27007 0 0.943483)
(2.20974 1.52993e-19 0.671556)
(2.71637 -7.04174e-20 0.932875)
(1.68651 -8.77711e-21 0.623689)
(2.16903 3.55936e-21 0.893303)
(1.19777 -8.10026e-19 0.550259)
(1.63781 -4.21708e-21 0.82066)
(0.753707 -7.04029e-19 0.449051)
(1.1318 -6.50268e-19 0.713359)
(0.354896 2.31382e-18 0.299086)
(0.671663 -3.8481e-20 0.567505)
(0.36056 2.69063e-18 0.338524)
(9.98396 7.7277e-20 0.0675362)
(9.98356 2.64284e-20 0.053128)
(9.93945 -5.60727e-20 0.100779)
(9.95941 1.70433e-24 0.0965443)
(9.87029 -1.1183e-19 0.131793)
(9.91 -5.63996e-20 0.134155)
(9.77973 -5.53644e-20 0.163743)
(9.83142 9.02432e-22 0.171756)
(9.66859 -2.94869e-20 0.197084)
(9.7299 1.80781e-21 0.21058)
(9.53721 -2.87188e-20 0.232033)
(9.60906 -3.09563e-20 0.250882)
(9.38563 0 0.269001)
(9.46916 -1.9509e-21 0.293177)
(9.21365 1.69452e-20 0.308422)
(9.30952 -2.97661e-23 0.338043)
(9.02084 -1.17765e-21 0.350668)
(9.12972 -1.25988e-20 0.385959)
(8.80667 -6.82611e-21 0.396066)
(8.92943 -2.18585e-21 0.437333)
(8.5705 -1.15256e-20 0.444917)
(8.70823 1.02931e-20 0.492542)
(8.31156 -4.7627e-21 0.497478)
(8.46554 -2.43634e-21 0.551945)
(8.0289 2.12414e-20 0.553927)
(8.20062 -1.34639e-20 0.615854)
(7.72152 5.13993e-21 0.614323)
(7.91262 5.17671e-21 0.684468)
(7.38843 5.81836e-21 0.678538)
(7.60065 0 0.757808)
(7.0287 5.67167e-21 0.746175)
(7.26385 5.74824e-21 0.835664)
(6.64156 2.5653e-20 0.816459)
(6.9014 6.00497e-21 0.917485)
(6.22655 6.55303e-20 0.888113)
(6.51255 1.91806e-20 1.00222)
(5.78381 -3.07898e-20 0.959217)
(6.09689 4.00485e-20 1.08815)
(5.31422 -1.57401e-19 1.02705)
(5.65448 -1.43857e-20 1.17278)
(4.81953 -1.18007e-19 1.08795)
(5.18587 -3.0059e-20 1.25264)
(4.30264 3.44889e-20 1.13727)
(4.69238 -6.09464e-20 1.32316)
(3.7677 6.34901e-20 1.16949)
(4.17622 7.00254e-22 1.37864)
(3.22013 -7.13994e-20 1.17848)
(3.64063 6.57453e-20 1.41249)
(2.66638 -2.19357e-19 1.15818)
(3.08988 2.06778e-19 1.41765)
(2.11337 7.66528e-21 1.10352)
(2.52901 -2.91722e-19 1.38749)
(1.5681 1.51071e-19 1.01161)
(1.96359 1.5265e-19 1.31687)
(1.03731 1.53879e-20 0.882542)
(1.39843 0 1.20366)
(0.522193 1.89521e-19 0.709805)
(0.845644 3.05375e-20 1.05022)
(0.453127 9.33137e-20 0.820735)
(9.97985 -5.12386e-20 0.0826802)
(9.98232 5.20989e-20 0.0625626)
(9.93551 -1.14232e-21 0.129282)
(9.95654 -8.26355e-22 0.117955)
(9.86741 5.69754e-20 0.173323)
(9.90715 5.35916e-20 0.168078)
(9.77814 5.80257e-20 0.217791)
(9.82989 1.1267e-19 0.217587)
(9.66885 -9.05081e-23 0.263657)
(9.73023 1.81683e-21 0.268369)
(9.53993 -3.81142e-21 0.311455)
(9.61164 -1.85923e-21 0.321056)
(9.39154 -1.95453e-21 0.361802)
(9.47447 1.93347e-21 0.376291)
(9.22366 -2.97153e-20 0.415301)
(9.31827 6.39051e-20 0.434768)
(9.03608 -1.34646e-20 0.472466)
(9.14274 -6.242e-20 0.497079)
(8.82848 1.50844e-20 0.533753)
(8.94772 4.11295e-20 0.563738)
(8.60042 1.92161e-20 0.599595)
(8.73289 4.46555e-21 0.635222)
(8.35134 -1.12842e-20 0.670396)
(8.49781 1.89786e-20 0.711996)
(8.0806 -2.92983e-20 0.746474)
(8.24195 -9.98423e-21 0.794479)
(7.78747 -2.76443e-23 0.827989)
(7.9647 -4.51921e-21 0.882959)
(7.47118 0 0.914878)
(7.66539 1.36967e-23 0.97753)
(7.13095 6.08526e-21 1.00677)
(7.34335 -6.92946e-22 1.07803)
(6.76602 -3.10939e-22 1.10286)
(6.99784 2.34279e-20 1.18394)
(6.37571 -6.09215e-21 1.20169)
(6.62814 1.22996e-20 1.29418)
(5.95952 5.57848e-20 1.30101)
(6.23353 3.84375e-20 1.40692)
(5.51725 1.12894e-19 1.39765)
(5.81341 1.08743e-19 1.51946)
(5.04911 2.67022e-20 1.48732)
(5.36727 2.93794e-20 1.62803)
(4.55585 -9.41654e-20 1.56454)
(4.8949 -1.76989e-19 1.72761)
(4.03889 3.54919e-21 1.62275)
(4.39647 -6.38794e-20 1.81191)
(3.5004 3.46307e-19 1.65466)
(3.87264 1.95007e-19 1.87359)
(2.94328 1.29396e-19 1.65296)
(3.32473 2.11751e-19 1.90473)
(2.37107 -1.42227e-19 1.61132)
(2.75485 -4.27258e-19 1.89774)
(1.7879 0 1.52589)
(2.16607 1.4707e-19 1.84663)
(1.19845 1.53626e-20 1.39809)
(1.56192 0 1.74908)
(0.604933 -6.96394e-20 1.21065)
(0.946551 1.52382e-20 1.61104)
(0.50093 -1.30623e-19 1.38603)
(9.97797 1.018e-19 0.0985315)
(9.98176 4.02411e-22 0.0728797)
(9.93344 5.46248e-20 0.157049)
(9.95528 -2.06118e-21 0.139461)
(9.86645 1.10055e-19 0.212893)
(9.90619 5.59855e-20 0.201451)
(9.77874 5.49994e-20 0.26897)
(9.83039 -1.74439e-21 0.262619)
(9.67146 0 0.326689)
(9.73289 1.78586e-21 0.325096)
(9.54505 3.93466e-21 0.386864)
(9.61691 0 0.389869)
(9.3997 6.85899e-20 0.450239)
(9.48283 6.1272e-20 0.457716)
(9.23545 2.95814e-20 0.517506)
(9.33028 -5.9431e-20 0.529412)
(9.05218 -6.50778e-21 0.589275)
(9.15903 6.59295e-20 0.605658)
(8.84966 3.00475e-20 0.666093)
(8.96894 -4.71769e-20 0.687072)
(8.6275 4.40954e-21 0.748474)
(8.75976 8.89738e-21 0.774236)
(8.38527 1.99157e-20 0.836897)
(8.53109 -4.69938e-21 0.867693)
(8.12247 1.48726e-20 0.931747)
(8.28248 5.14705e-21 0.967924)
(7.83858 -4.42056e-21 1.03325)
(8.01343 -2.33797e-20 1.07528)
(7.53299 -6.88238e-22 1.14141)
(7.72339 -6.47363e-21 1.18994)
(7.20508 1.69625e-20 1.25591)
(7.41177 -7.79234e-22 1.31181)
(6.85417 3.59287e-20 1.37598)
(7.07788 -3.45541e-20 1.44041)
(6.47952 5.72381e-20 1.50019)
(6.721 7.24855e-20 1.57475)
(6.08029 9.23369e-20 1.62628)
(6.34026 -1.22307e-20 1.71311)
(5.65561 2.40957e-20 1.75098)
(5.93462 -2.60129e-20 1.85285)
(5.20461 -1.77295e-19 1.86983)
(5.5029 -2.90681e-20 1.99022)
(4.72655 -1.45345e-19 1.97705)
(5.04387 -1.53956e-21 2.12014)
(4.22089 1.30891e-19 2.0656)
(4.55623 9.67457e-22 2.23618)
(3.68746 6.01537e-20 2.12756)
(4.03885 -6.07112e-20 2.33064)
(3.12679 -3.52644e-19 2.15475)
(3.49102 -1.32353e-19 2.39503)
(2.54035 -1.31762e-19 2.13992)
(2.91289 -3.52973e-19 2.42086)
(1.931 1.45476e-19 2.07848)
(2.3061 1.46561e-19 2.40108)
(1.30355 -8.53858e-23 1.97248)
(1.67421 7.54585e-20 2.33214)
(0.662884 -4.76816e-20 1.8105)
(1.01338 5.94945e-20 2.22064)
(0.529281 -8.78656e-20 2.02866)
(9.97723 -1.03511e-19 0.114641)
(9.98155 -1.03169e-19 0.0835463)
(9.93282 9.61211e-23 0.184448)
(9.95502 -6.15589e-24 0.160914)
(9.86718 -5.65644e-20 0.25176)
(9.90667 6.49261e-24 0.234156)
(9.78149 -5.49012e-20 0.319359)
(9.83265 -5.74591e-20 0.306613)
(9.67678 1.76241e-21 0.388862)
(9.73773 5.37384e-21 0.380468)
(9.55353 5.81286e-20 0.461273)
(9.62492 -3.66975e-21 0.456971)
(9.41192 -6.82773e-20 0.537434)
(9.4946 -6.85505e-20 0.537053)
(9.25198 -2.14693e-20 0.618124)
(9.34641 -5.99478e-20 0.621579)
(9.07363 2.38189e-20 0.704051)
(9.18015 1.02665e-19 0.711345)
(8.87662 -6.76054e-20 0.795862)
(8.99568 -3.88247e-20 0.807071)
(8.66062 -3.83638e-22 0.894162)
(8.79276 8.89931e-21 0.909429)
(8.42523 -1.93511e-20 0.9995)
(8.571 -4.59758e-20 1.01904)
(8.16998 -3.34759e-20 1.11233)
(8.32996 4.74902e-21 1.13645)
(7.89438 -2.52283e-20 1.23295)
(8.06914 2.10994e-20 1.26208)
(7.59786 -6.49583e-21 1.36143)
(7.78797 -1.25333e-21 1.39618)
(7.27979 -5.27642e-20 1.49753)
(7.48581 1.28739e-21 1.53874)
(6.93944 3.32105e-21 1.64059)
(7.16191 -3.06574e-20 1.68939)
(6.57594 1.90755e-21 1.78929)
(6.8154 -5.25753e-20 1.84728)
(6.18823 -1.31043e-19 1.94155)
(6.4452 -3.86355e-20 2.01087)
(5.775 -7.93977e-20 2.09426)
(6.04996 -1.8253e-19 2.17776)
(5.33467 1.47557e-19 2.24306)
(5.62803 -5.00353e-22 2.34443)
(4.86548 1.45455e-19 2.38223)
(5.17739 1.19495e-19 2.50604)
(4.36555 -1.92021e-19 2.50465)
(4.69577 5.94915e-20 2.65632)
(3.83315 -2.54557e-19 2.60203)
(4.18077 -2.53302e-19 2.7875)
(3.26721 -1.34713e-19 2.66553)
(3.63026 2.56897e-19 2.89065)
(2.66791 -6.89997e-20 2.68685)
(3.04304 6.68372e-20 2.95641)
(2.03729 7.546e-20 2.66014)
(2.41964 -2.12812e-19 2.97639)
(1.37991 1.3478e-19 2.58634)
(1.76424 7.55057e-20 2.94534)
(0.702199 2.46302e-20 2.44227)
(1.06556 2.09527e-20 2.86814)
(0.54711 -6.09617e-20 2.68185)
(9.97713 1.6634e-21 0.130746)
(9.98154 7.98659e-22 0.0942591)
(9.93328 -9.46724e-23 0.211384)
(9.95544 -8.08883e-22 0.1821)
(9.86926 -1.65705e-21 0.289714)
(9.90825 1.67223e-21 0.266052)
(9.786 3.63522e-21 0.368453)
(9.83637 1.74147e-21 0.349366)
(9.68436 -1.76109e-22 0.449332)
(9.74443 1.13364e-19 0.434222)
(9.56483 -1.31161e-19 0.53353)
(9.63531 -3.66904e-21 0.522052)
(9.42761 -6.01076e-20 0.622012)
(9.50934 -1.29326e-19 0.613939)
(9.27273 6.62614e-20 0.715657)
(9.3662 6.72587e-20 0.710848)
(9.10008 3.82305e-20 0.815271)
(9.20569 -1.26519e-19 0.813668)
(8.90944 3.82768e-20 0.921599)
(9.02768 1.01449e-19 0.923218)
(8.70047 -3.73872e-20 1.03533)
(8.83191 4.46799e-21 1.04026)
(8.47275 -2.12443e-20 1.15709)
(8.618 -9.2526e-21 1.1655)
(8.2258 5.95428e-20 1.2874)
(8.38548 -1.37362e-20 1.29957)
(7.95906 4.48159e-20 1.42664)
(8.13379 2.01826e-20 1.44298)
(7.67187 6.56718e-21 1.57497)
(7.86226 2.56533e-20 1.59607)
(7.36349 2.30561e-20 1.73227)
(7.57013 -3.93546e-21 1.75895)
(7.03303 -8.69334e-20 1.898)
(7.25648 2.14543e-20 1.9314)
(6.6794 -9.30554e-20 2.07106)
(6.92021 -6.0204e-20 2.11275)
(6.30124 -9.18573e-20 2.24962)
(6.55996 1.22855e-20 2.30173)
(5.89684 -1.01426e-19 2.43086)
(6.17402 -1.43374e-21 2.49626)
(5.46407 -2.747e-20 2.61078)
(5.76026 0 2.69323)
(5.00038 3.26531e-20 2.78396)
(5.31605 8.31696e-20 2.88822)
(4.50293 -5.20183e-21 2.94342)
(4.83829 -5.6433e-20 3.07529)
(3.96884 2.65723e-19 3.08073)
(4.32359 -2.99517e-19 3.24683)
(3.39584 4.57417e-19 3.18638)
(3.76866 -1.13448e-19 3.3936)
(2.7831 -8.03777e-20 3.25089)
(3.17111 7.18956e-20 3.5053)
(2.1322 -2.0971e-19 3.26653)
(2.53036 -4.62054e-21 3.57186)
(1.44801 -3.90492e-20 3.23249)
(1.85171 -7.20244e-20 3.58548)
(0.736192 -5.84265e-20 3.12157)
(1.11726 -5.27997e-22 3.55014)
(0.566442 -7.94341e-20 3.40563)
(9.97744 -1.71772e-21 0.14663)
(9.98167 7.98598e-22 0.104828)
(9.93455 9.90613e-22 0.237681)
(9.95634 -2.45069e-21 0.202822)
(9.87247 5.07628e-21 0.326552)
(9.9107 1.06339e-19 0.296989)
(9.792 1.12938e-19 0.415995)
(9.8413 5.15774e-21 0.390687)
(9.69391 1.08332e-19 0.507826)
(9.75274 -3.55242e-21 0.486106)
(9.57865 -3.48937e-21 0.603368)
(9.64779 1.12518e-19 0.58481)
(9.44645 5.51758e-22 0.70371)
(9.52675 6.07339e-20 0.68802)
(9.29733 -1.27961e-19 0.809831)
(9.38932 3.89989e-21 0.796805)
(9.1312 -6.03856e-20 0.922634)
(9.23532 -6.53486e-20 0.912148)
(8.94782 6.64171e-20 1.04296)
(9.0646 8.49763e-21 1.03497)
(8.74685 3.24231e-20 1.17158)
(8.87693 -1.73545e-20 1.16612)
(8.52785 -1.8123e-21 1.30922)
(8.6719 5.00395e-20 1.30642)
(8.29028 -5.26973e-20 1.4565)
(8.449 -4.6812e-21 1.45658)
(8.03348 1.0796e-21 1.6139)
(8.2076 -1.98416e-20 1.61724)
(7.75669 1.47899e-20 1.78171)
(7.94695 9.6652e-23 1.78888)
(7.45897 -5.24909e-21 1.95996)
(7.66611 -2.08672e-20 1.97175)
(7.1392 4.73352e-20 2.1483)
(7.36396 0 2.16585)
(6.79599 4.61969e-20 2.34591)
(7.03912 2.57779e-20 2.37076)
(6.42763 1.02918e-19 2.55128)
(6.68988 -4.81513e-20 2.58554)
(6.03196 1.00439e-19 2.76202)
(6.31411 1.98899e-19 2.80853)
(5.60629 1.12091e-19 2.9746)
(5.90917 0 3.03712)
(5.14738 -7.78156e-21 3.18407)
(5.47181 1.37794e-19 3.26747)
(4.6515 -3.54932e-19 3.38381)
(4.99814 7.47804e-20 3.49415)
(4.1147 -6.79247e-19 3.56537)
(4.48376 -5.97476e-21 3.70989)
(3.53353 -4.99222e-19 3.71864)
(3.92416 -4.35592e-19 3.9053)
(2.90605 1.47366e-19 3.83264)
(3.31551 6.24487e-20 4.0691)
(2.23338 1.33355e-19 3.89714)
(2.65569 2.09245e-19 4.18897)
(1.52142 -3.24835e-20 3.90845)
(1.95106 -1.42465e-19 4.25317)
(0.780367 -2.25198e-20 3.83834)
(1.18214 1.8458e-19 4.26119)
(0.59646 1.85975e-20 4.15581)
(9.97803 0 0.162127)
(9.98189 7.90683e-22 0.115123)
(9.93646 1.04363e-19 0.263172)
(9.9576 8.1071e-22 0.222908)
(9.87662 1.0506e-19 0.362102)
(9.91385 -1.72041e-21 0.326809)
(9.79931 -1.11388e-19 0.461777)
(9.84728 3.43763e-21 0.430389)
(9.7052 2.18438e-21 0.56409)
(9.76248 -1.13222e-19 0.535887)
(9.59474 1.76035e-19 0.670485)
(9.66216 1.1532e-19 0.644962)
(9.46816 6.33313e-20 0.782167)
(9.5466 5.67125e-20 0.758959)
(9.3255 6.55898e-20 0.900216)
(9.41551 1.3079e-19 0.879053)
(9.16667 4.46511e-21 1.02563)
(9.26873 6.48595e-20 1.00632)
(8.99143 -7.55716e-20 1.15934)
(9.10613 -6.69491e-20 1.14179)
(8.79944 1.10389e-21 1.30224)
(8.92746 -2.59921e-20 1.2864)
(8.59025 4.64837e-20 1.45515)
(8.73235 9.75275e-20 1.44108)
(8.36326 2.79895e-20 1.61881)
(8.52023 2.83409e-20 1.60669)
(8.11773 -2.05823e-20 1.79385)
(8.29044 7.59666e-20 1.78398)
(7.85276 -3.58375e-20 1.98072)
(8.04212 -1.03377e-20 1.97361)
(7.56723 -1.53741e-20 2.17967)
(7.77419 3.05994e-20 2.17607)
(7.25976 -2.13288e-20 2.39061)
(7.48534 5.29271e-21 2.39159)
(6.92864 -6.96339e-20 2.61304)
(7.17387 9.4946e-21 2.62011)
(6.57175 5.07103e-20 2.84588)
(6.83773 -4.84955e-21 2.86107)
(6.18645 9.60448e-20 3.08726)
(6.47437 1.41178e-21 3.11336)
(5.76946 2.71163e-20 3.33426)
(6.08059 1.24029e-20 3.37498)
(5.31677 2.20425e-19 3.58259)
(5.65244 -6.12063e-20 3.64283)
(4.8237 4.25968e-19 3.82615)
(5.18515 -4.85468e-20 3.91222)
(4.28509 2.3633e-19 4.05669)
(4.67319 2.62409e-19 4.17643)
(3.69593 1.35556e-19 4.26355)
(4.11054 2.38338e-19 4.42619)
(3.05261 1.2667e-19 4.434)
(3.49144 -1.08794e-19 4.64931)
(2.35502 -7.13364e-20 4.55394)
(2.81095 2.50685e-19 4.83089)
(1.61044 7.92746e-20 4.61174)
(2.07341 -2.02837e-19 4.95305)
(0.844559 2.28185e-19 4.55811)
(1.25128 1.46524e-19 4.99765)
(0.612721 8.86662e-21 4.82208)
(9.97882 1.57832e-21 0.177103)
(9.98219 7.90605e-22 0.125048)
(9.93886 -1.05274e-19 0.287703)
(9.95915 8.10576e-22 0.242214)
(9.88158 -1.0323e-19 0.396196)
(9.91759 1.08748e-19 0.355359)
(9.80777 5.87288e-23 0.505593)
(9.85417 -3.35354e-21 0.468297)
(9.71806 2.92736e-21 0.61787)
(9.7735 7.02441e-21 0.583342)
(9.6129 -4.70668e-21 0.734573)
(9.67826 -1.26829e-19 0.702237)
(9.49251 1.25112e-19 0.857016)
(9.56869 -5.69985e-23 0.826435)
(9.35697 1.2921e-19 0.986377)
(9.44453 7.76743e-21 0.957214)
(9.20618 -8.21919e-21 1.12375)
(9.30566 8.06395e-21 1.09575)
(9.03994 -1.68617e-20 1.27018)
(9.15195 -1.63469e-20 1.24315)
(8.85791 7.19687e-20 1.42665)
(8.9832 -1.71654e-20 1.40048)
(8.65962 7.85285e-20 1.59412)
(8.79902 -5.20616e-20 1.56879)
(8.44446 7.69137e-20 1.77346)
(8.59887 -9.14753e-21 1.74905)
(8.21163 8.51876e-20 1.96548)
(8.38204 9.53299e-21 1.94222)
(7.96011 5.66342e-20 2.17086)
(8.14761 1.00095e-20 2.14914)
(7.68864 5.09956e-20 2.3901)
(7.89444 1.56923e-20 2.37056)
(7.39559 3.62222e-20 2.62346)
(7.62101 -5.04818e-21 2.60708)
(7.07894 7.43007e-20 2.87083)
(7.32545 2.52097e-20 2.85901)
(6.73618 -5.43183e-20 3.13167)
(7.00535 3.80829e-20 3.12632)
(6.36419 -8.25023e-20 3.40475)
(6.65771 -9.06182e-20 3.4085)
(5.95905 -7.71733e-20 3.68795)
(6.27877 7.32808e-21 3.70439)
(5.5159 -3.32471e-19 3.97782)
(5.86386 1.12641e-20 4.01183)
(5.02897 -2.11351e-19 4.26908)
(5.40722 -2.30726e-19 4.32714)
(4.49158 2.64716e-19 4.55398)
(4.902 -1.16034e-20 4.64452)
(3.89665 -1.10552e-20 4.82162)
(4.34026 2.35978e-19 4.95524)
(3.23777 1.95786e-20 5.05759)
(3.71366 -3.96369e-20 5.24667)
(2.5113 1.13541e-19 5.24394)
(3.01327 9.96556e-21 5.50176)
(1.7188 -1.30773e-19 5.36359)
(2.23947 9.18799e-20 5.69859)
(0.857579 -7.47853e-20 5.34973)
(1.35922 -3.40564e-20 5.82468)
(0.639793 2.08854e-19 5.81652)
(9.97977 0 0.19145)
(9.98254 0 0.134527)
(9.94168 2.16234e-19 0.311134)
(9.96094 3.19764e-21 0.260616)
(9.88724 2.07118e-19 0.428671)
(9.92183 -1.03496e-22 0.382492)
(9.81726 3.75638e-21 0.547249)
(9.86189 -3.37428e-21 0.50424)
(9.73235 -1.24423e-19 0.668928)
(9.7857 6.99326e-21 0.628262)
(9.63295 -1.2049e-19 0.795346)
(9.69594 -2.50228e-19 0.756382)
(9.5193 -1.17215e-19 0.927916)
(9.59285 1.46798e-20 0.890145)
(9.39149 -1.13292e-19 1.06791)
(9.4762 -2.4352e-19 1.03093)
(9.24947 -3.72925e-22 1.21653)
(9.34588 8.47535e-23 1.17999)
(9.09305 -1.66609e-20 1.3749)
(9.20183 -8.86243e-23 1.33855)
(8.92192 -1.4158e-19 1.54415)
(9.04385 1.24348e-19 1.50778)
(8.73564 -1.39164e-19 1.72534)
(8.87161 -7.05844e-20 1.68882)
(8.53359 -7.62742e-20 1.91952)
(8.68459 7.06684e-20 1.88284)
(8.31494 -6.56219e-20 2.1277)
(8.48209 -6.64199e-20 2.09094)
(8.07863 -3.08715e-20 2.35081)
(8.2632 -9.61212e-21 2.31422)
(7.82331 -4.06206e-20 2.58967)
(8.02672 -2.07176e-20 2.55373)
(7.54721 -1.57479e-20 2.84496)
(7.77109 -1.03603e-20 2.81043)
(7.24807 -1.09627e-20 3.11709)
(7.49433 -1.60141e-20 3.08515)
(6.92301 4.19272e-22 3.40612)
(7.19381 2.15713e-20 3.3785)
(6.5684 5.16885e-22 3.71163)
(6.8661 -5.23933e-21 3.69073)
(6.1797 9.64349e-20 4.03252)
(6.5069 -5.17463e-21 4.02166)
(5.75122 1.12183e-19 4.36648)
(6.11089 8.91184e-20 4.37037)
(5.27592 -2.73909e-20 4.70949)
(5.67127 1.28517e-20 4.73461)
(4.74536 -3.93709e-20 5.05484)
(5.17964 -3.98464e-20 5.1101)
(4.14975 2.06082e-19 5.39205)
(4.62582 1.97043e-19 5.48943)
(3.47862 -4.945e-20 5.70552)
(3.9982 2.58684e-19 5.86045)
(2.7225 -1.25264e-20 5.97307)
(3.28251 1.20643e-19 6.20462)
(1.87884 1.88254e-19 6.16477)
(2.46938 -2.22983e-19 6.49285)
(0.993465 2.46631e-19 6.18099)
(1.48831 -5.2438e-19 6.6683)
(0.692128 2.48704e-20 6.42317)
(9.98086 3.23866e-21 0.205075)
(9.98295 0 0.143497)
(9.94487 -2.13099e-19 0.333338)
(9.96294 3.19696e-21 0.278004)
(9.89354 -2.10522e-19 0.459375)
(9.92652 -2.13329e-19 0.408073)
(9.82771 0 0.586559)
(9.87033 -2.12641e-19 0.538054)
(9.74797 -1.22167e-19 0.717037)
(9.79896 0 0.67045)
(9.65477 -1.11629e-19 0.85253)
(9.71506 -1.19538e-19 0.807153)
(9.54837 -1.14937e-19 0.994544)
(9.6189 7.30637e-21 0.949799)
(9.42889 -1.27041e-19 1.14444)
(9.51027 1.19437e-19 1.09985)
(9.29632 3.65806e-22 1.30351)
(9.38911 -7.86727e-21 1.25866)
(9.15051 1.4244e-19 1.47298)
(9.2554 8.0338e-21 1.42751)
(8.99121 1.92818e-19 1.65409)
(9.10901 -8.30456e-21 1.6077)
(8.818 1.409e-19 1.84804)
(8.94965 5.21842e-20 1.8005)
(8.63031 7.8831e-20 2.05606)
(8.77688 2.63779e-20 2.0072)
(8.42735 -9.7282e-21 2.27937)
(8.59005 1.82474e-20 2.22911)
(8.20807 4.09765e-22 2.51916)
(8.38831 4.58969e-20 2.46758)
(7.97111 9.68091e-21 2.77663)
(8.17051 2.91871e-20 2.72395)
(7.71466 -1.0691e-20 3.05291)
(7.93512 2.24249e-22 2.99961)
(7.43639 1.69707e-20 3.34905)
(7.68013 -3.0868e-20 3.29595)
(7.13317 1.56213e-20 3.66588)
(7.40291 2.71318e-20 3.61434)
(6.80095 -1.09481e-20 4.00396)
(7.09986 3.11691e-20 3.95601)
(6.43465 -1.18189e-20 4.3634)
(6.76635 0 4.32193)
(6.02782 -1.15669e-20 4.74347)
(6.39651 -1.17295e-20 4.71271)
(5.57219 0 5.14201)
(5.98264 -2.27478e-20 5.12814)
(5.05733 2.01698e-19 5.55438)
(5.51471 6.7663e-20 5.56637)
(4.47037 2.50674e-19 5.9718)
(4.98001 1.52873e-20 6.02269)
(3.79587 4.33849e-19 6.37903)
(4.36315 5.13187e-20 6.48731)
(3.01571 -9.76301e-20 6.75189)
(3.64485 -9.12818e-20 6.94325)
(2.10229 -9.52055e-19 7.06033)
(2.81062 1.98801e-19 7.36753)
(0.962102 -7.87189e-19 7.1497)
(1.70547 -3.09012e-19 7.76981)
(0.881063 1.49166e-18 7.87049)
(9.98206 0 0.217895)
(9.9834 1.965e-19 0.151903)
(9.94836 0 0.354197)
(9.9651 0 0.294283)
(9.90039 -2.1543e-19 0.488165)
(9.93156 3.23231e-21 0.43198)
(9.83899 -2.09799e-19 0.62335)
(9.87935 -2.14058e-19 0.569595)
(9.76475 1.00498e-21 0.761987)
(9.81308 -2.09887e-19 0.709727)
(9.67814 9.79199e-22 0.905872)
(9.73537 2.12018e-21 0.854338)
(9.57945 2.42969e-19 1.05659)
(9.64652 -7.17581e-21 1.00514)
(9.46883 2.36842e-19 1.2156)
(9.54636 1.12981e-19 1.16367)
(9.34631 0 1.38426)
(9.43487 1.2921e-19 1.33137)
(9.21183 -1.42762e-19 1.56389)
(9.3121 -1.58461e-20 1.5096)
(9.06518 -1.48024e-19 1.75585)
(9.17801 4.31286e-21 1.69973)
(8.90603 -6.25669e-20 1.96146)
(9.03238 -1.41653e-19 1.90316)
(8.7339 -3.42338e-20 2.18214)
(8.87486 -2.07655e-19 2.12133)
(8.54807 7.42006e-20 2.4193)
(8.70494 3.59317e-20 2.35573)
(8.34759 7.44594e-20 2.67444)
(8.52187 -1.24992e-22 2.60795)
(8.13116 1.9405e-20 2.94912)
(8.32465 -1.82655e-20 2.87966)
(7.89705 -2.02986e-20 3.24495)
(8.11187 3.88848e-20 3.17265)
(7.64296 -2.00732e-20 3.56367)
(7.88168 -1.18224e-19 3.48889)
(7.36583 4.27666e-20 3.90704)
(7.6316 0 3.83054)
(7.06159 4.18479e-20 4.27677)
(7.35829 2.42972e-22 4.19992)
(6.72487 0 4.67447)
(7.05724 4.21133e-20 4.59941)
(6.34866 -2.30918e-20 5.10147)
(6.72245 4.24866e-20 5.03154)
(5.92371 4.62417e-20 5.55837)
(6.34578 -1.06486e-19 5.49879)
(5.43779 -1.23401e-19 6.04413)
(5.91623 2.4686e-20 6.00312)
(4.87506 -1.90515e-19 6.55441)
(5.41898 -2.32317e-19 6.54486)
(4.21556 -5.04274e-19 7.0794)
(4.83523 -3.02719e-21 7.12054)
(3.43522 2.29445e-19 7.60307)
(4.14407 -5.1452e-19 7.72054)
(2.50392 9.12961e-19 8.13646)
(3.3642 7.54844e-19 8.33153)
(1.31601 2.27232e-18 8.5674)
(2.38262 2.4095e-19 9.03885)
(1.80435 -1.32811e-18 9.68977)
(9.98334 1.93942e-19 0.229846)
(9.98389 -1.22559e-22 0.159706)
(9.95208 3.27527e-21 0.373613)
(9.96739 -3.1293e-21 0.309387)
(9.90764 1.62129e-21 0.514912)
(9.93682 2.1039e-19 0.454122)
(9.85088 -2.1414e-19 0.657466)
(9.88874 2.09464e-19 0.598745)
(9.78242 -2.05986e-19 0.803591)
(9.82775 2.29558e-22 0.745949)
(9.70272 -6.18749e-21 0.955153)
(9.75648 2.29782e-19 0.897758)
(9.6121 -1.3546e-19 1.11381)
(9.67523 -7.17185e-21 1.05595)
(9.51077 5.66609e-21 1.28109)
(9.58389 -1.34083e-19 1.22215)
(9.39883 1.11497e-19 1.45842)
(9.4825 1.35095e-19 1.39782)
(9.27627 1.31374e-19 1.64722)
(9.37118 -3.14546e-20 1.58443)
(9.14299 8.81556e-21 1.84892)
(9.24997 4.81245e-20 1.78341)
(8.99877 -2.8748e-19 2.06498)
(9.11879 9.78165e-20 1.99627)
(8.84324 -1.34506e-19 2.29696)
(8.97742 -4.53736e-22 2.22455)
(8.67585 -3.87278e-20 2.5465)
(8.82549 1.55753e-19 2.46994)
(8.4958 -9.29483e-20 2.81535)
(8.66246 -7.34934e-20 2.73421)
(8.30198 1.88432e-21 3.10545)
(8.48756 -1.93347e-20 3.01936)
(8.09289 -6.08129e-20 3.41889)
(8.29967 3.86418e-20 3.32758)
(7.86648 -9.68222e-20 3.75808)
(8.09729 1.3181e-19 3.66135)
(7.62004 -4.25033e-20 4.12571)
(7.87836 0 4.02359)
(7.34989 1.00739e-21 4.5248)
(7.64016 -2.17621e-21 4.41764)
(7.05096 8.48073e-20 4.95873)
(7.37888 1.84259e-21 4.84746)
(6.71635 -4.24511e-20 5.43133)
(7.08929 1.20194e-19 5.31775)
(6.33663 -1.277e-19 5.94685)
(6.764 8.12676e-20 5.83424)
(5.89894 -8.54444e-20 6.50955)
(6.39278 1.11493e-19 6.40378)
(5.38581 -4.109e-20 7.12238)
(5.96083 -1.51405e-19 7.03416)
(4.7757 0 7.78312)
(5.44548 -1.38128e-19 7.7316)
(4.05384 0 8.46655)
(4.80509 -1.61958e-19 8.48898)
(3.27704 -4.48152e-21 9.07888)
(3.99839 3.34816e-20 9.22172)
(2.81886 -1.08375e-18 9.19447)
(2.83942 -3.57673e-19 9.56365)
(0.804669 -8.77508e-19 8.4183)
(9.98469 -1.97157e-19 0.240891)
(9.9844 -3.81549e-19 0.166877)
(9.95592 2.06851e-19 0.391539)
(9.96974 -4.6531e-21 0.32328)
(9.91509 4.18106e-19 0.539553)
(9.94225 1.80454e-20 0.474465)
(9.86308 4.20828e-19 0.688809)
(9.89846 4.16923e-19 0.625451)
(9.80056 4.38753e-19 0.841704)
(9.84296 4.08559e-19 0.77903)
(9.72799 2.25641e-19 1.00017)
(9.77836 1.28417e-19 0.937298)
(9.64573 -7.45798e-21 1.16593)
(9.70501 1.33822e-20 1.1021)
(9.55404 -1.17654e-21 1.34056)
(9.62283 7.40755e-20 1.27508)
(9.45307 -9.86691e-21 1.52557)
(9.53194 -2.05467e-19 1.45779)
(9.34293 -1.13575e-19 1.72242)
(9.43255 -1.58985e-20 1.65173)
(9.22362 1.37697e-19 1.93262)
(9.32483 -2.02056e-19 1.8584)
(9.09507 3.83214e-19 2.15776)
(9.2088 2.01849e-19 2.07936)
(8.95706 2.9145e-19 2.39951)
(9.08444 1.72073e-19 2.31629)
(8.80925 1.18175e-19 2.65969)
(8.95159 9.73725e-21 2.57097)
(8.6511 7.26126e-22 2.94029)
(8.80996 1.12746e-19 2.84538)
(8.48183 1.80737e-20 3.24356)
(8.65912 -1.54028e-20 3.14174)
(8.30032 2.32152e-19 3.57205)
(8.49837 -1.02149e-19 3.46255)
(8.10506 2.26914e-19 3.92875)
(8.32678 8.95986e-20 3.81077)
(7.89397 4.02825e-20 4.31717)
(8.14301 0 4.18988)
(7.66422 -1.20068e-21 4.74157)
(7.94529 4.04975e-20 4.60412)
(7.41183 3.8505e-20 5.20714)
(7.73116 -1.84671e-19 5.05876)
(7.13121 2.42846e-19 5.72035)
(7.49721 -2.17045e-19 5.56051)
(6.81453 3.2038e-19 6.28945)
(7.23869 9.40297e-20 6.11808)
(6.45044 4.34327e-20 6.92517)
(6.94893 -2.01693e-19 6.74323)
(6.02117 -2.48974e-19 7.64141)
(6.61794 3.11464e-19 7.4527)
(5.4946 -3.06487e-19 8.45618)
(6.22919 1.60318e-19 8.27234)
(4.79487 -8.85896e-20 9.39084)
(5.74559 -7.02911e-19 9.25202)
(3.68334 -3.1717e-19 10.4778)
(5.11073 4.18824e-19 10.5249)
(1.388 3.81769e-20 11.92)
(4.36308 -7.16792e-19 12.5034)
(2.50107 5.53178e-20 16.3995)
(-0.53416 -1.68957e-19 0.514223)
(-0.269285 2.65271e-20 0.752063)
(-1.39077 0 0.532847)
(-1.07475 1.13855e-20 0.776982)
(-2.30477 0 0.543264)
(-1.98896 0 0.829999)
(-3.26802 0 0.542218)
(-2.93873 0 0.866395)
(-4.26326 -1.14145e-20 0.529573)
(-3.92455 -4.11117e-22 0.880858)
(-5.27358 -5.64347e-21 0.508486)
(-4.93 -2.37307e-20 0.877714)
(-6.28317 1.24792e-20 0.480916)
(-5.93998 1.67124e-20 0.860029)
(-7.27665 6.36982e-21 0.447868)
(-6.93972 1.80132e-20 0.829485)
(-8.23841 -1.28757e-20 0.409805)
(-7.91419 -3.71956e-20 0.786824)
(-9.15202 -1.31747e-20 0.366905)
(-8.84759 3.2684e-23 0.732196)
(-9.99983 -1.36349e-20 0.319226)
(-9.72285 -2.68823e-20 0.665432)
(-10.7628 -1.39533e-20 0.26683)
(-10.5214 -8.12116e-23 0.586312)
(-11.4207 0 0.20987)
(-11.2234 0 0.494818)
(-11.9524 0 0.148622)
(-11.8077 -3.58029e-21 0.391333)
(-12.3369 0 0.0834657)
(-12.2528 -5.01942e-23 0.276774)
(-12.5537 0 0.0147848)
(-12.5377 -4.17908e-23 0.152675)
(-12.5844 0 -0.0572594)
(-12.642 3.32597e-21 0.0211036)
(-12.4115 6.94228e-22 -0.132242)
(-12.5473 -3.25586e-21 -0.116333)
(-12.0241 9.3522e-24 -0.20784)
(-12.2442 -5.26724e-21 -0.254762)
(-11.4212 3.89671e-21 -0.280683)
(-11.7277 -3.20384e-21 -0.387543)
(-10.6095 5.13479e-21 -0.348128)
(-11.0012 2.64195e-21 -0.509857)
(-9.60286 -1.61049e-23 -0.408087)
(-10.0754 2.2312e-21 -0.617954)
(-8.42081 -5.02155e-21 -0.459095)
(-8.96734 -2.20521e-21 -0.709056)
(-7.08725 -8.34851e-21 -0.500473)
(-7.69956 1.02669e-20 -0.781711)
(-5.62743 -6.03257e-21 -0.532312)
(-6.29906 5.98285e-21 -0.836226)
(-4.06608 -3.67648e-21 -0.556154)
(-4.79523 -8.79211e-22 -0.87405)
(-2.42268 -1.35346e-21 -0.580502)
(-3.20951 -5.23191e-22 -0.899087)
(-0.669294 3.14369e-23 -0.608617)
(-1.54387 -1.99674e-23 -0.937509)
(1.23374 5.44563e-22 -0.716755)
(0.361357 1.48869e-21 -0.994643)
(2.79174 -3.33258e-22 -1.25853)
(-0.846712 2.23086e-19 1.14068)
(-0.445326 2.01505e-19 1.38367)
(-1.69416 1.15426e-20 1.21515)
(-1.26599 -1.74994e-22 1.59173)
(-2.61385 0 1.27203)
(-2.19246 1.13367e-20 1.68905)
(-3.57821 -4.06341e-22 1.30347)
(-3.13469 -6.8164e-20 1.74406)
(-4.56922 -1.33302e-20 1.30978)
(-4.10616 4.4423e-20 1.76244)
(-5.57115 -2.76693e-21 1.2946)
(-5.09173 9.45776e-21 1.75028)
(-6.56914 2.25575e-20 1.26031)
(-6.07828 1.06244e-20 1.71139)
(-7.5484 -2.43529e-20 1.2081)
(-7.05242 3.66436e-20 1.64793)
(-8.49363 -2.49102e-20 1.13825)
(-8.00014 -3.79189e-20 1.5608)