/*--------------------------------*- C++ -*----------------------------------*\
| =========                 |                                                 |
| \\      /  F ield         | OpenFOAM: The Open Source CFD Toolbox           |
|  \\    /   O peration     | Version:  dev                                   |
|   \\  /    A nd           | Web:      www.OpenFOAM.org                      |
|    \\/     M anipulation  |                                                 |
\*---------------------------------------------------------------------------*/
FoamFile
{
    version     2.0;
    format      ascii;
    class       volVectorField;
    location    "0.24";
    object      Force;
}
// * * * * * * * * * * * * * * * * * * * * * * * * * * * * * * * * * * * * * //

dimensions      [1 1 -2 0 0 0 0];

internalField   uniform (0 0 0);

boundaryField
{
    inlet
    {
        type            calculated;
        value           nonuniform 0();
    }
    outlet
    {
        type            calculated;
        value           nonuniform 0();
    }
    flap
    {
        type            calculated;
        value           nonuniform List<vector> 
33
(
(2.38999 1.89615e-17 -1.00535)
(2.63764 1.11203e-21 0.287755)
(2.44624 1.60481e-17 0.00258886)
(2.45829 0 -0.0523685)
(2.52476 4.65158e-23 0.0135379)
(2.42332 1.61786e-17 -0.0186934)
(2.3974 -1.25889e-22 -0.0140076)
(2.40288 -7.00246e-40 -0.00215325)
(2.26907 8.84265e-23 -0.0475247)
(2.22488 -1.98504e-22 -0.0153408)
(2.11445 1.65847e-17 -0.0133868)
(2.03905 1.73425e-17 -0.0932969)
(1.45612 1.46753e-21 0.0652763)
(1.61283 -1.36193e-21 -0.306542)
(1.84853 -2.43795e-17 0.0749436)
(-0.689289 -7.28285e-19 0.323628)
(0.516421 8.35581e-18 0.883549)
(1.69763 -1.64192e-17 1.33466)
(1.90613 5.21586e-18 -0.816548)
(1.9476 -2.61337e-18 0.241026)
(1.93316 1.58755e-17 -0.0148915)
(2.01248 5.9622e-23 -0.0206832)
(1.98131 -5.82851e-23 -0.00200217)
(2.09598 7.92401e-24 -0.0106812)
(2.17014 -7.92743e-24 0.00330384)
(2.17016 -9.57357e-23 -0.0265665)
(2.32227 7.08913e-23 0.020275)
(2.40317 1.67689e-17 -0.0205112)
(2.30954 -1.83671e-40 -0.0547583)
(2.66932 1.93673e-22 0.159377)
(2.02774 1.27604e-17 -0.0899844)
(2.40766 -3.35434e-18 0.343749)
(3.19927 4.82639e-17 0.597787)
)
;
    }
    upperWall
    {
        type            calculated;
        value           nonuniform 0();
    }
    lowerWall
    {
        type            calculated;
        value           uniform (0 0 0);
    }
    frontAndBack
    {
        type            empty;
    }
    procBoundary4to1
    {
        type            processor;
        value           uniform (0 0 0);
    }
    procBoundary4to2
    {
        type            processor;
        value           uniform (0 0 0);
    }
    procBoundary4to3
    {
        type            processor;
        value           uniform (0 0 0);
    }
    procBoundary4to5
    {
        type            processor;
        value           uniform (0 0 0);
    }
}


// ************************************************************************* //
