/*--------------------------------*- C++ -*----------------------------------*\
| =========                 |                                                 |
| \\      /  F ield         | OpenFOAM: The Open Source CFD Toolbox           |
|  \\    /   O peration     | Version:  dev                                   |
|   \\  /    A nd           | Web:      www.OpenFOAM.org                      |
|    \\/     M anipulation  |                                                 |
\*---------------------------------------------------------------------------*/
FoamFile
{
    version     2.0;
    format      ascii;
    class       volVectorField;
    location    "1.33";
    object      Force;
}
// * * * * * * * * * * * * * * * * * * * * * * * * * * * * * * * * * * * * * //

dimensions      [1 1 -2 0 0 0 0];

internalField   uniform (0 0 0);

boundaryField
{
    inlet
    {
        type            calculated;
        value           nonuniform 0();
    }
    outlet
    {
        type            calculated;
        value           nonuniform 0();
    }
    flap
    {
        type            calculated;
        value           nonuniform List<vector> 
33
(
(2.49681 -1.11296e-21 -0.248568)
(2.39532 2.06027e-17 -0.585058)
(2.21195 5.92704e-18 -0.847865)
(1.96544 1.97947e-17 -0.998628)
(1.70204 -6.61446e-21 -1.0583)
(1.44332 -9.20156e-18 -1.05746)
(1.19913 1.20959e-22 -1.01478)
(0.978991 1.85212e-17 -0.942098)
(0.787033 -6.03635e-18 -0.85168)
(0.626635 5.12955e-18 -0.753567)
(0.501508 1.30471e-17 -0.6567)
(0.406749 1.6421e-17 -0.565503)
(0.330385 3.10422e-18 -0.476525)
(0.259245 1.53464e-17 -0.379784)
(0.180411 1.05737e-17 -0.264732)
(0.667398 -2.1175e-18 0.443555)
(0.457854 2.85759e-21 0.300423)
(0.215445 -8.94182e-18 0.143417)
(-0.10912 2.66271e-24 0.0108648)
(-0.108247 -1.11843e-17 0.0267606)
(-0.104872 -3.35508e-19 0.0406084)
(-0.100059 1.22211e-17 0.0511218)
(-0.0939294 -3.20948e-19 0.0586982)
(-0.0866385 3.09639e-19 0.0638276)
(-0.0784169 1.71611e-22 0.0667781)
(-0.0693404 -5.20395e-22 0.0673171)
(-0.0594407 -5.017e-19 0.0650942)
(-0.0490287 1.3144e-17 0.0598412)
(-0.0384476 5.87747e-39 0.0512683)
(-0.0272985 0 0.0387721)
(-0.0147786 -9.18355e-41 0.0218981)
(-0.00325255 2.12324e-17 0.00525806)
(-0.00491726 -3.7671e-17 0.0116937)
)
;
    }
    upperWall
    {
        type            calculated;
        value           nonuniform 0();
    }
    lowerWall
    {
        type            calculated;
        value           uniform (0 0 0);
    }
    frontAndBack
    {
        type            empty;
    }
    procBoundary4to1
    {
        type            processor;
        value           uniform (0 0 0);
    }
    procBoundary4to2
    {
        type            processor;
        value           uniform (0 0 0);
    }
    procBoundary4to3
    {
        type            processor;
        value           uniform (0 0 0);
    }
    procBoundary4to5
    {
        type            processor;
        value           uniform (0 0 0);
    }
}


// ************************************************************************* //
