/*--------------------------------*- C++ -*----------------------------------*\
| =========                 |                                                 |
| \\      /  F ield         | OpenFOAM: The Open Source CFD Toolbox           |
|  \\    /   O peration     | Version:  dev                                   |
|   \\  /    A nd           | Web:      www.OpenFOAM.org                      |
|    \\/     M anipulation  |                                                 |
\*---------------------------------------------------------------------------*/
FoamFile
{
    version     2.0;
    format      ascii;
    class       surfaceScalarField;
    location    "4.55";
    object      phi;
}
// * * * * * * * * * * * * * * * * * * * * * * * * * * * * * * * * * * * * * //

dimensions      [0 3 -1 0 0 0 0];

internalField   nonuniform List<scalar> 
5457
(
0.198201
0.00180087
0.19617
0.00203559
0.193862
0.00231376
0.191235
0.00263584
0.188286
0.00296019
0.185015
0.00328296
0.181415
0.00361138
0.177474
0.00395182
0.173174
0.00430889
0.168494
0.00468593
0.16341
0.00508583
0.157899
0.00551025
0.151933
0.00596126
0.145484
0.00644096
0.138525
0.00694951
0.131028
0.00748584
0.122969
0.00804736
0.114329
0.0086294
0.105095
0.00922394
0.0952673
0.00981874
0.0848631
0.0103974
0.0739196
0.0109385
0.0625017
0.0114142
0.0507093
0.0117898
0.0386836
0.012024
0.0266088
0.0120737
0.0146998
0.0119085
0.0034095
0.01129
-0.00220388
0.00561327
-0.0022039
0.199894
0.00190933
0.199119
0.00281393
0.197954
0.00348523
0.196427
0.00417102
0.194536
0.00486196
0.192279
0.0055522
0.18965
0.00625248
0.186638
0.00697497
0.183226
0.00772936
0.179396
0.00852233
0.175124
0.00935967
0.170388
0.0102458
0.165159
0.0111854
0.159409
0.0121829
0.15311
0.0132395
0.14623
0.014354
0.138744
0.0155223
0.130626
0.0167364
0.121858
0.017982
0.112431
0.0192367
0.102352
0.0204695
0.0916461
0.0216391
0.0803654
0.0226912
0.0685979
0.0235547
0.0564819
0.0241384
0.0442386
0.0243159
0.0322849
0.0238616
0.0214927
0.0220819
0.00953042
0.0175754
0.00732648
0.199746
0.00216469
0.199037
0.00352664
0.197941
0.00458713
0.196511
0.00561018
0.194751
0.00663322
0.192657
0.00765735
0.190227
0.0086952
0.187449
0.00976359
0.184311
0.0108764
0.180797
0.0120432
0.176886
0.0132727
0.172559
0.0145727
0.167788
0.0159514
0.162548
0.0174153
0.15681
0.0189681
0.150543
0.0206102
0.143716
0.0223381
0.136298
0.0241432
0.12826
0.0260095
0.119577
0.0279108
0.110231
0.0298078
0.10022
0.0316456
0.089555
0.0333519
0.0782781
0.0348289
0.066471
0.0359436
0.0542768
0.036509
0.0418949
0.0362428
0.0293293
0.0346471
0.0157906
0.031114
0.023117
0.199658
0.0025086
0.198949
0.00423802
0.19787
0.00567235
0.19646
0.00702934
0.194729
0.00837457
0.192678
0.00972048
0.190303
0.0110831
0.187595
0.0124828
0.184544
0.0139361
0.181139
0.0154552
0.177363
0.0170509
0.173201
0.0187345
0.168631
0.0205172
0.163631
0.0224078
0.158178
0.0244123
0.152243
0.026534
0.145798
0.0287719
0.138811
0.0311193
0.131248
0.0335616
0.123075
0.036075
0.114255
0.0386201
0.104757
0.0411381
0.0945503
0.0435548
0.0836125
0.0457637
0.0719402
0.0476138
0.0595412
0.0489067
0.0464112
0.049372
0.0324174
0.0486405
0.0171222
0.046409
0.0402392
0.199613
0.00289693
0.198896
0.00495816
0.197831
0.00674272
0.196441
0.00842771
0.194739
0.0100877
0.192725
0.0117466
0.190394
0.0134258
0.18774
0.0151485
0.184753
0.0169327
0.181422
0.0187926
0.177735
0.0207416
0.173675
0.0227941
0.169225
0.0249636
0.164366
0.0272604
0.159075
0.0296938
0.153329
0.0322699
0.147098
0.0349911
0.140351
0.0378549
0.133051
0.0408517
0.125155
0.0439614
0.116617
0.047151
0.10738
0.0503687
0.0973828
0.0535477
0.0865461
0.056597
0.0747918
0.0593658
0.0620458
0.0616511
0.0482259
0.0631909
0.0332587
0.0636071
0.0171356
0.0625319
0.0573747
0.199591
0.00330645
0.198869
0.00568281
0.197821
0.00779634
0.196458
0.00979923
0.194791
0.0117651
0.192822
0.0137283
0.190543
0.0157168
0.187949
0.0177545
0.185031
0.0198607
0.181778
0.0220526
0.178177
0.0243464
0.174213
0.0267582
0.16987
0.0293037
0.165128
0.0319962
0.159964
0.0348484
0.154354
0.0378697
0.148269
0.0410658
0.141672
0.0444404
0.134523
0.0479905
0.126771
0.0517045
0.118353
0.055561
0.109194
0.0595214
0.0992108
0.0635254
0.0882963
0.0675078
0.0763267
0.0713327
0.0632014
0.0747746
0.0488516
0.0775396
0.033296
0.079162
0.0168768
0.0789508
0.0742514
0.199583
0.00372394
0.198862
0.00640556
0.197834
0.00882999
0.196504
0.0111373
0.19488
0.013399
0.192962
0.0156591
0.190743
0.0179482
0.188218
0.0202911
0.185379
0.0227099
0.182215
0.0252244
0.178712
0.0278535
0.174856
0.0306157
0.170628
0.0335295
0.166007
0.0366116
0.160969
0.0398774
0.155489
0.0433402
0.149531
0.0470128
0.143056
0.0509051
0.136016
0.0550199
0.128351
0.0593596
0.119985
0.0639188
0.110825
0.0686753
0.100763
0.073582
0.0896815
0.0785847
0.0774548
0.0835563
0.0639813
0.088246
0.0492366
0.0922828
0.0333178
0.0950801
0.0167417
0.0955265
0.0909931
0.199582
0.00414175
0.198869
0.00711973
0.197865
0.00983849
0.196574
0.0124362
0.195
0.0149842
0.193139
0.0175319
0.190989
0.0201109
0.188544
0.0227478
0.185797
0.0254677
0.182736
0.0282938
0.179347
0.0312471
0.175614
0.0343507
0.171515
0.0376262
0.16703
0.0410922
0.162134
0.0447657
0.156797
0.0486681
0.150978
0.0528217
0.144632
0.0572397
0.137706
0.0619361
0.130128
0.0669279
0.121812
0.0722268
0.11265
0.0778293
0.102515
0.0837113
0.0912803
0.0898146
0.078831
0.0960021
0.0650748
0.102
0.0500194
0.107337
0.033805
0.111294
0.0169643
0.112367
0.107957
0.199586
0.00455452
0.198888
0.00781931
0.197914
0.0108167
0.196666
0.0136917
0.195145
0.0165152
0.193351
0.0193385
0.191279
0.0221952
0.188926
0.0251136
0.186283
0.0281213
0.183339
0.0312466
0.180078
0.0345134
0.176484
0.0379479
0.172534
0.0415745
0.168208
0.045414
0.163478
0.0494894
0.158307
0.0538304
0.152656
0.0584626
0.146478
0.0634077
0.139707
0.0686972
0.132264
0.0743616
0.124051
0.0804302
0.114953
0.0869198
0.104824
0.0938339
0.0935309
0.101102
0.0809593
0.10857
0.0670114
0.115945
0.0516906
0.122655
0.0351187
0.127865
0.017729
0.129756
0.125686
0.199595
0.00495759
0.198916
0.00849911
0.197975
0.0117608
0.196774
0.0148999
0.195314
0.0179859
0.193593
0.0210708
0.19161
0.0241916
0.189359
0.0273774
0.186831
0.0306602
0.184016
0.0340711
0.180898
0.0376382
0.177458
0.0413905
0.17368
0.0453532
0.169538
0.0495528
0.165001
0.0540205
0.160035
0.058788
0.154603
0.0638859
0.148648
0.069353
0.1421
0.0752346
0.134876
0.0815762
0.126872
0.0884253
0.117954
0.0958292
0.107975
0.103806
0.0967941
0.112277
0.0842645
0.121095
0.0702462
0.12996
0.0546711
0.138229
0.0375836
0.144951
0.0192342
0.148105
0.14492
0.199607
0.00534734
0.198952
0.00915426
0.198049
0.0126675
0.196899
0.0160564
0.195505
0.0193902
0.193865
0.0227218
0.191979
0.0260912
0.189839
0.0295302
0.187437
0.0330738
0.184763
0.0367552
0.181801
0.0406065
0.178537
0.0446589
0.174951
0.0489402
0.17102
0.0534821
0.166714
0.0583211
0.162004
0.0634917
0.156845
0.0690359
0.151183
0.0750065
0.144947
0.0814603
0.138055
0.0884594
0.130391
0.0960796
0.121818
0.104394
0.112206
0.113411
0.101388
0.123088
0.0891428
0.133334
0.0752442
0.143855
0.0594619
0.154009
0.0416661
0.162746
0.0218161
0.167955
0.166736
0.199622
0.00572155
0.198994
0.00978083
0.198132
0.0135323
0.197039
0.0171559
0.195717
0.020722
0.194166
0.0242848
0.192383
0.0278871
0.190362
0.0315634
0.188098
0.0353501
0.185579
0.039285
0.182791
0.0434017
0.179722
0.0477332
0.176353
0.0523107
0.172665
0.0571696
0.168632
0.0623506
0.164223
0.0678948
0.159397
0.073854
0.154105
0.0802898
0.148284
0.0872723
0.141847
0.094888
0.134683
0.103234
0.126688
0.112379
0.11773
0.122361
0.107592
0.13322
0.095991
0.14493
0.0825631
0.157279
0.0668216
0.169748
0.0482229
0.181343
0.0262099
0.189967
0.192946
0.199638
0.0060786
0.199041
0.0103756
0.198225
0.0143506
0.197193
0.0181932
0.195949
0.0219759
0.194491
0.0257539
0.192819
0.0295717
0.19093
0.0334664
0.188813
0.0374789
0.186461
0.0416478
0.183864
0.0460076
0.181009
0.0505937
0.177884
0.0554385
0.17447
0.0605842
0.170745
0.0660731
0.166685
0.0719502
0.162256
0.0782762
0.157418
0.0851202
0.152111
0.0925705
0.146261
0.10073
0.139801
0.109685
0.132652
0.119518
0.124664
0.130341
0.115614
0.142263
0.105185
0.155354
0.0928642
0.169596
0.0778255
0.184784
0.0588149
0.200352
0.0341886
0.214593
0.227135
0.199655
0.00641693
0.199092
0.0109358
0.198326
0.0151186
0.19736
0.0191641
0.196198
0.0231468
0.194841
0.0271227
0.193289
0.0311365
0.191537
0.0352312
0.189577
0.0394512
0.187404
0.0438321
0.185011
0.04841
0.182391
0.0532206
0.179532
0.0583016
0.17642
0.0636978
0.17304
0.069451
0.169376
0.0756107
0.165405
0.0822415
0.161093
0.089426
0.156395
0.0972603
0.151286
0.105831
0.145736
0.115225
0.139676
0.125569
0.132994
0.137013
0.125526
0.149723
0.116982
0.163893
0.106815
0.179758
0.0939716
0.197625
0.0764508
0.217872
0.0503709
0.240673
0.277505
0.199674
0.00673587
0.199146
0.0114595
0.198431
0.0158335
0.197535
0.020065
0.19646
0.0242302
0.195208
0.0283854
0.19378
0.0325774
0.19217
0.036854
0.190375
0.0412596
0.188391
0.045828
0.186214
0.0505961
0.183841
0.0556014
0.181263
0.0608849
0.178475
0.066488
0.17547
0.0724553
0.172238
0.0788408
0.168764
0.0857112
0.165029
0.0931548
0.161034
0.101248
0.156792
0.110065
0.152294
0.119715
0.147522
0.130331
0.142457
0.142069
0.137048
0.155124
0.131173
0.169763
0.124533
0.186394
0.116436
0.20572
0.105129
0.229178
0.0849578
0.260844
0.362463
0.0035469
-0.00354712
0.00761438
-0.00406845
0.0113869
-0.0037753
0.0146699
-0.00328851
0.0174724
-0.00281141
0.0198333
-0.00237337
0.0217884
-0.00197083
0.0233623
-0.00159223
0.0245652
-0.00122331
0.0253991
-0.000853691
0.0258643
-0.000482245
0.0259749
-0.00012555
0.0257774
0.000184273
0.0253494
0.000416784
0.0247838
0.000556799
0.0241775
0.000600353
0.0236165
0.000557991
0.0231633
0.000453517
0.0228544
0.000312662
0.0227034
0.000158203
0.0227053
8.81744e-06
0.0228344
-0.000114987
0.0230526
-0.000200802
0.0233285
-0.000255684
0.0236437
-0.00029208
0.0239874
-0.00031826
0.0243558
-0.000340604
0.0247513
-0.000365702
0.0251754
-0.000392251
-0.000399532
0.0035194
-0.00706675
0.00730099
-0.00785104
0.010866
-0.00734307
0.0140466
-0.00647479
0.0168394
-0.00561305
0.0192818
-0.00482821
0.0214112
-0.00411582
0.0232561
-0.00345533
0.0248372
-0.00282452
0.0261686
-0.00220481
0.0272538
-0.00158448
0.0280777
-0.000964342
0.0286232
-0.000374481
0.0289163
0.000112379
0.0290393
0.000424918
0.029087
0.000546507
0.0291361
0.000505712
0.0292375
0.000352269
0.0294107
0.000143115
0.0296457
-6.9651e-05
0.0299161
-0.000250979
0.0302049
-0.000389749
0.0305077
-0.000486313
0.0308188
-0.000546619
0.0311308
-0.000581026
0.0314378
-0.0005998
0.0317375
-0.000612647
0.0320313
-0.000629741
0.0323285
-0.000657664
-0.00064647
0.00327268
-0.0103397
0.00653484
-0.0111142
0.00948959
-0.0103007
0.0121045
-0.00909518
0.0143987
-0.00791605
0.0164087
-0.00685033
0.018176
-0.00589833
0.019737
-0.00503401
0.0211129
-0.00421999
0.0223205
-0.00343172
0.0233715
-0.00265239
0.0242798
-0.0018875
0.0250642
-0.00117219
0.025719
-0.000553956
0.0262307
-9.59553e-05
0.0266281
0.000142526
0.0269583
0.000172052
0.0272461
6.41816e-05
0.0274958
-0.000103343
0.0277086
-0.000275686
0.0278896
-0.000421629
0.0280383
-0.000524663
0.0281515
-0.000582495
0.0282275
-0.000602568
0.0282664
-0.000597163
0.0282695
-0.000577626
0.0282395
-0.000555111
0.0281846
-0.00054513
0.0281279
-0.000569392
-0.00063811
0.00301593
-0.0133559
0.00570517
-0.0138045
0.00798494
-0.0125832
0.00994712
-0.0110627
0.0116411
-0.00961844
0.0131012
-0.00832208
0.014377
-0.00718864
0.01551
-0.00618396
0.0165267
-0.00525545
0.0174484
-0.00437208
0.0182881
-0.00350872
0.0190547
-0.00266892
0.0197555
-0.00188652
0.0204027
-0.00121298
0.0209884
-0.000691345
0.021475
-0.000351161
0.0218435
-0.000200474
0.0220981
-0.000191235
0.0222451
-0.000247655
0.0222862
-0.000310498
0.0222224
-0.000348054
0.0220644
-0.000353351
0.0218319
-0.00033331
0.0215503
-0.000301251
0.021248
-0.000272473
0.020955
-0.000259614
0.0206939
-0.000266646
0.0204734
-0.000295215
0.0203083
-0.000372746
-0.000553139
0.00266403
-0.0160201
0.00471123
-0.0158528
0.00629074
-0.0141655
0.00756437
-0.0123415
0.00859669
-0.0106588
0.00943958
-0.00917594
0.0101576
-0.00792041
0.0107937
-0.00683601
0.0113748
-0.00585433
0.01192
-0.00493529
0.0124454
-0.00405039
0.0129553
-0.00319358
0.0134436
-0.00238864
0.013894
-0.00167555
0.014288
-0.00109551
0.0145997
-0.00067057
0.0147997
-0.000405196
0.0148836
-0.000276518
0.0148663
-0.000228419
0.0147701
-0.000208625
0.0146179
-0.00018661
0.0144301
-0.000152696
0.0142226
-0.000109646
0.0140056
-6.50752e-05
0.013783
-2.77354e-05
0.0135522
-4.13806e-06
0.0133103
2.20379e-06
0.0130601
-1.57712e-05
0.0128047
-8.61287e-05
-0.00037962
0.00217998
-0.0182004
0.00349693
-0.0171707
0.00434827
-0.0150195
0.00490417
-0.0129023
0.00525305
-0.0110151
0.00548685
-0.00941997
0.00565337
-0.00809972
0.0057802
-0.00697782
0.00589453
-0.00598539
0.00601711
-0.005075
0.006166
-0.00421518
0.00635056
-0.00339294
0.00656962
-0.00262169
0.00681284
-0.00193138
0.00706188
-0.00135526
0.00729585
-0.000912825
0.00748932
-0.000604067
0.00762172
-0.000411098
0.00768911
-0.000294476
0.00769678
-0.000211337
0.00765156
-0.000132758
0.00755825
-4.71727e-05
0.00741858
4.5633e-05
0.0072305
0.000141763
0.00698778
0.00023661
0.00668161
0.000326276
0.00630622
0.000404229
0.00587407
0.000445257
0.00544787
0.000371078
-3.00024e-05
0.00151879
-0.0197194
0.00202345
-0.0176764
0.00213202
-0.0151305
0.00196978
-0.0127446
0.00169157
-0.0107438
0.00137815
-0.009116
0.00105644
-0.00778985
0.000754695
-0.00669001
0.000500339
-0.00574671
0.000312502
-0.00490344
0.000205734
-0.00412392
0.000189696
-0.00339166
0.000265046
-0.00271121
0.000421366
-0.0021007
0.000634438
-0.00157957
0.000872915
-0.00116023
0.00109983
-0.000837088
0.00127898
-0.000593146
0.00138868
-0.000403571
0.00142008
-0.000238477
0.00137323
-7.79476e-05
0.00125317
8.44587e-05
0.00106495
0.000248864
0.00080846
0.000416462
0.000476542
0.000589663
5.72732e-05
0.000769343
-0.000455735
0.000943477
-0.0010381
0.00105614
-0.00160495
0.000968613
0.000553971
0.000687696
-0.0204073
0.00032898
-0.0173186
-0.000354576
-0.0144493
-0.0011941
-0.0119092
-0.00201845
-0.00992587
-0.00278488
-0.00835824
-0.00346909
-0.00711656
-0.00405472
-0.00611732
-0.00452983
-0.00528627
-0.00488697
-0.00456176
-0.00512412
-0.00390188
-0.00524408
-0.00328641
-0.00525648
-0.00271313
-0.00517991
-0.0021906
-0.00504199
-0.00172922
-0.00487678
-0.00133495
-0.00471867
-0.00100197
-0.00459988
-0.000715544
-0.00454575
-0.000457814
-0.00457031
-0.000210366
-0.00467765
3.66523e-05
-0.00486668
0.000284403
-0.00513655
0.000533119
-0.00548908
0.000786614
-0.00593024
0.00105144
-0.00646539
0.00132783
-0.00708269
0.00158659
-0.00772904
0.0017306
-0.00832958
0.00159947
0.00121663
-0.000228043
-0.0201795
-0.00157198
-0.0159756
-0.00306582
-0.0129576
-0.00451038
-0.0104686
-0.00582394
-0.00861817
-0.00696816
-0.007222
-0.00793146
-0.00616333
-0.00872032
-0.00534049
-0.00934561
-0.00467474
-0.0098183
-0.00410377
-0.0101523
-0.00358258
-0.0103631
-0.00309022
-0.0104677
-0.00262298
-0.0104874
-0.00218453
-0.0104487
-0.00178
-0.010382
-0.00141166
-0.0103173
-0.00107405
-0.0102824
-0.000754757
-0.0103028
-0.000438147
-0.0103987
-0.000111698
-0.0105809
0.000225471
-0.0108533
0.000567103
-0.0112154
0.000908956
-0.0116652
0.00125344
-0.0121992
0.00160548
-0.0128028
0.00195426
-0.0134356
0.0022448
-0.014036
0.00235865
-0.0145851
0.00217856
0.00185573
-0.00121769
-0.018962
-0.00363404
-0.01356
-0.00597572
-0.010618
-0.00805881
-0.00838909
-0.00984039
-0.00684199
-0.011312
-0.00575774
-0.0125008
-0.00498382
-0.013445
-0.00440758
-0.0141822
-0.0039505
-0.014744
-0.00355602
-0.0151575
-0.00318338
-0.0154473
-0.00281493
-0.015634
-0.00245078
-0.015739
-0.00209333
-0.0157878
-0.00174359
-0.0158085
-0.00140147
-0.0158272
-0.0010632
-0.0158701
-0.000716694
-0.0159643
-0.0003453
-0.0161319
5.80699e-05
-0.0163864
0.000485947
-0.0167321
0.000922484
-0.0171638
0.00135374
-0.0176712
0.00177732
-0.0182409
0.00219472
-0.0188485
0.00258415
-0.01945
0.00287123
-0.0200015
0.00293736
-0.0205189
0.00272548
0.00245994
-0.0024966
-0.0164656
-0.00604932
-0.0100081
-0.00929827
-0.00737094
-0.0120187
-0.00567204
-0.014217
-0.0046487
-0.0159512
-0.00403035
-0.0173036
-0.00364025
-0.0183516
-0.00337015
-0.0191582
-0.00315615
-0.0197739
-0.0029538
-0.0202392
-0.0027321
-0.0205853
-0.00248324
-0.020834
-0.00221643
-0.0210054
-0.00193585
-0.0211233
-0.00163837
-0.021213
-0.00132252
-0.0212989
-0.000985563
-0.0214058
-0.000615016
-0.0215593
-0.000193718
-0.0217832
0.000283615
-0.0220942
0.000802345
-0.0224947
0.00133207
-0.0229727
0.0018443
-0.0235095
0.0023301
-0.0240851
0.00278926
-0.0246739
0.00319469
-0.0252408
0.00346251
-0.0257592
0.00348259
-0.0262544
0.00324979
0.00302649
-0.00436037
-0.0121055
-0.00919312
-0.00517612
-0.0133322
-0.00323371
-0.0165867
-0.00242074
-0.0190748
-0.00216531
-0.020947
-0.00216463
-0.0223557
-0.00223985
-0.0234245
-0.00231151
-0.0242359
-0.00235648
-0.0248516
-0.00235115
-0.0253245
-0.00227288
-0.025692
-0.00212996
-0.0259715
-0.00195129
-0.0261748
-0.00174634
-0.0263233
-0.0015026
-0.0264456
-0.00121114
-0.0265673
-0.00087243
-0.0267086
-0.000479238
-0.0268924
-1.23098e-05
-0.0271462
0.000538698
-0.0274921
0.00115311
-0.0279313
0.00177982
-0.0284433
0.00236839
-0.0289982
0.00290031
-0.0295694
0.00337894
-0.0301355
0.00378203
-0.0306742
0.00402505
-0.0311711
0.00400584
-0.0316477
0.00375502
0.00355349
-0.00745941
-0.00464624
-0.0139896
0.00135332
-0.0187966
0.00157146
-0.0221592
0.000938695
-0.0245414
0.000212334
-0.0262632
-0.000449134
-0.0275309
-0.000980142
-0.0284902
-0.00136197
-0.0292172
-0.00164085
-0.0297594
-0.0018216
-0.0301788
-0.00186685
-0.0305214
-0.00180134
-0.0307908
-0.00169611
-0.0309826
-0.00156824
-0.0311195
-0.00137832
-0.0312406
-0.00110103
-0.0313716
-0.000750089
-0.031524
-0.000332581
-0.0317163
0.000177381
-0.0319826
0.000805859
-0.0323532
0.00152819
-0.0328288
0.00226356
-0.0333767
0.00292785
-0.0339504
0.00348883
-0.0345156
0.00396201
-0.0350583
0.00434552
-0.0355735
0.00456366
-0.0360575
0.00451567
-0.036521
0.00424671
0.00404743
-0.0122376
0.00759112
-0.0204893
0.00960424
-0.0255408
0.00662108
-0.0285204
0.0039151
-0.0304232
0.00211061
-0.0316932
0.000814676
-0.0325734
-0.000107779
-0.0332724
-0.00067254
-0.0338249
-0.00109944
-0.0342103
-0.00144848
-0.034505
-0.00158523
-0.0347836
-0.0015365
-0.0350215
-0.00147214
-0.0351767
-0.0014265
-0.0352717
-0.00129582
-0.0353682
-0.00101542
-0.0354965
-0.000630387
-0.0356517
-0.000183232
-0.0358411
0.000364027
-0.0361077
0.00107311
-0.0364986
0.00192329
-0.0370171
0.00278976
-0.037612
0.00353385
-0.0382115
0.00410266
-0.0387691
0.00453705
-0.039283
0.00487971
-0.0397738
0.00507734
-0.0402513
0.00501858
-0.0407105
0.00473371
0.00451984
-0.0180194
0.0256101
-0.0278051
0.019389
-0.0331612
0.0119752
-0.0347328
0.00548339
-0.0356467
0.00301992
-0.0364746
0.00163647
-0.0369399
0.000349825
-0.0373249
-0.000297015
-0.0377091
-0.00072614
-0.0378957
-0.00127398
-0.0380087
-0.00148507
-0.0382235
-0.00133502
-0.0384541
-0.00125509
-0.0385664
-0.00132744
-0.0385851
-0.00128922
-0.0386345
-0.000976668
-0.0387616
-0.000511693
-0.0389251
-2.557e-05
-0.0391042
0.000540444
-0.0393565
0.00132594
-0.039763
0.0023337
-0.040336
0.00337018
-0.0409965
0.00420511
-0.0416326
0.0047527
-0.042178
0.00509945
-0.0426489
0.00537048
-0.0431062
0.00555703
-0.0435822
0.00551952
-0.044052
0.00523078
0.00498169
0.207344
0.00704255
0.206838
0.0119601
0.206157
0.016514
0.205306
0.0209199
0.204289
0.025255
0.20311
0.0295762
0.201766
0.0339335
0.200257
0.0383766
0.198583
0.0429474
0.196742
0.0476805
0.194735
0.0526137
0.19256
0.0577855
0.190216
0.0632353
0.187704
0.069003
0.185026
0.0751338
0.182181
0.0816843
0.179167
0.0887224
0.176002
0.096315
0.172721
0.104522
0.169357
0.113422
0.165948
0.123116
0.162559
0.133711
0.159281
0.145338
0.15624
0.158158
0.153612
0.172385
0.15167
0.188333
0.15091
0.206477
0.152636
0.227451
0.16432
0.249159
0.264544
0.262239
0.212385
0.00733068
0.211911
0.0124268
0.211278
0.0171449
0.210492
0.0217087
0.209558
0.0261973
0.208476
0.0306681
0.20725
0.0351728
0.205879
0.0397603
0.204369
0.0444717
0.202719
0.0493426
0.200934
0.0544101
0.199017
0.0597118
0.196974
0.0652853
0.194813
0.0711693
0.192542
0.0774063
0.190176
0.0840501
0.187739
0.0911573
0.185275
0.0987746
0.182836
0.106955
0.180487
0.115765
0.178324
0.125271
0.176482
0.135544
0.175155
0.146656
0.174627
0.158678
0.17534
0.171666
0.178033
0.185636
0.184148
0.20036
0.196459
0.215138
0.216561
0.229057
0.244393
0.236712
0.21755
0.00759681
0.217115
0.0128539
0.216537
0.0177192
0.215824
0.022423
0.214982
0.0270464
0.214012
0.0316478
0.212918
0.0362788
0.211705
0.0409868
0.210378
0.0458124
0.208943
0.0507913
0.207406
0.0559591
0.205776
0.0613511
0.204067
0.0670025
0.202293
0.0729487
0.200474
0.0792285
0.19864
0.085885
0.196836
0.0929594
0.19512
0.100488
0.193564
0.108507
0.192266
0.117057
0.19136
0.126171
0.191025
0.135871
0.191509
0.146164
0.193151
0.157029
0.196425
0.168387
0.201983
0.180075
0.210597
0.191744
0.222794
0.20294
0.237901
0.213949
0.22377
0.258525
0.222844
0.00783787
0.222452
0.0132366
0.221936
0.01823
0.221304
0.0230547
0.220563
0.0277924
0.219717
0.0325027
0.218771
0.0372368
0.217731
0.0420399
0.216606
0.0469514
0.215404
0.0520065
0.214137
0.0572384
0.212819
0.0626794
0.21147
0.0683606
0.210112
0.074313
0.208776
0.0805682
0.207505
0.0871576
0.206356
0.0941087
0.205398
0.101443
0.204724
0.109178
0.204449
0.117327
0.204724
0.12589
0.20574
0.134847
0.207741
0.144156
0.211034
0.153729
0.215995
0.16342
0.223045
0.173022
0.232522
0.182264
0.244699
0.190763
0.260307
0.19834
0.203324
0.280752
0.228267
0.00805082
0.227924
0.0135696
0.227477
0.0186707
0.226936
0.0235953
0.226305
0.0284257
0.225594
0.0332213
0.224808
0.038033
0.223957
0.0429041
0.223049
0.0478721
0.222099
0.0529701
0.221122
0.0582285
0.220136
0.0636759
0.219167
0.0693386
0.218246
0.0752414
0.217412
0.0814073
0.216716
0.0878562
0.216224
0.094602
0.216015
0.101651
0.216188
0.109003
0.216867
0.116645
0.218198
0.124554
0.220358
0.132681
0.223568
0.140938
0.228085
0.149206
0.234179
0.157322
0.242113
0.165085
0.25212
0.172255
0.264424
0.178457
0.279349
0.183415
0.18619
0.296483
0.233824
0.00823267
0.233534
0.0138483
0.233163
0.0190347
0.232719
0.0240368
0.23221
0.0289368
0.231643
0.0337933
0.23103
0.0386556
0.23038
0.0435659
0.229705
0.0485593
0.229022
0.0536662
0.22835
0.0589134
0.227712
0.0643249
0.227139
0.0699217
0.226666
0.0757217
0.226341
0.081739
0.226218
0.0879824
0.226369
0.0944534
0.226875
0.101145
0.227837
0.10804
0.229372
0.115108
0.231614
0.122309
0.234725
0.129566
0.238889
0.136769
0.244296
0.143794
0.251118
0.150495
0.259514
0.156686
0.269613
0.162154
0.281441
0.166627
0.294961
0.169894
0.171322
0.309829
0.239517
0.00838053
0.239285
0.0140681
0.238995
0.0193161
0.238657
0.0243717
0.238278
0.0293167
0.237867
0.0342084
0.237436
0.0390943
0.236997
0.0440142
0.236567
0.049001
0.236164
0.0540824
0.235808
0.0592811
0.235529
0.0646159
0.235358
0.0701021
0.235338
0.0757506
0.235516
0.0815671
0.235953
0.0875505
0.236718
0.0936916
0.237892
0.0999719
0.239569
0.106363
0.241854
0.112822
0.244869
0.119291
0.248754
0.125678
0.253638
0.131881
0.259641
0.137788
0.266873
0.143261
0.275413
0.148143
0.285295
0.15227
0.296466
0.155455
0.308827
0.157532
0.157994
0.322154
0.24535
0.00849169
0.245179
0.0142247
0.244977
0.0195091
0.24475
0.0245931
0.244509
0.0295576
0.244263
0.034458
0.244024
0.0393396
0.243806
0.0442398
0.243629
0.0491887
0.243512
0.0542104
0.243481
0.0593242
0.243564
0.0645438
0.243797
0.0698787
0.244223
0.0753331
0.244892
0.0809051
0.245863
0.0865853
0.247203
0.0923558
0.248987
0.0981897
0.2513
0.10405
0.254233
0.10989
0.257888
0.115635
0.26237
0.121194
0.267764
0.126484
0.274144
0.131405
0.281569
0.135834
0.290064
0.139646
0.299614
0.142718
0.310145
0.144923
0.321534
0.146141
0.145968
0.333559
0.251326
0.00856364
0.25122
0.0143143
0.25111
0.0196089
0.251001
0.0246954
0.250904
0.0296529
0.250829
0.034535
0.250789
0.0393844
0.2508
0.0442358
0.250882
0.0491162
0.251056
0.0540462
0.25135
0.059041
0.251794
0.06411
0.252425
0.0692573
0.253285
0.0744814
0.254423
0.0797743
0.255895
0.0851199
0.257762
0.0904932
0.260093
0.0958619
0.26296
0.101185
0.266438
0.106413
0.270606
0.111467
0.275535
0.116265
0.281278
0.120739
0.287878
0.124804
0.295354
0.128356
0.303698
0.131301
0.312868
0.133547
0.322779
0.135011
0.333298
0.13562
0.135047
0.344218
0.257447
0.00859412
0.25741
0.0143335
0.257395
0.0196113
0.257409
0.0246736
0.257461
0.0295975
0.257562
0.034434
0.257727
0.0392235
0.257971
0.0439976
0.258315
0.0487802
0.258781
0.0535887
0.259398
0.058434
0.260196
0.0633214
0.261212
0.0682505
0.262487
0.0732147
0.264066
0.0782024
0.265999
0.0831929
0.268342
0.0881553
0.271154
0.0930541
0.274494
0.0978478
0.278424
0.102485
0.282995
0.106897
0.288248
0.111012
0.294217
0.11477
0.300919
0.118101
0.308351
0.120924
0.316482
0.123169
0.325254
0.124774
0.334578
0.125687
0.344331
0.125866
0.125044
0.354332
0.263717
0.00858125
0.263752
0.0142795
0.263836
0.019513
0.263976
0.024524
0.26418
0.0293875
0.264461
0.0341518
0.264833
0.0388543
0.265311
0.0435238
0.265917
0.0481812
0.266673
0.0528405
0.267606
0.0575092
0.268747
0.062189
0.27013
0.0668755
0.271794
0.0715582
0.273781
0.0762223
0.276136
0.0808445
0.278904
0.0853923
0.282133
0.0898294
0.28587
0.0941146
0.29016
0.098198
0.295035
0.102024
0.300516
0.105533
0.306618
0.108669
0.313342
0.111376
0.320667
0.113599
0.328551
0.115285
0.33693
0.116395
0.345716
0.116899
0.354803
0.116778
0.115808
0.364039
0.270139
0.00852353
0.270247
0.0141503
0.270432
0.0193114
0.270701
0.0242442
0.271061
0.0290207
0.271523
0.0336865
0.272101
0.0382761
0.272813
0.0428154
0.273677
0.0473223
0.274716
0.0518079
0.275956
0.0562766
0.277425
0.0607271
0.279156
0.0651521
0.281182
0.069539
0.283542
0.0738694
0.286273
0.0781191
0.289413
0.0822574
0.292997
0.0862494
0.297061
0.0900555
0.301631
0.0936312
0.306727
0.0969299
0.31236
0.0999029
0.318528
0.102503
0.325217
0.104688
0.332397
0.106419
0.34002
0.107662
0.348023
0.108392
0.356326
0.108596
0.364835
0.108268
0.107221
0.373423
0.276717
0.00841968
0.2769
0.0139443
0.277188
0.019005
0.277586
0.0238327
0.278101
0.0284962
0.278744
0.0330383
0.279529
0.0374904
0.28047
0.0418757
0.281586
0.0462094
0.282899
0.0504998
0.284433
0.0547491
0.286213
0.0589535
0.288268
0.0631038
0.290627
0.0671858
0.293322
0.0711801
0.296384
0.0750628
0.299841
0.0788047
0.303721
0.0823736
0.308047
0.0857339
0.312834
0.0888478
0.31809
0.0916772
0.323814
0.094182
0.329995
0.0963248
0.336609
0.0980754
0.343623
0.0994074
0.350986
0.1003
0.358638
0.100741
0.366508
0.100726
0.374515
0.10026
0.0991829
0.382553
0.283454
0.00826879
0.283712
0.0136606
0.284103
0.0185931
0.284631
0.0232894
0.285301
0.0278148
0.286123
0.032209
0.28711
0.0365008
0.288274
0.0407104
0.289634
0.0448509
0.291209
0.0489282
0.29302
0.0529426
0.29509
0.0568888
0.297443
0.0607563
0.300104
0.0645303
0.303098
0.0681917
0.306448
0.0717175
0.310176
0.0750814
0.314299
0.0782542
0.318831
0.081205
0.32378
0.0839025
0.329143
0.0863171
0.334912
0.0884166
0.341068
0.0901718
0.347583
0.0915626
0.354419
0.0925728
0.36153
0.0931908
0.368858
0.0934127
0.376342
0.093242
0.383914
0.0926883
0.0916149
0.391482
0.290353
0.00807037
0.290686
0.0132991
0.29118
0.0180761
0.291836
0.0226153
0.292659
0.0269786
0.293657
0.0312024
0.294839
0.0353127
0.29622
0.0393275
0.297813
0.0432576
0.299635
0.0471072
0.301706
0.0508751
0.304043
0.054555
0.306667
0.0581362
0.309598
0.0616039
0.312854
0.0649399
0.316453
0.0681233
0.320408
0.0711304
0.324729
0.0739362
0.329423
0.0765146
0.334487
0.078841
0.339916
0.0808919
0.345694
0.0826419
0.351798
0.0840705
0.358198
0.0851655
0.364855
0.0859173
0.371725
0.0863218
0.378758
0.0863805
0.385899
0.0861013
0.39309
0.0854967
0.0844494
0.400256
0.297417
0.00782434
0.297825
0.0128602
0.298421
0.0174551
0.299203
0.0218127
0.300176
0.025991
0.301343
0.0300234
0.302715
0.0339334
0.304301
0.0377365
0.306115
0.0414418
0.308169
0.0450522
0.31048
0.0485655
0.313062
0.051975
0.315931
0.05527
0.319101
0.0584368
0.322586
0.0614586
0.326396
0.0643166
0.330538
0.0669905
0.335018
0.0694593
0.339833
0.0717016
0.344978
0.0736993
0.350439
0.0754332
0.356201
0.0768839
0.362235
0.0780392
0.368511
0.0788919
0.374992
0.0794379
0.381637
0.0796778
0.388401
0.0796168
0.395237
0.0792654
0.402096
0.0786372
0.0776311
0.408914
0.304651
0.00753095
0.305133
0.0123451
0.305828
0.0167322
0.306734
0.0208848
0.30785
0.0248567
0.309181
0.0286786
0.310733
0.0323711
0.312515
0.035948
0.314535
0.0394168
0.316806
0.0427794
0.319337
0.0460331
0.322141
0.0491711
0.325229
0.0521836
0.328609
0.0550577
0.332291
0.0577787
0.336279
0.0603303
0.340576
0.0626955
0.34518
0.0648571
0.350085
0.0667982
0.35528
0.0685056
0.360751
0.0699649
0.366476
0.0711615
0.372429
0.072089
0.378578
0.0727444
0.38489
0.0731276
0.391326
0.0732423
0.397847
0.073096
0.404412
0.0727004
0.410979
0.0720693
0.0711155
0.417494
0.312059
0.00719077
0.312613
0.0117553
0.313404
0.0159101
0.314429
0.0198355
0.315684
0.0235813
0.317171
0.027175
0.318894
0.0306352
0.320859
0.0339737
0.323073
0.0371967
0.325542
0.0403055
0.328275
0.0432972
0.331279
0.0461654
0.33456
0.0489011
0.338125
0.0514929
0.341976
0.0539283
0.346113
0.0561934
0.350535
0.0582743
0.355235
0.0601573
0.360204
0.0618297
0.365428
0.0632824
0.37089
0.0645049
0.376567
0.0654868
0.382432
0.0662254
0.388456
0.0667213
0.394607
0.066977
0.400852
0.0669983
0.407154
0.0667939
0.413478
0.0663757
0.419789
0.0657572
0.0648633
0.42604
0.319643
0.0068046
0.320267
0.0110928
0.321152
0.0149919
0.322291
0.0186694
0.323678
0.0221708
0.325314
0.0255208
0.327198
0.0287355
0.329335
0.0318254
0.331727
0.0347956
0.334379
0.0376469
0.337294
0.0403764
0.340477
0.0429785
0.34393
0.045445
0.347655
0.0477664
0.351649
0.0499319
0.355911
0.0519304
0.360434
0.0537507
0.365207
0.0553824
0.37022
0.056816
0.375456
0.058046
0.380897
0.0590652
0.386518
0.0598662
0.392295
0.0604492
0.3982
0.0608172
0.404202
0.0609745
0.410272
0.0609281
0.416377
0.0606871
0.422489
0.0602632
0.428575
0.0596691
0.0588399
0.434597
0.327409
0.00637344
0.328101
0.0103599
0.329076
0.0139814
0.330323
0.0173916
0.331837
0.0206319
0.333612
0.023724
0.335648
0.0266822