/*--------------------------------*- C++ -*----------------------------------*\
| =========                 |                                                 |
| \\      /  F ield         | OpenFOAM: The Open Source CFD Toolbox           |
|  \\    /   O peration     | Version:  dev                                   |
|   \\  /    A nd           | Web:      www.OpenFOAM.org                      |
|    \\/     M anipulation  |                                                 |
\*---------------------------------------------------------------------------*/
FoamFile
{
    version     2.0;
    format      ascii;
    class       volVectorField;
    location    "3.8";
    object      cellDisplacement;
}
// * * * * * * * * * * * * * * * * * * * * * * * * * * * * * * * * * * * * * //

dimensions      [0 1 0 0 0 0 0];

internalField   nonuniform List<vector> 
465
(
(0.0115744 0 -7.66836e-05)
(0.0114988 0 -6.09929e-05)
(0.0113353 0 -4.91755e-05)
(0.011103 0 -4.02585e-05)
(0.010816 0 -3.34948e-05)
(0.010484 0 -2.83179e-05)
(0.0101129 0 -2.4302e-05)
(0.00970588 0 -2.11297e-05)
(0.00926358 0 -1.85651e-05)
(0.00878471 0 -1.64335e-05)
(0.0082663 0 -1.4605e-05)
(0.00770394 0 -1.29828e-05)
(0.00709187 0 -1.14933e-05)
(0.0064231 0 -1.00796e-05)
(0.00568935 0 -8.69583e-06)
(0.00488099 0 -7.30323e-06)
(0.00398697 0 -5.86662e-06)
(0.00299454 0 -4.35165e-06)
(0.00188909 0 -2.72225e-06)
(0.000653614 0 -9.37775e-07)
(0.0116392 0 -0.000223943)
(0.0115339 0 -0.000178712)
(0.0113503 0 -0.000144545)
(0.011105 0 -0.000118688)
(0.0108099 0 -9.90181e-05)
(0.010473 0 -8.39188e-05)
(0.0100994 0 -7.21709e-05)
(0.00969134 0 -6.28624e-05)
(0.00924898 0 -5.53141e-05)
(0.00877066 0 -4.90212e-05)
(0.00825318 0 -4.36078e-05)
(0.00769195 0 -3.87925e-05)
(0.00708114 0 -3.43612e-05)
(0.00641368 0 -3.01476e-05)
(0.00568127 0 -2.60174e-05)
(0.00487427 0 -2.18563e-05)
(0.00398162 0 -1.75602e-05)
(0.00299062 0 -1.30273e-05)
(0.00188667 0 -8.15026e-06)
(0.000652781 0 -2.80785e-06)
(0.0117547 0 -0.000353954)
(0.0115947 0 -0.000284347)
(0.0113744 0 -0.000231448)
(0.0111051 0 -0.000191179)
(0.010795 0 -0.000160366)
(0.0104494 0 -0.000136572)
(0.0100712 0 -0.000117946)
(0.0096614 0 -0.000103096)
(0.00921911 0 -9.098e-05)
(0.00874202 0 -8.08172e-05)
(0.00822645 0 -7.20248e-05)
(0.00766754 0 -6.41631e-05)
(0.00705927 0 -5.68962e-05)
(0.00639446 0 -4.99611e-05)
(0.00566474 0 -4.31438e-05)
(0.0048605 0 -3.62608e-05)
(0.00397067 0 -2.91437e-05)
(0.00298258 0 -2.16263e-05)
(0.00188169 0 -1.35325e-05)
(0.000651082 0 -4.66265e-06)
(0.011896 0 -0.000458217)
(0.011665 0 -0.000371826)
(0.011397 0 -0.000305561)
(0.0110967 0 -0.000254659)
(0.0107673 0 -0.000215353)
(0.0104107 0 -0.000184719)
(0.010027 0 -0.000160513)
(0.00961543 0 -0.00014103)
(0.00917378 0 -0.000124982)
(0.00869883 0 -0.000111397)
(0.00818631 0 -9.95415e-05)
(0.00763098 0 -8.88594e-05)
(0.00702654 0 -7.89205e-05)
(0.00636571 0 -6.93845e-05)
(0.00564005 0 -5.99715e-05)
(0.00483991 0 -5.04382e-05)
(0.00395428 0 -4.05588e-05)
(0.00297055 0 -3.01079e-05)
(0.00187425 0 -1.88446e-05)
(0.000648536 0 -6.49387e-06)
(0.0120314 0 -0.000531661)
(0.0117239 0 -0.000437361)
(0.0114045 0 -0.000364085)
(0.011071 0 -0.000307068)
(0.0107214 0 -0.00026247)
(0.0103536 0 -0.000227257)
(0.00996491 0 -0.000199063)
(0.0095524 0 -0.000176069)
(0.00911247 0 -0.000156879)
(0.00864091 0 -0.000140431)
(0.00813276 0 -0.000125911)
(0.00758234 0 -0.000112694)
(0.0069831 0 -0.00010029)
(0.00632759 0 -8.83065e-05)
(0.00560731 0 -7.64141e-05)
(0.00481263 0 -6.43221e-05)
(0.00393256 0 -5.17559e-05)
(0.00295458 0 -3.84371e-05)
(0.00186435 0 -2.40652e-05)
(0.000645148 0 -8.29431e-06)
(0.0121272 0 -0.00057293)
(0.0117489 0 -0.000479684)
(0.0113822 0 -0.000405918)
(0.0110186 0 -0.000347494)
(0.0106514 0 -0.000300982)
(0.0102745 0 -0.000263601)
(0.0098828 0 -0.000233139)
(0.00947117 0 -0.000207855)
(0.00903466 0 -0.000186395)
(0.00856808 0 -0.000167705)
(0.00806582 0 -0.000150965)
(0.00752177 0 -0.000135534)
(0.00692912 0 -0.0001209)
(0.00628027 0 -0.000106644)
(0.0055667 0 -9.24061e-05)
(0.00477878 0 -7.78612e-05)
(0.0039056 0 -6.26957e-05)
(0.00293475 0 -4.65859e-05)
(0.00185204 0 -2.91772e-05)
(0.000640931 0 -1.00581e-05)
(0.0121525 0 -0.000584112)
(0.0117191 0 -0.000499915)
(0.0113163 0 -0.000431603)
(0.0109307 0 -0.000376149)
(0.0105517 0 -0.000330918)
(0.0101702 0 -0.000293691)
(0.00977875 0 -0.000262638)
(0.00937072 0 -0.000236276)
(0.0089399 0 -0.000213419)
(0.00848024 0 -0.000193116)
(0.00798559 0 -0.000174614)
(0.00744945 0 -0.000157303)
(0.00686482 0 -0.000140686)
(0.00622399 0 -0.000124342)
(0.00551842 0 -0.000107901)
(0.00473854 0 -9.10177e-05)
(0.00387354 0 -7.33486e-05)
(0.00291116 0 -5.45325e-05)
(0.00183737 0 -3.41669e-05)
(0.0006359 0 -1.17805e-05)
(0.0120829 0 -0.000570085)
(0.011618 0 -0.000501168)
(0.0111957 0 -0.000443091)
(0.0108001 0 -0.000394225)
(0.0104177 0 -0.00035299)
(0.0100378 0 -0.000317934)
(0.00965127 0 -0.000287782)
(0.00925034 0 -0.000261441)
(0.00882795 0 -0.000237992)
(0.00837745 0 -0.00021667)
(0.00789227 0 -0.000196841)
(0.00736567 0 -0.000177973)
(0.0067905 0 -0.000159615)
(0.00615903 0 -0.00014137)
(0.00546273 0 -0.000122871)
(0.00469213 0 -0.000103766)
(0.00383654 0 -8.36937e-05)
(0.00288391 0 -6.22609e-05)
(0.00182042 0 -3.90241e-05)
(0.000630078 0 -1.34578e-05)
(0.0119033 0 -0.000537665)
(0.011435 0 -0.000488002)
(0.0110135 0 -0.000443387)
(0.0106221 0 -0.00040368)
(0.0102467 0 -0.000368452)
(0.00987577 0 -0.000337123)
(0.0094996 0 -0.000309063)
(0.0091098 0 -0.000283646)
(0.0086989 0 -0.000260289)
(0.00825997 0 -0.000238462)
(0.00778622 0 -0.000217694)
(0.0072708 0 -0.000197564)
(0.00670654 0 -0.000177691)
(0.00608572 0 -0.000157718)
(0.00539992 0 -0.000137302)
(0.00463978 0 -0.000116093)
(0.00379481 0 -9.37168e-05)
(0.00285314 0 -6.97594e-05)
(0.00180126 0 -4.3741e-05)
(0.000623494 0 -1.50874e-05)
(0.0116093 0 -0.000494675)
(0.0111668 0 -0.00046579)
(0.0107673 0 -0.000436137)
(0.0103954 0 -0.000406958)
(0.010038 0 -0.000378927)
(0.00968397 0 -0.000352324)
(0.00932388 0 -0.000327172)
(0.00894944 0 -0.000303333)
(0.00855324 0 -0.000280586)
(0.00812834 0 -0.00025866)
(0.00766798 0 -0.000237272)
(0.00716537 0 -0.000216129)
(0.00661341 0 -0.000194937)
(0.0060045 0 -0.000173396)
(0.00533036 0 -0.000151193)
(0.00458181 0 -0.000127989)
(0.00374856 0 -0.000103409)
(0.00281903 0 -7.70202e-05)
(0.00178 0 -4.83119e-05)
(0.000616181 0 -1.66671e-05)
(0.0112074 0 -0.00044902)
(0.0108178 0 -0.000440085)
(0.0104601 0 -0.000425197)
(0.0101221 0 -0.000406709)
(0.00979318 0 -0.000386218)
(0.0094637 0 -0.00036475)
(0.00912528 0 -0.000342915)
(0.00877033 0 -0.000321033)
(0.00839191 0 -0.000299226)
(0.00798341 0 -0.000277483)
(0.00753832 0 -0.000255709)
(0.00705006 0 -0.000233747)
(0.00651171 0 -0.000211398)
(0.00591587 0 -0.000188424)
(0.00525446 0 -0.00016455)
(0.00451854 0 -0.000139456)
(0.00369807 0 -0.000112767)
(0.00278177 0 -8.40378e-05)
(0.00175676 0 -5.27325e-05)
(0.000608183 0 -1.81952e-05)
(0.010714 0 -0.000407851)
(0.010399 0 -0.000416034)
(0.0100994 0 -0.00041423)
(0.00980755 0 -0.000405512)
(0.00951607 0 -0.000392122)
(0.0092178 0 -0.00037564)
(0.00890598 0 -0.000357139)
(0.0085742 0 -0.000337315)
(0.00821634 0 -0.000316587)
(0.00782637 0 -0.000295177)
(0.00739823 0 -0.000273161)
(0.00692569 0 -0.000250514)
(0.00640212 0 -0.000227129)
(0.0058204 0 -0.000202832)
(0.0051727 0 -0.000177388)
(0.00445036 0 -0.000150497)
(0.00364364 0 -0.000121789)
(0.00274157 0 -9.08087e-05)
(0.00173167 0 -5.69996e-05)
(0.000599543 0 -1.96705e-05)
(0.0101534 0 -0.000376874)
(0.00992713 0 -0.000397885)
(0.00969672 0 -0.000406362)
(0.0094597 0 -0.000405639)
(0.00921239 0 -0.000398268)
(0.00895044 0 -0.000386147)
(0.00866909 0 -0.000370649)
(0.00836344 0 -0.000352734)
(0.00802838 0 -0.000333046)
(0.0076587 0 -0.00031199)
(0.00724893 0 -0.000289791)
(0.00679326 0 -0.000266532)
(0.00628547 0 -0.000242192)
(0.00571877 0 -0.000216654)
(0.00508564 0 -0.000189722)
(0.00437771 0 -0.000161116)
(0.0035856 0 -0.000130473)
(0.00269867 0 -9.733e-05)
(0.00170489 0 -6.11105e-05)
(0.000590316 0 -2.10919e-05)
(0.00955451 0 -0.000359864)
(0.00942235 0 -0.000388641)
(0.00926629 0 -0.000403929)
(0.00908862 0 -0.00040887)
(0.00888932 0 -0.000405986)
(0.00866683 0 -0.000397247)
(0.00841849 0 -0.000384147)
(0.00814095 0 -0.000367786)
(0.00783031 0 -0.000348947)
(0.00748219 0 -0.000328158)
(0.00709181 0 -0.000305752)
(0.00665391 0 -0.000281899)
(0.00616269 0 -0.000256645)
(0.00561173 0 -0.000229922)
(0.00499386 0 -0.000201567)
(0.00430107 0 -0.000171319)
(0.00352431 0 -0.000138819)
(0.00265335 0 -0.000103599)
(0.00167656 0 -6.50625e-05)
(0.000580556 0 -2.24583e-05)
(0.00894755 0 -0.000358468)
(0.00890612 0 -0.000389895)
(0.00882342 0 -0.000408344)
(0.00870535 0 -0.000416385)
(0.00855489 0 -0.000416224)
(0.00837287 0 -0.000409675)
(0.00815856 0 -0.000398187)
(0.00791008 0 -0.000382877)
(0.00762466 0 -0.000364577)
(0.00729882 0 -0.00034388)
(0.00692847 0 -0.000321178)
(0.0065089 0 -0.000296701)
(0.00603478 0 -0.00027054)
(0.00550008 0 -0.000242665)
(0.00489803 0 -0.000212937)
(0.00422095 0 -0.00018111)
(0.00346017 0 -0.000146827)
(0.00260587 0 -0.000109612)
(0.00164687 0 -6.88525e-05)
(0.000570322 0 -2.37685e-05)
(0.00824371 0 -0.000330146)
(0.00835044 0 -0.000372546)
(0.00839052 0 -0.000402058)
(0.00837591 0 -0.000420273)
(0.00831464 0 -0.000428942)
(0.00821171 0 -0.000429729)
(0.00806974 0 -0.000424123)
(0.0078895 0 -0.000413389)
(0.00767037 0 -0.000398553)
(0.0074106 0 -0.000380415)
(0.00710752 0 -0.00035957)
(0.00675771 0 -0.000336429)
(0.00635701 0 -0.00031125)
(0.00590054 0 -0.000284148)
(0.00538271 0 -0.000255117)
(0.0047971 0 -0.000224031)
(0.00413643 0 -0.000190653)
(0.00339242 0 -0.000154626)
(0.00255566 0 -0.000115466)
(0.00161545 0 -7.25406e-05)
(0.000559488 0 -2.50432e-05)
(0.00759749 0 -0.000368727)
(0.00778003 0 -0.000401537)
(0.00788771 0 -0.000425266)
(0.00793236 0 -0.000440178)
(0.00792235 0 -0.000447122)
(0.00786361 0 -0.000447094)
(0.00775979 0 -0.000441135)
(0.00761262 0 -0.000430225)
(0.00742241 0 -0.000415208)
(0.00718819 0 -0.000396782)
(0.00690802 0 -0.000375488)
(0.00657904 0 -0.000351714)
(0.0061976 0 -0.000325712)
(0.00575929 0 -0.000297601)
(0.0052589 0 -0.00026738)
(0.0046904 0 -0.000234929)
(0.0040469 0 -0.000200011)
(0.00332051 0 -0.000162264)
(0.00250228 0 -0.000121193)
(0.001582 0 -7.61457e-05)
(0.000547943 0 -2.62886e-05)
(0.00741224 0 -0.000458356)
(0.00750488 0 -0.000467537)
(0.00753836 0 -0.00047077)
(0.00751861 0 -0.000468335)
(0.00744947 0 -0.000460793)
(0.00733312 0 -0.000448782)
(0.00717039 0 -0.000432906)
(0.00696087 0 -0.000413708)
(0.00670312 0 -0.000391628)
(0.00639477 0 -0.000366994)
(0.0060326 0 -0.000340024)
(0.0056126 0 -0.00031082)
(0.00512994 0 -0.000279368)
(0.00457897 0 -0.000245543)
(0.00395318 0 -0.000209099)
(0.0032451 0 -0.000169666)
(0.0024462 0 -0.000126733)
(0.0015468 0 -7.96287e-05)
(0.000535779 0 -2.74906e-05)
(0.00716888 0 -0.000499359)
(0.00718178 0 -0.000493242)
(0.00714294 0 -0.000483039)
(0.0070543 0 -0.000469087)
(0.00691695 0 -0.000451701)
(0.00673068 0 -0.00043125)
(0.00649442 0 -0.000408036)
(0.00620615 0 -0.000382299)
(0.00586297 0 -0.0003542)
(0.00546123 0 -0.000323801)
(0.00499642 0 -0.000291066)
(0.00446327 0 -0.00025585)
(0.00385562 0 -0.000217892)
(0.0031664 0 -0.000176807)
(0.00238756 0 -0.000132065)
(0.00150993 0 -8.29742e-05)
(0.000523025 0 -2.86437e-05)
(0.00685741 0 -0.000521302)
(0.00684387 0 -0.000507586)
(0.00677922 0 -0.000490998)
(0.0066646 0 -0.000471521)
(0.00649968 0 -0.000449376)
(0.00628359 0 -0.000424695)
(0.00601451 0 -0.000397613)
(0.00568978 0 -0.000368219)
(0.00530601 0 -0.000336521)
(0.00485901 0 -0.000302445)
(0.00434381 0 -0.000265818)
(0.0037546 0 -0.000226357)
(0.00308472 0 -0.000183656)
(0.00232656 0 -0.000137163)
(0.00147151 0 -8.61648e-05)
(0.000509718 0 -2.97415e-05)
(0.00651065 0 -0.000514196)
(0.00641572 0 -0.000492163)
(0.00626983 0 -0.000467964)
(0.00607225 0 -0.000441522)
(0.0058212 0 -0.000412871)
(0.00551413 0 -0.000382027)
(0.00514785 0 -0.00034893)
(0.00471842 0 -0.000313457)
(0.00422115 0 -0.000275402)
(0.00365057 0 -0.000234452)
(0.00300039 0 -0.000190175)
(0.00226346 0 -0.000141998)
(0.00143169 0 -8.9181e-05)
(0.000495909 0 -3.07771e-05)
(0.00604303 0 -0.000486774)
(0.00586197 0 -0.000458365)
(0.00562757 0 -0.000427952)
(0.00533714 0 -0.000395529)
(0.00498768 0 -0.000360947)
(0.00457544 0 -0.000324032)
(0.00409594 0 -0.000284539)
(0.00354403 0 -0.000242123)
(0.00291379 0 -0.000196321)
(0.0021985 0 -0.000146536)
(0.00139063 0 -9.20003e-05)
(0.000481654 0 -3.17425e-05)
(0.00565422 0 -0.000474995)
(0.00543493 0 -0.000442677)
(0.00515992 0 -0.000408592)
(0.00482645 0 -0.000372465)
(0.00443085 0 -0.000334078)
(0.00396884 0 -0.000293153)
(0.00343553 0 -0.000249304)
(0.00282535 0 -0.00020204)
(0.00213202 0 -0.000150735)
(0.00134853 0 -9.45971e-05)
(0.00046702 0 -3.26287e-05)
(0.00498363 0 -0.000421018)
(0.00466509 0 -0.000383344)
(0.00428549 0 -0.000343475)
(0.00384053 0 -0.000301146)
(0.00332562 0 -0.000255918)
(0.00273551 0 -0.000207268)
(0.00206433 0 -0.000154549)
(0.00130559 0 -9.69422e-05)
(0.00045208 0 -3.34257e-05)
(0.00450454 0 -0.000393403)
(0.00414019 0 -0.000352075)
(0.00371171 0 -0.000308405)
(0.00321489 0 -0.000261871)
(0.00264476 0 -0.000211934)
(0.0019958 0 -0.000157925)
(0.00126203 0 -9.90027e-05)
(0.000436912 0 -3.41223e-05)
(0.00358314 0 -0.000314775)
(0.00310394 0 -0.000267058)
(0.00255358 0 -0.000215952)
(0.00192679 0 -0.000160804)
(0.0012181 0 -0.000100742)
(0.0004216 0 -3.47059e-05)
(0.00299339 0 -0.000271351)
(0.00246249 0 -0.000219224)
(0.00185767 0 -0.000163119)
(0.00117404 0 -0.00010212)
(0.000406227 0 -3.5163e-05)
(0.00178888 0 -0.000164786)
(0.00113009 0 -0.000103093)
(0.000390881 0 -3.54791e-05)
(0.00108651 0 -0.000103609)
(0.000375646 0 -3.56389e-05)
(0.000360616 0 -3.56231e-05)
)
;

boundaryField
{
    inlet
    {
        type            cellMotion;
        value           nonuniform 0();
    }
    outlet
    {
        type            cellMotion;
        value           uniform (0 0 0);
    }
    flap
    {
        type            cellMotion;
        value           nonuniform 0();
    }
    upperWall
    {
        type            slip;
    }
    lowerWall
    {
        type            slip;
    }
    frontAndBack
    {
        type            empty;
    }
    procBoundary5to2
    {
        type            processor;
        value           nonuniform List<vector> 
34
(
(0.00701715 0 -0.000423095)
(0.00725284 0 -0.000443284)
(0.00725284 0 -0.000443284)
(0.00697127 0 -0.000499758)
(0.00710023 0 -0.000501473)
(0.00710023 0 -0.000501473)
(0.00681806 0 -0.000532216)
(0.00681806 0 -0.000532216)
(0.00654811 0 -0.000552005)
(0.00655491 0 -0.000534099)
(0.00655491 0 -0.000534099)
(0.00625008 0 -0.000538499)
(0.00617193 0 -0.000513474)
(0.00617193 0 -0.000513474)
(0.00582022 0 -0.000505738)
(0.00582022 0 -0.000505738)
(0.0054496 0 -0.000491368)
(0.00524406 0 -0.000456966)
(0.00524406 0 -0.000456966)
(0.00480864 0 -0.000432794)
(0.00480864 0 -0.000432794)
(0.00434506 0 -0.000402636)
(0.00399538 0 -0.000359824)
(0.00399538 0 -0.000359824)
(0.00345503 0 -0.000320256)
(0.00345503 0 -0.000320256)
(0.0028834 0 -0.000274747)
(0.00237175 0 -0.000221715)
(0.00237175 0 -0.000221715)
(0.0017205 0 -0.000165805)
(0.0017205 0 -0.000165805)
(0.00104339 0 -0.000103665)
(0.00104339 0 -0.000103665)
(0.000345816 0 -3.5431e-05)
)
;
    }
    procBoundary5to4
    {
        type            processor;
        value           nonuniform List<vector> 
18
(
(0.0115366 0 -9.74945e-05)
(0.0116445 0 -0.000283742)
(0.0118394 0 -0.000445402)
(0.0120834 0 -0.000570632)
(0.0123293 0 -0.000652741)
(0.0125274 0 -0.000690487)
(0.0126326 0 -0.000687531)
(0.01261 0 -0.000651375)
(0.0124385 0 -0.00059206)
(0.0121124 0 -0.000520808)
(0.0116418 0 -0.000448728)
(0.0110511 0 -0.000385647)
(0.0103756 0 -0.000339143)
(0.00965705 0 -0.000313863)
(0.00893773 0 -0.000311249)
(0.00893773 0 -0.000311249)
(0.00805368 0 -0.00027376)
(0.00732532 0 -0.000327425)
)
;
    }
}


// ************************************************************************* //
