/*--------------------------------*- C++ -*----------------------------------*\
| =========                 |                                                 |
| \\      /  F ield         | OpenFOAM: The Open Source CFD Toolbox           |
|  \\    /   O peration     | Version:  dev                                   |
|   \\  /    A nd           | Web:      www.OpenFOAM.org                      |
|    \\/     M anipulation  |                                                 |
\*---------------------------------------------------------------------------*/
FoamFile
{
    version     2.0;
    format      ascii;
    class       volVectorField;
    location    "0.66";
    object      Force;
}
// * * * * * * * * * * * * * * * * * * * * * * * * * * * * * * * * * * * * * //

dimensions      [1 1 -2 0 0 0 0];

internalField   uniform (0 0 0);

boundaryField
{
    inlet
    {
        type            calculated;
        value           nonuniform 0();
    }
    outlet
    {
        type            calculated;
        value           nonuniform 0();
    }
    flap
    {
        type            calculated;
        value           nonuniform List<vector> 
33
(
(4.52063 1.19373e-16 -17.9129)
(7.34351 1.37413e-17 6.22507)
(3.53971 -4.20816e-21 -0.158633)
(5.55539 -1.40785e-17 -1.09457)
(4.72317 1.37374e-17 0.113482)
(5.50961 -1.76542e-18 -0.213014)
(5.85909 8.82059e-19 -0.0624296)
(4.23749 -2.47956e-39 -0.341223)
(5.3729 1.70785e-17 0.355874)
(6.068 1.5018e-21 -0.709833)
(5.04695 1.28702e-17 0.167753)
(5.6913 -1.4195e-22 1.70964)
(0.871087 -2.35099e-38 0.634901)
(9.5985 3.66194e-17 -10.0343)
(22.9606 3.79352e-20 7.2654)
(0.446655 -6.79463e-21 0.177599)
(0.341403 9.7443e-18 0.319675)
(0.986746 3.28588e-17 0.828277)
(-0.516148 1.42905e-17 3.66386)
(-2.11923 3.81036e-17 -0.814028)
(-1.16413 1.62036e-17 0.15777)
(-1.01207 -3.59662e-22 -0.0464443)
(-1.00284 1.70999e-17 0.0296149)
(-0.819077 -1.57747e-17 0.059152)
(-0.719246 1.19255e-19 0.0189255)
(-0.557107 0 0.0378918)
(-0.445873 1.68305e-17 0.00432299)
(-0.330084 1.47142e-17 -0.00315523)
(-0.319058 8.93261e-19 0.0884237)
(-0.0345276 -5.17448e-22 -0.00268367)
(-0.15984 2.14441e-21 -0.0353233)
(-0.700372 1.18924e-16 0.563675)
(3.59416 6.68379e-21 1.23998)
)
;
    }
    upperWall
    {
        type            calculated;
        value           nonuniform 0();
    }
    lowerWall
    {
        type            calculated;
        value           uniform (0 0 0);
    }
    frontAndBack
    {
        type            empty;
    }
    procBoundary4to1
    {
        type            processor;
        value           uniform (0 0 0);
    }
    procBoundary4to2
    {
        type            processor;
        value           uniform (0 0 0);
    }
    procBoundary4to3
    {
        type            processor;
        value           uniform (0 0 0);
    }
    procBoundary4to5
    {
        type            processor;
        value           uniform (0 0 0);
    }
}


// ************************************************************************* //
