/*--------------------------------*- C++ -*----------------------------------*\
| =========                 |                                                 |
| \\      /  F ield         | OpenFOAM: The Open Source CFD Toolbox           |
|  \\    /   O peration     | Version:  dev                                   |
|   \\  /    A nd           | Web:      www.OpenFOAM.org                      |
|    \\/     M anipulation  |                                                 |
\*---------------------------------------------------------------------------*/
FoamFile
{
    version     2.0;
    format      ascii;
    class       surfaceVectorField;
    location    "0.66";
    object      Uf;
}
// * * * * * * * * * * * * * * * * * * * * * * * * * * * * * * * * * * * * * //

dimensions      [0 1 -1 0 0 0 0];

internalField   nonuniform List<vector> 
865
(
(2.64666 -4.74506e-21 0.293648)
(3.35507 -1.87378e-19 0.474197)
(2.08458 -2.10117e-19 0.306724)
(2.79858 4.57889e-19 0.489687)
(1.52783 1.09973e-20 0.314963)
(2.23968 -1.41963e-19 0.49747)
(0.988685 1.45536e-19 0.314061)
(1.68855 4.61677e-21 0.494777)
(0.481514 0 0.291794)
(1.15718 0 0.478188)
(0.0218428 0 0.170181)
(0.665531 -1.16011e-18 0.441447)
(-0.298875 0 -0.0626388)
(0.225234 1.25524e-18 0.302926)
(-0.389349 -8.21275e-18 -0.227245)
(-0.00383879 3.83406e-20 0.0646996)
(0.0979343 -1.84021e-17 -0.140702)
(3.49163 2.85446e-19 0.714402)
(3.99862 -4.97344e-19 0.93556)
(2.93844 5.17696e-19 0.732065)
(3.46397 -2.45062e-19 0.968214)
(2.3876 -1.46401e-19 0.735627)
(2.92262 5.34433e-19 0.985114)
(1.8528 -1.4206e-19 0.718644)
(2.38433 1.11271e-18 0.979205)
(1.35417 -1.18335e-18 0.669807)
(1.86165 -1.00908e-18 0.938943)
(0.923946 1.43384e-19 0.565372)
(1.36824 1.12514e-18 0.841631)
(0.543023 1.31836e-18 0.378853)
(0.915988 -3.5413e-18 0.649425)
(0.225779 -2.9855e-18 0.158801)
(0.591226 2.43787e-18 0.339781)
(0.585798 -4.14837e-18 0.00881292)
(3.95813 -1.02669e-18 1.17755)
(4.35466 -2.42772e-19 1.36736)
(3.43574 -2.19634e-19 1.20948)
(3.85092 -1.27525e-18 1.41918)
(2.90884 1.80736e-18 1.21781)
(3.33495 5.38192e-19 1.44866)
(2.38747 2.21674e-19 1.19195)
(2.8131 1.81131e-19 1.44546)
(1.88269 1.32738e-18 1.11546)
(2.29279 -1.44118e-18 1.39472)
(1.40027 -2.58263e-18 0.964756)
(1.78037 1.16291e-18 1.27454)
(0.93036 -2.48521e-18 0.728801)
(1.27099 -2.33459e-18 1.05976)
(0.471149 1.59846e-18 0.488684)
(0.812148 2.30151e-18 0.735971)
(0.617003 3.5708e-18 0.194534)
(4.23677 -5.03583e-19 1.60841)
(4.57058 3.35634e-21 1.77542)
(3.74004 -4.93972e-19 1.65845)
(4.09022 -1.47832e-18 1.8482)
(3.23107 -1.10233e-18 1.67821)
(3.59252 5.06388e-19 1.8946)
(2.71452 -1.50878e-18 1.65437)
(3.0801 -1.09384e-18 1.90262)
(2.19382 -1.59041e-18 1.56838)
(2.55563 -6.99616e-19 1.85646)
(1.66804 1.37919e-18 1.3963)
(2.02138 -1.16397e-18 1.73553)
(1.13276 2.42364e-18 1.11714)
(1.47127 9.14747e-19 1.51707)
(0.588954 4.74428e-18 0.709325)
(0.930103 1.21454e-18 1.18642)
(0.631826 5.31833e-18 0.663856)
(4.41487 -9.92988e-19 2.01857)
(4.71632 -9.0894e-19 2.16877)
(3.93414 -4.53514e-19 2.08889)
(4.2502 4.39512e-19 2.26429)
(3.43458 5.02975e-19 2.12533)
(3.76238 1.5043e-18 2.3318)
(2.91714 -2.75434e-19 2.11346)
(3.25276 -1.5419e-18 2.35847)
(2.38211 -2.70903e-19 2.03483)
(2.72121 2.61438e-19 2.32806)
(1.82858 -1.6203e-18 1.86801)
(2.16838 -1.11228e-18 2.22072)
(1.25606 -2.81619e-19 1.59634)
(1.59021 -1.76377e-19 2.01577)
(0.665043 1.93694e-18 1.19558)
(0.996308 1.29989e-18 1.70387)
(0.635606 1.26599e-18 1.22624)
(4.54358 5.4832e-19 2.41885)
(4.83198 -9.13312e-19 2.55473)
(4.07072 2.42377e-18 2.51231)
(4.37317 5.12489e-19 2.67519)
(3.57375 -5.77256e-19 2.57085)
(3.88878 1.48704e-18 2.76783)
(3.05148 -9.89352e-19 2.57973)
(3.37697 -2.55536e-18 2.81948)
(2.50277 -5.92635e-19 2.52116)
(2.83612 5.39337e-19 2.81389)
(1.92667 3.52077e-19 2.37626)
(2.26616 -5.67066e-19 2.73244)
(1.32335 1.42084e-18 2.13423)
(1.66511 5.82278e-19 2.55766)
(0.692397 6.22599e-19 1.77787)
(1.03279 5.27162e-19 2.28646)
(0.631262 -2.59729e-19 1.85926)
(4.65434 -9.39133e-19 2.8162)
(4.94167 4.39839e-19 2.93862)
(4.18394 -4.2833e-19 2.9362)
(4.48605 -1.83146e-18 3.08675)
(3.68488 -5.35812e-19 3.02206)
(4.00112 4.89676e-19 3.20861)
(3.15472 -9.93531e-19 3.05898)
(3.48374 4.64265e-19 3.29089)
(2.59176 5.56482e-19 3.02969)
(2.93132 3.15729e-21 3.31727)
(1.99555 -3.24422e-19 2.91693)
(2.34372 1.30049e-20 3.26968)
(1.36717 -3.10932e-19 2.71293)
(1.72284 -1.42374e-18 3.13255)
(0.702767 -3.37725e-19 2.39387)
(1.06566 5.97364e-19 2.91009)
(0.626516 -4.52915e-19 2.58796)
(4.76684 -4.79203e-19 3.21511)
(5.06128 8.57312e-19 3.32368)
(4.29623 -8.86661e-19 3.36543)
(4.60726 -4.70181e-19 3.50272)
(3.79245 1.50298e-18 3.48375)
(4.12014 0 3.65833)
(3.252 1.46836e-18 3.55503)
(3.59528 1.49525e-18 3.77708)
(2.6729 -5.4238e-19 3.56159)
(3.02867 3.18998e-21 3.84187)
(2.05646 -1.10628e-18 3.48484)
(2.41905 -8.05672e-19 3.83277)
(1.41153 -4.82027e-19 3.3114)
(1.77031 2.55427e-19 3.72816)
(0.771275 4.08453e-19 3.01711)
(1.06772 -2.13435e-19 3.50889)
(0.61641 -4.98164e-19 3.035)
(4.89592 8.612e-19 3.61811)
(5.20246 4.21366e-19 3.71115)
(4.42459 4.34835e-19 3.80311)
(4.75095 8.58933e-19 3.92502)
(3.91529 0 3.95962)
(4.26257 2.15687e-18 4.11974)
(3.36277 0 4.07225)
(3.73062 -1.80868e-18 4.2821)
(2.76335 -2.68594e-19 4.12206)
(3.14838 -4.8039e-19 4.39437)
(2.11714 5.82016e-19 4.08789)
(2.51117 -2.6684e-19 4.43453)
(1.42861 5.25934e-19 3.95594)
(1.82448 9.73038e-19 4.37849)
(0.677651 -1.2376e-18 3.65489)
(1.07346 -4.32624e-19 4.23162)
(0.640339 2.17247e-19 3.95153)
(5.05264 4.2091e-19 4.02534)
(5.37088 -2.62402e-21 4.09962)
(4.58305 2.62489e-18 4.25006)
(4.92583 4.23025e-19 4.35249)
(4.07054 2.90904e-19 4.45177)
(4.44092 5.52473e-19 4.59233)
(3.50692 -2.29065e-18 4.61519)
(3.90695 -1.04423e-19 4.80718)
(2.8845 -4.77357e-19 4.72009)
(3.31275 -4.89863e-19 4.97982)
(2.1999 1.36763e-19 4.74015)
(2.64581 0 5.08606)
(1.46757 -6.34902e-21 4.64424)
(1.90286 2.01725e-19 5.08736)
(0.781006 9.47153e-19 4.34201)
(1.05379 -2.08242e-19 4.91125)
(0.575249 1.55797e-18 4.26578)
(5.24046 0 4.434)
(5.56651 0 4.48583)
(4.77891 -1.70702e-18 4.70323)
(5.13382 3.71221e-19 4.78085)
(4.27073 1.48271e-19 4.95746)
(4.6607 -2.09933e-18 5.07084)
(3.70377 1.7383e-18 5.18298)
(4.13607 1.8125e-18 5.34666)
(3.06306 0 5.35992)
(3.54367 1.69258e-18 5.59436)
(2.33259 6.78496e-20 5.45779)
(2.85847 4.69572e-19 5.79275)
(1.49985 -5.20587e-21 5.42246)
(2.04842 -4.55799e-19 5.90376)
(0.575408 4.05931e-19 5.0151)
(0.950426 -6.80106e-20 5.84201)
(0.231428 5.44666e-19 4.91742)
(5.45849 3.83062e-19 4.84092)
(5.78823 -2.76005e-21 4.86797)
(5.01343 -2.28328e-20 5.15833)
(5.37336 4.84757e-20 5.20723)
(4.52209 -3.83178e-19 5.47112)
(4.92109 -4.06553e-19 5.55042)
(3.96919 1.76641e-18 5.76908)
(4.42159 -6.7221e-19 5.89274)
(3.33029 2.17646e-18 6.03635)
(3.85723 4.20514e-19 6.22794)
(2.56481 -7.30963e-20 6.24776)
(3.19439 -9.30529e-19 6.5496)
(1.5951 -5.11469e-19 6.38979)
(2.40251 9.4197e-19 6.85201)
(0.134766 7.88701e-20 6.26344)
(1.10326 -3.22055e-18 7.2705)
(0.288876 2.68905e-19 7.22877)
(5.70548 -3.56086e-19 5.24533)
(6.03653 -3.21021e-19 5.24701)
(5.28456 -3.48376e-19 5.6145)
(5.64231 -3.62768e-19 5.6337)
(4.82499 -7.18513e-19 5.9928)
(5.21592 -2.06535e-21 6.03339)
(4.31561 -2.22856e-18 6.38069)
(4.75614 4.6694e-19 6.44627)
(3.73315 -3.08145e-18 6.78625)
(4.2644 -3.77639e-18 6.87919)
(3.02487 1.26131e-19 7.23521)
(3.74407 1.61643e-18 7.35804)
(2.08264 -1.97863e-18 7.79852)
(3.26999 3.49928e-18 7.93373)
(0.595405 -2.50458e-18 7.69075)
(2.30968 -7.13644e-18 8.76036)
(1.67941 2.06343e-18 7.35646)
(5.98021 -3.24397e-19 5.6507)
(6.31694 -3.31083e-20 5.62675)
(5.58501 0 6.07693)
(5.94579 1.43386e-18 6.06994)
(5.16312 1.34166e-18 6.52322)
(5.54218 0 6.53586)
(4.72583 -1.01621e-18 6.98713)
(5.10378 1.28836e-18 7.01679)
(4.30802 1.70581e-18 7.45718)
(4.62913 -2.87487e-18 7.48553)
(3.99132 6.26459e-18 7.89074)
(4.11166 5.02639e-18 7.86834)
(3.95534 -1.63137e-18 8.19614)
(3.63175 1.96182e-18 7.98036)
(4.38101 -3.24029e-18 7.30674)
(2.869 -1.93587e-18 7.48395)
(0.490187 7.39529e-19 4.29674)
(6.28945 1.77325e-18 6.05997)
(6.65018 8.75624e-19 6.00451)
(5.9165 1.47315e-18 6.55621)
(6.31763 3.16729e-19 6.51898)
(5.50624 -1.30432e-19 7.08971)
(5.9543 0 7.08317)
(5.04365 -4.85314e-19 7.66136)
(5.55059 -1.27195e-19 7.71064)
(4.48876 2.00661e-19 8.26467)
(5.08385 -3.34194e-19 8.42633)
(3.74705 4.41508e-19 8.86583)
(4.49489 4.86954e-19 9.2779)
(2.62595 2.13857e-18 9.34314)
(3.68335 -2.15755e-18 10.3414)
(0.825393 1.04156e-18 9.28152)
(3.47284 -3.80938e-18 11.8544)
(-0.288369 5.64219e-18 14.0283)
(-0.681216 -7.4483e-18 0.66166)
(-0.5313 -6.76291e-18 1.21637)
(-2.01468 -3.4903e-19 0.679983)
(-1.37733 -1.51471e-19 0.977675)
(-3.26712 0 0.658387)
(-2.70296 -1.24058e-19 0.984798)
(-4.48026 -1.04159e-19 0.631328)
(-3.94632 2.3347e-19 1.0011)
(-5.67386 -1.16548e-19 0.597777)
(-5.17131 -3.00321e-20 1.00314)
(-6.83467 3.17285e-20 0.554193)
(-6.34421 -9.66873e-21 0.977945)
(-7.94822 3.10947e-20 0.506017)
(-7.48157 2.75718e-20 0.933176)
(-9.00627 -1.11255e-20 0.45704)
(-8.56378 -1.46658e-20 0.879208)
(-10.0041 1.1786e-21 0.4082)
(-9.59254 3.44825e-21 0.821107)
(-10.5595 -6.53631e-23 0.75978)
(-1.08776 6.46894e-18 1.47814)
(-0.653043 6.24489e-18 1.885)
(-2.2262 1.71878e-19 1.50055)
(-1.55027 3.12731e-19 2.03559)
(-3.39446 1.0205e-19 1.49816)
(-2.76116 -1.92889e-19 2.03696)
(-4.60243 3.30006e-19 1.50859)
(-3.97556 2.43614e-19 2.0668)
(-5.79888 9.49331e-20 1.48538)
(-5.16952 -6.56625e-21 2.04156)
(-6.95649 -1.81102e-20 1.43171)
(-6.31641 0 1.96927)
(-8.06775 -2.12814e-20 1.36155)
(-7.42464 -4.29115e-20 1.87357)
(-9.12579 1.28275e-21 1.28337)
(-8.48458 -1.43936e-20 1.7646)
(-10.1255 1.10107e-21 1.20047)
(-9.49264 3.46147e-21 1.64865)
(-10.4423 -3.50089e-21 1.52654)
(-1.0782 7.7957e-19 2.6264)
(-0.53039 4.43358e-19 3.34244)
(-2.17266 -5.94609e-20 2.61101)
(-1.52646 -1.92141e-19 3.20808)
(-3.32876 -6.07105e-20 2.6058)
(-2.70051 1.25747e-19 3.18368)
(-4.50011 -9.62085e-20 2.58191)
(-3.84636 0 3.16078)
(-5.64536 -9.85612e-20 2.50356)
(-4.96521 -9.77428e-20 3.06948)
(-6.75192 -2.43019e-20 2.39184)
(-6.04995 6.60405e-20 2.93758)
(-7.81363 -3.60387e-20 2.26221)
(-7.09768 2.322e-20 2.78669)
(-8.82705 -1.24605e-20 2.12117)
(-8.1038 2.56788e-20 2.6246)
(-9.78697 -1.29304e-21 1.97137)
(-9.06254 2.7184e-21 2.45384)
(-9.96918 -3.95252e-21 2.27469)
(-1.06432 -3.88961e-19 3.75204)
(-0.371335 -3.81758e-19 4.23058)
(-2.10403 -1.52822e-20 3.73214)
(-1.4616 -1.26648e-19 4.26497)
(-3.19534 1.83954e-19 3.7038)
(-2.56174 7.66156e-20 4.25135)
(-4.27575 0 3.62069)
(-3.60705 5.51355e-20 4.176)
(-5.33515 6.54774e-20 3.48307)
(-4.63738 -7.15948e-20 4.03281)
(-6.36641 1.14633e-19 3.31734)
(-5.64243 1.11448e-20 3.85357)
(-7.36181 8.4099e-20 3.13658)
(-6.61819 -3.65343e-20 3.65616)
(-8.31518 3.89657e-20 2.94543)
(-7.55746 7.01634e-20 3.44674)
(-9.22209 -6.75997e-22 2.74511)
(-8.45591 2.18675e-21 3.22716)
(-9.30981 -2.12292e-21 2.99704)
(-0.898385 -1.20682e-19 4.77793)
(-0.201004 -5.72788e-20 5.24609)
(-1.92958 -4.3038e-20 4.76057)
(-1.28867 -4.27769e-20 5.27341)
(-2.94621 -4.74249e-20 4.69933)
(-2.31688 -1.73971e-20 5.22273)
(-3.94049 -1.50286e-20 4.57127)
(-3.27538 1.75529e-19 5.10291)
(-4.91588 -1.23121e-19 4.39147)
(-4.22041 -2.03776e-19 4.92268)
(-5.86765 -1.3632e-19 4.18365)
(-5.14247 1.74825e-20 4.70771)
(-6.78894 -4.86332e-20 3.95962)
(-6.03858 -8.35951e-20 4.47284)
(-7.67465 3.41542e-20 3.72343)
(-6.90354 3.44527e-20 4.22394)
(-8.52123 -8.15502e-22 3.47557)
(-7.73443 -5.55765e-22 3.96264)
(-8.52823 4.38917e-20 3.68792)
(-0.690705 1.97326e-20 5.7625)
(-0.0888439 -1.80956e-20 6.2903)
(-1.68233 -2.08626e-20 5.71678)
(-1.08669 -2.08988e-20 6.2266)
(-2.62217 2.02883e-19 5.60678)
(-2.02084 9.50619e-20 6.10773)
(-3.53262 -1.09749e-20 5.44014)
(-2.88611 1.21008e-19 5.94651)
(-4.42182 -6.38092e-20 5.22835)
(-3.74138 -2.36834e-19 5.73661)
(-5.28861 7.00716e-20 4.98868)
(-4.57416 2.23827e-19 5.49445)
(-6.12909 0 4.73054)
(-5.38402 0 5.23078)
(-6.94005 0 4.45754)
(-6.16808 -2.34583e-21 4.95043)
(-7.71894 4.30578e-20 4.16986)
(-6.92465 2.929e-20 4.65445)
(-7.65146 3.78646e-20 4.34119)
(-0.586921 -8.62106e-20 6.64274)
(0.00453533 -1.33723e-19 7.00367)
(-1.42344 8.90019e-20 6.5761)
(-0.880116 8.73882e-20 7.0245)
(-2.25873 1.27003e-20 6.42622)
(-1.69926 6.87371e-20 6.88959)
(-3.07422 -1.0245e-19 6.22946)
(-2.45616 -3.82613e-20 6.70298)
(-3.8701 4.6417e-20 5.99321)
(-3.21266 -1.25606e-19 6.47239)
(-4.6457 1.549e-19 5.72956)
(-3.94909 8.75316e-20 6.21123)
(-5.39927 -2.33074e-21 5.44514)
(-4.66676 0 5.92673)
(-6.12932 2.67353e-20 5.14253)
(-5.3642 3.45895e-20 5.62223)
(-6.83433 2.09508e-20 4.82123)
(-6.04083 1.35219e-20 5.29792)
(-6.69517 1.40154e-19 4.95168)
(-0.410732 9.64996e-21 7.42693)
(0.0864605 0 7.83326)
(-1.14877 6.71953e-20 7.32231)
(-0.669017 9.85781e-21 7.72595)
(-1.86612 1.36726e-20 7.15002)
(-1.35112 -2.57891e-20 7.56279)
(-2.5737 -6.26036e-20 6.93602)
(-1.98744 -4.32205e-20 7.36753)
(-3.26791 -8.31498e-20 6.68424)
(-2.6375 4.51308e-20 7.12866)
(-3.94622 -6.39679e-20 6.40416)
(-3.27158 -5.08194e-20 6.85734)
(-4.60764 3.36022e-20 6.10032)
(-3.89222 -4.91138e-21 6.55914)
(-5.25184 1.6613e-20 5.77421)
(-4.49866 5.06232e-20 6.23651)
(-5.8782 1.27484e-19 5.42473)
(-5.0912 -6.50692e-20 5.88913)
(-5.66919 2.3657e-20 5.51472)
(-0.329534 0 8.00873)
(0.196438 4.99484e-20 8.1415)
(-0.850894 -8.31065e-20 7.93545)
(-0.41926 -8.10853e-20 8.22376)
(-1.43642 -8.58602e-20 7.77174)
(-0.959246 5.64209e-20 8.1214)
(-2.02925 6.24347e-20 7.55747)
(-1.47363 3.72012e-20 7.94188)
(-2.61614 7.71809e-20 7.30073)
(-2.01398 2.89286e-20 7.70724)
(-3.19278 8.40267e-21 7.01154)
(-2.54234 -1.85116e-21 7.43363)
(-3.75841 9.44946e-21 6.69392)
(-3.06322 -3.24714e-20 7.12707)
(-4.31348 -3.5036e-20 6.34907)
(-3.57615 1.35407e-20 6.79046)
(-4.85815 -1.79802e-19 5.97581)
(-4.08234 -4.95325e-20 6.4239)
(-4.58197 -1.32652e-19 6.02545)
(-0.0762675 -3.17921e-20 8.3414)
(0.423993 -3.24598e-19 8.07267)
(-0.490963 5.74729e-20 8.4247)
(0.00214001 -1.73927e-21 8.63973)
(-0.958307 1.82512e-19 8.29668)
(-0.502681 9.2175e-20 8.58936)
(-1.43507 1.26698e-21 8.09655)
(-0.905886 7.12295e-20 8.43448)
(-1.91279 -4.9137e-20 7.8438)
(-1.33802 -4.74994e-20 8.21322)
(-2.38625 -3.75539e-20 7.55084)
(-1.76105 -4.40589e-20 7.9419)
(-2.85479 -3.05233e-20 7.22311)
(-2.18231 -5.023e-20 7.62912)
(-3.31955 -3.21016e-21 6.8629)
(-2.60154 -2.38131e-20 7.28033)
(-3.78159 0 6.46969)
(-3.02105 4.71149e-20 6.8972)
(-3.44197 1.18048e-19 6.47838)
(0.526849 -3.76217e-19 8.84559)
(0.391196 -5.37574e-19 9.79105)
(-0.0446877 6.36106e-20 8.87559)
(0.27732 1.88649e-19 9.2191)
(-0.414616 -2.55532e-20 8.74192)
(-0.0210464 -1.22602e-19 8.99515)
(-0.781846 2.30207e-20 8.56178)
(-0.276064 3.5743e-21 8.86168)
(-1.15522 -4.2271e-20 8.31711)
(-0.605704 1.94383e-20 8.65496)
(-1.52868 -5.87945e-20 8.0216)
(-0.929721 -1.94545e-20 8.38288)
(-1.90202 -4.83569e-20 7.68446)
(-1.25542 -4.95626e-20 8.0608)
(-2.27749 2.61145e-20 7.31067)
(-1.58307 7.96351e-20 7.69898)
(-2.65726 1.64455e-19 6.90084)
(-1.91687 -4.05362e-20 7.30099)
(-2.25919 6.13927e-20 6.8657)
(0.0275243 6.7347e-20 9.09218)
(0.848173 0 7.8013)
(0.366248 -1.05143e-19 9.15096)
(0.685122 -3.97634e-20 8.92141)
(0.200209 -9.7e-20 9.11104)
(0.625625 -6.38789e-20 9.25647)
(-0.066828 4.03075e-21 8.96627)
(0.440732 -3.27367e-20 9.23582)
(-0.348408 5.05956e-20 8.7247)
(0.175258 1.03278e-19 9.03554)
(-0.629106 -1.1882e-20 8.42064)
(-0.0627158 -1.18077e-19 8.74909)
(-0.910806 7.84615e-20 8.07096)
(-0.297788 7.08431e-20 8.41018)
(-1.19848 1.60121e-20 7.68376)
(-0.535276 1.91282e-19 8.03387)
(-1.49607 -1.53263e-19 7.26012)
(-0.783375 -1.48993e-19 7.62367)
(-1.04604 9.02932e-21 7.17751)
(0.949124 -1.32912e-19 8.46167)
(2.07275 1.82619e-19 6.50197)
(1.16692 -1.13982e-19 9.31918)
(2.03126 -9.73624e-19 9.03375)
(0.936648 5.35148e-21 9.45765)
(1.60117 6.96611e-20 9.71366)
(0.699486 6.81413e-20 9.31886)
(1.22708 -1.32761e-22 9.61882)
(0.489442 -7.39589e-20 9.05815)
(0.975899 -6.12615e-21 9.3518)
(0.294988 -4.97386e-20 8.73328)
(0.812822 -1.07587e-19 9.02273)
(0.103474 1.85806e-19 8.36716)
(0.668114 6.41737e-20 8.65803)
(-0.0960087 3.2451e-20 7.96822)
(0.522986 1.44852e-19 8.26845)
(-0.310524 1.27782e-20 7.53578)
(0.363062 -1.45007e-19 7.85248)
(0.182426 1.48325e-19 7.40387)
(3.56821 -8.13088e-19 8.15121)
(-2.63303 1.76381e-20 10.9084)
(2.458 -1.10577e-19 9.87844)
(2.07941 -9.49883e-19 11.3913)
(1.83392 5.86914e-20 10.0136)
(1.57736 -3.40883e-20 10.7681)
(1.50521 -7.43366e-20 9.68914)
(1.55327 -1.44041e-22 10.1136)
(1.32598 -4.28817e-20 9.31882)
(1.59192 -8.12734e-20 9.61198)
(1.21075 4.20845e-21 8.94139)
(1.60682 4.53078e-20 9.18041)
(1.11196 1.90003e-20 8.554)
(1.5946 -1.07128e-19 8.77872)
(1.00443 -2.86269e-20 8.14995)
(1.55946 4.20662e-20 8.38277)
(0.876673 -1.19664e-20 7.71973)
(1.49547 -4.2496e-20 7.97263)
(1.40078 -1.51134e-19 7.53335)
(-0.677189 -1.15417e-19 9.65659)
(-4.21221 5.51138e-18 6.21805)
(0.68927 -4.20642e-19 10.4346)
(-0.114572 9.95798e-19 8.62676)
(1.40442 0 10.2276)
(0.523184 -1.112e-19 9.60786)
(1.74179 0 9.81629)
(1.39734 0 9.63305)
(1.91824 6.80932e-21 9.39359)
(1.94969 1.83234e-20 9.37189)
(2.01634 -6.37337e-20 8.99167)
(2.26089 -1.18742e-20 9.04327)
(2.06264 -8.51384e-20 8.60273)
(2.44332 -1.12093e-21 8.70139)
(2.06718 3.00525e-20 8.2091)
(2.54794 -9.77674e-20 8.34763)
(2.03437 -1.80128e-19 7.7936)
(2.59353 4.5415e-20 7.97085)
(6.67906 -5.88714e-19 6.46558)
(7.06762 -1.78865e-18 6.36072)
(6.35527 -1.15486e-18 7.04283)
(6.80389 -1.31557e-18 6.94239)
(5.99753 0 7.6889)
(6.52682 2.57155e-18 7.59807)
(5.59019 0 8.42775)
(6.2362 6.26168e-19 8.35414)
(5.10489 0 9.29961)
(5.93287 -6.6837e-19 9.25226)
(4.49661 -1.82733e-18 10.375)
(5.62287 -2.69138e-18 10.3597)
(3.64819 -6.25009e-18 11.8209)
(5.16198 2.86728e-18 11.7892)
(2.43389 -1.72559e-18 13.9581)
(5.94798 -4.11553e-18 13.8732)
(4.26898 2.33555e-18 16.3181)
(3.19927 1.40317e-18 15.2069)
(7.17451 -2.4852e-18 6.82119)
(7.5629 -2.45768e-20 6.65012)
(6.94384 2.304e-18 7.4628)
(7.39046 -2.52311e-20 7.27059)
(6.70883 3.016e-18 8.19348)
(7.22824 1.26647e-19 7.96977)
(6.47399 -2.70307e-20 9.04311)
(7.08547 -7.50904e-20 8.76976)
(6.2526 -2.99373e-18 10.0516)
(6.97867 -2.45636e-19 9.6978)
(6.09531 9.02005e-19 11.2749)
(6.95651 1.77151e-18 10.7758)
(6.1386 2.54155e-18 12.8809)
(6.86149 2.94122e-18 12.0053)
(6.46313 -1.48088e-18 15.0563)
(7.73479 -5.78114e-19 13.6442)
(7.62155 -4.17206e-20 15.2911)
(7.97155 -3.20572e-19 16.724)
(7.75406 2.34245e-18 7.08629)
(8.11146 1.86581e-18 6.85181)
(7.63575 -2.02939e-18 7.75483)
(8.03532 2.99267e-19 7.48057)
(7.54428 -2.71874e-18 8.50995)
(7.98939 -9.02945e-19 8.17948)
(7.4976 -2.81098e-19 9.37242)
(7.98762 -5.946e-19 8.96132)
(7.52486 4.11402e-18 10.3615)
(8.04902 -8.90768e-19 9.83782)
(7.6702 3.62268e-18 11.4853)
(8.22718 3.33941e-18 10.8105)
(8.01517 0 12.84)
(8.39961 4.25291e-19 11.8481)
(8.60574 1.3492e-18 14.3921)
(9.11533 -1.34982e-19 13.1488)
(9.59213 9.81359e-19 14.5237)
(9.52529 6.6108e-19 15.2057)
(8.37057 -1.66833e-19 7.24424)
(8.35748 1.34458e-18 7.90385)
(8.69248 -1.01004e-18 7.57754)
(8.39006 1.15568e-18 8.63388)
(8.74621 -3.57472e-20 8.24748)
(8.48651 -1.19786e-18 9.44324)
(8.85574 0 8.97955)
(8.66975 -1.49882e-18 10.3345)
(9.03567 -1.31954e-19 9.77732)
(8.9612 9.82753e-20 11.2901)
(9.32483 -1.18844e-18 10.6388)
(9.38679 2.77747e-19 12.3651)
(9.65429 7.95272e-19 11.5357)
(9.99637 -5.61681e-19 13.5182)
(10.2652 -1.3563e-19 12.5972)
(10.9958 -4.27854e-19 13.678)
(10.8641 -2.73171e-19 14.1506)
(9.0608 -2.34115e-18 7.93061)
(9.18777 -1.17012e-18 8.61017)
(9.38173 1.05958e-18 9.3434)
(9.65512 9.58499e-19 8.87352)
(9.65862 1.34755e-19 10.1276)
(9.91597 1.04051e-18 9.58737)
(10.0325 -4.68848e-19 10.9445)
(10.272 -1.38195e-18 10.3418)
(10.5172 3.67251e-19 11.8247)
(10.6966 4.6953e-19 11.1124)
(11.1744 0 12.7471)
(11.284 -1.16413e-19 11.9616)
(12.0892 9.27665e-20 12.7891)
(12.0365 0 13.3243)
(10.1819 9.40038e-19 9.13791)
(10.5208 -5.23196e-19 9.82379)
(10.949 -4.10677e-19 10.5264)
(11.0943 -1.61143e-20 9.95749)
(11.4753 -2.81769e-20 11.2551)
(11.5693 -3.71766e-19 10.6097)
(12.1392 -2.08178e-20 11.9919)
(12.1492 -1.1919e-19 11.2862)
(12.9376 5.5124e-21 11.9347)
(12.9382 6.16227e-20 12.4881)
(11.7272 1.98454e-20 10.0517)
(12.2653 -4.64655e-19 10.6501)
(12.9042 -9.3204e-20 11.2349)
(12.8601 0 10.6098)
(13.6025 -9.66964e-20 11.1245)
(13.6389 -8.34788e-20 11.6493)
(13.5183 -3.48176e-21 10.5007)
(14.1956 -1.17859e-19 10.8409)
(9.83336 0 12.4982)
(5.64077 8.35859e-20 16.8079)
(1.82912 -2.63652e-19 10.1837)
(10.9771 3.51671e-19 9.34637)
(0.844902 -3.98695e-18 6.25686)
(-3.65987 1.04886e-19 6.15703)
(8.90422 5.51217e-19 14.5284)
(8.55144 2.94201e-19 15.3455)
(7.54623 6.84497e-19 10.4682)
(10.1281 7.23421e-20 12.6381)
(7.20959 1.9708e-19 9.46844)
(4.32666 -1.63122e-19 6.93976)
(9.84149 -4.41581e-19 14.1517)
(10.1751 -1.28775e-19 14.7378)
(9.44847 -1.63654e-19 11.7715)
(10.8795 -3.28013e-19 13.2874)
(9.99817 2.2092e-19 11.2908)
(8.1881 3.00797e-19 9.10255)
(11.2827 0 13.7692)
(11.5505 0 13.8469)
(11.2511 0 12.6375)
(12.0405 -5.55213e-20 13.2711)
(11.8878 5.56767e-20 12.1868)
(10.6895 -2.38413e-20 10.9101)
(12.4325 -5.63533e-20 13.258)
(12.6122 0 12.9819)
(12.6127 -2.72179e-21 12.7923)
(13.0505 -5.76087e-20 12.845)
(13.1935 -2.02614e-20 12.3724)
(12.4704 7.63738e-20 11.7627)
(13.3146 0 12.5539)
(13.4176 -1.69488e-20 12.1409)
(13.6017 -7.86948e-20 12.4295)
(13.8397 0 12.1916)
(14.1104 -3.42217e-20 12.0538)
(13.72 -9.65612e-20 11.8876)
(14.0007 -1.72535e-20 11.7644)
(14.0425 -1.01458e-19 11.3137)
(14.3321 4.59168e-20 11.8026)
(14.4483 5.9015e-20 11.4292)
(14.7634 4.38003e-20 11.4493)
(14.5856 1.29088e-19 11.5742)
(14.5361 -2.50235e-20 10.9614)
(14.8722 5.72381e-20 11.0586)
(14.9169 7.52695e-20 10.6404)
(15.2328 -2.81133e-21 10.7182)
(15.1793 -7.45679e-20 11.0062)
(15.2756 1.48316e-20 10.2865)
(15.5897 7.09542e-20 10.3164)
(-2.61704 1.34049e-18 6.62154)
(-1.28235 6.10636e-18 3.1574)
(-0.530162 -2.25122e-19 8.38017)
(-0.468263 3.11476e-19 4.94932)
(0.848893 -1.07274e-19 9.08862)
(0.419131 -4.08654e-19 7.37223)
(1.76126 1.83832e-20 9.16627)
(1.5601 2.47143e-20 8.28134)
(2.34998 5.00092e-21 9.00946)
(2.36622 4.04025e-20 8.54691)
(2.72435 4.9671e-20 8.75553)
(2.90413 -1.8663e-20 8.53023)
(2.95964 -1.48792e-20 8.45574)
(3.26924 6.87138e-20 8.3734)
(3.10227 -8.52795e-20 8.12142)
(3.5164 6.68263e-21 8.1338)
(3.67703 0 7.83232)
(0.82829 -1.50964e-19 3.83957)
(4.15738 -1.76236e-19 5.21504)
(0.476349 -2.06388e-19 5.44481)
(2.22372 4.24185e-20 4.49063)
(1.33399 -2.62757e-19 7.2171)
(1.72989 -2.77052e-19 5.80265)
(2.23986 4.58236e-20 7.94386)
(2.3692 5.56823e-21 6.89882)
(2.94905 2.20575e-20 8.20193)
(3.08358 6.54132e-20 7.52826)
(3.47018 0 8.21745)
(3.66743 0 7.80497)
(3.84379 8.26564e-20 8.09149)
(4.12273 0 7.85804)
(4.1068 8.37291e-20 7.87125)
(4.46832 -4.19897e-20 7.76474)
(4.72365 -1.3778e-20 7.56586)
(4.97472 0 5.41999)
(8.04503 -3.76868e-20 7.70221)
(3.07266 2.3869e-19 4.86555)
(5.73621 3.705e-20 5.72584)
(2.78563 2.30319e-19 5.76783)
(4.11515 4.33734e-19 5.54997)
(3.21428 -1.16918e-19 6.68927)
(3.84411 -2.85763e-20 6.05859)
(3.79319 -1.04649e-19 7.2518)
(4.15379 1.40339e-20 6.63842)
(4.32032 0 7.51699)
(4.59954 0 7.04819)
(4.7526 -1.24132e-19 7.57595)
(5.03658 0 7.25564)
(5.09271 -1.39575e-19 7.48932)
(5.41872 1.08608e-20 7.29474)
(5.73422 -1.38185e-20 7.20057)
(8.52861 -1.34111e-20 7.68589)
(10.8238 -3.73316e-20 9.55192)
(6.37015 2.24314e-19 6.08604)
(9.00164 3.58017e-20 7.42518)
(5.12167 1.82819e-19 5.68999)
(7.15423 -7.11027e-20 6.32409)
(4.76744 1.01497e-19 5.9897)
(6.09722 -3.90455e-21 6.02535)
(4.93466 1.13156e-19 6.4539)
(5.7621 1.77853e-19 6.16646)
(5.30125 0 6.81055)
(5.83467 -7.38691e-21 6.44334)
(5.69867 1.23298e-19 6.99648)
(6.09344 4.39596e-20 6.6732)
(6.06196 1.25343e-19 7.02523)
(6.41268 2.21881e-19 6.78666)
(6.7284 0 6.77405)
(11.2502 0 9.32572)
(12.8108 1.37353e-20 10.653)
(9.57233 -1.79303e-19 7.5946)
(11.6728 -3.6626e-21 8.84929)
(8.06325 -1.77244e-19 6.53706)
(10.1857 -1.7906e-19 7.48165)
(7.07489 7.33063e-20 6.1137)
(8.89232 7.98803e-21 6.65503)
(6.64177 5.93752e-20 6.1156)
(8.03556 -3.46249e-20 6.28645)
(6.61085 3.54743e-20 6.29146)
(7.61116 -5.91297e-21 6.21702)
(6.79971 1.40747e-19 6.46051)
(7.51079 -2.3769e-20 6.27861)
(7.07756 9.85789e-20 6.53883)
(7.61076 2.24219e-20 6.34575)
(7.81278 1.27351e-19 6.34942)
(13.2454 1.051e-20 10.2552)
(14.1905 1.15644e-19 11.0747)
(12.2171 -7.2479e-22 8.78582)
(13.6708 1.51775e-19 9.75637)
(10.9778 3.66679e-21 7.59459)
(12.7305 3.62259e-21 8.51118)
(9.83703 -7.11151e-20 6.78771)
(11.6528 6.71384e-21 7.52509)
(8.99223 -7.17754e-20 6.34723)
(10.6712 -7.87304e-20 6.84567)
(8.50145 -7.63682e-20 6.17697)
(9.92387 2.64152e-20 6.44126)
(8.31646 -1.60464e-19 6.14779)
(9.45369 -5.68682e-20 6.23244)
(8.34426 4.35605e-20 6.14737)
(9.23142 -8.17885e-20 6.12594)
(9.19405 -4.39329e-21 6.04214)
(14.6266 2.58632e-19 10.6112)
(15.1104 -4.00206e-21 10.9846)
(14.1808 1.59218e-19 9.5276)
(15.0516 1.6847e-19 10.1403)
(13.4023 6.61826e-21 8.47398)
(14.6314 0 9.18011)
(12.4826 9.32388e-22 7.58917)
(13.954 8.13175e-20 8.2765)
(11.5979 1.80202e-20 6.92512)
(13.1665 -1.00627e-19 7.51706)
(10.8737 6.01707e-20 6.47498)
(12.406 4.05047e-20 6.93134)
(10.3688 3.56535e-20 6.19084)
(11.7697 1.28595e-20 6.50547)
(10.083 -1.38156e-19 6.00535)
(11.3046 6.08674e-21 6.19851)
(11.014 -1.58371e-19 5.95993)
(15.5303 -1.01122e-19 10.5245)
(15.7037 -2.63474e-21 10.5634)
(15.5235 8.74314e-21 9.81961)
(15.942 -1.68725e-19 10.0954)
(15.1969 7.38494e-20 9.0136)
(15.9284 1.79272e-20 9.44469)
(14.6445 -1.7384e-20 8.22807)
(15.6578 8.18741e-21 8.7337)
(13.979 -7.79119e-20 7.53346)
(15.1973 5.35618e-20 8.04623)
(13.3071 -3.27432e-21 6.95915)
(14.6413 4.01142e-21 7.43081)
(12.7116 -1.64938e-20 6.50265)
(14.0764 -3.52098e-21 6.90545)
(12.2425 -1.20229e-20 6.14002)
(13.5675 6.12158e-21 6.46453)
(13.1541 -1.84693e-20 6.0879)
(16.0949 -6.7589e-20 10.1342)
(16.3751 -1.63324e-19 9.73312)
(16.4822 -1.57329e-19 9.74899)
(16.4076 -5.22249e-20 9.18604)
(16.7427 1.4701e-19 9.35898)
(16.2202 8.22327e-20 8.57549)
(16.8015 -1.85334e-19 8.86054)
(15.8687 1.40048e-19 7.964)
(16.6698 1.96637e-19 8.31434)
(15.421 -2.18031e-21 7.39065)
(16.3987 -5.08261e-20 7.76541)
(14.9433 1.81416e-20 6.87293)
(16.0458 2.35058e-20 7.24117)
(14.4904 0 6.41135)
(15.6638 -1.78417e-20 6.75316)
(15.2952 0 6.3007)
(16.8768 1.53029e-19 9.37751)
(17.1536 1.94634e-20 9.04468)
(17.2585 -8.03059e-20 8.61622)
(17.2079 1.85381e-21 8.1348)
(17.6294 -3.3942e-20 8.30565)
(17.0346 -3.0061e-20 7.63418)
(17.6294 2.47609e-20 7.86445)
(16.779 -1.21418e-20 7.13658)
(17.5262 5.54778e-21 7.40146)
(16.4819 -1.81418e-20 6.65335)
(17.3521 5.34341e-21 6.93268)
(17.1389 3.8989e-20 6.46637)
(18.0554 -1.43371e-20 8.04897)
(18.1292 6.11117e-20 7.64787)
(18.11 1.72903e-20 7.21435)
(18.509 0 7.35428)
(18.0212 5.64713e-20 6.7617)
(18.5482 1.76236e-20 6.94134)
(18.5262 3.77637e-21 6.50416)
(18.9539 0 7.09522)
(19.0617 -2.94083e-20 6.69927)
(19.4314 -6.27594e-21 6.38905)
)
;

boundaryField
{
    inlet
    {
        type            calculated;
        value           nonuniform 0();
    }
    outlet
    {
        type            calculated;
        value           nonuniform 0();
    }
    flap
    {
        type            calculated;
        value           nonuniform List<vector> 
33
(
(-1.30466e-14 -2.77556e-14 -3.29302e-15)
(4.76158e-15 5.55112e-14 -5.61643e-15)
(-2.78531e-17 0 -6.21099e-16)
(-1.15697e-14 -4.10397e-32 -5.87013e-14)
(-7.94351e-18 -2.77556e-14 3.31927e-16)
(-2.15286e-15 6.89881e-34 -5.54275e-14)
(-6.05349e-16 -9.11833e-35 -5.55045e-14)
(-8.91705e-15 0 -1.10301e-13)
(7.21919e-15 -2.77556e-14 -1.09633e-13)
(1.88903e-16 0 1.60807e-15)
(3.60074e-15 -2.77556e-14 -1.09996e-13)
(3.05237e-14 0 -1.01877e-13)
(-5.27861e-14 0 7.269e-14)
(0 -2.77556e-14 0)
(0 0 0)
(0 0 0)
(0 -2.77556e-14 0)
(-1.12515e-14 -2.77556e-14 1.3627e-14)
(-2.39802e-16 6.6862e-33 -3.38083e-17)
(1.06412e-15 -2.77556e-14 -2.75791e-15)
(3.60144e-32 -2.77556e-14 -4.82867e-33)
(1.33419e-15 0 -2.76913e-14)
(-1.95414e-17 -2.77556e-14 -7.36206e-16)
(3.76882e-15 2.77556e-14 5.52541e-14)
(0 0 0)
(-1.00877e-16 0 -1.67025e-15)
(-8.73643e-20 -2.77556e-14 6.96397e-17)
(2.51562e-15 -2.77556e-14 -1.09692e-13)
(0 0 0)
(-1.46307e-15 0 6.20224e-15)
(0 0 0)
(-7.47107e-14 -5.55112e-14 -9.60954e-14)
(0 0 0)
)
;
    }
    upperWall
    {
        type            calculated;
        value           nonuniform 0();
    }
    lowerWall
    {
        type            calculated;
        value           uniform (0 0 0);
    }
    frontAndBack
    {
        type            empty;
        value           nonuniform 0();
    }
    procBoundary4to1
    {
        type            processor;
        value           nonuniform List<vector> 
30
(
(8.68071 -1.45115e-19 6.96391)
(8.98652 -9.93324e-19 7.30267)
(9.3305 -2.30037e-18 7.57727)
(9.46366 9.44856e-19 8.20344)
(9.91997 3.06437e-18 8.48262)
(10.3781 1.91429e-18 8.67621)
(10.6952 -1.05692e-18 9.3065)
(11.2706 -5.29559e-19 9.45351)
(11.8004 4.00371e-19 9.51784)
(12.294 -3.63864e-19 10.0659)
(12.9123 1.12459e-19 10.0331)
(13.4398 0 9.94661)
(14.1319 -2.48377e-20 10.3569)
(14.5354 -8.64231e-20 10.517)
(14.9552 1.48205e-20 10.1824)
(15.2772 2.93575e-20 9.87238)
(15.5754 0 9.9592)
(16.0814 2.39194e-19 9.96295)
(16.4374 1.5647e-19 9.57134)
(16.7909 -1.13792e-19 9.2223)
(17.2091 2.50653e-19 9.01743)
(17.4956 -1.00721e-19 8.70053)
(17.8701 -5.59616e-20 8.39918)
(18.1793 -1.01312e-19 8.06365)
(18.3911 1.21967e-19 7.73293)
(18.7749 6.01648e-20 7.45059)
(19.0652 0 7.12039)
(19.279 -4.53818e-20 6.77534)
(19.6529 -2.26627e-20 6.47672)
(19.912 4.92204e-20 6.13535)
)
;
    }
    procBoundary4to2
    {
        type            processor;
        value           nonuniform List<vector> 
11
(
(5.35375 2.12048e-19 7.29193)
(6.37229 -2.51609e-19 6.92233)
(7.37199 0 6.50305)
(8.4954 7.95685e-20 6.1041)
(9.9784 2.98028e-20 5.85287)
(11.9168 -2.09611e-19 5.83665)
(14.1004 0 5.99507)
(16.1791 1.07865e-19 6.18719)
(17.8873 -1.60288e-19 6.2981)
(19.1111 5.00105e-20 6.27133)
(19.8576 1.60649e-20 6.09972)
)
;
    }
    procBoundary4to3
    {
        type            processor;
        value           nonuniform List<vector> 
19
(