/*--------------------------------*- C++ -*----------------------------------*\
| =========                 |                                                 |
| \\      /  F ield         | OpenFOAM: The Open Source CFD Toolbox           |
|  \\    /   O peration     | Version:  dev                                   |
|   \\  /    A nd           | Web:      www.OpenFOAM.org                      |
|    \\/     M anipulation  |                                                 |
\*---------------------------------------------------------------------------*/
FoamFile
{
    version     2.0;
    format      ascii;
    class       surfaceScalarField;
    location    "1.15";
    object      meshPhi;
}
// * * * * * * * * * * * * * * * * * * * * * * * * * * * * * * * * * * * * * //

dimensions      [0 3 -1 0 0 0 0];

internalField   nonuniform List<scalar> 
5457
(
4.5507e-06
-1.44445e-07
4.7282e-06
-3.3327e-07
-1.4949e-06
-2.98693e-07
-1.40537e-05
-1.23401e-08
-3.1597e-05
4.99619e-07
-5.20586e-05
1.18038e-06
-7.30807e-05
1.95611e-06
-9.23527e-05
2.74559e-06
-0.000107891
3.46907e-06
-0.000118248
4.05635e-06
-0.000122656
4.45477e-06
-0.00012107
4.63293e-06
-0.000114094
4.58456e-06
-0.000102829
4.32857e-06
-8.86762e-05
3.90253e-06
-7.31175e-05
3.35719e-06
-5.75215e-05
2.74847e-06
-4.29994e-05
2.12991e-06
-3.03246e-05
1.54681e-06
-1.98992e-05
1.03142e-06
-1.22978e-05
6.24356e-07
-7.38068e-06
3.5437e-07
-4.19298e-06
1.91039e-07
-2.2013e-06
9.05973e-08
-1.05108e-06
3.31958e-08
-4.44894e-07
5.4255e-09
-1.59422e-07
-4.26922e-09
-4.42092e-08
-4.91359e-09
-9.43277e-09
-2.77733e-09
-6.74617e-10
4.97102e-06
-2.99211e-07
5.42658e-06
-6.94363e-07
-6.65793e-07
-6.36974e-07
-1.32179e-05
-7.06626e-08
-3.08653e-05
9.51795e-07
-5.15243e-05
2.31666e-06
-7.28154e-05
3.87614e-06
-9.23988e-05
5.46734e-06
-0.000108256
6.92974e-06
-0.000118906
8.12036e-06
-0.000123548
8.92925e-06
-0.000122117
9.29686e-06
-0.00011521
9.21335e-06
-0.000103935
8.71175e-06
-8.97082e-05
7.86662e-06
-7.40331e-05
6.77964e-06
-5.8301e-05
5.56313e-06
-4.36434e-05
4.32485e-06
-3.08519e-05
3.15664e-06
-2.03499e-05
2.12462e-06
-1.26564e-05
1.307e-06
-7.65534e-06
7.5888e-07
-4.42997e-06
4.23843e-07
-2.3962e-06
2.15472e-07
-1.20286e-06
9.27216e-08
-5.53151e-07
2.95834e-08
-2.2591e-07
3.3941e-09
-7.52001e-08
-3.48726e-09
-1.93782e-08
-3.09149e-09
-7.44542e-10
5.41107e-06
-4.68874e-07
6.17481e-06
-1.09599e-06
2.554e-07
-1.03463e-06
-1.22435e-05
-2.02286e-07
-2.99494e-05
1.32106e-06
-5.0769e-05
3.3653e-06
-7.2312e-05
5.70951e-06
-9.22186e-05
8.10977e-06
-0.00010844
1.03251e-05
-0.000119461
1.214e-05
-0.00012445
1.33886e-05
-0.000123311
1.39777e-05
-0.000116621
1.38885e-05
-0.000105479
1.31685e-05
-9.13024e-05
1.19278e-05
-7.56081e-05
1.03181e-05
-5.98015e-05
8.50747e-06
-4.50318e-05
6.65735e-06
-3.21111e-05
4.90768e-06
-2.14784e-05
3.35995e-06
-1.36247e-05
2.12585e-06
-8.45957e-06
1.28351e-06
-5.09464e-06
7.56167e-07
-2.91949e-06
4.19124e-07
-1.59012e-06
2.107e-07
-8.15509e-07
9.37246e-08
-3.80463e-07
3.55535e-08
-1.45191e-07
1.0578e-08
-4.09353e-08
1.43551e-09
3.40364e-10
5.82938e-06
-6.56854e-07
6.91349e-06
-1.54861e-06
1.20776e-06
-1.50978e-06
-1.11808e-05
-4.33221e-07
-2.88794e-05
1.5732e-06
-4.97939e-05
4.28336e-06
-7.15377e-05
7.40486e-06
-9.17459e-05
1.06159e-05
-0.000108349
1.35963e-05
-0.000119804
1.60595e-05
-0.000125246
1.7784e-05
-0.000124543
1.86382e-05
-0.000118234
1.85887e-05
-0.000107392
1.76958e-05
-9.34227e-05
1.61023e-05
-7.78402e-05
1.40076e-05
-6.20524e-05
1.16337e-05
-4.72176e-05
9.19407e-06
-3.41705e-05
6.87482e-06
-2.33663e-05
4.81404e-06
-1.52915e-05
3.15483e-06
-9.87461e-06
1.9946e-06
-6.25503e-06
1.24248e-06
-3.827e-06
7.43531e-07
-2.2543e-06
4.17909e-07
-1.25742e-06
2.18389e-07
-6.35649e-07
1.04061e-07
-2.5961e-07
4.2986e-08
-7.55846e-08
1.3027e-08
3.1169e-09
6.34155e-06
-8.67999e-07
7.83373e-06
-2.06682e-06
2.41236e-06
-2.08658e-06
-9.81319e-06
-7.96005e-07
-2.74732e-05
1.66882e-06
-4.84777e-05
5.02711e-06
-7.04457e-05
8.91726e-06
-9.10098e-05
1.29421e-05
-0.000108082
1.6704e-05
-0.000120089
1.98459e-05
-0.000126125
2.20886e-05
-0.000126008
2.32604e-05
-0.000120231
2.33102e-05
-0.000109829
2.23055e-05
-9.61831e-05
2.04166e-05
-8.07999e-05
1.78872e-05
-6.50889e-05
1.49915e-05
-5.02143e-05
1.19939e-05
-3.70324e-05
9.12314e-06
-2.60262e-05
6.55467e-06
-1.76698e-05
4.46058e-06
-1.19059e-05
2.95239e-06
-7.92475e-06
1.9322e-06
-5.13906e-06
1.22624e-06
-3.22042e-06
7.41664e-07
-1.90025e-06
4.22368e-07
-1.00257e-06
2.2012e-07
-4.22314e-07
9.88964e-08
-1.23763e-07
3.34934e-08
7.98293e-09
6.95489e-06
-1.10692e-06
8.94497e-06
-2.66387e-06
3.87985e-06
-2.78625e-06
-8.1264e-06
-1.31991e-06
-2.57109e-05
1.571e-06
-4.67972e-05
5.55405e-06
-6.90096e-05
1.02014e-05
-8.99785e-05
1.5042e-05
-0.000107601
1.96033e-05
-0.000120273
2.34586e-05
-0.00012704
2.627e-05
-0.000127662
2.78228e-05
-0.000122575
2.80445e-05
-0.00011276
2.7003e-05
-9.95639e-05
2.48894e-05
-8.44776e-05
2.19876e-05
-6.89155e-05
1.86214e-05
-5.40486e-05
1.51035e-05
-4.07453e-05
1.17056e-05
-2.95224e-05
8.63962e-06
-2.0831e-05
6.10083e-06
-1.46252e-05
4.20979e-06
-1.01706e-05
2.87032e-06
-6.90912e-06
1.90314e-06
-4.52863e-06
1.20792e-06
-2.77407e-06
7.22832e-07
-1.49762e-06
3.94162e-07
-6.36438e-07
1.83087e-07
-1.82797e-07
6.39584e-08
1.48717e-08
7.67391e-06
-1.37828e-06
1.02528e-05
-3.35285e-06
5.61605e-06
-3.62912e-06
-6.11536e-06
-2.0322e-06
-2.35863e-05
1.2453e-06
-4.47386e-05
5.82137e-06
-6.72062e-05
1.12056e-05
-8.86202e-05
1.68565e-05
-0.000106866
2.22304e-05
-0.000120307
2.68325e-05
-0.000127937
3.02655e-05
-0.00012945
3.22697e-05
-0.000125212
3.27465e-05
-0.000116142
3.17585e-05
-0.000103536
2.95104e-05
-8.88634e-05
2.63162e-05
-7.35383e-05
2.25434e-05
-5.87414e-05
1.85528e-05
-4.53525e-05
1.46605e-05
-3.39214e-05
1.11146e-05
-2.48523e-05
8.12488e-06
-1.81058e-05
5.81206e-06
-1.30603e-05
4.09362e-06
-9.19455e-06
2.8036e-06
-6.21568e-06
1.83955e-06
-3.89887e-06
1.13535e-06
-2.12821e-06
6.35172e-07
-8.9688e-07
2.99127e-07
-2.44783e-07
1.04313e-07
2.2964e-08
8.50497e-06
-1.68726e-06
1.17666e-05
-4.14816e-06
7.63092e-06
-4.63709e-06
-3.7701e-06
-2.96133e-06
-2.10869e-05
6.56612e-07
-4.22808e-05
5.78679e-06
-6.50019e-05
1.188e-05
-8.68882e-05
1.83295e-05
-0.000105817
2.45244e-05
-0.000120119
2.99044e-05
-0.000128734
3.4013e-05
-0.000131283
3.65429e-05
-0.000128056
3.73648e-05
-0.000119899
3.65307e-05
-0.000108043
3.42509e-05
-9.39227e-05
3.08577e-05
-7.89453e-05
2.67562e-05
-6.42998e-05
2.23539e-05
-5.08847e-05
1.80093e-05
-3.92798e-05
1.40068e-05
-2.98064e-05
1.05643e-05
-2.24168e-05
7.79264e-06
-1.66433e-05
5.63122e-06
-1.20288e-05
3.94762e-06
-8.29899e-06
2.64949e-06
-5.26984e-06
1.66817e-06
-2.87474e-06
9.46075e-07
-1.18202e-06
4.4576e-07
-2.97192e-07
1.51921e-07
3.078e-08
9.4563e-06
-2.03853e-06
1.34983e-05
-5.06271e-06
9.93729e-06
-5.82948e-06
-1.07521e-06
-4.13235e-06
-1.81919e-05
-2.26202e-07
-3.9395e-05
5.41262e-06
-6.23558e-05
1.21801e-05
-8.47264e-05
1.94092e-05
-0.000104381
2.64271e-05
-0.000119622
3.26113e-05
-0.000129331
3.74468e-05
-0.000133055
4.05764e-05
-0.000130998
4.18361e-05
-0.000123924
4.12595e-05
-0.000112993
3.90544e-05
-9.95836e-05
3.55662e-05
-8.50878e-05
3.12278e-05
-7.0703e-05
2.64875e-05
-5.73468e-05
2.17459e-05
-4.56242e-05
1.73221e-05
-3.57298e-05
1.34308e-05
-2.75938e-05
1.01641e-05
-2.09382e-05
7.49601e-06
-1.54015e-05
5.34526e-06
-1.07438e-05
3.63915e-06
-6.83044e-06
2.31449e-06
-3.67544e-06
1.31596e-06
-1.45071e-06
6.12712e-07
-3.25989e-07
2.00884e-07
3.65824e-08
1.05357e-05
-2.43503e-06
1.54584e-05
-6.10459e-06
1.25442e-05
-7.21854e-06
1.97868e-06
-5.56234e-06
-1.48882e-05
-1.4273e-06
-3.60603e-05
4.66543e-06
-5.92344e-05
1.2061e-05
-8.20838e-05
2.0038e-05
-0.000102488
2.78678e-05
-0.000118722
3.48705e-05
-0.000129616
4.04756e-05
-0.00013464
4.42767e-05
-0.000133903
4.6068e-05
-0.000128078
4.58546e-05
-0.000118248
4.38361e-05
-0.000105727
4.03668e-05
-9.18697e-05
3.5898e-05
-7.78767e-05
3.09072e-05
-6.46868e-05
2.58334e-05
-5.29268e-05
2.10339e-05
-4.26028e-05
1.67096e-05
-3.36023e-05
1.29168e-05
-2.58964e-05
9.67798e-06
-1.92403e-05
6.98629e-06
-1.34428e-05
4.7941e-06
-8.45873e-06
3.05077e-06
-4.42614e-06
1.71748e-06
-1.64882e-06
7.79688e-07
-3.19943e-07
2.4287e-07
3.91081e-08
1.17537e-05
-2.88077e-06
1.76588e-05
-7.28322e-06
1.54576e-05
-8.81525e-06
5.39597e-06
-7.26479e-06
-1.11651e-05
-2.96728e-06
-3.22549e-05
3.51419e-06
-5.56001e-05
1.14805e-05
-7.89011e-05
2.0161e-05
-0.000100052
2.8778e-05
-0.000117311
3.6601e-05
-0.000129455
4.30074e-05
-0.00013588
4.75412e-05
-0.000136597
4.99488e-05
-0.00013218
5.02017e-05
-0.000123621
4.84849e-05
-0.000112169
4.5152e-05
-9.91272e-05
4.06657e-05
-8.56791e-05
3.55254e-05
-7.27749e-05
3.01999e-05
-6.10616e-05
2.50792e-05
-5.03079e-05
2.03443e-05
-4.03152e-05
1.60048e-05
-3.13652e-05
1.2137e-05
-2.33723e-05
8.83024e-06
-1.62103e-05
6.07339e-06
-9.9786e-06
3.8352e-06
-4.99832e-06
2.11151e-06
-1.72314e-06
9.2169e-07
-2.71998e-07
2.69683e-07
3.79195e-08
1.31263e-05
-3.37993e-06
2.01182e-05
-8.60911e-06
1.86882e-05
-1.06329e-05
9.1826e-06
-9.25372e-06
-7.01328e-06
-4.86189e-06
-2.79553e-05
1.93689e-06
-5.14096e-05
1.04052e-05
-7.51107e-05
1.97311e-05
-9.6979e-05
2.9095e-05
-0.000115264
3.77234e-05
-0.000128694
4.49443e-05
-0.000136589
5.02506e-05
-0.000138867
5.33441e-05
-0.000135995
5.41588e-05
-0.000128869
5.28546e-05
-0.000118656
4.97759e-05
-0.000106603
4.53878e-05
-9.38611e-05
4.02044e-05
-8.13738e-05
3.47205e-05
-6.97847e-05
2.93497e-05
-5.8589e-05
2.42375e-05
-4.74729e-05
1.93374e-05
-3.70673e-05
1.47888e-05
-2.751e-05
1.0797e-05
-1.87833e-05
7.40332e-06
-1.11857e-05
4.60882e-06
-5.27901e-06
2.46152e-06
-1.63851e-06
1.02402e-06
-1.74478e-07
2.78761e-07
3.33107e-08
1.46731e-05
-3.93531e-06
2.2862e-05
-1.00898e-05
2.22508e-05
-1.26806e-05
1.33454e-05
-1.15378e-05
-2.42999e-06
-7.1202e-06
-2.31519e-05
-7.8681e-08
-4.66346e-05
8.81281e-06
-7.06574e-05
1.87092e-05
-9.31769e-05
2.87582e-05
-0.00011245
3.81535e-05
-0.000127161
4.61789e-05
-0.000136555
5.22776e-05
-0.000140463
5.61084e-05
-0.00013924
5.75647e-05
-0.00013368
5.67734e-05
-0.000124857
5.40593e-05
-0.00011395
4.98845e-05
-0.000102059
4.47699e-05
-9.01069e-05
3.92248e-05
-7.87112e-05
3.36824e-05
-6.70507e-05
2.82404e-05
-5.46745e-05
2.27795e-05
-4.26083e-05
1.75081e-05
-3.12851e-05
1.27721e-05
-2.08624e-05
8.68801e-06
-1.1895e-05
5.30899e-06
-5.19842e-06
2.74414e-06
-1.37125e-06
1.0868e-06
-8.27174e-09
2.75137e-07
2.68603e-08
1.64176e-05
-4.55158e-06
2.59203e-05
-1.17356e-05
2.61565e-05
-1.49641e-05
1.78896e-05
-1.41181e-05
2.58839e-06
-9.74625e-06
-1.78382e-05
-2.54208e-06
-4.12547e-05
6.68584e-06
-6.5496e-05
1.70654e-05
-8.85652e-05
2.77208e-05
-0.00010874
3.782e-05
-0.000124673
4.66114e-05
-0.000135546
5.34945e-05
-0.000141102
5.80869e-05
-0.00014159
6.02407e-05
-0.000137687
6.00444e-05
-0.000130367
5.77934e-05
-0.000120727
5.39384e-05
-0.000109808
4.90029e-05
-9.84752e-05
4.34983e-05
-8.73076e-05
3.78643e-05
-7.5159e-05
3.21474e-05
-6.14147e-05
2.61462e-05
-4.75307e-05
2.01357e-05
-3.43162e-05
1.46226e-05
-2.21802e-05
9.82758e-06
-1.19694e-05
5.8762e-06
-4.69486e-06
2.93683e-06
-8.67559e-07
1.11103e-06
2.658e-07
2.74065e-07
2.55822e-08
1.81166e-05
-5.11515e-06
2.9153e-05
-1.33714e-05
3.04365e-05
-1.74365e-05
2.28343e-05
-1.70195e-05
8.06791e-06
-1.27607e-05
-1.19781e-05
-5.47866e-06
-3.52164e-05
3.99165e-06
-5.95479e-05
1.4756e-05
-8.30327e-05
2.59231e-05
-0.000103979
3.66436e-05
-0.000121028
4.61395e-05
-0.000133307
5.37751e-05
-0.000140477
5.91285e-05
-0.000142681
6.20111e-05
-0.000140482
6.24702e-05
-0.000134736
6.07695e-05
-0.000126442
5.73349e-05
-0.000116571
5.26799e-05
-0.000105913
4.7315e-05
-9.49773e-05
4.16758e-05
-8.23273e-05
3.5752e-05
-6.71737e-05
2.92554e-05
-5.14026e-05
2.25202e-05
-3.6289e-05
1.62316e-05
-2.25542e-05
1.07439e-05
-1.13157e-05
6.2639e-06
-3.685e-06
3.00792e-06
-2.53912e-08
1.07377e-06
7.38555e-07
2.86086e-07
2.09718e-08
1.0321e-06
-1.1388e-08
6.3237e-06
-5.01784e-08
2.33003e-05
-1.51567e-07
5.63566e-05
-2.39751e-07
9.95444e-05
-1.28768e-07
0.000140764
2.86211e-07
0.000172754
9.30041e-07
0.000196288
1.61383e-06
0.000215933
2.20309e-06
0.00023285
2.60568e-06
0.000246818
2.58245e-06
0.000260851
2.04195e-06
0.000276507
1.10087e-06
0.000292873
-1.85175e-07
0.000308606
-1.71355e-06
0.000322291
-3.39686e-06
0.000332624
-5.12531e-06
0.000338515
-6.78127e-06
0.000339166
-8.25539e-06
0.000334076
-9.44639e-06
0.00032305
-1.02943e-05
0.000306127
-1.07397e-05
0.000283539
-1.07808e-05
0.000255662
-1.0427e-05
0.000222905
-9.69479e-06
0.000185708
-8.63572e-06
0.000144497
-7.25351e-06
9.96263e-05
-5.55863e-06
5.12596e-05
-3.55307e-06
-1.24517e-06
1.12452e-06
-2.19121e-08
6.81308e-06
-9.41139e-08
2.44712e-05
-2.66375e-07
5.78203e-05
-3.84405e-07
0.00010033
-1.27597e-07
0.000140258
7.30683e-07
0.000171093
2.00056e-06
0.000193928
3.30103e-06
0.000213128
4.42848e-06
0.000230206
5.11967e-06
0.000244733
4.9375e-06
0.000259173
3.8421e-06
0.000275284
1.96982e-06
0.000292076
-5.88377e-07
0.000308168
-3.60014e-06
0.000322139
-6.90832e-06
0.000332683
-1.02991e-05
0.000338714
-1.35385e-05
0.000339446
-1.64204e-05
0.000334383
-1.87358e-05
0.000323323
-2.0367e-05
0.000306338
-2.12297e-05
0.000283661
-2.1296e-05
0.000255691
-2.06088e-05
0.000222872
-1.91874e-05
0.00018564
-1.7095e-05
0.000144413
-1.43582e-05
9.9547e-05
-1.10013e-05
5.12075e-05
-7.02957e-06
-2.46256e-06
1.23783e-06
-3.16894e-08
7.37707e-06
-1.34727e-07
2.5443e-05
-3.44879e-07
5.79103e-05
-4.15945e-07
9.77709e-05
3.39592e-08
0.000134631
1.2875e-06
0.000163396
3.08038e-06
0.000185392
4.8614e-06
0.000204494
6.38421e-06
0.000222177
7.22221e-06
0.000237779
6.78361e-06
0.000253274
5.08315e-06
0.000270388
2.28321e-06
0.000288043
-1.46789e-06
0.00030487
-5.86402e-06
0.000319458
-1.06775e-05
0.000330521
-1.56011e-05
0.000336971
-2.02816e-05
0.000338016
-2.44255e-05
0.000333188
-2.77586e-05
0.000322283
-3.00857e-05
0.000305405
-3.13289e-05
0.000282825
-3.14265e-05
0.000254939
-3.04181e-05
0.000222206
-2.83374e-05
0.000185072
-2.5249e-05
0.000143954
-2.12048e-05
9.92122e-05
-1.62435e-05
5.10224e-05
-1.03751e-05
-3.63303e-06
1.34751e-06
-4.25045e-08
7.8187e-06
-1.71289e-07
2.5616e-05
-3.75177e-07
5.57151e-05
-3.07929e-07
9.11968e-05
4.12486e-07
0.00012379
1.9782e-06
0.000150037
4.0773e-06
0.000171265
6.12492e-06
0.000190615
7.83442e-06
0.000209191
8.66009e-06
0.000226215
7.89368e-06
0.000243299
5.51707e-06
0.000261865
1.78287e-06
0.000280735
-3.02691e-06
0.000298604
-8.67062e-06
0.000314097
-1.4832e-05
0.000325925
-2.10963e-05
0.000333031
-2.70442e-05
0.000334611
-3.22802e-05
0.000330232
-3.651e-05
0.000319729
-3.94658e-05
0.000303199
-4.10341e-05
0.000280935
-4.11414e-05
0.000253335
-3.98056e-05
0.000220862
-3.70775e-05
0.000183978
-3.3031e-05
0.000143108
-2.77343e-05
9.86228e-05
-2.12387e-05
5.07114e-05
-1.35593e-05
-4.74589e-06
1.45961e-06
-5.4149e-08
8.09849e-06
-1.93106e-07
2.50077e-05
-3.39118e-07
5.17764e-05
-7.42011e-08
8.21847e-05
9.3516e-07
0.000110262
2.72391e-06
0.000133929
4.93167e-06
0.000154379
7.0223e-06
0.000173987
8.67895e-06
0.000193482
9.30695e-06
0.000212085
8.13574e-06
0.00023097
5.06957e-06
0.000251131
4.46745e-07
0.000271398
-5.34164e-06
0.000290481
-1.20856e-05
0.000307015
-1.94017e-05
0.000319729
-2.68053e-05
0.000327606
-3.38439e-05
0.000329881
-4.00363e-05
0.000326118
-4.50294e-05
0.000316176
-4.85187e-05
0.000300149
-5.03357e-05
0.00027833
-5.04014e-05
0.000251132
-4.8724e-05
0.000219029
-4.53612e-05
0.000182495
-4.0395e-05
0.000141969
-3.39053e-05
9.78337e-05
-2.59537e-05
5.0297e-05
-1.65607e-05
-5.79347e-06
1.55405e-06
-6.3194e-08
8.11082e-06
-1.87286e-07
2.35319e-05
-2.23316e-07
4.64368e-05
2.59191e-07
7.17606e-05
1.49273e-06
9.56225e-05
3.37516e-06
0.00011692
5.52326e-06
0.000136615
7.45776e-06
0.000156397
8.83206e-06
0.000176708
9.08575e-06
0.000196836
7.45607e-06
0.000217496
3.72616e-06
0.000239197
-1.69843e-06
0.000260837
-8.39354e-06
0.000281128
-1.61048e-05
0.000298706
-2.43938e-05
0.000312363
-3.27759e-05
0.00032109
-4.07265e-05
0.000324155
-4.77192e-05
0.000321115
-5.33281e-05
0.000311825
-5.72229e-05
0.00029639
-5.92017e-05
0.000275108
-5.91726e-05
0.000248402
-5.7136e-05
0.000216757
-5.31511e-05
0.00018066
-4.73054e-05
0.000140561
-3.96863e-05
9.68611e-05
-3.03634e-05
4.97875e-05
-1.93626e-05
-6.76994e-06
1.60295e-06
-6.67951e-08
7.78741e-06
-1.49484e-07
2.12622e-05
-4.05542e-08
4.02296e-05
6.39069e-07
6.09692e-05
1.99072e-06
8.12301e-05
3.81783e-06
0.000100513
5.75055e-06
0.000119525
7.36576e-06
0.000139354
8.30604e-06
0.000160255
8.05899e-06
0.000181689
5.88858e-06
0.000203925
1.51714e-06
0.000227004
-4.62522e-06
0.000249849
-1.21201e-05
0.000271206
-2.06747e-05
0.000289762
-2.98089e-05
0.000304332
-3.9009e-05
0.000313913
-4.76933e-05
0.000317773
-5.53056e-05
0.000315475
-6.13775e-05
0.000306874
-6.55523e-05
0.000292077
-6.76039e-05
0.000271388
-6.74266e-05
0.000245236
-6.50125e-05
0.000214115
-6.04191e-05
0.000178522
-5.37355e-05
0.000138921
-4.50538e-05
9.57281e-05
-3.44495e-05
4.91946e-05
-2.19533e-05
-7.67122e-06
1.58613e-06
-6.33622e-08
7.13768e-06
-8.38947e-08
1.84459e-05
1.73758e-07
3.37893e-05
9.85144e-07
5.07307e-05
2.32819e-06
6.81199e-05
3.96421e-06
8.57663e-05
5.56093e-06
0.000104152
6.74096e-06
0.000123918
7.1528e-06
0.000145193
6.3262e-06
0.000167619
3.54179e-06
0.000191094
-1.46419e-06
0.000215272
-8.26998e-06
0.000239099
-1.64837e-05
0.00026134
-2.5762e-05
0.000280733
-3.56066e-05
0.000296097
-4.54533e-05
0.000306441
-5.46968e-05
0.000311035
-6.27588e-05
0.000309442
-6.91455e-05
0.000301516
-7.34799e-05
0.000287365
-7.55181e-05
0.00026729
-7.51413e-05
0.000241727
-7.23329e-05
0.000211172
-6.71457e-05
0.000176133
-5.9668e-05
0.000137085
-4.9993e-05
9.44601e-05
-3.82006e-05
4.85316e-05
-2.43259e-05
-8.49492e-06
1.4974e-06
-5.24725e-08
6.24645e-06
-2.06541e-09
1.54323e-05
3.71816e-07
2.77273e-05
1.21883e-06
4.17299e-05
2.43441e-06
5.69335e-05
3.77914e-06
7.32807e-05
4.96113e-06
9.10953e-05
5.63348e-06
0.000110725
5.44959e-06
0.000132221
3.97561e-06
0.00015531
5.42557e-07
0.000179636
-5.10211e-06
0.000204594
-1.25552e-05
0.000229131
-2.1417e-05
0.000252032
-3.13071e-05
0.000272054
-4.17126e-05
0.000288036
-5.20442e-05
0.000298996
-6.16822e-05
0.00030421
-7.00363e-05
0.00030324
-7.65989e-05
0.000295935
-8.09806e-05
0.000282399
-8.29246e-05
0.000262931
-8.23011e-05
0.000237965
-7.90843e-05
0.000208001
-7.33205e-05
0.000173549
-6.50938e-05
0.000135094
-5.44968e-05
9.30831e-05
-4.16115e-05
4.78118e-05
-2.64772e-05
-9.24018e-06
1.34551e-06
-3.50489e-08
5.24429e-06
8.02969e-08
1.25722e-05
5.08373e-07
2.25023e-05
1.28976e-06
3.4352e-05
2.28869e-06
4.79479e-05
3.28102e-06
6.32914e-05
4.0023e-06
8.06132e-05
4.11985e-06
0.000100081
3.28522e-06
0.000121669
1.09393e-06
0.000145143
-3.03332e-06
0.000169981
-9.31892e-06
0.000195405
-1.739e-05
0.00022036
-2.68217e-05
0.000243653
-3.72148e-05
0.000264063
-4.80446e-05
0.000280449
-5.87118e-05
0.000291844
-6.85923e-05
0.000297527
-7.7094e-05
0.00029706
-8.37057e-05
0.00029029
-8.80323e-05
0.000277311
-8.98092e-05
0.000258417
-8.88974e-05
0.000234037
-8.52618e-05
0.000204666
-7.89405e-05
0.000170819
-7.00118e-05
0.000132985
-5.85651e-05
9.16227e-05
-4.46829e-05
4.70484e-05
-2.84084e-05
-9.9075e-06
1.14873e-06
-1.29856e-08
4.26769e-06
1.47575e-07
1.01356e-05
5.54796e-07
1.83636e-05
1.18982e-06
2.87142e-05
1.91967e-06
4.11771e-05
2.52818e-06
5.57921e-05
2.75404e-06
7.27355e-05
2.26367e-06
9.20624e-05
7.12808e-07
0.000113662
-2.25955e-06
0.00013729
-7.12092e-06
0.00016235
-1.40431e-05
0.000187946
-2.26818e-05
0.000213038
-3.26046e-05
0.000236453
-4.33951e-05
0.000257
-5.45224e-05
0.00027356
-6.53873e-05
0.000285186
-7.53717e-05
0.000291164
-8.38905e-05
0.000291061
-9.04373e-05
0.000284714
-9.46175e-05
0.000272214
-9.61631e-05
0.000253842
-9.49278e-05
0.000230018
-9.08673e-05
0.000201231
-8.40103e-05
0.000167992
-7.44276e-05
0.000130793
-6.22036e-05
9.01029e-05
-4.74202e-05
4.62538e-05
-3.01235e-05
-1.04986e-05
9.27685e-07
1.19005e-08
3.43042e-06
1.87622e-07
8.28201e-06
5.05852e-07
1.53887e-05
9.45263e-07
2.47668e-05
1.37985e-06
3.65019e-05
1.5773e-06
5.06613e-05
1.26156e-06
6.73689e-05
9.8357e-08
8.66085e-05
-2.23627e-06
0.000108177
-6.0408e-06
0.000131781
-1.1655e-05
0.000156811
-1.91969e-05
0.000182326
-2.83499e-05
0.000207297
-3.86831e-05
0.00023058
-4.97674e-05
0.000251015
-6.10722e-05
0.000267518
-7.20076e-05
0.000279163
-8.19697e-05
0.000285254
-9.03887e-05
0.000285359
-9.67696e-05
0.000279314
-0.000100724
0.000267199
-0.000101983
0.000249284
-0.000100396
0.000225973
-9.59085e-05
0.000197747
-8.85403e-05
0.000165109
-7.83525e-05
0.000128551
-6.54233e-05
8.8545e-05
-4.98329e-05
4.54392e-05
-3.16293e-05
-1.10159e-05
7.07769e-07
3.70674e-08
2.82645e-06
1.9477e-07
7.09111e-06
3.80251e-07
1.35751e-05
5.96295e-07
2.24301e-05
6.99257e-07
3.37894e-05
4.36936e-07
4.77366e-05
-4.81758e-07
6.43478e-05
-2.37903e-06
8.35717e-05
-5.55151e-06
0.000105088
-1.02211e-05
0.000128534
-1.65906e-05
0.000153334
-2.47216e-05
0.000178554
-3.43284e-05
0.000203176
-4.49871e-05
0.000226089
-5.62616e-05
0.000246179
-6.76288e-05
0.000262401
-7.85161e-05
0.00027386
-8.83413e-05
0.000279879
-9.65567e-05
0.000280036
-0.000102683
0.000274165
-0.000106343
0.000262334
-0.00010727
0.000244801
-0.000105309
0.000221954
-0.000100398
0.000194258
-9.25456e-05
0.000162206
-8.18023e-05
0.000126284
-6.82392e-05
8.69677e-05
-5.19334e-05
4.46144e-05
-3.29347e-05
-1.1463e-05
5.54229e-07
5.14369e-08
2.57077e-06
1.67169e-07
6.66658e-06
1.88635e-07
1.29665e-05
1.50066e-07
2.16747e-05
-1.39103e-07
3.29383e-05
-9.31281e-07
4.68623e-05
-2.51677e-06
6.35049e-05
-5.19823e-06
8.2798e-05
-9.24289e-06
0.000104253
-1.47861e-05
0.00012742
-2.18881e-05
0.000151826
-3.05606e-05
0.00017657
-4.0558e-05
0.000200643
-5.14581e-05
0.000222971
-6.2817e-05
0.000242499
-7.41349e-05
0.000258233
-8.48633e-05
0.00026931
-9.44474e-05
0.000275082
-0.000102368
0.000275137
-0.000108165
0.000269313
-0.000111472
0.000257667
-0.00011203
0.00024044
-0.000109681
0.000218002
-0.000104353
0.0001908
-9.6045e-05
0.000159312
-8.47962e-05
0.000124017
-7.06692e-05
8.53869e-05
-5.37368e-05
4.37874e-05
-3.405e-05
-1.18435e-05
7.30992e-07
-3.88021e-08
2.99042e-06
9.21406e-08
7.25178e-06
-8.86328e-08
1.36816e-05
-4.59786e-07
2.24999e-05
-1.2221e-06
3.38693e-05
-2.61782e-06
4.79147e-05
-4.925e-06
6.47016e-05
-8.42652e-06
8.40931e-05
-1.33324e-05
0.000105459
-1.97099e-05
0.000128288
-2.75386e-05
0.000152176
-3.67331e-05
0.000176274
-4.70495e-05
0.000199596
-5.80934e-05
0.000221127
-6.94241e-05
0.00023988
-8.05799e-05
0.000254926
-9.10505e-05
0.000265439
-0.000100305
0.000270797
-0.00010785
0.00027061
-0.000113247
0.000264714
-0.00011615
0.000253161
-0.00011631
0.000236173
-0.00011356
0.000214098
-0.000107824
0.00018736
-9.9087e-05
0.000156421
-8.73789e-05
0.000121747
-7.2752e-05
8.38051e-05
-5.52742e-05
4.29621e-05
-3.49963e-05
-1.21653e-05
2.00221e-05
-5.52927e-06
3.3193e-05
-1.47069e-05
3.62494e-05
-1.98166e-05
2.93511e-05
-2.0192e-05
1.46319e-05
-1.6233e-05
-5.68383e-06
-8.95636e-06
-2.94965e-05
6.56102e-07
-5.46993e-05
1.17003e-05
-7.93489e-05
2.32753e-05
-0.000101729
3.4522e-05
-0.000120436
4.46459e-05
-0.000134523
5.29871e-05
-0.000143554
5.90865e-05
-0.000147574
6.27114e-05
-0.000147048
6.38691e-05
-0.000142737
6.27885e-05
-0.000135558
5.98623e-05
-0.00012643
5.55819e-05
-0.000116095
5.04516e-05
-0.000104995
4.49008e-05
-9.1392e-05
3.88642e-05
-7.42641e-05
3.19553e-05
-5.59778e-05
2.4546e-05
-3.84466e-05
1.75188e-05
-2.27593e-05
1.13898e-05
-1.02821e-05
6.44357e-06
-2.17257e-06
2.92368e-06
1.40637e-06
8.94766e-07
1.85689e-06
1.12485e-07
-8.50923e-09
7.94047e-07
2.11784e-05
-5.89224e-06
3.59903e-05
-1.57888e-05
4.13016e-05
-2.17939e-05
3.61646e-05
-2.32565e-05
2.21033e-05
-2.00755e-05
1.9038e-06
-1.30282e-05
-2.2011e-05
-3.36765e-06
-4.75797e-05
7.83939e-06
-7.29053e-05
1.97048e-05
-9.62826e-05
3.13735e-05
-0.000116277
4.20342e-05
-0.000131908
5.10075e-05
-0.000142653
5.78098e-05
-0.000148439
6.21651e-05
-0.000149628
6.40364e-05
-0.000146868
6.36154e-05
-0.000140964
6.12588e-05
-0.00013275
5.74284e-05
-0.000122912
5.26161e-05
-0.00011185
4.72541e-05
-9.76411e-05
4.12505e-05
-7.88936e-05
3.40851e-05
-5.83686e-05
2.60984e-05
-3.879e-05
1.84053e-05
-2.1572e-05
1.17209e-05
-8.21997e-06
6.38711e-06
2.15948e-07
2.63996e-06
3.87307e-06
4.67651e-07
4.35613e-06
-4.5607e-07
-7.18375e-07
3.70392e-06
2.22498e-05
-6.2749e-06
3.82266e-05
-1.68556e-05
4.53676e-05
-2.3496e-05
4.26986e-05
-2.58596e-05
3.04078e-05
-2.38273e-05
1.07694e-05
-1.75646e-05
-1.31132e-05
-8.10002e-06
-3.88436e-05
3.16034e-06
-6.46318e-05
1.51729e-05
-8.88235e-05
2.71336e-05
-0.000109932
3.82255e-05
-0.000126935
4.77344e-05
-0.000139259
5.5159e-05
-0.000146711
6.01956e-05
-0.000149535
6.27614e-05
-0.00014827
6.30051e-05
-0.000143605
6.12458e-05
-0.000136281
5.79134e-05
-0.000126948
5.34866e-05
-0.00011605
4.84191e-05
-0.000101751
4.26874e-05
-8.1762e-05
3.55435e-05
-5.91091e-05
2.71047e-05
-3.77683e-05
1.88276e-05
-1.92893e-05
1.16996e-05
-5.21258e-06
6.05478e-06
3.68531e-06
2.08736e-06
7.84746e-06
-2.95707e-07
8.89918e-06
-1.44801e-06
-1.92989e-06
8.75966e-06
2.34356e-05
-6.67023e-06
4.05248e-05
-1.79785e-05
4.89018e-05
-2.5226e-05
4.82743e-05
-2.81969e-05
3.85974e-05
-2.71129e-05
2.07134e-05
-2.206e-05
-2.66878e-06
-1.33985e-05
-2.83609e-05
-2.35421e-06
-5.43444e-05
9.67215e-06
-7.91098e-05
2.17727e-05
-0.000101108
3.31618e-05
-0.000119254
4.30883e-05
-0.000132929
5.10282e-05
-0.000141858
5.66586e-05
-0.000146152
5.98623e-05
-0.000146239
6.07429e-05
-0.000142698
5.95781e-05
-0.000136184
5.67631e-05
-0.000127329
5.27566e-05
-0.000116686
4.80301e-05
-0.000102814
4.26575e-05
-8.23901e-05
3.58238e-05
-5.81836e-05
2.73748e-05
-3.53821e-05
1.87723e-05
-1.58587e-05
1.12774e-05
-1.0908e-06
5.3625e-06
8.55446e-06
1.15201e-06
1.37376e-05
-1.52441e-06
1.60026e-05
-3.01477e-06
-3.83819e-06
1.70006e-05
2.47526e-05
-7.0794e-06
4.31125e-05
-1.91488e-05
5.2694e-05
-2.70693e-05
5.34685e-05
-3.06273e-05
4.60068e-05
-3.01724e-05
3.07993e-05
-2.61227e-05
9.12579e-06
-1.87143e-05
-1.59759e-05
-8.53882e-06
-4.18894e-05
3.1906e-06
-6.69591e-05
1.53049e-05
-8.95421e-05
2.68445e-05
-0.000108542
3.70364e-05
-0.000123277
4.53606e-05
-0.0001334
5.14695e-05
-0.00013892
5.52187e-05
-0.00014015
5.6676e-05
-0.000137565
5.60748e-05
-0.000131736
5.37687e-05
-0.000123259
5.01799e-05
-0.00011273
4.57473e-05
-9.89358e-05
4.04958e-05
-7.89058e-05
3.38771e-05
-5.47565e-05
2.59307e-05
-3.13306e-05
1.77116e-05
-1.10759e-05
1.02623e-05
4.48665e-06
4.17876e-06
1.51815e-05
-3.21972e-07
2.17764e-05
-3.35644e-06
2.56711e-05
-5.2565e-06
-6.49577e-06
2.81516e-05
2.62286e-05
-7.50054e-06
4.60225e-05
-2.0363e-05
5.70129e-05
-2.90067e-05
5.91697e-05
-3.32365e-05
5.32879e-05
-3.33998e-05
4.04034e-05
-3.00276e-05
2.13275e-05
-2.36336e-05
-2.11313e-06
-1.46472e-05
-2.73233e-05
-3.79866e-06
-5.22358e-05
7.86887e-06
-7.50615e-05
1.93114e-05
-9.45521e-05
2.96091e-05
-0.000109997
3.81568e-05
-0.000120979
4.4609e-05
-0.000127418
4.87903e-05
-0.000129534
5.07369e-05
-0.00012771
5.06455e-05
-0.000122428
4.88261e-05
-0.00011422
4.56522e-05
-0.000103598
4.15042e-05
-8.92925e-05
3.6339e-05
-6.97621e-05
2.98318e-05
-4.7013e-05
2.23653e-05
-2.4437e-05
1.48708e-05
-4.23827e-06
8.00113e-06
1.20359e-05
2.11525e-06
2.39282e-05
-2.53945e-06
3.20906e-05
-5.92726e-06
3.77492e-05
-8.26342e-06
-9.93866e-06
4.18306e-05
2.78889e-05
-7.93253e-06
4.93076e-05
-2.16186e-05
6.19013e-05
-3.10303e-05
6.56698e-05
-3.59923e-05
6.13771e-05
-3.68736e-05
5.02353e-05
-3.41899e-05
3.3472e-05
-2.8539e-05
1.23065e-05
-2.04916e-05
-1.11888e-05
-1.07372e-05
-3.50445e-05
-7.29309e-08
-5.75893e-05
1.0772e-05
-7.71668e-05
2.0906e-05
-9.29201e-05
2.95125e-05
-0.000104386
3.61476e-05
-0.000111402
4.06219e-05
-0.000114134
4.29535e-05
-0.000112884
4.33111e-05
-0.000108057
4.19589e-05
-0.000100117
3.9223e-05
-8.94824e-05
3.54381e-05
-7.49986e-05
3.0585e-05
-5.59753e-05
2.4425e-05
-3.46778e-05
1.74111e-05
-1.37116e-05
1.04999e-05
5.57993e-06
4.23234e-06
2.2048e-05
-1.23482e-06
3.50512e-05
-5.79368e-06
4.47861e-05
-9.39506e-06
5.21576e-05
-1.2119e-05
-1.42124e-05
5.77636e-05
2.97664e-05
-8.37771e-06
5.30165e-05
-2.29125e-05
6.74138e-05
-3.3123e-05
7.3005e-05
-3.88679e-05
7.05638e-05
-4.05417e-05
6.12427e-05
-3.86711e-05
4.64257e-05
-3.38426e-05
2.7439e-05
-2.66594e-05
6.12357e-06
-1.78546e-05
-1.58858e-05
-8.20338e-06
-3.73588e-05
1.73526e-06
-5.64696e-05
1.12872e-05
-7.20681e-05
1.96412e-05
-8.36159e-05
2.62615e-05
-9.08363e-05
3.08744e-05
-9.39296e-05
3.34693e-05
-9.31095e-05
3.42098e-05
-8.87066e-05
3.33036e-05
-8.11328e-05
3.10287e-05
-7.07679e-05
2.76831e-05
-5.67858e-05
2.32881e-05
-3.87676e-05
1.76934e-05
-1.89195e-05
1.13407e-05
4.97727e-07
5.06502e-06
1.86087e-05
-6.84872e-07
3.47131e-05
-5.76704e-06
4.83781e-05
-1.01155e-05
5.9508e-05
-1.37492e-05
6.86159e-05
-1.67507e-05
-1.92644e-05
7.58544e-05
3.18848e-05
-8.82879e-06
5.71783e-05
-2.42228e-05
7.3585e-05
-3.52532e-05
8.12193e-05
-4.18238e-05
8.08693e-05
-4.43565e-05
7.36778e-05
-4.33866e-05
6.09803e-05
-3.94942e-05
4.41936e-05
-3.32917e-05
2.50383e-05
-2.54664e-05
5.04908e-06
-1.67332e-05
-1.47219e-05
-7.69109e-06
-3.26863e-05
1.0527e-06
-4.76736e-05
8.88115e-06
-5.88975e-05
1.52682e-05
-6.59454e-05
1.98251e-05
-6.91447e-05
2.25386e-05
-6.86188e-05
2.35692e-05
-6.46169e-05
2.30594e-05
-5.75064e-05
2.12386e-05
-4.76618e-05
1.83736e-05
-3.45913e-05
1.45297e-05
-1.8088e-05
9.6345e-06
-4.31706e-09
4.06419e-06
1.78493e-05
-1.49635e-06
3.47434e-05
-6.66368e-06
5.01419e-05
-1.13086e-05
6.38011e-05
-1.53785e-05
7.57635e-05
-1.89067e-05
8.63391e-05
-2.19838e-05
-2.46831e-05
9.50975e-05
3.42448e-05
-9.27261e-06
6.18033e-05
-2.55202e-05
8.04384e-05
-3.73842e-05
9.03435e-05
-4.48161e-05
9.23261e-05
-4.82616e-05
8.75157e-05
-4.82579e-05
7.72231e-05
-4.53805e-05
6.28743e-05
-4.02399e-05
4.60248e-05
-3.34853e-05
2.81266e-05
-2.57621e-05
1.03501e-05
-1.76684e-05
-6.00858e-06
-9.77781e-06
-1.99402e-05
-2.61431e-06
-3.04812e-05
3.34812e-06
-3.70994e-05
7.72357e-06
-4.01385e-05
1.04486e-05
-3.97426e-05
1.16588e-05
-3.60651e-05
1.14641e-05
-2.94612e-05
1.00522e-05
-2.02964e-05
7.66878e-06
-8.38366e-06
4.41546e-06
6.34052e-06
2.84629e-07
2.2502e-05
-4.43867e-06
3.86718e-05
-9.22617e-06
5.42142e-05
-1.37505e-05