/*--------------------------------*- C++ -*----------------------------------*\
| =========                 |                                                 |
| \\      /  F ield         | OpenFOAM: The Open Source CFD Toolbox           |
|  \\    /   O peration     | Version:  dev                                   |
|   \\  /    A nd           | Web:      www.OpenFOAM.org                      |
|    \\/     M anipulation  |                                                 |
\*---------------------------------------------------------------------------*/
FoamFile
{
    version     2.0;
    format      ascii;
    class       volVectorField;
    location    "0.09";
    object      cellDisplacement;
}
// * * * * * * * * * * * * * * * * * * * * * * * * * * * * * * * * * * * * * //

dimensions      [0 1 0 0 0 0 0];

internalField   nonuniform List<vector> 
465
(
(0.00276173 0 0.000654157)
(0.00276408 0 0.00065167)
(0.00280632 0 0.00066763)
(0.00284498 0 0.000681508)
(0.00276123 0 0.000647261)
(0.00280119 0 0.000661861)
(0.00283728 0 0.000674397)
(0.00286929 0 0.000684704)
(0.00289699 0 0.000692635)
(0.00275385 0 0.000641176)
(0.00279166 0 0.000654569)
(0.00282543 0 0.000665954)
(0.00285504 0 0.000675218)
(0.00288038 0 0.00068227)
(0.0029013 0 0.000687045)
(0.00291771 0 0.000689523)
(0.00274242 0 0.000633567)
(0.00277827 0 0.000645902)
(0.00280998 0 0.000656308)
(0.00283753 0 0.000664712)
(0.00286087 0 0.000671068)
(0.00287997 0 0.000675357)
(0.00289482 0 0.000677601)
(0.00290544 0 0.000677866)
(0.00291191 0 0.000676279)
(0.00272736 0 0.000624539)
(0.00276144 0 0.000635952)
(0.00279135 0 0.000645524)
(0.00281713 0 0.000653218)
(0.0028388 0 0.000659019)
(0.0028564 0 0.000662939)
(0.00286999 0 0.000665024)
(0.00287965 0 0.000665358)
(0.00288551 0 0.000664063)
(0.00270902 0 0.000614152)
(0.00274154 0 0.000624761)
(0.00276988 0 0.000633624)
(0.00279414 0 0.000640726)
(0.00281441 0 0.000646077)
(0.00283078 0 0.000649711)
(0.00284335 0 0.000651686)
(0.00285225 0 0.00065209)
(0.00285763 0 0.000651038)
(0.00268773 0 0.000602432)
(0.00271887 0 0.000612339)
(0.00274585 0 0.000620592)
(0.00276882 0 0.000627196)
(0.00278791 0 0.000632178)
(0.00280325 0 0.000635584)
(0.00281499 0 0.000637478)
(0.00282327 0 0.000637948)
(0.00282826 0 0.0006371)
(0.00266377 0 0.000589373)
(0.00269369 0 0.000598663)
(0.00271949 0 0.000606388)
(0.00274136 0 0.000612568)
(0.00275946 0 0.00061724)
(0.00277395 0 0.000620458)
(0.002785 0 0.00062229)
(0.00279278 0 0.000622819)
(0.00279746 0 0.000622143)
(0.00263742 0 0.000574951)
(0.00266627 0 0.00058369)
(0.00269105 0 0.00059095)
(0.00271198 0 0.000596761)
(0.00272924 0 0.000601169)
(0.00274302 0 0.000604228)
(0.0027535 0 0.000606009)
(0.00276086 0 0.000606589)
(0.00276528 0 0.000606058)
(0.00260893 0 0.000559109)
(0.00263684 0 0.000567351)
(0.00266074 0 0.000574196)
(0.00268086 0 0.000579682)
(0.00269741 0 0.000583856)
(0.00271059 0 0.000586778)
(0.00272059 0 0.000588512)
(0.00272761 0 0.000589136)
(0.00273181 0 0.000588729)
(0.00254733 0 0.000532649)
(0.0025786 0 0.000541776)
(0.00260567 0 0.000549558)
(0.00262879 0 0.000556026)
(0.00264822 0 0.000561217)
(0.00266416 0 0.000565183)
(0.00267684 0 0.000567979)
(0.00268644 0 0.000569671)
(0.00269316 0 0.000570329)
(0.00269719 0 0.000570028)
(0.00251617 0 0.00051421)
(0.00254666 0 0.000522842)
(0.002573 0 0.000530201)
(0.00259546 0 0.00053632)
(0.00261428 0 0.00054124)
(0.00262971 0 0.000545013)
(0.00264195 0 0.000547693)
(0.00265122 0 0.000549342)
(0.0026577 0 0.000550027)
(0.00266157 0 0.000549817)
(0.00248361 0 0.000494024)
(0.00251341 0 0.000502189)
(0.00253912 0 0.000509148)
(0.00256099 0 0.000514939)
(0.00257931 0 0.000519605)
(0.00259429 0 0.000523195)
(0.00260617 0 0.000525763)
(0.00261514 0 0.000527368)
(0.00262141 0 0.000528073)
(0.00262516 0 0.00052794)
(0.00245 0 0.000471962)
(0.00247919 0 0.000479674)
(0.00250434 0 0.000486249)
(0.00252571 0 0.000491725)
(0.00254358 0 0.000496146)
(0.00255818 0 0.000499558)
(0.00256975 0 0.000502016)
(0.00257848 0 0.000503573)
(0.00258457 0 0.000504289)
(0.0025882 0 0.000504222)
(0.0024157 0 0.000447868)
(0.00244436 0 0.000455133)
(0.00246901 0 0.000461329)
(0.00248995 0 0.000466495)
(0.00250743 0 0.000470673)
(0.00252171 0 0.000473909)
(0.002533 0 0.000476253)
(0.00254152 0 0.000477758)
(0.00254746 0 0.000478477)
(0.002551 0 0.000478466)
(0.00238113 0 0.000421557)
(0.00240932 0 0.000428371)
(0.00243354 0 0.000434185)
(0.0024541 0 0.000439038)
(0.00247125 0 0.000442971)
(0.00248524 0 0.000446026)
(0.0024963 0 0.000448252)
(0.00250464 0 0.000449696)
(0.00251044 0 0.00045041)
(0.0025139 0 0.000450445)
(0.00234675 0 0.000392812)
(0.00237452 0 0.00039916)
(0.00239837 0 0.000404582)
(0.00241859 0 0.000409112)
(0.00243545 0 0.00041279)
(0.0024492 0 0.000415656)
(0.00246006 0 0.000417754)
(0.00246824 0 0.00041913)
(0.00247394 0 0.00041983)
(0.00247732 0 0.000419901)
(0.00231308 0 0.000361377)
(0.00234048 0 0.000367237)
(0.002364 0 0.000372245)
(0.00238394 0 0.000376435)
(0.00240055 0 0.000379842)
(0.00241409 0 0.000382505)
(0.00242478 0 0.000384464)
(0.00243282 0 0.00038576)
(0.00243842 0 0.000386436)
(0.00244174 0 0.000386535)
(0.0022807 0 0.000326954)
(0.00230778 0 0.00033229)
(0.00233101 0 0.000336854)
(0.0023507 0 0.000340678)
(0.0023671 0 0.000343792)
(0.00238045 0 0.000346233)
(0.002391 0 0.000348037)
(0.00239893 0 0.00034924)
(0.00240444 0 0.000349882)
(0.00240771 0 0.00035)
(0.00225024 0 0.00028919)
(0.00227705 0 0.000293955)
(0.00230004 0 0.000298035)
(0.00231952 0 0.000301457)
(0.00233574 0 0.00030425)
(0.00234894 0 0.000306444)
(0.00235936 0 0.000308071)
(0.0023672 0 0.000309165)
(0.00237264 0 0.00030976)
(0.00237586 0 0.000309889)
(0.00222245 0 0.000247674)
(0.00224903 0 0.000251807)
(0.00227182 0 0.000255349)
(0.00229112 0 0.000258324)
(0.00230719 0 0.000260756)
(0.00232027 0 0.000262671)
(0.00233059 0 0.000264096)
(0.00233835 0 0.000265061)
(0.00234373 0 0.000265594)
(0.00234691 0 0.000265725)
(0.00219815 0 0.000201918)
(0.00222454 0 0.00020534)
(0.00224717 0 0.000208276)
(0.00226633 0 0.000210746)
(0.00228228 0 0.000212768)
(0.00229526 0 0.000214363)
(0.0023055 0 0.000215555)
(0.00231319 0 0.000216367)
(0.00231853 0 0.000216822)
(0.00232168 0 0.000216944)
(0.00217825 0 0.000151348)
(0.0022045 0 0.00015396)
(0.00222701 0 0.000156205)
(0.00224606 0 0.000158095)
(0.00226192 0 0.000159645)
(0.00227483 0 0.000160871)
(0.00228501 0 0.000161789)
(0.00229266 0 0.000162418)
(0.00229796 0 0.000162775)
(0.00230108 0 0.000162878)
(0.00216378 0 9.5283e-05)
(0.00218994 0 9.69622e-05)
(0.00221237 0 9.84067e-05)
(0.00223136 0 9.96247e-05)
(0.00224716 0 0.000100625)
(0.00226002 0 0.000101418)
(0.00227016 0 0.000102013)
(0.00227777 0 0.000102423)
(0.00228305 0 0.000102658)
(0.00228616 0 0.00010273)
(0.00215591 0 3.2917e-05)
(0.00218203 0 3.35069e-05)
(0.00220442 0 3.40148e-05)
(0.00222337 0 3.44435e-05)
(0.00223915 0 3.4796e-05)
(0.00225198 0 3.50757e-05)
(0.0022621 0 3.52861e-05)
(0.0022697 0 3.54313e-05)
(0.00227497 0 3.55151e-05)
(0.00227807 0 3.55418e-05)
(0.00291376 0 0.000673826)
(0.00288719 0 0.00066198)
(0.00288746 0 0.000660268)
(0.00288688 0 0.000658233)
(0.00285917 0 0.000649252)
(0.00285941 0 0.000647768)
(0.00285888 0 0.000645991)
(0.00282969 0 0.000635557)
(0.00282991 0 0.000634262)
(0.00282942 0 0.000632697)
(0.00279879 0 0.000620804)
(0.002799 0 0.000619666)
(0.00279855 0 0.00061828)
(0.00276653 0 0.000604892)
(0.00276673 0 0.000603887)
(0.00276631 0 0.000602655)
(0.00273301 0 0.00058771)
(0.00273319 0 0.000586821)
(0.0027328 0 0.000585722)
(0.00269833 0 0.000569138)
(0.00269851 0 0.000568349)
(0.00269814 0 0.000567365)
(0.00266266 0 0.000549039)
(0.00266284 0 0.000548338)
(0.00266248 0 0.000547457)
(0.00262621 0 0.00052726)
(0.00262638 0 0.000526636)
(0.00262604 0 0.000525847)
(0.00258922 0 0.000503629)
(0.00258938 0 0.000503075)
(0.00258906 0 0.000502368)
(0.00255198 0 0.000477949)
(0.00255214 0 0.000477459)
(0.00255183 0 0.000476827)
(0.00251486 0 0.000449998)
(0.00251501 0 0.000449564)
(0.00251471 0 0.000449001)
(0.00247825 0 0.000419517)
(0.0024784 0 0.000419136)
(0.00247812 0 0.000418637)
(0.00244265 0 0.000386208)
(0.00244279 0 0.000385876)
(0.00244252 0 0.000385437)
(0.0024086 0 0.000349725)
(0.00240874 0 0.000349439)
(0.00240848 0 0.000349057)
(0.00237673 0 0.000309662)
(0.00237687 0 0.00030942)
(0.00237661 0 0.000309093)
(0.00234777 0 0.000265543)
(0.00234791 0 0.000265343)
(0.00234766 0 0.000265071)
(0.00232252 0 0.000216805)
(0.00232266 0 0.000216647)
(0.00232241 0 0.00021643)
(0.00230192 0 0.00016278)
(0.00230205 0 0.000162665)
(0.00230181 0 0.000162505)
(0.00228699 0 0.000102671)
(0.00228712 0 0.0001026)
(0.00228688 0 0.0001025)
(0.0022789 0 3.55222e-05)
(0.00227903 0 3.54978e-05)
(0.00227879 0 3.54634e-05)
(0.00288472 0 0.000654668)
(0.00285691 0 0.000642855)
(0.00285095 0 0.000637436)
(0.00284148 0 0.000630763)
(0.00282833 0 0.000622843)
(0.0028276 0 0.000629918)
(0.00282208 0 0.000625055)
(0.00281327 0 0.000619004)
(0.00280101 0 0.000611759)
(0.00278515 0 0.000603322)
(0.00276555 0 0.0005937)
(0.00279685 0 0.000615804)
(0.00279169 0 0.000611418)
(0.00278343 0 0.000605908)
(0.00277189 0 0.000599261)
(0.00275692 0 0.000591468)
(0.00273836 0 0.000582528)
(0.00271604 0 0.000572441)
(0.0026898 0 0.00056122)
(0.00276472 0 0.000600439)
(0.00275986 0 0.000596467)
(0.00275205 0 0.000591434)
(0.00274112 0 0.00058532)
(0.0027269 0 0.000578108)
(0.00270921 0 0.000569788)
(0.00268786 0 0.000560357)
(0.00266269 0 0.000549818)
(0.00263347 0 0.000538174)
(0.0027313 0 0.000583731)
(0.00272669 0 0.000580123)
(0.00271926 0 0.000575514)
(0.00270884 0 0.000569878)
(0.00269525 0 0.000563193)
(0.0026783 0 0.000555443)
(0.0026578 0 0.000546618)
(0.00263353 0 0.000536715)
(0.00260529 0 0.000525732)
(0.00269672 0 0.000565574)
(0.00269231 0 0.000562289)
(0.00268521 0 0.00055806)
(0.00267522 0 0.000552856)
(0.00266217 0 0.000546652)
(0.00264585 0 0.000539428)
(0.00262606 0 0.000531168)
(0.00260259 0 0.000521863)
(0.00257519 0 0.000511506)
(0.00266113 0 0.000545842)
(0.00265691 0 0.000542847)
(0.00265008 0 0.000538961)
(0.00264046 0 0.000534152)
(0.00262786 0 0.000528392)
(0.00261208 0 0.000521657)
(0.00259292 0 0.000513928)
(0.00257013 0 0.000505189)
(0.00254347 0 0.00049543)
(0.00262475 0 0.000524391)
(0.00262068 0 0.000521659)
(0.00261408 0 0.000518087)
(0.00260478 0 0.000513643)
(0.00259257 0 0.000508296)
(0.00257726 0 0.00050202)
(0.00255863 0 0.000494793)
(0.00253644 0 0.000486596)
(0.00251044 0 0.000477416)
(0.00258782 0 0.000501056)
(0.00258389 0 0.000498565)
(0.00257749 0 0.000495284)
(0.00256845 0 0.00049118)
(0.00255658 0 0.000486222)
(0.00254167 0 0.000480382)
(0.0025235 0 0.000473636)
(0.00250184 0 0.000465963)
(0.00247641 0 0.000457347)
(0.00255064 0 0.000475646)
(0.00254683 0 0.000473379)
(0.0025406 0 0.00047037)
(0.00253179 0 0.000466588)
(0.00252021 0 0.000462001)
(0.00250565 0 0.000456581)
(0.00248789 0 0.000450302)
(0.00246668 0 0.000443142)
(0.00244176 0 0.000435082)
(0.00251357 0 0.000447943)
(0.00250985 0 0.000445885)
(0.00250378 0 0.000443136)
(0.00249517 0 0.000439663)
(0.00248384 0 0.000435435)
(0.00246958 0 0.000430424)
(0.00245217 0 0.000424605)
(0.00243135 0 0.000417953)
(0.00240688 0 0.000410451)
(0.00247701 0 0.000417693)
(0.00247338 0 0.000415835)
(0.00246744 0 0.000413335)
(0.00245901 0 0.000410163)
(0.00244789 0 0.000406289)
(0.00243389 0 0.000401685)
(0.00241678 0 0.000396325)
(0.00239632 0 0.000390186)
(0.00237224 0 0.000383249)
(0.00244144 0 0.000384601)
(0.0024379 0 0.000382937)
(0.00243207 0 0.000380682)
(0.00242379 0 0.00037781)
(0.00241286 0 0.00037429)
(0.00239908 0 0.000370096)
(0.00238224 0 0.000365203)
(0.00236208 0 0.000359589)
(0.00233834 0 0.000353236)
(0.00240743 0 0.000348325)
(0.00240396 0 0.000346852)
(0.00239822 0 0.000344843)
(0.00239007 0 0.000342272)
(0.0023793 0 0.000339113)
(0.00236572 0 0.000335341)
(0.0023491 0 0.000330932)
(0.0023292 0 0.000325865)
(0.00230575 0 0.000320123)
(0.00237559 0 0.000308464)
(0.00237218 0 0.000307181)
(0.00236653 0 0.000305423)
(0.00235848 0 0.000303164)
(0.00234785 0 0.00030038)
(0.00233443 0 0.000297049)
(0.00231801 0 0.00029315)
(0.00229833 0 0.000288664)
(0.00227514 0 0.000283574)
(0.00234666 0 0.000264544)
(0.00234329 0 0.000263457)
(0.00233771 0 0.000261959)
(0.00232976 0 0.000260028)
(0.00231924 0 0.000257643)
(0.00230596 0 0.000254784)
(0.00228969 0 0.000251432)
(0.0022702 0 0.000247571)
(0.00224722 0 0.000243187)
(0.00232144 0 0.000216007)
(0.00231811 0 0.000215126)
(0.00231259 0 0.000213905)
(0.0023047 0 0.000212326)
(0.00229427 0 0.000210372)
(0.0022811 0 0.000208026)
(0.00226496 0 0.000205273)
(0.00224562 0 0.000202099)
(0.00222281 0 0.000198492)
(0.00230085 0 0.00016219)
(0.00229755 0 0.00016153)
(0.00229207 0 0.00016061)
(0.00228424 0 0.000159418)
(0.00227388 0 0.000157939)
(0.00226079 0 0.000156162)
(0.00224475 0 0.000154075)
(0.00222552 0 0.000151667)
(0.00220284 0 0.000148929)
(0.00228593 0 0.000102302)
(0.00228266 0 0.000101884)
(0.0022772 0 0.0001013)
(0.00226941 0 0.00010054)
(0.00225909 0 9.95971e-05)
(0.00224605 0 9.84622e-05)
(0.00223008 0 9.71282e-05)
(0.00221092 0 9.55888e-05)
(0.00218833 0 9.38387e-05)
(0.00227784 0 3.53949e-05)
(0.00227458 0 3.52496e-05)
(0.00226914 0 3.50459e-05)
(0.00226136 0 3.47807e-05)
(0.00225107 0 3.44509e-05)
(0.00223806 0 3.40538e-05)
(0.00222211 0 3.3587e-05)
(0.00220299 0 3.30482e-05)
(0.00218044 0 3.24358e-05)
)
;

boundaryField
{
    inlet
    {
        type            cellMotion;
        value           nonuniform 0();
    }
    outlet
    {
        type            cellMotion;
        value           nonuniform 0();
    }
    flap
    {
        type            cellMotion;
        value           nonuniform 0();
    }
    upperWall
    {
        type            slip;
    }
    lowerWall
    {
        type            slip;
    }
    frontAndBack
    {
        type            empty;
    }
    procBoundary1to0
    {
        type            processor;
        value           nonuniform List<vector> 
18
(
(0.0026043 0 0.000564727)
(0.0025768 0 0.000549456)
(0.0025768 0 0.000549456)
(0.00251164 0 0.000522182)
(0.00248128 0 0.000504296)
(0.00244944 0 0.000484642)
(0.00241648 0 0.000463099)
(0.00238276 0 0.000439521)
(0.00234872 0 0.000413731)
(0.00231481 0 0.000385524)
(0.00228155 0 0.000354655)
(0.00224952 0 0.000320837)
(0.00221938 0 0.000283733)
(0.00219186 0 0.000242946)
(0.00216777 0 0.000198007)
(0.00214803 0 0.000148366)
(0.00213368 0 9.33692e-05)
(0.00212587 0 3.22457e-05)
)
;
    }
    procBoundary1to2
    {
        type            processor;
        value           nonuniform List<vector> 
17
(
(0.00260008 0 0.000525473)
(0.00257288 0 0.000513699)
(0.00254367 0 0.000500121)
(0.00251275 0 0.000484673)
(0.00248042 0 0.00046727)
(0.00244702 0 0.000447803)
(0.00241293 0 0.000426138)
(0.00237855 0 0.000402112)
(0.00234435 0 0.000375528)
(0.00231084 0 0.000346156)
(0.0022786 0 0.000313719)
(0.00224828 0 0.000277892)
(0.00222061 0 0.000238291)
(0.0021964 0 0.000194463)
(0.00217658 0 0.000145871)
(0.00216217 0 9.18832e-05)
(0.00215433 0 3.17511e-05)
)
;
    }
    procBoundary1to3
    {
        type            processor;
        value           nonuniform List<vector> 9((0.00271417 0 0.000634878) (0.0027184 0 0.000633828) (0.00271753 0 0.000630768) (0.00271206 0 0.000625908) (0.00270243 0 0.000619399) (0.00268904 0 0.000611351) (0.00267222 0 0.000601836) (0.0026523 0 0.000590891) (0.00262956 0 0.000578522));
    }
    procBoundary1to4
    {
        type            processor;
        value           nonuniform List<vector> 
30
(
(0.00275362 0 0.000654479)
(0.00280638 0 0.000671651)
(0.00280638 0 0.000671651)
(0.00284783 0 0.000687085)
(0.00287975 0 0.000693083)
(0.00287975 0 0.000693083)
(0.00291027 0 0.000702133)
(0.00292015 0 0.000698065)
(0.00292015 0 0.000698065)
(0.00293852 0 0.000700905)
(0.00292955 0 0.00068974)
(0.00292955 0 0.00068974)
(0.00293681 0 0.000687809)
(0.00293892 0 0.000684901)
(0.00291406 0 0.000671836)
(0.00291406 0 0.000671836)
(0.00291343 0 0.000669488)
(0.00291105 0 0.000665406)
(0.00287823 0 0.000648598)
(0.00287823 0 0.000648598)
(0.00286796 0 0.000641212)
(0.00285376 0 0.000632535)
(0.00281142 0 0.000613697)
(0.00281142 0 0.000613697)
(0.00279063 0 0.000603342)
(0.00274211 0 0.000582914)
(0.00274211 0 0.000582914)
(0.00271469 0 0.00057098)
(0.0026595 0 0.000548889)
(0.0026595 0 0.000548889)
)
;
    }
}


// ************************************************************************* //
