/*--------------------------------*- C++ -*----------------------------------*\
| =========                 |                                                 |
| \\      /  F ield         | OpenFOAM: The Open Source CFD Toolbox           |
|  \\    /   O peration     | Version:  dev                                   |
|   \\  /    A nd           | Web:      www.OpenFOAM.org                      |
|    \\/     M anipulation  |                                                 |
\*---------------------------------------------------------------------------*/
FoamFile
{
    version     2.0;
    format      ascii;
    class       volScalarField;
    location    "4";
    object      p;
}
// * * * * * * * * * * * * * * * * * * * * * * * * * * * * * * * * * * * * * //

dimensions      [0 2 -2 0 0 0 0];

internalField   nonuniform List<scalar> 
465
(
3.78448
3.66778
4.56163
3.94295
3.11113
2.81475
4.36368
3.7745
3.20106
3.05058
3.35612
5.3485
4.49467
3.79447
3.40712
3.32339
3.09033
2.71604
7.6357
6.30121
5.22369
4.44669
3.93434
3.48214
3.02459
2.61868
2.35189
10.9641
9.08449
7.5441
6.33136
5.40077
4.63321
3.95044
3.37084
2.94419
2.66992
15.0742
12.6893
10.6818
9.01966
7.65763
6.5186
5.54222
4.72184
4.07186
3.58047
3.1977
2.85961
19.6432
16.8511
14.4319
12.3551
10.5842
9.06942
7.76689
6.65708
5.73344
4.97818
4.35264
3.80948
3.31726
24.3484
21.2692
18.5299
16.1108
13.9875
12.1283
10.5021
9.08723
7.869
6.82799
5.9337
5.14992
4.44784
3.81209
3.23369
28.9345
25.6833
22.7246
20.0501
17.6466
15.4956
13.5767
11.872
10.3658
9.04012
7.87066
6.82923
5.89049
5.03611
4.25217
3.52347
33.2342
29.9051
26.8169
23.9701
21.3605
18.9794
16.8152
14.8552
13.0868
11.4948
10.0605
8.76178
7.57738
6.48894
5.48047
4.53514
3.6324
2.74599
37.1597
33.8208
30.6733
27.7237
24.9741
22.4228
20.0648
17.8928
15.8979
14.069
12.3919
10.8499
9.42555
8.10211
6.86367
5.69342
4.5719
3.4759
2.37813
40.6819
37.3776
34.2207
31.2208
28.3844
25.7143
23.2104
20.8696
18.6869
16.6549
14.7636
13.0004
11.3517
9.80318
8.34014
6.94703
5.6064
4.29868
3.00294
1.70224
43.8075
40.5646
37.431
34.4181
31.5347
28.7865
26.1767
23.7056
21.3714
19.1697
17.0941
15.1355
13.2835
11.5263
9.85121
8.24447
6.69096
5.17443
3.6788
2.19269
0.696621
46.5619
43.3948
40.3048
37.3038
34.4017
31.6062
28.9223
26.3529
23.8984
21.5573
19.3256
17.1974
15.1648
13.2184
11.3477
9.54071
7.78456
6.06561
4.37086
2.6912
1.02348
48.9773
45.8926
42.8578
39.8848
36.9838
34.1633
31.4297
28.7874
26.2388
23.7841
21.4217
19.1477
16.9566
14.8411
12.7925
10.8006
8.85426
6.94167
5.05139
3.17432
1.31709
51.0873
48.0862
45.1125
42.1772
39.2906
36.4613
33.6964
31.0013
28.3797
25.8333
23.3619
20.9635
18.6343
16.3689
14.1601
11.9992
9.8762
7.78049
5.70107
3.62757
1.57138
52.9232
50.004
47.0932
44.2011
41.3375
38.5108
35.7284
32.9962
30.3186
27.6985
25.1368
22.6329
20.1842
17.7867
15.4346
13.1203
10.8347
8.5677
6.30812
4.04385
1.78755
54.5138
51.6722
48.8235
45.977
43.1414
40.3252
37.5354
34.7782
32.0585
29.3796
26.7435
24.1504
21.5988
19.0857
16.6063
14.1539
11.72
9.29459
6.86609
4.42068
1.97024
55.8848
53.1153
50.3259
47.5247
44.7199
41.9191
39.1292
36.3563
33.6053
30.8801
28.1831
25.5151
22.8754
20.2619
17.6703
15.0946
12.5268
9.9567
7.37233
4.75845
2.12509
57.0579
54.3541
51.6198
48.8622
46.0887
43.3061
40.521
37.7392
34.9657
32.2043
29.4577
26.7274
24.013
21.3129
18.6233
15.9388
13.2513
10.551
7.82517
5.05767
2.25621
58.0537
55.4083
52.724
50.007
47.2637
44.5004
41.7232
38.9374
36.148
33.3587
30.5723
27.7905
25.0134
22.2395
19.4654
16.686
13.8934
11.0777
8.22573
5.32082
2.36789
58.886
56.2916
53.6514
50.9708
48.2555
45.5111
42.7432
39.9568
37.1564
34.3458
31.5279
28.7042
25.875
23.039
20.1932
17.3325
14.4492
11.5332
8.57108
5.54598
2.46
59.5736
57.0223
54.4199
51.7709
49.0804
46.3535
43.5952
40.8101
38.0026
35.1761
32.3334
29.4761
26.6046
23.7177
20.8124
17.8836
14.9238
11.9227
8.86693
5.73916
2.53805
60.1164
57.6002
55.0286
52.4057
49.736
47.0241
44.2746
41.4917
38.6795
35.8413
32.9797
30.0963
27.1915
24.264
21.3108
18.327
15.3051
12.2346
9.10202
5.89011
2.59484
60.5423
58.0529
55.5051
52.9025
50.2491
47.5491
44.8068
42.0262
39.211
36.3644
33.4889
30.5859
27.6559
24.6975
21.7078
18.6818
15.6118
12.4874
9.29467
6.01626
2.64378
60.819
58.3476
55.8159
53.227
50.5847
47.8929
45.1556
42.3767
39.5597
36.7077
33.823
30.9071
27.9602
24.981
21.9667
18.912
15.8092
12.6476
9.41311
6.08811
2.66231
61.0091
58.5469
56.0231
53.4408
50.8036
48.1152
45.3797
42.6007
39.7816
36.9256
34.0349
31.111
28.154
25.1628
22.1344
19.0634
15.9422
12.7595
9.50039
6.14451
2.66909
)
;

boundaryField
{
    inlet
    {
        type            zeroGradient;
    }
    outlet
    {
        type            fixedValue;
        value           uniform 0;
    }
    flap
    {
        type            zeroGradient;
    }
    upperWall
    {
        type            zeroGradient;
    }
    lowerWall
    {
        type            zeroGradient;
    }
    frontAndBack
    {
        type            empty;
    }
    procBoundary2to1
    {
        type            processor;
        value           nonuniform List<scalar> 
17
(
40.6793
44.1201
47.1455
49.7919
52.0987
54.1034
55.8401
57.3387
58.626
59.7242
60.654
61.4295
62.0693
62.5735
62.9699
63.2268
63.4068
)
;
    }
    procBoundary2to4
    {
        type            processor;
        value           nonuniform List<scalar> 
11
(
3.47102
4.26281
4.76796
6.3633
9.28169
13.2424
17.8874
22.8432
27.7854
32.4821
36.7986
)
;
    }
    procBoundary2to5
    {
        type            processor;
        value           nonuniform List<scalar> 
34
(
3.62036
3.46985
3.29223
3.29223
3.04704
2.93967
2.93967
3.28033
3.28033
2.73773
2.38292
2.38292
2.19588
2.23559
2.23559
2.48448
2.48448
2.29923
2.53364
2.53364
2.86832
2.86832
2.46206
2.70063
2.70063
2.82976
2.82976
2.14353
1.84177
1.84177
1.25211
1.25211
0.353011
0.353011
)
;
    }
}


// ************************************************************************* //
