/*--------------------------------*- C++ -*----------------------------------*\
| =========                 |                                                 |
| \\      /  F ield         | OpenFOAM: The Open Source CFD Toolbox           |
|  \\    /   O peration     | Version:  dev                                   |
|   \\  /    A nd           | Web:      www.OpenFOAM.org                      |
|    \\/     M anipulation  |                                                 |
\*---------------------------------------------------------------------------*/
FoamFile
{
    version     2.0;
    format      ascii;
    class       surfaceScalarField;
    location    "4";
    object      phi;
}
// * * * * * * * * * * * * * * * * * * * * * * * * * * * * * * * * * * * * * //

dimensions      [0 3 -1 0 0 0 0];

internalField   nonuniform List<scalar> 
881
(
-0.0472862
0.00108985
0.00435448
-0.0170722
0.0313862
-0.0367839
0.0240643
-0.0457323
0.0176208
0.010852
0.091122
0.0583758
0.0659008
0.0492837
0.0426856
0.0408343
0.0202666
0.0332695
0.027449
0.185037
0.0813463
0.162327
0.0719919
0.13997
0.0631893
0.118094
0.0551443
0.097262
0.0482797
0.0769727
0.0421488
0.0366098
0.264437
0.0995395
0.245775
0.0906515
0.226803
0.0821606
0.207743
0.0742026
0.189018
0.067004
0.170694
0.0604716
0.152924
0.0543793
0.135697
0.0486372
0.0433514
0.328995
0.112566
0.314977
0.104668
0.300192
0.0969445
0.284877
0.0895158
0.269349
0.0825317
0.253818
0.0760019
0.238363
0.0698337
0.223003
0.0639967
0.207791
0.0585633
0.0536423
0.379394
0.120541
0.370112
0.113949
0.359753
0.107302
0.348545
0.100723
0.336739
0.0943361
0.324542
0.0881992
0.312063
0.0823118
0.299373
0.0766866
0.286551
0.0713858
0.273701
0.0664925
0.260937
0.0620569
0.0580554
0.417173
0.123997
0.412303
0.118819
0.406203
0.113401
0.399062
0.107863
0.391078
0.102319
0.382426
0.0968509
0.373232
0.0915052
0.363593
0.0863262
0.353601
0.0813774
0.343362
0.0767321
0.332977
0.0724427
0.322514
0.0685196
0.0649469
0.444449
0.12374
0.443355
0.119912
0.441031
0.115725
0.437606
0.111287
0.433225
0.106701
0.428023
0.102052
0.422118
0.0974097
0.415609
0.092836
0.408588
0.0883982
0.401155
0.0841661
0.393401
0.0801969
0.3854
0.0765224
0.377192
0.0731558
0.368803
0.0701099
0.0674067
0.463607
0.120697
0.465484
0.118035
0.466246
0.114962
0.465966
0.111567
0.464731
0.107935
0.462636
0.104146
0.459772
0.100273
0.456224
0.0963844
0.452074
0.0925484
0.447408
0.0888335
0.442306
0.0852991
0.436839
0.0819906
0.431057
0.0789398
0.424994
0.0761747
0.418677
0.0737265
0.071631
0.476995
0.115755
0.481007
0.114022
0.48409
0.111879
0.486267
0.10939
0.487579
0.106623
0.488079
0.103646
0.487827
0.100525
0.486885
0.0973271
0.485316
0.0941175
0.483189
0.0909615
0.480571
0.0879186
0.477522
0.0850406
0.474093
0.0823703
0.470324
0.0799463
0.466246
0.0778073
0.461887
0.075993
0.457274
0.0745425
0.0734892
0.486653
0.109654
0.492058
0.108617
0.496738
0.107198
0.500685
0.105444
0.503903
0.103404
0.506414
0.101135
0.508247
0.0986921
0.509441
0.0961337
0.510039
0.09352
0.51009
0.0909112
0.509645
0.0883647
0.508754
0.0859337
0.50746
0.0836662
0.505802
0.0816067
0.503813
0.0797987
0.501524
0.0782853
0.498963
0.0771073
0.496157
0.0762986
0.075877
0.494158
0.102932
0.500381
0.102394
0.506064
0.101515
0.51118
0.100327
0.515717
0.0988676
0.519673
0.0971796
0.523056
0.0953094
0.525883
0.0933064
0.528182
0.0912223
0.529983
0.0891113
0.531321
0.0870274
0.532234
0.0850223
0.532758
0.0831446
0.532926
0.0814413
0.532769
0.0799584
0.532317
0.0787412
0.531595
0.0778328
0.530627
0.0772706
0.529429
0.0770806
0.0772709
0.50059
0.0959329
0.507238
0.0957463
0.513494
0.09526
0.519324
0.0944967
0.524708
0.0934844
0.529631
0.0922563
0.534091
0.09085
0.538091
0.0893069
0.541643
0.0876712
0.544766
0.0859898
0.547482
0.0843127
0.549818
0.0826884
0.551801
0.0811639
0.553458
0.0797862
0.554818
0.0786021
0.555904
0.0776579
0.556742
0.0769992
0.55735
0.0766678
0.557735
0.0767001
0.557887
0.0771255
0.0779476
0.506606
0.0888482
0.513443
0.0889088
0.519996
0.0887074
0.526233
0.0882602
0.53213
0.0875884
0.537668
0.0867181
0.542839
0.0856798
0.547639
0.0845081
0.55207
0.0832408
0.556143
0.0819186
0.559871
0.0805859
0.563274
0.0792879
0.566371
0.0780694
0.569184
0.0769755
0.571737
0.0760525
0.574051
0.0753472
0.576148
0.0749067
0.578043
0.0747776
0.579743
0.0750055
0.581237
0.0756375
0.0767174
0.512568
0.0817741
0.519469
0.0820083
0.526163
0.082014
0.532621
0.0818028
0.538819
0.0813908
0.544739
0.0807986
0.550369
0.080051
0.555701
0.079177
0.560734
0.078209
0.565471
0.0771827
0.569922
0.0761365
0.574101
0.0751117
0.578021
0.0741512
0.581702
0.0732978
0.585162
0.0725958
0.588421
0.0720918
0.591499
0.0718339
0.59441
0.0718719
0.597162
0.0722586
0.599753
0.0730533
0.0743281
0.51867
0.0747526
0.525573
0.0751063
0.532326
0.0752615
0.538903
0.0752265
0.545282
0.0750131
0.551443
0.0746376
0.557375
0.0741203
0.563068
0.0734855
0.568517
0.0727609
0.573724
0.0719775
0.578694
0.0711687
0.583436
0.0703715
0.587964
0.0696263
0.592291
0.0689739
0.596434
0.068456
0.600412
0.0681179
0.604243
0.0680077
0.607944
0.068177
0.611526
0.0686826
0.614995
0.0695907
0.07099
0.525024
0.0677986
0.531901
0.0682297
0.538674
0.0684895
0.545317
0.0685836
0.551811
0.0685207
0.558136
0.0683136
0.564278
0.0679788
0.570229
0.0675362
0.575982
0.0670095
0.581536
0.0664256
0.586893
0.0658138
0.59206
0.0652067
0.597048
0.0646411
0.60187
0.0641556
0.60654
0.0637898
0.611076
0.0635866
0.615496
0.063593
0.619818
0.0638604
0.62406
0.064447
0.628237
0.0654208
0.0668772
0.531707
0.060914
0.53855
0.061388
0.545325
0.0617155
0.552009
0.0619002
0.558583
0.0619483
0.565028
0.0618696
0.571331
0.0616772
0.577481
0.0613878
0.583471
0.0610213
0.589298
0.0606006
0.594963
0.0601517
0.600469
0.0597028
0.605827
0.0592864
0.611047
0.0589389
0.616144
0.0586977
0.621132
0.0586027
0.626032
0.0586983
0.630864
0.0590345
0.63565
0.0596679
0.640413
0.060665
0.0621206
0.538795
0.0540935
0.545603
0.0545816
0.552374
0.0549458
0.559087
0.0551884
0.565723
0.0553136
0.572265
0.0553289
0.578699
0.0552449
0.585013
0.0550749
0.591201
0.0548355
0.597257
0.0545465
0.603181
0.0542302
0.608976
0.0539111
0.614648
0.0536176
0.620208
0.0533831
0.625668
0.053242
0.631045
0.053231
0.636357
0.0533913
0.641628
0.0537698
0.646883
0.05442
0.652152
0.0554039
0.0568111
0.546364
0.047327
0.553141
0.0478049
0.559909
0.0481796
0.566647
0.0484519
0.573337
0.0486251
0.579963
0.0487045
0.586511
0.0486986
0.59297
0.0486181
0.599331
0.0484767
0.605589
0.048291
0.611742
0.0480798
0.617791
0.0478648
0.623742
0.0476704
0.629604
0.0475255
0.635389
0.0474616
0.641113
0.0475122
0.646795
0.0477145
0.65246
0.0481113
0.658137
0.0487513
0.663858
0.0496908
0.0510119
0.554493
0.0406006
0.561251
0.041048
0.568022
0.0414105
0.574787
0.0416886
0.581529
0.0418844
0.588233
0.0420019
0.594886
0.0420476
0.601476
0.0420301
0.607995
0.0419605
0.614436
0.0418524
0.620797
0.0417218
0.627078
0.0415871
0.633283
0.0414691
0.639421
0.041392
0.645504
0.0413841
0.651546
0.0414751
0.657569
0.0416979
0.663597
0.0420903
0.66966
0.0426956
0.675796
0.0435632
0.0447655
0.563271
0.033897
0.570024
0.0342965
0.576809
0.0346279
0.583608
0.0348914
0.590406
0.0350882
0.597188
0.0352212
0.603942
0.0352955
0.610657
0.0353177
0.617324
0.0352967
0.623935
0.0352435
0.630489
0.0351711
0.636985
0.0350949
0.643426
0.0350321
0.64982
0.0350028
0.656178
0.035031
0.662516
0.0351426
0.668855
0.0353657
0.67522
0.0357328
0.681642
0.036281
0.688162
0.0370527
0.038112
0.572791
0.027195
0.579557
0.0275323
0.58637
0.0278169
0.593214
0.0280485
0.600076
0.028228
0.606942
0.0283575
0.613799
0.0284406
0.620637
0.0284826
0.627446
0.0284901
0.634221
0.0284718
0.640957
0.0284381
0.647655
0.028401
0.654317
0.0283746
0.660949
0.0283749
0.667565
0.0284211
0.674178
0.0285349
0.680811
0.0287397
0.687489
0.0290621
0.694246
0.0295326
0.701122
0.0301861
0.0310743
0.583159
0.0204705
0.589959
0.0207339
0.596819
0.0209586
0.603726
0.0211443
0.610664
0.0212915
0.617622
0.0214017
0.624588
0.0214775
0.63155
0.0215226
0.638501
0.0215419
0.645435
0.0215418
0.652346
0.02153
0.659236
0.0215156
0.666105
0.0215094
0.672962
0.0215233
0.679817
0.0215717
0.686686
0.0216716
0.693592
0.0218413
0.70056
0.0221016
0.707625
0.0224768
0.714825
0.0229949
0.0237013
0.594476
0.0136953
0.601336
0.0138754
0.608267
0.0140299
0.615254
0.0141585
0.622286
0.0142617
0.62935
0.0143403
0.636434
0.0143959
0.643528
0.0144309
0.650624
0.0144488
0.657716
0.0144536
0.664799
0.0144505
0.671873
0.0144457
0.678941
0.0144464
0.686008
0.0144607
0.693088
0.0144984
0.700195
0.0145709
0.707352
0.0146913
0.714587
0.0148745
0.721935
0.0151379
0.729438
0.015502
0.0159984
0.606856
0.00684007
0.613803
0.00692985
0.620828
0.00700662
0.627918
0.00707028
0.635061
0.00712095
0.642245
0.00715909
0.649458
0.00718551
0.65669
0.00720144
0.663933
0.00720855
0.671181
0.00720895
0.67843
0.00720528
0.685679
0.00720068
0.692931
0.00719889
0.700193
0.0072041
0.707476
0.00722127
0.714797
0.00725643
0.72218
0.00731656
0.729652
0.00741014
0.737251
0.00754848
0.745014
0.00774903
0.00805826
0.610114
0.617046
0.624054
0.631127
0.63825
0.645411
0.652599
0.659803
0.667015
0.674227
0.681436
0.688641
0.695845
0.703054
0.710282
0.717545
0.724869
0.732288
0.739845
0.747605
)
;

boundaryField
{
    inlet
    {
        type            calculated;
        value           nonuniform 0();
    }
    outlet
    {
        type            calculated;
        value           nonuniform List<scalar> 
15
(
0.55774
0.582474
0.60215
0.618341
0.632358
0.645178
0.65747
0.669666
0.682052
0.694825
0.70817
0.722209
0.737152
0.752965
0.755675
)
;
    }
    flap
    {
        type            calculated;
        value           nonuniform 0();
    }
    upperWall
    {
        type            calculated;
        value           nonuniform List<scalar> 
21
(
0
0
7.83649e-15
0
0
0
0
4.40683e-15
0
0
0
0
0
0
0
0
0
0
0
0
0
)
;
    }
    lowerWall
    {
        type            calculated;
        value           nonuniform 0();
    }
    frontAndBack
    {
        type            empty;
        value           nonuniform 0();
    }
    procBoundary2to1
    {
        type            processor;
        value           nonuniform List<scalar> 
17
(
-0.480552
-0.487437
-0.493591
-0.499521
-0.505494
-0.511648
-0.518069
-0.524822
-0.531974
-0.539596
-0.547765
-0.556567
-0.566088
-0.576433
-0.587699
-0.599999
-0.603273
)
;
    }
    procBoundary2to4
    {
        type            processor;
        value           nonuniform List<scalar> 
11
(
0.0505778
-0.0132261
-0.118113
-0.208009
-0.282631
-0.342023
-0.387371
-0.42063
-0.444193
-0.460564
-0.472053
)
;
    }
    procBoundary2to5
    {
        type            processor;
        value           nonuniform List<scalar> 
34
(
-0.0043835
-0.00521864
-0.046424
-0.00867422
-0.00741772
-0.0491681
-0.00376691
-0.00341676
-0.0218605
-0.0179361
0.0582984
-0.0314102
-0.0266777
0.119023
-0.0386752
0.192824
-0.0492921
-0.0454336
0.248316
-0.0544287
0.311998
-0.0617183
-0.0588467
0.360245
-0.0650765
0.412125
-0.0699258
-0.0686472
0.452436
-0.0728487
0.493134
-0.0758296
0.527993
-0.0777946
)
;
    }
}


// ************************************************************************* //
