/*--------------------------------*- C++ -*----------------------------------*\
| =========                 |                                                 |
| \\      /  F ield         | OpenFOAM: The Open Source CFD Toolbox           |
|  \\    /   O peration     | Version:  dev                                   |
|   \\  /    A nd           | Web:      www.OpenFOAM.org                      |
|    \\/     M anipulation  |                                                 |
\*---------------------------------------------------------------------------*/
FoamFile
{
    version     2.0;
    format      ascii;
    class       pointVectorField;
    location    "4";
    object      pointDisplacement;
}
// * * * * * * * * * * * * * * * * * * * * * * * * * * * * * * * * * * * * * //

dimensions      [0 1 0 0 0 0 0];

internalField   nonuniform List<vector> 
1030
(
(0.0215781 0 0.000188262)
(0.0210499 0 0.000170088)
(0.020522 0 0.000155813)
(0.0218225 0 0.000238614)
(0.0213034 0 0.000216139)
(0.0207776 0 0.000197652)
(0.0202442 0 0.000182581)
(0.0197007 0 0.00017034)
(0.0219956 0 0.000285141)
(0.0214914 0 0.000259207)
(0.0209739 0 0.000237228)
(0.0204428 0 0.000218688)
(0.0198965 0 0.00020307)
(0.0193314 0 0.000189837)
(0.0221045 0 0.000327477)
(0.0216193 0 0.000298981)
(0.0211145 0 0.000274213)
(0.0205907 0 0.000252796)
(0.0200466 0 0.000234285)
(0.0194793 0 0.000218225)
(0.0188849 0 0.00020415)
(0.0182576 0 0.000191616)
(0.0221557 0 0.000365363)
(0.0216923 0 0.000335177)
(0.0212035 0 0.000308333)
(0.0206903 0 0.000284614)
(0.0201523 0 0.000263694)
(0.019587 0 0.000245191)
(0.0189908 0 0.000228711)
(0.0183588 0 0.000213861)
(0.0176845 0 0.000200255)
(0.0169605 0 0.000187512)
(0.0221558 0 0.000398724)
(0.0217151 0 0.00036755)
(0.0212445 0 0.000339335)
(0.0207447 0 0.000313891)
(0.0202155 0 0.000291035)
(0.0196553 0 0.000270491)
(0.0190608 0 0.000251926)
(0.0184274 0 0.000235009)
(0.0177493 0 0.000219402)
(0.0170196 0 0.000204768)
(0.0162301 0 0.000190746)
(0.0221112 0 0.000427643)
(0.0216925 0 0.000395989)
(0.021241 0 0.000366967)
(0.0207565 0 0.00034038)
(0.0202384 0 0.000316067)
(0.0196856 0 0.000293876)
(0.0190954 0 0.000273571)
(0.0184635 0 0.000254867)
(0.0177845 0 0.000237469)
(0.0170519 0 0.000221093)
(0.0162578 0 0.00020543)
(0.0153936 0 0.000190155)
(0.014449 0 0.000174975)
(0.0220277 0 0.000452263)
(0.0216296 0 0.00042055)
(0.0211966 0 0.000391116)
(0.0207283 0 0.000363844)
(0.0202232 0 0.000338559)
(0.0196797 0 0.000315124)
(0.0190957 0 0.000293407)
(0.0184675 0 0.000273206)
(0.01779 0 0.000254269)
(0.017057 0 0.000236337)
(0.016261 0 0.000219152)
(0.0153937 0 0.00020243)
(0.0144453 0 0.000185897)
(0.0134049 0 0.000169246)
(0.0219097 0 0.000472705)
(0.0215309 0 0.0004413)
(0.0211155 0 0.000411794)
(0.0206629 0 0.000384158)
(0.0201716 0 0.000358282)
(0.0196393 0 0.000334011)
(0.0190633 0 0.000311226)
(0.0184405 0 0.000289809)
(0.0177664 0 0.000269581)
(0.017035 0 0.000250319)
(0.0162392 0 0.000231788)
(0.0153711 0 0.000213738)
(0.0144211 0 0.000195931)
(0.0133787 0 0.000178095)
(0.0122321 0 0.000159928)
(0.0109679 0 0.000141157)
(0.0217613 0 0.000489094)
(0.0214003 0 0.000458284)
(0.0210015 0 0.000429013)
(0.0205639 0 0.000401299)
(0.0200861 0 0.000375099)
(0.0195658 0 0.000350318)
(0.0189995 0 0.000326815)
(0.0183838 0 0.000304478)
(0.0177146 0 0.000283204)
(0.0169865 0 0.000262832)
(0.0161928 0 0.000243155)
(0.0153257 0 0.000223952)
(0.0143762 0 0.000204994)
(0.013334 0 0.000186042)
(0.0121876 0 0.000166826)
(0.010924 0 0.000147073)
(0.00952896 0 0.000126471)
(0.0215859 0 0.000501545)
(0.0212411 0 0.000471548)
(0.0208578 0 0.000442761)
(0.0204346 0 0.000415235)
(0.0199699 0 0.000388962)
(0.0194613 0 0.000363901)
(0.0189057 0 0.000339962)
(0.0182987 0 0.00031701)
(0.0176358 0 0.000294948)
(0.0169123 0 0.000273686)
(0.0161222 0 0.000253067)
(0.0152579 0 0.000232891)
(0.0143106 0 0.00021295)
(0.0132704 0 0.000193018)
(0.0121262 0 0.000172845)
(0.0108655 0 0.000152183)
(0.00947409 0 0.000130736)
(0.00793658 0 0.000108162)
(0.00623537 0 8.41265e-05)
(0.0213868 0 0.000510114)
(0.0210566 0 0.000481118)
(0.0206876 0 0.000453025)
(0.0202779 0 0.000425914)
(0.0198258 0 0.000399804)
(0.0193287 0 0.000374688)
(0.0187838 0 0.000350526)
(0.0181863 0 0.000327213)
(0.0175311 0 0.000304625)
(0.0168136 0 0.000282701)
(0.0160285 0 0.000261345)
(0.0151684 0 0.000240386)
(0.0142249 0 0.000219635)
(0.0131884 0 0.000198885)
(0.0120482 0 0.000177904)
(0.0107921 0 0.000156446)
(0.00940654 0 0.000134235)
(0.00787648 0 0.000110947)
(0.00618502 0 8.62336e-05)
(0.0043133 0 5.96878e-05)
(0.021167 0 0.000514863)
(0.0208498 0 0.000487018)
(0.0204937 0 0.00045979)
(0.0200967 0 0.000433284)
(0.0196566 0 0.000407544)
(0.0191707 0 0.000382586)
(0.018636 0 0.000358401)
(0.0180482 0 0.000334929)
(0.0174019 0 0.00031206)
(0.0166919 0 0.000289712)
(0.015913 0 0.000267822)
(0.0150583 0 0.00024627)
(0.01412 0 0.000224892)
(0.0130887 0 0.000203495)
(0.011954 0 0.000181868)
(0.0107043 0 0.00015977)
(0.00932645 0 0.000136935)
(0.00780593 0 0.000113053)
(0.00612649 0 8.77833e-05)
(0.00427008 0 6.07208e-05)
(0.00221641 0 3.13728e-05)
(0.0209288 0 0.000515882)
(0.0206233 0 0.000489276)
(0.020279 0 0.000463039)
(0.0198937 0 0.000437293)
(0.0194649 0 0.000412098)
(0.0189898 0 0.000387488)
(0.0184651 0 0.00036347)
(0.0178869 0 0.000340024)
(0.0172501 0 0.000317084)
(0.0165489 0 0.000294547)
(0.0157772 0 0.000272337)
(0.014929 0 0.000250387)
(0.013997 0 0.000228568)
(0.0129722 0 0.000206707)
(0.0118446 0 0.000184605)
(0.0106028 0 0.000162038)
(0.0092344 0 0.000138746)
(0.00772531 0 0.000114435)
(0.00606004 0 8.8763e-05)
(0.00422135 0 6.13356e-05)
(0.00218996 0 3.1671e-05)
(0 0 0)
(0.0206751 0 0.000513202)
(0.02038 0 0.000487891)
(0.0200465 0 0.000462741)
(0.0196718 0 0.000437883)
(0.0192536 0 0.000413384)
(0.0187888 0 0.000389291)
(0.0182739 0 0.000365626)
(0.0177051 0 0.000342388)
(0.0170779 0 0.00031955)
(0.016386 0 0.000297027)
(0.0156225 0 0.000274719)
(0.0147819 0 0.000252578)
(0.0138573 0 0.000230516)
(0.0128403 0 0.00020838)
(0.011721 0 0.00018599)
(0.0104886 0 0.000163134)
(0.00913122 0 0.000139569)
(0.00763533 0 0.00011501)
(0.00598618 0 8.91239e-05)
(0.00416741 0 6.15224e-05)
(0.00216081 0 3.17387e-05)
(0 0 0)
(0.0204085 0 0.000506799)
(0.0201228 0 0.000482826)
(0.0197989 0 0.000458842)
(0.0194341 0 0.000434979)
(0.0190257 0 0.000411309)
(0.0185706 0 0.000387886)
(0.0180652 0 0.000364744)
(0.0175057 0 0.000341894)
(0.0168876 0 0.00031933)
(0.0162049 0 0.000296998)
(0.0154509 0 0.00027481)
(0.0146191 0 0.000252697)
(0.0137029 0 0.000230593)
(0.0126945 0 0.00020838)
(0.0115846 0 0.000185897)
(0.010363 0 0.000162949)
(0.00901799 0 0.000139307)
(0.0075369 0 0.000114698)
(0.00590564 0 8.88036e-05)
(0.00410877 0 6.12447e-05)
(0.0021292 0 3.15691e-05)
(0 0 0)
(0.0201318 0 0.000496615)
(0.0198545 0 0.000474015)
(0.0195393 0 0.000451262)
(0.0191835 0 0.000428488)
(0.0187842 0 0.000405767)
(0.0183382 0 0.000383155)
(0.017842 0 0.000360693)
(0.0172915 0 0.000338404)
(0.0166821 0 0.000316289)
(0.0160086 0 0.000294326)
(0.0152647 0 0.000272457)
(0.0144429 0 0.000250596)
(0.0135359 0 0.000228662)
(0.0125368 0 0.000206574)
(0.0114373 0 0.000184205)
(0.0102274 0 0.000161374)
(0.00889603 0 0.000137866)
(0.00743111 0 0.000113424)
(0.00581929 0 8.77426e-05)
(0.00404606 0 6.04601e-05)
(0.00209546 0 3.11408e-05)
(0 0 0)
(0.0198483 0 0.000482552)
(0.0195784 0 0.000461356)
(0.019271 0 0.000439895)
(0.0189234 0 0.000418297)
(0.0185325 0 0.000396634)
(0.018095 0 0.000374966)
(0.0176075 0 0.000353337)
(0.0170657 0 0.000331776)
(0.0164651 0 0.000310295)
(0.0158005 0 0.000288885)
(0.0150664 0 0.000267517)
(0.0142551 0 0.000246112)
(0.0133582 0 0.000224572)
(0.0123692 0 0.000202832)
(0.0112808 0 0.000180796)
(0.0100836 0 0.000158303)
(0.00876689 0 0.000135155)
(0.00731928 0 0.000111111)
(0.0057282 0 8.58839e-05)
(0.00398004 0 5.91292e-05)
(0.00206001 0 3.04328e-05)
(0 0 0)
(0.0195612 0 0.000464474)
(0.0192978 0 0.000444713)
(0.0189975 0 0.000424602)
(0.0186572 0 0.000404264)
(0.018274 0 0.000383769)
(0.0178445 0 0.000363174)
(0.0173651 0 0.000342526)
(0.0168317 0 0.000321861)
(0.0162396 0 0.000301194)
(0.015584 0 0.000280529)
(0.0148591 0 0.000259849)
(0.0140581 0 0.000239096)
(0.0131724 0 0.000218183)
(0.0121945 0 0.000197029)
(0.0111176 0 0.000175553)
(0.0099336 0 0.000153634)
(0.00863236 0 0.000131086)
(0.00720295 0 0.000107689)
(0.00563358 0 8.31724e-05)
(0.00391158 0 5.72147e-05)
(0.00202329 0 2.9426e-05)
(0 0 0)
(0.0192741 0 0.000442199)
(0.0190166 0 0.000423911)
(0.0187225 0 0.000405213)
(0.0183889 0 0.000386223)
(0.0180127 0 0.000367004)
(0.0175906 0 0.000347613)
(0.0171188 0 0.000328097)
(0.0165932 0 0.000308494)
(0.0160094 0 0.000288826)
(0.0153623 0 0.000269101)
(0.0146465 0 0.000249311)
(0.0138556 0 0.000229426)
(0.0129815 0 0.000209367)
(0.012015 0 0.000189032)
(0.0109501 0 0.000168362)
(0.00977978 0 0.000147265)
(0.00849448 0 0.000125575)
(0.00708383 0 0.000103088)
(0.0055368 0 7.95564e-05)
(0.00384165 0 5.46818e-05)
(0.00198583 0 2.81028e-05)
(0 0 0)
(0.0189911 0 0.000415501)
(0.0187387 0 0.000398735)
(0.0184503 0 0.000381522)
(0.0181226 0 0.000363972)
(0.0177528 0 0.000346146)
(0.0173373 0 0.000328095)
(0.0168726 0 0.000309868)
(0.0163544 0 0.000291501)
(0.0157784 0 0.00027302)
(0.0151396 0 0.00025444)
(0.0144326 0 0.000235759)
(0.0136516 0 0.000216961)
(0.0127882 0 0.000197972)
(0.0118334 0 0.000178705)
(0.010781 0 0.000159109)
(0.00962473 0 0.000139102)
(0.00835557 0 0.000118541)
(0.00696391 0 9.72437e-05)
(0.00543945 0 7.49868e-05)
(0.00377136 0 5.1498e-05)
(0.00194822 0 2.64471e-05)
(0 0 0)
(0.0187168 0 0.000384107)
(0.0184689 0 0.000368925)
(0.0181853 0 0.000353282)
(0.017863 0 0.00033728)
(0.0174988 0 0.000320973)
(0.0170894 0 0.00030441)
(0.0166311 0 0.000287637)
(0.0161198 0 0.00027069)
(0.0155511 0 0.000253597)
(0.0149201 0 0.000236374)
(0.0142214 0 0.000219027)
(0.0134493 0 0.000201543)
(0.0125964 0 0.00018387)
(0.0116539 0 0.000165943)
(0.0106142 0 0.000147697)
(0.0094715 0 0.000129053)
(0.00821826 0 0.000109906)
(0.00684538 0 9.00944e-05)
(0.00534327 0 6.94181e-05)
(0.00370196 0 4.76335e-05)
(0.0019111 0 2.44444e-05)
(0 0 0)
(0.0184561 0 0.00034769)
(0.0182121 0 0.000334176)
(0.0179328 0 0.000320207)
(0.0176151 0 0.000305876)
(0.017256 0 0.000291232)
(0.016852 0 0.000276321)
(0.0163995 0 0.000261183)
(0.0158944 0 0.000245854)
(0.0153323 0 0.000230362)
(0.0147084 0 0.000214727)
(0.0140175 0 0.000198954)
(0.0132538 0 0.000183037)
(0.0124109 0 0.00016695)
(0.0114803 0 0.000150637)
(0.0104529 0 0.000134015)
(0.00932329 0 0.000117028)
(0.00808545 0 9.95981e-05)
(0.00673074 0 8.15832e-05)
(0.00525023 0 6.28086e-05)
(0.00363482 0 4.30613e-05)
(0.00187519 0 2.20815e-05)
(0 0 0)
(0.0182148 0 0.000305871)
(0.017974 0 0.000294131)
(0.0176984 0 0.000281963)
(0.0173848 0 0.000269451)
(0.01703 0 0.000256636)
(0.0166307 0 0.00024356)
(0.0161833 0 0.000230259)
(0.0156837 0 0.000216768)
(0.0151275 0 0.000203112)
(0.0145101 0 0.000189311)
(0.0138263 0 0.000175374)
(0.0130704 0 0.000161301)
(0.0122366 0 0.000147078)
(0.0113164 0 0.000132648)
(0.0103006 0 0.000117949)
(0.00918378 0 0.000102942)
(0.00796043 0 8.75495e-05)
(0.00662275 0 7.16582e-05)
(0.00516255 0 5.51213e-05)
(0.00357151 0 3.77579e-05)
(0.0018413 0 1.93472e-05)
(0 0 0)
(0.0179991 0 0.000258208)
(0.0177611 0 0.000248379)
(0.0174885 0 0.000238171)
(0.0171782 0 0.000227653)
(0.016827 0 0.000216863)
(0.0164318 0 0.000205834)
(0.0159887 0 0.000194599)
(0.0154938 0 0.000183189)
(0.0149428 0 0.000171627)
(0.014331 0 0.000159932)
(0.0136533 0 0.000148115)
(0.0129043 0 0.000136178)
(0.0120781 0 0.00012411)
(0.0111671 0 0.00011187)
(0.0101626 0 9.94248e-05)
(0.0090576 0 8.67268e-05)
(0.007847 0 7.3703e-05)
(0.0065246 0 6.02753e-05)
(0.00508273 0 4.63248e-05)
(0.00351378 0 3.17041e-05)
(0.00181037 0 1.62327e-05)
(0 0 0)
(0.0178162 0 0.000204193)
(0.0175803 0 0.000196452)
(0.0173102 0 0.000188399)
(0.0170025 0 0.000180089)
(0.0166543 0 0.000171553)
(0.0162622 0 0.000162818)
(0.0158226 0 0.000153912)
(0.0153316 0 0.000144859)
(0.0147848 0 0.00013568)
(0.0141776 0 0.000126392)
(0.0135051 0 0.000117005)
(0.0127618 0 0.000107522)
(0.0119418 0 9.7937e-05)
(0.0110388 0 8.82304e-05)
(0.0100441 0 7.83753e-05)
(0.00894904 0 6.83176e-05)
(0.0077492 0 5.80084e-05)
(0.00643982 0 4.73985e-05)
(0.00501364 0 3.63954e-05)
(0.00346369 0 2.48859e-05)
(0.00178346 0 1.27318e-05)
(0 0 0)
(0.0176742 0 0.000143249)
(0.0174398 0 0.000137819)
(0.0171714 0 0.000132161)
(0.0168657 0 0.000126318)
(0.0165197 0 0.000120311)
(0.0161299 0 0.000114161)
(0.0156929 0 0.000107887)
(0.0152048 0 0.000101507)
(0.0146611 0 9.50372e-05)
(0.0140575 0 8.84909e-05)
(0.0133889 0 8.18765e-05)
(0.0126499 0 7.51978e-05)
(0.011835 0 6.84526e-05)
(0.010938 0 6.16334e-05)
(0.0099503 0 5.47138e-05)
(0.00886292 0 4.7653e-05)
(0.00767173 0 4.04271e-05)
(0.00637257 0 3.30034e-05)
(0.00495867 0 2.5319e-05)
(0.00342368 0 1.72965e-05)
(0.00176187 0 8.84213e-06)
(0 0 0)
(0.0175819 0 7.47183e-05)
(0.0173485 0 7.18782e-05)
(0.0170812 0 6.89169e-05)
(0.0167767 0 6.58572e-05)
(0.0164319 0 6.27105e-05)
(0.0160437 0 5.94876e-05)
(0.0156083 0 5.61996e-05)
(0.0151219 0 5.28563e-05)
(0.0145803 0 4.94666e-05)
(0.0139789 0 4.60378e-05)
(0.0133127 0 4.25749e-05)
(0.0125766 0 3.90806e-05)
(0.0117649 0 3.55548e-05)
(0.0108717 0 3.19943e-05)
(0.00988838 0 2.83847e-05)
(0.00880593 0 2.47044e-05)
(0.00762038 0 2.09428e-05)
(0.00632787 0 1.7084e-05)
(0.00492198 0 1.3096e-05)
(0.0033968 0 8.93953e-06)
(0.00174726 0 4.56688e-06)
(0 0 0)
(0.0175493 0 0)
(0.0173163 0 0)
(0.0170493 0 0)
(0.0167452 0 0)
(0.016401 0 0)
(0.0160132 0 0)
(0.0155784 0 0)
(0.0150926 0 0)
(0.0145517 0 0)
(0.013951 0 0)
(0.0132858 0 0)
(0.0125506 0 0)
(0.0117401 0 0)
(0.0108482 0 0)
(0.00986641 0 0)
(0.0087857 0 0)
(0.00760215 0 0)
(0.00631199 0 0)
(0.00490895 0 0)
(0.00338726 0 0)
(0.00174217 0 0)
(0 0 0)
(0.0215781 0 0.000188262)
(0.0210499 0 0.000170088)
(0.020522 0 0.000155813)
(0.0218225 0 0.000238614)
(0.0213034 0 0.000216139)
(0.0207776 0 0.000197652)
(0.0202442 0 0.000182581)
(0.0197007 0 0.00017034)
(0.0219956 0 0.000285141)
(0.0214914 0 0.000259207)
(0.0209739 0 0.000237228)
(0.0204428 0 0.000218688)
(0.0198965 0 0.00020307)
(0.0193314 0 0.000189837)
(0.0221045 0 0.000327477)
(0.0216193 0 0.000298981)
(0.0211145 0 0.000274213)
(0.0205907 0 0.000252796)
(0.0200466 0 0.000234285)
(0.0194793 0 0.000218225)
(0.0188849 0 0.00020415)
(0.0182576 0 0.000191616)
(0.0221557 0 0.000365363)
(0.0216923 0 0.000335177)
(0.0212035 0 0.000308333)
(0.0206903 0 0.000284614)
(0.0201523 0 0.000263694)
(0.019587 0 0.000245191)
(0.0189908 0 0.000228711)
(0.0183588 0 0.000213861)
(0.0176845 0 0.000200255)
(0.0169605 0 0.000187512)
(0.0221558 0 0.000398724)
(0.0217151 0 0.00036755)
(0.0212445 0 0.000339335)
(0.0207447 0 0.000313891)
(0.0202155 0 0.000291035)
(0.0196553 0 0.000270491)
(0.0190608 0 0.000251926)
(0.0184274 0 0.000235009)
(0.0177493 0 0.000219402)
(0.0170196 0 0.000204768)
(0.0162301 0 0.000190746)
(0.0221112 0 0.000427643)
(0.0216925 0 0.000395989)
(0.021241 0 0.000366967)
(0.0207565 0 0.00034038)
(0.0202384 0 0.000316067)
(0.0196856 0 0.000293876)
(0.0190954 0 0.000273571)
(0.0184635 0 0.000254867)
(0.0177845 0 0.000237469)
(0.0170519 0 0.000221093)
(0.0162578 0 0.00020543)
(0.0153936 0 0.000190155)
(0.014449 0 0.000174975)
(0.0220277 0 0.000452263)
(0.0216296 0 0.00042055)
(0.0211966 0 0.000391116)
(0.0207283 0 0.000363844)
(0.0202232 0 0.000338559)
(0.0196797 0 0.000315124)
(0.0190957 0 0.000293407)
(0.0184675 0 0.000273206)
(0.01779 0 0.000254269)
(0.017057 0 0.000236337)
(0.016261 0 0.000219152)
(0.0153937 0 0.00020243)
(0.0144453 0 0.000185897)
(0.0134049 0 0.000169246)
(0.0219097 0 0.000472705)
(0.0215309 0 0.0004413)
(0.0211155 0 0.000411794)
(0.0206629 0 0.000384158)
(0.0201716 0 0.000358282)
(0.0196393 0 0.000334011)
(0.0190633 0 0.000311226)
(0.0184405 0 0.000289809)
(0.0177664 0 0.000269581)
(0.017035 0 0.000250319)
(0.0162392 0 0.000231788)
(0.0153711 0 0.000213738)
(0.0144211 0 0.000195931)
(0.0133787 0 0.000178095)
(0.0122321 0 0.000159928)
(0.0109679 0 0.000141157)
(0.0217613 0 0.000489094)
(0.0214003 0 0.000458284)
(0.0210015 0 0.000429013)
(0.0205639 0 0.000401299)
(0.0200861 0 0.000375099)
(0.0195658 0 0.000350318)
(0.0189995 0 0.000326815)
(0.0183838 0 0.000304478)
(0.0177146 0 0.000283204)
(0.0169865 0 0.000262832)
(0.0161928 0 0.000243155)
(0.0153257 0 0.000223952)
(0.0143762 0 0.000204994)
(0.013334 0 0.000186042)
(0.0121876 0 0.000166826)
(0.010924 0 0.000147073)
(0.00952896 0 0.000126471)
(0.0215859 0 0.000501545)
(0.0212411 0 0.000471548)
(0.0208578 0 0.000442761)
(0.0204346 0 0.000415235)
(0.0199699 0 0.000388962)
(0.0194613 0 0.000363901)
(0.0189057 0 0.000339962)
(0.0182987 0 0.00031701)
(0.0176358 0 0.000294948)
(0.0169123 0 0.000273686)
(0.0161222 0 0.000253067)
(0.0152579 0 0.000232891)
(0.0143106 0 0.00021295)
(0.0132704 0 0.000193018)
(0.0121262 0 0.000172845)
(0.0108655 0 0.000152183)
(0.00947409 0 0.000130736)
(0.00793658 0 0.000108162)
(0.00623537 0 8.41265e-05)
(0.0213868 0 0.000510114)
(0.0210566 0 0.000481118)
(0.0206876 0 0.000453025)
(0.0202779 0 0.000425914)
(0.0198258 0 0.000399804)
(0.0193287 0 0.000374688)
(0.0187838 0 0.000350526)
(0.0181863 0 0.000327213)
(0.0175311 0 0.000304625)
(0.0168136 0 0.000282701)
(0.0160285 0 0.000261345)
(0.0151684 0 0.000240386)
(0.0142249 0 0.000219635)
(0.0131884 0 0.000198885)
(0.0120482 0 0.000177904)
(0.0107921 0 0.000156446)
(0.00940654 0 0.000134235)
(0.00787648 0 0.000110947)
(0.00618502 0 8.62336e-05)
(0.0043133 0 5.96878e-05)
(0.021167 0 0.000514863)
(0.0208498 0 0.000487018)
(0.0204937 0 0.00045979)
(0.0200967 0 0.000433284)
(0.0196566 0 0.000407544)
(0.0191707 0 0.000382586)
(0.018636 0 0.000358401)
(0.0180482 0 0.000334929)
(0.0174019 0 0.00031206)
(0.0166919 0 0.000289712)
(0.015913 0 0.000267822)
(0.0150583 0 0.00024627)
(0.01412 0 0.000224892)
(0.0130887 0 0.000203495)
(0.011954 0 0.000181868)
(0.0107043 0 0.00015977)
(0.00932645 0 0.000136935)
(0.00780593 0 0.000113053)
(0.00612649 0 8.77833e-05)
(0.00427008 0 6.07208e-05)
(0.00221641 0 3.13728e-05)
(0.0209288 0 0.000515882)
(0.0206233 0 0.000489276)
(0.020279 0 0.000463039)
(0.0198937 0 0.000437293)
(0.0194649 0 0.000412098)
(0.0189898 0 0.000387488)
(0.0184651 0 0.00036347)
(0.0178869 0 0.000340024)
(0.0172501 0 0.000317084)
(0.0165489 0 0.000294547)
(0.0157772 0 0.000272337)
(0.014929 0 0.000250387)
(0.013997 0 0.000228568)
(0.0129722 0 0.000206707)
(0.0118446 0 0.000184605)
(0.0106028 0 0.000162038)
(0.0092344 0 0.000138746)
(0.00772531 0 0.000114435)
(0.00606004 0 8.8763e-05)
(0.00422135 0 6.13356e-05)
(0.00218996 0 3.1671e-05)
(0 0 0)
(0.0206751 0 0.000513202)
(0.02038 0 0.000487891)
(0.0200465 0 0.000462741)
(0.0196718 0 0.000437883)
(0.0192536 0 0.000413384)
(0.0187888 0 0.000389291)
(0.0182739 0 0.000365626)
(0.0177051 0 0.000342388)
(0.0170779 0 0.00031955)
(0.016386 0 0.000297027)
(0.0156225 0 0.000274719)
(0.0147819 0 0.000252578)
(0.0138573 0 0.000230516)
(0.0128403 0 0.00020838)
(0.011721 0 0.00018599)
(0.0104886 0 0.000163134)
(0.00913122 0 0.000139569)
(0.00763533 0 0.00011501)
(0.00598618 0 8.91239e-05)
(0.00416741 0 6.15224e-05)
(0.00216081 0 3.17387e-05)
(0 0 0)
(0.0204085 0 0.000506799)
(0.0201228 0 0.000482826)
(0.0197989 0 0.000458842)
(0.0194341 0 0.000434979)
(0.0190257 0 0.000411309)
(0.0185706 0 0.000387886)
(0.0180652 0 0.000364744)
(0.0175057 0 0.000341894)
(0.0168876 0 0.00031933)
(0.0162049 0 0.000296998)
(0.0154509 0 0.00027481)
(0.0146191 0 0.000252697)
(0.0137029 0 0.000230593)
(0.0126945 0 0.00020838)
(0.0115846 0 0.000185897)
(0.010363 0 0.000162949)
(0.00901799 0 0.000139307)
(0.0075369 0 0.000114698)
(0.00590564 0 8.88036e-05)
(0.00410877 0 6.12447e-05)
(0.0021292 0 3.15691e-05)
(0 0 0)
(0.0201318 0 0.000496615)
(0.0198545 0 0.000474015)
(0.0195393 0 0.000451262)
(0.0191835 0 0.000428488)
(0.0187842 0 0.000405767)
(0.0183382 0 0.000383155)
(0.017842 0 0.000360693)
(0.0172915 0 0.000338404)
(0.0166821 0 0.000316289)
(0.0160086 0 0.000294326)
(0.0152647 0 0.000272457)
(0.0144429 0 0.000250596)
(0.0135359 0 0.000228662)
(0.0125368 0 0.000206574)
(0.0114373 0 0.000184205)
(0.0102274 0 0.000161374)
(0.00889603 0 0.000137866)
(0.00743111 0 0.000113424)
(0.00581929 0 8.77426e-05)
(0.00404606 0 6.04601e-05)
(0.00209546 0 3.11408e-05)
(0 0 0)
(0.0198483 0 0.000482552)
(0.0195784 0 0.000461356)
(0.019271 0 0.000439895)
(0.0189234 0 0.000418297)
(0.0185325 0 0.000396634)
(0.018095 0 0.000374966)
(0.0176075 0 0.000353337)
(0.0170657 0 0.000331776)
(0.0164651 0 0.000310295)
(0.0158005 0 0.000288885)
(0.0150664 0 0.000267517)
(0.0142551 0 0.000246112)
(0.0133582 0 0.000224572)
(0.0123692 0 0.000202832)
(0.0112808 0 0.000180796)
(0.0100836 0 0.000158303)
(0.00876689 0 0.000135155)
(0.00731928 0 0.000111111)
(0.0057282 0 8.58839e-05)
(0.00398004 0 5.91292e-05)
(0.00206001 0 3.04328e-05)
(0 0 0)
(0.0195612 0 0.000464474)
(0.0192978 0 0.000444713)
(0.0189975 0 0.000424602)
(0.0186572 0 0.000404264)
(0.018274 0 0.000383769)
(0.0178445 0 0.000363174)
(0.0173651 0 0.000342526)
(0.0168317 0 0.000321861)
(0.0162396 0 0.000301194)
(0.015584 0 0.000280529)
(0.0148591 0 0.000259849)
(0.0140581 0 0.000239096)
(0.0131724 0 0.000218183)
(0.0121945 0 0.000197029)
(0.0111176 0 0.000175553)
(0.0099336 0 0.000153634)
(0.00863236 0 0.000131086)
(0.00720295 0 0.000107689)
(0.00563358 0 8.31724e-05)
(0.00391158 0 5.72147e-05)
(0.00202329 0 2.9426e-05)
(0 0 0)
(0.0192741 0 0.000442199)
(0.0190166 0 0.000423911)
(0.0187225 0 0.000405213)
(0.0183889 0 0.000386223)
(0.0180127 0 0.000367004)
(0.0175906 0 0.000347613)
(0.0171188 0 0.000328097)
(0.0165932 0 0.000308494)
(0.0160094 0 0.000288826)
(0.0153623 0 0.000269101)
(0.0146465 0 0.000249311)
(0.0138556 0 0.000229426)
(0.0129815 0 0.000209367)
(0.012015 0 0.000189032)
(0.0109501 0 0.000168362)
(0.00977978 0 0.000147265)
(0.00849448 0 0.000125575)
(0.00708383 0 0.000103088)
(0.0055368 0 7.95564e-05)
(0.00384165 0 5.46818e-05)
(0.00198583 0 2.81028e-05)
(0 0 0)
(0.0189911 0 0.000415501)
(0.0187387 0 0.000398735)
(0.0184503 0 0.000381522)
(0.0181226 0 0.000363972)
(0.0177528 0 0.000346146)
(0.0173373 0 0.000328095)
(0.0168726 0 0.000309868)
(0.0163544 0 0.000291501)
(0.0157784 0 0.00027302)
(0.0151396 0 0.00025444)
(0.0144326 0 0.000235759)
(0.0136516 0 0.000216961)
(0.0127882 0 0.000197972)
(0.0118334 0 0.000178705)
(0.010781 0 0.000159109)
(0.00962473 0 0.000139102)
(0.00835557 0 0.000118541)
(0.00696391 0 9.72437e-05)
(0.00543945 0 7.49868e-05)
(0.00377136 0 5.1498e-05)
(0.00194822 0 2.64471e-05)
(0 0 0)
(0.0187168 0 0.000384107)
(0.0184689 0 0.000368925)
(0.0181853 0 0.000353282)
(0.017863 0 0.00033728)
(0.0174988 0 0.000320973)
(0.0170894 0 0.00030441)
(0.0166311 0 0.000287637)
(0.0161198 0 0.00027069)
(0.0155511 0 0.000253597)
(0.0149201 0 0.000236374)
(0.0142214 0 0.000219027)
(0.0134493 0 0.000201543)
(0.0125964 0 0.00018387)
(0.0116539 0 0.000165943)
(0.0106142 0 0.000147697)
(0.0094715 0 0.000129053)
(0.00821826 0 0.000109906)
(0.00684538 0 9.00944e-05)
(0.00534327 0 6.94181e-05)
(0.00370196 0 4.76335e-05)
(0.0019111 0 2.44444e-05)
(0 0 0)
(0.0184561 0 0.00034769)
(0.0182121 0 0.000334176)
(0.0179328 0 0.000320207)
(0.0176151 0 0.000305876)
(0.017256 0 0.000291232)
(0.016852 0 0.000276321)
(0.0163995 0 0.000261183)
(0.0158944 0 0.000245854)
(0.0153323 0 0.000230362)
(0.0147084 0 0.000214727)
(0.0140175 0 0.000198954)
(0.0132538 0 0.000183037)
(0.0124109 0 0.00016695)
(0.0114803 0 0.000150637)
(0.0104529 0 0.000134015)
(0.00932329 0 0.000117028)
(0.00808545 0 9.95981e-05)
(0.00673074 0 8.15832e-05)
(0.00525023 0 6.28086e-05)
(0.00363482 0 4.30613e-05)
(0.00187519 0 2.20815e-05)
(0 0 0)
(0.0182148 0 0.000305871)
(0.017974 0 0.000294131)
(0.0176984 0 0.000281963)
(0.0173848 0 0.000269451)
(0.01703 0 0.000256636)
(0.0166307 0 0.00024356)
(0.0161833 0 0.000230259)
(0.0156837 0 0.000216768)
(0.0151275 0 0.000203112)
(0.0145101 0 0.000189311)
(0.0138263 0 0.000175374)
(0.0130704 0 0.000161301)
(0.0122366 0 0.000147078)
(0.0113164 0 0.000132648)
(0.0103006 0 0.000117949)
(0.00918378 0 0.000102942)
(0.00796043 0 8.75495e-05)
(0.00662275 0 7.16582e-05)
(0.00516255 0 5.51213e-05)
(0.00357151 0 3.77579e-05)
(0.0018413 0 1.93472e-05)
(0 0 0)
(0.0179991 0 0.000258208)
(0.0177611 0 0.000248379)
(0.0174885 0 0.000238171)
(0.0171782 0 0.000227653)
(0.016827 0 0.000216863)
(0.0164318 0 0.000205834)
(0.0159887 0 0.000194599)
(0.0154938 0 0.000183189)
(0.0149428 0 0.000171627)
(0.014331 0 0.000159932)
(0.0136533 0 0.000148115)
(0.0129043 0 0.000136178)
(0.0120781 0 0.00012411)
(0.0111671 0 0.00011187)
(0.0101626 0 9.94248e-05)
(0.0090576 0 8.67268e-05)
(0.007847 0 7.3703e-05)
(0.0065246 0 6.02753e-05)
(0.00508273 0 4.63248e-05)
(0.00351378 0 3.17041e-05)
(0.00181037 0 1.62327e-05)
(0 0 0)
(0.0178162 0 0.000204193)
(0.0175803 0 0.000196452)
(0.0173102 0 0.000188399)
(0.0170025 0 0.000180089)
(0.0166543 0 0.000171553)
(0.0162622 0 0.000162818)
(0.0158226 0 0.000153912)
(0.0153316 0 0.000144859)
(0.0147848 0 0.00013568)
(0.0141776 0 0.000126392)
(0.0135051 0 0.000117005)
(0.0127618 0 0.000107522)
(0.0119418 0 9.7937e-05)
(0.0110388 0 8.82304e-05)
(0.0100441 0 7.83753e-05)
(0.00894904 0 6.83176e-05)
(0.0077492 0 5.80084e-05)
(0.00643982 0 4.73985e-05)
(0.00501364 0 3.63954e-05)
(0.00346369 0 2.48859e-05)
(0.00178346 0 1.27318e-05)
(0 0 0)
(0.0176742 0 0.000143249)
(0.0174398 0 0.000137819)
(0.0171714 0 0.000132161)
(0.0168657 0 0.000126318)
(0.0165197 0 0.000120311)
(0.0161299 0 0.000114161)
(0.0156929 0 0.000107887)
(0.0152048 0 0.000101507)
(0.0146611 0 9.50372e-05)
(0.0140575 0 8.84909e-05)
(0.0133889 0 8.18765e-05)
(0.0126499 0 7.51978e-05)
(0.011835 0 6.84526e-05)
(0.010938 0 6.16334e-05)
(0.0099503 0 5.47138e-05)
(0.00886292 0 4.7653e-05)
(0.00767173 0 4.04271e-05)
(0.00637257 0 3.30034e-05)
(0.00495867 0 2.5319e-05)
(0.00342368 0 1.72965e-05)
(0.00176187 0 8.84213e-06)
(0 0 0)
(0.0175819 0 7.47183e-05)
(0.0173485 0 7.18782e-05)
(0.0170812 0 6.89169e-05)
(0.0167767 0 6.58572e-05)
(0.0164319 0 6.27105e-05)
(0.0160437 0 5.94876e-05)
(0.0156083 0 5.61996e-05)
(0.0151219 0 5.28563e-05)
(0.0145803 0 4.94666e-05)
(0.0139789 0 4.60378e-05)
(0.0133127 0 4.25749e-05)
(0.0125766 0 3.90806e-05)
(0.0117649 0 3.55548e-05)
(0.0108717 0 3.19943e-05)
(0.00988838 0 2.83847e-05)
(0.00880593 0 2.47044e-05)
(0.00762038 0 2.09428e-05)
(0.00632787 0 1.7084e-05)
(0.00492198 0 1.3096e-05)
(0.0033968 0 8.93953e-06)
(0.00174726 0 4.56688e-06)
(0 0 0)
(0.0175493 0 0)
(0.0173163 0 0)
(0.0170493 0 0)
(0.0167452 0 0)
(0.016401 0 0)
(0.0160132 0 0)
(0.0155784 0 0)
(0.0150926 0 0)
(0.0145517 0 0)
(0.013951 0 0)
(0.0132858 0 0)
(0.0125506 0 0)
(0.0117401 0 0)
(0.0108482 0 0)
(0.00986641 0 0)
(0.0087857 0 0)
(0.00760215 0 0)
(0.00631199 0 0)
(0.00490895 0 0)
(0.00338726 0 0)
(0.00174217 0 0)
(0 0 0)
)
;

boundaryField
{
    inlet
    {
        type            fixedValue;
        value           nonuniform 0();
    }
    outlet
    {
        type            fixedValue;
        value           uniform (0 0 0);
    }
    flap
    {
        type            fixedValue;
        value           nonuniform 0();
    }
    upperWall
    {
        type            slip;
    }
    lowerWall
    {
        type            slip;
    }
    frontAndBack
    {
        type            empty;
    }
    procBoundary2to1
    {
        type            processor;
    }
    procBoundary2to4
    {
        type            processor;
    }
    procBoundary2to5
    {
        type            processor;
    }
}


// ************************************************************************* //
