/*--------------------------------*- C++ -*----------------------------------*\
| =========                 |                                                 |
| \\      /  F ield         | OpenFOAM: The Open Source CFD Toolbox           |
|  \\    /   O peration     | Version:  dev                                   |
|   \\  /    A nd           | Web:      www.OpenFOAM.org                      |
|    \\/     M anipulation  |                                                 |
\*---------------------------------------------------------------------------*/
FoamFile
{
    version     2.0;
    format      ascii;
    class       pointVectorField;
    location    "4.26";
    object      pointDisplacement;
}
// * * * * * * * * * * * * * * * * * * * * * * * * * * * * * * * * * * * * * //

dimensions      [0 1 0 0 0 0 0];

internalField   nonuniform List<vector> 
5828
(
(0 0 0)
(0.0059224 0 0)
(0.0112747 0 0)
(0.0159184 0 0)
(0.0199051 0 0)
(0.0232843 0 0)
(0.0261012 0 0)
(0.0283967 0 0)
(0.0302074 0 0)
(0.0315659 0 0)
(0.0325009 0 0)
(0.0330378 0 0)
(0.033199 0 0)
(0.0330043 0 0)
(0.0324717 0 0)
(0.0316181 0 0)
(0.0304595 0 0)
(0.0290127 0 0)
(0.0272959 0 0)
(0.0253298 0 0)
(0.0231394 0 0)
(0.0207551 0 0)
(0.0182148 0 0)
(0.0155659 0 0)
(0.0128666 0 0)
(0.0101887 0 0)
(0.0076214 0 0)
(0.0052767 0 0)
(0.00330323 0 0)
(0.00192714 0 0)
(0 0 0)
(0 0 0)
(0.00592588 0 3.74122e-06)
(0.011282 0 7.44151e-06)
(0.0159296 0 1.1266e-05)
(0.0199204 0 1.54456e-05)
(0.0233041 0 2.01835e-05)
(0.026126 0 2.56713e-05)
(0.0284273 0 3.21002e-05)
(0.0302446 0 3.96703e-05)
(0.0316107 0 4.85969e-05)
(0.0325545 0 5.91157e-05)
(0.0331015 0 7.1487e-05)
(0.0332743 0 8.59983e-05)
(0.033093 0 0.000102966)
(0.0325758 0 0.000122738)
(0.0317396 0 0.000145686)
(0.0306009 0 0.000172208)
(0.0291765 0 0.000202717)
(0.0274847 0 0.000237634)
(0.0255464 0 0.000277373)
(0.0233867 0 0.000322331)
(0.0210359 0 0.000372887)
(0.0185321 0 0.000429385)
(0.0159225 0 0.00049215)
(0.0132661 0 0.000561512)
(0.0106354 0 0.000637824)
(0.00812105 0 0.0007214)
(0.00583785 0 0.000812094)
(0.00393755 0 0.000907584)
(0.00264314 0 0.000997142)
(0.00111991 0 0.00116597)
(0 0 0)
(0.00593724 0 7.41436e-06)
(0.0113045 0 1.47475e-05)
(0.0159636 0 2.23262e-05)
(0.0199667 0 3.06071e-05)
(0.0233637 0 3.99922e-05)
(0.0262007 0 5.08593e-05)
(0.0285191 0 6.35858e-05)
(0.030356 0 7.85655e-05)
(0.0317447 0 9.62221e-05)
(0.0327145 0 0.000117019)
(0.0332915 0 0.000141465)
(0.0334988 0 0.000170127)
(0.0333573 0 0.000203622)
(0.0328857 0 0.000242629)
(0.0321015 0 0.000287877)
(0.0310218 0 0.000340139)
(0.029664 0 0.000400218)
(0.0280467 0 0.000468923)
(0.0261913 0 0.000547039)
(0.0241228 0 0.000635301)
(0.0218717 0 0.000734364)
(0.0194759 0 0.000844765)
(0.0169829 0 0.00096688)
(0.0144523 0 0.0011009)
(0.0119582 0 0.00124675)
(0.00959403 0 0.00140371)
(0.00747811 0 0.00156943)
(0.00576381 0 0.00173673)
(0.00465844 0 0.00188438)
(0.00338037 0 0.00210407)
(0 0 0)
(0.00595609 0 1.09532e-05)
(0.011342 0 2.17861e-05)
(0.01602 0 3.29796e-05)
(0.0200432 0 4.52068e-05)
(0.0234624 0 5.90585e-05)
(0.0263242 0 7.50893e-05)
(0.0286707 0 9.38521e-05)
(0.0305399 0 0.000115922)
(0.0319656 0 0.000141917)
(0.0329781 0 0.000172511)
(0.0336044 0 0.000208445)
(0.0338686 0 0.000250536)
(0.0337924 0 0.000299681)
(0.0333956 0 0.000356855)
(0.0326969 0 0.000423111)
(0.0317143 0 0.000499555)
(0.0304659 0 0.000587332)
(0.0289713 0 0.000687578)
(0.0272521 0 0.000801376)
(0.0253336 0 0.000929687)
(0.023246 0 0.00107328)
(0.0210268 0 0.00123262)
(0.0187232 0 0.00140775)
(0.0163946 0 0.00159803)
(0.0141153 0 0.00180187)
(0.0119787 0 0.00201599)
(0.0101024 0 0.00223383)
(0.00863227 0 0.00244209)
(0.00774898 0 0.00261293)
(0.00673007 0 0.00282587)
(0 0 0)
(0.00598218 0 1.42936e-05)
(0.0113938 0 2.84288e-05)
(0.016098 0 4.30311e-05)
(0.020149 0 5.89748e-05)
(0.0235987 0 7.70259e-05)
(0.0264946 0 9.79017e-05)
(0.0288799 0 0.000122314)
(0.0307933 0 0.000151003)
(0.03227 0 0.000184758)
(0.0333412 0 0.000224439)
(0.0340352 0 0.000270991)
(0.0343772 0 0.000325449)
(0.0343905 0 0.000388947)
(0.0340964 0 0.000462716)
(0.0335147 0 0.000548074)
(0.0326649 0 0.000646406)
(0.0315665 0 0.000759129)
(0.0302399 0 0.000887628)
(0.0287074 0 0.00103319)
(0.0269945 0 0.00119686)
(0.0251307 0 0.00137935)
(0.023152 0 0.00158082)
(0.0211044 0 0.00180057)
(0.019045 0 0.00203663)
(0.0170454 0 0.00228517)
(0.0151945 0 0.00253946)
(0.0136023 0 0.00278829)
(0.0124008 0 0.00301329)
(0.0117435 0 0.00318492)
(0.0109358 0 0.00336691)
(0 0 0)
(0.00601515 0 1.73742e-05)
(0.0114593 0 3.45539e-05)
(0.0161965 0 5.22953e-05)
(0.0202825 0 7.16553e-05)
(0.0237706 0 9.35575e-05)
(0.0267095 0 0.000118863)
(0.0291434 0 0.000148422)
(0.0311126 0 0.000183115)
(0.0326531 0 0.00022388)
(0.0337978 0 0.00027173)
(0.0345763 0 0.000327774)
(0.0350156 0 0.000393224)
(0.0351407 0 0.000469402)
(0.0349745 0 0.000557733)
(0.0345388 0 0.000659737)
(0.0338547 0 0.000777002)
(0.0329434 0 0.000911136)
(0.0318264 0 0.00106368)
(0.030527 0 0.00123602)
(0.029071 0 0.0014292)
(0.0274864 0 0.00164368)
(0.0258065 0 0.00187915)
(0.0240744 0 0.00213407)
(0.022343 0 0.00240493)
(0.0206768 0 0.00268551)
(0.0191555 0 0.00296584)
(0.0178753 0 0.00323091)
(0.0169497 0 0.00345938)
(0.0165088 0 0.00362312)
(0.0158561 0 0.00377562)
(0 0 0)
(0.00605456 0 2.01386e-05)
(0.0115375 0 4.00488e-05)
(0.0163142 0 6.06015e-05)
(0.020442 0 8.30139e-05)
(0.0239758 0 0.000108345)
(0.0269658 0 0.000137577)
(0.0294575 0 0.000171677)
(0.0314926 0 0.000211637)
(0.0331086 0 0.000258508)
(0.0343401 0 0.000313423)
(0.0352184 0 0.000377611)
(0.0357723 0 0.000452412)
(0.0360289 0 0.000539271)
(0.0360132 0 0.000639741)
(0.0357491 0 0.000755465)
(0.0352596 0 0.000888153)
(0.034568 0 0.00103951)
(0.0336974 0 0.00121114)
(0.0326719 0 0.00140444)
(0.0315186 0 0.00162035)
(0.0302635 0 0.00185899)
(0.0289341 0 0.00211953)
(0.0275701 0 0.00239973)
(0.0262183 0 0.00269478)
(0.0249323 0 0.0029965)
(0.0237779 0 0.00329257)
(0.0228329 0 0.00356566)
(0.0221896 0 0.00379344)
(0.0219597 0 0.00394985)
(0.0214248 0 0.00408898)
(0 0 0)
(0.00609989 0 2.25362e-05)
(0.0116275 0 4.48132e-05)
(0.0164494 0 6.77981e-05)
(0.0206251 0 9.28426e-05)
(0.0242113 0 0.000121117)
(0.0272596 0 0.0001537)
(0.0298173 0 0.000191645)
(0.0319275 0 0.000236027)
(0.0336294 0 0.000287977)
(0.0349592 0 0.000348702)
(0.0359504 0 0.000419507)
(0.0366338 0 0.000501798)
(0.0370386 0 0.000597083)
(0.0371924 0 0.000706964)
(0.0371213 0 0.000833118)
(0.0368505 0 0.000977284)
(0.0364061 0 0.00114118)
(0.0358126 0 0.00132634)
(0.0350943 0 0.00153413)
(0.0342797 0 0.00176528)
(0.0333948 0 0.00201947)
(0.032464 0 0.00229568)
(0.0315183 0 0.00259129)
(0.0305927 0 0.00290051)
(0.0297297 0 0.00321404)
(0.0289801 0 0.0035184)
(0.028399 0 0.0037953)
(0.0280551 0 0.00402253)
(0.0280444 0 0.00417528)
(0.0276302 0 0.00431908)
(0 0 0)
(0.00615052 0 2.45237e-05)
(0.0117279 0 4.87607e-05)
(0.0166002 0 7.37552e-05)
(0.0208294 0 0.000100965)
(0.0244738 0 0.000131643)
(0.0275869 0 0.00016694)
(0.0302175 0 0.000207966)
(0.0324106 0 0.000255845)
(0.034207 0 0.000311748)
(0.0356449 0 0.000376916)
(0.0367597 0 0.000452675)
(0.0375845 0 0.000540442)
(0.038151 0 0.000641719)
(0.0384894 0 0.000758074)
(0.0386284 0 0.000891117)
(0.0385944 0 0.00104253)
(0.0384157 0 0.00121388)
(0.0381201 0 0.00140654)
(0.0377337 0 0.00162176)
(0.0372836 0 0.00186008)
(0.0367987 0 0.00212104)
(0.0363057 0 0.00240351)
(0.0358237 0 0.00270443)
(0.0353724 0 0.00301782)
(0.0349786 0 0.00333453)
(0.0346764 0 0.00364075)
(0.034499 0 0.00391801)
(0.0344869 0 0.00414442)
(0.0347179 0 0.00429495)
(0.0344551 0 0.00445359)
(0 0 0)
(0.00620576 0 2.60649e-05)
(0.0118374 0 5.18205e-05)
(0.0167648 0 7.83669e-05)
(0.0210519 0 0.000107237)
(0.0247595 0 0.000139742)
(0.0279427 0 0.00017707)
(0.0306522 0 0.000220361)
(0.0329345 0 0.000270753)
(0.0348325 0 0.00032942)
(0.036386 0 0.00039759)
(0.0376325 0 0.000476558)
(0.0386076 0 0.000567697)
(0.0393454 0 0.000672437)
(0.0398791 0 0.000792228)
(0.0402383 0 0.000928463)
(0.0404512 0 0.0010826)
(0.0405482 0 0.00125607)
(0.0405619 0 0.00145006)
(0.0405227 0 0.00166556)
(0.0404573 0 0.00190296)
(0.0403951 0 0.00216182)
(0.0403624 0 0.00244081)
(0.0403741 0 0.00273667)
(0.0404409 0 0.00304396)
(0.0405673 0 0.00335458)
(0.040765 0 0.00365539)
(0.0410443 0 0.00392794)
(0.0414112 0 0.00414998)
(0.041916 0 0.00429491)
(0.0418544 0 0.00446592)
(0 0 0)
(0.00626485 0 2.71322e-05)
(0.0119546 0 5.39384e-05)
(0.0169406 0 8.1553e-05)
(0.0212897 0 0.000111553)
(0.0250645 0 0.000145278)
(0.0283221 0 0.000183927)
(0.031115 0 0.000228638)
(0.0334914 0 0.000280529)
(0.035496 0 0.000340738)
(0.0371705 0 0.000410436)
(0.0385543 0 0.000490841)
(0.0396852 0 0.00058322)
(0.0405998 0 0.000688883)
(0.0413334 0 0.000809011)
(0.0419155 0 0.00094466)
(0.0423782 0 0.00109707)
(0.0427572 0 0.0012675)
(0.043087 0 0.00145687)
(0.0434012 0 0.00166576)
(0.0437292 0 0.00189427)
(0.0441002 0 0.00214188)
(0.0445383 0 0.00240717)
(0.045059 0 0.0026873)
(0.0456691 0 0.00297763)
(0.0463593 0 0.00327153)
(0.0471155 0 0.00355774)
(0.0479141 0 0.00381829)
(0.04872 0 0.00402959)
(0.0495367 0 0.00416225)
(0.049733 0 0.0043261)
(0 0 0)
(0.00632699 0 2.77063e-05)
(0.0120778 0 5.50771e-05)
(0.0171254 0 8.32602e-05)
(0.0215394 0 0.000113845)
(0.0253844 0 0.00014817)
(0.0287197 0 0.000187417)
(0.0315992 0 0.000232692)
(0.034073 0 0.000285063)
(0.0361874 0 0.000345593)
(0.0379859 0 0.000415358)
(0.0395098 0 0.000495448)
(0.0407987 0 0.000586973)
(0.0418913 0 0.000691051)
(0.0428236 0 0.000808502)
(0.0436275 0 0.000940023)
(0.0443398 0 0.00108665)
(0.045 0 0.00124928)
(0.0456438 0 0.00142834)
(0.0463066 0 0.00162395)
(0.0470212 0 0.00183584)
(0.0478182 0 0.00206322)
(0.0487234 0 0.00230467)
(0.0497536 0 0.0025578)
(0.0509142 0 0.00281912)
(0.0521939 0 0.00308397)
(0.0535551 0 0.00334428)
(0.0549363 0 0.00358412)
(0.0562529 0 0.00377887)
(0.0574296 0 0.00389504)
(0.0579377 0 0.00403571)
(0 0 0)
(0.00639134 0 2.77767e-05)
(0.0122053 0 5.52173e-05)
(0.0173167 0 8.34622e-05)
(0.0217976 0 0.000114083)
(0.0257149 0 0.000148386)
(0.0291298 0 0.000187513)
(0.0320978 0 0.000232508)
(0.0346707 0 0.000284359)
(0.0368962 0 0.000344025)
(0.0388196 0 0.000412447)
(0.0404837 0 0.000490547)
(0.0419296 0 0.000579225)
(0.0431976 0 0.000679341)
(0.0443244 0 0.000791371)
(0.0453452 0 0.000915633)
(0.0463006 0 0.00105278)
(0.0472314 0 0.00120322)
(0.0481752 0 0.00136683)
(0.0491692 0 0.00154317)
(0.0502491 0 0.00173139)
(0.0514479 0 0.00193027)
(0.0527942 0 0.00213815)
(0.0543088 0 0.0023529)
(0.0560007 0 0.00257214)
(0.057862 0 0.00279341)
(0.0598438 0 0.00301329)
(0.0618604 0 0.00322176)
(0.0637715 0 0.00339722)
(0.0653847 0 0.00350145)
(0.0663143 0 0.00362227)
(0 0 0)
(0.006457 0 2.73413e-05)
(0.0123354 0 5.43566e-05)
(0.0175117 0 8.21603e-05)
(0.0220607 0 0.000112273)
(0.0260514 0 0.000145946)
(0.0295467 0 0.000184255)
(0.0326038 0 0.000228157)
(0.0352759 0 0.000278535)
(0.0376121 0 0.000336215)
(0.039659 0 0.000401974)
(0.0414607 0 0.000476534)
(0.0430597 0 0.000560547)
(0.0444973 0 0.000654579)
(0.0458108 0 0.000758772)
(0.0470381 0 0.000873031)
(0.0482224 0 0.000997507)
(0.0494053 0 0.00113205)
(0.0506256 0 0.00127592)
(0.0519216 0 0.00142798)
(0.0533307 0 0.00158667)
(0.0548879 0 0.00175006)
(0.0566246 0 0.00191584)
(0.0585657 0 0.00208158)
(0.0607265 0 0.00224523)
(0.0631056 0 0.00240602)
(0.0656666 0 0.00256536)
(0.068324 0 0.00272397)
(0.0708985 0 0.0028748)
(0.0730693 0 0.00298201)
(0.074747 0 0.00312829)
(0 0 0)
(0.00652308 0 2.64063e-05)
(0.0124663 0 5.25101e-05)
(0.0177079 0 7.93823e-05)
(0.0223252 0 0.000108462)
(0.0263893 0 0.000140922)
(0.0299647 0 0.000177748)
(0.0331102 0 0.000219792)
(0.0358801 0 0.000267811)
(0.0383247 0 0.000322478)
(0.0404918 0 0.000384381)
(0.0424263 0 0.000454018)
(0.0441716 0 0.000531773)
(0.0457695 0 0.000617895)
(0.0472577 0 0.000712232)
(0.048676 0 0.000814254)
(0.0500696 0 0.000923518)
(0.0514794 0 0.0010393)
(0.0529441 0 0.0011602)
(0.0545022 0 0.00128436)
(0.0561907 0 0.00140936)
(0.058045 0 0.00153231)
(0.0600968 0 0.00164984)
(0.0623728 0 0.00175828)
(0.0648917 0 0.00185437)
(0.0676586 0 0.00193646)
(0.070657 0 0.00200705)
(0.0738212 0 0.00207674)
(0.0769882 0 0.00216734)
(0.0798037 0 0.00228328)
(0.083165 0 0.00260681)
(0 0 0)
(0.0065893 0 2.49947e-05)
(0.0125972 0 4.96973e-05)
(0.017904 0 7.51421e-05)
(0.0225895 0 0.000102679)
(0.0267266 0 0.000133363)
(0.0303814 0 0.000168073)
(0.0336138 0 0.00020754)
(0.0364793 0 0.000252375)
(0.0390293 0 0.000303084)
(0.041312 0 0.000360056)
(0.0433732 0 0.000423549)
(0.0452565 0 0.000493662)
(0.0470037 0 0.000570307)
(0.0486528 0 0.00065306)
(0.0502453 0 0.000741006)
(0.0518259 0 0.000833095)
(0.0534335 0 0.000928006)
(0.0551058 0 0.00102374)
(0.0568793 0 0.0011177)
(0.0587889 0 0.00120663)
(0.0608667 0 0.0012866)
(0.0631411 0 0.00135293)
(0.0656347 0 0.00140009)
(0.0683616 0 0.00142196)
(0.0713229 0 0.00141201)
(0.074499 0 0.00136354)
(0.0778258 0 0.00126988)
(0.0811707 0 0.00111611)
(0.0842863 0 0.000837201)
(0.0915816 0 0.0020827)
(0 0 0)
(0.0059224 0 0)
(0.0112747 0 0)
(0.0159184 0 0)
(0.0199051 0 0)
(0.0232843 0 0)
(0.0261012 0 0)
(0.0283967 0 0)
(0.0302074 0 0)
(0.0315659 0 0)
(0.0325009 0 0)
(0.0330378 0 0)
(0.033199 0 0)
(0.0330043 0 0)
(0.0324717 0 0)
(0.0316181 0 0)
(0.0304595 0 0)
(0.0290127 0 0)
(0.0272959 0 0)
(0.0253298 0 0)
(0.0231394 0 0)
(0.0207551 0 0)
(0.0182148 0 0)
(0.0155659 0 0)
(0.0128666 0 0)
(0.0101887 0 0)
(0.0076214 0 0)
(0.0052767 0 0)
(0.00330323 0 0)
(0.00192714 0 0)
(0 0 0)
(0 0 0)
(0.00592588 0 3.74122e-06)
(0.011282 0 7.44151e-06)
(0.0159296 0 1.1266e-05)
(0.0199204 0 1.54456e-05)
(0.0233041 0 2.01835e-05)
(0.026126 0 2.56713e-05)
(0.0284273 0 3.21002e-05)
(0.0302446 0 3.96703e-05)
(0.0316107 0 4.85969e-05)
(0.0325545 0 5.91157e-05)
(0.0331015 0 7.1487e-05)
(0.0332743 0 8.59983e-05)
(0.033093 0 0.000102966)
(0.0325758 0 0.000122738)
(0.0317396 0 0.000145686)
(0.0306009 0 0.000172208)
(0.0291765 0 0.000202717)
(0.0274847 0 0.000237634)
(0.0255464 0 0.000277373)
(0.0233867 0 0.000322331)
(0.0210359 0 0.000372887)
(0.0185321 0 0.000429385)
(0.0159225 0 0.00049215)
(0.0132661 0 0.000561512)
(0.0106354 0 0.000637824)
(0.00812105 0 0.0007214)
(0.00583785 0 0.000812094)
(0.00393755 0 0.000907584)
(0.00264314 0 0.000997142)
(0.00111991 0 0.00116597)
(0 0 0)
(0.00593724 0 7.41436e-06)
(0.0113045 0 1.47475e-05)
(0.0159636 0 2.23262e-05)
(0.0199667 0 3.06071e-05)
(0.0233637 0 3.99922e-05)
(0.0262007 0 5.08593e-05)
(0.0285191 0 6.35858e-05)
(0.030356 0 7.85655e-05)
(0.0317447 0 9.62221e-05)
(0.0327145 0 0.000117019)
(0.0332915 0 0.000141465)
(0.0334988 0 0.000170127)
(0.0333573 0 0.000203622)
(0.0328857 0 0.000242629)
(0.0321015 0 0.000287877)
(0.0310218 0 0.000340139)
(0.029664 0 0.000400218)
(0.0280467 0 0.000468923)
(0.0261913 0 0.000547039)
(0.0241228 0 0.000635301)
(0.0218717 0 0.000734364)
(0.0194759 0 0.000844765)
(0.0169829 0 0.00096688)
(0.0144523 0 0.0011009)
(0.0119582 0 0.00124675)
(0.00959403 0 0.00140371)
(0.00747811 0 0.00156943)
(0.00576381 0 0.00173673)
(0.00465844 0 0.00188438)
(0.00338037 0 0.00210407)
(0 0 0)
(0.00595609 0 1.09532e-05)
(0.011342 0 2.17861e-05)
(0.01602 0 3.29796e-05)
(0.0200432 0 4.52068e-05)
(0.0234624 0 5.90585e-05)
(0.0263242 0 7.50893e-05)
(0.0286707 0 9.38521e-05)
(0.0305399 0 0.000115922)
(0.0319656 0 0.000141917)
(0.0329781 0 0.000172511)
(0.0336044 0 0.000208445)
(0.0338686 0 0.000250536)
(0.0337924 0 0.000299681)
(0.0333956 0 0.000356855)
(0.0326969 0 0.000423111)
(0.0317143 0 0.000499555)
(0.0304659 0 0.000587332)
(0.0289713 0 0.000687578)
(0.0272521 0 0.000801376)
(0.0253336 0 0.000929687)
(0.023246 0 0.00107328)
(0.0210268 0 0.00123262)
(0.0187232 0 0.00140775)
(0.0163946 0 0.00159803)
(0.0141153 0 0.00180187)
(0.0119787 0 0.00201599)
(0.0101024 0 0.00223383)
(0.00863227 0 0.00244209)
(0.00774898 0 0.00261293)
(0.00673007 0 0.00282587)
(0 0 0)
(0.00598218 0 1.42936e-05)
(0.0113938 0 2.84288e-05)
(0.016098 0 4.30311e-05)
(0.020149 0 5.89748e-05)
(0.0235987 0 7.70259e-05)
(0.0264946 0 9.79017e-05)
(0.0288799 0 0.000122314)
(0.0307933 0 0.000151003)
(0.03227 0 0.000184758)
(0.0333412 0 0.000224439)
(0.0340352 0 0.000270991)
(0.0343772 0 0.000325449)
(0.0343905 0 0.000388947)
(0.0340964 0 0.000462716)
(0.0335147 0 0.000548074)
(0.0326649 0 0.000646406)
(0.0315665 0 0.000759129)
(0.0302399 0 0.000887628)
(0.0287074 0 0.00103319)
(0.0269945 0 0.00119686)
(0.0251307 0 0.00137935)
(0.023152 0 0.00158082)
(0.0211044 0 0.00180057)
(0.019045 0 0.00203663)
(0.0170454 0 0.00228517)
(0.0151945 0 0.00253946)
(0.0136023 0 0.00278829)
(0.0124008 0 0.00301329)
(0.0117435 0 0.00318492)
(0.0109358 0 0.00336691)
(0 0 0)
(0.00601515 0 1.73742e-05)
(0.0114593 0 3.45539e-05)
(0.0161965 0 5.22953e-05)
(0.0202825 0 7.16553e-05)
(0.0237706 0 9.35575e-05)
(0.0267095 0 0.000118863)
(0.0291434 0 0.000148422)
(0.0311126 0 0.000183115)
(0.0326531 0 0.00022388)
(0.0337978 0 0.00027173)
(0.0345763 0 0.000327774)
(0.0350156 0 0.000393224)
(0.0351407 0 0.000469402)
(0.0349745 0 0.000557733)
(0.0345388 0 0.000659737)
(0.0338547 0 0.000777002)
(0.0329434 0 0.000911136)
(0.0318264 0 0.00106368)
(0.030527 0 0.00123602)
(0.029071 0 0.0014292)
(0.0274864 0 0.00164368)
(0.0258065 0 0.00187915)
(0.0240744 0 0.00213407)
(0.022343 0 0.00240493)
(0.0206768 0 0.00268551)
(0.0191555 0 0.00296584)
(0.0178753 0 0.00323091)
(0.0169497 0 0.00345938)
(0.0165088 0 0.00362312)
(0.0158561 0 0.00377562)
(0 0 0)
(0.00605456 0 2.01386e-05)
(0.0115375 0 4.00488e-05)
(0.0163142 0 6.06015e-05)
(0.020442 0 8.30139e-05)
(0.0239758 0 0.000108345)
(0.0269658 0 0.000137577)
(0.0294575 0 0.000171677)
(0.0314926 0 0.000211637)
(0.0331086 0 0.000258508)
(0.0343401 0 0.000313423)
(0.0352184 0 0.000377611)
(0.0357723 0 0.000452412)
(0.0360289 0 0.000539271)
(0.0360132 0 0.000639741)
(0.0357491 0 0.000755465)
(0.0352596 0 0.000888153)
(0.034568 0 0.00103951)
(0.0336974 0 0.00121114)
(0.0326719 0 0.00140444)
(0.0315186 0 0.00162035)
(0.0302635 0 0.00185899)
(0.0289341 0 0.00211953)
(0.0275701 0 0.00239973)
(0.0262183 0 0.00269478)
(0.0249323 0 0.0029965)
(0.0237779 0 0.00329257)
(0.0228329 0 0.00356566)
(0.0221896 0 0.00379344)
(0.0219597 0 0.00394985)
(0.0214248 0 0.00408898)
(0 0 0)
(0.00609989 0 2.25362e-05)
(0.0116275 0 4.48132e-05)
(0.0164494 0 6.77981e-05)
(0.0206251 0 9.28426e-05)
(0.0242113 0 0.000121117)
(0.0272596 0 0.0001537)
(0.0298173 0 0.000191645)
(0.0319275 0 0.000236027)
(0.0336294 0 0.000287977)
(0.0349592 0 0.000348702)
(0.0359504 0 0.000419507)
(0.0366338 0 0.000501798)
(0.0370386 0 0.000597083)
(0.0371924 0 0.000706964)
(0.0371213 0 0.000833118)
(0.0368505 0 0.000977284)
(0.0364061 0 0.00114118)
(0.0358126 0 0.00132634)
(0.0350943 0 0.00153413)
(0.0342797 0 0.00176528)
(0.0333948 0 0.00201947)
(0.032464 0 0.00229568)
(0.0315183 0 0.00259129)
(0.0305927 0 0.00290051)
(0.0297297 0 0.00321404)
(0.0289801 0 0.0035184)
(0.028399 0 0.0037953)
(0.0280551 0 0.00402253)
(0.0280444 0 0.00417528)
(0.0276302 0 0.00431908)
(0 0 0)
(0.00615052 0 2.45237e-05)
(0.0117279 0 4.87607e-05)
(0.0166002 0 7.37552e-05)
(0.0208294 0 0.000100965)
(0.0244738 0 0.000131643)
(0.0275869 0 0.00016694)
(0.0302175 0 0.000207966)
(0.0324106 0 0.000255845)
(0.034207 0 0.000311748)
(0.0356449 0 0.000376916)
(0.0367597 0 0.000452675)
(0.0375845 0 0.000540442)
(0.038151 0 0.000641719)
(0.0384894 0 0.000758074)
(0.0386284 0 0.000891117)
(0.0385944 0 0.00104253)
(0.0384157 0 0.00121388)
(0.0381201 0 0.00140654)
(0.0377337 0 0.00162176)
(0.0372836 0 0.00186008)
(0.0367987 0 0.00212104)
(0.0363057 0 0.00240351)
(0.0358237 0 0.00270443)
(0.0353724 0 0.00301782)
(0.0349786 0 0.00333453)
(0.0346764 0 0.00364075)
(0.034499 0 0.00391801)
(0.0344869 0 0.00414442)
(0.0347179 0 0.00429495)
(0.0344551 0 0.00445359)
(0 0 0)
(0.00620576 0 2.60649e-05)
(0.0118374 0 5.18205e-05)
(0.0167648 0 7.83669e-05)
(0.0210519 0 0.000107237)
(0.0247595 0 0.000139742)
(0.0279427 0 0.00017707)
(0.0306522 0 0.000220361)
(0.0329345 0 0.000270753)
(0.0348325 0 0.00032942)
(0.036386 0 0.00039759)
(0.0376325 0 0.000476558)
(0.0386076 0 0.000567697)
(0.0393454 0 0.000672437)
(0.0398791 0 0.000792228)
(0.0402383 0 0.000928463)
(0.0404512 0 0.0010826)
(0.0405482 0 0.00125607)
(0.0405619 0 0.00145006)
(0.0405227 0 0.00166556)
(0.0404573 0 0.00190296)
(0.0403951 0 0.00216182)
(0.0403624 0 0.00244081)
(0.0403741 0 0.00273667)
(0.0404409 0 0.00304396)
(0.0405673 0 0.00335458)
(0.040765 0 0.00365539)
(0.0410443 0 0.00392794)
(0.0414112 0 0.00414998)
(0.041916 0 0.00429491)
(0.0418544 0 0.00446592)
(0 0 0)
(0.00626485 0 2.71322e-05)
(0.0119546 0 5.39384e-05)
(0.0169406 0 8.1553e-05)
(0.0212897 0 0.000111553)
(0.0250645 0 0.000145278)
(0.0283221 0 0.000183927)
(0.031115 0 0.000228638)
(0.0334914 0 0.000280529)
(0.035496 0 0.000340738)
(0.0371705 0 0.000410436)
(0.0385543 0 0.000490841)
(0.0396852 0 0.00058322)
(0.0405998 0 0.000688883)
(0.0413334 0 0.000809011)
(0.0419155 0 0.00094466)
(0.0423782 0 0.00109707)
(0.0427572 0 0.0012675)
(0.043087 0 0.00145687)
(0.0434012 0 0.00166576)
(0.0437292 0 0.00189427)
(0.0441002 0 0.00214188)
(0.0445383 0 0.00240717)
(0.045059 0 0.0026873)
(0.0456691 0 0.00297763)
(0.0463593 0 0.00327153)
(0.0471155 0 0.00355774)
(0.0479141 0 0.00381829)
(0.04872 0 0.00402959)
(0.0495367 0 0.00416225)
(0.049733 0 0.0043261)
(0 0 0)
(0.00632699 0 2.77063e-05)
(0.0120778 0 5.50771e-05)
(0.0171254 0 8.32602e-05)
(0.0215394 0 0.000113845)
(0.0253844 0 0.00014817)
(0.0287197 0 0.000187417)
(0.0315992 0 0.000232692)
(0.034073 0 0.000285063)
(0.0361874 0 0.000345593)
(0.0379859 0 0.000415358)
(0.0395098 0 0.000495448)
(0.0407987 0 0.000586973)
(0.0418913 0 0.000691051)
(0.0428236 0 0.000808502)
(0.0436275 0 0.000940023)
(0.0443398 0 0.00108665)
(0.045 0 0.00124928)
(0.0456438 0 0.00142834)
(0.0463066 0 0.00162395)
(0.0470212 0 0.00183584)
(0.0478182 0 0.00206322)
(0.0487234 0 0.00230467)
(0.0497536 0 0.0025578)
(0.0509142 0 0.00281912)
(0.0521939 0 0.00308397)
(0.0535551 0 0.00334428)
(0.0549363 0 0.00358412)
(0.0562529 0 0.00377887)
(0.0574296 0 0.00389504)
(0.0579377 0 0.00403571)
(0 0 0)
(0.00639134 0 2.77767e-05)
(0.0122053 0 5.52173e-05)
(0.0173167 0 8.34622e-05)
(0.0217976 0 0.000114083)
(0.0257149 0 0.000148386)
(0.0291298 0 0.000187513)
(0.0320978 0 0.000232508)
(0.0346707 0 0.000284359)
(0.0368962 0 0.000344025)
(0.0388196 0 0.000412447)
(0.0404837 0 0.000490547)
(0.0419296 0 0.000579225)
(0.0431976 0 0.000679341)
(0.0443244 0 0.000791371)
(0.0453452 0 0.000915633)
(0.0463006 0 0.00105278)
(0.0472314 0 0.00120322)
(0.0481752 0 0.00136683)
(0.0491692 0 0.00154317)
(0.0502491 0 0.00173139)
(0.0514479 0 0.00193027)
(0.0527942 0 0.00213815)
(0.0543088 0 0.0023529)
(0.0560007 0 0.00257214)
(0.057862 0 0.00279341)
(0.0598438 0 0.00301329)
(0.0618604 0 0.00322176)
(0.0637715 0 0.00339722)
(0.0653847 0 0.00350145)
(0.0663143 0 0.00362227)
(0 0 0)
(0.006457 0 2.73413e-05)
(0.0123354 0 5.43566e-05)
(0.0175117 0 8.21603e-05)
(0.0220607 0 0.000112273)
(0.0260514 0 0.000145946)
(0.0295467 0 0.000184255)
(0.0326038 0 0.000228157)
(0.0352759 0 0.000278535)
(0.0376121 0 0.000336215)
(0.039659 0 0.000401974)
(0.0414607 0 0.000476534)
(0.0430597 0 0.000560547)
(0.0444973 0 0.000654579)
(0.0458108 0 0.000758772)
(0.0470381 0 0.000873031)
(0.0482224 0 0.000997507)
(0.0494053 0 0.00113205)
(0.0506256 0 0.00127592)
(0.0519216 0 0.00142798)
(0.0533307 0 0.00158667)
(0.0548879 0 0.00175006)
(0.0566246 0 0.00191584)
(0.0585657 0 0.00208158)
(0.0607265 0 0.00224523)
(0.0631056 0 0.00240602)
(0.0656666 0 0.00256536)
(0.068324 0 0.00272397)
(0.0708985 0 0.0028748)
(0.0730693 0 0.00298201)
(0.074747 0 0.00312829)
(0 0 0)
(0.00652308 0 2.64063e-05)
(0.0124663 0 5.25101e-05)
(0.0177079 0 7.93823e-05)
(0.0223252 0 0.000108462)
(0.0263893 0 0.000140922)
(0.0299647 0 0.000177748)
(0.0331102 0 0.000219792)
(0.0358801 0 0.000267811)
(0.0383247 0 0.000322478)
(0.0404918 0 0.000384381)
(0.0424263 0 0.000454018)
(0.0441716 0 0.000531773)
(0.0457695 0 0.000617895)
(0.0472577 0 0.000712232)
(0.048676 0 0.000814254)
(0.0500696 0 0.000923518)
(0.0514794 0 0.0010393)
(0.0529441 0 0.0011602)
(0.0545022 0 0.00128436)
(0.0561907 0 0.00140936)
(0.058045 0 0.00153231)
(0.0600968 0 0.00164984)
(0.0623728 0 0.00175828)
(0.0648917 0 0.00185437)
(0.0676586 0 0.00193646)
(0.070657 0 0.00200705)
(0.0738212 0 0.00207674)
(0.0769882 0 0.00216734)
(0.0798037 0 0.00228328)
(0.083165 0 0.00260681)
(0 0 0)
(0.0065893 0 2.49947e-05)
(0.0125972 0 4.96973e-05)
(0.017904 0 7.51421e-05)
(0.0225895 0 0.000102679)
(0.0267266 0 0.000133363)
(0.0303814 0 0.000168073)
(0.0336138 0 0.00020754)
(0.0364793 0 0.000252375)
(0.0390293 0 0.000303084)
(0.041312 0 0.000360056)
(0.0433732 0 0.000423549)
(0.0452565 0 0.000493662)
(0.0470037 0 0.000570307)
(0.0486528 0 0.00065306)
(0.0502453 0 0.000741006)
(0.0518259 0 0.000833095)
(0.0534335 0 0.000928006)
(0.0551058 0 0.00102374)
(0.0568793 0 0.0011177)
(0.0587889 0 0.00120663)
(0.0608667 0 0.0012866)
(0.0631411 0 0.00135293)
(0.0656347 0 0.00140009)
(0.0683616 0 0.00142196)
(0.0713229 0 0.00141201)
(0.074499 0 0.00136354)
(0.0778258 0 0.00126988)
(0.0811707 0 0.00111611)
(0.0842863 0 0.000837201)
(0.0915816 0 0.0020827)
(0 0 0)
(0.00206507 0 0)
(0.00374443 0 0)
(0.00623325 0 0)
(0.00928477 0 0)
(0.0126881 0 0)
(0.0162611 0 0)
(0.0198494 0 0)
(0.0233275 0 0)
(0.0265984 0 0)
(0.0295916 0 0)
(0.0322578 0 0)
(0.0345642 0 0)
(0.0364902 0 0)
(0.0380235 0 0)
(0.0391564 0 0)
(0.0398834 0 0)
(0.0401989 0 0)
(0.0400963 0 0)
(0.0395669 0 0)
(0.0385989 0 0)
(0.0371774 0 0)
(0.0352841 0 0)
(0.0328971 0 0)
(0.0299907 0 0)
(0.026536 0 0)
(0.0225008 0 0)
(0.01785 0 0)
(0.0125464 0 0)
(0.00654971 0 0)
(0 0 0)
(0.00101704 0 -0.00106102)
(0.00276934 0 -0.000953108)
(0.00440682 0 -0.000925316)
(0.00684859 0 -0.000893158)
(0.00985384 0 -0.000862622)
(0.0132114 0 -0.000832773)
(0.0167383 0 -0.000801658)
(0.02028 0 -0.000767994)
(0.0237118 0 -0.000731427)
(0.0269377 0 -0.000692313)
(0.029888 0 -0.000651414)
(0.0325144 0 -0.000609623)
(0.0347845 0 -0.000567777)
(0.0366781 0 -0.000526581)
(0.0381828 0 -0.000486569)
(0.0392908 0 -0.000448101)
(0.0399963 0 -0.000411377)
(0.0402935 0 -0.000376472)
(0.0401753 0 -0.000343356)
(0.0396326 0 -0.000311926)
(0.0386534 0 -0.000282017)
(0.0372225 0 -0.000253417)
(0.0353212 0 -0.000225877)
(0.0329273 0 -0.000199106)
(0.0300152 0 -0.000172782)
(0.0265555 0 -0.000146536)
(0.0225159 0 -0.000119951)
(0.0178612 0 -9.25456e-05)
(0.0125538 0 -6.37512e-05)
(0.00655341 0 -3.28808e-05)
(0 0 0)
(0.00322957 0 -0.00194251)
(0.00476951 0 -0.00183259)
(0.00632082 0 -0.00179763)
(0.00864817 0 -0.00175095)
(0.01153 0 -0.00170146)
(0.0147588 0 -0.00164862)
(0.0181523 0 -0.0015902)
(0.0215576 0 -0.00152495)
(0.0248528 0 -0.00145299)
(0.0279452 0 -0.00137553)
(0.0307683 0 -0.00129436)
(0.0332764 0 -0.0012114)
(0.035439 0 -0.00112834)
(0.0372364 0 -0.0010466)
(0.0386563 0 -0.000967238)
(0.0396907 0 -0.000890948)
(0.0403326 0 -0.000818115)
(0.0405753 0 -0.000748876)
(0.0404108 0 -0.000683166)
(0.0398287 0 -0.000620777)
(0.0388162 0 -0.000561382)
(0.0373572 0 -0.00050456)
(0.0354321 0 -0.000449815)
(0.033018 0 -0.000396575)
(0.0300887 0 -0.000344197)
(0.0266141 0 -0.000291954)
(0.0225615 0 -0.000239016)
(0.0178949 0 -0.000184425)
(0.0125764 0 -0.000127053)
(0.0065649 0 -6.55329e-05)
(0 0 0)
(0.00651315 0 -0.00268936)
(0.00785732 0 -0.00261876)
(0.00932781 0 -0.0025982)
(0.0115168 0 -0.00255745)
(0.0142278 0 -0.00250348)
(0.0172637 0 -0.00243657)
(0.0204487 0 -0.00235591)
(0.0236359 0 -0.00226184)
(0.0267102 0 -0.0021561)
(0.0295857 0 -0.00204144)
(0.0322021 0 -0.00192105)
(0.0345181 0 -0.00179801)
(0.0365057 0 -0.00167493)
(0.0381468 0 -0.0015539)
(0.0394291 0 -0.00143646)
(0.0403437 0 -0.0013236)
(0.0408823 0 -0.00121585)
(0.0410365 0 -0.00111338)
(0.0407965 0 -0.00101609)
(0.0401504 0 -0.000923654)
(0.0390835 0 -0.000835592)
(0.0375785 0 -0.00075128)
(0.0356145 0 -0.000669983)
(0.0331673 0 -0.000590858)
(0.0302097 0 -0.000512955)
(0.0267107 0 -0.000435196)
(0.0226365 0 -0.000356353)
(0.0179505 0 -0.000275004)
(0.0126136 0 -0.000189477)
(0.00658382 0 -9.77383e-05)
(0 0 0)
(0.0106458 0 -0.00335527)
(0.0118585 0 -0.00333626)
(0.0132702 0 -0.00334058)
(0.0153227 0 -0.00331744)
(0.0178383 0 -0.00326803)
(0.0206344 0 -0.00319274)
(0.023548 0 -0.00309305)
(0.0264449 0 -0.00297192)
(0.0292219 0 -0.00283353)
(0.0318046 0 -0.00268273)
(0.0341415 0 -0.00252436)
(0.0361978 0 -0.00236272)
(0.0379494 0 -0.0022013)
(0.0393797 0 -0.00204278)
(0.0404766 0 -0.0018891)
(0.0412297 0 -0.00174147)
(0.0416289 0 -0.00160053)
(0.0416636 0 -0.00146643)
(0.0413216 0 -0.00133902)
(0.0405886 0 -0.00121786)
(0.0394482 0 -0.00110232)
(0.0378807 0 -0.000991572)
(0.0358637 0 -0.000884668)
(0.0333716 0 -0.000780505)
(0.0303753 0 -0.00067784)
(0.0268429 0 -0.000575265)
(0.0227393 0 -0.00047117)
(0.0180266 0 -0.000363687)
(0.0126646 0 -0.000250619)
(0.00660974 0 -0.000129291)
(0 0 0)
(0.0154942 0 -0.00399485)
(0.0166394 0 -0.00402234)
(0.0180187 0 -0.00405143)
(0.0199444 0 -0.0040463)
(0.022249 0 -0.00400162)
(0.0247668 0 -0.00391767)
(0.0273544 0 -0.00379843)
(0.0298966 0 -0.00364989)
(0.0323079 0 -0.00347895)
(0.0345298 0 -0.0032927)
(0.0365233 0 -0.00309767)
(0.0382612 0 -0.00289928)
(0.0397237 0 -0.00270165)
(0.0408962 0 -0.00250794)
(0.0417665 0 -0.00232041)
(0.0423222 0 -0.00214036)
(0.042551 0 -0.00196844)
(0.0424392 0 -0.00180477)
(0.0419719 0 -0.00164911)
(0.0411323 0 -0.00150092)
(0.0399011 0 -0.0013594)
(0.0382566 0 -0.00122358)
(0.0361741 0 -0.00109228)
(0.033626 0 -0.000964167)
(0.0305819 0 -0.000837723)
(0.0270079 0 -0.000711231)
(0.0228677 0 -0.000582723)
(0.0181217 0 -0.000449913)
(0.0127283 0 -0.000310099)
(0.00664209 0 -0.000159996)
(0 0 0)
(0.0209896 0 -0.00465423)
(0.0221143 0 -0.00471033)
(0.0234783 0 -0.00475577)
(0.0252784 0 -0.00475937)
(0.0273507 0 -0.00471126)
(0.0295499 0 -0.00461222)
(0.0317599 0 -0.00446908)
(0.0338886 0 -0.00429065)
(0.0358727 0 -0.00408618)
(0.0376753 0 -0.00386491)
(0.0392713 0 -0.00363471)
(0.0406425 0 -0.00340183)
(0.0417726 0 -0.00317062)
(0.0426493 0 -0.00294456)
(0.04326 0 -0.0027261)
(0.0435895 0 -0.00251646)
(0.0436226 0 -0.00231624)
(0.0433424 0 -0.00212546)
(0.0427306 0 -0.00194378)
(0.0417677 0 -0.00177057)