/*--------------------------------*- C++ -*----------------------------------*\
| =========                 |                                                 |
| \\      /  F ield         | OpenFOAM: The Open Source CFD Toolbox           |
|  \\    /   O peration     | Version:  dev                                   |
|   \\  /    A nd           | Web:      www.OpenFOAM.org                      |
|    \\/     M anipulation  |                                                 |
\*---------------------------------------------------------------------------*/
FoamFile
{
    version     2.0;
    format      ascii;
    class       volScalarField;
    location    "0.18";
    object      p;
}
// * * * * * * * * * * * * * * * * * * * * * * * * * * * * * * * * * * * * * //

dimensions      [0 2 -2 0 0 0 0];

internalField   nonuniform List<scalar> 
2790
(
75.3693
75.2523
75.4747
76.0213
76.788
77.7276
78.8356
80.1132
81.5573
83.1616
84.9195
86.8235
88.8644
91.0313
93.3106
95.6864
98.1394
100.647
103.182
105.714
108.207
110.622
112.913
115.037
116.948
118.606
119.976
121.034
121.77
122.197
75.1786
75.1602
75.4068
75.9516
76.7151
77.6518
78.7555
80.0276
81.465
83.062
84.8121
86.708
88.7409
90.8999
93.172
95.5415
97.9897
100.494
103.029
105.565
108.065
110.491
112.799
114.945
116.883
118.571
119.974
121.065
121.831
122.322
74.9827
75.0347
75.3005
75.8359
76.5868
77.5111
78.6005
79.8556
81.2734
82.8487
84.5752
86.4456
88.4516
90.5827
92.8262
95.1671
97.5874
100.066
102.578
105.096
107.585
110.008
112.325
114.49
116.461
118.193
119.648
120.797
121.616
122.157
74.7633
74.8476
75.1255
75.6518
76.3882
77.2964
78.3669
79.5992
80.9905
82.5355
84.2281
86.0613
88.0267
90.1143
92.3121
94.6056
96.978
99.4096
101.878
104.355
106.812
109.214
111.522
113.695
115.688
117.458
118.963
120.168
121.037
121.657
74.5103
74.6091
74.8948
75.4134
76.1335
77.0212
78.0669
79.2693
80.6256
82.1306
83.7781
85.5613
87.472
89.5005
91.635
93.8622
96.1664
98.5294
100.931
103.346
105.748
108.106
110.384
112.544
114.543
116.338
117.883
119.139
120.057
120.756
74.2191
74.3236
74.6114
75.1199
75.8202
76.6824
77.6972
78.863
80.1767
81.6328
83.2253
84.9471
86.7901
88.7446
90.7996
92.9422
95.1579
97.4303
99.7407
102.068
104.388
106.674
108.895
111.014
112.994
114.792
116.359
117.653
118.606
119.362
73.8881
73.9932
74.2777
74.773
75.4506
76.2829
77.2616
78.3846
79.6483
81.0471
82.5747
84.2238
85.9862
87.8524
89.8113
91.8509
93.9575
96.1161
98.3102
100.521
102.729
104.909
107.036
109.079
111.003
112.77
114.331
115.643
116.619
117.431
73.5166
73.6194
73.8963
74.3751
75.0269
75.8253
76.7628
77.8369
79.0436
80.3769
81.8303
83.396
85.0655
86.8291
88.6759
90.594
92.5703
94.5911
96.6411
98.7042
100.763
102.797
104.786
106.704
108.524
110.211
111.724
113.023
114.015
114.929
73.1054
73.2038
73.4697
73.9287
74.5514
75.3122
76.2036
77.2232
78.3664
79.6267
80.9969
82.469
84.0339
85.6815
87.4004
89.1787
91.0035
92.8613
94.7378
96.6182
98.4869
100.327
102.122
103.853
105.499
107.036
108.434
109.663
110.621
111.571
72.6554
72.7479
73.0001
73.4365
74.0271
74.7465
75.5877
76.5476
77.6211
78.8014
80.0805
81.4496
82.8989
84.4175
85.9936
87.6144
89.2665
90.9359
92.6083
94.2686
95.9017
97.4924
99.0258
100.488
101.866
103.149
104.322
105.379
106.233
107.237
72.1682
72.2537
72.49
72.9011
73.4568
74.1316
74.9185
75.8141
76.8127
77.9066
79.0871
80.3447
81.6685
83.0466
84.466
85.9126
87.3718
88.828
90.2652
91.6666
93.0149
94.2931
95.4849
96.5771
97.5611
98.4366
99.2097
99.9147
100.508
101.584
71.6455
71.7232
71.9418
72.3254
72.8436
73.471
74.2002
75.0274
75.9462
76.9483
78.024
79.1626
80.3522
81.5794
82.8296
84.087
85.3348
86.5547
87.7273
88.8315
89.8449
90.7436
91.5041
92.1047
92.531
92.783
92.8796
92.8911
92.7913
93.2992
71.0895
71.1587
71.3582
71.7124
72.191
72.7684
73.4369
74.1922
75.0273
75.9329
76.8984
77.9118
78.9599
80.0275
81.0983
82.1538
83.1743
84.1377
85.0194
85.7917
86.4228
86.8767
87.1128
87.0876
86.7593
86.0987
85.1021
83.8471
82.3718
82.5124
70.5025
70.5627
70.742
71.0651
71.5022
72.0276
72.633
73.3137
74.0619
74.8674
75.7184
76.6018
77.5027
78.4042
79.2874
80.1313
80.9123
81.6034
82.1734
82.5857
82.7955
82.7481
82.3757
81.5946
80.3031
78.3855
75.7188
72.1955
66.8669
55.8925
69.8868
69.9376
70.0958
70.3867
70.7809
71.2525
71.793
72.397
73.0558
73.7584
74.492
75.242
75.9918
76.7226
77.4131
78.0389
78.5723
78.9811
79.2263
79.2606
79.0237
78.4379
77.3994
75.7673
73.3456
69.8612
64.9526
58.482
52.4586
56.1831
-102.266
-103.056
-104.366
-106.208
-108.511
-111.121
-113.771
-116.075
-117.529
-117.566
-115.636
-111.323
-104.467
-95.2467
-84.1981
-72.1184
-59.884
-48.2676
-37.8068
-28.7801
-20.826
-13.9108
-8.57051
-4.64571
-1.887
-0.070534
0.998058
1.47695
1.48296
1.1001
-102.518
-103.294
-104.637
-106.55
-108.962
-111.715
-114.539
-117.031
-118.669
-118.86
-117.031
-112.758
-105.89
-96.6101
-85.4617
-73.2507
-60.8644
-49.0897
-38.481
-29.3214
-21.2338
-14.2236
-8.83214
-4.85902
-2.05882
-0.207418
0.891005
1.3964
1.42828
1.0979
-103.293
-104.186
-105.619
-107.662
-110.249
-113.227
-116.318
-119.102
-121.027
-121.459
-119.785
-115.556
-108.607
-99.1306
-87.7059
-75.1782
-62.4711
-50.4008
-39.5404
-30.1416
-21.8226
-14.663
-9.17667
-5.13017
-2.27317
-0.376616
0.759802
1.29978
1.36601
1.09135
-104.814
-105.765
-107.31
-109.541
-112.388
-115.705
-119.203
-122.433
-124.799
-125.606
-124.179
-120.019
-112.925
-103.099
-91.1905
-78.118
-64.8715
-52.3157
-41.0505
-31.2609
-22.5989
-15.2506
-9.6336
-5.49087
-2.561
-0.606366
0.579821
1.16606
1.27821
1.06801
-107.015
-108.021
-109.704
-112.184
-115.391
-119.18
-123.244
-127.096
-130.074
-131.404
-130.321
-126.247
-118.924
-108.579
-95.9633
-82.1078
-68.096
-54.8575
-43.0209
-32.6791
-23.5612
-15.9822
-10.1987
-5.93471
-2.91437
-0.888002
0.35965
1.00304
1.17151
1.03358
-109.819
-110.909
-112.776
-115.587
-119.267
-123.678
-128.491
-133.163
-136.946
-138.959
-138.316
-134.319
-126.65
-115.584
-102.022
-87.1366
-72.1319
-58.0139
-45.4292
-34.3674
-24.7004
-16.8518
-10.8693
-6.46066
-3.33314
-1.22202
0.098307
0.80924
1.04408
0.98593
-113.127
-114.346
-116.457
-119.683
-123.956
-129.144
-134.89
-140.585
-145.369
-148.224
-148.104
-144.151
-135.988
-123.989
-109.245
-93.0981
-76.8954
-61.7195
-48.2009
-36.2573
-26.0031
-17.8482
-11.638
-7.06409
-3.81413
-1.60597
-0.202237
0.586193
0.897011
0.925276
-116.862
-118.208
-120.595
-124.305
-129.273
-135.377
-142.228
-149.138
-155.113
-158.955
-159.429
-155.463
-146.64
-133.505
-117.376
-99.7814
-82.2231
-65.8456
-51.1837
-38.2635
-27.4601
-18.9547
-12.4924
-7.73734
-4.35247
-2.03662
-0.539767
0.335308
0.731041
0.851287
-120.903
-122.257
-124.918
-129.152
-134.887
-142.011
-150.103
-158.391
-165.724
-170.679
-171.791
-167.741
-158.101
-143.665
-126.028
-106.878
-87.8682
-70.1602
-54.207
-40.352
-29.0233
-20.1424
-13.4145
-8.46909
-4.94101
-2.50923
-0.911019
0.0587807
0.547471
0.764135
-124.442
-126.039
-129.02
-133.79
-140.313
-148.505
-157.918
-167.696
-176.513
-182.665
-184.421
-180.223
-169.662
-153.848
-134.7
-114.011
-93.5188
-74.3483
-57.1293
-42.4954
-30.6275
-21.3711
-14.38
-9.24436
-5.57019
-3.01745
-1.31164
-0.24046
0.348063
0.664407
-127.579
-129.226
-132.424
-137.676
-144.948
-154.182
-164.91
-176.203
-186.555
-193.919
-196.255
-191.888
-180.464
-163.395
-142.838
-120.745
-98.7347
-78.1555
-59.9112
-44.5568
-32.1922
-22.5928
-15.3596
-10.0447
-6.22805
-3.55321
-1.73605
-0.558639
0.135119
0.553209
-130.405
-131.38
-134.609
-140.234
-148.145
-158.299
-170.211
-182.895
-194.676
-203.155
-205.965
-201.535
-189.507
-171.649
-149.883
-126.447
-103.124
-81.4093
-62.3342
-46.3975
-33.6329
-23.7555
-16.3207
-10.8491
-6.90038
-4.10664
-2.17733
-0.891005
-0.0884201
0.432209
-130.114
-131.636
-135.056
-140.986
-149.404
-160.282
-173.115
-186.894
-199.858
-209.358
-212.649
-208.199
-195.872
-177.547
-154.979
-130.539
-106.28
-83.8185
-64.2009
-47.8901
-34.8691
-24.8081
-17.23
-11.6348
-7.57138
-4.66637
-2.62727
-1.23181
-0.318875
0.30371
-131.242
-130.28
-133.484
-139.685
-148.531
-159.957
-173.422
-187.924
-201.681
-211.886
-215.432
-210.944
-198.682
-180.19
-157.356
-132.532
-107.904
-85.1599
-65.3569
-48.9317
-35.8336
-25.7061
-18.057
-12.3806
-8.22547
-5.221
-3.07761
-1.57526
-0.552537
0.170174
-126.029
-126.067
-129.854
-136.379
-145.663
-157.527
-171.342
-186.088
-199.961
-210.179
-213.708
-209.356
-197.494
-179.375
-156.848
-132.255
-107.836
-85.3049
-65.7066
-49.4542
-36.478
-26.4148
-18.7764
-13.0675
-8.84873
-5.76045
-3.52137
-1.91688
-0.78703
0.0329386
69.2327
69.2738
69.4099
69.6669
70.0164
70.4322
70.9052
71.4296
71.9959
72.5922
73.2045
73.8168
74.4109
74.9658
75.4577
75.859
76.1377
76.2556
76.1661
75.8107
75.1128
73.9701
72.2403
69.7188
66.0977
60.8913
53.248
41.271
18.6987
-45.7767
68.5327
68.5636
68.6765
68.8981
69.2007
69.5582
69.9611
70.4027
70.8731
71.3592
71.8461
72.3164
72.7502
73.1246
73.413
73.5849
73.6042
73.4272
73.0002
72.2544
71.0994
69.4122
67.0197
63.6678
58.9629
52.2494
42.3262
26.8681
3.11579
-33.7587
67.7922
67.8127
67.9015
68.0864
68.3407
68.6382
68.9689
69.3258
69.698
70.0717
70.431
70.7571
71.0288
71.2213
71.3058
71.249
71.0113
70.5449
69.7905
68.6723
67.0912
64.9136
61.9545
57.9504
52.5164
45.0863
34.8725
20.8889
3.24848
-17.9773
67.0127
67.0224
67.0867
67.2341
67.4389
67.6752
67.9326
68.2034
68.4763
68.7367
68.9677
69.1497
69.26
69.2723
69.1563
68.8766
68.3912
67.6497
66.5898
65.1332
63.179
60.5955
57.2077
52.7831
47.0167
39.5282
29.9026
17.6828
2.65889
-15.7225
66.196
66.1949
66.2342
66.3435
66.4982
66.6728
66.8563
67.0407
67.2142
67.3617
67.4655
67.5052
67.4573
67.2945
66.9854
66.4934
65.7758
64.7812
63.4476
61.6984
59.4379
56.5455
52.87
48.2238
42.3807
35.0799
26.0421
14.933
1.42646
-14.3697
65.3443
65.3324
65.3467
65.4177
65.5222
65.6349
65.7448
65.8433
65.9184
65.9547
65.9339
65.8353
65.6347
65.3047
64.8134
64.1243
63.1949
61.9755
60.4066
58.4172
55.9211
52.8146
48.9738
44.2533
38.4879
31.4962
23.0941
13.105
1.40656
-11.5942
64.4604
64.4378
64.4272
64.4601
64.5147
64.5661
64.6032
64.6174
64.5963
64.5243
64.3832
64.152
63.8067
63.32
62.6605
61.7928
60.6763
59.264
57.5017
55.3262
52.6636
49.4288
45.5249
40.8444
35.2733
28.698
21.0203
12.1779
2.14941
-8.72063
63.5475
63.5145
63.4794
63.4747
63.4802
63.4715
63.4375
63.3696
63.2554
63.0796
62.8239
62.4677
61.9876
61.3569
60.5457
59.5206
58.2437
56.6726
54.7596
52.4505
49.6851
46.3964
42.5125
37.9592
32.6639
26.5637
19.6157
11.8095
3.15843
-6.06128
62.6092
62.5662
62.5073
62.4659
62.4235
62.3565
62.2538
62.107
61.904
61.6298
61.2666
60.7945
60.1909
59.4308
58.4862
57.3262
55.9169
54.2213
52.1985
49.8045
46.9919
43.7108
39.9111
35.5448
30.5705
24.9588
18.6992
11.8076
4.31916
-3.5364
61.6497
61.597
61.5152
61.4384
61.3499
61.2268
61.0586
60.8369
60.5503
60.1841
59.7216
59.1438
58.4296
57.5557
56.4967
55.225
53.7112
51.9236
49.8292
47.3932
44.5801
41.3551
37.6855
33.5435
28.9096
23.7765
18.153
12.0697
5.57235
-1.15344
60.6734
60.6116
60.508
60.3974
60.2649
60.0887
59.8586
59.5668
59.2023
58.7516
58.1988
57.5264
56.7151
55.7437
54.5896
53.2291
51.6372
49.788
47.6556
45.2139
42.438
39.3052
35.7965
31.8991
27.6083
22.9305
17.8859
12.5107
6.85263
1.0585
59.6852
59.615
59.4909
59.3484
59.1744
58.9485
58.6607
58.304
57.8683
57.3411
56.7077
55.9523
55.0576
54.0049
52.7748
51.3472
49.7016
47.8178
45.6763
43.2587
40.5488
37.5335
34.2044
30.5589
26.6022
22.3486
17.8235
13.0639
8.11485
3.09225
58.6904
58.6126
58.4694
58.2971
58.0846
57.8125
57.4718
57.056
56.5561
55.9606
55.2567
54.4301
53.4658
52.3477
51.0594
49.5847
47.9073
46.0122
43.8855
41.5153
38.8924
36.0112
32.8706
29.4751
25.8357
21.971
17.9078
13.6812
9.33201
4.95135
57.6947
57.6099
57.4493
57.2497
57.0018
56.6876
56.2988
55.8299
55.273
54.6181
53.8536
52.9675
51.9468
50.7781
49.4483
47.9444
46.2543
44.3673
42.2745
39.9691
37.4475
34.7094
31.759
28.605
25.2618
21.7495
18.0944
14.3283
10.4872
6.64266
56.7039
56.613
56.4367
56.2122
55.9322
55.5801
55.1485
54.6328
54.0263
53.3203
52.5052
51.5707
50.5062
49.3008
47.9443
46.4269
44.74
42.8768
40.8323
38.604
36.1922
33.6006
30.8365
27.9113
24.8409
21.6452
18.3489
14.9803
11.5702
8.175
55.7243
55.6281
55.4378
55.1911
54.8825
54.4968
54.0275
53.4712
52.8223
52.0738
51.2175
50.2451
49.1483
47.9186
46.5483
45.0306
43.36
41.5327
39.547
37.4035
35.1054
32.6591
30.0739
27.3623
24.5403
21.6272
18.6453
15.6193
12.5754
9.55822
54.7622
54.6615
54.4591
54.1928
53.859
53.444
52.9423
52.3515
51.6673
50.884
49.9954
48.9949
47.876
46.6328
45.2598
43.7527
42.1085
40.326
38.406
36.3514
34.1674
31.8619
29.4453
26.9306
24.3331
21.6709
18.9636
16.2328
13.5006
10.8023
53.8241
53.7199
53.5071
53.2238
52.8682
52.4281
51.8991
51.2796
50.5667
49.7561
48.8432
47.8232
46.6914
45.4438
44.0772
42.5892
40.979
39.2473
37.3969
35.4321
33.3597
31.1883
28.9287
26.5936
24.1975
21.7568
19.289
16.8124
14.3458
11.9173
52.9169
52.8098
52.5884
52.2907
51.9166
51.4554
50.9038
50.2611
49.5256
48.6945
47.7645
46.7324
45.5955
44.3512
42.998
41.5355
39.9645
38.2873
36.5077
34.6315
32.666
30.6202
28.505
26.3324
24.1158
21.87
19.6103
17.3525
15.1124
12.9124
52.0474
51.9381
51.7096
51.3999
51.0104
50.532
49.9621
49.3012
48.5487
47.703
46.7621
45.7245
44.5886
43.3536
42.0193
40.5868
39.0581
37.4367
35.7273
33.9364
32.0716
30.1422
28.1583
26.1314
24.0739
21.9988
19.9196
17.8498
15.8028
13.7967
51.2225
51.1117
50.8776
50.558
50.156
49.6636
49.0795
48.4049
47.6402
46.785
45.8386
44.8006
43.6708
42.4496
41.138
39.7382
38.2531
36.6872
35.0456
33.3353
31.5641
29.7408
27.8753
25.9781
24.0606
22.1344
20.2111
18.3025
16.42
14.5782
50.4493
50.3375
50.0991
49.7715
49.3595
48.8563
48.2613
47.5768
46.8041
45.9437
44.9961
43.9618
42.8418
41.6375
40.3509
38.9849
37.5433
36.031
34.4536
32.8182
31.1325
29.405
27.645
25.8624
24.0672
22.27
20.4809
18.7101
16.9674
15.2647
49.7351
49.6226
49.3809
49.047
48.627
48.1155
47.5128
46.8216
46.0442
45.182
44.2364
43.2089
42.1012
40.9155
39.6548
38.3225
36.9229
35.4612
33.9434
32.3763
30.7676
29.1255
27.4586
25.776
24.0869
22.4006
20.7262
19.0726
17.4481
15.8627
49.0871
48.9744
48.7299
48.3908
47.9646
47.447
46.8388
46.1436
45.3642
44.5029
43.5617
42.5428
41.4489
40.2826
39.0476
37.7476
36.3874
34.9724
33.5086
32.0028
30.4624
28.8951
27.3092
25.7129
24.1147
22.5229
20.9457
19.3909
17.8657
16.3783
48.5132
48.4001
48.1532
47.8096
47.3783
46.8562
46.2446
45.5472
44.7676
43.9088
42.9733
41.9642
40.8843
39.7371
38.5264
37.2565
35.9322
34.5591
33.1432
31.6911
30.21
28.7072
27.1905
25.6675
24.146
22.6336
21.1376
19.665
18.222
16.8158
48.0214
47.9075
47.6576
47.3097
46.8745
46.3493
45.7356
45.0376
44.2593
43.4041
42.4752
41.4758
40.4096
39.2801
38.0916
36.8485
35.5558
34.2191
32.8444
31.4382
30.0073
28.5587
27.0998
25.6376
24.1795
22.7324
21.3029
19.8974
18.5215
17.1813
47.6208
47.5048
47.25
46.8971
46.4579
45.93
45.3148
44.6166
43.84
42.9887
42.0662
41.0761
40.0222
38.9085
37.7393
36.5192
35.2533
33.9471
32.6066
31.238
29.848
28.4433
27.0309
25.6175
24.2099
22.8146
21.4378
20.0852
18.7619
17.4732
47.3223
47.2003
46.9384
46.5813
46.1399
45.6105
44.9943
44.2964
43.5215
42.6736
41.7566
40.7742
39.7304
38.6295
37.4758
36.2741
35.0294
33.7472
32.4333
31.094
29.7356
28.3646
26.9877
25.6114
24.2421
22.8859
21.5486
20.2357
18.9521
17.7022
47.1426
46.9948
46.7165
46.3548
45.9126
45.3825
44.7662
44.0692
43.2964
42.452
41.5397
40.5635
39.5276
38.4363
37.2939
36.1054
34.8757
33.6103
32.3149
30.9957
29.6588
28.3108
26.9579
25.6065
24.2629
22.9329
21.6221
20.3356
19.0781
17.8537
47.123
46.9234
46.6203
46.2516
45.8062
45.2735
44.6553
43.9575
43.1852
42.3422
41.4325
40.4602
39.4292
38.344
37.2089
36.0288
34.8084
33.5533
32.269
30.9614
29.6368
28.3014
26.9616
25.6234
24.2932
22.9765
21.679
20.4057
19.161
17.9489
-167.087
-174.456
-147.295
-62.8326
-71.6619
-80.2168
-40.0333
-54.6207
-67.2183
-36.8792
-50.9127
-61.7949
-30.9338
-42.153
-51.4617
-24.7167
-33.8883
-41.8233
-19.5869
-27.2208
-33.837
-15.1348
-21.4767
-26.9322
-11.131
-16.4159
-20.9303
-7.55223
-11.9883
-15.7567
-4.37256
-8.12391
-11.2992
-1.54993
-4.74554
-7.44629
0.955316
-1.7872
-4.10535
3.17818
0.806938
-1.20015
5.1498
3.08433
1.33205
6.89757
5.08501
3.54283
8.44534
6.84281
5.47481
9.81394
8.3864
7.1635
11.0216
9.74019
8.63859
12.0841
10.925
9.92509
13.0152
11.9586
11.044
13.8271
12.8562
12.0131
14.5297
13.6303
12.8472
15.1325
14.2922
13.5589
15.6412
14.8495
14.1572
16.0645
15.3119
14.6525
16.4011
15.6791
15.0458
16.6641
15.9645
15.3499
16.8372
16.153
15.5519
16.9474
16.2732
15.6783
-116.94
-120.906
-125.029
-131.647
-141.35
-153.483
-167.273
-181.695
-195.005
-204.698
-208.094
-203.983
-192.686
-175.266
-153.502
-129.688
-106.032
-84.2053
-65.2082
-49.4242
-36.7766
-26.9143
-19.3732
-13.6845
-9.43345
-6.27962
-3.95533
-2.2547
-1.02111
-0.106981
-96.6379
-109.776
-117.507
-126.022
-136.505
-148.636
-161.909
-175.434
-187.659
-196.498
-199.559
-195.517
-184.649
-168.016
-147.344
-124.799
-102.437
-81.8014
-63.8048
-48.7904
-36.6843
-27.1666
-19.816
-14.2067
-9.9605
-6.7642
-4.36911
-2.58139
-1.25006
-0.245856
-86.0607
-102.206
-111.699
-120.919
-131.639
-143.513
-155.979
-168.26
-179.063
-186.672
-188.923
-184.427
-173.698
-157.896
-138.626
-117.803
-97.2175
-78.2083
-61.5635
-47.5822
-36.2052
-27.1609
-20.0873
-14.6153
-10.4124
-7.19969
-4.75156
-2.88912
-1.46915
-0.381029
-76.7128
-92.5437
-104.511
-115.219
-126.101
-137.387
-148.807
-159.68
-168.86
-174.667
-175.379
-170.159
-159.726
-145.113
-127.693
-109.055
-90.6684
-73.6344
-58.6126
-45.8662
-35.3645
-26.8981
-20.1764
-14.8951
-10.7742
-7.57294
-5.09221
-3.17017
-1.67327
-0.509335
-64.3707
-79.1983
-92.7908
-105.164
-116.707
-127.745
-138.234
-147.652
-155.006
-158.766
-157.963
-152.597
-143.118
-130.286
-115.202
-99.1281
-83.2252
-68.3779
-55.1361
-43.7434
-34.209
-26.3932
-20.0812
-15.0369
-11.0345
-7.87345
-5.38238
-3.41803
-1.85814
-0.628282
-52.5377
-65.4333
-78.8289
-91.5546
-103.164
-113.765
-123.306
-131.339
-137.028
-139.388
-138.046
-133.267
-125.292
-114.636
-102.135
-88.7594
-75.4056
-62.7781
-51.3409
-41.3296
-32.7965
-25.6698
-19.807
-15.037
-11.1862
-8.09331
-5.615
-3.62717
-2.01995
-0.735684
-42.4317
-53.0778
-65.0621
-76.8893
-87.6982
-97.3814
-105.83
-112.661
-117.254
-119.045
-117.944
-114.17
-107.88
-99.4325
-89.4418
-78.6274
-67.6724
-57.1358
-47.413
-38.7335
-31.1861
-24.7566
-19.3649
-14.8968
-11.2261
-8.22766
-5.78512
-3.79339
-2.15568
-0.829814
-33.8399
-42.4896
-52.6752
-63.0071
-72.5294
-81.0203
-88.3468
-94.208
-98.1783
-99.9117
-99.3677
-96.679
-91.9732
-85.5153
-77.7417
-69.1761
-60.3345
-51.6603
-43.4898
-36.0422
-29.4306
-23.6834
-18.7699
-14.6224
-11.1549
-8.27467
-5.8899
-3.91388
-2.26311
-0.909378
-26.5678
-33.6273
-42.1041
-50.8533
-58.9932
-66.2721
-72.5643
-77.6454
-81.229
-83.0737
-83.1071
-81.3897
-78.0298
-73.2271
-67.2909
-60.5994
-53.5409
-46.4659
-39.6578
-33.3193
-27.5745
-22.48
-18.0401
-14.2237
-10.9772
-8.23543
-5.92867
-3.98731
-2.3409
-0.973542
-20.4342
-26.2701
-33.3058
-40.6391
-47.5202
-53.7128
-59.1106
-63.5491
-66.8295
-68.7698
-69.2697
-68.3341
-66.0471
-62.5599
-58.0929
-52.9191
-47.3298
-41.6007
-35.967
-30.6105
-25.6559
-21.1749
-17.1958
-13.7136
-10.7003
-8.11354
-5.90273
-4.01372
-2.38859
-1.02193
-15.2368
-20.1324
-26.0126
-32.1708
-37.9908
-43.2686
-47.9185
-51.8186
-54.8238
-56.7938
-57.622
-57.277
-55.8158
-53.3504
-50.0386
-46.0776
-41.6854
-37.0773
-32.4461
-27.9502
-23.7075
-19.7961
-16.2581
-13.107
-10.3339
-7.9148
-5.81513
-3.99448
-2.40652
-1.0546
-10.8024
-14.9664
-19.9326
-25.1433
-30.0968
-34.6235
-38.656
-42.1017
-44.8495
-46.794
-47.8341
-47.9171
-47.0789
-45.399
-42.9895
-39.9929
-36.5717
-32.8928
-29.1124
-25.3651
-21.7582
-18.3695
-15.2484
-12.4201
-9.88956
-7.64675
-5.67048
-3.9321
-2.39585
-1.07203
-6.99714
-10.5825
-14.8235
-19.2744
-23.5262
-27.4401
-30.9636
-34.0252
-36.5366
-38.42
-39.5867
-39.9732
-39.5995
-38.5205
-36.8143
-34.5834
-31.9483
-29.0374
-25.9758
-22.876
-19.8327
-16.9193
-14.1877
-11.6696
-9.37967
-7.31819
-5.47457
-3.83011
-2.35839
-1.07509
-3.71629
-6.83699
-10.4974
-14.3366
-18.0196
-21.4328
-24.536
-27.2734
-29.5747
-31.3763
-32.6061
-33.2053
-33.1769
-32.5565
-31.3981
-29.7747
-27.7753
-25.4979
-23.0416
-20.4991
-17.9521
-15.4674
-13.0957
-10.8722
-8.8173
-6.93875
-5.23411
-3.69283
-2.29656
-1.06492
-0.876972
-3.61982
-6.81069
-10.1544
-13.374
-16.3766
-19.1312
-21.5943
-23.7092
-25.4227
-26.6764
-27.4199
-27.6458
-27.3746
-26.6426
-25.501
-24.0152
-22.2594
-20.3112
-18.2464
-16.1338
-14.0328
-11.991
-10.044
-8.21559
-6.51852
-4.9564
-3.52515
-2.21324
-1.04295
1.58709
-0.84525
-3.65311
-6.59248
-9.43233
-12.0963
-14.5606
-16.791
-18.7413
-20.3668
-21.6201
-22.4592
-22.8708
-22.8646
-22.4639
-21.7043
-20.633
-19.3059
-17.7833
-16.1262
-14.3919
-12.6321
-10.89
-9.20016
-7.5874
-6.06776
-4.6491
-3.33236
-2.11163
-1.01077
3.72951
1.55457
-0.93837
-3.54549
-6.07239
-8.45568
-10.6771
-12.7096
-14.5151
-16.0563
-17.2944
-18.1943
-18.7401
-18.9343
-18.7908
-18.3338
-17.5968
-16.6215
-15.4544
-14.144
-12.7377
-11.2793
-9.80762
-8.35454
-6.94499
-5.59656
-4.31999
-3.11999
-1.99517
-0.970088
5.59408
3.63403
1.40176
-0.930697
-3.19822
-5.34767
-7.36507
-9.22889
-10.9077
-12.37
-13.5838
-14.52
-15.1617
-15.5068
-15.5627
-15.345
-14.8774
-14.1904
-13.3195
-12.3031
-11.1797
-9.98632
-8.75666
-7.51988
-6.29983
-5.11461
-3.97675
-2.89365
-1.86744
-0.922685
7.21687
5.43724
3.42191
1.31764
-0.733901
-2.68776
-4.53322
-6.25301
-7.82102
-9.21046
-10.3953
-11.3505
-12.0597
-12.5179
-12.728
-12.6995
-12.4486
-11.9974
-11.3728
-10.6048
-9.72444
-8.76261
-7.74829
-6.70751
-5.66248
-4.63109
-3.62681
-2.65885
-1.73201
-0.870345
8.62781
7.00025
5.16621
3.25226
1.38124
-0.408461
-2.10862
-3.70527
-5.17654
-6.49955
-7.65325
-8.6161
-9.37168
-9.91403
-10.243
-10.3638
-10.2869
-10.0283
-9.60792
-9.04906
-8.37662
-7.61604
-6.79199
-5.92738
-5.04252
-4.15455
-3.27724
-2.42095
-1.59241
-0.814828
9.85174
8.35266
6.6705
4.91568
3.19586
1.54417
-0.0330612
-1.52448
-2.91164
-4.1749
-5.29681
-6.25899
-7.04574
-7.65031
-8.0707
-8.30897
-8.3717
-8.26991
-8.01841
-7.63503
-7.13959
-6.55291
-5.89584
-5.18831
-4.44862
-3.69286
-2.93467
-2.18504
-1.45209
-0.757847
10.9095
9.51894
7.96411
6.3424
4.74926
3.21362
1.74034
0.338654
-0.975743
-2.18592
-3.27666
-4.23243
-5.03927
-5.68956
-6.17999
-6.51055
-6.68491
-6.7105
-6.59809
-6.36126
-6.01569
-5.57832
-5.06666
-4.49793
-3.88848
-3.2532
-2.60527
-1.95594
-1.31426
-0.701004
11.8181
10.519
9.07071
7.56014
6.07291
4.63462
3.24898
1.92355
0.671802
-0.491504
-1.55291
-2.49915
-3.31794
-4.00135
-4.54512
-4.94784
-5.21113
-5.33972
-5.34132
-5.22618
-5.00664
-4.69647
-4.31031
-3.86299
-3.36902
-2.84208
-2.29472
-1.73814
-1.182
-0.645815
12.5921
11.3697
10.01
8.59173
7.19257
5.83549
4.52328
3.26218
2.06388
0.94142
-0.093182
-1.02845
-1.85357
-2.56061
-3.14473
-3.60359
-3.93733
-4.14872
-4.24314
-4.22828
-4.11382
-3.91094
-3.63188
-3.28944
-2.89646
-2.46543
-2.00823
-1.53584
-1.05826
-0.593724
13.2421
12.0832
10.7966
9.45419
8.12753
6.83749
5.58614
4.37867
3.2254
2.13799
1.12725
0.203262
-0.624374
-1.34792
-1.96224
-2.46434
-2.85336
-3.13064
-3.29982
-3.36662
-3.33864
-3.225
-3.03599
-2.78266
-2.47642
-2.12868
-1.75061
-1.35291
-0.945721
-0.546035
13.779
12.6718
11.4442
10.163
8.89488
7.65909
6.45716
5.29348
4.17725
3.11907
2.12877
1.21538
0.387516
-0.3474
-0.984111
-1.51922
-1.95113
-2.28017
-2.50869
-2.64093
-2.6829
-2.64209
-2.52723
-2.34794
-2.11442
-1.83714
-1.52662
-1.19322
-0.847108
-0.5041
14.2058
13.1395
11.9582
10.725
9.50286
8.30981
7.14692
6.01798
4.93139
3.8969
2.92359
2.01967
1.19302
0.450689
-0.202054
-0.761561
-1.22575
-1.59426
-1.8685
-2.05162
-2.14843
-2.16519
-2.10941
-1.98958
-1.8149
-1.59505
-1.33996
-1.05967
-0.764291
-0.468635
14.5336
13.4974
12.3503
11.1524
9.96408
8.80247
7.66837
6.56511
5.50051
4.48374
3.52327
2.62672
1.80137
1.05388
0.389539
-0.187796
-0.675714
-1.07336
-1.3815
-1.60254
-1.74041
-1.80048
-1.78936
-1.71469
-1.58491
-1.40906
-1.19658
-0.957194
-0.700881
-0.441443
14.7532
13.737
12.6129
11.439
10.2737
9.13341
8.01886
6.93313
5.88369
4.8793
3.92814
3.03765
2.2145
1.46471
0.793508
0.204899
-0.298469
-0.715411
-1.04626
-1.29289
-1.45866
-1.54831
-1.56784
-1.52428
-1.42554
-1.28018
-1.09725
-0.886146
-0.656602
-0.421334
14.8836
13.8727
12.759
11.597
10.4427
9.31233
8.20679
7.12906
6.08641
5.08726
4.13933
3.24961
2.42514
1.67241
0.996439
0.401072
-0.111036
-0.538563
-0.881636
-1.14186
-1.32229
-1.42734
-1.46265
-1.43497
-1.35189
-1.22174
-1.0533
-0.855685
-0.638103
-0.410801
)
;

boundaryField
{
    inlet
    {
        type            zeroGradient;
    }
    outlet
    {
        type            fixedValue;
        value           uniform 0;
    }
    flap
    {
        type            zeroGradient;
    }
    upperWall
    {
        type            zeroGradient;
    }
    lowerWall
    {
        type            zeroGradient;
    }
    frontAndBack
    {
        type            empty;
    }
}


// ************************************************************************* //
