/*--------------------------------*- C++ -*----------------------------------*\
| =========                 |                                                 |
| \\      /  F ield         | OpenFOAM: The Open Source CFD Toolbox           |
|  \\    /   O peration     | Version:  dev                                   |
|   \\  /    A nd           | Web:      www.OpenFOAM.org                      |
|    \\/     M anipulation  |                                                 |
\*---------------------------------------------------------------------------*/
FoamFile
{
    version     2.0;
    format      ascii;
    class       pointVectorField;
    location    "0.18";
    object      pointDisplacement;
}
// * * * * * * * * * * * * * * * * * * * * * * * * * * * * * * * * * * * * * //

dimensions      [0 1 0 0 0 0 0];

internalField   nonuniform List<vector> 
5828
(
(0 0 0)
(0.00121073 0 0)
(0.00231451 0 0)
(0.00328705 0 0)
(0.00413983 0 0)
(0.00488329 0 0)
(0.00552679 0 0)
(0.00607865 0 0)
(0.00654621 0 0)
(0.0069359 0 0)
(0.00725324 0 0)
(0.00750291 0 0)
(0.00768879 0 0)
(0.0078139 0 0)
(0.00788049 0 0)
(0.00788994 0 0)
(0.00784276 0 0)
(0.00773854 0 0)
(0.0075759 0 0)
(0.00735236 0 0)
(0.00706439 0 0)
(0.00670734 0 0)
(0.0062757 0 0)
(0.0057636 0 0)
(0.00516584 0 0)
(0.00448019 0 0)
(0.00371187 0 0)
(0.00288268 0 0)
(0.00205034 0 0)
(0.00135726 0 0)
(0 0 0)
(0 0 0)
(0.00121089 0 4.93546e-06)
(0.00231489 0 9.53831e-06)
(0.00328769 0 1.3789e-05)
(0.00414077 0 1.77933e-05)
(0.00488459 0 2.16401e-05)
(0.00552853 0 2.54063e-05)
(0.00608092 0 2.91609e-05)
(0.00654914 0 3.29688e-05)
(0.00693964 0 3.68943e-05)
(0.00725797 0 4.10044e-05)
(0.00750887 0 4.53728e-05)
(0.00769625 0 5.00844e-05)
(0.00782324 0 5.52412e-05)
(0.00789215 0 6.09706e-05)
(0.00790453 0 6.74353e-05)
(0.00786104 0 7.48486e-05)
(0.00776153 0 8.34942e-05)
(0.00760489 0 9.37543e-05)
(0.00738909 0 0.000106147)
(0.00711116 0 0.000121377)
(0.00676721 0 0.000140402)
(0.00635275 0 0.000164509)
(0.00586327 0 0.000195405)
(0.00529539 0 0.000235286)
(0.00464922 0 0.000286831)
(0.00393297 0 0.000352949)
(0.00317188 0 0.000435809)
(0.00242595 0 0.000533753)
(0.00182876 0 0.000631599)
(0.000966855 0 0.000860566)
(0 0 0)
(0.00121151 0 9.84948e-06)
(0.00231618 0 1.90347e-05)
(0.00328972 0 2.75161e-05)
(0.00414368 0 3.55043e-05)
(0.00488856 0 4.3176e-05)
(0.00553378 0 5.06836e-05)
(0.00608776 0 5.8164e-05)
(0.00655792 0 6.57454e-05)
(0.00695079 0 7.35541e-05)
(0.00727205 0 8.17211e-05)
(0.00752654 0 9.03893e-05)
(0.00771838 0 9.97227e-05)
(0.00785088 0 0.000109917)
(0.00792667 0 0.000121213)
(0.00794764 0 0.000133919)
(0.00791499 0 0.000148432)
(0.00782921 0 0.000165279)
(0.00769009 0 0.000185158)
(0.00749678 0 0.000209011)
(0.00724789 0 0.0002381)
(0.00694165 0 0.000274115)
(0.00657637 0 0.000319292)
(0.00615116 0 0.000376519)
(0.00566732 0 0.000449384)
(0.00513066 0 0.000541999)
(0.00455574 0 0.000658269)
(0.00397298 0 0.000799753)
(0.00343989 0 0.000960061)
(0.00305732 0 0.00111062)
(0.00257583 0 0.00138715)
(0 0 0)
(0.00121255 0 1.4719e-05)
(0.00231832 0 2.84442e-05)
(0.00329308 0 4.1115e-05)
(0.00414848 0 5.30446e-05)
(0.00489509 0 6.44955e-05)
(0.00554242 0 7.56938e-05)
(0.00609897 0 8.68411e-05)
(0.00657229 0 9.81258e-05)
(0.00696903 0 0.000109732)
(0.00729504 0 0.000121848)
(0.00755538 0 0.000134679)
(0.00775441 0 0.000148457)
(0.00789581 0 0.000163453)
(0.00798265 0 0.00018)
(0.00801741 0 0.000198513)
(0.00800203 0 0.000219526)
(0.00793802 0 0.000243727)
(0.0078265 0 0.00027202)
(0.00766835 0 0.000305596)
(0.00746449 0 0.00034602)
(0.00721613 0 0.000395331)
(0.00692542 0 0.000456142)
(0.00659632 0 0.000531686)
(0.00623589 0 0.000625723)
(0.00585618 0 0.000742086)
(0.005477 0 0.00088343)
(0.00512882 0 0.00104831)
(0.00485423 0 0.00122489)
(0.00470262 0 0.00137867)
(0.00458462 0 0.0016207)
(0 0 0)
(0.00121398 0 1.95201e-05)
(0.00232124 0 3.77198e-05)
(0.00329768 0 5.45161e-05)
(0.00415504 0 7.03219e-05)
(0.004904 0 8.54823e-05)
(0.0055542 0 0.000100293)
(0.00611426 0 0.000115018)
(0.00659187 0 0.000129901)
(0.00699386 0 0.000145175)
(0.00732629 0 0.000161082)
(0.0075945 0 0.000177875)
(0.00780318 0 0.000195838)
(0.00795645 0 0.000215297)
(0.00805795 0 0.000236644)
(0.00811087 0 0.000260359)
(0.0081181 0 0.000287039)
(0.00808235 0 0.000317442)
(0.00800629 0 0.000352535)
(0.00789283 0 0.000393549)
(0.00774543 0 0.000442047)
(0.00756858 0 0.000499983)
(0.0073684 0 0.000569726)
(0.00715355 0 0.000653998)
(0.00693615 0 0.000755607)
(0.00673271 0 0.000876766)
(0.00656457 0 0.00101763)
(0.00645614 0 0.00117347)
(0.00642773 0 0.00132983)
(0.00647698 0 0.00145544)
(0.00664257 0 0.00162772)
(0 0 0)
(0.00121576 0 2.42287e-05)
(0.00232489 0 4.68145e-05)
(0.0033034 0 6.76502e-05)
(0.00416318 0 8.72442e-05)
(0.00491508 0 0.00010602)
(0.00556883 0 0.000124341)
(0.00613323 0 0.000142524)
(0.00661613 0 0.000160865)
(0.00702458 0 0.000179641)
(0.00736487 0 0.000199133)
(0.00764266 0 0.000219631)
(0.00786305 0 0.000241452)
(0.00803063 0 0.000264954)
(0.00814967 0 0.000290551)
(0.00822414 0 0.000318737)
(0.00825793 0 0.000350106)
(0.00825498 0 0.000385383)
(0.00821955 0 0.000425455)
(0.0081565 0 0.000471395)
(0.00807171 0 0.000524487)
(0.0079725 0 0.000586219)
(0.00786832 0 0.000658213)
(0.00777128 0 0.000742056)
(0.00769657 0 0.000838913)
(0.00766217 0 0.000948799)
(0.00768695 0 0.00106933)
(0.00778521 0 0.00119382)
(0.00795416 0 0.00130887)
(0.00815009 0 0.00139261)
(0.00850446 0 0.00149133)
(0 0 0)
(0.00121785 0 2.88213e-05)
(0.00232914 0 5.5682e-05)
(0.00331008 0 8.04491e-05)
(0.0041727 0 0.000103721)
(0.00492801 0 0.000125997)
(0.00558592 0 0.000147698)
(0.00615537 0 0.000169195)
(0.00664441 0 0.000190824)
(0.00706031 0 0.000212901)
(0.00740965 0 0.000235733)
(0.00769841 0 0.000259635)
(0.00793209 0 0.000284939)
(0.0081158 0 0.000312007)
(0.00825441 0 0.000341243)
(0.00835269 0 0.000373107)
(0.00841543 0 0.000408127)
(0.00844775 0 0.000446912)
(0.00845527 0 0.000490149)
(0.00844447 0 0.000538604)
(0.00842308 0 0.000593084)
(0.00840046 0 0.000654363)
(0.00838803 0 0.000723045)
(0.00839952 0 0.000799306)
(0.00845067 0 0.000882502)
(0.00855783 0 0.000970584)
(0.0087345 0 0.00105937)
(0.0089837 0 0.0011419)
(0.00928393 0 0.00120848)
(0.00956584 0 0.00124881)
(0.0100135 0 0.00128018)
(0 0 0)
(0.00122017 0 3.32752e-05)
(0.0023339 0 6.42783e-05)
(0.00331753 0 9.2848e-05)
(0.00418334 0 0.000119668)
(0.00494246 0 0.000145305)
(0.005605 0 0.000170236)
(0.00618007 0 0.000194879)
(0.00667593 0 0.000219602)
(0.00710007 0 0.00024475)
(0.00745934 0 0.000270649)
(0.00776006 0 0.000297624)
(0.00800811 0 0.000326003)
(0.00820911 0 0.000356131)
(0.00836847 0 0.000388372)
(0.00849164 0 0.000423117)
(0.00858423 0 0.00046078)
(0.00865224 0 0.00050179)
(0.00870234 0 0.000546569)
(0.0087421 0 0.000595489)
(0.00878032 0 0.000648793)
(0.00882726 0 0.000706473)
(0.00889481 0 0.000768083)
(0.0089963 0 0.00083247)
(0.00914563 0 0.000897456)
(0.00935517 0 0.000959514)
(0.00963148 0 0.00101365)
(0.00996768 0 0.00105392)
(0.0103307 0 0.00107531)
(0.010642 0 0.00107813)
(0.0111056 0 0.00105449)
(0 0 0)
(0.00122268 0 3.75692e-05)
(0.00233901 0 7.25622e-05)
(0.00332556 0 0.000104787)
(0.00419478 0 0.000135005)
(0.00495803 0 0.000163847)
(0.00562556 0 0.00019184)
(0.00620668 0 0.000219439)
(0.00670984 0 0.000247042)
(0.00714276 0 0.000275012)
(0.00751254 0 0.000303685)
(0.00782582 0 0.000333383)
(0.00808884 0 0.000364417)
(0.00830761 0 0.000397097)
(0.00848805 0 0.000431727)
(0.00863612 0 0.000468601)
(0.00875804 0 0.000507993)
(0.00886041 0 0.000550127)
(0.00895047 0 0.000595135)
(0.0090363 0 0.000642989)
(0.0091269 0 0.000693394)
(0.00923232 0 0.000745647)
(0.00936348 0 0.000798438)
(0.00953161 0 0.000849632)
(0.009747 0 0.000896066)
(0.0100166 0 0.000933511)
(0.0103399 0 0.000957059)
(0.0107027 0 0.000962418)
(0.0110676 0 0.000948818)
(0.0113613 0 0.000924386)
(0.0117747 0 0.000864501)
(0 0 0)
(0.00122527 0 4.16842e-05)
(0.00234431 0 8.04961e-05)
(0.0033339 0 0.00011621)
(0.00420671 0 0.000149662)
(0.00497428 0 0.000181537)
(0.00564705 0 0.000212407)
(0.00623449 0 0.000242758)
(0.00674525 0 0.000273013)
(0.00718724 0 0.000303543)
(0.00756783 0 0.000334688)
(0.00789389 0 0.000366755)
(0.00817197 0 0.000400029)
(0.00840841 0 0.000434772)
(0.00860949 0 0.000471215)
(0.00878153 0 0.000509549)
(0.00893109 0 0.000549897)
(0.00906507 0 0.000592283)
(0.00919084 0 0.000636574)
(0.00931635 0 0.000682397)
(0.00945008 0 0.000729035)
(0.00960094 0 0.000775286)
(0.00977778 0 0.000819306)
(0.00998863 0 0.000858459)
(0.0102392 0 0.000889257)
(0.0105306 0 0.000907541)
(0.0108563 0 0.000909152)
(0.0111974 0 0.00089154)
(0.0115183 0 0.000856898)
(0.0117604 0 0.000817479)
(0.0120737 0 0.000739218)
(0 0 0)
(0.00122787 0 4.56029e-05)
(0.00234964 0 8.80469e-05)
(0.00334231 0 0.000127071)
(0.00421878 0 0.000163577)
(0.00499077 0 0.0001983)
(0.00566889 0 0.00023185)
(0.00626277 0 0.00026474)
(0.00678123 0 0.000297408)
(0.00723238 0 0.000330233)
(0.00762376 0 0.000363545)
(0.00796246 0 0.000397634)
(0.00825527 0 0.000432751)
(0.00850876 0 0.000469104)
(0.00872941 0 0.000506848)
(0.00892374 0 0.000546071)
(0.00909841 0 0.000586762)
(0.00926028 0 0.000628771)
(0.00941648 0 0.000671753)
(0.00957436 0 0.000715094)
(0.00974131 0 0.000757814)
(0.00992446 0 0.000798467)
(0.0101301 0 0.000835039)
(0.0103625 0 0.000864897)
(0.0106229 0 0.000884851)
(0.0109072 0 0.000891454)
(0.011204 0 0.000881742)
(0.0114929 0 0.000854704)
(0.0117431 0 0.000813931)
(0.0119156 0 0.000772068)
(0.0121048 0 0.000694795)
(0 0 0)
(0.00123038 0 4.93104e-05)
(0.00235482 0 9.51858e-05)
(0.00335052 0 0.000137329)
(0.00423062 0 0.000176698)
(0.00500702 0 0.000214074)
(0.00569048 0 0.000250099)
(0.00629078 0 0.000285308)
(0.00681688 0 0.000320149)
(0.00727704 0 0.000355001)
(0.00767896 0 0.000390183)
(0.00802987 0 0.000425963)
(0.00833672 0 0.000462553)
(0.00860618 0 0.000500109)
(0.00884485 0 0.000538715)
(0.00905924 0 0.000578366)
(0.00925592 0 0.00061894)
(0.00944145 0 0.000660161)
(0.00962241 0 0.000701543)
(0.00980522 0 0.000742343)
(0.00999589 0 0.000781489)
(0.0101995 0 0.000817531)
(0.0104197 0 0.000848614)
(0.0106574 0 0.000872518)
(0.0109099 0 0.000886818)
(0.0111694 0 0.00088923)
(0.0114219 0 0.000878243)
(0.0116471 0 0.000854152)
(0.0118212 0 0.000820698)
(0.0119238 0 0.000787829)
(0.0119922 0 0.000727416)
(0 0 0)
(0.00123272 0 5.27941e-05)
(0.00235965 0 0.000101889)
(0.00335825 0 0.000146948)
(0.00424188 0 0.000188982)
(0.00502258 0 0.00022881)
(0.00571125 0 0.000267101)
(0.00631782 0 0.000304407)
(0.00685133 0 0.00034118)
(0.00732018 0 0.000377798)
(0.00773215 0 0.000414566)
(0.00809458 0 0.000451726)
(0.00841447 0 0.000489454)
(0.00869854 0 0.000527856)
(0.00895333 0 0.000566955)
(0.00918523 0 0.000606674)
(0.00940053 0 0.000646811)
(0.00960533 0 0.000687007)
(0.00980546 0 0.000726714)
(0.0100063 0 0.000765161)
(0.0102123 0 0.000801326)
(0.0104268 0 0.00083394)
(0.0106508 0 0.000861525)
(0.010883 0 0.000882521)
(0.0111178 0 0.000895501)
(0.0113456 0 0.000899525)
(0.0115519 0 0.000894602)
(0.011719 0 0.000882183)
(0.01183 0 0.00086557)
(0.0118787 0 0.000850259)
(0.0118581 0 0.000823959)
(0 0 0)
(0.00123476 0 5.60437e-05)
(0.00236395 0 0.000108137)
(0.00336524 0 0.000155902)
(0.00425218 0 0.000200396)
(0.00503698 0 0.00024247)
(0.00573065 0 0.000282816)
(0.00634319 0 0.000321996)
(0.00688376 0 0.000360468)
(0.0073608 0 0.000398601)
(0.00778216 0 0.000436686)
(0.00815522 0 0.00047494)
(0.00848696 0 0.000513507)
(0.00878404 0 0.00055245)
(0.00905286 0 0.000591743)
(0.00929958 0 0.000631257)
(0.00953009 0 0.000670741)
(0.0097499 0 0.000709802)
(0.00996405 0 0.000747887)
(0.0101768 0 0.000784278)
(0.0103914 0 0.000818095)
(0.0106093 0 0.000848349)
(0.0108302 0 0.000874027)
(0.0110507 0 0.000894271)
(0.0112644 0 0.000908618)
(0.0114614 0 0.000917326)
(0.0116292 0 0.000921681)
(0.0117541 0 0.000924076)
(0.0118262 0 0.000927366)
(0.0118477 0 0.000932596)
(0.0117965 0 0.000948784)
(0 0 0)
(0.00123643 0 5.90511e-05)
(0.00236753 0 0.000113914)
(0.00337121 0 0.00016417)
(0.00426119 0 0.000210915)
(0.00504979 0 0.000255028)
(0.00574813 0 0.000297217)
(0.00636626 0 0.000338054)
(0.0069134 0 0.000377996)
(0.00739802 0 0.000417406)
(0.00782799 0 0.000456558)
(0.00821064 0 0.000495649)
(0.00855288 0 0.000534791)
(0.00886126 0 0.000574016)
(0.00914195 0 0.000613262)
(0.00940079 0 0.00065237)
(0.00964322 0 0.000691065)
(0.00987413 0 0.000728956)
(0.0100978 0 0.00076553)
(0.0103175 0 0.000800165)
(0.0105353 0 0.000832168)
(0.0107516 0 0.00086084)
(0.010965 0 0.0008856)
(0.0111714 0 0.000906161)
(0.0113646 0 0.000922748)
(0.011536 0 0.00093635)
(0.0116761 0 0.000948887)
(0.0117765 0 0.00096308)
(0.0118336 0 0.00098141)
(0.0118535 0 0.0010024)
(0.0118346 0 0.00105396)
(0 0 0)
(0.00123765 0 6.18293e-05)
(0.00237024 0 0.000119252)
(0.00337594 0 0.000171803)
(0.00426862 0 0.000220606)
(0.0050607 0 0.000266567)
(0.00576333 0 0.000310405)
(0.00638662 0 0.000352699)
(0.00693981 0 0.000393905)
(0.00743136 0 0.000434376)
(0.0078691 0 0.000474374)
(0.00826029 0 0.000514073)
(0.00861171 0 0.000553566)
(0.00892972 0 0.000592857)
(0.00922023 0 0.000631864)
(0.00948871 0 0.00067041)
(0.00974011 0 0.000708224)
(0.00997875 0 0.000744941)
(0.0102081 0 0.000780109)
(0.0104308 0 0.000813224)
(0.010648 0 0.000843773)
(0.0108594 0 0.000871308)
(0.011063 0 0.000895567)
(0.0112549 0 0.000916611)
(0.0114297 0 0.000934973)
(0.0115809 0 0.000951764)
(0.0117023 0 0.000968645)
(0.0117898 0 0.000987456)
(0.0118443 0 0.00100917)
(0.0118731 0 0.00103099)
(0.0119333 0 0.0011053)
(0 0 0)
(0.00121073 0 0)
(0.00231451 0 0)
(0.00328705 0 0)
(0.00413983 0 0)
(0.00488329 0 0)
(0.00552679 0 0)
(0.00607865 0 0)
(0.00654621 0 0)
(0.0069359 0 0)
(0.00725324 0 0)
(0.00750291 0 0)
(0.00768879 0 0)
(0.0078139 0 0)
(0.00788049 0 0)
(0.00788994 0 0)
(0.00784276 0 0)
(0.00773854 0 0)
(0.0075759 0 0)
(0.00735236 0 0)
(0.00706439 0 0)
(0.00670734 0 0)
(0.0062757 0 0)
(0.0057636 0 0)
(0.00516584 0 0)
(0.00448019 0 0)
(0.00371187 0 0)
(0.00288268 0 0)
(0.00205034 0 0)
(0.00135726 0 0)
(0 0 0)
(0 0 0)
(0.00121089 0 4.93546e-06)
(0.00231489 0 9.53831e-06)
(0.00328769 0 1.3789e-05)
(0.00414077 0 1.77933e-05)
(0.00488459 0 2.16401e-05)
(0.00552853 0 2.54063e-05)
(0.00608092 0 2.91609e-05)
(0.00654914 0 3.29688e-05)
(0.00693964 0 3.68943e-05)
(0.00725797 0 4.10044e-05)
(0.00750887 0 4.53728e-05)
(0.00769625 0 5.00844e-05)
(0.00782324 0 5.52412e-05)
(0.00789215 0 6.09706e-05)
(0.00790453 0 6.74353e-05)
(0.00786104 0 7.48486e-05)
(0.00776153 0 8.34942e-05)
(0.00760489 0 9.37543e-05)
(0.00738909 0 0.000106147)
(0.00711116 0 0.000121377)
(0.00676721 0 0.000140402)
(0.00635275 0 0.000164509)
(0.00586327 0 0.000195405)
(0.00529539 0 0.000235286)
(0.00464922 0 0.000286831)
(0.00393297 0 0.000352949)
(0.00317188 0 0.000435809)
(0.00242595 0 0.000533753)
(0.00182876 0 0.000631599)
(0.000966855 0 0.000860566)
(0 0 0)
(0.00121151 0 9.84948e-06)
(0.00231618 0 1.90347e-05)
(0.00328972 0 2.75161e-05)
(0.00414368 0 3.55043e-05)
(0.00488856 0 4.3176e-05)
(0.00553378 0 5.06836e-05)
(0.00608776 0 5.8164e-05)
(0.00655792 0 6.57454e-05)
(0.00695079 0 7.35541e-05)
(0.00727205 0 8.17211e-05)
(0.00752654 0 9.03893e-05)
(0.00771838 0 9.97227e-05)
(0.00785088 0 0.000109917)
(0.00792667 0 0.000121213)
(0.00794764 0 0.000133919)
(0.00791499 0 0.000148432)
(0.00782921 0 0.000165279)
(0.00769009 0 0.000185158)
(0.00749678 0 0.000209011)
(0.00724789 0 0.0002381)
(0.00694165 0 0.000274115)
(0.00657637 0 0.000319292)
(0.00615116 0 0.000376519)
(0.00566732 0 0.000449384)
(0.00513066 0 0.000541999)
(0.00455574 0 0.000658269)
(0.00397298 0 0.000799753)
(0.00343989 0 0.000960061)
(0.00305732 0 0.00111062)
(0.00257583 0 0.00138715)
(0 0 0)
(0.00121255 0 1.4719e-05)
(0.00231832 0 2.84442e-05)
(0.00329308 0 4.1115e-05)
(0.00414848 0 5.30446e-05)
(0.00489509 0 6.44955e-05)
(0.00554242 0 7.56938e-05)
(0.00609897 0 8.68411e-05)
(0.00657229 0 9.81258e-05)
(0.00696903 0 0.000109732)
(0.00729504 0 0.000121848)
(0.00755538 0 0.000134679)
(0.00775441 0 0.000148457)
(0.00789581 0 0.000163453)
(0.00798265 0 0.00018)
(0.00801741 0 0.000198513)
(0.00800203 0 0.000219526)
(0.00793802 0 0.000243727)
(0.0078265 0 0.00027202)
(0.00766835 0 0.000305596)
(0.00746449 0 0.00034602)
(0.00721613 0 0.000395331)
(0.00692542 0 0.000456142)
(0.00659632 0 0.000531686)
(0.00623589 0 0.000625723)
(0.00585618 0 0.000742086)
(0.005477 0 0.00088343)
(0.00512882 0 0.00104831)
(0.00485423 0 0.00122489)
(0.00470262 0 0.00137867)
(0.00458462 0 0.0016207)
(0 0 0)
(0.00121398 0 1.95201e-05)
(0.00232124 0 3.77198e-05)
(0.00329768 0 5.45161e-05)
(0.00415504 0 7.03219e-05)
(0.004904 0 8.54823e-05)
(0.0055542 0 0.000100293)
(0.00611426 0 0.000115018)
(0.00659187 0 0.000129901)
(0.00699386 0 0.000145175)
(0.00732629 0 0.000161082)
(0.0075945 0 0.000177875)
(0.00780318 0 0.000195838)
(0.00795645 0 0.000215297)
(0.00805795 0 0.000236644)
(0.00811087 0 0.000260359)
(0.0081181 0 0.000287039)
(0.00808235 0 0.000317442)
(0.00800629 0 0.000352535)
(0.00789283 0 0.000393549)
(0.00774543 0 0.000442047)
(0.00756858 0 0.000499983)
(0.0073684 0 0.000569726)
(0.00715355 0 0.000653998)
(0.00693615 0 0.000755607)
(0.00673271 0 0.000876766)
(0.00656457 0 0.00101763)
(0.00645614 0 0.00117347)
(0.00642773 0 0.00132983)
(0.00647698 0 0.00145544)
(0.00664257 0 0.00162772)
(0 0 0)
(0.00121576 0 2.42287e-05)
(0.00232489 0 4.68145e-05)
(0.0033034 0 6.76502e-05)
(0.00416318 0 8.72442e-05)
(0.00491508 0 0.00010602)
(0.00556883 0 0.000124341)
(0.00613323 0 0.000142524)
(0.00661613 0 0.000160865)
(0.00702458 0 0.000179641)
(0.00736487 0 0.000199133)
(0.00764266 0 0.000219631)
(0.00786305 0 0.000241452)
(0.00803063 0 0.000264954)
(0.00814967 0 0.000290551)
(0.00822414 0 0.000318737)
(0.00825793 0 0.000350106)
(0.00825498 0 0.000385383)
(0.00821955 0 0.000425455)
(0.0081565 0 0.000471395)
(0.00807171 0 0.000524487)
(0.0079725 0 0.000586219)
(0.00786832 0 0.000658213)
(0.00777128 0 0.000742056)
(0.00769657 0 0.000838913)
(0.00766217 0 0.000948799)
(0.00768695 0 0.00106933)
(0.00778521 0 0.00119382)
(0.00795416 0 0.00130887)
(0.00815009 0 0.00139261)
(0.00850446 0 0.00149133)
(0 0 0)
(0.00121785 0 2.88213e-05)
(0.00232914 0 5.5682e-05)
(0.00331008 0 8.04491e-05)
(0.0041727 0 0.000103721)
(0.00492801 0 0.000125997)
(0.00558592 0 0.000147698)
(0.00615537 0 0.000169195)
(0.00664441 0 0.000190824)
(0.00706031 0 0.000212901)
(0.00740965 0 0.000235733)
(0.00769841 0 0.000259635)
(0.00793209 0 0.000284939)
(0.0081158 0 0.000312007)
(0.00825441 0 0.000341243)
(0.00835269 0 0.000373107)
(0.00841543 0 0.000408127)
(0.00844775 0 0.000446912)
(0.00845527 0 0.000490149)
(0.00844447 0 0.000538604)
(0.00842308 0 0.000593084)
(0.00840046 0 0.000654363)
(0.00838803 0 0.000723045)
(0.00839952 0 0.000799306)
(0.00845067 0 0.000882502)
(0.00855783 0 0.000970584)
(0.0087345 0 0.00105937)
(0.0089837 0 0.0011419)
(0.00928393 0 0.00120848)
(0.00956584 0 0.00124881)
(0.0100135 0 0.00128018)
(0 0 0)
(0.00122017 0 3.32752e-05)
(0.0023339 0 6.42783e-05)
(0.00331753 0 9.2848e-05)
(0.00418334 0 0.000119668)
(0.00494246 0 0.000145305)
(0.005605 0 0.000170236)
(0.00618007 0 0.000194879)
(0.00667593 0 0.000219602)
(0.00710007 0 0.00024475)
(0.00745934 0 0.000270649)
(0.00776006 0 0.000297624)
(0.00800811 0 0.000326003)
(0.00820911 0 0.000356131)
(0.00836847 0 0.000388372)
(0.00849164 0 0.000423117)
(0.00858423 0 0.00046078)
(0.00865224 0 0.00050179)
(0.00870234 0 0.000546569)
(0.0087421 0 0.000595489)
(0.00878032 0 0.000648793)
(0.00882726 0 0.000706473)
(0.00889481 0 0.000768083)
(0.0089963 0 0.00083247)
(0.00914563 0 0.000897456)
(0.00935517 0 0.000959514)
(0.00963148 0 0.00101365)
(0.00996768 0 0.00105392)
(0.0103307 0 0.00107531)
(0.010642 0 0.00107813)
(0.0111056 0 0.00105449)
(0 0 0)
(0.00122268 0 3.75692e-05)
(0.00233901 0 7.25622e-05)
(0.00332556 0 0.000104787)
(0.00419478 0 0.000135005)
(0.00495803 0 0.000163847)
(0.00562556 0 0.00019184)
(0.00620668 0 0.000219439)
(0.00670984 0 0.000247042)
(0.00714276 0 0.000275012)
(0.00751254 0 0.000303685)
(0.00782582 0 0.000333383)
(0.00808884 0 0.000364417)
(0.00830761 0 0.000397097)
(0.00848805 0 0.000431727)
(0.00863612 0 0.000468601)
(0.00875804 0 0.000507993)
(0.00886041 0 0.000550127)
(0.00895047 0 0.000595135)
(0.0090363 0 0.000642989)
(0.0091269 0 0.000693394)
(0.00923232 0 0.000745647)
(0.00936348 0 0.000798438)
(0.00953161 0 0.000849632)
(0.009747 0 0.000896066)
(0.0100166 0 0.000933511)
(0.0103399 0 0.000957059)
(0.0107027 0 0.000962418)
(0.0110676 0 0.000948818)
(0.0113613 0 0.000924386)
(0.0117747 0 0.000864501)
(0 0 0)
(0.00122527 0 4.16842e-05)
(0.00234431 0 8.04961e-05)
(0.0033339 0 0.00011621)
(0.00420671 0 0.000149662)
(0.00497428 0 0.000181537)
(0.00564705 0 0.000212407)
(0.00623449 0 0.000242758)
(0.00674525 0 0.000273013)
(0.00718724 0 0.000303543)
(0.00756783 0 0.000334688)
(0.00789389 0 0.000366755)
(0.00817197 0 0.000400029)
(0.00840841 0 0.000434772)
(0.00860949 0 0.000471215)
(0.00878153 0 0.000509549)
(0.00893109 0 0.000549897)
(0.00906507 0 0.000592283)
(0.00919084 0 0.000636574)
(0.00931635 0 0.000682397)
(0.00945008 0 0.000729035)
(0.00960094 0 0.000775286)
(0.00977778 0 0.000819306)
(0.00998863 0 0.000858459)
(0.0102392 0 0.000889257)
(0.0105306 0 0.000907541)
(0.0108563 0 0.000909152)
(0.0111974 0 0.00089154)
(0.0115183 0 0.000856898)
(0.0117604 0 0.000817479)
(0.0120737 0 0.000739218)
(0 0 0)
(0.00122787 0 4.56029e-05)
(0.00234964 0 8.80469e-05)
(0.00334231 0 0.000127071)
(0.00421878 0 0.000163577)
(0.00499077 0 0.0001983)
(0.00566889 0 0.00023185)
(0.00626277 0 0.00026474)
(0.00678123 0 0.000297408)
(0.00723238 0 0.000330233)
(0.00762376 0 0.000363545)
(0.00796246 0 0.000397634)
(0.00825527 0 0.000432751)
(0.00850876 0 0.000469104)
(0.00872941 0 0.000506848)
(0.00892374 0 0.000546071)
(0.00909841 0 0.000586762)
(0.00926028 0 0.000628771)
(0.00941648 0 0.000671753)
(0.00957436 0 0.000715094)
(0.00974131 0 0.000757814)
(0.00992446 0 0.000798467)
(0.0101301 0 0.000835039)
(0.0103625 0 0.000864897)
(0.0106229 0 0.000884851)
(0.0109072 0 0.000891454)
(0.011204 0 0.000881742)
(0.0114929 0 0.000854704)
(0.0117431 0 0.000813931)
(0.0119156 0 0.000772068)
(0.0121048 0 0.000694795)
(0 0 0)
(0.00123038 0 4.93104e-05)
(0.00235482 0 9.51858e-05)
(0.00335052 0 0.000137329)
(0.00423062 0 0.000176698)
(0.00500702 0 0.000214074)
(0.00569048 0 0.000250099)
(0.00629078 0 0.000285308)
(0.00681688 0 0.000320149)
(0.00727704 0 0.000355001)
(0.00767896 0 0.000390183)
(0.00802987 0 0.000425963)
(0.00833672 0 0.000462553)
(0.00860618 0 0.000500109)
(0.00884485 0 0.000538715)
(0.00905924 0 0.000578366)
(0.00925592 0 0.00061894)
(0.00944145 0 0.000660161)
(0.00962241 0 0.000701543)
(0.00980522 0 0.000742343)
(0.00999589 0 0.000781489)
(0.0101995 0 0.000817531)
(0.0104197 0 0.000848614)
(0.0106574 0 0.000872518)
(0.0109099 0 0.000886818)
(0.0111694 0 0.00088923)
(0.0114219 0 0.000878243)
(0.0116471 0 0.000854152)
(0.0118212 0 0.000820698)
(0.0119238 0 0.000787829)
(0.0119922 0 0.000727416)
(0 0 0)
(0.00123272 0 5.27941e-05)
(0.00235965 0 0.000101889)
(0.00335825 0 0.000146948)
(0.00424188 0 0.000188982)
(0.00502258 0 0.00022881)
(0.00571125 0 0.000267101)
(0.00631782 0 0.000304407)
(0.00685133 0 0.00034118)
(0.00732018 0 0.000377798)
(0.00773215 0 0.000414566)
(0.00809458 0 0.000451726)
(0.00841447 0 0.000489454)
(0.00869854 0 0.000527856)
(0.00895333 0 0.000566955)
(0.00918523 0 0.000606674)
(0.00940053 0 0.000646811)
(0.00960533 0 0.000687007)
(0.00980546 0 0.000726714)
(0.0100063 0 0.000765161)
(0.0102123 0 0.000801326)
(0.0104268 0 0.00083394)
(0.0106508 0 0.000861525)
(0.010883 0 0.000882521)
(0.0111178 0 0.000895501)
(0.0113456 0 0.000899525)
(0.0115519 0 0.000894602)
(0.011719 0 0.000882183)
(0.01183 0 0.00086557)
(0.0118787 0 0.000850259)
(0.0118581 0 0.000823959)
(0 0 0)
(0.00123476 0 5.60437e-05)
(0.00236395 0 0.000108137)
(0.00336524 0 0.000155902)
(0.00425218 0 0.000200396)
(0.00503698 0 0.00024247)
(0.00573065 0 0.000282816)
(0.00634319 0 0.000321996)
(0.00688376 0 0.000360468)
(0.0073608 0 0.000398601)
(0.00778216 0 0.000436686)
(0.00815522 0 0.00047494)
(0.00848696 0 0.000513507)
(0.00878404 0 0.00055245)
(0.00905286 0 0.000591743)
(0.00929958 0 0.000631257)
(0.00953009 0 0.000670741)
(0.0097499 0 0.000709802)
(0.00996405 0 0.000747887)
(0.0101768 0 0.000784278)
(0.0103914 0 0.000818095)
(0.0106093 0 0.000848349)
(0.0108302 0 0.000874027)
(0.0110507 0 0.000894271)
(0.0112644 0 0.000908618)
(0.0114614 0 0.000917326)
(0.0116292 0 0.000921681)
(0.0117541 0 0.000924076)
(0.0118262 0 0.000927366)
(0.0118477 0 0.000932596)
(0.0117965 0 0.000948784)
(0 0 0)
(0.00123643 0 5.90511e-05)
(0.00236753 0 0.000113914)
(0.00337121 0 0.00016417)
(0.00426119 0 0.000210915)
(0.00504979 0 0.000255028)
(0.00574813 0 0.000297217)
(0.00636626 0 0.000338054)
(0.0069134 0 0.000377996)
(0.00739802 0 0.000417406)
(0.00782799 0 0.000456558)
(0.00821064 0 0.000495649)
(0.00855288 0 0.000534791)
(0.00886126 0 0.000574016)
(0.00914195 0 0.000613262)
(0.00940079 0 0.00065237)
(0.00964322 0 0.000691065)
(0.00987413 0 0.000728956)
(0.0100978 0 0.00076553)
(0.0103175 0 0.000800165)
(0.0105353 0 0.000832168)
(0.0107516 0 0.00086084)
(0.010965 0 0.0008856)
(0.0111714 0 0.000906161)
(0.0113646 0 0.000922748)
(0.011536 0 0.00093635)
(0.0116761 0 0.000948887)
(0.0117765 0 0.00096308)
(0.0118336 0 0.00098141)
(0.0118535 0 0.0010024)
(0.0118346 0 0.00105396)
(0 0 0)
(0.00123765 0 6.18293e-05)
(0.00237024 0 0.000119252)
(0.00337594 0 0.000171803)
(0.00426862 0 0.000220606)
(0.0050607 0 0.000266567)
(0.00576333 0 0.000310405)
(0.00638662 0 0.000352699)
(0.00693981 0 0.000393905)
(0.00743136 0 0.000434376)
(0.0078691 0 0.000474374)
(0.00826029 0 0.000514073)
(0.00861171 0 0.000553566)
(0.00892972 0 0.000592857)
(0.00922023 0 0.000631864)
(0.00948871 0 0.00067041)
(0.00974011 0 0.000708224)
(0.00997875 0 0.000744941)
(0.0102081 0 0.000780109)
(0.0104308 0 0.000813224)
(0.010648 0 0.000843773)
(0.0108594 0 0.000871308)
(0.011063 0 0.000895567)
(0.0112549 0 0.000916611)
(0.0114297 0 0.000934973)
(0.0115809 0 0.000951764)
(0.0117023 0 0.000968645)
(0.0117898 0 0.000987456)
(0.0118443 0 0.00100917)
(0.0118731 0 0.00103099)
(0.0119333 0 0.0011053)
(0 0 0)
(0.00138108 0 0)
(0.00213018 0 0)
(0.00301963 0 0)
(0.00389735 0 0)
(0.00470023 0 0)
(0.00540663 0 0)
(0.00601366 0 0)
(0.00652632 0 0)
(0.00695228 0 0)
(0.00729946 0 0)
(0.00757487 0 0)
(0.00778414 0 0)
(0.00793152 0 0)
(0.00801999 0 0)
(0.00805129 0 0)
(0.00802607 0 0)
(0.00794396 0 0)
(0.00780369 0 0)
(0.00760309 0 0)
(0.00733916 0 0)
(0.00700811 0 0)
(0.00660532 0 0)
(0.00612534 0 0)
(0.0055619 0 0)
(0.00490785 0 0)
(0.00415515 0 0)
(0.00329483 0 0)
(0.00231699 0 0)
(0.00121074 0 0)
(0 0 0)
(0.000891206 0 -0.00071743)
(0.00184218 0 -0.000506696)
(0.0025062 0 -0.000418997)
(0.00331256 0 -0.000324752)
(0.00412189 0 -0.000241886)
(0.00487141 0 -0.000174367)
(0.00553706 0 -0.000121424)
(0.00611329 0 -8.08594e-05)
(0.00660274 0 -5.02763e-05)
(0.00701121 0 -2.75188e-05)
(0.00734516 0 -1.07939e-05)
(0.00761052 0 1.32885e-06)
(0.0078121 0 9.96317e-06)
(0.00795357 0 1.59636e-05)
(0.00803744 0 1.99798e-05)
(0.00806516 0 2.25022e-05)
(0.00803711 0 2.38994e-05)
(0.00795277 0 2.44471e-05)
(0.00781071 0 2.43502e-05)
(0.00760868 0 2.37602e-05)
(0.00734361 0 2.27873e-05)
(0.00701163 0 2.15102e-05)
(0.00660808 0 1.9983e-05)
(0.00612749 0 1.824e-05)
(0.00556355 0 1.62994e-05)
(0.0049091 0 1.41655e-05)
(0.00415606 0 1.18304e-05)
(0.00329547 0 9.27414e-06)
(0.00231739 0 6.46536e-06)
(0.00121091 0 3.36007e-06)
(0 0 0)
(0.0024948 0 -0.00112807)
(0.00305496 0 -0.000871979)
(0.00352264 0 -0.000732482)
(0.00412144 0 -0.000575753)
(0.00475118 0 -0.000433185)
(0.00535627 0 -0.000314206)
(0.00590953 0 -0.0002193)
(0.00639964 0 -0.000145656)
(0.00682358 0 -8.95951e-05)
(0.00718229 0 -4.75661e-05)
(0.00747837 0 -1.65002e-05)
(0.00771479 0 6.11289e-06)
(0.00789414 0 2.22624e-05)
(0.00801842 0 3.34953e-05)
(0.00808892 0 4.10006e-05)
(0.00810614 0 4.5684e-05)
(0.00806982 0 4.8231e-05)
(0.00797891 0 4.91578e-05)
(0.0078316 0 4.885e-05)
(0.00762535 0 4.75936e-05)
(0.00735688 0 4.55978e-05)
(0.00702215 0 4.30119e-05)
(0.00661638 0 3.99386e-05)
(0.00613398 0 3.64426e-05)
(0.00556857 0 3.25576e-05)
(0.00491292 0 2.82906e-05)
(0.00415891 0 2.36244e-05)
(0.0032975 0 1.85185e-05)
(0.00231871 0 1.29094e-05)
(0.00121157 0 6.70892e-06)
(0 0 0)
(0.00449803 0 -0.0012742)
(0.00469101 0 -0.00103793)
(0.00493657 0 -0.000887177)
(0.00527898 0 -0.000709164)
(0.00567247 0 -0.000540316)
(0.00607913 0 -0.000394821)
(0.00647309 0 -0.000275883)
(0.0068383 0 -0.000181816)
(0.00716543 0 -0.000109124)
(0.00744948 0 -5.39783e-05)
(0.00768801 0 -1.28406e-05)
(0.00787998 0 1.73054e-05)
(0.00802486 0 3.89229e-05)
(0.00812227 0 5.3972e-05)
(0.00817169 0 6.39874e-05)
(0.0081723 0 7.0156e-05)
(0.00812278 0 7.33877e-05)
(0.00802134 0 7.43748e-05)
(0.00786559 0 7.36392e-05)
(0.00765254 0 7.15708e-05)
(0.00737857 0 6.8456e-05)
(0.00703938 0 6.45e-05)
(0.00662998 0 5.98436e-05)
(0.00614463 0 5.45747e-05)
(0.00557682 0 4.87378e-05)
(0.0049192 0 4.23388e-05)
(0.00416358 0 3.53488e-05)
(0.00330082 0 2.77056e-05)
(0.00232087 0 1.93124e-05)
(0.00121265 0 1.00361e-05)
(0 0 0)
(0.00655667 0 -0.00120277)
(0.0064584 0 -0.00101659)
(0.00649953 0 -0.000882166)
(0.00659377 0 -0.000716365)
(0.00674619 0 -0.000552285)
(0.00694106 0 -0.000405732)
(0.00715859 0 -0.000282336)
(0.00738113 0 -0.00018235)
(0.00759482 0 -0.000103548)
(0.00778945 0 -4.28111e-05)
(0.00795776 0 3.05881e-06)
(0.00809458 0 3.69699e-05)
(0.00819607 0 6.14063e-05)
(0.00825923 0 7.84144e-05)
(0.00828152 0 8.9641e-05)
(0.00826051 0 9.63892e-05)
(0.00819371 0 9.96765e-05)
(0.00807837 0 0.000100289)
(0.0079114 0 9.88283e-05)
(0.00768927 0 9.57465e-05)
(0.00740792 0 9.13792e-05)
(0.00706272 0 8.59673e-05)
(0.00664842 0 7.96757e-05)
(0.00615907 0 7.2606e-05)
(0.005588 0 6.48061e-05)
(0.00492772 0 5.62765e-05)
(0.0041699 0 4.69735e-05)
(0.00330532 0 3.68104e-05)
(0.00232379 0 2.56563e-05)
(0.0012141 0 1.33322e-05)
(0 0 0)
(0.00842684 0 -0.000974639)
(0.00812476 0 -0.00084753)
(0.0080049 0 -0.000745082)
(0.00789562 0 -0.000613223)
(0.00784 0 -0.000476686)
(0.00784298 0 -0.000349636)
(0.00789356 0 -0.000238804)