/*--------------------------------*- C++ -*----------------------------------*\
| =========                 |                                                 |
| \\      /  F ield         | OpenFOAM: The Open Source CFD Toolbox           |
|  \\    /   O peration     | Version:  dev                                   |
|   \\  /    A nd           | Web:      www.OpenFOAM.org                      |
|    \\/     M anipulation  |                                                 |
\*---------------------------------------------------------------------------*/
FoamFile
{
    version     2.0;
    format      ascii;
    class       volVectorField;
    location    "0.19";
    object      Force;
}
// * * * * * * * * * * * * * * * * * * * * * * * * * * * * * * * * * * * * * //

dimensions      [1 1 -2 0 0 0 0];

internalField   uniform (0 0 0);

boundaryField
{
    inlet
    {
        type            calculated;
        value           nonuniform 0();
    }
    outlet
    {
        type            calculated;
        value           nonuniform 0();
    }
    flap
    {
        type            calculated;
        value           nonuniform List<vector> 
33
(
(2.31265 1.68418e-17 -0.0349324)
(2.30325 3.86893e-19 -0.0591219)
(2.28964 1.72527e-17 -0.0741817)
(2.26952 1.55689e-17 -0.0761702)
(2.24341 -2.20616e-23 -0.0689556)
(2.21089 1.86852e-22 -0.0558505)
(2.17049 -2.62675e-24 -0.039814)
(2.11951 -8.87628e-23 -0.0233966)
(2.05371 -2.0276e-23 -0.00910568)
(1.96707 6.27091e-23 0.00155577)
(1.84979 3.91121e-20 0.00774854)
(1.68584 1.63501e-17 0.00953748)
(1.44603 -3.05376e-20 0.00889483)
(1.06488 6.11552e-24 0.00816063)
(0.348944 -1.63319e-17 0.00839566)
(0.00184082 8.01583e-18 1.84036)
(-0.000581215 -8.03867e-18 1.6286)
(-0.000112183 8.02452e-18 1.308)
(1.91106 1.58175e-17 -0.0275717)
(1.92236 3.27905e-19 -0.0491723)
(1.94268 -1.61832e-17 -0.0625972)
(1.97378 -2.20405e-39 -0.0660621)
(2.0155 1.5748e-17 -0.0616894)
(2.06787 1.64938e-17 -0.051633)
(2.12896 1.13875e-23 -0.0382883)
(2.19412 1.67099e-17 -0.0236575)
(2.25659 1.64991e-17 -0.00968445)
(2.30773 7.88658e-24 0.00146413)
(2.33926 -1.6399e-17 0.00830489)
(2.34453 -1.98063e-23 0.0102611)
(2.32036 1.63664e-17 0.00823989)
(2.26643 2.15239e-42 0.00580568)
(2.18502 3.8641e-24 0.00379331)
)
;
    }
    upperWall
    {
        type            calculated;
        value           nonuniform 0();
    }
    lowerWall
    {
        type            calculated;
        value           uniform (0 0 0);
    }
    frontAndBack
    {
        type            empty;
    }
    procBoundary4to1
    {
        type            processor;
        value           uniform (0 0 0);
    }
    procBoundary4to2
    {
        type            processor;
        value           uniform (0 0 0);
    }
    procBoundary4to3
    {
        type            processor;
        value           uniform (0 0 0);
    }
    procBoundary4to5
    {
        type            processor;
        value           uniform (0 0 0);
    }
}


// ************************************************************************* //
