/*--------------------------------*- C++ -*----------------------------------*\
| =========                 |                                                 |
| \\      /  F ield         | OpenFOAM: The Open Source CFD Toolbox           |
|  \\    /   O peration     | Version:  dev                                   |
|   \\  /    A nd           | Web:      www.OpenFOAM.org                      |
|    \\/     M anipulation  |                                                 |
\*---------------------------------------------------------------------------*/
FoamFile
{
    version     2.0;
    format      ascii;
    class       surfaceScalarField;
    location    "4.75";
    object      meshPhi;
}
// * * * * * * * * * * * * * * * * * * * * * * * * * * * * * * * * * * * * * //

dimensions      [0 3 -1 0 0 0 0];

internalField   nonuniform List<scalar> 
5457
(
-2.20818e-05
2.27734e-07
-4.28911e-05
6.72951e-07
-6.25113e-05
1.12209e-06
-8.10602e-05
1.59314e-06
-9.79769e-05
2.08115e-06
-0.000112317
2.56006e-06
-0.000123049
2.9922e-06
-0.000129302
3.33605e-06
-0.00013054
3.55125e-06
-0.000126668
3.60784e-06
-0.000118053
3.49219e-06
-0.000105487
3.2067e-06
-9.00855e-05
2.77148e-06
-7.31351e-05
2.22236e-06
-5.59393e-05
1.6064e-06
-3.9669e-05
9.75566e-07
-2.52499e-05
3.79943e-07
-1.32962e-05
-1.38548e-07
-4.09343e-06
-5.5081e-07
2.39208e-06
-8.43349e-07
5.80401e-06
-9.82301e-07
6.52783e-06
-9.45432e-07
5.90847e-06
-7.9717e-07
4.6856e-06
-6.16763e-07
3.27262e-06
-4.3873e-07
1.97415e-06
-2.8152e-07
9.75688e-07
-1.57242e-07
3.50202e-07
-7.14804e-08
7.26444e-08
-2.35197e-08
-4.25716e-09
-2.19091e-05
4.50489e-07
-4.2623e-05
1.33291e-06
-6.22364e-05
2.22694e-06
-8.08583e-05
3.16857e-06
-9.79142e-05
4.14768e-06
-0.00011244
5.1119e-06
-0.000123382
5.98406e-06
-0.000129838
6.67951e-06
-0.000131252
7.11954e-06
-0.000127505
7.24459e-06
-0.000118953
7.02453e-06
-0.000106383
6.46271e-06
-9.09133e-05
5.59845e-06
-7.38466e-05
4.50302e-06
-5.65041e-05
3.27062e-06
-4.00765e-05
2.00584e-06
-2.55077e-05
8.09743e-07
-1.34269e-05
-2.32684e-07
-4.13218e-06
-1.06199e-06
2.39142e-06
-1.64946e-06
5.85427e-06
-1.93111e-06
6.60774e-06
-1.86446e-06
5.95659e-06
-1.57246e-06
4.71042e-06
-1.21423e-06
3.2806e-06
-8.61969e-07
1.97243e-06
-5.51661e-07
9.70464e-07
-3.06962e-07
3.45837e-07
-1.3872e-07
7.07156e-08
-4.52185e-08
-7.96529e-09
-2.1695e-05
6.6475e-07
-4.22724e-05
1.96957e-06
-6.18367e-05
3.29777e-06
-8.04948e-05
4.70408e-06
-9.7665e-05
6.17376e-06
-0.000112368
7.62761e-06
-0.000123532
8.94751e-06
-0.000130231
1.00047e-05
-0.000131882
1.06849e-05
-0.000128343
1.08989e-05
-0.000119944
1.05966e-05
-0.000107463
9.78046e-06
-9.20134e-05
8.50716e-06
-7.49028e-05
6.88197e-06
-5.74659e-05
5.04534e-06
-4.09103e-05
3.15407e-06
-2.61982e-05
1.36055e-06
-1.39756e-05
-2.06396e-07
-4.5539e-06
-1.45576e-06
2.07256e-06
-2.34208e-06
5.63593e-06
-2.77495e-06
6.45409e-06
-2.69394e-06
5.82287e-06
-2.27435e-06
4.5994e-06
-1.75288e-06
3.19422e-06
-1.24074e-06
1.91216e-06
-7.90875e-07
9.34678e-07
-4.37678e-07
3.29018e-07
-1.96261e-07
6.51879e-08
-6.32353e-08
-1.08333e-08
-2.14491e-05
8.6625e-07
-4.18477e-05
2.57051e-06
-6.13139e-05
4.31508e-06
-7.9959e-05
6.17412e-06
-9.72006e-05
8.12758e-06
-0.00011205
1.00688e-05
-0.000123428
1.18425e-05
-0.000130394
1.32792e-05
-0.000132337
1.42245e-05
-0.000129086
1.45568e-05
-0.000120944
1.42059e-05
-0.000108664
1.31711e-05
-9.3346e-05
1.15235e-05
-7.6293e-05
9.39988e-06
-5.88438e-05
6.9847e-06
-4.22173e-05
4.48559e-06
-2.73908e-05
2.10565e-06
-1.50266e-05
1.79023e-08
-5.45009e-06
-1.65411e-06
1.33896e-06
-2.84724e-06
5.05215e-06
-3.44693e-06
5.98354e-06
-3.37599e-06
5.44237e-06
-2.85619e-06
4.30292e-06
-2.197e-06
2.97669e-06
-1.54848e-06
1.76777e-06
-9.80445e-07
8.53757e-07
-5.377e-07
2.94443e-07
-2.38343e-07
5.5158e-08
-7.56698e-08
-1.25676e-08
-2.11293e-05
1.04975e-06
-4.12855e-05
3.12186e-06
-6.06115e-05
5.25941e-06
-7.92201e-05
7.55483e-06
-9.65306e-05
9.98129e-06
-0.000111549
1.24064e-05
-0.000123187
1.4642e-05
-0.00013049
1.64791e-05
-0.000132814
1.77202e-05
-0.00012995
1.82089e-05
-0.000122165
1.78541e-05
-0.00011018
1.66483e-05
-9.50752e-05
1.46741e-05
-7.81422e-05
1.20957e-05
-6.07217e-05
9.13859e-06
-4.40431e-05
6.05893e-06
-2.91002e-05
3.10942e-06
-1.65739e-05
5.0742e-07
-6.80635e-06
-1.59e-06
1.89329e-07
-3.1007e-06
4.10242e-06
-3.88764e-06
5.20508e-06
-3.85899e-06
4.81402e-06
-3.27692e-06
3.81592e-06
-2.51633e-06
2.62063e-06
-1.76381e-06
1.53097e-06
-1.106e-06
7.20396e-07
-5.98245e-07
2.38359e-07
-2.60576e-07
3.99162e-08
-8.09312e-08
-1.29155e-08
-2.07326e-05
1.21112e-06
-4.05825e-05
3.61202e-06
-5.97232e-05
6.11206e-06
-7.8266e-05
8.82055e-06
-9.56373e-05
1.17059e-05
-0.000110847
1.46138e-05
-0.000122796
1.73216e-05
-0.000130506
1.95799e-05
-0.000133299
2.115e-05
-0.000130924
2.18403e-05
-0.000123602
2.15354e-05
-0.000112015
2.0218e-05
-9.72127e-05
1.79768e-05
-8.04719e-05
1.49995e-05
-6.31324e-05
1.15484e-05
-4.64325e-05
7.92511e-06
-3.13825e-05
4.43005e-06
-1.86853e-05
1.32479e-06
-8.7011e-06
-1.1992e-06
-1.46016e-06
-3.03917e-06
2.70558e-06
-4.03733e-06
4.04459e-06
-4.08961e-06
3.87354e-06
-3.49252e-06
3.08868e-06
-2.67763e-06
2.09333e-06
-1.864e-06
1.18419e-06
-1.15411e-06
5.26894e-07
-6.12558e-07
1.58232e-07
-2.60211e-07
1.92123e-08
-7.8215e-08
-1.17889e-08
-2.02563e-05
1.34665e-06
-3.97322e-05
4.02969e-06
-5.86366e-05
6.85428e-06
-7.7084e-05
9.94756e-06
-9.45092e-05
1.32751e-05
-0.000109929
1.66617e-05
-0.000122233
1.98498e-05
-0.000130418
2.25507e-05
-0.000133772
2.4486e-05
-0.000131991
2.54283e-05
-0.000125245
2.52352e-05
-0.000114165
2.38748e-05
-9.97634e-05
2.14375e-05
-8.32989e-05
1.81287e-05
-6.61065e-05
1.42431e-05
-4.94303e-05
1.01235e-05
-3.4297e-05
6.11513e-06
-2.14339e-05
2.52314e-06
-1.12218e-05
-4.25652e-07
-3.71019e-06
-2.60545e-06
7.61302e-07
-3.8406e-06
2.4159e-06
-4.01836e-06
2.55035e-06
-3.46182e-06
2.06607e-06
-2.64902e-06
1.35858e-06
-1.82745e-06
7.0945e-07
-1.11228e-06
2.67483e-07
-5.74928e-07
5.35507e-08
-2.35415e-07
-6.39307e-09
-6.72524e-08
-9.24471e-09
-1.96947e-05
1.45224e-06
-3.87235e-05
4.36329e-06
-5.73354e-05
7.469e-06
-7.56571e-05
1.09156e-05
-9.31297e-05
1.46653e-05
-0.000108773
1.8521e-05
-0.000121471
2.21936e-05
-0.000130199
2.5357e-05
-0.000134203
2.76946e-05
-0.000133123
2.89425e-05
-0.000127068
2.89282e-05
-0.00011661
2.76012e-05
-0.000102718
2.50478e-05
-8.6626e-05
2.14856e-05
-6.96633e-05
1.7237e-05
-5.30758e-05
1.26816e-05
-3.79016e-05
8.2042e-06
-2.48918e-05
4.15008e-06
-1.44548e-05
7.82426e-07
-6.6646e-06
-1.7461e-06
-1.84077e-06
-3.24523e-06
2.23124e-07
-3.59877e-06
7.72742e-07
-3.14789e-06
6.99559e-07
-2.40382e-06
3.87017e-07
-1.63683e-06
9.40205e-08
-9.71366e-07
-5.89953e-08
-4.82373e-07
-7.37556e-08
-1.86206e-07
-3.56012e-08
-4.86356e-08
-5.52511e-09
-1.90394e-05
1.52363e-06
-3.75443e-05
4.60137e-06
-5.58082e-05
7.93997e-06
-7.39699e-05
1.1704e-05
-9.14767e-05
1.58503e-05
-0.000107352
2.01611e-05
-0.000120478
2.43179e-05
-0.00012981
2.79607e-05
-0.000134551
3.07358e-05
-0.000134278
3.23425e-05
-0.00012903
3.25763e-05
-0.000119313
3.13638e-05
-0.000106045
2.87812e-05
-9.04303e-05
2.50523e-05
-7.37932e-05
2.05217e-05
-5.73812e-05
1.56015e-05
-4.22384e-05
1.0713e-05
-2.91306e-05
6.23695e-06
-1.84898e-05
2.46872e-06
-1.04223e-05
-4.11555e-07
-5.20121e-06
-2.20202e-06
-2.62023e-06
-2.78855e-06
-1.52023e-06
-2.51885e-06
-1.0435e-06
-1.92134e-06
-8.33023e-07
-1.28152e-06
-6.59675e-07
-7.28463e-07
-4.42697e-07
-3.36478e-07
-2.15441e-07
-1.15372e-07
-6.47933e-08
-2.42927e-08
-1.19727e-09
-1.82809e-05
1.55725e-06
-3.61801e-05
4.73438e-06
-5.40407e-05
8.25302e-06
-7.20051e-05
1.22937e-05
-8.95257e-05
1.68057e-05
-0.000105634
2.15517e-05
-0.000119214
2.61869e-05
-0.000129203
3.03201e-05
-0.000134759
3.3563e-05
-0.000135392
3.55786e-05
-0.000131062
3.61282e-05
-0.000122205
3.51123e-05
-0.00010968
3.25937e-05
-9.46572e-05
2.87954e-05
-7.84509e-05
2.40739e-05
-6.23139e-05
1.88674e-05
-4.72999e-05
1.36327e-05
-3.41793e-05
8.78551e-06
-2.33905e-05
4.6503e-06
-1.50646e-05
1.42928e-06
-9.39452e-06
-6.74656e-07
-6.16754e-06
-1.55627e-06
-4.3568e-06
-1.55401e-06
-3.16549e-06
-1.1923e-06
-2.28303e-06
-7.61153e-07
-1.524e-06
-3.88803e-07
-8.58487e-07
-1.44148e-07
-3.55935e-07
-2.84349e-08
-8.8196e-08
2.99998e-09
3.05939e-09
-1.74105e-05
1.54965e-06
-3.46167e-05
4.7529e-06
-5.20158e-05
8.39428e-06
-6.97426e-05
1.26667e-05
-8.72507e-05
1.75089e-05
-0.000103583
2.26641e-05
-0.00011763
2.77644e-05
-0.000128316
3.2391e-05
-0.000134753
3.61238e-05
-0.000136378
3.85905e-05
-0.000133064
3.95171e-05
-0.000125173
3.87754e-05
-0.000113508
3.64126e-05
-9.92031e-05
3.26473e-05
-8.35548e-05
2.78398e-05
-6.7811e-05
2.24432e-05
-5.30325e-05
1.69402e-05
-3.99973e-05
1.178e-05
-2.91452e-05
7.31846e-06
-2.06076e-05
3.7782e-06
-1.44381e-05
1.34731e-06
-1.0414e-05
1.08316e-07
-7.70759e-06
-2.51271e-07
-5.61997e-06
-2.22497e-07
-3.90524e-06
-8.6811e-08
-2.4433e-06
3.40115e-08
-1.26632e-06
8.24311e-08
-4.75168e-07
6.68245e-08
-9.98254e-08
3.00565e-08
6.6298e-09
-1.64173e-05
1.49753e-06
-3.28361e-05
4.64816e-06
-4.97132e-05
8.35176e-06
-6.71588e-05
1.28088e-05
-8.4623e-05
1.79411e-05
-0.000101159
2.34728e-05
-0.000115671
2.90154e-05
-0.000127074
3.41284e-05
-0.000134437
3.83642e-05
-0.000137117
4.13148e-05
-0.000134898
4.26693e-05
-0.000128059
4.22696e-05
-0.000117351
4.01446e-05
-0.000103886
3.65062e-05
-8.89416e-05
3.17194e-05
-7.37426e-05
2.62451e-05
-5.9331e-05
2.05751e-05
-4.64863e-05
1.51785e-05
-3.56574e-05
1.04407e-05
-2.69653e-05
6.60825e-06
-2.02546e-05
3.84274e-06
-1.52719e-05
2.18706e-06
-1.14697e-05
1.36966e-06
-8.3006e-06
9.6543e-07
-5.60072e-06
7.17486e-07
-3.33834e-06
5.18629e-07
-1.61616e-06
3.27892e-07
-5.50798e-07
1.62139e-07
-9.31571e-08
5.39156e-08
9.0232e-09
-1.52898e-05
1.39816e-06
-3.08225e-05
4.41379e-06
-4.71166e-05
8.11765e-06
-6.4231e-05
1.27087e-05
-8.16106e-05
1.8085e-05
-9.83218e-05
2.39532e-05
-0.00011328
2.99081e-05
-0.000125395
3.54899e-05
-0.000133695
4.02259e-05
-0.000137462
4.36751e-05
-0.000136384
4.54932e-05
-0.000130658
4.54931e-05
-0.000120986
4.36802e-05
-0.000108464
4.02575e-05
-9.43584e-05
3.55923e-05
-7.98714e-05
3.01517e-05
-6.59907e-05
2.4428e-05
-5.34629e-05
1.88921e-05
-4.27422e-05
1.3946e-05
-3.39418e-05
9.85849e-06
-2.66515e-05
6.75622e-06
-2.05562e-05
4.62923e-06
-1.54643e-05
3.26254e-06
-1.10444e-05
2.32943e-06
-7.23613e-06
1.61591e-06
-4.11524e-06
1.0388e-06
-1.85443e-06
5.77039e-07
-5.58463e-07
2.51331e-07
-5.84209e-08
7.31003e-08
1.01209e-08
-1.40125e-05
1.24774e-06
-2.85593e-05
4.0415e-06
-4.42172e-05
7.68473e-06
-6.09453e-05
1.23597e-05
-7.81859e-05
1.79296e-05
-9.50244e-05
2.40879e-05
-0.000110389
3.04148e-05
-0.000123182
3.64322e-05
-0.000132392
4.16438e-05
-0.000137229
4.55831e-05
-0.000137296
4.78792e-05
-0.000132711
4.83185e-05
-0.000124134
4.68824e-05
-0.000112646
4.37612e-05
-9.95035e-05
3.93189e-05
-8.58819e-05
3.40208e-05
-7.26979e-05
2.83559e-05
-6.06256e-05
2.27863e-05
-5.00986e-05
1.77126e-05
-4.12229e-05
1.34172e-05
-3.33183e-05
9.98545e-06
-2.5985e-05
7.34605e-06
-1.94434e-05
5.35301e-06
-1.3649e-05
3.80935e-06
-8.66245e-06
2.56517e-06
-4.67843e-06
1.56815e-06
-1.92744e-06
8.17896e-07
-4.66623e-07
3.32163e-07
2.33976e-08
8.95847e-08
1.09681e-08
-1.26836e-05
1.10122e-06
-2.60941e-05
3.61566e-06
-4.0985e-05
7.07595e-06
-5.72751e-05
1.1752e-05
-7.43102e-05
1.74685e-05
-9.12045e-05
2.38651e-05
-0.000106904
3.05125e-05
-0.000120303
3.69169e-05
-0.000130353
4.25641e-05
-0.000136198
4.69676e-05
-0.000137365
4.97347e-05
-0.000133915
5.0631e-05
-0.000126473
4.96214e-05
-0.000116109
4.68825e-05
-0.000104059
4.27659e-05
-9.14454e-05
3.77238e-05
-7.91015e-05
3.22313e-05
-6.76081e-05
2.67323e-05
-5.73495e-05
2.16156e-05
-4.84175e-05
1.71653e-05
-3.98794e-05
1.34213e-05
-3.12353e-05
1.02471e-05
-2.31434e-05
7.57105e-06
-1.5916e-05
5.3535e-06
-9.74859e-06
3.5324e-06
-4.94972e-06
2.09005e-06
-1.78097e-06
1.04291e-06
-2.18047e-07
3.98287e-07
2.15718e-07
9.98199e-08
3.4069e-09
4.00281e-07
-1.4951e-10
2.23152e-06
2.4243e-09
7.79755e-06
1.08775e-08
1.9524e-05
4.81717e-08
3.88487e-05
1.40755e-07
6.54089e-05
3.17366e-07
9.72933e-05
5.78424e-07
0.000132145
8.77526e-07
0.00016818
1.17091e-06
0.000200734
1.34726e-06
0.000226534
1.20438e-06
0.000248172
6.99382e-07
0.000267657
-1.00266e-07
0.000285091
-1.1776e-06
0.000300262
-2.43763e-06
0.000312781
-3.76679e-06
0.000322141
-5.09103e-06
0.000327792
-6.32855e-06
0.000329192
-7.39517e-06
0.000325841
-8.21069e-06
0.000317351
-8.7506e-06
0.000303449
-8.99766e-06
0.000283991
-8.94888e-06
0.000258914
-8.6045e-06
0.000228252
-7.98111e-06
0.000192224
-7.09033e-06
0.000151122
-5.93035e-06
0.000105164
-4.52781e-06
5.44486e-05
-2.8867e-06
-1.00872e-06
4.16542e-07
1.14867e-10
2.32761e-06
5.34045e-09
8.04981e-06
2.64565e-08
1.9955e-05
1.0547e-07
3.93745e-05
2.9662e-07
6.58193e-05
6.49676e-07
9.73288e-05
1.15797e-06
0.000131581
1.7504e-06
0.000166817
2.31778e-06
0.00019901
2.61737e-06
0.00022473
2.3156e-06
0.000246187
1.30846e-06
0.000265755
-3.23978e-07
0.000283389
-2.45486e-06
0.000298781
-4.91125e-06
0.000311527
-7.5279e-06
0.000321123
-1.01545e-05
0.000327012
-1.26123e-05
0.00032861
-1.47059e-05
0.000325431
-1.63197e-05
0.000317074
-1.73753e-05
0.000303264
-1.78482e-05
0.000283869
-1.7741e-05
0.000258833
-1.70463e-05
0.000228211
-1.57973e-05
0.000192199
-1.40214e-05
0.000151091
-1.17326e-05
0.000105136
-8.96012e-06
5.44343e-05
-5.71199e-06
-1.99678e-06
4.38837e-07
1.53076e-10
2.44787e-06
8.64735e-09
8.31536e-06
4.55867e-08
2.02724e-05
1.69301e-07
3.94338e-05
4.60591e-07
6.51442e-05
9.80544e-07
9.54794e-05
1.71776e-06
0.000128308
2.56591e-06
0.000162081
3.33838e-06
0.000193353
3.70823e-06
0.000218758
3.20572e-06
0.000240162
1.68835e-06
0.000259972
-7.29602e-07
0.000278059
-3.87118e-06
0.000294036
-7.47208e-06
0.00030741
-1.13036e-05
0.000317641
-1.51541e-05
0.000324115
-1.87321e-05
0.000326218
-2.17663e-05
0.00032346
-2.41196e-05
0.00031546
-2.5671e-05
0.000301965
-2.6365e-05
0.000282823
-2.61817e-05
0.000257987
-2.51358e-05
0.000227544
-2.32814e-05
0.000191687
-2.06552e-05
0.000150695
-1.72883e-05
0.000104849
-1.32075e-05
5.42826e-05
-8.41844e-06
-2.94221e-06
4.63664e-07
-1.33667e-10
2.56259e-06
1.18873e-08
8.50286e-06
6.74357e-08
2.02867e-05
2.4218e-07
3.87271e-05
6.3452e-07
6.30372e-05
1.30817e-06
9.14678e-05
2.23858e-06
0.000122196
3.26889e-06
0.000153967
4.15863e-06
0.000183856
4.50604e-06
0.000208779
3.756e-06
0.000230312
1.73648e-06
0.000250596
-1.41907e-06
0.000269397
-5.48145e-06
0.000286244
-1.01318e-05
0.000300579
-1.5093e-05
0.000311757
-2.00409e-05
0.000319094
-2.46053e-05
0.000321977
-2.84962e-05
0.000319902
-3.15228e-05
0.000312508
-3.35316e-05
0.000299529
-3.4415e-05
0.000280808
-3.41495e-05
0.000256333
-3.27777e-05
0.000226212
-3.03556e-05
0.000190648
-2.69298e-05
0.000149911
-2.2543e-05
0.000104294
-1.72251e-05
5.39833e-05
-1.09774e-05
-3.83495e-06
4.92861e-07
-9.10256e-10
2.66958e-06
1.51589e-08
8.60738e-06
9.34616e-08
2.00094e-05
3.28156e-07
3.73682e-05
8.2228e-07
5.98478e-05
1.62675e-06
8.59596e-05
2.68805e-06
0.00011422
3.81076e-06
0.000143652
4.72166e-06
0.000171891
4.95339e-06
0.000196275
3.91141e-06
0.000218052
1.38968e-06
0.000238959
-2.45137e-06
0.000258632
-7.32903e-06
0.00027652
-1.29128e-05
0.000291971
-1.88698e-05
0.000304253
-2.47778e-05
0.000312635
-3.0219e-05
0.000316484
-3.48771e-05
0.000315283
-3.85024e-05
0.00030865
-4.08984e-05
0.000296304
-4.19324e-05
0.000278121
-4.1597e-05
0.000254117
-3.99284e-05
0.000224416
-3.69789e-05
0.000189234
-3.28072e-05
0.000148846
-2.74654e-05
0.000103556
-2.09878e-05
5.35906e-05
-1.33737e-05
-4.67094e-06
5.21661e-07
-1.36612e-09
2.74394e-06
2.09686e-08
8.57062e-06
1.26426e-07
1.93668e-05
4.23739e-07
3.53521e-05
1.00857e-06
5.5735e-05
1.90436e-06
7.93229e-05
3.02178e-06
0.000104976
4.14071e-06
0.000131967
4.96608e-06
0.00015845
5.01191e-06
0.000182272
3.64157e-06
0.000204344
6.14201e-07
0.000225913
-3.84766e-06
0.000246519
-9.44569e-06
0.00026553
-1.58452e-05
0.000282159
-2.26346e-05
0.000295615
-2.93577e-05
0.000305146
-3.5568e-05
0.000310072
-4.08884e-05
0.000309841
-4.50147e-05
0.000304044
-4.77259e-05
0.00029242
-4.88921e-05
0.000274869
-4.84903e-05
0.000251421
-4.65434e-05
0.000222218
-4.31067e-05
0.000187491
-3.82462e-05
0.00014753
-3.2021e-05
0.000102655
-2.44694e-05
5.31225e-05
-1.55904e-05
-5.44408e-06
5.39487e-07
-4.00495e-10
2.75706e-06
3.16999e-08
8.34986e-06
1.67315e-07
1.83448e-05
5.20973e-07
3.27692e-05
1.17023e-06
5.09519e-05
2.10408e-06
7.20069e-05
3.19888e-06
9.51076e-05
4.21932e-06
0.000119725
4.86211e-06
0.000144501
4.64654e-06
0.000167779
2.91585e-06
0.000190128
-5.93416e-07
0.00021233
-5.61497e-06
0.000233838
-1.1837e-05
0.000253932
-1.89194e-05
0.000271719
-2.63969e-05
0.000286345
-3.37922e-05
0.000297027
-4.06408e-05
0.000303049
-4.65107e-05
0.000303812
-5.10439e-05
0.000298888
-5.40078e-05
0.000288038
-5.52769e-05
0.00027117
-5.47994e-05
0.000248331
-5.25911e-05
0.00021968
-4.87072e-05
0.000185467
-4.32171e-05
0.000145995
-3.61843e-05
0.000101607
-2.76502e-05
5.25799e-05
-1.76144e-05
-6.14964e-06
5.42639e-07
1.32105e-09
2.69945e-06
4.54065e-08
7.93913e-06
2.11234e-07
1.69906e-05
6.07075e-07
2.97862e-05
1.28219e-06
4.58253e-05
2.19063e-06
6.45068e-05
3.18289e-06
8.52588e-05
4.01847e-06
0.000107708
4.39658e-06
0.000130922
3.85079e-06
0.000153684
1.73375e-06
0.000176254
-2.22323e-06
0.000198999
-7.73703e-06
0.000221293
-1.44841e-05
0.000242347
-2.21213e-05
0.000261192
-3.01544e-05
0.000276907
-3.80859e-05
0.000288664
-4.54338e-05
0.000295713
-5.17328e-05
0.000297429
-5.65899e-05
0.000293369
-5.97517e-05
0.000283295
-6.10854e-05
0.000267126
-6.05216e-05
0.000244921
-5.80672e-05
0.000216858
-5.37743e-05
0.000183201
-4.77131e-05
0.000144269
-3.99489e-05
0.000100425
-3.05254e-05
5.19683e-05
-1.94426e-05
-6.78648e-06
5.34705e-07
3.30497e-09
2.57789e-06
5.98543e-08
7.36638e-06
2.50342e-07
1.5409e-05
6.63876e-07
2.66335e-05
1.31637e-06
4.07226e-05
2.13353e-06
5.73088e-05
2.95061e-06
7.60146e-05
3.52897e-06
9.65868e-05
3.57544e-06
0.000118432
2.64755e-06
0.000140702
1.3007e-07
0.000163409
-4.24138e-06
0.000186567
-1.01811e-05
0.00020948
-1.73574e-05
0.000231308
-2.54299e-05
0.000251037
-3.38959e-05
0.000267688
-4.22393e-05
0.000280379
-4.99597e-05
0.000288327
-5.6572e-05
0.000290897
-6.16707e-05
0.000287637
-6.49793e-05
0.000278304
-6.6342e-05
0.00026282
-6.56802e-05
0.000241254
-6.29926e-05
0.000213798
-5.83263e-05
0.000180726
-5.17494e-05
0.000142377
-4.33273e-05
9.91262e-05
-3.31043e-05
5.12955e-05
-2.10812e-05
-7.35684e-06
5.1589e-07
5.8972e-09
2.40296e-06
7.37116e-08
6.68942e-06
2.75425e-07
1.37516e-05
6.72098e-07
2.35724e-05
1.2499e-06
3.59962e-05
1.9159e-06
5.0829e-05
2.49814e-06
6.78366e-05
2.76309e-06
8.6857e-05
2.42719e-06
0.00010755
1.07996e-06
0.000129351
-1.84291e-06
0.000152084
-6.59506e-06
0.000175495
-1.2904e-05
0.000198833
-2.0432e-05
0.000221211
-2.88361e-05
0.000241597
-3.76243e-05
0.000258975
-4.62682e-05
0.000272415
-5.42473e-05
0.000281105
-6.10687e-05
0.000284398
-6.63231e-05
0.000281843
-6.97164e-05
0.000273184
-7.10698e-05
0.000258344
-7.02962e-05
0.000237401
-6.73855e-05
0.000210552
-6.2378e-05
0.000178084
-5.5338e-05
0.000140345
-4.63286e-05
9.77282e-05
-3.53937e-05
5.05712e-05
-2.25345e-05
-7.86228e-06
4.85151e-07
9.13557e-09
2.1945e-06
8.39782e-08
5.99109e-06
2.75534e-07
1.219e-05
6.16426e-07
2.085e-05
1.072e-06
3.19383e-05
1.53856e-06
4.53798e-05
1.84065e-06
6.10434e-05
1.75129e-06
7.88335e-05
9.97428e-07
9.85863e-05
-7.97667e-07
0.000119941
-4.13397e-06
0.000142583
-9.24321e-06
0.000166074
-1.58774e-05
0.000189632
-2.3697e-05
0.000212329
-3.23492e-05
0.00023313
-4.13563e-05
0.000250999
-5.01895e-05
0.000264975
-5.83186e-05
0.000274227
-6.52508e-05
0.000278097
-7.05742e-05
0.000276124
-7.39841e-05
0.000268048
-7.52867e-05
0.000253792
-7.43846e-05
0.000233433
-7.1258e-05
0.000207176
-6.59392e-05
0.000175314
-5.84861e-05
0.000138204
-4.8958e-05
9.62494e-05
-3.73971e-05
4.9804e-05
-2.38046e-05
-8.30349e-06
4.44001e-07
1.30109e-08
1.98565e-06
8.66637e-08
5.36912e-06
2.41292e-07
1.08886e-05
4.90554e-07
1.86715e-05
7.86459e-07
2.87622e-05
1.01801e-06
4.11598e-05
1.00683e-06
5.58129e-05
5.29746e-07
7.26728e-05
-6.74488e-07
9.1678e-05
-2.94528e-06
0.000112606
-6.71118e-06
0.000135058
-1.21687e-05
0.000158466
-1.90912e-05
0.000182039
-2.71428e-05
0.000204834
-3.59659e-05
0.000225813
-4.5095e-05
0.000243934
-5.40098e-05
0.000258224
-6.21845e-05
0.000267839
-6.91317e-05
0.000272115
-7.44407e-05
0.000270585
-7.7802e-05
0.000262985
-7.90122e-05
0.000249233
-7.79638e-05
0.000229409
-7.46268e-05
0.000203716
-6.9024e-05
0.000172452
-6.12055e-05
0.000135978
-5.12248e-05
9.47064e-05
-3.91213e-05
4.90021e-05
-2.48958e-05
-8.68203e-06
3.97877e-07
1.71221e-08
1.82497e-06
7.74932e-08
4.93239e-06
1.68153e-07
9.99643e-06
2.97796e-07
1.71927e-05
4.04608e-07
2.6609e-05
3.69458e-07
3.82839e-05
1.26727e-08
5.22247e-05
-8.86068e-07
6.84161e-05
-2.57352e-06
8.68424e-05
-5.34572e-06
0.000107364
-9.55582e-06
0.000129542
-1.53549e-05
0.000152728
-2.25297e-05
0.000176131
-3.07535e-05
0.000198811
-3.96707e-05
0.000219741
-4.88302e-05
0.000237881
-5.77271e-05
0.00025226
-6.58494e-05
0.000262034
-7.27209e-05
0.000266538
-7.79373e-05
0.000265303
-8.11889e-05
0.00025806
-8.22667e-05
0.000244725
-8.10543e-05
0.000225374
-7.75114e-05
0.000200209
-7.16502e-05
0.000169527
-6.35115e-05
0.00013369
-5.31417e-05
9.3114e-05
-4.0576e-05
4.81729e-05
-2.58144e-05
-9.00012e-06
3.78506e-07
1.76207e-08
1.79616e-06
5.09058e-08
4.81653e-06
5.29412e-08
9.67477e-06
3.5227e-08
1.65609e-05
-8.01258e-08
2.55873e-05
-4.1956e-07
3.68182e-05
-1.15953e-06
5.02932e-05
-2.51117e-06
6.60198e-05
-4.70055e-06
8.40098e-05
-7.98706e-06
0.000104154
-1.2653e-05
0.00012599
-1.8785e-05
0.000148834
-2.61731e-05
0.000171903
-3.45085e-05
0.000194275
-4.34436e-05
0.00021494
-5.2546e-05
0.000232879
-6.13326e-05
0.000247131
-6.93116e-05
0.000256864
-7.60236e-05
0.000261418
-8.10754e-05
0.000260326
-8.41613e-05
0.000253318
-8.50699e-05
0.000240308
-8.36774e-05
0.000221365
-7.9933e-05
0.000196686
-7.38379e-05
0.000166564
-6.54222e-05
0.000131359
-5.47239e-05
9.14852e-05
-4.17731e-05
4.73232e-05
-2.65681e-05
-9.26048e-06
5.65986e-07
-3.36902e-08
2.13886e-06
-1.56262e-08
5.2603e-06
-1.30177e-07
1.01318e-05
-3.37044e-07
1.69327e-05
-7.18976e-07
2.57882e-05
-1.40415e-06
3.67848e-05
-2.56314e-06
4.99804e-05
-4.39237e-06
6.53964e-05
-7.09072e-06
8.30743e-05
-1.08989e-05
0.000102875
-1.60333e-05
0.000124304
-2.24817e-05
0.000146697
-3.0035e-05
0.000169279
-3.84173e-05
0.00019116
-4.72917e-05
0.000211361
-5.6252e-05
0.000228887
-6.48411e-05
0.000242806
-7.2592e-05
0.000252304
-7.90666e-05
0.000256734
-8.3887e-05
0.000255639
-8.67555e-05
0.000248749
-8.74607e-05
0.000235973
-8.58727e-05
0.000217375
-8.19308e-05
0.000193143
-7.56239e-05
0.000163562
-6.69706e-05
0.000128984
-5.59993e-05
8.9822e-05
-4.27342e-05
4.64551e-05
-2.7171e-05
-9.46828e-06
-1.19468e-05
1.00474e-06
-2.45671e-05
3.27319e-06
-3.88994e-05
6.4227e-06
-5.51803e-05
1.09091e-05
-7.25845e-05
1.66717e-05
-9.00905e-05
2.32571e-05
-0.000106633
3.01683e-05
-0.000121063
3.69044e-05
-0.000132253
4.29375e-05
-0.000139256
4.77669e-05
-0.000141522
5.09844e-05
-0.000139076
5.23423e-05
-0.000132556
5.17978e-05
-0.000123054
4.95155e-05
-0.000111813
4.58243e-05
-9.99075e-05
4.115e-05
-8.80884e-05
3.59401e-05
-7.68567e-05
3.06112e-05
-6.65497e-05
2.55341e-05
-5.72415e-05
2.09884e-05
-4.77422e-05
1.69665e-05
-3.74105e-05
1.32589e-05
-2.73723e-05
9.86693e-06
-1.83903e-05
6.93368e-06
-1.08204e-05
4.50686e-06
-5.07615e-06
2.60433e-06
-1.41309e-06
1.25077e-06
3.10634e-07
4.30411e-07
7.26091e-07
5.02221e-08
-6.66507e-08
4.26487e-07
-1.1133e-05
9.09181e-07
-2.28202e-05
2.98405e-06
-3.60907e-05
5.85789e-06
-5.16734e-05
9.99477e-06
-6.89952e-05
1.55691e-05
-8.67889e-05
2.22285e-05
-0.00010385
2.93468e-05
-0.000119014
3.63501e-05
-0.000131092
4.27076e-05
-0.000139069
4.79102e-05
-0.00014235
5.15434e-05
-0.000140951
5.33551e-05
-0.000135526
5.33012e-05
-0.000127171
5.15334e-05
-0.00011708
4.83496e-05
-0.000106219
4.41363e-05
-9.5218e-05
3.93005e-05
-8.44899e-05
3.42262e-05
-7.43288e-05
2.92638e-05
-6.48078e-05
2.46912e-05
-5.45541e-05
2.04631e-05
-4.26986e-05
1.62757e-05
-3.07951e-05
1.21751e-05
-2.01694e-05
8.51658e-06
-1.13317e-05
5.48343e-06
-4.74865e-06
3.1197e-06
-6.01574e-07
1.4428e-06
1.39091e-06
4.02456e-07
1.95803e-06
-1.32685e-07
-3.61446e-07
1.9455e-06
-1.02235e-05
7.79511e-07
-2.10619e-05
2.63045e-06
-3.33497e-05
5.3064e-06
-4.78629e-05
9.14587e-06
-6.45927e-05
1.4348e-05
-8.24367e-05
2.08224e-05
-9.98878e-05
2.80214e-05
-0.000115633
3.52243e-05
-0.000128436
4.18312e-05
-0.000137233
4.7339e-05
-0.00014142
5.13374e-05
-0.000141035
5.35817e-05
-0.000136758
5.40287e-05
-0.000129666
5.2811e-05
-0.000120855
5.01892e-05
-0.000111136
4.64999e-05
-0.000101013
4.21018e-05
-9.08239e-05
3.73441e-05
-8.08451e-05
3.25588e-05
-7.12061e-05
2.80325e-05
-6.05271e-05
2.37328e-05
-4.73603e-05
1.92095e-05
-3.35945e-05
1.44484e-05
-2.14104e-05
1.0079e-05
-1.13647e-05
6.46405e-06
-3.9273e-06
3.6432e-06
8.48068e-07
1.61642e-06
3.36222e-06
2.97489e-07
4.38816e-06
-4.70264e-07
-8.94671e-07
4.782e-06
-9.12124e-06
6.17847e-07
-1.9002e-05
2.17646e-06
-3.04346e-05
4.62226e-06
-4.39439e-05
8.24901e-06
-5.96663e-05
1.31294e-05
-7.70422e-05
1.9224e-05
-9.46203e-05
2.62413e-05
-0.000110773
3.35126e-05
-0.0001241
4.02933e-05
-0.000133517
4.6028e-05
-0.000138479
5.03313e-05
-0.000139064
5.29757e-05
-0.00013597
5.39156e-05
-0.000130214
5.32584e-05
-0.000122734
5.12207e-05
-0.00011417
4.80822e-05
-0.000104908
4.41514e-05
-9.52362e-05
3.97444e-05
-8.54386e-05
3.51754e-05
-7.57499e-05
3.07365e-05
-6.49985e-05
2.64281e-05
-5.105e-05
2.1749e-05
-3.57189e-05
1.65814e-05
-2.2039e-05
1.16269e-05
-1.0785e-05
7.44364e-06
-2.40787e-06
4.1648e-06
3.20646e-06
1.76171e-06
6.54229e-06
1.08076e-07
8.40301e-06
-9.68705e-07
-1.67598e-06
9.56468e-06
-7.80671e-06
4.22557e-07
-1.65228e-05
1.6236e-06
-2.69817e-05
3.76615e-06
-3.96033e-05
7.14182e-06
-5.43299e-05
1.17756e-05
-7.08062e-05
1.75276e-05
-8.80254e-05
2.41761e-05
-0.000104339
3.12779e-05
-0.000117979
3.811e-05
-0.000127788
4.39949e-05
-0.00013339
4.85369e-05
-0.0001349
5.1539e-05
-0.00013299
5.29429e-05
-0.000128569
5.28257e-05
-0.000122374
5.13553e-05
-0.000114885
4.87556e-05
-0.000106398
4.529e-05
-9.71718e-05
4.12424e-05
-8.74914e-05
3.69029e-05
-7.76482e-05
3.2541e-05
-6.65995e-05
2.81161e-05
-5.24003e-05
2.32562e-05
-3.64823e-05
1.79855e-05
-2.1733e-05
1.28555e-05
-9.35151e-06
8.3411e-06
9.42088e-08
4.66169e-06
6.73915e-06
1.86254e-06
1.11474e-05
-1.57525e-07
1.41366e-05
-1.587e-06
-2.62502e-06
1.63103e-05
-6.25861e-06
1.94152e-07
-1.35938e-05
9.72847e-07
-2.28612e-05
2.74654e-06
-3.44596e-05
5.79385e-06
-4.82436e-05
1.01335e-05
-6.37436e-05
1.55923e-05
-8.01869e-05
2.18896e-05
-9.62885e-05
2.86787e-05
-0.000110046
3.53841e-05
-0.00012005
4.1302e-05
-0.000126158
4.60076e-05
-0.000128539
4.93161e-05
-0.000127756
5.11346e-05
-0.000124566
5.1503e-05
-0.000119503
5.05436e-05
-0.000112933
4.8436e-05
-0.00010509
4.54099e-05
-9.62079e-05
4.17165e-05
-8.6554e-05
3.76159e-05
-7.6389e-05
3.33442e-05
-6.46166e-05
2.88129e-05
-5.01691e-05
2.37483e-05
-3.44741e-05
1.83936e-05
-1.95605e-05
1.33088e-05
-6.526e-06
8.79184e-06
3.92547e-06
4.95491e-06
1.16986e-05
1.87189e-06
1.73327e-05
-4.91665e-07
2.16012e-05
-2.27548e-06
-3.64176e-06
2.49068e-05
-4.46696e-06
-6.51766e-08
-1.01919e-05
2.30229e-07
-1.80496e-05
1.5727e-06
-2.83986e-05
4.22492e-06
-4.10748e-05
8.1912e-06
-5.55438e-05
1.32971e-05
-7.10196e-05
1.92478e-05
-8.64643e-05
2.56831e-05
-0.000100111
3.21261e-05
-0.00011032
3.79821e-05
-0.000116899
4.28177e-05
-0.000120057
4.63868e-05
-0.000120247
4.85457e-05
-0.00011809
4.93148e-05
-0.000113916
4.87781e-05
-0.000108055
4.70866e-05
-0.000100704
4.44564e-05
-9.20718e-05
4.11054e-05
-8.24081e-05
3.72633e-05
-7.19395e-05
3.31439e-05
-5.96258e-05
2.86641e-05
-4.48855e-05
2.35766e-05
-2.9386e-05
1.81815e-05
-1.47712e-05
1.31113e-05
-1.66826e-06
8.65278e-06
9.41509e-06
4.83068e-06
1.82888e-05
1.63875e-06
2.52272e-05
-9.54361e-07
3.08186e-05
-3.0216e-06
-4.66863e-06
3.52675e-05
-2.42505e-06
-3.52773e-07
-6.3025e-06
-5.96423e-07
-1.2525e-05
2.57489e-07
-2.14032e-05
2.45271e-06
-3.27391e-05
5.97759e-06
-4.59775e-05
1.0651e-05
-6.03058e-05
1.61793e-05
-7.47036e-05
2.21946e-05
-8.78491e-05
2.82758e-05
-9.82736e-05
3.39652e-05
-0.000105465
3.8886e-05
-0.000109404
4.27157e-05
-0.000110457
4.52181e-05
-0.000109063
4.63311e-05
-0.000105452
4.60948e-05
-0.000100068
4.47145e-05
-9.30578e-05
4.24252e-05
-8.46103e-05
3.93978e-05
-7.49686e-05
3.58331e-05
-6.4361e-05
3.19284e-05
-5.19387e-05
2.76152e-05
-3.72349e-05
2.26777e-05
-2.19456e-05
1.74287e-05
-7.62676e-06
1.24843e-05
5.33078e-06
8.11052e-06
1.67022e-05
4.3263e-06
2.64425e-05
1.1095e-06
3.46324e-05
-1.59113e-06
4.16313e-05
-3.84594e-06
-5.71798e-06
4.73698e-05
-1.25332e-07
-6.65067e-07
-1.91148e-06
-1.49685e-06
-6.26746e-06
-1.18264e-06
-1.3449e-05
4.99842e-07
-2.32197e-05
3.52188e-06
-3.50002e-05
7.69627e-06
-4.79651e-05
1.27318e-05
-6.10986e-05
1.82703e-05
-7.33133e-05
2.39163e-05
-8.3557e-05
2.92919e-05
-9.11991e-05
3.40882e-05
-9.59566e-05
3.80253e-05
-9.7996e-05
4.08782e-05
-9.73129e-05
4.24276e-05
-9.40276e-05
4.25207e-05
-8.88623e-05
4.13805e-05
-8.20628e-05
3.93584e-05
-7.37503e-05
3.66261e-05
-6.41861e-05
3.3344e-05
-5.36029e-05
2.96979e-05
-4.13424e-05
2.56352e-05
-2.70502e-05
2.09752e-05
-1.2278e-05
1.60146e-05
1.63274e-06
1.13199e-05
1.43891e-05
7.13018e-06
2.58644e-05
3.45761e-06
3.6092e-05
2.82528e-07
4.52181e-05
-2.44355e-06
5.35031e-05
-4.7869e-06
-6.77899e-06
6.05074e-05
2.43667e-06
-9.97358e-07
2.99047e-06
-2.45758e-06
7.36725e-07
-2.72615e-06
-4.52006e-06
-1.60413e-06
-1.25023e-05
8.62203e-07
-2.26098e-05
4.48061e-06
-3.40177e-05
8.96524e-06
-4.57543e-05
1.39736e-05
-5.68162e-05
1.91402e-05
-6.63789e-05
2.41182e-05
-7.38712e-05
2.8611e-05
-7.90601e-05
3.24025e-05
-8.19158e-05
3.53338e-05
-8.21294e-05
3.72206e-05
-7.94133e-05
3.78139e-05
-7.4417e-05
3.70919e-05
-6.77083e-05
3.53515e-05
-5.94645e-05
3.28642e-05
-5.00224e-05
2.98445e-05
-3.95816e-05
2.6474e-05
-2.76748e-05
2.27101e-05
-1.40519e-05
1.84142e-05
-1.85102e-08
1.38466e-05
1.33237e-05
9.49647e-06
2.57555e-05
5.57164e-06
3.71832e-05
2.0845e-06
4.76357e-05