/*--------------------------------*- C++ -*----------------------------------*\
| =========                 |                                                 |
| \\      /  F ield         | OpenFOAM: The Open Source CFD Toolbox           |
|  \\    /   O peration     | Version:  dev                                   |
|   \\  /    A nd           | Web:      www.OpenFOAM.org                      |
|    \\/     M anipulation  |                                                 |
\*---------------------------------------------------------------------------*/
FoamFile
{
    version     2.0;
    format      ascii;
    class       volVectorField;
    location    "3.88";
    object      cellDisplacement;
}
// * * * * * * * * * * * * * * * * * * * * * * * * * * * * * * * * * * * * * //

dimensions      [0 1 0 0 0 0 0];

internalField   nonuniform List<vector> 
465
(
(0.0094343 0 2.38831e-05)
(0.00898642 0 4.90859e-05)
(0.0083673 0 8.30088e-05)
(0.00755524 0 0.000127788)
(0.0065391 0 0.000185734)
(0.00533122 0 0.000258995)
(0.0039905 0 0.000348548)
(0.00266814 0 0.000450701)
(0.00173009 0 0.000543942)
(0.00960447 0 6.31485e-05)
(0.00922794 0 0.000135041)
(0.00870467 0 0.000231492)
(0.00801953 0 0.000358128)
(0.00716907 0 0.000520565)
(0.00617433 0 0.000722945)
(0.00510286 0 0.000964117)
(0.00410629 0 0.00122701)
(0.00349202 0 0.0014469)
(0.00992219 0 7.80686e-05)
(0.00967806 0 0.000186107)
(0.0093316 0 0.000330168)
(0.00887828 0 0.000517466)
(0.00832512 0 0.000754046)
(0.00770062 0 0.00104172)
(0.00706874 0 0.00137136)
(0.00654496 0 0.00170824)
(0.00631127 0 0.00195993)
(0.0103446 0 5.62312e-05)
(0.0102749 0 0.000184849)
(0.0101593 0 0.000354957)
(0.0100047 0 0.000573282)
(0.0098266 0 0.000843747)
(0.00965347 0 0.0011632)
(0.00952883 0 0.00151359)
(0.00950526 0 0.00184843)
(0.00962238 0 0.00207215)
(0.0108144 0 -9.52275e-06)
(0.0109366 0 0.000121724)
(0.0110721 0 0.000293711)
(0.0112373 0 0.000511216)
(0.0114521 0 0.000774925)
(0.0117367 0 0.00107701)
(0.0121024 0 0.00139425)
(0.0125284 0 0.00167886)
(0.0129222 0 0.00184996)
(0.0112682 0 -0.000120225)
(0.0115732 0 -3.88966e-06)
(0.0119447 0 0.000147135)
(0.0124053 0 0.000335087)
(0.0129749 0 0.000557733)
(0.0136607 0 0.000804794)
(0.0144385 0 0.00105337)
(0.0152195 0 0.00126373)
(0.0158066 0 0.00137861)
(0.0116455 0 -0.000270911)
(0.0121002 0 -0.000184192)
(0.0126612 0 -7.254e-05)
(0.0133538 0 6.38876e-05)
(0.0141948 0 0.000221053)
(0.015178 0 0.000388895)
(0.0162491 0 0.000549346)
(0.0172691 0 0.000676021)
(0.0179713 0 0.000737625)
(0.0118971 0 -0.000451649)
(0.0124503 0 -0.000404692)
(0.0131311 0 -0.000344419)
(0.0139646 0 -0.000272809)
(0.0149632 0 -0.000194404)
(0.0161102 0 -0.000116921)
(0.0173332 0 -5.10292e-05)
(0.0184667 0 -8.13236e-06)
(0.0192134 0 5.10178e-06)
(0.0119921 0 -0.000649203)
(0.0125824 0 -0.000646728)
(0.0133017 0 -0.000642646)
(0.0141714 0 -0.000640041)
(0.0151997 0 -0.000642883)
(0.0163654 0 -0.000655259)
(0.0175923 0 -0.000679565)
(0.0187144 0 -0.000712993)
(0.019442 0 -0.000741297)
(0.011921 0 -0.000849034)
(0.0124865 0 -0.000890302)
(0.0131631 0 -0.000940294)
(0.0139664 0 -0.00100256)
(0.0149005 0 -0.00107987)
(0.0159455 0 -0.00117229)
(0.0170365 0 -0.00127423)
(0.0180327 0 -0.00137061)
(0.0186854 0 -0.00143143)
(0.0116958 0 -0.00103727)
(0.0121833 0 -0.00111676)
(0.0127482 0 -0.00121286)
(0.0133983 0 -0.00132915)
(0.0141337 0 -0.00146716)
(0.0149399 0 -0.00162353)
(0.0157752 0 -0.00178603)
(0.0165463 0 -0.00192954)
(0.0170755 0 -0.0020131)
(0.0113466 0 -0.00120233)
(0.0117181 0 -0.00131096)
(0.012124 0 -0.00144089)
(0.0125623 0 -0.00159556)
(0.0130275 0 -0.0017758)
(0.0135102 0 -0.00197653)
(0.0139968 0 -0.00218176)
(0.014458 0 -0.00235911)
(0.014816 0 -0.00245876)
(0.0109147 0 -0.00133611)
(0.0111527 0 -0.00146267)
(0.0113799 0 -0.00161166)
(0.0115842 0 -0.00178613)
(0.0117515 0 -0.00198691)
(0.0118723 0 -0.00220984)
(0.0119528 0 -0.00244023)
(0.012028 0 -0.00264389)
(0.0121514 0 -0.00276054)
(0.010446 0 -0.00143449)
(0.0105534 0 -0.0015673)
(0.0106112 0 -0.00172006)
(0.0105988 0 -0.00189472)
(0.0104934 0 -0.00209203)
(0.010277 0 -0.00231051)
(0.00995459 0 -0.00254344)
(0.00959114 0 -0.00276817)
(0.00937522 0 -0.00291838)
(0.00998258 0 -0.0014973)
(0.00997971 0 -0.00162591)
(0.00990196 0 -0.00176886)
(0.00972581 0 -0.00192585)
(0.00942516 0 -0.00209552)
(0.00897594 0 -0.00227628)
(0.00836785 0 -0.0024694)
(0.00763659 0 -0.00268218)
(0.00699998 0 -0.00289222)
(0.00182354 0 -0.000594965)
(0.00293106 0 -0.000527242)
(0.00444412 0 -0.000434207)
(0.00596094 0 -0.000344783)
(0.00730092 0 -0.00026767)
(0.0084018 0 -0.00020456)
(0.00925937 0 -0.000154496)
(0.0098955 0 -0.000115613)
(0.0103413 0 -8.588e-05)
(0.0106288 0 -6.34157e-05)
(0.00351161 0 -0.0016333)
(0.00437538 0 -0.00146076)
(0.00559133 0 -0.00121577)
(0.00683911 0 -0.000973253)
(0.00795678 0 -0.000760185)
(0.00888214 0 -0.000583683)
(0.00960512 0 -0.0004425)
(0.0101403 0 -0.000332182)
(0.0105116 0 -0.000247428)
(0.010745 0 -0.000183151)
(0.00625984 0 -0.00232324)
(0.00682258 0 -0.00210464)
(0.0075956 0 -0.0017782)
(0.00840349 0 -0.00144165)
(0.00913982 0 -0.00113762)
(0.00975585 0 -0.000880817)
(0.0102377 0 -0.00067246)
(0.0105899 0 -0.000507866)
(0.0108254 0 -0.000380306)
(0.0109595 0 -0.000282862)
(0.0095376 0 -0.00263953)
(0.00977673 0 -0.00241322)
(0.010061 0 -0.00206743)
(0.010361 0 -0.00169929)
(0.0106405 0 -0.00135764)
(0.0108759 0 -0.00106272)
(0.0110551 0 -0.00081922)
(0.0111743 0 -0.000624072)
(0.0112346 0 -0.000470986)
(0.0112398 0 -0.00035282)
(0.0128437 0 -0.00261343)
(0.0127711 0 -0.00240514)
(0.0125917 0 -0.00208615)
(0.0123988 0 -0.00173886)
(0.0122232 0 -0.00140872)
(0.0120702 0 -0.00111733)
(0.0119344 0 -0.000871908)
(0.011807 0 -0.000671754)
(0.0116796 0 -0.000512299)
(0.0115447 0 -0.000387515)
(0.0157612 0 -0.00229958)
(0.0154174 0 -0.00212938)
(0.0148481 0 -0.00187059)
(0.0142373 0 -0.00158365)
(0.0136685 0 -0.00130418)
(0.0131728 0 -0.0010513)
(0.0127534 0 -0.000833208)
(0.0124002 0 -0.000651415)
(0.012098 0 -0.000503674)
(0.011831 0 -0.000385947)
(0.0179643 0 -0.00176297)
(0.0174193 0 -0.00164966)
(0.0165699 0 -0.00147539)
(0.0156569 0 -0.00127585)
(0.0147986 0 -0.00107429)
(0.014045 0 -0.000885235)
(0.0134074 0 -0.00071659)
(0.0128765 0 -0.000571574)
(0.012434 0 -0.000450336)
(0.012059 0 -0.000351219)
(0.0192314 0 -0.00108672)
(0.0185808 0 -0.00104302)
(0.0175855 0 -0.000966605)
(0.0165106 0 -0.000868423)
(0.0154913 0 -0.000759321)
(0.0145886 0 -0.000648513)
(0.0138197 0 -0.000542787)
(0.0131778 0 -0.000446483)
(0.0126444 0 -0.000361868)
(0.0121972 0 -0.000289652)
(0.0194621 0 -0.000369004)
(0.0188136 0 -0.000394997)
(0.0178155 0 -0.000415319)
(0.0167273 0 -0.000418423)
(0.0156846 0 -0.000403583)
(0.014751 0 -0.000374515)
(0.0139472 0 -0.000336263)
(0.0132697 0 -0.000293637)
(0.0127027 0 -0.000250523)
(0.0122256 0 -0.000209674)
(0.0186848 0 0.000294112)
(0.0181378 0 0.000212428)
(0.017271 0 0.000110963)
(0.0163107 0 1.96148e-05)
(0.0153767 0 -5.02016e-05)
(0.0145269 0 -9.65069e-05)
(0.0137826 0 -0.000122034)
(0.0131442 0 -0.000131415)
(0.0126008 0 -0.000129527)
(0.0121367 0 -0.000120642)
(0.017043 0 0.000830214)
(0.016671 0 0.000715188)
(0.0160461 0 0.000557229)
(0.0153345 0 0.000399559)
(0.014623 0 0.000263227)
(0.0139559 0 0.000155775)
(0.0133525 0 7.70125e-05)
(0.0128179 0 2.29809e-05)
(0.0123486 0 -1.15564e-05)
(0.011936 0 -3.17381e-05)
(0.0147562 0 0.00120328)
(0.0146055 0 0.00107551)
(0.0143059 0 0.000886124)
(0.0139348 0 0.000687332)
(0.0135302 0 0.000507635)
(0.0131171 0 0.000358692)
(0.0127131 0 0.00024227)
(0.0123296 0 0.000155238)
(0.0119716 0 9.25734e-05)
(0.0116399 0 4.89819e-05)
(0.0120808 0 0.0014081)
(0.0121904 0 0.00127839)
(0.0122781 0 0.00107644)
(0.0123023 0 0.000861345)
(0.0122467 0 0.000664019)
(0.0121205 0 0.000496514)
(0.0119431 0 0.000361048)
(0.0117336 0 0.000255256)
(0.0115071 0 0.000174917)
(0.0112733 0 0.000115347)
(0.00931448 0 0.00145561)
(0.00974804 0 0.00131729)
(0.010256 0 0.00111587)
(0.0106718 0 0.000911058)
(0.010948 0 0.000724382)
(0.0110926 0 0.000562798)
(0.0111316 0 0.000427744)
(0.0110924 0 0.000318029)
(0.010998 0 0.000231049)
(0.0108657 0 0.000163551)
(0.0069475 0 0.00132944)
(0.00775627 0 0.00116301)
(0.00860099 0 0.000993275)
(0.00929528 0 0.000838392)
(0.00980749 0 0.000694019)
(0.0101537 0 0.000561719)
(0.0103631 0 0.000444444)
(0.0104653 0 0.000343911)
(0.0104864 0 0.000260225)
(0.0104468 0 0.000192287)
(0.00954436 0 -0.00152867)
(0.00945864 0 -0.00164498)
(0.00928818 0 -0.00176805)
(0.00901353 0 -0.00189423)
(0.00861599 0 -0.00201675)
(0.00808193 0 -0.00212316)
(0.0074116 0 -0.00218965)
(0.00662683 0 -0.00216822)
(0.00581748 0 -0.00197013)
(0.00914315 0 -0.00153258)
(0.00900283 0 -0.00163131)
(0.00878055 0 -0.00172912)
(0.00846436 0 -0.0018198)
(0.00804778 0 -0.00189365)
(0.00753328 0 -0.00193538)
(0.00694386 0 -0.00192149)
(0.00632874 0 -0.00181891)
(0.00575062 0 -0.00157699)
(0.00879008 0 -0.00151425)
(0.00862015 0 -0.00159328)
(0.00837785 0 -0.00166516)
(0.00806011 0 -0.00172296)
(0.00767108 0 -0.00175677)
(0.00722514 0 -0.00175361)
(0.00675141 0 -0.00169686)
(0.00629122 0 -0.00156385)
(0.005895 0 -0.00131742)
(0.00848642 0 -0.00147937)
(0.00830667 0 -0.00153917)
(0.00806817 0 -0.00158751)
(0.00777462 0 -0.00161813)
(0.00743504 0 -0.00162279)
(0.00706679 0 -0.00159157)
(0.00669608 0 -0.0015127)
(0.00635654 0 -0.00137166)
(0.00609027 0 -0.00115017)
(0.00805598 0 -0.00147562)
(0.00783629 0 -0.00150446)
(0.00757785 0 -0.00151433)
(0.00729176 0 -0.00149892)
(0.00699472 0 -0.0014512)
(0.00670864 0 -0.00136362)
(0.0064599 0 -0.00122858)
(0.00627916 0 -0.00104073)
(0.00744283 0 -0.001416)
(0.00720732 0 -0.00138773)
(0.00697132 0 -0.00133178)
(0.00675238 0 -0.00124399)
(0.00657017 0 -0.00112157)
(0.00644509 0 -0.000965263)
(0.00697351 0 -0.00123108)
(0.00680681 0 -0.00114786)
(0.00667293 0 -0.00103987)
(0.00658488 0 -0.000909992)
(0.00676188 0 -0.000975671)
(0.00669926 0 -0.000867146)
(0.00498492 0 -0.00144546)
(0.00486638 0 -0.000794644)
(0.00495167 0 -0.000154774)
(0.00536411 0 -0.00114751)
(0.00527875 0 -0.000766037)
(0.00535725 0 -0.000389376)
(0.00570983 0 -0.000996996)
(0.00566799 0 -0.000756121)
(0.00571442 0 -0.000518333)
(0.00599073 0 -0.000915397)
(0.00597055 0 -0.000749366)
(0.00599927 0 -0.000584949)
(0.00621988 0 -0.000864318)
(0.00620975 0 -0.00074273)
(0.00622985 0 -0.000621933)
(0.00640752 0 -0.00082856)
(0.00640256 0 -0.000735583)
(0.00641793 0 -0.000642968)
(0.00656038 0 -0.000801209)
(0.00655838 0 -0.000727789)
(0.00657076 0 -0.000654499)
(0.00668324 0 -0.00077871)
(0.00668304 0 -0.000719299)
(0.00669335 0 -0.000659891)
(0.00678061 0 -0.000710079)
(0.0067894 0 -0.00066101)
(0.00580764 0 0.000399092)
(0.00670552 0 0.000638939)
(0.00757321 0 0.000696327)
(0.00832187 0 0.000664602)
(0.00892162 0 0.000593325)
(0.00937127 0 0.000507355)
(0.0096863 0 0.000419833)
(0.00988805 0 0.000337871)
(0.00999786 0 0.000265036)
(0.00575606 0 3.06489e-05)
(0.00638563 0 0.000293534)
(0.00706825 0 0.000424005)
(0.00772543 0 0.000468017)
(0.00829956 0 0.000458333)
(0.00876689 0 0.0004185)
(0.0091252 0 0.000364306)
(0.00938232 0 0.000305643)
(0.00955044 0 0.000248463)
(0.00591187 0 -0.000205449)
(0.00634355 0 4.9978e-05)
(0.00685295 0 0.000202516)
(0.0073823 0 0.000284708)
(0.00788282 0 0.000316436)
(0.0083207 0 0.000313859)
(0.00867982 0 0.000290163)
(0.00895742 0 0.00025507)
(0.0091565 0 0.000215283)
(0.00611325 0 -0.000353985)
(0.00640858 0 -0.000127312)
(0.00678643 0 2.76974e-05)
(0.0072014 0 0.000126835)
(0.00761566 0 0.000182777)
(0.00799984 0 0.000206522)
(0.00833387 0 0.000207376)
(0.00860772 0 0.000193261)
(0.00881755 0 0.000170508)
(0.00630484 0 -0.000447095)
(0.00651163 0 -0.000255006)
(0.00679228 0 -0.000109103)
(0.00711484 0 -4.93481e-06)
(0.00745071 0 6.40547e-05)
(0.00777568 0 0.000104692)
(0.0080711 0 0.000123493)
(0.00832466 0 0.000126453)
(0.00852969 0 0.000118807)
(0.00647158 0 -0.000506671)
(0.00662089 0 -0.000346319)
(0.00683101 0 -0.000214748)
(0.00708114 0 -0.00011289)
(0.00735046 0 -3.84319e-05)
(0.00761996 0 1.23126e-05)
(0.00787363 0 4.35313e-05)
(0.00809925 0 5.9472e-05)
(0.00828849 0 6.41273e-05)
(0.00661115 0 -0.000545512)
(0.00672203 0 -0.000411661)
(0.0068811 0 -0.000295572)
(0.00707525 0 -0.000200021)
(0.00728985 0 -0.00012508)
(0.0075104 0 -6.9221e-05)
(0.00772376 0 -3.00485e-05)
(0.00791891 0 -4.76448e-06)
(0.00808723 0 9.5066e-06)
(0.00672478 0 -0.000570919)
(0.00680899 0 -0.000458509)
(0.00693076 0 -0.000357043)
(0.00708186 0 -0.000269543)
(0.00725217 0 -0.000197165)
(0.00743088 0 -0.000139696)
(0.00760751 0 -9.6006e-05)
(0.00777261 0 -6.4419e-05)
(0.00791815 0 -4.29909e-05)
(0.00681446 0 -0.000587151)
(0.00687953 0 -0.00049198)
(0.00697363 0 -0.000403532)
(0.00709154 0 -0.000324483)
(0.00722627 0 -0.000256339)
(0.00736985 0 -0.000199585)
(0.00751409 0 -0.000153911)
(0.00765112 0 -0.000118448)
(0.00777382 0 -9.19779e-05)
(0.00693318 0 -0.000515531)
(0.0070064 0 -0.000438361)
(0.00709851 0 -0.00036746)
(0.00720472 0 -0.000304309)
(0.00731911 0 -0.000249717)
(0.00743535 0 -0.000203843)
(0.00754699 0 -0.00016637)
(0.00764791 0 -0.000136616)
(0.00718263 0 -0.000342665)
(0.00727287 0 -0.000291054)
(0.0073652 0 -0.000246176)
(0.00745435 0 -0.000208076)
(0.00753516 0 -0.000176439)
(0.00729918 0 -0.000281433)
(0.00736868 0 -0.000243692)
(0.00743136 0 -0.000211239)
(0.00733313 0 -0.000241002)
)
;

boundaryField
{
    inlet
    {
        type            cellMotion;
        value           nonuniform 0();
    }
    outlet
    {
        type            cellMotion;
        value           nonuniform 0();
    }
    flap
    {
        type            cellMotion;
        value           nonuniform List<vector> 
33
(
(0.000760701 0 0.000642511)
(0.00289577 0 0.00166895)
(0.00603145 0 0.00219382)
(0.00963907 0 0.00227276)
(0.0131859 0 0.00200307)
(0.0162618 0 0.00148476)
(0.0185567 0 0.000795853)
(0.0198582 0 1.48111e-05)
(0.0200693 0 -0.000775626)
(0.019228 0 -0.00149853)
(0.0174879 0 -0.00209763)
(0.0150735 0 -0.00254852)
(0.0122287 0 -0.00285052)
(0.00916017 0 -0.00302979)
(0.00601664 0 -0.00313465)
(0.00442009 0 -0.00241293)
(0.00437809 0 -0.000827984)
(0.0043386 0 0.000754579)
(0.000736376 0 -0.000692145)
(0.0028182 0 -0.00184538)
(0.00590748 0 -0.00255224)
(0.00949661 0 -0.00284826)
(0.0130568 0 -0.00278758)
(0.016169 0 -0.00243321)
(0.0185027 0 -0.00184655)
(0.019829 0 -0.00111252)
(0.0200449 0 -0.000338604)
(0.0191865 0 0.000367464)
(0.0174169 0 0.000926191)
(0.0149753 0 0.00130442)
(0.0121109 0 0.00150551)
(0.00903269 0 0.00156549)
(0.00589096 0 0.00154067)
)
;
    }
    upperWall
    {
        type            slip;
    }
    lowerWall
    {
        type            slip;
    }
    frontAndBack
    {
        type            empty;
    }
    procBoundary4to1
    {
        type            processor;
        value           nonuniform List<vector> 
30
(
(0.00823054 0 -0.00143313)
(0.00823054 0 -0.00143313)
(0.00785763 0 -0.00140769)
(0.00766331 0 -0.00142114)
(0.00766331 0 -0.00142114)
(0.00734971 0 -0.00132527)
(0.00715901 0 -0.00128963)
(0.00715901 0 -0.00128963)
(0.00698713 0 -0.00114614)
(0.00686059 0 -0.00106973)
(0.00686059 0 -0.00106973)
(0.00683485 0 -0.000923546)
(0.00679009 0 -0.000832177)
(0.00677966 0 -0.000759068)
(0.00677966 0 -0.000759068)
(0.00685467 0 -0.000699993)
(0.00686216 0 -0.000658881)
(0.00688236 0 -0.000596752)
(0.00688236 0 -0.000596752)
(0.00697056 0 -0.000531426)
(0.00702764 0 -0.00046394)
(0.00709944 0 -0.000400585)
(0.00709944 0 -0.000400585)
(0.00715718 0 -0.000372674)
(0.00722728 0 -0.0003245)
(0.00722728 0 -0.0003245)
(0.00723453 0 -0.000310034)
(0.00728677 0 -0.000273403)
(0.00728677 0 -0.000273403)
(0.00723838 0 -0.000265662)
)
;
    }
    procBoundary4to2
    {
        type            processor;
        value           nonuniform List<vector> 
11
(
(0.00928483 0 0.000175411)
(0.00896448 0 0.000143769)
(0.00868236 0 0.000104607)
(0.00843639 0 6.10174e-05)
(0.00822293 0 1.55314e-05)
(0.00803779 0 -2.96914e-05)
(0.0078762 0 -7.30548e-05)
(0.00773267 0 -0.000113615)
(0.00760284 0 -0.000150666)
(0.00748301 0 -0.000183765)
(0.00737014 0 -0.000212658)
)
;
    }
    procBoundary4to3
    {
        type            processor;
        value           nonuniform List<vector> 
19
(
(0.00973588 0 5.54657e-06)
(0.00985371 0 1.07485e-05)
(0.0100739 0 -9.3888e-07)
(0.0103669 0 -3.82238e-05)
(0.0106932 0 -0.000106302)
(0.0110087 0 -0.00020619)
(0.0112706 0 -0.000334707)
(0.0114437 0 -0.000485087)
(0.0115051 0 -0.000648053)
(0.0114465 0 -0.000813191)
(0.0112743 0 -0.000970345)
(0.0110076 0 -0.00111082)
(0.0106741 0 -0.00122826)
(0.0103049 0 -0.00131904)
(0.00992964 0 -0.00138233)
(0.0095627 0 -0.00142069)
(0.00921384 0 -0.00143641)
(0.00889452 0 -0.00143253)
(0.00860902 0 -0.00141287)
)
;
    }
    procBoundary4to5
    {
        type            processor;
        value           nonuniform List<vector> 
18
(
(0.0107866 0 -4.66053e-05)
(0.0108642 0 -0.000134899)
(0.0110072 0 -0.000209257)
(0.0111939 0 -0.000262744)
(0.0113965 0 -0.000291219)
(0.011585 0 -0.000293594)
(0.0117317 0 -0.00027164)
(0.011814 0 -0.000229461)
(0.0118171 0 -0.000172763)
(0.0117347 0 -0.000108069)
(0.0115692 0 -4.19406e-05)
(0.0113312 0 1.97031e-05)
(0.011037 0 7.21342e-05)
(0.0107067 0 0.00011218)
(0.0103611 0 0.000138354)
(0.0100344 0 0.000202725)
(0.0100344 0 0.000202725)
(0.00964298 0 0.000196172)
)
;
    }
}


// ************************************************************************* //
