/*--------------------------------*- C++ -*----------------------------------*\
| =========                 |                                                 |
| \\      /  F ield         | OpenFOAM: The Open Source CFD Toolbox           |
|  \\    /   O peration     | Version:  dev                                   |
|   \\  /    A nd           | Web:      www.OpenFOAM.org                      |
|    \\/     M anipulation  |                                                 |
\*---------------------------------------------------------------------------*/
FoamFile
{
    version     2.0;
    format      ascii;
    class       volVectorField;
    location    "1.53";
    object      cellDisplacement;
}
// * * * * * * * * * * * * * * * * * * * * * * * * * * * * * * * * * * * * * //

dimensions      [0 1 0 0 0 0 0];

internalField   nonuniform List<vector> 
2790
(
(0.0124985 0 -6.40366e-05)
(0.0356175 0 -0.000182844)
(0.0552184 0 -0.000286073)
(0.0716291 0 -0.000376656)
(0.0852005 0 -0.000456922)
(0.0962381 0 -0.000528444)
(0.105008 0 -0.000592148)
(0.11174 0 -0.000648804)
(0.116631 0 -0.000700322)
(0.119856 0 -0.000743589)
(0.121573 0 -0.000779813)
(0.121915 0 -0.000808506)
(0.120999 0 -0.000828854)
(0.118932 0 -0.000839834)
(0.115809 0 -0.000840218)
(0.111715 0 -0.000828385)
(0.106732 0 -0.000802346)
(0.100934 0 -0.000759729)
(0.0943978 0 -0.000697741)
(0.0871973 0 -0.000613126)
(0.079412 0 -0.00050215)
(0.0711263 0 -0.000360285)
(0.0624327 0 -0.000182173)
(0.0534386 0 3.83287e-05)
(0.0442747 0 0.000308125)
(0.0351095 0 0.000635004)
(0.0261799 0 0.00102879)
(0.0179022 0 0.00150464)
(0.0109542 0 0.00206406)
(0.0070183 0 0.00263054)
(0.0125161 0 -0.000192448)
(0.0356679 0 -0.000549577)
(0.0552998 0 -0.000859978)
(0.0717427 0 -0.0011325)
(0.0853487 0 -0.00137416)
(0.0964233 0 -0.0015897)
(0.105233 0 -0.00178182)
(0.112013 0 -0.00195245)
(0.116952 0 -0.00210218)
(0.120231 0 -0.00223216)
(0.122011 0 -0.00234162)
(0.122424 0 -0.00242876)
(0.121589 0 -0.00249116)
(0.119613 0 -0.00252581)
(0.116593 0 -0.00252922)
(0.112617 0 -0.00249662)
(0.107768 0 -0.00242222)
(0.102125 0 -0.00229912)
(0.0957666 0 -0.00211922)
(0.0887717 0 -0.00187307)
(0.0812275 0 -0.00155016)
(0.0732275 0 -0.00113753)
(0.0648773 0 -0.000619905)
(0.0563034 0 2.01898e-05)
(0.0476659 0 0.000802253)
(0.0391749 0 0.0017475)
(0.0310757 0 0.00288171)
(0.0238161 0 0.0042178)
(0.0182563 0 0.00572949)
(0.0165151 0 0.0071224)
(0.0125521 0 -0.000320998)
(0.0357695 0 -0.000916822)
(0.0554625 0 -0.00143481)
(0.0719694 0 -0.00188989)
(0.0856438 0 -0.00229377)
(0.0967918 0 -0.0026545)
(0.105681 0 -0.00297638)
(0.112547 0 -0.0032625)
(0.117585 0 -0.00351212)
(0.120979 0 -0.00373145)
(0.122885 0 -0.00391727)
(0.12344 0 -0.00406667)
(0.122766 0 -0.00417577)
(0.120972 0 -0.00423967)
(0.118158 0 -0.00425318)
(0.114418 0 -0.00420868)
(0.109838 0 -0.00409695)
(0.104504 0 -0.00390715)
(0.0984996 0 -0.0036266)
(0.0919119 0 -0.00324039)
(0.0848437 0 -0.0027334)
(0.0774042 0 -0.00208604)
(0.0697186 0 -0.00127567)
(0.061941 0 -0.000277196)
(0.0542754 0 0.000935787)
(0.0470322 0 0.00238552)
(0.0405882 0 0.00408574)
(0.0354445 0 0.00601962)
(0.0323931 0 0.00810503)
(0.0341737 0 0.00969701)
(0.0126063 0 -0.00044908)
(0.035921 0 -0.00128287)
(0.0557037 0 -0.0020078)
(0.0723058 0 -0.00264514)
(0.0860822 0 -0.00321131)
(0.0973391 0 -0.00371796)
(0.106346 0 -0.00417055)
(0.113342 0 -0.00457429)
(0.11853 0 -0.00493104)
(0.122091 0 -0.00524386)
(0.124185 0 -0.00551072)
(0.124952 0 -0.00572822)
(0.124516 0 -0.00589122)
(0.12299 0 -0.00599295)
(0.120483 0 -0.00602786)
(0.117091 0 -0.00598567)
(0.112911 0 -0.00585445)
(0.108033 0 -0.00562043)
(0.102554 0 -0.00526772)
(0.0965654 0 -0.00477619)
(0.0902006 0 -0.00413137)
(0.083592 0 -0.00330939)
(0.0768946 0 -0.0022851)
(0.0703006 0 -0.0010324)
(0.0640554 0 0.000474371)
(0.0585159 0 0.00224669)
(0.0542442 0 0.00425814)
(0.0520726 0 0.0064075)
(0.0528071 0 0.00850704)
(0.0588931 0 0.00957502)
(0.0126796 0 -0.000577188)
(0.036121 0 -0.0016475)
(0.05602 0 -0.00257859)
(0.0727479 0 -0.00339799)
(0.0866597 0 -0.0041267)
(0.0980603 0 -0.00478068)
(0.107222 0 -0.0053654)
(0.114391 0 -0.00588916)
(0.119774 0 -0.00635532)
(0.123554 0 -0.00676589)
(0.125893 0 -0.0071194)
(0.126937 0 -0.00741233)
(0.126814 0 -0.00763871)
(0.125638 0 -0.00778904)
(0.123531 0 -0.00786066)
(0.120596 0 -0.00784018)
(0.116937 0 -0.00771405)
(0.112658 0 -0.00746714)
(0.107874 0 -0.00708348)
(0.102689 0 -0.00654172)
(0.097235 0 -0.0058197)
(0.0916961 0 -0.00490011)
(0.0862586 0 -0.0037602)
(0.0811584 0 -0.00237996)
(0.0767701 0 -0.000761072)
(0.0734692 0 0.00108845)
(0.0718775 0 0.00310545)
(0.0730285 0 0.00508005)
(0.0783376 0 0.00656948)
(0.0894271 0 0.00642606)
(0.0127524 0 -0.000704404)
(0.0363496 0 -0.00201113)
(0.0564086 0 -0.0031494)
(0.0732936 0 -0.00415171)
(0.0873745 0 -0.00504405)
(0.0989495 0 -0.00584319)
(0.108299 0 -0.00656162)
(0.115682 0 -0.00720838)
(0.121305 0 -0.00778765)
(0.125353 0 -0.00830143)
(0.127993 0 -0.00874877)
(0.129377 0 -0.00912669)
(0.12964 0 -0.0094295)
(0.128906 0 -0.00964976)
(0.127291 0 -0.00977761)
(0.124915 0 -0.00980241)
(0.121892 0 -0.00971053)
(0.118339 0 -0.00948648)
(0.114389 0 -0.0091165)
(0.110182 0 -0.00858271)
(0.105838 0 -0.00785658)
(0.101602 0 -0.00693466)
(0.0977013 0 -0.0058028)
(0.0944102 0 -0.00445175)
(0.0921297 0 -0.00290213)
(0.0914362 0 -0.00122699)
(0.0930676 0 0.000436046)
(0.0979201 0 0.00181998)
(0.10801 0 0.00218154)
(0.124605 0 0.00023826)
(0.0128427 0 -0.000830916)
(0.0366242 0 -0.00237403)
(0.0568677 0 -0.0037195)
(0.0739373 0 -0.00490538)
(0.0882074 0 -0.00596203)
(0.0999902 0 -0.00690849)
(0.109574 0 -0.0077643)
(0.117211 0 -0.00853818)
(0.123116 0 -0.00923565)
(0.12748 0 -0.00985932)
(0.130475 0 -0.0104089)
(0.132258 0 -0.0108827)
(0.132972 0 -0.0112758)
(0.132753 0 -0.011583)
(0.131714 0 -0.0117877)
(0.129992 0 -0.0118844)
(0.127712 0 -0.01186)
(0.124997 0 -0.0116986)
(0.122018 0 -0.0113945)
(0.118932 0 -0.0109317)
(0.115902 0 -0.010292)
(0.113157 0 -0.00946865)
(0.111002 0 -0.00847037)
(0.109796 0 -0.00731856)
(0.109968 0 -0.00606124)
(0.112157 0 -0.00481411)
(0.117291 0 -0.00382579)
(0.126453 0 -0.00348936)
(0.141324 0 -0.00464854)
(0.163466 0 -0.00882101)
(0.0129482 0 -0.000956414)
(0.0369397 0 -0.00273391)
(0.0573912 0 -0.00428529)
(0.0746709 0 -0.00565435)
(0.0891604 0 -0.00687636)
(0.101184 0 -0.0079757)
(0.111033 0 -0.00897223)
(0.118961 0 -0.0098775)
(0.125189 0 -0.0106987)
(0.129913 0 -0.0114394)
(0.13331 0 -0.0121)
(0.135547 0 -0.0126813)
(0.136771 0 -0.0131784)
(0.137123 0 -0.0135848)
(0.136728 0 -0.0138877)
(0.135745 0 -0.0140866)
(0.134309 0 -0.0141691)
(0.132566 0 -0.0141246)
(0.130675 0 -0.0139426)
(0.128841 0 -0.0136202)
(0.127277 0 -0.0131543)
(0.126201 0 -0.0125399)
(0.125991 0 -0.0118135)
(0.127051 0 -0.0110219)
(0.129909 0 -0.0102606)
(0.135321 0 -0.00971858)
(0.14415 0 -0.00968534)
(0.157939 0 -0.0107817)
(0.177695 0 -0.0138171)
(0.205202 0 -0.0204839)
(0.0130669 0 -0.00108063)
(0.0372923 0 -0.00309023)
(0.0579741 0 -0.00484612)
(0.075488 0 -0.00639788)
(0.0902238 0 -0.00778592)
(0.102516 0 -0.00903906)
(0.112659 0 -0.0101789)
(0.120909 0 -0.0112194)
(0.127495 0 -0.0121697)
(0.132618 0 -0.0130347)
(0.136458 0 -0.0138149)
(0.139197 0 -0.0145162)
(0.140986 0 -0.0151334)
(0.141974 0 -0.0156615)
(0.142308 0 -0.0160945)
(0.142139 0 -0.0164271)
(0.141624 0 -0.0166529)
(0.140944 0 -0.0167721)
(0.140238 0 -0.016768)
(0.139771 0 -0.0166584)
(0.139775 0 -0.0164495)
(0.14053 0 -0.0161594)
(0.142413 0 -0.0158359)
(0.145959 0 -0.0155815)
(0.151701 0 -0.0155193)
(0.160476 0 -0.0159044)
(0.173329 0 -0.0171376)
(0.191621 0 -0.0198947)
(0.216533 0 -0.0251419)
(0.249127 0 -0.0344393)
(0.0131969 0 -0.0012033)
(0.037678 0 -0.00344242)
(0.0586112 0 -0.00540117)
(0.0763814 0 -0.00713502)
(0.0913877 0 -0.00868951)
(0.103973 0 -0.0100976)
(0.114436 0 -0.0113834)
(0.123039 0 -0.0125632)
(0.130015 0 -0.0136484)
(0.135572 0 -0.0146462)
(0.139908 0 -0.0155619)
(0.143194 0 -0.0163968)
(0.145594 0 -0.0171502)
(0.147271 0 -0.0178206)
(0.148388 0 -0.0184078)
(0.149095 0 -0.0189037)
(0.149559 0 -0.0193076)
(0.149998 0 -0.0196313)
(0.150593 0 -0.0198736)
(0.151582 0 -0.0200472)
(0.153257 0 -0.0201826)
(0.155955 0 -0.0203244)
(0.160086 0 -0.0205428)
(0.166176 0 -0.020958)
(0.17498 0 -0.0217917)
(0.187237 0 -0.0233088)
(0.204292 0 -0.0260666)
(0.227123 0 -0.0307118)
(0.25732 0 -0.0384164)
(0.294609 0 -0.0503629)
(0.0133381 0 -0.0013248)
(0.0380956 0 -0.00379156)
(0.0593006 0 -0.00595221)
(0.0773483 0 -0.00786812)
(0.0926479 0 -0.00959001)
(0.10555 0 -0.011155)
(0.116359 0 -0.0125898)
(0.125342 0 -0.0139134)
(0.132738 0 -0.0151394)
(0.138766 0 -0.0162786)
(0.143628 0 -0.0173396)
(0.147493 0 -0.018319)
(0.150544 0 -0.0192239)
(0.152948 0 -0.0200548)
(0.154872 0 -0.0208118)
(0.156506 0 -0.0215024)
(0.158031 0 -0.0221308)
(0.159649 0 -0.0227055)
(0.161603 0 -0.023248)
(0.164103 0 -0.0237686)
(0.167519 0 -0.0243296)
(0.172231 0 -0.0249996)
(0.178692 0 -0.0258794)
(0.187469 0 -0.0271243)
(0.199324 0 -0.0289873)
(0.215272 0 -0.0318624)
(0.236413 0 -0.0362882)
(0.264008 0 -0.0430715)
(0.299511 0 -0.0534018)
(0.340995 0 -0.0679035)
(0.013489 0 -0.00144483)
(0.0385413 0 -0.00413678)
(0.0600358 0 -0.00649787)
(0.0783793 0 -0.00859534)
(0.0939921 0 -0.0104851)
(0.107233 0 -0.0122086)
(0.118409 0 -0.0137952)
(0.127795 0 -0.0152664)
(0.135636 0 -0.0166382)
(0.142158 0 -0.017925)
(0.147563 0 -0.0191346)
(0.152031 0 -0.0202685)
(0.155764 0 -0.0213404)
(0.158931 0 -0.0223517)
(0.161721 0 -0.0233108)
(0.164317 0 -0.0242243)
(0.166937 0 -0.0251099)
(0.169758 0 -0.0259723)
(0.173079 0 -0.026856)
(0.177156 0 -0.0277925)
(0.182341 0 -0.0288471)
(0.189108 0 -0.0301339)
(0.197901 0 -0.0317669)
(0.209394 0 -0.0339611)
(0.224365 0 -0.0370042)
(0.243937 0 -0.0413683)
(0.269184 0 -0.0476333)
(0.301736 0 -0.0567749)
(0.342431 0 -0.0698125)
(0.387517 0 -0.0866765)
(0.0136468 0 -0.00156238)
(0.039008 0 -0.00447535)
(0.0608063 0 -0.00703393)
(0.0794598 0 -0.00931109)
(0.0954013 0 -0.0113678)
(0.108998 0 -0.0132504)
(0.120559 0 -0.0149906)
(0.130365 0 -0.0166125)
(0.138668 0 -0.0181338)
(0.145705 0 -0.0195749)
(0.151677 0 -0.0209433)
(0.156787 0 -0.0222495)
(0.161228 0 -0.0235032)
(0.165181 0 -0.0247115)
(0.168858 0 -0.0258929)
(0.172425 0 -0.0270491)
(0.176134 0 -0.0282139)
(0.180204 0 -0.0294092)
(0.184915 0 -0.0306796)
(0.190565 0 -0.032079)
(0.197543 0 -0.033695)
(0.206304 0 -0.0356497)
(0.217388 0 -0.0381107)
(0.231497 0 -0.0413259)
(0.249521 0 -0.0456525)
(0.272525 0 -0.0515836)
(0.301992 0 -0.0598832)
(0.339546 0 -0.0715683)
(0.385151 0 -0.0873275)
(0.43319 0 -0.106316)
(0.0138098 0 -0.00167713)
(0.0394914 0 -0.00480643)
(0.0616052 0 -0.00755912)
(0.08058 0 -0.0100137)
(0.0968631 0 -0.012236)
(0.110831 0 -0.0142781)
(0.122792 0 -0.0161733)
(0.133033 0 -0.017949)
(0.141824 0 -0.0196295)
(0.149396 0 -0.0212315)
(0.155956 0 -0.0227681)
(0.161722 0 -0.0242555)
(0.166879 0 -0.0257007)
(0.171621 0 -0.0271171)
(0.176177 0 -0.0285317)
(0.180746 0 -0.0299606)
(0.185553 0 -0.0314313)
(0.190854 0 -0.0329841)
(0.196936 0 -0.0346728)
(0.20413 0 -0.0365712)
(0.21284 0 -0.0387842)
(0.223517 0 -0.0414502)
(0.23676 0 -0.044775)
(0.253368 0 -0.0490678)
(0.274167 0 -0.0546983)
(0.300439 0 -0.0622761)
(0.333867 0 -0.0726908)
(0.375766 0 -0.0868809)
(0.425431 0 -0.10523)
(0.475947 0 -0.126249)
(0.0139768 0 -0.00178878)
(0.0399879 0 -0.00512916)
(0.0624273 0 -0.00807217)
(0.0817315 0 -0.0107014)
(0.0983735 0 -0.0130914)
(0.112728 0 -0.0152939)
(0.125103 0 -0.0173455)
(0.135798 0 -0.019279)
(0.145087 0 -0.0211218)
(0.153195 0 -0.0228874)
(0.160349 0 -0.0245969)
(0.166758 0 -0.026265)
(0.172637 0 -0.0279123)
(0.178191 0 -0.0295564)
(0.183634 0 -0.0312211)
(0.189192 0 -0.0329372)
(0.195067 0 -0.0347273)
(0.201576 0 -0.0366589)
(0.208986 0 -0.0387867)
(0.217649 0 -0.0412021)
(0.22798 0 -0.0440274)
(0.240446 0 -0.0474206)
(0.255722 0 -0.0516379)
(0.274497 0 -0.0569765)
(0.297747 0 -0.0638998)
(0.326782 0 -0.073073)
(0.36304 0 -0.0853638)
(0.407489 0 -0.101664)
(0.458759 0 -0.122066)
(0.511295 0 -0.145308)
(0.0106757 0 -0.0036979)
(0.0253009 0 -0.00473955)
(0.0599164 0 -0.00634273)
(0.117709 0 -0.00822555)
(0.187235 0 -0.00982541)
(0.249504 0 -0.0106274)
(0.295882 0 -0.0108324)
(0.328162 0 -0.0106776)
(0.35017 0 -0.0102619)
(0.364832 0 -0.0097943)
(0.374122 0 -0.00923193)
(0.379282 0 -0.00860686)
(0.381106 0 -0.00800129)
(0.380064 0 -0.00741629)
(0.376429 0 -0.00685762)
(0.370357 0 -0.00632741)
(0.361929 0 -0.00582544)
(0.351177 0 -0.00534994)
(0.338094 0 -0.00489817)
(0.322649 0 -0.00446677)
(0.304792 0 -0.00405197)
(0.284457 0 -0.00364966)
(0.26157 0 -0.00325548)
(0.236048 0 -0.00286474)
(0.207804 0 -0.0024724)
(0.176747 0 -0.00207293)
(0.142787 0 -0.00166021)
(0.105833 0 -0.00122728)
(0.0658117 0 -0.000766243)
(0.022493 0 -0.000265636)
(0.0183235 0 -0.0113852)
(0.0346528 0 -0.0145726)
(0.0705282 0 -0.0191965)
(0.128195 0 -0.024629)
(0.195845 0 -0.0290399)
(0.255701 0 -0.0312819)
(0.300242 0 -0.0318261)
(0.331293 0 -0.0313528)
(0.352502 0 -0.0302082)
(0.366614 0 -0.0287618)
(0.375501 0 -0.0271129)
(0.38038 0 -0.0253316)
(0.381998 0 -0.023579)
(0.380797 0 -0.0218807)
(0.377036 0 -0.0202546)
(0.370863 0 -0.0187077)
(0.362353 0 -0.0172399)
(0.351534 0 -0.0158464)
(0.338396 0 -0.0145198)
(0.322905 0 -0.0132505)
(0.305009 0 -0.0120277)
(0.284643 0 -0.0108398)
(0.261729 0 -0.00967397)
(0.236185 0 -0.00851665)
(0.207922 0 -0.00735307)
(0.176848 0 -0.00616702)
(0.142872 0 -0.00494045)
(0.105901 0 -0.00365282)
(0.0658596 0 -0.00228085)
(0.022513 0 -0.000790708)
(0.0329104 0 -0.0197626)
(0.0523453 0 -0.0251806)
(0.090404 0 -0.0327105)
(0.147701 0 -0.041093)
(0.2119 0 -0.0476116)
(0.267438 0 -0.050845)
(0.308599 0 -0.0515376)
(0.337366 0 -0.0506972)
(0.357036 0 -0.0489193)
(0.370072 0 -0.0465483)
(0.378196 0 -0.0438683)
(0.382529 0 -0.041073)
(0.383742 0 -0.0382951)
(0.382227 0 -0.0355933)
(0.378218 0 -0.0329978)
(0.371846 0 -0.0305208)
(0.363175 0 -0.028163)
(0.352223 0 -0.025918)
(0.338976 0 -0.0237743)
(0.323395 0 -0.0217176)
(0.305425 0 -0.0197311)
(0.284996 0 -0.0177965)
(0.26203 0 -0.0158936)
(0.236442 0 -0.0140007)
(0.208142 0 -0.0120941)
(0.177035 0 -0.0101475)
(0.143027 0 -0.00813188)
(0.106023 0 -0.00601376)
(0.0659446 0 -0.00375541)
(0.0225474 0 -0.00130176)
(0.0538593 0 -0.0293068)
(0.0770677 0 -0.0369027)
(0.11781 0 -0.047219)
(0.174163 0 -0.0578796)
(0.23372 0 -0.065751)
(0.283617 0 -0.0694592)
(0.320322 0 -0.0700361)
(0.345996 0 -0.068734)
(0.363525 0 -0.0663058)
(0.375039 0 -0.0631063)
(0.382086 0 -0.0595106)
(0.385642 0 -0.0558031)
(0.386266 0 -0.0521123)
(0.384295 0 -0.0485129)
(0.379923 0 -0.0450445)
(0.37326 0 -0.041724)
(0.364352 0 -0.0385533)
(0.353206 0 -0.0355246)
(0.339799 0 -0.0326238)
(0.324086 0 -0.0298324)
(0.306006 0 -0.0271289)
(0.285487 0 -0.0244889)
(0.262446 0 -0.021886)
(0.236794 0 -0.0192911)
(0.20844 0 -0.0166723)
(0.177285 0 -0.0139944)
(0.143232 0 -0.0112176)
(0.106183 0 -0.00829694)
(0.0660527 0 -0.00518115)
(0.0225898 0 -0.00179551)
(0.0803499 0 -0.0403141)
(0.107628 0 -0.0500899)
(0.15097 0 -0.0628351)
(0.205687 0 -0.0750889)
(0.259577 0 -0.0834651)
(0.303053 0 -0.0871365)
(0.334667 0 -0.0873699)
(0.356707 0 -0.0855039)
(0.371622 0 -0.0823443)
(0.381279 0 -0.0783616)
(0.387013 0 -0.0739845)
(0.389596 0 -0.0694763)
(0.389476 0 -0.0649838)
(0.386921 0 -0.0605925)
(0.382085 0 -0.0563488)
(0.375048 0 -0.0522733)
(0.365835 0 -0.0483691)
(0.35444 0 -0.0446273)
(0.340828 0 -0.0410318)
(0.324945 0 -0.0375611)
(0.306725 0 -0.0341897)
(0.286089 0 -0.0308883)
(0.262951 0 -0.027625)
(0.237219 0 -0.0243643)
(0.208795 0 -0.021067)
(0.177581 0 -0.0176894)
(0.143472 0 -0.0141826)
(0.106367 0 -0.0104907)
(0.0661749 0 -0.00655047)
(0.0226367 0 -0.00226916)
(0.111577 0 -0.0529413)
(0.142943 0 -0.0648725)
(0.18846 0 -0.0796201)
(0.240527 0 -0.0926287)
(0.287915 0 -0.100705)
(0.324581 0 -0.103828)
(0.350816 0 -0.103485)
(0.368893 0 -0.100959)
(0.380912 0 -0.0970262)
(0.388531 0 -0.0923382)
(0.39278 0 -0.0872683)
(0.394241 0 -0.0820651)
(0.393253 0 -0.076879)
(0.390013 0 -0.0717998)
(0.384628 0 -0.0668777)
(0.377146 0 -0.0621363)
(0.367571 0 -0.0575786)
(0.355879 0 -0.0531953)
(0.342021 0 -0.0489691)
(0.325936 0 -0.044876)
(0.307548 0 -0.0408875)
(0.286773 0 -0.0369705)
(0.26352 0 -0.0330884)
(0.237692 0 -0.0292)
(0.209188 0 -0.0252599)
(0.177904 0 -0.0212171)
(0.143731 0 -0.0170139)
(0.106562 0 -0.0125851)
(0.0663029 0 -0.00785682)
(0.0226848 0 -0.00272034)
(0.146782 0 -0.067222)
(0.18206 0 -0.0812237)
(0.228911 0 -0.0973814)
(0.277099 0 -0.110235)
(0.317325 0 -0.117273)
(0.347109 0 -0.119425)
(0.367905 0 -0.118256)
(0.381911 0 -0.114958)
(0.390998 0 -0.110337)
(0.396504 0 -0.105021)
(0.399168 0 -0.0993502)
(0.399411 0 -0.0935551)
(0.397466 0 -0.0877804)
(0.393463 0 -0.0821147)
(0.387463 0 -0.0766094)
(0.379481 0 -0.0712904)
(0.369498 0 -0.0661591)
(0.357469 0 -0.061206)
(0.343334 0 -0.0564131)
(0.327019 0 -0.0517553)
(0.308441 0 -0.0472015)
(0.287509 0 -0.0427159)
(0.264126 0 -0.0382577)
(0.238191 0 -0.0337815)
(0.209598 0 -0.0292362)
(0.178238 0 -0.0245644)
(0.143996 0 -0.0197005)
(0.106759 0 -0.0145716)
(0.0664293 0 -0.00909477)
(0.0227315 0 -0.0031471)
(0.185304 0 -0.0831092)
(0.224143 0 -0.0989942)
(0.271016 0 -0.115749)
(0.313868 0 -0.127458)
(0.346623 0 -0.132916)
(0.369691 0 -0.133785)
(0.385189 0 -0.131611)
(0.395253 0 -0.127506)
(0.401509 0 -0.12227)
(0.404904 0 -0.116408)
(0.40595 0 -0.11023)
(0.404926 0 -0.103945)
(0.401973 0 -0.0976832)
(0.397158 0 -0.0915292)
(0.390497 0 -0.0855326)
(0.381978 0 -0.079723)
(0.371552 0 -0.0740964)
(0.359158 0 -0.068644)
(0.344721 0 -0.0633481)
(0.328155 0 -0.0581828)
(0.30937 0 -0.0531159)
(0.288267 0 -0.048109)
(0.264743 0 -0.0431186)
(0.238692 0 -0.0380954)
(0.210005 0 -0.0329837)
(0.178567 0 -0.0277209)
(0.144253 0 -0.0222335)
(0.106946 0 -0.0164434)
(0.0665473 0 -0.0102599)
(0.0227745 0 -0.00354793)
(0.226607 0 -0.100495)
(0.268423 0 -0.117921)
(0.313497 0 -0.134225)
(0.349609 0 -0.14385)
(0.374865 0 -0.147351)
(0.391523 0 -0.14674)
(0.402051 0 -0.143478)
(0.408503 0 -0.138625)
(0.412095 0 -0.132834)
(0.413453 0 -0.126511)
(0.412901 0 -0.11992)
(0.410607 0 -0.113244)
(0.40663 0 -0.106594)
(0.40098 0 -0.100045)
(0.393634 0 -0.093645)
(0.384556 0 -0.0874322)
(0.373669 0 -0.0813857)
(0.360891 0 -0.075502)
(0.346134 0 -0.069765)
(0.329304 0 -0.0641488)
(0.3103 0 -0.0586202)
(0.289016 0 -0.0531395)
(0.265345 0 -0.0476606)
(0.239174 0 -0.0421316)
(0.210389 0 -0.0364935)
(0.178876 0 -0.0306794)
(0.14449 0 -0.0246058)
(0.107112 0 -0.0181948)
(0.0666506 0 -0.0113489)
(0.0228119 0 -0.00392172)
(0.270282 0 -0.119224)
(0.314103 0 -0.137614)
(0.355083 0 -0.152204)
(0.383462 0 -0.159063)
(0.401287 0 -0.160324)
(0.411916 0 -0.158107)
(0.418044 0 -0.153821)
(0.421288 0 -0.148299)
(0.422444 0 -0.142038)
(0.42189 0 -0.135348)
(0.419808 0 -0.128438)
(0.416283 0 -0.121474)
(0.411297 0 -0.114531)
(0.404816 0 -0.107677)
(0.396776 0 -0.10095)
(0.387121 0 -0.0943872)
(0.375768 0 -0.0879924)
(0.362598 0 -0.0817436)
(0.347515 0 -0.0756271)
(0.330415 0 -0.0696171)
(0.311187 0 -0.0636799)
(0.289719 0 -0.0577745)
(0.265897 0 -0.0518536)
(0.239604 0 -0.045863)
(0.210724 0 -0.0397413)
(0.179154 0 -0.0334221)
(0.144706 0 -0.026813)
(0.10725 0 -0.0198221)
(0.0667347 0 -0.0123595)
(0.0228439 0 -0.00426805)
(0.316032 0 -0.139115)
(0.360167 0 -0.157491)
(0.394359 0 -0.168944)
(0.414313 0 -0.17255)
(0.425006 0 -0.171464)
(0.430425 0 -0.16777)
(0.43285 0 -0.1626)
(0.433304 0 -0.156523)
(0.432288 0 -0.149903)
(0.429984 0 -0.142949)
(0.426472 0 -0.135812)
(0.421763 0 -0.128627)
(0.415812 0 -0.121478)
(0.40853 0 -0.114402)
(0.399829 0 -0.107437)
(0.389611 0 -0.100599)
(0.377784 0 -0.0939149)
(0.364224 0 -0.0873646)
(0.348816 0 -0.0809288)
(0.331446 0 -0.0745812)
(0.311995 0 -0.0682876)
(0.290344 0 -0.0620067)
(0.266372 0 -0.0556901)
(0.239959 0 -0.0492821)
(0.210981 0 -0.042719)
(0.179313 0 -0.0359293)
(0.14481 0 -0.0288283)
(0.107332 0 -0.0213126)
(0.0667837 0 -0.0132839)
(0.0228603 0 -0.00458341)
(0.363575 0 -0.159926)
(0.40503 0 -0.176636)
(0.429691 0 -0.183575)
(0.440983 0 -0.183698)
(0.445589 0 -0.180518)
(0.446871 0 -0.175645)
(0.446237 0 -0.169787)
(0.4443 0 -0.163297)
(0.44135 0 -0.156418)
(0.437483 0 -0.149305)
(0.432686 0 -0.14205)
(0.426896 0 -0.134736)
(0.420044 0 -0.127453)
(0.412012 0 -0.120233)
(0.402684 0 -0.113106)
(0.39194 0 -0.106087)
(0.379663 0 -0.0991891)
(0.365725 0 -0.0923999)
(0.350002 0 -0.085702)
(0.332368 0 -0.0790695)
(0.312699 0 -0.0724686)
(0.29087 0 -0.0658581)
(0.266754 0 -0.0591893)
(0.240225 0 -0.0524056)
(0.211155 0 -0.045442)
(0.179413 0 -0.0382241)
(0.144859 0 -0.0306657)
(0.107357 0 -0.0226667)
(0.0667907 0 -0.0141213)
(0.0228579 0 -0.00486753)
(0.41217 0 -0.18112)
(0.446127 0 -0.193605)
(0.459307 0 -0.195114)
(0.463253 0 -0.192214)
(0.46317 0 -0.187408)
(0.461104 0 -0.181643)
(0.457929 0 -0.175318)
(0.453994 0 -0.168607)
(0.449406 0 -0.161615)
(0.444191 0 -0.154448)
(0.438275 0 -0.14717)
(0.43155 0 -0.139841)
(0.423899 0 -0.132517)
(0.415187 0 -0.125235)
(0.40528 0 -0.118017)
(0.394044 0 -0.110881)
(0.381347 0 -0.103831)
(0.367053 0 -0.0968618)
(0.351029 0 -0.0899557)
(0.333145 0 -0.0830884)
(0.313269 0 -0.0762272)
(0.29127 0 -0.0693315)
(0.267019 0 -0.0623527)
(0.240384 0 -0.0552342)
(0.211234 0 -0.0479103)
(0.179433 0 -0.0403056)
(0.144844 0 -0.0323332)
(0.107328 0 -0.0238937)
(0.0667631 0 -0.0148788)
(0.0228445 0 -0.00512389)
(0.459249 0 -0.201074)
(0.479744 0 -0.206301)
(0.483067 0 -0.203016)
(0.48134 0 -0.197785)
(0.477568 0 -0.191906)
(0.472867 0 -0.185682)
(0.467686 0 -0.179189)
(0.462166 0 -0.172462)
(0.456293 0 -0.165533)
(0.449993 0 -0.158451)
(0.44315 0 -0.151257)
(0.435628 0 -0.143998)
(0.427284 0 -0.136716)
(0.417973 0 -0.129443)
(0.407549 0 -0.122202)
(0.395866 0 -0.115007)
(0.382784 0 -0.107864)
(0.368162 0 -0.100768)
(0.351861 0 -0.0937034)
(0.333744 0 -0.0866483)
(0.313676 0 -0.0795712)
(0.291522 0 -0.0724326)
(0.267148 0 -0.0651847)
(0.24042 0 -0.0577713)
(0.211203 0 -0.0501268)
(0.17936 0 -0.0421757)
(0.144752 0 -0.0338313)
(0.107239 0 -0.0249944)
(0.0666962 0 -0.0155567)
(0.0228173 0 -0.00535249)
(0.497478 0 -0.215466)
(0.505946 0 -0.213178)
(0.50102 0 -0.206175)
(0.494942 0 -0.199907)
(0.488475 0 -0.193852)
(0.481944 0 -0.187742)
(0.475387 0 -0.181456)
(0.46875 0 -0.17496)
(0.461928 0 -0.168261)
(0.454797 0 -0.161389)
(0.447221 0 -0.154379)
(0.439049 0 -0.14727)
(0.430128 0 -0.140101)
(0.420306 0 -0.132902)
(0.409431 0 -0.125696)
(0.397355 0 -0.118497)
(0.383931 0 -0.111312)
(0.369014 0 -0.104137)
(0.352463 0 -0.0969607)
(0.334136 0 -0.0897616)
(0.313896 0 -0.0825105)
(0.291604 0 -0.0751692)
(0.267124 0 -0.0676915)
(0.240319 0 -0.0600218)
(0.211051 0 -0.0520954)
(0.179183 0 -0.0438374)
(0.144574 0 -0.0351619)
(0.107085 0 -0.0259707)
(0.0665867 0 -0.0161563)
(0.0227745 0 -0.00555372)
(0.0141512 0 -0.00189976)
(0.0405062 0 -0.00545026)
(0.0632871 0 -0.00858359)
(0.0829494 0 -0.0113903)
(0.0999655 0 -0.0139496)
(0.11471 0 -0.0163131)
(0.127512 0 -0.018524)
(0.138677 0 -0.0206187)
(0.148467 0 -0.0226237)
(0.157124 0 -0.0245582)
(0.164885 0 -0.0264491)
(0.171972 0 -0.0283159)
(0.178594 0 -0.030179)
(0.184962 0 -0.0320622)
(0.191277 0 -0.0339861)
(0.197796 0 -0.0359967)
(0.204754 0 -0.0381336)
(0.212448 0 -0.040464)
(0.221118 0 -0.0430416)
(0.231179 0 -0.0459892)
(0.24303 0 -0.0494383)
(0.257148 0 -0.0535671)
(0.274169 0 -0.0586395)
(0.294774 0 -0.0649804)
(0.319915 0 -0.0730791)
(0.350669 0 -0.0835773)
(0.387992 0 -0.0972459)
(0.432157 0 -0.114942)
(0.480235 0 -0.136906)
(0.524215 0 -0.162827)
(0.0143335 0 -0.00201062)
(0.0410476 0 -0.00577153)
(0.0641854 0 -0.0090962)
(0.0842195 0 -0.0120812)
(0.101622 0 -0.0148093)
(0.116774 0 -0.0173368)
(0.13002 0 -0.0197101)
(0.141671 0 -0.0219712)
(0.151982 0 -0.0241456)
(0.161219 0 -0.0262623)
(0.169615 0 -0.0283464)
(0.177391 0 -0.0304217)
(0.18475 0 -0.0325075)
(0.19191 0 -0.0346317)
(0.199119 0 -0.036837)
(0.206598 0 -0.0391596)
(0.214598 0 -0.041651)
(0.223395 0 -0.0443784)
(0.233291 0 -0.0474254)
(0.244647 0 -0.050907)
(0.257854 0 -0.0549652)
(0.273385 0 -0.0597934)
(0.29179 0 -0.0656442)
(0.313758 0 -0.0728738)
(0.339931 0 -0.081886)
(0.371085 0 -0.0932506)
(0.407501 0 -0.107524)
(0.44809 0 -0.124981)
(0.488368 0 -0.144642)
(0.520342 0 -0.163458)
(0.0145192 0 -0.00211923)
(0.0416011 0 -0.00608705)
(0.0651039 0 -0.00960066)
(0.0855183 0 -0.0127624)
(0.103323 0 -0.0156601)
(0.118893 0 -0.0183527)
(0.132604 0 -0.0208948)
(0.144758 0 -0.0233267)
(0.155609 0 -0.0256772)
(0.165432 0 -0.0279803)
(0.174452 0 -0.0302589)
(0.182894 0 -0.0325399)
(0.190987 0 -0.0348556)
(0.198955 0 -0.0372384)
(0.207038 0 -0.0397319)
(0.215422 0 -0.042365)
(0.224404 0 -0.0452114)
(0.234238 0 -0.0483363)
(0.245242 0 -0.0518397)
(0.25773 0 -0.0558293)
(0.272076 0 -0.0604529)
(0.288691 0 -0.065896)
(0.30812 0 -0.0724282)
(0.330753 0 -0.080308)
(0.357072 0 -0.0899004)
(0.387355 0 -0.101586)
(0.421096 0 -0.115561)
(0.456249 0 -0.131494)
(0.488374 0 -0.147893)
(0.512792 0 -0.162883)
(0.0147067 0 -0.00222483)
(0.0421629 0 -0.00639482)
(0.0660343 0 -0.0100936)
(0.0868419 0 -0.0134324)
(0.105065 0 -0.0165008)
(0.121078 0 -0.0193615)
(0.13526 0 -0.0220732)
(0.147911 0 -0.0246753)
(0.1593 0 -0.0272024)
(0.169692 0 -0.0296876)
(0.179332 0 -0.0321637)
(0.188452 0 -0.0346613)
(0.197275 0 -0.0372131)
(0.206014 0 -0.0398526)
(0.214901 0 -0.0426233)
(0.224165 0 -0.0455748)
(0.234056 0 -0.0487695)
(0.244834 0 -0.0522815)
(0.256779 0 -0.0562035)
(0.270206 0 -0.0606561)
(0.285416 0 -0.0657689)
(0.302826 0 -0.0717421)
(0.322728 0 -0.0787594)
(0.345379 0 -0.0870362)
(0.371026 0 -0.0968444)
(0.399411 0 -0.108321)
(0.429483 0 -0.121333)
(0.458927 0 -0.135198)
(0.484628 0 -0.148738)
(0.50404 0 -0.160948)
(0.0148967 0 -0.00232731)
(0.0427337 0 -0.00669429)
(0.0669974 0 -0.0105771)
(0.0882015 0 -0.01409)
(0.106831 0 -0.0173242)
(0.123286 0 -0.0203505)
(0.137932 0 -0.0232264)
(0.151085 0 -0.0259989)
(0.163007 0 -0.0287024)
(0.173979 0 -0.0313764)
(0.184243 0 -0.0340545)
(0.194019 0 -0.0367674)
(0.203529 0 -0.0395495)
(0.212998 0 -0.0424414)
(0.222649 0 -0.0454872)
(0.232716 0 -0.0487443)
(0.243418 0 -0.0522679)
(0.255008 0 -0.0561373)
(0.267734 0 -0.0604397)
(0.281861 0 -0.0652829)
(0.297693 0 -0.0708088)
(0.315455 0 -0.0771492)
(0.335328 0 -0.0844492)
(0.357479 0 -0.0928866)
(0.381791 0 -0.102569)
(0.407606 0 -0.113409)
(0.433684 0 -0.125083)
(0.458182 0 -0.136953)
(0.479188 0 -0.148277)
(0.495172 0 -0.158398)
(0.0150864 0 -0.00242557)
(0.0433043 0 -0.00698214)
(0.0679567 0 -0.0110423)
(0.0895525 0 -0.0147218)
(0.108593 0 -0.018118)
(0.125486 0 -0.0213063)
(0.140608 0 -0.0243485)
(0.154268 0 -0.0272917)
(0.166726 0 -0.0301727)
(0.178263 0 -0.0330327)
(0.189115 0 -0.0359057)
(0.199521 0 -0.0388301)
(0.209695 0 -0.0418412)
(0.21984 0 -0.0449757)
(0.230195 0 -0.0482868)
(0.240967 0 -0.0518256)
(0.252355 0 -0.0556466)
(0.264605 0 -0.0598307)
(0.277926 0 -0.0644562)
(0.292535 0 -0.0696181)
(0.308659 0 -0.075434)
(0.326387 0 -0.0819844)
(0.345867 0 -0.0893997)
(0.367044 0 -0.0977552)
(0.389514 0 -0.107008)
(0.412484 0 -0.116952)
(0.434901 0 -0.12726)
(0.455465 0 -0.137451)
(0.472989 0 -0.147037)
(0.48652 0 -0.155557)
(0.0152708 0 -0.00251773)
(0.0438631 0 -0.00725344)
(0.0688985 0 -0.0114822)
(0.0908812 0 -0.0153214)
(0.110342 0 -0.0188777)
(0.127692 0 -0.0222278)
(0.143281 0 -0.0254324)
(0.157422 0 -0.0285382)
(0.170397 0 -0.0315909)
(0.182483 0 -0.0346332)
(0.193913 0 -0.0376995)
(0.204911 0 -0.0408274)
(0.215685 0 -0.0440518)
(0.226453 0 -0.0474171)
(0.237432 0 -0.0509732)
(0.248788 0 -0.0547601)
(0.260738 0 -0.0588422)
(0.273497 0 -0.0632932)
(0.287203 0 -0.0681691)
(0.302086 0 -0.0735728)
(0.31819 0 -0.0795508)
(0.335604 0 -0.0861832)
(0.354338 0 -0.0935357)
(0.374175 0 -0.101599)
(0.394567 0 -0.110231)
(0.414809 0 -0.119217)
(0.434103 0 -0.128283)
(0.451576 0 -0.13709)
(0.46646 0 -0.145296)
(0.478139 0 -0.152564)
(0.0154502 0 -0.00260338)
(0.0444079 0 -0.00750643)
(0.0698208 0 -0.0118942)
(0.092206 0 -0.0158891)
(0.11208 0 -0.0195984)
(0.129856 0 -0.0230988)
(0.145891 0 -0.0264554)
(0.160512 0 -0.0297219)
(0.174002 0 -0.0329436)
(0.186611 0 -0.0361609)
(0.19856 0 -0.0394045)
(0.210109 0 -0.0427244)
(0.221444 0 -0.0461524)
(0.232752 0 -0.0497256)
(0.244249 0 -0.0534952)
(0.256095 0 -0.0575016)
(0.268493 0 -0.0618083)
(0.281576 0 -0.0664608)
(0.295514 0 -0.0715287)
(0.310405 0 -0.0770663)
(0.326247 0 -0.0830983)
(0.343099 0 -0.0896876)
(0.360835 0 -0.0968329)
(0.379103 0 -0.104446)
(0.397404 0 -0.112374)
(0.415214 0 -0.120446)
(0.431932 0 -0.128441)
(0.446954 0 -0.136105)
(0.459795 0 -0.143208)
(0.470015 0 -0.149475)
(0.0156215 0 -0.00268116)
(0.0449297 0 -0.00773723)
(0.0707069 0 -0.0122718)
(0.0934812 0 -0.016411)
(0.113753 0 -0.0202617)
(0.131954 0 -0.0239071)
(0.148445 0 -0.027413)
(0.163525 0 -0.0308312)
(0.177477 0 -0.0342055)
(0.19056 0 -0.0375809)
(0.203017 0 -0.0409975)
(0.215071 0 -0.0444961)
(0.226884 0 -0.0481026)
(0.238664 0 -0.0518623)
(0.250592 0 -0.0558172)
(0.262825 0 -0.0600091)
(0.275513 0 -0.0644831)
(0.288772 0 -0.0692807)
(0.302758 0 -0.0744654)
(0.317442 0 -0.0800409)
(0.332843 0 -0.0860372)
(0.34893 0 -0.0924712)
(0.365463 0 -0.0992816)
(0.382106 0 -0.106365)
(0.398493 0 -0.113605)
(0.414205 0 -0.120851)
(0.428797 0 -0.127926)
(0.441859 0 -0.134647)
(0.453053 0 -0.140838)
(0.462091 0 -0.146299)
(0.015779 0 -0.00274895)
(0.0454176 0 -0.00794056)
(0.0715375 0 -0.0126063)
(0.0946939 0 -0.016879)
(0.115381 0 -0.020866)
(0.133988 0 -0.0246449)
(0.150887 0 -0.0282835)
(0.166388 0 -0.0318371)
(0.180782 0 -0.0353549)
(0.194325 0 -0.0388809)
(0.207233 0 -0.0424514)
(0.219718 0 -0.046104)
(0.231957 0 -0.0498709)
(0.244121 0 -0.0537874)
(0.25638 0 -0.0578931)
(0.268884 0 -0.062227)
(0.281721 0 -0.0668142)
(0.295048 0 -0.0717098)
(0.308887 0 -0.0769276)
(0.323202 0 -0.0824628)
(0.338011 0 -0.0883401)
(0.353161 0 -0.0945173)
(0.368418 0 -0.100922)
(0.383537 0 -0.107475)
(0.398218 0 -0.11407)
(0.412132 0 -0.12058)
(0.424952 0 -0.126863)
(0.436416 0 -0.132797)
(0.446272 0 -0.138238)
(0.45431 0 -0.143029)
(0.015923 0 -0.00280598)
(0.0458717 0 -0.00811414)
(0.0723381 0 -0.0128984)
(0.0958569 0 -0.0172895)
(0.116916 0 -0.0213941)
(0.135894 0 -0.0252892)
(0.153189 0 -0.02905)
(0.169107 0 -0.0327315)