/*--------------------------------*- C++ -*----------------------------------*\
| =========                 |                                                 |
| \\      /  F ield         | OpenFOAM: The Open Source CFD Toolbox           |
|  \\    /   O peration     | Version:  dev                                   |
|   \\  /    A nd           | Web:      www.OpenFOAM.org                      |
|    \\/     M anipulation  |                                                 |
\*---------------------------------------------------------------------------*/
FoamFile
{
    version     2.0;
    format      ascii;
    class       surfaceScalarField;
    location    "1.53";
    object      meshPhi;
}
// * * * * * * * * * * * * * * * * * * * * * * * * * * * * * * * * * * * * * //

dimensions      [0 3 -1 0 0 0 0];

internalField   nonuniform List<scalar> 
5457
(
-5.48894e-06
2.62668e-09
-1.22209e-05
9.32899e-08
-2.10479e-05
3.85229e-07
-3.19996e-05
9.01705e-07
-4.43116e-05
1.59758e-06
-5.67328e-05
2.38686e-06
-6.78067e-05
3.16575e-06
-7.61296e-05
3.83108e-06
-8.05959e-05
4.2964e-06
-8.0586e-05
4.50245e-06
-7.60464e-05
4.42529e-06
-6.74761e-05
4.07857e-06
-5.58293e-05
3.50742e-06
-4.23456e-05
2.78041e-06
-2.83535e-05
1.97774e-06
-1.50837e-05
1.17832e-06
-3.52355e-06
4.49128e-07
5.66928e-06
-1.61456e-07
1.2193e-05
-6.26504e-07
1.60953e-05
-9.40445e-07
1.70203e-05
-1.08316e-06
1.53961e-05
-1.04472e-06
1.26451e-05
-8.91289e-07
9.54096e-06
-7.00527e-07
6.52693e-06
-5.07762e-07
3.93628e-06
-3.33123e-07
1.9794e-06
-1.91262e-07
7.34541e-07
-9.00005e-08
1.6007e-07
-3.00921e-08
-5.54452e-09
-5.287e-06
-6.21231e-09
-1.18963e-05
1.56824e-07
-2.06883e-05
7.31229e-07
-3.16853e-05
1.76315e-06
-4.41178e-05
3.16142e-06
-5.67215e-05
4.75311e-06
-6.80177e-05
6.32893e-06
-7.65731e-05
7.67928e-06
-8.12466e-05
8.62608e-06
-8.13869e-05
9.05279e-06
-7.692e-05
8.91301e-06
-6.83366e-05
8.22893e-06
-5.65959e-05
7.08994e-06
-4.29543e-05
5.63348e-06
-2.87642e-05
4.02121e-06
-1.52821e-05
2.41262e-06
-3.51914e-06
9.43237e-07
5.84776e-06
-2.88747e-07
1.25014e-05
-1.22824e-06
1.6469e-05
-1.86269e-06
1.74497e-05
-2.15432e-06
1.58341e-05
-2.08398e-06
1.30172e-05
-1.77988e-06
9.84771e-06
-1.39965e-06
6.76302e-06
-1.01645e-06
4.09574e-06
-6.67608e-07
2.0679e-06
-3.8166e-07
7.73206e-07
-1.77635e-07
1.72953e-07
-5.87806e-08
-1.09255e-08
-5.10423e-06
-3.11407e-08
-1.16031e-05
1.77639e-07
-2.03654e-05
1.01788e-06
-3.14104e-05
2.55787e-06
-4.39651e-05
4.65974e-06
-5.67544e-05
7.06337e-06
-6.82805e-05
9.45342e-06
-7.70829e-05
1.15137e-05
-8.19897e-05
1.29747e-05
-8.23175e-05
1.36563e-05
-7.79649e-05
1.34833e-05
-6.94087e-05
1.24861e-05
-5.76058e-05
1.07964e-05
-4.38225e-05
8.61912e-06
-2.94312e-05
6.19804e-06
-1.57128e-05
3.77449e-06
-3.70262e-06
1.55388e-06
5.90006e-06
-3.1396e-07
1.276e-05
-1.74385e-06
1.68919e-05
-2.71463e-06
1.79854e-05
-3.17138e-06
1.63892e-05
-3.08424e-06
1.3521e-05
-2.64024e-06
1.02868e-05
-2.07997e-06
7.12018e-06
-1.51681e-06
4.35038e-06
-1.00115e-06
2.214e-06
-5.71147e-07
8.34395e-07
-2.6048e-07
1.902e-07
-8.23207e-08
-1.48292e-08
-4.96329e-06
-7.5802e-08
-1.13733e-05
1.44921e-07
-2.01101e-05
1.22704e-06
-3.11968e-05
3.26049e-06
-4.38591e-05
6.06074e-06
-5.68158e-05
9.2812e-06
-6.8558e-05
1.25013e-05
-7.76056e-05
1.52989e-05
-8.27608e-05
1.73134e-05
-8.33086e-05
1.82949e-05
-7.91177e-05
1.81333e-05
-7.06444e-05
1.68648e-05
-5.8834e-05
1.46594e-05
-4.49522e-05
1.17859e-05
-3.03846e-05
8.56965e-06
-1.64319e-05
5.33434e-06
-4.1513e-06
2.35553e-06
5.73465e-06
-1.63428e-07
1.28717e-05
-2.1052e-06
1.72648e-05
-3.43845e-06
1.85299e-05
-4.08811e-06
1.69752e-05
-4.00808e-06
1.4081e-05
-3.44128e-06
1.07939e-05
-2.71499e-06
7.55752e-06
-1.99009e-06
4.68611e-06
-1.32946e-06
2.41185e-06
-7.67004e-07
9.07478e-07
-3.44343e-07
1.99239e-07
-9.89979e-08
-1.49899e-08
-4.79771e-06
-1.4634e-07
-1.10979e-05
4.16193e-08
-1.97986e-05
1.33375e-06
-3.09289e-05
3.84147e-06
-4.37148e-05
7.33302e-06
-5.68687e-05
1.13747e-05
-6.88713e-05
1.5443e-05
-7.82236e-05
1.90117e-05
-8.3695e-05
2.16255e-05
-8.45316e-05
2.29621e-05
-8.05664e-05
2.28719e-05
-7.22295e-05
2.1391e-05
-6.04459e-05
1.87227e-05
-4.64755e-05
1.51946e-05
-3.17186e-05
1.1208e-05
-1.74972e-05
7.16798e-06
-4.89206e-06
3.42356e-06
5.34694e-06
2.33892e-07
1.284e-05
-2.2481e-06
1.75735e-05
-3.97759e-06
1.90721e-05
-4.85644e-06
1.7593e-05
-4.81747e-06
1.46779e-05
-4.15271e-06
1.13242e-05
-3.27311e-06
8.01914e-06
-2.3983e-06
5.06994e-06
-1.62077e-06
2.65982e-06
-9.61666e-07
9.93675e-07
-4.40097e-07
1.85963e-07
-1.15649e-07
-1.0888e-08
-4.60053e-06
-2.48641e-07
-1.07673e-05
-1.48652e-07
-1.94194e-05
1.31389e-06
-3.05922e-05
4.27112e-06
-4.35148e-05
8.44339e-06
-5.68955e-05
1.33115e-05
-6.92045e-05
1.82512e-05
-7.89209e-05
2.2633e-05
-8.47779e-05
2.59037e-05
-8.59777e-05
2.76646e-05
-8.23109e-05
2.77213e-05
-7.41733e-05
2.61018e-05
-6.24654e-05
2.30366e-05
-4.84362e-05
1.89084e-05
-3.34945e-05
1.41861e-05
-1.8985e-05
9.3539e-06
-6.01355e-06
4.83777e-06
4.6389e-06
9.55869e-07
1.25563e-05
-2.09805e-06
1.76991e-05
-4.26123e-06
1.94947e-05
-5.41151e-06
1.81399e-05
-5.45908e-06
1.52273e-05
-4.73713e-06
1.17918e-05
-3.72724e-06
8.38755e-06
-2.70472e-06
5.38243e-06
-1.81965e-06
2.8979e-06
-1.10858e-06
1.08025e-06
-5.35681e-07
1.37208e-07
-1.37912e-07
-3.87737e-09
-4.36791e-06
-3.88408e-07
-1.03745e-05
-4.41772e-07
-1.89634e-05
1.14308e-06
-3.01748e-05
4.5179e-06
-4.3243e-05
9.3557e-06
-5.68789e-05
1.50561e-05
-6.95409e-05
2.08949e-05
-7.96823e-05
2.61369e-05
-8.59987e-05
3.01307e-05
-8.7644e-05
3.23973e-05
-8.43589e-05
3.26902e-05
-7.6495e-05
3.10207e-05
-6.49266e-05
2.76379e-05
-5.08874e-05
2.29717e-05
-3.57858e-05
1.75571e-05
-2.09891e-05
1.19579e-05
-7.63036e-06
6.67531e-06
3.47744e-06
2.08705e-06
1.18722e-05
-1.56883e-06
1.74785e-05
-4.20437e-06
1.96254e-05
-5.66952e-06
1.84498e-05
-5.85343e-06
1.55954e-05
-5.13138e-06
1.21036e-05
-4.04215e-06
8.56106e-06
-2.88898e-06
5.47104e-06
-1.88457e-06
2.97807e-06
-1.1376e-06
1.09112e-06
-5.74795e-07
3.38879e-08
-1.48879e-07
7.36707e-09
-4.095e-06
-5.71239e-07
-9.91064e-06
-8.53259e-07
-1.84189e-05
7.97788e-07
-2.96639e-05
4.55197e-06
-4.28873e-05
1.00349e-05
-5.68044e-05
1.65674e-05
-6.98629e-05
2.33276e-05
-8.04904e-05
2.94757e-05
-8.73435e-05
3.42621e-05
-8.95232e-05
3.71235e-05
-8.67134e-05
3.7754e-05
-7.92145e-05
3.61401e-05
-6.78671e-05
3.25399e-05
-5.38847e-05
2.74202e-05
-3.86692e-05
2.13778e-05
-2.36099e-05
1.50508e-05
-9.87164e-06
9.01651e-06
1.70192e-06
3.71681e-06
1.06014e-05
-5.63682e-07
1.67029e-05
-3.70556e-06
1.9231e-05
-5.52327e-06
1.82753e-05
-5.88623e-06
1.55515e-05
-5.2243e-06
1.20873e-05
-4.13598e-06
8.42515e-06
-2.91653e-06
5.18692e-06
-1.79564e-06
2.68734e-06
-9.8723e-07
8.64451e-07
-4.6717e-07
-1.57408e-07
-9.83737e-08
3.1565e-08
-3.7751e-06
-8.02607e-07
-9.36475e-06
-1.39799e-06
-1.77722e-05
2.56254e-07
-2.90442e-05
4.34587e-06
-4.24296e-05
1.04472e-05
-5.66487e-05
1.7804e-05
-7.01416e-05
2.55009e-05
-8.13136e-05
3.25979e-05
-8.87811e-05
3.82475e-05
-9.15893e-05
4.18009e-05
-8.93601e-05
4.2887e-05
-8.23357e-05
4.14532e-05
-7.13132e-05
3.77533e-05
-5.74807e-05
3.22853e-05
-4.22305e-05
2.57014e-05
-2.69644e-05
1.87045e-05
-1.28855e-05
1.19475e-05
-8.7603e-07
5.94482e-06
8.51656e-06
1.03096e-06
1.51109e-05
-2.64123e-06
1.8019e-05
-4.84097e-06
1.72903e-05
-5.41205e-06
1.47466e-05
-4.85211e-06
1.1423e-05
-3.8463e-06
7.74592e-06
-2.6735e-06
4.33865e-06
-1.5012e-06
1.78235e-06
-6.05181e-07
1.88934e-07
-1.1941e-07
-4.72314e-07
8.13003e-08
8.28303e-08
-3.39981e-06
-1.0887e-06
-8.72338e-06
-2.0923e-06
-1.70076e-05
-5.04136e-07
-2.82968e-05
3.87257e-06
-4.18455e-05
1.05612e-05
-5.63809e-05
1.87301e-05
-7.03404e-05
2.73755e-05
-8.21107e-05
3.54616e-05
-9.02703e-05
4.20459e-05
-9.38081e-05
4.63933e-05
-9.22776e-05
4.80612e-05
-8.5854e-05
4.69434e-05
-7.52818e-05
4.32764e-05
-6.17187e-05
3.758e-05
-4.65489e-05
3.05551e-05
-3.11787e-05
2.29712e-05
-1.68412e-05
1.55502e-05
-4.46923e-06
8.87623e-06
5.35284e-06
3.34131e-06
1.23881e-05
-8.64662e-07
1.56443e-05
-3.46466e-06
1.51223e-05
-4.26791e-06
1.27471e-05
-3.82796e-06
9.62767e-06
-2.94249e-06
6.07439e-06
-1.91873e-06
2.59442e-06
-8.26536e-07
1.89694e-08
9.95955e-08
-1.08163e-06
5.26195e-07
-9.10782e-07
4.27935e-07
1.68828e-07
-2.95887e-06
-1.43544e-06
-7.97073e-06
-2.95136e-06
-1.61077e-05
-1.50331e-06
-2.74021e-05
3.10886e-06
-4.11115e-05
1.03489e-05
-5.59721e-05
1.93118e-05
-7.04235e-05
2.89101e-05
-8.28399e-05
3.80186e-05
-9.17663e-05
4.56037e-05
-9.61362e-05
5.08417e-05
-9.54285e-05
5.32108e-05
-8.97453e-05
5.25475e-05
-7.97732e-05
4.90646e-05
-6.66296e-05
4.32882e-05
-5.16862e-05
3.59532e-05
-3.63592e-05
2.78913e-05
-2.19012e-05
1.98936e-05
-9.29485e-06
1.26124e-05
8.26176e-07
6.50188e-06
8.17924e-06
1.79241e-06
1.17175e-05
-1.20581e-06
1.13772e-05
-2.26817e-06
9.10759e-06
-1.96327e-06
6.13831e-06
-1.18319e-06
2.78196e-06
-3.30564e-07
-5.32017e-07
5.457e-07
-2.77699e-06
1.29528e-06
-2.87857e-06
1.46801e-06
-1.40359e-06
9.04544e-07
2.79583e-07
-2.44093e-06
-1.84762e-06
-7.09032e-06
-3.98706e-06
-1.5057e-05
-2.75575e-06
-2.63436e-05
2.03753e-06
-4.02071e-05
9.78606e-06
-5.53948e-05
1.95136e-05
-7.03537e-05
3.00556e-05
-8.34531e-05
4.02049e-05
-9.32112e-05
4.88426e-05
-9.85065e-05
5.50584e-05
-9.8745e-05
5.82499e-05
-9.39531e-05
5.81925e-05
-8.4752e-05
5.50602e-05
-7.22134e-05
4.93728e-05
-5.7681e-05
4.18886e-05
-4.25827e-05
3.34871e-05
-2.82008e-05
2.50315e-05
-1.5556e-05
1.72451e-05
-5.33961e-06
1.06446e-05
2.11955e-06
5.50736e-06
5.82019e-06
2.15138e-06
5.63912e-06
8.08636e-07
3.41454e-06
9.43086e-07
4.69597e-07
1.63695e-06
-2.69852e-06
2.36228e-06
-5.4639e-06
2.93113e-06
-6.57384e-06
3.15805e-06
-4.87017e-06
2.646e-06
-1.81997e-06
1.40195e-06
3.86575e-07
-1.83219e-06
-2.33061e-06
-6.06282e-06
-5.21192e-06
-1.38398e-05
-4.27373e-06
-2.51049e-05
6.46696e-07
-3.91113e-05
8.8548e-06
-5.46186e-05
1.93067e-05
-7.00869e-05
3.07676e-05
-8.38899e-05
4.19586e-05
-9.45294e-05
5.16874e-05
-0.000100834
5.896e-05
-0.000102141
6.30934e-05
-9.83995e-05
6.37965e-05
-9.01516e-05
6.11879e-05
-7.8423e-05
5.57685e-05
-6.45282e-05
4.83168e-05
-4.989e-05
3.97493e-05
-3.58271e-05
3.09898e-05
-2.34032e-05
2.28369e-05
-1.33647e-05
1.58747e-05
-6.09497e-06
1.04313e-05
-2.42485e-06
6.80565e-06
-2.48504e-06
5.19334e-06
-4.67838e-06
5.11119e-06
-7.64476e-06
5.68298e-06
-1.05509e-05
6.27662e-06
-1.22159e-05
6.44098e-06
-1.11013e-05
5.77551e-06
-6.74932e-06
4.08894e-06
-2.1618e-06
1.9568e-06
5.36577e-07
-1.1177e-06
-2.89056e-06
-4.86722e-06
-6.63974e-06
-1.24417e-05
-6.06694e-06
-2.36709e-05
-1.06936e-06
-3.78034e-05
7.5444e-06
-5.36132e-05
1.86719e-05
-6.95798e-05
3.10161e-05
-8.40909e-05
4.3236e-05
-9.56412e-05
5.40735e-05
-0.000103021
6.24594e-05
-0.000105506
6.76321e-05
-0.000102966
6.92312e-05
-9.58632e-05
6.73206e-05
-8.51633e-05
6.23673e-05
-7.21574e-05
5.51524e-05
-5.82513e-05
4.66227e-05
-4.47881e-05
3.77513e-05
-3.28878e-05
2.94062e-05
-2.33508e-05
2.22433e-05
-1.66174e-05
1.66494e-05
-1.3233e-05
1.28834e-05
-1.32437e-05
1.10566e-05
-1.53464e-05
1.07217e-05
-1.8155e-05
1.106e-05
-2.04284e-05
1.13675e-05
-2.02917e-05
1.09384e-05
-1.60577e-05
9.1188e-06
-8.6212e-06
5.96607e-06
-2.67368e-06
2.77465e-06
8.5864e-07
-4.34348e-07
-3.36115e-06
-3.58021e-06
-8.01377e-06
-1.08394e-05
-8.06139e-06
-2.20237e-05
-3.1351e-06
-3.62594e-05
5.84028e-06
-5.2344e-05
1.75894e-05
-6.87851e-05
3.07727e-05
-8.39915e-05
4.39947e-05
-9.64594e-05
5.59373e-05
-0.000104958
6.54708e-05
-0.000108711
7.17679e-05
-0.000107517
7.43978e-05
-0.000101757
7.33645e-05
-9.23211e-05
6.90877e-05
-8.04672e-05
6.23318e-05
-6.75915e-05
5.40671e-05
-5.50471e-05
4.53098e-05
-4.39979e-05
3.69814e-05
-3.5305e-05
2.98065e-05
-2.94673e-05
2.42392e-05
-2.66411e-05
2.04818e-05
-2.66624e-05
1.85113e-05
-2.8494e-05
1.78794e-05
-3.07001e-05
1.78142e-05
-3.16508e-05
1.75543e-05
-2.89962e-05
1.62444e-05
-2.12736e-05
1.3112e-05
-1.08168e-05
8.41069e-06
-3.41467e-06
3.9256e-06
1.61744e-06
1.91356e-06
-2.78034e-08
1.81009e-05
-3.23553e-07
8.46893e-05
-1.41654e-06
0.000207304
-2.62945e-06
0.000307173
-2.56732e-06
0.000330549
-6.14595e-07
0.000308568
2.54561e-06
0.000283071
5.14376e-06
0.00027009
7.46438e-06
0.000268877
9.33506e-06
0.000275495
1.02541e-05
0.00028834
1.06566e-05
0.000305515
1.05402e-05
0.000324403
9.69428e-06
0.000342652
8.21032e-06
0.000358267
6.15596e-06
0.000369641
3.64596e-06
0.000375584
8.47799e-07
0.000375325
-2.03254e-06
0.000368487
-4.77816e-06
0.000355025
-7.19047e-06
0.000335157
-9.11096e-06
0.000309275
-1.04315e-05
0.000277874
-1.10938e-05
0.000241483
-1.10805e-05
0.000200612
-1.04034e-05
0.000155713
-9.09109e-06
0.000107174
-7.17822e-06
5.51399e-05
-4.69328e-06
-1.66973e-06
2.06482e-06
-5.959e-08
1.99502e-05
-7.0622e-07
9.02069e-05
-2.74343e-06
0.000213467
-4.61806e-06
0.000308896
-4.19699e-06
0.000328147
-3.52233e-07
0.00030514
5.5193e-06
0.000280096
1.05562e-05
0.000268034
1.47746e-05
0.000268048
1.82534e-05
0.000275477
2.03402e-05
0.000288663
2.10883e-05
0.000306147
2.06498e-05
0.000325238
1.89033e-05
0.000343597
1.59152e-05
0.000359244
1.18108e-05
0.000370587
6.82051e-06
0.000376452
1.2797e-06
0.000376083
-4.40394e-06
0.000369115
-9.8048e-06
0.000355515
-1.45354e-05
0.00033551
-1.82878e-05
0.0003095
-2.08528e-05
0.000277988
-2.21177e-05
0.000241505
-2.20503e-05
0.000200565
-2.06741e-05
0.000155623
-1.80452e-05
0.000107071
-1.42325e-05
5.50659e-05
-9.29423e-06
-3.3032e-06
2.33007e-06
-1.02241e-07
2.29363e-05
-1.18068e-06
9.66814e-05
-3.96691e-06
0.000214534
-5.98945e-06
0.000297537
-4.69334e-06
0.0003105
1.0648e-06
0.000289015
9.15932e-06
0.000267881
1.61323e-05
0.000259135
2.18117e-05
0.000261678
2.65226e-05
0.000270942
2.96028e-05
0.000285271
3.05952e-05
0.000303545
2.97076e-05
0.000323174
2.70055e-05
0.000341901
2.2513e-05
0.0003578
1.64098e-05
0.00036932
9.04186e-06
0.000375311
9.06746e-07
0.000375035
-7.39976e-06
0.000368138
-1.52617e-05
0.000354596
-2.21215e-05
0.00033464
-2.75369e-05
0.000308677
-3.12077e-05
0.000277213
-3.29726e-05
0.000240787
-3.27849e-05
0.000199919
-3.06789e-05
0.000155071
-2.67357e-05
0.000106645
-2.10566e-05
5.48171e-05
-1.37306e-05
-4.87413e-06
2.7627e-06
-1.78466e-07
2.65974e-05
-1.71449e-06
0.000101233
-4.89624e-06
0.000205673
-6.31356e-06
0.000270331
-3.42258e-06
0.000277277
4.00341e-06
0.000260494
1.32596e-05
0.000246473
2.13222e-05
0.000243215
2.81316e-05
0.000249357
3.38958e-05
0.000261219
3.7596e-05
0.000277429
3.85831e-05
0.000296977
3.71641e-05
0.000317509
3.34613e-05
0.000336908
2.74885e-05
0.000353339
1.94829e-05
0.000365309
9.90287e-06
0.000371699
-6.03427e-07
0.000371789
-1.12728e-05
0.000365232
-2.13242e-05
0.000352004
-3.00535e-05
0.00033234
-3.69034e-05
0.000306648
-4.14947e-05
0.00027544
-4.36227e-05
0.000239259
-4.3227e-05
0.000198635
-4.03502e-05
0.000154042
-3.50951e-05
0.0001059
-2.7593e-05
5.4408e-05
-1.79632e-05
-6.36848e-06
3.48275e-06
-3.12185e-07
3.05533e-05
-2.26843e-06
0.000102384
-5.37322e-06
0.000187769
-5.61865e-06
0.000233166
-8.99024e-07
0.000236369
7.71424e-06
0.000226077
1.71633e-05
0.000220144
2.55935e-05
0.000222993
3.32951e-05
0.000233213
3.99654e-05
0.000248095
4.39935e-05
0.000266568
4.47668e-05
0.000287697
4.27102e-05
0.000309387
3.79661e-05
0.000329682
3.05541e-05
0.000346853
2.07718e-05
0.000359466
9.18256e-06
0.000366443
-3.43033e-06
0.000367078
-1.616e-05
0.000361031
-2.80877e-05
0.00034828
-3.83891e-05
0.000329059
-4.64118e-05
0.000303779
-5.17109e-05
0.000272955
-5.40444e-05
0.000237141
-5.33393e-05
0.000196876
-4.96438e-05
0.000152651
-4.3079e-05
0.000104905
-3.38034e-05
5.38669e-05
-2.19661e-05
-7.77676e-06
4.55009e-06
-5.06641e-07
3.38988e-05
-2.69654e-06
9.81982e-05
-5.08825e-06
0.000161919
-3.87878e-06
0.000191086
2.24479e-06
0.000193762
1.1298e-05
0.000190733
2.04471e-05
0.000192363
2.89676e-05
0.000200789
3.72183e-05
0.000214936
4.43872e-05
0.000232863
4.85006e-05
0.000253685
4.89231e-05
0.000276503
4.61304e-05
0.000299466
4.03155e-05
0.000320777
3.1525e-05
0.000338804
2.01184e-05
0.000352183
6.75264e-06
0.000359868
-7.67133e-06
0.000361169
-2.21293e-05
0.000355752
-3.55937e-05
0.000343595
-4.71461e-05
0.000324931
-5.606e-05
0.000300173
-6.18381e-05
0.000269841
-6.42081e-05
0.000234496
-6.3085e-05
0.00019469
-5.85209e-05
0.000150932
-5.06506e-05
0.000103683
-3.96572e-05
5.32068e-05
-2.57186e-05
-9.09167e-06
5.85162e-06
-7.26016e-07
3.53004e-05
-2.76729e-06
8.76902e-05
-3.78155e-06
0.000131036
-1.02039e-06
0.000149363
5.73149e-06
0.000154053
1.4311e-05
0.000157755
2.28927e-05
0.000165644
3.14076e-05
0.000178664
3.98421e-05
0.000196148
4.70757e-05
0.000216777
5.10432e-05
0.000239784
5.09599e-05
0.000264226
4.73378e-05
0.000288451
4.04346e-05
0.000310791
3.03449e-05
0.000329706
1.74862e-05
0.000343896
2.59342e-06
0.000352343
-1.33299e-05
0.000354372
-2.91711e-05
0.00034965
-4.38225e-05
0.000338157
-5.62975e-05
0.000320124
-6.58153e-05
0.000295965
-7.184e-05
0.000266203
-7.40751e-05
0.000231407
-7.24259e-05
0.000192143
-6.69457e-05
0.000148934
-5.77785e-05
0.000102269
-4.51297e-05
5.2446e-05
-2.92054e-05
-1.0308e-05
7.04218e-06
-8.91901e-07
3.36544e-05
-2.35458e-06
7.17774e-05
-1.66139e-06
9.92041e-05
2.44356e-06
0.000112252
9.03626e-06
0.000120113
1.64872e-05
0.0001291
2.43288e-05
0.000141602
3.26466e-05
0.000158053
4.09902e-05
0.000178087
4.8026e-05
0.000200911
5.16278e-05
0.000225777
5.08929e-05
0.000251648
4.63599e-05
0.00027702
3.83648e-05
0.000300311
2.70748e-05
0.000320061
1.29489e-05
0.000335035
-3.22021e-06
0.000344234
-2.03288e-05
0.000346992
-3.72097e-05
0.00034298
-5.27033e-05
0.000332175
-6.57789e-05
0.000314807
-7.56204e-05
0.000291289
-8.16656e-05
0.000262149
-8.36008e-05
0.000227961
-8.13234e-05
0.000189304
-7.48873e-05
0.00014671
-6.44373e-05
0.000100697
-5.02018e-05
5.16035e-05
-3.24157e-05
-1.14224e-05
7.66144e-06
-9.2118e-07
2.89406e-05
-1.55894e-06
5.36639e-05
4.37539e-07
7.08157e-05
5.13889e-06
8.2304e-05
1.11677e-05
9.30924e-05
1.7634e-05
0.000105674
2.48213e-05
0.000121155
3.27265e-05
0.000139851
4.07085e-05
0.000161648
4.73056e-05
0.000186098
5.03398e-05
0.000212413
4.88265e-05
0.000239442
4.33152e-05
0.000265785
3.42332e-05
0.000289936
2.18213e-05
0.00031045
6.62827e-06
0.000326122
-1.05284e-05
0.000336
-2.85134e-05
0.000339428
-4.6102e-05
0.00033608
-6.21082e-05
0.000325932
-7.54787e-05
0.000309213
-8.53791e-05
0.000286335
-9.1233e-05
0.000257827
-9.27161e-05
0.000224275
-8.97211e-05
0.000186257
-8.22999e-05
0.000144316
-7.05983e-05
9.90046e-05
-5.48606e-05
5.06999e-05
-3.53443e-05
-1.24339e-05
7.38546e-06
-7.77714e-07
2.23869e-05
-6.37353e-07
3.7367e-05
1.80818e-06
4.90631e-05
6.23144e-06
6.01936e-05
1.16918e-05
7.27008e-05
1.77506e-05
8.73039e-05
2.45389e-05
0.00010447
3.19052e-05
0.000124477
3.92416e-05
0.00014739
4.5089e-05
0.000172985
4.73131e-05
0.000200375
4.49112e-05
0.000228272
3.84076e-05
0.000255346
2.82816e-05
0.00028017
1.48412e-05
0.000301322
-1.248e-06
0.000317568
-1.9121e-05
0.000328002
-3.76824e-05
0.000331988
-5.56686e-05
0.00032921
-7.18822e-05
0.000319646
-8.52661e-05
0.00030352
-9.49838e-05
0.000281244
-0.000100455
0.000253349
-0.000101351
0.000220426
-9.75594e-05
0.000183054
-8.91287e-05
0.000141792
-7.62203e-05
9.72216e-05
-5.90824e-05
4.975e-05
-3.79784e-05
-1.33382e-05
6.21638e-06
-4.97043e-07
1.56962e-05
1.79612e-07
2.51291e-05
2.42975e-06
3.4317e-05
6.20013e-06
4.49452e-05
1.12227e-05
5.78779e-05
1.71322e-05
7.32905e-05
2.36214e-05
9.13093e-05
3.03698e-05
0.000112075
3.68249e-05
0.000135665
4.16462e-05
0.000161995
4.28131e-05
0.00019012
3.93913e-05
0.000218615
3.18871e-05
0.000246168
2.07858e-05
0.000271377
6.46496e-06
0.000292893
-1.03585e-05
0.00030952
-2.87556e-05
0.000320343
-4.76289e-05
0.000324747
-6.57341e-05
0.000322424
-8.18823e-05
0.000313354
-9.50303e-05
0.000297758
-0.000104353
0.000276043
-0.000109276
0.000248735
-0.00010947
0.000216426
-0.000104821
0.00017971
-9.53739e-05
0.000139162
-8.13032e-05
9.53678e-05
-6.28586e-05
4.87591e-05
-4.03109e-05
-1.41327e-05
4.47666e-06
-1.66826e-07
1.01015e-05
7.82369e-07
1.6904e-05
2.62914e-06
2.49123e-05
5.79389e-06
3.48848e-05
1.03757e-05
4.75276e-05
1.60169e-05
6.30152e-05
2.21319e-05
8.13736e-05
2.81897e-05
0.000102584
3.36186e-05
0.000126605
3.72222e-05
0.000153339
3.7153e-05
0.000181838
3.25756e-05
0.000210638
2.40121e-05
0.000238411
1.19808e-05
0.000263764
-3.0899e-06
0.000285395
-2.04658e-05
0.00030217
-3.91897e-05
0.000313188
-5.8143e-05
0.000317846
-7.61202e-05
0.000315843
-9.19638e-05
0.000307159
-0.00010466
0.000292013
-0.000113407
0.000270804
-0.000117644
0.000244054
-0.000117047
0.000212346
-0.000111501
0.000176287
-0.000101052
0.000136465
-8.58695e-05
9.34662e-05
-6.62112e-05
4.77422e-05
-4.23613e-05
-1.48263e-05
2.66676e-06
1.06014e-07
6.08546e-06
1.15045e-06
1.16899e-05
2.72396e-06
1.9117e-05
5.46692e-06
2.85895e-05
9.54515e-06
4.07731e-05
1.46758e-05
5.60317e-05
2.02076e-05
7.44242e-05
2.54492e-05
9.58456e-05
2.97464e-05
0.000120128
3.19823e-05
0.000147056
3.0521e-05
0.000175662
2.46785e-05
0.000204489
1.50197e-05
0.000232216
2.10496e-06
0.000257484
-1.36037e-05
0.00027902
-3.13587e-05
0.000295725
-5.01978e-05
0.000306734
-6.90145e-05
0.000311464
-8.66451e-05
0.000309626
-0.000101977
0.000301202
-0.000114038
0.000286407
-0.000122059
0.000265633
-0.000125499
0.000239392
-0.000124044
0.000208262
-0.000117579
0.000172849
-0.000106149
0.000133747
-8.99215e-05
9.15502e-05
-6.91564e-05
4.67231e-05
-4.41469e-05
-1.54267e-05
1.28607e-06
2.34977e-07
3.64414e-06
1.31199e-06
8.6063e-06
2.80207e-06
1.5706e-05
5.38906e-06
2.49451e-05
9.01586e-06
3.68479e-05
1.34376e-05
5.18959e-05
1.80888e-05
7.02326e-05
2.22839e-05
9.17331e-05
2.53408e-05
0.00011615
2.61021e-05
0.000143135
2.30633e-05
0.000171661
1.58449e-05
0.000200293
5.10922e-06
0.000227734
-8.61323e-06
0.000252667
-2.48331e-05
0.000273866
-4.27987e-05
0.000290275
-6.15607e-05
0.000301065
-8.00443e-05
0.00030568
-9.71364e-05
0.000303846
-0.00011178
0.000295549
-0.000123053
0.000281
-0.000130227
0.000260583
-0.000132786
0.000234797
-0.000130429
0.000204212
-0.000123041
0.000169426
-0.000110665
0.000131037
-9.34655e-05
8.96413e-05
-7.17026e-05
4.57128e-05
-4.56742e-05
-1.59363e-05
7.9783e-07
1.05558e-07
2.86618e-06
1.38394e-06
7.33248e-06
2.9917e-06
1.40819e-05
5.51393e-06
2.32256e-05
8.70831e-06
3.5113e-05
1.23028e-05
5.01434e-05
1.58363e-05
6.84899e-05
1.87452e-05
9.00283e-05
2.0368e-05
0.000114533
1.94418e-05
0.000141479
1.46687e-05
0.000169731
6.08196e-06
0.000197949
-5.64781e-06
0.000224856
-2.00753e-05
0.0002492
-3.66672e-05
0.000269815
-5.46769e-05
0.000285694
-7.31808e-05
0.000296054
-9.11493e-05
0.000300371
-0.000107529
0.000298387
-0.000121328
0.000290096
-0.000131682
0.000275702
-0.000137907
0.00025558
-0.000139518
0.000230213
-0.000136226
0.000200156
-0.00012792
0.000165995
-0.000114639
0.000128323
-9.65409e-05
8.77356e-05
-7.38844e-05
4.47108e-05
-4.69688e-05
-1.63651e-05
-5.83993e-08
-3.60507e-06
-2.6405e-06
-8.91963e-06
-9.49335e-06
-9.8517e-06
-2.08937e-05
-5.46463e-06
-3.57681e-05
3.67363e-06
-5.27211e-05
1.60063e-05
-7.02506e-05
2.99824e-05
-8.67308e-05
4.41741e-05
-0.000100618
5.72166e-05
-0.000110634
6.79379e-05
-0.00011593
7.54518e-05
-0.000116222
7.92539e-05
-0.000111825
7.9278e-05
-0.000103585
7.58939e-05
-9.27544e-05
6.98377e-05
-8.07674e-05
6.20816e-05
-6.9035e-05
5.36747e-05
-5.87977e-05
4.55888e-05
-5.10061e-05
3.86104e-05
-4.62255e-05
3.32522e-05
-4.41313e-05
2.96468e-05
-4.41426e-05
2.75823e-05
-4.54123e-05
2.65719e-05
-4.6435e-05
2.58997e-05
-4.52211e-05
2.47625e-05
-3.93152e-05
2.22801e-05
-2.79064e-05
1.78033e-05
-1.4519e-05
1.18217e-05
-5.18621e-06
6.23355e-06
2.66261e-06
-4.85676e-07
1.55229e-08
-3.76665e-06
-2.1887e-06
-9.43411e-06
-8.28186e-06
-1.10098e-05
-1.92175e-05
-7.53126e-06
-3.43351e-05
1.16503e-06
-5.19303e-05
1.38495e-05
-7.03116e-05
2.85857e-05
-8.78639e-05
4.37118e-05
-0.00010304
5.78451e-05
-0.000114544
6.97816e-05
-0.000121475
7.8583e-05
-0.000123473
8.36751e-05
-0.000120779
8.49237e-05
-0.000114179
8.26428e-05
-0.000104879
7.75225e-05
-9.43092e-05
7.05167e-05
-8.39159e-05
6.26901e-05
-7.50018e-05
5.50591e-05
-6.85853e-05
4.84692e-05
-6.52741e-05
4.3486e-05
-6.42113e-05
4.01678e-05
-6.40805e-05
3.80471e-05
-6.41986e-05
3.65377e-05
-6.32054e-05
3.50235e-05
-5.89822e-05
3.27389e-05
-4.95465e-05
2.89221e-05
-3.50834e-05
2.32348e-05
-1.969e-05
1.64165e-05
-8.66584e-06
1.01905e-05
5.93693e-06
-3.33282e-06
1.00305e-08
-3.94819e-06
-2.12399e-06
-9.90344e-06
-7.74765e-06
-1.17405e-05
-1.78423e-05
-8.88143e-06
-3.25816e-05
-1.07941e-06
-5.06103e-05
1.12773e-05
-6.98398e-05
2.65291e-05
-8.84568e-05
4.25553e-05
-0.00010494
5.77438e-05
-0.000117987
7.08902e-05
-0.000126658
8.10159e-05
-0.000130529
8.74878e-05
-0.000129755
9.01004e-05
-0.000125055
8.90975e-05
-0.000117577
8.51165e-05
-0.000108729
7.90812e-05
-9.9965e-05
7.20493e-05
-9.26304e-05
6.50562e-05
-8.78121e-05
5.89942e-05
-8.61856e-05
5.4497e-05
-8.64997e-05
5.16112e-05
-8.60731e-05
4.95107e-05
-8.43077e-05
4.73573e-05
-8.05296e-05
4.47583e-05
-7.2721e-05
4.11398e-05
-5.98406e-05
3.59692e-05
-4.2974e-05
2.92606e-05
-2.61706e-05
2.18613e-05
-1.36414e-05
1.52141e-05
1.04781e-05
-6.7085e-06
3.57301e-08
-4.14278e-06
-2.09115e-06
-1.04361e-05
-7.62866e-06
-1.24859e-05
-1.71769e-05
-9.83769e-06
-3.10772e-05
-2.63683e-06
-4.8882e-05
8.89961e-06
-6.87484e-05
2.39712e-05
-8.84095e-05
4.06473e-05
-0.000106181
5.68439e-05
-0.000120788
7.11663e-05
-0.000131259
8.26273e-05
-0.000137106
9.05308e-05
-0.0001384
9.45987e-05
-0.000135777
9.49995e-05
-0.000130326
9.23122e-05
-0.000123408
8.74169e-05
-0.000116449
8.13451e-05
-0.000110794
7.51245e-05
-0.000107565
6.96589e-05
-0.000107524
6.56318e-05
-0.000109228
6.30827e-05
-0.000108617
6.10152e-05
-0.000104781
5.84018e-05
-9.76078e-05
5.474e-05
-8.59162e-05
4.9682e-05
-6.99304e-05
4.32165e-05
-5.11859e-05
3.56529e-05
-3.33892e-05
2.78366e-05
-1.96992e-05
2.09738e-05
1.59529e-05
-1.14272e-05
1.01679e-07
-4.35489e-06
-1.96107e-06
-1.10286e-05
-7.46053e-06
-1.33749e-05
-1.68665e-05
-1.09137e-05
-3.01864e-05
-3.91867e-06
-4.72591e-05
7.06002e-06
-6.71266e-05
2.14627e-05
-8.76271e-05
3.81332e-05
-0.000106645
5.5099e-05
-0.00012277
7.05489e-05
-0.000135035
8.3308e-05
-0.000142889
9.26436e-05
-0.000146305
9.8202e-05
-0.000145836
0.000100074
-0.000142486
9.87683e-05
-0.000137552
9.51045e-05
-0.000132405
9.00789e-05
-0.000128329
8.46871e-05
-0.000126393
7.98018e-05
-0.000127309
7.60835e-05
-0.000129223
7.34065e-05
-0.000128228
7.08801e-05
-0.000123162
6.78451e-05
-0.000113236
6.36915e-05
-9.82875e-05
5.78792e-05
-7.95597e-05
5.04851e-05
-5.91584e-05
4.21402e-05
-4.04711e-05
3.39349e-05
-2.56506e-05
2.68691e-05
2.15459e-05
-1.60346e-05
2.23e-07
-4.58689e-06
-1.71392e-06
-1.16886e-05
-7.08041e-06
-1.44009e-05
-1.6366e-05
-1.22462e-05
-2.94745e-05
-5.4694e-06
-4.59996e-05
5.28933e-06
-6.53708e-05
1.92448e-05
-8.6196e-05
3.55448e-05
-0.00010626
5.27627e-05
-0.000123765
6.90341e-05
-0.000137751
8.29658e-05
-0.00014755
9.36915e-05
-0.000153023
0.000100707
-0.000154654
0.000104039
-0.000153318
0.000104114
-0.00015025
0.000101685
-0.00014673
9.77111e-05
-0.000143922
9.31236e-05
-0.000142745
8.87376e-05
-0.000143672
8.5139e-05
-0.000144178
8.20116e-05
-0.00014146
7.8472e-05
-0.000135131
7.43433e-05
-0.000124127
6.96297e-05
-0.000108081
6.38609e-05
-8.78542e-05
5.6601e-05
-6.62014e-05
4.81988e-05
-4.63849e-05
3.97541e-05
-3.01282e-05
3.23083e-05
2.64955e-05
-1.89715e-05
4.14379e-07
-4.84116e-06
-1.31792e-06
-1.24232e-05
-6.45554e-06
-1.55749e-05
-1.54889e-05
-1.38268e-05
-2.83686e-05
-7.41764e-06
-4.46166e-05
3.05486e-06
-6.35429e-05
1.67525e-05
-8.42316e-05
3.27549e-05
-0.000104898
4.98836e-05
-0.000123577
6.65955e-05
-0.000139205
8.15429e-05
-0.000150796
9.35869e-05
-0.000158117
0.000101956
-0.000161644
0.000106644
-0.00016205
0.000107995
-0.00016056
0.000106704
-0.000158313
0.000103708
-0.000156304
9.98393e-05
-0.000155261
9.58386e-05
-0.000155396
9.22167e-05
-0.000153811
8.85764e-05
-0.000148162
8.39676e-05
-0.00013925
7.84298e-05
-0.000127287
7.25843e-05
-0.000111507
6.6414e-05
-9.18395e-05
5.9551e-05
-7.04295e-05
5.2002e-05
-4.97851e-05
4.41492e-05
-3.18487e-05
3.66524e-05
3.0278e-05
-1.88027e-05
6.90358e-07
-5.11826e-06
-7.4534e-07
-1.3234e-05
-5.54669e-06
-1.69003e-05
-1.41982e-05
-1.56618e-05
-2.66721e-05
-9.7568e-06
-4.25442e-05
2.37061e-07
-6.10858e-05
1.3513e-05
-8.14083e-05
2.91274e-05
-0.000102161
4.59767e-05
-0.00012169
6.28153e-05
-0.000138847
7.85268e-05
-0.00015218
9.18579e-05
-0.000161245
0.000101719
-0.00016631
0.000107749
-0.000167953
0.000110132
-0.000167598
0.000109752
-0.000166147
0.000107588
-0.00016439
0.000104312
-0.000162884
0.000100563
-0.000161678
9.68054e-05
-0.000157906
9.26271e-05
-0.000149337
8.70806e-05
-0.000137549
8.04079e-05
-0.000123732
7.35116e-05
-0.00010741
6.65651e-05
-8.8688e-05
5.94881e-05
-6.85681e-05
5.23669e-05
-4.8187e-05
4.52523e-05
-2.91675e-05
3.83176e-05
3.20032e-05
-1.43048e-05
1.06308e-06
-5.41615e-06
2.81515e-08
-1.41161e-05
-4.31605e-06
-1.83715e-05
-1.24394e-05
-1.7748e-05
-2.43256e-05
-1.24835e-05
-3.95908e-05
-3.13851e-06
-5.75441e-05
9.50577e-06
-7.72823e-05
2.45159e-05
-9.76575e-05
4.08448e-05
-0.000117424
5.7415e-05
-0.000135499
7.32465e-05
-0.000150422
8.73264e-05
-0.000161426
9.8688e-05
-0.000168003
0.000106457
-0.000170462
0.000110138
-0.000170628
0.000110538
-0.000169439
0.000108978
-0.000167361
0.00010613
-0.000164875
0.000102486
-0.000161955
9.85154e-05
-0.000155986
9.38221e-05
-0.000145035
8.7527e-05
-0.00013106
8.00206e-05
-0.000115443
7.23787e-05
-9.80185e-05
6.49017e-05
-7.91997e-05
5.75169e-05
-5.95264e-05
5.02453e-05
-3.95899e-05
4.32021e-05
-2.0259e-05
3.65367e-05
3.03706e-05
-4.21111e-06
1.54417e-06
-5.73247e-06
1.02667e-06
-1.50633e-05
-2.72566e-06
-1.99777e-05
-1.01641e-05
-2.00675e-05
-2.12739e-05
-1.55732e-05
-3.56999e-05
-7.04461e-06
-5.27896e-05
4.7658e-06
-7.1668e-05
1.89594e-05
-9.12954e-05
3.45514e-05
-0.000110609
5.05382e-05
-0.000128573
6.59427e-05
-0.000144213
7.99506e-05
-0.000156691
9.188e-05
-0.000165071
0.000101064
-0.000168759
0.000106678
-0.000169194
0.000108563
-0.000167699
0.000107694
-0.00016472
0.00010504
-0.000160846
0.000101339
-0.000155972
9.70916e-05
-0.000147942
9.19273e-05
-0.00013517
8.51048e-05
-0.000119611
7.70829e-05
-0.000102693
6.89879e-05
-8.44151e-05
6.1176e-05
-6.50516e-05
5.35841e-05
-4.49913e-05
4.62037e-05