/*--------------------------------*- C++ -*----------------------------------*\
| =========                 |                                                 |
| \\      /  F ield         | OpenFOAM: The Open Source CFD Toolbox           |
|  \\    /   O peration     | Version:  dev                                   |
|   \\  /    A nd           | Web:      www.OpenFOAM.org                      |
|    \\/     M anipulation  |                                                 |
\*---------------------------------------------------------------------------*/
FoamFile
{
    version     2.0;
    format      ascii;
    class       pointVectorField;
    location    "1.53";
    object      pointDisplacement;
}
// * * * * * * * * * * * * * * * * * * * * * * * * * * * * * * * * * * * * * //

dimensions      [0 1 0 0 0 0 0];

internalField   nonuniform List<vector> 
5828
(
(0 0 0)
(0.0241053 0 0)
(0.0454606 0 0)
(0.0634563 0 0)
(0.0784393 0 0)
(0.0907375 0 0)
(0.100636 0 0)
(0.108383 0 0)
(0.114192 0 0)
(0.118248 0 0)
(0.120716 0 0)
(0.121744 0 0)
(0.121456 0 0)
(0.119964 0 0)
(0.117368 0 0)
(0.113759 0 0)
(0.10922 0 0)
(0.103829 0 0)
(0.0976621 0 0)
(0.0907935 0 0)
(0.0833006 0 0)
(0.0752651 0 0)
(0.0667757 0 0)
(0.0579321 0 0)
(0.0488535 0 0)
(0.0396894 0 0)
(0.0306427 0 0)
(0.02204 0 0)
(0.0144288 0 0)
(0.00898291 0 0)
(1.23284e-09 0 0)
(0 0 0)
(0.0241225 0 -0.000247716)
(0.0454931 0 -0.000470058)
(0.0635045 0 -0.000664146)
(0.0785041 0 -0.000835329)
(0.0908202 0 -0.000987517)
(0.100738 0 -0.00112319)
(0.108507 0 -0.00124393)
(0.11434 0 -0.00135103)
(0.118421 0 -0.00144463)
(0.120919 0 -0.00152433)
(0.121981 0 -0.00158969)
(0.121731 0 -0.00163931)
(0.120282 0 -0.00167139)
(0.117735 0 -0.00168373)
(0.114181 0 -0.00167356)
(0.109706 0 -0.00163733)
(0.104388 0 -0.00157079)
(0.0983041 0 -0.00146889)
(0.0915318 0 -0.00132575)
(0.084151 0 -0.00113462)
(0.0762479 0 -0.000887583)
(0.0679163 0 -0.00057512)
(0.0592643 0 -0.000186184)
(0.0504229 0 0.000291702)
(0.0415596 0 0.000872343)
(0.0328894 0 0.00157181)
(0.0247488 0 0.00240594)
(0.0177374 0 0.00337539)
(0.0131819 0 0.00438317)
(0.00598249 0 0.00593522)
(0 0 0)
(0.024174 0 -0.000495943)
(0.0455922 0 -0.000941179)
(0.0636506 0 -0.00132998)
(0.0787001 0 -0.00167312)
(0.0910695 0 -0.00197845)
(0.101045 0 -0.00225093)
(0.108877 0 -0.00249354)
(0.11478 0 -0.00270749)
(0.11894 0 -0.0028946)
(0.121528 0 -0.0030557)
(0.12269 0 -0.00318861)
(0.122554 0 -0.00329058)
(0.121233 0 -0.00335805)
(0.118832 0 -0.00338689)
(0.115444 0 -0.00337182)
(0.111158 0 -0.00330599)
(0.106057 0 -0.00318122)
(0.100222 0 -0.00298789)
(0.0937356 0 -0.00271472)
(0.0866872 0 -0.00234921)
(0.0791746 0 -0.00187684)
(0.0713063 0 -0.00128)
(0.06321 0 -0.000538618)
(0.0550467 0 0.0003694)
(0.0470374 0 0.00146634)
(0.0394671 0 0.00277286)
(0.0327283 0 0.00429776)
(0.0274705 0 0.00601285)
(0.0253164 0 0.00766077)
(0.0201373 0 0.0102014)
(0 0 0)
(0.0242601 0 -0.000743918)
(0.0457567 0 -0.0014119)
(0.0638925 0 -0.00199544)
(0.0790243 0 -0.00251083)
(0.0914819 0 -0.00297002)
(0.101552 0 -0.00338034)
(0.109488 0 -0.00374631)
(0.115507 0 -0.00407026)
(0.1198 0 -0.00435481)
(0.122537 0 -0.00460094)
(0.123866 0 -0.00480577)
(0.123918 0 -0.00496545)
(0.12281 0 -0.00507483)
(0.120649 0 -0.00512829)
(0.117535 0 -0.00511868)
(0.113562 0 -0.00503623)
(0.108819 0 -0.00486952)
(0.103395 0 -0.00460525)
(0.0973804 0 -0.00422753)
(0.0908781 0 -0.0037202)
(0.084008 0 -0.00306502)
(0.0769002 0 -0.0022392)
(0.0697114 0 -0.00121801)
(0.0626403 0 2.43036e-05)
(0.0559656 0 0.00150917)
(0.0500879 0 0.00324188)
(0.0455732 0 0.00518991)
(0.0431538 0 0.00725642)
(0.0445343 0 0.00897273)
(0.0421625 0 0.011841)
(0 0 0)
(0.0243802 0 -0.000991133)
(0.0459843 0 -0.00188096)
(0.0642267 0 -0.00265876)
(0.0794731 0 -0.00334637)
(0.0920532 0 -0.00396002)
(0.102255 0 -0.00450931)
(0.110334 0 -0.00500036)
(0.116515 0 -0.00543783)
(0.120991 0 -0.00582429)
(0.123933 0 -0.00616013)
(0.125492 0 -0.00644273)
(0.125804 0 -0.0066676)
(0.124988 0 -0.00682789)
(0.123159 0 -0.00691746)
(0.120423 0 -0.00692836)
(0.116881 0 -0.0068483)
(0.112632 0 -0.00666369)
(0.107777 0 -0.00635934)
(0.102418 0 -0.00591693)
(0.0966694 0 -0.00531694)
(0.0906774 0 -0.00453992)
(0.0846062 0 -0.0035636)
(0.078648 0 -0.00236452)
(0.0730642 0 -0.000925107)
(0.0681925 0 0.000761477)
(0.0645111 0 0.00267376)
(0.0627797 0 0.00471215)
(0.0640156 0 0.00664258)
(0.0698238 0 0.00777739)
(0.0706411 0 0.0103606)
(0 0 0)
(0.0245243 0 -0.00123752)
(0.046268 0 -0.00234887)
(0.0646502 0 -0.00332115)
(0.0800434 0 -0.00418147)
(0.0927791 0 -0.00494973)
(0.103146 0 -0.00563856)
(0.111408 0 -0.00625678)
(0.117794 0 -0.00681061)
(0.1225 0 -0.00730291)
(0.1257 0 -0.00773408)
(0.127551 0 -0.00810189)
(0.128192 0 -0.00840179)
(0.127748 0 -0.00862664)
(0.12634 0 -0.00876906)
(0.124081 0 -0.00881992)
(0.121082 0 -0.00876642)
(0.117453 0 -0.00859411)
(0.113311 0 -0.0082879)
(0.10878 0 -0.00783055)
(0.103982 0 -0.00719962)
(0.0990876 0 -0.0063772)
(0.0943082 0 -0.00534888)
(0.0898738 0 -0.00409814)
(0.0861058 0 -0.00262318)
(0.0834346 0 -0.000949621)
(0.082437 0 0.000852309)
(0.0839341 0 0.0026136)
(0.0892591 0 0.00392119)
(0.10005 0 0.00386745)
(0.104304 0 0.00566657)
(0 0 0)
(0.0246911 0 -0.00148308)
(0.0466061 0 -0.00281617)
(0.0651598 0 -0.00398357)
(0.080728 0 -0.00501743)
(0.0936488 0 -0.00594073)
(0.104217 0 -0.00677041)
(0.112701 0 -0.0075189)
(0.119335 0 -0.00819305)
(0.124317 0 -0.00879643)
(0.127827 0 -0.00932987)
(0.130027 0 -0.00979191)
(0.131061 0 -0.0101787)
(0.131067 0 -0.0104844)
(0.130164 0 -0.0106993)
(0.128475 0 -0.0108127)
(0.126125 0 -0.0108139)
(0.123231 0 -0.0106883)
(0.119932 0 -0.0104233)
(0.116375 0 -0.0100056)
(0.112707 0 -0.00941482)
(0.109118 0 -0.00863695)
(0.105857 0 -0.00766792)
(0.103215 0 -0.00650937)
(0.10156 0 -0.00518144)
(0.101399 0 -0.00374824)
(0.103452 0 -0.00235283)
(0.108627 0 -0.00125592)
(0.118344 0 -0.00101756)
(0.134316 0 -0.00274622)
(0.142056 0 -0.00210373)
(0 0 0)
(0.0248881 0 -0.00172727)
(0.0469997 0 -0.00328129)
(0.0657502 0 -0.00464356)
(0.0815191 0 -0.00585144)
(0.0946543 0 -0.00693215)
(0.105459 0 -0.00790637)
(0.114204 0 -0.00878898)
(0.121126 0 -0.00958821)
(0.126429 0 -0.0103088)
(0.130297 0 -0.0109522)
(0.132898 0 -0.0115184)
(0.134387 0 -0.0120046)
(0.134904 0 -0.0124054)
(0.134578 0 -0.0127105)
(0.133542 0 -0.0129112)
(0.131936 0 -0.0129995)
(0.129892 0 -0.0129623)
(0.127559 0 -0.0127892)
(0.125111 0 -0.0124712)
(0.122731 0 -0.0119982)
(0.120625 0 -0.0113621)
(0.119076 0 -0.0105711)
(0.118445 0 -0.00965343)
(0.11916 0 -0.00866186)
(0.121808 0 -0.00770802)
(0.127184 0 -0.00700214)
(0.136388 0 -0.00693012)
(0.150752 0 -0.00815853)
(0.171907 0 -0.0119284)
(0.183018 0 -0.0126994)
(0 0 0)
(0.0251117 0 -0.00196923)
(0.0474439 0 -0.00374244)
(0.0664149 0 -0.00529869)
(0.0824113 0 -0.00668082)
(0.0957902 0 -0.007921)
(0.106862 0 -0.00904284)
(0.115901 0 -0.0100631)
(0.123146 0 -0.0109921)
(0.128808 0 -0.0118362)
(0.133077 0 -0.0125977)
(0.136129 0 -0.0132783)
(0.138125 0 -0.0138774)
(0.139212 0 -0.0143894)
(0.139531 0 -0.0148068)
(0.139227 0 -0.0151235)
(0.138451 0 -0.0153333)
(0.137356 0 -0.0154288)
(0.136101 0 -0.0154007)
(0.134875 0 -0.0152459)
(0.133908 0 -0.0149689)
(0.133435 0 -0.0145735)
(0.13377 0 -0.0140843)
(0.135335 0 -0.0135592)
(0.138629 0 -0.0130901)
(0.144314 0 -0.0128421)
(0.153262 0 -0.0130979)
(0.166677 0 -0.014353)
(0.185828 0 -0.0173734)
(0.212155 0 -0.0234635)
(0.226513 0 -0.02579)
(0 0 0)
(0.025359 0 -0.00220857)
(0.047934 0 -0.00419898)
(0.067148 0 -0.00594818)
(0.0833962 0 -0.00750456)
(0.0970446 0 -0.008905)
(0.10841 0 -0.0101763)
(0.117771 0 -0.0113374)
(0.125372 0 -0.0124011)
(0.13143 0 -0.0133754)
(0.136142 0 -0.0142649)
(0.139691 0 -0.0150727)
(0.142243 0 -0.0157992)
(0.143955 0 -0.0164413)
(0.144984 0 -0.0169958)
(0.14548 0 -0.0174578)
(0.145601 0 -0.0178221)
(0.145527 0 -0.01809)
(0.145438 0 -0.0182599)
(0.145539 0 -0.0183351)
(0.146087 0 -0.0183322)
(0.147367 0 -0.018276)
(0.14973 0 -0.0182117)
(0.153637 0 -0.0182241)
(0.159673 0 -0.0184547)
(0.168554 0 -0.0191192)
(0.181267 0 -0.0205858)
(0.198996 0 -0.0234239)
(0.223015 0 -0.0284962)
(0.254452 0 -0.0370956)
(0.271996 0 -0.0410756)
(0 0 0)
(0.0256283 0 -0.00244543)
(0.0484671 0 -0.00465128)
(0.0679452 0 -0.00659262)
(0.0844677 0 -0.00832342)
(0.0984097 0 -0.00988525)
(0.110094 0 -0.0113082)
(0.119805 0 -0.0126138)
(0.127792 0 -0.0138172)
(0.134278 0 -0.0149289)
(0.139472 0 -0.0159572)
(0.143558 0 -0.0169047)
(0.146707 0 -0.0177726)
(0.149089 0 -0.0185623)
(0.150869 0 -0.0192735)
(0.152213 0 -0.0199059)
(0.153294 0 -0.0204603)
(0.154305 0 -0.0209427)
(0.155455 0 -0.0213631)
(0.156963 0 -0.0217324)
(0.159106 0 -0.0220794)
(0.162228 0 -0.0224555)
(0.166723 0 -0.0229316)
(0.173081 0 -0.0236192)
(0.181953 0 -0.0247054)
(0.194152 0 -0.0264723)
(0.21073 0 -0.0293585)
(0.23285 0 -0.0339982)
(0.261846 0 -0.0413475)
(0.298208 0 -0.0525438)
(0.318968 0 -0.0582638)
(0 0 0)
(0.0259178 0 -0.00267988)
(0.0490397 0 -0.00509949)
(0.0688014 0 -0.00723222)
(0.0856188 0 -0.00913769)
(0.0998762 0 -0.0108621)
(0.111903 0 -0.0124391)
(0.121988 0 -0.0138928)
(0.130386 0 -0.0152406)
(0.13733 0 -0.0164962)
(0.143033 0 -0.0176701)
(0.147681 0 -0.0187659)
(0.151459 0 -0.0197882)
(0.154547 0 -0.0207427)
(0.157117 0 -0.021632)
(0.159352 0 -0.0224618)
(0.161445 0 -0.023241)
(0.16359 0 -0.0239785)
(0.166017 0 -0.0246939)
(0.168978 0 -0.0254141)
(0.17277 0 -0.0261815)
(0.177786 0 -0.0270734)
(0.184465 0 -0.0281893)
(0.193338 0 -0.0296748)
(0.205101 0 -0.0317574)
(0.22067 0 -0.0347877)
(0.241121 0 -0.0392606)
(0.267714 0 -0.0458982)
(0.301779 0 -0.0557086)
(0.342758 0 -0.0694903)
(0.366985 0 -0.0769936)
(0 0 0)
(0.0262239 0 -0.00291071)
(0.049645 0 -0.00554131)
(0.0697064 0 -0.00786375)
(0.0868356 0 -0.00994318)
(0.101427 0 -0.0118307)
(0.113816 0 -0.0135634)
(0.124294 0 -0.0151679)
(0.133124 0 -0.0166641)
(0.140548 0 -0.0180691)
(0.14678 0 -0.0193953)
(0.152017 0 -0.0206495)
(0.156454 0 -0.0218407)
(0.160276 0 -0.0229768)
(0.163672 0 -0.0240665)
(0.166829 0 -0.0251188)
(0.169951 0 -0.0261485)
(0.173254 0 -0.0271751)
(0.176984 0 -0.0282276)
(0.181421 0 -0.0293494)
(0.186891 0 -0.0306002)
(0.193811 0 -0.0320771)
(0.202657 0 -0.0339092)
(0.214019 0 -0.0362824)
(0.228657 0 -0.039473)
(0.247533 0 -0.0438827)
(0.271825 0 -0.0500857)
(0.30299 0 -0.0589167)
(0.342099 0 -0.0713198)
(0.38725 0 -0.0875913)
(0.415638 0 -0.0968934)
(0 0 0)
(0.0265424 0 -0.00313666)
(0.0502756 0 -0.00597447)
(0.0706495 0 -0.008484)
(0.088104 0 -0.0107358)
(0.103045 0 -0.012786)
(0.115811 0 -0.0146755)
(0.1267 0 -0.0164333)
(0.135981 0 -0.0180828)
(0.143905 0 -0.0196437)
(0.150688 0 -0.0211304)
(0.156539 0 -0.0225548)
(0.161656 0 -0.0239277)
(0.166228 0 -0.0252583)
(0.170459 0 -0.0265632)
(0.17455 0 -0.0278582)
(0.178712 0 -0.029163)
(0.183183 0 -0.0305085)
(0.188222 0 -0.0319348)
(0.19413 0 -0.0334983)
(0.201261 0 -0.0352792)
(0.210039 0 -0.0373904)
(0.220975 0 -0.0399902)
(0.234729 0 -0.0433109)
(0.252104 0 -0.0476732)
(0.274111 0 -0.0535326)
(0.302128 0 -0.061577)
(0.337697 0 -0.0727141)
(0.381431 0 -0.0877253)
(0.430109 0 -0.106342)
(0.464574 0 -0.117593)
(0 0 0)
(0.0268706 0 -0.00335717)
(0.0509266 0 -0.00639791)
(0.0716232 0 -0.00909147)
(0.0894155 0 -0.0115145)
(0.104721 0 -0.013728)
(0.11788 0 -0.0157753)
(0.129194 0 -0.0176888)
(0.138945 0 -0.0194965)
(0.147383 0 -0.0212189)
(0.154729 0 -0.0228721)
(0.1612 0 -0.0244722)
(0.167001 0 -0.0260339)
(0.172333 0 -0.0275719)
(0.177406 0 -0.0291066)
(0.182436 0 -0.0306624)
(0.187638 0 -0.0322635)
(0.19326 0 -0.0339494)
(0.199584 0 -0.0357741)
(0.206919 0 -0.037806)
(0.215642 0 -0.0401432)
(0.226185 0 -0.0429164)
(0.239096 0 -0.0463149)
(0.255066 0 -0.050606)
(0.274915 0 -0.0561485)
(0.299742 0 -0.0634691)
(0.330982 0 -0.0733278)
(0.370012 0 -0.0866317)
(0.416957 0 -0.103989)
(0.467968 0 -0.124741)
(0.513509 0 -0.138698)
(0 0 0)
(0.0272106 0 -0.00357421)
(0.0516015 0 -0.00681528)
(0.0726364 0 -0.00969189)
(0.0907836 0 -0.0122871)
(0.106466 0 -0.0146651)
(0.12003 0 -0.0168715)
(0.131785 0 -0.0189436)
(0.142016 0 -0.0209121)
(0.150975 0 -0.0227987)
(0.158893 0 -0.0246235)
(0.165993 0 -0.0264069)
(0.172491 0 -0.0281679)
(0.178595 0 -0.0299269)
(0.184514 0 -0.0317056)
(0.190471 0 -0.033534)
(0.196697 0 -0.0354469)
(0.203455 0 -0.0374936)
(0.211024 0 -0.0397349)
(0.219723 0 -0.0422511)
(0.229947 0 -0.0451595)
(0.242136 0 -0.0486073)
(0.256853 0 -0.0528087)
(0.274768 0 -0.058049)
(0.296707 0 -0.0647219)
(0.323751 0 -0.0733935)
(0.357107 0 -0.0848046)
(0.397717 0 -0.0998161)
(0.444869 0 -0.118978)
(0.493918 0 -0.141919)
(0.56244 0 -0.159978)
(0 0 0)
(0.0241053 0 0)
(0.0454606 0 0)
(0.0634563 0 0)
(0.0784393 0 0)
(0.0907375 0 0)
(0.100636 0 0)
(0.108383 0 0)
(0.114192 0 0)
(0.118248 0 0)
(0.120716 0 0)
(0.121744 0 0)
(0.121456 0 0)
(0.119964 0 0)
(0.117368 0 0)
(0.113759 0 0)
(0.10922 0 0)
(0.103829 0 0)
(0.0976621 0 0)
(0.0907935 0 0)
(0.0833006 0 0)
(0.0752651 0 0)
(0.0667757 0 0)
(0.0579321 0 0)
(0.0488535 0 0)
(0.0396894 0 0)
(0.0306427 0 0)
(0.02204 0 0)
(0.0144288 0 0)
(0.00898291 0 0)
(0 0 0)
(0 0 0)
(0.0241225 0 -0.000247716)
(0.0454931 0 -0.000470058)
(0.0635045 0 -0.000664146)
(0.0785041 0 -0.000835329)
(0.0908202 0 -0.000987517)
(0.100738 0 -0.00112319)
(0.108507 0 -0.00124393)
(0.11434 0 -0.00135103)
(0.118421 0 -0.00144463)
(0.120919 0 -0.00152433)
(0.121981 0 -0.00158969)
(0.121731 0 -0.00163931)
(0.120282 0 -0.00167139)
(0.117735 0 -0.00168373)
(0.114181 0 -0.00167356)
(0.109706 0 -0.00163733)
(0.104388 0 -0.00157079)
(0.0983041 0 -0.00146889)
(0.0915318 0 -0.00132575)
(0.084151 0 -0.00113462)
(0.0762479 0 -0.000887583)
(0.0679163 0 -0.00057512)
(0.0592643 0 -0.000186184)
(0.0504229 0 0.000291702)
(0.0415596 0 0.000872343)
(0.0328894 0 0.00157181)
(0.0247488 0 0.00240594)
(0.0177374 0 0.00337539)
(0.0131819 0 0.00438317)
(0.00598249 0 0.00593522)
(0 0 0)
(0.024174 0 -0.000495943)
(0.0455922 0 -0.000941179)
(0.0636506 0 -0.00132998)
(0.0787001 0 -0.00167312)
(0.0910695 0 -0.00197845)
(0.101045 0 -0.00225093)
(0.108877 0 -0.00249354)
(0.11478 0 -0.00270749)
(0.11894 0 -0.0028946)
(0.121528 0 -0.0030557)
(0.12269 0 -0.00318861)
(0.122554 0 -0.00329058)
(0.121233 0 -0.00335805)
(0.118832 0 -0.00338689)
(0.115444 0 -0.00337182)
(0.111158 0 -0.00330599)
(0.106057 0 -0.00318122)
(0.100222 0 -0.00298789)
(0.0937356 0 -0.00271472)
(0.0866872 0 -0.00234921)
(0.0791746 0 -0.00187684)
(0.0713063 0 -0.00128)
(0.06321 0 -0.000538618)
(0.0550467 0 0.0003694)
(0.0470374 0 0.00146634)
(0.0394671 0 0.00277286)
(0.0327283 0 0.00429776)
(0.0274705 0 0.00601285)
(0.0253164 0 0.00766077)
(0.0201373 0 0.0102014)
(0 0 0)
(0.0242601 0 -0.000743918)
(0.0457567 0 -0.0014119)
(0.0638925 0 -0.00199544)
(0.0790243 0 -0.00251083)
(0.0914819 0 -0.00297002)
(0.101552 0 -0.00338034)
(0.109488 0 -0.00374631)
(0.115507 0 -0.00407026)
(0.1198 0 -0.00435481)
(0.122537 0 -0.00460094)
(0.123866 0 -0.00480577)
(0.123918 0 -0.00496545)
(0.12281 0 -0.00507483)
(0.120649 0 -0.00512829)
(0.117535 0 -0.00511868)
(0.113562 0 -0.00503623)
(0.108819 0 -0.00486952)
(0.103395 0 -0.00460525)
(0.0973804 0 -0.00422753)
(0.0908781 0 -0.0037202)
(0.084008 0 -0.00306502)
(0.0769002 0 -0.0022392)
(0.0697114 0 -0.00121801)
(0.0626403 0 2.43036e-05)
(0.0559656 0 0.00150917)
(0.0500879 0 0.00324188)
(0.0455732 0 0.00518991)
(0.0431538 0 0.00725642)
(0.0445343 0 0.00897273)
(0.0421625 0 0.011841)
(0 0 0)
(0.0243802 0 -0.000991133)
(0.0459843 0 -0.00188096)
(0.0642267 0 -0.00265876)
(0.0794731 0 -0.00334637)
(0.0920532 0 -0.00396002)
(0.102255 0 -0.00450931)
(0.110334 0 -0.00500036)
(0.116515 0 -0.00543783)
(0.120991 0 -0.00582429)
(0.123933 0 -0.00616013)
(0.125492 0 -0.00644273)
(0.125804 0 -0.0066676)
(0.124988 0 -0.00682789)
(0.123159 0 -0.00691746)
(0.120423 0 -0.00692836)
(0.116881 0 -0.0068483)
(0.112632 0 -0.00666369)
(0.107777 0 -0.00635934)
(0.102418 0 -0.00591693)
(0.0966694 0 -0.00531694)
(0.0906774 0 -0.00453992)
(0.0846062 0 -0.0035636)
(0.078648 0 -0.00236452)
(0.0730642 0 -0.000925107)
(0.0681925 0 0.000761477)
(0.0645111 0 0.00267376)
(0.0627797 0 0.00471215)
(0.0640156 0 0.00664258)
(0.0698238 0 0.00777739)
(0.0706411 0 0.0103606)
(0 0 0)
(0.0245243 0 -0.00123752)
(0.046268 0 -0.00234887)
(0.0646502 0 -0.00332115)
(0.0800434 0 -0.00418147)
(0.0927791 0 -0.00494973)
(0.103146 0 -0.00563856)
(0.111408 0 -0.00625678)
(0.117794 0 -0.00681061)
(0.1225 0 -0.00730291)
(0.1257 0 -0.00773408)
(0.127551 0 -0.00810189)
(0.128192 0 -0.00840179)
(0.127748 0 -0.00862664)
(0.12634 0 -0.00876906)
(0.124081 0 -0.00881992)
(0.121082 0 -0.00876642)
(0.117453 0 -0.00859411)
(0.113311 0 -0.0082879)
(0.10878 0 -0.00783055)
(0.103982 0 -0.00719962)
(0.0990876 0 -0.0063772)
(0.0943082 0 -0.00534888)
(0.0898738 0 -0.00409814)
(0.0861058 0 -0.00262318)
(0.0834346 0 -0.000949621)
(0.082437 0 0.000852309)
(0.0839341 0 0.0026136)
(0.0892591 0 0.00392119)
(0.10005 0 0.00386745)
(0.104304 0 0.00566657)
(0 0 0)
(0.0246911 0 -0.00148308)
(0.0466061 0 -0.00281617)
(0.0651598 0 -0.00398357)
(0.080728 0 -0.00501743)
(0.0936488 0 -0.00594073)
(0.104217 0 -0.00677041)
(0.112701 0 -0.0075189)
(0.119335 0 -0.00819305)
(0.124317 0 -0.00879643)
(0.127827 0 -0.00932987)
(0.130027 0 -0.00979191)
(0.131061 0 -0.0101787)
(0.131067 0 -0.0104844)
(0.130164 0 -0.0106993)
(0.128475 0 -0.0108127)
(0.126125 0 -0.0108139)
(0.123231 0 -0.0106883)
(0.119932 0 -0.0104233)
(0.116375 0 -0.0100056)
(0.112707 0 -0.00941482)
(0.109118 0 -0.00863695)
(0.105857 0 -0.00766792)
(0.103215 0 -0.00650937)
(0.10156 0 -0.00518144)
(0.101399 0 -0.00374824)
(0.103452 0 -0.00235283)
(0.108627 0 -0.00125592)
(0.118344 0 -0.00101756)
(0.134316 0 -0.00274622)
(0.142056 0 -0.00210373)
(0 0 0)
(0.0248881 0 -0.00172727)
(0.0469997 0 -0.00328129)
(0.0657502 0 -0.00464356)
(0.0815191 0 -0.00585144)
(0.0946543 0 -0.00693215)
(0.105459 0 -0.00790637)
(0.114204 0 -0.00878898)
(0.121126 0 -0.00958821)
(0.126429 0 -0.0103088)
(0.130297 0 -0.0109522)
(0.132898 0 -0.0115184)
(0.134387 0 -0.0120046)
(0.134904 0 -0.0124054)
(0.134578 0 -0.0127105)
(0.133542 0 -0.0129112)
(0.131936 0 -0.0129995)
(0.129892 0 -0.0129623)
(0.127559 0 -0.0127892)
(0.125111 0 -0.0124712)
(0.122731 0 -0.0119982)
(0.120625 0 -0.0113621)
(0.119076 0 -0.0105711)
(0.118445 0 -0.00965343)
(0.11916 0 -0.00866186)
(0.121808 0 -0.00770802)
(0.127184 0 -0.00700214)
(0.136388 0 -0.00693012)
(0.150752 0 -0.00815853)
(0.171907 0 -0.0119284)
(0.183018 0 -0.0126994)
(0 0 0)
(0.0251117 0 -0.00196923)
(0.0474439 0 -0.00374244)
(0.0664149 0 -0.00529869)
(0.0824113 0 -0.00668082)
(0.0957902 0 -0.007921)
(0.106862 0 -0.00904284)
(0.115901 0 -0.0100631)
(0.123146 0 -0.0109921)
(0.128808 0 -0.0118362)
(0.133077 0 -0.0125977)
(0.136129 0 -0.0132783)
(0.138125 0 -0.0138774)
(0.139212 0 -0.0143894)
(0.139531 0 -0.0148068)
(0.139227 0 -0.0151235)
(0.138451 0 -0.0153333)
(0.137356 0 -0.0154288)
(0.136101 0 -0.0154007)
(0.134875 0 -0.0152459)
(0.133908 0 -0.0149689)
(0.133435 0 -0.0145735)
(0.13377 0 -0.0140843)
(0.135335 0 -0.0135592)
(0.138629 0 -0.0130901)
(0.144314 0 -0.0128421)
(0.153262 0 -0.0130979)
(0.166677 0 -0.014353)
(0.185828 0 -0.0173734)
(0.212155 0 -0.0234635)
(0.226513 0 -0.02579)
(0 0 0)
(0.025359 0 -0.00220857)
(0.047934 0 -0.00419898)
(0.067148 0 -0.00594818)
(0.0833962 0 -0.00750456)
(0.0970446 0 -0.008905)
(0.10841 0 -0.0101763)
(0.117771 0 -0.0113374)
(0.125372 0 -0.0124011)
(0.13143 0 -0.0133754)
(0.136142 0 -0.0142649)
(0.139691 0 -0.0150727)
(0.142243 0 -0.0157992)
(0.143955 0 -0.0164413)
(0.144984 0 -0.0169958)
(0.14548 0 -0.0174578)
(0.145601 0 -0.0178221)
(0.145527 0 -0.01809)
(0.145438 0 -0.0182599)
(0.145539 0 -0.0183351)
(0.146087 0 -0.0183322)
(0.147367 0 -0.018276)
(0.14973 0 -0.0182117)
(0.153637 0 -0.0182241)
(0.159673 0 -0.0184547)
(0.168554 0 -0.0191192)
(0.181267 0 -0.0205858)
(0.198996 0 -0.0234239)
(0.223015 0 -0.0284962)
(0.254452 0 -0.0370956)
(0.271996 0 -0.0410756)
(0 0 0)
(0.0256283 0 -0.00244543)
(0.0484671 0 -0.00465128)
(0.0679452 0 -0.00659262)
(0.0844677 0 -0.00832342)
(0.0984097 0 -0.00988525)
(0.110094 0 -0.0113082)
(0.119805 0 -0.0126138)
(0.127792 0 -0.0138172)
(0.134278 0 -0.0149289)
(0.139472 0 -0.0159572)
(0.143558 0 -0.0169047)
(0.146707 0 -0.0177726)
(0.149089 0 -0.0185623)
(0.150869 0 -0.0192735)
(0.152213 0 -0.0199059)
(0.153294 0 -0.0204603)
(0.154305 0 -0.0209427)
(0.155455 0 -0.0213631)
(0.156963 0 -0.0217324)
(0.159106 0 -0.0220794)
(0.162228 0 -0.0224555)
(0.166723 0 -0.0229316)
(0.173081 0 -0.0236192)
(0.181953 0 -0.0247054)
(0.194152 0 -0.0264723)
(0.21073 0 -0.0293585)
(0.23285 0 -0.0339982)
(0.261846 0 -0.0413475)
(0.298208 0 -0.0525438)
(0.318968 0 -0.0582638)
(0 0 0)
(0.0259178 0 -0.00267988)
(0.0490397 0 -0.00509949)
(0.0688014 0 -0.00723222)
(0.0856188 0 -0.00913769)
(0.0998762 0 -0.0108621)
(0.111903 0 -0.0124391)
(0.121988 0 -0.0138928)
(0.130386 0 -0.0152406)
(0.13733 0 -0.0164962)
(0.143033 0 -0.0176701)
(0.147681 0 -0.0187659)
(0.151459 0 -0.0197882)
(0.154547 0 -0.0207427)
(0.157117 0 -0.021632)
(0.159352 0 -0.0224618)
(0.161445 0 -0.023241)
(0.16359 0 -0.0239785)
(0.166017 0 -0.0246939)
(0.168978 0 -0.0254141)
(0.17277 0 -0.0261815)
(0.177786 0 -0.0270734)
(0.184465 0 -0.0281893)
(0.193338 0 -0.0296748)
(0.205101 0 -0.0317574)
(0.22067 0 -0.0347877)
(0.241121 0 -0.0392606)
(0.267714 0 -0.0458982)
(0.301779 0 -0.0557086)
(0.342758 0 -0.0694903)
(0.366985 0 -0.0769936)
(0 0 0)
(0.0262239 0 -0.00291071)
(0.049645 0 -0.00554131)
(0.0697064 0 -0.00786375)
(0.0868356 0 -0.00994318)
(0.101427 0 -0.0118307)
(0.113816 0 -0.0135634)
(0.124294 0 -0.0151679)
(0.133124 0 -0.0166641)
(0.140548 0 -0.0180691)
(0.14678 0 -0.0193953)
(0.152017 0 -0.0206495)
(0.156454 0 -0.0218407)
(0.160276 0 -0.0229768)
(0.163672 0 -0.0240665)
(0.166829 0 -0.0251188)
(0.169951 0 -0.0261485)
(0.173254 0 -0.0271751)
(0.176984 0 -0.0282276)
(0.181421 0 -0.0293494)
(0.186891 0 -0.0306002)
(0.193811 0 -0.0320771)
(0.202657 0 -0.0339092)
(0.214019 0 -0.0362824)
(0.228657 0 -0.039473)
(0.247533 0 -0.0438827)
(0.271825 0 -0.0500857)
(0.30299 0 -0.0589167)
(0.342099 0 -0.0713198)
(0.38725 0 -0.0875913)
(0.415638 0 -0.0968934)
(0 0 0)
(0.0265424 0 -0.00313666)
(0.0502756 0 -0.00597447)
(0.0706495 0 -0.008484)
(0.088104 0 -0.0107358)
(0.103045 0 -0.012786)
(0.115811 0 -0.0146755)
(0.1267 0 -0.0164333)
(0.135981 0 -0.0180828)
(0.143905 0 -0.0196437)
(0.150688 0 -0.0211304)
(0.156539 0 -0.0225548)
(0.161656 0 -0.0239277)
(0.166228 0 -0.0252583)
(0.170459 0 -0.0265632)
(0.17455 0 -0.0278582)
(0.178712 0 -0.029163)
(0.183183 0 -0.0305085)
(0.188222 0 -0.0319348)
(0.19413 0 -0.0334983)
(0.201261 0 -0.0352792)
(0.210039 0 -0.0373904)
(0.220975 0 -0.0399902)
(0.234729 0 -0.0433109)
(0.252104 0 -0.0476732)
(0.274111 0 -0.0535326)
(0.302128 0 -0.061577)
(0.337697 0 -0.0727141)
(0.381431 0 -0.0877253)
(0.430109 0 -0.106342)
(0.464574 0 -0.117593)
(0 0 0)
(0.0268706 0 -0.00335717)
(0.0509266 0 -0.00639791)
(0.0716232 0 -0.00909147)
(0.0894155 0 -0.0115145)
(0.104721 0 -0.013728)
(0.11788 0 -0.0157753)
(0.129194 0 -0.0176888)
(0.138945 0 -0.0194965)
(0.147383 0 -0.0212189)
(0.154729 0 -0.0228721)
(0.1612 0 -0.0244722)
(0.167001 0 -0.0260339)
(0.172333 0 -0.0275719)
(0.177406 0 -0.0291066)
(0.182436 0 -0.0306624)
(0.187638 0 -0.0322635)
(0.19326 0 -0.0339494)
(0.199584 0 -0.0357741)
(0.206919 0 -0.037806)
(0.215642 0 -0.0401432)
(0.226185 0 -0.0429164)
(0.239096 0 -0.0463149)
(0.255066 0 -0.050606)
(0.274915 0 -0.0561485)
(0.299742 0 -0.0634691)
(0.330982 0 -0.0733278)
(0.370012 0 -0.0866317)
(0.416957 0 -0.103989)
(0.467968 0 -0.124741)
(0.513509 0 -0.138698)
(0 0 0)
(0.0272106 0 -0.00357421)
(0.0516015 0 -0.00681528)
(0.0726364 0 -0.00969189)
(0.0907836 0 -0.0122871)
(0.106466 0 -0.0146651)
(0.12003 0 -0.0168715)
(0.131785 0 -0.0189436)
(0.142016 0 -0.0209121)
(0.150975 0 -0.0227987)
(0.158893 0 -0.0246235)
(0.165993 0 -0.0264069)
(0.172491 0 -0.0281679)
(0.178595 0 -0.0299269)
(0.184514 0 -0.0317056)
(0.190471 0 -0.033534)
(0.196697 0 -0.0354469)
(0.203455 0 -0.0374936)
(0.211024 0 -0.0397349)
(0.219723 0 -0.0422511)
(0.229947 0 -0.0451595)
(0.242136 0 -0.0486073)
(0.256853 0 -0.0528087)
(0.274768 0 -0.058049)
(0.296707 0 -0.0647219)
(0.323751 0 -0.0733935)
(0.357107 0 -0.0848046)
(0.397717 0 -0.0998161)
(0.444869 0 -0.118978)
(0.493918 0 -0.141919)
(0.56244 0 -0.159978)
(0 0 0)
(0.0179611 0 0)
(0.0423979 0 0)
(0.0884746 0 0)
(0.152383 0 0)
(0.218566 0 0)
(0.272873 0 0)
(0.312113 0 0)
(0.339205 0 0)
(0.357517 0 0)
(0.369483 0 0)
(0.376704 0 0)
(0.380195 0 0)
(0.380585 0 0)
(0.378246 0 0)
(0.373393 0 0)
(0.366143 0 0)
(0.356553 0 0)
(0.344636 0 0)
(0.330372 0 0)
(0.313721 0 0)
(0.294625 0 0)
(0.273014 0 0)
(0.248809 0 0)
(0.221926 0 0)
(0.192276 0 0)
(0.159767 0 0)
(0.12431 0 0)
(0.0858218 0 0)
(0.0441596 0 0)
(0 0 0)
(0.0049849 0 -0.00710276)
(0.0221803 0 -0.00858591)
(0.0473328 0 -0.0111765)
(0.0936736 0 -0.0145586)
(0.157067 0 -0.0179184)
(0.222173 0 -0.0202026)
(0.275445 0 -0.0211506)
(0.313947 0 -0.0211765)
(0.34055 0 -0.0206269)
(0.358534 0 -0.0197573)
(0.370267 0 -0.0187255)
(0.37732 0 -0.017571)
(0.380691 0 -0.0163799)
(0.380992 0 -0.0152195)
(0.378583 0 -0.0141025)
(0.373673 0 -0.0130371)
(0.366379 0 -0.0120253)
(0.356752 0 -0.0110656)
(0.344805 0 -0.0101538)
(0.330516 0 -0.00928401)
(0.313844 0 -0.00844944)
(0.294731 0 -0.00764249)
(0.273106 0 -0.00685493)
(0.24889 0 -0.00607792)
(0.221997 0 -0.00530194)
(0.192338 0 -0.00451659)
(0.159822 0 -0.00371041)
(0.124357 0 -0.00287049)
(0.0858608 0 -0.00198213)
(0.0441875 0 -0.00102643)
(0 0 0)
(0.0168553 0 -0.0146328)
(0.0344721 0 -0.0176967)
(0.0617002 0 -0.0228484)
(0.108849 0 -0.0293436)
(0.170816 0 -0.0355818)
(0.232854 0 -0.0397134)
(0.283112 0 -0.0413889)
(0.319428 0 -0.0413621)
(0.344568 0 -0.0402985)
(0.361561 0 -0.0386118)
(0.372596 0 -0.0365744)
(0.379151 0 -0.0343477)
(0.382162 0 -0.0320708)
(0.382192 0 -0.029838)
(0.379571 0 -0.0276825)
(0.374493 0 -0.025621)
(0.367062 0 -0.0236586)
(0.357325 0 -0.0217925)
(0.345286 0 -0.0200152)
(0.330923 0 -0.0183161)
(0.314188 0 -0.0166822)
(0.295024 0 -0.0150993)
(0.273355 0 -0.0135514)
(0.249103 0 -0.0120217)
(0.22218 0 -0.0104916)
(0.192494 0 -0.00894091)
(0.159953 0 -0.00734724)
(0.124464 0 -0.00568531)
(0.0859413 0 -0.00392636)
(0.044234 0 -0.00203328)
(0 0 0)
(0.0357273 0 -0.0231685)
(0.0539212 0 -0.0277427)
(0.0841137 0 -0.0354149)
(0.132244 0 -0.0446583)
(0.191875 0 -0.0530832)
(0.24933 0 -0.0584446)
(0.295111 0 -0.0604907)
(0.328124 0 -0.0602629)
(0.351001 0 -0.0586704)
(0.366425 0 -0.0562239)
(0.37635 0 -0.0532613)
(0.382113 0 -0.0500662)
(0.384545 0 -0.046823)
(0.384134 0 -0.0436303)
(0.381168 0 -0.0405388)
(0.375814 0 -0.0375732)
(0.368161 0 -0.0347415)
(0.358243 0 -0.0320409)
(0.346055 0 -0.0294612)
(0.331569 0 -0.0269879)
(0.314733 0 -0.0246033)
(0.295484 0 -0.0222871)
(0.273745 0 -0.020017)
(0.249434 0 -0.0177686)
(0.222461 0 -0.0155152)
(0.192732 0 -0.0132278)
(0.160152 0 -0.0108736)
(0.124625 0 -0.00841589)
(0.0860597 0 -0.00581273)
(0.044301 0 -0.00301004)
(0 0 0)
(0.0605665 0 -0.0331656)
(0.079556 0 -0.0390882)
(0.113083 0 -0.0491636)
(0.161983 0 -0.0607019)
(0.218379 0 -0.0705633)
(0.270168 0 -0.0764872)
(0.310526 0 -0.0785234)
(0.339474 0 -0.0779239)
(0.359483 0 -0.0757296)
(0.372874 0 -0.0725344)
(0.381357 0 -0.0687445)
(0.386085 0 -0.0646968)
(0.387746 0 -0.0605967)
(0.386741 0 -0.0565528)
(0.383308 0 -0.0526268)
(0.377581 0 -0.0488495)
(0.369627 0 -0.0452316)
(0.359462 0 -0.04177)
(0.347072 0 -0.0384532)
(0.332419 0 -0.0352635)
(0.315445 0 -0.0321791)
(0.296082 0 -0.0291749)
(0.274248 0 -0.026223)
(0.249858 0 -0.0232925)
(0.222818 0 -0.0203495)
(0.193032 0 -0.0173567)
(0.1604 0 -0.014272)
(0.124821 0 -0.011048)
(0.0862027 0 -0.00763096)
(0.0443803 0 -0.00395107)
(0 0 0)
(0.09051 0 -0.04486)
(0.110406 0 -0.0519679)
(0.147245 0 -0.0642595)
(0.196347 0 -0.0775168)
(0.248585 0 -0.0880071)
(0.293955 0 -0.093821)
(0.32838 0 -0.0954771)
(0.352818 0 -0.0943421)
(0.369554 0 -0.0914662)
(0.380594 0 -0.0875228)
(0.387405 0 -0.0829923)
(0.39091 0 -0.0782021)
(0.391643 0 -0.0733542)
(0.389918 0 -0.0685665)
(0.385914 0 -0.0639071)
(0.379729 0 -0.0594112)
(0.371403 0 -0.0550913)
(0.360935 0 -0.0509443)
(0.348296 0 -0.0469574)
(0.333437 0 -0.0431109)
(0.316293 0 -0.0393798)
(0.296788 0 -0.0357352)
(0.274838 0 -0.0321441)
(0.250351 0 -0.0285705)
(0.223229 0 -0.0249738)
(0.193373 0 -0.0213094)
(0.160679 0 -0.0175268)
(0.125041 0 -0.0135693)
(0.0863596 0 -0.00937209)
(0.044466 0 -0.00485156)
(0 0 0)
(0.124697 0 -0.0583087)
(0.145577 0 -0.0664574)
(0.1854 0 -0.0806978)
(0.233796 0 -0.0949745)
(0.280911 0 -0.105259)
(0.319391 0 -0.110345)
(0.347689 0 -0.111269)
(0.367422 0 -0.109426)
(0.380697 0 -0.105827)
(0.389245 0 -0.101186)
(0.39425 0 -0.0959986)
(0.396403 0 -0.0905633)
(0.396095 0 -0.0850731)
(0.393551 0 -0.0796464)
(0.388894 0 -0.074353)
(0.382182 0 -0.0692308)
(0.373427 0 -0.0642932)
(0.362608 0 -0.0595366)
(0.349679 0 -0.0549476)
(0.334582 0 -0.0505049)
(0.31724 0 -0.0461814)
(0.297572 0 -0.0419451)
(0.275487 0 -0.0377593)
(0.250888 0 -0.0335831)
(0.223673 0 -0.0293705)
(0.193738 0 -0.0250705)
(0.160974 0 -0.0206252)
(0.125269 0 -0.0159691)
(0.0865208 0 -0.0110285)
(0.0445528 0 -0.00570741)
(0 0 0)
(0.162377 0 -0.0734559)
(0.184274 0 -0.0825127)
(0.226429 0 -0.0982939)
(0.272864 0 -0.112748)
(0.313928 0 -0.122024)
(0.34532 0 -0.125883)
(0.367544 0 -0.125787)
(0.382599 0 -0.123092)
(0.392434 0 -0.118774)
(0.398487 0 -0.113514)
(0.401637 0 -0.107756)
(0.402367 0 -0.101774)
(0.400947 0 -0.095744)
(0.397518 0 -0.0897798)
(0.392148 0 -0.0839491)
(0.384858 0 -0.0782912)
(0.37563 0 -0.0728194)
(0.364423 0 -0.0675283)
(0.351174 0 -0.0624046)
(0.335811 0 -0.0574264)
(0.31825 0 -0.0525653)
(0.298401 0 -0.0477869)
(0.276166 0 -0.0430516)
(0.251443 0 -0.0383145)
(0.224127 0 -0.0335254)
(0.194107 0 -0.0286275)
(0.161269 0 -0.0235561)
(0.125495 0 -0.0182387)
(0.0866773 0 -0.012594)
(0.0446357 0 -0.00651533)
(0 0 0)
(0.202928 0 -0.0902193)
(0.225806 0 -0.0999974)
(0.269279 0 -0.116724)
(0.312198 0 -0.130386)
(0.346421 0 -0.137944)
(0.370781 0 -0.140225)
(0.387168 0 -0.138917)
(0.397776 0 -0.135313)
(0.404354 0 -0.130314)
(0.407999 0 -0.12451)
(0.409308 0 -0.118271)
(0.4086 0 -0.111838)
(0.406037 0 -0.105369)
(0.401688 0 -0.0989657)