/*--------------------------------*- C++ -*----------------------------------*\
| =========                 |                                                 |
| \\      /  F ield         | OpenFOAM: The Open Source CFD Toolbox           |
|  \\    /   O peration     | Version:  dev                                   |
|   \\  /    A nd           | Web:      www.OpenFOAM.org                      |
|    \\/     M anipulation  |                                                 |
\*---------------------------------------------------------------------------*/
FoamFile
{
    version     2.0;
    format      ascii;
    class       surfaceVectorField;
    location    "4.28";
    object      Uf;
}
// * * * * * * * * * * * * * * * * * * * * * * * * * * * * * * * * * * * * * //

dimensions      [0 1 -1 0 0 0 0];

internalField   nonuniform List<vector> 
5457
(
(9.9169 1.239e-21 0.0238586)
(9.96465 -5.611e-24 0.0388907)
(9.81951 -3.78491e-23 0.0312263)
(9.92398 1.25273e-21 0.0468427)
(9.70609 -1.32117e-21 0.0373383)
(9.85503 -1.9347e-21 0.0561351)
(9.57466 2.12777e-21 0.0435932)
(9.75947 -1.99883e-21 0.0669227)
(9.42515 5.5416e-22 0.0500585)
(9.64393 8.25636e-21 0.0783167)
(9.25763 -2.09986e-21 0.0567968)
(9.51057 -7.07162e-21 0.0902488)
(9.07182 3.11075e-21 0.0639569)
(9.35874 -4.42527e-21 0.102952)
(8.86706 -1.72185e-22 0.0716894)
(9.18744 9.1171e-21 0.116663)
(8.64246 -3.10933e-21 0.0801286)
(8.99581 -3.15286e-21 0.131581)
(8.39694 -6.97951e-21 0.0894044)
(8.78293 3.26588e-21 0.147894)
(8.12925 3.87495e-22 0.0996506)
(8.54769 -6.88494e-21 0.165794)
(7.83801 6.98084e-21 0.111006)
(8.2888 1.06059e-20 0.185472)
(7.52169 7.89885e-21 0.123612)
(8.0048 0 0.207119)
(7.17874 3.64941e-21 0.13761)
(7.69414 7.79224e-21 0.230907)
(6.80758 1.32982e-20 0.153128)
(7.35521 -7.96372e-21 0.256976)
(6.40674 1.70417e-20 0.170275)
(6.98643 1.6994e-20 0.28541)
(5.97494 -1.82628e-20 0.189116)
(6.58632 8.94752e-21 0.316194)
(5.51132 2.13186e-20 0.209649)
(6.15368 -1.82969e-20 0.349177)
(5.01559 8.0441e-21 0.231773)
(5.68775 3.88388e-20 0.384001)
(4.48834 -2.95619e-20 0.255245)
(5.18841 4.00971e-20 0.420038)
(3.93137 0 0.279636)
(4.65654 -6.1616e-20 0.456304)
(3.34797 0 0.304276)
(4.09432 0 0.49138)
(2.7434 1.21182e-20 0.328205)
(3.50559 -1.81236e-19 0.52333)
(2.12518 1.18226e-20 0.350175)
(2.89635 3.75778e-19 0.549652)
(1.50333 0 0.369257)
(2.27531 -1.69863e-19 0.567425)
(0.88872 -1.07707e-19 0.387503)
(1.6542 0 0.574932)
(0.280079 -9.91651e-20 0.240421)
(1.05855 -1.06572e-19 0.581333)
(-0.141322 1.05717e-19 -0.108943)
(0.36883 -1.15822e-22 0.408213)
(-0.259052 9.56347e-20 -0.336486)
(0.10816 5.2465e-19 0.114379)
(0.0223367 -8.56228e-19 -0.260371)
(9.99762 3.28416e-23 0.049737)
(9.99203 -6.12397e-22 0.0400074)
(9.961 -6.92455e-22 0.0675923)
(9.97692 1.87854e-21 0.0644545)
(9.9031 -2.61631e-21 0.0833223)
(9.93724 -1.28776e-21 0.0847979)
(9.82544 4.27186e-21 0.0998608)
(9.87173 -5.32279e-21 0.106468)
(9.72791 4.13031e-22 0.117329)
(9.78579 2.73566e-21 0.129412)
(9.61041 -9.36061e-21 0.13581)
(9.68165 6.97475e-22 0.153556)
(9.47268 1.77238e-21 0.155613)
(9.55892 -5.88879e-21 0.179276)
(9.31411 5.96539e-21 0.177066)
(9.41674 9.07538e-21 0.207017)
(9.13389 3.31093e-21 0.200472)
(9.25434 0 0.23718)
(8.93097 3.22105e-21 0.226117)
(9.07091 5.80057e-24 0.270147)
(8.70414 3.57619e-21 0.254291)
(8.86548 0 0.30631)
(8.45202 3.47945e-21 0.285283)
(8.63683 7.02423e-21 0.346064)
(8.1731 0 0.319368)
(8.38362 7.29685e-21 0.389804)
(7.86576 -4.04862e-21 0.356787)
(8.10436 0 0.4379)
(7.52836 -3.93936e-21 0.397716)
(7.7975 -3.99427e-21 0.490662)
(7.15931 8.80381e-21 0.442219)
(7.46142 -1.64836e-20 0.548295)
(6.75714 8.56685e-21 0.490189)
(7.09456 3.33212e-23 0.610828)
(6.32075 0 0.541265)
(6.69552 0 0.678017)
(5.84954 7.09083e-20 0.594735)
(6.26318 1.51044e-19 0.749224)
(5.3437 6.79607e-21 0.649418)
(5.79696 -8.53908e-20 0.823269)
(4.80458 -6.08073e-20 0.703542)
(5.29703 -8.21705e-20 0.898251)
(4.23504 -1.83585e-19 0.754596)
(4.7647 1.71103e-19 0.971355)
(3.63998 1.88384e-19 0.799182)
(4.20283 -3.35306e-19 1.03863)
(3.02699 1.88079e-19 0.832822)
(3.61635 7.79494e-19 1.0947)
(2.40756 -1.67935e-19 0.849542)
(3.01318 -1.43399e-19 1.13234)
(1.80153 0 0.839954)
(2.40561 2.20648e-21 1.14088)
(1.25832 0 0.752583)
(1.81221 -4.08239e-19 1.0984)
(0.730712 4.29942e-19 0.552199)
(1.23107 -5.26937e-20 0.917454)
(0.212646 -4.16261e-19 0.0733734)
(0.722485 4.49177e-20 0.612372)
(0.342051 -3.96251e-19 -0.0446228)
(9.9902 1.28845e-21 0.0573487)
(9.98971 -1.21929e-21 0.0445938)
(9.95668 1.23344e-21 0.0848247)
(9.97199 1.25128e-21 0.0805804)
(9.9022 -4.04998e-21 0.110747)
(9.93324 -7.71849e-21 0.111764)
(9.82933 -6.75213e-21 0.138043)
(9.87065 -1.35275e-21 0.143577)
(9.73837 2.99089e-21 0.167043)
(9.78854 -3.24236e-23 0.17706)
(9.62922 4.07775e-21 0.197911)
(9.68917 5.64037e-21 0.212368)
(9.50166 1.62493e-21 0.231068)
(9.57241 1.45106e-21 0.249965)
(9.35524 2.98457e-21 0.267002)
(9.43758 -2.72811e-20 0.290449)
(9.18933 -3.30293e-21 0.306187)
(9.28407 1.86578e-20 0.334396)
(9.00307 -3.21344e-21 0.349096)
(9.11127 -9.73472e-21 0.38237)
(8.79543 3.54902e-21 0.396209)
(8.9184 -2.70787e-20 0.434943)
(8.56524 1.08502e-20 0.448015)
(8.7045 -3.19697e-20 0.492702)
(8.31116 7.19769e-21 0.504989)
(8.46849 1.09012e-19 0.55624)
(8.03173 0 0.567563)
(8.20914 -7.51187e-20 0.626125)
(7.72542 -1.67094e-20 0.63607)
(7.92515 1.56874e-20 0.702864)
(7.39065 -2.5002e-20 0.71068)
(7.61513 -7.69843e-23 0.786831)
(7.02587 -8.50696e-21 0.791295)
(7.27766 -2.5631e-20 0.878178)
(6.62968 1.531e-19 0.877416)
(6.91136 1.43154e-19 0.976706)
(6.20097 -8.17156e-21 0.96797)
(6.51494 4.02139e-21 1.08168)
(5.73918 -1.74025e-19 1.0611)
(6.08737 -3.1076e-19 1.19159)
(5.24455 1.53193e-19 1.15395)
(5.62808 1.79261e-19 1.30394)
(4.7185 1.33929e-20 1.24232)
(5.13716 1.29477e-19 1.41483)
(4.16417 2.68987e-19 1.32036)
(4.61578 -1.75935e-19 1.51862)
(3.58713 4.39043e-19 1.37998)
(4.06656 6.88787e-19 1.60735)
(2.99655 2.9384e-20 1.40964)
(3.49411 -7.70536e-19 1.66976)
(2.40644 -4.1044e-19 1.39107)
(2.90547 3.89435e-19 1.68934)
(1.8324 -4.57605e-19 1.28375)
(2.30988 -3.57979e-19 1.64021)
(1.25016 -4.35402e-19 1.0499)
(1.70716 5.03971e-20 1.47167)
(0.676536 5.84699e-20 0.646845)
(1.07973 -4.06053e-19 1.15717)
(0.621758 -5.26151e-19 0.604349)
(9.98599 -1.2023e-21 0.0683239)
(9.98844 -1.21891e-21 0.0511538)
(9.95255 -7.82857e-21 0.106858)
(9.96896 -4.99272e-21 0.0966653)
(9.89903 -4.93878e-21 0.143795)
(9.93008 -2.67094e-23 0.138263)
(9.82734 5.37633e-21 0.18179)
(9.86863 1.32412e-20 0.180092)
(9.73814 2.69595e-21 0.221652)
(9.78819 -5.41755e-21 0.223795)
(9.63144 2.95531e-21 0.263829)
(9.69092 -1.41073e-20 0.269873)
(9.50708 -2.78519e-20 0.308912)
(9.57684 1.15957e-20 0.31889)
(9.36478 -1.09647e-20 0.357564)
(9.4454 -2.72979e-20 0.371552)
(9.20409 1.18372e-20 0.410442)
(9.29611 -1.45989e-22 0.428578)
(9.02437 -3.38389e-20 0.468203)
(9.1285 7.75934e-20 0.490675)
(8.82489 -6.26594e-20 0.531518)
(8.942 -8.70268e-20 0.558562)
(8.60476 6.81289e-20 0.601069)
(8.73587 2.04381e-20 0.632976)
(8.363 2.41966e-20 0.677532)
(8.5093 5.16003e-20 0.714667)
(8.09852 -5.82061e-20 0.761541)
(8.26136 -6.01114e-20 0.804366)
(7.81015 3.21011e-20 0.853628)
(7.99108 6.69118e-23 0.902745)
(7.49667 -1.05666e-21 0.954143)
(7.69742 1.30837e-19 1.01034)
(7.1568 1.28321e-19 1.06313)
(7.37927 -1.50922e-19 1.12746)
(6.78928 -7.63917e-21 1.18014)
(7.0355 1.60694e-19 1.25403)
(6.3929 -3.02577e-19 1.30403)
(6.66494 -1.83509e-19 1.38937)
(5.96667 4.87617e-20 1.43265)
(6.26643 1.50655e-19 1.53192)
(5.50995 1.54926e-19 1.56251)
(5.8389 -1.93537e-19 1.6789)
(5.02272 -6.32451e-20 1.68835)
(5.38147 -2.90222e-19 1.8259)
(4.50585 2.54712e-19 1.80262)
(4.8936 3.17872e-19 1.9663)
(3.96148 -5.36226e-19 1.89466)
(4.37526 3.17421e-19 2.09064)
(3.39315 -3.96991e-19 1.94959)
(3.82696 -7.97207e-19 2.18569)
(2.80482 4.33853e-19 1.9461)
(3.2495 4.3463e-19 2.23345)
(2.19683 1.54313e-19 1.85041)
(2.64316 -7.90219e-19 2.20971)
(1.55385 7.59239e-20 1.63153)
(2.00411 8.66917e-19 2.07787)
(0.854994 -1.02286e-18 1.2615)
(1.29552 -2.67746e-20 1.81669)
(0.715406 -1.24378e-19 1.37465)
(9.98399 -5.06076e-21 0.0800985)
(9.98784 0 0.0586499)
(9.95019 2.90106e-21 0.128297)
(9.96748 -4.99309e-21 0.112928)
(9.89755 1.8334e-20 0.175064)
(9.92867 7.69246e-21 0.164328)
(9.82717 2.19693e-21 0.222864)
(9.86841 1.3239e-20 0.215949)
(9.73974 -2.23431e-20 0.272899)
(9.78982 -8.15883e-21 0.269613)
(9.63536 -5.10481e-21 0.325871)
(9.69486 -2.82141e-20 0.32614)
(9.5139 1.16141e-20 0.382495)
(9.5836 5.50486e-20 0.386229)
(9.37511 -1.60945e-20 0.443537)
(9.45557 3.21239e-21 0.45068)
(9.21862 6.66844e-20 0.509772)
(9.31034 -4.96847e-20 0.520323)
(9.04394 2.21528e-20 0.581975)
(9.14753 8.40842e-20 0.595987)
(8.85047 -2.45847e-21 0.660936)
(8.96665 -5.32894e-20 0.678509)
(8.63751 4.33478e-21 0.74746)
(8.76711 4.21596e-20 0.768745)
(8.40432 -3.42407e-20 0.842353)
(8.54825 -5.01492e-20 0.867563)
(8.15008 -1.01158e-21 0.946381)
(8.30933 -1.04632e-19 0.975818)
(7.87393 1.00572e-19 1.06022)
(8.04961 2.15987e-19 1.09431)
(7.57495 -2.27471e-20 1.18436)
(7.76826 3.09839e-21 1.2237)
(7.25218 -1.14435e-19 1.319)
(7.46443 -2.51449e-19 1.36445)
(6.90457 -1.96179e-20 1.46383)
(7.13721 1.37742e-19 1.51664)
(6.53102 2.74236e-19 1.61777)
(6.78555 -2.90077e-19 1.67974)
(6.13034 -9.59266e-20 1.77868)
(6.40823 5.66258e-19 1.85232)
(5.70128 -6.40137e-19 1.9429)
(6.00388 -3.93116e-19 2.03169)
(5.24259 9.80327e-20 2.10476)
(5.57085 -2.89193e-19 2.21341)
(4.75303 3.80659e-19 2.25598)
(5.10716 -2.91614e-19 2.3907)
(4.2313 4.39771e-20 2.38488)
(4.61048 7.35395e-19 2.5538)
(3.67579 4.79462e-20 2.47566)
(4.07781 -7.22846e-19 2.68926)
(3.08362 -8.02201e-19 2.50757)
(3.50521 6.96921e-19 2.77938)
(2.44846 -6.30399e-20 2.45303)
(2.88713 -7.92438e-19 2.80211)
(1.75559 7.56366e-19 2.28704)
(2.21801 7.62413e-19 2.72846)
(0.985041 8.70215e-19 1.98534)
(1.45514 0 2.54222)
(0.792523 8.85274e-19 2.19733)
(9.98311 0 0.0922046)
(9.9876 -3.88107e-24 0.0665584)
(9.9492 0 0.149469)
(9.96698 -2.48709e-21 0.129246)
(9.89763 2.67498e-21 0.205755)
(9.92862 5.09764e-21 0.189871)
(9.82894 2.59455e-21 0.263289)
(9.86979 1.44044e-23 0.250952)
(9.74372 -1.4309e-20 0.32343)
(9.79338 -2.44439e-20 0.314288)
(9.64211 3.31111e-20 0.387054)
(9.70117 -1.98431e-20 0.380931)
(9.524 4.59256e-20 0.454977)
(9.59323 7.51345e-20 0.451726)
(9.3892 -3.11111e-20 0.528058)
(9.46914 2.007e-22 0.527565)
(9.23736 -3.04587e-20 0.607176)
(9.32854 -7.4263e-20 0.609377)
(9.06808 6.75517e-21 0.693219)
(9.17108 1.02115e-19 0.698095)
(8.88082 -7.37742e-21 0.787088)
(8.99635 -1.12257e-19 0.794662)
(8.67501 -1.35816e-20 0.8897)
(8.80384 4.07791e-20 0.900036)
(8.45001 -1.21277e-19 1.00197)
(8.59296 0 1.01519)
(8.20516 1.16639e-19 1.12478)
(8.36309 -2.52837e-19 1.14107)
(7.93974 1.15736e-19 1.25893)
(8.11356 2.45521e-19 1.2786)
(7.65299 -2.28989e-19 1.40504)
(7.84369 1.45449e-20 1.42855)
(7.34412 5.81422e-21 1.56345)
(7.55269 -1.17537e-19 1.59152)
(7.01221 -1.3835e-19 1.73403)
(7.23972 1.54276e-19 1.76775)
(6.65614 1.27523e-20 1.91592)
(6.90375 -4.03774e-21 1.95696)
(6.27454 2.57149e-19 2.10716)
(6.54344 -2.90598e-19 2.158)
(5.86566 -4.06714e-20 2.30432)
(6.15707 3.03752e-19 2.36851)
(5.42727 -6.79465e-19 2.50191)
(5.74234 2.73633e-19 2.58444)
(4.95641 7.4833e-20 2.6918)
(5.29614 -6.72964e-19 2.7995)
(4.44917 -4.83839e-20 2.86255)
(4.81439 -3.2418e-20 3.00454)
(3.90031 -5.85086e-20 2.99883)
(4.29158 1.98028e-20 3.18686)
(3.30292 6.91141e-19 3.08139)
(3.72056 1.47055e-18 3.32973)
(2.64757 4.7525e-20 3.0865)
(3.09232 -7.49631e-19 3.4128)
(1.921 0 2.99198)
(2.40113 -4.83909e-20 3.41055)
(1.11046 2.78731e-20 2.77222)
(1.60471 0 3.30595)
(0.877895 5.41102e-20 3.04893)
(9.98285 -2.49433e-21 0.104399)
(9.98756 4.81144e-21 0.0745855)
(9.94924 2.73554e-21 0.170322)
(9.96711 4.93266e-21 0.145428)
(9.89894 2.36534e-21 0.23572)
(9.92958 5.09576e-21 0.214788)
(9.83227 -2.73679e-20 0.302646)
(9.87247 5.22563e-21 0.28494)
(9.74966 -2.99122e-20 0.372521)
(9.79857 -4.60815e-20 0.357609)
(9.65129 2.35137e-20 0.446372)
(9.70952 1.64585e-20 0.433995)
(9.53709 2.8369e-20 0.525133)
(9.60539 2.30132e-20 0.515084)
(9.40688 -4.39771e-20 0.609763)
(9.48581 -5.91866e-21 0.601861)
(9.26038 6.07213e-20 0.70124)
(9.35049 -9.26445e-20 0.695344)
(9.09722 -1.97978e-20 0.800552)
(9.19911 2.16216e-19 0.796563)
(8.91694 -6.20544e-20 0.908701)
(9.03131 -1.71098e-19 0.906557)
(8.71901 5.38249e-20 1.0267)
(8.84664 1.77376e-19 1.02638)
(8.50288 -1.34931e-19 1.15557)
(8.64457 -1.1188e-19 1.1571)
(8.26793 -1.17426e-19 1.29628)
(8.42452 -1.33088e-19 1.29978)
(8.01351 1.41254e-19 1.44975)
(8.18589 -9.2573e-20 1.45543)
(7.73891 1.24356e-19 1.61673)
(7.92802 4.86499e-19 1.62496)
(7.44333 3.44126e-20 1.79771)
(7.65011 -2.57737e-19 1.8091)
(7.12581 2.86606e-19 1.9928)
(7.35122 2.4333e-22 2.00833)
(6.78512 -3.11095e-19 2.20144)
(7.03023 2.84907e-19 2.22266)
(6.41961 -2.36951e-19 2.42207)
(6.68558 -5.51166e-19 2.45134)
(6.02703 6.17895e-19 2.65176)
(6.31517 6.41037e-19 2.69256)
(5.60428 2.68768e-19 2.88565)
(5.91607 6.21521e-19 2.94298)
(5.14714 -7.73178e-19 3.11645)
(5.48422 6.00664e-19 3.19723)
(4.64987 3.60297e-20 3.33374)
(5.01418 -6.76561e-19 3.44729)
(4.10487 1.56517e-18 3.5233)
(4.49872 7.06086e-19 3.68184)
(3.50275 6.68565e-21 3.66713)
(3.92859 7.82434e-19 3.88536)
(2.83267 -8.3863e-19 3.74323)
(3.29233 -2.26073e-18 4.03838)
(2.08292 -4.7939e-20 3.72869)
(2.58408 1.46695e-18 4.11609)
(1.24634 2.70449e-20 3.59298)
(1.76611 -1.56866e-18 4.09625)
(0.979797 8.48258e-19 3.92235)
(9.98299 1.22414e-20 0.116484)
(9.98764 4.95563e-25 0.0825508)
(9.95003 7.29673e-21 0.190704)
(9.96769 -7.38825e-21 0.161299)
(9.90126 7.9578e-21 0.264791)
(9.93132 1.52018e-20 0.238957)
(9.83689 -1.42052e-20 0.340718)
(9.87621 -2.86973e-20 0.31776)
(9.75729 1.16316e-21 0.419938)
(9.80513 -2.00856e-22 0.399372)
(9.66261 1.60592e-20 0.503601)
(9.71964 2.21974e-20 0.485088)
(9.55284 -1.16735e-20 0.59275)
(9.61981 -5.75252e-21 0.576012)
(9.42784 -5.57665e-20 0.688436)
(9.5053 -1.05977e-23 0.673224)
(9.28736 6.70416e-20 0.791725)
(9.37587 -9.21159e-20 0.777825)
(9.13109 5.97058e-20 0.9037)
(9.23127 1.51618e-19 0.890934)
(8.95861 7.30049e-20 1.02546)
(9.07118 -3.91158e-20 1.01368)
(8.76948 7.8346e-21 1.1581)
(8.89522 1.22851e-19 1.14722)
(8.56315 -1.1033e-19 1.30276)
(8.7029 -1.1192e-19 1.29271)
(8.33906 -1.07713e-19 1.4605)
(8.49368 1.45527e-20 1.45132)
(8.09658 2.60148e-19 1.63237)
(8.26701 -1.21408e-19 1.62416)
(7.83499 9.49117e-20 1.81926)
(8.02221 3.7614e-19 1.81231)
(7.55338 -2.88696e-19 2.02189)
(7.75842 -1.27493e-21 2.01671)
(7.25064 2.09368e-21 2.24063)
(7.47458 -5.94512e-19 2.23809)
(6.92533 3.45335e-20 2.47532)
(7.16935 3.0649e-19 2.47682)
(6.57548 3.41723e-19 2.72496)
(6.84096 -3.50215e-20 2.73267)
(6.19831 6.44585e-19 2.98736)
(6.48687 3.37703e-19 3.00456)
(5.78996 9.53355e-19 3.25866)
(6.10357 3.0738e-19 3.29012)
(5.34509 6.82839e-19 3.53277)
(5.68616 1.26655e-18 3.58524)
(4.85664 9.45699e-21 3.80073)
(5.22795 -1.23532e-18 3.88338)
(4.31541 -7.61106e-20 4.04983)
(4.72039 6.22488e-19 4.17491)
(3.7102 -1.51712e-18 4.26299)
(4.15259 -3.90624e-20 4.44578)
(3.02893 8.07941e-20 4.41835)
(3.51083 -2.1721e-18 4.67693)
(2.26023 -8.26391e-20 4.48967)
(2.78748 2.29046e-18 4.84259)
(1.39984 -7.35625e-19 4.43807)
(1.95202 -1.56769e-18 4.91225)
(1.10221 8.45246e-19 4.82039)
(9.98338 -1.97609e-20 0.128306)
(9.98781 -9.59974e-21 0.0903337)
(9.95138 8.52292e-22 0.210477)
(9.9686 -1.48106e-20 0.176707)
(9.9044 -2.20599e-20 0.292829)
(9.93368 1.52066e-20 0.262252)
(9.84264 -1.43128e-20 0.377339)
(9.88086 -3.65514e-20 0.349266)
(9.76639 2.11479e-20 0.465482)
(9.8129 -1.4667e-24 0.439389)
(9.67584 0 0.5585)
(9.73134 2.19865e-20 0.533978)
(9.571 5.98921e-21 0.657535)
(9.63624 -5.66845e-21 0.634236)
(9.45177 -3.76058e-20 0.763723)
(9.52731 -4.11454e-20 0.741332)
(9.31795 -4.25628e-21 0.878214)
(9.40436 5.31321e-21 0.856443)
(9.16929 5.0239e-20 1.00218)
(9.26719 7.52388e-20 0.98077)
(9.00545 1.28736e-20 1.1368)
(9.11557 6.53244e-20 1.11553)
(8.826 0 1.28328)
(8.94914 9.81447e-22 1.26196)
(8.63048 1.46407e-20 1.44285)
(8.76751 -1.2333e-19 1.42134)
(8.41835 -8.87567e-22 1.6167)
(8.57018 1.44559e-20 1.59493)
(8.189 9.16024e-22 1.80599)
(8.35664 -1.49644e-20 1.78397)
(7.94165 2.75222e-19 2.01185)
(8.12616 4.57043e-20 1.98972)
(7.6753 -3.14362e-19 2.23524)
(7.87785 5.08963e-19 2.21339)
(7.38866 -2.79183e-19 2.47687)
(7.61058 -8.18567e-19 2.45603)
(7.08007 2.32824e-19 2.73706)
(7.32283 2.71708e-19 2.71841)
(6.74722 -3.46126e-20 3.01552)
(7.01256 -3.27541e-22 3.00094)
(6.38682 0 3.31101)
(6.67686 0 3.30342)
(5.99432 6.31774e-19 3.62093)
(6.31171 0 3.62471)
(5.56341 -6.81111e-19 3.94072)
(5.91145 6.24751e-19 3.96224)
(5.08573 -6.01156e-19 4.2632)
(5.4683 -1.28415e-18 4.31133)
(4.55066 6.52554e-19 4.57743)
(4.97221 -1.98615e-20 4.66435)
(3.94516 -7.16814e-19 4.86736)
(4.41051 6.56433e-19 5.00918)
(3.25512 8.0803e-20 5.11053)
(3.76685 -7.50875e-19 5.3273)
(2.46739 7.67178e-19 5.27555)
(3.02894 7.75385e-19 5.5914)
(1.57763 2.48131e-20 5.31167)
(2.17395 0 5.76041)
(1.2496 5.75767e-22 5.75526)
(9.98395 -4.71921e-21 0.139749)
(9.98804 4.77233e-21 0.0978488)
(9.95318 0 0.229509)
(9.96975 -1.46876e-20 0.191529)
(9.90822 0 0.319702)
(9.93654 1.0047e-20 0.284548)
(9.84934 -2.17477e-20 0.412346)
(9.88626 0 0.379319)
(9.77679 1.13943e-21 0.508949)
(9.82172 -1.10329e-22 0.477487)
(9.69076 1.59412e-20 0.610822)
(9.74443 2.21037e-20 0.580454)
(9.5913 -5.32895e-20 0.719194)
(9.65446 -6.78593e-20 0.689505)
(9.47836 2.40449e-21 0.835278)
(9.55158 -6.35505e-22 0.805887)
(9.35181 8.57614e-20 0.960302)
(9.43564 3.61799e-20 0.93085)
(9.21144 9.01994e-20 1.09551)
(9.30652 3.78024e-20 1.06567)
(9.05699 5.26058e-20 1.24218)
(9.16404 -6.31096e-20 1.21163)
(8.8881 -1.23966e-19 1.40161)
(9.00793 2.25146e-19 1.37007)
(8.70437 -1.21766e-19 1.57513)
(8.83787 -2.31671e-19 1.54236)
(8.50531 0 1.76406)
(8.65345 0 1.72987)
(8.29031 3.06021e-20 1.96972)
(8.45419 0 1.934)
(8.05858 2.85268e-19 2.19347)
(8.23933 2.40389e-19 2.1562)
(7.80907 -1.1381e-20 2.43659)
(8.00805 3.75228e-20 2.39798)
(7.54042 -2.54414e-19 2.7002)
(7.7592 -2.25653e-19 2.66073)
(7.25075 3.51415e-20 2.98518)
(7.49116 2.62635e-19 2.94572)
(6.93745 3.43174e-20 3.29206)
(7.2017 3.67598e-20 3.25411)
(6.59685 0 3.62074)
(6.88767 -2.75734e-19 3.58671)
(6.22378 0 3.97014)
(6.54466 0 3.94379)
(5.8111 0 4.33764)
(6.16643 0 4.32466)
(5.34917 -6.88254e-19 4.71822)
(5.74429 0 4.72697)
(4.82554 -8.65345e-21 5.10324)
(5.26651 -1.25654e-18 5.14575)
(4.22464 6.06956e-19 5.47825)
(4.71804 1.91566e-18 5.57163)
(3.52873 -4.12945e-20 5.82044)
(4.07882 -6.86392e-19 5.98769)
(2.71982 0 6.09253)
(3.32804 0 6.36584)
(1.78886 -2.44494e-20 6.22794)
(2.44751 1.04664e-20 6.65345)
(1.43005 -2.22582e-21 6.75073)
(9.98466 -5.5191e-21 0.150718)
(9.98832 1.90589e-20 0.105032)
(9.95533 -4.26176e-21 0.247689)
(9.9711 -1.95613e-20 0.205663)
(9.91263 9.90662e-21 0.34528)
(9.93981 1.00484e-20 0.305732)
(9.85688 2.16385e-20 0.445589)
(9.89232 0 0.40779)
(9.78833 2.11633e-20 0.550153)
(9.83145 1.60605e-20 0.513505)
(9.70717 -6.29368e-20 0.660345)
(9.75874 1.13574e-22 0.624321)
(9.61351 -1.42913e-20 0.777463)
(9.67427 -1.07233e-19 0.741587)
(9.50734 3.36454e-20 0.902792)
(9.57785 9.83216e-20 0.866617)
(9.3886 -1.17722e-20 1.03763)
(9.4694 -5.38565e-20 1.00073)
(9.25714 -1.16861e-19 1.18328)
(9.34887 6.13452e-20 1.14525)
(9.11277 1.13178e-19 1.34112)
(9.21616 -1.02734e-19 1.30154)
(8.95524 1.11634e-19 1.51252)
(9.07108 3.15934e-19 1.47103)
(8.78421 -1.06938e-19 1.69893)
(8.91339 -3.10009e-19 1.65516)
(8.59928 0 1.90178)
(8.74283 1.10428e-19 1.85543)
(8.39986 2.12843e-19 2.1226)
(8.55892 1.41996e-20 2.07339)
(8.18521 -9.7473e-21 2.36298)
(8.36102 2.10289e-19 2.31072)
(7.95433 -1.79957e-19 2.62455)
(8.14839 -2.45434e-19 2.56917)
(7.70583 2.97449e-19 2.90887)
(7.91994 1.09875e-21 2.85054)
(7.43777 2.61891e-19 3.21748)
(7.67409 2.62839e-19 3.15667)
(7.14739 -2.76856e-19 3.55183)
(7.40861 -2.28578e-19 3.4895)
(6.8308 -2.72738e-19 3.91313)
(7.12033 4.98072e-19 3.85096)
(6.48245 0 4.30207)
(6.8047 0 4.24292)
(6.09457 0 4.71837)
(6.45521 0 4.66686)
(5.65631 -5.82335e-19 5.15992)
(6.06256 3.54043e-20 5.12339)
(5.15304 7.04158e-19 5.62138)
(5.61356 -6.1229e-19 5.61124)
(4.56555 5.9213e-19 6.09139)
(5.09024 1.8569e-18 6.1254)
(3.86998 -6.36974e-19 6.54851)
(4.46745 -1.21719e-18 6.65309)
(3.03861 1.05943e-20 6.95065)
(3.71115 -1.22439e-18 7.16857)
(2.0494 3.24733e-20 7.21177)
(2.7993 1.30363e-18 7.60989)
(1.66052 -1.33008e-18 7.84897)
(9.98548 4.37667e-21 0.161139)
(9.98863 4.7591e-21 0.111833)
(9.95776 -4.80299e-21 0.264914)
(9.9726 -4.87244e-21 0.219024)
(9.91753 0 0.369449)
(9.94341 0 0.325702)
(9.86514 -5.35681e-21 0.476929)
(9.89892 -5.10934e-21 0.434559)
(9.80085 -5.21104e-21 0.588928)
(9.84197 5.24817e-21 0.547302)
(9.72489 -4.5646e-20 0.706866)
(9.77411 0 0.665408)
(9.6374 8.15881e-21 0.832104)
(9.69546 -4.50389e-20 0.790277)
(9.53842 8.78617e-21 0.965984)
(9.60587 5.18603e-20 0.92328)
(9.42797 2.07738e-20 1.10986)
(9.50533 -4.18597e-20 1.06578)
(9.30597 7.33457e-20 1.26511)
(9.39387 7.34121e-20 1.21918)
(9.17232 1.05432e-19 1.43316)
(9.27147 -8.78968e-20 1.38488)
(9.02686 -1.13709e-19 1.61548)
(9.13805 7.81594e-20 1.56438)
(8.86936 -8.73647e-20 1.81359)
(8.99347 -9.58647e-20 1.75919)
(8.69952 1.23456e-19 2.0291)
(8.83759 2.20214e-19 1.97093)
(8.51687 1.40291e-20 2.26369)
(8.67005 -2.24881e-19 2.20132)
(8.32076 -3.08216e-20 2.5192)
(8.49035 -1.16752e-19 2.4522)
(8.1103 -6.13527e-20 2.79759)
(8.29793 2.06253e-19 2.72561)
(7.88423 -3.05331e-20 3.1009)
(8.09184 2.44096e-19 3.02372)
(7.64071 -2.33337e-19 3.43137)
(7.87073 -2.49052e-19 3.34894)
(7.37709 5.54766e-19 3.79143)
(7.6326 -5.19003e-19 3.704)
(7.08955 7.66394e-19 4.18369)
(7.37455 7.90973e-19 4.092)
(6.77254 0 4.61085)
(7.09232 -2.66043e-19 4.51648)
(6.41805 3.58063e-20 5.07541)
(6.77967 -1.67017e-20 4.98137)
(6.01447 -1.40066e-21 5.57909)
(6.42736 4.5233e-22 5.49081)
(5.54514 5.68251e-19 6.12154)
(6.02156 1.65673e-20 6.04853)
(4.98637 1.09205e-20 6.69736)
(5.54184 6.14807e-19 6.65648)
(4.30526 -1.80521e-18 7.29103)
(4.95751 -5.72619e-19 7.31077)
(3.45724 1.02123e-19 7.86107)
(4.21695 -1.24368e-18 7.99577)
(2.39159 -1.0409e-19 8.30242)
(3.27914 1.27491e-18 8.65076)
(1.97884 -1.35354e-18 9.12019)
(9.98638 -4.67876e-21 0.170952)
(9.98897 -9.45718e-21 0.118212)
(9.96042 0 0.281101)
(9.97423 -4.8363e-21 0.231541)
(9.92284 -5.18129e-21 0.392105)
(9.94729 -1.83059e-23 0.344368)
(9.87401 5.63901e-21 0.506242)
(9.90598 3.05794e-20 0.459523)
(9.81423 1.03881e-20 0.625123)
(9.85315 -1.04044e-20 0.578752)
(9.74375 0 0.750208)
(9.79038 1.6215e-20 0.703561)
(9.66274 -3.31308e-23 0.882905)
(9.71782 -2.76251e-20 0.835395)
(9.57133 -3.22601e-23 1.0246)
(9.63538 -1.14259e-20 0.975664)
(9.46957 1.22877e-20 1.17671)
(9.54311 5.84068e-21 1.12578)
(9.35751 -8.99491e-20 1.34065)
(9.44113 -5.97919e-21 1.28717)
(9.23512 -1.13108e-19 1.51789)
(9.32951 -1.12986e-19 1.4613)
(9.10236 9.38065e-20 1.70999)
(9.20828 1.19417e-20 1.6497)
(8.95914 2.15718e-19 1.91855)
(9.07743 1.05928e-19 1.85397)
(8.80527 -1.33605e-19 2.14528)
(8.93697 1.09785e-19 2.07579)
(8.64044 -3.5453e-19 2.39206)
(8.78668 -2.52956e-19 2.31702)
(8.4642 1.2402e-19 2.66094)
(8.62627 -3.44607e-19 2.57969)
(8.27586 5.1231e-19 2.95417)
(8.45544 2.35757e-19 2.86604)
(8.07443 2.01816e-20 3.27425)
(8.27353 7.51907e-19 3.17858)
(7.8584 -5.37886e-19 3.62409)
(8.07955 -4.92535e-19 3.52021)
(7.62551 -2.69112e-19 4.00707)
(7.87201 -5.52589e-19 3.8944)
(7.3724 -2.53434e-19 4.42721)
(7.64864 3.22658e-20 4.30533)
(7.09412 -2.80228e-19 4.88931)
(7.40601 -5.23653e-19 4.75815)
(6.7832 -5.18432e-20 5.399)
(7.13896 -1.60706e-22 5.25925)
(6.42831 1.85726e-20 5.96268)
(6.83949 -2.68853e-20 5.81662)
(6.012 6.94365e-20 6.58704)
(6.49502 3.56989e-20 6.44009)
(5.50701 1.70282e-20 7.27719)
(6.08524 2.20034e-22 7.14149)
(4.87015 -1.87355e-20 8.03251)
(5.57698 -5.25022e-19 7.93286)
(4.03182 -3.73871e-20 8.82831)
(4.9022 5.08959e-19 8.82398)
(2.88461 -1.85736e-20 9.56062)
(3.98419 -1.88766e-20 9.78683)
(2.47295 -1.00319e-18 10.6869)
(9.98734 -9.49588e-21 0.180105)
(9.98934 -4.71436e-21 0.124139)
(9.96327 -4.75976e-21 0.296174)
(9.97595 -1.44536e-20 0.243156)
(9.92848 3.61582e-20 0.413158)
(9.95139 9.84093e-21 0.361655)
(9.88339 1.39925e-20 0.533423)
(9.91342 3.56944e-20 0.482589)
(9.82833 -4.21489e-21 0.658613)
(9.86488 -4.70184e-20 0.607745)
(9.76355 -1.20038e-20 0.790222)
(9.80741 1.61674e-20 0.738654)
(9.6893 -3.88048e-20 0.929693)
(9.74116 4.39278e-20 0.876787)
(9.60576 -5.32479e-21 1.07845)
(9.66613 -5.64804e-20 1.02359)
(9.51306 -1.25802e-20 1.23794)
(9.58242 -5.77932e-21 1.1805)
(9.41133 -3.03905e-20 1.40962)
(9.49025 -6.16701e-21 1.34898)
(9.30066 1.36406e-20 1.595)
(9.38979 -1.04594e-19 1.53051)
(9.18113 2.51934e-20 1.79568)
(9.28117 1.13452e-19 1.72666)
(9.05278 0 2.01332)
(9.16457 -1.16717e-19 1.93907)
(8.91562 -1.39286e-20 2.24974)
(9.04011 1.06012e-19 2.16949)
(8.76952 -2.44179e-19 2.50696)
(8.90775 -1.22795e-19 2.41987)
(8.61427 -2.26513e-19 2.78717)
(8.76753 -3.26307e-19 2.69236)
(8.44954 4.81045e-19 3.09289)
(8.61943 2.26842e-19 2.98934)
(8.27473 2.2568e-19 3.42699)
(8.4632 4.77029e-19 3.31357)
(8.08886 -5.07899e-19 3.79292)
(8.29839 -2.0337e-20 3.66835)
(7.89037 -2.45656e-19 4.19491)
(8.12421 -7.32801e-19 4.0577)
(7.67688 -2.44916e-19 4.63821)
(7.93942 2.6185e-19 4.48662)
(7.44471 -2.38098e-19 5.12953)
(7.74199 -2.57566e-19 4.96155)
(7.18814 2.45121e-20 5.67755)
(7.52877 -2.36071e-19 5.49095)
(6.89798 -9.03122e-21 6.29367)
(7.29469 2.52421e-19 6.08625)
(6.55906 -3.37729e-20 6.9931)
(7.03138 -1.68552e-20 6.7633)
(6.14518 -5.47651e-19 7.79604)
(6.72428 -1.69239e-20 7.54502)
(5.60856 1.6398e-20 8.72999)
(6.34839 -5.17151e-19 8.46542)
(4.85528 5.19984e-19 9.82451)
(5.84005 5.13444e-19 9.58099)
(3.68549 -1.01667e-18 11.0821)
(5.1114 0 10.97)
(3.35094 -9.50282e-19 12.7819)
(9.98836 -9.74789e-21 0.188561)
(9.98972 0 0.129591)
(9.96627 5.45258e-22 0.310073)
(9.97776 -9.79869e-21 0.253823)
(9.9344 9.72224e-21 0.432527)
(9.95568 1.0046e-20 0.377501)
(9.8932 -2.64392e-20 0.558367)
(9.92117 4.74911e-21 0.503685)
(9.84301 -2.5781e-20 0.689268)
(9.87708 -2.65718e-20 0.634196)
(9.78414 7.24758e-20 0.826745)
(9.82506 4.98691e-21 0.770581)
(9.71686 2.49294e-20 0.972268)
(9.76534 7.29163e-20 0.914336)
(9.64143 -5.62738e-20 1.12729)
(9.69795 -4.06235e-20 1.06692)
(9.55806 6.2911e-22 1.29327)
(9.62309 -6.37441e-21 1.22979)
(9.46697 -8.16442e-20 1.47168)
(9.54104 1.21243e-20 1.40442)
(9.36837 -2.07463e-21 1.66408)
(9.45209 -8.82331e-20 1.5923)
(9.26248 -3.13428e-20 1.87205)
(9.35652 9.54818e-20 1.79501)
(9.14949 -8.04247e-21 2.09734)
(9.25464 -1.12809e-19 2.0142)
(9.02957 -5.63211e-21 2.3418)
(9.14671 1.08046e-19 2.25167)
(8.90287 -2.07473e-19 2.60753)
(9.03296 -9.20704e-20 2.50941)
(8.76951 1.33122e-19 2.89684)
(8.91376 -9.53544e-21 2.78958)
(8.62956 2.25388e-19 3.21237)
(8.78943 -8.53736e-20 3.09467)
(8.48291 2.25696e-19 3.55727)
(8.66021 2.22492e-19 3.42756)
(8.3293 -2.52543e-19 3.93535)
(8.52628 2.41322e-19 3.79176)
(8.16817 -2.15645e-19 4.35139)
(8.38779 -4.77543e-19 4.19155)
(7.99854 2.43271e-19 4.81149)
(8.24477 4.7508e-19 4.63238)
(7.81878 -2.55306e-19 5.3237)
(8.09709 2.27982e-19 5.12135)
(7.62621 -4.5515e-21 5.89897)
(7.94446 -2.55621e-19 5.66803)
(7.41624 2.4196e-19 6.55266)
(7.78628 2.42162e-19 6.28574)
(7.18084 0 7.30744)
(7.62167 0 6.99388)
(6.90482 7.86638e-21 8.19866)
(7.44917 1.32423e-20 7.82257)
(6.55653 -6.02452e-21 9.28842)
(7.2703 7.92857e-21 8.82255)
(6.05922 -1.33556e-20 10.7049)
(7.08485 1.60159e-22 10.0965)
(5.17619 5.84229e-20 12.994)
(7.11831 7.39003e-20 11.8989)
(6.40094 -2.44398e-19 15.8845)
(0.225404 -3.17877e-21 -0.153633)
(0.12635 1.09664e-20 -0.212608)
(0.454848 2.24861e-21 -0.136484)
(0.324269 -8.43237e-23 -0.210164)
(0.656857 1.27159e-22 -0.110368)
(0.527177 -1.02702e-20 -0.178665)
(0.827259 3.18612e-22 -0.0861223)
(0.712588 7.00279e-21 -0.146228)
(0.967993 1.51437e-21 -0.0653467)
(0.86999 -1.1652e-21 -0.117585)
(1.08138 7.59666e-23 -0.0475287)
(1.00008 -2.36898e-21 -0.092478)
(1.16911 -6.57729e-23 -0.0320071)
(1.10623 4.47835e-21 -0.0699995)
(1.23245 -1.92781e-22 -0.0183949)
(1.19087 -2.13232e-21 -0.0495054)
(1.27259 -1.28158e-22 -0.00663837)
(1.25538 2.03329e-21 -0.0307589)
(1.29127 1.17939e-22 0.00294272)
(1.30065 -1.96585e-21 -0.0140259)
(1.29155 1.20226e-22 0.00980706)
(1.32802 2.21786e-22 -0.000165434)
(1.27804 0 0.0136893)
(1.33961 0 0.00984878)
(1.25625 3.39004e-22 0.0148172)
(1.33851 0 0.0155742)
(1.23171 1.40687e-22 0.0137659)
(1.33022 -6.86449e-22 0.0172224)
(1.20917 -7.28243e-24 0.0112788)
(1.32043 8.96699e-22 0.0155338)
(1.19196 1.76022e-23 0.00804584)
(1.31332 2.21123e-22 0.0116462)
(1.18198 -3.22463e-22 0.00458616)
(1.31142 -1.08015e-22 0.00665214)
(1.18001 -5.60847e-23 0.00125037)
(1.31565 1.41673e-24 0.00132458)
(1.18595 5.20594e-23 -0.00171881)
(1.32613 4.50652e-24 -0.00374573)
(1.19892 -4.53374e-23 -0.00419122)
(1.34219 1.96855e-22 -0.00806721)
(1.21765 -4.62472e-23 -0.00618299)
(1.36267 -9.19515e-23 -0.0114491)
(1.24095 0 -0.00777761)
(1.38626 0 -0.0139823)
(1.26783 0 -0.00900617)
(1.41179 7.41438e-23 -0.0158215)
(1.29736 0 -0.00981418)
(1.43835 -7.26727e-23 -0.0170622)
(1.32855 0 -0.0101347)
(1.46526 6.02798e-23 -0.0176817)
(1.36027 0 -0.0100237)
(1.49177 0 -0.0176426)
(1.3916 0 -0.00974012)
(1.5171 0 -0.0170977)
(1.42231 -1.6972e-23 -0.00953779)
(1.54067 3.42291e-23 -0.0164423)
(1.4523 -1.73152e-23 -0.00905339)
(1.56253 -4.36646e-24 -0.0157628)
(1.58713 1.29459e-23 -0.0134593)
(0.195811 1.60515e-20 -0.32412)
(0.0921053 1.9682e-20 -0.408395)
(0.406276 -1.34822e-20 -0.298417)
(0.273134 -6.20147e-21 -0.402827)
(0.59664 -1.33121e-21 -0.25016)
(0.450802 -1.18252e-20 -0.346339)
(0.76161 5.37418e-21 -0.203809)
(0.61488 8.56716e-21 -0.287163)
(0.90335 -4.95068e-21 -0.163641)
(0.757108 -2.5776e-21 -0.235541)
(1.02458 2.06958e-21 -0.12875)
(0.878824 -2.69487e-21 -0.191025)
(1.12724 2.44192e-21 -0.0977275)
(0.983104 4.47701e-21 -0.151688)
(1.21274 6.27301e-24 -0.0696431)
(1.07207 -2.08313e-21 -0.116187)
(1.28202 2.7842e-22 -0.0441889)
(1.14702 4.11991e-21 -0.0837754)
(1.33569 -1.86838e-21 -0.0217077)
(1.20868 -3.91291e-21 -0.0543547)
(1.37409 1.1858e-22 -0.00311101)
(1.25763 -1.37737e-22 -0.0285)