/*--------------------------------*- C++ -*----------------------------------*\
| =========                 |                                                 |
| \\      /  F ield         | OpenFOAM: The Open Source CFD Toolbox           |
|  \\    /   O peration     | Version:  dev                                   |
|   \\  /    A nd           | Web:      www.OpenFOAM.org                      |
|    \\/     M anipulation  |                                                 |
\*---------------------------------------------------------------------------*/
FoamFile
{
    version     2.0;
    format      ascii;
    class       volVectorField;
    location    "0.54";
    object      cellDisplacement;
}
// * * * * * * * * * * * * * * * * * * * * * * * * * * * * * * * * * * * * * //

dimensions      [0 1 0 0 0 0 0];

internalField   nonuniform List<vector> 
465
(
(0.0960069 0 0.0840553)
(0.0954149 0 0.0797811)
(0.095153 0 0.0906246)
(0.0946267 0 0.0857268)
(0.0938468 0 0.0812646)
(0.0928085 0 0.0771234)
(0.0943599 0 0.0962991)
(0.0938628 0 0.0909864)
(0.0931167 0 0.0861063)
(0.0921108 0 0.0815653)
(0.0908329 0 0.0772805)
(0.093638 0 0.100941)
(0.0931362 0 0.0954627)
(0.092397 0 0.0903362)
(0.0914054 0 0.0855092)
(0.0901448 0 0.0809403)
(0.0885973 0 0.0765632)
(0.08674 0 0.0723221)
(0.0929804 0 0.104523)
(0.0924461 0 0.0990608)
(0.0916924 0 0.093867)
(0.090697 0 0.0889005)
(0.0894399 0 0.0841405)
(0.0879027 0 0.0795582)
(0.0860577 0 0.0751088)
(0.083879 0 0.0707499)
(0.0813373 0 0.0664401)
(0.092366 0 0.107136)
(0.0917839 0 0.101802)
(0.090999 0 0.0966461)
(0.089986 0 0.0916612)
(0.0887243 0 0.0868293)
(0.0871863 0 0.0821271)
(0.0853457 0 0.0775259)
(0.0831763 0 0.0730101)
(0.0806483 0 0.0685408)
(0.0777262 0 0.0640808)
(0.0917734 0 0.108878)
(0.0911359 0 0.103747)
(0.0903109 0 0.0987099)
(0.0892715 0 0.0937773)
(0.0879925 0 0.0889474)
(0.0864475 0 0.0842125)
(0.084606 0 0.0795401)
(0.0824399 0 0.0749181)
(0.0799229 0 0.0703313)
(0.0770157 0 0.0657466)
(0.0736821 0 0.0611331)
(0.069882 0 0.0564565)
(0.0911828 0 0.109838)
(0.0904878 0 0.104956)
(0.089618 0 0.100094)
(0.0885455 0 0.0952731)
(0.0872432 0 0.0905021)
(0.0856833 0 0.0857808)
(0.0838358 0 0.0810984)
(0.0816751 0 0.0764408)
(0.0791644 0 0.0717866)
(0.0762681 0 0.0671117)
(0.0729521 0 0.0624026)
(0.0691766 0 0.0576257)
(0.0648947 0 0.0527442)
(0.0905782 0 0.110102)
(0.0898271 0 0.10549)
(0.0889112 0 0.100837)
(0.0878024 0 0.09617)
(0.0864731 0 0.0915034)
(0.0848949 0 0.086844)
(0.0830385 0 0.0821899)
(0.0808744 0 0.0775338)
(0.0783698 0 0.0728646)
(0.0754851 0 0.0681521)
(0.0721845 0 0.0633812)
(0.0684339 0 0.0585351)
(0.064183 0 0.053577)
(0.0593852 0 0.0484715)
(0.0539895 0 0.043177)
(0.0899464 0 0.109724)
(0.0891438 0 0.105402)
(0.0881828 0 0.100978)
(0.0870367 0 0.0964917)
(0.0856784 0 0.091963)
(0.0840795 0 0.0874029)
(0.0822105 0 0.0828149)
(0.0800406 0 0.0781965)
(0.0775368 0 0.0735395)
(0.0746624 0 0.0688279)
(0.0713848 0 0.0640461)
(0.0676581 0 0.0591666)
(0.0634364 0 0.0541593)
(0.0586772 0 0.0489996)
(0.0533299 0 0.0436467)
(0.0473389 0 0.0380526)
(0.0892781 0 0.108759)
(0.0884294 0 0.104727)
(0.0874274 0 0.100551)
(0.0862441 0 0.0962606)
(0.0848564 0 0.0918938)
(0.0832355 0 0.0874617)
(0.0813519 0 0.082971)
(0.0791748 0 0.0784228)
(0.0766713 0 0.0738126)
(0.0738064 0 0.0691301)
(0.0705441 0 0.0643615)
(0.0668445 0 0.0594878)
(0.0626578 0 0.0544733)
(0.0579372 0 0.0492882)
(0.052639 0 0.0439051)
(0.0467096 0 0.038278)
(0.04009 0 0.0323514)
(0.0327156 0 0.0260599)
(0.0885682 0 0.107261)
(0.0876787 0 0.103503)
(0.0866373 0 0.0995703)
(0.0854208 0 0.0954941)
(0.0840049 0 0.0913075)
(0.082362 0 0.0870254)
(0.0804632 0 0.0826573)
(0.078278 0 0.0782071)
(0.0757738 0 0.0736732)
(0.0729161 0 0.069049)
(0.0696686 0 0.0643227)
(0.0659917 0 0.0594776)
(0.0618427 0 0.0544903)
(0.0571684 0 0.0493215)
(0.0519197 0 0.0439376)
(0.0460533 0 0.0383074)
(0.0395118 0 0.0323768)
(0.0322305 0 0.0260794)
(0.0241424 0 0.0193394)
(0.0878129 0 0.105257)
(0.0868861 0 0.101752)
(0.0858122 0 0.0980646)
(0.0845665 0 0.094212)
(0.0831241 0 0.0902159)
(0.0814596 0 0.0860992)
(0.0795455 0 0.0818738)
(0.0773517 0 0.0775449)
(0.0748462 0 0.0731131)
(0.0719949 0 0.0685741)
(0.0687615 0 0.0639183)
(0.0651072 0 0.0591311)
(0.06099 0 0.0541917)
(0.0563649 0 0.0490726)
(0.0511751 0 0.0437302)
(0.0453728 0 0.0381285)
(0.0389133 0 0.0322279)
(0.0317278 0 0.0259587)
(0.0237542 0 0.0192485)
(0.0149236 0 0.0120094)
(0.0870129 0 0.102768)
(0.0860547 0 0.0995046)
(0.0849513 0 0.0960491)
(0.0836802 0 0.0924193)
(0.0822156 0 0.0886276)
(0.0805298 0 0.084686)
(0.0786009 0 0.0806192)
(0.0763986 0 0.0764317)
(0.0738916 0 0.0721248)
(0.0710462 0 0.0676958)
(0.0678269 0 0.0631372)
(0.0641951 0 0.0584363)
(0.0601099 0 0.0535741)
(0.0555268 0 0.0485254)
(0.050396 0 0.0432553)
(0.044675 0 0.0377315)
(0.0383008 0 0.0318973)
(0.0312113 0 0.0256902)
(0.0233545 0 0.0190476)
(0.0146641 0 0.0118829)
(0.00506002 0 0.00408545)
(0.0861707 0 0.0998023)
(0.0851861 0 0.0967683)
(0.0840573 0 0.0935367)
(0.0827636 0 0.0901246)
(0.0812771 0 0.0865338)
(0.0795746 0 0.0827833)
(0.0776327 0 0.0788906)
(0.0754227 0 0.0748621)
(0.0729143 0 0.0707005)
(0.0700748 0 0.0664047)
(0.0668693 0 0.0619687)
(0.0632603 0 0.0573814)
(0.0592076 0 0.0526262)
(0.0546684 0 0.0476799)
(0.0495965 0 0.0425124)
(0.0439456 0 0.0370885)
(0.0376643 0 0.0313623)
(0.0306846 0 0.0252662)
(0.0229464 0 0.0187312)
(0.0143987 0 0.011684)
(0.00496588 0 0.00401752)
(0.0852914 0 0.0963602)
(0.0842844 0 0.0935428)
(0.0831332 0 0.090526)
(0.0818177 0 0.0873221)
(0.0803152 0 0.0839408)
(0.0786 0 0.0803914)
(0.0766463 0 0.0766843)
(0.0744291 0 0.0728296)
(0.0719196 0 0.0688319)
(0.069086 0 0.0646909)
(0.0658944 0 0.0604018)
(0.0623081 0 0.0559549)
(0.0582882 0 0.0513355)
(0.0537931 0 0.0465225)
(0.0487786 0 0.0414886)
(0.0431984 0 0.0361991)
(0.0370027 0 0.0306104)
(0.0301376 0 0.0246675)
(0.0225337 0 0.018294)
(0.0141301 0 0.0114097)
(0.00487044 0 0.00392354)
(0.0843822 0 0.0924325)
(0.0833565 0 0.0898215)
(0.0821863 0 0.0870134)
(0.0808529 0 0.0840177)
(0.079335 0 0.0808436)
(0.0776096 0 0.0775005)
(0.075649 0 0.0739945)
(0.0734243 0 0.0703254)
(0.0709139 0 0.0665088)
(0.0680865 0 0.0625433)
(0.0649088 0 0.0584247)
(0.0613452 0 0.0541447)
(0.057358 0 0.0496899)
(0.0529068 0 0.0450413)
(0.047949 0 0.0401736)
(0.0424395 0 0.0350541)
(0.0363301 0 0.0296415)
(0.0295697 0 0.0238841)
(0.022104 0 0.0177186)
(0.0138616 0 0.0110575)
(0.00477501 0 0.00380279)
(0.0834524 0 0.0880018)
(0.0824109 0 0.0855897)
(0.081225 0 0.0829857)
(0.0798765 0 0.0801973)
(0.0783458 0 0.0772328)
(0.0766114 0 0.0741011)
(0.0746427 0 0.0707977)
(0.072415 0 0.0673351)
(0.0699051 0 0.063718)
(0.0670842 0 0.0599488)
(0.0639204 0 0.0560245)
(0.0603793 0 0.0519378)
(0.0564244 0 0.0476768)
(0.0520167 0 0.0432243)
(0.0471149 0 0.0385568)
(0.0416755 0 0.0336441)
(0.0356525 0 0.0284474)
(0.0289968 0 0.0229184)
(0.0216569 0 0.0169973)
(0.0135785 0 0.0106112)
(0.00468145 0 0.00365495)
(0.082513 0 0.0830435)
(0.0814585 0 0.080825)
(0.0802592 0 0.0784223)
(0.078898 0 0.0758414)
(0.0773557 0 0.0730884)
(0.0756111 0 0.0701693)
(0.0736401 0 0.0670873)
(0.0714134 0 0.0638481)
(0.0689026 0 0.060445)
(0.0660882 0 0.0568924)
(0.0629382 0 0.0531864)
(0.0594194 0 0.0493201)
(0.0554962 0 0.0452828)
(0.051131 0 0.0410589)
(0.0462843 0 0.0366271)
(0.0409142 0 0.0319594)
(0.0349765 0 0.0270201)
(0.0284249 0 0.0217642)
(0.0212103 0 0.0161358)
(0.0132807 0 0.0100663)
(0.00457143 0 0.00346417)
(0.0815771 0 0.0775247)
(0.0805116 0 0.0754974)
(0.0793012 0 0.073296)
(0.0779292 0 0.0709249)
(0.0763774 0 0.0683891)
(0.0746258 0 0.0656938)
(0.0726524 0 0.0628446)
(0.0704246 0 0.0598355)
(0.067916 0 0.0566684)
(0.0651089 0 0.0533555)
(0.0619728 0 0.0498933)
(0.0584757 0 0.0462757)
(0.0545833 0 0.0424932)
(0.0502596 0 0.0385319)
(0.0454664 0 0.0343726)
(0.0401638 0 0.0299899)
(0.0343099 0 0.0253511)
(0.0278607 0 0.0204151)
(0.0207705 0 0.0151306)
(0.0129915 0 0.00943484)
(0.00446757 0 0.00324629)
(0.0806596 0 0.0714052)
(0.0795849 0 0.0695696)
(0.078365 0 0.0675719)
(0.0769839 0 0.0654155)
(0.0754241 0 0.0631042)
(0.0736662 0 0.0606421)
(0.0716897 0 0.0580338)
(0.0694618 0 0.0552699)
(0.0669583 0 0.0523651)
(0.0641591 0 0.049317)
(0.0610366 0 0.0461256)
(0.0575602 0 0.0427866)
(0.0536974 0 0.0392916)
(0.0494133 0 0.0356286)
(0.0446716 0 0.0317805)
(0.0394341 0 0.0277245)
(0.0336611 0 0.0234314)
(0.0273114 0 0.0188641)
(0.0203426 0 0.0139763)
(0.0127111 0 0.00871156)
(0.00436708 0 0.00299695)
(0.0797772 0 0.0646361)
(0.0786947 0 0.0629959)
(0.0774668 0 0.0612077)
(0.0760779 0 0.0592739)
(0.074511 0 0.0571973)
(0.0727473 0 0.0549808)
(0.0707659 0 0.0526268)
(0.0685427 0 0.0501349)
(0.0660477 0 0.0475142)
(0.0632539 0 0.0447536)
(0.0601436 0 0.0418613)
(0.0566867 0 0.0388324)
(0.0528515 0 0.0356598)
(0.0486047 0 0.0323328)
(0.0439115 0 0.0288367)
(0.0387357 0 0.0251515)
(0.0330397 0 0.0212514)
(0.026785 0 0.0171037)
(0.0199324 0 0.0126674)
(0.0124425 0 0.00789249)
(0.00427076 0 0.00271472)
(0.0789487 0 0.0571601)
(0.0778596 0 0.0557225)
(0.0766248 0 0.0541529)
(0.0752292 0 0.0524532)
(0.0736564 0 0.0506255)
(0.071888 0 0.0486721)
(0.0699042 0 0.0465954)
(0.0676837 0 0.044398)
(0.0651934 0 0.0420735)
(0.0624085 0 0.0396352)
(0.0593099 0 0.0370744)
(0.0558706 0 0.0343902)
(0.0520606 0 0.0315771)
(0.0478481 0 0.0286266)
(0.0431997 0 0.0255259)
(0.0380809 0 0.022258)
(0.0324563 0 0.0188007)
(0.0262902 0 0.0151258)
(0.0195464 0 0.011198)
(0.0121895 0 0.00697399)
(0.00417989 0 0.00239832)
(0.0781948 0 0.0489103)
(0.0771 0 0.0476863)
(0.0758593 0 0.0463485)
(0.0744581 0 0.0448983)
(0.0728801 0 0.0433374)
(0.0711077 0 0.0416676)
(0.0691213 0 0.0398908)
(0.0668996 0 0.0380083)
(0.064418 0 0.0360193)
(0.0616449 0 0.0339344)
(0.058554 0 0.0317366)
(0.0551296 0 0.0294338)
(0.0513418 0 0.0270207)
(0.0471597 0 0.02449)
(0.0425512 0 0.0218311)
(0.0374836 0 0.0190299)
(0.0319235 0 0.016068)
(0.0258374 0 0.0129219)
(0.0191926 0 0.00956206)
(0.011957 0 0.00595243)
(0.00409616 0 0.00204654)
(0.0775383 0 0.0398097)
(0.0764387 0 0.0388144)
(0.075193 0 0.037726)
(0.0737868 0 0.0365453)
(0.0722045 0 0.0352738)
(0.0704288 0 0.0339129)
(0.0684406 0 0.0324645)
(0.0662194 0 0.0309303)
(0.0637433 0 0.0293125)
(0.0609768 0 0.0276079)
(0.0578945 0 0.0258131)
(0.0544833 0 0.0239336)
(0.0507144 0 0.021965)
(0.0465581 0 0.0199012)
(0.0419837 0 0.017734)
(0.0369599 0 0.0154523)
(0.0314554 0 0.0130415)
(0.0254388 0 0.010483)
(0.0188802 0 0.00775345)
(0.0117511 0 0.00482414)
(0.00402168 0 0.00165817)
(0.0770039 0 0.0297699)
(0.0759003 0 0.0290235)
(0.0746504 0 0.028207)
(0.0732402 0 0.027321)
(0.0716543 0 0.0263666)
(0.0698756 0 0.025345)
(0.0678858 0 0.0242577)
(0.0656649 0 0.0231061)
(0.0631916 0 0.021892)
(0.0604302 0 0.0206113)
(0.0573554 0 0.0192656)
(0.0539547 0 0.0178571)
(0.0502007 0 0.0163822)
(0.0460648 0 0.0148369)
(0.0415175 0 0.0132153)
(0.0365289 0 0.0115095)
(0.031069 0 0.00970885)
(0.0251088 0 0.00779998)
(0.0186204 0 0.00576585)
(0.0115789 0 0.0035855)
(0.00395903 0 0.00123202)
(0.0766183 0 0.0186906)
(0.0755117 0 0.0182189)
(0.0742586 0 0.0177028)
(0.0728453 0 0.0171427)
(0.0712565 0 0.0165396)
(0.0694754 0 0.015894)
(0.067484 0 0.015207)
(0.0652625 0 0.0144791)
(0.0627904 0 0.0137106)
(0.0600331 0 0.0128958)
(0.0569645 0 0.0120549)
(0.0535708 0 0.0111707)
(0.0498267 0 0.0102439)
(0.0457049 0 0.00927317)
(0.0411766 0 0.0082553)
(0.0362128 0 0.00718567)
(0.0307847 0 0.00605798)
(0.0248648 0 0.00486399)
(0.0184272 0 0.00359333)
(0.0114498 0 0.00223317)
(0.00391156 0 0.000767045)
(0.0764099 0 0.00644314)
(0.0753016 0 0.00627935)
(0.0740468 0 0.00610017)
(0.0726316 0 0.0059058)
(0.0710409 0 0.0056965)
(0.0692582 0 0.00547255)
(0.0672654 0 0.0052342)
(0.0650425 0 0.00498149)
(0.0625679 0 0.00471374)
(0.0598172 0 0.00442783)
(0.0567564 0 0.00414181)
(0.0533627 0 0.00383741)
(0.0496226 0 0.00351789)
(0.0455077 0 0.00318321)
(0.0409891 0 0.00283254)
(0.0360383 0 0.00246438)
(0.0306271 0 0.00207662)
(0.0247287 0 0.0016665)
(0.0183185 0 0.00123052)
(0.0113762 0 0.00076435)
(0.00388404 0 0.000262439)
)
;

boundaryField
{
    inlet
    {
        type            cellMotion;
        value           nonuniform 0();
    }
    outlet
    {
        type            cellMotion;
        value           uniform (0 0 0);
    }
    flap
    {
        type            cellMotion;
        value           nonuniform 0();
    }
    upperWall
    {
        type            slip;
    }
    lowerWall
    {
        type            slip;
    }
    frontAndBack
    {
        type            empty;
    }
    procBoundary2to1
    {
        type            processor;
        value           nonuniform List<vector> 
17
(
(0.0893341 0 0.110831)
(0.0886166 0 0.108558)
(0.0878478 0 0.105819)
(0.0870316 0 0.102623)
(0.0861739 0 0.0989667)
(0.0852827 0 0.0948376)
(0.0843676 0 0.0902158)
(0.0834405 0 0.0850735)
(0.0825148 0 0.0793751)
(0.0816057 0 0.0730771)
(0.0807305 0 0.0661275)
(0.0799081 0 0.0584655)
(0.0791594 0 0.0500207)
(0.0785074 0 0.0407119)
(0.0779766 0 0.0304462)
(0.0775939 0 0.0191181)
(0.0773873 0 0.00659157)
)
;
    }
    procBoundary2to4
    {
        type            processor;
        value           nonuniform List<vector> 
11
(
(0.0963483 0 0.0888649)
(0.0954228 0 0.0961051)
(0.0946139 0 0.102127)
(0.0939207 0 0.106809)
(0.0933182 0 0.110257)
(0.0927724 0 0.112631)
(0.092253 0 0.114077)
(0.0917329 0 0.114705)
(0.0911931 0 0.114619)
(0.0906189 0 0.113901)
(0.0900001 0 0.112622)
)
;
    }
    procBoundary2to5
    {
        type            processor;
        value           nonuniform List<vector> 
34
(
(0.0968999 0 0.0767201)
(0.0962105 0 0.0732663)
(0.0945778 0 0.0758865)
(0.0945778 0 0.0758865)
(0.0934913 0 0.0722552)
(0.0915011 0 0.0732122)
(0.0915011 0 0.0732122)
(0.0892669 0 0.0731803)
(0.0892669 0 0.0731803)
(0.0873912 0 0.0692047)
(0.0845472 0 0.0681687)
(0.0845472 0 0.0681687)
(0.0819891 0 0.0640593)
(0.0783986 0 0.0621407)
(0.0783986 0 0.0621407)
(0.0743735 0 0.0595956)
(0.0743735 0 0.0595956)
(0.070549 0 0.0550493)
(0.0655698 0 0.0516802)
(0.0655698 0 0.0516802)
(0.0600589 0 0.0477206)
(0.0600589 0 0.0477206)
(0.0546163 0 0.0425119)
(0.0479394 0 0.0376452)
(0.0479394 0 0.0376452)
(0.0406446 0 0.032162)
(0.0406446 0 0.032162)
(0.0331807 0 0.025909)
(0.0245168 0 0.0193264)
(0.0245168 0 0.0193264)
(0.0151755 0 0.0120672)
(0.0151755 0 0.0120672)
(0.00515198 0 0.0041284)
(0.00515198 0 0.0041284)
)
;
    }
}


// ************************************************************************* //
