/*--------------------------------*- C++ -*----------------------------------*\
| =========                 |                                                 |
| \\      /  F ield         | OpenFOAM: The Open Source CFD Toolbox           |
|  \\    /   O peration     | Version:  dev                                   |
|   \\  /    A nd           | Web:      www.OpenFOAM.org                      |
|    \\/     M anipulation  |                                                 |
\*---------------------------------------------------------------------------*/
FoamFile
{
    version     2.0;
    format      ascii;
    class       volScalarField;
    location    "4.54";
    object      p;
}
// * * * * * * * * * * * * * * * * * * * * * * * * * * * * * * * * * * * * * //

dimensions      [0 2 -2 0 0 0 0];

internalField   nonuniform List<scalar> 
465
(
136.346
136.211
136.408
136.93
137.668
138.567
139.618
140.824
142.18
143.683
145.326
147.105
149.013
151.041
153.179
155.414
157.725
160.09
162.478
164.854
167.172
136.17
136.132
136.351
136.87
137.605
138.502
139.549
140.749
142.099
143.594
145.228
146.998
148.895
150.913
153.041
155.264
157.566
159.923
162.306
164.68
167.003
135.994
136.026
136.263
136.773
137.496
138.381
139.415
140.599
141.93
143.403
145.013
146.754
148.62
150.603
152.692
154.874
157.133
159.445
161.784
164.118
166.406
135.8
135.867
136.116
136.617
137.327
138.197
139.214
140.376
141.682
143.125
144.701
146.404
148.226
150.159
152.193
154.316
156.509
158.753
161.023
163.288
165.514
135.58
135.664
135.921
136.415
137.11
137.962
138.956
140.09
141.364
142.769
144.302
145.955
147.721
149.591
151.556
153.602
155.714
157.87
160.05
162.224
164.364
135.33
135.421
135.681
136.167
136.844
137.672
138.638
139.74
140.974
142.334
143.815
145.408
147.108
148.905
150.787
152.743
154.757
156.81
158.881
160.945
162.977
135.048
135.141
135.399
135.873
136.53
137.331
138.265
139.328
140.516
141.824
143.245
144.771
146.394
148.105
149.894
151.747
153.648
155.582
157.526
159.46
161.361
134.732
134.824
135.077
135.537
136.17
136.941
137.838
138.857
139.994
141.243
142.596
144.045
145.583
147.199
148.882
150.619
152.394
154.191
155.991
157.773
159.517
134.383
134.472
134.716
135.159
135.766
136.504
137.359
138.33
139.41
140.593
141.872
143.237
144.681
146.191
147.758
149.366
151
152.645
154.28
155.886
157.444
134.003
134.087
134.319
134.742
135.321
136.022
136.832
137.75
138.768
139.881
141.078
142.352
143.693
145.089
146.528
147.995
149.475
150.949
152.399
153.803
155.141
133.592
133.67
133.888
134.289
134.837
135.498
136.26
137.121
138.073
139.109
140.22
141.396
142.627
143.9
145.201
146.516
147.826
149.114
150.356
151.531
152.613
133.151
133.222
133.425
133.801
134.316
134.935
135.646
136.446
137.328
138.283
139.303
140.375
141.489
142.631
143.786
144.938
146.066
147.15
148.165
149.082
149.873
132.682
132.746
132.932
133.282
133.761
134.335
134.993
135.729
136.538
137.409
138.332
139.296
140.287
141.292
142.294
143.273
144.208
145.074
145.842
146.478
146.944
132.188
132.243
132.411
132.733
133.175
133.703
134.305
134.975
135.707
136.491
137.314
138.165
139.03
139.893
140.735
141.534
142.267
142.905
143.412
143.747
143.861
131.669
131.716
131.864
132.157
132.561
133.041
133.585
134.187
134.841
135.534
136.256
136.991
137.727
138.443
139.121
139.737
140.263
140.664
140.901
140.924
140.669
131.283
131.546
131.91
132.34
132.823
133.355
133.927
134.527
135.143
135.759
136.361
136.927
137.437
137.863
138.175
138.334
138.295
137.998
137.368
130.892
131.214
131.592
132.012
132.47
132.957
133.46
133.967
134.46
134.923
135.335
135.671
135.904
135.999
135.913
135.596
134.981
133.984
130.479
130.803
131.158
131.54
131.94
132.344
132.738
133.106
133.429
133.684
133.847
133.886
133.765
133.439
132.853
131.936
130.601
129.975
130.264
130.569
130.88
131.183
131.464
131.706
131.888
131.988
131.979
131.829
131.499
130.944
130.106
128.917
127.288
129.334
129.56
129.781
129.984
130.152
130.268
130.312
130.259
130.083
129.751
129.225
128.458
127.395
125.969
124.098
128.518
128.65
128.752
128.809
128.802
128.71
128.511
128.176
127.674
126.966
126.008
124.749
123.127
121.071
127.495
127.442
127.316
127.095
126.756
126.273
125.613
124.743
123.619
122.196
120.419
118.229
126.062
125.821
125.478
125.009
124.388
123.588
122.574
121.31
119.755
117.863
115.584
123.869
123.28
122.537
121.612
120.476
119.097
117.44
115.467
113.141
120.73
119.698
118.461
116.991
115.26
113.238
110.897
117.857
116.538
114.999
113.219
111.173
108.843
113.126
111.317
109.269
106.97
107.52
105.266
)
;

boundaryField
{
    inlet
    {
        type            zeroGradient;
    }
    outlet
    {
        type            fixedValue;
        value           nonuniform 0();
    }
    flap
    {
        type            zeroGradient;
    }
    upperWall
    {
        type            zeroGradient;
    }
    lowerWall
    {
        type            zeroGradient;
    }
    frontAndBack
    {
        type            empty;
    }
    procBoundary3to0
    {
        type            processor;
        value           nonuniform List<scalar> 
34
(
131.118
131.156
131.156
130.662
130.662
130.202
130.202
129.708
129.708
129.112
129.112
128.37
128.37
127.447
127.491
127.491
126.219
126.219
124.675
124.327
124.327
122.279
121.583
121.583
118.979
118.979
116.096
114.713
114.713
111.373
109.553
109.553
105.916
103.717
)
;
    }
    procBoundary3to1
    {
        type            processor;
        value           nonuniform List<scalar> 9(121.685 118.497 115.558 112.869 110.424 108.21 106.211 104.409 102.786);
    }
    procBoundary3to4
    {
        type            processor;
        value           nonuniform List<scalar> 
19
(
169.385
169.226
168.605
167.66
166.434
164.947
163.204
161.201
158.932
156.391
153.578
150.504
147.193
143.689
140.056
136.306
132.493
128.73
125.107
)
;
    }
}


// ************************************************************************* //
