/*--------------------------------*- C++ -*----------------------------------*\
| =========                 |                                                 |
| \\      /  F ield         | OpenFOAM: The Open Source CFD Toolbox           |
|  \\    /   O peration     | Version:  dev                                   |
|   \\  /    A nd           | Web:      www.OpenFOAM.org                      |
|    \\/     M anipulation  |                                                 |
\*---------------------------------------------------------------------------*/
FoamFile
{
    version     2.0;
    format      ascii;
    class       volVectorField;
    location    "3.16";
    object      cellDisplacement;
}
// * * * * * * * * * * * * * * * * * * * * * * * * * * * * * * * * * * * * * //

dimensions      [0 1 0 0 0 0 0];

internalField   nonuniform List<vector> 
465
(
(0.00571911 0 -5.41017e-06)
(0.0163916 0 -1.55136e-05)
(0.0256289 0 -2.42852e-05)
(0.0335391 0 -3.18183e-05)
(0.0402353 0 -3.818e-05)
(0.0458208 0 -4.33955e-05)
(0.0503891 0 -4.74501e-05)
(0.0540241 0 -5.02873e-05)
(0.0568002 0 -5.18149e-05)
(0.0587829 0 -5.18762e-05)
(0.06003 0 -5.0291e-05)
(0.0605915 0 -4.68275e-05)
(0.0605109 0 -4.11467e-05)
(0.059827 0 -3.28873e-05)
(0.0585743 0 -2.16118e-05)
(0.0567846 0 -6.79416e-06)
(0.0544882 0 1.21894e-05)
(0.0517158 0 3.60695e-05)
(0.0485005 0 6.56779e-05)
(0.0448755 0 0.000101922)
(0.0408799 0 0.000145918)
(0.00572596 0 -1.62495e-05)
(0.0164122 0 -4.65994e-05)
(0.0256633 0 -7.2958e-05)
(0.0335881 0 -9.56099e-05)
(0.0403 0 -0.000114759)
(0.0459025 0 -0.000130484)
(0.0504897 0 -0.000142747)
(0.0541462 0 -0.000151379)
(0.0569468 0 -0.00015612)
(0.0589577 0 -0.000156494)
(0.0602373 0 -0.000151976)
(0.0608365 0 -0.000141905)
(0.0607992 0 -0.000125246)
(0.0601652 0 -0.00010095)
(0.05897 0 -6.77339e-05)
(0.057246 0 -2.4053e-05)
(0.0550245 0 3.19212e-05)
(0.052337 0 0.000102335)
(0.0492206 0 0.000189639)
(0.0457079 0 0.000296381)
(0.0418398 0 0.000425822)
(0.00573957 0 -2.71407e-05)
(0.016453 0 -7.7845e-05)
(0.0257318 0 -0.000121913)
(0.0336858 0 -0.000159831)
(0.0404288 0 -0.000191951)
(0.0460654 0 -0.000218414)
(0.0506904 0 -0.000239172)
(0.0543898 0 -0.000253951)
(0.0572395 0 -0.00026238)
(0.0593063 0 -0.000263624)
(0.0606507 0 -0.00025687)
(0.0613252 0 -0.000241158)
(0.0613737 0 -0.000214653)
(0.0608388 0 -0.00017576)
(0.0597576 0 -0.000122427)
(0.0581643 0 -5.21941e-05)
(0.0560915 0 3.78385e-05)
(0.0535709 0 0.000151084)
(0.0506441 0 0.000291054)
(0.0473522 0 0.000461935)
(0.0437345 0 0.000668776)
(0.0057599 0 -3.81087e-05)
(0.0165139 0 -0.000109329)
(0.0258341 0 -0.000171291)
(0.0338315 0 -0.000224703)
(0.0406211 0 -0.000270082)
(0.0463083 0 -0.000307644)
(0.0509895 0 -0.000337363)
(0.0547526 0 -0.000358842)
(0.0576752 0 -0.000371745)
(0.0598246 0 -0.000374761)
(0.0612648 0 -0.000366864)
(0.0620477 0 -0.000346609)
(0.0622222 0 -0.000312092)
(0.0618329 0 -0.000260993)
(0.060919 0 -0.000190604)
(0.0595176 0 -9.77229e-05)
(0.0576644 0 2.13655e-05)
(0.0553951 0 0.000170891)
(0.0527486 0 0.000355458)
(0.0497743 0 0.000580466)
(0.0465197 0 0.000851718)
(0.00578681 0 -4.91728e-05)
(0.0165945 0 -0.000141111)
(0.0259692 0 -0.000221203)
(0.0340241 0 -0.000290403)
(0.0408752 0 -0.00034942)
(0.0466292 0 -0.000398557)
(0.0513838 0 -0.000437872)
(0.0552306 0 -0.000466743)
(0.0582464 0 -0.000484654)
(0.0605026 0 -0.000490595)
(0.0620666 0 -0.00048311)
(0.0629918 0 -0.000460333)
(0.0633313 0 -0.000420319)
(0.0631315 0 -0.000360247)
(0.0624353 0 -0.000276922)
(0.0612832 0 -0.000166628)
(0.0597148 0 -2.51103e-05)
(0.0577707 0 0.000152414)
(0.0554937 0 0.000371221)
(0.0529325 0 0.000637165)
(0.0501448 0 0.000956124)
(0.00582005 0 -6.03448e-05)
(0.0166939 0 -0.00017323)
(0.0261358 0 -0.00027172)
(0.0342621 0 -0.00035705)
(0.041189 0 -0.000430161)
(0.0470252 0 -0.000491427)
(0.0518666 0 -0.00054062)
(0.0558105 0 -0.000577675)
(0.0589408 0 -0.000601735)
(0.0613305 0 -0.000612112)
(0.063046 0 -0.000606955)
(0.0641481 0 -0.00058454)
(0.0646883 0 -0.000542157)
(0.0647191 0 -0.000477009)
(0.0642874 0 -0.000385665)
(0.063438 0 -0.000264154)
(0.0622155 0 -0.000107995)
(0.0606649 0 8.77546e-05)
(0.0588333 0 0.000328443)
(0.0567676 0 0.000619974)
(0.0545393 0 0.000967428)
(0.00585926 0 -7.16288e-05)
(0.016811 0 -0.0002057)
(0.0263321 0 -0.000322872)
(0.0345429 0 -0.000424701)
(0.0415594 0 -0.000512427)
(0.0474832 0 -0.000585982)
(0.052425 0 -0.000645743)
(0.0564889 0 -0.000692089)
(0.0597557 0 -0.00072406)
(0.0623007 0 -0.000740703)
(0.0641921 0 -0.000739969)
(0.0654934 0 -0.000720102)
(0.066264 0 -0.000678775)
(0.0665601 0 -0.000612943)
(0.0664323 0 -0.000519125)
(0.0659304 0 -0.000393364)
(0.0651042 0 -0.000231288)
(0.0640049 0 -2.82304e-05)
(0.0626868 0 0.00022052)
(0.0612028 0 0.000520438)
(0.0596133 0 0.000875902)
(0.00590397 0 -8.30215e-05)
(0.0169444 0 -0.000238512)
(0.0265552 0 -0.000374645)
(0.0348637 0 -0.00049334)
(0.041974 0 -0.000595861)
(0.0479964 0 -0.00068228)
(0.0530596 0 -0.000753886)
(0.0572598 0 -0.000810747)
(0.0606806 0 -0.000852037)
(0.0633947 0 -0.000876286)
(0.0654798 0 -0.00088225)
(0.0670032 0 -0.000867856)
(0.0680315 0 -0.000831303)
(0.068622 0 -0.000769503)
(0.0688303 0 -0.000679127)
(0.0687118 0 -0.000556497)
(0.0683219 0 -0.000397657)
(0.067718 0 -0.000198529)
(0.0669604 0 4.4853e-05)
(0.0661148 0 0.000336058)
(0.0652323 0 0.000678068)
(0.00595361 0 -9.45126e-05)
(0.0170921 0 -0.000271636)
(0.0268015 0 -0.00042699)
(0.0352136 0 -0.000562839)
(0.0424285 0 -0.000680473)
(0.0485657 0 -0.000780768)
(0.0537623 0 -0.000865076)
(0.0581131 0 -0.000933705)
(0.0616946 0 -0.000985261)
(0.0645919 0 -0.00101894)
(0.0668914 0 -0.00103409)
(0.0686614 0 -0.00102873)
(0.0699693 0 -0.0010009)
(0.070878 0 -0.000947989)
(0.0714485 0 -0.000867077)
(0.0717415 0 -0.00075502)
(0.0718183 0 -0.000608561)
(0.071742 0 -0.000424524)
(0.0715779 0 -0.000200105)
(0.071394 0 6.67147e-05)
(0.0712572 0 0.000376443)
(0.00600753 0 -0.000106085)
(0.0172523 0 -0.000305024)
(0.0270675 0 -0.000479833)
(0.0355896 0 -0.000633159)
(0.0429194 0 -0.000766502)
(0.0491827 0 -0.000881315)
(0.0545237 0 -0.000979153)
(0.0590295 0 -0.00106031)
(0.0627825 0 -0.0011236)
(0.0658828 0 -0.00116917)
(0.0684114 0 -0.00119603)
(0.070442 0 -0.00120268)
(0.0720453 0 -0.00118741)
(0.073289 0 -0.00114814)
(0.0742391 0 -0.00108254)
(0.0749615 0 -0.000988223)
(0.0755231 0 -0.000862867)
(0.0759922 0 -0.000704451)
(0.0764392 0 -0.000511583)
(0.0769363 0 -0.00028395)
(0.0775572 0 -2.29635e-05)
(0.00606506 0 -0.000117716)
(0.0174229 0 -0.000338609)
(0.02735 0 -0.000533073)
(0.0359876 0 -0.000704173)
(0.0434402 0 -0.000853728)
(0.0498381 0 -0.000983694)
(0.0553284 0 -0.0010958)
(0.0599971 0 -0.00119031)
(0.0639371 0 -0.0012673)
(0.067249 0 -0.00132659)
(0.0700164 0 -0.00136751)
(0.0723169 0 -0.00138905)
(0.0742251 0 -0.00138996)
(0.0758128 0 -0.00136875)
(0.0771507 0 -0.00132388)
(0.0783095 0 -0.00125386)
(0.0793608 0 -0.00115748)
(0.0803776 0 -0.00103405)
(0.0814348 0 -0.000883728)
(0.0826083 0 -0.000707941)
(0.0839742 0 -0.000509915)
(0.00612549 0 -0.000129376)
(0.0176018 0 -0.000372308)
(0.0276454 0 -0.000586573)
(0.0364026 0 -0.000775692)
(0.0439842 0 -0.000941864)
(0.0505233 0 -0.00108761)
(0.0561667 0 -0.00121472)
(0.0610059 0 -0.00132365)
(0.0651419 0 -0.00141581)
(0.0686708 0 -0.00149051)
(0.0716818 0 -0.00154763)
(0.0742565 0 -0.00158668)
(0.0764726 0 -0.00160698)
(0.0784057 0 -0.00160778)
(0.0801303 0 -0.00158836)
(0.081721 0 -0.00154827)
(0.0832534 0 -0.00148752)
(0.0848042 0 -0.00140682)
(0.0864515 0 -0.00130793)
(0.0882738 0 -0.00119398)
(0.0903487 0 -0.00106987)
(0.00618812 0 -0.00014103)
(0.0177869 0 -0.000406017)
(0.0279502 0 -0.000640165)
(0.036829 0 -0.000847467)
(0.0445442 0 -0.00103054)
(0.0512302 0 -0.00119271)
(0.0570275 0 -0.0013355)
(0.0620455 0 -0.00146017)
(0.0663811 0 -0.00156837)
(0.0701277 0 -0.00165994)
(0.0733828 0 -0.00173509)
(0.0762304 0 -0.0017939)
(0.0787511 0 -0.00183634)
(0.0810233 0 -0.0018624)
(0.0831243 0 -0.00187228)
(0.0851317 0 -0.00186659)
(0.0871236 0 -0.00184658)
(0.089179 0 -0.00181439)
(0.0913774 0 -0.0017733)
(0.0937984 0 -0.00172805)
(0.0965192 0 -0.00168501)
(0.00625223 0 -0.000152637)
(0.0179762 0 -0.000439622)
(0.028261 0 -0.000693661)
(0.0372602 0 -0.000919218)
(0.0451151 0 -0.00111973)
(0.051952 0 -0.00129857)
(0.0579048 0 -0.00145765)
(0.0631017 0 -0.00159906)
(0.0676325 0 -0.00172382)
(0.071599 0 -0.00183364)
(0.0750943 0 -0.0019283)
(0.0782088 0 -0.00200867)
(0.0810248 0 -0.00207539)
(0.0836226 0 -0.00212919)
(0.0860813 0 -0.00217117)
(0.0884798 0 -0.00220301)
(0.0908974 0 -0.00222712)
(0.0934134 0 -0.00224696)
(0.0961067 0 -0.00226724)
(0.0990552 0 -0.00229409)
(0.102333 0 -0.00233511)
(0.00631715 0 -0.000164152)
(0.0181676 0 -0.000472992)
(0.0285752 0 -0.000746859)
(0.0376985 0 -0.000990799)
(0.0456898 0 -0.00120899)
(0.0526732 0 -0.00140445)
(0.0587855 0 -0.00158036)
(0.0641565 0 -0.00173895)
(0.0688843 0 -0.00188154)
(0.0730657 0 -0.00201025)
(0.0767922 0 -0.00212542)
(0.0801629 0 -0.00222865)
(0.0832597 0 -0.0023211)
(0.0861632 0 -0.00240426)
(0.0889532 0 -0.00248005)
(0.0917086 0 -0.00255107)
(0.0945078 0 -0.00262083)
(0.0974282 0 -0.00269389)
(0.100546 0 -0.00277614)
(0.103934 0 -0.0028749)
(0.107659 0 -0.00299887)
(0.0288939 0 -0.000800286)
(0.0381431 0 -0.00106282)
(0.0462664 0 -0.00129877)
(0.053398 0 -0.00151164)
(0.0596752 0 -0.00170515)
(0.0652218 0 -0.00188173)
(0.070144 0 -0.00204331)
(0.0745309 0 -0.00219136)
(0.0784844 0 -0.00232818)
(0.0821019 0 -0.00245549)
(0.085465 0 -0.00257499)
(0.0886544 0 -0.0026888)
(0.091749 0 -0.0027996)
(0.0948259 0 -0.00291081)
(0.0979606 0 -0.00302676)
(0.101227 0 -0.00315292)
(0.104694 0 -0.00329601)
(0.108428 0 -0.0034642)
(0.112488 0 -0.00366709)
(0.0385911 0 -0.00113532)
(0.0468488 0 -0.00138938)
(0.0541298 0 -0.00162036)
(0.0605693 0 -0.00183202)
(0.0662894 0 -0.00202724)
(0.0713975 0 -0.00220834)
(0.0759881 0 -0.00237717)
(0.0801641 0 -0.0025368)
(0.0840169 0 -0.00268921)
(0.0876294 0 -0.00283667)
(0.0910812 0 -0.00298191)
(0.0944491 0 -0.00312819)
(0.0978067 0 -0.00327955)
(0.101225 0 -0.00344089)
(0.104769 0 -0.00361819)
(0.108503 0 -0.00381857)
(0.112479 0 -0.00405042)
(0.116745 0 -0.00432343)
(0.0474237 0 -0.00147956)
(0.0548497 0 -0.00172861)
(0.0614455 0 -0.00195853)
(0.0673327 0 -0.00217259)
(0.0726201 0 -0.00237355)
(0.0774063 0 -0.00256393)
(0.0817891 0 -0.00274666)
(0.0858581 0 -0.00292431)
(0.0896953 0 -0.00309965)
(0.0933781 0 -0.00327584)
(0.0969796 0 -0.0034566)
(0.100569 0 -0.0036463)
(0.104209 0 -0.00385013)
(0.107959 0 -0.00407416)
(0.111868 0 -0.00432543)
(0.115978 0 -0.00461186)
(0.120317 0 -0.00494224)
(0.0555468 0 -0.00183556)
(0.0622916 0 -0.00208365)
(0.0683375 0 -0.00231652)
(0.0737936 0 -0.00253732)
(0.0787596 0 -0.00274895)
(0.0833301 0 -0.00295449)
(0.0875921 0 -0.00315689)
(0.0916254 0 -0.00335927)
(0.0955042 0 -0.00356511)
(0.0992967 0 -0.00377833)
(0.103066 0 -0.00400347)
(0.106868 0 -0.00424569)
(0.110751 0 -0.00451085)
(0.114755 0 -0.00480549)
(0.118906 0 -0.00513673)
(0.123216 0 -0.00551207)
(0.0630955 0 -0.00220625)
(0.0692895 0 -0.00245763)
(0.0749016 0 -0.00269795)
(0.0800304 0 -0.00293031)
(0.084768 0 -0.003158)
(0.0891984 0 -0.00338423)
(0.0933983 0 -0.00361233)
(0.0974375 0 -0.00384594)
(0.101379 0 -0.00408904)
(0.10528 0 -0.0043461)
(0.109188 0 -0.00462203)
(0.113142 0 -0.00492225)
(0.117171 0 -0.00525253)
(0.121289 0 -0.00561897)
(0.125496 0 -0.00602772)
(0.0701754 0 -0.00259442)
(0.075929 0 -0.00285367)
(0.0812025 0 -0.00310593)
(0.0860857 0 -0.00335477)
(0.0906593 0 -0.00360353)
(0.094996 0 -0.00385561)
(0.0991613 0 -0.00411468)
(0.103213 0 -0.00438463)
(0.1072 0 -0.00466968)
(0.111165 0 -0.00497435)
(0.115136 0 -0.0053034)
(0.119135 0 -0.00566179)
(0.123166 0 -0.00605447)
(0.12722 0 -0.00648628)
(0.0822617 0 -0.00327372)
(0.0872685 0 -0.00354236)
(0.0919601 0 -0.00381201)
(0.0964049 0 -0.00408597)
(0.100664 0 -0.00436785)
(0.104789 0 -0.0046613)
(0.108824 0 -0.00497021)
(0.112802 0 -0.00529855)
(0.116749 0 -0.0056504)
(0.120676 0 -0.00602978)
(0.124582 0 -0.00644061)
(0.128456 0 -0.0068865)
(0.0883043 0 -0.0037183)
(0.0930897 0 -0.00400693)
(0.0976152 0 -0.00430039)
(0.101938 0 -0.0046022)
(0.106104 0 -0.00491565)
(0.110152 0 -0.00524421)
(0.114112 0 -0.00559129)
(0.118 0 -0.0059602)
(0.121826 0 -0.00635409)
(0.125585 0 -0.00677591)
(0.129265 0 -0.00722832)
(0.0986213 0 -0.00449603)
(0.102981 0 -0.00481476)
(0.10716 0 -0.00514461)
(0.111195 0 -0.0054887)
(0.115108 0 -0.00584984)
(0.118915 0 -0.00623055)
(0.122619 0 -0.00663313)
(0.126218 0 -0.00705963)
(0.129699 0 -0.00751173)
(0.107964 0 -0.00534556)
(0.111963 0 -0.00570116)
(0.115811 0 -0.00607207)
(0.119519 0 -0.00645985)
(0.123091 0 -0.00686607)
(0.126523 0 -0.00729186)
(0.129805 0 -0.007738)
(0.11247 0 -0.00587968)
(0.116241 0 -0.00625645)
(0.11984 0 -0.00664697)
(0.123274 0 -0.00705234)
(0.12654 0 -0.00747278)
(0.129626 0 -0.00790791)
(0.119898 0 -0.00679021)
(0.123194 0 -0.0071908)
(0.126297 0 -0.00760225)
(0.129203 0 -0.00802387)
(0.125831 0 -0.00768186)
(0.128571 0 -0.00808808)
)
;

boundaryField
{
    inlet
    {
        type            cellMotion;
        value           uniform (0 0 0);
    }
    outlet
    {
        type            cellMotion;
        value           nonuniform 0();
    }
    flap
    {
        type            cellMotion;
        value           nonuniform 0();
    }
    upperWall
    {
        type            slip;
    }
    lowerWall
    {
        type            slip;
    }
    frontAndBack
    {
        type            empty;
    }
    procBoundary3to0
    {
        type            processor;
        value           nonuniform List<vector> 
34
(
(0.00638288 0 -0.000175655)
(0.0183614 0 -0.00050637)
(0.0183614 0 -0.00050637)
(0.0292137 0 -0.000853816)
(0.0292137 0 -0.000853816)
(0.0390317 0 -0.00120712)
(0.0390317 0 -0.00120712)
(0.0479803 0 -0.0015683)
(0.0479803 0 -0.0015683)
(0.056209 0 -0.00193993)
(0.056209 0 -0.00193993)
(0.0638438 0 -0.0023247)
(0.0638438 0 -0.0023247)
(0.0709808 0 -0.00272487)
(0.0768609 0 -0.00300233)
(0.0768609 0 -0.00300233)
(0.0831941 0 -0.00343111)
(0.0831941 0 -0.00343111)
(0.0891821 0 -0.00387972)
(0.0940389 0 -0.00418537)
(0.0940389 0 -0.00418537)
(0.0994191 0 -0.00466977)
(0.103793 0 -0.00500255)
(0.103793 0 -0.00500255)
(0.108523 0 -0.00551572)
(0.108523 0 -0.00551572)
(0.112734 0 -0.00602197)
(0.116413 0 -0.0064007)
(0.116413 0 -0.0064007)
(0.119717 0 -0.00688841)
(0.122878 0 -0.0072816)
(0.122878 0 -0.0072816)
(0.125166 0 -0.00771183)
(0.127757 0 -0.00810157)
)
;
    }
    procBoundary3to1
    {
        type            processor;
        value           nonuniform List<vector> 9((0.129771 0 -0.00648484) (0.131272 0 -0.00696174) (0.132271 0 -0.00737105) (0.132835 0 -0.00771272) (0.133028 0 -0.00798857) (0.132906 0 -0.00820202) (0.132513 0 -0.0083557) (0.131897 0 -0.00845367) (0.131091 0 -0.0084984));
    }
    procBoundary3to4
    {
        type            processor;
        value           nonuniform List<vector> 
19
(
(0.0365613 0 0.000198918)
(0.0376667 0 0.000581479)
(0.0398478 0 0.000916699)
(0.0430449 0 0.00117522)
(0.0471957 0 0.00133382)
(0.0522139 0 0.00137533)
(0.0579888 0 0.00128931)
(0.064384 0 0.00107224)
(0.0712448 0 0.000728057)
(0.078381 0 0.000267307)
(0.0856066 0 -0.000295295)
(0.0927503 0 -0.000942659)
(0.0996138 0 -0.00165239)
(0.106008 0 -0.00239907)
(0.111793 0 -0.00315816)
(0.11694 0 -0.00391668)
(0.121337 0 -0.00464878)
(0.124894 0 -0.0053258)
(0.127676 0 -0.00593919)
)
;
    }
}


// ************************************************************************* //
