/*--------------------------------*- C++ -*----------------------------------*\
| =========                 |                                                 |
| \\      /  F ield         | OpenFOAM: The Open Source CFD Toolbox           |
|  \\    /   O peration     | Version:  dev                                   |
|   \\  /    A nd           | Web:      www.OpenFOAM.org                      |
|    \\/     M anipulation  |                                                 |
\*---------------------------------------------------------------------------*/
FoamFile
{
    version     2.0;
    format      ascii;
    class       volVectorField;
    location    "2.85";
    object      cellDisplacement;
}
// * * * * * * * * * * * * * * * * * * * * * * * * * * * * * * * * * * * * * //

dimensions      [0 1 0 0 0 0 0];

internalField   nonuniform List<vector> 
465
(
(0.15369 0 -0.00269888)
(0.1616 0 -0.00255838)
(0.167514 0 -0.00240153)
(0.171558 0 -0.00224362)
(0.173866 0 -0.00208274)
(0.174527 0 -0.00193501)
(0.173609 0 -0.00178163)
(0.171155 0 -0.00163989)
(0.167185 0 -0.0015099)
(0.161688 0 -0.00137875)
(0.154651 0 -0.00124568)
(0.14604 0 -0.00112027)
(0.135786 0 -0.000997854)
(0.123834 0 -0.000876852)
(0.110125 0 -0.00075614)
(0.0945934 0 -0.000633786)
(0.0771533 0 -0.000506822)
(0.0577116 0 -0.000373732)
(0.0361859 0 -0.000232439)
(0.0124483 0 -7.99126e-05)
(0.15544 0 -0.00797273)
(0.163034 0 -0.00754907)
(0.168676 0 -0.00708341)
(0.172506 0 -0.00662063)
(0.174645 0 -0.00616367)
(0.175166 0 -0.00571756)
(0.174134 0 -0.00527684)
(0.171583 0 -0.00485953)
(0.167538 0 -0.00446692)
(0.161989 0 -0.00408039)
(0.154904 0 -0.00369624)
(0.146246 0 -0.00332655)
(0.135954 0 -0.00296435)
(0.123971 0 -0.00260574)
(0.110234 0 -0.00224791)
(0.0946834 0 -0.00188516)
(0.0772285 0 -0.00150776)
(0.0577693 0 -0.00111201)
(0.0362242 0 -0.00069171)
(0.0124626 0 -0.000237837)
(0.158782 0 -0.0129768)
(0.165773 0 -0.0122711)
(0.17091 0 -0.0115241)
(0.174337 0 -0.0107785)
(0.176145 0 -0.0100488)
(0.176395 0 -0.00932615)
(0.175145 0 -0.00862552)
(0.172414 0 -0.00795026)
(0.168222 0 -0.00730264)
(0.162559 0 -0.00667434)
(0.155378 0 -0.00605878)
(0.146636 0 -0.00545791)
(0.136275 0 -0.00486664)
(0.124228 0 -0.00427973)
(0.110437 0 -0.00369425)
(0.0948496 0 -0.00309506)
(0.0773689 0 -0.00247562)
(0.0578761 0 -0.00182617)
(0.0362941 0 -0.00113618)
(0.0124885 0 -0.000390709)
(0.163525 0 -0.0176762)
(0.169667 0 -0.0167076)
(0.174108 0 -0.0157105)
(0.176961 0 -0.0147072)
(0.178293 0 -0.0137157)
(0.178163 0 -0.0127496)
(0.1766 0 -0.0118082)
(0.173611 0 -0.0108942)
(0.16921 0 -0.0100114)
(0.163377 0 -0.00915658)
(0.156056 0 -0.00832111)
(0.147197 0 -0.00750212)
(0.136736 0 -0.00669364)
(0.124596 0 -0.00588831)
(0.110744 0 -0.00508261)
(0.095111 0 -0.00425701)
(0.0775708 0 -0.003405)
(0.0580262 0 -0.0025122)
(0.0363908 0 -0.0015633)
(0.0125235 0 -0.000537631)
(0.169424 0 -0.0220507)
(0.17453 0 -0.0208467)
(0.178117 0 -0.0196207)
(0.180259 0 -0.0183853)
(0.180999 0 -0.0171558)
(0.180395 0 -0.0159695)
(0.17844 0 -0.0148082)
(0.175129 0 -0.0136755)
(0.170463 0 -0.0125768)
(0.164413 0 -0.0115124)
(0.156914 0 -0.0104714)
(0.147907 0 -0.00944841)
(0.137322 0 -0.00843582)
(0.125075 0 -0.00742403)
(0.111138 0 -0.00640653)
(0.0954353 0 -0.00536895)
(0.0778244 0 -0.00429555)
(0.0582134 0 -0.00316999)
(0.0365101 0 -0.00197299)
(0.0125663 0 -0.000678569)
(0.176207 0 -0.0260838)
(0.18014 0 -0.0246655)
(0.182765 0 -0.0232375)
(0.184097 0 -0.0217981)
(0.184165 0 -0.0203621)
(0.183007 0 -0.0189713)
(0.180599 0 -0.0176115)
(0.176913 0 -0.0162812)
(0.171936 0 -0.0149857)
(0.165632 0 -0.0137298)
(0.157924 0 -0.0124994)
(0.148744 0 -0.0112875)
(0.138014 0 -0.0100851)
(0.125647 0 -0.00888038)
(0.111607 0 -0.00766475)
(0.0958142 0 -0.00642588)
(0.0781197 0 -0.0051428)
(0.0584299 0 -0.00379621)
(0.036647 0 -0.00236319)
(0.0126149 0 -0.000812792)
(0.183591 0 -0.0297645)
(0.186286 0 -0.028161)
(0.187869 0 -0.026548)
(0.188329 0 -0.0249305)
(0.187673 0 -0.0233202)
(0.185906 0 -0.0217445)
(0.183 0 -0.0202071)
(0.178904 0 -0.0187008)
(0.17358 0 -0.0172264)
(0.166994 0 -0.0157987)
(0.159054 0 -0.0143961)
(0.14968 0 -0.0130113)
(0.138791 0 -0.0116344)
(0.126292 0 -0.0102517)
(0.112136 0 -0.00885077)
(0.0962356 0 -0.00742292)
(0.0784459 0 -0.00594279)
(0.0586674 0 -0.00438793)
(0.0367958 0 -0.00273204)
(0.0126671 0 -0.000939646)
(0.191293 0 -0.0330788)
(0.192735 0 -0.0313208)
(0.193238 0 -0.0295441)
(0.192798 0 -0.0277718)
(0.191391 0 -0.0260093)
(0.188993 0 -0.0242768)
(0.185566 0 -0.0225855)
(0.18104 0 -0.0209273)
(0.175352 0 -0.0192986)
(0.168456 0 -0.0177114)
(0.160268 0 -0.0161542)
(0.150687 0 -0.0146134)
(0.139626 0 -0.0130779)
(0.126995 0 -0.0115337)
(0.112714 0 -0.00996477)
(0.0966883 0 -0.00836059)
(0.0787941 0 -0.0066961)
(0.0589193 0 -0.00494562)
(0.0369526 0 -0.00307983)
(0.0127216 0 -0.00105924)
(0.199036 0 -0.0360163)
(0.19924 0 -0.0341251)
(0.198684 0 -0.0322152)
(0.197355 0 -0.0303145)
(0.1952 0 -0.0284253)
(0.192167 0 -0.0265606)
(0.188213 0 -0.0247392)
(0.183251 0 -0.0229522)
(0.177203 0 -0.021197)
(0.169994 0 -0.0194724)
(0.16154 0 -0.0177771)
(0.151741 0 -0.0160968)
(0.1405 0 -0.0144185)
(0.12772 0 -0.0127273)
(0.113307 0 -0.0110068)
(0.0971579 0 -0.0092404)
(0.0791546 0 -0.00740409)
(0.059179 0 -0.0054703)
(0.0371134 0 -0.00340721)
(0.0127773 0 -0.00117182)
(0.206563 0 -0.0385699)
(0.205597 0 -0.0365722)
(0.204033 0 -0.0345563)
(0.201856 0 -0.0325542)
(0.198987 0 -0.0305671)
(0.195349 0 -0.0286019)
(0.190881 0 -0.026675)
(0.185487 0 -0.0247818)
(0.179077 0 -0.0229193)
(0.171559 0 -0.0210838)
(0.162841 0 -0.0192703)
(0.152819 0 -0.0174671)
(0.141391 0 -0.0156609)
(0.128454 0 -0.0138364)
(0.113903 0 -0.0119762)
(0.0976308 0 -0.0100607)
(0.0795166 0 -0.00806519)
(0.0594385 0 -0.00596069)
(0.0372731 0 -0.00371332)
(0.0128325 0 -0.00127705)
(0.213647 0 -0.040735)
(0.211624 0 -0.0386633)
(0.209155 0 -0.0365773)
(0.2062 0 -0.0345028)
(0.202669 0 -0.032445)
(0.19847 0 -0.0304096)
(0.193515 0 -0.028404)
(0.187705 0 -0.0264275)
(0.180939 0 -0.0244769)
(0.173117 0 -0.0225478)
(0.164138 0 -0.0206337)
(0.153894 0 -0.0187235)
(0.142277 0 -0.0168042)
(0.12918 0 -0.0148599)
(0.114491 0 -0.0128723)
(0.0980947 0 -0.0108204)
(0.07987 0 -0.00867834)
(0.0596904 0 -0.0064159)
(0.037427 0 -0.00399755)
(0.0128852 0 -0.00137472)
(0.220145 0 -0.0425256)
(0.217209 0 -0.040413)
(0.213958 0 -0.0382925)
(0.210316 0 -0.0361783)
(0.206186 0 -0.034077)
(0.201468 0 -0.0319937)
(0.19606 0 -0.0299325)
(0.189856 0 -0.0278931)
(0.182751 0 -0.025873)
(0.174636 0 -0.0238672)
(0.165403 0 -0.0218686)
(0.154942 0 -0.0198667)
(0.143139 0 -0.0178482)
(0.129882 0 -0.0157972)
(0.115055 0 -0.0136949)
(0.0985381 0 -0.0115189)
(0.0802058 0 -0.00924291)
(0.0599279 0 -0.00683537)
(0.037571 0 -0.0042595)
(0.0129342 0 -0.00146468)
(0.225984 0 -0.0439645)
(0.222292 0 -0.0418471)
(0.218373 0 -0.0397209)
(0.214136 0 -0.0375946)
(0.209477 0 -0.0354743)
(0.204291 0 -0.0333645)
(0.198469 0 -0.0312679)
(0.191902 0 -0.0291845)
(0.184477 0 -0.0271119)
(0.176084 0 -0.0250454)
(0.16661 0 -0.0229774)
(0.155939 0 -0.0208979)
(0.143957 0 -0.0187937)
(0.130545 0 -0.0166488)
(0.115584 0 -0.0144439)
(0.0989507 0 -0.0121563)
(0.0805155 0 -0.00975869)
(0.0601449 0 -0.00721886)
(0.0377011 0 -0.00449898)
(0.0129781 0 -0.00154686)
(0.231116 0 -0.0450761)
(0.226819 0 -0.0429867)
(0.222349 0 -0.0408815)
(0.217609 0 -0.0387674)
(0.212494 0 -0.0366498)
(0.206896 0 -0.0345329)
(0.200704 0 -0.0324191)
(0.193806 0 -0.0303086)
(0.186088 0 -0.0281992)
(0.177437 0 -0.0260865)
(0.167735 0 -0.0239632)
(0.156867 0 -0.0218194)
(0.144714 0 -0.0196422)
(0.131155 0 -0.0174156)
(0.116067 0 -0.0151202)
(0.0993229 0 -0.0127328)
(0.0807917 0 -0.0102258)
(0.0603359 0 -0.00756637)
(0.0378141 0 -0.00471597)
(0.0130157 0 -0.00162125)
(0.235526 0 -0.0458882)
(0.230763 0 -0.043855)
(0.225854 0 -0.0417947)
(0.220702 0 -0.0397137)
(0.215202 0 -0.0376175)
(0.209249 0 -0.0355106)
(0.202733 0 -0.0333955)
(0.19554 0 -0.0312728)
(0.187558 0 -0.0291408)
(0.17867 0 -0.0269953)
(0.16876 0 -0.0248295)
(0.157708 0 -0.0226338)
(0.145395 0 -0.0203956)
(0.131698 0 -0.0180989)
(0.116492 0 -0.0157246)
(0.0996461 0 -0.0132491)
(0.0810275 0 -0.0106447)
(0.0604958 0 -0.00787817)
(0.0379068 0 -0.00491059)
(0.0130459 0 -0.0016879)
(0.244342 0 -0.0483457)
(0.239292 0 -0.0464437)
(0.234183 0 -0.0444908)
(0.228933 0 -0.0424961)
(0.223446 0 -0.0404664)
(0.217625 0 -0.0384079)
(0.211368 0 -0.0363259)
(0.204568 0 -0.0342234)
(0.197113 0 -0.0321016)
(0.188891 0 -0.0299593)
(0.179787 0 -0.0277926)
(0.169684 0 -0.0255954)
(0.158462 0 -0.0233584)
(0.146 0 -0.0210693)
(0.132174 0 -0.0187125)
(0.116858 0 -0.0162689)
(0.0999187 0 -0.0137152)
(0.0812214 0 -0.0110233)
(0.0606235 0 -0.0081601)
(0.0379783 0 -0.0050865)
(0.0130686 0 -0.00174805)
(0.247676 0 -0.0485408)
(0.242426 0 -0.0467619)
(0.23708 0 -0.0449092)
(0.231579 0 -0.0429987)
(0.225831 0 -0.0410363)
(0.219749 0 -0.0390303)
(0.213238 0 -0.0369869)
(0.206193 0 -0.03491)
(0.198508 0 -0.0328012)
(0.190073 0 -0.03066)
(0.180774 0 -0.0284833)
(0.170494 0 -0.0262651)
(0.159116 0 -0.0239967)
(0.146516 0 -0.0216665)
(0.132572 0 -0.019259)
(0.117155 0 -0.0167555)
(0.100132 0 -0.0141328)
(0.0813661 0 -0.0113631)
(0.0607134 0 -0.0084132)
(0.0380252 0 -0.00524429)
(0.0130823 0 -0.00180191)
(0.239394 0 -0.0451179)
(0.233738 0 -0.043307)
(0.227808 0 -0.0414258)
(0.221526 0 -0.0394839)
(0.214811 0 -0.0374907)
(0.207564 0 -0.0354504)
(0.199685 0 -0.0333657)
(0.191066 0 -0.0312364)
(0.181597 0 -0.0290599)
(0.171162 0 -0.026831)
(0.159644 0 -0.0245413)
(0.146922 0 -0.0221798)
(0.132873 0 -0.0197315)
(0.117367 0 -0.017178)
(0.100273 0 -0.0144965)
(0.0814517 0 -0.0116594)
(0.0607581 0 -0.008634)
(0.0380428 0 -0.0053818)
(0.0130857 0 -0.00184874)
(0.229331 0 -0.0416366)
(0.222925 0 -0.0397733)
(0.216063 0 -0.0378417)
(0.208657 0 -0.0358473)
(0.20062 0 -0.0337962)
(0.191848 0 -0.0316883)
(0.182235 0 -0.0295218)
(0.171666 0 -0.0272916)
(0.160028 0 -0.0249902)
(0.147201 0 -0.0226069)
(0.133062 0 -0.0201276)
(0.117483 0 -0.0175341)
(0.100332 0 -0.0148041)
(0.08147 0 -0.0119105)
(0.0607519 0 -0.00882116)
(0.0380277 0 -0.00549816)
(0.0130775 0 -0.00188823)
(0.223907 0 -0.0398994)
(0.216951 0 -0.0380377)
(0.209445 0 -0.0361023)
(0.201293 0 -0.0340948)
(0.192398 0 -0.0320165)
(0.182669 0 -0.0298687)
(0.171989 0 -0.027646)
(0.160251 0 -0.0253419)
(0.147337 0 -0.0229463)
(0.133125 0 -0.0204455)
(0.11749 0 -0.017822)
(0.100299 0 -0.015054)
(0.0814134 0 -0.012115)
(0.060689 0 -0.00897351)
(0.0379763 0 -0.00559266)
(0.0130564 0 -0.00192015)
(0.209889 0 -0.0362136)
(0.201661 0 -0.0342574)
(0.192695 0 -0.032221)
(0.182884 0 -0.0301017)
(0.172116 0 -0.027894)
(0.160298 0 -0.0255955)
(0.147317 0 -0.0231965)
(0.133052 0 -0.0206837)
(0.117379 0 -0.0180402)
(0.100165 0 -0.0152447)
(0.0812751 0 -0.0122716)
(0.0605645 0 -0.00909015)
(0.0378856 0 -0.00566469)
(0.0130216 0 -0.0019443)
(0.192701 0 -0.0322986)
(0.182843 0 -0.0302162)
(0.172031 0 -0.0280358)
(0.160156 0 -0.0257507)
(0.147128 0 -0.0233568)
(0.13283 0 -0.0208412)
(0.117139 0 -0.0181876)
(0.0999236 0 -0.0153752)
(0.081049 0 -0.0123793)
(0.0603742 0 -0.00917035)
(0.0377529 0 -0.00571382)
(0.012972 0 -0.00196053)
(0.18253 0 -0.0302129)
(0.171704 0 -0.0280672)
(0.159816 0 -0.0258078)
(0.146761 0 -0.0234267)
(0.132451 0 -0.0209174)
(0.116764 0 -0.0182637)
(0.0995678 0 -0.015445)
(0.0807306 0 -0.0124377)
(0.0601144 0 -0.00921363)
(0.0375762 0 -0.00573975)
(0.0129072 0 -0.00196876)
(0.159246 0 -0.0257624)
(0.146208 0 -0.0234064)
(0.131908 0 -0.0209122)
(0.11625 0 -0.0182683)
(0.0990938 0 -0.0154536)
(0.0803162 0 -0.0124464)
(0.0597827 0 -0.00921974)
(0.037354 0 -0.00574231)
(0.0128265 0 -0.00196893)
(0.145431 0 -0.0232903)
(0.131199 0 -0.0208258)
(0.115599 0 -0.0182024)
(0.0985 0 -0.0154012)
(0.0798039 0 -0.0124053)
(0.0593777 0 -0.00918859)
(0.0370854 0 -0.00572147)
(0.0127297 0 -0.00196104)
(0.114774 0 -0.0180606)
(0.0977856 0 -0.0152881)
(0.0791933 0 -0.0123145)
(0.0588991 0 -0.00912028)
(0.0367706 0 -0.00567734)
(0.012617 0 -0.00194514)
(0.0969177 0 -0.0151092)
(0.0784871 0 -0.0121747)
(0.0583481 0 -0.00901516)
(0.0364102 0 -0.00561011)
(0.0124886 0 -0.00192133)
(0.0577301 0 -0.0088741)
(0.0360068 0 -0.0055202)
(0.0123455 0 -0.00188972)
(0.0355664 0 -0.0054085)
(0.0121893 0 -0.00185061)
(0.0120249 0 -0.00180468)
)
;

boundaryField
{
    inlet
    {
        type            cellMotion;
        value           nonuniform 0();
    }
    outlet
    {
        type            cellMotion;
        value           uniform (0 0 0);
    }
    flap
    {
        type            cellMotion;
        value           nonuniform 0();
    }
    upperWall
    {
        type            slip;
    }
    lowerWall
    {
        type            slip;
    }
    frontAndBack
    {
        type            empty;
    }
    procBoundary5to2
    {
        type            processor;
        value           nonuniform List<vector> 
34
(
(0.250186 0 -0.0484914)
(0.244861 0 -0.0468514)
(0.244861 0 -0.0468514)
(0.241107 0 -0.0451302)
(0.235368 0 -0.0434257)
(0.235368 0 -0.0434257)
(0.230394 0 -0.0416806)
(0.230394 0 -0.0416806)
(0.22448 0 -0.0398748)
(0.217468 0 -0.0380873)
(0.217468 0 -0.0380873)
(0.209996 0 -0.0361899)
(0.201721 0 -0.0342896)
(0.201721 0 -0.0342896)
(0.19242 0 -0.0322547)
(0.19242 0 -0.0322547)
(0.181951 0 -0.030096)
(0.171116 0 -0.0279879)
(0.171116 0 -0.0279879)
(0.158429 0 -0.0256134)
(0.158429 0 -0.0256134)
(0.144451 0 -0.0230828)
(0.130279 0 -0.0206514)
(0.130279 0 -0.0206514)
(0.113764 0 -0.0178411)
(0.113764 0 -0.0178411)
(0.0958888 0 -0.0148633)
(0.0776494 0 -0.0119802)
(0.0776494 0 -0.0119802)
(0.0570061 0 -0.00869087)
(0.0570061 0 -0.00869087)
(0.0350483 0 -0.00526866)
(0.0350483 0 -0.00526866)
(0.0118061 0 -0.0017449)
)
;
    }
    procBoundary5to4
    {
        type            processor;
        value           nonuniform List<vector> 
18
(
(0.143656 0 -0.00283585)
(0.145777 0 -0.00839134)
(0.149842 0 -0.0136597)
(0.155585 0 -0.0185937)
(0.162705 0 -0.0231881)
(0.17086 0 -0.0274243)
(0.179699 0 -0.0312884)
(0.188877 0 -0.0347675)
(0.198065 0 -0.037849)
(0.206957 0 -0.0405215)
(0.215279 0 -0.0427758)
(0.222838 0 -0.0446181)
(0.229533 0 -0.0460642)
(0.23533 0 -0.0471429)
(0.24023 0 -0.0478872)
(0.24023 0 -0.0478872)
(0.249392 0 -0.0501857)
(0.252883 0 -0.0502315)
)
;
    }
}


// ************************************************************************* //
