/*--------------------------------*- C++ -*----------------------------------*\
| =========                 |                                                 |
| \\      /  F ield         | OpenFOAM: The Open Source CFD Toolbox           |
|  \\    /   O peration     | Version:  dev                                   |
|   \\  /    A nd           | Web:      www.OpenFOAM.org                      |
|    \\/     M anipulation  |                                                 |
\*---------------------------------------------------------------------------*/
FoamFile
{
    version     2.0;
    format      ascii;
    class       volScalarField;
    location    "2.85";
    object      p;
}
// * * * * * * * * * * * * * * * * * * * * * * * * * * * * * * * * * * * * * //

dimensions      [0 2 -2 0 0 0 0];

internalField   nonuniform List<scalar> 
465
(
-0.539825
-0.735658
-0.913336
-1.06899
-1.19957
-1.30297
-1.37676
-1.41719
-1.42062
-1.38676
-1.31962
-1.22491
-1.10687
-0.967658
-0.810303
-0.641783
-0.470969
-0.306622
-0.158599
-0.0365129
-0.550143
-0.746678
-0.925296
-1.08164
-1.21261
-1.31667
-1.39172
-1.43331
-1.43643
-1.4005
-1.33057
-1.2336
-1.11418
-0.973954
-0.814784
-0.644235
-0.472501
-0.308162
-0.161451
-0.0425461
-0.571116
-0.769508
-0.950323
-1.10807
-1.23961
-1.34492
-1.42265
-1.46653
-1.46912
-1.4294
-1.35426
-1.25292
-1.13121
-0.990092
-0.830971
-0.660069
-0.486935
-0.320568
-0.171246
-0.050575
-0.602206
-0.804454
-0.989164
-1.1492
-1.28149
-1.38864
-1.47049
-1.51843
-1.5227
-1.48193
-1.40371
-1.29808
-1.17165
-1.02648
-0.864688
-0.69235
-0.517658
-0.34888
-0.195766
-0.0636643
-0.644934
-0.855202
-1.04682
-1.21216
-1.34798
-1.45693
-1.5394
-1.58801
-1.59381
-1.55481
-1.47692
-1.36912
-1.23849
-1.08867
-0.923024
-0.746917
-0.567772
-0.39389
-0.232115
-0.0790243
-0.704852
-0.924877
-1.12426
-1.29662
-1.43869
-1.5516
-1.63513
-1.68356
-1.68994
-1.65232
-1.57489
-1.46508
-1.32997
-1.17453
-1.00318
-0.820692
-0.634378
-0.452445
-0.276961
-0.0960938
-0.787216
-1.01929
-1.22747
-1.40719
-1.55586
-1.67339
-1.75868
-1.80722
-1.81377
-1.77667
-1.69891
-1.58654
-1.44633
-1.28398
-1.10467
-0.913123
-0.7168
-0.523273
-0.328974
-0.114878
-0.897785
-1.14258
-1.35988
-1.5469
-1.70172
-1.82346
-1.91063
-1.95961
-1.96624
-1.9289
-1.84975
-1.73383
-1.58741
-1.41649
-1.22665
-1.02339
-0.814165
-0.605226
-0.387317
-0.135382
-1.0419
-1.29814
-1.52366
-1.71717
-1.87742
-2.00306
-2.09219
-2.14178
-2.1483
-2.10996
-2.02829
-1.90756
-1.75345
-1.57186
-1.36867
-1.15101
-0.92597
-0.697601
-0.451608
-0.15759
-1.22379
-1.48861
-1.72044
-1.91919
-2.08406
-2.2133
-2.30451
-2.35478
-2.36087
-2.3208
-2.23545
-2.10843
-1.94491
-1.75055
-1.53145
-1.29551
-1.05091
-0.799791
-0.5216
-0.181487
-1.44619
-1.71564
-1.95127
-2.15376
-2.32238
-2.45494
-2.54842
-2.5995
-2.60489
-2.56235
-2.47213
-2.3372
-2.16229
-1.95278
-1.71469
-1.45652
-1.18865
-0.911439
-0.597163
-0.207041
-1.71007
-1.97953
-2.21616
-2.4209
-2.59261
-2.72841
-2.82443
-2.87661
-2.88115
-2.8354
-2.73901
-2.59438
-2.40587
-2.17868
-1.91868
-1.63473
-1.3388
-1.03142
-0.678114
-0.234117
-2.01383
-2.27856
-2.51358
-2.71942
-2.89404
-3.03342
-3.13254
-3.18627
-3.18996
-3.1403
-3.03635
-2.88002
-2.67552
-2.42805
-2.14331
-1.82997
-1.50095
-1.15824
-0.762764
-0.262427
-2.35239
-2.60819
-2.83976
-3.04644
-3.22462
-3.36855
-3.47172
-3.52767
-3.53058
-3.47624
-3.36307
-3.19268
-2.96942
-2.69881
-2.3865
-2.04033
-1.67285
-1.28761
-0.845847
-0.291306
-2.71633
-2.96023
-3.18784
-3.39641
-3.57982
-3.7299
-3.8384
-3.89725
-3.89915
-3.83876
-3.71391
-3.52618
-3.28043
-2.98314
-2.64034
-2.25855
-1.84845
-1.4152
-0.924732
-0.320042
-2.85984
-3.09648
-3.32761
-3.55287
-3.76626
-3.95817
-4.11681
-4.23221
-4.29472
-4.29524
-4.22693
-4.08696
-3.87721
-3.60379
-3.27508
-2.89858
-2.47958
-2.02536
-1.54225
-1.00365
-0.348072
-3.29277
-3.49133
-3.70661
-3.93104
-4.15266
-4.35706
-4.52612
-4.64933
-4.71557
-4.71339
-4.63397
-4.47383
-4.23573
-3.92795
-3.56191
-3.14786
-2.69082
-2.19335
-1.66025
-1.07447
-0.374605
-4.00881
-4.27007
-4.52581
-4.75736
-4.94175
-5.07518
-5.14623
-5.14077
-5.04725
-4.86142
-4.58755
-4.23719
-3.82623
-3.36932
-2.87344
-2.33686
-1.75634
-1.12037
-0.396251
-4.75703
-5.03277
-5.25662
-5.41904
-5.5077
-5.50692
-5.40363
-5.19417
-4.88538
-4.49257
-4.03601
-3.53519
-3.0014
-2.43304
-1.81739
-1.13475
-0.402898
-5.01157
-5.30322
-5.51582
-5.64127
-5.6644
-5.57135
-5.35895
-5.03502
-4.61619
-4.12549
-3.58724
-3.01909
-2.42578
-1.79729
-1.11622
-0.430498
-5.06446
-5.28141
-5.37033
-5.32629
-5.1516
-4.85697
-4.46009
-3.98431
-3.45531
-2.8934
-2.3059
-1.68931
-1.0457
-0.457192
-4.46285
-4.53218
-4.45917
-4.25651
-3.94254
-3.54071
-3.07716
-2.57342
-2.04201
-1.49114
-0.939298
-0.477624
-3.20738
-3.28786
-3.23114
-3.05616
-2.78568
-2.44543
-2.05815
-1.64054
-1.20895
-0.789499
-0.463006
-1.85743
-1.86563
-1.77184
-1.60063
-1.37561
-1.11618
-0.842703
-0.582292
-0.39995
-0.450975
-0.562962
-0.59184
-0.560515
-0.48958
-0.400547
-0.318335
-0.293531
0.525543
0.34601
0.211332
0.100528
-0.00842804
-0.154761
1.30442
0.957683
0.640289
0.332728
0.00415533
1.19898
0.690214
0.172116
1.05168
0.340905
0.505649
)
;

boundaryField
{
    inlet
    {
        type            zeroGradient;
    }
    outlet
    {
        type            fixedValue;
        value           uniform 0;
    }
    flap
    {
        type            zeroGradient;
    }
    upperWall
    {
        type            zeroGradient;
    }
    lowerWall
    {
        type            zeroGradient;
    }
    frontAndBack
    {
        type            empty;
    }
    procBoundary5to2
    {
        type            processor;
        value           nonuniform List<scalar> 
34
(
-3.46542
-3.73859
-3.73859
-4.12791
-4.44825
-4.44825
-4.64381
-4.64381
-4.27747
-4.72809
-4.72809
-3.87991
-4.24561
-4.24561
-2.975
-2.975
-1.45189
-1.72574
-1.72574
-0.233074
-0.233074
1.10146
0.770272
0.770272
1.70004
1.70004
2.28087
1.72334
1.72334
1.76028
1.76028
1.40832
1.40832
0.663894
)
;
    }
    procBoundary5to4
    {
        type            processor;
        value           nonuniform List<scalar> 
18
(
-0.329446
-0.339527
-0.359304
-0.386883
-0.421362
-0.468884
-0.534972
-0.627864
-0.755735
-0.92505
-1.14048
-1.4043
-1.71559
-2.06905
-2.45412
-2.45412
-2.60863
-3.10087
)
;
    }
}


// ************************************************************************* //
