/*--------------------------------*- C++ -*----------------------------------*\
| =========                 |                                                 |
| \\      /  F ield         | OpenFOAM: The Open Source CFD Toolbox           |
|  \\    /   O peration     | Version:  dev                                   |
|   \\  /    A nd           | Web:      www.OpenFOAM.org                      |
|    \\/     M anipulation  |                                                 |
\*---------------------------------------------------------------------------*/
FoamFile
{
    version     2.0;
    format      ascii;
    class       volVectorField;
    location    "1.87";
    object      Force;
}
// * * * * * * * * * * * * * * * * * * * * * * * * * * * * * * * * * * * * * //

dimensions      [1 1 -2 0 0 0 0];

internalField   uniform (0 0 0);

boundaryField
{
    inlet
    {
        type            calculated;
        value           uniform (0 0 0);
    }
    outlet
    {
        type            calculated;
        value           uniform (0 0 0);
    }
    flap
    {
        type            calculated;
        value           nonuniform List<vector> 
33
(
(2.43669 -1.05736e-21 -0.21522)
(2.37217 -6.02046e-18 -0.51132)
(2.21821 4.68373e-22 -0.776042)
(1.99072 0 -0.947757)
(1.73248 -1.88079e-37 -1.03109)
(1.47928 9.31252e-18 -1.04584)
(1.25111 5.64237e-37 -1.0145)
(1.05599 -1.80681e-17 -0.955767)
(0.891723 4.70198e-38 -0.881893)
(0.753419 1.69987e-17 -0.7995)
(0.636239 1.07111e-22 -0.712016)
(0.533295 -4.37791e-18 -0.619043)
(0.436267 3.6436e-18 -0.517113)
(0.33527 4.70198e-38 -0.399407)
(0.21625 1.1077e-17 -0.256598)
(0.646755 2.21354e-18 0.530651)
(0.425119 0 0.34743)
(0.203396 -8.49733e-18 0.167754)
(0.0664549 -9.18355e-41 -0.00598691)
(0.0659118 1.97346e-23 -0.0143652)
(0.064703 -2.16904e-23 -0.0229232)
(0.0629491 2.05229e-19 -0.030249)
(0.0609069 2.06068e-19 -0.0365975)
(0.0588123 -4.4081e-39 -0.0420019)
(0.0568416 -4.29644e-22 -0.0465716)
(0.0550355 -4.19593e-19 -0.0503988)
(0.0534433 -1.44848e-17 -0.0535673)
(0.0520708 7.23057e-22 -0.0561124)
(0.0508569 1.48701e-17 -0.0579419)
(0.0499095 4.23915e-19 -0.0591218)
(0.0495101 1.35106e-22 -0.0600691)
(0.0498801 2.06722e-17 -0.0604035)
(0.0575459 -1.76324e-38 -0.0705868)
)
;
    }
    upperWall
    {
        type            calculated;
        value           uniform (0 0 0);
    }
    lowerWall
    {
        type            calculated;
        value           uniform (0 0 0);
    }
    frontAndBack
    {
        type            empty;
    }
}


// ************************************************************************* //
