/*--------------------------------*- C++ -*----------------------------------*\
| =========                 |                                                 |
| \\      /  F ield         | OpenFOAM: The Open Source CFD Toolbox           |
|  \\    /   O peration     | Version:  dev                                   |
|   \\  /    A nd           | Web:      www.OpenFOAM.org                      |
|    \\/     M anipulation  |                                                 |
\*---------------------------------------------------------------------------*/
FoamFile
{
    version     2.0;
    format      ascii;
    class       volVectorField;
    location    "3.34";
    object      cellDisplacement;
}
// * * * * * * * * * * * * * * * * * * * * * * * * * * * * * * * * * * * * * //

dimensions      [0 1 0 0 0 0 0];

internalField   nonuniform List<vector> 
465
(
(0.00361388 0 2.53052e-07)
(0.0103726 0 8.14597e-07)
(0.0162496 0 1.55222e-06)
(0.0213045 0 2.5858e-06)
(0.0255996 0 4.01838e-06)
(0.0291927 0 5.94673e-06)
(0.0321365 0 8.46887e-06)
(0.0344789 0 1.16894e-05)
(0.0362625 0 1.57235e-05)
(0.0375256 0 2.06999e-05)
(0.0383017 0 2.67631e-05)
(0.0386209 0 3.40749e-05)
(0.0385097 0 4.28152e-05)
(0.0379921 0 5.31813e-05)
(0.0370899 0 6.53858e-05)
(0.0358241 0 7.96531e-05)
(0.0342156 0 9.62125e-05)
(0.0322863 0 0.00011529)
(0.0300606 0 0.000137096)
(0.0275673 0 0.000161818)
(0.024841 0 0.000189598)
(0.00361885 0 7.39406e-07)
(0.0103873 0 2.38517e-06)
(0.0162739 0 4.55861e-06)
(0.0213387 0 7.61622e-06)
(0.0256445 0 1.18642e-05)
(0.0292493 0 1.75902e-05)
(0.0322062 0 2.5085e-05)
(0.0345635 0 3.4659e-05)
(0.0363641 0 4.66537e-05)
(0.0376466 0 6.14508e-05)
(0.0384451 0 7.94785e-05)
(0.0387899 0 0.000101216)
(0.0387082 0 0.000127196)
(0.0382241 0 0.000158004)
(0.0373602 0 0.000194268)
(0.0361377 0 0.000236652)
(0.034578 0 0.000285836)
(0.0327032 0 0.000342486)
(0.0305379 0 0.000407224)
(0.0281105 0 0.000480594)
(0.0254555 0 0.000563003)
(0.00362869 0 1.16737e-06)
(0.0104165 0 3.78228e-06)
(0.0163221 0 7.27446e-06)
(0.0214067 0 1.22276e-05)
(0.0257336 0 1.91427e-05)
(0.0293618 0 2.84894e-05)
(0.0323449 0 4.07423e-05)
(0.0347317 0 5.64072e-05)
(0.0365662 0 7.60403e-05)
(0.0378874 0 0.000100262)
(0.0387303 0 0.000129769)
(0.039126 0 0.000165339)
(0.0391025 0 0.000207837)
(0.038685 0 0.000258212)
(0.0378969 0 0.000317484)
(0.0367602 0 0.000386731)
(0.0352972 0 0.000467055)
(0.0335305 0 0.000559527)
(0.0314847 0 0.000665141)
(0.0291883 0 0.000784758)
(0.0266751 0 0.000918995)
(0.00364332 0 1.49974e-06)
(0.0104598 0 4.89512e-06)
(0.0163937 0 9.51374e-06)
(0.0215076 0 1.61512e-05)
(0.025866 0 2.54891e-05)
(0.0295287 0 3.81651e-05)
(0.0325506 0 5.48226e-05)
(0.0349814 0 7.6146e-05)
(0.0368658 0 0.000102886)
(0.0382443 0 0.00013588)
(0.0391527 0 0.000176066)
(0.0396236 0 0.000224491)
(0.0396861 0 0.000282317)
(0.0393668 0 0.000350818)
(0.0386906 0 0.000431366)
(0.0376806 0 0.000525403)
(0.0363603 0 0.000634412)
(0.0347536 0 0.000759817)
(0.0328849 0 0.00090291)
(0.0307827 0 0.00106482)
(0.0284799 0 0.00124628)
(0.00366256 0 1.70098e-06)
(0.0105168 0 5.61803e-06)
(0.0164879 0 1.10993e-05)
(0.0216402 0 1.91313e-05)
(0.0260398 0 3.05572e-05)
(0.0297479 0 4.61635e-05)
(0.0328206 0 6.67419e-05)
(0.0353088 0 9.31319e-05)
(0.0372587 0 0.000126253)
(0.0387119 0 0.000167128)
(0.0397059 0 0.000216901)
(0.0402748 0 0.000276846)
(0.0404494 0 0.000348375)
(0.0402581 0 0.000433035)
(0.0397276 0 0.000532489)
(0.0388826 0 0.00064848)
(0.0377484 0 0.00078282)
(0.0363508 0 0.00093722)
(0.0347137 0 0.00111315)
(0.0328658 0 0.00131195)
(0.0308393 0 0.00153443)
(0.00368617 0 1.73827e-06)
(0.0105867 0 5.85331e-06)
(0.0166034 0 1.18674e-05)
(0.0218029 0 2.09321e-05)
(0.026253 0 3.40282e-05)
(0.0300166 0 5.20675e-05)
(0.0331513 0 7.59645e-05)
(0.0357097 0 0.000106685)
(0.0377393 0 0.000145285)
(0.0392834 0 0.000192935)
(0.0403814 0 0.000250941)
(0.0410693 0 0.000320752)
(0.0413798 0 0.00040397)
(0.0413435 0 0.000502352)
(0.0409898 0 0.000617777)
(0.0403445 0 0.000752194)
(0.0394355 0 0.000907705)
(0.0382929 0 0.00108625)
(0.0369377 0 0.00128923)
(0.0354002 0 0.00151828)
(0.0337118 0 0.00177416)
(0.00371388 0 1.58212e-06)
(0.0106687 0 5.51337e-06)
(0.0167388 0 1.16714e-05)
(0.0219935 0 2.13427e-05)
(0.0265027 0 3.56177e-05)
(0.0303311 0 5.55064e-05)
(0.0335382 0 8.20161e-05)
(0.0361783 0 0.000116207)
(0.0383006 0 0.000159232)
(0.0399502 0 0.000212366)
(0.0411688 0 0.000277027)
(0.0419942 0 0.00035478)
(0.0424619 0 0.000447343)
(0.0426042 0 0.000556613)
(0.0424551 0 0.000684606)
(0.0420398 0 0.000833308)
(0.0413885 0 0.00100512)
(0.0405322 0 0.0012017)
(0.0395005 0 0.00142479)
(0.0383208 0 0.0016762)
(0.0370241 0 0.00195653)
(0.00374533 0 1.20705e-06)
(0.0107617 0 4.52248e-06)
(0.0168925 0 1.0385e-05)
(0.0222097 0 2.01818e-05)
(0.0267857 0 3.50824e-05)
(0.0306874 0 5.61641e-05)
(0.0339762 0 8.44951e-05)
(0.0367081 0 0.000121192)
(0.0389345 0 0.000167464)
(0.0407025 0 0.000224645)
(0.0420557 0 0.000294207)
(0.0430348 0 0.000377767)
(0.0436779 0 0.000477067)
(0.0440175 0 0.000594077)
(0.0440897 0 0.00073068)
(0.0439276 0 0.000888931)
(0.0435625 0 0.00107122)
(0.043023 0 0.00127929)
(0.0423481 0 0.00151513)
(0.0415653 0 0.00178019)
(0.040705 0 0.00207505)
(0.00378015 0 5.9208e-07)
(0.0108647 0 2.81843e-06)
(0.0170626 0 7.90455e-06)
(0.0224488 0 1.73015e-05)
(0.0270984 0 3.22248e-05)
(0.0310807 0 5.37866e-05)
(0.0344592 0 8.30813e-05)
(0.0372919 0 0.000121244)
(0.0396322 0 0.000169495)
(0.041529 0 0.000229174)
(0.0430286 0 0.000301755)
(0.0441742 0 0.000388846)
(0.0450016 0 0.000492017)
(0.0455522 0 0.000613136)
(0.0458617 0 0.00075422)
(0.0459713 0 0.000917282)
(0.0459133 0 0.00110438)
(0.0457216 0 0.00131734)
(0.0454326 0 0.00155791)
(0.0450785 0 0.00182735)
(0.0446912 0 0.00212618)
(0.0038179 0 -2.78822e-07)
(0.0109764 0 3.53768e-07)
(0.0172468 0 4.15141e-06)
(0.0227077 0 1.25904e-05)
(0.0274368 0 2.68978e-05)
(0.0315059 0 4.81868e-05)
(0.0349807 0 7.75437e-05)
(0.0379216 0 0.000116083)
(0.0403836 0 0.000164984)
(0.0424177 0 0.00022555)
(0.0440725 0 0.000299191)
(0.0453882 0 0.000387308)
(0.0464085 0 0.000491418)
(0.0471818 0 0.000613352)
(0.0477456 0 0.000754871)
(0.0481404 0 0.000917772)
(0.048404 0 0.00110383)
(0.048574 0 0.00131466)
(0.0486884 0 0.0015517)
(0.0487833 0 0.00181594)
(0.0488929 0 0.00210772)
(0.00385813 0 -1.41643e-06)
(0.0110953 0 -2.90329e-06)
(0.017443 0 -9.26411e-07)
(0.0229832 0 5.97612e-06)
(0.0277966 0 1.90074e-05)
(0.0319574 0 3.92488e-05)
(0.0355339 0 6.77444e-05)
(0.0385886 0 0.000105549)
(0.0411784 0 0.000153751)
(0.0433556 0 0.000213571)
(0.0451655 0 0.000286238)
(0.0466566 0 0.000373009)
(0.0478815 0 0.00047532)
(0.0488846 0 0.000594669)
(0.0497079 0 0.000732542)
(0.0503942 0 0.000890401)
(0.0509848 0 0.00106963)
(0.0515213 0 0.00127143)
(0.0520448 0 0.00149678)
(0.052595 0 0.00174624)
(0.0532098 0 0.00201982)
(0.00390034 0 -2.82604e-06)
(0.0112201 0 -6.96827e-06)
(0.0176488 0 -7.35333e-06)
(0.0232718 0 -2.57385e-06)
(0.0281731 0 8.51458e-06)
(0.0324293 0 2.69292e-05)
(0.0361112 0 5.36406e-05)
(0.0392838 0 8.96135e-05)
(0.0420056 0 0.000135775)
(0.044323 0 0.000193232)
(0.0462905 0 0.000263016)
(0.0479658 0 0.000346213)
(0.0493972 0 0.000443984)
(0.0506315 0 0.000557489)
(0.0517141 0 0.000687837)
(0.0526902 0 0.000836041)
(0.0536046 0 0.00100296)
(0.054502 0 0.00118924)
(0.0554271 0 0.0013952)
(0.0564235 0 0.00162078)
(0.0575332 0 0.00186539)
(0.00394402 0 -4.50738e-06)
(0.0113492 0 -1.18403e-05)
(0.0178615 0 -1.51257e-05)
(0.02357 0 -1.3051e-05)
(0.0285616 0 -4.5641e-06)
(0.0329156 0 1.12575e-05)
(0.0367049 0 3.52828e-05)
(0.0399978 0 6.83753e-05)
(0.042848 0 0.000111217)
(0.0453057 0 0.000164797)
(0.0474374 0 0.000229903)
(0.049296 0 0.000307386)
(0.0509318 0 0.000398076)
(0.0523936 0 0.000502743)
(0.0537293 0 0.000622034)
(0.0549864 0 0.000756424)
(0.0562122 0 0.000906147)
(0.0574543 0 0.00107112)
(0.0587602 0 0.00125087)
(0.0601769 0 0.00144445)
(0.0617502 0 0.0016504)
(0.00398867 0 -6.45456e-06)
(0.0114811 0 -1.75024e-05)
(0.0180785 0 -2.42119e-05)
(0.023874 0 -2.54064e-05)
(0.0289572 0 -2.01572e-05)
(0.0334099 0 -7.66556e-06)
(0.0373069 0 1.2807e-05)
(0.040718 0 4.19852e-05)
(0.043695 0 8.04064e-05)
(0.0462966 0 0.000128674)
(0.0485899 0 0.000187459)
(0.0506277 0 0.000257294)
(0.0524619 0 0.000338644)
(0.0541427 0 0.000431843)
(0.0557196 0 0.000537027)
(0.0572419 0 0.000654071)
(0.0587586 0 0.000782506)
(0.0603187 0 0.000921434)
(0.0619715 0 0.00106944)
(0.0637659 0 0.00122451)
(0.0657502 0 0.00138398)
(0.00403375 0 -8.65598e-06)
(0.0116142 0 -2.39222e-05)
(0.0182974 0 -3.45528e-05)
(0.0241802 0 -3.95513e-05)
(0.0293552 0 -3.81395e-05)
(0.0339062 0 -2.96685e-05)
(0.0379097 0 -1.35573e-05)
(0.0414363 0 1.07508e-05)
(0.0445386 0 4.3694e-05)
(0.0472821 0 8.54406e-05)
(0.0497321 0 0.000136462)
(0.0519421 0 0.000196982)
(0.053965 0 0.00026708)
(0.0558519 0 0.000346636)
(0.0576533 0 0.000435256)
(0.0594189 0 0.000532193)
(0.0611983 0 0.000636253)
(0.0630406 0 0.000745695)
(0.064995 0 0.000858118)
(0.06711 0 0.000970347)
(0.0694335 0 0.00107834)
(0.0185187 0 -4.62432e-05)
(0.0244894 0 -5.55971e-05)
(0.0297565 0 -5.86347e-05)
(0.0344058 0 -5.48765e-05)
(0.0385149 0 -4.39253e-05)
(0.042154 0 -2.54385e-05)
(0.0453825 0 8.67698e-07)
(0.0482675 0 3.48845e-05)
(0.05087 0 7.67566e-05)
(0.0532457 0 0.000126389)
(0.0554478 0 0.000183472)
(0.0575279 0 0.000247429)
(0.0595364 0 0.00031734)
(0.0615225 0 0.000391849)
(0.0635347 0 0.000469066)
(0.0656208 0 0.000546448)
(0.0678275 0 0.000620664)
(0.0701999 0 0.000687448)
(0.0727812 0 0.000741436)
(0.0247994 0 -7.36581e-05)
(0.0301584 0 -8.17651e-05)
(0.0349053 0 -8.3418e-05)
(0.039119 0 -7.84147e-05)
(0.0428708 0 -6.66413e-05)
(0.0462249 0 -4.8092e-05)
(0.049246 0 -2.29807e-05)
(0.0519947 0 8.46721e-06)
(0.054527 0 4.58173e-05)
(0.056896 0 8.83797e-05)
(0.059153 0 0.000135145)
(0.0613471 0 0.000184703)
(0.063526 0 0.000235156)
(0.0657357 0 0.000284004)
(0.0680204 0 0.000328028)
(0.0704221 0 0.000363148)
(0.0729799 0 0.000384252)
(0.0757283 0 0.000385004)
(0.0305527 0 -0.000107284)
(0.0353948 0 -0.000114953)
(0.0397102 0 -0.000116581)
(0.0435713 0 -0.000112269)
(0.0470443 0 -0.000102255)
(0.0501932 0 -8.6937e-05)
(0.0530774 0 -6.68498e-05)
(0.0557528 0 -4.2746e-05)
(0.0582717 0 -1.56618e-05)
(0.0606838 0 1.30134e-05)
(0.0630365 0 4.1459e-05)
(0.0653747 0 6.73342e-05)
(0.0677407 0 8.76767e-05)
(0.0701738 0 9.87871e-05)
(0.0727096 0 9.60968e-05)
(0.0753791 0 7.40124e-05)
(0.0782064 0 2.57237e-05)
(0.0358676 0 -0.00014925)
(0.0402804 0 -0.000158091)
(0.0442455 0 -0.000161879)
(0.0478299 0 -0.000161063)
(0.0510967 0 -0.000156243)
(0.0541044 0 -0.000148225)
(0.0569079 0 -0.000138043)
(0.0595579 0 -0.000127031)
(0.0621025 0 -0.000116888)
(0.064586 0 -0.000109753)
(0.0670499 0 -0.000108284)
(0.0695321 0 -0.000115744)
(0.072066 0 -0.000136094)
(0.0746803 0 -0.000174107)
(0.0773971 0 -0.000235483)
(0.0802305 0 -0.000326993)
(0.0408217 0 -0.000202535)
(0.044884 0 -0.000214917)
(0.0485712 0 -0.000223826)
(0.051945 0 -0.000230008)
(0.055063 0 -0.000234523)
(0.0579785 0 -0.000238641)
(0.0607405 0 -0.000243926)
(0.0633942 0 -0.000252309)
(0.0659811 0 -0.000266148)
(0.0685386 0 -0.000288283)
(0.0710994 0 -0.000322108)
(0.0736915 0 -0.000371636)
(0.0763364 0 -0.000441575)
(0.0790482 0 -0.000537397)
(0.0818321 0 -0.000665397)
(0.0454779 0 -0.000270743)
(0.0492582 0 -0.000289739)
(0.0527274 0 -0.000307211)
(0.0559419 0 -0.000324474)
(0.058953 0 -0.000342969)
(0.0618074 0 -0.000364417)
(0.0645476 0 -0.000390904)
(0.0672116 0 -0.000424893)
(0.0698328 0 -0.000469289)
(0.0724391 0 -0.000527453)
(0.0750527 0 -0.000603261)
(0.0776892 0 -0.000701135)
(0.0803562 0 -0.000826073)
(0.0830515 0 -0.000983624)
(0.0534346 0 -0.000386743)
(0.0567312 0 -0.000416693)
(0.0598214 0 -0.000449361)
(0.0627492 0 -0.000486504)
(0.0655543 0 -0.000530293)
(0.0682713 0 -0.000583198)
(0.0709297 0 -0.000648078)
(0.0735528 0 -0.000728125)
(0.0761581 0 -0.000826914)
(0.0787564 0 -0.000948427)
(0.0813509 0 -0.00109704)
(0.083937 0 -0.00127754)
(0.057423 0 -0.000509733)
(0.0605763 0 -0.0005561)
(0.0635593 0 -0.000608159)
(0.0664093 0 -0.000668137)
(0.0691577 0 -0.000738378)
(0.0718305 0 -0.000821655)
(0.074447 0 -0.000920853)
(0.0770206 0 -0.00103913)
(0.0795586 0 -0.0011799)
(0.0820617 0 -0.00134679)
(0.0845238 0 -0.0015436)
(0.0642337 0 -0.000727407)
(0.0671104 0 -0.000802194)
(0.0698713 0 -0.000887896)
(0.0725401 0 -0.0009873)
(0.0751315 0 -0.0011028)
(0.077656 0 -0.00123707)
(0.0801186 0 -0.00139288)
(0.0825182 0 -0.00157301)
(0.0848485 0 -0.0017802)
(0.0704166 0 -0.00102979)
(0.0730673 0 -0.00114294)
(0.0756192 0 -0.0012718)
(0.0780821 0 -0.0014185)
(0.0804597 0 -0.00158522)
(0.0827496 0 -0.00177386)
(0.0849438 0 -0.001986)
(0.0734192 0 -0.0012863)
(0.0759199 0 -0.0014255)
(0.078312 0 -0.00158118)
(0.0805989 0 -0.00175495)
(0.0827782 0 -0.00194801)
(0.0848434 0 -0.00216123)
(0.0783635 0 -0.00172364)
(0.0805587 0 -0.00190136)
(0.0826307 0 -0.00209569)
(0.0845752 0 -0.00230704)
(0.0823303 0 -0.00221715)
(0.0841633 0 -0.00242426)
)
;

boundaryField
{
    inlet
    {
        type            cellMotion;
        value           uniform (0 0 0);
    }
    outlet
    {
        type            cellMotion;
        value           nonuniform 0();
    }
    flap
    {
        type            cellMotion;
        value           nonuniform 0();
    }
    upperWall
    {
        type            slip;
    }
    lowerWall
    {
        type            slip;
    }
    frontAndBack
    {
        type            empty;
    }
    procBoundary3to0
    {
        type            processor;
        value           nonuniform List<vector> 
34
(
(0.00407929 0 -1.11125e-05)
(0.0117486 0 -3.11101e-05)
(0.0117486 0 -3.11101e-05)
(0.0187401 0 -5.92805e-05)
(0.0187401 0 -5.92805e-05)
(0.025103 0 -9.34266e-05)
(0.025103 0 -9.34266e-05)
(0.0309329 0 -0.000134866)
(0.0309329 0 -0.000134866)
(0.036316 0 -0.000185819)
(0.036316 0 -0.000185819)
(0.0413252 0 -0.000249216)
(0.0413252 0 -0.000249216)
(0.0460177 0 -0.000328386)
(0.0498814 0 -0.000357728)
(0.0498814 0 -0.000357728)
(0.0540575 0 -0.000467172)
(0.0540575 0 -0.000467172)
(0.0580099 0 -0.000601845)
(0.0612115 0 -0.000661293)
(0.0612115 0 -0.000661293)
(0.0647698 0 -0.000842071)
(0.0676572 0 -0.000930237)
(0.0676572 0 -0.000930237)
(0.0708011 0 -0.00116181)
(0.0708011 0 -0.00116181)
(0.0736036 0 -0.00141487)
(0.0760461 0 -0.00156181)
(0.0760461 0 -0.00156181)
(0.0782532 0 -0.00184477)
(0.0803594 0 -0.00202396)
(0.0803594 0 -0.00202396)
(0.0818955 0 -0.00231241)
(0.0836274 0 -0.0025136)
)
;
    }
    procBoundary3to1
    {
        type            processor;
        value           nonuniform List<vector> 9((0.0846827 0 -0.000832791) (0.0857693 0 -0.00118043) (0.0865012 0 -0.00149515) (0.0869247 0 -0.00177354) (0.0870869 0 -0.00201574) (0.0870265 0 -0.00222224) (0.0867825 0 -0.00239481) (0.0863834 0 -0.00253509) (0.085853 0 -0.00264469));
    }
    procBoundary3to4
    {
        type            processor;
        value           nonuniform List<vector> 
19
(
(0.0219241 0 0.000220519)
(0.022615 0 0.000654666)
(0.0239863 0 0.00106811)
(0.0260162 0 0.00144748)
(0.0286715 0 0.00178059)
(0.0319075 0 0.00205663)
(0.0356431 0 0.00226529)
(0.0397983 0 0.00239911)
(0.044301 0 0.00245375)
(0.0490486 0 0.00242635)
(0.0539234 0 0.00231671)
(0.0587947 0 0.00212788)
(0.0635236 0 0.00186673)
(0.0679711 0 0.00154455)
(0.0720114 0 0.00117708)
(0.0756117 0 0.000775948)
(0.0786963 0 0.000357543)
(0.0812072 0 -5.70802e-05)
(0.0831838 0 -0.000456699)
)
;
    }
}


// ************************************************************************* //
