/*--------------------------------*- C++ -*----------------------------------*\
| =========                 |                                                 |
| \\      /  F ield         | OpenFOAM: The Open Source CFD Toolbox           |
|  \\    /   O peration     | Version:  dev                                   |
|   \\  /    A nd           | Web:      www.OpenFOAM.org                      |
|    \\/     M anipulation  |                                                 |
\*---------------------------------------------------------------------------*/
FoamFile
{
    version     2.0;
    format      ascii;
    class       volVectorField;
    location    "2.87";
    object      Force;
}
// * * * * * * * * * * * * * * * * * * * * * * * * * * * * * * * * * * * * * //

dimensions      [1 1 -2 0 0 0 0];

internalField   uniform (0 0 0);

boundaryField
{
    inlet
    {
        type            calculated;
        value           nonuniform 0();
    }
    outlet
    {
        type            calculated;
        value           nonuniform 0();
    }
    flap
    {
        type            calculated;
        value           nonuniform List<vector> 
33
(
(3.48635 -1.91547e-17 -0.216232)
(3.43414 -9.03563e-22 -0.473651)
(3.35968 -1.83003e-17 -0.703004)
(3.264 -8.83817e-18 -0.866384)
(3.15674 0 -0.973418)
(3.04609 -1.10203e-39 -1.03298)
(2.93753 2.80235e-23 -1.05441)
(2.83441 -2.68428e-23 -1.0468)
(2.73282 1.55753e-37 -1.0181)
(2.62563 -9.1679e-23 -0.975163)
(2.50266 1.61142e-17 -0.92275)
(2.34924 -6.77733e-18 -0.861412)
(2.14601 3.04721e-21 -0.785646)
(1.86155 5.36721e-18 -0.680417)
(1.4264 1.32715e-21 -0.521568)
(0.219905 -1.51616e-21 0.588162)
(0.127117 -1.46937e-39 0.346255)
(0.0381539 4.95912e-39 0.106897)
(-0.0295318 0 0.00186168)
(-0.0297809 -9.18355e-41 0.00411013)
(-0.0301312 -2.21201e-23 0.00628582)
(-0.0307035 -7.95682e-25 0.00807045)
(-0.0316453 1.03914e-24 0.00961321)
(-0.0332093 1.54535e-17 0.0110453)
(-0.0358061 -1.03947e-19 0.0125714)
(-0.0399727 1.15537e-19 0.0144509)
(-0.0462017 1.99448e-22 0.0169205)
(-0.0546329 -6.22219e-24 0.0200802)
(-0.0652988 5.16827e-22 0.0240619)
(-0.078358 -1.53675e-23 0.0290408)
(-0.0929954 -8.80354e-22 0.034794)
(-0.105922 3.02735e-19 0.0400683)
(-0.102972 2.01447e-17 0.0395042)
)
;
    }
    upperWall
    {
        type            calculated;
        value           nonuniform 0();
    }
    lowerWall
    {
        type            calculated;
        value           uniform (0 0 0);
    }
    frontAndBack
    {
        type            empty;
    }
    procBoundary4to1
    {
        type            processor;
        value           uniform (0 0 0);
    }
    procBoundary4to2
    {
        type            processor;
        value           uniform (0 0 0);
    }
    procBoundary4to3
    {
        type            processor;
        value           uniform (0 0 0);
    }
    procBoundary4to5
    {
        type            processor;
        value           uniform (0 0 0);
    }
}


// ************************************************************************* //
