/*--------------------------------*- C++ -*----------------------------------*\
| =========                 |                                                 |
| \\      /  F ield         | OpenFOAM: The Open Source CFD Toolbox           |
|  \\    /   O peration     | Version:  dev                                   |
|   \\  /    A nd           | Web:      www.OpenFOAM.org                      |
|    \\/     M anipulation  |                                                 |
\*---------------------------------------------------------------------------*/
FoamFile
{
    version     2.0;
    format      ascii;
    class       volScalarField;
    location    "1.82";
    object      p;
}
// * * * * * * * * * * * * * * * * * * * * * * * * * * * * * * * * * * * * * //

dimensions      [0 2 -2 0 0 0 0];

internalField   nonuniform List<scalar> 
465
(
70.9498
70.7618
70.8475
71.1547
71.5906
72.1245
72.7565
73.4896
74.3244
75.261
76.3008
77.4459
78.6988
80.0622
81.5383
83.1291
84.8355
86.6574
88.5923
90.6348
92.775
70.8002
70.707
70.8128
71.1183
71.5524
72.085
72.7147
73.4444
74.2747
75.2057
76.2389
77.3762
78.62
79.9728
81.4367
83.0135
84.7042
86.5083
88.4237
90.4452
92.5635
70.6643
70.6446
70.7685
71.0666
71.4926
72.0183
72.6397
73.3591
74.1768
75.0931
76.1089
77.2256
78.4453
79.7697
81.2002
82.7377
84.3822
86.1323
87.9848
89.9334
91.9681
70.5295
70.5485
70.6865
70.9788
71.3961
71.913
72.524
73.23
74.0314
74.9282
75.9206
77.0097
78.1966
79.4821
80.8665
82.3493
83.9291
85.6026
87.3645
89.2062
91.115
70.3867
70.4265
70.5771
70.8665
71.2749
71.7808
72.3782
73.0671
73.8476
74.7192
75.6818
76.7356
77.8808
79.1171
80.4435
81.8578
83.3566
84.9345
86.5833
88.291
90.041
70.2317
70.2831
70.4424
70.7286
71.1264
71.6184
72.1988
72.8669
73.6222
74.4637
75.3908
76.4027
77.4987
78.6773
79.9359
81.2705
82.6754
84.1423
85.66
87.2125
88.7779
70.0621
70.1201
70.2841
70.5658
70.9516
71.4277
71.9884
72.6325
73.3587
74.1658
75.0521
76.0163
77.0563
78.1694
79.3513
80.5962
81.8958
83.2391
84.6111
85.9913
87.352
69.8768
69.9384
70.1039
70.3792
70.7518
71.2099
71.7483
72.3652
73.0589
73.8273
74.6682
75.5792
76.5572
77.5979
78.6956
79.8422
81.0272
82.2365
83.4512
84.6461
85.7871
69.6756
69.7389
69.903
70.1704
70.5282
70.9663
71.4801
72.0669
72.7247
73.4509
74.2422
75.0952
76.0059
76.9686
77.9757
79.0172
80.08
81.147
82.1956
83.1959
84.1075
69.4586
69.5221
69.6829
69.9404
70.282
70.6985
71.1853
71.7395
72.3587
73.0393
73.7773
74.5685
75.4077
76.2876
77.1989
78.1298
79.0647
79.9836
80.8603
81.6602
82.3371
69.2263
69.289
69.4447
69.6908
70.0147
70.408
70.866
71.3854
71.9633
72.5956
73.2773
74.0034
74.7675
75.5609
76.3726
77.189
77.9922
78.7595
79.4612
80.0584
80.4998
68.9791
69.0404
69.1897
69.423
69.7278
70.0963
70.5239
71.0067
71.5414
72.123
72.7459
73.4043
74.0906
74.7947
75.5043
76.2038
76.8734
77.4877
78.0139
78.4096
78.6188
68.7179
68.7772
68.9189
69.1382
69.4228
69.7654
70.161
70.6056
71.0952
71.6244
72.1868
72.7756
73.3822
73.9954
74.6015
75.1832
75.7189
76.1809
76.5341
76.7326
76.7168
68.4437
68.5005
68.6338
68.8379
69.1013
69.4168
69.7795
70.1845
70.6276
71.103
71.6036
72.1217
72.6476
73.1692
73.6715
74.1359
74.5391
74.8517
75.0363
75.0448
74.8146
68.1573
68.2114
68.3354
68.5237
68.7649
69.0525
69.3812
69.7458
70.1416
70.5623
71.0004
71.4473
71.8924
72.3226
72.7221
73.0711
73.3449
73.5128
73.5358
73.3641
72.9337
68.0193
68.1905
68.4086
68.6671
68.9605
69.2831
69.6302
69.9948
70.3689
70.7433
71.1065
71.4448
71.7413
71.9754
72.1217
72.1482
72.015
71.6714
71.053
67.8349
68.0285
68.2564
68.5129
68.7921
69.0887
69.3956
69.7041
70.0044
70.2846
70.5302
70.7238
70.844
70.865
70.7543
70.4718
69.9669
69.1762
67.6277
67.824
68.0424
68.277
68.5221
68.7702
69.0124
69.2382
69.4354
69.589
69.6813
69.6905
69.5906
69.3495
68.9275
68.2754
67.3324
67.371
67.5505
67.7397
67.9327
68.1215
68.2971
68.4487
68.5637
68.6271
68.6208
68.5232
68.3086
67.9456
67.396
66.6133
65.5409
67.0388
67.1823
67.3227
67.4523
67.5617
67.6401
67.6746
67.6503
67.5492
67.3503
67.0285
66.5539
65.8907
64.9958
63.8188
66.6068
66.6949
66.7658
66.81
66.8166
66.7731
66.6646
66.4737
66.18
65.7597
65.185
64.423
63.4353
62.1789
66.0652
66.0457
65.9829
65.8645
65.6761
65.401
65.02
64.5108
63.8484
63.0032
61.9423
60.6303
65.273
65.1437
64.9541
64.6908
64.338
63.8778
63.29
62.5525
61.6397
60.5241
59.178
64.0473
63.7146
63.2912
62.7604
62.1044
61.3044
60.3389
59.1859
57.8241
62.2664
61.6737
60.96
60.1098
59.1056
57.93
56.5677
60.6231
59.8619
58.973
57.9423
56.7568
55.4063
57.8967
56.85
55.6651
54.3361
54.6532
53.3526
)
;

boundaryField
{
    inlet
    {
        type            zeroGradient;
    }
    outlet
    {
        type            fixedValue;
        value           nonuniform 0();
    }
    flap
    {
        type            zeroGradient;
    }
    upperWall
    {
        type            zeroGradient;
    }
    lowerWall
    {
        type            zeroGradient;
    }
    frontAndBack
    {
        type            empty;
    }
    procBoundary3to0
    {
        type            processor;
        value           nonuniform List<scalar> 
34
(
67.8542
67.9052
67.9052
67.6817
67.6817
67.4595
67.4595
67.2073
67.2073
66.8988
66.8988
66.5093
66.5093
66.0158
66.0522
66.0522
65.3541
65.3541
64.4962
64.3036
64.3036
63.1491
62.7531
62.7531
61.269
61.269
59.6131
58.8141
58.8141
56.8823
55.8288
55.8288
53.7183
52.4509
)
;
    }
    procBoundary3to1
    {
        type            processor;
        value           nonuniform List<scalar> 9(62.3006 60.6052 59.0291 57.5728 56.2334 55.006 53.8838 52.8599 51.9269);
    }
    procBoundary3to4
    {
        type            processor;
        value           nonuniform List<scalar> 
19
(
94.9974
94.7641
94.0737
93.0727
91.8097
90.3258
88.6548
86.8278
84.8756
82.8285
80.7161
78.5667
76.4075
74.2637
72.1603
70.0754
68.0177
66.0216
64.1099
)
;
    }
}


// ************************************************************************* //
