/*--------------------------------*- C++ -*----------------------------------*\
| =========                 |                                                 |
| \\      /  F ield         | OpenFOAM: The Open Source CFD Toolbox           |
|  \\    /   O peration     | Version:  dev                                   |
|   \\  /    A nd           | Web:      www.OpenFOAM.org                      |
|    \\/     M anipulation  |                                                 |
\*---------------------------------------------------------------------------*/
FoamFile
{
    version     2.0;
    format      ascii;
    class       pointVectorField;
    location    "0.99";
    object      pointDisplacement;
}
// * * * * * * * * * * * * * * * * * * * * * * * * * * * * * * * * * * * * * //

dimensions      [0 1 0 0 0 0 0];

internalField   nonuniform List<vector> 
1028
(
(0.267943 0 -0.0375145)
(0.280538 0 -0.0403418)
(0.274255 0 -0.0394166)
(0.286167 0 -0.0421971)
(0.298232 0 -0.0451315)
(0.310177 0 -0.0481877)
(0.279069 0 -0.0409692)
(0.290208 0 -0.0436624)
(0.301278 0 -0.0464572)
(0.312044 0 -0.0493226)
(0.322232 0 -0.0522192)
(0.33153 0 -0.0550933)
(0.282572 0 -0.042194)
(0.292915 0 -0.0447749)
(0.303033 0 -0.0474158)
(0.31273 0 -0.0500875)
(0.321772 0 -0.0527485)
(0.329915 0 -0.0553484)
(0.336955 0 -0.0578404)
(0.342748 0 -0.0601851)
(0.284942 0 -0.0431146)
(0.294513 0 -0.0455706)
(0.303752 0 -0.0480537)
(0.312487 0 -0.0505323)
(0.320527 0 -0.0529663)
(0.327702 0 -0.0553168)
(0.333878 0 -0.0575486)
(0.338967 0 -0.0596302)
(0.342925 0 -0.0615322)
(0.345501 0 -0.0630424)
(0.286345 0 -0.043755)
(0.295189 0 -0.046081)
(0.303621 0 -0.0484046)
(0.311495 0 -0.0506942)
(0.318673 0 -0.0529181)
(0.32504 0 -0.0550463)
(0.330508 0 -0.057051)
(0.335023 0 -0.0589075)
(0.338564 0 -0.0605928)
(0.340909 0 -0.0619243)
(0.286923 0 -0.044136)
(0.295088 0 -0.0463286)
(0.302784 0 -0.0484941)
(0.3099 0 -0.0506057)
(0.316341 0 -0.0526389)
(0.322029 0 -0.0545696)
(0.326907 0 -0.0563758)
(0.330943 0 -0.0580385)
(0.334133 0 -0.0595403)
(0.336272 0 -0.0607225)
(0.286789 0 -0.044273)
(0.294324 0 -0.0463316)
(0.301359 0 -0.0483453)
(0.307814 0 -0.0502925)
(0.313624 0 -0.0521532)
(0.318735 0 -0.0539083)
(0.323114 0 -0.0555406)
(0.326744 0 -0.0570356)
(0.329629 0 -0.0583801)
(0.331584 0 -0.0594355)
(0.28604 0 -0.0441784)
(0.293 0 -0.0461064)
(0.299446 0 -0.047977)
(0.305323 0 -0.049773)
(0.310588 0 -0.0514779)
(0.315205 0 -0.0530765)
(0.319156 0 -0.0545556)
(0.322436 0 -0.0559042)
(0.325053 0 -0.0571127)
(0.326838 0 -0.0580589)
(0.284758 0 -0.0438624)
(0.291198 0 -0.0456652)
(0.297122 0 -0.0474021)
(0.302494 0 -0.0490592)
(0.307284 0 -0.0506232)
(0.311474 0 -0.052082)
(0.315054 0 -0.0534255)
(0.318027 0 -0.0546455)
(0.320405 0 -0.0557351)
(0.322033 0 -0.0565861)
(0.283016 0 -0.0433321)
(0.288989 0 -0.0450161)
(0.294451 0 -0.0466287)
(0.299378 0 -0.0481584)
(0.303754 0 -0.0495946)
(0.30757 0 -0.0509278)
(0.310825 0 -0.0521505)
(0.313527 0 -0.0532567)
(0.315688 0 -0.0542416)
(0.31717 0 -0.0550088)
(0.274835 0 -0.0409552)
(0.28088 0 -0.0425923)
(0.286435 0 -0.0441641)
(0.291486 0 -0.045661)
(0.296021 0 -0.0470735)
(0.300032 0 -0.0483934)
(0.30352 0 -0.0496134)
(0.306487 0 -0.0507279)
(0.308945 0 -0.0517326)
(0.31091 0 -0.0526243)
(0.312254 0 -0.0533171)
(0.272741 0 -0.0401105)
(0.278411 0 -0.041645)
(0.283591 0 -0.0431107)
(0.288275 0 -0.0444994)
(0.292462 0 -0.0458039)
(0.296151 0 -0.0470174)
(0.299347 0 -0.0481347)
(0.302058 0 -0.0491515)
(0.304297 0 -0.050065)
(0.306081 0 -0.0508732)
(0.307296 0 -0.0514995)
(0.270333 0 -0.0390537)
(0.275662 0 -0.0404893)
(0.280505 0 -0.0418541)
(0.284864 0 -0.0431415)
(0.288741 0 -0.0443456)
(0.292143 0 -0.0454614)
(0.295079 0 -0.0464847)
(0.297559 0 -0.0474128)
(0.2996 0 -0.0482438)
(0.301217 0 -0.0489766)
(0.302312 0 -0.0495428)
(0.267665 0 -0.0377813)
(0.272687 0 -0.0391212)
(0.277228 0 -0.0403897)
(0.281294 0 -0.0415815)
(0.284895 0 -0.0426918)
(0.288041 0 -0.0437169)
(0.290743 0 -0.0446537)
(0.293016 0 -0.0455005)
(0.294876 0 -0.0462562)
(0.29634 0 -0.0469204)
(0.297321 0 -0.0474321)
(0.264794 0 -0.036287)
(0.269538 0 -0.0375338)
(0.273806 0 -0.0387097)
(0.277611 0 -0.0398105)
(0.280964 0 -0.0408324)
(0.28388 0 -0.0417727)
(0.286373 0 -0.0426292)
(0.288459 0 -0.0434009)
(0.290154 0 -0.0440873)
(0.291475 0 -0.0446886)
(0.29235 0 -0.0451503)
(0.261774 0 -0.0345617)
(0.266267 0 -0.0357171)
(0.270291 0 -0.0368031)
(0.27386 0 -0.0378165)
(0.276992 0 -0.0387542)
(0.279702 0 -0.0396144)
(0.282007 0 -0.0403955)
(0.283922 0 -0.041097)
(0.285467 0 -0.0417191)
(0.286657 0 -0.0422621)
(0.287432 0 -0.0426778)
(0.258662 0 -0.0325933)
(0.262929 0 -0.0336579)
(0.266734 0 -0.0346557)
(0.270093 0 -0.0355841)
(0.273026 0 -0.0364407)
(0.275551 0 -0.0372242)
(0.277686 0 -0.0379337)
(0.279448 0 -0.038569)
(0.280855 0 -0.0391306)
(0.281925 0 -0.0396192)
(0.282607 0 -0.039992)
(0.255519 0 -0.0303661)
(0.259584 0 -0.0313395)
(0.263192 0 -0.0322496)
(0.266363 0 -0.0330942)
(0.269119 0 -0.0338715)
(0.271478 0 -0.0345806)
(0.27346 0 -0.035221)
(0.275084 0 -0.0357929)
(0.276366 0 -0.036297)
(0.277327 0 -0.036734)
(0.277923 0 -0.0370664)
(0.25241 0 -0.0278609)
(0.256294 0 -0.0287414)
(0.259728 0 -0.0295629)
(0.262732 0 -0.0303235)
(0.26533 0 -0.031022)
(0.267542 0 -0.0316577)
(0.269388 0 -0.0322304)
(0.270887 0 -0.0327406)
(0.272057 0 -0.0331889)
(0.272917 0 -0.0335763)
(0.273436 0 -0.0338702)
(0.249405 0 -0.0250544)
(0.25313 0 -0.0258385)
(0.25641 0 -0.0265689)
(0.259268 0 -0.0272438)
(0.261727 0 -0.0278625)
(0.263809 0 -0.0284244)
(0.265534 0 -0.0289296)
(0.266922 0 -0.0293784)
(0.267993 0 -0.0297718)
(0.268763 0 -0.0301107)
(0.26921 0 -0.030367)
(0.246582 0 -0.0219181)
(0.250169 0 -0.0226007)
(0.253317 0 -0.0232356)
(0.256048 0 -0.0238214)
(0.258386 0 -0.0243575)
(0.260355 0 -0.0248436)
(0.261975 0 -0.0252798)
(0.263267 0 -0.0256665)
(0.264249 0 -0.0260046)
(0.26494 0 -0.026295)
(0.265324 0 -0.026514)
(0.244027 0 -0.0184181)
(0.247499 0 -0.0189916)
(0.250534 0 -0.0195244)
(0.253157 0 -0.0200156)
(0.255394 0 -0.0204645)
(0.257267 0 -0.020871)
(0.258798 0 -0.0212351)
(0.260007 0 -0.0215573)
(0.260914 0 -0.0218384)
(0.261537 0 -0.0220791)
(0.261866 0 -0.0222601)
(0.241837 0 -0.0145138)
(0.245215 0 -0.0149678)
(0.248159 0 -0.0153894)
(0.250696 0 -0.0157777)
(0.25285 0 -0.0161322)
(0.254645 0 -0.0164529)
(0.256103 0 -0.0167399)
(0.257245 0 -0.0169935)
(0.25809 0 -0.0172142)
(0.258657 0 -0.0174028)
(0.258941 0 -0.0175444)
(0.240119 0 -0.0101567)
(0.243426 0 -0.0104772)
(0.246302 0 -0.0107748)
(0.248774 0 -0.0110488)
(0.250866 0 -0.0112989)
(0.252603 0 -0.0115249)
(0.254006 0 -0.011727)
(0.255097 0 -0.0119054)
(0.255896 0 -0.0120606)
(0.25642 0 -0.0121931)
(0.25667 0 -0.0122927)
(0.238994 0 -0.00529002)
(0.242256 0 -0.00545865)
(0.245089 0 -0.00561523)
(0.24752 0 -0.00575939)
(0.249572 0 -0.00589096)
(0.251272 0 -0.00600985)
(0.25264 0 -0.00611613)
(0.253699 0 -0.00620993)
(0.254468 0 -0.00629154)
(0.254964 0 -0.00636128)
(0.255192 0 -0.00641397)
(0.238596 0 0)
(0.241842 0 0)
(0.244661 0 0)
(0.247076 0 0)
(0.249115 0 0)
(0.250802 0 0)
(0.252158 0 0)
(0.253205 0 0)
(0.253963 0 0)
(0.25445 0 0)
(0.25467 0 0)
(0.267943 0 -0.0375145)
(0.280538 0 -0.0403418)
(0.274255 0 -0.0394166)
(0.286167 0 -0.0421971)
(0.298232 0 -0.0451315)
(0.310177 0 -0.0481877)
(0.279069 0 -0.0409692)
(0.290208 0 -0.0436624)
(0.301278 0 -0.0464572)
(0.312044 0 -0.0493226)
(0.322232 0 -0.0522192)
(0.33153 0 -0.0550933)
(0.282572 0 -0.042194)
(0.292915 0 -0.0447749)
(0.303033 0 -0.0474158)
(0.31273 0 -0.0500875)
(0.321772 0 -0.0527485)
(0.329915 0 -0.0553484)
(0.336955 0 -0.0578404)
(0.342748 0 -0.0601851)
(0.284942 0 -0.0431146)
(0.294513 0 -0.0455706)
(0.303752 0 -0.0480537)
(0.312487 0 -0.0505323)
(0.320527 0 -0.0529663)
(0.327702 0 -0.0553168)
(0.333878 0 -0.0575486)
(0.338967 0 -0.0596302)
(0.342925 0 -0.0615322)
(0.345501 0 -0.0630424)
(0.286345 0 -0.043755)
(0.295189 0 -0.046081)
(0.303621 0 -0.0484046)
(0.311495 0 -0.0506942)
(0.318673 0 -0.0529181)
(0.32504 0 -0.0550463)
(0.330508 0 -0.057051)
(0.335023 0 -0.0589075)
(0.338564 0 -0.0605928)
(0.340909 0 -0.0619243)
(0.286923 0 -0.044136)
(0.295088 0 -0.0463286)
(0.302784 0 -0.0484941)
(0.3099 0 -0.0506057)
(0.316341 0 -0.0526389)
(0.322029 0 -0.0545696)
(0.326907 0 -0.0563758)
(0.330943 0 -0.0580385)
(0.334133 0 -0.0595403)
(0.336272 0 -0.0607225)
(0.286789 0 -0.044273)
(0.294324 0 -0.0463316)
(0.301359 0 -0.0483453)
(0.307814 0 -0.0502925)
(0.313624 0 -0.0521532)
(0.318735 0 -0.0539083)
(0.323114 0 -0.0555406)
(0.326744 0 -0.0570356)
(0.329629 0 -0.0583801)
(0.331584 0 -0.0594355)
(0.28604 0 -0.0441784)
(0.293 0 -0.0461064)
(0.299446 0 -0.047977)
(0.305323 0 -0.049773)
(0.310588 0 -0.0514779)
(0.315205 0 -0.0530765)
(0.319156 0 -0.0545556)
(0.322436 0 -0.0559042)
(0.325053 0 -0.0571127)
(0.326838 0 -0.0580589)
(0.284758 0 -0.0438624)
(0.291198 0 -0.0456652)
(0.297122 0 -0.0474021)
(0.302494 0 -0.0490592)
(0.307284 0 -0.0506232)
(0.311474 0 -0.052082)
(0.315054 0 -0.0534255)
(0.318027 0 -0.0546455)
(0.320405 0 -0.0557351)
(0.322033 0 -0.0565861)
(0.283016 0 -0.0433321)
(0.288989 0 -0.0450161)
(0.294451 0 -0.0466287)
(0.299378 0 -0.0481584)
(0.303754 0 -0.0495946)
(0.30757 0 -0.0509278)
(0.310825 0 -0.0521505)
(0.313527 0 -0.0532567)
(0.315688 0 -0.0542416)
(0.31717 0 -0.0550088)
(0.274835 0 -0.0409552)
(0.28088 0 -0.0425923)
(0.286435 0 -0.0441641)
(0.291486 0 -0.045661)
(0.296021 0 -0.0470735)
(0.300032 0 -0.0483934)
(0.30352 0 -0.0496134)
(0.306487 0 -0.0507279)
(0.308945 0 -0.0517326)
(0.31091 0 -0.0526243)
(0.312254 0 -0.0533171)
(0.272741 0 -0.0401105)
(0.278411 0 -0.041645)
(0.283591 0 -0.0431107)
(0.288275 0 -0.0444994)
(0.292462 0 -0.0458039)
(0.296151 0 -0.0470174)
(0.299347 0 -0.0481347)
(0.302058 0 -0.0491515)
(0.304297 0 -0.050065)
(0.306081 0 -0.0508732)
(0.307296 0 -0.0514995)
(0.270333 0 -0.0390537)
(0.275662 0 -0.0404893)
(0.280505 0 -0.0418541)
(0.284864 0 -0.0431415)
(0.288741 0 -0.0443456)
(0.292143 0 -0.0454614)
(0.295079 0 -0.0464847)
(0.297559 0 -0.0474128)
(0.2996 0 -0.0482438)
(0.301217 0 -0.0489766)
(0.302312 0 -0.0495428)
(0.267665 0 -0.0377813)
(0.272687 0 -0.0391212)
(0.277228 0 -0.0403897)
(0.281294 0 -0.0415815)
(0.284895 0 -0.0426918)
(0.288041 0 -0.0437169)
(0.290743 0 -0.0446537)
(0.293016 0 -0.0455005)
(0.294876 0 -0.0462562)
(0.29634 0 -0.0469204)
(0.297321 0 -0.0474321)
(0.264794 0 -0.036287)
(0.269538 0 -0.0375338)
(0.273806 0 -0.0387097)
(0.277611 0 -0.0398105)
(0.280964 0 -0.0408324)
(0.28388 0 -0.0417727)
(0.286373 0 -0.0426292)
(0.288459 0 -0.0434009)
(0.290154 0 -0.0440873)
(0.291475 0 -0.0446886)
(0.29235 0 -0.0451503)
(0.261774 0 -0.0345617)
(0.266267 0 -0.0357171)
(0.270291 0 -0.0368031)
(0.27386 0 -0.0378165)
(0.276992 0 -0.0387542)
(0.279702 0 -0.0396144)
(0.282007 0 -0.0403955)
(0.283922 0 -0.041097)
(0.285467 0 -0.0417191)
(0.286657 0 -0.0422621)
(0.287432 0 -0.0426778)
(0.258662 0 -0.0325933)
(0.262929 0 -0.0336579)
(0.266734 0 -0.0346557)
(0.270093 0 -0.0355841)
(0.273026 0 -0.0364407)
(0.275551 0 -0.0372242)
(0.277686 0 -0.0379337)
(0.279448 0 -0.038569)
(0.280855 0 -0.0391306)
(0.281925 0 -0.0396192)
(0.282607 0 -0.039992)
(0.255519 0 -0.0303661)
(0.259584 0 -0.0313395)
(0.263192 0 -0.0322496)
(0.266363 0 -0.0330942)
(0.269119 0 -0.0338715)
(0.271478 0 -0.0345806)
(0.27346 0 -0.035221)
(0.275084 0 -0.0357929)
(0.276366 0 -0.036297)
(0.277327 0 -0.036734)
(0.277923 0 -0.0370664)
(0.25241 0 -0.0278609)
(0.256294 0 -0.0287414)
(0.259728 0 -0.0295629)
(0.262732 0 -0.0303235)
(0.26533 0 -0.031022)
(0.267542 0 -0.0316577)
(0.269388 0 -0.0322304)
(0.270887 0 -0.0327406)
(0.272057 0 -0.0331889)
(0.272917 0 -0.0335763)
(0.273436 0 -0.0338702)
(0.249405 0 -0.0250544)
(0.25313 0 -0.0258385)
(0.25641 0 -0.0265689)
(0.259268 0 -0.0272438)
(0.261727 0 -0.0278625)
(0.263809 0 -0.0284244)
(0.265534 0 -0.0289296)
(0.266922 0 -0.0293784)
(0.267993 0 -0.0297718)
(0.268763 0 -0.0301107)
(0.26921 0 -0.030367)
(0.246582 0 -0.0219181)
(0.250169 0 -0.0226007)
(0.253317 0 -0.0232356)
(0.256048 0 -0.0238214)
(0.258386 0 -0.0243575)
(0.260355 0 -0.0248436)
(0.261975 0 -0.0252798)
(0.263267 0 -0.0256665)
(0.264249 0 -0.0260046)
(0.26494 0 -0.026295)
(0.265324 0 -0.026514)
(0.244027 0 -0.0184181)
(0.247499 0 -0.0189916)
(0.250534 0 -0.0195244)
(0.253157 0 -0.0200156)
(0.255394 0 -0.0204645)
(0.257267 0 -0.020871)
(0.258798 0 -0.0212351)
(0.260007 0 -0.0215573)
(0.260914 0 -0.0218384)
(0.261537 0 -0.0220791)
(0.261866 0 -0.0222601)
(0.241837 0 -0.0145138)
(0.245215 0 -0.0149678)
(0.248159 0 -0.0153894)
(0.250696 0 -0.0157777)
(0.25285 0 -0.0161322)
(0.254645 0 -0.0164529)
(0.256103 0 -0.0167399)
(0.257245 0 -0.0169935)
(0.25809 0 -0.0172142)
(0.258657 0 -0.0174028)
(0.258941 0 -0.0175444)
(0.240119 0 -0.0101567)
(0.243426 0 -0.0104772)
(0.246302 0 -0.0107748)
(0.248774 0 -0.0110488)
(0.250866 0 -0.0112989)
(0.252603 0 -0.0115249)
(0.254006 0 -0.011727)
(0.255097 0 -0.0119054)
(0.255896 0 -0.0120606)
(0.25642 0 -0.0121931)
(0.25667 0 -0.0122927)
(0.238994 0 -0.00529002)
(0.242256 0 -0.00545865)
(0.245089 0 -0.00561523)
(0.24752 0 -0.00575939)
(0.249572 0 -0.00589096)
(0.251272 0 -0.00600985)
(0.25264 0 -0.00611613)
(0.253699 0 -0.00620993)
(0.254468 0 -0.00629154)
(0.254964 0 -0.00636128)
(0.255192 0 -0.00641397)
(0.238596 0 0)
(0.241842 0 0)
(0.244661 0 0)
(0.247076 0 0)
(0.249115 0 0)
(0.250802 0 0)
(0.252158 0 0)
(0.253205 0 0)
(0.253963 0 0)
(0.25445 0 0)
(0.25467 0 0)
(0.346822 0 -0.0640118)
(0.34214 0 -0.0627764)
(0.342902 0 -0.0634083)
(0.343575 0 -0.0641324)
(0.337417 0 -0.0614774)
(0.338138 0 -0.0620369)
(0.338798 0 -0.0626783)
(0.332643 0 -0.060108)
(0.33332 0 -0.0606064)
(0.333953 0 -0.0611776)
(0.327813 0 -0.0586606)
(0.328443 0 -0.0591064)
(0.329039 0 -0.0596172)
(0.322926 0 -0.0571262)
(0.323506 0 -0.0575261)
(0.324059 0 -0.0579841)
(0.317983 0 -0.0554947)
(0.318512 0 -0.0558542)
(0.319018 0 -0.0562654)
(0.312991 0 -0.0537548)
(0.313469 0 -0.0540783)
(0.313923 0 -0.0544477)
(0.307959 0 -0.051894)
(0.308386 0 -0.0521851)
(0.308788 0 -0.0525171)
(0.302902 0 -0.0498983)
(0.30328 0 -0.0501603)
(0.303629 0 -0.0504583)
(0.297843 0 -0.0477522)
(0.298171 0 -0.0479877)
(0.298468 0 -0.0482549)
(0.292806 0 -0.045438)
(0.293088 0 -0.0456493)
(0.293333 0 -0.0458884)
(0.287827 0 -0.0429358)
(0.288064 0 -0.0431249)
(0.288258 0 -0.0433381)
(0.282944 0 -0.0402223)
(0.283138 0 -0.0403909)
(0.283285 0 -0.0405803)
(0.278206 0 -0.0372709)
(0.27836 0 -0.0374203)
(0.278462 0 -0.0375875)
(0.273668 0 -0.0340501)
(0.273786 0 -0.0341812)
(0.273845 0 -0.0343275)
(0.269398 0 -0.0305231)
(0.269481 0 -0.0306368)
(0.269502 0 -0.030763)
(0.265471 0 -0.0266466)
(0.265524 0 -0.0267431)
(0.26551 0 -0.0268496)
(0.261978 0 -0.0223692)
(0.262005 0 -0.0224483)
(0.26196 0 -0.0225351)
(0.259024 0 -0.0176293)
(0.259029 0 -0.0176907)
(0.258958 0 -0.0177577)
(0.256731 0 -0.0123522)
(0.256719 0 -0.012395)
(0.256629 0 -0.012441)
(0.255239 0 -0.00644563)
(0.255216 0 -0.00646794)
(0.255113 0 -0.00649121)
(0.254711 0 0)
(0.254685 0 0)
(0.254578 0 0)
(0.346822 0 -0.0640118)
(0.34214 0 -0.0627764)
(0.342902 0 -0.0634083)
(0.343575 0 -0.0641324)
(0.337417 0 -0.0614774)
(0.338138 0 -0.0620369)
(0.338798 0 -0.0626783)
(0.332643 0 -0.060108)
(0.33332 0 -0.0606064)
(0.333953 0 -0.0611776)
(0.327813 0 -0.0586606)
(0.328443 0 -0.0591064)
(0.329039 0 -0.0596172)
(0.322926 0 -0.0571262)
(0.323506 0 -0.0575261)
(0.324059 0 -0.0579841)
(0.317983 0 -0.0554947)
(0.318512 0 -0.0558542)
(0.319018 0 -0.0562654)
(0.312991 0 -0.0537548)
(0.313469 0 -0.0540783)
(0.313923 0 -0.0544477)
(0.307959 0 -0.051894)
(0.308386 0 -0.0521851)
(0.308788 0 -0.0525171)
(0.302902 0 -0.0498983)
(0.30328 0 -0.0501603)
(0.303629 0 -0.0504583)
(0.297843 0 -0.0477522)
(0.298171 0 -0.0479877)
(0.298468 0 -0.0482549)
(0.292806 0 -0.045438)
(0.293088 0 -0.0456493)
(0.293333 0 -0.0458884)
(0.287827 0 -0.0429358)
(0.288064 0 -0.0431249)
(0.288258 0 -0.0433381)
(0.282944 0 -0.0402223)
(0.283138 0 -0.0403909)
(0.283285 0 -0.0405803)
(0.278206 0 -0.0372709)
(0.27836 0 -0.0374203)
(0.278462 0 -0.0375875)
(0.273668 0 -0.0340501)
(0.273786 0 -0.0341812)
(0.273845 0 -0.0343275)
(0.269398 0 -0.0305231)
(0.269481 0 -0.0306368)
(0.269502 0 -0.030763)
(0.265471 0 -0.0266466)
(0.265524 0 -0.0267431)
(0.26551 0 -0.0268496)
(0.261978 0 -0.0223692)
(0.262005 0 -0.0224483)
(0.26196 0 -0.0225351)
(0.259024 0 -0.0176293)
(0.259029 0 -0.0176907)
(0.258958 0 -0.0177577)
(0.256731 0 -0.0123522)
(0.256719 0 -0.012395)
(0.256629 0 -0.012441)
(0.255239 0 -0.00644563)
(0.255216 0 -0.00646794)
(0.255113 0 -0.00649121)
(0.254711 0 0)
(0.254685 0 0)
(0.254578 0 0)
(0.344009 0 -0.0650305)
(0.339275 0 -0.0634756)
(0.339187 0 -0.0642188)
(0.338426 0 -0.0647665)
(0.337002 0 -0.0651014)
(0.334442 0 -0.0618887)
(0.334431 0 -0.0625533)
(0.333802 0 -0.063046)
(0.332553 0 -0.0633515)
(0.330694 0 -0.0634582)
(0.328227 0 -0.063354)
(0.329518 0 -0.0602533)
(0.329549 0 -0.0608485)
(0.329011 0 -0.0612911)
(0.327896 0 -0.061567)
(0.326197 0 -0.061665)
(0.323908 0 -0.0615741)
(0.321026 0 -0.0612857)
(0.317548 0 -0.0607958)
(0.324512 0 -0.0585542)
(0.324557 0 -0.0590876)
(0.324079 0 -0.0594845)
(0.323061 0 -0.0597318)
(0.321483 0 -0.059817)
(0.319337 0 -0.0597315)
(0.316613 0 -0.0594671)
(0.313298 0 -0.0590166)
(0.309383 0 -0.0583784)
(0.319433 0 -0.0567769)
(0.319472 0 -0.0572543)
(0.319026 0 -0.0576086)
(0.318072 0 -0.0578278)
(0.316585 0 -0.0578993)
(0.314552 0 -0.0578147)
(0.311956 0 -0.0575667)
(0.30878 0 -0.0571472)
(0.30501 0 -0.0565529)
(0.314291 0 -0.0549065)
(0.314307 0 -0.0553331)
(0.313871 0 -0.0556475)
(0.312954 0 -0.0558387)
(0.311532 0 -0.0558956)
(0.309585 0 -0.055809)
(0.307093 0 -0.0555724)
(0.304035 0 -0.0551782)
(0.300391 0 -0.0546209)
(0.309102 0 -0.0529283)
(0.309083 0 -0.0533085)
(0.308639 0 -0.0535858)
(0.307739 0 -0.05375)
(0.306359 0 -0.0537915)
(0.304477 0 -0.0537014)
(0.302069 0 -0.0534735)
(0.299108 0 -0.0531)
(0.29557 0 -0.0525741)
(0.303884 0 -0.0508264)
(0.303822 0 -0.0511644)
(0.303358 0 -0.0514077)
(0.302461 0 -0.0515469)
(0.301105 0 -0.0515736)
(0.299271 0 -0.0514796)
(0.296929 0 -0.051258)
(0.294044 0 -0.0509011)
(0.290593 0 -0.0504023)
(0.298663 0 -0.0485838)
(0.298551 0 -0.0488831)
(0.298057 0 -0.0490951)
(0.297152 0 -0.0492113)
(0.295808 0 -0.049224)
(0.294006 0 -0.0491258)
(0.29171 0 -0.0489087)
(0.288885 0 -0.048566)
(0.285509 0 -0.0480924)
(0.293467 0 -0.0461814)
(0.293301 0 -0.0464454)
(0.292771 0 -0.0466286)
(0.291847 0 -0.0467231)
(0.290504 0 -0.0467227)
(0.288719 0 -0.0466207)
(0.286458 0 -0.046408)
(0.283683 0 -0.0460795)
(0.280369 0 -0.0456298)
(0.288331 0 -0.0435983)
(0.28811 0 -0.0438301)
(0.28754 0 -0.0439872)
(0.286591 0 -0.0440621)
(0.285241 0 -0.0440504)
(0.283465 0 -0.0439456)
(0.281227 0 -0.0437387)
(0.278492 0 -0.0434244)
(0.275226 0 -0.0429969)
(0.283299 0 -0.0408105)
(0.283023 0 -0.0410131)
(0.28241 0 -0.0411472)
(0.281435 0 -0.0412059)
(0.280073 0 -0.0411845)
(0.278296 0 -0.0410771)
(0.276072 0 -0.0408765)
(0.273364 0 -0.0405765)
(0.270134 0 -0.0401714)
(0.278419 0 -0.03779)
(0.278089 0 -0.0379662)
(0.277435 0 -0.03808)
(0.276431 0 -0.0381247)
(0.275049 0 -0.0380947)
(0.273264 0 -0.0379858)
(0.271046 0 -0.0377923)
(0.268355 0 -0.0375078)
(0.265156 0 -0.0371272)
(0.273749 0 -0.0345039)
(0.273367 0 -0.0346552)
(0.27267 0 -0.0347499)
(0.271632 0 -0.0347818)
(0.270228 0 -0.034746)
(0.268433 0 -0.0346385)
(0.266215 0 -0.034454)
(0.263536 0 -0.0341867)
(0.260361 0 -0.0338333)
(0.269355 0 -0.0309145)
(0.268923 0 -0.0310426)
(0.268183 0 -0.0311186)
(0.267112 0 -0.0311391)
(0.265686 0 -0.0311008)
(0.263878 0 -0.0309978)
(0.261656 0 -0.0308255)
(0.258985 0 -0.0305788)
(0.255833 0 -0.0302567)
(0.265318 0 -0.0269769)
(0.264839 0 -0.0270829)
(0.264059 0 -0.0271433)
(0.262958 0 -0.0271554)
(0.26151 0 -0.0271164)
(0.259687 0 -0.0270208)
(0.257459 0 -0.0268647)
(0.254795 0 -0.0266443)
(0.251661 0 -0.0263578)
(0.261727 0 -0.0226383)
(0.261207 0 -0.0227221)
(0.260394 0 -0.0227692)
(0.259265 0 -0.0227765)
(0.257796 0 -0.0227393)
(0.255959 0 -0.0226545)
(0.253725 0 -0.0225188)
(0.251063 0 -0.0223294)
(0.24794 0 -0.0220836)
(0.258692 0 -0.017837)
(0.258138 0 -0.0179003)
(0.257296 0 -0.0179346)
(0.256144 0 -0.0179375)
(0.254655 0 -0.0179049)
(0.252804 0 -0.0178343)
(0.250563 0 -0.0177235)
(0.247902 0 -0.01757)
(0.244785 0 -0.0173715)
(0.256337 0 -0.0124955)
(0.255757 0 -0.0125388)
(0.254892 0 -0.0125611)
(0.25372 0 -0.0125606)
(0.252216 0 -0.0125351)
(0.250353 0 -0.012483)
(0.248105 0 -0.0124023)
(0.245442 0 -0.0122915)
(0.24233 0 -0.0121489)
(0.254804 0 -0.00651895)
(0.254208 0 -0.00654085)
(0.253328 0 -0.00655171)
(0.252142 0 -0.00655047)
(0.250627 0 -0.00653612)
(0.248757 0 -0.00650767)
(0.246504 0 -0.00646421)
(0.24384 0 -0.00640488)
(0.240729 0 -0.0063288)
(0.254263 0 0)
(0.25366 0 0)
(0.252775 0 0)
(0.251585 0 0)
(0.250066 0 0)
(0.248193 0 0)
(0.245938 0 0)
(0.243272 0 0)
(0.240162 0 0)
(0.344009 0 -0.0650305)
(0.339275 0 -0.0634756)
(0.339187 0 -0.0642188)
(0.338426 0 -0.0647665)
(0.337002 0 -0.0651014)
(0.334442 0 -0.0618887)
(0.334431 0 -0.0625533)
(0.333802 0 -0.063046)
(0.332553 0 -0.0633515)
(0.330694 0 -0.0634582)
(0.328227 0 -0.063354)
(0.329518 0 -0.0602533)
(0.329549 0 -0.0608485)
(0.329011 0 -0.0612911)
(0.327896 0 -0.061567)
(0.326197 0 -0.061665)
(0.323908 0 -0.0615741)
(0.321026 0 -0.0612857)
(0.317548 0 -0.0607958)
(0.324512 0 -0.0585542)
(0.324557 0 -0.0590876)
(0.324079 0 -0.0594845)
(0.323061 0 -0.0597318)
(0.321483 0 -0.059817)
(0.319337 0 -0.0597315)
(0.316613 0 -0.0594671)
(0.313298 0 -0.0590166)
(0.309383 0 -0.0583784)
(0.319433 0 -0.0567769)
(0.319472 0 -0.0572543)
(0.319026 0 -0.0576086)
(0.318072 0 -0.0578278)
(0.316585 0 -0.0578993)
(0.314552 0 -0.0578147)
(0.311956 0 -0.0575667)
(0.30878 0 -0.0571472)
(0.30501 0 -0.0565529)
(0.314291 0 -0.0549065)
(0.314307 0 -0.0553331)
(0.313871 0 -0.0556475)
(0.312954 0 -0.0558387)
(0.311532 0 -0.0558956)
(0.309585 0 -0.055809)
(0.307093 0 -0.0555724)
(0.304035 0 -0.0551782)
(0.300391 0 -0.0546209)
(0.309102 0 -0.0529283)
(0.309083 0 -0.0533085)
(0.308639 0 -0.0535858)
(0.307739 0 -0.05375)
(0.306359 0 -0.0537915)
(0.304477 0 -0.0537014)
(0.302069 0 -0.0534735)
(0.299108 0 -0.0531)
(0.29557 0 -0.0525741)
(0.303884 0 -0.0508264)
(0.303822 0 -0.0511644)
(0.303358 0 -0.0514077)
(0.302461 0 -0.0515469)
(0.301105 0 -0.0515736)
(0.299271 0 -0.0514796)
(0.296929 0 -0.051258)
(0.294044 0 -0.0509011)
(0.290593 0 -0.0504023)
(0.298663 0 -0.0485838)
(0.298551 0 -0.0488831)
(0.298057 0 -0.0490951)
(0.297152 0 -0.0492113)
(0.295808 0 -0.049224)
(0.294006 0 -0.0491258)
(0.29171 0 -0.0489087)
(0.288885 0 -0.048566)
(0.285509 0 -0.0480924)
(0.293467 0 -0.0461814)
(0.293301 0 -0.0464454)
(0.292771 0 -0.0466286)
(0.291847 0 -0.0467231)
(0.290504 0 -0.0467227)
(0.288719 0 -0.0466207)
(0.286458 0 -0.046408)
(0.283683 0 -0.0460795)
(0.280369 0 -0.0456298)
(0.288331 0 -0.0435983)
(0.28811 0 -0.0438301)
(0.28754 0 -0.0439872)
(0.286591 0 -0.0440621)
(0.285241 0 -0.0440504)
(0.283465 0 -0.0439456)
(0.281227 0 -0.0437387)
(0.278492 0 -0.0434244)
(0.275226 0 -0.0429969)
(0.283299 0 -0.0408105)
(0.283023 0 -0.0410131)
(0.28241 0 -0.0411472)
(0.281435 0 -0.0412059)
(0.280073 0 -0.0411845)
(0.278296 0 -0.0410771)
(0.276072 0 -0.0408765)
(0.273364 0 -0.0405765)
(0.270134 0 -0.0401714)
(0.278419 0 -0.03779)
(0.278089 0 -0.0379662)
(0.277435 0 -0.03808)
(0.276431 0 -0.0381247)
(0.275049 0 -0.0380947)
(0.273264 0 -0.0379858)
(0.271046 0 -0.0377923)
(0.268355 0 -0.0375078)
(0.265156 0 -0.0371272)
(0.273749 0 -0.0345039)
(0.273367 0 -0.0346552)
(0.27267 0 -0.0347499)
(0.271632 0 -0.0347818)
(0.270228 0 -0.034746)
(0.268433 0 -0.0346385)
(0.266215 0 -0.034454)
(0.263536 0 -0.0341867)
(0.260361 0 -0.0338333)
(0.269355 0 -0.0309145)
(0.268923 0 -0.0310426)
(0.268183 0 -0.0311186)
(0.267112 0 -0.0311391)
(0.265686 0 -0.0311008)
(0.263878 0 -0.0309978)
(0.261656 0 -0.0308255)
(0.258985 0 -0.0305788)
(0.255833 0 -0.0302567)
(0.265318 0 -0.0269769)
(0.264839 0 -0.0270829)
(0.264059 0 -0.0271433)
(0.262958 0 -0.0271554)
(0.26151 0 -0.0271164)
(0.259687 0 -0.0270208)
(0.257459 0 -0.0268647)
(0.254795 0 -0.0266443)
(0.251661 0 -0.0263578)
(0.261727 0 -0.0226383)
(0.261207 0 -0.0227221)
(0.260394 0 -0.0227692)
(0.259265 0 -0.0227765)
(0.257796 0 -0.0227393)
(0.255959 0 -0.0226545)
(0.253725 0 -0.0225188)
(0.251063 0 -0.0223294)
(0.24794 0 -0.0220836)
(0.258692 0 -0.017837)
(0.258138 0 -0.0179003)
(0.257296 0 -0.0179346)
(0.256144 0 -0.0179375)
(0.254655 0 -0.0179049)
(0.252804 0 -0.0178343)
(0.250563 0 -0.0177235)
(0.247902 0 -0.01757)
(0.244785 0 -0.0173715)
(0.256337 0 -0.0124955)
(0.255757 0 -0.0125388)
(0.254892 0 -0.0125611)
(0.25372 0 -0.0125606)
(0.252216 0 -0.0125351)
(0.250353 0 -0.012483)
(0.248105 0 -0.0124023)
(0.245442 0 -0.0122915)
(0.24233 0 -0.0121489)
(0.254804 0 -0.00651895)
(0.254208 0 -0.00654085)
(0.253328 0 -0.00655171)
(0.252142 0 -0.00655047)
(0.250627 0 -0.00653612)
(0.248757 0 -0.00650767)
(0.246504 0 -0.00646421)
(0.24384 0 -0.00640488)
(0.240729 0 -0.0063288)
(0.254263 0 0)
(0.25366 0 0)
(0.252775 0 0)
(0.251585 0 0)
(0.250066 0 0)
(0.248193 0 0)
(0.245938 0 0)
(0.243272 0 0)
(0.240162 0 0)
)
;

boundaryField
{
    inlet
    {
        type            fixedValue;
        value           nonuniform 0();
    }
    outlet
    {
        type            fixedValue;
        value           nonuniform 0();
    }
    flap
    {
        type            fixedValue;
        value           nonuniform 0();
    }
    upperWall
    {
        type            slip;
    }
    lowerWall
    {
        type            slip;
    }
    frontAndBack
    {
        type            empty;
    }
    procBoundary1to0
    {
        type            processor;
    }
    procBoundary1to2
    {
        type            processor;
    }
    procBoundary1to3
    {
        type            processor;
    }
    procBoundary1to4
    {
        type            processor;
    }
}


// ************************************************************************* //
