/*--------------------------------*- C++ -*----------------------------------*\
| =========                 |                                                 |
| \\      /  F ield         | OpenFOAM: The Open Source CFD Toolbox           |
|  \\    /   O peration     | Version:  dev                                   |
|   \\  /    A nd           | Web:      www.OpenFOAM.org                      |
|    \\/     M anipulation  |                                                 |
\*---------------------------------------------------------------------------*/
FoamFile
{
    version     2.0;
    format      ascii;
    class       surfaceScalarField;
    location    "1.03";
    object      phi;
}
// * * * * * * * * * * * * * * * * * * * * * * * * * * * * * * * * * * * * * //

dimensions      [0 3 -1 0 0 0 0];

internalField   nonuniform List<scalar> 
881
(
0.197848
0.00214609
0.195564
0.00228169
0.193104
0.00246544
0.190412
0.00270271
0.187483
0.0029447
0.184317
0.00318549
0.180903
0.0034332
0.177229
0.00369192
0.17328
0.00396298
0.169039
0.00424926
0.164487
0.00455511
0.159602
0.004883
0.154359
0.00523508
0.148733
0.00561342
0.142699
0.00601995
0.136225
0.00645702
0.129283
0.006926
0.121839
0.00742815
0.11386
0.00796461
0.105315
0.00853384
0.00913092
0.199634
0.0025053
0.198656
0.00325748
0.197373
0.00375296
0.195811
0.00427634
0.193961
0.00481044
0.191821
0.00534532
0.189383
0.00589017
0.186639
0.00645397
0.183577
0.00703989
0.180181
0.00765423
0.176433
0.00830644
0.172312
0.00900106
0.167797
0.00974284
0.162862
0.0105363
0.157481
0.0113862
0.151624
0.0122972
0.145258
0.0132753
0.138347
0.0143234
0.130855
0.0154424
0.122744
0.0166335
0.0178932
0.199491
0.00300744
0.198585
0.00416102
0.197374
0.00496861
0.195909
0.00575177
0.194189
0.0065468
0.192206
0.00734834
0.189955
0.00816086
0.18743
0.00899701
0.18462
0.00986478
0.18151
0.0107742
0.178083
0.0117366
0.174323
0.0127595
0.170207
0.0138508
0.165714
0.0150173
0.160818
0.0162673
0.15549
0.0176092
0.149695
0.0190538
0.143394
0.020608
0.136545
0.0222767
0.129101
0.0240659
0.025979
0.1994
0.00360018
0.198497
0.00506069
0.197301
0.00616955
0.19585
0.0072134
0.194152
0.00826182
0.1922
0.00931913
0.189992
0.0103889
0.187524
0.0114844
0.184783
0.0126208
0.181756
0.0138107
0.178433
0.0150643
0.174797
0.0163938
0.170831
0.0178097
0.166516
0.0193204
0.161831
0.0209375
0.156749
0.0226747
0.15124
0.0245466
0.145265
0.0265664
0.138781
0.0287464
0.131731
0.0311038
0.033651
0.199352
0.00423979
0.198442
0.00596799
0.197258
0.00735767
0.19582
0.0086622
0.194139
0.00995907
0.192214
0.011264
0.190038
0.0125852
0.187604
0.0139376
0.184903
0.0153373
0.181925
0.0167993
0.178658
0.0183363
0.175086
0.0199648
0.171193
0.0216965
0.166962
0.0235397
0.162375
0.0255108
0.157405
0.027628
0.152024
0.0299109
0.146194
0.03238
0.139869
0.0350564
0.132991
0.0379689
0.0411481
0.199328
0.00490348
0.198411
0.00688107
0.19724
0.00853216
0.195822
0.0100919
0.194165
0.0116319
0.19227
0.0131787
0.190129
0.0147469
0.187735
0.0163521
0.185078
0.0180106
0.182147
0.0197411
0.178929
0.02156
0.17541
0.023484
0.171574
0.0255262
0.167405
0.0276983
0.16288
0.0300215
0.157974
0.0325182
0.152655
0.0352128
0.146887
0.0381325
0.140612
0.0413157
0.133772
0.0447963
0.0486256
0.199319
0.00557532
0.1984
0.00779579
0.197243
0.00969295
0.195848
0.0114976
0.194221
0.0132748
0.192361
0.0150584
0.190262
0.016868
0.187915
0.0187188
0.18531
0.0206328
0.182432
0.0226314
0.179267
0.0247315
0.175805
0.0269473
0.172031
0.0292945
0.167926
0.0317942
0.16346
0.0344734
0.158605
0.0373579
0.153327
0.0404737
0.147584
0.0438592
0.14132
0.0475645
0.134465
0.0516371
0.056162
0.199319
0.00624586
0.198404
0.00870663
0.197263
0.0108363
0.195898
0.0128738
0.194307
0.0148814
0.19249
0.0168959
0.190439
0.0189405
0.188146
0.0210332
0.185597
0.0231993
0.182781
0.0254615
0.179683
0.0278373
0.17629
0.0303418
0.172586
0.0329947
0.168547
0.0358243
0.164144
0.0388631
0.159346
0.042141
0.154115
0.0456886
0.148393
0.049564
0.142126
0.0538165
0.135237
0.0585125
0.063774
0.199324
0.00691052
0.198418
0.00960691
0.1973
0.0119572
0.195967
0.0142165
0.194419
0.0164464
0.19265
0.0186851
0.190654
0.0209586
0.18842
0.0232889
0.185937
0.0257009
0.183194
0.0282197
0.180175
0.0308655
0.176863
0.0336566
0.173238
0.0366167
0.169276
0.0397784
0.164949
0.0431784
0.160223
0.0468526
0.15505
0.0508454
0.149376
0.0552224
0.143133
0.0600432
0.13622
0.0654117
0.0714526
0.199332
0.00756605
0.198442
0.0104903
0.19735
0.0130513
0.196054
0.0155223
0.194551
0.0179659
0.192836
0.0204209
0.190901
0.0229161
0.188736
0.0254761
0.186331
0.0281262
0.183671
0.0308958
0.180739
0.0338074
0.17752
0.0368808
0.17399
0.0401448
0.170125
0.0436374
0.165894
0.0473983
0.161263
0.0514697
0.156173
0.0559202
0.150572
0.0608078
0.14439
0.0662091
0.137521
0.0722662
0.0791229
0.199344
0.00820849
0.198475
0.0113516
0.197415
0.0141133
0.19616
0.0167863
0.194708
0.0194343
0.193053
0.0220969
0.191187
0.0248053
0.189099
0.0275865
0.186778
0.0304687
0.184209
0.0334821
0.181377
0.0366507
0.178265
0.0399992
0.17485
0.0435605
0.1711
0.047382
0.166988
0.051501
0.162477
0.0559679
0.157513
0.0608697
0.152039
0.0662667
0.145962
0.0722701
0.139191
0.0790227
0.086692
0.199359
0.00883425
0.198515
0.0121873
0.19749
0.0151392
0.196282
0.0180038
0.194886
0.0208463
0.193296
0.023707
0.191506
0.0266194
0.189502
0.0296137
0.187272
0.0327212
0.184806
0.0359668
0.182089
0.0393806
0.1791
0.0429963
0.175814
0.046849
0.172204
0.050989
0.168245
0.0554523
0.163888
0.0603134
0.159091
0.0656537
0.153795
0.0715472
0.147913
0.0781376
0.141335
0.0855855
0.094058
0.199376
0.00944104
0.198561
0.0129932
0.197575
0.0161253
0.196417
0.0191706
0.195082
0.0221969
0.193565
0.0252454
0.191856
0.028352
0.189944
0.0315497
0.187819
0.034869
0.185469
0.0383367
0.182877
0.0419883
0.180025
0.0458576
0.176887
0.0499918
0.173443
0.0544321
0.169666
0.059223
0.165513
0.0644568
0.16094
0.0702148
0.155876
0.0765966
0.150268
0.0837314
0.144022
0.0918172
0.101064
0.199396
0.0100267
0.198613
0.0137655
0.19767
0.0170674
0.196566
0.0202824
0.195298
0.0234811
0.193857
0.0267066
0.192237
0.0299962
0.190427
0.0333847
0.188418
0.0369018
0.186192
0.0405844
0.183735
0.0444619
0.181036
0.0485685
0.178071
0.0529631
0.174824
0.0576797
0.171259
0.0627845
0.167344
0.0683643
0.163048
0.0745
0.158309
0.0813223
0.153063
0.0889644
0.147262
0.0976044
0.107503
0.199414
0.198663
0.197764
0.0179641
0.196717
0.0213377
0.195516
0.0246974
0.194155
0.0280881
0.192627
0.0315482
0.190923
0.0351141
0.18903
0.0388202
0.186932
0.042704
0.184625
0.0467876
0.182089
0.0511182
0.179311
0.0557494
0.176276
0.0607187
0.17295
0.0661081
0.169304
0.0720053
0.165311
0.0784835
0.160953
0.0856689
0.156167
0.0937381
0.15093
0.102828
0.113194
0.205469
0.204453
0.0223615
0.20329
0.0258757
0.201975
0.0294237
0.200504
0.0330451
0.198863
0.0367817
0.197038
0.0406713
0.195026
0.0447401
0.192819
0.0490154
0.190402
0.0535514
0.187765
0.0583974
0.184885
0.0636042
0.181753
0.0692415
0.178347
0.0754075
0.174641
0.0821818
0.170644
0.0896561
0.166347
0.0980239
0.161736
0.107426
0.118059
0.209602
0.208498
0.0269939
0.207256
0.030688
0.205866
0.0344606
0.204317
0.0383582
0.202604
0.042412
0.200722
0.0466482
0.198658
0.0511018
0.196411
0.0558169
0.193975
0.0608472
0.191331
0.0662565
0.188468
0.072107
0.18539
0.0784847
0.182101
0.0854654
0.178608
0.0931411
0.174945
0.101677
0.171156
0.111203
0.121849
0.213872
0.212711
0.0318698
0.211416
0.0357822
0.209981
0.0398213
0.208404
0.0440173
0.206674
0.048406
0.204786
0.0530147
0.202742
0.057881
0.200542
0.0630626
0.198181
0.0686286
0.195649
0.0746444
0.192973
0.081162
0.190187
0.0882493
0.187305
0.0960168
0.1844
0.104573
0.181591
0.114001
0.124373
0.218338
0.217156
0.0369905
0.215856
0.0411501
0.214429
0.045474
0.212872
0.0499913
0.211193
0.0547204
0.209391
0.059705
0.207466
0.0650059
0.205422
0.0706858
0.203284
0.076791
0.201083
0.0833665
0.198858
0.0904741
0.196669
0.0982013
0.194628
0.106607
0.192893
0.115727
0.125559
0.223095
0.22194
0.0423327
0.220684
0.0467602
0.219333
0.0513724
0.217888
0.0561928
0.216356
0.0612611
0.214743
0.0666394
0.213068
0.0723766
0.211374
0.078495
0.209692
0.0850554
0.208084
0.0920839
0.206653
0.0996307
0.205527
0.107727
0.2049
0.116346
0.125428
0.228239
0.227182
0.226059
0.0525256
0.224871
0.0574096
0.223638
0.0625199
0.222372
0.0679272
0.221105
0.0736604
0.219883
0.0797303
0.218759
0.0861882
0.217822
0.0930244
0.217183
0.10027
0.216986
0.107922
0.217421
0.115906
0.124139
0.233041
0.232138
0.0583413
0.231232
0.0634529
0.23034
0.0688424
0.229511
0.0745082
0.228797
0.0804588
0.228275
0.0867209
0.22803
0.0932756
0.22817
0.100133
0.228838
0.107253
0.230187
0.114554
0.121935
0.239691
0.239132
0.238647
0.0693508
0.23829
0.074886
0.238112
0.0806523
0.238191
0.0866546
0.238604
0.0928712
0.239456
0.0992852
0.240869
0.105841
0.242969
0.112453
0.11901
0.247291
0.247407
0.24775
0.0803266
0.24839
0.0860277
0.249404
0.0918672
0.250887
0.0978088
0.25294
0.103791
0.255666
0.109728
0.115515
0.257616
0.25878
0.0848787
0.260343
0.0903154
0.262385
0.0957742
0.264989
0.101192
0.268231
0.106487
0.111581
0.269307
0.271367
0.273901
0.0932489
0.276972
0.0981275
0.280633
0.10283
0.107301
0.2854
0.288866
0.29287
0.0988316
0.102736
0.304952
)
;

boundaryField
{
    inlet
    {
        type            calculated;
        value           nonuniform List<scalar> 
15
(
-0.2
-0.2
-0.2
-0.2
-0.2
-0.2
-0.2
-0.2
-0.2
-0.2
-0.2
-0.2
-0.2
-0.2
-0.2
)
;
    }
    outlet
    {
        type            calculated;
        value           nonuniform 0();
    }
    flap
    {
        type            calculated;
        value           nonuniform 0();
    }
    upperWall
    {
        type            calculated;
        value           nonuniform 0();
    }
    lowerWall
    {
        type            calculated;
        value           uniform 0;
    }
    frontAndBack
    {
        type            empty;
        value           nonuniform 0();
    }
    procBoundary3to0
    {
        type            processor;
        value           nonuniform List<scalar> 
34
(
0.0105926
0.0145041
-0.206345
0.0188359
-0.21057
0.0233352
-0.214905
0.0280404
-0.219407
0.0329572
-0.224149
0.0380694
-0.229234
0.0433536
0.0478471
-0.233922
0.0534356
-0.240285
0.0589635
0.0640387
-0.247349
0.0694323
0.0747908
-0.256782
0.0795099
-0.267658
0.0832441
0.0882674
-0.282437
0.090296
0.0946686
-0.300659
0.0945444
0.0979404
)
;
    }
    procBoundary3to1
    {
        type            processor;
        value           nonuniform List<scalar> 9(0.205021 0.218701 0.232385 0.245888 0.259157 0.272165 0.284915 0.297438 0.309752);
    }
    procBoundary3to4
    {
        type            processor;
        value           nonuniform List<scalar> 
19
(
0.0961742
0.113972
0.121005
0.124049
0.125484
0.126283
0.126918
0.127612
0.128528
0.129837
0.131608
0.133955
0.137001
0.140808
0.145224
0.156857
0.16735
0.179053
0.191695
)
;
    }
}


// ************************************************************************* //
