/*--------------------------------*- C++ -*----------------------------------*\
| =========                 |                                                 |
| \\      /  F ield         | OpenFOAM: The Open Source CFD Toolbox           |
|  \\    /   O peration     | Version:  dev                                   |
|   \\  /    A nd           | Web:      www.OpenFOAM.org                      |
|    \\/     M anipulation  |                                                 |
\*---------------------------------------------------------------------------*/
FoamFile
{
    version     2.0;
    format      ascii;
    class       pointVectorField;
    location    "4";
    object      pointDisplacement;
}
// * * * * * * * * * * * * * * * * * * * * * * * * * * * * * * * * * * * * * //

dimensions      [0 1 0 0 0 0 0];

internalField   nonuniform List<vector> 
1034
(
(0.0110277 0 0)
(0.0117193 0 0)
(0.0122964 0 0)
(0.0127592 0 0)
(0.0131079 0 0)
(0.0133424 0 0)
(0.0134616 0 0)
(0.0134639 0 0)
(0.0133466 0 0)
(0.0131058 0 0)
(0.0127364 0 0)
(0.0122322 0 0)
(0.0115856 0 0)
(0.0107878 0 0)
(0.00982851 0 0)
(0.00869612 0 0)
(0.00737763 0 0)
(0.00585868 0 0)
(0.00412367 0 0)
(0.00215572 0 0)
(0 0 0)
(0.0111187 0 -7.41652e-05)
(0.0117947 0 -5.7606e-05)
(0.0123589 0 -4.43544e-05)
(0.012811 0 -3.37588e-05)
(0.0131508 0 -2.52982e-05)
(0.0133779 0 -1.85571e-05)
(0.013491 0 -1.32044e-05)
(0.0134882 0 -8.97638e-06)
(0.0133667 0 -5.66325e-06)
(0.0131223 0 -3.09775e-06)
(0.0127499 0 -1.14678e-06)
(0.0122433 0 2.95587e-07)
(0.0115946 0 1.31351e-06)
(0.0107951 0 1.97382e-06)
(0.00983433 0 2.32954e-06)
(0.0087007 0 2.4228e-06)
(0.00738113 0 2.28744e-06)
(0.00586122 0 1.95125e-06)
(0.00412534 0 1.43838e-06)
(0.00215652 0 7.71887e-07)
(0 0 0)
(0.0113867 0 -0.00014274)
(0.0120171 0 -0.000111115)
(0.0125435 0 -8.56914e-05)
(0.0129642 0 -6.52854e-05)
(0.013278 0 -4.8939e-05)
(0.0134833 0 -3.58797e-05)
(0.0135783 0 -2.54871e-05)
(0.0135605 0 -1.72637e-05)
(0.0134263 0 -1.08108e-05)
(0.0131715 0 -5.80968e-06)
(0.0127904 0 -2.00518e-06)
(0.0122764 0 8.06255e-07)
(0.0116217 0 2.78689e-06)
(0.010817 0 4.06584e-06)
(0.00985187 0 4.74578e-06)
(0.00871453 0 4.90844e-06)
(0.00739176 0 4.61949e-06)
(0.00586902 0 3.93295e-06)
(0.00413052 0 2.8958e-06)
(0.00215915 0 1.55297e-06)
(0 0 0)
(0.0118172 0 -0.000200866)
(0.0123757 0 -0.000156913)
(0.0128421 0 -0.000121315)
(0.0132126 0 -9.25645e-05)
(0.0134845 0 -6.94122e-05)
(0.0136549 0 -5.08343e-05)
(0.0137207 0 -3.59965e-05)
(0.0136785 0 -2.42215e-05)
(0.013524 0 -1.49614e-05)
(0.0132521 0 -7.77431e-06)
(0.0128568 0 -2.30427e-06)
(0.0123308 0 1.73443e-06)
(0.0116661 0 4.57066e-06)
(0.010853 0 6.3873e-06)
(0.00988073 0 7.33019e-06)
(0.00873731 0 7.51578e-06)
(0.00740928 0 7.03778e-06)
(0.00588187 0 5.97344e-06)
(0.00413906 0 4.38996e-06)
(0.00216346 0 2.35182e-06)
(0 0 0)
(0.0123881 0 -0.000244925)
(0.0128537 0 -0.000192212)
(0.0132416 0 -0.000149086)
(0.0135463 0 -0.000113957)
(0.0137628 0 -8.54644e-05)
(0.0138866 0 -6.24638e-05)
(0.0139135 0 -4.40025e-05)
(0.0138386 0 -2.92937e-05)
(0.0136567 0 -1.76921e-05)
(0.0133618 0 -8.67082e-06)
(0.0129472 0 -1.80143e-06)
(0.0124051 0 3.26286e-06)
(0.0117267 0 6.80178e-06)
(0.0109021 0 9.04009e-06)
(0.00992019 0 1.01579e-05)
(0.00876847 0 1.02994e-05)
(0.00743324 0 9.58114e-06)
(0.00589944 0 8.09923e-06)
(0.00415073 0 5.9375e-06)
(0.00216936 0 3.17656e-06)
(0 0 0)
(0.0130724 0 -0.000272792)
(0.01343 0 -0.000215241)
(0.0137259 0 -0.000167558)
(0.0139525 0 -0.0001283)
(0.0141029 0 -9.61714e-05)
(0.0141709 0 -7.00393e-05)
(0.0141507 0 -4.89339e-05)
(0.0140361 0 -3.20354e-05)
(0.0138208 0 -1.86579e-05)
(0.0134978 0 -8.23306e-06)
(0.0130595 0 -2.92346e-07)
(0.0124974 0 5.54752e-06)
(0.0118022 0 9.5985e-06)
(0.0109634 0 1.21131e-05)
(0.00996936 0 1.3295e-05)
(0.0088073 0 1.33078e-05)
(0.00746311 0 1.22843e-05)
(0.00592134 0 1.03342e-05)
(0.00416527 0 7.55349e-06)
(0.0021767 0 4.03454e-06)
(0 0 0)
(0.0138403 0 -0.00028385)
(0.0140812 0 -0.000225285)
(0.0142766 0 -0.000176027)
(0.0144168 0 -0.000134953)
(0.0144934 0 -0.000100976)
(0.0144987 0 -7.30908e-05)
(0.0144252 0 -5.0403e-05)
(0.0142654 0 -3.21314e-05)
(0.0140118 0 -1.76063e-05)
(0.0136564 0 -6.26058e-06)
(0.0131908 0 2.38045e-06)
(0.0126055 0 8.71092e-06)
(0.0118907 0 1.30552e-05)
(0.0110353 0 1.56783e-05)
(0.0100271 0 1.67956e-05)
(0.00885297 0 1.6581e-05)
(0.00749823 0 1.51762e-05)
(0.00594709 0 1.26984e-05)
(0.00418236 0 9.25053e-06)
(0.00218532 0 4.93188e-06)
(0 0 0)
(0.0146615 0 -0.000278802)
(0.0147831 0 -0.000222594)
(0.0148741 0 -0.00017449)
(0.0149236 0 -0.000133782)
(0.0149221 0 -9.96865e-05)
(0.0148602 0 -7.14126e-05)
(0.0147291 0 -4.82124e-05)
(0.0145202 0 -2.94043e-05)
(0.0142248 0 -1.43836e-05)
(0.0138339 0 -2.62449e-06)
(0.0133379 0 6.3228e-06)
(0.012727 0 1.28383e-05)
(0.0119904 0 1.72394e-05)
(0.0111164 0 1.97883e-05)
(0.0100923 0 2.06999e-05)
(0.0089045 0 2.0149e-05)
(0.00753788 0 1.82785e-05)
(0.00597615 0 1.52069e-05)
(0.00420163 0 1.10382e-05)
(0.00219505 0 5.87329e-06)
(0 0 0)
(0.0155073 0 -0.000259358)
(0.015512 0 -0.000208203)
(0.0154991 0 -0.000163541)
(0.0154574 0 -0.000125103)
(0.0153761 0 -9.24489e-05)
(0.0152451 0 -6.50485e-05)
(0.0150544 0 -4.23491e-05)
(0.0147941 0 -2.38119e-05)
(0.0144546 0 -8.93581e-06)
(0.0140259 0 2.7312e-06)
(0.0134977 0 1.15871e-05)
(0.0128592 0 1.79759e-05)
(0.012099 0 2.219e-05)
(0.0112048 0 2.44747e-05)
(0.0101635 0 2.50329e-05)
(0.00896081 0 2.40311e-05)
(0.00758121 0 2.16055e-05)
(0.00600791 0 1.78696e-05)
(0.00422269 0 1.29228e-05)
(0.00220566 0 6.86183e-06)
(0 0 0)
(0.0163512 0 -0.000227882)
(0.0162455 0 -0.000183701)
(0.0161331 0 -0.00014423)
(0.0160027 0 -0.000109596)
(0.0158432 0 -7.96914e-05)
(0.0156434 0 -5.42603e-05)
(0.0153927 0 -3.29657e-05)
(0.0150804 0 -1.54375e-05)
(0.0146958 0 -1.30305e-06)
(0.0142282 0 9.79214e-06)
(0.0136664 0 1.81735e-05)
(0.0129992 0 2.4131e-05)
(0.0122142 0 2.79173e-05)
(0.0112989 0 2.9748e-05)
(0.0102393 0 2.98041e-05)
(0.00902078 0 2.82349e-05)
(0.00762736 0 2.51631e-05)
(0.00604171 0 2.06908e-05)
(0.00424509 0 1.4907e-05)
(0.00221694 0 7.89882e-06)
(0 0 0)
(0.01717 0 -0.000187044)
(0.0169637 0 -0.000151004)
(0.0167592 0 -0.000117911)
(0.0165455 0 -8.8203e-05)
(0.0163113 0 -6.20621e-05)
(0.0160452 0 -3.94869e-05)
(0.015736 0 -2.03554e-05)
(0.0153724 0 -4.47339e-06)
(0.0149429 0 8.39038e-06)
(0.0144363 0 1.84795e-05)
(0.0138407 0 2.60328e-05)
(0.0131441 0 3.12737e-05)
(0.0123338 0 3.44033e-05)
(0.0113966 0 3.55978e-05)
(0.0103181 0 3.50072e-05)
(0.00908319 0 3.27568e-05)
(0.00767538 0 2.8949e-05)
(0.00607689 0 2.36689e-05)
(0.00426838 0 1.69899e-05)
(0.00222867 0 8.98374e-06)
(0 0 0)
(0.0179439 0 -0.00013955)
(0.0176492 0 -0.000112155)
(0.0173622 0 -8.61004e-05)
(0.0170727 0 -6.20331e-05)
(0.0167696 0 -4.03604e-05)
(0.0164415 0 -2.12983e-05)
(0.0160768 0 -4.92036e-06)
(0.0156638 0 8.79866e-06)
(0.0151909 0 1.99489e-05)
(0.0146459 0 2.86583e-05)
(0.0140169 0 3.50724e-05)
(0.013291 0 3.93402e-05)
(0.0124554 0 4.16042e-05)
(0.0114961 0 4.19935e-05)
(0.0103984 0 4.06211e-05)
(0.00914683 0 3.75817e-05)
(0.00772434 0 3.29526e-05)
(0.00611272 0 2.67965e-05)
(0.00429209 0 1.91667e-05)
(0.00224059 0 1.01143e-05)
(0 0 0)
(0.0186567 0 -8.7947e-05)
(0.0182872 0 -6.91701e-05)
(0.0179293 0 -5.03574e-05)
(0.0175732 0 -3.22702e-05)
(0.0172084 0 -1.54724e-05)
(0.0168238 0 -3.49635e-07)
(0.0164079 0 1.28595e-05)
(0.0159488 0 2.40302e-05)
(0.0154346 0 3.31208e-05)
(0.014853 0 4.01474e-05)
(0.0141916 0 4.51621e-05)
(0.0134372 0 4.82373e-05)
(0.0125766 0 4.94528e-05)
(0.0115954 0 4.88868e-05)
(0.0104787 0 4.66106e-05)
(0.00921044 0 4.26841e-05)
(0.00777326 0 3.71554e-05)
(0.00614848 0 3.00609e-05)
(0.00431572 0 2.14291e-05)
(0.00225246 0 1.12863e-05)
(0 0 0)
(0.0192957 0 -3.45223e-05)
(0.0188665 0 -2.3934e-05)
(0.01845 0 -1.21924e-05)
(0.0180376 0 -9.91407e-08)
(0.0176196 0 1.16876e-05)
(0.0171852 0 2.26626e-05)
(0.0167233 0 3.24594e-05)
(0.0162221 0 4.08288e-05)
(0.0156697 0 4.76145e-05)
(0.0150538 0 5.2731e-05)
(0.0143616 0 5.61428e-05)
(0.01358 0 5.78475e-05)
(0.0126952 0 5.78624e-05)
(0.0116928 0 5.62135e-05)
(0.0105575 0 5.29281e-05)
(0.00927282 0 4.80291e-05)
(0.00782118 0 4.15319e-05)
(0.00618346 0 3.34439e-05)
(0.00433879 0 2.37654e-05)
(0.00226403 0 1.24939e-05)
(0 0 0)
(0.0198524 0 1.87433e-05)
(0.0193785 0 2.18664e-05)
(0.0189165 0 2.70016e-05)
(0.0184588 0 3.3355e-05)
(0.0179965 0 4.02271e-05)
(0.0175196 0 4.70403e-05)
(0.0170176 0 5.33393e-05)
(0.016479 0 5.87804e-05)
(0.0158921 0 6.31149e-05)
(0.0152447 0 6.61706e-05)
(0.014524 0 6.78342e-05)
(0.0137168 0 6.8035e-05)
(0.0128091 0 6.67308e-05)
(0.0117865 0 6.38966e-05)
(0.0106332 0 5.95159e-05)
(0.00933275 0 5.35733e-05)
(0.00786714 0 4.60503e-05)
(0.00621692 0 3.6923e-05)
(0.00436079 0 2.6161e-05)
(0.00227504 0 1.37299e-05)
(0 0 0)
(0.0208441 0 7.76443e-05)
(0.0203268 0 7.07818e-05)
(0.0198229 0 6.72896e-05)
(0.0193277 0 6.64269e-05)
(0.0188352 0 6.74388e-05)
(0.0183374 0 6.96262e-05)
(0.0178254 0 7.23811e-05)
(0.0172892 0 7.51963e-05)
(0.016718 0 7.76636e-05)
(0.0161004 0 7.94649e-05)
(0.0154244 0 8.0359e-05)
(0.0146775 0 8.01671e-05)
(0.0138465 0 7.87583e-05)
(0.0129174 0 7.60364e-05)
(0.0118755 0 7.19283e-05)
(0.0107052 0 6.63748e-05)
(0.00938962 0 5.93226e-05)
(0.00791062 0 5.07186e-05)
(0.00624844 0 4.0506e-05)
(0.00438142 0 2.86221e-05)
(0.00228532 0 1.49976e-05)
(0 0 0)
(0.0110277 0 0)
(0.0117193 0 0)
(0.0122964 0 0)
(0.0127592 0 0)
(0.0131079 0 0)
(0.0133424 0 0)
(0.0134616 0 0)
(0.0134639 0 0)
(0.0133466 0 0)
(0.0131058 0 0)
(0.0127364 0 0)
(0.0122322 0 0)
(0.0115856 0 0)
(0.0107878 0 0)
(0.00982851 0 0)
(0.00869612 0 0)
(0.00737763 0 0)
(0.00585868 0 0)
(0.00412367 0 0)
(0.00215572 0 0)
(0 0 0)
(0.0111187 0 -7.41652e-05)
(0.0117947 0 -5.7606e-05)
(0.0123589 0 -4.43544e-05)
(0.012811 0 -3.37588e-05)
(0.0131508 0 -2.52982e-05)
(0.0133779 0 -1.85571e-05)
(0.013491 0 -1.32044e-05)
(0.0134882 0 -8.97638e-06)
(0.0133667 0 -5.66325e-06)
(0.0131223 0 -3.09775e-06)
(0.0127499 0 -1.14678e-06)
(0.0122433 0 2.95587e-07)
(0.0115946 0 1.31351e-06)
(0.0107951 0 1.97382e-06)
(0.00983433 0 2.32954e-06)
(0.0087007 0 2.4228e-06)
(0.00738113 0 2.28744e-06)
(0.00586122 0 1.95125e-06)
(0.00412534 0 1.43838e-06)
(0.00215652 0 7.71887e-07)
(0 0 0)
(0.0113867 0 -0.00014274)
(0.0120171 0 -0.000111115)
(0.0125435 0 -8.56914e-05)
(0.0129642 0 -6.52854e-05)
(0.013278 0 -4.8939e-05)
(0.0134833 0 -3.58797e-05)
(0.0135783 0 -2.54871e-05)
(0.0135605 0 -1.72637e-05)
(0.0134263 0 -1.08108e-05)
(0.0131715 0 -5.80968e-06)
(0.0127904 0 -2.00518e-06)
(0.0122764 0 8.06255e-07)
(0.0116217 0 2.78689e-06)
(0.010817 0 4.06584e-06)
(0.00985187 0 4.74578e-06)
(0.00871453 0 4.90844e-06)
(0.00739176 0 4.61949e-06)
(0.00586902 0 3.93295e-06)
(0.00413052 0 2.8958e-06)
(0.00215915 0 1.55297e-06)
(0 0 0)
(0.0118172 0 -0.000200866)
(0.0123757 0 -0.000156913)
(0.0128421 0 -0.000121315)
(0.0132126 0 -9.25645e-05)
(0.0134845 0 -6.94122e-05)
(0.0136549 0 -5.08343e-05)
(0.0137207 0 -3.59965e-05)
(0.0136785 0 -2.42215e-05)
(0.013524 0 -1.49614e-05)
(0.0132521 0 -7.77431e-06)
(0.0128568 0 -2.30427e-06)
(0.0123308 0 1.73443e-06)
(0.0116661 0 4.57066e-06)
(0.010853 0 6.3873e-06)
(0.00988073 0 7.33019e-06)
(0.00873731 0 7.51578e-06)
(0.00740928 0 7.03778e-06)
(0.00588187 0 5.97344e-06)
(0.00413906 0 4.38996e-06)
(0.00216346 0 2.35182e-06)
(0 0 0)
(0.0123881 0 -0.000244925)
(0.0128537 0 -0.000192212)
(0.0132416 0 -0.000149086)
(0.0135463 0 -0.000113957)
(0.0137628 0 -8.54644e-05)
(0.0138866 0 -6.24638e-05)
(0.0139135 0 -4.40025e-05)
(0.0138386 0 -2.92937e-05)
(0.0136567 0 -1.76921e-05)
(0.0133618 0 -8.67082e-06)
(0.0129472 0 -1.80143e-06)
(0.0124051 0 3.26286e-06)
(0.0117267 0 6.80178e-06)
(0.0109021 0 9.04009e-06)
(0.00992019 0 1.01579e-05)
(0.00876847 0 1.02994e-05)
(0.00743324 0 9.58114e-06)
(0.00589944 0 8.09923e-06)
(0.00415073 0 5.9375e-06)
(0.00216936 0 3.17656e-06)
(0 0 0)
(0.0130724 0 -0.000272792)
(0.01343 0 -0.000215241)
(0.0137259 0 -0.000167558)
(0.0139525 0 -0.0001283)
(0.0141029 0 -9.61714e-05)
(0.0141709 0 -7.00393e-05)
(0.0141507 0 -4.89339e-05)
(0.0140361 0 -3.20354e-05)
(0.0138208 0 -1.86579e-05)
(0.0134978 0 -8.23306e-06)
(0.0130595 0 -2.92346e-07)
(0.0124974 0 5.54752e-06)
(0.0118022 0 9.5985e-06)
(0.0109634 0 1.21131e-05)
(0.00996936 0 1.3295e-05)
(0.0088073 0 1.33078e-05)
(0.00746311 0 1.22843e-05)
(0.00592134 0 1.03342e-05)
(0.00416527 0 7.55349e-06)
(0.0021767 0 4.03454e-06)
(0 0 0)
(0.0138403 0 -0.00028385)
(0.0140812 0 -0.000225285)
(0.0142766 0 -0.000176027)
(0.0144168 0 -0.000134953)
(0.0144934 0 -0.000100976)
(0.0144987 0 -7.30908e-05)
(0.0144252 0 -5.0403e-05)
(0.0142654 0 -3.21314e-05)
(0.0140118 0 -1.76063e-05)
(0.0136564 0 -6.26058e-06)
(0.0131908 0 2.38045e-06)
(0.0126055 0 8.71092e-06)
(0.0118907 0 1.30552e-05)
(0.0110353 0 1.56783e-05)
(0.0100271 0 1.67956e-05)
(0.00885297 0 1.6581e-05)
(0.00749823 0 1.51762e-05)
(0.00594709 0 1.26984e-05)
(0.00418236 0 9.25053e-06)
(0.00218532 0 4.93188e-06)
(0 0 0)
(0.0146615 0 -0.000278802)
(0.0147831 0 -0.000222594)
(0.0148741 0 -0.00017449)
(0.0149236 0 -0.000133782)
(0.0149221 0 -9.96865e-05)
(0.0148602 0 -7.14126e-05)
(0.0147291 0 -4.82124e-05)
(0.0145202 0 -2.94043e-05)
(0.0142248 0 -1.43836e-05)
(0.0138339 0 -2.62449e-06)
(0.0133379 0 6.3228e-06)
(0.012727 0 1.28383e-05)
(0.0119904 0 1.72394e-05)
(0.0111164 0 1.97883e-05)
(0.0100923 0 2.06999e-05)
(0.0089045 0 2.0149e-05)
(0.00753788 0 1.82785e-05)
(0.00597615 0 1.52069e-05)
(0.00420163 0 1.10382e-05)
(0.00219505 0 5.87329e-06)
(0 0 0)
(0.0155073 0 -0.000259358)
(0.015512 0 -0.000208203)
(0.0154991 0 -0.000163541)
(0.0154574 0 -0.000125103)
(0.0153761 0 -9.24489e-05)
(0.0152451 0 -6.50485e-05)
(0.0150544 0 -4.23491e-05)
(0.0147941 0 -2.38119e-05)
(0.0144546 0 -8.93581e-06)
(0.0140259 0 2.7312e-06)
(0.0134977 0 1.15871e-05)
(0.0128592 0 1.79759e-05)
(0.012099 0 2.219e-05)
(0.0112048 0 2.44747e-05)
(0.0101635 0 2.50329e-05)
(0.00896081 0 2.40311e-05)
(0.00758121 0 2.16055e-05)
(0.00600791 0 1.78696e-05)
(0.00422269 0 1.29228e-05)
(0.00220566 0 6.86183e-06)
(0 0 0)
(0.0163512 0 -0.000227882)
(0.0162455 0 -0.000183701)
(0.0161331 0 -0.00014423)
(0.0160027 0 -0.000109596)
(0.0158432 0 -7.96914e-05)
(0.0156434 0 -5.42603e-05)
(0.0153927 0 -3.29657e-05)
(0.0150804 0 -1.54375e-05)
(0.0146958 0 -1.30305e-06)
(0.0142282 0 9.79214e-06)
(0.0136664 0 1.81735e-05)
(0.0129992 0 2.4131e-05)
(0.0122142 0 2.79173e-05)
(0.0112989 0 2.9748e-05)
(0.0102393 0 2.98041e-05)
(0.00902078 0 2.82349e-05)
(0.00762736 0 2.51631e-05)
(0.00604171 0 2.06908e-05)
(0.00424509 0 1.4907e-05)
(0.00221694 0 7.89882e-06)
(0 0 0)
(0.01717 0 -0.000187044)
(0.0169637 0 -0.000151004)
(0.0167592 0 -0.000117911)
(0.0165455 0 -8.8203e-05)
(0.0163113 0 -6.20621e-05)
(0.0160452 0 -3.94869e-05)
(0.015736 0 -2.03554e-05)
(0.0153724 0 -4.47339e-06)
(0.0149429 0 8.39038e-06)
(0.0144363 0 1.84795e-05)
(0.0138407 0 2.60328e-05)
(0.0131441 0 3.12737e-05)
(0.0123338 0 3.44033e-05)
(0.0113966 0 3.55978e-05)
(0.0103181 0 3.50072e-05)
(0.00908319 0 3.27568e-05)
(0.00767538 0 2.8949e-05)
(0.00607689 0 2.36689e-05)
(0.00426838 0 1.69899e-05)
(0.00222867 0 8.98374e-06)
(0 0 0)
(0.0179439 0 -0.00013955)
(0.0176492 0 -0.000112155)
(0.0173622 0 -8.61004e-05)
(0.0170727 0 -6.20331e-05)
(0.0167696 0 -4.03604e-05)
(0.0164415 0 -2.12983e-05)
(0.0160768 0 -4.92036e-06)
(0.0156638 0 8.79866e-06)
(0.0151909 0 1.99489e-05)
(0.0146459 0 2.86583e-05)
(0.0140169 0 3.50724e-05)
(0.013291 0 3.93402e-05)
(0.0124554 0 4.16042e-05)
(0.0114961 0 4.19935e-05)
(0.0103984 0 4.06211e-05)
(0.00914683 0 3.75817e-05)
(0.00772434 0 3.29526e-05)
(0.00611272 0 2.67965e-05)
(0.00429209 0 1.91667e-05)
(0.00224059 0 1.01143e-05)
(0 0 0)
(0.0186567 0 -8.7947e-05)
(0.0182872 0 -6.91701e-05)
(0.0179293 0 -5.03574e-05)
(0.0175732 0 -3.22702e-05)
(0.0172084 0 -1.54724e-05)
(0.0168238 0 -3.49635e-07)
(0.0164079 0 1.28595e-05)
(0.0159488 0 2.40302e-05)
(0.0154346 0 3.31208e-05)
(0.014853 0 4.01474e-05)
(0.0141916 0 4.51621e-05)
(0.0134372 0 4.82373e-05)
(0.0125766 0 4.94528e-05)
(0.0115954 0 4.88868e-05)
(0.0104787 0 4.66106e-05)
(0.00921044 0 4.26841e-05)
(0.00777326 0 3.71554e-05)
(0.00614848 0 3.00609e-05)
(0.00431572 0 2.14291e-05)
(0.00225246 0 1.12863e-05)
(0 0 0)
(0.0192957 0 -3.45223e-05)
(0.0188665 0 -2.3934e-05)
(0.01845 0 -1.21924e-05)
(0.0180376 0 -9.91407e-08)
(0.0176196 0 1.16876e-05)
(0.0171852 0 2.26626e-05)
(0.0167233 0 3.24594e-05)
(0.0162221 0 4.08288e-05)
(0.0156697 0 4.76145e-05)
(0.0150538 0 5.2731e-05)
(0.0143616 0 5.61428e-05)
(0.01358 0 5.78475e-05)
(0.0126952 0 5.78624e-05)
(0.0116928 0 5.62135e-05)
(0.0105575 0 5.29281e-05)
(0.00927282 0 4.80291e-05)
(0.00782118 0 4.15319e-05)
(0.00618346 0 3.34439e-05)
(0.00433879 0 2.37654e-05)
(0.00226403 0 1.24939e-05)
(0 0 0)
(0.0198524 0 1.87433e-05)
(0.0193785 0 2.18664e-05)
(0.0189165 0 2.70016e-05)
(0.0184588 0 3.3355e-05)
(0.0179965 0 4.02271e-05)
(0.0175196 0 4.70403e-05)
(0.0170176 0 5.33393e-05)
(0.016479 0 5.87804e-05)
(0.0158921 0 6.31149e-05)
(0.0152447 0 6.61706e-05)
(0.014524 0 6.78342e-05)
(0.0137168 0 6.8035e-05)
(0.0128091 0 6.67308e-05)
(0.0117865 0 6.38966e-05)
(0.0106332 0 5.95159e-05)
(0.00933275 0 5.35733e-05)
(0.00786714 0 4.60503e-05)
(0.00621692 0 3.6923e-05)
(0.00436079 0 2.6161e-05)
(0.00227504 0 1.37299e-05)
(0 0 0)
(0.0208441 0 7.76443e-05)
(0.0203268 0 7.07818e-05)
(0.0198229 0 6.72896e-05)
(0.0193277 0 6.64269e-05)
(0.0188352 0 6.74388e-05)
(0.0183374 0 6.96262e-05)
(0.0178254 0 7.23811e-05)
(0.0172892 0 7.51963e-05)
(0.016718 0 7.76636e-05)
(0.0161004 0 7.94649e-05)
(0.0154244 0 8.0359e-05)
(0.0146775 0 8.01671e-05)
(0.0138465 0 7.87583e-05)
(0.0129174 0 7.60364e-05)
(0.0118755 0 7.19283e-05)
(0.0107052 0 6.63748e-05)
(0.00938962 0 5.93226e-05)
(0.00791062 0 5.07186e-05)
(0.00624844 0 4.0506e-05)
(0.00438142 0 2.86221e-05)
(0.00228532 0 1.49976e-05)
(0 0 0)
(0.021254 0 0.000134418)
(0.0207254 0 0.00012142)
(0.020204 0 0.000112132)
(0.0196869 0 0.000105885)
(0.0191691 0 0.000101984)
(0.0186439 0 9.97572e-05)
(0.0181035 0 9.8601e-05)
(0.0175386 0 9.79871e-05)
(0.0169393 0 9.74697e-05)
(0.0162946 0 9.66836e-05)
(0.015593 0 9.53358e-05)
(0.0148222 0 9.3195e-05)
(0.013969 0 9.00794e-05)
(0.0130198 0 8.58446e-05)
(0.0119597 0 8.03735e-05)
(0.0107731 0 7.35664e-05)
(0.00944311 0 6.53325e-05)
(0.00795131 0 5.55841e-05)
(0.00627776 0 4.42305e-05)
(0.00440046 0 3.11748e-05)
(0.00229473 0 1.63107e-05)
(0 0 0)
(0.0215781 0 0.000188262)
(0.0210499 0 0.000170088)
(0.020522 0 0.000155813)
(0.0199927 0 0.000144825)
(0.0194583 0 0.000136488)
(0.0189134 0 0.000130179)
(0.018351 0 0.000125328)
(0.017763 0 0.000121406)
(0.0171401 0 0.000117953)
(0.0164721 0 0.000114578)
(0.0157479 0 0.000110951)
(0.0149555 0 0.000106803)
(0.0140822 0 0.000101911)
(0.0131144 0 9.60895e-05)
(0.0120374 0 8.91828e-05)
(0.0108356 0 8.10534e-05)
(0.00949201 0 7.15753e-05)
(0.00798821 0 6.06263e-05)
(0.00630407 0 4.80817e-05)
(0.00441734 0 3.38094e-05)
(0.00230299 0 1.76639e-05)
(0 0 0)
(0.0207776 0 0.000197652)
(0.0202442 0 0.000182581)
(0.0197007 0 0.00017034)
(0.0191428 0 0.000160348)
(0.0185646 0 0.00015208)
(0.0179588 0 0.000145039)
(0.0173169 0 0.000138763)
(0.0166295 0 0.000132854)
(0.0158859 0 0.000126962)
(0.0150747 0 0.000120792)
(0.0141835 0 0.00011409)
(0.013199 0 0.000106639)
(0.0121066 0 9.82491e-05)
(0.0108909 0 8.87498e-05)
(0.00953484 0 7.79822e-05)
(0.00802011 0 6.57915e-05)
(0.00632643 0 5.20195e-05)
(0.00443141 0 3.64986e-05)
(0.00230973 0 1.90436e-05)
(0 0 0)
(0.0198965 0 0.00020307)
(0.0193314 0 0.000189837)
(0.0187428 0 0.000178485)
(0.0181241 0 0.000168553)
(0.0174676 0 0.000159611)
(0.0167645 0 0.000151268)
(0.0160048 0 0.000143163)
(0.0151776 0 0.000134991)
(0.0142709 0 0.000126477)
(0.0132716 0 0.000117379)
(0.0121656 0 0.00010748)
(0.0109375 0 9.65814e-05)
(0.00957036 0 8.44945e-05)
(0.00804597 0 7.10341e-05)
(0.00634404 0 5.60101e-05)
(0.00444209 0 3.92197e-05)
(0.00231468 0 2.04378e-05)
(0 0 0)
(0.0194793 0 0.000218225)
(0.0188849 0 0.00020415)
(0.0182576 0 0.000191616)
(0.0175904 0 0.000180219)
(0.0168753 0 0.000169575)
(0.0161028 0 0.000159341)
(0.0152624 0 0.00014922)
(0.0143426 0 0.000138922)
(0.0133307 0 0.000128185)
(0.0122129 0 0.000116773)
(0.010974 0 0.000104464)
(0.00959738 0 9.10448e-05)
(0.0080648 0 7.63014e-05)
(0.00635611 0 6.0014e-05)
(0.00444885 0 4.1946e-05)
(0.00231753 0 2.1833e-05)
(0 0 0)
(0.0183588 0 0.000213861)
(0.0176845 0 0.000200255)
(0.0169605 0 0.000187512)
(0.0161782 0 0.000175285)
(0.0153274 0 0.000163294)
(0.014397 0 0.000151267)
(0.0133748 0 0.000138922)
(0.0122471 0 0.000126015)
(0.0109993 0 0.000112306)
(0.0096148 0 9.7558e-05)
(0.00807569 0 8.15341e-05)
(0.00636192 0 6.39866e-05)
(0.00445116 0 4.46472e-05)
(0.00231802 0 2.32137e-05)
(0 0 0)
(0.0170196 0 0.000204768)
(0.0162301 0 0.000190746)
(0.0153714 0 0.000177026)
(0.0144328 0 0.000163348)
(0.0134024 0 0.000149447)
(0.012267 0 0.000135086)
(0.0110121 0 0.000120006)
(0.00962165 0 0.000103952)
(0.0080778 0 8.66667e-05)
(0.00636081 0 6.78786e-05)
(0.00444857 0 4.72898e-05)
(0.00231592 0 2.45626e-05)
(0 0 0)
(0.0162578 0 0.00020543)
(0.0153936 0 0.000190155)
(0.014449 0 0.000174975)
(0.0134127 0 0.000159618)
(0.0122716 0 0.00014386)
(0.0110116 0 0.000127459)
(0.00961707 0 0.000110138)
(0.0080704 0 9.16284e-05)
(0.0063522 0 7.16364e-05)
(0.00444067 0 4.98371e-05)
(0.002311 0 2.58609e-05)
(0 0 0)
(0.0144453 0 0.000185897)
(0.0134049 0 0.000169246)
(0.0122601 0 0.000152209)
(0.0109971 0 0.000134555)
(0.00960039 0 0.000116022)
(0.00805293 0 9.63437e-05)
(0.00633564 0 7.52025e-05)
(0.00442715 0 5.22499e-05)
(0.00230311 0 2.70883e-05)
(0 0 0)
(0.0133787 0 0.000178095)
(0.0122321 0 0.000159928)
(0.0109679 0 0.000141157)
(0.00957108 0 0.000121511)
(0.00802493 0 0.000100733)
(0.00631076 0 7.8517e-05)
(0.00440774 0 5.44866e-05)
(0.00229211 0 2.82235e-05)
(0 0 0)
(0.010924 0 0.000147073)
(0.00952896 0 0.000126471)
(0.00798613 0 0.000104718)
(0.00627735 0 8.15181e-05)
(0.00438231 0 5.65033e-05)
(0.00227793 0 2.92438e-05)
(0 0 0)
(0.00947409 0 0.000130736)
(0.00793658 0 0.000108162)
(0.00623537 0 8.41265e-05)
(0.0043508 0 5.82585e-05)
(0.00226055 0 3.01259e-05)
(0 0 0)
(0.00618502 0 8.62336e-05)
(0.0043133 0 5.96878e-05)
(0.00224 0 3.08473e-05)
(0 0 0)
(0.00427008 0 6.07208e-05)
(0.00221641 0 3.13728e-05)
(0 0 0)
(0.00218996 0 3.1671e-05)
(0 0 0)
(0.021254 0 0.000134418)
(0.0207254 0 0.00012142)
(0.020204 0 0.000112132)
(0.0196869 0 0.000105885)
(0.0191691 0 0.000101984)
(0.0186439 0 9.97572e-05)
(0.0181035 0 9.8601e-05)
(0.0175386 0 9.79871e-05)
(0.0169393 0 9.74697e-05)
(0.0162946 0 9.66836e-05)
(0.015593 0 9.53358e-05)
(0.0148222 0 9.3195e-05)
(0.013969 0 9.00794e-05)
(0.0130198 0 8.58446e-05)
(0.0119597 0 8.03735e-05)
(0.0107731 0 7.35664e-05)
(0.00944311 0 6.53325e-05)
(0.00795131 0 5.55841e-05)
(0.00627776 0 4.42305e-05)
(0.00440046 0 3.11748e-05)
(0.00229473 0 1.63107e-05)
(0 0 0)
(0.0215781 0 0.000188262)
(0.0210499 0 0.000170088)
(0.020522 0 0.000155813)
(0.0199927 0 0.000144825)
(0.0194583 0 0.000136488)
(0.0189134 0 0.000130179)
(0.018351 0 0.000125328)
(0.017763 0 0.000121406)
(0.0171401 0 0.000117953)
(0.0164721 0 0.000114578)
(0.0157479 0 0.000110951)
(0.0149555 0 0.000106803)
(0.0140822 0 0.000101911)
(0.0131144 0 9.60895e-05)
(0.0120374 0 8.91828e-05)
(0.0108356 0 8.10534e-05)
(0.00949201 0 7.15753e-05)
(0.00798821 0 6.06263e-05)
(0.00630407 0 4.80817e-05)
(0.00441734 0 3.38094e-05)
(0.00230299 0 1.76639e-05)
(0 0 0)
(0.0207776 0 0.000197652)
(0.0202442 0 0.000182581)
(0.0197007 0 0.00017034)
(0.0191428 0 0.000160348)
(0.0185646 0 0.00015208)
(0.0179588 0 0.000145039)
(0.0173169 0 0.000138763)
(0.0166295 0 0.000132854)
(0.0158859 0 0.000126962)
(0.0150747 0 0.000120792)
(0.0141835 0 0.00011409)
(0.013199 0 0.000106639)
(0.0121066 0 9.82491e-05)
(0.0108909 0 8.87498e-05)
(0.00953484 0 7.79822e-05)
(0.00802011 0 6.57915e-05)
(0.00632643 0 5.20195e-05)
(0.00443141 0 3.64986e-05)
(0.00230973 0 1.90436e-05)
(0 0 0)
(0.0198965 0 0.00020307)
(0.0193314 0 0.000189837)
(0.0187428 0 0.000178485)
(0.0181241 0 0.000168553)
(0.0174676 0 0.000159611)
(0.0167645 0 0.000151268)
(0.0160048 0 0.000143163)
(0.0151776 0 0.000134991)
(0.0142709 0 0.000126477)
(0.0132716 0 0.000117379)
(0.0121656 0 0.00010748)
(0.0109375 0 9.65814e-05)
(0.00957036 0 8.44945e-05)
(0.00804597 0 7.10341e-05)
(0.00634404 0 5.60101e-05)
(0.00444209 0 3.92197e-05)
(0.00231468 0 2.04378e-05)
(0 0 0)
(0.0194793 0 0.000218225)
(0.0188849 0 0.00020415)
(0.0182576 0 0.000191616)
(0.0175904 0 0.000180219)
(0.0168753 0 0.000169575)
(0.0161028 0 0.000159341)
(0.0152624 0 0.00014922)
(0.0143426 0 0.000138922)
(0.0133307 0 0.000128185)
(0.0122129 0 0.000116773)
(0.010974 0 0.000104464)
(0.00959738 0 9.10448e-05)
(0.0080648 0 7.63014e-05)
(0.00635611 0 6.0014e-05)
(0.00444885 0 4.1946e-05)
(0.00231753 0 2.1833e-05)
(0 0 0)
(0.0183588 0 0.000213861)
(0.0176845 0 0.000200255)
(0.0169605 0 0.000187512)
(0.0161782 0 0.000175285)
(0.0153274 0 0.000163294)
(0.014397 0 0.000151267)
(0.0133748 0 0.000138922)
(0.0122471 0 0.000126015)
(0.0109993 0 0.000112306)
(0.0096148 0 9.7558e-05)
(0.00807569 0 8.15341e-05)
(0.00636192 0 6.39866e-05)
(0.00445116 0 4.46472e-05)
(0.00231802 0 2.32137e-05)
(0 0 0)
(0.0170196 0 0.000204768)
(0.0162301 0 0.000190746)
(0.0153714 0 0.000177026)
(0.0144328 0 0.000163348)
(0.0134024 0 0.000149447)
(0.012267 0 0.000135086)
(0.0110121 0 0.000120006)
(0.00962165 0 0.000103952)
(0.0080778 0 8.66667e-05)
(0.00636081 0 6.78786e-05)
(0.00444857 0 4.72898e-05)
(0.00231592 0 2.45626e-05)
(0 0 0)
(0.0162578 0 0.00020543)
(0.0153936 0 0.000190155)
(0.014449 0 0.000174975)
(0.0134127 0 0.000159618)
(0.0122716 0 0.00014386)
(0.0110116 0 0.000127459)
(0.00961707 0 0.000110138)
(0.0080704 0 9.16284e-05)
(0.0063522 0 7.16364e-05)
(0.00444067 0 4.98371e-05)
(0.002311 0 2.58609e-05)
(0 0 0)
(0.0144453 0 0.000185897)
(0.0134049 0 0.000169246)
(0.0122601 0 0.000152209)
(0.0109971 0 0.000134555)
(0.00960039 0 0.000116022)
(0.00805293 0 9.63437e-05)
(0.00633564 0 7.52025e-05)
(0.00442715 0 5.22499e-05)
(0.00230311 0 2.70883e-05)
(0 0 0)
(0.0133787 0 0.000178095)
(0.0122321 0 0.000159928)
(0.0109679 0 0.000141157)
(0.00957108 0 0.000121511)
(0.00802493 0 0.000100733)
(0.00631076 0 7.8517e-05)
(0.00440774 0 5.44866e-05)
(0.00229211 0 2.82235e-05)
(0 0 0)
(0.010924 0 0.000147073)
(0.00952896 0 0.000126471)
(0.00798613 0 0.000104718)
(0.00627735 0 8.15181e-05)
(0.00438231 0 5.65033e-05)
(0.00227793 0 2.92438e-05)
(0 0 0)
(0.00947409 0 0.000130736)
(0.00793658 0 0.000108162)
(0.00623537 0 8.41265e-05)
(0.0043508 0 5.82585e-05)
(0.00226055 0 3.01259e-05)
(0 0 0)
(0.00618502 0 8.62336e-05)
(0.0043133 0 5.96878e-05)
(0.00224 0 3.08473e-05)
(0 0 0)
(0.00427008 0 6.07208e-05)
(0.00221641 0 3.13728e-05)
(0 0 0)
(0.00218996 0 3.1671e-05)
(0 0 0)
)
;

boundaryField
{
    inlet
    {
        type            fixedValue;
        value           nonuniform 0();
    }
    outlet
    {
        type            fixedValue;
        value           uniform (0 0 0);
    }
    flap
    {
        type            fixedValue;
        value           nonuniform 0();
    }
    upperWall
    {
        type            slip;
    }
    lowerWall
    {
        type            slip;
    }
    frontAndBack
    {
        type            empty;
    }
    procBoundary5to2
    {
        type            processor;
    }
    procBoundary5to4
    {
        type            processor;
    }
}


// ************************************************************************* //
