/*--------------------------------*- C++ -*----------------------------------*\
| =========                 |                                                 |
| \\      /  F ield         | OpenFOAM: The Open Source CFD Toolbox           |
|  \\    /   O peration     | Version:  dev                                   |
|   \\  /    A nd           | Web:      www.OpenFOAM.org                      |
|    \\/     M anipulation  |                                                 |
\*---------------------------------------------------------------------------*/
FoamFile
{
    version     2.0;
    format      ascii;
    class       volVectorField;
    location    "4";
    object      U;
}
// * * * * * * * * * * * * * * * * * * * * * * * * * * * * * * * * * * * * * //

dimensions      [0 1 -1 0 0 0 0];

internalField   nonuniform List<vector> 
465
(
(1.1071 -3.30339e-22 0.0156549)
(1.0773 3.23119e-22 0.0173434)
(1.04366 -7.53686e-23 0.0171238)
(1.00996 0 0.0156573)
(0.978864 3.36841e-23 0.0133781)
(0.952216 3.16702e-23 0.0106264)
(0.931137 -1.48155e-23 0.00772328)
(0.915999 0 0.0049723)
(0.906481 4.93551e-23 0.00258861)
(0.901797 -4.82559e-23 0.0005906)
(0.901311 5.30715e-24 -0.00120092)
(0.905178 0 -0.00292482)
(0.913605 0 -0.00452436)
(0.926703 0 -0.0058154)
(0.943866 0 -0.00669054)
(0.964152 -2.29571e-24 -0.00735398)
(0.987178 1.74716e-24 -0.00828102)
(1.01378 5.77841e-25 -0.0098776)
(1.04536 -5.64976e-25 -0.0118147)
(1.0891 0 -0.0123673)
(1.19526 -1.66827e-22 0.0208815)
(1.19344 -1.58468e-22 0.0286952)
(1.18516 7.52675e-23 0.0311469)
(1.17427 0 0.0299123)
(1.16354 2.30342e-22 0.0262864)
(1.1548 -2.89744e-22 0.0213046)
(1.14891 1.47866e-23 0.0158406)
(1.1458 -2.75639e-23 0.0106392)
(1.14466 -2.54732e-23 0.00620685)
(1.14445 0 0.00258101)
(1.14434 6.55135e-23 -0.000703597)
(1.14379 -7.961e-23 -0.00420255)
(1.14338 4.22818e-24 -0.00803068)
(1.14373 0 -0.0116992)
(1.14513 0 -0.0145319)
(1.14727 0 -0.0163029)
(1.14949 -4.98986e-25 -0.0175481)
(1.15178 1.4278e-24 -0.0193454)
(1.15608 8.64687e-25 -0.0221128)
(1.16991 0 -0.0230794)
(1.02109 -1.18857e-21 0.00801227)
(1.03243 1.41039e-21 0.0237307)
(1.03665 -3.58337e-23 0.0308374)
(1.03675 -5.99187e-22 0.0316169)
(1.03453 -6.1703e-22 0.0281935)
(1.031 0 0.0223885)
(1.02635 0 0.0157136)
(1.02011 5.52848e-23 0.00946452)
(1.01132 5.10943e-23 0.0046451)
(0.998809 -2.34685e-23 0.00162594)
(0.981634 -7.11483e-23 -3.92552e-05)
(0.959875 7.99689e-23 -0.00125867)
(0.934653 5.99516e-23 -0.00267676)
(0.908346 -6.27719e-23 -0.00427667)
(0.883827 2.26621e-23 -0.00569247)
(0.863021 -4.0746e-24 -0.00683969)
(0.846499 -1.70659e-23 -0.00845964)
(0.833757 3.10433e-27 -0.0122281)
(0.826563 8.71299e-25 -0.0191811)
(0.827218 -5.89384e-25 -0.027085)
(0.759542 2.71141e-21 -0.00898375)
(0.773104 1.57314e-21 0.0127948)
(0.777148 -2.26742e-21 0.0246688)
(0.77489 1.16549e-21 0.0288714)
(0.767048 2.03669e-22 0.0281699)
(0.753096 0 0.0252098)
(0.732037 -4.66815e-22 0.0221311)
(0.703764 4.28703e-22 0.0204139)
(0.6701 -2.25084e-22 0.0206391)
(0.634168 3.63978e-23 0.0222108)
(0.598748 1.78126e-22 0.0235649)
(0.565665 -1.47163e-22 0.0230715)
(0.536423 2.17144e-22 0.0199365)
(0.512768 -6.32365e-23 0.0145108)
(0.495753 -1.49282e-27 0.007956)
(0.484156 1.29344e-24 0.00159545)
(0.47708 0 -0.00370768)
(0.471109 -1.43874e-24 -0.00948204)
(0.464178 -1.74312e-24 -0.018499)
(0.449669 5.90993e-25 -0.0343662)
(0.419973 2.72498e-21 -0.021146)
(0.416342 -3.19706e-22 0.0107176)
(0.40693 -1.52092e-22 0.0295577)
(0.391843 -9.92931e-22 0.0387055)
(0.37103 9.75792e-22 0.0427385)
(0.34573 0 0.0447265)
(0.3179 -5.30696e-22 0.0460452)
(0.289641 4.59845e-22 0.0467917)
(0.262807 4.01782e-22 0.046508)
(0.238675 -3.92815e-22 0.0447422)
(0.217769 -2.16516e-23 0.0411707)
(0.199892 0 0.035631)
(0.184407 -8.59353e-24 0.0283784)
(0.170826 0 0.0202127)
(0.158627 3.96165e-25 0.0121966)
(0.14645 -1.29702e-24 0.00534939)
(0.134578 0 0.000469036)
(0.127443 0 -0.00401383)
(0.108683 4.08125e-24 -0.0137088)
(0.0834352 -3.44765e-24 -0.0338413)
(0.0120187 -2.68788e-21 -0.00646401)
(0.00636069 5.18201e-21 0.0231946)
(-0.00208492 -2.49668e-21 0.0419461)
(-0.013501 -2.92097e-22 0.0529377)
(-0.0273625 1.38346e-22 0.0587546)
(-0.0426331 0 0.0612029)
(-0.0581318 1.21316e-22 0.0613714)
(-0.0730154 -5.65293e-23 0.0598204)
(-0.0867904 0 0.0568643)
(-0.0993731 3.6909e-22 0.0527297)
(-0.111138 -3.60825e-22 0.0475555)
(-0.122827 0 0.0414254)
(-0.135198 1.30859e-22 0.0345125)
(-0.148614 -2.40342e-22 0.0271753)
(-0.163077 1.09902e-22 0.0199475)
(-0.178554 0 0.0134762)
(-0.195065 0 0.0082689)
(-0.212053 -6.42363e-24 0.00331205)
(-0.229 7.35443e-24 -0.0065198)
(-0.248576 2.26968e-24 -0.0228511)
(-0.34161 3.06122e-21 -0.00424415)
(-0.347324 -2.65072e-21 0.0252677)
(-0.352293 2.44047e-21 0.0454368)
(-0.357193 -2.23797e-21 0.0578162)
(-0.36277 1.02916e-24 0.0644002)
(-0.36922 -1.1484e-21 0.0670236)
(-0.376516 9.34066e-22 0.0670424)
(-0.384627 5.63706e-23 0.0653298)
(-0.393586 0 0.0624089)
(-0.403513 -4.79803e-23 0.0585825)
(-0.414606 -9.49483e-26 0.0539877)
(-0.427062 1.68807e-22 0.0486433)
(-0.440929 -1.4585e-22 0.0425641)
(-0.456008 -1.12514e-22 0.0359033)
(-0.471963 1.09993e-22 0.0290782)
(-0.488699 -3.73778e-23 0.0228027)
(-0.506785 6.43882e-23 0.0176338)
(-0.527033 -1.52306e-23 0.0123721)
(-0.547865 -1.22988e-23 0.0028094)
(-0.561582 -1.11853e-24 -0.0110662)
(-0.630982 -3.53723e-21 0.00295172)
(-0.639214 -2.60396e-21 0.0286613)
(-0.644416 2.54316e-21 0.0471783)
(-0.647937 0 0.0592751)
(-0.651441 8.13194e-22 0.0663458)
(-0.656013 -1.95846e-21 0.069852)
(-0.662254 -1.45786e-23 0.0709367)
(-0.670414 9.30306e-22 0.0703462)
(-0.68048 0 0.0685154)
(-0.692281 -3.46617e-22 0.0656706)
(-0.705571 3.83801e-22 0.0618878)
(-0.720081 -1.95476e-23 0.0571551)
(-0.735544 -8.69343e-24 0.0514887)
(-0.751722 0 0.0450865)
(-0.768519 0 0.0384794)
(-0.786304 3.73229e-23 0.0325231)
(-0.806247 -3.64911e-23 0.0277431)
(-0.829474 -5.66781e-24 0.0227187)
(-0.852981 5.51898e-24 0.0138401)
(-0.865355 -2.16283e-24 0.00242974)
(-0.880117 3.14799e-21 0.0135116)
(-0.89317 -5.36932e-21 0.0345976)
(-0.902095 2.73709e-21 0.0505935)
(-0.908799 0 0.0618719)
(-0.915197 1.39563e-22 0.0693464)
(-0.922674 0 0.0739741)
(-0.931984 -4.24682e-25 0.0764608)
(-0.943328 -8.84546e-22 0.0772272)
(-0.956496 9.17002e-22 0.076511)
(-0.971082 -3.47282e-22 0.0744549)
(-0.98666 3.62858e-22 0.0711401)
(-1.00289 0 0.0666252)
(-1.01959 1.3027e-23 0.0610441)
(-1.03672 1.1819e-25 0.0547535)
(-1.05451 3.19956e-24 0.0484643)
(-1.07376 0 0.0431377)
(-1.09615 0 0.0391915)
(-1.12314 8.87022e-24 0.0350614)
(-1.15089 -5.52126e-24 0.027633)
(-1.16657 0 0.0185034)
(-1.11011 2.76461e-21 0.0282712)
(-1.12907 2.67882e-21 0.044747)
(-1.14367 -5.13328e-21 0.0579554)
(-1.15581 9.54053e-23 0.0680714)
(-1.1673 2.31089e-21 0.0756372)
(-1.17947 0 0.0811147)
(-1.19308 -8.98647e-22 0.0847027)
(-1.20822 1.7684e-21 0.0864371)
(-1.22459 -9.19885e-22 0.0863643)
(-1.24176 -3.72216e-22 0.0846103)
(-1.25939 2.74592e-23 0.0813452)
(-1.27732 3.38596e-22 0.0767606)
(-1.29554 -4.34444e-24 0.0711444)
(-1.31421 -1.17912e-25 0.0650237)
(-1.33368 -9.60192e-24 0.0592594)
(-1.35477 0 0.0548391)
(-1.37917 0 0.0520128)
(-1.40808 0 0.0490854)
(-1.4369 -3.14567e-24 0.0432136)
(-1.45237 0 0.0358348)
(-1.33314 3.68728e-22 0.0476324)
(-1.35828 0 0.0596909)
(-1.37911 -1.61465e-22 0.0699526)
(-1.39719 -2.54482e-21 0.0784936)
(-1.4141 2.33548e-21 0.0856595)
(-1.43123 0 0.0915066)
(-1.44931 0 0.0957258)
(-1.46841 -8.33943e-22 0.0979607)
(-1.48822 8.70702e-22 0.0981033)
(-1.50836 -2.42392e-23 0.0963269)
(-1.52864 -3.26206e-22 0.0929309)
(-1.54905 3.19765e-22 0.0882262)
(-1.56969 0 0.0825948)
(-1.59066 0 0.0766518)
(-1.61217 6.39485e-24 0.0713213)
(-1.63489 -1.04539e-23 0.0675722)
(-1.6605 0 0.0655769)
(-1.69022 1.08624e-23 0.063737)
(-1.71926 0 0.0595577)
(-1.73438 0 0.0540674)
(-1.55376 -1.85892e-22 0.0716259)
(-1.58452 0 0.079465)
(-1.611 2.58738e-21 0.086578)
(-1.63423 -2.45117e-21 0.0930647)
(-1.65571 1.12677e-21 0.0993402)
(-1.67696 -1.10063e-21 0.105159)
(-1.69881 0 0.109649)
(-1.72125 0 0.112001)
(-1.74382 -4.10596e-22 0.111968)
(-1.76611 4.49746e-22 0.109838)
(-1.78808 -2.20185e-23 0.106077)
(-1.80986 -3.06623e-22 0.101086)
(-1.83165 2.94887e-22 0.095272)
(-1.85351 1.21116e-22 0.0892761)
(-1.87556 -1.66639e-23 0.0840717)
(-1.89846 -7.12742e-23 0.0806607)
(-1.92399 -2.70478e-23 0.079251)
(-1.95351 1.56093e-23 0.0784128)
(-1.98218 -5.87532e-24 0.0758852)
(-1.99686 0 0.0721517)
(-1.76614 -3.12225e-21 0.099099)
(-1.80066 2.80606e-21 0.103082)
(-1.83097 -2.02332e-22 0.106758)
(-1.8573 -1.26031e-21 0.110552)
(-1.8812 -2.25807e-21 0.115432)
(-1.90467 1.11079e-21 0.120954)
(-1.92871 9.74669e-22 0.125476)
(-1.95309 -9.52254e-22 0.127574)
(-1.97703 0 0.12689)
(-2.00004 -2.42604e-23 0.123966)
(-2.02222 -3.22712e-22 0.119544)
(-2.04402 6.39242e-22 0.114109)
(-2.06576 -2.95883e-22 0.108008)
(-2.08752 -1.21552e-22 0.101843)
(-2.10932 9.84445e-23 0.0966184)
(-2.13179 2.69409e-23 0.0934104)
(-2.15683 -6.36438e-23 0.0925404)
(-2.18591 1.56628e-23 0.0927532)
(-2.21418 9.74229e-24 0.0918389)
(-2.22859 1.92476e-24 0.0896305)
(-1.95605 -2.45801e-23 0.127801)
(-1.99218 -2.87042e-21 0.128859)
(-2.02443 1.494e-21 0.128848)
(-2.05159 6.03551e-23 0.129139)
(-2.0755 2.28271e-21 0.13223)
(-2.09924 -1.12135e-21 0.137586)
(-2.1242 -3.16021e-23 0.142273)
(-2.14963 4.50567e-22 0.143929)
(-2.17408 -4.4027e-22 0.14216)
(-2.19688 -3.76783e-22 0.13804)
(-2.21844 2.29058e-23 0.132785)
(-2.23963 3.37851e-22 0.126932)
(-2.26098 1.33394e-22 0.120627)
(-2.2825 -1.15022e-22 0.114322)
(-2.30401 1.21296e-22 0.109035)
(-2.32606 -5.55226e-23 0.105973)
(-2.35062 -6.4048e-23 0.105665)
(-2.37932 3.98739e-23 0.107045)
(-2.40741 2.4042e-24 0.107771)
(-2.42177 0 0.106901)
(-2.10658 3.23942e-21 0.155304)
(-2.14287 1.70811e-23 0.155872)
(-2.17624 1.38693e-21 0.151926)
(-2.20237 -2.5638e-21 0.147286)
(-2.22392 2.38107e-21 0.148143)
(-2.24633 -1.13238e-21 0.154041)
(-2.27166 1.01514e-21 0.15953)
(-2.29805 -9.60967e-22 0.160706)
(-2.32278 4.14309e-22 0.157341)
(-2.34485 -4.04909e-22 0.151551)
(-2.3652 4.88701e-24 0.145361)
(-2.38545 -4.98894e-24 0.139289)
(-2.4064 0 0.133004)
(-2.42786 -1.30715e-22 0.126646)
(-2.44933 9.97467e-23 0.121242)
(-2.47113 1.65608e-23 0.11822)
(-2.49531 -3.72347e-23 0.118431)
(-2.52378 -1.08607e-23 0.121058)
(-2.55197 5.86028e-24 0.123494)
(-2.5665 -3.70649e-24 0.123839)
(-2.17984 5.14833e-23 0.183427)
(-2.20475 2.40958e-23 0.181102)
(-2.24198 5.09402e-23 0.184857)
(-2.27826 -2.09778e-23 0.175731)
(-2.30206 9.80919e-24 0.163094)
(-2.31822 1.12862e-21 0.161173)
(-2.33764 -2.13973e-21 0.169808)
(-2.36369 1.01327e-21 0.177806)
(-2.39193 4.35755e-22 0.178623)
(-2.41729 -8.25739e-22 0.172812)
(-2.43824 2.51434e-23 0.164571)
(-2.45686 3.52094e-22 0.157368)
(-2.47605 9.7434e-24 0.151523)
(-2.497 1.72821e-23 0.145681)
(-2.51906 0 0.139423)
(-2.54114 -7.24776e-23 0.133826)
(-2.5632 1.03759e-22 0.130682)
(-2.58732 -5.25841e-23 0.131314)
(-2.61586 1.08946e-23 0.135307)
(-2.64457 -5.63986e-24 0.139772)
(-2.65954 3.56947e-24 0.141499)
(-2.22747 -1.06582e-22 0.172921)
(-2.23305 1.00328e-22 0.180939)
(-2.27343 -1.33961e-22 0.212939)
(-2.31848 1.30869e-21 0.204091)
(-2.3384 -2.4741e-21 0.178147)
(-2.34347 1.17808e-21 0.170846)
(-2.35747 1.66055e-23 0.186344)
(-2.3862 1.50036e-23 0.199357)
(-2.41887 0 0.199174)
(-2.44582 0 0.188865)
(-2.46502 0 0.176599)
(-2.48092 -2.12997e-23 0.168345)
(-2.4989 1.36362e-22 0.163722)
(-2.5206 -1.59467e-22 0.159147)
(-2.54443 0 0.153245)
(-2.56824 2.50189e-23 0.147296)
(-2.59142 0 0.14372)
(-2.616 1.57817e-23 0.144534)
(-2.64494 -1.06343e-23 0.150006)
(-2.67468 1.17242e-23 0.157161)
(-2.69051 -3.68205e-24 0.16089)
(-2.19287 2.21106e-22 0.327305)
(-2.27576 1.32855e-21 0.275207)
(-2.29744 0 0.18476)
(-2.28118 -3.66744e-23 0.156523)
(-2.28513 1.68027e-23 0.193808)
(-2.3219 4.37234e-22 0.221176)
(-2.36408 -8.27626e-22 0.221287)
(-2.39371 4.03126e-22 0.204436)
(-2.40902 0 0.186261)
(-2.41951 -1.40217e-22 0.177547)
(-2.4354 1.5739e-22 0.176416)
(-2.45883 -3.36963e-23 0.174508)
(-2.48602 -1.09575e-22 0.169154)
(-2.51309 1.07126e-22 0.162402)
(-2.53863 -3.72449e-23 0.157827)
(-2.56449 3.64171e-23 0.158405)
(-2.5943 0 0.165319)
(-2.62565 -1.33892e-23 0.176021)
(-2.64293 5.52798e-24 0.182893)
(-2.1667 0 0.0547209)
(-2.08181 3.59095e-23 0.121079)
(-2.06146 4.63639e-22 0.243633)
(-2.12589 -4.63054e-23 0.289247)
(-2.19189 -8.01988e-23 0.271893)
(-2.228 -1.68636e-23 0.22973)
(-2.23608 -6.90159e-22 0.193379)
(-2.23627 3.41013e-22 0.182367)
(-2.24888 3.79092e-23 0.188782)
(-2.27616 1.9195e-22 0.191926)
(-2.30931 -1.22751e-22 0.18764)
(-2.34191 -2.50934e-23 0.179854)
(-2.37185 0 0.173902)
(-2.40085 1.40971e-23 0.173747)
(-2.43289 -3.75953e-23 0.181432)
(-2.46708 0 0.196207)
(-2.48688 0 0.208555)
(-0.814325 -5.65515e-22 0.21915)
(-1.37294 -6.40257e-23 0.240661)
(-1.66113 4.06408e-22 0.242297)
(-1.81238 -3.24405e-22 0.210493)
(-1.86955 -4.60571e-23 0.172203)
(-1.86689 -2.19736e-23 0.154296)
(-1.85191 -1.60618e-22 0.174828)
(-1.86652 -2.28923e-23 0.208081)
(-1.90857 1.39718e-22 0.220816)
(-1.95653 0 0.216177)
(-2.0014 -4.66632e-25 0.204542)
(-2.04207 0 0.19457)
(-2.08076 0 0.191299)
(-2.1204 2.33029e-23 0.197402)
(-2.16065 -5.51685e-25 0.216885)
(-2.18528 5.48071e-25 0.241985)
(2.10472 2.02621e-22 0.727835)
(1.41788 -2.46666e-22 0.5556)
(0.778028 -1.4212e-22 0.406873)
(0.187113 2.82318e-24 0.293543)
(-0.435618 2.20345e-22 0.235025)
(-0.799453 0 0.231982)
(-1.03271 2.92197e-23 0.22994)
(-1.19528 -6.02499e-23 0.222262)
(-1.31533 1.27858e-24 0.214539)
(-1.41186 1.2977e-23 0.21063)
(-1.49746 9.55583e-24 0.211834)
(-1.57317 -1.31071e-24 0.220771)
(-1.63493 1.82936e-23 0.249089)
(-1.67656 0 0.299179)
(4.62515 6.45256e-24 0.982814)
(3.97005 2.14003e-22 0.84169)
(3.33881 -1.67154e-22 0.722783)
(2.75405 3.83923e-23 0.61737)
(2.21284 0 0.526497)
(1.71321 -2.76694e-23 0.450495)
(1.25309 2.71705e-23 0.389894)
(0.831624 0 0.346025)
(0.452328 3.78542e-23 0.318687)
(0.121378 -1.48387e-24 0.304208)
(-0.150069 -1.5327e-23 0.299415)
(-0.540685 4.04908e-24 0.452282)
(7.55234 1.92598e-22 1.32987)
(6.96464 -7.0189e-24 1.18425)
(6.39551 -9.57579e-23 1.05511)
(5.84354 1.75936e-23 0.941135)
(5.30735 6.3201e-23 0.841809)
(4.78648 0 0.75667)
(4.28077 0 0.68514)
(3.79062 1.05087e-23 0.626667)
(3.31237 -8.07627e-24 0.582696)
(2.88093 -1.88296e-23 0.555668)
(2.24516 -3.8694e-24 0.623957)
(9.62373 1.91057e-23 1.45528)
(9.1303 2.00574e-23 1.32638)
(8.64175 -2.96863e-23 1.21287)
(8.15747 -5.52974e-23 1.11427)
(7.67692 2.51886e-23 1.03015)
(7.19938 -7.67255e-23 0.960426)
(6.72241 0 0.906621)
(6.2597 1.7873e-23 0.876571)
(5.65206 0 0.896086)
(11.9088 2.13977e-23 1.66532)
(11.4979 8.41648e-23 1.5433)
(11.085 0 1.43674)
(10.6699 5.98796e-23 1.34549)
(10.252 3.85612e-23 1.26978)
(9.83074 0 1.21112)
(9.41486 0 1.17456)
(8.88846 0 1.16322)
(13.4936 -7.27329e-23 1.7093)
(13.1603 -5.89569e-23 1.61513)
(12.8213 4.06963e-23 1.53671)
(12.4771 -1.67774e-23 1.47482)
(12.1349 -7.3661e-24 1.43069)
(11.7013 2.54045e-23 1.3992)
(15.1326 7.03143e-23 1.82898)
(14.8785 6.72213e-23 1.75041)
(14.6179 0 1.68707)
(14.3563 -3.46983e-23 1.63802)
(14.0191 -4.27516e-23 1.59648)
(16.264 3.56314e-23 1.84448)
(16.0818 -1.58096e-23 1.79425)
(15.8398 1.77005e-23 1.75022)
(17.35 -9.02362e-23 1.89975)
(17.1979 8.9996e-24 1.85834)
(18.1508 1.59147e-23 1.92153)
)
;

boundaryField
{
    inlet
    {
        type            fixedValue;
        value           nonuniform 0();
    }
    outlet
    {
        type            zeroGradient;
    }
    flap
    {
        type            movingWallVelocity;
        value           nonuniform 0();
    }
    upperWall
    {
        type            noSlip;
    }
    lowerWall
    {
        type            noSlip;
    }
    frontAndBack
    {
        type            empty;
    }
    procBoundary5to2
    {
        type            processor;
        value           nonuniform List<vector> 
34
(
(-2.22087 1.57382e-21 0.0572476)
(-2.1397 -9.5012e-24 0.230281)
(-2.1397 -9.5012e-24 0.230281)
(-1.92346 0 0.222816)
(-2.15211 -7.49808e-23 0.124664)
(-2.15211 -7.49808e-23 0.124664)
(0.564688 -1.29123e-21 0.456396)
(0.564688 -1.29123e-21 0.456396)
(3.69452 -3.80588e-22 1.13452)
(2.85903 5.85271e-22 0.920961)
(2.85903 5.85271e-22 0.920961)
(6.01019 1.53939e-22 1.35745)
(5.30626 -6.96249e-23 1.1553)
(5.30626 -6.96249e-23 1.1553)
(8.1556 1.56595e-22 1.49777)
(8.1556 1.56595e-22 1.49777)
(10.6289 5.00957e-23 1.76378)
(10.1231 0 1.60042)
(10.1231 0 1.60042)
(12.318 0 1.80313)
(12.318 0 1.80313)
(14.1422 3.56338e-22 1.94396)
(13.821 0 1.81891)
(13.821 0 1.81891)
(15.3791 1.07316e-22 1.9227)
(15.3791 1.07316e-22 1.9227)
(16.6134 5.04938e-22 1.98337)
(16.4425 -1.04859e-22 1.907)
(16.4425 -1.04859e-22 1.907)
(17.4588 -2.40041e-22 1.9478)
(17.4588 -2.40041e-22 1.9478)
(18.2219 9.34911e-23 1.95718)
(18.2219 9.34911e-23 1.95718)
(18.7689 2.99983e-23 1.94288)
)
;
    }
    procBoundary5to4
    {
        type            processor;
        value           nonuniform List<vector> 
18
(
(1.12799 0 0.0112007)
(1.18524 -1.21391e-21 0.00606842)
(0.997421 -1.56339e-21 -0.0177718)
(0.735153 3.51472e-22 -0.0418669)
(0.411548 2.78841e-21 -0.0631057)
(0.0193893 -3.56582e-22 -0.0483164)
(-0.32975 3.65931e-22 -0.0433675)
(-0.614897 -3.2705e-21 -0.0305975)
(-0.859893 -6.12178e-21 -0.0131744)
(-1.08499 3.0195e-21 0.0086206)
(-1.30211 0 0.0343745)
(-1.51768 3.15746e-21 0.0641535)
(-1.72735 2.24247e-22 0.0967654)
(-1.91783 1.63929e-24 0.129371)
(-2.07277 -1.63635e-24 0.157915)
(-2.07277 -1.63635e-24 0.157915)
(-2.15739 1.1027e-22 0.211661)
(-2.2135 -1.07553e-22 0.270663)
)
;
    }
}


// ************************************************************************* //
