/*--------------------------------*- C++ -*----------------------------------*\
| =========                 |                                                 |
| \\      /  F ield         | OpenFOAM: The Open Source CFD Toolbox           |
|  \\    /   O peration     | Version:  dev                                   |
|   \\  /    A nd           | Web:      www.OpenFOAM.org                      |
|    \\/     M anipulation  |                                                 |
\*---------------------------------------------------------------------------*/
FoamFile
{
    version     2.0;
    format      ascii;
    class       surfaceScalarField;
    location    "0.11";
    object      meshPhi;
}
// * * * * * * * * * * * * * * * * * * * * * * * * * * * * * * * * * * * * * //

dimensions      [0 3 -1 0 0 0 0];

internalField   nonuniform List<scalar> 
5457
(
7.20406e-08
-1.07136e-07
9.23865e-08
-3.03899e-07
2.69842e-08
-4.6888e-07
-1.37141e-07
-6.00822e-07
-3.95445e-07
-7.01243e-07
-7.30477e-07
-7.71364e-07
-1.116e-06
-8.12297e-07
-1.52108e-06
-8.25355e-07
-1.91383e-06
-8.12343e-07
-2.26466e-06
-7.75795e-07
-2.54882e-06
-7.19101e-07
-2.7482e-06
-6.46491e-07
-2.85232e-06
-5.62885e-07
-2.85855e-06
-4.73589e-07
-2.77166e-06
-3.83904e-07
-2.60272e-06
-2.98679e-07
-2.36771e-06
-2.21894e-07
-2.08572e-06
-1.56337e-07
-1.77716e-06
-1.03442e-07
-1.46218e-06
-6.33085e-08
-1.14881e-06
-3.52232e-08
-8.50158e-07
-1.75655e-08
-5.90853e-07
-7.54345e-09
-3.82416e-07
-2.41872e-09
-2.25805e-07
-2.37649e-10
-1.17584e-07
3.95261e-10
-5.08495e-08
3.76442e-10
-1.62673e-08
1.98875e-10
-3.17702e-09
7.19366e-11
-4.65586e-12
7.76102e-08
-2.14295e-07
1.01473e-07
-6.07857e-07
3.75496e-08
-9.37876e-07
-1.26797e-07
-1.2019e-06
-3.86913e-07
-1.40299e-06
-7.25137e-07
-1.54355e-06
-1.11494e-06
-1.62577e-06
-1.52504e-06
-1.65221e-06
-1.92316e-06
-1.62642e-06
-2.27935e-06
-1.55343e-06
-2.56849e-06
-1.43998e-06
-2.77215e-06
-1.29451e-06
-2.87961e-06
-1.12687e-06
-2.88807e-06
-9.4772e-07
-2.80222e-06
-7.67735e-07
-2.63315e-06
-5.96693e-07
-2.3969e-06
-4.4263e-07
-2.1127e-06
-3.11185e-07
-1.80112e-06
-2.05256e-07
-1.48227e-06
-1.2504e-07
-1.16551e-06
-6.90735e-08
-8.63453e-07
-3.40741e-08
-6.00219e-07
-1.44004e-08
-3.88624e-07
-4.46789e-09
-2.29583e-07
-3.12108e-10
-1.1964e-07
8.44262e-10
-5.18135e-08
7.65158e-10
-1.66394e-08
4.00629e-10
-3.28602e-09
1.36565e-10
3.80007e-11
8.09398e-08
-3.20933e-07
1.06368e-07
-9.10314e-07
4.22247e-08
-1.40454e-06
-1.23957e-07
-1.80005e-06
-3.87421e-07
-2.10143e-06
-7.30302e-07
-2.31226e-06
-1.12579e-06
-2.43575e-06
-1.54224e-06
-2.47567e-06
-1.94701e-06
-2.43725e-06
-2.30974e-06
-2.32793e-06
-2.60492e-06
-2.15775e-06
-2.81376e-06
-1.93936e-06
-2.92525e-06
-1.68752e-06
-2.93636e-06
-1.41829e-06
-2.85163e-06
-1.14775e-06
-2.68211e-06
-8.90692e-07
-2.44391e-06
-6.59288e-07
-2.15638e-06
-4.62073e-07
-1.84032e-06
-3.03427e-07
-1.5161e-06
-1.83617e-07
-1.19372e-06
-1.00387e-07
-8.85547e-07
-4.87649e-08
-6.16085e-07
-2.01579e-08
-3.9925e-07
-5.97702e-09
-2.36069e-07
-1.89042e-10
-1.23122e-07
1.32285e-09
-5.33554e-08
1.1277e-09
-1.71366e-08
5.73843e-10
-3.38379e-09
1.8795e-10
3.22938e-11
8.13403e-08
-4.26521e-07
1.06042e-07
-1.20978e-06
3.98292e-08
-1.86658e-06
-1.29806e-07
-2.39228e-06
-3.98027e-07
-2.79302e-06
-7.46786e-07
-3.07352e-06
-1.14901e-06
-3.23798e-06
-1.57275e-06
-3.2913e-06
-1.98499e-06
-3.24033e-06
-2.355e-06
-3.09488e-06
-2.65689e-06
-2.8682e-06
-2.8715e-06
-2.57707e-06
-2.98747e-06
-2.24118e-06
-3.00152e-06
-1.88197e-06
-2.91798e-06
-1.52098e-06
-2.74784e-06
-1.17809e-06
-2.50717e-06
-8.69651e-07
-2.21549e-06
-6.07153e-07
-1.89381e-06
-3.9646e-07
-1.56295e-06
-2.37872e-07
-1.23283e-06
-1.2831e-07
-9.16051e-07
-6.10969e-08
-6.3827e-07
-2.4542e-08
-4.14228e-07
-6.85048e-09
-2.45251e-07
1.32051e-10
-1.28044e-07
1.79804e-09
-5.55161e-08
1.43318e-09
-1.78194e-08
7.0373e-10
-3.50946e-09
2.24745e-10
3.37051e-11
8.1089e-08
-5.30704e-07
1.04439e-07
-1.50525e-06
3.53305e-08
-2.32245e-06
-1.38856e-07
-2.97665e-06
-4.13187e-07
-3.47553e-06
-7.69389e-07
-3.82493e-06
-1.18007e-06
-4.02997e-06
-1.61291e-06
-4.09664e-06
-2.03448e-06
-4.03334e-06
-2.41357e-06
-3.85209e-06
-2.72386e-06
-3.56932e-06
-2.94573e-06
-3.20585e-06
-3.06743e-06
-2.78623e-06
-3.08532e-06
-2.33729e-06
-3.0035e-06
-1.88609e-06
-2.8328e-06
-1.45763e-06
-2.58928e-06
-1.07256e-06
-2.29257e-06
-7.45362e-07
-1.96395e-06
-4.83426e-07
-1.62466e-06
-2.87036e-07
-1.28451e-06
-1.52259e-07
-9.56527e-07
-7.06837e-08
-6.67882e-07
-2.73484e-08
-4.34329e-07
-7.01746e-09
-2.57631e-07
6.5001e-10
-1.34722e-07
2.24554e-09
-5.84837e-08
1.66304e-09
-1.87917e-08
7.84522e-10
-3.70593e-09
2.42925e-10
4.46083e-11
8.04486e-08
-6.33123e-07
1.01983e-07
-1.79571e-06
2.92821e-08
-2.7706e-06
-1.50427e-07
-3.55118e-06
-4.32094e-07
-4.14665e-06
-7.97171e-07
-4.56397e-06
-1.2179e-06
-4.80915e-06
-1.66153e-06
-4.88917e-06
-2.09416e-06
-4.81385e-06
-2.48407e-06
-4.59736e-06
-2.80442e-06
-4.25914e-06
-3.03509e-06
-3.82398e-06
-3.16384e-06
-3.32122e-06
-3.18664e-06
-2.78304e-06
-3.10728e-06
-2.24204e-06
-2.93636e-06
-1.72842e-06
-2.68989e-06
-1.26721e-06
-2.38758e-06
-8.76006e-07
-2.05096e-06
-5.63733e-07
-1.70168e-06
-3.30645e-07
-1.34938e-06
-1.71903e-07
-1.00764e-06
-7.73166e-08
-7.05506e-07
-2.84744e-08
-4.60025e-07
-6.45408e-09
-2.73554e-07
1.34764e-09
-1.43361e-07
2.63786e-09
-6.23459e-08
1.79533e-09
-2.00592e-08
8.02616e-10
-3.95923e-09
2.38007e-10
3.80513e-11
7.97128e-08
-7.33444e-07
9.918e-08
-2.08022e-06
2.23563e-08
-3.20957e-06
-1.63697e-07
-4.11397e-06
-4.53769e-07
-4.80421e-06
-8.28988e-07
-5.2883e-06
-1.26119e-06
-5.57311e-06
-1.71714e-06
-5.66652e-06
-2.16243e-06
-5.57969e-06
-2.5648e-06
-5.32877e-06
-2.89683e-06
-4.93608e-06
-3.13786e-06
-4.43022e-06
-3.2751e-06
-3.84521e-06
-3.30407e-06
-3.21855e-06
-3.22814e-06
-2.58838e-06
-3.05767e-06
-1.99016e-06
-2.80853e-06
-1.4534e-06
-2.50041e-06
-9.98911e-07
-2.15508e-06
-6.37227e-07
-1.79458e-06
-3.68572e-07
-1.42823e-06
-1.87151e-07
-1.07022e-06
-8.09243e-08
-7.51927e-07
-2.78659e-08
-4.91974e-07
-5.12935e-09
-2.93502e-07
2.23732e-09
-1.54266e-07
2.97837e-09
-6.72571e-08
1.83144e-09
-2.16837e-08
7.59393e-10
-4.2873e-09
2.09952e-10
2.62956e-11
7.92155e-08
-8.31368e-07
9.66176e-08
-2.3579e-06
1.53282e-08
-3.63799e-06
-1.77723e-07
-4.66329e-06
-4.77094e-07
-5.44616e-06
-8.63532e-07
-5.99571e-06
-1.30842e-06
-6.31959e-06
-1.77802e-06
-6.42654e-06
-2.23741e-06
-6.3289e-06
-2.65375e-06
-6.04466e-06
-2.99903e-06
-5.59884e-06
-3.25198e-06
-5.02369e-06
-3.39926e-06
-4.35776e-06
-3.43583e-06
-3.64374e-06
-3.36463e-06
-2.92529e-06
-3.19565e-06
-2.24319e-06
-2.94451e-06
-1.63152e-06
-2.63086e-06
-1.11442e-06
-2.27656e-06
-7.04157e-07
-1.904e-06
-4.00964e-07
-1.52198e-06
-1.98054e-07
-1.14532e-06
-8.14635e-08
-8.08169e-07
-2.54124e-08
-5.3106e-07
-2.9149e-09
-3.18139e-07
3.42978e-09
-1.6786e-07
3.34654e-09
-7.34335e-08
1.82023e-09
-2.37447e-08
6.80303e-10
-4.70793e-09
1.67668e-10
2.69762e-11
7.93399e-08
-9.26629e-07
9.49639e-08
-2.628e-06
9.06274e-09
-4.05464e-06
-1.91465e-07
-5.19752e-06
-5.00843e-07
-6.07062e-06
-8.99366e-07
-6.68415e-06
-1.35793e-06
-7.04653e-06
-1.8423e-06
-7.16727e-06
-2.31701e-06
-7.05976e-06
-2.74866e-06
-6.74368e-06
-3.10864e-06
-6.24653e-06
-3.37507e-06
-5.60399e-06
-3.53401e-06
-4.85895e-06
-3.57983e-06
-4.05913e-06
-3.51494e-06
-3.25362e-06
-3.34889e-06
-2.48853e-06
-3.09696e-06
-1.80258e-06
-2.77857e-06
-1.22341e-06
-2.41558e-06
-7.65144e-07
-2.03063e-06
-4.28157e-07
-1.6317e-06
-2.04681e-07
-1.23424e-06
-7.87818e-08
-8.75563e-07
-2.08165e-08
-5.78482e-07
5.2802e-10
-3.4841e-07
5.22077e-09
-1.84765e-07
3.95383e-09
-8.11986e-08
1.88505e-09
-2.63573e-08
6.2145e-10
-5.24297e-09
1.32491e-10
1.34652e-11
8.05289e-08
-1.01901e-06
9.49716e-08
-2.88987e-06
4.49769e-09
-4.45846e-06
-2.03821e-07
-5.71521e-06
-5.2372e-07
-6.67585e-06
-9.34965e-07
-7.35171e-06
-1.40794e-06
-7.75199e-06
-1.90793e-06
-7.88689e-06
-2.39894e-06
-7.77075e-06
-2.84704e-06
-7.42472e-06
-3.22305e-06
-6.87856e-06
-3.50447e-06
-6.17113e-06
-3.67674e-06
-5.34937e-06
-3.73362e-06
-4.46584e-06
-3.67693e-06
-3.57489e-06
-3.51567e-06
-2.72787e-06
-3.26466e-06
-1.96825e-06
-2.94295e-06
-1.32726e-06
-2.57222e-06
-8.21149e-07
-2.17517e-06
-4.50599e-07
-1.75863e-06
-2.07002e-07
-1.33854e-06
-7.24762e-08
-9.55825e-07
-1.34549e-08
-6.35885e-07
5.87316e-09
-3.85681e-07
8.19272e-09
-2.05945e-07
5.21668e-09
-9.10974e-08
2.27039e-09
-2.97482e-08
6.97496e-10
-5.95241e-09
1.43431e-10
7.05727e-12
8.33032e-08
-1.10835e-06
9.74879e-08
-3.14299e-06
2.62647e-09
-4.84853e-06
-2.13659e-07
-6.21507e-06
-5.44405e-07
-7.26025e-06
-9.68769e-07
-7.99662e-06
-1.45662e-06
-8.43418e-06
-1.97277e-06
-8.58375e-06
-2.48077e-06
-8.46049e-06
-2.94622e-06
-8.08685e-06
-3.33938e-06
-7.49458e-06
-3.6372e-06
-6.72541e-06
-3.82448e-06
-5.83004e-06
-3.89437e-06
-4.86552e-06
-3.84804e-06
-3.89121e-06
-3.69386e-06
-2.96359e-06
-3.44603e-06
-2.13083e-06
-3.1231e-06
-1.42793e-06
-2.74632e-06
-8.73474e-07
-2.33824e-06
-4.68821e-07
-1.90408e-06
-2.04805e-07
-1.46009e-06
-6.17899e-08
-1.05114e-06
-2.26457e-09
-7.05506e-07
1.42461e-08
-4.31951e-07
1.33236e-08
-2.32902e-07
7.84121e-09
-1.04023e-07
3.39087e-09
-3.42891e-08
1.10008e-09
-6.92863e-09
2.68802e-10
4.82696e-11
8.82919e-08
-1.19456e-06
1.03478e-07
-3.38705e-06
4.47603e-09
-5.22415e-06
-2.19855e-07
-6.69596e-06
-5.61602e-07
-7.82237e-06
-9.99232e-07
-8.61724e-06
-1.50211e-06
-9.09137e-06
-2.03464e-06
-9.25624e-06
-2.56e-06
-9.1277e-06
-3.04337e-06
-8.72926e-06
-3.45458e-06
-8.09442e-06
-3.77004e-06
-7.26743e-06
-3.97397e-06
-6.30234e-06
-4.05889e-06
-5.26031e-06
-4.02529e-06
-4.20533e-06
-3.88083e-06
-3.19874e-06
-3.63901e-06
-2.29334e-06
-3.31764e-06
-1.52797e-06
-2.93735e-06
-9.23875e-07
-2.52024e-06
-4.83516e-07
-2.06936e-06
-1.9774e-07
-1.60099e-06
-4.56037e-08
-1.1642e-06
1.43005e-08
-7.90352e-07
2.7303e-08
-4.90152e-07
2.20954e-08
-2.68066e-07
1.2938e-08
-1.21563e-07
5.91381e-09
-4.06966e-08
2.12547e-09
-8.36485e-09
6.09299e-10
9.68081e-11
9.62864e-08
-1.27767e-06
1.14069e-07
-3.622e-06
1.10755e-08
-5.58494e-06
-2.21346e-07
-7.15706e-06
-5.74091e-07
-8.36105e-06
-1.02488e-06
-9.21215e-06
-1.54262e-06
-9.7221e-06
-2.09138e-06
-9.90302e-06
-2.63409e-06
-9.77132e-06
-3.13563e-06
-9.35139e-06
-3.56547e-06
-8.67818e-06
-3.89958e-06
-7.79809e-06
-4.12166e-06
-6.76808e-06
-4.22362e-06
-5.65289e-06
-4.20526e-06
-4.52067e-06
-4.07351e-06
-3.43721e-06
-3.84102e-06
-2.45967e-06
-3.52473e-06
-1.63081e-06
-3.14439e-06
-9.74808e-07
-2.72133e-06
-4.95783e-07
-2.25578e-06
-1.85508e-07
-1.76364e-06
-2.25644e-08
-1.29832e-06
3.82077e-08
-8.94401e-07
4.72439e-08
-5.64555e-07
3.65966e-08
-3.15455e-07
2.22086e-08
-1.46807e-07
1.09806e-08
-5.06595e-08
4.3266e-09
-1.08408e-08
1.32078e-09
2.07278e-10
1.08341e-07
-1.358e-06
1.30651e-07
-3.84857e-06
2.34156e-08
-5.93142e-06
-2.17177e-07
-7.59853e-06
-5.80797e-07
-8.87625e-06
-1.04441e-06
-9.78123e-06
-1.57652e-06
-1.03262e-05
-2.141e-06
-1.05241e-05
-2.70066e-06
-1.03918e-05
-3.22024e-06
-9.95423e-06
-3.66898e-06
-9.24752e-06
-4.0225e-06
-8.3199e-06
-4.26407e-06
-7.23068e-06
-4.38502e-06
-6.04761e-06
-4.38454e-06
-4.84233e-06
-4.26874e-06
-3.68454e-06
-4.04941e-06
-2.63541e-06
-3.7425e-06
-1.74146e-06
-3.36665e-06
-1.03004e-06
-2.94205e-06
-5.07599e-07
-2.46536e-06
-1.68149e-07
-1.95146e-06
8.79979e-09
-1.45818e-06
7.1861e-08
-1.0234e-06
7.69328e-08
-6.61704e-07
5.97474e-08
-3.81965e-07
3.83087e-08
-1.86198e-07
2.07405e-08
-6.89448e-08
9.10962e-09
-1.66605e-08
2.87451e-09
-2.62145e-10
1.19955e-07
-1.43161e-06
1.51227e-07
-4.06162e-06
4.29169e-08
-6.26477e-06
-2.06496e-07
-8.02508e-06
-5.80828e-07
-9.37275e-06
-1.05677e-06
-1.03295e-05
-1.60252e-06
-1.09091e-05
-2.18191e-06
-1.11252e-05
-2.75781e-06
-1.09952e-05
-3.29501e-06
-1.05442e-05
-3.76266e-06
-9.80931e-06
-4.13616e-06
-8.84019e-06
-4.39844e-06
-7.69802e-06
-4.54037e-06
-6.45283e-06
-4.56052e-06
-5.17906e-06
-4.46426e-06
-3.94959e-06
-4.26248e-06
-2.82906e-06
-3.97008e-06
-1.86745e-06
-3.60447e-06
-1.09545e-06
-3.18441e-06
-5.22425e-07
-2.70194e-06
-1.46423e-07
-2.16992e-06
4.99022e-08
-1.65069e-06
1.18055e-07
-1.18552e-06
1.19952e-07
-7.90813e-07
9.54302e-08
-4.77656e-07
6.50365e-08
-2.50322e-07
3.86692e-08
-1.0541e-07
1.94352e-08
-3.23766e-08
7.27593e-09
2.73691e-09
1.07456e-09
6.27561e-11
5.53523e-09
3.93305e-10
1.76119e-08
1.39885e-09
4.17914e-08
3.60854e-09
8.29598e-08
7.5263e-09
1.46304e-07
1.35316e-08
2.37136e-07
2.17281e-08
3.60616e-07
3.17713e-08
5.21384e-07
4.27277e-08
7.14301e-07
5.21402e-08
9.35259e-07
5.6306e-08
1.18822e-06
5.27689e-08
1.47086e-06
4.05202e-08
1.77544e-06
1.89492e-08
2.09132e-06
-1.16969e-08
2.40564e-06
-4.99493e-08
2.70409e-06
-9.32664e-08
2.97189e-06
-1.38377e-07
3.19457e-06
-1.81728e-07
3.35867e-06
-2.19938e-07
3.45221e-06
-2.50167e-07
3.46489e-06
-2.7035e-07
3.38823e-06
-2.79278e-07
3.21549e-06
-2.76529e-07
2.94155e-06
-2.62287e-07
2.56278e-06
-2.37087e-07
2.07694e-06
-2.0153e-07
1.48322e-06
-1.56004e-07
7.82329e-07
-1.00455e-07
-3.5288e-08
1.06361e-09
1.24009e-10
5.50209e-09
7.82956e-10
1.75279e-08
2.78372e-09
4.16023e-08
7.18867e-09
8.25858e-08
1.50145e-08
1.45648e-07
2.704e-08
2.36104e-07
4.34982e-08
3.59118e-07
6.37185e-08
5.19202e-07
8.58203e-08
7.12324e-07
1.04913e-07
9.34168e-07
1.13511e-07
1.18794e-06
1.065e-07
1.47193e-06
8.18838e-08
1.77819e-06
3.85399e-08
2.09592e-06
-2.30292e-08
2.41205e-06
-9.98404e-08
2.71211e-06
-1.86754e-07
2.98117e-06
-2.77178e-07
3.2047e-06
-3.63978e-07
3.36922e-06
-4.40383e-07
3.46274e-06
-5.00729e-07
3.47503e-06
-5.40915e-07
3.39767e-06
-5.5856e-07
3.22398e-06
-5.52859e-07
2.94889e-06
-5.24209e-07
2.56882e-06
-4.73706e-07
2.08157e-06
-4.02563e-07
1.48632e-06
-3.11564e-07
7.83816e-07
-2.00596e-07
-7.04591e-08
1.05209e-09
1.84648e-10
5.43349e-09
1.16159e-09
1.72913e-08
4.12749e-09
4.10124e-08
1.06678e-08
8.13738e-08
2.23264e-08
1.43472e-07
4.03204e-08
2.32589e-07
6.50694e-08
3.53921e-07
9.56312e-08
5.12081e-07
1.29198e-07
7.04041e-07
1.58431e-07
9.25677e-07
1.71933e-07
1.17981e-06
1.61735e-07
1.46504e-06
1.24847e-07
1.77332e-06
5.96877e-08
2.09358e-06
-3.29675e-08
2.41247e-06
-1.48568e-07
2.71523e-06
-2.79309e-07
2.9867e-06
-4.15219e-07
3.21217e-06
-5.45544e-07
3.37808e-06
-6.60119e-07
3.47242e-06
-7.50469e-07
3.48501e-06
-8.10499e-07
3.40746e-06
-8.36697e-07
3.23316e-06
-8.27911e-07
2.95713e-06
-7.8479e-07
2.57583e-06
-7.09008e-07
2.08709e-06
-6.02404e-07
1.49013e-06
-4.66156e-07
7.85744e-07
-3.00091e-07
-1.05399e-07
1.03016e-09
2.42291e-10
5.30865e-09
1.51279e-09
1.68703e-08
5.38541e-09
3.9968e-08
1.39533e-08
7.92276e-08
2.93042e-08
1.39611e-07
5.31508e-08
2.26336e-07
8.61875e-08
3.4467e-07
1.27291e-07
4.99505e-07
1.7278e-07
6.88703e-07
2.12802e-07
9.08857e-07
2.31847e-07
1.16279e-06
2.18948e-07
1.4491e-06
1.70085e-07
1.75962e-06
8.32094e-08
2.08304e-06
-4.06046e-08
2.40561e-06
-1.95173e-07
2.71217e-06
-3.69942e-07
2.98722e-06
-5.51488e-07
3.21578e-06
-7.25393e-07
3.38415e-06
-8.78089e-07
3.48027e-06
-9.98318e-07
3.49393e-06
-1.07803e-06
3.41683e-06
-1.11263e-06
3.24242e-06
-1.10068e-06
2.96578e-06
-1.0431e-06
2.58343e-06
-9.42174e-07
2.09325e-06
-8.00368e-07
1.49451e-06
-6.1926e-07
7.8804e-07
-3.98613e-07
-1.39995e-07
9.95076e-10
2.89724e-10
5.12566e-09
1.8298e-09
1.62732e-08
6.5317e-09
3.85045e-08
1.69881e-08
7.62357e-08
3.58558e-08
1.34245e-07
6.5417e-08
2.17668e-07
1.06752e-07
3.31877e-07
1.58668e-07
4.82109e-07
2.16664e-07
6.67371e-07
2.68266e-07
8.8534e-07
2.93616e-07
1.13889e-06
2.78591e-07
1.42651e-06
2.1808e-07
1.73993e-06
1.09554e-07
2.06747e-06
-4.55722e-08
2.39488e-06
-2.3938e-07
2.70649e-06
-4.58451e-07
2.98631e-06
-6.85812e-07
3.21904e-06
-9.03334e-07
3.39077e-06
-1.09404e-06
3.48936e-06
-1.24393e-06
3.50461e-06
-1.34305e-06
3.42827e-06
-1.38582e-06
3.25387e-06
-1.37055e-06
2.97657e-06
-1.29849e-06
2.59299e-06
-1.17256e-06
2.10107e-06
-9.95875e-07
1.5001e-06
-7.70406e-07
7.90993e-07
-4.95851e-07
-1.74135e-07
9.49953e-10
3.34096e-10
4.88647e-09
2.1104e-09
1.54913e-08
7.55924e-09
3.65968e-08
1.97556e-08
7.23574e-08
4.1958e-08
1.27325e-07
7.71062e-08
2.06542e-07
1.26793e-07
3.15522e-07
1.89866e-07
4.59943e-07
2.61047e-07
6.40205e-07
3.25096e-07
8.55354e-07
3.57541e-07
1.10837e-06
3.40937e-07
1.39758e-06
2.69017e-07
1.71456e-06
1.38767e-07
2.04718e-06
-4.79665e-08
2.38057e-06
-2.81395e-07
2.69839e-06
-5.45092e-07
2.9841e-06
-8.1843e-07
3.22201e-06
-1.07952e-06
3.39793e-06
-1.30798e-06
3.49963e-06
-1.48715e-06
3.51692e-06
-1.60526e-06
3.44161e-06
-1.65581e-06
3.26734e-06
-1.63696e-06
2.98936e-06
-1.55035e-06
2.60438e-06
-1.39956e-06
2.11041e-06
-1.18837e-06
1.50682e-06
-9.19146e-07
7.94549e-07
-5.91506e-07
-2.07714e-07
8.90127e-10
3.74204e-10
4.57378e-09
2.35632e-09
1.44812e-08
8.47614e-09
3.41622e-08
2.2279e-08
6.74651e-08
4.76641e-08
1.18686e-07
8.83243e-08
1.92777e-07
1.46493e-07
2.95449e-07
2.21163e-07
4.32929e-07
3.06279e-07
6.07251e-07
3.83648e-07
8.19055e-07
4.23894e-07
1.07147e-06
4.06082e-07
1.36263e-06
3.22754e-07
1.6839e-06
1.70454e-07
2.02256e-06
-4.83939e-08
2.36301e-06
-3.21947e-07
2.68814e-06
-6.30608e-07
2.98079e-06
-9.49991e-07
3.22476e-06
-1.25442e-06
3.40561e-06
-1.52017e-06
3.511e-06
-1.72799e-06
3.53073e-06
-1.86443e-06
3.4567e-06
-1.9222e-06
3.28265e-06
-1.89938e-06
3.00396e-06
-1.79808e-06
2.61742e-06
-1.62257e-06
2.12113e-06
-1.3773e-06
1.51454e-06
-1.06502e-06
7.98647e-07
-6.85279e-07
-2.40624e-07
8.07735e-10
4.05052e-10
4.15436e-09
2.57718e-09
1.31551e-08
9.31167e-09
3.10319e-08
2.4629e-08
6.12994e-08
5.31145e-08
1.07991e-07
9.93138e-08
1.75994e-07
1.66222e-07
2.71292e-07
2.53053e-07
4.00795e-07
3.52926e-07
5.68389e-07
4.44438e-07
7.76497e-07
4.92975e-07
1.02841e-06
4.73971e-07
1.32203e-06
3.78811e-07
1.64838e-06
2.03746e-07
1.99407e-06
-4.80034e-08
2.34262e-06
-3.62311e-07
2.67609e-06
-7.16237e-07
2.97658e-06
-1.08156e-06
3.22741e-06
-1.42883e-06
3.41383e-06
-1.73108e-06
3.52337e-06
-1.9666e-06
3.54588e-06
-2.12043e-06
3.47333e-06
-2.18461e-06
3.29958e-06
-2.15728e-06
3.02014e-06
-2.04107e-06
2.6319e-06
-1.84096e-06
2.13307e-06
-1.56209e-06
1.52316e-06
-1.20758e-06
8.0322e-07
-7.76861e-07
-2.72756e-07
6.91151e-10
4.38223e-10
3.5711e-09
2.78962e-09
1.1357e-08
1.01176e-08
2.69112e-08
2.69247e-08
5.34163e-08
5.85407e-08
9.4669e-08
1.10465e-07
1.55549e-07
1.8656e-07
2.42414e-07
2.86289e-07
3.63009e-07
4.01825e-07
5.23291e-07
5.08196e-07
7.27601e-07
5.65147e-07
9.79377e-07
5.4439e-07
1.27615e-06
4.36349e-07
1.60851e-06
2.37267e-07
1.96224e-06
-4.85155e-08
2.3199e-06
-4.04324e-07
2.66263e-06
-8.03717e-07
2.97176e-06
-1.2146e-06
3.23009e-06
-1.60384e-06
3.42259e-06
-1.94137e-06
3.53668e-06
-2.20324e-06
3.56222e-06
-2.37318e-06
3.49129e-06
-2.4427e-06
3.3179e-06
-2.41014e-06
3.03766e-06
-2.27869e-06
2.64761e-06
-2.0541e-06
2.14603e-06
-1.74215e-06
1.53252e-06
-1.34633e-06
8.08194e-07
-8.65941e-07
-3.04001e-07
5.09641e-10
4.74817e-10
2.7083e-09
3.01008e-09
8.81167e-09
1.09538e-08
2.13178e-08
2.93203e-08
4.31207e-08
6.42542e-08
7.78509e-08
1.22307e-07
1.30477e-07
2.08283e-07
2.07861e-07
3.21872e-07
3.1875e-07
4.54084e-07
4.71398e-07
5.75869e-07
6.7217e-07
6.40801e-07
9.24521e-07
6.16892e-07
1.22545e-06
4.94072e-07
1.56491e-06
2.69071e-07
1.92775e-06
-5.2248e-08
2.29547e-06
-4.50376e-07
2.64825e-06
-8.95249e-07
2.96667e-06
-1.35094e-06
3.233e-06
-1.78079e-06
3.43194e-06
-2.15187e-06
3.55083e-06
-2.43827e-06
3.57957e-06
-2.6226e-06
3.51037e-06
-2.69611e-06
3.33735e-06
-2.65738e-06
3.05628e-06
-2.51029e-06
2.66431e-06
-2.26131e-06
2.15982e-06
-1.91689e-06
1.54248e-06
-1.48081e-06
8.13487e-07
-9.52204e-07
-3.34246e-07
2.05907e-10
5.10993e-10
1.36692e-09
3.26405e-09
5.074e-09
1.19033e-08
1.35117e-08
3.20229e-08
2.93941e-08
7.06629e-08
5.63119e-08
1.35511e-07
9.94598e-08
2.32349e-07
1.66356e-07
3.61011e-07
2.66926e-07
5.1104e-07
4.11973e-07
6.48547e-07
6.09956e-07
7.20206e-07
8.64072e-07
6.90599e-07
1.17048e-06
5.50068e-07
1.51833e-06
2.96537e-07
1.89138e-06
-6.2149e-08
2.27005e-06
-5.03385e-07
2.63355e-06
-9.93435e-07
2.96172e-06
-1.49268e-06
3.23636e-06
-1.96116e-06
3.44194e-06
-2.36346e-06
3.56575e-06
-2.67199e-06
3.59777e-06
-2.86859e-06
3.53031e-06
-2.94438e-06
3.35766e-06
-2.89839e-06
3.07572e-06
-2.73515e-06
2.68173e-06
-2.4619e-06
2.1742e-06
-2.08566e-06
1.55287e-06
-1.6105e-06
8.19012e-07
-1.03532e-06
-3.63374e-07
-3.38231e-10
5.63757e-10
-8.111e-10
3.58865e-09
-5.88265e-10
1.30988e-08
2.36254e-09
3.5347e-08
1.07776e-08
7.83366e-08
2.8399e-08
1.50933e-07
6.08135e-08
2.59882e-07
1.16337e-07
4.05068e-07
2.06226e-07
5.74225e-07
3.4419e-07
7.2742e-07
5.40796e-07
8.03307e-07
7.98448e-07
7.63911e-07
1.11206e-06
6.01591e-07
1.46974e-06
3.16274e-07
1.85411e-06
-8.18153e-08
2.24449e-06
-5.66766e-07
2.61919e-06
-1.10121e-06
2.95737e-06
-1.64209e-06
3.24043e-06
-2.14654e-06
3.45267e-06
-2.57701e-06
3.58138e-06
-2.9047e-06
3.61664e-06
-3.11095e-06
3.55089e-06
-3.18704e-06
3.37855e-06
-3.13248e-06
3.09567e-06
-2.95252e-06
2.69961e-06
-2.65512e-06
2.18895e-06
-2.24783e-06
1.56353e-06
-1.7349e-06
8.24676e-07
-1.11496e-06
-3.91271e-07
-1.39137e-09
6.09535e-10
-4.52029e-09
4.0552e-09
-9.44444e-09
1.48018e-08
-1.39008e-08
3.98393e-08
-1.48132e-08
8.81311e-08
-8.05064e-09
1.69674e-07
1.2514e-08
2.92103e-07
5.60457e-08
4.55362e-07
1.35212e-07
6.45307e-07
2.67276e-07
8.13764e-07
4.64818e-07
8.89351e-07
7.28412e-07
8.33999e-07
1.05128e-06
6.44799e-07
1.42037e-06
3.24039e-07
1.81711e-06
-1.15461e-07
2.21979e-06
-6.44328e-07
2.60595e-06
-1.22173e-06
2.95417e-06
-1.80156e-06
3.24553e-06
-2.33847e-06
3.46424e-06
-2.79332e-06
3.59767e-06
-3.13655e-06
3.636e-06
-3.3494e-06
3.57183e-06
-3.42346e-06
3.39973e-06
-3.35887e-06
3.11585e-06
-3.16158e-06
2.71766e-06
-2.8402e-06
2.20383e-06
-2.40272e-06
1.57427e-06
-1.85349e-06
8.30379e-07
-1.19079e-06
-4.17819e-07
-3.78201e-09
7.73094e-10
-1.15183e-08
5.0512e-09
-2.41447e-08
1.78394e-08
-3.84432e-08
4.67617e-08
-5.06264e-08
1.01675e-07
-5.60034e-08
1.93487e-07
-4.78917e-08
3.30516e-07
-1.6437e-08
5.13123e-07
5.22045e-08
7.26571e-07
1.80539e-07
9.09748e-07
3.82694e-07
9.76591e-07
6.55201e-07
8.96139e-07
9.89612e-07
6.74626e-07
1.37171e-06
3.14746e-07
1.78171e-06
-1.67934e-07
2.19704e-06
-7.40401e-07
2.5947e-06
-1.35868e-06
2.95274e-06
-1.97399e-06
3.25202e-06
-2.53903e-06
3.47681e-06
-3.01366e-06
3.6146e-06
-3.36816e-06
3.65573e-06
-3.58405e-06
3.59294e-06
-3.65346e-06
3.42094e-06
-3.57719e-06
3.13597e-06
-3.36189e-06
2.73561e-06
-3.01671e-06
2.2186e-06
-2.54995e-06
1.58491e-06
-1.96596e-06
8.36022e-07
-1.26261e-06
-4.42944e-07
-1.14215e-08
2.59342e-09
-2.75815e-08
7.53099e-09
-5.0907e-08
2.38976e-08
-7.72449e-08
5.83559e-08
-1.02021e-07
1.21535e-07
-1.19932e-07
2.24794e-07
-1.23836e-07
3.76708e-07
-1.03626e-07
5.78754e-07
-4.32972e-08
8.10832e-07
8.51463e-08
9.97875e-07
2.95584e-07
1.04988e-06
5.80066e-07
9.4258e-07
9.28522e-07
6.85122e-07
1.32528e-06
2.82282e-07
1.7494e-06
-2.45638e-07
2.1776e-06
-8.61369e-07
2.58647e-06
-1.51787e-06
2.95383e-06
-2.16427e-06
3.26041e-06
-2.75216e-06
3.49068e-06
-3.24126e-06
3.63233e-06
-3.6022e-06
3.67586e-06
-3.81713e-06
3.61417e-06
-3.87891e-06
3.44207e-06
-3.78906e-06
3.15591e-06
-3.55483e-06
2.75333e-06
-3.1858e-06
2.23313e-06
-2.69046e-06
1.59535e-06
-2.07303e-06
8.41544e-07
-1.33087e-06
-4.66805e-07
1.25521e-07
-1.49446e-06
1.69687e-07
-4.24903e-06
6.88675e-08
-6.57492e-06
-1.94321e-07
-8.43927e-06
-5.94612e-07
-9.8595e-06
-1.10098e-06
-1.08661e-05
-1.68087e-06
-1.14805e-05
-2.29687e-06
-1.17169e-05
-2.91076e-06
-1.15929e-05
-3.48622e-06
-1.11334e-05
-3.99129e-06
-1.03761e-05
-4.40035e-06
-9.37192e-06
-4.69545e-06
-8.18335e-06
-4.86672e-06
-6.88193e-06
-4.91211e-06
-5.54411e-06
-4.83651e-06
-4.24519e-06
-4.65036e-06
-3.0526e-06
-4.36807e-06
-2.0194e-06
-4.00649e-06
-1.17952e-06
-3.58347e-06
-5.45693e-07
-3.08467e-06
-1.22068e-07
-2.51951e-06
1.02198e-07
-1.95728e-06
1.80249e-07
-1.44505e-06
1.81008e-07
-1.00132e-06
1.49153e-07
-6.39631e-07
1.08106e-07
-3.67046e-07
7.01234e-08
-1.82275e-07
4.01613e-08
-7.65129e-08
1.92846e-08
7.65014e-09
-2.55539e-08
1.17867e-07
-1.54968e-06
1.65451e-07
-4.40907e-06
8.26247e-08
-6.84157e-06
-1.72584e-07
-8.81899e-06
-5.8826e-07
-1.03322e-05
-1.11961e-06
-1.13951e-05
-1.72619e-06
-1.2044e-05
-2.37083e-06
-1.23038e-05
-3.01498e-06
-1.2191e-05
-3.622e-06
-1.17291e-05
-4.15932e-06
-1.09562e-05
-4.60078e-06
-9.92452e-06
-4.92784e-06
-8.6972e-06
-5.13013e-06
-7.34643e-06
-5.20509e-06
-5.94978e-06
-5.15711e-06
-4.58415e-06
-4.99614e-06
-3.31904e-06
-4.7361e-06
-2.21002e-06
-4.39331e-06
-1.29384e-06
-3.98475e-06
-5.86412e-07
-3.48884e-06
-9.94989e-08
-2.9066e-06
1.66055e-07
-2.31294e-06
2.61595e-07
-1.76287e-06
2.65085e-07
-1.27665e-06
2.27689e-07
-8.69766e-07
1.75666e-07
-5.51866e-07
1.23973e-07
-3.24465e-07
7.9886e-08
-1.80286e-07
4.63115e-08
2.41741e-08
-1.10477e-07
1.07599e-07
-1.59979e-06
1.46941e-07
-4.55061e-06
7.08211e-08
-7.06446e-06
-1.62831e-07
-9.13481e-06
-5.72122e-07
-1.07578e-05
-1.12244e-06
-1.1908e-05
-1.75649e-06
-1.26018e-05
-2.42948e-06
-1.28877e-05
-3.10392e-06
-1.2793e-05
-3.7431e-06
-1.23359e-05
-4.3139e-06
-1.15552e-05
-4.7897e-06
-1.05052e-05
-5.15151e-06
-9.24831e-06
-5.38853e-06
-7.85665e-06
-5.4978e-06
-6.40797e-06
-5.48335e-06
-4.97994e-06
-5.35481e-06
-3.64336e-06
-5.12592e-06
-2.45559e-06
-4.81311e-06
-1.45551e-06
-4.43408e-06
-6.60864e-07
-3.96252e-06
-8.86697e-08
-3.37753e-06
2.39589e-07
-2.75793e-06
3.62998e-07
-2.17611e-06
3.75045e-07
-1.65204e-06
3.37552e-07
-1.20424e-06
2.77779e-07
-8.43766e-07
2.13671e-07
-5.74834e-07
1.54545e-07
-3.92788e-07
1.04939e-07
6.69065e-08
-2.96475e-07
9.91447e-08
-1.64389e-06
1.28697e-07
-4.67608e-06
4.49004e-08
-7.2579e-06
-1.78814e-07
-9.39013e-06
-5.65224e-07
-1.10991e-05
-1.11159e-06
-1.23623e-05
-1.76706e-06
-1.31439e-05
-2.46855e-06
-1.34735e-05
-3.17287e-06
-1.34045e-05
-3.84464e-06
-1.29604e-05
-4.44996e-06
-1.218e-05
-4.96187e-06
-1.11219e-05
-5.361e-06
-9.84639e-06
-5.63625e-06
-8.42396e-06
-5.78438e-06
-6.93189e-06
-5.8092e-06
-5.44781e-06
-5.72014e-06
-4.04317e-06
-5.531e-06
-2.77661e-06
-5.25886e-06
-1.68875e-06
-4.92373e-06
-7.98769e-07
-4.49962e-06
-1.27048e-07
-3.93804e-06
2.90055e-07
-3.30982e-06
4.72211e-07
-2.70453e-06
5.11012e-07
-2.15018e-06
4.82432e-07
-1.67073e-06
4.24227e-07
-1.27559e-06
3.55468e-07
-9.71899e-07
2.86069e-07
-7.58059e-07
2.223e-07
1.68093e-07
-6.39664e-07
9.31599e-08
-1.68161e-06
1.1636e-07
-4.78364e-06
2.42503e-08
-7.42546e-06
-2.04834e-07
-9.60612e-06
-5.7911e-07
-1.13629e-05
-1.10392e-06
-1.27108e-05
-1.75907e-06
-1.36144e-05
-2.48276e-06
-1.40487e-05
-3.21672e-06
-1.4036e-05
-3.92144e-06
-1.36104e-05
-4.56197e-06
-1.28368e-05
-5.11143e-06
-1.1783e-05
-5.55003e-06
-1.05014e-05
-5.86653e-06
-9.05986e-06
-6.05742e-06
-7.53483e-06
-6.12649e-06
-6.00321e-06
-6.08302e-06
-4.53681e-06
-5.9406e-06
-3.19521e-06
-5.71642e-06
-2.02133e-06
-5.43114e-06
-1.0386e-06
-5.05454e-06
-2.77314e-07
-4.54003e-06
2.29383e-07
-3.94823e-06
5.07711e-07
-3.35282e-06
6.29113e-07
-2.7901e-06
6.53431e-07
-2.29098e-06
6.21529e-07
-1.87234e-06
5.63285e-07
-1.54617e-06
4.98234e-07
-1.31104e-06
4.33854e-07
3.75596e-07
-1.17737e-06
9.09566e-08
-1.71266e-06
1.11656e-07
-4.87245e-06
1.62587e-08
-7.56461e-06
-2.18108e-07
-9.78828e-06
-5.94836e-07
-1.15791e-05
-1.10712e-06
-1.29646e-05
-1.74591e-06
-1.39493e-05
-2.47442e-06
-1.45108e-05
-3.2319e-06
-1.46224e-05
-3.96746e-06
-1.42754e-05
-4.64384e-06
-1.35332e-05
-5.23184e-06
-1.24949e-05
-5.71135e-06
-1.12216e-05
-6.07128e-06
-9.77409e-06
-6.3077e-06
-8.2285e-06
-6.42474e-06
-6.66023e-06
-6.43137e-06
-5.1417e-06
-6.34054e-06
-3.73287e-06
-6.16829e-06
-2.47894e-06
-5.93276e-06
-1.40863e-06
-5.59067e-06
-5.62366e-07
-5.12081e-06
2.89519e-08
-4.59577e-06
4.07102e-07
-4.06303e-06
6.41894e-07
-3.54579e-06
7.74779e-07
-3.06526e-06
8.30464e-07
-2.64749e-06
8.33054e-07
-2.31262e-06
8.04851e-07
-2.06821e-06
7.64637e-07
7.28229e-07
-1.92977e-06
9.38726e-08
-1.73674e-06
1.17153e-07
-4.9417e-06
2.36262e-08
-7.67412e-06
-2.09823e-07
-9.93335e-06
-5.8789e-07
-1.17557e-05
-1.09984e-06
-1.31657e-05
-1.72849e-06
-1.41815e-05
-2.45018e-06
-1.48083e-05
-3.21735e-06
-1.50439e-05
-3.97687e-06
-1.4859e-05
-4.68908e-06
-1.42431e-05
-5.31609e-06
-1.3264e-05
-5.83677e-06
-1.20112e-05
-6.24126e-06
-1.05717e-05
-6.52411e-06
-9.02027e-06
-6.69119e-06
-7.42846e-06
-6.75085e-06
-5.87143e-06
-6.71491e-06
-4.40775e-06
-6.59797e-06
-3.08348e-06
-6.41553e-06
-1.93044e-06
-6.11448e-06
-9.91898e-07
-5.68338e-06
-3.01568e-07
-5.213e-06
1.79948e-07
-4.75563e-06
5.2388e-07
-4.32265e-06
7.72581e-07
-3.91772e-06
9.48836e-07
-3.55721e-06
1.07119e-06
-3.25306e-06
1.15013e-06
-3.02252e-06
1.19578e-06
1.22368e-06
-2.89128e-06
1.03256e-07
-1.75348e-06
1.3544e-07
-4.99035e-06
5.00548e-08
-7.75241e-06
-1.76179e-07
-1.00394e-05
-5.48314e-07
-1.18884e-05
-1.05702e-06
-1.33251e-05
-1.68173e-06
-1.43671e-05
-2.39681e-06
-1.50243e-05
-3.16401e-06
-1.53168e-05
-3.93904e-06
-1.52546e-05
-4.68455e-06
-1.48166e-05
-5.35331e-06
-1.39987e-05
-5.9185e-06
-1.28524e-05
-6.36709e-06
-1.1461e-05
-6.69391e-06
-9.91362e-06
-6.91118e-06
-8.311e-06
-7.02506e-06
-6.73342e-06
-7.04583e-06
-5.23196e-06
-6.98712e-06
-3.85195e-06
-6.86326e-06
-2.62693e-06
-6.61739e-06
-1.59907e-06
-6.23498e-06
-8.00618e-07
-5.81496e-06
-1.98629e-07
-5.41824e-06
2.65935e-07
-5.05593e-06
6.28069e-07
-4.73708e-06
9.15099e-07
-4.47047e-06
1.15459e-06
-4.25138e-06
1.36354e-06
-4.0872e-06
1.5513e-06
1.7288e-06
-4.01154e-06
1.20449e-07
-1.76255e-06
1.69101e-07
-5.01742e-06
9.92508e-08
-7.79796e-06
-1.12402e-07
-1.01045e-05
-4.71183e-07
-1.19748e-05
-9.68215e-07
-1.34358e-05
-1.58366e-06
-1.45063e-05
-2.29022e-06
-1.51998e-05
-3.0528e-06
-1.55312e-05
-3.83466e-06
-1.55226e-05
-4.60284e-06
-1.51874e-05
-5.31291e-06
-1.45326e-05
-5.93263e-06
-1.35788e-05
-6.43365e-06
-1.235e-05
-6.80417e-06
-1.089e-05
-7.06827e-06
-9.30834e-06
-7.23573e-06
-7.72731e-06
-7.31252e-06
-6.20971e-06
-7.31257e-06
-4.79343e-06
-7.24937e-06
-3.51386e-06
-7.0642e-06
-2.40812e-06
-6.7405e-06
-1.50314e-06
-6.38049e-06
-7.7653e-07
-6.04307e-06
-1.86678e-07
-5.73859e-06
2.93917e-07
-5.48221e-06
6.89259e-07
-5.28352e-06
1.02392e-06
-5.14596e-06
1.32383e-06
-5.0712e-06
1.61319e-06
1.89478e-06
-5.07881e-06
1.46743e-07
-1.76364e-06
2.20629e-07
-5.02206e-06
1.7481e-07
-7.8094e-06
-1.38639e-08
-1.01268e-05
-3.50895e-07
-1.20126e-05
-8.27855e-07
-1.3495e-05
-1.4255e-06
-1.45941e-05
-2.11675e-06