/*--------------------------------*- C++ -*----------------------------------*\
| =========                 |                                                 |
| \\      /  F ield         | OpenFOAM: The Open Source CFD Toolbox           |
|  \\    /   O peration     | Version:  dev                                   |
|   \\  /    A nd           | Web:      www.OpenFOAM.org                      |
|    \\/     M anipulation  |                                                 |
\*---------------------------------------------------------------------------*/
FoamFile
{
    version     2.0;
    format      ascii;
    class       volScalarField;
    location    "3.83";
    object      p;
}
// * * * * * * * * * * * * * * * * * * * * * * * * * * * * * * * * * * * * * //

dimensions      [0 2 -2 0 0 0 0];

internalField   nonuniform List<scalar> 
465
(
149.844
149.76
150.032
150.608
151.395
152.361
153.502
154.819
156.306
157.957
159.766
161.725
163.826
166.055
168.397
170.83
173.325
175.849
178.358
180.801
183.119
149.651
149.666
149.963
150.537
151.321
152.283
153.42
154.731
156.21
157.853
159.653
161.602
163.692
165.911
168.242
170.664
173.152
175.671
178.179
180.626
182.956
149.452
149.537
149.853
150.418
151.188
152.138
153.26
154.552
156.01
157.628
159.4
161.318
163.374
165.555
167.845
170.226
172.671
175.15
177.623
180.044
182.36
149.227
149.345
149.673
150.228
150.984
151.917
153.019
154.288
155.717
157.302
159.035
160.91
162.916
165.043
167.274
169.592
171.973
174.387
176.8
179.17
181.451
148.966
149.099
149.435
149.983
150.722
151.634
152.711
153.948
155.34
156.882
158.566
160.385
162.329
164.386
166.543
168.781
171.078
173.409
175.741
178.041
180.269
148.666
148.805
149.144
149.681
150.4
151.286
152.331
153.53
154.878
156.368
157.994
159.746
161.616
163.592
165.66
167.803
170
172.229
174.464
176.674
178.829
148.325
148.465
148.8
149.325
150.021
150.877
151.885
153.04
154.336
155.767
157.324
159.001
160.786
162.668
164.633
166.666
168.748
170.859
172.975
175.075
177.133
147.941
148.08
148.408
148.916
149.586
150.407
151.374
152.479
153.717
155.081
156.563
158.153
159.842
161.619
163.47
165.378
167.329
169.303
171.281
173.244
175.175
147.517
147.651
147.969
148.457
149.098
149.882
150.802
151.852
153.026
154.316
155.714
157.21
158.794
160.454
162.176
163.947
165.75
167.567
169.383
171.181
172.949
147.051
147.181
147.485
147.951
148.56
149.302
150.172
151.163
152.267
153.477
154.783
156.177
157.646
159.179
160.762
162.381
164.018
165.659
167.286
168.886
170.448
146.548
146.671
146.96
147.401
147.975
148.673
149.489
150.415
151.445
152.569
153.778
155.061
156.408
157.805
159.237
160.69
162.146
163.588
165
166.367
167.676
146.007
146.123
146.395
146.809
147.346
147.997
148.755
149.614
150.564
151.598
152.704
153.872
155.088
156.34
157.611
158.886
160.145
161.37
162.541
163.639
164.646
145.432
145.54
145.793
146.178
146.676
147.277
147.976
148.763
149.632
150.57
151.569
152.615
153.696
154.796
155.898
156.983
158.032
159.021
159.927
160.725
161.386
144.824
144.924
145.158
145.512
145.969
146.519
147.155
147.869
148.652
149.493
150.381
151.302
152.241
153.184
154.109
154.998
155.826
156.566
157.189
157.659
157.937
144.187
144.278
144.491
144.814
145.228
145.725
146.297
146.936
147.631
148.372
149.146
149.939
150.735
151.516
152.261
152.947
153.547
154.029
154.356
154.484
154.356
143.783
144.072
144.443
144.884
145.39
145.95
146.555
147.193
147.85
148.51
149.158
149.773
150.333
150.811
151.177
151.393
151.416
151.19
150.644
143.28
143.604
143.988
144.425
144.904
145.415
145.946
146.481
147.006
147.501
147.946
148.316
148.581
148.707
148.654
148.37
147.79
146.831
142.718
143.044
143.409
143.805
144.22
144.642
145.054
145.441
145.782
146.054
146.233
146.285
146.174
145.855
145.272
144.354
143.011
142.054
142.347
142.658
142.977
143.288
143.576
143.824
144.011
144.113
144.102
143.946
143.605
143.032
142.168
140.942
139.26
141.242
141.468
141.689
141.89
142.055
142.165
142.2
142.135
141.941
141.585
141.026
140.217
139.1
137.604
135.642
140.24
140.364
140.455
140.499
140.475
140.362
140.136
139.768
139.224
138.464
137.443
136.104
134.383
132.2
138.993
138.918
138.764
138.51
138.132
137.6
136.883
135.943
134.735
133.21
131.308
128.962
137.321
137.043
136.656
136.136
135.455
134.582
133.483
132.117
130.44
128.401
125.944
134.814
134.163
133.347
132.337
131.102
129.606
127.811
125.675
123.154
131.29
130.163
128.815
127.216
125.334
123.136
120.589
128.07
126.631
124.954
123.014
120.785
118.242
122.827
120.852
118.616
116.101
116.623
114.154
)
;

boundaryField
{
    inlet
    {
        type            zeroGradient;
    }
    outlet
    {
        type            fixedValue;
        value           nonuniform 0();
    }
    flap
    {
        type            zeroGradient;
    }
    upperWall
    {
        type            zeroGradient;
    }
    lowerWall
    {
        type            zeroGradient;
    }
    frontAndBack
    {
        type            empty;
    }
    procBoundary3to0
    {
        type            processor;
        value           nonuniform List<scalar> 
34
(
143.509
143.591
143.591
143.025
143.025
142.442
142.442
141.789
141.789
141.022
141.022
140.098
140.098
138.979
139.008
139.008
137.51
137.51
135.718
135.324
135.324
132.993
132.225
132.225
129.297
129.297
126.069
124.559
124.559
120.836
118.847
118.847
114.797
112.387
)
;
    }
    procBoundary3to1
    {
        type            processor;
        value           nonuniform List<scalar> 9(133.106 129.463 126.096 123.011 120.203 117.659 115.363 113.294 111.432);
    }
    procBoundary3to4
    {
        type            processor;
        value           nonuniform List<scalar> 
19
(
185.25
185.105
184.512
183.591
182.383
180.897
179.128
177.061
174.678
171.966
168.92
165.549
161.884
157.976
153.903
149.684
145.38
141.119
137.005
)
;
    }
}


// ************************************************************************* //
