/*--------------------------------*- C++ -*----------------------------------*\
| =========                 |                                                 |
| \\      /  F ield         | OpenFOAM: The Open Source CFD Toolbox           |
|  \\    /   O peration     | Version:  dev                                   |
|   \\  /    A nd           | Web:      www.OpenFOAM.org                      |
|    \\/     M anipulation  |                                                 |
\*---------------------------------------------------------------------------*/
FoamFile
{
    version     2.0;
    format      ascii;
    class       surfaceScalarField;
    location    "3.66";
    object      meshPhi;
}
// * * * * * * * * * * * * * * * * * * * * * * * * * * * * * * * * * * * * * //

dimensions      [0 3 -1 0 0 0 0];

internalField   nonuniform List<scalar> 
879
(
1.18839e-06
-2.99031e-07
8.70413e-07
-3.38777e-07
3.35483e-07
-3.69292e-07
-4.20619e-07
-3.90157e-07
-1.38045e-06
-4.0068e-07
-2.50461e-06
-4.01078e-07
-3.73439e-06
-3.92377e-07
-4.99672e-06
-3.76196e-07
-6.21064e-06
-3.54455e-07
-7.29402e-06
-3.29084e-07
-8.16973e-06
-3.01763e-07
-8.77038e-06
-2.73743e-07
-9.04129e-06
-2.45754e-07
-8.94175e-06
-2.18003e-07
-8.44493e-06
-1.90232e-07
-7.53699e-06
-1.61815e-07
-6.21607e-06
-1.31858e-07
-4.49185e-06
-9.92857e-08
-2.38568e-06
-6.28768e-08
-2.19129e-08
1.21875e-06
-5.93823e-07
8.96268e-07
-6.72527e-07
3.54471e-07
-7.32707e-07
-4.10929e-07
-7.73944e-07
-1.38186e-06
-7.94793e-07
-2.51797e-06
-7.95659e-07
-3.75945e-06
-7.78563e-07
-5.03225e-06
-7.46694e-07
-6.25461e-06
-7.03839e-07
-7.3439e-06
-6.53796e-07
-8.2228e-06
-5.99871e-07
-8.82399e-06
-5.44517e-07
-9.09305e-06
-4.89162e-07
-8.98966e-06
-4.342e-07
-8.48734e-06
-3.7911e-07
-7.57258e-06
-3.22643e-07
-6.24375e-06
-2.63025e-07
-4.51067e-06
-1.98118e-07
-2.39491e-06
-1.25499e-07
-4.37444e-08
1.25969e-06
-8.7693e-07
9.33832e-07
-9.93042e-07
3.85342e-07
-1.08166e-06
-3.89972e-07
-1.14267e-06
-1.37336e-06
-1.17389e-06
-2.52339e-06
-1.17584e-06
-3.77906e-06
-1.15144e-06
-5.06513e-06
-1.10531e-06
-6.29885e-06
-1.04297e-06
-7.39694e-06
-9.69947e-07
-8.28169e-06
-8.91043e-07
-8.8857e-06
-8.09832e-07
-9.15464e-06
-7.2839e-07
-9.04843e-06
-6.47276e-07
-8.54088e-06
-5.65712e-07
-7.61874e-06
-4.81853e-07
-6.28059e-06
-3.9308e-07
-4.53644e-06
-2.9623e-07
-2.40811e-06
-1.87719e-07
-6.54459e-08
1.30731e-06
-1.142e-06
9.79669e-07
-1.29331e-06
4.25336e-07
-1.4089e-06
-3.59663e-07
-1.48908e-06
-1.35588e-06
-1.53094e-06
-2.52083e-06
-1.53507e-06
-3.79221e-06
-1.50511e-06
-5.09354e-06
-1.44695e-06
-6.34099e-06
-1.36758e-06
-7.45041e-06
-1.27407e-06
-8.34356e-06
-1.17256e-06
-8.95272e-06
-1.06762e-06
-9.22349e-06
-9.6191e-07
-9.11583e-06
-8.56133e-07
-8.6037e-06
-7.4927e-07
-7.67402e-06
-6.3892e-07
-6.32557e-06
-5.21673e-07
-4.56855e-06
-3.93402e-07
-2.42502e-06
-2.49411e-07
-8.69754e-08
1.36389e-06
-1.38474e-06
1.03381e-06
-1.56862e-06
4.72063e-07
-1.70952e-06
-3.25044e-07
-1.80821e-06
-1.3372e-06
-1.8611e-06
-2.52059e-06
-1.86874e-06
-3.81143e-06
-1.83536e-06
-5.13171e-06
-1.76783e-06
-6.39625e-06
-1.67441e-06
-7.51987e-06
-1.56345e-06
-8.42361e-06
-1.44222e-06
-9.03933e-06
-1.31616e-06
-9.31248e-06
-1.18841e-06
-9.20305e-06
-1.05979e-06
-8.68513e-06
-9.29076e-07
-7.74583e-06
-7.93346e-07
-6.38415e-06
-6.48465e-07
-4.61051e-06
-4.8941e-07
-2.44718e-06
-3.10448e-07
-1.08291e-07
1.42587e-06
-1.60187e-06
1.09147e-06
-1.81537e-06
5.19807e-07
-1.97977e-06
-2.92406e-07
-2.09629e-06
-1.3238e-06
-2.16066e-06
-2.52905e-06
-2.17334e-06
-3.84263e-06
-2.13894e-06
-5.18484e-06
-2.06509e-06
-6.46903e-06
-1.96099e-06
-7.60884e-06
-1.83601e-06
-8.52451e-06
-1.69835e-06
-9.14744e-06
-1.55412e-06
-9.42288e-06
-1.40686e-06
-9.31083e-06
-1.2575e-06
-8.78552e-06
-1.10458e-06
-7.83426e-06
-9.44742e-07
-6.45626e-06
-7.73189e-07
-4.66217e-06
-5.84083e-07
-2.47447e-06
-3.70731e-07
-1.29361e-07
1.48845e-06
-1.79108e-06
1.14667e-06
-2.03109e-06
5.61668e-07
-2.21713e-06
-2.69223e-07
-2.35076e-06
-1.32332e-06
-2.42713e-06
-2.5536e-06
-2.44651e-06
-3.89265e-06
-2.41369e-06
-5.25899e-06
-2.33675e-06
-6.56443e-06
-2.2256e-06
-7.72143e-06
-2.09031e-06
-8.6494e-06
-1.93975e-06
-9.27931e-06
-1.78055e-06
-9.5562e-06
-1.61655e-06
-9.44009e-06
-1.4487e-06
-8.90533e-06
-1.27538e-06
-7.93944e-06
-1.09282e-06
-6.54184e-06
-8.95648e-07
-4.7234e-06
-6.7729e-07
-2.50681e-06
-4.30186e-07
-1.50158e-07
1.54569e-06
-1.95114e-06
1.19233e-06
-2.21449e-06
5.89656e-07
-2.42027e-06
-2.63991e-07
-2.57032e-06
-1.34435e-06
-2.65923e-06
-2.60249e-06
-2.68701e-06
-3.96908e-06
-2.65843e-06
-5.36082e-06
-2.58177e-06
-6.68804e-06
-2.4673e-06
-7.86211e-06
-2.32553e-06
-8.80171e-06
-2.16575e-06
-9.43739e-06
-1.99491e-06
-9.71407e-06
-1.81702e-06
-9.59179e-06
-1.63307e-06
-9.04505e-06
-1.44123e-06
-8.06153e-06
-1.2374e-06
-6.64086e-06
-1.01571e-06
-4.7941e-06
-7.68939e-07
-2.54409e-06
-4.88755e-07
-1.70665e-07
1.59047e-06
-2.08192e-06
1.22025e-06
-2.36544e-06
5.94794e-07
-2.5891e-06
-2.86067e-07
-2.75487e-06
-1.39618e-06
-2.85686e-06
-2.68458e-06
-2.89472e-06
-4.07996e-06
-2.87301e-06
-5.49734e-06
-2.79997e-06
-6.84574e-06
-2.68591e-06
-8.03558e-06
-2.54149e-06
-8.98498e-06
-2.37616e-06
-9.62422e-06
-2.19702e-06
-9.89818e-06
-2.00814e-06
-9.76695e-06
-1.81046e-06
-9.20517e-06
-1.60201e-06
-8.20068e-06
-1.37838e-06
-6.75328e-06
-1.13329e-06
-4.87414e-06
-8.5897e-07
-2.58622e-06
-5.46401e-07
-1.90867e-07
1.61462e-06
-2.1845e-06
1.22123e-06
-2.48507e-06
5.67234e-07
-2.72475e-06
-3.45504e-07
-2.90551e-06
-1.48863e-06
-3.02105e-06
-2.80903e-06
-3.07058e-06
-4.23355e-06
-3.05827e-06
-5.6757e-06
-2.99203e-06
-7.04342e-06
-2.88197e-06
-8.24649e-06
-2.73858e-06
-9.20272e-06
-2.57126e-06
-9.84229e-06
-2.38704e-06
-1.01101e-05
-2.18997e-06
-9.96648e-06
-1.9809e-06
-9.38611e-06
-1.7577e-06
-8.35699e-06
-1.51573e-06
-6.87899e-06
-1.24835e-06
-4.96337e-06
-9.47342e-07
-2.63309e-06
-6.03094e-07
-2.10754e-07
1.60901e-06
-2.26125e-06
1.18516e-06
-2.57573e-06
4.96383e-07
-2.82953e-06
-4.52852e-07
-3.02451e-06
-1.63177e-06
-3.15396e-06
-2.98514e-06
-3.21657e-06
-4.43806e-06
-3.21593e-06
-5.90287e-06
-3.15942e-06
-7.28679e-06
-3.05665e-06
-8.4993e-06
-2.91773e-06
-9.45819e-06
-2.75172e-06
-1.00938e-05
-2.56547e-06
-1.03513e-05
-2.36285e-06
-1.01911e-05
-2.14459e-06
-9.58815e-06
-1.90841e-06
-8.53041e-06
-1.64948e-06
-7.01783e-06
-1.36089e-06
-5.06158e-06
-1.03403e-06
-2.68458e-06
-6.5881e-07
-2.30315e-07
1.56362e-06
-2.3159e-06
1.10101e-06
-2.64093e-06
3.71072e-07
-2.90688e-06
-6.18915e-07
-3.1152e-06
-1.83568e-06
-3.25875e-06
-3.22194e-06
-3.33557e-06
-4.70135e-06
-3.34855e-06
-6.18541e-06
-3.30432e-06
-7.58108e-06
-3.21175e-06
-8.79797e-06
-3.08033e-06
-9.75426e-06
-2.91861e-06
-1.03807e-05
-2.73305e-06
-1.06229e-05
-2.52728e-06
-1.04414e-05
-2.30183e-06
-9.81134e-06
-2.0543e-06
-8.72077e-06
-1.7797e-06
-7.16947e-06
-1.4709e-06
-5.16849e-06
-1.11902e-06
-2.74052e-06
-7.13526e-07
-2.4954e-07
1.46735e-06
-2.3535e-06
9.56921e-07
-2.68515e-06
1.79778e-07
-2.96117e-06
-8.54428e-07
-3.1819e-06
-2.11006e-06
-3.3395e-06
-3.52794e-06
-3.43133e-06
-5.03059e-06
-3.45943e-06
-6.52914e-06
-3.42953e-06
-7.9308e-06
-3.34957e-06
-9.14582e-06
-3.22821e-06
-1.00932e-05
-3.07329e-06
-1.07043e-05
-2.89077e-06
-1.09254e-05
-2.68391e-06
-1.07174e-05
-2.45304e-06
-1.00555e-05
-2.19559e-06
-8.92762e-06
-1.90648e-06
-7.33346e-06
-1.57842e-06
-5.2837e-06
-1.20228e-06
-2.80066e-06
-7.67214e-07
-2.68418e-07
1.30682e-06
-2.3802e-06
7.40014e-07
-2.71317e-06
-8.89927e-08
-2.9975e-06
-1.16964e-06
-3.22973e-06
-2.46387e-06
-3.40108e-06
-3.91074e-06
-3.50825e-06
-5.43198e-06
-3.55244e-06
-6.9389e-06
-3.53834e-06
-8.3395e-06
-3.47281e-06
-9.54524e-06
-3.36348e-06
-1.04763e-05
-3.21737e-06
-1.10653e-05
-3.03977e-06
-1.12589e-05
-2.83352e-06
-1.10187e-05
-2.59868e-06
-1.03199e-05
-2.33254e-06
-9.15027e-06
-2.02992e-06
-7.5091e-06
-1.68344e-06
-5.40667e-06
-1.28379e-06
-2.86472e-06
-8.19835e-07
-2.86932e-07
1.06005e-06
-2.39337e-06
4.35111e-07
-2.72875e-06
-4.47905e-07
-3.0219e-06
-1.57594e-06
-3.26493e-06
-2.90728e-06
-3.44936e-06
-4.37914e-06
-3.57178e-06
-5.91295e-06
-3.63255e-06
-7.42075e-06
-3.63521e-06
-8.81198e-06
-3.58539e-06
-9.9999e-06
-3.48956e-06
-1.09064e-05
-3.35377e-06
-1.14655e-05
-3.18254e-06
-1.16248e-05
-2.97819e-06
-1.13462e-05
-2.74048e-06
-1.0605e-05
-2.46657e-06
-9.38885e-06
-2.15118e-06
-7.6964e-06
-1.78686e-06
-5.53734e-06
-1.36418e-06
-2.93264e-06
-8.7179e-07
-3.05219e-07
1.15376e-06
-2.01419e-06
7.35914e-07
-2.40151e-06
2.66382e-08
-2.74268e-06
-9.47626e-07
-3.04352e-06
-2.16922e-06
-3.29578e-06
-3.58788e-06
-3.49182e-06
-5.13692e-06
-3.62876e-06
-6.73507e-06
-3.70599e-06
-8.29247e-06
-3.72574e-06
-9.71726e-06
-3.69232e-06
-1.0922e-05
-3.61089e-06
-1.18279e-05
-3.48639e-06
-1.2368e-05
-3.32248e-06
-1.24894e-05
-3.1209e-06
-1.21529e-05
-2.88104e-06
-1.13328e-05
-2.59989e-06
-1.00159e-05
-2.27211e-06
-8.20012e-06
-1.89018e-06
-5.89466e-06
-1.44459e-06
-3.12028e-06
-9.2378e-07
-3.23524e-07
7.2535e-07
2.562e-07
-5.29404e-07
-2.768e-06
-1.59394e-06
-3.07466e-06
-2.90038e-06
-3.33165e-06
-4.38787e-06
-3.5362e-06
-5.98964e-06
-3.68604e-06
-7.62355e-06
-3.77867e-06
-9.1999e-06
-3.81489e-06
-1.06274e-05
-3.79758e-06
-1.18201e-05
-3.73053e-06
-1.27002e-05
-3.61751e-06
-1.32014e-05
-3.46122e-06
-1.32706e-05
-3.26272e-06
-1.28685e-05
-3.02102e-06
-1.19688e-05
-2.73288e-06
-1.05572e-05
-2.39287e-06
-8.63086e-06
-1.99343e-06
-6.19815e-06
-1.52497e-06
-3.27897e-06
-9.75763e-07
-3.41826e-07
-1.28483e-06
-2.42865e-06
-3.81739e-06
-3.37857e-06
-5.37418e-06
-3.59046e-06
-7.02259e-06
-3.75018e-06
-8.68284e-06
-3.85632e-06
-1.02663e-05
-3.9074e-06
-1.16825e-05
-3.90495e-06
-1.28485e-05
-3.85133e-06
-1.36881e-05
-3.74912e-06
-1.41359e-05
-3.60002e-06
-1.4139e-05
-3.40435e-06
-1.3658e-05
-3.16066e-06
-1.26659e-05
-2.86545e-06
-1.11474e-05
-2.51319e-06
-9.09858e-06
-2.09626e-06
-6.52663e-06
-1.60498e-06
-3.45038e-06
-1.02748e-06
-3.60027e-07
-4.95936e-06
-6.57616e-06
-3.65729e-06
-8.26223e-06
-3.82802e-06
-9.9365e-06
-3.94482e-06
-1.15131e-05
-4.00824e-06
-1.29007e-05
-4.01856e-06
-1.4023e-05
-3.97652e-06
-1.48056e-05
-3.8837e-06
-1.51833e-05
-3.74067e-06
-1.51045e-05
-3.54698e-06
-1.45296e-05
-3.30067e-06
-1.34307e-05
-2.99797e-06
-1.17915e-05
-2.63319e-06
-9.60685e-06
-2.19863e-06
-6.88241e-06
-1.68451e-06
-3.63561e-06
-1.07882e-06
-3.78085e-07
-8.01619e-06
-9.73053e-06
-1.14118e-05
-4.0484e-06
-1.29645e-05
-4.12273e-06
-1.43006e-05
-4.14241e-06
-1.53601e-05
-4.10917e-06
-1.60671e-05
-4.02361e-06
-1.63559e-05
-3.88488e-06
-1.61774e-05
-3.69174e-06
-1.54917e-05
-3.44174e-06
-1.427e-05
-3.13077e-06
-1.24949e-05
-2.75295e-06
-1.01595e-05
-2.30045e-06
-7.26797e-06
-1.76342e-06
-3.8359e-06
-1.12967e-06
-3.95952e-07
-1.31005e-05
-1.46318e-05
-1.59032e-05
-4.27901e-06
-1.68759e-05
-4.25228e-06
-1.74876e-05
-4.17098e-06
-1.76659e-05
-4.0342e-06
-1.73678e-05
-3.83961e-06
-1.65529e-05
-3.58442e-06
-1.51907e-05
-3.26408e-06
-1.32626e-05
-2.87245e-06
-1.07603e-05
-2.40161e-06
-7.68577e-06
-1.84153e-06
-4.05245e-06
-1.17987e-06
-4.13563e-07
-1.77043e-05
-1.85893e-05
-4.40634e-06
-1.90834e-05
-4.32781e-06
-1.9124e-05
-4.18984e-06
-1.86852e-05
-3.99126e-06
-1.77215e-05
-3.72906e-06
-1.61992e-05
-3.39796e-06
-1.40997e-05
-2.99156e-06
-1.14129e-05
-2.50182e-06
-8.13816e-06
-1.91856e-06
-4.2864e-06
-1.22921e-06
-4.3084e-07
-2.04614e-05
-2.08521e-05
-2.07439e-05
-4.35161e-06
-2.01383e-05
-4.14723e-06
-1.90056e-05
-3.87569e-06
-1.73015e-05
-3.53222e-06
-1.50108e-05
-3.10989e-06
-1.21207e-05
-2.60069e-06
-8.62727e-06
-1.99413e-06
-4.53876e-06
-1.27741e-06
-4.47678e-07
-2.25091e-05
-2.17383e-05
-4.30566e-06
-2.04142e-05
-4.02424e-06
-1.85024e-05
-3.66637e-06
-1.59998e-05
-3.22678e-06
-1.28866e-05
-2.69758e-06
-9.15493e-06
-2.06771e-06
-4.81039e-06
-1.32409e-06
-4.63938e-07
-2.34411e-05
-2.19393e-05
-1.9809e-05
-3.79849e-06
-1.70695e-05
-3.34148e-06
-1.37134e-05
-2.79161e-06
-9.72248e-06
-2.13858e-06
-5.10183e-06
-1.36875e-06
-4.79438e-07
-2.12037e-05
-1.82246e-05
-3.45101e-06
-1.4604e-05
-2.8819e-06
-1.03304e-05
-2.20587e-06
-5.41316e-06
-1.41074e-06
-4.93942e-07
-1.94313e-05
-1.55498e-05
-1.09805e-05
-2.26761e-06
-5.74384e-06
-1.44941e-06
-5.07147e-07
-1.16609e-05
-6.09367e-06
-1.48271e-06
-5.18793e-07
-6.45353e-06
-5.27653e-07
)
;

boundaryField
{
    inlet
    {
        type            calculated;
        value           nonuniform 0();
    }
    outlet
    {
        type            calculated;
        value           uniform 0;
    }
    flap
    {
        type            calculated;
        value           nonuniform 0();
    }
    upperWall
    {
        type            calculated;
        value           nonuniform 0();
    }
    lowerWall
    {
        type            calculated;
        value           uniform 0;
    }
    frontAndBack
    {
        type            empty;
        value           nonuniform 0();
    }
    procBoundary5to2
    {
        type            processor;
        value           nonuniform List<scalar> 
34
(
-2.02339e-06
-2.4168e-06
4.49068e-07
-2.78934e-06
-3.11128e-06
3.5201e-06
-3.42889e-06
6.37012e-06
-3.72975e-06
-3.91811e-06
1.14135e-05
-4.16147e-06
-4.24932e-06
1.64692e-05
-4.42506e-06
1.96278e-05
-4.5652e-06
-4.49039e-06
2.27208e-05
-4.51393e-06
2.43301e-05
-4.45773e-06
-4.16877e-06
2.3514e-05
-3.92157e-06
2.26147e-05
-3.54679e-06
-2.96283e-06
1.65082e-05
-2.31866e-06
1.23366e-05
-1.50704e-06
6.80585e-06
-5.32644e-07
)
;
    }
    procBoundary5to4
    {
        type            processor;
        value           nonuniform List<scalar> 
18
(
-1.29602e-06
-1.32474e-06
-1.36322e-06
-1.40768e-06
-1.46088e-06
-1.52033e-06
-1.58246e-06
-1.64249e-06
-1.69455e-06
-1.73172e-06
-1.74626e-06
-1.73003e-06
-1.67527e-06
-1.57595e-06
-1.40105e-06
2.0056e-06
-1.18132e-06
-8.07446e-07
)
;
    }
}


// ************************************************************************* //
