/*--------------------------------*- C++ -*----------------------------------*\
| =========                 |                                                 |
| \\      /  F ield         | OpenFOAM: The Open Source CFD Toolbox           |
|  \\    /   O peration     | Version:  dev                                   |
|   \\  /    A nd           | Web:      www.OpenFOAM.org                      |
|    \\/     M anipulation  |                                                 |
\*---------------------------------------------------------------------------*/
FoamFile
{
    version     2.0;
    format      ascii;
    class       surfaceVectorField;
    location    "1.34";
    object      Uf;
}
// * * * * * * * * * * * * * * * * * * * * * * * * * * * * * * * * * * * * * //

dimensions      [0 1 -1 0 0 0 0];

internalField   nonuniform List<vector> 
5457
(
(9.9147 0 0.020546)
(9.9698 0 0.0351039)
(9.82759 -1.98248e-20 0.0250595)
(9.93558 3.69065e-20 0.0370115)
(9.73511 -8.5612e-21 0.0283933)
(9.88271 4.35458e-20 0.0408757)
(9.63444 2.35948e-20 0.0318531)
(9.81554 -5.06186e-21 0.0462889)
(9.52531 1.30945e-20 0.0354132)
(9.73857 2.69176e-21 0.0521694)
(9.40773 -8.99491e-21 0.0391004)
(9.6527 -2.22902e-20 0.0583913)
(9.28138 -2.3877e-21 0.0430363)
(9.5573 -2.05868e-20 0.0651466)
(9.14564 6.06122e-21 0.0473395)
(9.45164 4.2885e-20 0.0726249)
(8.99972 -6.85964e-21 0.0521156)
(9.33504 6.47707e-21 0.0809832)
(8.84266 6.38677e-22 0.0574739)
(9.20672 -3.39376e-20 0.0903842)
(8.67335 2.24106e-20 0.0635362)
(9.06575 2.82328e-20 0.101015)
(8.4905 2.87998e-21 0.0704413)
(8.91099 1.51254e-20 0.113092)
(8.2926 7.656e-21 0.0783478)
(8.74109 -1.56406e-20 0.126864)
(8.078 -1.70304e-20 0.0874394)
(8.55455 1.67848e-20 0.142615)
(7.84479 -1.5637e-20 0.0979309)
(8.34962 -3.44819e-20 0.160672)
(7.59086 1.79671e-20 0.110076)
(8.12436 2.28339e-20 0.181413)
(7.31385 1.04324e-20 0.124176)
(7.87658 -9.57813e-21 0.205279)
(7.01114 5.46537e-20 0.140584)
(7.60382 1.86005e-22 0.232774)
(6.67985 -2.96682e-21 0.159707)
(7.30334 4.3824e-20 0.264473)
(6.31681 5.48175e-20 0.182031)
(6.97208 -4.52781e-20 0.301004)
(5.91857 1.98735e-19 0.208131)
(6.60666 2.89617e-19 0.343057)
(5.48149 9.93305e-20 0.238694)
(6.2034 4.50803e-19 0.391383)
(5.00164 -5.72688e-20 0.274564)
(5.75821 -2.07901e-19 0.446784)
(4.47489 -2.38737e-19 0.316838)
(5.26665 -2.54141e-21 0.510114)
(3.89672 -1.8545e-19 0.367045)
(4.72365 2.30881e-19 0.582286)
(3.26194 2.48805e-19 0.427492)
(4.12319 -1.14803e-19 0.664355)
(2.56378 3.85189e-19 0.502142)
(3.45735 -2.39262e-19 0.757581)
(1.7916 -2.5947e-19 0.599998)
(2.71448 -1.26257e-18 0.863224)
(0.916928 4.42827e-19 0.722602)
(1.85675 5.09434e-19 0.984392)
(1.04863 9.53939e-19 1.07189)
(10.0084 3.76481e-20 0.0393703)
(10.0016 -7.07236e-20 0.0316134)
(9.98956 1.00376e-19 0.0488475)
(9.99732 7.84356e-20 0.0449202)
(9.95882 4.59707e-20 0.0563772)
(9.97752 1.95277e-20 0.0543656)
(9.91729 -2.57595e-20 0.0647248)
(9.94344 -5.05485e-21 0.0652707)
(9.86474 -3.31989e-20 0.0737765)
(9.89848 -2.12408e-20 0.0771791)
(9.8011 -3.38528e-20 0.0835229)
(9.84366 -5.5e-23 0.0898783)
(9.72617 2.59633e-20 0.0942071)
(9.77862 -3.5208e-20 0.103666)
(9.63948 4.25958e-20 0.106092)
(9.70275 3.66393e-20 0.118897)
(9.54037 -2.13804e-20 0.119423)
(9.61546 6.43769e-21 0.135881)
(9.42803 -5.14894e-21 0.134465)
(9.5161 5.38527e-20 0.154942)
(9.30147 2.0703e-20 0.151522)
(9.40386 3.59025e-20 0.176456)
(9.1595 -3.98391e-21 0.170941)
(9.27773 -5.88787e-20 0.200855)
(9.00073 -5.93657e-21 0.193123)
(9.13654 -6.66207e-20 0.228635)
(8.82361 -1.60867e-21 0.218527)
(8.97893 7.09841e-20 0.260368)
(8.62632 5.02499e-21 0.247686)
(8.80333 -1.38771e-19 0.296716)
(8.40682 -5.27539e-21 0.28122)
(8.60798 2.89171e-19 0.338453)
(8.1628 -1.97088e-20 0.31985)
(8.39085 -1.60182e-19 0.386482)
(7.89165 -9.95105e-21 0.364407)
(8.14967 -1.01204e-20 0.441853)
(7.59045 0 0.415818)
(7.88185 -1.702e-19 0.505783)
(7.25589 1.94882e-19 0.475117)
(7.58445 1.75462e-19 0.579639)
(6.88424 5.44199e-19 0.54347)
(7.25408 1.9172e-19 0.664958)
(6.47137 1.34163e-19 0.622176)
(6.88693 4.96657e-19 0.763477)
(6.01258 -1.49004e-19 0.712697)
(6.47855 -7.25526e-19 0.877166)
(5.50237 4.68515e-19 0.816764)
(6.02366 5.87789e-19 1.00831)
(4.934 2.96724e-19 0.936703)
(5.51578 4.08257e-19 1.15968)
(4.29832 -6.00719e-19 1.07615)
(4.94625 -2.21367e-19 1.33508)
(3.58138 -1.89514e-18 1.24191)
(4.30279 -7.26531e-19 1.54057)
(2.75742 -5.67181e-19 1.44958)
(3.56597 -1.15022e-18 1.78793)
(1.7748 8.35945e-19 1.7845)
(2.70384 -1.05317e-18 2.09986)
(1.68947 1.36939e-18 2.6317)
(10.0015 -2.7059e-20 0.0396801)
(9.99941 6.59699e-20 0.0310219)
(9.98668 -4.00852e-21 0.0537021)
(9.99268 -2.76558e-20 0.0512512)
(9.95969 -3.21368e-20 0.0661489)
(9.97406 3.35808e-20 0.0663588)
(9.92302 -8.66983e-22 0.0798783)
(9.9429 -3.02396e-20 0.0822139)
(9.87671 1.23705e-20 0.0949087)
(9.90145 -1.0597e-20 0.0994154)
(9.82057 -2.09257e-21 0.111251)
(9.85078 6.6674e-20 0.117877)
(9.75435 -2.30841e-20 0.12922)
(9.7907 -2.34574e-20 0.13794)
(9.67768 -1.15412e-22 0.149198)
(9.7207 -1.17704e-22 0.160072)
(9.58999 8.25765e-20 0.171563)
(9.64029 -5.14036e-20 0.184718)
(9.49059 9.45533e-20 0.196739)
(9.54891 1.34282e-19 0.212342)
(9.37862 -4.54935e-20 0.225217)
(9.4459 2.8795e-20 0.243477)
(9.25309 -1.21666e-19 0.257563)
(9.33043 5.98077e-20 0.278743)
(9.11281 1.28286e-20 0.294432)
(9.20152 -3.10167e-19 0.318849)
(8.95646 -6.98689e-20 0.336585)
(9.05806 1.93796e-19 0.364615)
(8.78249 1.52964e-19 0.384908)
(8.89879 -1.3919e-19 0.417004)
(8.58914 1.26424e-19 0.44044)
(8.72224 2.84649e-19 0.477143)
(8.37441 -1.48103e-19 0.5044)
(8.52679 -1.412e-19 0.546355)
(8.136 -1.72976e-19 0.578212)
(8.31056 0 0.626202)
(7.87131 1.08419e-20 0.663509)
(8.07145 1.65236e-19 0.718523)
(7.57731 1.72684e-19 0.762144)
(7.80698 -1.69976e-19 0.825454)
(7.25046 1.48687e-19 0.876237)
(7.51428 -4.60557e-19 0.949463)
(6.88658 -3.80038e-19 1.00825)
(7.18997 -2.34568e-19 1.09343)
(6.48065 2.64931e-20 1.1611)
(6.82991 -4.15606e-19 1.26081)
(6.0263 5.26346e-19 1.33836)
(6.42893 4.25336e-19 1.45585)
(5.51514 -1.1381e-19 1.54482)
(5.98031 2.1415e-19 1.68404)
(4.93507 -3.4863e-19 1.78812)
(5.47478 1.14052e-19 1.95321)
(4.26766 6.58356e-21 2.08271)
(4.89952 -1.82762e-18 2.27577)
(3.47736 -1.6223e-18 2.44689)
(4.22777 2.0515e-18 2.67796)
(2.57416 -2.53155e-19 3.00931)
(3.50321 -8.3867e-20 3.15075)
(2.31971 -1.64108e-19 4.10126)
(9.99672 6.36913e-20 0.0430539)
(9.99798 1.41114e-19 0.0323859)
(9.98213 1.13596e-20 0.0632506)
(9.98914 -8.27985e-20 0.0575029)
(9.95583 3.40831e-20 0.0816293)
(9.97015 8.65555e-20 0.0780664)
(9.91991 -3.95438e-20 0.100914)
(9.93975 8.04872e-20 0.0988377)
(9.8748 4.53113e-20 0.121594)
(9.89939 -1.05625e-19 0.121115)
(9.82033 4.34996e-20 0.1439)
(9.85005 2.21761e-20 0.14509)
(9.75628 0 0.168274)
(9.79167 4.65752e-20 0.171156)
(9.68236 -5.24004e-20 0.195223)
(9.72385 -4.83748e-20 0.199854)
(9.59812 3.87113e-21 0.225272)
(9.64617 -5.14243e-20 0.231736)
(9.503 6.65217e-20 0.258997)
(9.55817 -2.27005e-23 0.267389)
(9.39634 1.34613e-19 0.297058)
(9.45932 -1.39661e-20 0.307482)
(9.27731 -1.35448e-19 0.34021)
(9.34893 8.72186e-22 0.352788)
(9.14501 -1.20095e-19 0.389326)
(9.22624 2.86316e-20 0.404185)
(8.99838 1.18661e-19 0.445422)
(9.09037 1.22672e-19 0.462696)
(8.83624 0 0.50969)
(8.94035 -1.33959e-19 0.529523)
(8.65725 9.58272e-21 0.583527)
(8.77508 1.10213e-21 0.606078)
(8.45989 9.26964e-21 0.668586)
(8.59334 1.86685e-20 0.694021)
(8.24245 3.40658e-19 0.766826)
(8.39378 3.33681e-19 0.79533)
(8.00295 -2.03968e-20 0.880574)
(8.17491 3.00508e-19 0.912377)
(7.73907 -8.07179e-19 1.01254)
(7.93499 -6.83956e-19 1.04799)
(7.44801 -8.39991e-19 1.16591)
(7.67193 -3.69855e-19 1.2055)
(7.1264 -2.73633e-19 1.34449)
(7.38328 -5.66788e-19 1.3889)
(6.76991 -6.50235e-21 1.55302)
(7.06597 1.0053e-19 1.60316)
(6.37286 1.11273e-19 1.79762)
(6.7161 -1.04735e-19 1.85461)
(5.92747 4.381e-19 2.08652)
(6.3284 1.87746e-18 2.15166)
(5.4227 -1.36072e-18 2.43169)
(5.89568 -1.25224e-18 2.50598)
(4.84415 1.57114e-19 2.8552)
(5.41053 -1.57794e-18 2.93369)
(4.14862 3.58293e-18 3.3684)
(4.83141 1.78404e-18 3.47832)
(3.44987 -4.35463e-19 4.10509)
(4.35068 1.71432e-18 4.02526)
(3.02996 -1.4298e-18 5.33607)
(9.99419 -9.8972e-21 0.0473323)
(9.99728 7.86073e-20 0.0347894)
(9.97906 -3.70806e-21 0.0724337)
(9.9871 1.27777e-19 0.0639868)
(9.95324 1.32862e-19 0.0956991)
(9.9677 9.33496e-21 0.0895691)
(9.918 1.04641e-20 0.119723)
(9.93794 1.00654e-19 0.115163)
(9.87388 -1.26163e-19 0.145413)
(9.89866 -2.1505e-20 0.142358)
(9.82078 2.57202e-20 0.173214)
(9.85067 8.78117e-20 0.171646)
(9.75849 -3.70558e-21 0.203649)
(9.79397 2.36679e-22 0.203503)
(9.68673 -4.74613e-20 0.237305)
(9.72823 9.65644e-20 0.238525)
(9.60515 -5.43089e-20 0.2748)
(9.65308 -5.03723e-20 0.277348)
(9.51328 -8.08189e-20 0.316824)
(9.56814 -1.3333e-19 0.320662)
(9.41056 -1.47491e-19 0.364163)
(9.47296 8.23358e-20 0.36926)
(9.29633 1.6541e-19 0.417713)
(9.367 -2.34829e-19 0.424041)
(9.16987 2.7324e-19 0.478502)
(9.24963 2.44215e-19 0.486021)
(9.03037 -1.34503e-19 0.547739)
(9.12019 1.28424e-19 0.556376)
(8.87694 -1.30618e-19 0.626845)
(8.97796 1.18242e-19 0.636505)
(8.70859 1.04795e-20 0.717484)
(8.82213 -5.67717e-19 0.728042)
(8.52426 3.48068e-19 0.821632)
(8.65185 2.90372e-19 0.832903)
(8.32281 2.93343e-19 0.94166)
(8.46624 3.14394e-19 0.953374)
(8.10295 -3.77741e-19 1.08043)
(8.26438 5.58262e-21 1.09224)
(7.86316 -2.4293e-19 1.24138)
(8.04529 -3.38602e-19 1.25288)
(7.60164 -1.0005e-19 1.42861)
(7.80782 8.98274e-20 1.43937)
(7.3162 -1.8435e-19 1.64714)
(7.55055 -9.47198e-20 1.65662)
(7.00408 0 1.90342)
(7.27186 0 1.91087)
(6.66155 1.66998e-18 2.20584)
(6.9699 -1.55476e-18 2.21023)
(6.2836 2.02859e-19 2.56571)
(6.64213 3.02565e-18 2.56536)
(5.86319 -1.47709e-18 2.99803)
(6.28497 -1.6674e-18 2.99091)
(5.39689 0 3.52921)
(5.90186 0 3.502)
(4.82729 -4.92796e-20 4.15448)
(5.42084 -1.46255e-18 4.16785)
(4.37028 -4.73645e-20 4.98602)
(5.2425 1.38768e-18 4.69774)
(3.80821 0 6.32568)
(9.99285 2.1723e-19 0.0520607)
(9.99698 -6.12226e-20 0.0377425)
(9.97719 1.38226e-19 0.0815278)
(9.98602 -8.85563e-21 0.0706983)
(9.95187 -2.08836e-20 0.109489)
(9.96644 -7.66271e-20 0.100856)
(9.91755 6.60879e-20 0.138302)
(9.9374 -1.00453e-19 0.131079)
(9.87468 1.94813e-19 0.169068)
(9.89939 1.26258e-19 0.163022)
(9.82321 6.05948e-20 0.202383)
(9.853 -2.1542e-20 0.19742)
(9.76295 1.02396e-19 0.238827)
(9.79827 -9.25121e-20 0.234844)
(9.69364 9.08703e-20 0.27904)
(9.73492 1.44794e-19 0.27594)
(9.61498 -1.30974e-19 0.323721)
(9.66265 -5.04047e-20 0.321409)
(9.52661 3.3862e-20 0.373664)
(9.58112 -8.00638e-20 0.372029)
(9.42805 -1.06239e-20 0.429772)
(9.49 1.10393e-19 0.4287)
(9.31877 -1.47457e-19 0.493061)
(9.38884 -1.16973e-19 0.492432)
(9.19822 9.72632e-20 0.564688)
(9.27715 -2.74449e-19 0.564338)
(9.06582 3.80972e-19 0.646023)
(9.15445 5.99049e-19 0.645718)
(8.92091 -3.30071e-19 0.738678)
(9.02026 -2.57973e-19 0.73813)
(8.76283 -2.7426e-19 0.844531)
(8.87404 -2.69832e-19 0.843387)
(8.59088 2.57325e-19 0.965802)
(8.71528 2.85652e-19 0.963598)
(8.4044 2.18746e-20 1.10517)
(8.54346 -6.19636e-19 1.10127)
(8.20278 3.96643e-20 1.2659)
(8.35818 6.81251e-19 1.25947)
(7.98532 0 1.45198)
(8.15919 4.04318e-20 1.44198)
(7.75119 9.22742e-20 1.66826)
(7.94628 0 1.65345)
(7.49954 9.03768e-20 1.92072)
(7.71912 9.11393e-20 1.89952)
(7.22945 -1.56164e-18 2.21707)
(7.47764 -8.90765e-20 2.18728)
(6.93994 -1.87884e-19 2.56734)
(7.22222 -1.54764e-18 2.52602)
(6.63006 1.16866e-18 2.98466)
(6.95378 1.31701e-18 2.92769)
(6.29769 -2.03828e-19 3.48474)
(6.67236 -2.01032e-19 3.40865)
(5.95363 -1.42172e-18 4.09656)
(6.39706 -1.43415e-18 3.9777)
(5.51903 -6.86098e-19 4.79382)
(6.00716 -2.79124e-18 4.74405)
(5.29779 1.30785e-18 5.64682)
(6.15136 5.64971e-18 5.17819)
(4.62343 -5.42149e-18 7.08203)
(9.9922 -2.86417e-19 0.0570527)
(9.99685 1.21353e-20 0.0409633)
(9.97629 -2.25298e-19 0.0905797)
(9.98557 -1.59582e-19 0.0775176)
(9.95158 -1.56731e-19 0.122975)
(9.96616 -7.65104e-20 0.111884)
(9.91836 -3.55125e-20 0.156373)
(9.93801 -1.59792e-19 0.146498)
(9.87697 -9.31977e-20 0.191977)
(9.90143 2.22995e-22 0.182997)
(9.8274 -1.76133e-19 0.230516)
(9.85688 -1.3201e-19 0.222282)
(9.76948 -4.54685e-20 0.272644)
(9.80441 -6.23388e-22 0.265018)
(9.703 -2.504e-22 0.319058)
(9.7438 9.50927e-20 0.311901)
(9.62771 0 0.370532)
(9.6748 0 0.363686)
(9.54331 0 0.427951)
(9.59716 0 0.421218)
(9.44944 0 0.492322)
(9.5106 1.64037e-19 0.485498)
(9.34569 -2.46588e-19 0.564753)
(9.4148 -1.13338e-19 0.557624)
(9.23164 2.42217e-19 0.646498)
(9.30942 -2.42531e-19 0.638783)
(9.10693 -5.39777e-20 0.739045)
(9.19409 5.03966e-19 0.730359)
(8.97115 -1.98425e-19 0.844153)
(9.06861 -5.10665e-19 0.834032)
(8.82393 2.99195e-19 0.963863)
(8.9327 3.16e-19 0.951759)
(8.66492 -6.04786e-19 1.10056)
(8.78612 -2.66532e-19 1.0858)
(8.49384 5.7037e-20 1.25713)
(8.62874 -3.22334e-19 1.2388)
(8.31067 6.73628e-19 1.43712)
(8.4606 6.21698e-19 1.414)
(8.11555 3.99511e-20 1.64492)
(8.28209 -6.36908e-19 1.61544)
(7.90867 0 1.88592)
(8.09388 6.51248e-19 1.84817)
(7.69047 -8.96089e-20 2.16671)
(7.89686 6.56296e-19 2.1183)
(7.46202 -8.85392e-20 2.49571)
(7.69249 7.16277e-19 2.43336)
(7.22514 -4.57571e-20 2.88379)
(7.48329 -1.39675e-18 2.80315)
(6.98315 -4.60015e-20 3.34481)
(7.27367 1.39714e-18 3.24004)
(6.73859 -1.40616e-18 3.89272)
(7.06621 -1.38822e-18 3.7613)
(6.51773 -2.64219e-18 4.55771)
(6.90029 -1.58122e-18 4.36327)
(6.2158 1.19524e-18 5.29086)
(6.58986 1.04706e-18 5.21026)
(6.20341 -5.12896e-18 6.11066)
(7.04918 2.55236e-18 5.48953)
(5.44519 -5.22875e-18 7.62691)
(9.99193 1.35569e-19 0.0621428)
(9.9968 9.02828e-21 0.044297)
(9.97613 -8.86446e-21 0.0994824)
(9.98553 -9.07159e-21 0.0842932)
(9.95222 -8.13686e-20 0.136037)
(9.9666 1.89705e-20 0.122562)
(9.92031 -1.20707e-19 0.173792)
(9.93951 -2.00115e-20 0.161332)
(9.88063 -4.12783e-20 0.214006)
(9.90453 -2.51537e-22 0.202176)
(9.83322 4.62037e-20 0.257519)
(9.86203 4.31181e-20 0.246104)
(9.77796 1.4188e-19 0.305052)
(9.81209 1.36172e-19 0.293868)
(9.71467 9.36033e-20 0.357357)
(9.75454 3.86188e-22 0.346217)
(9.64317 0 0.415259)
(9.6892 0 0.403947)
(9.56325 1.67007e-19 0.47972)
(9.61586 0 0.467962)
(9.47462 4.58835e-20 0.551833)
(9.53432 1.10051e-19 0.539342)
(9.377 -1.11479e-19 0.632776)
(9.44444 -1.13443e-19 0.619259)
(9.27014 3.16979e-20 0.723863)
(9.34596 0 0.708949)
(9.15383 3.06931e-20 0.826666)
(9.23867 3.12053e-20 0.809855)
(9.02794 1.69402e-20 0.943058)
(9.12256 2.56811e-19 0.923735)
(8.89235 -2.58597e-19 1.07521)
(8.99766 -2.4789e-19 1.05266)
(8.74703 1.44323e-20 1.22564)
(8.86401 -2.88549e-19 1.19899)
(8.59214 2.55145e-19 1.39732)
(8.72186 3.22915e-19 1.36546)
(8.42813 -7.04062e-19 1.59398)
(8.57166 5.9695e-19 1.55538)
(8.25587 -1.458e-20 1.82021)
(8.41432 -6.51987e-19 1.77292)
(8.07659 1.30663e-18 2.08173)
(8.25133 2.15054e-20 2.02331)
(7.89213 1.46424e-18 2.38544)
(8.08476 6.75752e-19 2.31285)
(7.70538 -5.83586e-19 2.73992)
(7.9176 7.82001e-19 2.6492)
(7.52076 3.69169e-20 3.15617)
(7.75423 -1.43241e-18 3.04217)
(7.34556 9.70464e-20 3.64786)
(7.60225 1.43544e-18 3.50358)
(7.1858 -1.5663e-18 4.22572)
(7.46535 -1.53464e-18 4.05148)
(7.08293 2.12728e-18 4.91872)
(7.40671 1.1622e-18 4.66436)
(6.90741 2.61123e-18 5.65745)
(7.16471 3.32614e-18 5.5721)
(7.06367 -1.46487e-18 6.40963)
(7.91244 -1.08536e-18 5.66279)
(6.24554 -2.52632e-18 7.98766)
(9.99188 -1.36087e-19 0.0672108)
(9.99682 -1.10685e-21 0.0476508)
(9.97643 1.94036e-20 0.108131)
(9.98576 -1.43621e-19 0.0909218)
(9.9535 7.95116e-20 0.148584)
(9.96751 1.50613e-19 0.132822)
(9.92305 1.00929e-19 0.19047)
(9.94166 7.93763e-20 0.175506)
(9.88528 8.50739e-20 0.235061)
(9.90841 4.1665e-20 0.220472)
(9.84025 1.34981e-19 0.283273)
(9.86814 -4.30175e-20 0.268782)
(9.78791 -7.94549e-21 0.335895)
(9.82094 9.08288e-20 0.321262)
(9.72815 -9.33131e-20 0.393726)
(9.76673 -1.88916e-19 0.37872)
(9.66082 0 0.457636)
(9.70541 0 0.441997)
(9.58576 -5.5095e-20 0.528644)
(9.63673 1.02895e-19 0.512039)
(9.50283 -5.32336e-20 0.607907)
(9.56056 -1.60518e-19 0.589978)
(9.41188 0 0.696664)
(9.47697 -2.7914e-19 0.67703)
(9.31278 0 0.796274)
(9.38587 2.30688e-19 0.774487)
(9.20548 2.60893e-19 0.908352)
(9.28715 0 0.883828)
(9.09011 -1.52591e-20 1.03484)
(9.18099 5.09293e-19 1.00682)
(8.96685 -2.78618e-19 1.17802)
(9.06765 -4.92031e-19 1.14561)
(8.83598 2.80944e-20 1.34047)
(8.94761 4.97391e-20 1.30265)
(8.69807 6.67694e-19 1.5252)
(8.82139 -2.52575e-20 1.48069)
(8.55406 6.36655e-19 1.73596)
(8.6898 5.62429e-19 1.68303)
(8.40536 -6.0751e-19 1.97746)
(8.55422 6.32751e-21 1.91388)
(8.25416 -6.04292e-19 2.25543)
(8.417 -6.2897e-19 2.17845)
(8.10363 -5.17978e-22 2.57681)
(8.28117 2.04316e-20 2.48294)
(7.95832 -6.14126e-20 2.95003)
(8.15092 -9.7746e-20 2.8349)
(7.82479 -4.08493e-20 3.38552)
(8.03248 -1.239e-18 3.24378)
(7.71384 -1.53124e-19 3.89599)
(7.93614 1.22995e-18 3.72008)
(7.63404 1.12669e-18 4.48816)
(7.86504 -3.79417e-21 4.28244)
(7.63884 2.02986e-18 5.18805)
(7.90734 2.34963e-18 4.88881)
(7.58597 3.44046e-18 5.90943)
(7.72627 -9.07349e-19 5.83514)
(7.85571 -5.97824e-18 6.57633)
(8.71975 -1.94501e-18 5.73643)
(6.99578 -3.53759e-18 8.17347)
(9.99202 -1.14559e-20 0.072173)
(9.99694 3.50571e-22 0.0509456)
(9.9771 -5.80185e-21 0.116458)
(9.98623 -1.61174e-19 0.0973309)
(9.95525 1.48958e-19 0.160559)
(9.96882 1.9042e-20 0.142614)
(9.92639 1.92921e-20 0.206338)
(9.94432 1.26279e-22 0.188967)
(9.89067 -8.82133e-20 0.255053)
(9.91292 -1.63788e-19 0.237812)
(9.8482 -8.46454e-20 0.307665)
(9.875 -4.35407e-20 0.290225)
(9.79902 -9.55099e-20 0.365023)
(9.83073 -4.39752e-20 0.347085)
(9.74307 -9.21384e-20 0.427984)
(9.78006 -1.86946e-19 0.40926)
(9.68024 1.04776e-19 0.49747)
(9.72299 0 0.477658)
(9.61037 -7.04823e-21 0.574527)
(9.65925 2.04109e-19 0.553282)
(9.53342 -3.88587e-19 0.66033)
(9.5888 -1.06469e-19 0.637243)
(9.44946 -4.03383e-20 0.756161)
(9.51184 -3.33821e-19 0.730739)
(9.35856 2.27267e-19 0.863438)
(9.42849 1.47445e-21 0.835137)
(9.26078 2.56084e-19 0.983793)
(9.33882 -2.18656e-21 0.951969)
(9.15643 1.85041e-20 1.11916)
(9.24309 4.97625e-19 1.08297)
(9.04604 -1.56264e-19 1.27187)
(9.14173 -8.0412e-19 1.23026)
(8.93025 -4.45788e-21 1.44456)
(9.03568 5.26089e-19 1.39634)
(8.8099 -1.23768e-19 1.64021)
(8.92582 -3.56927e-20 1.58403)
(8.68633 -7.24071e-20 1.86252)
(8.81318 -1.87155e-20 1.79654)
(8.56167 -1.85959e-20 2.11615)
(8.69957 -8.97083e-20 2.0379)
(8.4389 0 2.40669)
(8.58826 0 2.31319)
(8.32218 -7.70272e-20 2.7408)
(8.48307 0 2.6284)
(8.21747 -1.27109e-18 3.12655)
(8.38899 1.44008e-19 2.99072)
(8.13322 -6.51862e-21 3.57332)
(8.31389 -1.48429e-18 3.40895)
(8.0828 1.39522e-18 4.09232)
(8.27052 1.50495e-18 3.89178)
(8.07676 1.16169e-18 4.68552)
(8.25985 -1.41399e-18 4.45818)
(8.17398 -1.01843e-18 5.37553)
(8.39214 3.89547e-18 5.0471)
(8.24561 -4.22046e-18 6.06118)
(8.26967 -1.87845e-18 6.00344)
(8.55478 -3.25794e-18 6.651)
(9.44722 -9.75724e-19 5.7579)
(7.68147 -4.35197e-18 8.19753)
(9.9923 -1.52644e-19 0.0769591)
(9.99711 -4.10354e-19 0.0541217)
(9.97808 -1.32303e-19 0.124405)
(9.98685 1.25086e-19 0.103449)
(9.95744 -1.30297e-19 0.171916)
(9.9704 -1.12758e-19 0.151884)
(9.93027 -1.86443e-19 0.221348)
(9.94739 -1.96015e-20 0.201671)
(9.89669 -1.16738e-19 0.27392)
(9.91794 -1.63314e-19 0.254152)
(9.85691 -2.84277e-21 0.330615)
(9.88254 4.30249e-20 0.310375)
(9.81103 -1.38187e-19 0.392335)
(9.84137 4.47997e-20 0.371263)
(9.75906 -9.14211e-20 0.460004)
(9.79444 -1.85985e-19 0.437751)
(9.70094 1.02911e-19 0.534606)
(9.74178 9.60524e-20 0.510817)
(9.63656 9.94495e-20 0.617205)
(9.68319 2.01946e-19 0.591518)
(9.56598 -5.52532e-20 0.708936)
(9.61884 1.5872e-21 0.680913)
(9.48942 -2.86778e-19 0.811082)
(9.54893 -2.71152e-19 0.780154)
(9.4071 -2.28583e-19 0.925119)
(9.47368 1.06154e-19 0.890654)
(9.31929 2.46406e-19 1.0527)
(9.39337 -2.18993e-21 1.01399)
(9.22637 -3.42788e-19 1.1957)
(9.30836 2.45489e-19 1.15191)
(9.12912 -1.05619e-19 1.35641)
(9.2193 -5.77555e-19 1.30638)
(9.02861 4.88751e-19 1.53752)
(9.1273 9.75833e-19 1.47987)
(8.926 6.96077e-20 1.74202)
(9.03379 1.68609e-19 1.6753)
(8.82298 -3.65535e-20 1.97336)
(8.9402 -5.05236e-19 1.89576)
(8.72225 -7.05791e-20 2.23599)
(8.84857 -1.37956e-19 2.14488)
(8.62763 0 2.53529)
(8.76269 0 2.42748)
(8.54407 2.20617e-19 2.87749)
(8.68724 0 2.74936)
(8.47856 -6.37617e-20 3.27009)
(8.62813 3.53916e-19 3.11714)
(8.44109 -1.62101e-20 3.72124)
(8.59415 -7.78412e-21 3.53873)
(8.44668 -1.24729e-18 4.24012)
(8.60015 5.2185e-19 4.02103)
(8.50759 1.04829e-18 4.82407)
(8.64483 -2.05453e-18 4.58268)
(8.67923 2.64823e-18 5.4924)
(8.85311 1.95051e-18 5.14938)
(8.87692 1.14449e-18 6.12644)
(8.79332 1.29901e-18 6.08008)
(9.16191 -6.16104e-18 6.68219)
(10.0778 1.35644e-18 5.77056)
(8.32247 -2.82106e-18 8.10528)
(9.99265 -1.21938e-19 0.0815214)
(9.99735 2.70466e-19 0.0571547)
(9.97922 1.39418e-19 0.13192)
(9.98759 1.42665e-19 0.109238)
(9.95987 0 0.182606)
(9.9722 0 0.160588)
(9.93451 6.24314e-22 0.235446)
(9.95082 0 0.213563)
(9.90325 5.99623e-22 0.291595)
(9.9235 1.62845e-19 0.26941)
(9.86639 9.07089e-20 0.352042)
(9.89084 1.68544e-19 0.329115)
(9.82405 -7.22603e-21 0.417751)
(9.85304 2.64707e-19 0.393668)
(9.77625 6.58119e-21 0.489704)
(9.81013 1.81864e-19 0.464088)
(9.72301 1.97013e-19 0.568924)
(9.76206 -1.89679e-19 0.541381)
(9.66439 1.00787e-19 0.656476)
(9.70877 7.78315e-22 0.62659)
(9.60058 -2.18756e-19 0.753461)
(9.65075 1.83533e-22 0.720759)
(9.5318 1.27645e-19 0.861152)
(9.5881 -5.16862e-21 0.825035)
(9.45836 3.3141e-19 0.981052)
(9.52112 -1.06774e-19 0.940847)
(9.38068 0 1.1148)
(9.4503 3.4207e-19 1.06977)
(9.29936 0 1.26424)
(9.37609 0 1.21349)
(9.21533 5.22655e-19 1.43152)
(9.29953 4.88967e-19 1.37389)
(9.13 6.48211e-19 1.61929)
(9.2216 1.73792e-20 1.55325)
(9.04508 -4.11091e-19 1.83054)
(9.14421 5.19408e-19 1.75445)
(8.96257 -6.04831e-19 2.06848)
(9.06947 -1.065e-18 1.98056)
(8.88536 -6.67371e-20 2.33712)
(8.99958 1.99e-19 2.23489)
(8.81787 0 2.64151)
(8.93838 -8.03916e-19 2.52173)
(8.76604 1.33169e-19 2.98748)
(8.89122 -2.13808e-18 2.84642)
(8.73766 4.11134e-19 3.3817)
(8.86517 -1.18236e-19 3.21508)
(8.74369 5.25071e-19 3.831)
(8.86946 1.31323e-18 3.63456)
(8.80017 -2.39389e-19 4.34255)
(8.92048 2.69434e-19 4.11006)
(8.92166 -1.37376e-18 4.91001)
(9.01596 -4.9711e-19 4.6589)
(9.15166 3.09141e-19 5.54905)
(9.28577 -8.95907e-19 5.20167)
(9.46787 2.96991e-18 6.12253)
(9.29683 -3.93123e-19 6.07121)
(9.71715 6.00823e-19 6.69404)
(10.6135 2.38198e-18 5.79262)
(8.9576 6.03051e-19 7.96526)
(9.9931 5.32736e-19 0.0858219)
(9.99767 3.47015e-21 0.0600023)
(9.98057 0 0.138956)
(9.98852 0 0.114646)
(9.96267 0 0.192569)
(9.97432 0 0.168667)
(9.93928 1.6561e-19 0.248546)
(9.95469 3.85609e-20 0.224563)
(9.91059 3.31055e-19 0.30796)
(9.9297 8.20074e-20 0.283475)
(9.87691 3.44521e-19 0.371802)
(9.89997 -2.0859e-19 0.346311)
(9.83841 4.52545e-19 0.441123)
(9.86568 -8.61201e-20 0.414151)
(9.79506 -2.08739e-20 0.516963)
(9.82692 3.6521e-19 0.488131)
(9.74687 -3.83148e-19 0.600316)
(9.78359 -3.04005e-21 0.569251)
(9.6941 -1.00049e-19 0.692211)
(9.73573 -1.97939e-19 0.658445)
(9.63708 2.13981e-19 0.793753)
(9.68405 -2.05158e-19 0.756756)
(9.57608 -2.4127e-19 0.906229)
(9.62867 4.21237e-19 0.865373)
(9.51154 -9.05595e-20 1.03113)
(9.56997 -5.53126e-19 0.985693)
(9.44405 3.37927e-19 1.17006)
(9.50868 6.79162e-19 1.11926)
(9.37442 4.95397e-19 1.32476)
(9.4454 2.33341e-19 1.26765)
(9.30374 -2.07252e-20 1.49724)
(9.38136 -1.03039e-19 1.43268)
(9.23351 -1.06518e-19 1.68996)
(9.31757 1.08729e-19 1.61647)
(9.16594 -1.44131e-19 1.90584)
(9.25607 -1.1168e-19 1.82159)
(9.1035 -2.53095e-19 2.14799)
(9.1995 -1.03082e-18 2.05111)
(9.04919 -5.42094e-19 2.41996)
(9.15062 3.96163e-19 2.30822)
(9.00768 -2.9521e-18 2.72614)
(9.11318 -1.83411e-18 2.59647)
(8.98562 -2.40807e-18 3.07183)
(9.09275 -2.15819e-18 2.92048)
(8.99164 7.63758e-19 3.46286)
(9.09733 -1.25685e-18 3.28578)
(9.0373 1.07348e-18 3.9047)
(9.13654 1.03867e-18 3.69814)
(9.13928 2.08353e-20 4.40278)
(9.22766 -3.90457e-19 4.16112)
(9.31502 0 4.94819)
(9.36883 4.37216e-20 4.68934)
(9.59141 -1.62827e-18 5.55183)
(9.68626 -1.33702e-18 5.20748)
(10.0098 -1.43504e-19 6.06769)
(9.77648 -6.40399e-19 5.98935)
(10.2659 2.15962e-18 6.69293)
(11.0721 5.07941e-19 5.81633)
(9.62634 3.73548e-19 7.84464)
(9.9937 -5.29707e-19 0.0898036)
(9.99801 -1.19714e-20 0.0626039)
(9.98224 0 0.145452)
(9.98958 2.62299e-20 0.119607)
(9.96589 3.94013e-20 0.201738)
(9.97662 -3.10362e-19 0.176069)
(9.94462 -4.42604e-20 0.260565)
(9.95882 3.85998e-20 0.234616)
(9.91859 -4.63747e-19 0.322918)
(9.93632 -8.04659e-20 0.296291)
(9.88816 -6.37515e-19 0.389793)
(9.90962 -2.94424e-19 0.361934)
(9.8535 -1.65698e-19 0.462346)
(9.87883 -1.75089e-19 0.432715)
(9.81461 3.76936e-19 0.541668)
(9.84413 -9.7964e-22 0.509873)
(9.77156 1.79444e-19 0.628686)
(9.80558 1.89531e-19 0.594382)
(9.7247 -3.03368e-19 0.724355)
(9.76333 9.6211e-20 0.687048)
(9.67448 1.12521e-20 0.8298)
(9.71803 -2.03064e-19 0.788889)
(9.62128 9.54537e-20 0.946312)
(9.67003 -2.04729e-19 0.901152)
(9.56569 2.33528e-19 1.07533)
(9.61974 -1.09168e-19 1.02516)
(9.50848 5.69416e-19 1.21837)
(9.56799 4.46805e-19 1.16237)
(9.4506 -3.68945e-19 1.3771)
(9.51566 1.21183e-19 1.31431)
(9.39323 2.89973e-20 1.55341)
(9.46389 -4.77466e-19 1.48272)
(9.33798 1.0383e-19 1.7495)
(9.41415 4.91516e-19 1.66953)
(9.28723 -1.00523e-18 1.96805)
(9.36828 -4.98966e-19 1.87698)
(9.24391 -3.75958e-19 2.2121)
(9.329 -7.53841e-19 2.1079)
(9.21143 -9.01665e-19 2.48483)
(9.29998 8.73059e-19 2.36538)
(9.19459 -1.04915e-18 2.78981)
(9.28499 -1.28013e-18 2.65233)
(9.20023 -1.00751e-18 3.13161)
(9.2895 9.48112e-19 2.97253)
(9.23748 -1.01857e-18 3.51518)
(9.3219 -2.42728e-18 3.3307)
(9.31846 -4.06653e-19 3.94466)
(9.39225 0 3.73142)
(9.45969 -3.74926e-19 4.42364)
(9.51787 -4.16245e-19 4.1768)
(9.68154 -1.23952e-18 4.94195)
(9.69823 8.1323e-20 4.67761)
(9.9962 -3.77553e-19 5.50392)
(10.0493 -6.25206e-19 5.16915)
(10.4978 -5.63022e-19 5.9692)
(10.2238 1.63049e-18 5.84625)
(10.8459 -1.01398e-18 6.68636)
(11.4697 -1.77261e-18 5.81156)
(10.3598 2.05519e-19 7.78162)
(9.99428 5.45122e-19 0.0934335)
(9.99833 7.83791e-19 0.0649698)
(9.98391 -2.91738e-19 0.15137)
(9.99058 3.49472e-20 0.124116)
(9.96916 -3.03927e-19 0.210069)
(9.97882 -4.12511e-20 0.182783)
(9.95008 0 0.271452)
(9.96287 0 0.243686)
(9.92685 8.49819e-20 0.336439)
(9.94296 0 0.307809)
(9.89971 1.70691e-19 0.406041)
(9.91935 8.50068e-20 0.375974)
(9.86881 -7.1012e-21 0.481481)
(9.89204 3.32418e-19 0.449409)
(9.83431 -1.85448e-19 0.563866)
(9.86139 -5.13025e-19 0.52936)
(9.79649 1.04695e-19 0.654062)
(9.82772 -2.70717e-19 0.616744)
(9.75571 1.92331e-19 0.752955)
(9.7913 3.78141e-19 0.71233)
(9.71246 -4.19243e-19 0.861666)
(9.75256 1.06663e-21 0.817096)
(9.66726 -4.08548e-19 0.981481)
(9.712 -1.32841e-19 0.932297)
(9.62072 1.11205e-19 1.11374)
(9.6702 -3.97025e-19 1.05922)
(9.57372 -5.70044e-21 1.25989)
(9.62798 -1.95844e-19 1.1992)
(9.52733 6.83959e-21 1.4215)
(9.58643 1.97343e-19 1.35369)
(9.48297 -4.96974e-21 1.60035)
(9.54669 3.31615e-19 1.52428)
(9.44239 -1.18886e-19 1.79841)
(9.51061 -1.22355e-19 1.71276)
(9.40786 -2.48082e-19 2.01799)
(9.47997 4.4303e-19 1.92112)
(9.3826 4.9936e-19 2.2619)
(9.45732 -9.2299e-19 2.15177)
(9.37053 4.93645e-19 2.53294)
(9.44701 1.20904e-18 2.40745)
(9.37652 7.10698e-19 2.83396)
(9.45293 -2.54763e-19 2.69065)
(9.40731 -4.35937e-19 3.16869)
(9.4803 9.84808e-19 3.00436)
(9.47221 -1.43943e-18 3.54101)
(9.53761 -1.44048e-18 3.35221)
(9.58351 0 3.95375)
(9.63495 -7.85313e-19 3.73748)
(9.75694 3.22017e-20 4.4085)
(9.78879 0 4.16113)
(10.0147 7.17218e-19 4.89455)
(10.0008 8.3679e-20 4.62882)
(10.3606 1.38014e-18 5.4065)
(10.3706 1.30529e-18 5.08812)
(10.9239 5.41582e-19 5.82059)
(10.6257 5.43978e-19 5.64739)
(11.4651 -3.79894e-19 6.6455)
(11.8381 1.11485e-18 5.69716)
(11.9677 -1.83743e-18 7.55201)
(0.20449 -1.89456e-20 -0.129811)
(0.0842121 -3.56192e-20 -0.133267)
(0.442377 -1.33187e-20 -0.105839)
(0.256395 2.97342e-20 -0.115258)
(0.781806 -7.24673e-21 -0.0887807)
(0.531382 3.85828e-20 -0.107702)
(1.29459 2.03327e-20 -0.0880187)
(0.950949 7.3095e-21 -0.123761)
(1.86069 8.35622e-21 -0.0888369)
(1.51695 -1.24389e-20 -0.136955)
(2.3387 0 -0.0867838)
(2.05069 2.92813e-21 -0.137028)
(2.71988 0 -0.0831859)
(2.46014 0 -0.130508)
(3.03604 0 -0.0798567)
(2.78319 -2.47133e-20 -0.12398)
(3.31215 0 -0.0776692)
(3.05221 8.59618e-21 -0.119897)
(3.56266 2.41725e-21 -0.076112)
(3.28867 3.62912e-20 -0.117602)
(3.79379 1.89844e-20 -0.0744855)
(3.50211 7.09503e-21 -0.115554)
(4.00802 3.53238e-20 -0.0724715)
(3.69653 2.87249e-20 -0.112914)
(4.2059 1.8768e-20 -0.0700004)
(3.87382 3.5418e-20 -0.109162)
(4.38751 0 -0.0671418)
(4.03412 4.53604e-21 -0.104298)
(4.55281 0 -0.0640479)
(4.17721 -2.22153e-20 -0.0984446)
(4.70201 0 -0.0609235)
(4.30283 0 -0.0918973)
(4.83571 -8.23413e-21 -0.0579752)
(4.41099 -1.69765e-20 -0.085028)
(4.9549 -3.22128e-22 -0.0553581)
(4.5021 -1.51467e-21 -0.0782266)
(5.06104 8.0126e-21 -0.0531165)
(4.57736 -1.44566e-20 -0.0718705)
(5.15585 0 -0.0511625)
(4.63899 1.54991e-20 -0.0662394)
(5.24121 0 -0.0493742)
(4.69004 0 -0.0615331)
(5.31934 6.7902e-21 -0.0477434)
(4.73439 0 -0.0581205)
(5.39332 5.09313e-22 -0.0464225)
(4.77656 3.29377e-22 -0.0566215)
(5.46702 -6.50829e-21 -0.045746)
(4.82177 -4.44356e-22 -0.0577125)
(5.54541 -1.05921e-23 -0.0462758)
(4.87587 1.70943e-22 -0.06234)
(5.63496 1.6279e-22 -0.0487688)
(4.94469 -1.68419e-22 -0.0717865)
(5.74365 3.30671e-21 -0.0541952)
(5.0356 0 -0.0874597)
(5.88111 3.31887e-21 -0.0636996)
(5.15702 -6.20745e-21 -0.11098)
(6.05771 0 -0.0782733)
(5.317 5.26977e-23 -0.143676)
(5.58337 -5.12028e-23 -0.18578)
(0.0873379 -4.59294e-21 -0.180692)
(0.00163977 -3.40257e-20 -0.212656)
(0.304255 6.29755e-20 -0.17616)
(0.116906 1.94506e-19 -0.21203)
(0.667925 5.48591e-20 -0.184163)
(0.385967 -1.10542e-19 -0.217828)
(1.19367 -1.88458e-20 -0.205492)
(0.7988 1.30402e-19 -0.25013)
(1.7447 -1.26883e-20 -0.21227)
(1.32758 1.56011e-20 -0.27324)
(2.19059 2.72884e-21 -0.205726)
(1.80007 2.38842e-20 -0.270222)
(2.53165 -2.62178e-20 -0.195069)
(2.14639 -2.73752e-20 -0.254895)
(2.80271 -1.56392e-20 -0.185625)
(2.40563 -8.86359e-21 -0.240596)
(3.02936 4.57169e-20 -0.179115)
(2.61083 8.83607e-21 -0.230966)
(3.22704 4.12322e-20 -0.174465)