/*--------------------------------*- C++ -*----------------------------------*\
| =========                 |                                                 |
| \\      /  F ield         | OpenFOAM: The Open Source CFD Toolbox           |
|  \\    /   O peration     | Version:  dev                                   |
|   \\  /    A nd           | Web:      www.OpenFOAM.org                      |
|    \\/     M anipulation  |                                                 |
\*---------------------------------------------------------------------------*/
FoamFile
{
    version     2.0;
    format      ascii;
    class       pointVectorField;
    location    "1.34";
    object      pointDisplacement;
}
// * * * * * * * * * * * * * * * * * * * * * * * * * * * * * * * * * * * * * //

dimensions      [0 1 0 0 0 0 0];

internalField   nonuniform List<vector> 
1030
(
(0.411333 0 -0.126041)
(0.403705 0 -0.121684)
(0.395706 0 -0.117108)
(0.412983 0 -0.125787)
(0.405278 0 -0.121761)
(0.397146 0 -0.11747)
(0.388496 0 -0.112954)
(0.379222 0 -0.108245)
(0.413554 0 -0.125036)
(0.405895 0 -0.121349)
(0.397744 0 -0.117356)
(0.389024 0 -0.113101)
(0.379645 0 -0.108615)
(0.369507 0 -0.103929)
(0.413106 0 -0.123859)
(0.405587 0 -0.120503)
(0.397506 0 -0.11681)
(0.388801 0 -0.112822)
(0.379394 0 -0.108571)
(0.369198 0 -0.104086)
(0.358111 0 -0.0993911)
(0.346023 0 -0.0945022)
(0.41171 0 -0.122316)
(0.404397 0 -0.119275)
(0.396453 0 -0.115874)
(0.38783 0 -0.11215)
(0.378463 0 -0.108137)
(0.368271 0 -0.103863)
(0.357164 0 -0.0993495)
(0.345041 0 -0.0946138)
(0.331795 0 -0.0896675)
(0.317311 0 -0.0845168)
(0.40944 0 -0.120463)
(0.402377 0 -0.117711)
(0.394621 0 -0.114585)
(0.386133 0 -0.111119)
(0.376856 0 -0.107341)
(0.366721 0 -0.103279)
(0.355645 0 -0.0989538)
(0.343537 0 -0.0943811)
(0.330294 0 -0.0895726)
(0.315809 0 -0.0845345)
(0.299968 0 -0.079268)
(0.406376 0 -0.118339)
(0.399586 0 -0.115851)
(0.392051 0 -0.11298)
(0.383735 0 -0.109757)
(0.374591 0 -0.106208)
(0.364555 0 -0.102356)
(0.353554 0 -0.0982201)
(0.341502 0 -0.0938163)
(0.328305 0 -0.0891551)
(0.31386 0 -0.0842423)
(0.298059 0 -0.0790788)
(0.28079 0 -0.0736605)
(0.261933 0 -0.0679768)
(0.402596 0 -0.115979)
(0.396089 0 -0.113724)
(0.388793 0 -0.111087)
(0.380676 0 -0.108091)
(0.371694 0 -0.104759)
(0.361792 0 -0.101112)
(0.350901 0 -0.0971648)
(0.338941 0 -0.0929327)
(0.325826 0 -0.088425)
(0.311459 0 -0.0836471)
(0.295736 0 -0.0785998)
(0.27855 0 -0.0732789)
(0.259787 0 -0.0676747)
(0.239328 0 -0.0617725)
(0.39818 0 -0.113407)
(0.391953 0 -0.111358)
(0.384901 0 -0.108931)
(0.376997 0 -0.106144)
(0.368199 0 -0.103017)
(0.358456 0 -0.099565)
(0.347703 0 -0.0958033)
(0.335867 0 -0.0917431)
(0.322866 0 -0.0873929)
(0.308609 0 -0.0827572)
(0.292998 0 -0.0778366)
(0.275929 0 -0.072627)
(0.257294 0 -0.0671192)
(0.236979 0 -0.0612992)
(0.214868 0 -0.0551475)
(0.190841 0 -0.0486383)
(0.393208 0 -0.110642)
(0.387246 0 -0.108771)
(0.380433 0 -0.10653)
(0.372747 0 -0.103934)
(0.364146 0 -0.100997)
(0.354579 0 -0.0977317)
(0.343987 0 -0.0941495)
(0.3323 0 -0.0902598)
(0.31944 0 -0.0860691)
(0.305321 0 -0.0815812)
(0.289851 0 -0.0767961)
(0.272932 0 -0.0717096)
(0.254458 0 -0.0663134)
(0.234321 0 -0.0605939)
(0.212409 0 -0.0545331)
(0.188607 0 -0.0481071)
(0.162798 0 -0.0412873)
(0.387745 0 -0.107691)
(0.382028 0 -0.105972)
(0.375448 0 -0.103897)
(0.367978 0 -0.101474)
(0.359578 0 -0.0987137)
(0.3502 0 -0.0956246)
(0.339784 0 -0.0922154)
(0.328266 0 -0.0884933)
(0.31557 0 -0.084463)
(0.301615 0 -0.0801272)
(0.286313 0 -0.0754851)
(0.26957 0 -0.0705326)
(0.251287 0 -0.0652615)
(0.231359 0 -0.0596594)
(0.209679 0 -0.0537095)
(0.186137 0 -0.0473896)
(0.160621 0 -0.0406734)
(0.133019 0 -0.0335293)
(0.103215 0 -0.0259205)
(0.381852 0 -0.104556)
(0.376364 0 -0.102969)
(0.370005 0 -0.101041)
(0.362745 0 -0.0987747)
(0.354547 0 -0.096177)
(0.345362 0 -0.0932537)
(0.335134 0 -0.0900106)
(0.323799 0 -0.0864525)
(0.311285 0 -0.0825827)
(0.297515 0 -0.0784023)
(0.282405 0 -0.0739099)
(0.265864 0 -0.0691012)
(0.247798 0 -0.0639682)
(0.228107 0 -0.0584994)
(0.20669 0 -0.0526792)
(0.18344 0 -0.0464875)
(0.158252 0 -0.0398999)
(0.131017 0 -0.0328878)
(0.101628 0 -0.025418)
(0.0699821 0 -0.0174542)
(0.375594 0 -0.101233)
(0.370315 0 -0.0997616)
(0.364167 0 -0.0979652)
(0.357109 0 -0.0958414)
(0.349106 0 -0.0933932)
(0.340115 0 -0.0906257)
(0.33008 0 -0.0875419)
(0.318938 0 -0.0841443)
(0.306621 0 -0.0804345)
(0.293053 0 -0.0764124)
(0.278154 0 -0.0720758)
(0.261837 0 -0.0674201)
(0.244013 0 -0.0624376)
(0.224586 0 -0.0571176)
(0.203458 0 -0.0514454)
(0.18053 0 -0.045403)
(0.1557 0 -0.0389683)
(0.128866 0 -0.0321153)
(0.0999275 0 -0.0248143)
(0.0687867 0 -0.0170327)
(0.0353103 0 -0.00872536)
(0.369039 0 -0.0977167)
(0.363947 0 -0.0963482)
(0.357992 0 -0.0946684)
(0.351124 0 -0.0926732)
(0.343309 0 -0.0903641)
(0.33451 0 -0.0877438)
(0.32467 0 -0.0848131)
(0.313729 0 -0.0815727)
(0.301618 0 -0.0780227)
(0.288266 0 -0.0741616)
(0.273595 0 -0.0699867)
(0.257521 0 -0.065493)
(0.239959 0 -0.0606731)
(0.220818 0 -0.0555167)
(0.200005 0 -0.0500108)
(0.177426 0 -0.0441387)
(0.152983 0 -0.0378805)
(0.12658 0 -0.0312131)
(0.0981231 0 -0.0241101)
(0.0675212 0 -0.0165426)
(0.0346494 0 -0.00847021)
(0 0 0)
(0.362257 0 -0.0939993)
(0.357324 0 -0.0927198)
(0.351536 0 -0.0911426)
(0.344849 0 -0.0892663)
(0.337219 0 -0.0870882)
(0.328605 0 -0.0846073)
(0.31896 0 -0.0818246)
(0.308221 0 -0.0787389)
(0.296324 0 -0.0753487)
(0.283197 0 -0.0716518)
(0.268766 0 -0.0676445)
(0.252951 0 -0.0633218)
(0.23567 0 -0.0586764)
(0.216835 0 -0.0536989)
(0.196358 0 -0.0483771)
(0.17415 0 -0.0426961)
(0.150119 0 -0.0366381)
(0.124175 0 -0.0301827)
(0.0962274 0 -0.0233065)
(0.0661937 0 -0.0159843)
(0.0339575 0 -0.00818044)
(0 0 0)
(0.355303 0 -0.0900614)
(0.350497 0 -0.0888586)
(0.344862 0 -0.0873774)
(0.338347 0 -0.0856124)
(0.330892 0 -0.0835572)
(0.322459 0 -0.0812109)
(0.313006 0 -0.0785729)
(0.302471 0 -0.0756406)
(0.29079 0 -0.0724113)
(0.277895 0 -0.0688821)
(0.263714 0 -0.065049)
(0.248169 0 -0.0609066)
(0.231182 0 -0.056448)
(0.21267 0 -0.0516645)
(0.192548 0 -0.0465449)
(0.170731 0 -0.041076)
(0.147133 0 -0.0352419)
(0.121669 0 -0.0290248)
(0.0942554 0 -0.0224042)
(0.0648148 0 -0.0153584)
(0.0332399 0 -0.00785626)
(0 0 0)
(0.348232 0 -0.0858796)
(0.34354 0 -0.0847486)
(0.33804 0 -0.0833579)
(0.331677 0 -0.0816968)
(0.324391 0 -0.0797599)
(0.316138 0 -0.0775459)
(0.306871 0 -0.075051)
(0.296537 0 -0.0722718)
(0.285074 0 -0.0692055)
(0.272414 0 -0.0658486)
(0.258488 0 -0.0621969)
(0.243223 0 -0.0582448)
(0.226541 0 -0.053986)
(0.208363 0 -0.0494121)
(0.18861 0 -0.0445132)
(0.1672 0 -0.0392777)
(0.144052 0 -0.0336916)
(0.119086 0 -0.0277393)
(0.0922246 0 -0.0214034)
(0.0633965 0 -0.0146652)
(0.0325028 0 -0.00749783)
(0 0 0)
(0.341123 0 -0.0814359)
(0.336529 0 -0.0803734)
(0.331144 0 -0.0790665)
(0.324916 0 -0.0775051)
(0.317791 0 -0.0756844)
(0.309713 0 -0.0736007)
(0.300628 0 -0.071248)
(0.290487 0 -0.0686224)
(0.279237 0 -0.0657224)
(0.266813 0 -0.0625437)
(0.253146 0 -0.0590816)
(0.238163 0 -0.055331)
(0.221793 0 -0.0512855)
(0.203958 0 -0.0469378)
(0.184584 0 -0.0422791)
(0.163591 0 -0.0372989)
(0.140905 0 -0.0319854)
(0.11645 0 -0.0263251)
(0.0901546 0 -0.0203033)
(0.0619523 0 -0.0139042)
(0.0317531 0 -0.00710502)
(0 0 0)
(0.334049 0 -0.0767014)
(0.329535 0 -0.0757044)
(0.324248 0 -0.0744782)
(0.318139 0 -0.0730148)
(0.31116 0 -0.0713088)
(0.303248 0 -0.069354)
(0.294339 0 -0.0671441)
(0.284387 0 -0.0646762)
(0.273348 0 -0.0619479)
(0.261157 0 -0.0589549)
(0.247747 0 -0.0556925)
(0.233049 0 -0.0521557)
(0.216993 0 -0.0483388)
(0.199506 0 -0.0442351)
(0.180514 0 -0.0398368)
(0.159945 0 -0.0351351)
(0.137727 0 -0.0301198)
(0.11379 0 -0.0247796)
(0.0880671 0 -0.019102)
(0.0604973 0 -0.0130744)
(0.0309987 0 -0.00667734)
(0 0 0)
(0.327079 0 -0.0716356)
(0.32263 0 -0.0707045)
(0.317427 0 -0.0695593)
(0.311424 0 -0.0681926)
(0.304573 0 -0.0666011)
(0.296813 0 -0.0647769)
(0.288079 0 -0.0627154)
(0.278316 0 -0.0604122)
(0.26748 0 -0.0578628)
(0.255516 0 -0.0550649)
(0.24236 0 -0.0520141)
(0.227944 0 -0.0487055)
(0.2122 0 -0.045134)
(0.195059 0 -0.0412937)
(0.176451 0 -0.037178)
(0.156306 0 -0.0327793)
(0.134557 0 -0.0280892)
(0.111138 0 -0.0230984)
(0.0859864 0 -0.0177967)
(0.0590482 0 -0.0121738)
(0.0302481 0 -0.00621386)
(0 0 0)
(0.320293 0 -0.0661935)
(0.315896 0 -0.0653289)
(0.31076 0 -0.0642655)
(0.304847 0 -0.0629983)
(0.298113 0 -0.0615252)
(0.290497 0 -0.0598385)
(0.281933 0 -0.0579321)
(0.272351 0 -0.0558005)
(0.261711 0 -0.0534407)
(0.249967 0 -0.0508504)
(0.237057 0 -0.0480254)
(0.222917 0 -0.0449617)
(0.20748 0 -0.0416547)
(0.190679 0 -0.0380994)
(0.172448 0 -0.0342904)
(0.152722 0 -0.0302213)
(0.131435 0 -0.0258854)
(0.108526 0 -0.0212752)
(0.0839394 0 -0.0163825)
(0.0576233 0 -0.0111994)
(0.0295105 0 -0.00571315)
(0 0 0)
(0.313776 0 -0.0603192)
(0.309416 0 -0.0595207)
(0.304336 0 -0.0585435)
(0.298509 0 -0.0573847)
(0.291882 0 -0.0560383)
(0.284394 0 -0.0544966)
(0.275983 0 -0.0527534)
(0.266581 0 -0.0508057)
(0.256132 0 -0.0486497)
(0.244596 0 -0.0462813)
(0.231921 0 -0.0436992)
(0.218046 0 -0.0408998)
(0.202904 0 -0.0378792)
(0.186433 0 -0.0346334)
(0.168568 0 -0.0311578)
(0.149246 0 -0.0274476)
(0.128408 0 -0.0234974)
(0.105995 0 -0.0193013)
(0.0819558 0 -0.0148533)
(0.056243 0 -0.0101472)
(0.0287965 0 -0.0051732)
(0 0 0)
(0.307626 0 -0.0539505)
(0.303296 0 -0.053224)
(0.298274 0 -0.0523416)
(0.292522 0 -0.0512996)
(0.285986 0 -0.0500876)
(0.27861 0 -0.0487005)
(0.27034 0 -0.0471342)
(0.261106 0 -0.0453853)
(0.250836 0 -0.0434474)
(0.239494 0 -0.0413188)
(0.227041 0 -0.0390003)
(0.213415 0 -0.0364883)
(0.198553 0 -0.0337796)
(0.182394 0 -0.0308711)
(0.164876 0 -0.0277593)
(0.14594 0 -0.0244405)
(0.125528 0 -0.0209107)
(0.103588 0 -0.0171656)
(0.0800687 0 -0.0132008)
(0.0549301 0 -0.00901185)
(0.0281174 0 -0.00459137)
(0 0 0)
(0.301964 0 -0.0470153)
(0.297662 0 -0.0463728)
(0.29269 0 -0.0455945)
(0.287 0 -0.0446753)
(0.280542 0 -0.0436079)
(0.273266 0 -0.0423884)
(0.26512 0 -0.0410137)
(0.256031 0 -0.0394778)
(0.245924 0 -0.0377777)
(0.234765 0 -0.0359141)
(0.222517 0 -0.0338849)
(0.209121 0 -0.031688)
(0.194517 0 -0.0293211)
(0.178647 0 -0.0267821)
(0.16145 0 -0.0240685)
(0.142871 0 -0.0211777)
(0.122855 0 -0.0181071)
(0.101351 0 -0.0148537)
(0.0783154 0 -0.0114144)
(0.0537099 0 -0.00778642)
(0.0274864 0 -0.0039643)
(0 0 0)
(0.296925 0 -0.0394195)
(0.292644 0 -0.038872)
(0.287706 0 -0.0382072)
(0.282066 0 -0.0374234)
(0.275675 0 -0.036516)
(0.268484 0 -0.0354812)
(0.26044 0 -0.0343159)
(0.251479 0 -0.0330154)
(0.241529 0 -0.0315807)
(0.230536 0 -0.0300104)
(0.218466 0 -0.0283003)
(0.205273 0 -0.026451)
(0.190899 0 -0.0244609)
(0.175285 0 -0.0223288)
(0.158376 0 -0.0200531)
(0.140115 0 -0.0176322)
(0.120453 0 -0.0150645)
(0.0993412 0 -0.0123482)
(0.0767387 0 -0.00948146)
(0.0526118 0 -0.00646256)
(0.0269182 0 -0.00328789)
(0 0 0)
(0.292653 0 -0.0310397)
(0.288381 0 -0.0305986)
(0.283469 0 -0.0300647)
(0.277872 0 -0.0294368)
(0.271537 0 -0.028711)
(0.264416 0 -0.0278848)
(0.256456 0 -0.0269557)
(0.247605 0 -0.0259217)
(0.23779 0 -0.0247831)
(0.226937 0 -0.023537)
(0.215017 0 -0.0221819)
(0.201996 0 -0.020719)
(0.187815 0 -0.0191473)
(0.172419 0 -0.0174659)
(0.155752 0 -0.015674)
(0.137763 0 -0.013771)
(0.1184 0 -0.011756)
(0.0976217 0 -0.0096282)
(0.075388 0 -0.00738656)
(0.0516696 0 -0.00503033)
(0.0264301 0 -0.00255726)
(0 0 0)
(0.28932 0 -0.0217337)
(0.285056 0 -0.021415)
(0.280165 0 -0.021035)
(0.274599 0 -0.0205878)
(0.268307 0 -0.0200712)
(0.261239 0 -0.0194838)
(0.253347 0 -0.0188244)
(0.244579 0 -0.0180921)
(0.234861 0 -0.0172848)
(0.224118 0 -0.016404)
(0.212318 0 -0.0154505)
(0.199431 0 -0.014422)
(0.185401 0 -0.0133183)
(0.170174 0 -0.0121394)
(0.153696 0 -0.0108853)
(0.135916 0 -0.00955568)
(0.116788 0 -0.00815043)
(0.0962683 0 -0.0066693)
(0.0743225 0 -0.00511196)
(0.0509243 0 -0.00347819)
(0.026043 0 -0.00176681)
(0 0 0)
(0.287137 0 -0.0113383)
(0.282882 0 -0.0111658)
(0.278007 0 -0.0109636)
(0.272459 0 -0.0107262)
(0.266192 0 -0.0104525)
(0.259158 0 -0.0101417)
(0.251307 0 -0.00979308)
(0.242587 0 -0.00940593)
(0.232935 0 -0.0089783)
(0.222275 0 -0.00851547)
(0.210557 0 -0.00801796)
(0.197752 0 -0.00748027)
(0.183817 0 -0.00690351)
(0.168698 0 -0.00628816)
(0.152343 0 -0.00563444)
(0.134699 0 -0.00494251)
(0.115723 0 -0.00421243)
(0.0953724 0 -0.00344422)
(0.0736144 0 -0.00263787)
(0.0504263 0 -0.0017934)
(0.025783 0 -0.000910348)
(0 0 0)
(0.286362 0 0)
(0.282108 0 0)
(0.277239 0 0)
(0.271698 0 0)
(0.26544 0 0)
(0.258417 0 0)
(0.25058 0 0)
(0.241875 0 0)
(0.232247 0 0)
(0.221623 0 0)
(0.209935 0 0)
(0.197156 0 0)
(0.183254 0 0)
(0.168174 0 0)
(0.151862 0 0)
(0.134267 0 0)
(0.115345 0 0)
(0.0950552 0 0)
(0.0733649 0 0)
(0.0502529 0 0)
(0.0256972 0 0)
(0 0 0)
(0.411333 0 -0.126041)
(0.403705 0 -0.121684)
(0.395706 0 -0.117108)
(0.412983 0 -0.125787)
(0.405278 0 -0.121761)
(0.397146 0 -0.11747)
(0.388496 0 -0.112954)
(0.379222 0 -0.108245)
(0.413554 0 -0.125036)
(0.405895 0 -0.121349)
(0.397744 0 -0.117356)
(0.389024 0 -0.113101)
(0.379645 0 -0.108615)
(0.369507 0 -0.103929)
(0.413106 0 -0.123859)
(0.405587 0 -0.120503)
(0.397506 0 -0.11681)
(0.388801 0 -0.112822)
(0.379394 0 -0.108571)
(0.369198 0 -0.104086)
(0.358111 0 -0.0993911)
(0.346023 0 -0.0945022)
(0.41171 0 -0.122316)
(0.404397 0 -0.119275)
(0.396453 0 -0.115874)
(0.38783 0 -0.11215)
(0.378463 0 -0.108137)
(0.368271 0 -0.103863)
(0.357164 0 -0.0993495)
(0.345041 0 -0.0946138)
(0.331795 0 -0.0896675)
(0.317311 0 -0.0845168)
(0.40944 0 -0.120463)
(0.402377 0 -0.117711)
(0.394621 0 -0.114585)
(0.386133 0 -0.111119)
(0.376856 0 -0.107341)
(0.366721 0 -0.103279)
(0.355645 0 -0.0989538)
(0.343537 0 -0.0943811)
(0.330294 0 -0.0895726)
(0.315809 0 -0.0845345)
(0.299968 0 -0.079268)
(0.406376 0 -0.118339)
(0.399586 0 -0.115851)
(0.392051 0 -0.11298)
(0.383735 0 -0.109757)
(0.374591 0 -0.106208)
(0.364555 0 -0.102356)
(0.353554 0 -0.0982201)
(0.341502 0 -0.0938163)
(0.328305 0 -0.0891551)
(0.31386 0 -0.0842423)
(0.298059 0 -0.0790788)
(0.28079 0 -0.0736605)
(0.261933 0 -0.0679768)
(0.402596 0 -0.115979)
(0.396089 0 -0.113724)
(0.388793 0 -0.111087)
(0.380676 0 -0.108091)
(0.371694 0 -0.104759)
(0.361792 0 -0.101112)
(0.350901 0 -0.0971648)
(0.338941 0 -0.0929327)
(0.325826 0 -0.088425)
(0.311459 0 -0.0836471)
(0.295736 0 -0.0785998)
(0.27855 0 -0.0732789)
(0.259787 0 -0.0676747)
(0.239328 0 -0.0617725)
(0.39818 0 -0.113407)
(0.391953 0 -0.111358)
(0.384901 0 -0.108931)
(0.376997 0 -0.106144)
(0.368199 0 -0.103017)
(0.358456 0 -0.099565)
(0.347703 0 -0.0958033)
(0.335867 0 -0.0917431)
(0.322866 0 -0.0873929)
(0.308609 0 -0.0827572)
(0.292998 0 -0.0778366)
(0.275929 0 -0.072627)
(0.257294 0 -0.0671192)
(0.236979 0 -0.0612992)
(0.214868 0 -0.0551475)
(0.190841 0 -0.0486383)
(0.393208 0 -0.110642)
(0.387246 0 -0.108771)
(0.380433 0 -0.10653)
(0.372747 0 -0.103934)
(0.364146 0 -0.100997)
(0.354579 0 -0.0977317)
(0.343987 0 -0.0941495)
(0.3323 0 -0.0902598)
(0.31944 0 -0.0860691)
(0.305321 0 -0.0815812)
(0.289851 0 -0.0767961)
(0.272932 0 -0.0717096)
(0.254458 0 -0.0663134)
(0.234321 0 -0.0605939)
(0.212409 0 -0.0545331)
(0.188607 0 -0.0481071)
(0.162798 0 -0.0412873)
(0.387745 0 -0.107691)
(0.382028 0 -0.105972)
(0.375448 0 -0.103897)
(0.367978 0 -0.101474)
(0.359578 0 -0.0987137)
(0.3502 0 -0.0956246)
(0.339784 0 -0.0922154)
(0.328266 0 -0.0884933)
(0.31557 0 -0.084463)
(0.301615 0 -0.0801272)
(0.286313 0 -0.0754851)
(0.26957 0 -0.0705326)
(0.251287 0 -0.0652615)
(0.231359 0 -0.0596594)
(0.209679 0 -0.0537095)
(0.186137 0 -0.0473896)
(0.160621 0 -0.0406734)
(0.133019 0 -0.0335293)
(0.103215 0 -0.0259205)
(0.381852 0 -0.104556)
(0.376364 0 -0.102969)
(0.370005 0 -0.101041)
(0.362745 0 -0.0987747)
(0.354547 0 -0.096177)
(0.345362 0 -0.0932537)
(0.335134 0 -0.0900106)
(0.323799 0 -0.0864525)
(0.311285 0 -0.0825827)
(0.297515 0 -0.0784023)
(0.282405 0 -0.0739099)
(0.265864 0 -0.0691012)
(0.247798 0 -0.0639682)
(0.228107 0 -0.0584994)
(0.20669 0 -0.0526792)
(0.18344 0 -0.0464875)
(0.158252 0 -0.0398999)
(0.131017 0 -0.0328878)
(0.101628 0 -0.025418)
(0.0699821 0 -0.0174542)
(0.375594 0 -0.101233)
(0.370315 0 -0.0997616)
(0.364167 0 -0.0979652)
(0.357109 0 -0.0958414)
(0.349106 0 -0.0933932)
(0.340115 0 -0.0906257)
(0.33008 0 -0.0875419)
(0.318938 0 -0.0841443)
(0.306621 0 -0.0804345)
(0.293053 0 -0.0764124)
(0.278154 0 -0.0720758)
(0.261837 0 -0.0674201)
(0.244013 0 -0.0624376)
(0.224586 0 -0.0571176)
(0.203458 0 -0.0514454)
(0.18053 0 -0.045403)
(0.1557 0 -0.0389683)
(0.128866 0 -0.0321153)
(0.0999275 0 -0.0248143)
(0.0687867 0 -0.0170327)
(0.0353103 0 -0.00872536)
(0.369039 0 -0.0977167)
(0.363947 0 -0.0963482)
(0.357992 0 -0.0946684)
(0.351124 0 -0.0926732)
(0.343309 0 -0.0903641)
(0.33451 0 -0.0877438)
(0.32467 0 -0.0848131)
(0.313729 0 -0.0815727)
(0.301618 0 -0.0780227)
(0.288266 0 -0.0741616)
(0.273595 0 -0.0699867)
(0.257521 0 -0.065493)
(0.239959 0 -0.0606731)
(0.220818 0 -0.0555167)
(0.200005 0 -0.0500108)
(0.177426 0 -0.0441387)
(0.152983 0 -0.0378805)
(0.12658 0 -0.0312131)
(0.0981231 0 -0.0241101)
(0.0675212 0 -0.0165426)
(0.0346494 0 -0.00847021)
(0 0 0)
(0.362257 0 -0.0939993)
(0.357324 0 -0.0927198)
(0.351536 0 -0.0911426)
(0.344849 0 -0.0892663)
(0.337219 0 -0.0870882)
(0.328605 0 -0.0846073)
(0.31896 0 -0.0818246)
(0.308221 0 -0.0787389)
(0.296324 0 -0.0753487)
(0.283197 0 -0.0716518)
(0.268766 0 -0.0676445)
(0.252951 0 -0.0633218)
(0.23567 0 -0.0586764)
(0.216835 0 -0.0536989)
(0.196358 0 -0.0483771)
(0.17415 0 -0.0426961)
(0.150119 0 -0.0366381)
(0.124175 0 -0.0301827)
(0.0962274 0 -0.0233065)
(0.0661937 0 -0.0159843)
(0.0339575 0 -0.00818044)
(0 0 0)
(0.355303 0 -0.0900614)
(0.350497 0 -0.0888586)
(0.344862 0 -0.0873774)
(0.338347 0 -0.0856124)
(0.330892 0 -0.0835572)
(0.322459 0 -0.0812109)
(0.313006 0 -0.0785729)
(0.302471 0 -0.0756406)
(0.29079 0 -0.0724113)
(0.277895 0 -0.0688821)
(0.263714 0 -0.065049)
(0.248169 0 -0.0609066)
(0.231182 0 -0.056448)
(0.21267 0 -0.0516645)
(0.192548 0 -0.0465449)
(0.170731 0 -0.041076)
(0.147133 0 -0.0352419)
(0.121669 0 -0.0290248)
(0.0942554 0 -0.0224042)
(0.0648148 0 -0.0153584)
(0.0332399 0 -0.00785626)
(0 0 0)
(0.348232 0 -0.0858796)
(0.34354 0 -0.0847486)
(0.33804 0 -0.0833579)
(0.331677 0 -0.0816968)
(0.324391 0 -0.0797599)
(0.316138 0 -0.0775459)
(0.306871 0 -0.075051)
(0.296537 0 -0.0722718)
(0.285074 0 -0.0692055)
(0.272414 0 -0.0658486)
(0.258488 0 -0.0621969)
(0.243223 0 -0.0582448)
(0.226541 0 -0.053986)
(0.208363 0 -0.0494121)
(0.18861 0 -0.0445132)
(0.1672 0 -0.0392777)
(0.144052 0 -0.0336916)
(0.119086 0 -0.0277393)
(0.0922246 0 -0.0214034)
(0.0633965 0 -0.0146652)
(0.0325028 0 -0.00749783)
(0 0 0)
(0.341123 0 -0.0814359)
(0.336529 0 -0.0803734)
(0.331144 0 -0.0790665)
(0.324916 0 -0.0775051)
(0.317791 0 -0.0756844)
(0.309713 0 -0.0736007)
(0.300628 0 -0.071248)
(0.290487 0 -0.0686224)
(0.279237 0 -0.0657224)
(0.266813 0 -0.0625437)
(0.253146 0 -0.0590816)
(0.238163 0 -0.055331)
(0.221793 0 -0.0512855)
(0.203958 0 -0.0469378)
(0.184584 0 -0.0422791)
(0.163591 0 -0.0372989)
(0.140905 0 -0.0319854)
(0.11645 0 -0.0263251)
(0.0901546 0 -0.0203033)
(0.0619523 0 -0.0139042)
(0.0317531 0 -0.00710502)
(0 0 0)
(0.334049 0 -0.0767014)
(0.329535 0 -0.0757044)
(0.324248 0 -0.0744782)
(0.318139 0 -0.0730148)
(0.31116 0 -0.0713088)
(0.303248 0 -0.069354)
(0.294339 0 -0.0671441)
(0.284387 0 -0.0646762)
(0.273348 0 -0.0619479)
(0.261157 0 -0.0589549)
(0.247747 0 -0.0556925)
(0.233049 0 -0.0521557)
(0.216993 0 -0.0483388)
(0.199506 0 -0.0442351)
(0.180514 0 -0.0398368)
(0.159945 0 -0.0351351)
(0.137727 0 -0.0301198)
(0.11379 0 -0.0247796)
(0.0880671 0 -0.019102)
(0.0604973 0 -0.0130744)
(0.0309987 0 -0.00667734)
(0 0 0)
(0.327079 0 -0.0716356)
(0.32263 0 -0.0707045)
(0.317427 0 -0.0695593)
(0.311424 0 -0.0681926)
(0.304573 0 -0.0666011)
(0.296813 0 -0.0647769)
(0.288079 0 -0.0627154)
(0.278316 0 -0.0604122)
(0.26748 0 -0.0578628)
(0.255516 0 -0.0550649)
(0.24236 0 -0.0520141)
(0.227944 0 -0.0487055)
(0.2122 0 -0.045134)
(0.195059 0 -0.0412937)
(0.176451 0 -0.037178)
(0.156306 0 -0.0327793)
(0.134557 0 -0.0280892)
(0.111138 0 -0.0230984)
(0.0859864 0 -0.0177967)
(0.0590482 0 -0.0121738)
(0.0302481 0 -0.00621386)
(0 0 0)
(0.320293 0 -0.0661935)
(0.315896 0 -0.0653289)
(0.31076 0 -0.0642655)
(0.304847 0 -0.0629983)
(0.298113 0 -0.0615252)
(0.290497 0 -0.0598385)
(0.281933 0 -0.0579321)
(0.272351 0 -0.0558005)
(0.261711 0 -0.0534407)
(0.249967 0 -0.0508504)
(0.237057 0 -0.0480254)
(0.222917 0 -0.0449617)
(0.20748 0 -0.0416547)
(0.190679 0 -0.0380994)
(0.172448 0 -0.0342904)
(0.152722 0 -0.0302213)
(0.131435 0 -0.0258854)
(0.108526 0 -0.0212752)
(0.0839394 0 -0.0163825)
(0.0576233 0 -0.0111994)
(0.0295105 0 -0.00571315)
(0 0 0)
(0.313776 0 -0.0603192)
(0.309416 0 -0.0595207)
(0.304336 0 -0.0585435)
(0.298509 0 -0.0573847)
(0.291882 0 -0.0560383)
(0.284394 0 -0.0544966)
(0.275983 0 -0.0527534)
(0.266581 0 -0.0508057)
(0.256132 0 -0.0486497)
(0.244596 0 -0.0462813)
(0.231921 0 -0.0436992)
(0.218046 0 -0.0408998)
(0.202904 0 -0.0378792)
(0.186433 0 -0.0346334)
(0.168568 0 -0.0311578)
(0.149246 0 -0.0274476)
(0.128408 0 -0.0234974)
(0.105995 0 -0.0193013)
(0.0819558 0 -0.0148533)
(0.056243 0 -0.0101472)
(0.0287965 0 -0.0051732)
(0 0 0)
(0.307626 0 -0.0539505)
(0.303296 0 -0.053224)
(0.298274 0 -0.0523416)
(0.292522 0 -0.0512996)
(0.285986 0 -0.0500876)
(0.27861 0 -0.0487005)
(0.27034 0 -0.0471342)
(0.261106 0 -0.0453853)
(0.250836 0 -0.0434474)
(0.239494 0 -0.0413188)
(0.227041 0 -0.0390003)
(0.213415 0 -0.0364883)
(0.198553 0 -0.0337796)
(0.182394 0 -0.0308711)
(0.164876 0 -0.0277593)
(0.14594 0 -0.0244405)
(0.125528 0 -0.0209107)
(0.103588 0 -0.0171656)
(0.0800687 0 -0.0132008)
(0.0549301 0 -0.00901185)
(0.0281174 0 -0.00459137)
(0 0 0)
(0.301964 0 -0.0470153)
(0.297662 0 -0.0463728)
(0.29269 0 -0.0455945)
(0.287 0 -0.0446753)
(0.280542 0 -0.0436079)
(0.273266 0 -0.0423884)
(0.26512 0 -0.0410137)
(0.256031 0 -0.0394778)
(0.245924 0 -0.0377777)
(0.234765 0 -0.0359141)
(0.222517 0 -0.0338849)
(0.209121 0 -0.031688)
(0.194517 0 -0.0293211)
(0.178647 0 -0.0267821)
(0.16145 0 -0.0240685)
(0.142871 0 -0.0211777)
(0.122855 0 -0.0181071)
(0.101351 0 -0.0148537)
(0.0783154 0 -0.0114144)
(0.0537099 0 -0.00778642)
(0.0274864 0 -0.0039643)
(0 0 0)
(0.296925 0 -0.0394195)
(0.292644 0 -0.038872)
(0.287706 0 -0.0382072)
(0.282066 0 -0.0374234)
(0.275675 0 -0.036516)
(0.268484 0 -0.0354812)
(0.26044 0 -0.0343159)
(0.251479 0 -0.0330154)
(0.241529 0 -0.0315807)
(0.230536 0 -0.0300104)
(0.218466 0 -0.0283003)
(0.205273 0 -0.026451)
(0.190899 0 -0.0244609)
(0.175285 0 -0.0223288)
(0.158376 0 -0.0200531)
(0.140115 0 -0.0176322)
(0.120453 0 -0.0150645)
(0.0993412 0 -0.0123482)
(0.0767387 0 -0.00948146)
(0.0526118 0 -0.00646256)
(0.0269182 0 -0.00328789)
(0 0 0)
(0.292653 0 -0.0310397)
(0.288381 0 -0.0305986)
(0.283469 0 -0.0300647)
(0.277872 0 -0.0294368)
(0.271537 0 -0.028711)
(0.264416 0 -0.0278848)
(0.256456 0 -0.0269557)
(0.247605 0 -0.0259217)
(0.23779 0 -0.0247831)
(0.226937 0 -0.023537)
(0.215017 0 -0.0221819)
(0.201996 0 -0.020719)
(0.187815 0 -0.0191473)
(0.172419 0 -0.0174659)
(0.155752 0 -0.015674)
(0.137763 0 -0.013771)
(0.1184 0 -0.011756)
(0.0976217 0 -0.0096282)
(0.075388 0 -0.00738656)
(0.0516696 0 -0.00503033)
(0.0264301 0 -0.00255726)
(0 0 0)
(0.28932 0 -0.0217337)
(0.285056 0 -0.021415)
(0.280165 0 -0.021035)
(0.274599 0 -0.0205878)
(0.268307 0 -0.0200712)
(0.261239 0 -0.0194838)
(0.253347 0 -0.0188244)
(0.244579 0 -0.0180921)
(0.234861 0 -0.0172848)
(0.224118 0 -0.016404)
(0.212318 0 -0.0154505)
(0.199431 0 -0.014422)
(0.185401 0 -0.0133183)
(0.170174 0 -0.0121394)
(0.153696 0 -0.0108853)
(0.135916 0 -0.00955568)
(0.116788 0 -0.00815043)
(0.0962683 0 -0.0066693)
(0.0743225 0 -0.00511196)
(0.0509243 0 -0.00347819)
(0.026043 0 -0.00176681)
(0 0 0)
(0.287137 0 -0.0113383)
(0.282882 0 -0.0111658)
(0.278007 0 -0.0109636)
(0.272459 0 -0.0107262)
(0.266192 0 -0.0104525)
(0.259158 0 -0.0101417)
(0.251307 0 -0.00979308)
(0.242587 0 -0.00940593)
(0.232935 0 -0.0089783)
(0.222275 0 -0.00851547)
(0.210557 0 -0.00801796)
(0.197752 0 -0.00748027)
(0.183817 0 -0.00690351)
(0.168698 0 -0.00628816)
(0.152343 0 -0.00563444)
(0.134699 0 -0.00494251)
(0.115723 0 -0.00421243)
(0.0953724 0 -0.00344422)
(0.0736144 0 -0.00263787)
(0.0504263 0 -0.0017934)
(0.025783 0 -0.000910348)
(0 0 0)
(0.286362 0 0)
(0.282108 0 0)
(0.277239 0 0)
(0.271698 0 0)
(0.26544 0 0)
(0.258417 0 0)
(0.25058 0 0)
(0.241875 0 0)
(0.232247 0 0)
(0.221623 0 0)
(0.209935 0 0)
(0.197156 0 0)
(0.183254 0 0)
(0.168174 0 0)
(0.151862 0 0)
(0.134267 0 0)
(0.115345 0 0)
(0.0950552 0 0)
(0.0733649 0 0)
(0.0502529 0 0)
(0.0256972 0 0)
(0 0 0)
)
;

boundaryField
{
    inlet
    {
        type            fixedValue;
        value           nonuniform 0();
    }
    outlet
    {
        type            fixedValue;
        value           uniform (0 0 0);
    }
    flap
    {
        type            fixedValue;
        value           nonuniform 0();
    }
    upperWall
    {
        type            slip;
    }
    lowerWall
    {
        type            slip;
    }
    frontAndBack
    {
        type            empty;
    }
    procBoundary2to1
    {
        type            processor;
    }
    procBoundary2to4
    {
        type            processor;
    }
    procBoundary2to5
    {
        type            processor;
    }
}


// ************************************************************************* //
