/*--------------------------------*- C++ -*----------------------------------*\
| =========                 |                                                 |
| \\      /  F ield         | OpenFOAM: The Open Source CFD Toolbox           |
|  \\    /   O peration     | Version:  dev                                   |
|   \\  /    A nd           | Web:      www.OpenFOAM.org                      |
|    \\/     M anipulation  |                                                 |
\*---------------------------------------------------------------------------*/
FoamFile
{
    version     2.0;
    format      ascii;
    class       surfaceScalarField;
    location    "2.34";
    object      phi;
}
// * * * * * * * * * * * * * * * * * * * * * * * * * * * * * * * * * * * * * //

dimensions      [0 3 -1 0 0 0 0];

internalField   nonuniform List<scalar> 
881
(
0.197594
0.00243304
0.195134
0.0024796
0.192561
0.0025811
0.18982
0.00273991
0.186904
0.00290643
0.183813
0.00307448
0.180545
0.00324764
0.177094
0.00342952
0.173452
0.00362197
0.169606
0.00382863
0.165539
0.00405346
0.161234
0.00429788
0.156667
0.00456501
0.151813
0.00485813
0.14664
0.00518055
0.141114
0.00553623
0.135197
0.00592966
0.128844
0.00636574
0.122007
0.0068496
0.114632
0.00738673
0.00798252
0.199443
0.00301793
0.198322
0.0036198
0.196953
0.00395884
0.195359
0.0043325
0.193536
0.00472016
0.191483
0.00511104
0.189201
0.00550858
0.186693
0.0059165
0.183946
0.00634728
0.180949
0.00680818
0.17769
0.00729949
0.174153
0.00782722
0.170318
0.00839834
0.166159
0.00901973
0.16165
0.00969822
0.156754
0.0104424
0.151434
0.0112622
0.145645
0.0121686
0.139333
0.0131734
0.132441
0.0142912
0.0155366
0.199305
0.00374109
0.198264
0.00468012
0.196972
0.0052599
0.195477
0.00582682
0.193779
0.0064079
0.191877
0.00699688
0.18977
0.00759453
0.187458
0.00820618
0.184934
0.00885015
0.182188
0.00953589
0.17921
0.0102647
0.175984
0.011045
0.172492
0.011888
0.168711
0.0128038
0.164615
0.0138022
0.160171
0.0148968
0.155342
0.0161039
0.150082
0.0174418
0.144338
0.0189302
0.138043
0.0205987
0.0224781
0.199212
0.00455723
0.198179
0.00573345
0.196903
0.00654509
0.195421
0.00730716
0.193744
0.00807555
0.191869
0.00885489
0.189799
0.00964387
0.187531
0.0104521
0.185059
0.0113002
0.182379
0.0121976
0.179479
0.0131504
0.176348
0.014167
0.172969
0.0152645
0.169321
0.0164555
0.16538
0.0177503
0.161118
0.0191696
0.156498
0.0207361
0.151476
0.0224773
0.145998
0.0244218
0.139997
0.0266115
0.0291033
0.199164
0.00542167
0.198122
0.00679548
0.196857
0.00781985
0.195387
0.00877606
0.193724
0.00972853
0.191873
0.0106898
0.189831
0.0116641
0.187594
0.0126669
0.185155
0.013717
0.182509
0.014824
0.179648
0.015997
0.176558
0.0172479
0.173224
0.0185948
0.16963
0.0200524
0.165751
0.0216367
0.161558
0.0233732
0.157016
0.0252908
0.152078
0.0274282
0.146685
0.0298281
0.140775
0.0325346
0.0356401
0.199141
0.00630989
0.198089
0.00786781
0.196833
0.00908549
0.195378
0.0102297
0.193735
0.0113617
0.191911
0.0124972
0.1899
0.0136537
0.187693
0.0148512
0.185286
0.0161016
0.182673
0.0174168
0.179846
0.0188089
0.176788
0.0202959
0.173489
0.0218898
0.169933
0.0236105
0.166089
0.0254865
0.16193
0.0275427
0.15742
0.0298135
0.152509
0.0323533
0.14713
0.0352208
0.141209
0.0384687
0.0422169
0.199132
0.00720753
0.198077
0.00894358
0.196832
0.0103398
0.195397
0.0116639
0.193779
0.0129702
0.191981
0.0142785
0.189998
0.0156148
0.187825
0.0170007
0.185455
0.018448
0.182881
0.0199701
0.180094
0.0215799
0.177081
0.0232981
0.173829
0.0251368
0.170314
0.0271267
0.166506
0.0293008
0.162373
0.0316848
0.157876
0.0343239
0.152963
0.0372793
0.14757
0.040628
0.1416
0.0444518
0.0488894
0.199133
0.00810475
0.198083
0.0100142
0.196855
0.0115776
0.195446
0.0130727
0.193859
0.014548
0.192092
0.0160282
0.190144
0.0175411
0.188012
0.0191086
0.185686
0.0207499
0.183158
0.0224768
0.180419
0.0243013
0.177458
0.0262471
0.174253
0.0283357
0.170778
0.0306014
0.16701
0.0330745
0.16291
0.0357943
0.158426
0.0388203
0.153514
0.0422048
0.148103
0.0460529
0.142081
0.0504873
0.0556586
0.19914
0.00899496
0.198103
0.0110729
0.196897
0.0127938
0.195519
0.0144511
0.193968
0.0160896
0.192242
0.0177373
0.190338
0.0194232
0.188249
0.0211726
0.185969
0.023005
0.183493
0.0249301
0.18081
0.0269659
0.177903
0.0291407
0.174748
0.0314838
0.171324
0.034024
0.167609
0.0367935
0.163556
0.0398559
0.159111
0.0432766
0.154219
0.0471109
0.148799
0.0514868
0.142744
0.0565569
0.0624975
0.199151
0.0098746
0.198131
0.0121152
0.19695
0.0139849
0.195605
0.0157962
0.194094
0.0175917
0.192413
0.0194014
0.190557
0.0212568
0.188517
0.0231878
0.186291
0.0252049
0.183878
0.02732
0.181259
0.029565
0.178417
0.0319678
0.175335
0.0345565
0.171988
0.0373688
0.168335
0.0404488
0.16434
0.0438593
0.159955
0.0476725
0.155106
0.0519724
0.14971
0.0568968
0.143663
0.0626185
0.0693532
0.199165
0.0107411
0.198165
0.0131377
0.197013
0.015148
0.195705
0.0171051
0.194237
0.0190508
0.192605
0.0210162
0.190803
0.0230366
0.188825
0.0251399
0.18667
0.0273334
0.18433
0.0296347
0.181787
0.0320864
0.179024
0.0347148
0.176024
0.0375463
0.172758
0.0406305
0.169183
0.0440251
0.16527
0.0477781
0.160972
0.0519802
0.156205
0.0567524
0.150884
0.0622318
0.144898
0.0686184
0.0761664
0.199184
0.0115892
0.19821
0.0141347
0.197092
0.0162775
0.195825
0.0183728
0.194406
0.0204616
0.192829
0.0225759
0.191089
0.0247541
0.189183
0.0270201
0.187106
0.0293833
0.184843
0.0318713
0.182382
0.0345248
0.179709
0.0373698
0.176797
0.0404456
0.173627
0.0437941
0.17017
0.047482
0.166375
0.0515776
0.162192
0.0561716
0.15755
0.0614059
0.152363
0.0674321
0.146515
0.0744802
0.0828493
0.199208
0.0124141
0.198266
0.0151005
0.197188
0.0173678
0.195969
0.0195933
0.194604
0.0218183
0.193085
0.0240775
0.19141
0.0264068
0.189578
0.0288261
0.18758
0.0313529
0.1854
0.0340236
0.183032
0.0368684
0.180467
0.0399149
0.177676
0.043222
0.17463
0.0468313
0.171306
0.0508036
0.167653
0.0552339
0.163627
0.0602043
0.15917
0.0658723
0.15419
0.0724245
0.148573
0.0801108
0.0892564
0.199234
0.013214
0.198327
0.0160319
0.197292
0.018415
0.196124
0.0207629
0.194816
0.0231185
0.193359
0.0255181
0.191756
0.0279874
0.190006
0.0305492
0.188097
0.0332332
0.186022
0.0360705
0.18377
0.039094
0.181322
0.0423409
0.17866
0.0458667
0.175755
0.0497258
0.172587
0.053967
0.169125
0.0586958
0.165309
0.0640253
0.161081
0.0701082
0.156372
0.0771448
0.151098
0.0853964
0.0952238
0.199256
0.19838
0.197387
0.0194218
0.196268
0.0218835
0.195016
0.0243628
0.193628
0.0268904
0.192106
0.0294869
0.190442
0.0321862
0.188627
0.0350186
0.186656
0.0380115
0.184515
0.0412072
0.182184
0.0446488
0.179656
0.048375
0.176916
0.0524524
0.17393
0.0569455
0.170673
0.0619505
0.167084
0.0676166
0.163117
0.0740814
0.158732
0.0815385
0.153879
0.0902601
0.100626
0.2051
0.204008
0.0229784
0.202788
0.0255752
0.201441
0.0282215
0.199961
0.0309432
0.198341
0.0337787
0.196579
0.0367496
0.194664
0.0398944
0.192591
0.0432504
0.190351
0.0468621
0.187926
0.0507768
0.185305
0.0550568
0.182458
0.0597817
0.179359
0.0650441
0.175986
0.0709897
0.172301
0.0777702
0.16828
0.0855661
0.163906
0.0946436
0.105369
0.20916
0.207987
0.0267413
0.206695
0.0294973
0.205276
0.032339
0.203728
0.0352979
0.202054
0.0383912
0.200242
0.0416731
0.198283
0.0451773
0.196171
0.0489448
0.193891
0.053031
0.191437
0.057491
0.188794
0.0624106
0.185938
0.067891
0.18287
0.0740539
0.179585
0.0810561
0.176076
0.0890794
0.172372
0.0983542
0.109244
0.213351
0.212129
0.0307033
0.210793
0.0336514
0.209345
0.0367173
0.207778
0.0399245
0.206086
0.0433311
0.20426
0.0469684
0.202301
0.0508717
0.200208
0.0550955
0.197976
0.0597001
0.19559
0.0647784
0.19305
0.070419
0.190372
0.0767247
0.187581
0.0838435
0.184719
0.0919427
0.181839
0.101239
0.112031
0.217754
0.216514
0.0348678
0.215176
0.0380265
0.213729
0.0413376
0.212174
0.0448505
0.210511
0.0485944
0.208742
0.0526062
0.206871
0.0569355
0.204895
0.0616492
0.20282
0.0668318
0.200663
0.0725595
0.198459
0.0789185
0.196248
0.086048
0.194119
0.0940696
0.192168
0.103191
0.11356
0.222432
0.22122
0.03921
0.219916
0.0426069
0.218525
0.0462049
0.217051
0.0500298
0.215504
0.0541175
0.213887
0.0585179
0.212209
0.0632974
0.210495
0.0685211
0.208782
0.0742526
0.207107
0.0805786
0.205552
0.0875925
0.204227
0.0953889
0.203293
0.104122
0.113765
0.227492
0.226348
0.225144
0.0473715
0.223888
0.0512466
0.222592
0.0553755
0.221264
0.0598096
0.219927
0.0646018
0.218613
0.0698063
0.217378
0.0754647
0.21628
0.0816575
0.215435
0.0884245
0.214965
0.0958497
0.215086
0.103995
0.112713
0.23204
0.231025
0.0522221
0.230002
0.0563588
0.228992
0.0607819
0.228026
0.0655326
0.227152
0.0706494
0.226428
0.0761619
0.225946
0.0821179
0.225826
0.0885275
0.226208
0.0954549
0.227342
0.102853
0.110533
0.238453
0.237725
0.237055
0.0614132
0.236483
0.0660673
0.236073
0.0710262
0.235892
0.0763141
0.236031
0.0819542
0.236622
0.087917
0.237823
0.0942388
0.239873
0.100791
0.107372
0.245448
0.245294
0.245362
0.0709238
0.24572
0.0759252
0.246465
0.0811828
0.247734
0.0866259
0.249698
0.092257
0.252559
0.0979161
0.10343
0.254975
0.255853
0.0750156
0.257184
0.0798247
0.259092
0.0846933
0.261736
0.0895941
0.265243
0.0943937
0.0989632
0.266238
0.268135
0.270621
0.0821832
0.273802
0.0863922
0.277749
0.0904291
0.0941812
0.282194
0.285757
0.289998
0.0861709
0.0892118
0.301993
)
;

boundaryField
{
    inlet
    {
        type            calculated;
        value           nonuniform List<scalar> 
15
(
-0.2
-0.2
-0.2
-0.2
-0.2
-0.2
-0.2
-0.2
-0.2
-0.2
-0.2
-0.2
-0.2
-0.2
-0.2
)
;
    }
    outlet
    {
        type            calculated;
        value           nonuniform 0();
    }
    flap
    {
        type            calculated;
        value           nonuniform 0();
    }
    upperWall
    {
        type            calculated;
        value           nonuniform 0();
    }
    lowerWall
    {
        type            calculated;
        value           uniform 0;
    }
    frontAndBack
    {
        type            empty;
        value           nonuniform 0();
    }
    procBoundary3to0
    {
        type            processor;
        value           nonuniform List<scalar> 
34
(
0.0139935
0.0169326
-0.206071
0.0204085
-0.210211
0.0240343
-0.214464
0.0278498
-0.21889
0.031826
-0.223561
0.0359762
-0.228564
0.040256
0.0437177
-0.233033
0.0483291
-0.239208
0.0529398
0.0570486
-0.245757
0.0616859
0.0661844
-0.254435
0.0703506
-0.264846
0.073594
0.0779003
-0.279252
0.0792178
0.082808
-0.297553
0.0817132
0.0841466
)
;
    }
    procBoundary3to1
    {
        type            processor;
        value           nonuniform List<scalar> 9(0.20309 0.216137 0.229519 0.243029 0.256493 0.269699 0.282518 0.294952 0.307042);
    }
    procBoundary3to4
    {
        type            processor;
        value           nonuniform List<scalar> 
19
(
0.106659
0.124896
0.131111
0.133382
0.134249
0.134643
0.13494
0.135325
0.135918
0.136821
0.138099
0.139847
0.142181
0.145145
0.148491
0.159176
0.168509
0.179061
0.190646
)
;
    }
}


// ************************************************************************* //
