/*--------------------------------*- C++ -*----------------------------------*\
| =========                 |                                                 |
| \\      /  F ield         | OpenFOAM: The Open Source CFD Toolbox           |
|  \\    /   O peration     | Version:  dev                                   |
|   \\  /    A nd           | Web:      www.OpenFOAM.org                      |
|    \\/     M anipulation  |                                                 |
\*---------------------------------------------------------------------------*/
FoamFile
{
    version     2.0;
    format      ascii;
    class       surfaceScalarField;
    location    "1.23";
    object      phi;
}
// * * * * * * * * * * * * * * * * * * * * * * * * * * * * * * * * * * * * * //

dimensions      [0 3 -1 0 0 0 0];

internalField   nonuniform List<scalar> 
5457
(
0.197701
0.00229743
0.195339
0.00236385
0.192861
0.00248593
0.190205
0.00266748
0.187362
0.00285957
0.184324
0.00305491
0.181082
0.00325805
0.177621
0.00347392
0.173924
0.0037047
0.169973
0.00395327
0.165746
0.00422222
0.161224
0.00451226
0.156384
0.00482578
0.1512
0.00516566
0.145646
0.00553479
0.139692
0.0059359
0.133303
0.0063715
0.126444
0.00684406
0.119076
0.00735591
0.111158
0.0079089
0.10265
0.00850315
0.0935102
0.0091375
0.0836991
0.00981062
0.073179
0.0105205
0.0619161
0.0112638
0.0498844
0.0120326
0.0370646
0.0128206
0.023452
0.0136131
0.00914354
0.0143087
0.00914361
0.199529
0.00276595
0.198496
0.00339929
0.197212
0.00377704
0.195697
0.00419485
0.19394
0.00463287
0.191934
0.00507787
0.189673
0.00553565
0.187147
0.00601286
0.18434
0.00652024
0.181232
0.00706351
0.177807
0.00764244
0.174048
0.00826174
0.169932
0.00892674
0.165437
0.00964342
0.160534
0.010418
0.155195
0.0112565
0.149383
0.012165
0.143063
0.0131496
0.13619
0.0142168
0.128716
0.0153736
0.12059
0.0166242
0.111754
0.0179706
0.102147
0.0194174
0.0916956
0.0209723
0.0803095
0.0226507
0.0678726
0.0244705
0.0542308
0.0264632
0.0391437
0.0287007
0.0218074
0.0316453
0.0309511
0.19939
0.00337391
0.198433
0.00435782
0.197223
0.00499389
0.195805
0.00562519
0.194174
0.00627998
0.192322
0.00694758
0.190242
0.0076332
0.187922
0.00834616
0.185349
0.00910132
0.182509
0.00990635
0.179385
0.0107621
0.175962
0.0116758
0.172218
0.0126556
0.168133
0.0137108
0.16368
0.0148511
0.15883
0.016087
0.153548
0.0174291
0.147794
0.0188886
0.14152
0.0204778
0.134668
0.0222164
0.127167
0.0241199
0.118935
0.0262002
0.109871
0.0284807
0.0998483
0.0309952
0.0886909
0.0338089
0.0761215
0.0370407
0.0617109
0.0408745
0.0448507
0.0455615
0.0244426
0.0520536
0.0553937
0.199297
0.00407461
0.198345
0.00531084
0.197152
0.00619455
0.195749
0.00704045
0.19414
0.00790517
0.192319
0.00878663
0.190278
0.00969148
0.188005
0.0106324
0.185492
0.0116239
0.182726
0.0126752
0.179693
0.0137915
0.176378
0.014981
0.172765
0.0162543
0.168834
0.0176237
0.164563
0.0191027
0.159925
0.0207061
0.154884
0.0224508
0.149402
0.0243548
0.143431
0.0264369
0.136908
0.0287294
0.129751
0.031271
0.121851
0.0340969
0.11307
0.0372609
0.103214
0.040851
0.0920314
0.0449921
0.0791592
0.0499136
0.0639795
0.0560548
0.0455985
0.0639428
0.0239316
0.0737207
0.0793254
0.199247
0.00482436
0.198287
0.00627257
0.197104
0.00738377
0.195715
0.00844301
0.194123
0.00951348
0.192324
0.0106035
0.19031
0.0117231
0.18807
0.012887
0.185593
0.0141102
0.182869
0.0154034
0.179883
0.0167745
0.176621
0.0182334
0.173068
0.0197931
0.169205
0.0214691
0.16501
0.023278
0.160457
0.025239
0.155512
0.027377
0.150132
0.0297185
0.144265
0.0322913
0.137848
0.0351356
0.13079
0.0383219
0.122961
0.0419234
0.114193
0.0460273
0.104252
0.0507914
0.0927929
0.0564513
0.0794003
0.0633066
0.0635595
0.071896
0.0442946
0.083208
0.022399
0.0956164
0.101724
0.199224
0.00559686
0.198255
0.00724269
0.197082
0.00856314
0.195709
0.00982852
0.19414
0.0111001
0.192367
0.0123944
0.190384
0.0137248
0.188178
0.015108
0.185738
0.0165598
0.183054
0.0180924
0.18011
0.0197156
0.176894
0.0214412
0.173387
0.0232864
0.169569
0.0252693
0.165419
0.027409
0.160909
0.0297279
0.156004
0.0322636
0.150653
0.0350527
0.1448
0.0381301
0.13837
0.0415541
0.131264
0.0454212
0.123337
0.0498457
0.11439
0.0549728
0.104175
0.0610051
0.0923421
0.0682838
0.0783794
0.0772694
0.0619202
0.0883552
0.0422047
0.102923
0.0206131
0.117208
0.122337
0.199216
0.00637685
0.198245
0.0082144
0.197085
0.00972922
0.195735
0.0111916
0.194193
0.0126593
0.192453
0.0141533
0.190506
0.0156904
0.188341
0.0172889
0.185946
0.0189663
0.183308
0.0207357
0.180414
0.0226085
0.177249
0.0245983
0.173792
0.0267302
0.170019
0.029025
0.165906
0.0315019
0.161423
0.0341906
0.156533
0.0371339
0.151185
0.0403835
0.145312
0.0439885
0.138817
0.0480372
0.131589
0.0526405
0.123486
0.0579445
0.114286
0.06417
0.103694
0.0715948
0.0914073
0.08057
0.0769495
0.0917267
0.0599609
0.105343
0.0399502
0.122934
0.0189102
0.138248
0.141247
0.199216
0.00715556
0.198251
0.00917996
0.197109
0.0108774
0.195786
0.0125279
0.194277
0.0141856
0.192575
0.0158744
0.190672
0.0176132
0.188555
0.0194229
0.186211
0.0213225
0.183626
0.0233264
0.180787
0.025447
0.177677
0.0277024
0.174273
0.0301216
0.170553
0.0327277
0.166487
0.0355484
0.162035
0.0386228
0.157163
0.041986
0.151816
0.0457118
0.145909
0.0498802
0.139343
0.0545902
0.131995
0.0599795
0.123687
0.0662467
0.114207
0.0736462
0.103262
0.0825374
0.0904754
0.093355
0.0755134
0.106688
0.0581073
0.122749
0.0379999
0.143041
0.0176435
0.158604
0.158891
0.199222
0.00792799
0.198267
0.0101343
0.197146
0.0120046
0.195853
0.0138345
0.19438
0.0156753
0.192722
0.0175529
0.190867
0.019488
0.188804
0.021504
0.186518
0.0236217
0.183995
0.0258566
0.18122
0.0282232
0.17817
0.0307472
0.174828
0.0334518
0.171177
0.0363628
0.167176
0.0395306
0.16278
0.0429982
0.157945
0.0468007
0.152609
0.0510289
0.146683
0.0557904
0.140065
0.0611942
0.13262
0.0674149
0.124155
0.0747045
0.114422
0.0833746
0.103155
0.0938003
0.0899552
0.106552
0.0745467
0.122094
0.0568318
0.140462
0.0368391
0.163032
0.0171096
0.178332
0.176
0.19923
0.00869117
0.198291
0.0110726
0.197196
0.0131063
0.195936
0.015107
0.194505
0.0171239
0.192895
0.0191835
0.191095
0.0213085
0.189093
0.0235253
0.186873
0.0258559
0.184423
0.0283155
0.181727
0.0309223
0.178759
0.0337102
0.1755
0.0367013
0.171924
0.0399233
0.167997
0.0434397
0.163677
0.0472982
0.158903
0.0515537
0.15361
0.0563037
0.14771
0.0616729
0.14109
0.0677999
0.13359
0.0749037
0.125036
0.0832498
0.115173
0.093232
0.10369
0.105278
0.090273
0.119965
0.0746302
0.137733
0.0567756
0.158314
0.0370216
0.182784
0.0176222
0.197731
0.193622
0.199244
0.00944017
0.198326
0.0119889
0.197261
0.0141769
0.196041
0.0163399
0.194658
0.0185252
0.193103
0.0207595
0.191366
0.023067
0.189432
0.0254793
0.187286
0.0280176
0.184917
0.030695
0.182306
0.0335375
0.179433
0.0365813
0.176271
0.0398543
0.172788
0.0433923
0.168955
0.0472552
0.164733
0.0515009
0.160057
0.0562091
0.154857
0.0614847
0.149036
0.0674768
0.142474
0.0743473
0.135028
0.0823372
0.126483
0.0917843
0.116623
0.103085
0.105132
0.116763
0.0917416
0.133351
0.0761725
0.153298
0.0584386
0.176044
0.0390391
0.202181
0.0196582
0.21711
0.21328
0.199262
0.0101701
0.19837
0.0128786
0.19734
0.0152123
0.196163
0.0175288
0.194833
0.019874
0.193339
0.022275
0.191668
0.0247606
0.189806
0.0273625
0.187743
0.030098
0.185464
0.0329862
0.182946
0.0360615
0.180176
0.0393499
0.177131
0.0428924
0.173771
0.0467398
0.170067
0.0509436
0.165978
0.0555712
0.161438
0.0607292
0.156374
0.0665299
0.150705
0.0731281
0.1443
0.0807371
0.137026
0.0895973
0.128674
0.100125
0.119041
0.112709
0.107844
0.127951
0.0948398
0.146347
0.0797715
0.16836
0.0625718
0.193238
0.043815
0.220934
0.0242084
0.236715
0.237488
0.199282
0.0108789
0.198418
0.0137388
0.197426
0.0162094
0.196297
0.0186703
0.195023
0.0211665
0.193593
0.0237272
0.191991
0.0263862
0.190209
0.0291663
0.188242
0.0320841
0.186067
0.0351755
0.183664
0.0384729
0.181017
0.0419981
0.178101
0.0458032
0.174885
0.0499454
0.171339
0.0544757
0.167416
0.0594767
0.163061
0.0650649
0.158202
0.071371
0.152765
0.0785477
0.146654
0.0868322
0.139707
0.0965301
0.131791
0.108028
0.122721
0.121767
0.112256
0.138407
0.100215
0.158379
0.0863426
0.182224
0.0705371
0.209037
0.0532526
0.238214
0.0334386
0.256527
0.270926
0.199303
0.0115647
0.198472
0.014566
0.197522
0.0171639
0.196446
0.0197592
0.195234
0.0223971
0.193872
0.0251111
0.19235
0.0279324
0.190663
0.0308771
0.188797
0.0339708
0.186731
0.0372568
0.184454
0.0407601
0.181944
0.0445125
0.179177
0.0485676
0.176131
0.0529832
0.172774
0.05782
0.169057
0.0631777
0.164939
0.0691662
0.160373
0.0759187
0.155272
0.0836317
0.149571
0.0925184
0.143151
0.102935
0.135935
0.115229
0.127795
0.129893
0.118608
0.147581
0.108335
0.168641
0.0968747
0.193674
0.0842429
0.221661
0.0706984
0.251754
0.0519521
0.275272
0.322878
0.199324
0.0122283
0.198524
0.01536
0.197617
0.0180749
0.196595
0.0207939
0.195444
0.0235668
0.194151
0.0264268
0.192712
0.0293964
0.191119
0.0324949
0.189353
0.0357588
0.187402
0.0392257
0.185256
0.0429185
0.182893
0.046882
0.180293
0.051168
0.17743
0.0558403
0.174274
0.0609657
0.170801
0.0666374
0.166964
0.0729868
0.162737
0.0801299
0.158066
0.0882871
0.15288
0.0976884
0.147156
0.108645
0.14087
0.121499
0.134003
0.136745
0.126671
0.154899
0.119099
0.176199
0.111669
0.201093
0.104915
0.228406
0.0993933
0.25727
0.0899317
0.284732
0.412811
0.00532514
-0.00532634
0.0103356
-0.00501709
0.0155351
-0.00522123
0.0208947
-0.00540108
0.0262299
-0.00538618
0.0313623
-0.00517687
0.03616
-0.00482926
0.0405369
-0.00439962
0.0444329
-0.00391634
0.047811
-0.00339727
0.0506393
-0.00284546
0.0528472
-0.00222535
0.0543759
-0.00154745
0.0551762
-0.000818585
0.0552614
-0.000101459
0.0547932
0.000455946
0.05397
0.000816256
0.0529801
0.000989571
0.0520074
0.000979515
0.051211
0.000810621
0.0507543
0.00047819
0.050789
-6.38297e-06
0.0514238
-0.000600272
0.0528049
-0.00134135
0.0552022
-0.00235319
0.0589612
-0.00371126
0.0644046
-0.00539296
0.0718252
-0.00736804
0.0815752
-0.00969612
-0.0125738
0.00353543
-0.00886308
0.00765819
-0.00914697
0.0121971
-0.00978279
0.016805
-0.010051
0.0212099
-0.00984148
0.0251944
-0.00920467
0.0286316
-0.00829707
0.0314349
-0.00722519
0.0335511
-0.00605258
0.0349461
-0.00481154
0.0355758
-0.00349267
0.0354231
-0.00209024
0.0345497
-0.000692839
0.0331878
0.000524911
0.0316056
0.00146447
0.029921
0.00212821
0.0282231
0.00250717
0.0266394
0.00257289
0.0252984
0.00232731
0.0243267
0.00179642
0.0238351
0.000991294
0.0239251
-6.82015e-05
0.0247593
-0.00140012
0.0265587
-0.00310113
0.0294765
-0.00522689
0.0335935
-0.00778067
0.039001
-0.0107501
0.0458484
-0.0141631
0.0542868
-0.0180806
-0.0229638
0.00245024
-0.0113148
0.00530198
-0.0120065
0.00853471
-0.0130388
0.0116109
-0.013168
0.0142196
-0.0124974
0.0162227
-0.0112476
0.0175792
-0.00968227
0.0182802
-0.00794782
0.0183474
-0.00613974
0.0178094
-0.00429315
0.0167128
-0.00241407
0.0151835
-0.000578957
0.0134505
0.00102106
0.0116332
0.00232365
0.00974253
0.00333873
0.00785637
0.0040019
0.00608863
0.00426781
0.00454904
0.00411184
0.00334161
0.00354122
0.00256687
0.00258501
0.00230865
0.00127059
0.00265329
-0.000384995
0.00374777
-0.00246066
0.00570025
-0.00501439
0.00852596
-0.00800896
0.0122182
-0.0114257
0.0167729
-0.0152549
0.0221655
-0.0195037
0.0283321
-0.0241938
-0.03
0.0016912
-0.0130076
0.00337636
-0.0137
0.00517295
-0.0148583
0.00648711
-0.0145198
0.00716187
-0.0132138
0.00721317
-0.011334
0.00670182
-0.00919715
0.00571592
-0.006983
0.00432152
-0.00476542
0.00258946
-0.00258111
0.000644329
-0.00048768
-0.00133806
0.00138482
-0.0033234
0.0029869
-0.00534147
0.00432282
-0.00733142
0.00531206
-0.00921728
0.00587505
-0.010915
0.00595813
-0.0123388
0.00553465
-0.0134002
0.00460867
-0.0140154
0.00321352
-0.0141133
0.001389
-0.0136114
-0.000859687
-0.0124523
-0.00358657
-0.0106444
-0.00678367
-0.00822711
-0.0103833
-0.00527114
-0.0143351
-0.00187572
-0.0186009
0.0018307
-0.0231586
0.00567362
-0.0279836
-0.0333512
0.000974324
-0.0139837
0.00152214
-0.0142565
0.00177186
-0.0151299
0.0012974
-0.0140786
0.000205976
-0.0121578
-0.00134826
-0.00980975
-0.00321233
-0.0073569
-0.00528679
-0.0049291
-0.00750045
-0.0025719
-0.00976941
-0.000332494
-0.0119826
0.00170602
-0.0141452
0.00352802
-0.0163036
0.00512528
-0.0184154
0.00641538
-0.020429
0.00730867
-0.0222826
0.00771568
-0.0239126
0.0075804
-0.0252514
0.00687203
-0.0262299
0.00559267
-0.0267816
0.00377786
-0.0268502
0.00147726
-0.0263926
-0.00129089
-0.025414
-0.00453271
-0.0239599
-0.00820013
-0.0220977
-0.0122033
-0.0199387
-0.0164482
-0.0176535
-0.0208375
-0.0154722
-0.025289
-0.0136617
-0.0297417
-0.0340661
0.00020714
-0.0141928
-0.000490025
-0.013568
-0.00181473
-0.0138252
-0.00383106
-0.0120905
-0.00626673
-0.00975126
-0.0089084
-0.00719333
-0.0116135
-0.00467335
-0.0143019
-0.00226063
-0.0169104
1.66161e-05
-0.0193697
0.00210631
-0.0217139
0.00403013
-0.0240037
0.00579766
-0.0262231
0.0073242
-0.028345
0.00851759
-0.03033
0.0092765
-0.0321387
0.00951111
-0.0337236
0.00915718
-0.035032
0.00817843
-0.0360087
0.00657421
-0.0365999
0.00438092
-0.0367628
0.00165905
-0.0364877
-0.00154053
-0.035813
-0.00517601
-0.0348045
-0.00917188
-0.0335523
-0.0134143
-0.0321885
-0.0177672
-0.0308944
-0.0220838
-0.0298827
-0.0262506
-0.0294096
-0.0301631
-0.0335397
-0.000606662
-0.0135883
-0.00262704
-0.0115558
-0.00536051
-0.011109
-0.00855686
-0.00891728
-0.0119211
-0.00641048
-0.0152327
-0.00390285
-0.0183965
-0.0015291
-0.0213402
0.000664047
-0.0240368
0.00269368
-0.0265576
0.0046068
-0.0289668
0.00641886
-0.031266
0.00807606
-0.0334563
0.00949353
-0.0355274
0.0105689
-0.0374596
0.0111913
-0.0392287
0.0112667
-0.0408
0.0107199
-0.042132
0.00950792
-0.0431796
0.00762595
-0.0438977
0.00511012
-0.0442533
0.00203254
-0.0442532
-0.00151625
-0.0439509
-0.00544793
-0.0434209
-0.00966617
-0.0427626
-0.0140325
-0.042111
-0.0183748
-0.0416298
-0.0225182
-0.041498
-0.0263332
-0.0419298
-0.0296804
-0.0323149
-0.00144794
-0.0121424
-0.00477089
-0.00824019
-0.0086527
-0.00724142
-0.0126706
-0.00491763
-0.0165711
-0.00252872
-0.0201906
-0.000301189
-0.023455
0.00171766
-0.0263874
0.00357837
-0.0290689
0.00535626
-0.0315688
0.00708665
-0.0339174
0.00874682
-0.0361334
0.010271
-0.0382328
0.0115718
-0.040221
0.0125371
-0.0420959
0.0130487
-0.0438434
0.0130004
-0.0454395
0.0123071
-0.0468511
0.0109165
-0.0480391
0.00881739
-0.0489626
0.00604384
-0.0495903
0.0026771
-0.049927
-0.00115614
-0.050028
-0.00531771
-0.0499765
-0.00968316
-0.0498717
-0.0140982
-0.049839
-0.0183648
-0.0500192
-0.0222921
-0.0505609
-0.0257433
-0.0516241
-0.0285672
-0.030635
-0.00243512
-0.00970931
-0.00683016
-0.00385127
-0.0115012
-0.00258163
-0.0159635
-0.000469505
-0.0200139
0.00150673
-0.023589
0.00325857
-0.0267403
0.00485289
-0.0295632
0.0063842
-0.0321237
0.00789848
-0.0344758
0.00941923
-0.0366652
0.0109157
-0.0387303
0.012315
-0.0406998
0.0135202
-0.0425924
0.0144097
-0.0444169
0.0148557
-0.0461693
0.014739
-0.0478333
0.0139619
-0.0493805
0.0124602
-0.0507735
0.0102131
-0.0519709
0.00725061
-0.0529368
0.003659
-0.0536608
-0.000409874
-0.0541852
-0.00476517
-0.0546002
-0.00923479
-0.0550047
-0.0136559
-0.0555098
-0.017818
-0.0562363
-0.0215208
-0.0573058
-0.0246267
-0.0588302
-0.0269937
-0.0286215
-0.00354546
-0.00616565
-0.00868994
0.00128833
-0.0137056
0.00242545
-0.0181674
0.00398131
-0.0220416
0.00536873
-0.0253984
0.00660202
-0.028324
0.00776372
-0.0308995
0.00894361
-0.0332046
0.0101861
-0.0353061
0.0115017
-0.0372632
0.0128526
-0.0391278
0.0141586
-0.04094
0.0153115
-0.0427296
0.0161797
-0.044515
0.0166237
-0.0463002
0.0165104
-0.0480736
0.0157261
-0.0498086
0.0141913
-0.0514659
0.0118727
-0.053
0.00879322
-0.0543664
0.00504044
-0.0555333
0.000778255
-0.0565135
-0.00375793
-0.0573906
-0.00832556
-0.0582698
-0.01274
-0.0592523
-0.016795
-0.0604429
-0.0202866
-0.0619406
-0.0230829
-0.0638224
-0.0250638
-0.0263432
-0.00460267
-0.00156449
-0.0101024
0.00678431
-0.015005
0.00732154
-0.0191641
0.00813176
-0.0226796
0.00887398
-0.0256487
0.00955918
-0.0281772
0.0102786
-0.0303648
0.011116
-0.0323031
0.0121075
-0.034069
0.0132492
-0.0357317
0.0144955
-0.0373533
0.0157597
-0.0389849
0.0169227
-0.0406663
0.0178417
-0.0424238
0.0183642
-0.0442678
0.0183406
-0.0461899
0.0176388
-0.0481625
0.0161597
-0.0501417
0.0138537
-0.0520735
0.0107329
-0.0539018
0.00688293
-0.0555758
0.00247255
-0.0570664
-0.00224144
-0.0584222
-0.0069388
-0.0597614
-0.0113653
-0.0611855
-0.0153315
-0.0627883
-0.0186413
-0.0646523
-0.0211738
-0.0668316
-0.0228375
-0.0238387
-0.00542879
0.00386311
-0.0109372
0.0122899
-0.0153222
0.0117014
-0.0189154
0.0117179
-0.0218693
0.0118189
-0.0242796
0.0119586
-0.0262643
0.0122506
-0.0279411
0.0127782
-0.029412
0.0135622
-0.0307628
0.0145822
-0.0320709
0.0157845
-0.0334075
0.0170763
-0.0348333
0.0183286
-0.0363964
0.019386
-0.0381305
0.0200816
-0.0400516
0.0202482
-0.0421536
0.0197315
-0.0444071
0.0184091
-0.0467621
0.01621
-0.0491535
0.0131317
-0.0515107
0.00925359
-0.0537663
0.00474748
-0.0558533
-0.000129638
-0.0577506
-0.00501153
-0.0595648
-0.00951671
-0.0614226
-0.0134355
-0.0634148
-0.0166078
-0.0656162
-0.0189284
-0.0680663
-0.0203414
-0.0211224
-0.00594308
0.00980533
-0.0108773
0.0172219
-0.0144333
0.0152531
-0.0173309
0.0146092
-0.0195977
0.0140775
-0.0212975
0.0136482
-0.02259
0.0135309
-0.0236319
0.0138062
-0.0245364
0.0144509
-0.0253911
0.0154198
-0.0262803
0.0166551
-0.0272835
0.0180602
-0.0284696
0.0194956
-0.0298941
0.0207924
-0.0315975
0.0217689
-0.0336026
0.0222402
-0.0359075
0.0220274
-0.0384813
0.0209787
-0.0412661
0.0189959
-0.0441832
0.0160556
-0.0471415
0.0122247
-0.0500515
0.007676
-0.0528344
0.0026771
-0.0553978
-0.00241934
-0.0577561
-0.00712511
-0.0600735
-0.0110812
-0.0624661
-0.014175
-0.0650081
-0.0163435
-0.0677329
-0.0175716
-0.018185
-0.0063915
0.0161962
-0.00958372
0.0204121
-0.0122677
0.0179332
-0.0145527
0.0168883
-0.016013
0.01553
-0.0167858
0.0144112
-0.0171954
0.0139288
-0.0174711
0.0140684
-0.0177094
0.014674
-0.0179818
0.0156756
-0.0183785
0.017034
-0.0189881
0.0186513
-0.0198861
0.0203752
-0.0211347
0.0220236
-0.02278
0.0233989
-0.0248554
0.0243031
-0.0273684
0.0245318
-0.0302882
0.0238943
-0.0335486
0.0222573
-0.0370559
0.0195695
-0.0406954
0.0158764
-0.0443501
0.0113484
-0.0479182
0.0062681
-0.0513025
0.000992845
-0.0543882
-0.00400728
-0.0572542
-0.0081792
-0.060097
-0.0112931
-0.0630174
-0.0133813
-0.0660553
-0.0144898
-0.014995
-0.00522364
0.0214192
-0.00598359
0.0211699
-0.00924615
0.0211918
-0.0111712
0.0188076
-0.0114908
0.0158419
-0.0109077
0.0138187
-0.0101675
0.0131772
-0.00955357
0.0134413
-0.00903092
0.0141365
-0.00862175
0.0152503
-0.00843606
0.0168312
-0.00857415
0.0187717
-0.00911343
0.0208971
-0.0101209
0.0230147
-0.0116477
0.0249112
-0.0137447
0.0263884
-0.0164374
0.0272164
-0.0196999
0.0271531
-0.0234606
0.0260192
-0.0276154
0.0237307
-0.0320285
0.0203013
-0.0365464
0.0158834
-0.041015
0.0107589
-0.0453454
0.00535014
-0.049405
8.34461e-05
-0.053061
-0.00448822
-0.0564738
-0.00784225
-0.0598607
-0.00995361
-0.0632943
-0.0110133
-0.0114963
0.206994
0.01288
0.206209
0.0161368
0.205324
0.0189626
0.20433
0.0218
0.203212
0.0247044
0.201961
0.0277021
0.200572
0.0308116
0.199036
0.0340578
0.197337
0.0374822
0.195463
0.0411196
0.193408
0.0449895
0.191148
0.0491506
0.188665
0.0536547
0.185946
0.0585566
0.182963
0.0639411
0.179703
0.069885
0.176146
0.0765302
0.172254
0.0840076
0.168023
0.0925029
0.163441
0.102255
0.158549
0.11352
0.153427
0.126603
0.148232
0.141921
0.143379
0.159734
0.13952
0.180042
0.137835
0.202764
0.14004
0.226191
0.148885
0.24842
0.168205
0.265411
0.271852
0.309164
0.212034
0.0135135
0.211274
0.016888
0.210421
0.0198154
0.209471
0.0227612
0.20841
0.025785
0.207225
0.0289112
0.205909
0.0321553
0.204457
0.0355381
0.202855
0.0391102
0.201095
0.0429026
0.199168
0.046935
0.197058
0.0512726
0.19475
0.0559693
0.192239
0.0610679
0.189513
0.0666626
0.18655
0.0728386
0.183361
0.0797081
0.17994
0.0874158
0.176314
0.096115
0.172549
0.106007
0.168757
0.117295
0.165148
0.130193
0.162084
0.144964
0.160249
0.161549
0.160705
0.179567
0.165218
0.198235
0.17611
0.215287
0.196842
0.227683
0.229253
0.232999
0.239226
0.26188
0.217205
0.0141204
0.216475
0.0176079
0.215663
0.0206259
0.214767
0.0236652
0.213774
0.0267959
0.212666
0.0300449
0.211437
0.0334125
0.210086
0.0369187
0.208602
0.0406221
0.206982
0.0445485
0.20521
0.0487276
0.203284
0.0532136
0.201198
0.0580657
0.198938
0.0633314
0.196514
0.0690849
0.193926
0.0754209
0.191197
0.0824289
0.188368
0.0902338
0.185508
0.0989635
0.182739
0.108763
0.180261
0.119758
0.178396
0.132037
0.177667
0.145669
0.178912
0.160281
0.183287
0.175171
0.192226
0.189279
0.206657
0.200845
0.22618
0.208154
0.248231
0.210946
0.210799
0.27666
0.222501
0.0146987
0.221811
0.0182873
0.221052
0.0213831
0.22022
0.0245037
0.219298
0.0277326
0.218275
0.0310915
0.217153
0.0345646
0.21592
0.0381819
0.214574
0.0419978
0.213114
0.0460366
0.211529
0.0503365
0.209816
0.0549451
0.207978
0.0599167
0.206017
0.0652998
0.20395
0.071154
0.201807
0.0775613
0.199631
0.0845993
0.197494
0.0923625
0.195509
0.100939
0.193852
0.110409
0.19279
0.120807
0.192711
0.132095
0.194216
0.144137
0.198087
0.156385
0.205122
0.168113
0.215918
0.178465
0.230352
0.186399
0.24763
0.190869
0.267357
0.191216
0.186576
0.291579
0.227929
0.0152451
0.227291
0.0189139
0.226594
0.0220769
0.225831
0.0252722
0.224989
0.028588
0.224068
0.0320334
0.223064
0.0355964
0.221965
0.0393132
0.220775
0.0432195
0.219496
0.0473447
0.218122
0.0517366
0.216651
0.0564379
0.215098
0.0614859
0.213484
0.0669247
0.211835
0.072808
0.2102
0.079198
0.208644
0.0861524
0.20727
0.0937319
0.206224
0.101978
0.205721
0.110902
0.206063
0.120454
0.207652
0.130488
0.211025
0.14074
0.216688
0.150696
0.224993
0.159785
0.236071
0.167368
0.249682
0.172775
0.265305
0.175239
0.282285
0.174232
0.168765
0.300095
0.233497
0.0157495
0.232919
0.019479
0.232291
0.0227014
0.2316
0.025967
0.23085
0.0293506
0.230046
0.0328567
0.229173
0.0364951
0.228224
0.0402934
0.227213
0.0442624
0.226135
0.0484534
0.22499
0.0529106
0.223794
0.0576575
0.22257
0.062729
0.221345
0.068164
0.22016
0.0740021
0.219079
0.0802835
0.218188
0.0870437
0.21761
0.0943077
0.217515
0.102068
0.218138
0.110273
0.219768
0.118813
0.22274
0.127499
0.227404
0.136054
0.234016
0.144062
0.24271
0.151069
0.253449
0.15661
0.265993
0.160217
0.279816
0.161408
0.294081
0.159961
0.154597
0.308247
0.239206
0.0162046
0.238694
0.0199769
0.238142
0.0232487
0.237537
0.0265748
0.236891
0.0300087
0.23621
0.0335557
0.23548
0.0372489
0.234702
0.0411004
0.233886
0.0451099
0.233025
0.0493456
0.232141
0.0538252
0.231255
0.0585698
0.23039
0.0636149
0.229586
0.0689852
0.228895
0.0747048
0.228397
0.0807888
0.22819
0.0872547
0.228412
0.0940852
0.229241
0.101237
0.230884
0.108624
0.233565
0.116121
0.237513
0.123536
0.242938
0.130611
0.249971
0.137008
0.258624
0.142397
0.268783
0.146434
0.280226
0.14876
0.292466
0.149157
0.304834
0.147587
0.142578
0.316849
0.245058
0.0166042
0.244618
0.0204011
0.244148
0.023712
0.24364
0.0270853
0.243111
0.0305478
0.242564
0.0341197
0.241991
0.0378457
0.241402
0.0417172
0.240793
0.0457489
0.240177
0.0499931
0.239581
0.0544519
0.239023
0.0591556
0.23854
0.0641208
0.238178
0.0693659
0.238006
0.0748917
0.238108
0.080697
0.238586
0.0867825
0.239576
0.093098
0.241225
0.0995865
0.243693
0.106152
0.247143
0.112663
0.251731
0.118934
0.257584
0.124741
0.264734
0.129841
0.273133
0.133982
0.282683
0.136868
0.293141
0.138289
0.304078
0.13821
0.315018
0.136639
0.13211
0.325482
0.251057
0.0169405
0.250693
0.0207481
0.250309
0.0240884
0.249912
0.0274827
0.249516
0.030952
0.249113
0.0345391
0.248714
0.0382669
0.248326
0.0421318
0.247942
0.0461617
0.247592
0.0503738
0.247295
0.0547794
0.247085
0.059395
0.247007
0.064224
0.247112
0.0692812
0.247471
0.0745487
0.248161
0.0800196
0.24928
0.0856716
0.250938
0.0914446
0.253254
0.0972719
0.256353
0.103051
0.260359
0.108652
0.265367
0.113914
0.271423
0.118671
0.278514
0.122735
0.286611
0.12587
0.295585
0.127881
0.305157
0.128705
0.315005
0.128352
0.3248
0.126837
0.122799
0.334105
0.257203
0.0172104
0.256918
0.0210151
0.256635
0.024361
0.256364
0.027752
0.256104
0.0312193
0.255863
0.0347949
0.255655
0.0384946
0.255473
0.0423386
0.255333
0.0463303
0.255264
0.0504719
0.255291
0.0547823
0.255455
0.0592608
0.255794
0.0639112
0.256364
0.0687332
0.257226
0.0737048
0.25845
0.0788093
0.260124
0.084007
0.26234
0.0892356
0.265196
0.0944192
0.268787
0.0994593
0.273193
0.104242
0.278451
0.108648
0.284566
0.112544
0.291548
0.115742
0.299332
0.118073
0.307736
0.119466
0.316531
0.119899
0.325489
0.119385
0.334366
0.117952
0.114366
0.342793
0.263502
0.0174082
0.263305
0.0211913
0.263135
0.0245185
0.262993
0.0278909
0.262883
0.0313341
0.262822
0.0348678
0.262812
0.0385231
0.262856
0.0423169
0.262982
0.0462313
0.263211
0.0502707
0.263575
0.0544469
0.264108
0.0587566
0.264848
0.0631974
0.265849
0.0677561
0.267165
0.0724082
0.268865
0.0771248
0.271022
0.081861
0.27371
0.086555
0.277004
0.0911298
0.280972
0.0954929
0.285649
0.0995636
0.291039
0.103253
0.297165
0.10641
0.304008
0.10889
0.311447
0.110625
0.319322
0.111581
0.327466
0.111746
0.335699
0.111143
0.343841
0.109803
0.10662
0.351581
0.269961
0.0175239
0.269861
0.0212679
0.269809
0.0245556
0.26981
0.0278839
0.269871
0.0312757
0.269996
0.0347522
0.270194
0.038341
0.270483
0.042048
0.27088
0.0458583
0.271407
0.0497703
0.272094
0.0537866
0.272975
0.0579023
0.274092
0.0621063
0.275492
0.0663794
0.277226
0.0706939
0.279353
0.0750151
0.28193
0.0792969
0.285013
0.0834802
0.288656
0.0874938
0.292897
0.0912546
0.297754
0.0947076
0.303233
0.0977724
0.309333
0.100304
0.315989
0.102228
0.323085
0.103522
0.330501
0.104158
0.338101
0.104139
0.345744
0.103493
0.353291
0.10225
0.0994235
0.360483
0.276581
0.0175502
0.27659
0.0212331
0.276671
0.0244574
0.276828
0.0277185
0.277062
0.031041
0.277379
0.0344416
0.277794
0.0379394
0.278323
0.0415361
0.278985
0.045218
0.279801
0.0489774
0.280802
0.0528108
0.282019
0.0567094
0.283492
0.0606571
0.285263
0.0646304
0.287377
0.0685998
0.289881
0.0725283
0.292819
0.0763726
0.296232
0.0800768
0.30015
0.0835836
0.304584
0.0868251
0.309563
0.0897315
0.315094
0.092242
0.321124
0.0942726
0.327576
0.0957727
0.334364
0.096729
0.341387
0.0971305
0.348534
0.0969869
0.355694
0.0963278
0.362759
0.0951815
0.0926686
0.36951
0.283369
0.0174779
0.283498
0.0210749
0.283718
0.0242174
0.284031
0.0273938
0.28444
0.0306276
0.284954
0.0339312
0.285586
0.0373168
0.286355
0.040782
0.287278
0.0443129
0.288378
0.0478977
0.289682
0.0515286
0.29122
0.0551934
0.293027
0.0588719
0.295139
0.0625384
0.297593
0.0661644
0.300426
0.0697112
0.30367
0.0731427
0.307344
0.076413
0.311476
0.0794602
0.316075
0.0822316
0.321143
0.0846674
0.32667
0.0867179
0.3326
0.0883437
0.338859
0.0895119
0.345376
0.0902103
0.352065
0.0904388
0.358836
0.0902124
0.365601
0.0895597
0.372272
0.0885061
0.0862706
0.378668
0.290326
0.0172986
0.290581
0.0207884
0.290942
0.0238322
0.291415
0.0269063
0.292003
0.0300319
0.292717
0.033218
0.293568
0.0364716
0.294573
0.039787
0.295753
0.0431478
0.297128
0.0465397
0.298722
0.0499528
0.300563
0.0533722
0.302679
0.0567744
0.305104
0.0601318
0.307859
0.0634254
0.310966
0.0666188
0.314458
0.0696637
0.318355
0.0725263
0.322667
0.0751556
0.327398
0.0775072
0.332525
0.0795458
0.338018
0.0812287
0.343835
0.082529
0.349917
0.0834315
0.356196
0.0839305
0.362602
0.0840317
0.369061
0.0837518
0.3755
0.0831177
0.381852
0.0821516
0.0801617
0.38796
0.297456
0.0170059
0.297839
0.0203694
0.298346
0.0232982
0.298981
0.0262529
0.299751
0.0292515
0.300664
0.0323006
0.301733
0.0354045
0.302973
0.0385539
0.304402
0.0417293
0.306041
0.0449137
0.307911
0.0480985
0.310032
0.0512665
0.312434
0.054388
0.315136
0.0574458
0.31815
0.0604252
0.321501
0.0632805
0.325214
0.0659615
0.329304
0.0684456
0.333762
0.0707041
0.338575
0.072701
0.343722
0.0744038
0.349174
0.0757818
0.354887
0.0768197
0.360809
0.0775111
0.366884
0.0778561
0.373052
0.0778638
0.379251
0.0775515
0.385424
0.0769433
0.391515
0.0760589
0.0742871
0.397389
0.304759
0.0165956
0.305276
0.0198136
0.305932
0.0226118
0.306731
0.0254312
0.307682
0.0282858
0.308795
0.0311803
0.310079
0.0341179
0.311548
0.0370869
0.313219
0.0400648
0.315112
0.0430303
0.317241
0.0459799
0.31962
0.0488992
0.322275
0.0517459
0.325221
0.0545112
0.328474
0.0571834
0.332054
0.059711
0.335964
0.0620606
0.340201
0.0642152
0.344762
0.0661488
0.349631
0.0678374
0.354785
0.0692557
0.36019
0.0703812
0.365807
0.0712061
0.371591
0.0717295
0.377492
0.0719558
0.383461
0.0718957
0.389446
0.0715659
0.3954
0.0709883
0.401277
0.0701798
0.0686022
0.406962
0.31224
0.0160643
0.312893
0.0191176
0.313701
0.0217698
0.314667
0.0244388
0.315798
0.0271356
0.317105
0.0298618
0.318599
0.0326169
0.320296
0.0353875
0.322204
0.038159
0.324329
0.0409098
0.326695
0.0436206
0.32932
0.046282
0.332211
0.0488631
0.335384
0.0513459
0.338856
0.0537194
0.342627
0.055947
0.346694
0.0579999
0.351054
0.0598605
0.355696
0.0615099
0.360605
0.0629324
0.365756
0.0641099
0.371115
0.0650254
0.376648
0.0656764
0.382313
0.0660662
0.388068
0.0662012
0.393871
0.0660927
0.39968
0.0657566
0.405454
0.0652122
0.411158
0.0644743
0.0630706
0.41669
0.319901
0.0154101
0.320692
0.0182794
0.321656
0.0207675
0.322795
0.0232696
0.324108
0.0258
0.325598
0.0283545
0.32729
0.0309139
0.329202
0.0334694
0.331335
0.0360226
0.33369
0.0385544
0.336284
0.0410288
0.339137
0.0434318
0.342252
0.0457522
0.345632
0.0479699
0.349289
0.050067
0.353221
0.0520182
0.357422
0.0538014
0.361884
0.0554005
0.366594
0.0568014
0.371533
0.0579949
0.376678
0.0589682
0.381997
0.0597089
0.387457
0.0602179
0.393022
0.0605012
0.398657
0.0605663
0.404324
0.0604245
0.409989
0.0600903
0.415618
0.0595809
0.421181
0.0589088
0.0576617
0.426589
0.327746
0.0146302
0.328678
0.0172974
0.329798
0.0196051
0.331106
0.0219269
0.332598
0.0242808
0.334279
0.0266527
0.336167
0.0290096
0.338278
0.031347
0.340619
0.0336731
0.343198
0.0359706
0.346015
0.0382093
0.349076
0.0403693
0.352388
0.0424391
0.355955
0.0444032
0.359777
0.046244
0.363853
0.0479424
0.368172
0.0494815
0.372723
0.0508481
0.37749
0.0520318
0.382456
0.0530282
0.387596
0.0538285
0.392882
0.0544234
0.398283
0.0548164
0.403768
0.055015
0.409304
0.0550273
0.414862
0.054864
0.420411
0.0545382
0.425924
0.0540648
0.431374
0.0534547
0.0523493
0.436684