/*--------------------------------*- C++ -*----------------------------------*\
| =========                 |                                                 |
| \\      /  F ield         | OpenFOAM: The Open Source CFD Toolbox           |
|  \\    /   O peration     | Version:  dev                                   |
|   \\  /    A nd           | Web:      www.OpenFOAM.org                      |
|    \\/     M anipulation  |                                                 |
\*---------------------------------------------------------------------------*/
FoamFile
{
    version     2.0;
    format      ascii;
    class       pointVectorField;
    location    "1.23";
    object      pointDisplacement;
}
// * * * * * * * * * * * * * * * * * * * * * * * * * * * * * * * * * * * * * //

dimensions      [0 1 0 0 0 0 0];

internalField   nonuniform List<vector> 
5828
(
(0 0 0)
(0.0248727 0 0)
(0.0468963 0 0)
(0.0654386 0 0)
(0.0808613 0 0)
(0.0935015 0 0)
(0.103654 0 0)
(0.111587 0 0)
(0.117535 0 0)
(0.121694 0 0)
(0.124232 0 0)
(0.1253 0 0)
(0.125028 0 0)
(0.123531 0 0)
(0.120912 0 0)
(0.117263 0 0)
(0.112669 0 0)
(0.107206 0 0)
(0.100953 0 0)
(0.0939851 0 0)
(0.0863808 0 0)
(0.0782205 0 0)
(0.0695918 0 0)
(0.0605926 0 0)
(0.051338 0 0)
(0.0419706 0 0)
(0.0326839 0 0)
(0.0237859 0 0)
(0.0158308 0 0)
(0.0101155 0 0)
(1.17948e-09 0 0)
(0 0 0)
(0.0248898 0 -0.000247435)
(0.0469291 0 -0.000469243)
(0.0654876 0 -0.000662367)
(0.0809282 0 -0.000832015)
(0.0935873 0 -0.000982271)
(0.103758 0 -0.0011156)
(0.111713 0 -0.00123369)
(0.117685 0 -0.0013378)
(0.12187 0 -0.00142829)
(0.124439 0 -0.00150516)
(0.125541 0 -0.00156858)
(0.125308 0 -0.00161626)
(0.123854 0 -0.00164538)
(0.121285 0 -0.00165442)
(0.117693 0 -0.00164052)
(0.113164 0 -0.00159997)
(0.107776 0 -0.00152792)
(0.101607 0 -0.00142029)
(0.094739 0 -0.00127186)
(0.0872509 0 -0.00107462)
(0.0792277 0 -0.000819706)
(0.0707638 0 -0.00049685)
(0.0619669 0 -9.36625e-05)
(0.0529665 0 0.000404932)
(0.043928 0 0.00101712)
(0.0350713 0 0.00176559)
(0.0267278 0 0.0026785)
(0.0195043 0 0.00377837)
(0.0148977 0 0.0049757)
(0.00736422 0 0.00709169)
(0 0 0)
(0.0249402 0 -0.000495555)
(0.0470284 0 -0.000939917)
(0.0656355 0 -0.001327)
(0.0811261 0 -0.00166713)
(0.0938385 0 -0.00196737)
(0.104068 0 -0.00223379)
(0.112088 0 -0.00247091)
(0.118132 0 -0.00268032)
(0.122398 0 -0.00286268)
(0.125057 0 -0.00301789)
(0.126261 0 -0.00314533)
(0.126142 0 -0.00324176)
(0.124818 0 -0.00330305)
(0.122397 0 -0.00332535)
(0.118975 0 -0.00330303)
(0.114642 0 -0.00322917)
(0.109478 0 -0.00309522)
(0.103566 0 -0.0028922)
(0.0969929 0 -0.0026093)
(0.0898501 0 -0.00223232)
(0.0822328 0 -0.00174501)
(0.0742532 0 -0.00112887)
(0.0660442 0 -0.000361995)
(0.0577707 0 0.000581756)
(0.0496576 0 0.00173153)
(0.0420208 0 0.003117)
(0.035302 0 0.00475892)
(0.030181 0 0.0066436)
(0.0284375 0 0.0084902)
(0.0237135 0 0.0114213)
(0 0 0)
(0.0250236 0 -0.000743513)
(0.0471924 0 -0.00141042)
(0.0658794 0 -0.00199169)
(0.0814512 0 -0.00250288)
(0.0942513 0 -0.00295497)
(0.104581 0 -0.0033569)
(0.11271 0 -0.00371512)
(0.118874 0 -0.00403221)
(0.123274 0 -0.00430925)
(0.126083 0 -0.00454605)
(0.127454 0 -0.00474018)
(0.127524 0 -0.00488912)
(0.126417 0 -0.00498911)
(0.124241 0 -0.00503313)
(0.121099 0 -0.00501305)
(0.117086 0 -0.0049193)
(0.112292 0 -0.00474157)
(0.106806 0 -0.00446579)
(0.100723 0 -0.0040753)
(0.0941498 0 -0.00355256)
(0.0871985 0 -0.00287637)
(0.080011 0 -0.00202438)
(0.0727601 0 -0.000971283)
(0.0656552 0 0.000312425)
(0.0589872 0 0.00185463)
(0.0531891 0 0.00366854)
(0.0489224 0 0.0057209)
(0.0470228 0 0.00789988)
(0.049233 0 0.00968393)
(0.0476889 0 0.0126644)
(0 0 0)
(0.0251389 0 -0.000990548)
(0.0474194 0 -0.00187935)
(0.0662173 0 -0.00265452)
(0.0819039 0 -0.00333706)
(0.0948276 0 -0.00394268)
(0.105293 0 -0.00448243)
(0.113572 0 -0.00496388)
(0.119902 0 -0.00539141)
(0.124486 0 -0.00576662)
(0.127503 0 -0.00608972)
(0.129108 0 -0.00635811)
(0.129442 0 -0.00656884)
(0.128634 0 -0.00671747)
(0.126799 0 -0.00679545)
(0.124043 0 -0.00679282)
(0.120467 0 -0.00669741)
(0.116175 0 -0.00649789)
(0.111271 0 -0.00617858)
(0.105864 0 -0.00571968)
(0.100077 0 -0.00510184)
(0.0940444 0 -0.00430183)
(0.0879385 0 -0.00329679)
(0.0819817 0 -0.00206519)
(0.0764493 0 -0.000586964)
(0.0717129 0 0.00114604)
(0.0682863 0 0.00311306)
(0.0669905 0 0.0052059)
(0.0689825 0 0.00714861)
(0.0758526 0 0.00819783)
(0.0775961 0 0.01065)
(0 0 0)
(0.0252847 0 -0.00123646)
(0.0477067 0 -0.00234639)
(0.0666459 0 -0.0033152)
(0.0824796 0 -0.00416939)
(0.0955612 0 -0.00492938)
(0.106198 0 -0.00560834)
(0.114665 0 -0.00621526)
(0.121204 0 -0.00675647)
(0.126021 0 -0.00723394)
(0.1293 0 -0.00764916)
(0.131203 0 -0.00800082)
(0.131872 0 -0.00828436)
(0.131442 0 -0.00849424)
(0.130036 0 -0.00862194)
(0.12777 0 -0.00865683)
(0.124751 0 -0.00858577)
(0.121093 0 -0.00839548)
(0.116916 0 -0.00807017)
(0.112353 0 -0.00759154)
(0.107549 0 -0.00694099)
(0.102665 0 -0.00609709)
(0.0979073 0 -0.00504164)
(0.0935459 0 -0.00376307)
(0.0899227 0 -0.00226007)
(0.0875029 0 -0.000559561)
(0.0869192 0 0.00125719)
(0.0890199 0 0.00300596)
(0.0952112 0 0.00423238)
(0.107086 0 0.00399648)
(0.112154 0 0.00555453)
(0 0 0)
(0.02546 0 -0.00148159)
(0.0480526 0 -0.00281229)
(0.0671622 0 -0.00397492)
(0.0831747 0 -0.00500147)
(0.0964464 0 -0.00591621)
(0.107286 0 -0.00673528)
(0.115978 0 -0.00747038)
(0.122768 0 -0.0081295)
(0.127867 0 -0.00871608)
(0.131465 0 -0.00923214)
(0.133724 0 -0.00967626)
(0.134794 0 -0.0100439)
(0.134816 0 -0.0103297)
(0.133923 0 -0.0105257)
(0.132239 0 -0.0106216)
(0.129889 0 -0.0106055)
(0.126992 0 -0.0104626)
(0.123681 0 -0.0101762)
(0.120114 0 -0.00973352)
(0.116469 0 -0.00912142)
(0.112937 0 -0.00832375)
(0.10976 0 -0.00733202)
(0.107257 0 -0.00615182)
(0.105843 0 -0.00481115)
(0.106049 0 -0.00337701)
(0.108625 0 -0.00200411)
(0.114523 0 -0.000977736)
(0.125154 0 -0.000881691)
(0.142086 0 -0.00281083)
(0.150414 0 -0.00239509)
(0 0 0)
(0.0256641 0 -0.0017262)
(0.0484551 0 -0.00327761)
(0.0677629 0 -0.00463458)
(0.083981 0 -0.00583442)
(0.0974712 0 -0.0069045)
(0.108549 0 -0.00786531)
(0.117504 0 -0.00873226)
(0.124586 0 -0.00951443)
(0.130015 0 -0.0102182)
(0.133981 0 -0.0108448)
(0.136651 0 -0.0113917)
(0.138183 0 -0.0118561)
(0.138725 0 -0.012234)
(0.138422 0 -0.0125187)
(0.137406 0 -0.0127006)
(0.135814 0 -0.012769)
(0.133786 0 -0.012712)
(0.131472 0 -0.0125169)
(0.129047 0 -0.0121743)
(0.126718 0 -0.0116781)
(0.124715 0 -0.0110241)
(0.123319 0 -0.0102182)
(0.122897 0 -0.00928786)
(0.12393 0 -0.00829611)
(0.127039 0 -0.00736456)
(0.133021 0 -0.00671145)
(0.143006 0 -0.00674326)
(0.15826 0 -0.00813153)
(0.180185 0 -0.0120573)
(0.191636 0 -0.0129877)
(0 0 0)
(0.0258944 0 -0.00196927)
(0.0489095 0 -0.00374044)
(0.0684408 0 -0.00529155)
(0.0848892 0 -0.00666524)
(0.0986259 0 -0.00789316)
(0.109976 0 -0.00899965)
(0.119231 0 -0.0100027)
(0.126644 0 -0.010913)
(0.132441 0 -0.0117391)
(0.136818 0 -0.0124834)
(0.139948 0 -0.0131437)
(0.141994 0 -0.0137181)
(0.143118 0 -0.0142052)
(0.143473 0 -0.0146008)
(0.143203 0 -0.0148964)
(0.142456 0 -0.0150838)
(0.141393 0 -0.0151558)
(0.14019 0 -0.0151073)
(0.139032 0 -0.0149315)
(0.138151 0 -0.0146313)
(0.137826 0 -0.0142205)
(0.138377 0 -0.0137235)
(0.140225 0 -0.0131961)
(0.1439 0 -0.0127369)
(0.150103 0 -0.012524)
(0.159714 0 -0.0128489)
(0.173914 0 -0.014213)
(0.193871 0 -0.0173668)
(0.220782 0 -0.0235291)
(0.235209 0 -0.0259109)
(0 0 0)
(0.0261479 0 -0.00220978)
(0.0494101 0 -0.00419888)
(0.0691883 0 -0.00594326)
(0.0858927 0 -0.00749109)
(0.0999039 0 -0.00887903)
(0.111554 0 -0.0101345)
(0.121138 0 -0.0112773)
(0.128914 0 -0.0123203)
(0.135114 0 -0.013274)
(0.139941 0 -0.0141435)
(0.143574 0 -0.0149287)
(0.146187 0 -0.0156294)
(0.14795 0 -0.0162457)
(0.149025 0 -0.0167755)
(0.149567 0 -0.0172134)
(0.149746 0 -0.0175571)
(0.14973 0 -0.0178021)
(0.149718 0 -0.0179505)
(0.149925 0 -0.0180068)
(0.150607 0 -0.0179849)
(0.15208 0 -0.0179159)
(0.154704 0 -0.0178467)
(0.158949 0 -0.0178634)
(0.165428 0 -0.0181133)
(0.174874 0 -0.0188192)
(0.188271 0 -0.0203542)
(0.206755 0 -0.0232801)
(0.231474 0 -0.0284231)
(0.26338 0 -0.0369994)
(0.280732 0 -0.0408528)
(0 0 0)
(0.0264219 0 -0.0024473)
(0.0499521 0 -0.00465219)
(0.069999 0 -0.00658875)
(0.0869824 0 -0.00831077)
(0.101292 0 -0.00985962)
(0.113268 0 -0.011266)
(0.123207 0 -0.0125522)
(0.131377 0 -0.0137341)
(0.138016 0 -0.0148241)
(0.143329 0 -0.0158286)
(0.147506 0 -0.0167507)
(0.150733 0 -0.017594)
(0.153185 0 -0.0183594)
(0.155028 0 -0.0190456)
(0.156434 0 -0.0196526)
(0.15759 0 -0.0201847)
(0.158685 0 -0.0206446)
(0.159932 0 -0.0210414)
(0.16158 0 -0.021393)
(0.163909 0 -0.0217272)
(0.167263 0 -0.0220928)
(0.17205 0 -0.0225632)
(0.178793 0 -0.0232592)
(0.188163 0 -0.0243714)
(0.200962 0 -0.0261793)
(0.218225 0 -0.0291198)
(0.241051 0 -0.0338066)
(0.270658 0 -0.0411465)
(0.307533 0 -0.0522704)
(0.328009 0 -0.0576263)
(0 0 0)
(0.0267149 0 -0.00268196)
(0.0505325 0 -0.00510062)
(0.0708682 0 -0.00722845)
(0.0881519 0 -0.00912481)
(0.102782 0 -0.0108357)
(0.115105 0 -0.0123952)
(0.125426 0 -0.0138287)
(0.13402 0 -0.0151564)
(0.141128 0 -0.0163909)
(0.146958 0 -0.0175393)
(0.151711 0 -0.0186091)
(0.155581 0 -0.0196067)
(0.158752 0 -0.020536)
(0.161404 0 -0.0214005)
(0.163719 0 -0.0222047)
(0.165897 0 -0.0229582)
(0.16815 0 -0.0236731)
(0.17071 0 -0.024368)
(0.173844 0 -0.0250724)
(0.177864 0 -0.0258314)
(0.183148 0 -0.0267149)
(0.190147 0 -0.0278249)
(0.199447 0 -0.0293212)
(0.211741 0 -0.0314294)
(0.227923 0 -0.0344934)
(0.249043 0 -0.0389978)
(0.276293 0 -0.045637)
(0.310953 0 -0.0553844)
(0.352725 0 -0.0691749)
(0.37686 0 -0.0761944)
(0 0 0)
(0.0270254 0 -0.0029138)
(0.0511475 0 -0.00554421)
(0.0717904 0 -0.0078624)
(0.0893936 0 -0.00993325)
(0.104364 0 -0.0118072)
(0.117056 0 -0.013522)
(0.12778 0 -0.0151062)
(0.136819 0 -0.0165829)
(0.144415 0 -0.0179668)
(0.150783 0 -0.0192664)
(0.156136 0 -0.0204939)
(0.160676 0 -0.0216587)
(0.164595 0 -0.0227688)
(0.168085 0 -0.0238321)
(0.171344 0 -0.0248602)
(0.174578 0 -0.0258663)
(0.178013 0 -0.0268711)
(0.181908 0 -0.0279062)
(0.186546 0 -0.0290129)
(0.192267 0 -0.0302546)
(0.199483 0 -0.0317245)
(0.208691 0 -0.0335554)
(0.220509 0 -0.03594)
(0.23569 0 -0.0391515)
(0.255179 0 -0.0435854)
(0.280115 0 -0.0497986)
(0.311929 0 -0.0586108)
(0.351792 0 -0.0710018)
(0.398256 0 -0.0875554)
(0.426878 0 -0.096489)
(0 0 0)
(0.027349 0 -0.00314151)
(0.0517895 0 -0.00598053)
(0.0727545 0 -0.00848717)
(0.0906933 0 -0.0107318)
(0.10602 0 -0.0127691)
(0.119095 0 -0.0146405)
(0.130239 0 -0.0163772)
(0.139737 0 -0.0180055)
(0.147838 0 -0.0195433)
(0.154766 0 -0.021003)
(0.160743 0 -0.0223995)
(0.165979 0 -0.0237465)
(0.17067 0 -0.0250536)
(0.17501 0 -0.026332)
(0.17922 0 -0.0276024)
(0.18352 0 -0.0288861)
(0.188152 0 -0.0302134)
(0.19338 0 -0.031623)
(0.199504 0 -0.03317)
(0.206896 0 -0.0349381)
(0.215997 0 -0.0370445)
(0.227336 0 -0.0396498)
(0.241564 0 -0.0429816)
(0.259484 0 -0.0473605)
(0.2821 0 -0.0532387)
(0.310739 0 -0.061284)
(0.347002 0 -0.0724262)
(0.391801 0 -0.0875963)
(0.442332 0 -0.106877)
(0.477488 0 -0.118196)
(0 0 0)
(0.0276817 0 -0.00336385)
(0.0524505 0 -0.00640715)
(0.0737501 0 -0.0090994)
(0.0920371 0 -0.0115162)
(0.107732 0 -0.0137163)
(0.121203 0 -0.0157449)
(0.13278 0 -0.017637)
(0.142755 0 -0.0194218)
(0.151378 0 -0.0211196)
(0.158885 0 -0.0227475)
(0.1655 0 -0.0243224)
(0.171436 0 -0.0258589)
(0.176898 0 -0.0273726)
(0.182096 0 -0.0288813)
(0.187258 0 -0.0304114)
(0.192619 0 -0.0319929)
(0.19843 0 -0.0336643)
(0.204961 0 -0.0354732)
(0.212534 0 -0.0374902)
(0.221539 0 -0.0398161)
(0.232428 0 -0.042587)
(0.24576 0 -0.0459931)
(0.262206 0 -0.0502936)
(0.28259 0 -0.0558481)
(0.307993 0 -0.0631794)
(0.33983 0 -0.073042)
(0.379622 0 -0.0864101)
(0.427896 0 -0.104125)
(0.481057 0 -0.125863)
(0.528204 0 -0.140794)
(0 0 0)
(0.0280234 0 -0.00358199)
(0.053132 0 -0.00682715)
(0.0747813 0 -0.00970434)
(0.0934313 0 -0.0122932)
(0.109509 0 -0.0146569)
(0.123392 0 -0.0168449)
(0.135419 0 -0.0188968)
(0.145886 0 -0.0208432)
(0.155046 0 -0.0227064)
(0.163138 0 -0.0245071)
(0.170395 0 -0.0262656)
(0.177037 0 -0.0280006)
(0.183278 0 -0.0297331)
(0.189341 0 -0.0314873)
(0.195454 0 -0.0332937)
(0.201858 0 -0.0351887)
(0.208815 0 -0.0372194)
(0.21661 0 -0.0394466)
(0.225577 0 -0.0419542)
(0.236108 0 -0.0448564)
(0.248658 0 -0.0483042)
(0.263795 0 -0.0525119)
(0.282173 0 -0.0577585)
(0.304611 0 -0.064436)
(0.332171 0 -0.0731061)
(0.366105 0 -0.084538)
(0.407548 0 -0.0996914)
(0.456161 0 -0.119365)
(0.507463 0 -0.143491)
(0.57886 0 -0.163831)
(0 0 0)
(0.0248727 0 0)
(0.0468963 0 0)
(0.0654386 0 0)
(0.0808613 0 0)
(0.0935015 0 0)
(0.103654 0 0)
(0.111587 0 0)
(0.117535 0 0)
(0.121694 0 0)
(0.124232 0 0)
(0.1253 0 0)
(0.125028 0 0)
(0.123531 0 0)
(0.120912 0 0)
(0.117263 0 0)
(0.112669 0 0)
(0.107206 0 0)
(0.100953 0 0)
(0.0939851 0 0)
(0.0863808 0 0)
(0.0782205 0 0)
(0.0695918 0 0)
(0.0605926 0 0)
(0.051338 0 0)
(0.0419706 0 0)
(0.0326839 0 0)
(0.0237859 0 0)
(0.0158308 0 0)
(0.0101155 0 0)
(0 0 0)
(0 0 0)
(0.0248898 0 -0.000247435)
(0.0469291 0 -0.000469243)
(0.0654876 0 -0.000662367)
(0.0809282 0 -0.000832015)
(0.0935873 0 -0.000982271)
(0.103758 0 -0.0011156)
(0.111713 0 -0.00123369)
(0.117685 0 -0.0013378)
(0.12187 0 -0.00142829)
(0.124439 0 -0.00150516)
(0.125541 0 -0.00156858)
(0.125308 0 -0.00161626)
(0.123854 0 -0.00164538)
(0.121285 0 -0.00165442)
(0.117693 0 -0.00164052)
(0.113164 0 -0.00159997)
(0.107776 0 -0.00152792)
(0.101607 0 -0.00142029)
(0.094739 0 -0.00127186)
(0.0872509 0 -0.00107462)
(0.0792277 0 -0.000819706)
(0.0707638 0 -0.00049685)
(0.0619669 0 -9.36625e-05)
(0.0529665 0 0.000404932)
(0.043928 0 0.00101712)
(0.0350713 0 0.00176559)
(0.0267278 0 0.0026785)
(0.0195043 0 0.00377837)
(0.0148977 0 0.0049757)
(0.00736422 0 0.00709169)
(0 0 0)
(0.0249402 0 -0.000495555)
(0.0470284 0 -0.000939917)
(0.0656355 0 -0.001327)
(0.0811261 0 -0.00166713)
(0.0938385 0 -0.00196737)
(0.104068 0 -0.00223379)
(0.112088 0 -0.00247091)
(0.118132 0 -0.00268032)
(0.122398 0 -0.00286268)
(0.125057 0 -0.00301789)
(0.126261 0 -0.00314533)
(0.126142 0 -0.00324176)
(0.124818 0 -0.00330305)
(0.122397 0 -0.00332535)
(0.118975 0 -0.00330303)
(0.114642 0 -0.00322917)
(0.109478 0 -0.00309522)
(0.103566 0 -0.0028922)
(0.0969929 0 -0.0026093)
(0.0898501 0 -0.00223232)
(0.0822328 0 -0.00174501)
(0.0742532 0 -0.00112887)
(0.0660442 0 -0.000361995)
(0.0577707 0 0.000581756)
(0.0496576 0 0.00173153)
(0.0420208 0 0.003117)
(0.035302 0 0.00475892)
(0.030181 0 0.0066436)
(0.0284375 0 0.0084902)
(0.0237135 0 0.0114213)
(0 0 0)
(0.0250236 0 -0.000743513)
(0.0471924 0 -0.00141042)
(0.0658794 0 -0.00199169)
(0.0814512 0 -0.00250288)
(0.0942513 0 -0.00295497)
(0.104581 0 -0.0033569)
(0.11271 0 -0.00371512)
(0.118874 0 -0.00403221)
(0.123274 0 -0.00430925)
(0.126083 0 -0.00454605)
(0.127454 0 -0.00474018)
(0.127524 0 -0.00488912)
(0.126417 0 -0.00498911)
(0.124241 0 -0.00503313)
(0.121099 0 -0.00501305)
(0.117086 0 -0.0049193)
(0.112292 0 -0.00474157)
(0.106806 0 -0.00446579)
(0.100723 0 -0.0040753)
(0.0941498 0 -0.00355256)
(0.0871985 0 -0.00287637)
(0.080011 0 -0.00202438)
(0.0727601 0 -0.000971283)
(0.0656552 0 0.000312425)
(0.0589872 0 0.00185463)
(0.0531891 0 0.00366854)
(0.0489224 0 0.0057209)
(0.0470228 0 0.00789988)
(0.049233 0 0.00968393)
(0.0476889 0 0.0126644)
(0 0 0)
(0.0251389 0 -0.000990548)
(0.0474194 0 -0.00187935)
(0.0662173 0 -0.00265452)
(0.0819039 0 -0.00333706)
(0.0948276 0 -0.00394268)
(0.105293 0 -0.00448243)
(0.113572 0 -0.00496388)
(0.119902 0 -0.00539141)
(0.124486 0 -0.00576662)
(0.127503 0 -0.00608972)
(0.129108 0 -0.00635811)
(0.129442 0 -0.00656884)
(0.128634 0 -0.00671747)
(0.126799 0 -0.00679545)
(0.124043 0 -0.00679282)
(0.120467 0 -0.00669741)
(0.116175 0 -0.00649789)
(0.111271 0 -0.00617858)
(0.105864 0 -0.00571968)
(0.100077 0 -0.00510184)
(0.0940444 0 -0.00430183)
(0.0879385 0 -0.00329679)
(0.0819817 0 -0.00206519)
(0.0764493 0 -0.000586964)
(0.0717129 0 0.00114604)
(0.0682863 0 0.00311306)
(0.0669905 0 0.0052059)
(0.0689825 0 0.00714861)
(0.0758526 0 0.00819783)
(0.0775961 0 0.01065)
(0 0 0)
(0.0252847 0 -0.00123646)
(0.0477067 0 -0.00234639)
(0.0666459 0 -0.0033152)
(0.0824796 0 -0.00416939)
(0.0955612 0 -0.00492938)
(0.106198 0 -0.00560834)
(0.114665 0 -0.00621526)
(0.121204 0 -0.00675647)
(0.126021 0 -0.00723394)
(0.1293 0 -0.00764916)
(0.131203 0 -0.00800082)
(0.131872 0 -0.00828436)
(0.131442 0 -0.00849424)
(0.130036 0 -0.00862194)
(0.12777 0 -0.00865683)
(0.124751 0 -0.00858577)
(0.121093 0 -0.00839548)
(0.116916 0 -0.00807017)
(0.112353 0 -0.00759154)
(0.107549 0 -0.00694099)
(0.102665 0 -0.00609709)
(0.0979073 0 -0.00504164)
(0.0935459 0 -0.00376307)
(0.0899227 0 -0.00226007)
(0.0875029 0 -0.000559561)
(0.0869192 0 0.00125719)
(0.0890199 0 0.00300596)
(0.0952112 0 0.00423238)
(0.107086 0 0.00399648)
(0.112154 0 0.00555453)
(0 0 0)
(0.02546 0 -0.00148159)
(0.0480526 0 -0.00281229)
(0.0671622 0 -0.00397492)
(0.0831747 0 -0.00500147)
(0.0964464 0 -0.00591621)
(0.107286 0 -0.00673528)
(0.115978 0 -0.00747038)
(0.122768 0 -0.0081295)
(0.127867 0 -0.00871608)
(0.131465 0 -0.00923214)
(0.133724 0 -0.00967626)
(0.134794 0 -0.0100439)
(0.134816 0 -0.0103297)
(0.133923 0 -0.0105257)
(0.132239 0 -0.0106216)
(0.129889 0 -0.0106055)
(0.126992 0 -0.0104626)
(0.123681 0 -0.0101762)
(0.120114 0 -0.00973352)
(0.116469 0 -0.00912142)
(0.112937 0 -0.00832375)
(0.10976 0 -0.00733202)
(0.107257 0 -0.00615182)
(0.105843 0 -0.00481115)
(0.106049 0 -0.00337701)
(0.108625 0 -0.00200411)
(0.114523 0 -0.000977736)
(0.125154 0 -0.000881691)
(0.142086 0 -0.00281083)
(0.150414 0 -0.00239509)
(0 0 0)
(0.0256641 0 -0.0017262)
(0.0484551 0 -0.00327761)
(0.0677629 0 -0.00463458)
(0.083981 0 -0.00583442)
(0.0974712 0 -0.0069045)
(0.108549 0 -0.00786531)
(0.117504 0 -0.00873226)
(0.124586 0 -0.00951443)
(0.130015 0 -0.0102182)
(0.133981 0 -0.0108448)
(0.136651 0 -0.0113917)
(0.138183 0 -0.0118561)
(0.138725 0 -0.012234)
(0.138422 0 -0.0125187)
(0.137406 0 -0.0127006)
(0.135814 0 -0.012769)
(0.133786 0 -0.012712)
(0.131472 0 -0.0125169)
(0.129047 0 -0.0121743)
(0.126718 0 -0.0116781)
(0.124715 0 -0.0110241)
(0.123319 0 -0.0102182)
(0.122897 0 -0.00928786)
(0.12393 0 -0.00829611)
(0.127039 0 -0.00736456)
(0.133021 0 -0.00671145)
(0.143006 0 -0.00674326)
(0.15826 0 -0.00813153)
(0.180185 0 -0.0120573)
(0.191636 0 -0.0129877)
(0 0 0)
(0.0258944 0 -0.00196927)
(0.0489095 0 -0.00374044)
(0.0684408 0 -0.00529155)
(0.0848892 0 -0.00666524)
(0.0986259 0 -0.00789316)
(0.109976 0 -0.00899965)
(0.119231 0 -0.0100027)
(0.126644 0 -0.010913)
(0.132441 0 -0.0117391)
(0.136818 0 -0.0124834)
(0.139948 0 -0.0131437)
(0.141994 0 -0.0137181)
(0.143118 0 -0.0142052)
(0.143473 0 -0.0146008)
(0.143203 0 -0.0148964)
(0.142456 0 -0.0150838)
(0.141393 0 -0.0151558)
(0.14019 0 -0.0151073)
(0.139032 0 -0.0149315)
(0.138151 0 -0.0146313)
(0.137826 0 -0.0142205)
(0.138377 0 -0.0137235)
(0.140225 0 -0.0131961)
(0.1439 0 -0.0127369)
(0.150103 0 -0.012524)
(0.159714 0 -0.0128489)
(0.173914 0 -0.014213)
(0.193871 0 -0.0173668)
(0.220782 0 -0.0235291)
(0.235209 0 -0.0259109)
(0 0 0)
(0.0261479 0 -0.00220978)
(0.0494101 0 -0.00419888)
(0.0691883 0 -0.00594326)
(0.0858927 0 -0.00749109)
(0.0999039 0 -0.00887903)
(0.111554 0 -0.0101345)
(0.121138 0 -0.0112773)
(0.128914 0 -0.0123203)
(0.135114 0 -0.013274)
(0.139941 0 -0.0141435)
(0.143574 0 -0.0149287)
(0.146187 0 -0.0156294)
(0.14795 0 -0.0162457)
(0.149025 0 -0.0167755)
(0.149567 0 -0.0172134)
(0.149746 0 -0.0175571)
(0.14973 0 -0.0178021)
(0.149718 0 -0.0179505)
(0.149925 0 -0.0180068)
(0.150607 0 -0.0179849)
(0.15208 0 -0.0179159)
(0.154704 0 -0.0178467)
(0.158949 0 -0.0178634)
(0.165428 0 -0.0181133)
(0.174874 0 -0.0188192)
(0.188271 0 -0.0203542)
(0.206755 0 -0.0232801)
(0.231474 0 -0.0284231)
(0.26338 0 -0.0369994)
(0.280732 0 -0.0408528)
(0 0 0)
(0.0264219 0 -0.0024473)
(0.0499521 0 -0.00465219)
(0.069999 0 -0.00658875)
(0.0869824 0 -0.00831077)
(0.101292 0 -0.00985962)
(0.113268 0 -0.011266)
(0.123207 0 -0.0125522)
(0.131377 0 -0.0137341)
(0.138016 0 -0.0148241)
(0.143329 0 -0.0158286)
(0.147506 0 -0.0167507)
(0.150733 0 -0.017594)
(0.153185 0 -0.0183594)
(0.155028 0 -0.0190456)
(0.156434 0 -0.0196526)
(0.15759 0 -0.0201847)
(0.158685 0 -0.0206446)
(0.159932 0 -0.0210414)
(0.16158 0 -0.021393)
(0.163909 0 -0.0217272)
(0.167263 0 -0.0220928)
(0.17205 0 -0.0225632)
(0.178793 0 -0.0232592)
(0.188163 0 -0.0243714)
(0.200962 0 -0.0261793)
(0.218225 0 -0.0291198)
(0.241051 0 -0.0338066)
(0.270658 0 -0.0411465)
(0.307533 0 -0.0522704)
(0.328009 0 -0.0576263)
(0 0 0)
(0.0267149 0 -0.00268196)
(0.0505325 0 -0.00510062)
(0.0708682 0 -0.00722845)
(0.0881519 0 -0.00912481)
(0.102782 0 -0.0108357)
(0.115105 0 -0.0123952)
(0.125426 0 -0.0138287)
(0.13402 0 -0.0151564)
(0.141128 0 -0.0163909)
(0.146958 0 -0.0175393)
(0.151711 0 -0.0186091)
(0.155581 0 -0.0196067)
(0.158752 0 -0.020536)
(0.161404 0 -0.0214005)
(0.163719 0 -0.0222047)
(0.165897 0 -0.0229582)
(0.16815 0 -0.0236731)
(0.17071 0 -0.024368)
(0.173844 0 -0.0250724)
(0.177864 0 -0.0258314)
(0.183148 0 -0.0267149)
(0.190147 0 -0.0278249)
(0.199447 0 -0.0293212)
(0.211741 0 -0.0314294)
(0.227923 0 -0.0344934)
(0.249043 0 -0.0389978)
(0.276293 0 -0.045637)
(0.310953 0 -0.0553844)
(0.352725 0 -0.0691749)
(0.37686 0 -0.0761944)
(0 0 0)
(0.0270254 0 -0.0029138)
(0.0511475 0 -0.00554421)
(0.0717904 0 -0.0078624)
(0.0893936 0 -0.00993325)
(0.104364 0 -0.0118072)
(0.117056 0 -0.013522)
(0.12778 0 -0.0151062)
(0.136819 0 -0.0165829)
(0.144415 0 -0.0179668)
(0.150783 0 -0.0192664)
(0.156136 0 -0.0204939)
(0.160676 0 -0.0216587)
(0.164595 0 -0.0227688)
(0.168085 0 -0.0238321)
(0.171344 0 -0.0248602)
(0.174578 0 -0.0258663)
(0.178013 0 -0.0268711)
(0.181908 0 -0.0279062)
(0.186546 0 -0.0290129)
(0.192267 0 -0.0302546)
(0.199483 0 -0.0317245)
(0.208691 0 -0.0335554)
(0.220509 0 -0.03594)
(0.23569 0 -0.0391515)
(0.255179 0 -0.0435854)
(0.280115 0 -0.0497986)
(0.311929 0 -0.0586108)
(0.351792 0 -0.0710018)
(0.398256 0 -0.0875554)
(0.426878 0 -0.096489)
(0 0 0)
(0.027349 0 -0.00314151)
(0.0517895 0 -0.00598053)
(0.0727545 0 -0.00848717)
(0.0906933 0 -0.0107318)
(0.10602 0 -0.0127691)
(0.119095 0 -0.0146405)
(0.130239 0 -0.0163772)
(0.139737 0 -0.0180055)
(0.147838 0 -0.0195433)
(0.154766 0 -0.021003)
(0.160743 0 -0.0223995)
(0.165979 0 -0.0237465)
(0.17067 0 -0.0250536)
(0.17501 0 -0.026332)
(0.17922 0 -0.0276024)
(0.18352 0 -0.0288861)
(0.188152 0 -0.0302134)
(0.19338 0 -0.031623)
(0.199504 0 -0.03317)
(0.206896 0 -0.0349381)
(0.215997 0 -0.0370445)
(0.227336 0 -0.0396498)
(0.241564 0 -0.0429816)
(0.259484 0 -0.0473605)
(0.2821 0 -0.0532387)
(0.310739 0 -0.061284)
(0.347002 0 -0.0724262)
(0.391801 0 -0.0875963)
(0.442332 0 -0.106877)
(0.477488 0 -0.118196)
(0 0 0)
(0.0276817 0 -0.00336385)
(0.0524505 0 -0.00640715)
(0.0737501 0 -0.0090994)
(0.0920371 0 -0.0115162)
(0.107732 0 -0.0137163)
(0.121203 0 -0.0157449)
(0.13278 0 -0.017637)
(0.142755 0 -0.0194218)
(0.151378 0 -0.0211196)
(0.158885 0 -0.0227475)
(0.1655 0 -0.0243224)
(0.171436 0 -0.0258589)
(0.176898 0 -0.0273726)
(0.182096 0 -0.0288813)
(0.187258 0 -0.0304114)
(0.192619 0 -0.0319929)
(0.19843 0 -0.0336643)
(0.204961 0 -0.0354732)
(0.212534 0 -0.0374902)
(0.221539 0 -0.0398161)
(0.232428 0 -0.042587)
(0.24576 0 -0.0459931)
(0.262206 0 -0.0502936)
(0.28259 0 -0.0558481)
(0.307993 0 -0.0631794)
(0.33983 0 -0.073042)
(0.379622 0 -0.0864101)
(0.427896 0 -0.104125)
(0.481057 0 -0.125863)
(0.528204 0 -0.140794)
(0 0 0)
(0.0280234 0 -0.00358199)
(0.053132 0 -0.00682715)
(0.0747813 0 -0.00970434)
(0.0934313 0 -0.0122932)
(0.109509 0 -0.0146569)
(0.123392 0 -0.0168449)
(0.135419 0 -0.0188968)
(0.145886 0 -0.0208432)
(0.155046 0 -0.0227064)
(0.163138 0 -0.0245071)
(0.170395 0 -0.0262656)
(0.177037 0 -0.0280006)
(0.183278 0 -0.0297331)
(0.189341 0 -0.0314873)
(0.195454 0 -0.0332937)
(0.201858 0 -0.0351887)
(0.208815 0 -0.0372194)
(0.21661 0 -0.0394466)
(0.225577 0 -0.0419542)
(0.236108 0 -0.0448564)
(0.248658 0 -0.0483042)
(0.263795 0 -0.0525119)
(0.282173 0 -0.0577585)
(0.304611 0 -0.064436)
(0.332171 0 -0.0731061)
(0.366105 0 -0.084538)
(0.407548 0 -0.0996914)
(0.456161 0 -0.119365)
(0.507463 0 -0.143491)
(0.57886 0 -0.163831)
(0 0 0)
(0.0205926 0 0)
(0.0472873 0 0)
(0.0962139 0 0)
(0.162924 0 0)
(0.23123 0 0)
(0.286886 0 0)
(0.326814 0 0)
(0.354082 0 0)
(0.372288 0 0)
(0.384003 0 0)
(0.390904 0 0)
(0.394058 0 0)
(0.394091 0 0)
(0.391359 0 0)
(0.38607 0 0)
(0.378338 0 0)
(0.368215 0 0)
(0.355712 0 0)
(0.340808 0 0)
(0.323464 0 0)
(0.30362 0 0)
(0.281207 0 0)
(0.256148 0 0)
(0.228359 0 0)
(0.197752 0 0)
(0.164238 0 0)
(0.127728 0 0)
(0.0881428 0 0)
(0.0453377 0 0)
(0 0 0)
(0.00574469 0 -0.00815208)
(0.0251655 0 -0.00923239)
(0.0524581 0 -0.0118072)
(0.101494 0 -0.0150778)
(0.1676 0 -0.0183308)
(0.234822 0 -0.0205722)
(0.289452 0 -0.0215474)
(0.328644 0 -0.0215743)
(0.355423 0 -0.0210524)
(0.373291 0 -0.0202117)
(0.384768 0 -0.0191099)
(0.391509 0 -0.0178934)
(0.394548 0 -0.0166859)
(0.394493 0 -0.0155069)
(0.391693 0 -0.0143734)
(0.386349 0 -0.0132929)
(0.378572 0 -0.012267)
(0.368412 0 -0.0112938)
(0.35588 0 -0.0103687)
(0.340952 0 -0.00948563)
(0.323587 0 -0.00863752)
(0.303726 0 -0.00781657)
(0.281299 0 -0.0070144)
(0.256229 0 -0.00622202)
(0.22843 0 -0.00542974)
(0.197815 0 -0.00462704)
(0.164293 0 -0.00380225)
(0.127776 0 -0.00294222)
(0.0881826 0 -0.00203205)
(0.0453664 0 -0.00105248)
(0 0 0)
(0.0194946 0 -0.0159612)
(0.0383853 0 -0.0187188)
(0.0674393 0 -0.023828)
(0.116912 0 -0.030182)
(0.181383 0 -0.0363166)
(0.245506 0 -0.0404382)
(0.297124 0 -0.0421813)
(0.334119 0 -0.042192)
(0.359416 0 -0.0411319)
(0.376269 0 -0.0394349)
(0.387046 0 -0.0373135)
(0.393304 0 -0.0349962)
(0.395997 0 -0.0326779)
(0.395678 0 -0.0304082)
(0.39267 0 -0.0282199)
(0.387161 0 -0.0261284)
(0.37925 0 -0.0241379)
(0.368981 0 -0.0222449)
(0.356358 0 -0.0204413)
(0.341356 0 -0.0187157)
(0.32393 0 -0.017055)
(0.304018 0 -0.0154442)
(0.281548 0 -0.0138673)
(0.256442 0 -0.0123071)
(0.228613 0 -0.0107447)
(0.197971 0 -0.00915957)
(0.164426 0 -0.007529)
(0.127885 0 -0.00582725)
(0.0882643 0 -0.00402509)
(0.0454136 0 -0.00208479)
(0 0 0)
(0.0401671 0 -0.0245391)
(0.0589792 0 -0.0288564)
(0.090594 0 -0.0364426)
(0.140651 0 -0.0455918)
(0.202588 0 -0.0540446)
(0.262069 0 -0.0595091)
(0.309168 0 -0.0616807)
(0.342803 0 -0.0615317)
(0.365786 0 -0.0599015)
(0.381047 0 -0.0573639)
(0.390727 0 -0.0543117)
(0.396216 0 -0.0510294)
(0.398345 0 -0.047723)
(0.397595 0 -0.0444761)
(0.394248 0 -0.0413361)
(0.388467 0 -0.038326)
(0.380337 0 -0.0354524)
(0.369889 0 -0.0327118)
(0.35712 0 -0.0300929)
(0.341997 0 -0.0275804)
(0.32447 0 -0.0251557)
(0.304475 0 -0.0227981)
(0.281936 0 -0.0204848)
(0.256772 0 -0.018191)
(0.228894 0 -0.0158897)
(0.19821 0 -0.0135512)
(0.164626 0 -0.0111424)
(0.128046 0 -0.00862568)
(0.0883842 0 -0.00595857)
(0.0454817 0 -0.00308605)
(0 0 0)
(0.0665211 0 -0.0344097)
(0.0856927 0 -0.0401061)
(0.120284 0 -0.050079)
(0.170845 0 -0.0616479)
(0.229411 0 -0.0717335)
(0.283109 0 -0.0778965)
(0.324658 0 -0.0800957)
(0.354112 0 -0.0795758)
(0.374166 0 -0.0773301)
(0.38739 0 -0.0739992)
(0.395652 0 -0.070097)
(0.400129 0 -0.0659584)
(0.401503 0 -0.0617791)
(0.40017 0 -0.0576656)
(0.396364 0 -0.0536764)
(0.390215 0 -0.0498403)
(0.381787 0 -0.0461671)
(0.371096 0 -0.0426529)
(0.358127 0 -0.0392843)
(0.342839 0 -0.0360426)
(0.325176 0 -0.0329052)
(0.305068 0 -0.0298464)
(0.282435 0 -0.0268374)
(0.257193 0 -0.0238471)
(0.229249 0 -0.0208409)
(0.198508 0 -0.0177808)
(0.164874 0 -0.0146242)
(0.128245 0 -0.0113229)
(0.0885291 0 -0.00782185)
(0.0455623 0 -0.00405046)
(0 0 0)
(0.0975866 0 -0.0458642)
(0.117425 0 -0.0527764)
(0.155092 0 -0.065012)
(0.205778 0 -0.0785124)
(0.260099 0 -0.089442)
(0.307186 0 -0.0955996)
(0.342586 0 -0.0974136)
(0.367372 0 -0.0963053)
(0.384099 0 -0.0933667)
(0.394992 0 -0.089296)
(0.401612 0 -0.0846429)
(0.404889 0 -0.0797483)
(0.405351 0 -0.0748073)
(0.403309 0 -0.0699362)
(0.39894 0 -0.0651998)
(0.392339 0 -0.0606314)
(0.383543 0 -0.0562433)
(0.372552 0 -0.0520316)
(0.359337 0 -0.0479808)
(0.343846 0 -0.0440699)
(0.326014 0 -0.0402731)
(0.305767 0 -0.0365607)
(0.283019 0 -0.0328991)
(0.257681 0 -0.0292515)
(0.229657 0 -0.0255767)
(0.198848 0 -0.0218295)
(0.165153 0 -0.0179587)
(0.128466 0 -0.013906)
(0.0886882 0 -0.00960571)
(0.0456494 0 -0.00497301)
(0 0 0)
(0.132541 0 -0.059011)
(0.15325 0 -0.0670051)
(0.19382 0 -0.081319)
(0.243884 0 -0.0961131)
(0.292999 0 -0.10703)
(0.332932 0 -0.112513)
(0.361954 0 -0.113572)
(0.381879 0 -0.111691)
(0.395102 0 -0.107996)
(0.403529 0 -0.103239)
(0.408373 0 -0.0979285)
(0.410317 0 -0.0923788)
(0.409753 0 -0.086784)
(0.406903 0 -0.0812616)
(0.401888 0 -0.0758787)
(0.394764 0 -0.0706706)
(0.385543 0 -0.0656525)
(0.374205 0 -0.0608201)
(0.360704 0 -0.0561554)
(0.344976 0 -0.0516362)
(0.32695 0 -0.0472346)
(0.306541 0 -0.0429177)
(0.283659 0 -0.0386482)
(0.258211 0 -0.0343842)
(0.230095 0 -0.0300793)
(0.199209 0 -0.0256815)
(0.165447 0 -0.0211323)
(0.128697 0 -0.0163644)
(0.0888524 0 -0.0113023)
(0.0457378 0 -0.00584949)
(0 0 0)
(0.170718 0 -0.0738229)
(0.192417 0 -0.0828146)
(0.235441 0 -0.0989135)
(0.283707 0 -0.114173)
(0.326605 0 -0.124191)
(0.359127 0 -0.128436)
(0.381814 0 -0.128431)
(0.396944 0 -0.125658)
(0.406718 0 -0.121217)
(0.412674 0 -0.115835)
(0.415682 0 -0.109949)
(0.41622 0 -0.103843)
(0.414555 0 -0.0976985)
(0.410829 0 -0.0916287)
(0.405109 0 -0.085697)
(0.39741 0 -0.0799394)
(0.387719 0 -0.0743759)
(0.375997 0 -0.0689999)
(0.362179 0 -0.0637891)
(0.346189 0 -0.0587223)
(0.327946 0 -0.0537708)
(0.307357 0 -0.0488993)
(0.284328 0 -0.0440674)
(0.258757 0 -0.0392293)
(0.230541 0 -0.0343339)
(0.199572 0 -0.0293237)
(0.165741 0 -0.0241342)
(0.128927 0 -0.0186891)
(0.0890131 0 -0.012905)
(0.0458225 0 -0.00667637)
(0 0 0)
(0.211532 0 -0.0902146)
(0.234334 0 -0.100161)
(0.279012 0 -0.11757)
(0.323897 0 -0.132276)
(0.359629 0 -0.140554)
(0.384735 0 -0.143131)
(0.401359 0 -0.141846)
(0.411997 0 -0.138146)
(0.418538 0 -0.133021)
(0.422105 0 -0.127085)
(0.423287 0 -0.12071)
(0.422398 0 -0.114145)
(0.419599 0 -0.107553)
(0.414962 0 -0.101037)
(0.408499 0 -0.0946506)
(0.400189 0 -0.088429)