/*--------------------------------*- C++ -*----------------------------------*\
| =========                 |                                                 |
| \\      /  F ield         | OpenFOAM: The Open Source CFD Toolbox           |
|  \\    /   O peration     | Version:  dev                                   |
|   \\  /    A nd           | Web:      www.OpenFOAM.org                      |
|    \\/     M anipulation  |                                                 |
\*---------------------------------------------------------------------------*/
FoamFile
{
    version     2.0;
    format      ascii;
    class       volVectorField;
    location    "0";
    object      U;
}
// * * * * * * * * * * * * * * * * * * * * * * * * * * * * * * * * * * * * * //

dimensions      [0 1 -1 0 0 0 0];

internalField   nonuniform List<vector> 
465
(
(11.146 0 3.14332)
(11.3267 0 2.8319)
(11.6886 0 2.98212)
(12.1208 0 3.0962)
(11.4479 0 2.52725)
(11.7801 0 2.61329)
(12.1619 0 2.65669)
(12.5904 0 2.63836)
(13.0561 0 2.5355)
(11.5195 0 2.23941)
(11.816 0 2.27662)
(12.1448 0 2.27084)
(12.4999 0 2.20844)
(12.8695 0 2.07516)
(13.2357 0 1.85849)
(13.5732 0 1.55134)
(11.5518 0 1.97442)
(11.8111 0 1.97639)
(12.0897 0 1.93866)
(12.3804 0 1.85227)
(12.6725 0 1.70918)
(12.9514 0 1.50402)
(13.1996 0 1.23622)
(13.3986 0 0.912139)
(13.5324 0 0.546026)
(11.5543 0 1.73502)
(11.7779 0 1.71294)
(12.0115 0 1.65611)
(12.2482 0 1.55912)
(12.4791 0 1.41803)
(12.6931 0 1.2314)
(12.8783 0 1.00144)
(13.0234 0 0.734752)
(13.1191 0 0.442272)
(11.5352 0 1.52165)
(11.7263 0 1.48417)
(11.921 0 1.41734)
(12.1134 0 1.31822)
(12.2964 0 1.18535)
(12.4622 0 1.01929)
(12.6026 0 0.823126)
(12.7105 0 0.602665)
(12.7808 0 0.366068)
(11.5011 0 1.33324)
(11.6634 0 1.28677)
(11.8253 0 1.21611)
(11.982 0 1.11993)
(12.1279 0 0.998151)
(12.2575 0 0.852208)
(12.3655 0 0.685236)
(12.4474 0 0.501993)
(12.5002 0 0.308517)
(11.4573 0 1.16783)
(11.5948 0 1.11697)
(11.7294 0 1.04649)
(11.8573 0 0.956064)
(11.9744 0 0.846313)
(12.0769 0 0.718955)
(12.1611 0 0.576808)
(12.2243 0 0.423659)
(12.2648 0 0.263977)
(11.4077 0 1.02307)
(11.5241 0 0.970991)
(11.6362 0 0.903197)
(11.7411 0 0.819908)
(11.8359 0 0.722064)
(11.9177 0 0.611362)
(11.9843 0 0.490201)
(12.0339 0 0.361547)
(12.0655 0 0.228728)
(11.3552 0 0.896514)
(11.4539 0 0.84534)
(11.5476 0 0.781679)
(11.6342 0 0.706036)
(11.7114 0 0.61944)
(11.7775 0 0.52343)
(11.8308 0 0.419988)
(11.8703 0 0.311426)
(11.8955 0 0.200237)
(11.2147 0 0.824563)
(11.302 0 0.785775)
(11.3859 0 0.736873)
(11.4646 0 0.678107)
(11.5365 0 0.610101)
(11.6 0 0.533852)
(11.6539 0 0.450695)
(11.6972 0 0.362244)
(11.7292 0 0.270295)
(11.7496 0 0.176729)
(11.1743 0 0.726318)
(11.2496 0 0.68865)
(11.3212 0 0.642851)
(11.3877 0 0.589294)
(11.4478 0 0.528625)
(11.5006 0 0.461753)
(11.5451 0 0.389805)
(11.5806 0 0.314082)
(11.6069 0 0.235981)
(11.6238 0 0.156931)
(11.1339 0 0.638883)
(11.1992 0 0.60315)
(11.2605 0 0.560918)
(11.317 0 0.512605)
(11.3678 0 0.458828)
(11.412 0 0.400382)
(11.4491 0 0.338207)
(11.4787 0 0.273342)
(11.5006 0 0.20688)
(11.5148 0 0.139909)
(11.0945 0 0.560792)
(11.1513 0 0.527514)
(11.2042 0 0.489066)
(11.2526 0 0.445867)
(11.2958 0 0.398476)
(11.3333 0 0.347575)
(11.3646 0 0.293935)
(11.3896 0 0.238388)
(11.4081 0 0.181786)
(11.4203 0 0.124968)
(11.0568 0 0.490714)
(11.1065 0 0.460202)
(11.1525 0 0.425595)
(11.1943 0 0.387287)
(11.2314 0 0.34577)
(11.2635 0 0.301618)
(11.2903 0 0.25546)
(11.3117 0 0.207959)
(11.3276 0 0.159783)
(11.3382 0 0.111577)
(11.0213 0 0.427451)
(11.0651 0 0.39987)
(11.1054 0 0.369062)
(11.1419 0 0.33538)
(11.1741 0 0.299248)
(11.2019 0 0.261144)
(11.2251 0 0.221577)
(11.2436 0 0.181074)
(11.2575 0 0.140158)
(11.2669 0 0.0993313)
(10.9884 0 0.369934)
(11.0274 0 0.345355)
(11.063 0 0.318244)
(11.0951 0 0.288912)
(11.1234 0 0.257718)
(11.1478 0 0.225052)
(11.1681 0 0.191326)
(11.1845 0 0.156958)
(11.1968 0 0.122358)
(11.2053 0 0.0879146)
(10.9584 0 0.317211)
(10.9934 0 0.295642)
(11.0252 0 0.2721)
(11.0538 0 0.246852)
(11.079 0 0.220194)
(11.1006 0 0.192445)
(11.1187 0 0.163936)
(11.1333 0 0.134995)
(11.1444 0 0.105942)
(11.1522 0 0.0770791)
(10.9316 0 0.268433)
(10.9633 0 0.249846)
(10.992 0 0.229737)
(11.0178 0 0.208327)
(11.0404 0 0.185858)
(11.0599 0 0.162588)
(11.0762 0 0.138777)
(11.0894 0 0.114684)
(11.0996 0 0.0905575)
(11.1069 0 0.0666302)
(10.9081 0 0.222836)
(10.9371 0 0.207189)
(10.9634 0 0.190381)
(10.9869 0 0.172593)
(11.0075 0 0.15402)
(11.0253 0 0.134864)
(11.0402 0 0.115331)
(11.0524 0 0.095619)
(11.0618 0 0.0759203)
(11.0687 0 0.056413)
(10.888 0 0.179729)
(10.9149 0 0.166973)
(10.9393 0 0.15335)
(10.961 0 0.139004)
(10.9801 0 0.124086)
(10.9965 0 0.108752)
(11.0104 0 0.0931597)
(11.0217 0 0.0774598)
(11.0306 0 0.061797)
(11.0372 0 0.0463051)
(10.8715 0 0.138469)
(10.8968 0 0.128564)
(10.9197 0 0.118033)
(10.9401 0 0.106986)
(10.9579 0 0.0955355)
(10.9734 0 0.0837984)
(10.9864 0 0.0718892)
(10.9972 0 0.0599193)
(11.0057 0 0.0479937)
(11.012 0 0.0362097)
(10.8589 0 0.0984508)
(10.883 0 0.0913682)
(10.9047 0 0.0838645)
(10.9241 0 0.0760154)
(10.9412 0 0.0678998)
(10.9559 0 0.0595976)
(10.9683 0 0.0511877)
(10.9786 0 0.0427461)
(10.9868 0 0.0343444)
(10.9931 0 0.0260484)
(10.8502 0 0.0590764)
(10.8735 0 0.0548111)
(10.8946 0 0.0503025)
(10.9133 0 0.0455955)
(10.9298 0 0.0407366)
(10.944 0 0.0357728)
(10.9561 0 0.0307502)
(10.9661 0 0.0257132)
(10.9741 0 0.0207033)
(10.9803 0 0.0157591)
(10.8457 0 0.0197379)
(10.8687 0 0.0183103)
(10.8893 0 0.016803)
(10.9077 0 0.015231)
(10.9239 0 0.0136095)
(10.9379 0 0.0119542)
(10.9498 0 0.0102802)
(10.9597 0 0.00860215)
(10.9676 0 0.00693377)
(10.9737 0 0.00528764)
(13.5908 0 0.254253)
(13.1604 0 0.213039)
(13.1669 0 0.0605237)
(13.1597 0 -0.091944)
(12.8109 0 0.182857)
(12.8157 0 0.0612463)
(12.8105 0 -0.0603186)
(12.5227 0 0.160043)
(12.5264 0 0.0616641)
(12.5225 0 -0.0366703)
(12.2821 0 0.142284)
(12.2849 0 0.0617612)
(12.2821 0 -0.0187177)
(12.0791 0 0.128058)
(12.0814 0 0.0615203)
(12.0794 0 -0.00497473)
(11.9064 0 0.116331)
(11.9084 0 0.0609237)
(11.9069 0 0.00555846)
(11.7585 0 0.106376)
(11.7603 0 0.0599539)
(11.7593 0 0.0135729)
(11.6312 0 0.097671)
(11.6328 0 0.0585945)
(11.6322 0 0.0195576)
(11.5212 0 0.0898328)
(11.5227 0 0.0568306)
(11.5225 0 0.0238665)
(11.4259 0 0.082574)
(11.4273 0 0.0546493)
(11.4274 0 0.0267609)
(11.3432 0 0.0756772)
(11.3446 0 0.0520406)
(11.3449 0 0.0284382)
(11.2715 0 0.0689754)
(11.273 0 0.0489972)
(11.2735 0 0.029051)
(11.2095 0 0.0623411)
(11.211 0 0.0455164)
(11.2117 0 0.0287214)
(11.1562 0 0.0556757)
(11.1578 0 0.0415991)
(11.1586 0 0.0275494)
(11.1107 0 0.0489053)
(11.1123 0 0.0372515)
(11.1133 0 0.0256217)
(11.0724 0 0.0419755)
(11.0741 0 0.0324855)
(11.0751 0 0.0230163)
(11.0409 0 0.0348481)
(11.0425 0 0.027319)
(11.0437 0 0.0198072)
(11.0157 0 0.0275003)
(11.0174 0 0.0217777)
(11.0186 0 0.0160689)
(10.9967 0 0.0199199)
(10.9984 0 0.0158937)
(10.9997 0 0.0118776)
(10.9838 0 0.0121077)
(10.9856 0 0.0097091)
(10.987 0 0.00731665)
(10.9773 0 0.00407215)
(10.9791 0 0.00327372)
(10.9804 0 0.00247735)
(13.1174 0 -0.320963)
(12.7797 0 -0.243321)
(12.7085 0 -0.47925)
(12.5997 0 -0.698625)
(12.4584 0 -0.893257)
(12.4997 0 -0.18494)
(12.4465 0 -0.37776)
(12.3642 0 -0.559938)
(12.2559 0 -0.725404)
(12.1259 0 -0.869371)
(11.9796 0 -0.988672)
(12.2649 0 -0.14021)
(12.2245 0 -0.299249)
(12.1614 0 -0.45135)
(12.0774 0 -0.592014)
(11.9751 0 -0.717424)
(11.8582 0 -0.824725)
(11.7305 0 -0.912159)
(11.5962 0 -0.979053)
(12.0663 0 -0.105448)
(12.0352 0 -0.237636)
(11.9863 0 -0.365261)
(11.9204 0 -0.484967)
(11.8393 0 -0.593753)
(11.7453 0 -0.689185)
(11.6412 0 -0.769527)
(11.5299 0 -0.833791)
(11.4145 0 -0.88171)
(11.8969 0 -0.0781551)
(11.8728 0 -0.188728)
(11.8344 0 -0.296284)
(11.7823 0 -0.398301)
(11.7175 0 -0.492436)
(11.6416 0 -0.57667)
(11.5565 0 -0.649423)
(11.4643 0 -0.709622)
(11.3672 0 -0.756714)
(11.7516 0 -0.056593)
(11.7328 0 -0.149559)
(11.7025 0 -0.240529)
(11.661 0 -0.327594)
(11.6089 0 -0.408923)
(11.5473 0 -0.48287)
(11.4774 0 -0.54806)
(11.4008 0 -0.603452)
(11.3192 0 -0.648373)
(11.6263 0 -0.0395212)
(11.6116 0 -0.117991)
(11.5875 0 -0.195144)
(11.5543 0 -0.269525)
(11.5122 0 -0.339704)
(11.4619 0 -0.404348)
(11.4044 0 -0.462288)
(11.3406 0 -0.512577)
(11.272 0 -0.55452)
(11.518 0 -0.0260363)
(11.5064 0 -0.0924482)
(11.4873 0 -0.158)
(11.4605 0 -0.221575)
(11.4263 0 -0.282049)
(11.3851 0 -0.338352)
(11.3376 0 -0.389506)
(11.2844 0 -0.434677)
(11.2266 0 -0.473201)
(11.424 0 -0.015467)
(11.415 0 -0.0717532)
(11.3997 0 -0.127487)
(11.3781 0 -0.181803)
(11.3502 0 -0.233821)
(11.3163 0 -0.282679)
(11.2769 0 -0.327568)
(11.2325 0 -0.367771)
(11.1837 0 -0.402684)
(11.3425 0 -0.00730516)
(11.3355 0 -0.0550076)
(11.3233 0 -0.102364)
(11.3058 0 -0.148702)
(11.283 0 -0.193327)
(11.2551 0 -0.235548)
(11.2223 0 -0.274702)
(11.185 0 -0.310179)
(11.1438 0 -0.341447)
(11.2718 0 -0.00115839)
(11.2665 0 -0.0415153)
(11.2568 0 -0.0816639)
(11.2426 0 -0.12108)
(11.2238 0 -0.159214)
(11.2007 0 -0.195514)
(11.1734 0 -0.229438)
(11.1421 0 -0.260475)
(11.1071 0 -0.288165)
(11.2107 0 0.00328299)
(11.2067 0 -0.0307268)
(11.199 0 -0.0646194)
(11.1875 0 -0.0979842)
(11.1721 0 -0.130389)
(11.1529 0 -0.16139)
(11.13 0 -0.190548)
(11.1035 0 -0.217441)
(11.0739 0 -0.241675)
(11.1581 0 0.00626859)
(11.1552 0 -0.0222001)
(11.1491 0 -0.0506103)
(11.1398 0 -0.0786409)
(11.1271 0 -0.105951)
(11.1111 0 -0.132188)
(11.0918 0 -0.156997)
(11.0694 0 -0.180031)
(11.044 0 -0.200963)
(11.1133 0 0.00800608)
(11.1113 0 -0.0155705)
(11.1065 0 -0.0391251)
(11.0989 0 -0.0624077)
(11.0884 0 -0.0851508)
(11.075 0 -0.107076)
(11.0587 0 -0.127898)
(11.0396 0 -0.147339)
(11.0178 0 -0.165125)
(11.0755 0 0.00867357)
(11.0742 0 -0.0105295)
(11.0705 0 -0.0297319)
(11.0644 0 -0.0487406)
(11.0556 0 -0.0673481)
(11.0443 0 -0.0853366)
(11.0304 0 -0.102483)
(11.0139 0 -0.118562)
(10.9951 0 -0.133357)
(11.0443 0 0.00842966)
(11.0437 0 -0.00680749)
(11.0408 0 -0.0220548)
(11.0358 0 -0.037166)
(11.0284 0 -0.0519833)
(11.0188 0 -0.06634)
(11.0068 0 -0.0800637)
(10.9925 0 -0.0929805)
(10.9759 0 -0.104919)
(11.0195 0 0.00742248)
(11.0193 0 -0.00415929)
(11.0171 0 -0.0157549)
(11.0129 0 -0.0272575)
(11.0067 0 -0.0385511)
(10.9983 0 -0.0495128)
(10.9878 0 -0.0600148)
(10.9751 0 -0.0699273)
(10.9604 0 -0.079121)
(11.0008 0 0.00579497)
(11.0009 0 -0.0023537)
(10.9992 0 -0.0105153)
(10.9957 0 -0.0186167)
(10.9902 0 -0.0265787)
(10.9828 0 -0.0343167)
(10.9733 0 -0.0417425)
(10.9619 0 -0.0487661)
(10.9485 0 -0.0552974)
(10.9881 0 0.00369324)
(10.9885 0 -0.0011613)
(10.9871 0 -0.00602476)
(10.984 0 -0.0108545)
(10.9791 0 -0.0156041)
(10.9722 0 -0.020224)
(10.9635 0 -0.0246625)
(10.9529 0 -0.0288664)
(10.9404 0 -0.0327824)
(10.9817 0 0.00127123)
(10.9821 0 -0.00034473)
(10.9809 0 -0.00196387)
(10.978 0 -0.00357212)
(10.9733 0 -0.00515419)
(10.9669 0 -0.00669374)
(10.9585 0 -0.00817364)
(10.9483 0 -0.0095763)
(10.9363 0 -0.010884)
)
;

boundaryField
{
    inlet
    {
        type            fixedValue;
        value           nonuniform 0();
    }
    outlet
    {
        type            zeroGradient;
    }
    flap
    {
        type            movingWallVelocity;
        value           nonuniform 0();
    }
    upperWall
    {
        type            noSlip;
    }
    lowerWall
    {
        type            noSlip;
    }
    frontAndBack
    {
        type            empty;
    }
    procBoundary1to0
    {
        type            processor;
        value           nonuniform List<vector> 
18
(
(11.2897 0 1.05986)
(11.2538 0 0.935194)
(11.2538 0 0.935194)
(11.1256 0 0.853337)
(11.0965 0 0.755757)
(11.0658 0 0.667905)
(11.0347 0 0.588636)
(11.004 0 0.516852)
(10.9744 0 0.451532)
(10.9465 0 0.391731)
(10.9207 0 0.336584)
(10.8972 0 0.285303)
(10.8764 0 0.237161)
(10.8586 0 0.191488)
(10.8438 0 0.147651)
(10.8324 0 0.105042)
(10.8246 0 0.0630565)
(10.8205 0 0.0210718)
)
;
    }
    procBoundary1to2
    {
        type            processor;
        value           nonuniform List<vector> 
17
(
(11.2976 0 -0.913645)
(11.2675 0 -0.790634)
(11.2343 0 -0.682519)
(11.1998 0 -0.587693)
(11.1652 0 -0.504612)
(11.1314 0 -0.43184)
(11.0992 0 -0.368068)
(11.069 0 -0.312111)
(11.0412 0 -0.262904)
(11.016 0 -0.219492)
(10.9935 0 -0.181007)
(10.9739 0 -0.14666)
(10.9572 0 -0.115714)
(10.9436 0 -0.0874707)
(10.9332 0 -0.0612482)
(10.9261 0 -0.036358)
(10.9224 0 -0.0120794)
)
;
    }
    procBoundary1to3
    {
        type            processor;
        value           nonuniform List<vector> 9((10.8429 0 2.90864) (11.027 0 2.66226) (11.1634 0 2.41347) (11.2574 0 2.17112) (11.3158 0 1.94143) (11.3453 0 1.72828) (11.3523 0 1.53355) (11.3424 0 1.3577) (11.3203 0 1.2002));
    }
    procBoundary1to4
    {
        type            processor;
        value           nonuniform List<vector> 
30
(
(10.8984 0 3.44711)
(11.5252 0 3.37301)
(11.5252 0 3.37301)
(11.9967 0 3.58203)
(12.6278 0 3.15017)
(12.6278 0 3.15017)
(13.2069 0 3.11124)
(13.5385 0 2.32381)
(13.5385 0 2.32381)
(14.0043 0 1.98277)
(13.8528 0 1.15678)
(13.8528 0 1.15678)
(14.0456 0 0.691994)
(14.131 0 0.312592)
(13.6001 0 0.0595095)
(13.6001 0 0.0595095)
(13.5898 0 -0.135185)
(13.5301 0 -0.426733)
(13.0203 0 -0.612756)
(13.0203 0 -0.612756)
(12.8739 0 -0.878337)
(12.6872 0 -1.10674)
(12.2918 0 -1.05732)
(12.2918 0 -1.05732)
(12.1078 0 -1.18769)
(11.8226 0 -1.08182)
(11.8226 0 -1.08182)
(11.6604 0 -1.14887)
(11.459 0 -1.0257)
(11.459 0 -1.0257)
)
;
    }
}


// ************************************************************************* //
