/*--------------------------------*- C++ -*----------------------------------*\
| =========                 |                                                 |
| \\      /  F ield         | OpenFOAM: The Open Source CFD Toolbox           |
|  \\    /   O peration     | Version:  dev                                   |
|   \\  /    A nd           | Web:      www.OpenFOAM.org                      |
|    \\/     M anipulation  |                                                 |
\*---------------------------------------------------------------------------*/
FoamFile
{
    version     2.0;
    format      ascii;
    class       surfaceScalarField;
    location    "0";
    object      phi;
}
// * * * * * * * * * * * * * * * * * * * * * * * * * * * * * * * * * * * * * //

dimensions      [0 3 -1 0 0 0 0];

internalField   nonuniform List<scalar> 
881
(
0.198127
0.00187266
0.19626
0.00186752
0.194361
0.00189854
0.192398
0.00196328
0.190337
0.00206054
0.188147
0.00219014
0.185795
0.00235276
0.183245
0.00254984
0.180461
0.00278347
0.177405
0.00305625
0.174034
0.00337127
0.170302
0.00373192
0.16616
0.00414174
0.161556
0.00460412
0.156434
0.00512196
0.150737
0.0056972
0.144407
0.00633018
0.137388
0.00701885
0.12963
0.00775792
0.121092
0.0085379
0.00934424
0.198137
0.00373558
0.196279
0.00372517
0.194391
0.00378672
0.192439
0.00391533
0.190391
0.00410863
0.188215
0.00436625
0.185878
0.00468953
0.183347
0.00508129
0.180585
0.00554566
0.177553
0.00608785
0.17421
0.00671401
0.170511
0.00743095
0.166407
0.00824577
0.161846
0.00916541
0.156772
0.0101959
0.151128
0.0113415
0.144854
0.0126035
0.137895
0.0139784
0.130196
0.0154567
0.121713
0.0170205
0.0186418
0.198156
0.00557918
0.196318
0.00556318
0.194451
0.00565423
0.192521
0.00584504
0.190498
0.00613199
0.18835
0.0065145
0.186045
0.0069945
0.18355
0.00757616
0.18083
0.00826556
0.177847
0.00907046
0.174561
0.01
0.170928
0.0110645
0.166899
0.0122747
0.162423
0.0136413
0.157445
0.0151739
0.151907
0.0168799
0.145748
0.0187624
0.138908
0.0208182
0.131329
0.0230352
0.122961
0.0253894
0.0278417
0.198185
0.00739399
0.196376
0.00737196
0.19454
0.00749103
0.192643
0.00774151
0.190657
0.00811857
0.18855
0.00862133
0.186292
0.00925226
0.183851
0.0100167
0.181194
0.0109227
0.178284
0.0119803
0.175083
0.0132017
0.171547
0.0146007
0.16763
0.0161917
0.163281
0.0179896
0.158447
0.0200082
0.153068
0.0222589
0.147082
0.0247481
0.140425
0.0274751
0.133033
0.030428
0.124842
0.0335801
0.0368852
0.198223
0.00917087
0.196453
0.00914224
0.194657
0.00928737
0.192804
0.00959426
0.190866
0.0100568
0.188813
0.0106737
0.186617
0.011448
0.184248
0.0123859
0.181674
0.0134973
0.178859
0.0147945
0.175769
0.0162926
0.172361
0.0180086
0.168591
0.019961
0.164412
0.022169
0.159769
0.0246515
0.154603
0.0274246
0.148851
0.0305003
0.142443
0.0338827
0.135307
0.0375639
0.127368
0.0415192
0.0457006
0.19827
0.010901
0.196547
0.0108651
0.1948
0.0110339
0.193001
0.0113932
0.191123
0.0119356
0.189137
0.0126593
0.187018
0.0135675
0.184736
0.0146676
0.182262
0.0159708
0.179566
0.0174914
0.176611
0.0192473
0.173361
0.0212587
0.169773
0.0235482
0.165803
0.0261396
0.161397
0.029057
0.156499
0.0323231
0.151042
0.0359571
0.144954
0.0399708
0.138153
0.0443648
0.13055
0.0491219
0.0542001
0.198325
0.0125761
0.196658
0.0125321
0.19497
0.0127219
0.193234
0.0131289
0.191425
0.0137445
0.189518
0.0145664
0.187488
0.0155978
0.185309
0.0168468
0.182954
0.0183257
0.180394
0.0200509
0.177599
0.0220424
0.174535
0.0243236
0.171162
0.0269209
0.167438
0.0298629
0.163316
0.0331796
0.158738
0.0369012
0.153639
0.0410556
0.147944
0.0456657
0.141564
0.0507448
0.134396
0.0562904
0.0622753
0.198388
0.0141883
0.196785
0.0141353
0.195163
0.014343
0.1935
0.0147926
0.19177
0.015474
0.189952
0.0163843
0.188024
0.0175267
0.185961
0.0189096
0.18374
0.0205462
0.181337
0.0224545
0.178723
0.0246563
0.175868
0.0271779
0.17274
0.0300492
0.1693
0.0333034
0.165503
0.0369767
0.161297
0.0411071
0.156619
0.045733
0.151394
0.0508909
0.145528
0.0566113
0.138905
0.0629132
0.0697952
0.198458
0.0157304
0.196926
0.0156675
0.195379
0.0158897
0.193796
0.0163761
0.192154
0.0171153
0.190435
0.0181034
0.188618
0.0193434
0.186684
0.0208438
0.184612
0.0226183
0.182381
0.0246859
0.179967
0.0270701
0.177346
0.0297992
0.174489
0.0329063
0.171363
0.0364288
0.167931
0.0404087
0.164146
0.0448921
0.159951
0.0499285
0.155272
0.0555695
0.150017
0.0618667
0.144063
0.0688669
0.0766051
0.198535
0.0171957
0.19708
0.017122
0.195615
0.0173551
0.194119
0.0178722
0.192573
0.0186605
0.190962
0.0197152
0.189267
0.0210384
0.187472
0.0226386
0.18556
0.0245298
0.183515
0.0267312
0.181318
0.0292675
0.178948
0.0321684
0.176385
0.0354693
0.173603
0.0392112
0.170571
0.043441
0.16725
0.0482124
0.163593
0.0535855
0.159535
0.0596276
0.154989
0.0664129
0.149836
0.0740204
0.0825305
0.198617
0.0185785
0.197246
0.0184929
0.195868
0.0187332
0.194466
0.0192747
0.193023
0.020103
0.191526
0.0212122
0.189961
0.0226037
0.188314
0.0242853
0.186573
0.0262707
0.184726
0.0285791
0.182758
0.0312353
0.180656
0.03427
0.178406
0.0377198
0.175989
0.0416279
0.173385
0.0460452
0.170566
0.0510311
0.167496
0.056655
0.164126
0.0629984
0.160382
0.0701569
0.156159
0.0782427
0.0873858
0.198705
0.0198735
0.197423
0.019775
0.196137
0.0200187
0.194834
0.020578
0.1935
0.021437
0.192124
0.0225885
0.190695
0.0240328
0.189203
0.0257768
0.187641
0.0278333
0.185999
0.0302209
0.18427
0.032964
0.182447
0.0360929
0.180523
0.0396444
0.178488
0.0436627
0.176332
0.0482005
0.174043
0.0533207
0.171599
0.0590991
0.16897
0.0656277
0.166107
0.0730195
0.162935
0.0814151
0.0909909
0.198797
0.0210762
0.197608
0.020964
0.19642
0.0212073
0.19522
0.0217778
0.193999
0.022658
0.192748
0.0238394
0.19146
0.0253209
0.190129
0.027108
0.18875
0.0292122
0.18732
0.031651
0.185837
0.0344473
0.184299
0.0376302
0.182708
0.0412355
0.181065
0.0453062
0.17937
0.0498949
0.177626
0.0550648
0.175831
0.0608941
0.173979
0.0674797
0.172054
0.0749443
0.170023
0.0834466
0.0931956
0.198893
0.0221832
0.197801
0.0220563
0.196713
0.0222954
0.19562
0.0228705
0.194515
0.0237625
0.193393
0.0249614
0.19225
0.0264645
0.191082
0.0282756
0.18989
0.0304045
0.188674
0.0328666
0.187439
0.0356828
0.186189
0.0388799
0.184933
0.042491
0.183683
0.0465567
0.182452
0.0511262
0.181256
0.0562603
0.180116
0.062034
0.179054
0.0685423
0.178091
0.0759073
0.177247
0.0842901
0.0939091
0.198992
0.197999
0.197014
0.0232803
0.196031
0.0238536
0.195045
0.0247483
0.194054
0.0259526
0.193057
0.027462
0.192054
0.0292785
0.191049
0.0314095
0.190047
0.0338679
0.189058
0.0366718
0.188094
0.0398445
0.18717
0.0434152
0.186306
0.04742
0.18553
0.0519027
0.184873
0.0569175
0.184375
0.0625317
0.184087
0.0688304
0.184071
0.0759235
0.184404
0.0839567
0.0931284
0.204884
0.203981
0.0247567
0.203085
0.0256447
0.202195
0.0268424
0.201314
0.028343
0.200446
0.0301461
0.199599
0.0322566
0.198783
0.034684
0.198012
0.0374427
0.197305
0.0405516
0.196686
0.0440345
0.196185
0.0479211
0.195841
0.052247
0.195702
0.0570563
0.19583
0.0624031
0.196306
0.0683551
0.197231
0.0749985
0.198742
0.0824449
0.0908429
0.209388
0.208604
0.0264286
0.207839
0.0276071
0.207099
0.0290833
0.206391
0.0308541
0.205726
0.0329212
0.20512
0.0352903
0.204591
0.0379713
0.204165
0.0409778
0.203872
0.0443272
0.203753
0.0480406
0.203856
0.0521438
0.204245
0.0566674
0.204999
0.0616483
0.206224
0.0671306
0.208055
0.0731675
0.210676
0.0798236
0.0871764
0.214286
0.213654
0.0282387
0.213062
0.0296752
0.212521
0.0313949
0.212046
0.0333962
0.211656
0.0356806
0.211374
0.0382529
0.211232
0.0411206
0.211265
0.0442935
0.211522
0.0477836
0.212062
0.0516047
0.212957
0.0557722
0.214302
0.060303
0.216218
0.0652144
0.218863
0.0705224
0.222448
0.076239
0.0823653
0.219639
0.219202
0.0301121
0.218834
0.031763
0.218552
0.0336773
0.218381
0.0358522
0.218347
0.0382872
0.218484
0.040983
0.218836
0.0439415
0.219455
0.0471646
0.220406
0.0506539
0.221769
0.0544089
0.223647
0.0584258
0.226166
0.062695
0.229492
0.0671965
0.233837
0.0718936
0.0767209
0.225513
0.225321
0.0319551
0.225235
0.033763
0.225281
0.0358062
0.22549
0.0380784
0.225899
0.0405739
0.226554
0.0432863
0.227511
0.0462078
0.228837
0.0493277
0.230616
0.0526305
0.232948
0.0560935
0.23596
0.0596833
0.239806
0.0633498
0.244682
0.0670182
0.0705769
0.231976
0.232084
0.232343
0.0355471
0.232786
0.0376355
0.233452
0.0399077
0.234388
0.0423499
0.235651
0.0449451
0.237307
0.0476717
0.239436
0.0505013
0.242134
0.0533955
0.245515
0.0563025
0.249714
0.0591511
0.254889
0.0618432
0.0642437
0.239551
0.240215
0.0369714
0.241119
0.0390039
0.242309
0.0411601
0.243839
0.0434152
0.245772
0.0457387
0.248181
0.0480921
0.251151
0.0504261
0.254776
0.0526771
0.259164
0.0547626
0.264432
0.0565756
0.057978
0.24776
0.248878
0.25029
0.0397487
0.252044
0.0416607
0.254198
0.0435847
0.256815
0.0454757
0.259962
0.0472782
0.263716
0.0489236
0.268151
0.0503272
0.273342
0.0513848
0.0519705
0.258308
0.260242
0.262561
0.0412663
0.265314
0.0427225
0.268554
0.0440378
0.272334
0.0451442
0.276699
0.0459619
0.281686
0.0463979
0.0463465
0.270845
0.27367
0.039897
0.276928
0.0407796
0.28065
0.0414224
0.284857
0.0417552
0.289554
0.0417005
0.0411759
0.281887
0.285101
0.288701
0.0378223
0.292688
0.0377682
0.297046
0.0373426
0.0364853
0.296532
0.300262
0.304259
0.0333457
0.0322708
0.311284
)
;

boundaryField
{
    inlet
    {
        type            calculated;
        value           uniform -0.2;
    }
    outlet
    {
        type            calculated;
        value           nonuniform 0();
    }
    flap
    {
        type            calculated;
        value           nonuniform 0();
    }
    upperWall
    {
        type            calculated;
        value           nonuniform 0();
    }
    lowerWall
    {
        type            calculated;
        value           uniform 0;
    }
    frontAndBack
    {
        type            empty;
        value           nonuniform 0();
    }
    procBoundary3to0
    {
        type            processor;
        value           nonuniform List<scalar> 
34
(
0.0231914
0.0230491
-0.205796
0.0241919
-0.210188
0.0255568
-0.214949
0.0270917
-0.22013
0.0287303
-0.225791
0.0303898
-0.231991
0.0319703
0.0336549
-0.239087
0.0350831
-0.246892
0.0361027
0.0378858
-0.25671
0.0381505
0.0397262
-0.268416
0.0388375
-0.279045
0.0370554
0.0375652
-0.293099
0.0343891
0.0340384
-0.307649
0.0297106
0.0285088
)
;
    }
    procBoundary3to1
    {
        type            processor;
        value           nonuniform List<scalar> 9(0.250826 0.261222 0.270698 0.279349 0.28731 0.294725 0.301737 0.308473 0.315046);
    }
    procBoundary3to4
    {
        type            processor;
        value           nonuniform List<scalar> 
19
(
0.111748
0.112416
0.113761
0.115798
0.118553
0.122051
0.126321
0.131385
0.137253
0.14391
0.151304
0.159329
0.167818
0.176534
0.185185
0.201028
0.214343
0.227259
0.239482
)
;
    }
}


// ************************************************************************* //
