/*--------------------------------*- C++ -*----------------------------------*\
| =========                 |                                                 |
| \\      /  F ield         | OpenFOAM: The Open Source CFD Toolbox           |
|  \\    /   O peration     | Version:  dev                                   |
|   \\  /    A nd           | Web:      www.OpenFOAM.org                      |
|    \\/     M anipulation  |                                                 |
\*---------------------------------------------------------------------------*/
FoamFile
{
    version     2.0;
    format      ascii;
    class       volVectorField;
    location    "0";
    object      U;
}
// * * * * * * * * * * * * * * * * * * * * * * * * * * * * * * * * * * * * * //

dimensions      [0 1 -1 0 0 0 0];

internalField   nonuniform List<vector> 
465
(
(9.95318 0 0.0229269)
(9.85968 0 0.0234171)
(9.76553 0 0.024382)
(9.66898 0 0.0258232)
(9.56839 0 0.0277581)
(9.46212 0 0.0302176)
(9.34855 0 0.0332465)
(9.22598 0 0.0369031)
(9.09265 0 0.0412587)
(8.94666 0 0.0463979)
(8.78597 0 0.0524184)
(8.60839 0 0.0594297)
(8.41155 0 0.0675513)
(8.1929 0 0.0769091)
(7.94975 0 0.087629)
(7.67927 0 0.0998283)
(7.37859 0 0.113603)
(7.04486 0 0.129009)
(6.67544 0 0.146042)
(6.26805 0 0.164613)
(5.82099 0 0.184518)
(9.95343 0 0.0686616)
(9.86041 0 0.0701274)
(9.76677 0 0.0730127)
(9.67076 0 0.077322)
(9.57076 0 0.0831065)
(9.46515 0 0.0904594)
(9.35233 0 0.0995137)
(9.23063 0 0.110443)
(9.09829 0 0.123461)
(8.95344 0 0.13882)
(8.79408 0 0.156812)
(8.61804 0 0.177765)
(8.42296 0 0.202039)
(8.20633 0 0.230012)
(7.96545 0 0.262066)
(7.69749 0 0.298559)
(7.39955 0 0.339787)
(7.06873 0 0.385937)
(6.70227 0 0.437014)
(6.29773 0 0.492773)
(5.85323 0 0.552631)
(9.95391 0 0.11404)
(9.86187 0 0.116468)
(9.76923 0 0.121245)
(9.6743 0 0.128379)
(9.57548 0 0.137954)
(9.47119 0 0.150123)
(9.35986 0 0.165106)
(9.23986 0 0.183187)
(9.10949 0 0.204721)
(8.96693 0 0.230123)
(8.81021 0 0.259879)
(8.63723 0 0.294534)
(8.44566 0 0.334686)
(8.23304 0 0.380973)
(7.9967 0 0.434041)
(7.73379 0 0.494507)
(7.44135 0 0.562898)
(7.11639 0 0.639573)
(6.75593 0 0.724608)
(6.35725 0 0.817675)
(5.91803 0 0.917895)
(9.95463 0 0.15883)
(9.86404 0 0.162195)
(9.7729 0 0.168817)
(9.67957 0 0.178705)
(9.58249 0 0.191973)
(9.48016 0 0.208831)
(9.37104 0 0.229581)
(9.25358 0 0.254617)
(9.12614 0 0.284423)
(8.98697 0 0.319579)
(8.83418 0 0.360754)
(8.66573 0 0.40871)
(8.4794 0 0.464284)
(8.27277 0 0.528376)
(8.0432 0 0.601915)
(7.78787 0 0.685804)
(7.50376 0 0.780848)
(7.18769 0 0.887645)
(6.83645 0 1.00644)
(6.44686 0 1.13695)
(6.01601 0 1.27814)
(9.95558 0 0.202803)
(9.8669 0 0.207074)
(9.77773 0 0.215476)
(9.68651 0 0.228019)
(9.59173 0 0.244845)
(9.49197 0 0.266216)
(9.38576 0 0.292512)
(9.27164 0 0.324227)
(9.14805 0 0.361972)
(9.01333 0 0.406478)
(8.8657 0 0.458595)
(8.70323 0 0.519292)
(8.5238 0 0.589646)
(8.32508 0 0.670828)
(8.10452 0 0.764061)
(7.85929 0 0.870571)
(7.58635 0 0.9915)
(7.28235 0 1.12777)
(6.94376 0 1.27994)
(6.56689 0 1.44793)
(6.14802 0 1.6308)
(9.95675 0 0.24574)
(9.87042 0 0.250875)
(9.78369 0 0.260975)
(9.69505 0 0.27605)
(9.6031 0 0.296265)
(9.5065 0 0.321929)
(9.40387 0 0.353491)
(9.29384 0 0.391539)
(9.17496 0 0.436799)
(9.0457 0 0.490144)
(8.90441 0 0.552595)
(8.74928 0 0.62532)
(8.57835 0 0.70963)
(8.38941 0 0.806968)
(8.18001 0 0.91887)
(7.9474 0 1.04692)
(7.68852 0 1.19266)
(7.3999 0 1.35745)
(7.07767 0 1.5423)
(6.71758 0 1.74759)
(6.31503 0 1.97271)
(9.95812 0 0.28743)
(9.87457 0 0.293381)
(9.7907 0 0.305083)
(9.70511 0 0.322542)
(9.61649 0 0.345943)
(9.52359 0 0.375636)
(9.42515 0 0.412132)
(9.31992 0 0.456099)
(9.20657 0 0.508369)
(9.08371 0 0.569943)
(8.94985 0 0.641996)
(8.80335 0 0.725885)
(8.64241 0 0.823146)
(8.46501 0 0.935489)
(8.26886 0 1.06478)
(8.05134 0 1.21297)
(7.80942 0 1.38209)
(7.53959 0 1.57403)
(7.23772 0 1.79043)
(6.899 0 2.03238)
(6.51791 0 2.3)
(9.9597 0 0.327676)
(9.87931 0 0.334387)
(9.7987 0 0.347579)
(9.71658 0 0.367254)
(9.63175 0 0.39361)
(9.54307 0 0.427031)
(9.4494 0 0.468078)
(9.34961 0 0.517491)
(9.24252 0 0.57619)
(9.12692 0 0.645288)
(9.00148 0 0.726099)
(8.86478 0 0.820146)
(8.71521 0 0.929177)
(8.55099 0 1.05516)
(8.37005 0 1.20027)
(8.16998 0 1.36689)
(7.9479 0 1.55753)
(7.70033 0 1.77474)
(7.42304 0 2.02097)
(7.11081 0 2.29828)
(6.75724 0 2.60795)
(9.96145 0 0.366294)
(9.88459 0 0.373702)
(9.80762 0 0.388261)
(9.72937 0 0.409964)
(9.64875 0 0.439018)
(9.56474 0 0.475832)
(9.47634 0 0.521007)
(9.38257 0 0.575338)
(9.28241 0 0.639819)
(9.17483 0 0.715653)
(9.0587 0 0.804272)
(8.93282 0 0.907344)
(8.79586 0 1.0268)
(8.6463 0 1.16484)
(8.48236 0 1.32395)
(8.30194 0 1.50691)
(8.10243 0 1.71676)
(7.88057 0 1.95678)
(7.63222 0 2.23034)
(7.35199 0 2.54076)
(7.0329 0 2.89092)
(9.96337 0 0.403114)
(9.89037 0 0.411152)
(9.81737 0 0.426944)
(9.74333 0 0.450471)
(9.6673 0 0.481945)
(9.58837 0 0.521788)
(9.5057 0 0.570631)
(9.41846 0 0.629308)
(9.3258 0 0.698866)
(9.22688 0 0.78058)
(9.12081 0 0.875968)
(9.00665 0 0.986815)
(8.88334 0 1.1152)
(8.74971 0 1.26352)
(8.60434 0 1.43454)
(8.44553 0 1.63141)
(8.27109 0 1.85768)
(8.07822 0 2.11736)
(7.86311 0 2.41485)
(7.62062 0 2.75491)
(7.34365 0 3.1424)
(9.96543 0 0.437983)
(9.89659 0 0.446579)
(9.82787 0 0.463462)
(9.75835 0 0.488597)
(9.68723 0 0.522193)
(9.61374 0 0.56468)
(9.53718 0 0.616702)
(9.45688 0 0.679116)
(9.37219 0 0.753005)
(9.28247 0 0.839684)
(9.18708 0 0.940732)
(9.08534 0 1.05801)
(8.97654 0 1.19371)
(8.85986 0 1.35037)
(8.73433 0 1.53098)
(8.59876 0 1.73898)
(8.45155 0 1.9784)
(8.29055 0 2.25391)
(8.11268 0 2.57092)
(7.91352 0 2.93568)
(7.68658 0 3.35528)
(9.96763 0 0.470767)
(9.9032 0 0.479846)
(9.83901 0 0.497669)
(9.77429 0 0.524187)
(9.70835 0 0.559596)
(9.64059 0 0.604324)
(9.57046 0 0.659016)
(9.49744 0 0.724534)
(9.42109 0 0.801972)
(9.34098 0 0.892663)
(9.25672 0 0.998208)
(9.16793 0 1.12051)
(9.07424 0 1.2618)
(8.97526 0 1.42473)
(8.87051 0 1.6124)
(8.75938 0 1.82849)
(8.64104 0 2.07735)
(8.51421 0 2.36419)
(8.37691 0 2.69529)
(8.22604 0 3.07825)
(8.0566 0 3.52235)
(9.96993 0 0.501346)
(9.91014 0 0.510831)
(9.8507 0 0.529443)
(9.79099 0 0.557111)
(9.73047 0 0.594016)
(9.66867 0 0.640572)
(9.6052 0 0.697411)
(9.53972 0 0.765386)
(9.47197 0 0.845574)
(9.40175 0 0.939299)
(9.32891 0 1.04815)
(9.25339 0 1.17402)
(9.17518 0 1.31914)
(9.09432 0 1.48618)
(9.01087 0 1.67826)
(8.92491 0 1.89917)
(8.83643 0 2.15342)
(8.74525 0 2.44656)
(8.65083 0 2.78541)
(8.55192 0 3.17858)
(8.44602 0 3.63707)
(9.97233 0 0.529624)
(9.91735 0 0.539437)
(9.86284 0 0.55868)
(9.80832 0 0.587263)
(9.75339 0 0.625344)
(9.69772 0 0.673311)
(9.64108 0 0.731773)
(9.5833 0 0.80155)
(9.5243 0 0.883687)
(9.4641 0 0.979464)
(9.40283 0 1.09042)
(9.34069 0 1.2184)
(9.27806 0 1.36557)
(9.21541 0 1.53452)
(9.15337 0 1.72832)
(9.0927 0 1.95068)
(9.03432 0 2.20609)
(8.97925 0 2.50013)
(8.92861 0 2.83977)
(8.88345 0 3.23401)
(8.84453 0 3.6947)
(9.97479 0 0.55552)
(9.92477 0 0.565582)
(9.87532 0 0.585303)
(9.82612 0 0.614566)
(9.7769 0 0.653502)
(9.72748 0 0.702467)
(9.67776 0 0.762029)
(9.62775 0 0.832963)
(9.57756 0 0.916257)
(9.5274 0 1.01312)
(9.47764 0 1.12501)
(9.4288 0 1.25366)
(9.38159 0 1.40112)
(9.3369 0 1.56983)
(9.2959 0 1.76267)
(9.26006 0 1.98314)
(9.23118 0 2.23548)
(9.21154 0 2.52495)
(9.20393 0 2.8582)
(9.21186 0 3.24385)
(9.23972 0 3.69337)
(9.8883 0 0.609659)
(9.84461 0 0.639376)
(9.80128 0 0.678858)
(9.75827 0 0.728419)
(9.71563 0 0.788574)
(9.67353 0 0.860035)
(9.63224 0 0.943709)
(9.5922 0 1.04071)
(9.55399 0 1.15237)
(9.5184 0 1.28028)
(9.48646 0 1.4263)
(9.45949 0 1.59262)
(9.43913 0 1.78185)
(9.4275 0 1.99709)
(9.42726 0 2.24211)
(9.4418 0 2.52151)
(9.47551 0 2.8411)
(9.53419 0 3.20827)
(9.62561 0 3.63282)
(9.86387 0 0.661779)
(9.82663 0 0.701494)
(9.79023 0 0.751246)
(9.75484 0 0.811485)
(9.72079 0 0.882839)
(9.68853 0 0.966116)
(9.65865 0 1.0623)
(9.63197 0 1.17258)
(9.60952 0 1.29833)
(9.59262 0 1.44117)
(9.58293 0 1.60299)
(9.58254 0 1.78597)
(9.59411 0 1.99271)
(9.621 0 2.22625)
(9.66753 0 2.49027)
(9.73936 0 2.78921)
(9.84403 0 3.12859)
(9.99186 0 3.51529)
(9.85262 0 0.720987)
(9.8229 0 0.770512)
(9.79482 0 0.830309)
(9.76882 0 0.900912)
(9.7455 0 0.983008)
(9.72564 0 1.07743)
(9.71022 0 1.18518)
(9.70048 0 1.30739)
(9.69797 0 1.4454)
(9.70464 0 1.60069)
(9.72292 0 1.77498)
(9.75584 0 1.97021)
(9.80727 0 2.18856)
(9.88214 0 2.43254)
(9.98683 0 2.70495)
(10.1298 0 3.00893)
(10.3225 0 3.34788)
(9.85602 0 0.786009)
(9.8352 0 0.844847)
(9.81716 0 0.914066)
(9.80261 0 0.994216)
(9.79246 0 1.08596)
(9.78785 0 1.19009)
(9.79017 0 1.30747)
(9.80114 0 1.4391)
(9.8229 0 1.58606)
(9.85808 0 1.74949)
(9.90995 0 1.93063)
(9.98257 0 2.13073)
(10.0811 0 2.35101)
(10.2121 0 2.59255)
(10.384 0 2.85604)
(10.6079 0 3.14142)
(9.87564 0 0.854945)
(9.86536 0 0.922173)
(9.85928 0 0.999654)
(9.85841 0 1.08787)
(9.86399 0 1.18738)
(9.87751 0 1.29877)
(9.9008 0 1.42268)
(9.93607 0 1.55973)
(9.98603 0 1.71053)
(10.054 0 1.87558)
(10.1439 0 2.05519)
(10.2609 0 2.24935)
(10.4109 0 2.45752)
(10.6018 0 2.67826)
(10.8429 0 2.90864)
(9.91294 0 0.925173)
(9.91493 0 0.999322)
(9.92278 0 1.08324)
(9.93777 0 1.17724)
(9.96147 0 1.28164)
(9.99571 0 1.39672)
(10.0427 0 1.52266)
(10.105 0 1.65951)
(10.1859 0 1.80711)
(10.2891 0 1.96491)
(10.4189 0 2.13186)
(10.5809 0 2.30607)
(10.7812 0 2.48449)
(11.027 0 2.66226)
(9.98489 0 1.07226)
(10.0084 0 1.16003)
(10.0411 0 1.25664)
(10.0848 0 1.36204)
(10.1415 0 1.47601)
(10.2138 0 1.59811)
(10.3044 0 1.72759)
(10.4166 0 1.8632)
(10.5541 0 2.00308)
(10.7213 0 2.14442)
(10.9228 0 2.28315)
(11.1634 0 2.41347)
(10.0752 0 1.1362)
(10.1157 0 1.22444)
(10.1672 0 1.31961)
(10.2317 0 1.42114)
(10.3113 0 1.52819)
(10.4085 0 1.63953)
(10.5259 0 1.75342)
(10.6665 0 1.86745)
(10.8332 0 1.97831)
(11.0293 0 2.08151)
(11.2574 0 2.17112)
(10.2423 0 1.27053)
(10.3125 0 1.35952)
(10.3971 0 1.45167)
(10.498 0 1.54544)
(10.6172 0 1.63878)
(10.7568 0 1.729)
(10.9188 0 1.81264)
(11.1048 0 1.88528)
(11.3158 0 1.94143)
(10.4711 0 1.37046)
(10.5732 0 1.44769)
(10.6913 0 1.52215)
(10.8268 0 1.59112)
(10.9808 0 1.65127)
(11.1537 0 1.69856)
(11.3453 0 1.72828)
(10.6347 0 1.34839)
(10.7495 0 1.40599)
(10.8787 0 1.45654)
(11.0225 0 1.49702)
(11.1807 0 1.52397)
(11.3523 0 1.53355)
(10.9148 0 1.32727)
(11.0474 0 1.35175)
(11.1904 0 1.36289)
(11.3424 0 1.3577)
(11.1866 0 1.21574)
(11.3203 0 1.2002)
)
;

boundaryField
{
    inlet
    {
        type            fixedValue;
        value           uniform (10 0 0);
    }
    outlet
    {
        type            zeroGradient;
    }
    flap
    {
        type            movingWallVelocity;
        value           nonuniform 0();
    }
    upperWall
    {
        type            noSlip;
    }
    lowerWall
    {
        type            noSlip;
    }
    frontAndBack
    {
        type            empty;
    }
    procBoundary3to0
    {
        type            processor;
        value           nonuniform List<vector> 
34
(
(9.97736 0 0.579375)
(9.93249 0 0.589611)
(9.93249 0 0.589611)
(9.90185 0 0.631837)
(9.90185 0 0.631837)
(9.88365 0 0.681362)
(9.88365 0 0.681362)
(9.87903 0 0.737129)
(9.87903 0 0.737129)
(9.88929 0 0.797569)
(9.88929 0 0.797569)
(9.91574 0 0.860502)
(9.91574 0 0.860502)
(9.95946 0 0.923078)
(9.969 0 0.993307)
(9.969 0 0.993307)
(10.0441 0 1.05524)
(10.0441 0 1.05524)
(10.1376 0 1.10631)
(10.1845 0 1.18584)
(10.1845 0 1.18584)
(10.3096 0 1.21593)
(10.3838 0 1.29263)
(10.3838 0 1.29263)
(10.5336 0 1.28631)
(10.5336 0 1.28631)
(10.6836 0 1.24934)
(10.7934 0 1.29226)
(10.7934 0 1.29226)
(10.9375 0 1.20466)
(11.0584 0 1.2165)
(11.0584 0 1.2165)
(11.1727 0 1.08229)
(11.2897 0 1.05986)
)
;
    }
    procBoundary3to1
    {
        type            processor;
        value           nonuniform List<vector> 9((11.146 0 3.14332) (11.3267 0 2.8319) (11.4479 0 2.52725) (11.5195 0 2.23941) (11.5518 0 1.97442) (11.5543 0 1.73502) (11.5352 0 1.52165) (11.5011 0 1.33324) (11.4573 0 1.16783));
    }
    procBoundary3to4
    {
        type            processor;
        value           nonuniform List<vector> 
19
(
(5.33347 0 0.205414)
(5.36768 0 0.615586)
(5.43666 0 1.02369)
(5.54148 0 1.42803)
(5.6837 0 1.82635)
(5.86524 0 2.21566)
(6.0882 0 2.59195)
(6.35461 0 2.94989)
(6.66592 0 3.28268)
(7.02241 0 3.58187)
(7.42225 0 3.83755)
(7.86056 0 4.03886)
(8.3283 0 4.17518)
(8.81178 0 4.23788)
(9.29303 0 4.2226)
(9.76067 0 4.12804)
(10.1974 0 3.95814)
(10.5808 0 3.72524)
(10.8984 0 3.44711)
)
;
    }
}


// ************************************************************************* //
