/*--------------------------------*- C++ -*----------------------------------*\
| =========                 |                                                 |
| \\      /  F ield         | OpenFOAM: The Open Source CFD Toolbox           |
|  \\    /   O peration     | Version:  dev                                   |
|   \\  /    A nd           | Web:      www.OpenFOAM.org                      |
|    \\/     M anipulation  |                                                 |
\*---------------------------------------------------------------------------*/
FoamFile
{
    version     2.0;
    format      ascii;
    class       surfaceScalarField;
    location    "0.43";
    object      phi;
}
// * * * * * * * * * * * * * * * * * * * * * * * * * * * * * * * * * * * * * //

dimensions      [0 3 -1 0 0 0 0];

internalField   nonuniform List<scalar> 
5457
(
0.198299
0.00169931
0.196305
0.00199371
0.193986
0.00231975
0.191304
0.00268535
0.188255
0.00305324
0.18484
0.00342006
0.181053
0.00379354
0.176879
0.0041805
0.1723
0.00458513
0.167294
0.00501079
0.161838
0.00546054
0.155904
0.00593635
0.149465
0.00643942
0.142494
0.00696996
0.134966
0.00752628
0.126858
0.00810434
0.118156
0.00869712
0.108857
0.00929365
0.0989732
0.00987793
0.0885401
0.0104279
0.0776213
0.010914
0.0663189
0.0112983
0.054784
0.0115317
0.043231
0.0115505
0.0319583
0.011271
0.0213746
0.0105825
0.0120291
0.00934484
0.00463365
0.00739513
3.46201e-05
0.0045989
3.45884e-05
0.199909
0.00178913
0.199127
0.00277478
0.197916
0.00353165
0.196307
0.00429732
0.194296
0.0050687
0.19188
0.00584125
0.189053
0.00662688
0.185801
0.00743823
0.182109
0.00828382
0.177954
0.00917071
0.173314
0.0101053
0.168161
0.0110919
0.162468
0.0121337
0.156205
0.0132314
0.149347
0.0143824
0.141868
0.0155797
0.133749
0.0168104
0.124984
0.0180541
0.115576
0.0192805
0.105551
0.0204471
0.0949631
0.0214973
0.0838989
0.0223584
0.0724881
0.0229391
0.0609085
0.0231275
0.0493874
0.0227904
0.0381913
0.0217774
0.0275886
0.0199468
0.0177768
0.0172066
0.00871878
0.0136567
0.00875334
0.199761
0.00202644
0.199042
0.00349332
0.197901
0.00467386
0.196388
0.0058122
0.19451
0.00695081
0.192263
0.00809354
0.189642
0.00925456
0.186636
0.0104505
0.183232
0.011694
0.179412
0.0129962
0.175155
0.0143665
0.170438
0.0158121
0.165234
0.0173385
0.159517
0.018948
0.153258
0.0206386
0.146432
0.0224028
0.139012
0.0242255
0.130979
0.0260813
0.122323
0.0279313
0.113045
0.0297203
0.103163
0.0313738
0.0927222
0.0327955
0.0817916
0.0338664
0.0704712
0.0344453
0.0588847
0.0343751
0.0471652
0.0334958
0.0354259
0.0316854
0.0237141
0.0289181
0.0119723
0.0253984
0.0207256
0.199677
0.00234764
0.19896
0.00420975
0.197838
0.00579669
0.196349
0.0073032
0.194507
0.00879759
0.192309
0.010297
0.189751
0.0118184
0.186827
0.0133807
0.183527
0.0150009
0.179835
0.0166936
0.175736
0.01847
0.171211
0.0203396
0.16624
0.0223105
0.160801
0.0243866
0.15487
0.0265674
0.148423
0.0288466
0.141434
0.0312098
0.133879
0.0336313
0.125734
0.0360705
0.116981
0.0384683
0.107606
0.0407439
0.0976061
0.0427916
0.086989
0.04448
0.0757778
0.0456539
0.0640096
0.0461415
0.0517356
0.0457685
0.039032
0.0443883
0.0260292
0.0419204
0.0129808
0.0384467
0.0337063
0.199637
0.00270833
0.198913
0.00493302
0.197809
0.00690138
0.196347
0.00876782
0.194539
0.010609
0.192387
0.0124544
0.189886
0.0143252
0.187031
0.0162426
0.183811
0.0182271
0.180214
0.0202959
0.176227
0.0224618
0.171833
0.0247365
0.167015
0.0271299
0.161754
0.0296477
0.156029
0.032291
0.149816
0.0350557
0.143092
0.0379301
0.135827
0.0408914
0.12799
0.0439023
0.119546
0.0469076
0.110455
0.0498295
0.100678
0.0525648
0.0901731
0.0549811
0.0789079
0.0569164
0.0668675
0.0581799
0.0540779
0.0585568
0.040648
0.0578174
0.0268528
0.0557152
0.0132101
0.0520893
0.0469163
0.19962
0.00308605
0.198894
0.0056579
0.197812
0.00798426
0.196383
0.0101982
0.19462
0.0123762
0.192523
0.0145568
0.190088
0.0167659
0.18731
0.0190275
0.184178
0.0213648
0.180683
0.0237968
0.176811
0.0263388
0.172545
0.029005
0.16787
0.0318065
0.162767
0.0347508
0.157215
0.0378415
0.15119
0.041078
0.144664
0.0444524
0.137604
0.0479469
0.12997
0.0515311
0.121715
0.0551585
0.112778
0.0587615
0.103093
0.0622459
0.0925849
0.0654851
0.0811873
0.0683111
0.0688606
0.0705046
0.0556353
0.0717807
0.041685
0.0717669
0.0273912
0.0700085
0.0133727
0.0661076
0.060289
0.199615
0.00346814
0.198896
0.00637627
0.197839
0.00904088
0.196452
0.0115878
0.194741
0.0140909
0.192708
0.0165945
0.19035
0.0191295
0.187661
0.0217229
0.184633
0.0243998
0.181254
0.0271815
0.177511
0.0300864
0.173389
0.0331304
0.168871
0.0363264
0.163938
0.0396844
0.158566
0.0432122
0.152728
0.0469131
0.146394
0.0507838
0.139522
0.0548137
0.132067
0.0589819
0.123967
0.0632537
0.115149
0.067575
0.105526
0.0718648
0.0950032
0.0760043
0.0834924
0.0798191
0.0709417
0.0830531
0.05739
0.085331
0.043044
0.086112
0.0283125
0.0847395
0.0138074
0.0806126
0.0740964
0.199618
0.00384671
0.198913
0.00708056
0.197887
0.0100661
0.196547
0.0129303
0.194896
0.0157449
0.192937
0.0185581
0.190667
0.0214051
0.188081
0.0243158
0.185169
0.0273176
0.181922
0.0304341
0.178327
0.0336863
0.174369
0.0370923
0.17003
0.0406678
0.165289
0.0444262
0.160121
0.0483795
0.154496
0.0525357
0.148379
0.056898
0.141724
0.0614645
0.134476
0.0662253
0.126566
0.0711594
0.117909
0.0762279
0.108405
0.081365
0.0979437
0.0864616
0.0864219
0.0913379
0.0737705
0.0957023
0.0600074
0.0990926
0.0452965
0.100822
0.0300003
0.100035
0.0146886
0.0959241
0.0887849
0.199627
0.00421647
0.198941
0.00776434
0.197952
0.0110546
0.196665
0.0142197
0.195082
0.0173309
0.193206
0.0204387
0.191035
0.0235822
0.188562
0.0267942
0.185782
0.0301041
0.182684
0.0335383
0.179255
0.0371198
0.175482
0.0408696
0.171346
0.0448065
0.166825
0.048948
0.161894
0.0533102
0.156521
0.0579068
0.150668
0.0627489
0.144285
0.067844
0.137312
0.0731945
0.129674
0.0787937
0.121278
0.0846197
0.112015
0.0906239
0.101762
0.0967111
0.090392
0.102705
0.0777974
0.108295
0.0639241
0.112964
0.0488214
0.115924
0.0327351
0.116121
0.0161619
0.112497
0.104947
0.199639
0.00457356
0.198979
0.00842222
0.198032
0.012001
0.196803
0.0154501
0.195295
0.0188415
0.193511
0.0222277
0.191448
0.0256507
0.189101
0.0291462
0.186466
0.0327459
0.183532
0.0364781
0.180288
0.0403685
0.176721
0.0444408
0.172813
0.0487171
0.168544
0.0532188
0.163887
0.0579668
0.158812
0.062981
0.153278
0.0682804
0.147237
0.0738825
0.140626
0.0798021
0.133368
0.086048
0.125367
0.0926164
0.116508
0.0994795
0.106651
0.106564
0.0956371
0.113716
0.0832916
0.120638
0.0694385
0.126816
0.0539422
0.131419
0.0368267
0.133236
0.0184327
0.130891
0.123379
0.199654
0.00491505
0.199024
0.00904969
0.198124
0.0129004
0.196959
0.0166161
0.195533
0.0202703
0.193848
0.0239172
0.191902
0.0276015
0.189693
0.0313612
0.187215
0.0352301
0.18446
0.0392387
0.181419
0.043415
0.178079
0.0477851
0.174424
0.0523744
0.170437
0.0572082
0.166092
0.0623119
0.161361
0.0677114
0.156207
0.0734335
0.150581
0.0795053
0.144427
0.0859539
0.137668
0.0928035
0.130211
0.10007
0.121935
0.107751
0.112688
0.115808
0.102271
0.12413
0.0904244
0.132483
0.0768111
0.140428
0.061025
0.147204
0.0427087
0.151552
0.0218351
0.151764
0.145215
0.199672
0.00523859
0.199075
0.00964295
0.198226
0.0137483
0.19713
0.0177125
0.195792
0.0216111
0.194213
0.0255
0.192394
0.0294259
0.190332
0.0334291
0.188023
0.0375451
0.185461
0.0418063
0.182638
0.0462426
0.179545
0.0508827
0.176168
0.0557545
0.172492
0.0608868
0.168496
0.0663089
0.164155
0.0720523
0.159437
0.0781502
0.154301
0.0846387
0.148697
0.0915559
0.142557
0.0989409
0.135793
0.10683
0.12829
0.115252
0.119884
0.124211
0.110342
0.133669
0.0993199
0.143503
0.0862989
0.153447
0.0705265
0.162976
0.0510404
0.171038
0.0269778
0.175827
0.172192
0.199691
0.00554229
0.199132
0.0101988
0.198338
0.0145408
0.197316
0.0187348
0.19607
0.0228586
0.194604
0.0269696
0.192919
0.0311164
0.191012
0.0353409
0.188883
0.0396803
0.186526
0.0441684
0.183937
0.0488368
0.181109
0.0537159
0.178031
0.0588359
0.174692
0.064228
0.171077
0.069925
0.167167
0.0759623
0.162939
0.0823783
0.15836
0.0892159
0.153391
0.0965226
0.147979
0.10435
0.142051
0.112756
0.135501
0.121798
0.128174
0.131535
0.119822
0.142018
0.110042
0.153282
0.09816
0.165328
0.083053
0.178082
0.062902
0.191188
0.0350902
0.203638
0.207282
0.199712
0.00582461
0.199192
0.0107145
0.198457
0.0152744
0.197512
0.0196789
0.196365
0.024008
0.195017
0.0283206
0.193472
0.0326665
0.191729
0.0370891
0.189788
0.0416268
0.187647
0.0463145
0.185304
0.051185
0.182755
0.0562697
0.179994
0.0616003
0.177016
0.0672096
0.17381
0.0731325
0.170366
0.0794067
0.16667
0.0860741
0.162703
0.0931818
0.158441
0.100783
0.153848
0.108941
0.148875
0.117727
0.143443
0.127228
0.137423
0.137552
0.130597
0.148843
0.122571
0.161306
0.11263
0.175267
0.0994134
0.191299
0.0801846
0.210417
0.0490084
0.234814
0.256291
0.199734
0.00608451
0.199256
0.011188
0.198581
0.0159464
0.197719
0.0205415
0.196673
0.0250555
0.195448
0.0295483
0.194048
0.0340708
0.192474
0.0386675
0.190729
0.0433775
0.188812
0.0482365
0.186725
0.0532775
0.184467
0.0585326
0.182037
0.0640341
0.179434
0.0698153
0.176657
0.0759114
0.173704
0.0823611
0.170571
0.089207
0.167255
0.0964976
0.163748
0.104289
0.160041
0.112647
0.156112
0.121654
0.151927
0.131412
0.147414
0.142063
0.142442
0.153813
0.136755
0.166992
0.12985
0.182172
0.120672
0.200476
0.106676
0.224413
0.0788996
0.262591
0.33519
-0.00582229
0.00582222
-0.0174917
0.0116691
-0.0326165
0.0151239
-0.0498993
0.0172812
-0.0684937
0.0185917
-0.0878448
0.0193474
-0.107552
0.0197025
-0.127293
0.0197347
-0.146779
0.0194793
-0.165728
0.0189416
-0.183849
0.0181133
-0.200834
0.0169779
-0.21635
0.0155092
-0.230038
0.0136824
-0.241523
0.0114788
-0.25042
0.00889301
-0.256357
0.00593447
-0.258981
0.00262159
-0.257954
-0.00102639
-0.252995
-0.00495759
-0.243961
-0.00903101
-0.230824
-0.0131317
-0.213614
-0.0172038
-0.192374
-0.0212328
-0.167118
-0.0252468
-0.137743
-0.0293663
-0.103656
-0.0340757
-0.0627043
-0.0409409
-0.0099466
-0.0527456
-0.0907125
-0.01155
0.0173722
-0.0251736
0.0252924
-0.0408019
0.0307513
-0.05796
0.0344376
-0.076169
0.0367982
-0.0950293
0.0382039
-0.114203
0.0388709
-0.133389
0.0389155
-0.152308
0.0383906
-0.170677
0.0373037
-0.188204
0.0356334
-0.204574
0.0333402
-0.219443
0.0303718
-0.232444
0.0266771
-0.243189
0.0222183
-0.251285
0.0169846
-0.256352
0.0109988
-0.25804
0.00430819
-0.256056
-0.003011
-0.250212
-0.0107997
-0.24043
-0.01881
-0.226693
-0.0268638
-0.209031
-0.0348595
-0.18749
-0.0427665
-0.162097
-0.0506311
-0.132783
-0.0586706
-0.0991605
-0.0676881
-0.0599618
-0.0801284
-0.0115031
-0.101192
-0.149157
-0.0144055
0.0317776
-0.0295863
0.040473
-0.0453527
0.0465168
-0.0618409
0.0509242
-0.0789779
0.0539327
-0.0965884
0.0558108
-0.114458
0.0567353
-0.132355
0.0568071
-0.150038
0.0560663
-0.167246
0.0545053
-0.183701
0.0520804
-0.19909
0.0487223
-0.213072
0.0443476
-0.225276
0.0388752
-0.235308
0.032244
-0.242762
0.0244348
-0.247252
0.015486
-0.248433
0.0054872
-0.246016
-0.00542797
-0.239833
-0.0169812
-0.229832
-0.0288077
-0.216029
-0.0406615
-0.198477
-0.0524056
-0.177241
-0.0639947
-0.152387
-0.0754765
-0.123937
-0.0871114
-0.0917776
-0.0998373
-0.0554861
-0.116409
-0.0140841
-0.142582
-0.189064
-0.0158653
0.0476428
-0.0316922
0.0562996
-0.0471415
0.0619653
-0.0626737
0.0664548
-0.0784926
0.0697491
-0.0946181
0.0719328
-0.110969
0.0730818
-0.127401
0.0732332
-0.143722
0.0723805
-0.159701
0.0704768
-0.175067
0.0674401
-0.189512
0.0631599
-0.202683
0.0575118
-0.214191
0.0503767
-0.223615
0.0416632
-0.230524
0.0313395
-0.234506
0.0194642
-0.235209
0.00618883
-0.23237
-0.00826717
-0.225876
-0.0234739
-0.215734
-0.0389457
-0.202004
-0.0543869
-0.18476
-0.0696441
-0.164087
-0.0846601
-0.140094
-0.0994608
-0.112912
-0.114285
-0.0827117
-0.130027
-0.0498694
-0.14924
-0.0152662
-0.177173
-0.217858
-0.0162057
0.0638485
-0.0317418
0.0718353
-0.0463877
0.0766104
-0.0607336
0.0807992
-0.0751135
0.0841266
-0.0896829
0.0864989
-0.104463
0.0878572
-0.119381
0.0881462
-0.134293
0.0872856
-0.148991
0.0851683
-0.163218
0.0816602
-0.176663
0.0765977
-0.188963
0.0698053
-0.199712
0.0611194
-0.208469
0.0504143
-0.214776
0.0376422
-0.2182
0.0228856
-0.218399
0.00638522
-0.215139
-0.0115264
-0.208383
-0.0302289
-0.198207
-0.0491184
-0.184717
-0.0678725
-0.168005
-0.0863498
-0.148169
-0.104489
-0.125353
-0.122269
-0.0997973
-0.139831
-0.0719205
-0.157894
-0.0426889
-0.17846
-0.0139712
-0.205879
-0.239584
-0.0154546
0.079303
-0.0298615
0.086242
-0.0432468
0.089995
-0.0561866
0.0937375
-0.0690318
0.0969696
-0.0820016
0.0994654
-0.0951787
0.10103
-0.108542
0.101504
-0.121984
0.100722
-0.135328
0.0985052
-0.148328
0.0946529
-0.160677
0.0889405
-0.172014
0.0811353
-0.181922
0.0710214
-0.189946
0.0584322
-0.195606
0.0432975
-0.198444
0.0257205
-0.198116
0.00605617
-0.194441
-0.0152017
-0.187478
-0.0371909
-0.177388
-0.0592053
-0.164322
-0.0809337
-0.14838
-0.102286
-0.12965
-0.123212
-0.108296
-0.143614
-0.0846609
-0.163457
-0.0593395
-0.183205
-0.0336418
-0.204147
-0.00985918
-0.22965
-0.256474
-0.0136893
0.0929922
-0.0262571
0.0988096
-0.037944
0.101681
-0.0492334
0.105026
-0.0604285
0.108163
-0.0717367
0.110771
-0.0832617
0.112551
-0.0950103
0.113247
-0.106909
0.112615
-0.118809
0.110398
-0.13048
0.106318
-0.141631
0.100084
-0.151906
0.0914036
-0.160888
0.0799978
-0.168111
0.0656497
-0.173079
0.0482607
-0.17531
0.0279481
-0.174451
0.00519498
-0.170377
-0.0192755
-0.163281
-0.0442854
-0.153418
-0.0690651
-0.14098
-0.0933679
-0.12605
-0.117211
-0.108688
-0.140567
-0.0890494
-0.163245
-0.0675651
-0.184932
-0.0449355
-0.205825
-0.0226034
-0.226468
-0.00299459
-0.249247
-0.269817
-0.0110752
0.104067
-0.0212181
0.108952
-0.0308113
0.111274
-0.0401842
0.114397
-0.0495595
0.117536
-0.0590985
0.120307
-0.0688886
0.122337
-0.0789455
0.1233
-0.089212
0.122876
-0.0995596
0.120739
-0.109789
0.11654
-0.11963
0.109919
-0.128744
0.100511
-0.136722
0.087969
-0.143088
0.0720105
-0.147332
0.0524999
-0.148956
0.0295691
-0.147578
0.00381507
-0.143139
-0.023715
-0.136005
-0.0514183
-0.126529
-0.0785381
-0.114927
-0.104966
-0.101242
-0.13089
-0.0854843
-0.156318
-0.0677746
-0.180946
-0.0486117
-0.204086
-0.0287382
-0.225688
-0.00958854
-0.245607
0.00637011
-0.265194
-0.280387
-0.00780489
0.111872
-0.0150814
0.116228
-0.0222554
0.118447
-0.0294618
0.121602
-0.0368233
0.124895
-0.0444431
0.127924
-0.0523734
0.130264
-0.0606212
0.131543
-0.0691356
0.131385
-0.0778051
0.129402
-0.086461
0.12519
-0.094867
0.118319
-0.102712
0.10835
-0.109605
0.0948563
-0.115071
0.0774709
-0.118573
0.0559968
-0.119603
0.0305964
-0.117735
0.00194508
-0.112996
-0.0284544
-0.105959
-0.0584544
-0.0970546
-0.0874397
-0.0864969
-0.11552
-0.0742632
-0.143118
-0.0603056
-0.170268
-0.0446907
-0.196554
-0.0279557
-0.220812
-0.01085
-0.242784
0.00510656
-0.261553
0.0179541
-0.27803
-0.288903
-0.00412142
0.115993
-0.00823214
0.120339
-0.0127324
0.122947
-0.0175536
0.126422
-0.0227126
0.130053
-0.0282446
0.133453
-0.03416
0.136176
-0.0404479
0.137826
-0.0470597
0.137991
-0.0538981
0.136235
-0.0608217
0.132107
-0.0676344
0.125125
-0.0740673
0.114776
-0.0797683
0.100551
-0.0842779
0.0819752
-0.087022
0.0587364
-0.0874632
0.0310344
-0.0851536
-0.000366449
-0.0802646
-0.0333439
-0.073541
-0.065177
-0.0654369
-0.0955412
-0.0561313
-0.124821
-0.0455145
-0.153729
-0.0334794
-0.182297
-0.0200874
-0.209938
-0.00580801
-0.235083
0.00837001
-0.256953
0.0212801
-0.274453
0.0316331
-0.288371
-0.295691
-0.000330789
0.116324
-0.00111517
0.121123
-0.00274715
0.124578
-0.00499246
0.128667
-0.00776706
0.132825
-0.0110344
0.136718
-0.0147693
0.139907
-0.0189386
0.141991
-0.0234901
0.142537
-0.0283258
0.141064
-0.0333285
0.137103
-0.0383476
0.130138
-0.0431647
0.119587
-0.047487
0.104868
-0.0509179
0.0854008
-0.0528892
0.0607034
-0.0527826
0.0309245
-0.0501027
-0.00304822
-0.0452974
-0.0381498
-0.039206
-0.0712673
-0.0321973
-0.102548
-0.0243556
-0.132659
-0.0154903
-0.162589
-0.00539258
-0.192388
0.00571709
-0.22104
0.0172965
-0.246654
0.0286058
-0.268253
0.0389902
-0.284827
0.0471739
-0.296544
-0.300855
0.00337025
0.112954
0.00585613
0.118637
0.00715131
0.123282
0.00762198
0.128195
0.00740472
0.133041
0.00657872
0.137541
0.00519404
0.141288
0.00330698
0.143873
0.000976329
0.144862
-0.00170161
0.143736
-0.00460916
0.140005
-0.00761705
0.133139
-0.0105604
0.122524
-0.013221
0.107522
-0.0153266
0.0875013
-0.0165121
0.0618847
-0.0158704
0.0302795
-0.0129238
-0.00599667
-0.00861504
-0.0424591
-0.00350718
-0.0763743
0.00209945
-0.108152
0.00830566
-0.138862
0.0153429
-0.169622
0.0233041
-0.200343
0.0319718
-0.2297
0.0411107
-0.255785
0.0500577
-0.27719
0.0581063
-0.292865
0.0642103
-0.302637
-0.304435
0.00675885
0.106195
0.0123781
0.113017
0.0165976
0.119062
0.0198627
0.124928
0.0223068
0.130595
0.0240136
0.135831
0.0250574
0.140241
0.0255258
0.1434
0.0255098
0.144873
0.0251037
0.144137
0.0244195
0.140683
0.0235823
0.133971
0.0227249
0.123376
0.0220066
0.108235
0.0216504
0.0878525
0.0220975
0.0614335
0.0238593
0.0285146
0.0264834
-0.00862262
0.0294724
-0.0454486
0.0328645
-0.0797654
0.0366057
-0.111891
0.0409552
-0.143207
0.0461176
-0.174779
0.0521182
-0.206338
0.0587667
-0.236342
0.0657377
-0.262747
0.0724489
-0.283892
0.0782654
-0.298672
0.0823616
-0.306722
-0.30644
0.00970322
0.0964916
0.0183064
0.104414
0.0254066
0.111961
0.0315325
0.118801
0.0366969
0.125428
0.0409603
0.131565
0.0444416
0.136756
0.0472682
0.140569
0.0495615
0.142574
0.0514288
0.142264
0.0529858
0.13912
0.0543563
0.132594
0.0556617
0.122065
0.0570378
0.106854
0.058691
0.0861945
0.06086
0.0592604
0.0632673
0.0261044
0.0652758
-0.0106329
0.0669508
-0.0471241
0.068608
-0.0814217
0.0705746
-0.113855
0.0731965
-0.145826
0.0766728
-0.178251
0.0809641
-0.210623
0.0858045
-0.241175
0.0907921
-0.267727
0.0954004
-0.288492
0.099091
-0.302352
0.101243
-0.308862
-0.306869
0.0123955
0.084096
0.0238268
0.0929823
0.0337102
0.102077
0.0427477
0.109762
0.0505639
0.11761
0.0572671
0.124859
0.063066
0.130953
0.0681394
0.135491
0.0726379
0.138071
0.0766847
0.138211
0.0803977
0.135402
0.0838946
0.129092
0.0872853
0.118669
0.0906728
0.103461
0.0941367
0.0827261
0.0975389
0.0558545
0.100332
0.0233088
0.102002
-0.0123049
0.102646
-0.0477685
0.102844
-0.0816192
0.103272
-0.114281
0.104449
-0.146999
0.106561
-0.180358
0.109445
-0.213502
0.112715
-0.244438
0.115907
-0.270911
0.118545
-0.291121
0.12021
-0.304007
0.120473
-0.309114
-0.305733
0.207408
0.00632909
0.206958
0.0116328
0.206325
0.016576
0.205518
0.0213475
0.204544
0.0260311
0.203408
0.0306875
0.202114
0.0353685
0.200667
0.0401193
0.199071
0.0449793
0.197328
0.0499842
0.195444
0.0551671
0.193421
0.0605598
0.191265
0.0661942
0.188981
0.0721028
0.186575
0.0783201
0.184054
0.0848833
0.181428
0.0918334
0.178709
0.0992168
0.17591
0.107087
0.173048
0.115509
0.17014
0.12456
0.167206
0.134344
0.164264
0.145003
0.161333
0.156743
0.158438
0.169885
0.155661
0.184949
0.153346
0.20279
0.153393
0.224365
0.169323
0.246661
0.255613
0.2489
0.212452
0.00655235
0.212041
0.0120379
0.211465
0.0171476
0.210735
0.0220766
0.209856
0.0269103
0.208837
0.0317098
0.207682
0.0365272
0.206398
0.0414077
0.204992
0.0463909
0.203469
0.0515119
0.201839
0.0568031
0.200108
0.0622953
0.198288
0.0680189
0.196389
0.0740046
0.194428
0.0802844
0.192421
0.0868921
0.190391
0.0938646
0.188365
0.101243
0.18638
0.109073
0.184479
0.117409
0.182722
0.126316
0.181188
0.135877
0.179991
0.146198
0.179318
0.157415
0.1795
0.169702
0.181223
0.183225
0.186034
0.197979
0.196783
0.213616
0.214495
0.22895
0.242042
0.228065
0.21762
0.00675162
0.217253
0.0123986
0.216741
0.0176549
0.216095
0.0227206
0.215322
0.0276829
0.214431
0.0326032
0.213429
0.037533
0.212323
0.0425173
0.211124
0.047595
0.209841
0.0528003
0.208485
0.0581642
0.20707
0.0637157
0.205611
0.0694826
0.204126
0.0754928
0.202639
0.0817743
0.201178
0.0883559
0.199776
0.095268
0.198477
0.102543
0.197335
0.110215
0.19642
0.118324
0.195824
0.126911
0.195672
0.136028
0.196144
0.145725
0.197506
0.156052
0.200169
0.167039
0.204735
0.178659
0.211952
0.190762
0.222367
0.2032
0.235434
0.215883
0.225718
0.251758
0.222915
0.00692446
0.222596
0.0127104
0.222155
0.0180916
0.2216
0.023272
0.220943
0.0283396
0.220191
0.0333563
0.219354
0.0383732
0.218442
0.0434339
0.217465
0.0485759
0.216439
0.0538322
0.215376
0.0592318
0.214296
0.064801
0.213219
0.0705646
0.212169
0.0765462
0.211178
0.0827689
0.210282
0.0892551
0.209525
0.0960269
0.208963
0.103106
0.208664
0.110514
0.208717
0.118272
0.209232
0.126397
0.210357
0.134903
0.212285
0.143796
0.21527
0.153067
0.219637
0.162672
0.225766
0.17253
0.234044
0.182483
0.244971
0.192274
0.259341
0.201513
0.207758
0.277301
0.22834
0.00706855
0.228074
0.012969
0.227708
0.0184516
0.227253
0.0237232
0.226719
0.028872
0.226117
0.0339591
0.225456
0.0390358
0.22475
0.0441445
0.22401
0.04932
0.223255
0.0545929
0.222501
0.0599904
0.221771
0.0655356
0.221091
0.0712495
0.220491
0.0771508
0.220007
0.0832567
0.219683
0.0895823
0.219571
0.096141
0.219736
0.102943
0.220255
0.109996
0.221223
0.117304
0.22276
0.124861
0.225009
0.132653
0.228152
0.140654
0.232403
0.148816
0.238017
0.157058
0.245289
0.165258
0.254553
0.173219
0.266217
0.180611
0.280648
0.187082
0.191564
0.296843
0.233897
0.00718178
0.233688
0.0131707
0.233403
0.0187298
0.233055
0.0240676
0.232652
0.0292721
0.232208
0.0344034
0.231733
0.0395116
0.231243
0.044638
0.230752
0.0498149
0.230279
0.0550704
0.229846
0.0604286
0.229478
0.0659089
0.229204
0.0715282
0.229059
0.0773001
0.229084
0.0832355
0.229327
0.0893423
0.229847
0.0956245
0.23071
0.102082
0.231998
0.10871
0.233808
0.115496
0.236253
0.122417
0.239466
0.129441
0.243603
0.136517
0.248844
0.143575
0.255389
0.150514
0.263455
0.157192
0.273253
0.163421
0.284928
0.168936
0.298507
0.173503
0.176685
0.313385
0.23959
0.00726221
0.23944
0.013312
0.239242
0.0189213
0.239006
0.0242991
0.238742
0.0295329
0.238463
0.0346815
0.238183
0.0397928
0.237917
0.0449061
0.237683
0.050052
0.237502
0.055256
0.237396
0.0605386
0.237395
0.0659152
0.23753
0.0713981
0.237839
0.0769958
0.238365
0.0827131
0.23916
0.0885507
0.240283
0.0945047
0.241803
0.100566
0.243797
0.106718
0.246359
0.112936
0.249589
0.119188
0.253606
0.125426
0.258537
0.131588
0.264521
0.137592
0.271701
0.143335
0.28021
0.148684
0.290148
0.153483
0.301543
0.157542
0.314366
0.16068
0.162709
0.328342
0.245422
0.00730817
0.245335
0.0133898
0.245227
0.019022
0.245107
0.0244129
0.244988
0.0296487
0.244882
0.0347866
0.244802
0.0398725
0.244766
0.044943
0.244794
0.0500265
0.244908
0.0551456
0.245133
0.0603175
0.245499
0.0655541
0.246039
0.0708628
0.246792
0.076247
0.247804
0.0817058
0.249125
0.0872335
0.250814
0.0928195
0.252936
0.0984468
0.255564
0.104092
0.258781
0.109722
0.262676
0.115296
0.267343
0.12076
0.272883
0.126049
0.279395
0.131081
0.286971
0.13576
0.295682
0.139974
0.30557
0.143597
0.316621
0.146491
0.32878
0.148522
0.149624
0.341865
0.251395
0.00731827
0.251373
0.0134018
0.251358
0.0190286
0.25136
0.0244049
0.25139
0.0296151
0.25146
0.0347145
0.251585
0.0397463
0.251784
0.0447449
0.252077
0.0497361
0.252486
0.0547393
0.253039
0.0597682
0.253765
0.0648313
0.2547
0.069932
0.255883
0.0750693
0.257356
0.0802371
0.259169
0.0854242
0.261378
0.0906145
0.264042
0.0957861
0.267227
0.10091
0.271002
0.105949
0.275442
0.110859
0.28062
0.115585
0.286608
0.120062
0.293473
0.124217
0.301269
0.127967
0.310026
0.131218
0.319749
0.133875
0.330401
0.13584
0.341901
0.137022
0.137414
0.354111
0.257513
0.00729144
0.257558
0.013346
0.257639
0.0189387
0.257765
0.0242724
0.257946
0.0294294
0.258195
0.0344624
0.258528
0.0394124
0.258962
0.0443109
0.259518
0.0491813
0.26022
0.0540398
0.261094
0.0588969
0.262171
0.0637577
0.263485
0.0686219
0.265073
0.0734847
0.266978
0.0783364
0.269244
0.0831619
0.271922
0.0879409
0.275064
0.0926477
0.278726
0.0972509
0.282966
0.101712
0.28784
0.105987
0.293404
0.110024
0.299705
0.113763
0.306784
0.11714
0.314666
0.120087
0.323354
0.122531
0.332829
0.124401
0.343038
0.125632
0.353897
0.126164
0.126016
0.365295
0.263779
0.00722696
0.263892
0.0132213
0.26407
0.0187508
0.264321
0.0240139
0.264655
0.0290902
0.265084
0.0340298
0.265624
0.0388711
0.266291
0.043643
0.267107
0.0483661
0.268095
0.0530539
0.26928
0.0577139
0.270693
0.062348
0.272365
0.066953
0.274332
0.0715209
0.276633
0.0760391
0.279308
0.0804903
0.282401
0.0848519
0.285956
0.0890966
0.290018
0.0931921
0.294633
0.0971009
0.299842
0.100781
0.305682
0.104186
0.312184
0.107264
0.319365
0.109961
0.32723
0.112224
0.335766
0.113997
0.344937
0.115231
0.354685
0.115884
0.364931
0.11592
0.115367
0.37558
0.270195
0.00712444
0.270377
0.013027
0.270653
0.0184643
0.27103
0.023629
0.271516
0.0285977
0.272124
0.0334179
0.272867
0.0381251
0.273764
0.0427455
0.274832
0.0472974
0.276096
0.0517915
0.277579
0.0562328
0.279309
0.0606205
0.281315
0.0649491
0.283631
0.0692084
0.286289
0.0733837
0.289327
0.0774563
0.292779
0.081403
0.296683
0.0851967
0.301072
0.0888062
0.30598
0.0921964
0.311435
0.0953297
0.317459
0.098165
0.324067
0.100659
0.331262
0.102769
0.339034
0.104454
0.347356
0.105676
0.356189
0.1064
0.365472
0.106602
0.375131
0.106261
0.105414
0.385086
0.276766
0.00698388
0.277017
0.0127633
0.27739
0.0180795
0.277892
0.0231185
0.278529
0.0279538
0.279312
0.0326297
0.280254
0.037179
0.281373
0.0416255
0.282685
0.0459849
0.284211
0.0502656
0.285974
0.0544705
0.288
0.0585968
0.290314
0.0626371
0.292945
0.06658
0.295922
0.0704097
0.299274
0.0741071
0.303031
0.0776492
0.307221
0.0810103
0.311868
0.0841618
0.316996
0.0870723
0.322619
0.0897095
0.328749
0.0920381
0.335388
0.0940231
0.342527
0.0956326
0.350147
0.0968367
0.358216
0.097609
0.366689
0.0979286
0.37551
0.0977819
0.38461
0.0971626
0.0961059
0.393918
0.283495
0.00680562
0.283813
0.0124309
0.284283
0.0175977
0.284907
0.0224848
0.285691
0.0271617
0.286645
0.0316699
0.28778
0.0360395
0.289111
0.0402918
0.290654
0.0444403
0.292428
0.0484914
0.294453
0.0524462
0.296751
0.0563005
0.299344
0.0600458
0.302256
0.0636698
0.305511
0.0671569
0.309133
0.0704883
0.313142
0.0736424
0.31756
0.0765954
0.322402
0.0793217
0.327683
0.0817944
0.333409
0.0839871
0.339579
0.0858709
0.346187
0.0874178
0.353217
0.0886052
0.360644
0.0894126
0.368431
0.0898235
0.376534
0.0898266
0.3849
0.0894172
0.393467
0.0885966
0.0874003
0.402174
0.290385
0.00659035
0.290769
0.0120311
0.291333
0.0170211
0.292076
0.0217308
0.293003
0.0262259
0.294121
0.0305448
0.295441
0.0347149
0.296974
0.0387552
0.298735
0.0426773
0.300739
0.046486
0.303004
0.0501808
0.305549
0.0537568
0.308391
0.0572048
0.311549
0.0605126
0.315043
0.063665
0.318889
0.0666444
0.323103
0.0694311
0.327697
0.072004
0.33268
0.0743409
0.338057
0.07642
0.343827
0.0782197
0.349984
0.0797168
0.356513
0.0808911
0.363394
0.0817272
0.370596
0.0822121
0.378085
0.0823369
0.385815
0.0820975
0.393738
0.0814953
0.401799
0.0805368
0.0792565
0.409944
0.297439
0.00633904
0.297888
0.0115658
0.298543
0.0163526
0.299401
0.0208609
0.300465
0.0251522
0.30174
0.0292619
0.303234
0.0332149
0.304957
0.037028
0.30692
0.040711
0.309137
0.0442675
0.311621
0.0476961
0.314386
0.0509912
0.317447
0.0541438
0.320819
0.057142
0.324513
0.0599716
0.328543
0.0626167
0.332915
0.0650599
0.337638
0.0672831
0.342713
0.0692679
0.348138
0.0709971
0.353907
0.0724533
0.360008
0.0736187
0.366421
0.0744802
0.373122
0.0750281
0.380081
0.0752551
0.387261
0.0751582
0.394622
0.0747383
0.402117
0.0740012
0.409698
0.0729565
0.0716369
0.417318
0.304662
0.00605293
0.305174
0.0110374
0.305915
0.0155958
0.306884
0.01988
0.308078
0.0239471
0.309502
0.0278297
0.311159
0.0315501
0.313059
0.0351232
0.315208
0.0385573
0.317618
0.041855
0.320298
0.0450143
0.323259
0.0480294
0.32651
0.0508917
0.330062
0.0535902
0.333923
0.056112
0.338097
0.0584432
0.342589
0.0605689
0.347399
0.062474
0.352525
0.0641437
0.357958
0.0655651
0.363689
0.0667248
0.3697
0.06761
0.375969
0.0682127
0.382471
0.068528
0.389175
0.0685532
0.396045
0.0682895
0.403043
0.0677413
0.410128
0.0669171
0.417256
0.0658284
0.0645059
0.424388
0.312058
0.00573347
0.312628
0.0104485
0.313454
0.0147547
0.314526
0.0187936
0.315844
0.022618
0.317406
0.0262574
0.319216
0.0297319
0.321279
0.0330545
0.323598
0.0362324
0.326182
0.0392674
0.329037
0.042157
0.332168
0.0448958
0.335583
0.0474758
0.339285
0.049887
0.343279
0.0521183
0.347564
0.0541576
0.352141
0.0559928
0.357004
0.0576115
0.362146
0.0590024
0.367556
0.0601561
0.373219
0.0610633
0.379115
0.0617151
0.385222
0.0621073
0.391513
0.062239
0.397956
0.0621109
0.40452
0.061727
0.411167
0.0610943
0.417862
0.0602227
0.424566
0.0591247
0.0578285
0.431244
0.31963
0.00538224
0.320257
0.00980234
0.321161
0.0138339
0.322332
0.0176077
0.323764
0.0211725
0.325456
0.0245546
0.327407
0.0277718
0.329618
0.0308358
0.332092
0.0337525
0.334832
0.036523
0.33784
0.0391451
0.341119
0.0416136
0.344671
0.0439213
0.348497
0.0460595
0.352595
0.0480187
0.356963
0.0497891
0.361594
0.0513607
0.366481
0.0527242
0.371613
0.0538709
0.376974
0.054795
0.382548
0.05549
0.388314
0.0559504
0.394247
0.0561751
0.400321
0.056166
0.406506
0.0559264
0.412772
0.0554621
0.419085
0.0547815
0.425412
0.0538954
0.431721
0.0528164
0.0515703
0.437979
0.327383
0.0050009
0.328063
0.00910185
0.329041
0.0128378
0.330304
0.0163286
0.331844
0.0196185
0.333656
0.0227309
0.335736
0.0256816
0.338082
0.0284806
0.340695
0.0311329
0.343572
0.0336395
0.346714
0.0359979
0.35012
0.0382037
0.353787
0.0402505
0.357713
0.0421311
0.361892
0.0438376
0.366317
0.045362
0.37098
0.0466966
0.375868
0.0478346
0.380968
0.0487699
0.386263
0.0494992
0.391735
0.0500187
0.39736
0.0503254
0.403115
0.0504206
0.408973
0.050308
0.414907
0.0499925
0.420888
0.0494814
0.426885
0.0487837
0.43287
0.0479101
0.438813
0.0468733
0.0456963
0.444686
0.335321
0.00459106
0.336051
0.00835016
0.337098
0.011771
0.338448
0.0149623
0.340087
0.0179637
0.342009
0.0207958
0.344207
0.0234723
0.346676
0.0260016
0.349412
0.0283882
0.352412
0.0306326
0.355671
0.0327328
0.359185
0.0346847
0.362948
0.036483
0.366953
0.0381218
0.371193
0.0395947
0.375656
0.0408956
0.380331
0.0420188
0.385204
0.0429593
0.390258
0.0437134
0.395476
0.0442798
0.400838
0.0446568
0.406319
0.0448432
0.411898
0.0448419
0.417547
0.044658
0.423242
0.0442974
0.428955
0.0437678
0.434659
0.0430785
0.440328
0.0422399
0.445937
0.0412639
0.0401713
0.451461
0.343448
0.00415424
0.344226
0.00755012
0.345339
0.0106378