/*--------------------------------*- C++ -*----------------------------------*\
| =========                 |                                                 |
| \\      /  F ield         | OpenFOAM: The Open Source CFD Toolbox           |
|  \\    /   O peration     | Version:  dev                                   |
|   \\  /    A nd           | Web:      www.OpenFOAM.org                      |
|    \\/     M anipulation  |                                                 |
\*---------------------------------------------------------------------------*/
FoamFile
{
    version     2.0;
    format      ascii;
    class       surfaceVectorField;
    location    "0.43";
    object      Uf;
}
// * * * * * * * * * * * * * * * * * * * * * * * * * * * * * * * * * * * * * //

dimensions      [0 1 -1 0 0 0 0];

internalField   nonuniform List<vector> 
5457
(
(9.91717 -1.7138e-22 0.023797)
(9.96308 1.76294e-22 0.0388018)
(9.82013 -2.80559e-22 0.0311457)
(9.92327 -3.55563e-22 0.0467065)
(9.70703 1.07782e-22 0.0372619)
(9.85564 -5.51506e-22 0.0559931)
(9.57582 3.73182e-22 0.0435363)
(9.76051 4.73035e-22 0.0668072)
(9.42635 5.1831e-23 0.0500333)
(9.64492 -1.22521e-23 0.0782518)
(9.25867 9.20711e-22 0.056813)
(9.51138 1.25676e-25 0.0902537)
(9.07243 1.76907e-22 0.0640205)
(9.35924 4.27548e-21 0.103039)
(8.86696 -6.50846e-22 0.0718022)
(9.1874 -4.38846e-21 0.116837)
(8.64136 0 0.0802874)
(8.99495 0 0.131838)
(8.39456 0 0.0895997)
(8.78096 0 0.14822)
(8.12532 5.41089e-22 0.0998639)
(8.54436 -7.15672e-21 0.166161)
(7.83229 5.2664e-22 0.111207)
(8.28388 7.33321e-21 0.185836)
(7.51404 -4.84766e-21 0.123752)
(7.9981 0 0.207408)
(7.16913 1.52736e-21 0.137619)
(7.68558 1.41436e-20 0.23102)
(6.79615 6.08009e-21 0.152906)
(7.34484 -1.69678e-20 0.256771)
(6.39385 0 0.169681)
(6.9745 -2.09787e-20 0.284696)
(5.9613 -1.19837e-20 0.18795)
(6.57336 2.15779e-20 0.314719)
(5.49808 6.55383e-22 0.207621)
(6.14061 -1.18231e-20 0.346598)
(5.00453 5.43203e-21 0.228466)
(5.67598 5.52258e-20 0.379863)
(4.48205 -3.4486e-20 0.250042)
(5.18006 -1.02465e-19 0.413747)
(3.93352 9.36214e-21 0.271589)
(4.65463 1.34384e-19 0.447066)
(3.36374 5.55358e-21 0.291852)
(4.10303 1.41602e-19 0.47809)
(2.78004 -2.96764e-20 0.3088)
(3.53058 -4.49177e-20 0.50435)
(2.19311 6.77315e-20 0.31917)
(2.94518 0 0.52233)
(1.61813 -3.47061e-21 0.317914)
(2.35779 6.685e-20 0.526968)
(1.07641 -6.81164e-20 0.298046)
(1.78321 -3.41215e-19 0.511022)
(0.597141 1.49292e-19 0.252011)
(1.24094 5.62232e-19 0.464649)
(0.218797 -5.3104e-21 0.176862)
(0.756236 -4.32328e-19 0.37563)
(-0.0118523 1.72921e-19 0.064746)
(0.353094 1.46807e-19 0.231904)
(0.166661 3.90641e-19 -0.0124235)
(9.99767 -2.61318e-23 0.049587)
(9.99039 3.47105e-22 0.0398917)
(9.96127 -6.29041e-22 0.0673924)
(9.97608 -5.33012e-22 0.0642306)
(9.90356 -1.74861e-22 0.0831375)
(9.93764 -9.21669e-23 0.0845625)
(9.82602 8.0843e-23 0.0997343)
(9.8725 2.34645e-25 0.106287)
(9.72846 -6.37397e-23 0.117292)
(9.78646 2.44121e-23 0.129331)
(9.61075 3.41374e-21 0.135884)
(9.68211 -5.09533e-23 0.153612)
(9.47258 -4.12986e-22 0.155809)
(9.55907 3.41709e-21 0.179489)
(9.31333 -3.67787e-21 0.177385)
(9.41636 -3.72875e-21 0.207395)
(9.13218 0 0.200897)
(9.25318 7.41541e-21 0.237712)
(8.92808 -7.25379e-21 0.226616)
(9.06871 1.44124e-22 0.270804)
(8.69983 -1.65647e-22 0.254808)
(8.86199 -3.23619e-20 0.307033)
(8.44611 6.70646e-21 0.28573)
(8.63184 2.45232e-20 0.346762)
(8.16547 1.91829e-20 0.319614)
(8.37694 2.2029e-21 0.390335)
(7.85642 -4.77467e-21 0.356647)
(8.0959 1.57776e-22 0.438056)
(7.51748 -4.40893e-20 0.396935)
(7.78726 -1.41148e-21 0.490154)
(7.14729 1.15157e-21 0.440458)
(7.44959 -6.24996e-20 0.54673)
(6.74474 2.12859e-20 0.486996)
(7.08159 1.07936e-19 0.607683)
(6.30917 4.36281e-20 0.536033)
(6.6822 -4.49122e-20 0.672593)
(5.8406 -5.45715e-20 0.586667)
(6.25074 -4.76894e-20 0.740596)
(5.34004 6.95328e-20 0.63747)
(5.78724 -8.86727e-21 0.810235)
(4.80985 2.66915e-19 0.686316)
(5.29266 1.62116e-19 0.879251)
(4.25416 8.86525e-20 0.730174)
(4.76923 1.05117e-19 0.94434)
(3.67928 -1.46386e-20 0.764833)
(4.22075 -1.07775e-22 1.00087)
(3.09405 0 0.784537)
(3.65296 -2.4598e-19 1.04255)
(2.50996 -2.75602e-19 0.781598)
(3.07355 5.10043e-19 1.06098)
(1.94069 2.99204e-19 0.746377)
(2.49184 -5.36472e-19 1.04543)
(1.40067 -2.94257e-20 0.668409)
(1.91801 1.11527e-18 0.983453)
(0.90156 -2.75041e-19 0.540602)
(1.36223 -1.14773e-18 0.863252)
(0.443242 3.70237e-19 0.355818)
(0.819877 -2.92941e-19 0.681734)
(0.415531 5.44167e-19 0.424611)
(9.99027 -1.79392e-22 0.0571511)
(9.98807 0 0.0444498)
(9.95694 1.10203e-23 0.0845536)
(9.97115 1.77853e-22 0.0802741)
(9.90266 8.45252e-23 0.110505)
(9.93364 -1.28079e-21 0.111441)
(9.8299 -5.60188e-23 0.1379)
(9.8714 1.21964e-21 0.143337)
(9.73891 3.61727e-23 0.167047)
(9.78918 1.22349e-23 0.17697)
(9.62955 0 0.198096)
(9.6896 0 0.212478)
(9.50157 0 0.231452)
(9.57253 -4.20176e-22 0.250306)
(9.3545 7.5165e-21 0.267582)
(9.43718 0 0.291031)
(9.1877 7.4563e-21 0.306938)
(9.28289 6.50383e-21 0.335207)
(9.00029 -2.54072e-20 0.349964)
(9.10906 1.44135e-22 0.383368)
(8.79127 -6.89443e-21 0.397103)
(8.9149 -4.13412e-20 0.43605)
(8.55947 1.9717e-20 0.448791)
(8.69947 3.42799e-20 0.49379)
(8.30363 -1.68511e-20 0.505436)
(8.46171 2.19027e-21 0.557114)
(8.02235 3.4889e-21 0.567376)
(8.20044 -2.33553e-20 0.6265)
(7.71422 -2.06518e-20 0.634832)
(7.91441 2.17231e-20 0.702333)
(7.37786 4.65207e-20 0.707828)
(7.60236 -8.2578e-20 0.784838)
(7.01197 3.97425e-20 0.786086)
(7.26306 3.16211e-20 0.873979)
(6.61552 -1.36322e-19 0.868863)
(6.89534 -4.69947e-20 0.969318)
(6.18785 -1.61315e-21 0.954792)
(6.49822 2.36513e-21 1.06981)
(5.72901 8.58639e-20 1.04167)
(6.07108 1.99576e-19 1.17357)
(5.23992 0 1.12618)
(5.61381 -1.02879e-19 1.27767)
(4.72272 1.48123e-20 1.20365)
(5.12704 -2.71203e-20 1.37774)
(4.18097 -2.34735e-19 1.26773)
(4.61226 1.46218e-20 1.46768)
(3.61971 2.72689e-19 1.31017)
(4.07202 -2.75736e-19 1.53946)
(3.04497 2.37195e-19 1.32075)
(3.50977 4.47873e-19 1.58291)
(2.4628 2.9773e-19 1.28801)
(2.92918 1.93865e-19 1.58604)
(1.87746 -2.53785e-20 1.2015)
(2.33332 -5.21477e-20 1.53658)
(1.28887 -1.15561e-18 1.05816)
(1.72492 -1.05961e-18 1.42557)
(0.687489 -1.46018e-19 0.86366)
(1.08906 -5.89279e-19 1.25818)
(0.551306 1.13659e-18 1.03418)
(9.98606 3.59344e-22 0.0680698)
(9.98679 -6.88378e-22 0.0509806)
(9.95281 -1.13487e-21 0.106499)
(9.96811 1.06021e-21 0.0962806)
(9.89947 -1.15132e-22 0.143473)
(9.93047 -1.46379e-21 0.137857)
(9.82787 1.27116e-21 0.181603)
(9.86936 -1.51543e-21 0.179798)
(9.73863 -2.40813e-23 0.221668)
(9.78879 2.97478e-21 0.223701)
(9.63171 -4.25952e-22 0.264094)
(9.69129 0 0.270042)
(9.50692 -4.14456e-22 0.30945)
(9.57687 -6.39084e-25 0.319364)
(9.36395 -9.24509e-22 0.358374)
(9.44488 1.40636e-20 0.372346)
(9.20234 -8.9979e-22 0.411495)
(9.29479 -1.44265e-20 0.429678)
(9.02146 -1.6354e-20 0.469433)
(9.12612 0 0.492034)
(8.82054 8.66138e-22 0.532811)
(8.93827 -1.61377e-20 0.560087)
(8.59872 1.63229e-20 0.602247)
(8.73053 5.21449e-20 0.634518)
(8.35504 -4.65508e-21 0.678329)
(8.50206 -3.22449e-20 0.715996)
(8.08845 -4.52102e-21 0.761574)
(8.25197 -3.68295e-20 0.805147)
(7.79784 -4.16044e-20 0.852363)
(7.9793 3.77634e-20 0.902498)
(7.4821 -9.60359e-20 0.950855)
(7.68305 -5.10293e-20 1.00841)
(7.14009 -5.62402e-20 1.05686)
(7.36219 -4.42078e-20 1.12296)
(6.77075 9.22234e-20 1.16963)
(7.0157 9.81743e-20 1.2458)
(6.37312 2.05966e-19 1.28765)
(6.64252 9.52467e-20 1.3759)
(5.94652 7.04504e-21 1.40836)
(6.24165 1.6401e-20 1.5113)
(5.49062 -1.29038e-19 1.52784)
(5.8122 1.28245e-19 1.64879)
(5.00557 -2.67787e-20 1.64047)
(5.35342 2.1112e-19 1.78356)
(4.49208 -3.01004e-20 1.73869)
(4.86472 2.77359e-20 1.90888)
(3.95133 -9.22151e-20 1.81288)
(4.3457 -4.32765e-22 2.01586)
(3.38457 4.01579e-19 1.85161)
(3.79611 5.94732e-20 2.0936)
(2.79233 -1.56939e-19 1.8428)
(3.21534 4.58205e-19 2.12969)
(2.17375 -1.09524e-18 1.77651)
(2.60205 -5.38432e-19 2.11199)
(1.52665 -4.89924e-19 1.65161)
(1.95668 -5.5939e-19 2.03233)
(0.847782 6.53745e-19 1.47619)
(1.26361 5.67199e-19 1.89717)
(0.647203 8.49788e-20 1.70504)
(9.98406 5.58976e-23 0.0797909)
(9.98617 -4.37432e-24 0.0584482)
(9.95044 6.95709e-22 0.127859)
(9.96662 7.05683e-22 0.112469)
(9.89796 -2.86931e-21 0.174677)
(9.92904 0 0.163844)
(9.82766 2.43118e-22 0.222654)
(9.86909 -2.82979e-21 0.215607)
(9.74017 2.95794e-21 0.27295)
(9.79034 9.32191e-21 0.269521)
(9.63554 4.25421e-22 0.326242)
(9.69513 -6.43569e-21 0.326378)
(9.51361 1.46697e-20 0.383217)
(9.5835 8.35261e-22 0.386847)
(9.37412 1.66945e-22 0.444612)
(9.4549 1.4065e-20 0.451699)
(9.21668 -1.33327e-20 0.511168)
(9.30883 -2.89786e-20 0.521732)
(9.04076 0 0.583619)
(9.14489 1.68078e-20 0.597737)
(8.84576 3.6066e-20 0.6627)
(8.96259 1.95781e-21 0.680501)
(8.63097 2.44331e-21 0.749146)
(8.76131 3.14871e-20 0.770818)
(8.39565 -6.44882e-20 0.843662)
(8.54037 -3.65532e-20 0.869472)
(8.13898 6.43564e-21 0.946887)
(8.29904 -3.22565e-20 0.977205)
(7.86009 2.71688e-20 1.05932)
(8.03652 3.77744e-20 1.09466)
(7.55809 8.59153e-22 1.18126)
(7.75198 -8.97159e-20 1.22232)
(7.23204 1.12e-19 1.31262)
(7.44452 9.24299e-20 1.3604)
(6.88095 1.01151e-19 1.45278)
(7.11322 8.93831e-20 1.5087)
(6.50373 -9.52475e-20 1.60029)
(6.75697 2.04461e-21 1.66633)
(6.09923 1.39244e-19 1.75258)
(6.37452 -9.62024e-20 1.83148)
(5.66621 4.70032e-19 1.90562)
(5.9644 4.97171e-21 2.00106)
(5.20327 2.63444e-19 2.05355)
(5.52485 2.12525e-19 2.17033)
(4.70884 5.70945e-20 2.18842)
(5.05364 3.60407e-22 2.33252)
(4.18111 1.52094e-19 2.30015)
(4.54811 4.87595e-19 2.47863)
(3.61787 1.21061e-19 2.37688)
(4.00523 -4.3761e-19 2.59755)
(3.01639 6.75043e-20 2.40612)
(3.42157 6.25781e-20 2.67648)
(2.37388 -3.69388e-21 2.37737)
(2.79343 5.82955e-19 2.70252)
(1.68959 5.06038e-19 2.28797)
(2.1212 -1.10443e-18 2.66568)
(0.968354 -9.96479e-21 2.14169)
(1.39236 1.12282e-18 2.56813)
(0.725311 -5.73338e-19 2.39866)
(9.98318 6.74809e-22 0.0918472)
(9.98591 2.72257e-25 0.0663303)
(9.94943 0 0.148959)
(9.9661 -3.50483e-21 0.12872)
(9.898 0 0.205309)
(9.92896 -1.39937e-23 0.189318)
(9.82936 6.41042e-21 0.26306)
(9.87042 2.96784e-21 0.250572)
(9.74405 -2.8939e-22 0.32352)
(9.79382 1.2707e-20 0.314209)
(9.64216 -5.92671e-21 0.387534)
(9.70133 -1.27362e-20 0.381247)
(9.52357 4.09942e-22 0.455887)
(9.59299 5.11163e-25 0.452499)
(9.38802 -1.56726e-20 0.529406)
(9.46828 0 0.528825)
(9.23517 1.78513e-21 0.608933)
(9.3268 -2.90119e-20 0.611118)
(9.06457 1.85685e-20 0.69531)
(9.16815 -3.72866e-22 0.70027)
(8.87568 -2.22879e-21 0.789382)
(8.99191 3.08725e-20 0.797174)
(8.66789 -8.4209e-21 0.891989)
(8.79753 -2.06661e-21 0.902724)
(8.44053 -4.25517e-21 1.00395)
(8.5844 -4.3127e-21 1.0178)
(8.1929 0 1.12602)
(8.35183 -7.17458e-20 1.14326)
(7.92423 -8.08075e-20 1.2588)
(8.09911 -1.53838e-21 1.27986)
(7.63369 4.1691e-21 1.40273)
(7.82543 -7.16399e-20 1.4282)
(7.32041 6.97854e-20 1.55788)
(7.52989 2.44528e-19 1.58863)
(6.98336 -1.07646e-20 1.72381)
(7.21153 -1.05637e-19 1.76116)
(6.62128 0 1.89928)
(6.86911 0 1.94515)
(6.23264 -2.29211e-19 2.08197)
(6.50107 0 2.13907)
(5.81549 -2.50083e-19 2.26813)
(6.10545 -2.26468e-19 2.34022)
(5.36727 -5.32852e-20 2.45212)
(5.67968 -3.06424e-22 2.54432)
(4.8847 4.3652e-19 2.62618)
(5.22024 -2.74244e-20 2.74503)
(4.36381 -1.11629e-19 2.78027)
(4.72277 4.31215e-19 2.93369)
(3.80007 -4.90961e-19 2.90228)
(4.18222 -5.02349e-19 3.09919)
(3.18891 5.83198e-19 2.97885)
(3.59323 5.14341e-19 3.22818)
(2.52707 -5.30439e-19 2.99746)
(2.95075 -4.79975e-19 3.30608)
(1.81561 -4.67163e-19 2.95115)
(2.25532 -4.54247e-20 3.31921)
(1.06478 5.65076e-19 2.83441)
(1.49829 1.37946e-20 3.26237)
(0.793068 4.66143e-21 3.10908)
(9.98292 -4.22691e-21 0.103997)
(9.98584 -6.83882e-22 0.0743342)
(9.94944 -3.44767e-21 0.169746)
(9.96621 -2.80655e-21 0.144843)
(9.89926 2.98869e-21 0.235224)
(9.92989 -2.89196e-21 0.214175)
(9.83261 9.39949e-21 0.302408)
(9.87303 5.91993e-21 0.28453)
(9.74988 -9.08339e-23 0.372661)
(9.79891 6.19267e-21 0.357552)
(9.6512 -6.63501e-21 0.446974)
(9.70955 -6.30055e-21 0.434399)
(9.53648 -4.0942e-22 0.526248)
(9.60499 -4.15066e-22 0.516023)
(9.40549 -1.37305e-20 0.611406)
(9.48477 -4.25316e-22 0.603375)
(9.25793 -3.07763e-20 0.703389)
(9.34851 7.65126e-22 0.697436)
(9.09338 1.23547e-20 0.803138)
(9.19589 -3.18538e-20 0.799195)
(8.91135 3.06019e-20 0.911597)
(9.02649 2.89212e-20 0.909642)
(8.71129 2.01279e-21 1.02971)
(8.83983 2.0399e-21 1.02977)
(8.49257 -7.26964e-20 1.15839)
(8.63532 0 1.16056)
(8.2545 -7.24035e-20 1.2985)
(8.41232 -6.74242e-20 1.30297)
(7.99634 6.69059e-21 1.45079)
(8.1701 -6.07507e-21 1.4579)
(7.71721 1.72729e-19 1.61581)
(7.90784 8.14188e-21 1.62609)
(7.41613 6.47015e-20 1.79383)
(7.62453 1.72588e-19 1.80807)
(7.09194 -9.35678e-20 1.98466)
(7.31905 -8.43002e-20 2.00408)
(6.74312 0 2.18738)
(6.98996 1.75452e-19 2.21381)
(6.3677 0 2.40011)
(6.63533 -1.79575e-19 2.43618)
(5.96309 2.58819e-20 2.61963)
(6.25263 0 2.66902)
(5.52577 2.52838e-20 2.84095)
(5.83853 2.24235e-19 2.9088)
(5.05113 -2.76115e-20 3.05686)
(5.38848 2.10149e-19 3.15)
(4.53353 3.10146e-20 3.25762)
(4.89672 -4.50094e-19 3.38457)
(3.96676 5.13783e-19 3.43087)
(4.35652 2.94666e-20 3.60162)
(3.34488 -5.57556e-19 3.56192)
(3.76079 4.81494e-19 3.78712)
(2.66418 9.88935e-21 3.63512)
(3.10308 -5.12873e-19 3.92423)
(1.92681 4.34312e-19 3.63734)
(2.38335 -5.75419e-21 3.99447)
(1.14545 -5.46188e-19 3.55013)
(1.59544 -1.68941e-20 3.98373)
(0.854239 -5.56443e-19 3.84551)
(9.98304 7.07889e-22 0.116042)
(9.98589 1.35203e-21 0.0822799)
(9.9502 -2.22999e-21 0.190073)
(9.96676 -2.06909e-21 0.160662)
(9.90152 1.48009e-22 0.264255)
(9.93159 -2.16703e-21 0.238295)
(9.83715 2.71668e-21 0.340481)
(9.8767 -2.9572e-21 0.317331)
(9.7574 -1.892e-22 0.420138)
(9.80537 5.86698e-21 0.399346)
(9.66238 0 0.504335)
(9.71954 -1.96084e-22 0.485589)
(9.55206 -4.31089e-22 0.594081)
(9.61925 0 0.577127)
(9.42624 1.40879e-20 0.69039)
(9.50407 -6.40151e-25 0.675004)
(9.28465 -7.42924e-22 0.794292)
(9.37367 1.45137e-22 0.780286)
(9.12692 -1.4475e-20 0.906821)
(9.22777 1.66557e-21 0.89405)
(8.95261 0 1.02902)
(9.06603 3.06972e-20 1.01738)
(8.76118 0 1.16192)
(8.88796 -1.42549e-21 1.15137)
(8.55205 4.40322e-21 1.30657)
(8.69305 -6.19646e-20 1.29711)
(8.32453 -3.04502e-22 1.46394)
(8.48064 3.41328e-20 1.45567)
(8.07784 -4.47916e-21 1.63493)
(8.25 -2.07366e-23 1.6281)
(7.81102 1.00122e-20 1.82028)
(8.00028 4.63901e-21 1.81534)
(7.52293 2.03796e-20 2.02048)
(7.73034 8.84563e-20 2.01813)
(7.21219 1.88024e-19 2.23566)
(7.43887 -7.00453e-20 2.237)
(6.87695 -8.28085e-21 2.46536)
(7.12418 1.75573e-19 2.47206)
(6.51475 -1.77515e-19 2.70823)
(6.78394 -3.57482e-19 2.7228)
(6.1223 2.01023e-19 2.96182)
(6.41504 3.66596e-19 2.98779)
(5.69522 4.09219e-19 3.22205)
(6.01332 5.7983e-19 3.26441)
(5.22775 -2.19306e-19 3.48259)
(5.57333 1.39823e-20 3.54825)
(4.71279 -4.46775e-19 3.73429)
(5.08802 -3.97131e-19 3.83226)
(4.14241 1.73432e-21 3.96465)
(4.54885 -2.80634e-20 4.10607)
(3.50895 5.17804e-19 4.15749)
(3.94666 3.60102e-20 4.35522)
(2.80744 -5.24587e-19 4.29331)
(3.27274 2.01274e-20 4.56045)
(2.03971 -4.55022e-19 4.35168)
(2.52496 -5.06765e-19 4.69777)
(1.21893 -3.36589e-20 4.29818)
(1.69669 5.21701e-19 4.7431)
(0.913172 -5.43303e-19 4.62493)
(9.98342 -1.50839e-21 0.127832)
(9.98602 -1.33138e-21 0.0900475)
(9.95152 -2.00752e-21 0.209799)
(9.96763 1.36477e-21 0.176028)
(9.9046 -5.29069e-21 0.292264)
(9.93391 -2.8426e-21 0.261551)
(9.8428 3.02778e-22 0.377113)
(9.88127 -2.26642e-21 0.348829)
(9.76638 5.77743e-21 0.46575)
(9.81303 6.05944e-21 0.439404)
(9.67546 -1.93435e-22 0.559374)
(9.73111 -1.99001e-25 0.534583)
(9.57004 4.30376e-22 0.659091)
(9.63553 1.30159e-20 0.635532)
(9.44996 -1.39434e-20 0.766)
(9.5259 -2.59935e-20 0.743383)
(9.315 2.57121e-21 0.881215)
(9.40196 -3.45848e-22 0.859281)
(9.16484 4.72278e-20 1.00586)
(9.26347 1.45237e-20 0.984387)
(8.99907 2.88569e-20 1.14108)
(9.11013 3.0705e-20 1.11988)
(8.81722 -6.418e-20 1.288)
(8.94154 3.20477e-20 1.26694)
(8.61871 -3.1013e-20 1.44779)
(8.75718 -9.83208e-20 1.42678)
(8.40286 3.39873e-20 1.62156)
(8.55645 2.97986e-20 1.60061)
(8.16886 9.15812e-21 1.8104)
(8.33862 4.51741e-21 1.78963)
(7.91569 8.41523e-20 2.01526)
(8.10279 2.39802e-23 1.99499)
(7.64207 -3.8639e-21 2.23694)
(7.84778 1.50569e-19 2.21773)
(7.34636 -7.95874e-20 2.47595)
(7.5721 -1.59134e-19 2.45872)
(7.0264 -1.79948e-19 2.73237)
(7.27381 0 2.71858)
(6.67924 1.95102e-19 3.00561)
(6.95025 -3.39581e-19 2.99751)
(6.30089 7.4819e-19 3.2941)
(6.59776 5.53737e-19 3.295)
(5.88609 1.78428e-19 3.59492)
(6.21145 7.37382e-19 3.60953)
(5.42799 -1.68029e-19 3.90299)
(5.78494 -3.97171e-19 3.93808)
(4.9179 2.57446e-20 4.21019)
(5.30977 2.60343e-20 4.27512)
(4.34574 6.88585e-21 4.50434)
(4.77535 -3.12363e-21 4.61149)
(3.70117 -4.62374e-19 4.76805)
(4.16961 9.35339e-22 4.93295)
(2.9763 3.36896e-20 4.97775)
(3.48003 -4.64212e-19 5.21834)
(2.17055 4.81553e-19 5.10482)
(2.70004 2.72795e-20 5.4379)
(1.29563 -2.58841e-22 5.0956)
(1.81755 9.57066e-19 5.55632)
(0.976669 -5.21917e-19 5.47076)
(9.98399 1.57791e-21 0.139248)
(9.98621 -2.67527e-21 0.0975516)
(9.95329 4.70556e-22 0.228795)
(9.96875 5.50124e-21 0.190816)
(9.90836 1.81913e-22 0.319117)
(9.93672 -7.7687e-21 0.283819)
(9.84942 3.59339e-21 0.41214)
(9.88661 -3.63267e-21 0.378883)
(9.77666 1.98549e-22 0.509292)
(9.82175 5.2245e-21 0.477548)
(9.69024 1.33861e-20 0.611841)
(9.74408 1.26468e-20 0.581166)
(9.59018 -1.39373e-20 0.720977)
(9.65362 4.62197e-22 0.690982)
(9.47638 -1.20532e-20 0.837881)
(9.55002 -2.68395e-20 0.808208)
(9.34866 1.1808e-20 0.963745)
(9.43308 1.38314e-20 0.934063)
(9.20677 -1.79186e-21 1.09978)
(9.30263 2.69426e-20 1.06978)
(9.05034 3.39121e-20 1.24721)
(9.15842 -2.94321e-20 1.21664)
(8.87897 -3.75046e-21 1.4073)
(9.00011 3.15724e-20 1.3759)
(8.6921 -3.58771e-20 1.5813)
(8.82725 -3.6346e-20 1.5489)
(8.4891 0 1.77052)
(8.63929 -6.28184e-20 1.73699)
(8.26914 -4.67368e-21 1.97621)
(8.43553 6.84296e-20 1.94153)
(8.03118 6.83032e-20 2.19962)
(8.21507 -7.67883e-20 2.16393)
(7.77385 -8.35504e-21 2.44186)
(7.97675 1.41044e-19 2.40552)
(7.49534 -7.76412e-20 2.70393)
(7.71897 -2.3386e-19 2.66761)
(7.19321 -1.63616e-19 2.98657)
(7.43965 1.58523e-19 2.95141)
(6.86414 2.90334e-20 3.29007)
(7.1359 -1.67173e-19 3.25791)
(6.50359 5.44978e-19 3.61398)
(6.80373 1.81411e-19 3.58768)
(6.10545 1.49408e-19 3.9568)
(6.43767 3.67553e-19 3.94062)
(5.66168 -1.98558e-19 4.31515)
(6.03043 -1.8925e-19 4.31545)
(5.16178 -3.15886e-21 4.68266)
(5.57213 -1.88493e-19 4.70884)
(4.59289 -9.06692e-21 5.04842)
(5.04981 5.82399e-19 5.11388)
(3.9406 -5.84304e-21 5.39478)
(4.44754 -4.04237e-19 5.51796)
(3.19151 -4.66829e-19 5.69479)
(3.74679 -4.20231e-19 5.89965)
(2.33896 5.18407e-19 5.911)
(2.93284 -3.44589e-20 6.22431)
(1.38965 4.54367e-19 5.96603)
(1.98012 1.40752e-18 6.44411)
(1.05636 -7.39813e-19 6.41618)
(9.98468 1.39547e-21 0.150198)
(9.98645 1.33867e-21 0.104728)
(9.9554 -2.94381e-21 0.246948)
(9.97006 2.73671e-21 0.204925)
(9.91271 -1.15341e-20 0.344687)
(9.93995 -5.60392e-21 0.304985)
(9.85687 -1.89259e-21 0.44541)
(9.89259 -5.12008e-21 0.407362)
(9.78809 1.7775e-20 0.550575)
(9.83138 5.97084e-21 0.513618)
(9.70653 -4.48061e-22 0.661507)
(9.75827 1.32166e-20 0.62514)
(9.61226 -1.2811e-20 0.77947)
(9.67331 -1.27567e-20 0.74324)
(9.50523 -4.11185e-22 0.905714)
(9.57618 -4.16742e-22 0.869197)
(9.38532 2.91393e-20 1.0415)
(9.46675 -2.73682e-20 1.0043)
(9.25233 -1.42631e-21 1.18813)
(9.3449 5.67727e-20 1.14985)
(9.10599 -3.09924e-20 1.34691)
(9.21047 -3.03199e-23 1.3072)
(8.94594 -1.88663e-21 1.5192)
(9.06321 -3.00848e-20 1.47771)
(8.77172 -6.3624e-20 1.70639)
(8.90273 -1.94717e-21 1.66282)
(8.58272 7.20814e-21 1.90994)
(8.72858 -6.69479e-20 1.86402)
(8.37819 -5.475e-21 2.13132)
(8.54012 6.6372e-20 2.08286)
(8.1571 -1.47177e-21 2.37205)
(8.33655 -1.82114e-21 2.32097)
(7.91808 -8.89218e-20 2.63365)
(8.11673 -8.00933e-20 2.58004)
(7.65927 6.8023e-21 2.91763)
(7.87915 -8.10166e-20 2.86182)
(7.3781 1.51326e-19 3.22547)
(7.6217 1.58636e-19 3.16814)
(7.07106 -1.09448e-20 3.55847)
(7.34147 -7.97809e-21 3.50089)
(6.73328 5.81553e-21 3.91754)
(7.03439 -8.27173e-21 3.86186)
(6.35804 2.27802e-20 4.30294)
(6.69474 -1.55676e-19 4.2526)
(5.93616 -1.79189e-19 4.71359)
(6.31462 1.1579e-20 4.67411)
(5.45529 4.05889e-19 5.14587)
(5.88299 -1.06217e-20 5.12604)
(4.89921 1.75499e-19 5.59171)
(5.38458 4.0847e-19 5.60519)
(4.24782 -8.19232e-19 6.03545)
(4.79891 -3.98733e-19 6.10304)
(3.47867 1.86758e-20 6.44899)
(4.09903 -4.14547e-19 6.60135)
(2.5726 8.77364e-19 6.78684)
(3.25676 4.27265e-19 7.06425)
(1.52319 2.65587e-19 6.9423)
(2.21982 2.45237e-19 7.4323)
(1.17382 -4.35555e-21 7.51122)
(9.98549 2.69861e-21 0.160606)
(9.98673 1.33029e-21 0.111526)
(9.9578 -7.90886e-23 0.264156)
(9.97153 2.72221e-21 0.218269)
(9.91755 8.1697e-22 0.368854)
(9.94351 -6.94936e-21 0.324944)
(9.86504 2.88313e-21 0.476781)
(9.89913 6.91501e-22 0.434145)
(9.80052 1.50991e-21 0.589428)
(9.84182 5.15072e-21 0.547466)
(9.72415 5.51904e-22 0.708166)
(9.77355 -1.29685e-20 0.666326)
(9.63605 -1.96526e-22 0.834321)
(9.69441 1.19159e-20 0.792091)
(9.53623 -2.77321e-20 0.969207)
(9.60414 0 0.926097)
(9.42464 1.35772e-21 1.11415)
(9.50265 -2.74259e-20 1.06969)
(9.30114 5.74428e-20 1.27051)
(9.38992 2.80142e-20 1.22423)
(9.16556 5.09694e-22 1.43969)
(9.26587 2.94176e-20 1.39114)
(9.01762 -2.97939e-20 1.62313)
(9.13033 -2.72596e-20 1.57186)
(8.85696 -6.07706e-21 1.82236)
(8.98304 3.10076e-20 1.76793)
(8.68309 -6.16709e-21 2.03897)
(8.82365 -3.57894e-20 1.98096)
(8.49532 6.91997e-20 2.27466)
(8.65166 -7.88747e-24 2.21268)
(8.29276 -8.13802e-20 2.53122)
(8.4664 7.25285e-20 2.46494)
(8.07413 -7.2297e-20 2.81058)
(8.26689 -2.15558e-19 2.73976)
(7.83767 7.35038e-20 3.11481)
(8.0518 2.19463e-19 3.03935)
(7.58091 -2.63098e-21 3.44615)
(7.81922 -7.66359e-20 3.36616)
(7.3004 -5.29381e-21 3.80697)
(7.56646 1.50182e-19 3.72297)
(6.99127 -1.71463e-19 4.19973)
(7.28972 -4.32103e-21 4.11287)
(6.6466 -1.65124e-19 4.62682)
(6.98351 -1.68305e-19 4.53924)
(6.25663 1.80099e-19 5.0901)
(6.64 0 5.00576)
(5.80751 -3.63729e-21 5.59)
(6.24778 1.78214e-19 5.51592)
(5.27973 -1.75667e-19 6.1236)
(5.79016 -1.83291e-19 6.07204)
(4.64636 6.23831e-21 6.68113)
(5.24265 1.70601e-19 6.67317)
(3.87182 6.07886e-21 7.23901)
(4.56867 1.40405e-20 7.31052)
(2.91442 -2.08204e-19 7.74914)
(3.72062 -1.76668e-19 7.95656)
(1.73627 -7.96752e-21 8.07169)
(2.59846 -3.78822e-19 8.54969)
(1.37262 3.98666e-19 8.8351)
(9.98638 1.37234e-21 0.170411)
(9.98703 0 0.117906)
(9.96043 -4.30337e-21 0.280332)
(9.97312 -1.31279e-21 0.230777)
(9.9228 -6.98677e-21 0.391514)
(9.94736 -5.56063e-21 0.343607)
(9.87384 3.0068e-21 0.506127)
(9.90613 -2.87488e-21 0.459125)
(9.81381 -9.574e-21 0.625696)
(9.85293 1.17271e-20 0.578962)
(9.74293 -1.26719e-21 0.751632)
(9.78975 -7.63868e-21 0.704568)
(9.66134 1.19551e-20 0.88531)
(9.71672 1.26125e-20 0.837348)
(9.56912 -5.28426e-23 1.0281)
(9.63364 -2.56613e-20 0.978685)
(9.46628 -5.14783e-23 1.18137)
(9.54048 3.9624e-20 1.12997)
(9.3528 0 1.34655)
(9.43731 -2.72485e-20 1.29262)
(9.22857 9.353e-22 1.5251)
(9.32414 2.84626e-20 1.46809)
(9.09345 3.42871e-20 1.71855)
(9.20093 -2.86352e-20 1.65791)
(8.94718 4.90194e-22 1.92853)
(9.06753 3.29654e-20 1.86368)
(8.78943 -2.91965e-20 2.15678)
(8.92374 -3.1698e-20 2.08713)
(8.61967 4.18827e-21 2.40518)
(8.76925 2.08136e-21 2.33013)
(8.43719 -6.50271e-20 2.67579)
(8.60358 8.08927e-24 2.59474)
(8.24095 8.11744e-20 2.97091)
(8.42603 1.23661e-21 2.88325)
(8.02944 6.60167e-20 3.29313)
(8.23557 7.51947e-20 3.19827)
(7.80055 7.87891e-20 3.64544)
(8.0307 -1.46633e-19 3.54283)
(7.55122 1.498e-19 4.03129)
(7.80926 2.25286e-19 3.92053)
(7.27705 -2.55369e-21 4.45472)
(7.5681 -3.9305e-21 4.33566)
(6.97164 -1.26952e-21 4.92043)
(7.30264 -1.54446e-19 4.79347)
(6.62556 0 5.4338)
(7.00607 0 5.3004)
(6.22475 -5.52507e-21 6.00052)
(6.66814 -4.73466e-21 5.86434)
(5.74787 1.67307e-19 6.62562)
(6.27295 -5.46463e-21 6.49468)
(5.1621 1.75654e-19 7.31107)
(5.79524 1.70737e-19 7.20191)
(4.41665 -1.73525e-19 8.04905)
(5.19215 -2.34342e-21 7.99578)
(3.43464 -3.50357e-19 8.80734)
(4.39601 -1.726e-19 8.87686)
(2.10804 -3.93108e-22 9.42673)
(3.23226 -1.78339e-19 9.81686)
(1.75066 1.85748e-19 10.528)
(9.98734 -2.70301e-21 0.179563)
(9.98735 1.29619e-21 0.123838)
(9.96325 -2.62962e-21 0.295401)
(9.97481 1.31642e-21 0.24239)
(9.9284 -1.42916e-21 0.412575)
(9.95143 2.73255e-21 0.360895)
(9.88316 6.03147e-21 0.533339)
(9.91352 -2.80055e-21 0.482208)
(9.82785 1.34028e-20 0.659249)
(9.86461 7.322e-21 0.607995)
(9.76269 6.51436e-21 0.791751)
(9.80673 2.02798e-20 0.73973)
(9.68789 -2.55132e-20 0.932256)
(9.74005 -2.40711e-20 0.878849)
(9.6036 1.4868e-20 1.08217)
(9.66443 -1.30487e-20 1.02677)
(9.5099 1.1574e-20 1.24291)
(9.57992 3.98895e-20 1.18492)
(9.40686 1.92913e-21 1.41595)
(9.48668 -5.3942e-20 1.35474)
(9.2945 -1.81125e-21 1.60279)
(9.38482 5.61762e-20 1.53773)
(9.17278 -2.91922e-20 1.80503)
(9.27441 -1.16243e-21 1.73546)
(9.04162 0 2.02438)
(9.15548 -2.94731e-20 1.9496)
(8.90085 0 2.26269)
(9.028 3.0414e-20 2.18194)
(8.75018 -2.12328e-21 2.52199)
(8.89186 3.18031e-20 2.43447)
(8.58915 6.63166e-20 2.80457)
(8.74687 -6.644e-20 2.70939)
(8.41707 -3.86865e-21 3.11303)
(8.59266 6.86521e-20 3.0092)
(8.23287 -1.39952e-19 3.45041)
(8.42865 -6.99934e-20 3.33683)
(8.03502 3.88347e-21 3.82031)
(8.25392 -6.89231e-20 3.69574)
(7.82124 6.92771e-20 4.22714)
(8.06712 1.40938e-19 4.09016)
(7.58816 -1.57206e-19 4.67636)
(7.86622 -7.19065e-20 4.52537)
(7.33077 -1.51495e-19 5.1749)
(7.64818 -2.30477e-19 5.00812)
(7.04141 -4.78985e-21 5.73164)
(7.40842 0 5.54727)
(6.70815 -4.68136e-21 6.35815)
(7.13986 8.77614e-21 6.15477)
(6.31155 0 7.06951)
(6.8311 8.58943e-21 6.84722)
(5.81853 -1.02519e-20 7.88555)
(6.46307 0 7.64849)
(5.16949 -5.68067e-21 8.83124)
(5.99996 4.4553e-20 8.59497)
(4.24929 -8.59927e-22 9.93645)
(5.37802 -9.15843e-21 9.74393)
(2.81659 -4.91155e-21 11.1321)
(4.36399 -5.09835e-20 11.1954)
(2.56204 0 12.8817)
(9.98835 5.27945e-21 0.188021)
(9.98769 1.32066e-21 0.129297)
(9.96622 6.69828e-21 0.309301)
(9.97658 4.06609e-21 0.25306)
(9.93427 1.2937e-21 0.431952)
(9.95568 -2.31014e-21 0.376745)
(9.89292 -1.37227e-21 0.558305)
(9.92123 -1.41749e-21 0.503315)
(9.84249 1.43759e-20 0.689947)
(9.87676 6.76668e-21 0.634471)
(9.78326 -1.09021e-20 0.828345)
(9.82437 7.50094e-21 0.771701)
(9.7155 -1.14621e-20 0.974939)
(9.76427 -1.35198e-20 0.916465)
(9.63939 1.26614e-20 1.13116)
(9.69636 1.07812e-21 1.0702)
(9.55514 -2.68323e-20 1.29846)
(9.6208 9.655e-22 1.23435)
(9.46289 1.694e-21 1.47832)
(9.53783 -2.759e-20 1.41039)
(9.36279 5.61271e-20 1.6723)
(9.44768 1.85561e-21 1.59981)
(9.25496 -1.76051e-21 1.88202)
(9.35056 5.50713e-20 1.80423)
(9.13947 1.68011e-21 2.10924)
(9.24665 -2.08382e-21 2.02533)
(9.01637 6.22906e-20 2.3559)
(9.13614 3.12049e-21 2.26495)
(8.88564 -3.35906e-20 2.62412)
(9.01917 3.2412e-20 2.52512)
(8.74715 -6.2529e-20 2.91633)
(8.89585 -6.55752e-20 2.80814)
(8.60064 1.03757e-21 3.23534)
(8.76623 1.33354e-22 3.11663)
(8.44565 1.07947e-21 3.58449)
(8.63027 6.20866e-20 3.45367)
(8.28141 7.03508e-20 3.96783)
(8.48779 -6.31363e-20 3.82297)
(8.10676 -2.37488e-21 4.39041)
(8.33845 6.79356e-20 4.22913)
(7.91991 -1.46958e-19 4.85871)
(8.18167 -6.69906e-20 4.67796)
(7.71811 -7.63706e-20 5.38128)
(8.01656 -7.84824e-20 5.17706)
(7.49714 1.36307e-20 5.96973)
(7.84176 0 5.73666)
(7.25019 2.20092e-20 6.64047)
(7.65533 5.38256e-21 6.37113)
(6.96577 8.4866e-21 7.41776)
(7.45444 -5.89541e-20 7.10155)
(6.6229 5.5378e-20 8.34016)
(7.23539 6.03198e-20 7.96106)
(6.17894 4.46322e-20 9.47574)
(6.99314 6.34676e-20 9.0074)
(5.53124 -6.14184e-20 10.9792)
(6.74548 -2.46288e-20 10.3578)
(4.33958 -4.56172e-20 13.392)
(6.60151 -5.26303e-20 12.3514)
(5.81585 0 16.601)
(-0.323127 -7.91326e-21 0.295635)
(-0.199705 -3.20437e-20 0.296223)
(-0.921774 -8.0912e-21 0.402594)
(-0.700796 -1.43977e-20 0.534379)
(-1.67639 0 0.450536)
(-1.43627 1.23949e-19 0.650632)
(-2.5303 4.68357e-20 0.470568)
(-2.26249 -1.19113e-19 0.71884)
(-3.44693 9.66115e-21 0.473974)
(-3.15581 3.05484e-20 0.757168)
(-4.40176 -4.73801e-20 0.467043)
(-4.0926 -3.03217e-20 0.775618)
(-5.37632 -2.62668e-20 0.4528)
(-5.05453 4.13614e-22 0.779069)
(-6.35522 7.92202e-21 0.432751)
(-6.02616 -1.80853e-20 0.770042)
(-7.32425 2.69915e-20 0.407639)
(-6.99358 3.56764e-20 0.749813)
(-8.26929 -5.0862e-21 0.377797)
(-7.94301 0 0.718886)
(-9.17551 -5.18636e-21 0.343363)
(-8.86014 2.85703e-23 0.677325)
(-10.027 0 0.304393)
(-9.7296 0 0.624974)
(-10.8065 5.82788e-21 0.260945)
(-10.5346 -1.13722e-20 0.561621)
(-11.4957 5.94683e-21 0.213132)
(-11.257 -2.40402e-20 0.487156)
(-12.0752 -3.03529e-21 0.161179)
(-11.8775 4.81445e-20 0.401743)
(-12.5253 2.94269e-21 0.105414)
(-12.3762 -3.02994e-20 0.306019)
(-12.8271 -2.69367e-21 0.046154)
(-12.7337 6.10357e-21 0.201116)
(-12.9625 -9.08522e-21 -0.0164308)
(-12.9309 8.05154e-23 0.0884295)
(-12.9147 0 -0.082334)
(-12.9495 -5.86937e-21 -0.0306426)
(-12.6694 0 -0.150789)
(-12.7761 5.50803e-21 -0.153953)
(-12.2195 0 -0.219983)
(-12.404 -9.77741e-21 -0.27675)
(-11.5635 0 -0.288508)
(-11.8296 4.66528e-21 -0.395375)
(-10.703 0 -0.356062)
(-11.0534 -5.54454e-21 -0.508255)
(-9.64045 -1.15649e-21 -0.423414)
(-10.0782 3.06713e-21 -0.615179)
(-8.3766 -1.1802e-21 -0.493111)
(-8.90608 -1.4754e-21 -0.717202)
(-6.90633 -4.55766e-22 -0.572384)
(-7.5313 2.00976e-21 -0.817922)
(-5.20004 -4.64979e-22 -0.68061)
(-5.93016 4.8049e-22 -0.930679)
(-3.14907 0 -0.857606)
(-4.09152 0 -1.097)
(-0.505074 0 -1.41056)
(-2.14061 -5.69444e-23 -1.38709)
(2.15243 0 -2.33779)
(-0.560896 -4.01822e-20 0.724248)
(-0.312801 -2.67241e-20 0.853418)
(-1.24354 1.13894e-19 0.917056)
(-0.896725 -4.91102e-19 1.15651)
(-2.02455 6.40772e-21 1.03036)
(-1.6661 1.17017e-19 1.33382)
(-2.88031 -1.35675e-19 1.1003)
(-2.48958 1.19576e-19 1.44672)
(-3.78793 -7.68187e-21 1.13917)
(-3.36437 1.11764e-19 1.51249)
(-4.72802 1.60128e-20 1.15481)
(-4.27374 4.84029e-20 1.54342)
(-5.68425 8.2458e-21 1.15146)
(-5.20322 -1.19313e-19 1.54655)
(-6.64226 9.17341e-21 1.13135)
(-6.13966 -7.24234e-20 1.52587)
(-7.58834 9.35296e-21 1.09545)
(-7.07052 6.1738e-20 1.48343)
(-8.50857 5.03113e-21 1.04392)
(-7.98291 8.11618e-20 1.41997)
(-9.38816 5.13133e-21 0.976519)
(-8.86311 8.41455e-20 1.33545)