/*--------------------------------*- C++ -*----------------------------------*\
| =========                 |                                                 |
| \\      /  F ield         | OpenFOAM: The Open Source CFD Toolbox           |
|  \\    /   O peration     | Version:  dev                                   |
|   \\  /    A nd           | Web:      www.OpenFOAM.org                      |
|    \\/     M anipulation  |                                                 |
\*---------------------------------------------------------------------------*/
FoamFile
{
    version     2.0;
    format      ascii;
    class       surfaceVectorField;
    location    "0.43";
    object      Uf;
}
// * * * * * * * * * * * * * * * * * * * * * * * * * * * * * * * * * * * * * //

dimensions      [0 1 -1 0 0 0 0];

internalField   nonuniform List<vector> 
5457
(
(9.91626 3.97433e-23 0.0241038)
(9.96329 -1.33458e-21 0.0392521)
(9.81768 7.38129e-22 0.0315809)
(9.92211 -7.08308e-23 0.0474579)
(9.70266 0 0.037788)
(9.85237 -3.71427e-22 0.0569389)
(9.56923 0 0.0441379)
(9.75507 3.86462e-22 0.0679049)
(9.41728 -4.25284e-22 0.0507024)
(9.63719 -5.29266e-24 0.0794816)
(9.24687 4.66441e-22 0.0575455)
(9.5011 4.05633e-22 0.0916037)
(9.05765 1.71764e-22 0.0648161)
(9.34614 -8.71683e-22 0.104505)
(8.84894 -6.65743e-22 0.07266)
(9.1712 8.86185e-22 0.118419)
(8.61983 0 0.0812035)
(8.97538 3.78962e-21 0.133529)
(8.36926 -3.27707e-23 0.0905687)
(8.75775 -3.88962e-21 0.150008)
(8.09598 -3.19075e-23 0.10088)
(8.51722 -2.71108e-25 0.168031)
(7.79865 5.77969e-22 0.112258)
(8.25253 0 0.187769)
(7.47588 5.62758e-22 0.124825)
(7.96229 6.51866e-24 0.209373)
(7.12625 -1.28026e-21 0.138688)
(7.64507 1.18589e-21 0.232975)
(6.74843 -6.71429e-21 0.153939)
(7.29946 -1.92634e-23 0.258657)
(6.3413 -1.12333e-20 0.170626)
(6.92416 -5.39563e-21 0.286427)
(5.90411 6.10972e-21 0.188739)
(6.51813 -1.13555e-20 0.316177)
(5.43666 1.78966e-20 0.208171)
(6.08075 1.17211e-20 0.347642)
(4.93964 -5.21028e-22 0.228668)
(5.61205 1.65752e-22 0.380326)
(4.41487 -1.35512e-20 0.249762)
(5.113 3.93217e-20 0.413425)
(3.86576 -3.68378e-20 0.270664)
(4.58586 -5.4325e-20 0.445732)
(3.29773 6.46331e-20 0.290093)
(4.03453 -1.45585e-19 0.475505)
(2.7188 -3.93504e-20 0.306005)
(3.465 2.1239e-19 0.500281)
(2.14029 -1.28543e-19 0.315187)
(2.88584 -1.60818e-19 0.516591)
(1.57773 1.05774e-19 0.31281)
(2.30856 2.65294e-19 0.519529)
(1.05209 1.04012e-19 0.292399)
(1.74819 -1.33464e-19 0.502217)
(0.590869 0 0.247423)
(1.2235 7.14254e-20 0.455446)
(0.228657 -2.29154e-19 0.176797)
(0.757456 0 0.368184)
(0.00426309 5.85329e-19 0.0754385)
(0.368449 -2.96652e-19 0.231153)
(0.192244 9.28627e-19 0.00553515)
(9.99675 -1.43855e-21 0.0504823)
(9.99061 -6.14796e-22 0.0407768)
(9.95883 -1.18099e-21 0.0686571)
(9.97494 -8.15793e-22 0.0657106)
(9.89924 2.79274e-23 0.0846619)
(9.93445 3.72246e-22 0.0864338)
(9.81954 3.75775e-22 0.101473)
(9.86721 -1.15611e-21 0.108467)
(9.71955 8.31692e-22 0.119223)
(9.77896 -8.64525e-24 0.131784)
(9.59915 -9.49227e-22 0.137996)
(9.67216 -8.4124e-22 0.156317)
(9.45803 -1.32187e-22 0.158099)
(9.54638 -8.8915e-22 0.182443)
(9.29557 5.38063e-21 0.179849)
(9.40068 1.11487e-21 0.210598)
(9.11091 -2.05415e-22 0.203522)
(9.23425 1.61432e-23 0.241155)
(8.90301 -3.80521e-21 0.229382)
(9.04624 -1.81065e-23 0.274465)
(8.67067 3.16926e-23 0.25769)
(8.83568 8.29174e-21 0.310888)
(8.41257 -5.73141e-22 0.288689)
(8.60139 -7.94171e-21 0.350771)
(8.12729 6.43618e-22 0.322595)
(8.34208 5.54241e-22 0.394436)
(7.81337 2.43739e-21 0.359572)
(8.05634 2.35248e-21 0.442164)
(7.4694 1.23389e-21 0.399695)
(7.7428 1.25068e-21 0.494148)
(7.09416 -5.60584e-21 0.442901)
(7.40009 0 0.550437)
(6.68671 -5.45677e-21 0.488924)
(7.02703 4.43592e-20 0.610865)
(6.24664 -6.24584e-21 0.53721)
(6.62275 -3.41109e-20 0.674956)
(5.7743 4.05699e-20 0.586812)
(6.18686 -1.04388e-19 0.741785)
(5.27113 -2.3222e-21 0.636255)
(5.71973 1.72697e-19 0.809826)
(4.74004 -1.64231e-19 0.683388)
(5.22279 -1.55775e-19 0.876766)
(4.18576 6.45917e-21 0.725175)
(4.69881 -2.35391e-23 0.939276)
(3.61526 8.60482e-20 0.757447)
(4.15226 -1.73942e-19 0.992751)
(3.03795 2.38494e-19 0.774589)
(3.58948 6.14405e-20 1.03098)
(2.46562 2.00272e-20 0.769284)
(3.01866 2.65926e-19 1.04587)
(1.91163 -1.64886e-19 0.732655)
(2.44942 2.34456e-19 1.02737)
(1.38877 7.07024e-20 0.655599)
(1.89151 -5.55914e-19 0.964254)
(0.905481 -7.52076e-20 0.533492)
(1.35336 0 0.846668)
(0.456734 8.71831e-20 0.36733)
(0.827145 -1.2644e-18 0.675263)
(0.440434 1.09046e-18 0.451136)
(9.98937 3.47034e-24 0.0586229)
(9.98831 1.41075e-21 0.0457579)
(9.95459 7.56043e-22 0.086635)
(9.97007 -2.88289e-21 0.0824573)
(9.89851 -8.30172e-22 0.11302)
(9.93054 1.49136e-21 0.114201)
(9.82368 -1.52923e-21 0.140778)
(9.86628 -7.75885e-22 0.146552)
(9.73039 -1.69342e-21 0.170254)
(9.78195 -1.59195e-21 0.180587)
(9.6185 -7.79776e-22 0.201618)
(9.68002 -1.66648e-21 0.21647)
(9.48774 3.86682e-22 0.235286)
(9.56032 -1.74479e-21 0.254667)
(9.33765 -4.26463e-21 0.271726)
(9.42212 3.92446e-22 0.295763)
(9.16755 2.02665e-22 0.311376)
(9.26477 8.45818e-22 0.340301)
(8.97656 1.219e-20 0.354669)
(9.08757 3.87185e-21 0.388803)
(8.76367 9.86638e-23 0.402035)
(8.88974 5.24913e-23 0.441797)
(8.5277 -6.7018e-21 0.45389)
(8.67037 -5.61111e-23 0.499797)
(8.26738 2.29109e-21 0.510612)
(8.42835 1.11346e-21 0.563297)
(7.98136 1.15497e-21 0.572502)
(8.16252 -2.00824e-20 0.632741)
(7.66829 0 0.639727)
(7.87169 1.45154e-20 0.708463)
(7.32685 5.05302e-20 0.712241)
(7.55463 0 0.790612)
(6.9559 1.46973e-20 0.789687)
(7.21018 6.06529e-20 0.879065)
(6.5546 -1.33207e-19 0.871245)
(6.83732 -5.68774e-20 0.973279)
(6.12261 3.11373e-20 0.955467)
(6.4353 -9.82449e-20 1.0721)
(5.66034 1.48906e-20 1.04006)
(6.00379 1.13983e-19 1.17356)
(5.16923 1.01336e-20 1.12167)
(5.54308 -8.22977e-20 1.2746)
(4.652 -1.82336e-19 1.1956)
(5.05429 8.84972e-20 1.37078)
(4.11281 -1.95749e-19 1.25556)
(4.53951 -2.35453e-19 1.45602)
(3.55724 9.16209e-20 1.29348)
(4.00189 -5.16728e-19 1.52233)
(2.99174 4.79761e-19 1.29964)
(3.44538 5.65555e-19 1.55979)
(2.42242 -1.64606e-19 1.26352)
(2.87415 4.737e-19 1.55708)
(1.85284 -6.21623e-19 1.17613)
(2.29161 -7.6252e-19 1.50315)
(1.28166 -1.19069e-18 1.03617)
(1.69994 0 1.39063)
(0.700586 -2.89051e-19 0.858637)
(1.0865 -2.42675e-18 1.22639)
(0.575899 2.52725e-18 1.02806)
(9.98519 -1.53217e-21 0.0700983)
(9.98706 4.20799e-21 0.0527027)
(9.95052 -2.08629e-21 0.109364)
(9.96707 2.87341e-21 0.0991487)
(9.89542 1.51635e-21 0.146931)
(9.92745 4.44781e-21 0.141479)
(9.82182 -8.52015e-22 0.185554)
(9.86437 -1.52695e-21 0.184015)
(9.73034 -1.56604e-21 0.226068)
(9.78176 -1.56088e-24 0.228443)
(9.62096 -2.63128e-21 0.268922)
(9.68199 0 0.275276)
(9.49348 -1.70846e-21 0.314702)
(9.56503 -8.61049e-22 0.325078)
(9.34761 5.51096e-21 0.364048)
(9.43029 -9.8465e-21 0.378536)
(9.18285 4.55808e-21 0.417578)
(9.27724 1.84993e-20 0.436341)
(8.99852 -8.31704e-21 0.475901)
(9.10532 -7.65434e-21 0.499159)
(8.79387 -1.04543e-22 0.539619)
(8.91393 -8.20844e-21 0.567641)
(8.56802 7.77674e-21 0.60932)
(8.70235 2.49361e-20 0.642435)
(8.32001 -2.1539e-20 0.685558)
(8.46973 -1.8595e-20 0.724179)
(8.04879 -6.26946e-21 0.768798)
(8.21517 -2.35586e-20 0.813455)
(7.75329 1.43253e-20 0.859353)
(7.93772 5.38092e-20 0.910725)
(7.43244 1.09255e-20 0.95729)
(7.63643 -4.02587e-20 1.01626)
(7.08521 -1.24069e-20 1.06231)
(7.31028 5.55371e-23 1.13004)
(6.71065 -2.24492e-20 1.17354)
(6.95833 -1.14884e-20 1.25156)
(6.30805 -1.27762e-20 1.28933)
(6.57968 -1.16915e-20 1.37966)
(5.87704 1.41449e-20 1.407)
(6.17354 -1.26126e-20 1.51219)
(5.41768 -1.97781e-21 1.52249)
(5.73931 2.55672e-22 1.64579)
(4.93065 3.17388e-20 1.63011)
(5.27665 -3.17315e-22 1.7755)
(4.41722 -5.5956e-19 1.72228)
(4.78549 3.42919e-19 1.89444)
(3.87915 -3.13143e-20 1.78946)
(4.26601 -2.49157e-19 1.99367)
(3.31824 5.59187e-19 1.8205)
(3.71852 1.36316e-20 2.06224)
(2.73566 -1.37582e-19 1.80401)
(3.14317 0 2.08792)
(2.13127 -1.35162e-19 1.73098)
(2.53981 -2.88111e-21 2.05913)
(1.50391 -1.24932e-18 1.60036)
(1.90966 6.90167e-20 1.96818)
(0.856687 3.33622e-19 1.42902)
(1.24573 -1.20178e-18 1.81992)
(0.667656 1.51987e-18 1.62898)
(9.98321 8.59446e-21 0.0823625)
(9.98649 -3.48471e-22 0.0605717)
(9.94822 9.42852e-21 0.131487)
(9.96565 3.79116e-22 0.116)
(9.89405 1.32543e-21 0.179054)
(9.92613 3.69062e-21 0.1683)
(9.8218 -6.55339e-22 0.227654)
(9.86428 -6.86791e-21 0.22079)
(9.73214 1.56486e-21 0.278517)
(9.78356 3.15668e-21 0.275347)
(9.62513 1.75865e-21 0.33235)
(9.68616 3.29005e-21 0.332807)
(9.50061 -9.11986e-21 0.389855)
(9.57209 6.2926e-23 0.393859)
(9.35831 3.52806e-21 0.451777)
(9.44083 -1.06853e-20 0.459286)
(9.19781 5.93485e-21 0.518856)
(9.2919 1.20487e-20 0.529901)
(9.01855 -7.55332e-21 0.59181)
(9.1248 -8.60972e-21 0.606486)
(8.8199 1.72747e-20 0.671342)
(8.93905 0 0.689794)
(8.60116 -2.0119e-21 0.758151)
(8.73402 1.70511e-20 0.780584)
(8.36155 -2.0681e-20 0.852905)
(8.50898 -1.85919e-20 0.879607)
(8.10026 3.75325e-20 0.956182)
(8.26317 -7.87174e-24 0.987549)
(7.81643 -1.98744e-21 1.06841)
(7.99583 4.41091e-20 1.10498)
(7.50918 -5.06039e-20 1.18976)
(7.70611 -4.52578e-20 1.2323)
(7.17761 8.17752e-22 1.32005)
(7.39311 7.43188e-20 1.3696)
(6.82079 -7.30706e-22 1.45846)
(7.0559 -6.49737e-20 1.5165)
(6.43779 -1.15443e-20 1.60338)
(6.69347 -8.70889e-23 1.67193)
(6.02766 -2.63154e-20 1.75203)
(6.30467 0 1.83385)
(5.58944 1.88364e-21 1.90017)
(5.8882 -2.5538e-19 1.99893)
(5.12215 3.15071e-19 2.04174)
(5.44254 -1.82236e-19 2.16212)
(4.62475 6.46459e-19 2.16857)
(4.96591 2.29303e-19 2.31637)
(4.09602 -2.00254e-19 2.27037)
(4.45619 -1.04681e-19 2.45231)
(3.5345 -5.46159e-19 2.33505)
(3.91098 -7.53329e-20 2.55828)
(2.93861 1.34958e-19 2.35)
(3.32789 -4.4062e-19 2.62087)
(2.30753 2.021e-19 2.30455)
(2.70498 1.27799e-19 2.62652)
(1.64364 1.04759e-19 2.19456)
(2.04449 5.39406e-19 2.56454)
(0.960128 -4.00858e-20 2.03051)
(1.34806 7.13858e-20 2.43312)
(0.732133 -7.48913e-20 2.23224)
(9.98236 -8.54522e-21 0.0949424)
(9.98627 -3.14852e-21 0.06884)
(9.94729 -5.31145e-21 0.15332)
(9.9652 -3.81125e-22 0.132887)
(9.89423 -4.64688e-21 0.210566)
(9.92616 -2.22304e-21 0.194572)
(9.82373 -2.92121e-21 0.269062)
(9.8658 -1.53241e-21 0.256678)
(9.73634 4.88375e-21 0.330199)
(9.78733 7.85448e-21 0.321069)
(9.63217 1.5473e-21 0.394857)
(9.69275 6.56892e-21 0.388813)
(9.51108 -1.65035e-21 0.463839)
(9.58207 -5.02585e-21 0.460747)
(9.37282 -1.85633e-21 0.537987)
(9.45483 -7.0631e-21 0.537747)
(9.21701 -2.77493e-21 0.618149)
(9.31056 7.23585e-21 0.620728)
(9.04316 -9.42081e-22 0.705145)
(9.14887 -1.53308e-20 0.710574)
(8.85071 0 0.799783)
(8.96929 1.66933e-20 0.808141)
(8.63901 0 0.902869)
(8.77123 5.1444e-22 0.914288)
(8.40738 2.32564e-21 1.01517)
(8.55402 0 1.02986)
(8.15508 7.13832e-21 1.13737)
(8.31698 3.99081e-20 1.15564)
(7.88134 -3.05884e-22 1.27002)
(8.05935 5.59521e-21 1.29231)
(7.58532 8.12194e-20 1.41341)
(7.78029 -1.18969e-19 1.44039)
(7.26611 6.84054e-21 1.56748)
(7.47887 1.71993e-19 1.60012)
(6.92269 -6.35377e-20 1.73158)
(7.15408 -8.71388e-20 1.77128)
(6.55387 1.14644e-20 1.90427)
(6.80465 1.1416e-19 1.95302)
(6.15818 -2.32206e-19 2.08293)
(6.42905 -9.35391e-20 2.14357)
(5.7338 -4.38993e-19 2.26349)
(6.02531 -2.04643e-19 2.33987)
(5.27845 -2.63326e-19 2.43994)
(5.59092 -2.09543e-19 2.53717)
(4.78929 -5.25133e-19 2.60402)
(5.12266 -2.98769e-19 2.72859)
(4.26295 1.97473e-20 2.74502)
(4.61662 -2.72004e-19 2.90471)
(3.69581 2.72289e-20 2.84987)
(4.06838 7.20506e-21 3.05327)
(3.08478 -4.4389e-19 2.90397)
(3.47375 -5.37959e-19 3.15936)
(2.42951 4.65969e-19 2.89329)
(2.82994 4.95254e-19 3.20624)
(1.73603 5.00327e-19 2.80834)
(2.14025 -4.32537e-20 3.17839)
(1.02298 3.50047e-20 2.64751)
(1.41341 5.81145e-19 3.06611)
(0.773476 -2.22945e-21 2.8469)
(9.98214 5.0615e-21 0.107593)
(9.98625 0 0.0772126)
(9.9474 2.68683e-21 0.174808)
(9.96539 8.52611e-21 0.149616)
(9.89567 9.01095e-22 0.241321)
(9.92722 -4.3916e-21 0.220187)
(9.82724 9.36885e-21 0.309364)
(9.86863 4.56597e-21 0.291512)
(9.74254 9.52186e-21 0.380396)
(9.79274 5.00034e-23 0.365388)
(9.64169 -1.66422e-22 0.455451)
(9.7014 1.05544e-23 0.443036)
(9.52458 -1.04662e-20 0.535453)
(9.59463 3.31521e-21 0.525436)
(9.39099 2.22242e-21 0.621343)
(9.47198 -1.40701e-20 0.613563)
(9.24057 -5.61914e-21 0.714069)
(9.33306 1.62471e-20 0.708415)
(9.07288 2.73008e-21 0.814553)
(9.1775 -1.25052e-20 0.810976)
(8.88739 1.69979e-20 0.923705)
(9.00488 1.37616e-20 0.922208)
(8.68349 5.0781e-22 1.04242)
(8.81462 1.36879e-24 1.04307)
(8.46051 3.81017e-20 1.17158)
(8.60611 3.46967e-20 1.17449)
(8.21773 3.79384e-20 1.31195)
(8.37866 1.79912e-21 1.31737)
(7.95435 -1.14655e-19 1.4642)
(8.13146 -1.52263e-21 1.47251)
(7.66945 -2.45799e-20 1.62879)
(7.86361 -1.1161e-19 1.64059)
(7.362 7.48433e-20 1.80583)
(7.57409 8.18507e-20 1.82201)
(7.03074 9.3082e-20 1.9949)
(7.26164 -1.08796e-20 2.0168)
(6.67412 6.74724e-21 2.19483)
(6.92468 2.26018e-21 2.22442)
(6.2901 -6.73208e-20 2.40341)
(6.56119 -2.32061e-21 2.44348)
(5.87604 2.45827e-20 2.61694)
(6.16852 2.48684e-20 2.67143)
(5.4285 -2.45842e-19 2.82983)
(5.74317 -1.98277e-19 2.90407)
(4.94315 -4.58785e-20 3.03404)
(5.28064 -2.17067e-19 3.13502)
(4.41487 -2.82217e-19 3.21865)
(4.77539 1.92682e-19 3.35508)
(3.83827 -5.64268e-19 3.36952)
(4.22115 -9.22882e-19 3.55157)
(3.20916 4.07371e-19 3.46944)
(3.61195 3.96552e-19 3.70783)
(2.52757 -2.18986e-20 3.49987)
(2.94416 5.00913e-19 3.80336)
(1.80215 4.47852e-20 3.44455)
(2.22123 -5.28188e-19 3.81659)
(1.0542 5.37756e-19 3.28519)
(1.45501 5.49111e-19 3.7294)
(0.794123 -5.69263e-19 3.48955)
(9.9823 3.57962e-21 0.120114)
(9.98636 5.49489e-21 0.0855076)
(9.94827 1.26767e-21 0.195798)
(9.96603 -2.8426e-21 0.166007)
(9.89812 -5.99349e-22 0.271145)
(9.92907 1.46176e-21 0.24502)
(9.83207 -4.80923e-21 0.348334)
(9.87254 1.52603e-21 0.325134)
(9.75045 -9.46173e-21 0.428865)
(9.79955 -6.23438e-21 0.408097)
(9.65338 3.53704e-21 0.513895)
(9.71187 -9.71119e-21 0.495227)
(9.5408 -5.20561e-22 0.604464)
(9.60949 -3.36124e-21 0.58763)
(9.4125 3.63188e-22 0.701605)
(9.49201 -3.58826e-21 0.686377)
(9.26817 8.98238e-21 0.806355)
(9.35908 7.17953e-21 0.792551)
(9.10742 -1.12404e-21 0.919736)
(9.21038 3.56883e-24 0.907227)
(8.92975 -3.41601e-21 1.04276)
(9.04552 -1.66153e-20 1.03147)
(8.73458 3.46416e-20 1.17641)
(8.86398 4.80401e-20 1.16633)
(8.52126 -2.02393e-21 1.32168)
(8.66515 -3.2807e-20 1.31285)
(8.28902 -3.77099e-20 1.47948)
(8.44835 -1.39105e-21 1.47206)
(8.037 1.60144e-22 1.65061)
(8.21273 -3.6879e-20 1.6449)
(7.76416 -2.78637e-21 1.83571)
(7.95728 -4.03227e-20 1.83223)
(7.46927 -5.03987e-21 2.03512)
(7.68085 -6.59696e-21 2.03469)
(7.15077 -1.01561e-19 2.24875)
(7.38193 8.70588e-20 2.25262)
(6.80666 -6.89701e-21 2.47584)
(7.05857 -1.00388e-19 2.48587)
(6.43429 9.02584e-20 2.71471)
(6.70824 9.13151e-20 2.73361)
(6.03016 -2.0048e-19 2.96228)
(6.32757 -1.88102e-19 2.99395)
(5.58971 -1.69733e-19 3.21365)
(5.91206 -3.90565e-19 3.26352)
(5.10711 2.54406e-20 3.46131)
(5.45592 2.00841e-20 3.53677)
(4.5755 -4.58586e-19 3.6944)
(4.95187 -2.31078e-19 3.80508)
(3.98756 4.8947e-20 3.89777)
(4.39153 -2.38618e-19 4.0557)
(3.3375 4.89691e-19 4.05145)
(3.76655 4.94586e-19 4.27043)
(2.62461 -1.62826e-20 4.13168)
(3.07131 7.23078e-21 4.42488)
(1.8587 -1.15571e-20 4.11424)
(2.30784 -1.60981e-20 4.49036)
(1.06287 -5.67996e-19 3.95937)
(1.48556 -1.17864e-20 4.43911)
(0.797585 -5.92277e-19 4.18128)
(9.98273 -1.03865e-21 0.132351)
(9.98656 -5.46173e-21 0.0936036)
(9.94971 -2.58848e-21 0.216146)
(9.96701 -6.37423e-21 0.181908)
(9.9014 3.591e-21 0.299896)
(9.93155 2.19224e-21 0.268942)
(9.83803 0 0.385804)
(9.87737 -4.45421e-21 0.357396)
(9.75986 -6.5301e-21 0.475401)
(9.80759 0 0.449003)
(9.66702 -1.65189e-20 0.569943)
(9.72394 -1.28426e-20 0.545149)
(9.55947 -6.42863e-21 0.670571)
(9.62641 3.11587e-21 0.647046)
(9.43705 3.37378e-21 0.778409)
(9.51463 6.84933e-21 0.755856)
(9.29949 -1.89389e-21 0.894576)
(9.38829 -1.78062e-20 0.872742)
(9.14644 -1.57058e-20 1.02019)
(9.24715 2.75845e-20 0.998867)
(8.97745 3.56799e-20 1.15636)
(9.09085 -2.88696e-20 1.13539)
(8.79197 -2.0446e-20 1.30418)
(8.91892 4.85646e-20 1.28346)
(8.58936 -3.17873e-20 1.46476)
(8.73078 -6.75306e-20 1.44424)
(8.36884 -9.97721e-22 1.63916)
(8.52575 3.41814e-20 1.61891)
(8.12948 -7.74342e-20 1.82837)
(8.30299 1.57244e-21 1.80857)
(7.87013 -4.3768e-20 2.03324)
(8.06142 -7.82531e-20 2.0143)
(7.58937 8.66054e-20 2.25443)
(7.79975 7.67653e-20 2.23702)
(7.28533 8.60572e-20 2.49223)
(7.51627 -7.86949e-20 2.47745)
(6.95556 0 2.74644)
(7.2087 8.44071e-20 2.73597)
(6.5968 -1.9024e-19 3.01605)
(6.87405 -8.70577e-20 3.01243)
(6.20469 -3.80465e-19 3.29888)
(6.50826 8.33208e-20 3.30583)
(5.7735 -1.96549e-19 3.59098)
(6.10589 1.82024e-19 3.61387)
(5.29585 -2.39012e-19 3.88581)
(5.65979 -1.92547e-19 3.93226)
(4.76277 -1.09625e-20 4.17303)
(5.16077 -2.37054e-19 4.25357)
(4.16439 2.13301e-19 4.43703)
(4.59778 2.15412e-19 4.56569)
(3.49192 7.30651e-21 4.65539)
(3.95889 -2.17413e-19 4.8497)
(2.74174 7.14227e-21 4.79865)
(3.23417 4.50026e-19 5.07788)
(1.92252 -1.62762e-20 4.8333)
(2.42171 -2.34147e-19 5.21337)
(1.0588 -4.10821e-20 4.692)
(1.52052 7.94301e-20 5.21646)
(0.789513 -1.22393e-19 4.95007)
(9.98334 -1.08091e-20 0.144186)
(9.98682 -6.70004e-23 0.101414)
(9.9516 -1.46945e-21 0.235722)
(9.96823 0 0.197193)
(9.90539 -5.94878e-21 0.327436)
(9.93453 -1.44925e-21 0.291824)
(9.84498 -4.39348e-21 0.421604)
(9.88298 4.45252e-21 0.388152)
(9.7706 -6.48644e-21 0.519795)
(9.81671 2.45356e-23 0.487924)
(9.68239 7.01188e-21 0.623339)
(9.73744 -9.54268e-21 0.592581)
(9.58035 1.64464e-20 0.733469)
(9.64518 6.55101e-21 0.703419)
(9.46436 -1.4658e-20 0.851391)
(9.53958 1.01552e-20 0.821685)
(9.3342 1.22678e-20 0.978307)
(9.42041 -1.77735e-20 0.948619)
(9.18957 1.36912e-20 1.11542)
(9.28748 2.94594e-20 1.08546)
(9.03008 -1.49919e-20 1.26394)
(9.14047 3.76949e-21 1.23346)
(8.85522 0 1.42507)
(8.979 4.12916e-21 1.39387)
(8.66439 -2.74323e-22 1.60006)
(8.80253 -1.61545e-20 1.56798)
(8.45682 3.6346e-20 1.79011)
(8.61042 -2.70954e-22 1.7571)
(8.23157 -2.12424e-22 1.99644)
(8.40185 3.39937e-20 1.96254)
(7.9874 4.41416e-20 2.22018)
(8.17575 -3.58079e-20 2.18561)
(7.72276 -9.04126e-20 2.46232)
(7.93075 1.98954e-21 2.42756)
(7.43555 -7.85455e-20 2.72367)
(7.66503 -9.44182e-21 2.68957)
(7.12296 -4.59355e-21 3.00467)
(7.37612 2.38275e-21 2.97261)
(6.78121 1.88456e-19 3.30521)
(7.06067 -9.29726e-20 3.27737)
(6.40518 6.47161e-19 3.6242)
(6.71411 2.71715e-19 3.60393)
(5.988 1.82226e-19 3.9591)
(6.33023 4.54138e-19 3.95145)
(5.52064 -1.90975e-19 4.30488)
(5.90059 -2.7892e-19 4.31739)
(4.99166 -6.3058e-21 4.6526)
(5.41402 -1.02915e-19 4.69637)
(4.38758 -2.19657e-19 4.98727)
(4.85622 1.22832e-19 5.07819)
(3.69455 2.33046e-19 5.28517)
(4.2102 -2.17528e-19 5.44498)
(2.9026 1.99906e-19 5.51138)
(3.45838 4.69756e-19 5.76737)
(2.01474 -1.33101e-19 5.62153)
(2.59058 -2.58461e-19 6.00049)
(1.05494 1.54676e-20 5.51224)
(1.58276 7.78709e-20 6.08921)
(0.779979 -6.60356e-20 5.83593)
(9.98409 1.07425e-20 0.155522)
(9.98713 5.79984e-21 0.108873)
(9.95384 0 0.254406)
(9.96965 -5.87193e-21 0.211758)
(9.90997 9.02876e-21 0.353634)
(9.93793 -5.67987e-21 0.31355)
(9.85278 8.81479e-21 0.45558)
(9.88925 1.18097e-20 0.417268)
(9.7825 -3.16092e-21 0.561853)
(9.82676 3.04312e-21 0.524697)
(9.6993 -9.78422e-21 0.673849)
(9.7522 -5.64603e-23 0.63732)
(9.6032 3.08934e-22 0.792878)
(9.66558 -6.62562e-21 0.756507)
(9.49415 6.67234e-21 0.920222)
(9.56662 6.72648e-21 0.883578)
(9.37197 3.3781e-23 1.05716)
(9.45513 1.746e-20 1.01984)
(9.23644 1.92049e-20 1.20497)
(9.33099 -1.42669e-20 1.16661)
(9.08721 2.29036e-20 1.36496)
(9.19397 1.1523e-20 1.32521)
(8.92388 -1.22789e-20 1.53845)
(9.04375 -1.52898e-20 1.497)
(8.74587 -1.59545e-20 1.7268)
(8.87988 -3.24982e-20 1.68338)
(8.55248 -2.20346e-21 1.93142)
(8.70179 3.2934e-20 1.88581)
(8.34281 -2.44099e-21 2.15372)
(8.50873 -7.74193e-24 2.10579)
(8.11562 -7.75252e-20 2.39514)
(8.29971 -2.87569e-22 2.34489)
(7.86932 8.28468e-20 2.65709)
(8.07339 -7.63416e-20 2.60473)
(7.6017 7.16824e-20 2.94093)
(7.82795 1.56518e-19 2.88695)
(7.30979 -8.70962e-20 3.24787)
(7.56091 -1.61478e-19 3.19321)
(6.98948 -5.79897e-21 3.57883)
(7.26883 -1.63438e-21 3.52511)
(6.63511 8.04525e-20 3.93415)
(6.94689 8.34881e-20 3.88404)
(6.23891 -1.47447e-20 4.31311)
(6.58844 9.06251e-20 4.27091)
(5.79032 -1.89111e-19 4.71299)
(6.18417 -9.25224e-20 4.68558)
(5.27525 2.88021e-20 5.12754)
(5.72117 -1.20111e-19 5.12579)
(4.67566 1.21547e-19 5.54431)
(5.18182 1.45637e-19 5.58518)
(3.97019 2.71091e-20 5.9408)
(4.54288 1.20799e-20 6.04987)
(3.13754 1.86059e-21 6.27885)
(3.77542 1.44178e-20 6.49294)
(2.16659 -4.09154e-20 6.50274)
(2.85413 -2.41842e-20 6.86499)
(1.07257 9.0269e-21 6.46202)
(1.71119 1.00909e-20 7.09348)
(0.789805 3.07758e-20 6.90329)
(9.98494 -1.09789e-20 0.166284)
(9.98748 -5.08822e-21 0.115929)
(9.95638 -1.15494e-20 0.272098)
(9.97123 -3.47081e-22 0.225515)
(9.91505 -2.65813e-21 0.37837)
(9.94167 -1.41903e-21 0.334014)
(9.86132 5.91816e-21 0.487586)
(9.89608 -1.49145e-21 0.444622)
(9.79543 6.10612e-21 0.6014)
(9.83763 6.03301e-21 0.559171)
(9.71757 3.0171e-21 0.721262)
(9.76806 -9.33812e-21 0.679186)
(9.62781 -2.85573e-23 0.848548)
(9.68743 -3.27487e-21 0.806093)
(9.52614 1.76542e-20 0.984605)
(9.59549 6.58382e-21 0.941274)
(9.41247 2.74869e-21 1.13078)
(9.49214 2.08286e-20 1.0861)
(9.28664 -2.16188e-20 1.28842)
(9.37733 -1.7787e-20 1.24194)
(9.14839 -2.70116e-20 1.45892)
(9.2509 -1.84975e-20 1.4102)
(8.99739 -3.57305e-20 1.6437)
(9.11265 -1.96141e-20 1.59231)
(8.83319 1.71933e-20 1.84426)
(8.96222 -7.39441e-22 1.7898)
(8.65517 3.47285e-20 2.06216)
(8.79917 -3.7922e-21 2.00425)
(8.46252 2.1418e-21 2.29906)
(8.62287 6.52479e-20 2.23735)
(8.25411 0 2.55668)
(8.43247 -3.8837e-20 2.49091)
(8.02843 0 2.83687)
(8.22679 0 2.76691)
(7.78336 -8.03024e-20 3.14159)
(8.00418 9.13494e-21 3.06747)
(7.51596 -7.42828e-20 3.47286)
(7.76234 -7.94037e-20 3.39493)
(7.22213 8.85565e-20 3.83277)
(7.49803 3.39727e-20 3.75187)
(6.89608 9.37057e-20 4.2233)
(7.20664 5.32773e-20 4.14107)
(6.52963 1.0871e-20 4.64603)
(6.88164 -9.22529e-21 4.56546)
(6.11123 -2.37707e-20 5.10144)
(6.51357 0 5.02785)
(5.62457 -1.4888e-22 5.58759)
(6.08876 -4.56857e-20 5.53024)
(5.04691 3.47053e-20 6.0975)
(5.58725 2.27519e-20 6.0724)
(4.34755 -7.20341e-22 6.61461)
(4.97996 -3.07745e-20 6.64884)
(3.48791 -1.22298e-20 7.10377)
(4.22426 -1.23985e-20 7.24268)
(2.42858 2.84374e-20 7.50286)
(3.27136 0 7.81114)
(1.15371 2.77727e-20 7.60476)
(1.97668 2.00815e-19 8.27203)
(0.864808 -2.02319e-19 8.25485)
(9.98589 5.59815e-21 0.176408)
(9.98786 3.33276e-22 0.122543)
(9.95915 9.76636e-21 0.288708)
(9.97293 5.18287e-21 0.238392)
(9.92055 -2.57105e-22 0.401537)
(9.9457 4.26003e-21 0.353123)
(9.8705 -1.27877e-21 0.517494)
(9.90339 -4.394e-21 0.470103)
(9.80925 -9.61655e-21 0.638279)
(9.84919 3.01443e-21 0.591214)
(9.73702 -1.55467e-20 0.765387)
(9.78487 -1.24242e-20 0.718016)
(9.65394 3.46799e-21 0.900249)
(9.71051 -3.2463e-21 0.851983)
(9.56006 9.94426e-21 1.04427)
(9.62594 -6.48601e-21 0.994545)
(9.45536 -2.05802e-22 1.19884)
(9.53113 -6.35923e-23 1.14712)
(9.33975 -1.46757e-20 1.36538)
(9.42609 6.93762e-21 1.31113)
(9.2131 -1.11219e-20 1.54535)
(9.31079 -1.10623e-20 1.48804)
(9.07519 1.5604e-20 1.74027)
(9.18512 -1.912e-22 1.67935)
(8.92567 -2.17865e-20 1.95175)
(9.04888 1.17911e-20 1.88667)
(8.76409 2.75442e-20 2.18149)
(8.90176 -6.0787e-20 2.1117)
(8.58979 2.30451e-20 2.43136)
(8.74333 6.69002e-20 2.3563)
(8.40185 -3.83798e-20 2.70338)
(8.57295 3.31602e-20 2.62249)
(8.19898 9.24491e-21 2.9998)
(8.38969 -3.47189e-20 2.91256)
(7.97934 9.03072e-21 3.32314)
(8.19226 -2.71374e-20 3.22906)
(7.74031 3.00956e-20 3.67624)
(7.97876 4.57772e-20 3.57496)
(7.47818 -1.13532e-21 4.06239)
(7.7465 3.93779e-20 3.95376)
(7.18761 -5.03795e-20 4.48531)
(7.49158 -4.01317e-20 4.36959)
(6.86081 -1.99951e-20 4.94917)
(7.20831 -7.41813e-23 4.82745)
(6.48636 -2.23515e-20 5.45839)
(6.88828 9.49633e-21 5.33331)
(6.0472 -2.18334e-20 6.01702)
(6.5188 -1.19695e-20 5.89424)
(5.51756 -4.34062e-20 6.6271)
(6.08025 -4.02461e-20 6.5182)
(4.85819 -4.23204e-20 7.28513)
(5.54147 -3.91318e-20 7.21296)
(4.00944 0 7.97252)
(4.84947 8.1861e-20 7.98308)
(2.88496 1.7534e-19 8.64127)
(3.92957 -1.74079e-19 8.81682)
(1.38563 1.7752e-20 9.03639)
(2.51397 3.52997e-19 9.66272)
(1.11164 -2.02369e-19 10.0609)
(9.9869 -2.50428e-23 0.185845)
(9.98826 4.98598e-22 0.128682)
(9.96211 -3.36503e-22 0.30416)
(9.97475 -5.10509e-22 0.250328)
(9.92641 0 0.42304)
(9.94997 -6.96896e-22 0.370799)
(9.88021 0 0.545192)
(9.9111 2.14857e-21 0.493616)
(9.82382 0 0.672358)
(9.86134 -1.46921e-21 0.620712)
(9.75748 0 0.80607)
(9.80248 6.04147e-21 0.753675)
(9.68137 -1.32437e-20 0.9478)
(9.73465 0 0.894013)
(9.59561 -1.64129e-20 1.09899)
(9.65773 -1.57374e-22 1.0432)
(9.50026 7.16753e-21 1.26109)
(9.57177 -1.67781e-20 1.20268)
(9.39534 1.03215e-20 1.43556)
(9.47689 1.72999e-20 1.37391)
(9.28082 0 1.62391)
(9.37316 2.13012e-20 1.55841)
(9.1566 -3.86579e-21 1.82772)
(9.26059 1.4242e-22 1.75772)
(9.02252 -2.81141e-20 2.0487)
(9.13914 -2.25161e-20 1.9735)
(8.8783 -1.99438e-20 2.28868)
(9.00869 -2.02762e-20 2.20756)
(8.72352 7.66014e-20 2.54969)
(8.86904 1.98918e-20 2.46187)
(8.55753 3.60673e-20 2.834)
(8.71983 6.37567e-20 2.73861)
(8.37941 -7.10165e-20 3.14418)
(8.56051 -7.62395e-22 3.0403)
(8.18777 1.04073e-20 3.48325)
(8.39024 -8.82792e-20 3.36985)
(7.98064 5.49659e-20 3.85477)
(8.20776 3.67534e-20 3.73072)
(7.7551 -4.59013e-22 4.26308)
(8.01125 7.08538e-22 4.12714)
(7.50691 1.06103e-20 4.71352)
(7.798 -9.83517e-21 4.56435)
(7.22973 2.94675e-20 5.21282)
(7.56401 2.00983e-20 5.04909)
(6.91395 1.95995e-20 5.76954)
(7.30327 -9.93655e-21 5.59021)
(6.54457 -3.07558e-20 6.39458)
(7.00653 -8.03182e-21 6.19962)
(6.09722 -3.65615e-20 7.10186)
(6.65891 -4.0274e-20 6.89387)
(5.53069 8.64817e-20 7.90891)
(6.23569 3.2976e-21 7.69682)
(4.7711 -9.58961e-20 8.83496)
(5.68944 6.59693e-20 8.64499)
(3.67672 4.0963e-20 9.90212)
(4.94841 -9.73593e-20 9.79452)
(1.96538 1.79369e-19 10.9226)
(3.61212 1.28398e-19 11.2471)
(1.83936 0 12.6828)
(9.98797 -1.23807e-23 0.194549)
(9.98869 1.68424e-22 0.134319)
(9.96523 -8.73502e-22 0.318386)
(9.97664 -4.90022e-22 0.261272)
(9.93256 1.48869e-21 0.44279)
(9.95442 -1.68811e-21 0.386971)
(9.89038 6.33468e-22 0.570565)
(9.91914 1.51476e-21 0.515078)
(9.83903 4.67323e-21 0.703489)
(9.87397 1.26074e-21 0.647566)
(9.77879 5.96153e-21 0.843124)
(9.82075 -9.69008e-22 0.786045)
(9.7099 1.3083e-20 0.990972)
(9.75967 5.81391e-21 0.932049)
(9.63254 -7.42337e-22 1.14851)
(9.69067 1.3141e-20 1.08707)
(9.54686 -6.21409e-21 1.3172)
(9.61387 -1.34977e-20 1.25258)
(9.45298 2.83322e-20 1.49855)
(9.52951 6.9736e-21 1.43007)
(9.351 2.11903e-20 1.69409)
(9.43776 2.16771e-20 1.62105)
(9.24098 -1.87813e-20 1.90547)
(9.33878 -2.6997e-20 1.8271)
(9.12293 -1.46482e-20 2.13443)
(9.2327 8.86793e-21 2.04992)
(8.9968 2.00242e-20 2.38289)
(9.11962 -3.42882e-21 2.29136)
(8.86244 7.55007e-21 2.65301)
(8.9996 2.39259e-20 2.55344)
(8.71957 2.62062e-20 2.94719)
(8.87262 -4.64557e-20 2.83847)
(8.56774 -1.89708e-20 3.26828)
(8.73857 5.01217e-20 3.14909)
(8.40618 -6.05135e-20 3.61961)
(8.59718 -3.709e-20 3.4884)
(8.23377 -1.7921e-20 4.00527)
(8.44801 -1.71461e-20 3.86017)
(8.04881 -8.78977e-21 4.43036)
(8.29032 -1.70423e-20 4.26905)
(7.84875 0 4.90142)
(8.12302 8.41548e-21 4.72095)
(7.62979 -1.95592e-20 5.42714)
(7.94446 7.87625e-21 5.22368)
(7.38607 -3.7485e-20 6.01938)
(7.75226 -1.14668e-20 5.78781)
(7.10826 -1.79399e-20 6.69501)
(7.54294 -9.58245e-21 6.42833)
(6.78074 0 7.47922)
(7.31138 4.62689e-20 7.16755)
(6.37532 -1.62452e-20 8.41262)
(7.05059 -4.57448e-20 8.04113)
(5.83545 6.12284e-20 9.56722)
(6.74839 4.92267e-20 9.11259)
(5.02541 7.70535e-21 11.1218)
(6.43848 6.05982e-20 10.5137)
(3.47372 -5.28999e-20 13.5681)
(6.06518 -9.63288e-20 12.6695)
(5.27914 -1.23633e-20 17.0967)
(-0.295394 0 0.277896)
(-0.162593 0 0.260803)
(-0.900305 -3.04494e-20 0.398002)
(-0.670144 2.85064e-19 0.522171)
(-1.6793 -3.13622e-20 0.452663)
(-1.42592 -2.38069e-19 0.650361)
(-2.56091 0 0.475404)
(-2.27967 0 0.724328)
(-3.50127 0 0.479495)
(-3.1988 3.11744e-20 0.765198)
(-4.47334 0 0.472207)
(-4.15554 0 0.784222)
(-5.45858 -1.825e-20 0.457095)
(-5.13085 0 0.787091)
(-6.44234 8.11296e-21 0.435941)
(-6.10981 -1.84056e-20 0.776782)
(-7.41137 2.7472e-20 0.409657)
(-7.07934 3.63346e-20 0.754863)
(-8.35253 0 0.378693)
(-8.02662 0 0.722076)
(-9.25201 1.12263e-20 0.343261)
(-8.93826 0 0.678676)
(-10.0948 6.401e-21 0.303454)
(-9.79989 1.13389e-20 0.624631)
(-10.8644 -5.35729e-21 0.259339)
(-10.5956 -4.60917e-20 0.559798)
(-11.543 0 0.211033)
(-11.3077 2.27938e-20 0.48411)
(-12.1119 0 0.15876)
(-11.9176 1.8017e-20 0.397771)
(-12.5518 3.03265e-21 0.102834)
(-12.406 0 0.301434)
(-12.8442 -2.84172e-21 0.0435443)
(-12.7538 3.06519e-21 0.196234)
(-12.9712 -7.48224e-21 -0.0189924)
(-12.9422 -3.03229e-21 0.0835161)
(-12.9162 1.30047e-21 -0.0848149)
(-12.9531 -1.41076e-21 -0.0354558)
(-12.6649 1.54475e-21 -0.153119)
(-12.7734 -1.34916e-21 -0.158489)
(-12.2101 -1.66703e-22 -0.222067)
(-12.3962 2.3418e-21 -0.280817)
(-11.5505 1.8281e-22 -0.290287)
(-11.8179 -2.29599e-21 -0.398874)
(-10.6876 -9.4861e-22 -0.357497)
(-11.0391 -4.25011e-23 -0.511133)
(-9.62349 5.76297e-22 -0.424483)
(-10.0621 0 -0.617413)
(-8.35893 1.91245e-22 -0.493793)
(-8.88903 6.30459e-23 -0.71878)
(-6.88867 -4.05285e-22 -0.572606)
(-7.5141 -7.91663e-23 -0.818838)
(-5.18324 8.193e-23 -0.680105)
(-5.91374 -5.44453e-22 -0.930837)
(-3.1349 8.35879e-23 -0.855689)
(-4.07655 1.80621e-22 -1.0959)
(-0.49678 6.37208e-23 -1.40535)
(-2.12902 0 -1.38389)
(2.15472 -2.84343e-22 -2.33016)
(-0.53416 2.84251e-19 0.694942)
(-0.275975 5.15569e-19 0.799174)
(-1.22746 6.95975e-20 0.91162)
(-0.872603 -2.08957e-19 1.14299)
(-2.03201 -2.14367e-19 1.03598)
(-1.66437 -2.12449e-19 1.33932)
(-2.91286 3.09131e-20 1.1111)
(-2.51373 2.51325e-19 1.46129)
(-3.84157 3.14579e-20 1.15186)
(-3.41126 -4.99949e-19 1.53077)
(-4.79696 0 1.16738)
(-4.33769 2.82516e-19 1.56211)
(-5.7627 0 1.16264)
(-5.27837 0 1.56365)
(-6.72496 9.34955e-21 1.14034)
(-6.22064 1.09574e-19 1.54012)
(-7.67082 9.52328e-21 1.10181)
(-7.15267 -8.05611e-20 1.49409)
(-8.58723 0 1.04755)
(-8.06243 -2.00346e-20 1.42676)