/*--------------------------------*- C++ -*----------------------------------*\
| =========                 |                                                 |
| \\      /  F ield         | OpenFOAM: The Open Source CFD Toolbox           |
|  \\    /   O peration     | Version:  dev                                   |
|   \\  /    A nd           | Web:      www.OpenFOAM.org                      |
|    \\/     M anipulation  |                                                 |
\*---------------------------------------------------------------------------*/
FoamFile
{
    version     2.0;
    format      ascii;
    class       surfaceScalarField;
    location    "1.05";
    object      phi;
}
// * * * * * * * * * * * * * * * * * * * * * * * * * * * * * * * * * * * * * //

dimensions      [0 3 -1 0 0 0 0];

internalField   nonuniform List<scalar> 
865
(
0.0901256
0.00930931
0.0802207
0.00991333
0.0696972
0.0105313
0.0585458
0.011158
0.0467647
0.0117863
0.0343618
0.0124065
0.0213618
0.0130022
0.00790831
0.0134544
0.00790855
0.108271
0.0183388
0.0985418
0.0196508
0.088058
0.0210229
0.0767554
0.0224673
0.0645444
0.0240026
0.0513024
0.0256521
0.0368552
0.0274517
0.0205408
0.0297698
0.0284496
0.115639
0.0267841
0.106416
0.0288828
0.0963014
0.0311454
0.085148
0.0336276
0.0727134
0.0364425
0.0586054
0.0397639
0.0422746
0.0437848
0.0228407
0.0492047
0.0512907
0.118678
0.0349097
0.109708
0.0378606
0.099707
0.0411548
0.0884448
0.0448966
0.0756041
0.0492886
0.0606479
0.054724
0.0428268
0.0616083
0.0222259
0.0698067
0.0735169
0.119792
0.0429862
0.110805
0.0468557
0.100678
0.0512896
0.0890888
0.0564929
0.0756679
0.0627151
0.0600077
0.0703882
0.0414137
0.0802049
0.0207867
0.0904347
0.0943039
0.120084
0.051184
0.110881
0.0560669
0.100439
0.0617397
0.088441
0.0684975
0.0744477
0.076714
0.0582103
0.0866296
0.0392923
0.0991254
0.0191693
0.110559
0.113473
0.120094
0.0595862
0.110609
0.0655599
0.099757
0.0725992
0.0872782
0.0809832
0.0728069
0.0911907
0.0561351
0.103305
0.0370727
0.11819
0.0176312
0.130001
0.131105
0.120131
0.0682231
0.110345
0.0753531
0.0991183
0.0838333
0.0861453
0.0939628
0.071212
0.106129
0.0542308
0.12029
0.0351804
0.137243
0.0164512
0.148731
0.147556
0.120423
0.0770493
0.110345
0.0854382
0.0987786
0.0954063
0.0854144
0.107333
0.0700788
0.12147
0.0528641
0.137508
0.0339687
0.15614
0.0158827
0.166818
0.163438
0.121129
0.0859972
0.110866
0.0957074
0.0990644
0.107214
0.0854752
0.120928
0.0698866
0.137063
0.0524854
0.154912
0.0338471
0.174779
0.0162103
0.184454
0.179649
0.122429
0.0949559
0.112161
0.10598
0.100331
0.119048
0.0867037
0.134559
0.0711065
0.152663
0.0537547
0.172264
0.0355016
0.193031
0.017927
0.202028
0.197575
0.124462
0.103749
0.114408
0.116037
0.102851
0.130608
0.0895467
0.147867
0.0744122
0.167798
0.0576313
0.189044
0.0399733
0.210688
0.0219711
0.220029
0.219546
0.127409
0.112147
0.117868
0.12558
0.106999
0.141478
0.0946287
0.160237
0.080738
0.181687
0.0653391
0.204441
0.0488926
0.227131
0.0303762
0.238544
0.249922
0.131443
0.119869
0.122807
0.134215
0.113168
0.151115
0.102565
0.170837
0.091099
0.193149
0.0786849
0.21685
0.065429
0.240383
0.0475749
0.256396
0.297497
0.136311
0.126661
0.128967
0.141554
0.121184
0.158893
0.113292
0.178723
0.10573
0.200704
0.0988193
0.223754
0.0928665
0.246332
0.0830448
0.266217
0.380542
0.0078129
-0.00781379
0.013496
-0.00568849
0.0183571
-0.00488008
0.0224329
-0.00411571
0.0255499
-0.00317172
0.0273727
-0.00187609
0.0276331
-0.000301135
0.0263117
0.00129349
0.0235807
0.00271034
0.00391592
0.00378824
-0.011603
0.00754494
-0.00945098
0.0105943
-0.00794955
0.0124618
-0.0060242
0.0128137
-0.0035781
0.0115521
-0.000666243
0.00887625
0.00233569
0.00502498
0.00511824
0.00015213
0.00756356
0.00955717
0.0013706
-0.0129746
0.00262345
-0.0107103
0.00315642
-0.00850378
0.00247192
-0.00538064
0.000360288
-0.00151843
-0.00295543
0.00260158
-0.00724902
0.00659357
-0.0124066
0.0102512
-0.0182649
0.0134032
0.0159566
-0.000416487
-0.0125593
-0.00143039
-0.00970364
-0.00324447
-0.00671158
-0.00613974
-0.00252441
-0.0100161
0.00231108
-0.0147095
0.00725298
-0.0201171
0.0119696
-0.0261026
0.0162141
-0.0325519
0.0198345
0.0227697
-0.00199132
-0.0105694
-0.00495997
-0.00674299
-0.00870067
-0.00299263
-0.0132625
0.00200188
-0.01846
0.00746832
-0.0241833
0.0129407
-0.030314
0.0180729
-0.0367749
0.0226545
-0.0435178
0.0265599
0.0297495
-0.00342556
-0.0071455
-0.00798709
-0.00218992
-0.0132333
0.00223299
-0.019033
0.00777067
-0.0251881
0.0135901
-0.0315607
0.0192841
-0.0380767
0.0245655
-0.0447285
0.0292874
-0.0515381
0.0333527
0.0367131
-0.00458905
-0.00255834
-0.0104276
0.00364022
-0.0168338
0.00862063
-0.0235032
0.0144144
-0.0302106
0.020271
-0.0368597
0.0259096
-0.04346
0.0311458
-0.0500722
0.0358825
-0.0567699
0.0400343
0.0435276
-0.00535066
0.00279032
-0.0122907
0.0105725
-0.0194951
0.0158093
-0.0265903
0.021489
-0.0334205
0.0270805
-0.0399977
0.0324678
-0.0464197
0.0375508
-0.0528058
0.0422529
-0.0592579
0.0464709
0.0501003
-0.0058372
0.00862553
-0.0136008
0.0183295
-0.0210981
0.0232941
-0.0281027
0.0284779
-0.0346325
0.0335942
-0.0408273
0.0386472
-0.0468573
0.0435661
-0.0528709
0.0482521
-0.0589845
0.05257
0.0563798
-0.00622066
0.0148443
-0.0142044
0.0263078
-0.0213743
0.0304544
-0.0277564
0.0348482
-0.0335974
0.0394226
-0.0391488
0.0441859
-0.0446229
0.0490273
-0.0501739
0.05379
-0.0559127
0.058295
0.0623569
-0.00630876
0.0211515
-0.013827
0.0338219
-0.0199377
0.0365581
-0.0251746
0.0400762
-0.0300065
0.0442446
-0.034743
0.0489116
-0.0395882
0.0538612
-0.0446631
0.0588527
-0.0500368
0.0636557
0.0680415
-0.0059266
0.0270768
-0.0119927
0.039885
-0.0162289
0.040789
-0.0199004
0.0437408
-0.0235767
0.0479128
-0.0274836
0.0528093
-0.0317316
0.0580989
-0.0363596
0.0634695
-0.0413813
0.0686652
0.0734456
-0.00445961
0.0315355
-0.00775898
0.0431821
-0.00958406
0.0426101
-0.0116366
0.0457877
-0.0142391
0.0505083
-0.0174095
0.0559714
-0.0211133
0.0617933
-0.02532
0.0676657
-0.029999
0.0733326
0.0785812
-0.000995223
0.0325301
-0.000264091
0.0424491
0.000311561
0.0420309
-0.000434208
0.0465284
-0.00214175
0.0522094
-0.00464319
0.0584651
-0.00783361
0.0649749
-0.0116408
0.071463
-0.0159896
0.0776704
0.0834626
0.00818819
0.0243414
0.0124683
0.0381669
0.013007
0.0414886
0.0130161
0.0465144
0.0122581
0.0529612
0.0105373
0.0601786
0.00793764
0.0675662
0.00456957
0.0748216
0.00050016
0.0817294
0.148639
0.132306
0.142949
0.147235
0.137605
0.164229
0.133303
0.183015
0.131086
0.202911
0.132393
0.222439
0.139248
0.239471
0.154659
0.250804
0.254258
0.280944
0.160276
0.136443
0.156666
0.150833
0.154234
0.166647
0.154005
0.18323
0.157422
0.199481
0.166348
0.213503
0.183223
0.22259
0.209108
0.224917
0.22852
0.234846
0.173431
0.138879
0.172057
0.152189
0.172552
0.166135
0.17589
0.179873
0.183063
0.192293
0.194559
0.201995
0.209669
0.207473
0.225931
0.208652
0.207486
0.246964
0.187634
0.188396
0.151405
0.191294
0.163214
0.196878
0.174269
0.205429
0.183725
0.216654
0.190757
0.229751
0.194367
0.244262
0.194137
0.18972
0.262026
0.204979
0.209405
0.216005
0.167645
0.224754
0.174956
0.235368
0.180127
0.247309
0.182417
0.259879
0.181561
0.177007
0.272588
0.233352
0.24193
0.251852
0.170188
0.262545
0.171712
0.27318
0.170918
0.166862
0.28332
0.266832
0.276459
0.285895
0.161473
0.157945
0.294806
0.298395
0.306541
0.177184
0.10376
0.109082
0.0681014
0.0478374
0.061244
0.229452
0.109155
0.211711
0.085842
0.0720212
0.187527
0.255004
0.101115
0.251197
0.0896483
0.082999
0.240219
0.268116
0.0950242
0.268861
0.0889025
0.0863976
0.265462
0.277994
0.0896157
0.281025
0.0858711
0.0855153
0.281907
0.288304
0.0846288
0.292118
0.0820557
0.0827506
0.294882
0.299302
0.0801294
0.30316
0.0781964
0.0793387
0.306571
0.310675
0.314407
0.0744629
0.0757629
0.317982
0.325891
0.329472
0.0288965
0.0566876
0.0253043
0.0417567
0.0269189
0.0398701
0.0292208
0.0442075
0.0301095
0.0520663
0.0294194
0.0608614
0.0274596
0.0695177
0.0244965
0.0777755
0.0855042
0.137458
0.106755
0.098978
0.0802342
0.0744615
0.0643826
0.0612186
0.0574453
0.0553447
0.057934
0.0525866
0.0636124
0.0503386
0.0717576
0.0476108
0.0804943
0.0889318
0.208726
0.138247
0.173648
0.115309
0.141474
0.0965535
0.115415
0.0834993
0.0970886
0.0762543
0.0858267
0.0748674
0.0792226
0.0783539
0.0748128
0.0848953
0.0927285
0.248968
0.15474
0.225408
0.138866
0.198955
0.123003
0.17271
0.10974
0.14926
0.0996983
0.130584
0.0935367
0.117251
0.0916794
0.10834
0.0937979
0.0988257
0.275601
0.161045
0.2623
0.152166
0.2441
0.1412
0.223138
0.130698
0.201432
0.1214
0.180954
0.114008
0.163405
0.109221
0.14969
0.107506
0.108827
0.29497
0.160957
0.289335
0.157799
0.27877
0.151764
0.264448
0.145017
0.247658
0.138185
0.229774
0.131886
0.212271
0.126718
0.19651
0.123259
0.121916
0.310211
0.157318
0.309841
0.158168
0.305421
0.156181
0.297359
0.153077
0.286291
0.149249
0.273053
0.14512
0.258608
0.141157
0.244051
0.137809
0.135512
0.323399
0.151901
0.32637
0.155196
0.326431
0.156119
0.323522
0.155984
0.317807
0.154961
0.309662
0.15326
0.299621
0.151192
0.288376
0.149047
0.14715
0.335719
0.340655
0.150259
0.343731
0.153042
0.344694
0.155018
0.343419
0.156233
0.339947
0.156728
0.334506
0.156628
0.327436
0.15611
0.155355
0.353761
0.358742
0.36239
0.364477
0.154142
0.364872
0.156329
0.363568
0.157927
0.360668
0.159003
0.159622
0.382252
0.385584
0.387645
0.15586
0.388401
0.158241
0.160119
0.40775
0.411423
0.1574
)
;

boundaryField
{
    inlet
    {
        type            calculated;
        value           nonuniform 0();
    }
    outlet
    {
        type            calculated;
        value           nonuniform 0();
    }
    flap
    {
        type            calculated;
        value           nonuniform List<scalar> 
33
(
0
0
0
-2.46519e-32
0
-7.39557e-32
0
1.47911e-31
0
3.9443e-31
0
8.55285e-50
0
-4.93038e-31
-2.46519e-31
1.35585e-31
-4.93038e-32
0
-1.19408e-32
1.2326e-32
0
2.46519e-32
0
0
0
7.39557e-32
0
1.47911e-31
1.71057e-49
1.97215e-31
1.47911e-31
4.93038e-32
0
)
;
    }
    upperWall
    {
        type            calculated;
        value           nonuniform 0();
    }
    lowerWall
    {
        type            calculated;
        value           uniform 0;
    }
    frontAndBack
    {
        type            empty;
        value           nonuniform 0();
    }
    procBoundary4to1
    {
        type            processor;
        value           nonuniform List<scalar> 
30
(
0.139578
-0.202505
0.148907
0.158762
-0.226379
0.160647
0.166357
-0.257614
0.160952
0.162072
-0.289724
0.15279
0.149792
0.0759914
-0.322275
0.0708453
0.0721798
0.145653
-0.347737
0.144233
0.148058
0.151368
-0.377799
0.149685
0.152993
-0.403179
0.151282
0.154561
-0.430732
0.152193
)
;
    }
    procBoundary4to2
    {
        type            processor;
        value           nonuniform List<scalar> 
11
(
0.0710063
0.102234
0.139679
0.183413
0.230446
0.276731
0.319224
0.356395
0.387897
0.414136
0.435932
)
;
    }
    procBoundary4to3
    {
        type            processor;
        value           nonuniform List<scalar> 
19
(
-0.0994269
-0.117292
-0.124077
-0.126795
-0.12786
-0.128274
-0.128489
-0.128761
-0.129244
-0.130073
-0.131385
-0.133253
-0.135807
-0.139168
-0.143109
-0.154293
-0.164425
-0.175883
-0.188351
)
;
    }
    procBoundary4to5
    {
        type            processor;
        value           nonuniform List<scalar> 
18
(
0.0196487
-0.0055049
-0.02468
-0.0393809
-0.0505137
-0.0585179
-0.0636005
-0.0658464
-0.0652794
-0.0619046
-0.0557355
-0.0467989
-0.0351476
-0.0208836
-0.00419269
0.0881434
0.0207114
0.0441733
)
;
    }
}


// ************************************************************************* //
