/*--------------------------------*- C++ -*----------------------------------*\
| =========                 |                                                 |
| \\      /  F ield         | OpenFOAM: The Open Source CFD Toolbox           |
|  \\    /   O peration     | Version:  dev                                   |
|   \\  /    A nd           | Web:      www.OpenFOAM.org                      |
|    \\/     M anipulation  |                                                 |
\*---------------------------------------------------------------------------*/
FoamFile
{
    version     2.0;
    format      ascii;
    class       surfaceScalarField;
    location    "1.13";
    object      phi;
}
// * * * * * * * * * * * * * * * * * * * * * * * * * * * * * * * * * * * * * //

dimensions      [0 3 -1 0 0 0 0];

internalField   nonuniform List<scalar> 
881
(
0.0582753
0.0486571
0.0540089
0.0943295
0.0588148
0.0879077
0.0604139
0.0837927
0.0643848
0.0697854
0.1445
0.075326
0.131495
0.0734025
0.122011
0.0738533
0.115336
0.0764434
0.0805705
0.200467
0.0931876
0.184167
0.0896883
0.170241
0.087765
0.15908
0.0875886
0.15054
0.0890962
0.144036
0.0919415
0.0955567
0.253784
0.108902
0.23807
0.10539
0.223106
0.102715
0.209599
0.101082
0.198048
0.100634
0.188606
0.101372
0.181057
0.103097
0.174925
0.10543
0.107888
0.300446
0.120886
0.287604
0.118222
0.274408
0.1159
0.261421
0.114057
0.249217
0.112827
0.238269
0.11231
0.228845
0.112513
0.220952
0.113316
0.21437
0.114468
0.115617
0.339437
0.128727
0.330388
0.127262
0.32043
0.125849
0.30992
0.124557
0.299275
0.123462
0.288937
0.12264
0.279302
0.122141
0.270653
0.121962
0.263101
0.122018
0.256589
0.122133
0.250911
0.122056
0.121495
0.371174
0.132656
0.366008
0.132421
0.359758
0.13209
0.352622
0.131686
0.344847
0.131229
0.336731
0.130749
0.328597
0.130271
0.320751
0.129806
0.313439
0.129332
0.306798
0.128777
0.300849
0.128013
0.295494
0.126863
0.125128
0.396717
0.133245
0.395053
0.134079
0.392371
0.134766
0.388754
0.135296
0.384325
0.135653
0.379244
0.135825
0.373711
0.135801
0.367947
0.13557
0.36217
0.135111
0.356564
0.134388
0.351251
0.133336
0.346266
0.13186
0.341563
0.129848
0.337013
0.127184
0.123775
0.417359
0.131201
0.418584
0.132849
0.418989
0.134356
0.418585
0.135695
0.417409
0.136827
0.415521
0.13771
0.413015
0.138306
0.410009
0.138577
0.406639
0.138485
0.403043
0.137992
0.399338
0.137051
0.395603
0.135609
0.391863
0.133606
0.388083
0.130987
0.384169
0.127714
0.123798
0.434387
0.127217
0.437824
0.129409
0.440687
0.13149
0.442951
0.133428
0.444602
0.135174
0.445639
0.136673
0.446078
0.137868
0.445956
0.138702
0.445327
0.13912
0.444256
0.139072
0.442811
0.138508
0.441048
0.137388
0.439
0.135674
0.436667
0.133343
0.434013
0.130395
0.430977
0.126865
0.427484
0.12284
0.118463
0.448932
0.121901
0.453948
0.124391
0.45863
0.126808
0.46294
0.129117
0.466843
0.131271
0.470304
0.133213
0.473296
0.134879
0.475802
0.136202
0.477812
0.137117
0.479331
0.137563
0.480368
0.137485
0.480933
0.136839
0.481034
0.135594
0.480663
0.133737
0.479802
0.131284
0.478417
0.128281
0.476475
0.124816
0.473953
0.121023
0.11708
0.461886
0.115721
0.467966
0.118312
0.473906
0.120868
0.479675
0.123349
0.485235
0.125713
0.490543
0.127908
0.495551
0.129874
0.500215
0.131545
0.504489
0.132852
0.508334
0.13373
0.511715
0.134119
0.514599
0.133972
0.516958
0.133256
0.51876
0.13196
0.519976
0.130097
0.520575
0.127714
0.520534
0.124892
0.519844
0.121751
0.518519
0.118446
0.115078
0.473904
0.108982
0.480662
0.111557
0.487423
0.114108
0.494166
0.116608
0.500861
0.119022
0.507467
0.121307
0.513938
0.123409
0.520221
0.12527
0.526257
0.126827
0.531983
0.128016
0.537339
0.128779
0.542264
0.129067
0.546699
0.128844
0.550589
0.128096
0.553883
0.126832
0.556539
0.12509
0.558528
0.122939
0.559836
0.120483
0.560471
0.117853
0.560462
0.115132
0.113744
0.485403
0.101897
0.492585
0.104377
0.499868
0.106829
0.507229
0.109252
0.51465
0.111606
0.522104
0.113859
0.529554
0.115967
0.536951
0.117883
0.544238
0.119552
0.551349
0.12092
0.558213
0.121932
0.564756
0.122544
0.570904
0.12272
0.576584
0.122442
0.58173
0.121715
0.586286
0.120567
0.590207
0.119055
0.593468
0.117261
0.596063
0.115301
0.598003
0.113238
0.112415
0.496633
0.0945859
0.504099
0.0969166
0.511707
0.0992257
0.519448
0.101517
0.527314
0.103746
0.53529
0.105891
0.543349
0.107918
0.551453
0.10979
0.559556
0.111464
0.567597
0.112894
0.57551
0.114038
0.583221
0.114854
0.590651
0.115313
0.597724
0.115397
0.604365
0.115105
0.610507
0.114459
0.616097
0.113502
0.621095
0.112303
0.625483
0.110957
0.629251
0.109516
0.109227
0.50778
0.0871052
0.515429
0.0892738
0.523235
0.0914255
0.531211
0.0935485
0.539347
0.0956182
0.547634
0.0976132
0.556054
0.0995087
0.564581
0.101276
0.573177
0.102882
0.581795
0.104294
0.590377
0.105475
0.598859
0.106395
0.607169
0.107029
0.615233
0.107362
0.622978
0.107392
0.630336
0.107135
0.637249
0.106627
0.64367
0.105923
0.64957
0.105101
0.654929
0.104205
0.104375
0.518931
0.0795119
0.526694
0.0815176
0.534637
0.0834899
0.542769
0.0854245
0.551077
0.0873199
0.559554
0.0891469
0.568188
0.0908867
0.576959
0.0925178
0.585841
0.0940164
0.594796
0.0953567
0.603778
0.0965132
0.612734
0.0974623
0.621604
0.0981854
0.630323
0.0986716
0.638826
0.0989206
0.647051
0.0989455
0.654942
0.0987751
0.662451
0.0984551
0.669546
0.0980511
0.676202
0.0975969
0.098124
0.530148
0.0718416
0.538009
0.0736641
0.546062
0.0754449
0.5543
0.0771953
0.562724
0.0789068
0.571325
0.0805572
0.580093
0.0821311
0.589013
0.0836122
0.598063
0.0849829
0.607214
0.0862243
0.616431
0.0873179
0.62567
0.088247
0.634884
0.0889989
0.644018
0.0895665
0.65302
0.0899516
0.661836
0.090166
0.670416
0.0902342
0.678719
0.0901945
0.686714
0.0901015
0.694378
0.089982
0.0907537
0.541541
0.0640994
0.549483
0.0657291
0.557611
0.0673257
0.565929
0.0688866
0.574444
0.0704029
0.583137
0.0718757
0.592
0.073281
0.601021
0.0746068
0.610181
0.0758401
0.619457
0.0769675
0.628821
0.0779761
0.638238
0.0788544
0.64767
0.0795942
0.657074
0.0801922
0.666408
0.0806514
0.675627
0.0809833
0.684692
0.0812092
0.693568
0.0813613
0.702231
0.0814851
0.710662
0.0816012
0.0825129
0.553189
0.0562957
0.561188
0.057737
0.569381
0.0591411
0.577778
0.0604984
0.586368
0.0618238
0.595136
0.0631193
0.604076
0.0643551
0.613175
0.0655226
0.62242
0.0666129
0.63179
0.0676171
0.641261
0.0685263
0.650807
0.0693332
0.660396
0.0700329
0.669995
0.0706245
0.679567
0.0711123
0.689081
0.071507
0.698503
0.0718271
0.707808
0.0720998
0.716978
0.0723627
0.725998
0.0726315
0.0735967
0.565179
0.0484417
0.573237
0.0496851
0.581502
0.0508835
0.589963
0.0520463
0.598607
0.0531896
0.607439
0.0542986
0.616448
0.0553599
0.62562
0.0563652
0.634942
0.057308
0.644397
0.058182
0.653964
0.0589815
0.66362
0.0597017
0.67334
0.0603403
0.683098
0.0608979
0.692865
0.0613793
0.702615
0.0617943
0.712324
0.0621591
0.721972
0.062496
0.731547
0.0628359
0.74104
0.0631903
0.0641394
0.577626
0.0405351
0.585746
0.0415702
0.594067
0.042568
0.602575
0.0435457
0.611277
0.0444967
0.620176
0.0454102
0.629254
0.0462949
0.638498
0.0471354
0.647896
0.0479267
0.657433
0.0486646
0.667091
0.0493452
0.676851
0.049966
0.686693
0.0505261
0.696595
0.0510271
0.706534
0.0514739
0.716491
0.0518752
0.726446
0.0522446
0.736387
0.0526005
0.746304
0.0529678
0.756191
0.0533559
0.0542411
0.590642
0.0325716
0.598818
0.0333972
0.60719
0.0341997
0.61576
0.0349816
0.624535
0.0357294
0.633501
0.0364531
0.642646
0.0371616
0.651959
0.0378358
0.661429
0.0384721
0.671044
0.039068
0.680789
0.0396214
0.690648
0.0401312
0.700604
0.0405977
0.710639
0.0410227
0.720736
0.041411
0.730879
0.0417699
0.741054
0.0421107
0.751252
0.0424482
0.761467
0.0428021
0.771698
0.0431794
0.0439533
0.604378
0.0245432
0.612615
0.0251606
0.621054
0.0257631
0.629696
0.0263425
0.638538
0.0268928
0.647567
0.0274324
0.656776
0.0279622
0.666156
0.0284677
0.675697
0.028946
0.685387
0.0293954
0.695214
0.0298148
0.705164
0.0302041
0.715225
0.0305641
0.725381
0.0308969
0.735619
0.0312064
0.745928
0.0314989
0.756297
0.0317832
0.76672
0.0320711
0.777194
0.0323787
0.787714
0.0327137
0.0333613
0.61897
0.0164404
0.627279
0.0168488
0.635794
0.0172475
0.644508
0.0176295
0.653412
0.0179912
0.662503
0.0183469
0.671776
0.0186972
0.681222
0.0190323
0.69083
0.0193505
0.700591
0.0196503
0.710494
0.0199313
0.720527
0.0201935
0.73068
0.0204377
0.740941
0.0206658
0.7513
0.0208807
0.761749
0.0210872
0.772283
0.0212917
0.782897
0.021503
0.793594
0.0217331
0.804375
0.0219882
0.0224552
0.634627
0.00825321
0.643014
0.00845574
0.651605
0.00865336
0.66039
0.00884256
0.66936
0.00902139
0.678512
0.00919739
0.687844
0.00937092
0.697348
0.00953708
0.707014
0.00969514
0.716835
0.00984439
0.726799
0.00998451
0.736898
0.0101156
0.747123
0.0102381
0.757465
0.0103531
0.767917
0.0104623
0.778473
0.0105684
0.789131
0.0106753
0.799892
0.0107891
0.810757
0.0109195
0.821722
0.0110802
0.0114027
0.640747
0.649194
0.657841
0.666679
0.675699
0.684897
0.694272
0.703816
0.713521
0.723379
0.73338
0.743516
0.753779
0.764161
0.774656
0.785263
0.79598
0.806817
0.817789
0.828927
)
;

boundaryField
{
    inlet
    {
        type            calculated;
        value           nonuniform 0();
    }
    outlet
    {
        type            calculated;
        value           nonuniform List<scalar> 
15
(
0.559906
0.599381
0.632488
0.659831
0.682504
0.7018
0.718955
0.734969
0.750552
0.766145
0.782043
0.798365
0.815341
0.832835
0.840392
)
;
    }
    flap
    {
        type            calculated;
        value           nonuniform 0();
    }
    upperWall
    {
        type            calculated;
        value           nonuniform List<scalar> 
21
(
0
0
0
0
0
0
0
0
0
8.40576e-15
0
0
0
0
0
0
0
0
0
0
0
)
;
    }
    lowerWall
    {
        type            calculated;
        value           nonuniform 0();
    }
    frontAndBack
    {
        type            empty;
        value           nonuniform 0();
    }
    procBoundary2to1
    {
        type            processor;
        value           nonuniform List<scalar> 
17
(
-0.443618
-0.455707
-0.467165
-0.478316
-0.489318
-0.500295
-0.511332
-0.522471
-0.533792
-0.54538
-0.55732
-0.569716
-0.582678
-0.596352
-0.610872
-0.626449
-0.632505
)
;
    }
    procBoundary2to4
    {
        type            processor;
        value           nonuniform List<scalar> 
11
(
-0.0608594
-0.104503
-0.161025
-0.218342
-0.26951
-0.312441
-0.347287
-0.375111
-0.397311
-0.415319
-0.430406
)
;
    }
    procBoundary2to5
    {
        type            processor;
        value           nonuniform List<scalar> 
34
(
-0.0460893
-0.0523652
0.0566145
-0.060287
-0.0666683
0.080659
-0.075682
0.110432
-0.085451
-0.09033
0.1388
-0.0993042
-0.102615
0.16965
-0.109974
0.20873
-0.11637
-0.116352
0.245781
-0.120161
0.290545
-0.122612
-0.11916
0.332425
-0.119589
0.379991
-0.119313
-0.114412
0.423471
-0.113941
0.470855
-0.113116
0.516602
-0.113141
)
;
    }
}


// ************************************************************************* //
