/*--------------------------------*- C++ -*----------------------------------*\
| =========                 |                                                 |
| \\      /  F ield         | OpenFOAM: The Open Source CFD Toolbox           |
|  \\    /   O peration     | Version:  dev                                   |
|   \\  /    A nd           | Web:      www.OpenFOAM.org                      |
|    \\/     M anipulation  |                                                 |
\*---------------------------------------------------------------------------*/
FoamFile
{
    version     2.0;
    format      ascii;
    class       volVectorField;
    location    "1.81";
    object      Force;
}
// * * * * * * * * * * * * * * * * * * * * * * * * * * * * * * * * * * * * * //

dimensions      [1 1 -2 0 0 0 0];

internalField   uniform (0 0 0);

boundaryField
{
    inlet
    {
        type            calculated;
        value           uniform (0 0 0);
    }
    outlet
    {
        type            calculated;
        value           uniform (0 0 0);
    }
    flap
    {
        type            calculated;
        value           nonuniform List<vector> 
33
(
(2.41 2.19938e-17 -0.200077)
(2.35301 -2.75575e-22 -0.485603)
(2.20863 2.00334e-17 -0.744627)
(1.98794 3.82075e-22 -0.917727)
(1.7299 1.95371e-17 -1.00577)
(1.47026 5.43335e-21 -1.02503)
(1.23179 8.19789e-18 -0.995818)
(1.02687 -3.23742e-21 -0.936427)
(0.856908 -6.37822e-18 -0.860592)
(0.717903 -7.59869e-23 -0.776741)
(0.603423 1.64834e-17 -0.68928)
(0.504316 -4.1909e-18 -0.59753)
(0.411214 -3.4763e-18 -0.497553)
(0.314488 1.31294e-17 -0.382516)
(0.201015 -5.5836e-38 -0.24342)
(0.64844 2.05468e-17 0.52065)
(0.428541 -1.48205e-18 0.342258)
(0.206809 2.31012e-21 0.166851)
(0.0626985 0 -0.00535911)
(0.0621845 -2.32678e-17 -0.0129614)
(0.0611069 1.19325e-17 -0.0208564)
(0.0595238 8.80618e-23 -0.0277314)
(0.0576346 0 -0.0338321)
(0.0556402 1.27077e-17 -0.0391938)
(0.0537307 1.36266e-17 -0.0439071)
(0.0520131 3.99748e-19 -0.0480172)
(0.0506055 1.39143e-17 -0.0515389)
(0.0495442 -1.7862e-38 -0.0544655)
(0.0487227 3.6275e-39 -0.0566973)
(0.0481386 -1.55296e-17 -0.0582644)
(0.047926 3.65578e-23 -0.0594217)
(0.0486009 2.03296e-17 -0.0602329)
(0.0576377 4.90911e-19 -0.0724773)
)
;
    }
    upperWall
    {
        type            calculated;
        value           uniform (0 0 0);
    }
    lowerWall
    {
        type            calculated;
        value           uniform (0 0 0);
    }
    frontAndBack
    {
        type            empty;
    }
}


// ************************************************************************* //
