/*--------------------------------*- C++ -*----------------------------------*\
| =========                 |                                                 |
| \\      /  F ield         | OpenFOAM: The Open Source CFD Toolbox           |
|  \\    /   O peration     | Version:  dev                                   |
|   \\  /    A nd           | Web:      www.OpenFOAM.org                      |
|    \\/     M anipulation  |                                                 |
\*---------------------------------------------------------------------------*/
FoamFile
{
    version     2.0;
    format      ascii;
    class       surfaceScalarField;
    location    "0.58";
    object      phi;
}
// * * * * * * * * * * * * * * * * * * * * * * * * * * * * * * * * * * * * * //

dimensions      [0 3 -1 0 0 0 0];

internalField   nonuniform List<scalar> 
879
(
-0.197801
0.0192357
-0.215891
0.0180782
-0.232608
0.016707
-0.247741
0.0151229
-0.261059
0.0133087
-0.272316
0.0112501
-0.281258
0.00893703
-0.287613
0.00635257
-0.291102
0.00348908
-0.291438
0.00033935
-0.28827
-0.00316306
-0.281221
-0.00703978
-0.269896
-0.0113144
-0.253748
-0.0161344
-0.231967
-0.0217658
-0.203382
-0.028569
-0.166156
-0.0372073
-0.116299
-0.0498377
-0.0442233
-0.0720544
-0.108311
-0.19928
0.0375063
-0.216431
0.0352188
-0.232254
0.0325187
-0.246534
0.0293928
-0.259043
0.025809
-0.269539
0.0217384
-0.277764
0.017157
-0.283455
0.0120417
-0.286349
0.00638336
-0.286184
0.000176563
-0.282732
-0.00660897
-0.275751
-0.0140125
-0.264935
-0.0221189
-0.249879
-0.0311771
-0.230006
-0.0416237
-0.204474
-0.0540845
-0.172013
-0.0696505
-0.131012
-0.0908184
-0.0811893
-0.121857
-0.164305
-0.191259
0.0542175
-0.207016
0.0509647
-0.221613
0.047105
-0.234841
0.0426102
-0.246475
0.0374347
-0.256276
0.031532
-0.263987
0.0248626
-0.269347
0.0173989
-0.272097
0.00913388
-0.271999
8.10204e-05
-0.268837
-0.00976446
-0.262438
-0.0204034
-0.252607
-0.0319388
-0.239098
-0.0446735
-0.221564
-0.0591426
-0.19951
-0.0761223
-0.172342
-0.0968003
-0.139941
-0.1232
-0.103973
-0.157803
-0.198222
-0.179143
0.0693658
-0.193555
0.0653656
-0.207018
0.0605568
-0.219309
0.0548914
-0.230191
0.0483078
-0.239406
0.0407394
-0.246681
0.0321321
-0.251741
0.0224559
-0.254325
0.0117182
-0.25421
-3.1086e-05
-0.251238
-0.0127315
-0.245319
-0.0263138
-0.236384
-0.040863
-0.224339
-0.0567061
-0.209034
-0.0744323
-0.190265
-0.094875
-0.167922
-0.119125
-0.142568
-0.148535
-0.116445
-0.183905
-0.220454
-0.164428
0.0830219
-0.177541
0.0784683
-0.189893
0.0728977
-0.201249
0.0662365
-0.21135
0.0584004
-0.219923
0.0493046
-0.226681
0.0388843
-0.231341
0.0271131
-0.233649
0.0140262
-0.233412
-0.000265448
-0.230523
-0.0156156
-0.224978
-0.0318508
-0.216826
-0.0490047
-0.206116
-0.0674036
-0.192864
-0.0876696
-0.177087
-0.110636
-0.158983
-0.137211
-0.139386
-0.168113
-0.120439
-0.202832
-0.235596
-0.147493
0.0952297
-0.159323
0.0902881
-0.170555
0.0841186
-0.180948
0.0766198
-0.190238
0.0676807
-0.198138
0.0571968
-0.20435
0.0450916
-0.208584
0.031344
-0.210584
0.0160251
-0.210173
-0.000674059
-0.207298
-0.0184856
-0.20205
-0.0370913
-0.194592
-0.0564526
-0.185096
-0.0768866
-0.17371
-0.0990413
-0.160601
-0.123729
-0.146137
-0.151658
-0.131214
-0.183016
-0.117587
-0.216438
-0.245976
-0.128518
0.106021
-0.139073
0.100832
-0.149175
0.0942101
-0.158587
0.0860223
-0.167044
0.076128
-0.174253
0.0643983
-0.179908
0.050741
-0.183706
0.0351382
-0.185384
0.0177027
-0.184782
-0.00127437
-0.181893
-0.0213699
-0.176901
-0.0420756
-0.170086
-0.0632574
-0.161723
-0.0852373
-0.152047
-0.108704
-0.14131
-0.13445
-0.129946
-0.163004
-0.118804
-0.194139
-0.109217
-0.226006
-0.252888
-0.107651
0.115416
-0.116928
0.110098
-0.125888
0.10316
-0.134305
0.0944296
-0.141921
0.0837342
-0.148444
0.0709143
-0.153562
0.0558529
-0.156952
0.0385253
-0.158336
0.0190855
-0.157551
-0.0020579
-0.154633
-0.0242829
-0.149871
-0.0468304
-0.143666
-0.0694535
-0.136377
-0.0925143
-0.128282
-0.116785
-0.119655
-0.143062
-0.110924
-0.171718
-0.102845
-0.202199
-0.0964008
-0.23243
-0.257121
-0.0850618
0.123412
-0.0930479
0.118074
-0.100846
0.110948
-0.108251
0.101825
-0.115022
0.0904955
-0.120876
0.0767611
-0.125495
0.0604652
-0.12853
0.0415573
-0.12967
0.0202244
-0.12873
-0.00299678
-0.125788
-0.0272202
-0.121256
-0.0513554
-0.115654
-0.0750464
-0.109403
-0.0987533
-0.102784
-0.123391
-0.0960368
-0.149794
-0.0895398
-0.178198
-0.0839415
-0.207779
-0.0799953
-0.236356
-0.259194
-0.0609745
0.129989
-0.067635
0.124725
-0.0742295
0.117532
-0.0805832
0.108169
-0.0864828
0.0963861
-0.091668
0.0819386
-0.09582
0.0646114
-0.0985615
0.0442952
-0.0995312
0.0211929
-0.0984876
-0.00403902
-0.0955608
-0.0301429
-0.0913133
-0.0555963
-0.0863585
-0.0799922
-0.0811406
-0.10396
-0.0759092
-0.128609
-0.0708445
-0.154844
-0.066248
-0.182778
-0.0626512
-0.211358
-0.0606984
-0.23829
-0.259477
-0.0357007
0.135094
-0.0409705
0.129985
-0.0462811
0.122832
-0.0514931
0.113371
-0.0564342
0.101318
-0.0608829
0.0863798
-0.0645464
0.0682691
-0.0670285
0.0467737
-0.0679003
0.0220634
-0.0668305
-0.00510751
-0.0640466
-0.032923
-0.0602517
-0.0593849
-0.0560725
-0.0841628
-0.0519261
-0.108096
-0.048015
-0.132508
-0.0444531
-0.158391
-0.0414685
-0.185747
-0.039478
-0.213331
-0.0390918
-0.238657
-0.258267
-0.00964882
0.138662
-0.0134428
0.133769
-0.0173579
0.126738
-0.021284
0.117288
-0.0250918
0.105118
-0.0286122
0.0898929
-0.0316174
0.0712687
-0.0338131
0.0489658
-0.0346229
0.0228719
-0.0336159
-0.00611335
-0.0312694
-0.0352659
-0.0282431
-0.0624051
-0.0250684
-0.0873292
-0.0220891
-0.111065
-0.0194558
-0.135129
-0.0172354
-0.160597
-0.0156009
-0.187365
-0.0148913
-0.214023
-0.0156679
-0.237861
-0.255864
0.016652
0.140617
0.014422
0.13599
0.0120155
0.129135
0.00952982
0.119765
0.00706998
0.107569
0.00475435
0.0922014
0.00271202
0.0733055
0.00114781
0.0505265
0.000588888
0.0234296
0.00126419
-0.00678758
0.00271119
-0.0367094
0.00454718
-0.0642353
0.00640707
-0.089181
0.00806984
-0.112717
0.00944107
-0.136488
0.0104661
-0.161609
0.0109934
-0.187877
0.0107063
-0.213719
0.00913414
-0.236271
-0.252706
0.0426111
0.140948
0.041964
0.136628
0.0411
0.12999
0.0401117
0.120744
0.0390929
0.10858
0.038139
0.0931486
0.0373827
0.0740567
0.0370731
0.0508328
0.0371806
0.0233208
0.0373227
-0.0069287
0.0375003
-0.0368836
0.0377367
-0.064466
0.0379957
-0.0894322
0.0382213
-0.112933
0.0383699
-0.136625
0.0383678
-0.161593
0.0380322
-0.187526
0.0370172
-0.212688
0.0349271
-0.234162
-0.249212
0.0677785
0.139683
0.0686915
0.135707
0.0693545
0.129318
0.0698576
0.120233
0.07029
0.10814
0.0707372
0.092695
0.0712837
0.0735053
0.0719366
0.0501768
0.0724034
0.0228528
0.0722829
-0.00680713
0.0715143
-0.0361117
0.0703678
-0.0633141
0.0691285
-0.0881853
0.0679986
-0.111793
0.0670605
-0.135675
0.0662385
-0.160758
0.0652803
-0.186553
0.0637817
-0.211173
0.0613442
-0.231707
-0.245556
0.0932003
0.138063
0.0961423
0.136733
0.0986907
0.13315
0.100937
0.127063
0.102965
0.118197
0.104845
0.106252
0.106628
0.0909063
0.108296
0.0718321
0.109644
0.0488261
0.110182
0.022314
0.109511
-0.0061355
0.107752
-0.0343494
0.105359
-0.0609152
0.102834
-0.0856532
0.100587
-0.109536
0.098814
-0.13389
0.0974209
-0.159351
0.0960504
-0.185168
0.0942005
-0.209306
0.0914448
-0.228933
-0.241613
0.118952
0.123523
0.127661
0.129003
0.131439
0.123278
0.134913
0.114715
0.138119
0.103039
0.141042
0.0879773
0.143565
0.0693048
0.145372
0.047016
0.145979
0.0217062
0.145056
-0.0052115
0.142753
-0.0320422
0.139605
-0.0577621
0.136309
-0.0823497
0.133458
-0.106675
0.13132
-0.131741
0.129739
-0.157756
0.128231
-0.183644
0.126204
-0.207263
0.12321
-0.22592
-0.237413
0.155976
0.161143
0.165917
0.109934
0.170272
0.0986775
0.174126
0.0841178
0.177287
0.0661399
0.17941
0.0448902
0.180072
0.0210442
0.179024
-0.0041623
0.176486
-0.0295004
0.173104
-0.0543747
0.169711
-0.0789489
0.166966
-0.103921
0.165075
-0.129839
0.163733
-0.156401
0.162321
-0.182217
0.160195
-0.20512
0.156932
-0.222638
-0.232856
0.195583
0.200796
0.0934582
0.20533
0.0795792
0.208935
0.0625313
0.211278
0.0425451
0.212027
0.0202944
0.21107
-0.00320384
0.208773
-0.0271989
0.205894
-0.0514907
0.203279
-0.0763262
0.201455
-0.102087
0.200399
-0.128771
0.199604
-0.155592
0.198358
-0.180956
0.196051
-0.202796
0.192362
-0.218931
-0.227765
0.230519
0.235255
0.239012
0.058771
0.241472
0.0400834
0.242424
0.0193425
0.241972
-0.00274994
0.240653
-0.0258762
0.239207
-0.0500387
0.238244
-0.0753553
0.237939
-0.101773
0.23796
-0.128781
0.237651
-0.155269
0.236331
-0.17962
0.23353
-0.199978
0.229106
-0.214487
-0.221877
0.270654
0.273066
0.274401
0.0180077
0.274961
-0.00330688
0.275284
-0.0261953
0.27582
-0.050569
0.276724
-0.0762507
0.277759
-0.102798
0.278382
-0.129392
0.277949
-0.154822
0.27594
-0.177596
0.272106
-0.196127
0.266515
-0.208877
-0.214882
0.313113
0.314758
-0.00494877
0.316516
-0.0279494
0.318407
-0.0524531
0.320178
-0.0780134
0.321364
-0.103974
0.321407
-0.129423
0.319813
-0.153214
0.316286
-0.174053
0.310797
-0.190621
0.303602
-0.201664
-0.206495
0.362549
0.364542
0.366232
-0.0541356
0.367209
-0.078982
0.367006
-0.103761
0.365192
-0.127597
0.361465
-0.149473
0.355731
-0.168302
0.348133
-0.183005
0.339061
-0.192572
-0.196561
0.414634
0.413612
-0.0779515
0.411047
-0.101186
0.406676
-0.123213
0.400374
-0.143157
0.392199
-0.160111
0.382414
-0.173201
0.371483
-0.181621
-0.185137
0.454736
0.449707
0.442842
-0.116335
0.434159
-0.13446
0.423828
-0.149764
0.412181
-0.161535
0.399717
-0.169137
-0.172491
0.471843
0.461414
-0.124015
0.449559
-0.137892
0.436648
-0.148606
0.423182
-0.15565
-0.15905
0.48197
0.469341
0.455852
-0.135097
0.441979
-0.141755
-0.145295
0.470514
0.456768
-0.127988
-0.13167
0.468508
-0.118522
)
;

boundaryField
{
    inlet
    {
        type            calculated;
        value           nonuniform 0();
    }
    outlet
    {
        type            calculated;
        value           nonuniform List<scalar> 
30
(
0.0641095
-0.0251732
-0.0700344
-0.094191
-0.105275
-0.107186
-0.102284
-0.0921465
-0.0779017
-0.0603956
-0.0402812
-0.0180507
0.00599532
0.0314523
0.0577071
0.087522
0.119029
0.152396
0.187291
0.223238
0.259541
0.295236
0.329149
0.36008
0.387093
0.409764
0.428247
0.443166
0.455385
0.465766
)
;
    }
    flap
    {
        type            calculated;
        value           nonuniform 0();
    }
    upperWall
    {
        type            calculated;
        value           nonuniform 0();
    }
    lowerWall
    {
        type            calculated;
        value           uniform 0;
    }
    frontAndBack
    {
        type            empty;
        value           nonuniform 0();
    }
    procBoundary5to2
    {
        type            processor;
        value           nonuniform List<scalar> 
34
(
0.132968
0.132154
-0.150419
0.123438
0.118103
-0.189865
0.104209
-0.225136
0.0880683
0.0748393
-0.267254
0.0553671
0.0376703
-0.311341
0.0162362
-0.360526
-0.00696939
-0.0299384
-0.41446
-0.0543031
-0.458042
-0.0746375
-0.0961454
-0.480608
-0.107558
-0.493361
-0.112608
-0.125246
-0.483963
-0.121628
-0.481724
-0.114749
-0.478184
-0.10608
)
;
    }
    procBoundary5to4
    {
        type            processor;
        value           nonuniform List<scalar> 
18
(
0.178554
0.180997
0.174536
0.163984
0.150761
0.135274
0.117717
0.0982462
0.0770555
0.0543886
0.0305859
0.00607196
-0.0186154
-0.0429505
-0.0665223
-0.14151
-0.0897606
-0.113866
)
;
    }
}


// ************************************************************************* //
