/*--------------------------------*- C++ -*----------------------------------*\
| =========                 |                                                 |
| \\      /  F ield         | OpenFOAM: The Open Source CFD Toolbox           |
|  \\    /   O peration     | Version:  dev                                   |
|   \\  /    A nd           | Web:      www.OpenFOAM.org                      |
|    \\/     M anipulation  |                                                 |
\*---------------------------------------------------------------------------*/
FoamFile
{
    version     2.0;
    format      ascii;
    class       surfaceVectorField;
    location    "0.58";
    object      Uf;
}
// * * * * * * * * * * * * * * * * * * * * * * * * * * * * * * * * * * * * * //

dimensions      [0 1 -1 0 0 0 0];

internalField   nonuniform List<vector> 
879
(
(-10.1193 -1.97569e-20 0.355218)
(-9.70156 -5.22921e-20 0.69855)
(-11.0135 0 0.314089)
(-10.6067 -2.76151e-20 0.646528)
(-11.838 7.28172e-21 0.270004)
(-11.4473 2.48402e-20 0.587879)
(-12.5824 -4.4232e-22 0.223041)
(-12.2136 6.68059e-22 0.522785)
(-13.2354 -1.63296e-20 0.173258)
(-12.895 1.32485e-21 0.451308)
(-13.7848 -8.48142e-21 0.120707)
(-13.4797 -1.62908e-20 0.373499)
(-14.218 2.20989e-21 0.0654001)
(-13.9554 8.92909e-21 0.28946)
(-14.5216 1.02161e-22 0.00721566)
(-14.3092 -1.55473e-20 0.199377)
(-14.682 -6.5078e-21 -0.0543023)
(-14.5283 -2.34775e-21 0.103489)
(-14.6848 -2.94387e-22 -0.120321)
(-14.5989 -9.5521e-23 0.0017735)
(-14.5122 4.16461e-21 -0.193274)
(-14.5041 1.28531e-22 -0.107346)
(-14.1459 -3.34503e-21 -0.275713)
(-14.2335 -7.74959e-21 -0.223991)
(-13.5657 -3.40787e-21 -0.370677)
(-13.77 -2.26519e-22 -0.348548)
(-12.7443 0 -0.483928)
(-13.0942 -7.1556e-21 -0.484878)
(-11.6417 0 -0.625132)
(-12.1789 1.27892e-21 -0.639772)
(-10.1995 -3.51224e-23 -0.812198)
(-10.9776 3.05159e-22 -0.822638)
(-8.32638 1.2583e-22 -1.08492)
(-9.40096 -3.37558e-22 -1.05073)
(-5.82332 -4.43807e-22 -1.52753)
(-7.30047 -1.86699e-23 -1.38134)
(-2.21223 -1.1205e-21 -2.32836)
(-4.51355 7.27617e-24 -1.96151)
(-0.594171 1.77077e-21 -2.89079)
(-10.169 -6.12115e-20 1.00682)
(-9.52747 -3.4301e-20 1.36817)
(-11.0208 -3.74979e-21 0.929623)
(-10.3789 -4.0041e-21 1.26442)
(-11.804 1.84434e-20 0.843236)
(-11.1697 -4.05691e-21 1.14781)
(-12.5084 2.70789e-21 0.747781)
(-11.8904 3.74629e-20 1.01868)
(-13.1232 1.89308e-21 0.643224)
(-12.5308 1.21585e-20 0.877078)
(-13.6363 9.63953e-22 0.529509)
(-13.0794 -4.08143e-20 0.723024)
(-14.0354 -8.51181e-21 0.406614)
(-13.5242 8.93189e-21 0.556656)
(-14.3073 -1.81757e-20 0.274501)
(-13.8524 -1.77833e-20 0.378366)
(-14.439 4.14752e-21 0.132832)
(-14.0516 -9.4024e-23 0.188792)
(-14.4175 3.00096e-22 -0.0196569)
(-14.1087 4.50785e-21 -0.0115654)
(-14.2316 -1.18457e-20 -0.182654)
(-14.0077 4.52078e-21 -0.222817)
(-13.8691 -4.48484e-21 -0.355558)
(-13.7456 -1.57509e-20 -0.445387)
(-13.3151 -3.68902e-21 -0.542106)
(-13.3086 -1.41578e-20 -0.681212)
(-12.5493 -5.91879e-21 -0.750612)
(-12.6833 2.1608e-21 -0.936847)
(-11.543 1.59293e-21 -0.994648)
(-11.8508 1.279e-21 -1.2236)
(-10.2542 -6.60396e-23 -1.29876)
(-10.7797 -6.93449e-21 -1.55773)
(-8.62008 -3.04755e-22 -1.71791)
(-9.41468 -4.71647e-22 -1.96748)
(-6.56058 0 -2.3571)
(-7.67239 1.51391e-22 -2.51814)
(-4.06245 -1.71425e-22 -3.27813)
(-5.51328 1.5555e-23 -3.31901)
(-3.33226 -4.03542e-22 -4.38834)
(-9.7183 2.28494e-20 1.61602)
(-9.00046 1.01379e-19 1.99293)
(-10.509 -4.52748e-21 1.47731)
(-9.78912 4.97308e-20 1.8414)
(-11.2379 1.40812e-20 1.32225)
(-10.5247 -2.89347e-20 1.67152)
(-11.8954 4.7893e-20 1.15103)
(-11.1982 7.41571e-20 1.48355)
(-12.4711 -2.93684e-20 0.963743)
(-11.7993 3.75783e-20 1.27734)
(-12.9535 -3.33339e-20 0.760641)
(-12.3166 -6.709e-20 1.05274)
(-13.3302 0 0.542382)
(-12.7375 1.86309e-20 0.809774)
(-13.5884 -5.58088e-23 0.310181)
(-13.0493 -6.46248e-22 0.548998)
(-13.7152 3.99976e-23 0.0657356)
(-13.2394 -5.63624e-23 0.271523)
(-13.699 8.72492e-21 -0.189206)
(-13.295 1.58312e-22 -0.0210632)
(-13.5293 6.14566e-22 -0.455573)
(-13.2014 8.65285e-21 -0.327808)
(-13.1974 -2.56383e-20 -0.736242)
(-12.9591 1.51623e-20 -0.647754)
(-12.694 -8.64686e-21 -1.03594)
(-12.5591 -1.13739e-20 -0.983166)
(-12.007 9.14778e-21 -1.36465)
(-11.9944 9.06519e-21 -1.34208)
(-11.1189 -7.17435e-21 -1.73799)
(-11.2543 0 -1.7386)
(-10.0052 -7.47238e-21 -2.18064)
(-10.3214 -8.61348e-21 -2.19282)
(-8.63667 1.47063e-22 -2.73855)
(-9.16862 2.85945e-22 -2.73513)
(-7.00781 5.49717e-22 -3.48509)
(-7.76328 -3.76116e-22 -3.41728)
(-5.20272 -5.64088e-23 -4.42273)
(-6.13447 9.39854e-23 -4.30021)
(-4.71084 6.0509e-22 -5.29745)
(-9.05293 1.29302e-19 2.20443)
(-8.29934 1.0281e-19 2.57421)
(-9.7866 2.60663e-20 2.02138)
(-9.02789 2.0096e-22 2.38047)
(-10.4671 3.02107e-20 1.81782)
(-9.71182 -6.233e-20 2.16324)
(-11.0848 6.52055e-20 1.59366)
(-10.3418 2.39853e-20 1.92225)
(-11.6287 1.80933e-21 1.34854)
(-10.907 1.01001e-19 1.65694)
(-12.0866 -1.59583e-20 1.08212)
(-11.3954 -7.18712e-20 1.36676)
(-12.4454 1.79997e-20 0.794329)
(-11.7937 1.81549e-20 1.05167)
(-12.6918 -6.52655e-22 0.485622)
(-12.0885 1.8618e-20 0.712471)
(-12.8131 0 0.157074)
(-12.2671 3.99207e-20 0.351122)
(-12.7984 0 -0.189805)
(-12.3171 -3.87021e-20 -0.029231)
(-12.6401 2.36119e-20 -0.552265)
(-12.2258 2.7556e-20 -0.425351)
(-12.3341 3.05504e-20 -0.929475)
(-11.9982 -2.22007e-21 -0.834017)
(-11.8771 6.72262e-21 -1.32696)
(-11.6304 6.66109e-21 -1.25695)
(-11.2647 0 -1.75673)
(-11.1216 0 -1.70294)
(-10.4895 -7.6921e-22 -2.23697)
(-10.4689 0 -2.18781)
(-9.54139 -3.31743e-22 -2.79244)
(-9.66641 6.98115e-21 -2.73319)
(-8.41527 -2.99961e-22 -3.45791)
(-8.70713 4.55491e-22 -3.36656)
(-7.13955 -2.10471e-22 -4.27115)
(-7.59005 -5.27525e-22 -4.12132)
(-5.82698 9.07215e-22 -5.18028)
(-6.36867 7.84311e-23 -5.01367)
(-5.38381 8.35997e-22 -5.89477)
(-8.25651 -2.56314e-20 2.74357)
(-7.47975 1.06721e-19 3.1133)
(-8.93523 -8.78762e-20 2.51717)
(-8.14877 -1.32468e-19 2.88284)
(-9.56868 -7.04142e-20 2.26414)
(-8.78101 -3.57634e-20 2.62364)
(-10.1466 5.8008e-20 1.98369)
(-9.36677 9.8403e-20 2.33472)
(-10.6574 2.95104e-20 1.67504)
(-9.89477 -2.93355e-21 2.01488)
(-11.0881 -3.91284e-20 1.33786)
(-10.3522 -3.78035e-20 1.66323)
(-11.4251 1.85625e-20 0.972764)
(-10.7254 4.00083e-20 1.27969)
(-11.6549 5.89877e-20 0.581763)
(-11.0003 1.92682e-20 0.86557)
(-11.7653 1.98757e-21 0.168514)
(-11.164 4.17454e-20 0.424074)
(-11.7469 -1.17378e-20 -0.262081)
(-11.2042 -4.02362e-20 -0.0393807)
(-11.5948 1.90352e-21 -0.706039)
(-11.1111 -1.05719e-20 -0.518691)
(-11.3092 -2.63099e-20 -1.16259)
(-10.8938 9.4374e-21 -1.00741)
(-10.8929 0 -1.63679)
(-10.5535 0 -1.50588)
(-10.3486 0 -2.14132)
(-10.0954 3.23843e-21 -2.02319)
(-9.67735 7.90973e-21 -2.69525)
(-9.52351 -3.17085e-21 -2.5763)
(-8.88025 8.05333e-21 -3.32167)
(-8.84063 7.98247e-21 -3.18702)
(-7.96722 0 -4.04433)
(-8.05307 0 -3.87806)
(-6.98022 0 -4.87237)
(-7.17739 0 -4.66561)
(-6.02685 0 -5.71947)
(-6.26889 -4.55334e-21 -5.53151)
(-5.57499 3.67189e-23 -6.30236)
(-7.35459 4.13366e-21 3.24449)
(-6.56252 1.06809e-19 3.60867)
(-7.97682 -8.232e-20 2.9816)
(-7.17003 -2.86697e-19 3.34694)
(-8.56125 1.3077e-19 2.68656)
(-7.74832 1.19473e-19 3.05106)
(-9.09725 3.85723e-20 2.35798)
(-8.28748 3.2846e-20 2.7192)
(-9.57272 -6.99383e-20 1.99461)
(-8.77593 -7.52501e-20 2.34954)
(-9.97434 4.01128e-20 1.59585)
(-9.20053 3.64703e-20 1.94076)
(-10.288 4.09287e-20 1.16236)
(-9.54706 -3.88959e-23 1.49274)
(-10.4998 1.35369e-21 0.6967)
(-9.80097 0 1.00731)
(-10.5975 1.02538e-22 0.203965)
(-9.9485 -4.04092e-20 0.489243)
(-10.5728 -3.91696e-20 -0.308261)
(-9.97709 3.98588e-20 -0.0532027)
(-10.4234 -2.8629e-21 -0.831639)
(-9.87985 -3.81405e-20 -0.609995)
(-10.1544 3.60545e-20 -1.3619)
(-9.67031 3.57183e-20 -1.1703)
(-9.77434 3.20834e-21 -1.90333)
(-9.35443 0 -1.73262)
(-9.29224 3.92575e-23 -2.46916)
(-8.94335 3.23882e-21 -2.30629)
(-8.71564 -3.19984e-21 -3.07878)
(-8.44632 2.24201e-20 -2.90941)
(-8.05322 0 -3.75271)
(-7.87198 0 -3.56354)
(-7.3233 0 -4.50463)
(-7.23433 -1.48255e-20 -4.28631)
(-6.57081 -4.51464e-21 -5.32266)
(-6.55841 -1.00245e-21 -5.0799)
(-5.88401 -4.52711e-21 -6.10301)
(-5.89179 -5.44101e-21 -5.90386)
(-5.40903 -1.61448e-21 -6.58196)
(-6.36081 -1.78767e-19 3.70341)
(-5.55983 0 4.05745)
(-6.92385 -9.15126e-20 3.40916)
(-6.10282 -1.54758e-19 3.77007)
(-7.45651 2.24862e-20 3.07683)
(-6.62411 1.57843e-19 3.44305)
(-7.94802 -8.03055e-20 2.70416)
(-7.11386 -3.12123e-20 3.07364)
(-8.38608 2.88721e-20 2.2893)
(-7.56047 -8.18719e-20 2.65927)
(-8.757 -3.61583e-21 1.83139)
(-7.95069 7.71821e-20 2.19813)
(-9.04621 -4.13033e-20 1.3314)
(-8.26992 -4.08947e-20 1.68996)
(-9.23916 -4.17e-20 0.793142)
(-8.5028 2.84098e-22 1.13709)
(-9.32334 -1.42832e-21 0.224437)
(-8.6342 2.24447e-21 0.546052)
(-9.29123 4.19322e-20 -0.363009)
(-8.65035 -2.51344e-20 -0.0713699)
(-9.14305 0 -0.956577)
(-8.54802 2.12332e-20 -0.700191)
(-8.88846 0 -1.54894)
(-8.34487 0 -1.32398)
(-8.54196 0 -2.14337)
(-8.05186 -8.38451e-21 -1.93877)
(-8.11783 2.5356e-20 -2.75386)
(-7.68541 8.18632e-21 -2.55465)
(-7.62804 2.58258e-20 -3.40031)
(-7.25863 -2.69454e-20 -3.19162)
(-7.08532 -1.46937e-20 -4.10076)
(-6.78296 0 -3.87119)
(-6.5115 -1.60274e-20 -4.86059)
(-6.27545 7.35949e-22 -4.60637)
(-5.94922 -1.89586e-21 -5.65408)
(-5.76427 -1.30504e-20 -5.38852)
(-5.46517 -2.6063e-21 -6.37148)
(-5.28589 5.13904e-21 -6.16529)
(-4.96824 1.11414e-22 -6.76798)
(-5.28484 2.642e-20 4.11693)
(-4.48146 -4.52565e-20 4.45599)
(-5.78534 8.9929e-20 3.79707)
(-4.95634 1.51866e-19 4.14898)
(-6.26307 1.05863e-19 3.4331)
(-5.41712 6.4657e-20 3.79682)
(-6.70746 -3.24398e-20 3.02195)
(-5.85437 4.09706e-20 3.39582)
(-7.10629 -3.60619e-20 2.56111)
(-6.25688 -7.58983e-20 2.94261)
(-7.44576 4.14883e-20 2.04935)
(-6.61165 4.10672e-20 2.43472)
(-7.71077 2.81218e-22 1.48773)
(-6.90385 0 1.87149)
(-7.88583 4.37286e-20 0.881176)
(-7.11705 -4.49915e-20 1.25551)
(-7.95748 -2.11814e-20 0.240334)
(-7.23377 4.43843e-20 0.5951)
(-7.91811 -4.60389e-20 -0.418223)
(-7.23769 4.77667e-20 -0.0938136)
(-7.77017 2.14416e-20 -1.07596)
(-7.12989 -9.07107e-22 -0.789883)
(-7.52858 -8.3048e-21 -1.72118)
(-6.93274 9.79408e-21 -1.46928)
(-7.21388 -1.90418e-22 -2.35638)
(-6.66228 -1.79315e-20 -2.12533)
(-6.84467 -4.40398e-20 -2.99735)
(-6.33935 8.18747e-21 -2.77007)
(-6.43511 -5.32743e-20 -3.66534)
(-5.97923 -2.25363e-20 -3.4267)
(-5.99891 1.553e-20 -4.37646)
(-5.59362 -2.39507e-20 -4.11746)
(-5.55774 3.86387e-21 -5.12952)
(-5.19897 1.22192e-20 -4.85134)
(-5.14969 -6.16021e-21 -5.89054)
(-4.8239 7.71009e-22 -5.61127)
(-4.82378 7.68226e-21 -6.55116)
(-4.49177 -1.47834e-21 -6.33996)
(-4.31164 -3.24754e-21 -6.88131)
(-4.13603 7.56279e-20 4.48142)
(-3.3377 -1.49801e-20 4.80013)
(-4.5702 1.26275e-19 4.14221)
(-3.7404 1.90336e-20 4.47998)
(-4.9895 0 3.75293)
(-4.13662 1.87252e-19 4.10926)
(-5.38398 0 3.3096)
(-4.51769 -3.61511e-20 3.6834)
(-5.74188 0 2.80892)
(-4.87327 4.3492e-20 3.19816)
(-6.04957 0 2.24897)
(-5.19116 4.58212e-20 2.6502)
(-6.29146 -4.52496e-20 1.63057)
(-5.45673 -9.56587e-20 2.03801)
(-6.45063 -4.61937e-20 0.95951)
(-5.65221 1.7021e-21 1.36386)
(-6.51183 1.13809e-19 0.249752)
(-5.75641 0 0.637737)
(-6.46625 9.37712e-20 -0.475907)
(-5.74862 9.30457e-20 -0.119866)
(-6.31841 -1.26641e-20 -1.19138)
(-5.63596 8.74527e-22 -0.879139)
(-6.08954 1.96855e-22 -1.87981)
(-5.44672 -3.85038e-22 -1.60636)
(-5.80624 -9.6369e-21 -2.54368)
(-5.20069 3.66392e-22 -2.29252)
(-5.49009 3.017e-20 -3.20211)
(-4.92183 0 -2.95358)
(-5.15539 6.93165e-21 -3.87893)
(-4.62576 6.0009e-20 -3.61772)
(-4.81435 -2.76689e-20 -4.58905)
(-4.32269 -4.47498e-22 -4.3088)
(-4.48598 9.20216e-21 -5.32584)
(-4.02587 1.47125e-20 -5.03233)
(-4.20291 5.45903e-21 -6.05035)
(-3.76396 6.01552e-23 -5.76427)
(-4.00271 -1.23914e-20 -6.65992)
(-3.54394 1.63947e-20 -6.44547)
(-3.48346 -5.21854e-21 -6.93567)
(-2.92509 -7.39195e-20 4.79295)
(-2.14078 3.06154e-20 5.08556)
(-3.28856 7.65119e-20 4.44112)
(-2.46691 -6.69886e-20 4.75898)
(-3.64512 1.55023e-19 4.03346)
(-2.79373 7.55661e-20 4.37664)
(-3.98583 6.4547e-21 3.56509)
(-3.11362 -7.71261e-20 3.93327)
(-4.30001 8.93038e-20 3.03172)
(-3.41766 4.59521e-20 3.42377)
(-4.57474 -4.8331e-20 2.43036)
(-3.69522 -9.28295e-20 2.84367)
(-4.79426 -5.07459e-20 1.7609)
(-3.93287 -9.76887e-20 2.19001)
(-4.93991 4.79308e-20 1.02945)
(-4.11171 4.60828e-20 1.46375)
(-4.99385 -2.23284e-20 0.253662)
(-4.20497 5.00795e-20 0.676071)
(-4.94431 6.67791e-22 -0.535565)
(-4.18463 -2.07965e-20 -0.148053)
(-4.79828 1.31708e-20 -1.30238)
(-4.07065 2.30287e-20 -0.966855)
(-4.58461 -1.77555e-22 -2.02429)
(-3.89637 -1.0183e-20 -1.73367)
(-4.33466 1.00089e-20 -2.70526)
(-3.68098 9.91548e-21 -2.43912)
(-4.07113 2.92795e-20 -3.36971)
(-3.44927 0 -3.10544)
(-3.80684 5.31814e-20 -4.04535)
(-3.21577 -2.17729e-22 -3.76727)
(-3.55093 4.17845e-20 -4.7465)
(-2.98852 5.04356e-20 -4.45092)
(-3.31861 5.76572e-21 -5.46182)
(-2.77625 -2.61743e-21 -5.15874)
(-3.13658 1.07106e-20 -6.14829)
(-2.60875 8.514e-22 -5.86076)
(-3.03694 2.34211e-20 -6.71107)
(-2.47309 7.45846e-21 -6.4955)
(-2.51742 5.0887e-21 -6.94087)
(-1.66547 3.87396e-20 5.0472)
(-0.905996 -7.83364e-21 5.30803)
(-1.95328 -6.97923e-20 4.68959)
(-1.15127 2.22924e-19 4.98149)
(-2.24148 -1.54229e-19 4.27077)
(-1.40335 -1.88249e-19 4.59427)
(-2.52247 -3.97623e-20 3.78512)
(-1.65562 -8.77717e-20 4.14076)
(-2.78726 -1.34533e-19 3.22721)
(-1.90079 1.37793e-19 3.61521)
(-3.0246 -1.42083e-19 2.59236)
(-2.13066 -1.38545e-19 3.01197)
(-3.21977 -4.20308e-21 1.87852)
(-2.33462 4.91369e-20 2.32617)
(-3.35296 4.70792e-20 1.09122)
(-2.4937 -5.35253e-20 1.55593)
(-3.40273 5.15331e-20 0.252592)
(-2.57325 4.93793e-20 0.712214)
(-3.35268 9.53832e-22 -0.595889)
(-2.53381 -7.42094e-20 -0.176045)
(-3.2146 0 -1.40661)
(-2.43148 2.45707e-20 -1.0491)
(-3.02435 0 -2.15201)
(-2.28771 4.50762e-20 -1.84609)
(-2.81398 0 -2.83965)
(-2.11538 -4.08835e-20 -2.56136)
(-2.60487 -2.95652e-20 -3.50079)
(-1.9376 -3.63101e-20 -3.22457)
(-2.40745 -3.50097e-21 -4.16808)
(-1.76681 -2.98469e-20 -3.8774)
(-2.22758 6.53745e-21 -4.85572)
(-1.60935 1.1212e-21 -4.54903)
(-2.07678 -7.58548e-21 -5.54798)
(-1.46987 -2.0727e-20 -5.23875)
(-1.97598 -2.24732e-21 -6.19717)
(-1.38008 -1.64897e-20 -5.9117)
(-1.95562 -1.07559e-20 -6.7159)
(-1.30803 -1.59803e-20 -6.50168)
(-1.43894 -7.0153e-22 -6.90488)
(-0.374348 1.72512e-19 5.24084)
(0.347216 5.59342e-20 5.46396)
(-0.581694 1.12336e-19 4.88342)
(0.186568 2.62162e-19 5.14314)
(-0.795162 -1.22944e-19 4.45979)
(0.0143999 -1.10741e-19 4.75686)
(-1.00833 8.51748e-20 3.96398)
(-0.163361 -1.76959e-19 4.29957)
(-1.21409 1.39759e-19 3.38953)
(-0.340633 1.32393e-19 3.76536)
(-1.40358 5.12544e-20 2.72975)
(-0.511428 -1.7305e-21 3.14767)
(-1.56515 -4.91948e-22 1.97934)
(-0.669771 4.98257e-20 2.44012)
(-1.6839 -5.47671e-20 1.14204)
(-0.800478 -7.83973e-20 1.63914)
(-1.73081 -7.6306e-20 0.245729)
(-0.849195 7.79097e-20 0.747148)
(-1.6843 -5.08834e-20 -0.655114)
(-0.784522 -7.63802e-20 -0.201115)
(-1.56861 6.94501e-20 -1.50028)
(-0.719223 3.66936e-20 -1.11673)
(-1.41738 5.03234e-21 -2.25903)
(-0.627898 3.42458e-20 -1.93397)
(-1.25789 -7.72438e-20 -2.9448)
(-0.515836 2.06243e-23 -2.65239)
(-1.10782 -3.66542e-20 -3.59623)
(-0.401898 9.78776e-23 -3.30823)
(-0.975043 -2.54626e-20 -4.25106)
(-0.295714 1.84482e-21 -3.94943)
(-0.863036 -2.59308e-20 -4.92343)
(-0.202732 -2.89964e-20 -4.60783)
(-0.78057 -2.96685e-20 -5.59349)
(-0.12604 1.46108e-21 -5.27981)
(-0.744672 -3.01884e-20 -6.20798)
(-0.0971771 3.06312e-20 -5.92616)
(-0.783393 -6.07102e-21 -6.68434)
(-0.0764293 0 -6.47505)
(-0.26671 -2.90137e-23 -6.8357)
(0.924499 1.4182e-19 5.37107)
(1.59469 6.37903e-20 5.5505)
(0.801804 4.63427e-20 5.02094)
(1.52039 1.14823e-19 5.24023)
(0.668906 -1.63198e-19 4.60034)
(1.43125 -3.45943e-20 4.85958)
(0.531727 -1.36519e-19 4.10359)
(1.33291 -1.73489e-19 4.40333)
(0.396328 -7.79423e-21 3.5243)
(1.23093 -3.40049e-21 3.8658)
(0.269199 -6.20341e-21 2.85538)
(1.13049 4.53636e-20 3.24044)
(0.157168 -2.70871e-20 2.08833)
(1.03458 4.92577e-20 2.52088)
(0.0706839 5.38025e-20 1.20994)
(0.95354 -2.61481e-20 1.7014)
(0.0364685 8.11446e-20 0.246469)
(0.949179 2.83629e-20 0.774351)
(0.0662905 1.1996e-20 -0.707442)
(1.01491 -3.88644e-20 -0.214977)
(0.136731 -1.04984e-22 -1.57447)
(1.03704 -2.58169e-22 -1.15537)
(0.228014 2.92388e-20 -2.33789)
(1.06283 -5.63193e-20 -1.98442)
(0.321246 7.778e-20 -3.01743)
(1.10072 4.61185e-20 -2.70292)
(0.404894 3.86929e-20 -3.65758)
(1.14207 3.17604e-20 -3.35208)
(0.473948 -1.40413e-21 -4.29949)
(1.18183 1.0265e-23 -3.98393)
(0.525513 -1.85954e-21 -4.95655)
(1.21579 2.48987e-20 -4.63162)
(0.551882 6.14325e-20 -5.60512)
(1.23927 1.46123e-21 -5.28886)
(0.537136 6.10107e-20 -6.18725)
(1.22345 3.01352e-20 -5.91208)
(0.457726 6.05668e-21 -6.62265)
(1.20099 -8.87271e-25 -6.42572)
(0.9804 6.13888e-21 -6.74506)
(2.20389 3.61713e-20 5.42931)
(2.81348 0 5.56816)
(2.1659 3.70337e-20 5.08927)
(2.82406 3.82015e-20 5.27233)
(2.11488 -4.23995e-20 4.674)
(2.81759 1.66586e-21 4.90107)
(2.05649 -4.33801e-20 4.17825)
(2.79955 4.14431e-20 4.44962)
(1.99629 4.77751e-20 3.59606)
(2.7753 0 3.91272)
(1.93969 9.86846e-20 2.92064)
(2.74998 -4.6527e-20 3.28419)
(1.89381 5.10977e-20 2.14425)
(2.72646 4.96616e-20 2.55678)
(1.87147 -5.19014e-20 1.26228)
(2.7118 -2.45928e-20 1.72123)
(1.8715 -9.1634e-20 0.298645)
(2.74321 -1.48197e-21 0.779574)
(1.87493 -5.24168e-20 -0.67432)
(2.79003 -1.2666e-20 -0.211606)
(1.88176 -5.7169e-20 -1.56998)
(2.78096 -2.40668e-20 -1.15368)
(1.89272 -4.07075e-20 -2.34954)
(2.74572 4.83471e-21 -1.98498)
(1.90547 1.57655e-22 -3.03438)
(2.70804 1.01061e-20 -2.70442)
(1.91677 -6.62677e-21 -3.6729)
(2.67531 -6.88569e-21 -3.35265)
(1.92418 2.60789e-20 -4.30904)
(2.6509 3.12656e-20 -3.98217)
(1.92381 2.84518e-20 -4.95624)
(2.63321 1.98789e-21 -4.62532)
(1.9064 -2.99806e-20 -5.58814)
(2.61461 4.14523e-20 -5.27287)
(1.85452 -3.05058e-20 -6.14389)
(2.5674 -3.02492e-20 -5.87701)
(1.74835 1.86145e-23 -6.54361)
(2.51235 -8.87326e-25 -6.36132)
(2.27723 -6.32972e-21 -6.64434)
(3.44377 1.77564e-21 5.42116)
(3.99357 0 5.51945)
(3.48814 3.93168e-21 5.09446)
(4.08563 -3.32163e-20 5.2411)
(3.51748 8.48917e-20 4.68766)
(4.15899 -3.82934e-20 4.88228)
(3.53719 8.51226e-20 4.19599)
(4.21876 8.36472e-20 4.43872)
(3.55255 -9.36118e-20 3.61395)
(4.26971 -4.09935e-20 3.90561)
(3.56847 -9.62161e-20 2.93509)
(4.31626 -5.22991e-20 3.27727)
(3.58972 -2.53521e-20 2.15217)
(4.36058 -9.15043e-20 2.54683)
(3.61705 2.464e-20 1.26541)
(4.4046 -1.59013e-21 1.70792)
(3.63615 7.65118e-20 0.304251)
(4.45776 6.36969e-20 0.772409)
(3.62713 1.41743e-20 -0.658866)
(4.48614 7.19765e-20 -0.20008)
(3.58691 3.81677e-20 -1.5454)
(4.44375 -7.9548e-22 -1.12224)
(3.52866 5.57568e-20 -2.32279)
(4.35635 9.37474e-21 -1.94271)
(3.46625 3.15425e-21 -3.00954)
(4.25388 5.30313e-21 -2.66029)
(3.40944 3.06471e-20 -3.65094)
(4.1574 -3.51446e-20 -3.31262)
(3.36212 7.53129e-21 -4.28845)
(4.08011 4.54697e-21 -3.94831)
(3.32032 1.47196e-20 -4.93246)
(4.02343 -2.73065e-20 -4.59505)
(3.27124 4.18216e-20 -5.55289)
(3.9763 3.89549e-21 -5.23879)
(3.1945 0 -6.0869)
(3.90911 0 -5.82787)
(3.07014 -6.29317e-21 -6.45653)
(3.8328 1.70464e-20 -6.28666)
(3.58747 -4.18159e-22 -6.5384)
(4.51951 -1.40465e-20 5.57602)
(4.95746 5.53625e-21 5.57748)
(4.666 -3.53112e-20 5.34757)
(5.15223 0 5.40222)
(4.79056 -7.66285e-20 5.0379)
(5.32236 -1.94063e-20 5.14461)
(4.89818 -4.34531e-20 4.64335)
(5.47238 -5.75e-20 4.80168)
(4.99352 -4.33086e-20 4.15973)
(5.60641 -2.12751e-20 4.36977)
(5.0807 2.03266e-21 3.58224)
(5.72795 1.68181e-20 3.84474)
(5.16265 -4.61301e-20 2.90554)
(5.83955 6.49468e-20 3.22203)
(5.23909 -6.97441e-20 2.12534)
(5.94095 -2.84677e-20 2.49719)
(5.30047 3.54582e-20 1.24878)
(6.02775 -1.93338e-20 1.67033)
(5.32351 5.84682e-20 0.311167)
(6.09342 1.19426e-20 0.762255)
(5.28917 5.89678e-20 -0.62271)
(6.10481 -3.25669e-21 -0.171214)
(5.20318 -2.99951e-20 -1.48819)
(6.03357 1.4183e-20 -1.0597)
(5.08717 -4.22716e-20 -2.25734)
(5.90714 -3.9881e-20 -1.86183)
(4.96512 -3.32922e-20 -2.94667)
(5.75867 -3.51239e-20 -2.57697)
(4.85642 -6.32835e-20 -3.5971)
(5.61895 2.97651e-20 -3.23899)
(4.7704 -3.06015e-20 -4.24409)
(5.50902 -2.99839e-20 -3.88959)
(4.7023 -3.9294e-20 -4.89169)
(5.43156 -7.13627e-22 -4.5478)
(4.63471 -3.92871e-20 -5.50493)
(5.37083 -3.94097e-20 -5.19233)
(4.54327 1.7224e-20 -6.02001)
(5.29386 2.68809e-20 -5.76811)
(4.40737 2.35702e-20 -6.36236)
(5.2038 1.7209e-20 -6.20232)
(4.94859 1.18854e-20 -6.42372)
(5.60719 1.99105e-20 5.41159)
(5.82803 1.6761e-20 5.20798)
(6.0263 8.63394e-22 4.91826)
(6.48054 3.99178e-20 4.98536)
(6.20564 -3.6121e-20 4.53949)
(6.69826 -4.06612e-20 4.66165)
(6.36915 3.89041e-20 4.06819)
(6.89766 1.46627e-20 4.24573)
(6.51888 7.98517e-20 3.50069)
(7.08004 6.02665e-20 3.73445)
(6.65466 8.44277e-20 2.83382)
(7.24521 -2.97827e-20 3.12504)
(6.77138 2.25177e-20 2.06804)
(7.38972 1.15771e-19 2.41671)
(6.85456 -4.45439e-20 1.21712)
(7.50449 -2.04956e-21 1.61602)
(6.88165 -4.99949e-20 0.318435)
(7.57699 -4.09352e-20 0.748792)
(6.83726 -4.81894e-20 -0.572229)
(7.58055 -5.11327e-20 -0.134969)
(6.72833 5.32512e-21 -1.40482)
(7.49646 2.18679e-21 -0.980442)
(6.57995 -3.26633e-20 -2.15985)
(7.35249 -3.50746e-20 -1.75786)
(6.42465 2.7876e-20 -2.85319)
(7.18581 3.82424e-22 -2.4703)
(6.29016 6.50148e-20 -3.51918)
(7.0339 3.45632e-20 -3.14724)
(6.18893 0 -4.1833)
(6.92073 3.07219e-21 -3.8199)
(6.11339 0 -4.83981)
(6.84586 -2.99472e-21 -4.49465)
(6.04055 2.69657e-20 -5.44795)
(6.78723 0 -5.14134)
(5.9424 2.71338e-20 -5.94423)
(6.70864 2.08869e-21 -5.70268)
(5.79772 5.42321e-21 -6.25918)
(6.6087 -3.22249e-20 -6.11057)
(6.34059 2.70627e-22 -6.3012)
(7.17172 -4.73934e-22 4.73849)
(7.41205 1.00611e-20 4.37957)
(7.6331 3.52238e-20 3.92598)
(8.07841 -1.34745e-20 4.07248)
(7.83396 -4.95653e-20 3.37566)
(8.30758 0 3.58129)
(8.01113 -1.17823e-21 2.72835)
(8.51292 -1.61752e-20 2.99383)
(8.15613 9.2796e-20 1.9893)
(8.68759 1.31211e-20 2.31287)
(8.25343 1.99673e-21 1.17688)
(8.82 4.36629e-20 1.54979)
(8.28371 -4.18688e-20 0.327565)
(8.89657 -2.51529e-21 0.732449)
(8.23567 -6.00231e-22 -0.512752)
(8.89761 -3.75077e-20 -0.0955592)
(8.11928 -3.82941e-20 -1.30821)
(8.81404 3.86726e-21 -0.894427)
(7.96416 -2.21965e-21 -2.04852)
(8.67651 2.57494e-20 -1.64708)
(7.8084 6.37536e-21 -2.74943)
(8.52562 4.08033e-20 -2.36088)
(7.68217 -2.8071e-20 -3.43659)
(8.39909 -7.064e-21 -3.05863)
(7.59477 1.29301e-22 -4.12203)
(8.31528 5.18648e-20 -3.75718)
(7.53192 -3.05894e-21 -4.78817)
(8.26512 3.79052e-20 -4.44794)
(7.46493 -2.54593e-20 -5.38897)
(8.21977 0 -5.09249)
(7.36405 -5.79357e-20 -5.86315)
(8.14209 -2.36139e-21 -5.63382)
(7.20976 -3.81072e-20 -6.1483)
(8.03051 -3.31471e-21 -6.01076)
(7.74222 -5.63855e-22 -6.1684)
(8.774 -4.96135e-20 3.73997)
(9.00996 3.45876e-20 3.21464)
(9.42811 0 3.39621)
(9.21493 -1.97225e-21 2.59668)
(9.65274 -2.82423e-20 2.8375)
(9.37791 -3.75174e-20 1.89487)
(9.84206 -4.24556e-20 2.19253)
(9.48416 3.96242e-20 1.12976)
(9.98285 -3.88532e-21 1.47503)
(9.51888 2.26016e-21 0.335039)
(10.0623 5.33424e-20 0.712203)
(9.47705 -3.38679e-20 -0.453534)
(10.069 3.26646e-20 -0.0599154)
(9.375 6.87227e-20 -1.21392)
(10.0071 -2.88585e-20 -0.816641)
(9.24675 6.92866e-20 -1.94451)
(9.90916 1.52413e-21 -1.55228)
(9.13006 2.80781e-20 -2.65887)
(9.81355 3.39185e-21 -2.27523)
(9.04845 7.35329e-20 -3.37045)
(9.74836 -3.49011e-20 -2.99735)
(9.00076 9.08583e-20 -4.0755)
(9.71817 -4.23397e-20 -3.71857)
(8.96389 4.1853e-20 -4.74515)
(9.70294 6.76881e-21 -4.41647)
(8.90574 2.371e-20 -5.33071)
(9.67008 2.57916e-20 -5.04781)
(8.7987 5.34766e-20 -5.77583)
(9.58606 2.30512e-20 -5.5594)
(8.62834 3.50197e-20 -6.0268)
(9.45372 2.92129e-20 -5.89878)
(9.13335 5.04775e-21 -6.02078)
(10.0912 -6.35243e-20 3.02817)
(10.3012 -6.91653e-20 2.44563)
(10.4682 -8.89181e-21 1.78756)
(10.9406 3.84938e-21 2.0663)
(10.5783 8.8385e-21 1.07382)
(11.0775 -2.10735e-20 1.39566)
(10.6221 8.47702e-20 0.332911)
(11.1593 2.20079e-20 0.684692)
(10.6043 3.89541e-20 -0.410339)
(11.185 3.93312e-20 -0.041009)
(10.5483 -9.85016e-20 -1.1458)
(11.1713 -3.3039e-20 -0.770054)
(10.4865 -6.60779e-20 -1.87626)
(11.1453 -6.99843e-21 -1.5019)
(10.4455 -6.03752e-20 -2.60819)
(11.1325 -2.69841e-20 -2.2396)
(10.4328 -1.53569e-19 -3.34004)
(11.1429 -1.24921e-20 -2.98103)
(10.4337 -1.2963e-19 -4.05353)
(11.1651 -5.09735e-20 -3.71102)
(10.419 -1.01815e-20 -4.71254)
(11.1722 -3.60711e-20 -4.39851)
(10.3588 2.525e-20 -5.26991)
(11.1337 -2.79201e-21 -5.00059)
(10.2323 -1.78798e-21 -5.6767)
(11.0246 -4.21968e-20 -5.4709)
(10.0333 -8.58674e-22 -5.8888)
(10.8553 -2.56486e-20 -5.76644)
(10.4876 -4.84851e-21 -5.85163)
(11.5686 -8.00392e-21 1.67669)
(11.6749 -8.62454e-21 1.0088)
(11.735 -2.51989e-20 0.310977)
(12.3657 2.35143e-20 0.644743)
(11.7617 -3.28025e-20 -0.402935)
(12.4219 -3.43823e-20 -0.0544442)
(11.7781 6.06184e-20 -1.129)
(12.4678 3.06621e-20 -0.774982)
(11.8033 3.373e-20 -1.86676)
(12.5163 4.60649e-20 -1.51245)
(11.8437 2.18393e-20 -2.61148)
(12.5739 -1.45258e-20 -2.26014)
(11.889 9.36628e-20 -3.34833)
(12.6325 5.9185e-20 -3.00412)
(11.9159 4.46362e-20 -4.0501)
(12.6711 3.44518e-20 -3.72063)
(11.8963 -2.92048e-20 -4.67941)
(12.6633 0 -4.37665)
(11.808 -7.08447e-20 -5.19436)
(12.5865 -2.98325e-20 -4.93375)
(11.64 -6.67954e-20 -5.55459)
(12.426 -2.44535e-20 -5.35371)
(11.3954 -3.00892e-20 -5.72533)
(12.2005 -4.8381e-22 -5.60237)
(11.7705 -5.25455e-21 -5.65304)
(13.07 1.54267e-20 0.268628)
(13.1423 2.95698e-20 -0.436124)
(13.9097 2.6964e-20 -0.102074)
(13.219 1.55417e-20 -1.16438)
(13.9916 1.71653e-20 -0.8245)
(13.3009 -2.2186e-21 -1.90717)
(14.0733 -2.67895e-20 -1.56425)
(13.3771 2.22127e-20 -2.64971)
(14.1461 3.53197e-20 -2.30648)
(13.4282 -1.06072e-21 -3.36991)
(14.1929 -2.20241e-20 -3.03133)
(13.4304 -1.05256e-20 -4.03857)
(14.1922 2.27868e-20 -3.71312)
(13.363 0 -4.62171)
(14.1238 6.57595e-21 -4.32152)
(13.2132 1.742e-20 -5.08446)
(13.9742 -6.4448e-21 -4.82431)
(12.98 4.29267e-20 -5.39469)
(13.7386 1.77912e-20 -5.19104)
(12.6739 2.53413e-20 -5.52602)
(13.4418 1.4849e-20 -5.39516)
(12.9403 -4.94192e-22 -5.4179)
(14.7763 1.44452e-20 -0.490731)
(14.8616 -2.52119e-20 -1.21976)
(14.934 1.02693e-20 -1.95503)
(15.6981 -1.21103e-20 -1.60966)
(14.9767 -8.65615e-21 -2.67686)
(15.7252 2.27962e-20 -2.32874)
(14.9704 1.47068e-21 -3.36184)
(15.7049 -3.20263e-20 -3.01742)
(14.8971 4.06608e-20 -3.98313)
(15.6208 -5.75307e-21 -3.65177)
(14.7445 1.11975e-22 -4.51205)
(15.4605 7.92541e-21 -4.20581)
(14.5084 -6.5828e-21 -4.92063)
(15.2187 -9.14031e-22 -4.65346)
(14.1946 -1.05871e-20 -5.18391)
(14.8976 0 -4.97092)
(13.8191 -1.07848e-20 -5.28269)
(14.5254 -2.28105e-21 -5.13792)
(13.9538 0 -5.14262)
(16.5049 0 -1.96472)
(16.4676 0 -2.65072)
(17.1198 0 -2.29124)
(16.3678 -3.95015e-20 -3.28965)
(17.0096 2.90909e-20 -2.93422)
(16.1948 -3.89689e-20 -3.85835)
(16.829 -5.46311e-20 -3.51686)
(15.9435 7.04711e-21 -4.33333)
(16.5727 1.21772e-21 -4.01751)
(15.616 5.81049e-21 -4.69255)
(16.2416 5.8276e-21 -4.41529)
(15.2227 8.55714e-21 -4.91686)
(15.8426 -1.20302e-20 -4.69175)
(14.7823 8.71772e-21 -4.99308)
(15.4049 3.35289e-22 -4.83169)
(14.7763 0 -4.82912)
(17.6737 2.91555e-20 -2.55373)
(17.4809 1.52791e-20 -3.14242)
(17.2155 -1.45727e-20 -3.65941)
(17.7246 -2.68642e-20 -3.31087)
(16.8779 0 -4.08553)
(17.3916 0 -3.76275)
(16.4747 -1.20659e-20 -4.40343)
(16.9926 -1.42068e-20 -4.11822)
(16.0186 -2.06278e-20 -4.59857)
(16.5376 -4.47375e-22 -4.36296)
(15.5293 -8.49889e-21 -4.66253)
(16.0549 -8.51865e-21 -4.48572)
(15.3917 0 -4.48498)
(17.9065 -1.25239e-20 -3.3993)
(17.511 -1.42455e-20 -3.78295)
(17.9009 -1.62673e-20 -3.45989)
(17.0599 -2.73581e-21 -4.06773)
(17.4641 6.71407e-21 -3.78026)
(16.5671 1.19942e-20 -4.24259)
(16.9812 1.88921e-20 -4.00127)
(16.0518 0 -4.30262)
(16.4788 7.42937e-21 -4.11459)
(15.8069 0 -4.12165)
(17.8563 4.75175e-21 -3.44687)
(17.3877 2.8482e-20 -3.70527)
(16.8857 1.46888e-20 -3.86651)
(17.2035 -6.28599e-21 -3.62555)
(16.368 7.59478e-21 -3.92795)
(16.705 1.72267e-21 -3.7344)
(16.0484 2.63675e-21 -3.75192)
(17.0155 -1.94719e-20 -3.4875)
(16.5153 -4.27849e-21 -3.55281)
(16.7772 -5.04973e-21 -3.35946)
(16.1543 9.18937e-22 -3.38746)
(16.5389 -1.60058e-21 -3.18884)
(16.1644 -1.78763e-21 -3.03726)
)
;

boundaryField
{
    inlet
    {
        type            calculated;
        value           nonuniform 0();
    }
    outlet
    {
        type            calculated;
        value           nonuniform List<vector> 
30
(
(3.20547 -1.14698e-21 -2.85841)
(-1.25866 -3.46151e-22 -3.81406)
(-3.50172 -1.45612e-22 -4.93471)
(-4.70955 1.67201e-21 -5.6462)
(-5.26376 0 -6.13067)
(-5.35929 7.34372e-23 -6.465)
(-5.11418 -3.30238e-21 -6.6924)
(-4.60732 3.29753e-21 -6.83852)
(-3.89509 -9.79252e-21 -6.91962)
(-3.01978 -1.05834e-21 -6.94714)
(-2.01406 1.08556e-20 -6.9304)
(-0.902534 -1.22587e-20 -6.87752)
(0.299766 1.22298e-20 -6.79419)
(1.57262 4.78239e-23 -6.69509)
(2.88536 -1.27075e-20 -6.59119)
(4.21468 1.21778e-20 -6.48177)
(5.59654 1.1586e-20 -6.3634)
(6.99616 -1.12362e-20 -6.23657)
(8.39506 1.03679e-20 -6.09774)
(9.77002 -3.39328e-22 -5.94125)
(11.0905 -9.43064e-21 -5.75942)
(12.3179 -9.76603e-22 -5.54399)
(13.4084 0 -5.28885)
(14.322 0 -4.99287)
(15.0328 0 -4.66112)
(15.5374 0 -4.30387)
(15.8547 0 -3.93403)
(16.0196 5.33832e-21 -3.56435)
(16.0724 -3.53226e-21 -3.20536)
(16.0506 0 -2.86442)
)
;
    }
    flap
    {
        type            calculated;
        value           nonuniform 0();
    }
    upperWall
    {
        type            calculated;
        value           nonuniform 0();
    }
    lowerWall
    {
        type            calculated;
        value           uniform (0 0 0);
    }
    frontAndBack
    {
        type            empty;
        value           nonuniform 0();
    }
    procBoundary5to2
    {
        type            processor;
        value           nonuniform List<vector> 
34
(
(5.98315 1.99248e-20 5.36759)
(6.24268 0 5.21984)
(6.91207 2.27781e-20 5.00523)
(7.56387 3.42686e-20 4.77079)
(7.82944 -3.88665e-20 4.46819)
(8.51472 -6.34414e-20 4.17036)
(9.17934 -6.52572e-20 3.86368)
(9.85231 -1.59873e-20 3.5255)
(10.5527 1.46836e-20 3.20461)
(10.7607 -9.72706e-20 2.67352)
(11.4198 -2.46332e-20 2.29491)
(12.1642 1.01134e-20 1.95251)
(12.2824 -4.62359e-20 1.31808)
(12.9923 -1.50168e-20 0.944557)
(13.8288 2.92094e-20 0.591219)