/*--------------------------------*- C++ -*----------------------------------*\
| =========                 |                                                 |
| \\      /  F ield         | OpenFOAM: The Open Source CFD Toolbox           |
|  \\    /   O peration     | Version:  dev                                   |
|   \\  /    A nd           | Web:      www.OpenFOAM.org                      |
|    \\/     M anipulation  |                                                 |
\*---------------------------------------------------------------------------*/
FoamFile
{
    version     2.0;
    format      ascii;
    class       surfaceScalarField;
    location    "0.72";
    object      phi;
}
// * * * * * * * * * * * * * * * * * * * * * * * * * * * * * * * * * * * * * //

dimensions      [0 3 -1 0 0 0 0];

internalField   nonuniform List<scalar> 
5457
(
0.198174
0.00184391
0.19613
0.00206111
0.193824
0.00232222
0.19121
0.00262858
0.188287
0.00293777
0.185053
0.00324568
0.181502
0.00355927
0.177622
0.00388465
0.173397
0.00422627
0.168806
0.0045876
0.163827
0.00497119
0.158436
0.00537943
0.152607
0.00581487
0.146312
0.00627944
0.139522
0.00677434
0.132207
0.0072997
0.124339
0.00785412
0.115893
0.00843446
0.106849
0.00903476
0.097197
0.00964519
0.0869415
0.0102515
0.0761053
0.0108344
0.0647359
0.011369
0.0529143
0.0118218
0.0407672
0.0121477
0.0284851
0.0122827
0.0163693
0.0121163
0.00510275
0.0112669
-0.00180711
0.00691001
-0.00180707
0.19988
0.00198195
0.1991
0.0028581
0.19794
0.00349753
0.196431
0.00415348
0.194567
0.00481541
0.192348
0.00547706
0.189767
0.0061487
0.186815
0.00684179
0.183477
0.0075656
0.179733
0.00832746
0.175564
0.00913241
0.170947
0.00998576
0.165854
0.0108934
0.160259
0.0118596
0.15413
0.0128873
0.147436
0.0139778
0.140147
0.0151293
0.132232
0.0163374
0.123665
0.0175922
0.114429
0.0188749
0.104517
0.0201594
0.09394
0.0214096
0.0827349
0.0225736
0.0709737
0.0235833
0.0587771
0.0243449
0.0463524
0.0247081
0.0340696
0.0243997
0.0225607
0.0227761
0.0109454
0.0185255
0.00913835
0.199733
0.0022667
0.199019
0.00358898
0.197928
0.00460404
0.196513
0.00558366
0.194779
0.00656436
0.19272
0.0075475
0.190334
0.00854403
0.187612
0.0095692
0.184541
0.0106371
0.181107
0.0117582
0.177292
0.0129407
0.173073
0.0141929
0.168429
0.0155236
0.163333
0.01694
0.157756
0.0184479
0.151667
0.0200509
0.145034
0.0217491
0.13782
0.0235392
0.129991
0.0254114
0.121515
0.0273441
0.112366
0.0293046
0.102526
0.031247
0.091997
0.0331023
0.0808038
0.0347766
0.0690069
0.0361424
0.0567115
0.037004
0.0440373
0.0370744
0.030923
0.0358907
0.0165782
0.0328705
0.0257166
0.199643
0.00264074
0.19893
0.00431898
0.197854
0.00569606
0.196456
0.00699658
0.194749
0.00828616
0.192729
0.00957918
0.190394
0.0108882
0.187738
0.0122315
0.18475
0.0136266
0.181419
0.0150858
0.177731
0.0166215
0.173669
0.0182439
0.169215
0.0199632
0.164349
0.0217907
0.159046
0.0237344
0.153281
0.0258008
0.147022
0.0279932
0.140239
0.0303106
0.132894
0.0327458
0.124949
0.0352828
0.116358
0.0378903
0.107085
0.0405186
0.097087
0.0430993
0.0863293
0.0455343
0.0747839
0.0476882
0.0624177
0.0493708
0.0491542
0.0503382
0.0347199
0.0503253
0.01846
0.0491305
0.0441766
0.199598
0.00306
0.198874
0.00505967
0.197809
0.00677599
0.19643
0.00839126
0.194748
0.00998288
0.192762
0.0115775
0.190468
0.0131912
0.187861
0.014845
0.18493
0.0165587
0.181666
0.0183469
0.178057
0.0202238
0.174089
0.0222016
0.169745
0.0242931
0.165008
0.0265119
0.159858
0.0288683
0.154271
0.0313717
0.148221
0.034029
0.141677
0.0368428
0.134603
0.0398097
0.126956
0.0429216
0.118686
0.0461563
0.109733
0.0494693
0.100026
0.0528053
0.0894756
0.0560844
0.0779781
0.059186
0.0654006
0.0619486
0.0515749
0.0641642
0.0362406
0.0656598
0.0190139
0.0663572
0.0631905
0.199575
0.00350131
0.198844
0.00580745
0.197794
0.00784119
0.196439
0.00976178
0.194788
0.0116485
0.192841
0.0135366
0.190595
0.0154473
0.188042
0.0174045
0.185173
0.0194298
0.181978
0.0215395
0.178446
0.0237485
0.174565
0.0260729
0.170316
0.0285284
0.165684
0.0311284
0.16065
0.0338866
0.15519
0.0368154
0.149278
0.0399262
0.142881
0.0432269
0.13596
0.0467212
0.128468
0.0504058
0.120347
0.0542716
0.111525
0.0582888
0.101913
0.0624163
0.0913858
0.0666108
0.0797876
0.0707841
0.0669422
0.0747941
0.0526483
0.0784583
0.0367119
0.0815962
0.019059
0.0840101
0.0822496
0.199566
0.00395166
0.198835
0.00655444
0.197803
0.00888829
0.196476
0.0111041
0.194862
0.0132773
0.192961
0.0154496
0.19077
0.0176486
0.18828
0.0199013
0.185482
0.0222303
0.182367
0.0246531
0.178922
0.0271871
0.175134
0.0298514
0.170986
0.0326632
0.166461
0.035638
0.161539
0.0387925
0.156196
0.0421426
0.150404
0.0457035
0.144125
0.049493
0.137313
0.0535225
0.129914
0.0577962
0.121859
0.0623211
0.113057
0.0670881
0.103407
0.072064
0.0927866
0.0772307
0.0810099
0.0825605
0.0678731
0.0879307
0.0531924
0.093139
0.0368147
0.0979739
0.0189357
0.101889
0.101185
0.199564
0.0044031
0.19884
0.00729394
0.19783
0.00991335
0.196536
0.012413
0.194966
0.0148628
0.193119
0.0173095
0.190991
0.0197874
0.188573
0.0223267
0.185856
0.0249502
0.182831
0.027677
0.179485
0.0305279
0.175803
0.0335238
0.17177
0.0366839
0.167365
0.0400274
0.162567
0.0435747
0.157348
0.0473457
0.151676
0.0513607
0.14551
0.0556452
0.138804
0.0602175
0.131491
0.0651005
0.123485
0.0703211
0.114682
0.0758876
0.104954
0.0817897
0.0941759
0.0880078
0.0821832
0.0945524
0.0687553
0.101358
0.0537223
0.108172
0.0369551
0.114741
0.0188624
0.119982
0.120048
0.199568
0.00485005
0.198855
0.00802145
0.197872
0.0109119
0.196618
0.0136818
0.195097
0.0163982
0.193311
0.0191093
0.191253
0.0218559
0.188916
0.0246717
0.186291
0.027579
0.183368
0.0305995
0.180135
0.0337568
0.176576
0.0370742
0.172674
0.0405734
0.168409
0.0442778
0.163756
0.0482121
0.158683
0.0524031
0.153149
0.0568793
0.147114
0.0616667
0.140526
0.0667939
0.133315
0.0723026
0.125385
0.0782446
0.116614
0.0846544
0.106855
0.0915455
0.0959459
0.0989151
0.0837373
0.10676
0.0700261
0.115069
0.05464
0.123557
0.0374616
0.131919
0.0190474
0.138396
0.139095
0.199575
0.00528954
0.19888
0.00873072
0.197928
0.0118786
0.196718
0.0149061
0.195253
0.0178779
0.193534
0.0208427
0.191554
0.0238476
0.189306
0.0269278
0.186783
0.0301066
0.183974
0.0334088
0.180867
0.0368607
0.177445
0.0404876
0.173693
0.0443145
0.169588
0.0483686
0.165106
0.0526793
0.160209
0.057284
0.154855
0.0622181
0.148997
0.0675116
0.142568
0.0732109
0.135498
0.0793632
0.127698
0.0860368
0.119031
0.0933165
0.109328
0.101244
0.0984007
0.10984
0.0860597
0.119099
0.0721021
0.129025
0.0563674
0.139291
0.0387078
0.149578
0.0197493
0.157354
0.158844
0.199585
0.00571771
0.198913
0.00941693
0.197995
0.0128108
0.196833
0.0160821
0.195431
0.0192953
0.193784
0.022503
0.191889
0.0257546
0.189741
0.0290854
0.187331
0.0325222
0.184648
0.0360927
0.181681
0.0398253
0.178414
0.0437478
0.174829
0.0478885
0.170906
0.0522785
0.166617
0.0569537
0.161928
0.0619583
0.156799
0.0673319
0.151175
0.0731217
0.144983
0.0793911
0.138138
0.0861978
0.130551
0.0936154
0.1221
0.101761
0.112594
0.110746
0.101813
0.120618
0.0895168
0.131392
0.075457
0.143083
0.0594371
0.155309
0.0412029
0.167811
0.0213741
0.177182
0.180218
0.199599
0.00613144
0.198951
0.0100776
0.198071
0.0137047
0.196963
0.0172045
0.195628
0.0206448
0.194062
0.0240833
0.192261
0.0275683
0.190221
0.0311353
0.187934
0.0348152
0.185391
0.0386382
0.182579
0.0426352
0.179485
0.0468363
0.17609
0.0512738
0.172373
0.0559836
0.168304
0.0610084
0.163857
0.066391
0.158995
0.0721795
0.153663
0.0784396
0.147793
0.0852488
0.141294
0.0926856
0.134063
0.100838
0.125984
0.109832
0.116879
0.119845
0.106497
0.130995
0.0945442
0.143342
0.0807124
0.156912
0.0646635
0.171357
0.0459027
0.186571
0.0248258
0.198259
0.205044
0.199614
0.00652877
0.198995
0.0107088
0.198157
0.0145557
0.197106
0.0182699
0.195843
0.0219229
0.194364
0.0255773
0.192664
0.0292811
0.19074
0.0330694
0.188586
0.0369759
0.186194
0.041034
0.183552
0.0452763
0.180648
0.0497357
0.177464
0.0544496
0.173979
0.0594579
0.17017
0.0648045
0.16601
0.0705361
0.161463
0.0767122
0.156487
0.0834024
0.151022
0.0907011
0.14499
0.0987071
0.138293
0.107526
0.130803
0.117314
0.122375
0.128266
0.112787
0.140577
0.101704
0.15442
0.0887478
0.169865
0.0733484
0.186754
0.0546448
0.205274
0.0321664
0.220737
0.23721
0.199632
0.00690707
0.199043
0.011309
0.19825
0.0153617
0.19726
0.0192736
0.196075
0.0231232
0.194688
0.026979
0.193095
0.0308866
0.191296
0.0348798
0.189285
0.0389952
0.187054
0.0432688
0.184596
0.0477355
0.181896
0.0524317
0.178942
0.0573971
0.175716
0.0626736
0.172201
0.0683075
0.168373
0.0743512
0.164201
0.0808704
0.159648
0.0879416
0.154679
0.0956579
0.149239
0.104136
0.143249
0.113505
0.136611
0.123942
0.129229
0.13564
0.12095
0.14885
0.111517
0.163848
0.100536
0.180842
0.0873274
0.199961
0.0707533
0.221847
0.0483013
0.243189
0.285512
0.199648
0.00726737
0.19909
0.0118774
0.198346
0.016118
0.197424
0.0202095
0.19632
0.0242426
0.195027
0.028286
0.193547
0.0323802
0.191878
0.0365604
0.190017
0.0408659
0.187956
0.0453351
0.185688
0.0500048
0.183203
0.0549149
0.180491
0.0601036
0.177544
0.0656123
0.174345
0.0714952
0.170877
0.077807
0.167123
0.0846113
0.163059
0.0919931
0.158669
0.100035
0.153929
0.108864
0.148798
0.118626
0.143256
0.129474
0.137272
0.141615
0.13082
0.155294
0.123881
0.17078
0.116338
0.188382
0.107944
0.208352
0.0981891
0.231601
0.0828147
0.258563
0.368327
-0.00510405
0.00510374
-0.0178068
0.0127014
-0.033615
0.0158042
-0.0510453
0.017422
-0.0692791
0.0182199
-0.0878047
0.0185056
-0.106265
0.0184352
-0.124394
0.0180986
-0.141983
0.017557
-0.158861
0.0168467
-0.174874
0.0159879
-0.189878
0.0149831
-0.203724
0.0138279
-0.216253
0.012514
-0.227295
0.0110309
-0.236667
0.00936488
-0.244157
0.00748609
-0.249538
0.00538208
-0.252574
0.00304195
-0.253007
0.000443755
-0.250492
-0.00249997
-0.244619
-0.00585244
-0.234959
-0.00963504
-0.221021
-0.0139089
-0.202207
-0.0187802
-0.177759
-0.0244093
-0.146558
-0.0311596
-0.106111
-0.0404014
-0.0508067
-0.0552556
-0.072732
-0.0116703
0.0167737
-0.0250058
0.0260356
-0.0408685
0.0316628
-0.0584127
0.0349578
-0.0768847
0.0366779
-0.0957276
0.0373285
-0.114536
0.0372182
-0.133007
0.0365401
-0.150918
0.0354361
-0.168101
0.0339987
-0.184399
0.0322608
-0.199665
0.0302283
-0.213752
0.0278966
-0.226497
0.0252445
-0.237742
0.0222648
-0.247314
0.0189291
-0.255001
0.0151695
-0.260583
0.0109647
-0.263849
0.00631353
-0.264566
0.00117134
-0.262517
-0.00453425
-0.257453
-0.0108967
-0.24907
-0.0179927
-0.237051
-0.0258987
-0.221052
-0.034746
-0.200693
-0.04473
-0.175536
-0.0562746
-0.145342
-0.0705503
-0.111517
-0.0890319
-0.109907
-0.0136834
0.0304568
-0.0283063
0.040657
-0.0443139
0.0476663
-0.0614491
0.0520845
-0.079251
0.0544659
-0.09731
0.0553678
-0.115293
0.0551768
-0.132948
0.054166
-0.150089
0.0525463
-0.166571
0.0504513
-0.182266
0.0479309
-0.197053
0.0449946
-0.210795
0.0416203
-0.223339
0.0377735
-0.234525
0.0334388
-0.244179
0.028575
-0.252108
0.0230944
-0.258098
0.0169551
-0.261939
0.0101583
-0.263423
0.00266558
-0.26237
-0.00557259
-0.258592
-0.014656
-0.251891
-0.0246695
-0.242093
-0.0356675
-0.22905
-0.0477555
-0.21266
-0.061082
-0.192979
-0.0759148
-0.170611
-0.0928731
-0.147065
-0.112529
-0.132753
-0.0143154
0.0447718
-0.0295395
0.0558797
-0.0454567
0.0635793
-0.0618957
0.0685151
-0.0786347
0.0711914
-0.0954468
0.072161
-0.112116
0.0718226
-0.128485
0.0705081
-0.144447
0.068479
-0.159893
0.0658686
-0.174711
0.0627245
-0.188792
0.0590552
-0.202014
0.0548236
-0.21423
0.0499739
-0.225259
0.0444555
-0.234906
0.0382124
-0.242983
0.0311663
-0.249291
0.0232617
-0.253613
0.0144844
-0.255758
0.00481879
-0.255581
-0.00573507
-0.252972
-0.0172471
-0.247821
-0.0297964
-0.240063
-0.043398
-0.22968
-0.0581049
-0.216743
-0.0739819
-0.201537
-0.09108
-0.18486
-0.109506
-0.168157
-0.129184
-0.147743
-0.0143701
0.0591416
-0.0295865
0.0710946
-0.0449988
0.0789874
-0.060455
0.0839631
-0.0758816
0.0866049
-0.0911817
0.0874432
-0.106266
0.0868845
-0.121102
0.0853194
-0.13566
0.0830096
-0.149857
0.0800389
-0.163599
0.0764429
-0.176778
0.0722141
-0.189267
0.0672935
-0.200916
0.0616062
-0.211546
0.0550718
-0.220962
0.0476177
-0.22898
0.0391784
-0.235414
0.029693
-0.24006
0.0191331
-0.242743
0.0075099
-0.243341
-0.00512494
-0.241784
-0.0187859
-0.238044
-0.0335142
-0.232138
-0.0492762
-0.224143
-0.0660678
-0.214229
-0.0838598
-0.202759
-0.10251
-0.190501
-0.121719
-0.178749
-0.140888
-0.15771
-0.0140423
0.0731835
-0.0287882
0.0858389
-0.0433036
0.0934987
-0.057473
0.0981245
-0.0713287
0.100448
-0.0848884
0.100986
-0.098207
0.100183
-0.111367
0.0984558
-0.124362
0.0959794
-0.137139
0.0927916
-0.149635
0.0889163
-0.161745
0.0843034
-0.173332
0.0788613
-0.184243
0.0725007
-0.194313
0.0651262
-0.203359
0.0566532
-0.211202
0.0470128
-0.217649
0.0361367
-0.222509
0.0239945
-0.225613
0.01062
-0.226849
-0.00387785
-0.226201
-0.0194165
-0.223711
-0.0359833
-0.219462
-0.0534981
-0.213598
-0.0719006
-0.206332
-0.09109
-0.198024
-0.110778
-0.18932
-0.130379
-0.181285
-0.148876
-0.164153
-0.0133867
0.0865698
-0.0272617
0.0997123
-0.0405017
0.106735
-0.053054
0.110669
-0.0650597
0.112442
-0.0766874
0.112599
-0.0881233
0.1116
-0.0994968
0.109808
-0.110825
0.107285
-0.122094
0.104036
-0.133248
0.100049
-0.144176
0.0952113
-0.154746
0.0894118
-0.164812
0.0825486
-0.174212
0.0745108
-0.182774
0.0652022
-0.190314
0.0545447
-0.196652
0.0424691
-0.20161
0.0289529
-0.205026
0.0140403
-0.206783
-0.00211076
-0.206903
-0.0192808
-0.205503
-0.0373628
-0.202728
-0.0562477
-0.198774
-0.075824
-0.193866
-0.0959633
-0.188295
-0.11631
-0.18254
-0.136091
-0.177411
-0.153958
-0.167945
-0.0124166
0.098986
-0.0250153
0.11231
-0.0365789
0.118294
-0.0471602
0.121244
-0.0570562
0.122328
-0.066598
0.122127
-0.076052
0.121038
-0.0855656
0.119303
-0.0951956
0.116894
-0.104931
0.113751
-0.114705
0.109801
-0.124409
0.104895
-0.133916
0.0988996
-0.143083
0.0916973
-0.151756
0.0831665
-0.159765
0.0731974
-0.166932
0.0617021
-0.173084
0.048615
-0.17805
0.0339171
-0.181674
0.0176678
-0.183819
4.25453e-05
-0.184529
-0.0185562
-0.184024
-0.0378489
-0.182508
-0.0577386
-0.180233
-0.0780703
-0.177423
-0.098739
-0.174273
-0.119422
-0.171052
-0.139269
-0.168311
-0.156653
-0.169614
-0.0111167
0.110102
-0.0219851
0.123176
-0.0314133
0.127719
-0.0396489
0.129473
-0.0472017
0.129871
-0.0545367
0.12945
-0.0619643
0.12845
-0.0696283
0.12695
-0.0775872
0.124834
-0.0858149
0.121958
-0.0942245
0.118191
-0.102716
0.113367
-0.111165
0.107329
-0.11943
0.0999438
-0.127363
0.0910818
-0.134803
0.0806229
-0.141579
0.0684663
-0.14751
0.0545389
-0.152407
0.0388113
-0.156095
0.0213579
-0.158504
0.00245865
-0.159682
-0.0173645
-0.159854
-0.0376592
-0.159344
-0.0582251
-0.158482
-0.0789037
-0.157505
-0.0996832
-0.156516
-0.120373
-0.155563
-0.140181
-0.154887
-0.157284
-0.169503
-0.00943587
0.119538
-0.0180177
0.131757
-0.0247608
0.134459
-0.0302747
0.134981
-0.0353023
0.134891
-0.0403883
0.134525
-0.0458366
0.133886
-0.0517374
0.132835
-0.0581067
0.131186
-0.0648948
0.128727
-0.0720014
0.125278
-0.0793231
0.120669
-0.0867439
0.11473
-0.0941331
0.107314
-0.101348
0.0982793
-0.108239
0.0874981
-0.114638
0.0748531
-0.120356
0.0602481
-0.12518
0.0436318
-0.128918
0.0250962
-0.131495
0.00504246
-0.132953
-0.0158944
-0.133567
-0.0370281
-0.133784
-0.0579855
-0.134035
-0.078626
-0.134596
-0.0990897
-0.135515
-0.119417
-0.136629
-0.139026
-0.137829
-0.15604
-0.167831
-0.00724165
0.126779
-0.0127908
0.137305
-0.0162033
0.137868
-0.0186751
0.137447
-0.0211331
0.137341
-0.0240723
0.137454
-0.027689
0.13749
-0.0319744
0.137106
-0.0368845
0.13608
-0.0423454
0.134171
-0.0482397
0.131154
-0.054456
0.126866
-0.0608814
0.121136
-0.0674112
0.113824
-0.0739233
0.104773
-0.0802802
0.0938389
-0.0863252
0.080885
-0.0918693
0.0657829
-0.0966773
0.0484349
-0.100497
0.0289157
-0.10319
0.00774069
-0.104795
-0.0142779
-0.105681
-0.0361266
-0.106388
-0.0572568
-0.107449
-0.0775386
-0.109213
-0.0972942
-0.111734
-0.116861
-0.114715
-0.136004
-0.117686
-0.153026
-0.164744
-0.00413166
0.13091
-0.00563314
0.138805
-0.00512824
0.13736
-0.00447115
0.136786
-0.00454789
0.137411
-0.00560963
0.138507
-0.007651
0.139521
-0.0105507
0.139993
-0.0141844
0.139699
-0.0184462
0.138416
-0.023224
0.135914
-0.028397
0.13202
-0.0338346
0.126554
-0.0394819
0.119452
-0.0452445
0.110518
-0.0510126
0.0995906
-0.0566542
0.0865132
-0.0620004
0.0711193
-0.0668117
0.0532406
-0.0707643
0.0328677
-0.0736284
0.0106092
-0.075399
-0.0124974
-0.0765323
-0.0349781
-0.0776326
-0.056136
-0.0792888
-0.0758567
-0.0819271
-0.0946254
-0.0856776
-0.113075
-0.0902494
-0.131393
-0.0949056
-0.148327
-0.160324
0.000854415
0.130056
0.00464975
0.135008
0.00914943
0.132858
0.012445
0.133486
0.0141916
0.135658
0.0145803
0.13811
0.0138181
0.140273
0.0120919
0.141707
0.00958631
0.14219
0.0064437
0.141543
0.00275322
0.139587
-0.00139993
0.136154
-0.00588591
0.13102
-0.0106106
0.124158
-0.0155212
0.11541
-0.0205481
0.104601
-0.0255985
0.0915499
-0.0305468
0.0760574
-0.0352414
0.0579291
-0.0394243
0.0370493
-0.0426122
0.013801
-0.0446623
-0.0104383
-0.0462139
-0.033412
-0.0478186
-0.0545115
-0.0500321
-0.0736184
-0.0533179
-0.09131
-0.0579154
-0.108443
-0.0636808
-0.12559
-0.0698677
-0.142098
-0.154616
0.0101212
0.119934
0.0193837
0.125745
0.0267353
0.125504
0.0315259
0.128691
0.0343477
0.13283
0.0357084
0.136742
0.0359333
0.140038
0.0352226
0.142406
0.0337512
0.143648
0.0316612
0.143618
0.0290514
0.14218
0.0260021
0.139186
0.0225656
0.134438
0.0188472
0.127857
0.0149111
0.119328
0.010812
0.108684
0.00661131
0.0957368
0.00237768
0.0802806
-0.00182442
0.0621249
-0.00593164
0.0411548
-0.00961336
0.017486
-0.0124331
-0.00761008
-0.0147009
-0.0311304
-0.0170738
-0.0521197
-0.0199966
-0.0706715
-0.0238816
-0.0873963
-0.0290398
-0.103252
-0.035525
-0.119067
-0.0429153
-0.134666
-0.147662
0.0265984
0.0933353
0.0390746
0.113267
0.0463451
0.118231
0.0513298
0.123702
0.054749
0.129405
0.0568733
0.13461
0.0579695
0.138932
0.0582209
0.142144
0.0577668
0.144089
0.0567165
0.144653
0.0551641
0.143716
0.0531862
0.141146
0.0508211
0.136785
0.0481454
0.130515
0.0452307
0.122226
0.0421314
0.111767
0.0388944
0.0989603
0.0355688
0.0835959
0.0322282
0.0654591
0.028902
0.044479
0.0254541
0.0209367
0.0218201
-0.00396807
0.0182629
-0.0275601
0.0146312
-0.0484696
0.0106582
-0.0666753
0.00603773
-0.0827478
0.000427947
-0.0976093
-0.00638976
-0.112212
-0.0144047
-0.126611
-0.139633
0.207315
0.00761998
0.206776
0.0124252
0.206066
0.0168403
0.205184
0.0211046
0.204127
0.0253156
0.202894
0.0295343
0.201488
0.0338008
0.199907
0.0381539
0.198148
0.0426349
0.196206
0.047283
0.194077
0.0521367
0.191755
0.0572361
0.189235
0.0626198
0.186512
0.0683275
0.183579
0.0744187
0.180427
0.0809477
0.177055
0.0879705
0.173466
0.0955695
0.169658
0.103831
0.165638
0.112872
0.161443
0.122809
0.15713
0.133774
0.152784
0.14595
0.14859
0.15948
0.144868
0.174495
0.142118
0.191127
0.14119
0.209276
0.143768
0.229023
0.154567
0.247763
0.259836
0.263058
0.212351
0.0079586
0.211846
0.0129385
0.211182
0.0175143
0.210356
0.0219442
0.209367
0.0263197
0.208222
0.0306954
0.206921
0.0351166
0.205463
0.0396251
0.203847
0.0442624
0.20207
0.0490677
0.200131
0.0540796
0.198031
0.0593372
0.195769
0.0648787
0.193344
0.0707473
0.190756
0.0769976
0.188019
0.0836749
0.185145
0.0908322
0.182158
0.0985449
0.179078
0.106899
0.175966
0.115972
0.172927
0.125835
0.170094
0.136594
0.16769
0.148342
0.166087
0.161072
0.165847
0.174727
0.167862
0.189107
0.173563
0.203572
0.18561
0.216974
0.205634
0.227739
0.239591
0.22588
0.217515
0.00827774
0.217047
0.013413
0.216435
0.0181364
0.215672
0.0227185
0.214765
0.0272413
0.213721
0.0317559
0.21254
0.0363128
0.211222
0.0409567
0.209769
0.045728
0.20818
0.050665
0.20646
0.0558054
0.204613
0.0611866
0.202644
0.0668458
0.200558
0.0728293
0.19837
0.0791779
0.196112
0.0859245
0.193808
0.0931247
0.1915
0.100842
0.189249
0.109138
0.187161
0.118048
0.185379
0.127605
0.184096
0.137863
0.183612
0.148813
0.184332
0.160341
0.186791
0.172259
0.191641
0.184251
0.199487
0.195723
0.210671
0.205787
0.223958
0.214452
0.22184
0.241708
0.222808
0.00857197
0.222381
0.0138462
0.221824
0.0187023
0.221135
0.0234177
0.220322
0.028068
0.21939
0.0327029
0.218344
0.037375
0.217184
0.0421315
0.215913
0.0470117
0.214536
0.0520519
0.21306
0.0572877
0.211495
0.0627548
0.209852
0.0684896
0.208146
0.0745322
0.20641
0.0809082
0.204681
0.0876459
0.203
0.0947962
0.201428
0.102403
0.20006
0.110495
0.199019
0.119077
0.198463
0.128149
0.198607
0.137705
0.199738
0.147667
0.202189
0.157877
0.206316
0.168123
0.21247
0.178089
0.22089
0.187298
0.231567
0.195108
0.244674
0.201344
0.204855
0.261659
0.228232
0.00883678
0.22785
0.0142346
0.227353
0.0192063
0.226748
0.0240329
0.226041
0.0287882
0.225235
0.0335227
0.224337
0.0382884
0.223351
0.0431328
0.222282
0.0480939
0.221139
0.0532058
0.219933
0.0585017
0.218678
0.0640142
0.217393
0.0697761
0.216108
0.0758162
0.214859
0.0821521
0.21369
0.0888086
0.212657
0.0958212
0.211838
0.103212
0.211339
0.110984
0.211288
0.119117
0.211841
0.127585
0.2132
0.136333
0.215599
0.145253
0.219279
0.154184
0.224479
0.162912
0.231442
0.171118
0.2403
0.178436
0.25096
0.184445
0.26337
0.188931
0.19108
0.277144
0.23379
0.0090699
0.233456
0.014573
0.233029
0.01964
0.232517
0.0245546
0.231925
0.0293917
0.231258
0.0342028
0.230523
0.0390385
0.229726
0.0439441
0.228878
0.0489563
0.227988
0.0541066
0.227074
0.0594252
0.226153
0.0649406
0.225253
0.0706788
0.22441
0.0766591
0.223664
0.0828948
0.223065
0.0894025
0.22268
0.0961993
0.222595
0.103289
0.222916
0.110653
0.223766
0.118257
0.225292
0.126048
0.227659
0.133953
0.231045
0.141854
0.235628
0.149588
0.241592
0.156937
0.249059
0.163642
0.258011
0.169477
0.268264
0.174187
0.279569
0.177623
0.179051
0.291596
0.239483
0.0092691
0.239204
0.0148549
0.238855
0.0199948
0.238444
0.0249742
0.237977
0.0298694
0.23746
0.0347325
0.2369
0.0396121
0.236308
0.0445509
0.235694
0.0495834
0.235075
0.0547381
0.234468
0.0600413
0.233899
0.0655165
0.233399
0.0711827
0.233007
0.0770524
0.232767
0.0831325
0.232736
0.0894297
0.232984
0.0959455
0.233598
0.102668
0.234677
0.109566
0.236335
0.116589
0.238693
0.12368
0.241879
0.130755
0.246038
0.137682
0.251306
0.144307
0.257778
0.150455
0.265463
0.155948
0.274298
0.160636
0.284116
0.164363
0.294715
0.16702
0.16788
0.305883
0.245316
0.00943122
0.245098
0.0150747
0.244833
0.0202636
0.244531
0.0252837
0.244197
0.0302124
0.24384
0.0351018
0.243467
0.0399982
0.243091
0.044941
0.242726
0.0499621
0.242389
0.0550871
0.242104
0.0603374
0.241897
0.065731
0.241803
0.0712808
0.241865
0.076993
0.242128
0.0828682
0.242652
0.0889032
0.243505
0.0950873
0.24477
0.101397
0.246536
0.107792
0.2489
0.114216
0.251959
0.12061
0.25582
0.126882
0.260592
0.132898
0.266352
0.138536
0.273124
0.143673
0.280883
0.148179
0.289566
0.151945
0.299047
0.154876
0.309165
0.156896
0.157339
0.319701
0.251293
0.00955288
0.25114
0.0152273
0.250966
0.0204398
0.25078
0.0254758
0.250588
0.0304126
0.250399
0.0353017
0.250223
0.0401867
0.250073
0.045104
0.249966
0.050082
0.249922
0.0551432
0.249966
0.0603047
0.250127
0.0655787
0.250441
0.0709724
0.250951
0.0764858
0.251706
0.0821138
0.252762
0.0878457
0.254184
0.0936615
0.256046
0.09953
0.258424
0.105407
0.261398
0.111236
0.265049
0.11695
0.269465
0.122456
0.274704
0.127648
0.280797
0.132433
0.287745
0.136715
0.295516
0.140399
0.304045
0.143409
0.313227
0.145687
0.32293
0.147187
0.147318
0.332946
0.257416
0.00963075
0.257333
0.0153079
0.257256
0.0205177
0.257192
0.0255438
0.257149
0.0304625
0.257136
0.0353241
0.257164
0.0401696
0.257249
0.0450317
0.257407
0.0499359
0.257662
0.0549008
0.258038
0.0599392
0.258567
0.0650589
0.259285
0.0702614
0.260234
0.0755418
0.261459
0.0808893
0.263017
0.0862873
0.264965
0.0917108
0.267367
0.0971241
0.270287
0.102482
0.273787
0.10773
0.277932
0.112796
0.282783
0.117596
0.288365
0.122055
0.294688
0.1261
0.30174
0.129655
0.30948
0.132651
0.317846
0.135036
0.326749
0.136777
0.336081
0.137848
0.13773
0.345664
0.263689
0.00966169
0.26368
0.0153124
0.263704
0.0204924
0.263768
0.025482
0.26388
0.030356
0.264049
0.0351628
0.264288
0.0399405
0.264612
0.0447188
0.26504
0.0495194
0.265594
0.0543575
0.266302
0.059242
0.267194
0.0641762
0.268306
0.0691575
0.269676
0.074177
0.271349
0.0792195
0.273373
0.0842637
0.275801
0.0892815
0.278685
0.0942369
0.282077
0.0990856
0.286024
0.103777
0.290575
0.108239
0.295763
0.112401
0.301599
0.116211
0.308077
0.119614
0.315177
0.122547
0.322855
0.124965
0.331053
0.126831
0.339694
0.128128
0.348692
0.128844
0.128523
0.357893
0.270116
0.00964289
0.270184
0.0152372
0.270313
0.0203596
0.270509
0.0252857
0.27078
0.0300883
0.271136
0.0348132
0.271589
0.0394957
0.272155
0.0441622
0.272854
0.0488313
0.273707
0.0535146
0.274741
0.0582177
0.275986
0.0629401
0.277475
0.0676757
0.279246
0.0724125
0.281337
0.0771326
0.28379
0.0818122
0.28665
0.0864218
0.289959
0.0909256
0.293759
0.0952827
0.298083
0.0994479
0.302961
0.103357
0.30841
0.106946
0.314429
0.110185
0.321005
0.113031
0.32811
0.115435
0.335704
0.117364
0.34373
0.118799
0.352124
0.119728
0.360812
0.12015
0.119667
0.369663
0.276699
0.00957197
0.276847
0.0150794
0.277084
0.020116
0.277416
0.0249516
0.277849
0.029656
0.278394
0.0342725
0.279063
0.0388333
0.279871
0.0433619
0.280838
0.0478736
0.281985
0.0523771
0.283337
0.0568748
0.284921
0.0613635
0.28677
0.0658344
0.288915
0.0702733
0.291391
0.0746607
0.294234
0.0789721
0.297479
0.0831782
0.301159
0.0872448
0.305306
0.0911342
0.309944
0.0948063
0.315087
0.09821
0.320733
0.101296
0.326877
0.104035
0.333505
0.106398
0.340586
0.108349
0.348077
0.109867
0.355929
0.110941
0.364085
0.111567
0.372481
0.111748
0.111138
0.381005
0.283442
0.00944703
0.283671
0.0148366
0.284019
0.0197594
0.284489
0.0244774
0.285086
0.0290573
0.285821
0.0335397
0.286705
0.0379537
0.287753
0.0423198
0.288983
0.0466507
0.290416
0.0509523
0.292074
0.0552245
0.293982
0.059462
0.296169
0.0636542
0.298662
0.0677856
0.301491
0.0718363
0.304683
0.0757822
0.308268
0.0795953
0.312269
0.0832444
0.316707
0.0866955
0.321598
0.0899131
0.326945
0.0928603
0.332738
0.0955001
0.338966
0.0978036
0.345611
0.0997483
0.352641
0.101314
0.360017
0.102486
0.367693
0.103261
0.375617
0.103638
0.383736
0.103624
0.102919
0.391951
0.290347
0.00926647
0.290661
0.0145071
0.29112
0.0192881
0.291728
0.0238618
0.29249
0.0282918
0.293414
0.0326154
0.294511
0.036859
0.295794
0.0410404
0.297281
0.0451696
0.298989
0.0492503
0.300939
0.0532807
0.303153
0.0572538
0.305655
0.0611579
0.308468
0.0649775
0.311616
0.0686928
0.31512
0.072281
0.319
0.0757163
0.323274
0.0789711
0.327954
0.082016
0.333044
0.0848218
0.338543
0.0873597
0.34444
0.0896012
0.350717
0.0915235
0.357352
0.0931103
0.364313
0.094349
0.371563
0.0952323
0.379061
0.0957593
0.38676
0.0959348
0.394614
0.0957662
0.0949931
0.402536
0.29742
0.00902901
0.297818
0.01409
0.29839
0.0187014
0.299136
0.023105
0.300061
0.0273603
0.301171
0.0315019
0.302476
0.0355534
0.303989
0.0395298
0.305722
0.0434392
0.307693
0.0472835
0.309919
0.0510594
0.312419
0.0547589
0.315211
0.0583703
0.318314
0.061878
0.321747
0.0652635
0.325524
0.0685058
0.32966
0.0715821
0.334164
0.0744681
0.33904
0.0771393
0.344288
0.0795729
0.349902
0.0817456
0.355867
0.0836352
0.362162
0.085226
0.368764
0.0865066
0.37564
0.0874697
0.382757
0.0881126
0.390075
0.0884375
0.397554
0.0884515
0.405154
0.0881632
0.0873468
0.412797
0.304664
0.00873387
0.305146
0.013585
0.305829
0.0179998
0.306712
0.022208
0.307798
0.0262654
0.30909
0.0302033
0.310598
0.0340427
0.31233
0.0377964
0.3143
0.0414706
0.316519
0.0450658
0.319004
0.0485779
0.321767
0.0519985
0.324824
0.055316
0.328189
0.0585156
0.331874
0.0615804
0.33589
0.0644917
0.340244
0.0672294
0.344939
0.0697733
0.349975
0.0721032
0.355346
0.0742014
0.361041
0.0760498
0.367044
0.0776313
0.373333
0.0789354
0.379883
0.0799553
0.386662
0.0806875
0.39364
0.0811325
0.40078
0.0812947
0.408045
0.0811824
0.4154
0.080805
0.079967
0.422777
0.312081
0.00838067
0.312647
0.0129923
0.313441
0.0171843
0.314459
0.0211732
0.315701
0.0250105
0.31717
0.0287248
0.318872
0.0323342
0.320815
0.0358496
0.323008
0.0392759
0.325462
0.0426124
0.328186
0.0458544
0.331191
0.0489938
0.334489
0.0520193
0.338088
0.0549175
0.341996
0.0576732
0.346218
0.0602701
0.350757
0.0626912
0.35561
0.0649197
0.360772
0.0669394
0.366236
0.0687372
0.371986
0.0702994
0.378004
0.0716125
0.384267
0.0726704
0.390751
0.07347
0.397426
0.0740106
0.404261
0.0742948
0.411224
0.0743285
0.418282
0.0741207
0.425403
0.0736811
0.0728408
0.432526
0.319677
0.0079694
0.320326
0.0123128
0.321228
0.0162569
0.322377
0.0200036
0.323771
0.0236003
0.325411
0.0270725
0.327299
0.0304361
0.329442
0.0337
0.331846
0.0368679
0.334517
0.0399385
0.337462
0.0429069
0.340689
0.0457653
0.344204
0.0485033
0.348012
0.0511089
0.352116
0.0535689
0.356515
0.0558692
0.361209
0.0579959
0.366192
0.0599353
0.371454
0.0616747
0.376985
0.063205
0.382768
0.0645156
0.388783
0.0655965
0.395007
0.0664447
0.401415
0.0670598
0.40798
0.0674433
0.414672
0.0675993
0.421463
0.0675346
0.428322
0.0672582
0.435219
0.06678
0.0659543
0.442103
0.327454
0.00750033
0.328185
0.0115479
0.329193
0.01522
0.330469
0.018703
0.33201
0.0220401
0.333813
0.0252537
0.335879
0.0283573
0.338211
0.0313585
0.340811
0.0342598
0.343684
0.0370596
0.346833
0.039753
0.350262
0.0423327
0.353973
0.0447895
0.357966
0.0471129
0.36224
0.0492915
0.366793
0.0513136
0.371618
0.0531678
0.376706
0.0548435
0.382046
0.0563308
0.387625
0.0576237
0.393424
0.0587147
0.399423
0.059596
0.405598
0.0602671
0.411925
0.0607297
0.418379
0.0609867
0.424932
0.0610431
0.431556
0.0609061
0.438226
0.0605847
0.444913
0.0600884
0.0592921
0.451572
0.335418
0.00697396
0.336229
0.0106993
0.337339
0.0140765
0.338739
0.0172758
0.34042
0.0203357
0.342378
0.0232757
0.344613
0.0261071
0.347122
0.0288362
0.349906
0.0314646
0.352966
0.0339904
0.356303
0.0364092
0.359915
0.0387142
0.363801
0.0408973
0.367959
0.0429496
0.372383
0.0448616
0.377068
0.0466237
0.382004
0.0482268
0.387179
0.0496627
0.39258
0.0509241
0.398192
0.0520075
0.403996
0.0529077
0.40997
0.0536188
0.416092
0.0541418
0.422338
0.0544802
0.428683
0.0546375
0.435102
0.0546195
0.44157
0.0544332
0.448063
0.0540873
0.454556
0.0535909
0.0528368
0.461007
0.343573
0.00639087
0.344461
0.0097686
0.345672
0.0128295
0.34719
0.0157264
0.349005
0.0184932
0.351112
0.0211462