/*--------------------------------*- C++ -*----------------------------------*\
| =========                 |                                                 |
| \\      /  F ield         | OpenFOAM: The Open Source CFD Toolbox           |
|  \\    /   O peration     | Version:  dev                                   |
|   \\  /    A nd           | Web:      www.OpenFOAM.org                      |
|    \\/     M anipulation  |                                                 |
\*---------------------------------------------------------------------------*/
FoamFile
{
    version     2.0;
    format      ascii;
    class       volVectorField;
    location    "4.76";
    object      U;
}
// * * * * * * * * * * * * * * * * * * * * * * * * * * * * * * * * * * * * * //

dimensions      [0 1 -1 0 0 0 0];

internalField   nonuniform List<vector> 
2790
(
(9.93305 -9.96596e-22 0.0187803)
(9.86516 1.74982e-20 0.0262547)
(9.77142 -1.71044e-20 0.0312333)
(9.65557 0 0.0363595)
(9.52441 0 0.0417054)
(9.37979 0 0.0472435)
(9.22101 0 0.053117)
(9.04701 -1.0549e-20 0.0594727)
(8.85685 5.42869e-21 0.0664251)
(8.64966 2.30235e-20 0.0740914)
(8.42442 -2.37923e-20 0.0825957)
(8.17991 0 0.0920659)
(7.91479 0 0.10264)
(7.62762 0 0.114466)
(7.3169 0 0.127702)
(6.98106 7.53725e-21 0.142508)
(6.61856 0 0.159037)
(6.22797 0 0.177428)
(5.80802 0 0.197785)
(5.35781 -3.65729e-20 0.22016)
(4.87691 3.83619e-20 0.24452)
(4.36559 0 0.270711)
(3.82507 3.3879e-19 0.298415)
(3.25775 -8.36908e-20 0.327083)
(2.66755 -4.55025e-19 0.355832)
(2.06021 2.85464e-19 0.383243)
(1.44348 -3.88487e-19 0.40708)
(0.831297 0 0.420215)
(0.120662 -1.99874e-19 0.265411)
(-0.0877143 -2.10649e-19 -0.309366)
(9.99545 0 0.0371535)
(9.98596 -2.46784e-20 0.0540716)
(9.95237 2.56046e-20 0.0662825)
(9.89494 1.77449e-20 0.0793574)
(9.8194 6.86562e-23 0.0934513)
(9.72774 5.34524e-23 0.108423)
(9.61953 4.02468e-20 0.124555)
(9.49389 -4.15939e-20 0.142165)
(9.34997 5.44735e-21 0.161509)
(9.18697 0 0.182851)
(9.00397 9.55681e-20 0.206473)
(8.79982 1.2468e-21 0.232664)
(8.57324 -9.9908e-20 0.261732)
(8.3228 0 0.293999)
(8.04702 0 0.329782)
(7.74428 -7.45117e-21 0.369379)
(7.41299 -2.20568e-19 0.413033)
(7.05155 2.2719e-19 0.460894)
(6.6585 0 0.512962)
(6.23261 1.07786e-19 0.569017)
(5.77306 5.69626e-19 0.628521)
(5.27954 -7.05061e-19 0.690507)
(4.75255 6.63422e-19 0.753434)
(4.19362 -5.97036e-19 0.815003)
(3.60563 -8.8854e-20 0.87183)
(2.99331 -9.19913e-20 0.918801)
(2.36406 -1.52522e-18 0.947421)
(1.72978 -6.18552e-21 0.939592)
(1.05585 -1.37271e-18 0.833881)
(0.665995 3.51536e-18 0.588512)
(9.99263 7.94984e-21 0.0381716)
(9.98049 -2.46498e-20 0.062431)
(9.94923 1.70356e-20 0.082654)
(9.8966 4.21508e-23 0.104182)
(9.82715 5.5128e-23 0.12748)
(9.74287 1.93318e-20 0.152459)
(9.64361 -9.99486e-20 0.179478)
(9.5287 -6.30353e-20 0.208986)
(9.39738 1.08137e-19 0.241386)
(9.24899 0 0.277101)
(9.08277 9.51316e-20 0.316586)
(8.89776 9.75276e-20 0.360326)
(8.69284 -2.05093e-19 0.408844)
(8.46677 0 0.462686)
(8.21821 1.40824e-20 0.522408)
(7.94567 -2.37972e-19 0.588543)
(7.64762 2.1447e-19 0.66156)
(7.32242 9.69561e-20 0.74179)
(6.96845 6.7561e-20 0.829347)
(6.58411 -6.42344e-19 0.92401)
(6.16794 7.36464e-19 1.02506)
(5.71868 7.75979e-20 1.13108)
(5.23542 0 1.23972)
(4.71767 -1.35235e-18 1.3474)
(4.16546 1.38847e-18 1.44874)
(3.57927 5.39793e-19 1.53564)
(2.95896 2.97449e-18 1.59558)
(2.30319 -3.01822e-18 1.60722)
(1.56027 0 1.53626)
(0.9256 4.05876e-19 1.35075)
(9.99078 0 0.0415797)
(9.97625 0 0.074824)
(9.94479 -6.80342e-20 0.104485)
(9.89331 0 0.134842)
(9.82542 0 0.166996)
(9.74299 3.82569e-20 0.201225)
(9.64615 1.99431e-20 0.238032)
(9.53443 2.07727e-20 0.278013)
(9.4072 -2.16478e-20 0.321748)
(9.26395 2.03934e-19 0.369821)
(9.10415 -1.87166e-19 0.422851)
(8.92708 -3.05562e-21 0.481508)
(8.73191 2.04816e-19 0.546516)
(8.51771 2.18553e-19 0.618634)
(8.2835 -7.79541e-21 0.698651)
(8.02816 -9.36051e-19 0.787355)
(7.75048 9.17548e-19 0.88548)
(7.44916 -1.15073e-18 0.993626)
(7.12277 4.63636e-19 1.11217)
(6.76977 0 1.24112)
(6.38847 -1.46148e-19 1.37991)
(5.97703 0 1.52714)
(5.53336 0 1.68029)
(5.055 0 1.83532)
(4.53886 1.70673e-19 1.98615)
(3.98049 -7.01173e-19 2.12399)
(3.37233 3.58531e-19 2.23636)
(2.70438 0 2.30524)
(1.92336 0 2.31183)
(1.14675 -3.98521e-19 2.25607)
(9.98984 0 0.0465287)
(9.97392 0 0.0873662)
(9.94222 6.79717e-20 0.125175)
(9.89163 0 0.163397)
(9.82517 7.33222e-20 0.203648)
(9.74448 -3.82016e-20 0.24658)
(9.64979 4.00937e-20 0.292776)
(9.54076 -1.65447e-19 0.342919)
(9.4168 1.07249e-19 0.397716)
(9.27749 -1.80521e-19 0.457858)
(9.12241 1.86109e-19 0.524068)
(8.95099 6.10607e-21 0.597138)
(8.76258 -1.59276e-21 0.67792)
(8.55652 0 0.767321)
(8.33206 0 0.866295)
(8.08841 2.88478e-20 0.975824)
(7.8247 1.20777e-19 1.09686)
(7.53993 1.07936e-18 1.23024)
(7.233 1.48695e-20 1.37663)
(6.9026 1.52809e-20 1.53636)
(6.54707 -1.13581e-18 1.70923)
(6.16431 1.19746e-18 1.89424)
(5.75153 -1.07463e-18 2.08922)
(5.30492 0 2.29043)
(4.81907 -3.28792e-19 2.49225)
(4.28613 3.42245e-19 2.68675)
(3.69441 -3.50881e-19 2.86346)
(3.03107 0 3.00853)
(2.25892 1.78562e-19 3.10341)
(1.38411 -6.16168e-18 3.18867)
(9.98936 -1.57949e-20 0.0522098)
(9.97276 -1.14078e-19 0.0999453)
(9.94117 3.39323e-20 0.145447)
(9.89164 3.51772e-20 0.191491)
(9.82681 -7.32203e-20 0.239861)
(9.74823 0 0.291457)
(9.65612 -3.98322e-20 0.346925)
(9.55015 8.19929e-20 0.407015)
(9.42982 -1.50869e-19 0.472544)
(9.29478 1.77501e-19 0.544306)
(9.14466 -1.63695e-19 0.623127)
(8.97899 1.92568e-19 0.709905)
(8.79724 3.99787e-19 0.805607)
(8.59889 -4.18148e-19 0.911259)
(8.38335 0 1.02796)
(8.15004 -5.71362e-20 1.15687)
(7.89827 -1.01944e-18 1.29912)
(7.62728 1.04849e-18 1.45579)
(7.33619 0 1.6278)
(7.02387 1.08371e-18 1.81585)
(6.68877 -3.50364e-18 2.02021)
(6.32868 -1.1617e-19 2.24049)
(5.94048 -2.54472e-18 2.47531)
(5.51958 3.08967e-19 2.72184)
(5.05944 -2.25427e-18 2.97554)
(4.55059 5.26745e-18 3.22987)
(3.97981 2.71726e-18 3.4759)
(3.33195 1.91687e-19 3.70244)
(2.60037 -5.62823e-18 3.87649)
(1.64726 -1.83097e-19 4.08955)
(9.98911 1.25789e-19 0.0582287)
(9.97234 2.60222e-19 0.112519)
(9.94123 0 0.165303)
(9.89299 -1.56635e-22 0.218921)
(9.83002 7.27843e-20 0.275139)
(9.75391 -7.56381e-20 0.335043)
(9.66481 -1.58096e-19 0.399398)
(9.56237 -1.32713e-21 0.469033)
(9.44619 1.26969e-19 0.544854)
(9.316 -2.21903e-20 0.627754)
(9.17147 -9.61258e-23 0.718657)
(9.0122 -3.86095e-19 0.818556)
(8.83776 8.05751e-19 0.928506)
(8.64769 4.94401e-21 1.04964)
(8.44154 4.54687e-19 1.18317)
(8.21882 3.9543e-20 1.33042)
(7.97897 -8.74182e-19 1.49268)
(7.72133 -6.12479e-20 1.67126)
(7.44513 -1.26159e-19 1.86738)
(7.14931 0 2.08212)
(6.83242 1.37306e-19 2.31628)
(6.49226 -2.13244e-18 2.57017)
(6.12555 4.67436e-18 2.84342)
(5.72734 -5.42025e-18 3.13443)
(5.2907 -3.26654e-19 3.44004)
(4.80583 2.52826e-18 3.75507)
(4.25945 0 4.07091)
(3.6309 -3.28229e-19 4.37825)
(2.95572 -9.42016e-20 4.6196)
(1.93375 2.67761e-19 4.94341)
(9.989 -1.25656e-19 0.0643651)
(9.9724 -1.29823e-19 0.12496)
(9.94212 0 0.184632)
(9.8954 -1.77285e-22 0.245514)
(9.83457 -1.45441e-19 0.309288)
(9.76124 1.50666e-19 0.377165)
(9.67553 0 0.450048)
(9.5771 0 0.528846)
(9.46562 0 0.614529)
(9.34088 0 0.708077)
(9.20259 -6.85099e-20 0.810504)
(9.05045 3.82313e-19 0.922892)
(8.88408 -3.93306e-19 1.04638)
(8.70313 -4.13436e-19 1.18219)
(8.50719 4.04835e-19 1.33167)
(8.29587 -2.76347e-20 1.49626)
(8.06867 -9.57096e-19 1.67747)
(7.825 9.51816e-19 1.87679)
(7.56413 1.24729e-19 2.09577)
(7.28501 -2.19569e-18 2.33592)
(6.98618 2.11583e-18 2.59862)
(6.66546 -2.20698e-18 2.88496)
(6.31975 -2.01196e-20 3.19565)
(5.94389 2.60798e-18 3.53041)
(5.53064 1.53097e-19 3.88738)
(5.07052 -4.87339e-18 4.26279)
(4.55121 4.93844e-18 4.64739)
(3.94182 1.58554e-19 5.03428)
(3.32784 5.04901e-18 5.33581)
(2.24057 -1.36939e-19 5.75869)
(9.98901 0 0.0704773)
(9.97283 0 0.137142)
(9.94363 0 0.203333)
(9.89867 -1.38868e-19 0.271155)
(9.84026 -7.17537e-20 0.342173)
(9.77001 -7.47959e-20 0.417667)
(9.68806 0 0.498679)
(9.59407 0 0.586202)
(9.4878 0 0.681261)
(9.36906 0 0.784908)
(9.23765 2.36946e-22 0.898245)
(9.09331 0 1.02243)
(8.9358 0 1.15867)
(8.76482 -1.26291e-20 1.30829)
(8.58004 9.87758e-21 1.47278)
(8.38108 2.7405e-20 1.65374)
(8.16752 -5.65637e-20 1.85283)
(7.93886 -9.42531e-19 2.07178)
(7.69442 -9.84828e-19 2.31244)
(7.43319 2.11941e-18 2.57684)
(7.15361 2.13911e-18 2.86694)
(6.85345 2.24865e-18 3.18462)
(6.52994 2.05523e-18 3.5318)
(6.17801 -2.22743e-18 3.9096)
(5.79004 1.44033e-19 4.31741)
(5.35653 -7.15532e-20 4.75279)
(4.86682 -4.5256e-21 5.20568)
(4.27536 4.81488e-18 5.67329)
(3.72078 -4.8201e-18 6.03545)
(2.56725 2.04752e-20 6.55453)
(9.98912 1.39951e-19 0.0764608)
(9.97357 1.612e-20 0.148952)
(9.94564 -1.66597e-19 0.221323)
(9.90266 1.38705e-19 0.295735)
(9.84694 7.19784e-20 0.373648)
(9.78007 0 0.456374)
(9.70219 1.55307e-19 0.545083)
(9.61303 -7.89933e-20 0.640851)
(9.51241 -5.0071e-19 0.744753)
(9.40021 3.44469e-19 0.857907)
(9.27623 4.49688e-20 0.981493)
(9.14033 -4.63613e-20 1.11673)
(8.99238 4.80562e-20 1.26487)
(8.83216 1.25451e-20 1.42737)
(8.65945 8.29537e-19 1.60586)
(8.47394 8.47368e-21 1.8021)
(8.2752 -8.4809e-19 2.01791)
(8.06279 1.42335e-20 2.25524)
(7.83613 0 2.5163)
(7.59442 1.95592e-18 2.80363)
(7.33613 -2.11904e-18 3.11989)
(7.05892 1.92933e-18 3.46772)
(6.76003 -4.00013e-18 3.85014)
(6.43483 2.13581e-18 4.26998)
(6.07581 4.34892e-18 4.72822)
(5.67239 6.31206e-20 5.22379)
(5.21583 -4.45215e-18 5.74632)
(4.64224 -7.12566e-20 6.29938)
(4.1425 0 6.73185)
(2.91765 0 7.35609)
(9.98931 -1.24213e-19 0.0822402)
(9.97452 0 0.160304)
(9.94802 4.26085e-22 0.23852)
(9.90725 -6.90501e-20 0.319146)
(9.85449 7.13289e-20 0.403573)
(9.79124 -1.47962e-19 0.493131)
(9.71774 -7.67047e-20 0.589083)
(9.63376 7.98821e-20 0.692574)
(9.53922 3.31779e-19 0.804739)
(9.43403 -3.41326e-19 0.926766)
(9.31803 -8.84634e-20 1.0599)
(9.19116 -3.23211e-19 1.20539)
(9.05337 2.83943e-19 1.36455)
(8.90454 0 1.5389)
(8.74467 0 1.73025)
(8.57356 0 1.94053)
(8.39093 8.65412e-19 2.17178)
(8.19624 -9.05295e-19 2.42613)
(7.9889 0 2.70604)
(7.76852 0 3.01464)
(7.53388 2.00226e-18 3.35538)
(7.28269 1.97422e-18 3.73177)
(7.01194 -6.35973e-20 4.14782)
(6.71771 0 4.60823)
(6.39292 -4.12162e-18 5.1161)
(6.02528 8.18651e-18 5.6725)
(5.60805 -4.32459e-18 6.26816)
(5.05619 0 6.91564)
(4.6078 2.56898e-19 7.43937)
(3.30271 0 8.19569)
(9.98959 1.54393e-20 0.0877589)
(9.97565 -1.59315e-20 0.171127)
(9.9507 4.5462e-22 0.254842)
(9.91237 1.36823e-19 0.341282)
(9.86279 -1.42461e-19 0.431827)
(9.80339 5.89306e-19 0.527803)
(9.73451 2.29657e-19 0.630513)
(9.65605 -2.36571e-19 0.741171)
(9.56794 0 0.860978)
(9.47016 0 0.9912)
(9.36259 1.75513e-19 1.13313)
(9.24537 2.74156e-19 1.28804)
(9.11842 -3.26856e-19 1.45728)
(8.98164 0 1.64243)
(8.83524 -8.03648e-19 1.84538)
(8.67924 1.65033e-18 2.06827)
(8.5137 6.2139e-21 2.31342)
(8.33816 -8.42842e-19 2.58319)
(8.15187 1.79554e-18 2.88019)
(7.95473 9.00789e-21 3.20798)
(7.74617 6.62069e-21 3.57093)
(7.52426 1.89661e-18 3.97346)
(7.286 1.92439e-18 4.42065)
(7.02845 -1.82579e-18 4.91921)
(6.74503 1.1999e-19 5.4748)
(6.42197 1.24356e-19 6.09211)
(6.05478 -3.96911e-18 6.7658)
(5.53657 8.46185e-20 7.52069)
(5.14303 -1.19588e-19 8.17068)
(3.74645 4.14555e-18 9.11722)
(9.98992 2.45325e-19 0.0929699)
(9.97691 0 0.181361)
(9.95368 4.81015e-22 0.270215)
(9.91795 -1.36567e-19 0.362053)
(9.87169 1.41573e-19 0.458304)
(9.81637 -2.92664e-19 0.560259)
(9.75241 -1.51881e-19 0.669216)
(9.67973 3.93273e-19 0.786464)
(9.59834 -3.23639e-19 0.913282)
(9.50818 0 1.05099)
(9.40938 2.61178e-19 1.20089)
(9.30228 -2.67297e-19 1.36429)
(9.1868 0 1.54262)
(9.06285 -6.70844e-19 1.73748)
(8.93066 1.57187e-18 1.95076)
(8.79051 -1.61677e-18 2.18474)
(8.64274 8.27691e-19 2.442)
(8.48731 2.60066e-20 2.72523)
(8.32376 0 3.0372)
(8.15186 1.66603e-18 3.3817)
(7.97184 -1.68968e-18 3.76386)
(7.78255 1.12731e-19 4.18905)
(7.58165 1.94769e-18 4.66348)
(7.36727 -2.19447e-18 5.19581)
(7.13406 -3.42857e-19 5.79482)
(6.86844 0 6.47064)
(6.56886 2.30958e-19 7.22565)
(6.11048 0 8.10181)
(5.79333 0 8.92903)
(4.29817 0 10.1848)
(9.99025 -2.44973e-19 0.0978333)
(9.97833 -3.15765e-20 0.190947)
(9.957 4.90238e-19 0.284578)
(9.9239 -1.35548e-19 0.381399)
(9.8811 7.00637e-20 0.482906)
(9.83017 -2.90616e-19 0.59036)
(9.77141 1.50025e-19 0.705049)
(9.70475 0 0.828321)
(9.63026 -1.62184e-19 0.961519)
(9.54797 -1.95438e-21 1.10597)
(9.45824 3.41861e-19 1.26296)
(9.36146 8.80589e-20 1.43382)
(9.25771 -7.31294e-19 1.62012)
(9.14719 -5.42694e-21 1.8235)
(9.02998 9.15055e-20 2.04579)
(8.9065 1.48493e-18 2.28934)
(8.77716 -7.08413e-19 2.55684)
(8.64264 -5.22024e-20 2.85121)
(8.50308 0 3.17552)
(8.35828 1.82496e-18 3.53372)
(8.20914 -1.84815e-18 3.93131)
(8.05558 -1.1081e-19 4.37443)
(7.89694 1.05041e-19 4.87052)
(7.73244 2.22283e-19 5.42955)
(7.55952 1.50721e-18 6.06362)
(7.36801 -1.30474e-18 6.78922)
(7.16226 0 7.62027)
(6.81252 -3.80338e-19 8.62076)
(6.63377 0 9.68286)
(5.05644 -2.8207e-18 11.5006)
(9.9905 -1.5208e-20 0.102321)
(9.97985 2.34855e-19 0.199811)
(9.96061 -2.28124e-19 0.297873)
(9.93024 -6.74553e-20 0.399265)
(9.89104 6.90289e-20 0.505534)
(9.84471 2.88631e-19 0.617972)
(9.79131 1.4877e-19 0.73788)
(9.73083 3.09052e-19 0.86661)
(9.66347 -4.77259e-19 1.00553)
(9.58937 -1.63673e-19 1.15597)
(9.50906 0 1.31918)
(9.4228 3.49122e-19 1.49653)
(9.33088 -3.58098e-19 1.68961)
(9.23397 -9.27126e-20 1.90014)
(9.13218 -9.51737e-20 2.13)
(9.02586 9.70505e-19 2.38151)
(8.91572 -1.68402e-18 2.65734)
(8.80289 9.06846e-19 2.9604)
(8.68803 0 3.294)
(8.57171 -2.05707e-19 3.66236)
(8.45534 1.6714e-18 4.07092)
(8.34001 1.47919e-18 4.52611)
(8.22743 -6.21238e-21 5.03621)
(8.11883 1.64192e-18 5.61184)
(8.01599 -1.23216e-18 6.26712)
(7.91626 -1.94838e-18 7.0232)
(7.83691 1.55158e-18 7.90519)
(7.67154 1.71267e-18 8.99432)
(7.77428 -2.27329e-19 10.288)
(6.18464 7.85352e-19 13.2724)
(0.116033 1.71931e-23 -0.099597)
(0.279946 1.7215e-20 -0.119129)
(0.484343 -2.94234e-22 -0.101953)
(0.681328 -1.49123e-20 -0.0816751)
(0.853121 0 -0.0649636)
(0.999152 0 -0.0519355)
(1.12367 0 -0.0419061)
(1.23066 -6.18022e-21 -0.0338757)
(1.32245 7.68882e-21 -0.0269026)
(1.39948 -1.47265e-21 -0.0202279)
(1.46152 -2.95562e-21 -0.0134106)
(1.50775 1.42466e-21 -0.00631206)
(1.53693 0 0.000755179)
(1.54928 0 0.00685223)
(1.54724 1.24391e-21 0.0111312)
(1.53424 -2.40553e-21 0.0133832)
(1.51425 1.16151e-21 0.0137749)
(1.49173 1.57055e-21 0.0126)
(1.47082 -5.04955e-22 0.0103041)
(1.45467 -4.65531e-22 0.0073445)
(1.44545 -4.20294e-22 0.00406589)
(1.44457 -1.67796e-22 0.000928629)
(1.45068 -6.01028e-22 -0.00157879)
(1.46196 6.73932e-22 -0.0033027)
(1.47678 0 -0.00431113)
(1.49343 3.55475e-22 -0.00474195)
(1.51062 0 -0.00480977)
(1.52776 0 -0.00471081)
(1.54466 0 -0.00453804)
(1.56542 0 -0.00441994)
(0.0988165 7.25194e-20 -0.219273)
(0.246503 0 -0.261346)
(0.450388 -3.08784e-20 -0.230866)
(0.646462 2.57807e-20 -0.192679)
(0.821861 -2.86935e-20 -0.160767)
(0.976565 5.23559e-20 -0.135918)
(1.11292 -2.5616e-20 -0.116625)
(1.23402 2.46172e-20 -0.101072)
(1.34225 -3.81533e-20 -0.0874301)
(1.43859 1.35293e-20 -0.0741641)
(1.52386 0 -0.0603177)
(1.59815 4.20116e-21 -0.045498)
(1.661 -1.64488e-20 -0.029983)
(1.71175 5.54808e-21 -0.0148089)
(1.74949 2.61989e-21 -0.00148117)
(1.77488 0 0.00856447)
(1.79106 2.26936e-21 0.0143317)
(1.80247 1.06189e-21 0.0156651)
(1.81315 -1.95448e-21 0.0133271)
(1.82581 8.88434e-22 0.008542)
(1.84132 1.60481e-21 0.00255226)
(1.85868 6.69383e-22 -0.00343251)
(1.87769 -3.30065e-22 -0.00843364)
(1.89777 -1.54583e-21 -0.01203)
(1.91831 4.40295e-22 -0.0142112)
(1.93872 -5.50971e-22 -0.0151782)
(1.95847 0 -0.0152943)
(1.97714 -3.80092e-23 -0.0149543)
(1.99436 3.74925e-23 -0.0143645)
(2.01204 1.48622e-22 -0.0133058)
(0.0708282 -2.18369e-21 -0.368109)
(0.176724 6.55186e-20 -0.412871)
(0.367258 -6.89943e-20 -0.368733)
(0.542793 3.59291e-21 -0.313824)
(0.699559 -5.15579e-20 -0.26674)
(0.8387 5.22735e-20 -0.229494)
(0.961129 0 -0.20023)
(1.07005 1.53654e-21 -0.176491)
(1.16757 2.72209e-20 -0.155806)
(1.25515 -3.32744e-21 -0.136098)
(1.33438 1.77643e-20 -0.115971)
(1.40561 -1.12983e-20 -0.0948035)
(1.46909 2.81374e-22 -0.0728953)
(1.52515 3.26174e-22 -0.0512679)
(1.57413 7.79601e-21 -0.0314939)
(1.61643 0 -0.0154863)
(1.65229 -2.27197e-21 -0.00502204)
(1.68223 -4.17526e-21 -0.000824229)
(1.70747 3.98271e-21 -0.00205982)
(1.72934 -1.71059e-21 -0.00681763)
(1.74876 3.30499e-21 -0.0129669)
(1.76622 -2.85575e-21 -0.0188522)
(1.78188 2.48497e-21 -0.0235174)
(1.79568 1.05847e-21 -0.0265737)
(1.80756 0 -0.0280698)
(1.81743 0 -0.0282355)
(1.82529 -1.15085e-22 -0.0273788)
(1.83092 7.58459e-23 -0.0257958)
(1.8343 -4.04587e-22 -0.0236146)
(1.83539 -1.48878e-22 -0.0203844)
(0.0447708 6.32823e-20 -0.515799)
(0.0964789 -6.39775e-20 -0.541924)
(0.278494 7.49443e-21 -0.483192)
(0.431369 -4.80586e-20 -0.413414)
(0.566378 5.33767e-20 -0.353144)
(0.685336 0 -0.305081)
(0.788123 0 -0.267066)
(0.87799 -5.07877e-20 -0.236769)
(0.957589 1.85866e-20 -0.210484)
(1.02886 2.4173e-20 -0.186106)
(1.09358 5.31092e-20 -0.162006)
(1.15259 -4.32588e-22 -0.137119)
(1.20684 -2.25918e-20 -0.111568)
(1.25669 0 -0.0864808)
(1.30219 5.12811e-21 -0.0636321)
(1.34361 -4.77028e-21 -0.0448405)
(1.38064 4.70548e-21 -0.0315557)
(1.41273 0 -0.0242974)
(1.43957 3.80531e-21 -0.0222764)
(1.46097 -3.74979e-21 -0.0237517)
(1.47704 -3.23127e-21 -0.0267424)
(1.48807 2.86202e-21 -0.0296355)
(1.49436 -4.98511e-21 -0.0314475)
(1.49625 0 -0.0317837)
(1.49414 -3.9863e-22 -0.0306872)
(1.48862 3.93157e-22 -0.0284651)
(1.48051 1.14503e-22 -0.0255455)
(1.47048 5.56862e-22 -0.0223473)
(1.45948 5.1717e-22 -0.0192496)
(1.44595 0 -0.0164147)
(0.021831 1.38695e-19 -0.659482)
(0.0082243 -1.22789e-19 -0.649842)
(0.187411 -1.19799e-19 -0.577287)
(0.315791 1.08755e-19 -0.493955)
(0.426688 5.164e-20 -0.42222)
(0.521128 -1.12192e-21 -0.364926)
(0.600598 -1.33643e-22 -0.319016)
(0.667659 -6.72192e-23 -0.283213)
(0.725311 -5.23605e-20 -0.253377)
(0.776664 -6.10757e-21 -0.226091)
(0.82336 6.02048e-21 -0.199365)
(0.866406 5.89106e-21 -0.172233)
(0.906877 0 -0.144827)
(0.945015 5.51294e-21 -0.118048)
(0.980625 -1.02526e-20 -0.0933292)
(1.01341 1.01134e-20 -0.0722043)
(1.04259 -4.53412e-21 -0.0558516)
(1.0669 4.46871e-21 -0.0448131)
(1.08573 -3.84857e-21 -0.0385057)
(1.09907 3.12836e-22 -0.0355347)
(1.10723 3.42863e-21 -0.0343193)
(1.11097 0 -0.033562)
(1.11112 5.01116e-21 -0.0324643)
(1.10854 -2.1273e-21 -0.0306807)
(1.1038 0 -0.0282299)
(1.09723 -1.40044e-21 -0.0253358)
(1.08875 0 -0.0222291)
(1.07826 -7.47458e-22 -0.0191674)
(1.06614 0 -0.0165615)
(1.04736 0 -0.0152396)
(0.0041069 -3.99842e-21 -0.795178)
(-0.0844764 0 -0.735553)
(0.0956256 7.00635e-21 -0.649779)
(0.195331 9.78302e-20 -0.552971)
(0.279565 -1.02563e-19 -0.470146)
(0.347168 7.96672e-22 -0.403845)
(0.400665 3.12749e-21 -0.353611)
(0.443792 5.66015e-20 -0.314312)
(0.479433 -4.36742e-20 -0.281381)
(0.510393 -4.33802e-20 -0.251767)
(0.538337 -5.51651e-20 -0.223342)
(0.564506 -5.94954e-21 -0.194993)
(0.589875 1.17525e-20 -0.166667)
(0.614731 -5.55264e-21 -0.139036)
(0.638972 -1.04871e-20 -0.113307)
(0.66223 1.03367e-20 -0.0908148)
(0.683902 -9.60716e-21 -0.0725893)
(0.703007 8.92149e-21 -0.0591448)
(0.718865 -1.20967e-20 -0.0502284)
(0.731244 -3.57851e-21 -0.0448014)
(0.740076 6.6386e-21 -0.0415061)
(0.745461 -1.36738e-21 -0.0391286)
(0.74768 -1.16874e-21 -0.036784)
(0.746914 -2.13247e-21 -0.03393)
(0.743286 0 -0.0303339)
(0.736392 1.40518e-21 -0.0259569)
(0.725548 2.25892e-22 -0.0208522)
(0.710023 -2.22976e-22 -0.0152964)
(0.689869 0 -0.0102609)
(0.658555 0 -0.00950075)
(-0.00692379 0 -0.917966)
(-0.178174 -1.10681e-19 -0.79731)
(0.00149866 1.13675e-19 -0.699273)
(0.0692659 6.28918e-21 -0.586336)
(0.124023 1.00004e-19 -0.494918)
(0.164159 -1.00592e-19 -0.424702)
(0.1928 -3.19094e-21 -0.371432)
(0.213645 5.15275e-20 -0.32992)
(0.229898 4.72768e-22 -0.295765)
(0.243925 -5.09016e-20 -0.265745)
(0.257241 5.04429e-20 -0.237486)
(0.27107 2.45056e-20 -0.209734)
(0.286141 -1.23264e-20 -0.182273)
(0.302738 -2.33529e-20 -0.15556)
(0.32071 1.11638e-20 -0.130523)
(0.339415 1.05497e-20 -0.108247)
(0.35806 9.65388e-21 -0.0895949)
(0.375312 -2.29478e-22 -0.0750075)
(0.390114 -3.72732e-22 -0.0642816)
(0.40176 1.10272e-20 -0.0565668)
(0.40976 -3.44959e-21 -0.0507448)
(0.413918 0 -0.0458364)
(0.414247 0 -0.0411146)
(0.410809 5.26138e-21 -0.0360627)
(0.403539 -4.47825e-21 -0.0302728)
(0.391898 3.07786e-22 -0.023364)
(0.37489 2.01249e-21 -0.0149213)
(0.351135 1.2994e-21 -0.00483119)
(0.317224 -8.95028e-23 0.00373028)
(0.276443 1.74476e-23 0.00174311)
(-0.0106818 0 -1.02165)
(-0.271195 -1.3053e-20 -0.833002)
(-0.0962748 9.53493e-20 -0.720627)
(-0.0653099 -1.06835e-19 -0.595013)
(-0.0399202 1.59374e-21 -0.498383)
(-0.0266084 0 -0.4267)
(-0.0209051 0 -0.373578)
(-0.018334 -6.55667e-21 -0.333122)
(-0.0163184 6.708e-21 -0.300541)
(-0.0134219 -1.34203e-20 -0.272314)
(-0.00877004 -1.32917e-20 -0.246001)
(-0.0018532 -1.30331e-20 -0.220314)
(0.00746278 2.45951e-20 -0.19491)
(0.0190742 -2.42021e-20 -0.169991)
(0.0324589 1.151e-20 -0.146143)
(0.0466833 -2.11472e-20 -0.124212)
(0.0607834 1.03111e-20 -0.104991)
(0.0735786 0 -0.0889829)
(0.0840228 4.06185e-21 -0.0761556)
(0.0913435 -3.9988e-21 -0.0659343)
(0.0949533 -3.54673e-21 -0.0574819)
(0.0945827 -9.13678e-21 -0.0500171)
(0.0900953 6.30561e-21 -0.0428706)
(0.0814553 -2.15004e-21 -0.0354004)
(0.0684945 8.00309e-21 -0.0269022)
(0.0507529 0 -0.0165553)
(0.0270399 -2.09984e-21 -0.0036185)
(-0.00641877 -1.52442e-21 0.0104941)
(-0.0412659 -7.57793e-22 0.0199089)
(-0.0729412 2.66523e-22 0.0189639)
(-0.00773453 -6.35391e-21 -1.09959)
(-0.362579 1.30912e-20 -0.839346)
(-0.201918 -9.33574e-20 -0.711956)
(-0.210475 9.87013e-20 -0.574354)
(-0.215564 0 -0.480255)
(-0.228033 6.54369e-21 -0.412712)
(-0.241718 6.74715e-21 -0.364128)
(-0.25284 0 -0.328083)
(-0.26052 4.86461e-20 -0.299405)
(-0.264626 -9.61366e-20 -0.274469)
(-0.265308 -5.41111e-20 -0.250961)
(-0.262886 3.97814e-20 -0.227702)
(-0.257826 0 -0.204348)
(-0.250632 0 -0.180988)
(-0.242119 -1.15977e-20 -0.158042)
(-0.233302 -1.09256e-20 -0.136268)
(-0.225112 1.05123e-20 -0.116503)
(-0.21841 -9.16648e-21 -0.0992856)
(-0.213975 9.01991e-21 -0.0846357)
(-0.212523 -7.86493e-21 -0.0721054)
(-0.214692 0 -0.0610517)
(-0.220857 5.96818e-21 -0.0508685)
(-0.231076 -5.11501e-21 -0.0409968)
(-0.245125 0 -0.0308158)
(-0.262525 -3.50504e-21 -0.019558)
(-0.283159 2.74386e-21 -0.00637862)
(-0.308057 0 0.00877457)
(-0.334313 -1.40043e-21 0.0233983)
(-0.362669 8.43488e-22 0.0330409)
(-0.383922 -2.83421e-22 0.0338555)
(0.000754079 1.04687e-19 -1.14992)
(-0.449983 9.72754e-20 -0.80518)
(-0.322287 -9.98593e-20 -0.662933)
(-0.371041 -1.01319e-19 -0.530751)
(-0.407649 1.00797e-19 -0.44395)
(-0.443615 -6.67188e-21 -0.385171)
(-0.472753 -5.63644e-20 -0.345299)
(-0.49404 5.56176e-20 -0.31678)
(-0.508341 0 -0.294044)
(-0.517021 0 -0.273616)
(-0.521276 -2.84987e-20 -0.253482)
(-0.52219 0 -0.232749)
(-0.520633 0 -0.211262)
(-0.517373 0 -0.189103)
(-0.513439 0 -0.166611)
(-0.509895 0 -0.14457)
(-0.507579 -1.05013e-20 -0.123977)
(-0.507069 0 -0.105498)
(-0.508772 4.23551e-21 -0.0891639)
(-0.513162 1.54674e-20 -0.0745301)
(-0.520742 -4.16341e-22 -0.0610799)
(-0.531731 2.85612e-21 -0.0484674)
(-0.545817 0 -0.0364435)
(-0.562165 0 -0.0245982)
(-0.579833 -3.47192e-21 -0.0121501)
(-0.59856 -2.73639e-21 0.00175007)
(-0.618068 0 0.017104)
(-0.63977 2.76854e-21 0.0323187)
(-0.663568 1.56196e-21 0.0432448)
(-0.679483 0 0.0458088)
(0.0168643 2.74521e-21 -1.16271)
(-0.527163 -5.68421e-21 -0.712154)
(-0.465294 -3.01317e-21 -0.579418)
(-0.553322 0 -0.45948)
(-0.621789 6.6275e-21 -0.388821)
(-0.677101 5.72128e-20 -0.346173)
(-0.717074 -6.33904e-20 -0.320055)
(-0.744396 -1.52338e-20 -0.301941)
(-0.762068 6.10817e-20 -0.286582)
(-0.772877 -7.5313e-20 -0.271265)
(-0.778962 1.46182e-20 -0.254564)
(-0.782025 0 -0.236093)
(-0.783107 1.45127e-20 -0.216079)
(-0.783054 0 -0.194679)
(-0.783026 0 -0.17214)
(-0.7842 6.24342e-22 -0.149321)
(-0.787317 1.1421e-20 -0.127535)
(-0.792521 1.03082e-20 -0.107732)
(-0.799692 0 -0.0899659)
(-0.808942 -8.0125e-21 -0.0736801)
(-0.820598 0 -0.0584068)
(-0.834698 -6.07593e-21 -0.0441138)
(-0.850594 0 -0.0309514)
(-0.867042 -9.73865e-22 -0.0187084)
(-0.882881 4.42288e-21 -0.00649881)
(-0.897492 -2.95214e-22 0.00694037)
(-0.912355 2.91292e-22 0.0224135)
(-0.930456 -2.38005e-23 0.0386681)
(-0.950468 -1.55857e-21 0.0511827)
(-0.963105 0 0.0555201)
(0.0459418 8.69271e-20 -1.09293)
(-0.610647 -7.92099e-20 -0.567479)
(-0.639133 0 -0.450334)
(-0.768094 -6.24246e-21 -0.361582)
(-0.862422 -6.76138e-21 -0.319824)
(-0.928749 -4.52994e-20 -0.301102)
(-0.972731 5.88546e-20 -0.29277)
(-1.00044 1.5366e-20 -0.286772)
(-1.01728 1.64501e-20 -0.279191)
(-1.02718 3.12769e-20 -0.268893)
(-1.03284 0 -0.255203)
(-1.03634 0 -0.238372)
(-1.03873 -2.98674e-20 -0.219266)
(-1.04065 1.39604e-20 -0.198151)
(-1.04329 -5.94004e-22 -0.175036)
(-1.04808 -1.22545e-20 -0.150864)
(-1.05571 -2.29038e-20 -0.127516)
(-1.06571 6.17907e-22 -0.106439)
(-1.07725 0 -0.0876819)
(-1.09004 0 -0.07037)
(-1.10436 -7.30795e-21 -0.0539393)
(-1.12025 0 -0.0386999)
(-1.13688 -5.20033e-21 -0.0253028)
(-1.15259 0 -0.0137808)
(-1.16566 7.65579e-22 -0.00290814)
(-1.17638 1.8873e-21 0.00956329)
(-1.18726 2.07384e-22 0.0252905)
(-1.20159 -1.54637e-21 0.0429072)
(-1.21798 1.48806e-21 0.0572469)
(-1.22807 0 0.0632943)
(0.0502977 -7.87483e-20 -0.909184)
(-0.707367 2.35542e-21 -0.356147)
(-0.86328 0 -0.277922)
(-1.02379 -4.74559e-20 -0.243117)
(-1.12846 5.29621e-20 -0.246156)
(-1.1933 -3.05472e-20 -0.257433)
(-1.23142 6.64467e-20 -0.268973)
(-1.25205 -1.33028e-19 -0.275197)
(-1.26299 1.56317e-20 -0.27453)
(-1.26852 5.01079e-20 -0.26855)
(-1.27113 0 -0.256961)
(-1.27316 0 -0.24059)
(-1.27549 3.16251e-20 -0.221508)
(-1.27809 0 -0.200199)
(-1.2821 0 -0.175976)
(-1.28947 -1.11551e-22 -0.149696)
(-1.30096 -6.96093e-22 -0.124231)
(-1.31525 1.11355e-20 -0.101931)
(-1.33043 0 -0.082772)
(-1.34577 0 -0.065163)
(-1.36178 -1.55893e-22 -0.0481615)
(-1.37883 6.28619e-21 -0.0324889)
(-1.39595 4.00052e-21 -0.0195594)
(-1.41066 5.38398e-21 -0.00971172)
(-1.42128 -3.34905e-21 -0.00104044)
(-1.42825 -2.63656e-21 0.00996591)
(-1.43486 2.03981e-22 0.0258655)
(-1.44487 -2.01415e-22 0.0451233)
(-1.45751 -1.70254e-23 0.0616478)
(-1.46528 0 0.0694462)
(-0.0252267 -6.43346e-20 -0.545047)
(-0.879764 -2.42524e-21 -0.0482402)
(-1.16376 0 -0.0561932)
(-1.32533 1.22236e-20 -0.118534)
(-1.41557 0 -0.186677)
(-1.45895 8.29485e-20 -0.224859)
(-1.47923 -6.55855e-20 -0.254327)
(-1.48481 0 -0.27249)
(-1.48511 0 -0.275957)
(-1.48346 -1.76896e-20 -0.272322)
(-1.48062 -1.70869e-20 -0.261131)
(-1.47977 -1.80846e-20 -0.243189)
(-1.4815 -1.62771e-20 -0.222873)
(-1.48414 -1.56063e-20 -0.201106)
(-1.48845 -1.36503e-22 -0.175384)
(-1.49766 1.33704e-20 -0.145932)
(-1.51299 1.19529e-20 -0.117414)
(-1.53179 -3.46231e-20 -0.0939206)
(-1.55039 4.74817e-21 -0.0752444)
(-1.56751 -4.66893e-21 -0.0582938)
(-1.58437 -1.54771e-22 -0.0412046)
(-1.60232 -7.7217e-21 -0.0253227)
(-1.61993 -3.74199e-21 -0.0133055)
(-1.63435 -4.20453e-21 -0.00592563)
(-1.64286 -2.92967e-22 -0.000473661)
(-1.64571 8.39063e-23 0.00820508)
(-1.64702 4.78034e-22 0.0239941)
(-1.65178 -2.77157e-21 0.0452926)
(-1.66026 -1.46609e-21 0.0646256)
(-1.66572 -4.83126e-22 0.0744081)
(-0.292118 6.73537e-21 -0.0986595)
(-1.1999 2.80181e-20 0.409303)
(-1.54003 -2.52752e-20 0.235076)
(-1.68401 1.53172e-20 -0.0382892)
(-1.71031 -2.68953e-20 -0.175966)
(-1.70143 3.59662e-20 -0.201891)
(-1.69929 -3.50783e-20 -0.254175)
(-1.68423 0 -0.290613)
(-1.66914 1.9136e-20 -0.286149)
(-1.65919 -7.63788e-20 -0.279311)
(-1.64939 -3.69105e-20 -0.267918)
(-1.64513 5.59812e-20 -0.246356)
(-1.64713 -1.80968e-20 -0.223199)
(-1.64992 1.65903e-20 -0.20131)
(-1.65336 1.55817e-20 -0.174109)
(-1.66362 0 -0.139855)
(-1.68341 -6.61579e-21 -0.106591)
(-1.70777 -6.74611e-21 -0.0819323)
(-1.72993 -4.90279e-21 -0.0652439)
(-1.74779 4.82031e-21 -0.050376)
(-1.76447 7.58197e-21 -0.0335326)
(-1.78276 4.91225e-21 -0.0171439)
(-1.80172 1.16831e-20 -0.0060007)
(-1.81678 4.01549e-21 -0.00186775)
(-1.82347 2.9013e-21 -0.00112144)
(-1.8213 3.5411e-22 0.00379063)
(-1.81562 0 0.0189745)
(-1.81371 2.63332e-21 0.0429889)
(-1.81739 -6.25349e-23 0.0662226)
(-1.82043 4.83293e-22 0.0785313)
(9.99065 2.91349e-20 0.106518)
(9.98129 3.90724e-19 0.208064)
(9.96433 -3.73067e-19 0.310271)
(9.93695 -1.92854e-19 0.415913)
(9.90153 -1.33729e-19 0.526549)
(9.85987 -1.38206e-19 0.643561)
(9.81201 1.42158e-19 0.768266)
(9.75805 -4.41811e-19 0.90196)
(9.6982 3.02977e-19 1.04601)
(9.63281 1.17403e-21 1.20176)
(9.56246 0 1.37046)
(9.48739 -5.82877e-19 1.55346)
(9.40804 5.1042e-19 1.75229)
(9.32532 0 1.96869)
(9.23954 0 2.20466)
(9.15125 -9.20783e-20 2.46251)
(9.06164 7.46344e-19 2.74472)
(8.97191 -8.53925e-19 3.05399)
(8.88312 0 3.39374)
(8.79706 1.55209e-18 3.7683)
(8.71587 -1.75691e-18 4.18276)
(8.64186 1.97531e-19 4.64321)
(8.57913 1.3352e-18 5.1578)
(8.53212 -3.04002e-18 5.73669)
(8.5082 2.59498e-18 6.39333)
(8.51568 2.70146e-19 7.14806)
(8.59289 -1.38675e-18 8.02731)
(8.7039 -5.84761e-19 9.09873)
(9.56093 0 10.3499)
(10.396 -5.75418e-19 13.3897)
(9.99079 -2.25701e-19 0.110466)
(9.98273 -4.66801e-19 0.215713)
(9.96821 -2.4224e-19 0.321717)
(9.94409 5.00222e-19 0.431277)
(9.91264 1.29529e-19 0.54592)
(9.87573 -1.33453e-19 0.667074)
(9.83366 0 0.796068)
(9.7865 2.8522e-19 0.934149)
(9.73436 -4.39024e-19 1.08266)
(9.67792 1.51646e-19 1.24294)
(9.61783 0 1.41624)
(9.55433 -8.00012e-19 1.6039)
(9.48813 8.18601e-19 1.80735)
(9.41998 0 2.02829)
(9.35038 5.1602e-19 2.26874)
(9.28047 -8.72696e-19 2.53093)
(9.21195 0 2.81714)
(9.14591 0 3.12979)
(9.08379 -1.80687e-19 3.47209)
(9.02857 1.85759e-19 3.84818)
(8.98327 4.55087e-21 4.26248)
(8.95134 -3.61576e-19 4.72013)
(8.93881 -3.56977e-19 5.22795)
(8.95323 0 5.79396)
(9.00647 1.44144e-20 6.42755)
(9.11514 -6.58581e-19 7.14093)
(9.32816 0 7.94512)
(9.61605 5.68313e-19 8.85732)
(10.3345 -1.22759e-20 9.81468)
(11.1362 5.18765e-19 11.0067)
(9.99106 2.2005e-19 0.114091)
(9.98437 4.52961e-19 0.222647)
(9.97223 0 0.332039)
(9.95147 3.64566e-19 0.445133)
(9.92421 1.25207e-19 0.563403)
(9.89227 0 0.688247)
(9.85621 0 0.820991)
(9.81601 0 0.962868)