/*--------------------------------*- C++ -*----------------------------------*\
| =========                 |                                                 |
| \\      /  F ield         | OpenFOAM: The Open Source CFD Toolbox           |
|  \\    /   O peration     | Version:  dev                                   |
|   \\  /    A nd           | Web:      www.OpenFOAM.org                      |
|    \\/     M anipulation  |                                                 |
\*---------------------------------------------------------------------------*/
FoamFile
{
    version     2.0;
    format      ascii;
    class       volVectorField;
    location    "1";
    object      cellDisplacement;
}
// * * * * * * * * * * * * * * * * * * * * * * * * * * * * * * * * * * * * * //

dimensions      [0 1 0 0 0 0 0];

internalField   nonuniform List<vector> 
465
(
(0.246792 0 -0.0364716)
(0.252462 0 -0.0384459)
(0.263711 0 -0.0413055)
(0.275114 0 -0.044365)
(0.256688 0 -0.0400468)
(0.267131 0 -0.0428115)
(0.277512 0 -0.0457143)
(0.2876 0 -0.0487246)
(0.297119 0 -0.0517984)
(0.259668 0 -0.0412988)
(0.269301 0 -0.043941)
(0.278719 0 -0.0466697)
(0.287745 0 -0.0494596)
(0.29614 0 -0.0522607)
(0.303661 0 -0.0550116)
(0.310124 0 -0.0576567)
(0.261587 0 -0.0422291)
(0.270444 0 -0.0447338)
(0.279 0 -0.0472902)
(0.287084 0 -0.0498629)
(0.294499 0 -0.0524025)
(0.301093 0 -0.0548661)
(0.30674 0 -0.0572103)
(0.311356 0 -0.0593935)
(0.314898 0 -0.0613738)
(0.262607 0 -0.0428632)
(0.270758 0 -0.0452299)
(0.278529 0 -0.047612)
(0.285771 0 -0.0499717)
(0.29236 0 -0.052275)
(0.298186 0 -0.0544872)
(0.303169 0 -0.0565745)
(0.307257 0 -0.0585055)
(0.310432 0 -0.0602495)
(0.26288 0 -0.0432287)
(0.270375 0 -0.0454533)
(0.277429 0 -0.0476605)
(0.283944 0 -0.0498238)
(0.289831 0 -0.0519153)
(0.295017 0 -0.0539075)
(0.299448 0 -0.0557741)
(0.303098 0 -0.0574917)
(0.305957 0 -0.0590374)
(0.262507 0 -0.0433402)
(0.269395 0 -0.0454203)
(0.275816 0 -0.0474631)
(0.281702 0 -0.0494469)
(0.286991 0 -0.0513492)
(0.291635 0 -0.0531482)
(0.295602 0 -0.0548239)
(0.298878 0 -0.0563588)
(0.301463 0 -0.0577361)
(0.261582 0 -0.0432116)
(0.267917 0 -0.0451514)
(0.273779 0 -0.0470404)
(0.279119 0 -0.0488605)
(0.283895 0 -0.0505935)
(0.288077 0 -0.0522223)
(0.291646 0 -0.0537317)
(0.2946 0 -0.0551088)
(0.296941 0 -0.0563411)
(0.260186 0 -0.0428554)
(0.266024 0 -0.0446609)
(0.271391 0 -0.0464067)
(0.276254 0 -0.0480775)
(0.280586 0 -0.0496587)
(0.284369 0 -0.0511367)
(0.287594 0 -0.0525002)
(0.290265 0 -0.0537396)
(0.292388 0 -0.0548458)
(0.258381 0 -0.0422779)
(0.263777 0 -0.0439573)
(0.268708 0 -0.0455707)
(0.273154 0 -0.0471054)
(0.277099 0 -0.0485499)
(0.280534 0 -0.0498937)
(0.283458 0 -0.0511281)
(0.285878 0 -0.0522464)
(0.287803 0 -0.0532418)
(0.250791 0 -0.0398652)
(0.256233 0 -0.0414855)
(0.261234 0 -0.0430463)
(0.26578 0 -0.0445369)
(0.269859 0 -0.0459472)
(0.273464 0 -0.047268)
(0.276593 0 -0.0484914)
(0.279251 0 -0.0496109)
(0.281446 0 -0.0506217)
(0.28319 0 -0.0515191)
(0.248709 0 -0.0389679)
(0.253797 0 -0.0404806)
(0.258446 0 -0.0419295)
(0.262649 0 -0.043306)
(0.266404 0 -0.044602)
(0.269709 0 -0.0458104)
(0.272568 0 -0.0469251)
(0.274988 0 -0.0479414)
(0.276982 0 -0.0488561)
(0.278561 0 -0.0496658)
(0.246357 0 -0.037853)
(0.251126 0 -0.0392622)
(0.255459 0 -0.0406053)
(0.259358 0 -0.0418752)
(0.262825 0 -0.0430657)
(0.265864 0 -0.044171)
(0.268482 0 -0.0451868)
(0.270691 0 -0.0461098)
(0.272502 0 -0.0469379)
(0.273928 0 -0.0476687)
(0.243788 0 -0.0365169)
(0.248269 0 -0.0378263)
(0.25232 0 -0.0390687)
(0.255948 0 -0.0402384)
(0.259158 0 -0.0413305)
(0.26196 0 -0.0423408)
(0.264363 0 -0.0432659)
(0.26638 0 -0.0441037)
(0.268026 0 -0.0448529)
(0.269312 0 -0.0455121)
(0.241054 0 -0.0349534)
(0.245276 0 -0.0361657)
(0.249075 0 -0.0373115)
(0.252459 0 -0.0383862)
(0.255441 0 -0.0393859)
(0.258031 0 -0.0403075)
(0.260242 0 -0.0411487)
(0.262087 0 -0.041908)
(0.263581 0 -0.0425848)
(0.264738 0 -0.0431784)
(0.238208 0 -0.0331526)
(0.242198 0 -0.0342698)
(0.24577 0 -0.0353221)
(0.248938 0 -0.0363057)
(0.251715 0 -0.0372177)
(0.254116 0 -0.0380558)
(0.256153 0 -0.0388183)
(0.257843 0 -0.0395044)
(0.259199 0 -0.0401141)
(0.260238 0 -0.040647)
(0.235305 0 -0.0311018)
(0.239086 0 -0.0321248)
(0.242456 0 -0.0330853)
(0.245431 0 -0.0339806)
(0.248026 0 -0.0348081)
(0.250257 0 -0.0355664)
(0.252139 0 -0.0362542)
(0.253689 0 -0.0368714)
(0.254921 0 -0.0374181)
(0.25585 0 -0.0378944)
(0.232404 0 -0.0287843)
(0.235999 0 -0.0297127)
(0.239189 0 -0.0305821)
(0.241992 0 -0.0313903)
(0.244425 0 -0.0321354)
(0.246505 0 -0.0328162)
(0.248248 0 -0.0334322)
(0.249672 0 -0.0339834)
(0.250791 0 -0.0344701)
(0.251621 0 -0.0348927)
(0.229566 0 -0.0261796)
(0.232996 0 -0.0270115)
(0.236028 0 -0.0277888)
(0.238679 0 -0.0285097)
(0.240969 0 -0.0291729)
(0.242915 0 -0.0297774)
(0.244536 0 -0.030323)
(0.245847 0 -0.0308098)
(0.246866 0 -0.0312385)
(0.247606 0 -0.0316095)
(0.22686 0 -0.0232623)
(0.230147 0 -0.0239942)
(0.233039 0 -0.0246769)
(0.235558 0 -0.0253087)
(0.237723 0 -0.0258888)
(0.239553 0 -0.0264165)
(0.241066 0 -0.0268917)
(0.242278 0 -0.0273146)
(0.243207 0 -0.0276861)
(0.243868 0 -0.0280065)
(0.224361 0 -0.0200022)
(0.227525 0 -0.0206284)
(0.230299 0 -0.0212116)
(0.232705 0 -0.0217507)
(0.234763 0 -0.0222447)
(0.236493 0 -0.0226933)
(0.237912 0 -0.0230965)
(0.23904 0 -0.0234546)
(0.239891 0 -0.0237683)
(0.240483 0 -0.024038)
(0.222153 0 -0.0163624)
(0.225215 0 -0.0168748)
(0.227891 0 -0.0173515)
(0.230203 0 -0.0177916)
(0.232172 0 -0.0181944)
(0.233819 0 -0.0185597)
(0.235161 0 -0.0188874)
(0.236217 0 -0.019178)
(0.237003 0 -0.0194319)
(0.237536 0 -0.0196496)
(0.220327 0 -0.0122991)
(0.22331 0 -0.0126863)
(0.225909 0 -0.0130464)
(0.228148 0 -0.0133785)
(0.230047 0 -0.0136822)
(0.231628 0 -0.0139574)
(0.232909 0 -0.0142039)
(0.233909 0 -0.0144222)
(0.234644 0 -0.0146126)
(0.23513 0 -0.0147754)
(0.21899 0 -0.0077597)
(0.221917 0 -0.0080065)
(0.224462 0 -0.00823592)
(0.226648 0 -0.00844747)
(0.228499 0 -0.00864084)
(0.230033 0 -0.00881589)
(0.231271 0 -0.00897262)
(0.232231 0 -0.00911121)
(0.232929 0 -0.00923197)
(0.233382 0 -0.00933513)
(0.218257 0 -0.002684)
(0.221154 0 -0.00277022)
(0.223671 0 -0.00285037)
(0.22583 0 -0.00292427)
(0.227654 0 -0.00299181)
(0.229164 0 -0.00305293)
(0.230379 0 -0.00310764)
(0.231317 0 -0.00315598)
(0.231995 0 -0.00319809)
(0.23243 0 -0.00323404)
(0.316803 0 -0.0627008)
(0.312177 0 -0.0614161)
(0.313133 0 -0.0621404)
(0.313895 0 -0.0628159)
(0.307556 0 -0.0600699)
(0.308443 0 -0.0607112)
(0.309163 0 -0.06131)
(0.302925 0 -0.0586547)
(0.303744 0 -0.0592252)
(0.304418 0 -0.0597585)
(0.298276 0 -0.0571616)
(0.299029 0 -0.0576712)
(0.299652 0 -0.0581477)
(0.293604 0 -0.055581)
(0.294291 0 -0.0560374)
(0.294863 0 -0.0564643)
(0.288906 0 -0.053902)
(0.289531 0 -0.0543116)
(0.290052 0 -0.0546946)
(0.284189 0 -0.0521128)
(0.284753 0 -0.0524808)
(0.285223 0 -0.0528248)
(0.27946 0 -0.0502002)
(0.279966 0 -0.050531)
(0.280386 0 -0.0508401)
(0.274733 0 -0.0481495)
(0.275184 0 -0.0484468)
(0.275556 0 -0.0487244)
(0.27003 0 -0.0459444)
(0.270428 0 -0.0462113)
(0.270753 0 -0.0464603)
(0.265373 0 -0.0435663)
(0.265722 0 -0.0438055)
(0.266003 0 -0.0440283)
(0.260796 0 -0.0409941)
(0.261099 0 -0.0412077)
(0.261337 0 -0.0414064)
(0.256338 0 -0.0382033)
(0.256597 0 -0.0383931)
(0.256794 0 -0.0385695)
(0.252044 0 -0.0351658)
(0.252262 0 -0.0353333)
(0.252423 0 -0.0354886)
(0.247969 0 -0.0318484)
(0.24815 0 -0.0319945)
(0.248276 0 -0.0321299)
(0.244178 0 -0.028212)
(0.244326 0 -0.0283375)
(0.244421 0 -0.0284536)
(0.240745 0 -0.0242104)
(0.240864 0 -0.0243155)
(0.240932 0 -0.0244125)
(0.237759 0 -0.0197883)
(0.237853 0 -0.0198727)
(0.237897 0 -0.0199504)
(0.235321 0 -0.0148789)
(0.235395 0 -0.0149417)
(0.23542 0 -0.0149995)
(0.23355 0 -0.00940064)
(0.23361 0 -0.00944042)
(0.233621 0 -0.00947702)
(0.232586 0 -0.00325691)
(0.232638 0 -0.00327081)
(0.232642 0 -0.00328363)
(0.314754 0 -0.0637612)
(0.309998 0 -0.0621494)
(0.31046 0 -0.0630968)
(0.310269 0 -0.0638536)
(0.309426 0 -0.0643971)
(0.305213 0 -0.060507)
(0.305698 0 -0.0613547)
(0.305596 0 -0.0620368)
(0.304897 0 -0.0625331)
(0.3036 0 -0.0628288)
(0.30171 0 -0.062919)
(0.300398 0 -0.0588171)
(0.300878 0 -0.0595767)
(0.300828 0 -0.0601904)
(0.30023 0 -0.0606404)
(0.299075 0 -0.0609128)
(0.297345 0 -0.0609971)
(0.295046 0 -0.0608859)
(0.292195 0 -0.0605746)
(0.295553 0 -0.0570641)
(0.296008 0 -0.0577451)
(0.29598 0 -0.0582963)
(0.295446 0 -0.0587015)
(0.29439 0 -0.0589476)
(0.292789 0 -0.0590234)
(0.290651 0 -0.0589244)
(0.28797 0 -0.0586439)
(0.284715 0 -0.05817)
(0.290681 0 -0.0552328)
(0.291098 0 -0.0558434)
(0.29107 0 -0.0563373)
(0.290573 0 -0.0567001)
(0.289587 0 -0.0569196)
(0.288086 0 -0.0569848)
(0.286074 0 -0.0568926)
(0.283524 0 -0.0566301)
(0.280418 0 -0.0561937)
(0.28579 0 -0.053308)
(0.286157 0 -0.0538552)
(0.286113 0 -0.0542967)
(0.285632 0 -0.0546198)
(0.284691 0 -0.054813)
(0.283266 0 -0.0548659)
(0.28135 0 -0.054775)
(0.278911 0 -0.0545269)
(0.275931 0 -0.0541195)
(0.28089 0 -0.0512738)
(0.281201 0 -0.0517637)
(0.28113 0 -0.0521575)
(0.28065 0 -0.0524436)
(0.279736 0 -0.0526119)
(0.278366 0 -0.0526531)
(0.276518 0 -0.0525594)
(0.27417 0 -0.0523227)
(0.271285 0 -0.0519347)
(0.275996 0 -0.0491135)
(0.276248 0 -0.0495513)
(0.27614 0 -0.0499013)
(0.275648 0 -0.0501529)
(0.274746 0 -0.050297)
(0.273409 0 -0.0503247)
(0.271612 0 -0.0502279)
(0.269329 0 -0.0499988)
(0.266532 0 -0.0496302)
(0.271131 0 -0.0468088)
(0.27132 0 -0.0471992)
(0.27117 0 -0.0475088)
(0.270656 0 -0.0477285)
(0.269752 0 -0.0478495)
(0.268433 0 -0.0478638)
(0.266672 0 -0.0477635)
(0.264443 0 -0.0475416)
(0.261718 0 -0.0471915)
(0.26632 0 -0.0443397)
(0.266445 0 -0.0446865)
(0.266249 0 -0.0449592)
(0.265706 0 -0.0451493)
(0.264792 0 -0.0452489)
(0.263479 0 -0.0452505)
(0.261741 0 -0.0451466)
(0.25955 0 -0.0449305)
(0.256878 0 -0.0445957)
(0.261596 0 -0.0416836)
(0.261658 0 -0.0419904)
(0.261413 0 -0.0422291)
(0.260837 0 -0.042392)
(0.259904 0 -0.042472)
(0.258589 0 -0.0424621)
(0.256863 0 -0.0423553)
(0.254698 0 -0.0421452)
(0.252064 0 -0.0418253)
(0.256998 0 -0.038815)
(0.256999 0 -0.0390848)
(0.256705 0 -0.0392922)
(0.256092 0 -0.0394304)
(0.255137 0 -0.0394928)
(0.253812 0 -0.039473)
(0.252091 0 -0.0393647)
(0.249945 0 -0.0391618)
(0.247344 0 -0.0388588)
(0.252575 0 -0.0357044)
(0.252516 0 -0.0359397)
(0.252173 0 -0.0361184)
(0.251524 0 -0.0362342)
(0.250543 0 -0.0362813)
(0.249204 0 -0.0362537)
(0.247481 0 -0.0361452)
(0.245346 0 -0.0359508)
(0.242768 0 -0.0356655)
(0.248381 0 -0.0323175)
(0.248266 0 -0.0325205)
(0.247877 0 -0.0326725)
(0.247191 0 -0.0327682)
(0.246183 0 -0.0328025)
(0.244829 0 -0.0327707)
(0.243097 0 -0.0326626)
(0.240966 0 -0.0324787)
(0.238404 0 -0.0322133)
(0.244481 0 -0.0286139)
(0.244316 0 -0.028786)
(0.243883 0 -0.028913)
(0.243161 0 -0.02899)
(0.242126 0 -0.0290123)
(0.240749 0 -0.0289745)
(0.239007 0 -0.0288731)
(0.236881 0 -0.0287044)
(0.234332 0 -0.0284636)
(0.240953 0 -0.0245461)
(0.240741 0 -0.0246884)
(0.240268 0 -0.0247916)
(0.239512 0 -0.0248521)
(0.23845 0 -0.024866)
(0.237053 0 -0.0248234)
(0.235307 0 -0.0247319)
(0.233177 0 -0.0245817)
(0.230636 0 -0.0243693)
(0.237885 0 -0.0200571)
(0.237634 0 -0.0201697)
(0.237126 0 -0.0202498)
(0.236341 0 -0.0202942)
(0.235252 0 -0.0202994)
(0.233839 0 -0.020263)
(0.232083 0 -0.0201825)
(0.229951 0 -0.0200542)
(0.227414 0 -0.019875)
(0.235381 0 -0.0150786)
(0.235097 0 -0.0151613)
(0.234559 0 -0.0152189)
(0.233748 0 -0.015248)
(0.232641 0 -0.0152461)
(0.231217 0 -0.0152177)
(0.22945 0 -0.0151541)
(0.227313 0 -0.0150536)
(0.224777 0 -0.0149142)
(0.233563 0 -0.0095272)
(0.233256 0 -0.00958009)
(0.232697 0 -0.00961809)
(0.231868 0 -0.0096328)
(0.230747 0 -0.00962968)
(0.229311 0 -0.00960753)
(0.227536 0 -0.00956405)
(0.225395 0 -0.00949747)
(0.222859 0 -0.00940629)
(0.232574 0 -0.00330128)
(0.232254 0 -0.0033203)
(0.231682 0 -0.00333496)
(0.230841 0 -0.00333808)
(0.229713 0 -0.00333581)
(0.228272 0 -0.00332713)
(0.226492 0 -0.00331117)
(0.224349 0 -0.00328725)
(0.221813 0 -0.00325481)
)
;

boundaryField
{
    inlet
    {
        type            cellMotion;
        value           nonuniform 0();
    }
    outlet
    {
        type            cellMotion;
        value           nonuniform 0();
    }
    flap
    {
        type            cellMotion;
        value           nonuniform 0();
    }
    upperWall
    {
        type            slip;
    }
    lowerWall
    {
        type            slip;
    }
    frontAndBack
    {
        type            empty;
    }
    procBoundary1to0
    {
        type            processor;
        value           nonuniform List<vector> 
18
(
(0.25392 0 -0.0410067)
(0.252548 0 -0.0405455)
(0.252548 0 -0.0405455)
(0.244926 0 -0.0381967)
(0.243191 0 -0.0374011)
(0.241155 0 -0.0363858)
(0.238873 0 -0.0351477)
(0.236401 0 -0.0336806)
(0.233791 0 -0.0319756)
(0.231101 0 -0.0300208)
(0.228389 0 -0.0278008)
(0.225719 0 -0.0252963)
(0.223161 0 -0.022484)
(0.220788 0 -0.0193353)
(0.218684 0 -0.0158163)
(0.216941 0 -0.0118862)
(0.215661 0 -0.00749656)
(0.214959 0 -0.00259211)
)
;
    }
    procBoundary1to2
    {
        type            processor;
        value           nonuniform List<vector> 
17
(
(0.280892 0 -0.0575042)
(0.276745 0 -0.0555773)
(0.272385 0 -0.0535437)
(0.267852 0 -0.0513948)
(0.2632 0 -0.0491214)
(0.258463 0 -0.0467081)
(0.253686 0 -0.0441358)
(0.248934 0 -0.0413914)
(0.244264 0 -0.0384527)
(0.239724 0 -0.0352862)
(0.235386 0 -0.0318634)
(0.231338 0 -0.0281487)
(0.22766 0 -0.0240933)
(0.22445 0 -0.0196433)
(0.22182 0 -0.0147349)
(0.219908 0 -0.00928988)
(0.218863 0 -0.00321359)
)
;
    }
    procBoundary1to3
    {
        type            processor;
        value           nonuniform List<vector> 9((0.23543 0 -0.0338358) (0.241559 0 -0.0357987) (0.246366 0 -0.0374392) (0.249983 0 -0.0387658) (0.25255 0 -0.0397932) (0.254202 0 -0.0405383) (0.255061 0 -0.0410175) (0.255245 0 -0.041249) (0.254838 0 -0.0412423));
    }
    procBoundary1to4
    {
        type            processor;
        value           nonuniform List<vector> 
30
(
(0.239529 0 -0.0341207)
(0.258783 0 -0.0393809)
(0.258783 0 -0.0393809)
(0.271215 0 -0.0425613)
(0.286403 0 -0.0475978)
(0.286403 0 -0.0475978)
(0.297235 0 -0.0509571)
(0.30577 0 -0.0548746)
(0.30577 0 -0.0548746)
(0.313255 0 -0.0578742)
(0.315389 0 -0.0601407)
(0.315389 0 -0.0601407)
(0.319374 0 -0.0624076)
(0.321457 0 -0.0639314)
(0.317829 0 -0.0635247)
(0.317829 0 -0.0635247)
(0.318626 0 -0.0642919)
(0.319489 0 -0.0653629)
(0.315156 0 -0.0648226)
(0.315156 0 -0.0648226)
(0.314828 0 -0.0656619)
(0.313789 0 -0.0662539)
(0.307938 0 -0.0647131)
(0.307938 0 -0.0647131)
(0.305838 0 -0.0647992)
(0.299226 0 -0.0627887)
(0.299226 0 -0.0627887)
(0.296175 0 -0.0624349)
(0.288773 0 -0.0600554)
(0.288773 0 -0.0600554)
)
;
    }
}


// ************************************************************************* //
