/*--------------------------------*- C++ -*----------------------------------*\
| =========                 |                                                 |
| \\      /  F ield         | OpenFOAM: The Open Source CFD Toolbox           |
|  \\    /   O peration     | Version:  dev                                   |
|   \\  /    A nd           | Web:      www.OpenFOAM.org                      |
|    \\/     M anipulation  |                                                 |
\*---------------------------------------------------------------------------*/
FoamFile
{
    version     2.0;
    format      ascii;
    class       volVectorField;
    location    "1";
    object      cellDisplacement;
}
// * * * * * * * * * * * * * * * * * * * * * * * * * * * * * * * * * * * * * //

dimensions      [0 1 0 0 0 0 0];

internalField   nonuniform List<vector> 
465
(
(0.280818 0 -0.0412787)
(0.286301 0 -0.0430904)
(0.298297 0 -0.04606)
(0.310242 0 -0.0491578)
(0.290291 0 -0.0445247)
(0.301365 0 -0.0473616)
(0.312198 0 -0.0502731)
(0.322562 0 -0.0532284)
(0.332162 0 -0.056173)
(0.293006 0 -0.0456127)
(0.303185 0 -0.0483006)
(0.313017 0 -0.0510285)
(0.322284 0 -0.0537557)
(0.330739 0 -0.0564268)
(0.338188 0 -0.0589961)
(0.344481 0 -0.0614215)
(0.294642 0 -0.0463847)
(0.304 0 -0.0489233)
(0.312916 0 -0.0514649)
(0.321199 0 -0.0539664)
(0.328691 0 -0.0563905)
(0.335257 0 -0.0587009)
(0.3408 0 -0.0608644)
(0.345267 0 -0.0628524)
(0.348644 0 -0.0646362)
(0.295382 0 -0.0468724)
(0.303975 0 -0.0492573)
(0.312051 0 -0.0516116)
(0.319485 0 -0.0539052)
(0.326164 0 -0.0561079)
(0.331997 0 -0.058191)
(0.336922 0 -0.0601287)
(0.340911 0 -0.0618988)
(0.343965 0 -0.06348)
(0.295349 0 -0.0470931)
(0.30323 0 -0.0493222)
(0.310565 0 -0.0515008)
(0.317267 0 -0.0536046)
(0.323256 0 -0.0556094)
(0.328473 0 -0.0574927)
(0.33288 0 -0.0592345)
(0.336466 0 -0.0608182)
(0.339237 0 -0.0622278)
(0.294653 0 -0.047063)
(0.301888 0 -0.0491415)
(0.308571 0 -0.0511563)
(0.314639 0 -0.0530875)
(0.320039 0 -0.0549154)
(0.324731 0 -0.0566226)
(0.328697 0 -0.0581936)
(0.331935 0 -0.0596162)
(0.334454 0 -0.0608786)
(0.29339 0 -0.0467967)
(0.300046 0 -0.0487322)
(0.306154 0 -0.0505953)
(0.311671 0 -0.0523694)
(0.316561 0 -0.0540389)
(0.320803 0 -0.0555901)
(0.324387 0 -0.0570113)
(0.327319 0 -0.0582935)
(0.329612 0 -0.0594282)
(0.291639 0 -0.0463043)
(0.297779 0 -0.0481055)
(0.303381 0 -0.0498287)
(0.308416 0 -0.05146)
(0.312864 0 -0.0529871)
(0.316714 0 -0.0543994)
(0.319964 0 -0.0556882)
(0.322625 0 -0.0568471)
(0.32471 0 -0.0578698)
(0.289472 0 -0.0455927)
(0.295152 0 -0.0472686)
(0.300307 0 -0.0488625)
(0.304919 0 -0.0503637)
(0.30898 0 -0.0517623)
(0.312485 0 -0.0530504)
(0.31544 0 -0.0542214)
(0.317857 0 -0.055271)
(0.319751 0 -0.0561947)
(0.281179 0 -0.0430334)
(0.286951 0 -0.0446661)
(0.292222 0 -0.0462245)
(0.29698 0 -0.047699)
(0.301219 0 -0.0490812)
(0.304937 0 -0.0503634)
(0.308138 0 -0.0515395)
(0.310829 0 -0.0526051)
(0.313026 0 -0.0535571)
(0.314743 0 -0.0543925)
(0.278734 0 -0.0420006)
(0.284134 0 -0.0435251)
(0.289038 0 -0.044973)
(0.293444 0 -0.0463368)
(0.297352 0 -0.0476094)
(0.300767 0 -0.0487854)
(0.303695 0 -0.0498601)
(0.30615 0 -0.0508305)
(0.308146 0 -0.0516948)
(0.3097 0 -0.0524509)
(0.276008 0 -0.0407461)
(0.281074 0 -0.0421671)
(0.28565 0 -0.0435107)
(0.289741 0 -0.0447708)
(0.293354 0 -0.0459422)
(0.296498 0 -0.0470206)
(0.299183 0 -0.0480027)
(0.301424 0 -0.0488866)
(0.303237 0 -0.0496713)
(0.304638 0 -0.0503557)
(0.273058 0 -0.039265)
(0.277821 0 -0.0405862)
(0.282103 0 -0.0418306)
(0.285913 0 -0.0429933)
(0.289263 0 -0.0440702)
(0.292164 0 -0.0450581)
(0.29463 0 -0.045955)
(0.296677 0 -0.0467595)
(0.298322 0 -0.0474714)
(0.299581 0 -0.0480904)
(0.269938 0 -0.0375489)
(0.274429 0 -0.0387734)
(0.278447 0 -0.0399226)
(0.282005 0 -0.0409927)
(0.285119 0 -0.0419806)
(0.287802 0 -0.042884)
(0.29007 0 -0.0437015)
(0.291941 0 -0.0444325)
(0.293432 0 -0.0450774)
(0.294559 0 -0.0456362)
(0.266704 0 -0.0355866)
(0.27095 0 -0.0367163)
(0.274731 0 -0.0377732)
(0.278064 0 -0.0387544)
(0.280966 0 -0.0396575)
(0.283453 0 -0.0404809)
(0.285543 0 -0.0412238)
(0.287254 0 -0.0418861)
(0.288604 0 -0.0424685)
(0.289609 0 -0.0429714)
(0.263416 0 -0.0333633)
(0.267443 0 -0.034399)
(0.271011 0 -0.0353653)
(0.274142 0 -0.0362599)
(0.276854 0 -0.0370811)
(0.279166 0 -0.0378278)
(0.281095 0 -0.0384997)
(0.282661 0 -0.0390969)
(0.283882 0 -0.0396204)
(0.284774 0 -0.0400708)
(0.260136 0 -0.0308604)
(0.263967 0 -0.0318016)
(0.267347 0 -0.0326776)
(0.270297 0 -0.0334867)
(0.27284 0 -0.0342276)
(0.274994 0 -0.0348997)
(0.276779 0 -0.0355028)
(0.278214 0 -0.0360374)
(0.279318 0 -0.0365047)
(0.280106 0 -0.0369052)
(0.256934 0 -0.0280551)
(0.26059 0 -0.0288997)
(0.263803 0 -0.0296843)
(0.266595 0 -0.0304075)
(0.268987 0 -0.0310682)
(0.271002 0 -0.0316662)
(0.272658 0 -0.0322017)
(0.273976 0 -0.0326751)
(0.274973 0 -0.0330876)
(0.275668 0 -0.0334401)
(0.253884 0 -0.0249199)
(0.257388 0 -0.0256641)
(0.260455 0 -0.0263542)
(0.263107 0 -0.0269892)
(0.265368 0 -0.0275684)
(0.26726 0 -0.0280915)
(0.268803 0 -0.028559)
(0.270017 0 -0.0289713)
(0.270921 0 -0.0293296)
(0.271532 0 -0.0296347)
(0.251069 0 -0.0214215)
(0.254443 0 -0.0220592)
(0.257384 0 -0.0226498)
(0.259917 0 -0.0231925)
(0.262066 0 -0.0236867)
(0.263852 0 -0.0241325)
(0.265297 0 -0.02453)
(0.266422 0 -0.0248799)
(0.267244 0 -0.0251833)
(0.267781 0 -0.0254408)
(0.248582 0 -0.01752)
(0.251849 0 -0.0180425)
(0.254686 0 -0.0185261)
(0.25712 0 -0.0189699)
(0.259174 0 -0.0193737)
(0.260873 0 -0.0197374)
(0.262236 0 -0.0200612)
(0.263285 0 -0.0203457)
(0.264038 0 -0.0205918)
(0.264513 0 -0.0208001)
(0.246528 0 -0.0131676)
(0.24971 0 -0.0135631)
(0.252466 0 -0.0139289)
(0.254821 0 -0.0142645)
(0.256802 0 -0.0145695)
(0.258431 0 -0.0148439)
(0.259729 0 -0.015088)
(0.260718 0 -0.0153021)
(0.261417 0 -0.0154868)
(0.261842 0 -0.0156427)
(0.245023 0 -0.00830724)
(0.248145 0 -0.00855963)
(0.250843 0 -0.00879307)
(0.253144 0 -0.00900715)
(0.255072 0 -0.00920167)
(0.256652 0 -0.00937659)
(0.257905 0 -0.00953202)
(0.258851 0 -0.00966823)
(0.25951 0 -0.00978563)
(0.2599 0 -0.00988452)
(0.244199 0 -0.00287338)
(0.247289 0 -0.00296164)
(0.249956 0 -0.00304328)
(0.252228 0 -0.00311815)
(0.254128 0 -0.00318617)
(0.255681 0 -0.00324733)
(0.25691 0 -0.00330166)
(0.257833 0 -0.00334927)
(0.258471 0 -0.00339032)
(0.258842 0 -0.00342499)
(0.350426 0 -0.0658212)
(0.345613 0 -0.0645273)
(0.346505 0 -0.0651742)
(0.347201 0 -0.0657743)
(0.340758 0 -0.0631593)
(0.341591 0 -0.0637344)
(0.342254 0 -0.0642682)
(0.335853 0 -0.0617111)
(0.336626 0 -0.0622249)
(0.337249 0 -0.0627018)
(0.330894 0 -0.0601749)
(0.331606 0 -0.0606355)
(0.332185 0 -0.061063)
(0.32588 0 -0.0585414)
(0.326531 0 -0.0589553)
(0.327062 0 -0.0593392)
(0.320814 0 -0.0567998)
(0.321405 0 -0.0571723)
(0.321887 0 -0.0575176)
(0.315703 0 -0.0549383)
(0.316235 0 -0.0552738)
(0.316667 0 -0.0555845)
(0.310561 0 -0.0529434)
(0.311036 0 -0.0532457)
(0.311418 0 -0.0535253)
(0.305405 0 -0.0507999)
(0.305825 0 -0.0510721)
(0.306159 0 -0.0513236)
(0.30026 0 -0.0484907)
(0.300626 0 -0.0487355)
(0.300912 0 -0.0489613)
(0.295154 0 -0.0459962)
(0.295469 0 -0.0462159)
(0.295709 0 -0.0464182)
(0.290124 0 -0.0432941)
(0.290392 0 -0.0434906)
(0.290588 0 -0.0436712)
(0.285215 0 -0.0403587)
(0.285437 0 -0.0405336)
(0.285592 0 -0.040694)
(0.280479 0 -0.0371601)
(0.280659 0 -0.0373147)
(0.280774 0 -0.0374561)
(0.275979 0 -0.0336635)
(0.27612 0 -0.0337986)
(0.276199 0 -0.0339221)
(0.271786 0 -0.0298274)
(0.271892 0 -0.0299437)
(0.271939 0 -0.0300497)
(0.267986 0 -0.0256028)
(0.268061 0 -0.0257005)
(0.268078 0 -0.0257893)
(0.264676 0 -0.0209308)
(0.264725 0 -0.0210094)
(0.264718 0 -0.0210808)
(0.261971 0 -0.0157399)
(0.261998 0 -0.0157981)
(0.261971 0 -0.0158507)
(0.260004 0 -0.0099462)
(0.260016 0 -0.00998313)
(0.259974 0 -0.0100165)
(0.258933 0 -0.0034468)
(0.258936 0 -0.00345999)
(0.258886 0 -0.00347213)
(0.347963 0 -0.0666095)
(0.343001 0 -0.0650115)
(0.343337 0 -0.0658371)
(0.343011 0 -0.0664796)
(0.342015 0 -0.0669196)
(0.337964 0 -0.0633662)
(0.338326 0 -0.0641053)
(0.338087 0 -0.0646832)
(0.337231 0 -0.0650816)
(0.335768 0 -0.0652912)
(0.333684 0 -0.0652962)
(0.332856 0 -0.0616585)
(0.333218 0 -0.0623213)
(0.333031 0 -0.0628407)
(0.332276 0 -0.0632009)
(0.330944 0 -0.0633899)
(0.329005 0 -0.0633916)
(0.326474 0 -0.0632038)
(0.323339 0 -0.0628149)
(0.327681 0 -0.0598739)
(0.328022 0 -0.0604683)
(0.327857 0 -0.0609336)
(0.327164 0 -0.0612554)
(0.325921 0 -0.0614224)
(0.324103 0 -0.0614193)
(0.321719 0 -0.0612456)
(0.318735 0 -0.060887)
(0.315145 0 -0.0603393)
(0.322448 0 -0.057998)
(0.32275 0 -0.0585307)
(0.322584 0 -0.0589461)
(0.321923 0 -0.0592307)
(0.320737 0 -0.059373)
(0.319022 0 -0.0593667)
(0.316745 0 -0.0591986)
(0.31389 0 -0.0588642)
(0.310437 0 -0.0583534)
(0.317167 0 -0.0560163)
(0.31742 0 -0.0564934)
(0.317236 0 -0.0568632)
(0.316586 0 -0.0571137)
(0.315443 0 -0.057234)
(0.313795 0 -0.0572189)
(0.311606 0 -0.057055)
(0.308857 0 -0.0567384)
(0.305512 0 -0.056257)
(0.311855 0 -0.0539133)
(0.312051 0 -0.05434)
(0.311838 0 -0.0546685)
(0.311186 0 -0.0548879)
(0.310069 0 -0.0549888)
(0.308464 0 -0.0549629)
(0.306343 0 -0.0548014)
(0.303669 0 -0.0544962)
(0.300416 0 -0.0540392)
(0.306531 0 -0.0516719)
(0.306666 0 -0.0520528)
(0.306414 0 -0.0523433)
(0.305747 0 -0.0525336)
(0.304637 0 -0.0526149)
(0.303058 0 -0.0525787)
(0.300982 0 -0.0524169)
(0.298367 0 -0.0521204)
(0.295193 0 -0.0516867)
(0.301221 0 -0.0492734)
(0.301291 0 -0.0496125)
(0.300993 0 -0.0498682)
(0.300301 0 -0.0500316)
(0.299186 0 -0.0500943)
(0.297619 0 -0.0500483)
(0.295571 0 -0.0498859)
(0.293008 0 -0.0495994)
(0.289901 0 -0.0491864)
(0.295956 0 -0.0466972)
(0.295959 0 -0.046998)
(0.295613 0 -0.0472219)
(0.294889 0 -0.0473607)
(0.293759 0 -0.0474067)
(0.292194 0 -0.0473521)
(0.290165 0 -0.0471903)
(0.287641 0 -0.0469149)
(0.28458 0 -0.0465188)
(0.290774 0 -0.0439197)
(0.290711 0 -0.0441853)
(0.290313 0 -0.0443801)
(0.289553 0 -0.0444969)
(0.288404 0 -0.0445293)
(0.286829 0 -0.0444659)
(0.284808 0 -0.0443047)
(0.282309 0 -0.0440387)
(0.279283 0 -0.0436596)
(0.28572 0 -0.040914)
(0.285592 0 -0.041147)
(0.285141 0 -0.0413147)
(0.284341 0 -0.0414106)
(0.28316 0 -0.0414277)
(0.281573 0 -0.0413604)
(0.279556 0 -0.0412027)
(0.27707 0 -0.040948)
(0.27408 0 -0.0405901)
(0.280848 0 -0.0376495)
(0.280657 0 -0.0378523)
(0.280154 0 -0.0379954)
(0.27931 0 -0.0380724)
(0.278099 0 -0.0380765)
(0.276501 0 -0.0380077)
(0.27448 0 -0.0378556)
(0.272004 0 -0.0376154)
(0.269041 0 -0.0372823)
(0.276222 0 -0.0340904)
(0.275973 0 -0.0342653)
(0.27542 0 -0.0343869)
(0.274539 0 -0.0344502)
(0.273299 0 -0.0344455)
(0.271679 0 -0.0343732)
(0.269649 0 -0.0342276)
(0.267177 0 -0.0340033)
(0.26423 0 -0.0336957)
(0.271916 0 -0.0301937)
(0.271612 0 -0.0303417)
(0.271013 0 -0.030442)
(0.270089 0 -0.0304892)
(0.268819 0 -0.0304798)
(0.267181 0 -0.0304097)
(0.265141 0 -0.0302743)
(0.262669 0 -0.0300693)
(0.259733 0 -0.0297906)
(0.268014 0 -0.0259097)
(0.267662 0 -0.0260324)
(0.267018 0 -0.0261139)
(0.266057 0 -0.0261449)
(0.264763 0 -0.0261327)
(0.263104 0 -0.0260674)
(0.261052 0 -0.0259457)
(0.258577 0 -0.0257639)
(0.255647 0 -0.0255188)
(0.264619 0 -0.0211775)
(0.264225 0 -0.0212759)
(0.26354 0 -0.0213357)
(0.262549 0 -0.0213596)
(0.261229 0 -0.0213445)
(0.259552 0 -0.0212863)
(0.257488 0 -0.0211818)
(0.255009 0 -0.0210279)
(0.252082 0 -0.0208219)
(0.261843 0 -0.0159211)
(0.261411 0 -0.0159903)
(0.260696 0 -0.0160326)
(0.259683 0 -0.0160515)
(0.258342 0 -0.0160387)
(0.256648 0 -0.0159922)
(0.254573 0 -0.0159101)
(0.252088 0 -0.01579)
(0.249163 0 -0.0156296)
(0.259824 0 -0.0100586)
(0.259368 0 -0.0100988)
(0.258635 0 -0.0101278)
(0.257601 0 -0.0101383)
(0.256244 0 -0.0101286)
(0.254536 0 -0.0100975)
(0.252452 0 -0.0100434)
(0.249961 0 -0.00996522)
(0.247032 0 -0.00986155)
(0.258725 0 -0.00348614)
(0.258256 0 -0.00350011)
(0.257511 0 -0.00350914)
(0.256466 0 -0.00351211)
(0.255099 0 -0.00350825)
(0.253385 0 -0.00349697)
(0.251296 0 -0.0034778)
(0.248804 0 -0.00345045)
(0.245879 0 -0.00341495)
)
;

boundaryField
{
    inlet
    {
        type            cellMotion;
        value           nonuniform 0();
    }
    outlet
    {
        type            cellMotion;
        value           nonuniform 0();
    }
    flap
    {
        type            cellMotion;
        value           nonuniform 0();
    }
    upperWall
    {
        type            slip;
    }
    lowerWall
    {
        type            slip;
    }
    frontAndBack
    {
        type            empty;
    }
    procBoundary1to0
    {
        type            processor;
        value           nonuniform List<vector> 
18
(
(0.284996 0 -0.0444391)
(0.283287 0 -0.0438465)
(0.283287 0 -0.0438465)
(0.274917 0 -0.041336)
(0.27284 0 -0.0404075)
(0.27045 0 -0.0392545)
(0.267805 0 -0.0378725)
(0.264961 0 -0.0362537)
(0.261977 0 -0.034388)
(0.258914 0 -0.0322614)
(0.255836 0 -0.0298567)
(0.252811 0 -0.0271528)
(0.249918 0 -0.0241237)
(0.247237 0 -0.0207385)
(0.244862 0 -0.0169599)
(0.242896 0 -0.0127436)
(0.241452 0 -0.00803667)
(0.24066 0 -0.0027788)
)
;
    }
    procBoundary1to2
    {
        type            processor;
        value           nonuniform List<vector> 
17
(
(0.310933 0 -0.0596015)
(0.306367 0 -0.0576642)
(0.301564 0 -0.0556091)
(0.296571 0 -0.0534273)
(0.291437 0 -0.0511075)
(0.286215 0 -0.0486365)
(0.280954 0 -0.045997)
(0.275711 0 -0.0431683)
(0.270557 0 -0.0401297)
(0.26555 0 -0.036852)
(0.260765 0 -0.0332999)
(0.256289 0 -0.0294339)
(0.252219 0 -0.0252065)
(0.248666 0 -0.0205607)
(0.245756 0 -0.0154258)
(0.243638 0 -0.00973178)
(0.242481 0 -0.00337194)
)
;
    }
    procBoundary1to3
    {
        type            processor;
        value           nonuniform List<vector> 9((0.26838 0 -0.0384213) (0.274485 0 -0.0402759) (0.279185 0 -0.041792) (0.282638 0 -0.0429867) (0.285003 0 -0.04388) (0.286422 0 -0.0444915) (0.287037 0 -0.0448422) (0.286946 0 -0.0449435) (0.286238 0 -0.0448064));
    }
    procBoundary1to4
    {
        type            processor;
        value           nonuniform List<vector> 
30
(
(0.273617 0 -0.0390621)
(0.293706 0 -0.0443491)
(0.293706 0 -0.0443491)
(0.306816 0 -0.0476147)
(0.321831 0 -0.0523409)
(0.321831 0 -0.0523409)
(0.332743 0 -0.0555668)
(0.340686 0 -0.0590371)
(0.340686 0 -0.0590371)
(0.347907 0 -0.0617668)
(0.349526 0 -0.063666)
(0.349526 0 -0.063666)
(0.353285 0 -0.0656929)
(0.355212 0 -0.0670454)
(0.351374 0 -0.0665536)
(0.351374 0 -0.0665536)
(0.352095 0 -0.0672327)
(0.35285 0 -0.068177)
(0.348237 0 -0.0675346)
(0.348237 0 -0.0675346)
(0.347779 0 -0.0682497)
(0.346598 0 -0.0687329)
(0.340372 0 -0.0671456)
(0.340372 0 -0.0671456)
(0.338097 0 -0.0671442)
(0.330979 0 -0.0650866)
(0.330979 0 -0.0650866)
(0.327663 0 -0.0646584)
(0.31959 0 -0.0622227)
(0.31959 0 -0.0622227)
)
;
    }
}


// ************************************************************************* //
