/*--------------------------------*- C++ -*----------------------------------*\
| =========                 |                                                 |
| \\      /  F ield         | OpenFOAM: The Open Source CFD Toolbox           |
|  \\    /   O peration     | Version:  dev                                   |
|   \\  /    A nd           | Web:      www.OpenFOAM.org                      |
|    \\/     M anipulation  |                                                 |
\*---------------------------------------------------------------------------*/
FoamFile
{
    version     2.0;
    format      ascii;
    class       surfaceScalarField;
    location    "4.02";
    object      meshPhi;
}
// * * * * * * * * * * * * * * * * * * * * * * * * * * * * * * * * * * * * * //

dimensions      [0 3 -1 0 0 0 0];

internalField   nonuniform List<scalar> 
5457
(
1.10676e-06
-2.95588e-08
1.93225e-06
-8.34658e-08
2.32428e-06
-1.27782e-07
2.23232e-06
-1.6218e-07
1.66586e-06
-1.87326e-07
6.80458e-07
-2.03965e-07
-6.33396e-07
-2.12895e-07
-2.16151e-06
-2.14972e-07
-3.77725e-06
-2.11121e-07
-5.35264e-06
-2.02336e-07
-6.76904e-06
-1.89668e-07
-7.92668e-06
-1.74201e-07
-8.75227e-06
-1.57001e-07
-9.20401e-06
-1.39067e-07
-9.27347e-06
-1.2127e-07
-8.98408e-06
-1.04303e-07
-8.38639e-06
-8.86521e-08
-7.55099e-06
-7.45903e-08
-6.55985e-06
-6.22021e-08
-5.49792e-06
-5.14349e-08
-4.3817e-06
-4.15465e-08
-3.26339e-06
-3.17733e-08
-2.27486e-06
-2.27549e-08
-1.47761e-06
-1.5363e-08
-8.76776e-07
-9.68276e-09
-4.59769e-07
-5.55537e-09
-2.00755e-07
-2.7892e-09
-6.49965e-08
-1.15144e-09
-1.28427e-08
-3.59977e-10
-5.92403e-11
1.13447e-06
-5.91681e-08
1.98116e-06
-1.67064e-07
2.38786e-06
-2.55751e-07
2.30509e-06
-3.24588e-07
1.74235e-06
-3.74917e-07
7.55391e-07
-4.08223e-07
-5.64966e-07
-4.26095e-07
-2.10395e-06
-4.30236e-07
-3.73405e-06
-4.22486e-07
-5.3262e-06
-4.04826e-07
-6.76043e-06
-3.79357e-07
-7.93557e-06
-3.48243e-07
-8.77696e-06
-3.1363e-07
-9.24167e-06
-2.77527e-07
-9.32045e-06
-2.41696e-07
-9.0363e-06
-2.07548e-07
-8.43983e-06
-1.76074e-07
-7.60197e-06
-1.47835e-07
-6.60504e-06
-1.23007e-07
-5.53328e-06
-1.01471e-07
-4.41162e-06
-8.18101e-08
-3.28875e-06
-6.25065e-08
-2.29131e-06
-4.46959e-08
-1.48774e-06
-3.01028e-08
-8.82411e-07
-1.89317e-08
-4.62458e-07
-1.08378e-08
-2.01771e-07
-5.42743e-09
-6.52706e-08
-2.23231e-09
-1.28965e-08
-6.91298e-10
-1.16667e-10
1.1668e-06
-8.87473e-08
2.03948e-06
-2.50563e-07
2.46581e-06
-3.83545e-07
2.39705e-06
-4.86753e-07
1.8428e-06
-5.62205e-07
8.58906e-07
-6.1212e-07
-4.63637e-07
-6.38866e-07
-2.00972e-06
-6.44978e-07
-3.65126e-06
-6.33194e-07
-5.25835e-06
-6.06467e-07
-6.70993e-06
-5.67936e-07
-7.90356e-06
-5.2085e-07
-8.76321e-06
-4.68437e-07
-9.24465e-06
-4.13743e-07
-9.33749e-06
-3.59454e-07
-9.06394e-06
-3.07736e-07
-8.47418e-06
-2.60131e-07
-7.63904e-06
-2.17526e-07
-6.64107e-06
-1.80211e-07
-5.56493e-06
-1.47999e-07
-4.4401e-06
-1.18874e-07
-3.31286e-06
-9.05772e-08
-2.30794e-06
-6.4566e-08
-1.4984e-06
-4.33183e-08
-8.88528e-07
-2.71478e-08
-4.65445e-07
-1.54876e-08
-2.02911e-07
-7.72627e-09
-6.55774e-08
-3.16075e-09
-1.29581e-08
-9.66825e-10
-1.62777e-10
1.20148e-06
-1.18205e-07
2.10378e-06
-3.33708e-07
2.55413e-06
-5.10772e-07
2.50413e-06
-6.48167e-07
1.96356e-06
-7.48582e-07
9.88287e-07
-8.14965e-07
-3.30715e-07
-8.50444e-07
-1.8783e-06
-8.58366e-07
-3.52622e-06
-8.42341e-07
-5.14415e-06
-8.06271e-07
-6.61037e-06
-7.54317e-07
-7.82148e-06
-6.90802e-07
-8.70028e-06
-6.20051e-07
-9.20121e-06
-5.46171e-07
-9.31257e-06
-4.72816e-07
-9.05537e-06
-4.02966e-07
-8.47882e-06
-3.38778e-07
-7.65322e-06
-2.81523e-07
-6.66101e-06
-2.31649e-07
-5.58762e-06
-1.88931e-07
-4.46279e-06
-1.50817e-07
-3.33256e-06
-1.14328e-07
-2.32294e-06
-8.10647e-08
-1.50867e-06
-5.40791e-08
-8.94728e-07
-3.37142e-08
-4.68599e-07
-1.91367e-08
-2.04164e-07
-9.49579e-09
-6.59289e-08
-3.8579e-09
-1.30307e-08
-1.16435e-09
-1.9455e-10
1.24504e-06
-1.47483e-07
2.18539e-06
-4.16335e-07
2.6671e-06
-6.37184e-07
2.64211e-06
-8.08509e-07
2.12046e-06
-9.33676e-07
1.15806e-06
-1.01634e-06
-1.54141e-07
-1.06038e-06
-1.70107e-06
-1.06992e-06
-3.35439e-06
-1.04942e-06
-4.98348e-06
-1.00368e-06
-6.466e-06
-9.37878e-07
-7.69757e-06
-8.57389e-07
-8.59971e-06
-7.67641e-07
-9.12534e-06
-6.7383e-07
-9.26113e-06
-5.8063e-07
-9.02651e-06
-4.91908e-07
-8.4694e-06
-4.10513e-07
-7.65915e-06
-3.38185e-07
-6.6778e-06
-2.75592e-07
-5.61093e-06
-2.22508e-07
-4.48788e-06
-1.75952e-07
-3.35517e-06
-1.3228e-07
-2.34086e-06
-9.30244e-08
-1.52133e-06
-6.15346e-08
-9.0257e-07
-3.80592e-08
-4.72701e-07
-2.14399e-08
-2.05855e-07
-1.05576e-08
-6.64281e-08
-4.2512e-09
-1.3134e-08
-1.26452e-09
-2.09173e-10
1.29797e-06
-1.76527e-07
2.28501e-06
-4.98291e-07
2.80558e-06
-7.62539e-07
2.81206e-06
-9.67472e-07
2.31482e-06
-1.11712e-06
1.3699e-06
-1.21586e-06
6.81597e-08
-1.26827e-06
-1.47546e-06
-1.27923e-06
-3.13269e-06
-1.254e-06
-4.77274e-06
-1.19828e-06
-6.27275e-06
-1.11818e-06
-7.5274e-06
-1.02013e-06
-8.45686e-06
-9.10657e-07
-9.01237e-06
-7.96067e-07
-9.17872e-06
-6.82109e-07
-8.97343e-06
-5.73613e-07
-8.44267e-06
-4.74218e-07
-7.65443e-06
-3.86222e-07
-6.68993e-06
-3.10605e-07
-5.63444e-06
-2.47193e-07
-4.51588e-06
-1.92737e-07
-3.38126e-06
-1.43052e-07
-2.36198e-06
-9.93354e-08
-1.53652e-06
-6.48629e-08
-9.1215e-07
-3.96203e-08
-4.77816e-07
-2.20533e-08
-2.08027e-07
-1.07327e-08
-6.70934e-08
-4.2683e-09
-1.32707e-08
-1.24811e-09
-2.03865e-10
1.36075e-06
-2.05288e-07
2.40339e-06
-5.79434e-07
2.97052e-06
-8.86617e-07
3.01512e-06
-1.12477e-06
2.54807e-06
-1.2986e-06
1.62561e-06
-1.41317e-06
3.38506e-07
-1.47376e-06
-1.19857e-06
-1.48597e-06
-2.85758e-06
-1.45582e-06
-4.50772e-06
-1.38983e-06
-6.02578e-06
-1.29502e-06
-7.30558e-06
-1.17885e-06
-8.26597e-06
-1.04892e-06
-8.85639e-06
-9.12665e-07
-9.05953e-06
-7.76956e-07
-8.89065e-06
-6.47661e-07
-8.39377e-06
-5.29309e-07
-7.63503e-06
-4.2487e-07
-6.6943e-06
-3.35733e-07
-5.65613e-06
-2.6186e-07
-4.54566e-06
-1.99959e-07
-3.41007e-06
-1.45508e-07
-2.38563e-06
-9.90597e-08
-1.55376e-06
-6.33495e-08
-9.2316e-07
-3.78946e-08
-4.83775e-07
-2.06608e-08
-2.10603e-07
-9.85325e-09
-6.78983e-08
-3.83993e-09
-1.34333e-08
-1.09635e-09
-1.75776e-10
1.43387e-06
-2.33725e-07
2.54136e-06
-6.59645e-07
3.16294e-06
-1.00923e-06
3.2525e-06
-1.28015e-06
2.8217e-06
-1.47782e-06
1.9271e-06
-1.60797e-06
6.59331e-07
-1.67659e-06
-8.67308e-07
-1.68993e-06
-2.5252e-06
-1.65473e-06
-4.18377e-06
-1.57829e-06
-5.71963e-06
-1.46848e-06
-7.02594e-06
-1.33372e-06
-8.02028e-06
-1.18268e-06
-8.65025e-06
-1.02392e-06
-8.89626e-06
-8.65464e-07
-8.77103e-06
-7.14283e-07
-8.31595e-06
-5.75893e-07
-7.59482e-06
-4.54054e-07
-6.68562e-06
-3.50689e-07
-5.67165e-06
-2.65997e-07
-4.57381e-06
-1.96941e-07
-3.43898e-06
-1.38935e-07
-2.40984e-06
-9.15619e-08
-1.57167e-06
-5.64748e-08
-9.34703e-07
-3.24894e-08
-4.90066e-07
-1.69991e-08
-2.1334e-07
-7.77009e-09
-6.87562e-08
-2.9006e-09
-1.36016e-08
-7.90011e-10
-1.21165e-10
1.5179e-06
-2.61809e-07
2.69979e-06
-7.38834e-07
3.38387e-06
-1.13021e-06
3.52539e-06
-1.43342e-06
3.13714e-06
-1.65455e-06
2.27618e-06
-1.80006e-06
1.03302e-06
-1.87659e-06
-4.78576e-07
-1.89104e-06
-2.13162e-06
-1.8508e-06
-3.79603e-06
-1.76386e-06
-5.34851e-06
-1.63893e-06
-6.68177e-06
-1.48531e-06
-7.71224e-06
-1.31268e-06
-8.38575e-06
-1.13071e-06
-8.68028e-06
-9.48596e-07
-8.60573e-06
-7.7446e-07
-8.20049e-06
-6.14889e-07
-7.52543e-06
-4.74552e-07
-6.65606e-06
-3.56036e-07
-5.67391e-06
-2.5991e-07
-4.59434e-06
-1.83741e-07
-3.46327e-06
-1.23217e-07
-2.4311e-06
-7.6634e-08
-1.58777e-06
-4.39927e-08
-9.45206e-07
-2.31631e-08
-4.95793e-07
-1.08712e-08
-2.15808e-07
-4.35307e-09
-6.95122e-08
-1.38449e-09
-1.37408e-08
-3.06247e-10
-3.54238e-11
1.61347e-06
-2.89527e-07
2.87966e-06
-8.16953e-07
3.63432e-06
-1.24948e-06
3.83482e-06
-1.58442e-06
3.49561e-06
-1.82864e-06
2.67444e-06
-1.98931e-06
1.46171e-06
-2.0737e-06
-2.94846e-08
-2.08935e-06
-1.67305e-06
-2.04423e-06
-3.33969e-06
-1.947e-06
-4.90653e-06
-1.80705e-06
-6.26606e-06
-1.63455e-06
-7.33382e-06
-1.44011e-06
-8.0539e-06
-1.23449e-06
-8.40184e-06
-1.02801e-06
-8.38448e-06
-8.2997e-07
-8.03682e-06
-6.48103e-07
-7.41633e-06
-4.88086e-07
-6.59544e-06
-3.53312e-07
-5.65327e-06
-2.4487e-07
-4.59872e-06
-1.61306e-07
-3.47618e-06
-9.89659e-08
-2.44438e-06
-5.4589e-08
-1.5986e-06
-2.59824e-08
-9.52439e-07
-9.84333e-09
-4.99676e-07
-2.14118e-09
-2.17385e-07
5.25177e-10
-6.99374e-08
7.88878e-10
-1.37972e-08
3.89135e-10
8.9226e-11
1.72135e-06
-3.16887e-07
3.08204e-06
-8.94005e-07
3.91524e-06
-1.367e-06
4.18165e-06
-1.73308e-06
3.89802e-06
-1.99999e-06
3.12308e-06
-2.17565e-06
1.94712e-06
-2.26797e-06
4.82417e-07
-2.28505e-06
-1.14611e-06
-2.23542e-06
-2.8103e-06
-2.12832e-06
-4.38802e-06
-1.97379e-06
-5.77192e-06
-1.78274e-06
-6.87685e-06
-1.56665e-06
-7.64535e-06
-1.33727e-06
-8.05052e-06
-1.10601e-06
-8.09601e-06
-8.8337e-07
-7.81311e-06
-6.78225e-07
-7.25541e-06
-4.97353e-07
-6.49167e-06
-3.45081e-07
-5.59803e-06
-2.2318e-07
-4.57647e-06
-1.31553e-07
-3.46931e-06
-6.75939e-08
-2.4435e-06
-2.63085e-08
-1.59983e-06
-2.86765e-09
-9.53609e-07
7.38223e-09
-5.0009e-07
9.29674e-09
-2.17255e-07
7.02876e-09
-6.97127e-08
3.74725e-09
-1.36869e-08
1.35893e-09
2.68353e-10
1.84254e-06
-3.43922e-07
3.30818e-06
-9.70054e-07
4.22746e-06
-1.48278e-06
4.56638e-06
-1.87938e-06
4.34481e-06
-2.16858e-06
3.62272e-06
-2.35909e-06
2.49032e-06
-2.45948e-06
1.0589e-06
-2.47839e-06
-5.48117e-07
-2.42487e-06
-2.20408e-06
-2.30863e-06
-3.78799e-06
-2.1403e-06
-5.19299e-06
-1.93142e-06
-6.33357e-06
-1.69427e-06
-7.15094e-06
-1.44148e-06
-7.61587e-06
-1.1855e-06
-7.72874e-06
-9.37904e-07
-7.51692e-06
-7.08754e-07
-7.0297e-06
-5.05963e-07
-6.3317e-06
-3.34891e-07
-5.49542e-06
-1.98157e-07
-4.51604e-06
-9.73559e-08
-3.43337e-06
-3.13119e-08
-2.42153e-06
6.75519e-09
-1.58657e-06
2.45899e-08
-9.4548e-07
2.82924e-08
-4.95062e-07
2.3571e-08
-2.14356e-07
1.54291e-08
-6.83732e-08
7.73151e-09
-1.32594e-08
2.73467e-09
5.38293e-10
1.97836e-06
-3.70702e-07
3.55964e-06
-1.04525e-06
4.5716e-06
-1.59693e-06
4.98909e-06
-2.02333e-06
4.83579e-06
-2.33441e-06
4.17324e-06
-2.53969e-06
3.09156e-06
-2.6484e-06
1.70083e-06
-2.66972e-06
1.22642e-07
-2.61315e-06
-1.51826e-06
-2.48882e-06
-3.10242e-06
-2.30785e-06
-4.52386e-06
-2.08234e-06
-5.69711e-06
-1.82522e-06
-6.56231e-06
-1.54991e-06
-7.08806e-06
-1.26975e-06
-7.27155e-06
-9.9734e-07
-7.13608e-06
-7.43837e-07
-6.7264e-06
-5.18285e-07
-6.10251e-06
-3.27142e-07
-5.33274e-06
-1.74005e-07
-4.40594e-06
-6.24488e-08
-3.35903e-06
6.93559e-09
-2.37141e-06
4.26089e-08
-1.55366e-06
5.53013e-08
-9.24447e-07
5.2553e-08
-4.82212e-07
4.08907e-08
-2.07232e-07
2.62116e-08
-6.51452e-08
1.32238e-08
-1.21882e-08
4.81347e-09
9.90021e-10
2.13071e-06
-3.97349e-07
3.83847e-06
-1.11985e-06
4.94801e-06
-1.70965e-06
5.44926e-06
-2.165e-06
5.37005e-06
-2.49751e-06
4.77362e-06
-2.7175e-06
3.75003e-06
-2.83488e-06
2.40792e-06
-2.85936e-06
8.66663e-07
-2.80082e-06
-7.5137e-07
-2.66978e-06
-2.32867e-06
-2.47772e-06
-3.76058e-06
-2.23723e-06
-4.96202e-06
-1.96179e-06
-5.87247e-06
-1.66542e-06
-6.45862e-06
-1.36225e-06
-6.71457e-06
-1.06574e-06
-6.65959e-06
-7.88029e-07
-6.33377e-06
-5.39221e-07
-5.7922e-06
-3.26863e-07
-5.09849e-06
-1.55623e-07
-4.2358e-06
-3.12537e-08
-3.23772e-06
4.35841e-08
-2.2864e-06
7.87556e-08
-1.4959e-06
8.78307e-08
-8.86547e-07
7.96849e-08
-4.58546e-07
6.1563e-08
-1.93663e-07
4.02001e-08
-5.85122e-08
2.11826e-08
-9.63161e-09
8.29414e-09
1.86769e-09
2.28689e-06
-4.22348e-07
4.13842e-06
-1.19181e-06
5.35959e-06
-1.82111e-06
5.94811e-06
-2.30583e-06
5.94855e-06
-2.65934e-06
5.42495e-06
-2.89414e-06
4.46721e-06
-3.02069e-06
3.18238e-06
-3.04927e-06
1.68704e-06
-2.99011e-06
1.00701e-07
-2.85398e-06
-1.4615e-06
-2.65271e-06
-2.89664e-06
-2.39926e-06
-4.12051e-06
-2.10752e-06
-5.07232e-06
-1.79203e-06
-5.71717e-06
-1.46748e-06
-6.04635e-06
-1.14803e-06
-6.07525e-06
-8.46647e-07
-5.83927e-06
-5.7434e-07
-5.38846e-06
-3.39664e-07
-4.78134e-06
-1.48365e-07
-3.99584e-06
-8.49787e-09
-3.06125e-06
7.48773e-08
-2.15969e-06
1.12578e-07
-1.40756e-06
1.20714e-07
-8.26863e-07
1.09355e-07
-4.1969e-07
8.6345e-08
-1.69574e-07
5.91377e-08
-4.44934e-08
3.40744e-08
-1.75985e-09
1.57369e-08
4.38015e-09
2.27553e-08
-2.59234e-10
1.16614e-07
-1.63203e-09
3.68825e-07
-5.98452e-09
8.62919e-07
-1.56562e-08
1.67278e-06
-3.29662e-08
2.85393e-06
-5.99072e-08
4.43629e-06
-9.78865e-08
6.41977e-06
-1.47571e-07
8.77352e-06
-2.0892e-07
1.12825e-05
-2.75972e-07
1.37492e-05
-3.37822e-07
1.61678e-05
-3.91143e-07
1.84863e-05
-4.38487e-07
2.06044e-05
-4.80135e-07
2.24309e-05
-5.15441e-07
2.38893e-05
-5.44335e-07
2.49219e-05
-5.67186e-07
2.54914e-05
-5.84543e-07
2.5581e-05
-5.96848e-07
2.51932e-05
-6.04183e-07
2.43455e-05
-6.06091e-07
2.30663e-05
-6.01503e-07
2.13885e-05
-5.88764e-07
1.93439e-05
-5.65737e-07
1.6958e-05
-5.29952e-07
1.42453e-05
-4.78784e-07
1.12059e-05
-4.09622e-07
7.82426e-06
-3.20024e-07
4.06695e-06
-2.07832e-07
-7.33829e-08
2.30813e-08
-5.1447e-10
1.1826e-07
-3.27488e-09
3.73574e-07
-1.19368e-08
8.72969e-07
-3.11403e-08
1.69058e-06
-6.54434e-08
2.88183e-06
-1.18757e-07
4.47618e-06
-1.93838e-07
6.47219e-06
-2.91962e-07
8.83467e-06
-4.12895e-07
1.13615e-05
-5.45382e-07
1.38444e-05
-6.68214e-07
1.62652e-05
-7.74014e-07
1.8585e-05
-8.6792e-07
2.07021e-05
-9.5096e-07
2.25248e-05
-1.0217e-06
2.39769e-05
-1.07993e-06
2.5001e-05
-1.1263e-06
2.55603e-05
-1.16185e-06
2.5639e-05
-1.18737e-06
2.524e-05
-1.20295e-06
2.43818e-05
-1.20763e-06
2.30931e-05
-1.19923e-06
2.14073e-05
-1.17442e-06
1.93563e-05
-1.12892e-06
1.69657e-05
-1.05782e-06
1.42498e-05
-9.55869e-07
1.12086e-05
-8.17883e-07
7.82592e-06
-6.39006e-07
4.06803e-06
-4.1496e-07
-1.46502e-07
2.34483e-08
-7.68179e-10
1.20103e-07
-4.88038e-09
3.78771e-07
-1.76547e-08
8.83685e-07
-4.5884e-08
1.70908e-06
-9.61932e-08
2.91026e-06
-1.74267e-07
4.5162e-06
-2.84113e-07
6.52461e-06
-4.27567e-07
8.89901e-06
-6.04137e-07
1.14424e-05
-7.98157e-07
1.39375e-05
-9.79309e-07
1.63602e-05
-1.13589e-06
1.86806e-05
-1.27533e-06
2.07964e-05
-1.3996e-06
2.26157e-05
-1.50639e-06
2.40623e-05
-1.5952e-06
2.50793e-05
-1.6668e-06
2.56304e-05
-1.72251e-06
2.57003e-05
-1.76329e-06
2.52926e-05
-1.78911e-06
2.44262e-05
-1.79838e-06
2.31303e-05
-1.78775e-06
2.14382e-05
-1.75223e-06
1.9382e-05
-1.68542e-06
1.6987e-05
-1.57998e-06
1.42671e-05
-1.42816e-06
1.12223e-05
-1.22222e-06
7.83579e-06
-9.54989e-07
4.07347e-06
-6.20135e-07
-2.18923e-07
2.37901e-08
-1.00878e-09
1.21807e-07
-6.38045e-09
3.83476e-07
-2.29092e-08
8.93139e-07
-5.93046e-08
1.72498e-06
-1.24016e-07
2.93412e-06
-2.2431e-07
4.54929e-06
-3.65334e-07
6.56803e-06
-5.49465e-07
8.9547e-06
-7.76043e-07
1.15102e-05
-1.02589e-06
1.40121e-05
-1.26111e-06
1.64372e-05
-1.46604e-06
1.87586e-05
-1.64987e-06
2.08739e-05
-1.81535e-06
2.26914e-05
-1.95924e-06
2.4135e-05
-2.08054e-06
2.51478e-05
-2.1799e-06
2.56942e-05
-2.25862e-06
2.57592e-05
-2.31762e-06
2.53468e-05
-2.35651e-06
2.4476e-05
-2.37293e-06
2.31761e-05
-2.36233e-06
2.14804e-05
-2.31801e-06
1.94207e-05
-2.23152e-06
1.70218e-05
-2.09321e-06
1.42975e-05
-1.89286e-06
1.12472e-05
-1.62035e-06
7.8539e-06
-1.26623e-06
4.0832e-06
-8.22266e-07
-2.90271e-07
2.41658e-08
-1.22526e-09
1.23653e-07
-7.71556e-09
3.88555e-07
-2.7518e-08
9.03288e-07
-7.09725e-08
1.74191e-06
-1.48074e-07
2.95933e-06
-2.67453e-07
4.58403e-06
-4.35287e-07
6.61349e-06
-6.54498e-07
9.01233e-06
-9.24379e-07
1.15794e-05
-1.22321e-06
1.40888e-05
-1.50731e-06
1.6518e-05
-1.75769e-06
1.88419e-05
-1.98464e-06
2.09581e-05
-2.19137e-06
2.27748e-05
-2.37359e-06
2.42162e-05
-2.52964e-06
2.52258e-05
-2.65973e-06
2.57682e-05
-2.76485e-06
2.58289e-05
-2.84555e-06
2.54123e-05
-2.90085e-06
2.45376e-05
-2.92747e-06
2.3234e-05
-2.91957e-06
2.15347e-05
-2.86875e-06
1.94712e-05
-2.76457e-06
1.70678e-05
-2.59515e-06
1.43378e-05
-2.34796e-06
1.12802e-05
-2.01059e-06
7.8779e-06
-1.57148e-06
4.09604e-06
-1.02055e-06
-3.60269e-07
2.45838e-08
-1.40832e-09
1.25667e-07
-8.83485e-09
3.94091e-07
-3.13334e-08
9.1432e-07
-8.0561e-08
1.76018e-06
-1.67764e-07
2.98621e-06
-3.02717e-07
4.62063e-06
-4.92518e-07
6.66069e-06
-7.40654e-07
9.07098e-06
-1.04651e-06
1.1649e-05
-1.38683e-06
1.41665e-05
-1.71407e-06
1.66012e-05
-2.00668e-06
1.89288e-05
-2.27538e-06
2.1047e-05
-2.52335e-06
2.28639e-05
-2.74522e-06
2.4304e-05
-2.93841e-06
2.5311e-05
-3.10241e-06
2.585e-05
-3.23756e-06
2.59071e-05
-3.3437e-06
2.54869e-05
-3.41901e-06
2.46089e-05
-3.45914e-06
2.33022e-05
-3.45683e-06
2.15996e-05
-3.40202e-06
1.95321e-05
-3.28234e-06
1.71238e-05
-3.08379e-06
1.43872e-05
-2.79169e-06
1.13208e-05
-2.39147e-06
7.90733e-06
-1.86959e-06
4.11177e-06
-1.21427e-06
-4.28663e-07
2.50594e-08
-1.55086e-09
1.27919e-07
-9.70074e-09
4.00285e-07
-3.42553e-08
9.2666e-07
-8.7867e-08
1.78047e-06
-1.82747e-07
3.01574e-06
-3.29606e-07
4.66017e-06
-5.36368e-07
6.71064e-06
-8.07114e-07
9.13139e-06
-1.14146e-06
1.17195e-05
-1.51559e-06
1.42455e-05
-1.88007e-06
1.66865e-05
-2.21156e-06
1.90188e-05
-2.5205e-06
2.11396e-05
-2.80963e-06
2.29573e-05
-3.07237e-06
2.43964e-05
-3.30504e-06
2.54013e-05
-3.50608e-06
2.59374e-05
-3.67485e-06
2.59915e-05
-3.81016e-06
2.55684e-05
-3.9091e-06
2.46878e-05
-3.96603e-06
2.33785e-05
-3.97223e-06
2.16731e-05
-3.91599e-06
1.9602e-05
-3.78306e-06
1.71884e-05
-3.55749e-06
1.44444e-05
-3.22255e-06
1.13681e-05
-2.76169e-06
7.94169e-06
-2.15954e-06
4.13012e-06
-1.40275e-06
-4.95218e-07
2.56258e-08
-1.64927e-09
1.30565e-07
-1.02924e-08
4.07575e-07
-3.62388e-08
9.41185e-07
-9.28224e-08
1.80423e-06
-1.92959e-07
3.04991e-06
-3.48117e-07
4.70518e-06
-5.66975e-07
6.76621e-06
-8.54243e-07
9.19656e-06
-1.2099e-06
1.17937e-05
-1.61046e-06
1.43282e-05
-2.00641e-06
1.67761e-05
-2.37345e-06
1.91131e-05
-2.72109e-06
2.12365e-05
-3.05112e-06
2.30546e-05
-3.35573e-06
2.44925e-05
-3.62994e-06
2.54951e-05
-3.87086e-06
2.60285e-05
-4.07653e-06
2.60799e-05
-4.24447e-06
2.56545e-05
-4.37037e-06
2.47721e-05
-4.44719e-06
2.34611e-05
-4.46466e-06
2.17536e-05
-4.40941e-06
1.96792e-05
-4.26543e-06
1.72604e-05
-4.01491e-06
1.45086e-05
-3.63927e-06
1.14213e-05
-3.12013e-06
7.98041e-06
-2.44044e-06
4.15083e-06
-1.58541e-06
-5.59725e-07
2.63504e-08
-1.70223e-09
1.33913e-07
-1.06069e-08
4.16777e-07
-3.7295e-08
9.59454e-07
-9.54959e-08
1.83391e-06
-1.98613e-07
3.09215e-06
-3.58736e-07
4.76e-06
-5.85247e-07
6.83254e-06
-8.83524e-07
9.2722e-06
-1.25401e-06
1.18774e-05
-1.67432e-06
1.44199e-05
-2.09645e-06
1.68742e-05
-2.49586e-06
1.92149e-05
-2.88056e-06
2.13394e-05
-3.25103e-06
2.31566e-05
-3.59817e-06
2.45921e-05
-3.91553e-06
2.55915e-05
-4.19866e-06
2.61218e-05
-4.44399e-06
2.61706e-05
-4.64746e-06
2.57434e-05
-4.80318e-06
2.48599e-05
-4.90253e-06
2.35481e-05
-4.93365e-06
2.18393e-05
-4.88153e-06
1.97622e-05
-4.72849e-06
1.73385e-05
-4.45501e-06
1.45787e-05
-4.04079e-06
1.14796e-05
-3.46581e-06
8.02294e-06
-2.71148e-06
4.17359e-06
-1.7617e-06
-6.2199e-07
2.73629e-08
-1.71035e-09
1.38518e-07
-1.06563e-08
4.2928e-07
-3.74859e-08
9.83991e-07
-9.60858e-08
1.8733e-06
-2.00187e-07
3.14756e-06
-3.6241e-07
4.83099e-06
-5.92813e-07
6.91719e-06
-8.97466e-07
9.36686e-06
-1.27735e-06
1.19794e-05
-1.71175e-06
1.45285e-05
-2.15542e-06
1.69872e-05
-2.58429e-06
1.9329e-05
-3.00438e-06
2.14518e-05
-3.41458e-06
2.32653e-05
-3.80446e-06
2.4696e-05
-4.16597e-06
2.56904e-05
-4.49293e-06
2.62164e-05
-4.77994e-06
2.62622e-05
-5.02111e-06
2.58335e-05
-5.20881e-06
2.49495e-05
-5.33271e-06
2.36378e-05
-5.37933e-06
2.19286e-05
-5.33206e-06
1.98497e-05
-5.17163e-06
1.74214e-05
-4.87697e-06
1.46536e-05
-4.42622e-06
1.15422e-05
-3.79786e-06
8.06873e-06
-2.97193e-06
4.19814e-06
-1.93113e-06
-6.81834e-07
2.89152e-08
-1.67334e-09
1.45355e-07
-1.04605e-08
4.47358e-07
-3.69148e-08
1.01866e-06
-9.49115e-08
1.92791e-06
-1.98414e-07
3.22317e-06
-3.60526e-07
4.92665e-06
-5.9196e-07
7.03011e-06
-8.99491e-07
9.49178e-06
-1.28467e-06
1.2111e-05
-1.72874e-06
1.46639e-05
-2.19015e-06
1.71231e-05
-2.64585e-06
1.94615e-05
-3.09964e-06
2.1578e-05
-3.54855e-06
2.33835e-05
-3.98084e-06
2.48056e-05
-4.38681e-06
2.57923e-05
-4.75836e-06
2.63121e-05
-5.08814e-06
2.63539e-05
-5.36828e-06
2.59235e-05
-5.58925e-06
2.50396e-05
-5.73896e-06
2.37288e-05
-5.80227e-06
2.20202e-05
-5.76104e-06
1.99403e-05
-5.59451e-06
1.75081e-05
-5.28019e-06
1.47323e-05
-4.79481e-06
1.16084e-05
-4.11552e-06
8.11729e-06
-3.22112e-06
4.2242e-06
-2.09323e-06
-7.39089e-07
3.15259e-08
-1.58589e-09
1.562e-07
-1.00344e-08
4.74745e-07
-3.57175e-08
1.06928e-06
-9.24121e-08
2.00536e-06
-1.94284e-07
3.32807e-06
-3.5489e-07
5.05745e-06
-5.85573e-07
7.18335e-06
-8.93803e-07
9.6608e-06
-1.28169e-06
1.22858e-05
-1.73246e-06
1.48372e-05
-2.20865e-06
1.72907e-05
-2.68881e-06
1.96192e-05
-3.17455e-06
2.1723e-05
-3.66083e-06
2.35146e-05
-4.13462e-06
2.49231e-05
-4.58452e-06
2.5898e-05
-5.0005e-06
2.64091e-05
-5.37313e-06
2.64454e-05
-5.69247e-06
2.60128e-05
-5.94702e-06
2.51292e-05
-6.12291e-06
2.38201e-05
-6.20337e-06
2.21132e-05
-6.16876e-06
2.00331e-05
-5.99696e-06
1.75977e-05
-5.66417e-06
1.48143e-05
-5.14589e-06
1.16775e-05
-4.41807e-06
8.16816e-06
-3.45842e-06
4.25155e-06
-2.24757e-06
-7.93594e-07
3.63748e-08
-1.42578e-09
1.74492e-07
-9.36891e-09
5.17755e-07
-3.4062e-08
1.14454e-06
-8.91699e-08
2.11589e-06
-1.89072e-07
3.47345e-06
-3.47737e-07
5.23537e-06
-5.77071e-07
7.39054e-06
-8.85243e-07
9.89052e-06
-1.27497e-06
1.25194e-05
-1.73098e-06
1.50594e-05
-2.21966e-06
1.74984e-05
-2.72205e-06
1.98089e-05
-3.23794e-06
2.1892e-05
-3.75995e-06
2.36621e-05
-4.27369e-06
2.50508e-05
-4.76614e-06
2.6009e-05
-5.22536e-06
2.65078e-05
-5.63983e-06
2.65366e-05
-5.99751e-06
2.6101e-05
-6.28495e-06
2.52178e-05
-6.48646e-06
2.39111e-05
-6.58371e-06
2.22066e-05
-6.55565e-06
2.01274e-05
-6.37891e-06
1.76894e-05
-6.02851e-06
1.48986e-05
-5.47886e-06
1.1749e-05
-4.70486e-06
8.22092e-06
-3.68323e-06
4.27995e-06
-2.39372e-06
-8.45191e-07
4.65031e-08
-1.1361e-09
2.07477e-07
-8.40746e-09
5.87423e-07
-3.21775e-08
1.25748e-06
-8.59983e-08
2.27308e-06
-1.84453e-07
3.67243e-06
-3.41795e-07
5.47299e-06
-5.70369e-07
7.66564e-06
-8.79105e-07
1.02021e-05
-1.2718e-06
1.28296e-05
-1.73327e-06
1.53384e-05
-2.23227e-06
1.7753e-05
-2.75449e-06
2.00365e-05
-3.29884e-06
2.20895e-05
-3.85458e-06
2.38294e-05
-4.40605e-06
2.51908e-05
-4.93878e-06
2.61266e-05
-5.43903e-06
2.66091e-05
-5.89324e-06
2.6628e-05
-6.28732e-06
2.61881e-05
-6.60588e-06
2.53052e-05
-6.83152e-06
2.40014e-05
-6.9444e-06
2.23002e-05
-6.92218e-06
2.02226e-05
-6.74032e-06
1.77826e-05
-6.37283e-06
1.4985e-05
-5.79313e-06
1.18225e-05
-4.97523e-06
8.27524e-06
-3.89494e-06
4.30922e-06
-2.53124e-06
-8.93724e-07
7.53996e-08
-6.56368e-10
2.76122e-07
-6.7089e-09
7.06982e-07
-3.03694e-08
1.4306e-06
-8.41475e-08
2.49742e-06
-1.82735e-07
3.94272e-06
-3.40456e-07
5.78486e-06
-5.6988e-07
8.02259e-06
-8.80813e-07
1.05949e-05
-1.27696e-06
1.32062e-05
-1.7428e-06
1.56751e-05
-2.25199e-06
1.80615e-05
-2.79474e-06
2.03096e-05
-3.36692e-06
2.23214e-05
-3.95442e-06
2.40208e-05
-4.54098e-06
2.53462e-05
-5.11117e-06
2.62532e-05
-5.64959e-06
2.67148e-05
-6.14071e-06
2.67208e-05
-6.56848e-06
2.62753e-05
-6.91564e-06
2.53922e-05
-7.16319e-06
2.40914e-05
-7.28988e-06
2.23942e-05
-7.27214e-06
2.0319e-05
-7.08444e-06
1.78777e-05
-6.69984e-06
1.50734e-05
-6.09094e-06
1.18979e-05
-5.23092e-06
8.33109e-06
-4.09484e-06
4.33932e-06
-2.66094e-06
-9.39464e-07
2.51245e-06
-4.44306e-07
4.5963e-06
-1.25702e-06
6.02126e-06
-1.92803e-06
6.74304e-06
-2.44692e-06
6.83076e-06
-2.82323e-06
6.37029e-06
-3.07302e-06
5.45318e-06
-3.20957e-06
4.18864e-06
-3.24353e-06
2.69413e-06
-3.18543e-06
1.09004e-06
-3.04617e-06
-5.06837e-07
-2.83783e-06
-1.9919e-06
-2.57374e-06
-3.27914e-06
-2.26808e-06
-4.30558e-06
-1.93571e-06
-5.03376e-06
-1.59171e-06
-5.452e-06
-1.25077e-06
-5.57246e-06
-9.26451e-07
-5.42723e-06
-6.30477e-07
-5.06308e-06
-3.72224e-07
-4.53526e-06
-1.584e-07
-3.81569e-06
6.2605e-10
-2.92808e-06
9.69361e-08
-2.05823e-06
1.4152e-07
-1.32886e-06
1.52675e-07
-7.64599e-07
1.4163e-07
-3.69553e-07
1.16739e-07
-1.2864e-07
8.60066e-08
-1.05152e-08
5.63217e-08
2.74434e-08
3.27684e-08
1.82608e-08
2.76027e-08
2.689e-06
-4.64628e-07
4.9676e-06
-1.31567e-06
6.61698e-06
-2.02453e-06
7.52925e-06
-2.58174e-06
7.73369e-06
-2.98835e-06
7.35318e-06
-3.25601e-06
6.50267e-06
-3.40331e-06
5.28976e-06
-3.4443e-06
3.82988e-06
-3.3894e-06
2.24163e-06
-3.2494e-06
6.41815e-07
-3.03662e-06
-8.65139e-07
-2.76472e-06
-2.19308e-06
-2.44805e-06
-3.27815e-06
-2.1016e-06
-4.08108e-06
-1.74069e-06
-4.58756e-06
-1.38028e-06
-4.80641e-06
-1.03431e-06
-4.76603e-06
-7.14948e-07
-4.50939e-06
-4.32083e-07
-4.08779e-06
-1.93032e-07
-3.46802e-06
-1.00883e-08
-2.66142e-06
1.05106e-07
-1.8508e-06
1.62139e-07
-1.1661e-06
1.81373e-07
-6.34097e-07
1.75436e-07
-2.61069e-07
1.5305e-07
-3.33474e-08
1.22682e-07
7.92721e-08
9.15941e-08
1.18747e-07
6.53446e-08
4.78563e-08
1.32507e-07
2.87145e-06
-4.84386e-07
5.32464e-06
-1.37143e-06
7.17748e-06
-2.11181e-06
8.33071e-06
-2.70247e-06
8.7302e-06
-3.14548e-06
8.46197e-06
-3.44105e-06
7.68853e-06
-3.60304e-06
6.54222e-06
-3.65265e-06
5.13136e-06
-3.60365e-06
3.57115e-06
-3.46574e-06
1.97936e-06
-3.25154e-06
4.59788e-07
-2.97521e-06
-9.0189e-07
-2.65105e-06
-2.0413e-06
-2.29402e-06
-2.91771e-06
-1.91945e-06
-3.51433e-06
-1.54238e-06
-3.83679e-06
-1.1769e-06
-3.91004e-06
-8.35336e-07
-3.77382e-06
-5.27677e-07
-3.4771e-06
-2.61128e-07
-2.98711e-06
-4.80999e-08
-2.28249e-06
9.40649e-08
-1.53807e-06
1.69611e-07
-9.0538e-07
2.02172e-07
-4.09428e-07
2.06831e-07
-5.88847e-08
1.92098e-07
1.59997e-07
1.67009e-07
2.77315e-07
1.39112e-07
3.3563e-07
1.14574e-07
9.78977e-08
3.79487e-07
3.07057e-06
-5.03395e-07
5.70489e-06
-1.42547e-06
7.72979e-06
-2.19523e-06
9.09815e-06
-2.81186e-06
9.75324e-06
-3.2858e-06
9.68444e-06
-3.61742e-06
9.02231e-06
-3.80662e-06
7.9568e-06
-3.87045e-06
6.61138e-06
-3.83024e-06
5.09153e-06
-3.6976e-06
3.51989e-06
-3.48524e-06
1.99859e-06
-3.20835e-06
6.11988e-07
-2.88083e-06
-5.75365e-07
-2.51732e-06
-1.52152e-06
-2.13302e-06
-2.20732e-06
-1.74291e-06
-2.63526e-06
-1.36104e-06
-2.82675e-06
-9.99705e-07
-2.81857e-06
-6.68748e-07
-2.65906e-06
-3.74864e-07
-2.32479e-06
-1.28877e-07
-1.75039e-06
4.89419e-08
-1.0833e-06
1.54734e-07
-5.0258e-07
2.08496e-07
-4.11754e-08
2.28192e-07
2.90606e-07
2.25969e-07
5.10316e-07
2.11181e-07
6.48336e-07
1.91115e-07
7.47975e-07
1.72609e-07
1.59949e-07
8.44773e-07
3.28681e-06
-5.21652e-07
6.12136e-06
-1.4775e-06
8.32491e-06
-2.27633e-06
9.86919e-06
-2.91701e-06
1.07512e-05
-3.41318e-06
1.09491e-05
-3.77472e-06
1.04895e-05
-4.00097e-06
9.54792e-06
-4.09506e-06
8.28465e-06
-4.07193e-06
6.81584e-06
-3.94724e-06
5.27821e-06
-3.73983e-06
3.76826e-06
-3.46682e-06
2.36779e-06
-3.14057e-06
1.14156e-06
-2.77523e-06
1.32426e-07
-2.3858e-06
-6.38032e-07
-1.98706e-06
-1.16888e-06
-1.59299e-06
-1.47743e-06
-1.21577e-06
-1.59607e-06
-8.65267e-07
-1.56923e-06
-5.48486e-07
-1.37763e-06
-2.76887e-07
-9.54747e-07
-6.63654e-08
-4.0852e-07
8.15316e-08
1.02792e-07
1.75911e-07
5.28711e-07
2.25568e-07
8.5139e-07
2.4297e-07
1.08547e-06
2.41392e-07
1.26099e-06
2.32109e-07
1.42105e-06
2.22208e-07
2.14854e-07
1.58653e-06
3.52202e-06
-5.39132e-07
6.57551e-06
-1.52749e-06
8.97916e-06
-2.35466e-06
1.07052e-05
-3.01975e-06
1.17696e-05
-3.53637e-06
1.22027e-05
-3.91774e-06
1.20095e-05
-4.17259e-06
1.12756e-05
-4.30381e-06
1.01472e-05
-4.31476e-06
8.75833e-06
-4.21282e-06
7.26748e-06
-4.0174e-06
5.78497e-06
-3.75259e-06
4.38419e-06
-3.43277e-06
3.1314e-06
-3.07069e-06
2.06958e-06
-2.68126e-06
1.22318e-06
-2.27895e-06
5.96923e-07
-1.87779e-06
1.78508e-07
-1.48981e-06
-5.78939e-08
-1.12504e-06
-1.47456e-07
-7.91213e-07
-6.38613e-08
-5.00767e-07
2.20443e-07
-2.65517e-07
6.14278e-07
-8.19954e-08
1.01696e-06
5.70454e-08
1.3857e-06
1.54166e-07
1.6989e-06
2.1172e-07
1.95735e-06
2.36487e-07
2.1842e-06
2.41568e-07
2.41714e-06
2.39058e-07
2.35651e-07
2.65993e-06
3.77785e-06
-5.55785e-07
7.07052e-06
-1.57527e-06
9.69439e-06
-2.43003e-06
1.16252e-05
-3.11942e-06
1.28774e-05
-3.65759e-06
1.34984e-05
-4.0574e-06
1.3538e-05
-4.33086e-06
1.30478e-05
-4.48724e-06
1.21372e-05
-4.5345e-06
1.0909e-05
-4.47517e-06
9.5034e-06
-4.31369e-06
8.06584e-06
-4.06822e-06
6.6801e-06
-3.75957e-06
5.4169e-06
-3.40597e-06
4.31605e-06
-3.02196e-06
3.40644e-06
-2.62136e-06
2.6966e-06
-2.21877e-06
2.1797e-06
-1.82582e-06
1.83727e-06
-1.45252e-06
1.64363e-06
-1.107e-06
1.62594e-06
-8.00141e-07
1.79243e-06
-5.42104e-07
2.05683e-06
-3.31687e-07
2.34557e-06
-1.61203e-07
2.63814e-06
-2.58525e-08
2.92527e-06
7.47954e-08
3.20456e-06
1.42221e-07
3.48788e-06
1.79716e-07
3.79958e-06
1.93405e-07
1.9384e-07
4.12317e-06
4.0559e-06
-5.71556e-07
7.60953e-06
-1.62072e-06
1.04751e-05
-2.50222e-06
1.26321e-05
-3.21576e-06
1.40971e-05
-3.77607e-06
1.49143e-05
-4.19656e-06
1.51512e-05
-4.48939e-06
1.48761e-05
-4.66516e-06
1.41993e-05
-4.73649e-06
1.32e-05
-4.71361e-06
1.19589e-05
-4.59865e-06
1.06147e-05
-4.39557e-06
9.27695e-06
-4.11801e-06
8.02122e-06
-3.78342e-06
6.8971e-06
-3.40907e-06
5.94074e-06
-3.01502e-06
5.16261e-06
-2.61711e-06
4.56119e-06
-2.2254e-06
4.12523e-06
-1.84969e-06
3.83659e-06
-1.49847e-06
3.71481e-06
-1.18044e-06
3.76825e-06
-9.02857e-07
3.92619e-06
-6.66848e-07
4.1256e-06
-4.70215e-07
4.35515e-06
-3.11052e-07
4.61284e-06
-1.85332e-07
4.90354e-06
-8.7952e-08
5.23683e-06
-1.81839e-08
5.62763e-06
2.41234e-08
4.5821e-08
6.03803e-06
4.3577e-06
-5.86347e-07
8.19552e-06
-1.66354e-06
1.13257e-05
-2.5708e-06
1.37318e-05
-3.30824e-06
1.54329e-05
-3.89117e-06
1.64745e-05
-4.33352e-06
1.6923e-05
-4.64795e-06
1.68564e-05
-4.84605e-06
1.6383e-05
-4.9394e-06
1.55982e-05
-4.94041e-06
1.45642e-05
-4.85831e-06
1.33835e-05
-4.69969e-06
1.21563e-05
-4.47245e-06
1.09529e-05
-4.18249e-06
9.83512e-06
-3.8375e-06
8.85092e-06
-3.45881e-06
8.02458e-06
-3.07132e-06
7.35645e-06
-2.68769e-06
6.84302e-06
-2.31626e-06
6.47299e-06
-1.96602e-06
6.25745e-06
-1.64305e-06
6.20267e-06
-1.35131e-06
6.26003e-06
-1.09488e-06
6.3848e-06
-8.77386e-07
6.56814e-06
-6.98964e-07
6.80721e-06
-5.5693e-07
7.1081e-06
-4.47933e-07
7.4819e-06
-3.6745e-07
7.94218e-06
-3.11268e-07
-2.77156e-07
8.43326e-06
4.68413e-06
-5.99969e-07
8.83028e-06
-1.7032e-06
1.22488e-05
-2.63489e-06
1.49277e-05
-3.39567e-06
1.68889e-05
-4.00139e-06
1.81793e-05
-4.46651e-06
1.88655e-05
-4.80417e-06
1.90286e-05
-5.0265e-06