/*--------------------------------*- C++ -*----------------------------------*\
| =========                 |                                                 |
| \\      /  F ield         | OpenFOAM: The Open Source CFD Toolbox           |
|  \\    /   O peration     | Version:  dev                                   |
|   \\  /    A nd           | Web:      www.OpenFOAM.org                      |
|    \\/     M anipulation  |                                                 |
\*---------------------------------------------------------------------------*/
FoamFile
{
    version     2.0;
    format      ascii;
    class       volScalarField;
    location    "0.18";
    object      p;
}
// * * * * * * * * * * * * * * * * * * * * * * * * * * * * * * * * * * * * * //

dimensions      [0 2 -2 0 0 0 0];

internalField   nonuniform List<scalar> 
465
(
-178.644
-181.687
-166.863
-168.487
-164.352
-155.061
-151.793
-151.827
-147.396
-138.882
-126.963
-133.59
-132.882
-128.819
-121.59
-111.649
-99.7725
-86.8992
-114.421
-113.745
-110.475
-104.725
-96.8105
-87.3001
-76.8895
-66.2572
-55.9709
-96.3331
-96.0387
-93.6761
-89.3397
-83.2604
-75.8441
-67.5942
-59.0186
-50.562
-42.5676
-80.3776
-80.5263
-78.9977
-75.8735
-71.3286
-65.6497
-59.198
-52.3522
-45.4601
-38.8067
-32.599
-26.9663
-66.8034
-67.3229
-66.4755
-64.3245
-61.0022
-56.7123
-51.7137
-46.2883
-40.7069
-35.2036
-29.9612
-25.1067
-20.7144
-55.4283
-56.2119
-55.8835
-54.4848
-52.1135
-48.9148
-45.0746
-40.8026
-36.3085
-31.7825
-27.3818
-23.225
-19.3909
-15.923
-12.8354
-45.9246
-46.8776
-46.9283
-46.0993
-44.4597
-42.1126
-39.1918
-35.8526
-32.2565
-28.5563
-24.8847
-21.3482
-18.0243
-14.9628
-12.1889
-9.70781
-37.9623
-39.0162
-39.336
-38.9332
-37.8541
-36.1705
-33.9784
-31.3925
-28.5364
-25.5316
-22.4882
-19.4993
-16.6375
-13.9542
-11.4808
-9.23172
-7.20697
-5.39574
-31.2604
-32.3652
-32.8743
-32.7885
-32.1377
-30.971
-29.3566
-27.3788
-25.1315
-22.7105
-20.206
-17.6977
-15.2512
-12.9164
-10.7275
-8.70438
-6.85451
-5.17499
-3.65487
-25.5923
-26.7143
-27.3537
-27.5027
-27.1788
-26.4147
-25.2582
-23.771
-22.0241
-20.0921
-18.0482
-15.9594
-13.8835
-11.8669
-9.94436
-8.13863
-6.46202
-4.91757
-3.5007
-2.19943
-20.7766
-21.8953
-22.6218
-22.9433
-22.8682
-22.4175
-21.6242
-20.5327
-19.1964
-17.6731
-16.0215
-14.297
-12.5498
-10.8217
-9.1461
-7.54696
-6.03952
-4.63103
-3.32181
-2.10544
-1.00564
-16.6689
-17.772
-18.5546
-19.0017
-19.1155
-18.9086
-18.4031
-17.6307
-16.6311
-15.4487
-14.13
-12.7207
-11.2632
-9.79473
-8.34613
-6.94124
-5.59685
-4.32298
-3.12365
-1.99687
-0.967001
-13.1544
-14.2345
-15.0512
-15.589
-15.8457
-15.8281
-15.5506
-15.0353
-14.3114
-13.4128
-12.3759
-11.2381
-10.0347
-8.79819
-7.55656
-6.33255
-5.14342
-4.00091
-2.91167
-1.8772
-0.921818
-10.1412
-11.1943
-12.0295
-12.6317
-12.9962
-13.1254
-13.0283
-12.72
-12.2216
-11.5587
-10.7598
-9.85472
-8.87307
-7.84259
-6.78819
-5.73104
-4.68811
-3.67204
-2.69128
-1.74996
-0.871844
-7.55514
-8.57956
-9.42257
-10.0697
-10.5149
-10.7579
-10.8034
-10.6615
-10.3472
-9.87962
-9.28086
-8.57474
-7.78556
-6.93688
-6.05055
-5.14589
-4.23913
-3.34319
-2.46764
-1.61856
-0.818792
-5.33667
-6.33229
-7.17573
-7.85352
-8.35877
-8.68943
-8.84748
-8.83915
-8.6749
-8.36882
-7.93787
-7.40096
-6.77792
-6.08859
-5.35195
-4.58535
-3.80403
-3.02074
-2.24568
-1.48632
-0.764301
-3.43744
-4.4053
-5.24454
-5.94234
-6.49191
-6.89
-7.13661
-7.23524
-7.1929
-7.01987
-6.72904
-6.3353
-5.8548
-5.30412
-4.69962
-4.05677
-3.38965
-2.71059
-2.03002
-1.35635
-0.709922
-1.81926
-2.76079
-3.59259
-4.30297
-4.88496
-5.33466
-5.65072
-5.83466
-5.891
-5.82705
-5.65254
-5.37918
-5.02002
-4.58892
-4.09992
-3.56672
-3.00221
-2.41815
-1.82496
-1.23162
-0.657103
-0.450685
-1.36804
-2.19072
-2.90832
-3.51379
-4.00276
-4.37301
-4.62468
-4.76043
-4.78534
-4.7067
-4.53367
-4.27683
-3.94774
-3.55845
-3.12106
-2.64735
-2.14841
-1.63448
-1.11487
-0.607196
0.692252
-0.203577
-1.01666
-1.73774
-2.35987
-2.8784
-3.29054
-3.59546
-3.79447
-3.89099
-3.89044
-3.79999
-3.62823
-3.38486
-3.08026
-2.72513
-2.3302
-1.90592
-1.46225
-1.00864
-0.561405
1.62952
0.752156
-0.0518073
-0.774058
-1.40788
-1.94849
-2.39272
-2.73906
-2.98784
-3.14126
-3.20333
-3.17968
-3.07736
-2.90456
-2.67029
-2.38409
-2.05578
-1.69517
-1.31193
-0.915499
-0.521005
2.37252
1.51049
0.71476
-0.00712465
-0.648736
-1.20525
-1.67327
-2.05084
-2.3376
-2.53488
-2.64565
-2.67439
-2.62696
-2.51038
-2.33257
-2.10212
-1.82807
-1.51968
-1.18628
-0.837278
-0.486718
2.93346
2.08301
1.29365
0.572299
-0.0748855
-0.643022
-1.12851
-1.5291
-1.84397
-2.07384
-2.22092
-2.2889
-2.28277
-2.20868
-2.07375
-1.88582
-1.65331
-1.38501
-1.08994
-0.777364
-0.460249
3.31076
2.46892
1.68507
0.965402
0.31562
-0.259411
-0.755955
-1.17154
-1.50503
-1.75672
-1.92833
-2.02298
-2.04505
-2.00013
-1.89472
-1.73617
-1.53243
-1.29189
-1.02327
-0.735562
-0.440592
3.50978
2.67045
1.88689
1.16581
0.513081
-0.0666765
-0.569849
-0.993922
-1.33763
-1.60108
-1.78572
-1.89438
-1.93114
-1.90124
-1.8109
-1.66719
-1.47778
-1.25085
-0.994832
-0.718171
-0.430224
)
;

boundaryField
{
    inlet
    {
        type            zeroGradient;
    }
    outlet
    {
        type            fixedValue;
        value           uniform 0;
    }
    flap
    {
        type            zeroGradient;
    }
    upperWall
    {
        type            zeroGradient;
    }
    lowerWall
    {
        type            zeroGradient;
    }
    frontAndBack
    {
        type            empty;
    }
    procBoundary2to1
    {
        type            processor;
        value           nonuniform List<scalar> 
17
(
-29.6173
-24.0373
-19.307
-15.2798
-11.8396
-8.89416
-6.36947
-4.20606
-2.35594
-0.780881
0.550248
1.66111
2.57163
3.29295
3.83772
4.20365
4.39806
)
;
    }
    procBoundary2to4
    {
        type            processor;
        value           nonuniform List<scalar> 
11
(
-170.542
-160.521
-147.489
-130.771
-112.334
-94.4645
-78.5217
-64.932
-53.5744
-44.1232
-36.2342
)
;
    }
    procBoundary2to5
    {
        type            processor;
        value           nonuniform List<scalar> 
34
(
-188.575
-192.479
-178.311
-178.311
-168.822
-141.534
-141.534
-112.658
-112.658
-97.1888
-73.9264
-73.9264
-61.5773
-46.4408
-46.4408
-35.2639
-35.2639
-28.7726
-21.9695
-21.9695
-16.8146
-16.8146
-13.4039
-10.1198
-10.1198
-7.50945
-7.50945
-5.57257
-3.77906
-3.77906
-2.27542
-2.27542
-1.03598
-1.03598
)
;
    }
}


// ************************************************************************* //
