/*--------------------------------*- C++ -*----------------------------------*\
| =========                 |                                                 |
| \\      /  F ield         | OpenFOAM: The Open Source CFD Toolbox           |
|  \\    /   O peration     | Version:  dev                                   |
|   \\  /    A nd           | Web:      www.OpenFOAM.org                      |
|    \\/     M anipulation  |                                                 |
\*---------------------------------------------------------------------------*/
FoamFile
{
    version     2.0;
    format      ascii;
    class       surfaceScalarField;
    location    "4.06";
    object      meshPhi;
}
// * * * * * * * * * * * * * * * * * * * * * * * * * * * * * * * * * * * * * //

dimensions      [0 3 -1 0 0 0 0];

internalField   nonuniform List<scalar> 
882
(
-7.50855e-09
-3.47744e-07
-2.38262e-07
3.54437e-07
6.26622e-09
1.87439e-07
1.6463e-06
-5.71095e-07
2.18498e-06
-2.86885e-07
2.73571e-06
-6.05629e-08
3.26869e-06
1.16781e-07
2.46891e-07
4.15514e-06
-1.0173e-06
4.55963e-06
-6.92913e-07
4.99933e-06
-4.26266e-07
5.45759e-06
-2.12119e-07
5.93099e-06
-4.3734e-08
6.42695e-06
8.69749e-08
1.81927e-07
7.24875e-06
-1.58418e-06
7.52477e-06
-1.22467e-06
7.87109e-06
-9.22759e-07
8.27457e-06
-6.75906e-07
8.73153e-06
-4.79116e-07
9.25108e-06
-3.26595e-07
9.84939e-06
-2.11029e-07
1.05473e-05
-1.2567e-07
-6.88223e-08
1.12669e-05
1.10006e-05
-2.27194e-06
1.11596e-05
-1.88463e-06
1.14224e-05
-1.5553e-06
1.17785e-05
-1.28441e-06
1.22251e-05
-1.06774e-06
1.27676e-05
-9.00139e-07
1.34186e-05
-7.76198e-07
1.41938e-05
-6.91263e-07
-6.45296e-07
1.4991e-05
1.54726e-05
-3.07182e-06
1.55287e-05
-2.66526e-06
1.57201e-05
-2.31792e-06
1.60373e-05
-2.03286e-06
1.64768e-05
-1.80595e-06
1.70405e-05
-1.63258e-06
1.77347e-05
-1.50818e-06
1.85673e-05
-1.42879e-06
-1.39196e-06
1.94171e-05
2.07117e-05
-3.96555e-06
2.06816e-05
-3.54769e-06
2.08162e-05
-3.19264e-06
2.11049e-05
-2.90375e-06
2.15419e-05
-2.67611e-06
2.21253e-05
-2.50507e-06
2.28563e-05
-2.38629e-06
2.37365e-05
-2.31578e-06
-2.28836e-06
2.46319e-05
2.67404e-05
-4.91327e-06
2.66482e-05
-4.49977e-06
2.67457e-05
-4.14995e-06
2.70195e-05
-3.86808e-06
2.74609e-05
-3.64853e-06
2.80649e-05
-3.4865e-06
2.88279e-05
-3.37758e-06
2.97466e-05
-3.31758e-06
-3.29857e-06
3.06766e-05
3.35571e-05
-5.87356e-06
3.34379e-05
-5.48293e-06
3.35247e-05
-5.15273e-06
3.38016e-05
-4.88855e-06
3.4258e-05
-4.68482e-06
3.48859e-05
-4.53688e-06
3.56783e-05
-4.44036e-06
3.66278e-05
-4.39089e-06
-4.37813e-06
3.75824e-05
4.11387e-05
-6.80756e-06
4.10419e-05
-6.45663e-06
4.1152e-05
-6.16083e-06
4.1455e-05
-5.92379e-06
4.19402e-05
-5.7419e-06
4.25984e-05
-5.6114e-06
4.34202e-05
-5.52826e-06
4.43952e-05
-5.48813e-06
-5.47876e-06
4.53661e-05
4.96564e-05
-8.00928e-06
4.94643e-05
-7.69029e-06
4.94442e-05
-7.39025e-06
4.96143e-05
-7.13699e-06
4.99684e-05
-6.93258e-06
5.04987e-05
-6.77588e-06
5.11961e-05
-6.66423e-06
5.205e-05
-6.59412e-06
5.30482e-05
-6.56137e-06
-6.55236e-06
5.40298e-05
5.86072e-05
-8.77782e-06
5.85384e-05
-8.50946e-06
5.86288e-05
-8.25847e-06
5.88884e-05
-8.04662e-06
5.93169e-05
-7.87547e-06
5.99091e-05
-7.74439e-06
6.06564e-05
-7.65121e-06
6.15477e-05
-7.59278e-06
6.25698e-05
-7.56516e-06
-7.55386e-06
6.35595e-05
6.82685e-05
-9.45333e-06
6.83443e-05
-9.23332e-06
6.85647e-05
-9.02705e-06
6.89366e-05
-8.85385e-06
6.94601e-05
-8.71426e-06
7.01306e-05
-8.60737e-06
7.09397e-05
-8.53114e-06
7.18761e-05
-8.48258e-06
7.29256e-05
-8.45801e-06
-8.44245e-06
7.39239e-05
7.85786e-05
-1.00003e-05
7.88221e-05
-9.82598e-06
7.91946e-05
-9.66098e-06
7.97002e-05
-9.52325e-06
8.03381e-05
-9.41251e-06
8.11035e-05
-9.32754e-06
8.19875e-05
-9.26624e-06
8.29784e-05
-9.22574e-06
8.40618e-05
-9.2026e-06
-9.18173e-06
8.5072e-05
8.94506e-05
-1.03862e-05
8.98892e-05
-1.02541e-05
9.04377e-05
-1.01268e-05
9.10987e-05
-1.0021e-05
9.18704e-05
-9.93606e-06
9.27472e-05
-9.87045e-06
9.37201e-05
-9.82202e-06
9.47767e-05
-9.78806e-06
9.59025e-05
-9.76538e-06
-9.73904e-06
9.69301e-05
0.000100783
-1.05808e-05
0.000101444
-1.04867e-05
0.000102192
-1.03929e-05
0.000103029
-1.03154e-05
0.000103953
-1.02531e-05
0.000104958
-1.02043e-05
0.000106034
-1.01669e-05
0.000107169
-1.01383e-05
0.000108347
-1.01157e-05
-1.00846e-05
0.0001094
0.000112457
-1.05555e-05
0.000113362
-1.04944e-05
0.000114331
-1.04299e-05
0.000115364
-1.03769e-05
0.000116459
-1.0334e-05
0.000117608
-1.02996e-05
0.000118801
-1.02716e-05
0.000120026
-1.02478e-05
0.000121268
-1.02254e-05
-1.01906e-05
0.000122353
0.000124328
-1.02838e-05
0.000125498
-1.02504e-05
0.000126706
-1.02106e-05
0.000127951
-1.0178e-05
0.000129231
-1.01514e-05
0.000130538
-1.01291e-05
0.000131861
-1.01092e-05
0.000133188
-1.00895e-05
0.000134504
-1.00679e-05
-1.0031e-05
0.000135632
0.000136231
-9.74101e-06
0.000137679
-9.72977e-06
0.000139137
-9.70991e-06
0.000140607
-9.69393e-06
0.000142083
-9.68048e-06
0.000143559
-9.66804e-06
0.000145023
-9.65487e-06
0.000146463
-9.63909e-06
0.000147863
-9.61875e-06
-9.58177e-06
0.00014904
0.000147969
-8.90568e-06
0.000149699
-8.91078e-06
0.000151415
-8.90605e-06
0.000153115
-8.9026e-06
0.000154795
-8.89918e-06
0.000156446
-8.89439e-06
0.000158058
-8.88672e-06
0.000159617
-8.87456e-06
0.000161108
-8.85627e-06
-8.82106e-06
0.000162343
0.000159311
-7.76003e-06
0.000161321
-7.77555e-06
0.000163291
-7.78106e-06
0.000165221
-7.78607e-06
0.000167104
-7.7895e-06
0.000168932
-7.79014e-06
0.000170694
-7.7867e-06
0.000172376
-7.77787e-06
0.000173963
-7.76231e-06
-7.73078e-06
0.000175259
0.000169989
-6.29143e-06
0.000172265
-6.31143e-06
0.000174478
-6.32227e-06
0.000176626
-6.33168e-06
0.000178704
-6.33876e-06
0.000180703
-6.34254e-06
0.000182611
-6.34201e-06
0.000184415
-6.33613e-06
0.000186098
-6.3239e-06
-6.2979e-06
0.000187458
0.000179693
-4.49399e-06
0.000182206
-4.51258e-06
0.000184637
-4.52393e-06
0.000186983
-4.53372e-06
0.000189239
-4.54127e-06
0.000191394
-4.54589e-06
0.000193437
-4.54686e-06
0.000195354
-4.54348e-06
0.000197129
-4.53505e-06
-4.51628e-06
0.000198552
0.000188065
-2.37027e-06
0.000190768
-2.38179e-06
0.000193376
-2.3891e-06
0.000195886
-2.39541e-06
0.00019829
-2.40033e-06
0.000200577
-2.40351e-06
0.000202736
-2.40455e-06
0.000204751
-2.40311e-06
0.000206606
-2.3988e-06
-2.38884e-06
0.000208085
0.000194745
0.000197576
0.000200308
0.000202935
0.000205447
0.000207833
0.00021008
0.000212171
0.000214089
0.000215614
-1.79862e-08
1.56091e-05
-3.11489e-07
1.60985e-05
-3.26457e-07
-3.55396e-07
1.67085e-05
2.00749e-05
-6.8822e-07
2.05967e-05
-7.09017e-07
-7.35847e-07
2.12312e-05
2.53172e-05
-1.13866e-06
2.58462e-05
-1.16461e-06
-1.18817e-06
2.64682e-05
3.13796e-05
-1.6448e-06
3.19043e-05
-1.67552e-06
-1.69543e-06
3.24946e-05
3.82933e-05
-2.1842e-06
3.88019e-05
-2.21913e-06
-2.23542e-06
3.93401e-05
4.60763e-05
-2.73265e-06
4.65587e-05
-2.77112e-06
-2.78417e-06
4.70277e-05
5.47329e-05
-3.26629e-06
5.51811e-05
-3.30756e-06
-3.31796e-06
5.55666e-05
6.42517e-05
-3.76293e-06
6.46598e-05
-3.80627e-06
-3.81468e-06
6.49509e-05
7.46035e-05
-4.20263e-06
7.49682e-05
-4.24735e-06
-4.25436e-06
7.51573e-05
8.57397e-05
-4.56768e-06
8.60595e-05
-4.61313e-06
-4.61921e-06
8.6142e-05
9.75886e-05
-4.8422e-06
9.78641e-05
-4.88773e-06
-4.89321e-06
9.78382e-05
0.000110053
-5.01163e-06
0.000110286
-5.05662e-06
-5.06168e-06
0.000110153
0.000123007
-5.0624e-06
0.000123201
-5.10615e-06
-5.11088e-06
0.000122963
0.000136291
-4.98169e-06
0.000136451
-5.02345e-06
-5.02784e-06
0.000136112
0.000149711
-4.75751e-06
0.00014984
-4.79645e-06
-4.80046e-06
0.000149407
0.00016303
-4.37909e-06
0.000163134
-4.41427e-06
-4.41784e-06
0.000162613
0.000175967
-3.83738e-06
0.000176051
-3.86779e-06
-3.87084e-06
0.000175451
0.00018819
-3.12588e-06
0.000188259
-3.15041e-06
-3.15287e-06
0.000187589
0.00019931
-2.24147e-06
0.000199368
-2.25896e-06
-2.26073e-06
0.000198638
0.000208868
-1.18554e-06
0.000208923
-1.19475e-06
-1.19572e-06
0.00020815
0.00021642
0.000216478
0.000215678
-8.66419e-07
2.22209e-05
-1.62446e-06
2.3546e-05
-1.8427e-06
2.51274e-05
-2.13235e-06
-2.48465e-06
2.74341e-05
-2.52741e-06
2.87369e-05
-2.73761e-06
3.02813e-05
-3.01733e-06
3.20725e-05
-3.36005e-06
3.40953e-05
-3.76983e-06
-4.24899e-06
3.3396e-05
-3.54033e-06
3.46148e-05
-3.74083e-06
3.60561e-05
-4.00777e-06
3.77279e-05
-4.33636e-06
3.96255e-05
-4.72908e-06
4.17209e-05
-5.1888e-06
4.39722e-05
-5.71671e-06
-6.30594e-06
4.01461e-05
-4.62036e-06
4.12434e-05
-4.81214e-06
4.25457e-05
-5.0657e-06
4.40497e-05
-5.37792e-06
4.57491e-05
-5.75062e-06
4.76351e-05
-6.18545e-06
4.9676e-05
-6.68197e-06
5.1812e-05
-7.23829e-06
-7.8203e-06
4.77103e-05
-5.72044e-06
4.86527e-05
-5.90622e-06
4.97814e-05
-6.14781e-06
5.10888e-05
-6.44368e-06
5.25679e-05
-6.79527e-06
5.42042e-05
-7.2041e-06
5.59695e-05
-7.67018e-06
5.78323e-05
-8.19183e-06
-8.73716e-06
5.61027e-05
-6.79331e-06
5.6862e-05
-6.97655e-06
5.77889e-05
-7.20879e-06
5.88728e-05
-7.48986e-06
6.01067e-05
-7.82108e-06
6.14761e-05
-8.20414e-06
6.29579e-05
-8.6396e-06
6.45213e-05
-9.12672e-06
-9.63336e-06
6.53222e-05
-7.79415e-06
6.5876e-05
-7.97809e-06
6.65781e-05
-8.20387e-06
6.74162e-05
-8.47235e-06
6.83838e-05
-8.78478e-06
6.94679e-05
-9.14312e-06
7.0649e-05
-9.5484e-06
7.19008e-05
-1.00007e-05
-1.0467e-05
7.53502e-05
-8.68201e-06
7.56815e-05
-8.86896e-06
7.6141e-05
-9.09063e-06
7.67152e-05
-9.34856e-06
7.73988e-05
-9.6439e-06
7.8181e-05
-9.97883e-06
7.90448e-05
-1.03547e-05
7.99681e-05
-1.07721e-05
-1.11974e-05
8.61476e-05
-9.41999e-06
8.62447e-05
-9.61087e-06
8.64488e-05
-9.82975e-06
8.67456e-05
-1.00785e-05
8.71312e-05
-1.0358e-05
8.75971e-05
-1.06707e-05
8.81292e-05
-1.1018e-05
8.87083e-05
-1.14009e-05
-1.17855e-05
9.76517e-05
-9.97474e-06
9.75078e-05
-1.0169e-05
9.74485e-05
-1.03851e-05
9.74587e-05
-1.06249e-05
9.75365e-05
-1.08893e-05
9.76755e-05
-1.11804e-05
9.78641e-05
-1.15e-05
9.80863e-05
-1.18489e-05
-1.21936e-05
0.000109773
-1.03157e-05
0.000109386
-1.05114e-05
0.00010906
-1.07234e-05
0.000108779
-1.09536e-05
0.000108543
-1.12026e-05
0.000108348
-1.14723e-05
0.000108186
-1.17644e-05
0.000108042
-1.20799e-05
-1.23859e-05
0.000122393
-1.04144e-05
0.000121764
-1.06084e-05
0.000121172
-1.0814e-05
0.000120599
-1.10328e-05
0.000120048
-1.12652e-05
0.000119517
-1.1513e-05
0.000119
-1.17776e-05
0.000118485
-1.206e-05
-1.23287e-05
0.000135357
-1.02441e-05
0.000134493
-1.04323e-05
0.000133639
-1.06282e-05
0.000132779
-1.0833e-05
0.000131916
-1.10471e-05
0.000131051
-1.12718e-05
0.000130179
-1.15084e-05
0.000129293
-1.1758e-05
-1.19904e-05
0.000148476
-9.77996e-06
0.000147385
-9.95768e-06
0.000146279
-1.01398e-05
0.000145139
-1.03275e-05
0.000143972
-1.05207e-05
0.000142779
-1.07207e-05
0.00014156
-1.09286e-05
0.000140308
-1.1145e-05
-1.13425e-05
0.000161517
-8.99979e-06
0.000160212
-9.16178e-06
0.000158866
-9.3257e-06
0.00015746
-9.49255e-06
0.000156001
-9.66205e-06
0.000154493
-9.83525e-06
0.000152938
-1.0013e-05
0.000151331
-1.01959e-05
-1.03593e-05
0.000174203
-7.88498e-06
0.000172699
-8.02574e-06
0.00017113
-8.16666e-06
0.000169475
-8.30859e-06
0.000167742
-8.45116e-06
0.000165938
-8.59516e-06
0.000164066
-8.74125e-06
0.000162124
-8.88995e-06
-9.02006e-06
0.000186204
-6.42214e-06
0.000184521
-6.53596e-06
0.000182751
-6.64891e-06
0.00018087
-6.76164e-06
0.000178888
-6.87382e-06
0.000176814
-6.98598e-06
0.000174652
-7.0986e-06
0.000172402
-7.21205e-06
-7.30949e-06
0.000197136
-4.60481e-06
0.000195299
-4.68594e-06
0.000193353
-4.76584e-06
0.000191276
-4.84502e-06
0.000189078
-4.92318e-06
0.000186769
-5.00068e-06
0.000184355
-5.07779e-06
0.000181837
-5.15473e-06
-5.21982e-06
0.000206554
-2.43554e-06
0.00020459
-2.4783e-06
0.000202502
-2.52013e-06
0.000200266
-2.56138e-06
0.000197894
-2.60187e-06
0.000195397
-2.64176e-06
0.00019278
-2.68114e-06
0.00019005
-2.72006e-06
-2.7527e-06
0.000214015
0.000211959
0.000209769
0.000207421
0.000204927
0.000202299
0.000199544
0.000196669
)
;

boundaryField
{
    inlet
    {
        type            calculated;
        value           nonuniform 0();
    }
    outlet
    {
        type            calculated;
        value           nonuniform 0();
    }
    flap
    {
        type            calculated;
        value           nonuniform 0();
    }
    upperWall
    {
        type            calculated;
        value           nonuniform List<scalar> 
22
(
0
0
0
0
0
0
6.50483e-15
0
6.19647e-15
0
-1.48058e-15
0
0
0
0
0
0
0
0
0
0
0
)
;
    }
    lowerWall
    {
        type            calculated;
        value           nonuniform 0();
    }
    frontAndBack
    {
        type            empty;
        value           nonuniform 0();
    }
    procBoundary1to0
    {
        type            processor;
        value           nonuniform List<scalar> 
18
(
-3.38512e-05
-4.14104e-05
7.17038e-06
-4.98294e-05
-5.8676e-05
-6.81765e-05
-7.82883e-05
-8.89286e-05
-0.0001
-0.000111387
-0.000122954
-0.000134538
-0.000145953
-0.000156978
-0.000167355
-0.000176789
-0.000184937
-0.000191459
)
;
    }
    procBoundary1to2
    {
        type            processor;
        value           nonuniform List<scalar> 
17
(
5.37722e-05
5.95547e-05
6.59507e-05
7.3006e-05
8.07234e-05
8.90921e-05
9.80809e-05
0.000107633
0.000117665
0.000128057
0.000138658
0.000149278
0.000159686
0.00016961
0.000178734
0.0001867
0.000193154
)
;
    }
    procBoundary1to3
    {
        type            processor;
        value           nonuniform List<scalar> 9(2.56364e-06 9.11407e-07 -1.22824e-06 -3.87952e-06 -7.11252e-06 -1.0992e-05 -1.55758e-05 -2.09109e-05 -2.70084e-05);
    }
    procBoundary1to4
    {
        type            processor;
        value           nonuniform List<scalar> 
30
(
-1.13283e-07
-1.82757e-06
-1.8758e-07
-3.07594e-07
1.04707e-06
-3.10805e-07
-3.80284e-07
3.76923e-06
-3.32597e-07
-3.78593e-07
6.95953e-06
-2.41796e-07
-2.74785e-07
-1.45455e-07
1.18208e-05
3.20641e-08
7.09001e-08
3.1183e-07
1.76609e-05
1.09641e-06
1.39629e-06
1.74983e-06
2.6953e-05
2.90233e-06
3.38404e-06
3.63026e-05
4.79351e-06
5.39114e-06
4.63003e-05
6.91397e-06
)
;
    }
}


// ************************************************************************* //
