/*--------------------------------*- C++ -*----------------------------------*\
| =========                 |                                                 |
| \\      /  F ield         | OpenFOAM: The Open Source CFD Toolbox           |
|  \\    /   O peration     | Version:  dev                                   |
|   \\  /    A nd           | Web:      www.OpenFOAM.org                      |
|    \\/     M anipulation  |                                                 |
\*---------------------------------------------------------------------------*/
FoamFile
{
    version     2.0;
    format      ascii;
    class       surfaceScalarField;
    location    "0.56";
    object      phi;
}
// * * * * * * * * * * * * * * * * * * * * * * * * * * * * * * * * * * * * * //

dimensions      [0 3 -1 0 0 0 0];

internalField   nonuniform List<scalar> 
881
(
0.1983
0.0017103
0.196344
0.00196559
0.194091
0.00226296
0.191498
0.00260381
0.18856
0.00294792
0.185278
0.00329153
0.181644
0.00364203
0.177644
0.00400567
0.173261
0.00438656
0.168474
0.00478814
0.163259
0.00521361
0.157588
0.00566566
0.151435
0.00614627
0.14477
0.00665655
0.137564
0.00719652
0.129789
0.00776467
0.121421
0.00835721
0.112445
0.0089674
0.102852
0.0095847
0.0926515
0.0101939
0.0107741
0.199954
0.00176639
0.199235
0.00269474
0.198108
0.00339992
0.196602
0.00412011
0.194712
0.00484756
0.192436
0.00557672
0.189768
0.0063189
0.186694
0.00708568
0.183199
0.00788546
0.179262
0.00872549
0.174862
0.0096125
0.169971
0.0105523
0.164561
0.0115493
0.158602
0.0126064
0.152065
0.0137243
0.144918
0.0149012
0.137134
0.0161305
0.128692
0.0174003
0.119578
0.0186909
0.109792
0.0199733
0.0212069
0.199806
0.00197055
0.199149
0.00336094
0.19809
0.00446907
0.196678
0.00554206
0.194918
0.00661771
0.192806
0.00769821
0.190337
0.00879684
0.1875
0.00992876
0.184283
0.0111062
0.18067
0.0123402
0.176639
0.0136412
0.172169
0.0150179
0.167234
0.0164778
0.161805
0.0180264
0.155854
0.0196661
0.149348
0.0213964
0.142258
0.0232109
0.134553
0.0250957
0.126209
0.0270268
0.117209
0.0289668
0.030862
0.199719
0.00226158
0.199063
0.0040263
0.19802
0.00552191
0.196628
0.00694428
0.194898
0.00835762
0.192829
0.00977706
0.190415
0.0112186
0.187651
0.0126996
0.184526
0.014235
0.181028
0.0158395
0.177142
0.0175265
0.172848
0.0193073
0.168128
0.0211915
0.162959
0.0231871
0.157316
0.0252991
0.151173
0.0275285
0.144503
0.0298712
0.137275
0.0323145
0.129459
0.0348345
0.121026
0.0373925
0.0399303
0.199676
0.00259542
0.19901
0.00470115
0.197981
0.00656054
0.19661
0.0083255
0.194909
0.0100687
0.192878
0.0118179
0.190512
0.013593
0.187805
0.0154128
0.18475
0.017295
0.181333
0.0192575
0.177542
0.0213162
0.173362
0.0234842
0.168774
0.0257725
0.163762
0.0281911
0.158304
0.0307475
0.152378
0.0334449
0.145957
0.0362818
0.139013
0.0392486
0.131514
0.042325
0.123424
0.0454761
0.0486472
0.199655
0.00294969
0.198984
0.00538138
0.197972
0.00758226
0.196628
0.00967907
0.194963
0.0117439
0.192977
0.0138134
0.190666
0.015912
0.188025
0.0180605
0.185045
0.0202801
0.181713
0.0225912
0.178018
0.0250107
0.173944
0.027554
0.169477
0.0302338
0.164598
0.033062
0.159288
0.0360483
0.153524
0.0391989
0.14728
0.0425154
0.140527
0.0459927
0.133227
0.0496163
0.125337
0.0533587
0.0571743
0.199647
0.00331179
0.198977
0.00605974
0.197985
0.00858354
0.196674
0.0109994
0.195052
0.013376
0.19312
0.0157554
0.190875
0.018166
0.188309
0.0206328
0.185414
0.0231801
0.182179
0.0258289
0.178591
0.0285983
0.174636
0.0315056
0.170299
0.0345661
0.165559
0.0377937
0.160398
0.041201
0.154789
0.0447977
0.148705
0.0485896
0.142111
0.0525773
0.134965
0.0567539
0.127214
0.0611021
0.065589
0.199646
0.00367399
0.198985
0.00672925
0.198017
0.00956008
0.196745
0.0122811
0.195173
0.0149579
0.193303
0.0176355
0.191131
0.0203464
0.188651
0.0231202
0.185854
0.0259829
0.182729
0.0289568
0.179263
0.0320637
0.175443
0.0353231
0.171251
0.0387527
0.166669
0.0423693
0.161672
0.0461891
0.156234
0.0502262
0.150322
0.0544919
0.143896
0.0589937
0.136907
0.0637344
0.129294
0.0687086
0.0738987
0.199651
0.00403115
0.199004
0.00738394
0.198065
0.0105072
0.196837
0.0135188
0.195322
0.0164827
0.193521
0.0194459
0.191432
0.022445
0.189047
0.025512
0.18636
0.0286757
0.183359
0.0319612
0.180031
0.0353919
0.176363
0.0389892
0.172337
0.042774
0.167933
0.0467668
0.163126
0.050988
0.157887
0.0554571
0.152177
0.0601917
0.145954
0.0652081
0.13916
0.07052
0.131724
0.0761363
0.0820564
0.199659
0.00437955
0.199031
0.00801877
0.198127
0.01142
0.196947
0.0147073
0.195495
0.0179442
0.193772
0.0211794
0.191773
0.0244526
0.189495
0.0277979
0.186929
0.0312473
0.184065
0.0348289
0.180891
0.038567
0.177394
0.0424854
0.173556
0.0466085
0.169355
0.050961
0.164768
0.0555681
0.159761
0.0604549
0.154297
0.0656467
0.148327
0.0711692
0.14179
0.0770487
0.134609
0.0833096
0.089971
0.19967
0.00471639
0.199066
0.00862953
0.198199
0.0122943
0.197074
0.0158418
0.195691
0.0193364
0.194051
0.0228286
0.192153
0.0263604
0.18999
0.0299684
0.187557
0.0336867
0.184844
0.037546
0.18184
0.0415729
0.178532
0.0457929
0.174903
0.0502337
0.170934
0.054925
0.166599
0.0598965
0.161867
0.0651794
0.156698
0.0708063
0.151045
0.0768135
0.144846
0.0832402
0.13802
0.0901277
0.0975164
0.199683
0.00503942
0.199106
0.00921263
0.198282
0.0131257
0.197214
0.0169176
0.195906
0.0206539
0.194358
0.0243869
0.192567
0.0281606
0.190529
0.032014
0.18824
0.0359829
0.185691
0.0400997
0.182872
0.0443937
0.179773
0.0488926
0.176377
0.053627
0.172666
0.0586313
0.168618
0.063939
0.164203
0.0695869
0.159386
0.0756152
0.154121
0.0820699
0.148351
0.0890028
0.141999
0.0964719
0.10454
0.199697
0.00534683
0.199151
0.009765
0.198373
0.0139106
0.197368
0.0179303
0.19614
0.0218915
0.194688
0.025848
0.193012
0.0298458
0.191109
0.0339258
0.188973
0.0381251
0.1866
0.0424778
0.183983
0.0470143
0.18111
0.0517659
0.177969
0.0567667
0.174544
0.0620525
0.170817
0.0676611
0.166764
0.0736337
0.162354
0.0800169
0.157552
0.0868648
0.152307
0.0942401
0.146556
0.102215
0.110872
0.199713
0.00563712
0.199199
0.010284
0.198471
0.0146455
0.197533
0.018876
0.196389
0.0230445
0.19504
0.0272064
0.193485
0.0314093
0.191724
0.0356955
0.189753
0.0401034
0.187569
0.044668
0.185166
0.0494209
0.182536
0.0543969
0.17967
0.059632
0.176557
0.0651628
0.173183
0.0710304
0.169533
0.0772782
0.165586
0.0839577
0.161315
0.0911284
0.156688
0.0988596
0.151662
0.107234
0.116347
0.199731
0.199251
0.198574
0.0153278
0.197706
0.0197514
0.19665
0.0241091
0.195408
0.0284574
0.193981
0.0328454
0.192369
0.0373166
0.19057
0.0419099
0.188583
0.0466611
0.186404
0.0516038
0.18403
0.0567733
0.181455
0.062207
0.178673
0.0679432
0.175678
0.0740218
0.172462
0.0804885
0.169018
0.0873962
0.165334
0.0948058
0.161398
0.102788
0.157197
0.111428
0.120826
0.206298
0.205475
0.020581
0.204478
0.0251148
0.20331
0.0296353
0.201972
0.0341928
0.200466
0.0388313
0.198793
0.0435904
0.196955
0.0485063
0.19495
0.0536136
0.192778
0.0589478
0.190439
0.0645463
0.187935
0.0704462
0.185268
0.0766861
0.182441
0.0833115
0.179459
0.0903733
0.176329
0.0979292
0.173066
0.106045
0.169688
0.114799
0.124282
0.210659
0.209745
0.0260375
0.208677
0.0307119
0.207461
0.0354189
0.206098
0.0402029
0.204593
0.0451035
0.20295
0.050157
0.20117
0.055398
0.19926
0.0608618
0.197225
0.0665833
0.195073
0.0725972
0.192817
0.0789406
0.19047
0.0856551
0.188053
0.0927861
0.185593
0.100384
0.183129
0.108503
0.180717
0.117205
0.12656
0.215166
0.214212
0.0316746
0.213131
0.0365091
0.211929
0.0414146
0.210611
0.0464302
0.209183
0.0515916
0.207655
0.0569326
0.206034
0.0624863
0.204335
0.0682851
0.202572
0.0743605
0.200766
0.0807454
0.198943
0.0874753
0.197138
0.0945872
0.195397
0.10212
0.193782
0.110113
0.192375
0.118606
0.12764
0.219915
0.218984
0.0374494
0.217957
0.0424504
0.216844
0.0475524
0.215653
0.0527899
0.214397
0.0581946
0.213091
0.0637971
0.211753
0.069626
0.210406
0.0757085
0.209079
0.0820719
0.207809
0.0887436
0.206643
0.0957505
0.205641
0.103118
0.204882
0.110867
0.204466
0.119017
0.127574
0.225019
0.224183
0.0432955
0.22329
0.0484537
0.222354
0.0537336
0.221391
0.0591646
0.22042
0.0647736
0.219464
0.0705849
0.218554
0.0766205
0.217726
0.0829009
0.217024
0.0894445
0.216505
0.096267
0.21624
0.10338
0.216315
0.110788
0.216839
0.118488
0.126465
0.230604
0.229947
0.229281
0.0544072
0.228626
0.0598264
0.228006
0.0653997
0.227448
0.0711466
0.226988
0.0770834
0.226667
0.083223
0.226536
0.089575
0.226658
0.0961441
0.227106
0.102929
0.227971
0.109921
0.229357
0.117098
0.124428
0.236425
0.23609
0.060168
0.235831
0.0656645
0.23568
0.0713024
0.235675
0.077092
0.23586
0.0830391
0.236291
0.0891444
0.237032
0.095403
0.238156
0.101803
0.239751
0.108323
0.241914
0.114932
0.121579
0.243767
0.243875
0.244132
0.0710501
0.244578
0.0766491
0.245261
0.0823591
0.246233
0.0881726
0.24756
0.0940764
0.249312
0.100051
0.251568
0.106065
0.254417
0.112082
0.118039
0.252774
0.253662
0.254822
0.0812019
0.256308
0.0866885
0.25818
0.0922053
0.260502
0.0977277
0.263347
0.10322
0.266788
0.108639
0.113922
0.264501
0.266467
0.0847252
0.268838
0.0898354
0.271672
0.0948941
0.275029
0.0998633
0.27897
0.104697
0.10934
0.276667
0.279487
0.28277
0.0916119
0.286564
0.0960696
0.290916
0.100346
0.104391
0.293753
0.297913
0.302597
0.0956625
0.0991574
0.313998
)
;

boundaryField
{
    inlet
    {
        type            calculated;
        value           nonuniform List<scalar> 
15
(
-0.2
-0.2
-0.2
-0.2
-0.2
-0.2
-0.2
-0.2
-0.2
-0.2
-0.2
-0.2
-0.2
-0.2
-0.2
)
;
    }
    outlet
    {
        type            calculated;
        value           nonuniform 0();
    }
    flap
    {
        type            calculated;
        value           nonuniform 0();
    }
    upperWall
    {
        type            calculated;
        value           nonuniform 0();
    }
    lowerWall
    {
        type            calculated;
        value           uniform 0;
    }
    frontAndBack
    {
        type            empty;
        value           nonuniform 0();
    }
    procBoundary3to0
    {
        type            processor;
        value           nonuniform List<scalar> 
34
(
0.0059094
0.0107676
-0.206942
0.0159766
-0.211417
0.021345
-0.215988
0.0268666
-0.220743
0.0325111
-0.225788
0.0382265
-0.231237
0.0439363
0.0491192
-0.236808
0.0547983
-0.243774
0.0601817
0.0655625
-0.252113
0.0703938
0.0757651
-0.262888
0.0795916
-0.274261
0.0823216
0.0870166
-0.290083
0.0879435
0.0919102
-0.309052
0.0907175
0.0937112
)
;
    }
    procBoundary3to1
    {
        type            processor;
        value           nonuniform List<scalar> 9(0.217943 0.23139 0.244759 0.257954 0.270903 0.283551 0.295864 0.307831 0.319445);
    }
    procBoundary3to4
    {
        type            processor;
        value           nonuniform List<scalar> 
19
(
0.0818725
0.099354
0.107548
0.111953
0.114702
0.116805
0.118794
0.120978
0.12356
0.126688
0.130468
0.134968
0.140216
0.14618
0.15271
0.166225
0.178432
0.191289
0.204526
)
;
    }
}


// ************************************************************************* //
