/*--------------------------------*- C++ -*----------------------------------*\
| =========                 |                                                 |
| \\      /  F ield         | OpenFOAM: The Open Source CFD Toolbox           |
|  \\    /   O peration     | Version:  dev                                   |
|   \\  /    A nd           | Web:      www.OpenFOAM.org                      |
|    \\/     M anipulation  |                                                 |
\*---------------------------------------------------------------------------*/
FoamFile
{
    version     2.0;
    format      ascii;
    class       volVectorField;
    location    "0.59";
    object      Force;
}
// * * * * * * * * * * * * * * * * * * * * * * * * * * * * * * * * * * * * * //

dimensions      [1 1 -2 0 0 0 0];

internalField   uniform (0 0 0);

boundaryField
{
    inlet
    {
        type            calculated;
        value           nonuniform 0();
    }
    outlet
    {
        type            calculated;
        value           nonuniform 0();
    }
    flap
    {
        type            calculated;
        value           nonuniform List<vector> 
33
(
(3.3567 -2.9504e-22 -0.261748)
(3.26163 4.22662e-18 -0.534069)
(3.17192 1.80009e-17 -0.726784)
(3.08111 8.46373e-18 -0.822399)
(3.00348 7.92505e-18 -0.829221)
(2.94878 7.26898e-18 -0.760644)
(2.91574 -4.70198e-38 -0.644757)
(2.89555 1.01577e-22 -0.502075)
(2.87553 1.47226e-17 -0.344021)
(2.84751 -1.6787e-17 -0.188005)
(2.79971 -1.41445e-22 -0.0504642)
(2.71303 -4.70033e-19 0.053792)
(2.55629 2.30135e-22 0.114935)
(2.26331 -2.38838e-22 0.132491)
(1.65477 -7.34684e-40 0.103078)
(-0.0391647 1.35366e-19 0.803166)
(-0.0404699 1.58723e-17 0.626779)
(-0.0194841 -8.67264e-23 0.375661)
(-0.0581007 0 0.00456164)
(-0.0614817 1.83671e-40 0.0103106)
(-0.0621796 1.47572e-17 0.0148153)
(-0.0531758 1.56268e-17 0.015203)
(-0.0261432 3.7837e-23 0.00875658)
(0.0262885 -3.61402e-23 -0.00461295)
(0.106682 1.75004e-17 -0.0207429)
(0.208396 -1.93227e-22 -0.0327613)
(0.315539 0 -0.0341817)
(0.406148 7.86308e-23 -0.0230534)
(0.461192 -1.75905e-17 -0.00475217)
(0.47425 -4.32992e-23 0.0124757)
(0.451249 3.20999e-23 0.0230368)
(0.405419 1.64553e-17 0.0258973)
(0.350702 1.62284e-17 0.0226436)
)
;
    }
    upperWall
    {
        type            calculated;
        value           nonuniform 0();
    }
    lowerWall
    {
        type            calculated;
        value           uniform (0 0 0);
    }
    frontAndBack
    {
        type            empty;
    }
    procBoundary4to1
    {
        type            processor;
        value           uniform (0 0 0);
    }
    procBoundary4to2
    {
        type            processor;
        value           uniform (0 0 0);
    }
    procBoundary4to3
    {
        type            processor;
        value           uniform (0 0 0);
    }
    procBoundary4to5
    {
        type            processor;
        value           uniform (0 0 0);
    }
}


// ************************************************************************* //
