/*--------------------------------*- C++ -*----------------------------------*\
| =========                 |                                                 |
| \\      /  F ield         | OpenFOAM: The Open Source CFD Toolbox           |
|  \\    /   O peration     | Version:  dev                                   |
|   \\  /    A nd           | Web:      www.OpenFOAM.org                      |
|    \\/     M anipulation  |                                                 |
\*---------------------------------------------------------------------------*/
FoamFile
{
    version     2.0;
    format      ascii;
    class       pointVectorField;
    location    "0.59";
    object      pointDisplacement;
}
// * * * * * * * * * * * * * * * * * * * * * * * * * * * * * * * * * * * * * //

dimensions      [0 1 0 0 0 0 0];

internalField   nonuniform List<vector> 
1062
(
(0.03686 0 0)
(0.0326593 0 0)
(0.028236 0 0)
(0.0236688 0 0)
(0.0190603 0 0)
(0.014547 0 0)
(0.0103159 0 0)
(0.00663886 0 0)
(0.00399651 0 0)
(0 0 0)
(0.0373486 0 0.00039488)
(0.033222 0 0.000505607)
(0.0288833 0 0.000637045)
(0.0244127 0 0.000792454)
(0.0199158 0 0.000975452)
(0.0155341 0 0.00118958)
(0.0114642 0 0.00143652)
(0.00798891 0 0.00171049)
(0.00558451 0 0.00197975)
(0.00243626 0 0.00244505)
(0.0388034 0 0.000764442)
(0.0348968 0 0.00097851)
(0.0308081 0 0.00123131)
(0.0266221 0 0.00152798)
(0.0224496 0 0.00187359)
(0.0184421 0 0.00227184)
(0.0148158 0 0.0027211)
(0.0118697 0 0.0032024)
(0.0100484 0 0.00364914)
(0.00759528 0 0.00431044)
(0.0411859 0 0.00108289)
(0.0376366 0 0.00138566)
(0.0339531 0 0.0017403)
(0.0302256 0 0.00215175)
(0.0265698 0 0.00262343)
(0.0231384 0 0.00315504)
(0.0201591 0 0.00373606)
(0.017934 0 0.0043293)
(0.0168416 0 0.00484072)
(0.0151891 0 0.00552177)
(0.0444301 0 0.00132653)
(0.0413593 0 0.00169733)
(0.0382153 0 0.00212709)
(0.0350936 0 0.00261857)
(0.0321135 0 0.00317095)
(0.0294209 0 0.00377721)
(0.0272226 0 0.00441529)
(0.0258039 0 0.00503137)
(0.025472 0 0.00551933)
(0.0245504 0 0.00612114)
(0.0484672 0 0.00147809)
(0.0459791 0 0.00189275)
(0.0434849 0 0.00236723)
(0.0410818 0 0.00290072)
(0.0388878 0 0.00348682)
(0.0370398 0 0.0041105)
(0.0356991 0 0.0047399)
(0.0351041 0 0.00531247)
(0.0354905 0 0.00572426)
(0.0351937 0 0.00621775)
(0.0532124 0 0.00152612)
(0.051393 0 0.00195915)
(0.0496358 0 0.00244727)
(0.0480337 0 0.00298545)
(0.0466937 0 0.00356162)
(0.0457346 0 0.0041535)
(0.0452754 0 0.0047239)
(0.0454865 0 0.00520998)
(0.0465163 0 0.00551981)
(0.0467479 0 0.0059047)
(0.0585532 0 0.00146413)
(0.0574683 0 0.0018904)
(0.056512 0 0.00236268)
(0.0557671 0 0.00287191)
(0.0553216 0 0.00340127)
(0.055264 0 0.00392386)
(0.0556729 0 0.00440121)
(0.0566419 0 0.00477588)
(0.0582259 0 0.00497386)
(0.0589116 0 0.00524488)
(0.0643585 0 0.00129136)
(0.0640529 0 0.0016876)
(0.063938 0 0.00211789)
(0.0640821 0 0.0025701)
(0.0645488 0 0.00302444)
(0.0653895 0 0.00345223)
(0.0666329 0 0.00381667)
(0.0682917 0 0.00406926)
(0.070334 0 0.00415658)
(0.0713966 0 0.00431313)
(0.0704812 0 0.00101272)
(0.0709769 0 0.00135845)
(0.0717195 0 0.001725)
(0.0727614 0 0.0020985)
(0.0741383 0 0.00245838)
(0.0758591 0 0.002777)
(0.0778965 0 0.00302165)
(0.0801781 0 0.00315442)
(0.0825889 0 0.00314193)
(0.0839392 0 0.00318884)
(0.0767641 0 0.000637936)
(0.0780561 0 0.000916276)
(0.0796453 0 0.00120217)
(0.0815693 0 0.00148156)
(0.0838361 0 0.00173547)
(0.0864113 0 0.00194027)
(0.0892075 0 0.00206975)
(0.0920637 0 0.00209697)
(0.0947791 0 0.00200481)
(0.0963411 0 0.00195691)
(0.0830423 0 0.000180751)
(0.0850946 0 0.000378997)
(0.087489 0 0.000572133)
(0.0902511 0 0.000747432)
(0.0933663 0 0.000889843)
(0.0967635 0 0.000982892)
(0.100299 0 0.00101012)
(0.103722 0 0.000956001)
(0.106731 0 0.00081279)
(0.10849 0 0.000703516)
(0.0891483 0 -0.000341618)
(0.0918918 0 -0.0002318)
(0.0950145 0 -0.000139065)
(0.0985346 0 -7.38378e-05)
(0.102425 0 -4.55893e-05)
(0.106594 0 -6.08173e-05)
(0.11086 0 -0.00012172)
(0.114894 0 -0.00022905)
(0.11827 0 -0.00038842)
(0.120363 0 -0.000510273)
(0.0949202 0 -0.000909337)
(0.0982524 0 -0.000891681)
(0.101987 0 -0.000902717)
(0.106139 0 -0.000950704)
(0.110679 0 -0.00103983)
(0.115517 0 -0.00116612)
(0.120473 0 -0.00131339)
(0.125186 0 -0.0014573)
(0.129096 0 -0.00159778)
(0.132019 0 -0.00164462)
(0.100212 0 -0.0015007)
(0.104002 0 -0.00157407)
(0.108193 0 -0.00168743)
(0.112797 0 -0.00184839)
(0.117786 0 -0.00205937)
(0.123085 0 -0.00231189)
(0.128547 0 -0.00257679)
(0.133856 0 -0.00279123)
(0.138444 0 -0.00290589)
(0.143543 0 -0.00269154)
(0.104948 0 -0.00209881)
(0.109045 0 -0.00225752)
(0.113509 0 -0.0024662)
(0.118339 0 -0.00273373)
(0.123499 0 -0.00306621)
(0.128912 0 -0.00346515)
(0.134438 0 -0.00392583)
(0.139805 0 -0.00443822)
(0.144626 0 -0.00506713)
(0.155075 0 -0.00369962)
(0.03686 0 0)
(0.0326593 0 0)
(0.028236 0 0)
(0.0236688 0 0)
(0.0190603 0 0)
(0.014547 0 0)
(0.0103159 0 0)
(0.00663886 0 0)
(0.00399651 0 0)
(0 0 0)
(0.0373486 0 0.00039488)
(0.033222 0 0.000505607)
(0.0288833 0 0.000637045)
(0.0244127 0 0.000792454)
(0.0199158 0 0.000975452)
(0.0155341 0 0.00118958)
(0.0114642 0 0.00143652)
(0.00798891 0 0.00171049)
(0.00558451 0 0.00197975)
(0.00243626 0 0.00244505)
(0.0388034 0 0.000764442)
(0.0348968 0 0.00097851)
(0.0308081 0 0.00123131)
(0.0266221 0 0.00152798)
(0.0224496 0 0.00187359)
(0.0184421 0 0.00227184)
(0.0148158 0 0.0027211)
(0.0118697 0 0.0032024)
(0.0100484 0 0.00364914)
(0.00759528 0 0.00431044)
(0.0411859 0 0.00108289)
(0.0376366 0 0.00138566)
(0.0339531 0 0.0017403)
(0.0302256 0 0.00215175)
(0.0265698 0 0.00262343)
(0.0231384 0 0.00315504)
(0.0201591 0 0.00373606)
(0.017934 0 0.0043293)
(0.0168416 0 0.00484072)
(0.0151891 0 0.00552177)
(0.0444301 0 0.00132653)
(0.0413593 0 0.00169733)
(0.0382153 0 0.00212709)
(0.0350936 0 0.00261857)
(0.0321135 0 0.00317095)
(0.0294209 0 0.00377721)
(0.0272226 0 0.00441529)
(0.0258039 0 0.00503137)
(0.025472 0 0.00551933)
(0.0245504 0 0.00612114)
(0.0484672 0 0.00147809)
(0.0459791 0 0.00189275)
(0.0434849 0 0.00236723)
(0.0410818 0 0.00290072)
(0.0388878 0 0.00348682)
(0.0370398 0 0.0041105)
(0.0356991 0 0.0047399)
(0.0351041 0 0.00531247)
(0.0354905 0 0.00572426)
(0.0351937 0 0.00621775)
(0.0532124 0 0.00152612)
(0.051393 0 0.00195915)
(0.0496358 0 0.00244727)
(0.0480337 0 0.00298545)
(0.0466937 0 0.00356162)
(0.0457346 0 0.0041535)
(0.0452754 0 0.0047239)
(0.0454865 0 0.00520998)
(0.0465163 0 0.00551981)
(0.0467479 0 0.0059047)
(0.0585532 0 0.00146413)
(0.0574683 0 0.0018904)
(0.056512 0 0.00236268)
(0.0557671 0 0.00287191)
(0.0553216 0 0.00340127)
(0.055264 0 0.00392386)
(0.0556729 0 0.00440121)
(0.0566419 0 0.00477588)
(0.0582259 0 0.00497386)
(0.0589116 0 0.00524488)
(0.0643585 0 0.00129136)
(0.0640529 0 0.0016876)
(0.063938 0 0.00211789)
(0.0640821 0 0.0025701)
(0.0645488 0 0.00302444)
(0.0653895 0 0.00345223)
(0.0666329 0 0.00381667)
(0.0682917 0 0.00406926)
(0.070334 0 0.00415658)
(0.0713966 0 0.00431313)
(0.0704812 0 0.00101272)
(0.0709769 0 0.00135845)
(0.0717195 0 0.001725)
(0.0727614 0 0.0020985)
(0.0741383 0 0.00245838)
(0.0758591 0 0.002777)
(0.0778965 0 0.00302165)
(0.0801781 0 0.00315442)
(0.0825889 0 0.00314193)
(0.0839392 0 0.00318884)
(0.0767641 0 0.000637936)
(0.0780561 0 0.000916276)
(0.0796453 0 0.00120217)
(0.0815693 0 0.00148156)
(0.0838361 0 0.00173547)
(0.0864113 0 0.00194027)
(0.0892075 0 0.00206975)
(0.0920637 0 0.00209697)
(0.0947791 0 0.00200481)
(0.0963411 0 0.00195691)
(0.0830423 0 0.000180751)
(0.0850946 0 0.000378997)
(0.087489 0 0.000572133)
(0.0902511 0 0.000747432)
(0.0933663 0 0.000889843)
(0.0967635 0 0.000982892)
(0.100299 0 0.00101012)
(0.103722 0 0.000956001)
(0.106731 0 0.00081279)
(0.10849 0 0.000703516)
(0.0891483 0 -0.000341618)
(0.0918918 0 -0.0002318)
(0.0950145 0 -0.000139065)
(0.0985346 0 -7.38378e-05)
(0.102425 0 -4.55893e-05)
(0.106594 0 -6.08173e-05)
(0.11086 0 -0.00012172)
(0.114894 0 -0.00022905)
(0.11827 0 -0.00038842)
(0.120363 0 -0.000510273)
(0.0949202 0 -0.000909337)
(0.0982524 0 -0.000891681)
(0.101987 0 -0.000902717)
(0.106139 0 -0.000950704)
(0.110679 0 -0.00103983)
(0.115517 0 -0.00116612)
(0.120473 0 -0.00131339)
(0.125186 0 -0.0014573)
(0.129096 0 -0.00159778)
(0.132019 0 -0.00164462)
(0.100212 0 -0.0015007)
(0.104002 0 -0.00157407)
(0.108193 0 -0.00168743)
(0.112797 0 -0.00184839)
(0.117786 0 -0.00205937)
(0.123085 0 -0.00231189)
(0.128547 0 -0.00257679)
(0.133856 0 -0.00279123)
(0.138444 0 -0.00290589)
(0.143543 0 -0.00269154)
(0.104948 0 -0.00209881)
(0.109045 0 -0.00225752)
(0.113509 0 -0.0024662)
(0.118339 0 -0.00273373)
(0.123499 0 -0.00306621)
(0.128912 0 -0.00346515)
(0.134438 0 -0.00392583)
(0.139805 0 -0.00443822)
(0.144626 0 -0.00506713)
(0.155075 0 -0.00369962)
(0 0 0)
(0.00483921 0 0)
(0.00881113 0 0)
(0.0145668 0 0)
(0.0214388 0 0)
(0.0288425 0 0)
(0.036315 0 0)
(0.0435218 0 0)
(0.0502367 0 0)
(0.0563167 0 0)
(0.0616769 0 0)
(0.00223911 0 -0.00252543)
(0.00639069 0 -0.00234303)
(0.0102932 0 -0.00232621)
(0.0159405 0 -0.00227122)
(0.0226895 0 -0.00220024)
(0.0299618 0 -0.00211799)
(0.0373 0 -0.00202456)
(0.0443773 0 -0.00192217)
(0.0509725 0 -0.00181387)
(0.0569451 0 -0.00170269)
(0.0622095 0 -0.00159184)
(0.0071158 0 -0.00472581)
(0.0107943 0 -0.00453955)
(0.0145562 0 -0.0045289)
(0.0199309 0 -0.00444498)
(0.0263413 0 -0.00432175)
(0.0332347 0 -0.00416891)
(0.040183 0 -0.00399037)
(0.0468849 0 -0.00379229)
(0.0531318 0 -0.00358147)
(0.0587894 0 -0.00336421)
(0.0637731 0 -0.00314563)
(0.0143773 0 -0.0066667)
(0.017548 0 -0.00653371)
(0.0211636 0 -0.00654992)
(0.0261733 0 -0.00646344)
(0.0320829 0 -0.00630817)
(0.0383972 0 -0.00609861)
(0.0447481 0 -0.00584685)
(0.0508704 0 -0.00556397)
(0.0565752 0 -0.00526082)
(0.0617383 0 -0.00494723)
(0.0662823 0 -0.00463157)
(0.0234213 0 -0.00841722)
(0.0261618 0 -0.00834485)
(0.0296245 0 -0.0083892)
(0.0342113 0 -0.00830932)
(0.0395125 0 -0.0081339)
(0.0451154 0 -0.0078809)
(0.0507236 0 -0.00756866)
(0.0561132 0 -0.00721316)
(0.0611234 0 -0.00682929)
(0.0656488 0 -0.0064305)
(0.0696208 0 -0.00602888)
(0.0337987 0 -0.0100449)
(0.0361795 0 -0.0100061)
(0.0394739 0 -0.0100665)
(0.0436 0 -0.00998854)
(0.0482317 0 -0.00979588)
(0.0530457 0 -0.00950794)
(0.0578143 0 -0.00914531)
(0.0623625 0 -0.00872783)
(0.0665659 0 -0.00827411)
(0.0703442 0 -0.00780115)
(0.0736355 0 -0.00732243)
(0.0451502 0 -0.0115773)
(0.0472133 0 -0.0115387)
(0.0503094 0 -0.0115987)
(0.0539447 0 -0.0115123)
(0.0578694 0 -0.0112988)
(0.0618461 0 -0.0109777)
(0.0657129 0 -0.01057)
(0.0693482 0 -0.0100982)
(0.0726687 0 -0.00958379)
(0.0756215 0 -0.0090467)
(0.0781569 0 -0.00850149)
(0.0571785 0 -0.0129992)
(0.0589312 0 -0.0129456)
(0.0617864 0 -0.0129921)
(0.0649001 0 -0.0128872)
(0.0680892 0 -0.0126468)
(0.0711961 0 -0.0122902)
(0.0741223 0 -0.0118391)
(0.0768023 0 -0.0113184)
(0.0791956 0 -0.0107512)
(0.0812736 0 -0.0101585)
(0.0830142 0 -0.00955813)
(0.0696004 0 -0.0142914)
(0.071043 0 -0.0142215)
(0.0736094 0 -0.0142476)
(0.0761675 0 -0.0141167)
(0.0785914 0 -0.0138422)
(0.0808011 0 -0.0134453)
(0.0827631 0 -0.0129503)
(0.0844691 0 -0.0123844)
(0.0859204 0 -0.0117722)
(0.0871129 0 -0.011134)
(0.0880509 0 -0.0104891)
(0.0821445 0 -0.0154356)
(0.0832984 0 -0.0153648)
(0.0855281 0 -0.0153678)
(0.0874865 0 -0.0152031)
(0.0891051 0 -0.0148847)
(0.0903882 0 -0.0144404)
(0.0913726 0 -0.0138998)
(0.0921069 0 -0.0132926)
(0.0926305 0 -0.0126436)
(0.092963 0 -0.0119717)
(0.0931161 0 -0.0112938)
(0.0945932 0 -0.0164397)
(0.0954967 0 -0.0163873)
(0.0973306 0 -0.0163605)
(0.098618 0 -0.0161464)
(0.0993702 0 -0.0157688)
(0.0996932 0 -0.0152684)
(0.0996991 0 -0.0146815)
(0.0994868 0 -0.0140386)
(0.0991238 0 -0.0133624)
(0.0986448 0 -0.012669)
(0.0980588 0 -0.0119709)
(0.106813 0 -0.0173488)
(0.107484 0 -0.0173105)
(0.108817 0 -0.01723)
(0.109309 0 -0.0169358)
(0.109109 0 -0.0164783)
(0.108445 0 -0.0159153)
(0.107495 0 -0.0152862)
(0.106392 0 -0.0146177)
(0.105213 0 -0.0139269)
(0.103996 0 -0.0132253)
(0.102744 0 -0.012521)
(0.118758 0 -0.0182165)
(0.119105 0 -0.0181448)
(0.119725 0 -0.0179545)
(0.119234 0 -0.0175344)
(0.117996 0 -0.0169806)
(0.116351 0 -0.0163596)
(0.114515 0 -0.0157029)
(0.112619 0 -0.0150261)
(0.110731 0 -0.0143376)
(0.108878 0 -0.0136429)
(0.107054 0 -0.0129465)
(0.130464 0 -0.0190992)
(0.130035 0 -0.0188372)
(0.12959 0 -0.0184443)
(0.127921 0 -0.0178633)
(0.125634 0 -0.0172263)
(0.123108 0 -0.0165775)
(0.120529 0 -0.0159237)
(0.117993 0 -0.0152644)
(0.11554 0 -0.0145988)
(0.113178 0 -0.0139277)
(0.110892 0 -0.0132529)
(0.142013 0 -0.0200319)
(0.139353 0 -0.0191494)
(0.137547 0 -0.0184862)
(0.134745 0 -0.0178037)
(0.131628 0 -0.0171669)
(0.128471 0 -0.0165567)
(0.125384 0 -0.0159521)
(0.12241 0 -0.0153417)
(0.119565 0 -0.0147211)
(0.116839 0 -0.0140898)
(0.114212 0 -0.0134496)
(0.153556 0 -0.0210124)
(0.145413 0 -0.0178295)
(0.142603 0 -0.0176037)
(0.139262 0 -0.0172197)
(0.135819 0 -0.016781)
(0.132415 0 -0.0163086)
(0.129106 0 -0.0158065)
(0.125915 0 -0.0152765)
(0.122849 0 -0.0147213)
(0.119899 0 -0.0141444)
(0.117044 0 -0.0135497)
(0 0 0)
(0.00483921 0 0)
(0.00881113 0 0)
(0.0145668 0 0)
(0.0214388 0 0)
(0.0288425 0 0)
(0.036315 0 0)
(0.0435218 0 0)
(0.0502367 0 0)
(0.0563167 0 0)
(0.0616769 0 0)
(0.00223911 0 -0.00252543)
(0.00639069 0 -0.00234303)
(0.0102932 0 -0.00232621)
(0.0159405 0 -0.00227122)
(0.0226895 0 -0.00220024)
(0.0299618 0 -0.00211799)
(0.0373 0 -0.00202456)
(0.0443773 0 -0.00192217)
(0.0509725 0 -0.00181387)
(0.0569451 0 -0.00170269)
(0.0622095 0 -0.00159184)
(0.0071158 0 -0.00472581)
(0.0107943 0 -0.00453955)
(0.0145562 0 -0.0045289)
(0.0199309 0 -0.00444498)
(0.0263413 0 -0.00432175)
(0.0332347 0 -0.00416891)
(0.040183 0 -0.00399037)
(0.0468849 0 -0.00379229)
(0.0531318 0 -0.00358147)
(0.0587894 0 -0.00336421)
(0.0637731 0 -0.00314563)
(0.0143773 0 -0.0066667)
(0.017548 0 -0.00653371)
(0.0211636 0 -0.00654992)
(0.0261733 0 -0.00646344)
(0.0320829 0 -0.00630817)
(0.0383972 0 -0.00609861)
(0.0447481 0 -0.00584685)
(0.0508704 0 -0.00556397)
(0.0565752 0 -0.00526082)
(0.0617383 0 -0.00494723)
(0.0662823 0 -0.00463157)
(0.0234213 0 -0.00841722)
(0.0261618 0 -0.00834485)
(0.0296245 0 -0.0083892)
(0.0342113 0 -0.00830932)
(0.0395125 0 -0.0081339)
(0.0451154 0 -0.0078809)
(0.0507236 0 -0.00756866)
(0.0561132 0 -0.00721316)
(0.0611234 0 -0.00682929)
(0.0656488 0 -0.0064305)
(0.0696208 0 -0.00602888)
(0.0337987 0 -0.0100449)
(0.0361795 0 -0.0100061)
(0.0394739 0 -0.0100665)
(0.0436 0 -0.00998854)
(0.0482317 0 -0.00979588)
(0.0530457 0 -0.00950794)
(0.0578143 0 -0.00914531)
(0.0623625 0 -0.00872783)
(0.0665659 0 -0.00827411)
(0.0703442 0 -0.00780115)
(0.0736355 0 -0.00732243)
(0.0451502 0 -0.0115773)
(0.0472133 0 -0.0115387)
(0.0503094 0 -0.0115987)
(0.0539447 0 -0.0115123)
(0.0578694 0 -0.0112988)
(0.0618461 0 -0.0109777)
(0.0657129 0 -0.01057)
(0.0693482 0 -0.0100982)
(0.0726687 0 -0.00958379)
(0.0756215 0 -0.0090467)
(0.0781569 0 -0.00850149)
(0.0571785 0 -0.0129992)
(0.0589312 0 -0.0129456)
(0.0617864 0 -0.0129921)
(0.0649001 0 -0.0128872)
(0.0680892 0 -0.0126468)
(0.0711961 0 -0.0122902)
(0.0741223 0 -0.0118391)
(0.0768023 0 -0.0113184)
(0.0791956 0 -0.0107512)
(0.0812736 0 -0.0101585)
(0.0830142 0 -0.00955813)
(0.0696004 0 -0.0142914)
(0.071043 0 -0.0142215)
(0.0736094 0 -0.0142476)
(0.0761675 0 -0.0141167)
(0.0785914 0 -0.0138422)
(0.0808011 0 -0.0134453)
(0.0827631 0 -0.0129503)
(0.0844691 0 -0.0123844)
(0.0859204 0 -0.0117722)
(0.0871129 0 -0.011134)
(0.0880509 0 -0.0104891)
(0.0821445 0 -0.0154356)
(0.0832984 0 -0.0153648)
(0.0855281 0 -0.0153678)
(0.0874865 0 -0.0152031)
(0.0891051 0 -0.0148847)
(0.0903882 0 -0.0144404)
(0.0913726 0 -0.0138998)
(0.0921069 0 -0.0132926)
(0.0926305 0 -0.0126436)
(0.092963 0 -0.0119717)
(0.0931161 0 -0.0112938)
(0.0945932 0 -0.0164397)
(0.0954967 0 -0.0163873)
(0.0973306 0 -0.0163605)
(0.098618 0 -0.0161464)
(0.0993702 0 -0.0157688)
(0.0996932 0 -0.0152684)
(0.0996991 0 -0.0146815)
(0.0994868 0 -0.0140386)
(0.0991238 0 -0.0133624)
(0.0986448 0 -0.012669)
(0.0980588 0 -0.0119709)
(0.106813 0 -0.0173488)
(0.107484 0 -0.0173105)
(0.108817 0 -0.01723)
(0.109309 0 -0.0169358)
(0.109109 0 -0.0164783)
(0.108445 0 -0.0159153)
(0.107495 0 -0.0152862)
(0.106392 0 -0.0146177)
(0.105213 0 -0.0139269)
(0.103996 0 -0.0132253)
(0.102744 0 -0.012521)
(0.118758 0 -0.0182165)
(0.119105 0 -0.0181448)
(0.119725 0 -0.0179545)
(0.119234 0 -0.0175344)
(0.117996 0 -0.0169806)
(0.116351 0 -0.0163596)
(0.114515 0 -0.0157029)
(0.112619 0 -0.0150261)
(0.110731 0 -0.0143376)
(0.108878 0 -0.0136429)
(0.107054 0 -0.0129465)
(0.130464 0 -0.0190992)
(0.130035 0 -0.0188372)
(0.12959 0 -0.0184443)
(0.127921 0 -0.0178633)
(0.125634 0 -0.0172263)
(0.123108 0 -0.0165775)
(0.120529 0 -0.0159237)
(0.117993 0 -0.0152644)
(0.11554 0 -0.0145988)
(0.113178 0 -0.0139277)
(0.110892 0 -0.0132529)
(0.142013 0 -0.0200319)
(0.139353 0 -0.0191494)
(0.137547 0 -0.0184862)
(0.134745 0 -0.0178037)
(0.131628 0 -0.0171669)
(0.128471 0 -0.0165567)
(0.125384 0 -0.0159521)
(0.12241 0 -0.0153417)
(0.119565 0 -0.0147211)
(0.116839 0 -0.0140898)
(0.114212 0 -0.0134496)
(0.153556 0 -0.0210124)
(0.145413 0 -0.0178295)
(0.142603 0 -0.0176037)
(0.139262 0 -0.0172197)
(0.135819 0 -0.016781)
(0.132415 0 -0.0163086)
(0.129106 0 -0.0158065)
(0.125915 0 -0.0152765)
(0.122849 0 -0.0147213)
(0.119899 0 -0.0141444)
(0.117044 0 -0.0135497)
(0.109089 0 -0.00269014)
(0.113335 0 -0.00292407)
(0.117878 0 -0.00321482)
(0.122695 0 -0.00357257)
(0.127724 0 -0.00400791)
(0.132862 0 -0.00453476)
(0.137941 0 -0.00518005)
(0.142701 0 -0.00600311)
(0.146867 0 -0.00716379)
(0.150088 0 -0.00885369)
(0.112561 0 -0.00325474)
(0.116811 0 -0.00354995)
(0.121264 0 -0.00390457)
(0.125874 0 -0.00432859)
(0.130556 0 -0.00483351)
(0.135186 0 -0.0054358)
(0.139589 0 -0.00616133)
(0.143526 0 -0.00704967)
(0.146754 0 -0.00817794)
(0.148861 0 -0.009532)
(0.115357 0 -0.00377823)
(0.119499 0 -0.00411989)
(0.123748 0 -0.00451974)
(0.128042 0 -0.00498664)
(0.13229 0 -0.00553056)
(0.136365 0 -0.00616413)
(0.140105 0 -0.00690198)
(0.143317 0 -0.00776454)
(0.145831 0 -0.00879577)
(0.147329 0 -0.00990534)
(0.117531 0 -0.00425464)
(0.121493 0 -0.00462918)
(0.125477 0 -0.00505823)
(0.129415 0 -0.00554843)
(0.133215 0 -0.00610607)
(0.136761 0 -0.00673733)
(0.13992 0 -0.0074487)
(0.14256 0 -0.00825143)
(0.144564 0 -0.00916573)
(0.145718 0 -0.0100741)
(0.122896 0 -0.00507672)
(0.12659 0 -0.00552125)
(0.130165 0 -0.00601776)
(0.133537 0 -0.00656888)
(0.136613 0 -0.00717691)
(0.139296 0 -0.00784463)
(0.141498 0 -0.00857605)
(0.14314 0 -0.00937441)
(0.14408 0 -0.010125)
(0.130422 0 -0.00639953)
(0.133409 0 -0.00693155)
(0.136088 0 -0.00750637)
(0.138389 0 -0.00812356)
(0.140254 0 -0.00878165)
(0.141634 0 -0.00947548)
(0.14243 0 -0.0101038)
(0.135294 0 -0.00774504)
(0.137289 0 -0.00830993)
(0.138892 0 -0.00889828)
(0.140075 0 -0.00950196)
(0.140766 0 -0.0100347)
(0.137446 0 -0.00894681)
(0.138477 0 -0.00947418)
(0.139087 0 -0.00993122)
(0.109089 0 -0.00269014)
(0.113335 0 -0.00292407)
(0.117878 0 -0.00321482)
(0.122695 0 -0.00357257)
(0.127724 0 -0.00400791)
(0.132862 0 -0.00453476)
(0.137941 0 -0.00518005)
(0.142701 0 -0.00600311)
(0.146867 0 -0.00716379)
(0.150088 0 -0.00885369)
(0.112561 0 -0.00325474)
(0.116811 0 -0.00354995)
(0.121264 0 -0.00390457)
(0.125874 0 -0.00432859)
(0.130556 0 -0.00483351)
(0.135186 0 -0.0054358)
(0.139589 0 -0.00616133)
(0.143526 0 -0.00704967)
(0.146754 0 -0.00817794)
(0.148861 0 -0.009532)
(0.115357 0 -0.00377823)
(0.119499 0 -0.00411989)
(0.123748 0 -0.00451974)
(0.128042 0 -0.00498664)
(0.13229 0 -0.00553056)
(0.136365 0 -0.00616413)
(0.140105 0 -0.00690198)
(0.143317 0 -0.00776454)
(0.145831 0 -0.00879577)
(0.147329 0 -0.00990534)
(0.117531 0 -0.00425464)
(0.121493 0 -0.00462918)
(0.125477 0 -0.00505823)
(0.129415 0 -0.00554843)
(0.133215 0 -0.00610607)
(0.136761 0 -0.00673733)
(0.13992 0 -0.0074487)
(0.14256 0 -0.00825143)
(0.144564 0 -0.00916573)
(0.145718 0 -0.0100741)
(0.122896 0 -0.00507672)
(0.12659 0 -0.00552125)
(0.130165 0 -0.00601776)
(0.133537 0 -0.00656888)
(0.136613 0 -0.00717691)
(0.139296 0 -0.00784463)
(0.141498 0 -0.00857605)
(0.14314 0 -0.00937441)
(0.14408 0 -0.010125)
(0.130422 0 -0.00639953)
(0.133409 0 -0.00693155)
(0.136088 0 -0.00750637)
(0.138389 0 -0.00812356)
(0.140254 0 -0.00878165)
(0.141634 0 -0.00947548)
(0.14243 0 -0.0101038)
(0.135294 0 -0.00774504)
(0.137289 0 -0.00830993)
(0.138892 0 -0.00889828)
(0.140075 0 -0.00950196)
(0.140766 0 -0.0100347)
(0.137446 0 -0.00894681)
(0.138477 0 -0.00947418)
(0.139087 0 -0.00993122)
(0.154592 0 -0.00950051)
(0.154092 0 -0.0152092)
(0.151509 0 -0.0107593)
(0.151398 0 -0.012659)
(0.150042 0 -0.0144975)
(0.14969 0 -0.0108113)
(0.149716 0 -0.0119747)
(0.14906 0 -0.0132848)
(0.147877 0 -0.0108263)
(0.147964 0 -0.0116039)
(0.14766 0 -0.0125368)
(0.146142 0 -0.0107707)
(0.146252 0 -0.0113383)
(0.146113 0 -0.0120303)
(0.14444 0 -0.010674)
(0.144559 0 -0.0111127)
(0.144503 0 -0.0116486)
(0.142748 0 -0.0105504)
(0.142871 0 -0.0109031)
(0.142862 0 -0.011333)
(0.141054 0 -0.0104066)
(0.141176 0 -0.0106981)
(0.141195 0 -0.011053)
(0.139349 0 -0.0102464)
(0.139467 0 -0.0104923)
(0.139504 0 -0.0107913)
(0.137627 0 -0.0100714)
(0.137741 0 -0.010282)
(0.137787 0 -0.0105378)
(0.154592 0 -0.00950051)
(0.154092 0 -0.0152092)
(0.151509 0 -0.0107593)
(0.151398 0 -0.012659)
(0.150042 0 -0.0144975)
(0.14969 0 -0.0108113)
(0.149716 0 -0.0119747)
(0.14906 0 -0.0132848)
(0.147877 0 -0.0108263)
(0.147964 0 -0.0116039)
(0.14766 0 -0.0125368)
(0.146142 0 -0.0107707)
(0.146252 0 -0.0113383)
(0.146113 0 -0.0120303)
(0.14444 0 -0.010674)
(0.144559 0 -0.0111127)
(0.144503 0 -0.0116486)
(0.142748 0 -0.0105504)
(0.142871 0 -0.0109031)
(0.142862 0 -0.011333)
(0.141054 0 -0.0104066)
(0.141176 0 -0.0106981)
(0.141195 0 -0.011053)
(0.139349 0 -0.0102464)
(0.139467 0 -0.0104923)
(0.139504 0 -0.0107913)
(0.137627 0 -0.0100714)
(0.137741 0 -0.010282)
(0.137787 0 -0.0105378)
(0.14761 0 -0.0157609)
(0.144818 0 -0.016252)
(0.141708 0 -0.0163244)
(0.138441 0 -0.0161717)
(0.135133 0 -0.0158883)
(0.131849 0 -0.0155202)
(0.128627 0 -0.0150914)
(0.125485 0 -0.0146164)
(0.122428 0 -0.0141053)
(0.147518 0 -0.0144849)
(0.145316 0 -0.0151678)
(0.142727 0 -0.0154557)
(0.139862 0 -0.0154992)
(0.136837 0 -0.015377)
(0.133738 0 -0.0151382)
(0.130621 0 -0.014814)
(0.127518 0 -0.0144249)
(0.124447 0 -0.0139852)
(0.146665 0 -0.0135503)
(0.144976 0 -0.0142773)
(0.142857 0 -0.0146729)
(0.14041 0 -0.0148384)
(0.137728 0 -0.014835)
(0.134893 0 -0.0147041)
(0.131964 0 -0.0144747)
(0.128983 0 -0.0141679)
(0.125974 0 -0.0137992)
(0.145448 0 -0.0128582)
(0.144162 0 -0.0135441)
(0.142436 0 -0.0139795)
(0.14036 0 -0.0142161)
(0.13801 0 -0.0142951)
(0.135456 0 -0.0142476)
(0.13275 0 -0.0140977)
(0.129935 0 -0.013864)
(0.12704 0 -0.0135613)
(0.144046 0 -0.0123255)
(0.143058 0 -0.0129387)
(0.141649 0 -0.0133711)
(0.139889 0 -0.0136416)
(0.137838 0 -0.0137731)
(0.135551 0 -0.0137865)
(0.133074 0 -0.0136999)
(0.130444 0 -0.0135282)
(0.12769 0 -0.0132844)
(0.142539 0 -0.011893)
(0.141768 0 -0.0124297)
(0.14061 0 -0.0128365)
(0.139112 0 -0.0131155)
(0.13732 0 -0.0132766)
(0.135276 0 -0.0133318)
(0.133017 0 -0.0132932)
(0.130575 0 -0.0131721)
(0.127975 0 -0.0129788)
(0.140962 0 -0.011523)
(0.140349 0 -0.0119895)
(0.139387 0 -0.0123613)
(0.138104 0 -0.0126333)
(0.136533 0 -0.0128074)
(0.134704 0 -0.012889)
(0.132646 0 -0.0128853)
(0.130383 0 -0.0128039)
(0.127937 0 -0.0126526)
(0.139333 0 -0.0111911)
(0.138837 0 -0.0115967)
(0.138026 0 -0.0119315)
(0.136917 0 -0.012188)
(0.135531 0 -0.0123638)
(0.133889 0 -0.0124601)
(0.132011 0 -0.0124804)
(0.129915 0 -0.0124292)
(0.127618 0 -0.0123118)
(0.13766 0 -0.0108816)
(0.13725 0 -0.0112354)
(0.136556 0 -0.0115346)
(0.135588 0 -0.0117715)
(0.134356 0 -0.011942)
(0.132873 0 -0.0120447)
(0.131153 0 -0.0120803)
(0.129209 0 -0.0120512)
(0.127053 0 -0.0119604)
(0.135947 0 -0.0105841)
(0.1356 0 -0.0108939)
(0.134998 0 -0.0111603)
(0.134141 0 -0.0113764)
(0.133036 0 -0.0115374)
(0.131689 0 -0.0116406)
(0.130108 0 -0.0116851)
(0.128299 0 -0.0116713)
(0.126271 0 -0.0116011)
(0.132598 0 -0.0109959)
(0.131596 0 -0.0111451)
(0.130363 0 -0.0112449)
(0.1289 0 -0.0112934)
(0.127212 0 -0.0112899)
(0.1253 0 -0.0112349)
(0.128917 0 -0.0108544)
(0.127555 0 -0.0109034)
(0.125971 0 -0.0109061)
(0.124163 0 -0.0108622)
(0.124599 0 -0.0105186)
(0.122883 0 -0.0104824)
(0.14761 0 -0.0157609)
(0.144818 0 -0.016252)
(0.141708 0 -0.0163244)
(0.138441 0 -0.0161717)
(0.135133 0 -0.0158883)
(0.131849 0 -0.0155202)
(0.128627 0 -0.0150914)
(0.125485 0 -0.0146164)
(0.122428 0 -0.0141053)
(0.147518 0 -0.0144849)
(0.145316 0 -0.0151678)
(0.142727 0 -0.0154557)
(0.139862 0 -0.0154992)
(0.136837 0 -0.015377)
(0.133738 0 -0.0151382)
(0.130621 0 -0.014814)
(0.127518 0 -0.0144249)
(0.124447 0 -0.0139852)
(0.146665 0 -0.0135503)
(0.144976 0 -0.0142773)
(0.142857 0 -0.0146729)
(0.14041 0 -0.0148384)
(0.137728 0 -0.014835)
(0.134893 0 -0.0147041)
(0.131964 0 -0.0144747)
(0.128983 0 -0.0141679)
(0.125974 0 -0.0137992)
(0.145448 0 -0.0128582)
(0.144162 0 -0.0135441)
(0.142436 0 -0.0139795)
(0.14036 0 -0.0142161)
(0.13801 0 -0.0142951)
(0.135456 0 -0.0142476)
(0.13275 0 -0.0140977)
(0.129935 0 -0.013864)
(0.12704 0 -0.0135613)
(0.144046 0 -0.0123255)
(0.143058 0 -0.0129387)
(0.141649 0 -0.0133711)
(0.139889 0 -0.0136416)
(0.137838 0 -0.0137731)
(0.135551 0 -0.0137865)
(0.133074 0 -0.0136999)
(0.130444 0 -0.0135282)
(0.12769 0 -0.0132844)
(0.142539 0 -0.011893)
(0.141768 0 -0.0124297)
(0.14061 0 -0.0128365)
(0.139112 0 -0.0131155)
(0.13732 0 -0.0132766)
(0.135276 0 -0.0133318)
(0.133017 0 -0.0132932)
(0.130575 0 -0.0131721)
(0.127975 0 -0.0129788)
(0.140962 0 -0.011523)
(0.140349 0 -0.0119895)
(0.139387 0 -0.0123613)
(0.138104 0 -0.0126333)
(0.136533 0 -0.0128074)
(0.134704 0 -0.012889)
(0.132646 0 -0.0128853)
(0.130383 0 -0.0128039)
(0.127937 0 -0.0126526)
(0.139333 0 -0.0111911)
(0.138837 0 -0.0115967)
(0.138026 0 -0.0119315)
(0.136917 0 -0.012188)
(0.135531 0 -0.0123638)
(0.133889 0 -0.0124601)
(0.132011 0 -0.0124804)
(0.129915 0 -0.0124292)
(0.127618 0 -0.0123118)
(0.13766 0 -0.0108816)
(0.13725 0 -0.0112354)
(0.136556 0 -0.0115346)
(0.135588 0 -0.0117715)
(0.134356 0 -0.011942)
(0.132873 0 -0.0120447)
(0.131153 0 -0.0120803)
(0.129209 0 -0.0120512)
(0.127053 0 -0.0119604)
(0.135947 0 -0.0105841)
(0.1356 0 -0.0108939)
(0.134998 0 -0.0111603)
(0.134141 0 -0.0113764)
(0.133036 0 -0.0115374)
(0.131689 0 -0.0116406)
(0.130108 0 -0.0116851)
(0.128299 0 -0.0116713)
(0.126271 0 -0.0116011)
(0.132598 0 -0.0109959)
(0.131596 0 -0.0111451)
(0.130363 0 -0.0112449)
(0.1289 0 -0.0112934)
(0.127212 0 -0.0112899)
(0.1253 0 -0.0112349)
(0.128917 0 -0.0108544)
(0.127555 0 -0.0109034)
(0.125971 0 -0.0109061)
(0.124163 0 -0.0108622)
(0.124599 0 -0.0105186)
(0.122883 0 -0.0104824)
)
;

boundaryField
{
    inlet
    {
        type            fixedValue;
        value           nonuniform 0();
    }
    outlet
    {
        type            fixedValue;
        value           nonuniform 0();
    }
    flap
    {
        type            fixedValue;
        value           nonuniform List<vector> 
68
(
(0 0 0)
(0.00243626 0 0.00244505)
(0.00243626 0 0.00244505)
(0 0 0)
(0.00759528 0 0.00431044)
(0.00759528 0 0.00431044)
(0.0151891 0 0.00552177)
(0.0151891 0 0.00552177)
(0.0245504 0 0.00612114)
(0.0245504 0 0.00612114)
(0.0351937 0 0.00621775)
(0.0351937 0 0.00621775)
(0.0467479 0 0.0059047)
(0.0467479 0 0.0059047)
(0.0589116 0 0.00524488)
(0.0589116 0 0.00524488)
(0.0713966 0 0.00431313)
(0.0713966 0 0.00431313)
(0.0839392 0 0.00318884)
(0.0839392 0 0.00318884)
(0.0963411 0 0.00195691)
(0.0963411 0 0.00195691)
(0.10849 0 0.000703516)
(0.10849 0 0.000703516)
(0.120363 0 -0.000510273)
(0.120363 0 -0.000510273)
(0.132019 0 -0.00164462)
(0.132019 0 -0.00164462)
(0.143543 0 -0.00269154)
(0.143543 0 -0.00269154)
(0.155075 0 -0.00369962)
(0.155075 0 -0.00369962)
(0.154592 0 -0.00950051)
(0.154592 0 -0.00950051)
(0.154092 0 -0.0152092)
(0.154092 0 -0.0152092)
(0.153556 0 -0.0210124)
(0.153556 0 -0.0210124)
(0 0 0)
(0 0 0)
(0.00223911 0 -0.00252543)
(0.00223911 0 -0.00252543)
(0.0071158 0 -0.00472581)
(0.0071158 0 -0.00472581)
(0.0143773 0 -0.0066667)
(0.0143773 0 -0.0066667)
(0.0234213 0 -0.00841722)
(0.0234213 0 -0.00841722)
(0.0337987 0 -0.0100449)
(0.0337987 0 -0.0100449)
(0.0451502 0 -0.0115773)
(0.0451502 0 -0.0115773)
(0.0571785 0 -0.0129992)
(0.0571785 0 -0.0129992)
(0.0696004 0 -0.0142914)
(0.0696004 0 -0.0142914)
(0.0821445 0 -0.0154356)
(0.0821445 0 -0.0154356)
(0.0945932 0 -0.0164397)
(0.0945932 0 -0.0164397)
(0.106813 0 -0.0173488)
(0.106813 0 -0.0173488)
(0.118758 0 -0.0182165)
(0.118758 0 -0.0182165)
(0.130464 0 -0.0190992)
(0.130464 0 -0.0190992)
(0.142013 0 -0.0200319)
(0.142013 0 -0.0200319)
)
;
    }
    upperWall
    {
        type            slip;
    }
    lowerWall
    {
        type            slip;
    }
    frontAndBack
    {
        type            empty;
    }
    procBoundary4to1
    {
        type            processor;
    }
    procBoundary4to2
    {
        type            processor;
    }
    procBoundary4to3
    {
        type            processor;
    }
    procBoundary4to5
    {
        type            processor;
    }
}


// ************************************************************************* //
