/*--------------------------------*- C++ -*----------------------------------*\
| =========                 |                                                 |
| \\      /  F ield         | OpenFOAM: The Open Source CFD Toolbox           |
|  \\    /   O peration     | Version:  dev                                   |
|   \\  /    A nd           | Web:      www.OpenFOAM.org                      |
|    \\/     M anipulation  |                                                 |
\*---------------------------------------------------------------------------*/
FoamFile
{
    version     2.0;
    format      ascii;
    class       volVectorField;
    location    "0.15";
    object      Force;
}
// * * * * * * * * * * * * * * * * * * * * * * * * * * * * * * * * * * * * * //

dimensions      [1 1 -2 0 0 0 0];

internalField   uniform (0 0 0);

boundaryField
{
    inlet
    {
        type            calculated;
        value           nonuniform 0();
    }
    outlet
    {
        type            calculated;
        value           nonuniform 0();
    }
    flap
    {
        type            calculated;
        value           nonuniform List<vector> 
33
(
(2.32331 0 -0.027908)
(2.31456 1.65301e-17 -0.0433323)
(2.30184 -2.28463e-23 -0.0505512)
(2.28329 1.92927e-22 -0.0477266)
(2.25874 -1.57107e-22 -0.0388603)
(2.22716 -1.62082e-17 -0.0274198)
(2.18679 1.62088e-17 -0.0161969)
(2.13475 7.87669e-24 -0.00656859)
(2.06663 -2.18692e-20 -2.56058e-05)
(1.97639 6.16438e-24 0.00311732)
(1.85496 -4.90754e-21 0.00367924)
(1.68709 1.63542e-17 0.00300384)
(1.44334 4.34066e-41 0.00283591)
(1.05546 2.94699e-40 0.00471266)
(0.318455 -6.67561e-21 0.00756647)
(0.00702172 2.08192e-20 1.97516)
(0.00490448 -1.85528e-20 1.7602)
(0.00378199 1.48637e-20 1.40759)
(2.01639 -2.36562e-40 -0.0228261)
(2.03026 -4.83284e-39 -0.0375873)
(2.05399 -3.47979e-19 -0.0444241)
(2.08846 1.63818e-17 -0.0431396)
(2.13365 4.1326e-40 -0.0364925)
(2.19008 -1.84578e-19 -0.026816)
(2.25738 1.64609e-17 -0.0164194)
(2.33295 -9.84107e-20 -0.00705082)
(2.41117 -1.63939e-17 -0.000479945)
(2.48365 1.63594e-17 0.00300855)
(2.5394 -5.14131e-40 0.00334399)
(2.56598 -1.04356e-23 0.00111764)
(2.55212 1.1413e-23 -0.000845346)
(2.48956 3.63842e-25 -0.00154391)
(2.37773 1.63338e-17 -0.00192879)
)
;
    }
    upperWall
    {
        type            calculated;
        value           nonuniform 0();
    }
    lowerWall
    {
        type            calculated;
        value           uniform (0 0 0);
    }
    frontAndBack
    {
        type            empty;
    }
    procBoundary4to1
    {
        type            processor;
        value           uniform (0 0 0);
    }
    procBoundary4to2
    {
        type            processor;
        value           uniform (0 0 0);
    }
    procBoundary4to3
    {
        type            processor;
        value           uniform (0 0 0);
    }
    procBoundary4to5
    {
        type            processor;
        value           uniform (0 0 0);
    }
}


// ************************************************************************* //
