/*--------------------------------*- C++ -*----------------------------------*\
| =========                 |                                                 |
| \\      /  F ield         | OpenFOAM: The Open Source CFD Toolbox           |
|  \\    /   O peration     | Version:  dev                                   |
|   \\  /    A nd           | Web:      www.OpenFOAM.org                      |
|    \\/     M anipulation  |                                                 |
\*---------------------------------------------------------------------------*/
FoamFile
{
    version     2.0;
    format      ascii;
    class       volScalarField;
    location    "0.15";
    object      p;
}
// * * * * * * * * * * * * * * * * * * * * * * * * * * * * * * * * * * * * * //

dimensions      [0 2 -2 0 0 0 0];

internalField   nonuniform List<scalar> 
2790
(
73.4877
73.3777
73.6028
74.1328
74.8703
75.7761
76.8464
78.0815
79.477
81.0266
82.7236
84.5608
86.53
88.6219
90.8258
93.1285
95.5144
97.9639
100.453
102.954
105.43
107.845
110.152
112.305
114.258
115.964
117.386
118.494
119.272
119.728
73.2981
73.2869
73.5365
74.0649
74.7994
75.7024
76.769
77.9989
79.3885
80.9315
82.6215
84.4513
86.4129
88.4972
90.6935
92.9892
95.3688
97.8136
100.3
102.801
105.283
107.706
110.027
112.2
114.176
115.91
117.361
118.498
119.301
119.814
73.105
73.1645
73.4335
73.9526
74.6748
75.5659
76.6187
77.8325
79.2036
80.7264
82.3943
84.2003
86.1365
88.1939
90.3621
92.6289
94.9797
97.3965
99.8578
102.337
104.802
107.217
109.54
111.726
113.726
115.494
116.988
118.173
119.019
119.572
72.8901
72.982
73.2633
73.7738
74.4818
75.3574
76.3921
77.584
78.9296
80.4234
82.0589
83.829
85.726
87.741
89.864
92.0834
94.3853
96.7533
99.1674
101.603
104.032
106.419
108.725
110.908
112.921
114.715
116.247
117.476
118.361
118.983
72.643
72.7495
73.039
73.5422
74.2345
75.0902
76.1006
77.2635
78.5751
80.03
81.6216
83.3429
85.1862
87.1428
89.2031
91.356
93.5888
95.8865
98.2309
100.6
102.968
105.304
107.572
109.732
111.74
113.548
115.109
116.378
117.301
117.988
72.3592
72.4716
72.7635
73.2571
73.9303
74.7611
75.7415
76.8686
78.1385
79.5455
81.0829
82.7437
84.52
86.4032
88.3839
90.4518
92.5951
94.8001
97.0506
99.3273
101.607
103.864
106.065
108.175
110.152
111.951
113.524
114.824
115.777
116.518
72.037
72.1503
72.4394
72.9203
73.5713
74.3731
75.3182
76.4034
77.6242
78.9746
80.448
82.0367
83.7329
85.5278
87.4123
89.3765
91.4093
93.4982
95.6288
97.7841
99.9445
102.087
104.184
106.205
108.115
109.871
111.428
112.741
113.717
114.512
71.6759
71.7871
72.069
72.534
73.16
73.9286
74.8334
75.8706
77.0353
78.3211
79.7208
81.2267
82.8302
84.5226
86.2947
88.1365
90.0375
91.986
93.9686
95.9705
97.9744
99.9608
101.908
103.79
105.579
107.242
108.739
110.033
111.022
111.917
71.2764
71.3835
71.6549
72.1009
72.6985
73.4304
74.2901
75.2737
76.3757
77.5893
78.9067
80.3194
81.8186
83.395
85.0388
86.7401
88.488
90.2709
92.0761
93.8894
95.6951
97.4762
99.2147
100.891
102.486
103.977
105.339
106.552
107.51
108.468
70.8395
70.941
71.1993
71.6233
72.1897
72.8812
73.6916
74.6166
75.65
76.7844
78.0113
79.3216
80.7057
82.1534
83.6543
85.1975
86.7715
88.3639
89.9612
91.5485
93.1099
94.6286
96.0881
97.4729
98.7703
99.9723
101.073
102.088
102.931
103.957
70.3666
70.4616
70.7045
71.104
71.6365
72.2845
73.0417
73.9035
74.863
75.9121
77.0414
78.241
79.5001
80.8078
82.1522
83.5213
84.9018
86.2795
87.6387
88.962
90.2302
91.4234
92.5217
93.5077
94.3703
95.1106
95.7452
96.3415
96.8848
98.0282
69.8597
69.9472
70.1731
70.5459
71.0419
71.6436
72.3443
73.1389
74.02
74.9784
76.004
77.0856
78.2116
79.3693
80.5455
81.7261
82.8956
84.0367
85.1297
86.1523
87.0788
87.8807
88.5276
88.9897
89.2428
89.279
89.119
88.8723
88.5872
89.2957
69.3207
69.4001
69.6076
69.9518
70.4093
70.9622
71.6036
72.3278
73.1265
73.9898
74.9066
75.8645
76.8504
77.8502
78.8486
79.829
80.7728
81.6586
82.4614
83.1511
83.6918
84.0406
84.1466
83.9517
83.3927
82.4116
80.9708
79.1413
76.9732
76.6042
68.7519
68.8226
69.0106
69.3248
69.742
70.2442
70.824
71.475
72.1884
72.9533
73.7574
74.5871
75.4279
76.2637
77.0772
77.8488
78.5562
79.1731
79.6674
79.9998
80.1206
79.9666
79.4568
78.4859
76.9167
74.5728
71.2232
66.6107
59.726
48.6682
68.1556
68.2174
68.385
68.668
69.0435
69.4934
70.0098
70.5858
71.2117
71.8757
72.5644
73.263
73.9553
74.6235
75.2477
75.8053
76.2701
76.6102
76.7862
76.7478
76.4299
75.7458
74.5775
72.7595
70.0515
66.0916
60.3063
51.9258
40.2841
25.8993
-104.825
-105.476
-106.491
-107.817
-109.307
-110.716
-111.691
-111.784
-110.504
-107.407
-102.213
-94.8842
-85.703
-75.238
-64.2228
-53.3828
-43.2859
-34.2736
-26.106
-18.8807
-13.1184
-8.67299
-5.34587
-2.93809
-1.2635
-0.160388
0.503316
0.829592
0.891393
0.738648
-105.14
-105.801
-106.865
-108.279
-109.892
-111.454
-112.596
-112.85
-111.695
-108.667
-103.48
-96.1096
-86.8441
-76.2617
-65.1094
-54.1286
-43.9059
-34.7599
-26.4717
-19.1761
-13.3595
-8.86902
-5.50502
-3.06698
-1.36734
-0.243237
0.438404
0.780667
0.858585
0.740065
-106.014
-106.78
-107.946
-109.509
-111.322
-113.127
-114.538
-115.05
-114.099
-111.177
-105.976
-98.4723
-88.973
-78.0963
-66.6335
-55.3633
-44.8951
-35.5126
-27.0088
-19.5737
-13.662
-9.10354
-5.69046
-3.21591
-1.48769
-0.339879
0.36265
0.724593
0.82268
0.736411
-107.604
-108.449
-109.756
-111.543
-113.66
-115.842
-117.67
-118.589
-117.966
-115.224
-110.01
-102.276
-92.3663
-80.9758
-68.9776
-57.2147
-46.3319
-36.5649
-27.7318
-20.1003
-14.0576
-9.40954
-5.93409
-3.41395
-1.64989
-0.471664
0.258451
0.646893
0.771618
0.721235
-109.852
-110.813
-112.315
-114.42
-116.975
-119.701
-122.134
-123.643
-123.503
-121.036
-115.804
-107.722
-97.1895
-85.03
-72.2392
-59.7524
-48.2614
-37.9361
-28.6461
-20.7597
-14.546
-9.78334
-6.22997
-3.6539
-1.84633
-0.631196
0.132517
0.553259
0.710028
0.699087
-112.769
-113.881
-115.65
-118.196
-121.359
-124.839
-128.111
-130.436
-130.959
-128.868
-123.586
-114.986
-103.572
-90.3492
-76.4796
-63.0167
-50.6999
-39.6206
-29.7495
-21.5532
-15.1296
-10.2272
-6.58023
-3.93782
-2.07892
-0.820295
-0.0169096
0.441937
0.636245
0.668762
-116.305
-117.629
-119.759
-122.89
-126.857
-131.332
-135.705
-139.098
-140.473
-138.841
-133.436
-124.095
-111.505
-96.9085
-81.6719
-66.983
-53.6043
-41.57
-31.0317
-22.475
-15.8053
-10.7399
-6.98429
-4.26517
-2.347
-1.03814
-0.188958
0.313702
0.550922
0.630644
-120.412
-121.981
-124.555
-128.414
-133.384
-139.098
-144.843
-149.556
-151.959
-150.842
-145.197
-134.852
-120.789
-104.531
-87.6731
-71.5398
-56.8464
-43.6946
-32.4787
-23.5113
-16.5644
-11.3168
-7.43989
-4.63473
-2.64975
-1.28406
-0.383094
0.168906
0.454211
0.584544
-124.975
-126.731
-129.8
-134.506
-140.646
-147.817
-155.179
-161.447
-165.03
-164.437
-158.41
-146.797
-131.006
-112.882
-94.2166
-76.4496
-60.2293
-45.9253
-34.0509
-24.6344
-17.3903
-11.9491
-7.94221
-5.04372
-2.98531
-1.55664
-0.598199
0.00836857
0.346636
0.530541
-129.318
-131.422
-135.055
-140.679
-148.097
-156.879
-166.05
-174.071
-178.949
-178.815
-172.27
-159.204
-141.538
-121.494
-100.929
-81.3488
-63.5594
-48.2185
-35.6702
-25.7997
-18.2586
-12.6229
-8.4835
-5.48751
-3.35061
-1.85366
-0.832602
-0.166713
0.228942
0.468878
-133.218
-135.567
-139.706
-146.235
-154.946
-165.394
-176.477
-186.365
-192.612
-192.786
-185.604
-171.168
-151.671
-129.758
-107.315
-85.8902
-66.7082
-50.4247
-37.2409
-26.9513
-19.137
-13.3199
-9.05291
-5.95931
-3.74107
-2.17184
-1.08392
-0.354661
0.102186
0.400068
-136.517
-138.532
-143.009
-150.337
-160.233
-172.245
-185.167
-196.848
-204.367
-204.837
-197.081
-181.618
-160.701
-136.939
-112.738
-89.7757
-69.4346
-52.3624
-38.6565
-28.0265
-19.9885
-14.0178
-9.63658
-6.44996
-4.15033
-2.50663
-1.34888
-0.553218
-0.0322132
0.32492
-136.903
-139.323
-144.207
-152.215
-163.078
-176.36
-190.808
-204.066
-212.791
-213.749
-205.573
-189.328
-167.353
-142.207
-116.619
-92.5823
-71.4565
-53.8583
-39.8127
-28.9625
-20.7748
-14.6923
-10.2182
-6.94813
-4.57025
-2.85208
-1.62319
-0.759383
-0.172327
0.244653
-137.098
-137.758
-142.837
-151.465
-163.094
-177.319
-192.886
-207.299
-216.86
-218.12
-209.749
-193.09
-170.504
-144.714
-118.495
-93.9882
-72.5525
-54.7717
-40.6218
-29.7043
-21.4601
-15.3192
-10.781
-7.44163
-4.99191
-3.2017
-1.90219
-0.969921
-0.316059
0.160677
-132.166
-132.895
-138.911
-148.149
-160.416
-175.28
-191.364
-206.068
-215.709
-216.963
-208.708
-192.249
-169.828
-144.188
-118.121
-93.808
-72.589
-55.0116
-41.0224
-30.2092
-22.0139
-15.8763
-11.3085
-7.91868
-5.40699
-3.54979
-2.18219
-1.18264
-0.462357
0.073498
67.5224
67.5749
67.7211
67.9714
68.3035
68.6992
69.1499
69.6482
70.1837
70.7436
71.3135
71.8773
72.4172
72.9134
73.3436
73.6822
73.8988
73.956
73.8069
73.3906
72.6267
71.4051
69.572
66.9024
63.0536
57.4747
49.1991
36.3459
14.0525
-47.5236
66.8452
66.8879
67.0117
67.2278
67.5145
67.8536
68.2361
68.6538
69.0957
69.5482
69.9957
70.421
70.8046
71.125
71.3575
71.4736
71.4391
71.2117
70.7378
69.9477
68.7484
67.0128
64.5616
61.1338
56.3318
49.5183
39.5885
24.5296
2.44912
-30.871
66.1292
66.1618
66.2624
66.4431
66.6831
66.964
67.2765
67.6118
67.9582
68.3014
68.6249
68.9101
69.1364
69.2806
69.316
69.2116
68.9303
68.4259
67.6403
66.4979
64.8993
62.7102
59.7464
55.7493
50.3515
43.0322
33.0967
19.6783
3.00961
-16.3652
65.3759
65.3982
65.4751
65.6195
65.8118
66.0336
66.275
66.5269
66.7771
67.0104
67.2096
67.3553
67.4258
67.3964
67.2391
66.9212
66.4036
65.638
64.5643
63.1056
61.1624
58.6051
55.2632
50.913
45.2666
37.9705
28.6432
16.8463
2.33338
-15.1888
64.5871
64.5989
64.6518
64.7596
64.9036
65.0657
65.2358
65.4042
65.5582
65.6824
65.7589
65.7676
65.686
65.4887
65.147
64.6272
63.8895
62.8858
61.5564
59.8272
57.605
54.7727
51.1841
46.6592
40.9824
33.9053
25.1599
14.4216
1.34249
-13.8803
63.765
63.7664
63.7952
63.8662
63.9619
64.0644
64.1634
64.249
64.3084
64.3255
64.2823
64.1583
63.9308
63.5742
63.0594
62.3532
61.4166
60.2028
58.6557
56.707
54.2737
51.2557
47.5335
42.9675
37.3993
30.6552
22.5576
12.9352
1.64945
-10.8908
62.9124
62.9035
62.9083
62.9427
62.9905
63.0341
63.0631
63.0677
63.0346
62.948
62.7896
62.5392
62.1741
61.669
60.9956
60.1217
59.0104
57.6181
55.8939
53.7776
51.1986
48.075
44.3136
39.8114
34.459
28.1475
20.7812
12.2965
2.65832
-7.80671
62.0325
62.0134
61.9947
61.9931
61.9937
61.9797
61.9406
61.8665
61.7444
61.5585
61.2911
60.9221
60.4294
59.7888
58.9733
57.9527
56.693
55.1552
53.2948
51.0607
48.3956
45.2354
41.5113
37.1518
32.0877
26.258
19.6202
12.1608
3.88584
-4.94424
61.1287
61.0999
61.0582
61.0215
60.9764
60.9065
60.8018
60.6523
60.4455
60.1661
59.7968
59.3184
58.7098
57.9481
57.0085
55.8633
54.4823
52.8317
50.874
48.5678
45.8684
42.7282
39.0993
34.9358
30.1978
24.857
18.9025
12.3484
5.22667
-2.24588
60.205
60.1668
60.1031
60.0325
59.9435
59.8202
59.653
59.4322
59.146
58.7796
58.3166
57.739
57.0271
56.1598
55.1147
53.8674
52.3918
50.6595
48.6403
46.3019
43.6112
40.535
37.0423
33.1064
28.7088
23.8425
18.516
12.7587
6.61538
0.26015
59.2659
59.2188
59.1341
59.0313
58.9004
58.7266
58.5006
58.2133
57.8535
57.4074
56.8598
56.194
55.392
54.435
53.3032
51.9757
50.4306
48.6452
46.5959
44.259
41.6113
38.6313
35.3014
31.6092
27.5505
23.1318
18.3728
13.3088
7.98733
2.54538
58.3161
58.2607
58.1562
58.0231
57.8529
57.6319
57.3512
57.0027
56.5758
56.058
55.4353
54.6926
53.814
52.7829
51.5825
50.1954
48.604
46.7907
44.7381
42.4299
39.8511
36.9897
33.8379
30.3934
26.6613
22.6561
18.4025
13.9367
9.30377
4.61116
57.3607
57.2977
57.1748
57.0134
56.8068
56.5421
56.2115
55.8073
55.3202
54.7389
54.0508
53.2427
52.3007
51.2108
49.9589
48.5311
46.9138
45.0942
43.0603
40.8018
38.3106
35.5817
32.6143
29.413
25.9887
22.3595
18.5518
14.6
10.5447
6.46971
56.405
56.3351
56.1954
56.0081
55.768
55.4637
55.0879
54.634
54.0938
53.4573
52.7136
51.8512
50.8586
49.724
48.4362
46.9845
45.359
43.551
41.5532
39.36
36.9686
34.3792
31.596
28.6276
25.4882
22.1975
18.7809
15.2699
11.6998
8.13592
55.4549
55.3788
55.2238
55.013
54.7428
54.4029
53.9869
53.4894
52.9031
52.2197
51.4298
50.524
49.4925
48.3262
47.0164
45.5554
43.9365
42.1544
40.2055
38.0882
35.8037
33.3556
30.7514
28.0023
25.1235
22.1347
19.0597
15.9262
12.7645
9.62561
54.516
54.4345
54.2661
54.0343
53.7372
53.3659
52.9148
52.3796
51.7543
51.032
50.205
49.2655
48.2061
47.0196
45.6999
44.2417
42.6411
40.8958
39.0051
36.9704
34.7955
32.4866
30.053
27.5071
24.8643
22.1434
19.3658
16.5557
13.7386
10.9544
53.5947
53.5085
53.3283
53.078
52.7574
52.3588
51.8777
51.3106
50.653
49.8993
49.0434
48.0795
47.0017
45.8051
44.4856
43.0401
41.4671
39.7664
37.9398
35.9908
33.9249
31.7501
29.4766
27.117
24.6863
22.2018
19.6827
17.1495
14.6237
12.1368
52.6971
52.607
52.4166
52.1504
51.8095
51.3876
50.8812
50.2879
49.6042
48.8261
47.9491
46.9687
45.8809
44.6826
43.3715
41.9464
40.4076
38.7568
36.9974
35.1343
33.1746
31.1268
29.0015
26.8112
24.5699
22.2933
19.9981
17.7022
15.4233
13.1863
51.8295
51.7363
51.5374
51.2576
50.8996
50.4583
49.9311
49.3167
48.6128
47.8166
46.925
45.9351
44.8444
43.6513
42.355
40.9559
39.4558
37.8578
36.1663
34.3876
32.529
30.5998
28.6103
26.5724
24.4992
22.4047
20.3035
18.2108
16.1414
14.1152
50.9986
50.9029
50.697
50.4058
50.0337
49.5764
49.0327
48.4018
47.6828
46.8741
45.9737
44.9802
43.8923
42.7097
41.433
40.0638
38.605
37.0606
35.4361
33.7381
31.9746
30.1546
28.2883
26.3868
24.462
22.5264
20.5928
18.674
16.7826
14.9342
50.2109
50.1132
49.9016
49.6012
49.2175
48.7477
48.191
47.5479
46.8184
46.0018
45.0975
44.105
43.0244
41.8563
40.6024
39.2652
37.8486
36.3572
34.7971
33.1752
31.4996
29.7792
28.0235
26.2431
24.4486
22.6511
20.8619
19.0917
17.3513
15.6533
49.473
49.374
49.1579
48.85
48.4571
47.9774
47.4111
46.7594
46.0231
45.2026
44.2982
43.3105
42.2403
41.0894
39.8601
38.5558
37.1808
35.7404
34.241
32.6896
31.0942
29.4633
27.8062
26.1323
24.4514
22.7734
21.108
19.4646
17.8521
16.2809
48.7918
48.6918
48.4721
48.1583
47.7581
47.271
46.6978
46.0404
45.3004
44.4791
43.5776
42.5972
41.5396
40.4072
39.2032
37.9313
36.5963
35.204
33.7606
32.2733
30.75
29.1988
27.6283
26.0474
24.4648
22.8893
21.3296
19.7937
18.2892
16.8246
48.1744
48.0735
47.8509
47.5321
47.1263
46.6337
46.0558
45.3951
44.6539
43.8341
42.9374
41.966
40.9222
39.8088
38.6295
37.3886
36.091
34.7427
33.35
31.9201
30.4606
28.9792
27.484
25.9831
24.4846
22.9964
21.526
20.0805
18.6666
17.2911
47.6278
47.5261
47.3008
46.9777
46.5673
46.0707
45.4898
44.8276
44.0867
43.2698
42.3793
41.4177
40.3877
39.2928
38.1369
36.9245
35.6609
34.352
33.0042
31.6245
30.2203
28.7989
27.3679
25.935
24.5074
23.0923
21.6965
20.3262
18.9871
17.6852
47.1599
47.0571
46.8284
46.5011
46.0871
45.5878
45.0052
44.3427
43.6035
42.7905
41.9065
40.9546
39.9379
38.8601
37.7253
36.5383
35.3045
34.0297
32.7205
31.3836
30.026
28.655
27.2776
25.9009
24.5318
23.1768
21.842
20.533
19.2549
18.0127
46.7793
46.674
46.4402
46.1079
45.6902
45.1885
44.6047
43.9423
43.2051
42.3962
41.5187
40.576
39.5713
38.5086
37.3922
36.2269
35.0182
33.772
32.4946
31.1926
29.8731
28.5427
27.2084
25.8768
24.5543
23.2469
21.9603
20.6996
19.4694
18.2739
46.4965
46.3848
46.1437
45.8072
45.3874
44.8843
44.2997
43.6377
42.9023
42.0969
41.2249
40.2897
39.2948
38.2444
37.1427
35.9947
34.8058
33.5819
32.3293
31.0544
29.7641
28.4648
27.1632
25.8657
24.5783
23.3067
22.0562
20.8316
19.6372
18.4768
46.3277
46.1901
45.9323
45.5913
45.1708
44.6672
44.0827
43.4218
42.6886
41.8867
41.0195
40.0905
39.1033
38.062
36.9711
35.8355
34.6607
33.4524
32.2168
30.9605
29.6901
28.4119
27.1324
25.8579
24.594
23.3465
22.1201
20.9196
19.749
18.6116
46.3139
46.1243
45.8417
45.4936
45.0699
44.5637
43.9773
43.3158
42.5833
41.7833
40.9191
39.9941
39.012
37.9769
36.893
35.7652
34.5989
33.3998
32.174
30.928
29.6682
28.4011
27.1331
25.8702
24.6182
23.3825
22.168
20.9792
19.8201
18.6937
-165.688
-186.998
-159.495
-60.3776
-70.9586
-78.4078
-38.8091
-54.1058
-66.8677
-36.5353
-51.0423
-62.3552
-30.4466
-41.8686
-51.4163
-23.9141
-33.1214
-41.1001
-18.4881
-26.0415
-32.5624
-13.7589
-19.9426
-25.2236
-9.53799
-14.6226
-18.9283
-5.81899
-10.0368
-13.5885
-2.56575
-6.09549
-9.05988
0.278406
-2.70152
-5.20398
2.76607
0.227977
-1.90747
4.94346
2.76265
0.92187
6.85087
4.96081
3.35879
8.52279
6.87068
5.46369
9.9885
8.53215
7.28557
11.2729
9.97829
8.86443
12.3971
11.2367
10.2331
13.3791
12.3303
11.4188
14.2342
13.2783
12.4438
14.9754
14.097
13.3268
15.6137
14.7997
14.0832
16.1586
15.3977
14.7258
16.6168
15.8994
15.2642
16.9961
16.3137
15.7078
17.2973
16.6423
16.0597
17.5305
16.8954
16.3297
17.6848
17.0634
16.5096
17.7796
17.1667
16.6184
-118.286
-126.084
-133.804
-143.091
-155.715
-170.773
-186.604
-200.71
-209.847
-211
-202.999
-187.09
-165.403
-140.618
-115.442
-91.9834
-71.5149
-54.5368
-40.9819
-30.4514
-22.416
-16.3481
-11.7894
-8.37123
-5.81012
-3.893
-2.46119
-1.39641
-0.610553
-0.0164617
-95.5441
-114.112
-125.461
-136.706
-150.051
-164.84
-179.698
-192.549
-200.66
-201.338
-193.285
-177.923
-157.335
-134.015
-110.426
-88.4696
-69.2806
-53.2973
-40.4529
-30.3884
-22.6299
-16.7048
-12.2003
-8.78167
-6.18838
-4.22203
-2.73266
-1.60673
-0.757781
-0.107056
-86.7518
-106.424
-118.968
-130.744
-143.956
-157.958
-171.435
-182.669
-188.94
-188.109
-179.682
-164.998
-145.959
-124.722
-103.362
-83.4747
-66.0165
-51.361
-39.46
-30.0187
-22.6413
-16.9276
-12.5228
-9.13395
-6.52881
-4.52701
-2.98945
-1.80877
-0.901231
-0.196814
-77.8585
-95.4488
-109.757
-122.745
-135.671
-148.416
-160.03
-168.936
-172.869
-170.405
-161.963
-148.625
-131.844
-113.332
-94.7414
-77.3503
-61.9428
-48.8474
-38.0559
-29.3559
-22.4439
-17.0022
-12.7407
-9.4132
-6.81901
-4.79815
-3.2242
-1.9973
-1.03749
-0.283697
-64.532
-80.0971
-95.1631
-109.098
-121.877
-133.447
-143.166
-149.732
-151.755
-148.764
-141.333
-130.14
-116.202
-100.823
-85.2782
-70.5725
-57.3504
-45.9178
-36.3189
-28.43
-22.0423
-16.9215
-12.8429
-9.60792
-7.04876
-5.02713
-3.43052
-2.16774
-1.1636
-0.366068
-51.7116
-64.6864
-78.6667
-92.0353
-103.947
-114.181
-122.273
-127.309
-128.592
-126.13
-120.306
-111.537
-100.544
-88.2868
-75.7203
-63.6238
-52.5321
-42.7376
-34.3348
-27.2799
-21.4494
-16.6851
-12.8231
-9.71001
-7.21004
-5.2069
-3.60273
-2.31583
-1.27676
-0.442324
-40.8868
-51.2295
-63.1375
-74.8786
-85.314
-94.1053
-100.919
-105.184
-106.515
-104.982
-100.818
-94.3195
-85.9961
-76.5293
-66.6191
-56.8662
-47.7152
-39.4435
-32.1809
-25.9458
-20.6835
-16.2988
-12.6803
-9.71516
-7.29743
-5.33215
-3.73623
-2.43798
-1.37447
-0.511066
-31.7993
-39.9815
-49.7344
-59.5754
-68.3944
-75.8321
-81.6522
-85.5108
-87.1415
-86.5278
-83.8098
-79.2133
-73.0996
-65.9454
-58.2591
-50.5023
-43.0415
-36.1316
-29.9202
-24.4668
-19.7665
-15.7732
-12.418
-9.62274
-7.30825
-5.39944
-3.82764
-2.53137
-1.4547
-0.571111
-24.2274
-30.7887
-38.7031
-46.8109
-54.1623
-60.4321
-65.4521
-69.0081
-70.8898
-71.0063
-69.4231
-66.311
-61.9282
-56.6082
-50.7185
-44.6114
-38.5851
-32.8656
-27.6028
-22.8791
-18.7226
-15.1227
-12.0436
-9.43551
-7.24244
-5.40727
-3.87494
-2.59402
-1.51589
-0.621526
-17.9456
-23.3126
-29.7771
-36.4568
-42.5842
-47.8869
-52.2419
-55.5052
-57.5085
-58.133
-57.3876
-55.3917
-52.3292
-48.4338
-43.971
-39.2072
-34.3818
-29.6888
-25.27
-21.2169
-17.5773
-14.3646
-11.5676
-9.15911
-7.10234
-5.35598
-3.87743
-2.62489
-1.55705
-0.66167
-12.7042
-17.1798
-22.5289
-28.0791
-33.2226
-37.7395
-41.5376
-44.5126
-46.5319
-47.4794
-47.3294
-46.1565
-44.0889
-41.2905
-37.9526
-34.2753
-30.4477
-26.6321
-22.9564
-19.5119
-16.3562
-13.5178
-11.003
-8.8016
-6.89245
-5.24767
-3.83577
-2.62385
-1.57775
-0.691209
-8.29639
-12.0915
-16.5819
-21.2479
-25.6091
-29.4906
-32.8226
-35.5259
-37.4971
-38.6347
-38.8968
-38.3239
-37.0023
-35.0464
-32.5929
-29.7912
-26.7885
-23.7179
-20.6906
-17.7926
-15.084
-12.6019
-10.3641
-8.37276
-6.61901
-5.08599
-3.75183
-2.59169
-1.57815
-0.710115
-4.56445
-7.82849
-11.6498
-15.6207
-19.3588
-22.7256
-25.668
-28.1246
-30.015
-31.2545
-31.7959
-31.657
-30.8935
-29.5835
-27.8245
-25.7266
-23.4032
-20.9617
-18.4962
-16.084
-13.7838
-11.6362
-9.66587
-7.88362
-6.28961
-4.87587
-3.62858
-2.53002
-1.55898
-0.718659
-1.3863
-4.22795
-7.52072
-10.94
-14.1786
-17.1265
-19.7431
-21.9799
-23.777
-25.0632
-25.7895
-25.9621
-25.6148
-24.7997
-23.5852
-22.052
-20.2863
-18.3734
-16.3914
-14.4076
-12.4766
-10.6393
-8.9236
-7.34589
-5.91283
-4.62324
-3.46992
-2.44118
-1.52144
-0.717374
1.33353
-1.16702
-4.03677
-7.01403
-9.84929
-12.4545
-14.7987
-16.8437
-18.5432
-19.8394
-20.6861
-21.0809
-21.0433
-20.607
-19.8191
-18.7381
-17.4289
-15.9582
-14.3899
-12.7812
-11.1811
-9.62837
-8.15204
-6.77153
-5.49784
-4.33481
-3.28044
-2.32814
-1.4672
-0.707029
3.67022
1.44853
-1.07885
-3.69842
-6.20544
-8.52881
-10.645
-12.5239
-14.1276
-15.4103
-16.3321
-16.8844
-17.0766
-16.9299
-16.4759
-15.7564
-14.8199
-13.718
-12.5018
-11.2193
-9.91319
-8.6191
-7.36526
-6.17237
-5.05408
-4.01773
-3.0653
-2.19432
-1.39827
-0.688579
5.68364
3.69221
1.44459
-0.883038
-3.1209
-5.21098
-7.1353
-8.87008
-10.384
-11.6401
-12.6054
-13.2677
-13.6298
-13.7039
-13.511
-13.0802
-12.4472
-11.6515
-10.7337
-9.73329
-8.68659
-7.62545
-6.5763
-5.55981
-4.59097
-3.67942
-2.83
-2.04351
-1.31695
-0.663133
7.4219
5.62215
3.60499
1.51746
-0.498134
-2.39398
-4.15627
-5.76605
-7.19737
-8.42022
-9.40723
-10.145
-10.6319
-10.8742
-10.885
-10.6843
-10.298
-9.75592
-9.08993
-8.33198
-7.51262
-6.65962
-5.79701
-4.9446
-4.11771
-3.32729
-2.58022
-1.87975
-1.22575
-0.631906
8.92397
7.28481
5.45877
3.56998
1.73901
0.00571379
-1.61928
-3.12073
-4.47705
-5.66369
-6.65786
-7.44604
-8.02406
-8.39395
-8.5634
-8.54578
-8.35953
-8.02689
-7.57249
-7.02196
-6.40058
-5.73215
-5.03805
-4.33669
-3.64305
-2.96866
-2.32167
-1.70717
-1.1273
-0.596183
10.2217
8.71768
7.05094
5.32746
3.65057
2.05382
0.545465
-0.862196
-2.15108
-3.30095
-4.29266
-5.11325
-5.75705
-6.22343
-6.51624
-6.64402
-6.61958
-6.4593
-6.182
-5.80801
-5.35798
-4.85204
-4.30887
-3.74518
-3.1752
-2.6105
-2.05995
-1.52992
-1.02428
-0.557276
11.3411
9.95116
8.41764
6.83212
5.28418
3.80244
2.39329
1.06672
-0.162026
-1.27611
-2.25928
-3.09942
-3.79014
-4.32911
-4.71756
-4.96052
-5.06663
-5.04773
-4.91806
-4.69352
-4.39088
-4.02691
-3.61775
-3.1783
-2.7218
-2.25948
-1.8005
-1.35206
-0.919364
-0.516494
12.3036
11.0101
9.5881
8.11785
6.67795
5.2931
3.96827
2.71162
1.53613
0.455801
-0.515355
-1.36596
-2.08959
-2.68284
-3.14517
-3.47909
-3.69018
-3.7868
-3.77958
-3.68086
-3.5041
-3.2632
-2.97194
-2.64345
-2.28984
-1.92179
-1.54847
-1.17755
-0.81519
-0.475117
13.1268
11.9145
10.5858
9.21171
7.86218
6.55879
5.3054
4.10868
2.97983
1.93073
0.97347
0.118538
-0.627687
-1.26124
-1.78037
-2.18584
-2.48097
-2.6715
-2.76525
-2.77172
-2.70162
-2.56643
-2.37781
-2.14727
-1.88572
-1.60323
-1.30876
-1.01018
-0.714295
-0.434381
13.8252
12.6809
11.4298
10.1356
8.86126
7.62595
6.43264
5.28685
4.19832
3.17752
2.23483
1.37957
0.618189
-0.0450287
-0.60759
-1.06904
-1.43105
-1.69742
-1.87379
-1.96741
-1.98681
-1.94138
-1.84103
-1.69574
-1.51534
-1.30919
-1.08596
-0.853525
-0.619119
-0.395475
14.4098
13.322
12.1347
10.9062
9.6938
8.5148
7.37148
6.26849
5.21439
4.21849
3.28987
2.43683
1.66569
0.98091
0.38546
-0.119375
-0.534114
-0.861079
-1.10428
-1.26923
-1.36269
-1.39238
-1.36668
-1.29431
-1.18407
-1.04463
-0.884314
-0.710952
-0.531959
-0.359494
14.8908
13.8488
12.7133
11.5377
10.3754
9.24211
8.13953
7.07167
6.04615
5.07143
4.15557
3.306
2.52881
1.82853
1.20843
0.670335
0.214573
-0.160125
-0.456537
-0.678838
-0.832416
-0.92366
-0.959714
-0.948231
-0.897125
-0.81441
-0.708053
-0.585777
-0.455098
-0.327555
15.2725
14.2669
13.1719
12.0379
10.915
9.81771
8.74741
7.70755
6.70508
5.74778
4.84295
3.99736
3.21677
2.50574
1.86767
1.30479
0.817984
0.406733
0.0691607
-0.197906
-0.398814
-0.538913
-0.624373
-0.661974
-0.658908
-0.622614
-0.560683
-0.480738
-0.390355
-0.300448
15.5638
14.585
13.52
12.4166
11.3227
10.252
9.2056
8.18658
7.20137
6.25724
5.36093
4.51865
3.73592
3.01728
2.36628
1.78537
1.27583
0.837658
0.469606
0.169207
-0.0671286
-0.243994
-0.366828
-0.441749
-0.475384
-0.474712
-0.446989
-0.399689
-0.3404
-0.279404
15.7592
14.7983
13.7534
12.6708
11.5966
10.5439
9.51372
8.50896
7.53572
6.60105
5.71138
4.87234
4.08903
3.36597
2.70682
2.11419
1.58961
1.13345
0.744867
0.421891
0.161439
-0.0405599
-0.189042
-0.289664
-0.348649
-0.372644
-0.368619
-0.343848
-0.305828
-0.26404
15.8722
14.9167
13.881
12.8086
11.7438
10.6996
9.67707
8.67884
7.71079
6.77956
5.89142
5.05229
4.26745
3.54125
2.87722
2.27801
1.74526
1.27948
0.880075
0.545302
0.272358
0.0574455
-0.104106
-0.217711
-0.289383
-0.325593
-0.333142
-0.319126
-0.290733
-0.255782
)
;

boundaryField
{
    inlet
    {
        type            zeroGradient;
    }
    outlet
    {
        type            fixedValue;
        value           uniform 0;
    }
    flap
    {
        type            zeroGradient;
    }
    upperWall
    {
        type            zeroGradient;
    }
    lowerWall
    {
        type            zeroGradient;
    }
    frontAndBack
    {
        type            empty;
    }
}


// ************************************************************************* //
