/*--------------------------------*- C++ -*----------------------------------*\
| =========                 |                                                 |
| \\      /  F ield         | OpenFOAM: The Open Source CFD Toolbox           |
|  \\    /   O peration     | Version:  dev                                   |
|   \\  /    A nd           | Web:      www.OpenFOAM.org                      |
|    \\/     M anipulation  |                                                 |
\*---------------------------------------------------------------------------*/
FoamFile
{
    version     2.0;
    format      ascii;
    class       surfaceScalarField;
    location    "0.15";
    object      phi;
}
// * * * * * * * * * * * * * * * * * * * * * * * * * * * * * * * * * * * * * //

dimensions      [0 3 -1 0 0 0 0];

internalField   nonuniform List<scalar> 
5457
(
0.198524
0.00147481
0.196737
0.00178491
0.194611
0.0021251
0.192108
0.00250182
0.189227
0.00287963
0.185972
0.00325363
0.182342
0.00362853
0.178335
0.00400681
0.173946
0.00438757
0.169177
0.00476851
0.164029
0.0051478
0.158504
0.00552536
0.1526
0.00590334
0.146315
0.00628578
0.139637
0.00667755
0.132555
0.0070829
0.125051
0.00750389
0.117112
0.00793924
0.108729
0.00838358
0.0999019
0.00882717
0.090646
0.0092561
0.0809932
0.00965294
0.0709957
0.0099977
0.0607264
0.0102694
0.0502783
0.0104481
0.0397609
0.0105175
0.0292947
0.0104662
0.0190123
0.0102824
0.00909345
0.00991881
0.00909345
0.200072
0.00140179
0.199465
0.00239026
0.198419
0.00316948
0.196962
0.00395716
0.195085
0.00475495
0.192779
0.00555903
0.190028
0.00637836
0.186815
0.00721887
0.183123
0.00807901
0.178939
0.00895241
0.174254
0.00983161
0.169068
0.0107113
0.163382
0.0115901
0.157196
0.0124712
0.150513
0.013361
0.14333
0.0142665
0.135642
0.0151922
0.127443
0.0161379
0.118731
0.0170961
0.109508
0.018051
0.0997849
0.0189789
0.0895898
0.0198482
0.078966
0.0206217
0.0679765
0.021259
0.0567037
0.021721
0.0452471
0.0219741
0.0337163
0.0219971
0.0222118
0.0217869
0.0107355
0.0213951
0.0198289
0.19992
0.00148028
0.199369
0.00294026
0.198386
0.00415003
0.19702
0.00532268
0.195267
0.00650656
0.193115
0.00770988
0.190546
0.00894593
0.18754
0.0102243
0.184074
0.0115444
0.180129
0.0128968
0.175691
0.0142688
0.170753
0.0156492
0.165311
0.0170322
0.159364
0.0184185
0.15291
0.0198151
0.145945
0.0212311
0.138463
0.0226744
0.130455
0.0241469
0.12191
0.0256412
0.112822
0.0271388
0.103193
0.0286087
0.0930328
0.0300084
0.0823691
0.0312855
0.0712467
0.0323815
0.0597315
0.0332363
0.0479113
0.0337943
0.0358966
0.0340119
0.0238239
0.0338596
0.0118578
0.0333612
0.0316868
0.199837
0.00164158
0.199285
0.00349098
0.198321
0.00511249
0.196977
0.00666523
0.195258
0.00822382
0.193154
0.00981307
0.190647
0.0114518
0.187718
0.0131528
0.184345
0.0149161
0.180511
0.0167303
0.176202
0.0185782
0.171407
0.0204434
0.166124
0.022316
0.160347
0.0241952
0.154074
0.0260884
0.147298
0.0280077
0.140008
0.0299646
0.13219
0.0319646
0.123829
0.0340026
0.114909
0.0360592
0.105419
0.0380993
0.0953554
0.0400721
0.0847284
0.0419126
0.0735651
0.043545
0.0619144
0.0448871
0.0498512
0.0458576
0.0374789
0.0463842
0.0249309
0.0464076
0.0123389
0.0459533
0.0440257
0.199798
0.00184175
0.199237
0.00405035
0.198291
0.00605788
0.196973
0.00798129
0.195291
0.00990467
0.193235
0.0118681
0.190788
0.0138974
0.187932
0.0160081
0.184647
0.0182008
0.180914
0.0204619
0.176722
0.02277
0.172061
0.0251043
0.166926
0.0274514
0.161312
0.0298094
0.155213
0.0321869
0.148621
0.0345997
0.141522
0.0370643
0.133896
0.0395911
0.12572
0.0421788
0.11697
0.0448099
0.107621
0.0474478
0.0976572
0.0500363
0.08707
0.0525
0.0758685
0.0547465
0.0640844
0.0566713
0.0517792
0.0581629
0.03905
0.0591134
0.0260356
0.059422
0.0128938
0.0590951
0.0569194
0.199781
0.00205919
0.199217
0.00461255
0.198291
0.00698236
0.197008
0.00926276
0.195372
0.0115397
0.193374
0.0138649
0.190999
0.0162714
0.188228
0.0187778
0.185044
0.0213849
0.181428
0.0240768
0.177369
0.0268284
0.172859
0.0296147
0.167891
0.0324194
0.16246
0.0352402
0.156559
0.038088
0.150176
0.0409831
0.143293
0.0439479
0.135885
0.0469996
0.127921
0.050143
0.119366
0.053365
0.110183
0.056631
0.100337
0.0598823
0.0898015
0.0630361
0.0785626
0.0659856
0.0666308
0.0686032
0.0540492
0.0707445
0.0409045
0.0722582
0.0273414
0.0729851
0.0135599
0.0728766
0.0704794
0.199776
0.00228199
0.199217
0.00516934
0.198317
0.00788131
0.197075
0.0105028
0.195494
0.01312
0.193564
0.0157929
0.191273
0.0185614
0.188603
0.0214472
0.185536
0.0244513
0.182057
0.0275557
0.178153
0.0307316
0.173817
0.0339501
0.169044
0.0371931
0.163826
0.040458
0.158155
0.0437589
0.152017
0.0471214
0.14539
0.0505755
0.138243
0.0541469
0.130537
0.057849
0.122226
0.0616766
0.113256
0.0656007
0.103574
0.0695651
0.0931263
0.0734837
0.0818729
0.0772391
0.069794
0.0806821
0.0569052
0.0836335
0.0432735
0.0858898
0.0290456
0.0872131
0.0144806
0.0874416
0.0849599
0.199777
0.002503
0.199232
0.0057133
0.198362
0.00874949
0.197168
0.011695
0.19565
0.014637
0.1938
0.0176417
0.191605
0.0207551
0.18905
0.024002
0.186117
0.0273834
0.182793
0.0308793
0.179067
0.0344574
0.174931
0.0380858
0.17038
0.0417442
0.165407
0.0454309
0.160002
0.0491634
0.15415
0.0529738
0.147825
0.0569008
0.140992
0.0609806
0.133603
0.0652379
0.125601
0.0696794
0.116915
0.0742869
0.107467
0.0790129
0.097176
0.0837753
0.0859628
0.0884524
0.0737663
0.0928788
0.0605585
0.0968413
0.0463685
0.10008
0.0313164
0.102265
0.0156371
0.103121
0.100597
0.199784
0.00271753
0.199257
0.00623828
0.198424
0.00958151
0.197284
0.0128333
0.195837
0.0160829
0.194075
0.0194017
0.191988
0.022841
0.189561
0.0264285
0.186778
0.0301652
0.183628
0.0340292
0.1801
0.037985
0.176188
0.0419976
0.171887
0.0460452
0.167191
0.0501271
0.16209
0.0542649
0.156566
0.0584976
0.150594
0.0628738
0.144133
0.0674419
0.13713
0.0722411
0.129516
0.0772937
0.121204
0.082599
0.112091
0.0881263
0.102059
0.0938078
0.0909815
0.0995297
0.0787389
0.105121
0.0652354
0.110345
0.0504283
0.114887
0.0343736
0.11832
0.0173156
0.120179
0.117913
0.199794
0.00292234
0.199291
0.0067393
0.198499
0.0103722
0.197419
0.0139117
0.19605
0.0174505
0.194386
0.0210642
0.192417
0.0248087
0.190131
0.0287143
0.187513
0.0327824
0.184553
0.0369887
0.181243
0.0412948
0.177577
0.0456629
0.173552
0.0500699
0.169163
0.0545161
0.164401
0.0590274
0.159249
0.0636501
0.15368
0.0684432
0.147653
0.0734688
0.141112
0.0787827
0.133978
0.0844276
0.126151
0.0904264
0.117503
0.0967754
0.107875
0.103436
0.0970841
0.110321
0.0849304
0.117275
0.0712194
0.124056
0.0557963
0.13031
0.0385977
0.135519
0.019775
0.139002
0.137688
0.199806
0.00311508
0.199331
0.00721235
0.198585
0.0111171
0.19757
0.014925
0.196286
0.0187332
0.194727
0.0226211
0.192886
0.0266487
0.190751
0.0308485
0.188311
0.0352218
0.185557
0.0397425
0.182482
0.0443692
0.179083
0.0490613
0.175359
0.0537942
0.171306
0.0585696
0.166916
0.063417
0.162176
0.0683901
0.157061
0.0735585
0.151533
0.0789981
0.145533
0.0847832
0.138981
0.0909797
0.131767
0.0976403
0.123744
0.104799
0.114716
0.112464
0.104435
0.120602
0.0925978
0.129113
0.0788632
0.137791
0.0628941
0.146279
0.0443971
0.154016
0.0230551
0.160344
0.160743
0.199819
0.00329401
0.199376
0.00765417
0.198679
0.011812
0.197734
0.0158686
0.196541
0.0199253
0.195095
0.0240656
0.19339
0.0283528
0.191416
0.0328213
0.189165
0.0374722
0.186629
0.0422774
0.183805
0.0471928
0.180692
0.0521748
0.177289
0.0571972
0.173596
0.0622622
0.16961
0.0674031
0.16532
0.0726799
0.160707
0.0781719
0.155737
0.0839686
0.150358
0.0901625
0.144494
0.0968441
0.138036
0.104099
0.130828
0.112007
0.122651
0.120641
0.113199
0.130054
0.102049
0.140263
0.088648
0.151191
0.0723416
0.162586
0.052472
0.173885
0.0283993
0.184416
0.189142
0.199835
0.00345781
0.199425
0.00806216
0.198782
0.0124535
0.19791
0.0167383
0.196812
0.0210221
0.195485
0.0253919
0.193922
0.0299141
0.192118
0.0346246
0.190065
0.0395241
0.18776
0.0445823
0.185199
0.0497527
0.182386
0.0549884
0.179322
0.0602607
0.176012
0.0655725
0.172456
0.0709593
0.168649
0.0764864
0.164581
0.0822411
0.160225
0.0883247
0.155542
0.0948459
0.150469
0.101917
0.144911
0.109657
0.138727
0.118192
0.131703
0.127665
0.123512
0.138246
0.113644
0.150131
0.1013
0.163536
0.0852438
0.178642
0.0636492
0.19548
0.0331756
0.21489
0.222318
0.199851
0.0036053
0.199477
0.00843405
0.19889
0.0130388
0.198096
0.0175307
0.197097
0.0220194
0.195893
0.0265951
0.194479
0.0313268
0.192851
0.0362518
0.191004
0.0413698
0.188937
0.0466489
0.18665
0.0520391
0.184149
0.0574898
0.181439
0.0629705
0.178528
0.0684832
0.175423
0.0740644
0.172127
0.0797828
0.168637
0.0857315
0.164942
0.0920201
0.161019
0.0987694
0.156827
0.106109
0.152304
0.114181
0.147346
0.12315
0.141794
0.133217
0.135387
0.144653
0.127678
0.15784
0.117862
0.173352
0.10442
0.192085
0.0847474
0.215152
0.0575649
0.242072
0.279882
0.199869
0.00373491
0.199533
0.00876762
0.199005
0.0135651
0.198292
0.0182425
0.197396
0.0229136
0.196319
0.0276711
0.195058
0.0325864
0.193611
0.0376976
0.191976
0.0430037
0.190154
0.0484707
0.188149
0.054044
0.185968
0.0596698
0.183623
0.0653158
0.181124
0.0709816
0.178486
0.0767031
0.175719
0.08255
0.172832
0.0886181
0.169831
0.0950214
0.166714
0.101887
0.163472
0.109352
0.160082
0.117572
0.156507
0.126725
0.152688
0.137037
0.148526
0.148815
0.143862
0.162504
0.138431
0.178784
0.131722
0.198793
0.122149
0.224726
0.102403
0.261818
0.382285
-0.0135025
0.0135025
-0.0278848
0.0143823
-0.0423471
0.0144624
-0.0566803
0.0143332
-0.0705217
0.0138415
-0.0833821
0.0128606
-0.0946575
0.0112757
-0.103661
0.00900332
-0.109678
0.00601727
-0.112051
0.00237358
-0.110271
-0.00177987
-0.104043
-0.00622778
-0.0934598
-0.0105826
-0.0790332
-0.0144266
-0.0616127
-0.0174206
-0.0422284
-0.0193846
-0.021901
-0.0203279
-0.00146044
-0.0204412
0.0183906
-0.0198519
0.0371192
-0.0187295
0.0544438
-0.0173257
0.0702158
-0.0157731
0.0843841
-0.0141694
0.0969721
-0.012589
0.108055
-0.0110839
0.117741
-0.0096868
0.126157
-0.00841561
0.133436
-0.00727963
0.139728
-0.00629157
-0.00561284
-0.014496
0.0279985
-0.0290837
0.02897
-0.0439189
0.0292976
-0.0586667
0.0290811
-0.0729249
0.0280999
-0.0861761
0.0261119
-0.0977854
0.0228852
-0.10703
0.0182484
-0.113157
0.0121448
-0.115465
0.00468121
-0.113409
-0.00383513
-0.106694
-0.0129423
-0.0954454
-0.0218313
-0.080236
-0.029636
-0.0619799
-0.0356768
-0.0417529
-0.0396119
-0.0206131
-0.0414682
0.000481002
-0.0415361
0.0208513
-0.0402231
0.0400831
-0.0379622
0.0578985
-0.0351422
0.0741575
-0.0320332
0.0888174
-0.0288303
0.101906
-0.025679
0.113501
-0.0226791
0.123706
-0.0198925
0.132642
-0.017352
0.140434
-0.0150715
0.1472
-0.013057
-0.0113966
-0.0146111
0.0426096
-0.029853
0.044212
-0.0452286
0.0446732
-0.0605473
0.0443999
-0.0754311
0.0429838
-0.089342
0.040023
-0.101596
0.03514
-0.111402
0.0280539
-0.117921
0.018664
-0.120363
0.00712443
-0.118095
-0.00610342
-0.110796
-0.0202405
-0.0986792
-0.0339483
-0.0824606
-0.0458546
-0.0631995
-0.054938
-0.0420854
-0.0607263
-0.0202476
-0.0633065
0.00133796
-0.0631223
0.0220227
-0.0609087
0.0414086
-0.057349
0.0592712
-0.0530059
0.0755025
-0.0482655
0.0900858
-0.0434148
0.10307
-0.0386646
0.114548
-0.0341578
0.124636
-0.0299806
0.133459
-0.0261761
0.141146
-0.022758
0.14781
-0.0197213
-0.0171202
-0.0151164
0.057726
-0.0308352
0.0599308
-0.0468774
0.0607155
-0.0630024
0.060525
-0.0788011
0.0587826
-0.0936756
0.0548977
-0.106848
0.0483124
-0.117401
0.0386074
-0.124362
0.0256259
-0.12682
0.00958268
-0.124046
-0.00887709
-0.115769
-0.0285178
-0.10237
-0.0473468
-0.0847676
-0.0634571
-0.0641917
-0.0755141
-0.0419505
-0.0829678
-0.0192402
-0.0860174
0.00293101
-0.0852942
0.0239648
-0.0819434
0.0435
-0.0768852
0.0613716
-0.0708786
0.0775146
-0.0644096
0.0919474
-0.0578486
0.104747
-0.0514655
0.116028
-0.0454391
0.12592
-0.0398733
0.134559
-0.0348158
0.142076
-0.0302753
0.148589
-0.0262337
-0.0227197
-0.0156054
0.0733314
-0.0319578
0.0762831
-0.0487805
0.0775383
-0.0658477
0.0775923
-0.0826931
0.0756282
-0.0986201
0.0708249
-0.112717
0.0624096
-0.123913
0.0498039
-0.131083
0.0327964
-0.133207
0.0117068
-0.129505
-0.0125788
-0.119858
-0.0381646
-0.1049
-0.0623046
-0.0857672
-0.0825902
-0.06384
-0.0974414
-0.0405079
-0.1063
-0.0169956
-0.10953
0.00566952
-0.10796
0.0269494
-0.103224
0.0465415
-0.0964784
0.0643294
-0.0886676
0.0802907
-0.0803721
0.0944813
-0.0720402
0.107009
-0.0639944
0.118011
-0.056442
0.127635
-0.0494976
0.136025
-0.0432068
0.143319
-0.0375686
0.149635
-0.0325495
-0.0281543
-0.0161094
0.0894409
-0.0329958
0.0931695
-0.0505198
0.0950623
-0.0684149
0.0954875
-0.0861382
0.0933516
-0.10288
0.0875672
-0.117592
0.0771218
-0.129056
0.0612676
-0.136006
0.0397476
-0.137347
0.0130481
-0.132312
-0.0176138
-0.121044
-0.0494323
-0.104475
-0.0788728
-0.083939
-0.103127
-0.0609137
-0.120467
-0.0368105
-0.130404
-0.0128297
-0.133512
0.0100441
-0.130835
0.0313069
-0.124488
0.0507522
-0.115925
0.0682853
-0.106202
0.0839167
-0.0960046
0.0977358
-0.0858605
0.10988
-0.0761395
0.120508
-0.0670705
0.129781
-0.0587716
0.137854
-0.0512803
0.144866
-0.0445807
0.150938
-0.0386215
-0.0333819
-0.0163066
0.105747
-0.0334739
0.110337
-0.0513299
0.112918
-0.0696001
0.113758
-0.0876848
0.111436
-0.104691
0.104573
-0.119463
0.0918941
-0.130667
0.0724719
-0.136926
0.0460076
-0.13708
0.0132022
-0.130443
-0.0242502
-0.117517
-0.062358
-0.0995379
-0.096852
-0.0779783
-0.124686
-0.0543462
-0.144099
-0.0300074
-0.154743
-0.00612189
-0.157398
0.0165011
-0.153458
0.0373673
-0.145355
0.0563634
-0.134922
0.073392
-0.123232
0.0884865
-0.1111
0.101764
-0.0991394
0.113386
-0.0877618
0.123526
-0.0772118
0.132358
-0.0676041
0.14004
-0.0589625
0.146711
-0.0512521
0.152492
-0.0444019
-0.0383632
-0.0159148
0.121662
-0.0327688
0.127191
-0.0502376
0.130387
-0.0680934
0.131614
-0.0857389
0.129082
-0.102256
0.12109
-0.116424
0.106063
-0.126825
0.0828727
-0.131994
0.0511771
-0.130674
0.0118825
-0.122341
-0.0325828
-0.107936
-0.0767627
-0.0889742
-0.115813
-0.0669817
-0.146679
-0.0434146
-0.167666
-0.0195004
-0.178658
0.00358422
-0.180483
0.0253281
-0.175203
0.0453936
-0.165422
0.0635701
-0.153099
0.0797803
-0.139443
0.0940814
-0.125403
0.106612
-0.111671
0.117547
-0.0986982
0.127072
-0.0867375
0.135362
-0.0758947
0.142574
-0.066175
0.148843
-0.0575216
0.154284
-0.0498424
-0.0430598
-0.0148997
0.136562
-0.0302867
0.142578
-0.0462908
0.146391
-0.0626748
0.147998
-0.0789008
0.145308
-0.0940796
0.136269
-0.106964
0.118948
-0.116051
0.0919603
-0.119819
0.0549451
-0.116834
0.0088984
-0.106891
-0.0425258
-0.0914063
-0.092247
-0.0721078
-0.135112
-0.0504624
-0.168324
-0.0277779
-0.190351
-0.00514324
-0.201293
0.0165026
-0.202129
0.0367984
-0.1955
0.0555593
-0.184184
0.0724889
-0.17003
0.0875238
-0.154479
0.100742
-0.138622
0.112295
-0.123225
0.122366
-0.10877
0.131138
-0.0955103
0.138781
-0.0835382
0.145443
-0.0728375
0.151249
-0.0633278
0.156303
-0.0548954
-0.0474349
-0.0125024
0.149064
-0.0254084
0.155484
-0.0386905
0.159674
-0.0524104
0.161718
-0.0661485
0.159047
-0.0790872
0.149208
-0.0899916
0.129853
-0.0972649
0.0992341
-0.0993171
0.0569978
-0.0945134
0.00409515
-0.0833096
-0.0537292
-0.0674407
-0.108116
-0.0486623
-0.15389
-0.0283147
-0.188672
-0.00735464
-0.211312
0.0130576
-0.221705
0.0325299
-0.221602
0.050957
-0.213928
0.0678993
-0.201127
0.0831276
-0.18526
0.0966122
-0.167965
0.108447
-0.150458
0.118789
-0.133569
0.127815
-0.117797
0.135698
-0.103394
0.142591
-0.0904321
0.148626
-0.0788729
0.15391
-0.0686122
0.158531
-0.0595163
-0.0514542
-0.00847005
0.157534
-0.017638
0.164652
-0.0269397
0.168975
-0.036814
0.171592
-0.0469666
0.169199
-0.0567031
0.158945
-0.0648827
0.138033
-0.0698438
0.104196
-0.0696828
0.0568373
-0.0629154
-0.00267173
-0.0511738
-0.0654704
-0.0360255
-0.123264
-0.0188295
-0.171086
-0.000733847
-0.206768
0.0173107
-0.229356
0.0348169
-0.239212
0.0517746
-0.238561
0.0677169
-0.229871
0.0823006
-0.215712
0.0953735
-0.198334
0.10694
-0.179533
0.117104
-0.160623
0.126014
-0.14248
0.133829
-0.125614
0.140699
-0.110264
0.146751
-0.0964846
0.15209
-0.0842126
0.156801
-0.0733233
0.160951
-0.0636657
-0.0550878
-0.00382537
0.16136
-0.00701738
0.167844
-0.011106
0.173064
-0.0160572
0.176544
-0.0215516
0.174694
-0.0271009
0.164495
-0.0317649
0.142698
-0.0338474
0.106279
-0.0307228
0.0537133
-0.0222896
-0.0111044
-0.0108983
-0.0768613
0.00235611
-0.136518
0.0166658
-0.185396
0.0312454
-0.221347
0.0458146
-0.243926
0.0601868
-0.253585
0.0739495
-0.252324
0.0867892
-0.242712
0.0984955
-0.227419
0.108991
-0.20883
0.118308
-0.188852
0.126548
-0.168865
0.133839
-0.149771
0.140307
-0.132083
0.146064
-0.116022
0.151202
-0.101623
0.155793
-0.0888034
0.15989
-0.077421
0.163538
-0.0673127
-0.0583117
0.00484596
0.156514
0.00661663
0.166073
0.00815761
0.171523
0.00882455
0.175877
0.00891018
0.174609
0.00865
0.164755
0.00894312
0.142405
0.0117684
0.103454
0.018273
0.0472093
0.0266277
-0.0194586
0.0358654
-0.0860985
0.0457665
-0.146419
0.0563368
-0.195966
0.0672747
-0.232285
0.0780929
-0.254744
0.0885703
-0.264063
0.0984835
-0.262238
0.107675
-0.251904
0.11606
-0.235805
0.123629
-0.2164
0.130433
-0.195657
0.136557
-0.17499
0.142091
-0.155307
0.147115
-0.137108
0.151693
-0.120601
0.155871
-0.105801
0.159678
-0.0926113
0.163137
-0.0808798
0.166262
-0.0704372
-0.0611094
0.0131004
0.143413
0.0226497
0.156524
0.0297708
0.164402
0.0362632
0.169385
0.0423455
0.168527
0.0482298
0.158872
0.054921
0.135714
0.0630412
0.0953344
0.0712371
0.039014
0.0785162
-0.0267372
0.0855599
-0.0931418
0.0925832
-0.153442
0.0996015
-0.202984
0.106449
-0.239133
0.112919
-0.261215
0.118951
-0.270095
0.124532
-0.26782
0.129679
-0.257053
0.13443
-0.240557
0.138839
-0.220811
0.142966
-0.199785
0.146863
-0.178888
0.150569
-0.159014
0.154106
-0.140646
0.157477
-0.123973
0.160676
-0.109
0.163688
-0.0956236
0.166498
-0.0836898
0.169091
-0.0730304
-0.0634729
0.0198234
0.12359
0.038873
0.137475
0.0521244
0.151151
0.0650635
0.156446
0.077425
0.156166
0.0894965
0.1468
0.101717
0.123494
0.113306
0.0837458
0.122979
0.029342
0.13041
-0.0341674
0.13617
-0.0989016
0.140721
-0.157993
0.144254
-0.206518
0.14688
-0.241759
0.148733
-0.263068
0.150039
-0.271402
0.151041
-0.268823
0.151954
-0.257967
0.152942
-0.241547
0.154114
-0.221983
0.155524
-0.201196
0.157184
-0.180549
0.159068
-0.1609
0.161129
-0.142708
0.163306
-0.126152
0.165537
-0.111231
0.167762
-0.0978484
0.169927
-0.0858556
0.171991
-0.0750939
-0.0653991
0.207541
0.00385193
0.207233
0.00907394
0.206747
0.014049
0.206092
0.0188956
0.205273
0.0237313
0.204291
0.0286514
0.203147
0.033729
0.201841
0.0390028
0.200374
0.0444706
0.198748
0.0500956
0.196972
0.0558193
0.195057
0.0615844
0.193018
0.0673551
0.190872
0.0731273
0.18864
0.0789349
0.186344
0.0848459
0.184007
0.0909554
0.181652
0.0973771
0.179302
0.104237
0.176984
0.111671
0.174727
0.119829
0.17257
0.128882
0.170574
0.139034
0.168838
0.150552
0.167553
0.163789
0.167108
0.179228
0.168359
0.197543
0.173486
0.219599
0.19188
0.243424
0.267217
0.306949
0.212581
0.00395189
0.212309
0.00934357
0.21188
0.0144766
0.211302
0.0194722
0.210581
0.0244506
0.209721
0.0295098
0.208725
0.034724
0.207594
0.0401322
0.206333
0.0457306
0.204949
0.0514791
0.203452
0.0573158
0.201857
0.0631794
0.200183
0.0690285
0.198455
0.0748551
0.196701
0.0806887
0.194954
0.0865935
0.193249
0.0926601
0.19163
0.0989967
0.190146
0.105722
0.188858
0.11296
0.187847
0.120841
0.187225
0.129505
0.187154
0.139105
0.187891
0.149815
0.189871
0.16181
0.193862
0.175237
0.201349
0.190057
0.215052
0.205896
0.236534
0.221942
0.245454
0.258297
0.217744
0.00403359
0.217512
0.00957328
0.217144
0.0148427
0.21665
0.0199653
0.216035
0.0250633
0.215308
0.030236
0.214471
0.0355597
0.213529
0.0410726
0.21249
0.0467687
0.211363
0.052605
0.210163
0.0585157
0.208907
0.0644343
0.207621
0.0703141
0.206335
0.0761413
0.205084
0.0819398
0.20391
0.0877671
0.202864
0.0937064
0.202005
0.0998562
0.201405
0.106322
0.201156
0.113209
0.201376
0.120621
0.202225
0.128656
0.203928
0.137404
0.206805
0.146937
0.211327
0.157289
0.21814
0.168424
0.228006
0.180191
0.241492
0.19241
0.257892
0.205542
0.222999
0.280348
0.223033
0.00409575
0.222844
0.00975996
0.222542
0.0151424
0.222138
0.0203682
0.221638
0.0255611
0.221052
0.0308211
0.220385
0.0362254
0.219644
0.0418116
0.218841
0.0475714
0.217986
0.0534585
0.217098
0.0594028
0.2162
0.0653325
0.215318
0.0711947
0.21449
0.0769692
0.213758
0.0826724
0.213171
0.0883536
0.212792
0.0940859
0.212692
0.0999557
0.212963
0.106052
0.213713
0.112459
0.215083
0.119251
0.217254
0.126486
0.220461
0.134197
0.225008
0.142391
0.231268
0.151029
0.239666
0.160027
0.250604
0.169253
0.2645
0.178514
0.282179
0.187863
0.198146
0.307032
0.22845
0.00413723
0.228307
0.00990081
0.228076
0.0153715
0.227767
0.0206752
0.22739
0.0259368
0.226953
0.031257
0.226464
0.0367123
0.225935
0.0423391
0.225378
0.0481277
0.224808
0.054028
0.224244
0.0599654
0.223714
0.0658623
0.223248
0.0716597
0.222887
0.07733
0.222678
0.0828813
0.222678
0.0883534
0.222955
0.0938083
0.223593
0.0993184
0.224688
0.104956
0.226362
0.110786
0.228761
0.116853
0.232064
0.123183
0.236488
0.129774
0.24229
0.136589
0.249768
0.143552
0.259251
0.150545
0.271104
0.157401
0.285761
0.163857
0.303879
0.169745
0.175395
0.32663
0.233998
0.00415709
0.233904
0.00999338
0.233747
0.0155263
0.233539
0.0208815
0.233289
0.0261847
0.233008
0.0315368
0.232706
0.0370129
0.232397
0.0426478
0.232093
0.0484298
0.231815
0.0543055
0.231583
0.0601957
0.231427
0.0660176
0.231381
0.0717053
0.231487
0.0772236
0.231796
0.082572
0.232369
0.0877803
0.233278
0.0928988
0.23461
0.097987
0.236465
0.103102
0.238963
0.108288
0.242245
0.113571
0.246477
0.118953
0.251846
0.124405
0.258567
0.129868
0.266877
0.135243
0.27703
0.140392
0.289293
0.145138
0.303906
0.149244
0.321148
0.152504
0.154967
0.341577
0.239681
0.00415466
0.239637
0.0100357
0.239558
0.0156036
0.239454
0.0209833
0.239337
0.0263006
0.239216
0.0316555
0.239106
0.0371216
0.239021
0.0427322
0.238977
0.048473
0.238994
0.0542872
0.239097
0.0600914
0.239316
0.0657979
0.239686
0.0713343
0.240251
0.076658
0.241063
0.0817597
0.242184
0.0866594
0.243685
0.0913968
0.245653
0.096019
0.248185
0.10057
0.251394
0.105079
0.255406
0.109559
0.260365
0.113994
0.266429
0.118343
0.273763
0.122533
0.282544
0.126462
0.292942
0.129994
0.305115
0.132966
0.31918
0.135179
0.335266
0.136419
0.136582
0.35365
0.245502
0.00412962
0.245509
0.0100264
0.245509
0.0156015
0.245512
0.020978
0.24553
0.0262812
0.245574
0.0316097
0.245659
0.0370353
0.245801
0.0425892
0.246018
0.048255
0.246332
0.0539727
0.246768
0.0596548
0.247356
0.0652088
0.248132
0.0705568
0.24914
0.0756492
0.250431
0.0804686
0.252063
0.0850264
0.254107
0.0893521
0.256643
0.0934831
0.25976
0.0974525
0.263558
0.101281
0.268148
0.104969
0.273645
0.108497
0.280173
0.111815
0.287853
0.114854
0.296802
0.117514
0.307123
0.119674
0.318896
0.121193
0.332168
0.121907
0.346956
0.121631
0.120239
0.3633
0.251462
0.00408194
0.251522
0.00996477
0.251602
0.0155184
0.251715
0.0208638
0.251869
0.0261248
0.25208
0.031398
0.252361
0.036753
0.25273
0.0422191
0.253206
0.0477775
0.253812
0.0533655
0.254574
0.0588924
0.25552
0.0642613
0.256687
0.0693892
0.258115
0.0742205
0.259852
0.078731
0.261953
0.0829243
0.264482
0.0868222
0.267511
0.0904539
0.271117
0.0938454
0.275387
0.0970112
0.280408
0.0999484
0.28627
0.102634
0.293064
0.105022
0.30087
0.107048
0.309757
0.108626
0.319776
0.109656
0.330949
0.11002
0.343262
0.109594
0.356653
0.10824
0.105857
0.371035
0.257566
0.00401177
0.257678
0.00985046
0.25784
0.015354
0.258062
0.0206404
0.258354
0.0258311
0.258729
0.0310207
0.259205
0.0362762
0.259798
0.0416248
0.260529
0.0470455
0.26142
0.0524734
0.262496
0.0578153
0.263786
0.0629708
0.265321
0.067853
0.26714
0.072401
0.269285
0.0765849
0.271806
0.0804022
0.274758
0.0838688
0.278203
0.0870084
0.282205
0.0898427
0.286832
0.0923834
0.292153
0.0946274
0.298232
0.0965543
0.305128
0.0981259
0.312888
0.0992876
0.321544
0.0999707
0.331104
0.100096
0.341549
0.0995751
0.352824
0.0983199
0.364826
0.0962385
0.093263
0.37742
0.263817
0.00391957
0.263981
0.0096838
0.264224
0.0151085
0.264554
0.0203083
0.264982
0.0254017
0.265521
0.0304803
0.266187
0.0356088
0.266998
0.0408121
0.267975
0.0460673
0.26914
0.0513078
0.270515
0.0564387
0.272128
0.0613574
0.274006
0.0659738
0.276183
0.0702235
0.278695
0.074072
0.281584
0.0775121
0.284896
0.0805555
0.288681
0.0832226
0.292989
0.0855334
0.297872
0.0874998
0.303377
0.0891214
0.309548
0.0903834
0.316416
0.0912573
0.324002
0.0917016
0.332307
0.0916651
0.341312
0.0910902
0.35097
0.0899169
0.361202
0.0880872
0.371893
0.0855473
0.0822583
0.382898
0.270218
0.00380608
0.270433
0.0094657
0.270756
0.0147833
0.271193
0.0198695
0.271753
0.0248392
0.272451
0.029781
0.273301
0.0347568
0.274323
0.0397891
0.275535
0.0448537
0.276959
0.0498831
0.278616
0.0547812
0.280527
0.0594444
0.282719
0.063781
0.285218
0.0677238
0.288053
0.0712357
0.291258
0.0743062
0.294868
0.0769442
0.298921
0.0791686
0.303454
0.0809994
0.308502
0.0824508
0.314095
0.0835271
0.320256
0.0842212
0.326998
0.0845149
0.334318
0.0843806
0.342198
0.083784
0.3506
0.0826875
0.359462
0.0810544
0.368697
0.078852
0.378188
0.076055
0.0726463
0.3878
0.276772
0.00367228
0.277037
0.00919762
0.277437
0.0143805
0.277978
0.0193271
0.278667
0.0241481
0.279517
0.0289288
0.280545
0.0337279
0.281766
0.0385662
0.2832
0.0434182
0.284866
0.0482161
0.286782
0.0528639
0.288968
0.057258
0.291442
0.061306
0.294224
0.0649399
0.297339
0.0681205
0.300808
0.0708357
0.304657
0.0730933
0.308913
0.0749118
0.313598
0.0763126
0.318735
0.0773131
0.324337
0.0779235
0.330412
0.078145
0.336956
0.0779699
0.343952
0.0773835
0.351368
0.0763666
0.359156
0.0748989
0.367247
0.0729622
0.375555
0.0705433
0.383972
0.0676367
0.0642401
0.392376
0.283482
0.00351941
0.283796
0.00888157
0.28427
0.0139031
0.28491
0.018685
0.285722
0.0233339
0.286719
0.0279309
0.287913
0.0325319
0.289322
0.0371557
0.290963
0.0417761
0.292852
0.0463257
0.295005
0.0507097
0.297437
0.0548254
0.30016
0.0585813
0.30319
0.0619091
0.306539
0.0647694
0.310224
0.0671495
0.31426
0.0690567
0.31866
0.0705104
0.323436
0.0715342
0.328598
0.0721496
0.334148
0.0723722
0.340081
0.0722113
0.34638
0.0716693
0.353019
0.0707427
0.359959
0.0694252
0.367146
0.0677103
0.374513
0.0655939
0.381978
0.0630767
0.389447
0.0601663
0.0568692
0.396816
0.290353
0.00334895
0.290712
0.00852003
0.291258
0.0133546
0.291992
0.0179484
0.292921
0.0224032
0.294054
0.026796
0.295405
0.0311797
0.296988
0.0355711
0.298819
0.039944
0.300911
0.0442321
0.303277
0.0483425
0.305926
0.0521748
0.308868
0.055639
0.312107
0.0586682
0.315652
0.0612235
0.319508
0.0632922
0.32368
0.0648825
0.328174
0.0660149
0.332991
0.0667154
0.33813
0.0670094
0.343582
0.0669182
0.349333
0.0664584
0.355361
0.0656406
0.361631
0.0644707
0.368102
0.0629528
0.374719
0.0610909
0.38142
0.0588911
0.388132
0.0563635
0.394772
0.0535235
0.0503827
0.401257
0.297389
0.00316251
0.29779
0.00811585
0.298402
0.0127393
0.299225
0.0171231
0.300263
0.0213635
0.301524
0.0255337
0.303019
0.0296831
0.304761
0.0338271
0.306764
0.0379395
0.309039
0.0419559
0.311594
0.0457864
0.314434
0.0493335
0.317562
0.0525103
0.320977
0.0552517
0.324679
0.0575201
0.328666
0.059304
0.332935
0.0606122
0.337481
0.061467
0.342298
0.0618967
0.347375
0.0619301
0.352698
0.0615935
0.358246
0.0609095
0.363989
0.0598953
0.369894
0.0585643
0.375916
0.0569285
0.382006
0.0549993
0.388105
0.0527899
0.39415
0.0503161
0.400074
0.0475976
0.0446482
0.405806
0.304592
0.00296188
0.305032
0.00767221
0.305707
0.0120618
0.306613
0.0162152
0.307751
0.0202231
0.309129
0.0241541
0.310755
0.0280547
0.312643
0.0319386
0.3148
0.0357804
0.317237
0.0395179
0.319958
0.043065
0.322962
0.0463283
0.326246
0.0492244
0.329806
0.0516911
0.333632
0.0536929
0.337715
0.0552194
0.342045
0.0562808
0.34661
0.0569006
0.351395
0.0571092
0.356386
0.0569382
0.36156
0.0564178
0.366892
0.0555753
0.372353
0.0544328
0.377906
0.0530095
0.38351
0.0513225
0.389118
0.0493888
0.39468
0.0472254
0.400143
0.0448516
0.405449
0.0422887
0.0395512
0.410544
0.311967
0.00274893
0.312444
0.00719252
0.313176
0.0113271
0.314157
0.0152314
0.315387
0.0189904
0.316872
0.0226679
0.318618
0.0263072
0.320634
0.0299207
0.322929
0.033484
0.325508
0.0369379
0.328371
0.0402007
0.331515
0.0431837
0.33493
0.045808
0.338605
0.0480148
0.342526
0.0497709
0.346677
0.0510677
0.35104
0.0519164
0.355597
0.0523416
0.36033
0.0523751
0.365216
0.0520506
0.370231
0.051401
0.375348
0.0504568
0.380535
0.0492437
0.385758
0.0477845
0.390979
0.0461001
0.396155
0.0442101
0.401244
0.0421344
0.406201
0.0398931
0.410979
0.0375079
0.0349926
0.415535
0.319519
0.00252557
0.320028
0.00668025
0.320812
0.0105403
0.321862
0.0141787
0.323176
0.0176739
0.324757
0.0210854
0.326609
0.024453
0.328741
0.0277881
0.331156
0.0310672
0.333858
0.0342348
0.336844
0.0372142
0.340105
0.0399221
0.343627
0.0422847
0.347394
0.044247
0.351385
0.0457787
0.355579
0.0468726
0.359953
0.0475408
0.364485
0.0478088
0.369149
0.047709
0.373922
0.0472762
0.378777
0.046545
0.383685
0.0455475
0.388615
0.0443119
0.393535
0.0428629
0.39841
0.0412234
0.403204
0.0394145
0.407879
0.0374567
0.4124
0.0353705
0.416729
0.0331765
0.0308874
0.420833
0.327251
0.00229368
0.327789
0.00613885
0.32862
0.0097065
0.329732
0.0130635
0.331122
0.0162822
0.332789
0.0194169
0.334736
0.0225042
0.336968
0.0255543
0.339489
0.0285453
0.342297
0.0314257
0.345387
0.034124
0.348745
0.0365632
0.352354
0.0386748
0.356192
0.0404082
0.360234
0.0417358
0.364453
0.0426521
0.368823
0.0431699
0.373316
0.0433146
0.377905
0.0431189
0.382563
0.0426174
0.387262
0.0418453
0.391972
0.0408356
0.396666
0.0396171
0.401312
0.0382154
0.40588
0.036654
0.410339
0.0349543
0.414657
0.0331366
0.418806
0.0312205
0.422756
0.0292251
0.0271618
0.426479
0.335168
0.00205509
0.335732
0.00557163
0.336605
0.00883042
0.337773
0.0118923
0.33923
0.014823
0.340974
0.0176718
0.343005
0.0204717
0.345326
0.023232
0.347938
0.0259324
0.350837
0.0285257
0.354014
0.0309462
0.357453
0.0331236
0.361132
0.034995
0.365025
0.0365145
0.369103
0.0376574
0.373335
0.0384196
0.37769
0.0388141
0.382138
0.0388658
0.386649
0.0386068
0.391195
0.0380709
0.395747
0.0372927
0.400277
0.0363048
0.404758
0.0351358
0.409161
0.033811
0.41346
0.0323535
0.417629
0.0307842
0.421643
0.0291224
0.425476
0.0273862
0.429107
0.025593
0.0237524
0.432515
0.343275
0.00181145
0.343861
0.00498157
0.344772