/*--------------------------------*- C++ -*----------------------------------*\
| =========                 |                                                 |
| \\      /  F ield         | OpenFOAM: The Open Source CFD Toolbox           |
|  \\    /   O peration     | Version:  dev                                   |
|   \\  /    A nd           | Web:      www.OpenFOAM.org                      |
|    \\/     M anipulation  |                                                 |
\*---------------------------------------------------------------------------*/
FoamFile
{
    version     2.0;
    format      ascii;
    class       surfaceVectorField;
    location    "0.15";
    object      Uf;
}
// * * * * * * * * * * * * * * * * * * * * * * * * * * * * * * * * * * * * * //

dimensions      [0 1 -1 0 0 0 0];

internalField   nonuniform List<vector> 
5457
(
(9.92097 6.09481e-22 0.023685)
(9.96862 1.22842e-21 0.0384574)
(9.82745 2.41954e-25 0.0311173)
(9.92906 -1.27387e-21 0.0466361)
(9.71795 5.03522e-24 0.0372293)
(9.86162 1.30786e-21 0.0559647)
(9.59054 3.74792e-22 0.0434077)
(9.76905 -6.29122e-22 0.0667361)
(9.44509 3.43033e-22 0.0496854)
(9.65697 -2.09184e-23 0.0780776)
(9.28171 -4.01992e-22 0.0560506)
(9.52673 6.05869e-22 0.0898763)
(9.10027 -7.6618e-22 0.062551)
(9.37745 9.14555e-23 0.102282)
(8.90052 -3.85992e-22 0.0692167)
(9.20808 -7.78495e-22 0.115392)
(8.68223 4.31289e-22 0.0760549)
(9.01791 0 0.129209)
(8.44534 4.20954e-22 0.0830819)
(8.8065 -4.2522e-22 0.143686)
(8.18987 0 0.0903506)
(8.57358 4.38473e-22 0.158782)
(7.91586 0 0.0979636)
(8.31905 0 0.174503)
(7.62327 0 0.10607)
(8.04292 -9.87077e-22 0.190929)
(7.31188 0 0.114847)
(7.74519 9.96474e-22 0.208213)
(6.98122 0 0.124477)
(7.42575 3.23006e-21 0.226555)
(6.63061 -6.18861e-22 0.135115)
(7.0843 1.17862e-21 0.246154)
(6.25926 3.06045e-23 0.146863)
(6.72036 -2.96891e-21 0.267161)
(5.86641 -7.54752e-22 0.159755)
(6.33339 4.43297e-21 0.289618)
(5.45156 4.82556e-23 0.173741)
(5.92289 -9.3495e-21 0.313424)
(5.01464 2.84468e-21 0.188687)
(5.48859 5.51411e-21 0.338302)
(4.55624 -1.70835e-22 0.204374)
(5.03071 7.43024e-21 0.363785)
(4.07778 -3.37641e-21 0.220517)
(4.55008 2.99735e-21 0.389217)
(3.58165 1.57664e-20 0.236792)
(4.04839 -3.35277e-21 0.41378)
(3.07122 6.18287e-21 0.252894)
(3.52826 2.08128e-20 0.43654)
(2.55084 -1.07059e-20 0.268629)
(2.9933 -1.79327e-22 0.456544)
(2.02553 0 0.284037)
(2.44804 6.05611e-20 0.472948)
(1.50068 1.67356e-20 0.299506)
(1.89774 -1.25598e-19 0.48516)
(0.98146 1.63454e-20 0.316183)
(1.34807 1.81152e-19 0.492861)
(0.471281 3.6299e-20 0.328061)
(0.79791 -1.35414e-19 0.496671)
(0.352004 3.86837e-20 0.471268)
(9.99829 -6.73336e-22 0.0492402)
(9.99482 -1.85619e-21 0.0392928)
(9.96364 6.53036e-23 0.0672317)
(9.97972 -1.26982e-21 0.0639134)
(9.90805 6.50067e-22 0.0830322)
(9.94058 4.52443e-23 0.0843782)
(9.83283 -1.01673e-21 0.0996019)
(9.87718 -1.25632e-21 0.106142)
(9.73745 2.50103e-22 0.117094)
(9.79372 9.06978e-22 0.129283)
(9.62133 1.09301e-21 0.135544)
(9.69138 -2.70052e-22 0.153757)
(9.48368 6.84602e-23 0.155132)
(9.56914 6.51445e-22 0.17988)
(9.32354 -3.83006e-22 0.175964)
(9.42558 3.87971e-22 0.207903)
(9.13998 -8.62199e-22 0.198023)
(9.25952 4.07764e-22 0.237872)
(8.93227 -3.97526e-22 0.221231)
(9.07 -8.43204e-22 0.269676)
(8.7 4.3316e-22 0.245519)
(8.85631 2.296e-24 0.303147)
(8.44302 -9.99032e-22 0.270893)
(8.61803 2.77668e-21 0.338163)
(8.16139 3.36247e-23 0.297461)
(8.35501 -1.94415e-21 0.374718)
(7.85519 4.25359e-21 0.325427)
(8.06726 -5.58283e-23 0.412961)
(7.52446 4.38411e-21 0.355047)
(7.75482 4.26776e-21 0.453165)
(7.16907 -1.22032e-21 0.386562)
(7.41762 -1.0992e-21 0.495665)
(6.78879 1.52242e-21 0.42012)
(7.05543 2.33626e-21 0.540752)
(6.38328 -4.32506e-21 0.455703)
(6.66789 -4.97709e-21 0.588574)
(5.95229 -3.73468e-21 0.493069)
(6.25455 -2.81095e-21 0.639031)
(5.49585 1.01019e-20 0.531718)
(5.81508 -7.06941e-21 0.691708)
(5.0144 1.05389e-20 0.570875)
(5.3494 2.03489e-20 0.745823)
(4.5091 2.86962e-21 0.609515)
(4.85794 4.57626e-21 0.80021)
(3.98188 1.83812e-21 0.646412)
(4.34177 -1.63091e-21 0.853348)
(3.43567 1.4259e-20 0.680256)
(3.80284 -3.38025e-21 0.903434)
(2.87435 7.19261e-20 0.709826)
(3.24406 -4.64347e-20 0.948525)
(2.30271 -6.68763e-20 0.734217)
(2.66938 5.22882e-20 0.986745)
(1.72618 4.11457e-20 0.753037)
(2.08366 1.37541e-20 1.01653)
(1.15051 2.53752e-20 0.766999)
(1.49316 1.3161e-19 1.03671)
(0.580055 -1.33576e-19 0.765937)
(0.893936 -1.35132e-19 1.04808)
(0.39401 -1.71886e-20 1.02348)
(9.99078 -2.44419e-21 0.0565939)
(9.99252 -3.70687e-21 0.0437776)
(9.95897 -1.27419e-21 0.0841732)
(9.97473 1.26973e-21 0.0797751)
(9.90663 -1.87935e-21 0.110255)
(9.93638 -1.26148e-21 0.111129)
(9.83593 6.95447e-22 0.137819)
(9.87579 7.14601e-22 0.143172)
(9.74674 3.71899e-22 0.167323)
(9.796 -8.70937e-23 0.177154)
(9.63834 -7.00681e-22 0.19897)
(9.69818 -2.50623e-21 0.213384)
(9.50977 9.67632e-22 0.233068)
(9.58146 3.69054e-22 0.252348)
(9.35991 1.17886e-21 0.269796)
(9.44446 7.7556e-22 0.294466)
(9.18759 4.11363e-22 0.30911)
(9.28591 8.13397e-22 0.339871)
(8.99178 -4.33117e-22 0.350812)
(9.10474 -4.0643e-22 0.388435)
(8.77175 2.37942e-21 0.394676)
(8.90006 -4.36173e-22 0.439889)
(8.52707 1.77409e-21 0.44056)
(8.6713 -8.90078e-22 0.493976)
(8.25756 -2.00843e-21 0.488492)
(8.41812 -2.90252e-21 0.550583)
(7.96313 1.52436e-23 0.538682)
(8.1404 9.61803e-22 0.609816)
(7.64372 -1.27786e-21 0.591478)
(7.83804 -3.19631e-21 0.671996)
(7.29913 2.49914e-21 0.647264)
(7.51088 -2.3731e-21 0.737578)
(6.92898 -4.24815e-21 0.706337)
(7.15857 1.17087e-20 0.807019)
(6.53279 -3.43626e-21 0.768773)
(6.78058 -1.61577e-20 0.880622)
(6.11002 -6.20827e-21 0.834319)
(6.37623 1.0296e-20 0.958386)
(5.66024 3.48303e-21 0.902303)
(5.94482 -1.51598e-22 1.03988)
(5.18335 1.42158e-20 0.971591)
(5.48578 1.81969e-22 1.12414)
(4.67974 0 1.04058)
(4.99886 5.99535e-21 1.20965)
(4.15052 -6.85361e-21 1.10723)
(4.48437 6.29816e-21 1.2943)
(3.5977 -6.45603e-20 1.16921)
(3.94333 -1.33815e-20 1.37548)
(3.02433 -6.51591e-20 1.22405)
(3.37776 -6.41639e-20 1.45022)
(2.43456 1.32401e-19 1.26944)
(2.79076 -9.55503e-22 1.51539)
(1.83362 1.05708e-19 1.30336)
(2.18666 1.23989e-19 1.56803)
(1.22777 -3.15981e-20 1.325)
(1.57226 -4.78312e-20 1.60547)
(0.623472 -1.76462e-20 1.31914)
(0.942038 0 1.62745)
(0.412581 -3.40401e-20 1.59621)
(9.98669 6.7473e-23 0.0674101)
(9.99131 1.21604e-21 0.0502559)
(9.95488 1.25021e-21 0.105991)
(9.97178 3.76008e-21 0.0956349)
(9.90347 1.3549e-21 0.143164)
(9.93328 1.21451e-22 0.137402)
(9.83394 -7.7473e-23 0.181641)
(9.87382 1.25561e-21 0.17959)
(9.74647 -2.99288e-21 0.222445)
(9.79571 -1.55584e-21 0.224101)
(9.64044 -1.40116e-21 0.266162)
(9.69999 1.74552e-22 0.271705)
(9.51494 1.81922e-22 0.313337)
(9.58594 8.85824e-25 0.323092)
(9.36889 4.10556e-22 0.364315)
(9.45227 -3.86897e-22 0.378825)
(9.20119 -1.96116e-23 0.419136)
(9.29779 -4.74249e-24 0.439131)
(9.01085 -4.1006e-22 0.477592)
(9.12144 1.22817e-21 0.503878)
(8.79711 -3.71041e-21 0.539384)
(8.92239 8.60692e-22 0.572718)
(8.5595 -5.59063e-21 0.604283)
(8.70002 -3.68131e-21 0.645285)
(8.29774 1.15445e-22 0.672264)
(8.454 -1.98959e-21 0.721378)
(8.01168 -2.29944e-21 0.743549)
(8.1841 6.00607e-21 0.801078)
(7.7011 -4.28196e-21 0.818575)
(7.89015 -8.38938e-21 0.884766)
(7.36567 7.00437e-21 0.897879)
(7.57186 -8.94432e-21 0.973037)
(7.00488 -5.34303e-22 0.981932)
(7.22874 1.61714e-20 1.06654)
(6.61798 -2.11821e-21 1.07097)
(6.86006 -1.22048e-20 1.16579)
(6.20413 1.6226e-20 1.16481)
(6.46487 -5.21802e-21 1.27095)
(5.76248 -3.45189e-21 1.26277)
(6.04208 2.1635e-20 1.38169)
(5.29233 -7.9698e-21 1.3635)
(5.59062 -1.42086e-20 1.497)
(4.79336 1.22972e-20 1.465)
(5.1096 2.39925e-20 1.61513)
(4.26583 -4.65939e-22 1.56459)
(4.5985 6.75327e-21 1.73353)
(3.71083 -1.36071e-20 1.65902)
(4.05747 -2.58703e-20 1.84886)
(3.13054 4.90522e-22 1.74463)
(3.48756 -6.99276e-21 1.95711)
(2.52841 -8.22102e-21 1.81761)
(2.89105 2.28477e-22 2.05374)
(1.9094 -3.11973e-20 1.87423)
(2.2716 -1.5275e-20 2.13408)
(1.2802 -1.57309e-20 1.912)
(1.63652 4.65271e-20 2.1934)
(0.649074 -1.67619e-20 1.90849)
(0.978413 -6.446e-20 2.22956)
(0.42567 -4.71633e-22 2.19026)
(9.9848 4.94101e-21 0.079026)
(9.99076 -1.81268e-23 0.057653)
(9.95261 2.58708e-21 0.127195)
(9.97041 -7.87474e-23 0.111687)
(9.90208 3.61145e-23 0.174244)
(9.93198 -2.44852e-21 0.163222)
(9.83389 -2.57013e-22 0.222736)
(9.87373 1.66168e-22 0.215306)
(9.74824 1.63306e-21 0.27417)
(9.79752 -5.15342e-22 0.270071)
(9.6446 1.57485e-21 0.329499)
(9.70419 -1.22235e-21 0.328713)
(9.52208 -5.7264e-22 0.389463)
(9.59306 1.81179e-22 0.392157)
(9.37963 -7.97339e-22 0.454513)
(9.46295 -3.42517e-21 0.461106)
(9.2162 1.25814e-21 0.524709)
(9.3127 2.74927e-21 0.535863)
(9.03085 2.4948e-21 0.59979)
(9.14132 4.11098e-21 0.616293)
(8.82285 8.34432e-22 0.679349)
(8.94799 7.35481e-24 0.701978)
(8.59174 -5.96622e-23 0.763056)
(8.73215 -1.56478e-23 0.792455)
(8.33722 3.99841e-21 0.850827)
(8.49342 1.86145e-21 0.887454)
(8.05905 -2.58069e-22 0.942911)
(8.23158 3.97085e-21 0.987053)
(7.75696 -1.30578e-20 1.03986)
(7.94635 4.15244e-21 1.09172)
(7.43047 5.23502e-22 1.14238)
(7.63736 -1.53414e-20 1.20221)
(7.07888 4.16183e-21 1.25118)
(7.30395 9.07449e-21 1.31942)
(6.70123 -1.52255e-20 1.36672)
(6.94516 -2.13713e-23 1.44412)
(6.29632 5.01092e-22 1.48901)
(6.55976 -2.04798e-20 1.57673)
(5.86284 1.0469e-20 1.61741)
(6.14626 2.62118e-20 1.7171)
(5.39953 1.82097e-20 1.75054)
(5.70304 5.69733e-21 1.86432)
(4.90531 1.82972e-20 1.88611)
(5.22849 1.79941e-20 2.01656)
(4.37959 -1.89565e-20 2.02094)
(4.72126 -1.16818e-20 2.17096)
(3.82251 -1.90247e-20 2.15089)
(4.18049 6.44948e-21 2.32355)
(3.23535 -7.1692e-21 2.27109)
(3.60619 -5.32787e-20 2.4693)
(2.62084 -7.00527e-21 2.3761)
(2.9997 2.75413e-20 2.60218)
(1.98359 6.31554e-20 2.46025)
(2.36387 2.92653e-20 2.71557)
(1.33038 -3.7089e-21 2.51926)
(1.70638 3.22899e-20 2.8025)
(0.669638 -4.7529e-20 2.5224)
(1.01695 -6.44734e-20 2.85917)
(0.439115 -2.10658e-22 2.81913)
(9.984 -5.03744e-21 0.0909618)
(9.99057 -4.88427e-21 0.0654362)
(9.95173 -5.1422e-21 0.148122)
(9.97 -2.57263e-21 0.12778)
(9.90229 -2.28654e-21 0.204715)
(9.93206 7.96866e-23 0.188488)
(9.83585 -1.00299e-22 0.26313)
(9.87529 1.66962e-22 0.250107)
(9.75249 -3.37922e-21 0.325103)
(9.80134 2.37158e-21 0.314814)
(9.65174 -2.59883e-21 0.391858)
(9.71088 2.97758e-21 0.384133)
(9.53274 -2.71512e-21 0.46431)
(9.60324 -3.6476e-22 0.459233)
(9.3945 1.96546e-22 0.543006)
(9.47731 1.13513e-21 0.540959)
(9.236 5.61959e-21 0.628041)
(9.332 2.35583e-21 0.629677)
(9.05635 1.57453e-21 0.719116)
(9.16637 8.21678e-24 0.725248)
(8.85488 -8.42995e-22 0.815754)
(8.97965 -5.09428e-21 0.827187)
(8.63111 1.92864e-21 0.917555)
(8.77129 -1.79991e-21 0.934949)
(8.38473 1.8595e-21 1.02441)
(8.54093 4.67462e-23 1.04821)
(8.11547 8.38247e-21 1.13664)
(8.28831 -3.93618e-21 1.16707)
(7.82294 1.63209e-21 1.25491)
(8.0131 1.24249e-20 1.29211)
(7.50656 -6.49761e-21 1.38019)
(7.7148 -1.50267e-20 1.42429)
(7.16542 4.78165e-21 1.51343)
(7.39262 4.33781e-21 1.56477)
(6.79829 -5.52341e-21 1.65539)
(7.04538 -4.67508e-21 1.71467)
(6.4036 5.76795e-21 1.80634)
(6.67152 -4.41775e-22 1.87474)
(5.97956 2.1194e-20 1.96588)
(6.2691 1.55221e-20 2.04515)
(5.52423 5.64895e-21 2.13266)
(5.83591 1.64692e-20 2.22521)
(5.0357 -1.22814e-20 2.30431)
(5.36955 0 2.41321)
(4.51238 1.40109e-20 2.47722)
(4.86765 -6.17382e-21 2.60614)
(3.95331 -2.84275e-20 2.6465)
(4.32816 4.45711e-20 2.7996)
(3.35863 -1.76964e-20 2.80602)
(3.74977 -7.89312e-20 2.9876)
(2.73016 6.38564e-20 2.94855)
(3.13252 6.18963e-20 3.1626)
(2.07191 -1.44312e-21 3.06628)
(2.47813 -2.71639e-20 3.31588)
(1.39057 -2.97989e-20 3.15296)
(1.79455 -1.80742e-21 3.43792)
(0.694552 -1.67053e-20 3.17039)
(1.06803 0 3.52333)
(0.457864 -3.24066e-20 3.49474)
(9.98382 -2.39097e-21 0.10296)
(9.99057 7.31954e-21 0.0733089)
(9.95189 2.68136e-21 0.168696)
(9.97022 -3.87662e-23 0.143705)
(9.90377 2.53361e-21 0.234403)
(9.93317 2.84191e-23 0.213076)
(9.83942 2.66585e-21 0.302368)
(9.87818 -2.61453e-21 0.283811)
(9.7588 8.73511e-21 0.374477)
(9.80686 2.6966e-21 0.358088)
(9.66147 5.1704e-21 0.452197)
(9.71973 3.17742e-21 0.437676)
(9.54662 3.5031e-21 0.536635)
(9.61614 -3.6112e-21 0.523972)
(9.4133 3.30902e-21 0.628445)
(9.49505 1.18515e-21 0.617963)
(9.26057 -3.28209e-21 0.727752)
(9.35546 -4.71701e-21 0.720077)
(9.08759 -6.72182e-21 0.834223)
(9.19647 7.5039e-22 0.830164)
(8.8937 -6.01131e-21 0.947311)
(9.01737 -3.36988e-21 0.947682)
(8.67846 -3.65915e-21 1.06655)
(8.81764 -2.33567e-23 1.07201)
(8.44154 -5.79546e-21 1.19184)
(8.59693 1.87116e-21 1.2028)
(8.18263 3.05546e-22 1.32354)
(8.35495 -5.80819e-21 1.34017)
(7.90128 -4.56396e-21 1.46254)
(8.09135 4.12046e-21 1.48484)
(7.59676 -3.96039e-21 1.61003)
(7.80554 -1.26848e-20 1.63802)
(7.268 -5.22705e-21 1.76731)
(7.49658 -1.18908e-23 1.80121)
(6.91349 4.51079e-22 1.93553)
(7.1631 -4.94541e-21 1.9759)
(6.53129 9.49417e-21 2.11533)
(6.80324 1.10343e-23 2.1633)
(6.11903 1.08098e-20 2.30665)
(6.41459 4.76329e-21 2.36402)
(5.67404 1.06443e-20 2.50843)
(5.9943 2.93004e-22 2.57782)
(5.19344 6.0402e-21 2.71838)
(5.53908 0 2.80329)
(4.67442 2.49918e-20 2.93271)
(5.04536 -1.15207e-20 3.03758)
(4.11457 -7.24523e-21 3.14594)
(4.50959 4.8642e-20 3.27609)
(3.51251 2.21466e-21 3.35074)
(3.92869 -2.5651e-20 3.51212)
(2.8686 -3.01001e-20 3.53804)
(3.30082 2.72448e-20 3.73669)
(2.1859 -2.72071e-20 3.69742)
(2.62585 -3.07319e-20 3.93872)
(1.47114 2.80184e-20 3.82005)
(1.91174 1.04877e-21 4.10539)
(0.734258 -1.60744e-20 3.86139)
(1.14151 -1.13468e-22 4.22813)
(0.487169 -7.18943e-21 4.22032)
(9.98401 9.58158e-21 0.114812)
(9.9907 9.74745e-21 0.0810892)
(9.9528 -2.69087e-21 0.188749)
(9.97089 -7.72988e-23 0.159268)
(9.90628 -5.15196e-21 0.263122)
(9.93506 -8.01385e-23 0.23685)
(9.84435 -2.51843e-21 0.340213)
(9.88218 8.11372e-23 0.316247)
(9.76689 -2.85387e-21 0.42203)
(9.81382 -3.59482e-23 0.399665)
(9.67348 -5.6862e-21 0.510254)
(9.73046 -2.80324e-21 0.489058)
(9.56339 -5.87064e-21 0.606166)
(9.63147 -1.84744e-24 0.586031)
(9.43572 -6.91164e-21 0.710523)
(9.51587 -3.70934e-21 0.691706)
(9.28959 -6.17172e-22 0.823473)
(9.38275 -5.43866e-21 0.806571)
(9.12422 4.05088e-21 0.94465)
(9.23126 -8.04818e-22 0.930465)
(8.939 2.65707e-21 1.07344)
(9.06078 7.53161e-21 1.06279)
(8.73352 5.52804e-21 1.20934)
(8.87081 3.52745e-21 1.20286)
(8.50746 1.76387e-21 1.35223)
(8.66103 1.93825e-21 1.3503)
(8.26047 -1.8735e-21 1.50261)
(8.43118 1.91043e-21 1.50529)
(7.99207 -4.20239e-21 1.66153)
(8.18086 5.54269e-24 1.6687)
(7.70143 -8.58475e-21 1.8305)
(7.90945 4.13306e-21 1.84201)
(7.38733 2.08466e-22 2.01123)
(7.61592 -1.29956e-20 2.02709)
(7.04801 -5.3315e-21 2.20532)
(7.29875 8.95712e-21 2.22591)
(6.68117 -4.66839e-21 2.41393)
(6.95579 -9.69254e-21 2.44022)
(6.28388 -5.80468e-21 2.63753)
(6.58425 1.46959e-20 2.67127)
(5.85268 -1.03544e-20 2.87555)
(6.18061 -1.01455e-20 2.91944)
(5.38357 -1.76973e-20 3.1261)
(5.74064 1.05008e-20 3.18396)
(4.87226 1.28182e-20 3.38555)
(5.25943 -7.99114e-22 3.4625)
(4.31447 2.943e-20 3.64815)
(4.73158 1.26022e-20 3.75071)
(3.70662 0 3.90561)
(4.15165 0 4.04162)
(3.04682 2.60166e-20 4.14693)
(3.51501 0 4.32505)
(2.33636 -2.10092e-21 4.35845)
(2.81844 2.41695e-20 4.58733)
(1.58178 -2.70944e-20 4.52693)
(2.06871 -4.09214e-20 4.81099)
(0.796322 8.76021e-21 4.59981)
(1.24558 1.57653e-20 4.98073)
(0.530957 1.50381e-20 4.99632)
(9.98445 -3.13445e-23 0.126361)
(9.99091 -4.79955e-21 0.0886556)
(9.95428 2.53278e-21 0.208128)
(9.97188 4.84756e-21 0.174312)
(9.90964 5.15353e-21 0.290716)
(9.93758 2.5398e-21 0.259667)
(9.85044 2.56221e-21 0.376477)
(9.88711 -2.53919e-21 0.347251)
(9.77654 -1.83316e-23 0.467531)
(9.82205 -5.34653e-21 0.439332)
(9.68754 2.91421e-21 0.56574)
(9.74288 3.45679e-22 0.538015)
(9.58277 2.11255e-21 0.672548)
(9.64897 2.88354e-21 0.645088)
(9.46143 -2.25819e-21 0.788803)
(9.53946 1.12696e-21 0.761801)
(9.32268 -5.56869e-21 0.914676)
(9.41349 2.29626e-21 0.888696)
(9.16582 2.77663e-21 1.04977)
(9.27033 -4.01281e-21 1.0256)
(8.99032 8.35204e-21 1.19341)
(9.10939 8.88835e-23 1.17186)
(8.79579 -8.14557e-23 1.34505)
(8.93026 2.7424e-23 1.32674)
(8.58195 2.0844e-21 1.5046)
(8.73267 -2.86098e-23 1.48983)
(8.34847 3.76707e-21 1.67266)
(8.51637 7.54076e-21 1.66138)
(8.09483 8.38746e-21 1.85052)
(8.281 -7.69819e-21 1.84244)
(7.82018 -4.85139e-22 2.04002)
(8.02593 1.22524e-20 2.03477)
(7.52319 -3.98725e-21 2.24332)
(7.75012 -8.56635e-21 2.24065)
(7.20193 4.37247e-21 2.46256)
(7.45196 8.91228e-21 2.46259)
(6.8538 9.95596e-21 2.69959)
(7.12914 -4.30417e-21 2.703)
(6.47538 1.00643e-20 2.95558)
(6.77854 4.9138e-22 2.9639)
(6.06239 1.09618e-20 3.23078)
(6.39609 5.31123e-21 3.24657)
(5.60967 2.72606e-20 3.52405)
(5.97665 2.23371e-22 3.55126)
(5.11121 -8.73362e-22 3.83244)
(5.51388 2.71971e-20 3.87667)
(4.56039 -1.69748e-20 4.15049)
(5.0003 -2.27729e-20 4.21935)
(3.95057 0 4.46948)
(4.42741 -1.1482e-20 4.57285)
(3.27628 -1.54611e-21 4.77663)
(3.7866 2.07957e-20 4.92646)
(2.53536 -1.52827e-20 5.0543)
(3.06954 -1.06405e-20 5.26409)
(1.73242 2.74256e-21 5.28224)
(2.27896 -3.9262e-20 5.56232)
(0.88306 2.20257e-20 5.39493)
(1.38878 4.06816e-20 5.79498)
(0.592564 -6.79201e-22 5.83924)
(9.98507 1.96648e-22 0.137483)
(9.99119 -9.5289e-21 0.0959213)
(9.9562 4.82638e-21 0.226693)
(9.97311 1.8997e-23 0.188705)
(9.9137 -5.21482e-21 0.317036)
(9.9406 -3.89299e-23 0.281391)
(9.85753 -1.04813e-20 0.410976)
(9.89281 -7.45604e-25 0.376668)
(9.78756 -4.91253e-21 0.510748)
(9.83137 -2.50854e-21 0.476892)
(9.70341 3.45726e-22 0.61837)
(9.75675 1.76197e-22 0.584304)
(9.60449 1.87548e-21 0.73543)
(9.6684 3.58183e-22 0.700847)
(9.49008 5.69341e-21 0.862864)
(9.56552 -1.40628e-21 0.827891)
(9.35944 3.77438e-21 1.00086)
(9.44734 3.82057e-21 0.966024)
(9.21194 -6.64912e-21 1.14899)
(9.31323 0 1.11506)
(9.04712 -8.23464e-21 1.30652)
(9.1627 -3.30926e-21 1.27429)
(8.86468 7.93276e-23 1.47288)
(8.99541 -1.72344e-21 1.44292)
(8.66436 5.51894e-21 1.64799)
(8.81116 1.76106e-21 1.62053)
(8.4459 -4.10307e-21 1.83258)
(8.60976 1.42053e-22 1.80743)
(8.20881 -3.59032e-21 2.02816)
(8.39093 -1.14295e-20 2.00485)
(7.95226 3.92245e-21 2.23694)
(8.15411 1.03623e-23 2.21483)
(7.67491 4.54059e-21 2.46157)
(7.89831 4.01723e-21 2.44008)
(7.37478 8.36727e-23 2.70484)
(7.62194 4.51051e-21 2.68371)
(7.04905 -1.37036e-20 2.96936)
(7.32267 4.498e-21 2.94885)
(6.69396 -4.20013e-21 3.25727)
(6.99722 -4.8733e-21 3.23847)
(6.30455 -5.48224e-21 3.56992)
(6.64116 4.97548e-21 3.55501)
(5.87453 4.73751e-22 3.90746)
(6.24863 -4.58275e-22 3.90011)
(5.39609 4.71911e-21 4.26827)
(5.812 4.78654e-22 4.27417)
(4.85983 -1.71515e-20 4.6481)
(5.32159 -1.09913e-20 4.67558)
(4.25511 9.69879e-21 5.03883)
(4.76539 -5.99481e-21 5.09964)
(3.57101 1.13405e-20 5.42676)
(4.12941 2.36282e-20 5.53669)
(2.79885 -3.49375e-20 5.7902)
(3.39742 -9.08396e-21 5.96947)
(1.93706 3.80402e-23 6.09952)
(2.56321 -2.56478e-20 6.36869)
(0.998895 1.72752e-20 6.26899)
(1.58762 1.24243e-20 6.69396)
(0.679936 -1.69513e-20 6.78812)
(9.98582 -9.58982e-21 0.148081)
(9.99151 -4.68406e-21 0.102821)
(9.95847 -4.84608e-21 0.244322)
(9.97454 -4.866e-21 0.202342)
(9.91834 5.17412e-21 0.341943)
(9.94403 -3.89295e-23 0.301899)
(9.86548 7.93918e-21 0.443542)
(9.89917 8.5279e-23 0.404357)
(9.79976 2.61199e-21 0.551471)
(9.84163 2.8178e-21 0.51217)
(9.72086 1.90722e-22 0.667885)
(9.77191 5.53736e-21 0.627705)
(9.62827 -2.94504e-21 0.794502)
(9.68951 -5.52911e-21 0.753042)
(9.52135 -3.21564e-21 0.932335)
(9.59373 -1.08654e-21 0.889654)
(9.39946 0 1.08158)
(9.48391 3.69308e-21 1.03817)
(9.26208 3.29791e-21 1.24178)
(9.35952 2.28108e-21 1.19838)
(9.10884 3.21919e-21 1.41215)
(9.22016 8.86913e-22 1.36953)
(8.9395 0 1.59206)
(9.06561 0 1.55075)
(8.75391 -3.63512e-21 1.78149)
(8.89574 0 1.74162)
(8.55189 -7.32243e-21 1.98124)
(8.71048 -6.5045e-24 1.9425)
(8.33305 -7.68746e-21 2.19309)
(8.50967 -3.64669e-21 2.15475)
(8.09665 1.56929e-22 2.4196)
(8.29288 -1.88055e-22 2.38073)
(7.84147 3.98816e-21 2.66394)
(8.05927 3.90931e-21 2.62358)
(7.56557 8.91595e-21 2.92956)
(7.80742 1.89242e-23 2.88696)
(7.26616 1.32172e-20 3.21998)
(7.53516 4.53787e-21 3.17483)
(6.93931 4.41937e-21 3.53848)
(7.23929 4.36386e-21 3.49119)
(6.57967 9.93413e-21 3.88785)
(6.91532 0 3.83985)
(6.18008 -4.40539e-22 4.27006)
(6.55705 1.91399e-20 4.22427)
(5.73108 -1.53669e-20 4.6857)
(6.15599 -1.4897e-20 4.64719)
(5.22043 2.25406e-22 5.13305)
(5.70063 -1.04281e-20 5.11002)
(4.63264 8.30249e-21 5.60642)
(5.17543 6.33187e-22 5.61169)
(3.94922 2.8145e-21 6.09342)
(4.5601 4.11123e-22 6.1463)
(3.15039 0 6.57018)
(3.82738 1.04632e-20 6.69912)
(2.2208 -1.24847e-20 6.997)
(2.95494 1.0674e-20 7.23816)
(1.16229 -2.31987e-20 7.25844)
(1.87575 -1.22909e-20 7.70753)
(0.812677 -2.4065e-20 7.89676)
(9.98667 3.62133e-23 0.15808)
(9.99188 4.74069e-21 0.109305)
(9.96102 0 0.260909)
(9.97612 4.76961e-21 0.215134)
(9.92348 -5.12618e-21 0.365312)
(9.94778 -4.88701e-21 0.321084)
(9.87416 -5.00274e-21 0.474025)
(9.90609 -3.76156e-25 0.430188)
(9.81299 5.77617e-21 0.589513)
(9.85269 0 0.545009)
(9.73969 -3.16893e-22 0.714058)
(9.78815 5.31515e-21 0.668026)
(9.65383 -3.61796e-21 0.849489)
(9.71206 -6.02426e-24 0.801439)
(9.55489 5.87865e-21 0.996882)
(9.62379 2.88118e-21 0.946809)
(9.44233 5.95699e-21 1.15645)
(9.52282 1.17234e-23 1.1048)
(9.31573 -1.46989e-22 1.32767)
(9.40871 2.99889e-21 1.27517)
(9.17483 -2.34289e-21 1.50972)
(9.28119 -3.09929e-21 1.4571)
(9.01951 0 1.70193)
(9.14013 0 1.64966)
(8.84973 3.62538e-21 1.90427)
(8.98556 5.00931e-21 1.8524)
(8.66544 3.6188e-21 2.11766)
(8.81753 1.85886e-21 2.06571)
(8.46639 3.8905e-21 2.34408)
(8.63604 3.71073e-21 2.2911)
(8.25206 3.61827e-21 2.58643)
(8.44088 3.73962e-21 2.53116)
(8.02143 -1.01629e-22 2.84838)
(8.23146 -7.80088e-21 2.78942)
(7.77282 -4.30866e-21 3.1341)
(8.00669 0 3.07012)
(7.50366 -4.31564e-21 3.44801)
(7.76475 -2.56688e-22 3.37799)
(7.2102 -9.95943e-23 3.79467)
(7.50284 4.10149e-21 3.7181)
(6.88712 9.43388e-21 4.17858)
(7.21684 -4.28584e-21 4.09575)
(6.52692 4.3042e-21 4.60404)
(6.90083 5.03562e-21 4.51648)
(6.11916 -9.89609e-21 5.0748)
(6.54625 -6.61696e-22 4.98598)
(5.6492 -9.87994e-21 5.5933)
(6.14078 -1.39921e-20 5.50985)
(5.0968 -7.24694e-21 6.15909)
(5.66648 -9.26972e-21 6.09291)
(4.43425 8.24406e-21 6.76552)
(5.0973 -4.59821e-21 6.73726)
(3.6254 2.11373e-20 7.39249)
(4.39327 1.05615e-20 7.43778)
(2.62847 1.01614e-20 7.99512)
(3.50764 1.53597e-20 8.17025)
(1.41137 -1.34658e-20 8.41984)
(2.31915 -9.88387e-22 8.87241)
(1.03594 -1.4453e-20 9.26235)
(9.98761 9.47328e-21 0.167418)
(9.99227 9.33034e-21 0.115334)
(9.96379 -2.35364e-22 0.276365)
(9.97781 -5.1752e-24 0.227011)
(9.92902 2.96828e-22 0.387033)
(9.95181 2.01427e-25 0.338853)
(9.88346 5.00082e-21 0.502291)
(9.91344 9.51166e-23 0.454054)
(9.82707 -3.94446e-22 0.624713)
(9.8644 0 0.575277)
(9.75967 5.56097e-21 0.75669)
(9.8053 -1.09479e-20 0.705104)
(9.6809 6.52594e-21 0.900148)
(9.7358 5.87453e-21 0.84584)
(9.59034 -3.01884e-21 1.05622)
(9.65539 3.61817e-22 0.999118)
(9.48759 -2.9071e-21 1.2251)
(9.56366 -2.59377e-21 1.16562)
(9.37234 -2.72745e-23 1.40625)
(9.46029 -3.77818e-21 1.34507)
(9.24444 -7.20896e-22 1.59874)
(9.34515 8.83828e-23 1.53658)
(9.10391 5.06955e-21 1.80186)
(9.21824 3.14964e-21 1.73915)
(8.95085 3.20637e-21 2.01559)
(9.07971 4.94099e-21 1.95227)
(8.78538 1.96936e-21 2.24091)
(8.9298 -3.42632e-21 2.17634)
(8.60749 3.56104e-21 2.47996)
(8.76872 5.36613e-21 2.41296)
(8.41691 -7.80268e-21 2.73595)
(8.59654 -2.34159e-23 2.66492)
(8.21298 -7.60038e-21 3.01299)
(8.41303 -1.14151e-20 2.93607)
(7.99445 4.04854e-21 3.31589)
(8.21756 4.99799e-23 3.23113)
(7.75925 8.20517e-21 3.64998)
(8.00889 9.43396e-24 3.55552)
(7.50423 -1.7329e-22 4.02108)
(7.78495 4.20184e-21 3.9153)
(7.22468 -8.57184e-21 4.43552)
(7.54254 3.77185e-21 4.31719)
(6.91363 3.70875e-23 4.90024)
(7.27675 4.23984e-21 4.76885)
(6.56079 -4.88311e-21 5.42289)
(6.9802 -4.32666e-21 5.27916)
(6.15081 -1.33251e-20 6.01174)
(6.64165 -8.72343e-21 5.8587)
(5.66037 -6.55639e-21 6.67503)
(6.24351 8.32512e-21 6.52019)
(5.05357 -2.01105e-21 7.41876)
(5.7578 -6.34151e-21 7.27849)
(4.27461 4.90929e-21 8.23951)
(5.13558 1.00459e-22 8.14905)
(3.2388 3.58719e-21 9.10774)
(4.30356 4.68693e-21 9.1385)
(1.83245 -1.01888e-21 9.84109)
(3.04858 -8.36953e-22 10.2183)
(1.45858 5.5702e-22 11.0484)
(9.98861 -2.60213e-22 0.176044)
(9.99268 -9.5106e-25 0.120877)
(9.96674 2.30285e-22 0.290618)
(9.97961 -9.16781e-23 0.237916)
(9.93489 -2.01683e-22 0.407014)
(9.95604 4.89041e-21 0.355133)
(9.89325 -4.90679e-21 0.52823)
(9.92116 -3.86833e-23 0.475861)
(9.84186 -1.06846e-20 0.656937)
(9.87664 5.1665e-21 0.602862)
(9.78059 -1.04281e-20 0.795624)
(9.82317 -5.38871e-21 0.738806)
(9.7092 -3.56336e-22 0.946295)
(9.7605 0 0.886086)
(9.62736 7.511e-22 1.11012)
(9.68821 -3.52063e-22 1.04639)
(9.5348 -3.47705e-21 1.28729)
(9.60603 3.70813e-22 1.22041)
(9.43133 -3.6162e-21 1.47719)
(9.51377 -1.03224e-20 1.40783)
(9.31696 3.99392e-21 1.67883)
(9.41141 5.3785e-21 1.60767)
(9.19183 3.04533e-21 1.89143)
(9.29912 -3.8573e-21 1.81884)
(9.05622 -1.78828e-21 2.1149)
(9.1772 -4.92288e-21 2.04076)
(8.91045 7.39749e-23 2.35029)
(9.04609 -5.8335e-23 2.2738)
(8.75479 1.71704e-21 2.59983)
(8.90625 1.73785e-21 2.51959)
(8.58933 -3.76743e-21 2.86696)
(8.75808 0 2.78105)
(8.41388 -3.6359e-21 3.15614)
(8.60179 -3.72265e-21 3.06225)
(8.22777 -3.98068e-21 3.4727)
(8.43735 7.39473e-21 3.36826)
(8.02976 -3.9348e-21 3.82274)
(8.2643 -2.38202e-22 3.70501)
(7.81769 8.15295e-21 4.21318)
(8.08162 -3.81453e-21 4.07932)
(7.58814 1.65894e-20 4.65203)
(7.88749 4.08024e-21 4.49907)
(7.33578 -1.92733e-22 5.14878)
(7.67892 1.25312e-20 4.97367)
(7.05228 -8.21264e-21 5.71514)
(7.45114 -1.22703e-20 5.5148)
(6.72442 1.30069e-20 6.36608)
(7.19648 -1.5927e-21 6.13777)
(6.33039 8.36068e-21 7.12127)
(6.90233 1.07836e-20 6.86356)
(5.83271 -4.12341e-21 8.00693)
(6.54723 -2.52747e-21 7.72248)
(5.16293 0 9.0569)
(6.08926 2.18673e-21 8.76067)
(4.18696 3.15997e-22 10.3121)
(5.45656 -7.49616e-22 10.0508)
(2.62355 8.72075e-22 11.682)
(4.34966 9.99327e-22 11.7145)
(2.38107 2.3787e-21 13.6212)
(9.98965 1.67721e-22 0.183921)
(9.99311 -4.71405e-21 0.125911)
(9.96982 4.62932e-21 0.303607)
(9.98147 9.19274e-21 0.247805)
(9.941 4.99165e-21 0.425178)
(9.96044 4.78663e-24 0.369862)
(9.90343 1.00962e-20 0.55174)
(9.92915 9.61345e-21 0.49554)
(9.85719 1.03318e-20 0.686054)
(9.8893 4.92641e-22 0.627679)
(9.80225 5.10266e-21 0.830689)
(9.84162 5.33871e-21 0.76903)
(9.73844 0 0.987714)
(9.78597 4.8959e-21 0.922055)
(9.66557 -7.23759e-22 1.15832)
(9.72204 4.78924e-21 1.08848)
(9.58348 -6.60387e-21 1.34268)
(9.64968 -3.9868e-22 1.269)
(9.49213 -1.14155e-21 1.54011)
(9.56884 -5.83905e-21 1.46324)
(9.39165 -2.58269e-21 1.74953)
(9.47966 1.02009e-20 1.67012)
(9.28236 -1.18326e-20 1.97005)
(9.38242 -4.21966e-21 1.88844)
(9.16472 -3.13375e-21 2.20153)
(9.27762 -2.01437e-21 2.11753)
(9.03928 1.62488e-21 2.44499)
(9.16591 -1.33153e-21 2.35767)
(8.90663 0 2.70271)
(9.04802 1.56576e-21 2.61048)
(8.76726 0 2.97824)
(8.92472 -1.59675e-21 2.87889)
(8.62154 7.42488e-21 3.27626)
(8.79675 1.57953e-21 3.16706)
(8.46959 1.10378e-20 3.60245)
(8.66472 4.0697e-21 3.48025)
(8.31115 -1.44157e-22 3.9634)
(8.52913 5.511e-21 3.82466)
(8.14546 -7.77584e-21 4.36683)
(8.39023 -5.40642e-22 4.20752)
(7.97103 1.38671e-22 4.82192)
(8.24801 -5.7411e-21 4.63735)
(7.78529 1.61912e-22 5.34006)
(8.10208 4.03621e-21 5.12451)
(7.58389 -5.52281e-21 5.93615)
(7.95152 -1.98006e-21 5.68234)
(7.3595 -3.66626e-21 6.63081)
(7.79477 1.67679e-21 6.32892)
(7.09928 -2.18996e-22 7.45439)
(7.62921 -1.94277e-21 7.09053)
(6.77909 3.83842e-21 8.45505)
(7.45139 2.00707e-21 8.00835)
(6.34861 1.4776e-21 9.71752)
(7.25565 3.79952e-23 9.15401)
(5.68364 -6.59876e-23 11.4336)
(7.06902 -1.39108e-21 10.6726)
(4.35501 1.05216e-21 14.2277)
(6.98524 6.32039e-22 12.9862)
(6.19736 9.37149e-21 17.9007)
(-0.654569 1.51488e-19 0.370848)
(-0.381355 -2.66785e-21 0.62819)
(-1.35382 7.36306e-20 0.370544)
(-1.03008 3.00768e-20 0.658484)
(-2.06646 4.48098e-20 0.355856)
(-1.7583 7.35977e-20 0.656543)
(-2.7763 7.06993e-21 0.332786)
(-2.48788 -7.17746e-20 0.64051)
(-3.46415 7.23433e-21 0.300697)
(-3.20483 -5.06338e-23 0.60768)
(-4.10551 -3.39989e-21 0.25851)
(-3.88681 0 0.554421)
(-4.67029 3.0049e-21 0.205449)
(-4.505 -1.38403e-20 0.47746)
(-5.12407 3.62523e-21 0.141533)
(-5.02494 6.71204e-21 0.375007)
(-5.43083 1.36109e-21 0.0678123)
(-5.40916 3.24289e-21 0.247738)
(-5.55704 6.02038e-21 -0.0136727)
(-5.62142 3.6232e-21 0.0995803)
(-5.47641 -1.24257e-21 -0.100433)
(-5.63303 4.53789e-21 -0.0621919)
(-5.17315 -1.18992e-21 -0.187322)
(-5.42228 1.35211e-22 -0.228432)
(-4.65085 1.38504e-21 -0.266055)
(-4.98527 1.22701e-21 -0.384282)
(-3.93431 0 -0.328865)
(-4.34 -5.09672e-22 -0.514912)
(-3.06584 0 -0.370664)
(-3.52309 -3.45904e-22 -0.609547)
(-2.09722 -1.36294e-22 -0.390013)
(-2.58297 1.11158e-21 -0.663981)
(-1.07995 -4.71344e-23 -0.389002)
(-1.57036 -1.369e-23 -0.681063)
(-0.0560262 3.67014e-23 -0.371451)
(-0.513925 9.3503e-23 -0.669524)
(0.93884 -8.80272e-23 -0.342568)
(0.515792 -5.76493e-23 -0.635341)
(1.87754 -4.76791e-23 -0.308334)
(1.4824 -3.26582e-23 -0.585487)
(2.7459 3.95046e-23 -0.272702)
(2.4017 -1.4811e-23 -0.528981)
(3.53643 8.4013e-23 -0.237702)
(3.24642 2.31344e-23 -0.470351)
(4.24661 1.21092e-23 -0.204675)
(4.01094 5.79556e-23 -0.412694)
(4.87764 -1.06345e-23 -0.174464)
(4.69497 -2.50596e-24 -0.358173)
(5.43342 0 -0.147495)
(5.30127 0 -0.308118)
(5.91945 0 -0.123889)
(5.83471 0 -0.263195)
(6.34218 5.01257e-24 -0.103577)
(6.30134 7.79281e-24 -0.223604)
(6.70852 9.91374e-24 -0.0864343)
(6.7078 -1.70313e-24 -0.189286)
(7.02602 4.89603e-24 -0.073452)
(7.06037 -1.3e-24 -0.160259)
(7.43147 0 -0.140128)
(-0.676595 -1.25191e-19 0.988705)
(-0.38731 -3.06945e-20 1.31264)
(-1.40523 2.93958e-20 1.00051)
(-1.05714 1.20669e-19 1.34986)
(-2.14147 -3.96643e-20 0.983912)
(-1.81308 -5.74761e-20 1.33833)
(-2.87328 -7.96468e-20 0.947086)
(-2.56678 -5.7418e-20 1.30289)
(-3.58221 -7.16634e-21 0.883698)
(-3.30961 -7.08593e-21 1.23503)
(-4.2432 -1.02578e-20 0.78788)
(-4.0188 0 1.12623)
(-4.82489 -1.04998e-20 0.655424)
(-4.66391 -1.04502e-20 0.969288)
(-5.29114 6.36969e-21 0.485169)
(-5.20787 0 0.760227)
(-5.60396 5.48773e-21 0.280084)