/*--------------------------------*- C++ -*----------------------------------*\
| =========                 |                                                 |
| \\      /  F ield         | OpenFOAM: The Open Source CFD Toolbox           |
|  \\    /   O peration     | Version:  dev                                   |
|   \\  /    A nd           | Web:      www.OpenFOAM.org                      |
|    \\/     M anipulation  |                                                 |
\*---------------------------------------------------------------------------*/
FoamFile
{
    version     2.0;
    format      ascii;
    class       volVectorField;
    location    "3.5";
    object      cellDisplacement;
}
// * * * * * * * * * * * * * * * * * * * * * * * * * * * * * * * * * * * * * //

dimensions      [0 1 0 0 0 0 0];

internalField   nonuniform List<vector> 
465
(
(0.00210312 0 6.20574e-07)
(0.00604583 0 1.83259e-06)
(0.0094938 0 3.0296e-06)
(0.0124814 0 4.28501e-06)
(0.0150428 0 5.66147e-06)
(0.0172098 0 7.21606e-06)
(0.0190113 0 9.00431e-06)
(0.0204732 0 1.10833e-05)
(0.0216189 0 1.35141e-05)
(0.0224688 0 1.6364e-05)
(0.0230407 0 1.97081e-05)
(0.0233503 0 2.36316e-05)
(0.0234111 0 2.82308e-05)
(0.0232347 0 3.36149e-05)
(0.0228316 0 3.99076e-05)
(0.0222111 0 4.72485e-05)
(0.0213821 0 5.57945e-05)
(0.0203537 0 6.57221e-05)
(0.0191361 0 7.72303e-05)
(0.0177413 0 9.05453e-05)
(0.0161842 0 0.000105928)
(0.00210555 0 1.85139e-06)
(0.00605306 0 5.46721e-06)
(0.00950579 0 9.03804e-06)
(0.0124984 0 1.27825e-05)
(0.0150652 0 1.68872e-05)
(0.0172382 0 2.15219e-05)
(0.0190465 0 2.68517e-05)
(0.0205163 0 3.30459e-05)
(0.0216711 0 4.02858e-05)
(0.0225315 0 4.87703e-05)
(0.0231158 0 5.87223e-05)
(0.0234397 0 7.03926e-05)
(0.0235171 0 8.40657e-05)
(0.0233601 0 0.000100064)
(0.0229794 0 0.00011875)
(0.0223847 0 0.000140533)
(0.0215854 0 0.000165872)
(0.020591 0 0.000195279)
(0.019412 0 0.000229326)
(0.0180609 0 0.000268657)
(0.016553 0 0.000314001)
(0.00211041 0 3.0515e-06)
(0.00606746 0 9.01098e-06)
(0.00952967 0 1.48953e-05)
(0.0125321 0 2.10638e-05)
(0.0151097 0 2.78228e-05)
(0.0172947 0 3.54504e-05)
(0.0191166 0 4.42167e-05)
(0.0206021 0 5.4398e-05)
(0.021775 0 6.62891e-05)
(0.0226564 0 8.02133e-05)
(0.023265 0 9.65313e-05)
(0.0236173 0 0.000115649)
(0.0237276 0 0.000138024)
(0.0236088 0 0.000164174)
(0.0232723 0 0.00019468)
(0.0227285 0 0.000230192)
(0.0219877 0 0.000271434)
(0.0210601 0 0.000319204)
(0.0199572 0 0.000374379)
(0.018692 0 0.00043792)
(0.0172808 0 0.00051088)
(0.00211761 0 4.20106e-06)
(0.00608882 0 1.2405e-05)
(0.00956509 0 2.05032e-05)
(0.0125822 0 2.89881e-05)
(0.0151757 0 3.82791e-05)
(0.0173785 0 4.87556e-05)
(0.0192205 0 6.07849e-05)
(0.0207291 0 7.47415e-05)
(0.0219286 0 9.10236e-05)
(0.0228409 0 0.000110066)
(0.0234855 0 0.000132352)
(0.0238794 0 0.000158424)
(0.0240382 0 0.000188891)
(0.0239755 0 0.000224437)
(0.0237037 0 0.000265826)
(0.0232347 0 0.000313906)
(0.0225795 0 0.000369607)
(0.0217498 0 0.000433941)
(0.020758 0 0.000507987)
(0.0196183 0 0.000592883)
(0.0183477 0 0.0006898)
(0.00212708 0 5.28089e-06)
(0.00611686 0 1.55924e-05)
(0.00961155 0 2.57671e-05)
(0.0126479 0 3.64204e-05)
(0.0152622 0 4.80749e-05)
(0.0174882 0 6.12024e-05)
(0.0193565 0 7.62567e-05)
(0.0208952 0 9.36988e-05)
(0.0221295 0 0.000114016)
(0.023082 0 0.000137739)
(0.0237732 0 0.000165452)
(0.0242212 0 0.000197809)
(0.0244427 0 0.00023554)
(0.0244525 0 0.00027946)
(0.0242645 0 0.000330469)
(0.0238918 0 0.000389559)
(0.0233471 0 0.000457797)
(0.0226434 0 0.000536317)
(0.0217943 0 0.000626288)
(0.0208154 0 0.000728869)
(0.0197245 0 0.000845141)
(0.00213867 0 6.27306e-06)
(0.00615119 0 1.85201e-05)
(0.00966839 0 3.05985e-05)
(0.0127282 0 4.32342e-05)
(0.0153679 0 5.70417e-05)
(0.0176221 0 7.25728e-05)
(0.0195225 0 9.03554e-05)
(0.0210977 0 0.000110922)
(0.0223741 0 0.000134834)
(0.0233753 0 0.000162694)
(0.0241228 0 0.000195166)
(0.024636 0 0.000232985)
(0.0249329 0 0.000276966)
(0.0250298 0 0.000328011)
(0.0249422 0 0.000387107)
(0.0246849 0 0.000455322)
(0.0242721 0 0.00053379)
(0.0237186 0 0.000623675)
(0.0230396 0 0.000726123)
(0.0222516 0 0.000842182)
(0.0213731 0 0.000972672)
(0.00215221 0 7.16119e-06)
(0.00619129 0 2.11397e-05)
(0.00973477 0 3.49172e-05)
(0.0128219 0 4.93156e-05)
(0.0154912 0 6.50274e-05)
(0.0177783 0 8.26712e-05)
(0.0197157 0 0.000102834)
(0.0213333 0 0.000126105)
(0.0226583 0 0.000153096)
(0.0237155 0 0.000184464)
(0.0245277 0 0.000220922)
(0.0251157 0 0.000263255)
(0.0254989 0 0.000312322)
(0.0256952 0 0.000369067)
(0.025722 0 0.000434506)
(0.0255956 0 0.000509723)
(0.0253325 0 0.000595841)
(0.0249489 0 0.000693972)
(0.0244618 0 0.00080515)
(0.0238886 0 0.00093021)
(0.0232486 0 0.00106962)
(0.00216752 0 7.93089e-06)
(0.00623659 0 2.34085e-05)
(0.00980969 0 3.86527e-05)
(0.0129276 0 5.45648e-05)
(0.0156302 0 7.19003e-05)
(0.0179541 0 9.13296e-05)
(0.019933 0 0.000113484)
(0.0215979 0 0.000138988)
(0.0229771 0 0.000168488)
(0.0240966 0 0.000202666)
(0.0249805 0 0.000242259)
(0.025651 0 0.000288064)
(0.0261292 0 0.000340949)
(0.0264346 0 0.000401845)
(0.0265865 0 0.000471749)
(0.0266031 0 0.000551696)
(0.0265028 0 0.000642729)
(0.0263037 0 0.000745841)
(0.0260242 0 0.000861886)
(0.0256832 0 0.000991442)
(0.0252998 0 0.00113461)
(0.00218435 0 8.57001e-06)
(0.00628639 0 2.52908e-05)
(0.00989203 0 4.17462e-05)
(0.0130437 0 5.88991e-05)
(0.0157827 0 7.75521e-05)
(0.0181468 0 9.84114e-05)
(0.0201709 0 0.000122135)
(0.0218872 0 0.000149367)
(0.023325 0 0.000180763)
(0.0245117 0 0.00021701)
(0.0254727 0 0.000258836)
(0.0262317 0 0.000307019)
(0.0268112 0 0.00036239)
(0.0272327 0 0.000425832)
(0.027517 0 0.000498261)
(0.0276845 0 0.00058061)
(0.0277553 0 0.000673786)
(0.0277495 0 0.000778606)
(0.027687 0 0.000895704)
(0.0275878 0 0.00102539)
(0.0274713 0 0.00116746)
(0.00220246 0 9.06885e-06)
(0.00633995 0 2.67581e-05)
(0.00998054 0 4.41513e-05)
(0.0131684 0 6.22541e-05)
(0.0159463 0 8.18998e-05)
(0.0183534 0 0.000103814)
(0.0204257 0 0.000128664)
(0.0221965 0 0.000157095)
(0.0236963 0 0.000189755)
(0.0249538 0 0.000227305)
(0.0259955 0 0.000270441)
(0.0268468 0 0.000319888)
(0.0275316 0 0.000376407)
(0.028073 0 0.000440783)
(0.0284936 0 0.000513813)
(0.0288156 0 0.000596275)
(0.0290609 0 0.000688891)
(0.0292513 0 0.000792262)
(0.0294082 0 0.000906779)
(0.0295528 0 0.0010325)
(0.0297047 0 0.00116899)
(0.00222158 0 9.42032e-06)
(0.00639647 0 2.77897e-05)
(0.0100739 0 4.58347e-05)
(0.0132999 0 6.45848e-05)
(0.0161187 0 8.48868e-05)
(0.0185708 0 0.00010747)
(0.0206933 0 0.000132995)
(0.0225207 0 0.00016209)
(0.0240848 0 0.000195372)
(0.0254151 0 0.000233463)
(0.0265397 0 0.000276993)
(0.0274851 0 0.000326611)
(0.0282766 0 0.00038297)
(0.0289389 0 0.000446728)
(0.0294961 0 0.000518518)
(0.029972 0 0.000598927)
(0.03039 0 0.000688451)
(0.0307735 0 0.000787443)
(0.0311453 0 0.000896037)
(0.0315275 0 0.00101406)
(0.0319405 0 0.00114091)
(0.00224141 0 9.61998e-06)
(0.00645508 0 2.83729e-05)
(0.0101707 0 4.67767e-05)
(0.0134361 0 6.58657e-05)
(0.0162972 0 8.64835e-05)
(0.0187955 0 0.000109347)
(0.0209697 0 0.000135096)
(0.0228549 0 0.000164326)
(0.0244841 0 0.000197605)
(0.0258882 0 0.000235492)
(0.027096 0 0.000278537)
(0.0281353 0 0.000327283)
(0.0290327 0 0.000382255)
(0.029814 0 0.000443949)
(0.0305046 0 0.000512809)
(0.0311296 0 0.000589197)
(0.0317136 0 0.000673357)
(0.0322813 0 0.000765365)
(0.0328565 0 0.000865083)
(0.0334622 0 0.0009721)
(0.0341193 0 0.00108568)
(0.00226165 0 9.66607e-06)
(0.00651492 0 2.85028e-05)
(0.0102694 0 4.6971e-05)
(0.0135751 0 6.60908e-05)
(0.016479 0 8.66868e-05)
(0.0190244 0 0.00010945)
(0.0212505 0 0.000134984)
(0.0231938 0 0.000163835)
(0.0248882 0 0.000196513)
(0.0263653 0 0.000233495)
(0.0276552 0 0.000275235)
(0.0287863 0 0.00032215)
(0.0297864 0 0.000374619)
(0.0306822 0 0.000432959)
(0.0314999 0 0.000497402)
(0.0322655 0 0.000568067)
(0.0330045 0 0.000644926)
(0.033742 0 0.000727764)
(0.0345027 0 0.000816146)
(0.0353099 0 0.000909395)
(0.0361851 0 0.0010066)
(0.002282 0 9.55944e-06)
(0.00657508 0 2.81818e-05)
(0.0103687 0 4.64243e-05)
(0.0137147 0 6.52729e-05)
(0.0166617 0 8.5519e-05)
(0.0192539 0 0.000107814)
(0.0215317 0 0.000132714)
(0.0235325 0 0.000160706)
(0.0252908 0 0.000192226)
(0.0268392 0 0.000227661)
(0.0282084 0 0.000267353)
(0.0294277 0 0.000311588)
(0.0305253 0 0.000360583)
(0.0315286 0 0.000414466)
(0.0324643 0 0.000473252)
(0.0333588 0 0.00053681)
(0.0342377 0 0.000604835)
(0.0351263 0 0.000676809)
(0.036049 0 0.000751988)
(0.037029 0 0.000829389)
(0.0380874 0 0.000907834)
(0.00230216 0 9.30358e-06)
(0.00663467 0 2.74195e-05)
(0.0104671 0 4.51557e-05)
(0.013853 0 6.34428e-05)
(0.0168425 0 8.30263e-05)
(0.0194808 0 0.000104507)
(0.0218092 0 0.000128384)
(0.0238659 0 0.000155075)
(0.0256862 0 0.000184934)
(0.027303 0 0.000218252)
(0.0287476 0 0.000255252)
(0.0300498 0 0.000296082)
(0.031238 0 0.000340797)
(0.0323399 0 0.000389339)
(0.0333823 0 0.000441505)
(0.0343911 0 0.000496926)
(0.0353919 0 0.000555028)
(0.0364091 0 0.000615004)
(0.0374662 0 0.000675798)
(0.0385851 0 0.0007361)
(0.0397855 0 0.000794378)
(0.0105647 0 4.31586e-05)
(0.0139903 0 6.05982e-05)
(0.0170219 0 7.92106e-05)
(0.0197057 0 9.95393e-05)
(0.022084 0 0.000122015)
(0.0241952 0 0.000146982)
(0.0260753 0 0.000174705)
(0.0277577 0 0.000205372)
(0.0292739 0 0.000239089)
(0.0306537 0 0.000275863)
(0.0319257 0 0.000315592)
(0.0331172 0 0.000358035)
(0.0342546 0 0.000402793)
(0.0353632 0 0.000449271)
(0.0364674 0 0.000496655)
(0.0375902 0 0.000543877)
(0.0387532 0 0.000589598)
(0.0399759 0 0.000632194)
(0.0412751 0 0.000669762)
(0.0141255 0 5.66811e-05)
(0.0171986 0 7.40089e-05)
(0.0199273 0 9.28403e-05)
(0.0223541 0 0.000113536)
(0.0245183 0 0.000136358)
(0.0264559 0 0.00016148)
(0.0282006 0 0.000188988)
(0.0297838 0 0.000218866)
(0.0312354 0 0.000250991)
(0.0325835 0 0.000285108)
(0.0338547 0 0.000320814)
(0.0350746 0 0.000357531)
(0.0362673 0 0.000394473)
(0.0374554 0 0.000430621)
(0.0386598 0 0.000464695)
(0.0398994 0 0.000495126)
(0.0411904 0 0.000520033)
(0.0425456 0 0.000537194)
(0.0173688 0 6.74611e-05)
(0.0201405 0 8.44804e-05)
(0.0226138 0 0.00010305)
(0.0248282 0 0.000123353)
(0.0268198 0 0.000145471)
(0.0286223 0 0.00016939)
(0.0302671 0 0.000194983)
(0.0317833 0 0.000222)
(0.0331984 0 0.000250054)
(0.0345383 0 0.000278601)
(0.0358272 0 0.000306911)
(0.0370874 0 0.000334048)
(0.0383396 0 0.000358838)
(0.0396021 0 0.000379843)
(0.0408906 0 0.000395336)
(0.0422176 0 0.000403262)
(0.0435915 0 0.00040119)
(0.0203418 0 7.45212e-05)
(0.022859 0 9.06584e-05)
(0.0251203 0 0.00010811)
(0.0271619 0 0.000126873)
(0.0290172 0 0.000146849)
(0.0307171 0 0.000167801)
(0.0322902 0 0.000189369)
(0.0337631 0 0.000211054)
(0.0351604 0 0.000232195)
(0.0365046 0 0.00025195)
(0.0378165 0 0.000269271)
(0.0391141 0 0.000282882)
(0.0404133 0 0.000291257)
(0.0417265 0 0.000292586)
(0.0430626 0 0.000284744)
(0.044426 0 0.00026523)
(0.0230857 0 7.64915e-05)
(0.0253901 0 9.08175e-05)
(0.0274771 0 0.000105936)
(0.0293795 0 0.000121693)
(0.0311279 0 0.00013775)
(0.0327501 0 0.000153649)
(0.0342714 0 0.000168803)
(0.0357149 0 0.000182467)
(0.0371016 0 0.000193721)
(0.0384501 0 0.000201452)
(0.0397765 0 0.000204339)
(0.0410937 0 0.000200828)
(0.0424114 0 0.000189118)
(0.0437354 0 0.000167116)
(0.0450672 0 0.00013239)
(0.0256335 0 7.17043e-05)
(0.0277608 0 8.29531e-05)
(0.0297045 0 9.43052e-05)
(0.0314945 0 0.000105318)
(0.0331578 0 0.000115446)
(0.0347181 0 0.000124051)
(0.0361972 0 0.00013033)
(0.0376144 0 0.000133326)
(0.0389863 0 0.000131903)
(0.0403267 0 0.000124745)
(0.0416465 0 0.000110342)
(0.0429527 0 8.69735e-05)
(0.0442491 0 5.26866e-05)
(0.0455352 0 5.24649e-06)
(0.0299878 0 6.50989e-05)
(0.0318124 0 7.10427e-05)
(0.0335092 0 7.54101e-05)
(0.0350998 0 7.75805e-05)
(0.0366046 0 7.6717e-05)
(0.0380413 0 7.186e-05)
(0.0394249 0 6.18922e-05)
(0.0407673 0 4.55492e-05)
(0.0420773 0 2.14165e-05)
(0.0433602 0 -1.20731e-05)
(0.0446178 0 -5.66427e-05)
(0.0458489 0 -0.000114186)
(0.0320787 0 3.53478e-05)
(0.0338025 0 3.4045e-05)
(0.0354151 0 3.00096e-05)
(0.0369366 0 2.23644e-05)
(0.0383833 0 1.02032e-05)
(0.0397686 0 -7.54344e-06)
(0.041103 0 -3.20423e-05)
(0.0423935 0 -6.45618e-05)
(0.0436442 0 -0.000106461)
(0.0448556 0 -0.000159161)
(0.0460246 0 -0.00022409)
(0.0356622 0 -1.78474e-05)
(0.0371921 0 -3.17872e-05)
(0.0386402 0 -5.05723e-05)
(0.0400188 0 -7.5209e-05)
(0.0413368 0 -0.000106722)
(0.0426005 0 -0.000146194)
(0.0438127 0 -0.000194748)
(0.0449737 0 -0.000253503)
(0.0460804 0 -0.000323534)
(0.0388131 0 -0.000109286)
(0.0401782 0 -0.000139861)
(0.0414741 0 -0.00017726)
(0.0427061 0 -0.000222344)
(0.0438769 0 -0.000276011)
(0.0449866 0 -0.000339099)
(0.0460328 0 -0.000412373)
(0.040252 0 -0.000200673)
(0.0415218 0 -0.000242861)
(0.0427194 0 -0.00029229)
(0.0438476 0 -0.000349673)
(0.044907 0 -0.000415579)
(0.045896 0 -0.000490507)
(0.042649 0 -0.000355489)
(0.0437351 0 -0.000415344)
(0.0447462 0 -0.000482754)
(0.0456821 0 -0.000558025)
(0.0445146 0 -0.000540587)
(0.0454016 0 -0.000615133)
)
;

boundaryField
{
    inlet
    {
        type            cellMotion;
        value           uniform (0 0 0);
    }
    outlet
    {
        type            cellMotion;
        value           nonuniform 0();
    }
    flap
    {
        type            cellMotion;
        value           nonuniform 0();
    }
    upperWall
    {
        type            slip;
    }
    lowerWall
    {
        type            slip;
    }
    frontAndBack
    {
        type            empty;
    }
    procBoundary3to0
    {
        type            processor;
        value           nonuniform List<vector> 
34
(
(0.00232211 0 8.90781e-06)
(0.00669372 0 2.62379e-05)
(0.00669372 0 2.62379e-05)
(0.0106606 0 4.04368e-05)
(0.0106606 0 4.04368e-05)
(0.0142553 0 5.17818e-05)
(0.0142553 0 5.17818e-05)
(0.0175291 0 5.96883e-05)
(0.0175291 0 5.96883e-05)
(0.0205277 0 6.31511e-05)
(0.0205277 0 6.31511e-05)
(0.02329 0 6.08252e-05)
(0.02329 0 6.08252e-05)
(0.0258464 0 5.11636e-05)
(0.028009 0 5.83498e-05)
(0.028009 0 5.83498e-05)
(0.0302254 0 3.46372e-05)
(0.0302254 0 3.46372e-05)
(0.0322943 0 -1.04685e-06)
(0.0340355 0 -7.86356e-06)
(0.0340355 0 -7.86356e-06)
(0.0358389 0 -6.48419e-05)
(0.0373703 0 -8.45506e-05)
(0.0373703 0 -8.45506e-05)
(0.038905 0 -0.000164998)
(0.038905 0 -0.000164998)
(0.0402452 0 -0.000256789)
(0.0414867 0 -0.000302794)
(0.0414867 0 -0.000302794)
(0.0425027 0 -0.000411365)
(0.0435485 0 -0.000472691)
(0.0435485 0 -0.000472691)
(0.0442204 0 -0.000588939)
(0.0450634 0 -0.000661995)
)
;
    }
    procBoundary3to1
    {
        type            processor;
        value           nonuniform List<vector> 9((0.0464029 0 8.20739e-05) (0.0468046 0 -5.78667e-05) (0.0470442 0 -0.000186468) (0.0471438 0 -0.000302515) (0.0471268 0 -0.000405804) (0.047011 0 -0.000496446) (0.0468115 0 -0.000574755) (0.0465406 0 -0.000641176) (0.0462089 0 -0.000696203));
    }
    procBoundary3to4
    {
        type            processor;
        value           nonuniform List<vector> 
19
(
(0.014484 0 0.000123686)
(0.014908 0 0.000366198)
(0.015744 0 0.000594408)
(0.0169675 0 0.000799902)
(0.0185432 0 0.000975997)
(0.0204259 0 0.00111801)
(0.0225625 0 0.00122324)
(0.0248939 0 0.00129073)
(0.0273561 0 0.00132088)
(0.0298818 0 0.00131507)
(0.0324017 0 0.00127541)
(0.0348459 0 0.00120473)
(0.0371467 0 0.00110667)
(0.0392428 0 0.000986037)
(0.0410843 0 0.000848949)
(0.0426645 0 0.000700117)
(0.0439736 0 0.000543977)
(0.0450158 0 0.000386208)
(0.0458159 0 0.000231066)
)
;
    }
}


// ************************************************************************* //
