/*--------------------------------*- C++ -*----------------------------------*\
| =========                 |                                                 |
| \\      /  F ield         | OpenFOAM: The Open Source CFD Toolbox           |
|  \\    /   O peration     | Version:  dev                                   |
|   \\  /    A nd           | Web:      www.OpenFOAM.org                      |
|    \\/     M anipulation  |                                                 |
\*---------------------------------------------------------------------------*/
FoamFile
{
    version     2.0;
    format      ascii;
    class       volVectorField;
    location    "1.96";
    object      Force;
}
// * * * * * * * * * * * * * * * * * * * * * * * * * * * * * * * * * * * * * //

dimensions      [1 1 -2 0 0 0 0];

internalField   uniform (0 0 0);

boundaryField
{
    inlet
    {
        type            calculated;
        value           uniform (0 0 0);
    }
    outlet
    {
        type            calculated;
        value           uniform (0 0 0);
    }
    flap
    {
        type            calculated;
        value           nonuniform List<vector> 
33
(
(2.54484 2.09689e-17 -0.24538)
(2.46548 -1.77711e-21 -0.565088)
(2.29681 -2.01884e-17 -0.841886)
(2.06211 3.84855e-21 -1.01602)
(1.80575 4.70198e-38 -1.10001)
(1.56073 1.89134e-17 -1.11754)
(1.34369 1.83792e-17 -1.09196)
(1.16067 8.18676e-18 -1.04105)
(1.00875 3.26633e-21 -0.975447)
(0.881986 1.66442e-17 -0.900437)
(0.773052 1.60246e-17 -0.818212)
(0.67216 1.00237e-17 -0.726883)
(0.569281 4.55727e-23 -0.622007)
(0.453908 8.19269e-22 -0.496027)
(0.311489 1.59673e-21 -0.339689)
(0.605544 -1.92658e-20 0.543768)
(0.386649 2.70592e-21 0.347773)
(0.17285 -7.34684e-40 0.156401)
(0.0406529 3.13985e-20 -0.00401391)
(0.0404113 -1.14015e-17 -0.00939158)
(0.039714 1.26137e-19 -0.0147599)
(0.0386672 -1.23474e-17 -0.0192421)
(0.0374468 -1.28114e-17 -0.0230389)
(0.0362038 -1.27519e-19 -0.0261911)
(0.0350374 2.01099e-22 -0.0287759)
(0.0339597 2.5646e-19 -0.0308248)
(0.0329729 8.81621e-39 -0.0323197)
(0.0320069 1.4599e-17 -0.0331863)
(0.030959 -1.54955e-17 -0.0333463)
(0.0299278 2.43126e-19 -0.0329832)
(0.0289764 1.69606e-17 -0.0322683)
(0.0287847 -2.36193e-19 -0.0316157)
(0.035386 3.09577e-17 -0.0390954)
)
;
    }
    upperWall
    {
        type            calculated;
        value           uniform (0 0 0);
    }
    lowerWall
    {
        type            calculated;
        value           uniform (0 0 0);
    }
    frontAndBack
    {
        type            empty;
    }
}


// ************************************************************************* //
