/*--------------------------------*- C++ -*----------------------------------*\
| =========                 |                                                 |
| \\      /  F ield         | OpenFOAM: The Open Source CFD Toolbox           |
|  \\    /   O peration     | Version:  dev                                   |
|   \\  /    A nd           | Web:      www.OpenFOAM.org                      |
|    \\/     M anipulation  |                                                 |
\*---------------------------------------------------------------------------*/
FoamFile
{
    version     2.0;
    format      ascii;
    class       surfaceScalarField;
    location    "1.96";
    object      meshPhi;
}
// * * * * * * * * * * * * * * * * * * * * * * * * * * * * * * * * * * * * * //

dimensions      [0 3 -1 0 0 0 0];

internalField   nonuniform List<scalar> 
5457
(
1.43921e-05
1.98517e-07
2.67199e-05
5.2004e-07
3.67277e-05
6.90211e-07
4.48652e-05
6.98342e-07
5.14928e-05
5.50426e-07
5.6812e-05
2.64739e-07
6.0862e-05
-1.26011e-07
6.35337e-05
-5.74823e-07
6.46248e-05
-1.02414e-06
6.39229e-05
-1.41171e-06
6.12912e-05
-1.67992e-06
5.6739e-05
-1.78521e-06
5.04622e-05
-1.7075e-06
4.28387e-05
-1.44885e-06
3.43934e-05
-1.03604e-06
2.57338e-05
-5.18942e-07
1.74653e-05
4.18918e-08
1.0115e-05
5.85254e-07
4.07379e-06
1.05639e-06
-4.49768e-07
1.41539e-06
-3.20967e-06
1.5996e-06
-4.38001e-06
1.5668e-06
-4.50702e-06
1.38276e-06
-3.9348e-06
1.13273e-06
-2.98507e-06
8.57561e-07
-1.94591e-06
5.88585e-07
-1.04114e-06
3.54001e-07
-4.06023e-07
1.74917e-07
-9.27661e-08
6.35297e-08
1.20889e-08
1.43983e-05
4.01362e-07
2.67291e-05
1.05218e-06
3.67393e-05
1.39885e-06
4.48863e-05
1.41984e-06
5.15398e-05
1.12547e-06
5.69072e-05
5.53152e-07
6.10287e-05
-2.31795e-07
6.37921e-05
-1.13778e-06
6.49848e-05
-2.0487e-06
6.43797e-05
-2.83891e-06
6.18221e-05
-3.39134e-06
5.73077e-05
-3.61664e-06
5.10221e-05
-3.47051e-06
4.33379e-05
-2.95754e-06
3.47849e-05
-2.13264e-06
2.59837e-05
-1.09405e-06
1.7554e-05
3.69533e-08
1.00393e-05
1.13606e-06
3.85067e-06
2.09166e-06
-7.86896e-07
2.82078e-06
-3.615e-06
3.19943e-06
-4.78924e-06
3.1432e-06
-4.87366e-06
2.77828e-06
-4.2433e-06
2.27764e-06
-3.22345e-06
1.72652e-06
-2.10837e-06
1.18622e-06
-1.13518e-06
7.13271e-07
-4.4911e-07
3.51775e-07
-1.07126e-07
1.27593e-07
2.3987e-08
1.44102e-05
6.08631e-07
2.6752e-05
1.59691e-06
3.67764e-05
2.12732e-06
4.49486e-05
2.16753e-06
5.16476e-05
1.73207e-06
5.70883e-05
8.74607e-07
6.13115e-05
-3.09204e-07
6.4198e-05
-1.68249e-06
6.55225e-05
-3.07105e-06
6.50395e-05
-4.28502e-06
6.25729e-05
-5.14598e-06
5.81006e-05
-5.51611e-06
5.1794e-05
-5.32144e-06
4.40195e-05
-4.56874e-06
3.53121e-05
-3.34136e-06
2.63069e-05
-1.78276e-06
1.76414e-05
-7.43413e-08
9.88062e-06
1.59391e-06
3.46123e-06
3.05118e-06
-1.37486e-06
4.16924e-06
-4.30999e-06
4.7617e-06
-5.47145e-06
4.69947e-06
-5.48466e-06
4.16498e-06
-4.76205e-06
3.42118e-06
-3.63247e-06
2.60023e-06
-2.39138e-06
1.79024e-06
-1.29625e-06
1.07494e-06
-5.19609e-07
5.25578e-07
-1.28044e-07
1.86881e-07
3.39574e-08
1.44269e-05
8.20237e-07
2.67875e-05
2.15431e-06
3.68385e-05
2.87666e-06
4.5052e-05
2.94419e-06
5.18165e-05
2.37515e-06
5.7354e-05
1.23662e-06
6.17042e-05
-3.47991e-07
6.47394e-05
-2.19709e-06
6.62202e-05
-4.07969e-06
6.58809e-05
-5.7417e-06
6.35222e-05
-6.94192e-06
5.90974e-05
-7.4908e-06
5.27626e-05
-7.2836e-06
4.48794e-05
-6.32339e-06
3.59854e-05
-4.71569e-06
2.67277e-05
-2.64835e-06
1.77663e-05
-3.62957e-07
9.69325e-06
1.8851e-06
2.97031e-06
3.86363e-06
-2.14321e-06
5.39721e-06
-5.2268e-06
6.23463e-06
-6.36579e-06
6.1943e-06
-6.2822e-06
5.50965e-06
-5.43747e-06
4.53618e-06
-4.17543e-06
3.45964e-06
-2.78314e-06
2.39465e-06
-1.51829e-06
1.44151e-06
-6.04375e-07
6.97568e-07
-1.41069e-07
2.37272e-07
3.91914e-08
1.44484e-05
1.03734e-06
2.68341e-05
2.72796e-06
3.69201e-05
3.65317e-06
4.51878e-05
3.75889e-06
5.20376e-05
3.06556e-06
5.76993e-05
1.65216e-06
6.22109e-05
-3.32777e-07
6.54361e-05
-2.66603e-06
6.71186e-05
-5.06157e-06
6.6968e-05
-7.20154e-06
6.47561e-05
-8.78081e-06
6.0406e-05
-9.5541e-06
5.40524e-05
-9.3837e-06
4.60484e-05
-8.26229e-06
3.69336e-05
-6.30978e-06
2.73692e-05
-3.75625e-06
1.80406e-05
-9.01453e-07
9.57245e-06
1.935e-06
2.46054e-06
4.45801e-06
-3.01258e-06
6.44157e-06
-6.2996e-06
7.56519e-06
-7.42475e-06
7.58531e-06
-7.22159e-06
6.77906e-06
-6.21652e-06
5.59262e-06
-4.7888e-06
4.26947e-06
-3.23941e-06
2.96712e-06
-1.79387e-06
1.79982e-06
-7.02549e-07
8.71741e-07
-1.30749e-07
2.81893e-07
3.81949e-08
1.44744e-05
1.26164e-06
2.68905e-05
3.32284e-06
3.70189e-05
4.46405e-06
4.53519e-05
4.62065e-06
5.23038e-05
3.81529e-06
5.81138e-05
2.13584e-06
6.28199e-05
-2.47523e-07
6.62764e-05
-3.07353e-06
6.82083e-05
-6.00371e-06
6.82967e-05
-8.65754e-06
6.6278e-05
-1.06649e-05
6.2042e-05
-1.17237e-05
5.56964e-05
-1.16545e-05
4.75785e-05
-1.04309e-05
3.82277e-05
-8.18242e-06
2.83213e-05
-5.17549e-06
1.85711e-05
-1.76462e-06
9.63838e-06
1.66507e-06
2.06161e-06
4.75394e-06
-3.84645e-06
7.2238e-06
-7.39129e-06
8.67908e-06
-8.52397e-06
8.80713e-06
-8.19937e-06
7.92121e-06
-7.00924e-06
6.55077e-06
-5.37387e-06
4.99124e-06
-3.65231e-06
3.45682e-06
-2.05672e-06
2.10359e-06
-7.92114e-07
1.02541e-06
-7.80319e-08
3.15138e-07
2.87167e-08
1.45044e-05
1.49474e-06
2.69548e-05
3.9434e-06
3.7131e-05
5.31658e-06
4.55381e-05
5.54032e-06
5.26066e-05
4.63848e-06
5.8587e-05
2.70407e-06
6.3519e-05
-7.44429e-08
6.72485e-05
-3.40205e-06
6.94801e-05
-6.89128e-06
6.98642e-05
-1.01007e-05
6.80984e-05
-1.25943e-05
6.40324e-05
-1.40115e-05
5.774e-05
-1.41224e-05
4.95368e-05
-1.28712e-05
3.99582e-05
-1.0391e-05
2.96955e-05
-6.97801e-06
1.94916e-05
-3.03761e-06
1.00498e-05
9.81398e-07
1.95142e-06
4.65293e-06
-4.45275e-06
7.64231e-06
-8.3019e-06
9.47335e-06
-9.47123e-06
9.75975e-06
-9.04945e-06
8.84766e-06
-7.683e-06
7.34149e-06
-5.81805e-06
5.575e-06
-3.89656e-06
3.81304e-06
-2.17485e-06
2.2871e-06
-7.82856e-07
1.09802e-06
5.0013e-08
3.06702e-07
3.94564e-09
1.45386e-05
1.73708e-06
2.70257e-05
4.59137e-06
3.72524e-05
6.21613e-06
4.57409e-05
6.528e-06
5.29391e-05
5.54838e-06
5.91099e-05
3.37308e-06
6.42977e-05
2.05159e-07
6.83414e-05
-3.63146e-06
7.09258e-05
-7.7046e-06
7.16685e-05
-1.15145e-05
7.02273e-05
-1.45593e-05
6.64048e-05
-1.64131e-05
6.02319e-05
-1.67916e-05
5.19971e-05
-1.56049e-05
4.22275e-05
-1.29779e-05
3.16271e-05
-9.22881e-06
2.09682e-05
-4.80779e-06
1.09976e-05
-2.20917e-07
2.346e-06
4.03944e-06
-4.58658e-06
7.5728e-06
-8.76764e-06
9.81536e-06
-9.99827e-06
1.03043e-05
-9.51848e-06
9.41976e-06
-8.0271e-06
7.84339e-06
-5.95252e-06
5.92772e-06
-3.80868e-06
3.96428e-06
-1.95457e-06
2.26515e-06
-5.12188e-07
9.95326e-07
2.95501e-07
2.01787e-07
-4.75704e-08
1.45766e-05
1.98914e-06
2.71027e-05
5.26874e-06
3.7382e-05
7.16654e-06
4.59579e-05
7.58943e-06
5.32963e-05
6.55416e-06
5.96748e-05
4.15681e-06
6.51457e-05
6.10452e-07
6.95434e-05
-3.73743e-06
7.25338e-05
-8.41535e-06
7.37019e-05
-1.28689e-05
7.26618e-05
-1.65315e-05
6.91667e-05
-1.89076e-05
6.32019e-05
-1.96559e-05
5.50195e-05
-1.8646e-05
4.5131e-05
-1.59819e-05
3.42512e-05
-1.19915e-05
2.3179e-05
-7.16135e-06
1.27008e-05
-2.05335e-06
3.50512e-06
2.77585e-06
-3.94603e-06
6.85747e-06
-8.46117e-06
9.53307e-06
-9.76618e-06
1.02581e-05
-9.25821e-06
9.44439e-06
-7.71136e-06
7.86023e-06
-5.49625e-06
5.87723e-06
-3.13276e-06
3.77304e-06
-1.13464e-06
1.91491e-06
2.09517e-07
6.03636e-07
6.83905e-07
-5.99499e-08
-1.35208e-07
1.4618e-05
2.2519e-06
2.71848e-05
5.97841e-06
3.75179e-05
8.17195e-06
4.61831e-05
8.73036e-06
5.36672e-05
7.66524e-06
6.02656e-05
5.06937e-06
6.60418e-05
1.16143e-06
7.08284e-05
-3.69348e-06
7.42757e-05
-8.99119e-06
7.59375e-05
-1.41275e-05
7.53819e-05
-1.84744e-05
7.23124e-05
-2.14691e-05
6.66667e-05
-2.27053e-05
5.86539e-05
-2.20009e-05
4.87608e-05
-1.94322e-05
3.77023e-05
-1.53222e-05
2.6307e-05
-1.0184e-05
1.54016e-05
-4.63394e-06
5.72824e-06
7.0842e-07
-2.17954e-06
5.30803e-06
-6.99882e-06
8.41403e-06
-8.38149e-06
9.39794e-06
-7.84886e-06
8.68622e-06
-6.27812e-06
7.12905e-06
-3.99536e-06
5.1439e-06
-1.47538e-06
2.98698e-06
5.76114e-07
1.05499e-06
1.50235e-06
-1.76053e-07
1.1934e-06
-5.06611e-07
-2.5683e-07
1.46627e-05
2.52639e-06
2.72706e-05
6.72344e-06
3.76553e-05
9.23737e-06
4.64078e-05
9.95805e-06
5.40383e-05
8.89201e-06
6.08622e-05
6.12729e-06
6.69585e-05
1.88116e-06
7.2163e-05
-3.47154e-06
7.61134e-05
-9.39851e-06
7.83369e-05
-1.52527e-05
7.83591e-05
-2.0349e-05
7.58308e-05
-2.40605e-05
7.06342e-05
-2.5909e-05
6.29344e-05
-2.5651e-05
5.31892e-05
-2.33268e-05
4.21034e-05
-1.92483e-05
3.05278e-05
-1.39439e-05
1.93375e-05
-8.07299e-06
9.32572e-06
-2.3191e-06
1.0968e-06
2.71493e-06
-3.95312e-06
6.20664e-06
-5.40873e-06
7.45781e-06
-4.82945e-06
6.87266e-06
-3.19854e-06
5.3504e-06
-8.70034e-07
3.38094e-06
1.64849e-06
1.26702e-06
3.39227e-06
-5.31789e-07
3.30545e-06
-1.38337e-06
1.74503e-06
-1.09965e-06
-3.95284e-07
1.47103e-05
2.8145e-06
2.73577e-05
7.50909e-06
3.77891e-05
1.03706e-05
4.66238e-05
1.12824e-05
5.43977e-05
1.02469e-05
6.1449e-05
7.34567e-06
6.78754e-05
2.78928e-06
7.35196e-05
-3.04362e-06
7.80127e-05
-9.59928e-06
8.08606e-05
-1.6197e-05
8.15534e-05
-2.21004e-05
7.96865e-05
-2.66176e-05
7.5083e-05
-2.91999e-05
6.78609e-05
-2.95413e-05
5.84457e-05
-2.76345e-05
4.75325e-05
-2.37688e-05
3.59808e-05
-1.84792e-05
2.47131e-05
-1.24574e-05
1.4583e-05
-6.44796e-06
6.2594e-06
-1.12575e-06
1.11513e-06
2.64596e-06
-3.91654e-07
4.13896e-06
2.62814e-07
3.70261e-06
2.02585e-06
2.22218e-06
4.401e-06
2.68455e-07
6.63198e-06
-1.69967e-06
7.37257e-06
-3.04667e-06
5.44823e-06
-3.05219e-06
2.2707e-06
-1.80982e-06
-5.46943e-07
1.47609e-05
3.11814e-06
2.74445e-05
8.34065e-06
3.79148e-05
1.15789e-05
4.68244e-05
1.2712e-05
5.47372e-05
1.17399e-05
6.20159e-05
8.73505e-06
6.87757e-05
3.90114e-06
7.48705e-05
-2.38201e-06
7.99336e-05
-9.55093e-06
8.34566e-05
-1.69011e-05
8.48983e-05
-2.36519e-05
8.38048e-05
-2.90519e-05
7.99454e-05
-3.24882e-05
7.33883e-05
-3.35895e-05
6.45154e-05
-3.22899e-05
5.40109e-05
-2.88432e-05
4.27438e-05
-2.37838e-05
3.1671e-05
-1.783e-05
2.17123e-05
-1.17786e-05
1.36055e-05
-6.37751e-06
8.58234e-06
-2.49657e-06
7.08482e-06
-8.36953e-07
7.83138e-06
-1.11796e-06
9.74518e-06
-2.52193e-06
1.20867e-05
-4.41207e-06
1.35968e-05
-6.09112e-06
1.24459e-05
-6.61244e-06
7.86281e-06
-5.26021e-06
2.86319e-06
-2.73007e-06
-7.87958e-07
1.48145e-05
3.43799e-06
2.75298e-05
9.22033e-06
3.80294e-05
1.28645e-05
4.70051e-05
1.42481e-05
5.50494e-05
1.33737e-05
6.25468e-05
1.0303e-05
6.96312e-05
5.23243e-06
7.61743e-05
-1.46046e-06
8.18188e-05
-9.21153e-06
8.60492e-05
-1.73023e-05
8.83022e-05
-2.49217e-05
8.8087e-05
-3.12684e-05
8.51205e-05
-3.56671e-05
7.94197e-05
-3.76777e-05
7.1321e-05
-3.71737e-05
6.14869e-05
-3.43692e-05
5.07995e-05
-2.97852e-05
4.02462e-05
-2.41594e-05
3.08041e-05
-1.83334e-05
2.32819e-05
-1.31198e-05
1.86544e-05
-9.35449e-06
1.72656e-05
-7.64633e-06
1.80913e-05
-7.78106e-06
2.00466e-05
-9.03955e-06
2.20795e-05
-1.07244e-05
2.22699e-05
-1.18629e-05
1.83684e-05
-1.11604e-05
1.05649e-05
-8.02634e-06
3.71272e-06
-3.97233e-06
-1.24834e-06
1.48613e-05
3.74027e-06
2.76037e-05
1.00984e-05
3.81225e-05
1.4221e-05
4.71507e-05
1.59095e-05
5.53124e-05
1.51667e-05
6.30106e-05
1.20716e-05
7.03993e-05
6.81275e-06
7.73751e-05
-2.40819e-07
8.3597e-05
-8.53372e-06
8.8553e-05
-1.73413e-05
9.16682e-05
-2.58347e-05
9.24226e-05
-3.31716e-05
9.04859e-05
-3.86184e-05
8.58248e-05
-4.16755e-05
7.87387e-05
-4.21595e-05
6.98579e-05
-4.02377e-05
6.00666e-05
-3.64022e-05
5.03848e-05
-3.13984e-05
4.18347e-05
-2.61036e-05
3.52849e-05
-2.13853e-05
3.13461e-05
-1.79996e-05
3.01568e-05
-1.63835e-05
3.09698e-05
-1.63676e-05
3.26803e-05
-1.73547e-05
3.38468e-05
-1.85667e-05
3.19619e-05
-1.87824e-05
2.47088e-05
-1.65133e-05
1.35263e-05
-1.13913e-05
4.68317e-06
-5.56754e-06
-2.27804e-06
-1.85357e-07
-2.41583e-08
-9.26078e-06
8.92249e-08
-5.98871e-05
8.13938e-07
-0.000164336
1.31427e-06
-0.000261021
1.06847e-06
-0.00030643
-2.11144e-07
-0.000318349
-2.50468e-06
-0.000322812
-4.37245e-06
-0.000331153
-5.57232e-06
-0.000341687
-6.34349e-06
-0.000351179
-5.47272e-06
-0.000360152
-3.73532e-06
-0.000368132
-1.44837e-06
-0.000373652
1.67974e-06
-0.000375493
5.20948e-06
-0.000372892
8.82817e-06
-0.000365531
1.22388e-05
-0.000353474
1.51883e-05
-0.000337065
1.74922e-05
-0.000316824
1.90482e-05
-0.000293345
1.98319e-05
-0.000267215
1.98807e-05
-0.000238948
1.92694e-05
-0.000208955
1.80868e-05
-0.000177519
1.64154e-05
-0.000144794
1.43193e-05
-0.000110809
1.1836e-05
-7.54977e-05
8.974e-06
-3.85784e-05
5.70343e-06
1.99783e-06
-9.90337e-08
-5.58056e-08
-1.04363e-05
2.43369e-07
-6.50066e-05
1.73513e-06
-0.000171725
2.73712e-06
-0.000266324
1.97335e-06
-0.000308857
-1.02793e-06
-0.000319469
-5.51416e-06
-0.000323664
-9.12157e-06
-0.000331919
-1.1281e-05
-0.000343146
-1.2214e-05
-0.000352997
-1.07613e-05
-0.000361679
-7.4227e-06
-0.000369599
-2.54069e-06
-0.000375046
3.71951e-06
-0.000376779
1.07197e-05
-0.000374039
1.78616e-05
-0.000366518
2.45677e-05
-0.000354289
3.03465e-05
-0.000337709
3.48431e-05
-0.000317306
3.78627e-05
-0.000293681
3.93627e-05
-0.000267425
3.94192e-05
-0.000239056
3.81802e-05
-0.000208985
3.58191e-05
-0.000177494
3.24972e-05
-0.000144737
2.83387e-05
-0.000110742
2.34162e-05
-7.54405e-05
1.77465e-05
-3.85527e-05
1.12722e-05
3.94624e-06
-9.84818e-08
-7.40082e-08
-1.31794e-05
5.21577e-07
-7.32325e-05
2.73297e-06
-0.00017829
4.10718e-06
-0.000264339
2.54916e-06
-0.000301135
-2.53856e-06
-0.000310842
-8.70315e-06
-0.000316405
-1.35587e-05
-0.000326211
-1.65401e-05
-0.000338924
-1.74405e-05
-0.000349825
-1.53903e-05
-0.000359158
-1.03042e-05
-0.000367663
-2.78946e-06
-0.000373591
6.49425e-06
-0.000375709
1.67789e-05
-0.000373268
2.72155e-05
-0.000365971
3.69749e-05
-0.000353904
4.5354e-05
-0.000337432
5.18484e-05
-0.000317096
5.61832e-05
-0.000293507
5.83017e-05
-0.000267264
5.83162e-05
-0.000238895
5.64405e-05
-0.000208818
5.29243e-05
-0.000177322
4.79995e-05
-0.000144566
4.18439e-05
-0.000110583
3.45623e-05
-7.53107e-05
2.618e-05
-3.84763e-05
1.66168e-05
5.81311e-06
-3.7689e-07
-3.48482e-08
-1.76028e-05
1.0283e-06
-8.1927e-05
3.64796e-06
-0.000178702
4.6336e-06
-0.00025054
1.7913e-06
-0.000280878
-4.99106e-06
-0.000291133
-1.20471e-05
-0.000299619
-1.72723e-05
-0.000312416
-2.05934e-05
-0.000327447
-2.14451e-05
-0.000340342
-1.86053e-05
-0.0003514
-1.16918e-05
-0.000361294
-1.73037e-06
-0.000368395
1.03498e-05
-0.000371513
2.36208e-05
-0.000369924
3.70158e-05
-0.000363343
4.94897e-05
-0.000351865
6.01607e-05
-0.000335867
6.83991e-05
-0.000315901
7.38613e-05
-0.000292592
7.64785e-05
-0.000266555
7.6393e-05
-0.000238334
7.38743e-05
-0.000208361
6.92363e-05
-0.000176941
6.27707e-05
-0.000144243
5.47017e-05
-0.000110315
4.51623e-05
-7.51047e-05
3.41876e-05
-3.83577e-05
2.16806e-05
7.57832e-06
-1.13058e-06
1.01759e-07
-2.32779e-05
1.75625e-06
-8.83635e-05
4.38144e-06
-0.00017126
4.22342e-06
-0.000227334
-2.93875e-07
-0.000252382
-8.03025e-06
-0.000264769
-1.53125e-05
-0.000277119
-2.04064e-05
-0.000293336
-2.35476e-05
-0.000311127
-2.39785e-05
-0.000326663
-2.00425e-05
-0.000340052
-1.13671e-05
-0.000351877
8.41751e-07
-0.000360624
1.54354e-05
-0.000365164
3.13389e-05
-0.000364799
4.73034e-05
-0.000359258
6.2105e-05
-0.000348648
7.47206e-05
-0.00033336
8.44199e-05
-0.000313961
9.08002e-05
-0.000291092
9.37822e-05
-0.000265389
9.35319e-05
-0.000237416
9.03628e-05
-0.000207627
8.46403e-05
-0.000176345
7.67043e-05
-0.000143755
6.68164e-05
-0.00010992
5.51351e-05
-7.48093e-05
4.17062e-05
-3.81892e-05
2.64225e-05
9.2272e-06
-2.45568e-06
3.32677e-07
-2.88834e-05
2.37878e-06
-8.96985e-05
4.3858e-06
-0.000155355
2.73583e-06
-0.000197394
-3.06181e-06
-0.00021918
-1.07428e-05
-0.000234626
-1.76168e-05
-0.000251223
-2.2482e-05
-0.000270952
-2.51844e-05
-0.000291675
-2.47857e-05
-0.000310084
-1.95707e-05
-0.000326139
-9.20763e-06
-0.00034022
5.02183e-06
-0.000350916
2.18069e-05
-0.000357157
3.99536e-05
-0.000358273
5.80668e-05
-0.000354
7.47806e-05
-0.000344458
8.89725e-05
-0.000330057
9.98365e-05
-0.000311375
0.000106915
-0.000289073
0.000110121
-0.000263808
0.000109638
-0.000236168
0.000105811
-0.000206632
9.90454e-05
-0.000175543
8.97163e-05
-0.000143108
7.81129e-05
-0.000109406
6.44171e-05
-7.44292e-05
4.86878e-05
-3.79736e-05
3.08121e-05
1.07492e-05
-4.15764e-06
5.91557e-07
-3.23781e-05
2.48448e-06
-8.4192e-05
3.17838e-06
-0.000132899
1.85392e-07
-0.000164683
-5.94923e-06
-0.000185357
-1.27768e-05
-0.000203888
-1.87001e-05
-0.000224296
-2.3016e-05
-0.000247238
-2.50635e-05
-0.000270737
-2.36472e-05
-0.000291968
-1.71529e-05
-0.000310757
-5.22534e-06
-0.000327199
1.07722e-05
-0.000339967
2.94103e-05
-0.000348042
4.94032e-05
-0.000350774
6.92396e-05
-0.000347888
8.74407e-05
-0.000339526
0.00010284
-0.000326125
0.000114579
-0.000308261
0.000122135
-0.000286613
0.000125424
-0.000261862
0.000124641
-0.000234621
0.000120152
-0.000205394
0.000112388
-0.000174549
0.000101749
-0.000142309
8.85372e-05
-0.000108777
7.29623e-05
-7.39706e-05
5.50994e-05
-3.7716e-05
3.48303e-05
1.21381e-05
-5.77586e-06
7.84437e-07
-3.24007e-05
2.02624e-06
-7.26045e-05
1.24186e-06
-0.00010754
-2.55663e-06
-0.000132941
-8.28763e-06
-0.000153898
-1.40149e-05
-0.000175151
-1.8837e-05
-0.000198519
-2.22118e-05
-0.000224014
-2.32566e-05
-0.000249824
-2.06811e-05
-0.000273587
-1.28991e-05
-0.000294949
4.53188e-07
-0.000313661
1.79503e-05
-0.000328453
3.81038e-05
-0.000338358
5.95654e-05
-0.000342728
8.07234e-05
-0.000341305
0.000100039
-0.0003342
0.000116279
-0.000321836
0.000128569
-0.000304826
0.000136382
-0.000283867
0.000139616
-0.000259664
0.000138468
-0.000232854
0.000133315
-0.00020397
0.000124603
-0.000173394
0.000112741
-0.000141369
9.80422e-05
-0.000108038
8.07412e-05
-7.34403e-05
6.09225e-05
-3.74239e-05
3.84682e-05
1.33918e-05
-6.80982e-06
8.32917e-07
-2.90767e-05
1.1868e-06
-5.78728e-05
-6.9512e-07
-8.31612e-05
-4.65291e-06
-0.000104995
-9.56235e-06
-0.000126552
-1.42113e-05
-0.000149806
-1.80182e-05
-0.000175237
-2.02598e-05
-0.000202553
-2.00202e-05
-0.00023014
-1.61172e-05
-0.000256004
-7.02635e-06
-0.000279624
7.63086e-06
-0.000300436
2.64098e-05
-0.000317136
4.77475e-05
-0.000328747
7.02729e-05
-0.00033465
9.23576e-05
-0.000334625
0.000112441
-0.000328748
0.000129193
-0.000317395
0.000141731
-0.000301216
0.00014959
-0.000280936
0.000152639
-0.00025728
0.000151067
-0.000230907
0.000145248
-0.00020237
0.000135633
-0.000172071
0.000122633
-0.000140289
0.000106584
-0.000107192
8.77241e-05
-7.28378e-05
6.61332e-05
-3.70964e-05
4.17097e-05
1.45046e-05
-6.93511e-06
7.08701e-07
-2.35039e-05
2.08685e-07
-4.32319e-05
-2.11924e-06
-6.25892e-05
-5.61031e-06
-8.24548e-05
-9.56215e-06
-0.000104241
-1.33222e-05
-0.000128538
-1.61819e-05
-0.000155174
-1.72432e-05
-0.000183689
-1.5589e-05
-0.000212617
-1.01962e-05
-0.000240169
2.20779e-07
-0.000265627
1.60191e-05
-0.000288216
3.58717e-05
-0.000306593
5.81182e-05
-0.000319706
8.1345e-05
-0.000326946
0.000103983
-0.000328088
0.000124458
-0.000323243
0.000141434
-0.000312805
0.000154013
-0.000297406
0.000161745
-0.000277781
0.000164497
-0.000254666
0.000162451
-0.000228736
0.000155971
-0.000200557
0.000145499
-0.000170563
0.00013145
-0.000139063
0.000114176
-0.000106231
9.3903e-05
-7.21493e-05
7.07194e-05
-3.67191e-05
4.45452e-05
1.54729e-05
-6.14079e-06
4.58567e-07
-1.72829e-05
-5.72754e-07
-3.11187e-05
-2.68044e-06
-4.71412e-05
-5.39003e-06
-6.55776e-05
-8.51385e-06
-8.70203e-05
-1.15381e-05
-0.000111534
-1.34768e-05
-0.000138719
-1.33497e-05
-0.000167974
-1.02274e-05
-0.000197866
-3.24739e-06
-0.000226703
8.52292e-06
-0.00025357
2.53265e-05
-0.000277468
4.6007e-05
-0.000297092
6.89212e-05
-0.000311386
9.26003e-05
-0.000319707
0.000115487
-0.000321806
0.000136037
-0.000317817
0.00015297
-0.000308165
0.000165399
-0.000293467
0.000172855
-0.00027445
0.000175216
-0.000251857
0.000172655
-0.000226371
0.000165525
-0.00019857
0.000154254
-0.000168908
0.000139253
-0.000137704
0.000120865
-0.000105157
9.93168e-05
-7.13758e-05
7.47167e-05
-3.62928e-05
4.70016e-05
1.63076e-05
-4.73042e-06
1.76442e-07
-1.19324e-05
-9.54716e-07
-2.24848e-05
-2.53049e-06
-3.64646e-05
-4.6079e-06
-5.36472e-05
-7.02098e-06
-7.43895e-05
-9.21734e-06
-9.86272e-05
-1.01487e-05
-0.000125963
-8.76873e-06
-0.000155678
-4.15273e-06
-0.000186192
4.41798e-06
-0.000215845
1.75497e-05
-0.000243654
3.53173e-05
-0.000268434
5.66502e-05
-0.000288886
8.00024e-05
-0.00030399
0.000103895
-0.000313087
0.00012677
-0.000315927
0.000147147
-0.000312635
0.000163805
-0.000303628
0.000175888
-0.000289524
0.000182931
-0.000271045
0.000184818
-0.000248932
0.000181711
-0.000223871
0.000173946
-0.000196448
0.000161931
-0.000167123
0.000146067
-0.000136233
0.000126684
-0.000103993
0.00010401
-7.05402e-05
7.81661e-05
-3.58349e-05
4.91094e-05
1.70203e-05
-3.16152e-06
-4.24008e-08
-8.11477e-06
-1.01312e-06
-1.68442e-05
-2.1435e-06
-2.94253e-05
-3.76569e-06
-4.56483e-05
-5.48298e-06
-6.56966e-05
-6.69945e-06
-8.95318e-05
-6.45037e-06
-0.000116812
-3.68244e-06
-0.000146792
2.50774e-06
-0.000177673
1.26778e-05
-0.000207727
2.71395e-05
-0.000236008
4.58083e-05
-0.000261262
6.76717e-05
-0.000282177
9.12648e-05
-0.000297732
0.000115129
-0.000307287
0.000137752
-0.000310597
0.000157731
-0.000307784
0.00017391
-0.000299257
0.000185478
-0.000285625
0.000191991
-0.000267601
0.000193335
-0.000245917
0.000189658
-0.000221255
0.000181275
-0.000194202
0.000168573
-0.000165224
0.000151932
-0.000134665
0.000131672
-0.000102758
0.000108015
-6.9657e-05
8.10945e-05
-3.53539e-05
5.0887e-05
1.76178e-05
-1.885e-06
-1.30165e-07
-5.80804e-06
-9.08083e-07
-1.35606e-05
-1.6967e-06
-2.52402e-05
-2.94125e-06
-4.08151e-05
-3.97236e-06
-6.03715e-05
-4.12365e-06
-8.39093e-05
-2.51557e-06
-0.000111122
1.80929e-06
-0.000141278
9.68019e-06
-0.000172291
2.14738e-05
-0.000202365
3.72143e-05
-0.000230723
5.6687e-05
-0.000256055
7.89502e-05
-0.000277038
0.000102598
-0.00029268
0.000126214
-0.000302366
0.000148366
-0.000305867
0.000167741
-0.000303306
0.000183264
-0.000295086
0.000194176
-0.000281799
0.000200059
-0.000264142
0.000200804
-0.000242832
0.000196541
-0.000218538
0.000187562
-0.000191844
0.000174228
-0.000163217
0.000156896
-0.000133006
0.00013587
-0.000101453
0.000111369
-6.87293e-05
8.35316e-05
-3.48512e-05
5.23553e-05
1.8108e-05
-1.48193e-06
1.0588e-07
-5.26283e-06
-7.64287e-07
-1.25237e-05
-1.40439e-06
-2.35864e-05
-2.19411e-06
-3.87083e-05
-2.42535e-06
-5.798e-05
-1.38916e-06
-8.13718e-05
1.72348e-06
-0.000108605
7.74561e-06
-0.000138827
1.73231e-05
-0.000169709
3.06861e-05
-0.000199524
4.77188e-05
-0.000227624
6.79779e-05
-0.000252655
9.05113e-05
-0.000273309
0.000114025
-0.000288663
0.000137174
-0.000298151
0.000158643
-0.000301567
0.000177225
-0.00029904
0.000191929
-0.000290961
0.000202059
-0.000277905
0.000207224
-0.000260544
0.000207319
-0.00023957
0.00020246
-0.000215635
0.000192908
-0.000189308
0.000178993
-0.000161054
0.000161048
-0.000131221
0.000139359
-0.000100059
0.000114138
-6.77495e-05
8.55309e-05
-3.43279e-05
5.35515e-05
1.85048e-05
1.54599e-05
3.99563e-06
2.87236e-05
1.08785e-05
3.96656e-05
1.55582e-05
4.90815e-05
1.77047e-05
5.76686e-05
1.71818e-05
6.58584e-05
1.41039e-05
7.38308e-05
8.70672e-06
8.15062e-05
1.34577e-06
8.85546e-05
-7.43995e-06
9.44606e-05
-1.69338e-05
9.8622e-05
-2.62952e-05
0.000100476
-3.46507e-05
9.96484e-05
-4.12262e-05
9.60627e-05
-4.54687e-05
8.99899e-05
-4.71364e-05
8.20468e-05
-4.63412e-05
7.31453e-05
-4.35433e-05
6.43624e-05
-3.94792e-05
5.67974e-05
-3.50427e-05
5.13985e-05
-3.11459e-05
4.8323e-05
-2.84219e-05
4.73243e-05
-2.70365e-05
4.78968e-05
-2.68134e-05
4.88722e-05
-2.73034e-05
4.83474e-05
-2.76713e-05
4.34915e-05
-2.65753e-05
3.2437e-05
-2.2629e-05
1.79061e-05
-1.58389e-05
6.74102e-06
-8.60883e-06
-3.62588e-06
5.74582e-07
1.5847e-05
4.23255e-06
2.94679e-05
1.15579e-05
4.0694e-05
1.67261e-05
5.0341e-05
1.9467e-05
5.9212e-05
1.94045e-05
6.77802e-05
1.64618e-05
7.62284e-05
1.0972e-05
8.45015e-05
3.36547e-06
9.22944e-05
-5.84493e-06
9.91078e-05
-1.59718e-05
0.000104334
-2.61776e-05
0.000107388
-3.55656e-05
0.000107861
-4.33303e-05
0.000105637
-4.88695e-05
0.000100949
-5.1884e-05
9.43869e-05
-5.24318e-05
8.6869e-05
-5.09322e-05
7.94972e-05
-4.80972e-05
7.342e-05
-4.48232e-05
6.96427e-05
-4.20489e-05
6.78095e-05
-4.02684e-05
6.69626e-05
-3.92522e-05
6.67712e-05
-3.86961e-05
6.61634e-05
-3.83743e-05
6.2952e-05
-3.75216e-05
5.45841e-05
-3.48647e-05
4.01992e-05
-2.93858e-05
2.34201e-05
-2.15242e-05
1.0498e-05
-1.35647e-05
-7.79432e-06
3.88446e-06
1.62458e-05
4.47021e-06
3.02425e-05
1.22111e-05
4.17891e-05
1.77326e-05
5.16577e-05
2.09571e-05
6.07355e-05
2.15557e-05
6.96366e-05
1.90853e-05
7.85483e-05
1.3657e-05
8.73951e-05
5.87542e-06
9.59159e-05
-3.66899e-06
0.000103642
-1.43567e-05
0.000109967
-2.53583e-05
0.000114298
-3.57554e-05
0.000116191
-4.47194e-05
0.000115493
-5.16139e-05
0.0001124
-5.60877e-05
0.000107469
-5.81408e-05
0.000101601
-5.81355e-05
9.59121e-05
-5.67449e-05
9.15845e-05
-5.48534e-05
8.96853e-05
-5.34204e-05
8.94976e-05
-5.28802e-05
8.86802e-05
-5.24211e-05
8.69562e-05
-5.13535e-05
8.38523e-05
-4.98751e-05
7.711e-05
-4.75066e-05
6.50492e-05
-4.3196e-05
4.79146e-05
-3.64167e-05
2.96359e-05
-2.78723e-05
1.53154e-05
-1.95142e-05
-1.32076e-05
7.09201e-06
1.66654e-05
4.70223e-06
3.10572e-05
1.2858e-05
4.29693e-05
1.86972e-05
5.31168e-05
2.22092e-05
6.23426e-05
2.33205e-05
7.14307e-05
2.16079e-05
8.07283e-05
1.6685e-05
9.01131e-05
8.93736e-06
9.93266e-05
-8.41259e-07
0.000107949
-1.19978e-05
0.00011537
-2.37154e-05
0.000120995
-3.50497e-05
0.000124362
-4.51736e-05
0.000125282
-5.34232e-05
0.000123908
-5.93974e-05
0.000120753
-6.30361e-05
0.000116669
-6.46346e-05
0.000112756
-6.48006e-05
0.000110196
-6.43706e-05
0.000110105
-6.42852e-05
0.000111578
-6.4885e-05
0.000110865
-6.5057e-05
0.000107327
-6.38024e-05
0.000100904
-6.11993e-05
9.00353e-05
-5.7115e-05
7.4376e-05
-5.11757e-05
5.49509e-05
-4.32969e-05
3.56354e-05
-3.43094e-05
2.02996e-05
-2.58508e-05
-1.92953e-05
1.08074e-05
1.71085e-05
4.92574e-06
3.19144e-05
1.34853e-05
4.42118e-05
1.96546e-05
5.47062e-05
2.34181e-05
6.41457e-05
2.47883e-05
7.33078e-05
2.36491e-05
8.27928e-05
1.95842e-05
9.26054e-05
1.2439e-05
0.000102456
2.71677e-06
0.000111921
-8.81416e-06
0.000120382
-2.11494e-05
0.000127259
-3.33041e-05
0.000132078
-4.4487e-05
0.000134613
-5.40157e-05
0.000134961
-6.14423e-05
0.000133583
-6.66436e-05
0.000131251
-6.98392e-05
0.00012898
-7.15427e-05
0.000127878
-7.24869e-05
0.000128951
-7.34849e-05
0.000130835
-7.45529e-05
0.000129929
-7.47099e-05
0.000125259
-7.34236e-05
0.000115929
-7.05174e-05
0.000101318
-6.56059e-05
8.22106e-05
-5.85018e-05
6.05881e-05
-4.9616e-05
4.02281e-05
-4.02179e-05
2.37705e-05
-3.16684e-05
-2.48468e-05
1.29061e-05
1.75764e-05
5.13949e-06
3.28152e-05
1.40911e-05
4.55044e-05
2.05936e-05
5.63616e-05
2.46398e-05
6.61093e-05
2.62292e-05
7.54195e-05
2.53432e-05
8.49423e-05
2.18682e-05
9.49573e-05
1.55757e-05
0.000105276
6.49709e-06
0.000115452
-4.88637e-06
0.000124867
-1.75881e-05
0.000132889
-3.04179e-05
0.000139044
-4.24899e-05
0.000143074
-5.31431e-05
0.000145005
-6.18733e-05
0.000145233
-6.8499e-05
0.000144425
-7.31565e-05
0.000143444
-7.62438e-05
0.00014321
-7.83466e-05
0.000144426
-8.00906e-05
0.000144992
-8.11687e-05
0.000142389
-8.05904e-05
0.000136318
-7.84405e-05
0.000125523
-7.52169e-05
0.000109157
-7.05465e-05
8.77164e-05
-6.36559e-05
6.41449e-05
-5.47208e-05
4.22509e-05
-4.51009e-05
2.40832e-05
-3.61964e-05
-2.88549e-05
1.14363e-05
1.80698e-05
5.34166e-06
3.37623e-05
1.467e-05
4.68537e-05
2.15049e-05
5.80636e-05
2.58482e-05
6.81234e-05
2.77103e-05
7.76794e-05
2.70514e-05
8.72869e-05
2.38501e-05
9.73591e-05
1.8053e-05
0.000107879
9.75882e-06
0.000118509
-7.96207e-07
0.000128717
-1.31671e-05
0.000137718
-2.63155e-05
0.000145006
-3.90844e-05
0.000150291
-5.06356e-05
0.000153509
-6.04174e-05
0.000155012
-6.82143e-05
0.000155319
-7.40802e-05
0.0001551
-7.82868e-05
0.000155028
-8.12614e-05
0.000155465
-8.34623e-05
0.000153886
-8.44285e-05
0.000148196
-8.30704e-05
0.000139163
-7.96899e-05
0.000126765
-7.54303e-05
0.000109847
-7.04236e-05
8.81199e-05
-6.40945e-05
6.39846e-05
-5.63242e-05
4.0511e-05
-4.75617e-05
1.99809e-05
-3.87011e-05
-3.07484e-05
4.89951e-06
1.85879e-05
5.52854e-06
3.47539e-05
1.52106e-05
4.82546e-05
2.2373e-05
5.98031e-05
2.70326e-05
7.01322e-05
2.92095e-05
7.99043e-05
2.88732e-05
8.96496e-05
2.59947e-05
9.97607e-05
2.05626e-05
0.000110298
1.2783e-05
0.000121094
2.99357e-06
0.000131822
-8.59666e-06
0.000141596
-2.13924e-05
0.000149798
-3.43254e-05
0.000155999
-4.64131e-05
0.000160044
-5.69221e-05
0.000162347
-6.55366e-05
0.000163237
-7.22641e-05
0.00016316
-7.72461e-05
0.000162551
-8.07674e-05
0.00016152
-8.31537e-05
0.00015754
-8.38813e-05
0.000148609
-8.19008e-05
0.000136131
-7.76653e-05
0.000121038
-7.2482e-05
0.000102657
-6.6677e-05
8.10517e-05
-6.0155e-05
5.7382e-05
-5.30096e-05
3.31838e-05
-4.52963e-05
1.04625e-05
-3.72814e-05
-2.95503e-05
-7.49798e-06
1.91281e-05
5.69766e-06
3.57812e-05
1.57086e-05
4.96896e-05
2.31938e-05
6.15606e-05
2.81833e-05
7.21232e-05
3.07124e-05
8.20397e-05
3.07634e-05
9.18509e-05
2.83162e-05
0.000101921
2.33918e-05
0.000112357
1.6151e-05
0.000123093
6.92053e-06
0.000133941
-3.98406e-06
0.000144159
-1.60609e-05
0.000153092
-2.85683e-05
0.000159958
-4.06479e-05
0.000164357
-5.13924e-05
0.000166875
-6.0385e-05
0.000167754
-6.75728e-05
0.000167177
-7.29417e-05
0.000165409
-7.66638e-05
0.000162401
-7.8978e-05
0.000155868
-7.93852e-05
0.000144085
-7.69696e-05
0.000128736
-7.22415e-05
0.000110964
-6.6525e-05
9.05698e-05
-6.02728e-05
6.80323e-05
-5.34712e-05
4.40165e-05
-4.62022e-05
1.93301e-05
-3.86672e-05
-4.86755e-06
-3.11181e-05
-2.37486e-05
-2.52689e-05
1.96862e-05
5.84658e-06
3.68395e-05
1.61565e-05
5.11562e-05
2.3954e-05
6.33291e-05
2.92803e-05
7.40814e-05
3.21946e-05
8.40692e-05
3.26984e-05
9.38306e-05
3.07783e-05
0.000103729
2.64711e-05
0.000113907
1.99258e-05
0.000124344
1.14158e-05
0.000134859
1.27606e-06
0.000144983
-9.99424e-06
0.000154163
-2.1762e-05
0.00016152
-3.33278e-05
0.000166184
-4.3867e-05
0.000168509
-5.28626e-05
0.000168782
-6.01113e-05
0.00016708
-6.54614e-05
0.000163649
-6.90324e-05
0.000158334
-7.1037e-05
0.000149284
-7.10695e-05
0.000135108
-6.84071e-05
0.000117457
-6.35229e-05
9.75646e-05