/*--------------------------------*- C++ -*----------------------------------*\
| =========                 |                                                 |
| \\      /  F ield         | OpenFOAM: The Open Source CFD Toolbox           |
|  \\    /   O peration     | Version:  dev                                   |
|   \\  /    A nd           | Web:      www.OpenFOAM.org                      |
|    \\/     M anipulation  |                                                 |
\*---------------------------------------------------------------------------*/
FoamFile
{
    version     2.0;
    format      ascii;
    class       volScalarField;
    location    "1.96";
    object      p;
}
// * * * * * * * * * * * * * * * * * * * * * * * * * * * * * * * * * * * * * //

dimensions      [0 2 -2 0 0 0 0];

internalField   nonuniform List<scalar> 
2790
(
75.6092
75.4314
75.5315
75.856
76.3122
76.8694
77.527
78.2873
79.1503
80.116
81.1858
82.3612
83.6444
85.0376
86.5426
88.1611
89.8935
91.739
93.6949
95.7551
97.9095
100.142
102.43
104.741
107.03
109.242
111.305
113.132
114.617
115.604
75.4591
75.376
75.4962
75.8188
76.2731
76.829
77.4844
78.2412
79.0996
80.0598
81.123
82.2907
83.565
84.9477
86.4409
88.0458
89.763
91.5915
93.5286
95.5688
97.7025
99.9147
102.184
104.479
106.759
108.971
111.044
112.895
114.417
115.497
75.3217
75.3122
75.4503
75.7653
76.2115
76.7604
77.4074
78.1537
78.9996
79.9451
80.9909
82.1383
83.3887
84.7435
86.2039
87.7704
89.4427
91.2188
93.0951
95.065
97.1181
99.2391
101.406
103.588
105.745
107.819
109.739
111.397
112.629
112.879
75.1845
75.2139
75.3661
75.6751
76.1124
76.6525
77.2888
78.0217
78.8512
79.7771
80.7997
81.9195
83.1375
84.454
85.8692
87.3824
88.9917
90.6936
92.4823
94.3492
96.2815
98.2607
100.262
102.249
104.174
105.965
107.518
108.645
109.138
107.286
75.0387
75.089
75.2536
75.5595
75.9876
76.5167
77.1393
77.8548
78.6632
79.564
80.5567
81.6415
82.8183
84.0864
85.4447
86.8911
88.4217
90.0308
91.7103
93.4483
95.2281
97.0268
98.8122
100.54
102.145
103.53
104.539
104.851
104.396
99.7129
74.8798
74.9418
75.1151
75.4175
75.8348
76.3499
76.9552
77.6497
78.4327
79.3033
80.2605
81.3038
82.4319
83.6431
84.9349
86.3032
87.7424
89.2441
90.7971
92.3858
93.9887
95.5766
97.1086
98.527
99.7466
100.635
100.987
100.305
98.9459
91.4036
74.7057
74.7743
74.9521
75.2497
75.655
76.1538
76.7391
77.4092
78.163
78.999
79.9156
80.9114
81.9841
83.1307
84.3471
85.6277
86.9642
88.3459
89.7583
91.1814
92.5882
93.9423
95.1928
96.2673
97.0583
97.3976
97.0496
95.2984
93.1916
83.2122
74.5153
74.5873
74.7663
75.0575
75.4494
75.9298
76.4924
77.135
77.856
78.6531
79.5243
80.4672
81.4785
82.5537
83.6872
84.8714
86.0961
87.3474
88.6076
89.8522
91.0486
92.1525
93.1029
93.8123
94.1528
93.9233
92.8834
90.0658
87.378
75.5533
74.3083
74.3817
74.5591
74.8422
75.2191
75.6792
76.2167
76.8289
77.5136
78.2682
79.0897
79.9748
80.9194
81.9173
82.9614
84.0424
85.1477
86.2606
87.3595
88.416
89.3919
90.2352
90.875
91.2102
91.0953
90.2993
88.6027
84.7724
81.6221
68.5213
74.0847
74.1581
74.3319
74.605
74.9655
75.4034
75.9135
76.4928
77.1384
77.847
78.615
79.4384
80.3115
81.2273
82.1769
83.1491
84.129
85.0974
86.0288
86.8909
87.6403
88.2179
88.5436
88.5047
87.9412
86.5942
84.284
79.5169
75.9417
61.9947
73.845
73.9175
74.0859
74.3474
74.69
75.1041
75.5848
76.1288
76.7327
77.3925
78.1039
78.8622
79.6602
80.4898
81.3408
82.2
83.0504
83.87
84.6304
85.2951
85.8157
86.127
86.1409
85.7344
84.7358
82.8596
79.9716
74.3456
70.2784
55.6895
73.5898
73.6608
73.8223
74.0708
74.3941
74.783
75.2325
75.7392
76.2992
76.9078
77.5602
78.2505
78.9706
79.7111
80.4605
81.204
81.9223
82.5911
83.1789
83.646
83.9394
83.9884
83.6977
82.9352
81.5193
79.1385
75.6874
69.2695
64.5144
49.2095
73.3199
73.3887
73.5424
73.7766
74.0793
74.4418
74.8587
75.3264
75.8407
76.3961
76.9874
77.6077
78.2478
78.8972
79.5434
80.1696
80.7549
81.2726
81.6891
81.9612
82.0322
81.8268
81.2434
80.1413
78.3293
75.4686
71.4469
64.2912
58.5012
42.0665
73.0363
73.1025
73.2474
73.4661
73.7474
74.0822
74.4652
74.8926
75.3597
75.8606
76.3893
76.9381
77.4968
78.0543
78.5964
79.1052
79.5581
79.9266
80.1749
80.2572
80.1137
79.6653
78.8055
77.3859
75.2041
71.8953
67.2994
59.4649
52.1652
33.6391
72.7399
72.8033
72.9385
73.1409
73.3998
73.7061
74.0542
74.4403
74.8593
75.3047
75.7699
76.2464
76.7234
77.1888
77.6274
78.0201
78.3428
78.5657
78.6514
78.5517
78.2048
77.5289
76.414
74.7061
72.1929
68.4936
63.3734
54.9953
45.851
23.0878
-2.26234
-2.25815
-2.27387
-2.33254
-2.44457
-2.58286
-2.71406
-2.82363
-2.90887
-2.97077
-3.0103
-3.02676
-3.01869
-2.98568
-2.9276
-2.84189
-2.72359
-2.57012
-2.38523
-2.17402
-1.9363
-1.66974
-1.37728
-1.06885
-0.759063
-0.46618
-0.211761
-0.0182189
0.0918653
0.100703
-2.26655
-2.26477
-2.28437
-2.34601
-2.45953
-2.59712
-2.72686
-2.83524
-2.91991
-2.98173
-3.02144
-3.03808
-3.02998
-2.99695
-2.93963
-2.85532
-2.73737
-2.58227
-2.39587
-2.18536
-1.94855
-1.68015
-1.38313
-1.0686
-0.751018
-0.448417
-0.184946
0.0156891
0.128678
0.118259
-2.27291
-2.27368
-2.30005
-2.36808
-2.48514
-2.62185
-2.74919
-2.85557
-2.93908
-3.00042
-3.03999
-3.05638
-3.04762
-3.01382
-2.95721
-2.87503
-2.7574
-2.59894
-2.41
-2.20128
-1.96847
-1.69903
-1.39408
-1.07091
-0.749281
-0.441654
-0.171837
0.0267536
0.130818
0.102418
-2.28078
-2.28383
-2.31946
-2.39676
-2.5185
-2.65391
-2.77801
-2.88172
-2.96355
-3.0239
-3.06283
-3.07857
-3.06843
-3.03243
-2.97542
-2.89578
-2.77826
-2.61169
-2.41593
-2.21138
-1.98729
-1.72524
-1.42461
-1.10305
-0.780688
-0.474576
-0.208345
-0.00845801
0.0955343
0.0650774
-2.28966
-2.29429
-2.34125
-2.42969
-2.556
-2.6894
-2.80977
-2.91038
-2.99023
-3.04926
-3.08716
-3.1018
-3.08917
-3.04735
-2.98301
-2.9041
-2.79792
-2.64202
-2.44333
-2.22862
-2.0007
-1.74644
-1.46126
-1.15577
-0.846301
-0.552647
-0.294764
-0.0944538
0.0134978
0.0151277
-2.29863
-2.30355
-2.36337
-2.46353
-2.59327
-2.72402
-2.84096
-2.93867
-3.01725
-3.07508
-3.10988
-3.12156
-3.11036
-3.07211
-3.00452
-2.91344
-2.79766
-2.64734
-2.46322
-2.25795
-2.03617
-1.79306
-1.52635
-1.2426
-0.953813
-0.676187
-0.425861
-0.22502
-0.100831
-0.0357009
-2.30626
-2.30934
-2.38293
-2.49394
-2.62571
-2.75456
-2.8706
-2.96757
-3.04531
-3.10629
-3.14468
-3.1542
-3.13475
-3.08879
-3.01758
-2.92301
-2.80407
-2.65756
-2.48562
-2.29509
-2.08855
-1.86394
-1.62052
-1.36267
-1.09862
-0.838333
-0.593762
-0.385236
-0.227873
-0.0854502
-2.30992
-2.30873
-2.39656
-2.51786
-2.65385
-2.78413
-2.90186
-3.00699
-3.09097
-3.15048
-3.18477
-3.19025
-3.16561
-3.11276
-3.0351
-2.93607
-2.81652
-2.67601
-2.51687
-2.34324
-2.1567
-1.95612
-1.74077
-1.51253
-1.27532
-1.03241
-0.790783
-0.565538
-0.360832
-0.134603
-2.30461
-2.29986
-2.4046
-2.53916
-2.68316
-2.82408
-2.95185
-3.06001
-3.14738
-3.20907
-3.2412
-3.24075
-3.20769
-3.14542
-3.05942
-2.95508
-2.83547
-2.70203
-2.55685
-2.40233
-2.23926
-2.06674
-1.88331
-1.6878
-1.47898
-1.25379
-1.01259
-0.762235
-0.499029
-0.184253
-2.2828
-2.28563
-2.4142
-2.56826
-2.72886
-2.88046
-3.01748
-3.13457
-3.22698
-3.28953
-3.31769
-3.30866
-3.26358
-3.18814
-3.09087
-2.97988
-2.86033
-2.73457
-2.60408
-2.46999
-2.33254
-2.1908
-2.04243
-1.88299
-1.70535
-1.49987
-1.25802
-0.976059
-0.644926
-0.235922
-2.23985
-2.27562
-2.43655
-2.616
-2.79422
-2.96203
-3.11204
-3.23824
-3.33502
-3.39666
-3.41798
-3.39633
-3.33432
-3.24077
-3.12836
-3.00877
-2.88895
-2.77124
-2.65583
-2.54264
-2.43166
-2.32231
-2.21178
-2.0927
-1.95161
-1.77038
-1.52921
-1.2115
-0.803276
-0.291543
-2.18439
-2.27688
-2.48185
-2.69071
-2.89368
-3.08068
-3.24417
-3.37784
-3.4763
-3.53386
-3.54461
-3.5053
-3.41988
-3.30155
-3.16892
-3.03824
-2.91782
-2.80864
-2.70861
-2.61614
-2.53132
-2.45484
-2.38477
-2.31189
-2.2161
-2.06701
-1.83138
-1.4762
-0.980826
-0.353389
-2.12517
-2.30517
-2.56475
-2.8114
-3.04231
-3.24797
-3.42156
-3.55824
-3.65392
-3.70316
-3.6988
-3.63583
-3.51896
-3.36706
-3.2076
-3.06315
-2.94239
-2.84293
-2.75888
-2.68652
-2.62634
-2.58182
-2.55433
-2.53495
-2.49683
-2.39378
-2.17336
-1.7799
-1.18557
-0.423651
-2.10559
-2.39067
-2.71656
-3.00322
-3.25789
-3.47536
-3.65069
-3.78212
-3.86818
-3.90387
-3.87983
-3.78721
-3.62947
-3.43251
-3.23777
-3.07719
-2.95775
-2.87051
-2.80391
-2.75099
-2.71261
-2.69696
-2.71258
-2.75481
-2.79119
-2.75572
-2.56337
-2.13068
-1.42489
-0.50442
-2.53501
-2.60024
-2.98524
-3.28388
-3.54317
-3.75901
-3.92184
-4.03664
-4.1065
-4.12649
-4.08299
-3.95866
-3.75031
-3.4925
-3.25123
-3.0734
-2.95913
-2.88839
-2.84246
-2.80939
-2.78884
-2.7955
-2.85071
-2.96091
-3.09116
-3.14939
-3.0057
-2.53434
-1.70261
-0.598494
72.426
72.4861
72.611
72.796
73.0313
73.3078
73.6196
73.9629
74.3322
74.7205
75.1207
75.5233
75.9171
76.2893
76.6238
76.9003
77.0937
77.1733
77.1
76.8246
76.284
75.3951
74.0467
72.0832
69.2901
65.2935
59.7996
51.2144
40.6456
9.35273
72.0909
72.1473
72.261
72.4275
72.6379
72.8831
73.157
73.4558
73.7736
74.1029
74.436
74.7631
75.0723
75.3502
75.5799
75.7403
75.8059
75.745
75.5181
75.0756
74.3544
73.2726
71.7213
69.5511
66.5594
62.4177
56.8687
48.8123
39.7795
33.634
71.7369
71.7894
71.8912
72.0384
72.2227
72.4354
72.6704
72.9234
73.1884
73.4576
73.7227
73.9734
74.1978
74.3816
74.5073
74.5539
74.4951
74.2993
73.9272
73.3299
72.4461
71.1978
69.4834
67.1688
64.0825
59.9846
54.7736
48.1102
41.352
38.9274
71.3648
71.413
71.5023
71.6294
71.7868
71.9659
72.161
72.3675
72.5789
72.7873
72.9839
73.1584
73.2983
73.3892
73.4133
73.3494
73.1716
72.8485
72.3418
71.6049
70.5801
69.1959
67.3633
64.971
61.8914
57.9843
53.2564
47.6423
41.2975
35.731
70.9753
71.019
71.0953
71.2015
71.3311
71.4761
71.6307
71.79
71.9474
72.0947
72.2232
72.3221
72.3789
72.3789
72.3048
72.1353
71.8452
71.4042
70.7759
69.9168
68.775
67.2882
65.3829
62.9734
59.9757
56.3203
52.0262
47.0691
41.3631
35.9322
70.5694
70.6082
70.671
70.7558
70.8571
70.9674
71.0812
71.1931
71.2965
71.3832
71.4442
71.4688
71.4446
71.357
71.1889
70.9198
70.5256
69.9776
69.242
68.2798
67.0461
65.4898
63.5526
61.173
58.3025
54.9127
51.02
46.6513
41.8288
37.1727
70.1481
70.1818
70.2309
70.2939
70.3665
70.4419
70.5146
70.5792
70.629
70.6559
70.6509
70.6032
70.5008
70.3295
70.0728
69.7112
69.2221
68.5791
67.7514
66.7057
65.405
63.809
61.8728
59.5564
56.838
53.7111
50.1956
46.3382
42.1828
38.046
69.7128
69.7412
69.7762
69.8172
69.8609
69.9014
69.9333
69.9511
69.9481
69.9166
69.8474
69.7302
69.5532
69.3028
68.9636
68.5174
67.9437
67.2182
66.3139
65.2038
63.8591
62.2481
60.3379
58.1074
55.5514
52.6726
49.4926
46.0547
42.4008
38.726
69.2652
69.288
69.3087
69.3275
69.3425
69.3484
69.3399
69.3116
69.2571
69.1688
69.038
68.8545
68.6071
68.2831
67.8681
67.3458
66.6981
65.9027
64.9369
63.7806
62.4117
60.8054
58.9403
56.8093
54.4147
51.7638
48.8786
45.7982
42.5645
39.3144
68.807
68.8239
68.83
68.8268
68.8135
68.7853
68.7371
68.664
68.5595
68.4167
68.227
67.981
67.6679
67.2763
66.7928
66.2033
65.4921
64.639
63.6262
62.44
61.0631
59.477
57.6707
55.6448
53.405
50.9615
48.3368
45.5654
42.6856
39.7972
68.3402
68.3509
68.3424
68.3174
68.2763
68.2146
68.128
68.0113
67.8589
67.6641
67.419
67.1145
66.7409
66.288
65.7435
65.0958
64.3312
63.4321
62.3858
61.1835
59.8115
58.2578
56.5186
54.5981
52.5038
50.2482
47.8529
45.3474
42.7646
40.1801
67.8669
67.8711
67.8479
67.8016
67.7334
67.6393
67.5155
67.3572
67.159
66.9151
66.6183
66.2597
65.8309
65.3231
64.7255
64.0281
63.2197
62.2858
61.2181
60.0108
58.6542
57.1414
55.4731
53.655
51.6962
49.61
47.4161
45.1394
42.8076
40.4798
67.3895
67.3869
67.3489
67.282
67.1876
67.0624
66.9028
66.7049
66.4636
66.1738
65.8291
65.4211
64.9426
64.3865
63.7431
63.0042
62.1611
61.2028
60.1238
58.9206
57.5871
56.1206
54.5237
52.8035
50.9697
49.0355
47.0182
44.9391
42.821
40.7107
66.9107
66.9008
66.8481
66.7613
66.6419
66.4868
66.2933
66.058
65.7764
65.4441
65.0555
64.6029
64.0802
63.4822
62.8002
62.0274
61.1581
60.1844
59.1025
57.9104
56.6055
55.1878
53.6613
52.0335
50.3141
48.5157
46.6534
44.7452
42.8099
40.8845
66.433
66.4155
66.3484
66.2425
66.0994
65.9158
65.6903
65.4201
65.1012
64.7299
64.3015
63.8091
63.2477
62.6135
61.8997
61.1008
60.2129
59.231
58.1524
56.9769
55.7043
54.3362
52.8777
51.3361
49.7209
48.0435
46.3172
44.5571
42.7786
41.0113
65.9593
65.9339
65.8525
65.7289
65.5631
65.3527
65.0973
64.7949
64.4418
64.0348
63.5705
63.0434
62.4488
61.7838
61.0445
60.2263
59.3263
58.3417
57.2717
56.1167
54.8783
53.5596
52.1658
50.7039
49.1829
47.6132
46.0063
44.3747
42.7312
41.0995
65.4929
65.4589
65.3637
65.2235
65.0366
64.801
64.5181
64.1859
63.8016
63.3626
62.8662
62.3088
61.6863
60.9966
60.2372
59.405
58.4981
57.5157
56.4579
55.3261
54.1229
52.8521
51.519
50.1303
48.6943
47.2203
45.7182
44.1984
42.6713
41.1564
65.0366
64.9939
64.8852
64.7297
64.5231
64.2641
63.9557
63.5966
63.184
62.7167
62.1926
61.609
60.9632
60.2537
59.4791
58.6375
57.7283
56.7517
55.7088
54.6017
53.4335
52.2085
50.9318
49.6099
48.2503
46.8612
45.451
44.0285
42.6023
41.1882
64.593
64.5425
64.4215
64.2511
64.026
63.7453
63.4138
63.0305
62.5929
62.1007
61.5527
60.9471
60.2821
59.557
58.7712
57.9242
57.0162
56.0482
55.0219
53.9401
52.806
51.6242
50.3997
49.1385
47.8473
46.5332
45.2036
43.8658
42.527
41.2001
64.1653
64.1083
63.9761
63.7911
63.5486
63.2486
62.8964
62.4914
62.0318
61.518
60.9496
60.3255
59.645
58.908
58.1147
57.2655
56.3613
55.4037
54.3951
53.3383
52.237
51.0954
49.9187
48.7123
47.482
46.2342
44.9752
43.7111
42.4481
41.1967
63.7573
63.6951
63.5527
63.3532
63.0949
62.778
62.4073
61.9828
61.504
60.9717
60.3859
59.7467
59.054
58.3083
57.5104
56.6614
55.7629
54.817
53.8262
52.7938
51.7233
50.6191
49.4858
48.3284
47.1522
45.9627
44.7653
43.5654
42.368
41.182
63.3727
63.3064
63.1551
62.9418
62.6689
62.3372
61.9498
61.5082
61.0128
60.4647
59.8646
59.2131
58.511
57.7592
56.9591
56.1122
55.2207
54.2869
53.3138
52.3045
51.2628
50.1926
49.0984
47.9847
46.8562
45.7177
44.574
43.4298
42.2892
41.1596
63.016
62.9461
62.7869
62.5609
62.2748
61.9294
61.5276
61.0711
60.5615
60.0002
59.3884
58.7272
58.0179
57.2621
56.4615
55.6181
54.7343
53.8127
52.8565
51.8688
50.8533
49.8138
48.7544
47.6792
46.5925
45.4985
44.4014
43.3051
42.2135
41.1323
62.6922
62.6185
62.4516
62.2143
61.9161
61.5587
61.1443
60.6753
60.1537
59.5814
58.9601
58.2914
57.577
56.8188
56.019
55.1799
54.3041
53.3944
52.4539
51.486
50.494
49.4818
48.4531
47.4116
46.3612
45.3056
44.2485
43.1934
42.1435
41.1038
62.406
62.328
62.1534
61.9058
61.5968
61.2288
60.8037
60.324
59.7924
59.2111
58.5822
57.9077
57.1896
56.4303
55.6321
54.7976
53.9295
53.0309
52.1048
51.1544
50.1833
49.1949
48.1927
47.1802
46.1608
45.1379
44.1147
43.0944
42.0797
41.0748
62.1624
62.0794
61.8964
61.6392
61.321
60.9441
60.5101
60.0217
59.4821
58.8937
58.259
57.5802
56.8598
56.1002
55.3041
54.4742
53.6134
52.7247
51.8112
50.8763
49.923
48.9549
47.9752
46.9871
45.9937
44.9981
44.0033
43.012
42.0267
41.051
61.9674
61.8776
61.6848
61.4182
61.0917
60.707
60.2653
59.7697
59.2235
58.6296
57.9904
57.3086
56.5868
55.8275
55.0336
54.208
53.3536
52.4735
51.5708
50.6486
49.7102
48.7587
47.7974
46.8291
45.8567
44.8831
43.911
42.9428
41.9809
41.028
61.8284
61.727
61.5228
61.2491
60.9171
60.5266
60.0791
59.5779
59.0268
58.4287
57.7862
57.1023
56.3795
55.6207
54.8288
54.0068
53.1576
52.2844
51.3902
50.4782
49.5514
48.6131
47.6661
46.7133
45.7573
44.8009
43.8465
42.8965
41.9531
41.0186
61.7579
61.6259
61.4036
61.1244
60.7894
60.3954
59.9441
59.4396
58.8856
58.2852
57.6412
56.9563
56.2334
55.4754
54.6853
53.8661
53.0208
52.1525
51.2643
50.3593
49.4405
48.5111
47.5737
46.6312
45.6861
44.741
43.7983
42.86
41.9284
41.0053
61.7851
61.6004
61.3555
61.0702
60.7317
60.334
59.8793
59.3721
58.816
58.2141
57.569
56.8836
56.1609
55.4037
54.615
53.7979
52.9554
52.0906
51.2064
50.3061
49.3925
48.4688
47.5376
46.6016
45.6633
44.7251
43.7894
42.8583
41.9337
41.017
-79.6234
-51.4035
-22.9297
26.1519
22.4302
18.9583
29.1592
20.466
15.2558
26.5967
21.0324
17.6126
29.9136
25.8745
22.7678
32.4181
29.0257
26.2406
33.967
31.1082
28.745
35.231
32.8074
30.79
36.2849
34.1881
32.4344
37.133
35.292
33.7486
37.814
36.1814
34.8095
38.3612
36.9006
35.6703
38.7988
37.4816
36.3697
39.1468
37.9503
36.9384
39.4213
38.3274
37.4005
39.6358
38.6294
37.7752
39.8011
38.8699
38.0782
39.9262
39.0598
38.3221
40.0187
39.2083
38.5172
40.0851
39.3231
38.6724
40.1307
39.4107
38.7948
40.1605
39.4767
38.8909
40.178
39.5254
38.9655
40.188
39.562
39.024
40.1911
39.5876
39.0683
40.1945
39.6097
39.1055
40.1925
39.6227
39.1311
40.2007
39.6423
39.1597
40.1981
39.6479
39.1723
40.2222
39.6807
39.2091
2.01535
-1.51828
-3.41603
-3.74455
-4.02011
-4.20438
-4.3121
-4.38026
-4.41765
-4.41404
-4.3453
-4.17727
-3.89296
-3.54284
-3.23632
-3.04218
-2.9395
-2.89036
-2.87041
-2.86048
-2.85385
-2.87164
-2.95524
-3.13311
-3.37536
-3.55826
-3.48287
-2.96684
-1.99621
-0.697806
11.5841
0.867998
-3.03899
-3.66822
-3.81414
-3.99574
-4.18714
-4.35111
-4.46754
-4.51656
-4.47063
-4.28714
-3.93934
-3.51503
-3.18238
-3.00567
-2.92373
-2.89384
-2.9018
-2.91929
-2.92446
-2.94081
-3.03879
-3.28375
-3.65597
-3.98632
-3.94112
-3.31532
-2.19115
-0.732237
9.92984
3.28016
-0.0398532
-1.33529
-2.12605
-2.82926
-3.41137
-3.83916
-4.1235
-4.27624
-4.29273
-4.15718
-3.87896
-3.53037
-3.2032
-2.96172
-2.83115
-2.81104
-2.87152
-2.9409
-2.95761
-2.95244
-3.05347
-3.37765
-3.90934
-4.34608
-4.22273
-3.43913
-2.19922
-0.68526
13.6318
8.83789
5.23325
2.79711
1.05278
-0.302126
-1.35341
-2.13662
-2.69303
-3.0558
-3.24165
-3.26142
-3.14296
-2.94514
-2.74373
-2.6056
-2.56182
-2.60365
-2.69362
-2.78018
-2.84155
-2.92984
-3.14876
-3.55589
-4.04357
-4.26185
-3.93067
-3.09283
-1.90191
-0.557214
18.8888
14.5399
10.5658
7.36239
4.93046
3.05651
1.58487
0.437002
-0.436852
-1.07571
-1.50936
-1.76426
-1.87557
-1.89527
-1.88582
-1.90041
-1.96513
-2.07838
-2.22103
-2.36982
-2.52021
-2.70409
-2.96848
-3.30789
-3.59188
-3.60513
-3.228
-2.49357
-1.50194
-0.441585
22.8611
19.031
15.138
11.7094
8.94885
6.73981
4.94181
3.47807
2.30486
1.38541
0.685686
0.173167
-0.188776
-0.444929
-0.644309
-0.829112
-1.02515
-1.24026
-1.46909
-1.70164
-1.93553
-2.18326
-2.45671
-2.72711
-2.88898
-2.8265
-2.4923
-1.90438
-1.13988
-0.360624
25.9095
22.6049
19.0067
15.6368
12.7755
10.3857
8.36982
6.66955
5.25191
4.08628
3.1408
2.38385
1.78187
1.29735
0.89128
0.529356
0.187491
-0.146366
-0.474306
-0.793403
-1.10178
-1.40071
-1.6847
-1.9208
-2.0352
-1.97094
-1.71938
-1.29983
-0.772323
-0.260373
28.3619
25.4745
22.2076
19.0174
16.1938
13.7481
11.6197
9.7698
8.1769
6.81882
5.66974
4.70295
3.89058
3.20215
2.60642
2.07573
1.58911
1.13346
0.702793
0.29595
-0.0858372
-0.438995
-0.752565
-0.999629
-1.13478
-1.13242
-0.999956
-0.758426
-0.452605
-0.168443
30.3141
27.7575
24.8072
21.845
19.1398
16.7258
14.5678
12.6431
10.9405
9.44634
8.14223
7.0083
6.02331
5.16296
4.40238
3.7199
3.0981
2.52423
1.9907
1.49451
1.03608
0.619432
0.254368
-0.0407042
-0.240147
-0.333604
-0.333406
-0.261206
-0.151538
-0.0632672
31.8733
29.5883
26.9228
24.1948
21.6438
19.3117
17.1789
15.2341
13.4746
11.8937
10.48
9.22056
8.10046
7.10067
6.20179
5.38748
4.64393
3.95946
3.32607
2.74003
2.20085
1.7111
1.27717
0.909788
0.621808
0.416076
0.279855
0.192527
0.126879
0.0430758
33.1339
31.0752
28.6576
26.1495
23.7615
21.5358
19.4613
17.534
15.7567
14.1284
12.6435
11.2951
10.0731
8.96328
7.95115
7.02502
6.17458
5.38931
4.66132
3.98679
3.36424
2.79437
2.28026
1.8269
1.4392
1.11601
0.845789
0.610242
0.387532
0.149888
34.1602
32.292
30.0886
27.7795
25.5502
23.4404
21.443
19.5577
17.7906
16.1445
14.6187
13.211
11.9151
10.7209
9.61772
8.59848
7.65623
6.78068
5.96441
5.20428
4.49805
3.84469
3.24465
2.6991
2.20831
1.76886
1.37047
0.997521
0.63214
0.253926
34.9988
33.293
31.2749
29.1435
27.063
25.0695
23.1579
21.3295
19.5916
17.9497
16.4064
14.9627
13.6156
12.3587
11.1844
10.0891
9.06836
8.11249
7.21497
6.37358
5.58564
4.84872
4.1614
3.52244
2.92954
2.37804
1.85865
1.35825
0.861859
0.353525
35.6857
34.1194
32.2622
30.2886
28.3449
26.4635
24.6399
22.8761
21.1799
19.5579
18.0147
16.5532
15.1731
13.8714
12.6428
11.4857
10.398
9.37186
8.40105
7.48374
6.6177
5.79964
5.02677
4.29643
3.60497
2.94692
2.31398
1.6952
1.07759
0.447904
36.249
34.8031
33.0861
31.252
29.4327
27.6568
25.92
24.2237
22.5761
20.9843
19.4538
17.9883
16.5898
15.2578
13.9891
12.7826
11.6386
10.5521
9.51652
8.52977
7.5903
6.69482
5.83987
5.02193
4.23667
3.47829
2.73937
2.01044
1.2801
0.536853
36.7107
35.3691
33.7744
32.0637
30.3564
28.6783
27.0244
25.3959
23.8002
22.2448
20.7355
19.2766
17.8713
16.521
15.2239
13.9795
12.7893
11.6504
10.5575
9.50828
8.50115
7.5332
6.60087
5.70025
4.82671
3.97455
3.13697
2.30552
1.47009
0.620458
37.0887
35.8376
34.3496
32.7479
31.1411
29.5524
27.9766
26.4139
24.8713
23.3558
21.8735
20.4287
19.0254
17.6657
16.3492
15.0764
13.849
12.6655
11.5226
10.4177
9.34916
8.31454
7.31042
6.33272
5.37685
4.43743
3.50818
2.58139
1.64801
0.698763
37.3973
36.2249
34.8302
33.3245
31.8074
30.3
28.7965
27.2966
25.8063
24.3323
22.8802
21.4547
20.0594
18.697
17.3688
16.0759
14.8194
13.5989
12.4123
11.258
10.1342
9.03898
7.96902
6.92024
5.88819
4.86804
3.85391
2.8387
1.81418
0.771845
37.6485
36.5445
35.2313
33.8101
32.3729
30.9386
29.5015
28.0603
26.6202
25.1875
23.7673
22.364
20.9814
19.622
18.2879
16.981
15.7024
14.4513
13.2273
12.0295
10.8567
9.70699
8.57746
7.46371
6.36175
5.26739
4.17504
3.07801
1.96892
0.839882
37.8523
36.8075
35.5655
34.2186
32.8521
31.4835
30.1065
28.7195
27.3268
25.9341
24.546
23.1666
21.7994
20.4469
19.1113
17.7953
16.5
15.2249
13.9698
12.7345
11.518
10.3201
9.1374
7.96436
6.79812
5.63578
4.47172
3.29948
2.11241
0.903101
38.0167
37.0234
35.8432
34.5615
33.2574
31.9471
30.6243
29.2868
27.9382
26.5833
25.2265
23.8714
22.5211
21.1781
19.8451
18.5241
17.2164
15.9221
14.6415
13.3739
12.1191
10.8781
9.64772
8.42171
7.19781
5.97378
4.74416
3.50305
2.24439
0.961138
38.1489
37.2
36.0737
34.8487
33.5994
32.3408
31.0664
29.7735
28.4651
27.1455
25.8186
24.4874
23.1546
21.8228
20.4943
19.1711
17.8546
16.5453
15.2436
13.9493
12.6625
11.3834
10.1094
8.83641
7.56184
6.28233
4.99317
3.68953
2.36566
1.0146
38.2546
37.3439
36.2639
35.0882
33.8866
32.6732
31.4415
30.1884
28.9163
27.629
26.3298
25.0212
23.7058
22.3857
21.0632
19.7402
18.4182
17.0974
15.778
14.4615
13.1479
11.8357
10.5228
9.20849
7.88951
6.56013
5.21695
3.85705
2.47458
1.06256
38.3395
37.4613
36.4211
35.2877
34.1273
32.9532
31.7588
30.5407
29.3008
28.0424
26.7683
25.4808
24.1819
22.8736
21.5579
20.2369
18.9119
17.5821
16.2483
14.9136
13.5777
12.237
10.8904
9.53973
8.18154
6.80851
5.4179
4.00806
2.57315
1.10615
38.4062
37.5554
36.5488
35.4512
34.3259
33.1853
32.0229
30.835
29.6231
28.39
27.1383
25.8697
24.5859
23.2887
21.9798
20.6616
19.3354
17.9988
16.6532
15.3037
13.949
12.5846
11.2102
9.82741
8.43352
7.0226
5.59175
4.13854
2.65762
1.14272
38.4614
37.6331
36.6544
35.5868
34.4906
33.3781
32.2426
31.0803
29.8922
28.6809
27.4484
26.1962
24.9259
23.6389
22.3366
21.0216
19.6949
18.3534
16.999
15.6376
14.2672
12.8834
11.4864
10.0766
8.65195
7.20859
5.74374
4.25353
2.73281
1.17582
38.5022
37.692
36.7356
35.6919
34.6192
33.5293
32.4155
31.274
30.1053
28.9117
27.695
26.4566
25.1975
23.9191
22.6227
21.3104
19.9832
18.6385
17.2781
15.9069
14.5234
13.1239
11.7083
10.2766
8.8268
7.35662
5.86374
4.34349
2.79049
1.19994
38.541
37.7444
36.8051
35.7798
34.7251
33.6525
32.5556
31.43
30.2764
29.0966
27.8923
26.6646
25.4144
24.1429
22.8513
21.5412
20.2134
18.8666
17.5022
16.1232
14.729
13.3173
11.8875
10.4388
8.96926
7.47749
5.96191
4.41775
2.83878
1.2202
38.562
37.7738
36.8459
35.8331
34.7908
33.73
32.6443
31.5296
30.3861
29.2156
28.0197
26.7993
25.5552
24.2884
23.0002
21.6916
20.3632
19.0152
17.6484
16.2642
14.8628
13.4429
12.0037
10.5442
9.06182
7.55524
6.02469
4.46491
2.86698
1.22764
38.598
37.8084
36.8859
35.8808
34.8455
33.791
32.7112
31.6021
30.4637
29.298
28.1061
26.8891
25.6476
24.3828
23.0956
21.787
20.4579
19.1084
17.7393
16.3515
14.9451
13.5194
12.0732
10.6057
9.11467
7.59834
6.05946
4.49126
2.87951
1.21806
)
;

boundaryField
{
    inlet
    {
        type            zeroGradient;
    }
    outlet
    {
        type            fixedValue;
        value           uniform 0;
    }
    flap
    {
        type            zeroGradient;
    }
    upperWall
    {
        type            zeroGradient;
    }
    lowerWall
    {
        type            zeroGradient;
    }
    frontAndBack
    {
        type            empty;
    }
}


// ************************************************************************* //
