/*--------------------------------*- C++ -*----------------------------------*\
| =========                 |                                                 |
| \\      /  F ield         | OpenFOAM: The Open Source CFD Toolbox           |
|  \\    /   O peration     | Version:  dev                                   |
|   \\  /    A nd           | Web:      www.OpenFOAM.org                      |
|    \\/     M anipulation  |                                                 |
\*---------------------------------------------------------------------------*/
FoamFile
{
    version     2.0;
    format      ascii;
    class       surfaceScalarField;
    location    "2.07";
    object      phi;
}
// * * * * * * * * * * * * * * * * * * * * * * * * * * * * * * * * * * * * * //

dimensions      [0 3 -1 0 0 0 0];

internalField   nonuniform List<scalar> 
5457
(
0.197456
0.00254509
0.194912
0.00254403
0.192309
0.00259969
0.189585
0.00271934
0.186729
0.00285043
0.183738
0.00298344
0.180606
0.00312372
0.177323
0.00327606
0.173875
0.00344163
0.170249
0.00362287
0.166424
0.003824
0.162384
0.00404188
0.15811
0.00427976
0.153571
0.00454612
0.148738
0.00484229
0.143575
0.00517222
0.138043
0.00554073
0.132098
0.00595245
0.125687
0.00641769
0.118748
0.00694336
0.111216
0.00753403
0.103016
0.00820094
0.0940598
0.00895557
0.0842472
0.00981173
0.0734567
0.0107895
0.0615379
0.0119177
0.0482938
0.0132432
0.0334369
0.0148564
0.0163256
0.017111
0.0163256
0.199315
0.00323123
0.198114
0.00374507
0.196717
0.00399431
0.195141
0.00429012
0.193381
0.00460373
0.191432
0.0049253
0.189285
0.00526212
0.186938
0.00561627
0.18438
0.00599347
0.181601
0.00639856
0.178586
0.00683761
0.175319
0.00731152
0.171776
0.00782728
0.167935
0.00839543
0.163765
0.00902108
0.159233
0.0097132
0.1543
0.0104828
0.148919
0.0113412
0.143038
0.0123057
0.136591
0.0133943
0.129504
0.0146243
0.121682
0.0160234
0.113012
0.0176248
0.103352
0.0194714
0.0925052
0.021635
0.0801834
0.0242384
0.0659353
0.0274906
0.0489963
0.0317949
0.0274313
0.0386758
0.0437568
0.199179
0.00405382
0.198058
0.00486598
0.196736
0.00531379
0.195256
0.00576479
0.193616
0.00623744
0.191808
0.00672549
0.189827
0.00723461
0.187668
0.0077675
0.185323
0.00833246
0.182782
0.00893562
0.180037
0.00958146
0.177068
0.0102835
0.173848
0.0110523
0.170359
0.0118916
0.166576
0.0128135
0.162466
0.0138325
0.157992
0.0149665
0.153103
0.0162383
0.147748
0.0176671
0.141863
0.0192839
0.13536
0.0211306
0.128122
0.0232625
0.119996
0.0257501
0.110784
0.0286828
0.100199
0.0322186
0.0877891
0.0366475
0.0727647
0.0425142
0.0538348
0.0507242
0.0295722
0.0629382
0.0733289
0.199087
0.00496792
0.197972
0.00598113
0.196664
0.00661917
0.195198
0.00722624
0.193575
0.00785424
0.19179
0.00850227
0.189841
0.00917496
0.187722
0.00987889
0.185425
0.010623
0.182942
0.0114148
0.180262
0.0122602
0.17737
0.013177
0.174248
0.0141794
0.170875
0.0152722
0.167228
0.0164702
0.163277
0.0177934
0.158989
0.0192639
0.154316
0.0209202
0.149198
0.0227927
0.143564
0.024923
0.137322
0.0273753
0.130349
0.0302363
0.122463
0.0336368
0.113402
0.0377427
0.102781
0.0428382
0.0900487
0.0493793
0.0743427
0.0582194
0.0538781
0.0711882
0.0285029
0.0883132
0.101832
0.199041
0.00592883
0.197916
0.00710505
0.196619
0.00791453
0.195164
0.00867622
0.193556
0.00945579
0.19179
0.0102597
0.189863
0.0110935
0.187768
0.0119657
0.185498
0.0128865
0.183043
0.013865
0.180391
0.0149107
0.177533
0.0160373
0.174451
0.0172662
0.171122
0.0186091
0.167523
0.0200788
0.163624
0.0217029
0.159389
0.0235088
0.154777
0.0255414
0.149727
0.0278509
0.144154
0.0305018
0.137951
0.0335812
0.130992
0.0371968
0.123075
0.0415545
0.113896
0.046921
0.103029
0.0537044
0.0897693
0.0626382
0.0733061
0.0746819
0.051843
0.0926509
0.0262531
0.113903
0.128085
0.199016
0.00691418
0.197885
0.00823608
0.1966
0.0091974
0.195161
0.0101101
0.193571
0.0110387
0.191827
0.0119953
0.189924
0.0129879
0.187855
0.0140266
0.185611
0.0151229
0.183184
0.0162875
0.18056
0.0175324
0.177727
0.0188727
0.174668
0.02033
0.171364
0.02192
0.16779
0.0236632
0.16391
0.0255932
0.159683
0.0277467
0.155068
0.0301664
0.15001
0.0329169
0.144413
0.0361056
0.138151
0.0398475
0.131073
0.0442768
0.122962
0.0496657
0.113482
0.0564005
0.102199
0.064987
0.0884233
0.0764137
0.071196
0.0919087
0.0489045
0.114942
0.0235441
0.139263
0.151629
0.199006
0.00791038
0.197873
0.00936884
0.196599
0.0104682
0.195178
0.011527
0.193609
0.0126007
0.191889
0.0137065
0.190013
0.0148552
0.187972
0.0160582
0.185759
0.0173284
0.183363
0.0186783
0.180771
0.0201222
0.177963
0.0216821
0.174929
0.0233692
0.171654
0.0252028
0.168103
0.0272235
0.164242
0.0294659
0.160029
0.031971
0.155405
0.0347999
0.1503
0.0380313
0.144628
0.041785
0.138261
0.0462193
0.131013
0.0515276
0.122651
0.0580282
0.112833
0.0662193
0.101039
0.0767808
0.0866739
0.0907786
0.0688756
0.109707
0.0459708
0.137847
0.020893
0.164341
0.172522
0.199006
0.00890612
0.197876
0.0104989
0.196614
0.0117276
0.195212
0.0129245
0.193667
0.0141384
0.191975
0.0153898
0.190129
0.0166913
0.188123
0.0180554
0.185946
0.0194974
0.183587
0.0210308
0.181035
0.0226714
0.178273
0.0244455
0.175282
0.0263642
0.172045
0.0284482
0.168524
0.0307539
0.16468
0.0333211
0.160471
0.0361921
0.155833
0.0394489
0.150679
0.043196
0.144927
0.0475444
0.138447
0.0527054
0.131025
0.0589532
0.122417
0.066638
0.112265
0.0763723
0.100065
0.0889811
0.0850747
0.105769
0.0667635
0.128018
0.0435018
0.161109
0.0187349
0.189108
0.191258
0.199014
0.00989387
0.197894
0.0116192
0.19665
0.0129691
0.195273
0.0142963
0.193758
0.015646
0.1921
0.0170391
0.190292
0.0184895
0.188327
0.0200112
0.186193
0.0216223
0.18388
0.0233373
0.181377
0.0251704
0.178668
0.0271548
0.175727
0.0293098
0.172526
0.0316569
0.169036
0.0342537
0.16522
0.037149
0.161018
0.040406
0.156379
0.0441005
0.151218
0.0483673
0.145415
0.0533564
0.13883
0.0592971
0.131257
0.0665308
0.122428
0.0754698
0.111974
0.0868282
0.0993925
0.101563
0.0839269
0.121235
0.0651746
0.146771
0.0416565
0.184628
0.0174139
0.213352
0.208673
0.199028
0.0108683
0.197925
0.0127221
0.196706
0.0141859
0.19536
0.0156371
0.193881
0.0171178
0.192262
0.0186486
0.190498
0.020244
0.18858
0.0219184
0.186497
0.0236961
0.184235
0.0255917
0.181782
0.0276197
0.17912
0.0298158
0.17623
0.0322039
0.173075
0.0348189
0.169631
0.0377074
0.165868
0.0409239
0.161718
0.0445695
0.157104
0.0487266
0.151953
0.0535302
0.146136
0.0591833
0.139498
0.0659432
0.131834
0.0741996
0.122845
0.0844626
0.112176
0.0975007
0.0992705
0.114471
0.083517
0.136991
0.0644036
0.165886
0.0408422
0.208191
0.0173275
0.236868
0.226001
0.199045
0.0118252
0.197965
0.0138027
0.196774
0.015374
0.195464
0.016943
0.194024
0.0185497
0.19245
0.0202139
0.190733
0.0219503
0.188863
0.0237771
0.18683
0.0257187
0.184625
0.0277889
0.182227
0.0300131
0.179625
0.0324161
0.176804
0.0350278
0.17373
0.0378994
0.170366
0.0410805
0.166666
0.0446368
0.162577
0.0486708
0.158016
0.0533011
0.152907
0.0586522
0.147137
0.0649645
0.140533
0.0725559
0.132876
0.0818632
0.123875
0.0934679
0.113127
0.108253
0.100143
0.127459
0.0842858
0.15285
0.0648688
0.185307
0.0417471
0.231316
0.0190288
0.259589
0.245031
0.199065
0.0127625
0.19801
0.0148583
0.19685
0.0165308
0.195577
0.0182114
0.194181
0.0199384
0.192654
0.0217312
0.190988
0.0236053
0.18917
0.0255835
0.187196
0.027682
0.185059
0.0299166
0.18274
0.032326
0.180226
0.0349283
0.17749
0.0377651
0.174502
0.0408937
0.171224
0.0443676
0.167604
0.0482681
0.163608
0.0526804
0.159161
0.057761
0.154158
0.0636683
0.148485
0.0706502
0.141984
0.0790666
0.134458
0.0893971
0.125603
0.102329
0.11503
0.118831
0.102295
0.140198
0.086591
0.168559
0.0673099
0.204593
0.0453498
0.253282
0.0234055
0.281537
0.268439
0.199086
0.0136787
0.198059
0.0158864
0.196933
0.0176538
0.195701
0.019439
0.194352
0.0212799
0.192877
0.0231956
0.19127
0.0252016
0.189521
0.0273197
0.187625
0.0295666
0.18557
0.0319613
0.183342
0.0345474
0.180915
0.0373516
0.178266
0.0404146
0.175367
0.0437969
0.172194
0.047549
0.168714
0.0517594
0.164861
0.0565462
0.160563
0.062073
0.155725
0.0685201
0.150234
0.0761539
0.143946
0.0853658
0.136692
0.0966601
0.128194
0.110835
0.118147
0.128884
0.106031
0.152321
0.0910672
0.183529
0.0728988
0.222769
0.0531087
0.273079
0.03193
0.302721
0.300371
0.199113
0.0145681
0.198119
0.016881
0.197034
0.0187369
0.195848
0.0206201
0.194552
0.022568
0.193138
0.0246001
0.191597
0.0267303
0.189928
0.0289763
0.188116
0.0313661
0.186143
0.0339233
0.183998
0.0366835
0.181662
0.039683
0.17912
0.0429552
0.17636
0.0465609
0.17334
0.0505761
0.170017
0.0550921
0.16633
0.0602456
0.162223
0.066194
0.157628
0.0731286
0.152436
0.0813582
0.146529
0.0912847
0.139749
0.103451
0.131932
0.118661
0.122784
0.13804
0.11184
0.163274
0.0988936
0.196485
0.0839331
0.237739
0.0690091
0.288013
0.0503486
0.321388
0.350721
0.199139
0.0154318
0.198178
0.0178428
0.197133
0.0197807
0.195993
0.0217546
0.194752
0.0238019
0.193397
0.0259444
0.191923
0.0281923
0.190322
0.0305638
0.188582
0.0330929
0.186688
0.0358049
0.184636
0.0387261
0.182417
0.041895
0.180009
0.0453607
0.177387
0.0491851
0.174513
0.0534555
0.171348
0.0582663
0.167855
0.06375
0.16399
0.0700717
0.159691
0.0774411
0.154876
0.0861858
0.149464
0.0967088
0.143368
0.109558
0.136473
0.125567
0.128594
0.14593
0.119813
0.172064
0.110807
0.205504
0.102343
0.246216
0.097511
0.292857
0.0913695
0.327536
0.442093
0.000726752
-0.000725047
0.00248671
-0.00174429
0.00462999
-0.00208397
0.00672748
-0.00200086
0.00842167
-0.00161992
0.00975309
-0.00130279
0.0109174
-0.00115777
0.0120415
-0.0011181
0.0131616
-0.0011064
0.0142771
-0.00109715
0.0153724
-0.00107665
0.0164248
-0.00103428
0.0173945
-0.000953136
0.0182565
-0.000849498
0.0189723
-0.000709561
0.0194949
-0.000523905
0.0198339
-0.000348301
0.0200453
-0.000228846
0.0201489
-0.000128732
0.020109
7.9917e-06
0.0199185
0.000152854
0.0196548
0.000221658
0.0194566
0.000152629
0.0194748
-6.60486e-05
0.0198692
-0.000443788
0.0208154
-0.000996187
0.0224361
-0.00167073
0.0247824
-0.0023959
0.0278736
-0.00314002
-0.0036633
0.000593034
-0.00131622
0.0023523
-0.00348623
0.00487596
-0.00454541
0.00733682
-0.00436467
0.00929133
-0.00350244
0.0108066
-0.00279098
0.0120793
-0.00242416
0.0132366
-0.00226911
0.0143346
-0.00219067
0.0153817
-0.00212562
0.016363
-0.00203897
0.0172523
-0.00190544
0.0180436
-0.00172813
0.0187434
-0.00153722
0.0193228
-0.00128308
0.019733
-0.000935618
0.0199801
-0.000605093
0.0201277
-0.000394113
0.0202003
-0.000226499
0.020128
4.84294e-05
0.0198555
0.000387846
0.0194357
0.000599396
0.0189847
0.00055838
0.0185823
0.000288694
0.0181822
-9.27992e-05
0.0178498
-0.000713647
0.017819
-0.00168976
0.0183708
-0.00299715
0.0199124
-0.00473017
-0.00667722
0.000459558
-0.00177361
0.00203776
-0.00504467
0.00431541
-0.00675873
0.00636553
-0.00632265
0.00792746
-0.00499984
0.00909263
-0.00393203
0.0100038
-0.00332816
0.0107403
-0.00299751
0.0113483
-0.00278381
0.011837
-0.00259481
0.0121883
-0.00237091
0.0123831
-0.00208213
0.0124436
-0.00177251
0.0124071
-0.00148893
0.0122503
-0.00112073
0.011891
-0.000578016
0.0113144
-3.81698e-05
0.0106029
0.000299839
0.00974753
0.000603931
0.00857335
0.00119112
0.00695273
0.00197144
0.00493543
0.00257526
0.00270759
0.00274145
0.000568865
0.00238032
-0.00105457
0.00148207
-0.002007
0.000189491
-0.00203149
-0.00171468
-0.000610526
-0.00446713
0.00214836
-0.00753737
-0.0102308
0.000546141
-0.00231707
0.00199247
-0.00646867
0.00382819
-0.00853069
0.00523139
-0.00764377
0.0061966
-0.00591056
0.00682915
-0.00454282
0.00720432
-0.003694
0.00735267
-0.00313494
0.00729452
-0.00270887
0.00703976
-0.0023196
0.00658475
-0.00189605
0.00591825
-0.00139745
0.00505412
-0.000892437
0.00406352
-0.000486763
0.00293145
1.68377e-05
0.00135278
0.00099897
-0.00105799
0.00236321
-0.00427843
0.00350321
-0.00766719
0.0039684
-0.0105116
0.00400484
-0.0126458
0.00406938
-0.014276
0.00416499
-0.0155019
0.00392342
-0.0162116
0.00304375
-0.0162298
0.00145255
-0.0153155
-0.000773421
-0.0135269
-0.00355205
-0.0114118
-0.00663061
-0.00947568
-0.0095214
-0.0118217
0.000754439
-0.00306804
0.002019
-0.00770876
0.00324297
-0.00969474
0.00387742
-0.00820878
0.00412643
-0.00611467
0.00408489
-0.00448057
0.00376613
-0.00336272
0.00315078
-0.00250522
0.00223917
-0.00177816
0.00105372
-0.00111246
-0.000409027
-0.000412813
-0.00226152
0.000473498
-0.00466083
0.00152285
-0.00760793
0.00247188
-0.0107355
0.00314994
-0.0134938
0.00375587
-0.0157201
0.00458067
-0.0176781
0.00544481
-0.0196306
0.00589755
-0.0215264
0.00587093
-0.0231002
0.00560808
-0.0241386
0.00516392
-0.0245787
0.00432079
-0.0244479
0.00286771
-0.0238071
0.000764955
-0.0227421
-0.00188611
-0.0215206
-0.0048215
-0.0204919
-0.00770716
-0.019879
-0.0101816
-0.0119295
0.000998565
-0.00406216
0.0019137
-0.00859855
0.00234872
-0.0100773
0.00209716
-0.00790199
0.00149503
-0.00547615
0.000596463
-0.00356151
-0.00065522
-0.00209519
-0.00234723
-0.000795523
-0.0045729
0.000468754
-0.00730955
0.00164695
-0.0103233
0.00262211
-0.0132312
0.00340019
-0.0157772
0.00408492
-0.0180392
0.00474553
-0.020208
0.0053245
-0.022318
0.00586486
-0.0242286
0.00648309
-0.0258614
0.00706216
-0.0272995
0.00731333
-0.0285895
0.00713241
-0.0296205
0.00660531
-0.0302483
0.00575367
-0.0304344
0.00446538
-0.0302504
0.00263972
-0.0298192
0.000288047
-0.0292939
-0.00245804
-0.0288402
-0.00532228
-0.0286226
-0.00797181
-0.0287837
-0.0100672
-0.0113863
0.00116045
-0.0052172
0.00148248
-0.0088961
0.000909448
-0.00946153
-0.000411351
-0.00653986
-0.00210866
-0.00374986
-0.00422654
-0.00142337
-0.00691421
0.000610692
-0.00997222
0.00228243
-0.0129723
0.00349135
-0.0156907
0.00438868
-0.0181639
0.00511687
-0.0204755
0.00573097
-0.0226489
0.00627451
-0.0246689
0.00677738
-0.0265634
0.00722512
-0.0283466
0.00764768
-0.0299482
0.00807726
-0.0313073
0.00840681
-0.0324568
0.00844176
-0.0334344
0.00808287
-0.0342068
0.00734537
-0.0347189
0.00622917
-0.0349717
0.00467799
-0.0350275
0.00265286
-0.0349813
0.000197459
-0.0349485
-0.00253635
-0.0350336
-0.00528336
-0.0353354
-0.0077161
-0.0359577
-0.00949093
-0.0104884
0.00105921
-0.00627031
0.000472595
-0.00828762
-0.00143298
-0.00752295
-0.00403307
-0.00390962
-0.00709628
-0.000663469
-0.0104452
0.00194511
-0.0136254
0.00381041
-0.0164379
0.005116
-0.019006
0.00608248
-0.0214018
0.00680799
-0.0236369
0.00737363
-0.0257176
0.00783104
-0.0276448
0.0082181
-0.0294164
0.00856098
-0.0310542
0.00886952
-0.0325619
0.00915556
-0.0338973
0.00940618
-0.0350302
0.00952649
-0.0359853
0.00937709
-0.0368001
0.00887203
-0.0374801
0.00799453
-0.0380176
0.00673154
-0.0384286
0.00505038
-0.0387573
0.00294034
-0.0390679
0.000464915
-0.0394362
-0.00221239
-0.0399279
-0.00483668
-0.0406015
-0.00708777
-0.041524
-0.00861354
-0.00937903
0.000460632
-0.00672463
-0.00143974
-0.00636922
-0.00482219
-0.00411619
-0.00874873
3.91785e-05
-0.0125258
0.00313304
-0.0157672
0.00520549
-0.0186024
0.00666568
-0.0211841
0.00771939
-0.023554
0.00847546
-0.0257388
0.00901608
-0.0277485
0.00940496
-0.0295863
0.00968831
-0.0312546
0.00990282
-0.0327639
0.0100826
-0.0341336
0.0102461
-0.0353689
0.0103918
-0.0364557
0.0104874
-0.0373885
0.0104471
-0.0381931
0.0101634
-0.0389081
0.00956288
-0.0395584
0.00861558
-0.0401608
0.00730037
-0.0407392
0.00559174
-0.0413258
0.00348712
-0.0419581
0.00105556
-0.0426743
-0.00153935
-0.043503
-0.00405185
-0.0444666
-0.00616846
-0.045601
-0.00752351
-0.00813014
-0.000858718
-0.00585994
-0.00430125
-0.00291297
-0.00904898
0.000648844
-0.013288
0.00429513
-0.0167451
0.00660708
-0.0197489
0.00822756
-0.02243
0.00936693
-0.0248399
0.0101511
-0.0270095
0.010668
-0.02896
0.0109894
-0.0307085
0.0111749
-0.0322692
0.0112684
-0.0336541
0.0113041
-0.0348762
0.011317
-0.0359568
0.0113342
-0.0369141
0.0113506
-0.0377553
0.011324
-0.038493
0.0111739
-0.0391566
0.01081
-0.0397857
0.0101693
-0.0404163
0.00921852
-0.041081
0.00793312
-0.0418132
0.00628842
-0.0426403
0.004276
-0.0435751
0.00195008
-0.0446148
-0.000541543
-0.0457467
-0.00296268
-0.0469602
-0.00499825
-0.0482601
-0.00626718
-0.0067798
-0.00293899
-0.0029158
-0.00789365
0.00205136
-0.0128
0.00556759
-0.0166397
0.00814834
-0.0199243
0.00990677
-0.0228005
0.0111211
-0.0253244
0.0119106
-0.0275274
0.0123756
-0.029444
0.0126071
-0.0311115
0.0126793
-0.032563
0.0126475
-0.0338186
0.0125431
-0.0348925
0.0123944
-0.0358007
0.0122378
-0.0365704
0.0121115
-0.0372361
0.0120186
-0.0378242
0.0119084
-0.0383587
0.0116985
-0.0388703
0.0113059
-0.0393984
0.0106762
-0.0399865
0.00978047
-0.0406808
0.00859701
-0.0415275
0.00710119
-0.042562
0.00527385
-0.0437856
0.00313478
-0.0451527
0.000784978
-0.0465956
-0.00156142
-0.0480581
-0.003578
-0.0495089
-0.00485906
-0.00534671
-0.00545126
0.00253941
-0.0110339
0.00764052
-0.0154603
0.0100032
-0.019107
0.0118066
-0.0222634
0.013077
-0.0249875
0.0138615
-0.0272939
0.0142359
-0.0292205
0.0143231
-0.0308277
0.0142364
-0.0321737
0.0140473
-0.0332989
0.0137932
-0.0342241
0.0134872
-0.0349604
0.013147
-0.035528
0.0128179
-0.035966
0.0125575
-0.0363257
0.012381
-0.0366491
0.0122287
-0.0369641
0.0120047
-0.0372977
0.0116249
-0.0376856
0.0110443
-0.038177
0.0102472
-0.0388322
0.00922326
-0.0397157
0.00795232
-0.040883
0.0064058
-0.0423481
0.00456231
-0.044052
0.00244971
-0.0458575
0.000203617
-0.0476148
-0.00186193
-0.0492345
-0.00328114
-0.00386196
-0.00821065
0.0107527
-0.013204
0.0126384
-0.0172136
0.0140203
-0.0207095
0.015313
-0.0237379
0.0161184
-0.0262599
0.0163992
-0.0282821
0.0162764
-0.0298652
0.0159265
-0.0311001
0.0154929
-0.0320745
0.0150432
-0.0328426
0.0145815
-0.0334201
0.0140831
-0.0338038
0.0135467
-0.0340091
0.0130357
-0.0340919
0.0126483
-0.0341288
0.0124209
-0.0341746
0.012272
-0.0342479
0.0120701
-0.0343595
0.011723
-0.0345368
0.011203
-0.0348334
0.0105204
-0.0353247
0.00968709
-0.0360991
0.00869568
-0.0372434
0.00751614
-0.0388158
0.00609847
-0.040794
0.00438992
-0.0430272
0.00239755
-0.0452051
0.000275725
-0.0470359
-0.00149125
-0.00237917
-0.0100677
0.0208219
-0.0141935
0.0167678
-0.0179783
0.0178118
-0.0214102
0.0187547
-0.024316
0.0190367
-0.0265872
0.0186857
-0.0282297
0.0179366
-0.0293619
0.0170784
-0.0301333
0.0162853
-0.0306715
0.0156023
-0.0310458
0.0149753
-0.0312586
0.0143137
-0.0312764
0.0135799
-0.031092
0.0128633
-0.0307815
0.0123458
-0.0304726
0.0121152
-0.0302336
0.012031
-0.0300449
0.011874
-0.0298735
0.0115391
-0.0297291
0.0110411
-0.0296697
0.0104388
-0.0297903
0.00978151
-0.0302064
0.00908208
-0.031042
0.00831912
-0.0324166
0.00743806
-0.0343957
0.0063322
-0.0368999
0.00486355
-0.0396124
0.00294894
-0.0418471
0.00070348
-0.0010146
-0.0049595
0.0257825
-0.010123
0.0219347
-0.0170861
0.0247812
-0.0210193
0.0226973
-0.023957
0.0219866
-0.0259006
0.0206442
-0.0269774
0.0190306
-0.0274652
0.0175856
-0.0276222
0.0164629
-0.0276299
0.0156301
-0.0275649
0.0149288
-0.0273981
0.0141639
-0.0270311
0.0132276
-0.0263938
0.0122375
-0.0256035
0.011563
-0.024915
0.0114297
-0.0244119
0.0115261
-0.0239749
0.0114302
-0.0234746
0.0110269
-0.022872
0.0104219
-0.0222267
0.00977241
-0.0216634
0.00919315
-0.0213277
0.00871783
-0.0213753
0.00833534
-0.0219862
0.00801511
-0.023336
0.00764626
-0.0254916
0.00698196
-0.0282753
0.00569435
-0.031019
0.00340797
0.000154491
0.206813
0.0162815
0.205869
0.0187882
0.204843
0.0208056
0.203726
0.0228661
0.202509
0.0250115
0.20118
0.0272626
0.199736
0.0296235
0.198166
0.032119
0.196465
0.0347789
0.194631
0.0376255
0.192649
0.0406963
0.190503
0.0440319
0.188174
0.0476851
0.185637
0.0517223
0.182872
0.0562249
0.179854
0.0612914
0.17655
0.0670647
0.172931
0.0737019
0.168962
0.0814229
0.164583
0.0905769
0.159779
0.101526
0.154539
0.114811
0.148846
0.131274
0.142978
0.15181
0.137755
0.177301
0.134665
0.208609
0.136329
0.244569
0.149029
0.280173
0.177705
0.298869
0.28679
0.333011
0.211855
0.0171132
0.210936
0.0197089
0.20994
0.0218009
0.208857
0.0239448
0.207676
0.0261844
0.206394
0.0285336
0.205005
0.0309981
0.203504
0.0336051
0.201885
0.0363824
0.200136
0.0393587
0.198244
0.0425744
0.196194
0.046072
0.193985
0.049887
0.1916
0.0541042
0.189012
0.0588154
0.186209
0.0640996
0.183178
0.0701039
0.179911
0.0769794
0.176379
0.0849659
0.172597
0.0943705
0.168618
0.105517
0.164487
0.118957
0.160519
0.135255
0.157484
0.15486
0.156576
0.178224
0.160078
0.205125
0.172134
0.232533
0.199717
0.252607
0.243854
0.254743
0.248481
0.282169
0.217024
0.0179201
0.216139
0.0205966
0.215182
0.0227571
0.214144
0.02498
0.213018
0.0273027
0.211804
0.0297361
0.210492
0.0322964
0.209073
0.0350083
0.20754
0.0378975
0.205884
0.0409982
0.204105
0.0443373
0.202202
0.047963
0.200158
0.0519215
0.197959
0.0562976
0.195601
0.0611729
0.193081
0.0666219
0.190401
0.0727904
0.187565
0.0798231
0.184595
0.0879449
0.18159
0.0973858
0.178629
0.108488
0.175945
0.121655
0.174183
0.137034
0.174234
0.154826
0.177508
0.174969
0.186567
0.196087
0.204532
0.214589
0.232484
0.224673
0.263952
0.223288
0.213418
0.299022
0.222328
0.018693
0.221485
0.0214416
0.220579
0.0236633
0.219599
0.0259574
0.218544
0.0283523
0.217404
0.0308647
0.216169
0.033517
0.214837
0.0363239
0.213409
0.0393072
0.211883
0.0425053
0.210253
0.0459496
0.208516
0.0496851
0.206661
0.0537649
0.204689
0.0582608
0.202616
0.0632421
0.200439
0.0687992
0.198179
0.0750533
0.195869
0.0821382
0.193601
0.090219
0.191488
0.0995062
0.18969
0.110295
0.188698
0.122659
0.189192
0.136557
0.192048
0.15199
0.198749
0.16829
0.21126
0.183599
0.230773
0.195099
0.255745
0.199721
0.282881
0.196167
0.183663
0.312646
0.227768
0.0194222
0.226979
0.0222333
0.226132
0.0245112
0.225216
0.0268709
0.224233
0.0293301
0.223174
0.0319144
0.222035
0.034643
0.220822
0.0375195
0.219527
0.0405821
0.218147
0.0438654
0.216681
0.0473968
0.215131
0.051217
0.213504
0.0553778
0.211807
0.0599465
0.210056
0.0649855
0.208278
0.070574
0.206508
0.0768225
0.204821
0.0838273
0.203339
0.0917047
0.202185
0.100663
0.201679
0.110805
0.202388
0.12196
0.2049
0.13406
0.210074
0.146836
0.219143
0.159245
0.233114
0.169652
0.251848
0.176389
0.273524
0.178065
0.295853
0.173853
0.161943
0.317583
0.233345
0.0201024
0.232612
0.0229682
0.231829
0.0252956
0.23099
0.0277079
0.230095
0.0302203
0.229138
0.0328633
0.228122
0.0356478
0.227042
0.0385831
0.225885
0.0417195
0.224666
0.0450631
0.223396
0.0486456
0.222072
0.0525212
0.220704
0.0567289
0.219314
0.0613228
0.217927
0.0663615
0.216592
0.071902
0.215365
0.0780452
0.214359
0.0848314
0.213702
0.0923618
0.213574
0.100791
0.214389
0.109994
0.21662
0.119736
0.220797
0.129892
0.227679
0.139969
0.238005
0.14894
0.251928
0.155752
0.268791
0.159549
0.287182
0.159696
0.305403
0.155648
0.144897
0.322461
0.239061
0.0207274
0.238395
0.0236376
0.237689
0.0260016
0.236945
0.0284507
0.236152
0.0310086
0.235309
0.0336993
0.23442
0.0365262
0.233477
0.0395114
0.232487
0.042692
0.231464
0.0460655
0.230409
0.0496776
0.229331
0.053578
0.228254
0.0577866
0.227204
0.0623557
0.226226
0.0673256
0.225375
0.0727424
0.224735
0.0786777
0.224433
0.0851282
0.224611
0.0921811
0.225516
0.0998834
0.227527
0.107983
0.23103
0.116238
0.236487
0.124443
0.244413
0.132055
0.255015
0.138353
0.268041
0.142745
0.282875
0.144736
0.298578
0.144012
0.314002
0.140241
0.130721
0.32819
0.244926
0.0212855
0.244341
0.0242262
0.243728
0.0266152
0.24308
0.0290976
0.242392
0.0316924
0.241675
0.03441
0.240929
0.0372614
0.240151
0.0402767
0.23935
0.0434762
0.238532
0.0468637
0.23771
0.0504778
0.236905
0.0543605
0.236145
0.0585252
0.235465
0.0630168
0.23493
0.067844
0.234595
0.0730641
0.234553
0.0787085
0.234951
0.0847218
0.23595
0.0911755
0.23781
0.0980185
0.240839
0.104953
0.245354
0.111726
0.251676
0.118128
0.259999
0.123741
0.270252
0.128111
0.282157
0.130854
0.29521
0.131697
0.308775
0.130464
0.322093
0.126939
0.118622
0.334203
0.25094
0.0217675
0.25044
0.0247297
0.249923
0.0271346
0.249385
0.0296344
0.248828
0.032246
0.248256
0.0349757
0.247666
0.0378422
0.247063
0.0408669
0.246459
0.0440634
0.245868
0.0474367
0.245303
0.0510222
0.244795
0.0548468
0.244374
0.0589233
0.244091
0.0632799
0.24401
0.0679063
0.244192
0.072866
0.244753
0.0781342
0.245831
0.083633
0.247597
0.0894008
0.250297
0.095311
0.254169
0.101077
0.259399
0.106497
0.266134
0.111398
0.274394
0.115488
0.284055
0.11846
0.294865
0.120056
0.306433
0.120141
0.318293
0.118616
0.329899
0.115345
0.108086
0.340445
0.257108
0.0221641
0.256702
0.0251394
0.256293
0.0275458
0.255885
0.0300421
0.255469
0.032659
0.255047
0.0353926
0.254622
0.038258
0.254207
0.0412701
0.253821
0.0444342
0.253476
0.0477638
0.253186
0.0512929
0.252995
0.0550161
0.252933
0.0589628
0.253052
0.0631396
0.253424
0.0675157
0.254128
0.0721442
0.255274
0.0769724
0.256981
0.0819133
0.259442
0.0869286
0.262858
0.0918865
0.267343
0.0965865
0.272966
0.100872
0.279782
0.104585
0.287765
0.10751
0.296784
0.109449
0.306591
0.110257
0.316905
0.109837
0.3274
0.108131
0.337641
0.105114
0.0987644
0.34697
0.263436
0.0224618
0.263139
0.025441
0.262849
0.0278386
0.262573
0.0303185
0.262303
0.0329263
0.262042
0.0356493
0.261803
0.038489
0.2616
0.0414627
0.261443
0.0445763
0.261352
0.0478379
0.261356
0.0512698
0.26149
0.0548616
0.261791
0.0586402
0.262314
0.0625954
0.263128
0.0666819
0.264339
0.0709148
0.266043
0.0752529
0.26835
0.0795919
0.271417
0.0838494
0.275349
0.0879442
0.280188
0.0917402
0.285966
0.0950913
0.292698
0.0978525
0.300328
0.0998822
0.308708
0.101073
0.317638
0.101333
0.326915
0.100568
0.336284
0.0987706
0.345412
0.0959945
0.0904122
0.35377
0.269913
0.0226615
0.269741
0.0256186
0.269584
0.0279984
0.269445
0.0304591
0.269336
0.0330351
0.269257
0.0357243
0.269215
0.0385243
0.269229
0.0414388
0.269315
0.0444784
0.269494
0.0476428
0.269796
0.0509501
0.270251
0.054388
0.270919
0.057952
0.27185
0.0616437
0.273108
0.0654039
0.274805
0.0691989
0.277034
0.073008
0.279868
0.0767434
0.283378
0.0803268
0.287623
0.0836881
0.292641
0.0867131
0.298444
0.0892837
0.305009
0.0912857
0.312245
0.0926461
0.32002
0.0933015
0.328209
0.0931481
0.336641
0.0921408
0.345077
0.0903407
0.353282
0.0877962
0.0828573
0.360841
0.276554
0.0227554
0.276514
0.025664
0.276504
0.0280126
0.276521
0.0304441
0.276577
0.0329797
0.276684
0.0356142
0.276851
0.0383529
0.277091
0.0411907
0.277428
0.0441302
0.277887
0.0471703
0.27849
0.050331
0.279274
0.0535872
0.280302
0.0569047
0.281645
0.0602825
0.28336
0.0636705
0.285513
0.0670277
0.288175
0.0703305
0.291388
0.0735156
0.295194
0.0765082
0.299638
0.0792336
0.304737
0.0816054
0.310478
0.0835361
0.316816
0.0849446
0.323661
0.0857999
0.330915
0.0860482
0.338476
0.0855896
0.346178
0.0844429
0.353833
0.0826902
0.36128
0.0803545
0.0759632
0.368176
0.283371
0.0227242
0.283465
0.0255765
0.283603
0.0278793
0.283789
0.0302613
0.284024
0.0327466
0.284325
0.0353126
0.284708
0.0379658
0.285191
0.0407022
0.285787
0.0435247
0.286516
0.0464301
0.287422
0.0494119
0.288556
0.052438
0.289965
0.0554793
0.291709
0.0585223
0.293828
0.0615342
0.296358
0.0644822
0.299346
0.0673279
0.302833
0.0700153
0.306849
0.0724805
0.311413
0.0746597
0.316524
0.0764863
0.322154
0.0778988
0.328239
0.0788547
0.334717
0.0793204
0.341523
0.0792425
0.348532
0.0785813
0.355603
0.0773745
0.362609
0.0756879
0.369427
0.0735406
0.0696215
0.37577
0.290353
0.0225652
0.290593
0.025344
0.290889
0.0275886
0.291246
0.0299093
0.291673
0.0323225
0.292186
0.0348001
0.292796
0.0373541
0.293515
0.0399794
0.294367
0.0426656
0.295388
0.045401
0.296623
0.048166
0.298113
0.0509354
0.299889
0.0536903
0.301982
0.0564152
0.304425
0.0590779
0.307252
0.0616419
0.3105
0.0640674
0.314196
0.0663076
0.318356
0.0683107
0.322982
0.0700252
0.328059
0.0714015
0.333545
0.0724062
0.339384
0.0730112
0.345534
0.0731687
0.35193
0.0728461
0.358455
0.0720568
0.364995
0.0708374
0.371456
0.0692301
0.377746
0.0672542
0.0637467
0.383622
0.29751
0.0222698
0.297898
0.024963
0.298359
0.0271347
0.298899
0.0293752
0.299532
0.0316937
0.300261
0.0340742
0.301096
0.0365192
0.302066
0.0390081
0.303202
0.0415252
0.304538
0.0440587
0.306102
0.0465947
0.307913
0.0491157
0.309995
0.0515982
0.312379
0.0540198
0.315096
0.0563504
0.318172
0.058556
0.321629
0.0606005
0.325484
0.0624445
0.32974
0.0640479
0.334386
0.0653721
0.339392
0.0663893
0.344717
0.0670763
0.350334
0.0673912
0.356198
0.0673031
0.362225
0.0668195
0.368322
0.0659611
0.374408
0.0647535
0.380409
0.0632322
0.386254
0.0614137
0.0582688
0.391733
0.304839
0.0218355
0.305388
0.0244223
0.306025
0.0265064
0.306759
0.0286478
0.307598
0.0308605
0.308549
0.033128
0.309635
0.0354351
0.310884
0.0377598
0.312315
0.0400933
0.313944
0.0424269
0.315792
0.0447427
0.317881
0.0470205
0.320235
0.0492372
0.322879
0.051369
0.325834
0.0533887
0.329117
0.0552661
0.332741
0.0569696
0.336714
0.0584669
0.341031
0.0597261
0.345665
0.0607344
0.350579
0.0614714
0.35576
0.0618923
0.361179
0.0619705
0.366772
0.0617105
0.372466
0.0611265
0.378196
0.0602339
0.383896
0.0590564
0.389508
0.0576246
0.394974
0.0559523
0.05313
0.400115
0.312341
0.0212631
0.313066
0.0237068
0.313895
0.0256867
0.314834
0.0277177
0.315892
0.0298096
0.317087
0.03194
0.318438
0.034089
0.319954
0.0362467
0.321649
0.0383998
0.323542
0.0405341
0.325653
0.0426312
0.328
0.044671
0.330603
0.0466319
0.333477
0.0484914
0.336637
0.0502249
0.340094
0.0518064
0.343851
0.0532095
0.347908
0.0544082
0.352255
0.0553781
0.356863
0.0561263
0.361699
0.0566342
0.366749
0.0568414
0.371975
0.0567455
0.377317
0.0563699
0.382723
0.0557239
0.388138
0.0548232
0.393509
0.0536896
0.39879
0.0523493
0.403935
0.0508138
0.0482815
0.408787
0.320044
0.0205304
0.320949
0.0228122
0.32198
0.0246662
0.323134
0.0265738
0.324426
0.0285278
0.325865
0.0305094
0.327461
0.0325003
0.329226
0.0344876
0.331173
0.0364568
0.333319
0.0383917
0.335679
0.0402739
0.338267
0.0420847
0.341095
0.043804
0.344176
0.0454113
0.347517
0.0468851
0.35112
0.0482038
0.354985
0.049346
0.359103
0.050292
0.363459
0.0510247
0.368035
0.0515531
0.372803
0.0518683
0.377728
0.0519181
0.382776
0.0517015
0.387901
0.051249
0.39306
0.050571
0.398206
0.0496827
0.403299
0.0486036
0.4083
0.0473562
0.413171
0.0459502
0.0436809
0.417778
0.327956
0.0196104
0.329051
0.0217295
0.330284
0.0234452
0.331655
0.0252142
0.333172
0.0270216
0.334845
0.0288475
0.33668
0.0306744
0.338689
0.0324876
0.340882
0.0342714
0.343271
0.0360092
0.345868
0.0376835
0.348681
0.0392767
0.351719
0.0407709
0.354987
0.0421477
0.358488
0.0433889
0.362219
0.044477
0.366175
0.0453954
0.370343
0.0461296
0.374706
0.0466683
0.379246
0.0470191
0.383941
0.0471789
0.388755
0.0471102