<?xml version="1.0"?>
<VTKFile type="UnstructuredGrid" version="0.1" byte_order="LittleEndian">
	<UnstructuredGrid>
		<Piece NumberOfPoints="126" NumberOfCells="40">
			<Points>
				<DataArray type="Float64" NumberOfComponents="3" format="ascii">
					 5.00000000E-02	 0.00000000E+00	 0.00000000E+00
					 0.00000000E+00	 0.00000000E+00	 0.00000000E+00
					 0.00000000E+00	 0.00000000E+00	 5.00000000E-02
					 5.00000000E-02	 0.00000000E+00	 5.00000000E-02
					 5.00000000E-02	 3.00000000E-01	 0.00000000E+00
					 0.00000000E+00	 3.00000000E-01	 0.00000000E+00
					 0.00000000E+00	 3.00000000E-01	 5.00000000E-02
					 5.00000000E-02	 3.00000000E-01	 5.00000000E-02
					 0.00000000E+00	 0.00000000E+00	 1.00000000E-01
					 5.00000000E-02	 0.00000000E+00	 1.00000000E-01
					 0.00000000E+00	 3.00000000E-01	 1.00000000E-01
					 5.00000000E-02	 3.00000000E-01	 1.00000000E-01
					 0.00000000E+00	 0.00000000E+00	 1.50000000E-01
					 5.00000000E-02	 0.00000000E+00	 1.50000000E-01
					 0.00000000E+00	 3.00000000E-01	 1.50000000E-01
					 5.00000000E-02	 3.00000000E-01	 1.50000000E-01
					 0.00000000E+00	 0.00000000E+00	 2.00000000E-01
					 5.00000000E-02	 0.00000000E+00	 2.00000000E-01
					 0.00000000E+00	 3.00000000E-01	 2.00000000E-01
					 5.00000000E-02	 3.00000000E-01	 2.00000000E-01
					 0.00000000E+00	 0.00000000E+00	 2.50000000E-01
					 5.00000000E-02	 0.00000000E+00	 2.50000000E-01
					 0.00000000E+00	 3.00000000E-01	 2.50000000E-01
					 5.00000000E-02	 3.00000000E-01	 2.50000000E-01
					 0.00000000E+00	 0.00000000E+00	 3.00000000E-01
					 5.00000000E-02	 0.00000000E+00	 3.00000000E-01
					 0.00000000E+00	 3.00000000E-01	 3.00000000E-01
					 5.00000000E-02	 3.00000000E-01	 3.00000000E-01
					 0.00000000E+00	 0.00000000E+00	 3.50000000E-01
					 5.00000000E-02	 0.00000000E+00	 3.50000000E-01
					 0.00000000E+00	 3.00000000E-01	 3.50000000E-01
					 5.00000000E-02	 3.00000000E-01	 3.50000000E-01
					 0.00000000E+00	 0.00000000E+00	 4.00000000E-01
					 5.00000000E-02	 0.00000000E+00	 4.00000000E-01
					 0.00000000E+00	 3.00000000E-01	 4.00000000E-01
					 5.00000000E-02	 3.00000000E-01	 4.00000000E-01
					 0.00000000E+00	 0.00000000E+00	 4.50000000E-01
					 5.00000000E-02	 0.00000000E+00	 4.50000000E-01
					 0.00000000E+00	 3.00000000E-01	 4.50000000E-01
					 5.00000000E-02	 3.00000000E-01	 4.50000000E-01
					 0.00000000E+00	 0.00000000E+00	 5.00000000E-01
					 5.00000000E-02	 0.00000000E+00	 5.00000000E-01
					 0.00000000E+00	 3.00000000E-01	 5.00000000E-01
					 5.00000000E-02	 3.00000000E-01	 5.00000000E-01
					 0.00000000E+00	 0.00000000E+00	 5.50000000E-01
					 5.00000000E-02	 0.00000000E+00	 5.50000000E-01
					 0.00000000E+00	 3.00000000E-01	 5.50000000E-01
					 5.00000000E-02	 3.00000000E-01	 5.50000000E-01
					 0.00000000E+00	 0.00000000E+00	 6.00000000E-01
					 5.00000000E-02	 0.00000000E+00	 6.00000000E-01
					 0.00000000E+00	 3.00000000E-01	 6.00000000E-01
					 5.00000000E-02	 3.00000000E-01	 6.00000000E-01
					 0.00000000E+00	 0.00000000E+00	 6.50000000E-01
					 5.00000000E-02	 0.00000000E+00	 6.50000000E-01
					 0.00000000E+00	 3.00000000E-01	 6.50000000E-01
					 5.00000000E-02	 3.00000000E-01	 6.50000000E-01
					 0.00000000E+00	 0.00000000E+00	 7.00000000E-01
					 5.00000000E-02	 0.00000000E+00	 7.00000000E-01
					 0.00000000E+00	 3.00000000E-01	 7.00000000E-01
					 5.00000000E-02	 3.00000000E-01	 7.00000000E-01
					 0.00000000E+00	 0.00000000E+00	 7.50000000E-01
					 5.00000000E-02	 0.00000000E+00	 7.50000000E-01
					 0.00000000E+00	 3.00000000E-01	 7.50000000E-01
					 5.00000000E-02	 3.00000000E-01	 7.50000000E-01
					 0.00000000E+00	 0.00000000E+00	 8.00000000E-01
					 5.00000000E-02	 0.00000000E+00	 8.00000000E-01
					 0.00000000E+00	 3.00000000E-01	 8.00000000E-01
					 5.00000000E-02	 3.00000000E-01	 8.00000000E-01
					 0.00000000E+00	 0.00000000E+00	 8.50000000E-01
					 5.00000000E-02	 0.00000000E+00	 8.50000000E-01
					 0.00000000E+00	 3.00000000E-01	 8.50000000E-01
					 5.00000000E-02	 3.00000000E-01	 8.50000000E-01
					 0.00000000E+00	 0.00000000E+00	 9.00000000E-01
					 5.00000000E-02	 0.00000000E+00	 9.00000000E-01
					 0.00000000E+00	 3.00000000E-01	 9.00000000E-01
					 5.00000000E-02	 3.00000000E-01	 9.00000000E-01
					 0.00000000E+00	 0.00000000E+00	 9.50000000E-01
					 5.00000000E-02	 0.00000000E+00	 9.50000000E-01
					 0.00000000E+00	 3.00000000E-01	 9.50000000E-01
					 5.00000000E-02	 3.00000000E-01	 9.50000000E-01
					 0.00000000E+00	 0.00000000E+00	 1.00000000E+00
					 5.00000000E-02	 0.00000000E+00	 1.00000000E+00
					 0.00000000E+00	 3.00000000E-01	 1.00000000E+00
					 5.00000000E-02	 3.00000000E-01	 1.00000000E+00
					-5.00000000E-02	 0.00000000E+00	 0.00000000E+00
					-5.00000000E-02	 0.00000000E+00	 5.00000000E-02
					-5.00000000E-02	 3.00000000E-01	 0.00000000E+00
					-5.00000000E-02	 3.00000000E-01	 5.00000000E-02
					-5.00000000E-02	 0.00000000E+00	 1.00000000E-01
					-5.00000000E-02	 3.00000000E-01	 1.00000000E-01
					-5.00000000E-02	 0.00000000E+00	 1.50000000E-01
					-5.00000000E-02	 3.00000000E-01	 1.50000000E-01
					-5.00000000E-02	 0.00000000E+00	 2.00000000E-01
					-5.00000000E-02	 3.00000000E-01	 2.00000000E-01
					-5.00000000E-02	 0.00000000E+00	 2.50000000E-01
					-5.00000000E-02	 3.00000000E-01	 2.50000000E-01
					-5.00000000E-02	 0.00000000E+00	 3.00000000E-01
					-5.00000000E-02	 3.00000000E-01	 3.00000000E-01
					-5.00000000E-02	 0.00000000E+00	 3.50000000E-01
					-5.00000000E-02	 3.00000000E-01	 3.50000000E-01
					-5.00000000E-02	 0.00000000E+00	 4.00000000E-01
					-5.00000000E-02	 3.00000000E-01	 4.00000000E-01
					-5.00000000E-02	 0.00000000E+00	 4.50000000E-01
					-5.00000000E-02	 3.00000000E-01	 4.50000000E-01
					-5.00000000E-02	 0.00000000E+00	 5.00000000E-01
					-5.00000000E-02	 3.00000000E-01	 5.00000000E-01
					-5.00000000E-02	 0.00000000E+00	 5.50000000E-01
					-5.00000000E-02	 3.00000000E-01	 5.50000000E-01
					-5.00000000E-02	 0.00000000E+00	 6.00000000E-01
					-5.00000000E-02	 3.00000000E-01	 6.00000000E-01
					-5.00000000E-02	 0.00000000E+00	 6.50000000E-01
					-5.00000000E-02	 3.00000000E-01	 6.50000000E-01
					-5.00000000E-02	 0.00000000E+00	 7.00000000E-01
					-5.00000000E-02	 3.00000000E-01	 7.00000000E-01
					-5.00000000E-02	 0.00000000E+00	 7.50000000E-01
					-5.00000000E-02	 3.00000000E-01	 7.50000000E-01
					-5.00000000E-02	 0.00000000E+00	 8.00000000E-01
					-5.00000000E-02	 3.00000000E-01	 8.00000000E-01
					-5.00000000E-02	 0.00000000E+00	 8.50000000E-01
					-5.00000000E-02	 3.00000000E-01	 8.50000000E-01
					-5.00000000E-02	 0.00000000E+00	 9.00000000E-01
					-5.00000000E-02	 3.00000000E-01	 9.00000000E-01
					-5.00000000E-02	 0.00000000E+00	 9.50000000E-01
					-5.00000000E-02	 3.00000000E-01	 9.50000000E-01
					-5.00000000E-02	 0.00000000E+00	 1.00000000E+00
					-5.00000000E-02	 3.00000000E-01	 1.00000000E+00

				</DataArray>
			</Points>
			<Cells>
				<DataArray type="Int32" Name="connectivity" format="ascii">
					0 1 2 3 4 5 6 7 3 2 8 9 7 6 10 11 9 8 12 13 11 10 14 15 13 12 16 17 15 14 18 19 17 16 20 21 19 18 22 23 21 20 24 25 23 22 26 27 25 24 28 29 27 26 30 31 29 28 32 33 31 30 34 35 33 32 36 37 35 34 38 39 37 36 40 41 39 38 42 43 41 40 44 45 43 42 46 47 45 44 48 49 47 46 50 51 49 48 52 53 51 50 54 55 53 52 56 57 55 54 58 59 57 56 60 61 59 58 62 63 61 60 64 65 63 62 66 67 65 64 68 69 67 66 70 71 69 68 72 73 71 70 74 75 73 72 76 77 75 74 78 79 77 76 80 81 79 78 82 83 1 84 85 2 5 86 87 6 2 85 88 8 6 87 89 10 8 88 90 12 10 89 91 14 12 90 92 16 14 91 93 18 16 92 94 20 18 93 95 22 20 94 96 24 22 95 97 26 24 96 98 28 26 97 99 30 28 98 100 32 30 99 101 34 32 100 102 36 34 101 103 38 36 102 104 40 38 103 105 42 40 104 106 44 42 105 107 46 44 106 108 48 46 107 109 50 48 108 110 52 50 109 111 54 52 110 112 56 54 111 113 58 56 112 114 60 58 113 115 62 60 114 116 64 62 115 117 66 64 116 118 68 66 117 119 70 68 118 120 72 70 119 121 74 72 120 122 76 74 121 123 78 76 122 124 80 78 123 125 82 
				</DataArray>
				<DataArray type="Int32" Name="offsets" format="ascii">
					8 16 24 32 40 48 56 64 72 80 88 96 104 112 120 128 136 144 152 160 168 176 184 192 200 208 216 224 232 240 248 256 264 272 280 288 296 304 312 320 
				</DataArray>
				<DataArray type="UInt8" Name="types" format="ascii">
					12 12 12 12 12 12 12 12 12 12 12 12 12 12 12 12 12 12 12 12 12 12 12 12 12 12 12 12 12 12 12 12 12 12 12 12 12 12 12 12 
				</DataArray>
			</Cells>
			<PointData>
				<DataArray type="Float32" Name="U" NumberOfComponents="3" ComponentName0="D1" ComponentName1="D2" ComponentName2="D3" format="ascii">
					 0.00000000E+00	 0.00000000E+00	 0.00000000E+00
					 0.00000000E+00	 0.00000000E+00	 0.00000000E+00
					 2.65268000E-03	 0.00000000E+00	-1.56892000E-04
					 2.96937000E-03	 0.00000000E+00	-4.15724000E-03
					 0.00000000E+00	 0.00000000E+00	 0.00000000E+00
					 0.00000000E+00	 0.00000000E+00	 0.00000000E+00
					 2.65268000E-03	 0.00000000E+00	-1.56892000E-04
					 2.96937000E-03	 0.00000000E+00	-4.15724000E-03
					 9.14782000E-03	 0.00000000E+00	-5.35971000E-04
					 8.88112000E-03	 0.00000000E+00	-7.60153000E-03
					 9.14782000E-03	 0.00000000E+00	-5.35971000E-04
					 8.88112000E-03	 0.00000000E+00	-7.60153000E-03
					 1.80425000E-02	 0.00000000E+00	-1.24644000E-03
					 1.73734000E-02	 0.00000000E+00	-1.03900000E-02
					 1.80425000E-02	 0.00000000E+00	-1.24644000E-03
					 1.73734000E-02	 0.00000000E+00	-1.03900000E-02
					 2.85276000E-02	 0.00000000E+00	-2.24185000E-03
					 2.75178000E-02	 0.00000000E+00	-1.26450000E-02
					 2.85276000E-02	 0.00000000E+00	-2.24185000E-03
					 2.75178000E-02	 0.00000000E+00	-1.26450000E-02
					 3.98484000E-02	 0.00000000E+00	-3.41019000E-03
					 3.86270000E-02	 0.00000000E+00	-1.44140000E-02
					 3.98484000E-02	 0.00000000E+00	-3.41019000E-03
					 3.86270000E-02	 0.00000000E+00	-1.44140000E-02
					 5.14233000E-02	 0.00000000E+00	-4.63695000E-03
					 5.01227000E-02	 0.00000000E+00	-1.56974000E-02
					 5.14233000E-02	 0.00000000E+00	-4.63695000E-03
					 5.01227000E-02	 0.00000000E+00	-1.56974000E-02
					 6.27627000E-02	 0.00000000E+00	-5.81454000E-03
					 6.14991000E-02	 0.00000000E+00	-1.64541000E-02
					 6.27627000E-02	 0.00000000E+00	-5.81454000E-03
					 6.14991000E-02	 0.00000000E+00	-1.64541000E-02
					 7.34354000E-02	 0.00000000E+00	-6.83552000E-03
					 7.22899000E-02	 0.00000000E+00	-1.66299000E-02
					 7.34354000E-02	 0.00000000E+00	-6.83552000E-03
					 7.22899000E-02	 0.00000000E+00	-1.66299000E-02
					 8.30344000E-02	 0.00000000E+00	-7.61244000E-03
					 8.20581000E-02	 0.00000000E+00	-1.62022000E-02
					 8.30344000E-02	 0.00000000E+00	-7.61244000E-03
					 8.20581000E-02	 0.00000000E+00	-1.62022000E-02
					 9.11939000E-02	 0.00000000E+00	-8.11481000E-03
					 9.04182000E-02	 0.00000000E+00	-1.52167000E-02
					 9.11939000E-02	 0.00000000E+00	-8.11481000E-03
					 9.04182000E-02	 0.00000000E+00	-1.52167000E-02
					 9.76408000E-02	 0.00000000E+00	-8.36971000E-03
					 9.70605000E-02	 0.00000000E+00	-1.37958000E-02
					 9.76408000E-02	 0.00000000E+00	-8.36971000E-03
					 9.70605000E-02	 0.00000000E+00	-1.37958000E-02
					 1.02249000E-01	 0.00000000E+00	-8.43702000E-03
					 1.01835000E-01	 0.00000000E+00	-1.21080000E-02
					 1.02249000E-01	 0.00000000E+00	-8.43702000E-03
					 1.01835000E-01	 0.00000000E+00	-1.21080000E-02
					 1.04997000E-01	 0.00000000E+00	-8.38890000E-03
					 1.04699000E-01	 0.00000000E+00	-1.03194000E-02
					 1.04997000E-01	 0.00000000E+00	-8.38890000E-03
					 1.04699000E-01	 0.00000000E+00	-1.03194000E-02
					 1.05954000E-01	 0.00000000E+00	-8.29070000E-03
					 1.05723000E-01	 0.00000000E+00	-8.59066000E-03
					 1.05954000E-01	 0.00000000E+00	-8.29070000E-03
					 1.05723000E-01	 0.00000000E+00	-8.59066000E-03
					 1.05292000E-01	 0.00000000E+00	-8.18807000E-03
					 1.05078000E-01	 0.00000000E+00	-7.06963000E-03
					 1.05292000E-01	 0.00000000E+00	-8.18807000E-03
					 1.05078000E-01	 0.00000000E+00	-7.06963000E-03
					 1.03294000E-01	 0.00000000E+00	-8.11411000E-03
					 1.03081000E-01	 0.00000000E+00	-5.86919000E-03
					 1.03294000E-01	 0.00000000E+00	-8.11411000E-03
					 1.03081000E-01	 0.00000000E+00	-5.86919000E-03
					 1.00311000E-01	 0.00000000E+00	-8.09432000E-03
					 1.00104000E-01	 0.00000000E+00	-5.04993000E-03
					 1.00311000E-01	 0.00000000E+00	-8.09432000E-03
					 1.00104000E-01	 0.00000000E+00	-5.04993000E-03
					 9.67122000E-02	 0.00000000E+00	-8.13966000E-03
					 9.65242000E-02	 0.00000000E+00	-4.61292000E-03
					 9.67122000E-02	 0.00000000E+00	-8.13966000E-03
					 9.65242000E-02	 0.00000000E+00	-4.61292000E-03
					 9.28421000E-02	 0.00000000E+00	-8.23123000E-03
					 9.26794000E-02	 0.00000000E+00	-4.49630000E-03
					 9.28421000E-02	 0.00000000E+00	-8.23123000E-03
					 9.26794000E-02	 0.00000000E+00	-4.49630000E-03
					 8.89820000E-02	 0.00000000E+00	-8.33411000E-03
					 8.88438000E-02	 0.00000000E+00	-4.57655000E-03
					 8.89820000E-02	 0.00000000E+00	-8.33411000E-03
					 8.88438000E-02	 0.00000000E+00	-4.57655000E-03
					 0.00000000E+00	 0.00000000E+00	 0.00000000E+00
					 3.47345000E-03	 0.00000000E+00	 3.75127000E-03
					 0.00000000E+00	 0.00000000E+00	 0.00000000E+00
					 3.47345000E-03	 0.00000000E+00	 3.75127000E-03
					 1.00408000E-02	 0.00000000E+00	 6.37705000E-03
					 1.00408000E-02	 0.00000000E+00	 6.37705000E-03
					 1.91581000E-02	 0.00000000E+00	 7.76877000E-03
					 1.91581000E-02	 0.00000000E+00	 7.76877000E-03
					 2.97985000E-02	 0.00000000E+00	 8.09155000E-03
					 2.97985000E-02	 0.00000000E+00	 8.09155000E-03
					 4.11817000E-02	 0.00000000E+00	 7.56771000E-03
					 4.11817000E-02	 0.00000000E+00	 7.56771000E-03
					 5.27145000E-02	 0.00000000E+00	 6.42401000E-03
					 5.27145000E-02	 0.00000000E+00	 6.42401000E-03
					 6.38987000E-02	 0.00000000E+00	 4.85878000E-03
					 6.38987000E-02	 0.00000000E+00	 4.85878000E-03
					 7.43585000E-02	 0.00000000E+00	 3.02399000E-03
					 7.43585000E-02	 0.00000000E+00	 3.02399000E-03
					 8.37011000E-02	 0.00000000E+00	 1.05188000E-03
					 8.37011000E-02	 0.00000000E+00	 1.05188000E-03
					 9.16040000E-02	 0.00000000E+00	-9.50655000E-04
					 9.16040000E-02	 0.00000000E+00	-9.50655000E-04
					 9.78120000E-02	 0.00000000E+00	-2.89975000E-03
					 9.78120000E-02	 0.00000000E+00	-2.89975000E-03
					 1.02248000E-01	 0.00000000E+00	-4.74683000E-03
					 1.02248000E-01	 0.00000000E+00	-4.74683000E-03
					 1.04894000E-01	 0.00000000E+00	-6.45665000E-03
					 1.04894000E-01	 0.00000000E+00	-6.45665000E-03
					 1.05836000E-01	 0.00000000E+00	-7.99439000E-03
					 1.05836000E-01	 0.00000000E+00	-7.99439000E-03
					 1.05211000E-01	 0.00000000E+00	-9.31278000E-03
					 1.05211000E-01	 0.00000000E+00	-9.31278000E-03
					 1.03294000E-01	 0.00000000E+00	-1.03731000E-02
					 1.03294000E-01	 0.00000000E+00	-1.03731000E-02
					 1.00386000E-01	 0.00000000E+00	-1.11611000E-02
					 1.00386000E-01	 0.00000000E+00	-1.11611000E-02
					 9.68480000E-02	 0.00000000E+00	-1.16898000E-02
					 9.68480000E-02	 0.00000000E+00	-1.16898000E-02
					 9.30027000E-02	 0.00000000E+00	-1.19930000E-02
					 9.30027000E-02	 0.00000000E+00	-1.19930000E-02
					 8.91318000E-02	 0.00000000E+00	-1.21557000E-02
					 8.91318000E-02	 0.00000000E+00	-1.21557000E-02
				</DataArray>
				<DataArray type="Float32" Name="S" NumberOfComponents="10" ComponentName0="xx" ComponentName1="yy" ComponentName2="zz" ComponentName3="xy" ComponentName4="yz" ComponentName5="zx" ComponentName6="Mises" ComponentName7="Min Principal" ComponentName8="Mid Principal" ComponentName9="Max Principal" format="ascii">
					-2.54671000E+03	-2.83094000E+03	-9.83814000E+03	 0.00000000E+00	 0.00000000E+00	 2.37007000E+03	 8.24772638E+03	-1.05408120E+04	-2.83094000E+03	-1.84403798E+03
					 1.63328000E+02	-5.74862000E+01	-5.60243000E+02	 0.00000000E+00	 0.00000000E+00	 2.61762000E+03	 4.57912028E+03	-2.84096071E+03	-5.74862000E+01	 2.44404571E+03
					-2.74360000E+01	-7.96959000E+01	-4.82655000E+02	 3.64363000E-08	 0.00000000E+00	 5.91929000E+02	 1.11234237E+03	-8.89226882E+02	-7.96959000E+01	 3.79135882E+02
					-9.93367000E+02	-2.10774000E+03	-8.43131000E+03	 5.13500000E-08	 5.43230000E-09	 9.72402000E+01	 6.95014729E+03	-8.43258106E+03	-2.10774000E+03	-9.92095944E+02
					-2.54671000E+03	-2.83094000E+03	-9.83814000E+03	 0.00000000E+00	 0.00000000E+00	 2.37007000E+03	 8.24772638E+03	-1.05408120E+04	-2.83094000E+03	-1.84403798E+03
					 1.63328000E+02	-5.74862000E+01	-5.60243000E+02	 0.00000000E+00	 0.00000000E+00	 2.61762000E+03	 4.57912028E+03	-2.84096071E+03	-5.74862000E+01	 2.44404571E+03
					-2.74360000E+01	-7.96959000E+01	-4.82655000E+02	 3.64363000E-08	 0.00000000E+00	 5.91929000E+02	 1.11234237E+03	-8.89226882E+02	-7.96959000E+01	 3.79135882E+02
					-9.93367000E+02	-2.10774000E+03	-8.43131000E+03	 5.13500000E-08	 5.43223000E-09	 9.72402000E+01	 6.95014729E+03	-8.43258106E+03	-2.10774000E+03	-9.92095944E+02
					 6.65836000E+01	-1.59797000E+01	-2.26465000E+02	 1.99358000E-08	-4.13504000E-09	 6.82095000E+02	 1.21006607E+03	-7.77596030E+02	-1.59797000E+01	 6.17714630E+02
					-1.01669000E+03	-1.57708000E+03	-6.26867000E+03	 0.00000000E+00	 1.04702000E-08	-2.46762000E+02	 5.01366615E+03	-6.28023852E+03	-1.57708000E+03	-1.00512148E+03
					 6.65836000E+01	-1.59797000E+01	-2.26465000E+02	 1.99355000E-08	-4.13513000E-09	 6.82095000E+02	 1.21006607E+03	-7.77596030E+02	-1.59797000E+01	 6.17714630E+02
					-1.01669000E+03	-1.57708000E+03	-6.26867000E+03	 0.00000000E+00	 1.04703000E-08	-2.46762000E+02	 5.01366615E+03	-6.28023852E+03	-1.57708000E+03	-1.00512148E+03
					 1.61210000E+02	 2.61559000E+01	-5.94971000E+01	-3.87026000E-08	-1.23417000E-08	 5.96185000E+02	 1.05045395E+03	-5.55455730E+02	 2.61559000E+01	 6.57168630E+02
					-5.39365000E+02	-9.71073000E+02	-4.07284000E+03	-3.76680000E-08	-1.50727000E-08	-1.59760000E+02	 3.35006832E+03	-4.08004857E+03	-9.71073000E+02	-5.32156432E+02
					 1.61210000E+02	 2.61559000E+01	-5.94971000E+01	-3.87025000E-08	-1.23417000E-08	 5.96185000E+02	 1.05045395E+03	-5.55455730E+02	 2.61559000E+01	 6.57168630E+02
					-5.39365000E+02	-9.71073000E+02	-4.07284000E+03	-3.76686000E-08	-1.50727000E-08	-1.59760000E+02	 3.35006832E+03	-4.08004857E+03	-9.71073000E+02	-5.32156432E+02
					 1.78130000E+02	 4.51771000E+01	 4.26082000E+01	-5.21470000E-08	-1.89493000E-08	 5.31793000E+02	 9.30825440E+02	-4.25723555E+02	 4.51771000E+01	 6.46461755E+02
					-2.46420000E+02	-5.13894000E+02	-2.24809000E+03	-5.48424000E-08	-2.50904000E-08	 9.17205000E+00	 1.88230785E+03	-2.24813203E+03	-5.13894000E+02	-2.46377973E+02
					 1.78130000E+02	 4.51771000E+01	 4.26082000E+01	-5.21475000E-08	-1.89495000E-08	 5.31793000E+02	 9.30825440E+02	-4.25723555E+02	 4.51771000E+01	 6.46461755E+02
					-2.46420000E+02	-5.13894000E+02	-2.24809000E+03	-5.48417000E-08	-2.50897000E-08	 9.17205000E+00	 1.88230785E+03	-2.24813203E+03	-5.13894000E+02	-2.46377973E+02
					 1.52963000E+02	 4.95408000E+01	 9.95888000E+01	-6.47710000E-08	-4.14729000E-09	 4.63830000E+02	 8.08356163E+02	-3.38321205E+02	 4.95408000E+01	 5.90873005E+02
					-4.13393000E+00	-1.48445000E+02	-7.23511000E+02	-4.72614000E-08	-2.29968000E-08	 2.22848000E+02	 7.63870848E+02	-7.86950192E+02	-1.48445000E+02	 5.93052620E+01
					 1.52963000E+02	 4.95408000E+01	 9.95888000E+01	-6.47687000E-08	-4.14744000E-09	 4.63830000E+02	 8.08356163E+02	-3.38321205E+02	 4.95408000E+01	 5.90873005E+02
					-4.13393000E+00	-1.48445000E+02	-7.23511000E+02	-4.72590000E-08	-2.29965000E-08	 2.22848000E+02	 7.63870848E+02	-7.86950192E+02	-1.48445000E+02	 5.93052620E+01
					 1.16714000E+02	 4.61636000E+01	 1.19372000E+02	-2.45073000E-09	-1.29293000E-08	 4.08163000E+02	 7.10607522E+02	-2.90122164E+02	 4.61636000E+01	 5.26208164E+02
					 2.09290000E+02	 1.57527000E+02	 5.95442000E+02	-6.49271000E-09	-2.74339000E-08	 4.32877000E+02	 8.56696360E+02	-7.16180070E+01	 1.57527000E+02	 8.76350007E+02
					 1.16714000E+02	 4.61636000E+01	 1.19372000E+02	-2.45240000E-09	-1.29292000E-08	 4.08163000E+02	 7.10607522E+02	-2.90122164E+02	 4.61636000E+01	 5.26208164E+02
					 2.09290000E+02	 1.57527000E+02	 5.95442000E+02	-6.49359000E-09	-2.74340000E-08	 4.32877000E+02	 8.56696360E+02	-7.16180070E+01	 1.57527000E+02	 8.76350007E+02
					 1.07774000E+02	 5.02222000E+01	 1.43213000E+02	 3.09106000E-08	-1.54969000E-08	 3.62035000E+02	 6.32309840E+02	-2.36974874E+02	 5.02222000E+01	 4.87961874E+02
					 3.98362000E+02	 4.27531000E+02	 1.79927000E+03	 2.27451000E-08	-8.04010000E-09	 6.18193000E+02	 1.75186150E+03	 1.64579204E+02	 4.27531000E+02	 2.03305280E+03
					 1.07774000E+02	 5.02222000E+01	 1.43213000E+02	 3.09129000E-08	-1.54970000E-08	 3.62035000E+02	 6.32309840E+02	-2.36974874E+02	 5.02222000E+01	 4.87961874E+02
					 3.98362000E+02	 4.27531000E+02	 1.79927000E+03	 2.27438000E-08	-8.03991000E-09	 6.18193000E+02	 1.75186150E+03	 1.64579204E+02	 4.27531000E+02	 2.03305280E+03
					 7.24289000E+01	 5.42333000E+01	 1.90283000E+02	 3.56844000E-09	 5.44403000E-09	 3.25548000E+02	 5.78195119E+02	-1.99482224E+02	 5.42333000E+01	 4.62194124E+02
					 5.28738000E+02	 6.61841000E+02	 2.91088000E+03	 6.31716000E-09	 1.02525000E-08	 7.51068000E+02	 2.65848756E+03	 3.11706281E+02	 6.61841000E+02	 3.12791172E+03
					 7.24289000E+01	 5.42333000E+01	 1.90283000E+02	 3.56452000E-09	 5.44388000E-09	 3.25548000E+02	 5.78195119E+02	-1.99482224E+02	 5.42333000E+01	 4.62194124E+02
					 5.28738000E+02	 6.61841000E+02	 2.91088000E+03	 6.31531000E-09	 1.02520000E-08	 7.51068000E+02	 2.65848756E+03	 3.11706281E+02	 6.61841000E+02	 3.12791172E+03
					 2.31104000E+01	 5.82099000E+01	 2.50275000E+02	-8.41178000E-09	 1.85294000E-08	 2.73208000E+02	 5.18449805E+02	-1.59184893E+02	 5.82099000E+01	 4.32570293E+02
					 5.89542000E+02	 8.51286000E+02	 3.87882000E+03	-2.16109000E-08	 7.73778000E-09	 7.91277000E+02	 3.45040125E+03	 4.09090117E+02	 8.51286000E+02	 4.05927188E+03
					 2.31104000E+01	 5.82099000E+01	 2.50275000E+02	-8.41387000E-09	 1.85295000E-08	 2.73208000E+02	 5.18449805E+02	-1.59184893E+02	 5.82099000E+01	 4.32570293E+02
					 5.89542000E+02	 8.51286000E+02	 3.87882000E+03	-2.16103000E-08	 7.73799000E-09	 7.91277000E+02	 3.45040125E+03	 4.09090117E+02	 8.51286000E+02	 4.05927188E+03
					-3.28101000E+01	 5.50580000E+01	 2.81779000E+02	-5.26545000E-09	 1.61195000E-08	 1.91163000E+02	 4.34366937E+02	-1.23073357E+02	 5.50580000E+01	 3.72042257E+02
					 6.09084000E+02	 9.85985000E+02	 4.60254000E+03	-2.53082000E-08	 6.26405000E-09	 7.12301000E+02	 4.01331855E+03	 4.85836665E+02	 9.85985000E+02	 4.72578733E+03
					-3.28101000E+01	 5.50580000E+01	 2.81779000E+02	-5.26688000E-09	 1.61194000E-08	 1.91163000E+02	 4.34366937E+02	-1.23073357E+02	 5.50580000E+01	 3.72042257E+02
					 6.09084000E+02	 9.85985000E+02	 4.60254000E+03	-2.53089000E-08	 6.26418000E-09	 7.12301000E+02	 4.01331855E+03	 4.85836665E+02	 9.85985000E+02	 4.72578733E+03
					-5.98615000E+01	 5.01223000E+01	 2.77626000E+02	 1.02155000E-08	 1.03715000E-08	 9.49821000E+01	 3.40500939E+02	-8.47567246E+01	 5.01223000E+01	 3.02521225E+02
					 5.91851000E+02	 1.05383000E+03	 4.99615000E+03	 0.00000000E+00	-4.65683000E-09	 5.41196000E+02	 4.29595856E+03	 5.26324260E+02	 1.05383000E+03	 5.06167674E+03
					-5.98615000E+01	 5.01223000E+01	 2.77626000E+02	 1.02147000E-08	 1.03719000E-08	 9.49821000E+01	 3.40500939E+02	-8.47567246E+01	 5.01223000E+01	 3.02521225E+02
					 5.91851000E+02	 1.05383000E+03	 4.99615000E+03	 0.00000000E+00	-4.65670000E-09	 5.41196000E+02	 4.29595856E+03	 5.26324260E+02	 1.05383000E+03	 5.06167674E+03
					-7.21342000E+01	 4.19472000E+01	 2.46779000E+02	 8.07721000E-09	 2.36937000E-09	 6.55435000E+00	 2.80119634E+02	-7.22688491E+01	 4.19472000E+01	 2.46913649E+02
					 5.69037000E+02	 1.06315000E+03	 5.06787000E+03	 1.43187000E-08	-1.83688000E-08	 3.23489000E+02	 4.30983173E+03	 5.45895531E+02	 1.06315000E+03	 5.09101147E+03
					-7.21342000E+01	 4.19472000E+01	 2.46779000E+02	 8.07877000E-09	 2.36900000E-09	 6.55435000E+00	 2.80119634E+02	-7.22688491E+01	 4.19472000E+01	 2.46913649E+02
					 5.69037000E+02	 1.06315000E+03	 5.06787000E+03	 1.43242000E-08	-1.83687000E-08	 3.23489000E+02	 4.30983173E+03	 5.45895531E+02	 1.06315000E+03	 5.09101147E+03
					-6.34796000E+01	 3.65889000E+01	 2.14067000E+02	 1.74504000E-08	-3.90617000E-09	-7.49926000E+01	 2.75941693E+02	-8.24463357E+01	 3.65889000E+01	 2.33033736E+02
					 5.37349000E+02	 1.01975000E+03	 4.85452000E+03	 2.85248000E-08	-9.33095000E-09	 9.80597000E+01	 4.10084329E+03	 5.35122832E+02	 1.01975000E+03	 4.85674617E+03
					-6.34796000E+01	 3.65889000E+01	 2.14067000E+02	 1.74476000E-08	-3.90584000E-09	-7.49926000E+01	 2.75941693E+02	-8.24463357E+01	 3.65889000E+01	 2.33033736E+02
					 5.37349000E+02	 1.01975000E+03	 4.85452000E+03	 2.85122000E-08	-9.33135000E-09	 9.80597000E+01	 4.10084329E+03	 5.35122832E+02	 1.01975000E+03	 4.85674617E+03
					-5.72560000E+01	 3.40435000E+01	 2.01648000E+02	 3.13717000E-08	 7.07162000E-09	-1.50756000E+02	 3.46281950E+02	-1.26512812E+02	 3.40435000E+01	 2.70904812E+02
					 4.94496000E+02	 9.26602000E+02	 4.38016000E+03	 2.93138000E-08	 1.78844000E-08	-1.04021000E+02	 3.69303976E+03	 4.91713303E+02	 9.26602000E+02	 4.38294270E+03
					-5.72560000E+01	 3.40435000E+01	 2.01648000E+02	 3.13734000E-08	 7.07161000E-09	-1.50756000E+02	 3.46281950E+02	-1.26512812E+02	 3.40435000E+01	 2.70904812E+02
					 4.94496000E+02	 9.26602000E+02	 4.38016000E+03	 2.93145000E-08	 1.78845000E-08	-1.04021000E+02	 3.69303976E+03	 4.91713303E+02	 9.26602000E+02	 4.38294270E+03
					-4.50871000E+01	 3.74690000E+01	 2.15101000E+02	 1.80126000E-09	 8.10799000E-09	-2.11983000E+02	 4.33409297E+02	-1.63712278E+02	 3.74690000E+01	 3.33726178E+02
					 4.11261000E+02	 7.82115000E+02	 3.67403000E+03	-2.89493000E-09	 2.05994000E-08	-2.47333000E+02	 3.12357234E+03	 3.92618531E+02	 7.82115000E+02	 3.69267247E+03
					-4.50871000E+01	 3.74690000E+01	 2.15101000E+02	 1.79153000E-09	 8.10767000E-09	-2.11983000E+02	 4.33409297E+02	-1.63712278E+02	 3.74690000E+01	 3.33726178E+02
					 4.11261000E+02	 7.82115000E+02	 3.67403000E+03	-2.89080000E-09	 2.05997000E-08	-2.47333000E+02	 3.12357234E+03	 3.92618531E+02	 7.82115000E+02	 3.69267247E+03
					-4.22762000E+01	 3.71582000E+01	 2.18806000E+02	 5.33359000E-09	 0.00000000E+00	-2.44728000E+02	 4.83125463E+02	-1.89102677E+02	 3.71582000E+01	 3.65632477E+02
					 3.14466000E+02	 6.03792000E+02	 2.81170000E+03	 1.67463000E-08	 1.59275000E-08	-3.06725000E+02	 2.42479136E+03	 2.77344054E+02	 6.03792000E+02	 2.84882195E+03
					-4.22762000E+01	 3.71582000E+01	 2.18806000E+02	 5.34349000E-09	 0.00000000E+00	-2.44728000E+02	 4.83125463E+02	-1.89102677E+02	 3.71582000E+01	 3.65632477E+02
					 3.14466000E+02	 6.03792000E+02	 2.81170000E+03	 1.67356000E-08	 1.59275000E-08	-3.06725000E+02	 2.42479136E+03	 2.77344054E+02	 6.03792000E+02	 2.84882195E+03
					-2.95377000E+01	 3.23547000E+01	 1.87855000E+02	-7.47437000E-09	 4.26589000E-09	-2.42717000E+02	 4.63000999E+02	-1.86785778E+02	 3.23547000E+01	 3.45103078E+02
					 2.17856000E+02	 4.12027000E+02	 1.89452000E+03	-3.61227000E-09	 4.80161000E-08	-2.91052000E+02	 1.66657698E+03	 1.68769379E+02	 4.12027000E+02	 1.94360662E+03
					-2.95377000E+01	 3.23547000E+01	 1.87855000E+02	-7.47528000E-09	 4.26606000E-09	-2.42717000E+02	 4.63000999E+02	-1.86785778E+02	 3.23547000E+01	 3.45103078E+02
					 2.17856000E+02	 4.12027000E+02	 1.89452000E+03	-3.60536000E-09	 4.80157000E-08	-2.91052000E+02	 1.66657698E+03	 1.68769379E+02	 4.12027000E+02	 1.94360662E+03
					-1.98768000E+01	 2.32122000E+01	 1.35330000E+02	-1.28803000E-07	-4.77708000E-09	-2.02462000E+02	 3.77134845E+02	-1.59098558E+02	 2.32122000E+01	 2.74551758E+02
					 1.35126000E+02	 2.33129000E+02	 1.04858000E+03	-1.21877000E-07	 3.60657000E-08	-2.20774000E+02	 9.49054816E+02	 8.45653975E+01	 2.33129000E+02	 1.09914060E+03
					-1.98768000E+01	 2.32122000E+01	 1.35330000E+02	-1.28804000E-07	-4.77728000E-09	-2.02462000E+02	 3.77134845E+02	-1.59098558E+02	 2.32122000E+01	 2.74551758E+02
					 1.35126000E+02	 2.33129000E+02	 1.04858000E+03	-1.21879000E-07	 3.60658000E-08	-2.20774000E+02	 9.49054816E+02	 8.45653975E+01	 2.33129000E+02	 1.09914060E+03
					-2.77583000E+00	 2.09247000E+01	 1.07613000E+02	-1.76279000E-07	-1.56274000E-08	-1.21495000E+02	 2.33268601E+02	-8.10260045E+01	 2.09247000E+01	 1.85863175E+02
					 6.53165000E+01	 9.48564000E+01	 4.12556000E+02	-1.60391000E-07	-3.83412000E-08	-1.19484000E+02	 3.92453481E+02	 2.81751439E+01	 9.48564000E+01	 4.49697356E+02
					-2.77583000E+00	 2.09247000E+01	 1.07613000E+02	-1.76280000E-07	-1.56274000E-08	-1.21495000E+02	 2.33268601E+02	-8.10260045E+01	 2.09247000E+01	 1.85863175E+02
					 6.53165000E+01	 9.48564000E+01	 4.12556000E+02	-1.60395000E-07	-3.83416000E-08	-1.19484000E+02	 3.92453481E+02	 2.81751439E+01	 9.48564000E+01	 4.49697356E+02
					 4.12294000E+01	 3.06836000E+01	 1.12581000E+02	-1.42997000E-07	-1.54054000E-08	-7.35916000E+01	 1.49003004E+02	-4.87796634E+00	 3.06836000E+01	 1.58688366E+02
					 6.51049000E+01	 4.67007000E+01	 1.69077000E+02	-1.55665000E-07	-8.19802000E-08	-8.24962000E+01	 1.82973508E+02	 1.95810920E+01	 4.67007000E+01	 2.14600808E+02
					 4.12294000E+01	 3.06836000E+01	 1.12581000E+02	-1.43001000E-07	-1.54052000E-08	-7.35916000E+01	 1.49003004E+02	-4.87796634E+00	 3.06836000E+01	 1.58688366E+02
					 6.51049000E+01	 4.67007000E+01	 1.69077000E+02	-1.55662000E-07	-8.19801000E-08	-8.24962000E+01	 1.82973508E+02	 1.95810920E+01	 4.67007000E+01	 2.14600808E+02
					 2.92165000E+03	 2.48697000E+03	 1.11539000E+04	 0.00000000E+00	 0.00000000E+00	 4.15212000E+03	 1.11021432E+04	 1.19118749E+03	 2.48697000E+03	 1.28843625E+04
					 8.46670000E+02	 1.83642000E+03	 9.36575000E+03	 3.36860000E-08	 2.09545000E-08	 1.56470000E+03	 8.51278027E+03	 5.68372729E+02	 1.83642000E+03	 9.64404727E+03
					 2.92165000E+03	 2.48697000E+03	 1.11539000E+04	 0.00000000E+00	 0.00000000E+00	 4.15212000E+03	 1.11021432E+04	 1.19118749E+03	 2.48697000E+03	 1.28843625E+04