<?xml version="1.0"?>
<VTKFile type="UnstructuredGrid" version="0.1" byte_order="LittleEndian">
	<UnstructuredGrid>
		<Piece NumberOfPoints="126" NumberOfCells="40">
			<Points>
				<DataArray type="Float64" NumberOfComponents="3" format="ascii">
					 5.00000000E-02	 0.00000000E+00	 0.00000000E+00
					 0.00000000E+00	 0.00000000E+00	 0.00000000E+00
					 0.00000000E+00	 0.00000000E+00	 5.00000000E-02
					 5.00000000E-02	 0.00000000E+00	 5.00000000E-02
					 5.00000000E-02	 3.00000000E-01	 0.00000000E+00
					 0.00000000E+00	 3.00000000E-01	 0.00000000E+00
					 0.00000000E+00	 3.00000000E-01	 5.00000000E-02
					 5.00000000E-02	 3.00000000E-01	 5.00000000E-02
					 0.00000000E+00	 0.00000000E+00	 1.00000000E-01
					 5.00000000E-02	 0.00000000E+00	 1.00000000E-01
					 0.00000000E+00	 3.00000000E-01	 1.00000000E-01
					 5.00000000E-02	 3.00000000E-01	 1.00000000E-01
					 0.00000000E+00	 0.00000000E+00	 1.50000000E-01
					 5.00000000E-02	 0.00000000E+00	 1.50000000E-01
					 0.00000000E+00	 3.00000000E-01	 1.50000000E-01
					 5.00000000E-02	 3.00000000E-01	 1.50000000E-01
					 0.00000000E+00	 0.00000000E+00	 2.00000000E-01
					 5.00000000E-02	 0.00000000E+00	 2.00000000E-01
					 0.00000000E+00	 3.00000000E-01	 2.00000000E-01
					 5.00000000E-02	 3.00000000E-01	 2.00000000E-01
					 0.00000000E+00	 0.00000000E+00	 2.50000000E-01
					 5.00000000E-02	 0.00000000E+00	 2.50000000E-01
					 0.00000000E+00	 3.00000000E-01	 2.50000000E-01
					 5.00000000E-02	 3.00000000E-01	 2.50000000E-01
					 0.00000000E+00	 0.00000000E+00	 3.00000000E-01
					 5.00000000E-02	 0.00000000E+00	 3.00000000E-01
					 0.00000000E+00	 3.00000000E-01	 3.00000000E-01
					 5.00000000E-02	 3.00000000E-01	 3.00000000E-01
					 0.00000000E+00	 0.00000000E+00	 3.50000000E-01
					 5.00000000E-02	 0.00000000E+00	 3.50000000E-01
					 0.00000000E+00	 3.00000000E-01	 3.50000000E-01
					 5.00000000E-02	 3.00000000E-01	 3.50000000E-01
					 0.00000000E+00	 0.00000000E+00	 4.00000000E-01
					 5.00000000E-02	 0.00000000E+00	 4.00000000E-01
					 0.00000000E+00	 3.00000000E-01	 4.00000000E-01
					 5.00000000E-02	 3.00000000E-01	 4.00000000E-01
					 0.00000000E+00	 0.00000000E+00	 4.50000000E-01
					 5.00000000E-02	 0.00000000E+00	 4.50000000E-01
					 0.00000000E+00	 3.00000000E-01	 4.50000000E-01
					 5.00000000E-02	 3.00000000E-01	 4.50000000E-01
					 0.00000000E+00	 0.00000000E+00	 5.00000000E-01
					 5.00000000E-02	 0.00000000E+00	 5.00000000E-01
					 0.00000000E+00	 3.00000000E-01	 5.00000000E-01
					 5.00000000E-02	 3.00000000E-01	 5.00000000E-01
					 0.00000000E+00	 0.00000000E+00	 5.50000000E-01
					 5.00000000E-02	 0.00000000E+00	 5.50000000E-01
					 0.00000000E+00	 3.00000000E-01	 5.50000000E-01
					 5.00000000E-02	 3.00000000E-01	 5.50000000E-01
					 0.00000000E+00	 0.00000000E+00	 6.00000000E-01
					 5.00000000E-02	 0.00000000E+00	 6.00000000E-01
					 0.00000000E+00	 3.00000000E-01	 6.00000000E-01
					 5.00000000E-02	 3.00000000E-01	 6.00000000E-01
					 0.00000000E+00	 0.00000000E+00	 6.50000000E-01
					 5.00000000E-02	 0.00000000E+00	 6.50000000E-01
					 0.00000000E+00	 3.00000000E-01	 6.50000000E-01
					 5.00000000E-02	 3.00000000E-01	 6.50000000E-01
					 0.00000000E+00	 0.00000000E+00	 7.00000000E-01
					 5.00000000E-02	 0.00000000E+00	 7.00000000E-01
					 0.00000000E+00	 3.00000000E-01	 7.00000000E-01
					 5.00000000E-02	 3.00000000E-01	 7.00000000E-01
					 0.00000000E+00	 0.00000000E+00	 7.50000000E-01
					 5.00000000E-02	 0.00000000E+00	 7.50000000E-01
					 0.00000000E+00	 3.00000000E-01	 7.50000000E-01
					 5.00000000E-02	 3.00000000E-01	 7.50000000E-01
					 0.00000000E+00	 0.00000000E+00	 8.00000000E-01
					 5.00000000E-02	 0.00000000E+00	 8.00000000E-01
					 0.00000000E+00	 3.00000000E-01	 8.00000000E-01
					 5.00000000E-02	 3.00000000E-01	 8.00000000E-01
					 0.00000000E+00	 0.00000000E+00	 8.50000000E-01
					 5.00000000E-02	 0.00000000E+00	 8.50000000E-01
					 0.00000000E+00	 3.00000000E-01	 8.50000000E-01
					 5.00000000E-02	 3.00000000E-01	 8.50000000E-01
					 0.00000000E+00	 0.00000000E+00	 9.00000000E-01
					 5.00000000E-02	 0.00000000E+00	 9.00000000E-01
					 0.00000000E+00	 3.00000000E-01	 9.00000000E-01
					 5.00000000E-02	 3.00000000E-01	 9.00000000E-01
					 0.00000000E+00	 0.00000000E+00	 9.50000000E-01
					 5.00000000E-02	 0.00000000E+00	 9.50000000E-01
					 0.00000000E+00	 3.00000000E-01	 9.50000000E-01
					 5.00000000E-02	 3.00000000E-01	 9.50000000E-01
					 0.00000000E+00	 0.00000000E+00	 1.00000000E+00
					 5.00000000E-02	 0.00000000E+00	 1.00000000E+00
					 0.00000000E+00	 3.00000000E-01	 1.00000000E+00
					 5.00000000E-02	 3.00000000E-01	 1.00000000E+00
					-5.00000000E-02	 0.00000000E+00	 0.00000000E+00
					-5.00000000E-02	 0.00000000E+00	 5.00000000E-02
					-5.00000000E-02	 3.00000000E-01	 0.00000000E+00
					-5.00000000E-02	 3.00000000E-01	 5.00000000E-02
					-5.00000000E-02	 0.00000000E+00	 1.00000000E-01
					-5.00000000E-02	 3.00000000E-01	 1.00000000E-01
					-5.00000000E-02	 0.00000000E+00	 1.50000000E-01
					-5.00000000E-02	 3.00000000E-01	 1.50000000E-01
					-5.00000000E-02	 0.00000000E+00	 2.00000000E-01
					-5.00000000E-02	 3.00000000E-01	 2.00000000E-01
					-5.00000000E-02	 0.00000000E+00	 2.50000000E-01
					-5.00000000E-02	 3.00000000E-01	 2.50000000E-01
					-5.00000000E-02	 0.00000000E+00	 3.00000000E-01
					-5.00000000E-02	 3.00000000E-01	 3.00000000E-01
					-5.00000000E-02	 0.00000000E+00	 3.50000000E-01
					-5.00000000E-02	 3.00000000E-01	 3.50000000E-01
					-5.00000000E-02	 0.00000000E+00	 4.00000000E-01
					-5.00000000E-02	 3.00000000E-01	 4.00000000E-01
					-5.00000000E-02	 0.00000000E+00	 4.50000000E-01
					-5.00000000E-02	 3.00000000E-01	 4.50000000E-01
					-5.00000000E-02	 0.00000000E+00	 5.00000000E-01
					-5.00000000E-02	 3.00000000E-01	 5.00000000E-01
					-5.00000000E-02	 0.00000000E+00	 5.50000000E-01
					-5.00000000E-02	 3.00000000E-01	 5.50000000E-01
					-5.00000000E-02	 0.00000000E+00	 6.00000000E-01
					-5.00000000E-02	 3.00000000E-01	 6.00000000E-01
					-5.00000000E-02	 0.00000000E+00	 6.50000000E-01
					-5.00000000E-02	 3.00000000E-01	 6.50000000E-01
					-5.00000000E-02	 0.00000000E+00	 7.00000000E-01
					-5.00000000E-02	 3.00000000E-01	 7.00000000E-01
					-5.00000000E-02	 0.00000000E+00	 7.50000000E-01
					-5.00000000E-02	 3.00000000E-01	 7.50000000E-01
					-5.00000000E-02	 0.00000000E+00	 8.00000000E-01
					-5.00000000E-02	 3.00000000E-01	 8.00000000E-01
					-5.00000000E-02	 0.00000000E+00	 8.50000000E-01
					-5.00000000E-02	 3.00000000E-01	 8.50000000E-01
					-5.00000000E-02	 0.00000000E+00	 9.00000000E-01
					-5.00000000E-02	 3.00000000E-01	 9.00000000E-01
					-5.00000000E-02	 0.00000000E+00	 9.50000000E-01
					-5.00000000E-02	 3.00000000E-01	 9.50000000E-01
					-5.00000000E-02	 0.00000000E+00	 1.00000000E+00
					-5.00000000E-02	 3.00000000E-01	 1.00000000E+00

				</DataArray>
			</Points>
			<Cells>
				<DataArray type="Int32" Name="connectivity" format="ascii">
					0 1 2 3 4 5 6 7 3 2 8 9 7 6 10 11 9 8 12 13 11 10 14 15 13 12 16 17 15 14 18 19 17 16 20 21 19 18 22 23 21 20 24 25 23 22 26 27 25 24 28 29 27 26 30 31 29 28 32 33 31 30 34 35 33 32 36 37 35 34 38 39 37 36 40 41 39 38 42 43 41 40 44 45 43 42 46 47 45 44 48 49 47 46 50 51 49 48 52 53 51 50 54 55 53 52 56 57 55 54 58 59 57 56 60 61 59 58 62 63 61 60 64 65 63 62 66 67 65 64 68 69 67 66 70 71 69 68 72 73 71 70 74 75 73 72 76 77 75 74 78 79 77 76 80 81 79 78 82 83 1 84 85 2 5 86 87 6 2 85 88 8 6 87 89 10 8 88 90 12 10 89 91 14 12 90 92 16 14 91 93 18 16 92 94 20 18 93 95 22 20 94 96 24 22 95 97 26 24 96 98 28 26 97 99 30 28 98 100 32 30 99 101 34 32 100 102 36 34 101 103 38 36 102 104 40 38 103 105 42 40 104 106 44 42 105 107 46 44 106 108 48 46 107 109 50 48 108 110 52 50 109 111 54 52 110 112 56 54 111 113 58 56 112 114 60 58 113 115 62 60 114 116 64 62 115 117 66 64 116 118 68 66 117 119 70 68 118 120 72 70 119 121 74 72 120 122 76 74 121 123 78 76 122 124 80 78 123 125 82 
				</DataArray>
				<DataArray type="Int32" Name="offsets" format="ascii">
					8 16 24 32 40 48 56 64 72 80 88 96 104 112 120 128 136 144 152 160 168 176 184 192 200 208 216 224 232 240 248 256 264 272 280 288 296 304 312 320 
				</DataArray>
				<DataArray type="UInt8" Name="types" format="ascii">
					12 12 12 12 12 12 12 12 12 12 12 12 12 12 12 12 12 12 12 12 12 12 12 12 12 12 12 12 12 12 12 12 12 12 12 12 12 12 12 12 
				</DataArray>
			</Cells>
			<PointData>
				<DataArray type="Float32" Name="U" NumberOfComponents="3" ComponentName0="D1" ComponentName1="D2" ComponentName2="D3" format="ascii">
					 0.00000000E+00	 0.00000000E+00	 0.00000000E+00
					 0.00000000E+00	 0.00000000E+00	 0.00000000E+00
					 3.28946000E-03	 0.00000000E+00	-3.26843000E-04
					 3.62968000E-03	 0.00000000E+00	-6.23850000E-03
					 0.00000000E+00	 0.00000000E+00	 0.00000000E+00
					 0.00000000E+00	 0.00000000E+00	 0.00000000E+00
					 3.28946000E-03	 0.00000000E+00	-3.26843000E-04
					 3.62968000E-03	 0.00000000E+00	-6.23850000E-03
					 1.25511000E-02	 0.00000000E+00	-1.19575000E-03
					 1.17234000E-02	 0.00000000E+00	-1.22679000E-02
					 1.25511000E-02	 0.00000000E+00	-1.19575000E-03
					 1.17234000E-02	 0.00000000E+00	-1.22679000E-02
					 2.62595000E-02	 0.00000000E+00	-3.04772000E-03
					 2.42472000E-02	 0.00000000E+00	-1.83790000E-02
					 2.62595000E-02	 0.00000000E+00	-3.04772000E-03
					 2.42472000E-02	 0.00000000E+00	-1.83790000E-02
					 4.37859000E-02	 0.00000000E+00	-6.07267000E-03
					 4.04117000E-02	 0.00000000E+00	-2.49675000E-02
					 4.37859000E-02	 0.00000000E+00	-6.07267000E-03
					 4.04117000E-02	 0.00000000E+00	-2.49675000E-02
					 6.45423000E-02	 0.00000000E+00	-1.03651000E-02
					 5.97638000E-02	 0.00000000E+00	-3.22946000E-02
					 6.45423000E-02	 0.00000000E+00	-1.03651000E-02
					 5.97638000E-02	 0.00000000E+00	-3.22946000E-02
					 8.80802000E-02	 0.00000000E+00	-1.59838000E-02
					 8.18913000E-02	 0.00000000E+00	-4.05272000E-02
					 8.80802000E-02	 0.00000000E+00	-1.59838000E-02
					 8.18913000E-02	 0.00000000E+00	-4.05272000E-02
					 1.14029000E-01	 0.00000000E+00	-2.29563000E-02
					 1.06463000E-01	 0.00000000E+00	-4.97693000E-02
					 1.14029000E-01	 0.00000000E+00	-2.29563000E-02
					 1.06463000E-01	 0.00000000E+00	-4.97693000E-02
					 1.42082000E-01	 0.00000000E+00	-3.12779000E-02
					 1.33186000E-01	 0.00000000E+00	-6.00465000E-02
					 1.42082000E-01	 0.00000000E+00	-3.12779000E-02
					 1.33186000E-01	 0.00000000E+00	-6.00465000E-02
					 1.71949000E-01	 0.00000000E+00	-4.08864000E-02
					 1.61803000E-01	 0.00000000E+00	-7.13184000E-02
					 1.71949000E-01	 0.00000000E+00	-4.08864000E-02
					 1.61803000E-01	 0.00000000E+00	-7.13184000E-02
					 2.03333000E-01	 0.00000000E+00	-5.16650000E-02
					 1.92038000E-01	 0.00000000E+00	-8.35036000E-02
					 2.03333000E-01	 0.00000000E+00	-5.16650000E-02
					 1.92038000E-01	 0.00000000E+00	-8.35036000E-02
					 2.35978000E-01	 0.00000000E+00	-6.34955000E-02
					 2.23634000E-01	 0.00000000E+00	-9.65520000E-02
					 2.35978000E-01	 0.00000000E+00	-6.34955000E-02
					 2.23634000E-01	 0.00000000E+00	-9.65520000E-02
					 2.69727000E-01	 0.00000000E+00	-7.63118000E-02
					 2.56384000E-01	 0.00000000E+00	-1.10461000E-01
					 2.69727000E-01	 0.00000000E+00	-7.63118000E-02
					 2.56384000E-01	 0.00000000E+00	-1.10461000E-01
					 3.04514000E-01	 0.00000000E+00	-9.01087000E-02
					 2.90192000E-01	 0.00000000E+00	-1.25270000E-01
					 3.04514000E-01	 0.00000000E+00	-9.01087000E-02
					 2.90192000E-01	 0.00000000E+00	-1.25270000E-01
					 3.40300000E-01	 0.00000000E+00	-1.04903000E-01
					 3.25029000E-01	 0.00000000E+00	-1.40985000E-01
					 3.40300000E-01	 0.00000000E+00	-1.04903000E-01
					 3.25029000E-01	 0.00000000E+00	-1.40985000E-01
					 3.76984000E-01	 0.00000000E+00	-1.20655000E-01
					 3.60856000E-01	 0.00000000E+00	-1.57526000E-01
					 3.76984000E-01	 0.00000000E+00	-1.20655000E-01
					 3.60856000E-01	 0.00000000E+00	-1.57526000E-01
					 4.14392000E-01	 0.00000000E+00	-1.37232000E-01
					 3.97549000E-01	 0.00000000E+00	-1.74721000E-01
					 4.14392000E-01	 0.00000000E+00	-1.37232000E-01
					 3.97549000E-01	 0.00000000E+00	-1.74721000E-01
					 4.52323000E-01	 0.00000000E+00	-1.54448000E-01
					 4.34934000E-01	 0.00000000E+00	-1.92389000E-01
					 4.52323000E-01	 0.00000000E+00	-1.54448000E-01
					 4.34934000E-01	 0.00000000E+00	-1.92389000E-01
					 4.90606000E-01	 0.00000000E+00	-1.72128000E-01
					 4.72840000E-01	 0.00000000E+00	-2.10364000E-01
					 4.90606000E-01	 0.00000000E+00	-1.72128000E-01
					 4.72840000E-01	 0.00000000E+00	-2.10364000E-01
					 5.29085000E-01	 0.00000000E+00	-1.90093000E-01
					 5.11111000E-01	 0.00000000E+00	-2.28485000E-01
					 5.29085000E-01	 0.00000000E+00	-1.90093000E-01
					 5.11111000E-01	 0.00000000E+00	-2.28485000E-01
					 5.67585000E-01	 0.00000000E+00	-2.08139000E-01
					 5.49545000E-01	 0.00000000E+00	-2.46586000E-01
					 5.67585000E-01	 0.00000000E+00	-2.08139000E-01
					 5.49545000E-01	 0.00000000E+00	-2.46586000E-01
					 0.00000000E+00	 0.00000000E+00	 0.00000000E+00
					 4.67939000E-03	 0.00000000E+00	 5.43086000E-03
					 0.00000000E+00	 0.00000000E+00	 0.00000000E+00
					 4.67939000E-03	 0.00000000E+00	 5.43086000E-03
					 1.45142000E-02	 0.00000000E+00	 9.54448000E-03
					 1.45142000E-02	 0.00000000E+00	 9.54448000E-03
					 2.92694000E-02	 0.00000000E+00	 1.19038000E-02
					 2.92694000E-02	 0.00000000E+00	 1.19038000E-02
					 4.80001000E-02	 0.00000000E+00	 1.24473000E-02
					 4.80001000E-02	 0.00000000E+00	 1.24473000E-02
					 7.00432000E-02	 0.00000000E+00	 1.11906000E-02
					 7.00432000E-02	 0.00000000E+00	 1.11906000E-02
					 9.48938000E-02	 0.00000000E+00	 8.18181000E-03
					 9.48938000E-02	 0.00000000E+00	 8.18181000E-03
					 1.22130000E-01	 0.00000000E+00	 3.48690000E-03
					 1.22130000E-01	 0.00000000E+00	 3.48690000E-03
					 1.51439000E-01	 0.00000000E+00	-2.85779000E-03
					 1.51439000E-01	 0.00000000E+00	-2.85779000E-03
					 1.82487000E-01	 0.00000000E+00	-1.07721000E-02
					 1.82487000E-01	 0.00000000E+00	-1.07721000E-02
					 2.14964000E-01	 0.00000000E+00	-2.01195000E-02
					 2.14964000E-01	 0.00000000E+00	-2.01195000E-02
					 2.48616000E-01	 0.00000000E+00	-3.07099000E-02
					 2.48616000E-01	 0.00000000E+00	-3.07099000E-02
					 2.83341000E-01	 0.00000000E+00	-4.24216000E-02
					 2.83341000E-01	 0.00000000E+00	-4.24216000E-02
					 3.19086000E-01	 0.00000000E+00	-5.51999000E-02
					 3.19086000E-01	 0.00000000E+00	-5.51999000E-02
					 3.55790000E-01	 0.00000000E+00	-6.90644000E-02
					 3.55790000E-01	 0.00000000E+00	-6.90644000E-02
					 3.93288000E-01	 0.00000000E+00	-8.39972000E-02
					 3.93288000E-01	 0.00000000E+00	-8.39972000E-02
					 4.31367000E-01	 0.00000000E+00	-9.99132000E-02
					 4.31367000E-01	 0.00000000E+00	-9.99132000E-02
					 4.69804000E-01	 0.00000000E+00	-1.16634000E-01
					 4.69804000E-01	 0.00000000E+00	-1.16634000E-01
					 5.08427000E-01	 0.00000000E+00	-1.33976000E-01
					 5.08427000E-01	 0.00000000E+00	-1.33976000E-01
					 5.47078000E-01	 0.00000000E+00	-1.51745000E-01
					 5.47078000E-01	 0.00000000E+00	-1.51745000E-01
					 5.85623000E-01	 0.00000000E+00	-1.69719000E-01
					 5.85623000E-01	 0.00000000E+00	-1.69719000E-01
				</DataArray>
				<DataArray type="Float32" Name="S" NumberOfComponents="10" ComponentName0="xx" ComponentName1="yy" ComponentName2="zz" ComponentName3="xy" ComponentName4="yz" ComponentName5="zx" ComponentName6="Mises" ComponentName7="Min Principal" ComponentName8="Mid Principal" ComponentName9="Max Principal" format="ascii">
					-3.97351000E+03	-4.34767000E+03	-1.39985000E+04	 0.00000000E+00	 0.00000000E+00	 2.55051000E+03	 1.07891044E+04	-1.46100789E+04	-4.34767000E+03	-3.36193109E+03
					 1.51194000E+02	-1.45016000E+02	-1.29589000E+03	 0.00000000E+00	 0.00000000E+00	 3.18537000E+03	 5.67387855E+03	-3.83885915E+03	-1.45016000E+02	 2.69416315E+03
					-1.48719000E+02	-2.00731000E+02	-1.15598000E+03	-1.05661000E-08	 1.50035000E-08	 3.42773000E+02	 1.14776753E+03	-1.26155965E+03	-2.00731000E+02	-4.31393474E+01
					-1.91893000E+03	-3.47141000E+03	-1.26506000E+04	-4.21597000E-08	 1.04163000E-08	-6.76265000E+02	 1.01138635E+04	-1.26930475E+04	-3.47141000E+03	-1.87648250E+03
					-3.97351000E+03	-4.34767000E+03	-1.39985000E+04	 0.00000000E+00	 0.00000000E+00	 2.55051000E+03	 1.07891044E+04	-1.46100789E+04	-4.34767000E+03	-3.36193109E+03
					 1.51194000E+02	-1.45016000E+02	-1.29589000E+03	 0.00000000E+00	 0.00000000E+00	 3.18537000E+03	 5.67387855E+03	-3.83885915E+03	-1.45016000E+02	 2.69416315E+03
					-1.48719000E+02	-2.00731000E+02	-1.15598000E+03	-1.05660000E-08	 1.50035000E-08	 3.42773000E+02	 1.14776753E+03	-1.26155965E+03	-2.00731000E+02	-4.31393474E+01
					-1.91893000E+03	-3.47141000E+03	-1.26506000E+04	-4.21595000E-08	 1.04164000E-08	-6.76265000E+02	 1.01138635E+04	-1.26930475E+04	-3.47141000E+03	-1.87648250E+03
					-7.81079000E+01	-1.07341000E+02	-7.60248000E+02	 3.44393000E-08	 1.23184000E-08	 4.57638000E+02	 1.03659357E+03	-9.89932992E+02	-1.07341000E+02	 1.51577092E+02
					-2.39759000E+03	-3.06748000E+03	-1.08739000E+04	 2.57120000E-08	-1.41350000E-08	-1.62382000E+03	 8.63300427E+03	-1.11743295E+04	-3.06748000E+03	-2.09716051E+03
					-7.81079000E+01	-1.07341000E+02	-7.60248000E+02	 3.44394000E-08	 1.23183000E-08	 4.57638000E+02	 1.03659357E+03	-9.89932992E+02	-1.07341000E+02	 1.51577092E+02
					-2.39759000E+03	-3.06748000E+03	-1.08739000E+04	 2.57115000E-08	-1.41354000E-08	-1.62382000E+03	 8.63300427E+03	-1.11743295E+04	-3.06748000E+03	-2.09716051E+03
					 4.16261000E+01	-3.88176000E+01	-4.47979000E+02	 5.95346000E-08	-2.67077000E-08	 3.62015000E+02	 7.74572965E+02	-6.40192638E+02	-3.88176000E+01	 2.33839738E+02
					-2.17191000E+03	-2.50371000E+03	-8.94106000E+03	 5.92230000E-08	-5.41417000E-08	-1.99809000E+03	 7.46073521E+03	-9.48684269E+03	-2.50371000E+03	-1.62612731E+03
					 4.16261000E+01	-3.88176000E+01	-4.47979000E+02	 5.95332000E-08	-2.67072000E-08	 3.62015000E+02	 7.74572965E+02	-6.40192638E+02	-3.88176000E+01	 2.33839738E+02
					-2.17191000E+03	-2.50371000E+03	-8.94106000E+03	 5.92244000E-08	-5.41423000E-08	-1.99809000E+03	 7.46073521E+03	-9.48684269E+03	-2.50371000E+03	-1.62612731E+03
					 9.82829000E+01	 1.10711000E+01	-2.03345000E+02	 8.25141000E-08	-7.06956000E-08	 3.49529000E+02	 6.62413271E+02	-4.33208564E+02	 1.10711000E+01	 3.28146464E+02
					-2.19229000E+03	-2.12297000E+03	-7.41540000E+03	 9.72838000E-08	-7.51531000E-08	-2.16712000E+03	 6.46041613E+03	-8.19746086E+03	-2.12297000E+03	-1.41022914E+03
					 9.82829000E+01	 1.10711000E+01	-2.03345000E+02	 8.25144000E-08	-7.06957000E-08	 3.49529000E+02	 6.62413271E+02	-4.33208564E+02	 1.10711000E+01	 3.28146464E+02
					-2.19229000E+03	-2.12297000E+03	-7.41540000E+03	 9.72865000E-08	-7.51522000E-08	-2.16712000E+03	 6.46041613E+03	-8.19746086E+03	-2.12297000E+03	-1.41022914E+03
					 1.41453000E+02	 4.59331000E+01	-3.28800000E+01	 4.21991000E-08	-6.90716000E-08	 3.53340000E+02	 6.30405617E+02	-3.09646398E+02	 4.59331000E+01	 4.18219398E+02
					-2.19928000E+03	-1.82814000E+03	-6.19950000E+03	 6.36643000E-08	-3.80752000E-08	-2.18504000E+03	 5.65219833E+03	-7.16162561E+03	-1.82814000E+03	-1.23715439E+03
					 1.41453000E+02	 4.59331000E+01	-3.28800000E+01	 4.21980000E-08	-6.90717000E-08	 3.53340000E+02	 6.30405617E+02	-3.09646398E+02	 4.59331000E+01	 4.18219398E+02
					-2.19928000E+03	-1.82814000E+03	-6.19950000E+03	 6.36630000E-08	-3.80747000E-08	-2.18504000E+03	 5.65219833E+03	-7.16162561E+03	-1.82814000E+03	-1.23715439E+03
					 1.71669000E+02	 6.24444000E+01	 4.77159000E+01	-1.47669000E-08	-3.83107000E-08	 3.61182000E+02	 6.36484853E+02	-2.56768366E+02	 6.24444000E+01	 4.76153266E+02
					-2.19714000E+03	-1.60064000E+03	-5.24047000E+03	-8.99507000E-09	-3.87945000E-09	-2.12556000E+03	 4.99870303E+03	-6.33289560E+03	-1.60064000E+03	-1.10471440E+03
					 1.71669000E+02	 6.24444000E+01	 4.77159000E+01	-1.47626000E-08	-3.83103000E-08	 3.61182000E+02	 6.36484853E+02	-2.56768366E+02	 6.24444000E+01	 4.76153266E+02
					-2.19714000E+03	-1.60064000E+03	-5.24047000E+03	-8.99721000E-09	-3.87967000E-09	-2.12556000E+03	 4.99870303E+03	-6.33289560E+03	-1.60064000E+03	-1.10471440E+03
					 2.28639000E+02	 7.55305000E+01	 7.72641000E+01	-7.86982000E-08	-2.60047000E-08	 3.48270000E+02	 6.22138062E+02	-2.03447921E+02	 7.55305000E+01	 5.09351021E+02
					-2.14023000E+03	-1.40530000E+03	-4.44830000E+03	-4.07679000E-08	 1.76257000E-08	-2.02423000E+03	 4.45601845E+03	-5.62435167E+03	-1.40530000E+03	-9.64178333E+02
					 2.28639000E+02	 7.55305000E+01	 7.72641000E+01	-7.86956000E-08	-2.60044000E-08	 3.48270000E+02	 6.22138062E+02	-2.03447921E+02	 7.55305000E+01	 5.09351021E+02
					-2.14023000E+03	-1.40530000E+03	-4.44830000E+03	-4.07699000E-08	 1.76261000E-08	-2.02423000E+03	 4.45601845E+03	-5.62435167E+03	-1.40530000E+03	-9.64178333E+02
					 2.71184000E+02	 7.97374000E+01	 7.24822000E+01	-1.30996000E-07	-2.94463000E-09	 3.37446000E+02	 6.16200317E+02	-1.79934443E+02	 7.97374000E+01	 5.23600643E+02
					-2.04207000E+03	-1.22776000E+03	-3.76128000E+03	-1.21709000E-07	 3.65457000E-08	-1.87197000E+03	 3.94101113E+03	-4.96157607E+03	-1.22776000E+03	-8.41773925E+02
					 2.71184000E+02	 7.97374000E+01	 7.24822000E+01	-1.30992000E-07	-2.94462000E-09	 3.37446000E+02	 6.16200317E+02	-1.79934443E+02	 7.97374000E+01	 5.23600643E+02
					-2.04207000E+03	-1.22776000E+03	-3.76128000E+03	-1.21711000E-07	 3.65438000E-08	-1.87197000E+03	 3.94101113E+03	-4.96157607E+03	-1.22776000E+03	-8.41773925E+02
					 2.96212000E+02	 8.33452000E+01	 7.80680000E+01	-1.29132000E-07	 1.49243000E-08	 3.27729000E+02	 6.07192191E+02	-1.58262662E+02	 8.33452000E+01	 5.32542662E+02
					-1.91164000E+03	-1.06099000E+03	-3.14506000E+03	-1.33050000E-07	 5.33618000E-09	-1.67985000E+03	 3.42926043E+03	-4.31782681E+03	-1.06099000E+03	-7.38873192E+02
					 2.96212000E+02	 8.33452000E+01	 7.80680000E+01	-1.29150000E-07	 1.49219000E-08	 3.27729000E+02	 6.07192191E+02	-1.58262662E+02	 8.33452000E+01	 5.32542662E+02
					-1.91164000E+03	-1.06099000E+03	-3.14506000E+03	-1.33041000E-07	 5.33713000E-09	-1.67985000E+03	 3.42926043E+03	-4.31782681E+03	-1.06099000E+03	-7.38873192E+02
					 2.80310000E+02	 8.25342000E+01	 9.92044000E+01	-8.80450000E-08	 0.00000000E+00	 3.17058000E+02	 5.81096831E+02	-1.39978429E+02	 8.25342000E+01	 5.19492829E+02
					-1.79342000E+03	-9.20730000E+02	-2.62679000E+03	-1.06514000E-07	-2.17614000E-08	-1.49216000E+03	 2.97707767E+03	-3.75935251E+03	-9.20730000E+02	-6.60857488E+02
					 2.80310000E+02	 8.25342000E+01	 9.92044000E+01	-8.80291000E-08	 0.00000000E+00	 3.17058000E+02	 5.81096831E+02	-1.39978429E+02	 8.25342000E+01	 5.19492829E+02
					-1.79342000E+03	-9.20730000E+02	-2.62679000E+03	-1.06508000E-07	-2.17594000E-08	-1.49216000E+03	 2.97707767E+03	-3.75935251E+03	-9.20730000E+02	-6.60857488E+02
					 2.59699000E+02	 8.50968000E+01	 1.38914000E+02	-6.10102000E-08	-5.41839000E-09	 2.91406000E+02	 5.27956426E+02	-9.82917374E+01	 8.50968000E+01	 4.96904737E+02
					-1.71739000E+03	-8.19602000E+02	-2.23627000E+03	-7.02623000E-08	-3.26433000E-08	-1.36355000E+03	 2.66812852E+03	-3.36484215E+03	-8.19602000E+02	-5.88817854E+02
					 2.59699000E+02	 8.50968000E+01	 1.38914000E+02	-6.10131000E-08	-5.41882000E-09	 2.91406000E+02	 5.27956426E+02	-9.82917374E+01	 8.50968000E+01	 4.96904737E+02
					-1.71739000E+03	-8.19602000E+02	-2.23627000E+03	-7.02629000E-08	-3.26472000E-08	-1.36355000E+03	 2.66812852E+03	-3.36484215E+03	-8.19602000E+02	-5.88817854E+02
					 2.39599000E+02	 8.20734000E+01	 1.48664000E+02	-1.73300000E-08	-2.04617000E-08	 2.74763000E+02	 4.95220170E+02	-8.43680507E+01	 8.20734000E+01	 4.72631051E+02
					-1.69847000E+03	-7.62524000E+02	-1.98835000E+03	-3.99512000E-08	-2.30133000E-08	-1.28746000E+03	 2.49078243E+03	-3.13900286E+03	-7.62524000E+02	-5.47817141E+02
					 2.39599000E+02	 8.20734000E+01	 1.48664000E+02	-1.73307000E-08	-2.04584000E-08	 2.74763000E+02	 4.95220170E+02	-8.43680507E+01	 8.20734000E+01	 4.72631051E+02
					-1.69847000E+03	-7.62524000E+02	-1.98835000E+03	-3.99648000E-08	-2.30190000E-08	-1.28746000E+03	 2.49078243E+03	-3.13900286E+03	-7.62524000E+02	-5.47817141E+02
					 2.57859000E+02	 7.89010000E+01	 1.19001000E+02	-8.64653000E-09	-6.52002000E-09	 2.63674000E+02	 4.84798613E+02	-8.42316297E+01	 7.89010000E+01	 4.61091630E+02
					-1.66328000E+03	-7.18942000E+02	-1.81822000E+03	-2.20355000E-08	-6.45472000E-09	-1.22037000E+03	 2.35159631E+03	-2.96357645E+03	-7.18942000E+02	-5.17923546E+02
					 2.57859000E+02	 7.89010000E+01	 1.19001000E+02	-8.65983000E-09	-6.52233000E-09	 2.63674000E+02	 4.84798613E+02	-8.42316297E+01	 7.89010000E+01	 4.61091630E+02
					-1.66328000E+03	-7.18942000E+02	-1.81822000E+03	-2.20221000E-08	-6.44833000E-09	-1.22037000E+03	 2.35159631E+03	-2.96357645E+03	-7.18942000E+02	-5.17923546E+02
					 2.99799000E+02	 7.30860000E+01	 5.23524000E+01	-2.24821000E-08	 1.35447000E-08	 2.50096000E+02	 4.94138919E+02	-1.02950220E+02	 7.30860000E+01	 4.55101620E+02
					-1.53200000E+03	-6.52442000E+02	-1.63634000E+03	-3.26398000E-08	 8.40080000E-09	-1.10720000E+03	 2.13400040E+03	-2.69259841E+03	-6.52442000E+02	-4.75741586E+02
					 2.99799000E+02	 7.30860000E+01	 5.23524000E+01	-2.24699000E-08	 1.35425000E-08	 2.50096000E+02	 4.94138919E+02	-1.02950220E+02	 7.30860000E+01	 4.55101620E+02
					-1.53200000E+03	-6.52442000E+02	-1.63634000E+03	-3.26433000E-08	 8.40004000E-09	-1.10720000E+03	 2.13400040E+03	-2.69259841E+03	-6.52442000E+02	-4.75741586E+02
					 3.42556000E+02	 7.00370000E+01	-1.71286000E+00	-1.17891000E-08	 1.77115000E-08	 2.15617000E+02	 4.88303103E+02	-1.05478689E+02	 7.00370000E+01	 4.46321829E+02
					-1.28180000E+03	-5.45483000E+02	-1.37978000E+03	-2.28516000E-08	 9.02250000E-09	-9.36629000E+02	 1.80436382E+03	-2.26869933E+03	-5.45483000E+02	-3.92880674E+02
					 3.42556000E+02	 7.00370000E+01	-1.71286000E+00	-1.18204000E-08	 1.77126000E-08	 2.15617000E+02	 4.88303103E+02	-1.05478689E+02	 7.00370000E+01	 4.46321829E+02
					-1.28180000E+03	-5.45483000E+02	-1.37978000E+03	-2.28518000E-08	 9.02607000E-09	-9.36629000E+02	 1.80436382E+03	-2.26869933E+03	-5.45483000E+02	-3.92880674E+02
					 3.37324000E+02	 6.00613000E+01	-4.26024000E+01	 2.06146000E-08	 1.26533000E-08	 1.77388000E+02	 4.58561623E+02	-1.12547876E+02	 6.00613000E+01	 4.07269476E+02
					-9.82217000E+02	-4.21102000E+02	-1.08426000E+03	 0.00000000E+00	-1.43509000E-09	-7.26619000E+02	 1.40230032E+03	-1.76164660E+03	-4.21102000E+02	-3.04830397E+02
					 3.37324000E+02	 6.00613000E+01	-4.26024000E+01	 2.06185000E-08	 1.26487000E-08	 1.77388000E+02	 4.58561623E+02	-1.12547876E+02	 6.00613000E+01	 4.07269476E+02
					-9.82217000E+02	-4.21102000E+02	-1.08426000E+03	 0.00000000E+00	-1.42083000E-09	-7.26619000E+02	 1.40230032E+03	-1.76164660E+03	-4.21102000E+02	-3.04830397E+02
					 2.98822000E+02	 4.69144000E+01	-6.66953000E+01	 9.08763000E-09	 1.76153000E-08	 1.36138000E+02	 4.00729853E+02	-1.11827587E+02	 4.69144000E+01	 3.43954287E+02
					-6.77784000E+02	-2.97955000E+02	-7.92442000E+02	 1.60280000E-09	 0.00000000E+00	-5.13761000E+02	 9.96402557E+02	-1.25206269E+03	-2.97955000E+02	-2.18163313E+02
					 2.98822000E+02	 4.69144000E+01	-6.66953000E+01	 9.10346000E-09	 1.76089000E-08	 1.36138000E+02	 4.00729853E+02	-1.11827587E+02	 4.69144000E+01	 3.43954287E+02
					-6.77784000E+02	-2.97955000E+02	-7.92442000E+02	 1.60849000E-09	 0.00000000E+00	-5.13761000E+02	 9.96402557E+02	-1.25206269E+03	-2.97955000E+02	-2.18163313E+02
					 2.38010000E+02	 3.05701000E+01	-8.57340000E+01	-1.58937000E-09	 3.10709000E-08	 9.67398000E+01	 3.29787558E+02	-1.12438598E+02	 3.05701000E+01	 2.64714598E+02
					-3.85231000E+02	-1.82898000E+02	-5.21724000E+02	-1.36080000E-08	 3.15846000E-08	-3.08715000E+02	 6.10819837E+02	-7.69646025E+02	-1.82898000E+02	-1.37308975E+02
					 2.38010000E+02	 3.05701000E+01	-8.57340000E+01	-1.59040000E-09	 3.10722000E-08	 9.67398000E+01	 3.29787558E+02	-1.12438598E+02	 3.05701000E+01	 2.64714598E+02
					-3.85231000E+02	-1.82898000E+02	-5.21724000E+02	-1.36131000E-08	 3.15746000E-08	-3.08715000E+02	 6.10819837E+02	-7.69646025E+02	-1.82898000E+02	-1.37308975E+02
					 1.46154000E+02	 1.60417000E+01	-6.60930000E+01	 1.00485000E-08	 4.15845000E-08	 5.85596000E+01	 2.11304838E+02	-8.11776846E+01	 1.60417000E+01	 1.61238685E+02
					-1.53640000E+02	-8.45227000E+01	-2.67423000E+02	-9.16806000E-09	 3.13422000E-08	-1.29817000E+02	 2.75944753E+02	-3.52267509E+02	-8.45227000E+01	-6.87954910E+01
					 1.46154000E+02	 1.60417000E+01	-6.60930000E+01	 1.00976000E-08	 4.15883000E-08	 5.85596000E+01	 2.11304838E+02	-8.11776846E+01	 1.60417000E+01	 1.61238685E+02
					-1.53640000E+02	-8.45227000E+01	-2.67423000E+02	-9.20202000E-09	 3.13563000E-08	-1.29817000E+02	 2.75944753E+02	-3.52267509E+02	-8.45227000E+01	-6.87954910E+01
					 8.75452000E+01	 1.28732000E+01	-2.31444000E+01	-3.47527000E-09	 6.28943000E-08	 3.67606000E+01	 1.16690644E+02	-3.42404654E+01	 1.28732000E+01	 9.86412654E+01
					-6.73381000E+01	-3.83959000E+01	-1.24448000E+02	-2.22742000E-08	 4.52036000E-08	-5.48043000E+01	 1.21501488E+02	-1.57690271E+02	-3.83959000E+01	-3.40958294E+01
					 8.75452000E+01	 1.28732000E+01	-2.31444000E+01	-3.50112000E-09	 6.29029000E-08	 3.67606000E+01	 1.16690644E+02	-3.42404654E+01	 1.28732000E+01	 9.86412654E+01
					-6.73381000E+01	-3.83959000E+01	-1.24448000E+02	-2.21941000E-08	 4.51742000E-08	-5.48043000E+01	 1.21501488E+02	-1.57690271E+02	-3.83959000E+01	-3.40958294E+01
					 4.34397000E+03	 3.57062000E+03	 1.67907000E+04	 0.00000000E+00	 0.00000000E+00	 5.99942000E+03	 1.65264623E+04	 1.92307030E+03	 3.57062000E+03	 1.92115997E+04
					 1.46853000E+03	 2.80655000E+03	 1.49673000E+04	 8.47285000E-09	 1.42608000E-08	 2.52631000E+03	 1.36048591E+04	 1.01122088E+03	 2.80655000E+03	 1.54246091E+04
					 4.34397000E+03	 3.57062000E+03	 1.67907000E+04	 0.00000000E+00	 0.00000000E+00	 5.99942000E+03	 1.65264623E+04	 1.92307030E+03	 3.57062000E+03	 1.92115997E+04