<?xml version="1.0"?>
<VTKFile type="UnstructuredGrid" version="0.1" byte_order="LittleEndian">
	<UnstructuredGrid>
		<Piece NumberOfPoints="126" NumberOfCells="40">
			<Points>
				<DataArray type="Float64" NumberOfComponents="3" format="ascii">
					 5.00000000E-02	 0.00000000E+00	 0.00000000E+00
					 0.00000000E+00	 0.00000000E+00	 0.00000000E+00
					 0.00000000E+00	 0.00000000E+00	 5.00000000E-02
					 5.00000000E-02	 0.00000000E+00	 5.00000000E-02
					 5.00000000E-02	 3.00000000E-01	 0.00000000E+00
					 0.00000000E+00	 3.00000000E-01	 0.00000000E+00
					 0.00000000E+00	 3.00000000E-01	 5.00000000E-02
					 5.00000000E-02	 3.00000000E-01	 5.00000000E-02
					 0.00000000E+00	 0.00000000E+00	 1.00000000E-01
					 5.00000000E-02	 0.00000000E+00	 1.00000000E-01
					 0.00000000E+00	 3.00000000E-01	 1.00000000E-01
					 5.00000000E-02	 3.00000000E-01	 1.00000000E-01
					 0.00000000E+00	 0.00000000E+00	 1.50000000E-01
					 5.00000000E-02	 0.00000000E+00	 1.50000000E-01
					 0.00000000E+00	 3.00000000E-01	 1.50000000E-01
					 5.00000000E-02	 3.00000000E-01	 1.50000000E-01
					 0.00000000E+00	 0.00000000E+00	 2.00000000E-01
					 5.00000000E-02	 0.00000000E+00	 2.00000000E-01
					 0.00000000E+00	 3.00000000E-01	 2.00000000E-01
					 5.00000000E-02	 3.00000000E-01	 2.00000000E-01
					 0.00000000E+00	 0.00000000E+00	 2.50000000E-01
					 5.00000000E-02	 0.00000000E+00	 2.50000000E-01
					 0.00000000E+00	 3.00000000E-01	 2.50000000E-01
					 5.00000000E-02	 3.00000000E-01	 2.50000000E-01
					 0.00000000E+00	 0.00000000E+00	 3.00000000E-01
					 5.00000000E-02	 0.00000000E+00	 3.00000000E-01
					 0.00000000E+00	 3.00000000E-01	 3.00000000E-01
					 5.00000000E-02	 3.00000000E-01	 3.00000000E-01
					 0.00000000E+00	 0.00000000E+00	 3.50000000E-01
					 5.00000000E-02	 0.00000000E+00	 3.50000000E-01
					 0.00000000E+00	 3.00000000E-01	 3.50000000E-01
					 5.00000000E-02	 3.00000000E-01	 3.50000000E-01
					 0.00000000E+00	 0.00000000E+00	 4.00000000E-01
					 5.00000000E-02	 0.00000000E+00	 4.00000000E-01
					 0.00000000E+00	 3.00000000E-01	 4.00000000E-01
					 5.00000000E-02	 3.00000000E-01	 4.00000000E-01
					 0.00000000E+00	 0.00000000E+00	 4.50000000E-01
					 5.00000000E-02	 0.00000000E+00	 4.50000000E-01
					 0.00000000E+00	 3.00000000E-01	 4.50000000E-01
					 5.00000000E-02	 3.00000000E-01	 4.50000000E-01
					 0.00000000E+00	 0.00000000E+00	 5.00000000E-01
					 5.00000000E-02	 0.00000000E+00	 5.00000000E-01
					 0.00000000E+00	 3.00000000E-01	 5.00000000E-01
					 5.00000000E-02	 3.00000000E-01	 5.00000000E-01
					 0.00000000E+00	 0.00000000E+00	 5.50000000E-01
					 5.00000000E-02	 0.00000000E+00	 5.50000000E-01
					 0.00000000E+00	 3.00000000E-01	 5.50000000E-01
					 5.00000000E-02	 3.00000000E-01	 5.50000000E-01
					 0.00000000E+00	 0.00000000E+00	 6.00000000E-01
					 5.00000000E-02	 0.00000000E+00	 6.00000000E-01
					 0.00000000E+00	 3.00000000E-01	 6.00000000E-01
					 5.00000000E-02	 3.00000000E-01	 6.00000000E-01
					 0.00000000E+00	 0.00000000E+00	 6.50000000E-01
					 5.00000000E-02	 0.00000000E+00	 6.50000000E-01
					 0.00000000E+00	 3.00000000E-01	 6.50000000E-01
					 5.00000000E-02	 3.00000000E-01	 6.50000000E-01
					 0.00000000E+00	 0.00000000E+00	 7.00000000E-01
					 5.00000000E-02	 0.00000000E+00	 7.00000000E-01
					 0.00000000E+00	 3.00000000E-01	 7.00000000E-01
					 5.00000000E-02	 3.00000000E-01	 7.00000000E-01
					 0.00000000E+00	 0.00000000E+00	 7.50000000E-01
					 5.00000000E-02	 0.00000000E+00	 7.50000000E-01
					 0.00000000E+00	 3.00000000E-01	 7.50000000E-01
					 5.00000000E-02	 3.00000000E-01	 7.50000000E-01
					 0.00000000E+00	 0.00000000E+00	 8.00000000E-01
					 5.00000000E-02	 0.00000000E+00	 8.00000000E-01
					 0.00000000E+00	 3.00000000E-01	 8.00000000E-01
					 5.00000000E-02	 3.00000000E-01	 8.00000000E-01
					 0.00000000E+00	 0.00000000E+00	 8.50000000E-01
					 5.00000000E-02	 0.00000000E+00	 8.50000000E-01
					 0.00000000E+00	 3.00000000E-01	 8.50000000E-01
					 5.00000000E-02	 3.00000000E-01	 8.50000000E-01
					 0.00000000E+00	 0.00000000E+00	 9.00000000E-01
					 5.00000000E-02	 0.00000000E+00	 9.00000000E-01
					 0.00000000E+00	 3.00000000E-01	 9.00000000E-01
					 5.00000000E-02	 3.00000000E-01	 9.00000000E-01
					 0.00000000E+00	 0.00000000E+00	 9.50000000E-01
					 5.00000000E-02	 0.00000000E+00	 9.50000000E-01
					 0.00000000E+00	 3.00000000E-01	 9.50000000E-01
					 5.00000000E-02	 3.00000000E-01	 9.50000000E-01
					 0.00000000E+00	 0.00000000E+00	 1.00000000E+00
					 5.00000000E-02	 0.00000000E+00	 1.00000000E+00
					 0.00000000E+00	 3.00000000E-01	 1.00000000E+00
					 5.00000000E-02	 3.00000000E-01	 1.00000000E+00
					-5.00000000E-02	 0.00000000E+00	 0.00000000E+00
					-5.00000000E-02	 0.00000000E+00	 5.00000000E-02
					-5.00000000E-02	 3.00000000E-01	 0.00000000E+00
					-5.00000000E-02	 3.00000000E-01	 5.00000000E-02
					-5.00000000E-02	 0.00000000E+00	 1.00000000E-01
					-5.00000000E-02	 3.00000000E-01	 1.00000000E-01
					-5.00000000E-02	 0.00000000E+00	 1.50000000E-01
					-5.00000000E-02	 3.00000000E-01	 1.50000000E-01
					-5.00000000E-02	 0.00000000E+00	 2.00000000E-01
					-5.00000000E-02	 3.00000000E-01	 2.00000000E-01
					-5.00000000E-02	 0.00000000E+00	 2.50000000E-01
					-5.00000000E-02	 3.00000000E-01	 2.50000000E-01
					-5.00000000E-02	 0.00000000E+00	 3.00000000E-01
					-5.00000000E-02	 3.00000000E-01	 3.00000000E-01
					-5.00000000E-02	 0.00000000E+00	 3.50000000E-01
					-5.00000000E-02	 3.00000000E-01	 3.50000000E-01
					-5.00000000E-02	 0.00000000E+00	 4.00000000E-01
					-5.00000000E-02	 3.00000000E-01	 4.00000000E-01
					-5.00000000E-02	 0.00000000E+00	 4.50000000E-01
					-5.00000000E-02	 3.00000000E-01	 4.50000000E-01
					-5.00000000E-02	 0.00000000E+00	 5.00000000E-01
					-5.00000000E-02	 3.00000000E-01	 5.00000000E-01
					-5.00000000E-02	 0.00000000E+00	 5.50000000E-01
					-5.00000000E-02	 3.00000000E-01	 5.50000000E-01
					-5.00000000E-02	 0.00000000E+00	 6.00000000E-01
					-5.00000000E-02	 3.00000000E-01	 6.00000000E-01
					-5.00000000E-02	 0.00000000E+00	 6.50000000E-01
					-5.00000000E-02	 3.00000000E-01	 6.50000000E-01
					-5.00000000E-02	 0.00000000E+00	 7.00000000E-01
					-5.00000000E-02	 3.00000000E-01	 7.00000000E-01
					-5.00000000E-02	 0.00000000E+00	 7.50000000E-01
					-5.00000000E-02	 3.00000000E-01	 7.50000000E-01
					-5.00000000E-02	 0.00000000E+00	 8.00000000E-01
					-5.00000000E-02	 3.00000000E-01	 8.00000000E-01
					-5.00000000E-02	 0.00000000E+00	 8.50000000E-01
					-5.00000000E-02	 3.00000000E-01	 8.50000000E-01
					-5.00000000E-02	 0.00000000E+00	 9.00000000E-01
					-5.00000000E-02	 3.00000000E-01	 9.00000000E-01
					-5.00000000E-02	 0.00000000E+00	 9.50000000E-01
					-5.00000000E-02	 3.00000000E-01	 9.50000000E-01
					-5.00000000E-02	 0.00000000E+00	 1.00000000E+00
					-5.00000000E-02	 3.00000000E-01	 1.00000000E+00

				</DataArray>
			</Points>
			<Cells>
				<DataArray type="Int32" Name="connectivity" format="ascii">
					0 1 2 3 4 5 6 7 3 2 8 9 7 6 10 11 9 8 12 13 11 10 14 15 13 12 16 17 15 14 18 19 17 16 20 21 19 18 22 23 21 20 24 25 23 22 26 27 25 24 28 29 27 26 30 31 29 28 32 33 31 30 34 35 33 32 36 37 35 34 38 39 37 36 40 41 39 38 42 43 41 40 44 45 43 42 46 47 45 44 48 49 47 46 50 51 49 48 52 53 51 50 54 55 53 52 56 57 55 54 58 59 57 56 60 61 59 58 62 63 61 60 64 65 63 62 66 67 65 64 68 69 67 66 70 71 69 68 72 73 71 70 74 75 73 72 76 77 75 74 78 79 77 76 80 81 79 78 82 83 1 84 85 2 5 86 87 6 2 85 88 8 6 87 89 10 8 88 90 12 10 89 91 14 12 90 92 16 14 91 93 18 16 92 94 20 18 93 95 22 20 94 96 24 22 95 97 26 24 96 98 28 26 97 99 30 28 98 100 32 30 99 101 34 32 100 102 36 34 101 103 38 36 102 104 40 38 103 105 42 40 104 106 44 42 105 107 46 44 106 108 48 46 107 109 50 48 108 110 52 50 109 111 54 52 110 112 56 54 111 113 58 56 112 114 60 58 113 115 62 60 114 116 64 62 115 117 66 64 116 118 68 66 117 119 70 68 118 120 72 70 119 121 74 72 120 122 76 74 121 123 78 76 122 124 80 78 123 125 82 
				</DataArray>
				<DataArray type="Int32" Name="offsets" format="ascii">
					8 16 24 32 40 48 56 64 72 80 88 96 104 112 120 128 136 144 152 160 168 176 184 192 200 208 216 224 232 240 248 256 264 272 280 288 296 304 312 320 
				</DataArray>
				<DataArray type="UInt8" Name="types" format="ascii">
					12 12 12 12 12 12 12 12 12 12 12 12 12 12 12 12 12 12 12 12 12 12 12 12 12 12 12 12 12 12 12 12 12 12 12 12 12 12 12 12 
				</DataArray>
			</Cells>
			<PointData>
				<DataArray type="Float32" Name="U" NumberOfComponents="3" ComponentName0="D1" ComponentName1="D2" ComponentName2="D3" format="ascii">
					 0.00000000E+00	 0.00000000E+00	 0.00000000E+00
					 0.00000000E+00	 0.00000000E+00	 0.00000000E+00
					 3.05594000E-03	 0.00000000E+00	-3.67988000E-04
					 3.42449000E-03	 0.00000000E+00	-6.93071000E-03
					 0.00000000E+00	 0.00000000E+00	 0.00000000E+00
					 0.00000000E+00	 0.00000000E+00	 0.00000000E+00
					 3.05594000E-03	 0.00000000E+00	-3.67988000E-04
					 3.42449000E-03	 0.00000000E+00	-6.93071000E-03
					 1.30821000E-02	 0.00000000E+00	-1.50054000E-03
					 1.19442000E-02	 0.00000000E+00	-1.44642000E-02
					 1.30821000E-02	 0.00000000E+00	-1.50054000E-03
					 1.19442000E-02	 0.00000000E+00	-1.44642000E-02
					 2.90117000E-02	 0.00000000E+00	-4.24283000E-03
					 2.59536000E-02	 0.00000000E+00	-2.30694000E-02
					 2.90117000E-02	 0.00000000E+00	-4.24283000E-03
					 2.59536000E-02	 0.00000000E+00	-2.30694000E-02
					 5.05115000E-02	 0.00000000E+00	-9.22817000E-03
					 4.49296000E-02	 0.00000000E+00	-3.33456000E-02
					 5.05115000E-02	 0.00000000E+00	-9.22817000E-03
					 4.49296000E-02	 0.00000000E+00	-3.33456000E-02
					 7.69944000E-02	 0.00000000E+00	-1.69195000E-02
					 6.85203000E-02	 0.00000000E+00	-4.56754000E-02
					 7.69944000E-02	 0.00000000E+00	-1.69195000E-02
					 6.85203000E-02	 0.00000000E+00	-4.56754000E-02
					 1.07773000E-01	 0.00000000E+00	-2.75776000E-02
					 9.62274000E-02	 0.00000000E+00	-6.02634000E-02
					 1.07773000E-01	 0.00000000E+00	-2.75776000E-02
					 9.62274000E-02	 0.00000000E+00	-6.02634000E-02
					 1.42145000E-01	 0.00000000E+00	-4.12702000E-02
					 1.27516000E-01	 0.00000000E+00	-7.72012000E-02
					 1.42145000E-01	 0.00000000E+00	-4.12702000E-02
					 1.27516000E-01	 0.00000000E+00	-7.72012000E-02
					 1.79482000E-01	 0.00000000E+00	-5.79390000E-02
					 1.61885000E-01	 0.00000000E+00	-9.64957000E-02
					 1.79482000E-01	 0.00000000E+00	-5.79390000E-02
					 1.61885000E-01	 0.00000000E+00	-9.64957000E-02
					 2.19216000E-01	 0.00000000E+00	-7.74169000E-02
					 1.98875000E-01	 0.00000000E+00	-1.18051000E-01
					 2.19216000E-01	 0.00000000E+00	-7.74169000E-02
					 1.98875000E-01	 0.00000000E+00	-1.18051000E-01
					 2.60834000E-01	 0.00000000E+00	-9.94356000E-02
					 2.38056000E-01	 0.00000000E+00	-1.41677000E-01
					 2.60834000E-01	 0.00000000E+00	-9.94356000E-02
					 2.38056000E-01	 0.00000000E+00	-1.41677000E-01
					 3.03889000E-01	 0.00000000E+00	-1.23663000E-01
					 2.79021000E-01	 0.00000000E+00	-1.67121000E-01
					 3.03889000E-01	 0.00000000E+00	-1.23663000E-01
					 2.79021000E-01	 0.00000000E+00	-1.67121000E-01
					 3.48025000E-01	 0.00000000E+00	-1.49754000E-01
					 3.21417000E-01	 0.00000000E+00	-1.94121000E-01
					 3.48025000E-01	 0.00000000E+00	-1.49754000E-01
					 3.21417000E-01	 0.00000000E+00	-1.94121000E-01
					 3.92965000E-01	 0.00000000E+00	-1.77373000E-01
					 3.64958000E-01	 0.00000000E+00	-2.22400000E-01
					 3.92965000E-01	 0.00000000E+00	-1.77373000E-01
					 3.64958000E-01	 0.00000000E+00	-2.22400000E-01
					 4.38481000E-01	 0.00000000E+00	-2.06188000E-01
					 4.09410000E-01	 0.00000000E+00	-2.51677000E-01
					 4.38481000E-01	 0.00000000E+00	-2.06188000E-01
					 4.09410000E-01	 0.00000000E+00	-2.51677000E-01
					 4.84385000E-01	 0.00000000E+00	-2.35871000E-01
					 4.54564000E-01	 0.00000000E+00	-2.81656000E-01
					 4.84385000E-01	 0.00000000E+00	-2.35871000E-01
					 4.54564000E-01	 0.00000000E+00	-2.81656000E-01
					 5.30518000E-01	 0.00000000E+00	-2.66107000E-01
					 5.00230000E-01	 0.00000000E+00	-3.12063000E-01
					 5.30518000E-01	 0.00000000E+00	-2.66107000E-01
					 5.00230000E-01	 0.00000000E+00	-3.12063000E-01
					 5.76748000E-01	 0.00000000E+00	-2.96627000E-01
					 5.46220000E-01	 0.00000000E+00	-3.42666000E-01
					 5.76748000E-01	 0.00000000E+00	-2.96627000E-01
					 5.46220000E-01	 0.00000000E+00	-3.42666000E-01
					 6.22984000E-01	 0.00000000E+00	-3.27239000E-01
					 5.92365000E-01	 0.00000000E+00	-3.73312000E-01
					 6.22984000E-01	 0.00000000E+00	-3.27239000E-01
					 5.92365000E-01	 0.00000000E+00	-3.73312000E-01
					 6.69182000E-01	 0.00000000E+00	-3.57858000E-01
					 6.38539000E-01	 0.00000000E+00	-4.03946000E-01
					 6.69182000E-01	 0.00000000E+00	-3.57858000E-01
					 6.38539000E-01	 0.00000000E+00	-4.03946000E-01
					 7.15338000E-01	 0.00000000E+00	-3.88478000E-01
					 6.84676000E-01	 0.00000000E+00	-4.34586000E-01
					 7.15338000E-01	 0.00000000E+00	-3.88478000E-01
					 6.84676000E-01	 0.00000000E+00	-4.34586000E-01
					 0.00000000E+00	 0.00000000E+00	 0.00000000E+00
					 4.68737000E-03	 0.00000000E+00	 6.06226000E-03
					 0.00000000E+00	 0.00000000E+00	 0.00000000E+00
					 4.68737000E-03	 0.00000000E+00	 6.06226000E-03
					 1.57197000E-02	 0.00000000E+00	 1.10277000E-02
					 1.57197000E-02	 0.00000000E+00	 1.10277000E-02
					 3.34862000E-02	 0.00000000E+00	 1.39586000E-02
					 3.34862000E-02	 0.00000000E+00	 1.39586000E-02
					 5.73349000E-02	 0.00000000E+00	 1.41484000E-02
					 5.73349000E-02	 0.00000000E+00	 1.41484000E-02
					 8.65271000E-02	 0.00000000E+00	 1.10255000E-02
					 8.65271000E-02	 0.00000000E+00	 1.10255000E-02
					 1.20198000E-01	 0.00000000E+00	 4.28130000E-03
					 1.20198000E-01	 0.00000000E+00	 4.28130000E-03
					 1.57490000E-01	 0.00000000E+00	-6.13748000E-03
					 1.57490000E-01	 0.00000000E+00	-6.13748000E-03
					 1.97651000E-01	 0.00000000E+00	-2.01282000E-02
					 1.97651000E-01	 0.00000000E+00	-2.01282000E-02
					 2.40002000E-01	 0.00000000E+00	-3.74556000E-02
					 2.40002000E-01	 0.00000000E+00	-3.74556000E-02
					 2.83950000E-01	 0.00000000E+00	-5.77814000E-02
					 2.83950000E-01	 0.00000000E+00	-5.77814000E-02
					 3.29012000E-01	 0.00000000E+00	-8.06971000E-02
					 3.29012000E-01	 0.00000000E+00	-8.06971000E-02
					 3.74824000E-01	 0.00000000E+00	-1.05790000E-01
					 3.74824000E-01	 0.00000000E+00	-1.05790000E-01
					 4.21109000E-01	 0.00000000E+00	-1.32661000E-01
					 4.21109000E-01	 0.00000000E+00	-1.32661000E-01
					 4.67648000E-01	 0.00000000E+00	-1.60933000E-01
					 4.67648000E-01	 0.00000000E+00	-1.60933000E-01
					 5.14266000E-01	 0.00000000E+00	-1.90241000E-01
					 5.14266000E-01	 0.00000000E+00	-1.90241000E-01
					 5.60836000E-01	 0.00000000E+00	-2.20243000E-01
					 5.60836000E-01	 0.00000000E+00	-2.20243000E-01
					 6.07285000E-01	 0.00000000E+00	-2.50634000E-01
					 6.07285000E-01	 0.00000000E+00	-2.50634000E-01
					 6.53601000E-01	 0.00000000E+00	-2.81186000E-01
					 6.53601000E-01	 0.00000000E+00	-2.81186000E-01
					 6.99817000E-01	 0.00000000E+00	-3.11781000E-01
					 6.99817000E-01	 0.00000000E+00	-3.11781000E-01
					 7.45964000E-01	 0.00000000E+00	-3.42390000E-01
					 7.45964000E-01	 0.00000000E+00	-3.42390000E-01
				</DataArray>
				<DataArray type="Float32" Name="S" NumberOfComponents="10" ComponentName0="xx" ComponentName1="yy" ComponentName2="zz" ComponentName3="xy" ComponentName4="yz" ComponentName5="zx" ComponentName6="Mises" ComponentName7="Min Principal" ComponentName8="Mid Principal" ComponentName9="Max Principal" format="ascii">
					-4.60856000E+03	-4.89101000E+03	-1.53423000E+04	 0.00000000E+00	 0.00000000E+00	 2.30652000E+03	 1.13234849E+04	-1.58169476E+04	-4.89101000E+03	-4.13391238E+03
					 1.96601000E+01	-1.82120000E+02	-1.61525000E+03	 0.00000000E+00	 0.00000000E+00	 2.92849000E+03	 5.30206705E+03	-3.83823677E+03	-1.82120000E+02	 2.24264687E+03
					-2.65191000E+02	-2.74376000E+02	-1.53017000E+03	-2.52360000E-08	 6.71611000E-09	-1.04639000E+02	 1.27337558E+03	-1.53876730E+03	-2.74376000E+02	-2.56593698E+02
					-2.46253000E+03	-4.16237000E+03	-1.44537000E+04	-3.02256000E-08	 1.35824000E-08	-1.26806000E+03	 1.14506974E+04	-1.45863297E+04	-4.16237000E+03	-2.32990028E+03
					-4.60856000E+03	-4.89101000E+03	-1.53423000E+04	 0.00000000E+00	 0.00000000E+00	 2.30652000E+03	 1.13234849E+04	-1.58169476E+04	-4.89101000E+03	-4.13391238E+03
					 1.96601000E+01	-1.82120000E+02	-1.61525000E+03	 0.00000000E+00	 0.00000000E+00	 2.92849000E+03	 5.30206705E+03	-3.83823677E+03	-1.82120000E+02	 2.24264687E+03
					-2.65191000E+02	-2.74376000E+02	-1.53017000E+03	-2.52362000E-08	 6.71615000E-09	-1.04639000E+02	 1.27337558E+03	-1.53876730E+03	-2.74376000E+02	-2.56593698E+02
					-2.46253000E+03	-4.16237000E+03	-1.44537000E+04	-3.02254000E-08	 1.35823000E-08	-1.26806000E+03	 1.14506974E+04	-1.45863297E+04	-4.16237000E+03	-2.32990028E+03
					-3.38433000E+02	-2.37817000E+02	-1.35229000E+03	-3.36816000E-08	-2.68227000E-09	-2.10033000E+01	 1.06834603E+03	-1.35272492E+03	-3.37998077E+02	-2.37817000E+02
					-3.53933000E+03	-4.18204000E+03	-1.36342000E+04	-2.55144000E-08	 0.00000000E+00	-2.75643000E+03	 1.08915160E+04	-1.43378089E+04	-4.18204000E+03	-2.83572106E+03
					-3.38433000E+02	-2.37817000E+02	-1.35229000E+03	-3.36814000E-08	-2.68231000E-09	-2.10033000E+01	 1.06834603E+03	-1.35272492E+03	-3.37998077E+02	-2.37817000E+02
					-3.53933000E+03	-4.18204000E+03	-1.36342000E+04	-2.55149000E-08	 0.00000000E+00	-2.75643000E+03	 1.08915160E+04	-1.43378089E+04	-4.18204000E+03	-2.83572106E+03
					-2.83249000E+02	-2.17248000E+02	-1.23002000E+03	-2.07183000E-08	-7.40767000E-09	-1.43192000E+02	 1.01229005E+03	-1.25120278E+03	-2.62066223E+02	-2.17248000E+02
					-3.94219000E+03	-3.89438000E+03	-1.22134000E+04	-2.21003000E-08	 4.22995000E-09	-3.71832000E+03	 1.05018264E+04	-1.36391916E+04	-3.89438000E+03	-2.51639838E+03
					-2.83249000E+02	-2.17248000E+02	-1.23002000E+03	-2.07181000E-08	-7.40781000E-09	-1.43192000E+02	 1.01229005E+03	-1.25120278E+03	-2.62066223E+02	-2.17248000E+02
					-3.94219000E+03	-3.89438000E+03	-1.22134000E+04	-2.20997000E-08	 4.23045000E-09	-3.71832000E+03	 1.05018264E+04	-1.36391916E+04	-3.89438000E+03	-2.51639838E+03
					-2.21720000E+02	-1.90122000E+02	-1.10818000E+03	-3.56609000E-08	-6.07758000E-09	-1.67039000E+02	 9.47906225E+02	-1.13861112E+03	-1.91288876E+02	-1.90122000E+02
					-4.59426000E+03	-3.64426000E+03	-1.06933000E+04	-2.08174000E-08	 1.21954000E-08	-4.33340000E+03	 1.00114906E+04	-1.29426410E+04	-3.64426000E+03	-2.34491901E+03
					-2.21720000E+02	-1.90122000E+02	-1.10818000E+03	-3.56604000E-08	-6.07808000E-09	-1.67039000E+02	 9.47906225E+02	-1.13861112E+03	-1.91288876E+02	-1.90122000E+02
					-4.59426000E+03	-3.64426000E+03	-1.06933000E+04	-2.08171000E-08	 1.21938000E-08	-4.33340000E+03	 1.00114906E+04	-1.29426410E+04	-3.64426000E+03	-2.34491901E+03
					-1.26572000E+02	-1.51936000E+02	-9.59241000E+02	-6.53320000E-08	 9.89984000E-09	-1.69822000E+02	 8.71423958E+02	-9.92544051E+02	-1.51936000E+02	-9.32689487E+01
					-5.10789000E+03	-3.32411000E+03	-9.04222000E+03	-7.96926000E-08	 1.06141000E-08	-4.55432000E+03	 9.37572903E+03	-1.20360598E+04	-3.32411000E+03	-2.11405018E+03
					-1.26572000E+02	-1.51936000E+02	-9.59241000E+02	-6.53319000E-08	 9.90005000E-09	-1.69822000E+02	 8.71423958E+02	-9.92544051E+02	-1.51936000E+02	-9.32689487E+01
					-5.10789000E+03	-3.32411000E+03	-9.04222000E+03	-7.96919000E-08	 1.06159000E-08	-4.55432000E+03	 9.37572903E+03	-1.20360598E+04	-3.32411000E+03	-2.11405018E+03
					-2.14487000E+01	-1.09051000E+02	-7.95220000E+02	-2.99535000E-08	 5.62560000E-09	-1.55186000E+02	 7.81575413E+02	-8.25183484E+02	-1.09051000E+02	 8.51478431E+00
					-5.43029000E+03	-2.96573000E+03	-7.40831000E+03	-6.47719000E-08	-1.70887000E-08	-4.44462000E+03	 8.60961723E+03	-1.09726271E+04	-2.96573000E+03	-1.86597290E+03
					-2.14487000E+01	-1.09051000E+02	-7.95220000E+02	-2.99572000E-08	 5.62455000E-09	-1.55186000E+02	 7.81575413E+02	-8.25183484E+02	-1.09051000E+02	 8.51478431E+00
					-5.43029000E+03	-2.96573000E+03	-7.40831000E+03	-6.47667000E-08	-1.70889000E-08	-4.44462000E+03	 8.60961723E+03	-1.09726271E+04	-2.96573000E+03	-1.86597290E+03
					 9.85869000E+01	-6.35043000E+01	-6.32650000E+02	 7.64313000E-09	-1.56172000E-08	-1.25223000E+02	 6.99640117E+02	-6.53499726E+02	-6.35043000E+01	 1.19436626E+02
					-5.51912000E+03	-2.59896000E+03	-5.93067000E+03	 3.91989000E-09	-3.60494000E-08	-4.09557000E+03	 7.76012761E+03	-9.82563115E+03	-2.59896000E+03	-1.62415885E+03
					 9.85869000E+01	-6.35043000E+01	-6.32650000E+02	 7.64591000E-09	-1.56181000E-08	-1.25223000E+02	 6.99640117E+02	-6.53499726E+02	-6.35043000E+01	 1.19436626E+02
					-5.51912000E+03	-2.59896000E+03	-5.93067000E+03	 3.91622000E-09	-3.60488000E-08	-4.09557000E+03	 7.76012761E+03	-9.82563115E+03	-2.59896000E+03	-1.62415885E+03
					 2.33352000E+02	-2.02102000E+01	-4.99908000E+02	 2.11181000E-09	-2.04777000E-09	-8.26702000E+01	 6.60711801E+02	-5.09112962E+02	-2.02102000E+01	 2.42556962E+02
					-5.35147000E+03	-2.23309000E+03	-4.66320000E+03	 2.93897000E-08	 1.64242000E-08	-3.59909000E+03	 6.84923853E+03	-8.62284018E+03	-2.23309000E+03	-1.39182982E+03
					 2.33352000E+02	-2.02102000E+01	-4.99908000E+02	 2.10577000E-09	-2.04779000E-09	-8.26702000E+01	 6.60711801E+02	-5.09112962E+02	-2.02102000E+01	 2.42556962E+02
					-5.35147000E+03	-2.23309000E+03	-4.66320000E+03	 2.93908000E-08	 1.64258000E-08	-3.59909000E+03	 6.84923853E+03	-8.62284018E+03	-2.23309000E+03	-1.39182982E+03
					 3.69436000E+02	 1.96724000E+01	-3.92534000E+02	-2.19680000E-08	 3.91612000E-08	-4.42446000E+01	 6.65053562E+02	-3.95094506E+02	 1.96724000E+01	 3.71996506E+02
					-4.94393000E+03	-1.87252000E+03	-3.60478000E+03	-2.74515000E-09	 6.08132000E-08	-3.03292000E+03	 5.89148662E+03	-7.38030645E+03	-1.87252000E+03	-1.16840355E+03
					 3.69436000E+02	 1.96724000E+01	-3.92534000E+02	-2.19681000E-08	 3.91634000E-08	-4.42446000E+01	 6.65053562E+02	-3.95094506E+02	 1.96724000E+01	 3.71996506E+02
					-4.94393000E+03	-1.87252000E+03	-3.60478000E+03	-2.74781000E-09	 6.08117000E-08	-3.03292000E+03	 5.89148662E+03	-7.38030645E+03	-1.87252000E+03	-1.16840355E+03
					 4.77726000E+02	 5.21324000E+01	-3.01877000E+02	-2.15268000E-08	 5.65674000E-08	-1.75452000E+01	 6.76786676E+02	-3.02271660E+02	 5.21324000E+01	 4.78120660E+02
					-4.36014000E+03	-1.52857000E+03	-2.73818000E+03	 0.00000000E+00	 7.64893000E-08	-2.46748000E+03	 4.93165513E+03	-6.14649442E+03	-1.52857000E+03	-9.51825576E+02
					 4.77726000E+02	 5.21324000E+01	-3.01877000E+02	-2.15189000E-08	 5.65696000E-08	-1.75452000E+01	 6.76786676E+02	-3.02271660E+02	 5.21324000E+01	 4.78120660E+02
					-4.36014000E+03	-1.52857000E+03	-2.73818000E+03	 0.00000000E+00	 7.64800000E-08	-2.46748000E+03	 4.93165513E+03	-6.14649442E+03	-1.52857000E+03	-9.51825576E+02
					 5.47635000E+02	 7.49526000E+01	-2.28480000E+02	-1.35245000E-08	 8.79509000E-08	-1.14123000E+00	 6.77444574E+02	-2.28481678E+02	 7.49526000E+01	 5.47636678E+02
					-3.68802000E+03	-1.21811000E+03	-2.05617000E+03	 9.01872000E-09	 1.14556000E-07	-1.94906000E+03	 4.01613892E+03	-4.98504755E+03	-1.21811000E+03	-7.59142447E+02
					 5.47635000E+02	 7.49526000E+01	-2.28480000E+02	-1.35180000E-08	 8.79506000E-08	-1.14123000E+00	 6.77444574E+02	-2.28481678E+02	 7.49526000E+01	 5.47636678E+02
					-3.68802000E+03	-1.21811000E+03	-2.05617000E+03	 9.01191000E-09	 1.14561000E-07	-1.94906000E+03	 4.01613892E+03	-4.98504755E+03	-1.21811000E+03	-7.59142447E+02
					 5.86922000E+02	 8.86712000E+01	-1.76940000E+02	 0.00000000E+00	 1.20854000E-07	 7.74426000E+00	 6.71806581E+02	-1.77018506E+02	 8.86712000E+01	 5.87000506E+02
					-2.97886000E+03	-9.42784000E+02	-1.52748000E+03	 0.00000000E+00	 1.37599000E-07	-1.49893000E+03	 3.16817973E+03	-3.91852796E+03	-9.42784000E+02	-5.87812044E+02
					 5.86922000E+02	 8.86712000E+01	-1.76940000E+02	 0.00000000E+00	 1.20851000E-07	 7.74426000E+00	 6.71806581E+02	-1.77018506E+02	 8.86712000E+01	 5.87000506E+02
					-2.97886000E+03	-9.42784000E+02	-1.52748000E+03	 0.00000000E+00	 1.37606000E-07	-1.49893000E+03	 3.16817973E+03	-3.91852796E+03	-9.42784000E+02	-5.87812044E+02
					 6.04486000E+02	 9.60480000E+01	-1.41764000E+02	 3.74554000E-08	 8.64576000E-08	 1.11770000E+01	 6.60568831E+02	-1.41931367E+02	 9.60480000E+01	 6.04653367E+02
					-2.25763000E+03	-6.97145000E+02	-1.11488000E+03	 1.18985000E-08	 7.99706000E-08	-1.11143000E+03	 2.37982703E+03	-2.93595338E+03	-6.97145000E+02	-4.36556622E+02
					 6.04486000E+02	 9.60480000E+01	-1.41764000E+02	 3.74646000E-08	 8.64591000E-08	 1.11770000E+01	 6.60568831E+02	-1.41931367E+02	 9.60480000E+01	 6.04653367E+02
					-2.25763000E+03	-6.97145000E+02	-1.11488000E+03	 1.19201000E-08	 7.99744000E-08	-1.11143000E+03	 2.37982703E+03	-2.93595338E+03	-6.97145000E+02	-4.36556622E+02
					 5.99994000E+02	 9.87763000E+01	-1.13107000E+02	 6.05031000E-08	 4.68273000E-08	 1.37840000E+01	 6.34730944E+02	-1.13373341E+02	 9.87763000E+01	 6.00260341E+02
					-1.54585000E+03	-4.75391000E+02	-7.78855000E+02	 1.77507000E-08	 3.31841000E-08	-7.76348000E+02	 1.64962897E+03	-2.02825466E+03	-4.75391000E+02	-2.96450341E+02
					 5.99994000E+02	 9.87763000E+01	-1.13107000E+02	 6.04948000E-08	 4.68316000E-08	 1.37840000E+01	 6.34730944E+02	-1.13373341E+02	 9.87763000E+01	 6.00260341E+02
					-1.54585000E+03	-4.75391000E+02	-7.78855000E+02	 1.77469000E-08	 3.31780000E-08	-7.76348000E+02	 1.64962897E+03	-2.02825466E+03	-4.75391000E+02	-2.96450341E+02
					 5.67638000E+02	 9.65273000E+01	-8.59225000E+01	 7.71768000E-08	-5.60063000E-09	 2.14590000E+01	 5.85293721E+02	-8.66263267E+01	 9.65273000E+01	 5.68341827E+02
					-8.90316000E+02	-2.83074000E+02	-5.06973000E+02	 3.64246000E-08	-2.46952000E-08	-4.86516000E+02	 9.96496958E+02	-1.22155537E+03	-2.83074000E+02	-1.75733626E+02
					 5.67638000E+02	 9.65273000E+01	-8.59225000E+01	 7.71334000E-08	-5.61225000E-09	 2.14590000E+01	 5.85293721E+02	-8.66263267E+01	 9.65273000E+01	 5.68341827E+02
					-8.90316000E+02	-2.83074000E+02	-5.06973000E+02	 3.64409000E-08	-2.46909000E-08	-4.86516000E+02	 9.96496958E+02	-1.22155537E+03	-2.83074000E+02	-1.75733626E+02
					 5.03781000E+02	 8.95823000E+01	-5.41692000E+01	 9.40147000E-08	-5.08923000E-08	 3.60783000E+01	 5.05639864E+02	-5.64924294E+01	 8.95823000E+01	 5.06104229E+02
					-3.52051000E+02	-1.28529000E+02	-2.87130000E+02	 6.73464000E-08	-5.57468000E-08	-2.49321000E+02	 4.75550662E+02	-5.71015728E+02	-1.28529000E+02	-6.81652723E+01
					 5.03781000E+02	 8.95823000E+01	-5.41692000E+01	 9.40306000E-08	-5.08801000E-08	 3.60783000E+01	 5.05639864E+02	-5.64924294E+01	 8.95823000E+01	 5.06104229E+02
					-3.52051000E+02	-1.28529000E+02	-2.87130000E+02	 6.73195000E-08	-5.57635000E-08	-2.49321000E+02	 4.75550662E+02	-5.71015728E+02	-1.28529000E+02	-6.81652723E+01
					 4.08913000E+02	 7.75138000E+01	-1.92597000E+01	 9.31251000E-08	-4.93511000E-08	 5.40284000E+01	 4.00023005E+02	-2.59719760E+01	 7.75138000E+01	 4.15625276E+02
					 2.64125000E+00	-2.46627000E+01	-1.25839000E+02	 8.33763000E-08	-5.35665000E-08	-7.75722000E+01	 1.78317135E+02	-1.62317492E+02	-2.46627000E+01	 3.91197423E+01
					 4.08913000E+02	 7.75138000E+01	-1.92597000E+01	 9.31196000E-08	-4.93506000E-08	 5.40284000E+01	 4.00023005E+02	-2.59719760E+01	 7.75138000E+01	 4.15625276E+02
					 2.64125000E+00	-2.46627000E+01	-1.25839000E+02	 8.33826000E-08	-5.35675000E-08	-7.75722000E+01	 1.78317135E+02	-1.62317492E+02	-2.46627000E+01	 3.91197423E+01
					 2.95777000E+02	 6.14143000E+01	 1.27335000E+01	 9.44297000E-08	-4.47794000E-08	 6.25794000E+01	 2.83642738E+02	-4.85135897E-01	 6.14143000E+01	 3.08995636E+02
					 1.51630000E+02	 2.55411000E+01	-2.36130000E+01	 6.65556000E-08	-5.57869000E-08	 1.42922000E+01	 1.58509065E+02	-2.47709697E+01	 2.55411000E+01	 1.52787970E+02
					 2.95777000E+02	 6.14143000E+01	 1.27335000E+01	 9.44440000E-08	-4.47818000E-08	 6.25794000E+01	 2.83642738E+02	-4.85135897E-01	 6.14143000E+01	 3.08995636E+02
					 1.51630000E+02	 2.55411000E+01	-2.36130000E+01	 6.65459000E-08	-5.57919000E-08	 1.42922000E+01	 1.58509065E+02	-2.47709697E+01	 2.55411000E+01	 1.52787970E+02
					 1.85462000E+02	 4.22099000E+01	 2.62555000E+01	 1.11881000E-07	-8.41185000E-08	 5.46822000E+01	 1.78973845E+02	 9.28328517E+00	 4.22099000E+01	 2.02434215E+02
					 1.27811000E+02	 2.71319000E+01	 8.15929000E+00	 8.43163000E-08	-9.41454000E-08	 3.21518000E+01	 1.24529519E+02	 6.70239297E-02	 2.71319000E+01	 1.35903266E+02
					 1.85462000E+02	 4.22099000E+01	 2.62555000E+01	 1.11901000E-07	-8.41197000E-08	 5.46822000E+01	 1.78973845E+02	 9.28328517E+00	 4.22099000E+01	 2.02434215E+02
					 1.27811000E+02	 2.71319000E+01	 8.15929000E+00	 8.43254000E-08	-9.41485000E-08	 3.21518000E+01	 1.24529519E+02	 6.70239297E-02	 2.71319000E+01	 1.35903266E+02
					 1.38053000E+02	 3.74770000E+01	 4.97057000E+01	 1.25505000E-07	-1.16622000E-07	 4.47304000E+01	 1.22627832E+02	 3.10134607E+01	 3.74770000E+01	 1.56745239E+02
					 7.53073000E+01	 2.25842000E+01	 3.77264000E+01	 1.03554000E-07	-1.19197000E-07	 3.15965000E+01	 7.21504276E+01	 1.97551876E+01	 2.25842000E+01	 9.32785124E+01
					 1.38053000E+02	 3.74770000E+01	 4.97057000E+01	 1.25513000E-07	-1.16611000E-07	 4.47304000E+01	 1.22627832E+02	 3.10134607E+01	 3.74770000E+01	 1.56745239E+02
					 7.53073000E+01	 2.25842000E+01	 3.77264000E+01	 1.03490000E-07	-1.19169000E-07	 3.15965000E+01	 7.21504276E+01	 1.97551876E+01	 2.25842000E+01	 9.32785124E+01
					 4.69117000E+03	 3.94772000E+03	 1.88923000E+04	 0.00000000E+00	 0.00000000E+00	 6.13908000E+03	 1.80512479E+04	 2.40523797E+03	 3.94772000E+03	 2.11782320E+04
					 1.77486000E+03	 3.25567000E+03	 1.77195000E+04	-2.72105000E-08	-3.52410000E-09	 2.72543000E+03	 1.59717647E+04	 1.32186963E+03	 3.25567000E+03	 1.81724904E+04
					 4.69117000E+03	 3.94772000E+03	 1.88923000E+04	 0.00000000E+00	 0.00000000E+00	 6.13908000E+03	 1.80512479E+04	 2.40523797E+03	 3.94772000E+03	 2.11782320E+04