<?xml version="1.0"?>
<VTKFile type="UnstructuredGrid" version="0.1" byte_order="LittleEndian">
	<UnstructuredGrid>
		<Piece NumberOfPoints="126" NumberOfCells="40">
			<Points>
				<DataArray type="Float64" NumberOfComponents="3" format="ascii">
					 5.00000000E-02	 0.00000000E+00	 0.00000000E+00
					 0.00000000E+00	 0.00000000E+00	 0.00000000E+00
					 0.00000000E+00	 0.00000000E+00	 5.00000000E-02
					 5.00000000E-02	 0.00000000E+00	 5.00000000E-02
					 5.00000000E-02	 3.00000000E-01	 0.00000000E+00
					 0.00000000E+00	 3.00000000E-01	 0.00000000E+00
					 0.00000000E+00	 3.00000000E-01	 5.00000000E-02
					 5.00000000E-02	 3.00000000E-01	 5.00000000E-02
					 0.00000000E+00	 0.00000000E+00	 1.00000000E-01
					 5.00000000E-02	 0.00000000E+00	 1.00000000E-01
					 0.00000000E+00	 3.00000000E-01	 1.00000000E-01
					 5.00000000E-02	 3.00000000E-01	 1.00000000E-01
					 0.00000000E+00	 0.00000000E+00	 1.50000000E-01
					 5.00000000E-02	 0.00000000E+00	 1.50000000E-01
					 0.00000000E+00	 3.00000000E-01	 1.50000000E-01
					 5.00000000E-02	 3.00000000E-01	 1.50000000E-01
					 0.00000000E+00	 0.00000000E+00	 2.00000000E-01
					 5.00000000E-02	 0.00000000E+00	 2.00000000E-01
					 0.00000000E+00	 3.00000000E-01	 2.00000000E-01
					 5.00000000E-02	 3.00000000E-01	 2.00000000E-01
					 0.00000000E+00	 0.00000000E+00	 2.50000000E-01
					 5.00000000E-02	 0.00000000E+00	 2.50000000E-01
					 0.00000000E+00	 3.00000000E-01	 2.50000000E-01
					 5.00000000E-02	 3.00000000E-01	 2.50000000E-01
					 0.00000000E+00	 0.00000000E+00	 3.00000000E-01
					 5.00000000E-02	 0.00000000E+00	 3.00000000E-01
					 0.00000000E+00	 3.00000000E-01	 3.00000000E-01
					 5.00000000E-02	 3.00000000E-01	 3.00000000E-01
					 0.00000000E+00	 0.00000000E+00	 3.50000000E-01
					 5.00000000E-02	 0.00000000E+00	 3.50000000E-01
					 0.00000000E+00	 3.00000000E-01	 3.50000000E-01
					 5.00000000E-02	 3.00000000E-01	 3.50000000E-01
					 0.00000000E+00	 0.00000000E+00	 4.00000000E-01
					 5.00000000E-02	 0.00000000E+00	 4.00000000E-01
					 0.00000000E+00	 3.00000000E-01	 4.00000000E-01
					 5.00000000E-02	 3.00000000E-01	 4.00000000E-01
					 0.00000000E+00	 0.00000000E+00	 4.50000000E-01
					 5.00000000E-02	 0.00000000E+00	 4.50000000E-01
					 0.00000000E+00	 3.00000000E-01	 4.50000000E-01
					 5.00000000E-02	 3.00000000E-01	 4.50000000E-01
					 0.00000000E+00	 0.00000000E+00	 5.00000000E-01
					 5.00000000E-02	 0.00000000E+00	 5.00000000E-01
					 0.00000000E+00	 3.00000000E-01	 5.00000000E-01
					 5.00000000E-02	 3.00000000E-01	 5.00000000E-01
					 0.00000000E+00	 0.00000000E+00	 5.50000000E-01
					 5.00000000E-02	 0.00000000E+00	 5.50000000E-01
					 0.00000000E+00	 3.00000000E-01	 5.50000000E-01
					 5.00000000E-02	 3.00000000E-01	 5.50000000E-01
					 0.00000000E+00	 0.00000000E+00	 6.00000000E-01
					 5.00000000E-02	 0.00000000E+00	 6.00000000E-01
					 0.00000000E+00	 3.00000000E-01	 6.00000000E-01
					 5.00000000E-02	 3.00000000E-01	 6.00000000E-01
					 0.00000000E+00	 0.00000000E+00	 6.50000000E-01
					 5.00000000E-02	 0.00000000E+00	 6.50000000E-01
					 0.00000000E+00	 3.00000000E-01	 6.50000000E-01
					 5.00000000E-02	 3.00000000E-01	 6.50000000E-01
					 0.00000000E+00	 0.00000000E+00	 7.00000000E-01
					 5.00000000E-02	 0.00000000E+00	 7.00000000E-01
					 0.00000000E+00	 3.00000000E-01	 7.00000000E-01
					 5.00000000E-02	 3.00000000E-01	 7.00000000E-01
					 0.00000000E+00	 0.00000000E+00	 7.50000000E-01
					 5.00000000E-02	 0.00000000E+00	 7.50000000E-01
					 0.00000000E+00	 3.00000000E-01	 7.50000000E-01
					 5.00000000E-02	 3.00000000E-01	 7.50000000E-01
					 0.00000000E+00	 0.00000000E+00	 8.00000000E-01
					 5.00000000E-02	 0.00000000E+00	 8.00000000E-01
					 0.00000000E+00	 3.00000000E-01	 8.00000000E-01
					 5.00000000E-02	 3.00000000E-01	 8.00000000E-01
					 0.00000000E+00	 0.00000000E+00	 8.50000000E-01
					 5.00000000E-02	 0.00000000E+00	 8.50000000E-01
					 0.00000000E+00	 3.00000000E-01	 8.50000000E-01
					 5.00000000E-02	 3.00000000E-01	 8.50000000E-01
					 0.00000000E+00	 0.00000000E+00	 9.00000000E-01
					 5.00000000E-02	 0.00000000E+00	 9.00000000E-01
					 0.00000000E+00	 3.00000000E-01	 9.00000000E-01
					 5.00000000E-02	 3.00000000E-01	 9.00000000E-01
					 0.00000000E+00	 0.00000000E+00	 9.50000000E-01
					 5.00000000E-02	 0.00000000E+00	 9.50000000E-01
					 0.00000000E+00	 3.00000000E-01	 9.50000000E-01
					 5.00000000E-02	 3.00000000E-01	 9.50000000E-01
					 0.00000000E+00	 0.00000000E+00	 1.00000000E+00
					 5.00000000E-02	 0.00000000E+00	 1.00000000E+00
					 0.00000000E+00	 3.00000000E-01	 1.00000000E+00
					 5.00000000E-02	 3.00000000E-01	 1.00000000E+00
					-5.00000000E-02	 0.00000000E+00	 0.00000000E+00
					-5.00000000E-02	 0.00000000E+00	 5.00000000E-02
					-5.00000000E-02	 3.00000000E-01	 0.00000000E+00
					-5.00000000E-02	 3.00000000E-01	 5.00000000E-02
					-5.00000000E-02	 0.00000000E+00	 1.00000000E-01
					-5.00000000E-02	 3.00000000E-01	 1.00000000E-01
					-5.00000000E-02	 0.00000000E+00	 1.50000000E-01
					-5.00000000E-02	 3.00000000E-01	 1.50000000E-01
					-5.00000000E-02	 0.00000000E+00	 2.00000000E-01
					-5.00000000E-02	 3.00000000E-01	 2.00000000E-01
					-5.00000000E-02	 0.00000000E+00	 2.50000000E-01
					-5.00000000E-02	 3.00000000E-01	 2.50000000E-01
					-5.00000000E-02	 0.00000000E+00	 3.00000000E-01
					-5.00000000E-02	 3.00000000E-01	 3.00000000E-01
					-5.00000000E-02	 0.00000000E+00	 3.50000000E-01
					-5.00000000E-02	 3.00000000E-01	 3.50000000E-01
					-5.00000000E-02	 0.00000000E+00	 4.00000000E-01
					-5.00000000E-02	 3.00000000E-01	 4.00000000E-01
					-5.00000000E-02	 0.00000000E+00	 4.50000000E-01
					-5.00000000E-02	 3.00000000E-01	 4.50000000E-01
					-5.00000000E-02	 0.00000000E+00	 5.00000000E-01
					-5.00000000E-02	 3.00000000E-01	 5.00000000E-01
					-5.00000000E-02	 0.00000000E+00	 5.50000000E-01
					-5.00000000E-02	 3.00000000E-01	 5.50000000E-01
					-5.00000000E-02	 0.00000000E+00	 6.00000000E-01
					-5.00000000E-02	 3.00000000E-01	 6.00000000E-01
					-5.00000000E-02	 0.00000000E+00	 6.50000000E-01
					-5.00000000E-02	 3.00000000E-01	 6.50000000E-01
					-5.00000000E-02	 0.00000000E+00	 7.00000000E-01
					-5.00000000E-02	 3.00000000E-01	 7.00000000E-01
					-5.00000000E-02	 0.00000000E+00	 7.50000000E-01
					-5.00000000E-02	 3.00000000E-01	 7.50000000E-01
					-5.00000000E-02	 0.00000000E+00	 8.00000000E-01
					-5.00000000E-02	 3.00000000E-01	 8.00000000E-01
					-5.00000000E-02	 0.00000000E+00	 8.50000000E-01
					-5.00000000E-02	 3.00000000E-01	 8.50000000E-01
					-5.00000000E-02	 0.00000000E+00	 9.00000000E-01
					-5.00000000E-02	 3.00000000E-01	 9.00000000E-01
					-5.00000000E-02	 0.00000000E+00	 9.50000000E-01
					-5.00000000E-02	 3.00000000E-01	 9.50000000E-01
					-5.00000000E-02	 0.00000000E+00	 1.00000000E+00
					-5.00000000E-02	 3.00000000E-01	 1.00000000E+00

				</DataArray>
			</Points>
			<Cells>
				<DataArray type="Int32" Name="connectivity" format="ascii">
					0 1 2 3 4 5 6 7 3 2 8 9 7 6 10 11 9 8 12 13 11 10 14 15 13 12 16 17 15 14 18 19 17 16 20 21 19 18 22 23 21 20 24 25 23 22 26 27 25 24 28 29 27 26 30 31 29 28 32 33 31 30 34 35 33 32 36 37 35 34 38 39 37 36 40 41 39 38 42 43 41 40 44 45 43 42 46 47 45 44 48 49 47 46 50 51 49 48 52 53 51 50 54 55 53 52 56 57 55 54 58 59 57 56 60 61 59 58 62 63 61 60 64 65 63 62 66 67 65 64 68 69 67 66 70 71 69 68 72 73 71 70 74 75 73 72 76 77 75 74 78 79 77 76 80 81 79 78 82 83 1 84 85 2 5 86 87 6 2 85 88 8 6 87 89 10 8 88 90 12 10 89 91 14 12 90 92 16 14 91 93 18 16 92 94 20 18 93 95 22 20 94 96 24 22 95 97 26 24 96 98 28 26 97 99 30 28 98 100 32 30 99 101 34 32 100 102 36 34 101 103 38 36 102 104 40 38 103 105 42 40 104 106 44 42 105 107 46 44 106 108 48 46 107 109 50 48 108 110 52 50 109 111 54 52 110 112 56 54 111 113 58 56 112 114 60 58 113 115 62 60 114 116 64 62 115 117 66 64 116 118 68 66 117 119 70 68 118 120 72 70 119 121 74 72 120 122 76 74 121 123 78 76 122 124 80 78 123 125 82 
				</DataArray>
				<DataArray type="Int32" Name="offsets" format="ascii">
					8 16 24 32 40 48 56 64 72 80 88 96 104 112 120 128 136 144 152 160 168 176 184 192 200 208 216 224 232 240 248 256 264 272 280 288 296 304 312 320 
				</DataArray>
				<DataArray type="UInt8" Name="types" format="ascii">
					12 12 12 12 12 12 12 12 12 12 12 12 12 12 12 12 12 12 12 12 12 12 12 12 12 12 12 12 12 12 12 12 12 12 12 12 12 12 12 12 
				</DataArray>
			</Cells>
			<PointData>
				<DataArray type="Float32" Name="U" NumberOfComponents="3" ComponentName0="D1" ComponentName1="D2" ComponentName2="D3" format="ascii">
					 0.00000000E+00	 0.00000000E+00	 0.00000000E+00
					 0.00000000E+00	 0.00000000E+00	 0.00000000E+00
					 2.99471000E-03	 0.00000000E+00	-5.27008000E-04
					 3.40864000E-03	 0.00000000E+00	-6.77666000E-03
					 0.00000000E+00	 0.00000000E+00	 0.00000000E+00
					 0.00000000E+00	 0.00000000E+00	 0.00000000E+00
					 2.99471000E-03	 0.00000000E+00	-5.27008000E-04
					 3.40864000E-03	 0.00000000E+00	-6.77666000E-03
					 1.25771000E-02	 0.00000000E+00	-1.73298000E-03
					 1.16413000E-02	 0.00000000E+00	-1.38826000E-02
					 1.25771000E-02	 0.00000000E+00	-1.73298000E-03
					 1.16413000E-02	 0.00000000E+00	-1.38826000E-02
					 2.75157000E-02	 0.00000000E+00	-4.26490000E-03
					 2.49886000E-02	 0.00000000E+00	-2.16223000E-02
					 2.75157000E-02	 0.00000000E+00	-4.26490000E-03
					 2.49886000E-02	 0.00000000E+00	-2.16223000E-02
					 4.72599000E-02	 0.00000000E+00	-8.53666000E-03
					 4.27569000E-02	 0.00000000E+00	-3.04569000E-02
					 4.72599000E-02	 0.00000000E+00	-8.53666000E-03
					 4.27569000E-02	 0.00000000E+00	-3.04569000E-02
					 7.11915000E-02	 0.00000000E+00	-1.48244000E-02
					 6.44931000E-02	 0.00000000E+00	-4.07560000E-02
					 7.11915000E-02	 0.00000000E+00	-1.48244000E-02
					 6.44931000E-02	 0.00000000E+00	-4.07560000E-02
					 9.88179000E-02	 0.00000000E+00	-2.33392000E-02
					 8.97703000E-02	 0.00000000E+00	-5.27971000E-02
					 9.88179000E-02	 0.00000000E+00	-2.33392000E-02
					 8.97703000E-02	 0.00000000E+00	-5.27971000E-02
					 1.29710000E-01	 0.00000000E+00	-3.42183000E-02
					 1.18231000E-01	 0.00000000E+00	-6.67487000E-02
					 1.29710000E-01	 0.00000000E+00	-3.42183000E-02
					 1.18231000E-01	 0.00000000E+00	-6.67487000E-02
					 1.63458000E-01	 0.00000000E+00	-4.75083000E-02
					 1.49552000E-01	 0.00000000E+00	-8.26606000E-02
					 1.63458000E-01	 0.00000000E+00	-4.75083000E-02
					 1.49552000E-01	 0.00000000E+00	-8.26606000E-02
					 1.99643000E-01	 0.00000000E+00	-6.31442000E-02
					 1.83410000E-01	 0.00000000E+00	-1.00476000E-01
					 1.99643000E-01	 0.00000000E+00	-6.31442000E-02
					 1.83410000E-01	 0.00000000E+00	-1.00476000E-01
					 2.37843000E-01	 0.00000000E+00	-8.09611000E-02
					 2.19464000E-01	 0.00000000E+00	-1.20067000E-01
					 2.37843000E-01	 0.00000000E+00	-8.09611000E-02
					 2.19464000E-01	 0.00000000E+00	-1.20067000E-01
					 2.77672000E-01	 0.00000000E+00	-1.00744000E-01
					 2.57370000E-01	 0.00000000E+00	-1.41272000E-01
					 2.77672000E-01	 0.00000000E+00	-1.00744000E-01
					 2.57370000E-01	 0.00000000E+00	-1.41272000E-01
					 3.18810000E-01	 0.00000000E+00	-1.22274000E-01
					 2.96828000E-01	 0.00000000E+00	-1.63929000E-01
					 3.18810000E-01	 0.00000000E+00	-1.22274000E-01
					 2.96828000E-01	 0.00000000E+00	-1.63929000E-01
					 3.60985000E-01	 0.00000000E+00	-1.45316000E-01
					 3.37585000E-01	 0.00000000E+00	-1.87839000E-01
					 3.60985000E-01	 0.00000000E+00	-1.45316000E-01
					 3.37585000E-01	 0.00000000E+00	-1.87839000E-01
					 4.03953000E-01	 0.00000000E+00	-1.69593000E-01
					 3.79407000E-01	 0.00000000E+00	-2.12765000E-01
					 4.03953000E-01	 0.00000000E+00	-1.69593000E-01
					 3.79407000E-01	 0.00000000E+00	-2.12765000E-01
					 4.47500000E-01	 0.00000000E+00	-1.94824000E-01
					 4.22065000E-01	 0.00000000E+00	-2.38464000E-01
					 4.47500000E-01	 0.00000000E+00	-1.94824000E-01
					 4.22065000E-01	 0.00000000E+00	-2.38464000E-01
					 4.91463000E-01	 0.00000000E+00	-2.20769000E-01
					 4.65360000E-01	 0.00000000E+00	-2.64745000E-01
					 4.91463000E-01	 0.00000000E+00	-2.20769000E-01
					 4.65360000E-01	 0.00000000E+00	-2.64745000E-01
					 5.35715000E-01	 0.00000000E+00	-2.47246000E-01
					 5.09129000E-01	 0.00000000E+00	-2.91457000E-01
					 5.35715000E-01	 0.00000000E+00	-2.47246000E-01
					 5.09129000E-01	 0.00000000E+00	-2.91457000E-01
					 5.80152000E-01	 0.00000000E+00	-2.74100000E-01
					 5.53250000E-01	 0.00000000E+00	-3.18460000E-01
					 5.80152000E-01	 0.00000000E+00	-2.74100000E-01
					 5.53250000E-01	 0.00000000E+00	-3.18460000E-01
					 6.24675000E-01	 0.00000000E+00	-3.01173000E-01
					 5.97605000E-01	 0.00000000E+00	-3.45607000E-01
					 6.24675000E-01	 0.00000000E+00	-3.01173000E-01
					 5.97605000E-01	 0.00000000E+00	-3.45607000E-01
					 6.69191000E-01	 0.00000000E+00	-3.28298000E-01
					 6.42060000E-01	 0.00000000E+00	-3.72766000E-01
					 6.69191000E-01	 0.00000000E+00	-3.28298000E-01
					 6.42060000E-01	 0.00000000E+00	-3.72766000E-01
					 0.00000000E+00	 0.00000000E+00	 0.00000000E+00
					 4.44899000E-03	 0.00000000E+00	 5.56484000E-03
					 0.00000000E+00	 0.00000000E+00	 0.00000000E+00
					 4.44899000E-03	 0.00000000E+00	 5.56484000E-03
					 1.48549000E-02	 0.00000000E+00	 1.00224000E-02
					 1.48549000E-02	 0.00000000E+00	 1.00224000E-02
					 3.12712000E-02	 0.00000000E+00	 1.25740000E-02
					 3.12712000E-02	 0.00000000E+00	 1.25740000E-02
					 5.28298000E-02	 0.00000000E+00	 1.28144000E-02
					 5.28298000E-02	 0.00000000E+00	 1.28144000E-02
					 7.88266000E-02	 0.00000000E+00	 1.04993000E-02
					 7.88266000E-02	 0.00000000E+00	 1.04993000E-02
					 1.08684000E-01	 0.00000000E+00	 5.48375000E-03
					 1.08684000E-01	 0.00000000E+00	 5.48375000E-03
					 1.41890000E-01	 0.00000000E+00	-2.32593000E-03
					 1.41890000E-01	 0.00000000E+00	-2.32593000E-03
					 1.77956000E-01	 0.00000000E+00	-1.29738000E-02
					 1.77956000E-01	 0.00000000E+00	-1.29738000E-02
					 2.16365000E-01	 0.00000000E+00	-2.63871000E-02
					 2.16365000E-01	 0.00000000E+00	-2.63871000E-02
					 2.56619000E-01	 0.00000000E+00	-4.23767000E-02
					 2.56619000E-01	 0.00000000E+00	-4.23767000E-02
					 2.98290000E-01	 0.00000000E+00	-6.06745000E-02
					 2.98290000E-01	 0.00000000E+00	-6.06745000E-02
					 3.41041000E-01	 0.00000000E+00	-8.10134000E-02
					 3.41041000E-01	 0.00000000E+00	-8.10134000E-02
					 3.84577000E-01	 0.00000000E+00	-1.03116000E-01
					 3.84577000E-01	 0.00000000E+00	-1.03116000E-01
					 4.28643000E-01	 0.00000000E+00	-1.26678000E-01
					 4.28643000E-01	 0.00000000E+00	-1.26678000E-01
					 4.73040000E-01	 0.00000000E+00	-1.51377000E-01
					 4.73040000E-01	 0.00000000E+00	-1.51377000E-01
					 5.17640000E-01	 0.00000000E+00	-1.76937000E-01
					 5.17640000E-01	 0.00000000E+00	-1.76937000E-01
					 5.62348000E-01	 0.00000000E+00	-2.03138000E-01
					 5.62348000E-01	 0.00000000E+00	-2.03138000E-01
					 6.07078000E-01	 0.00000000E+00	-2.29805000E-01
					 6.07078000E-01	 0.00000000E+00	-2.29805000E-01
					 6.51748000E-01	 0.00000000E+00	-2.56770000E-01
					 6.51748000E-01	 0.00000000E+00	-2.56770000E-01
					 6.96298000E-01	 0.00000000E+00	-2.83857000E-01
					 6.96298000E-01	 0.00000000E+00	-2.83857000E-01
				</DataArray>
				<DataArray type="Float32" Name="S" NumberOfComponents="10" ComponentName0="xx" ComponentName1="yy" ComponentName2="zz" ComponentName3="xy" ComponentName4="yz" ComponentName5="zx" ComponentName6="Mises" ComponentName7="Min Principal" ComponentName8="Mid Principal" ComponentName9="Max Principal" format="ascii">
					-4.47903000E+03	-4.77282000E+03	-1.50178000E+04	 0.00000000E+00	-1.09161000E-09	 2.32238000E+03	 1.11461270E+04	-1.55068755E+04	-4.77282000E+03	-3.98995452E+03
					-8.58959000E+01	-2.91203000E+02	-1.94742000E+03	 0.00000000E+00	 0.00000000E+00	 2.85928000E+03	 5.25848697E+03	-4.02361656E+03	-2.91203000E+02	 1.99030066E+03
					-2.12911000E+02	-3.35726000E+02	-1.81509000E+03	-4.45732000E-08	 1.79269000E-09	-3.42615000E+01	 1.54557789E+03	-1.81582232E+03	-3.35726000E+02	-2.12178676E+02
					-2.22147000E+03	-3.96393000E+03	-1.39666000E+04	-4.93984000E-08	 0.00000000E+00	-1.08141000E+03	 1.11367486E+04	-1.40653386E+04	-3.96393000E+03	-2.12273135E+03
					-4.47903000E+03	-4.77282000E+03	-1.50178000E+04	 0.00000000E+00	-1.09161000E-09	 2.32238000E+03	 1.11461270E+04	-1.55068755E+04	-4.77282000E+03	-3.98995452E+03
					-8.58959000E+01	-2.91203000E+02	-1.94742000E+03	 0.00000000E+00	 0.00000000E+00	 2.85928000E+03	 5.25848697E+03	-4.02361656E+03	-2.91203000E+02	 1.99030066E+03
					-2.12911000E+02	-3.35726000E+02	-1.81509000E+03	-4.45733000E-08	 1.79267000E-09	-3.42615000E+01	 1.54557789E+03	-1.81582232E+03	-3.35726000E+02	-2.12178676E+02
					-2.22147000E+03	-3.96393000E+03	-1.39666000E+04	-4.93982000E-08	 0.00000000E+00	-1.08141000E+03	 1.11367486E+04	-1.40653386E+04	-3.96393000E+03	-2.12273135E+03
					-2.34411000E+02	-2.76220000E+02	-1.55000000E+03	-5.35468000E-08	-5.77892000E-09	 5.92928000E+01	 1.29925589E+03	-1.55266688E+03	-2.76220000E+02	-2.31744116E+02
					-3.04454000E+03	-3.81928000E+03	-1.28337000E+04	-4.07214000E-08	 1.44969000E-08	-2.35730000E+03	 1.02720208E+04	-1.33717783E+04	-3.81928000E+03	-2.50646166E+03
					-2.34411000E+02	-2.76220000E+02	-1.55000000E+03	-5.35466000E-08	-5.77875000E-09	 5.92928000E+01	 1.29925589E+03	-1.55266688E+03	-2.76220000E+02	-2.31744116E+02
					-3.04454000E+03	-3.81928000E+03	-1.28337000E+04	-4.07212000E-08	 1.44966000E-08	-2.35730000E+03	 1.02720208E+04	-1.33717783E+04	-3.81928000E+03	-2.50646166E+03
					-1.58188000E+02	-2.25887000E+02	-1.29893000E+03	-8.37383000E-08	-5.48153000E-09	-6.42601000E+01	 1.11401816E+03	-1.30253848E+03	-2.25887000E+02	-1.54579525E+02
					-3.15300000E+03	-3.38861000E+03	-1.11947000E+04	-7.00992000E-08	 1.20056000E-08	-3.07762000E+03	 9.55222386E+03	-1.22373448E+04	-3.38861000E+03	-2.11035520E+03
					-1.58188000E+02	-2.25887000E+02	-1.29893000E+03	-8.37391000E-08	-5.48137000E-09	-6.42601000E+01	 1.11401816E+03	-1.30253848E+03	-2.25887000E+02	-1.54579525E+02
					-3.15300000E+03	-3.38861000E+03	-1.11947000E+04	-7.00971000E-08	 1.20053000E-08	-3.07762000E+03	 9.55222386E+03	-1.22373448E+04	-3.38861000E+03	-2.11035520E+03
					-1.43450000E+02	-1.89796000E+02	-1.08775000E+03	-1.14130000E-07	-1.24500000E-08	-1.31492000E+02	 9.49713826E+02	-1.10571812E+03	-1.89796000E+02	-1.25481883E+02
					-3.52679000E+03	-3.07873000E+03	-9.70549000E+03	-1.29789000E-07	-9.01361000E-09	-3.54493000E+03	 8.87947667E+03	-1.13183323E+04	-3.07873000E+03	-1.91394773E+03
					-1.43450000E+02	-1.89796000E+02	-1.08775000E+03	-1.14132000E-07	-1.24503000E-08	-1.31492000E+02	 9.49713826E+02	-1.10571812E+03	-1.89796000E+02	-1.25481883E+02
					-3.52679000E+03	-3.07873000E+03	-9.70549000E+03	-1.29788000E-07	-9.01302000E-09	-3.54493000E+03	 8.87947667E+03	-1.13183323E+04	-3.07873000E+03	-1.91394773E+03
					-1.52406000E+02	-1.67201000E+02	-9.22646000E+02	-9.60162000E-08	-3.45666000E-08	-1.91346000E+02	 8.31824936E+02	-9.67561703E+02	-1.67201000E+02	-1.07490297E+02
					-3.89983000E+03	-2.82335000E+03	-8.37921000E+03	-1.20387000E-07	-5.43945000E-08	-3.79066000E+03	 8.31582390E+03	-1.05423957E+04	-2.82335000E+03	-1.73664429E+03
					-1.52406000E+02	-1.67201000E+02	-9.22646000E+02	-9.60194000E-08	-3.45670000E-08	-1.91346000E+02	 8.31824936E+02	-9.67561703E+02	-1.67201000E+02	-1.07490297E+02
					-3.89983000E+03	-2.82335000E+03	-8.37921000E+03	-1.20386000E-07	-5.43923000E-08	-3.79066000E+03	 8.31582390E+03	-1.05423957E+04	-2.82335000E+03	-1.73664429E+03
					-1.58003000E+02	-1.52977000E+02	-8.08669000E+02	-5.32123000E-08	-7.65129000E-08	-2.29585000E+02	 7.64715351E+02	-8.81520421E+02	-1.52977000E+02	-8.51515790E+01
					-4.23585000E+03	-2.60307000E+03	-7.19808000E+03	-5.97151000E-08	-1.04922000E-07	-3.86075000E+03	 7.80984114E+03	-9.85206986E+03	-2.60307000E+03	-1.58186014E+03
					-1.58003000E+02	-1.52977000E+02	-8.08669000E+02	-5.32120000E-08	-7.65126000E-08	-2.29585000E+02	 7.64715351E+02	-8.81520421E+02	-1.52977000E+02	-8.51515790E+01
					-4.23585000E+03	-2.60307000E+03	-7.19808000E+03	-5.97107000E-08	-1.04922000E-07	-3.86075000E+03	 7.80984114E+03	-9.85206986E+03	-2.60307000E+03	-1.58186014E+03
					-1.26027000E+02	-1.33733000E+02	-7.10949000E+02	-1.78629000E-08	-9.63578000E-08	-2.45609000E+02	 7.20178493E+02	-8.00400578E+02	-1.33733000E+02	-3.65754218E+01
					-4.44901000E+03	-2.37823000E+03	-6.10455000E+03	-3.89426000E-08	-1.02652000E-07	-3.76194000E+03	 7.27418582E+03	-9.12871403E+03	-2.37823000E+03	-1.42484597E+03
					-1.26027000E+02	-1.33733000E+02	-7.10949000E+02	-1.78647000E-08	-9.63569000E-08	-2.45609000E+02	 7.20178493E+02	-8.00400578E+02	-1.33733000E+02	-3.65754218E+01
					-4.44901000E+03	-2.37823000E+03	-6.10455000E+03	-3.89437000E-08	-1.02652000E-07	-3.76194000E+03	 7.27418582E+03	-9.12871403E+03	-2.37823000E+03	-1.42484597E+03
					-6.28347000E+01	-1.08395000E+02	-6.16185000E+02	 4.36950000E-08	-1.11292000E-07	-2.29899000E+02	 6.64546568E+02	-6.99235702E+02	-1.08395000E+02	 2.02160023E+01
					-4.47999000E+03	-2.12736000E+03	-5.07431000E+03	 4.98031000E-08	-1.14477000E-07	-3.50270000E+03	 6.64025761E+03	-8.29243254E+03	-2.12736000E+03	-1.26186746E+03
					-6.28347000E+01	-1.08395000E+02	-6.16185000E+02	 4.37050000E-08	-1.11293000E-07	-2.29899000E+02	 6.64546568E+02	-6.99235702E+02	-1.08395000E+02	 2.02160023E+01
					-4.47999000E+03	-2.12736000E+03	-5.07431000E+03	 4.98002000E-08	-1.14478000E-07	-3.50270000E+03	 6.64025761E+03	-8.29243254E+03	-2.12736000E+03	-1.26186746E+03
					 2.18658000E+01	-7.62953000E+01	-5.11907000E+02	 4.07655000E-08	-7.39294000E-08	-1.91648000E+02	 5.93582468E+02	-5.73589172E+02	-7.62953000E+01	 8.35479719E+01
					-4.31693000E+03	-1.85387000E+03	-4.12429000E+03	 3.72157000E-08	-5.89850000E-08	-3.12182000E+03	 5.90479222E+03	-7.34391557E+03	-1.85387000E+03	-1.09730443E+03
					 2.18658000E+01	-7.62953000E+01	-5.11907000E+02	 4.07572000E-08	-7.39301000E-08	-1.91648000E+02	 5.93582468E+02	-5.73589172E+02	-7.62953000E+01	 8.35479719E+01
					-4.31693000E+03	-1.85387000E+03	-4.12429000E+03	 3.72132000E-08	-5.89821000E-08	-3.12182000E+03	 5.90479222E+03	-7.34391557E+03	-1.85387000E+03	-1.09730443E+03
					 1.04278000E+02	-4.40154000E+01	-4.07143000E+02	 4.45295000E-08	-5.06879000E-08	-1.45075000E+02	 5.20425095E+02	-4.45430145E+02	-4.40154000E+01	 1.42565145E+02
					-3.99989000E+03	-1.57852000E+03	-3.28956000E+03	 3.91582000E-08	-5.26907000E-08	-2.68673000E+03	 5.12866298E+03	-6.35482837E+03	-1.57852000E+03	-9.34621631E+02
					 1.04278000E+02	-4.40154000E+01	-4.07143000E+02	 4.45345000E-08	-5.06923000E-08	-1.45075000E+02	 5.20425095E+02	-4.45430145E+02	-4.40154000E+01	 1.42565145E+02
					-3.99989000E+03	-1.57852000E+03	-3.28956000E+03	 3.91589000E-08	-5.26845000E-08	-2.68673000E+03	 5.12866298E+03	-6.35482837E+03	-1.57852000E+03	-9.34621631E+02
					 1.78990000E+02	-1.56613000E+01	-3.17255000E+02	 4.71075000E-08	-3.33766000E-08	-1.05893000E+02	 4.70312106E+02	-3.38906669E+02	-1.56613000E+01	 2.00641669E+02
					-3.58289000E+03	-1.32054000E+03	-2.59555000E+03	 5.21006000E-08	-2.32624000E-08	-2.25419000E+03	 4.37075243E+03	-5.39683405E+03	-1.32054000E+03	-7.81605945E+02
					 1.78990000E+02	-1.56613000E+01	-3.17255000E+02	 4.71010000E-08	-3.33730000E-08	-1.05893000E+02	 4.70312106E+02	-3.38906669E+02	-1.56613000E+01	 2.00641669E+02
					-3.58289000E+03	-1.32054000E+03	-2.59555000E+03	 5.20931000E-08	-2.32778000E-08	-2.25419000E+03	 4.37075243E+03	-5.39683405E+03	-1.32054000E+03	-7.81605945E+02
					 2.45245000E+02	 6.06854000E+00	-2.55856000E+02	 2.10323000E-08	 1.59493000E-08	-7.69391000E+01	 4.54108911E+02	-2.67403150E+02	 6.06854000E+00	 2.56792150E+02
					-3.08582000E+03	-1.07977000E+03	-2.02744000E+03	 3.58465000E-08	 2.65503000E-08	-1.84519000E+03	 3.63805168E+03	-4.47620500E+03	-1.07977000E+03	-6.37054997E+02
					 2.45245000E+02	 6.06854000E+00	-2.55856000E+02	 2.10352000E-08	 1.59481000E-08	-7.69391000E+01	 4.54108911E+02	-2.67403150E+02	 6.06854000E+00	 2.56792150E+02
					-3.08582000E+03	-1.07977000E+03	-2.02744000E+03	 3.58481000E-08	 2.65464000E-08	-1.84519000E+03	 3.63805168E+03	-4.47620500E+03	-1.07977000E+03	-6.37054997E+02
					 3.00431000E+02	 2.39951000E+01	-2.06966000E+02	 0.00000000E+00	 5.97251000E-08	-5.28541000E+01	 4.49429020E+02	-2.12413183E+02	 2.39951000E+01	 3.05878183E+02
					-2.52613000E+03	-8.51282000E+02	-1.55224000E+03	-6.73571000E-09	 6.44249000E-08	-1.45750000E+03	 2.91468327E+03	-3.57587680E+03	-8.51282000E+02	-5.02493202E+02
					 3.00431000E+02	 2.39951000E+01	-2.06966000E+02	 0.00000000E+00	 5.97173000E-08	-5.28541000E+01	 4.49429020E+02	-2.12413183E+02	 2.39951000E+01	 3.05878183E+02
					-2.52613000E+03	-8.51282000E+02	-1.55224000E+03	-6.75408000E-09	 6.44349000E-08	-1.45750000E+03	 2.91468327E+03	-3.57587680E+03	-8.51282000E+02	-5.02493202E+02
					 3.35394000E+02	 3.88269000E+01	-1.57167000E+02	 7.77661000E-09	 5.07328000E-08	-2.37438000E+01	 4.31488471E+02	-1.58308918E+02	 3.88269000E+01	 3.36535918E+02
					-1.95381000E+03	-6.41164000E+02	-1.15166000E+03	-7.30178000E-09	 5.01427000E-08	-1.10021000E+03	 2.22372015E+03	-2.72377010E+03	-6.41164000E+02	-3.81699902E+02
					 3.35394000E+02	 3.88269000E+01	-1.57167000E+02	 7.76478000E-09	 5.07365000E-08	-2.37438000E+01	 4.31488471E+02	-1.58308918E+02	 3.88269000E+01	 3.36535918E+02
					-1.95381000E+03	-6.41164000E+02	-1.15166000E+03	-7.27611000E-09	 5.01487000E-08	-1.10021000E+03	 2.22372015E+03	-2.72377010E+03	-6.41164000E+02	-3.81699902E+02
					 3.50434000E+02	 4.99822000E+01	-1.08964000E+02	 2.30484000E-08	 1.57223000E-08	 8.09052000E+00	 4.04335529E+02	-1.09106439E+02	 4.99822000E+01	 3.50576439E+02
					-1.43202000E+03	-4.63012000E+02	-8.31722000E+02	 1.90109000E-08	 1.67234000E-08	-7.93420000E+02	 1.61436877E+03	-1.98016618E+03	-4.63012000E+02	-2.83575816E+02
					 3.50434000E+02	 4.99822000E+01	-1.08964000E+02	 2.30490000E-08	 1.57113000E-08	 8.09052000E+00	 4.04335529E+02	-1.09106439E+02	 4.99822000E+01	 3.50576439E+02
					-1.43202000E+03	-4.63012000E+02	-8.31722000E+02	 1.89543000E-08	 1.67098000E-08	-7.93420000E+02	 1.61436877E+03	-1.98016618E+03	-4.63012000E+02	-2.83575816E+02
					 3.47920000E+02	 5.55600000E+01	-7.37409000E+01	 2.32905000E-08	 3.19670000E-09	 3.06703000E+01	 3.77912034E+02	-7.59600826E+01	 5.55600000E+01	 3.50139183E+02
					-9.86960000E+02	-3.19437000E+02	-5.86424000E+02	 3.49071000E-08	 6.54589000E-09	-5.50161000E+02	 1.11654844E+03	-1.37216992E+03	-3.19437000E+02	-2.01214077E+02
					 3.47920000E+02	 5.55600000E+01	-7.37409000E+01	 2.32910000E-08	 3.19344000E-09	 3.06703000E+01	 3.77912034E+02	-7.59600826E+01	 5.55600000E+01	 3.50139183E+02
					-9.86960000E+02	-3.19437000E+02	-5.86424000E+02	 3.49268000E-08	 6.55178000E-09	-5.50161000E+02	 1.11654844E+03	-1.37216992E+03	-3.19437000E+02	-2.01214077E+02
					 3.25081000E+02	 5.43774000E+01	-5.41294000E+01	 2.19257000E-08	 8.40263000E-09	 3.52007000E+01	 3.43721710E+02	-5.73692703E+01	 5.43774000E+01	 3.28320870E+02
					-6.11720000E+02	-2.03835000E+02	-3.97908000E+02	 2.00057000E-08	 1.84664000E-08	-3.61322000E+02	 7.18704251E+02	-8.81619627E+02	-2.03835000E+02	-1.28008373E+02
					 3.25081000E+02	 5.43774000E+01	-5.41294000E+01	 2.19345000E-08	 8.39686000E-09	 3.52007000E+01	 3.43721710E+02	-5.73692703E+01	 5.43774000E+01	 3.28320870E+02
					-6.11720000E+02	-2.03835000E+02	-3.97908000E+02	 1.99864000E-08	 1.84797000E-08	-3.61322000E+02	 7.18704251E+02	-8.81619627E+02	-2.03835000E+02	-1.28008373E+02
					 2.74757000E+02	 4.67276000E+01	-4.09701000E+01	 6.18895000E-08	 2.92950000E-09	 2.55638000E+01	 2.85738467E+02	-4.30265559E+01	 4.67276000E+01	 2.76813456E+02
					-2.97275000E+02	-1.07899000E+02	-2.39497000E+02	 2.86756000E-08	-2.02930000E-09	-2.09214000E+02	 3.99463757E+02	-4.79585129E+02	-1.07899000E+02	-5.71868709E+01
					 2.74757000E+02	 4.67276000E+01	-4.09701000E+01	 6.18719000E-08	 2.93347000E-09	 2.55638000E+01	 2.85738467E+02	-4.30265559E+01	 4.67276000E+01	 2.76813456E+02
					-2.97275000E+02	-1.07899000E+02	-2.39497000E+02	 2.86752000E-08	-2.03350000E-09	-2.09214000E+02	 3.99463757E+02	-4.79585129E+02	-1.07899000E+02	-5.71868709E+01
					 1.88188000E+02	 3.41147000E+01	-1.73902000E+01	 1.06813000E-07	-2.13311000E-08	 2.16277000E+01	 1.89024175E+02	-1.96408853E+01	 3.41147000E+01	 1.90438685E+02
					-8.92038000E+01	-4.07871000E+01	-1.14426000E+02	 6.17753000E-08	-4.07687000E-08	-8.70545000E+01	 1.64124860E+02	-1.89778107E+02	-4.07871000E+01	-1.38516928E+01
					 1.88188000E+02	 3.41147000E+01	-1.73902000E+01	 1.06816000E-07	-2.13415000E-08	 2.16277000E+01	 1.89024175E+02	-1.96408853E+01	 3.41147000E+01	 1.90438685E+02
					-8.92038000E+01	-4.07871000E+01	-1.14426000E+02	 6.17328000E-08	-4.07445000E-08	-8.70545000E+01	 1.64124860E+02	-1.89778107E+02	-4.07871000E+01	-1.38516928E+01
					 1.36818000E+02	 3.16562000E+01	 2.16895000E+01	 1.38832000E-07	-5.40841000E-08	 2.28057000E+01	 1.17331817E+02	 1.73365244E+01	 3.16562000E+01	 1.41170976E+02
					-2.74013000E+01	-1.13349000E+01	-2.93373000E+01	 9.16573000E-08	-8.13226000E-08	-3.10655000E+01	 5.64639507E+01	-5.94498778E+01	-1.13349000E+01	 2.71127777E+00
					 1.36818000E+02	 3.16562000E+01	 2.16895000E+01	 1.38799000E-07	-5.40885000E-08	 2.28057000E+01	 1.17331817E+02	 1.73365244E+01	 3.16562000E+01	 1.41170976E+02
					-2.74013000E+01	-1.13349000E+01	-2.93373000E+01	 9.16669000E-08	-8.13334000E-08	-3.10655000E+01	 5.64639507E+01	-5.94498778E+01	-1.13349000E+01	 2.71127777E+00
					 4.30946000E+03	 3.63812000E+03	 1.71174000E+04	 0.00000000E+00	-1.00524000E-09	 5.71200000E+03	 1.64612678E+04	 2.13218442E+03	 3.63812000E+03	 1.92946756E+04
					 1.62930000E+03	 2.97048000E+03	 1.58460000E+04	-5.81475000E-08	-2.29188000E-08	 2.42610000E+03	 1.42303919E+04	 1.22668462E+03	 2.97048000E+03	 1.62486154E+04
					 4.30946000E+03	 3.63812000E+03	 1.71174000E+04	 0.00000000E+00	-1.00524000E-09	 5.71200000E+03	 1.64612678E+04	 2.13218442E+03	 3.63812000E+03	 1.92946756E+04