<?xml version="1.0"?>
<VTKFile type="UnstructuredGrid" version="0.1" byte_order="LittleEndian">
	<UnstructuredGrid>
		<Piece NumberOfPoints="126" NumberOfCells="40">
			<Points>
				<DataArray type="Float64" NumberOfComponents="3" format="ascii">
					 5.00000000E-02	 0.00000000E+00	 0.00000000E+00
					 0.00000000E+00	 0.00000000E+00	 0.00000000E+00
					 0.00000000E+00	 0.00000000E+00	 5.00000000E-02
					 5.00000000E-02	 0.00000000E+00	 5.00000000E-02
					 5.00000000E-02	 3.00000000E-01	 0.00000000E+00
					 0.00000000E+00	 3.00000000E-01	 0.00000000E+00
					 0.00000000E+00	 3.00000000E-01	 5.00000000E-02
					 5.00000000E-02	 3.00000000E-01	 5.00000000E-02
					 0.00000000E+00	 0.00000000E+00	 1.00000000E-01
					 5.00000000E-02	 0.00000000E+00	 1.00000000E-01
					 0.00000000E+00	 3.00000000E-01	 1.00000000E-01
					 5.00000000E-02	 3.00000000E-01	 1.00000000E-01
					 0.00000000E+00	 0.00000000E+00	 1.50000000E-01
					 5.00000000E-02	 0.00000000E+00	 1.50000000E-01
					 0.00000000E+00	 3.00000000E-01	 1.50000000E-01
					 5.00000000E-02	 3.00000000E-01	 1.50000000E-01
					 0.00000000E+00	 0.00000000E+00	 2.00000000E-01
					 5.00000000E-02	 0.00000000E+00	 2.00000000E-01
					 0.00000000E+00	 3.00000000E-01	 2.00000000E-01
					 5.00000000E-02	 3.00000000E-01	 2.00000000E-01
					 0.00000000E+00	 0.00000000E+00	 2.50000000E-01
					 5.00000000E-02	 0.00000000E+00	 2.50000000E-01
					 0.00000000E+00	 3.00000000E-01	 2.50000000E-01
					 5.00000000E-02	 3.00000000E-01	 2.50000000E-01
					 0.00000000E+00	 0.00000000E+00	 3.00000000E-01
					 5.00000000E-02	 0.00000000E+00	 3.00000000E-01
					 0.00000000E+00	 3.00000000E-01	 3.00000000E-01
					 5.00000000E-02	 3.00000000E-01	 3.00000000E-01
					 0.00000000E+00	 0.00000000E+00	 3.50000000E-01
					 5.00000000E-02	 0.00000000E+00	 3.50000000E-01
					 0.00000000E+00	 3.00000000E-01	 3.50000000E-01
					 5.00000000E-02	 3.00000000E-01	 3.50000000E-01
					 0.00000000E+00	 0.00000000E+00	 4.00000000E-01
					 5.00000000E-02	 0.00000000E+00	 4.00000000E-01
					 0.00000000E+00	 3.00000000E-01	 4.00000000E-01
					 5.00000000E-02	 3.00000000E-01	 4.00000000E-01
					 0.00000000E+00	 0.00000000E+00	 4.50000000E-01
					 5.00000000E-02	 0.00000000E+00	 4.50000000E-01
					 0.00000000E+00	 3.00000000E-01	 4.50000000E-01
					 5.00000000E-02	 3.00000000E-01	 4.50000000E-01
					 0.00000000E+00	 0.00000000E+00	 5.00000000E-01
					 5.00000000E-02	 0.00000000E+00	 5.00000000E-01
					 0.00000000E+00	 3.00000000E-01	 5.00000000E-01
					 5.00000000E-02	 3.00000000E-01	 5.00000000E-01
					 0.00000000E+00	 0.00000000E+00	 5.50000000E-01
					 5.00000000E-02	 0.00000000E+00	 5.50000000E-01
					 0.00000000E+00	 3.00000000E-01	 5.50000000E-01
					 5.00000000E-02	 3.00000000E-01	 5.50000000E-01
					 0.00000000E+00	 0.00000000E+00	 6.00000000E-01
					 5.00000000E-02	 0.00000000E+00	 6.00000000E-01
					 0.00000000E+00	 3.00000000E-01	 6.00000000E-01
					 5.00000000E-02	 3.00000000E-01	 6.00000000E-01
					 0.00000000E+00	 0.00000000E+00	 6.50000000E-01
					 5.00000000E-02	 0.00000000E+00	 6.50000000E-01
					 0.00000000E+00	 3.00000000E-01	 6.50000000E-01
					 5.00000000E-02	 3.00000000E-01	 6.50000000E-01
					 0.00000000E+00	 0.00000000E+00	 7.00000000E-01
					 5.00000000E-02	 0.00000000E+00	 7.00000000E-01
					 0.00000000E+00	 3.00000000E-01	 7.00000000E-01
					 5.00000000E-02	 3.00000000E-01	 7.00000000E-01
					 0.00000000E+00	 0.00000000E+00	 7.50000000E-01
					 5.00000000E-02	 0.00000000E+00	 7.50000000E-01
					 0.00000000E+00	 3.00000000E-01	 7.50000000E-01
					 5.00000000E-02	 3.00000000E-01	 7.50000000E-01
					 0.00000000E+00	 0.00000000E+00	 8.00000000E-01
					 5.00000000E-02	 0.00000000E+00	 8.00000000E-01
					 0.00000000E+00	 3.00000000E-01	 8.00000000E-01
					 5.00000000E-02	 3.00000000E-01	 8.00000000E-01
					 0.00000000E+00	 0.00000000E+00	 8.50000000E-01
					 5.00000000E-02	 0.00000000E+00	 8.50000000E-01
					 0.00000000E+00	 3.00000000E-01	 8.50000000E-01
					 5.00000000E-02	 3.00000000E-01	 8.50000000E-01
					 0.00000000E+00	 0.00000000E+00	 9.00000000E-01
					 5.00000000E-02	 0.00000000E+00	 9.00000000E-01
					 0.00000000E+00	 3.00000000E-01	 9.00000000E-01
					 5.00000000E-02	 3.00000000E-01	 9.00000000E-01
					 0.00000000E+00	 0.00000000E+00	 9.50000000E-01
					 5.00000000E-02	 0.00000000E+00	 9.50000000E-01
					 0.00000000E+00	 3.00000000E-01	 9.50000000E-01
					 5.00000000E-02	 3.00000000E-01	 9.50000000E-01
					 0.00000000E+00	 0.00000000E+00	 1.00000000E+00
					 5.00000000E-02	 0.00000000E+00	 1.00000000E+00
					 0.00000000E+00	 3.00000000E-01	 1.00000000E+00
					 5.00000000E-02	 3.00000000E-01	 1.00000000E+00
					-5.00000000E-02	 0.00000000E+00	 0.00000000E+00
					-5.00000000E-02	 0.00000000E+00	 5.00000000E-02
					-5.00000000E-02	 3.00000000E-01	 0.00000000E+00
					-5.00000000E-02	 3.00000000E-01	 5.00000000E-02
					-5.00000000E-02	 0.00000000E+00	 1.00000000E-01
					-5.00000000E-02	 3.00000000E-01	 1.00000000E-01
					-5.00000000E-02	 0.00000000E+00	 1.50000000E-01
					-5.00000000E-02	 3.00000000E-01	 1.50000000E-01
					-5.00000000E-02	 0.00000000E+00	 2.00000000E-01
					-5.00000000E-02	 3.00000000E-01	 2.00000000E-01
					-5.00000000E-02	 0.00000000E+00	 2.50000000E-01
					-5.00000000E-02	 3.00000000E-01	 2.50000000E-01
					-5.00000000E-02	 0.00000000E+00	 3.00000000E-01
					-5.00000000E-02	 3.00000000E-01	 3.00000000E-01
					-5.00000000E-02	 0.00000000E+00	 3.50000000E-01
					-5.00000000E-02	 3.00000000E-01	 3.50000000E-01
					-5.00000000E-02	 0.00000000E+00	 4.00000000E-01
					-5.00000000E-02	 3.00000000E-01	 4.00000000E-01
					-5.00000000E-02	 0.00000000E+00	 4.50000000E-01
					-5.00000000E-02	 3.00000000E-01	 4.50000000E-01
					-5.00000000E-02	 0.00000000E+00	 5.00000000E-01
					-5.00000000E-02	 3.00000000E-01	 5.00000000E-01
					-5.00000000E-02	 0.00000000E+00	 5.50000000E-01
					-5.00000000E-02	 3.00000000E-01	 5.50000000E-01
					-5.00000000E-02	 0.00000000E+00	 6.00000000E-01
					-5.00000000E-02	 3.00000000E-01	 6.00000000E-01
					-5.00000000E-02	 0.00000000E+00	 6.50000000E-01
					-5.00000000E-02	 3.00000000E-01	 6.50000000E-01
					-5.00000000E-02	 0.00000000E+00	 7.00000000E-01
					-5.00000000E-02	 3.00000000E-01	 7.00000000E-01
					-5.00000000E-02	 0.00000000E+00	 7.50000000E-01
					-5.00000000E-02	 3.00000000E-01	 7.50000000E-01
					-5.00000000E-02	 0.00000000E+00	 8.00000000E-01
					-5.00000000E-02	 3.00000000E-01	 8.00000000E-01
					-5.00000000E-02	 0.00000000E+00	 8.50000000E-01
					-5.00000000E-02	 3.00000000E-01	 8.50000000E-01
					-5.00000000E-02	 0.00000000E+00	 9.00000000E-01
					-5.00000000E-02	 3.00000000E-01	 9.00000000E-01
					-5.00000000E-02	 0.00000000E+00	 9.50000000E-01
					-5.00000000E-02	 3.00000000E-01	 9.50000000E-01
					-5.00000000E-02	 0.00000000E+00	 1.00000000E+00
					-5.00000000E-02	 3.00000000E-01	 1.00000000E+00

				</DataArray>
			</Points>
			<Cells>
				<DataArray type="Int32" Name="connectivity" format="ascii">
					0 1 2 3 4 5 6 7 3 2 8 9 7 6 10 11 9 8 12 13 11 10 14 15 13 12 16 17 15 14 18 19 17 16 20 21 19 18 22 23 21 20 24 25 23 22 26 27 25 24 28 29 27 26 30 31 29 28 32 33 31 30 34 35 33 32 36 37 35 34 38 39 37 36 40 41 39 38 42 43 41 40 44 45 43 42 46 47 45 44 48 49 47 46 50 51 49 48 52 53 51 50 54 55 53 52 56 57 55 54 58 59 57 56 60 61 59 58 62 63 61 60 64 65 63 62 66 67 65 64 68 69 67 66 70 71 69 68 72 73 71 70 74 75 73 72 76 77 75 74 78 79 77 76 80 81 79 78 82 83 1 84 85 2 5 86 87 6 2 85 88 8 6 87 89 10 8 88 90 12 10 89 91 14 12 90 92 16 14 91 93 18 16 92 94 20 18 93 95 22 20 94 96 24 22 95 97 26 24 96 98 28 26 97 99 30 28 98 100 32 30 99 101 34 32 100 102 36 34 101 103 38 36 102 104 40 38 103 105 42 40 104 106 44 42 105 107 46 44 106 108 48 46 107 109 50 48 108 110 52 50 109 111 54 52 110 112 56 54 111 113 58 56 112 114 60 58 113 115 62 60 114 116 64 62 115 117 66 64 116 118 68 66 117 119 70 68 118 120 72 70 119 121 74 72 120 122 76 74 121 123 78 76 122 124 80 78 123 125 82 
				</DataArray>
				<DataArray type="Int32" Name="offsets" format="ascii">
					8 16 24 32 40 48 56 64 72 80 88 96 104 112 120 128 136 144 152 160 168 176 184 192 200 208 216 224 232 240 248 256 264 272 280 288 296 304 312 320 
				</DataArray>
				<DataArray type="UInt8" Name="types" format="ascii">
					12 12 12 12 12 12 12 12 12 12 12 12 12 12 12 12 12 12 12 12 12 12 12 12 12 12 12 12 12 12 12 12 12 12 12 12 12 12 12 12 
				</DataArray>
			</Cells>
			<PointData>
				<DataArray type="Float32" Name="U" NumberOfComponents="3" ComponentName0="D1" ComponentName1="D2" ComponentName2="D3" format="ascii">
					 0.00000000E+00	 0.00000000E+00	 0.00000000E+00
					 0.00000000E+00	 0.00000000E+00	 0.00000000E+00
					 4.40635000E-04	 0.00000000E+00	-2.83155000E-06
					 5.03156000E-04	 0.00000000E+00	-3.08756000E-04
					 0.00000000E+00	 0.00000000E+00	 0.00000000E+00
					 0.00000000E+00	 0.00000000E+00	 0.00000000E+00
					 4.40635000E-04	 0.00000000E+00	-2.83155000E-06
					 5.03156000E-04	 0.00000000E+00	-3.08756000E-04
					 9.87606000E-04	 0.00000000E+00	-2.54861000E-06
					 9.99911000E-04	 0.00000000E+00	-3.49857000E-04
					 9.87606000E-04	 0.00000000E+00	-2.54861000E-06
					 9.99911000E-04	 0.00000000E+00	-3.49857000E-04
					 1.37303000E-03	 0.00000000E+00	 1.89180000E-06
					 1.37549000E-03	 0.00000000E+00	-2.43083000E-04
					 1.37303000E-03	 0.00000000E+00	 1.89180000E-06
					 1.37549000E-03	 0.00000000E+00	-2.43083000E-04
					 1.53797000E-03	 0.00000000E+00	 3.30158000E-06
					 1.54610000E-03	 0.00000000E+00	-1.07548000E-04
					 1.53797000E-03	 0.00000000E+00	 3.30158000E-06
					 1.54610000E-03	 0.00000000E+00	-1.07548000E-04
					 1.54239000E-03	 0.00000000E+00	 4.27564000E-06
					 1.55725000E-03	 0.00000000E+00	-2.30941000E-05
					 1.54239000E-03	 0.00000000E+00	 4.27564000E-06
					 1.55725000E-03	 0.00000000E+00	-2.30941000E-05
					 1.51537000E-03	 0.00000000E+00	 7.78856000E-06
					 1.54295000E-03	 0.00000000E+00	-1.76154000E-06
					 1.51537000E-03	 0.00000000E+00	 7.78856000E-06
					 1.54295000E-03	 0.00000000E+00	-1.76154000E-06
					 1.52121000E-03	 0.00000000E+00	 1.27267000E-05
					 1.54478000E-03	 0.00000000E+00	-6.84166000E-06
					 1.52121000E-03	 0.00000000E+00	 1.27267000E-05
					 1.54478000E-03	 0.00000000E+00	-6.84166000E-06
					 1.54735000E-03	 0.00000000E+00	 1.90696000E-05
					 1.57289000E-03	 0.00000000E+00	-1.18189000E-05
					 1.54735000E-03	 0.00000000E+00	 1.90696000E-05
					 1.57289000E-03	 0.00000000E+00	-1.18189000E-05
					 1.58365000E-03	 0.00000000E+00	 2.89555000E-05
					 1.60709000E-03	 0.00000000E+00	-9.92976000E-06
					 1.58365000E-03	 0.00000000E+00	 2.89555000E-05
					 1.60709000E-03	 0.00000000E+00	-9.92976000E-06
					 1.62354000E-03	 0.00000000E+00	 4.68748000E-05
					 1.65361000E-03	 0.00000000E+00	 1.81390000E-06
					 1.62354000E-03	 0.00000000E+00	 4.68748000E-05
					 1.65361000E-03	 0.00000000E+00	 1.81390000E-06
					 1.67139000E-03	 0.00000000E+00	 8.27153000E-05
					 1.69121000E-03	 0.00000000E+00	 2.98637000E-05
					 1.67139000E-03	 0.00000000E+00	 8.27153000E-05
					 1.69121000E-03	 0.00000000E+00	 2.98637000E-05
					 1.72897000E-03	 0.00000000E+00	 1.54452000E-04
					 1.74209000E-03	 0.00000000E+00	 8.83600000E-05
					 1.72897000E-03	 0.00000000E+00	 1.54452000E-04
					 1.74209000E-03	 0.00000000E+00	 8.83600000E-05
					 1.81010000E-03	 0.00000000E+00	 2.83391000E-04
					 1.80619000E-03	 0.00000000E+00	 1.98585000E-04
					 1.81010000E-03	 0.00000000E+00	 2.83391000E-04
					 1.80619000E-03	 0.00000000E+00	 1.98585000E-04
					 1.91913000E-03	 0.00000000E+00	 4.74369000E-04
					 1.90931000E-03	 0.00000000E+00	 3.71026000E-04
					 1.91913000E-03	 0.00000000E+00	 4.74369000E-04
					 1.90931000E-03	 0.00000000E+00	 3.71026000E-04
					 2.04670000E-03	 0.00000000E+00	 6.86793000E-04
					 2.02924000E-03	 0.00000000E+00	 5.72192000E-04
					 2.04670000E-03	 0.00000000E+00	 6.86793000E-04
					 2.02924000E-03	 0.00000000E+00	 5.72192000E-04
					 2.15161000E-03	 0.00000000E+00	 8.42547000E-04
					 2.16922000E-03	 0.00000000E+00	 7.36115000E-04
					 2.15161000E-03	 0.00000000E+00	 8.42547000E-04
					 2.16922000E-03	 0.00000000E+00	 7.36115000E-04
					 2.23373000E-03	 0.00000000E+00	 9.41827000E-04
					 2.26746000E-03	 0.00000000E+00	 8.68891000E-04
					 2.23373000E-03	 0.00000000E+00	 9.41827000E-04
					 2.26746000E-03	 0.00000000E+00	 8.68891000E-04
					 2.28551000E-03	 0.00000000E+00	 1.06175000E-03
					 2.30026000E-03	 0.00000000E+00	 1.01401000E-03
					 2.28551000E-03	 0.00000000E+00	 1.06175000E-03
					 2.30026000E-03	 0.00000000E+00	 1.01401000E-03
					 2.30768000E-03	 0.00000000E+00	 1.14640000E-03
					 2.33004000E-03	 0.00000000E+00	 1.10641000E-03
					 2.30768000E-03	 0.00000000E+00	 1.14640000E-03
					 2.33004000E-03	 0.00000000E+00	 1.10641000E-03
					 2.37057000E-03	 0.00000000E+00	 1.26693000E-03
					 2.38147000E-03	 0.00000000E+00	 1.13897000E-03
					 2.37057000E-03	 0.00000000E+00	 1.26693000E-03
					 2.38147000E-03	 0.00000000E+00	 1.13897000E-03
					 0.00000000E+00	 0.00000000E+00	 0.00000000E+00
					 5.06310000E-04	 0.00000000E+00	 3.03823000E-04
					 0.00000000E+00	 0.00000000E+00	 0.00000000E+00
					 5.06310000E-04	 0.00000000E+00	 3.03823000E-04
					 1.01143000E-03	 0.00000000E+00	 3.49569000E-04
					 1.01143000E-03	 0.00000000E+00	 3.49569000E-04
					 1.38450000E-03	 0.00000000E+00	 2.45858000E-04
					 1.38450000E-03	 0.00000000E+00	 2.45858000E-04
					 1.55001000E-03	 0.00000000E+00	 1.12582000E-04
					 1.55001000E-03	 0.00000000E+00	 1.12582000E-04
					 1.56173000E-03	 0.00000000E+00	 3.10802000E-05
					 1.56173000E-03	 0.00000000E+00	 3.10802000E-05
					 1.54736000E-03	 0.00000000E+00	 1.62127000E-05
					 1.54736000E-03	 0.00000000E+00	 1.62127000E-05
					 1.54784000E-03	 0.00000000E+00	 3.09996000E-05
					 1.54784000E-03	 0.00000000E+00	 3.09996000E-05
					 1.57556000E-03	 0.00000000E+00	 4.83178000E-05
					 1.57556000E-03	 0.00000000E+00	 4.83178000E-05
					 1.61003000E-03	 0.00000000E+00	 6.62803000E-05
					 1.61003000E-03	 0.00000000E+00	 6.62803000E-05
					 1.65789000E-03	 0.00000000E+00	 9.26735000E-05
					 1.65789000E-03	 0.00000000E+00	 9.26735000E-05
					 1.70510000E-03	 0.00000000E+00	 1.40470000E-04
					 1.70510000E-03	 0.00000000E+00	 1.40470000E-04
					 1.77601000E-03	 0.00000000E+00	 2.30013000E-04
					 1.77601000E-03	 0.00000000E+00	 2.30013000E-04
					 1.87108000E-03	 0.00000000E+00	 3.79922000E-04
					 1.87108000E-03	 0.00000000E+00	 3.79922000E-04
					 1.99930000E-03	 0.00000000E+00	 5.81188000E-04
					 1.99930000E-03	 0.00000000E+00	 5.81188000E-04
					 2.11661000E-03	 0.00000000E+00	 7.74596000E-04
					 2.11661000E-03	 0.00000000E+00	 7.74596000E-04
					 2.19020000E-03	 0.00000000E+00	 9.03931000E-04
					 2.19020000E-03	 0.00000000E+00	 9.03931000E-04
					 2.25474000E-03	 0.00000000E+00	 1.00630000E-03
					 2.25474000E-03	 0.00000000E+00	 1.00630000E-03
					 2.33956000E-03	 0.00000000E+00	 1.12739000E-03
					 2.33956000E-03	 0.00000000E+00	 1.12739000E-03
					 2.35294000E-03	 0.00000000E+00	 1.21417000E-03
					 2.35294000E-03	 0.00000000E+00	 1.21417000E-03
					 2.38410000E-03	 0.00000000E+00	 1.27704000E-03
					 2.38410000E-03	 0.00000000E+00	 1.27704000E-03
				</DataArray>
				<DataArray type="Float32" Name="S" NumberOfComponents="10" ComponentName0="xx" ComponentName1="yy" ComponentName2="zz" ComponentName3="xy" ComponentName4="yz" ComponentName5="zx" ComponentName6="Mises" ComponentName7="Min Principal" ComponentName8="Mid Principal" ComponentName9="Max Principal" format="ascii">
					-1.95065000E+02	-2.04773000E+02	-8.10985000E+02	 0.00000000E+00	 0.00000000E+00	 4.95282000E+02	 1.05327353E+03	-1.08624333E+03	-2.04773000E+02	 8.01933306E+01
					 6.77354000E+00	-5.93254000E-01	-4.36700000E+00	 0.00000000E+00	 0.00000000E+00	 4.40584000E+02	 7.63176974E+02	-4.39415941E+02	-5.93254000E-01	 4.41822481E+02
					 3.01204000E+00	 3.41785000E-01	-5.91217000E-01	 2.07021000E-08	 9.66276000E-09	 1.87503000E+02	 3.24780876E+02	-1.86301244E+02	 3.41785000E-01	 1.88722067E+02
					 5.83670000E+01	-7.26956000E+01	-4.16627000E+02	 1.33869000E-08	-2.34798000E-08	 1.91328000E+02	 5.38852454E+02	-4.84107423E+02	-7.26956000E+01	 1.25847423E+02
					-1.95065000E+02	-2.04773000E+02	-8.10986000E+02	 0.00000000E+00	 0.00000000E+00	 4.95282000E+02	 1.05327411E+03	-1.08624409E+03	-2.04773000E+02	 8.01930946E+01
					 6.77354000E+00	-5.93254000E-01	-4.36700000E+00	 0.00000000E+00	 0.00000000E+00	 4.40584000E+02	 7.63176974E+02	-4.39415941E+02	-5.93254000E-01	 4.41822481E+02
					 3.01204000E+00	 3.41785000E-01	-5.91217000E-01	 2.07021000E-08	 9.66277000E-09	 1.87503000E+02	 3.24780876E+02	-1.86301244E+02	 3.41785000E-01	 1.88722067E+02
					 5.83670000E+01	-7.26956000E+01	-4.16627000E+02	 1.33869000E-08	-2.34798000E-08	 1.91328000E+02	 5.38852454E+02	-4.84107423E+02	-7.26956000E+01	 1.25847423E+02
					-6.60906000E+00	 4.19420000E-02	 7.47412000E+00	 6.69052000E-08	-8.81016000E-09	 1.16533000E+02	 2.02209606E+02	-1.16313023E+02	 4.19420000E-02	 1.17178083E+02
					 6.08119000E+01	 3.21320000E+01	 1.00879000E+02	 9.93789000E-08	-1.28920000E-08	 8.89513000E+01	 1.65269570E+02	-1.03339166E+01	 3.21320000E+01	 1.72024817E+02
					-6.60906000E+00	 4.19420000E-02	 7.47412000E+00	 6.69052000E-08	-8.81016000E-09	 1.16533000E+02	 2.02209606E+02	-1.16313023E+02	 4.19420000E-02	 1.17178083E+02
					 6.08119000E+01	 3.21320000E+01	 1.00879000E+02	 9.93789000E-08	-1.28920000E-08	 8.89513000E+01	 1.65269570E+02	-1.03339166E+01	 3.21320000E+01	 1.72024817E+02
					-7.10076000E+00	-6.84054000E-02	 6.93232000E+00	 7.62699000E-08	-1.58208000E-08	 3.07541000E+01	 5.46364325E+01	-3.16285777E+01	-6.84054000E-02	 3.14601377E+01
					 9.00668000E+01	 8.32656000E+01	 3.27990000E+02	 6.01587000E-08	 2.15463000E-08	 2.88128000E+01	 2.46500306E+02	 8.32656000E+01	 8.66272574E+01	 3.31429543E+02
					-7.10076000E+00	-6.84054000E-02	 6.93232000E+00	 7.62699000E-08	-1.58208000E-08	 3.07541000E+01	 5.46364325E+01	-3.16285777E+01	-6.84054000E-02	 3.14601377E+01
					 9.00668000E+01	 8.32656000E+01	 3.27990000E+02	 6.01587000E-08	 2.15463000E-08	 2.88128000E+01	 2.46500306E+02	 8.32656000E+01	 8.66272574E+01	 3.31429543E+02
					-3.87017000E+00	-3.38671000E-01	 2.16577000E+00	 3.02872000E-08	 0.00000000E+00	-2.53762000E+01	 4.42655930E+01	-2.64072322E+01	-3.38671000E-01	 2.47028322E+01
					 9.54555000E+01	 7.88170000E+01	 3.00013000E+02	 3.08808000E-08	 3.43545000E-08	-1.97661000E+01	 2.16093120E+02	 7.88170000E+01	 9.35630380E+01	 3.01905462E+02
					-3.87017000E+00	-3.38671000E-01	 2.16577000E+00	 3.02872000E-08	 0.00000000E+00	-2.53762000E+01	 4.42655930E+01	-2.64072322E+01	-3.38671000E-01	 2.47028322E+01
					 9.54555000E+01	 7.88170000E+01	 3.00013000E+02	 3.08809000E-08	 3.43545000E-08	-1.97661000E+01	 2.16093120E+02	 7.88170000E+01	 9.35630380E+01	 3.01905462E+02
					-4.41660000E+00	 8.29588000E-03	 4.46833000E+00	-2.71419000E-08	-1.42290000E-09	-3.83845000E+01	 6.69276947E+01	-3.86148562E+01	 8.29588000E-03	 3.86665862E+01
					 7.48615000E+01	 4.51258000E+01	 1.51186000E+02	-4.05935000E-08	 2.69519000E-08	-2.90021000E+01	 1.07250030E+02	 4.51258000E+01	 6.50917239E+01	 1.60955776E+02
					-4.41660000E+00	 8.29586000E-03	 4.46833000E+00	-2.71420000E-08	-1.42290000E-09	-3.83845000E+01	 6.69276947E+01	-3.86148562E+01	 8.29586000E-03	 3.86665862E+01
					 7.48615000E+01	 4.51258000E+01	 1.51186000E+02	-4.05935000E-08	 2.69519000E-08	-2.90021000E+01	 1.07250030E+02	 4.51258000E+01	 6.50917239E+01	 1.60955776E+02
					-2.96926000E+00	 1.34444000E+00	 9.80676000E+00	-2.88875000E-08	 5.75663000E-09	-1.95808000E+01	 3.57343807E+01	-1.71777157E+01	 1.34444000E+00	 2.40152157E+01
					 7.90202000E+01	 2.37923000E+01	 4.00655000E+01	-2.67794000E-08	 1.11425000E-09	-1.58172000E+01	 5.62739261E+01	 2.37923000E+01	 3.44519955E+01	 8.46337045E+01
					-2.96926000E+00	 1.34444000E+00	 9.80676000E+00	-2.88875000E-08	 5.75663000E-09	-1.95808000E+01	 3.57343807E+01	-1.71777157E+01	 1.34444000E+00	 2.40152157E+01
					 7.90202000E+01	 2.37923000E+01	 4.00655000E+01	-2.67794000E-08	 1.11425000E-09	-1.58172000E+01	 5.62739261E+01	 2.37923000E+01	 3.44519955E+01	 8.46337045E+01
					-2.54767000E-01	 2.74096000E+00	 1.40315000E+01	 1.34302000E-08	 4.51807000E-09	-2.93169000E+00	 1.40020880E+01	-8.32978101E-01	 2.74096000E+00	 1.46097111E+01
					 5.95774000E+01	 1.23681000E+01	 2.32366000E+00	 1.87105000E-09	-1.54552000E-08	-4.61051000E+00	 5.35496981E+01	 1.95476327E+00	 1.23681000E+01	 5.99462967E+01
					-2.54767000E-01	 2.74096000E+00	 1.40315000E+01	 1.34303000E-08	 4.51807000E-09	-2.93169000E+00	 1.40020880E+01	-8.32978101E-01	 2.74096000E+00	 1.46097111E+01
					 5.95774000E+01	 1.23681000E+01	 2.32366000E+00	 1.87102000E-09	-1.54552000E-08	-4.61051000E+00	 5.35496981E+01	 1.95476327E+00	 1.23681000E+01	 5.99462967E+01
					 1.94168000E+00	 4.52746000E+00	 2.07784000E+01	 4.86709000E-08	 2.18300000E-09	 1.15619000E+00	 1.77991851E+01	 1.87097891E+00	 4.52746000E+00	 2.08491011E+01
					 6.71841000E+01	 1.60119000E+01	 1.29426000E+01	-1.90412000E-09	-1.11976000E-08	 2.47423000E-01	 5.27755734E+01	 1.29414714E+01	 1.60119000E+01	 6.71852286E+01
					 1.94168000E+00	 4.52746000E+00	 2.07784000E+01	 4.86709000E-08	 2.18300000E-09	 1.15619000E+00	 1.77991851E+01	 1.87097891E+00	 4.52746000E+00	 2.08491011E+01
					 6.71841000E+01	 1.60119000E+01	 1.29426000E+01	-1.90424000E-09	-1.11976000E-08	 2.47423000E-01	 5.27755734E+01	 1.29414714E+01	 1.60119000E+01	 6.71852286E+01
					 5.43375000E+00	 8.29958000E+00	 3.61498000E+01	 6.48202000E-08	 1.64955000E-08	 4.03346000E-03	 2.93881231E+01	 5.43374947E+00	 8.29958000E+00	 3.61498005E+01
					 6.71413000E+01	 2.01832000E+01	 3.38491000E+01	 3.73072000E-08	 1.83156000E-09	 1.46558000E+00	 4.19110851E+01	 2.01832000E+01	 3.37847072E+01	 6.72056928E+01
					 5.43375000E+00	 8.29958000E+00	 3.61498000E+01	 6.48202000E-08	 1.64955000E-08	 4.03348000E-03	 2.93881231E+01	 5.43374947E+00	 8.29958000E+00	 3.61498005E+01
					 6.71413000E+01	 2.01832000E+01	 3.38491000E+01	 3.73072000E-08	 1.83156000E-09	 1.46558000E+00	 4.19110851E+01	 2.01832000E+01	 3.37847072E+01	 6.72056928E+01
					 1.23586000E+01	 1.65088000E+01	 7.03766000E+01	 4.81523000E-08	 1.11084000E-08	-1.53360000E+00	 5.61211365E+01	 1.23180904E+01	 1.65088000E+01	 7.04171096E+01
					 9.35613000E+01	 3.33123000E+01	 7.31759000E+01	 5.73285000E-08	 7.38503000E-09	-3.01830000E+00	 5.33351383E+01	 3.33123000E+01	 7.27383945E+01	 9.39988055E+01
					 1.23586000E+01	 1.65088000E+01	 7.03766000E+01	 4.81524000E-08	 1.11084000E-08	-1.53360000E+00	 5.61211365E+01	 1.23180904E+01	 1.65088000E+01	 7.04171096E+01
					 9.35613000E+01	 3.33123000E+01	 7.31759000E+01	 5.73285000E-08	 7.38503000E-09	-3.01830000E+00	 5.33351383E+01	 3.33123000E+01	 7.27383945E+01	 9.39988055E+01
					 1.74856000E+01	 3.12501000E+01	 1.39165000E+02	 1.91905000E-08	-6.97935000E-09	-2.51953000E+00	 1.15496865E+02	 1.74334522E+01	 3.12501000E+01	 1.39217148E+02
					 8.17573000E+01	 4.20534000E+01	 1.28822000E+02	 2.79617000E-09	 1.09262000E-08	-8.61077000E+00	 7.66979392E+01	 4.20534000E+01	 8.02313808E+01	 1.30347919E+02
					 1.74856000E+01	 3.12501000E+01	 1.39165000E+02	 1.91905000E-08	-6.97935000E-09	-2.51953000E+00	 1.15496865E+02	 1.74334522E+01	 3.12501000E+01	 1.39217148E+02
					 8.17573000E+01	 4.20534000E+01	 1.28822000E+02	 2.79614000E-09	 1.09262000E-08	-8.61077000E+00	 7.66979392E+01	 4.20534000E+01	 8.02313808E+01	 1.30347919E+02
					 2.19233000E+01	 5.56156000E+01	 2.57348000E+02	 8.77814000E-09	-6.76352000E-09	-1.28778000E+00	 2.20528764E+02	 2.19162560E+01	 5.56156000E+01	 2.57355044E+02
					 9.12426000E+01	 6.49495000E+01	 2.34408000E+02	 1.13146000E-08	 1.26077000E-08	-8.54066000E+00	 1.58652922E+02	 6.49495000E+01	 9.07348997E+01	 2.34915700E+02
					 2.19233000E+01	 5.56156000E+01	 2.57348000E+02	 8.77815000E-09	-6.76352000E-09	-1.28778000E+00	 2.20528764E+02	 2.19162560E+01	 5.56156000E+01	 2.57355044E+02
					 9.12426000E+01	 6.49495000E+01	 2.34408000E+02	 1.13147000E-08	 1.26077000E-08	-8.54066000E+00	 1.58652922E+02	 6.49495000E+01	 9.07348997E+01	 2.34915700E+02
					 2.05996000E+01	 8.50716000E+01	 4.07514000E+02	 0.00000000E+00	 7.19454000E-09	 4.82146000E+00	 3.59143406E+02	 2.05395276E+01	 8.50716000E+01	 4.07574072E+02
					 8.39314000E+01	 9.15857000E+01	 3.76209000E+02	-2.45208000E-08	 6.55357000E-09	-9.31008000E-01	 2.88531114E+02	 8.39284344E+01	 9.15857000E+01	 3.76211966E+02
					 2.05996000E+01	 8.50716000E+01	 4.07514000E+02	 0.00000000E+00	 7.19454000E-09	 4.82146000E+00	 3.59143406E+02	 2.05395276E+01	 8.50716000E+01	 4.07574072E+02
					 8.39314000E+01	 9.15857000E+01	 3.76209000E+02	-2.45208000E-08	 6.55360000E-09	-9.31008000E-01	 2.88531114E+02	 8.39284344E+01	 9.15857000E+01	 3.76211966E+02
					 1.52707000E+01	 1.04580000E+02	 5.11854000E+02	-2.16365000E-09	 5.95782000E-09	 1.38679000E+01	 4.59128058E+02	 1.48837178E+01	 1.04580000E+02	 5.12240982E+02
					 9.85776000E+01	 1.17948000E+02	 4.94823000E+02	 4.99265000E-09	 1.22292000E-08	 8.67205000E+00	 3.87215458E+02	 9.83878982E+01	 1.17948000E+02	 4.95012702E+02
					 1.52707000E+01	 1.04580000E+02	 5.11854000E+02	-2.16362000E-09	 5.95783000E-09	 1.38679000E+01	 4.59128058E+02	 1.48837178E+01	 1.04580000E+02	 5.12240982E+02
					 9.85776000E+01	 1.17948000E+02	 4.94823000E+02	 4.99267000E-09	 1.22293000E-08	 8.67205000E+00	 3.87215458E+02	 9.83878982E+01	 1.17948000E+02	 4.95012702E+02
					 6.95407000E+00	 9.37238000E+01	 4.65220000E+02	-1.75784000E-08	 0.00000000E+00	 1.56157000E+01	 4.22498033E+02	 6.42257163E+00	 9.37238000E+01	 4.65751498E+02
					 7.55891000E+01	 1.10110000E+02	 4.78415000E+02	-1.76158000E-08	 5.21794000E-09	 1.59447000E+01	 3.87707604E+02	 7.49589608E+01	 1.10110000E+02	 4.79045139E+02
					 6.95407000E+00	 9.37238000E+01	 4.65220000E+02	-1.75784000E-08	 0.00000000E+00	 1.56157000E+01	 4.22498033E+02	 6.42257163E+00	 9.37238000E+01	 4.65751498E+02
					 7.55891000E+01	 1.10110000E+02	 4.78415000E+02	-1.76157000E-08	 5.21795000E-09	 1.59447000E+01	 3.87707604E+02	 7.49589608E+01	 1.10110000E+02	 4.79045139E+02
					 5.73307000E+01	 7.80397000E+01	 3.34715000E+02	-1.74427000E-08	 2.40490000E-09	 9.87987000E+00	 2.68177920E+02	 5.69792442E+01	 7.80397000E+01	 3.35066456E+02
					 1.46098000E+02	 1.10591000E+02	 4.09398000E+02	-4.10825000E-08	-1.41101000E-08	 1.30748000E+01	 2.83636178E+02	 1.10591000E+02	 1.45450332E+02	 4.10045668E+02
					 5.73307000E+01	 7.80397000E+01	 3.34715000E+02	-1.74427000E-08	 2.40489000E-09	 9.87987000E+00	 2.68177920E+02	 5.69792442E+01	 7.80397000E+01	 3.35066456E+02
					 1.46098000E+02	 1.10591000E+02	 4.09398000E+02	-4.10825000E-08	-1.41101000E-08	 1.30748000E+01	 2.83636178E+02	 1.10591000E+02	 1.45450332E+02	 4.10045668E+02
					 9.01264000E+01	 7.72632000E+01	 2.97592000E+02	 1.64032000E-08	 0.00000000E+00	-1.63499000E+00	 2.14205808E+02	 7.72632000E+01	 9.01135158E+01	 2.97604884E+02
					 1.82519000E+02	 1.14918000E+02	 3.94524000E+02	 1.99074000E-08	-2.50291000E-08	-7.33548000E+00	 2.53000381E+02	 1.14918000E+02	 1.82265492E+02	 3.94777508E+02
					 9.01264000E+01	 7.72632000E+01	 2.97592000E+02	 1.64033000E-08	 0.00000000E+00	-1.63499000E+00	 2.14205808E+02	 7.72632000E+01	 9.01135158E+01	 2.97604884E+02
					 1.82519000E+02	 1.14918000E+02	 3.94524000E+02	 1.99074000E-08	-2.50291000E-08	-7.33548000E+00	 2.53000381E+02	 1.14918000E+02	 1.82265492E+02	 3.94777508E+02
					 1.59974000E+01	 5.50940000E+01	 2.60696000E+02	 1.06067000E-08	-4.42428000E-09	-1.96448000E+01	 2.30210382E+02	 1.44303194E+01	 5.50940000E+01	 2.62263081E+02
					 1.18405000E+02	 8.88824000E+01	 3.27700000E+02	 5.11434000E-08	-3.26089000E-08	-1.64631000E+01	 2.27305993E+02	 8.88824000E+01	 1.17117931E+02	 3.28987069E+02
					 1.59974000E+01	 5.50940000E+01	 2.60696000E+02	 1.06066000E-08	-4.42422000E-09	-1.96448000E+01	 2.30210382E+02	 1.44303194E+01	 5.50940000E+01	 2.62263081E+02
					 1.18405000E+02	 8.88824000E+01	 3.27700000E+02	 5.11434000E-08	-3.26089000E-08	-1.64631000E+01	 2.27305993E+02	 8.88824000E+01	 1.17117931E+02	 3.28987069E+02
					 3.80132000E+01	 6.07418000E+01	 2.66880000E+02	 6.46470000E-08	-1.74364000E-08	-1.12477000E+01	 2.19258550E+02	 3.74617584E+01	 6.07418000E+01	 2.67431442E+02
					 1.01276000E+02	 5.65099000E+01	 1.81820000E+02	 7.02329000E-08	-2.39877000E-08	 6.28514000E-01	 1.09991661E+02	 5.65099000E+01	 1.01271096E+02	 1.81824904E+02
					 3.80132000E+01	 6.07418000E+01	 2.66880000E+02	 6.46470000E-08	-1.74364000E-08	-1.12477000E+01	 2.19258550E+02	 3.74617584E+01	 6.07418000E+01	 2.67431442E+02
					 1.01276000E+02	 5.65099000E+01	 1.81820000E+02	 7.02329000E-08	-2.39877000E-08	 6.28514000E-01	 1.09991661E+02	 5.65099000E+01	 1.01271096E+02	 1.81824904E+02
					 7.69662000E+01	 7.94592000E+01	 3.21880000E+02	 1.07868000E-07	-2.43298000E-08	-6.07056000E+00	 2.43903607E+02	 7.68158243E+01	 7.94592000E+01	 3.22030376E+02
					 5.10324000E+01	 2.90817000E+01	 9.45636000E+01	 5.22459000E-08	 1.49757000E-09	-7.66372000E+01	 1.44748472E+02	-6.87007245E+00	 2.90817000E+01	 1.52466072E+02
					 7.69662000E+01	 7.94592000E+01	 3.21880000E+02	 1.07868000E-07	-2.43298000E-08	-6.07056000E+00	 2.43903607E+02	 7.68158243E+01	 7.94592000E+01	 3.22030376E+02
					 5.10324000E+01	 2.90817000E+01	 9.45636000E+01	 5.22459000E-08	 1.49755000E-09	-7.66372000E+01	 1.44748472E+02	-6.87007245E+00	 2.90817000E+01	 1.52466072E+02
					 2.13504000E+02	 2.03631000E+02	 8.22440000E+02	 0.00000000E+00	 0.00000000E+00	 5.14227000E+02	 1.08175819E+03	-7.96316902E+01	 2.03631000E+02	 1.11557569E+03
					-5.01254000E+01	 7.50241000E+01	 4.30518000E+02	 2.05755000E-08	 1.00895000E-08	 2.01823000E+02	 5.55630960E+02	-1.23630153E+02	 7.50241000E+01	 5.04022753E+02
					 2.13504000E+02	 2.03631000E+02	 8.22440000E+02	 0.00000000E+00	 0.00000000E+00	 5.14227000E+02	 1.08175819E+03	-7.96316902E+01	 2.03631000E+02	 1.11557569E+03