<?xml version="1.0"?>
<VTKFile type="UnstructuredGrid" version="0.1" byte_order="LittleEndian">
	<UnstructuredGrid>
		<Piece NumberOfPoints="126" NumberOfCells="40">
			<Points>
				<DataArray type="Float64" NumberOfComponents="3" format="ascii">
					 5.00000000E-02	 0.00000000E+00	 0.00000000E+00
					 0.00000000E+00	 0.00000000E+00	 0.00000000E+00
					 0.00000000E+00	 0.00000000E+00	 5.00000000E-02
					 5.00000000E-02	 0.00000000E+00	 5.00000000E-02
					 5.00000000E-02	 3.00000000E-01	 0.00000000E+00
					 0.00000000E+00	 3.00000000E-01	 0.00000000E+00
					 0.00000000E+00	 3.00000000E-01	 5.00000000E-02
					 5.00000000E-02	 3.00000000E-01	 5.00000000E-02
					 0.00000000E+00	 0.00000000E+00	 1.00000000E-01
					 5.00000000E-02	 0.00000000E+00	 1.00000000E-01
					 0.00000000E+00	 3.00000000E-01	 1.00000000E-01
					 5.00000000E-02	 3.00000000E-01	 1.00000000E-01
					 0.00000000E+00	 0.00000000E+00	 1.50000000E-01
					 5.00000000E-02	 0.00000000E+00	 1.50000000E-01
					 0.00000000E+00	 3.00000000E-01	 1.50000000E-01
					 5.00000000E-02	 3.00000000E-01	 1.50000000E-01
					 0.00000000E+00	 0.00000000E+00	 2.00000000E-01
					 5.00000000E-02	 0.00000000E+00	 2.00000000E-01
					 0.00000000E+00	 3.00000000E-01	 2.00000000E-01
					 5.00000000E-02	 3.00000000E-01	 2.00000000E-01
					 0.00000000E+00	 0.00000000E+00	 2.50000000E-01
					 5.00000000E-02	 0.00000000E+00	 2.50000000E-01
					 0.00000000E+00	 3.00000000E-01	 2.50000000E-01
					 5.00000000E-02	 3.00000000E-01	 2.50000000E-01
					 0.00000000E+00	 0.00000000E+00	 3.00000000E-01
					 5.00000000E-02	 0.00000000E+00	 3.00000000E-01
					 0.00000000E+00	 3.00000000E-01	 3.00000000E-01
					 5.00000000E-02	 3.00000000E-01	 3.00000000E-01
					 0.00000000E+00	 0.00000000E+00	 3.50000000E-01
					 5.00000000E-02	 0.00000000E+00	 3.50000000E-01
					 0.00000000E+00	 3.00000000E-01	 3.50000000E-01
					 5.00000000E-02	 3.00000000E-01	 3.50000000E-01
					 0.00000000E+00	 0.00000000E+00	 4.00000000E-01
					 5.00000000E-02	 0.00000000E+00	 4.00000000E-01
					 0.00000000E+00	 3.00000000E-01	 4.00000000E-01
					 5.00000000E-02	 3.00000000E-01	 4.00000000E-01
					 0.00000000E+00	 0.00000000E+00	 4.50000000E-01
					 5.00000000E-02	 0.00000000E+00	 4.50000000E-01
					 0.00000000E+00	 3.00000000E-01	 4.50000000E-01
					 5.00000000E-02	 3.00000000E-01	 4.50000000E-01
					 0.00000000E+00	 0.00000000E+00	 5.00000000E-01
					 5.00000000E-02	 0.00000000E+00	 5.00000000E-01
					 0.00000000E+00	 3.00000000E-01	 5.00000000E-01
					 5.00000000E-02	 3.00000000E-01	 5.00000000E-01
					 0.00000000E+00	 0.00000000E+00	 5.50000000E-01
					 5.00000000E-02	 0.00000000E+00	 5.50000000E-01
					 0.00000000E+00	 3.00000000E-01	 5.50000000E-01
					 5.00000000E-02	 3.00000000E-01	 5.50000000E-01
					 0.00000000E+00	 0.00000000E+00	 6.00000000E-01
					 5.00000000E-02	 0.00000000E+00	 6.00000000E-01
					 0.00000000E+00	 3.00000000E-01	 6.00000000E-01
					 5.00000000E-02	 3.00000000E-01	 6.00000000E-01
					 0.00000000E+00	 0.00000000E+00	 6.50000000E-01
					 5.00000000E-02	 0.00000000E+00	 6.50000000E-01
					 0.00000000E+00	 3.00000000E-01	 6.50000000E-01
					 5.00000000E-02	 3.00000000E-01	 6.50000000E-01
					 0.00000000E+00	 0.00000000E+00	 7.00000000E-01
					 5.00000000E-02	 0.00000000E+00	 7.00000000E-01
					 0.00000000E+00	 3.00000000E-01	 7.00000000E-01
					 5.00000000E-02	 3.00000000E-01	 7.00000000E-01
					 0.00000000E+00	 0.00000000E+00	 7.50000000E-01
					 5.00000000E-02	 0.00000000E+00	 7.50000000E-01
					 0.00000000E+00	 3.00000000E-01	 7.50000000E-01
					 5.00000000E-02	 3.00000000E-01	 7.50000000E-01
					 0.00000000E+00	 0.00000000E+00	 8.00000000E-01
					 5.00000000E-02	 0.00000000E+00	 8.00000000E-01
					 0.00000000E+00	 3.00000000E-01	 8.00000000E-01
					 5.00000000E-02	 3.00000000E-01	 8.00000000E-01
					 0.00000000E+00	 0.00000000E+00	 8.50000000E-01
					 5.00000000E-02	 0.00000000E+00	 8.50000000E-01
					 0.00000000E+00	 3.00000000E-01	 8.50000000E-01
					 5.00000000E-02	 3.00000000E-01	 8.50000000E-01
					 0.00000000E+00	 0.00000000E+00	 9.00000000E-01
					 5.00000000E-02	 0.00000000E+00	 9.00000000E-01
					 0.00000000E+00	 3.00000000E-01	 9.00000000E-01
					 5.00000000E-02	 3.00000000E-01	 9.00000000E-01
					 0.00000000E+00	 0.00000000E+00	 9.50000000E-01
					 5.00000000E-02	 0.00000000E+00	 9.50000000E-01
					 0.00000000E+00	 3.00000000E-01	 9.50000000E-01
					 5.00000000E-02	 3.00000000E-01	 9.50000000E-01
					 0.00000000E+00	 0.00000000E+00	 1.00000000E+00
					 5.00000000E-02	 0.00000000E+00	 1.00000000E+00
					 0.00000000E+00	 3.00000000E-01	 1.00000000E+00
					 5.00000000E-02	 3.00000000E-01	 1.00000000E+00
					-5.00000000E-02	 0.00000000E+00	 0.00000000E+00
					-5.00000000E-02	 0.00000000E+00	 5.00000000E-02
					-5.00000000E-02	 3.00000000E-01	 0.00000000E+00
					-5.00000000E-02	 3.00000000E-01	 5.00000000E-02
					-5.00000000E-02	 0.00000000E+00	 1.00000000E-01
					-5.00000000E-02	 3.00000000E-01	 1.00000000E-01
					-5.00000000E-02	 0.00000000E+00	 1.50000000E-01
					-5.00000000E-02	 3.00000000E-01	 1.50000000E-01
					-5.00000000E-02	 0.00000000E+00	 2.00000000E-01
					-5.00000000E-02	 3.00000000E-01	 2.00000000E-01
					-5.00000000E-02	 0.00000000E+00	 2.50000000E-01
					-5.00000000E-02	 3.00000000E-01	 2.50000000E-01
					-5.00000000E-02	 0.00000000E+00	 3.00000000E-01
					-5.00000000E-02	 3.00000000E-01	 3.00000000E-01
					-5.00000000E-02	 0.00000000E+00	 3.50000000E-01
					-5.00000000E-02	 3.00000000E-01	 3.50000000E-01
					-5.00000000E-02	 0.00000000E+00	 4.00000000E-01
					-5.00000000E-02	 3.00000000E-01	 4.00000000E-01
					-5.00000000E-02	 0.00000000E+00	 4.50000000E-01
					-5.00000000E-02	 3.00000000E-01	 4.50000000E-01
					-5.00000000E-02	 0.00000000E+00	 5.00000000E-01
					-5.00000000E-02	 3.00000000E-01	 5.00000000E-01
					-5.00000000E-02	 0.00000000E+00	 5.50000000E-01
					-5.00000000E-02	 3.00000000E-01	 5.50000000E-01
					-5.00000000E-02	 0.00000000E+00	 6.00000000E-01
					-5.00000000E-02	 3.00000000E-01	 6.00000000E-01
					-5.00000000E-02	 0.00000000E+00	 6.50000000E-01
					-5.00000000E-02	 3.00000000E-01	 6.50000000E-01
					-5.00000000E-02	 0.00000000E+00	 7.00000000E-01
					-5.00000000E-02	 3.00000000E-01	 7.00000000E-01
					-5.00000000E-02	 0.00000000E+00	 7.50000000E-01
					-5.00000000E-02	 3.00000000E-01	 7.50000000E-01
					-5.00000000E-02	 0.00000000E+00	 8.00000000E-01
					-5.00000000E-02	 3.00000000E-01	 8.00000000E-01
					-5.00000000E-02	 0.00000000E+00	 8.50000000E-01
					-5.00000000E-02	 3.00000000E-01	 8.50000000E-01
					-5.00000000E-02	 0.00000000E+00	 9.00000000E-01
					-5.00000000E-02	 3.00000000E-01	 9.00000000E-01
					-5.00000000E-02	 0.00000000E+00	 9.50000000E-01
					-5.00000000E-02	 3.00000000E-01	 9.50000000E-01
					-5.00000000E-02	 0.00000000E+00	 1.00000000E+00
					-5.00000000E-02	 3.00000000E-01	 1.00000000E+00

				</DataArray>
			</Points>
			<Cells>
				<DataArray type="Int32" Name="connectivity" format="ascii">
					0 1 2 3 4 5 6 7 3 2 8 9 7 6 10 11 9 8 12 13 11 10 14 15 13 12 16 17 15 14 18 19 17 16 20 21 19 18 22 23 21 20 24 25 23 22 26 27 25 24 28 29 27 26 30 31 29 28 32 33 31 30 34 35 33 32 36 37 35 34 38 39 37 36 40 41 39 38 42 43 41 40 44 45 43 42 46 47 45 44 48 49 47 46 50 51 49 48 52 53 51 50 54 55 53 52 56 57 55 54 58 59 57 56 60 61 59 58 62 63 61 60 64 65 63 62 66 67 65 64 68 69 67 66 70 71 69 68 72 73 71 70 74 75 73 72 76 77 75 74 78 79 77 76 80 81 79 78 82 83 1 84 85 2 5 86 87 6 2 85 88 8 6 87 89 10 8 88 90 12 10 89 91 14 12 90 92 16 14 91 93 18 16 92 94 20 18 93 95 22 20 94 96 24 22 95 97 26 24 96 98 28 26 97 99 30 28 98 100 32 30 99 101 34 32 100 102 36 34 101 103 38 36 102 104 40 38 103 105 42 40 104 106 44 42 105 107 46 44 106 108 48 46 107 109 50 48 108 110 52 50 109 111 54 52 110 112 56 54 111 113 58 56 112 114 60 58 113 115 62 60 114 116 64 62 115 117 66 64 116 118 68 66 117 119 70 68 118 120 72 70 119 121 74 72 120 122 76 74 121 123 78 76 122 124 80 78 123 125 82 
				</DataArray>
				<DataArray type="Int32" Name="offsets" format="ascii">
					8 16 24 32 40 48 56 64 72 80 88 96 104 112 120 128 136 144 152 160 168 176 184 192 200 208 216 224 232 240 248 256 264 272 280 288 296 304 312 320 
				</DataArray>
				<DataArray type="UInt8" Name="types" format="ascii">
					12 12 12 12 12 12 12 12 12 12 12 12 12 12 12 12 12 12 12 12 12 12 12 12 12 12 12 12 12 12 12 12 12 12 12 12 12 12 12 12 
				</DataArray>
			</Cells>
			<PointData>
				<DataArray type="Float32" Name="U" NumberOfComponents="3" ComponentName0="D1" ComponentName1="D2" ComponentName2="D3" format="ascii">
					 0.00000000E+00	 0.00000000E+00	 0.00000000E+00
					 0.00000000E+00	 0.00000000E+00	 0.00000000E+00
					 3.70629000E-03	 0.00000000E+00	-3.61530000E-04
					 4.00106000E-03	 0.00000000E+00	-6.40398000E-03
					 0.00000000E+00	 0.00000000E+00	 0.00000000E+00
					 0.00000000E+00	 0.00000000E+00	 0.00000000E+00
					 3.70629000E-03	 0.00000000E+00	-3.61530000E-04
					 4.00106000E-03	 0.00000000E+00	-6.40398000E-03
					 1.33583000E-02	 0.00000000E+00	-1.27490000E-03
					 1.24866000E-02	 0.00000000E+00	-1.21956000E-02
					 1.33583000E-02	 0.00000000E+00	-1.27490000E-03
					 1.24866000E-02	 0.00000000E+00	-1.21956000E-02
					 2.69952000E-02	 0.00000000E+00	-3.08429000E-03
					 2.51363000E-02	 0.00000000E+00	-1.75672000E-02
					 2.69952000E-02	 0.00000000E+00	-3.08429000E-03
					 2.51363000E-02	 0.00000000E+00	-1.75672000E-02
					 4.35639000E-02	 0.00000000E+00	-5.75682000E-03
					 4.07721000E-02	 0.00000000E+00	-2.27175000E-02
					 4.35639000E-02	 0.00000000E+00	-5.75682000E-03
					 4.07721000E-02	 0.00000000E+00	-2.27175000E-02
					 6.20841000E-02	 0.00000000E+00	-9.10313000E-03
					 5.85717000E-02	 0.00000000E+00	-2.76930000E-02
					 6.20841000E-02	 0.00000000E+00	-9.10313000E-03
					 5.85717000E-02	 0.00000000E+00	-2.76930000E-02
					 8.18258000E-02	 0.00000000E+00	-1.29078000E-02
					 7.78175000E-02	 0.00000000E+00	-3.24613000E-02
					 8.18258000E-02	 0.00000000E+00	-1.29078000E-02
					 7.78175000E-02	 0.00000000E+00	-3.24613000E-02
					 1.02217000E-01	 0.00000000E+00	-1.69592000E-02
					 9.79543000E-02	 0.00000000E+00	-3.69405000E-02
					 1.02217000E-01	 0.00000000E+00	-1.69592000E-02
					 9.79543000E-02	 0.00000000E+00	-3.69405000E-02
					 1.22775000E-01	 0.00000000E+00	-2.10492000E-02
					 1.18456000E-01	 0.00000000E+00	-4.09918000E-02
					 1.22775000E-01	 0.00000000E+00	-2.10492000E-02
					 1.18456000E-01	 0.00000000E+00	-4.09918000E-02
					 1.43058000E-01	 0.00000000E+00	-2.49774000E-02
					 1.38853000E-01	 0.00000000E+00	-4.45077000E-02
					 1.43058000E-01	 0.00000000E+00	-2.49774000E-02
					 1.38853000E-01	 0.00000000E+00	-4.45077000E-02
					 1.62696000E-01	 0.00000000E+00	-2.86004000E-02
					 1.58725000E-01	 0.00000000E+00	-4.74627000E-02
					 1.62696000E-01	 0.00000000E+00	-2.86004000E-02
					 1.58725000E-01	 0.00000000E+00	-4.74627000E-02
					 1.81468000E-01	 0.00000000E+00	-3.18686000E-02
					 1.77817000E-01	 0.00000000E+00	-4.99368000E-02
					 1.81468000E-01	 0.00000000E+00	-3.18686000E-02
					 1.77817000E-01	 0.00000000E+00	-4.99368000E-02
					 1.99305000E-01	 0.00000000E+00	-3.47969000E-02
					 1.95982000E-01	 0.00000000E+00	-5.20376000E-02
					 1.99305000E-01	 0.00000000E+00	-3.47969000E-02
					 1.95982000E-01	 0.00000000E+00	-5.20376000E-02
					 2.16236000E-01	 0.00000000E+00	-3.74199000E-02
					 2.13213000E-01	 0.00000000E+00	-5.38961000E-02
					 2.16236000E-01	 0.00000000E+00	-3.74199000E-02
					 2.13213000E-01	 0.00000000E+00	-5.38961000E-02
					 2.32391000E-01	 0.00000000E+00	-3.97947000E-02
					 2.29605000E-01	 0.00000000E+00	-5.56495000E-02
					 2.32391000E-01	 0.00000000E+00	-3.97947000E-02
					 2.29605000E-01	 0.00000000E+00	-5.56495000E-02
					 2.47979000E-01	 0.00000000E+00	-4.20031000E-02
					 2.45377000E-01	 0.00000000E+00	-5.74256000E-02
					 2.47979000E-01	 0.00000000E+00	-4.20031000E-02
					 2.45377000E-01	 0.00000000E+00	-5.74256000E-02
					 2.63222000E-01	 0.00000000E+00	-4.41316000E-02
					 2.60736000E-01	 0.00000000E+00	-5.92930000E-02
					 2.63222000E-01	 0.00000000E+00	-4.41316000E-02
					 2.60736000E-01	 0.00000000E+00	-5.92930000E-02
					 2.78295000E-01	 0.00000000E+00	-4.62491000E-02
					 2.75877000E-01	 0.00000000E+00	-6.12863000E-02
					 2.78295000E-01	 0.00000000E+00	-4.62491000E-02
					 2.75877000E-01	 0.00000000E+00	-6.12863000E-02
					 2.93306000E-01	 0.00000000E+00	-4.84047000E-02
					 2.90921000E-01	 0.00000000E+00	-6.34052000E-02
					 2.93306000E-01	 0.00000000E+00	-4.84047000E-02
					 2.90921000E-01	 0.00000000E+00	-6.34052000E-02
					 3.08314000E-01	 0.00000000E+00	-5.06254000E-02
					 3.05953000E-01	 0.00000000E+00	-6.56349000E-02
					 3.08314000E-01	 0.00000000E+00	-5.06254000E-02
					 3.05953000E-01	 0.00000000E+00	-6.56349000E-02
					 3.23335000E-01	 0.00000000E+00	-5.29206000E-02
					 3.20990000E-01	 0.00000000E+00	-6.79357000E-02
					 3.23335000E-01	 0.00000000E+00	-5.29206000E-02
					 3.20990000E-01	 0.00000000E+00	-6.79357000E-02
					 0.00000000E+00	 0.00000000E+00	 0.00000000E+00
					 5.14027000E-03	 0.00000000E+00	 5.49265000E-03
					 0.00000000E+00	 0.00000000E+00	 0.00000000E+00
					 5.14027000E-03	 0.00000000E+00	 5.49265000E-03
					 1.52341000E-02	 0.00000000E+00	 9.29882000E-03
					 1.52341000E-02	 0.00000000E+00	 9.29882000E-03
					 2.96236000E-02	 0.00000000E+00	 1.10699000E-02
					 2.96236000E-02	 0.00000000E+00	 1.10699000E-02
					 4.68851000E-02	 0.00000000E+00	 1.09674000E-02
					 4.68851000E-02	 0.00000000E+00	 1.09674000E-02
					 6.59448000E-02	 0.00000000E+00	 9.33326000E-03
					 6.59448000E-02	 0.00000000E+00	 9.33326000E-03
					 8.60376000E-02	 0.00000000E+00	 6.55312000E-03
					 8.60376000E-02	 0.00000000E+00	 6.55312000E-03
					 1.06553000E-01	 0.00000000E+00	 2.98999000E-03
					 1.06553000E-01	 0.00000000E+00	 2.98999000E-03
					 1.27067000E-01	 0.00000000E+00	-1.08040000E-03
					 1.27067000E-01	 0.00000000E+00	-1.08040000E-03
					 1.47151000E-01	 0.00000000E+00	-5.38125000E-03
					 1.47151000E-01	 0.00000000E+00	-5.38125000E-03
					 1.66502000E-01	 0.00000000E+00	-9.66692000E-03
					 1.66502000E-01	 0.00000000E+00	-9.66692000E-03
					 1.84923000E-01	 0.00000000E+00	-1.37346000E-02
					 1.84923000E-01	 0.00000000E+00	-1.37346000E-02
					 2.02438000E-01	 0.00000000E+00	-1.74972000E-02
					 2.02438000E-01	 0.00000000E+00	-1.74972000E-02
					 2.19095000E-01	 0.00000000E+00	-2.08928000E-02
					 2.19095000E-01	 0.00000000E+00	-2.08928000E-02
					 2.35060000E-01	 0.00000000E+00	-2.39079000E-02
					 2.35060000E-01	 0.00000000E+00	-2.39079000E-02
					 2.50504000E-01	 0.00000000E+00	-2.65666000E-02
					 2.50504000E-01	 0.00000000E+00	-2.65666000E-02
					 2.65672000E-01	 0.00000000E+00	-2.89687000E-02
					 2.65672000E-01	 0.00000000E+00	-2.89687000E-02
					 2.80703000E-01	 0.00000000E+00	-3.12212000E-02
					 2.80703000E-01	 0.00000000E+00	-3.12212000E-02
					 2.95698000E-01	 0.00000000E+00	-3.34241000E-02
					 2.95698000E-01	 0.00000000E+00	-3.34241000E-02
					 3.10682000E-01	 0.00000000E+00	-3.56380000E-02
					 3.10682000E-01	 0.00000000E+00	-3.56380000E-02
					 3.25692000E-01	 0.00000000E+00	-3.79025000E-02
					 3.25692000E-01	 0.00000000E+00	-3.79025000E-02
				</DataArray>
				<DataArray type="Float32" Name="S" NumberOfComponents="10" ComponentName0="xx" ComponentName1="yy" ComponentName2="zz" ComponentName3="xy" ComponentName4="yz" ComponentName5="zx" ComponentName6="Mises" ComponentName7="Min Principal" ComponentName8="Mid Principal" ComponentName9="Max Principal" format="ascii">
					-3.97455000E+03	-4.45250000E+03	-1.42451000E+04	 0.00000000E+00	 0.00000000E+00	 2.77656000E+03	 1.11324607E+04	-1.49476615E+04	-4.45250000E+03	-3.27198852E+03
					 2.58443000E+02	-1.48544000E+02	-1.33765000E+03	 0.00000000E+00	 0.00000000E+00	 3.58695000E+03	 6.37669139E+03	-4.21425838E+03	-1.48544000E+02	 3.13505138E+03
					-1.38832000E+02	-2.13217000E+02	-1.19991000E+03	 4.38413000E-08	-1.82772000E-08	 6.28100000E+02	 1.49533280E+03	-1.49155178E+03	-2.13217000E+02	 1.52809783E+02
					-1.88192000E+03	-3.43396000E+03	-1.25409000E+04	 2.72065000E-09	-1.57457000E-08	-4.76903000E+02	 1.00080882E+04	-1.25621950E+04	-3.43396000E+03	-1.86062500E+03
					-3.97455000E+03	-4.45250000E+03	-1.42451000E+04	 0.00000000E+00	 0.00000000E+00	 2.77656000E+03	 1.11324607E+04	-1.49476615E+04	-4.45250000E+03	-3.27198852E+03
					 2.58443000E+02	-1.48544000E+02	-1.33765000E+03	 0.00000000E+00	 0.00000000E+00	 3.58695000E+03	 6.37669139E+03	-4.21425838E+03	-1.48544000E+02	 3.13505138E+03
					-1.38832000E+02	-2.13217000E+02	-1.19991000E+03	 4.38414000E-08	-1.82773000E-08	 6.28100000E+02	 1.49533280E+03	-1.49155178E+03	-2.13217000E+02	 1.52809783E+02
					-1.88192000E+03	-3.43396000E+03	-1.25409000E+04	 2.72090000E-09	-1.57458000E-08	-4.76903000E+02	 1.00080882E+04	-1.25621950E+04	-3.43396000E+03	-1.86062500E+03
					 2.84255000E+01	-9.86037000E+01	-7.49096000E+02	 8.71206000E-08	-2.49710000E-08	 7.84523000E+02	 1.53894028E+03	-1.23589864E+03	-9.86037000E+01	 5.15228145E+02
					-2.09205000E+03	-2.74770000E+03	-9.96189000E+03	 7.18730000E-08	-5.90668000E-08	-1.19018000E+03	 7.83925910E+03	-1.01379460E+04	-2.74770000E+03	-1.91599398E+03
					 2.84255000E+01	-9.86037000E+01	-7.49096000E+02	 8.71202000E-08	-2.49710000E-08	 7.84523000E+02	 1.53894028E+03	-1.23589864E+03	-9.86037000E+01	 5.15228145E+02
					-2.09205000E+03	-2.74770000E+03	-9.96189000E+03	 7.18728000E-08	-5.90667000E-08	-1.19018000E+03	 7.83925910E+03	-1.01379460E+04	-2.74770000E+03	-1.91599398E+03
					 2.22822000E+02	-2.08264000E+01	-4.42483000E+02	 1.74726000E-07	-4.83103000E-08	 6.86052000E+02	 1.32359239E+03	-8.72277241E+02	-2.08264000E+01	 6.52616241E+02
					-1.46193000E+03	-1.90341000E+03	-7.21019000E+03	 1.47655000E-07	-6.67253000E-08	-1.19099000E+03	 5.91227768E+03	-7.44718205E+03	-1.90341000E+03	-1.22493795E+03
					 2.22822000E+02	-2.08264000E+01	-4.42483000E+02	 1.74726000E-07	-4.83103000E-08	 6.86052000E+02	 1.32359239E+03	-8.72277241E+02	-2.08264000E+01	 6.52616241E+02
					-1.46193000E+03	-1.90341000E+03	-7.21019000E+03	 1.47654000E-07	-6.67254000E-08	-1.19099000E+03	 5.91227768E+03	-7.44718205E+03	-1.90341000E+03	-1.22493795E+03
					 2.88878000E+02	 2.84083000E+01	-2.00939000E+02	 1.54835000E-07	-3.13262000E-08	 6.40134000E+02	 1.18722251E+03	-6.41414853E+02	 2.84083000E+01	 7.29353853E+02
					-1.06783000E+03	-1.27596000E+03	-4.92959000E+03	 1.46535000E-07	-1.02044000E-08	-9.39515000E+02	 4.09888102E+03	-5.14603066E+03	-1.27596000E+03	-8.51389342E+02
					 2.88878000E+02	 2.84083000E+01	-2.00939000E+02	 1.54834000E-07	-3.13264000E-08	 6.40134000E+02	 1.18722251E+03	-6.41414853E+02	 2.84083000E+01	 7.29353853E+02
					-1.06783000E+03	-1.27596000E+03	-4.92959000E+03	 1.46534000E-07	-1.02035000E-08	-9.39515000E+02	 4.09888102E+03	-5.14603066E+03	-1.27596000E+03	-8.51389342E+02
					 2.95037000E+02	 6.17803000E+01	-2.50192000E+00	 7.07615000E-08	 6.91442000E-09	 5.99847000E+02	 1.07377112E+03	-4.71752505E+02	 6.17803000E+01	 7.64287585E+02
					-6.72234000E+02	-7.73989000E+02	-3.05803000E+03	 1.04853000E-07	 4.97664000E-08	-5.48765000E+02	 2.52250650E+03	-3.17820042E+03	-7.73989000E+02	-5.52063585E+02
					 2.95037000E+02	 6.17803000E+01	-2.50192000E+00	 7.07604000E-08	 6.91438000E-09	 5.99847000E+02	 1.07377112E+03	-4.71752505E+02	 6.17803000E+01	 7.64287585E+02
					-6.72234000E+02	-7.73989000E+02	-3.05803000E+03	 1.04855000E-07	 4.97654000E-08	-5.48765000E+02	 2.52250650E+03	-3.17820042E+03	-7.73989000E+02	-5.52063585E+02
					 2.58126000E+02	 7.86034000E+01	 1.38353000E+02	 2.08634000E-08	 1.34305000E-08	 5.83073000E+02	 1.02224965E+03	-3.87900855E+02	 7.86034000E+01	 7.84379855E+02
					-3.10188000E+02	-3.75206000E+02	-1.53123000E+03	 4.04418000E-08	 5.50723000E-08	-1.12546000E+02	 1.20572841E+03	-1.54151694E+03	-3.75206000E+02	-2.99901064E+02
					 2.58126000E+02	 7.86034000E+01	 1.38353000E+02	 2.08663000E-08	 1.34309000E-08	 5.83073000E+02	 1.02224965E+03	-3.87900855E+02	 7.86034000E+01	 7.84379855E+02
					-3.10188000E+02	-3.75206000E+02	-1.53123000E+03	 4.04404000E-08	 5.50726000E-08	-1.12546000E+02	 1.20572841E+03	-1.54151694E+03	-3.75206000E+02	-2.99901064E+02
					 2.66635000E+02	 1.05451000E+02	 2.72134000E+02	-9.20034000E-09	 3.66222000E-09	 5.61565000E+02	 9.86388676E+02	-2.92187231E+02	 1.05451000E+02	 8.30956231E+02
					 6.92360000E+01	-2.92455000E+01	-2.05833000E+02	-1.17984000E-08	 1.83279000E-09	 3.09738000E+02	 5.88290097E+02	-4.07198732E+02	-2.92455000E+01	 2.70601732E+02
					 2.66635000E+02	 1.05451000E+02	 2.72134000E+02	-9.20557000E-09	 3.66173000E-09	 5.61565000E+02	 9.86388676E+02	-2.92187231E+02	 1.05451000E+02	 8.30956231E+02
					 6.92360000E+01	-2.92455000E+01	-2.05833000E+02	-1.17985000E-08	 1.83294000E-09	 3.09738000E+02	 5.88290097E+02	-4.07198732E+02	-2.92455000E+01	 2.70601732E+02
					 2.27819000E+02	 1.22127000E+02	 3.96043000E+02	 1.54357000E-08	-1.10785000E-08	 5.48456000E+02	 9.79623395E+02	-2.42937284E+02	 1.22127000E+02	 8.66799284E+02
					 3.61592000E+02	 2.54887000E+02	 9.48463000E+02	-1.84515000E-08	-2.18360000E-08	 6.90553000E+02	 1.35978525E+03	-9.52843275E+01	 2.54887000E+02	 1.40533933E+03
					 2.27819000E+02	 1.22127000E+02	 3.96043000E+02	 1.54305000E-08	-1.10774000E-08	 5.48456000E+02	 9.79623395E+02	-2.42937284E+02	 1.22127000E+02	 8.66799284E+02
					 3.61592000E+02	 2.54887000E+02	 9.48463000E+02	-1.84444000E-08	-2.18387000E-08	 6.90553000E+02	 1.35978525E+03	-9.52843275E+01	 2.54887000E+02	 1.40533933E+03
					 1.56762000E+02	 1.34470000E+02	 5.27251000E+02	 2.57213000E-08	-3.36354000E-09	 5.13648000E+02	 9.68256566E+02	-2.04024445E+02	 1.34470000E+02	 8.88037445E+02
					 5.36527000E+02	 4.66913000E+02	 1.88251000E+03	 1.27082000E-09	 8.33076000E-09	 9.62376000E+02	 2.16534485E+03	 3.51739490E+01	 4.66913000E+02	 2.38386305E+03
					 1.56762000E+02	 1.34470000E+02	 5.27251000E+02	 2.57272000E-08	-3.36104000E-09	 5.13648000E+02	 9.68256566E+02	-2.04024445E+02	 1.34470000E+02	 8.88037445E+02
					 5.36527000E+02	 4.66913000E+02	 1.88251000E+03	 1.26676000E-09	 8.32886000E-09	 9.62376000E+02	 2.16534485E+03	 3.51739490E+01	 4.66913000E+02	 2.38386305E+03
					 4.35531000E+01	 1.31419000E+02	 6.21921000E+02	-1.10481000E-09	 8.85716000E-09	 4.50634000E+02	 9.49012136E+02	-2.02705159E+02	 1.31419000E+02	 8.68179259E+02
					 5.79871000E+02	 5.90344000E+02	 2.49708000E+03	 2.72509000E-08	 2.51778000E-08	 1.08528000E+03	 2.68127193E+03	 9.04577978E+01	 5.90344000E+02	 2.98649320E+03
					 4.35531000E+01	 1.31419000E+02	 6.21921000E+02	-1.10265000E-09	 8.85616000E-09	 4.50634000E+02	 9.49012136E+02	-2.02705159E+02	 1.31419000E+02	 8.68179259E+02
					 5.79871000E+02	 5.90344000E+02	 2.49708000E+03	 2.72370000E-08	 2.51790000E-08	 1.08528000E+03	 2.68127193E+03	 9.04577978E+01	 5.90344000E+02	 2.98649320E+03
					-1.12885000E+01	 1.32846000E+02	 6.80213000E+02	 1.43654000E-08	 1.14147000E-08	 3.51297000E+02	 8.77216394E+02	-1.58440543E+02	 1.32846000E+02	 8.27365043E+02
					 5.72909000E+02	 6.43361000E+02	 2.78528000E+03	-6.50371000E-09	 2.75703000E-08	 1.05404000E+03	 2.84195073E+03	 1.51139435E+02	 6.43361000E+02	 3.20704957E+03
					-1.12885000E+01	 1.32846000E+02	 6.80213000E+02	 1.43715000E-08	 1.14142000E-08	 3.51297000E+02	 8.77216394E+02	-1.58440543E+02	 1.32846000E+02	 8.27365043E+02
					 5.72909000E+02	 6.43361000E+02	 2.78528000E+03	-6.50620000E-09	 2.75688000E-08	 1.05404000E+03	 2.84195073E+03	 1.51139435E+02	 6.43361000E+02	 3.20704957E+03
					-7.39662000E+01	 1.22260000E+02	 6.88396000E+02	 4.11808000E-08	 1.55548000E-08	 2.59477000E+02	 8.19811166E+02	-1.53900427E+02	 1.22260000E+02	 7.68330227E+02
					 4.84328000E+02	 6.23765000E+02	 2.76590000E+03	 3.91845000E-08	 8.61239000E-09	 9.26344000E+02	 2.73518144E+03	 1.55588259E+02	 6.23765000E+02	 3.09463974E+03
					-7.39662000E+01	 1.22260000E+02	 6.88396000E+02	 4.11737000E-08	 1.55562000E-08	 2.59477000E+02	 8.19811166E+02	-1.53900427E+02	 1.22260000E+02	 7.68330227E+02
					 4.84328000E+02	 6.23765000E+02	 2.76590000E+03	 3.91873000E-08	 8.60903000E-09	 9.26344000E+02	 2.73518144E+03	 1.55588259E+02	 6.23765000E+02	 3.09463974E+03
					-1.16819000E+02	 1.13066000E+02	 6.85682000E+02	 4.69279000E-08	 3.15815000E-09	 1.81851000E+02	 7.82036690E+02	-1.56104253E+02	 1.13066000E+02	 7.24967253E+02
					 3.55242000E+02	 5.49251000E+02	 2.49468000E+03	 4.48797000E-08	 1.01489000E-08	 7.42055000E+02	 2.41902896E+03	 1.23060711E+02	 5.49251000E+02	 2.72686129E+03
					-1.16819000E+02	 1.13066000E+02	 6.85682000E+02	 4.69316000E-08	 3.15891000E-09	 1.81851000E+02	 7.82036690E+02	-1.56104253E+02	 1.13066000E+02	 7.24967253E+02
					 3.55242000E+02	 5.49251000E+02	 2.49468000E+03	 4.48754000E-08	 1.01470000E-08	 7.42055000E+02	 2.41902896E+03	 1.23060711E+02	 5.49251000E+02	 2.72686129E+03
					-1.66512000E+02	 9.74592000E+01	 6.58542000E+02	 4.46016000E-08	-2.32352000E-08	 1.37056000E+02	 7.67435629E+02	-1.88683600E+02	 9.74592000E+01	 6.80713600E+02
					 2.00404000E+02	 4.33680000E+02	 2.03682000E+03	 5.24557000E-08	-9.82969000E-09	 5.54147000E+02	 1.97981977E+03	 4.61452971E+01	 4.33680000E+02	 2.19107870E+03
					-1.66512000E+02	 9.74592000E+01	 6.58542000E+02	 4.46074000E-08	-2.32364000E-08	 1.37056000E+02	 7.67435629E+02	-1.88683600E+02	 9.74592000E+01	 6.80713600E+02
					 2.00404000E+02	 4.33680000E+02	 2.03682000E+03	 5.24698000E-08	-9.82913000E-09	 5.54147000E+02	 1.97981977E+03	 4.61452971E+01	 4.33680000E+02	 2.19107870E+03
					-1.48476000E+02	 9.19361000E+01	 6.13382000E+02	 0.00000000E+00	-3.98308000E-08	 1.07878000E+02	 6.99984783E+02	-1.63456795E+02	 9.19361000E+01	 6.28362795E+02
					 1.00459000E+02	 3.16562000E+02	 1.52150000E+03	 1.98396000E-08	 0.00000000E+00	 3.84408000E+02	 1.48400652E+03	 3.13737967E+00	 3.16562000E+02	 1.61882162E+03
					-1.48476000E+02	 9.19361000E+01	 6.13382000E+02	 0.00000000E+00	-3.98275000E-08	 1.07878000E+02	 6.99984783E+02	-1.63456795E+02	 9.19361000E+01	 6.28362795E+02
					 1.00459000E+02	 3.16562000E+02	 1.52150000E+03	 1.98421000E-08	 0.00000000E+00	 3.84408000E+02	 1.48400652E+03	 3.13737967E+00	 3.16562000E+02	 1.61882162E+03
					-1.42563000E+02	 7.43952000E+01	 5.19233000E+02	-5.10083000E-08	-2.11755000E-08	 1.00594000E+02	 6.09770609E+02	-1.57515602E+02	 7.43952000E+01	 5.34185602E+02
					 1.08925000E+01	 2.03893000E+02	 1.02744000E+03	-4.81234000E-08	 1.72559000E-08	 2.55995000E+02	 1.03490297E+03	-4.99344836E+01	 2.03893000E+02	 1.08826698E+03
					-1.42563000E+02	 7.43952000E+01	 5.19233000E+02	-5.09983000E-08	-2.11790000E-08	 1.00594000E+02	 6.09770609E+02	-1.57515602E+02	 7.43952000E+01	 5.34185602E+02
					 1.08925000E+01	 2.03893000E+02	 1.02744000E+03	-4.81348000E-08	 1.72587000E-08	 2.55995000E+02	 1.03490297E+03	-4.99344836E+01	 2.03893000E+02	 1.08826698E+03
					-1.32154000E+02	 5.11072000E+01	 3.90974000E+02	-7.84148000E-08	 0.00000000E+00	 9.25890000E+01	 4.86925739E+02	-1.48057924E+02	 5.11072000E+01	 4.06877924E+02
					-5.11505000E+01	 1.10271000E+02	 6.10030000E+02	-6.88900000E-08	 1.76153000E-08	 1.62514000E+02	 6.60091059E+02	-8.89360277E+01	 1.10271000E+02	 6.47815528E+02
					-1.32154000E+02	 5.11072000E+01	 3.90974000E+02	-7.84128000E-08	 0.00000000E+00	 9.25890000E+01	 4.86925739E+02	-1.48057924E+02	 5.11072000E+01	 4.06877924E+02
					-5.11505000E+01	 1.10271000E+02	 6.10030000E+02	-6.88848000E-08	 1.76140000E-08	 1.62514000E+02	 6.60091059E+02	-8.89360277E+01	 1.10271000E+02	 6.47815528E+02
					-1.38202000E+02	 1.87248000E+01	 2.33582000E+02	-5.15942000E-08	-3.88019000E-09	 7.85058000E+01	 3.50707815E+02	-1.54099485E+02	 1.87248000E+01	 2.49479485E+02
					-9.56411000E+01	 3.74689000E+01	 2.85318000E+02	-7.71955000E-08	 2.09183000E-08	 9.94445000E+01	 3.76571730E+02	-1.20037485E+02	 3.74689000E+01	 3.09714385E+02
					-1.38202000E+02	 1.87248000E+01	 2.33582000E+02	-5.15924000E-08	-3.87865000E-09	 7.85058000E+01	 3.50707815E+02	-1.54099485E+02	 1.87248000E+01	 2.49479485E+02
					-9.56411000E+01	 3.74689000E+01	 2.85318000E+02	-7.71997000E-08	 2.09139000E-08	 9.94445000E+01	 3.76571730E+02	-1.20037485E+02	 3.74689000E+01	 3.09714385E+02
					-1.16066000E+02	-7.79777000E+00	 7.76755000E+01	-6.87275000E-08	 7.99088000E-09	 4.73069000E+01	 1.87070996E+02	-1.27000097E+02	-7.79777000E+00	 8.86095968E+01
					-9.28264000E+01	-3.80709000E+00	 7.42957000E+01	-6.56828000E-08	 4.91696000E-08	 5.25584000E+01	 1.71068104E+02	-1.07981278E+02	-3.80709000E+00	 8.94505782E+01
					-1.16066000E+02	-7.79777000E+00	 7.76755000E+01	-6.87138000E-08	 7.98979000E-09	 4.73069000E+01	 1.87070996E+02	-1.27000097E+02	-7.79777000E+00	 8.86095968E+01
					-9.28264000E+01	-3.80709000E+00	 7.42957000E+01	-6.56729000E-08	 4.91727000E-08	 5.25584000E+01	 1.71068104E+02	-1.07981278E+02	-3.80709000E+00	 8.94505782E+01
					-9.68981000E+01	-1.80052000E+01	 7.03390000E+00	-1.03441000E-07	 3.42396000E-08	 2.12328000E+01	 1.00890777E+02	-1.01068514E+02	-1.80052000E+01	 1.12043138E+01
					-7.33034000E+01	-1.50126000E+01	-1.63476000E+00	-1.06840000E-07	 7.90724000E-08	 3.39269000E+01	 8.83724651E+01	-8.68161471E+01	-1.50126000E+01	 1.18779871E+01
					-9.68981000E+01	-1.80052000E+01	 7.03390000E+00	-1.03467000E-07	 3.42441000E-08	 2.12328000E+01	 1.00890777E+02	-1.01068514E+02	-1.80052000E+01	 1.12043138E+01
					-7.33034000E+01	-1.50126000E+01	-1.63476000E+00	-1.06867000E-07	 7.90707000E-08	 3.39269000E+01	 8.83724651E+01	-8.68161471E+01	-1.50126000E+01	 1.18779871E+01
					 4.59194000E+03	 3.63481000E+03	 1.71186000E+04	 0.00000000E+00	 1.12117000E-09	 6.62603000E+03	 1.73647854E+04	 1.73750842E+03	 3.63481000E+03	 1.99730316E+04
					 1.42594000E+03	 2.73977000E+03	 1.46289000E+04	 5.91711000E-08	-1.22510000E-08	 2.82633000E+03	 1.35152610E+04	 8.46356050E+02	 2.73977000E+03	 1.52084840E+04
					 4.59194000E+03	 3.63481000E+03	 1.71186000E+04	 0.00000000E+00	 1.12117000E-09	 6.62603000E+03	 1.73647854E+04	 1.73750842E+03	 3.63481000E+03	 1.99730316E+04