<?xml version="1.0"?>
<VTKFile type="UnstructuredGrid" version="0.1" byte_order="LittleEndian">
	<UnstructuredGrid>
		<Piece NumberOfPoints="126" NumberOfCells="40">
			<Points>
				<DataArray type="Float64" NumberOfComponents="3" format="ascii">
					 5.00000000E-02	 0.00000000E+00	 0.00000000E+00
					 0.00000000E+00	 0.00000000E+00	 0.00000000E+00
					 0.00000000E+00	 0.00000000E+00	 5.00000000E-02
					 5.00000000E-02	 0.00000000E+00	 5.00000000E-02
					 5.00000000E-02	 3.00000000E-01	 0.00000000E+00
					 0.00000000E+00	 3.00000000E-01	 0.00000000E+00
					 0.00000000E+00	 3.00000000E-01	 5.00000000E-02
					 5.00000000E-02	 3.00000000E-01	 5.00000000E-02
					 0.00000000E+00	 0.00000000E+00	 1.00000000E-01
					 5.00000000E-02	 0.00000000E+00	 1.00000000E-01
					 0.00000000E+00	 3.00000000E-01	 1.00000000E-01
					 5.00000000E-02	 3.00000000E-01	 1.00000000E-01
					 0.00000000E+00	 0.00000000E+00	 1.50000000E-01
					 5.00000000E-02	 0.00000000E+00	 1.50000000E-01
					 0.00000000E+00	 3.00000000E-01	 1.50000000E-01
					 5.00000000E-02	 3.00000000E-01	 1.50000000E-01
					 0.00000000E+00	 0.00000000E+00	 2.00000000E-01
					 5.00000000E-02	 0.00000000E+00	 2.00000000E-01
					 0.00000000E+00	 3.00000000E-01	 2.00000000E-01
					 5.00000000E-02	 3.00000000E-01	 2.00000000E-01
					 0.00000000E+00	 0.00000000E+00	 2.50000000E-01
					 5.00000000E-02	 0.00000000E+00	 2.50000000E-01
					 0.00000000E+00	 3.00000000E-01	 2.50000000E-01
					 5.00000000E-02	 3.00000000E-01	 2.50000000E-01
					 0.00000000E+00	 0.00000000E+00	 3.00000000E-01
					 5.00000000E-02	 0.00000000E+00	 3.00000000E-01
					 0.00000000E+00	 3.00000000E-01	 3.00000000E-01
					 5.00000000E-02	 3.00000000E-01	 3.00000000E-01
					 0.00000000E+00	 0.00000000E+00	 3.50000000E-01
					 5.00000000E-02	 0.00000000E+00	 3.50000000E-01
					 0.00000000E+00	 3.00000000E-01	 3.50000000E-01
					 5.00000000E-02	 3.00000000E-01	 3.50000000E-01
					 0.00000000E+00	 0.00000000E+00	 4.00000000E-01
					 5.00000000E-02	 0.00000000E+00	 4.00000000E-01
					 0.00000000E+00	 3.00000000E-01	 4.00000000E-01
					 5.00000000E-02	 3.00000000E-01	 4.00000000E-01
					 0.00000000E+00	 0.00000000E+00	 4.50000000E-01
					 5.00000000E-02	 0.00000000E+00	 4.50000000E-01
					 0.00000000E+00	 3.00000000E-01	 4.50000000E-01
					 5.00000000E-02	 3.00000000E-01	 4.50000000E-01
					 0.00000000E+00	 0.00000000E+00	 5.00000000E-01
					 5.00000000E-02	 0.00000000E+00	 5.00000000E-01
					 0.00000000E+00	 3.00000000E-01	 5.00000000E-01
					 5.00000000E-02	 3.00000000E-01	 5.00000000E-01
					 0.00000000E+00	 0.00000000E+00	 5.50000000E-01
					 5.00000000E-02	 0.00000000E+00	 5.50000000E-01
					 0.00000000E+00	 3.00000000E-01	 5.50000000E-01
					 5.00000000E-02	 3.00000000E-01	 5.50000000E-01
					 0.00000000E+00	 0.00000000E+00	 6.00000000E-01
					 5.00000000E-02	 0.00000000E+00	 6.00000000E-01
					 0.00000000E+00	 3.00000000E-01	 6.00000000E-01
					 5.00000000E-02	 3.00000000E-01	 6.00000000E-01
					 0.00000000E+00	 0.00000000E+00	 6.50000000E-01
					 5.00000000E-02	 0.00000000E+00	 6.50000000E-01
					 0.00000000E+00	 3.00000000E-01	 6.50000000E-01
					 5.00000000E-02	 3.00000000E-01	 6.50000000E-01
					 0.00000000E+00	 0.00000000E+00	 7.00000000E-01
					 5.00000000E-02	 0.00000000E+00	 7.00000000E-01
					 0.00000000E+00	 3.00000000E-01	 7.00000000E-01
					 5.00000000E-02	 3.00000000E-01	 7.00000000E-01
					 0.00000000E+00	 0.00000000E+00	 7.50000000E-01
					 5.00000000E-02	 0.00000000E+00	 7.50000000E-01
					 0.00000000E+00	 3.00000000E-01	 7.50000000E-01
					 5.00000000E-02	 3.00000000E-01	 7.50000000E-01
					 0.00000000E+00	 0.00000000E+00	 8.00000000E-01
					 5.00000000E-02	 0.00000000E+00	 8.00000000E-01
					 0.00000000E+00	 3.00000000E-01	 8.00000000E-01
					 5.00000000E-02	 3.00000000E-01	 8.00000000E-01
					 0.00000000E+00	 0.00000000E+00	 8.50000000E-01
					 5.00000000E-02	 0.00000000E+00	 8.50000000E-01
					 0.00000000E+00	 3.00000000E-01	 8.50000000E-01
					 5.00000000E-02	 3.00000000E-01	 8.50000000E-01
					 0.00000000E+00	 0.00000000E+00	 9.00000000E-01
					 5.00000000E-02	 0.00000000E+00	 9.00000000E-01
					 0.00000000E+00	 3.00000000E-01	 9.00000000E-01
					 5.00000000E-02	 3.00000000E-01	 9.00000000E-01
					 0.00000000E+00	 0.00000000E+00	 9.50000000E-01
					 5.00000000E-02	 0.00000000E+00	 9.50000000E-01
					 0.00000000E+00	 3.00000000E-01	 9.50000000E-01
					 5.00000000E-02	 3.00000000E-01	 9.50000000E-01
					 0.00000000E+00	 0.00000000E+00	 1.00000000E+00
					 5.00000000E-02	 0.00000000E+00	 1.00000000E+00
					 0.00000000E+00	 3.00000000E-01	 1.00000000E+00
					 5.00000000E-02	 3.00000000E-01	 1.00000000E+00
					-5.00000000E-02	 0.00000000E+00	 0.00000000E+00
					-5.00000000E-02	 0.00000000E+00	 5.00000000E-02
					-5.00000000E-02	 3.00000000E-01	 0.00000000E+00
					-5.00000000E-02	 3.00000000E-01	 5.00000000E-02
					-5.00000000E-02	 0.00000000E+00	 1.00000000E-01
					-5.00000000E-02	 3.00000000E-01	 1.00000000E-01
					-5.00000000E-02	 0.00000000E+00	 1.50000000E-01
					-5.00000000E-02	 3.00000000E-01	 1.50000000E-01
					-5.00000000E-02	 0.00000000E+00	 2.00000000E-01
					-5.00000000E-02	 3.00000000E-01	 2.00000000E-01
					-5.00000000E-02	 0.00000000E+00	 2.50000000E-01
					-5.00000000E-02	 3.00000000E-01	 2.50000000E-01
					-5.00000000E-02	 0.00000000E+00	 3.00000000E-01
					-5.00000000E-02	 3.00000000E-01	 3.00000000E-01
					-5.00000000E-02	 0.00000000E+00	 3.50000000E-01
					-5.00000000E-02	 3.00000000E-01	 3.50000000E-01
					-5.00000000E-02	 0.00000000E+00	 4.00000000E-01
					-5.00000000E-02	 3.00000000E-01	 4.00000000E-01
					-5.00000000E-02	 0.00000000E+00	 4.50000000E-01
					-5.00000000E-02	 3.00000000E-01	 4.50000000E-01
					-5.00000000E-02	 0.00000000E+00	 5.00000000E-01
					-5.00000000E-02	 3.00000000E-01	 5.00000000E-01
					-5.00000000E-02	 0.00000000E+00	 5.50000000E-01
					-5.00000000E-02	 3.00000000E-01	 5.50000000E-01
					-5.00000000E-02	 0.00000000E+00	 6.00000000E-01
					-5.00000000E-02	 3.00000000E-01	 6.00000000E-01
					-5.00000000E-02	 0.00000000E+00	 6.50000000E-01
					-5.00000000E-02	 3.00000000E-01	 6.50000000E-01
					-5.00000000E-02	 0.00000000E+00	 7.00000000E-01
					-5.00000000E-02	 3.00000000E-01	 7.00000000E-01
					-5.00000000E-02	 0.00000000E+00	 7.50000000E-01
					-5.00000000E-02	 3.00000000E-01	 7.50000000E-01
					-5.00000000E-02	 0.00000000E+00	 8.00000000E-01
					-5.00000000E-02	 3.00000000E-01	 8.00000000E-01
					-5.00000000E-02	 0.00000000E+00	 8.50000000E-01
					-5.00000000E-02	 3.00000000E-01	 8.50000000E-01
					-5.00000000E-02	 0.00000000E+00	 9.00000000E-01
					-5.00000000E-02	 3.00000000E-01	 9.00000000E-01
					-5.00000000E-02	 0.00000000E+00	 9.50000000E-01
					-5.00000000E-02	 3.00000000E-01	 9.50000000E-01
					-5.00000000E-02	 0.00000000E+00	 1.00000000E+00
					-5.00000000E-02	 3.00000000E-01	 1.00000000E+00

				</DataArray>
			</Points>
			<Cells>
				<DataArray type="Int32" Name="connectivity" format="ascii">
					0 1 2 3 4 5 6 7 3 2 8 9 7 6 10 11 9 8 12 13 11 10 14 15 13 12 16 17 15 14 18 19 17 16 20 21 19 18 22 23 21 20 24 25 23 22 26 27 25 24 28 29 27 26 30 31 29 28 32 33 31 30 34 35 33 32 36 37 35 34 38 39 37 36 40 41 39 38 42 43 41 40 44 45 43 42 46 47 45 44 48 49 47 46 50 51 49 48 52 53 51 50 54 55 53 52 56 57 55 54 58 59 57 56 60 61 59 58 62 63 61 60 64 65 63 62 66 67 65 64 68 69 67 66 70 71 69 68 72 73 71 70 74 75 73 72 76 77 75 74 78 79 77 76 80 81 79 78 82 83 1 84 85 2 5 86 87 6 2 85 88 8 6 87 89 10 8 88 90 12 10 89 91 14 12 90 92 16 14 91 93 18 16 92 94 20 18 93 95 22 20 94 96 24 22 95 97 26 24 96 98 28 26 97 99 30 28 98 100 32 30 99 101 34 32 100 102 36 34 101 103 38 36 102 104 40 38 103 105 42 40 104 106 44 42 105 107 46 44 106 108 48 46 107 109 50 48 108 110 52 50 109 111 54 52 110 112 56 54 111 113 58 56 112 114 60 58 113 115 62 60 114 116 64 62 115 117 66 64 116 118 68 66 117 119 70 68 118 120 72 70 119 121 74 72 120 122 76 74 121 123 78 76 122 124 80 78 123 125 82 
				</DataArray>
				<DataArray type="Int32" Name="offsets" format="ascii">
					8 16 24 32 40 48 56 64 72 80 88 96 104 112 120 128 136 144 152 160 168 176 184 192 200 208 216 224 232 240 248 256 264 272 280 288 296 304 312 320 
				</DataArray>
				<DataArray type="UInt8" Name="types" format="ascii">
					12 12 12 12 12 12 12 12 12 12 12 12 12 12 12 12 12 12 12 12 12 12 12 12 12 12 12 12 12 12 12 12 12 12 12 12 12 12 12 12 
				</DataArray>
			</Cells>
			<PointData>
				<DataArray type="Float32" Name="U" NumberOfComponents="3" ComponentName0="D1" ComponentName1="D2" ComponentName2="D3" format="ascii">
					 0.00000000E+00	 0.00000000E+00	 0.00000000E+00
					 0.00000000E+00	 0.00000000E+00	 0.00000000E+00
					 3.27960000E-03	 0.00000000E+00	-1.62267000E-04
					 3.57996000E-03	 0.00000000E+00	-5.95885000E-03
					 0.00000000E+00	 0.00000000E+00	 0.00000000E+00
					 0.00000000E+00	 0.00000000E+00	 0.00000000E+00
					 3.27960000E-03	 0.00000000E+00	-1.62267000E-04
					 3.57996000E-03	 0.00000000E+00	-5.95885000E-03
					 1.24005000E-02	 0.00000000E+00	-8.49404000E-04
					 1.15734000E-02	 0.00000000E+00	-1.17323000E-02
					 1.24005000E-02	 0.00000000E+00	-8.49404000E-04
					 1.15734000E-02	 0.00000000E+00	-1.17323000E-02
					 2.59113000E-02	 0.00000000E+00	-2.53377000E-03
					 2.39374000E-02	 0.00000000E+00	-1.76550000E-02
					 2.59113000E-02	 0.00000000E+00	-2.53377000E-03
					 2.39374000E-02	 0.00000000E+00	-1.76550000E-02
					 4.32602000E-02	 0.00000000E+00	-5.42750000E-03
					 3.99509000E-02	 0.00000000E+00	-2.41227000E-02
					 4.32602000E-02	 0.00000000E+00	-5.42750000E-03
					 3.99509000E-02	 0.00000000E+00	-2.41227000E-02
					 6.38644000E-02	 0.00000000E+00	-9.62254000E-03
					 5.91795000E-02	 0.00000000E+00	-3.13343000E-02
					 6.38644000E-02	 0.00000000E+00	-9.62254000E-03
					 5.91795000E-02	 0.00000000E+00	-3.13343000E-02
					 8.72152000E-02	 0.00000000E+00	-1.51266000E-02
					 8.11736000E-02	 0.00000000E+00	-3.93687000E-02
					 8.72152000E-02	 0.00000000E+00	-1.51266000E-02
					 8.11736000E-02	 0.00000000E+00	-3.93687000E-02
					 1.12863000E-01	 0.00000000E+00	-2.18892000E-02
					 1.05538000E-01	 0.00000000E+00	-4.82604000E-02
					 1.12863000E-01	 0.00000000E+00	-2.18892000E-02
					 1.05538000E-01	 0.00000000E+00	-4.82604000E-02
					 1.40439000E-01	 0.00000000E+00	-2.98436000E-02
					 1.31910000E-01	 0.00000000E+00	-5.80199000E-02
					 1.40439000E-01	 0.00000000E+00	-2.98436000E-02
					 1.31910000E-01	 0.00000000E+00	-5.80199000E-02
					 1.69661000E-01	 0.00000000E+00	-3.89279000E-02
					 1.60005000E-01	 0.00000000E+00	-6.86611000E-02
					 1.69661000E-01	 0.00000000E+00	-3.89279000E-02
					 1.60005000E-01	 0.00000000E+00	-6.86611000E-02
					 2.00315000E-01	 0.00000000E+00	-4.90898000E-02
					 1.89599000E-01	 0.00000000E+00	-8.01825000E-02
					 2.00315000E-01	 0.00000000E+00	-4.90898000E-02
					 1.89599000E-01	 0.00000000E+00	-8.01825000E-02
					 2.32228000E-01	 0.00000000E+00	-6.02704000E-02
					 2.20522000E-01	 0.00000000E+00	-9.25606000E-02
					 2.32228000E-01	 0.00000000E+00	-6.02704000E-02
					 2.20522000E-01	 0.00000000E+00	-9.25606000E-02
					 2.65249000E-01	 0.00000000E+00	-7.24003000E-02
					 2.52612000E-01	 0.00000000E+00	-1.05746000E-01
					 2.65249000E-01	 0.00000000E+00	-7.24003000E-02
					 2.52612000E-01	 0.00000000E+00	-1.05746000E-01
					 2.99268000E-01	 0.00000000E+00	-8.54195000E-02
					 2.85746000E-01	 0.00000000E+00	-1.19711000E-01
					 2.99268000E-01	 0.00000000E+00	-8.54195000E-02
					 2.85746000E-01	 0.00000000E+00	-1.19711000E-01
					 3.34202000E-01	 0.00000000E+00	-9.92956000E-02
					 3.19837000E-01	 0.00000000E+00	-1.34438000E-01
					 3.34202000E-01	 0.00000000E+00	-9.92956000E-02
					 3.19837000E-01	 0.00000000E+00	-1.34438000E-01
					 3.69973000E-01	 0.00000000E+00	-1.14005000E-01
					 3.54842000E-01	 0.00000000E+00	-1.49894000E-01
					 3.69973000E-01	 0.00000000E+00	-1.14005000E-01
					 3.54842000E-01	 0.00000000E+00	-1.49894000E-01
					 4.06450000E-01	 0.00000000E+00	-1.29475000E-01
					 3.90677000E-01	 0.00000000E+00	-1.65952000E-01
					 4.06450000E-01	 0.00000000E+00	-1.29475000E-01
					 3.90677000E-01	 0.00000000E+00	-1.65952000E-01
					 4.43435000E-01	 0.00000000E+00	-1.45539000E-01
					 4.27199000E-01	 0.00000000E+00	-1.82417000E-01
					 4.43435000E-01	 0.00000000E+00	-1.45539000E-01
					 4.27199000E-01	 0.00000000E+00	-1.82417000E-01
					 4.80697000E-01	 0.00000000E+00	-1.61970000E-01
					 4.64190000E-01	 0.00000000E+00	-1.99070000E-01
					 4.80697000E-01	 0.00000000E+00	-1.61970000E-01
					 4.64190000E-01	 0.00000000E+00	-1.99070000E-01
					 5.18032000E-01	 0.00000000E+00	-1.78560000E-01
					 5.01414000E-01	 0.00000000E+00	-2.15756000E-01
					 5.18032000E-01	 0.00000000E+00	-1.78560000E-01
					 5.01414000E-01	 0.00000000E+00	-2.15756000E-01
					 5.55315000E-01	 0.00000000E+00	-1.95182000E-01
					 5.38674000E-01	 0.00000000E+00	-2.32411000E-01
					 5.55315000E-01	 0.00000000E+00	-1.95182000E-01
					 5.38674000E-01	 0.00000000E+00	-2.32411000E-01
					 0.00000000E+00	 0.00000000E+00	 0.00000000E+00
					 4.68594000E-03	 0.00000000E+00	 5.50447000E-03
					 0.00000000E+00	 0.00000000E+00	 0.00000000E+00
					 4.68594000E-03	 0.00000000E+00	 5.50447000E-03
					 1.43545000E-02	 0.00000000E+00	 9.70890000E-03
					 1.43545000E-02	 0.00000000E+00	 9.70890000E-03
					 2.88818000E-02	 0.00000000E+00	 1.22044000E-02
					 2.88818000E-02	 0.00000000E+00	 1.22044000E-02
					 4.74060000E-02	 0.00000000E+00	 1.28833000E-02
					 4.74060000E-02	 0.00000000E+00	 1.28833000E-02
					 6.92566000E-02	 0.00000000E+00	 1.17150000E-02
					 6.92566000E-02	 0.00000000E+00	 1.17150000E-02
					 9.38550000E-02	 0.00000000E+00	 8.75672000E-03
					 9.38550000E-02	 0.00000000E+00	 8.75672000E-03
					 1.20688000E-01	 0.00000000E+00	 4.14713000E-03
					 1.20688000E-01	 0.00000000E+00	 4.14713000E-03
					 1.49398000E-01	 0.00000000E+00	-1.97945000E-03
					 1.49398000E-01	 0.00000000E+00	-1.97945000E-03
					 1.79690000E-01	 0.00000000E+00	-9.48621000E-03
					 1.79690000E-01	 0.00000000E+00	-9.48621000E-03
					 2.11360000E-01	 0.00000000E+00	-1.82750000E-02
					 2.11360000E-01	 0.00000000E+00	-1.82750000E-02
					 2.44220000E-01	 0.00000000E+00	-2.82379000E-02
					 2.44220000E-01	 0.00000000E+00	-2.82379000E-02
					 2.78148000E-01	 0.00000000E+00	-3.92928000E-02
					 2.78148000E-01	 0.00000000E+00	-3.92928000E-02
					 3.13028000E-01	 0.00000000E+00	-5.13507000E-02
					 3.13028000E-01	 0.00000000E+00	-5.13507000E-02
					 3.48777000E-01	 0.00000000E+00	-6.43672000E-02
					 3.48777000E-01	 0.00000000E+00	-6.43672000E-02
					 3.85272000E-01	 0.00000000E+00	-7.83103000E-02
					 3.85272000E-01	 0.00000000E+00	-7.83103000E-02
					 4.22345000E-01	 0.00000000E+00	-9.31534000E-02
					 4.22345000E-01	 0.00000000E+00	-9.31534000E-02
					 4.59746000E-01	 0.00000000E+00	-1.08765000E-01
					 4.59746000E-01	 0.00000000E+00	-1.08765000E-01
					 4.97238000E-01	 0.00000000E+00	-1.24931000E-01
					 4.97238000E-01	 0.00000000E+00	-1.24931000E-01
					 5.34654000E-01	 0.00000000E+00	-1.41395000E-01
					 5.34654000E-01	 0.00000000E+00	-1.41395000E-01
					 5.71950000E-01	 0.00000000E+00	-1.57972000E-01
					 5.71950000E-01	 0.00000000E+00	-1.57972000E-01
				</DataArray>
				<DataArray type="Float32" Name="S" NumberOfComponents="10" ComponentName0="xx" ComponentName1="yy" ComponentName2="zz" ComponentName3="xy" ComponentName4="yz" ComponentName5="zx" ComponentName6="Mises" ComponentName7="Min Principal" ComponentName8="Mid Principal" ComponentName9="Max Principal" format="ascii">
					-3.77033000E+03	-4.13776000E+03	-1.34943000E+04	 0.00000000E+00	 0.00000000E+00	 2.55734000E+03	 1.05231974E+04	-1.41258463E+04	-4.13776000E+03	-3.13878371E+03
					 2.62443000E+02	-3.57930000E+01	-8.41970000E+02	 0.00000000E+00	 0.00000000E+00	 3.20220000E+03	 5.63396411E+03	-3.53922759E+03	-3.57930000E+01	 2.95970059E+03
					-1.54850000E+02	-1.20924000E+02	-7.47325000E+02	-1.79265000E-08	-1.31664000E-08	 3.98056000E+02	 9.20664783E+02	-9.47278225E+02	-1.20924000E+02	 4.51032250E+01
					-1.88768000E+03	-3.32785000E+03	-1.22270000E+04	 7.20289000E-09	-4.80650000E-09	-6.11734000E+02	 9.75745380E+03	-1.22630679E+04	-3.32785000E+03	-1.85161210E+03
					-3.77033000E+03	-4.13776000E+03	-1.34943000E+04	 0.00000000E+00	 0.00000000E+00	 2.55734000E+03	 1.05231974E+04	-1.41258463E+04	-4.13776000E+03	-3.13878371E+03
					 2.62443000E+02	-3.57930000E+01	-8.41970000E+02	 0.00000000E+00	 0.00000000E+00	 3.20220000E+03	 5.63396411E+03	-3.53922759E+03	-3.57930000E+01	 2.95970059E+03
					-1.54850000E+02	-1.20924000E+02	-7.47325000E+02	-1.79265000E-08	-1.31665000E-08	 3.98056000E+02	 9.20664783E+02	-9.47278225E+02	-1.20924000E+02	 4.51032250E+01
					-1.88768000E+03	-3.32785000E+03	-1.22270000E+04	 7.20270000E-09	-4.80639000E-09	-6.11734000E+02	 9.75745380E+03	-1.22630679E+04	-3.32785000E+03	-1.85161210E+03
					-8.31282000E+01	-4.36656000E+01	-4.27650000E+02	-7.58115000E-08	-2.67316000E-08	 5.15694000E+02	 9.65230127E+02	-7.99093173E+02	-4.36656000E+01	 2.88314973E+02
					-2.36107000E+03	-2.96416000E+03	-1.05656000E+04	-5.34033000E-08	-7.32613000E-09	-1.53321000E+03	 8.35357162E+03	-1.08427540E+04	-2.96416000E+03	-2.08391597E+03
					-8.31282000E+01	-4.36656000E+01	-4.27650000E+02	-7.58115000E-08	-2.67317000E-08	 5.15694000E+02	 9.65230127E+02	-7.99093173E+02	-4.36656000E+01	 2.88314973E+02
					-2.36107000E+03	-2.96416000E+03	-1.05656000E+04	-5.34029000E-08	-7.32602000E-09	-1.53321000E+03	 8.35357162E+03	-1.08427540E+04	-2.96416000E+03	-2.08391597E+03
					 4.18502000E+01	-1.18398000E-01	-2.47146000E+02	-1.04463000E-07	-2.91302000E-08	 4.20233000E+02	 7.76491291E+02	-5.47030027E+02	-1.18398000E-01	 3.41734227E+02
					-2.14435000E+03	-2.45333000E+03	-8.79176000E+03	-9.26871000E-08	-6.68794000E-09	-1.91762000E+03	 7.29804159E+03	-9.30527814E+03	-2.45333000E+03	-1.63083186E+03
					 4.18502000E+01	-1.18398000E-01	-2.47146000E+02	-1.04462000E-07	-2.91303000E-08	 4.20233000E+02	 7.76491291E+02	-5.47030027E+02	-1.18398000E-01	 3.41734227E+02
					-2.14435000E+03	-2.45333000E+03	-8.79176000E+03	-9.26872000E-08	-6.68745000E-09	-1.91762000E+03	 7.29804159E+03	-9.30527814E+03	-2.45333000E+03	-1.63083186E+03
					 1.19592000E+02	 3.06782000E+01	-1.19820000E+02	-1.13787000E-07	-3.08114000E-08	 4.05127000E+02	 7.32338991E+02	-4.22556200E+02	 3.06782000E+01	 4.22328200E+02
					-2.14301000E+03	-2.09308000E+03	-7.34934000E+03	-1.20110000E-07	-2.41826000E-08	-2.09233000E+03	 6.36410651E+03	-8.08598231E+03	-2.09308000E+03	-1.40636769E+03
					 1.19592000E+02	 3.06782000E+01	-1.19820000E+02	-1.13789000E-07	-3.08108000E-08	 4.05127000E+02	 7.32338991E+02	-4.22556200E+02	 3.06782000E+01	 4.22328200E+02
					-2.14301000E+03	-2.09308000E+03	-7.34934000E+03	-1.20109000E-07	-2.41839000E-08	-2.09233000E+03	 6.36410651E+03	-8.08598231E+03	-2.09308000E+03	-1.40636769E+03
					 1.86088000E+02	 5.70665000E+01	-1.42197000E+01	-6.59910000E-08	-7.69789000E-08	 4.03127000E+02	 7.20041566E+02	-3.29447809E+02	 5.70665000E+01	 5.01316109E+02
					-2.09237000E+03	-1.77694000E+03	-6.09134000E+03	-5.12461000E-08	-9.04469000E-08	-2.08297000E+03	 5.51080251E+03	-6.97919015E+03	-1.77694000E+03	-1.20451985E+03
					 1.86088000E+02	 5.70665000E+01	-1.42197000E+01	-6.59881000E-08	-7.69789000E-08	 4.03127000E+02	 7.20041566E+02	-3.29447809E+02	 5.70665000E+01	 5.01316109E+02
					-2.09237000E+03	-1.77694000E+03	-6.09134000E+03	-5.12481000E-08	-9.04462000E-08	-2.08297000E+03	 5.51080251E+03	-6.97919015E+03	-1.77694000E+03	-1.20451985E+03
					 2.22750000E+02	 7.47255000E+01	 6.75984000E+01	-3.13482000E-08	-1.16044000E-07	 4.12239000E+02	 7.29958912E+02	-2.74300469E+02	 7.47255000E+01	 5.64648869E+02
					-2.01779000E+03	-1.50655000E+03	-5.01583000E+03	-2.20426000E-08	-1.00805000E-07	-1.96140000E+03	 4.72478550E+03	-5.98544341E+03	-1.50655000E+03	-1.04817659E+03
					 2.22750000E+02	 7.47255000E+01	 6.75984000E+01	-3.13472000E-08	-1.16045000E-07	 4.12239000E+02	 7.29958912E+02	-2.74300469E+02	 7.47255000E+01	 5.64648869E+02
					-2.01779000E+03	-1.50655000E+03	-5.01583000E+03	-2.20447000E-08	-1.00805000E-07	-1.96140000E+03	 4.72478550E+03	-5.98544341E+03	-1.50655000E+03	-1.04817659E+03
					 2.65658000E+02	 9.41558000E+01	 1.43747000E+02	-3.20544000E-08	-9.99389000E-08	 4.06005000E+02	 7.19643990E+02	-2.05852774E+02	 9.41558000E+01	 6.15257774E+02
					-1.90662000E+03	-1.27710000E+03	-4.12393000E+03	-3.40610000E-08	-9.23178000E-08	-1.80017000E+03	 4.05344744E+03	-5.12944811E+03	-1.27710000E+03	-9.01101890E+02
					 2.65658000E+02	 9.41558000E+01	 1.43747000E+02	-3.20565000E-08	-9.99368000E-08	 4.06005000E+02	 7.19643990E+02	-2.05852774E+02	 9.41558000E+01	 6.15257774E+02
					-1.90662000E+03	-1.27710000E+03	-4.12393000E+03	-3.40610000E-08	-9.23190000E-08	-1.80017000E+03	 4.05344744E+03	-5.12944811E+03	-1.27710000E+03	-9.01101890E+02
					 2.77517000E+02	 1.01438000E+02	 1.84091000E+02	-3.63428000E-08	-8.46811000E-08	 3.95661000E+02	 7.02086003E+02	-1.67605000E+02	 1.01438000E+02	 6.29213000E+02
					-1.80802000E+03	-1.10017000E+03	-3.43237000E+03	-3.15349000E-08	-9.30100000E-08	-1.63956000E+03	 3.51480180E+03	-4.44989039E+03	-1.10017000E+03	-7.90499609E+02
					 2.77517000E+02	 1.01438000E+02	 1.84091000E+02	-3.63480000E-08	-8.46790000E-08	 3.95661000E+02	 7.02086003E+02	-1.67605000E+02	 1.01438000E+02	 6.29213000E+02
					-1.80802000E+03	-1.10017000E+03	-3.43237000E+03	-3.15381000E-08	-9.30089000E-08	-1.63956000E+03	 3.51480180E+03	-4.44989039E+03	-1.10017000E+03	-7.90499609E+02
					 2.82182000E+02	 1.02199000E+02	 1.94253000E+02	-1.74967000E-08	-9.76406000E-08	 3.76907000E+02	 6.71175330E+02	-1.41244967E+02	 1.02199000E+02	 6.17679967E+02
					-1.72323000E+03	-9.66906000E+02	-2.91164000E+03	-6.82083000E-09	-9.09930000E-08	-1.49898000E+03	 3.10225570E+03	-3.92989294E+03	-9.66906000E+02	-7.04977056E+02
					 2.82182000E+02	 1.02199000E+02	 1.94253000E+02	-1.75023000E-08	-9.76422000E-08	 3.76907000E+02	 6.71175330E+02	-1.41244967E+02	 1.02199000E+02	 6.17679967E+02
					-1.72323000E+03	-9.66906000E+02	-2.91164000E+03	-6.81902000E-09	-9.09943000E-08	-1.49898000E+03	 3.10225570E+03	-3.92989294E+03	-9.66906000E+02	-7.04977056E+02
					 2.75729000E+02	 9.62371000E+01	 1.78542000E+02	 5.01211000E-09	-9.55916000E-08	 3.59228000E+02	 6.41367791E+02	-1.35364271E+02	 9.62371000E+01	 5.89635271E+02
					-1.64407000E+03	-8.62279000E+02	-2.50949000E+03	-9.87050000E-09	-8.13275000E-08	-1.36964000E+03	 2.76847751E+03	-3.51314753E+03	-8.62279000E+02	-6.40412473E+02
					 2.75729000E+02	 9.62371000E+01	 1.78542000E+02	 5.02263000E-09	-9.55903000E-08	 3.59228000E+02	 6.41367791E+02	-1.35364271E+02	 9.62371000E+01	 5.89635271E+02
					-1.64407000E+03	-8.62279000E+02	-2.50949000E+03	-9.87326000E-09	-8.13231000E-08	-1.36964000E+03	 2.76847751E+03	-3.51314753E+03	-8.62279000E+02	-6.40412473E+02
					 2.88622000E+02	 9.81716000E+01	 1.80524000E+02	 1.96425000E-08	-9.83710000E-08	 3.34683000E+02	 6.02832777E+02	-1.04446181E+02	 9.81716000E+01	 5.73592181E+02
					-1.55000000E+03	-7.67728000E+02	-2.16397000E+03	 2.96378000E-08	-6.37472000E-08	-1.25266000E+03	 2.48529101E+03	-3.14671244E+03	-7.67728000E+02	-5.67257561E+02
					 2.88622000E+02	 9.81716000E+01	 1.80524000E+02	 1.96550000E-08	-9.83685000E-08	 3.34683000E+02	 6.02832777E+02	-1.04446181E+02	 9.81716000E+01	 5.73592181E+02
					-1.55000000E+03	-7.67728000E+02	-2.16397000E+03	 2.96357000E-08	-6.37553000E-08	-1.25266000E+03	 2.48529101E+03	-3.14671244E+03	-7.67728000E+02	-5.67257561E+02
					 2.93712000E+02	 9.91197000E+01	 1.84699000E+02	-4.73874000E-08	-3.50629000E-08	 3.27753000E+02	 5.92286243E+02	-9.30489019E+01	 9.91197000E+01	 5.71459902E+02
					-1.47031000E+03	-6.89947000E+02	-1.87981000E+03	 0.00000000E+00	 2.00151000E-08	-1.13992000E+03	 2.23483067E+03	-2.83322241E+03	-6.89947000E+02	-5.16897590E+02
					 2.93712000E+02	 9.91197000E+01	 1.84699000E+02	-4.73980000E-08	-3.50610000E-08	 3.27753000E+02	 5.92286243E+02	-9.30489019E+01	 9.91197000E+01	 5.71459902E+02
					-1.47031000E+03	-6.89947000E+02	-1.87981000E+03	 0.00000000E+00	 2.00147000E-08	-1.13992000E+03	 2.23483067E+03	-2.83322241E+03	-6.89947000E+02	-5.16897590E+02
					 3.12532000E+02	 1.01873000E+02	 1.84060000E+02	-9.54841000E-08	 2.56196000E-08	 3.31868000E+02	 6.03512713E+02	-8.97315627E+01	 1.01873000E+02	 5.86323563E+02
					-1.39167000E+03	-6.25543000E+02	-1.65538000E+03	-6.45738000E-08	 6.79691000E-08	-1.03329000E+03	 2.01533957E+03	-2.56519384E+03	-6.25543000E+02	-4.81856163E+02
					 3.12532000E+02	 1.01873000E+02	 1.84060000E+02	-9.54650000E-08	 2.56132000E-08	 3.31868000E+02	 6.03512713E+02	-8.97315627E+01	 1.01873000E+02	 5.86323563E+02
					-1.39167000E+03	-6.25543000E+02	-1.65538000E+03	-6.45741000E-08	 6.79793000E-08	-1.03329000E+03	 2.01533957E+03	-2.56519384E+03	-6.25543000E+02	-4.81856163E+02
					 3.43447000E+02	 9.98005000E+01	 1.47420000E+02	-8.46114000E-08	 3.87569000E-08	 3.36318000E+02	 6.23985818E+02	-1.04875568E+02	 9.98005000E+01	 5.95742568E+02
					-1.27119000E+03	-5.60255000E+02	-1.46591000E+03	-6.66032000E-08	 5.51700000E-08	-9.14196000E+02	 1.78578854E+03	-2.28791570E+03	-5.60255000E+02	-4.49184297E+02
					 3.43447000E+02	 9.98005000E+01	 1.47420000E+02	-8.46175000E-08	 3.87577000E-08	 3.36318000E+02	 6.23985818E+02	-1.04875568E+02	 9.98005000E+01	 5.95742568E+02
					-1.27119000E+03	-5.60255000E+02	-1.46591000E+03	-6.65966000E-08	 5.51699000E-08	-9.14196000E+02	 1.78578854E+03	-2.28791570E+03	-5.60255000E+02	-4.49184297E+02
					 3.98112000E+02	 9.92814000E+01	 9.42612000E+01	-5.17475000E-08	 3.93357000E-08	 3.11167000E+02	 6.17494798E+02	-1.00088188E+02	 9.92814000E+01	 5.92461388E+02
					-1.04232000E+03	-4.65085000E+02	-1.23867000E+03	-5.10568000E-08	 5.26809000E-08	-7.62599000E+02	 1.49323989E+03	-1.90938743E+03	-4.65085000E+02	-3.71602572E+02
					 3.98112000E+02	 9.92814000E+01	 9.42612000E+01	-5.17343000E-08	 3.93450000E-08	 3.11167000E+02	 6.17494798E+02	-1.00088188E+02	 9.92814000E+01	 5.92461388E+02
					-1.04232000E+03	-4.65085000E+02	-1.23867000E+03	-5.10568000E-08	 5.26717000E-08	-7.62599000E+02	 1.49323989E+03	-1.90938743E+03	-4.65085000E+02	-3.71602572E+02
					 4.20565000E+02	 8.95992000E+01	 2.65413000E+01	-5.37723000E-08	 5.63366000E-08	 2.70321000E+02	 5.94646952E+02	-1.10942160E+02	 8.95992000E+01	 5.58048460E+02
					-7.24309000E+02	-3.40774000E+02	-9.55778000E+02	-4.99949000E-08	 6.84272000E-08	-5.54594000E+02	 1.10098909E+03	-1.40658474E+03	-3.40774000E+02	-2.73502258E+02
					 4.20565000E+02	 8.95992000E+01	 2.65413000E+01	-5.37820000E-08	 5.63305000E-08	 2.70321000E+02	 5.94646952E+02	-1.10942160E+02	 8.95992000E+01	 5.58048460E+02
					-7.24309000E+02	-3.40774000E+02	-9.55778000E+02	-4.99919000E-08	 6.84359000E-08	-5.54594000E+02	 1.10098909E+03	-1.40658474E+03	-3.40774000E+02	-2.73502258E+02
					 3.87450000E+02	 7.35728000E+01	-1.87268000E+01	-4.76524000E-08	 6.46166000E-08	 2.18227000E+02	 5.28088935E+02	-1.13745632E+02	 7.35728000E+01	 4.82468832E+02
					-3.82581000E+02	-2.05533000E+02	-6.36738000E+02	-2.70376000E-08	 9.62068000E-08	-3.18959000E+02	 6.67940338E+02	-8.53001587E+02	-2.05533000E+02	-1.66317413E+02
					 3.87450000E+02	 7.35728000E+01	-1.87268000E+01	-4.76404000E-08	 6.46201000E-08	 2.18227000E+02	 5.28088935E+02	-1.13745632E+02	 7.35728000E+01	 4.82468832E+02
					-3.82581000E+02	-2.05533000E+02	-6.36738000E+02	-2.70511000E-08	 9.62067000E-08	-3.18959000E+02	 6.67940338E+02	-8.53001587E+02	-2.05533000E+02	-1.66317413E+02
					 2.86637000E+02	 4.99037000E+01	-3.59516000E+01	-4.74765000E-08	 9.20021000E-08	 1.62766000E+02	 4.04001125E+02	-1.03804899E+02	 4.99037000E+01	 3.54490299E+02
					-1.18831000E+02	-9.32855000E+01	-3.46059000E+02	-2.30849000E-08	 1.13673000E-07	-1.15269000E+02	 3.12970632E+02	-3.94293952E+02	-9.32855000E+01	-7.05960477E+01
					 2.86637000E+02	 4.99037000E+01	-3.59516000E+01	-4.74926000E-08	 9.20112000E-08	 1.62766000E+02	 4.04001125E+02	-1.03804899E+02	 4.99037000E+01	 3.54490299E+02
					-1.18831000E+02	-9.32855000E+01	-3.46059000E+02	-2.30752000E-08	 1.13663000E-07	-1.15269000E+02	 3.12970632E+02	-3.94293952E+02	-9.32855000E+01	-7.05960477E+01
					 1.49774000E+02	 2.51487000E+01	-2.34419000E+01	-6.76805000E-08	 9.04950000E-08	 9.63832000E+01	 2.27634122E+02	-6.64127224E+01	 2.51487000E+01	 1.92744822E+02
					-2.01733000E+00	-2.86926000E+01	-1.41349000E+02	-5.88732000E-08	 9.34762000E-08	-8.27113000E+00	 1.28893014E+02	-1.41838280E+02	-2.86926000E+01	-1.52805002E+00
					 1.49774000E+02	 2.51487000E+01	-2.34419000E+01	-6.77011000E-08	 9.04995000E-08	 9.63832000E+01	 2.27634122E+02	-6.64127224E+01	 2.51487000E+01	 1.92744822E+02
					-2.01733000E+00	-2.86926000E+01	-1.41349000E+02	-5.88413000E-08	 9.34673000E-08	-8.27113000E+00	 1.28893014E+02	-1.41838280E+02	-2.86926000E+01	-1.52805002E+00
					 7.81360000E+01	 1.66177000E+01	 5.12793000E+00	-6.42980000E-08	 6.95858000E-08	 5.51394000E+01	 1.17236545E+02	-2.44959263E+01	 1.66177000E+01	 1.07759856E+02
					 1.46494000E+01	-6.83543000E+00	-4.88175000E+01	-6.77660000E-08	 6.37925000E-08	 9.74697000E+00	 5.84044522E+01	-5.02806654E+01	-6.83543000E+00	 1.61125654E+01
					 7.81360000E+01	 1.66177000E+01	 5.12793000E+00	-6.42980000E-08	 6.95733000E-08	 5.51394000E+01	 1.17236545E+02	-2.44959263E+01	 1.66177000E+01	 1.07759856E+02
					 1.46494000E+01	-6.83543000E+00	-4.88175000E+01	-6.78401000E-08	 6.37898000E-08	 9.74697000E+00	 5.84044522E+01	-5.02806654E+01	-6.83543000E+00	 1.61125654E+01
					 4.39400000E+03	 3.61524000E+03	 1.70800000E+04	 0.00000000E+00	 0.00000000E+00	 6.02947000E+03	 1.67476547E+04	 1.98553398E+03	 3.61524000E+03	 1.94884660E+04
					 1.43158000E+03	 2.83380000E+03	 1.52237000E+04	-5.60652000E-08	-4.14218000E-08	 2.55079000E+03	 1.38697079E+04	 9.74941642E+02	 2.83380000E+03	 1.56803384E+04
					 4.39400000E+03	 3.61524000E+03	 1.70800000E+04	 0.00000000E+00	 0.00000000E+00	 6.02947000E+03	 1.67476547E+04	 1.98553398E+03	 3.61524000E+03	 1.94884660E+04