<?xml version="1.0"?>
<VTKFile type="UnstructuredGrid" version="0.1" byte_order="LittleEndian">
	<UnstructuredGrid>
		<Piece NumberOfPoints="126" NumberOfCells="40">
			<Points>
				<DataArray type="Float64" NumberOfComponents="3" format="ascii">
					 5.00000000E-02	 0.00000000E+00	 0.00000000E+00
					 0.00000000E+00	 0.00000000E+00	 0.00000000E+00
					 0.00000000E+00	 0.00000000E+00	 5.00000000E-02
					 5.00000000E-02	 0.00000000E+00	 5.00000000E-02
					 5.00000000E-02	 3.00000000E-01	 0.00000000E+00
					 0.00000000E+00	 3.00000000E-01	 0.00000000E+00
					 0.00000000E+00	 3.00000000E-01	 5.00000000E-02
					 5.00000000E-02	 3.00000000E-01	 5.00000000E-02
					 0.00000000E+00	 0.00000000E+00	 1.00000000E-01
					 5.00000000E-02	 0.00000000E+00	 1.00000000E-01
					 0.00000000E+00	 3.00000000E-01	 1.00000000E-01
					 5.00000000E-02	 3.00000000E-01	 1.00000000E-01
					 0.00000000E+00	 0.00000000E+00	 1.50000000E-01
					 5.00000000E-02	 0.00000000E+00	 1.50000000E-01
					 0.00000000E+00	 3.00000000E-01	 1.50000000E-01
					 5.00000000E-02	 3.00000000E-01	 1.50000000E-01
					 0.00000000E+00	 0.00000000E+00	 2.00000000E-01
					 5.00000000E-02	 0.00000000E+00	 2.00000000E-01
					 0.00000000E+00	 3.00000000E-01	 2.00000000E-01
					 5.00000000E-02	 3.00000000E-01	 2.00000000E-01
					 0.00000000E+00	 0.00000000E+00	 2.50000000E-01
					 5.00000000E-02	 0.00000000E+00	 2.50000000E-01
					 0.00000000E+00	 3.00000000E-01	 2.50000000E-01
					 5.00000000E-02	 3.00000000E-01	 2.50000000E-01
					 0.00000000E+00	 0.00000000E+00	 3.00000000E-01
					 5.00000000E-02	 0.00000000E+00	 3.00000000E-01
					 0.00000000E+00	 3.00000000E-01	 3.00000000E-01
					 5.00000000E-02	 3.00000000E-01	 3.00000000E-01
					 0.00000000E+00	 0.00000000E+00	 3.50000000E-01
					 5.00000000E-02	 0.00000000E+00	 3.50000000E-01
					 0.00000000E+00	 3.00000000E-01	 3.50000000E-01
					 5.00000000E-02	 3.00000000E-01	 3.50000000E-01
					 0.00000000E+00	 0.00000000E+00	 4.00000000E-01
					 5.00000000E-02	 0.00000000E+00	 4.00000000E-01
					 0.00000000E+00	 3.00000000E-01	 4.00000000E-01
					 5.00000000E-02	 3.00000000E-01	 4.00000000E-01
					 0.00000000E+00	 0.00000000E+00	 4.50000000E-01
					 5.00000000E-02	 0.00000000E+00	 4.50000000E-01
					 0.00000000E+00	 3.00000000E-01	 4.50000000E-01
					 5.00000000E-02	 3.00000000E-01	 4.50000000E-01
					 0.00000000E+00	 0.00000000E+00	 5.00000000E-01
					 5.00000000E-02	 0.00000000E+00	 5.00000000E-01
					 0.00000000E+00	 3.00000000E-01	 5.00000000E-01
					 5.00000000E-02	 3.00000000E-01	 5.00000000E-01
					 0.00000000E+00	 0.00000000E+00	 5.50000000E-01
					 5.00000000E-02	 0.00000000E+00	 5.50000000E-01
					 0.00000000E+00	 3.00000000E-01	 5.50000000E-01
					 5.00000000E-02	 3.00000000E-01	 5.50000000E-01
					 0.00000000E+00	 0.00000000E+00	 6.00000000E-01
					 5.00000000E-02	 0.00000000E+00	 6.00000000E-01
					 0.00000000E+00	 3.00000000E-01	 6.00000000E-01
					 5.00000000E-02	 3.00000000E-01	 6.00000000E-01
					 0.00000000E+00	 0.00000000E+00	 6.50000000E-01
					 5.00000000E-02	 0.00000000E+00	 6.50000000E-01
					 0.00000000E+00	 3.00000000E-01	 6.50000000E-01
					 5.00000000E-02	 3.00000000E-01	 6.50000000E-01
					 0.00000000E+00	 0.00000000E+00	 7.00000000E-01
					 5.00000000E-02	 0.00000000E+00	 7.00000000E-01
					 0.00000000E+00	 3.00000000E-01	 7.00000000E-01
					 5.00000000E-02	 3.00000000E-01	 7.00000000E-01
					 0.00000000E+00	 0.00000000E+00	 7.50000000E-01
					 5.00000000E-02	 0.00000000E+00	 7.50000000E-01
					 0.00000000E+00	 3.00000000E-01	 7.50000000E-01
					 5.00000000E-02	 3.00000000E-01	 7.50000000E-01
					 0.00000000E+00	 0.00000000E+00	 8.00000000E-01
					 5.00000000E-02	 0.00000000E+00	 8.00000000E-01
					 0.00000000E+00	 3.00000000E-01	 8.00000000E-01
					 5.00000000E-02	 3.00000000E-01	 8.00000000E-01
					 0.00000000E+00	 0.00000000E+00	 8.50000000E-01
					 5.00000000E-02	 0.00000000E+00	 8.50000000E-01
					 0.00000000E+00	 3.00000000E-01	 8.50000000E-01
					 5.00000000E-02	 3.00000000E-01	 8.50000000E-01
					 0.00000000E+00	 0.00000000E+00	 9.00000000E-01
					 5.00000000E-02	 0.00000000E+00	 9.00000000E-01
					 0.00000000E+00	 3.00000000E-01	 9.00000000E-01
					 5.00000000E-02	 3.00000000E-01	 9.00000000E-01
					 0.00000000E+00	 0.00000000E+00	 9.50000000E-01
					 5.00000000E-02	 0.00000000E+00	 9.50000000E-01
					 0.00000000E+00	 3.00000000E-01	 9.50000000E-01
					 5.00000000E-02	 3.00000000E-01	 9.50000000E-01
					 0.00000000E+00	 0.00000000E+00	 1.00000000E+00
					 5.00000000E-02	 0.00000000E+00	 1.00000000E+00
					 0.00000000E+00	 3.00000000E-01	 1.00000000E+00
					 5.00000000E-02	 3.00000000E-01	 1.00000000E+00
					-5.00000000E-02	 0.00000000E+00	 0.00000000E+00
					-5.00000000E-02	 0.00000000E+00	 5.00000000E-02
					-5.00000000E-02	 3.00000000E-01	 0.00000000E+00
					-5.00000000E-02	 3.00000000E-01	 5.00000000E-02
					-5.00000000E-02	 0.00000000E+00	 1.00000000E-01
					-5.00000000E-02	 3.00000000E-01	 1.00000000E-01
					-5.00000000E-02	 0.00000000E+00	 1.50000000E-01
					-5.00000000E-02	 3.00000000E-01	 1.50000000E-01
					-5.00000000E-02	 0.00000000E+00	 2.00000000E-01
					-5.00000000E-02	 3.00000000E-01	 2.00000000E-01
					-5.00000000E-02	 0.00000000E+00	 2.50000000E-01
					-5.00000000E-02	 3.00000000E-01	 2.50000000E-01
					-5.00000000E-02	 0.00000000E+00	 3.00000000E-01
					-5.00000000E-02	 3.00000000E-01	 3.00000000E-01
					-5.00000000E-02	 0.00000000E+00	 3.50000000E-01
					-5.00000000E-02	 3.00000000E-01	 3.50000000E-01
					-5.00000000E-02	 0.00000000E+00	 4.00000000E-01
					-5.00000000E-02	 3.00000000E-01	 4.00000000E-01
					-5.00000000E-02	 0.00000000E+00	 4.50000000E-01
					-5.00000000E-02	 3.00000000E-01	 4.50000000E-01
					-5.00000000E-02	 0.00000000E+00	 5.00000000E-01
					-5.00000000E-02	 3.00000000E-01	 5.00000000E-01
					-5.00000000E-02	 0.00000000E+00	 5.50000000E-01
					-5.00000000E-02	 3.00000000E-01	 5.50000000E-01
					-5.00000000E-02	 0.00000000E+00	 6.00000000E-01
					-5.00000000E-02	 3.00000000E-01	 6.00000000E-01
					-5.00000000E-02	 0.00000000E+00	 6.50000000E-01
					-5.00000000E-02	 3.00000000E-01	 6.50000000E-01
					-5.00000000E-02	 0.00000000E+00	 7.00000000E-01
					-5.00000000E-02	 3.00000000E-01	 7.00000000E-01
					-5.00000000E-02	 0.00000000E+00	 7.50000000E-01
					-5.00000000E-02	 3.00000000E-01	 7.50000000E-01
					-5.00000000E-02	 0.00000000E+00	 8.00000000E-01
					-5.00000000E-02	 3.00000000E-01	 8.00000000E-01
					-5.00000000E-02	 0.00000000E+00	 8.50000000E-01
					-5.00000000E-02	 3.00000000E-01	 8.50000000E-01
					-5.00000000E-02	 0.00000000E+00	 9.00000000E-01
					-5.00000000E-02	 3.00000000E-01	 9.00000000E-01
					-5.00000000E-02	 0.00000000E+00	 9.50000000E-01
					-5.00000000E-02	 3.00000000E-01	 9.50000000E-01
					-5.00000000E-02	 0.00000000E+00	 1.00000000E+00
					-5.00000000E-02	 3.00000000E-01	 1.00000000E+00

				</DataArray>
			</Points>
			<Cells>
				<DataArray type="Int32" Name="connectivity" format="ascii">
					0 1 2 3 4 5 6 7 3 2 8 9 7 6 10 11 9 8 12 13 11 10 14 15 13 12 16 17 15 14 18 19 17 16 20 21 19 18 22 23 21 20 24 25 23 22 26 27 25 24 28 29 27 26 30 31 29 28 32 33 31 30 34 35 33 32 36 37 35 34 38 39 37 36 40 41 39 38 42 43 41 40 44 45 43 42 46 47 45 44 48 49 47 46 50 51 49 48 52 53 51 50 54 55 53 52 56 57 55 54 58 59 57 56 60 61 59 58 62 63 61 60 64 65 63 62 66 67 65 64 68 69 67 66 70 71 69 68 72 73 71 70 74 75 73 72 76 77 75 74 78 79 77 76 80 81 79 78 82 83 1 84 85 2 5 86 87 6 2 85 88 8 6 87 89 10 8 88 90 12 10 89 91 14 12 90 92 16 14 91 93 18 16 92 94 20 18 93 95 22 20 94 96 24 22 95 97 26 24 96 98 28 26 97 99 30 28 98 100 32 30 99 101 34 32 100 102 36 34 101 103 38 36 102 104 40 38 103 105 42 40 104 106 44 42 105 107 46 44 106 108 48 46 107 109 50 48 108 110 52 50 109 111 54 52 110 112 56 54 111 113 58 56 112 114 60 58 113 115 62 60 114 116 64 62 115 117 66 64 116 118 68 66 117 119 70 68 118 120 72 70 119 121 74 72 120 122 76 74 121 123 78 76 122 124 80 78 123 125 82 
				</DataArray>
				<DataArray type="Int32" Name="offsets" format="ascii">
					8 16 24 32 40 48 56 64 72 80 88 96 104 112 120 128 136 144 152 160 168 176 184 192 200 208 216 224 232 240 248 256 264 272 280 288 296 304 312 320 
				</DataArray>
				<DataArray type="UInt8" Name="types" format="ascii">
					12 12 12 12 12 12 12 12 12 12 12 12 12 12 12 12 12 12 12 12 12 12 12 12 12 12 12 12 12 12 12 12 12 12 12 12 12 12 12 12 
				</DataArray>
			</Cells>
			<PointData>
				<DataArray type="Float32" Name="U" NumberOfComponents="3" ComponentName0="D1" ComponentName1="D2" ComponentName2="D3" format="ascii">
					 0.00000000E+00	 0.00000000E+00	 0.00000000E+00
					 0.00000000E+00	 0.00000000E+00	 0.00000000E+00
					 3.10806000E-03	 0.00000000E+00	-5.52714000E-04
					 3.51932000E-03	 0.00000000E+00	-6.71360000E-03
					 0.00000000E+00	 0.00000000E+00	 0.00000000E+00
					 0.00000000E+00	 0.00000000E+00	 0.00000000E+00
					 3.10806000E-03	 0.00000000E+00	-5.52714000E-04
					 3.51932000E-03	 0.00000000E+00	-6.71360000E-03
					 1.26227000E-02	 0.00000000E+00	-1.76791000E-03
					 1.17505000E-02	 0.00000000E+00	-1.35584000E-02
					 1.26227000E-02	 0.00000000E+00	-1.76791000E-03
					 1.17505000E-02	 0.00000000E+00	-1.35584000E-02
					 2.71570000E-02	 0.00000000E+00	-4.20048000E-03
					 2.48717000E-02	 0.00000000E+00	-2.07702000E-02
					 2.71570000E-02	 0.00000000E+00	-4.20048000E-03
					 2.48717000E-02	 0.00000000E+00	-2.07702000E-02
					 4.60037000E-02	 0.00000000E+00	-8.11105000E-03
					 4.20684000E-02	 0.00000000E+00	-2.86714000E-02
					 4.60037000E-02	 0.00000000E+00	-8.11105000E-03
					 4.20684000E-02	 0.00000000E+00	-2.86714000E-02
					 6.84048000E-02	 0.00000000E+00	-1.35814000E-02
					 6.27653000E-02	 0.00000000E+00	-3.74906000E-02
					 6.84048000E-02	 0.00000000E+00	-1.35814000E-02
					 6.27653000E-02	 0.00000000E+00	-3.74906000E-02
					 9.38020000E-02	 0.00000000E+00	-2.06417000E-02
					 8.64433000E-02	 0.00000000E+00	-4.74189000E-02
					 9.38020000E-02	 0.00000000E+00	-2.06417000E-02
					 8.64433000E-02	 0.00000000E+00	-4.74189000E-02
					 1.21818000E-01	 0.00000000E+00	-2.93260000E-02
					 1.12736000E-01	 0.00000000E+00	-5.86202000E-02
					 1.21818000E-01	 0.00000000E+00	-2.93260000E-02
					 1.12736000E-01	 0.00000000E+00	-5.86202000E-02
					 1.52178000E-01	 0.00000000E+00	-3.96715000E-02
					 1.41373000E-01	 0.00000000E+00	-7.11965000E-02
					 1.52178000E-01	 0.00000000E+00	-3.96715000E-02
					 1.41373000E-01	 0.00000000E+00	-7.11965000E-02
					 1.84627000E-01	 0.00000000E+00	-5.16837000E-02
					 1.72113000E-01	 0.00000000E+00	-8.51915000E-02
					 1.84627000E-01	 0.00000000E+00	-5.16837000E-02
					 1.72113000E-01	 0.00000000E+00	-8.51915000E-02
					 2.18930000E-01	 0.00000000E+00	-6.53483000E-02
					 2.04727000E-01	 0.00000000E+00	-1.00632000E-01
					 2.18930000E-01	 0.00000000E+00	-6.53483000E-02
					 2.04727000E-01	 0.00000000E+00	-1.00632000E-01
					 2.54915000E-01	 0.00000000E+00	-8.06705000E-02
					 2.39041000E-01	 0.00000000E+00	-1.17555000E-01
					 2.54915000E-01	 0.00000000E+00	-8.06705000E-02
					 2.39041000E-01	 0.00000000E+00	-1.17555000E-01
					 2.92453000E-01	 0.00000000E+00	-9.76640000E-02
					 2.74953000E-01	 0.00000000E+00	-1.35957000E-01
					 2.92453000E-01	 0.00000000E+00	-9.76640000E-02
					 2.74953000E-01	 0.00000000E+00	-1.35957000E-01
					 3.31371000E-01	 0.00000000E+00	-1.16254000E-01
					 3.12380000E-01	 0.00000000E+00	-1.55715000E-01
					 3.31371000E-01	 0.00000000E+00	-1.16254000E-01
					 3.12380000E-01	 0.00000000E+00	-1.55715000E-01
					 3.71410000E-01	 0.00000000E+00	-1.36221000E-01
					 3.51159000E-01	 0.00000000E+00	-1.76579000E-01
					 3.71410000E-01	 0.00000000E+00	-1.36221000E-01
					 3.51159000E-01	 0.00000000E+00	-1.76579000E-01
					 4.12280000E-01	 0.00000000E+00	-1.57258000E-01
					 3.91049000E-01	 0.00000000E+00	-1.98260000E-01
					 4.12280000E-01	 0.00000000E+00	-1.57258000E-01
					 3.91049000E-01	 0.00000000E+00	-1.98260000E-01
					 4.53718000E-01	 0.00000000E+00	-1.79068000E-01
					 4.31783000E-01	 0.00000000E+00	-2.20507000E-01
					 4.53718000E-01	 0.00000000E+00	-1.79068000E-01
					 4.31783000E-01	 0.00000000E+00	-2.20507000E-01
					 4.95507000E-01	 0.00000000E+00	-2.01398000E-01
					 4.73112000E-01	 0.00000000E+00	-2.43111000E-01
					 4.95507000E-01	 0.00000000E+00	-2.01398000E-01
					 4.73112000E-01	 0.00000000E+00	-2.43111000E-01
					 5.37476000E-01	 0.00000000E+00	-2.24034000E-01
					 5.14820000E-01	 0.00000000E+00	-2.65898000E-01
					 5.37476000E-01	 0.00000000E+00	-2.24034000E-01
					 5.14820000E-01	 0.00000000E+00	-2.65898000E-01
					 5.79500000E-01	 0.00000000E+00	-2.46809000E-01
					 5.56727000E-01	 0.00000000E+00	-2.88739000E-01
					 5.79500000E-01	 0.00000000E+00	-2.46809000E-01
					 5.56727000E-01	 0.00000000E+00	-2.88739000E-01
					 6.21505000E-01	 0.00000000E+00	-2.69607000E-01
					 5.98692000E-01	 0.00000000E+00	-3.11568000E-01
					 6.21505000E-01	 0.00000000E+00	-2.69607000E-01
					 5.98692000E-01	 0.00000000E+00	-3.11568000E-01
					 0.00000000E+00	 0.00000000E+00	 0.00000000E+00
					 4.51518000E-03	 0.00000000E+00	 5.43135000E-03
					 0.00000000E+00	 0.00000000E+00	 0.00000000E+00
					 4.51518000E-03	 0.00000000E+00	 5.43135000E-03
					 1.47440000E-02	 0.00000000E+00	 9.63540000E-03
					 1.47440000E-02	 0.00000000E+00	 9.63540000E-03
					 3.05413000E-02	 0.00000000E+00	 1.19004000E-02
					 3.05413000E-02	 0.00000000E+00	 1.19004000E-02
					 5.08520000E-02	 0.00000000E+00	 1.19833000E-02
					 5.08520000E-02	 0.00000000E+00	 1.19833000E-02
					 7.48232000E-02	 0.00000000E+00	 9.87407000E-03
					 7.48232000E-02	 0.00000000E+00	 9.87407000E-03
					 1.01841000E-01	 0.00000000E+00	 5.68584000E-03
					 1.01841000E-01	 0.00000000E+00	 5.68584000E-03
					 1.31497000E-01	 0.00000000E+00	-4.78626000E-04
					 1.31497000E-01	 0.00000000E+00	-4.78626000E-04
					 1.63515000E-01	 0.00000000E+00	-8.59010000E-03
					 1.63515000E-01	 0.00000000E+00	-8.59010000E-03
					 1.97614000E-01	 0.00000000E+00	-1.86124000E-02
					 1.97614000E-01	 0.00000000E+00	-1.86124000E-02
					 2.33560000E-01	 0.00000000E+00	-3.04975000E-02
					 2.33560000E-01	 0.00000000E+00	-3.04975000E-02
					 2.71169000E-01	 0.00000000E+00	-4.42098000E-02
					 2.71169000E-01	 0.00000000E+00	-4.42098000E-02
					 3.10280000E-01	 0.00000000E+00	-5.97719000E-02
					 3.10280000E-01	 0.00000000E+00	-5.97719000E-02
					 3.50626000E-01	 0.00000000E+00	-7.71446000E-02
					 3.50626000E-01	 0.00000000E+00	-7.71446000E-02
					 3.91863000E-01	 0.00000000E+00	-9.61467000E-02
					 3.91863000E-01	 0.00000000E+00	-9.61467000E-02
					 4.33653000E-01	 0.00000000E+00	-1.16466000E-01
					 4.33653000E-01	 0.00000000E+00	-1.16466000E-01
					 4.75745000E-01	 0.00000000E+00	-1.37776000E-01
					 4.75745000E-01	 0.00000000E+00	-1.37776000E-01
					 5.17954000E-01	 0.00000000E+00	-1.59779000E-01
					 5.17954000E-01	 0.00000000E+00	-1.59779000E-01
					 5.60154000E-01	 0.00000000E+00	-1.82223000E-01
					 5.60154000E-01	 0.00000000E+00	-1.82223000E-01
					 6.02276000E-01	 0.00000000E+00	-2.04903000E-01
					 6.02276000E-01	 0.00000000E+00	-2.04903000E-01
					 6.44299000E-01	 0.00000000E+00	-2.27669000E-01
					 6.44299000E-01	 0.00000000E+00	-2.27669000E-01
				</DataArray>
				<DataArray type="Float32" Name="S" NumberOfComponents="10" ComponentName0="xx" ComponentName1="yy" ComponentName2="zz" ComponentName3="xy" ComponentName4="yz" ComponentName5="zx" ComponentName6="Mises" ComponentName7="Min Principal" ComponentName8="Mid Principal" ComponentName9="Max Principal" format="ascii">
					-4.39013000E+03	-4.71827000E+03	-1.48754000E+04	 0.00000000E+00	 0.00000000E+00	 2.40592000E+03	 1.11343289E+04	-1.54010986E+04	-4.71827000E+03	-3.86443138E+03
					-6.56299000E+01	-3.03824000E+02	-1.96970000E+03	 0.00000000E+00	 0.00000000E+00	 2.96941000E+03	 5.44801508E+03	-4.13596040E+03	-3.03824000E+02	 2.10063050E+03
					-1.87479000E+02	-3.42445000E+02	-1.84530000E+03	-1.33614000E-08	-2.26655000E-08	 8.74933000E+01	 1.59324960E+03	-1.84990476E+03	-3.42445000E+02	-1.82874236E+02
					-2.11358000E+03	-3.85331000E+03	-1.36903000E+04	 1.42208000E-08	-1.96603000E-08	-9.45870000E+02	 1.09357556E+04	-1.37670727E+04	-3.85331000E+03	-2.03680730E+03
					-4.39013000E+03	-4.71827000E+03	-1.48754000E+04	 0.00000000E+00	 0.00000000E+00	 2.40592000E+03	 1.11343289E+04	-1.54010986E+04	-4.71827000E+03	-3.86443138E+03
					-6.56299000E+01	-3.03824000E+02	-1.96970000E+03	 0.00000000E+00	 0.00000000E+00	 2.96941000E+03	 5.44801508E+03	-4.13596040E+03	-3.03824000E+02	 2.10063050E+03
					-1.87479000E+02	-3.42445000E+02	-1.84530000E+03	-1.33612000E-08	-2.26656000E-08	 8.74933000E+01	 1.59324960E+03	-1.84990476E+03	-3.42445000E+02	-1.82874236E+02
					-2.11358000E+03	-3.85331000E+03	-1.36903000E+04	 1.42210000E-08	-1.96603000E-08	-9.45870000E+02	 1.09357556E+04	-1.37670727E+04	-3.85331000E+03	-2.03680730E+03
					-1.56596000E+02	-2.76206000E+02	-1.57249000E+03	-6.63432000E-08	-3.40630000E-08	 1.86488000E+02	 1.39787003E+03	-1.59664049E+03	-2.76206000E+02	-1.32445514E+02
					-2.76583000E+03	-3.58130000E+03	-1.22679000E+04	-5.91035000E-08	-1.97063000E-08	-2.08942000E+03	 9.81339393E+03	-1.27070490E+04	-3.58130000E+03	-2.32668104E+03
					-1.56596000E+02	-2.76206000E+02	-1.57249000E+03	-6.63431000E-08	-3.40629000E-08	 1.86488000E+02	 1.39787003E+03	-1.59664049E+03	-2.76206000E+02	-1.32445514E+02
					-2.76583000E+03	-3.58130000E+03	-1.22679000E+04	-5.91035000E-08	-1.97062000E-08	-2.08942000E+03	 9.81339393E+03	-1.27070490E+04	-3.58130000E+03	-2.32668104E+03
					-3.71048000E+01	-2.16400000E+02	-1.30355000E+03	-1.10960000E-07	-4.76611000E-08	 6.76355000E+01	 1.19276416E+03	-1.30715188E+03	-2.16400000E+02	-3.35029171E+01
					-2.64310000E+03	-3.02509000E+03	-1.03646000E+04	-9.23227000E-08	-3.21078000E-08	-2.61717000E+03	 8.79583306E+03	-1.11680723E+04	-3.02509000E+03	-1.83962773E+03
					-3.71048000E+01	-2.16400000E+02	-1.30355000E+03	-1.10960000E-07	-4.76608000E-08	 6.76355000E+01	 1.19276416E+03	-1.30715188E+03	-2.16400000E+02	-3.35029171E+01
					-2.64310000E+03	-3.02509000E+03	-1.03646000E+04	-9.23236000E-08	-3.21093000E-08	-2.61717000E+03	 8.79583306E+03	-1.11680723E+04	-3.02509000E+03	-1.83962773E+03
					 1.71088000E+00	-1.66594000E+02	-1.03973000E+03	-1.03511000E-07	-7.11243000E-08	 6.41596000E+00	 9.68385022E+02	-1.03976953E+03	-1.66594000E+02	 1.75040503E+00
					-2.73823000E+03	-2.59393000E+03	-8.65732000E+03	-1.01157000E-07	-5.60226000E-08	-2.86870000E+03	 7.78452906E+03	-9.81946716E+03	-2.59393000E+03	-1.57608284E+03
					 1.71088000E+00	-1.66594000E+02	-1.03973000E+03	-1.03512000E-07	-7.11246000E-08	 6.41596000E+00	 9.68385022E+02	-1.03976953E+03	-1.66594000E+02	 1.75040503E+00
					-2.73823000E+03	-2.59393000E+03	-8.65732000E+03	-1.01154000E-07	-5.60223000E-08	-2.86870000E+03	 7.78452906E+03	-9.81946716E+03	-2.59393000E+03	-1.57608284E+03
					-8.91076000E+00	-1.27933000E+02	-7.92734000E+02	-1.21169000E-07	-8.16528000E-08	-4.49367000E+01	 7.35738193E+02	-7.95301815E+02	-1.27933000E+02	-6.34294467E+00
					-2.83154000E+03	-2.25169000E+03	-7.23324000E+03	-1.16657000E-07	-8.12485000E-08	-2.93205000E+03	 6.93211845E+03	-8.69854029E+03	-2.25169000E+03	-1.36623971E+03
					-8.91076000E+00	-1.27933000E+02	-7.92734000E+02	-1.21172000E-07	-8.16522000E-08	-4.49367000E+01	 7.35738193E+02	-7.95301815E+02	-1.27933000E+02	-6.34294467E+00
					-2.83154000E+03	-2.25169000E+03	-7.23324000E+03	-1.16656000E-07	-8.12484000E-08	-2.93205000E+03	 6.93211845E+03	-8.69854029E+03	-2.25169000E+03	-1.36623971E+03
					-4.14845000E+01	-1.02906000E+02	-6.03620000E+02	-7.04041000E-08	-1.14013000E-07	-7.00667000E+01	 5.47694936E+02	-6.12221756E+02	-1.02906000E+02	-3.28827443E+01
					-2.95141000E+03	-2.00753000E+03	-6.13342000E+03	-6.85960000E-08	-1.28412000E-07	-2.91281000E+03	 6.28274773E+03	-7.86141470E+03	-2.00753000E+03	-1.22341530E+03
					-4.14845000E+01	-1.02906000E+02	-6.03620000E+02	-7.04003000E-08	-1.14013000E-07	-7.00667000E+01	 5.47694936E+02	-6.12221756E+02	-1.02906000E+02	-3.28827443E+01
					-2.95141000E+03	-2.00753000E+03	-6.13342000E+03	-6.85947000E-08	-1.28412000E-07	-2.91281000E+03	 6.28274773E+03	-7.86141470E+03	-2.00753000E+03	-1.22341530E+03
					-4.52440000E+01	-8.05620000E+01	-4.66012000E+02	-3.58647000E-08	-1.14751000E-07	-7.93134000E+01	 4.26970998E+02	-4.80465815E+02	-8.05620000E+01	-3.07901854E+01
					-3.05735000E+03	-1.82541000E+03	-5.27717000E+03	-4.50231000E-08	-1.24462000E-07	-2.84928000E+03	 5.79095429E+03	-7.22508549E+03	-1.82541000E+03	-1.10943451E+03
					-4.52440000E+01	-8.05620000E+01	-4.66012000E+02	-3.58683000E-08	-1.14751000E-07	-7.93134000E+01	 4.26970998E+02	-4.80465815E+02	-8.05620000E+01	-3.07901854E+01
					-3.05735000E+03	-1.82541000E+03	-5.27717000E+03	-4.50220000E-08	-1.24462000E-07	-2.84928000E+03	 5.79095429E+03	-7.22508549E+03	-1.82541000E+03	-1.10943451E+03
					-4.16173000E+01	-6.46083000E+01	-3.74405000E+02	-5.06645000E-09	-1.14569000E-07	-7.43594000E+01	 3.46717577E+02	-3.90264363E+02	-6.46083000E+01	-2.57579369E+01
					-3.13826000E+03	-1.67701000E+03	-4.57543000E+03	-1.32396000E-08	-1.22980000E-07	-2.74661000E+03	 5.37888216E+03	-6.69589958E+03	-1.67701000E+03	-1.01779042E+03
					-4.16173000E+01	-6.46083000E+01	-3.74405000E+02	-5.06718000E-09	-1.14570000E-07	-7.43594000E+01	 3.46717577E+02	-3.90264363E+02	-6.46083000E+01	-2.57579369E+01
					-3.13826000E+03	-1.67701000E+03	-4.57543000E+03	-1.32403000E-08	-1.22982000E-07	-2.74661000E+03	 5.37888216E+03	-6.69589958E+03	-1.67701000E+03	-1.01779042E+03
					-4.06051000E+01	-5.26521000E+01	-3.04227000E+02	 9.62412000E-09	-1.23521000E-07	-6.98105000E+01	 2.84756565E+02	-3.21572453E+02	-5.26521000E+01	-2.32596474E+01
					-3.20518000E+03	-1.55413000E+03	-3.98797000E+03	-3.47826000E-09	-1.24746000E-07	-2.62368000E+03	 5.02814498E+03	-6.24928810E+03	-1.55413000E+03	-9.43861900E+02
					-4.06051000E+01	-5.26521000E+01	-3.04227000E+02	 9.61344000E-09	-1.23522000E-07	-6.98105000E+01	 2.84756565E+02	-3.21572453E+02	-5.26521000E+01	-2.32596474E+01
					-3.20518000E+03	-1.55413000E+03	-3.98797000E+03	-3.46304000E-09	-1.24745000E-07	-2.62368000E+03	 5.02814498E+03	-6.24928810E+03	-1.55413000E+03	-9.43861900E+02
					-4.10661000E+01	-4.62145000E+01	-2.60942000E+02	 1.28933000E-08	-1.40952000E-07	-6.73651000E+01	 2.46686194E+02	-2.79939730E+02	-4.62145000E+01	-2.20683701E+01
					-3.26221000E+03	-1.45526000E+03	-3.50529000E+03	 3.00686000E-08	-1.38606000E-07	-2.49953000E+03	 4.74408477E+03	-5.88623321E+03	-1.45526000E+03	-8.81266795E+02
					-4.10661000E+01	-4.62145000E+01	-2.60942000E+02	 1.28949000E-08	-1.40951000E-07	-6.73651000E+01	 2.46686194E+02	-2.79939730E+02	-4.62145000E+01	-2.20683701E+01
					-3.26221000E+03	-1.45526000E+03	-3.50529000E+03	 3.00671000E-08	-1.38608000E-07	-2.49953000E+03	 4.74408477E+03	-5.88623321E+03	-1.45526000E+03	-8.81266795E+02
					 1.51694000E+00	-3.72278000E+01	-2.46805000E+02	-1.13914000E-08	-1.17538000E-07	-6.87576000E+01	 2.60243337E+02	-2.64572019E+02	-3.72278000E+01	 1.92839589E+01
					-3.24791000E+03	-1.35590000E+03	-3.08478000E+03	 2.22277000E-08	-9.55646000E-08	-2.35357000E+03	 4.46268360E+03	-5.52132793E+03	-1.35590000E+03	-8.11362071E+02
					 1.51694000E+00	-3.72278000E+01	-2.46805000E+02	-1.13915000E-08	-1.17538000E-07	-6.87576000E+01	 2.60243337E+02	-2.64572019E+02	-3.72278000E+01	 1.92839589E+01
					-3.24791000E+03	-1.35590000E+03	-3.08478000E+03	 2.22250000E-08	-9.55638000E-08	-2.35357000E+03	 4.46268360E+03	-5.52132793E+03	-1.35590000E+03	-8.11362071E+02
					 9.60156000E+01	-2.37201000E+01	-2.60874000E+02	-1.72487000E-08	-7.81703000E-08	-6.03577000E+01	 3.31517050E+02	-2.70805416E+02	-2.37201000E+01	 1.05947016E+02
					-3.05917000E+03	-1.21524000E+03	-2.65386000E+03	 1.10267000E-08	-4.47113000E-08	-2.12591000E+03	 4.04666168E+03	-4.99206232E+03	-1.21524000E+03	-7.20967675E+02
					 9.60156000E+01	-2.37201000E+01	-2.60874000E+02	-1.72577000E-08	-7.81663000E-08	-6.03577000E+01	 3.31517050E+02	-2.70805416E+02	-2.37201000E+01	 1.05947016E+02
					-3.05917000E+03	-1.21524000E+03	-2.65386000E+03	 1.10321000E-08	-4.47144000E-08	-2.12591000E+03	 4.04666168E+03	-4.99206232E+03	-1.21524000E+03	-7.20967675E+02
					 2.20101000E+02	-1.32531000E+00	-2.60140000E+02	-2.87799000E-08	-2.59339000E-08	-3.87999000E+01	 4.21710011E+02	-2.63254544E+02	-1.32531000E+00	 2.23215544E+02
					-2.64433000E+03	-1.01269000E+03	-2.16536000E+03	-1.15751000E-09	-5.21896000E-09	-1.78771000E+03	 3.42021576E+03	-4.20852460E+03	-1.01269000E+03	-6.01165397E+02
					 2.20101000E+02	-1.32531000E+00	-2.60140000E+02	-2.88049000E-08	-2.59313000E-08	-3.87999000E+01	 4.21710011E+02	-2.63254544E+02	-1.32531000E+00	 2.23215544E+02
					-2.64433000E+03	-1.01269000E+03	-2.16536000E+03	-1.15939000E-09	-5.20974000E-09	-1.78771000E+03	 3.42021576E+03	-4.20852460E+03	-1.01269000E+03	-6.01165397E+02
					 3.23168000E+02	 2.32487000E+01	-2.27904000E+02	-3.64686000E-08	 2.86999000E-08	-1.57456000E+00	 4.77872624E+02	-2.27908499E+02	 2.32487000E+01	 3.23172499E+02
					-2.06996000E+03	-7.73814000E+02	-1.65135000E+03	-1.78107000E-08	 4.60801000E-08	-1.37818000E+03	 2.64778954E+03	-3.25463803E+03	-7.73814000E+02	-4.66671967E+02
					 3.23168000E+02	 2.32487000E+01	-2.27904000E+02	-3.64516000E-08	 2.86959000E-08	-1.57455000E+00	 4.77872624E+02	-2.27908499E+02	 2.32487000E+01	 3.23172499E+02
					-2.06996000E+03	-7.73814000E+02	-1.65135000E+03	-1.78144000E-08	 4.60905000E-08	-1.37818000E+03	 2.64778954E+03	-3.25463803E+03	-7.73814000E+02	-4.66671967E+02
					 3.82322000E+02	 4.41714000E+01	-1.72106000E+02	-5.56562000E-08	 1.02102000E-07	 3.58055000E+01	 4.87957146E+02	-1.74408790E+02	 4.41714000E+01	 3.84624790E+02
					-1.45848000E+03	-5.41368000E+02	-1.17693000E+03	-4.41660000E-08	 1.05637000E-07	-9.72654000E+02	 1.87091404E+03	-2.30049359E+03	-5.41368000E+02	-3.34916414E+02
					 3.82322000E+02	 4.41714000E+01	-1.72106000E+02	-5.56569000E-08	 1.02115000E-07	 3.58055000E+01	 4.87957146E+02	-1.74408790E+02	 4.41714000E+01	 3.84624790E+02
					-1.45848000E+03	-5.41368000E+02	-1.17693000E+03	-4.41863000E-08	 1.05630000E-07	-9.72654000E+02	 1.87091404E+03	-2.30049359E+03	-5.41368000E+02	-3.34916414E+02
					 3.86027000E+02	 5.34302000E+01	-1.22765000E+02	-5.89634000E-08	 1.27324000E-07	 6.01426000E+01	 4.59476590E+02	-1.29777602E+02	 5.34302000E+01	 3.93039602E+02
					-9.08469000E+02	-3.44284000E+02	-7.84669000E+02	-7.25825000E-08	 1.20412000E-07	-6.24895000E+02	 1.19802602E+03	-1.47452232E+03	-3.44284000E+02	-2.18615681E+02
					 3.86027000E+02	 5.34302000E+01	-1.22765000E+02	-5.89385000E-08	 1.27316000E-07	 6.01426000E+01	 4.59476590E+02	-1.29777602E+02	 5.34302000E+01	 3.93039602E+02
					-9.08469000E+02	-3.44284000E+02	-7.84669000E+02	-7.26216000E-08	 1.20411000E-07	-6.24895000E+02	 1.19802602E+03	-1.47452232E+03	-3.44284000E+02	-2.18615681E+02
					 3.40359000E+02	 5.15137000E+01	-8.34452000E+01	-3.98031000E-08	 1.08251000E-07	 6.36894000E+01	 3.90892281E+02	-9.28095449E+01	 5.15137000E+01	 3.49723345E+02
					-4.71640000E+02	-1.91795000E+02	-4.78785000E+02	-5.75389000E-08	 9.49831000E-08	-3.54841000E+02	 6.76830978E+02	-8.30071483E+02	-1.91795000E+02	-1.20353517E+02
					 3.40359000E+02	 5.15137000E+01	-8.34452000E+01	-3.98022000E-08	 1.08256000E-07	 6.36894000E+01	 3.90892281E+02	-9.28095449E+01	 5.15137000E+01	 3.49723345E+02
					-4.71640000E+02	-1.91795000E+02	-4.78785000E+02	-5.75144000E-08	 9.49760000E-08	-3.54841000E+02	 6.76830978E+02	-8.30071483E+02	-1.91795000E+02	-1.20353517E+02
					 2.57276000E+02	 4.10004000E+01	-5.19564000E+01	-3.39395000E-08	 8.57545000E-08	 5.40647000E+01	 2.90326308E+02	-6.11362961E+01	 4.10004000E+01	 2.66455896E+02
					-1.72780000E+02	-8.52035000E+01	-2.51606000E+02	-3.35766000E-08	 8.10824000E-08	-1.63398000E+02	 3.17621167E+02	-3.80277178E+02	-8.52035000E+01	-4.41088218E+01
					 2.57276000E+02	 4.10004000E+01	-5.19564000E+01	-3.39369000E-08	 8.57462000E-08	 5.40647000E+01	 2.90326308E+02	-6.11362961E+01	 4.10004000E+01	 2.66455896E+02
					-1.72780000E+02	-8.52035000E+01	-2.51606000E+02	-3.35701000E-08	 8.10840000E-08	-1.63398000E+02	 3.17621167E+02	-3.80277178E+02	-8.52035000E+01	-4.41088218E+01
					 1.56660000E+02	 2.76050000E+01	-1.83551000E+01	-2.59856000E-08	 4.91036000E-08	 4.24715000E+01	 1.73523455E+02	-2.81172761E+01	 2.76050000E+01	 1.66422176E+02
					-2.88523000E+01	-2.69211000E+01	-1.05658000E+02	 6.56358000E-09	 6.19862000E-08	-4.92115000E+01	 1.15397086E+02	-1.29677507E+02	-2.69211000E+01	-4.83279326E+00
					 1.56660000E+02	 2.76050000E+01	-1.83551000E+01	-2.59712000E-08	 4.91074000E-08	 4.24715000E+01	 1.73523455E+02	-2.81172761E+01	 2.76050000E+01	 1.66422176E+02
					-2.88523000E+01	-2.69211000E+01	-1.05658000E+02	 6.59506000E-09	 6.19949000E-08	-4.92115000E+01	 1.15397086E+02	-1.29677507E+02	-2.69211000E+01	-4.83279326E+00
					 1.05050000E+02	 2.47941000E+01	 1.90990000E+01	-3.48132000E-08	 5.19959000E-08	 3.53213000E+01	 1.03311624E+02	 6.44637911E+00	 2.47941000E+01	 1.17702621E+02
					-3.30645000E+00	-5.74430000E+00	-2.54633000E+01	 5.44555000E-09	 8.70933000E-08	-1.15235000E+01	 2.90039169E+01	-3.03699478E+01	-5.74430000E+00	 1.60019781E+00
					 1.05050000E+02	 2.47941000E+01	 1.90990000E+01	-3.48245000E-08	 5.20049000E-08	 3.53213000E+01	 1.03311624E+02	 6.44637911E+00	 2.47941000E+01	 1.17702621E+02
					-3.30645000E+00	-5.74430000E+00	-2.54633000E+01	 5.50515000E-09	 8.70870000E-08	-1.15235000E+01	 2.90039169E+01	-3.03699478E+01	-5.74430000E+00	 1.60019781E+00
					 4.26316000E+03	 3.56167000E+03	 1.66867000E+04	-1.02041000E-09	 0.00000000E+00	 5.77292000E+03	 1.62336453E+04	 1.99479487E+03	 3.56167000E+03	 1.89550651E+04
					 1.56526000E+03	 2.85942000E+03	 1.51621000E+04	-3.66006000E-08	-5.11960000E-08	 2.42552000E+03	 1.36602293E+04	 1.14553192E+03	 2.85942000E+03	 1.55818281E+04
					 4.26316000E+03	 3.56167000E+03	 1.66867000E+04	-1.02035000E-09	 0.00000000E+00	 5.77292000E+03	 1.62336453E+04	 1.99479487E+03	 3.56167000E+03	 1.89550651E+04