<?xml version="1.0"?>
<VTKFile type="UnstructuredGrid" version="0.1" byte_order="LittleEndian">
	<UnstructuredGrid>
		<Piece NumberOfPoints="126" NumberOfCells="40">
			<Points>
				<DataArray type="Float64" NumberOfComponents="3" format="ascii">
					 5.00000000E-02	 0.00000000E+00	 0.00000000E+00
					 0.00000000E+00	 0.00000000E+00	 0.00000000E+00
					 0.00000000E+00	 0.00000000E+00	 5.00000000E-02
					 5.00000000E-02	 0.00000000E+00	 5.00000000E-02
					 5.00000000E-02	 3.00000000E-01	 0.00000000E+00
					 0.00000000E+00	 3.00000000E-01	 0.00000000E+00
					 0.00000000E+00	 3.00000000E-01	 5.00000000E-02
					 5.00000000E-02	 3.00000000E-01	 5.00000000E-02
					 0.00000000E+00	 0.00000000E+00	 1.00000000E-01
					 5.00000000E-02	 0.00000000E+00	 1.00000000E-01
					 0.00000000E+00	 3.00000000E-01	 1.00000000E-01
					 5.00000000E-02	 3.00000000E-01	 1.00000000E-01
					 0.00000000E+00	 0.00000000E+00	 1.50000000E-01
					 5.00000000E-02	 0.00000000E+00	 1.50000000E-01
					 0.00000000E+00	 3.00000000E-01	 1.50000000E-01
					 5.00000000E-02	 3.00000000E-01	 1.50000000E-01
					 0.00000000E+00	 0.00000000E+00	 2.00000000E-01
					 5.00000000E-02	 0.00000000E+00	 2.00000000E-01
					 0.00000000E+00	 3.00000000E-01	 2.00000000E-01
					 5.00000000E-02	 3.00000000E-01	 2.00000000E-01
					 0.00000000E+00	 0.00000000E+00	 2.50000000E-01
					 5.00000000E-02	 0.00000000E+00	 2.50000000E-01
					 0.00000000E+00	 3.00000000E-01	 2.50000000E-01
					 5.00000000E-02	 3.00000000E-01	 2.50000000E-01
					 0.00000000E+00	 0.00000000E+00	 3.00000000E-01
					 5.00000000E-02	 0.00000000E+00	 3.00000000E-01
					 0.00000000E+00	 3.00000000E-01	 3.00000000E-01
					 5.00000000E-02	 3.00000000E-01	 3.00000000E-01
					 0.00000000E+00	 0.00000000E+00	 3.50000000E-01
					 5.00000000E-02	 0.00000000E+00	 3.50000000E-01
					 0.00000000E+00	 3.00000000E-01	 3.50000000E-01
					 5.00000000E-02	 3.00000000E-01	 3.50000000E-01
					 0.00000000E+00	 0.00000000E+00	 4.00000000E-01
					 5.00000000E-02	 0.00000000E+00	 4.00000000E-01
					 0.00000000E+00	 3.00000000E-01	 4.00000000E-01
					 5.00000000E-02	 3.00000000E-01	 4.00000000E-01
					 0.00000000E+00	 0.00000000E+00	 4.50000000E-01
					 5.00000000E-02	 0.00000000E+00	 4.50000000E-01
					 0.00000000E+00	 3.00000000E-01	 4.50000000E-01
					 5.00000000E-02	 3.00000000E-01	 4.50000000E-01
					 0.00000000E+00	 0.00000000E+00	 5.00000000E-01
					 5.00000000E-02	 0.00000000E+00	 5.00000000E-01
					 0.00000000E+00	 3.00000000E-01	 5.00000000E-01
					 5.00000000E-02	 3.00000000E-01	 5.00000000E-01
					 0.00000000E+00	 0.00000000E+00	 5.50000000E-01
					 5.00000000E-02	 0.00000000E+00	 5.50000000E-01
					 0.00000000E+00	 3.00000000E-01	 5.50000000E-01
					 5.00000000E-02	 3.00000000E-01	 5.50000000E-01
					 0.00000000E+00	 0.00000000E+00	 6.00000000E-01
					 5.00000000E-02	 0.00000000E+00	 6.00000000E-01
					 0.00000000E+00	 3.00000000E-01	 6.00000000E-01
					 5.00000000E-02	 3.00000000E-01	 6.00000000E-01
					 0.00000000E+00	 0.00000000E+00	 6.50000000E-01
					 5.00000000E-02	 0.00000000E+00	 6.50000000E-01
					 0.00000000E+00	 3.00000000E-01	 6.50000000E-01
					 5.00000000E-02	 3.00000000E-01	 6.50000000E-01
					 0.00000000E+00	 0.00000000E+00	 7.00000000E-01
					 5.00000000E-02	 0.00000000E+00	 7.00000000E-01
					 0.00000000E+00	 3.00000000E-01	 7.00000000E-01
					 5.00000000E-02	 3.00000000E-01	 7.00000000E-01
					 0.00000000E+00	 0.00000000E+00	 7.50000000E-01
					 5.00000000E-02	 0.00000000E+00	 7.50000000E-01
					 0.00000000E+00	 3.00000000E-01	 7.50000000E-01
					 5.00000000E-02	 3.00000000E-01	 7.50000000E-01
					 0.00000000E+00	 0.00000000E+00	 8.00000000E-01
					 5.00000000E-02	 0.00000000E+00	 8.00000000E-01
					 0.00000000E+00	 3.00000000E-01	 8.00000000E-01
					 5.00000000E-02	 3.00000000E-01	 8.00000000E-01
					 0.00000000E+00	 0.00000000E+00	 8.50000000E-01
					 5.00000000E-02	 0.00000000E+00	 8.50000000E-01
					 0.00000000E+00	 3.00000000E-01	 8.50000000E-01
					 5.00000000E-02	 3.00000000E-01	 8.50000000E-01
					 0.00000000E+00	 0.00000000E+00	 9.00000000E-01
					 5.00000000E-02	 0.00000000E+00	 9.00000000E-01
					 0.00000000E+00	 3.00000000E-01	 9.00000000E-01
					 5.00000000E-02	 3.00000000E-01	 9.00000000E-01
					 0.00000000E+00	 0.00000000E+00	 9.50000000E-01
					 5.00000000E-02	 0.00000000E+00	 9.50000000E-01
					 0.00000000E+00	 3.00000000E-01	 9.50000000E-01
					 5.00000000E-02	 3.00000000E-01	 9.50000000E-01
					 0.00000000E+00	 0.00000000E+00	 1.00000000E+00
					 5.00000000E-02	 0.00000000E+00	 1.00000000E+00
					 0.00000000E+00	 3.00000000E-01	 1.00000000E+00
					 5.00000000E-02	 3.00000000E-01	 1.00000000E+00
					-5.00000000E-02	 0.00000000E+00	 0.00000000E+00
					-5.00000000E-02	 0.00000000E+00	 5.00000000E-02
					-5.00000000E-02	 3.00000000E-01	 0.00000000E+00
					-5.00000000E-02	 3.00000000E-01	 5.00000000E-02
					-5.00000000E-02	 0.00000000E+00	 1.00000000E-01
					-5.00000000E-02	 3.00000000E-01	 1.00000000E-01
					-5.00000000E-02	 0.00000000E+00	 1.50000000E-01
					-5.00000000E-02	 3.00000000E-01	 1.50000000E-01
					-5.00000000E-02	 0.00000000E+00	 2.00000000E-01
					-5.00000000E-02	 3.00000000E-01	 2.00000000E-01
					-5.00000000E-02	 0.00000000E+00	 2.50000000E-01
					-5.00000000E-02	 3.00000000E-01	 2.50000000E-01
					-5.00000000E-02	 0.00000000E+00	 3.00000000E-01
					-5.00000000E-02	 3.00000000E-01	 3.00000000E-01
					-5.00000000E-02	 0.00000000E+00	 3.50000000E-01
					-5.00000000E-02	 3.00000000E-01	 3.50000000E-01
					-5.00000000E-02	 0.00000000E+00	 4.00000000E-01
					-5.00000000E-02	 3.00000000E-01	 4.00000000E-01
					-5.00000000E-02	 0.00000000E+00	 4.50000000E-01
					-5.00000000E-02	 3.00000000E-01	 4.50000000E-01
					-5.00000000E-02	 0.00000000E+00	 5.00000000E-01
					-5.00000000E-02	 3.00000000E-01	 5.00000000E-01
					-5.00000000E-02	 0.00000000E+00	 5.50000000E-01
					-5.00000000E-02	 3.00000000E-01	 5.50000000E-01
					-5.00000000E-02	 0.00000000E+00	 6.00000000E-01
					-5.00000000E-02	 3.00000000E-01	 6.00000000E-01
					-5.00000000E-02	 0.00000000E+00	 6.50000000E-01
					-5.00000000E-02	 3.00000000E-01	 6.50000000E-01
					-5.00000000E-02	 0.00000000E+00	 7.00000000E-01
					-5.00000000E-02	 3.00000000E-01	 7.00000000E-01
					-5.00000000E-02	 0.00000000E+00	 7.50000000E-01
					-5.00000000E-02	 3.00000000E-01	 7.50000000E-01
					-5.00000000E-02	 0.00000000E+00	 8.00000000E-01
					-5.00000000E-02	 3.00000000E-01	 8.00000000E-01
					-5.00000000E-02	 0.00000000E+00	 8.50000000E-01
					-5.00000000E-02	 3.00000000E-01	 8.50000000E-01
					-5.00000000E-02	 0.00000000E+00	 9.00000000E-01
					-5.00000000E-02	 3.00000000E-01	 9.00000000E-01
					-5.00000000E-02	 0.00000000E+00	 9.50000000E-01
					-5.00000000E-02	 3.00000000E-01	 9.50000000E-01
					-5.00000000E-02	 0.00000000E+00	 1.00000000E+00
					-5.00000000E-02	 3.00000000E-01	 1.00000000E+00

				</DataArray>
			</Points>
			<Cells>
				<DataArray type="Int32" Name="connectivity" format="ascii">
					0 1 2 3 4 5 6 7 3 2 8 9 7 6 10 11 9 8 12 13 11 10 14 15 13 12 16 17 15 14 18 19 17 16 20 21 19 18 22 23 21 20 24 25 23 22 26 27 25 24 28 29 27 26 30 31 29 28 32 33 31 30 34 35 33 32 36 37 35 34 38 39 37 36 40 41 39 38 42 43 41 40 44 45 43 42 46 47 45 44 48 49 47 46 50 51 49 48 52 53 51 50 54 55 53 52 56 57 55 54 58 59 57 56 60 61 59 58 62 63 61 60 64 65 63 62 66 67 65 64 68 69 67 66 70 71 69 68 72 73 71 70 74 75 73 72 76 77 75 74 78 79 77 76 80 81 79 78 82 83 1 84 85 2 5 86 87 6 2 85 88 8 6 87 89 10 8 88 90 12 10 89 91 14 12 90 92 16 14 91 93 18 16 92 94 20 18 93 95 22 20 94 96 24 22 95 97 26 24 96 98 28 26 97 99 30 28 98 100 32 30 99 101 34 32 100 102 36 34 101 103 38 36 102 104 40 38 103 105 42 40 104 106 44 42 105 107 46 44 106 108 48 46 107 109 50 48 108 110 52 50 109 111 54 52 110 112 56 54 111 113 58 56 112 114 60 58 113 115 62 60 114 116 64 62 115 117 66 64 116 118 68 66 117 119 70 68 118 120 72 70 119 121 74 72 120 122 76 74 121 123 78 76 122 124 80 78 123 125 82 
				</DataArray>
				<DataArray type="Int32" Name="offsets" format="ascii">
					8 16 24 32 40 48 56 64 72 80 88 96 104 112 120 128 136 144 152 160 168 176 184 192 200 208 216 224 232 240 248 256 264 272 280 288 296 304 312 320 
				</DataArray>
				<DataArray type="UInt8" Name="types" format="ascii">
					12 12 12 12 12 12 12 12 12 12 12 12 12 12 12 12 12 12 12 12 12 12 12 12 12 12 12 12 12 12 12 12 12 12 12 12 12 12 12 12 
				</DataArray>
			</Cells>
			<PointData>
				<DataArray type="Float32" Name="U" NumberOfComponents="3" ComponentName0="D1" ComponentName1="D2" ComponentName2="D3" format="ascii">
					 0.00000000E+00	 0.00000000E+00	 0.00000000E+00
					 0.00000000E+00	 0.00000000E+00	 0.00000000E+00
					 3.12083000E-03	 0.00000000E+00	-4.77521000E-04
					 3.52289000E-03	 0.00000000E+00	-6.80190000E-03
					 0.00000000E+00	 0.00000000E+00	 0.00000000E+00
					 0.00000000E+00	 0.00000000E+00	 0.00000000E+00
					 3.12083000E-03	 0.00000000E+00	-4.77521000E-04
					 3.52289000E-03	 0.00000000E+00	-6.80190000E-03
					 1.27859000E-02	 0.00000000E+00	-1.65385000E-03
					 1.18256000E-02	 0.00000000E+00	-1.39229000E-02
					 1.27859000E-02	 0.00000000E+00	-1.65385000E-03
					 1.18256000E-02	 0.00000000E+00	-1.39229000E-02
					 2.77957000E-02	 0.00000000E+00	-4.20250000E-03
					 2.51932000E-02	 0.00000000E+00	-2.18269000E-02
					 2.77957000E-02	 0.00000000E+00	-4.20250000E-03
					 2.51932000E-02	 0.00000000E+00	-2.18269000E-02
					 4.78215000E-02	 0.00000000E+00	-8.61760000E-03
					 4.30830000E-02	 0.00000000E+00	-3.10899000E-02
					 4.78215000E-02	 0.00000000E+00	-8.61760000E-03
					 4.30830000E-02	 0.00000000E+00	-3.10899000E-02
					 7.24155000E-02	 0.00000000E+00	-1.52823000E-02
					 6.52084000E-02	 0.00000000E+00	-4.20962000E-02
					 7.24155000E-02	 0.00000000E+00	-1.52823000E-02
					 6.52084000E-02	 0.00000000E+00	-4.20962000E-02
					 1.01092000E-01	 0.00000000E+00	-2.44692000E-02
					 9.12053000E-02	 0.00000000E+00	-5.50805000E-02
					 1.01092000E-01	 0.00000000E+00	-2.44692000E-02
					 9.12053000E-02	 0.00000000E+00	-5.50805000E-02
					 1.33320000E-01	 0.00000000E+00	-3.63193000E-02
					 1.20676000E-01	 0.00000000E+00	-7.01737000E-02
					 1.33320000E-01	 0.00000000E+00	-3.63193000E-02
					 1.20676000E-01	 0.00000000E+00	-7.01737000E-02
					 1.68565000E-01	 0.00000000E+00	-5.08580000E-02
					 1.53208000E-01	 0.00000000E+00	-8.74172000E-02
					 1.68565000E-01	 0.00000000E+00	-5.08580000E-02
					 1.53208000E-01	 0.00000000E+00	-8.74172000E-02
					 2.06317000E-01	 0.00000000E+00	-6.80012000E-02
					 1.88402000E-01	 0.00000000E+00	-1.06757000E-01
					 2.06317000E-01	 0.00000000E+00	-6.80012000E-02
					 1.88402000E-01	 0.00000000E+00	-1.06757000E-01
					 2.46090000E-01	 0.00000000E+00	-8.75531000E-02
					 2.25878000E-01	 0.00000000E+00	-1.28034000E-01
					 2.46090000E-01	 0.00000000E+00	-8.75531000E-02
					 2.25878000E-01	 0.00000000E+00	-1.28034000E-01
					 2.87416000E-01	 0.00000000E+00	-1.09198000E-01
					 2.65252000E-01	 0.00000000E+00	-1.50980000E-01
					 2.87416000E-01	 0.00000000E+00	-1.09198000E-01
					 2.65252000E-01	 0.00000000E+00	-1.50980000E-01
					 3.29875000E-01	 0.00000000E+00	-1.32539000E-01
					 3.06128000E-01	 0.00000000E+00	-1.75278000E-01
					 3.29875000E-01	 0.00000000E+00	-1.32539000E-01
					 3.06128000E-01	 0.00000000E+00	-1.75278000E-01
					 3.73138000E-01	 0.00000000E+00	-1.57199000E-01
					 3.48127000E-01	 0.00000000E+00	-2.00648000E-01
					 3.73138000E-01	 0.00000000E+00	-1.57199000E-01
					 3.48127000E-01	 0.00000000E+00	-2.00648000E-01
					 4.16995000E-01	 0.00000000E+00	-1.82914000E-01
					 3.90949000E-01	 0.00000000E+00	-2.26915000E-01
					 4.16995000E-01	 0.00000000E+00	-1.82914000E-01
					 3.90949000E-01	 0.00000000E+00	-2.26915000E-01
					 4.61333000E-01	 0.00000000E+00	-2.09541000E-01
					 4.34417000E-01	 0.00000000E+00	-2.53983000E-01
					 4.61333000E-01	 0.00000000E+00	-2.09541000E-01
					 4.34417000E-01	 0.00000000E+00	-2.53983000E-01
					 5.06072000E-01	 0.00000000E+00	-2.36970000E-01
					 4.78442000E-01	 0.00000000E+00	-2.81754000E-01
					 5.06072000E-01	 0.00000000E+00	-2.36970000E-01
					 4.78442000E-01	 0.00000000E+00	-2.81754000E-01
					 5.51111000E-01	 0.00000000E+00	-2.65039000E-01
					 5.22955000E-01	 0.00000000E+00	-3.10059000E-01
					 5.51111000E-01	 0.00000000E+00	-2.65039000E-01
					 5.22955000E-01	 0.00000000E+00	-3.10059000E-01
					 5.96327000E-01	 0.00000000E+00	-2.93523000E-01
					 5.67850000E-01	 0.00000000E+00	-3.38676000E-01
					 5.96327000E-01	 0.00000000E+00	-2.93523000E-01
					 5.67850000E-01	 0.00000000E+00	-3.38676000E-01
					 6.41608000E-01	 0.00000000E+00	-3.22190000E-01
					 6.12982000E-01	 0.00000000E+00	-3.67395000E-01
					 6.41608000E-01	 0.00000000E+00	-3.22190000E-01
					 6.12982000E-01	 0.00000000E+00	-3.67395000E-01
					 6.86878000E-01	 0.00000000E+00	-3.50866000E-01
					 6.58201000E-01	 0.00000000E+00	-3.96096000E-01
					 6.86878000E-01	 0.00000000E+00	-3.50866000E-01
					 6.58201000E-01	 0.00000000E+00	-3.96096000E-01
					 0.00000000E+00	 0.00000000E+00	 0.00000000E+00
					 4.60464000E-03	 0.00000000E+00	 5.68531000E-03
					 0.00000000E+00	 0.00000000E+00	 0.00000000E+00
					 4.60464000E-03	 0.00000000E+00	 5.68531000E-03
					 1.51115000E-02	 0.00000000E+00	 1.02224000E-02
					 1.51115000E-02	 0.00000000E+00	 1.02224000E-02
					 3.16889000E-02	 0.00000000E+00	 1.28939000E-02
					 3.16889000E-02	 0.00000000E+00	 1.28939000E-02
					 5.37141000E-02	 0.00000000E+00	 1.32434000E-02
					 5.37141000E-02	 0.00000000E+00	 1.32434000E-02
					 8.06422000E-02	 0.00000000E+00	 1.08532000E-02
					 8.06422000E-02	 0.00000000E+00	 1.08532000E-02
					 1.11857000E-01	 0.00000000E+00	 5.42686000E-03
					 1.11857000E-01	 0.00000000E+00	 5.42686000E-03
					 1.46697000E-01	 0.00000000E+00	-3.17985000E-03
					 1.46697000E-01	 0.00000000E+00	-3.17985000E-03
					 1.84523000E-01	 0.00000000E+00	-1.49856000E-02
					 1.84523000E-01	 0.00000000E+00	-1.49856000E-02
					 2.24709000E-01	 0.00000000E+00	-2.98770000E-02
					 2.24709000E-01	 0.00000000E+00	-2.98770000E-02
					 2.66666000E-01	 0.00000000E+00	-4.76254000E-02
					 2.66666000E-01	 0.00000000E+00	-4.76254000E-02
					 3.09849000E-01	 0.00000000E+00	-6.78711000E-02
					 3.09849000E-01	 0.00000000E+00	-6.78711000E-02
					 3.53823000E-01	 0.00000000E+00	-9.01634000E-02
					 3.53823000E-01	 0.00000000E+00	-9.01634000E-02
					 3.98303000E-01	 0.00000000E+00	-1.14041000E-01
					 3.98303000E-01	 0.00000000E+00	-1.14041000E-01
					 4.43164000E-01	 0.00000000E+00	-1.39155000E-01
					 4.43164000E-01	 0.00000000E+00	-1.39155000E-01
					 4.88347000E-01	 0.00000000E+00	-1.65301000E-01
					 4.88347000E-01	 0.00000000E+00	-1.65301000E-01
					 5.33773000E-01	 0.00000000E+00	-1.92346000E-01
					 5.33773000E-01	 0.00000000E+00	-1.92346000E-01
					 5.79310000E-01	 0.00000000E+00	-2.20130000E-01
					 5.79310000E-01	 0.00000000E+00	-2.20130000E-01
					 6.24826000E-01	 0.00000000E+00	-2.48432000E-01
					 6.24826000E-01	 0.00000000E+00	-2.48432000E-01
					 6.70236000E-01	 0.00000000E+00	-2.77008000E-01
					 6.70236000E-01	 0.00000000E+00	-2.77008000E-01
					 7.15530000E-01	 0.00000000E+00	-3.05658000E-01
					 7.15530000E-01	 0.00000000E+00	-3.05658000E-01
				</DataArray>
				<DataArray type="Float32" Name="S" NumberOfComponents="10" ComponentName0="xx" ComponentName1="yy" ComponentName2="zz" ComponentName3="xy" ComponentName4="yz" ComponentName5="zx" ComponentName6="Mises" ComponentName7="Min Principal" ComponentName8="Mid Principal" ComponentName9="Max Principal" format="ascii">
					-4.46522000E+03	-4.78614000E+03	-1.50587000E+04	 0.00000000E+00	 0.00000000E+00	 2.39450000E+03	 1.12305850E+04	-1.55747979E+04	-4.78614000E+03	-3.94912206E+03
					-2.03473000E+01	-2.52797000E+02	-1.81896000E+03	 0.00000000E+00	 0.00000000E+00	 2.98769000E+03	 5.44516557E+03	-4.03975676E+03	-2.52797000E+02	 2.20044946E+03
					-2.07706000E+02	-3.09046000E+02	-1.71359000E+03	 0.00000000E+00	-1.99114000E-08	-1.03355000E+00	 1.45785916E+03	-1.71359071E+03	-3.09046000E+02	-2.07705291E+02
					-2.23992000E+03	-3.97251000E+03	-1.39993000E+04	 1.86306000E-08	-2.92562000E-08	-1.07912000E+03	 1.11536632E+04	-1.40975072E+04	-3.97251000E+03	-2.14171284E+03
					-4.46522000E+03	-4.78614000E+03	-1.50587000E+04	 0.00000000E+00	 0.00000000E+00	 2.39450000E+03	 1.12305850E+04	-1.55747979E+04	-4.78614000E+03	-3.94912206E+03
					-2.03473000E+01	-2.52797000E+02	-1.81896000E+03	 0.00000000E+00	 0.00000000E+00	 2.98769000E+03	 5.44516557E+03	-4.03975676E+03	-2.52797000E+02	 2.20044946E+03
					-2.07706000E+02	-3.09046000E+02	-1.71359000E+03	 0.00000000E+00	-1.99113000E-08	-1.03355000E+00	 1.45785916E+03	-1.71359071E+03	-3.09046000E+02	-2.07705291E+02
					-2.23992000E+03	-3.97251000E+03	-1.39993000E+04	 1.86306000E-08	-2.92560000E-08	-1.07912000E+03	 1.11536632E+04	-1.40975072E+04	-3.97251000E+03	-2.14171284E+03
					-2.59874000E+02	-2.63358000E+02	-1.48971000E+03	 1.41278000E-08	-3.70169000E-08	 1.83683000E+01	 1.22850973E+03	-1.48998428E+03	-2.63358000E+02	-2.59599720E+02
					-3.12680000E+03	-3.87133000E+03	-1.29501000E+04	 3.20100000E-08	-2.98364000E-08	-2.43913000E+03	 1.03723610E+04	-1.35223957E+04	-3.87133000E+03	-2.55450426E+03
					-2.59874000E+02	-2.63358000E+02	-1.48971000E+03	 1.41283000E-08	-3.70171000E-08	 1.83683000E+01	 1.22850973E+03	-1.48998428E+03	-2.63358000E+02	-2.59599720E+02
					-3.12680000E+03	-3.87133000E+03	-1.29501000E+04	 3.20095000E-08	-2.98362000E-08	-2.43913000E+03	 1.03723610E+04	-1.35223957E+04	-3.87133000E+03	-2.55450426E+03
					-2.36820000E+02	-2.37020000E+02	-1.30753000E+03	 8.93506000E-09	-3.98810000E-08	-1.59694000E+02	 1.10576323E+03	-1.33084051E+03	-2.37020000E+02	-2.13509492E+02
					-3.38443000E+03	-3.55312000E+03	-1.15497000E+04	 1.41689000E-08	-2.09430000E-08	-3.29195000E+03	 9.89108161E+03	-1.27115710E+04	-3.55312000E+03	-2.22255898E+03
					-2.36820000E+02	-2.37020000E+02	-1.30753000E+03	 8.93488000E-09	-3.98807000E-08	-1.59694000E+02	 1.10576323E+03	-1.33084051E+03	-2.37020000E+02	-2.13509492E+02
					-3.38443000E+03	-3.55312000E+03	-1.15497000E+04	 1.41674000E-08	-2.09438000E-08	-3.29195000E+03	 9.89108161E+03	-1.27115710E+04	-3.55312000E+03	-2.22255898E+03
					-2.33996000E+02	-2.10650000E+02	-1.13804000E+03	 1.44559000E-08	-2.33119000E-08	-2.17859000E+02	 9.90623053E+02	-1.18780125E+03	-2.10650000E+02	-1.84234748E+02
					-3.93670000E+03	-3.33633000E+03	-1.02286000E+04	 1.49000000E-08	-2.57153000E-08	-3.88118000E+03	 9.42955950E+03	-1.20787044E+04	-3.33633000E+03	-2.08659560E+03
					-2.33996000E+02	-2.10650000E+02	-1.13804000E+03	 1.44547000E-08	-2.33119000E-08	-2.17859000E+02	 9.90623053E+02	-1.18780125E+03	-2.10650000E+02	-1.84234748E+02
					-3.93670000E+03	-3.33633000E+03	-1.02286000E+04	 1.49001000E-08	-2.57148000E-08	-3.88118000E+03	 9.42955950E+03	-1.20787044E+04	-3.33633000E+03	-2.08659560E+03
					-1.93764000E+02	-1.75008000E+02	-9.59691000E+02	 2.29438000E-08	-2.56968000E-08	-2.20353000E+02	 8.64307826E+02	-1.01856060E+03	-1.75008000E+02	-1.34894401E+02
					-4.42606000E+03	-3.09254000E+03	-8.85846000E+03	 2.54835000E-08	-3.04390000E-08	-4.16241000E+03	 8.90573469E+03	-1.13578935E+04	-3.09254000E+03	-1.92662648E+03
					-1.93764000E+02	-1.75008000E+02	-9.59691000E+02	 2.29441000E-08	-2.56982000E-08	-2.20353000E+02	 8.64307826E+02	-1.01856060E+03	-1.75008000E+02	-1.34894401E+02
					-4.42606000E+03	-3.09254000E+03	-8.85846000E+03	 2.54838000E-08	-3.04369000E-08	-4.16241000E+03	 8.90573469E+03	-1.13578935E+04	-3.09254000E+03	-1.92662648E+03
					-1.15225000E+02	-1.33378000E+02	-7.90142000E+02	-4.85111000E-09	-2.85072000E-08	-1.85312000E+02	 7.39332356E+02	-8.37675418E+02	-1.33378000E+02	-6.76915825E+01
					-4.78335000E+03	-2.81646000E+03	-7.48023000E+03	 1.18082000E-08	-2.41168000E-08	-4.16732000E+03	 8.27924829E+03	-1.05118410E+04	-2.81646000E+03	-1.75173904E+03
					-1.15225000E+02	-1.33378000E+02	-7.90142000E+02	-4.85334000E-09	-2.85069000E-08	-1.85312000E+02	 7.39332356E+02	-8.37675418E+02	-1.33378000E+02	-6.76915825E+01
					-4.78335000E+03	-2.81646000E+03	-7.48023000E+03	 1.18106000E-08	-2.41169000E-08	-4.16732000E+03	 8.27924829E+03	-1.05118410E+04	-2.81646000E+03	-1.75173904E+03
					 5.58236000E-01	-8.76587000E+01	-6.36231000E+02	-3.46567000E-08	-2.96564000E-08	-1.40534000E+02	 6.45256987E+02	-6.65866464E+02	-8.76587000E+01	 3.01936999E+01
					-4.94369000E+03	-2.51526000E+03	-6.17119000E+03	-1.32756000E-08	-2.51537000E-08	-3.95076000E+03	 7.56375833E+03	-9.55558878E+03	-2.51526000E+03	-1.55929122E+03
					 5.58236000E-01	-8.76587000E+01	-6.36231000E+02	-3.46553000E-08	-2.96565000E-08	-1.40534000E+02	 6.45256987E+02	-6.65866464E+02	-8.76587000E+01	 3.01936999E+01
					-4.94369000E+03	-2.51526000E+03	-6.17119000E+03	-1.32794000E-08	-2.51537000E-08	-3.95076000E+03	 7.56375833E+03	-9.55558878E+03	-2.51526000E+03	-1.55929122E+03
					 1.32513000E+02	-4.62122000E+01	-5.19092000E+02	-2.37796000E-08	-6.72172000E-08	-9.51016000E+01	 6.05975645E+02	-5.32688356E+02	-4.62122000E+01	 1.46109356E+02
					-4.87808000E+03	-2.19861000E+03	-4.98896000E+03	-8.29937000E-09	-6.51784000E-08	-3.57523000E+03	 6.77021138E+03	-8.50917982E+03	-2.19861000E+03	-1.35786018E+03
					 1.32513000E+02	-4.62122000E+01	-5.19092000E+02	-2.37807000E-08	-6.72174000E-08	-9.51016000E+01	 6.05975645E+02	-5.32688356E+02	-4.62122000E+01	 1.46109356E+02
					-4.87808000E+03	-2.19861000E+03	-4.98896000E+03	-8.30199000E-09	-6.51821000E-08	-3.57523000E+03	 6.77021138E+03	-8.50917982E+03	-2.19861000E+03	-1.35786018E+03
					 2.71806000E+02	-9.31814000E+00	-4.33823000E+02	-2.80602000E-08	-7.54744000E-08	-6.10511000E+01	 6.24303958E+02	-4.39066188E+02	-9.31814000E+00	 2.77049188E+02
					-4.56799000E+03	-1.86730000E+03	-3.94872000E+03	-2.91683000E-08	-7.87200000E-08	-3.09341000E+03	 5.89171637E+03	-7.36722284E+03	-1.86730000E+03	-1.14948716E+03
					 2.71806000E+02	-9.31814000E+00	-4.33823000E+02	-2.80598000E-08	-7.54750000E-08	-6.10511000E+01	 6.24303958E+02	-4.39066188E+02	-9.31814000E+00	 2.77049188E+02
					-4.56799000E+03	-1.86730000E+03	-3.94872000E+03	-2.91659000E-08	-7.87175000E-08	-3.09341000E+03	 5.89171637E+03	-7.36722284E+03	-1.86730000E+03	-1.14948716E+03
					 3.90995000E+02	 2.16164000E+01	-3.63284000E+02	-1.71724000E-08	-9.17710000E-08	-4.04461000E+01	 6.57016362E+02	-3.65446608E+02	 2.16164000E+01	 3.93157608E+02
					-4.02769000E+03	-1.52401000E+03	-3.04126000E+03	-5.64570000E-08	-1.14205000E-07	-2.55484000E+03	 4.93491387E+03	-6.13648739E+03	-1.52401000E+03	-9.32462613E+02
					 3.90995000E+02	 2.16164000E+01	-3.63284000E+02	-1.71635000E-08	-9.17739000E-08	-4.04461000E+01	 6.57016362E+02	-3.65446608E+02	 2.16164000E+01	 3.93157608E+02
					-4.02769000E+03	-1.52401000E+03	-3.04126000E+03	-5.64544000E-08	-1.14202000E-07	-2.55484000E+03	 4.93491387E+03	-6.13648739E+03	-1.52401000E+03	-9.32462613E+02
					 4.56940000E+02	 4.49567000E+01	-2.85236000E+02	 4.08956000E-09	-1.22879000E-07	-2.46563000E+01	 6.45457308E+02	-2.86054221E+02	 4.49567000E+01	 4.57758221E+02
					-3.35501000E+03	-1.19367000E+03	-2.27413000E+03	-1.74757000E-08	-1.41349000E-07	-2.01520000E+03	 3.96063582E+03	-4.90097994E+03	-1.19367000E+03	-7.28160061E+02
					 4.56940000E+02	 4.49567000E+01	-2.85236000E+02	 4.08508000E-09	-1.22881000E-07	-2.46563000E+01	 6.45457308E+02	-2.86054221E+02	 4.49567000E+01	 4.57758221E+02
					-3.35501000E+03	-1.19367000E+03	-2.27413000E+03	-1.74709000E-08	-1.41343000E-07	-2.01520000E+03	 3.96063582E+03	-4.90097994E+03	-1.19367000E+03	-7.28160061E+02
					 4.53117000E+02	 5.76191000E+01	-1.98912000E+02	 6.25289000E-09	-1.14733000E-07	-1.78074000E+00	 5.68940962E+02	-1.98916863E+02	 5.76191000E+01	 4.53121863E+02
					-2.70429000E+03	-9.13461000E+02	-1.66596000E+03	 8.31231000E-09	-1.05343000E-07	-1.54049000E+03	 3.08950717E+03	-3.81074542E+03	-9.13461000E+02	-5.59504584E+02
					 4.53117000E+02	 5.76191000E+01	-1.98912000E+02	 6.23123000E-09	-1.14739000E-07	-1.78074000E+00	 5.68940962E+02	-1.98916863E+02	 5.76191000E+01	 4.53121863E+02
					-2.70429000E+03	-9.13461000E+02	-1.66596000E+03	 8.31259000E-09	-1.05334000E-07	-1.54049000E+03	 3.08950717E+03	-3.81074542E+03	-9.13461000E+02	-5.59504584E+02
					 4.05277000E+02	 6.14087000E+01	-1.19608000E+02	-1.00895000E-08	-7.30479000E-08	 2.37743000E+01	 4.63631330E+02	-1.20682640E+02	 6.14087000E+01	 4.06351640E+02
					-2.19669000E+03	-7.08669000E+02	-1.22966000E+03	 1.42095000E-08	-4.90351000E-08	-1.17852000E+03	 2.42427736E+03	-2.98702591E+03	-7.08669000E+02	-4.39324088E+02
					 4.05277000E+02	 6.14087000E+01	-1.19608000E+02	-1.00811000E-08	-7.30489000E-08	 2.37743000E+01	 4.63631330E+02	-1.20682640E+02	 6.14087000E+01	 4.06351640E+02
					-2.19669000E+03	-7.08669000E+02	-1.22966000E+03	 1.41846000E-08	-4.90593000E-08	-1.17852000E+03	 2.42427736E+03	-2.98702591E+03	-7.08669000E+02	-4.39324088E+02
					 3.57805000E+02	 5.97341000E+01	-7.23459000E+01	-3.50749000E-08	-7.54339000E-09	 3.69313000E+01	 3.86978494E+02	-7.54936617E+01	 5.97341000E+01	 3.60952762E+02
					-1.83008000E+03	-5.69501000E+02	-9.41867000E+02	 0.00000000E+00	 1.79965000E-08	-9.31217000E+02	 1.96464104E+03	-2.41766904E+03	-5.69501000E+02	-3.54277961E+02
					 3.57805000E+02	 5.97341000E+01	-7.23459000E+01	-3.50864000E-08	-7.53620000E-09	 3.69313000E+01	 3.86978494E+02	-7.54936617E+01	 5.97341000E+01	 3.60952762E+02
					-1.83008000E+03	-5.69501000E+02	-9.41867000E+02	 0.00000000E+00	 1.79934000E-08	-9.31217000E+02	 1.96464104E+03	-2.41766904E+03	-5.69501000E+02	-3.54277961E+02
					 3.34655000E+02	 5.55757000E+01	-6.44418000E+01	-5.21943000E-08	 4.44199000E-08	 2.77393000E+01	 3.57899793E+02	-6.63606001E+01	 5.55757000E+01	 3.36573800E+02
					-1.50603000E+03	-4.60985000E+02	-7.48597000E+02	-8.88591000E-09	 6.55496000E-08	-7.51558000E+02	 1.60274468E+03	-1.96889868E+03	-4.60985000E+02	-2.85728320E+02
					 3.34655000E+02	 5.55757000E+01	-6.44418000E+01	-5.21901000E-08	 4.44252000E-08	 2.77393000E+01	 3.57899793E+02	-6.63606001E+01	 5.55757000E+01	 3.36573800E+02
					-1.50603000E+03	-4.60985000E+02	-7.48597000E+02	-8.91493000E-09	 6.55675000E-08	-7.51558000E+02	 1.60274468E+03	-1.96889868E+03	-4.60985000E+02	-2.85728320E+02
					 3.23110000E+02	 5.00637000E+01	-7.66201000E+01	-7.89281000E-08	 7.77991000E-08	 2.54892000E+00	 3.53854633E+02	-7.66363528E+01	 5.00637000E+01	 3.23126253E+02
					-1.13180000E+03	-3.48614000E+02	-5.81742000E+02	-3.25461000E-08	 8.98125000E-08	-5.85997000E+02	 1.23098491E+03	-1.50409892E+03	-3.48614000E+02	-2.09443081E+02
					 3.23110000E+02	 5.00637000E+01	-7.66201000E+01	-7.89163000E-08	 7.77859000E-08	 2.54892000E+00	 3.53854633E+02	-7.66363528E+01	 5.00637000E+01	 3.23126253E+02
					-1.13180000E+03	-3.48614000E+02	-5.81742000E+02	-3.25279000E-08	 8.98074000E-08	-5.85997000E+02	 1.23098491E+03	-1.50409892E+03	-3.48614000E+02	-2.09443081E+02
					 2.95351000E+02	 4.29414000E+01	-8.20401000E+01	-8.65504000E-08	 9.01855000E-08	-2.04060000E+01	 3.34853291E+02	-8.31402703E+01	 4.29414000E+01	 2.96451170E+02
					-7.08804000E+02	-2.26199000E+02	-4.09221000E+02	-7.50360000E-08	 9.71289000E-08	-4.07968000E+02	 8.23037650E+02	-9.93610455E+02	-2.26199000E+02	-1.24414545E+02
					 2.95351000E+02	 4.29414000E+01	-8.20401000E+01	-8.65399000E-08	 9.01811000E-08	-2.04060000E+01	 3.34853291E+02	-8.31402703E+01	 4.29414000E+01	 2.96451170E+02
					-7.08804000E+02	-2.26199000E+02	-4.09221000E+02	-7.50334000E-08	 9.71598000E-08	-4.07968000E+02	 8.23037650E+02	-9.93610455E+02	-2.26199000E+02	-1.24414545E+02
					 2.38261000E+02	 3.48453000E+01	-6.42170000E+01	-8.16781000E-08	 8.34727000E-08	-2.54262000E+01	 2.70705723E+02	-6.63394253E+01	 3.48453000E+01	 2.40383425E+02
					-3.21400000E+02	-1.11906000E+02	-2.34661000E+02	-9.46825000E-08	 7.66854000E-08	-2.30486000E+02	 4.38875243E+02	-5.12561329E+02	-1.11906000E+02	-4.34996711E+01
					 2.38261000E+02	 3.48453000E+01	-6.42170000E+01	-8.16724000E-08	 8.34762000E-08	-2.54262000E+01	 2.70705723E+02	-6.63394253E+01	 3.48453000E+01	 2.40383425E+02
					-3.21400000E+02	-1.11906000E+02	-2.34661000E+02	-9.46333000E-08	 7.66737000E-08	-2.30486000E+02	 4.38875243E+02	-5.12561329E+02	-1.11906000E+02	-4.34996711E+01
					 1.59354000E+02	 2.65533000E+01	-2.64470000E+01	-6.84187000E-08	 6.05308000E-08	-5.31864000E+00	 1.66037341E+02	-2.65991240E+01	 2.65533000E+01	 1.59506124E+02
					-8.27701000E+01	-3.69013000E+01	-1.01354000E+02	-8.97183000E-08	 4.83335000E-08	-8.87342000E+01	 1.64082309E+02	-1.81281435E+02	-3.69013000E+01	-2.84266542E+00
					 1.59354000E+02	 2.65533000E+01	-2.64470000E+01	-6.84813000E-08	 6.05418000E-08	-5.31864000E+00	 1.66037341E+02	-2.65991240E+01	 2.65533000E+01	 1.59506124E+02
					-8.27701000E+01	-3.69013000E+01	-1.01354000E+02	-8.97611000E-08	 4.83219000E-08	-8.87342000E+01	 1.64082309E+02	-1.81281435E+02	-3.69013000E+01	-2.84266542E+00
					 1.18099000E+02	 2.68236000E+01	 1.61917000E+01	-6.22789000E-08	 4.69906000E-08	 1.05129000E+01	 9.87229966E+01	 1.51184770E+01	 2.68236000E+01	 1.19172223E+02
					-1.95536000E+01	-7.97851000E+00	-2.03785000E+01	-7.91771000E-08	 3.68958000E-08	-2.71120000E+01	 4.84705384E+01	-4.70811871E+01	-7.97851000E+00	 7.14908708E+00
					 1.18099000E+02	 2.68236000E+01	 1.61917000E+01	-6.22098000E-08	 4.69848000E-08	 1.05129000E+01	 9.87229966E+01	 1.51184770E+01	 2.68236000E+01	 1.19172223E+02
					-1.95536000E+01	-7.97851000E+00	-2.03785000E+01	-7.92064000E-08	 3.69554000E-08	-2.71120000E+01	 4.84705384E+01	-4.70811871E+01	-7.97851000E+00	 7.14908708E+00
					 4.44555000E+03	 3.71867000E+03	 1.75732000E+04	 0.00000000E+00	 0.00000000E+00	 5.94752000E+03	 1.69860165E+04	 2.15179109E+03	 3.71867000E+03	 1.98669589E+04
					 1.67128000E+03	 3.03149000E+03	 1.62191000E+04	-9.23843000E-09	-8.03081000E-09	 2.53159000E+03	 1.45920523E+04	 1.24332564E+03	 3.03149000E+03	 1.66470544E+04
					 4.44555000E+03	 3.71867000E+03	 1.75732000E+04	 0.00000000E+00	 0.00000000E+00	 5.94752000E+03	 1.69860165E+04	 2.15179109E+03	 3.71867000E+03	 1.98669589E+04