<?xml version="1.0"?>
<VTKFile type="UnstructuredGrid" version="0.1" byte_order="LittleEndian">
	<UnstructuredGrid>
		<Piece NumberOfPoints="126" NumberOfCells="40">
			<Points>
				<DataArray type="Float64" NumberOfComponents="3" format="ascii">
					 5.00000000E-02	 0.00000000E+00	 0.00000000E+00
					 0.00000000E+00	 0.00000000E+00	 0.00000000E+00
					 0.00000000E+00	 0.00000000E+00	 5.00000000E-02
					 5.00000000E-02	 0.00000000E+00	 5.00000000E-02
					 5.00000000E-02	 3.00000000E-01	 0.00000000E+00
					 0.00000000E+00	 3.00000000E-01	 0.00000000E+00
					 0.00000000E+00	 3.00000000E-01	 5.00000000E-02
					 5.00000000E-02	 3.00000000E-01	 5.00000000E-02
					 0.00000000E+00	 0.00000000E+00	 1.00000000E-01
					 5.00000000E-02	 0.00000000E+00	 1.00000000E-01
					 0.00000000E+00	 3.00000000E-01	 1.00000000E-01
					 5.00000000E-02	 3.00000000E-01	 1.00000000E-01
					 0.00000000E+00	 0.00000000E+00	 1.50000000E-01
					 5.00000000E-02	 0.00000000E+00	 1.50000000E-01
					 0.00000000E+00	 3.00000000E-01	 1.50000000E-01
					 5.00000000E-02	 3.00000000E-01	 1.50000000E-01
					 0.00000000E+00	 0.00000000E+00	 2.00000000E-01
					 5.00000000E-02	 0.00000000E+00	 2.00000000E-01
					 0.00000000E+00	 3.00000000E-01	 2.00000000E-01
					 5.00000000E-02	 3.00000000E-01	 2.00000000E-01
					 0.00000000E+00	 0.00000000E+00	 2.50000000E-01
					 5.00000000E-02	 0.00000000E+00	 2.50000000E-01
					 0.00000000E+00	 3.00000000E-01	 2.50000000E-01
					 5.00000000E-02	 3.00000000E-01	 2.50000000E-01
					 0.00000000E+00	 0.00000000E+00	 3.00000000E-01
					 5.00000000E-02	 0.00000000E+00	 3.00000000E-01
					 0.00000000E+00	 3.00000000E-01	 3.00000000E-01
					 5.00000000E-02	 3.00000000E-01	 3.00000000E-01
					 0.00000000E+00	 0.00000000E+00	 3.50000000E-01
					 5.00000000E-02	 0.00000000E+00	 3.50000000E-01
					 0.00000000E+00	 3.00000000E-01	 3.50000000E-01
					 5.00000000E-02	 3.00000000E-01	 3.50000000E-01
					 0.00000000E+00	 0.00000000E+00	 4.00000000E-01
					 5.00000000E-02	 0.00000000E+00	 4.00000000E-01
					 0.00000000E+00	 3.00000000E-01	 4.00000000E-01
					 5.00000000E-02	 3.00000000E-01	 4.00000000E-01
					 0.00000000E+00	 0.00000000E+00	 4.50000000E-01
					 5.00000000E-02	 0.00000000E+00	 4.50000000E-01
					 0.00000000E+00	 3.00000000E-01	 4.50000000E-01
					 5.00000000E-02	 3.00000000E-01	 4.50000000E-01
					 0.00000000E+00	 0.00000000E+00	 5.00000000E-01
					 5.00000000E-02	 0.00000000E+00	 5.00000000E-01
					 0.00000000E+00	 3.00000000E-01	 5.00000000E-01
					 5.00000000E-02	 3.00000000E-01	 5.00000000E-01
					 0.00000000E+00	 0.00000000E+00	 5.50000000E-01
					 5.00000000E-02	 0.00000000E+00	 5.50000000E-01
					 0.00000000E+00	 3.00000000E-01	 5.50000000E-01
					 5.00000000E-02	 3.00000000E-01	 5.50000000E-01
					 0.00000000E+00	 0.00000000E+00	 6.00000000E-01
					 5.00000000E-02	 0.00000000E+00	 6.00000000E-01
					 0.00000000E+00	 3.00000000E-01	 6.00000000E-01
					 5.00000000E-02	 3.00000000E-01	 6.00000000E-01
					 0.00000000E+00	 0.00000000E+00	 6.50000000E-01
					 5.00000000E-02	 0.00000000E+00	 6.50000000E-01
					 0.00000000E+00	 3.00000000E-01	 6.50000000E-01
					 5.00000000E-02	 3.00000000E-01	 6.50000000E-01
					 0.00000000E+00	 0.00000000E+00	 7.00000000E-01
					 5.00000000E-02	 0.00000000E+00	 7.00000000E-01
					 0.00000000E+00	 3.00000000E-01	 7.00000000E-01
					 5.00000000E-02	 3.00000000E-01	 7.00000000E-01
					 0.00000000E+00	 0.00000000E+00	 7.50000000E-01
					 5.00000000E-02	 0.00000000E+00	 7.50000000E-01
					 0.00000000E+00	 3.00000000E-01	 7.50000000E-01
					 5.00000000E-02	 3.00000000E-01	 7.50000000E-01
					 0.00000000E+00	 0.00000000E+00	 8.00000000E-01
					 5.00000000E-02	 0.00000000E+00	 8.00000000E-01
					 0.00000000E+00	 3.00000000E-01	 8.00000000E-01
					 5.00000000E-02	 3.00000000E-01	 8.00000000E-01
					 0.00000000E+00	 0.00000000E+00	 8.50000000E-01
					 5.00000000E-02	 0.00000000E+00	 8.50000000E-01
					 0.00000000E+00	 3.00000000E-01	 8.50000000E-01
					 5.00000000E-02	 3.00000000E-01	 8.50000000E-01
					 0.00000000E+00	 0.00000000E+00	 9.00000000E-01
					 5.00000000E-02	 0.00000000E+00	 9.00000000E-01
					 0.00000000E+00	 3.00000000E-01	 9.00000000E-01
					 5.00000000E-02	 3.00000000E-01	 9.00000000E-01
					 0.00000000E+00	 0.00000000E+00	 9.50000000E-01
					 5.00000000E-02	 0.00000000E+00	 9.50000000E-01
					 0.00000000E+00	 3.00000000E-01	 9.50000000E-01
					 5.00000000E-02	 3.00000000E-01	 9.50000000E-01
					 0.00000000E+00	 0.00000000E+00	 1.00000000E+00
					 5.00000000E-02	 0.00000000E+00	 1.00000000E+00
					 0.00000000E+00	 3.00000000E-01	 1.00000000E+00
					 5.00000000E-02	 3.00000000E-01	 1.00000000E+00
					-5.00000000E-02	 0.00000000E+00	 0.00000000E+00
					-5.00000000E-02	 0.00000000E+00	 5.00000000E-02
					-5.00000000E-02	 3.00000000E-01	 0.00000000E+00
					-5.00000000E-02	 3.00000000E-01	 5.00000000E-02
					-5.00000000E-02	 0.00000000E+00	 1.00000000E-01
					-5.00000000E-02	 3.00000000E-01	 1.00000000E-01
					-5.00000000E-02	 0.00000000E+00	 1.50000000E-01
					-5.00000000E-02	 3.00000000E-01	 1.50000000E-01
					-5.00000000E-02	 0.00000000E+00	 2.00000000E-01
					-5.00000000E-02	 3.00000000E-01	 2.00000000E-01
					-5.00000000E-02	 0.00000000E+00	 2.50000000E-01
					-5.00000000E-02	 3.00000000E-01	 2.50000000E-01
					-5.00000000E-02	 0.00000000E+00	 3.00000000E-01
					-5.00000000E-02	 3.00000000E-01	 3.00000000E-01
					-5.00000000E-02	 0.00000000E+00	 3.50000000E-01
					-5.00000000E-02	 3.00000000E-01	 3.50000000E-01
					-5.00000000E-02	 0.00000000E+00	 4.00000000E-01
					-5.00000000E-02	 3.00000000E-01	 4.00000000E-01
					-5.00000000E-02	 0.00000000E+00	 4.50000000E-01
					-5.00000000E-02	 3.00000000E-01	 4.50000000E-01
					-5.00000000E-02	 0.00000000E+00	 5.00000000E-01
					-5.00000000E-02	 3.00000000E-01	 5.00000000E-01
					-5.00000000E-02	 0.00000000E+00	 5.50000000E-01
					-5.00000000E-02	 3.00000000E-01	 5.50000000E-01
					-5.00000000E-02	 0.00000000E+00	 6.00000000E-01
					-5.00000000E-02	 3.00000000E-01	 6.00000000E-01
					-5.00000000E-02	 0.00000000E+00	 6.50000000E-01
					-5.00000000E-02	 3.00000000E-01	 6.50000000E-01
					-5.00000000E-02	 0.00000000E+00	 7.00000000E-01
					-5.00000000E-02	 3.00000000E-01	 7.00000000E-01
					-5.00000000E-02	 0.00000000E+00	 7.50000000E-01
					-5.00000000E-02	 3.00000000E-01	 7.50000000E-01
					-5.00000000E-02	 0.00000000E+00	 8.00000000E-01
					-5.00000000E-02	 3.00000000E-01	 8.00000000E-01
					-5.00000000E-02	 0.00000000E+00	 8.50000000E-01
					-5.00000000E-02	 3.00000000E-01	 8.50000000E-01
					-5.00000000E-02	 0.00000000E+00	 9.00000000E-01
					-5.00000000E-02	 3.00000000E-01	 9.00000000E-01
					-5.00000000E-02	 0.00000000E+00	 9.50000000E-01
					-5.00000000E-02	 3.00000000E-01	 9.50000000E-01
					-5.00000000E-02	 0.00000000E+00	 1.00000000E+00
					-5.00000000E-02	 3.00000000E-01	 1.00000000E+00

				</DataArray>
			</Points>
			<Cells>
				<DataArray type="Int32" Name="connectivity" format="ascii">
					0 1 2 3 4 5 6 7 3 2 8 9 7 6 10 11 9 8 12 13 11 10 14 15 13 12 16 17 15 14 18 19 17 16 20 21 19 18 22 23 21 20 24 25 23 22 26 27 25 24 28 29 27 26 30 31 29 28 32 33 31 30 34 35 33 32 36 37 35 34 38 39 37 36 40 41 39 38 42 43 41 40 44 45 43 42 46 47 45 44 48 49 47 46 50 51 49 48 52 53 51 50 54 55 53 52 56 57 55 54 58 59 57 56 60 61 59 58 62 63 61 60 64 65 63 62 66 67 65 64 68 69 67 66 70 71 69 68 72 73 71 70 74 75 73 72 76 77 75 74 78 79 77 76 80 81 79 78 82 83 1 84 85 2 5 86 87 6 2 85 88 8 6 87 89 10 8 88 90 12 10 89 91 14 12 90 92 16 14 91 93 18 16 92 94 20 18 93 95 22 20 94 96 24 22 95 97 26 24 96 98 28 26 97 99 30 28 98 100 32 30 99 101 34 32 100 102 36 34 101 103 38 36 102 104 40 38 103 105 42 40 104 106 44 42 105 107 46 44 106 108 48 46 107 109 50 48 108 110 52 50 109 111 54 52 110 112 56 54 111 113 58 56 112 114 60 58 113 115 62 60 114 116 64 62 115 117 66 64 116 118 68 66 117 119 70 68 118 120 72 70 119 121 74 72 120 122 76 74 121 123 78 76 122 124 80 78 123 125 82 
				</DataArray>
				<DataArray type="Int32" Name="offsets" format="ascii">
					8 16 24 32 40 48 56 64 72 80 88 96 104 112 120 128 136 144 152 160 168 176 184 192 200 208 216 224 232 240 248 256 264 272 280 288 296 304 312 320 
				</DataArray>
				<DataArray type="UInt8" Name="types" format="ascii">
					12 12 12 12 12 12 12 12 12 12 12 12 12 12 12 12 12 12 12 12 12 12 12 12 12 12 12 12 12 12 12 12 12 12 12 12 12 12 12 12 
				</DataArray>
			</Cells>
			<PointData>
				<DataArray type="Float32" Name="U" NumberOfComponents="3" ComponentName0="D1" ComponentName1="D2" ComponentName2="D3" format="ascii">
					 0.00000000E+00	 0.00000000E+00	 0.00000000E+00
					 0.00000000E+00	 0.00000000E+00	 0.00000000E+00
					 3.38409000E-03	 0.00000000E+00	-4.04213000E-04
					 3.73525000E-03	 0.00000000E+00	-5.67659000E-03
					 0.00000000E+00	 0.00000000E+00	 0.00000000E+00
					 0.00000000E+00	 0.00000000E+00	 0.00000000E+00
					 3.38409000E-03	 0.00000000E+00	-4.04213000E-04
					 3.73525000E-03	 0.00000000E+00	-5.67659000E-03
					 1.18325000E-02	 0.00000000E+00	-1.22570000E-03
					 1.12763000E-02	 0.00000000E+00	-1.05894000E-02
					 1.18325000E-02	 0.00000000E+00	-1.22570000E-03
					 1.12763000E-02	 0.00000000E+00	-1.05894000E-02
					 2.35317000E-02	 0.00000000E+00	-2.66603000E-03
					 2.22799000E-02	 0.00000000E+00	-1.48931000E-02
					 2.35317000E-02	 0.00000000E+00	-2.66603000E-03
					 2.22799000E-02	 0.00000000E+00	-1.48931000E-02
					 3.75060000E-02	 0.00000000E+00	-4.66261000E-03
					 3.56414000E-02	 0.00000000E+00	-1.87185000E-02
					 3.75060000E-02	 0.00000000E+00	-4.66261000E-03
					 3.56414000E-02	 0.00000000E+00	-1.87185000E-02
					 5.28002000E-02	 0.00000000E+00	-7.02261000E-03
					 5.05335000E-02	 0.00000000E+00	-2.20495000E-02
					 5.28002000E-02	 0.00000000E+00	-7.02261000E-03
					 5.05335000E-02	 0.00000000E+00	-2.20495000E-02
					 6.86310000E-02	 0.00000000E+00	-9.53239000E-03
					 6.61833000E-02	 0.00000000E+00	-2.48149000E-02
					 6.86310000E-02	 0.00000000E+00	-9.53239000E-03
					 6.61833000E-02	 0.00000000E+00	-2.48149000E-02
					 8.43475000E-02	 0.00000000E+00	-1.19930000E-02
					 8.19330000E-02	 0.00000000E+00	-2.69298000E-02
					 8.43475000E-02	 0.00000000E+00	-1.19930000E-02
					 8.19330000E-02	 0.00000000E+00	-2.69298000E-02
					 9.93868000E-02	 0.00000000E+00	-1.42359000E-02
					 9.71694000E-02	 0.00000000E+00	-2.83106000E-02
					 9.93868000E-02	 0.00000000E+00	-1.42359000E-02
					 9.71694000E-02	 0.00000000E+00	-2.83106000E-02
					 1.13263000E-01	 0.00000000E+00	-1.61359000E-02
					 1.11349000E-01	 0.00000000E+00	-2.89327000E-02
					 1.13263000E-01	 0.00000000E+00	-1.61359000E-02
					 1.11349000E-01	 0.00000000E+00	-2.89327000E-02
					 1.25590000E-01	 0.00000000E+00	-1.76292000E-02
					 1.24032000E-01	 0.00000000E+00	-2.88511000E-02
					 1.25590000E-01	 0.00000000E+00	-1.76292000E-02
					 1.24032000E-01	 0.00000000E+00	-2.88511000E-02
					 1.36117000E-01	 0.00000000E+00	-1.87149000E-02
					 1.34925000E-01	 0.00000000E+00	-2.81759000E-02
					 1.36117000E-01	 0.00000000E+00	-1.87149000E-02
					 1.34925000E-01	 0.00000000E+00	-2.81759000E-02
					 1.44724000E-01	 0.00000000E+00	-1.94247000E-02
					 1.43850000E-01	 0.00000000E+00	-2.70381000E-02
					 1.44724000E-01	 0.00000000E+00	-1.94247000E-02
					 1.43850000E-01	 0.00000000E+00	-2.70381000E-02
					 1.51380000E-01	 0.00000000E+00	-1.98019000E-02
					 1.50756000E-01	 0.00000000E+00	-2.56055000E-02
					 1.51380000E-01	 0.00000000E+00	-1.98019000E-02
					 1.50756000E-01	 0.00000000E+00	-2.56055000E-02
					 1.56175000E-01	 0.00000000E+00	-1.99153000E-02
					 1.55738000E-01	 0.00000000E+00	-2.40869000E-02
					 1.56175000E-01	 0.00000000E+00	-1.99153000E-02
					 1.55738000E-01	 0.00000000E+00	-2.40869000E-02
					 1.59373000E-01	 0.00000000E+00	-1.98564000E-02
					 1.59073000E-01	 0.00000000E+00	-2.26970000E-02
					 1.59373000E-01	 0.00000000E+00	-1.98564000E-02
					 1.59073000E-01	 0.00000000E+00	-2.26970000E-02
					 1.61391000E-01	 0.00000000E+00	-1.97123000E-02
					 1.61184000E-01	 0.00000000E+00	-2.15812000E-02
					 1.61391000E-01	 0.00000000E+00	-1.97123000E-02
					 1.61184000E-01	 0.00000000E+00	-2.15812000E-02
					 1.62651000E-01	 0.00000000E+00	-1.95434000E-02
					 1.62506000E-01	 0.00000000E+00	-2.07767000E-02
					 1.62651000E-01	 0.00000000E+00	-1.95434000E-02
					 1.62506000E-01	 0.00000000E+00	-2.07767000E-02
					 1.63469000E-01	 0.00000000E+00	-1.93878000E-02
					 1.63370000E-01	 0.00000000E+00	-2.02553000E-02
					 1.63469000E-01	 0.00000000E+00	-1.93878000E-02
					 1.63370000E-01	 0.00000000E+00	-2.02553000E-02
					 1.64077000E-01	 0.00000000E+00	-1.92751000E-02
					 1.64022000E-01	 0.00000000E+00	-1.99819000E-02
					 1.64077000E-01	 0.00000000E+00	-1.92751000E-02
					 1.64022000E-01	 0.00000000E+00	-1.99819000E-02
					 1.64685000E-01	 0.00000000E+00	-1.92258000E-02
					 1.64658000E-01	 0.00000000E+00	-1.99063000E-02
					 1.64685000E-01	 0.00000000E+00	-1.92258000E-02
					 1.64658000E-01	 0.00000000E+00	-1.99063000E-02
					 0.00000000E+00	 0.00000000E+00	 0.00000000E+00
					 4.51580000E-03	 0.00000000E+00	 4.69740000E-03
					 0.00000000E+00	 0.00000000E+00	 0.00000000E+00
					 4.51580000E-03	 0.00000000E+00	 4.69740000E-03
					 1.32157000E-02	 0.00000000E+00	 7.88018000E-03
					 1.32157000E-02	 0.00000000E+00	 7.88018000E-03
					 2.53903000E-02	 0.00000000E+00	 9.33471000E-03
					 2.53903000E-02	 0.00000000E+00	 9.33471000E-03
					 3.97426000E-02	 0.00000000E+00	 9.25456000E-03
					 3.97426000E-02	 0.00000000E+00	 9.25456000E-03
					 5.52476000E-02	 0.00000000E+00	 7.94271000E-03
					 5.52476000E-02	 0.00000000E+00	 7.94271000E-03
					 7.11004000E-02	 0.00000000E+00	 5.74507000E-03
					 7.11004000E-02	 0.00000000E+00	 5.74507000E-03
					 8.66365000E-02	 0.00000000E+00	 2.98714000E-03
					 8.66365000E-02	 0.00000000E+00	 2.98714000E-03
					 1.01364000E-01	 0.00000000E+00	-7.91189000E-05
					 1.01364000E-01	 0.00000000E+00	-7.91189000E-05
					 1.14842000E-01	 0.00000000E+00	-3.23520000E-03
					 1.14842000E-01	 0.00000000E+00	-3.23520000E-03
					 1.26755000E-01	 0.00000000E+00	-6.31081000E-03
					 1.26755000E-01	 0.00000000E+00	-6.31081000E-03
					 1.36875000E-01	 0.00000000E+00	-9.17051000E-03
					 1.36875000E-01	 0.00000000E+00	-9.17051000E-03
					 1.45159000E-01	 0.00000000E+00	-1.17378000E-02
					 1.45159000E-01	 0.00000000E+00	-1.17378000E-02
					 1.51588000E-01	 0.00000000E+00	-1.39419000E-02
					 1.51588000E-01	 0.00000000E+00	-1.39419000E-02
					 1.56266000E-01	 0.00000000E+00	-1.57129000E-02
					 1.56266000E-01	 0.00000000E+00	-1.57129000E-02
					 1.59406000E-01	 0.00000000E+00	-1.70045000E-02
					 1.59406000E-01	 0.00000000E+00	-1.70045000E-02
					 1.61423000E-01	 0.00000000E+00	-1.78412000E-02
					 1.61423000E-01	 0.00000000E+00	-1.78412000E-02
					 1.62695000E-01	 0.00000000E+00	-1.83154000E-02
					 1.62695000E-01	 0.00000000E+00	-1.83154000E-02
					 1.63529000E-01	 0.00000000E+00	-1.85363000E-02
					 1.63529000E-01	 0.00000000E+00	-1.85363000E-02
					 1.64129000E-01	 0.00000000E+00	-1.85929000E-02
					 1.64129000E-01	 0.00000000E+00	-1.85929000E-02
					 1.64718000E-01	 0.00000000E+00	-1.85809000E-02
					 1.64718000E-01	 0.00000000E+00	-1.85809000E-02
				</DataArray>
				<DataArray type="Float32" Name="S" NumberOfComponents="10" ComponentName0="xx" ComponentName1="yy" ComponentName2="zz" ComponentName3="xy" ComponentName4="yz" ComponentName5="zx" ComponentName6="Mises" ComponentName7="Min Principal" ComponentName8="Mid Principal" ComponentName9="Max Principal" format="ascii">
					-3.48210000E+03	-3.91642000E+03	-1.28530000E+04	 0.00000000E+00	 0.00000000E+00	 2.72011000E+03	 1.03019137E+04	-1.35853392E+04	-3.91642000E+03	-2.74976077E+03
					 1.59109000E+02	-1.92757000E+02	-1.32882000E+03	 0.00000000E+00	 0.00000000E+00	 3.28534000E+03	 5.84761212E+03	-3.95337774E+03	-1.92757000E+02	 2.78366674E+03
					-6.06128000E+01	-2.14411000E+02	-1.20671000E+03	-1.86104000E-08	 1.25620000E-08	 6.41765000E+02	 1.54806716E+03	-1.49403749E+03	-2.14411000E+02	 2.26714688E+02
					-1.46453000E+03	-2.94727000E+03	-1.11534000E+04	-4.23399000E-08	 1.66856000E-08	-1.97261000E+02	 9.04562769E+03	-1.11574145E+04	-2.94727000E+03	-1.46051552E+03
					-3.48210000E+03	-3.91642000E+03	-1.28530000E+04	 0.00000000E+00	 0.00000000E+00	 2.72011000E+03	 1.03019137E+04	-1.35853392E+04	-3.91642000E+03	-2.74976077E+03
					 1.59109000E+02	-1.92757000E+02	-1.32882000E+03	 0.00000000E+00	 0.00000000E+00	 3.28534000E+03	 5.84761212E+03	-3.95337774E+03	-1.92757000E+02	 2.78366674E+03
					-6.06128000E+01	-2.14411000E+02	-1.20671000E+03	-1.86107000E-08	 1.25620000E-08	 6.41765000E+02	 1.54806716E+03	-1.49403749E+03	-2.14411000E+02	 2.26714688E+02
					-1.46453000E+03	-2.94727000E+03	-1.11534000E+04	-4.23397000E-08	 1.66856000E-08	-1.97261000E+02	 9.04562769E+03	-1.11574145E+04	-2.94727000E+03	-1.46051552E+03
					 7.16267000E+01	-1.23806000E+02	-8.41453000E+02	-4.53441000E-08	 1.07466000E-08	 7.35605000E+02	 1.52210611E+03	-1.25067487E+03	-1.23806000E+02	 4.80848567E+02
					-1.56114000E+03	-2.27957000E+03	-8.61163000E+03	-2.43935000E-08	 2.95684000E-08	-7.52872000E+02	 6.84548874E+03	-8.69112751E+03	-2.27957000E+03	-1.48164249E+03
					 7.16267000E+01	-1.23806000E+02	-8.41453000E+02	-4.53436000E-08	 1.07466000E-08	 7.35605000E+02	 1.52210611E+03	-1.25067487E+03	-1.23806000E+02	 4.80848567E+02
					-1.56114000E+03	-2.27957000E+03	-8.61163000E+03	-2.43934000E-08	 2.95685000E-08	-7.52872000E+02	 6.84548874E+03	-8.69112751E+03	-2.27957000E+03	-1.48164249E+03
					 2.17804000E+02	-6.14164000E+01	-5.88142000E+02	-1.09482000E-07	 2.21403000E-08	 6.24628000E+02	 1.29342833E+03	-9.28504306E+02	-6.14164000E+01	 5.58166306E+02
					-9.46985000E+02	-1.49841000E+03	-5.97840000E+03	-1.33283000E-07	 5.57661000E-08	-6.76477000E+02	 4.92114030E+03	-6.06776550E+03	-1.49841000E+03	-8.57619496E+02
					 2.17804000E+02	-6.14164000E+01	-5.88142000E+02	-1.09482000E-07	 2.21407000E-08	 6.24628000E+02	 1.29342833E+03	-9.28504306E+02	-6.14164000E+01	 5.58166306E+02
					-9.46985000E+02	-1.49841000E+03	-5.97840000E+03	-1.33284000E-07	 5.57651000E-08	-6.76477000E+02	 4.92114030E+03	-6.06776550E+03	-1.49841000E+03	-8.57619496E+02
					 2.59523000E+02	-2.48572000E+01	-4.03153000E+02	-1.68494000E-07	 5.75444000E-08	 5.68923000E+02	 1.14130618E+03	-7.30190463E+02	-2.48572000E+01	 5.86560463E+02
					-5.40604000E+02	-8.94832000E+02	-3.71754000E+03	-1.49485000E-07	 6.34648000E-08	-3.95064000E+02	 3.09212982E+03	-3.76593062E+03	-8.94832000E+02	-4.92213377E+02
					 2.59523000E+02	-2.48572000E+01	-4.03153000E+02	-1.68494000E-07	 5.75442000E-08	 5.68923000E+02	 1.14130618E+03	-7.30190463E+02	-2.48572000E+01	 5.86560463E+02
					-5.40604000E+02	-8.94832000E+02	-3.71754000E+03	-1.49485000E-07	 6.34653000E-08	-3.95064000E+02	 3.09212982E+03	-3.76593062E+03	-8.94832000E+02	-4.92213377E+02
					 2.44105000E+02	-3.80268000E+00	-2.60905000E+02	-1.59879000E-07	 5.43914000E-08	 5.11830000E+02	 9.88537964E+02	-5.79126488E+02	-3.80268000E+00	 5.62326488E+02
					-1.53330000E+02	-3.92148000E+02	-1.75365000E+03	-1.45260000E-07	 3.35872000E-08	-1.61835000E+00	 1.49528618E+03	-1.75365164E+03	-3.92148000E+02	-1.53328363E+02
					 2.44105000E+02	-3.80268000E+00	-2.60905000E+02	-1.59879000E-07	 5.43916000E-08	 5.11830000E+02	 9.88537964E+02	-5.79126488E+02	-3.80268000E+00	 5.62326488E+02
					-1.53330000E+02	-3.92148000E+02	-1.75365000E+03	-1.45262000E-07	 3.35860000E-08	-1.61835000E+00	 1.49528618E+03	-1.75365164E+03	-3.92148000E+02	-1.53328363E+02
					 1.85170000E+02	 8.94381000E-01	-1.73429000E+02	-1.09648000E-07	 3.75187000E-08	 4.60428000E+02	 8.55833818E+02	-4.88237033E+02	 8.94381000E-01	 4.99978033E+02
					 1.77903000E+02	 2.05660000E+01	-5.93496000E+01	-1.10114000E-07	 0.00000000E+00	 4.01055000E+02	 7.25431220E+02	-3.58954471E+02	 2.05660000E+01	 4.77507871E+02
					 1.85170000E+02	 8.94381000E-01	-1.73429000E+02	-1.09647000E-07	 3.75190000E-08	 4.60428000E+02	 8.55833818E+02	-4.88237033E+02	 8.94381000E-01	 4.99978033E+02
					 1.77903000E+02	 2.05660000E+01	-5.93496000E+01	-1.10114000E-07	 0.00000000E+00	 4.01055000E+02	 7.25431220E+02	-3.58954471E+02	 2.05660000E+01	 4.77507871E+02
					 1.50242000E+02	 7.09673000E+00	-1.13193000E+02	-7.34365000E-08	 2.75997000E-08	 3.96783000E+02	 7.24216363E+02	-3.99549954E+02	 7.09673000E+00	 4.36598954E+02
					 4.67641000E+02	 3.68226000E+02	 1.42608000E+03	-8.18595000E-08	 5.13890000E-09	 7.44797000E+02	 1.63949370E+03	 6.12116416E+01	 3.68226000E+02	 1.83250936E+03
					 1.50242000E+02	 7.09673000E+00	-1.13193000E+02	-7.34336000E-08	 2.75996000E-08	 3.96783000E+02	 7.24216363E+02	-3.99549954E+02	 7.09673000E+00	 4.36598954E+02
					 4.67641000E+02	 3.68226000E+02	 1.42608000E+03	-8.18608000E-08	 5.13894000E-09	 7.44797000E+02	 1.63949370E+03	 6.12116416E+01	 3.68226000E+02	 1.83250936E+03
					 8.91091000E+01	 3.05544000E+00	-8.34055000E+01	-8.10196000E-08	 3.09916000E-08	 3.26681000E+02	 5.85219988E+02	-3.35025097E+02	 3.05544000E+00	 3.40728697E+02
					 6.60163000E+02	 6.46104000E+02	 2.69834000E+03	-1.01589000E-07	-4.99488000E-09	 9.82193000E+02	 2.66028704E+03	 2.63891313E+02	 6.46104000E+02	 3.09461169E+03
					 8.91091000E+01	 3.05544000E+00	-8.34055000E+01	-8.10152000E-08	 3.09921000E-08	 3.26681000E+02	 5.85219988E+02	-3.35025097E+02	 3.05544000E+00	 3.40728697E+02
					 6.60163000E+02	 6.46104000E+02	 2.69834000E+03	-1.01588000E-07	-4.99670000E-09	 9.82193000E+02	 2.66028704E+03	 2.63891313E+02	 6.46104000E+02	 3.09461169E+03
					 1.34679000E+01	-6.78655000E+00	-6.93383000E+01	-3.34317000E-08	 7.80599000E-09	 2.43781000E+02	 4.28809332E+02	-2.75207100E+02	-6.78655000E+00	 2.19336700E+02
					 7.36979000E+02	 8.46196000E+02	 3.70327000E+03	-5.05774000E-08	-5.70028000E-08	 1.07921000E+03	 3.46134712E+03	 3.85890382E+02	 8.46196000E+02	 4.05435862E+03
					 1.34679000E+01	-6.78655000E+00	-6.93383000E+01	-3.34314000E-08	 7.80555000E-09	 2.43781000E+02	 4.28809332E+02	-2.75207100E+02	-6.78655000E+00	 2.19336700E+02
					 7.36979000E+02	 8.46196000E+02	 3.70327000E+03	-5.05787000E-08	-5.70025000E-08	 1.07921000E+03	 3.46134712E+03	 3.85890382E+02	 8.46196000E+02	 4.05435862E+03
					-7.14548000E+01	-2.13721000E+01	-6.81086000E+01	 7.08760000E-08	-3.03673000E-08	 1.53490000E+02	 2.70239574E+02	-2.23280818E+02	-2.13721000E+01	 8.37174184E+01
					 7.29830000E+02	 9.73912000E+02	 4.41238000E+03	 4.98343000E-08	-6.50084000E-08	 1.03559000E+03	 3.99239856E+03	 4.58585113E+02	 9.73912000E+02	 4.68362489E+03
					-7.14548000E+01	-2.13721000E+01	-6.81086000E+01	 7.08736000E-08	-3.03678000E-08	 1.53490000E+02	 2.70239574E+02	-2.23280818E+02	-2.13721000E+01	 8.37174184E+01
					 7.29830000E+02	 9.73912000E+02	 4.41238000E+03	 4.98347000E-08	-6.50082000E-08	 1.03559000E+03	 3.99239856E+03	 4.58585113E+02	 9.73912000E+02	 4.68362489E+03
					-9.12627000E+01	-1.87067000E+01	-4.16027000E+01	 1.19687000E-07	-2.62256000E-08	 6.19133000E+01	 1.25008511E+02	-1.33139413E+02	-1.87067000E+01	 2.74013432E-01
					 7.04289000E+02	 1.04944000E+03	 4.85447000E+03	 1.03209000E-07	-9.24648000E-09	 8.81688000E+02	 4.27116069E+03	 5.24745536E+02	 1.04944000E+03	 5.03401346E+03
					-9.12627000E+01	-1.87067000E+01	-4.16027000E+01	 1.19681000E-07	-2.62254000E-08	 6.19133000E+01	 1.25008511E+02	-1.33139413E+02	-1.87067000E+01	 2.74013432E-01
					 7.04289000E+02	 1.04944000E+03	 4.85447000E+03	 1.03213000E-07	-9.24546000E-09	 8.81688000E+02	 4.27116069E+03	 5.24745536E+02	 1.04944000E+03	 5.03401346E+03
					-1.15092000E+02	-9.27729000E+00	 2.92150000E+01	 5.76356000E-08	-1.66719000E-08	-1.54171000E+01	 1.32153398E+02	-1.16720710E+02	-9.27729000E+00	 3.08437102E+01
					 6.34975000E+02	 1.06746000E+03	 5.02506000E+03	 8.19826000E-08	 2.38812000E-08	 6.61034000E+02	 4.34420781E+03	 5.37600102E+02	 1.06746000E+03	 5.12243490E+03
					-1.15092000E+02	-9.27729000E+00	 2.92150000E+01	 5.76387000E-08	-1.66717000E-08	-1.54171000E+01	 1.32153398E+02	-1.16720710E+02	-9.27729000E+00	 3.08437102E+01
					 6.34975000E+02	 1.06746000E+03	 5.02506000E+03	 8.19833000E-08	 2.38798000E-08	 6.61034000E+02	 4.34420781E+03	 5.37600102E+02	 1.06746000E+03	 5.12243490E+03
					-1.32969000E+02	 1.15629000E+01	 1.57814000E+02	-8.17180000E-09	-2.73588000E-08	-9.56176000E+01	 3.01405010E+02	-1.61593056E+02	 1.15629000E+01	 1.86438056E+02
					 5.29181000E+02	 1.02044000E+03	 4.87329000E+03	 4.43533000E-09	 1.03167000E-08	 4.02412000E+02	 4.17903602E+03	 4.92218486E+02	 1.02044000E+03	 4.91025251E+03
					-1.32969000E+02	 1.15629000E+01	 1.57814000E+02	-8.18218000E-09	-2.73591000E-08	-9.56176000E+01	 3.01405010E+02	-1.61593056E+02	 1.15629000E+01	 1.86438056E+02
					 5.29181000E+02	 1.02044000E+03	 4.87329000E+03	 4.43928000E-09	 1.03199000E-08	 4.02412000E+02	 4.17903602E+03	 4.92218486E+02	 1.02044000E+03	 4.91025251E+03
					-1.51733000E+02	 3.37186000E+01	 2.97653000E+02	-3.57820000E-08	-2.07119000E-08	-1.76275000E+02	 4.96204945E+02	-2.12626799E+02	 3.37186000E+01	 3.58546799E+02
					 4.09646000E+02	 9.04440000E+02	 4.35436000E+03	-4.59461000E-08	-7.20815000E-09	 1.51069000E+02	 3.73125104E+03	 4.03869036E+02	 9.04440000E+02	 4.36013696E+03
					-1.51733000E+02	 3.37186000E+01	 2.97653000E+02	-3.57817000E-08	-2.07122000E-08	-1.76275000E+02	 4.96204945E+02	-2.12626799E+02	 3.37186000E+01	 3.58546799E+02
					 4.09646000E+02	 9.04440000E+02	 4.35436000E+03	-4.59471000E-08	-7.20769000E-09	 1.51069000E+02	 3.73125104E+03	 4.03869036E+02	 9.04440000E+02	 4.36013696E+03
					-1.25452000E+02	 5.83721000E+01	 4.04978000E+02	-8.27734000E-08	-1.44232000E-08	-2.26497000E+02	 6.09544207E+02	-2.09006103E+02	 5.83721000E+01	 4.88532103E+02
					 3.03444000E+02	 7.35560000E+02	 3.53802000E+03	-8.50510000E-08	 6.63167000E-09	-3.06533000E+01	 3.04209023E+03	 3.03153532E+02	 7.35560000E+02	 3.53831047E+03
					-1.25452000E+02	 5.83721000E+01	 4.04978000E+02	-8.27676000E-08	-1.44223000E-08	-2.26497000E+02	 6.09544207E+02	-2.09006103E+02	 5.83721000E+01	 4.88532103E+02
					 3.03444000E+02	 7.35560000E+02	 3.53802000E+03	-8.50658000E-08	 6.63202000E-09	-3.06533000E+01	 3.04209023E+03	 3.03153532E+02	 7.35560000E+02	 3.53831047E+03
					-1.12947000E+02	 6.67236000E+01	 4.42208000E+02	-1.13341000E-07	-1.87913000E-08	-2.22529000E+02	 6.23931915E+02	-1.91134063E+02	 6.67236000E+01	 5.20395063E+02
					 1.97471000E+02	 5.43370000E+02	 2.61214000E+03	-1.15077000E-07	-1.15812000E-08	-1.12147000E+02	 2.26997175E+03	 1.92273626E+02	 5.43370000E+02	 2.61733737E+03
					-1.12947000E+02	 6.67236000E+01	 4.42208000E+02	-1.13341000E-07	-1.87917000E-08	-2.22529000E+02	 6.23931915E+02	-1.91134063E+02	 6.67236000E+01	 5.20395063E+02
					 1.97471000E+02	 5.43370000E+02	 2.61214000E+03	-1.15087000E-07	-1.15814000E-08	-1.12147000E+02	 2.26997175E+03	 1.92273626E+02	 5.43370000E+02	 2.61733737E+03
					-1.02054000E+02	 6.27959000E+01	 4.16235000E+02	-1.00062000E-07	-2.23585000E-08	-1.86445000E+02	 5.60931637E+02	-1.62154876E+02	 6.27959000E+01	 4.76335876E+02
					 1.00896000E+02	 3.62750000E+02	 1.75737000E+03	-1.09302000E-07	-5.31322000E-08	-1.22924000E+02	 1.55693616E+03	 9.18237155E+01	 3.62750000E+02	 1.76644228E+03
					-1.02054000E+02	 6.27959000E+01	 4.16235000E+02	-1.00054000E-07	-2.23592000E-08	-1.86445000E+02	 5.60931637E+02	-1.62154876E+02	 6.27959000E+01	 4.76335876E+02
					 1.00896000E+02	 3.62750000E+02	 1.75737000E+03	-1.09305000E-07	-5.31328000E-08	-1.22924000E+02	 1.55693616E+03	 9.18237155E+01	 3.62750000E+02	 1.76644228E+03
					-1.02547000E+02	 4.49452000E+01	 3.28752000E+02	-3.84136000E-08	-7.35764000E-09	-1.43684000E+02	 4.53976666E+02	-1.46030282E+02	 4.49452000E+01	 3.72235282E+02
					 2.26182000E+01	 2.07546000E+02	 1.03207000E+03	-5.85218000E-08	-8.16946000E-08	-1.02418000E+02	 9.47620107E+02	 1.23317886E+01	 2.07546000E+02	 1.04235641E+03
					-1.02547000E+02	 4.49452000E+01	 3.28752000E+02	-3.84208000E-08	-7.35638000E-09	-1.43684000E+02	 4.53976666E+02	-1.46030282E+02	 4.49452000E+01	 3.72235282E+02
					 2.26182000E+01	 2.07546000E+02	 1.03207000E+03	-5.85216000E-08	-8.16939000E-08	-1.02418000E+02	 9.47620107E+02	 1.23317886E+01	 2.07546000E+02	 1.04235641E+03
					-7.51140000E+01	 2.40902000E+01	 1.96423000E+02	 3.37356000E-08	 7.20003000E-09	-8.48498000E+01	 2.79704613E+02	-9.94472619E+01	 2.40902000E+01	 2.20756262E+02
					-1.55235000E+01	 8.57257000E+01	 4.48211000E+02	 4.08496000E-08	-9.48244000E-08	-5.98042000E+01	 4.34830964E+02	-2.31118074E+01	 8.57257000E+01	 4.55799307E+02
					-7.51140000E+01	 2.40902000E+01	 1.96423000E+02	 3.37472000E-08	 7.19980000E-09	-8.48498000E+01	 2.79704613E+02	-9.94472619E+01	 2.40902000E+01	 2.20756262E+02
					-1.55235000E+01	 8.57257000E+01	 4.48211000E+02	 4.08448000E-08	-9.48248000E-08	-5.98042000E+01	 4.34830964E+02	-2.31118074E+01	 8.57257000E+01	 4.55799307E+02
					-3.30124000E+01	 1.86012000E+01	 1.26411000E+02	 1.35803000E-07	 8.46873000E-09	-5.34205000E+01	 1.68560428E+02	-4.92574868E+01	 1.86012000E+01	 1.42656087E+02
					-6.93187000E+00	 3.83654000E+01	 1.99440000E+02	 1.42039000E-07	-9.09537000E-08	-4.27129000E+01	 2.01906623E+02	-1.54228306E+01	 3.83654000E+01	 2.07930961E+02
					-3.30124000E+01	 1.86012000E+01	 1.26411000E+02	 1.35805000E-07	 8.46893000E-09	-5.34205000E+01	 1.68560428E+02	-4.92574868E+01	 1.86012000E+01	 1.42656087E+02
					-6.93187000E+00	 3.83654000E+01	 1.99440000E+02	 1.42046000E-07	-9.09534000E-08	-4.27129000E+01	 2.01906623E+02	-1.54228306E+01	 3.83654000E+01	 2.07930961E+02
					 3.85789000E+03	 3.11855000E+03	 1.43357000E+04	 0.00000000E+00	 0.00000000E+00	 5.62959000E+03	 1.45998165E+04	 1.40664486E+03	 3.11855000E+03	 1.67869451E+04
					 1.19809000E+03	 2.32013000E+03	 1.20463000E+04	 6.58884000E-09	-3.62799000E-09	 2.26421000E+03	 1.10521694E+04	 7.44477588E+02	 2.32013000E+03	 1.24999124E+04
					 3.85789000E+03	 3.11855000E+03	 1.43357000E+04	 0.00000000E+00	 0.00000000E+00	 5.62959000E+03	 1.45998165E+04	 1.40664486E+03	 3.11855000E+03	 1.67869451E+04