<?xml version="1.0"?>
<VTKFile type="UnstructuredGrid" version="0.1" byte_order="LittleEndian">
	<UnstructuredGrid>
		<Piece NumberOfPoints="126" NumberOfCells="40">
			<Points>
				<DataArray type="Float64" NumberOfComponents="3" format="ascii">
					 5.00000000E-02	 0.00000000E+00	 0.00000000E+00
					 0.00000000E+00	 0.00000000E+00	 0.00000000E+00
					 0.00000000E+00	 0.00000000E+00	 5.00000000E-02
					 5.00000000E-02	 0.00000000E+00	 5.00000000E-02
					 5.00000000E-02	 3.00000000E-01	 0.00000000E+00
					 0.00000000E+00	 3.00000000E-01	 0.00000000E+00
					 0.00000000E+00	 3.00000000E-01	 5.00000000E-02
					 5.00000000E-02	 3.00000000E-01	 5.00000000E-02
					 0.00000000E+00	 0.00000000E+00	 1.00000000E-01
					 5.00000000E-02	 0.00000000E+00	 1.00000000E-01
					 0.00000000E+00	 3.00000000E-01	 1.00000000E-01
					 5.00000000E-02	 3.00000000E-01	 1.00000000E-01
					 0.00000000E+00	 0.00000000E+00	 1.50000000E-01
					 5.00000000E-02	 0.00000000E+00	 1.50000000E-01
					 0.00000000E+00	 3.00000000E-01	 1.50000000E-01
					 5.00000000E-02	 3.00000000E-01	 1.50000000E-01
					 0.00000000E+00	 0.00000000E+00	 2.00000000E-01
					 5.00000000E-02	 0.00000000E+00	 2.00000000E-01
					 0.00000000E+00	 3.00000000E-01	 2.00000000E-01
					 5.00000000E-02	 3.00000000E-01	 2.00000000E-01
					 0.00000000E+00	 0.00000000E+00	 2.50000000E-01
					 5.00000000E-02	 0.00000000E+00	 2.50000000E-01
					 0.00000000E+00	 3.00000000E-01	 2.50000000E-01
					 5.00000000E-02	 3.00000000E-01	 2.50000000E-01
					 0.00000000E+00	 0.00000000E+00	 3.00000000E-01
					 5.00000000E-02	 0.00000000E+00	 3.00000000E-01
					 0.00000000E+00	 3.00000000E-01	 3.00000000E-01
					 5.00000000E-02	 3.00000000E-01	 3.00000000E-01
					 0.00000000E+00	 0.00000000E+00	 3.50000000E-01
					 5.00000000E-02	 0.00000000E+00	 3.50000000E-01
					 0.00000000E+00	 3.00000000E-01	 3.50000000E-01
					 5.00000000E-02	 3.00000000E-01	 3.50000000E-01
					 0.00000000E+00	 0.00000000E+00	 4.00000000E-01
					 5.00000000E-02	 0.00000000E+00	 4.00000000E-01
					 0.00000000E+00	 3.00000000E-01	 4.00000000E-01
					 5.00000000E-02	 3.00000000E-01	 4.00000000E-01
					 0.00000000E+00	 0.00000000E+00	 4.50000000E-01
					 5.00000000E-02	 0.00000000E+00	 4.50000000E-01
					 0.00000000E+00	 3.00000000E-01	 4.50000000E-01
					 5.00000000E-02	 3.00000000E-01	 4.50000000E-01
					 0.00000000E+00	 0.00000000E+00	 5.00000000E-01
					 5.00000000E-02	 0.00000000E+00	 5.00000000E-01
					 0.00000000E+00	 3.00000000E-01	 5.00000000E-01
					 5.00000000E-02	 3.00000000E-01	 5.00000000E-01
					 0.00000000E+00	 0.00000000E+00	 5.50000000E-01
					 5.00000000E-02	 0.00000000E+00	 5.50000000E-01
					 0.00000000E+00	 3.00000000E-01	 5.50000000E-01
					 5.00000000E-02	 3.00000000E-01	 5.50000000E-01
					 0.00000000E+00	 0.00000000E+00	 6.00000000E-01
					 5.00000000E-02	 0.00000000E+00	 6.00000000E-01
					 0.00000000E+00	 3.00000000E-01	 6.00000000E-01
					 5.00000000E-02	 3.00000000E-01	 6.00000000E-01
					 0.00000000E+00	 0.00000000E+00	 6.50000000E-01
					 5.00000000E-02	 0.00000000E+00	 6.50000000E-01
					 0.00000000E+00	 3.00000000E-01	 6.50000000E-01
					 5.00000000E-02	 3.00000000E-01	 6.50000000E-01
					 0.00000000E+00	 0.00000000E+00	 7.00000000E-01
					 5.00000000E-02	 0.00000000E+00	 7.00000000E-01
					 0.00000000E+00	 3.00000000E-01	 7.00000000E-01
					 5.00000000E-02	 3.00000000E-01	 7.00000000E-01
					 0.00000000E+00	 0.00000000E+00	 7.50000000E-01
					 5.00000000E-02	 0.00000000E+00	 7.50000000E-01
					 0.00000000E+00	 3.00000000E-01	 7.50000000E-01
					 5.00000000E-02	 3.00000000E-01	 7.50000000E-01
					 0.00000000E+00	 0.00000000E+00	 8.00000000E-01
					 5.00000000E-02	 0.00000000E+00	 8.00000000E-01
					 0.00000000E+00	 3.00000000E-01	 8.00000000E-01
					 5.00000000E-02	 3.00000000E-01	 8.00000000E-01
					 0.00000000E+00	 0.00000000E+00	 8.50000000E-01
					 5.00000000E-02	 0.00000000E+00	 8.50000000E-01
					 0.00000000E+00	 3.00000000E-01	 8.50000000E-01
					 5.00000000E-02	 3.00000000E-01	 8.50000000E-01
					 0.00000000E+00	 0.00000000E+00	 9.00000000E-01
					 5.00000000E-02	 0.00000000E+00	 9.00000000E-01
					 0.00000000E+00	 3.00000000E-01	 9.00000000E-01
					 5.00000000E-02	 3.00000000E-01	 9.00000000E-01
					 0.00000000E+00	 0.00000000E+00	 9.50000000E-01
					 5.00000000E-02	 0.00000000E+00	 9.50000000E-01
					 0.00000000E+00	 3.00000000E-01	 9.50000000E-01
					 5.00000000E-02	 3.00000000E-01	 9.50000000E-01
					 0.00000000E+00	 0.00000000E+00	 1.00000000E+00
					 5.00000000E-02	 0.00000000E+00	 1.00000000E+00
					 0.00000000E+00	 3.00000000E-01	 1.00000000E+00
					 5.00000000E-02	 3.00000000E-01	 1.00000000E+00
					-5.00000000E-02	 0.00000000E+00	 0.00000000E+00
					-5.00000000E-02	 0.00000000E+00	 5.00000000E-02
					-5.00000000E-02	 3.00000000E-01	 0.00000000E+00
					-5.00000000E-02	 3.00000000E-01	 5.00000000E-02
					-5.00000000E-02	 0.00000000E+00	 1.00000000E-01
					-5.00000000E-02	 3.00000000E-01	 1.00000000E-01
					-5.00000000E-02	 0.00000000E+00	 1.50000000E-01
					-5.00000000E-02	 3.00000000E-01	 1.50000000E-01
					-5.00000000E-02	 0.00000000E+00	 2.00000000E-01
					-5.00000000E-02	 3.00000000E-01	 2.00000000E-01
					-5.00000000E-02	 0.00000000E+00	 2.50000000E-01
					-5.00000000E-02	 3.00000000E-01	 2.50000000E-01
					-5.00000000E-02	 0.00000000E+00	 3.00000000E-01
					-5.00000000E-02	 3.00000000E-01	 3.00000000E-01
					-5.00000000E-02	 0.00000000E+00	 3.50000000E-01
					-5.00000000E-02	 3.00000000E-01	 3.50000000E-01
					-5.00000000E-02	 0.00000000E+00	 4.00000000E-01
					-5.00000000E-02	 3.00000000E-01	 4.00000000E-01
					-5.00000000E-02	 0.00000000E+00	 4.50000000E-01
					-5.00000000E-02	 3.00000000E-01	 4.50000000E-01
					-5.00000000E-02	 0.00000000E+00	 5.00000000E-01
					-5.00000000E-02	 3.00000000E-01	 5.00000000E-01
					-5.00000000E-02	 0.00000000E+00	 5.50000000E-01
					-5.00000000E-02	 3.00000000E-01	 5.50000000E-01
					-5.00000000E-02	 0.00000000E+00	 6.00000000E-01
					-5.00000000E-02	 3.00000000E-01	 6.00000000E-01
					-5.00000000E-02	 0.00000000E+00	 6.50000000E-01
					-5.00000000E-02	 3.00000000E-01	 6.50000000E-01
					-5.00000000E-02	 0.00000000E+00	 7.00000000E-01
					-5.00000000E-02	 3.00000000E-01	 7.00000000E-01
					-5.00000000E-02	 0.00000000E+00	 7.50000000E-01
					-5.00000000E-02	 3.00000000E-01	 7.50000000E-01
					-5.00000000E-02	 0.00000000E+00	 8.00000000E-01
					-5.00000000E-02	 3.00000000E-01	 8.00000000E-01
					-5.00000000E-02	 0.00000000E+00	 8.50000000E-01
					-5.00000000E-02	 3.00000000E-01	 8.50000000E-01
					-5.00000000E-02	 0.00000000E+00	 9.00000000E-01
					-5.00000000E-02	 3.00000000E-01	 9.00000000E-01
					-5.00000000E-02	 0.00000000E+00	 9.50000000E-01
					-5.00000000E-02	 3.00000000E-01	 9.50000000E-01
					-5.00000000E-02	 0.00000000E+00	 1.00000000E+00
					-5.00000000E-02	 3.00000000E-01	 1.00000000E+00

				</DataArray>
			</Points>
			<Cells>
				<DataArray type="Int32" Name="connectivity" format="ascii">
					0 1 2 3 4 5 6 7 3 2 8 9 7 6 10 11 9 8 12 13 11 10 14 15 13 12 16 17 15 14 18 19 17 16 20 21 19 18 22 23 21 20 24 25 23 22 26 27 25 24 28 29 27 26 30 31 29 28 32 33 31 30 34 35 33 32 36 37 35 34 38 39 37 36 40 41 39 38 42 43 41 40 44 45 43 42 46 47 45 44 48 49 47 46 50 51 49 48 52 53 51 50 54 55 53 52 56 57 55 54 58 59 57 56 60 61 59 58 62 63 61 60 64 65 63 62 66 67 65 64 68 69 67 66 70 71 69 68 72 73 71 70 74 75 73 72 76 77 75 74 78 79 77 76 80 81 79 78 82 83 1 84 85 2 5 86 87 6 2 85 88 8 6 87 89 10 8 88 90 12 10 89 91 14 12 90 92 16 14 91 93 18 16 92 94 20 18 93 95 22 20 94 96 24 22 95 97 26 24 96 98 28 26 97 99 30 28 98 100 32 30 99 101 34 32 100 102 36 34 101 103 38 36 102 104 40 38 103 105 42 40 104 106 44 42 105 107 46 44 106 108 48 46 107 109 50 48 108 110 52 50 109 111 54 52 110 112 56 54 111 113 58 56 112 114 60 58 113 115 62 60 114 116 64 62 115 117 66 64 116 118 68 66 117 119 70 68 118 120 72 70 119 121 74 72 120 122 76 74 121 123 78 76 122 124 80 78 123 125 82 
				</DataArray>
				<DataArray type="Int32" Name="offsets" format="ascii">
					8 16 24 32 40 48 56 64 72 80 88 96 104 112 120 128 136 144 152 160 168 176 184 192 200 208 216 224 232 240 248 256 264 272 280 288 296 304 312 320 
				</DataArray>
				<DataArray type="UInt8" Name="types" format="ascii">
					12 12 12 12 12 12 12 12 12 12 12 12 12 12 12 12 12 12 12 12 12 12 12 12 12 12 12 12 12 12 12 12 12 12 12 12 12 12 12 12 
				</DataArray>
			</Cells>
			<PointData>
				<DataArray type="Float32" Name="U" NumberOfComponents="3" ComponentName0="D1" ComponentName1="D2" ComponentName2="D3" format="ascii">
					 0.00000000E+00	 0.00000000E+00	 0.00000000E+00
					 0.00000000E+00	 0.00000000E+00	 0.00000000E+00
					 3.64925000E-03	 0.00000000E+00	-5.36429000E-04
					 4.01613000E-03	 0.00000000E+00	-6.26286000E-03
					 0.00000000E+00	 0.00000000E+00	 0.00000000E+00
					 0.00000000E+00	 0.00000000E+00	 0.00000000E+00
					 3.64925000E-03	 0.00000000E+00	-5.36429000E-04
					 4.01613000E-03	 0.00000000E+00	-6.26286000E-03
					 1.27915000E-02	 0.00000000E+00	-1.56610000E-03
					 1.21168000E-02	 0.00000000E+00	-1.17019000E-02
					 1.27915000E-02	 0.00000000E+00	-1.56610000E-03
					 1.21168000E-02	 0.00000000E+00	-1.17019000E-02
					 2.54366000E-02	 0.00000000E+00	-3.29659000E-03
					 2.39457000E-02	 0.00000000E+00	-1.64919000E-02
					 2.54366000E-02	 0.00000000E+00	-3.29659000E-03
					 2.39457000E-02	 0.00000000E+00	-1.64919000E-02
					 4.04943000E-02	 0.00000000E+00	-5.64936000E-03
					 3.83067000E-02	 0.00000000E+00	-2.07664000E-02
					 4.04943000E-02	 0.00000000E+00	-5.64936000E-03
					 3.83067000E-02	 0.00000000E+00	-2.07664000E-02
					 5.69054000E-02	 0.00000000E+00	-8.39690000E-03
					 5.42814000E-02	 0.00000000E+00	-2.44935000E-02
					 5.69054000E-02	 0.00000000E+00	-8.39690000E-03
					 5.42814000E-02	 0.00000000E+00	-2.44935000E-02
					 7.38197000E-02	 0.00000000E+00	-1.12787000E-02
					 7.10111000E-02	 0.00000000E+00	-2.75942000E-02
					 7.38197000E-02	 0.00000000E+00	-1.12787000E-02
					 7.10111000E-02	 0.00000000E+00	-2.75942000E-02
					 9.05491000E-02	 0.00000000E+00	-1.40645000E-02
					 8.77897000E-02	 0.00000000E+00	-3.00063000E-02
					 9.05491000E-02	 0.00000000E+00	-1.40645000E-02
					 8.77897000E-02	 0.00000000E+00	-3.00063000E-02
					 1.06561000E-01	 0.00000000E+00	-1.65882000E-02
					 1.04011000E-01	 0.00000000E+00	-3.17004000E-02
					 1.06561000E-01	 0.00000000E+00	-1.65882000E-02
					 1.04011000E-01	 0.00000000E+00	-3.17004000E-02
					 1.21465000E-01	 0.00000000E+00	-1.87483000E-02
					 1.19227000E-01	 0.00000000E+00	-3.27059000E-02
					 1.21465000E-01	 0.00000000E+00	-1.87483000E-02
					 1.19227000E-01	 0.00000000E+00	-3.27059000E-02
					 1.35009000E-01	 0.00000000E+00	-2.05012000E-02
					 1.33123000E-01	 0.00000000E+00	-3.30816000E-02
					 1.35009000E-01	 0.00000000E+00	-2.05012000E-02
					 1.33123000E-01	 0.00000000E+00	-3.30816000E-02
					 1.47019000E-01	 0.00000000E+00	-2.18410000E-02
					 1.45494000E-01	 0.00000000E+00	-3.29074000E-02
					 1.47019000E-01	 0.00000000E+00	-2.18410000E-02
					 1.45494000E-01	 0.00000000E+00	-3.29074000E-02
					 1.57395000E-01	 0.00000000E+00	-2.27940000E-02
					 1.56200000E-01	 0.00000000E+00	-3.22885000E-02
					 1.57395000E-01	 0.00000000E+00	-2.27940000E-02
					 1.56200000E-01	 0.00000000E+00	-3.22885000E-02
					 1.66119000E-01	 0.00000000E+00	-2.34142000E-02
					 1.65207000E-01	 0.00000000E+00	-3.13685000E-02
					 1.66119000E-01	 0.00000000E+00	-2.34142000E-02
					 1.65207000E-01	 0.00000000E+00	-3.13685000E-02
					 1.73263000E-01	 0.00000000E+00	-2.37816000E-02
					 1.72583000E-01	 0.00000000E+00	-3.03136000E-02
					 1.73263000E-01	 0.00000000E+00	-2.37816000E-02
					 1.72583000E-01	 0.00000000E+00	-3.03136000E-02
					 1.78987000E-01	 0.00000000E+00	-2.39954000E-02
					 1.78506000E-01	 0.00000000E+00	-2.92897000E-02
					 1.78987000E-01	 0.00000000E+00	-2.39954000E-02
					 1.78506000E-01	 0.00000000E+00	-2.92897000E-02
					 1.83523000E-01	 0.00000000E+00	-2.41400000E-02
					 1.83197000E-01	 0.00000000E+00	-2.84293000E-02
					 1.83523000E-01	 0.00000000E+00	-2.41400000E-02
					 1.83197000E-01	 0.00000000E+00	-2.84293000E-02
					 1.87160000E-01	 0.00000000E+00	-2.42576000E-02
					 1.86942000E-01	 0.00000000E+00	-2.78219000E-02
					 1.87160000E-01	 0.00000000E+00	-2.42576000E-02
					 1.86942000E-01	 0.00000000E+00	-2.78219000E-02
					 1.90236000E-01	 0.00000000E+00	-2.43621000E-02
					 1.90083000E-01	 0.00000000E+00	-2.74998000E-02
					 1.90236000E-01	 0.00000000E+00	-2.43621000E-02
					 1.90083000E-01	 0.00000000E+00	-2.74998000E-02
					 1.93083000E-01	 0.00000000E+00	-2.44580000E-02
					 1.92969000E-01	 0.00000000E+00	-2.74248000E-02
					 1.93083000E-01	 0.00000000E+00	-2.44580000E-02
					 1.92969000E-01	 0.00000000E+00	-2.74248000E-02
					 1.95955000E-01	 0.00000000E+00	-2.45459000E-02
					 1.95860000E-01	 0.00000000E+00	-2.74870000E-02
					 1.95955000E-01	 0.00000000E+00	-2.45459000E-02
					 1.95860000E-01	 0.00000000E+00	-2.74870000E-02
					 0.00000000E+00	 0.00000000E+00	 0.00000000E+00
					 4.88386000E-03	 0.00000000E+00	 4.98212000E-03
					 0.00000000E+00	 0.00000000E+00	 0.00000000E+00
					 4.88386000E-03	 0.00000000E+00	 4.98212000E-03
					 1.43521000E-02	 0.00000000E+00	 8.28469000E-03
					 1.43521000E-02	 0.00000000E+00	 8.28469000E-03
					 2.75694000E-02	 0.00000000E+00	 9.65142000E-03
					 2.75694000E-02	 0.00000000E+00	 9.65142000E-03
					 4.30632000E-02	 0.00000000E+00	 9.31261000E-03
					 4.30632000E-02	 0.00000000E+00	 9.31261000E-03
					 5.97056000E-02	 0.00000000E+00	 7.63604000E-03
					 5.97056000E-02	 0.00000000E+00	 7.63604000E-03
					 7.66418000E-02	 0.00000000E+00	 5.04183000E-03
					 7.66418000E-02	 0.00000000E+00	 5.04183000E-03
					 9.31828000E-02	 0.00000000E+00	 1.93219000E-03
					 9.31828000E-02	 0.00000000E+00	 1.93219000E-03
					 1.08886000E-01	 0.00000000E+00	-1.39238000E-03
					 1.08886000E-01	 0.00000000E+00	-1.39238000E-03
					 1.23406000E-01	 0.00000000E+00	-4.69555000E-03
					 1.23406000E-01	 0.00000000E+00	-4.69555000E-03
					 1.36556000E-01	 0.00000000E+00	-7.82852000E-03
					 1.36556000E-01	 0.00000000E+00	-7.82852000E-03
					 1.48174000E-01	 0.00000000E+00	-1.06887000E-02
					 1.48174000E-01	 0.00000000E+00	-1.06887000E-02
					 1.58220000E-01	 0.00000000E+00	-1.32250000E-02
					 1.58220000E-01	 0.00000000E+00	-1.32250000E-02
					 1.66676000E-01	 0.00000000E+00	-1.54039000E-02
					 1.66676000E-01	 0.00000000E+00	-1.54039000E-02
					 1.73631000E-01	 0.00000000E+00	-1.72257000E-02
					 1.73631000E-01	 0.00000000E+00	-1.72257000E-02
					 1.79202000E-01	 0.00000000E+00	-1.87042000E-02
					 1.79202000E-01	 0.00000000E+00	-1.87042000E-02
					 1.83653000E-01	 0.00000000E+00	-1.98592000E-02
					 1.83653000E-01	 0.00000000E+00	-1.98592000E-02
					 1.87257000E-01	 0.00000000E+00	-2.06951000E-02
					 1.87257000E-01	 0.00000000E+00	-2.06951000E-02
					 1.90341000E-01	 0.00000000E+00	-2.12259000E-02
					 1.90341000E-01	 0.00000000E+00	-2.12259000E-02
					 1.93192000E-01	 0.00000000E+00	-2.15010000E-02
					 1.93192000E-01	 0.00000000E+00	-2.15010000E-02
					 1.96057000E-01	 0.00000000E+00	-2.16196000E-02
					 1.96057000E-01	 0.00000000E+00	-2.16196000E-02
				</DataArray>
				<DataArray type="Float32" Name="S" NumberOfComponents="10" ComponentName0="xx" ComponentName1="yy" ComponentName2="zz" ComponentName3="xy" ComponentName4="yz" ComponentName5="zx" ComponentName6="Mises" ComponentName7="Min Principal" ComponentName8="Mid Principal" ComponentName9="Max Principal" format="ascii">
					-3.84731000E+03	-4.34400000E+03	-1.39303000E+04	 0.00000000E+00	 0.00000000E+00	 2.81943000E+03	 1.09887590E+04	-1.46651237E+04	-4.34400000E+03	-3.11248633E+03
					 1.38592000E+02	-2.68523000E+02	-1.72053000E+03	 0.00000000E+00	-1.02371000E-09	 3.51452000E+03	 6.31828721E+03	-4.42634167E+03	-2.68523000E+02	 2.84440367E+03
					-5.36505000E+01	-2.78240000E+02	-1.56010000E+03	-5.69733000E-08	-2.01046000E-08	 6.51779000E+02	 1.80442384E+03	-1.80294924E+03	-2.78240000E+02	 1.89198738E+02
					-1.61406000E+03	-3.25276000E+03	-1.20753000E+04	-8.47982000E-09	-1.61384000E-08	-3.17441000E+02	 9.76126797E+03	-1.20849237E+04	-3.25276000E+03	-1.60443627E+03
					-3.84731000E+03	-4.34400000E+03	-1.39303000E+04	 0.00000000E+00	 0.00000000E+00	 2.81943000E+03	 1.09887590E+04	-1.46651237E+04	-4.34400000E+03	-3.11248633E+03
					 1.38592000E+02	-2.68523000E+02	-1.72053000E+03	 0.00000000E+00	-1.02371000E-09	 3.51452000E+03	 6.31828721E+03	-4.42634167E+03	-2.68523000E+02	 2.84440367E+03
					-5.36505000E+01	-2.78240000E+02	-1.56010000E+03	-5.69734000E-08	-2.01046000E-08	 6.51779000E+02	 1.80442384E+03	-1.80294924E+03	-2.78240000E+02	 1.89198738E+02
					-1.61406000E+03	-3.25276000E+03	-1.20753000E+04	-8.47964000E-09	-1.61383000E-08	-3.17441000E+02	 9.76126797E+03	-1.20849237E+04	-3.25276000E+03	-1.60443627E+03
					 9.33849000E+01	-1.68057000E+02	-1.10649000E+03	-5.71586000E-09	-2.59102000E-08	 7.54464000E+02	 1.70352630E+03	-1.47047209E+03	-1.68057000E+02	 4.57366986E+02
					-1.73054000E+03	-2.50222000E+03	-9.30334000E+03	-8.95324000E-09	-3.08117000E-08	-9.33480000E+02	 7.39683488E+03	-9.41671049E+03	-2.50222000E+03	-1.61716951E+03
					 9.33849000E+01	-1.68057000E+02	-1.10649000E+03	-5.71546000E-09	-2.59101000E-08	 7.54464000E+02	 1.70352630E+03	-1.47047209E+03	-1.68057000E+02	 4.57366986E+02
					-1.73054000E+03	-2.50222000E+03	-9.30334000E+03	-8.95370000E-09	-3.08121000E-08	-9.33480000E+02	 7.39683488E+03	-9.41671049E+03	-2.50222000E+03	-1.61716951E+03
					 2.37631000E+02	-9.17713000E+01	-7.67508000E+02	 6.14860000E-08	-2.12563000E-08	 6.45964000E+02	 1.42811892E+03	-1.08337945E+03	-9.17713000E+01	 5.53502452E+02
					-1.07409000E+03	-1.63240000E+03	-6.41641000E+03	 8.10128000E-08	-2.21142000E-08	-8.25010000E+02	 5.28311905E+03	-6.54091401E+03	-1.63240000E+03	-9.49585992E+02
					 2.37631000E+02	-9.17713000E+01	-7.67508000E+02	 6.14848000E-08	-2.12563000E-08	 6.45964000E+02	 1.42811892E+03	-1.08337945E+03	-9.17713000E+01	 5.53502452E+02
					-1.07409000E+03	-1.63240000E+03	-6.41641000E+03	 8.10142000E-08	-2.21143000E-08	-8.25010000E+02	 5.28311905E+03	-6.54091401E+03	-1.63240000E+03	-9.49585992E+02
					 2.83914000E+02	-4.31570000E+01	-5.20385000E+02	 1.52969000E-08	-1.99378000E-08	 5.89968000E+02	 1.23894962E+03	-8.32228820E+02	-4.31570000E+01	 5.95757820E+02
					-6.08024000E+02	-9.55583000E+02	-3.92325000E+03	 1.41632000E-08	 2.71081000E-09	-4.74910000E+02	 3.26127315E+03	-3.98993986E+03	-9.55583000E+02	-5.41334136E+02
					 2.83914000E+02	-4.31570000E+01	-5.20385000E+02	 1.52970000E-08	-1.99379000E-08	 5.89968000E+02	 1.23894962E+03	-8.32228820E+02	-4.31570000E+01	 5.95757820E+02
					-6.08024000E+02	-9.55583000E+02	-3.92325000E+03	 1.41630000E-08	 2.71097000E-09	-4.74910000E+02	 3.26127315E+03	-3.98993986E+03	-9.55583000E+02	-5.41334136E+02
					 2.72182000E+02	-1.08078000E+01	-3.23194000E+02	 5.46273000E-09	-7.49041000E-09	 5.27314000E+02	 1.04892833E+03	-6.31045594E+02	-1.08078000E+01	 5.80033594E+02
					-1.54066000E+02	-3.97166000E+02	-1.77450000E+03	-1.73635000E-08	-1.68956000E-08	-1.13398000E+01	 1.51372462E+03	-1.77457935E+03	-3.97166000E+02	-1.53986648E+02
					 2.72182000E+02	-1.08078000E+01	-3.23194000E+02	 5.46121000E-09	-7.49024000E-09	 5.27314000E+02	 1.04892833E+03	-6.31045594E+02	-1.08078000E+01	 5.80033594E+02
					-1.54066000E+02	-3.97166000E+02	-1.77450000E+03	-1.73591000E-08	-1.68949000E-08	-1.13398000E+01	 1.51372462E+03	-1.77457935E+03	-3.97166000E+02	-1.53986648E+02
					 1.94102000E+02	 2.02503000E+00	-1.76095000E+02	 6.18313000E-08	 0.00000000E+00	 4.68651000E+02	 8.72773936E+02	-4.94876659E+02	 2.02503000E+00	 5.12883659E+02
					 1.96886000E+02	 3.84965000E+01	 1.30494000E+01	 5.99344000E-08	-3.60816000E-08	 4.33532000E+02	 7.70464358E+02	-3.38201533E+02	 3.84965000E+01	 5.48136933E+02
					 1.94102000E+02	 2.02503000E+00	-1.76095000E+02	 6.18323000E-08	 0.00000000E+00	 4.68651000E+02	 8.72773936E+02	-4.94876659E+02	 2.02503000E+00	 5.12883659E+02
					 1.96886000E+02	 3.84965000E+01	 1.30494000E+01	 5.99324000E-08	-3.60816000E-08	 4.33532000E+02	 7.70464358E+02	-3.38201533E+02	 3.84965000E+01	 5.48136933E+02
					 1.34649000E+02	 1.55827000E+01	-5.45677000E+01	 8.29806000E-08	-1.47281000E-08	 3.90128000E+02	 6.95737005E+02	-3.61395019E+02	 1.55827000E+01	 4.41476319E+02
					 4.67090000E+02	 3.76164000E+02	 1.46930000E+03	 9.38075000E-08	-2.21204000E-08	 7.70001000E+02	 1.69779975E+03	 4.94960498E+01	 3.76164000E+02	 1.88689395E+03
					 1.34649000E+02	 1.55827000E+01	-5.45677000E+01	 8.29842000E-08	-1.47283000E-08	 3.90128000E+02	 6.95737005E+02	-3.61395019E+02	 1.55827000E+01	 4.41476319E+02
					 4.67090000E+02	 3.76164000E+02	 1.46930000E+03	 9.38042000E-08	-2.21201000E-08	 7.70001000E+02	 1.69779975E+03	 4.94960498E+01	 3.76164000E+02	 1.88689395E+03
					 5.04755000E+01	 1.62675000E+01	 2.33990000E+01	 1.97800000E-08	-2.07850000E-08	 3.11018000E+02	 5.39605115E+02	-2.74375263E+02	 1.62675000E+01	 3.48249763E+02
					 6.13346000E+02	 6.16638000E+02	 2.59035000E+03	 4.80295000E-08	 2.12711000E-08	 9.71815000E+02	 2.59524961E+03	 2.15644336E+02	 6.16638000E+02	 2.98805166E+03
					 5.04755000E+01	 1.62675000E+01	 2.33990000E+01	 1.97777000E-08	-2.07856000E-08	 3.11018000E+02	 5.39605115E+02	-2.74375263E+02	 1.62675000E+01	 3.48249763E+02
					 6.13346000E+02	 6.16638000E+02	 2.59035000E+03	 4.80325000E-08	 2.12721000E-08	 9.71815000E+02	 2.59524961E+03	 2.15644336E+02	 6.16638000E+02	 2.98805166E+03
					-1.30624000E+01	 1.71658000E+01	 8.16869000E+01	-5.79583000E-08	 1.00730000E-08	 2.36246000E+02	 4.17688389E+02	-2.06636977E+02	 1.71658000E+01	 2.75261477E+02
					 6.74585000E+02	 7.80660000E+02	 3.41185000E+03	-3.14492000E-08	 4.01934000E-08	 1.04790000E+03	 3.24157360E+03	 3.19486277E+02	 7.80660000E+02	 3.76694872E+03
					-1.30624000E+01	 1.71658000E+01	 8.16869000E+01	-5.79588000E-08	 1.00728000E-08	 2.36246000E+02	 4.17688389E+02	-2.06636977E+02	 1.71658000E+01	 2.75261477E+02
					 6.74585000E+02	 7.80660000E+02	 3.41185000E+03	-3.14491000E-08	 4.01934000E-08	 1.04790000E+03	 3.24157360E+03	 3.19486277E+02	 7.80660000E+02	 3.76694872E+03
					-7.63833000E+01	 1.53897000E+01	 1.29004000E+02	-5.29756000E-08	 9.27650000E-09	 1.75356000E+02	 3.52145422E+02	-1.76903115E+02	 1.53897000E+01	 2.29523815E+02
					 6.71338000E+02	 8.85183000E+02	 3.98635000E+03	-4.52641000E-08	 1.48959000E-08	 1.03046000E+03	 3.67582357E+03	 3.77133481E+02	 8.85183000E+02	 4.28055452E+03
					-7.63833000E+01	 1.53897000E+01	 1.29004000E+02	-5.29794000E-08	 9.27614000E-09	 1.75356000E+02	 3.52145422E+02	-1.76903115E+02	 1.53897000E+01	 2.29523815E+02
					 6.71338000E+02	 8.85183000E+02	 3.98635000E+03	-4.52616000E-08	 1.48958000E-08	 1.03046000E+03	 3.67582357E+03	 3.77133481E+02	 8.85183000E+02	 4.28055452E+03
					-9.22349000E+01	 2.56190000E+01	 1.92479000E+02	-4.49263000E-08	-6.91743000E-09	 1.11416000E+02	 3.14066041E+02	-1.30651361E+02	 2.56190000E+01	 2.30895461E+02
					 6.45277000E+02	 9.46476000E+02	 4.34947000E+03	-4.77380000E-08	 8.11789000E-09	 9.29879000E+02	 3.91025476E+03	 4.24950667E+02	 9.46476000E+02	 4.56979633E+03
					-9.22349000E+01	 2.56190000E+01	 1.92479000E+02	-4.49234000E-08	-6.91739000E-09	 1.11416000E+02	 3.14066041E+02	-1.30651361E+02	 2.56190000E+01	 2.30895461E+02
					 6.45277000E+02	 9.46476000E+02	 4.34947000E+03	-4.77387000E-08	 8.11669000E-09	 9.29879000E+02	 3.91025476E+03	 4.24950667E+02	 9.46476000E+02	 4.56979633E+03
					-1.22435000E+02	 3.14456000E+01	 2.51885000E+02	-6.49152000E-08	 1.40885000E-08	 4.86036000E+01	 3.36572496E+02	-1.28642980E+02	 3.14456000E+01	 2.58092980E+02
					 5.73793000E+02	 9.55646000E+02	 4.47223000E+03	-8.26105000E-08	 1.79485000E-08	 7.65146000E+02	 3.95111859E+03	 4.28995941E+02	 9.55646000E+02	 4.61702706E+03
					-1.22435000E+02	 3.14456000E+01	 2.51885000E+02	-6.49155000E-08	 1.40900000E-08	 4.86036000E+01	 3.36572496E+02	-1.28642980E+02	 3.14456000E+01	 2.58092980E+02
					 5.73793000E+02	 9.55646000E+02	 4.47223000E+03	-8.26208000E-08	 1.79473000E-08	 7.65146000E+02	 3.95111859E+03	 4.28995941E+02	 9.55646000E+02	 4.61702706E+03
					-1.44794000E+02	 3.46767000E+01	 2.93557000E+02	-6.43264000E-08	 4.50730000E-08	-1.83568000E+01	 3.83015779E+02	-1.45561383E+02	 3.46767000E+01	 2.94324383E+02
					 4.76993000E+02	 9.10690000E+02	 4.32164000E+03	-8.84760000E-08	 2.56331000E-09	 5.62686000E+02	 3.77516071E+03	 3.96332932E+02	 9.10690000E+02	 4.40230007E+03
					-1.44794000E+02	 3.46767000E+01	 2.93557000E+02	-6.43278000E-08	 4.50717000E-08	-1.83568000E+01	 3.83015779E+02	-1.45561383E+02	 3.46767000E+01	 2.94324383E+02
					 4.76993000E+02	 9.10690000E+02	 4.32164000E+03	-8.84754000E-08	 2.56393000E-09	 5.62686000E+02	 3.77516071E+03	 3.96332932E+02	 9.10690000E+02	 4.40230007E+03
					-1.74050000E+02	 2.39591000E+01	 2.74188000E+02	 1.23886000E-08	 2.46541000E-08	-8.44519000E+01	 4.15651387E+02	-1.89433504E+02	 2.39591000E+01	 2.89571504E+02
					 3.69917000E+02	 8.12341000E+02	 3.88875000E+03	 2.09175000E-08	-3.80956000E-08	 3.56859000E+02	 3.37685557E+03	 3.34091242E+02	 8.12341000E+02	 3.92457576E+03
					-1.74050000E+02	 2.39591000E+01	 2.74188000E+02	 1.23959000E-08	 2.46545000E-08	-8.44519000E+01	 4.15651387E+02	-1.89433504E+02	 2.39591000E+01	 2.89571504E+02
					 3.69917000E+02	 8.12341000E+02	 3.88875000E+03	 2.09249000E-08	-3.80969000E-08	 3.56859000E+02	 3.37685557E+03	 3.34091242E+02	 8.12341000E+02	 3.92457576E+03
					-1.41148000E+02	 1.40213000E+01	 1.97384000E+02	 9.43279000E-08	-1.08661000E-08	-1.47628000E+02	 3.89273339E+02	-1.96481655E+02	 1.40213000E+01	 2.52717655E+02
					 3.00857000E+02	 6.78033000E+02	 3.22534000E+03	 9.82080000E-08	-6.97986000E-08	 1.69808000E+02	 2.77097853E+03	 2.91030240E+02	 6.78033000E+02	 3.23516676E+03
					-1.41148000E+02	 1.40213000E+01	 1.97384000E+02	 9.43230000E-08	-1.08649000E-08	-1.47628000E+02	 3.89273339E+02	-1.96481655E+02	 1.40213000E+01	 2.52717655E+02
					 3.00857000E+02	 6.78033000E+02	 3.22534000E+03	 9.81984000E-08	-6.98006000E-08	 1.69808000E+02	 2.77097853E+03	 2.91030240E+02	 6.78033000E+02	 3.23516676E+03
					-1.17794000E+02	-3.93233000E+00	 9.01536000E+01	 1.31904000E-07	-1.10251000E-08	-1.90873000E+02	 3.76599163E+02	-2.31174871E+02	-3.93233000E+00	 2.03534471E+02
					 2.26471000E+02	 5.10927000E+02	 2.40511000E+03	 1.07129000E-07	-6.43709000E-08	 2.10911000E+01	 2.05158248E+03	 2.26266839E+02	 5.10927000E+02	 2.40531416E+03
					-1.17794000E+02	-3.93233000E+00	 9.01536000E+01	 1.31908000E-07	-1.10259000E-08	-1.90873000E+02	 3.76599163E+02	-2.31174871E+02	-3.93233000E+00	 2.03534471E+02
					 2.26471000E+02	 5.10927000E+02	 2.40511000E+03	 1.07128000E-07	-6.43709000E-08	 2.10911000E+01	 2.05158248E+03	 2.26266839E+02	 5.10927000E+02	 2.40531416E+03
					-1.03464000E+02	-1.82587000E+01	 8.88218000E+00	 1.34943000E-07	 0.00000000E+00	-2.03465000E+02	 3.66746692E+02	-2.58367726E+02	-1.82587000E+01	 1.63785906E+02
					 1.33294000E+02	 3.27180000E+02	 1.53541000E+03	 1.22210000E-07	-3.20635000E-08	-7.32946000E+01	 1.32203884E+03	 1.29472991E+02	 3.27180000E+02	 1.53923101E+03
					-1.03464000E+02	-1.82587000E+01	 8.88218000E+00	 1.34939000E-07	 0.00000000E+00	-2.03465000E+02	 3.66746692E+02	-2.58367726E+02	-1.82587000E+01	 1.63785906E+02
					 1.33294000E+02	 3.27180000E+02	 1.53541000E+03	 1.22221000E-07	-3.20629000E-08	-7.32946000E+01	 1.32203884E+03	 1.29472991E+02	 3.27180000E+02	 1.53923101E+03
					-1.09158000E+02	-2.83319000E+01	-3.31604000E+01	 1.11192000E-07	-2.70519000E-09	-1.73525000E+02	 3.10642368E+02	-2.48796005E+02	-2.83319000E+01	 1.06477605E+02
					 3.39786000E+01	 1.56388000E+02	 7.56949000E+02	 1.30762000E-07	-3.13669000E-09	-1.02872000E+02	 6.93483837E+02	 1.96258054E+01	 1.56388000E+02	 7.71301795E+02
					-1.09158000E+02	-2.83319000E+01	-3.31604000E+01	 1.11205000E-07	-2.70546000E-09	-1.73525000E+02	 3.10642368E+02	-2.48796005E+02	-2.83319000E+01	 1.06477605E+02
					 3.39786000E+01	 1.56388000E+02	 7.56949000E+02	 1.30756000E-07	-3.13764000E-09	-1.02872000E+02	 6.93483837E+02	 1.96258054E+01	 1.56388000E+02	 7.71301795E+02
					-8.02791000E+01	-2.21750000E+01	-3.04760000E+01	 1.03095000E-07	 6.52192000E-09	-1.00751000E+02	 1.82797601E+02	-1.59160261E+02	-2.21750000E+01	 4.84051614E+01
					-1.61627000E+01	 4.30876000E+01	 2.32812000E+02	 9.45915000E-08	-2.50327000E-08	-7.16725000E+01	 2.57212005E+02	-3.53209123E+01	 4.30876000E+01	 2.51970212E+02
					-8.02791000E+01	-2.21750000E+01	-3.04760000E+01	 1.03108000E-07	 6.52106000E-09	-1.00751000E+02	 1.82797601E+02	-1.59160261E+02	-2.21750000E+01	 4.84051614E+01
					-1.61627000E+01	 4.30876000E+01	 2.32812000E+02	 9.45857000E-08	-2.50309000E-08	-7.16725000E+01	 2.57212005E+02	-3.53209123E+01	 4.30876000E+01	 2.51970212E+02
					-4.38812000E+01	-1.18615000E+01	-1.52725000E+01	 1.48819000E-07	 1.35987000E-08	-6.01742000E+01	 1.08583976E+02	-9.14278708E+01	-1.18615000E+01	 3.22741708E+01
					-1.61615000E+01	 8.12337000E+00	 5.69135000E+01	 1.69565000E-07	-4.98276000E-08	-4.88678000E+01	 1.06392102E+02	-4.06408074E+01	 8.12337000E+00	 8.13928074E+01
					-4.38812000E+01	-1.18615000E+01	-1.52725000E+01	 1.48830000E-07	 1.35962000E-08	-6.01742000E+01	 1.08583976E+02	-9.14278708E+01	-1.18615000E+01	 3.22741708E+01
					-1.61615000E+01	 8.12337000E+00	 5.69135000E+01	 1.69584000E-07	-4.98276000E-08	-4.88678000E+01	 1.06392102E+02	-4.06408074E+01	 8.12337000E+00	 8.13928074E+01
					 4.17930000E+03	 3.31209000E+03	 1.53238000E+04	 0.00000000E+00	-1.16941000E-09	 6.16539000E+03	 1.57687240E+04	 1.44119478E+03	 3.31209000E+03	 1.80619052E+04
					 1.34672000E+03	 2.46669000E+03	 1.28394000E+04	-6.84934000E-08	-2.53563000E-09	 2.53032000E+03	 1.18182963E+04	 8.14290798E+02	 2.46669000E+03	 1.33718292E+04
					 4.17930000E+03	 3.31209000E+03	 1.53238000E+04	 0.00000000E+00	-1.16941000E-09	 6.16539000E+03	 1.57687240E+04	 1.44119478E+03	 3.31209000E+03	 1.80619052E+04