<?xml version="1.0"?>
<VTKFile type="UnstructuredGrid" version="0.1" byte_order="LittleEndian">
	<UnstructuredGrid>
		<Piece NumberOfPoints="126" NumberOfCells="40">
			<Points>
				<DataArray type="Float64" NumberOfComponents="3" format="ascii">
					 5.00000000E-02	 0.00000000E+00	 0.00000000E+00
					 0.00000000E+00	 0.00000000E+00	 0.00000000E+00
					 0.00000000E+00	 0.00000000E+00	 5.00000000E-02
					 5.00000000E-02	 0.00000000E+00	 5.00000000E-02
					 5.00000000E-02	 3.00000000E-01	 0.00000000E+00
					 0.00000000E+00	 3.00000000E-01	 0.00000000E+00
					 0.00000000E+00	 3.00000000E-01	 5.00000000E-02
					 5.00000000E-02	 3.00000000E-01	 5.00000000E-02
					 0.00000000E+00	 0.00000000E+00	 1.00000000E-01
					 5.00000000E-02	 0.00000000E+00	 1.00000000E-01
					 0.00000000E+00	 3.00000000E-01	 1.00000000E-01
					 5.00000000E-02	 3.00000000E-01	 1.00000000E-01
					 0.00000000E+00	 0.00000000E+00	 1.50000000E-01
					 5.00000000E-02	 0.00000000E+00	 1.50000000E-01
					 0.00000000E+00	 3.00000000E-01	 1.50000000E-01
					 5.00000000E-02	 3.00000000E-01	 1.50000000E-01
					 0.00000000E+00	 0.00000000E+00	 2.00000000E-01
					 5.00000000E-02	 0.00000000E+00	 2.00000000E-01
					 0.00000000E+00	 3.00000000E-01	 2.00000000E-01
					 5.00000000E-02	 3.00000000E-01	 2.00000000E-01
					 0.00000000E+00	 0.00000000E+00	 2.50000000E-01
					 5.00000000E-02	 0.00000000E+00	 2.50000000E-01
					 0.00000000E+00	 3.00000000E-01	 2.50000000E-01
					 5.00000000E-02	 3.00000000E-01	 2.50000000E-01
					 0.00000000E+00	 0.00000000E+00	 3.00000000E-01
					 5.00000000E-02	 0.00000000E+00	 3.00000000E-01
					 0.00000000E+00	 3.00000000E-01	 3.00000000E-01
					 5.00000000E-02	 3.00000000E-01	 3.00000000E-01
					 0.00000000E+00	 0.00000000E+00	 3.50000000E-01
					 5.00000000E-02	 0.00000000E+00	 3.50000000E-01
					 0.00000000E+00	 3.00000000E-01	 3.50000000E-01
					 5.00000000E-02	 3.00000000E-01	 3.50000000E-01
					 0.00000000E+00	 0.00000000E+00	 4.00000000E-01
					 5.00000000E-02	 0.00000000E+00	 4.00000000E-01
					 0.00000000E+00	 3.00000000E-01	 4.00000000E-01
					 5.00000000E-02	 3.00000000E-01	 4.00000000E-01
					 0.00000000E+00	 0.00000000E+00	 4.50000000E-01
					 5.00000000E-02	 0.00000000E+00	 4.50000000E-01
					 0.00000000E+00	 3.00000000E-01	 4.50000000E-01
					 5.00000000E-02	 3.00000000E-01	 4.50000000E-01
					 0.00000000E+00	 0.00000000E+00	 5.00000000E-01
					 5.00000000E-02	 0.00000000E+00	 5.00000000E-01
					 0.00000000E+00	 3.00000000E-01	 5.00000000E-01
					 5.00000000E-02	 3.00000000E-01	 5.00000000E-01
					 0.00000000E+00	 0.00000000E+00	 5.50000000E-01
					 5.00000000E-02	 0.00000000E+00	 5.50000000E-01
					 0.00000000E+00	 3.00000000E-01	 5.50000000E-01
					 5.00000000E-02	 3.00000000E-01	 5.50000000E-01
					 0.00000000E+00	 0.00000000E+00	 6.00000000E-01
					 5.00000000E-02	 0.00000000E+00	 6.00000000E-01
					 0.00000000E+00	 3.00000000E-01	 6.00000000E-01
					 5.00000000E-02	 3.00000000E-01	 6.00000000E-01
					 0.00000000E+00	 0.00000000E+00	 6.50000000E-01
					 5.00000000E-02	 0.00000000E+00	 6.50000000E-01
					 0.00000000E+00	 3.00000000E-01	 6.50000000E-01
					 5.00000000E-02	 3.00000000E-01	 6.50000000E-01
					 0.00000000E+00	 0.00000000E+00	 7.00000000E-01
					 5.00000000E-02	 0.00000000E+00	 7.00000000E-01
					 0.00000000E+00	 3.00000000E-01	 7.00000000E-01
					 5.00000000E-02	 3.00000000E-01	 7.00000000E-01
					 0.00000000E+00	 0.00000000E+00	 7.50000000E-01
					 5.00000000E-02	 0.00000000E+00	 7.50000000E-01
					 0.00000000E+00	 3.00000000E-01	 7.50000000E-01
					 5.00000000E-02	 3.00000000E-01	 7.50000000E-01
					 0.00000000E+00	 0.00000000E+00	 8.00000000E-01
					 5.00000000E-02	 0.00000000E+00	 8.00000000E-01
					 0.00000000E+00	 3.00000000E-01	 8.00000000E-01
					 5.00000000E-02	 3.00000000E-01	 8.00000000E-01
					 0.00000000E+00	 0.00000000E+00	 8.50000000E-01
					 5.00000000E-02	 0.00000000E+00	 8.50000000E-01
					 0.00000000E+00	 3.00000000E-01	 8.50000000E-01
					 5.00000000E-02	 3.00000000E-01	 8.50000000E-01
					 0.00000000E+00	 0.00000000E+00	 9.00000000E-01
					 5.00000000E-02	 0.00000000E+00	 9.00000000E-01
					 0.00000000E+00	 3.00000000E-01	 9.00000000E-01
					 5.00000000E-02	 3.00000000E-01	 9.00000000E-01
					 0.00000000E+00	 0.00000000E+00	 9.50000000E-01
					 5.00000000E-02	 0.00000000E+00	 9.50000000E-01
					 0.00000000E+00	 3.00000000E-01	 9.50000000E-01
					 5.00000000E-02	 3.00000000E-01	 9.50000000E-01
					 0.00000000E+00	 0.00000000E+00	 1.00000000E+00
					 5.00000000E-02	 0.00000000E+00	 1.00000000E+00
					 0.00000000E+00	 3.00000000E-01	 1.00000000E+00
					 5.00000000E-02	 3.00000000E-01	 1.00000000E+00
					-5.00000000E-02	 0.00000000E+00	 0.00000000E+00
					-5.00000000E-02	 0.00000000E+00	 5.00000000E-02
					-5.00000000E-02	 3.00000000E-01	 0.00000000E+00
					-5.00000000E-02	 3.00000000E-01	 5.00000000E-02
					-5.00000000E-02	 0.00000000E+00	 1.00000000E-01
					-5.00000000E-02	 3.00000000E-01	 1.00000000E-01
					-5.00000000E-02	 0.00000000E+00	 1.50000000E-01
					-5.00000000E-02	 3.00000000E-01	 1.50000000E-01
					-5.00000000E-02	 0.00000000E+00	 2.00000000E-01
					-5.00000000E-02	 3.00000000E-01	 2.00000000E-01
					-5.00000000E-02	 0.00000000E+00	 2.50000000E-01
					-5.00000000E-02	 3.00000000E-01	 2.50000000E-01
					-5.00000000E-02	 0.00000000E+00	 3.00000000E-01
					-5.00000000E-02	 3.00000000E-01	 3.00000000E-01
					-5.00000000E-02	 0.00000000E+00	 3.50000000E-01
					-5.00000000E-02	 3.00000000E-01	 3.50000000E-01
					-5.00000000E-02	 0.00000000E+00	 4.00000000E-01
					-5.00000000E-02	 3.00000000E-01	 4.00000000E-01
					-5.00000000E-02	 0.00000000E+00	 4.50000000E-01
					-5.00000000E-02	 3.00000000E-01	 4.50000000E-01
					-5.00000000E-02	 0.00000000E+00	 5.00000000E-01
					-5.00000000E-02	 3.00000000E-01	 5.00000000E-01
					-5.00000000E-02	 0.00000000E+00	 5.50000000E-01
					-5.00000000E-02	 3.00000000E-01	 5.50000000E-01
					-5.00000000E-02	 0.00000000E+00	 6.00000000E-01
					-5.00000000E-02	 3.00000000E-01	 6.00000000E-01
					-5.00000000E-02	 0.00000000E+00	 6.50000000E-01
					-5.00000000E-02	 3.00000000E-01	 6.50000000E-01
					-5.00000000E-02	 0.00000000E+00	 7.00000000E-01
					-5.00000000E-02	 3.00000000E-01	 7.00000000E-01
					-5.00000000E-02	 0.00000000E+00	 7.50000000E-01
					-5.00000000E-02	 3.00000000E-01	 7.50000000E-01
					-5.00000000E-02	 0.00000000E+00	 8.00000000E-01
					-5.00000000E-02	 3.00000000E-01	 8.00000000E-01
					-5.00000000E-02	 0.00000000E+00	 8.50000000E-01
					-5.00000000E-02	 3.00000000E-01	 8.50000000E-01
					-5.00000000E-02	 0.00000000E+00	 9.00000000E-01
					-5.00000000E-02	 3.00000000E-01	 9.00000000E-01
					-5.00000000E-02	 0.00000000E+00	 9.50000000E-01
					-5.00000000E-02	 3.00000000E-01	 9.50000000E-01
					-5.00000000E-02	 0.00000000E+00	 1.00000000E+00
					-5.00000000E-02	 3.00000000E-01	 1.00000000E+00

				</DataArray>
			</Points>
			<Cells>
				<DataArray type="Int32" Name="connectivity" format="ascii">
					0 1 2 3 4 5 6 7 3 2 8 9 7 6 10 11 9 8 12 13 11 10 14 15 13 12 16 17 15 14 18 19 17 16 20 21 19 18 22 23 21 20 24 25 23 22 26 27 25 24 28 29 27 26 30 31 29 28 32 33 31 30 34 35 33 32 36 37 35 34 38 39 37 36 40 41 39 38 42 43 41 40 44 45 43 42 46 47 45 44 48 49 47 46 50 51 49 48 52 53 51 50 54 55 53 52 56 57 55 54 58 59 57 56 60 61 59 58 62 63 61 60 64 65 63 62 66 67 65 64 68 69 67 66 70 71 69 68 72 73 71 70 74 75 73 72 76 77 75 74 78 79 77 76 80 81 79 78 82 83 1 84 85 2 5 86 87 6 2 85 88 8 6 87 89 10 8 88 90 12 10 89 91 14 12 90 92 16 14 91 93 18 16 92 94 20 18 93 95 22 20 94 96 24 22 95 97 26 24 96 98 28 26 97 99 30 28 98 100 32 30 99 101 34 32 100 102 36 34 101 103 38 36 102 104 40 38 103 105 42 40 104 106 44 42 105 107 46 44 106 108 48 46 107 109 50 48 108 110 52 50 109 111 54 52 110 112 56 54 111 113 58 56 112 114 60 58 113 115 62 60 114 116 64 62 115 117 66 64 116 118 68 66 117 119 70 68 118 120 72 70 119 121 74 72 120 122 76 74 121 123 78 76 122 124 80 78 123 125 82 
				</DataArray>
				<DataArray type="Int32" Name="offsets" format="ascii">
					8 16 24 32 40 48 56 64 72 80 88 96 104 112 120 128 136 144 152 160 168 176 184 192 200 208 216 224 232 240 248 256 264 272 280 288 296 304 312 320 
				</DataArray>
				<DataArray type="UInt8" Name="types" format="ascii">
					12 12 12 12 12 12 12 12 12 12 12 12 12 12 12 12 12 12 12 12 12 12 12 12 12 12 12 12 12 12 12 12 12 12 12 12 12 12 12 12 
				</DataArray>
			</Cells>
			<PointData>
				<DataArray type="Float32" Name="U" NumberOfComponents="3" ComponentName0="D1" ComponentName1="D2" ComponentName2="D3" format="ascii">
					 0.00000000E+00	 0.00000000E+00	 0.00000000E+00
					 0.00000000E+00	 0.00000000E+00	 0.00000000E+00
					 2.70192000E-03	 0.00000000E+00	-2.64108000E-04
					 3.05303000E-03	 0.00000000E+00	-4.19387000E-03
					 0.00000000E+00	 0.00000000E+00	 0.00000000E+00
					 0.00000000E+00	 0.00000000E+00	 0.00000000E+00
					 2.70192000E-03	 0.00000000E+00	-2.64108000E-04
					 3.05303000E-03	 0.00000000E+00	-4.19387000E-03
					 9.07229000E-03	 0.00000000E+00	-7.28831000E-04
					 8.85595000E-03	 0.00000000E+00	-7.53625000E-03
					 9.07229000E-03	 0.00000000E+00	-7.28831000E-04
					 8.85595000E-03	 0.00000000E+00	-7.53625000E-03
					 1.76134000E-02	 0.00000000E+00	-1.42877000E-03
					 1.70056000E-02	 0.00000000E+00	-1.01285000E-02
					 1.76134000E-02	 0.00000000E+00	-1.42877000E-03
					 1.70056000E-02	 0.00000000E+00	-1.01285000E-02
					 2.75515000E-02	 0.00000000E+00	-2.29715000E-03
					 2.66285000E-02	 0.00000000E+00	-1.21224000E-02
					 2.75515000E-02	 0.00000000E+00	-2.29715000E-03
					 2.66285000E-02	 0.00000000E+00	-1.21224000E-02
					 3.82205000E-02	 0.00000000E+00	-3.25680000E-03
					 3.71147000E-02	 0.00000000E+00	-1.35940000E-02
					 3.82205000E-02	 0.00000000E+00	-3.25680000E-03
					 3.71147000E-02	 0.00000000E+00	-1.35940000E-02
					 4.90943000E-02	 0.00000000E+00	-4.22892000E-03
					 4.79204000E-02	 0.00000000E+00	-1.45717000E-02
					 4.90943000E-02	 0.00000000E+00	-4.22892000E-03
					 4.79204000E-02	 0.00000000E+00	-1.45717000E-02
					 5.97079000E-02	 0.00000000E+00	-5.13585000E-03
					 5.85696000E-02	 0.00000000E+00	-1.50498000E-02
					 5.97079000E-02	 0.00000000E+00	-5.13585000E-03
					 5.85696000E-02	 0.00000000E+00	-1.50498000E-02
					 6.96407000E-02	 0.00000000E+00	-5.92135000E-03
					 6.86200000E-02	 0.00000000E+00	-1.50239000E-02
					 6.96407000E-02	 0.00000000E+00	-5.92135000E-03
					 6.86200000E-02	 0.00000000E+00	-1.50239000E-02
					 7.85294000E-02	 0.00000000E+00	-6.53748000E-03
					 7.76704000E-02	 0.00000000E+00	-1.45000000E-02
					 7.85294000E-02	 0.00000000E+00	-6.53748000E-03
					 7.76704000E-02	 0.00000000E+00	-1.45000000E-02
					 8.60732000E-02	 0.00000000E+00	-6.94400000E-03
					 8.53901000E-02	 0.00000000E+00	-1.35049000E-02
					 8.60732000E-02	 0.00000000E+00	-6.94400000E-03
					 8.53901000E-02	 0.00000000E+00	-1.35049000E-02
					 9.20323000E-02	 0.00000000E+00	-7.13358000E-03
					 9.15151000E-02	 0.00000000E+00	-1.21102000E-02
					 9.20323000E-02	 0.00000000E+00	-7.13358000E-03
					 9.15151000E-02	 0.00000000E+00	-1.21102000E-02
					 9.62465000E-02	 0.00000000E+00	-7.14489000E-03
					 9.58665000E-02	 0.00000000E+00	-1.04445000E-02
					 9.62465000E-02	 0.00000000E+00	-7.14489000E-03
					 9.58665000E-02	 0.00000000E+00	-1.04445000E-02
					 9.86712000E-02	 0.00000000E+00	-7.04417000E-03
					 9.83820000E-02	 0.00000000E+00	-8.67701000E-03
					 9.86712000E-02	 0.00000000E+00	-7.04417000E-03
					 9.83820000E-02	 0.00000000E+00	-8.67701000E-03
					 9.93774000E-02	 0.00000000E+00	-6.90117000E-03
					 9.91433000E-02	 0.00000000E+00	-6.97723000E-03
					 9.93774000E-02	 0.00000000E+00	-6.90117000E-03
					 9.91433000E-02	 0.00000000E+00	-6.97723000E-03
					 9.85253000E-02	 0.00000000E+00	-6.78367000E-03
					 9.83177000E-02	 0.00000000E+00	-5.48747000E-03
					 9.85253000E-02	 0.00000000E+00	-6.78367000E-03
					 9.83177000E-02	 0.00000000E+00	-5.48747000E-03
					 9.63610000E-02	 0.00000000E+00	-6.73116000E-03
					 9.61652000E-02	 0.00000000E+00	-4.31268000E-03
					 9.63610000E-02	 0.00000000E+00	-6.73116000E-03
					 9.61652000E-02	 0.00000000E+00	-4.31268000E-03
					 9.32029000E-02	 0.00000000E+00	-6.74380000E-03
					 9.30060000E-02	 0.00000000E+00	-3.50822000E-03
					 9.32029000E-02	 0.00000000E+00	-6.74380000E-03
					 9.30060000E-02	 0.00000000E+00	-3.50822000E-03
					 8.94137000E-02	 0.00000000E+00	-6.79969000E-03
					 8.92222000E-02	 0.00000000E+00	-3.06860000E-03
					 8.94137000E-02	 0.00000000E+00	-6.79969000E-03
					 8.92222000E-02	 0.00000000E+00	-3.06860000E-03
					 8.53406000E-02	 0.00000000E+00	-6.88658000E-03
					 8.51634000E-02	 0.00000000E+00	-2.93650000E-03
					 8.53406000E-02	 0.00000000E+00	-6.88658000E-03
					 8.51634000E-02	 0.00000000E+00	-2.93650000E-03
					 8.12739000E-02	 0.00000000E+00	-6.98946000E-03
					 8.11041000E-02	 0.00000000E+00	-3.01365000E-03
					 8.12739000E-02	 0.00000000E+00	-6.98946000E-03
					 8.11041000E-02	 0.00000000E+00	-3.01365000E-03
					 0.00000000E+00	 0.00000000E+00	 0.00000000E+00
					 3.45204000E-03	 0.00000000E+00	 3.55889000E-03
					 0.00000000E+00	 0.00000000E+00	 0.00000000E+00
					 3.45204000E-03	 0.00000000E+00	 3.55889000E-03
					 9.87500000E-03	 0.00000000E+00	 5.96646000E-03
					 9.87500000E-03	 0.00000000E+00	 5.96646000E-03
					 1.86341000E-02	 0.00000000E+00	 7.18992000E-03
					 1.86341000E-02	 0.00000000E+00	 7.18992000E-03
					 2.87096000E-02	 0.00000000E+00	 7.47841000E-03
					 2.87096000E-02	 0.00000000E+00	 7.47841000E-03
					 3.94223000E-02	 0.00000000E+00	 7.06220000E-03
					 3.94223000E-02	 0.00000000E+00	 7.06220000E-03
					 5.02534000E-02	 0.00000000E+00	 6.12060000E-03
					 5.02534000E-02	 0.00000000E+00	 6.12060000E-03
					 6.07197000E-02	 0.00000000E+00	 4.80430000E-03
					 6.07197000E-02	 0.00000000E+00	 4.80430000E-03
					 7.04473000E-02	 0.00000000E+00	 3.22115000E-03
					 7.04473000E-02	 0.00000000E+00	 3.22115000E-03
					 7.90974000E-02	 0.00000000E+00	 1.47555000E-03
					 7.90974000E-02	 0.00000000E+00	 1.47555000E-03
					 8.64159000E-02	 0.00000000E+00	-3.32707000E-04
					 8.64159000E-02	 0.00000000E+00	-3.32707000E-04
					 9.21649000E-02	 0.00000000E+00	-2.11725000E-03
					 9.21649000E-02	 0.00000000E+00	-2.11725000E-03
					 9.62335000E-02	 0.00000000E+00	-3.82004000E-03
					 9.62335000E-02	 0.00000000E+00	-3.82004000E-03
					 9.85800000E-02	 0.00000000E+00	-5.40345000E-03
					 9.85800000E-02	 0.00000000E+00	-5.40345000E-03
					 9.92775000E-02	 0.00000000E+00	-6.84287000E-03
					 9.92775000E-02	 0.00000000E+00	-6.84287000E-03
					 9.84477000E-02	 0.00000000E+00	-8.11537000E-03
					 9.84477000E-02	 0.00000000E+00	-8.11537000E-03
					 9.63464000E-02	 0.00000000E+00	-9.18036000E-03
					 9.63464000E-02	 0.00000000E+00	-9.18036000E-03
					 9.32672000E-02	 0.00000000E+00	-9.99365000E-03
					 9.32672000E-02	 0.00000000E+00	-9.99365000E-03
					 8.95515000E-02	 0.00000000E+00	-1.05344000E-02
					 8.95515000E-02	 0.00000000E+00	-1.05344000E-02
					 8.55140000E-02	 0.00000000E+00	-1.08341000E-02
					 8.55140000E-02	 0.00000000E+00	-1.08341000E-02
					 8.14532000E-02	 0.00000000E+00	-1.09963000E-02
					 8.14532000E-02	 0.00000000E+00	-1.09963000E-02
				</DataArray>
				<DataArray type="Float32" Name="S" NumberOfComponents="10" ComponentName0="xx" ComponentName1="yy" ComponentName2="zz" ComponentName3="xy" ComponentName4="yz" ComponentName5="zx" ComponentName6="Mises" ComponentName7="Min Principal" ComponentName8="Mid Principal" ComponentName9="Max Principal" format="ascii">
					-2.54854000E+03	-2.85395000E+03	-9.88889000E+03	 0.00000000E+00	 0.00000000E+00	 2.43351000E+03	 8.33655264E+03	-1.06223675E+04	-2.85395000E+03	-1.81506249E+03
					 1.06734000E+02	-1.27314000E+02	-8.22065000E+02	 0.00000000E+00	 0.00000000E+00	 2.65563000E+03	 4.67516573E+03	-3.05359532E+03	-1.27314000E+02	 2.33826432E+03
					 2.15976000E+01	-1.17376000E+02	-7.10868000E+02	 1.47235000E-08	-2.41327000E-08	 6.21104000E+02	 1.26938437E+03	-1.06567379E+03	-1.17376000E+02	 3.76403386E+02
					-8.88307000E+02	-2.06639000E+03	-8.33560000E+03	 2.26983000E-08	-3.31853000E-08	 1.55558000E+02	 6.93895656E+03	-8.33884786E+03	-2.06639000E+03	-8.85059143E+02
					-2.54854000E+03	-2.85395000E+03	-9.88889000E+03	 0.00000000E+00	 0.00000000E+00	 2.43351000E+03	 8.33655264E+03	-1.06223675E+04	-2.85395000E+03	-1.81506249E+03
					 1.06734000E+02	-1.27314000E+02	-8.22065000E+02	 0.00000000E+00	 0.00000000E+00	 2.65563000E+03	 4.67516573E+03	-3.05359532E+03	-1.27314000E+02	 2.33826432E+03
					 2.15976000E+01	-1.17376000E+02	-7.10868000E+02	 1.47235000E-08	-2.41327000E-08	 6.21104000E+02	 1.26938437E+03	-1.06567379E+03	-1.17376000E+02	 3.76403386E+02
					-8.88307000E+02	-2.06639000E+03	-8.33560000E+03	 2.26984000E-08	-3.31853000E-08	 1.55558000E+02	 6.93895656E+03	-8.33884786E+03	-2.06639000E+03	-8.85059143E+02
					 9.80750000E+01	-4.21449000E+01	-3.80006000E+02	 4.95439000E-08	-2.67067000E-08	 6.69078000E+02	 1.23457795E+03	-8.51462320E+02	-4.21449000E+01	 5.69531320E+02
					-9.00986000E+02	-1.48974000E+03	-5.99328000E+03	 7.19929000E-08	-2.93990000E-08	-1.91647000E+02	 4.83633815E+03	-6.00048239E+03	-1.48974000E+03	-8.93783608E+02
					 9.80750000E+01	-4.21449000E+01	-3.80006000E+02	 4.95439000E-08	-2.67067000E-08	 6.69078000E+02	 1.23457795E+03	-8.51462320E+02	-4.21449000E+01	 5.69531320E+02
					-9.00986000E+02	-1.48974000E+03	-5.99328000E+03	 7.19933000E-08	-2.93989000E-08	-1.91647000E+02	 4.83633815E+03	-6.00048239E+03	-1.48974000E+03	-8.93783608E+02
					 1.27678000E+02	 1.49156000E+01	-7.73424000E+01	 8.35222000E-08	-1.86455000E-08	 5.68428000E+02	 1.00048054E+03	-5.52429579E+02	 1.49156000E+01	 6.02765179E+02
					-4.96954000E+02	-8.87048000E+02	-3.73256000E+03	 8.30557000E-08	-9.30523000E-09	-1.04822000E+02	 3.06465202E+03	-3.73595230E+03	-8.87048000E+02	-4.93561701E+02
					 1.27678000E+02	 1.49156000E+01	-7.73424000E+01	 8.35222000E-08	-1.86453000E-08	 5.68428000E+02	 1.00048054E+03	-5.52429579E+02	 1.49156000E+01	 6.02765179E+02
					-4.96954000E+02	-8.87048000E+02	-3.73256000E+03	 8.30543000E-08	-9.30574000E-09	-1.04822000E+02	 3.06465202E+03	-3.73595230E+03	-8.87048000E+02	-4.93561701E+02
					 1.31057000E+02	 5.85213000E+01	 1.59548000E+02	 9.36984000E-08	-1.91173000E-08	 5.17175000E+02	 9.00305349E+02	-3.72068658E+02	 5.85213000E+01	 6.62673658E+02
					-2.33646000E+02	-4.32722000E+02	-1.87613000E+03	 9.99292000E-08	-1.21304000E-08	 6.45030000E+01	 1.55656279E+03	-1.87865924E+03	-4.32722000E+02	-2.31116758E+02
					 1.31057000E+02	 5.85213000E+01	 1.59548000E+02	 9.36994000E-08	-1.91173000E-08	 5.17175000E+02	 9.00305349E+02	-3.72068658E+02	 5.85213000E+01	 6.62673658E+02
					-2.33646000E+02	-4.32722000E+02	-1.87613000E+03	 9.99308000E-08	-1.21298000E-08	 6.45030000E+01	 1.55656279E+03	-1.87865924E+03	-4.32722000E+02	-2.31116758E+02
					 1.30331000E+02	 8.64210000E+01	 3.09185000E+02	 1.28799000E-07	-3.07336000E-08	 4.75050000E+02	 8.47813557E+02	-2.63635929E+02	 8.64210000E+01	 7.03151929E+02
					 1.37386000E+01	-6.80916000E+01	-3.44278000E+02	 8.03141000E-08	-3.02887000E-08	 2.77477000E+02	 5.80134428E+02	-4.95477902E+02	-6.80916000E+01	 1.64938502E+02
					 1.30331000E+02	 8.64210000E+01	 3.09185000E+02	 1.28799000E-07	-3.07339000E-08	 4.75050000E+02	 8.47813557E+02	-2.63635929E+02	 8.64210000E+01	 7.03151929E+02
					 1.37386000E+01	-6.80916000E+01	-3.44278000E+02	 8.03128000E-08	-3.02882000E-08	 2.77477000E+02	 5.80134428E+02	-4.95477902E+02	-6.80916000E+01	 1.64938502E+02
					 1.00666000E+02	 9.39092000E+01	 3.76978000E+02	 1.03890000E-07	-2.43833000E-08	 4.38690000E+02	 8.09696060E+02	-2.21108426E+02	 9.39092000E+01	 6.98752426E+02
					 2.09084000E+02	 2.23458000E+02	 9.33510000E+02	 8.04195000E-08	-2.31447000E-08	 4.75882000E+02	 1.09269290E+03	-2.67514389E+01	 2.23458000E+02	 1.16934544E+03
					 1.00666000E+02	 9.39092000E+01	 3.76978000E+02	 1.03890000E-07	-2.43833000E-08	 4.38690000E+02	 8.09696060E+02	-2.21108426E+02	 9.39092000E+01	 6.98752426E+02
					 2.09084000E+02	 2.23458000E+02	 9.33510000E+02	 8.04217000E-08	-2.31451000E-08	 4.75882000E+02	 1.09269290E+03	-2.67514389E+01	 2.23458000E+02	 1.16934544E+03
					 8.27440000E+01	 9.26972000E+01	 3.83585000E+02	 6.27512000E-08	-1.50408000E-08	 3.85637000E+02	 7.30587250E+02	-1.80770546E+02	 9.26972000E+01	 6.47099546E+02
					 3.64529000E+02	 4.62855000E+02	 2.02111000E+03	 8.17511000E-08	-7.19968000E-09	 6.24961000E+02	 1.93978668E+03	 1.55206179E+02	 4.62855000E+02	 2.23043282E+03
					 8.27440000E+01	 9.26972000E+01	 3.83585000E+02	 6.27522000E-08	-1.50408000E-08	 3.85637000E+02	 7.30587250E+02	-1.80770546E+02	 9.26972000E+01	 6.47099546E+02
					 3.64529000E+02	 4.62855000E+02	 2.02111000E+03	 8.17496000E-08	-7.20065000E-09	 6.24961000E+02	 1.93978668E+03	 1.55206179E+02	 4.62855000E+02	 2.23043282E+03
					 5.02790000E+01	 7.93354000E+01	 3.40380000E+02	 7.74980000E-08	-2.04952000E-08	 3.20254000E+02	 6.19888254E+02	-1.56241648E+02	 7.93354000E+01	 5.46900648E+02
					 4.80502000E+02	 6.59430000E+02	 2.94767000E+03	 9.72110000E-08	 8.61536000E-09	 7.01539000E+02	 2.67468851E+03	 2.94971328E+02	 6.59430000E+02	 3.13320067E+03
					 5.02790000E+01	 7.93354000E+01	 3.40380000E+02	 7.74992000E-08	-2.04951000E-08	 3.20254000E+02	 6.19888254E+02	-1.56241648E+02	 7.93354000E+01	 5.46900648E+02
					 4.80502000E+02	 6.59430000E+02	 2.94767000E+03	 9.72099000E-08	 8.61537000E-09	 7.01539000E+02	 2.67468851E+03	 2.94971328E+02	 6.59430000E+02	 3.13320067E+03
					 1.54200000E+01	 6.67813000E+01	 3.02875000E+02	 2.86800000E-08	-1.85861000E-08	 2.53173000E+02	 5.12634374E+02	-1.31978181E+02	 6.67813000E+01	 4.50273181E+02
					 5.44727000E+02	 8.16895000E+02	 3.73402000E+03	 5.31423000E-08	 4.63323000E-08	 7.05289000E+02	 3.29695913E+03	 3.95719282E+02	 8.16895000E+02	 3.88302772E+03
					 1.54200000E+01	 6.67813000E+01	 3.02875000E+02	 2.86762000E-08	-1.85860000E-08	 2.53173000E+02	 5.12634374E+02	-1.31978181E+02	 6.67813000E+01	 4.50273181E+02
					 5.44727000E+02	 8.16895000E+02	 3.73402000E+03	 5.31455000E-08	 4.63323000E-08	 7.05289000E+02	 3.29695913E+03	 3.95719282E+02	 8.16895000E+02	 3.88302772E+03
					-2.95526000E+01	 5.87331000E+01	 2.99433000E+02	-4.09007000E-08	-2.15768000E-09	 1.85938000E+02	 4.36692094E+02	-1.13315356E+02	 5.87331000E+01	 3.83195756E+02
					 5.71544000E+02	 9.38251000E+02	 4.37305000E+03	-1.84465000E-08	 5.48643000E-08	 6.35405000E+02	 3.79514184E+03	 4.68150927E+02	 9.38251000E+02	 4.47644307E+03
					-2.95526000E+01	 5.87331000E+01	 2.99433000E+02	-4.08991000E-08	-2.15769000E-09	 1.85938000E+02	 4.36692094E+02	-1.13315356E+02	 5.87331000E+01	 3.83195756E+02
					 5.71544000E+02	 9.38251000E+02	 4.37305000E+03	-1.84487000E-08	 5.48640000E-08	 6.35405000E+02	 3.79514184E+03	 4.68150927E+02	 9.38251000E+02	 4.47644307E+03
					-4.43401000E+01	 6.09009000E+01	 3.20082000E+02	-9.06140000E-08	 1.13412000E-08	 1.06086000E+02	 3.73215363E+02	-7.29728456E+01	 6.09009000E+01	 3.48714746E+02
					 5.70747000E+02	 1.01513000E+03	 4.80015000E+03	-7.82312000E-08	 3.69745000E-08	 4.89318000E+02	 4.11389688E+03	 5.14873797E+02	 1.01513000E+03	 4.85602320E+03
					-4.43401000E+01	 6.09009000E+01	 3.20082000E+02	-9.06112000E-08	 1.13405000E-08	 1.06086000E+02	 3.73215363E+02	-7.29728456E+01	 6.09009000E+01	 3.48714746E+02
					 5.70747000E+02	 1.01513000E+03	 4.80015000E+03	-7.82307000E-08	 3.69749000E-08	 4.89318000E+02	 4.11389688E+03	 5.14873797E+02	 1.01513000E+03	 4.85602320E+03
					-6.04020000E+01	 5.92920000E+01	 3.26268000E+02	-8.56853000E-08	 1.86609000E-08	 1.78961000E+01	 3.44265994E+02	-6.12285117E+01	 5.92920000E+01	 3.27094512E+02
					 5.51325000E+02	 1.03621000E+03	 4.93626000E+03	-1.00078000E-07	 1.04101000E-08	 2.87244000E+02	 4.19334074E+03	 5.32588562E+02	 1.03621000E+03	 4.95499644E+03
					-6.04020000E+01	 5.92920000E+01	 3.26268000E+02	-8.56889000E-08	 1.86613000E-08	 1.78961000E+01	 3.44265994E+02	-6.12285117E+01	 5.92920000E+01	 3.27094512E+02
					 5.51325000E+02	 1.03621000E+03	 4.93626000E+03	-1.00076000E-07	 1.04101000E-08	 2.87244000E+02	 4.19334074E+03	 5.32588562E+02	 1.03621000E+03	 4.95499644E+03
					-7.02337000E+01	 5.41826000E+01	 3.12459000E+02	-2.27432000E-08	 1.84361000E-08	-6.64099000E+01	 3.57142455E+02	-8.14304330E+01	 5.41826000E+01	 3.23655733E+02
					 5.04421000E+02	 9.94614000E+02	 4.75137000E+03	-1.83588000E-08	-2.37302000E-08	 7.57791000E+01	 4.02644604E+03	 5.03069290E+02	 9.94614000E+02	 4.75272171E+03
					-7.02337000E+01	 5.41826000E+01	 3.12459000E+02	-2.27394000E-08	 1.84360000E-08	-6.64099000E+01	 3.57142455E+02	-8.14304330E+01	 5.41826000E+01	 3.23655733E+02
					 5.04421000E+02	 9.94614000E+02	 4.75137000E+03	-1.83567000E-08	-2.37298000E-08	 7.57791000E+01	 4.02644604E+03	 5.03069290E+02	 9.94614000E+02	 4.75272171E+03
					-6.77033000E+01	 4.61010000E+01	 2.74581000E+02	 4.89156000E-08	 0.00000000E+00	-1.40419000E+02	 3.87697075E+02	-1.17936693E+02	 4.61010000E+01	 3.24814393E+02
					 4.63631000E+02	 9.04030000E+02	 4.28955000E+03	 4.79701000E-08	-3.49884000E-08	-1.10318000E+02	 3.63086584E+03	 4.60452689E+02	 9.04030000E+02	 4.29272831E+03
					-6.77033000E+01	 4.61010000E+01	 2.74581000E+02	 4.89180000E-08	 0.00000000E+00	-1.40419000E+02	 3.87697075E+02	-1.17936693E+02	 4.61010000E+01	 3.24814393E+02
					 4.63631000E+02	 9.04030000E+02	 4.28955000E+03	 4.79675000E-08	-3.49886000E-08	-1.10318000E+02	 3.63086584E+03	 4.60452689E+02	 9.04030000E+02	 4.29272831E+03
					-2.70040000E+01	 4.27667000E+01	 2.24237000E+02	 1.05974000E-07	 4.06451000E-09	-1.97860000E+02	 4.09763919E+02	-1.35753058E+02	 4.27667000E+01	 3.32986058E+02
					 4.21980000E+02	 7.72826000E+02	 3.61111000E+03	 8.11970000E-08	 7.32794000E-09	-2.42313000E+02	 3.05792353E+03	 4.03673917E+02	 7.72826000E+02	 3.62941608E+03
					-2.70040000E+01	 4.27667000E+01	 2.24237000E+02	 1.05977000E-07	 4.06456000E-09	-1.97860000E+02	 4.09763919E+02	-1.35753058E+02	 4.27667000E+01	 3.32986058E+02
					 4.21980000E+02	 7.72826000E+02	 3.61111000E+03	 8.11962000E-08	 7.32769000E-09	-2.42313000E+02	 3.05792353E+03	 4.03673917E+02	 7.72826000E+02	 3.62941608E+03
					 1.05602000E+01	 4.11824000E+01	 1.85861000E+02	 6.09037000E-08	 1.32802000E-08	-2.32178000E+02	 4.33612574E+02	-1.49961148E+02	 4.11824000E+01	 3.46382348E+02
					 3.74009000E+02	 6.12336000E+02	 2.79283000E+03	 3.32927000E-08	 6.57180000E-08	-3.04148000E+02	 2.36823615E+03	 3.36351032E+02	 6.12336000E+02	 2.83048797E+03
					 1.05602000E+01	 4.11824000E+01	 1.85861000E+02	 6.08979000E-08	 1.32802000E-08	-2.32178000E+02	 4.33612574E+02	-1.49961148E+02	 4.11824000E+01	 3.46382348E+02
					 3.74009000E+02	 6.12336000E+02	 2.79283000E+03	 3.32946000E-08	 6.57183000E-08	-3.04148000E+02	 2.36823615E+03	 3.36351032E+02	 6.12336000E+02	 2.83048797E+03
					 2.57867000E+01	 4.13430000E+01	 1.77149000E+02	-1.71620000E-08	 3.98560000E-09	-2.36897000E+02	 4.34923525E+02	-1.47224380E+02	 4.13430000E+01	 3.50160080E+02
					 2.84326000E+02	 4.31299000E+02	 1.92522000E+03	-3.51294000E-08	 7.64629000E-08	-2.95371000E+02	 1.65369258E+03	 2.32776837E+02	 4.31299000E+02	 1.97676916E+03
					 2.57867000E+01	 4.13430000E+01	 1.77149000E+02	-1.71613000E-08	 3.98562000E-09	-2.36897000E+02	 4.34923525E+02	-1.47224380E+02	 4.13430000E+01	 3.50160080E+02
					 2.84326000E+02	 4.31299000E+02	 1.92522000E+03	-3.51312000E-08	 7.64630000E-08	-2.95371000E+02	 1.65369258E+03	 2.32776837E+02	 4.31299000E+02	 1.97676916E+03
					 2.03497000E+01	 3.88515000E+01	 1.73395000E+02	-4.43764000E-08	 1.08491000E-08	-2.05105000E+02	 3.83585388E+02	-1.22042649E+02	 3.88515000E+01	 3.15787349E+02
					 1.83990000E+02	 2.57069000E+02	 1.12137000E+03	-6.52521000E-08	 1.03883000E-07	-2.28845000E+02	 9.86219607E+02	 1.31105125E+02	 2.57069000E+02	 1.17425487E+03
					 2.03497000E+01	 3.88515000E+01	 1.73395000E+02	-4.43791000E-08	 1.08493000E-08	-2.05105000E+02	 3.83585388E+02	-1.22042649E+02	 3.88515000E+01	 3.15787349E+02
					 1.83990000E+02	 2.57069000E+02	 1.12137000E+03	-6.52532000E-08	 1.03883000E-07	-2.28845000E+02	 9.86219607E+02	 1.31105125E+02	 2.57069000E+02	 1.17425487E+03
					 1.60174000E+01	 3.44827000E+01	 1.56822000E+02	-1.48788000E-07	 8.91208000E-09	-1.27400000E+02	 2.57408593E+02	-5.91386864E+01	 3.44827000E+01	 2.31978086E+02
					 8.97739000E+01	 1.13786000E+02	 4.83822000E+02	-1.54025000E-07	 1.74694000E-07	-1.25984000E+02	 4.40459383E+02	 5.29380677E+01	 1.13786000E+02	 5.20657832E+02
					 1.60174000E+01	 3.44827000E+01	 1.56822000E+02	-1.48786000E-07	 8.91235000E-09	-1.27400000E+02	 2.57408593E+02	-5.91386864E+01	 3.44827000E+01	 2.31978086E+02
					 8.97739000E+01	 1.13786000E+02	 4.83822000E+02	-1.54025000E-07	 1.74695000E-07	-1.25984000E+02	 4.40459383E+02	 5.29380677E+01	 1.13786000E+02	 5.20657832E+02
					 1.40429000E+01	 3.17200000E+01	 1.45100000E+02	-3.12405000E-07	-1.23742000E-08	-8.10646000E+01	 1.86778323E+02	-2.46660684E+01	 3.17200000E+01	 1.83808968E+02
					 4.12921000E+01	 5.07101000E+01	 2.13250000E+02	-3.11196000E-07	 2.07113000E-07	-9.10014000E+01	 2.29961916E+02	 2.07666257E+00	 5.07101000E+01	 2.52465437E+02
					 1.40429000E+01	 3.17200000E+01	 1.45100000E+02	-3.12409000E-07	-1.23746000E-08	-8.10646000E+01	 1.86778323E+02	-2.46660684E+01	 3.17200000E+01	 1.83808968E+02
					 4.12921000E+01	 5.07101000E+01	 2.13250000E+02	-3.11200000E-07	 2.07113000E-07	-9.10014000E+01	 2.29961916E+02	 2.07666257E+00	 5.07101000E+01	 2.52465437E+02
					 2.79872000E+03	 2.36667000E+03	 1.05356000E+04	 0.00000000E+00	 0.00000000E+00	 4.09418000E+03	 1.06618773E+04	 1.03447521E+03	 2.36667000E+03	 1.22998448E+04
					 8.56114000E+02	 1.73661000E+03	 8.72872000E+03	 2.49519000E-08	-2.22416000E-08	 1.52805000E+03	 7.92629868E+03	 5.69927437E+02	 1.73661000E+03	 9.01490656E+03
					 2.79872000E+03	 2.36667000E+03	 1.05356000E+04	 0.00000000E+00	 0.00000000E+00	 4.09418000E+03	 1.06618773E+04	 1.03447521E+03	 2.36667000E+03	 1.22998448E+04