<?xml version="1.0"?>
<VTKFile type="UnstructuredGrid" version="0.1" byte_order="LittleEndian">
	<UnstructuredGrid>
		<Piece NumberOfPoints="126" NumberOfCells="40">
			<Points>
				<DataArray type="Float64" NumberOfComponents="3" format="ascii">
					 5.00000000E-02	 0.00000000E+00	 0.00000000E+00
					 0.00000000E+00	 0.00000000E+00	 0.00000000E+00
					 0.00000000E+00	 0.00000000E+00	 5.00000000E-02
					 5.00000000E-02	 0.00000000E+00	 5.00000000E-02
					 5.00000000E-02	 3.00000000E-01	 0.00000000E+00
					 0.00000000E+00	 3.00000000E-01	 0.00000000E+00
					 0.00000000E+00	 3.00000000E-01	 5.00000000E-02
					 5.00000000E-02	 3.00000000E-01	 5.00000000E-02
					 0.00000000E+00	 0.00000000E+00	 1.00000000E-01
					 5.00000000E-02	 0.00000000E+00	 1.00000000E-01
					 0.00000000E+00	 3.00000000E-01	 1.00000000E-01
					 5.00000000E-02	 3.00000000E-01	 1.00000000E-01
					 0.00000000E+00	 0.00000000E+00	 1.50000000E-01
					 5.00000000E-02	 0.00000000E+00	 1.50000000E-01
					 0.00000000E+00	 3.00000000E-01	 1.50000000E-01
					 5.00000000E-02	 3.00000000E-01	 1.50000000E-01
					 0.00000000E+00	 0.00000000E+00	 2.00000000E-01
					 5.00000000E-02	 0.00000000E+00	 2.00000000E-01
					 0.00000000E+00	 3.00000000E-01	 2.00000000E-01
					 5.00000000E-02	 3.00000000E-01	 2.00000000E-01
					 0.00000000E+00	 0.00000000E+00	 2.50000000E-01
					 5.00000000E-02	 0.00000000E+00	 2.50000000E-01
					 0.00000000E+00	 3.00000000E-01	 2.50000000E-01
					 5.00000000E-02	 3.00000000E-01	 2.50000000E-01
					 0.00000000E+00	 0.00000000E+00	 3.00000000E-01
					 5.00000000E-02	 0.00000000E+00	 3.00000000E-01
					 0.00000000E+00	 3.00000000E-01	 3.00000000E-01
					 5.00000000E-02	 3.00000000E-01	 3.00000000E-01
					 0.00000000E+00	 0.00000000E+00	 3.50000000E-01
					 5.00000000E-02	 0.00000000E+00	 3.50000000E-01
					 0.00000000E+00	 3.00000000E-01	 3.50000000E-01
					 5.00000000E-02	 3.00000000E-01	 3.50000000E-01
					 0.00000000E+00	 0.00000000E+00	 4.00000000E-01
					 5.00000000E-02	 0.00000000E+00	 4.00000000E-01
					 0.00000000E+00	 3.00000000E-01	 4.00000000E-01
					 5.00000000E-02	 3.00000000E-01	 4.00000000E-01
					 0.00000000E+00	 0.00000000E+00	 4.50000000E-01
					 5.00000000E-02	 0.00000000E+00	 4.50000000E-01
					 0.00000000E+00	 3.00000000E-01	 4.50000000E-01
					 5.00000000E-02	 3.00000000E-01	 4.50000000E-01
					 0.00000000E+00	 0.00000000E+00	 5.00000000E-01
					 5.00000000E-02	 0.00000000E+00	 5.00000000E-01
					 0.00000000E+00	 3.00000000E-01	 5.00000000E-01
					 5.00000000E-02	 3.00000000E-01	 5.00000000E-01
					 0.00000000E+00	 0.00000000E+00	 5.50000000E-01
					 5.00000000E-02	 0.00000000E+00	 5.50000000E-01
					 0.00000000E+00	 3.00000000E-01	 5.50000000E-01
					 5.00000000E-02	 3.00000000E-01	 5.50000000E-01
					 0.00000000E+00	 0.00000000E+00	 6.00000000E-01
					 5.00000000E-02	 0.00000000E+00	 6.00000000E-01
					 0.00000000E+00	 3.00000000E-01	 6.00000000E-01
					 5.00000000E-02	 3.00000000E-01	 6.00000000E-01
					 0.00000000E+00	 0.00000000E+00	 6.50000000E-01
					 5.00000000E-02	 0.00000000E+00	 6.50000000E-01
					 0.00000000E+00	 3.00000000E-01	 6.50000000E-01
					 5.00000000E-02	 3.00000000E-01	 6.50000000E-01
					 0.00000000E+00	 0.00000000E+00	 7.00000000E-01
					 5.00000000E-02	 0.00000000E+00	 7.00000000E-01
					 0.00000000E+00	 3.00000000E-01	 7.00000000E-01
					 5.00000000E-02	 3.00000000E-01	 7.00000000E-01
					 0.00000000E+00	 0.00000000E+00	 7.50000000E-01
					 5.00000000E-02	 0.00000000E+00	 7.50000000E-01
					 0.00000000E+00	 3.00000000E-01	 7.50000000E-01
					 5.00000000E-02	 3.00000000E-01	 7.50000000E-01
					 0.00000000E+00	 0.00000000E+00	 8.00000000E-01
					 5.00000000E-02	 0.00000000E+00	 8.00000000E-01
					 0.00000000E+00	 3.00000000E-01	 8.00000000E-01
					 5.00000000E-02	 3.00000000E-01	 8.00000000E-01
					 0.00000000E+00	 0.00000000E+00	 8.50000000E-01
					 5.00000000E-02	 0.00000000E+00	 8.50000000E-01
					 0.00000000E+00	 3.00000000E-01	 8.50000000E-01
					 5.00000000E-02	 3.00000000E-01	 8.50000000E-01
					 0.00000000E+00	 0.00000000E+00	 9.00000000E-01
					 5.00000000E-02	 0.00000000E+00	 9.00000000E-01
					 0.00000000E+00	 3.00000000E-01	 9.00000000E-01
					 5.00000000E-02	 3.00000000E-01	 9.00000000E-01
					 0.00000000E+00	 0.00000000E+00	 9.50000000E-01
					 5.00000000E-02	 0.00000000E+00	 9.50000000E-01
					 0.00000000E+00	 3.00000000E-01	 9.50000000E-01
					 5.00000000E-02	 3.00000000E-01	 9.50000000E-01
					 0.00000000E+00	 0.00000000E+00	 1.00000000E+00
					 5.00000000E-02	 0.00000000E+00	 1.00000000E+00
					 0.00000000E+00	 3.00000000E-01	 1.00000000E+00
					 5.00000000E-02	 3.00000000E-01	 1.00000000E+00
					-5.00000000E-02	 0.00000000E+00	 0.00000000E+00
					-5.00000000E-02	 0.00000000E+00	 5.00000000E-02
					-5.00000000E-02	 3.00000000E-01	 0.00000000E+00
					-5.00000000E-02	 3.00000000E-01	 5.00000000E-02
					-5.00000000E-02	 0.00000000E+00	 1.00000000E-01
					-5.00000000E-02	 3.00000000E-01	 1.00000000E-01
					-5.00000000E-02	 0.00000000E+00	 1.50000000E-01
					-5.00000000E-02	 3.00000000E-01	 1.50000000E-01
					-5.00000000E-02	 0.00000000E+00	 2.00000000E-01
					-5.00000000E-02	 3.00000000E-01	 2.00000000E-01
					-5.00000000E-02	 0.00000000E+00	 2.50000000E-01
					-5.00000000E-02	 3.00000000E-01	 2.50000000E-01
					-5.00000000E-02	 0.00000000E+00	 3.00000000E-01
					-5.00000000E-02	 3.00000000E-01	 3.00000000E-01
					-5.00000000E-02	 0.00000000E+00	 3.50000000E-01
					-5.00000000E-02	 3.00000000E-01	 3.50000000E-01
					-5.00000000E-02	 0.00000000E+00	 4.00000000E-01
					-5.00000000E-02	 3.00000000E-01	 4.00000000E-01
					-5.00000000E-02	 0.00000000E+00	 4.50000000E-01
					-5.00000000E-02	 3.00000000E-01	 4.50000000E-01
					-5.00000000E-02	 0.00000000E+00	 5.00000000E-01
					-5.00000000E-02	 3.00000000E-01	 5.00000000E-01
					-5.00000000E-02	 0.00000000E+00	 5.50000000E-01
					-5.00000000E-02	 3.00000000E-01	 5.50000000E-01
					-5.00000000E-02	 0.00000000E+00	 6.00000000E-01
					-5.00000000E-02	 3.00000000E-01	 6.00000000E-01
					-5.00000000E-02	 0.00000000E+00	 6.50000000E-01
					-5.00000000E-02	 3.00000000E-01	 6.50000000E-01
					-5.00000000E-02	 0.00000000E+00	 7.00000000E-01
					-5.00000000E-02	 3.00000000E-01	 7.00000000E-01
					-5.00000000E-02	 0.00000000E+00	 7.50000000E-01
					-5.00000000E-02	 3.00000000E-01	 7.50000000E-01
					-5.00000000E-02	 0.00000000E+00	 8.00000000E-01
					-5.00000000E-02	 3.00000000E-01	 8.00000000E-01
					-5.00000000E-02	 0.00000000E+00	 8.50000000E-01
					-5.00000000E-02	 3.00000000E-01	 8.50000000E-01
					-5.00000000E-02	 0.00000000E+00	 9.00000000E-01
					-5.00000000E-02	 3.00000000E-01	 9.00000000E-01
					-5.00000000E-02	 0.00000000E+00	 9.50000000E-01
					-5.00000000E-02	 3.00000000E-01	 9.50000000E-01
					-5.00000000E-02	 0.00000000E+00	 1.00000000E+00
					-5.00000000E-02	 3.00000000E-01	 1.00000000E+00

				</DataArray>
			</Points>
			<Cells>
				<DataArray type="Int32" Name="connectivity" format="ascii">
					0 1 2 3 4 5 6 7 3 2 8 9 7 6 10 11 9 8 12 13 11 10 14 15 13 12 16 17 15 14 18 19 17 16 20 21 19 18 22 23 21 20 24 25 23 22 26 27 25 24 28 29 27 26 30 31 29 28 32 33 31 30 34 35 33 32 36 37 35 34 38 39 37 36 40 41 39 38 42 43 41 40 44 45 43 42 46 47 45 44 48 49 47 46 50 51 49 48 52 53 51 50 54 55 53 52 56 57 55 54 58 59 57 56 60 61 59 58 62 63 61 60 64 65 63 62 66 67 65 64 68 69 67 66 70 71 69 68 72 73 71 70 74 75 73 72 76 77 75 74 78 79 77 76 80 81 79 78 82 83 1 84 85 2 5 86 87 6 2 85 88 8 6 87 89 10 8 88 90 12 10 89 91 14 12 90 92 16 14 91 93 18 16 92 94 20 18 93 95 22 20 94 96 24 22 95 97 26 24 96 98 28 26 97 99 30 28 98 100 32 30 99 101 34 32 100 102 36 34 101 103 38 36 102 104 40 38 103 105 42 40 104 106 44 42 105 107 46 44 106 108 48 46 107 109 50 48 108 110 52 50 109 111 54 52 110 112 56 54 111 113 58 56 112 114 60 58 113 115 62 60 114 116 64 62 115 117 66 64 116 118 68 66 117 119 70 68 118 120 72 70 119 121 74 72 120 122 76 74 121 123 78 76 122 124 80 78 123 125 82 
				</DataArray>
				<DataArray type="Int32" Name="offsets" format="ascii">
					8 16 24 32 40 48 56 64 72 80 88 96 104 112 120 128 136 144 152 160 168 176 184 192 200 208 216 224 232 240 248 256 264 272 280 288 296 304 312 320 
				</DataArray>
				<DataArray type="UInt8" Name="types" format="ascii">
					12 12 12 12 12 12 12 12 12 12 12 12 12 12 12 12 12 12 12 12 12 12 12 12 12 12 12 12 12 12 12 12 12 12 12 12 12 12 12 12 
				</DataArray>
			</Cells>
			<PointData>
				<DataArray type="Float32" Name="U" NumberOfComponents="3" ComponentName0="D1" ComponentName1="D2" ComponentName2="D3" format="ascii">
					 0.00000000E+00	 0.00000000E+00	 0.00000000E+00
					 0.00000000E+00	 0.00000000E+00	 0.00000000E+00
					 2.72156000E-03	 0.00000000E+00	-2.15406000E-04
					 3.05276000E-03	 0.00000000E+00	-4.02460000E-03
					 0.00000000E+00	 0.00000000E+00	 0.00000000E+00
					 0.00000000E+00	 0.00000000E+00	 0.00000000E+00
					 2.72156000E-03	 0.00000000E+00	-2.15406000E-04
					 3.05276000E-03	 0.00000000E+00	-4.02460000E-03
					 8.91898000E-03	 0.00000000E+00	-6.12384000E-04
					 8.71290000E-03	 0.00000000E+00	-7.15171000E-03
					 8.91898000E-03	 0.00000000E+00	-6.12384000E-04
					 8.71290000E-03	 0.00000000E+00	-7.15171000E-03
					 1.71038000E-02	 0.00000000E+00	-1.24686000E-03
					 1.65692000E-02	 0.00000000E+00	-9.54708000E-03
					 1.71038000E-02	 0.00000000E+00	-1.24686000E-03
					 1.65692000E-02	 0.00000000E+00	-9.54708000E-03
					 2.65672000E-02	 0.00000000E+00	-2.06071000E-03
					 2.57576000E-02	 0.00000000E+00	-1.13674000E-02
					 2.65672000E-02	 0.00000000E+00	-2.06071000E-03
					 2.57576000E-02	 0.00000000E+00	-1.13674000E-02
					 3.66587000E-02	 0.00000000E+00	-2.93493000E-03
					 3.56796000E-02	 0.00000000E+00	-1.26542000E-02
					 3.66587000E-02	 0.00000000E+00	-2.93493000E-03
					 3.56796000E-02	 0.00000000E+00	-1.26542000E-02
					 4.68514000E-02	 0.00000000E+00	-3.77266000E-03
					 4.58176000E-02	 0.00000000E+00	-1.34213000E-02
					 4.68514000E-02	 0.00000000E+00	-3.77266000E-03
					 4.58176000E-02	 0.00000000E+00	-1.34213000E-02
					 5.67015000E-02	 0.00000000E+00	-4.50663000E-03
					 5.57010000E-02	 0.00000000E+00	-1.36847000E-02
					 5.67015000E-02	 0.00000000E+00	-4.50663000E-03
					 5.57010000E-02	 0.00000000E+00	-1.36847000E-02
					 6.58627000E-02	 0.00000000E+00	-5.09182000E-03
					 6.49627000E-02	 0.00000000E+00	-1.34713000E-02
					 6.58627000E-02	 0.00000000E+00	-5.09182000E-03
					 6.49627000E-02	 0.00000000E+00	-1.34713000E-02
					 7.40331000E-02	 0.00000000E+00	-5.51001000E-03
					 7.32746000E-02	 0.00000000E+00	-1.28126000E-02
					 7.40331000E-02	 0.00000000E+00	-5.51001000E-03
					 7.32746000E-02	 0.00000000E+00	-1.28126000E-02
					 8.09407000E-02	 0.00000000E+00	-5.77261000E-03
					 8.03448000E-02	 0.00000000E+00	-1.17681000E-02
					 8.09407000E-02	 0.00000000E+00	-5.77261000E-03
					 8.03448000E-02	 0.00000000E+00	-1.17681000E-02
					 8.63647000E-02	 0.00000000E+00	-5.89665000E-03
					 8.59154000E-02	 0.00000000E+00	-1.04151000E-02
					 8.63647000E-02	 0.00000000E+00	-5.89665000E-03
					 8.59154000E-02	 0.00000000E+00	-1.04151000E-02
					 9.01750000E-02	 0.00000000E+00	-5.89907000E-03
					 8.98390000E-02	 0.00000000E+00	-8.84828000E-03
					 9.01750000E-02	 0.00000000E+00	-5.89907000E-03
					 8.98390000E-02	 0.00000000E+00	-8.84828000E-03
					 9.23174000E-02	 0.00000000E+00	-5.80654000E-03
					 9.20565000E-02	 0.00000000E+00	-7.17991000E-03
					 9.23174000E-02	 0.00000000E+00	-5.80654000E-03
					 9.20565000E-02	 0.00000000E+00	-7.17991000E-03
					 9.28195000E-02	 0.00000000E+00	-5.66945000E-03
					 9.26003000E-02	 0.00000000E+00	-5.54758000E-03
					 9.28195000E-02	 0.00000000E+00	-5.66945000E-03
					 9.26003000E-02	 0.00000000E+00	-5.54758000E-03
					 9.18185000E-02	 0.00000000E+00	-5.54245000E-03
					 9.16060000E-02	 0.00000000E+00	-4.09810000E-03
					 9.18185000E-02	 0.00000000E+00	-5.54245000E-03
					 9.16060000E-02	 0.00000000E+00	-4.09810000E-03
					 8.95597000E-02	 0.00000000E+00	-5.46481000E-03
					 8.93416000E-02	 0.00000000E+00	-2.94702000E-03
					 8.95597000E-02	 0.00000000E+00	-5.46481000E-03
					 8.93416000E-02	 0.00000000E+00	-2.94702000E-03
					 8.63437000E-02	 0.00000000E+00	-5.45931000E-03
					 8.61230000E-02	 0.00000000E+00	-2.15360000E-03
					 8.63437000E-02	 0.00000000E+00	-5.45931000E-03
					 8.61230000E-02	 0.00000000E+00	-2.15360000E-03
					 8.24919000E-02	 0.00000000E+00	-5.52480000E-03
					 8.22839000E-02	 0.00000000E+00	-1.72843000E-03
					 8.24919000E-02	 0.00000000E+00	-5.52480000E-03
					 8.22839000E-02	 0.00000000E+00	-1.72843000E-03
					 7.83406000E-02	 0.00000000E+00	-5.63809000E-03
					 7.81552000E-02	 0.00000000E+00	-1.62204000E-03
					 7.83406000E-02	 0.00000000E+00	-5.63809000E-03
					 7.81552000E-02	 0.00000000E+00	-1.62204000E-03
					 7.41926000E-02	 0.00000000E+00	-5.75741000E-03
					 7.40318000E-02	 0.00000000E+00	-1.71904000E-03
					 7.41926000E-02	 0.00000000E+00	-5.75741000E-03
					 7.40318000E-02	 0.00000000E+00	-1.71904000E-03
					 0.00000000E+00	 0.00000000E+00	 0.00000000E+00
					 3.45233000E-03	 0.00000000E+00	 3.49596000E-03
					 0.00000000E+00	 0.00000000E+00	 0.00000000E+00
					 3.45233000E-03	 0.00000000E+00	 3.49596000E-03
					 9.67129000E-03	 0.00000000E+00	 5.80681000E-03
					 9.67129000E-03	 0.00000000E+00	 5.80681000E-03
					 1.80182000E-02	 0.00000000E+00	 6.96202000E-03
					 1.80182000E-02	 0.00000000E+00	 6.96202000E-03
					 2.75889000E-02	 0.00000000E+00	 7.21136000E-03
					 2.75889000E-02	 0.00000000E+00	 7.21136000E-03
					 3.77145000E-02	 0.00000000E+00	 6.78521000E-03
					 3.77145000E-02	 0.00000000E+00	 6.78521000E-03
					 4.78566000E-02	 0.00000000E+00	 5.89416000E-03
					 4.78566000E-02	 0.00000000E+00	 5.89416000E-03
					 5.75731000E-02	 0.00000000E+00	 4.70423000E-03
					 5.75731000E-02	 0.00000000E+00	 4.70423000E-03
					 6.65585000E-02	 0.00000000E+00	 3.32636000E-03
					 6.65585000E-02	 0.00000000E+00	 3.32636000E-03
					 7.45197000E-02	 0.00000000E+00	 1.83424000E-03
					 7.45197000E-02	 0.00000000E+00	 1.83424000E-03
					 8.12221000E-02	 0.00000000E+00	 2.61358000E-04
					 8.12221000E-02	 0.00000000E+00	 2.61358000E-04
					 8.64581000E-02	 0.00000000E+00	-1.34443000E-03
					 8.64581000E-02	 0.00000000E+00	-1.34443000E-03
					 9.01444000E-02	 0.00000000E+00	-2.92738000E-03
					 9.01444000E-02	 0.00000000E+00	-2.92738000E-03
					 9.22182000E-02	 0.00000000E+00	-4.42792000E-03
					 9.22182000E-02	 0.00000000E+00	-4.42792000E-03
					 9.27200000E-02	 0.00000000E+00	-5.79732000E-03
					 9.27200000E-02	 0.00000000E+00	-5.79732000E-03
					 9.17580000E-02	 0.00000000E+00	-6.99628000E-03
					 9.17580000E-02	 0.00000000E+00	-6.99628000E-03
					 8.95749000E-02	 0.00000000E+00	-7.99631000E-03
					 8.95749000E-02	 0.00000000E+00	-7.99631000E-03
					 8.64333000E-02	 0.00000000E+00	-8.78343000E-03
					 8.64333000E-02	 0.00000000E+00	-8.78343000E-03
					 8.26454000E-02	 0.00000000E+00	-9.34259000E-03
					 8.26454000E-02	 0.00000000E+00	-9.34259000E-03
					 7.85232000E-02	 0.00000000E+00	-9.67976000E-03
					 7.85232000E-02	 0.00000000E+00	-9.67976000E-03
					 7.43660000E-02	 0.00000000E+00	-9.86565000E-03
					 7.43660000E-02	 0.00000000E+00	-9.86565000E-03
				</DataArray>
				<DataArray type="Float32" Name="S" NumberOfComponents="10" ComponentName0="xx" ComponentName1="yy" ComponentName2="zz" ComponentName3="xy" ComponentName4="yz" ComponentName5="zx" ComponentName6="Mises" ComponentName7="Min Principal" ComponentName8="Mid Principal" ComponentName9="Max Principal" format="ascii">
					-2.42147000E+03	-2.73105000E+03	-9.52625000E+03	 0.00000000E+00	 0.00000000E+00	 2.45656000E+03	 8.15342271E+03	-1.02929064E+04	-2.73105000E+03	-1.65481361E+03
					 1.47791000E+02	-9.40868000E+01	-6.72687000E+02	 0.00000000E+00	 0.00000000E+00	 2.68271000E+03	 4.70361908E+03	-2.97634354E+03	-9.40868000E+01	 2.45144754E+03
					 2.19466000E+01	-9.15158000E+01	-5.75536000E+02	-2.97736000E-09	 2.55958000E-08	 6.68219000E+02	 1.28125613E+03	-1.00875303E+03	-9.15158000E+01	 4.55163630E+02
					-8.43032000E+02	-1.96002000E+03	-7.95870000E+03	 3.38423000E-09	-1.73378000E-08	 2.22583000E+02	 6.63934538E+03	-7.96565575E+03	-1.96002000E+03	-8.36076250E+02
					-2.42147000E+03	-2.73105000E+03	-9.52625000E+03	 0.00000000E+00	 0.00000000E+00	 2.45656000E+03	 8.15342271E+03	-1.02929064E+04	-2.73105000E+03	-1.65481361E+03
					 1.47791000E+02	-9.40868000E+01	-6.72687000E+02	 0.00000000E+00	 0.00000000E+00	 2.68271000E+03	 4.70361908E+03	-2.97634354E+03	-9.40868000E+01	 2.45144754E+03
					 2.19466000E+01	-9.15158000E+01	-5.75536000E+02	-2.97740000E-09	 2.55958000E-08	 6.68219000E+02	 1.28125613E+03	-1.00875303E+03	-9.15158000E+01	 4.55163630E+02
					-8.43032000E+02	-1.96002000E+03	-7.95870000E+03	 3.38431000E-09	-1.73379000E-08	 2.22583000E+02	 6.63934538E+03	-7.96565575E+03	-1.96002000E+03	-8.36076250E+02
					 8.78798000E+01	-2.91999000E+01	-2.96613000E+02	 5.88328000E-08	 5.98827000E-09	 6.84865000E+02	 1.23436067E+03	-8.15702489E+02	-2.91999000E+01	 6.06969289E+02
					-8.46887000E+02	-1.38950000E+03	-5.62001000E+03	 5.66614000E-08	-6.96591000E-08	-1.10424000E+02	 4.53031498E+03	-5.62256324E+03	-1.38950000E+03	-8.44333757E+02
					 8.78798000E+01	-2.91999000E+01	-2.96613000E+02	 5.88328000E-08	 5.98826000E-09	 6.84865000E+02	 1.23436067E+03	-8.15702489E+02	-2.91999000E+01	 6.06969289E+02
					-8.46887000E+02	-1.38950000E+03	-5.62001000E+03	 5.66612000E-08	-6.96592000E-08	-1.10424000E+02	 4.53031498E+03	-5.62256324E+03	-1.38950000E+03	-8.44333757E+02
					 1.54134000E+02	 1.71020000E+01	-8.78600000E+01	 1.57848000E-07	-2.27088000E-08	 5.54768000E+02	 9.83605889E+02	-5.34672658E+02	 1.71020000E+01	 6.00946658E+02
					-3.98844000E+02	-8.04546000E+02	-3.44849000E+03	 1.47815000E-07	-9.49715000E-08	-4.12379000E+01	 2.86928372E+03	-3.44904752E+03	-8.04546000E+02	-3.98286475E+02
					 1.54134000E+02	 1.71020000E+01	-8.78600000E+01	 1.57848000E-07	-2.27089000E-08	 5.54768000E+02	 9.83605889E+02	-5.34672658E+02	 1.71020000E+01	 6.00946658E+02
					-3.98844000E+02	-8.04546000E+02	-3.44849000E+03	 1.47815000E-07	-9.49714000E-08	-4.12379000E+01	 2.86928372E+03	-3.44904752E+03	-8.04546000E+02	-3.98286475E+02
					 1.55090000E+02	 5.03247000E+01	 9.58203000E+01	 1.94439000E-07	-2.74312000E-08	 4.92195000E+02	 8.57348827E+02	-3.67631194E+02	 5.03247000E+01	 6.18541494E+02
					-1.48334000E+02	-3.73183000E+02	-1.67244000E+03	 2.05087000E-07	-5.48018000E-08	 1.03717000E+02	 1.43632660E+03	-1.67946566E+03	-3.73183000E+02	-1.41308336E+02
					 1.55090000E+02	 5.03247000E+01	 9.58203000E+01	 1.94438000E-07	-2.74310000E-08	 4.92195000E+02	 8.57348827E+02	-3.67631194E+02	 5.03247000E+01	 6.18541494E+02
					-1.48334000E+02	-3.73183000E+02	-1.67244000E+03	 2.05085000E-07	-5.48020000E-08	 1.03717000E+02	 1.43632660E+03	-1.67946566E+03	-3.73183000E+02	-1.41308336E+02
					 1.24927000E+02	 7.82045000E+01	 2.72977000E+02	 1.60725000E-07	-1.67616000E-08	 4.47956000E+02	 7.95621012E+02	-2.55079143E+02	 7.82045000E+01	 6.52983143E+02
					 5.07314000E+01	-2.40561000E+01	-1.61243000E+02	 1.74220000E-07	 7.68807000E-09	 2.96131000E+02	 5.45668387E+02	-3.69782199E+02	-2.40561000E+01	 2.59270599E+02
					 1.24927000E+02	 7.82045000E+01	 2.72977000E+02	 1.60725000E-07	-1.67616000E-08	 4.47956000E+02	 7.95621012E+02	-2.55079143E+02	 7.82045000E+01	 6.52983143E+02
					 5.07314000E+01	-2.40561000E+01	-1.61243000E+02	 1.74218000E-07	 7.68848000E-09	 2.96131000E+02	 5.45668387E+02	-3.69782199E+02	-2.40561000E+01	 2.59270599E+02
					 9.30286000E+01	 9.87257000E+01	 4.08038000E+02	 1.14480000E-07	-8.43970000E-09	 4.04432000E+02	 7.66918814E+02	-1.83486254E+02	 9.87257000E+01	 6.84552854E+02
					 2.25343000E+02	 2.62778000E+02	 1.11865000E+03	 1.44836000E-07	 2.14322000E-08	 4.63081000E+02	 1.18713515E+03	 2.86121968E+01	 2.62778000E+02	 1.31538080E+03
					 9.30286000E+01	 9.87257000E+01	 4.08038000E+02	 1.14478000E-07	-8.43952000E-09	 4.04432000E+02	 7.66918814E+02	-1.83486254E+02	 9.87257000E+01	 6.84552854E+02
					 2.25343000E+02	 2.62778000E+02	 1.11865000E+03	 1.44836000E-07	 2.14315000E-08	 4.63081000E+02	 1.18713515E+03	 2.86121968E+01	 2.62778000E+02	 1.31538080E+03
					 7.00245000E+01	 1.11369000E+02	 4.90302000E+02	 1.27529000E-07	-2.15591000E-08	 3.57911000E+02	 7.38422124E+02	-1.34877204E+02	 1.11369000E+02	 6.95203704E+02
					 3.50215000E+02	 4.88868000E+02	 2.17229000E+03	 1.12659000E-07	 1.49426000E-08	 5.83549000E+02	 2.02685325E+03	 1.79347346E+02	 4.88868000E+02	 2.34315765E+03
					 7.00245000E+01	 1.11369000E+02	 4.90302000E+02	 1.27528000E-07	-2.15593000E-08	 3.57911000E+02	 7.38422124E+02	-1.34877204E+02	 1.11369000E+02	 6.95203704E+02
					 3.50215000E+02	 4.88868000E+02	 2.17229000E+03	 1.12661000E-07	 1.49428000E-08	 5.83549000E+02	 2.02685325E+03	 1.79347346E+02	 4.88868000E+02	 2.34315765E+03
					 4.00532000E+01	 1.11670000E+02	 5.15189000E+02	 6.70340000E-08	-2.26488000E-08	 3.12165000E+02	 6.99425658E+02	-1.14661317E+02	 1.11670000E+02	 6.69903517E+02
					 4.44958000E+02	 6.68349000E+02	 3.03286000E+03	 6.21960000E-08	 2.24289000E-08	 6.49861000E+02	 2.72690012E+03	 2.90935067E+02	 6.68349000E+02	 3.18688293E+03
					 4.00532000E+01	 1.11670000E+02	 5.15189000E+02	 6.70348000E-08	-2.26486000E-08	 3.12165000E+02	 6.99425658E+02	-1.14661317E+02	 1.11670000E+02	 6.69903517E+02
					 4.44958000E+02	 6.68349000E+02	 3.03286000E+03	 6.21934000E-08	 2.24283000E-08	 6.49861000E+02	 2.72690012E+03	 2.90935067E+02	 6.68349000E+02	 3.18688293E+03
					 1.35013000E+01	 1.00141000E+02	 4.75989000E+02	 2.39630000E-08	-1.43828000E-08	 2.51981000E+02	 6.09766175E+02	-9.72609063E+01	 1.00141000E+02	 5.86751206E+02
					 5.03995000E+02	 8.03914000E+02	 3.70602000E+03	 1.88306000E-08	 1.91017000E-08	 6.47990000E+02	 3.26224470E+03	 3.77832910E+02	 8.03914000E+02	 3.83218209E+03
					 1.35013000E+01	 1.00141000E+02	 4.75989000E+02	 2.39643000E-08	-1.43830000E-08	 2.51981000E+02	 6.09766175E+02	-9.72609063E+01	 1.00141000E+02	 5.86751206E+02
					 5.03995000E+02	 8.03914000E+02	 3.70602000E+03	 1.88298000E-08	 1.91023000E-08	 6.47990000E+02	 3.26224470E+03	 3.77832910E+02	 8.03914000E+02	 3.83218209E+03
					-1.67221000E+01	 7.81819000E+01	 3.88200000E+02	-2.88344000E-08	-3.08050000E-09	 1.75551000E+02	 4.76439304E+02	-8.22323738E+01	 7.81819000E+01	 4.53710274E+02
					 5.41334000E+02	 8.99335000E+02	 4.18779000E+03	-2.29839000E-08	 2.11045000E-08	 5.64937000E+02	 3.61619035E+03	 4.55815250E+02	 8.99335000E+02	 4.27330875E+03
					-1.67221000E+01	 7.81819000E+01	 3.88200000E+02	-2.88320000E-08	-3.08071000E-09	 1.75551000E+02	 4.76439304E+02	-8.22323738E+01	 7.81819000E+01	 4.53710274E+02
					 5.41334000E+02	 8.99335000E+02	 4.18779000E+03	-2.29902000E-08	 2.11045000E-08	 5.64937000E+02	 3.61619035E+03	 4.55815250E+02	 8.99335000E+02	 4.27330875E+03
					-3.29751000E+01	 6.07280000E+01	 3.11052000E+02	-7.68978000E-08	 2.08006000E-09	 9.61124000E+01	 3.50158951E+02	-5.80053391E+01	 6.07280000E+01	 3.36082239E+02
					 5.39527000E+02	 9.52928000E+02	 4.48262000E+03	-7.05098000E-08	 1.22172000E-08	 4.21162000E+02	 3.82373332E+03	 4.95044474E+02	 9.52928000E+02	 4.52710253E+03
					-3.29751000E+01	 6.07280000E+01	 3.11052000E+02	-7.68966000E-08	 2.08053000E-09	 9.61124000E+01	 3.50158951E+02	-5.80053391E+01	 6.07280000E+01	 3.36082239E+02
					 5.39527000E+02	 9.52928000E+02	 4.48262000E+03	-7.05041000E-08	 1.22169000E-08	 4.21162000E+02	 3.82373332E+03	 4.95044474E+02	 9.52928000E+02	 4.52710253E+03
					-5.49248000E+01	 5.02233000E+01	 2.78129000E+02	-9.02049000E-08	 2.95067000E-09	 2.40998000E+01	 2.97831132E+02	-5.66596270E+01	 5.02233000E+01	 2.79863827E+02
					 5.19865000E+02	 9.70014000E+02	 4.59621000E+03	-7.51629000E-08	-2.38726000E-08	 2.48713000E+02	 3.89484718E+03	 5.04746167E+02	 9.70014000E+02	 4.61132883E+03
					-5.49248000E+01	 5.02233000E+01	 2.78129000E+02	-9.02123000E-08	 2.95026000E-09	 2.40998000E+01	 2.97831132E+02	-5.66596270E+01	 5.02233000E+01	 2.79863827E+02
					 5.19865000E+02	 9.70014000E+02	 4.59621000E+03	-7.51653000E-08	-2.38722000E-08	 2.48713000E+02	 3.89484718E+03	 5.04746167E+02	 9.70014000E+02	 4.61132883E+03
					-5.32741000E+01	 5.12248000E+01	 2.83401000E+02	-3.91640000E-08	 8.95508000E-09	-5.03499000E+01	 3.10955467E+02	-6.06426773E+01	 5.12248000E+01	 2.90769577E+02
					 4.94899000E+02	 9.47846000E+02	 4.49845000E+03	-3.86453000E-08	-4.68831000E-08	 6.27777000E+01	 3.79894831E+03	 4.93914856E+02	 9.47846000E+02	 4.49943414E+03
					-5.32741000E+01	 5.12248000E+01	 2.83401000E+02	-3.91608000E-08	 8.95557000E-09	-5.03499000E+01	 3.10955467E+02	-6.06426773E+01	 5.12248000E+01	 2.90769577E+02
					 4.94899000E+02	 9.47846000E+02	 4.49845000E+03	-3.86438000E-08	-4.68838000E-08	 6.27777000E+01	 3.79894831E+03	 4.93914856E+02	 9.47846000E+02	 4.49943414E+03
					-4.73108000E+01	 5.23044000E+01	 2.87550000E+02	 2.36836000E-08	 1.71450000E-08	-1.25665000E+02	 3.68880461E+02	-8.92237330E+01	 5.23044000E+01	 3.29462933E+02
					 4.66983000E+02	 8.78456000E+02	 4.14350000E+03	 3.20849000E-08	-2.80140000E-08	-1.12603000E+02	 3.49447251E+03	 4.63537466E+02	 8.78456000E+02	 4.14694553E+03
					-4.73108000E+01	 5.23044000E+01	 2.87550000E+02	 2.36799000E-08	 1.71447000E-08	-1.25665000E+02	 3.68880461E+02	-8.92237330E+01	 5.23044000E+01	 3.29462933E+02
					 4.66983000E+02	 8.78456000E+02	 4.14350000E+03	 3.20936000E-08	-2.80140000E-08	-1.12603000E+02	 3.49447251E+03	 4.63537466E+02	 8.78456000E+02	 4.14694553E+03
					-3.35355000E+01	 5.17790000E+01	 2.77557000E+02	 3.62741000E-08	 4.96850000E-09	-1.85748000E+02	 4.25468406E+02	-1.20263795E+02	 5.17790000E+01	 3.64285295E+02
					 4.00841000E+02	 7.53926000E+02	 3.53111000E+03	 6.47017000E-08	-1.44029000E-08	-2.37679000E+02	 2.99791193E+03	 3.82897072E+02	 7.53926000E+02	 3.54905393E+03
					-3.35355000E+01	 5.17790000E+01	 2.77557000E+02	 3.62697000E-08	 4.96850000E-09	-1.85748000E+02	 4.25468406E+02	-1.20263795E+02	 5.17790000E+01	 3.64285295E+02
					 4.00841000E+02	 7.53926000E+02	 3.53111000E+03	 6.47028000E-08	-1.44026000E-08	-2.37679000E+02	 2.99791193E+03	 3.82897072E+02	 7.53926000E+02	 3.54905393E+03
					-3.11836000E+01	 4.38730000E+01	 2.42096000E+02	 6.67766000E-08	-3.28993000E-09	-2.20139000E+02	 4.52976085E+02	-1.53641493E+02	 4.38730000E+01	 3.64553893E+02
					 3.18490000E+02	 5.92570000E+02	 2.74673000E+03	 7.00249000E-08	-1.22340000E-08	-2.92296000E+02	 2.35844190E+03	 2.83800837E+02	 5.92570000E+02	 2.78141916E+03
					-3.11836000E+01	 4.38730000E+01	 2.42096000E+02	 6.67784000E-08	-3.28983000E-09	-2.20139000E+02	 4.52976085E+02	-1.53641493E+02	 4.38730000E+01	 3.64553893E+02
					 3.18490000E+02	 5.92570000E+02	 2.74673000E+03	 7.00300000E-08	-1.22340000E-08	-2.92296000E+02	 2.35844190E+03	 2.83800837E+02	 5.92570000E+02	 2.78141916E+03
					-2.21637000E+01	 3.38577000E+01	 1.88069000E+02	 8.26605000E-08	 6.92338000E-09	-2.26734000E+02	 4.35641568E+02	-1.66962843E+02	 3.38577000E+01	 3.32868143E+02
					 2.27221000E+02	 4.13134000E+02	 1.89029000E+03	 6.97578000E-08	 1.90739000E-08	-2.83787000E+02	 1.65311257E+03	 1.80128909E+02	 4.13134000E+02	 1.93738209E+03
					-2.21637000E+01	 3.38577000E+01	 1.88069000E+02	 8.26624000E-08	 6.92347000E-09	-2.26734000E+02	 4.35641568E+02	-1.66962843E+02	 3.38577000E+01	 3.32868143E+02
					 2.27221000E+02	 4.13134000E+02	 1.89029000E+03	 6.97606000E-08	 1.90737000E-08	-2.83787000E+02	 1.65311257E+03	 1.80128909E+02	 4.13134000E+02	 1.93738209E+03
					-1.56654000E+01	 2.36705000E+01	 1.33365000E+02	 3.56825000E-08	 4.75969000E-09	-2.01028000E+02	 3.73003885E+02	-1.55544164E+02	 2.36705000E+01	 2.73243764E+02
					 1.43303000E+02	 2.39418000E+02	 1.07259000E+03	 3.11916000E-08	 5.22437000E-08	-2.26169000E+02	 9.67962422E+02	 9.11815644E+01	 2.39418000E+02	 1.12471144E+03
					-1.56654000E+01	 2.36705000E+01	 1.33365000E+02	 3.56819000E-08	 4.75972000E-09	-2.01028000E+02	 3.73003885E+02	-1.55544164E+02	 2.36705000E+01	 2.73243764E+02
					 1.43303000E+02	 2.39418000E+02	 1.07259000E+03	 3.11886000E-08	 5.22439000E-08	-2.26169000E+02	 9.67962422E+02	 9.11815644E+01	 2.39418000E+02	 1.12471144E+03
					 3.96168000E-01	 2.31009000E+01	 1.15319000E+02	-4.40503000E-08	-2.19036000E-09	-1.26095000E+02	 2.42514571E+02	-8.07128434E+01	 2.31009000E+01	 1.96428011E+02
					 7.10178000E+01	 1.00398000E+02	 4.34914000E+02	-7.75952000E-08	 3.55177000E-08	-1.25946000E+02	 4.12528159E+02	 3.16798724E+01	 1.00398000E+02	 4.74251928E+02
					 3.96168000E-01	 2.31009000E+01	 1.15319000E+02	-4.40553000E-08	-2.19044000E-09	-1.26095000E+02	 2.42514571E+02	-8.07128434E+01	 2.31009000E+01	 1.96428011E+02
					 7.10178000E+01	 1.00398000E+02	 4.34914000E+02	-7.75920000E-08	 3.55180000E-08	-1.25946000E+02	 4.12528159E+02	 3.16798724E+01	 1.00398000E+02	 4.74251928E+02
					 4.53427000E+01	 3.46482000E+01	 1.28375000E+02	-1.24297000E-07	-2.24126000E-09	-7.85457000E+01	 1.62496169E+02	-1.98380698E+00	 3.46482000E+01	 1.75701507E+02
					 6.94974000E+01	 5.03676000E+01	 1.83147000E+02	-1.22920000E-07	 2.19085000E-08	-9.02168000E+01	 1.99683469E+02	 1.97007721E+01	 5.03676000E+01	 2.32943628E+02
					 4.53427000E+01	 3.46482000E+01	 1.28375000E+02	-1.24299000E-07	-2.24150000E-09	-7.85457000E+01	 1.62496169E+02	-1.98380698E+00	 3.46482000E+01	 1.75701507E+02
					 6.94974000E+01	 5.03676000E+01	 1.83147000E+02	-1.22919000E-07	 2.19083000E-08	-9.02168000E+01	 1.99683469E+02	 1.97007721E+01	 5.03676000E+01	 2.32943628E+02
					 2.76265000E+03	 2.32757000E+03	 1.03501000E+04	 0.00000000E+00	 0.00000000E+00	 4.08517000E+03	 1.05416167E+04	 9.81344659E+02	 2.32757000E+03	 1.21314053E+04
					 8.11038000E+02	 1.68389000E+03	 8.46641000E+03	-9.00509000E-09	 5.96855000E-08	 1.51959000E+03	 7.72088373E+03	 5.20431407E+02	 1.68389000E+03	 8.75701659E+03
					 2.76265000E+03	 2.32757000E+03	 1.03501000E+04	 0.00000000E+00	 0.00000000E+00	 4.08517000E+03	 1.05416167E+04	 9.81344659E+02	 2.32757000E+03	 1.21314053E+04