<?xml version="1.0"?>
<VTKFile type="UnstructuredGrid" version="0.1" byte_order="LittleEndian">
	<UnstructuredGrid>
		<Piece NumberOfPoints="126" NumberOfCells="40">
			<Points>
				<DataArray type="Float64" NumberOfComponents="3" format="ascii">
					 5.00000000E-02	 0.00000000E+00	 0.00000000E+00
					 0.00000000E+00	 0.00000000E+00	 0.00000000E+00
					 0.00000000E+00	 0.00000000E+00	 5.00000000E-02
					 5.00000000E-02	 0.00000000E+00	 5.00000000E-02
					 5.00000000E-02	 3.00000000E-01	 0.00000000E+00
					 0.00000000E+00	 3.00000000E-01	 0.00000000E+00
					 0.00000000E+00	 3.00000000E-01	 5.00000000E-02
					 5.00000000E-02	 3.00000000E-01	 5.00000000E-02
					 0.00000000E+00	 0.00000000E+00	 1.00000000E-01
					 5.00000000E-02	 0.00000000E+00	 1.00000000E-01
					 0.00000000E+00	 3.00000000E-01	 1.00000000E-01
					 5.00000000E-02	 3.00000000E-01	 1.00000000E-01
					 0.00000000E+00	 0.00000000E+00	 1.50000000E-01
					 5.00000000E-02	 0.00000000E+00	 1.50000000E-01
					 0.00000000E+00	 3.00000000E-01	 1.50000000E-01
					 5.00000000E-02	 3.00000000E-01	 1.50000000E-01
					 0.00000000E+00	 0.00000000E+00	 2.00000000E-01
					 5.00000000E-02	 0.00000000E+00	 2.00000000E-01
					 0.00000000E+00	 3.00000000E-01	 2.00000000E-01
					 5.00000000E-02	 3.00000000E-01	 2.00000000E-01
					 0.00000000E+00	 0.00000000E+00	 2.50000000E-01
					 5.00000000E-02	 0.00000000E+00	 2.50000000E-01
					 0.00000000E+00	 3.00000000E-01	 2.50000000E-01
					 5.00000000E-02	 3.00000000E-01	 2.50000000E-01
					 0.00000000E+00	 0.00000000E+00	 3.00000000E-01
					 5.00000000E-02	 0.00000000E+00	 3.00000000E-01
					 0.00000000E+00	 3.00000000E-01	 3.00000000E-01
					 5.00000000E-02	 3.00000000E-01	 3.00000000E-01
					 0.00000000E+00	 0.00000000E+00	 3.50000000E-01
					 5.00000000E-02	 0.00000000E+00	 3.50000000E-01
					 0.00000000E+00	 3.00000000E-01	 3.50000000E-01
					 5.00000000E-02	 3.00000000E-01	 3.50000000E-01
					 0.00000000E+00	 0.00000000E+00	 4.00000000E-01
					 5.00000000E-02	 0.00000000E+00	 4.00000000E-01
					 0.00000000E+00	 3.00000000E-01	 4.00000000E-01
					 5.00000000E-02	 3.00000000E-01	 4.00000000E-01
					 0.00000000E+00	 0.00000000E+00	 4.50000000E-01
					 5.00000000E-02	 0.00000000E+00	 4.50000000E-01
					 0.00000000E+00	 3.00000000E-01	 4.50000000E-01
					 5.00000000E-02	 3.00000000E-01	 4.50000000E-01
					 0.00000000E+00	 0.00000000E+00	 5.00000000E-01
					 5.00000000E-02	 0.00000000E+00	 5.00000000E-01
					 0.00000000E+00	 3.00000000E-01	 5.00000000E-01
					 5.00000000E-02	 3.00000000E-01	 5.00000000E-01
					 0.00000000E+00	 0.00000000E+00	 5.50000000E-01
					 5.00000000E-02	 0.00000000E+00	 5.50000000E-01
					 0.00000000E+00	 3.00000000E-01	 5.50000000E-01
					 5.00000000E-02	 3.00000000E-01	 5.50000000E-01
					 0.00000000E+00	 0.00000000E+00	 6.00000000E-01
					 5.00000000E-02	 0.00000000E+00	 6.00000000E-01
					 0.00000000E+00	 3.00000000E-01	 6.00000000E-01
					 5.00000000E-02	 3.00000000E-01	 6.00000000E-01
					 0.00000000E+00	 0.00000000E+00	 6.50000000E-01
					 5.00000000E-02	 0.00000000E+00	 6.50000000E-01
					 0.00000000E+00	 3.00000000E-01	 6.50000000E-01
					 5.00000000E-02	 3.00000000E-01	 6.50000000E-01
					 0.00000000E+00	 0.00000000E+00	 7.00000000E-01
					 5.00000000E-02	 0.00000000E+00	 7.00000000E-01
					 0.00000000E+00	 3.00000000E-01	 7.00000000E-01
					 5.00000000E-02	 3.00000000E-01	 7.00000000E-01
					 0.00000000E+00	 0.00000000E+00	 7.50000000E-01
					 5.00000000E-02	 0.00000000E+00	 7.50000000E-01
					 0.00000000E+00	 3.00000000E-01	 7.50000000E-01
					 5.00000000E-02	 3.00000000E-01	 7.50000000E-01
					 0.00000000E+00	 0.00000000E+00	 8.00000000E-01
					 5.00000000E-02	 0.00000000E+00	 8.00000000E-01
					 0.00000000E+00	 3.00000000E-01	 8.00000000E-01
					 5.00000000E-02	 3.00000000E-01	 8.00000000E-01
					 0.00000000E+00	 0.00000000E+00	 8.50000000E-01
					 5.00000000E-02	 0.00000000E+00	 8.50000000E-01
					 0.00000000E+00	 3.00000000E-01	 8.50000000E-01
					 5.00000000E-02	 3.00000000E-01	 8.50000000E-01
					 0.00000000E+00	 0.00000000E+00	 9.00000000E-01
					 5.00000000E-02	 0.00000000E+00	 9.00000000E-01
					 0.00000000E+00	 3.00000000E-01	 9.00000000E-01
					 5.00000000E-02	 3.00000000E-01	 9.00000000E-01
					 0.00000000E+00	 0.00000000E+00	 9.50000000E-01
					 5.00000000E-02	 0.00000000E+00	 9.50000000E-01
					 0.00000000E+00	 3.00000000E-01	 9.50000000E-01
					 5.00000000E-02	 3.00000000E-01	 9.50000000E-01
					 0.00000000E+00	 0.00000000E+00	 1.00000000E+00
					 5.00000000E-02	 0.00000000E+00	 1.00000000E+00
					 0.00000000E+00	 3.00000000E-01	 1.00000000E+00
					 5.00000000E-02	 3.00000000E-01	 1.00000000E+00
					-5.00000000E-02	 0.00000000E+00	 0.00000000E+00
					-5.00000000E-02	 0.00000000E+00	 5.00000000E-02
					-5.00000000E-02	 3.00000000E-01	 0.00000000E+00
					-5.00000000E-02	 3.00000000E-01	 5.00000000E-02
					-5.00000000E-02	 0.00000000E+00	 1.00000000E-01
					-5.00000000E-02	 3.00000000E-01	 1.00000000E-01
					-5.00000000E-02	 0.00000000E+00	 1.50000000E-01
					-5.00000000E-02	 3.00000000E-01	 1.50000000E-01
					-5.00000000E-02	 0.00000000E+00	 2.00000000E-01
					-5.00000000E-02	 3.00000000E-01	 2.00000000E-01
					-5.00000000E-02	 0.00000000E+00	 2.50000000E-01
					-5.00000000E-02	 3.00000000E-01	 2.50000000E-01
					-5.00000000E-02	 0.00000000E+00	 3.00000000E-01
					-5.00000000E-02	 3.00000000E-01	 3.00000000E-01
					-5.00000000E-02	 0.00000000E+00	 3.50000000E-01
					-5.00000000E-02	 3.00000000E-01	 3.50000000E-01
					-5.00000000E-02	 0.00000000E+00	 4.00000000E-01
					-5.00000000E-02	 3.00000000E-01	 4.00000000E-01
					-5.00000000E-02	 0.00000000E+00	 4.50000000E-01
					-5.00000000E-02	 3.00000000E-01	 4.50000000E-01
					-5.00000000E-02	 0.00000000E+00	 5.00000000E-01
					-5.00000000E-02	 3.00000000E-01	 5.00000000E-01
					-5.00000000E-02	 0.00000000E+00	 5.50000000E-01
					-5.00000000E-02	 3.00000000E-01	 5.50000000E-01
					-5.00000000E-02	 0.00000000E+00	 6.00000000E-01
					-5.00000000E-02	 3.00000000E-01	 6.00000000E-01
					-5.00000000E-02	 0.00000000E+00	 6.50000000E-01
					-5.00000000E-02	 3.00000000E-01	 6.50000000E-01
					-5.00000000E-02	 0.00000000E+00	 7.00000000E-01
					-5.00000000E-02	 3.00000000E-01	 7.00000000E-01
					-5.00000000E-02	 0.00000000E+00	 7.50000000E-01
					-5.00000000E-02	 3.00000000E-01	 7.50000000E-01
					-5.00000000E-02	 0.00000000E+00	 8.00000000E-01
					-5.00000000E-02	 3.00000000E-01	 8.00000000E-01
					-5.00000000E-02	 0.00000000E+00	 8.50000000E-01
					-5.00000000E-02	 3.00000000E-01	 8.50000000E-01
					-5.00000000E-02	 0.00000000E+00	 9.00000000E-01
					-5.00000000E-02	 3.00000000E-01	 9.00000000E-01
					-5.00000000E-02	 0.00000000E+00	 9.50000000E-01
					-5.00000000E-02	 3.00000000E-01	 9.50000000E-01
					-5.00000000E-02	 0.00000000E+00	 1.00000000E+00
					-5.00000000E-02	 3.00000000E-01	 1.00000000E+00

				</DataArray>
			</Points>
			<Cells>
				<DataArray type="Int32" Name="connectivity" format="ascii">
					0 1 2 3 4 5 6 7 3 2 8 9 7 6 10 11 9 8 12 13 11 10 14 15 13 12 16 17 15 14 18 19 17 16 20 21 19 18 22 23 21 20 24 25 23 22 26 27 25 24 28 29 27 26 30 31 29 28 32 33 31 30 34 35 33 32 36 37 35 34 38 39 37 36 40 41 39 38 42 43 41 40 44 45 43 42 46 47 45 44 48 49 47 46 50 51 49 48 52 53 51 50 54 55 53 52 56 57 55 54 58 59 57 56 60 61 59 58 62 63 61 60 64 65 63 62 66 67 65 64 68 69 67 66 70 71 69 68 72 73 71 70 74 75 73 72 76 77 75 74 78 79 77 76 80 81 79 78 82 83 1 84 85 2 5 86 87 6 2 85 88 8 6 87 89 10 8 88 90 12 10 89 91 14 12 90 92 16 14 91 93 18 16 92 94 20 18 93 95 22 20 94 96 24 22 95 97 26 24 96 98 28 26 97 99 30 28 98 100 32 30 99 101 34 32 100 102 36 34 101 103 38 36 102 104 40 38 103 105 42 40 104 106 44 42 105 107 46 44 106 108 48 46 107 109 50 48 108 110 52 50 109 111 54 52 110 112 56 54 111 113 58 56 112 114 60 58 113 115 62 60 114 116 64 62 115 117 66 64 116 118 68 66 117 119 70 68 118 120 72 70 119 121 74 72 120 122 76 74 121 123 78 76 122 124 80 78 123 125 82 
				</DataArray>
				<DataArray type="Int32" Name="offsets" format="ascii">
					8 16 24 32 40 48 56 64 72 80 88 96 104 112 120 128 136 144 152 160 168 176 184 192 200 208 216 224 232 240 248 256 264 272 280 288 296 304 312 320 
				</DataArray>
				<DataArray type="UInt8" Name="types" format="ascii">
					12 12 12 12 12 12 12 12 12 12 12 12 12 12 12 12 12 12 12 12 12 12 12 12 12 12 12 12 12 12 12 12 12 12 12 12 12 12 12 12 
				</DataArray>
			</Cells>
			<PointData>
				<DataArray type="Float32" Name="U" NumberOfComponents="3" ComponentName0="D1" ComponentName1="D2" ComponentName2="D3" format="ascii">
					 0.00000000E+00	 0.00000000E+00	 0.00000000E+00
					 0.00000000E+00	 0.00000000E+00	 0.00000000E+00
					 3.12280000E-03	 0.00000000E+00	-3.57327000E-04
					 3.48818000E-03	 0.00000000E+00	-7.01679000E-03
					 0.00000000E+00	 0.00000000E+00	 0.00000000E+00
					 0.00000000E+00	 0.00000000E+00	 0.00000000E+00
					 3.12280000E-03	 0.00000000E+00	-3.57327000E-04
					 3.48818000E-03	 0.00000000E+00	-7.01679000E-03
					 1.33040000E-02	 0.00000000E+00	-1.50561000E-03
					 1.21265000E-02	 0.00000000E+00	-1.46432000E-02
					 1.33040000E-02	 0.00000000E+00	-1.50561000E-03
					 1.21265000E-02	 0.00000000E+00	-1.46432000E-02
					 2.94367000E-02	 0.00000000E+00	-4.31332000E-03
					 2.62968000E-02	 0.00000000E+00	-2.33694000E-02
					 2.94367000E-02	 0.00000000E+00	-4.31332000E-03
					 2.62968000E-02	 0.00000000E+00	-2.33694000E-02
					 5.11793000E-02	 0.00000000E+00	-9.42541000E-03
					 4.54610000E-02	 0.00000000E+00	-3.38167000E-02
					 5.11793000E-02	 0.00000000E+00	-9.42541000E-03
					 4.54610000E-02	 0.00000000E+00	-3.38167000E-02
					 7.79456000E-02	 0.00000000E+00	-1.73144000E-02
					 6.92760000E-02	 0.00000000E+00	-4.63693000E-02
					 7.79456000E-02	 0.00000000E+00	-1.73144000E-02
					 6.92760000E-02	 0.00000000E+00	-4.63693000E-02
					 1.09023000E-01	 0.00000000E+00	-2.82292000E-02
					 9.72423000E-02	 0.00000000E+00	-6.12050000E-02
					 1.09023000E-01	 0.00000000E+00	-2.82292000E-02
					 9.72423000E-02	 0.00000000E+00	-6.12050000E-02
					 1.43663000E-01	 0.00000000E+00	-4.21941000E-02
					 1.28786000E-01	 0.00000000E+00	-7.83760000E-02
					 1.43663000E-01	 0.00000000E+00	-4.21941000E-02
					 1.28786000E-01	 0.00000000E+00	-7.83760000E-02
					 1.81206000E-01	 0.00000000E+00	-5.91126000E-02
					 1.63364000E-01	 0.00000000E+00	-9.78839000E-02
					 1.81206000E-01	 0.00000000E+00	-5.91126000E-02
					 1.63364000E-01	 0.00000000E+00	-9.78839000E-02
					 2.21110000E-01	 0.00000000E+00	-7.88288000E-02
					 2.00505000E-01	 0.00000000E+00	-1.19666000E-01
					 2.21110000E-01	 0.00000000E+00	-7.88288000E-02
					 2.00505000E-01	 0.00000000E+00	-1.19666000E-01
					 2.62908000E-01	 0.00000000E+00	-1.01129000E-01
					 2.39814000E-01	 0.00000000E+00	-1.43586000E-01
					 2.62908000E-01	 0.00000000E+00	-1.01129000E-01
					 2.39814000E-01	 0.00000000E+00	-1.43586000E-01
					 3.06180000E-01	 0.00000000E+00	-1.25722000E-01
					 2.80931000E-01	 0.00000000E+00	-1.69407000E-01
					 3.06180000E-01	 0.00000000E+00	-1.25722000E-01
					 2.80931000E-01	 0.00000000E+00	-1.69407000E-01
					 3.50552000E-01	 0.00000000E+00	-1.52245000E-01
					 3.23527000E-01	 0.00000000E+00	-1.96835000E-01
					 3.50552000E-01	 0.00000000E+00	-1.52245000E-01
					 3.23527000E-01	 0.00000000E+00	-1.96835000E-01
					 3.95709000E-01	 0.00000000E+00	-1.80307000E-01
					 3.67287000E-01	 0.00000000E+00	-2.25540000E-01
					 3.95709000E-01	 0.00000000E+00	-1.80307000E-01
					 3.67287000E-01	 0.00000000E+00	-2.25540000E-01
					 4.41411000E-01	 0.00000000E+00	-2.09537000E-01
					 4.11942000E-01	 0.00000000E+00	-2.55213000E-01
					 4.41411000E-01	 0.00000000E+00	-2.09537000E-01
					 4.11942000E-01	 0.00000000E+00	-2.55213000E-01
					 4.87481000E-01	 0.00000000E+00	-2.39611000E-01
					 4.57278000E-01	 0.00000000E+00	-2.85567000E-01
					 4.87481000E-01	 0.00000000E+00	-2.39611000E-01
					 4.57278000E-01	 0.00000000E+00	-2.85567000E-01
					 5.33778000E-01	 0.00000000E+00	-2.70230000E-01
					 5.03124000E-01	 0.00000000E+00	-3.16343000E-01
					 5.33778000E-01	 0.00000000E+00	-2.70230000E-01
					 5.03124000E-01	 0.00000000E+00	-3.16343000E-01
					 5.80178000E-01	 0.00000000E+00	-3.01118000E-01
					 5.49308000E-01	 0.00000000E+00	-3.47294000E-01
					 5.80178000E-01	 0.00000000E+00	-3.01118000E-01
					 5.49308000E-01	 0.00000000E+00	-3.47294000E-01
					 6.26575000E-01	 0.00000000E+00	-3.32054000E-01
					 5.95655000E-01	 0.00000000E+00	-3.78246000E-01
					 6.26575000E-01	 0.00000000E+00	-3.32054000E-01
					 5.95655000E-01	 0.00000000E+00	-3.78246000E-01
					 6.72906000E-01	 0.00000000E+00	-3.62933000E-01
					 6.42004000E-01	 0.00000000E+00	-4.09127000E-01
					 6.72906000E-01	 0.00000000E+00	-3.62933000E-01
					 6.42004000E-01	 0.00000000E+00	-4.09127000E-01
					 7.19177000E-01	 0.00000000E+00	-3.93781000E-01
					 6.88270000E-01	 0.00000000E+00	-4.39992000E-01
					 7.19177000E-01	 0.00000000E+00	-3.93781000E-01
					 6.88270000E-01	 0.00000000E+00	-4.39992000E-01
					 0.00000000E+00	 0.00000000E+00	 0.00000000E+00
					 4.79435000E-03	 0.00000000E+00	 6.16326000E-03
					 0.00000000E+00	 0.00000000E+00	 0.00000000E+00
					 4.79435000E-03	 0.00000000E+00	 6.16326000E-03
					 1.60026000E-02	 0.00000000E+00	 1.11793000E-02
					 1.60026000E-02	 0.00000000E+00	 1.11793000E-02
					 3.40099000E-02	 0.00000000E+00	 1.40980000E-02
					 3.40099000E-02	 0.00000000E+00	 1.40980000E-02
					 5.81518000E-02	 0.00000000E+00	 1.42036000E-02
					 5.81518000E-02	 0.00000000E+00	 1.42036000E-02
					 8.76772000E-02	 0.00000000E+00	 1.09088000E-02
					 8.76772000E-02	 0.00000000E+00	 1.09088000E-02
					 1.21680000E-01	 0.00000000E+00	 3.90525000E-03
					 1.21680000E-01	 0.00000000E+00	 3.90525000E-03
					 1.59248000E-01	 0.00000000E+00	-6.81496000E-03
					 1.59248000E-01	 0.00000000E+00	-6.81496000E-03
					 1.99621000E-01	 0.00000000E+00	-2.10911000E-02
					 1.99621000E-01	 0.00000000E+00	-2.10911000E-02
					 2.42168000E-01	 0.00000000E+00	-3.86750000E-02
					 2.42168000E-01	 0.00000000E+00	-3.86750000E-02
					 2.86351000E-01	 0.00000000E+00	-5.92792000E-02
					 2.86351000E-01	 0.00000000E+00	-5.92792000E-02
					 3.31686000E-01	 0.00000000E+00	-8.25482000E-02
					 3.31686000E-01	 0.00000000E+00	-8.25482000E-02
					 3.77764000E-01	 0.00000000E+00	-1.08070000E-01
					 3.77764000E-01	 0.00000000E+00	-1.08070000E-01
					 4.24264000E-01	 0.00000000E+00	-1.35393000E-01
					 4.24264000E-01	 0.00000000E+00	-1.35393000E-01
					 4.70973000E-01	 0.00000000E+00	-1.64098000E-01
					 4.70973000E-01	 0.00000000E+00	-1.64098000E-01
					 5.17744000E-01	 0.00000000E+00	-1.93812000E-01
					 5.17744000E-01	 0.00000000E+00	-1.93812000E-01
					 5.64466000E-01	 0.00000000E+00	-2.24209000E-01
					 5.64466000E-01	 0.00000000E+00	-2.24209000E-01
					 6.11058000E-01	 0.00000000E+00	-2.54982000E-01
					 6.11058000E-01	 0.00000000E+00	-2.54982000E-01
					 6.57490000E-01	 0.00000000E+00	-2.85877000E-01
					 6.57490000E-01	 0.00000000E+00	-2.85877000E-01
					 7.03798000E-01	 0.00000000E+00	-3.16751000E-01
					 7.03798000E-01	 0.00000000E+00	-3.16751000E-01
					 7.50037000E-01	 0.00000000E+00	-3.47595000E-01
					 7.50037000E-01	 0.00000000E+00	-3.47595000E-01
				</DataArray>
				<DataArray type="Float32" Name="S" NumberOfComponents="10" ComponentName0="xx" ComponentName1="yy" ComponentName2="zz" ComponentName3="xy" ComponentName4="yz" ComponentName5="zx" ComponentName6="Mises" ComponentName7="Min Principal" ComponentName8="Mid Principal" ComponentName9="Max Principal" format="ascii">
					-4.66032000E+03	-4.95440000E+03	-1.54952000E+04	 0.00000000E+00	 0.00000000E+00	 2.33570000E+03	 1.14307161E+04	-1.59772643E+04	-4.95440000E+03	-4.17825573E+03
					 4.06888000E+01	-1.72162000E+02	-1.60276000E+03	 0.00000000E+00	 0.00000000E+00	 2.99255000E+03	 5.40948117E+03	-3.88435423E+03	-1.72162000E+02	 2.32228303E+03
					-2.63728000E+02	-2.70376000E+02	-1.52345000E+03	-1.31342000E-08	 7.27545000E-09	-9.13403000E+01	 1.26633259E+03	-1.53003847E+03	-2.70376000E+02	-2.57139529E+02
					-2.48969000E+03	-4.21016000E+03	-1.45834000E+04	-1.22418000E-08	 1.28549000E-08	-1.29102000E+03	 1.15503754E+04	-1.47196824E+04	-4.21016000E+03	-2.35340761E+03
					-4.66032000E+03	-4.95440000E+03	-1.54952000E+04	 0.00000000E+00	 0.00000000E+00	 2.33570000E+03	 1.14307161E+04	-1.59772643E+04	-4.95440000E+03	-4.17825573E+03
					 4.06888000E+01	-1.72162000E+02	-1.60276000E+03	 0.00000000E+00	 0.00000000E+00	 2.99255000E+03	 5.40948117E+03	-3.88435423E+03	-1.72162000E+02	 2.32228303E+03
					-2.63728000E+02	-2.70376000E+02	-1.52345000E+03	-1.31342000E-08	 7.27542000E-09	-9.13403000E+01	 1.26633259E+03	-1.53003847E+03	-2.70376000E+02	-2.57139529E+02
					-2.48969000E+03	-4.21016000E+03	-1.45834000E+04	-1.22420000E-08	 1.28550000E-08	-1.29102000E+03	 1.15503754E+04	-1.47196824E+04	-4.21016000E+03	-2.35340761E+03
					-3.36468000E+02	-2.35434000E+02	-1.35468000E+03	-2.33784000E-08	 3.16594000E-09	-1.44068000E+01	 1.07259510E+03	-1.35488380E+03	-3.36264197E+02	-2.35434000E+02
					-3.58857000E+03	-4.22565000E+03	-1.37314000E+04	-2.54687000E-08	 0.00000000E+00	-2.80933000E+03	 1.09771619E+04	-1.44575349E+04	-4.22565000E+03	-2.86243507E+03
					-3.36468000E+02	-2.35434000E+02	-1.35468000E+03	-2.33785000E-08	 3.16597000E-09	-1.44068000E+01	 1.07259510E+03	-1.35488380E+03	-3.36264197E+02	-2.35434000E+02
					-3.58857000E+03	-4.22565000E+03	-1.37314000E+04	-2.54685000E-08	 0.00000000E+00	-2.80933000E+03	 1.09771619E+04	-1.44575349E+04	-4.22565000E+03	-2.86243507E+03
					-2.84908000E+02	-2.20298000E+02	-1.25258000E+03	-5.18749000E-08	-4.13572000E-09	-1.52985000E+02	 1.03600100E+03	-1.27619024E+03	-2.61297761E+02	-2.20298000E+02
					-4.00831000E+03	-3.93657000E+03	-1.22865000E+04	-4.90907000E-08	 6.32393000E-09	-3.79156000E+03	 1.05950571E+04	-1.37606068E+04	-3.93657000E+03	-2.53420318E+03
					-2.84908000E+02	-2.20298000E+02	-1.25258000E+03	-5.18747000E-08	-4.13551000E-09	-1.52985000E+02	 1.03600100E+03	-1.27619024E+03	-2.61297761E+02	-2.20298000E+02
					-4.00831000E+03	-3.93657000E+03	-1.22865000E+04	-4.90908000E-08	 6.32443000E-09	-3.79156000E+03	 1.05950571E+04	-1.37606068E+04	-3.93657000E+03	-2.53420318E+03
					-2.26212000E+02	-1.98053000E+02	-1.14841000E+03	-8.40697000E-08	-9.33083000E-09	-1.87356000E+02	 9.91219989E+02	-1.18502031E+03	-1.98053000E+02	-1.89601689E+02
					-4.68157000E+03	-3.68710000E+03	-1.07462000E+04	-7.87896000E-08	 5.59743000E-09	-4.41455000E+03	 1.01125939E+04	-1.30695536E+04	-3.68710000E+03	-2.35821642E+03
					-2.26212000E+02	-1.98053000E+02	-1.14841000E+03	-8.40704000E-08	-9.33143000E-09	-1.87356000E+02	 9.91219989E+02	-1.18502031E+03	-1.98053000E+02	-1.89601689E+02
					-4.68157000E+03	-3.68710000E+03	-1.07462000E+04	-7.87918000E-08	 5.59705000E-09	-4.41455000E+03	 1.01125939E+04	-1.30695536E+04	-3.68710000E+03	-2.35821642E+03
					-1.25007000E+02	-1.60648000E+02	-1.00614000E+03	-8.12539000E-08	-2.72583000E-08	-1.92825000E+02	 9.26177966E+02	-1.04648963E+03	-1.60648000E+02	-8.46573726E+01
					-5.19070000E+03	-3.35328000E+03	-9.05367000E+03	-8.67014000E-08	-3.06330000E-08	-4.61856000E+03	 9.45461989E+03	-1.21283543E+04	-3.35328000E+03	-2.11601573E+03
					-1.25007000E+02	-1.60648000E+02	-1.00614000E+03	-8.12544000E-08	-2.72587000E-08	-1.92825000E+02	 9.26177966E+02	-1.04648963E+03	-1.60648000E+02	-8.46573726E+01
					-5.19070000E+03	-3.35328000E+03	-9.05367000E+03	-8.67054000E-08	-3.06312000E-08	-4.61856000E+03	 9.45461989E+03	-1.21283543E+04	-3.35328000E+03	-2.11601573E+03
					-1.48206000E+01	-1.14557000E+02	-8.29672000E+02	-5.49929000E-08	-5.47402000E-08	-1.78008000E+02	 8.29289065E+02	-8.66861357E+02	-1.14557000E+02	 2.23687572E+01
					-5.47811000E+03	-2.96782000E+03	-7.35942000E+03	-5.34398000E-08	-6.11548000E-08	-4.47376000E+03	 8.63754030E+03	-1.09903468E+04	-2.96782000E+03	-1.84718318E+03
					-1.48206000E+01	-1.14557000E+02	-8.29672000E+02	-5.49865000E-08	-5.47410000E-08	-1.78008000E+02	 8.29289065E+02	-8.66861357E+02	-1.14557000E+02	 2.23687572E+01
					-5.47811000E+03	-2.96782000E+03	-7.35942000E+03	-5.34449000E-08	-6.11547000E-08	-4.47376000E+03	 8.63754030E+03	-1.09903468E+04	-2.96782000E+03	-1.84718318E+03
					 9.14073000E+01	-6.66890000E+01	-6.41987000E+02	-1.49509000E-08	-7.40945000E-08	-1.45315000E+02	 7.14327699E+02	-6.69730275E+02	-6.66890000E+01	 1.19150575E+02
					-5.54634000E+03	-2.58576000E+03	-5.84777000E+03	-8.46387000E-09	-5.53312000E-08	-4.09440000E+03	 7.74858927E+03	-9.79422797E+03	-2.58576000E+03	-1.59988203E+03
					 9.14073000E+01	-6.66890000E+01	-6.41987000E+02	-1.49514000E-08	-7.40915000E-08	-1.45315000E+02	 7.14327699E+02	-6.69730275E+02	-6.66890000E+01	 1.19150575E+02
					-5.54634000E+03	-2.58576000E+03	-5.84777000E+03	-8.46399000E-09	-5.53319000E-08	-4.09440000E+03	 7.74858927E+03	-9.79422797E+03	-2.58576000E+03	-1.59988203E+03
					 2.04105000E+02	-2.31440000E+01	-4.86700000E+02	-2.63756000E-08	-3.82797000E-08	-9.85796000E+01	 6.33263550E+02	-5.00492189E+02	-2.31440000E+01	 2.17897189E+02
					-5.40179000E+03	-2.22821000E+03	-4.59023000E+03	 0.00000000E+00	-9.25563000E-09	-3.59980000E+03	 6.85786914E+03	-8.61860816E+03	-2.22821000E+03	-1.37341184E+03
					 2.04105000E+02	-2.31440000E+01	-4.86700000E+02	-2.63783000E-08	-3.82834000E-08	-9.85796000E+01	 6.33263550E+02	-5.00492189E+02	-2.31440000E+01	 2.17897189E+02
					-5.40179000E+03	-2.22821000E+03	-4.59023000E+03	 0.00000000E+00	-9.24895000E-09	-3.59980000E+03	 6.85786914E+03	-8.61860816E+03	-2.22821000E+03	-1.37341184E+03
					 3.34053000E+02	 1.61344000E+01	-3.76634000E+02	-2.38913000E-08	-9.40391000E-09	-5.57177000E+01	 6.24116190E+02	-3.80975731E+02	 1.61344000E+01	 3.38394731E+02
					-5.05130000E+03	-1.89168000E+03	-3.57348000E+03	-7.75641000E-09	 1.39151000E-08	-3.05739000E+03	 5.96160228E+03	-7.45780279E+03	-1.89168000E+03	-1.16697721E+03
					 3.34053000E+02	 1.61344000E+01	-3.76634000E+02	-2.38908000E-08	-9.39946000E-09	-5.57177000E+01	 6.24116190E+02	-3.80975731E+02	 1.61344000E+01	 3.38394731E+02
					-5.05130000E+03	-1.89168000E+03	-3.57348000E+03	-7.76541000E-09	 1.39104000E-08	-3.05739000E+03	 5.96160228E+03	-7.45780279E+03	-1.89168000E+03	-1.16697721E+03
					 4.64384000E+02	 5.00740000E+01	-3.00258000E+02	 0.00000000E+00	 1.18670000E-09	-2.93476000E+01	 6.64917425E+02	-3.01382731E+02	 5.00740000E+01	 4.65508731E+02
					-4.49541000E+03	-1.56101000E+03	-2.73824000E+03	 5.55936000E-09	 8.22779000E-09	-2.50955000E+03	 5.04337523E+03	-6.27572568E+03	-1.56101000E+03	-9.57924324E+02
					 4.64384000E+02	 5.00740000E+01	-3.00258000E+02	 0.00000000E+00	 1.18553000E-09	-2.93476000E+01	 6.64917425E+02	-3.01382731E+02	 5.00740000E+01	 4.65508731E+02
					-4.49541000E+03	-1.56101000E+03	-2.73824000E+03	 5.56242000E-09	 8.22241000E-09	-2.50955000E+03	 5.04337523E+03	-6.27572568E+03	-1.56101000E+03	-9.57924324E+02
					 5.62647000E+02	 7.51634000E+01	-2.43230000E+02	 1.95808000E-08	 9.40436000E-09	-1.72016000E+01	 7.03643279E+02	-2.43597004E+02	 7.51634000E+01	 5.63014004E+02
					-3.78812000E+03	-1.24280000E+03	-2.06262000E+03	 3.14955000E-08	 2.15027000E-08	-1.98126000E+03	 4.10368469E+03	-5.08632552E+03	-1.24280000E+03	-7.64414482E+02
					 5.62647000E+02	 7.51634000E+01	-2.43230000E+02	 1.95686000E-08	 9.40623000E-09	-1.72016000E+01	 7.03643279E+02	-2.43597004E+02	 7.51634000E+01	 5.63014004E+02
					-3.78812000E+03	-1.24280000E+03	-2.06262000E+03	 3.14890000E-08	 2.15000000E-08	-1.98126000E+03	 4.10368469E+03	-5.08632552E+03	-1.24280000E+03	-7.64414482E+02
					 6.09614000E+02	 9.02813000E+01	-1.91825000E+02	 2.36688000E-08	 4.60939000E-08	-1.19623000E+01	 7.04433626E+02	-1.92003510E+02	 9.02813000E+01	 6.09792510E+02
					-3.00548000E+03	-9.45621000E+02	-1.51216000E+03	 3.48017000E-08	 5.35788000E-08	-1.50677000E+03	 3.19500588E+03	-3.94044332E+03	-9.45621000E+02	-5.77196681E+02
					 6.09614000E+02	 9.02813000E+01	-1.91825000E+02	 2.36692000E-08	 4.60966000E-08	-1.19623000E+01	 7.04433626E+02	-1.92003510E+02	 9.02813000E+01	 6.09792510E+02
					-3.00548000E+03	-9.45621000E+02	-1.51216000E+03	 3.48155000E-08	 5.35774000E-08	-1.50677000E+03	 3.19500588E+03	-3.94044332E+03	-9.45621000E+02	-5.77196681E+02
					 6.11316000E+02	 9.66786000E+01	-1.45360000E+02	 2.50841000E-08	 7.01159000E-08	-6.49888000E+00	 6.69420017E+02	-1.45415813E+02	 9.66786000E+01	 6.11371813E+02
					-2.23597000E+03	-6.84927000E+02	-1.07839000E+03	 3.07338000E-08	 6.90741000E-08	-1.09981000E+03	 2.36199399E+03	-2.89999129E+03	-6.84927000E+02	-4.14368711E+02
					 6.11316000E+02	 9.66786000E+01	-1.45360000E+02	 2.50690000E-08	 7.01248000E-08	-6.49888000E+00	 6.69420017E+02	-1.45415813E+02	 9.66786000E+01	 6.11371813E+02
					-2.23597000E+03	-6.84927000E+02	-1.07839000E+03	 3.07266000E-08	 6.90751000E-08	-1.09981000E+03	 2.36199399E+03	-2.89999129E+03	-6.84927000E+02	-4.14368711E+02
					 5.93578000E+02	 9.87216000E+01	-1.06663000E+02	 2.70836000E-08	 6.63182000E-08	 5.09139000E-01	 6.23459984E+02	-1.06663370E+02	 9.87216000E+01	 5.93578370E+02
					-1.51370000E+03	-4.59326000E+02	-7.33247000E+02	 1.43208000E-08	 4.98414000E-08	-7.61425000E+02	 1.62395387E+03	-1.97906964E+03	-4.59326000E+02	-2.67877362E+02
					 5.93578000E+02	 9.87216000E+01	-1.06663000E+02	 2.70657000E-08	 6.63161000E-08	 5.09139000E-01	 6.23459984E+02	-1.06663370E+02	 9.87216000E+01	 5.93578370E+02
					-1.51370000E+03	-4.59326000E+02	-7.33247000E+02	 1.43288000E-08	 4.98383000E-08	-7.61425000E+02	 1.62395387E+03	-1.97906964E+03	-4.59326000E+02	-2.67877362E+02
					 5.69701000E+02	 9.80565000E+01	-7.98579000E+01	 4.16935000E-08	 4.55969000E-08	 1.25668000E+01	 5.81797379E+02	-8.01009348E+01	 9.80565000E+01	 5.69944035E+02
					-8.51417000E+02	-2.67633000E+02	-4.69897000E+02	 1.04239000E-09	 2.70104000E-08	-4.72639000E+02	 9.66332691E+02	-1.17034024E+03	-2.67633000E+02	-1.50973763E+02
					 5.69701000E+02	 9.80565000E+01	-7.98579000E+01	 4.16903000E-08	 4.55909000E-08	 1.25668000E+01	 5.81797379E+02	-8.01009348E+01	 9.80565000E+01	 5.69944035E+02
					-8.51417000E+02	-2.67633000E+02	-4.69897000E+02	 1.05482000E-09	 2.70334000E-08	-4.72639000E+02	 9.66332691E+02	-1.17034024E+03	-2.67633000E+02	-1.50973763E+02
					 5.32953000E+02	 9.58453000E+01	-5.12541000E+01	 7.72313000E-08	 3.98601000E-09	 3.20076000E+01	 5.29219345E+02	-5.30025032E+01	 9.58453000E+01	 5.34701403E+02
					-2.72397000E+02	-1.05675000E+02	-2.53130000E+02	 3.58845000E-08	-7.82662000E-09	-2.29918000E+02	 4.28418102E+02	-4.92883232E+02	-1.05675000E+02	-3.26437680E+01
					 5.32953000E+02	 9.58453000E+01	-5.12541000E+01	 7.72156000E-08	 3.97478000E-09	 3.20076000E+01	 5.29219345E+02	-5.30025032E+01	 9.58453000E+01	 5.34701403E+02
					-2.72397000E+02	-1.05675000E+02	-2.53130000E+02	 3.58717000E-08	-7.80205000E-09	-2.29918000E+02	 4.28418102E+02	-4.92883232E+02	-1.05675000E+02	-3.26437680E+01
					 4.61958000E+02	 8.85744000E+01	-1.60784000E+01	 1.04673000E-07	-1.21211000E-08	 5.87478000E+01	 4.46986658E+02	-2.31922864E+01	 8.85744000E+01	 4.69071886E+02
					 1.39630000E+02	 1.03717000E+01	-8.71868000E+01	 6.64688000E-08	-2.99984000E-08	-4.11344000E+01	 2.09551262E+02	-9.44163047E+01	 1.03717000E+01	 1.46859505E+02
					 4.61958000E+02	 8.85744000E+01	-1.60784000E+01	 1.04659000E-07	-1.21007000E-08	 5.87478000E+01	 4.46986658E+02	-2.31922864E+01	 8.85744000E+01	 4.69071886E+02
					 1.39630000E+02	 1.03717000E+01	-8.71868000E+01	 6.64627000E-08	-3.00022000E-08	-4.11344000E+01	 2.09551262E+02	-9.44163047E+01	 1.03717000E+01	 1.46859505E+02
					 3.51518000E+02	 7.48611000E+01	 2.49955000E+01	 1.15006000E-07	-2.05233000E-08	 7.83388000E+01	 3.33514892E+02	 7.17333459E+00	 7.48611000E+01	 3.69340165E+02
					 3.11184000E+02	 6.68614000E+01	 2.47941000E+01	 6.45767000E-08	-3.88358000E-08	 6.33837000E+01	 2.89471351E+02	 1.13931141E+01	 6.68614000E+01	 3.24584986E+02
					 3.51518000E+02	 7.48611000E+01	 2.49955000E+01	 1.15017000E-07	-2.05119000E-08	 7.83388000E+01	 3.33514892E+02	 7.17333459E+00	 7.48611000E+01	 3.69340165E+02
					 3.11184000E+02	 6.68614000E+01	 2.47941000E+01	 6.45724000E-08	-3.88241000E-08	 6.33837000E+01	 2.89471351E+02	 1.13931141E+01	 6.68614000E+01	 3.24584986E+02
					 2.29769000E+02	 5.47229000E+01	 4.49225000E+01	 1.46623000E-07	-6.76722000E-08	 7.43720000E+01	 2.21463970E+02	 1.87150140E+01	 5.47229000E+01	 2.55976486E+02
					 2.41242000E+02	 5.86120000E+01	 5.30341000E+01	 6.76972000E-08	-1.01186000E-07	 7.09367000E+01	 2.22484984E+02	 2.92925205E+01	 5.86120000E+01	 2.64983579E+02
					 2.29769000E+02	 5.47229000E+01	 4.49225000E+01	 1.46660000E-07	-6.76753000E-08	 7.43720000E+01	 2.21463970E+02	 1.87150140E+01	 5.47229000E+01	 2.55976486E+02
					 2.41242000E+02	 5.86120000E+01	 5.30341000E+01	 6.76375000E-08	-1.01196000E-07	 7.09367000E+01	 2.22484984E+02	 2.92925205E+01	 5.86120000E+01	 2.64983579E+02
					 1.79414000E+02	 5.01071000E+01	 7.17711000E+01	 1.80194000E-07	-1.44238000E-07	 6.04315000E+01	 1.59198609E+02	 4.46684209E+01	 5.01071000E+01	 2.06516679E+02
					 1.44567000E+02	 4.37482000E+01	 7.46512000E+01	 1.00174000E-07	-1.77618000E-07	 6.11048000E+01	 1.38582871E+02	 3.92112921E+01	 4.37482000E+01	 1.80006908E+02
					 1.79414000E+02	 5.01071000E+01	 7.17711000E+01	 1.80183000E-07	-1.44219000E-07	 6.04315000E+01	 1.59198609E+02	 4.46684209E+01	 5.01071000E+01	 2.06516679E+02
					 1.44567000E+02	 4.37482000E+01	 7.46512000E+01	 1.00218000E-07	-1.77633000E-07	 6.11048000E+01	 1.38582871E+02	 3.92112921E+01	 4.37482000E+01	 1.80006908E+02
					 4.79448000E+03	 4.01363000E+03	 1.92677000E+04	 0.00000000E+00	 0.00000000E+00	 6.30675000E+03	 1.84583457E+04	 2.43194317E+03	 4.01363000E+03	 2.16302368E+04
					 1.80426000E+03	 3.30185000E+03	 1.80268000E+04	-1.58950000E-08	 2.56201000E-09	 2.82407000E+03	 1.62802021E+04	 1.32669583E+03	 3.30185000E+03	 1.85043642E+04
					 4.79448000E+03	 4.01363000E+03	 1.92677000E+04	 0.00000000E+00	 0.00000000E+00	 6.30675000E+03	 1.84583457E+04	 2.43194317E+03	 4.01363000E+03	 2.16302368E+04