<?xml version="1.0"?>
<VTKFile type="UnstructuredGrid" version="0.1" byte_order="LittleEndian">
	<UnstructuredGrid>
		<Piece NumberOfPoints="126" NumberOfCells="40">
			<Points>
				<DataArray type="Float64" NumberOfComponents="3" format="ascii">
					 5.00000000E-02	 0.00000000E+00	 0.00000000E+00
					 0.00000000E+00	 0.00000000E+00	 0.00000000E+00
					 0.00000000E+00	 0.00000000E+00	 5.00000000E-02
					 5.00000000E-02	 0.00000000E+00	 5.00000000E-02
					 5.00000000E-02	 3.00000000E-01	 0.00000000E+00
					 0.00000000E+00	 3.00000000E-01	 0.00000000E+00
					 0.00000000E+00	 3.00000000E-01	 5.00000000E-02
					 5.00000000E-02	 3.00000000E-01	 5.00000000E-02
					 0.00000000E+00	 0.00000000E+00	 1.00000000E-01
					 5.00000000E-02	 0.00000000E+00	 1.00000000E-01
					 0.00000000E+00	 3.00000000E-01	 1.00000000E-01
					 5.00000000E-02	 3.00000000E-01	 1.00000000E-01
					 0.00000000E+00	 0.00000000E+00	 1.50000000E-01
					 5.00000000E-02	 0.00000000E+00	 1.50000000E-01
					 0.00000000E+00	 3.00000000E-01	 1.50000000E-01
					 5.00000000E-02	 3.00000000E-01	 1.50000000E-01
					 0.00000000E+00	 0.00000000E+00	 2.00000000E-01
					 5.00000000E-02	 0.00000000E+00	 2.00000000E-01
					 0.00000000E+00	 3.00000000E-01	 2.00000000E-01
					 5.00000000E-02	 3.00000000E-01	 2.00000000E-01
					 0.00000000E+00	 0.00000000E+00	 2.50000000E-01
					 5.00000000E-02	 0.00000000E+00	 2.50000000E-01
					 0.00000000E+00	 3.00000000E-01	 2.50000000E-01
					 5.00000000E-02	 3.00000000E-01	 2.50000000E-01
					 0.00000000E+00	 0.00000000E+00	 3.00000000E-01
					 5.00000000E-02	 0.00000000E+00	 3.00000000E-01
					 0.00000000E+00	 3.00000000E-01	 3.00000000E-01
					 5.00000000E-02	 3.00000000E-01	 3.00000000E-01
					 0.00000000E+00	 0.00000000E+00	 3.50000000E-01
					 5.00000000E-02	 0.00000000E+00	 3.50000000E-01
					 0.00000000E+00	 3.00000000E-01	 3.50000000E-01
					 5.00000000E-02	 3.00000000E-01	 3.50000000E-01
					 0.00000000E+00	 0.00000000E+00	 4.00000000E-01
					 5.00000000E-02	 0.00000000E+00	 4.00000000E-01
					 0.00000000E+00	 3.00000000E-01	 4.00000000E-01
					 5.00000000E-02	 3.00000000E-01	 4.00000000E-01
					 0.00000000E+00	 0.00000000E+00	 4.50000000E-01
					 5.00000000E-02	 0.00000000E+00	 4.50000000E-01
					 0.00000000E+00	 3.00000000E-01	 4.50000000E-01
					 5.00000000E-02	 3.00000000E-01	 4.50000000E-01
					 0.00000000E+00	 0.00000000E+00	 5.00000000E-01
					 5.00000000E-02	 0.00000000E+00	 5.00000000E-01
					 0.00000000E+00	 3.00000000E-01	 5.00000000E-01
					 5.00000000E-02	 3.00000000E-01	 5.00000000E-01
					 0.00000000E+00	 0.00000000E+00	 5.50000000E-01
					 5.00000000E-02	 0.00000000E+00	 5.50000000E-01
					 0.00000000E+00	 3.00000000E-01	 5.50000000E-01
					 5.00000000E-02	 3.00000000E-01	 5.50000000E-01
					 0.00000000E+00	 0.00000000E+00	 6.00000000E-01
					 5.00000000E-02	 0.00000000E+00	 6.00000000E-01
					 0.00000000E+00	 3.00000000E-01	 6.00000000E-01
					 5.00000000E-02	 3.00000000E-01	 6.00000000E-01
					 0.00000000E+00	 0.00000000E+00	 6.50000000E-01
					 5.00000000E-02	 0.00000000E+00	 6.50000000E-01
					 0.00000000E+00	 3.00000000E-01	 6.50000000E-01
					 5.00000000E-02	 3.00000000E-01	 6.50000000E-01
					 0.00000000E+00	 0.00000000E+00	 7.00000000E-01
					 5.00000000E-02	 0.00000000E+00	 7.00000000E-01
					 0.00000000E+00	 3.00000000E-01	 7.00000000E-01
					 5.00000000E-02	 3.00000000E-01	 7.00000000E-01
					 0.00000000E+00	 0.00000000E+00	 7.50000000E-01
					 5.00000000E-02	 0.00000000E+00	 7.50000000E-01
					 0.00000000E+00	 3.00000000E-01	 7.50000000E-01
					 5.00000000E-02	 3.00000000E-01	 7.50000000E-01
					 0.00000000E+00	 0.00000000E+00	 8.00000000E-01
					 5.00000000E-02	 0.00000000E+00	 8.00000000E-01
					 0.00000000E+00	 3.00000000E-01	 8.00000000E-01
					 5.00000000E-02	 3.00000000E-01	 8.00000000E-01
					 0.00000000E+00	 0.00000000E+00	 8.50000000E-01
					 5.00000000E-02	 0.00000000E+00	 8.50000000E-01
					 0.00000000E+00	 3.00000000E-01	 8.50000000E-01
					 5.00000000E-02	 3.00000000E-01	 8.50000000E-01
					 0.00000000E+00	 0.00000000E+00	 9.00000000E-01
					 5.00000000E-02	 0.00000000E+00	 9.00000000E-01
					 0.00000000E+00	 3.00000000E-01	 9.00000000E-01
					 5.00000000E-02	 3.00000000E-01	 9.00000000E-01
					 0.00000000E+00	 0.00000000E+00	 9.50000000E-01
					 5.00000000E-02	 0.00000000E+00	 9.50000000E-01
					 0.00000000E+00	 3.00000000E-01	 9.50000000E-01
					 5.00000000E-02	 3.00000000E-01	 9.50000000E-01
					 0.00000000E+00	 0.00000000E+00	 1.00000000E+00
					 5.00000000E-02	 0.00000000E+00	 1.00000000E+00
					 0.00000000E+00	 3.00000000E-01	 1.00000000E+00
					 5.00000000E-02	 3.00000000E-01	 1.00000000E+00
					-5.00000000E-02	 0.00000000E+00	 0.00000000E+00
					-5.00000000E-02	 0.00000000E+00	 5.00000000E-02
					-5.00000000E-02	 3.00000000E-01	 0.00000000E+00
					-5.00000000E-02	 3.00000000E-01	 5.00000000E-02
					-5.00000000E-02	 0.00000000E+00	 1.00000000E-01
					-5.00000000E-02	 3.00000000E-01	 1.00000000E-01
					-5.00000000E-02	 0.00000000E+00	 1.50000000E-01
					-5.00000000E-02	 3.00000000E-01	 1.50000000E-01
					-5.00000000E-02	 0.00000000E+00	 2.00000000E-01
					-5.00000000E-02	 3.00000000E-01	 2.00000000E-01
					-5.00000000E-02	 0.00000000E+00	 2.50000000E-01
					-5.00000000E-02	 3.00000000E-01	 2.50000000E-01
					-5.00000000E-02	 0.00000000E+00	 3.00000000E-01
					-5.00000000E-02	 3.00000000E-01	 3.00000000E-01
					-5.00000000E-02	 0.00000000E+00	 3.50000000E-01
					-5.00000000E-02	 3.00000000E-01	 3.50000000E-01
					-5.00000000E-02	 0.00000000E+00	 4.00000000E-01
					-5.00000000E-02	 3.00000000E-01	 4.00000000E-01
					-5.00000000E-02	 0.00000000E+00	 4.50000000E-01
					-5.00000000E-02	 3.00000000E-01	 4.50000000E-01
					-5.00000000E-02	 0.00000000E+00	 5.00000000E-01
					-5.00000000E-02	 3.00000000E-01	 5.00000000E-01
					-5.00000000E-02	 0.00000000E+00	 5.50000000E-01
					-5.00000000E-02	 3.00000000E-01	 5.50000000E-01
					-5.00000000E-02	 0.00000000E+00	 6.00000000E-01
					-5.00000000E-02	 3.00000000E-01	 6.00000000E-01
					-5.00000000E-02	 0.00000000E+00	 6.50000000E-01
					-5.00000000E-02	 3.00000000E-01	 6.50000000E-01
					-5.00000000E-02	 0.00000000E+00	 7.00000000E-01
					-5.00000000E-02	 3.00000000E-01	 7.00000000E-01
					-5.00000000E-02	 0.00000000E+00	 7.50000000E-01
					-5.00000000E-02	 3.00000000E-01	 7.50000000E-01
					-5.00000000E-02	 0.00000000E+00	 8.00000000E-01
					-5.00000000E-02	 3.00000000E-01	 8.00000000E-01
					-5.00000000E-02	 0.00000000E+00	 8.50000000E-01
					-5.00000000E-02	 3.00000000E-01	 8.50000000E-01
					-5.00000000E-02	 0.00000000E+00	 9.00000000E-01
					-5.00000000E-02	 3.00000000E-01	 9.00000000E-01
					-5.00000000E-02	 0.00000000E+00	 9.50000000E-01
					-5.00000000E-02	 3.00000000E-01	 9.50000000E-01
					-5.00000000E-02	 0.00000000E+00	 1.00000000E+00
					-5.00000000E-02	 3.00000000E-01	 1.00000000E+00

				</DataArray>
			</Points>
			<Cells>
				<DataArray type="Int32" Name="connectivity" format="ascii">
					0 1 2 3 4 5 6 7 3 2 8 9 7 6 10 11 9 8 12 13 11 10 14 15 13 12 16 17 15 14 18 19 17 16 20 21 19 18 22 23 21 20 24 25 23 22 26 27 25 24 28 29 27 26 30 31 29 28 32 33 31 30 34 35 33 32 36 37 35 34 38 39 37 36 40 41 39 38 42 43 41 40 44 45 43 42 46 47 45 44 48 49 47 46 50 51 49 48 52 53 51 50 54 55 53 52 56 57 55 54 58 59 57 56 60 61 59 58 62 63 61 60 64 65 63 62 66 67 65 64 68 69 67 66 70 71 69 68 72 73 71 70 74 75 73 72 76 77 75 74 78 79 77 76 80 81 79 78 82 83 1 84 85 2 5 86 87 6 2 85 88 8 6 87 89 10 8 88 90 12 10 89 91 14 12 90 92 16 14 91 93 18 16 92 94 20 18 93 95 22 20 94 96 24 22 95 97 26 24 96 98 28 26 97 99 30 28 98 100 32 30 99 101 34 32 100 102 36 34 101 103 38 36 102 104 40 38 103 105 42 40 104 106 44 42 105 107 46 44 106 108 48 46 107 109 50 48 108 110 52 50 109 111 54 52 110 112 56 54 111 113 58 56 112 114 60 58 113 115 62 60 114 116 64 62 115 117 66 64 116 118 68 66 117 119 70 68 118 120 72 70 119 121 74 72 120 122 76 74 121 123 78 76 122 124 80 78 123 125 82 
				</DataArray>
				<DataArray type="Int32" Name="offsets" format="ascii">
					8 16 24 32 40 48 56 64 72 80 88 96 104 112 120 128 136 144 152 160 168 176 184 192 200 208 216 224 232 240 248 256 264 272 280 288 296 304 312 320 
				</DataArray>
				<DataArray type="UInt8" Name="types" format="ascii">
					12 12 12 12 12 12 12 12 12 12 12 12 12 12 12 12 12 12 12 12 12 12 12 12 12 12 12 12 12 12 12 12 12 12 12 12 12 12 12 12 
				</DataArray>
			</Cells>
			<PointData>
				<DataArray type="Float32" Name="U" NumberOfComponents="3" ComponentName0="D1" ComponentName1="D2" ComponentName2="D3" format="ascii">
					 0.00000000E+00	 0.00000000E+00	 0.00000000E+00
					 0.00000000E+00	 0.00000000E+00	 0.00000000E+00
					 2.94491000E-03	 0.00000000E+00	-1.76069000E-04
					 3.27107000E-03	 0.00000000E+00	-4.78769000E-03
					 0.00000000E+00	 0.00000000E+00	 0.00000000E+00
					 0.00000000E+00	 0.00000000E+00	 0.00000000E+00
					 2.94491000E-03	 0.00000000E+00	-1.76069000E-04
					 3.27107000E-03	 0.00000000E+00	-4.78769000E-03
					 1.03670000E-02	 0.00000000E+00	-6.89196000E-04
					 9.96172000E-03	 0.00000000E+00	-8.96804000E-03
					 1.03670000E-02	 0.00000000E+00	-6.89196000E-04
					 9.96172000E-03	 0.00000000E+00	-8.96804000E-03
					 2.07639000E-02	 0.00000000E+00	-1.73061000E-03
					 1.97844000E-02	 0.00000000E+00	-1.26600000E-02
					 2.07639000E-02	 0.00000000E+00	-1.73061000E-03
					 1.97844000E-02	 0.00000000E+00	-1.26600000E-02
					 3.33372000E-02	 0.00000000E+00	-3.25880000E-03
					 3.18268000E-02	 0.00000000E+00	-1.59549000E-02
					 3.33372000E-02	 0.00000000E+00	-3.25880000E-03
					 3.18268000E-02	 0.00000000E+00	-1.59549000E-02
					 4.72533000E-02	 0.00000000E+00	-5.11742000E-03
					 4.53777000E-02	 0.00000000E+00	-1.87945000E-02
					 4.72533000E-02	 0.00000000E+00	-5.11742000E-03
					 4.53777000E-02	 0.00000000E+00	-1.87945000E-02
					 6.17753000E-02	 0.00000000E+00	-7.12108000E-03
					 5.97236000E-02	 0.00000000E+00	-2.10776000E-02
					 6.17753000E-02	 0.00000000E+00	-7.12108000E-03
					 5.97236000E-02	 0.00000000E+00	-2.10776000E-02
					 7.62367000E-02	 0.00000000E+00	-9.09082000E-03
					 7.41989000E-02	 0.00000000E+00	-2.26996000E-02
					 7.62367000E-02	 0.00000000E+00	-9.09082000E-03
					 7.41989000E-02	 0.00000000E+00	-2.26996000E-02
					 9.00172000E-02	 0.00000000E+00	-1.08715000E-02
					 8.81578000E-02	 0.00000000E+00	-2.35568000E-02
					 9.00172000E-02	 0.00000000E+00	-1.08715000E-02
					 8.81578000E-02	 0.00000000E+00	-2.35568000E-02
					 1.02512000E-01	 0.00000000E+00	-1.23333000E-02
					 1.00948000E-01	 0.00000000E+00	-2.35926000E-02
					 1.02512000E-01	 0.00000000E+00	-1.23333000E-02
					 1.00948000E-01	 0.00000000E+00	-2.35926000E-02
					 1.13218000E-01	 0.00000000E+00	-1.34038000E-02
					 1.12001000E-01	 0.00000000E+00	-2.28825000E-02
					 1.13218000E-01	 0.00000000E+00	-1.34038000E-02
					 1.12001000E-01	 0.00000000E+00	-2.28825000E-02
					 1.21848000E-01	 0.00000000E+00	-1.41022000E-02
					 1.20975000E-01	 0.00000000E+00	-2.16392000E-02
					 1.21848000E-01	 0.00000000E+00	-1.41022000E-02
					 1.20975000E-01	 0.00000000E+00	-2.16392000E-02
					 1.28368000E-01	 0.00000000E+00	-1.45208000E-02
					 1.27783000E-01	 0.00000000E+00	-2.01183000E-02
					 1.28368000E-01	 0.00000000E+00	-1.45208000E-02
					 1.27783000E-01	 0.00000000E+00	-2.01183000E-02
					 1.32904000E-01	 0.00000000E+00	-1.47581000E-02
					 1.32524000E-01	 0.00000000E+00	-1.85326000E-02
					 1.32904000E-01	 0.00000000E+00	-1.47581000E-02
					 1.32524000E-01	 0.00000000E+00	-1.85326000E-02
					 1.35644000E-01	 0.00000000E+00	-1.48836000E-02
					 1.35395000E-01	 0.00000000E+00	-1.70327000E-02
					 1.35644000E-01	 0.00000000E+00	-1.48836000E-02
					 1.35395000E-01	 0.00000000E+00	-1.70327000E-02
					 1.36818000E-01	 0.00000000E+00	-1.49518000E-02
					 1.36655000E-01	 0.00000000E+00	-1.57340000E-02
					 1.36818000E-01	 0.00000000E+00	-1.49518000E-02
					 1.36655000E-01	 0.00000000E+00	-1.57340000E-02
					 1.36741000E-01	 0.00000000E+00	-1.50018000E-02
					 1.36632000E-01	 0.00000000E+00	-1.47230000E-02
					 1.36741000E-01	 0.00000000E+00	-1.50018000E-02
					 1.36632000E-01	 0.00000000E+00	-1.47230000E-02
					 1.35776000E-01	 0.00000000E+00	-1.50492000E-02
					 1.35699000E-01	 0.00000000E+00	-1.40383000E-02
					 1.35776000E-01	 0.00000000E+00	-1.50492000E-02
					 1.35699000E-01	 0.00000000E+00	-1.40383000E-02
					 1.34285000E-01	 0.00000000E+00	-1.50922000E-02
					 1.34228000E-01	 0.00000000E+00	-1.36591000E-02
					 1.34285000E-01	 0.00000000E+00	-1.50922000E-02
					 1.34228000E-01	 0.00000000E+00	-1.36591000E-02
					 1.32572000E-01	 0.00000000E+00	-1.51265000E-02
					 1.32532000E-01	 0.00000000E+00	-1.35167000E-02
					 1.32572000E-01	 0.00000000E+00	-1.51265000E-02
					 1.32532000E-01	 0.00000000E+00	-1.35167000E-02
					 1.30871000E-01	 0.00000000E+00	-1.51398000E-02
					 1.30839000E-01	 0.00000000E+00	-1.35082000E-02
					 1.30871000E-01	 0.00000000E+00	-1.51398000E-02
					 1.30839000E-01	 0.00000000E+00	-1.35082000E-02
					 0.00000000E+00	 0.00000000E+00	 0.00000000E+00
					 3.93703000E-03	 0.00000000E+00	 4.32332000E-03
					 0.00000000E+00	 0.00000000E+00	 0.00000000E+00
					 3.93703000E-03	 0.00000000E+00	 4.32332000E-03
					 1.15370000E-02	 0.00000000E+00	 7.39345000E-03
					 1.15370000E-02	 0.00000000E+00	 7.39345000E-03
					 2.23236000E-02	 0.00000000E+00	 9.01770000E-03
					 2.23236000E-02	 0.00000000E+00	 9.01770000E-03
					 3.52166000E-02	 0.00000000E+00	 9.31432000E-03
					 3.52166000E-02	 0.00000000E+00	 9.31432000E-03
					 4.93153000E-02	 0.00000000E+00	 8.49772000E-03
					 4.93153000E-02	 0.00000000E+00	 8.49772000E-03
					 6.38560000E-02	 0.00000000E+00	 6.82996000E-03
					 6.38560000E-02	 0.00000000E+00	 6.82996000E-03
					 7.81461000E-02	 0.00000000E+00	 4.56396000E-03
					 7.81461000E-02	 0.00000000E+00	 4.56396000E-03
					 9.16112000E-02	 0.00000000E+00	 1.89528000E-03
					 9.16112000E-02	 0.00000000E+00	 1.89528000E-03
					 1.03694000E-01	 0.00000000E+00	-9.75476000E-04
					 1.03694000E-01	 0.00000000E+00	-9.75476000E-04
					 1.13990000E-01	 0.00000000E+00	-3.83980000E-03
					 1.13990000E-01	 0.00000000E+00	-3.83980000E-03
					 1.22250000E-01	 0.00000000E+00	-6.51022000E-03
					 1.22250000E-01	 0.00000000E+00	-6.51022000E-03
					 1.28503000E-01	 0.00000000E+00	-8.89134000E-03
					 1.28503000E-01	 0.00000000E+00	-8.89134000E-03
					 1.32875000E-01	 0.00000000E+00	-1.09640000E-02
					 1.32875000E-01	 0.00000000E+00	-1.09640000E-02
					 1.35548000E-01	 0.00000000E+00	-1.27329000E-02
					 1.35548000E-01	 0.00000000E+00	-1.27329000E-02
					 1.36702000E-01	 0.00000000E+00	-1.41833000E-02
					 1.36702000E-01	 0.00000000E+00	-1.41833000E-02
					 1.36654000E-01	 0.00000000E+00	-1.52937000E-02
					 1.36654000E-01	 0.00000000E+00	-1.52937000E-02
					 1.35738000E-01	 0.00000000E+00	-1.60634000E-02
					 1.35738000E-01	 0.00000000E+00	-1.60634000E-02
					 1.34298000E-01	 0.00000000E+00	-1.65241000E-02
					 1.34298000E-01	 0.00000000E+00	-1.65241000E-02
					 1.32610000E-01	 0.00000000E+00	-1.67360000E-02
					 1.32610000E-01	 0.00000000E+00	-1.67360000E-02
					 1.30911000E-01	 0.00000000E+00	-1.67918000E-02
					 1.30911000E-01	 0.00000000E+00	-1.67918000E-02
				</DataArray>
				<DataArray type="Float32" Name="S" NumberOfComponents="10" ComponentName0="xx" ComponentName1="yy" ComponentName2="zz" ComponentName3="xy" ComponentName4="yz" ComponentName5="zx" ComponentName6="Mises" ComponentName7="Min Principal" ComponentName8="Mid Principal" ComponentName9="Max Principal" format="ascii">
					-2.94245000E+03	-3.27863000E+03	-1.11436000E+04	 0.00000000E+00	 0.00000000E+00	 2.51480000E+03	 9.14261849E+03	-1.18533196E+04	-3.27863000E+03	-2.23273038E+03
					 2.06463000E+02	-5.92258000E+01	-6.75927000E+02	 0.00000000E+00	 0.00000000E+00	 2.89663000E+03	 5.07800725E+03	-3.16476927E+03	-5.92258000E+01	 2.69530527E+03
					-4.68502000E+01	-1.02237000E+02	-6.23888000E+02	 1.68602000E-08	-1.50281000E-08	 5.84291000E+02	 1.15250508E+03	-9.87012506E+02	-1.02237000E+02	 3.16274306E+02
					-1.23727000E+03	-2.49802000E+03	-9.73211000E+03	 4.02753000E-08	-3.47006000E-08	-6.94974000E+01	 7.94080710E+03	-9.73267853E+03	-2.49802000E+03	-1.23670147E+03
					-2.94245000E+03	-3.27863000E+03	-1.11436000E+04	 0.00000000E+00	 0.00000000E+00	 2.51480000E+03	 9.14261849E+03	-1.18533196E+04	-3.27863000E+03	-2.23273038E+03
					 2.06463000E+02	-5.92258000E+01	-6.75927000E+02	 0.00000000E+00	 0.00000000E+00	 2.89663000E+03	 5.07800725E+03	-3.16476927E+03	-5.92258000E+01	 2.69530527E+03
					-4.68502000E+01	-1.02237000E+02	-6.23888000E+02	 1.68601000E-08	-1.50281000E-08	 5.84291000E+02	 1.15250508E+03	-9.87012506E+02	-1.02237000E+02	 3.16274306E+02
					-1.23727000E+03	-2.49802000E+03	-9.73211000E+03	 4.02754000E-08	-3.47007000E-08	-6.94974000E+01	 7.94080710E+03	-9.73267853E+03	-2.49802000E+03	-1.23670147E+03
					 5.30525000E+01	-4.55423000E+01	-4.05341000E+02	 4.26588000E-08	-2.89966000E-08	 6.80081000E+02	 1.24987232E+03	-8.93808041E+02	-4.55423000E+01	 5.41519541E+02
					-1.34278000E+03	-1.98119000E+03	-7.64519000E+03	 6.10962000E-08	-6.19989000E-08	-5.50284000E+02	 6.08381911E+03	-7.69287628E+03	-1.98119000E+03	-1.29509372E+03
					 5.30525000E+01	-4.55423000E+01	-4.05341000E+02	 4.26586000E-08	-2.89966000E-08	 6.80081000E+02	 1.24987232E+03	-8.93808041E+02	-4.55423000E+01	 5.41519541E+02
					-1.34278000E+03	-1.98119000E+03	-7.64519000E+03	 6.10962000E-08	-6.19987000E-08	-5.50284000E+02	 6.08381911E+03	-7.69287628E+03	-1.98119000E+03	-1.29509372E+03
					 1.62899000E+02	-1.09114000E+01	-2.72450000E+02	 1.34961000E-07	-3.14171000E-08	 6.00565000E+02	 1.10729652E+03	-6.93571639E+02	-1.09114000E+01	 5.84020639E+02
					-8.53163000E+02	-1.34937000E+03	-5.44353000E+03	 9.65149000E-08	-7.67370000E-08	-5.11495000E+02	 4.45250488E+03	-5.49983421E+03	-1.34937000E+03	-7.96858794E+02
					 1.62899000E+02	-1.09114000E+01	-2.72450000E+02	 1.34962000E-07	-3.14171000E-08	 6.00565000E+02	 1.10729652E+03	-6.93571639E+02	-1.09114000E+01	 5.84020639E+02
					-8.53163000E+02	-1.34937000E+03	-5.44353000E+03	 9.65161000E-08	-7.67369000E-08	-5.11495000E+02	 4.45250488E+03	-5.49983421E+03	-1.34937000E+03	-7.96858794E+02
					 2.11389000E+02	 1.60174000E+01	-1.48602000E+02	 1.07227000E-07	-3.32474000E-08	 5.78148000E+02	 1.04890271E+03	-5.74125690E+02	 1.60174000E+01	 6.36912690E+02
					-5.05787000E+02	-8.26070000E+02	-3.44541000E+03	 1.12682000E-07	-3.40180000E-08	-2.86047000E+02	 2.83688596E+03	-3.47298580E+03	-8.26070000E+02	-4.78211198E+02
					 2.11389000E+02	 1.60174000E+01	-1.48602000E+02	 1.07228000E-07	-3.32473000E-08	 5.78148000E+02	 1.04890271E+03	-5.74125690E+02	 1.60174000E+01	 6.36912690E+02
					-5.05787000E+02	-8.26070000E+02	-3.44541000E+03	 1.12680000E-07	-3.40178000E-08	-2.86047000E+02	 2.83688596E+03	-3.47298580E+03	-8.26070000E+02	-4.78211198E+02
					 2.32743000E+02	 4.05963000E+01	-2.63199000E+01	 1.00141000E-07	-3.44123000E-08	 5.58976000E+02	 9.95800364E+02	-4.70576360E+02	 4.05963000E+01	 6.76999460E+02
					-1.34345000E+02	-3.50639000E+02	-1.57459000E+03	 6.58334000E-08	-3.11710000E-08	 7.29627000E+01	 1.35112659E+03	-1.57827685E+03	-3.50639000E+02	-1.30658153E+02
					 2.32743000E+02	 4.05963000E+01	-2.63199000E+01	 1.00139000E-07	-3.44126000E-08	 5.58976000E+02	 9.95800364E+02	-4.70576360E+02	 4.05963000E+01	 6.76999460E+02
					-1.34345000E+02	-3.50639000E+02	-1.57459000E+03	 6.58384000E-08	-3.11701000E-08	 7.29627000E+01	 1.35112659E+03	-1.57827685E+03	-3.50639000E+02	-1.30658153E+02
					 2.09656000E+02	 5.08857000E+01	 5.42443000E+01	 1.22528000E-07	-1.69483000E-08	 5.39584000E+02	 9.47701810E+02	-4.13200372E+02	 5.08857000E+01	 6.77100672E+02
					 2.04727000E+02	 6.61333000E+01	 1.44478000E+02	 8.27336000E-08	-4.55966000E-08	 4.67298000E+02	 8.18284966E+02	-2.93665486E+02	 6.61333000E+01	 6.42870486E+02
					 2.09656000E+02	 5.08857000E+01	 5.42443000E+01	 1.22529000E-07	-1.69481000E-08	 5.39584000E+02	 9.47701810E+02	-4.13200372E+02	 5.08857000E+01	 6.77100672E+02
					 2.04727000E+02	 6.61333000E+01	 1.44478000E+02	 8.27318000E-08	-4.55969000E-08	 4.67298000E+02	 8.18284966E+02	-2.93665486E+02	 6.61333000E+01	 6.42870486E+02
					 1.79096000E+02	 5.24188000E+01	 8.65423000E+01	 1.29526000E-07	-4.68428000E-08	 4.96011000E+02	 8.66585018E+02	-3.65345942E+02	 5.24188000E+01	 6.30984242E+02
					 4.93163000E+02	 4.29885000E+02	 1.72664000E+03	 2.03402000E-07	-1.80183000E-08	 8.22985000E+02	 1.90668154E+03	 8.14703221E+01	 4.29885000E+02	 2.13833268E+03
					 1.79096000E+02	 5.24188000E+01	 8.65423000E+01	 1.29524000E-07	-4.68431000E-08	 4.96011000E+02	 8.66585018E+02	-3.65345942E+02	 5.24188000E+01	 6.30984242E+02
					 4.93163000E+02	 4.29885000E+02	 1.72664000E+03	 2.03406000E-07	-1.80191000E-08	 8.22985000E+02	 1.90668154E+03	 8.14703221E+01	 4.29885000E+02	 2.13833268E+03
					 1.12419000E+02	 3.85328000E+01	 7.02678000E+01	 5.16707000E-08	-5.08386000E-08	 4.17348000E+02	 7.25713140E+02	-3.26536408E+02	 3.85328000E+01	 5.09223208E+02
					 6.95569000E+02	 7.38601000E+02	 3.16720000E+03	 6.87420000E-08	 4.65049000E-08	 1.06633000E+03	 3.06849007E+03	 2.99116256E+02	 7.38601000E+02	 3.56365274E+03
					 1.12419000E+02	 3.85328000E+01	 7.02678000E+01	 5.16712000E-08	-5.08380000E-08	 4.17348000E+02	 7.25713140E+02	-3.26536408E+02	 3.85328000E+01	 5.09223208E+02
					 6.95569000E+02	 7.38601000E+02	 3.16720000E+03	 6.87410000E-08	 4.65040000E-08	 1.06633000E+03	 3.06849007E+03	 2.99116256E+02	 7.38601000E+02	 3.56365274E+03
					 2.81898000E+01	 1.87746000E+01	 4.02420000E+01	-2.24289000E-08	-1.30689000E-08	 2.94652000E+02	 5.10692450E+02	-2.60497715E+02	 1.87746000E+01	 3.28929515E+02
					 7.78531000E+02	 9.69146000E+02	 4.34459000E+03	-9.25259000E-09	 3.88130000E-08	 1.12814000E+03	 3.98641018E+03	 4.51609302E+02	 9.69146000E+02	 4.67151170E+03
					 2.81898000E+01	 1.87746000E+01	 4.02420000E+01	-2.24364000E-08	-1.30690000E-08	 2.94652000E+02	 5.10692450E+02	-2.60497715E+02	 1.87746000E+01	 3.28929515E+02
					 7.78531000E+02	 9.69146000E+02	 4.34459000E+03	-9.25185000E-09	 3.88137000E-08	 1.12814000E+03	 3.98641018E+03	 4.51609302E+02	 9.69146000E+02	 4.67151170E+03
					-7.13916000E+01	-6.16849000E+00	 2.55188000E+00	-4.26179000E-08	 0.00000000E+00	 1.48636000E+02	 2.66789899E+02	-1.87585032E+02	-6.16849000E+00	 1.18745312E+02
					 7.50961000E+02	 1.09506000E+03	 5.07092000E+03	-3.03680000E-08	 2.35808000E-08	 9.94559000E+02	 4.50126639E+03	 5.32987800E+02	 1.09506000E+03	 5.28889320E+03
					-7.13916000E+01	-6.16849000E+00	 2.55188000E+00	-4.26223000E-08	 0.00000000E+00	 1.48636000E+02	 2.66789899E+02	-1.87585032E+02	-6.16849000E+00	 1.18745312E+02
					 7.50961000E+02	 1.09506000E+03	 5.07092000E+03	-3.03632000E-08	 2.35809000E-08	 9.94559000E+02	 4.50126639E+03	 5.32987800E+02	 1.09506000E+03	 5.28889320E+03
					-1.05370000E+02	-2.13984000E+01	-4.58670000E+01	-8.00895000E-08	 1.32021000E-08	 8.33797000E+00	 7.61829360E+01	-1.06516291E+02	-4.47207089E+01	-2.13984000E+01
					 6.86707000E+02	 1.12079000E+03	 5.27188000E+03	-6.78242000E-08	 3.30067000E-08	 7.30393000E+02	 4.56314756E+03	 5.73170728E+02	 1.12079000E+03	 5.38541627E+03
					-1.05370000E+02	-2.13984000E+01	-4.58670000E+01	-8.00847000E-08	 1.32022000E-08	 8.33797000E+00	 7.61829360E+01	-1.06516291E+02	-4.47207089E+01	-2.13984000E+01
					 6.86707000E+02	 1.12079000E+03	 5.27188000E+03	-6.78165000E-08	 3.30052000E-08	 7.30393000E+02	 4.56314756E+03	 5.73170728E+02	 1.12079000E+03	 5.38541627E+03
					-1.11930000E+02	-3.70040000E+01	-1.16279000E+02	-9.81306000E-08	 2.31377000E-08	-9.05378000E+01	 1.74785446E+02	-2.04668409E+02	-3.70040000E+01	-2.35405906E+01
					 6.15467000E+02	 1.06783000E+03	 5.03781000E+03	-9.39039000E-08	 2.87049000E-08	 4.38811000E+02	 4.28239545E+03	 5.72346040E+02	 1.06783000E+03	 5.08093096E+03
					-1.11930000E+02	-3.70040000E+01	-1.16279000E+02	-9.81306000E-08	 2.31387000E-08	-9.05378000E+01	 1.74785446E+02	-2.04668409E+02	-3.70040000E+01	-2.35405906E+01
					 6.15467000E+02	 1.06783000E+03	 5.03781000E+03	-9.39040000E-08	 2.87034000E-08	 4.38811000E+02	 4.28239545E+03	 5.72346040E+02	 1.06783000E+03	 5.08093096E+03
					-1.07983000E+02	-4.86411000E+01	-1.71213000E+02	-4.92853000E-08	 3.79255000E-08	-1.51376000E+02	 2.82870575E+02	-2.94240173E+02	-4.86411000E+01	 1.50441728E+01
					 5.28155000E+02	 9.61424000E+02	 4.53060000E+03	-7.97513000E-08	 4.63304000E-09	 1.85410000E+02	 3.81788990E+03	 5.19584386E+02	 9.61424000E+02	 4.53917061E+03
					-1.07983000E+02	-4.86411000E+01	-1.71213000E+02	-4.92917000E-08	 3.79258000E-08	-1.51376000E+02	 2.82870575E+02	-2.94240173E+02	-4.86411000E+01	 1.50441728E+01
					 5.28155000E+02	 9.61424000E+02	 4.53060000E+03	-7.97484000E-08	 4.63295000E-09	 1.85410000E+02	 3.81788990E+03	 5.19584386E+02	 9.61424000E+02	 4.53917061E+03
					-1.11860000E+02	-5.53909000E+01	-1.91381000E+02	 4.36960000E-08	 3.90294000E-08	-1.95444000E+02	 3.58605493E+02	-3.51067873E+02	-5.53909000E+01	 4.78268727E+01
					 4.37845000E+02	 8.23558000E+02	 3.86444000E+03	 5.19950000E-08	-1.86610000E-08	-1.35620000E+01	 3.25103020E+03	 4.37791324E+02	 8.23558000E+02	 3.86449368E+03
					-1.11860000E+02	-5.53909000E+01	-1.91381000E+02	 4.36940000E-08	 3.90290000E-08	-1.95444000E+02	 3.58605493E+02	-3.51067873E+02	-5.53909000E+01	 4.78268727E+01
					 4.37845000E+02	 8.23558000E+02	 3.86444000E+03	 5.20002000E-08	-1.86608000E-08	-1.35620000E+01	 3.25103020E+03	 4.37791324E+02	 8.23558000E+02	 3.86449368E+03
					-7.49615000E+01	-4.67818000E+01	-1.75661000E+02	 1.24951000E-07	 7.39195000E-09	-2.27348000E+02	 4.10893546E+02	-3.58167881E+02	-4.67818000E+01	 1.07545381E+02
					 3.63259000E+02	 6.65905000E+02	 3.08640000E+03	 1.31160000E-07	 1.90502000E-09	-1.48079000E+02	 2.59783101E+03	 3.55230428E+02	 6.65905000E+02	 3.09442857E+03
					-7.49615000E+01	-4.67818000E+01	-1.75661000E+02	 1.24954000E-07	 7.39274000E-09	-2.27348000E+02	 4.10893546E+02	-3.58167881E+02	-4.67818000E+01	 1.07545381E+02
					 3.63259000E+02	 6.65905000E+02	 3.08640000E+03	 1.31167000E-07	 1.90527000E-09	-1.48079000E+02	 2.59783101E+03	 3.55230428E+02	 6.65905000E+02	 3.09442857E+03
					-4.65421000E+01	-3.64102000E+01	-1.44395000E+02	 9.76770000E-08	 1.94895000E-09	-2.34911000E+02	 4.19784248E+02	-3.35420577E+02	-3.64102000E+01	 1.44483477E+02
					 2.88994000E+02	 4.93506000E+02	 2.24434000E+03	 7.94288000E-08	 3.06844000E-08	-2.09860000E+02	 1.89669056E+03	 2.66724144E+02	 4.93506000E+02	 2.26660986E+03
					-4.65421000E+01	-3.64102000E+01	-1.44395000E+02	 9.76732000E-08	 1.94772000E-09	-2.34911000E+02	 4.19784248E+02	-3.35420577E+02	-3.64102000E+01	 1.44483477E+02
					 2.88994000E+02	 4.93506000E+02	 2.24434000E+03	 7.94144000E-08	 3.06837000E-08	-2.09860000E+02	 1.89669056E+03	 2.66724144E+02	 4.93506000E+02	 2.26660986E+03
					-3.21621000E+01	-2.58735000E+01	-1.00741000E+02	 4.92226000E-08	 0.00000000E+00	-2.14397000E+02	 3.78248725E+02	-2.83573267E+02	-2.58735000E+01	 1.50670167E+02
					 1.95769000E+02	 3.18604000E+02	 1.42542000E+03	 5.91015000E-08	 5.55549000E-08	-2.06916000E+02	 1.22659224E+03	 1.61884529E+02	 3.18604000E+02	 1.45930447E+03
					-3.21621000E+01	-2.58735000E+01	-1.00741000E+02	 4.92221000E-08	 0.00000000E+00	-2.14397000E+02	 3.78248725E+02	-2.83573267E+02	-2.58735000E+01	 1.50670167E+02
					 1.95769000E+02	 3.18604000E+02	 1.42542000E+03	 5.91109000E-08	 5.55552000E-08	-2.06916000E+02	 1.22659224E+03	 1.61884529E+02	 3.18604000E+02	 1.45930447E+03
					-3.69720000E+01	-1.84568000E+01	-5.61282000E+01	 5.12231000E-09	-6.14191000E-09	-1.69195000E+02	 2.94864880E+02	-2.16015990E+02	-1.84568000E+01	 1.22915790E+02
					 1.03092000E+02	 1.65934000E+02	 7.35037000E+02	-5.70817000E-09	 9.84403000E-08	-1.60638000E+02	 6.64081782E+02	 6.46026716E+01	 1.65934000E+02	 7.73526328E+02
					-3.69720000E+01	-1.84568000E+01	-5.61282000E+01	 5.11720000E-09	-6.14206000E-09	-1.69195000E+02	 2.94864880E+02	-2.16015990E+02	-1.84568000E+01	 1.22915790E+02
					 1.03092000E+02	 1.65934000E+02	 7.35037000E+02	-5.70336000E-09	 9.84404000E-08	-1.60638000E+02	 6.64081782E+02	 6.46026716E+01	 1.65934000E+02	 7.73526328E+02
					-2.45134000E+01	-5.09736000E+00	-9.72528000E-01	-1.04531000E-07	 2.49433000E-09	-9.76299000E+01	 1.70495973E+02	-1.11079837E+02	-5.09736000E+00	 8.55939087E+01
					 3.88268000E+01	 6.02874000E+01	 2.64058000E+02	-1.08583000E-07	 1.11408000E-07	-8.88097000E+01	 2.64608281E+02	 8.02191270E+00	 6.02874000E+01	 2.94862887E+02
					-2.45134000E+01	-5.09736000E+00	-9.72528000E-01	-1.04533000E-07	 2.49441000E-09	-9.76299000E+01	 1.70495973E+02	-1.11079837E+02	-5.09736000E+00	 8.55939087E+01
					 3.88268000E+01	 6.02874000E+01	 2.64058000E+02	-1.08588000E-07	 1.11407000E-07	-8.88097000E+01	 2.64608281E+02	 8.02191270E+00	 6.02874000E+01	 2.94862887E+02
					-9.70031000E+00	 4.42531000E+00	 3.19672000E+01	-2.16595000E-07	 1.53486000E-09	-5.98153000E+01	 1.09912445E+02	-5.22062381E+01	 4.42531000E+00	 7.44731281E+01
					 1.41181000E+01	 2.10785000E+01	 9.15481000E+01	-2.28008000E-07	 1.11429000E-07	-6.33904000E+01	 1.32513911E+02	-2.14447166E+01	 2.10785000E+01	 1.27110917E+02
					-9.70031000E+00	 4.42531000E+00	 3.19672000E+01	-2.16597000E-07	 1.53527000E-09	-5.98153000E+01	 1.09912445E+02	-5.22062381E+01	 4.42531000E+00	 7.44731281E+01
					 1.41181000E+01	 2.10785000E+01	 9.15481000E+01	-2.28003000E-07	 1.11428000E-07	-6.33904000E+01	 1.32513911E+02	-2.14447166E+01	 2.10785000E+01	 1.27110917E+02
					 3.41822000E+03	 2.86048000E+03	 1.30480000E+04	 0.00000000E+00	 0.00000000E+00	 4.82580000E+03	 1.29722661E+04	 1.41610836E+03	 2.86048000E+03	 1.50501116E+04
					 1.03203000E+03	 2.14418000E+03	 1.10952000E+04	 2.27245000E-09	 1.85785000E-08	 1.88203000E+03	 1.00964659E+04	 6.91568413E+02	 2.14418000E+03	 1.14356616E+04
					 3.41822000E+03	 2.86048000E+03	 1.30480000E+04	 0.00000000E+00	 0.00000000E+00	 4.82580000E+03	 1.29722661E+04	 1.41610836E+03	 2.86048000E+03	 1.50501116E+04