<?xml version="1.0"?>
<VTKFile type="UnstructuredGrid" version="0.1" byte_order="LittleEndian">
	<UnstructuredGrid>
		<Piece NumberOfPoints="126" NumberOfCells="40">
			<Points>
				<DataArray type="Float64" NumberOfComponents="3" format="ascii">
					 5.00000000E-02	 0.00000000E+00	 0.00000000E+00
					 0.00000000E+00	 0.00000000E+00	 0.00000000E+00
					 0.00000000E+00	 0.00000000E+00	 5.00000000E-02
					 5.00000000E-02	 0.00000000E+00	 5.00000000E-02
					 5.00000000E-02	 3.00000000E-01	 0.00000000E+00
					 0.00000000E+00	 3.00000000E-01	 0.00000000E+00
					 0.00000000E+00	 3.00000000E-01	 5.00000000E-02
					 5.00000000E-02	 3.00000000E-01	 5.00000000E-02
					 0.00000000E+00	 0.00000000E+00	 1.00000000E-01
					 5.00000000E-02	 0.00000000E+00	 1.00000000E-01
					 0.00000000E+00	 3.00000000E-01	 1.00000000E-01
					 5.00000000E-02	 3.00000000E-01	 1.00000000E-01
					 0.00000000E+00	 0.00000000E+00	 1.50000000E-01
					 5.00000000E-02	 0.00000000E+00	 1.50000000E-01
					 0.00000000E+00	 3.00000000E-01	 1.50000000E-01
					 5.00000000E-02	 3.00000000E-01	 1.50000000E-01
					 0.00000000E+00	 0.00000000E+00	 2.00000000E-01
					 5.00000000E-02	 0.00000000E+00	 2.00000000E-01
					 0.00000000E+00	 3.00000000E-01	 2.00000000E-01
					 5.00000000E-02	 3.00000000E-01	 2.00000000E-01
					 0.00000000E+00	 0.00000000E+00	 2.50000000E-01
					 5.00000000E-02	 0.00000000E+00	 2.50000000E-01
					 0.00000000E+00	 3.00000000E-01	 2.50000000E-01
					 5.00000000E-02	 3.00000000E-01	 2.50000000E-01
					 0.00000000E+00	 0.00000000E+00	 3.00000000E-01
					 5.00000000E-02	 0.00000000E+00	 3.00000000E-01
					 0.00000000E+00	 3.00000000E-01	 3.00000000E-01
					 5.00000000E-02	 3.00000000E-01	 3.00000000E-01
					 0.00000000E+00	 0.00000000E+00	 3.50000000E-01
					 5.00000000E-02	 0.00000000E+00	 3.50000000E-01
					 0.00000000E+00	 3.00000000E-01	 3.50000000E-01
					 5.00000000E-02	 3.00000000E-01	 3.50000000E-01
					 0.00000000E+00	 0.00000000E+00	 4.00000000E-01
					 5.00000000E-02	 0.00000000E+00	 4.00000000E-01
					 0.00000000E+00	 3.00000000E-01	 4.00000000E-01
					 5.00000000E-02	 3.00000000E-01	 4.00000000E-01
					 0.00000000E+00	 0.00000000E+00	 4.50000000E-01
					 5.00000000E-02	 0.00000000E+00	 4.50000000E-01
					 0.00000000E+00	 3.00000000E-01	 4.50000000E-01
					 5.00000000E-02	 3.00000000E-01	 4.50000000E-01
					 0.00000000E+00	 0.00000000E+00	 5.00000000E-01
					 5.00000000E-02	 0.00000000E+00	 5.00000000E-01
					 0.00000000E+00	 3.00000000E-01	 5.00000000E-01
					 5.00000000E-02	 3.00000000E-01	 5.00000000E-01
					 0.00000000E+00	 0.00000000E+00	 5.50000000E-01
					 5.00000000E-02	 0.00000000E+00	 5.50000000E-01
					 0.00000000E+00	 3.00000000E-01	 5.50000000E-01
					 5.00000000E-02	 3.00000000E-01	 5.50000000E-01
					 0.00000000E+00	 0.00000000E+00	 6.00000000E-01
					 5.00000000E-02	 0.00000000E+00	 6.00000000E-01
					 0.00000000E+00	 3.00000000E-01	 6.00000000E-01
					 5.00000000E-02	 3.00000000E-01	 6.00000000E-01
					 0.00000000E+00	 0.00000000E+00	 6.50000000E-01
					 5.00000000E-02	 0.00000000E+00	 6.50000000E-01
					 0.00000000E+00	 3.00000000E-01	 6.50000000E-01
					 5.00000000E-02	 3.00000000E-01	 6.50000000E-01
					 0.00000000E+00	 0.00000000E+00	 7.00000000E-01
					 5.00000000E-02	 0.00000000E+00	 7.00000000E-01
					 0.00000000E+00	 3.00000000E-01	 7.00000000E-01
					 5.00000000E-02	 3.00000000E-01	 7.00000000E-01
					 0.00000000E+00	 0.00000000E+00	 7.50000000E-01
					 5.00000000E-02	 0.00000000E+00	 7.50000000E-01
					 0.00000000E+00	 3.00000000E-01	 7.50000000E-01
					 5.00000000E-02	 3.00000000E-01	 7.50000000E-01
					 0.00000000E+00	 0.00000000E+00	 8.00000000E-01
					 5.00000000E-02	 0.00000000E+00	 8.00000000E-01
					 0.00000000E+00	 3.00000000E-01	 8.00000000E-01
					 5.00000000E-02	 3.00000000E-01	 8.00000000E-01
					 0.00000000E+00	 0.00000000E+00	 8.50000000E-01
					 5.00000000E-02	 0.00000000E+00	 8.50000000E-01
					 0.00000000E+00	 3.00000000E-01	 8.50000000E-01
					 5.00000000E-02	 3.00000000E-01	 8.50000000E-01
					 0.00000000E+00	 0.00000000E+00	 9.00000000E-01
					 5.00000000E-02	 0.00000000E+00	 9.00000000E-01
					 0.00000000E+00	 3.00000000E-01	 9.00000000E-01
					 5.00000000E-02	 3.00000000E-01	 9.00000000E-01
					 0.00000000E+00	 0.00000000E+00	 9.50000000E-01
					 5.00000000E-02	 0.00000000E+00	 9.50000000E-01
					 0.00000000E+00	 3.00000000E-01	 9.50000000E-01
					 5.00000000E-02	 3.00000000E-01	 9.50000000E-01
					 0.00000000E+00	 0.00000000E+00	 1.00000000E+00
					 5.00000000E-02	 0.00000000E+00	 1.00000000E+00
					 0.00000000E+00	 3.00000000E-01	 1.00000000E+00
					 5.00000000E-02	 3.00000000E-01	 1.00000000E+00
					-5.00000000E-02	 0.00000000E+00	 0.00000000E+00
					-5.00000000E-02	 0.00000000E+00	 5.00000000E-02
					-5.00000000E-02	 3.00000000E-01	 0.00000000E+00
					-5.00000000E-02	 3.00000000E-01	 5.00000000E-02
					-5.00000000E-02	 0.00000000E+00	 1.00000000E-01
					-5.00000000E-02	 3.00000000E-01	 1.00000000E-01
					-5.00000000E-02	 0.00000000E+00	 1.50000000E-01
					-5.00000000E-02	 3.00000000E-01	 1.50000000E-01
					-5.00000000E-02	 0.00000000E+00	 2.00000000E-01
					-5.00000000E-02	 3.00000000E-01	 2.00000000E-01
					-5.00000000E-02	 0.00000000E+00	 2.50000000E-01
					-5.00000000E-02	 3.00000000E-01	 2.50000000E-01
					-5.00000000E-02	 0.00000000E+00	 3.00000000E-01
					-5.00000000E-02	 3.00000000E-01	 3.00000000E-01
					-5.00000000E-02	 0.00000000E+00	 3.50000000E-01
					-5.00000000E-02	 3.00000000E-01	 3.50000000E-01
					-5.00000000E-02	 0.00000000E+00	 4.00000000E-01
					-5.00000000E-02	 3.00000000E-01	 4.00000000E-01
					-5.00000000E-02	 0.00000000E+00	 4.50000000E-01
					-5.00000000E-02	 3.00000000E-01	 4.50000000E-01
					-5.00000000E-02	 0.00000000E+00	 5.00000000E-01
					-5.00000000E-02	 3.00000000E-01	 5.00000000E-01
					-5.00000000E-02	 0.00000000E+00	 5.50000000E-01
					-5.00000000E-02	 3.00000000E-01	 5.50000000E-01
					-5.00000000E-02	 0.00000000E+00	 6.00000000E-01
					-5.00000000E-02	 3.00000000E-01	 6.00000000E-01
					-5.00000000E-02	 0.00000000E+00	 6.50000000E-01
					-5.00000000E-02	 3.00000000E-01	 6.50000000E-01
					-5.00000000E-02	 0.00000000E+00	 7.00000000E-01
					-5.00000000E-02	 3.00000000E-01	 7.00000000E-01
					-5.00000000E-02	 0.00000000E+00	 7.50000000E-01
					-5.00000000E-02	 3.00000000E-01	 7.50000000E-01
					-5.00000000E-02	 0.00000000E+00	 8.00000000E-01
					-5.00000000E-02	 3.00000000E-01	 8.00000000E-01
					-5.00000000E-02	 0.00000000E+00	 8.50000000E-01
					-5.00000000E-02	 3.00000000E-01	 8.50000000E-01
					-5.00000000E-02	 0.00000000E+00	 9.00000000E-01
					-5.00000000E-02	 3.00000000E-01	 9.00000000E-01
					-5.00000000E-02	 0.00000000E+00	 9.50000000E-01
					-5.00000000E-02	 3.00000000E-01	 9.50000000E-01
					-5.00000000E-02	 0.00000000E+00	 1.00000000E+00
					-5.00000000E-02	 3.00000000E-01	 1.00000000E+00

				</DataArray>
			</Points>
			<Cells>
				<DataArray type="Int32" Name="connectivity" format="ascii">
					0 1 2 3 4 5 6 7 3 2 8 9 7 6 10 11 9 8 12 13 11 10 14 15 13 12 16 17 15 14 18 19 17 16 20 21 19 18 22 23 21 20 24 25 23 22 26 27 25 24 28 29 27 26 30 31 29 28 32 33 31 30 34 35 33 32 36 37 35 34 38 39 37 36 40 41 39 38 42 43 41 40 44 45 43 42 46 47 45 44 48 49 47 46 50 51 49 48 52 53 51 50 54 55 53 52 56 57 55 54 58 59 57 56 60 61 59 58 62 63 61 60 64 65 63 62 66 67 65 64 68 69 67 66 70 71 69 68 72 73 71 70 74 75 73 72 76 77 75 74 78 79 77 76 80 81 79 78 82 83 1 84 85 2 5 86 87 6 2 85 88 8 6 87 89 10 8 88 90 12 10 89 91 14 12 90 92 16 14 91 93 18 16 92 94 20 18 93 95 22 20 94 96 24 22 95 97 26 24 96 98 28 26 97 99 30 28 98 100 32 30 99 101 34 32 100 102 36 34 101 103 38 36 102 104 40 38 103 105 42 40 104 106 44 42 105 107 46 44 106 108 48 46 107 109 50 48 108 110 52 50 109 111 54 52 110 112 56 54 111 113 58 56 112 114 60 58 113 115 62 60 114 116 64 62 115 117 66 64 116 118 68 66 117 119 70 68 118 120 72 70 119 121 74 72 120 122 76 74 121 123 78 76 122 124 80 78 123 125 82 
				</DataArray>
				<DataArray type="Int32" Name="offsets" format="ascii">
					8 16 24 32 40 48 56 64 72 80 88 96 104 112 120 128 136 144 152 160 168 176 184 192 200 208 216 224 232 240 248 256 264 272 280 288 296 304 312 320 
				</DataArray>
				<DataArray type="UInt8" Name="types" format="ascii">
					12 12 12 12 12 12 12 12 12 12 12 12 12 12 12 12 12 12 12 12 12 12 12 12 12 12 12 12 12 12 12 12 12 12 12 12 12 12 12 12 
				</DataArray>
			</Cells>
			<PointData>
				<DataArray type="Float32" Name="U" NumberOfComponents="3" ComponentName0="D1" ComponentName1="D2" ComponentName2="D3" format="ascii">
					 0.00000000E+00	 0.00000000E+00	 0.00000000E+00
					 0.00000000E+00	 0.00000000E+00	 0.00000000E+00
					 3.93805000E-03	 0.00000000E+00	-3.81011000E-04
					 4.23356000E-03	 0.00000000E+00	-6.49347000E-03
					 0.00000000E+00	 0.00000000E+00	 0.00000000E+00
					 0.00000000E+00	 0.00000000E+00	 0.00000000E+00
					 3.93805000E-03	 0.00000000E+00	-3.81011000E-04
					 4.23356000E-03	 0.00000000E+00	-6.49347000E-03
					 1.37423000E-02	 0.00000000E+00	-1.32131000E-03
					 1.28775000E-02	 0.00000000E+00	-1.21670000E-02
					 1.37423000E-02	 0.00000000E+00	-1.32131000E-03
					 1.28775000E-02	 0.00000000E+00	-1.21670000E-02
					 2.72816000E-02	 0.00000000E+00	-3.10737000E-03
					 2.54979000E-02	 0.00000000E+00	-1.72589000E-02
					 2.72816000E-02	 0.00000000E+00	-3.10737000E-03
					 2.54979000E-02	 0.00000000E+00	-1.72589000E-02
					 4.34462000E-02	 0.00000000E+00	-5.66768000E-03
					 4.08545000E-02	 0.00000000E+00	-2.19684000E-02
					 4.34462000E-02	 0.00000000E+00	-5.66768000E-03
					 4.08545000E-02	 0.00000000E+00	-2.19684000E-02
					 6.11862000E-02	 0.00000000E+00	-8.78476000E-03
					 5.80568000E-02	 0.00000000E+00	-2.62963000E-02
					 6.11862000E-02	 0.00000000E+00	-8.78476000E-03
					 5.80568000E-02	 0.00000000E+00	-2.62963000E-02
					 7.96349000E-02	 0.00000000E+00	-1.21960000E-02
					 7.62425000E-02	 0.00000000E+00	-3.01534000E-02
					 7.96349000E-02	 0.00000000E+00	-1.21960000E-02
					 7.62425000E-02	 0.00000000E+00	-3.01534000E-02
					 9.80902000E-02	 0.00000000E+00	-1.56485000E-02
					 9.46969000E-02	 0.00000000E+00	-3.34589000E-02
					 9.80902000E-02	 0.00000000E+00	-1.56485000E-02
					 9.46969000E-02	 0.00000000E+00	-3.34589000E-02
					 1.16041000E-01	 0.00000000E+00	-1.89404000E-02
					 1.12823000E-01	 0.00000000E+00	-3.61486000E-02
					 1.16041000E-01	 0.00000000E+00	-1.89404000E-02
					 1.12823000E-01	 0.00000000E+00	-3.61486000E-02
					 1.33121000E-01	 0.00000000E+00	-2.19163000E-02
					 1.30188000E-01	 0.00000000E+00	-3.82025000E-02
					 1.33121000E-01	 0.00000000E+00	-2.19163000E-02
					 1.30188000E-01	 0.00000000E+00	-3.82025000E-02
					 1.49070000E-01	 0.00000000E+00	-2.44788000E-02
					 1.46474000E-01	 0.00000000E+00	-3.96565000E-02
					 1.49070000E-01	 0.00000000E+00	-2.44788000E-02
					 1.46474000E-01	 0.00000000E+00	-3.96565000E-02
					 1.63766000E-01	 0.00000000E+00	-2.66165000E-02
					 1.61533000E-01	 0.00000000E+00	-4.06218000E-02
					 1.63766000E-01	 0.00000000E+00	-2.66165000E-02
					 1.61533000E-01	 0.00000000E+00	-4.06218000E-02
					 1.77227000E-01	 0.00000000E+00	-2.83782000E-02
					 1.75326000E-01	 0.00000000E+00	-4.12183000E-02
					 1.77227000E-01	 0.00000000E+00	-2.83782000E-02
					 1.75326000E-01	 0.00000000E+00	-4.12183000E-02
					 1.89526000E-01	 0.00000000E+00	-2.98175000E-02
					 1.87913000E-01	 0.00000000E+00	-4.15429000E-02
					 1.89526000E-01	 0.00000000E+00	-2.98175000E-02
					 1.87913000E-01	 0.00000000E+00	-4.15429000E-02
					 2.00706000E-01	 0.00000000E+00	-3.09796000E-02
					 1.99342000E-01	 0.00000000E+00	-4.16674000E-02
					 2.00706000E-01	 0.00000000E+00	-3.09796000E-02
					 1.99342000E-01	 0.00000000E+00	-4.16674000E-02
					 2.10834000E-01	 0.00000000E+00	-3.19161000E-02
					 2.09696000E-01	 0.00000000E+00	-4.16886000E-02
					 2.10834000E-01	 0.00000000E+00	-3.19161000E-02
					 2.09696000E-01	 0.00000000E+00	-4.16886000E-02
					 2.20069000E-01	 0.00000000E+00	-3.26907000E-02
					 2.19111000E-01	 0.00000000E+00	-4.17221000E-02
					 2.20069000E-01	 0.00000000E+00	-3.26907000E-02
					 2.19111000E-01	 0.00000000E+00	-4.17221000E-02
					 2.28650000E-01	 0.00000000E+00	-3.33635000E-02
					 2.27821000E-01	 0.00000000E+00	-4.18708000E-02
					 2.28650000E-01	 0.00000000E+00	-3.33635000E-02
					 2.27821000E-01	 0.00000000E+00	-4.18708000E-02
					 2.36829000E-01	 0.00000000E+00	-3.39850000E-02
					 2.36078000E-01	 0.00000000E+00	-4.21852000E-02
					 2.36829000E-01	 0.00000000E+00	-3.39850000E-02
					 2.36078000E-01	 0.00000000E+00	-4.21852000E-02
					 2.44827000E-01	 0.00000000E+00	-3.45967000E-02
					 2.44128000E-01	 0.00000000E+00	-4.26712000E-02
					 2.44827000E-01	 0.00000000E+00	-3.45967000E-02
					 2.44128000E-01	 0.00000000E+00	-4.26712000E-02
					 2.52829000E-01	 0.00000000E+00	-3.52365000E-02
					 2.52155000E-01	 0.00000000E+00	-4.32867000E-02
					 2.52829000E-01	 0.00000000E+00	-3.52365000E-02
					 2.52155000E-01	 0.00000000E+00	-4.32867000E-02
					 0.00000000E+00	 0.00000000E+00	 0.00000000E+00
					 5.36304000E-03	 0.00000000E+00	 5.51875000E-03
					 0.00000000E+00	 0.00000000E+00	 0.00000000E+00
					 5.36304000E-03	 0.00000000E+00	 5.51875000E-03
					 1.55565000E-02	 0.00000000E+00	 9.18681000E-03
					 1.55565000E-02	 0.00000000E+00	 9.18681000E-03
					 2.97614000E-02	 0.00000000E+00	 1.07442000E-02
					 2.97614000E-02	 0.00000000E+00	 1.07442000E-02
					 4.64708000E-02	 0.00000000E+00	 1.04317000E-02
					 4.64708000E-02	 0.00000000E+00	 1.04317000E-02
					 6.45406000E-02	 0.00000000E+00	 8.61697000E-03
					 6.45406000E-02	 0.00000000E+00	 8.61697000E-03
					 8.30860000E-02	 0.00000000E+00	 5.72198000E-03
					 8.30860000E-02	 0.00000000E+00	 5.72198000E-03
					 1.01406000E-01	 0.00000000E+00	 2.18110000E-03
					 1.01406000E-01	 0.00000000E+00	 2.18110000E-03
					 1.19091000E-01	 0.00000000E+00	-1.66438000E-03
					 1.19091000E-01	 0.00000000E+00	-1.66438000E-03
					 1.35820000E-01	 0.00000000E+00	-5.53313000E-03
					 1.35820000E-01	 0.00000000E+00	-5.53313000E-03
					 1.51402000E-01	 0.00000000E+00	-9.20988000E-03
					 1.51402000E-01	 0.00000000E+00	-9.20988000E-03
					 1.65721000E-01	 0.00000000E+00	-1.25325000E-02
					 1.65721000E-01	 0.00000000E+00	-1.25325000E-02
					 1.78863000E-01	 0.00000000E+00	-1.54646000E-02
					 1.78863000E-01	 0.00000000E+00	-1.54646000E-02
					 1.90886000E-01	 0.00000000E+00	-1.80273000E-02
					 1.90886000E-01	 0.00000000E+00	-1.80273000E-02
					 2.01844000E-01	 0.00000000E+00	-2.02499000E-02
					 2.01844000E-01	 0.00000000E+00	-2.02499000E-02
					 2.11776000E-01	 0.00000000E+00	-2.21210000E-02
					 2.11776000E-01	 0.00000000E+00	-2.21210000E-02
					 2.20886000E-01	 0.00000000E+00	-2.36446000E-02
					 2.20886000E-01	 0.00000000E+00	-2.36446000E-02
					 2.29392000E-01	 0.00000000E+00	-2.48457000E-02
					 2.29392000E-01	 0.00000000E+00	-2.48457000E-02
					 2.37545000E-01	 0.00000000E+00	-2.57859000E-02
					 2.37545000E-01	 0.00000000E+00	-2.57859000E-02
					 2.45522000E-01	 0.00000000E+00	-2.65376000E-02
					 2.45522000E-01	 0.00000000E+00	-2.65376000E-02
					 2.53507000E-01	 0.00000000E+00	-2.71949000E-02
					 2.53507000E-01	 0.00000000E+00	-2.71949000E-02
				</DataArray>
				<DataArray type="Float32" Name="S" NumberOfComponents="10" ComponentName0="xx" ComponentName1="yy" ComponentName2="zz" ComponentName3="xy" ComponentName4="yz" ComponentName5="zx" ComponentName6="Mises" ComponentName7="Min Principal" ComponentName8="Mid Principal" ComponentName9="Max Principal" format="ascii">
					-3.95785000E+03	-4.50639000E+03	-1.43683000E+04	 0.00000000E+00	 1.59909000E-09	 2.92187000E+03	 1.13393029E+04	-1.51323037E+04	-4.50639000E+03	-3.19384627E+03
					 3.26076000E+02	-1.49601000E+02	-1.35596000E+03	 0.00000000E+00	 0.00000000E+00	 3.81352000E+03	 6.77378862E+03	-4.42009834E+03	-1.49601000E+02	 3.39021434E+03
					-7.32651000E+01	-2.04749000E+02	-1.21756000E+03	 4.84314000E-08	 1.46076000E-08	 7.57176000E+02	 1.70181931E+03	-1.59444795E+03	-2.04749000E+02	 3.03622855E+02
					-1.79800000E+03	-3.39871000E+03	-1.24724000E+04	 7.59832000E-08	 1.11965000E-08	-3.79939000E+02	 9.99257374E+03	-1.24859063E+04	-3.39871000E+03	-1.78449374E+03
					-3.95785000E+03	-4.50639000E+03	-1.43683000E+04	 0.00000000E+00	 1.59903000E-09	 2.92187000E+03	 1.13393029E+04	-1.51323037E+04	-4.50639000E+03	-3.19384627E+03
					 3.26076000E+02	-1.49601000E+02	-1.35596000E+03	 0.00000000E+00	 0.00000000E+00	 3.81352000E+03	 6.77378862E+03	-4.42009834E+03	-1.49601000E+02	 3.39021434E+03
					-7.32651000E+01	-2.04749000E+02	-1.21756000E+03	 4.84314000E-08	 1.46076000E-08	 7.57176000E+02	 1.70181931E+03	-1.59444795E+03	-2.04749000E+02	 3.03622855E+02
					-1.79800000E+03	-3.39871000E+03	-1.24724000E+04	 7.59833000E-08	 1.11963000E-08	-3.79939000E+02	 9.99257374E+03	-1.24859063E+04	-3.39871000E+03	-1.78449374E+03
					 1.07784000E+02	-8.64734000E+01	-7.46109000E+02	 7.30563000E-09	 1.17925000E-08	 8.80492000E+02	 1.71078714E+03	-1.29770707E+03	-8.64734000E+01	 6.59382070E+02
					-1.92811000E+03	-2.60887000E+03	-9.57524000E+03	 4.86354000E-08	 7.58930000E-08	-1.03898000E+03	 7.54815272E+03	-9.71388761E+03	-2.60887000E+03	-1.78946239E+03
					 1.07784000E+02	-8.64734000E+01	-7.46109000E+02	 7.30611000E-09	 1.17925000E-08	 8.80492000E+02	 1.71078714E+03	-1.29770707E+03	-8.64734000E+01	 6.59382070E+02
					-1.92811000E+03	-2.60887000E+03	-9.57524000E+03	 4.86349000E-08	 7.58932000E-08	-1.03898000E+03	 7.54815272E+03	-9.71388761E+03	-2.60887000E+03	-1.78946239E+03
					 2.78674000E+02	-1.91405000E+01	-4.63600000E+02	-1.38825000E-07	 2.64275000E-08	 7.50123000E+02	 1.45143300E+03	-9.29378281E+02	-1.91405000E+01	 7.44452281E+02
					-1.23178000E+03	-1.71424000E+03	-6.63540000E+03	-9.12587000E-08	 1.24582000E-07	-9.53667000E+02	 5.43629364E+03	-6.79877028E+03	-1.71424000E+03	-1.06840972E+03
					 2.78674000E+02	-1.91405000E+01	-4.63600000E+02	-1.38826000E-07	 2.64275000E-08	 7.50123000E+02	 1.45143300E+03	-9.29378281E+02	-1.91405000E+01	 7.44452281E+02
					-1.23178000E+03	-1.71424000E+03	-6.63540000E+03	-9.12581000E-08	 1.24582000E-07	-9.53667000E+02	 5.43629364E+03	-6.79877028E+03	-1.71424000E+03	-1.06840972E+03
					 3.24804000E+02	 1.15185000E+01	-2.97416000E+02	-1.62785000E-07	 4.01346000E-08	 6.75706000E+02	 1.28845210E+03	-7.30193109E+02	 1.15185000E+01	 7.57581109E+02
					-7.68050000E+02	-1.05123000E+03	-4.21230000E+03	-1.71737000E-07	 7.28031000E-08	-6.16597000E+02	 3.47969565E+03	-4.31935689E+03	-1.05123000E+03	-6.60993113E+02
					 3.24804000E+02	 1.15185000E+01	-2.97416000E+02	-1.62787000E-07	 4.01347000E-08	 6.75706000E+02	 1.28845210E+03	-7.30193109E+02	 1.15185000E+01	 7.57581109E+02
					-7.68050000E+02	-1.05123000E+03	-4.21230000E+03	-1.71735000E-07	 7.28021000E-08	-6.16597000E+02	 3.47969565E+03	-4.31935689E+03	-1.05123000E+03	-6.60993113E+02
					 3.02668000E+02	 1.88476000E+01	-2.09664000E+02	-1.09407000E-07	 4.14290000E-08	 5.81615000E+02	 1.10111573E+03	-5.89026935E+02	 1.88476000E+01	 6.82030935E+02
					-3.07616000E+02	-5.14120000E+02	-2.18783000E+03	-1.15723000E-07	 0.00000000E+00	-1.62908000E+02	 1.80809124E+03	-2.20184049E+03	-5.14120000E+02	-2.93605508E+02
					 3.02668000E+02	 1.88476000E+01	-2.09664000E+02	-1.09407000E-07	 4.14288000E-08	 5.81615000E+02	 1.10111573E+03	-5.89026935E+02	 1.88476000E+01	 6.82030935E+02
					-3.07616000E+02	-5.14120000E+02	-2.18783000E+03	-1.15723000E-07	 0.00000000E+00	-1.62908000E+02	 1.80809124E+03	-2.20184049E+03	-5.14120000E+02	-2.93605508E+02
					 2.06980000E+02	 2.38228000E+00	-1.87939000E+02	-7.71020000E-08	 3.60801000E-08	 4.74543000E+02	 8.90277986E+02	-5.04465213E+02	 2.38228000E+00	 5.23506213E+02
					 5.94993000E+01	-1.00582000E+02	-5.47750000E+02	-9.46028000E-08	 4.77625000E-09	 2.69500000E+02	 7.17676269E+02	-6.50103401E+02	-1.00582000E+02	 1.61852701E+02
					 2.06980000E+02	 2.38228000E+00	-1.87939000E+02	-7.71003000E-08	 3.60802000E-08	 4.74543000E+02	 8.90277986E+02	-5.04465213E+02	 2.38228000E+00	 5.23506213E+02
					 5.94993000E+01	-1.00582000E+02	-5.47750000E+02	-9.46002000E-08	 4.77604000E-09	 2.69500000E+02	 7.17676269E+02	-6.50103401E+02	-1.00582000E+02	 1.61852701E+02
					 1.39921000E+02	-7.29857000E+00	-1.72545000E+02	-5.79067000E-08	 4.36257000E-08	 3.49228000E+02	 6.62712668E+02	-3.98893947E+02	-7.29857000E+00	 3.66269947E+02
					 3.61293000E+02	 2.19739000E+02	 7.63422000E+02	-7.97222000E-08	 9.97275000E-09	 5.96449000E+02	 1.14276965E+03	-6.70694956E+01	 2.19739000E+02	 1.19178450E+03
					 1.39921000E+02	-7.29857000E+00	-1.72545000E+02	-5.79072000E-08	 4.36262000E-08	 3.49228000E+02	 6.62712668E+02	-3.98893947E+02	-7.29857000E+00	 3.66269947E+02
					 3.61293000E+02	 2.19739000E+02	 7.63422000E+02	-7.97244000E-08	 9.97274000E-09	 5.96449000E+02	 1.14276965E+03	-6.70694956E+01	 2.19739000E+02	 1.19178450E+03
					 5.22580000E+01	-1.89489000E+01	-1.50549000E+02	-1.15044000E-08	 2.68424000E-08	 2.50394000E+02	 4.68883045E+02	-3.19293284E+02	-1.89489000E+01	 2.21002284E+02
					 5.34381000E+02	 4.49073000E+02	 1.77715000E+03	-1.42795000E-08	-1.73829000E-08	 8.13891000E+02	 1.90919513E+03	 1.31784418E+02	 4.49073000E+02	 2.17974658E+03
					 5.22580000E+01	-1.89489000E+01	-1.50549000E+02	-1.15044000E-08	 2.68416000E-08	 2.50394000E+02	 4.68883045E+02	-3.19293284E+02	-1.89489000E+01	 2.21002284E+02
					 5.34381000E+02	 4.49073000E+02	 1.77715000E+03	-1.42824000E-08	-1.73822000E-08	 8.13891000E+02	 1.90919513E+03	 1.31784418E+02	 4.49073000E+02	 2.17974658E+03
					-2.96966000E+01	-2.02481000E+01	-8.18821000E+01	 6.12507000E-08	-2.05800000E-09	 1.76264000E+02	 3.10664881E+02	-2.33974168E+02	-2.02481000E+01	 1.22395468E+02
					 5.91838000E+02	 6.00569000E+02	 2.52117000E+03	 5.79022000E-08	-4.25958000E-08	 9.20755000E+02	 2.49978449E+03	 2.22948504E+02	 6.00569000E+02	 2.89005950E+03
					-2.96966000E+01	-2.02481000E+01	-8.18821000E+01	 6.12464000E-08	-2.05774000E-09	 1.76264000E+02	 3.10664881E+02	-2.33974168E+02	-2.02481000E+01	 1.22395468E+02
					 5.91838000E+02	 6.00569000E+02	 2.52117000E+03	 5.79048000E-08	-4.25959000E-08	 9.20755000E+02	 2.49978449E+03	 2.22948504E+02	 6.00569000E+02	 2.89005950E+03
					-1.19256000E+02	-1.92882000E+01	 8.09434000E+00	 9.83622000E-08	-1.70249000E-08	 1.18589000E+02	 2.35946582E+02	-1.90183498E+02	-1.92882000E+01	 7.90218379E+01
					 5.59642000E+02	 6.79451000E+02	 2.97732000E+03	 9.38829000E-08	-2.53120000E-08	 9.23687000E+02	 2.85121983E+03	 2.47136397E+02	 6.79451000E+02	 3.28982560E+03
					-1.19256000E+02	-1.92882000E+01	 8.09434000E+00	 9.83643000E-08	-1.70247000E-08	 1.18589000E+02	 2.35946582E+02	-1.90183498E+02	-1.92882000E+01	 7.90218379E+01
					 5.59642000E+02	 6.79451000E+02	 2.97732000E+03	 9.38798000E-08	-2.53127000E-08	 9.23687000E+02	 2.85121983E+03	 2.47136397E+02	 6.79451000E+02	 3.28982560E+03
					-1.27470000E+02	-2.17004000E+00	 9.96964000E+01	 1.01248000E-07	-3.06037000E-08	 6.28899000E+01	 2.25180219E+02	-1.43718548E+02	-2.17004000E+00	 1.15944948E+02
					 5.31697000E+02	 7.10792000E+02	 3.17165000E+03	 1.13291000E-07	 6.31930000E-09	 8.40892000E+02	 2.94107507E+03	 2.86605669E+02	 7.10792000E+02	 3.41674133E+03
					-1.27470000E+02	-2.17004000E+00	 9.96964000E+01	 1.01245000E-07	-3.06035000E-08	 6.28899000E+01	 2.25180219E+02	-1.43718548E+02	-2.17004000E+00	 1.15944948E+02
					 5.31697000E+02	 7.10792000E+02	 3.17165000E+03	 1.13293000E-07	 6.32033000E-09	 8.40892000E+02	 2.94107507E+03	 2.86605669E+02	 7.10792000E+02	 3.41674133E+03
					-1.41163000E+02	 5.63529000E+00	 1.52771000E+02	 3.38792000E-08	-3.28744000E-08	 3.75726000E+01	 2.62741368E+02	-1.45889768E+02	 5.63529000E+00	 1.57497768E+02
					 4.69070000E+02	 6.97864000E+02	 3.16350000E+03	 5.70470000E-08	 3.63334000E-08	 7.34342000E+02	 2.88333224E+03	 2.81929621E+02	 6.97864000E+02	 3.35064038E+03
					-1.41163000E+02	 5.63529000E+00	 1.52771000E+02	 3.38774000E-08	-3.28732000E-08	 3.75726000E+01	 2.62741368E+02	-1.45889768E+02	 5.63529000E+00	 1.57497768E+02
					 4.69070000E+02	 6.97864000E+02	 3.16350000E+03	 5.70532000E-08	 3.63323000E-08	 7.34342000E+02	 2.88333224E+03	 2.81929621E+02	 6.97864000E+02	 3.35064038E+03
					-1.52470000E+02	 1.04148000E+01	 1.90554000E+02	-5.01772000E-08	-1.94649000E-08	 1.87940000E+01	 2.98970183E+02	-1.53496635E+02	 1.04148000E+01	 1.91580635E+02
					 3.89893000E+02	 6.59964000E+02	 3.04022000E+03	-2.63894000E-09	 4.39062000E-08	 6.21130000E+02	 2.74568799E+03	 2.51546753E+02	 6.59964000E+02	 3.17856625E+03
					-1.52470000E+02	 1.04148000E+01	 1.90554000E+02	-5.01768000E-08	-1.94657000E-08	 1.87940000E+01	 2.98970183E+02	-1.53496635E+02	 1.04148000E+01	 1.91580635E+02
					 3.89893000E+02	 6.59964000E+02	 3.04022000E+03	-2.64243000E-09	 4.39064000E-08	 6.21130000E+02	 2.74568799E+03	 2.51546753E+02	 6.59964000E+02	 3.17856625E+03
					-1.84865000E+02	 7.16021000E+00	 2.10245000E+02	-9.56161000E-08	-3.35682000E-09	-1.54541000E+01	 3.43265204E+02	-1.85468541E+02	 7.16021000E+00	 2.10848541E+02
					 2.94866000E+02	 5.97827000E+02	 2.80409000E+03	-7.33939000E-08	 3.32394000E-08	 4.90421000E+02	 2.51978803E+03	 2.02420456E+02	 5.97827000E+02	 2.89653554E+03
					-1.84865000E+02	 7.16021000E+00	 2.10245000E+02	-9.56163000E-08	-3.35718000E-09	-1.54541000E+01	 3.43265204E+02	-1.85468541E+02	 7.16021000E+00	 2.10848541E+02
					 2.94866000E+02	 5.97827000E+02	 2.80409000E+03	-7.33925000E-08	 3.32394000E-08	 4.90421000E+02	 2.51978803E+03	 2.02420456E+02	 5.97827000E+02	 2.89653554E+03
					-1.64149000E+02	 1.27682000E+01	 2.20938000E+02	-1.00301000E-07	 5.37099000E-09	-6.79751000E+01	 3.54012743E+02	-1.75795641E+02	 1.27682000E+01	 2.32584641E+02
					 2.29142000E+02	 5.13339000E+02	 2.41883000E+03	-9.82843000E-08	 1.36048000E-08	 3.36202000E+02	 2.14296385E+03	 1.78684656E+02	 5.13339000E+02	 2.46928734E+03
					-1.64149000E+02	 1.27682000E+01	 2.20938000E+02	-1.00296000E-07	 5.37279000E-09	-6.79751000E+01	 3.54012743E+02	-1.75795641E+02	 1.27682000E+01	 2.32584641E+02
					 2.29142000E+02	 5.13339000E+02	 2.41883000E+03	-9.82850000E-08	 1.35997000E-08	 3.36202000E+02	 2.14296385E+03	 1.78684656E+02	 5.13339000E+02	 2.46928734E+03
					-1.58491000E+02	 9.21115000E+00	 2.00639000E+02	-1.00307000E-07	 1.59008000E-08	-1.01293000E+02	 3.57284635E+02	-1.85090646E+02	 9.21115000E+00	 2.27238646E+02
					 1.45116000E+02	 3.94022000E+02	 1.87400000E+03	-9.19452000E-08	 8.53402000E-09	 1.91161000E+02	 1.65235954E+03	 1.24231789E+02	 3.94022000E+02	 1.89488421E+03
					-1.58491000E+02	 9.21115000E+00	 2.00639000E+02	-1.00300000E-07	 1.58978000E-08	-1.01293000E+02	 3.57284635E+02	-1.85090646E+02	 9.21115000E+00	 2.27238646E+02
					 1.45116000E+02	 3.94022000E+02	 1.87400000E+03	-9.19645000E-08	 8.53757000E-09	 1.91161000E+02	 1.65235954E+03	 1.24231789E+02	 3.94022000E+02	 1.89488421E+03
					-1.50162000E+02	 3.05742000E+00	 1.64001000E+02	-9.99815000E-08	 1.75644000E-08	-1.08013000E+02	 3.30210740E+02	-1.83714720E+02	 3.05742000E+00	 1.97553720E+02
					 5.62303000E+01	 2.58358000E+02	 1.25842000E+03	-8.74037000E-08	 0.00000000E+00	 7.95662000E+01	 1.12343766E+03	 5.09871264E+01	 2.58358000E+02	 1.26366317E+03
					-1.50162000E+02	 3.05742000E+00	 1.64001000E+02	-9.99858000E-08	 1.75649000E-08	-1.08013000E+02	 3.30210740E+02	-1.83714720E+02	 3.05742000E+00	 1.97553720E+02
					 5.62303000E+01	 2.58358000E+02	 1.25842000E+03	-8.74006000E-08	 0.00000000E+00	 7.95662000E+01	 1.12343766E+03	 5.09871264E+01	 2.58358000E+02	 1.26366317E+03
					-1.56428000E+02	-9.47048000E+00	 1.09017000E+02	-1.17270000E-07	 1.33334000E-08	-9.04022000E+01	 2.78506903E+02	-1.84291364E+02	-9.47048000E+00	 1.36880364E+02
					-3.09128000E+01	 1.28562000E+02	 6.81173000E+02	-1.11281000E-07	-1.34834000E-08	 1.17974000E+01	 6.47577172E+02	-3.11081985E+01	 1.28562000E+02	 6.81368398E+02
					-1.56428000E+02	-9.47048000E+00	 1.09017000E+02	-1.17267000E-07	 1.33329000E-08	-9.04022000E+01	 2.78506903E+02	-1.84291364E+02	-9.47048000E+00	 1.36880364E+02
					-3.09128000E+01	 1.28562000E+02	 6.81173000E+02	-1.11287000E-07	-1.34849000E-08	 1.17974000E+01	 6.47577172E+02	-3.11081985E+01	 1.28562000E+02	 6.81368398E+02
					-1.18662000E+02	-1.52639000E+01	 4.25337000E+01	-3.93100000E-08	-1.43580000E-09	-5.45808000E+01	 1.70132545E+02	-1.35404158E+02	-1.52639000E+01	 5.92758580E+01
					-5.87822000E+01	 3.73436000E+01	 2.46864000E+02	-2.65086000E-08	-7.84067000E-08	-1.17502000E+01	 2.71465440E+02	-5.92332566E+01	 3.73436000E+01	 2.47315057E+02
					-1.18662000E+02	-1.52639000E+01	 4.25337000E+01	-3.93047000E-08	-1.43550000E-09	-5.45808000E+01	 1.70132545E+02	-1.35404158E+02	-1.52639000E+01	 5.92758580E+01
					-5.87822000E+01	 3.73436000E+01	 2.46864000E+02	-2.64969000E-08	-7.84061000E-08	-1.17502000E+01	 2.71465440E+02	-5.92332566E+01	 3.73436000E+01	 2.47315057E+02
					-7.48497000E+01	-1.29116000E+01	 1.04268000E+01	 7.39374000E-08	-2.60909000E-08	-3.79925000E+01	 1.00781127E+02	-8.93205598E+01	-1.29116000E+01	 2.48976598E+01
					-4.17677000E+01	 7.71797000E+00	 8.04927000E+01	 7.73852000E-08	-1.36100000E-07	-1.35426000E+01	 1.09071101E+02	-4.32498260E+01	 7.71797000E+00	 8.19748260E+01
					-7.48497000E+01	-1.29116000E+01	 1.04268000E+01	 7.39243000E-08	-2.60918000E-08	-3.79925000E+01	 1.00781127E+02	-8.93205598E+01	-1.29116000E+01	 2.48976598E+01
					-4.17677000E+01	 7.71797000E+00	 8.04927000E+01	 7.73851000E-08	-1.36099000E-07	-1.35426000E+01	 1.09071101E+02	-4.32498260E+01	 7.71797000E+00	 8.19748260E+01
					 4.71876000E+03	 3.66450000E+03	 1.72690000E+04	 0.00000000E+00	 0.00000000E+00	 6.93319000E+03	 1.77780363E+04	 1.64260979E+03	 3.66450000E+03	 2.03451502E+04
					 1.47305000E+03	 2.72492000E+03	 1.44869000E+04	 1.75005000E-08	-4.05710000E-08	 2.95699000E+03	 1.34486874E+04	 8.32677412E+02	 2.72492000E+03	 1.51272726E+04
					 4.71876000E+03	 3.66450000E+03	 1.72690000E+04	 0.00000000E+00	 0.00000000E+00	 6.93319000E+03	 1.77780363E+04	 1.64260979E+03	 3.66450000E+03	 2.03451502E+04