<?xml version="1.0"?>
<VTKFile type="UnstructuredGrid" version="0.1" byte_order="LittleEndian">
	<UnstructuredGrid>
		<Piece NumberOfPoints="126" NumberOfCells="40">
			<Points>
				<DataArray type="Float64" NumberOfComponents="3" format="ascii">
					 5.00000000E-02	 0.00000000E+00	 0.00000000E+00
					 0.00000000E+00	 0.00000000E+00	 0.00000000E+00
					 0.00000000E+00	 0.00000000E+00	 5.00000000E-02
					 5.00000000E-02	 0.00000000E+00	 5.00000000E-02
					 5.00000000E-02	 3.00000000E-01	 0.00000000E+00
					 0.00000000E+00	 3.00000000E-01	 0.00000000E+00
					 0.00000000E+00	 3.00000000E-01	 5.00000000E-02
					 5.00000000E-02	 3.00000000E-01	 5.00000000E-02
					 0.00000000E+00	 0.00000000E+00	 1.00000000E-01
					 5.00000000E-02	 0.00000000E+00	 1.00000000E-01
					 0.00000000E+00	 3.00000000E-01	 1.00000000E-01
					 5.00000000E-02	 3.00000000E-01	 1.00000000E-01
					 0.00000000E+00	 0.00000000E+00	 1.50000000E-01
					 5.00000000E-02	 0.00000000E+00	 1.50000000E-01
					 0.00000000E+00	 3.00000000E-01	 1.50000000E-01
					 5.00000000E-02	 3.00000000E-01	 1.50000000E-01
					 0.00000000E+00	 0.00000000E+00	 2.00000000E-01
					 5.00000000E-02	 0.00000000E+00	 2.00000000E-01
					 0.00000000E+00	 3.00000000E-01	 2.00000000E-01
					 5.00000000E-02	 3.00000000E-01	 2.00000000E-01
					 0.00000000E+00	 0.00000000E+00	 2.50000000E-01
					 5.00000000E-02	 0.00000000E+00	 2.50000000E-01
					 0.00000000E+00	 3.00000000E-01	 2.50000000E-01
					 5.00000000E-02	 3.00000000E-01	 2.50000000E-01
					 0.00000000E+00	 0.00000000E+00	 3.00000000E-01
					 5.00000000E-02	 0.00000000E+00	 3.00000000E-01
					 0.00000000E+00	 3.00000000E-01	 3.00000000E-01
					 5.00000000E-02	 3.00000000E-01	 3.00000000E-01
					 0.00000000E+00	 0.00000000E+00	 3.50000000E-01
					 5.00000000E-02	 0.00000000E+00	 3.50000000E-01
					 0.00000000E+00	 3.00000000E-01	 3.50000000E-01
					 5.00000000E-02	 3.00000000E-01	 3.50000000E-01
					 0.00000000E+00	 0.00000000E+00	 4.00000000E-01
					 5.00000000E-02	 0.00000000E+00	 4.00000000E-01
					 0.00000000E+00	 3.00000000E-01	 4.00000000E-01
					 5.00000000E-02	 3.00000000E-01	 4.00000000E-01
					 0.00000000E+00	 0.00000000E+00	 4.50000000E-01
					 5.00000000E-02	 0.00000000E+00	 4.50000000E-01
					 0.00000000E+00	 3.00000000E-01	 4.50000000E-01
					 5.00000000E-02	 3.00000000E-01	 4.50000000E-01
					 0.00000000E+00	 0.00000000E+00	 5.00000000E-01
					 5.00000000E-02	 0.00000000E+00	 5.00000000E-01
					 0.00000000E+00	 3.00000000E-01	 5.00000000E-01
					 5.00000000E-02	 3.00000000E-01	 5.00000000E-01
					 0.00000000E+00	 0.00000000E+00	 5.50000000E-01
					 5.00000000E-02	 0.00000000E+00	 5.50000000E-01
					 0.00000000E+00	 3.00000000E-01	 5.50000000E-01
					 5.00000000E-02	 3.00000000E-01	 5.50000000E-01
					 0.00000000E+00	 0.00000000E+00	 6.00000000E-01
					 5.00000000E-02	 0.00000000E+00	 6.00000000E-01
					 0.00000000E+00	 3.00000000E-01	 6.00000000E-01
					 5.00000000E-02	 3.00000000E-01	 6.00000000E-01
					 0.00000000E+00	 0.00000000E+00	 6.50000000E-01
					 5.00000000E-02	 0.00000000E+00	 6.50000000E-01
					 0.00000000E+00	 3.00000000E-01	 6.50000000E-01
					 5.00000000E-02	 3.00000000E-01	 6.50000000E-01
					 0.00000000E+00	 0.00000000E+00	 7.00000000E-01
					 5.00000000E-02	 0.00000000E+00	 7.00000000E-01
					 0.00000000E+00	 3.00000000E-01	 7.00000000E-01
					 5.00000000E-02	 3.00000000E-01	 7.00000000E-01
					 0.00000000E+00	 0.00000000E+00	 7.50000000E-01
					 5.00000000E-02	 0.00000000E+00	 7.50000000E-01
					 0.00000000E+00	 3.00000000E-01	 7.50000000E-01
					 5.00000000E-02	 3.00000000E-01	 7.50000000E-01
					 0.00000000E+00	 0.00000000E+00	 8.00000000E-01
					 5.00000000E-02	 0.00000000E+00	 8.00000000E-01
					 0.00000000E+00	 3.00000000E-01	 8.00000000E-01
					 5.00000000E-02	 3.00000000E-01	 8.00000000E-01
					 0.00000000E+00	 0.00000000E+00	 8.50000000E-01
					 5.00000000E-02	 0.00000000E+00	 8.50000000E-01
					 0.00000000E+00	 3.00000000E-01	 8.50000000E-01
					 5.00000000E-02	 3.00000000E-01	 8.50000000E-01
					 0.00000000E+00	 0.00000000E+00	 9.00000000E-01
					 5.00000000E-02	 0.00000000E+00	 9.00000000E-01
					 0.00000000E+00	 3.00000000E-01	 9.00000000E-01
					 5.00000000E-02	 3.00000000E-01	 9.00000000E-01
					 0.00000000E+00	 0.00000000E+00	 9.50000000E-01
					 5.00000000E-02	 0.00000000E+00	 9.50000000E-01
					 0.00000000E+00	 3.00000000E-01	 9.50000000E-01
					 5.00000000E-02	 3.00000000E-01	 9.50000000E-01
					 0.00000000E+00	 0.00000000E+00	 1.00000000E+00
					 5.00000000E-02	 0.00000000E+00	 1.00000000E+00
					 0.00000000E+00	 3.00000000E-01	 1.00000000E+00
					 5.00000000E-02	 3.00000000E-01	 1.00000000E+00
					-5.00000000E-02	 0.00000000E+00	 0.00000000E+00
					-5.00000000E-02	 0.00000000E+00	 5.00000000E-02
					-5.00000000E-02	 3.00000000E-01	 0.00000000E+00
					-5.00000000E-02	 3.00000000E-01	 5.00000000E-02
					-5.00000000E-02	 0.00000000E+00	 1.00000000E-01
					-5.00000000E-02	 3.00000000E-01	 1.00000000E-01
					-5.00000000E-02	 0.00000000E+00	 1.50000000E-01
					-5.00000000E-02	 3.00000000E-01	 1.50000000E-01
					-5.00000000E-02	 0.00000000E+00	 2.00000000E-01
					-5.00000000E-02	 3.00000000E-01	 2.00000000E-01
					-5.00000000E-02	 0.00000000E+00	 2.50000000E-01
					-5.00000000E-02	 3.00000000E-01	 2.50000000E-01
					-5.00000000E-02	 0.00000000E+00	 3.00000000E-01
					-5.00000000E-02	 3.00000000E-01	 3.00000000E-01
					-5.00000000E-02	 0.00000000E+00	 3.50000000E-01
					-5.00000000E-02	 3.00000000E-01	 3.50000000E-01
					-5.00000000E-02	 0.00000000E+00	 4.00000000E-01
					-5.00000000E-02	 3.00000000E-01	 4.00000000E-01
					-5.00000000E-02	 0.00000000E+00	 4.50000000E-01
					-5.00000000E-02	 3.00000000E-01	 4.50000000E-01
					-5.00000000E-02	 0.00000000E+00	 5.00000000E-01
					-5.00000000E-02	 3.00000000E-01	 5.00000000E-01
					-5.00000000E-02	 0.00000000E+00	 5.50000000E-01
					-5.00000000E-02	 3.00000000E-01	 5.50000000E-01
					-5.00000000E-02	 0.00000000E+00	 6.00000000E-01
					-5.00000000E-02	 3.00000000E-01	 6.00000000E-01
					-5.00000000E-02	 0.00000000E+00	 6.50000000E-01
					-5.00000000E-02	 3.00000000E-01	 6.50000000E-01
					-5.00000000E-02	 0.00000000E+00	 7.00000000E-01
					-5.00000000E-02	 3.00000000E-01	 7.00000000E-01
					-5.00000000E-02	 0.00000000E+00	 7.50000000E-01
					-5.00000000E-02	 3.00000000E-01	 7.50000000E-01
					-5.00000000E-02	 0.00000000E+00	 8.00000000E-01
					-5.00000000E-02	 3.00000000E-01	 8.00000000E-01
					-5.00000000E-02	 0.00000000E+00	 8.50000000E-01
					-5.00000000E-02	 3.00000000E-01	 8.50000000E-01
					-5.00000000E-02	 0.00000000E+00	 9.00000000E-01
					-5.00000000E-02	 3.00000000E-01	 9.00000000E-01
					-5.00000000E-02	 0.00000000E+00	 9.50000000E-01
					-5.00000000E-02	 3.00000000E-01	 9.50000000E-01
					-5.00000000E-02	 0.00000000E+00	 1.00000000E+00
					-5.00000000E-02	 3.00000000E-01	 1.00000000E+00

				</DataArray>
			</Points>
			<Cells>
				<DataArray type="Int32" Name="connectivity" format="ascii">
					0 1 2 3 4 5 6 7 3 2 8 9 7 6 10 11 9 8 12 13 11 10 14 15 13 12 16 17 15 14 18 19 17 16 20 21 19 18 22 23 21 20 24 25 23 22 26 27 25 24 28 29 27 26 30 31 29 28 32 33 31 30 34 35 33 32 36 37 35 34 38 39 37 36 40 41 39 38 42 43 41 40 44 45 43 42 46 47 45 44 48 49 47 46 50 51 49 48 52 53 51 50 54 55 53 52 56 57 55 54 58 59 57 56 60 61 59 58 62 63 61 60 64 65 63 62 66 67 65 64 68 69 67 66 70 71 69 68 72 73 71 70 74 75 73 72 76 77 75 74 78 79 77 76 80 81 79 78 82 83 1 84 85 2 5 86 87 6 2 85 88 8 6 87 89 10 8 88 90 12 10 89 91 14 12 90 92 16 14 91 93 18 16 92 94 20 18 93 95 22 20 94 96 24 22 95 97 26 24 96 98 28 26 97 99 30 28 98 100 32 30 99 101 34 32 100 102 36 34 101 103 38 36 102 104 40 38 103 105 42 40 104 106 44 42 105 107 46 44 106 108 48 46 107 109 50 48 108 110 52 50 109 111 54 52 110 112 56 54 111 113 58 56 112 114 60 58 113 115 62 60 114 116 64 62 115 117 66 64 116 118 68 66 117 119 70 68 118 120 72 70 119 121 74 72 120 122 76 74 121 123 78 76 122 124 80 78 123 125 82 
				</DataArray>
				<DataArray type="Int32" Name="offsets" format="ascii">
					8 16 24 32 40 48 56 64 72 80 88 96 104 112 120 128 136 144 152 160 168 176 184 192 200 208 216 224 232 240 248 256 264 272 280 288 296 304 312 320 
				</DataArray>
				<DataArray type="UInt8" Name="types" format="ascii">
					12 12 12 12 12 12 12 12 12 12 12 12 12 12 12 12 12 12 12 12 12 12 12 12 12 12 12 12 12 12 12 12 12 12 12 12 12 12 12 12 
				</DataArray>
			</Cells>
			<PointData>
				<DataArray type="Float32" Name="U" NumberOfComponents="3" ComponentName0="D1" ComponentName1="D2" ComponentName2="D3" format="ascii">
					 0.00000000E+00	 0.00000000E+00	 0.00000000E+00
					 0.00000000E+00	 0.00000000E+00	 0.00000000E+00
					 3.66326000E-03	 0.00000000E+00	-1.19629000E-04
					 3.90530000E-03	 0.00000000E+00	-6.00727000E-03
					 0.00000000E+00	 0.00000000E+00	 0.00000000E+00
					 0.00000000E+00	 0.00000000E+00	 0.00000000E+00
					 3.66326000E-03	 0.00000000E+00	-1.19629000E-04
					 3.90530000E-03	 0.00000000E+00	-6.00727000E-03
					 1.30940000E-02	 0.00000000E+00	-7.25323000E-04
					 1.22037000E-02	 0.00000000E+00	-1.14451000E-02
					 1.30940000E-02	 0.00000000E+00	-7.25323000E-04
					 1.22037000E-02	 0.00000000E+00	-1.14451000E-02
					 2.65074000E-02	 0.00000000E+00	-2.19981000E-03
					 2.46178000E-02	 0.00000000E+00	-1.66148000E-02
					 2.65074000E-02	 0.00000000E+00	-2.19981000E-03
					 2.46178000E-02	 0.00000000E+00	-1.66148000E-02
					 4.31157000E-02	 0.00000000E+00	-4.60808000E-03
					 4.02011000E-02	 0.00000000E+00	-2.18226000E-02
					 4.31157000E-02	 0.00000000E+00	-4.60808000E-03
					 4.02011000E-02	 0.00000000E+00	-2.18226000E-02
					 6.21101000E-02	 0.00000000E+00	-7.87128000E-03
					 5.83059000E-02	 0.00000000E+00	-2.71502000E-02
					 6.21101000E-02	 0.00000000E+00	-7.87128000E-03
					 5.83059000E-02	 0.00000000E+00	-2.71502000E-02
					 8.27973000E-02	 0.00000000E+00	-1.18333000E-02
					 7.82728000E-02	 0.00000000E+00	-3.25866000E-02
					 8.27973000E-02	 0.00000000E+00	-1.18333000E-02
					 7.82728000E-02	 0.00000000E+00	-3.25866000E-02
					 1.04648000E-01	 0.00000000E+00	-1.63322000E-02
					 9.95925000E-02	 0.00000000E+00	-3.81311000E-02
					 1.04648000E-01	 0.00000000E+00	-1.63322000E-02
					 9.95925000E-02	 0.00000000E+00	-3.81311000E-02
					 1.27321000E-01	 0.00000000E+00	-2.12407000E-02
					 1.21873000E-01	 0.00000000E+00	-4.37563000E-02
					 1.27321000E-01	 0.00000000E+00	-2.12407000E-02
					 1.21873000E-01	 0.00000000E+00	-4.37563000E-02
					 1.50571000E-01	 0.00000000E+00	-2.64399000E-02
					 1.44851000E-01	 0.00000000E+00	-4.94080000E-02
					 1.50571000E-01	 0.00000000E+00	-2.64399000E-02
					 1.44851000E-01	 0.00000000E+00	-4.94080000E-02
					 1.74153000E-01	 0.00000000E+00	-3.18054000E-02
					 1.68270000E-01	 0.00000000E+00	-5.49982000E-02
					 1.74153000E-01	 0.00000000E+00	-3.18054000E-02
					 1.68270000E-01	 0.00000000E+00	-5.49982000E-02
					 1.97819000E-01	 0.00000000E+00	-3.72289000E-02
					 1.91899000E-01	 0.00000000E+00	-6.04761000E-02
					 1.97819000E-01	 0.00000000E+00	-3.72289000E-02
					 1.91899000E-01	 0.00000000E+00	-6.04761000E-02
					 2.21395000E-01	 0.00000000E+00	-4.26527000E-02
					 2.15515000E-01	 0.00000000E+00	-6.58299000E-02
					 2.21395000E-01	 0.00000000E+00	-4.26527000E-02
					 2.15515000E-01	 0.00000000E+00	-6.58299000E-02
					 2.44798000E-01	 0.00000000E+00	-4.80540000E-02
					 2.39004000E-01	 0.00000000E+00	-7.10858000E-02
					 2.44798000E-01	 0.00000000E+00	-4.80540000E-02
					 2.39004000E-01	 0.00000000E+00	-7.10858000E-02
					 2.67976000E-01	 0.00000000E+00	-5.34113000E-02
					 2.62288000E-01	 0.00000000E+00	-7.62452000E-02
					 2.67976000E-01	 0.00000000E+00	-5.34113000E-02
					 2.62288000E-01	 0.00000000E+00	-7.62452000E-02
					 2.90885000E-01	 0.00000000E+00	-5.87019000E-02
					 2.85336000E-01	 0.00000000E+00	-8.13101000E-02
					 2.90885000E-01	 0.00000000E+00	-5.87019000E-02
					 2.85336000E-01	 0.00000000E+00	-8.13101000E-02
					 3.13495000E-01	 0.00000000E+00	-6.39079000E-02
					 3.08089000E-01	 0.00000000E+00	-8.62679000E-02
					 3.13495000E-01	 0.00000000E+00	-6.39079000E-02
					 3.08089000E-01	 0.00000000E+00	-8.62679000E-02
					 3.35803000E-01	 0.00000000E+00	-6.90176000E-02
					 3.30530000E-01	 0.00000000E+00	-9.11470000E-02
					 3.35803000E-01	 0.00000000E+00	-6.90176000E-02
					 3.30530000E-01	 0.00000000E+00	-9.11470000E-02
					 3.57850000E-01	 0.00000000E+00	-7.40464000E-02
					 3.52678000E-01	 0.00000000E+00	-9.60052000E-02
					 3.57850000E-01	 0.00000000E+00	-7.40464000E-02
					 3.52678000E-01	 0.00000000E+00	-9.60052000E-02
					 3.79733000E-01	 0.00000000E+00	-7.90404000E-02
					 3.74631000E-01	 0.00000000E+00	-1.00923000E-01
					 3.79733000E-01	 0.00000000E+00	-7.90404000E-02
					 3.74631000E-01	 0.00000000E+00	-1.00923000E-01
					 4.01580000E-01	 0.00000000E+00	-8.40686000E-02
					 3.96513000E-01	 0.00000000E+00	-1.05932000E-01
					 4.01580000E-01	 0.00000000E+00	-8.40686000E-02
					 3.96513000E-01	 0.00000000E+00	-1.05932000E-01
					 0.00000000E+00	 0.00000000E+00	 0.00000000E+00
					 5.12798000E-03	 0.00000000E+00	 5.62710000E-03
					 0.00000000E+00	 0.00000000E+00	 0.00000000E+00
					 5.12798000E-03	 0.00000000E+00	 5.62710000E-03
					 1.50116000E-02	 0.00000000E+00	 9.67643000E-03
					 1.50116000E-02	 0.00000000E+00	 9.67643000E-03
					 2.92337000E-02	 0.00000000E+00	 1.18844000E-02
					 2.92337000E-02	 0.00000000E+00	 1.18844000E-02
					 4.66584000E-02	 0.00000000E+00	 1.23283000E-02
					 4.66584000E-02	 0.00000000E+00	 1.23283000E-02
					 6.63786000E-02	 0.00000000E+00	 1.11879000E-02
					 6.63786000E-02	 0.00000000E+00	 1.11879000E-02
					 8.76594000E-02	 0.00000000E+00	 8.74460000E-03
					 8.76594000E-02	 0.00000000E+00	 8.74460000E-03
					 1.09940000E-01	 0.00000000E+00	 5.33196000E-03
					 1.09940000E-01	 0.00000000E+00	 5.33196000E-03
					 1.32939000E-01	 0.00000000E+00	 1.18239000E-03
					 1.32939000E-01	 0.00000000E+00	 1.18239000E-03
					 1.56401000E-01	 0.00000000E+00	-3.52394000E-03
					 1.56401000E-01	 0.00000000E+00	-3.52394000E-03
					 1.80091000E-01	 0.00000000E+00	-8.64418000E-03
					 1.80091000E-01	 0.00000000E+00	-8.64418000E-03
					 2.03743000E-01	 0.00000000E+00	-1.40008000E-02
					 2.03743000E-01	 0.00000000E+00	-1.40008000E-02
					 2.27255000E-01	 0.00000000E+00	-1.94844000E-02
					 2.27255000E-01	 0.00000000E+00	-1.94844000E-02
					 2.50556000E-01	 0.00000000E+00	-2.50195000E-02
					 2.50556000E-01	 0.00000000E+00	-2.50195000E-02
					 2.73618000E-01	 0.00000000E+00	-3.05729000E-02
					 2.73618000E-01	 0.00000000E+00	-3.05729000E-02
					 2.96375000E-01	 0.00000000E+00	-3.60864000E-02
					 2.96375000E-01	 0.00000000E+00	-3.60864000E-02
					 3.18846000E-01	 0.00000000E+00	-4.15350000E-02
					 3.18846000E-01	 0.00000000E+00	-4.15350000E-02
					 3.41031000E-01	 0.00000000E+00	-4.68746000E-02
					 3.41031000E-01	 0.00000000E+00	-4.68746000E-02
					 3.62996000E-01	 0.00000000E+00	-5.20871000E-02
					 3.62996000E-01	 0.00000000E+00	-5.20871000E-02
					 3.84822000E-01	 0.00000000E+00	-5.71738000E-02
					 3.84822000E-01	 0.00000000E+00	-5.71738000E-02
					 4.06653000E-01	 0.00000000E+00	-6.22023000E-02
					 4.06653000E-01	 0.00000000E+00	-6.22023000E-02
				</DataArray>
				<DataArray type="Float32" Name="S" NumberOfComponents="10" ComponentName0="xx" ComponentName1="yy" ComponentName2="zz" ComponentName3="xy" ComponentName4="yz" ComponentName5="zx" ComponentName6="Mises" ComponentName7="Min Principal" ComponentName8="Mid Principal" ComponentName9="Max Principal" format="ascii">
					-3.69748000E+03	-4.15601000E+03	-1.35427000E+04	 0.00000000E+00	 1.33697000E-09	 2.77541000E+03	 1.07579264E+04	-1.42711952E+04	-4.15601000E+03	-2.96898481E+03
					 4.10637000E+02	 1.03832000E+01	-6.80450000E+02	 0.00000000E+00	 0.00000000E+00	 3.58802000E+03	 6.28773606E+03	-3.76416334E+03	 1.03832000E+01	 3.49435034E+03
					-1.43030000E+02	-8.36241000E+01	-5.51926000E+02	 3.99518000E-08	-1.08292000E-08	 6.75814000E+02	 1.25107535E+03	-1.05354000E+03	-8.36241000E+01	 3.58584000E+02
					-1.84576000E+03	-3.23461000E+03	-1.19492000E+04	 6.10397000E-08	-2.91694000E-08	-4.17304000E+02	 9.51307886E+03	-1.19664067E+04	-3.23461000E+03	-1.82855333E+03
					-3.69748000E+03	-4.15601000E+03	-1.35427000E+04	 0.00000000E+00	 1.33697000E-09	 2.77541000E+03	 1.07579264E+04	-1.42711952E+04	-4.15601000E+03	-2.96898481E+03
					 4.10637000E+02	 1.03832000E+01	-6.80450000E+02	 0.00000000E+00	 0.00000000E+00	 3.58802000E+03	 6.28773606E+03	-3.76416334E+03	 1.03832000E+01	 3.49435034E+03
					-1.43030000E+02	-8.36241000E+01	-5.51926000E+02	 3.99519000E-08	-1.08292000E-08	 6.75814000E+02	 1.25107535E+03	-1.05354000E+03	-8.36241000E+01	 3.58584000E+02
					-1.84576000E+03	-3.23461000E+03	-1.19492000E+04	 6.10395000E-08	-2.91693000E-08	-4.17304000E+02	 9.51307886E+03	-1.19664067E+04	-3.23461000E+03	-1.82855333E+03
					-1.92014000E+00	 3.02902000E+01	-7.84864000E+01	 1.17913000E-07	-4.28083000E-08	 8.34363000E+02	 1.44839600E+03	-8.75444082E+02	 3.02902000E+01	 7.95037542E+02
					-2.12024000E+03	-2.63460000E+03	-9.57568000E+03	 1.30553000E-07	-6.08008000E-08	-1.14394000E+03	 7.47924915E+03	-9.74725418E+03	-2.63460000E+03	-1.94866582E+03
					-1.92014000E+00	 3.02902000E+01	-7.84864000E+01	 1.17913000E-07	-4.28084000E-08	 8.34363000E+02	 1.44839600E+03	-8.75444082E+02	 3.02902000E+01	 7.95037542E+02
					-2.12024000E+03	-2.63460000E+03	-9.57568000E+03	 1.30553000E-07	-6.08006000E-08	-1.14394000E+03	 7.47924915E+03	-9.74725418E+03	-2.63460000E+03	-1.94866582E+03
					 1.80520000E+02	 1.00446000E+02	 1.97700000E+02	 1.08517000E-07	-6.40010000E-08	 7.67346000E+02	 1.33211948E+03	-5.78284079E+02	 1.00446000E+02	 9.56504079E+02
					-1.61595000E+03	-1.91849000E+03	-7.17873000E+03	 1.31354000E-07	-4.25767000E-08	-1.23470000E+03	 5.82464940E+03	-7.44046577E+03	-1.91849000E+03	-1.35421423E+03
					 1.80520000E+02	 1.00446000E+02	 1.97700000E+02	 1.08517000E-07	-6.40010000E-08	 7.67346000E+02	 1.33211948E+03	-5.78284079E+02	 1.00446000E+02	 9.56504079E+02
					-1.61595000E+03	-1.91849000E+03	-7.17873000E+03	 1.31354000E-07	-4.25764000E-08	-1.23470000E+03	 5.82464940E+03	-7.44046577E+03	-1.91849000E+03	-1.35421423E+03
					 2.81477000E+02	 1.45888000E+02	 3.84337000E+02	 1.08612000E-07	-5.99808000E-08	 7.72875000E+02	 1.35459165E+03	-4.41677282E+02	 1.45888000E+02	 1.10749128E+03
					-1.32225000E+03	-1.39519000E+03	-5.24013000E+03	 9.07996000E-08	-2.10673000E-08	-1.09062000E+03	 4.31713907E+03	-5.52326447E+03	-1.39519000E+03	-1.03911553E+03
					 2.81477000E+02	 1.45888000E+02	 3.84337000E+02	 1.08614000E-07	-5.99808000E-08	 7.72875000E+02	 1.35459165E+03	-4.41677282E+02	 1.45888000E+02	 1.10749128E+03
					-1.32225000E+03	-1.39519000E+03	-5.24013000E+03	 9.08004000E-08	-2.10671000E-08	-1.09062000E+03	 4.31713907E+03	-5.52326447E+03	-1.39519000E+03	-1.03911553E+03
					 3.26813000E+02	 1.74640000E+02	 5.21800000E+02	 5.57856000E-08	-3.90744000E-08	 7.60556000E+02	 1.35136398E+03	-3.42472746E+02	 1.74640000E+02	 1.19108575E+03
					-1.00734000E+03	-9.64079000E+02	-3.62777000E+03	 7.45554000E-08	 1.03578000E-09	-8.03528000E+02	 2.98644589E+03	-3.85453925E+03	-9.64079000E+02	-7.80570747E+02
					 3.26813000E+02	 1.74640000E+02	 5.21800000E+02	 5.57845000E-08	-3.90740000E-08	 7.60556000E+02	 1.35136398E+03	-3.42472746E+02	 1.74640000E+02	 1.19108575E+03
					-1.00734000E+03	-9.64079000E+02	-3.62777000E+03	 7.45589000E-08	 1.03486000E-09	-8.03528000E+02	 2.98644589E+03	-3.85453925E+03	-9.64079000E+02	-7.80570747E+02
					 2.98462000E+02	 1.81384000E+02	 6.07029000E+02	-3.98697000E-09	-2.09516000E-08	 7.32528000E+02	 1.32470339E+03	-2.95853638E+02	 1.81384000E+02	 1.20134464E+03
					-7.41396000E+02	-6.36674000E+02	-2.37175000E+03	 8.39065000E-09	 2.06677000E-08	-4.93421000E+02	 1.88948343E+03	-2.50945170E+03	-6.36674000E+02	-6.03694296E+02
					 2.98462000E+02	 1.81384000E+02	 6.07029000E+02	-3.98875000E-09	-2.09506000E-08	 7.32528000E+02	 1.32470339E+03	-2.95853638E+02	 1.81384000E+02	 1.20134464E+03
					-7.41396000E+02	-6.36674000E+02	-2.37175000E+03	 8.39044000E-09	 2.06653000E-08	-4.93421000E+02	 1.88948343E+03	-2.50945170E+03	-6.36674000E+02	-6.03694296E+02
					 3.05129000E+02	 1.93607000E+02	 6.73894000E+02	-5.19065000E-08	 9.75673000E-09	 6.82045000E+02	 1.25901006E+03	-2.17016835E+02	 1.93607000E+02	 1.19603984E+03
					-4.72646000E+02	-3.82242000E+02	-1.41922000E+03	-4.86601000E-08	 4.92574000E-08	-2.30686000E+02	 1.07209952E+03	-1.47244664E+03	-4.19419358E+02	-3.82242000E+02
					 3.05129000E+02	 1.93607000E+02	 6.73894000E+02	-5.19100000E-08	 9.75554000E-09	 6.82045000E+02	 1.25901006E+03	-2.17016835E+02	 1.93607000E+02	 1.19603984E+03
					-4.72646000E+02	-3.82242000E+02	-1.41922000E+03	-4.86563000E-08	 4.92591000E-08	-2.30686000E+02	 1.07209952E+03	-1.47244664E+03	-4.19419358E+02	-3.82242000E+02
					 2.97103000E+02	 1.96620000E+02	 7.04069000E+02	-8.46867000E-08	 2.18610000E-08	 6.59618000E+02	 1.23365272E+03	-1.89704690E+02	 1.96620000E+02	 1.19087669E+03
					-2.47601000E+02	-1.88374000E+02	-6.92280000E+02	-7.88651000E-08	 4.48542000E-08	 1.26176000E+01	 4.77558232E+02	-6.92637732E+02	-2.47243268E+02	-1.88374000E+02
					 2.97103000E+02	 1.96620000E+02	 7.04069000E+02	-8.46882000E-08	 2.18608000E-08	 6.59618000E+02	 1.23365272E+03	-1.89704690E+02	 1.96620000E+02	 1.19087669E+03
					-2.47601000E+02	-1.88374000E+02	-6.92280000E+02	-7.88644000E-08	 4.48521000E-08	 1.26176000E+01	 4.77558232E+02	-6.92637732E+02	-2.47243268E+02	-1.88374000E+02
					 2.91511000E+02	 2.00014000E+02	 7.30649000E+02	-1.23654000E-07	 3.71032000E-08	 6.54519000E+02	 1.23554808E+03	-1.79286328E+02	 2.00014000E+02	 1.20144633E+03
					-4.77232000E+01	-2.72527000E+01	-8.71387000E+01	-1.22367000E-07	 4.95461000E-08	 2.49579000E+02	 4.35486521E+02	-3.17786842E+02	-2.72527000E+01	 1.82924942E+02
					 2.91511000E+02	 2.00014000E+02	 7.30649000E+02	-1.23660000E-07	 3.71025000E-08	 6.54519000E+02	 1.23554808E+03	-1.79286328E+02	 2.00014000E+02	 1.20144633E+03
					-4.77232000E+01	-2.72527000E+01	-8.71387000E+01	-1.22359000E-07	 4.95471000E-08	 2.49579000E+02	 4.35486521E+02	-3.17786842E+02	-2.72527000E+01	 1.82924942E+02
					 2.38961000E+02	 1.91074000E+02	 7.39786000E+02	-9.91795000E-08	 3.66419000E-08	 6.43455000E+02	 1.23256029E+03	-2.01090661E+02	 1.91074000E+02	 1.17983766E+03
					 9.83383000E+01	 9.88728000E+01	 4.06962000E+02	-1.07645000E-07	 0.00000000E+00	 4.58728000E+02	 8.52278152E+02	-2.31336962E+02	 9.88728000E+01	 7.36637262E+02
					 2.38961000E+02	 1.91074000E+02	 7.39786000E+02	-9.91794000E-08	 3.66428000E-08	 6.43455000E+02	 1.23256029E+03	-2.01090661E+02	 1.91074000E+02	 1.17983766E+03
					 9.83383000E+01	 9.88728000E+01	 4.06962000E+02	-1.07643000E-07	 0.00000000E+00	 4.58728000E+02	 8.52278152E+02	-2.31336962E+02	 9.88728000E+01	 7.36637262E+02
					 2.08101000E+02	 1.84826000E+02	 7.36974000E+02	-3.62844000E-08	 1.33380000E-08	 5.78850000E+02	 1.13919264E+03	-1.63853877E+02	 1.84826000E+02	 1.10892888E+03
					 2.21953000E+02	 1.93932000E+02	 7.69365000E+02	-6.17394000E-08	-3.16425000E-08	 5.74195000E+02	 1.14231511E+03	-1.40434446E+02	 1.93932000E+02	 1.13175245E+03
					 2.08101000E+02	 1.84826000E+02	 7.36974000E+02	-3.62975000E-08	 1.33385000E-08	 5.78850000E+02	 1.13919264E+03	-1.63853877E+02	 1.84826000E+02	 1.10892888E+03
					 2.21953000E+02	 1.93932000E+02	 7.69365000E+02	-6.17287000E-08	-3.16413000E-08	 5.74195000E+02	 1.14231511E+03	-1.40434446E+02	 1.93932000E+02	 1.13175245E+03
					 1.50165000E+02	 1.60795000E+02	 6.70039000E+02	-4.84670000E-09	 1.25817000E-08	 4.98483000E+02	 1.00514258E+03	-1.52083508E+02	 1.60795000E+02	 9.72287508E+02
					 2.71794000E+02	 2.39109000E+02	 9.51106000E+02	-2.42101000E-08	-1.69091000E-08	 6.09270000E+02	 1.26426509E+03	-8.61000923E+01	 2.39109000E+02	 1.30900009E+03
					 1.50165000E+02	 1.60795000E+02	 6.70039000E+02	-4.84345000E-09	 1.25827000E-08	 4.98483000E+02	 1.00514258E+03	-1.52083508E+02	 1.60795000E+02	 9.72287508E+02
					 2.71794000E+02	 2.39109000E+02	 9.51106000E+02	-2.42000000E-08	-1.69074000E-08	 6.09270000E+02	 1.26426509E+03	-8.61000923E+01	 2.39109000E+02	 1.30900009E+03
					 9.95135000E+01	 1.31256000E+02	 5.67941000E+02	 9.41523000E-09	 5.24437000E-09	 4.14500000E+02	 8.49113419E+02	-1.42367626E+02	 1.31256000E+02	 8.09822126E+02
					 2.80493000E+02	 2.51117000E+02	 1.00294000E+03	 3.31899000E-08	-7.29711000E-09	 5.94704000E+02	 1.26689927E+03	-5.40961649E+01	 2.51117000E+02	 1.33752916E+03
					 9.95135000E+01	 1.31256000E+02	 5.67941000E+02	 9.41997000E-09	 5.24794000E-09	 4.14500000E+02	 8.49113419E+02	-1.42367626E+02	 1.31256000E+02	 8.09822126E+02
					 2.80493000E+02	 2.51117000E+02	 1.00294000E+03	 3.31867000E-08	-7.30610000E-09	 5.94704000E+02	 1.26689927E+03	-5.40961649E+01	 2.51117000E+02	 1.33752916E+03
					 2.74506000E+01	 9.32353000E+01	 4.45795000E+02	 7.40180000E-08	-1.04726000E-08	 3.42202000E+02	 7.09313492E+02	-1.64444798E+02	 9.32353000E+01	 6.37690398E+02
					 2.52541000E+02	 2.41841000E+02	 9.82341000E+02	 6.68224000E-08	-2.60079000E-08	 5.67128000E+02	 1.22696124E+03	-5.69373644E+01	 2.41841000E+02	 1.29181936E+03
					 2.74506000E+01	 9.32353000E+01	 4.45795000E+02	 7.40208000E-08	-1.04725000E-08	 3.42202000E+02	 7.09313492E+02	-1.64444798E+02	 9.32353000E+01	 6.37690398E+02
					 2.52541000E+02	 2.41841000E+02	 9.82341000E+02	 6.68150000E-08	-2.60077000E-08	 5.67128000E+02	 1.22696124E+03	-5.69373644E+01	 2.41841000E+02	 1.29181936E+03
					 1.79187000E+00	 7.00114000E+01	 3.52075000E+02	 1.31774000E-07	-1.57511000E-08	 2.55420000E+02	 5.46968147E+02	-1.32766330E+02	 7.00114000E+01	 4.86633200E+02
					 2.46788000E+02	 2.34753000E+02	 9.49421000E+02	 1.03703000E-07	-4.09648000E-08	 5.11525000E+02	 1.13457818E+03	-2.24445382E+01	 2.34753000E+02	 1.21865354E+03
					 1.79187000E+00	 7.00114000E+01	 3.52075000E+02	 1.31758000E-07	-1.57528000E-08	 2.55420000E+02	 5.46968147E+02	-1.32766330E+02	 7.00114000E+01	 4.86633200E+02
					 2.46788000E+02	 2.34753000E+02	 9.49421000E+02	 1.03715000E-07	-4.09528000E-08	 5.11525000E+02	 1.13457818E+03	-2.24445382E+01	 2.34753000E+02	 1.21865354E+03
					-4.46699000E+01	 4.39332000E+01	 2.66213000E+02	 1.59480000E-07	-2.09499000E-08	 1.81482000E+02	 4.19238175E+02	-1.28179827E+02	 4.39332000E+01	 3.49722927E+02
					 1.98632000E+02	 2.09308000E+02	 8.65521000E+02	 1.56443000E-07	-2.08992000E-08	 4.35821000E+02	 1.00377041E+03	-1.66722391E+01	 2.09308000E+02	 1.08082524E+03
					-4.46699000E+01	 4.39332000E+01	 2.66213000E+02	 1.59496000E-07	-2.09489000E-08	 1.81482000E+02	 4.19238175E+02	-1.28179827E+02	 4.39332000E+01	 3.49722927E+02
					 1.98632000E+02	 2.09308000E+02	 8.65521000E+02	 1.56443000E-07	-2.09091000E-08	 4.35821000E+02	 1.00377041E+03	-1.66722391E+01	 2.09308000E+02	 1.08082524E+03
					-9.01872000E+01	 2.11864000E+01	 1.97060000E+02	 1.19141000E-07	-7.75859000E-09	 1.17037000E+02	 3.22515513E+02	-1.31834747E+02	 2.11864000E+01	 2.38707547E+02
					 1.14014000E+02	 1.60030000E+02	 6.97342000E+02	 1.44569000E-07	 1.09733000E-08	 3.30156000E+02	 8.01595633E+02	-3.48567583E+01	 1.60030000E+02	 8.46212758E+02
					-9.01872000E+01	 2.11864000E+01	 1.97060000E+02	 1.19124000E-07	-7.75753000E-09	 1.17037000E+02	 3.22515513E+02	-1.31834747E+02	 2.11864000E+01	 2.38707547E+02
					 1.14014000E+02	 1.60030000E+02	 6.97342000E+02	 1.44546000E-07	 1.09692000E-08	 3.30156000E+02	 8.01595633E+02	-3.48567583E+01	 1.60030000E+02	 8.46212758E+02
					-1.40504000E+02	-4.38869000E+00	 1.19141000E+02	 9.59613000E-08	-1.94016000E-09	 7.00161000E+01	 2.55554313E+02	-1.58181113E+02	-4.38869000E+00	 1.36818113E+02
					 2.28885000E+00	 8.65409000E+01	 4.35243000E+02	 8.77076000E-08	-5.61914000E-09	 2.08806000E+02	 5.37466526E+02	-8.20035376E+01	 8.65409000E+01	 5.19535388E+02
					-1.40504000E+02	-4.38869000E+00	 1.19141000E+02	 9.59635000E-08	-1.94159000E-09	 7.00161000E+01	 2.55554313E+02	-1.58181113E+02	-4.38869000E+00	 1.36818113E+02
					 2.28885000E+00	 8.65409000E+01	 4.35243000E+02	 8.77273000E-08	-5.61363000E-09	 2.08806000E+02	 5.37466526E+02	-8.20035376E+01	 8.65409000E+01	 5.19535388E+02
					-1.30203000E+02	-2.01386000E+01	 2.97740000E+01	 9.80124000E-08	-2.86807000E-08	 2.83263000E+01	 1.50020592E+02	-1.35070492E+02	-2.01386000E+01	 3.46414922E+01
					-5.23576000E+01	 2.24611000E+01	 1.65754000E+02	 1.16639000E-07	-5.23588000E-08	 9.27778000E+01	 2.50349440E+02	-8.64831105E+01	 2.24611000E+01	 1.99879511E+02
					-1.30203000E+02	-2.01386000E+01	 2.97740000E+01	 9.79946000E-08	-2.86821000E-08	 2.83263000E+01	 1.50020592E+02	-1.35070492E+02	-2.01386000E+01	 3.46414922E+01
					-5.23576000E+01	 2.24611000E+01	 1.65754000E+02	 1.16640000E-07	-5.23595000E-08	 9.27778000E+01	 2.50349440E+02	-8.64831105E+01	 2.24611000E+01	 1.99879511E+02
					-1.02621000E+02	-2.29922000E+01	-1.22005000E+01	 8.46869000E-08	-4.87914000E-08	 2.48935000E+00	 8.56453577E+01	-1.02689482E+02	-2.29922000E+01	-1.21320180E+01
					-4.36266000E+01	-5.35416000E-02	 4.34671000E+01	 9.13652000E-08	-7.26841000E-08	 4.20728000E+01	 1.04877770E+02	-6.06309568E+01	-5.35416000E-02	 6.04714568E+01
					-1.02621000E+02	-2.29922000E+01	-1.22005000E+01	 8.46876000E-08	-4.87890000E-08	 2.48935000E+00	 8.56453577E+01	-1.02689482E+02	-2.29922000E+01	-1.21320180E+01
					-4.36266000E+01	-5.35416000E-02	 4.34671000E+01	 9.13659000E-08	-7.26887000E-08	 4.20728000E+01	 1.04877770E+02	-6.06309568E+01	-5.35416000E-02	 6.04714568E+01
					 4.66985000E+03	 3.71467000E+03	 1.76275000E+04	 0.00000000E+00	 0.00000000E+00	 6.65046000E+03	 1.77165404E+04	 1.86407530E+03	 3.71467000E+03	 2.04332747E+04
					 1.40664000E+03	 2.82136000E+03	 1.52377000E+04	 4.39545000E-08	 3.05761000E-08	 2.86366000E+03	 1.40831183E+04	 8.37178098E+02	 2.82136000E+03	 1.58071619E+04
					 4.66985000E+03	 3.71467000E+03	 1.76275000E+04	 0.00000000E+00	 0.00000000E+00	 6.65046000E+03	 1.77165404E+04	 1.86407530E+03	 3.71467000E+03	 2.04332747E+04