<?xml version="1.0"?>
<VTKFile type="UnstructuredGrid" version="0.1" byte_order="LittleEndian">
	<UnstructuredGrid>
		<Piece NumberOfPoints="126" NumberOfCells="40">
			<Points>
				<DataArray type="Float64" NumberOfComponents="3" format="ascii">
					 5.00000000E-02	 0.00000000E+00	 0.00000000E+00
					 0.00000000E+00	 0.00000000E+00	 0.00000000E+00
					 0.00000000E+00	 0.00000000E+00	 5.00000000E-02
					 5.00000000E-02	 0.00000000E+00	 5.00000000E-02
					 5.00000000E-02	 3.00000000E-01	 0.00000000E+00
					 0.00000000E+00	 3.00000000E-01	 0.00000000E+00
					 0.00000000E+00	 3.00000000E-01	 5.00000000E-02
					 5.00000000E-02	 3.00000000E-01	 5.00000000E-02
					 0.00000000E+00	 0.00000000E+00	 1.00000000E-01
					 5.00000000E-02	 0.00000000E+00	 1.00000000E-01
					 0.00000000E+00	 3.00000000E-01	 1.00000000E-01
					 5.00000000E-02	 3.00000000E-01	 1.00000000E-01
					 0.00000000E+00	 0.00000000E+00	 1.50000000E-01
					 5.00000000E-02	 0.00000000E+00	 1.50000000E-01
					 0.00000000E+00	 3.00000000E-01	 1.50000000E-01
					 5.00000000E-02	 3.00000000E-01	 1.50000000E-01
					 0.00000000E+00	 0.00000000E+00	 2.00000000E-01
					 5.00000000E-02	 0.00000000E+00	 2.00000000E-01
					 0.00000000E+00	 3.00000000E-01	 2.00000000E-01
					 5.00000000E-02	 3.00000000E-01	 2.00000000E-01
					 0.00000000E+00	 0.00000000E+00	 2.50000000E-01
					 5.00000000E-02	 0.00000000E+00	 2.50000000E-01
					 0.00000000E+00	 3.00000000E-01	 2.50000000E-01
					 5.00000000E-02	 3.00000000E-01	 2.50000000E-01
					 0.00000000E+00	 0.00000000E+00	 3.00000000E-01
					 5.00000000E-02	 0.00000000E+00	 3.00000000E-01
					 0.00000000E+00	 3.00000000E-01	 3.00000000E-01
					 5.00000000E-02	 3.00000000E-01	 3.00000000E-01
					 0.00000000E+00	 0.00000000E+00	 3.50000000E-01
					 5.00000000E-02	 0.00000000E+00	 3.50000000E-01
					 0.00000000E+00	 3.00000000E-01	 3.50000000E-01
					 5.00000000E-02	 3.00000000E-01	 3.50000000E-01
					 0.00000000E+00	 0.00000000E+00	 4.00000000E-01
					 5.00000000E-02	 0.00000000E+00	 4.00000000E-01
					 0.00000000E+00	 3.00000000E-01	 4.00000000E-01
					 5.00000000E-02	 3.00000000E-01	 4.00000000E-01
					 0.00000000E+00	 0.00000000E+00	 4.50000000E-01
					 5.00000000E-02	 0.00000000E+00	 4.50000000E-01
					 0.00000000E+00	 3.00000000E-01	 4.50000000E-01
					 5.00000000E-02	 3.00000000E-01	 4.50000000E-01
					 0.00000000E+00	 0.00000000E+00	 5.00000000E-01
					 5.00000000E-02	 0.00000000E+00	 5.00000000E-01
					 0.00000000E+00	 3.00000000E-01	 5.00000000E-01
					 5.00000000E-02	 3.00000000E-01	 5.00000000E-01
					 0.00000000E+00	 0.00000000E+00	 5.50000000E-01
					 5.00000000E-02	 0.00000000E+00	 5.50000000E-01
					 0.00000000E+00	 3.00000000E-01	 5.50000000E-01
					 5.00000000E-02	 3.00000000E-01	 5.50000000E-01
					 0.00000000E+00	 0.00000000E+00	 6.00000000E-01
					 5.00000000E-02	 0.00000000E+00	 6.00000000E-01
					 0.00000000E+00	 3.00000000E-01	 6.00000000E-01
					 5.00000000E-02	 3.00000000E-01	 6.00000000E-01
					 0.00000000E+00	 0.00000000E+00	 6.50000000E-01
					 5.00000000E-02	 0.00000000E+00	 6.50000000E-01
					 0.00000000E+00	 3.00000000E-01	 6.50000000E-01
					 5.00000000E-02	 3.00000000E-01	 6.50000000E-01
					 0.00000000E+00	 0.00000000E+00	 7.00000000E-01
					 5.00000000E-02	 0.00000000E+00	 7.00000000E-01
					 0.00000000E+00	 3.00000000E-01	 7.00000000E-01
					 5.00000000E-02	 3.00000000E-01	 7.00000000E-01
					 0.00000000E+00	 0.00000000E+00	 7.50000000E-01
					 5.00000000E-02	 0.00000000E+00	 7.50000000E-01
					 0.00000000E+00	 3.00000000E-01	 7.50000000E-01
					 5.00000000E-02	 3.00000000E-01	 7.50000000E-01
					 0.00000000E+00	 0.00000000E+00	 8.00000000E-01
					 5.00000000E-02	 0.00000000E+00	 8.00000000E-01
					 0.00000000E+00	 3.00000000E-01	 8.00000000E-01
					 5.00000000E-02	 3.00000000E-01	 8.00000000E-01
					 0.00000000E+00	 0.00000000E+00	 8.50000000E-01
					 5.00000000E-02	 0.00000000E+00	 8.50000000E-01
					 0.00000000E+00	 3.00000000E-01	 8.50000000E-01
					 5.00000000E-02	 3.00000000E-01	 8.50000000E-01
					 0.00000000E+00	 0.00000000E+00	 9.00000000E-01
					 5.00000000E-02	 0.00000000E+00	 9.00000000E-01
					 0.00000000E+00	 3.00000000E-01	 9.00000000E-01
					 5.00000000E-02	 3.00000000E-01	 9.00000000E-01
					 0.00000000E+00	 0.00000000E+00	 9.50000000E-01
					 5.00000000E-02	 0.00000000E+00	 9.50000000E-01
					 0.00000000E+00	 3.00000000E-01	 9.50000000E-01
					 5.00000000E-02	 3.00000000E-01	 9.50000000E-01
					 0.00000000E+00	 0.00000000E+00	 1.00000000E+00
					 5.00000000E-02	 0.00000000E+00	 1.00000000E+00
					 0.00000000E+00	 3.00000000E-01	 1.00000000E+00
					 5.00000000E-02	 3.00000000E-01	 1.00000000E+00
					-5.00000000E-02	 0.00000000E+00	 0.00000000E+00
					-5.00000000E-02	 0.00000000E+00	 5.00000000E-02
					-5.00000000E-02	 3.00000000E-01	 0.00000000E+00
					-5.00000000E-02	 3.00000000E-01	 5.00000000E-02
					-5.00000000E-02	 0.00000000E+00	 1.00000000E-01
					-5.00000000E-02	 3.00000000E-01	 1.00000000E-01
					-5.00000000E-02	 0.00000000E+00	 1.50000000E-01
					-5.00000000E-02	 3.00000000E-01	 1.50000000E-01
					-5.00000000E-02	 0.00000000E+00	 2.00000000E-01
					-5.00000000E-02	 3.00000000E-01	 2.00000000E-01
					-5.00000000E-02	 0.00000000E+00	 2.50000000E-01
					-5.00000000E-02	 3.00000000E-01	 2.50000000E-01
					-5.00000000E-02	 0.00000000E+00	 3.00000000E-01
					-5.00000000E-02	 3.00000000E-01	 3.00000000E-01
					-5.00000000E-02	 0.00000000E+00	 3.50000000E-01
					-5.00000000E-02	 3.00000000E-01	 3.50000000E-01
					-5.00000000E-02	 0.00000000E+00	 4.00000000E-01
					-5.00000000E-02	 3.00000000E-01	 4.00000000E-01
					-5.00000000E-02	 0.00000000E+00	 4.50000000E-01
					-5.00000000E-02	 3.00000000E-01	 4.50000000E-01
					-5.00000000E-02	 0.00000000E+00	 5.00000000E-01
					-5.00000000E-02	 3.00000000E-01	 5.00000000E-01
					-5.00000000E-02	 0.00000000E+00	 5.50000000E-01
					-5.00000000E-02	 3.00000000E-01	 5.50000000E-01
					-5.00000000E-02	 0.00000000E+00	 6.00000000E-01
					-5.00000000E-02	 3.00000000E-01	 6.00000000E-01
					-5.00000000E-02	 0.00000000E+00	 6.50000000E-01
					-5.00000000E-02	 3.00000000E-01	 6.50000000E-01
					-5.00000000E-02	 0.00000000E+00	 7.00000000E-01
					-5.00000000E-02	 3.00000000E-01	 7.00000000E-01
					-5.00000000E-02	 0.00000000E+00	 7.50000000E-01
					-5.00000000E-02	 3.00000000E-01	 7.50000000E-01
					-5.00000000E-02	 0.00000000E+00	 8.00000000E-01
					-5.00000000E-02	 3.00000000E-01	 8.00000000E-01
					-5.00000000E-02	 0.00000000E+00	 8.50000000E-01
					-5.00000000E-02	 3.00000000E-01	 8.50000000E-01
					-5.00000000E-02	 0.00000000E+00	 9.00000000E-01
					-5.00000000E-02	 3.00000000E-01	 9.00000000E-01
					-5.00000000E-02	 0.00000000E+00	 9.50000000E-01
					-5.00000000E-02	 3.00000000E-01	 9.50000000E-01
					-5.00000000E-02	 0.00000000E+00	 1.00000000E+00
					-5.00000000E-02	 3.00000000E-01	 1.00000000E+00

				</DataArray>
			</Points>
			<Cells>
				<DataArray type="Int32" Name="connectivity" format="ascii">
					0 1 2 3 4 5 6 7 3 2 8 9 7 6 10 11 9 8 12 13 11 10 14 15 13 12 16 17 15 14 18 19 17 16 20 21 19 18 22 23 21 20 24 25 23 22 26 27 25 24 28 29 27 26 30 31 29 28 32 33 31 30 34 35 33 32 36 37 35 34 38 39 37 36 40 41 39 38 42 43 41 40 44 45 43 42 46 47 45 44 48 49 47 46 50 51 49 48 52 53 51 50 54 55 53 52 56 57 55 54 58 59 57 56 60 61 59 58 62 63 61 60 64 65 63 62 66 67 65 64 68 69 67 66 70 71 69 68 72 73 71 70 74 75 73 72 76 77 75 74 78 79 77 76 80 81 79 78 82 83 1 84 85 2 5 86 87 6 2 85 88 8 6 87 89 10 8 88 90 12 10 89 91 14 12 90 92 16 14 91 93 18 16 92 94 20 18 93 95 22 20 94 96 24 22 95 97 26 24 96 98 28 26 97 99 30 28 98 100 32 30 99 101 34 32 100 102 36 34 101 103 38 36 102 104 40 38 103 105 42 40 104 106 44 42 105 107 46 44 106 108 48 46 107 109 50 48 108 110 52 50 109 111 54 52 110 112 56 54 111 113 58 56 112 114 60 58 113 115 62 60 114 116 64 62 115 117 66 64 116 118 68 66 117 119 70 68 118 120 72 70 119 121 74 72 120 122 76 74 121 123 78 76 122 124 80 78 123 125 82 
				</DataArray>
				<DataArray type="Int32" Name="offsets" format="ascii">
					8 16 24 32 40 48 56 64 72 80 88 96 104 112 120 128 136 144 152 160 168 176 184 192 200 208 216 224 232 240 248 256 264 272 280 288 296 304 312 320 
				</DataArray>
				<DataArray type="UInt8" Name="types" format="ascii">
					12 12 12 12 12 12 12 12 12 12 12 12 12 12 12 12 12 12 12 12 12 12 12 12 12 12 12 12 12 12 12 12 12 12 12 12 12 12 12 12 
				</DataArray>
			</Cells>
			<PointData>
				<DataArray type="Float32" Name="U" NumberOfComponents="3" ComponentName0="D1" ComponentName1="D2" ComponentName2="D3" format="ascii">
					 0.00000000E+00	 0.00000000E+00	 0.00000000E+00
					 0.00000000E+00	 0.00000000E+00	 0.00000000E+00
					 3.83312000E-03	 0.00000000E+00	-4.86200000E-04
					 4.16160000E-03	 0.00000000E+00	-6.49985000E-03
					 0.00000000E+00	 0.00000000E+00	 0.00000000E+00
					 0.00000000E+00	 0.00000000E+00	 0.00000000E+00
					 3.83312000E-03	 0.00000000E+00	-4.86200000E-04
					 4.16160000E-03	 0.00000000E+00	-6.49985000E-03
					 1.34512000E-02	 0.00000000E+00	-1.50072000E-03
					 1.26444000E-02	 0.00000000E+00	-1.21658000E-02
					 1.34512000E-02	 0.00000000E+00	-1.50072000E-03
					 1.26444000E-02	 0.00000000E+00	-1.21658000E-02
					 2.67656000E-02	 0.00000000E+00	-3.30160000E-03
					 2.50668000E-02	 0.00000000E+00	-1.71970000E-02
					 2.67656000E-02	 0.00000000E+00	-3.30160000E-03
					 2.50668000E-02	 0.00000000E+00	-1.71970000E-02
					 4.26397000E-02	 0.00000000E+00	-5.81080000E-03
					 4.01705000E-02	 0.00000000E+00	-2.17535000E-02
					 4.26397000E-02	 0.00000000E+00	-5.81080000E-03
					 4.01705000E-02	 0.00000000E+00	-2.17535000E-02
					 5.99820000E-02	 0.00000000E+00	-8.78985000E-03
					 5.70143000E-02	 0.00000000E+00	-2.58225000E-02
					 5.99820000E-02	 0.00000000E+00	-8.78985000E-03
					 5.70143000E-02	 0.00000000E+00	-2.58225000E-02
					 7.79218000E-02	 0.00000000E+00	-1.19712000E-02
					 7.47281000E-02	 0.00000000E+00	-2.93263000E-02
					 7.79218000E-02	 0.00000000E+00	-1.19712000E-02
					 7.47281000E-02	 0.00000000E+00	-2.93263000E-02
					 9.57563000E-02	 0.00000000E+00	-1.51162000E-02
					 9.25972000E-02	 0.00000000E+00	-3.21953000E-02
					 9.57563000E-02	 0.00000000E+00	-1.51162000E-02
					 9.25972000E-02	 0.00000000E+00	-3.21953000E-02
					 1.12938000E-01	 0.00000000E+00	-1.80458000E-02
					 1.09994000E-01	 0.00000000E+00	-3.43935000E-02
					 1.12938000E-01	 0.00000000E+00	-1.80458000E-02
					 1.09994000E-01	 0.00000000E+00	-3.43935000E-02
					 1.29091000E-01	 0.00000000E+00	-2.06515000E-02
					 1.26468000E-01	 0.00000000E+00	-3.59629000E-02
					 1.29091000E-01	 0.00000000E+00	-2.06515000E-02
					 1.26468000E-01	 0.00000000E+00	-3.59629000E-02
					 1.43997000E-01	 0.00000000E+00	-2.28854000E-02
					 1.41733000E-01	 0.00000000E+00	-3.69824000E-02
					 1.43997000E-01	 0.00000000E+00	-2.28854000E-02
					 1.41733000E-01	 0.00000000E+00	-3.69824000E-02
					 1.57546000E-01	 0.00000000E+00	-2.47391000E-02
					 1.55652000E-01	 0.00000000E+00	-3.75430000E-02
					 1.57546000E-01	 0.00000000E+00	-2.47391000E-02
					 1.55652000E-01	 0.00000000E+00	-3.75430000E-02
					 1.69717000E-01	 0.00000000E+00	-2.62287000E-02
					 1.68155000E-01	 0.00000000E+00	-3.77358000E-02
					 1.69717000E-01	 0.00000000E+00	-2.62287000E-02
					 1.68155000E-01	 0.00000000E+00	-3.77358000E-02
					 1.80577000E-01	 0.00000000E+00	-2.73932000E-02
					 1.79299000E-01	 0.00000000E+00	-3.76717000E-02
					 1.80577000E-01	 0.00000000E+00	-2.73932000E-02
					 1.79299000E-01	 0.00000000E+00	-3.76717000E-02
					 1.90237000E-01	 0.00000000E+00	-2.82915000E-02
					 1.89195000E-01	 0.00000000E+00	-3.74360000E-02
					 1.90237000E-01	 0.00000000E+00	-2.82915000E-02
					 1.89195000E-01	 0.00000000E+00	-3.74360000E-02
					 1.98789000E-01	 0.00000000E+00	-2.89754000E-02
					 1.97949000E-01	 0.00000000E+00	-3.70829000E-02
					 1.98789000E-01	 0.00000000E+00	-2.89754000E-02
					 1.97949000E-01	 0.00000000E+00	-3.70829000E-02
					 2.06312000E-01	 0.00000000E+00	-2.94826000E-02
					 2.05634000E-01	 0.00000000E+00	-3.66770000E-02
					 2.06312000E-01	 0.00000000E+00	-2.94826000E-02
					 2.05634000E-01	 0.00000000E+00	-3.66770000E-02
					 2.12949000E-01	 0.00000000E+00	-2.98533000E-02
					 2.12399000E-01	 0.00000000E+00	-3.63329000E-02
					 2.12949000E-01	 0.00000000E+00	-2.98533000E-02
					 2.12399000E-01	 0.00000000E+00	-3.63329000E-02
					 2.18962000E-01	 0.00000000E+00	-3.01439000E-02
					 2.18504000E-01	 0.00000000E+00	-3.61714000E-02
					 2.18962000E-01	 0.00000000E+00	-3.01439000E-02
					 2.18504000E-01	 0.00000000E+00	-3.61714000E-02
					 2.24688000E-01	 0.00000000E+00	-3.04164000E-02
					 2.24293000E-01	 0.00000000E+00	-3.62501000E-02
					 2.24688000E-01	 0.00000000E+00	-3.04164000E-02
					 2.24293000E-01	 0.00000000E+00	-3.62501000E-02
					 2.30421000E-01	 0.00000000E+00	-3.07255000E-02
					 2.30053000E-01	 0.00000000E+00	-3.65218000E-02
					 2.30421000E-01	 0.00000000E+00	-3.07255000E-02
					 2.30053000E-01	 0.00000000E+00	-3.65218000E-02
					 0.00000000E+00	 0.00000000E+00	 0.00000000E+00
					 5.19258000E-03	 0.00000000E+00	 5.31216000E-03
					 0.00000000E+00	 0.00000000E+00	 0.00000000E+00
					 5.19258000E-03	 0.00000000E+00	 5.31216000E-03
					 1.51891000E-02	 0.00000000E+00	 8.83953000E-03
					 1.51891000E-02	 0.00000000E+00	 8.83953000E-03
					 2.91396000E-02	 0.00000000E+00	 1.03085000E-02
					 2.91396000E-02	 0.00000000E+00	 1.03085000E-02
					 4.55186000E-02	 0.00000000E+00	 9.95408000E-03
					 4.55186000E-02	 0.00000000E+00	 9.95408000E-03
					 6.31512000E-02	 0.00000000E+00	 8.16181000E-03
					 6.31512000E-02	 0.00000000E+00	 8.16181000E-03
					 8.11479000E-02	 0.00000000E+00	 5.36918000E-03
					 8.11479000E-02	 0.00000000E+00	 5.36918000E-03
					 9.88052000E-02	 0.00000000E+00	 1.99620000E-03
					 9.88052000E-02	 0.00000000E+00	 1.99620000E-03
					 1.15678000E-01	 0.00000000E+00	-1.63103000E-03
					 1.15678000E-01	 0.00000000E+00	-1.63103000E-03
					 1.31448000E-01	 0.00000000E+00	-5.25323000E-03
					 1.31448000E-01	 0.00000000E+00	-5.25323000E-03
					 1.45968000E-01	 0.00000000E+00	-8.70341000E-03
					 1.45968000E-01	 0.00000000E+00	-8.70341000E-03
					 1.59132000E-01	 0.00000000E+00	-1.18563000E-02
					 1.59132000E-01	 0.00000000E+00	-1.18563000E-02
					 1.70983000E-01	 0.00000000E+00	-1.46491000E-02
					 1.70983000E-01	 0.00000000E+00	-1.46491000E-02
					 1.81578000E-01	 0.00000000E+00	-1.70545000E-02
					 1.81578000E-01	 0.00000000E+00	-1.70545000E-02
					 1.91032000E-01	 0.00000000E+00	-1.91044000E-02
					 1.91032000E-01	 0.00000000E+00	-1.91044000E-02
					 1.99401000E-01	 0.00000000E+00	-2.08342000E-02
					 1.99401000E-01	 0.00000000E+00	-2.08342000E-02
					 2.06804000E-01	 0.00000000E+00	-2.22604000E-02
					 2.06804000E-01	 0.00000000E+00	-2.22604000E-02
					 2.13370000E-01	 0.00000000E+00	-2.33567000E-02
					 2.13370000E-01	 0.00000000E+00	-2.33567000E-02
					 2.19361000E-01	 0.00000000E+00	-2.41152000E-02
					 2.19361000E-01	 0.00000000E+00	-2.41152000E-02
					 2.25072000E-01	 0.00000000E+00	-2.45939000E-02
					 2.25072000E-01	 0.00000000E+00	-2.45939000E-02
					 2.30793000E-01	 0.00000000E+00	-2.49360000E-02
					 2.30793000E-01	 0.00000000E+00	-2.49360000E-02
				</DataArray>
				<DataArray type="Float32" Name="S" NumberOfComponents="10" ComponentName0="xx" ComponentName1="yy" ComponentName2="zz" ComponentName3="xy" ComponentName4="yz" ComponentName5="zx" ComponentName6="Mises" ComponentName7="Min Principal" ComponentName8="Mid Principal" ComponentName9="Max Principal" format="ascii">
					-3.98685000E+03	-4.51602000E+03	-1.43703000E+04	 0.00000000E+00	 0.00000000E+00	 2.87379000E+03	 1.12861619E+04	-1.51126021E+04	-4.51602000E+03	-3.24454792E+03
					 2.22705000E+02	-2.25454000E+02	-1.62419000E+03	 0.00000000E+00	 0.00000000E+00	 3.69438000E+03	 6.61282812E+03	-4.50878647E+03	-2.25454000E+02	 3.10730147E+03
					-7.52753000E+01	-2.54551000E+02	-1.44948000E+03	-3.95184000E-08	 1.87781000E-08	 6.99358000E+02	 1.77243382E+03	-1.74279147E+03	-2.54551000E+02	 2.18036166E+02
					-1.75725000E+03	-3.39477000E+03	-1.24654000E+04	-4.60476000E-08	-1.05850000E-08	-3.83842000E+02	 1.00126491E+04	-1.24791415E+04	-3.39477000E+03	-1.74350852E+03
					-3.98685000E+03	-4.51602000E+03	-1.43703000E+04	 0.00000000E+00	 0.00000000E+00	 2.87379000E+03	 1.12861619E+04	-1.51126021E+04	-4.51602000E+03	-3.24454792E+03
					 2.22705000E+02	-2.25454000E+02	-1.62419000E+03	 0.00000000E+00	 0.00000000E+00	 3.69438000E+03	 6.61282812E+03	-4.50878647E+03	-2.25454000E+02	 3.10730147E+03
					-7.52753000E+01	-2.54551000E+02	-1.44948000E+03	-3.95184000E-08	 1.87780000E-08	 6.99358000E+02	 1.77243382E+03	-1.74279147E+03	-2.54551000E+02	 2.18036166E+02
					-1.75725000E+03	-3.39477000E+03	-1.24654000E+04	-4.60476000E-08	-1.05848000E-08	-3.83842000E+02	 1.00126491E+04	-1.24791415E+04	-3.39477000E+03	-1.74350852E+03
					 9.82874000E+01	-1.28891000E+02	-9.38086000E+02	 2.89961000E-08	-5.97935000E-09	 8.29611000E+02	 1.71901176E+03	-1.39804646E+03	-1.28891000E+02	 5.58247860E+02
					-1.88047000E+03	-2.60137000E+03	-9.56681000E+03	 0.00000000E+00	-6.57424000E-08	-1.02439000E+03	 7.56350193E+03	-9.70099220E+03	-2.60137000E+03	-1.74628780E+03
					 9.82874000E+01	-1.28891000E+02	-9.38086000E+02	 2.89960000E-08	-5.97940000E-09	 8.29611000E+02	 1.71901176E+03	-1.39804646E+03	-1.28891000E+02	 5.58247860E+02
					-1.88047000E+03	-2.60137000E+03	-9.56681000E+03	 0.00000000E+00	-6.57423000E-08	-1.02439000E+03	 7.56350193E+03	-9.70099220E+03	-2.60137000E+03	-1.74628780E+03
					 2.82693000E+02	-4.39726000E+01	-5.84495000E+02	 1.15641000E-07	-4.43040000E-08	 7.24690000E+02	 1.46661915E+03	-9.95400469E+02	-4.39726000E+01	 6.93598469E+02
					-1.16240000E+03	-1.68259000E+03	-6.55503000E+03	 1.01989000E-07	-5.11234000E-08	-9.05140000E+02	 5.38550824E+03	-6.70290082E+03	-1.68259000E+03	-1.01452918E+03
					 2.82693000E+02	-4.39726000E+01	-5.84495000E+02	 1.15641000E-07	-4.43038000E-08	 7.24690000E+02	 1.46661915E+03	-9.95400469E+02	-4.39726000E+01	 6.93598469E+02
					-1.16240000E+03	-1.68259000E+03	-6.55503000E+03	 1.01988000E-07	-5.11229000E-08	-9.05140000E+02	 5.38550824E+03	-6.70290082E+03	-1.68259000E+03	-1.01452918E+03
					 3.37802000E+02	 3.88248000E+00	-3.43542000E+02	 1.22972000E-07	-1.69846000E-08	 6.70366000E+02	 1.30245520E+03	-7.54832755E+02	 3.88248000E+00	 7.49092755E+02
					-6.73183000E+02	-9.88281000E+02	-4.01488000E+03	 1.06387000E-07	 5.98752000E-09	-5.31489000E+02	 3.32576386E+03	-4.09737552E+03	-9.88281000E+02	-5.90687476E+02
					 3.37802000E+02	 3.88248000E+00	-3.43542000E+02	 1.22972000E-07	-1.69847000E-08	 6.70366000E+02	 1.30245520E+03	-7.54832755E+02	 3.88248000E+00	 7.49092755E+02
					-6.73183000E+02	-9.88281000E+02	-4.01488000E+03	 1.06389000E-07	 5.98746000E-09	-5.31489000E+02	 3.32576386E+03	-4.09737552E+03	-9.88281000E+02	-5.90687476E+02
					 3.11723000E+02	 2.70949000E+01	-1.73881000E+02	 5.34877000E-08	 1.67681000E-08	 6.00415000E+02	 1.12254282E+03	-5.78729356E+02	 2.70949000E+01	 7.16571356E+02
					-2.11786000E+02	-4.30020000E+02	-1.87881000E+03	 7.11278000E-08	 1.39439000E-08	-4.63997000E+01	 1.57138556E+03	-1.88010048E+03	-4.30020000E+02	-2.10495517E+02
					 3.11723000E+02	 2.70949000E+01	-1.73881000E+02	 5.34880000E-08	 1.67677000E-08	 6.00415000E+02	 1.12254282E+03	-5.78729356E+02	 2.70949000E+01	 7.16571356E+02
					-2.11786000E+02	-4.30020000E+02	-1.87881000E+03	 7.11259000E-08	 1.39448000E-08	-4.63997000E+01	 1.57138556E+03	-1.88010048E+03	-4.30020000E+02	-2.10495517E+02
					 2.16698000E+02	 2.59800000E+01	-7.76953000E+01	 4.72207000E-08	-1.88231000E-08	 5.21436000E+02	 9.39457916E+02	-4.72312599E+02	 2.59800000E+01	 6.11315299E+02
					 1.50896000E+02	-1.42783000E-01	-1.35533000E+02	 7.33119000E-08	-1.08920000E-08	 4.12789000E+02	 7.56820107E+02	-4.29245441E+02	-1.42783000E-01	 4.44608441E+02
					 2.16698000E+02	 2.59800000E+01	-7.76953000E+01	 4.72188000E-08	-1.88232000E-08	 5.21436000E+02	 9.39457916E+02	-4.72312599E+02	 2.59800000E+01	 6.11315299E+02
					 1.50896000E+02	-1.42783000E-01	-1.35533000E+02	 7.33117000E-08	-1.08920000E-08	 4.12789000E+02	 7.56820107E+02	-4.29245441E+02	-1.42783000E-01	 4.44608441E+02
					 1.46176000E+02	 2.42555000E+01	-2.08484000E+01	 4.67067000E-08	-1.89732000E-08	 4.08047000E+02	 7.22430012E+02	-3.53841472E+02	 2.42555000E+01	 4.79169072E+02
					 4.39958000E+02	 3.28830000E+02	 1.25076000E+03	 2.10978000E-08	 1.20897000E-08	 7.47676000E+02	 1.56106064E+03	-5.15224142E+00	 3.28830000E+02	 1.69587024E+03
					 1.46176000E+02	 2.42555000E+01	-2.08484000E+01	 4.67052000E-08	-1.89729000E-08	 4.08047000E+02	 7.22430012E+02	-3.53841472E+02	 2.42555000E+01	 4.79169072E+02
					 4.39958000E+02	 3.28830000E+02	 1.25076000E+03	 2.10989000E-08	 1.20898000E-08	 7.47676000E+02	 1.56106064E+03	-5.15224142E+00	 3.28830000E+02	 1.69587024E+03
					 5.02788000E+01	 7.84406000E+00	-1.62186000E+01	 2.64048000E-08	 8.76495000E-09	 2.88129000E+02	 5.02449772E+02	-2.73010926E+02	 7.84406000E+00	 3.07071126E+02
					 5.91279000E+02	 5.49310000E+02	 2.25221000E+03	 1.07934000E-08	 9.97624000E-09	 9.28535000E+02	 2.32737890E+03	 1.76011706E+02	 5.49310000E+02	 2.66747729E+03
					 5.02788000E+01	 7.84406000E+00	-1.62186000E+01	 2.64036000E-08	 8.76577000E-09	 2.88129000E+02	 5.02449772E+02	-2.73010926E+02	 7.84406000E+00	 3.07071126E+02
					 5.91279000E+02	 5.49310000E+02	 2.25221000E+03	 1.07897000E-08	 9.97373000E-09	 9.28535000E+02	 2.32737890E+03	 1.76011706E+02	 5.49310000E+02	 2.66747729E+03
					-3.13790000E+01	-1.05026000E+01	-3.48832000E+01	 2.69863000E-08	-2.76573000E-09	 1.77970000E+02	 3.09097430E+02	-2.11109724E+02	-1.05026000E+01	 1.44847524E+02
					 6.32268000E+02	 6.76578000E+02	 2.88731000E+03	 3.09533000E-08	-2.80836000E-08	 9.71176000E+02	 2.79585503E+03	 2.71673941E+02	 6.76578000E+02	 3.24790406E+03
					-3.13790000E+01	-1.05026000E+01	-3.48832000E+01	 2.69853000E-08	-2.76527000E-09	 1.77970000E+02	 3.09097430E+02	-2.11109724E+02	-1.05026000E+01	 1.44847524E+02
					 6.32268000E+02	 6.76578000E+02	 2.88731000E+03	 3.09555000E-08	-2.80827000E-08	 9.71176000E+02	 2.79585503E+03	 2.71673941E+02	 6.76578000E+02	 3.24790406E+03
					-1.14668000E+02	-3.10423000E+01	-5.95843000E+01	 2.58290000E-09	-8.65541000E-09	 9.40686000E+01	 1.78795311E+02	-1.85143776E+02	-3.10423000E+01	 1.08914760E+01
					 5.94517000E+02	 7.33635000E+02	 3.23089000E+03	 0.00000000E+00	-3.01455000E-08	 9.23979000E+02	 3.02725305E+03	 3.02935554E+02	 7.33635000E+02	 3.52247145E+03
					-1.14668000E+02	-3.10423000E+01	-5.95843000E+01	 2.58946000E-09	-8.65675000E-09	 9.40686000E+01	 1.78795311E+02	-1.85143776E+02	-3.10423000E+01	 1.08914760E+01
					 5.94517000E+02	 7.33635000E+02	 3.23089000E+03	 0.00000000E+00	-3.01455000E-08	 9.23979000E+02	 3.02725305E+03	 3.02935554E+02	 7.33635000E+02	 3.52247145E+03
					-1.28590000E+02	-3.02906000E+01	-4.37606000E+01	 3.94498000E-08	 0.00000000E+00	 2.25656000E+01	 1.00238410E+02	-1.34219166E+02	-3.81314338E+01	-3.02906000E+01
					 5.54334000E+02	 7.53611000E+02	 3.37641000E+03	 3.52732000E-08	-2.89537000E-08	 8.12107000E+02	 3.06920230E+03	 3.37322241E+02	 7.53611000E+02	 3.59342176E+03
					-1.28590000E+02	-3.02906000E+01	-4.37606000E+01	 3.94509000E-08	 0.00000000E+00	 2.25656000E+01	 1.00238410E+02	-1.34219166E+02	-3.81314338E+01	-3.02906000E+01
					 5.54334000E+02	 7.53611000E+02	 3.37641000E+03	 3.52499000E-08	-2.89516000E-08	 8.12107000E+02	 3.06920230E+03	 3.37322241E+02	 7.53611000E+02	 3.59342176E+03
					-1.51257000E+02	-2.72746000E+01	-5.48335000E+00	 6.97739000E-08	 4.18813000E-09	-1.66253000E+01	 1.39202828E+02	-1.53129053E+02	-2.72746000E+01	-3.61129687E+00
					 4.77163000E+02	 7.33484000E+02	 3.34382000E+03	 7.86047000E-08	-2.14057000E-09	 6.77199000E+02	 2.98737910E+03	 3.25237869E+02	 7.33484000E+02	 3.49574513E+03
					-1.51257000E+02	-2.72746000E+01	-5.48335000E+00	 6.97731000E-08	 4.18653000E-09	-1.66253000E+01	 1.39202828E+02	-1.53129053E+02	-2.72746000E+01	-3.61129687E+00
					 4.77163000E+02	 7.33484000E+02	 3.34382000E+03	 7.86118000E-08	-2.13945000E-09	 6.77199000E+02	 2.98737910E+03	 3.25237869E+02	 7.33484000E+02	 3.49574513E+03
					-1.56424000E+02	-1.90580000E+01	 4.28284000E+01	 4.88700000E-08	 8.35814000E-09	-3.25165000E+01	 1.85397950E+02	-1.61596190E+02	-1.90580000E+01	 4.80005898E+01
					 3.98778000E+02	 6.89352000E+02	 3.18436000E+03	 4.93930000E-08	 2.49031000E-08	 5.48598000E+02	 2.81733241E+03	 2.94629945E+02	 6.89352000E+02	 3.28850806E+03
					-1.56424000E+02	-1.90580000E+01	 4.28284000E+01	 4.88712000E-08	 8.36011000E-09	-3.25165000E+01	 1.85397950E+02	-1.61596190E+02	-1.90580000E+01	 4.80005898E+01
					 3.98778000E+02	 6.89352000E+02	 3.18436000E+03	 4.93937000E-08	 2.49020000E-08	 5.48598000E+02	 2.81733241E+03	 2.94629945E+02	 6.89352000E+02	 3.28850806E+03
					-1.68563000E+02	-1.53705000E+01	 7.66762000E+01	 2.35998000E-08	 6.01520000E-09	-4.11221000E+01	 2.26085122E+02	-1.75274732E+02	-1.53705000E+01	 8.33879319E+01
					 3.27668000E+02	 6.36125000E+02	 2.97054000E+03	 3.80237000E-08	 3.91346000E-08	 4.35852000E+02	 2.61430806E+03	 2.57644310E+02	 6.36125000E+02	 3.04056369E+03
					-1.68563000E+02	-1.53705000E+01	 7.66762000E+01	 2.36078000E-08	 6.01690000E-09	-4.11221000E+01	 2.26085122E+02	-1.75274732E+02	-1.53705000E+01	 8.33879319E+01
					 3.27668000E+02	 6.36125000E+02	 2.97054000E+03	 3.80226000E-08	 3.91348000E-08	 4.35852000E+02	 2.61430806E+03	 2.57644310E+02	 6.36125000E+02	 3.04056369E+03
					-1.43226000E+02	-2.62259000E+00	 1.19131000E+02	-4.91626000E-08	 5.66170000E-09	-6.88400000E+01	 2.56766552E+02	-1.60191837E+02	-2.62259000E+00	 1.36096837E+02
					 2.79474000E+02	 5.79449000E+02	 2.71624000E+03	-3.96591000E-08	 4.89013000E-08	 3.17361000E+02	 2.36622033E+03	 2.38819614E+02	 5.79449000E+02	 2.75689439E+03
					-1.43226000E+02	-2.62259000E+00	 1.19131000E+02	-4.91869000E-08	 5.66091000E-09	-6.88400000E+01	 2.56766552E+02	-1.60191837E+02	-2.62259000E+00	 1.36096837E+02
					 2.79474000E+02	 5.79449000E+02	 2.71624000E+03	-3.96554000E-08	 4.89017000E-08	 3.17361000E+02	 2.36622033E+03	 2.38819614E+02	 5.79449000E+02	 2.75689439E+03
					-1.51115000E+02	 2.77371000E+00	 1.58488000E+02	-1.17022000E-07	 0.00000000E+00	-1.08427000E+02	 3.27353921E+02	-1.85310639E+02	 2.77371000E+00	 1.92683639E+02
					 1.96100000E+02	 4.89108000E+02	 2.32226000E+03	-7.93728000E-08	 3.01440000E-08	 1.86484000E+02	 2.02182022E+03	 1.79867548E+02	 4.89108000E+02	 2.33849245E+03
					-1.51115000E+02	 2.77371000E+00	 1.58488000E+02	-1.17020000E-07	 0.00000000E+00	-1.08427000E+02	 3.27353921E+02	-1.85310639E+02	 2.77371000E+00	 1.92683639E+02
					 1.96100000E+02	 4.89108000E+02	 2.32226000E+03	-7.93730000E-08	 3.01434000E-08	 1.86484000E+02	 2.02182022E+03	 1.79867548E+02	 4.89108000E+02	 2.33849245E+03
					-1.55502000E+02	 6.33055000E+00	 1.84472000E+02	-1.08324000E-07	-2.28220000E-09	-1.43256000E+02	 3.85123461E+02	-2.07816286E+02	 6.33055000E+00	 2.36786286E+02
					 9.66925000E+01	 3.56998000E+02	 1.73025000E+03	-1.15676000E-07	 1.51050000E-08	 6.09605000E+01	 1.52387454E+03	 9.44207577E+01	 3.56998000E+02	 1.73252174E+03
					-1.55502000E+02	 6.33055000E+00	 1.84472000E+02	-1.08312000E-07	-2.28218000E-09	-1.43256000E+02	 3.85123461E+02	-2.07816286E+02	 6.33055000E+00	 2.36786286E+02
					 9.66925000E+01	 3.56998000E+02	 1.73025000E+03	-1.15684000E-07	 1.51048000E-08	 6.09605000E+01	 1.52387454E+03	 9.44207577E+01	 3.56998000E+02	 1.73252174E+03
					-1.62906000E+02	 3.38810000E-01	 1.64233000E+02	-1.26768000E-07	 1.68605000E-08	-1.40203000E+02	 3.73142993E+02	-2.14770626E+02	 3.38810000E-01	 2.16097626E+02
					-3.12349000E+00	 2.00238000E+02	 1.02034000E+03	-1.23140000E-07	 2.92283000E-08	-1.97593000E+01	 9.39080210E+02	-3.50482702E+00	 2.00238000E+02	 1.02072134E+03
					-1.62906000E+02	 3.38810000E-01	 1.64233000E+02	-1.26774000E-07	 1.68602000E-08	-1.40203000E+02	 3.73142993E+02	-2.14770626E+02	 3.38810000E-01	 2.16097626E+02
					-3.12349000E+00	 2.00238000E+02	 1.02034000E+03	-1.23137000E-07	 2.92292000E-08	-1.97593000E+01	 9.39080210E+02	-3.50482702E+00	 2.00238000E+02	 1.02072134E+03
					-1.25852000E+02	-6.70107000E+00	 9.26347000E+01	-1.62727000E-07	 2.16568000E-08	-8.64864000E+01	 2.41537121E+02	-1.55942806E+02	-6.70107000E+00	 1.22725506E+02
					-4.96633000E+01	 7.00508000E+01	 4.03211000E+02	-1.46832000E-07	 5.72512000E-08	-3.33570000E+01	 4.10547472E+02	-5.21070630E+01	 7.00508000E+01	 4.05654763E+02
					-1.25852000E+02	-6.70107000E+00	 9.26347000E+01	-1.62723000E-07	 2.16569000E-08	-8.64864000E+01	 2.41537121E+02	-1.55942806E+02	-6.70107000E+00	 1.22725506E+02
					-4.96633000E+01	 7.00508000E+01	 4.03211000E+02	-1.46827000E-07	 5.72507000E-08	-3.33570000E+01	 4.10547472E+02	-5.21070630E+01	 7.00508000E+01	 4.05654763E+02
					-8.88202000E+01	-8.55729000E+00	 4.62979000E+01	-2.30502000E-07	 2.13470000E-08	-5.24772000E+01	 1.48713259E+02	-1.06806937E+02	-8.55729000E+00	 6.42846375E+01
					-5.03476000E+01	 1.98769000E+01	 1.50166000E+02	-2.30275000E-07	 6.61291000E-08	-2.52103000E+01	 1.81556863E+02	-5.34686756E+01	 1.98769000E+01	 1.53287076E+02
					-8.88202000E+01	-8.55729000E+00	 4.62979000E+01	-2.30484000E-07	 2.13487000E-08	-5.24772000E+01	 1.48713259E+02	-1.06806937E+02	-8.55729000E+00	 6.42846375E+01
					-5.03476000E+01	 1.98769000E+01	 1.50166000E+02	-2.30313000E-07	 6.61337000E-08	-2.52103000E+01	 1.81556863E+02	-5.34686756E+01	 1.98769000E+01	 1.53287076E+02
					 4.51381000E+03	 3.52977000E+03	 1.65054000E+04	 0.00000000E+00	 0.00000000E+00	 6.65036000E+03	 1.70073112E+04	 1.55545257E+03	 3.52977000E+03	 1.94637574E+04
					 1.43054000E+03	 2.62882000E+03	 1.38574000E+04	-2.09020000E-09	 2.78766000E-08	 2.79827000E+03	 1.28243055E+04	 8.29498094E+02	 2.62882000E+03	 1.44584419E+04
					 4.51381000E+03	 3.52977000E+03	 1.65054000E+04	 0.00000000E+00	 0.00000000E+00	 6.65036000E+03	 1.70073112E+04	 1.55545257E+03	 3.52977000E+03	 1.94637574E+04