<?xml version="1.0"?>
<VTKFile type="UnstructuredGrid" version="0.1" byte_order="LittleEndian">
	<UnstructuredGrid>
		<Piece NumberOfPoints="126" NumberOfCells="40">
			<Points>
				<DataArray type="Float64" NumberOfComponents="3" format="ascii">
					 5.00000000E-02	 0.00000000E+00	 0.00000000E+00
					 0.00000000E+00	 0.00000000E+00	 0.00000000E+00
					 0.00000000E+00	 0.00000000E+00	 5.00000000E-02
					 5.00000000E-02	 0.00000000E+00	 5.00000000E-02
					 5.00000000E-02	 3.00000000E-01	 0.00000000E+00
					 0.00000000E+00	 3.00000000E-01	 0.00000000E+00
					 0.00000000E+00	 3.00000000E-01	 5.00000000E-02
					 5.00000000E-02	 3.00000000E-01	 5.00000000E-02
					 0.00000000E+00	 0.00000000E+00	 1.00000000E-01
					 5.00000000E-02	 0.00000000E+00	 1.00000000E-01
					 0.00000000E+00	 3.00000000E-01	 1.00000000E-01
					 5.00000000E-02	 3.00000000E-01	 1.00000000E-01
					 0.00000000E+00	 0.00000000E+00	 1.50000000E-01
					 5.00000000E-02	 0.00000000E+00	 1.50000000E-01
					 0.00000000E+00	 3.00000000E-01	 1.50000000E-01
					 5.00000000E-02	 3.00000000E-01	 1.50000000E-01
					 0.00000000E+00	 0.00000000E+00	 2.00000000E-01
					 5.00000000E-02	 0.00000000E+00	 2.00000000E-01
					 0.00000000E+00	 3.00000000E-01	 2.00000000E-01
					 5.00000000E-02	 3.00000000E-01	 2.00000000E-01
					 0.00000000E+00	 0.00000000E+00	 2.50000000E-01
					 5.00000000E-02	 0.00000000E+00	 2.50000000E-01
					 0.00000000E+00	 3.00000000E-01	 2.50000000E-01
					 5.00000000E-02	 3.00000000E-01	 2.50000000E-01
					 0.00000000E+00	 0.00000000E+00	 3.00000000E-01
					 5.00000000E-02	 0.00000000E+00	 3.00000000E-01
					 0.00000000E+00	 3.00000000E-01	 3.00000000E-01
					 5.00000000E-02	 3.00000000E-01	 3.00000000E-01
					 0.00000000E+00	 0.00000000E+00	 3.50000000E-01
					 5.00000000E-02	 0.00000000E+00	 3.50000000E-01
					 0.00000000E+00	 3.00000000E-01	 3.50000000E-01
					 5.00000000E-02	 3.00000000E-01	 3.50000000E-01
					 0.00000000E+00	 0.00000000E+00	 4.00000000E-01
					 5.00000000E-02	 0.00000000E+00	 4.00000000E-01
					 0.00000000E+00	 3.00000000E-01	 4.00000000E-01
					 5.00000000E-02	 3.00000000E-01	 4.00000000E-01
					 0.00000000E+00	 0.00000000E+00	 4.50000000E-01
					 5.00000000E-02	 0.00000000E+00	 4.50000000E-01
					 0.00000000E+00	 3.00000000E-01	 4.50000000E-01
					 5.00000000E-02	 3.00000000E-01	 4.50000000E-01
					 0.00000000E+00	 0.00000000E+00	 5.00000000E-01
					 5.00000000E-02	 0.00000000E+00	 5.00000000E-01
					 0.00000000E+00	 3.00000000E-01	 5.00000000E-01
					 5.00000000E-02	 3.00000000E-01	 5.00000000E-01
					 0.00000000E+00	 0.00000000E+00	 5.50000000E-01
					 5.00000000E-02	 0.00000000E+00	 5.50000000E-01
					 0.00000000E+00	 3.00000000E-01	 5.50000000E-01
					 5.00000000E-02	 3.00000000E-01	 5.50000000E-01
					 0.00000000E+00	 0.00000000E+00	 6.00000000E-01
					 5.00000000E-02	 0.00000000E+00	 6.00000000E-01
					 0.00000000E+00	 3.00000000E-01	 6.00000000E-01
					 5.00000000E-02	 3.00000000E-01	 6.00000000E-01
					 0.00000000E+00	 0.00000000E+00	 6.50000000E-01
					 5.00000000E-02	 0.00000000E+00	 6.50000000E-01
					 0.00000000E+00	 3.00000000E-01	 6.50000000E-01
					 5.00000000E-02	 3.00000000E-01	 6.50000000E-01
					 0.00000000E+00	 0.00000000E+00	 7.00000000E-01
					 5.00000000E-02	 0.00000000E+00	 7.00000000E-01
					 0.00000000E+00	 3.00000000E-01	 7.00000000E-01
					 5.00000000E-02	 3.00000000E-01	 7.00000000E-01
					 0.00000000E+00	 0.00000000E+00	 7.50000000E-01
					 5.00000000E-02	 0.00000000E+00	 7.50000000E-01
					 0.00000000E+00	 3.00000000E-01	 7.50000000E-01
					 5.00000000E-02	 3.00000000E-01	 7.50000000E-01
					 0.00000000E+00	 0.00000000E+00	 8.00000000E-01
					 5.00000000E-02	 0.00000000E+00	 8.00000000E-01
					 0.00000000E+00	 3.00000000E-01	 8.00000000E-01
					 5.00000000E-02	 3.00000000E-01	 8.00000000E-01
					 0.00000000E+00	 0.00000000E+00	 8.50000000E-01
					 5.00000000E-02	 0.00000000E+00	 8.50000000E-01
					 0.00000000E+00	 3.00000000E-01	 8.50000000E-01
					 5.00000000E-02	 3.00000000E-01	 8.50000000E-01
					 0.00000000E+00	 0.00000000E+00	 9.00000000E-01
					 5.00000000E-02	 0.00000000E+00	 9.00000000E-01
					 0.00000000E+00	 3.00000000E-01	 9.00000000E-01
					 5.00000000E-02	 3.00000000E-01	 9.00000000E-01
					 0.00000000E+00	 0.00000000E+00	 9.50000000E-01
					 5.00000000E-02	 0.00000000E+00	 9.50000000E-01
					 0.00000000E+00	 3.00000000E-01	 9.50000000E-01
					 5.00000000E-02	 3.00000000E-01	 9.50000000E-01
					 0.00000000E+00	 0.00000000E+00	 1.00000000E+00
					 5.00000000E-02	 0.00000000E+00	 1.00000000E+00
					 0.00000000E+00	 3.00000000E-01	 1.00000000E+00
					 5.00000000E-02	 3.00000000E-01	 1.00000000E+00
					-5.00000000E-02	 0.00000000E+00	 0.00000000E+00
					-5.00000000E-02	 0.00000000E+00	 5.00000000E-02
					-5.00000000E-02	 3.00000000E-01	 0.00000000E+00
					-5.00000000E-02	 3.00000000E-01	 5.00000000E-02
					-5.00000000E-02	 0.00000000E+00	 1.00000000E-01
					-5.00000000E-02	 3.00000000E-01	 1.00000000E-01
					-5.00000000E-02	 0.00000000E+00	 1.50000000E-01
					-5.00000000E-02	 3.00000000E-01	 1.50000000E-01
					-5.00000000E-02	 0.00000000E+00	 2.00000000E-01
					-5.00000000E-02	 3.00000000E-01	 2.00000000E-01
					-5.00000000E-02	 0.00000000E+00	 2.50000000E-01
					-5.00000000E-02	 3.00000000E-01	 2.50000000E-01
					-5.00000000E-02	 0.00000000E+00	 3.00000000E-01
					-5.00000000E-02	 3.00000000E-01	 3.00000000E-01
					-5.00000000E-02	 0.00000000E+00	 3.50000000E-01
					-5.00000000E-02	 3.00000000E-01	 3.50000000E-01
					-5.00000000E-02	 0.00000000E+00	 4.00000000E-01
					-5.00000000E-02	 3.00000000E-01	 4.00000000E-01
					-5.00000000E-02	 0.00000000E+00	 4.50000000E-01
					-5.00000000E-02	 3.00000000E-01	 4.50000000E-01
					-5.00000000E-02	 0.00000000E+00	 5.00000000E-01
					-5.00000000E-02	 3.00000000E-01	 5.00000000E-01
					-5.00000000E-02	 0.00000000E+00	 5.50000000E-01
					-5.00000000E-02	 3.00000000E-01	 5.50000000E-01
					-5.00000000E-02	 0.00000000E+00	 6.00000000E-01
					-5.00000000E-02	 3.00000000E-01	 6.00000000E-01
					-5.00000000E-02	 0.00000000E+00	 6.50000000E-01
					-5.00000000E-02	 3.00000000E-01	 6.50000000E-01
					-5.00000000E-02	 0.00000000E+00	 7.00000000E-01
					-5.00000000E-02	 3.00000000E-01	 7.00000000E-01
					-5.00000000E-02	 0.00000000E+00	 7.50000000E-01
					-5.00000000E-02	 3.00000000E-01	 7.50000000E-01
					-5.00000000E-02	 0.00000000E+00	 8.00000000E-01
					-5.00000000E-02	 3.00000000E-01	 8.00000000E-01
					-5.00000000E-02	 0.00000000E+00	 8.50000000E-01
					-5.00000000E-02	 3.00000000E-01	 8.50000000E-01
					-5.00000000E-02	 0.00000000E+00	 9.00000000E-01
					-5.00000000E-02	 3.00000000E-01	 9.00000000E-01
					-5.00000000E-02	 0.00000000E+00	 9.50000000E-01
					-5.00000000E-02	 3.00000000E-01	 9.50000000E-01
					-5.00000000E-02	 0.00000000E+00	 1.00000000E+00
					-5.00000000E-02	 3.00000000E-01	 1.00000000E+00

				</DataArray>
			</Points>
			<Cells>
				<DataArray type="Int32" Name="connectivity" format="ascii">
					0 1 2 3 4 5 6 7 3 2 8 9 7 6 10 11 9 8 12 13 11 10 14 15 13 12 16 17 15 14 18 19 17 16 20 21 19 18 22 23 21 20 24 25 23 22 26 27 25 24 28 29 27 26 30 31 29 28 32 33 31 30 34 35 33 32 36 37 35 34 38 39 37 36 40 41 39 38 42 43 41 40 44 45 43 42 46 47 45 44 48 49 47 46 50 51 49 48 52 53 51 50 54 55 53 52 56 57 55 54 58 59 57 56 60 61 59 58 62 63 61 60 64 65 63 62 66 67 65 64 68 69 67 66 70 71 69 68 72 73 71 70 74 75 73 72 76 77 75 74 78 79 77 76 80 81 79 78 82 83 1 84 85 2 5 86 87 6 2 85 88 8 6 87 89 10 8 88 90 12 10 89 91 14 12 90 92 16 14 91 93 18 16 92 94 20 18 93 95 22 20 94 96 24 22 95 97 26 24 96 98 28 26 97 99 30 28 98 100 32 30 99 101 34 32 100 102 36 34 101 103 38 36 102 104 40 38 103 105 42 40 104 106 44 42 105 107 46 44 106 108 48 46 107 109 50 48 108 110 52 50 109 111 54 52 110 112 56 54 111 113 58 56 112 114 60 58 113 115 62 60 114 116 64 62 115 117 66 64 116 118 68 66 117 119 70 68 118 120 72 70 119 121 74 72 120 122 76 74 121 123 78 76 122 124 80 78 123 125 82 
				</DataArray>
				<DataArray type="Int32" Name="offsets" format="ascii">
					8 16 24 32 40 48 56 64 72 80 88 96 104 112 120 128 136 144 152 160 168 176 184 192 200 208 216 224 232 240 248 256 264 272 280 288 296 304 312 320 
				</DataArray>
				<DataArray type="UInt8" Name="types" format="ascii">
					12 12 12 12 12 12 12 12 12 12 12 12 12 12 12 12 12 12 12 12 12 12 12 12 12 12 12 12 12 12 12 12 12 12 12 12 12 12 12 12 
				</DataArray>
			</Cells>
			<PointData>
				<DataArray type="Float32" Name="U" NumberOfComponents="3" ComponentName0="D1" ComponentName1="D2" ComponentName2="D3" format="ascii">
					 0.00000000E+00	 0.00000000E+00	 0.00000000E+00
					 0.00000000E+00	 0.00000000E+00	 0.00000000E+00
					 3.76920000E-03	 0.00000000E+00	-5.00706000E-04
					 4.09751000E-03	 0.00000000E+00	-6.60879000E-03
					 0.00000000E+00	 0.00000000E+00	 0.00000000E+00
					 0.00000000E+00	 0.00000000E+00	 0.00000000E+00
					 3.76920000E-03	 0.00000000E+00	-5.00706000E-04
					 4.09751000E-03	 0.00000000E+00	-6.60879000E-03
					 1.34956000E-02	 0.00000000E+00	-1.53791000E-03
					 1.26347000E-02	 0.00000000E+00	-1.24932000E-02
					 1.34956000E-02	 0.00000000E+00	-1.53791000E-03
					 1.26347000E-02	 0.00000000E+00	-1.24932000E-02
					 2.71604000E-02	 0.00000000E+00	-3.39954000E-03
					 2.53040000E-02	 0.00000000E+00	-1.78502000E-02
					 2.71604000E-02	 0.00000000E+00	-3.39954000E-03
					 2.53040000E-02	 0.00000000E+00	-1.78502000E-02
					 4.36978000E-02	 0.00000000E+00	-6.04826000E-03
					 4.09259000E-02	 0.00000000E+00	-2.28848000E-02
					 4.36978000E-02	 0.00000000E+00	-6.04826000E-03
					 4.09259000E-02	 0.00000000E+00	-2.28848000E-02
					 6.20881000E-02	 0.00000000E+00	-9.29782000E-03
					 5.86418000E-02	 0.00000000E+00	-2.76400000E-02
					 6.20881000E-02	 0.00000000E+00	-9.29782000E-03
					 5.86418000E-02	 0.00000000E+00	-2.76400000E-02
					 8.15463000E-02	 0.00000000E+00	-1.29284000E-02
					 7.76663000E-02	 0.00000000E+00	-3.20982000E-02
					 8.15463000E-02	 0.00000000E+00	-1.29284000E-02
					 7.76663000E-02	 0.00000000E+00	-3.20982000E-02
					 1.01496000E-01	 0.00000000E+00	-1.67486000E-02
					 9.74240000E-02	 0.00000000E+00	-3.62324000E-02
					 1.01496000E-01	 0.00000000E+00	-1.67486000E-02
					 9.74240000E-02	 0.00000000E+00	-3.62324000E-02
					 1.21489000E-01	 0.00000000E+00	-2.05950000E-02
					 1.17415000E-01	 0.00000000E+00	-3.99544000E-02
					 1.21489000E-01	 0.00000000E+00	-2.05950000E-02
					 1.17415000E-01	 0.00000000E+00	-3.99544000E-02
					 1.41121000E-01	 0.00000000E+00	-2.42980000E-02
					 1.37201000E-01	 0.00000000E+00	-4.31589000E-02
					 1.41121000E-01	 0.00000000E+00	-2.42980000E-02
					 1.37201000E-01	 0.00000000E+00	-4.31589000E-02
					 1.60019000E-01	 0.00000000E+00	-2.76994000E-02
					 1.56366000E-01	 0.00000000E+00	-4.57736000E-02
					 1.60019000E-01	 0.00000000E+00	-2.76994000E-02
					 1.56366000E-01	 0.00000000E+00	-4.57736000E-02
					 1.77903000E-01	 0.00000000E+00	-3.07043000E-02
					 1.74605000E-01	 0.00000000E+00	-4.78347000E-02
					 1.77903000E-01	 0.00000000E+00	-3.07043000E-02
					 1.74605000E-01	 0.00000000E+00	-4.78347000E-02
					 1.94675000E-01	 0.00000000E+00	-3.33093000E-02
					 1.91734000E-01	 0.00000000E+00	-4.94697000E-02
					 1.94675000E-01	 0.00000000E+00	-3.33093000E-02
					 1.91734000E-01	 0.00000000E+00	-4.94697000E-02
					 2.10419000E-01	 0.00000000E+00	-3.55759000E-02
					 2.07793000E-01	 0.00000000E+00	-5.08639000E-02
					 2.10419000E-01	 0.00000000E+00	-3.55759000E-02
					 2.07793000E-01	 0.00000000E+00	-5.08639000E-02
					 2.25304000E-01	 0.00000000E+00	-3.75914000E-02
					 2.22929000E-01	 0.00000000E+00	-5.21711000E-02
					 2.25304000E-01	 0.00000000E+00	-3.75914000E-02
					 2.22929000E-01	 0.00000000E+00	-5.21711000E-02
					 2.39520000E-01	 0.00000000E+00	-3.94449000E-02
					 2.37353000E-01	 0.00000000E+00	-5.35107000E-02
					 2.39520000E-01	 0.00000000E+00	-3.94449000E-02
					 2.37353000E-01	 0.00000000E+00	-5.35107000E-02
					 2.53299000E-01	 0.00000000E+00	-4.12148000E-02
					 2.51267000E-01	 0.00000000E+00	-5.49581000E-02
					 2.53299000E-01	 0.00000000E+00	-4.12148000E-02
					 2.51267000E-01	 0.00000000E+00	-5.49581000E-02
					 2.66878000E-01	 0.00000000E+00	-4.29554000E-02
					 2.64913000E-01	 0.00000000E+00	-5.65491000E-02
					 2.66878000E-01	 0.00000000E+00	-4.29554000E-02
					 2.64913000E-01	 0.00000000E+00	-5.65491000E-02
					 2.80427000E-01	 0.00000000E+00	-4.47042000E-02
					 2.78479000E-01	 0.00000000E+00	-5.82638000E-02
					 2.80427000E-01	 0.00000000E+00	-4.47042000E-02
					 2.78479000E-01	 0.00000000E+00	-5.82638000E-02
					 2.93999000E-01	 0.00000000E+00	-4.64919000E-02
					 2.92067000E-01	 0.00000000E+00	-6.00703000E-02
					 2.93999000E-01	 0.00000000E+00	-4.64919000E-02
					 2.92067000E-01	 0.00000000E+00	-6.00703000E-02
					 3.07586000E-01	 0.00000000E+00	-4.83512000E-02
					 3.05674000E-01	 0.00000000E+00	-6.19417000E-02
					 3.07586000E-01	 0.00000000E+00	-4.83512000E-02
					 3.05674000E-01	 0.00000000E+00	-6.19417000E-02
					 0.00000000E+00	 0.00000000E+00	 0.00000000E+00
					 5.17392000E-03	 0.00000000E+00	 5.40120000E-03
					 0.00000000E+00	 0.00000000E+00	 0.00000000E+00
					 5.17392000E-03	 0.00000000E+00	 5.40120000E-03
					 1.53507000E-02	 0.00000000E+00	 9.08858000E-03
					 1.53507000E-02	 0.00000000E+00	 9.08858000E-03
					 2.97721000E-02	 0.00000000E+00	 1.07464000E-02
					 2.97721000E-02	 0.00000000E+00	 1.07464000E-02
					 4.69743000E-02	 0.00000000E+00	 1.05698000E-02
					 4.69743000E-02	 0.00000000E+00	 1.05698000E-02
					 6.58498000E-02	 0.00000000E+00	 8.90766000E-03
					 6.58498000E-02	 0.00000000E+00	 8.90766000E-03
					 8.55958000E-02	 0.00000000E+00	 6.16332000E-03
					 8.55958000E-02	 0.00000000E+00	 6.16332000E-03
					 1.05611000E-01	 0.00000000E+00	 2.70752000E-03
					 1.05611000E-01	 0.00000000E+00	 2.70752000E-03
					 1.25510000E-01	 0.00000000E+00	-1.21223000E-03
					 1.25510000E-01	 0.00000000E+00	-1.21223000E-03
					 1.44901000E-01	 0.00000000E+00	-5.36936000E-03
					 1.44901000E-01	 0.00000000E+00	-5.36936000E-03
					 1.63472000E-01	 0.00000000E+00	-9.54400000E-03
					 1.63472000E-01	 0.00000000E+00	-9.54400000E-03
					 1.80968000E-01	 0.00000000E+00	-1.34959000E-02
					 1.80968000E-01	 0.00000000E+00	-1.34959000E-02
					 1.97396000E-01	 0.00000000E+00	-1.70787000E-02
					 1.97396000E-01	 0.00000000E+00	-1.70787000E-02
					 2.12858000E-01	 0.00000000E+00	-2.02326000E-02
					 2.12858000E-01	 0.00000000E+00	-2.02326000E-02
					 2.27537000E-01	 0.00000000E+00	-2.29859000E-02
					 2.27537000E-01	 0.00000000E+00	-2.29859000E-02
					 2.41590000E-01	 0.00000000E+00	-2.53739000E-02
					 2.41590000E-01	 0.00000000E+00	-2.53739000E-02
					 2.55287000E-01	 0.00000000E+00	-2.74696000E-02
					 2.55287000E-01	 0.00000000E+00	-2.74696000E-02
					 2.68838000E-01	 0.00000000E+00	-2.93602000E-02
					 2.68838000E-01	 0.00000000E+00	-2.93602000E-02
					 2.82388000E-01	 0.00000000E+00	-3.11558000E-02
					 2.82388000E-01	 0.00000000E+00	-3.11558000E-02
					 2.95939000E-01	 0.00000000E+00	-3.29396000E-02
					 2.95939000E-01	 0.00000000E+00	-3.29396000E-02
					 3.09506000E-01	 0.00000000E+00	-3.47708000E-02
					 3.09506000E-01	 0.00000000E+00	-3.47708000E-02
				</DataArray>
				<DataArray type="Float32" Name="S" NumberOfComponents="10" ComponentName0="xx" ComponentName1="yy" ComponentName2="zz" ComponentName3="xy" ComponentName4="yz" ComponentName5="zx" ComponentName6="Mises" ComponentName7="Min Principal" ComponentName8="Mid Principal" ComponentName9="Max Principal" format="ascii">
					-4.10021000E+03	-4.60373000E+03	-1.45871000E+04	-1.87846000E-09	 2.86653000E-09	 2.80919000E+03	 1.13411940E+04	-1.52922064E+04	-4.60373000E+03	-3.39510359E+03
					 1.84934000E+02	-2.38391000E+02	-1.69941000E+03	 0.00000000E+00	 1.56677000E-09	 3.62462000E+03	 6.50737096E+03	-4.50230919E+03	-2.38391000E+02	 2.98783319E+03
					-1.13851000E+02	-2.68977000E+02	-1.50053000E+03	 7.74702000E-08	-1.17631000E-08	 6.18729000E+02	 1.69714746E+03	-1.73646185E+03	-2.68977000E+02	 1.22080848E+02
					-1.85855000E+03	-3.50238000E+03	-1.27543000E+04	 1.25230000E-07	-6.24787000E-08	-4.88393000E+02	 1.02090336E+04	-1.27761480E+04	-3.50238000E+03	-1.83670200E+03
					-4.10021000E+03	-4.60373000E+03	-1.45871000E+04	-1.87846000E-09	 2.86653000E-09	 2.80919000E+03	 1.13411940E+04	-1.52922064E+04	-4.60373000E+03	-3.39510359E+03
					 1.84934000E+02	-2.38391000E+02	-1.69941000E+03	 0.00000000E+00	 1.56677000E-09	 3.62462000E+03	 6.50737096E+03	-4.50230919E+03	-2.38391000E+02	 2.98783319E+03
					-1.13851000E+02	-2.68977000E+02	-1.50053000E+03	 7.74701000E-08	-1.17631000E-08	 6.18729000E+02	 1.69714746E+03	-1.73646185E+03	-2.68977000E+02	 1.22080848E+02
					-1.85855000E+03	-3.50238000E+03	-1.27543000E+04	 1.25231000E-07	-6.24786000E-08	-4.88393000E+02	 1.02090336E+04	-1.27761480E+04	-3.50238000E+03	-1.83670200E+03
					 4.55233000E+01	-1.32212000E+02	-9.30685000E+02	 1.42133000E-07	-3.81318000E-08	 7.70207000E+02	 1.60957208E+03	-1.35442759E+03	-1.32212000E+02	 4.69265894E+02
					-2.06336000E+03	-2.75646000E+03	-9.99802000E+03	 1.62813000E-07	-6.41374000E-08	-1.19647000E+03	 7.88887352E+03	-1.01745104E+04	-2.75646000E+03	-1.88686957E+03
					 4.55233000E+01	-1.32212000E+02	-9.30685000E+02	 1.42133000E-07	-3.81318000E-08	 7.70207000E+02	 1.60957208E+03	-1.35442759E+03	-1.32212000E+02	 4.69265894E+02
					-2.06336000E+03	-2.75646000E+03	-9.99802000E+03	 1.62813000E-07	-6.41373000E-08	-1.19647000E+03	 7.88887352E+03	-1.01745104E+04	-2.75646000E+03	-1.88686957E+03
					 2.30558000E+02	-2.87310000E+01	-4.82294000E+02	 9.65344000E-08	-4.33258000E-08	 7.00786000E+02	 1.36523153E+03	-9.12087124E+02	-2.87310000E+01	 6.60351124E+02
					-1.42006000E+03	-1.86529000E+03	-7.08647000E+03	 1.67864000E-07	-3.87133000E-08	-1.14208000E+03	 5.80487868E+03	-7.30799859E+03	-1.86529000E+03	-1.19853141E+03
					 2.30558000E+02	-2.87310000E+01	-4.82294000E+02	 9.65352000E-08	-4.33260000E-08	 7.00786000E+02	 1.36523153E+03	-9.12087124E+02	-2.87310000E+01	 6.60351124E+02
					-1.42006000E+03	-1.86529000E+03	-7.08647000E+03	 1.67864000E-07	-3.87133000E-08	-1.14208000E+03	 5.80487868E+03	-7.30799859E+03	-1.86529000E+03	-1.19853141E+03
					 3.04935000E+02	 4.10884000E+01	-1.45034000E+02	 8.15095000E-08	-6.55704000E-08	 6.87522000E+02	 1.25356445E+03	-6.43447403E+02	 4.10884000E+01	 8.03348403E+02
					-9.88352000E+02	-1.19638000E+03	-4.65567000E+03	 1.09709000E-07	-5.15412000E-08	-8.23561000E+02	 3.84244067E+03	-4.83212494E+03	-1.19638000E+03	-8.11897061E+02
					 3.04935000E+02	 4.10884000E+01	-1.45034000E+02	 8.15106000E-08	-6.55704000E-08	 6.87522000E+02	 1.25356445E+03	-6.43447403E+02	 4.10884000E+01	 8.03348403E+02
					-9.88352000E+02	-1.19638000E+03	-4.65567000E+03	 1.09710000E-07	-5.15418000E-08	-8.23561000E+02	 3.84244067E+03	-4.83212494E+03	-1.19638000E+03	-8.11897061E+02
					 3.13080000E+02	 8.49028000E+01	 1.02269000E+02	 9.96450000E-08	-7.83564000E-08	 6.54979000E+02	 1.15559349E+03	-4.55731718E+02	 8.49028000E+01	 8.71080718E+02
					-5.60624000E+02	-6.67593000E+02	-2.67382000E+03	 8.04678000E-08	-8.22115000E-08	-3.88846000E+02	 2.16900827E+03	-2.74309968E+03	-6.67593000E+02	-4.91344322E+02
					 3.13080000E+02	 8.49028000E+01	 1.02269000E+02	 9.96462000E-08	-7.83561000E-08	 6.54979000E+02	 1.15559349E+03	-4.55731718E+02	 8.49028000E+01	 8.71080718E+02
					-5.60624000E+02	-6.67593000E+02	-2.67382000E+03	 8.04699000E-08	-8.22122000E-08	-3.88846000E+02	 2.16900827E+03	-2.74309968E+03	-6.67593000E+02	-4.91344322E+02
					 2.56769000E+02	 9.88576000E+01	 2.45763000E+02	 8.74907000E-08	-6.11395000E-08	 6.21226000E+02	 1.08677707E+03	-3.69984373E+02	 9.88576000E+01	 8.72516373E+02
					-2.08298000E+02	-2.73091000E+02	-1.13737000E+03	 8.59505000E-08	-4.77165000E-08	 4.35119000E+01	 9.01584942E+02	-1.13940337E+03	-2.73091000E+02	-2.06264626E+02
					 2.56769000E+02	 9.88576000E+01	 2.45763000E+02	 8.74882000E-08	-6.11400000E-08	 6.21226000E+02	 1.08677707E+03	-3.69984373E+02	 9.88576000E+01	 8.72516373E+02
					-2.08298000E+02	-2.73091000E+02	-1.13737000E+03	 8.59503000E-08	-4.77160000E-08	 4.35119000E+01	 9.01584942E+02	-1.13940337E+03	-2.73091000E+02	-2.06264626E+02
					 2.43007000E+02	 1.11171000E+02	 3.25716000E+02	 5.39646000E-08	-2.24640000E-08	 5.67089000E+02	 9.99947666E+02	-2.84233372E+02	 1.11171000E+02	 8.52956372E+02
					 1.35403000E+02	 4.37395000E+01	 9.46176000E+01	 7.48295000E-08	 3.49453000E-08	 4.18042000E+02	 7.28426012E+02	-3.03528797E+02	 4.37395000E+01	 5.33549397E+02
					 2.43007000E+02	 1.11171000E+02	 3.25716000E+02	 5.39676000E-08	-2.24646000E-08	 5.67089000E+02	 9.99947666E+02	-2.84233372E+02	 1.11171000E+02	 8.52956372E+02
					 1.35403000E+02	 4.37395000E+01	 9.46176000E+01	 7.48313000E-08	 3.49456000E-08	 4.18042000E+02	 7.28426012E+02	-3.03528797E+02	 4.37395000E+01	 5.33549397E+02
					 1.97193000E+02	 1.07816000E+02	 3.52551000E+02	-3.39534000E-08	 2.10713000E-08	 5.15537000E+02	 9.18338164E+02	-2.46484332E+02	 1.07816000E+02	 7.96228332E+02
					 4.02349000E+02	 2.98333000E+02	 1.13114000E+03	 3.06567000E-08	 7.08612000E-08	 7.39037000E+02	 1.50209475E+03	-5.72456503E+01	 2.98333000E+02	 1.59073465E+03
					 1.97193000E+02	 1.07816000E+02	 3.52551000E+02	-3.39575000E-08	 2.10726000E-08	 5.15537000E+02	 9.18338164E+02	-2.46484332E+02	 1.07816000E+02	 7.96228332E+02
					 4.02349000E+02	 2.98333000E+02	 1.13114000E+03	 3.06587000E-08	 7.08594000E-08	 7.39037000E+02	 1.50209475E+03	-5.72456503E+01	 2.98333000E+02	 1.59073465E+03
					 1.29180000E+02	 1.02952000E+02	 3.91279000E+02	-8.58330000E-08	 4.38918000E-08	 4.54236000E+02	 8.33816021E+02	-2.12532930E+02	 1.02952000E+02	 7.32991930E+02
					 5.72493000E+02	 4.99553000E+02	 2.01627000E+03	-7.25319000E-08	 5.65340000E-08	 9.78787000E+02	 2.25148692E+03	 7.81796262E+01	 4.99553000E+02	 2.51058337E+03
					 1.29180000E+02	 1.02952000E+02	 3.91279000E+02	-8.58325000E-08	 4.38919000E-08	 4.54236000E+02	 8.33816021E+02	-2.12532930E+02	 1.02952000E+02	 7.32991930E+02
					 5.72493000E+02	 4.99553000E+02	 2.01627000E+03	-7.25349000E-08	 5.65325000E-08	 9.78787000E+02	 2.25148692E+03	 7.81796262E+01	 4.99553000E+02	 2.51058337E+03
					 1.38517000E+01	 9.25906000E+01	 4.50174000E+02	-4.05062000E-08	 4.22076000E-08	 3.79402000E+02	 7.70752268E+02	-2.05640169E+02	 9.25906000E+01	 6.69665869E+02
					 6.15337000E+02	 6.31224000E+02	 2.67762000E+03	-6.71282000E-08	 1.66792000E-09	 1.09908000E+03	 2.80079107E+03	 1.39418568E+02	 6.31224000E+02	 3.15353843E+03
					 1.38517000E+01	 9.25906000E+01	 4.50174000E+02	-4.05052000E-08	 4.22067000E-08	 3.79402000E+02	 7.70752268E+02	-2.05640169E+02	 9.25906000E+01	 6.69665869E+02
					 6.15337000E+02	 6.31224000E+02	 2.67762000E+03	-6.71251000E-08	 1.67077000E-09	 1.09908000E+03	 2.80079107E+03	 1.39418568E+02	 6.31224000E+02	 3.15353843E+03
					-4.69326000E+01	 9.78336000E+01	 5.33994000E+02	-3.30675000E-08	 2.40072000E-08	 2.71787000E+02	 7.04229331E+02	-1.54259574E+02	 9.78336000E+01	 6.41320974E+02
					 5.98404000E+02	 6.93525000E+02	 3.02755000E+03	-2.73956000E-08	-1.61974000E-08	 1.05733000E+03	 3.00542438E+03	 2.02655820E+02	 6.93525000E+02	 3.42329818E+03
					-4.69326000E+01	 9.78336000E+01	 5.33994000E+02	-3.30503000E-08	 2.40082000E-08	 2.71787000E+02	 7.04229331E+02	-1.54259574E+02	 9.78336000E+01	 6.41320974E+02
					 5.98404000E+02	 6.93525000E+02	 3.02755000E+03	-2.74008000E-08	-1.61970000E-08	 1.05733000E+03	 3.00542438E+03	 2.02655820E+02	 6.93525000E+02	 3.42329818E+03
					-1.11686000E+02	 9.42615000E+01	 5.80113000E+02	-3.12369000E-08	 2.93790000E-09	 1.80952000E+02	 6.90475802E+02	-1.56158234E+02	 9.42615000E+01	 6.24585234E+02
					 4.90924000E+02	 6.68009000E+02	 2.99469000E+03	-4.77717000E-08	-3.61455000E-08	 9.05145000E+02	 2.88351977E+03	 1.97977392E+02	 6.68009000E+02	 3.28763661E+03
					-1.11686000E+02	 9.42615000E+01	 5.80113000E+02	-3.12409000E-08	 2.93793000E-09	 1.80952000E+02	 6.90475802E+02	-1.56158234E+02	 9.42615000E+01	 6.24585234E+02
					 4.90924000E+02	 6.68009000E+02	 2.99469000E+03	-4.77704000E-08	-3.61465000E-08	 9.05145000E+02	 2.88351977E+03	 1.97977392E+02	 6.68009000E+02	 3.28763661E+03
					-1.53385000E+02	 8.60114000E+01	 5.82068000E+02	 7.63808000E-09	-6.10413000E-09	 1.14556000E+02	 6.79342463E+02	-1.70815424E+02	 8.60114000E+01	 5.99498424E+02
					 3.46452000E+02	 5.78071000E+02	 2.65547000E+03	-2.17759000E-08	-5.96141000E-08	 7.08658000E+02	 2.52130671E+03	 1.46307099E+02	 5.78071000E+02	 2.85561490E+03
					-1.53385000E+02	 8.60114000E+01	 5.82068000E+02	 7.63676000E-09	-6.10554000E-09	 1.14556000E+02	 6.79342463E+02	-1.70815424E+02	 8.60114000E+01	 5.99498424E+02
					 3.46452000E+02	 5.78071000E+02	 2.65547000E+03	-2.17752000E-08	-5.96108000E-08	 7.08658000E+02	 2.52130671E+03	 1.46307099E+02	 5.78071000E+02	 2.85561490E+03
					-1.96456000E+02	 6.63918000E+01	 5.29061000E+02	 4.64719000E-08	-4.00357000E-09	 6.49667000E+01	 6.46084632E+02	-2.02227555E+02	 6.63918000E+01	 5.34832555E+02
					 1.95083000E+02	 4.51868000E+02	 2.13643000E+03	 2.44046000E-08	-5.36778000E-08	 5.12376000E+02	 2.03072534E+03	 6.81517401E+01	 4.51868000E+02	 2.26336126E+03
					-1.96456000E+02	 6.63918000E+01	 5.29061000E+02	 4.64702000E-08	-4.00355000E-09	 6.49667000E+01	 6.46084632E+02	-2.02227555E+02	 6.63918000E+01	 5.34832555E+02
					 1.95083000E+02	 4.51868000E+02	 2.13643000E+03	 2.44200000E-08	-5.36772000E-08	 5.12376000E+02	 2.03072534E+03	 6.81517401E+01	 4.51868000E+02	 2.26336126E+03
					-1.68482000E+02	 5.76317000E+01	 4.58124000E+02	 1.03272000E-07	-9.10169000E-09	 1.66918000E+01	 5.50376355E+02	-1.68926328E+02	 5.76317000E+01	 4.58568328E+02
					 1.05353000E+02	 3.24987000E+02	 1.55840000E+03	 9.16231000E-08	-4.04134000E-08	 3.22992000E+02	 1.46745278E+03	 3.67914554E+01	 3.24987000E+02	 1.62696154E+03
					-1.68482000E+02	 5.76317000E+01	 4.58124000E+02	 1.03280000E-07	-9.10340000E-09	 1.66918000E+01	 5.50376355E+02	-1.68926328E+02	 5.76317000E+01	 4.58568328E+02
					 1.05353000E+02	 3.24987000E+02	 1.55840000E+03	 9.16251000E-08	-4.04149000E-08	 3.22992000E+02	 1.46745278E+03	 3.67914554E+01	 3.24987000E+02	 1.62696154E+03
					-1.52344000E+02	 4.39697000E+01	 3.73973000E+02	 1.15176000E-07	-7.80063000E-09	 6.79431000E+00	 4.60829582E+02	-1.52431694E+02	 4.39697000E+01	 3.74060694E+02
					 1.76430000E+01	 1.99333000E+02	 9.95430000E+02	 9.75448000E-08	-2.93198000E-08	 1.78560000E+02	 9.52405152E+02	-1.39445544E+01	 1.99333000E+02	 1.02701755E+03
					-1.52344000E+02	 4.39697000E+01	 3.73973000E+02	 1.15175000E-07	-7.80062000E-09	 6.79431000E+00	 4.60829582E+02	-1.52431694E+02	 4.39697000E+01	 3.74060694E+02
					 1.76430000E+01	 1.99333000E+02	 9.95430000E+02	 9.75347000E-08	-2.93231000E-08	 1.78560000E+02	 9.52405152E+02	-1.39445544E+01	 1.99333000E+02	 1.02701755E+03
					-1.34419000E+02	 3.31410000E+01	 3.01907000E+02	 9.84468000E-08	-1.75242000E-08	 2.96259000E+01	 3.84680425E+02	-1.36421366E+02	 3.31410000E+01	 3.03909366E+02
					-5.20933000E+01	 9.77197000E+01	 5.46240000E+02	 1.08209000E-07	-1.09582000E-08	 9.72879000E+01	 5.64980860E+02	-6.75146662E+01	 9.77197000E+01	 5.61661366E+02
					-1.34419000E+02	 3.31410000E+01	 3.01907000E+02	 9.84457000E-08	-1.75244000E-08	 2.96259000E+01	 3.84680425E+02	-1.36421366E+02	 3.31410000E+01	 3.03909366E+02
					-5.20933000E+01	 9.77197000E+01	 5.46240000E+02	 1.08222000E-07	-1.09571000E-08	 9.72879000E+01	 5.64980860E+02	-6.75146662E+01	 9.77197000E+01	 5.61661366E+02
					-1.39431000E+02	 1.50745000E+01	 2.16242000E+02	 2.46599000E-08	-5.87180000E-09	 5.65516000E+01	 3.24061797E+02	-1.48206140E+02	 1.50745000E+01	 2.25017140E+02
					-1.04907000E+02	 2.81187000E+01	 2.47213000E+02	 5.00780000E-08	 1.46460000E-08	 6.75686000E+01	 3.29453895E+02	-1.17427591E+02	 2.81187000E+01	 2.59733591E+02
					-1.39431000E+02	 1.50745000E+01	 2.16242000E+02	 2.46621000E-08	-5.87305000E-09	 5.65516000E+01	 3.24061797E+02	-1.48206140E+02	 1.50745000E+01	 2.25017140E+02
					-1.04907000E+02	 2.81187000E+01	 2.47213000E+02	 5.00747000E-08	 1.46426000E-08	 6.75686000E+01	 3.29453895E+02	-1.17427591E+02	 2.81187000E+01	 2.59733591E+02
					-1.11785000E+02	-3.03740000E+00	 9.72332000E+01	 6.23951000E-09	 6.34583000E-09	 4.42301000E+01	 1.96604491E+02	-1.20759175E+02	-3.03740000E+00	 1.06207375E+02
					-9.56617000E+01	-4.66183000E+00	 7.28016000E+01	 1.02135000E-08	 0.00000000E+00	 4.35676000E+01	 1.64393214E+02	-1.06262042E+02	-4.66183000E+00	 8.34019416E+01
					-1.11785000E+02	-3.03740000E+00	 9.72332000E+01	 6.23516000E-09	 6.34872000E-09	 4.42301000E+01	 1.96604491E+02	-1.20759175E+02	-3.03740000E+00	 1.06207375E+02
					-9.56617000E+01	-4.66183000E+00	 7.28016000E+01	 1.02057000E-08	 0.00000000E+00	 4.35676000E+01	 1.64393214E+02	-1.06262042E+02	-4.66183000E+00	 8.34019416E+01
					-7.49410000E+01	-8.31961000E+00	 3.34650000E+01	 7.74892000E-09	 2.25568000E-09	 1.70254000E+01	 9.91852044E+01	-7.75519900E+01	-8.31961000E+00	 3.60759900E+01
					-5.71143000E+01	-8.95032000E+00	 1.24388000E+01	 3.23219000E-08	-3.25684000E-08	 2.67989000E+01	 7.72139346E+01	-6.62420718E+01	-8.95032000E+00	 2.15665718E+01
					-7.49410000E+01	-8.31961000E+00	 3.34650000E+01	 7.76811000E-09	 2.25188000E-09	 1.70254000E+01	 9.91852044E+01	-7.75519900E+01	-8.31961000E+00	 3.60759900E+01
					-5.71143000E+01	-8.95032000E+00	 1.24388000E+01	 3.23362000E-08	-3.25633000E-08	 2.67989000E+01	 7.72139346E+01	-6.62420718E+01	-8.95032000E+00	 2.15665718E+01
					 4.55269000E+03	 3.58201000E+03	 1.67887000E+04	 1.00444000E-09	 0.00000000E+00	 6.64487000E+03	 1.71756311E+04	 1.63829319E+03	 3.58201000E+03	 1.97030968E+04
					 1.45823000E+03	 2.69908000E+03	 1.42926000E+04	 4.87251000E-08	 4.33734000E-08	 2.81617000E+03	 1.31957446E+04	 8.67485435E+02	 2.69908000E+03	 1.48833446E+04
					 4.55269000E+03	 3.58201000E+03	 1.67887000E+04	 1.00449000E-09	 0.00000000E+00	 6.64487000E+03	 1.71756311E+04	 1.63829319E+03	 3.58201000E+03	 1.97030968E+04