<?xml version="1.0"?>
<VTKFile type="UnstructuredGrid" version="0.1" byte_order="LittleEndian">
	<UnstructuredGrid>
		<Piece NumberOfPoints="126" NumberOfCells="40">
			<Points>
				<DataArray type="Float64" NumberOfComponents="3" format="ascii">
					 5.00000000E-02	 0.00000000E+00	 0.00000000E+00
					 0.00000000E+00	 0.00000000E+00	 0.00000000E+00
					 0.00000000E+00	 0.00000000E+00	 5.00000000E-02
					 5.00000000E-02	 0.00000000E+00	 5.00000000E-02
					 5.00000000E-02	 3.00000000E-01	 0.00000000E+00
					 0.00000000E+00	 3.00000000E-01	 0.00000000E+00
					 0.00000000E+00	 3.00000000E-01	 5.00000000E-02
					 5.00000000E-02	 3.00000000E-01	 5.00000000E-02
					 0.00000000E+00	 0.00000000E+00	 1.00000000E-01
					 5.00000000E-02	 0.00000000E+00	 1.00000000E-01
					 0.00000000E+00	 3.00000000E-01	 1.00000000E-01
					 5.00000000E-02	 3.00000000E-01	 1.00000000E-01
					 0.00000000E+00	 0.00000000E+00	 1.50000000E-01
					 5.00000000E-02	 0.00000000E+00	 1.50000000E-01
					 0.00000000E+00	 3.00000000E-01	 1.50000000E-01
					 5.00000000E-02	 3.00000000E-01	 1.50000000E-01
					 0.00000000E+00	 0.00000000E+00	 2.00000000E-01
					 5.00000000E-02	 0.00000000E+00	 2.00000000E-01
					 0.00000000E+00	 3.00000000E-01	 2.00000000E-01
					 5.00000000E-02	 3.00000000E-01	 2.00000000E-01
					 0.00000000E+00	 0.00000000E+00	 2.50000000E-01
					 5.00000000E-02	 0.00000000E+00	 2.50000000E-01
					 0.00000000E+00	 3.00000000E-01	 2.50000000E-01
					 5.00000000E-02	 3.00000000E-01	 2.50000000E-01
					 0.00000000E+00	 0.00000000E+00	 3.00000000E-01
					 5.00000000E-02	 0.00000000E+00	 3.00000000E-01
					 0.00000000E+00	 3.00000000E-01	 3.00000000E-01
					 5.00000000E-02	 3.00000000E-01	 3.00000000E-01
					 0.00000000E+00	 0.00000000E+00	 3.50000000E-01
					 5.00000000E-02	 0.00000000E+00	 3.50000000E-01
					 0.00000000E+00	 3.00000000E-01	 3.50000000E-01
					 5.00000000E-02	 3.00000000E-01	 3.50000000E-01
					 0.00000000E+00	 0.00000000E+00	 4.00000000E-01
					 5.00000000E-02	 0.00000000E+00	 4.00000000E-01
					 0.00000000E+00	 3.00000000E-01	 4.00000000E-01
					 5.00000000E-02	 3.00000000E-01	 4.00000000E-01
					 0.00000000E+00	 0.00000000E+00	 4.50000000E-01
					 5.00000000E-02	 0.00000000E+00	 4.50000000E-01
					 0.00000000E+00	 3.00000000E-01	 4.50000000E-01
					 5.00000000E-02	 3.00000000E-01	 4.50000000E-01
					 0.00000000E+00	 0.00000000E+00	 5.00000000E-01
					 5.00000000E-02	 0.00000000E+00	 5.00000000E-01
					 0.00000000E+00	 3.00000000E-01	 5.00000000E-01
					 5.00000000E-02	 3.00000000E-01	 5.00000000E-01
					 0.00000000E+00	 0.00000000E+00	 5.50000000E-01
					 5.00000000E-02	 0.00000000E+00	 5.50000000E-01
					 0.00000000E+00	 3.00000000E-01	 5.50000000E-01
					 5.00000000E-02	 3.00000000E-01	 5.50000000E-01
					 0.00000000E+00	 0.00000000E+00	 6.00000000E-01
					 5.00000000E-02	 0.00000000E+00	 6.00000000E-01
					 0.00000000E+00	 3.00000000E-01	 6.00000000E-01
					 5.00000000E-02	 3.00000000E-01	 6.00000000E-01
					 0.00000000E+00	 0.00000000E+00	 6.50000000E-01
					 5.00000000E-02	 0.00000000E+00	 6.50000000E-01
					 0.00000000E+00	 3.00000000E-01	 6.50000000E-01
					 5.00000000E-02	 3.00000000E-01	 6.50000000E-01
					 0.00000000E+00	 0.00000000E+00	 7.00000000E-01
					 5.00000000E-02	 0.00000000E+00	 7.00000000E-01
					 0.00000000E+00	 3.00000000E-01	 7.00000000E-01
					 5.00000000E-02	 3.00000000E-01	 7.00000000E-01
					 0.00000000E+00	 0.00000000E+00	 7.50000000E-01
					 5.00000000E-02	 0.00000000E+00	 7.50000000E-01
					 0.00000000E+00	 3.00000000E-01	 7.50000000E-01
					 5.00000000E-02	 3.00000000E-01	 7.50000000E-01
					 0.00000000E+00	 0.00000000E+00	 8.00000000E-01
					 5.00000000E-02	 0.00000000E+00	 8.00000000E-01
					 0.00000000E+00	 3.00000000E-01	 8.00000000E-01
					 5.00000000E-02	 3.00000000E-01	 8.00000000E-01
					 0.00000000E+00	 0.00000000E+00	 8.50000000E-01
					 5.00000000E-02	 0.00000000E+00	 8.50000000E-01
					 0.00000000E+00	 3.00000000E-01	 8.50000000E-01
					 5.00000000E-02	 3.00000000E-01	 8.50000000E-01
					 0.00000000E+00	 0.00000000E+00	 9.00000000E-01
					 5.00000000E-02	 0.00000000E+00	 9.00000000E-01
					 0.00000000E+00	 3.00000000E-01	 9.00000000E-01
					 5.00000000E-02	 3.00000000E-01	 9.00000000E-01
					 0.00000000E+00	 0.00000000E+00	 9.50000000E-01
					 5.00000000E-02	 0.00000000E+00	 9.50000000E-01
					 0.00000000E+00	 3.00000000E-01	 9.50000000E-01
					 5.00000000E-02	 3.00000000E-01	 9.50000000E-01
					 0.00000000E+00	 0.00000000E+00	 1.00000000E+00
					 5.00000000E-02	 0.00000000E+00	 1.00000000E+00
					 0.00000000E+00	 3.00000000E-01	 1.00000000E+00
					 5.00000000E-02	 3.00000000E-01	 1.00000000E+00
					-5.00000000E-02	 0.00000000E+00	 0.00000000E+00
					-5.00000000E-02	 0.00000000E+00	 5.00000000E-02
					-5.00000000E-02	 3.00000000E-01	 0.00000000E+00
					-5.00000000E-02	 3.00000000E-01	 5.00000000E-02
					-5.00000000E-02	 0.00000000E+00	 1.00000000E-01
					-5.00000000E-02	 3.00000000E-01	 1.00000000E-01
					-5.00000000E-02	 0.00000000E+00	 1.50000000E-01
					-5.00000000E-02	 3.00000000E-01	 1.50000000E-01
					-5.00000000E-02	 0.00000000E+00	 2.00000000E-01
					-5.00000000E-02	 3.00000000E-01	 2.00000000E-01
					-5.00000000E-02	 0.00000000E+00	 2.50000000E-01
					-5.00000000E-02	 3.00000000E-01	 2.50000000E-01
					-5.00000000E-02	 0.00000000E+00	 3.00000000E-01
					-5.00000000E-02	 3.00000000E-01	 3.00000000E-01
					-5.00000000E-02	 0.00000000E+00	 3.50000000E-01
					-5.00000000E-02	 3.00000000E-01	 3.50000000E-01
					-5.00000000E-02	 0.00000000E+00	 4.00000000E-01
					-5.00000000E-02	 3.00000000E-01	 4.00000000E-01
					-5.00000000E-02	 0.00000000E+00	 4.50000000E-01
					-5.00000000E-02	 3.00000000E-01	 4.50000000E-01
					-5.00000000E-02	 0.00000000E+00	 5.00000000E-01
					-5.00000000E-02	 3.00000000E-01	 5.00000000E-01
					-5.00000000E-02	 0.00000000E+00	 5.50000000E-01
					-5.00000000E-02	 3.00000000E-01	 5.50000000E-01
					-5.00000000E-02	 0.00000000E+00	 6.00000000E-01
					-5.00000000E-02	 3.00000000E-01	 6.00000000E-01
					-5.00000000E-02	 0.00000000E+00	 6.50000000E-01
					-5.00000000E-02	 3.00000000E-01	 6.50000000E-01
					-5.00000000E-02	 0.00000000E+00	 7.00000000E-01
					-5.00000000E-02	 3.00000000E-01	 7.00000000E-01
					-5.00000000E-02	 0.00000000E+00	 7.50000000E-01
					-5.00000000E-02	 3.00000000E-01	 7.50000000E-01
					-5.00000000E-02	 0.00000000E+00	 8.00000000E-01
					-5.00000000E-02	 3.00000000E-01	 8.00000000E-01
					-5.00000000E-02	 0.00000000E+00	 8.50000000E-01
					-5.00000000E-02	 3.00000000E-01	 8.50000000E-01
					-5.00000000E-02	 0.00000000E+00	 9.00000000E-01
					-5.00000000E-02	 3.00000000E-01	 9.00000000E-01
					-5.00000000E-02	 0.00000000E+00	 9.50000000E-01
					-5.00000000E-02	 3.00000000E-01	 9.50000000E-01
					-5.00000000E-02	 0.00000000E+00	 1.00000000E+00
					-5.00000000E-02	 3.00000000E-01	 1.00000000E+00

				</DataArray>
			</Points>
			<Cells>
				<DataArray type="Int32" Name="connectivity" format="ascii">
					0 1 2 3 4 5 6 7 3 2 8 9 7 6 10 11 9 8 12 13 11 10 14 15 13 12 16 17 15 14 18 19 17 16 20 21 19 18 22 23 21 20 24 25 23 22 26 27 25 24 28 29 27 26 30 31 29 28 32 33 31 30 34 35 33 32 36 37 35 34 38 39 37 36 40 41 39 38 42 43 41 40 44 45 43 42 46 47 45 44 48 49 47 46 50 51 49 48 52 53 51 50 54 55 53 52 56 57 55 54 58 59 57 56 60 61 59 58 62 63 61 60 64 65 63 62 66 67 65 64 68 69 67 66 70 71 69 68 72 73 71 70 74 75 73 72 76 77 75 74 78 79 77 76 80 81 79 78 82 83 1 84 85 2 5 86 87 6 2 85 88 8 6 87 89 10 8 88 90 12 10 89 91 14 12 90 92 16 14 91 93 18 16 92 94 20 18 93 95 22 20 94 96 24 22 95 97 26 24 96 98 28 26 97 99 30 28 98 100 32 30 99 101 34 32 100 102 36 34 101 103 38 36 102 104 40 38 103 105 42 40 104 106 44 42 105 107 46 44 106 108 48 46 107 109 50 48 108 110 52 50 109 111 54 52 110 112 56 54 111 113 58 56 112 114 60 58 113 115 62 60 114 116 64 62 115 117 66 64 116 118 68 66 117 119 70 68 118 120 72 70 119 121 74 72 120 122 76 74 121 123 78 76 122 124 80 78 123 125 82 
				</DataArray>
				<DataArray type="Int32" Name="offsets" format="ascii">
					8 16 24 32 40 48 56 64 72 80 88 96 104 112 120 128 136 144 152 160 168 176 184 192 200 208 216 224 232 240 248 256 264 272 280 288 296 304 312 320 
				</DataArray>
				<DataArray type="UInt8" Name="types" format="ascii">
					12 12 12 12 12 12 12 12 12 12 12 12 12 12 12 12 12 12 12 12 12 12 12 12 12 12 12 12 12 12 12 12 12 12 12 12 12 12 12 12 
				</DataArray>
			</Cells>
			<PointData>
				<DataArray type="Float32" Name="U" NumberOfComponents="3" ComponentName0="D1" ComponentName1="D2" ComponentName2="D3" format="ascii">
					 0.00000000E+00	 0.00000000E+00	 0.00000000E+00
					 0.00000000E+00	 0.00000000E+00	 0.00000000E+00
					 3.74141000E-03	 0.00000000E+00	-2.55052000E-04
					 4.01403000E-03	 0.00000000E+00	-6.20806000E-03
					 0.00000000E+00	 0.00000000E+00	 0.00000000E+00
					 0.00000000E+00	 0.00000000E+00	 0.00000000E+00
					 3.74141000E-03	 0.00000000E+00	-2.55052000E-04
					 4.01403000E-03	 0.00000000E+00	-6.20806000E-03
					 1.32420000E-02	 0.00000000E+00	-1.02437000E-03
					 1.23794000E-02	 0.00000000E+00	-1.17832000E-02
					 1.32420000E-02	 0.00000000E+00	-1.02437000E-03
					 1.23794000E-02	 0.00000000E+00	-1.17832000E-02
					 2.66437000E-02	 0.00000000E+00	-2.66484000E-03
					 2.48004000E-02	 0.00000000E+00	-1.70523000E-02
					 2.66437000E-02	 0.00000000E+00	-2.66484000E-03
					 2.48004000E-02	 0.00000000E+00	-1.70523000E-02
					 4.31545000E-02	 0.00000000E+00	-5.22581000E-03
					 4.03201000E-02	 0.00000000E+00	-2.23102000E-02
					 4.31545000E-02	 0.00000000E+00	-5.22581000E-03
					 4.03201000E-02	 0.00000000E+00	-2.23102000E-02
					 6.19606000E-02	 0.00000000E+00	-8.60473000E-03
					 5.83012000E-02	 0.00000000E+00	-2.75754000E-02
					 6.19606000E-02	 0.00000000E+00	-8.60473000E-03
					 5.83012000E-02	 0.00000000E+00	-2.75754000E-02
					 8.22710000E-02	 0.00000000E+00	-1.25882000E-02
					 7.80203000E-02	 0.00000000E+00	-3.27112000E-02
					 8.22710000E-02	 0.00000000E+00	-1.25882000E-02
					 7.80203000E-02	 0.00000000E+00	-3.27112000E-02
					 1.03345000E-01	 0.00000000E+00	-1.69063000E-02
					 9.87831000E-02	 0.00000000E+00	-3.75736000E-02
					 1.03345000E-01	 0.00000000E+00	-1.69063000E-02
					 9.87831000E-02	 0.00000000E+00	-3.75736000E-02
					 1.24610000E-01	 0.00000000E+00	-2.13144000E-02
					 1.19957000E-01	 0.00000000E+00	-4.20588000E-02
					 1.24610000E-01	 0.00000000E+00	-2.13144000E-02
					 1.19957000E-01	 0.00000000E+00	-4.20588000E-02
					 1.45693000E-01	 0.00000000E+00	-2.56320000E-02
					 1.41102000E-01	 0.00000000E+00	-4.61412000E-02
					 1.45693000E-01	 0.00000000E+00	-2.56320000E-02
					 1.41102000E-01	 0.00000000E+00	-4.61412000E-02
					 1.66365000E-01	 0.00000000E+00	-2.97468000E-02
					 1.61928000E-01	 0.00000000E+00	-4.98225000E-02
					 1.66365000E-01	 0.00000000E+00	-2.97468000E-02
					 1.61928000E-01	 0.00000000E+00	-4.98225000E-02
					 1.86477000E-01	 0.00000000E+00	-3.35929000E-02
					 1.82265000E-01	 0.00000000E+00	-5.31255000E-02
					 1.86477000E-01	 0.00000000E+00	-3.35929000E-02
					 1.82265000E-01	 0.00000000E+00	-5.31255000E-02
					 2.05949000E-01	 0.00000000E+00	-3.71412000E-02
					 2.01978000E-01	 0.00000000E+00	-5.60848000E-02
					 2.05949000E-01	 0.00000000E+00	-3.71412000E-02
					 2.01978000E-01	 0.00000000E+00	-5.60848000E-02
					 2.24785000E-01	 0.00000000E+00	-4.04063000E-02
					 2.21044000E-01	 0.00000000E+00	-5.87948000E-02
					 2.24785000E-01	 0.00000000E+00	-4.04063000E-02
					 2.21044000E-01	 0.00000000E+00	-5.87948000E-02
					 2.43060000E-01	 0.00000000E+00	-4.34483000E-02
					 2.39515000E-01	 0.00000000E+00	-6.13683000E-02
					 2.43060000E-01	 0.00000000E+00	-4.34483000E-02
					 2.39515000E-01	 0.00000000E+00	-6.13683000E-02
					 2.60877000E-01	 0.00000000E+00	-4.63480000E-02
					 2.57508000E-01	 0.00000000E+00	-6.39105000E-02
					 2.60877000E-01	 0.00000000E+00	-4.63480000E-02
					 2.57508000E-01	 0.00000000E+00	-6.39105000E-02
					 2.78353000E-01	 0.00000000E+00	-4.91763000E-02
					 2.75113000E-01	 0.00000000E+00	-6.64815000E-02
					 2.78353000E-01	 0.00000000E+00	-4.91763000E-02
					 2.75113000E-01	 0.00000000E+00	-6.64815000E-02
					 2.95614000E-01	 0.00000000E+00	-5.19804000E-02
					 2.92457000E-01	 0.00000000E+00	-6.91266000E-02
					 2.95614000E-01	 0.00000000E+00	-5.19804000E-02
					 2.92457000E-01	 0.00000000E+00	-6.91266000E-02
					 3.12755000E-01	 0.00000000E+00	-5.47968000E-02
					 3.09644000E-01	 0.00000000E+00	-7.18639000E-02
					 3.12755000E-01	 0.00000000E+00	-5.47968000E-02
					 3.09644000E-01	 0.00000000E+00	-7.18639000E-02
					 3.29827000E-01	 0.00000000E+00	-5.76637000E-02
					 3.26759000E-01	 0.00000000E+00	-7.47132000E-02
					 3.29827000E-01	 0.00000000E+00	-5.76637000E-02
					 3.26759000E-01	 0.00000000E+00	-7.47132000E-02
					 3.46879000E-01	 0.00000000E+00	-6.06266000E-02
					 3.43840000E-01	 0.00000000E+00	-7.76751000E-02
					 3.46879000E-01	 0.00000000E+00	-6.06266000E-02
					 3.43840000E-01	 0.00000000E+00	-7.76751000E-02
					 0.00000000E+00	 0.00000000E+00	 0.00000000E+00
					 5.17602000E-03	 0.00000000E+00	 5.52895000E-03
					 0.00000000E+00	 0.00000000E+00	 0.00000000E+00
					 5.17602000E-03	 0.00000000E+00	 5.52895000E-03
					 1.51120000E-02	 0.00000000E+00	 9.40839000E-03
					 1.51120000E-02	 0.00000000E+00	 9.40839000E-03
					 2.92984000E-02	 0.00000000E+00	 1.13952000E-02
					 2.92984000E-02	 0.00000000E+00	 1.13952000E-02
					 4.65813000E-02	 0.00000000E+00	 1.15941000E-02
					 4.65813000E-02	 0.00000000E+00	 1.15941000E-02
					 6.60230000E-02	 0.00000000E+00	 1.01743000E-02
					 6.60230000E-02	 0.00000000E+00	 1.01743000E-02
					 8.67576000E-02	 0.00000000E+00	 7.41147000E-03
					 8.67576000E-02	 0.00000000E+00	 7.41147000E-03
					 1.08000000E-01	 0.00000000E+00	 3.70472000E-03
					 1.08000000E-01	 0.00000000E+00	 3.70472000E-03
					 1.29266000E-01	 0.00000000E+00	-5.70151000E-04
					 1.29266000E-01	 0.00000000E+00	-5.70151000E-04
					 1.50222000E-01	 0.00000000E+00	-5.08405000E-03
					 1.50222000E-01	 0.00000000E+00	-5.08405000E-03
					 1.70702000E-01	 0.00000000E+00	-9.61858000E-03
					 1.70702000E-01	 0.00000000E+00	-9.61858000E-03
					 1.90561000E-01	 0.00000000E+00	-1.40017000E-02
					 1.90561000E-01	 0.00000000E+00	-1.40017000E-02
					 2.09793000E-01	 0.00000000E+00	-1.81401000E-02
					 2.09793000E-01	 0.00000000E+00	-1.81401000E-02
					 2.28410000E-01	 0.00000000E+00	-2.19702000E-02
					 2.28410000E-01	 0.00000000E+00	-2.19702000E-02
					 2.46513000E-01	 0.00000000E+00	-2.55046000E-02
					 2.46513000E-01	 0.00000000E+00	-2.55046000E-02
					 2.64173000E-01	 0.00000000E+00	-2.87791000E-02
					 2.64173000E-01	 0.00000000E+00	-2.87791000E-02
					 2.81551000E-01	 0.00000000E+00	-3.18690000E-02
					 2.81551000E-01	 0.00000000E+00	-3.18690000E-02
					 2.98751000E-01	 0.00000000E+00	-3.48357000E-02
					 2.98751000E-01	 0.00000000E+00	-3.48357000E-02
					 3.15860000E-01	 0.00000000E+00	-3.77457000E-02
					 3.15860000E-01	 0.00000000E+00	-3.77457000E-02
					 3.32893000E-01	 0.00000000E+00	-4.06427000E-02
					 3.32893000E-01	 0.00000000E+00	-4.06427000E-02
					 3.49923000E-01	 0.00000000E+00	-4.35848000E-02
					 3.49923000E-01	 0.00000000E+00	-4.35848000E-02
				</DataArray>
				<DataArray type="Float32" Name="S" NumberOfComponents="10" ComponentName0="xx" ComponentName1="yy" ComponentName2="zz" ComponentName3="xy" ComponentName4="yz" ComponentName5="zx" ComponentName6="Mises" ComponentName7="Min Principal" ComponentName8="Mid Principal" ComponentName9="Max Principal" format="ascii">
					-3.81454000E+03	-4.30210000E+03	-1.38868000E+04	 0.00000000E+00	 0.00000000E+00	 2.81922000E+03	 1.09827733E+04	-1.46222042E+04	-4.30210000E+03	-3.07913582E+03
					 3.45547000E+02	-7.58226000E+01	-1.03329000E+03	 0.00000000E+00	 0.00000000E+00	 3.64258000E+03	 6.42673408E+03	-4.05111939E+03	-7.58226000E+01	 3.36337639E+03
					-1.34885000E+02	-1.52544000E+02	-9.07350000E+02	 2.42627000E-08	 3.20492000E-08	 6.72133000E+02	 1.39235820E+03	-1.29631961E+03	-1.52544000E+02	 2.54084612E+02
					-1.84162000E+03	-3.31854000E+03	-1.22100000E+04	 7.90426000E-09	 3.26269000E-08	-4.21168000E+02	 9.74184152E+03	-1.22270799E+04	-3.31854000E+03	-1.82454011E+03
					-3.81454000E+03	-4.30210000E+03	-1.38868000E+04	 0.00000000E+00	 0.00000000E+00	 2.81922000E+03	 1.09827733E+04	-1.46222042E+04	-4.30210000E+03	-3.07913582E+03
					 3.45547000E+02	-7.58226000E+01	-1.03329000E+03	 0.00000000E+00	 0.00000000E+00	 3.64258000E+03	 6.42673408E+03	-4.05111939E+03	-7.58226000E+01	 3.36337639E+03
					-1.34885000E+02	-1.52544000E+02	-9.07350000E+02	 2.42626000E-08	 3.20492000E-08	 6.72133000E+02	 1.39235820E+03	-1.29631961E+03	-1.52544000E+02	 2.54084612E+02
					-1.84162000E+03	-3.31854000E+03	-1.22100000E+04	 7.90440000E-09	 3.26270000E-08	-4.21168000E+02	 9.74184152E+03	-1.22270799E+04	-3.31854000E+03	-1.82454011E+03
					 1.42264000E+00	-4.43806000E+01	-4.58244000E+02	-2.75296000E-08	 4.07379000E-08	 7.81365000E+02	 1.42264926E+03	-1.04287653E+03	-4.43806000E+01	 5.86055168E+02
					-2.09875000E+03	-2.68517000E+03	-9.75580000E+03	-2.33744000E-08	 4.83165000E-08	-1.17004000E+03	 7.65447821E+03	-9.93059828E+03	-2.68517000E+03	-1.92395172E+03
					 1.42264000E+00	-4.43806000E+01	-4.58244000E+02	-2.75299000E-08	 4.07380000E-08	 7.81365000E+02	 1.42264926E+03	-1.04287653E+03	-4.43806000E+01	 5.86055168E+02
					-2.09875000E+03	-2.68517000E+03	-9.75580000E+03	-2.33740000E-08	 4.83161000E-08	-1.17004000E+03	 7.65447821E+03	-9.93059828E+03	-2.68517000E+03	-1.92395172E+03
					 1.72936000E+02	 1.96656000E+01	-1.99079000E+02	-5.98600000E-08	 3.33190000E-08	 6.75305000E+02	 1.21366330E+03	-7.13525376E+02	 1.96656000E+01	 6.87382376E+02
					-1.56968000E+03	-1.94831000E+03	-7.31540000E+03	-7.01091000E-08	 5.83523000E-08	-1.25917000E+03	 5.97810039E+03	-7.57923152E+03	-1.94831000E+03	-1.30584848E+03
					 1.72936000E+02	 1.96656000E+01	-1.99079000E+02	-5.98593000E-08	 3.33191000E-08	 6.75305000E+02	 1.21366330E+03	-7.13525376E+02	 1.96656000E+01	 6.87382376E+02
					-1.56968000E+03	-1.94831000E+03	-7.31540000E+03	-7.01102000E-08	 5.83528000E-08	-1.25917000E+03	 5.97810039E+03	-7.57923152E+03	-1.94831000E+03	-1.30584848E+03
					 2.74607000E+02	 6.08707000E+01	-3.12807000E+01	-8.76847000E-08	 4.88428000E-08	 6.74673000E+02	 1.19975921E+03	-5.70128349E+02	 6.08707000E+01	 8.13454649E+02
					-1.22962000E+03	-1.39273000E+03	-5.29200000E+03	-8.57954000E-08	 4.26331000E-08	-1.07153000E+03	 4.39447960E+03	-5.55730937E+03	-1.39273000E+03	-9.64310630E+02
					 2.74607000E+02	 6.08707000E+01	-3.12807000E+01	-8.76796000E-08	 4.88426000E-08	 6.74673000E+02	 1.19975921E+03	-5.70128349E+02	 6.08707000E+01	 8.13454649E+02
					-1.22962000E+03	-1.39273000E+03	-5.29200000E+03	-8.57959000E-08	 4.26327000E-08	-1.07153000E+03	 4.39447960E+03	-5.55730937E+03	-1.39273000E+03	-9.64310630E+02
					 3.39366000E+02	 9.06860000E+01	 9.42672000E+01	-5.18759000E-08	 4.69929000E-08	 6.80144000E+02	 1.20364097E+03	-4.74279787E+02	 9.06860000E+01	 9.07912987E+02
					-8.07348000E+02	-8.89525000E+02	-3.45987000E+03	-5.57442000E-08	 1.75159000E-08	-6.69993000E+02	 2.85855236E+03	-3.61949556E+03	-8.89525000E+02	-6.47722443E+02
					 3.39366000E+02	 9.06860000E+01	 9.42672000E+01	-5.18756000E-08	 4.69931000E-08	 6.80144000E+02	 1.20364097E+03	-4.74279787E+02	 9.06860000E+01	 9.07912987E+02
					-8.07348000E+02	-8.89525000E+02	-3.45987000E+03	-5.57459000E-08	 1.75162000E-08	-6.69993000E+02	 2.85855236E+03	-3.61949556E+03	-8.89525000E+02	-6.47722443E+02
					 3.19019000E+02	 1.00660000E+02	 1.87019000E+02	-7.19691000E-09	 2.21364000E-08	 6.60705000E+02	 1.16011834E+03	-4.10974296E+02	 1.00660000E+02	 9.17012296E+02
					-3.93315000E+02	-4.54382000E+02	-1.83103000E+03	-2.18047000E-08	 1.27069000E-08	-1.90689000E+02	 1.44638983E+03	-1.85589180E+03	-4.54382000E+02	-3.68453198E+02
					 3.19019000E+02	 1.00660000E+02	 1.87019000E+02	-7.19677000E-09	 2.21364000E-08	 6.60705000E+02	 1.16011834E+03	-4.10974296E+02	 1.00660000E+02	 9.17012296E+02
					-3.93315000E+02	-4.54382000E+02	-1.83103000E+03	-2.18013000E-08	 1.27071000E-08	-1.90689000E+02	 1.44638983E+03	-1.85589180E+03	-4.54382000E+02	-3.68453198E+02
					 2.92093000E+02	 1.14644000E+02	 2.92456000E+02	-2.20753000E-09	 2.17413000E-08	 5.87356000E+02	 1.03272160E+03	-2.95081528E+02	 1.14644000E+02	 8.79630528E+02
					-6.24967000E+00	-9.45734000E+01	-4.58607000E+02	-3.88301000E-08	 6.03893000E-09	 2.26670000E+02	 5.71499970E+02	-5.52640885E+02	-9.45734000E+01	 8.77842153E+01
					 2.92093000E+02	 1.14644000E+02	 2.92456000E+02	-2.20387000E-09	 2.17411000E-08	 5.87356000E+02	 1.03272160E+03	-2.95081528E+02	 1.14644000E+02	 8.79630528E+02
					-6.24967000E+00	-9.45734000E+01	-4.58607000E+02	-3.88357000E-08	 6.03918000E-09	 2.26670000E+02	 5.71499970E+02	-5.52640885E+02	-9.45734000E+01	 8.77842153E+01
					 2.13183000E+02	 1.17052000E+02	 3.84453000E+02	 4.83624000E-08	 1.95890000E-08	 5.15967000E+02	 9.23961457E+02	-2.24207141E+02	 1.17052000E+02	 8.21843141E+02
					 2.46766000E+02	 1.61125000E+02	 5.77980000E+02	 2.40130000E-08	-1.54846000E-08	 5.37645000E+02	 1.00627483E+03	-1.50199506E+02	 1.61125000E+02	 9.74945506E+02
					 2.13183000E+02	 1.17052000E+02	 3.84453000E+02	 4.83578000E-08	 1.95889000E-08	 5.15967000E+02	 9.23961457E+02	-2.24207141E+02	 1.17052000E+02	 8.21843141E+02
					 2.46766000E+02	 1.61125000E+02	 5.77980000E+02	 2.40155000E-08	-1.54834000E-08	 5.37645000E+02	 1.00627483E+03	-1.50199506E+02	 1.61125000E+02	 9.74945506E+02
					 1.40107000E+02	 1.21508000E+02	 4.78175000E+02	 8.30064000E-08	 6.97961000E-09	 4.61733000E+02	 8.72075520E+02	-1.82559983E+02	 1.21508000E+02	 8.00841983E+02
					 3.89462000E+02	 3.29967000E+02	 1.30625000E+03	 6.59442000E-08	-1.88978000E-08	 7.40833000E+02	 1.59533219E+03	-2.33262961E+01	 3.29967000E+02	 1.71903830E+03
					 1.40107000E+02	 1.21508000E+02	 4.78175000E+02	 8.30123000E-08	 6.97910000E-09	 4.61733000E+02	 8.72075520E+02	-1.82559983E+02	 1.21508000E+02	 8.00841983E+02
					 3.89462000E+02	 3.29967000E+02	 1.30625000E+03	 6.59466000E-08	-1.88969000E-08	 7.40833000E+02	 1.59533219E+03	-2.33262961E+01	 3.29967000E+02	 1.71903830E+03
					 5.51051000E+01	 1.21907000E+02	 5.63945000E+02	 7.48712000E-08	-2.32209000E-08	 4.30279000E+02	 8.85894530E+02	-1.90344462E+02	 1.21907000E+02	 8.09394562E+02
					 4.40573000E+02	 4.32629000E+02	 1.79423000E+03	 9.58660000E-08	-4.85919000E-08	 8.65084000E+02	 2.02195816E+03	 1.90085168E+01	 4.32629000E+02	 2.21579448E+03
					 5.51051000E+01	 1.21907000E+02	 5.63945000E+02	 7.48782000E-08	-2.32214000E-08	 4.30279000E+02	 8.85894530E+02	-1.90344462E+02	 1.21907000E+02	 8.09394562E+02
					 4.40573000E+02	 4.32629000E+02	 1.79423000E+03	 9.58581000E-08	-4.85916000E-08	 8.65084000E+02	 2.02195816E+03	 1.90085168E+01	 4.32629000E+02	 2.21579448E+03
					 2.74201000E+01	 1.38629000E+02	 6.75107000E+02	 9.58464000E-08	-5.85123000E-08	 3.88670000E+02	 9.01681928E+02	-1.54640541E+02	 1.38629000E+02	 8.57167641E+02
					 4.68013000E+02	 4.98707000E+02	 2.11566000E+03	 8.42087000E-08	-6.05109000E-08	 9.01819000E+02	 2.25941196E+03	 7.03772629E+01	 4.98707000E+02	 2.51329574E+03
					 2.74201000E+01	 1.38629000E+02	 6.75107000E+02	 9.58379000E-08	-5.85113000E-08	 3.88670000E+02	 9.01681928E+02	-1.54640541E+02	 1.38629000E+02	 8.57167641E+02
					 4.68013000E+02	 4.98707000E+02	 2.11566000E+03	 8.42141000E-08	-6.05116000E-08	 9.01819000E+02	 2.25941196E+03	 7.03772629E+01	 4.98707000E+02	 2.51329574E+03
					-1.75906000E+01	 1.48647000E+02	 7.71437000E+02	 4.39311000E-08	-5.10960000E-08	 3.58454000E+02	 9.51052706E+02	-1.56115643E+02	 1.48647000E+02	 9.09962043E+02
					 4.22163000E+02	 5.13054000E+02	 2.23817000E+03	 7.26574000E-08	-4.11823000E-08	 8.69989000E+02	 2.32631178E+03	 7.26486209E+01	 5.13054000E+02	 2.58768438E+03
					-1.75906000E+01	 1.48647000E+02	 7.71437000E+02	 4.39394000E-08	-5.10947000E-08	 3.58454000E+02	 9.51052706E+02	-1.56115643E+02	 1.48647000E+02	 9.09962043E+02
					 4.22163000E+02	 5.13054000E+02	 2.23817000E+03	 7.26524000E-08	-4.11788000E-08	 8.69989000E+02	 2.32631178E+03	 7.26486209E+01	 5.13054000E+02	 2.58768438E+03
					-4.88163000E+01	 1.54410000E+02	 8.32813000E+02	-1.10173000E-08	-3.25701000E-08	 3.28752000E+02	 9.81648880E+02	-1.57906581E+02	 1.54410000E+02	 9.41903281E+02
					 3.39474000E+02	 4.81128000E+02	 2.15171000E+03	 0.00000000E+00	 0.00000000E+00	 7.80503000E+02	 2.20796501E+03	 4.96677704E+01	 4.81128000E+02	 2.44151623E+03
					-4.88163000E+01	 1.54410000E+02	 8.32813000E+02	-1.10253000E-08	-3.25699000E-08	 3.28752000E+02	 9.81648880E+02	-1.57906581E+02	 1.54410000E+02	 9.41903281E+02
					 3.39474000E+02	 4.81128000E+02	 2.15171000E+03	 0.00000000E+00	 0.00000000E+00	 7.80503000E+02	 2.20796501E+03	 4.96677704E+01	 4.81128000E+02	 2.44151623E+03
					-9.39592000E+01	 1.41680000E+02	 8.14372000E+02	-3.06812000E-08	 2.22490000E-09	 2.97446000E+02	 9.65388695E+02	-1.82693697E+02	 1.41680000E+02	 9.03106497E+02
					 2.31536000E+02	 4.10983000E+02	 1.88940000E+03	-3.25614000E-08	 2.86249000E-08	 6.62579000E+02	 1.94942257E+03	-7.29056095E-01	 4.10983000E+02	 2.12166506E+03
					-9.39592000E+01	 1.41680000E+02	 8.14372000E+02	-3.06827000E-08	 2.22508000E-09	 2.97446000E+02	 9.65388695E+02	-1.82693697E+02	 1.41680000E+02	 9.03106497E+02
					 2.31536000E+02	 4.10983000E+02	 1.88940000E+03	-3.25595000E-08	 2.86258000E-08	 6.62579000E+02	 1.94942257E+03	-7.29056095E-01	 4.10983000E+02	 2.12166506E+03
					-8.10857000E+01	 1.30513000E+02	 7.43673000E+02	-9.97667000E-08	 4.58163000E-08	 2.41837000E+02	 8.52020222E+02	-1.46766872E+02	 1.30513000E+02	 8.09354172E+02
					 1.67678000E+02	 3.34308000E+02	 1.54841000E+03	-9.49657000E-08	 4.21383000E-08	 5.18359000E+02	 1.58436208E+03	-5.26432663E+00	 3.34308000E+02	 1.72135233E+03
					-8.10857000E+01	 1.30513000E+02	 7.43673000E+02	-9.97621000E-08	 4.58152000E-08	 2.41837000E+02	 8.52020222E+02	-1.46766872E+02	 1.30513000E+02	 8.09354172E+02
					 1.67678000E+02	 3.34308000E+02	 1.54841000E+03	-9.49712000E-08	 4.21412000E-08	 5.18359000E+02	 1.58436208E+03	-5.26432663E+00	 3.34308000E+02	 1.72135233E+03
					-8.88803000E+01	 1.06164000E+02	 6.27224000E+02	-1.05437000E-07	 3.34703000E-08	 1.98918000E+02	 7.27929047E+02	-1.40425163E+02	 1.06164000E+02	 6.78768863E+02
					 8.85797000E+01	 2.47065000E+02	 1.17284000E+03	-8.13879000E-08	 2.41913000E-08	 3.83883000E+02	 1.21284671E+03	-3.35726631E+01	 2.47065000E+02	 1.29499236E+03
					-8.88803000E+01	 1.06164000E+02	 6.27224000E+02	-1.05435000E-07	 3.34710000E-08	 1.98918000E+02	 7.27929047E+02	-1.40425163E+02	 1.06164000E+02	 6.78768863E+02
					 8.85797000E+01	 2.47065000E+02	 1.17284000E+03	-8.13877000E-08	 2.41879000E-08	 3.83883000E+02	 1.21284671E+03	-3.35726631E+01	 2.47065000E+02	 1.29499236E+03
					-9.79637000E+01	 7.92261000E+01	 4.99405000E+02	-1.06123000E-07	 1.64167000E-08	 1.68250000E+02	 6.06071065E+02	-1.42091840E+02	 7.92261000E+01	 5.43533140E+02
					 1.21654000E+01	 1.62412000E+02	 8.13278000E+02	-1.02802000E-07	 3.14958000E-08	 2.74853000E+02	 8.77851644E+02	-7.30658267E+01	 1.62412000E+02	 8.98509227E+02
					-9.79637000E+01	 7.92261000E+01	 4.99405000E+02	-1.06127000E-07	 1.64203000E-08	 1.68250000E+02	 6.06071065E+02	-1.42091840E+02	 7.92261000E+01	 5.43533140E+02
					 1.21654000E+01	 1.62412000E+02	 8.13278000E+02	-1.02808000E-07	 3.14943000E-08	 2.74853000E+02	 8.77851644E+02	-7.30658267E+01	 1.62412000E+02	 8.98509227E+02
					-1.25875000E+02	 4.28319000E+01	 3.43253000E+02	-1.25515000E-07	 1.79442000E-08	 1.35945000E+02	 4.74174121E+02	-1.62422256E+02	 4.28319000E+01	 3.79800256E+02
					-5.99869000E+01	 8.33018000E+01	 4.82179000E+02	-1.42537000E-07	 5.70481000E-09	 1.88266000E+02	 5.85765762E+02	-1.18949481E+02	 8.33018000E+01	 5.41141581E+02
					-1.25875000E+02	 4.28319000E+01	 3.43253000E+02	-1.25519000E-07	 1.79419000E-08	 1.35945000E+02	 4.74174121E+02	-1.62422256E+02	 4.28319000E+01	 3.79800256E+02
					-5.99869000E+01	 8.33018000E+01	 4.82179000E+02	-1.42538000E-07	 5.70485000E-09	 1.88266000E+02	 5.85765762E+02	-1.18949481E+02	 8.33018000E+01	 5.41141581E+02
					-1.16666000E+02	 6.75803000E+00	 1.51644000E+02	-8.61451000E-08	-4.29288000E-09	 7.71069000E+01	 2.68224287E+02	-1.37246381E+02	 6.75803000E+00	 1.72224381E+02
					-7.82604000E+01	 2.31251000E+01	 1.95453000E+02	-1.00775000E-07	-4.63897000E-08	 1.01451000E+02	 2.97194198E+02	-1.11762327E+02	 2.31251000E+01	 2.28954927E+02
					-1.16666000E+02	 6.75803000E+00	 1.51644000E+02	-8.61333000E-08	-4.29300000E-09	 7.71069000E+01	 2.68224287E+02	-1.37246381E+02	 6.75803000E+00	 1.72224381E+02
					-7.82604000E+01	 2.31251000E+01	 1.95453000E+02	-1.00776000E-07	-4.63885000E-08	 1.01451000E+02	 2.97194198E+02	-1.11762327E+02	 2.31251000E+01	 2.28954927E+02
					-9.05217000E+01	-7.49565000E+00	 5.32818000E+01	-4.08287000E-08	-3.36123000E-08	 3.26450000E+01	 1.37223989E+02	-9.75854974E+01	-7.49565000E+00	 6.03455974E+01
					-5.43405000E+01	 2.55536000E+00	 6.73740000E+01	-1.79489000E-08	-8.96730000E-08	 5.69130000E+01	 1.44373737E+02	-7.68060827E+01	 2.55536000E+00	 8.98395827E+01
					-9.05217000E+01	-7.49565000E+00	 5.32818000E+01	-4.08219000E-08	-3.36159000E-08	 3.26450000E+01	 1.37223989E+02	-9.75854974E+01	-7.49565000E+00	 6.03455974E+01
					-5.43405000E+01	 2.55536000E+00	 6.73740000E+01	-1.79000000E-08	-8.96713000E-08	 5.69130000E+01	 1.44373737E+02	-7.68060827E+01	 2.55536000E+00	 8.98395827E+01
					 4.63421000E+03	 3.65884000E+03	 1.72787000E+04	 0.00000000E+00	 0.00000000E+00	 6.68721000E+03	 1.75306549E+04	 1.75376195E+03	 3.65884000E+03	 2.01591481E+04
					 1.41305000E+03	 2.76074000E+03	 1.47932000E+04	 1.67877000E-08	 8.64813000E-09	 2.84652000E+03	 1.36791965E+04	 8.32651864E+02	 2.76074000E+03	 1.53735981E+04
					 4.63421000E+03	 3.65884000E+03	 1.72787000E+04	 0.00000000E+00	 0.00000000E+00	 6.68721000E+03	 1.75306549E+04	 1.75376195E+03	 3.65884000E+03	 2.01591481E+04