<?xml version="1.0"?>
<VTKFile type="UnstructuredGrid" version="0.1" byte_order="LittleEndian">
	<UnstructuredGrid>
		<Piece NumberOfPoints="126" NumberOfCells="40">
			<Points>
				<DataArray type="Float64" NumberOfComponents="3" format="ascii">
					 5.00000000E-02	 0.00000000E+00	 0.00000000E+00
					 0.00000000E+00	 0.00000000E+00	 0.00000000E+00
					 0.00000000E+00	 0.00000000E+00	 5.00000000E-02
					 5.00000000E-02	 0.00000000E+00	 5.00000000E-02
					 5.00000000E-02	 3.00000000E-01	 0.00000000E+00
					 0.00000000E+00	 3.00000000E-01	 0.00000000E+00
					 0.00000000E+00	 3.00000000E-01	 5.00000000E-02
					 5.00000000E-02	 3.00000000E-01	 5.00000000E-02
					 0.00000000E+00	 0.00000000E+00	 1.00000000E-01
					 5.00000000E-02	 0.00000000E+00	 1.00000000E-01
					 0.00000000E+00	 3.00000000E-01	 1.00000000E-01
					 5.00000000E-02	 3.00000000E-01	 1.00000000E-01
					 0.00000000E+00	 0.00000000E+00	 1.50000000E-01
					 5.00000000E-02	 0.00000000E+00	 1.50000000E-01
					 0.00000000E+00	 3.00000000E-01	 1.50000000E-01
					 5.00000000E-02	 3.00000000E-01	 1.50000000E-01
					 0.00000000E+00	 0.00000000E+00	 2.00000000E-01
					 5.00000000E-02	 0.00000000E+00	 2.00000000E-01
					 0.00000000E+00	 3.00000000E-01	 2.00000000E-01
					 5.00000000E-02	 3.00000000E-01	 2.00000000E-01
					 0.00000000E+00	 0.00000000E+00	 2.50000000E-01
					 5.00000000E-02	 0.00000000E+00	 2.50000000E-01
					 0.00000000E+00	 3.00000000E-01	 2.50000000E-01
					 5.00000000E-02	 3.00000000E-01	 2.50000000E-01
					 0.00000000E+00	 0.00000000E+00	 3.00000000E-01
					 5.00000000E-02	 0.00000000E+00	 3.00000000E-01
					 0.00000000E+00	 3.00000000E-01	 3.00000000E-01
					 5.00000000E-02	 3.00000000E-01	 3.00000000E-01
					 0.00000000E+00	 0.00000000E+00	 3.50000000E-01
					 5.00000000E-02	 0.00000000E+00	 3.50000000E-01
					 0.00000000E+00	 3.00000000E-01	 3.50000000E-01
					 5.00000000E-02	 3.00000000E-01	 3.50000000E-01
					 0.00000000E+00	 0.00000000E+00	 4.00000000E-01
					 5.00000000E-02	 0.00000000E+00	 4.00000000E-01
					 0.00000000E+00	 3.00000000E-01	 4.00000000E-01
					 5.00000000E-02	 3.00000000E-01	 4.00000000E-01
					 0.00000000E+00	 0.00000000E+00	 4.50000000E-01
					 5.00000000E-02	 0.00000000E+00	 4.50000000E-01
					 0.00000000E+00	 3.00000000E-01	 4.50000000E-01
					 5.00000000E-02	 3.00000000E-01	 4.50000000E-01
					 0.00000000E+00	 0.00000000E+00	 5.00000000E-01
					 5.00000000E-02	 0.00000000E+00	 5.00000000E-01
					 0.00000000E+00	 3.00000000E-01	 5.00000000E-01
					 5.00000000E-02	 3.00000000E-01	 5.00000000E-01
					 0.00000000E+00	 0.00000000E+00	 5.50000000E-01
					 5.00000000E-02	 0.00000000E+00	 5.50000000E-01
					 0.00000000E+00	 3.00000000E-01	 5.50000000E-01
					 5.00000000E-02	 3.00000000E-01	 5.50000000E-01
					 0.00000000E+00	 0.00000000E+00	 6.00000000E-01
					 5.00000000E-02	 0.00000000E+00	 6.00000000E-01
					 0.00000000E+00	 3.00000000E-01	 6.00000000E-01
					 5.00000000E-02	 3.00000000E-01	 6.00000000E-01
					 0.00000000E+00	 0.00000000E+00	 6.50000000E-01
					 5.00000000E-02	 0.00000000E+00	 6.50000000E-01
					 0.00000000E+00	 3.00000000E-01	 6.50000000E-01
					 5.00000000E-02	 3.00000000E-01	 6.50000000E-01
					 0.00000000E+00	 0.00000000E+00	 7.00000000E-01
					 5.00000000E-02	 0.00000000E+00	 7.00000000E-01
					 0.00000000E+00	 3.00000000E-01	 7.00000000E-01
					 5.00000000E-02	 3.00000000E-01	 7.00000000E-01
					 0.00000000E+00	 0.00000000E+00	 7.50000000E-01
					 5.00000000E-02	 0.00000000E+00	 7.50000000E-01
					 0.00000000E+00	 3.00000000E-01	 7.50000000E-01
					 5.00000000E-02	 3.00000000E-01	 7.50000000E-01
					 0.00000000E+00	 0.00000000E+00	 8.00000000E-01
					 5.00000000E-02	 0.00000000E+00	 8.00000000E-01
					 0.00000000E+00	 3.00000000E-01	 8.00000000E-01
					 5.00000000E-02	 3.00000000E-01	 8.00000000E-01
					 0.00000000E+00	 0.00000000E+00	 8.50000000E-01
					 5.00000000E-02	 0.00000000E+00	 8.50000000E-01
					 0.00000000E+00	 3.00000000E-01	 8.50000000E-01
					 5.00000000E-02	 3.00000000E-01	 8.50000000E-01
					 0.00000000E+00	 0.00000000E+00	 9.00000000E-01
					 5.00000000E-02	 0.00000000E+00	 9.00000000E-01
					 0.00000000E+00	 3.00000000E-01	 9.00000000E-01
					 5.00000000E-02	 3.00000000E-01	 9.00000000E-01
					 0.00000000E+00	 0.00000000E+00	 9.50000000E-01
					 5.00000000E-02	 0.00000000E+00	 9.50000000E-01
					 0.00000000E+00	 3.00000000E-01	 9.50000000E-01
					 5.00000000E-02	 3.00000000E-01	 9.50000000E-01
					 0.00000000E+00	 0.00000000E+00	 1.00000000E+00
					 5.00000000E-02	 0.00000000E+00	 1.00000000E+00
					 0.00000000E+00	 3.00000000E-01	 1.00000000E+00
					 5.00000000E-02	 3.00000000E-01	 1.00000000E+00
					-5.00000000E-02	 0.00000000E+00	 0.00000000E+00
					-5.00000000E-02	 0.00000000E+00	 5.00000000E-02
					-5.00000000E-02	 3.00000000E-01	 0.00000000E+00
					-5.00000000E-02	 3.00000000E-01	 5.00000000E-02
					-5.00000000E-02	 0.00000000E+00	 1.00000000E-01
					-5.00000000E-02	 3.00000000E-01	 1.00000000E-01
					-5.00000000E-02	 0.00000000E+00	 1.50000000E-01
					-5.00000000E-02	 3.00000000E-01	 1.50000000E-01
					-5.00000000E-02	 0.00000000E+00	 2.00000000E-01
					-5.00000000E-02	 3.00000000E-01	 2.00000000E-01
					-5.00000000E-02	 0.00000000E+00	 2.50000000E-01
					-5.00000000E-02	 3.00000000E-01	 2.50000000E-01
					-5.00000000E-02	 0.00000000E+00	 3.00000000E-01
					-5.00000000E-02	 3.00000000E-01	 3.00000000E-01
					-5.00000000E-02	 0.00000000E+00	 3.50000000E-01
					-5.00000000E-02	 3.00000000E-01	 3.50000000E-01
					-5.00000000E-02	 0.00000000E+00	 4.00000000E-01
					-5.00000000E-02	 3.00000000E-01	 4.00000000E-01
					-5.00000000E-02	 0.00000000E+00	 4.50000000E-01
					-5.00000000E-02	 3.00000000E-01	 4.50000000E-01
					-5.00000000E-02	 0.00000000E+00	 5.00000000E-01
					-5.00000000E-02	 3.00000000E-01	 5.00000000E-01
					-5.00000000E-02	 0.00000000E+00	 5.50000000E-01
					-5.00000000E-02	 3.00000000E-01	 5.50000000E-01
					-5.00000000E-02	 0.00000000E+00	 6.00000000E-01
					-5.00000000E-02	 3.00000000E-01	 6.00000000E-01
					-5.00000000E-02	 0.00000000E+00	 6.50000000E-01
					-5.00000000E-02	 3.00000000E-01	 6.50000000E-01
					-5.00000000E-02	 0.00000000E+00	 7.00000000E-01
					-5.00000000E-02	 3.00000000E-01	 7.00000000E-01
					-5.00000000E-02	 0.00000000E+00	 7.50000000E-01
					-5.00000000E-02	 3.00000000E-01	 7.50000000E-01
					-5.00000000E-02	 0.00000000E+00	 8.00000000E-01
					-5.00000000E-02	 3.00000000E-01	 8.00000000E-01
					-5.00000000E-02	 0.00000000E+00	 8.50000000E-01
					-5.00000000E-02	 3.00000000E-01	 8.50000000E-01
					-5.00000000E-02	 0.00000000E+00	 9.00000000E-01
					-5.00000000E-02	 3.00000000E-01	 9.00000000E-01
					-5.00000000E-02	 0.00000000E+00	 9.50000000E-01
					-5.00000000E-02	 3.00000000E-01	 9.50000000E-01
					-5.00000000E-02	 0.00000000E+00	 1.00000000E+00
					-5.00000000E-02	 3.00000000E-01	 1.00000000E+00

				</DataArray>
			</Points>
			<Cells>
				<DataArray type="Int32" Name="connectivity" format="ascii">
					0 1 2 3 4 5 6 7 3 2 8 9 7 6 10 11 9 8 12 13 11 10 14 15 13 12 16 17 15 14 18 19 17 16 20 21 19 18 22 23 21 20 24 25 23 22 26 27 25 24 28 29 27 26 30 31 29 28 32 33 31 30 34 35 33 32 36 37 35 34 38 39 37 36 40 41 39 38 42 43 41 40 44 45 43 42 46 47 45 44 48 49 47 46 50 51 49 48 52 53 51 50 54 55 53 52 56 57 55 54 58 59 57 56 60 61 59 58 62 63 61 60 64 65 63 62 66 67 65 64 68 69 67 66 70 71 69 68 72 73 71 70 74 75 73 72 76 77 75 74 78 79 77 76 80 81 79 78 82 83 1 84 85 2 5 86 87 6 2 85 88 8 6 87 89 10 8 88 90 12 10 89 91 14 12 90 92 16 14 91 93 18 16 92 94 20 18 93 95 22 20 94 96 24 22 95 97 26 24 96 98 28 26 97 99 30 28 98 100 32 30 99 101 34 32 100 102 36 34 101 103 38 36 102 104 40 38 103 105 42 40 104 106 44 42 105 107 46 44 106 108 48 46 107 109 50 48 108 110 52 50 109 111 54 52 110 112 56 54 111 113 58 56 112 114 60 58 113 115 62 60 114 116 64 62 115 117 66 64 116 118 68 66 117 119 70 68 118 120 72 70 119 121 74 72 120 122 76 74 121 123 78 76 122 124 80 78 123 125 82 
				</DataArray>
				<DataArray type="Int32" Name="offsets" format="ascii">
					8 16 24 32 40 48 56 64 72 80 88 96 104 112 120 128 136 144 152 160 168 176 184 192 200 208 216 224 232 240 248 256 264 272 280 288 296 304 312 320 
				</DataArray>
				<DataArray type="UInt8" Name="types" format="ascii">
					12 12 12 12 12 12 12 12 12 12 12 12 12 12 12 12 12 12 12 12 12 12 12 12 12 12 12 12 12 12 12 12 12 12 12 12 12 12 12 12 
				</DataArray>
			</Cells>
			<PointData>
				<DataArray type="Float32" Name="U" NumberOfComponents="3" ComponentName0="D1" ComponentName1="D2" ComponentName2="D3" format="ascii">
					 0.00000000E+00	 0.00000000E+00	 0.00000000E+00
					 0.00000000E+00	 0.00000000E+00	 0.00000000E+00
					 1.30817000E-03	 0.00000000E+00	 1.28813000E-04
					 1.44679000E-03	 0.00000000E+00	-1.35315000E-03
					 0.00000000E+00	 0.00000000E+00	 0.00000000E+00
					 0.00000000E+00	 0.00000000E+00	 0.00000000E+00
					 1.30817000E-03	 0.00000000E+00	 1.28813000E-04
					 1.44679000E-03	 0.00000000E+00	-1.35315000E-03
					 3.84550000E-03	 0.00000000E+00	 3.04838000E-04
					 3.80171000E-03	 0.00000000E+00	-2.06598000E-03
					 3.84550000E-03	 0.00000000E+00	 3.04838000E-04
					 3.80171000E-03	 0.00000000E+00	-2.06598000E-03
					 6.85561000E-03	 0.00000000E+00	 5.27520000E-04
					 6.72996000E-03	 0.00000000E+00	-2.22969000E-03
					 6.85561000E-03	 0.00000000E+00	 5.27520000E-04
					 6.72996000E-03	 0.00000000E+00	-2.22969000E-03
					 9.96705000E-03	 0.00000000E+00	 7.67451000E-04
					 9.80422000E-03	 0.00000000E+00	-2.01058000E-03
					 9.96705000E-03	 0.00000000E+00	 7.67451000E-04
					 9.80422000E-03	 0.00000000E+00	-2.01058000E-03
					 1.28559000E-02	 0.00000000E+00	 9.90010000E-04
					 1.26932000E-02	 0.00000000E+00	-1.53015000E-03
					 1.28559000E-02	 0.00000000E+00	 9.90010000E-04
					 1.26932000E-02	 0.00000000E+00	-1.53015000E-03
					 1.53033000E-02	 0.00000000E+00	 1.19797000E-03
					 1.51541000E-02	 0.00000000E+00	-8.87748000E-04
					 1.53033000E-02	 0.00000000E+00	 1.19797000E-03
					 1.51541000E-02	 0.00000000E+00	-8.87748000E-04
					 1.71858000E-02	 0.00000000E+00	 1.40004000E-03
					 1.70510000E-02	 0.00000000E+00	-1.77740000E-04
					 1.71858000E-02	 0.00000000E+00	 1.40004000E-03
					 1.70510000E-02	 0.00000000E+00	-1.77740000E-04
					 1.84748000E-02	 0.00000000E+00	 1.57956000E-03
					 1.83770000E-02	 0.00000000E+00	 5.16924000E-04
					 1.84748000E-02	 0.00000000E+00	 1.57956000E-03
					 1.83770000E-02	 0.00000000E+00	 5.16924000E-04
					 1.92208000E-02	 0.00000000E+00	 1.72964000E-03
					 1.91499000E-02	 0.00000000E+00	 1.13815000E-03
					 1.92208000E-02	 0.00000000E+00	 1.72964000E-03
					 1.91499000E-02	 0.00000000E+00	 1.13815000E-03
					 1.95256000E-02	 0.00000000E+00	 1.86283000E-03
					 1.94704000E-02	 0.00000000E+00	 1.63494000E-03
					 1.95256000E-02	 0.00000000E+00	 1.86283000E-03
					 1.94704000E-02	 0.00000000E+00	 1.63494000E-03
					 1.95093000E-02	 0.00000000E+00	 1.97946000E-03
					 1.94781000E-02	 0.00000000E+00	 1.97582000E-03
					 1.95093000E-02	 0.00000000E+00	 1.97946000E-03
					 1.94781000E-02	 0.00000000E+00	 1.97582000E-03
					 1.93408000E-02	 0.00000000E+00	 2.07647000E-03
					 1.93438000E-02	 0.00000000E+00	 2.18792000E-03
					 1.93408000E-02	 0.00000000E+00	 2.07647000E-03
					 1.93438000E-02	 0.00000000E+00	 2.18792000E-03
					 1.91552000E-02	 0.00000000E+00	 2.16648000E-03
					 1.91460000E-02	 0.00000000E+00	 2.29560000E-03
					 1.91552000E-02	 0.00000000E+00	 2.16648000E-03
					 1.91460000E-02	 0.00000000E+00	 2.29560000E-03
					 1.90348000E-02	 0.00000000E+00	 2.25815000E-03
					 1.90310000E-02	 0.00000000E+00	 2.32992000E-03
					 1.90348000E-02	 0.00000000E+00	 2.25815000E-03
					 1.90310000E-02	 0.00000000E+00	 2.32992000E-03
					 1.89977000E-02	 0.00000000E+00	 2.33976000E-03
					 1.90134000E-02	 0.00000000E+00	 2.35922000E-03
					 1.89977000E-02	 0.00000000E+00	 2.33976000E-03
					 1.90134000E-02	 0.00000000E+00	 2.35922000E-03
					 1.90272000E-02	 0.00000000E+00	 2.40688000E-03
					 1.90346000E-02	 0.00000000E+00	 2.41426000E-03
					 1.90272000E-02	 0.00000000E+00	 2.40688000E-03
					 1.90346000E-02	 0.00000000E+00	 2.41426000E-03
					 1.90595000E-02	 0.00000000E+00	 2.48080000E-03
					 1.90477000E-02	 0.00000000E+00	 2.53142000E-03
					 1.90595000E-02	 0.00000000E+00	 2.48080000E-03
					 1.90477000E-02	 0.00000000E+00	 2.53142000E-03
					 1.89930000E-02	 0.00000000E+00	 2.55462000E-03
					 1.89754000E-02	 0.00000000E+00	 2.67664000E-03
					 1.89930000E-02	 0.00000000E+00	 2.55462000E-03
					 1.89754000E-02	 0.00000000E+00	 2.67664000E-03
					 1.88029000E-02	 0.00000000E+00	 2.62117000E-03
					 1.87975000E-02	 0.00000000E+00	 2.79010000E-03
					 1.88029000E-02	 0.00000000E+00	 2.62117000E-03
					 1.87975000E-02	 0.00000000E+00	 2.79010000E-03
					 1.85814000E-02	 0.00000000E+00	 2.69092000E-03
					 1.85946000E-02	 0.00000000E+00	 2.83661000E-03
					 1.85814000E-02	 0.00000000E+00	 2.69092000E-03
					 1.85946000E-02	 0.00000000E+00	 2.83661000E-03
					 0.00000000E+00	 0.00000000E+00	 0.00000000E+00
					 1.60241000E-03	 0.00000000E+00	 1.62272000E-03
					 0.00000000E+00	 0.00000000E+00	 0.00000000E+00
					 1.60241000E-03	 0.00000000E+00	 1.62272000E-03
					 4.06830000E-03	 0.00000000E+00	 2.68293000E-03
					 4.06830000E-03	 0.00000000E+00	 2.68293000E-03
					 7.06607000E-03	 0.00000000E+00	 3.28485000E-03
					 7.06607000E-03	 0.00000000E+00	 3.28485000E-03
					 1.01318000E-02	 0.00000000E+00	 3.53321000E-03
					 1.01318000E-02	 0.00000000E+00	 3.53321000E-03
					 1.29625000E-02	 0.00000000E+00	 3.50327000E-03
					 1.29625000E-02	 0.00000000E+00	 3.50327000E-03
					 1.53743000E-02	 0.00000000E+00	 3.28618000E-03
					 1.53743000E-02	 0.00000000E+00	 3.28618000E-03
					 1.72225000E-02	 0.00000000E+00	 2.97002000E-03
					 1.72225000E-02	 0.00000000E+00	 2.97002000E-03
					 1.84845000E-02	 0.00000000E+00	 2.62791000E-03
					 1.84845000E-02	 0.00000000E+00	 2.62791000E-03
					 1.92206000E-02	 0.00000000E+00	 2.32454000E-03
					 1.92206000E-02	 0.00000000E+00	 2.32454000E-03
					 1.95483000E-02	 0.00000000E+00	 2.09231000E-03
					 1.95483000E-02	 0.00000000E+00	 2.09231000E-03
					 1.95331000E-02	 0.00000000E+00	 1.96364000E-03
					 1.95331000E-02	 0.00000000E+00	 1.96364000E-03
					 1.93621000E-02	 0.00000000E+00	 1.96989000E-03
					 1.93621000E-02	 0.00000000E+00	 1.96989000E-03
					 1.92029000E-02	 0.00000000E+00	 2.06115000E-03
					 1.92029000E-02	 0.00000000E+00	 2.06115000E-03
					 1.90935000E-02	 0.00000000E+00	 2.18178000E-03
					 1.90935000E-02	 0.00000000E+00	 2.18178000E-03
					 1.90229000E-02	 0.00000000E+00	 2.31572000E-03
					 1.90229000E-02	 0.00000000E+00	 2.31572000E-03
					 1.90488000E-02	 0.00000000E+00	 2.40743000E-03
					 1.90488000E-02	 0.00000000E+00	 2.40743000E-03
					 1.90840000E-02	 0.00000000E+00	 2.44690000E-03
					 1.90840000E-02	 0.00000000E+00	 2.44690000E-03
					 1.90185000E-02	 0.00000000E+00	 2.43677000E-03
					 1.90185000E-02	 0.00000000E+00	 2.43677000E-03
					 1.88185000E-02	 0.00000000E+00	 2.42581000E-03
					 1.88185000E-02	 0.00000000E+00	 2.42581000E-03
					 1.85791000E-02	 0.00000000E+00	 2.45331000E-03
					 1.85791000E-02	 0.00000000E+00	 2.45331000E-03
				</DataArray>
				<DataArray type="Float32" Name="S" NumberOfComponents="10" ComponentName0="xx" ComponentName1="yy" ComponentName2="zz" ComponentName3="xy" ComponentName4="yz" ComponentName5="zx" ComponentName6="Mises" ComponentName7="Min Principal" ComponentName8="Mid Principal" ComponentName9="Max Principal" format="ascii">
					-8.25096000E+02	-9.00213000E+02	-3.45413000E+03	 0.00000000E+00	 0.00000000E+00	 1.34858000E+03	 3.48940987E+03	-4.02286098E+03	-9.00213000E+02	-2.56365019E+02
					 1.57168000E+02	 9.71266000E+01	 3.43471000E+02	 0.00000000E+00	 0.00000000E+00	 1.31578000E+03	 2.28983202E+03	-1.06875374E+03	 9.71266000E+01	 1.56939274E+03
					 2.72864000E+01	 9.12773000E+01	 4.22650000E+02	 1.74006000E-08	 0.00000000E+00	 4.44729000E+02	 8.53498207E+02	-2.61716480E+02	 9.12773000E+01	 7.11652880E+02
					-1.99103000E+02	-5.59116000E+02	-2.50537000E+03	 3.39135000E-09	-1.76458000E-08	 3.73352000E+02	 2.24418490E+03	-2.56430440E+03	-5.59116000E+02	-1.40168604E+02
					-8.25096000E+02	-9.00213000E+02	-3.45413000E+03	 0.00000000E+00	 0.00000000E+00	 1.34858000E+03	 3.48940987E+03	-4.02286098E+03	-9.00213000E+02	-2.56365019E+02
					 1.57168000E+02	 9.71266000E+01	 3.43471000E+02	 0.00000000E+00	 0.00000000E+00	 1.31578000E+03	 2.28983202E+03	-1.06875374E+03	 9.71266000E+01	 1.56939274E+03
					 2.72864000E+01	 9.12773000E+01	 4.22650000E+02	 1.74005000E-08	 0.00000000E+00	 4.44729000E+02	 8.53498207E+02	-2.61716480E+02	 9.12773000E+01	 7.11652880E+02
					-1.99103000E+02	-5.59116000E+02	-2.50537000E+03	 3.39140000E-09	-1.76458000E-08	 3.73352000E+02	 2.24418490E+03	-2.56430440E+03	-5.59116000E+02	-1.40168604E+02
					 2.57278000E+01	 1.33074000E+02	 6.44597000E+02	 4.12492000E-08	-9.05109000E-09	 4.19233000E+02	 9.24855643E+02	-1.85900053E+02	 1.33074000E+02	 8.56224853E+02
					-1.83015000E+02	-2.37848000E+02	-9.88727000E+02	 4.02580000E-08	 1.57380000E-08	 2.49409000E+02	 8.91410919E+02	-1.05968299E+03	-2.37848000E+02	-1.12059006E+02
					 2.57278000E+01	 1.33074000E+02	 6.44597000E+02	 4.12492000E-08	-9.05110000E-09	 4.19233000E+02	 9.24855643E+02	-1.85900053E+02	 1.33074000E+02	 8.56224853E+02
					-1.83015000E+02	-2.37848000E+02	-9.88727000E+02	 4.02580000E-08	 1.57380000E-08	 2.49409000E+02	 8.91410919E+02	-1.05968299E+03	-2.37848000E+02	-1.12059006E+02
					 9.69765000E+00	 1.55129000E+02	 7.78080000E+02	 2.67787000E-08	-1.72045000E-08	 3.29365000E+02	 9.08437527E+02	-1.12158764E+02	 1.55129000E+02	 8.99936414E+02
					-2.42860000E+01	 4.52461000E+01	 2.56450000E+02	 3.86957000E-08	 1.60338000E-08	 2.53732000E+02	 5.07214979E+02	-1.73888866E+02	 4.52461000E+01	 4.06052866E+02
					 9.69765000E+00	 1.55129000E+02	 7.78080000E+02	 2.67786000E-08	-1.72044000E-08	 3.29365000E+02	 9.08437527E+02	-1.12158764E+02	 1.55129000E+02	 8.99936414E+02
					-2.42860000E+01	 4.52461000E+01	 2.56450000E+02	 3.86957000E-08	 1.60337000E-08	 2.53732000E+02	 5.07214979E+02	-1.73888866E+02	 4.52461000E+01	 4.06052866E+02
					 1.13434000E+01	 1.56084000E+02	 7.80748000E+02	 6.27924000E-08	-8.21242000E-09	 2.53176000E+02	 8.32984668E+02	-6.44908855E+01	 1.56084000E+02	 8.56582286E+02
					 8.93604000E+01	 2.34639000E+02	 1.10556000E+03	 2.64991000E-08	-2.17545000E-08	 2.35609000E+02	 1.03569795E+03	 3.73914474E+01	 2.34639000E+02	 1.15752895E+03
					 1.13434000E+01	 1.56084000E+02	 7.80748000E+02	 6.27925000E-08	-8.21247000E-09	 2.53176000E+02	 8.32984668E+02	-6.44908855E+01	 1.56084000E+02	 8.56582286E+02
					 8.93604000E+01	 2.34639000E+02	 1.10556000E+03	 2.64988000E-08	-2.17544000E-08	 2.35609000E+02	 1.03569795E+03	 3.73914474E+01	 2.34639000E+02	 1.15752895E+03
					 1.95298000E+01	 1.43518000E+02	 7.05943000E+02	 7.54689000E-08	 0.00000000E+00	 1.70887000E+02	 6.99311174E+02	-2.06604402E+01	 1.43518000E+02	 7.46133240E+02
					 1.76177000E+02	 3.54605000E+02	 1.63712000E+03	 6.04827000E-08	 1.01483000E-09	 1.95557000E+02	 1.42135340E+03	 1.50453318E+02	 3.54605000E+02	 1.66284368E+03
					 1.95298000E+01	 1.43518000E+02	 7.05943000E+02	 7.54687000E-08	 0.00000000E+00	 1.70887000E+02	 6.99311174E+02	-2.06604402E+01	 1.43518000E+02	 7.46133240E+02
					 1.76177000E+02	 3.54605000E+02	 1.63712000E+03	 6.04826000E-08	 1.01479000E-09	 1.95557000E+02	 1.42135340E+03	 1.50453318E+02	 3.54605000E+02	 1.66284368E+03
					 1.02950000E+00	 1.23989000E+02	 6.23305000E+02	 9.02074000E-09	 1.31844000E-08	 9.19731000E+01	 5.92628303E+02	-1.22795879E+01	 1.23989000E+02	 6.36614088E+02
					 2.12199000E+02	 4.10683000E+02	 1.89218000E+03	-1.68953000E-08	 1.75249000E-08	 1.31014000E+02	 1.60616833E+03	 2.02043214E+02	 4.10683000E+02	 1.90233579E+03
					 1.02950000E+00	 1.23989000E+02	 6.23305000E+02	 9.02090000E-09	 1.31844000E-08	 9.19731000E+01	 5.92628303E+02	-1.22795879E+01	 1.23989000E+02	 6.36614088E+02
					 2.12199000E+02	 4.10683000E+02	 1.89218000E+03	-1.68956000E-08	 1.75249000E-08	 1.31014000E+02	 1.60616833E+03	 2.02043214E+02	 4.10683000E+02	 1.90233579E+03
					-1.39963000E+01	 1.03829000E+02	 5.35101000E+02	 2.16229000E-08	 4.44771000E-09	 2.07575000E+01	 5.01981786E+02	-1.47798766E+01	 1.03829000E+02	 5.35884577E+02
					 1.98005000E+02	 4.11106000E+02	 1.90808000E+03	 3.30450000E-08	-8.45527000E-09	 6.17878000E+01	 1.61765356E+03	 1.95775413E+02	 4.11106000E+02	 1.91030959E+03
					-1.39963000E+01	 1.03829000E+02	 5.35101000E+02	 2.16231000E-08	 4.44774000E-09	 2.07575000E+01	 5.01981786E+02	-1.47798766E+01	 1.03829000E+02	 5.35884577E+02
					 1.98005000E+02	 4.11106000E+02	 1.90808000E+03	 3.30454000E-08	-8.45529000E-09	 6.17878000E+01	 1.61765356E+03	 1.95775413E+02	 4.11106000E+02	 1.91030959E+03
					 4.67856000E+00	 8.88116000E+01	 4.39797000E+02	 7.92657000E-08	 0.00000000E+00	-3.35964000E+01	 4.03961313E+02	 2.09979532E+00	 8.88116000E+01	 4.42375765E+02
					 2.17496000E+02	 3.87266000E+02	 1.76166000E+03	 2.73439000E-08	-2.06866000E-08	 3.08927000E+00	 1.46667659E+03	 2.17489820E+02	 3.87266000E+02	 1.76166618E+03
					 4.67856000E+00	 8.88116000E+01	 4.39797000E+02	 7.92660000E-08	 0.00000000E+00	-3.35964000E+01	 4.03961313E+02	 2.09979532E+00	 8.88116000E+01	 4.42375765E+02
					 2.17496000E+02	 3.87266000E+02	 1.76166000E+03	 2.73428000E-08	-2.06866000E-08	 3.08927000E+00	 1.46667659E+03	 2.17489820E+02	 3.87266000E+02	 1.76166618E+03
					 1.18227000E+01	 7.53149000E+01	 3.64880000E+02	 1.13828000E-07	 0.00000000E+00	-6.60794000E+01	 3.45490656E+02	-1.39634864E-01	 7.53149000E+01	 3.76842335E+02
					 1.95451000E+02	 3.28895000E+02	 1.47948000E+03	 9.68447000E-08	 1.33422000E-08	-3.78513000E+01	 1.22453664E+03	 1.94336167E+02	 3.28895000E+02	 1.48059483E+03
					 1.18227000E+01	 7.53149000E+01	 3.64880000E+02	 1.13828000E-07	 0.00000000E+00	-6.60794000E+01	 3.45490656E+02	-1.39634864E-01	 7.53149000E+01	 3.76842335E+02
					 1.95451000E+02	 3.28895000E+02	 1.47948000E+03	 9.68454000E-08	 1.33423000E-08	-3.78513000E+01	 1.22453664E+03	 1.94336167E+02	 3.28895000E+02	 1.48059483E+03
					-1.84426000E+01	 5.79733000E+01	 3.08929000E+02	 3.83854000E-08	-9.79382000E-09	-8.40535000E+01	 3.30439301E+02	-3.87623216E+01	 5.79733000E+01	 3.29248722E+02
					 1.33993000E+02	 2.42499000E+02	 1.09592000E+03	 6.21700000E-08	 3.12793000E-08	-6.23393000E+01	 9.18891081E+02	 1.29969823E+02	 2.42499000E+02	 1.09994318E+03
					-1.84426000E+01	 5.79733000E+01	 3.08929000E+02	 3.83860000E-08	-9.79376000E-09	-8.40535000E+01	 3.30439301E+02	-3.87623216E+01	 5.79733000E+01	 3.29248722E+02
					 1.33993000E+02	 2.42499000E+02	 1.09592000E+03	 6.21697000E-08	 3.12793000E-08	-6.23393000E+01	 9.18891081E+02	 1.29969823E+02	 2.42499000E+02	 1.09994318E+03
					-1.44901000E+00	 5.29794000E+01	 2.67217000E+02	 7.23052000E-09	-1.48684000E-09	-8.67510000E+01	 2.88267274E+02	-2.70256427E+01	 5.29794000E+01	 2.92793633E+02
					 1.01256000E+02	 1.63254000E+02	 7.22841000E+02	-1.27846000E-08	-3.73620000E-09	-6.76566000E+01	 6.04488944E+02	 9.39771345E+01	 1.63254000E+02	 7.30119866E+02
					-1.44901000E+00	 5.29794000E+01	 2.67217000E+02	 7.23124000E-09	-1.48679000E-09	-8.67510000E+01	 2.88267274E+02	-2.70256427E+01	 5.29794000E+01	 2.92793633E+02
					 1.01256000E+02	 1.63254000E+02	 7.22841000E+02	-1.27843000E-08	-3.73610000E-09	-6.76566000E+01	 6.04488944E+02	 9.39771345E+01	 1.63254000E+02	 7.30119866E+02
					 3.90034000E+01	 5.65112000E+01	 2.44514000E+02	 1.54171000E-08	 9.69038000E-09	-6.86208000E+01	 2.30368257E+02	 1.81971126E+01	 5.65112000E+01	 2.65320287E+02
					 1.15486000E+02	 1.08716000E+02	 4.31122000E+02	 3.97560000E-09	-1.29056000E-08	-5.53445000E+01	 3.33163345E+02	 1.06063052E+02	 1.08716000E+02	 4.40544948E+02
					 3.90034000E+01	 5.65112000E+01	 2.44514000E+02	 1.54181000E-08	 9.69038000E-09	-6.86208000E+01	 2.30368257E+02	 1.81971126E+01	 5.65112000E+01	 2.65320287E+02
					 1.15486000E+02	 1.08716000E+02	 4.31122000E+02	 3.97537000E-09	-1.29055000E-08	-5.53445000E+01	 3.33163345E+02	 1.06063052E+02	 1.08716000E+02	 4.40544948E+02
					-1.43664000E+01	 4.18560000E+01	 2.24585000E+02	 2.39680000E-08	 6.11570000E-09	-3.61585000E+01	 2.25270105E+02	-1.97181009E+01	 4.18560000E+01	 2.29936701E+02
					 2.38364000E+01	 4.15070000E+01	 1.84411000E+02	 5.45132000E-08	 1.83510000E-08	-2.76709000E+01	 1.59862562E+02	 1.92017991E+01	 4.15070000E+01	 1.89045601E+02
					-1.43664000E+01	 4.18560000E+01	 2.24585000E+02	 2.39662000E-08	 6.11580000E-09	-3.61585000E+01	 2.25270105E+02	-1.97181009E+01	 4.18560000E+01	 2.29936701E+02
					 2.38364000E+01	 4.15070000E+01	 1.84411000E+02	 5.45139000E-08	 1.83511000E-08	-2.76709000E+01	 1.59862562E+02	 1.92017991E+01	 4.15070000E+01	 1.89045601E+02
					-2.50617000E+01	 3.70362000E+01	 2.11089000E+02	 1.80120000E-08	 0.00000000E+00	-4.87706000E+00	 2.12203197E+02	-2.51623797E+01	 3.70362000E+01	 2.11189680E+02
					 1.13392000E+01	 1.87515000E+01	 8.25401000E+01	 2.22533000E-09	 3.95673000E-08	 5.38956000E+00	 6.84389508E+01	 1.09335478E+01	 1.87515000E+01	 8.29457522E+01
					-2.50617000E+01	 3.70362000E+01	 2.11089000E+02	 1.80118000E-08	 0.00000000E+00	-4.87706000E+00	 2.12203197E+02	-2.51623797E+01	 3.70362000E+01	 2.11189680E+02
					 1.13392000E+01	 1.87515000E+01	 8.25401000E+01	 2.22443000E-09	 3.95674000E-08	 5.38956000E+00	 6.84389508E+01	 1.09335478E+01	 1.87515000E+01	 8.29457522E+01
					 3.69487000E+01	 4.63849000E+01	 1.95610000E+02	-3.31511000E-08	-8.41870000E-09	 1.80021000E+01	 1.57281649E+02	 3.49317770E+01	 4.63849000E+01	 1.97626923E+02
					 6.99554000E+01	 3.85451000E+01	 1.23031000E+02	 2.85515000E-09	 1.37558000E-08	 2.13460000E+01	 8.26903980E+01	 3.85451000E+01	 6.24357993E+01	 1.30550601E+02
					 3.69487000E+01	 4.63849000E+01	 1.95610000E+02	-3.31505000E-08	-8.41851000E-09	 1.80021000E+01	 1.57281649E+02	 3.49317770E+01	 4.63849000E+01	 1.97626923E+02
					 6.99554000E+01	 3.85451000E+01	 1.23031000E+02	 2.85503000E-09	 1.37557000E-08	 2.13460000E+01	 8.26903980E+01	 3.85451000E+01	 6.24357993E+01	 1.30550601E+02
					 2.82388000E+01	 4.22907000E+01	 1.83769000E+02	-3.47417000E-08	-1.03460000E-08	 3.44619000E+01	 1.60513152E+02	 2.09449009E+01	 4.22907000E+01	 1.91062899E+02
					 7.70534000E+01	 6.22586000E+01	 2.35168000E+02	-3.50243000E-08	-1.23105000E-08	 2.46606000E+01	 1.71414183E+02	 6.22586000E+01	 7.32964387E+01	 2.38924961E+02
					 2.82388000E+01	 4.22907000E+01	 1.83769000E+02	-3.47405000E-08	-1.03461000E-08	 3.44619000E+01	 1.60513152E+02	 2.09449009E+01	 4.22907000E+01	 1.91062899E+02
					 7.70534000E+01	 6.22586000E+01	 2.35168000E+02	-3.50252000E-08	-1.23106000E-08	 2.46606000E+01	 1.71414183E+02	 6.22586000E+01	 7.32964387E+01	 2.38924961E+02
					 1.11471000E+00	 3.71938000E+01	 1.85435000E+02	-2.51844000E-08	-1.06141000E-09	 2.51346000E+01	 1.74702049E+02	-2.25126940E+00	 3.71938000E+01	 1.88800979E+02
					 5.60811000E+01	 7.95537000E+01	 3.43478000E+02	-1.22830000E-08	-1.41514000E-08	 2.09736000E+01	 2.78786055E+02	 5.45585583E+01	 7.95537000E+01	 3.45000542E+02
					 1.11471000E+00	 3.71938000E+01	 1.85435000E+02	-2.51849000E-08	-1.06159000E-09	 2.51346000E+01	 1.74702049E+02	-2.25126940E+00	 3.71938000E+01	 1.88800979E+02
					 5.60811000E+01	 7.95537000E+01	 3.43478000E+02	-1.22827000E-08	-1.41512000E-08	 2.09736000E+01	 2.78786055E+02	 5.45585583E+01	 7.95537000E+01	 3.45000542E+02
					-9.93762000E+00	 3.26512000E+01	 1.73723000E+02	 8.92942000E-09	 3.85484000E-09	-8.61603000E+00	 1.67170122E+02	-1.03409362E+01	 3.26512000E+01	 1.74126316E+02
					 4.00065000E+01	 7.46778000E+01	 3.35131000E+02	 2.23629000E-09	-1.72824000E-08	-3.41380000E+00	 2.79469464E+02	 3.99670168E+01	 7.46778000E+01	 3.35170483E+02
					-9.93762000E+00	 3.26512000E+01	 1.73723000E+02	 8.92860000E-09	 3.85490000E-09	-8.61603000E+00	 1.67170122E+02	-1.03409362E+01	 3.26512000E+01	 1.74126316E+02
					 4.00065000E+01	 7.46778000E+01	 3.35131000E+02	 2.23718000E-09	-1.72826000E-08	-3.41380000E+00	 2.79469464E+02	 3.99670168E+01	 7.46778000E+01	 3.35170483E+02
					 1.88892000E+01	 3.89457000E+01	 1.76286000E+02	 3.92199000E-08	 4.33618000E-09	-2.40123000E+01	 1.54106971E+02	 1.53074158E+01	 3.89457000E+01	 1.79867784E+02
					 4.01648000E+01	 5.01429000E+01	 2.11323000E+02	 2.39828000E-08	-2.74211000E-09	-2.18016000E+01	 1.70624698E+02	 3.74314313E+01	 5.01429000E+01	 2.14056369E+02
					 1.88892000E+01	 3.89457000E+01	 1.76286000E+02	 3.92207000E-08	 4.33621000E-09	-2.40123000E+01	 1.54106971E+02	 1.53074158E+01	 3.89457000E+01	 1.79867784E+02
					 4.01648000E+01	 5.01429000E+01	 2.11323000E+02	 2.39844000E-08	-2.74223000E-09	-2.18016000E+01	 1.70624698E+02	 3.74314313E+01	 5.01429000E+01	 2.14056369E+02
					 6.88490000E+01	 5.22328000E+01	 1.92965000E+02	 7.41595000E-08	 3.73050000E-09	-3.02057000E+01	 1.43109639E+02	 5.22328000E+01	 6.18883092E+01	 1.99925691E+02
					 6.75559000E+01	 4.02072000E+01	 1.33877000E+02	 5.22209000E-08	 1.44506000E-08	-5.74617000E+01	 1.29868304E+02	 3.43728818E+01	 4.02072000E+01	 1.67060018E+02
					 6.88490000E+01	 5.22328000E+01	 1.92965000E+02	 7.41584000E-08	 3.73036000E-09	-3.02057000E+01	 1.43109639E+02	 5.22328000E+01	 6.18883092E+01	 1.99925691E+02
					 6.75559000E+01	 4.02072000E+01	 1.33877000E+02	 5.22192000E-08	 1.44507000E-08	-5.74617000E+01	 1.29868304E+02	 3.43728818E+01	 4.02072000E+01	 1.67060018E+02
					 1.17611000E+03	 1.08126000E+03	 4.56180000E+03	 0.00000000E+00	 0.00000000E+00	 1.73713000E+03	 4.56572972E+03	 4.43394275E+02	 1.08126000E+03	 5.29451573E+03
					 2.50843000E+02	 7.37751000E+02	 3.61691000E+03	 2.88196000E-08	-1.89171000E-08	 6.16353000E+02	 3.32688962E+03	 1.41533680E+02	 7.37751000E+02	 3.72621932E+03
					 1.17611000E+03	 1.08126000E+03	 4.56180000E+03	 0.00000000E+00	 0.00000000E+00	 1.73713000E+03	 4.56572972E+03	 4.43394275E+02	 1.08126000E+03	 5.29451573E+03