<?xml version="1.0"?>
<VTKFile type="UnstructuredGrid" version="0.1" byte_order="LittleEndian">
	<UnstructuredGrid>
		<Piece NumberOfPoints="126" NumberOfCells="40">
			<Points>
				<DataArray type="Float64" NumberOfComponents="3" format="ascii">
					 5.00000000E-02	 0.00000000E+00	 0.00000000E+00
					 0.00000000E+00	 0.00000000E+00	 0.00000000E+00
					 0.00000000E+00	 0.00000000E+00	 5.00000000E-02
					 5.00000000E-02	 0.00000000E+00	 5.00000000E-02
					 5.00000000E-02	 3.00000000E-01	 0.00000000E+00
					 0.00000000E+00	 3.00000000E-01	 0.00000000E+00
					 0.00000000E+00	 3.00000000E-01	 5.00000000E-02
					 5.00000000E-02	 3.00000000E-01	 5.00000000E-02
					 0.00000000E+00	 0.00000000E+00	 1.00000000E-01
					 5.00000000E-02	 0.00000000E+00	 1.00000000E-01
					 0.00000000E+00	 3.00000000E-01	 1.00000000E-01
					 5.00000000E-02	 3.00000000E-01	 1.00000000E-01
					 0.00000000E+00	 0.00000000E+00	 1.50000000E-01
					 5.00000000E-02	 0.00000000E+00	 1.50000000E-01
					 0.00000000E+00	 3.00000000E-01	 1.50000000E-01
					 5.00000000E-02	 3.00000000E-01	 1.50000000E-01
					 0.00000000E+00	 0.00000000E+00	 2.00000000E-01
					 5.00000000E-02	 0.00000000E+00	 2.00000000E-01
					 0.00000000E+00	 3.00000000E-01	 2.00000000E-01
					 5.00000000E-02	 3.00000000E-01	 2.00000000E-01
					 0.00000000E+00	 0.00000000E+00	 2.50000000E-01
					 5.00000000E-02	 0.00000000E+00	 2.50000000E-01
					 0.00000000E+00	 3.00000000E-01	 2.50000000E-01
					 5.00000000E-02	 3.00000000E-01	 2.50000000E-01
					 0.00000000E+00	 0.00000000E+00	 3.00000000E-01
					 5.00000000E-02	 0.00000000E+00	 3.00000000E-01
					 0.00000000E+00	 3.00000000E-01	 3.00000000E-01
					 5.00000000E-02	 3.00000000E-01	 3.00000000E-01
					 0.00000000E+00	 0.00000000E+00	 3.50000000E-01
					 5.00000000E-02	 0.00000000E+00	 3.50000000E-01
					 0.00000000E+00	 3.00000000E-01	 3.50000000E-01
					 5.00000000E-02	 3.00000000E-01	 3.50000000E-01
					 0.00000000E+00	 0.00000000E+00	 4.00000000E-01
					 5.00000000E-02	 0.00000000E+00	 4.00000000E-01
					 0.00000000E+00	 3.00000000E-01	 4.00000000E-01
					 5.00000000E-02	 3.00000000E-01	 4.00000000E-01
					 0.00000000E+00	 0.00000000E+00	 4.50000000E-01
					 5.00000000E-02	 0.00000000E+00	 4.50000000E-01
					 0.00000000E+00	 3.00000000E-01	 4.50000000E-01
					 5.00000000E-02	 3.00000000E-01	 4.50000000E-01
					 0.00000000E+00	 0.00000000E+00	 5.00000000E-01
					 5.00000000E-02	 0.00000000E+00	 5.00000000E-01
					 0.00000000E+00	 3.00000000E-01	 5.00000000E-01
					 5.00000000E-02	 3.00000000E-01	 5.00000000E-01
					 0.00000000E+00	 0.00000000E+00	 5.50000000E-01
					 5.00000000E-02	 0.00000000E+00	 5.50000000E-01
					 0.00000000E+00	 3.00000000E-01	 5.50000000E-01
					 5.00000000E-02	 3.00000000E-01	 5.50000000E-01
					 0.00000000E+00	 0.00000000E+00	 6.00000000E-01
					 5.00000000E-02	 0.00000000E+00	 6.00000000E-01
					 0.00000000E+00	 3.00000000E-01	 6.00000000E-01
					 5.00000000E-02	 3.00000000E-01	 6.00000000E-01
					 0.00000000E+00	 0.00000000E+00	 6.50000000E-01
					 5.00000000E-02	 0.00000000E+00	 6.50000000E-01
					 0.00000000E+00	 3.00000000E-01	 6.50000000E-01
					 5.00000000E-02	 3.00000000E-01	 6.50000000E-01
					 0.00000000E+00	 0.00000000E+00	 7.00000000E-01
					 5.00000000E-02	 0.00000000E+00	 7.00000000E-01
					 0.00000000E+00	 3.00000000E-01	 7.00000000E-01
					 5.00000000E-02	 3.00000000E-01	 7.00000000E-01
					 0.00000000E+00	 0.00000000E+00	 7.50000000E-01
					 5.00000000E-02	 0.00000000E+00	 7.50000000E-01
					 0.00000000E+00	 3.00000000E-01	 7.50000000E-01
					 5.00000000E-02	 3.00000000E-01	 7.50000000E-01
					 0.00000000E+00	 0.00000000E+00	 8.00000000E-01
					 5.00000000E-02	 0.00000000E+00	 8.00000000E-01
					 0.00000000E+00	 3.00000000E-01	 8.00000000E-01
					 5.00000000E-02	 3.00000000E-01	 8.00000000E-01
					 0.00000000E+00	 0.00000000E+00	 8.50000000E-01
					 5.00000000E-02	 0.00000000E+00	 8.50000000E-01
					 0.00000000E+00	 3.00000000E-01	 8.50000000E-01
					 5.00000000E-02	 3.00000000E-01	 8.50000000E-01
					 0.00000000E+00	 0.00000000E+00	 9.00000000E-01
					 5.00000000E-02	 0.00000000E+00	 9.00000000E-01
					 0.00000000E+00	 3.00000000E-01	 9.00000000E-01
					 5.00000000E-02	 3.00000000E-01	 9.00000000E-01
					 0.00000000E+00	 0.00000000E+00	 9.50000000E-01
					 5.00000000E-02	 0.00000000E+00	 9.50000000E-01
					 0.00000000E+00	 3.00000000E-01	 9.50000000E-01
					 5.00000000E-02	 3.00000000E-01	 9.50000000E-01
					 0.00000000E+00	 0.00000000E+00	 1.00000000E+00
					 5.00000000E-02	 0.00000000E+00	 1.00000000E+00
					 0.00000000E+00	 3.00000000E-01	 1.00000000E+00
					 5.00000000E-02	 3.00000000E-01	 1.00000000E+00
					-5.00000000E-02	 0.00000000E+00	 0.00000000E+00
					-5.00000000E-02	 0.00000000E+00	 5.00000000E-02
					-5.00000000E-02	 3.00000000E-01	 0.00000000E+00
					-5.00000000E-02	 3.00000000E-01	 5.00000000E-02
					-5.00000000E-02	 0.00000000E+00	 1.00000000E-01
					-5.00000000E-02	 3.00000000E-01	 1.00000000E-01
					-5.00000000E-02	 0.00000000E+00	 1.50000000E-01
					-5.00000000E-02	 3.00000000E-01	 1.50000000E-01
					-5.00000000E-02	 0.00000000E+00	 2.00000000E-01
					-5.00000000E-02	 3.00000000E-01	 2.00000000E-01
					-5.00000000E-02	 0.00000000E+00	 2.50000000E-01
					-5.00000000E-02	 3.00000000E-01	 2.50000000E-01
					-5.00000000E-02	 0.00000000E+00	 3.00000000E-01
					-5.00000000E-02	 3.00000000E-01	 3.00000000E-01
					-5.00000000E-02	 0.00000000E+00	 3.50000000E-01
					-5.00000000E-02	 3.00000000E-01	 3.50000000E-01
					-5.00000000E-02	 0.00000000E+00	 4.00000000E-01
					-5.00000000E-02	 3.00000000E-01	 4.00000000E-01
					-5.00000000E-02	 0.00000000E+00	 4.50000000E-01
					-5.00000000E-02	 3.00000000E-01	 4.50000000E-01
					-5.00000000E-02	 0.00000000E+00	 5.00000000E-01
					-5.00000000E-02	 3.00000000E-01	 5.00000000E-01
					-5.00000000E-02	 0.00000000E+00	 5.50000000E-01
					-5.00000000E-02	 3.00000000E-01	 5.50000000E-01
					-5.00000000E-02	 0.00000000E+00	 6.00000000E-01
					-5.00000000E-02	 3.00000000E-01	 6.00000000E-01
					-5.00000000E-02	 0.00000000E+00	 6.50000000E-01
					-5.00000000E-02	 3.00000000E-01	 6.50000000E-01
					-5.00000000E-02	 0.00000000E+00	 7.00000000E-01
					-5.00000000E-02	 3.00000000E-01	 7.00000000E-01
					-5.00000000E-02	 0.00000000E+00	 7.50000000E-01
					-5.00000000E-02	 3.00000000E-01	 7.50000000E-01
					-5.00000000E-02	 0.00000000E+00	 8.00000000E-01
					-5.00000000E-02	 3.00000000E-01	 8.00000000E-01
					-5.00000000E-02	 0.00000000E+00	 8.50000000E-01
					-5.00000000E-02	 3.00000000E-01	 8.50000000E-01
					-5.00000000E-02	 0.00000000E+00	 9.00000000E-01
					-5.00000000E-02	 3.00000000E-01	 9.00000000E-01
					-5.00000000E-02	 0.00000000E+00	 9.50000000E-01
					-5.00000000E-02	 3.00000000E-01	 9.50000000E-01
					-5.00000000E-02	 0.00000000E+00	 1.00000000E+00
					-5.00000000E-02	 3.00000000E-01	 1.00000000E+00

				</DataArray>
			</Points>
			<Cells>
				<DataArray type="Int32" Name="connectivity" format="ascii">
					0 1 2 3 4 5 6 7 3 2 8 9 7 6 10 11 9 8 12 13 11 10 14 15 13 12 16 17 15 14 18 19 17 16 20 21 19 18 22 23 21 20 24 25 23 22 26 27 25 24 28 29 27 26 30 31 29 28 32 33 31 30 34 35 33 32 36 37 35 34 38 39 37 36 40 41 39 38 42 43 41 40 44 45 43 42 46 47 45 44 48 49 47 46 50 51 49 48 52 53 51 50 54 55 53 52 56 57 55 54 58 59 57 56 60 61 59 58 62 63 61 60 64 65 63 62 66 67 65 64 68 69 67 66 70 71 69 68 72 73 71 70 74 75 73 72 76 77 75 74 78 79 77 76 80 81 79 78 82 83 1 84 85 2 5 86 87 6 2 85 88 8 6 87 89 10 8 88 90 12 10 89 91 14 12 90 92 16 14 91 93 18 16 92 94 20 18 93 95 22 20 94 96 24 22 95 97 26 24 96 98 28 26 97 99 30 28 98 100 32 30 99 101 34 32 100 102 36 34 101 103 38 36 102 104 40 38 103 105 42 40 104 106 44 42 105 107 46 44 106 108 48 46 107 109 50 48 108 110 52 50 109 111 54 52 110 112 56 54 111 113 58 56 112 114 60 58 113 115 62 60 114 116 64 62 115 117 66 64 116 118 68 66 117 119 70 68 118 120 72 70 119 121 74 72 120 122 76 74 121 123 78 76 122 124 80 78 123 125 82 
				</DataArray>
				<DataArray type="Int32" Name="offsets" format="ascii">
					8 16 24 32 40 48 56 64 72 80 88 96 104 112 120 128 136 144 152 160 168 176 184 192 200 208 216 224 232 240 248 256 264 272 280 288 296 304 312 320 
				</DataArray>
				<DataArray type="UInt8" Name="types" format="ascii">
					12 12 12 12 12 12 12 12 12 12 12 12 12 12 12 12 12 12 12 12 12 12 12 12 12 12 12 12 12 12 12 12 12 12 12 12 12 12 12 12 
				</DataArray>
			</Cells>
			<PointData>
				<DataArray type="Float32" Name="U" NumberOfComponents="3" ComponentName0="D1" ComponentName1="D2" ComponentName2="D3" format="ascii">
					 0.00000000E+00	 0.00000000E+00	 0.00000000E+00
					 0.00000000E+00	 0.00000000E+00	 0.00000000E+00
					 3.25598000E-03	 0.00000000E+00	-3.53722000E-05
					 3.52331000E-03	 0.00000000E+00	-5.74233000E-03
					 0.00000000E+00	 0.00000000E+00	 0.00000000E+00
					 0.00000000E+00	 0.00000000E+00	 0.00000000E+00
					 3.25598000E-03	 0.00000000E+00	-3.53722000E-05
					 3.52331000E-03	 0.00000000E+00	-5.74233000E-03
					 1.22763000E-02	 0.00000000E+00	-5.85405000E-04
					 1.14464000E-02	 0.00000000E+00	-1.13301000E-02
					 1.22763000E-02	 0.00000000E+00	-5.85405000E-04
					 1.14464000E-02	 0.00000000E+00	-1.13301000E-02
					 2.56556000E-02	 0.00000000E+00	-2.14487000E-03
					 2.37101000E-02	 0.00000000E+00	-1.70989000E-02
					 2.56556000E-02	 0.00000000E+00	-2.14487000E-03
					 2.37101000E-02	 0.00000000E+00	-1.70989000E-02
					 4.28624000E-02	 0.00000000E+00	-4.92251000E-03
					 3.96104000E-02	 0.00000000E+00	-2.34226000E-02
					 4.28624000E-02	 0.00000000E+00	-4.92251000E-03
					 3.96104000E-02	 0.00000000E+00	-2.34226000E-02
					 6.33042000E-02	 0.00000000E+00	-8.99697000E-03
					 5.87134000E-02	 0.00000000E+00	-3.04639000E-02
					 6.33042000E-02	 0.00000000E+00	-8.99697000E-03
					 5.87134000E-02	 0.00000000E+00	-3.04639000E-02
					 8.64298000E-02	 0.00000000E+00	-1.43512000E-02
					 8.05443000E-02	 0.00000000E+00	-3.82634000E-02
					 8.64298000E-02	 0.00000000E+00	-1.43512000E-02
					 8.05443000E-02	 0.00000000E+00	-3.82634000E-02
					 1.11731000E-01	 0.00000000E+00	-2.08958000E-02
					 1.04658000E-01	 0.00000000E+00	-4.68179000E-02
					 1.11731000E-01	 0.00000000E+00	-2.08958000E-02
					 1.04658000E-01	 0.00000000E+00	-4.68179000E-02
					 1.38804000E-01	 0.00000000E+00	-2.85170000E-02
					 1.30643000E-01	 0.00000000E+00	-5.61097000E-02
					 1.38804000E-01	 0.00000000E+00	-2.85170000E-02
					 1.30643000E-01	 0.00000000E+00	-5.61097000E-02
					 1.67386000E-01	 0.00000000E+00	-3.71216000E-02
					 1.58204000E-01	 0.00000000E+00	-6.61566000E-02
					 1.67386000E-01	 0.00000000E+00	-3.71216000E-02
					 1.58204000E-01	 0.00000000E+00	-6.61566000E-02
					 1.97321000E-01	 0.00000000E+00	-4.66677000E-02
					 1.87158000E-01	 0.00000000E+00	-7.69954000E-02
					 1.97321000E-01	 0.00000000E+00	-4.66677000E-02
					 1.87158000E-01	 0.00000000E+00	-7.69954000E-02
					 2.28502000E-01	 0.00000000E+00	-5.71537000E-02
					 2.17403000E-01	 0.00000000E+00	-8.86591000E-02
					 2.28502000E-01	 0.00000000E+00	-5.71537000E-02
					 2.17403000E-01	 0.00000000E+00	-8.86591000E-02
					 2.60816000E-01	 0.00000000E+00	-6.85699000E-02
					 2.48834000E-01	 0.00000000E+00	-1.01119000E-01
					 2.60816000E-01	 0.00000000E+00	-6.85699000E-02
					 2.48834000E-01	 0.00000000E+00	-1.01119000E-01
					 2.94113000E-01	 0.00000000E+00	-8.08543000E-02
					 2.81324000E-01	 0.00000000E+00	-1.14305000E-01
					 2.94113000E-01	 0.00000000E+00	-8.08543000E-02
					 2.81324000E-01	 0.00000000E+00	-1.14305000E-01
					 3.28234000E-01	 0.00000000E+00	-9.39115000E-02
					 3.14725000E-01	 0.00000000E+00	-1.28125000E-01
					 3.28234000E-01	 0.00000000E+00	-9.39115000E-02
					 3.14725000E-01	 0.00000000E+00	-1.28125000E-01
					 3.63053000E-01	 0.00000000E+00	-1.07654000E-01
					 3.48920000E-01	 0.00000000E+00	-1.42510000E-01
					 3.63053000E-01	 0.00000000E+00	-1.07654000E-01
					 3.48920000E-01	 0.00000000E+00	-1.42510000E-01
					 3.98469000E-01	 0.00000000E+00	-1.22004000E-01
					 3.83817000E-01	 0.00000000E+00	-1.57360000E-01
					 3.98469000E-01	 0.00000000E+00	-1.22004000E-01
					 3.83817000E-01	 0.00000000E+00	-1.57360000E-01
					 4.34337000E-01	 0.00000000E+00	-1.36831000E-01
					 4.19314000E-01	 0.00000000E+00	-1.72520000E-01
					 4.34337000E-01	 0.00000000E+00	-1.36831000E-01
					 4.19314000E-01	 0.00000000E+00	-1.72520000E-01
					 4.70432000E-01	 0.00000000E+00	-1.51933000E-01
					 4.55209000E-01	 0.00000000E+00	-1.87790000E-01
					 4.70432000E-01	 0.00000000E+00	-1.51933000E-01
					 4.55209000E-01	 0.00000000E+00	-1.87790000E-01
					 5.06537000E-01	 0.00000000E+00	-1.67128000E-01
					 4.91256000E-01	 0.00000000E+00	-2.03051000E-01
					 5.06537000E-01	 0.00000000E+00	-1.67128000E-01
					 4.91256000E-01	 0.00000000E+00	-2.03051000E-01
					 5.42549000E-01	 0.00000000E+00	-1.82357000E-01
					 5.27268000E-01	 0.00000000E+00	-2.18307000E-01
					 5.42549000E-01	 0.00000000E+00	-1.82357000E-01
					 5.27268000E-01	 0.00000000E+00	-2.18307000E-01
					 0.00000000E+00	 0.00000000E+00	 0.00000000E+00
					 4.67844000E-03	 0.00000000E+00	 5.56078000E-03
					 0.00000000E+00	 0.00000000E+00	 0.00000000E+00
					 4.67844000E-03	 0.00000000E+00	 5.56078000E-03
					 1.42260000E-02	 0.00000000E+00	 9.83600000E-03
					 1.42260000E-02	 0.00000000E+00	 9.83600000E-03
					 2.85914000E-02	 0.00000000E+00	 1.24249000E-02
					 2.85914000E-02	 0.00000000E+00	 1.24249000E-02
					 4.69419000E-02	 0.00000000E+00	 1.31956000E-02
					 4.69419000E-02	 0.00000000E+00	 1.31956000E-02
					 6.85846000E-02	 0.00000000E+00	 1.21030000E-02
					 6.85846000E-02	 0.00000000E+00	 1.21030000E-02
					 9.28844000E-02	 0.00000000E+00	 9.21486000E-03
					 9.28844000E-02	 0.00000000E+00	 9.21486000E-03
					 1.19270000E-01	 0.00000000E+00	 4.71399000E-03
					 1.19270000E-01	 0.00000000E+00	 4.71399000E-03
					 1.47371000E-01	 0.00000000E+00	-1.20196000E-03
					 1.47371000E-01	 0.00000000E+00	-1.20196000E-03
					 1.76930000E-01	 0.00000000E+00	-8.34111000E-03
					 1.76930000E-01	 0.00000000E+00	-8.34111000E-03
					 2.07811000E-01	 0.00000000E+00	-1.65915000E-02
					 2.07811000E-01	 0.00000000E+00	-1.65915000E-02
					 2.39887000E-01	 0.00000000E+00	-2.58935000E-02
					 2.39887000E-01	 0.00000000E+00	-2.58935000E-02
					 2.73049000E-01	 0.00000000E+00	-3.62504000E-02
					 2.73049000E-01	 0.00000000E+00	-3.62504000E-02
					 3.07115000E-01	 0.00000000E+00	-4.76105000E-02
					 3.07115000E-01	 0.00000000E+00	-4.76105000E-02
					 3.41924000E-01	 0.00000000E+00	-5.98838000E-02
					 3.41924000E-01	 0.00000000E+00	-5.98838000E-02
					 3.77332000E-01	 0.00000000E+00	-7.29566000E-02
					 3.77332000E-01	 0.00000000E+00	-7.29566000E-02
					 4.13233000E-01	 0.00000000E+00	-8.67709000E-02
					 4.13233000E-01	 0.00000000E+00	-8.67709000E-02
					 4.49427000E-01	 0.00000000E+00	-1.01222000E-01
					 4.49427000E-01	 0.00000000E+00	-1.01222000E-01
					 4.85678000E-01	 0.00000000E+00	-1.16122000E-01
					 4.85678000E-01	 0.00000000E+00	-1.16122000E-01
					 5.21811000E-01	 0.00000000E+00	-1.31233000E-01
					 5.21811000E-01	 0.00000000E+00	-1.31233000E-01
					 5.57818000E-01	 0.00000000E+00	-1.46428000E-01
					 5.57818000E-01	 0.00000000E+00	-1.46428000E-01
				</DataArray>
				<DataArray type="Float32" Name="S" NumberOfComponents="10" ComponentName0="xx" ComponentName1="yy" ComponentName2="zz" ComponentName3="xy" ComponentName4="yz" ComponentName5="zx" ComponentName6="Mises" ComponentName7="Min Principal" ComponentName8="Mid Principal" ComponentName9="Max Principal" format="ascii">
					-3.61992000E+03	-3.97715000E+03	-1.30994000E+04	 0.00000000E+00	-1.13029000E-09	 2.54873000E+03	 1.02999939E+04	-1.37412174E+04	-3.97715000E+03	-2.97810262E+03
					 3.42956000E+02	 4.74986000E+01	-4.91862000E+02	 0.00000000E+00	 0.00000000E+00	 3.19880000E+03	 5.58878585E+03	-3.30037174E+03	 4.74986000E+01	 3.15146574E+03
					-1.65490000E+02	-6.20093000E+01	-4.33763000E+02	-3.77832000E-08	-1.71349000E-08	 4.37055000E+02	 8.26735118E+02	-7.56802258E+02	-6.20093000E+01	 1.57549258E+02
					-1.87261000E+03	-3.22302000E+03	-1.19051000E+04	-5.32820000E-08	 3.11267000E-08	-5.65941000E+02	 9.48089424E+03	-1.19369242E+04	-3.22302000E+03	-1.84078575E+03
					-3.61992000E+03	-3.97715000E+03	-1.30994000E+04	 0.00000000E+00	-1.13029000E-09	 2.54873000E+03	 1.02999939E+04	-1.37412174E+04	-3.97715000E+03	-2.97810262E+03
					 3.42956000E+02	 4.74986000E+01	-4.91862000E+02	 0.00000000E+00	 0.00000000E+00	 3.19880000E+03	 5.58878585E+03	-3.30037174E+03	 4.74986000E+01	 3.15146574E+03
					-1.65490000E+02	-6.20093000E+01	-4.33763000E+02	-3.77832000E-08	-1.71349000E-08	 4.37055000E+02	 8.26735118E+02	-7.56802258E+02	-6.20093000E+01	 1.57549258E+02
					-1.87261000E+03	-3.22302000E+03	-1.19051000E+04	-5.32821000E-08	 3.11265000E-08	-5.65941000E+02	 9.48089424E+03	-1.19369242E+04	-3.22302000E+03	-1.84078575E+03
					-8.43455000E+01	 4.90796000E+00	-1.72150000E+02	-9.29625000E-08	-1.96725000E-08	 5.68532000E+02	 9.96593483E+02	-6.98472305E+02	 4.90796000E+00	 4.41976805E+02
					-2.33035000E+03	-2.88378000E+03	-1.03215000E+04	-9.23774000E-08	 3.46694000E-08	-1.45674000E+03	 8.13071308E+03	-1.05787724E+04	-2.88378000E+03	-2.07307760E+03
					-8.43455000E+01	 4.90796000E+00	-1.72150000E+02	-9.29620000E-08	-1.96724000E-08	 5.68532000E+02	 9.96593483E+02	-6.98472305E+02	 4.90796000E+00	 4.41976805E+02
					-2.33035000E+03	-2.88378000E+03	-1.03215000E+04	-9.23775000E-08	 3.46695000E-08	-1.45674000E+03	 8.13071308E+03	-1.05787724E+04	-2.88378000E+03	-2.07307760E+03
					 5.54416000E+01	 3.52933000E+01	-7.47566000E+01	-1.55990000E-07	-3.52186000E-09	 4.79514000E+02	 8.39366000E+02	-4.93570270E+02	 3.52933000E+01	 4.74255270E+02
					-2.09782000E+03	-2.39306000E+03	-8.61548000E+03	-1.69353000E-07	 3.03928000E-08	-1.83316000E+03	 7.12209319E+03	-9.09569380E+03	-2.39306000E+03	-1.61760620E+03
					 5.54416000E+01	 3.52933000E+01	-7.47566000E+01	-1.55989000E-07	-3.52181000E-09	 4.79514000E+02	 8.39366000E+02	-4.93570270E+02	 3.52933000E+01	 4.74255270E+02
					-2.09782000E+03	-2.39306000E+03	-8.61548000E+03	-1.69353000E-07	 3.03921000E-08	-1.83316000E+03	 7.12209319E+03	-9.09569380E+03	-2.39306000E+03	-1.61760620E+03
					 1.46173000E+02	 5.59657000E+01	-1.11269000E+01	-1.66933000E-07	 1.66659000E-09	 4.68716000E+02	 8.23270965E+02	-4.07745825E+02	 5.59657000E+01	 5.42791925E+02
					-2.07160000E+03	-2.03648000E+03	-7.19716000E+03	-1.70356000E-07	-1.63430000E-08	-1.99355000E+03	 6.19478274E+03	-7.88123739E+03	-2.03648000E+03	-1.38752261E+03
					 1.46173000E+02	 5.59657000E+01	-1.11269000E+01	-1.66932000E-07	 1.66639000E-09	 4.68716000E+02	 8.23270965E+02	-4.07745825E+02	 5.59657000E+01	 5.42791925E+02
					-2.07160000E+03	-2.03648000E+03	-7.19716000E+03	-1.70356000E-07	-1.63419000E-08	-1.99355000E+03	 6.19478274E+03	-7.88123739E+03	-2.03648000E+03	-1.38752261E+03
					 2.19649000E+02	 7.42616000E+01	 4.77105000E+01	-1.34239000E-07	 1.07087000E-08	 4.65621000E+02	 8.22259934E+02	-3.39811145E+02	 7.42616000E+01	 6.07170645E+02
					-1.98330000E+03	-1.70898000E+03	-5.91813000E+03	-1.88997000E-07	-3.81632000E-08	-1.95495000E+03	 5.30122907E+03	-6.72425990E+03	-1.70898000E+03	-1.17717010E+03
					 2.19649000E+02	 7.42616000E+01	 4.77105000E+01	-1.34241000E-07	 1.07080000E-08	 4.65621000E+02	 8.22259934E+02	-3.39811145E+02	 7.42616000E+01	 6.07170645E+02
					-1.98330000E+03	-1.70898000E+03	-5.91813000E+03	-1.88997000E-07	-3.81625000E-08	-1.95495000E+03	 5.30122907E+03	-6.72425990E+03	-1.70898000E+03	-1.17717010E+03
					 2.52310000E+02	 8.49016000E+01	 9.83516000E+01	-5.68943000E-08	-8.58930000E-09	 4.59552000E+02	 8.12107723E+02	-2.90623960E+02	 8.49016000E+01	 6.41285560E+02
					-1.85950000E+03	-1.41884000E+03	-4.79571000E+03	-9.91684000E-08	-8.92435000E-08	-1.80041000E+03	 4.45351650E+03	-5.65070820E+03	-1.41884000E+03	-1.00450180E+03
					 2.52310000E+02	 8.49016000E+01	 9.83516000E+01	-5.68934000E-08	-8.58952000E-09	 4.59552000E+02	 8.12107723E+02	-2.90623960E+02	 8.49016000E+01	 6.41285560E+02
					-1.85950000E+03	-1.41884000E+03	-4.79571000E+03	-9.91690000E-08	-8.92435000E-08	-1.80041000E+03	 4.45351650E+03	-5.65070820E+03	-1.41884000E+03	-1.00450180E+03
					 2.82209000E+02	 1.01629000E+02	 1.72945000E+02	 4.35759000E-08	-6.95915000E-08	 4.29718000E+02	 7.60782192E+02	-2.05599886E+02	 1.01629000E+02	 6.60753886E+02
					-1.70531000E+03	-1.17119000E+03	-3.85526000E+03	-5.99406000E-09	-1.42026000E-07	-1.61893000E+03	 3.73077787E+03	-4.72360834E+03	-1.17119000E+03	-8.36961662E+02
					 2.82209000E+02	 1.01629000E+02	 1.72945000E+02	 4.35707000E-08	-6.95918000E-08	 4.29718000E+02	 7.60782192E+02	-2.05599886E+02	 1.01629000E+02	 6.60753886E+02
					-1.70531000E+03	-1.17119000E+03	-3.85526000E+03	-5.98973000E-09	-1.42026000E-07	-1.61893000E+03	 3.73077787E+03	-4.72360834E+03	-1.17119000E+03	-8.36961662E+02
					 2.75979000E+02	 1.12439000E+02	 2.48136000E+02	 1.21543000E-07	-1.23574000E-07	 4.14870000E+02	 7.34383054E+02	-1.53046011E+02	 1.12439000E+02	 6.77161011E+02
					-1.59806000E+03	-9.89848000E+02	-3.14461000E+03	 7.93478000E-08	-1.53066000E-07	-1.45234000E+03	 3.16705596E+03	-4.01670599E+03	-9.89848000E+02	-7.25964008E+02
					 2.75979000E+02	 1.12439000E+02	 2.48136000E+02	 1.21543000E-07	-1.23573000E-07	 4.14870000E+02	 7.34383054E+02	-1.53046011E+02	 1.12439000E+02	 6.77161011E+02
					-1.59806000E+03	-9.89848000E+02	-3.14461000E+03	 7.93479000E-08	-1.53068000E-07	-1.45234000E+03	 3.16705596E+03	-4.01670599E+03	-9.89848000E+02	-7.25964008E+02
					 2.75634000E+02	 1.23285000E+02	 3.13518000E+02	 1.31530000E-07	-1.36868000E-07	 4.23385000E+02	 7.53778203E+02	-1.29232515E+02	 1.23285000E+02	 7.18384515E+02
					-1.53772000E+03	-8.68656000E+02	-2.65080000E+03	 1.24517000E-07	-1.33192000E-07	-1.31727000E+03	 2.76349710E+03	-3.52427295E+03	-8.68656000E+02	-6.64247054E+02
					 2.75634000E+02	 1.23285000E+02	 3.13518000E+02	 1.31527000E-07	-1.36871000E-07	 4.23385000E+02	 7.53778203E+02	-1.29232515E+02	 1.23285000E+02	 7.18384515E+02
					-1.53772000E+03	-8.68656000E+02	-2.65080000E+03	 1.24523000E-07	-1.33190000E-07	-1.31727000E+03	 2.76349710E+03	-3.52427295E+03	-8.68656000E+02	-6.64247054E+02
					 2.87255000E+02	 1.27816000E+02	 3.32715000E+02	 8.82629000E-08	-1.16273000E-07	 4.46726000E+02	 7.95881813E+02	-1.37318892E+02	 1.27816000E+02	 7.57288892E+02
					-1.48912000E+03	-7.85172000E+02	-2.31321000E+03	 1.33506000E-07	-8.42565000E-08	-1.20215000E+03	 2.46784876E+03	-3.17197014E+03	-7.85172000E+02	-6.30359860E+02
					 2.87255000E+02	 1.27816000E+02	 3.32715000E+02	 8.82694000E-08	-1.16270000E-07	 4.46726000E+02	 7.95881813E+02	-1.37318892E+02	 1.27816000E+02	 7.57288892E+02
					-1.48912000E+03	-7.85172000E+02	-2.31321000E+03	 1.33499000E-07	-8.42567000E-08	-1.20215000E+03	 2.46784876E+03	-3.17197014E+03	-7.85172000E+02	-6.30359860E+02
					 3.39365000E+02	 1.34718000E+02	 3.20705000E+02	 1.28754000E-08	-5.24314000E-08	 4.45925000E+02	 7.96842013E+02	-1.15987594E+02	 1.34718000E+02	 7.76057594E+02
					-1.39121000E+03	-7.03851000E+02	-2.02968000E+03	 5.56421000E-08	-1.03015000E-08	-1.09648000E+03	 2.21940749E+03	-2.85245173E+03	-7.03851000E+02	-5.68438268E+02
					 3.39365000E+02	 1.34718000E+02	 3.20705000E+02	 1.28647000E-08	-5.24327000E-08	 4.45925000E+02	 7.96842013E+02	-1.15987594E+02	 1.34718000E+02	 7.76057594E+02
					-1.39121000E+03	-7.03851000E+02	-2.02968000E+03	 5.56550000E-08	-1.02980000E-08	-1.09648000E+03	 2.21940749E+03	-2.85245173E+03	-7.03851000E+02	-5.68438268E+02
					 3.73443000E+02	 1.31510000E+02	 2.74508000E+02	-9.34140000E-09	-2.38116000E-08	 4.32765000E+02	 7.78614606E+02	-1.11607533E+02	 1.31510000E+02	 7.59558533E+02
					-1.26224000E+03	-6.19465000E+02	-1.75999000E+03	 2.16133000E-08	-1.62000000E-08	-9.72526000E+02	 1.95404106E+03	-2.51498032E+03	-6.19465000E+02	-5.07249677E+02
					 3.73443000E+02	 1.31510000E+02	 2.74508000E+02	-9.33739000E-09	-2.38052000E-08	 4.32765000E+02	 7.78614606E+02	-1.11607533E+02	 1.31510000E+02	 7.59558533E+02
					-1.26224000E+03	-6.19465000E+02	-1.75999000E+03	 2.16022000E-08	-1.62066000E-08	-9.72526000E+02	 1.95404106E+03	-2.51498032E+03	-6.19465000E+02	-5.07249677E+02
					 3.86415000E+02	 1.24996000E+02	 2.32029000E+02	-2.51112000E-08	-8.94528000E-09	 4.07354000E+02	 7.41368559E+02	-1.05381474E+02	 1.24996000E+02	 7.23825474E+02
					-1.11539000E+03	-5.32737000E+02	-1.49426000E+03	-1.29517000E-08	 1.13876000E-08	-8.37094000E+02	 1.67509875E+03	-2.16308602E+03	-5.32737000E+02	-4.46563977E+02
					 3.86415000E+02	 1.24996000E+02	 2.32029000E+02	-2.51034000E-08	-8.94806000E-09	 4.07354000E+02	 7.41368559E+02	-1.05381474E+02	 1.24996000E+02	 7.23825474E+02
					-1.11539000E+03	-5.32737000E+02	-1.49426000E+03	-1.29442000E-08	 1.13934000E-08	-8.37094000E+02	 1.67509875E+03	-2.16308602E+03	-5.32737000E+02	-4.46563977E+02
					 3.79045000E+02	 1.14211000E+02	 1.88582000E+02	-6.70711000E-08	 3.27227000E-08	 3.82259000E+02	 7.03091710E+02	-1.10129366E+02	 1.14211000E+02	 6.77756366E+02
					-9.61178000E+02	-4.50471000E+02	-1.25346000E+03	-4.89985000E-08	 5.16047000E-08	-6.99266000E+02	 1.40087105E+03	-1.82169294E+03	-4.50471000E+02	-3.92945057E+02
					 3.79045000E+02	 1.14211000E+02	 1.88582000E+02	-6.70699000E-08	 3.27259000E-08	 3.82259000E+02	 7.03091710E+02	-1.10129366E+02	 1.14211000E+02	 6.77756366E+02
					-9.61178000E+02	-4.50471000E+02	-1.25346000E+03	-4.89964000E-08	 5.16006000E-08	-6.99266000E+02	 1.40087105E+03	-1.82169294E+03	-4.50471000E+02	-3.92945057E+02
					 4.01564000E+02	 1.10860000E+02	 1.52555000E+02	-8.64243000E-08	 4.86244000E-08	 3.49642000E+02	 6.63984164E+02	-9.40885819E+01	 1.10860000E+02	 6.48207582E+02
					-7.53266000E+02	-3.57929000E+02	-1.01268000E+03	-7.91566000E-08	 5.85627000E-08	-5.54628000E+02	 1.11757755E+03	-1.45256595E+03	-3.57929000E+02	-3.13380054E+02
					 4.01564000E+02	 1.10860000E+02	 1.52555000E+02	-8.64230000E-08	 4.86326000E-08	 3.49642000E+02	 6.63984164E+02	-9.40885819E+01	 1.10860000E+02	 6.48207582E+02
					-7.53266000E+02	-3.57929000E+02	-1.01268000E+03	-7.91612000E-08	 5.85612000E-08	-5.54628000E+02	 1.11757755E+03	-1.45256595E+03	-3.57929000E+02	-3.13380054E+02
					 4.24699000E+02	 1.04181000E+02	 9.88643000E+01	-7.99780000E-08	 4.62770000E-08	 3.27408000E+02	 6.52726703E+02	-1.03920498E+02	 1.04181000E+02	 6.27483798E+02
					-4.78800000E+02	-2.48136000E+02	-7.50811000E+02	-6.50107000E-08	 5.91070000E-08	-3.60322000E+02	 7.61206175E+02	-9.99941112E+02	-2.48136000E+02	-2.29669888E+02
					 4.24699000E+02	 1.04181000E+02	 9.88643000E+01	-7.99789000E-08	 4.62758000E-08	 3.27408000E+02	 6.52726703E+02	-1.03920498E+02	 1.04181000E+02	 6.27483798E+02
					-4.78800000E+02	-2.48136000E+02	-7.50811000E+02	-6.49940000E-08	 5.91049000E-08	-3.60322000E+02	 7.61206175E+02	-9.99941112E+02	-2.48136000E+02	-2.29669888E+02
					 4.10766000E+02	 9.38404000E+01	 6.22353000E+01	-8.83737000E-08	 6.73600000E-08	 2.98608000E+02	 6.15595156E+02	-1.09237907E+02	 9.38404000E+01	 5.82239207E+02
					-1.73497000E+02	-1.25321000E+02	-4.50729000E+02	-8.75324000E-08	 5.90267000E-08	-1.31699000E+02	 3.80221406E+02	-5.03317137E+02	-1.25321000E+02	-1.20908863E+02
					 4.10766000E+02	 9.38404000E+01	 6.22353000E+01	-8.83696000E-08	 6.73619000E-08	 2.98608000E+02	 6.15595156E+02	-1.09237907E+02	 9.38404000E+01	 5.82239207E+02
					-1.73497000E+02	-1.25321000E+02	-4.50729000E+02	-8.75399000E-08	 5.90288000E-08	-1.31699000E+02	 3.80221406E+02	-5.03317137E+02	-1.25321000E+02	-1.20908863E+02
					 3.09219000E+02	 7.03034000E+01	 4.54641000E+01	-8.62046000E-08	 5.05499000E-08	 2.47509000E+02	 4.97407545E+02	-1.03108743E+02	 7.03034000E+01	 4.57791843E+02
					 3.71032000E+01	-2.98140000E+01	-1.85923000E+02	-9.39676000E-08	 3.56931000E-08	 4.89527000E+01	 2.15600114E+02	-1.96194703E+02	-2.98140000E+01	 4.73749033E+01
					 3.09219000E+02	 7.03034000E+01	 4.54641000E+01	-8.61894000E-08	 5.05564000E-08	 2.47509000E+02	 4.97407545E+02	-1.03108743E+02	 7.03034000E+01	 4.57791843E+02
					 3.71032000E+01	-2.98140000E+01	-1.85923000E+02	-9.39766000E-08	 3.56873000E-08	 4.89527000E+01	 2.15600114E+02	-1.96194703E+02	-2.98140000E+01	 4.73749033E+01
					 1.54320000E+02	 3.66706000E+01	 3.04370000E+01	-7.48748000E-08	 6.12559000E-08	 1.51415000E+02	 2.88778678E+02	-7.12162788E+01	 3.66706000E+01	 2.55973279E+02
					 7.72481000E+01	 6.35570000E+00	-4.50745000E+01	-7.16380000E-08	 6.84787000E-08	 8.98793000E+01	 1.88551515E+02	-9.26283930E+01	 6.35570000E+00	 1.24801993E+02
					 1.54320000E+02	 3.66706000E+01	 3.04370000E+01	-7.48409000E-08	 6.12546000E-08	 1.51415000E+02	 2.88778678E+02	-7.12162788E+01	 3.66706000E+01	 2.55973279E+02
					 7.72481000E+01	 6.35570000E+00	-4.50745000E+01	-7.16725000E-08	 6.84863000E-08	 8.98793000E+01	 1.88551515E+02	-9.26283930E+01	 6.35570000E+00	 1.24801993E+02
					 7.67204000E+01	 2.26679000E+01	 3.69744000E+01	-7.57802000E-08	 8.83021000E-08	 8.36266000E+01	 1.52752320E+02	-2.91080789E+01	 2.26679000E+01	 1.42802879E+02
					 5.80769000E+01	 1.23950000E+01	 4.07864000E+00	-5.35021000E-08	 1.05082000E-07	 6.06487000E+01	 1.16493345E+02	-3.53091100E+01	 1.23950000E+01	 9.74646500E+01
					 7.67204000E+01	 2.26679000E+01	 3.69744000E+01	-7.58201000E-08	 8.83099000E-08	 8.36266000E+01	 1.52752320E+02	-2.91080789E+01	 2.26679000E+01	 1.42802879E+02
					 5.80769000E+01	 1.23950000E+01	 4.07864000E+00	-5.34748000E-08	 1.05088000E-07	 6.06487000E+01	 1.16493345E+02	-3.53091100E+01	 1.23950000E+01	 9.74646500E+01
					 4.42643000E+03	 3.64865000E+03	 1.72986000E+04	 0.00000000E+00	 0.00000000E+00	 6.03547000E+03	 1.68994116E+04	 2.03924530E+03	 3.64865000E+03	 1.96857847E+04
					 1.39700000E+03	 2.85332000E+03	 1.54223000E+04	-2.58371000E-08	-3.93309000E-08	 2.56673000E+03	 1.40772473E+04	 9.42029032E+02	 2.85332000E+03	 1.58772710E+04
					 4.42643000E+03	 3.64865000E+03	 1.72986000E+04	 0.00000000E+00	 0.00000000E+00	 6.03547000E+03	 1.68994116E+04	 2.03924530E+03	 3.64865000E+03	 1.96857847E+04