<?xml version="1.0"?>
<VTKFile type="UnstructuredGrid" version="0.1" byte_order="LittleEndian">
	<UnstructuredGrid>
		<Piece NumberOfPoints="126" NumberOfCells="40">
			<Points>
				<DataArray type="Float64" NumberOfComponents="3" format="ascii">
					 5.00000000E-02	 0.00000000E+00	 0.00000000E+00
					 0.00000000E+00	 0.00000000E+00	 0.00000000E+00
					 0.00000000E+00	 0.00000000E+00	 5.00000000E-02
					 5.00000000E-02	 0.00000000E+00	 5.00000000E-02
					 5.00000000E-02	 3.00000000E-01	 0.00000000E+00
					 0.00000000E+00	 3.00000000E-01	 0.00000000E+00
					 0.00000000E+00	 3.00000000E-01	 5.00000000E-02
					 5.00000000E-02	 3.00000000E-01	 5.00000000E-02
					 0.00000000E+00	 0.00000000E+00	 1.00000000E-01
					 5.00000000E-02	 0.00000000E+00	 1.00000000E-01
					 0.00000000E+00	 3.00000000E-01	 1.00000000E-01
					 5.00000000E-02	 3.00000000E-01	 1.00000000E-01
					 0.00000000E+00	 0.00000000E+00	 1.50000000E-01
					 5.00000000E-02	 0.00000000E+00	 1.50000000E-01
					 0.00000000E+00	 3.00000000E-01	 1.50000000E-01
					 5.00000000E-02	 3.00000000E-01	 1.50000000E-01
					 0.00000000E+00	 0.00000000E+00	 2.00000000E-01
					 5.00000000E-02	 0.00000000E+00	 2.00000000E-01
					 0.00000000E+00	 3.00000000E-01	 2.00000000E-01
					 5.00000000E-02	 3.00000000E-01	 2.00000000E-01
					 0.00000000E+00	 0.00000000E+00	 2.50000000E-01
					 5.00000000E-02	 0.00000000E+00	 2.50000000E-01
					 0.00000000E+00	 3.00000000E-01	 2.50000000E-01
					 5.00000000E-02	 3.00000000E-01	 2.50000000E-01
					 0.00000000E+00	 0.00000000E+00	 3.00000000E-01
					 5.00000000E-02	 0.00000000E+00	 3.00000000E-01
					 0.00000000E+00	 3.00000000E-01	 3.00000000E-01
					 5.00000000E-02	 3.00000000E-01	 3.00000000E-01
					 0.00000000E+00	 0.00000000E+00	 3.50000000E-01
					 5.00000000E-02	 0.00000000E+00	 3.50000000E-01
					 0.00000000E+00	 3.00000000E-01	 3.50000000E-01
					 5.00000000E-02	 3.00000000E-01	 3.50000000E-01
					 0.00000000E+00	 0.00000000E+00	 4.00000000E-01
					 5.00000000E-02	 0.00000000E+00	 4.00000000E-01
					 0.00000000E+00	 3.00000000E-01	 4.00000000E-01
					 5.00000000E-02	 3.00000000E-01	 4.00000000E-01
					 0.00000000E+00	 0.00000000E+00	 4.50000000E-01
					 5.00000000E-02	 0.00000000E+00	 4.50000000E-01
					 0.00000000E+00	 3.00000000E-01	 4.50000000E-01
					 5.00000000E-02	 3.00000000E-01	 4.50000000E-01
					 0.00000000E+00	 0.00000000E+00	 5.00000000E-01
					 5.00000000E-02	 0.00000000E+00	 5.00000000E-01
					 0.00000000E+00	 3.00000000E-01	 5.00000000E-01
					 5.00000000E-02	 3.00000000E-01	 5.00000000E-01
					 0.00000000E+00	 0.00000000E+00	 5.50000000E-01
					 5.00000000E-02	 0.00000000E+00	 5.50000000E-01
					 0.00000000E+00	 3.00000000E-01	 5.50000000E-01
					 5.00000000E-02	 3.00000000E-01	 5.50000000E-01
					 0.00000000E+00	 0.00000000E+00	 6.00000000E-01
					 5.00000000E-02	 0.00000000E+00	 6.00000000E-01
					 0.00000000E+00	 3.00000000E-01	 6.00000000E-01
					 5.00000000E-02	 3.00000000E-01	 6.00000000E-01
					 0.00000000E+00	 0.00000000E+00	 6.50000000E-01
					 5.00000000E-02	 0.00000000E+00	 6.50000000E-01
					 0.00000000E+00	 3.00000000E-01	 6.50000000E-01
					 5.00000000E-02	 3.00000000E-01	 6.50000000E-01
					 0.00000000E+00	 0.00000000E+00	 7.00000000E-01
					 5.00000000E-02	 0.00000000E+00	 7.00000000E-01
					 0.00000000E+00	 3.00000000E-01	 7.00000000E-01
					 5.00000000E-02	 3.00000000E-01	 7.00000000E-01
					 0.00000000E+00	 0.00000000E+00	 7.50000000E-01
					 5.00000000E-02	 0.00000000E+00	 7.50000000E-01
					 0.00000000E+00	 3.00000000E-01	 7.50000000E-01
					 5.00000000E-02	 3.00000000E-01	 7.50000000E-01
					 0.00000000E+00	 0.00000000E+00	 8.00000000E-01
					 5.00000000E-02	 0.00000000E+00	 8.00000000E-01
					 0.00000000E+00	 3.00000000E-01	 8.00000000E-01
					 5.00000000E-02	 3.00000000E-01	 8.00000000E-01
					 0.00000000E+00	 0.00000000E+00	 8.50000000E-01
					 5.00000000E-02	 0.00000000E+00	 8.50000000E-01
					 0.00000000E+00	 3.00000000E-01	 8.50000000E-01
					 5.00000000E-02	 3.00000000E-01	 8.50000000E-01
					 0.00000000E+00	 0.00000000E+00	 9.00000000E-01
					 5.00000000E-02	 0.00000000E+00	 9.00000000E-01
					 0.00000000E+00	 3.00000000E-01	 9.00000000E-01
					 5.00000000E-02	 3.00000000E-01	 9.00000000E-01
					 0.00000000E+00	 0.00000000E+00	 9.50000000E-01
					 5.00000000E-02	 0.00000000E+00	 9.50000000E-01
					 0.00000000E+00	 3.00000000E-01	 9.50000000E-01
					 5.00000000E-02	 3.00000000E-01	 9.50000000E-01
					 0.00000000E+00	 0.00000000E+00	 1.00000000E+00
					 5.00000000E-02	 0.00000000E+00	 1.00000000E+00
					 0.00000000E+00	 3.00000000E-01	 1.00000000E+00
					 5.00000000E-02	 3.00000000E-01	 1.00000000E+00
					-5.00000000E-02	 0.00000000E+00	 0.00000000E+00
					-5.00000000E-02	 0.00000000E+00	 5.00000000E-02
					-5.00000000E-02	 3.00000000E-01	 0.00000000E+00
					-5.00000000E-02	 3.00000000E-01	 5.00000000E-02
					-5.00000000E-02	 0.00000000E+00	 1.00000000E-01
					-5.00000000E-02	 3.00000000E-01	 1.00000000E-01
					-5.00000000E-02	 0.00000000E+00	 1.50000000E-01
					-5.00000000E-02	 3.00000000E-01	 1.50000000E-01
					-5.00000000E-02	 0.00000000E+00	 2.00000000E-01
					-5.00000000E-02	 3.00000000E-01	 2.00000000E-01
					-5.00000000E-02	 0.00000000E+00	 2.50000000E-01
					-5.00000000E-02	 3.00000000E-01	 2.50000000E-01
					-5.00000000E-02	 0.00000000E+00	 3.00000000E-01
					-5.00000000E-02	 3.00000000E-01	 3.00000000E-01
					-5.00000000E-02	 0.00000000E+00	 3.50000000E-01
					-5.00000000E-02	 3.00000000E-01	 3.50000000E-01
					-5.00000000E-02	 0.00000000E+00	 4.00000000E-01
					-5.00000000E-02	 3.00000000E-01	 4.00000000E-01
					-5.00000000E-02	 0.00000000E+00	 4.50000000E-01
					-5.00000000E-02	 3.00000000E-01	 4.50000000E-01
					-5.00000000E-02	 0.00000000E+00	 5.00000000E-01
					-5.00000000E-02	 3.00000000E-01	 5.00000000E-01
					-5.00000000E-02	 0.00000000E+00	 5.50000000E-01
					-5.00000000E-02	 3.00000000E-01	 5.50000000E-01
					-5.00000000E-02	 0.00000000E+00	 6.00000000E-01
					-5.00000000E-02	 3.00000000E-01	 6.00000000E-01
					-5.00000000E-02	 0.00000000E+00	 6.50000000E-01
					-5.00000000E-02	 3.00000000E-01	 6.50000000E-01
					-5.00000000E-02	 0.00000000E+00	 7.00000000E-01
					-5.00000000E-02	 3.00000000E-01	 7.00000000E-01
					-5.00000000E-02	 0.00000000E+00	 7.50000000E-01
					-5.00000000E-02	 3.00000000E-01	 7.50000000E-01
					-5.00000000E-02	 0.00000000E+00	 8.00000000E-01
					-5.00000000E-02	 3.00000000E-01	 8.00000000E-01
					-5.00000000E-02	 0.00000000E+00	 8.50000000E-01
					-5.00000000E-02	 3.00000000E-01	 8.50000000E-01
					-5.00000000E-02	 0.00000000E+00	 9.00000000E-01
					-5.00000000E-02	 3.00000000E-01	 9.00000000E-01
					-5.00000000E-02	 0.00000000E+00	 9.50000000E-01
					-5.00000000E-02	 3.00000000E-01	 9.50000000E-01
					-5.00000000E-02	 0.00000000E+00	 1.00000000E+00
					-5.00000000E-02	 3.00000000E-01	 1.00000000E+00

				</DataArray>
			</Points>
			<Cells>
				<DataArray type="Int32" Name="connectivity" format="ascii">
					0 1 2 3 4 5 6 7 3 2 8 9 7 6 10 11 9 8 12 13 11 10 14 15 13 12 16 17 15 14 18 19 17 16 20 21 19 18 22 23 21 20 24 25 23 22 26 27 25 24 28 29 27 26 30 31 29 28 32 33 31 30 34 35 33 32 36 37 35 34 38 39 37 36 40 41 39 38 42 43 41 40 44 45 43 42 46 47 45 44 48 49 47 46 50 51 49 48 52 53 51 50 54 55 53 52 56 57 55 54 58 59 57 56 60 61 59 58 62 63 61 60 64 65 63 62 66 67 65 64 68 69 67 66 70 71 69 68 72 73 71 70 74 75 73 72 76 77 75 74 78 79 77 76 80 81 79 78 82 83 1 84 85 2 5 86 87 6 2 85 88 8 6 87 89 10 8 88 90 12 10 89 91 14 12 90 92 16 14 91 93 18 16 92 94 20 18 93 95 22 20 94 96 24 22 95 97 26 24 96 98 28 26 97 99 30 28 98 100 32 30 99 101 34 32 100 102 36 34 101 103 38 36 102 104 40 38 103 105 42 40 104 106 44 42 105 107 46 44 106 108 48 46 107 109 50 48 108 110 52 50 109 111 54 52 110 112 56 54 111 113 58 56 112 114 60 58 113 115 62 60 114 116 64 62 115 117 66 64 116 118 68 66 117 119 70 68 118 120 72 70 119 121 74 72 120 122 76 74 121 123 78 76 122 124 80 78 123 125 82 
				</DataArray>
				<DataArray type="Int32" Name="offsets" format="ascii">
					8 16 24 32 40 48 56 64 72 80 88 96 104 112 120 128 136 144 152 160 168 176 184 192 200 208 216 224 232 240 248 256 264 272 280 288 296 304 312 320 
				</DataArray>
				<DataArray type="UInt8" Name="types" format="ascii">
					12 12 12 12 12 12 12 12 12 12 12 12 12 12 12 12 12 12 12 12 12 12 12 12 12 12 12 12 12 12 12 12 12 12 12 12 12 12 12 12 
				</DataArray>
			</Cells>
			<PointData>
				<DataArray type="Float32" Name="U" NumberOfComponents="3" ComponentName0="D1" ComponentName1="D2" ComponentName2="D3" format="ascii">
					 0.00000000E+00	 0.00000000E+00	 0.00000000E+00
					 0.00000000E+00	 0.00000000E+00	 0.00000000E+00
					 2.86895000E-03	 0.00000000E+00	-1.53973000E-04
					 3.18417000E-03	 0.00000000E+00	-4.66599000E-03
					 0.00000000E+00	 0.00000000E+00	 0.00000000E+00
					 0.00000000E+00	 0.00000000E+00	 0.00000000E+00
					 2.86895000E-03	 0.00000000E+00	-1.53973000E-04
					 3.18417000E-03	 0.00000000E+00	-4.66599000E-03
					 1.01332000E-02	 0.00000000E+00	-6.25771000E-04
					 9.74396000E-03	 0.00000000E+00	-8.74438000E-03
					 1.01332000E-02	 0.00000000E+00	-6.25771000E-04
					 9.74396000E-03	 0.00000000E+00	-8.74438000E-03
					 2.03315000E-02	 0.00000000E+00	-1.60910000E-03
					 1.93930000E-02	 0.00000000E+00	-1.23366000E-02
					 2.03315000E-02	 0.00000000E+00	-1.60910000E-03
					 1.93930000E-02	 0.00000000E+00	-1.23366000E-02
					 3.26763000E-02	 0.00000000E+00	-3.06068000E-03
					 3.12255000E-02	 0.00000000E+00	-1.55248000E-02
					 3.26763000E-02	 0.00000000E+00	-3.06068000E-03
					 3.12255000E-02	 0.00000000E+00	-1.55248000E-02
					 4.63507000E-02	 0.00000000E+00	-4.82864000E-03
					 4.45412000E-02	 0.00000000E+00	-1.82582000E-02
					 4.63507000E-02	 0.00000000E+00	-4.82864000E-03
					 4.45412000E-02	 0.00000000E+00	-1.82582000E-02
					 6.06340000E-02	 0.00000000E+00	-6.73134000E-03
					 5.86444000E-02	 0.00000000E+00	-2.04377000E-02
					 6.06340000E-02	 0.00000000E+00	-6.73134000E-03
					 5.86444000E-02	 0.00000000E+00	-2.04377000E-02
					 7.48603000E-02	 0.00000000E+00	-8.59829000E-03
					 7.28864000E-02	 0.00000000E+00	-2.19477000E-02
					 7.48603000E-02	 0.00000000E+00	-8.59829000E-03
					 7.28864000E-02	 0.00000000E+00	-2.19477000E-02
					 8.83717000E-02	 0.00000000E+00	-1.02843000E-02
					 8.65860000E-02	 0.00000000E+00	-2.26828000E-02
					 8.83717000E-02	 0.00000000E+00	-1.02843000E-02
					 8.65860000E-02	 0.00000000E+00	-2.26828000E-02
					 1.00547000E-01	 0.00000000E+00	-1.16734000E-02
					 9.90606000E-02	 0.00000000E+00	-2.26272000E-02
					 1.00547000E-01	 0.00000000E+00	-1.16734000E-02
					 9.90606000E-02	 0.00000000E+00	-2.26272000E-02
					 1.10915000E-01	 0.00000000E+00	-1.27043000E-02
					 1.09771000E-01	 0.00000000E+00	-2.18901000E-02
					 1.10915000E-01	 0.00000000E+00	-1.27043000E-02
					 1.09771000E-01	 0.00000000E+00	-2.18901000E-02
					 1.19247000E-01	 0.00000000E+00	-1.33947000E-02
					 1.18431000E-01	 0.00000000E+00	-2.06659000E-02
					 1.19247000E-01	 0.00000000E+00	-1.33947000E-02
					 1.18431000E-01	 0.00000000E+00	-2.06659000E-02
					 1.25525000E-01	 0.00000000E+00	-1.38144000E-02
					 1.24975000E-01	 0.00000000E+00	-1.91631000E-02
					 1.25525000E-01	 0.00000000E+00	-1.38144000E-02
					 1.24975000E-01	 0.00000000E+00	-1.91631000E-02
					 1.29831000E-01	 0.00000000E+00	-1.40442000E-02
					 1.29470000E-01	 0.00000000E+00	-1.75650000E-02
					 1.29831000E-01	 0.00000000E+00	-1.40442000E-02
					 1.29470000E-01	 0.00000000E+00	-1.75650000E-02
					 1.32311000E-01	 0.00000000E+00	-1.41597000E-02
					 1.32074000E-01	 0.00000000E+00	-1.60328000E-02
					 1.32311000E-01	 0.00000000E+00	-1.41597000E-02
					 1.32074000E-01	 0.00000000E+00	-1.60328000E-02
					 1.33197000E-01	 0.00000000E+00	-1.42193000E-02
					 1.33034000E-01	 0.00000000E+00	-1.47048000E-02
					 1.33197000E-01	 0.00000000E+00	-1.42193000E-02
					 1.33034000E-01	 0.00000000E+00	-1.47048000E-02
					 1.32817000E-01	 0.00000000E+00	-1.42594000E-02
					 1.32694000E-01	 0.00000000E+00	-1.36748000E-02
					 1.32817000E-01	 0.00000000E+00	-1.42594000E-02
					 1.32694000E-01	 0.00000000E+00	-1.36748000E-02
					 1.31543000E-01	 0.00000000E+00	-1.42940000E-02
					 1.31445000E-01	 0.00000000E+00	-1.29756000E-02
					 1.31543000E-01	 0.00000000E+00	-1.42940000E-02
					 1.31445000E-01	 0.00000000E+00	-1.29756000E-02
					 1.29736000E-01	 0.00000000E+00	-1.43284000E-02
					 1.29659000E-01	 0.00000000E+00	-1.25837000E-02
					 1.29736000E-01	 0.00000000E+00	-1.43284000E-02
					 1.29659000E-01	 0.00000000E+00	-1.25837000E-02
					 1.27698000E-01	 0.00000000E+00	-1.43606000E-02
					 1.27644000E-01	 0.00000000E+00	-1.24358000E-02
					 1.27698000E-01	 0.00000000E+00	-1.43606000E-02
					 1.27644000E-01	 0.00000000E+00	-1.24358000E-02
					 1.25670000E-01	 0.00000000E+00	-1.43810000E-02
					 1.25633000E-01	 0.00000000E+00	-1.24338000E-02
					 1.25670000E-01	 0.00000000E+00	-1.43810000E-02
					 1.25633000E-01	 0.00000000E+00	-1.24338000E-02
					 0.00000000E+00	 0.00000000E+00	 0.00000000E+00
					 3.84587000E-03	 0.00000000E+00	 4.25017000E-03
					 0.00000000E+00	 0.00000000E+00	 0.00000000E+00
					 3.84587000E-03	 0.00000000E+00	 4.25017000E-03
					 1.12735000E-02	 0.00000000E+00	 7.29057000E-03
					 1.12735000E-02	 0.00000000E+00	 7.29057000E-03
					 2.18399000E-02	 0.00000000E+00	 8.93253000E-03
					 2.18399000E-02	 0.00000000E+00	 8.93253000E-03
					 3.44921000E-02	 0.00000000E+00	 9.28491000E-03
					 3.44921000E-02	 0.00000000E+00	 9.28491000E-03
					 4.83481000E-02	 0.00000000E+00	 8.55001000E-03
					 4.83481000E-02	 0.00000000E+00	 8.55001000E-03
					 6.26515000E-02	 0.00000000E+00	 6.97359000E-03
					 6.26515000E-02	 0.00000000E+00	 6.97359000E-03
					 7.66965000E-02	 0.00000000E+00	 4.78887000E-03
					 7.66965000E-02	 0.00000000E+00	 4.78887000E-03
					 8.98817000E-02	 0.00000000E+00	 2.18685000E-03
					 8.98817000E-02	 0.00000000E+00	 2.18685000E-03
					 1.01648000E-01	 0.00000000E+00	-6.28649000E-04
					 1.01648000E-01	 0.00000000E+00	-6.28649000E-04
					 1.11619000E-01	 0.00000000E+00	-3.44247000E-03
					 1.11619000E-01	 0.00000000E+00	-3.44247000E-03
					 1.19598000E-01	 0.00000000E+00	-6.06918000E-03
					 1.19598000E-01	 0.00000000E+00	-6.06918000E-03
					 1.25627000E-01	 0.00000000E+00	-8.42995000E-03
					 1.25627000E-01	 0.00000000E+00	-8.42995000E-03
					 1.29777000E-01	 0.00000000E+00	-1.05038000E-02
					 1.29777000E-01	 0.00000000E+00	-1.05038000E-02
					 1.32199000E-01	 0.00000000E+00	-1.22818000E-02
					 1.32199000E-01	 0.00000000E+00	-1.22818000E-02
					 1.33078000E-01	 0.00000000E+00	-1.37373000E-02
					 1.33078000E-01	 0.00000000E+00	-1.37373000E-02
					 1.32742000E-01	 0.00000000E+00	-1.48489000E-02
					 1.32742000E-01	 0.00000000E+00	-1.48489000E-02
					 1.31523000E-01	 0.00000000E+00	-1.56182000E-02
					 1.31523000E-01	 0.00000000E+00	-1.56182000E-02
					 1.29768000E-01	 0.00000000E+00	-1.60818000E-02
					 1.29768000E-01	 0.00000000E+00	-1.60818000E-02
					 1.27751000E-01	 0.00000000E+00	-1.63015000E-02
					 1.27751000E-01	 0.00000000E+00	-1.63015000E-02
					 1.25714000E-01	 0.00000000E+00	-1.63697000E-02
					 1.25714000E-01	 0.00000000E+00	-1.63697000E-02
				</DataArray>
				<DataArray type="Float32" Name="S" NumberOfComponents="10" ComponentName0="xx" ComponentName1="yy" ComponentName2="zz" ComponentName3="xy" ComponentName4="yz" ComponentName5="zx" ComponentName6="Mises" ComponentName7="Min Principal" ComponentName8="Mid Principal" ComponentName9="Max Principal" format="ascii">
					-2.87494000E+03	-3.19317000E+03	-1.09031000E+04	 0.00000000E+00	 0.00000000E+00	 2.46528000E+03	 8.95715571E+03	-1.15996934E+04	-3.19317000E+03	-2.17834662E+03
					 2.03957000E+02	-4.74701000E+01	-6.10841000E+02	 0.00000000E+00	 0.00000000E+00	 2.82499000E+03	 4.94610499E+03	-3.05765686E+03	-4.74701000E+01	 2.65077286E+03
					-6.55412000E+01	-9.47427000E+01	-5.61175000E+02	 1.18965000E-08	-1.53834000E-08	 5.70362000E+02	 1.09907724E+03	-9.35231099E+02	-9.47427000E+01	 3.08514899E+02
					-1.22993000E+03	-2.44287000E+03	-9.53539000E+03	-1.29308000E-08	-2.84148000E-08	-5.93280000E+01	 7.77099891E+03	-9.53581377E+03	-2.44287000E+03	-1.22950623E+03
					-2.87494000E+03	-3.19317000E+03	-1.09031000E+04	 0.00000000E+00	 0.00000000E+00	 2.46528000E+03	 8.95715571E+03	-1.15996934E+04	-3.19317000E+03	-2.17834662E+03
					 2.03957000E+02	-4.74701000E+01	-6.10841000E+02	 0.00000000E+00	 0.00000000E+00	 2.82499000E+03	 4.94610499E+03	-3.05765686E+03	-4.74701000E+01	 2.65077286E+03
					-6.55412000E+01	-9.47427000E+01	-5.61175000E+02	 1.18967000E-08	-1.53833000E-08	 5.70362000E+02	 1.09907724E+03	-9.35231099E+02	-9.47427000E+01	 3.08514899E+02
					-1.22993000E+03	-2.44287000E+03	-9.53539000E+03	-1.29308000E-08	-2.84148000E-08	-5.93280000E+01	 7.77099891E+03	-9.53581377E+03	-2.44287000E+03	-1.22950623E+03
					 4.22282000E+01	-3.68711000E+01	-3.46249000E+02	 6.58977000E-08	-2.82770000E-08	 6.72677000E+02	 1.21816501E+03	-8.52169653E+02	-3.68711000E+01	 5.48148853E+02
					-1.32065000E+03	-1.93810000E+03	-7.49361000E+03	 1.89859000E-08	-4.80504000E-08	-5.21117000E+02	 5.95733785E+03	-7.53729321E+03	-1.93810000E+03	-1.27696679E+03
					 4.22282000E+01	-3.68711000E+01	-3.46249000E+02	 6.58975000E-08	-2.82770000E-08	 6.72677000E+02	 1.21816501E+03	-8.52169653E+02	-3.68711000E+01	 5.48148853E+02
					-1.32065000E+03	-1.93810000E+03	-7.49361000E+03	 1.89863000E-08	-4.80503000E-08	-5.21117000E+02	 5.95733785E+03	-7.53729321E+03	-1.93810000E+03	-1.27696679E+03
					 1.66807000E+02	 1.01061000E+00	-2.14824000E+02	 5.27780000E-08	-3.25904000E-08	 5.98693000E+02	 1.08864941E+03	-6.52374527E+02	 1.01061000E+00	 6.04357527E+02
					-8.20885000E+02	-1.31265000E+03	-5.31582000E+03	 6.23724000E-08	-2.95276000E-08	-4.80845000E+02	 4.35079964E+03	-5.36668278E+03	-1.31265000E+03	-7.70022220E+02
					 1.66807000E+02	 1.01061000E+00	-2.14824000E+02	 5.27788000E-08	-3.25904000E-08	 5.98693000E+02	 1.08864941E+03	-6.52374527E+02	 1.01061000E+00	 6.04357527E+02
					-8.20885000E+02	-1.31265000E+03	-5.31582000E+03	 6.23728000E-08	-2.95272000E-08	-4.80845000E+02	 4.35079964E+03	-5.36668278E+03	-1.31265000E+03	-7.70022220E+02
					 2.21096000E+02	 3.00740000E+01	-8.71170000E+01	 6.00210000E-08	-7.57530000E-09	 5.80472000E+02	 1.04089021E+03	-5.33590683E+02	 3.00740000E+01	 6.67569683E+02
					-4.73637000E+02	-7.95947000E+02	-3.33890000E+03	 2.92979000E-08	-1.88196000E-08	-2.59411000E+02	 2.75535752E+03	-3.36219675E+03	-7.95947000E+02	-4.50340246E+02
					 2.21096000E+02	 3.00740000E+01	-8.71170000E+01	 6.00213000E-08	-7.57530000E-09	 5.80472000E+02	 1.04089021E+03	-5.33590683E+02	 3.00740000E+01	 6.67569683E+02
					-4.73637000E+02	-7.95947000E+02	-3.33890000E+03	 2.92989000E-08	-1.88189000E-08	-2.59411000E+02	 2.75535752E+03	-3.36219675E+03	-7.95947000E+02	-4.50340246E+02
					 2.37669000E+02	 5.50977000E+01	 4.20447000E+01	 8.81323000E-08	 1.98880000E-09	 5.70381000E+02	 1.00592704E+03	-4.38850072E+02	 5.50977000E+01	 7.18563772E+02
					-1.18828000E+02	-3.30170000E+02	-1.49162000E+03	 9.11917000E-08	-2.39002000E-08	 9.51055000E+01	 1.29082527E+03	-1.49817748E+03	-3.30170000E+02	-1.12270520E+02
					 2.37669000E+02	 5.50977000E+01	 4.20447000E+01	 8.81341000E-08	 1.98888000E-09	 5.70381000E+02	 1.00592704E+03	-4.38850072E+02	 5.50977000E+01	 7.18563772E+02
					-1.18828000E+02	-3.30170000E+02	-1.49162000E+03	 9.11906000E-08	-2.39006000E-08	 9.51055000E+01	 1.29082527E+03	-1.49817748E+03	-3.30170000E+02	-1.12270520E+02
					 2.08046000E+02	 6.50155000E+01	 1.27439000E+02	 9.63858000E-08	-2.85014000E-08	 5.62278000E+02	 9.81781850E+02	-3.95978106E+02	 6.50155000E+01	 7.31463106E+02
					 2.05381000E+02	 8.33688000E+01	 2.31600000E+02	 1.00731000E-07	-1.97968000E-08	 4.92583000E+02	 8.64110807E+02	-2.74266916E+02	 8.33688000E+01	 7.11247916E+02
					 2.08046000E+02	 6.50155000E+01	 1.27439000E+02	 9.63870000E-08	-2.85019000E-08	 5.62278000E+02	 9.81781850E+02	-3.95978106E+02	 6.50155000E+01	 7.31463106E+02
					 2.05381000E+02	 8.33688000E+01	 2.31600000E+02	 1.00729000E-07	-1.97964000E-08	 4.92583000E+02	 8.64110807E+02	-2.74266916E+02	 8.33688000E+01	 7.11247916E+02
					 1.83414000E+02	 6.53323000E+01	 1.47414000E+02	 1.04302000E-07	-4.20586000E-08	 5.15800000E+02	 8.99520576E+02	-3.50699980E+02	 6.53323000E+01	 6.81527980E+02
					 5.01550000E+02	 4.53513000E+02	 1.84353000E+03	 1.19316000E-07	-8.74868000E-09	 8.48435000E+02	 2.00679058E+03	 9.08424779E+01	 4.53513000E+02	 2.25423752E+03
					 1.83414000E+02	 6.53323000E+01	 1.47414000E+02	 1.04302000E-07	-4.20588000E-08	 5.15800000E+02	 8.99520576E+02	-3.50699980E+02	 6.53323000E+01	 6.81527980E+02
					 5.01550000E+02	 4.53513000E+02	 1.84353000E+03	 1.19314000E-07	-8.74849000E-09	 8.48435000E+02	 2.00679058E+03	 9.08424779E+01	 4.53513000E+02	 2.25423752E+03
					 1.18227000E+02	 4.37001000E+01	 9.03163000E+01	 7.30359000E-08	-2.54870000E-08	 4.15660000E+02	 7.22892022E+02	-3.11622552E+02	 4.37001000E+01	 5.20165852E+02
					 7.05788000E+02	 7.57388000E+02	 3.25789000E+03	 8.53408000E-08	 2.52075000E-08	 1.06793000E+03	 3.13139301E+03	 3.17873664E+02	 7.57388000E+02	 3.64580434E+03
					 1.18227000E+02	 4.37001000E+01	 9.03163000E+01	 7.30323000E-08	-2.54875000E-08	 4.15660000E+02	 7.22892022E+02	-3.11622552E+02	 4.37001000E+01	 5.20165852E+02
					 7.05788000E+02	 7.57388000E+02	 3.25789000E+03	 8.53432000E-08	 2.52083000E-08	 1.06793000E+03	 3.13139301E+03	 3.17873664E+02	 7.57388000E+02	 3.64580434E+03
					 2.41165000E+01	 1.05525000E+01	 2.97976000E+00	-1.65141000E-08	 5.30180000E-09	 2.70730000E+02	 4.69284822E+02	-2.57388068E+02	 1.05525000E+01	 2.84484328E+02
					 7.68418000E+02	 9.62998000E+02	 4.31737000E+03	-1.15374000E-08	 4.31352000E-08	 1.08845000E+03	 3.93656409E+03	 4.61190737E+02	 9.62998000E+02	 4.62459726E+03
					 2.41165000E+01	 1.05525000E+01	 2.97976000E+00	-1.65099000E-08	 5.30177000E-09	 2.70730000E+02	 4.69284822E+02	-2.57388068E+02	 1.05525000E+01	 2.84484328E+02
					 7.68418000E+02	 9.62998000E+02	 4.31737000E+03	-1.15457000E-08	 4.31352000E-08	 1.08845000E+03	 3.93656409E+03	 4.61190737E+02	 9.62998000E+02	 4.62459726E+03
					-7.13698000E+01	-2.22283000E+01	-7.79988000E+01	-4.72617000E-08	 2.40304000E-09	 1.20236000E+02	 2.14836395E+02	-1.94965976E+02	-2.22283000E+01	 4.55973761E+01
					 7.35046000E+02	 1.06771000E+03	 4.92761000E+03	-2.81519000E-08	 3.03500000E-08	 9.30140000E+02	 4.34615052E+03	 5.37955234E+02	 1.06771000E+03	 5.12470077E+03
					-7.13698000E+01	-2.22283000E+01	-7.79988000E+01	-4.72599000E-08	 2.40290000E-09	 1.20236000E+02	 2.14836395E+02	-1.94965976E+02	-2.22283000E+01	 4.55973761E+01
					 7.35046000E+02	 1.06771000E+03	 4.92761000E+03	-2.81515000E-08	 3.03500000E-08	 9.30140000E+02	 4.34615052E+03	 5.37955234E+02	 1.06771000E+03	 5.12470077E+03
					-9.62289000E+01	-3.69270000E+01	-1.32643000E+02	-4.50162000E-08	-4.67314000E-09	-2.54031000E+00	 8.37943128E+01	-1.32819362E+02	-9.60525378E+01	-3.69270000E+01
					 6.79237000E+02	 1.09180000E+03	 5.11035000E+03	-7.00222000E-08	 3.06403000E-08	 6.79760000E+02	 4.40034980E+03	 5.77302559E+02	 1.09180000E+03	 5.21228444E+03
					-9.62289000E+01	-3.69270000E+01	-1.32643000E+02	-4.50197000E-08	-4.67313000E-09	-2.54031000E+00	 8.37943128E+01	-1.32819362E+02	-9.60525378E+01	-3.69270000E+01
					 6.79237000E+02	 1.09180000E+03	 5.11035000E+03	-7.00176000E-08	 3.06412000E-08	 6.79760000E+02	 4.40034980E+03	 5.77302559E+02	 1.09180000E+03	 5.21228444E+03
					-1.06577000E+02	-4.75714000E+01	-1.74121000E+02	-6.25989000E-08	 1.73895000E-08	-8.27294000E+01	 1.80448851E+02	-2.29706158E+02	-5.09918424E+01	-4.75714000E+01
					 6.10704000E+02	 1.05258000E+03	 4.95460000E+03	-7.26356000E-08	 2.52682000E-08	 4.15677000E+02	 4.20280687E+03	 5.71284667E+02	 1.05258000E+03	 4.99401933E+03
					-1.06577000E+02	-4.75714000E+01	-1.74121000E+02	-6.25981000E-08	 1.73901000E-08	-8.27294000E+01	 1.80448851E+02	-2.29706158E+02	-5.09918424E+01	-4.75714000E+01
					 6.10704000E+02	 1.05258000E+03	 4.95460000E+03	-7.26391000E-08	 2.52683000E-08	 4.15677000E+02	 4.20280687E+03	 5.71284667E+02	 1.05258000E+03	 4.99401933E+03
					-1.01274000E+02	-5.19971000E+01	-1.94654000E+02	-6.37167000E-08	 2.82560000E-08	-1.43015000E+02	 2.77685766E+02	-2.98407499E+02	-5.19971000E+01	 2.47949878E+00
					 5.33583000E+02	 9.64853000E+02	 4.54330000E+03	-6.59300000E-08	-6.49395000E-09	 1.72329000E+02	 3.82408753E+03	 5.26190301E+02	 9.64853000E+02	 4.55069270E+03
					-1.01274000E+02	-5.19971000E+01	-1.94654000E+02	-6.37171000E-08	 2.82561000E-08	-1.43015000E+02	 2.77685766E+02	-2.98407499E+02	-5.19971000E+01	 2.47949878E+00
					 5.33583000E+02	 9.64853000E+02	 4.54330000E+03	-6.59237000E-08	-6.49370000E-09	 1.72329000E+02	 3.82408753E+03	 5.26190301E+02	 9.64853000E+02	 4.55069270E+03
					-1.00913000E+02	-5.36492000E+01	-1.93997000E+02	-2.41649000E-09	 1.53184000E-08	-1.94758000E+02	 3.59291020E+02	-3.47696944E+02	-5.36492000E+01	 5.27869445E+01
					 4.53539000E+02	 8.37134000E+02	 3.92222000E+03	-3.14628000E-09	-4.44999000E-08	-3.04075000E+01	 3.29410051E+03	 4.53272459E+02	 8.37134000E+02	 3.92248654E+03
					-1.00913000E+02	-5.36492000E+01	-1.93997000E+02	-2.41911000E-09	 1.53189000E-08	-1.94758000E+02	 3.59291020E+02	-3.47696944E+02	-5.36492000E+01	 5.27869445E+01
					 4.53539000E+02	 8.37134000E+02	 3.92222000E+03	-3.14231000E-09	-4.45009000E-08	-3.04075000E+01	 3.29410051E+03	 4.53272459E+02	 8.37134000E+02	 3.92248654E+03
					-7.33955000E+01	-4.36367000E+01	-1.61915000E+02	 1.16799000E-07	 6.47173000E-09	-2.30977000E+02	 4.14012857E+02	-3.52834543E+02	-4.36367000E+01	 1.17524043E+02
					 3.69073000E+02	 6.77410000E+02	 3.14284000E+03	 1.12144000E-07	-3.66652000E-08	-1.68100000E+02	 2.64922119E+03	 3.58922695E+02	 6.77410000E+02	 3.15299031E+03
					-7.33955000E+01	-4.36367000E+01	-1.61915000E+02	 1.16799000E-07	 6.47199000E-09	-2.30977000E+02	 4.14012857E+02	-3.52834543E+02	-4.36367000E+01	 1.17524043E+02
					 3.69073000E+02	 6.77410000E+02	 3.14284000E+03	 1.12148000E-07	-3.66669000E-08	-1.68100000E+02	 2.64922119E+03	 3.58922695E+02	 6.77410000E+02	 3.15299031E+03
					-6.02887000E+01	-3.28778000E+01	-1.13240000E+02	 1.50741000E-07	-4.42911000E-09	-2.39135000E+02	 4.20194342E+02	-3.27360502E+02	-3.28778000E+01	 1.53831802E+02
					 2.75357000E+02	 4.99727000E+02	 2.29236000E+03	 1.47480000E-07	 2.40777000E-08	-2.27084000E+02	 1.95468398E+03	 2.50106877E+02	 4.99727000E+02	 2.31761012E+03
					-6.02887000E+01	-3.28778000E+01	-1.13240000E+02	 1.50744000E-07	-4.42935000E-09	-2.39135000E+02	 4.20194342E+02	-3.27360502E+02	-3.28778000E+01	 1.53831802E+02
					 2.75357000E+02	 4.99727000E+02	 2.29236000E+03	 1.47474000E-07	 2.40776000E-08	-2.27084000E+02	 1.95468398E+03	 2.50106877E+02	 4.99727000E+02	 2.31761012E+03
					-4.92717000E+01	-2.12202000E+01	-6.04767000E+01	 8.74605000E-08	 3.73863000E-09	-2.18953000E+02	 3.80851683E+02	-2.73898866E+02	-2.12202000E+01	 1.64150466E+02
					 1.76982000E+02	 3.24211000E+02	 1.47457000E+03	 4.87601000E-08	 5.90149000E-08	-2.20121000E+02	 1.28830438E+03	 1.40657828E+02	 3.24211000E+02	 1.51089417E+03
					-4.92717000E+01	-2.12202000E+01	-6.04767000E+01	 8.74589000E-08	 3.73880000E-09	-2.18953000E+02	 3.80851683E+02	-2.73898866E+02	-2.12202000E+01	 1.64150466E+02
					 1.76982000E+02	 3.24211000E+02	 1.47457000E+03	 4.87620000E-08	 5.90142000E-08	-2.20121000E+02	 1.28830438E+03	 1.40657828E+02	 3.24211000E+02	 1.51089417E+03
					-4.76130000E+01	-1.33840000E+01	-2.01461000E+01	 2.20532000E-08	 1.50525000E-08	-1.73883000E+02	 3.02806512E+02	-2.08304048E+02	-1.33840000E+01	 1.40544948E+02
					 9.11374000E+01	 1.72397000E+02	 7.80531000E+02	 4.10994000E-09	 6.08397000E-08	-1.69701000E+02	 7.15710904E+02	 5.16281181E+01	 1.72397000E+02	 8.20040282E+02
					-4.76130000E+01	-1.33840000E+01	-2.01461000E+01	 2.20555000E-08	 1.50519000E-08	-1.73883000E+02	 3.02806512E+02	-2.08304048E+02	-1.33840000E+01	 1.40544948E+02
					 9.11374000E+01	 1.72397000E+02	 7.80531000E+02	 4.10577000E-09	 6.08406000E-08	-1.69701000E+02	 7.15710904E+02	 5.16281181E+01	 1.72397000E+02	 8.20040282E+02
					-2.50337000E+01	-7.60689000E-01	 2.12317000E+01	-1.89837000E-08	-2.32658000E-09	-1.01322000E+02	 1.80014191E+02	-1.05830156E+02	-7.60689000E-01	 1.02028156E+02
					 3.69378000E+01	 6.50994000E+01	 2.90336000E+02	-1.57912000E-08	 6.82699000E-08	-9.36780000E+01	 2.90162589E+02	 6.06713886E+00	 6.50994000E+01	 3.21206661E+02
					-2.50337000E+01	-7.60689000E-01	 2.12317000E+01	-1.89795000E-08	-2.32631000E-09	-1.01322000E+02	 1.80014191E+02	-1.05830156E+02	-7.60689000E-01	 1.02028156E+02
					 3.69378000E+01	 6.50994000E+01	 2.90336000E+02	-1.57931000E-08	 6.82696000E-08	-9.36780000E+01	 2.90162589E+02	 6.06713886E+00	 6.50994000E+01	 3.21206661E+02
					 1.30125000E+01	 1.24058000E+01	 4.91848000E+01	-4.33049000E-08	-1.56152000E-08	-6.17077000E+01	 1.12934803E+02	-3.32049196E+01	 1.24058000E+01	 9.54022196E+01
					 3.61766000E+01	 2.89614000E+01	 1.08960000E+02	-3.83360000E-08	 6.11712000E-08	-6.54640000E+01	 1.36862103E+02	-2.33090644E+00	 2.89614000E+01	 1.47467506E+02
					 1.30125000E+01	 1.24058000E+01	 4.91848000E+01	-4.33018000E-08	-1.56148000E-08	-6.17077000E+01	 1.12934803E+02	-3.32049196E+01	 1.24058000E+01	 9.54022196E+01
					 3.61766000E+01	 2.89614000E+01	 1.08960000E+02	-3.83347000E-08	 6.11714000E-08	-6.54640000E+01	 1.36862103E+02	-2.33090644E+00	 2.89614000E+01	 1.47467506E+02
					 3.34248000E+03	 2.81129000E+03	 1.27996000E+04	 0.00000000E+00	 0.00000000E+00	 4.69786000E+03	 1.26867046E+04	 1.40551915E+03	 2.81129000E+03	 1.47365609E+04
					 9.85704000E+02	 2.10549000E+03	 1.09027000E+04	 3.97393000E-08	 7.29655000E-09	 1.82219000E+03	 9.92254737E+03	 6.61486901E+02	 2.10549000E+03	 1.12269171E+04
					 3.34248000E+03	 2.81129000E+03	 1.27996000E+04	 0.00000000E+00	 0.00000000E+00	 4.69786000E+03	 1.26867046E+04	 1.40551915E+03	 2.81129000E+03	 1.47365609E+04