<?xml version="1.0"?>
<VTKFile type="UnstructuredGrid" version="0.1" byte_order="LittleEndian">
	<UnstructuredGrid>
		<Piece NumberOfPoints="126" NumberOfCells="40">
			<Points>
				<DataArray type="Float64" NumberOfComponents="3" format="ascii">
					 5.00000000E-02	 0.00000000E+00	 0.00000000E+00
					 0.00000000E+00	 0.00000000E+00	 0.00000000E+00
					 0.00000000E+00	 0.00000000E+00	 5.00000000E-02
					 5.00000000E-02	 0.00000000E+00	 5.00000000E-02
					 5.00000000E-02	 3.00000000E-01	 0.00000000E+00
					 0.00000000E+00	 3.00000000E-01	 0.00000000E+00
					 0.00000000E+00	 3.00000000E-01	 5.00000000E-02
					 5.00000000E-02	 3.00000000E-01	 5.00000000E-02
					 0.00000000E+00	 0.00000000E+00	 1.00000000E-01
					 5.00000000E-02	 0.00000000E+00	 1.00000000E-01
					 0.00000000E+00	 3.00000000E-01	 1.00000000E-01
					 5.00000000E-02	 3.00000000E-01	 1.00000000E-01
					 0.00000000E+00	 0.00000000E+00	 1.50000000E-01
					 5.00000000E-02	 0.00000000E+00	 1.50000000E-01
					 0.00000000E+00	 3.00000000E-01	 1.50000000E-01
					 5.00000000E-02	 3.00000000E-01	 1.50000000E-01
					 0.00000000E+00	 0.00000000E+00	 2.00000000E-01
					 5.00000000E-02	 0.00000000E+00	 2.00000000E-01
					 0.00000000E+00	 3.00000000E-01	 2.00000000E-01
					 5.00000000E-02	 3.00000000E-01	 2.00000000E-01
					 0.00000000E+00	 0.00000000E+00	 2.50000000E-01
					 5.00000000E-02	 0.00000000E+00	 2.50000000E-01
					 0.00000000E+00	 3.00000000E-01	 2.50000000E-01
					 5.00000000E-02	 3.00000000E-01	 2.50000000E-01
					 0.00000000E+00	 0.00000000E+00	 3.00000000E-01
					 5.00000000E-02	 0.00000000E+00	 3.00000000E-01
					 0.00000000E+00	 3.00000000E-01	 3.00000000E-01
					 5.00000000E-02	 3.00000000E-01	 3.00000000E-01
					 0.00000000E+00	 0.00000000E+00	 3.50000000E-01
					 5.00000000E-02	 0.00000000E+00	 3.50000000E-01
					 0.00000000E+00	 3.00000000E-01	 3.50000000E-01
					 5.00000000E-02	 3.00000000E-01	 3.50000000E-01
					 0.00000000E+00	 0.00000000E+00	 4.00000000E-01
					 5.00000000E-02	 0.00000000E+00	 4.00000000E-01
					 0.00000000E+00	 3.00000000E-01	 4.00000000E-01
					 5.00000000E-02	 3.00000000E-01	 4.00000000E-01
					 0.00000000E+00	 0.00000000E+00	 4.50000000E-01
					 5.00000000E-02	 0.00000000E+00	 4.50000000E-01
					 0.00000000E+00	 3.00000000E-01	 4.50000000E-01
					 5.00000000E-02	 3.00000000E-01	 4.50000000E-01
					 0.00000000E+00	 0.00000000E+00	 5.00000000E-01
					 5.00000000E-02	 0.00000000E+00	 5.00000000E-01
					 0.00000000E+00	 3.00000000E-01	 5.00000000E-01
					 5.00000000E-02	 3.00000000E-01	 5.00000000E-01
					 0.00000000E+00	 0.00000000E+00	 5.50000000E-01
					 5.00000000E-02	 0.00000000E+00	 5.50000000E-01
					 0.00000000E+00	 3.00000000E-01	 5.50000000E-01
					 5.00000000E-02	 3.00000000E-01	 5.50000000E-01
					 0.00000000E+00	 0.00000000E+00	 6.00000000E-01
					 5.00000000E-02	 0.00000000E+00	 6.00000000E-01
					 0.00000000E+00	 3.00000000E-01	 6.00000000E-01
					 5.00000000E-02	 3.00000000E-01	 6.00000000E-01
					 0.00000000E+00	 0.00000000E+00	 6.50000000E-01
					 5.00000000E-02	 0.00000000E+00	 6.50000000E-01
					 0.00000000E+00	 3.00000000E-01	 6.50000000E-01
					 5.00000000E-02	 3.00000000E-01	 6.50000000E-01
					 0.00000000E+00	 0.00000000E+00	 7.00000000E-01
					 5.00000000E-02	 0.00000000E+00	 7.00000000E-01
					 0.00000000E+00	 3.00000000E-01	 7.00000000E-01
					 5.00000000E-02	 3.00000000E-01	 7.00000000E-01
					 0.00000000E+00	 0.00000000E+00	 7.50000000E-01
					 5.00000000E-02	 0.00000000E+00	 7.50000000E-01
					 0.00000000E+00	 3.00000000E-01	 7.50000000E-01
					 5.00000000E-02	 3.00000000E-01	 7.50000000E-01
					 0.00000000E+00	 0.00000000E+00	 8.00000000E-01
					 5.00000000E-02	 0.00000000E+00	 8.00000000E-01
					 0.00000000E+00	 3.00000000E-01	 8.00000000E-01
					 5.00000000E-02	 3.00000000E-01	 8.00000000E-01
					 0.00000000E+00	 0.00000000E+00	 8.50000000E-01
					 5.00000000E-02	 0.00000000E+00	 8.50000000E-01
					 0.00000000E+00	 3.00000000E-01	 8.50000000E-01
					 5.00000000E-02	 3.00000000E-01	 8.50000000E-01
					 0.00000000E+00	 0.00000000E+00	 9.00000000E-01
					 5.00000000E-02	 0.00000000E+00	 9.00000000E-01
					 0.00000000E+00	 3.00000000E-01	 9.00000000E-01
					 5.00000000E-02	 3.00000000E-01	 9.00000000E-01
					 0.00000000E+00	 0.00000000E+00	 9.50000000E-01
					 5.00000000E-02	 0.00000000E+00	 9.50000000E-01
					 0.00000000E+00	 3.00000000E-01	 9.50000000E-01
					 5.00000000E-02	 3.00000000E-01	 9.50000000E-01
					 0.00000000E+00	 0.00000000E+00	 1.00000000E+00
					 5.00000000E-02	 0.00000000E+00	 1.00000000E+00
					 0.00000000E+00	 3.00000000E-01	 1.00000000E+00
					 5.00000000E-02	 3.00000000E-01	 1.00000000E+00
					-5.00000000E-02	 0.00000000E+00	 0.00000000E+00
					-5.00000000E-02	 0.00000000E+00	 5.00000000E-02
					-5.00000000E-02	 3.00000000E-01	 0.00000000E+00
					-5.00000000E-02	 3.00000000E-01	 5.00000000E-02
					-5.00000000E-02	 0.00000000E+00	 1.00000000E-01
					-5.00000000E-02	 3.00000000E-01	 1.00000000E-01
					-5.00000000E-02	 0.00000000E+00	 1.50000000E-01
					-5.00000000E-02	 3.00000000E-01	 1.50000000E-01
					-5.00000000E-02	 0.00000000E+00	 2.00000000E-01
					-5.00000000E-02	 3.00000000E-01	 2.00000000E-01
					-5.00000000E-02	 0.00000000E+00	 2.50000000E-01
					-5.00000000E-02	 3.00000000E-01	 2.50000000E-01
					-5.00000000E-02	 0.00000000E+00	 3.00000000E-01
					-5.00000000E-02	 3.00000000E-01	 3.00000000E-01
					-5.00000000E-02	 0.00000000E+00	 3.50000000E-01
					-5.00000000E-02	 3.00000000E-01	 3.50000000E-01
					-5.00000000E-02	 0.00000000E+00	 4.00000000E-01
					-5.00000000E-02	 3.00000000E-01	 4.00000000E-01
					-5.00000000E-02	 0.00000000E+00	 4.50000000E-01
					-5.00000000E-02	 3.00000000E-01	 4.50000000E-01
					-5.00000000E-02	 0.00000000E+00	 5.00000000E-01
					-5.00000000E-02	 3.00000000E-01	 5.00000000E-01
					-5.00000000E-02	 0.00000000E+00	 5.50000000E-01
					-5.00000000E-02	 3.00000000E-01	 5.50000000E-01
					-5.00000000E-02	 0.00000000E+00	 6.00000000E-01
					-5.00000000E-02	 3.00000000E-01	 6.00000000E-01
					-5.00000000E-02	 0.00000000E+00	 6.50000000E-01
					-5.00000000E-02	 3.00000000E-01	 6.50000000E-01
					-5.00000000E-02	 0.00000000E+00	 7.00000000E-01
					-5.00000000E-02	 3.00000000E-01	 7.00000000E-01
					-5.00000000E-02	 0.00000000E+00	 7.50000000E-01
					-5.00000000E-02	 3.00000000E-01	 7.50000000E-01
					-5.00000000E-02	 0.00000000E+00	 8.00000000E-01
					-5.00000000E-02	 3.00000000E-01	 8.00000000E-01
					-5.00000000E-02	 0.00000000E+00	 8.50000000E-01
					-5.00000000E-02	 3.00000000E-01	 8.50000000E-01
					-5.00000000E-02	 0.00000000E+00	 9.00000000E-01
					-5.00000000E-02	 3.00000000E-01	 9.00000000E-01
					-5.00000000E-02	 0.00000000E+00	 9.50000000E-01
					-5.00000000E-02	 3.00000000E-01	 9.50000000E-01
					-5.00000000E-02	 0.00000000E+00	 1.00000000E+00
					-5.00000000E-02	 3.00000000E-01	 1.00000000E+00

				</DataArray>
			</Points>
			<Cells>
				<DataArray type="Int32" Name="connectivity" format="ascii">
					0 1 2 3 4 5 6 7 3 2 8 9 7 6 10 11 9 8 12 13 11 10 14 15 13 12 16 17 15 14 18 19 17 16 20 21 19 18 22 23 21 20 24 25 23 22 26 27 25 24 28 29 27 26 30 31 29 28 32 33 31 30 34 35 33 32 36 37 35 34 38 39 37 36 40 41 39 38 42 43 41 40 44 45 43 42 46 47 45 44 48 49 47 46 50 51 49 48 52 53 51 50 54 55 53 52 56 57 55 54 58 59 57 56 60 61 59 58 62 63 61 60 64 65 63 62 66 67 65 64 68 69 67 66 70 71 69 68 72 73 71 70 74 75 73 72 76 77 75 74 78 79 77 76 80 81 79 78 82 83 1 84 85 2 5 86 87 6 2 85 88 8 6 87 89 10 8 88 90 12 10 89 91 14 12 90 92 16 14 91 93 18 16 92 94 20 18 93 95 22 20 94 96 24 22 95 97 26 24 96 98 28 26 97 99 30 28 98 100 32 30 99 101 34 32 100 102 36 34 101 103 38 36 102 104 40 38 103 105 42 40 104 106 44 42 105 107 46 44 106 108 48 46 107 109 50 48 108 110 52 50 109 111 54 52 110 112 56 54 111 113 58 56 112 114 60 58 113 115 62 60 114 116 64 62 115 117 66 64 116 118 68 66 117 119 70 68 118 120 72 70 119 121 74 72 120 122 76 74 121 123 78 76 122 124 80 78 123 125 82 
				</DataArray>
				<DataArray type="Int32" Name="offsets" format="ascii">
					8 16 24 32 40 48 56 64 72 80 88 96 104 112 120 128 136 144 152 160 168 176 184 192 200 208 216 224 232 240 248 256 264 272 280 288 296 304 312 320 
				</DataArray>
				<DataArray type="UInt8" Name="types" format="ascii">
					12 12 12 12 12 12 12 12 12 12 12 12 12 12 12 12 12 12 12 12 12 12 12 12 12 12 12 12 12 12 12 12 12 12 12 12 12 12 12 12 
				</DataArray>
			</Cells>
			<PointData>
				<DataArray type="Float32" Name="U" NumberOfComponents="3" ComponentName0="D1" ComponentName1="D2" ComponentName2="D3" format="ascii">
					 0.00000000E+00	 0.00000000E+00	 0.00000000E+00
					 0.00000000E+00	 0.00000000E+00	 0.00000000E+00
					 3.07809000E-03	 0.00000000E+00	-5.68188000E-04
					 3.49547000E-03	 0.00000000E+00	-6.73547000E-03
					 0.00000000E+00	 0.00000000E+00	 0.00000000E+00
					 0.00000000E+00	 0.00000000E+00	 0.00000000E+00
					 3.07809000E-03	 0.00000000E+00	-5.68188000E-04
					 3.49547000E-03	 0.00000000E+00	-6.73547000E-03
					 1.25900000E-02	 0.00000000E+00	-1.80708000E-03
					 1.17170000E-02	 0.00000000E+00	-1.36430000E-02
					 1.25900000E-02	 0.00000000E+00	-1.80708000E-03
					 1.17170000E-02	 0.00000000E+00	-1.36430000E-02
					 2.71768000E-02	 0.00000000E+00	-4.28556000E-03
					 2.48705000E-02	 0.00000000E+00	-2.09547000E-02
					 2.71768000E-02	 0.00000000E+00	-4.28556000E-03
					 2.48705000E-02	 0.00000000E+00	-2.09547000E-02
					 4.61260000E-02	 0.00000000E+00	-8.27145000E-03
					 4.21387000E-02	 0.00000000E+00	-2.89836000E-02
					 4.61260000E-02	 0.00000000E+00	-8.27145000E-03
					 4.21387000E-02	 0.00000000E+00	-2.89836000E-02
					 6.86768000E-02	 0.00000000E+00	-1.38454000E-02
					 6.29395000E-02	 0.00000000E+00	-3.79606000E-02
					 6.86768000E-02	 0.00000000E+00	-1.38454000E-02
					 6.29395000E-02	 0.00000000E+00	-3.79606000E-02
					 9.42943000E-02	 0.00000000E+00	-2.10503000E-02
					 8.67790000E-02	 0.00000000E+00	-4.80898000E-02
					 9.42943000E-02	 0.00000000E+00	-2.10503000E-02
					 8.67790000E-02	 0.00000000E+00	-4.80898000E-02
					 1.22603000E-01	 0.00000000E+00	-2.99315000E-02
					 1.13307000E-01	 0.00000000E+00	-5.95290000E-02
					 1.22603000E-01	 0.00000000E+00	-2.99315000E-02
					 1.13307000E-01	 0.00000000E+00	-5.95290000E-02
					 1.53291000E-01	 0.00000000E+00	-4.05161000E-02
					 1.42226000E-01	 0.00000000E+00	-7.23634000E-02
					 1.53291000E-01	 0.00000000E+00	-4.05161000E-02
					 1.42226000E-01	 0.00000000E+00	-7.23634000E-02
					 1.86070000E-01	 0.00000000E+00	-5.27979000E-02
					 1.73259000E-01	 0.00000000E+00	-8.66391000E-02
					 1.86070000E-01	 0.00000000E+00	-5.27979000E-02
					 1.73259000E-01	 0.00000000E+00	-8.66391000E-02
					 2.20706000E-01	 0.00000000E+00	-6.67714000E-02
					 2.06162000E-01	 0.00000000E+00	-1.02405000E-01
					 2.20706000E-01	 0.00000000E+00	-6.67714000E-02
					 2.06162000E-01	 0.00000000E+00	-1.02405000E-01
					 2.57045000E-01	 0.00000000E+00	-8.24624000E-02
					 2.40776000E-01	 0.00000000E+00	-1.19716000E-01
					 2.57045000E-01	 0.00000000E+00	-8.24624000E-02
					 2.40776000E-01	 0.00000000E+00	-1.19716000E-01
					 2.94958000E-01	 0.00000000E+00	-9.98894000E-02
					 2.77012000E-01	 0.00000000E+00	-1.38563000E-01
					 2.94958000E-01	 0.00000000E+00	-9.98894000E-02
					 2.77012000E-01	 0.00000000E+00	-1.38563000E-01
					 3.34254000E-01	 0.00000000E+00	-1.18966000E-01
					 3.14780000E-01	 0.00000000E+00	-1.58809000E-01
					 3.34254000E-01	 0.00000000E+00	-1.18966000E-01
					 3.14780000E-01	 0.00000000E+00	-1.58809000E-01
					 3.74658000E-01	 0.00000000E+00	-1.39458000E-01
					 3.53906000E-01	 0.00000000E+00	-1.80190000E-01
					 3.74658000E-01	 0.00000000E+00	-1.39458000E-01
					 3.53906000E-01	 0.00000000E+00	-1.80190000E-01
					 4.15864000E-01	 0.00000000E+00	-1.61039000E-01
					 3.94138000E-01	 0.00000000E+00	-2.02395000E-01
					 4.15864000E-01	 0.00000000E+00	-1.61039000E-01
					 3.94138000E-01	 0.00000000E+00	-2.02395000E-01
					 4.57605000E-01	 0.00000000E+00	-1.83382000E-01
					 4.35201000E-01	 0.00000000E+00	-2.25143000E-01
					 4.57605000E-01	 0.00000000E+00	-1.83382000E-01
					 4.35201000E-01	 0.00000000E+00	-2.25143000E-01
					 4.99660000E-01	 0.00000000E+00	-2.06197000E-01
					 4.76839000E-01	 0.00000000E+00	-2.48193000E-01
					 4.99660000E-01	 0.00000000E+00	-2.06197000E-01
					 4.76839000E-01	 0.00000000E+00	-2.48193000E-01
					 5.41860000E-01	 0.00000000E+00	-2.29252000E-01
					 5.18821000E-01	 0.00000000E+00	-2.71364000E-01
					 5.41860000E-01	 0.00000000E+00	-2.29252000E-01
					 5.18821000E-01	 0.00000000E+00	-2.71364000E-01
					 5.84096000E-01	 0.00000000E+00	-2.52391000E-01
					 5.60966000E-01	 0.00000000E+00	-2.94551000E-01
					 5.84096000E-01	 0.00000000E+00	-2.52391000E-01
					 5.60966000E-01	 0.00000000E+00	-2.94551000E-01
					 6.26316000E-01	 0.00000000E+00	-2.75535000E-01
					 6.03154000E-01	 0.00000000E+00	-3.17721000E-01
					 6.26316000E-01	 0.00000000E+00	-2.75535000E-01
					 6.03154000E-01	 0.00000000E+00	-3.17721000E-01
					 0.00000000E+00	 0.00000000E+00	 0.00000000E+00
					 4.48396000E-03	 0.00000000E+00	 5.42303000E-03
					 0.00000000E+00	 0.00000000E+00	 0.00000000E+00
					 4.48396000E-03	 0.00000000E+00	 5.42303000E-03
					 1.47232000E-02	 0.00000000E+00	 9.63777000E-03
					 1.47232000E-02	 0.00000000E+00	 9.63777000E-03
					 3.05936000E-02	 0.00000000E+00	 1.19059000E-02
					 3.05936000E-02	 0.00000000E+00	 1.19059000E-02
					 5.10396000E-02	 0.00000000E+00	 1.19665000E-02
					 5.10396000E-02	 0.00000000E+00	 1.19665000E-02
					 7.52090000E-02	 0.00000000E+00	 9.80749000E-03
					 7.52090000E-02	 0.00000000E+00	 9.80749000E-03
					 1.02504000E-01	 0.00000000E+00	 5.52754000E-03
					 1.02504000E-01	 0.00000000E+00	 5.52754000E-03
					 1.32505000E-01	 0.00000000E+00	-7.93569000E-04
					 1.32505000E-01	 0.00000000E+00	-7.93569000E-04
					 1.64890000E-01	 0.00000000E+00	-9.12326000E-03
					 1.64890000E-01	 0.00000000E+00	-9.12326000E-03
					 1.99356000E-01	 0.00000000E+00	-1.94039000E-02
					 1.99356000E-01	 0.00000000E+00	-1.94039000E-02
					 2.35681000E-01	 0.00000000E+00	-3.15831000E-02
					 2.35681000E-01	 0.00000000E+00	-3.15831000E-02
					 2.73698000E-01	 0.00000000E+00	-4.56462000E-02
					 2.73698000E-01	 0.00000000E+00	-4.56462000E-02
					 3.13232000E-01	 0.00000000E+00	-6.16287000E-02
					 3.13232000E-01	 0.00000000E+00	-6.16287000E-02
					 3.53989000E-01	 0.00000000E+00	-7.94840000E-02
					 3.53989000E-01	 0.00000000E+00	-7.94840000E-02
					 3.95602000E-01	 0.00000000E+00	-9.90151000E-02
					 3.95602000E-01	 0.00000000E+00	-9.90151000E-02
					 4.37723000E-01	 0.00000000E+00	-1.19890000E-01
					 4.37723000E-01	 0.00000000E+00	-1.19890000E-01
					 4.80093000E-01	 0.00000000E+00	-1.41758000E-01
					 4.80093000E-01	 0.00000000E+00	-1.41758000E-01
					 5.22528000E-01	 0.00000000E+00	-1.64282000E-01
					 5.22528000E-01	 0.00000000E+00	-1.64282000E-01
					 5.64919000E-01	 0.00000000E+00	-1.87180000E-01
					 5.64919000E-01	 0.00000000E+00	-1.87180000E-01
					 6.07228000E-01	 0.00000000E+00	-2.10250000E-01
					 6.07228000E-01	 0.00000000E+00	-2.10250000E-01
					 6.49459000E-01	 0.00000000E+00	-2.33372000E-01
					 6.49459000E-01	 0.00000000E+00	-2.33372000E-01
				</DataArray>
				<DataArray type="Float32" Name="S" NumberOfComponents="10" ComponentName0="xx" ComponentName1="yy" ComponentName2="zz" ComponentName3="xy" ComponentName4="yz" ComponentName5="zx" ComponentName6="Mises" ComponentName7="Min Principal" ComponentName8="Mid Principal" ComponentName9="Max Principal" format="ascii">
					-4.41534000E+03	-4.73646000E+03	-1.49168000E+04	 0.00000000E+00	 0.00000000E+00	 2.38703000E+03	 1.11402553E+04	-1.54339186E+04	-4.73646000E+03	-3.89822138E+03
					-8.50153000E+01	-3.15452000E+02	-2.01597000E+03	 0.00000000E+00	 0.00000000E+00	 2.93796000E+03	 5.40662105E+03	-4.14302486E+03	-3.15452000E+02	 2.04203956E+03
					-1.92600000E+02	-3.53303000E+02	-1.89501000E+03	 1.59754000E-08	-3.83399000E-08	 6.09266000E+01	 1.63143465E+03	-1.89718768E+03	-3.53303000E+02	-1.90422318E+02
					-2.12882000E+03	-3.87991000E+03	-1.37586000E+04	 1.80046000E-08	-2.57734000E-08	-9.68602000E+02	 1.09894439E+04	-1.38387194E+04	-3.87991000E+03	-2.04870062E+03
					-4.41534000E+03	-4.73646000E+03	-1.49168000E+04	 0.00000000E+00	 0.00000000E+00	 2.38703000E+03	 1.11402553E+04	-1.54339186E+04	-4.73646000E+03	-3.89822138E+03
					-8.50153000E+01	-3.15452000E+02	-2.01597000E+03	 0.00000000E+00	 0.00000000E+00	 2.93796000E+03	 5.40662105E+03	-4.14302486E+03	-3.15452000E+02	 2.04203956E+03
					-1.92600000E+02	-3.53303000E+02	-1.89501000E+03	 1.59756000E-08	-3.83398000E-08	 6.09266000E+01	 1.63143465E+03	-1.89718768E+03	-3.53303000E+02	-1.90422318E+02
					-2.12882000E+03	-3.87991000E+03	-1.37586000E+04	 1.80047000E-08	-2.57733000E-08	-9.68602000E+02	 1.09894439E+04	-1.38387194E+04	-3.87991000E+03	-2.04870062E+03
					-1.68259000E+02	-2.91200000E+02	-1.63917000E+03	 1.82673000E-08	-5.81545000E-08	 1.58066000E+02	 1.43972670E+03	-1.65596423E+03	-2.91200000E+02	-1.51464772E+02
					-2.80202000E+03	-3.62855000E+03	-1.23891000E+04	 2.06246000E-09	-3.58382000E-08	-2.13063000E+03	 9.91413123E+03	-1.28412830E+04	-3.62855000E+03	-2.34983699E+03
					-1.68259000E+02	-2.91200000E+02	-1.63917000E+03	 1.82671000E-08	-5.81545000E-08	 1.58066000E+02	 1.43972670E+03	-1.65596423E+03	-2.91200000E+02	-1.51464772E+02
					-2.80202000E+03	-3.62855000E+03	-1.23891000E+04	 2.06206000E-09	-3.58380000E-08	-2.13063000E+03	 9.91413123E+03	-1.28412830E+04	-3.62855000E+03	-2.34983699E+03
					-4.97104000E+01	-2.32370000E+02	-1.37605000E+03	-4.57099000E-08	-4.97058000E-08	 3.46460000E+01	 1.24654468E+03	-1.37695439E+03	-2.32370000E+02	-4.88060107E+01
					-2.69524000E+03	-3.07914000E+03	-1.05035000E+04	-3.47297000E-08	-3.63506000E-08	-2.68020000E+03	 8.92575647E+03	-1.13349484E+04	-3.07914000E+03	-1.86379157E+03
					-4.97104000E+01	-2.32370000E+02	-1.37605000E+03	-4.57095000E-08	-4.97057000E-08	 3.46460000E+01	 1.24654468E+03	-1.37695439E+03	-2.32370000E+02	-4.88060107E+01
					-2.69524000E+03	-3.07914000E+03	-1.05035000E+04	-3.47313000E-08	-3.63500000E-08	-2.68020000E+03	 8.92575647E+03	-1.13349484E+04	-3.07914000E+03	-1.86379157E+03
					-1.47514000E+01	-1.80760000E+02	-1.10063000E+03	-8.19806000E-08	-6.33351000E-08	-3.19576000E+01	 1.01463780E+03	-1.10156970E+03	-1.80760000E+02	-1.38116954E+01
					-2.81050000E+03	-2.64901000E+03	-8.79020000E+03	-7.09844000E-08	-7.06217000E-08	-2.95163000E+03	 7.93000075E+03	-1.00016977E+04	-2.64901000E+03	-1.59900228E+03
					-1.47514000E+01	-1.80760000E+02	-1.10063000E+03	-8.19799000E-08	-6.33353000E-08	-3.19576000E+01	 1.01463780E+03	-1.10156970E+03	-1.80760000E+02	-1.38116954E+01
					-2.81050000E+03	-2.64901000E+03	-8.79020000E+03	-7.09829000E-08	-7.06226000E-08	-2.95163000E+03	 7.93000075E+03	-1.00016977E+04	-2.64901000E+03	-1.59900228E+03
					-2.66658000E+01	-1.38207000E+02	-8.31935000E+02	-6.03302000E-08	-9.67489000E-08	-7.53958000E+01	 7.66898175E+02	-8.38933343E+02	-1.38207000E+02	-1.96674573E+01
					-2.92837000E+03	-2.30786000E+03	-7.35526000E+03	-4.22909000E-08	-8.35258000E-08	-3.02434000E+03	 7.08302298E+03	-8.88961051E+03	-2.30786000E+03	-1.39401949E+03
					-2.66658000E+01	-1.38207000E+02	-8.31935000E+02	-6.03298000E-08	-9.67490000E-08	-7.53958000E+01	 7.66898175E+02	-8.38933343E+02	-1.38207000E+02	-1.96674573E+01
					-2.92837000E+03	-2.30786000E+03	-7.35526000E+03	-4.22922000E-08	-8.35260000E-08	-3.02434000E+03	 7.08302298E+03	-8.88961051E+03	-2.30786000E+03	-1.39401949E+03
					-4.53352000E+01	-1.06767000E+02	-6.23514000E+02	-7.42801000E-08	-9.07856000E-08	-8.05145000E+01	 5.67444958E+02	-6.34516696E+02	-1.06767000E+02	-3.43325043E+01
					-3.05373000E+03	-2.05607000E+03	-6.22704000E+03	-6.74496000E-08	-6.45015000E-08	-2.99385000E+03	 6.41252834E+03	-8.02869017E+03	-2.05607000E+03	-1.25207983E+03
					-4.53352000E+01	-1.06767000E+02	-6.23514000E+02	-7.42785000E-08	-9.07857000E-08	-8.05145000E+01	 5.67444958E+02	-6.34516696E+02	-1.06767000E+02	-3.43325043E+01
					-3.05373000E+03	-2.05607000E+03	-6.22704000E+03	-6.74528000E-08	-6.45003000E-08	-2.99385000E+03	 6.41252834E+03	-8.02869017E+03	-2.05607000E+03	-1.25207983E+03
					-3.31894000E+01	-7.81332000E+01	-4.69969000E+02	-5.17023000E-08	-8.41958000E-08	-7.35963000E+01	 4.35218422E+02	-4.82036398E+02	-7.81332000E+01	-2.11220020E+01
					-3.14386000E+03	-1.85646000E+03	-5.32065000E+03	-5.94250000E-08	-7.41515000E-08	-2.90358000E+03	 5.87286500E+03	-7.33312270E+03	-1.85646000E+03	-1.13138730E+03
					-3.31894000E+01	-7.81332000E+01	-4.69969000E+02	-5.17043000E-08	-8.41952000E-08	-7.35963000E+01	 4.35218422E+02	-4.82036398E+02	-7.81332000E+01	-2.11220020E+01
					-3.14386000E+03	-1.85646000E+03	-5.32065000E+03	-5.94206000E-08	-7.41512000E-08	-2.90358000E+03	 5.87286500E+03	-7.33312270E+03	-1.85646000E+03	-1.13138730E+03
					-2.83469000E+01	-5.92655000E+01	-3.64609000E+02	-4.41013000E-08	-6.98858000E-08	-6.49209000E+01	 3.40992047E+02	-3.76707729E+02	-5.92655000E+01	-1.62481710E+01
					-3.21349000E+03	-1.69479000E+03	-4.57749000E+03	-4.80875000E-08	-6.67769000E-08	-2.78074000E+03	 5.42549512E+03	-6.75864193E+03	-1.69479000E+03	-1.03233807E+03
					-2.83469000E+01	-5.92655000E+01	-3.64609000E+02	-4.40984000E-08	-6.98872000E-08	-6.49209000E+01	 3.40992047E+02	-3.76707729E+02	-5.92655000E+01	-1.62481710E+01
					-3.21349000E+03	-1.69479000E+03	-4.57749000E+03	-4.80914000E-08	-6.67755000E-08	-2.78074000E+03	 5.42549512E+03	-6.75864193E+03	-1.69479000E+03	-1.03233807E+03
					-3.69225000E+01	-4.82837000E+01	-2.89096000E+02	-2.14030000E-08	-7.25102000E-08	-6.48047000E+01	 2.71024916E+02	-3.04774964E+02	-4.82837000E+01	-2.12435360E+01
					-3.29193000E+03	-1.57261000E+03	-3.98159000E+03	-3.28390000E-08	-7.81807000E-08	-2.65805000E+03	 5.08066214E+03	-6.31708415E+03	-1.57261000E+03	-9.56435853E+02
					-3.69225000E+01	-4.82837000E+01	-2.89096000E+02	-2.14066000E-08	-7.25072000E-08	-6.48047000E+01	 2.71024916E+02	-3.04774964E+02	-4.82837000E+01	-2.12435360E+01
					-3.29193000E+03	-1.57261000E+03	-3.98159000E+03	-3.28401000E-08	-7.81811000E-08	-2.65805000E+03	 5.08066214E+03	-6.31708415E+03	-1.57261000E+03	-9.56435853E+02
					-4.20814000E+01	-4.42380000E+01	-2.52448000E+02	-1.37562000E-08	-8.05858000E-08	-6.82894000E+01	 2.40406754E+02	-2.72671912E+02	-4.42380000E+01	-2.18574883E+01
					-3.37033000E+03	-1.48175000E+03	-3.51117000E+03	-6.49604000E-09	-9.63633000E-08	-2.54413000E+03	 4.82393515E+03	-5.98585441E+03	-1.48175000E+03	-8.95645595E+02
					-4.20814000E+01	-4.42380000E+01	-2.52448000E+02	-1.37516000E-08	-8.05862000E-08	-6.82894000E+01	 2.40406754E+02	-2.72671912E+02	-4.42380000E+01	-2.18574883E+01
					-3.37033000E+03	-1.48175000E+03	-3.51117000E+03	-6.49348000E-09	-9.63629000E-08	-2.54413000E+03	 4.82393515E+03	-5.98585441E+03	-1.48175000E+03	-8.95645595E+02
					 2.77031000E+00	-3.75140000E+01	-2.51519000E+02	-1.49924000E-08	-9.83874000E-08	-7.44169000E+01	 2.69547091E+02	-2.71695892E+02	-3.75140000E+01	 2.29472023E+01
					-3.36439000E+03	-1.38597000E+03	-3.09848000E+03	 1.03441000E-08	-9.78378000E-08	-2.39984000E+03	 4.55373124E+03	-5.63495514E+03	-1.38597000E+03	-8.27914861E+02
					 2.77031000E+00	-3.75140000E+01	-2.51519000E+02	-1.50019000E-08	-9.83919000E-08	-7.44169000E+01	 2.69547091E+02	-2.71695892E+02	-3.75140000E+01	 2.29472023E+01
					-3.36439000E+03	-1.38597000E+03	-3.09848000E+03	 1.03398000E-08	-9.78437000E-08	-2.39984000E+03	 4.55373124E+03	-5.63495514E+03	-1.38597000E+03	-8.27914861E+02
					 9.72119000E+01	-2.64198000E+01	-2.77050000E+02	-2.21346000E-08	-7.59894000E-08	-7.33408000E+01	 3.53868268E+02	-2.90908765E+02	-2.64198000E+01	 1.11070665E+02
					-3.16425000E+03	-1.24134000E+03	-2.66326000E+03	-1.12157000E-08	-5.49760000E-08	-2.16400000E+03	 4.12721494E+03	-5.09220485E+03	-1.24134000E+03	-7.35305151E+02
					 9.72119000E+01	-2.64198000E+01	-2.77050000E+02	-2.21514000E-08	-7.59854000E-08	-7.33408000E+01	 3.53868268E+02	-2.90908765E+02	-2.64198000E+01	 1.11070665E+02
					-3.16425000E+03	-1.24134000E+03	-2.66326000E+03	-1.12184000E-08	-5.49747000E-08	-2.16400000E+03	 4.12721494E+03	-5.09220485E+03	-1.24134000E+03	-7.35305151E+02
					 2.10456000E+02	-8.52668000E+00	-2.87080000E+02	-2.21807000E-08	-3.91148000E-08	-6.56399000E+01	 4.46620094E+02	-2.95594169E+02	-8.52668000E+00	 2.18970169E+02
					-2.72716000E+03	-1.03204000E+03	-2.16827000E+03	-2.22431000E-09	-1.10001000E-08	-1.81823000E+03	 3.48658647E+03	-4.28729371E+03	-1.03204000E+03	-6.08136287E+02
					 2.10456000E+02	-8.52668000E+00	-2.87080000E+02	-2.21807000E-08	-3.91121000E-08	-6.56399000E+01	 4.46620094E+02	-2.95594169E+02	-8.52668000E+00	 2.18970169E+02
					-2.72716000E+03	-1.03204000E+03	-2.16827000E+03	-2.21612000E-09	-1.09996000E-08	-1.81823000E+03	 3.48658647E+03	-4.28729371E+03	-1.03204000E+03	-6.08136287E+02
					 2.93874000E+02	 9.95844000E+00	-2.65022000E+02	-3.83159000E-08	 4.42136000E-09	-4.80835000E+01	 4.91151282E+02	-2.69128594E+02	 9.95844000E+00	 2.97980594E+02
					-2.12485000E+03	-7.85506000E+02	-1.64802000E+03	 1.31094000E-08	 3.80224000E-08	-1.40550000E+03	 2.70349044E+03	-3.31201276E+03	-7.85506000E+02	-4.60857236E+02
					 2.93874000E+02	 9.95844000E+00	-2.65022000E+02	-3.83134000E-08	 4.42095000E-09	-4.80835000E+01	 4.91151282E+02	-2.69128594E+02	 9.95844000E+00	 2.97980594E+02
					-2.12485000E+03	-7.85506000E+02	-1.64802000E+03	 1.30965000E-08	 3.80140000E-08	-1.40550000E+03	 2.70349044E+03	-3.31201276E+03	-7.85506000E+02	-4.60857236E+02
					 3.32604000E+02	 2.54218000E+01	-2.15957000E+02	-5.14850000E-08	 4.52193000E-08	-2.62323000E+01	 4.78368373E+02	-2.17208578E+02	 2.54218000E+01	 3.33855578E+02
					-1.48000000E+03	-5.43859000E+02	-1.16450000E+03	-2.58960000E-08	 8.22266000E-08	-9.93247000E+02	 1.90792205E+03	-2.32794611E+03	-5.43859000E+02	-3.16553890E+02
					 3.32604000E+02	 2.54218000E+01	-2.15957000E+02	-5.15192000E-08	 4.52327000E-08	-2.62323000E+01	 4.78368373E+02	-2.17208578E+02	 2.54218000E+01	 3.33855578E+02
					-1.48000000E+03	-5.43859000E+02	-1.16450000E+03	-2.58374000E-08	 8.22292000E-08	-9.93247000E+02	 1.90792205E+03	-2.32794611E+03	-5.43859000E+02	-3.16553890E+02
					 3.24134000E+02	 3.27794000E+01	-1.64157000E+02	-6.42800000E-08	 8.85243000E-08	-2.73585000E+00	 4.25525827E+02	-1.64172328E+02	 3.27794000E+01	 3.24149328E+02
					-8.95687000E+02	-3.36835000E+02	-7.59609000E+02	-3.78290000E-08	 1.09186000E-07	-6.29297000E+02	 1.20117836E+03	-1.46061247E+03	-3.36835000E+02	-1.94683530E+02
					 3.24134000E+02	 3.27794000E+01	-1.64157000E+02	-6.42632000E-08	 8.85233000E-08	-2.73585000E+00	 4.25525827E+02	-1.64172328E+02	 3.27794000E+01	 3.24149328E+02
					-8.95687000E+02	-3.36835000E+02	-7.59609000E+02	-3.78597000E-08	 1.09188000E-07	-6.29297000E+02	 1.20117836E+03	-1.46061247E+03	-3.36835000E+02	-1.94683530E+02
					 2.75965000E+02	 3.30825000E+01	-1.11420000E+02	-6.84469000E-08	 9.68943000E-08	 1.60001000E+01	 3.40202909E+02	-1.12079726E+02	 3.30825000E+01	 2.76624726E+02
					-4.40274000E+02	-1.78340000E+02	-4.43337000E+02	-5.28660000E-08	 1.01791000E-07	-3.40963000E+02	 6.46674886E+02	-7.82771939E+02	-1.78340000E+02	-1.00839061E+02
					 2.75965000E+02	 3.30825000E+01	-1.11420000E+02	-6.84456000E-08	 9.68888000E-08	 1.60001000E+01	 3.40202909E+02	-1.12079726E+02	 3.30825000E+01	 2.76624726E+02
					-4.40274000E+02	-1.78340000E+02	-4.43337000E+02	-5.28609000E-08	 1.01789000E-07	-3.40963000E+02	 6.46674886E+02	-7.82771939E+02	-1.78340000E+02	-1.00839061E+02
					 2.01908000E+02	 2.79981000E+01	-6.18033000E+01	-7.09718000E-08	 9.96818000E-08	 2.70342000E+01	 2.36894156E+02	-6.45461656E+01	 2.79981000E+01	 2.04650866E+02
					-1.48282000E+02	-7.31829000E+01	-2.16278000E+02	-6.45964000E-08	 9.23404000E-08	-1.43988000E+02	 2.78509249E+02	-3.30227315E+02	-7.31829000E+01	-3.43326846E+01
					 2.01908000E+02	 2.79981000E+01	-6.18033000E+01	-7.09760000E-08	 9.96870000E-08	 2.70342000E+01	 2.36894156E+02	-6.45461656E+01	 2.79981000E+01	 2.04650866E+02
					-1.48282000E+02	-7.31829000E+01	-2.16278000E+02	-6.45927000E-08	 9.23250000E-08	-1.43988000E+02	 2.78509249E+02	-3.30227315E+02	-7.31829000E+01	-3.43326846E+01
					 1.24439000E+02	 2.12183000E+01	-1.81621000E+01	-4.16649000E-08	 8.67466000E-08	 3.20782000E+01	 1.39130277E+02	-2.50458153E+01	 2.12183000E+01	 1.31322715E+02
					-2.08900000E+01	-2.10302000E+01	-8.41921000E+01	-7.49103000E-08	 7.53788000E-08	-3.77322000E+01	 9.09365565E+01	-1.01790496E+02	-2.10302000E+01	-3.29160449E+00
					 1.24439000E+02	 2.12183000E+01	-1.81621000E+01	-4.16904000E-08	 8.67471000E-08	 3.20782000E+01	 1.39130277E+02	-2.50458153E+01	 2.12183000E+01	 1.31322715E+02
					-2.08900000E+01	-2.10302000E+01	-8.41921000E+01	-7.49392000E-08	 7.53802000E-08	-3.77322000E+01	 9.09365565E+01	-1.01790496E+02	-2.10302000E+01	-3.29160449E+00
					 8.81423000E+01	 2.17019000E+01	 2.05040000E+01	-1.91518000E-09	 5.64589000E-08	 3.17249000E+01	 8.66877068E+01	 7.95285577E+00	 2.17019000E+01	 1.00693444E+02
					-2.45854000E+00	-3.24516000E+00	-1.38058000E+01	-6.42775000E-08	 1.75110000E-08	-5.57385000E+00	 1.46169939E+01	-1.60856523E+01	-3.24516000E+00	-1.78687668E-01
					 8.81423000E+01	 2.17019000E+01	 2.05040000E+01	-1.87539000E-09	 5.64672000E-08	 3.17249000E+01	 8.66877068E+01	 7.95285577E+00	 2.17019000E+01	 1.00693444E+02
					-2.45854000E+00	-3.24516000E+00	-1.38058000E+01	-6.42296000E-08	 1.75109000E-08	-5.57385000E+00	 1.46169939E+01	-1.60856523E+01	-3.24516000E+00	-1.78687668E-01
					 4.24450000E+03	 3.55497000E+03	 1.66467000E+04	 0.00000000E+00	 0.00000000E+00	 5.72919000E+03	 1.61651650E+04	 2.00301395E+03	 3.55497000E+03	 1.88881861E+04
					 1.56913000E+03	 2.86115000E+03	 1.51645000E+04	 1.66609000E-08	-1.96099000E-08	 2.40511000E+03	 1.36488671E+04	 1.15619259E+03	 2.86115000E+03	 1.55774374E+04
					 4.24450000E+03	 3.55497000E+03	 1.66467000E+04	 0.00000000E+00	 0.00000000E+00	 5.72919000E+03	 1.61651650E+04	 2.00301395E+03	 3.55497000E+03	 1.88881861E+04