<?xml version="1.0"?>
<VTKFile type="UnstructuredGrid" version="0.1" byte_order="LittleEndian">
	<UnstructuredGrid>
		<Piece NumberOfPoints="126" NumberOfCells="40">
			<Points>
				<DataArray type="Float64" NumberOfComponents="3" format="ascii">
					 5.00000000E-02	 0.00000000E+00	 0.00000000E+00
					 0.00000000E+00	 0.00000000E+00	 0.00000000E+00
					 0.00000000E+00	 0.00000000E+00	 5.00000000E-02
					 5.00000000E-02	 0.00000000E+00	 5.00000000E-02
					 5.00000000E-02	 3.00000000E-01	 0.00000000E+00
					 0.00000000E+00	 3.00000000E-01	 0.00000000E+00
					 0.00000000E+00	 3.00000000E-01	 5.00000000E-02
					 5.00000000E-02	 3.00000000E-01	 5.00000000E-02
					 0.00000000E+00	 0.00000000E+00	 1.00000000E-01
					 5.00000000E-02	 0.00000000E+00	 1.00000000E-01
					 0.00000000E+00	 3.00000000E-01	 1.00000000E-01
					 5.00000000E-02	 3.00000000E-01	 1.00000000E-01
					 0.00000000E+00	 0.00000000E+00	 1.50000000E-01
					 5.00000000E-02	 0.00000000E+00	 1.50000000E-01
					 0.00000000E+00	 3.00000000E-01	 1.50000000E-01
					 5.00000000E-02	 3.00000000E-01	 1.50000000E-01
					 0.00000000E+00	 0.00000000E+00	 2.00000000E-01
					 5.00000000E-02	 0.00000000E+00	 2.00000000E-01
					 0.00000000E+00	 3.00000000E-01	 2.00000000E-01
					 5.00000000E-02	 3.00000000E-01	 2.00000000E-01
					 0.00000000E+00	 0.00000000E+00	 2.50000000E-01
					 5.00000000E-02	 0.00000000E+00	 2.50000000E-01
					 0.00000000E+00	 3.00000000E-01	 2.50000000E-01
					 5.00000000E-02	 3.00000000E-01	 2.50000000E-01
					 0.00000000E+00	 0.00000000E+00	 3.00000000E-01
					 5.00000000E-02	 0.00000000E+00	 3.00000000E-01
					 0.00000000E+00	 3.00000000E-01	 3.00000000E-01
					 5.00000000E-02	 3.00000000E-01	 3.00000000E-01
					 0.00000000E+00	 0.00000000E+00	 3.50000000E-01
					 5.00000000E-02	 0.00000000E+00	 3.50000000E-01
					 0.00000000E+00	 3.00000000E-01	 3.50000000E-01
					 5.00000000E-02	 3.00000000E-01	 3.50000000E-01
					 0.00000000E+00	 0.00000000E+00	 4.00000000E-01
					 5.00000000E-02	 0.00000000E+00	 4.00000000E-01
					 0.00000000E+00	 3.00000000E-01	 4.00000000E-01
					 5.00000000E-02	 3.00000000E-01	 4.00000000E-01
					 0.00000000E+00	 0.00000000E+00	 4.50000000E-01
					 5.00000000E-02	 0.00000000E+00	 4.50000000E-01
					 0.00000000E+00	 3.00000000E-01	 4.50000000E-01
					 5.00000000E-02	 3.00000000E-01	 4.50000000E-01
					 0.00000000E+00	 0.00000000E+00	 5.00000000E-01
					 5.00000000E-02	 0.00000000E+00	 5.00000000E-01
					 0.00000000E+00	 3.00000000E-01	 5.00000000E-01
					 5.00000000E-02	 3.00000000E-01	 5.00000000E-01
					 0.00000000E+00	 0.00000000E+00	 5.50000000E-01
					 5.00000000E-02	 0.00000000E+00	 5.50000000E-01
					 0.00000000E+00	 3.00000000E-01	 5.50000000E-01
					 5.00000000E-02	 3.00000000E-01	 5.50000000E-01
					 0.00000000E+00	 0.00000000E+00	 6.00000000E-01
					 5.00000000E-02	 0.00000000E+00	 6.00000000E-01
					 0.00000000E+00	 3.00000000E-01	 6.00000000E-01
					 5.00000000E-02	 3.00000000E-01	 6.00000000E-01
					 0.00000000E+00	 0.00000000E+00	 6.50000000E-01
					 5.00000000E-02	 0.00000000E+00	 6.50000000E-01
					 0.00000000E+00	 3.00000000E-01	 6.50000000E-01
					 5.00000000E-02	 3.00000000E-01	 6.50000000E-01
					 0.00000000E+00	 0.00000000E+00	 7.00000000E-01
					 5.00000000E-02	 0.00000000E+00	 7.00000000E-01
					 0.00000000E+00	 3.00000000E-01	 7.00000000E-01
					 5.00000000E-02	 3.00000000E-01	 7.00000000E-01
					 0.00000000E+00	 0.00000000E+00	 7.50000000E-01
					 5.00000000E-02	 0.00000000E+00	 7.50000000E-01
					 0.00000000E+00	 3.00000000E-01	 7.50000000E-01
					 5.00000000E-02	 3.00000000E-01	 7.50000000E-01
					 0.00000000E+00	 0.00000000E+00	 8.00000000E-01
					 5.00000000E-02	 0.00000000E+00	 8.00000000E-01
					 0.00000000E+00	 3.00000000E-01	 8.00000000E-01
					 5.00000000E-02	 3.00000000E-01	 8.00000000E-01
					 0.00000000E+00	 0.00000000E+00	 8.50000000E-01
					 5.00000000E-02	 0.00000000E+00	 8.50000000E-01
					 0.00000000E+00	 3.00000000E-01	 8.50000000E-01
					 5.00000000E-02	 3.00000000E-01	 8.50000000E-01
					 0.00000000E+00	 0.00000000E+00	 9.00000000E-01
					 5.00000000E-02	 0.00000000E+00	 9.00000000E-01
					 0.00000000E+00	 3.00000000E-01	 9.00000000E-01
					 5.00000000E-02	 3.00000000E-01	 9.00000000E-01
					 0.00000000E+00	 0.00000000E+00	 9.50000000E-01
					 5.00000000E-02	 0.00000000E+00	 9.50000000E-01
					 0.00000000E+00	 3.00000000E-01	 9.50000000E-01
					 5.00000000E-02	 3.00000000E-01	 9.50000000E-01
					 0.00000000E+00	 0.00000000E+00	 1.00000000E+00
					 5.00000000E-02	 0.00000000E+00	 1.00000000E+00
					 0.00000000E+00	 3.00000000E-01	 1.00000000E+00
					 5.00000000E-02	 3.00000000E-01	 1.00000000E+00
					-5.00000000E-02	 0.00000000E+00	 0.00000000E+00
					-5.00000000E-02	 0.00000000E+00	 5.00000000E-02
					-5.00000000E-02	 3.00000000E-01	 0.00000000E+00
					-5.00000000E-02	 3.00000000E-01	 5.00000000E-02
					-5.00000000E-02	 0.00000000E+00	 1.00000000E-01
					-5.00000000E-02	 3.00000000E-01	 1.00000000E-01
					-5.00000000E-02	 0.00000000E+00	 1.50000000E-01
					-5.00000000E-02	 3.00000000E-01	 1.50000000E-01
					-5.00000000E-02	 0.00000000E+00	 2.00000000E-01
					-5.00000000E-02	 3.00000000E-01	 2.00000000E-01
					-5.00000000E-02	 0.00000000E+00	 2.50000000E-01
					-5.00000000E-02	 3.00000000E-01	 2.50000000E-01
					-5.00000000E-02	 0.00000000E+00	 3.00000000E-01
					-5.00000000E-02	 3.00000000E-01	 3.00000000E-01
					-5.00000000E-02	 0.00000000E+00	 3.50000000E-01
					-5.00000000E-02	 3.00000000E-01	 3.50000000E-01
					-5.00000000E-02	 0.00000000E+00	 4.00000000E-01
					-5.00000000E-02	 3.00000000E-01	 4.00000000E-01
					-5.00000000E-02	 0.00000000E+00	 4.50000000E-01
					-5.00000000E-02	 3.00000000E-01	 4.50000000E-01
					-5.00000000E-02	 0.00000000E+00	 5.00000000E-01
					-5.00000000E-02	 3.00000000E-01	 5.00000000E-01
					-5.00000000E-02	 0.00000000E+00	 5.50000000E-01
					-5.00000000E-02	 3.00000000E-01	 5.50000000E-01
					-5.00000000E-02	 0.00000000E+00	 6.00000000E-01
					-5.00000000E-02	 3.00000000E-01	 6.00000000E-01
					-5.00000000E-02	 0.00000000E+00	 6.50000000E-01
					-5.00000000E-02	 3.00000000E-01	 6.50000000E-01
					-5.00000000E-02	 0.00000000E+00	 7.00000000E-01
					-5.00000000E-02	 3.00000000E-01	 7.00000000E-01
					-5.00000000E-02	 0.00000000E+00	 7.50000000E-01
					-5.00000000E-02	 3.00000000E-01	 7.50000000E-01
					-5.00000000E-02	 0.00000000E+00	 8.00000000E-01
					-5.00000000E-02	 3.00000000E-01	 8.00000000E-01
					-5.00000000E-02	 0.00000000E+00	 8.50000000E-01
					-5.00000000E-02	 3.00000000E-01	 8.50000000E-01
					-5.00000000E-02	 0.00000000E+00	 9.00000000E-01
					-5.00000000E-02	 3.00000000E-01	 9.00000000E-01
					-5.00000000E-02	 0.00000000E+00	 9.50000000E-01
					-5.00000000E-02	 3.00000000E-01	 9.50000000E-01
					-5.00000000E-02	 0.00000000E+00	 1.00000000E+00
					-5.00000000E-02	 3.00000000E-01	 1.00000000E+00

				</DataArray>
			</Points>
			<Cells>
				<DataArray type="Int32" Name="connectivity" format="ascii">
					0 1 2 3 4 5 6 7 3 2 8 9 7 6 10 11 9 8 12 13 11 10 14 15 13 12 16 17 15 14 18 19 17 16 20 21 19 18 22 23 21 20 24 25 23 22 26 27 25 24 28 29 27 26 30 31 29 28 32 33 31 30 34 35 33 32 36 37 35 34 38 39 37 36 40 41 39 38 42 43 41 40 44 45 43 42 46 47 45 44 48 49 47 46 50 51 49 48 52 53 51 50 54 55 53 52 56 57 55 54 58 59 57 56 60 61 59 58 62 63 61 60 64 65 63 62 66 67 65 64 68 69 67 66 70 71 69 68 72 73 71 70 74 75 73 72 76 77 75 74 78 79 77 76 80 81 79 78 82 83 1 84 85 2 5 86 87 6 2 85 88 8 6 87 89 10 8 88 90 12 10 89 91 14 12 90 92 16 14 91 93 18 16 92 94 20 18 93 95 22 20 94 96 24 22 95 97 26 24 96 98 28 26 97 99 30 28 98 100 32 30 99 101 34 32 100 102 36 34 101 103 38 36 102 104 40 38 103 105 42 40 104 106 44 42 105 107 46 44 106 108 48 46 107 109 50 48 108 110 52 50 109 111 54 52 110 112 56 54 111 113 58 56 112 114 60 58 113 115 62 60 114 116 64 62 115 117 66 64 116 118 68 66 117 119 70 68 118 120 72 70 119 121 74 72 120 122 76 74 121 123 78 76 122 124 80 78 123 125 82 
				</DataArray>
				<DataArray type="Int32" Name="offsets" format="ascii">
					8 16 24 32 40 48 56 64 72 80 88 96 104 112 120 128 136 144 152 160 168 176 184 192 200 208 216 224 232 240 248 256 264 272 280 288 296 304 312 320 
				</DataArray>
				<DataArray type="UInt8" Name="types" format="ascii">
					12 12 12 12 12 12 12 12 12 12 12 12 12 12 12 12 12 12 12 12 12 12 12 12 12 12 12 12 12 12 12 12 12 12 12 12 12 12 12 12 
				</DataArray>
			</Cells>
			<PointData>
				<DataArray type="Float32" Name="U" NumberOfComponents="3" ComponentName0="D1" ComponentName1="D2" ComponentName2="D3" format="ascii">
					 0.00000000E+00	 0.00000000E+00	 0.00000000E+00
					 0.00000000E+00	 0.00000000E+00	 0.00000000E+00
					 3.67377000E-03	 0.00000000E+00	-7.29409000E-05
					 3.91405000E-03	 0.00000000E+00	-5.96706000E-03
					 0.00000000E+00	 0.00000000E+00	 0.00000000E+00
					 0.00000000E+00	 0.00000000E+00	 0.00000000E+00
					 3.67377000E-03	 0.00000000E+00	-7.29409000E-05
					 3.91405000E-03	 0.00000000E+00	-5.96706000E-03
					 1.31036000E-02	 0.00000000E+00	-6.50833000E-04
					 1.22194000E-02	 0.00000000E+00	-1.13916000E-02
					 1.31036000E-02	 0.00000000E+00	-6.50833000E-04
					 1.22194000E-02	 0.00000000E+00	-1.13916000E-02
					 2.64922000E-02	 0.00000000E+00	-2.11821000E-03
					 2.46034000E-02	 0.00000000E+00	-1.66069000E-02
					 2.64922000E-02	 0.00000000E+00	-2.11821000E-03
					 2.46034000E-02	 0.00000000E+00	-1.66069000E-02
					 4.30965000E-02	 0.00000000E+00	-4.54183000E-03
					 4.01344000E-02	 0.00000000E+00	-2.19978000E-02
					 4.30965000E-02	 0.00000000E+00	-4.54183000E-03
					 4.01344000E-02	 0.00000000E+00	-2.19978000E-02
					 6.22887000E-02	 0.00000000E+00	-7.90627000E-03
					 5.82987000E-02	 0.00000000E+00	-2.77797000E-02
					 6.22887000E-02	 0.00000000E+00	-7.90627000E-03
					 5.82987000E-02	 0.00000000E+00	-2.77797000E-02
					 8.36395000E-02	 0.00000000E+00	-1.21823000E-02
					 7.86728000E-02	 0.00000000E+00	-3.40678000E-02
					 8.36395000E-02	 0.00000000E+00	-1.21823000E-02
					 7.86728000E-02	 0.00000000E+00	-3.40678000E-02
					 1.06816000E-01	 0.00000000E+00	-1.73312000E-02
					 1.00949000E-01	 0.00000000E+00	-4.09270000E-02
					 1.06816000E-01	 0.00000000E+00	-1.73312000E-02
					 1.00949000E-01	 0.00000000E+00	-4.09270000E-02
					 1.31563000E-01	 0.00000000E+00	-2.33149000E-02
					 1.24853000E-01	 0.00000000E+00	-4.83751000E-02
					 1.31563000E-01	 0.00000000E+00	-2.33149000E-02
					 1.24853000E-01	 0.00000000E+00	-4.83751000E-02
					 1.57693000E-01	 0.00000000E+00	-3.00970000E-02
					 1.50201000E-01	 0.00000000E+00	-5.64112000E-02
					 1.57693000E-01	 0.00000000E+00	-3.00970000E-02
					 1.50201000E-01	 0.00000000E+00	-5.64112000E-02
					 1.85024000E-01	 0.00000000E+00	-3.76228000E-02
					 1.76835000E-01	 0.00000000E+00	-6.49668000E-02
					 1.85024000E-01	 0.00000000E+00	-3.76228000E-02
					 1.76835000E-01	 0.00000000E+00	-6.49668000E-02
					 2.13305000E-01	 0.00000000E+00	-4.57787000E-02
					 2.04565000E-01	 0.00000000E+00	-7.39070000E-02
					 2.13305000E-01	 0.00000000E+00	-4.57787000E-02
					 2.04565000E-01	 0.00000000E+00	-7.39070000E-02
					 2.42233000E-01	 0.00000000E+00	-5.43934000E-02
					 2.33091000E-01	 0.00000000E+00	-8.30576000E-02
					 2.42233000E-01	 0.00000000E+00	-5.43934000E-02
					 2.33091000E-01	 0.00000000E+00	-8.30576000E-02
					 2.71553000E-01	 0.00000000E+00	-6.33062000E-02
					 2.62138000E-01	 0.00000000E+00	-9.23256000E-02
					 2.71553000E-01	 0.00000000E+00	-6.33062000E-02
					 2.62138000E-01	 0.00000000E+00	-9.23256000E-02
					 3.01120000E-01	 0.00000000E+00	-7.24281000E-02
					 2.91513000E-01	 0.00000000E+00	-1.01691000E-01
					 3.01120000E-01	 0.00000000E+00	-7.24281000E-02
					 2.91513000E-01	 0.00000000E+00	-1.01691000E-01
					 3.30852000E-01	 0.00000000E+00	-8.17264000E-02
					 3.21134000E-01	 0.00000000E+00	-1.11158000E-01
					 3.30852000E-01	 0.00000000E+00	-8.17264000E-02
					 3.21134000E-01	 0.00000000E+00	-1.11158000E-01
					 3.60661000E-01	 0.00000000E+00	-9.11655000E-02
					 3.50897000E-01	 0.00000000E+00	-1.20677000E-01
					 3.60661000E-01	 0.00000000E+00	-9.11655000E-02
					 3.50897000E-01	 0.00000000E+00	-1.20677000E-01
					 3.90438000E-01	 0.00000000E+00	-1.00677000E-01
					 3.80686000E-01	 0.00000000E+00	-1.30191000E-01
					 3.90438000E-01	 0.00000000E+00	-1.00677000E-01
					 3.80686000E-01	 0.00000000E+00	-1.30191000E-01
					 4.20100000E-01	 0.00000000E+00	-1.10201000E-01
					 4.10388000E-01	 0.00000000E+00	-1.39681000E-01
					 4.20100000E-01	 0.00000000E+00	-1.10201000E-01
					 4.10388000E-01	 0.00000000E+00	-1.39681000E-01
					 4.49641000E-01	 0.00000000E+00	-1.19730000E-01
					 4.39974000E-01	 0.00000000E+00	-1.49196000E-01
					 4.49641000E-01	 0.00000000E+00	-1.19730000E-01
					 4.39974000E-01	 0.00000000E+00	-1.49196000E-01
					 4.79122000E-01	 0.00000000E+00	-1.29314000E-01
					 4.69482000E-01	 0.00000000E+00	-1.58782000E-01
					 4.79122000E-01	 0.00000000E+00	-1.29314000E-01
					 4.69482000E-01	 0.00000000E+00	-1.58782000E-01
					 0.00000000E+00	 0.00000000E+00	 0.00000000E+00
					 5.14046000E-03	 0.00000000E+00	 5.67658000E-03
					 0.00000000E+00	 0.00000000E+00	 0.00000000E+00
					 5.14046000E-03	 0.00000000E+00	 5.67658000E-03
					 1.50203000E-02	 0.00000000E+00	 9.76811000E-03
					 1.50203000E-02	 0.00000000E+00	 9.76811000E-03
					 2.92435000E-02	 0.00000000E+00	 1.20384000E-02
					 2.92435000E-02	 0.00000000E+00	 1.20384000E-02
					 4.67522000E-02	 0.00000000E+00	 1.26208000E-02
					 4.67522000E-02	 0.00000000E+00	 1.26208000E-02
					 6.68571000E-02	 0.00000000E+00	 1.17011000E-02
					 6.68571000E-02	 0.00000000E+00	 1.17011000E-02
					 8.90979000E-02	 0.00000000E+00	 9.44976000E-03
					 8.90979000E-02	 0.00000000E+00	 9.44976000E-03
					 1.13098000E-01	 0.00000000E+00	 6.02702000E-03
					 1.13098000E-01	 0.00000000E+00	 6.02702000E-03
					 1.38636000E-01	 0.00000000E+00	 1.52640000E-03
					 1.38636000E-01	 0.00000000E+00	 1.52640000E-03
					 1.65494000E-01	 0.00000000E+00	-3.97993000E-03
					 1.65494000E-01	 0.00000000E+00	-3.97993000E-03
					 1.93460000E-01	 0.00000000E+00	-1.04547000E-02
					 1.93460000E-01	 0.00000000E+00	-1.04547000E-02
					 2.22221000E-01	 0.00000000E+00	-1.77887000E-02
					 2.22221000E-01	 0.00000000E+00	-1.77887000E-02
					 2.51498000E-01	 0.00000000E+00	-2.58262000E-02
					 2.51498000E-01	 0.00000000E+00	-2.58262000E-02
					 2.81054000E-01	 0.00000000E+00	-3.43532000E-02
					 2.81054000E-01	 0.00000000E+00	-3.43532000E-02
					 3.10785000E-01	 0.00000000E+00	-4.32234000E-02
					 3.10785000E-01	 0.00000000E+00	-4.32234000E-02
					 3.40595000E-01	 0.00000000E+00	-5.23430000E-02
					 3.40595000E-01	 0.00000000E+00	-5.23430000E-02
					 3.70430000E-01	 0.00000000E+00	-6.16864000E-02
					 3.70430000E-01	 0.00000000E+00	-6.16864000E-02
					 4.00181000E-01	 0.00000000E+00	-7.11787000E-02
					 4.00181000E-01	 0.00000000E+00	-7.11787000E-02
					 4.29800000E-01	 0.00000000E+00	-8.07344000E-02
					 4.29800000E-01	 0.00000000E+00	-8.07344000E-02
					 4.59297000E-01	 0.00000000E+00	-9.02838000E-02
					 4.59297000E-01	 0.00000000E+00	-9.02838000E-02
					 4.88767000E-01	 0.00000000E+00	-9.98524000E-02
					 4.88767000E-01	 0.00000000E+00	-9.98524000E-02
				</DataArray>
				<DataArray type="Float32" Name="S" NumberOfComponents="10" ComponentName0="xx" ComponentName1="yy" ComponentName2="zz" ComponentName3="xy" ComponentName4="yz" ComponentName5="zx" ComponentName6="Mises" ComponentName7="Min Principal" ComponentName8="Mid Principal" ComponentName9="Max Principal" format="ascii">
					-3.66382000E+03	-4.12499000E+03	-1.34718000E+04	 0.00000000E+00	 0.00000000E+00	 2.78886000E+03	 1.07340218E+04	-1.42093398E+04	-4.12499000E+03	-2.92628024E+03
					 4.45319000E+02	 4.19287000E+01	-5.56190000E+02	 0.00000000E+00	 0.00000000E+00	 3.60748000E+03	 6.30899999E+03	-3.69750456E+03	 4.19287000E+01	 3.58663356E+03
					-1.22564000E+02	-5.94688000E+01	-4.55083000E+02	-2.31116000E-09	-1.19499000E-08	 6.80372000E+02	 1.23460456E+03	-9.89215019E+02	-5.94688000E+01	 4.11568019E+02
					-1.82886000E+03	-3.21516000E+03	-1.19025000E+04	 7.48033000E-09	-3.41240000E-09	-4.15775000E+02	 9.48438559E+03	-1.19196314E+04	-3.21516000E+03	-1.81172862E+03
					-3.66382000E+03	-4.12499000E+03	-1.34718000E+04	 0.00000000E+00	 0.00000000E+00	 2.78886000E+03	 1.07340218E+04	-1.42093398E+04	-4.12499000E+03	-2.92628024E+03
					 4.45319000E+02	 4.19287000E+01	-5.56190000E+02	 0.00000000E+00	 0.00000000E+00	 3.60748000E+03	 6.30899999E+03	-3.69750456E+03	 4.19287000E+01	 3.58663356E+03
					-1.22564000E+02	-5.94688000E+01	-4.55083000E+02	-2.31128000E-09	-1.19498000E-08	 6.80372000E+02	 1.23460456E+03	-9.89215019E+02	-5.94688000E+01	 4.11568019E+02
					-1.82886000E+03	-3.21516000E+03	-1.19025000E+04	 7.48052000E-09	-3.41258000E-09	-4.15775000E+02	 9.48438559E+03	-1.19196314E+04	-3.21516000E+03	-1.81172862E+03
					 9.04208000E+00	 4.43469000E+01	-2.88842000E+01	-6.59730000E-09	-2.23419000E-08	 8.04909000E+02	 1.39558565E+03	-8.15053409E+02	 4.43469000E+01	 7.95211289E+02
					-2.12040000E+03	-2.63978000E+03	-9.60069000E+03	 1.32130000E-08	-2.08235000E-08	-1.17871000E+03	 7.51714393E+03	-9.78202965E+03	-2.63978000E+03	-1.93906035E+03
					 9.04208000E+00	 4.43469000E+01	-2.88842000E+01	-6.59684000E-09	-2.23420000E-08	 8.04909000E+02	 1.39558565E+03	-8.15053409E+02	 4.43469000E+01	 7.95211289E+02
					-2.12040000E+03	-2.63978000E+03	-9.60069000E+03	 1.32126000E-08	-2.08233000E-08	-1.17871000E+03	 7.51714393E+03	-9.78202965E+03	-2.63978000E+03	-1.93906035E+03
					 1.45536000E+02	 1.01368000E+02	 2.17158000E+02	 7.51663000E-09	-2.72801000E-08	 6.80345000E+02	 1.18273069E+03	-4.99939831E+02	 1.01368000E+02	 8.62633831E+02
					-1.70401000E+03	-1.98695000E+03	-7.38286000E+03	 3.18547000E-08	-3.64892000E-08	-1.36552000E+03	 6.02632169E+03	-7.69414590E+03	-1.98695000E+03	-1.39272410E+03
					 1.45536000E+02	 1.01368000E+02	 2.17158000E+02	 7.51751000E-09	-2.72800000E-08	 6.80345000E+02	 1.18273069E+03	-4.99939831E+02	 1.01368000E+02	 8.62633831E+02
					-1.70401000E+03	-1.98695000E+03	-7.38286000E+03	 3.18569000E-08	-3.64896000E-08	-1.36552000E+03	 6.02632169E+03	-7.69414590E+03	-1.98695000E+03	-1.39272410E+03
					 1.92907000E+02	 1.37722000E+02	 4.04027000E+02	-2.79267000E-08	-3.78063000E-08	 6.39484000E+02	 1.13405778E+03	-3.49670871E+02	 1.37722000E+02	 9.46604871E+02
					-1.57236000E+03	-1.57104000E+03	-5.76449000E+03	-1.37936000E-09	-4.54645000E-08	-1.38676000E+03	 4.83205952E+03	-6.18170807E+03	-1.57104000E+03	-1.15514193E+03
					 1.92907000E+02	 1.37722000E+02	 4.04027000E+02	-2.79254000E-08	-3.78065000E-08	 6.39484000E+02	 1.13405778E+03	-3.49670871E+02	 1.37722000E+02	 9.46604871E+02
					-1.57236000E+03	-1.57104000E+03	-5.76449000E+03	-1.38392000E-09	-4.54643000E-08	-1.38676000E+03	 4.83205952E+03	-6.18170807E+03	-1.57104000E+03	-1.15514193E+03
					 2.22871000E+02	 1.64837000E+02	 5.45586000E+02	-6.74527000E-08	-5.57717000E-08	 6.26255000E+02	 1.14141462E+03	-2.62479756E+02	 1.64837000E+02	 1.03093676E+03
					-1.44923000E+03	-1.26557000E+03	-4.55390000E+03	-6.72192000E-08	-4.66596000E-08	-1.29757000E+03	 3.91075111E+03	-5.02478814E+03	-1.26557000E+03	-9.78341864E+02
					 2.22871000E+02	 1.64837000E+02	 5.45586000E+02	-6.74529000E-08	-5.57718000E-08	 6.26255000E+02	 1.14141462E+03	-2.62479756E+02	 1.64837000E+02	 1.03093676E+03
					-1.44923000E+03	-1.26557000E+03	-4.55390000E+03	-6.72190000E-08	-4.66599000E-08	-1.29757000E+03	 3.91075111E+03	-5.02478814E+03	-1.26557000E+03	-9.78341864E+02
					 2.33038000E+02	 1.78597000E+02	 6.27629000E+02	-5.58205000E-08	-6.81274000E-08	 6.39989000E+02	 1.18697328E+03	-2.39376463E+02	 1.78597000E+02	 1.10004346E+03
					-1.34848000E+03	-1.04221000E+03	-3.65285000E+03	-6.31667000E-08	-6.28810000E-08	-1.16043000E+03	 3.18582410E+03	-4.13594114E+03	-1.04221000E+03	-8.65388858E+02
					 2.33038000E+02	 1.78597000E+02	 6.27629000E+02	-5.58183000E-08	-6.81270000E-08	 6.39989000E+02	 1.18697328E+03	-2.39376463E+02	 1.78597000E+02	 1.10004346E+03
					-1.34848000E+03	-1.04221000E+03	-3.65285000E+03	-6.31675000E-08	-6.28810000E-08	-1.16043000E+03	 3.18582410E+03	-4.13594114E+03	-1.04221000E+03	-8.65388858E+02
					 2.87153000E+02	 1.97833000E+02	 6.84954000E+02	-5.76857000E-08	-5.93676000E-08	 6.43398000E+02	 1.20151498E+03	-1.87387214E+02	 1.97833000E+02	 1.15949421E+03
					-1.21571000E+03	-8.61022000E+02	-2.95312000E+03	-6.50247000E-08	-6.43632000E-08	-1.02257000E+03	 2.62632515E+03	-3.42616676E+03	-8.61022000E+02	-7.42663241E+02
					 2.87153000E+02	 1.97833000E+02	 6.84954000E+02	-5.76835000E-08	-5.93676000E-08	 6.43398000E+02	 1.20151498E+03	-1.87387214E+02	 1.97833000E+02	 1.15949421E+03
					-1.21571000E+03	-8.61022000E+02	-2.95312000E+03	-6.50262000E-08	-6.43630000E-08	-1.02257000E+03	 2.62632515E+03	-3.42616676E+03	-8.61022000E+02	-7.42663241E+02
					 3.29661000E+02	 2.05604000E+02	 6.93224000E+02	-6.25540000E-08	-5.42677000E-08	 6.60098000E+02	 1.22468724E+03	-1.73228139E+02	 2.05604000E+02	 1.19611314E+03
					-1.08744000E+03	-7.16914000E+02	-2.40744000E+03	-1.80296000E-08	-4.38900000E-08	-8.73960000E+02	 2.15875012E+03	-2.84261400E+03	-7.16914000E+02	-6.52266004E+02
					 3.29661000E+02	 2.05604000E+02	 6.93224000E+02	-6.25516000E-08	-5.42676000E-08	 6.60098000E+02	 1.22468724E+03	-1.73228139E+02	 2.05604000E+02	 1.19611314E+03
					-1.08744000E+03	-7.16914000E+02	-2.40744000E+03	-1.80306000E-08	-4.38885000E-08	-8.73960000E+02	 2.15875012E+03	-2.84261400E+03	-7.16914000E+02	-6.52266004E+02
					 3.92517000E+02	 2.11173000E+02	 6.68385000E+02	-6.76759000E-08	-4.45954000E-08	 6.86235000E+02	 1.25370301E+03	-1.69509187E+02	 2.11173000E+02	 1.23041119E+03
					-9.16025000E+02	-5.79488000E+02	-1.92699000E+03	-6.02340000E-08	 5.41527000E-09	-6.88924000E+02	 1.70275757E+03	-2.27598327E+03	-5.79488000E+02	-5.67031733E+02
					 3.92517000E+02	 2.11173000E+02	 6.68385000E+02	-6.76820000E-08	-4.45965000E-08	 6.86235000E+02	 1.25370301E+03	-1.69509187E+02	 2.11173000E+02	 1.23041119E+03
					-9.16025000E+02	-5.79488000E+02	-1.92699000E+03	-6.02303000E-08	 5.41302000E-09	-6.88924000E+02	 1.70275757E+03	-2.27598327E+03	-5.79488000E+02	-5.67031733E+02
					 4.42277000E+02	 2.09357000E+02	 6.17526000E+02	-9.77496000E-08	 1.25315000E-08	 7.14555000E+02	 1.28745854E+03	-1.90006064E+02	 2.09357000E+02	 1.24980906E+03
					-6.80055000E+02	-4.27492000E+02	-1.43200000E+03	-9.80682000E-08	 6.30064000E-08	-4.40556000E+02	 1.18380387E+03	-1.63520356E+03	-4.76851439E+02	-4.27492000E+02
					 4.42277000E+02	 2.09357000E+02	 6.17526000E+02	-9.77579000E-08	 1.25285000E-08	 7.14555000E+02	 1.28745854E+03	-1.90006064E+02	 2.09357000E+02	 1.24980906E+03
					-6.80055000E+02	-4.27492000E+02	-1.43200000E+03	-9.80723000E-08	 6.30072000E-08	-4.40556000E+02	 1.18380387E+03	-1.63520356E+03	-4.76851439E+02	-4.27492000E+02
					 4.92615000E+02	 2.15686000E+02	 6.03377000E+02	-1.05304000E-07	 4.50184000E-08	 7.01959000E+02	 1.26406899E+03	-1.56144251E+02	 2.15686000E+02	 1.25213625E+03
					-3.82103000E+02	-2.54524000E+02	-8.85758000E+02	-1.16958000E-07	 4.45745000E-08	-1.74814000E+02	 6.52595101E+02	-9.40487223E+02	-3.27373777E+02	-2.54524000E+02
					 4.92615000E+02	 2.15686000E+02	 6.03377000E+02	-1.05302000E-07	 4.50219000E-08	 7.01959000E+02	 1.26406899E+03	-1.56144251E+02	 2.15686000E+02	 1.25213625E+03
					-3.82103000E+02	-2.54524000E+02	-8.85758000E+02	-1.16940000E-07	 4.45792000E-08	-1.74814000E+02	 6.52595101E+02	-9.40487223E+02	-3.27373777E+02	-2.54524000E+02
					 4.71311000E+02	 2.11266000E+02	 6.04843000E+02	-6.35677000E-08	 1.92606000E-08	 6.73988000E+02	 1.21776763E+03	-1.39209884E+02	 2.11266000E+02	 1.21536388E+03
					-1.47647000E+02	-1.09470000E+02	-4.01520000E+02	-8.31740000E-08	-1.40663000E-08	 5.81554000E+01	 2.92826305E+02	-4.14207730E+02	-1.34959270E+02	-1.09470000E+02
					 4.71311000E+02	 2.11266000E+02	 6.04843000E+02	-6.35655000E-08	 1.92611000E-08	 6.73988000E+02	 1.21776763E+03	-1.39209884E+02	 2.11266000E+02	 1.21536388E+03
					-1.47647000E+02	-1.09470000E+02	-4.01520000E+02	-8.31695000E-08	-1.40679000E-08	 5.81554000E+01	 2.92826305E+02	-4.14207730E+02	-1.34959270E+02	-1.09470000E+02
					 4.20116000E+02	 2.01131000E+02	 6.05531000E+02	-3.51697000E-08	-5.03587000E-09	 6.35334000E+02	 1.15493902E+03	-1.29238781E+02	 2.01131000E+02	 1.15488578E+03
					-5.68435000E+00	-1.51650000E+01	-7.04819000E+01	-4.04014000E-08	-2.54708000E-08	 2.11974000E+02	 3.72119890E+02	-2.52518797E+02	-1.51650000E+01	 1.76352547E+02
					 4.20116000E+02	 2.01131000E+02	 6.05531000E+02	-3.51853000E-08	-5.03529000E-09	 6.35334000E+02	 1.15493902E+03	-1.29238781E+02	 2.01131000E+02	 1.15488578E+03
					-5.68435000E+00	-1.51650000E+01	-7.04819000E+01	-4.03897000E-08	-2.54696000E-08	 2.11974000E+02	 3.72119890E+02	-2.52518797E+02	-1.51650000E+01	 1.76352547E+02
					 3.52457000E+02	 1.77816000E+02	 5.54720000E+02	-1.25660000E-08	-1.09293000E-08	 5.92639000E+02	 1.07721686E+03	-1.47617425E+02	 1.77816000E+02	 1.05479443E+03
					 7.18476000E+01	 3.41041000E+01	 1.01603000E+02	-2.36663000E-08	-2.01692000E-08	 3.02427000E+02	 5.27085666E+02	-2.16067428E+02	 3.41041000E+01	 3.89518028E+02
					 3.52457000E+02	 1.77816000E+02	 5.54720000E+02	-1.25673000E-08	-1.09271000E-08	 5.92639000E+02	 1.07721686E+03	-1.47617425E+02	 1.77816000E+02	 1.05479443E+03
					 7.18476000E+01	 3.41041000E+01	 1.01603000E+02	-2.36667000E-08	-2.01661000E-08	 3.02427000E+02	 5.27085666E+02	-2.16067428E+02	 3.41041000E+01	 3.89518028E+02
					 3.19931000E+02	 1.56711000E+02	 4.77639000E+02	 2.39059000E-08	-2.09376000E-09	 5.11508000E+02	 9.28533782E+02	-1.18765372E+02	 1.56711000E+02	 9.16335372E+02
					 1.62569000E+02	 7.51100000E+01	 2.18191000E+02	-7.50988000E-09	-1.06130000E-08	 3.43530000E+02	 6.07985288E+02	-1.54273903E+02	 7.51100000E+01	 5.35033903E+02
					 3.19931000E+02	 1.56711000E+02	 4.77639000E+02	 2.38902000E-08	-2.09143000E-09	 5.11508000E+02	 9.28533782E+02	-1.18765372E+02	 1.56711000E+02	 9.16335372E+02
					 1.62569000E+02	 7.51100000E+01	 2.18191000E+02	-7.51728000E-09	-1.06098000E-08	 3.43530000E+02	 6.07985288E+02	-1.54273903E+02	 7.51100000E+01	 5.35033903E+02
					 2.54176000E+02	 1.23475000E+02	 3.72496000E+02	 3.76019000E-08	 1.54768000E-08	 4.15706000E+02	 7.51652414E+02	-1.06558492E+02	 1.23475000E+02	 7.33230492E+02
					 2.16085000E+02	 1.02424000E+02	 3.02770000E+02	 3.39520000E-08	 7.27338000E-09	 3.62093000E+02	 6.50860844E+02	-1.05250321E+02	 1.02424000E+02	 6.24105321E+02
					 2.54176000E+02	 1.23475000E+02	 3.72496000E+02	 3.76094000E-08	 1.54855000E-08	 4.15706000E+02	 7.51652414E+02	-1.06558492E+02	 1.23475000E+02	 7.33230492E+02
					 2.16085000E+02	 1.02424000E+02	 3.02770000E+02	 3.39621000E-08	 7.26742000E-09	 3.62093000E+02	 6.50860844E+02	-1.05250321E+02	 1.02424000E+02	 6.24105321E+02
					 1.59338000E+02	 8.63953000E+01	 2.77889000E+02	 5.75758000E-08	 1.54105000E-08	 3.09667000E+02	 5.61874861E+02	-9.66756305E+01	 8.63953000E+01	 5.33902630E+02
					 2.03141000E+02	 1.05971000E+02	 3.33109000E+02	 5.87681000E-08	 3.74985000E-08	 3.36759000E+02	 6.15778006E+02	-7.48466378E+01	 1.05971000E+02	 6.11096638E+02
					 1.59338000E+02	 8.63953000E+01	 2.77889000E+02	 5.75845000E-08	 1.54047000E-08	 3.09667000E+02	 5.61874861E+02	-9.66756305E+01	 8.63953000E+01	 5.33902630E+02
					 2.03141000E+02	 1.05971000E+02	 3.33109000E+02	 5.87836000E-08	 3.74958000E-08	 3.36759000E+02	 6.15778006E+02	-7.48466378E+01	 1.05971000E+02	 6.11096638E+02
					 4.29143000E+01	 4.41999000E+01	 1.80502000E+02	 8.64287000E-08	 1.39436000E-08	 2.09702000E+02	 3.88175130E+02	-1.08989658E+02	 4.41999000E+01	 3.32405958E+02
					 1.13670000E+02	 7.37207000E+01	 2.58793000E+02	 1.01062000E-07	 2.47287000E-08	 2.57262000E+02	 4.76450841E+02	-8.10677853E+01	 7.37207000E+01	 4.53530785E+02
					 4.29143000E+01	 4.41999000E+01	 1.80502000E+02	 8.64231000E-08	 1.39420000E-08	 2.09702000E+02	 3.88175130E+02	-1.08989658E+02	 4.41999000E+01	 3.32405958E+02
					 1.13670000E+02	 7.37207000E+01	 2.58793000E+02	 1.01059000E-07	 2.47285000E-08	 2.57262000E+02	 4.76450841E+02	-8.10677853E+01	 7.37207000E+01	 4.53530785E+02
					-2.79779000E+01	 9.35083000E+00	 7.54414000E+01	 7.27972000E-08	 1.30672000E-08	 1.06295000E+02	 2.05242188E+02	-9.44736430E+01	 9.35083000E+00	 1.41937143E+02
					 2.41615000E+01	 2.76923000E+01	 1.15475000E+02	 1.01058000E-07	 4.72745000E-08	 1.34330000E+02	 2.49322800E+02	-7.20587662E+01	 2.76923000E+01	 2.11695266E+02
					-2.79779000E+01	 9.35083000E+00	 7.54414000E+01	 7.28017000E-08	 1.30731000E-08	 1.06295000E+02	 2.05242188E+02	-9.44736430E+01	 9.35083000E+00	 1.41937143E+02
					 2.41615000E+01	 2.76923000E+01	 1.15475000E+02	 1.01070000E-07	 4.72675000E-08	 1.34330000E+02	 2.49322800E+02	-7.20587662E+01	 2.76923000E+01	 2.11695266E+02
					-4.58323000E+01	-3.43746000E+00	 2.87838000E+01	 3.96761000E-08	 2.45660000E-08	 4.82102000E+01	 1.05708171E+02	-6.94841875E+01	-3.43746000E+00	 5.24356875E+01
					-1.84685000E+00	 7.48059000E+00	 3.94250000E+01	 7.47062000E-08	 7.09301000E-08	 6.44056000E+01	 1.17684536E+02	-4.88417073E+01	 7.48059000E+00	 8.64198573E+01
					-4.58323000E+01	-3.43746000E+00	 2.87838000E+01	 3.96932000E-08	 2.45715000E-08	 4.82102000E+01	 1.05708171E+02	-6.94841875E+01	-3.43746000E+00	 5.24356875E+01
					-1.84685000E+00	 7.48059000E+00	 3.94250000E+01	 7.47299000E-08	 7.09314000E-08	 6.44056000E+01	 1.17684536E+02	-4.88417073E+01	 7.48059000E+00	 8.64198573E+01
					 4.70590000E+03	 3.74504000E+03	 1.78096000E+04	 0.00000000E+00	 0.00000000E+00	 6.68209000E+03	 1.78653857E+04	 1.89948813E+03	 3.74504000E+03	 2.06160119E+04
					 1.43150000E+03	 2.84920000E+03	 1.53999000E+04	-2.50851000E-08	-1.18479000E-08	 2.87763000E+03	 1.42184857E+04	 8.61905983E+02	 2.84920000E+03	 1.59694940E+04
					 4.70590000E+03	 3.74504000E+03	 1.78096000E+04	 0.00000000E+00	 0.00000000E+00	 6.68209000E+03	 1.78653857E+04	 1.89948813E+03	 3.74504000E+03	 2.06160119E+04