<?xml version="1.0"?>
<VTKFile type="UnstructuredGrid" version="0.1" byte_order="LittleEndian">
	<UnstructuredGrid>
		<Piece NumberOfPoints="126" NumberOfCells="40">
			<Points>
				<DataArray type="Float64" NumberOfComponents="3" format="ascii">
					 5.00000000E-02	 0.00000000E+00	 0.00000000E+00
					 0.00000000E+00	 0.00000000E+00	 0.00000000E+00
					 0.00000000E+00	 0.00000000E+00	 5.00000000E-02
					 5.00000000E-02	 0.00000000E+00	 5.00000000E-02
					 5.00000000E-02	 3.00000000E-01	 0.00000000E+00
					 0.00000000E+00	 3.00000000E-01	 0.00000000E+00
					 0.00000000E+00	 3.00000000E-01	 5.00000000E-02
					 5.00000000E-02	 3.00000000E-01	 5.00000000E-02
					 0.00000000E+00	 0.00000000E+00	 1.00000000E-01
					 5.00000000E-02	 0.00000000E+00	 1.00000000E-01
					 0.00000000E+00	 3.00000000E-01	 1.00000000E-01
					 5.00000000E-02	 3.00000000E-01	 1.00000000E-01
					 0.00000000E+00	 0.00000000E+00	 1.50000000E-01
					 5.00000000E-02	 0.00000000E+00	 1.50000000E-01
					 0.00000000E+00	 3.00000000E-01	 1.50000000E-01
					 5.00000000E-02	 3.00000000E-01	 1.50000000E-01
					 0.00000000E+00	 0.00000000E+00	 2.00000000E-01
					 5.00000000E-02	 0.00000000E+00	 2.00000000E-01
					 0.00000000E+00	 3.00000000E-01	 2.00000000E-01
					 5.00000000E-02	 3.00000000E-01	 2.00000000E-01
					 0.00000000E+00	 0.00000000E+00	 2.50000000E-01
					 5.00000000E-02	 0.00000000E+00	 2.50000000E-01
					 0.00000000E+00	 3.00000000E-01	 2.50000000E-01
					 5.00000000E-02	 3.00000000E-01	 2.50000000E-01
					 0.00000000E+00	 0.00000000E+00	 3.00000000E-01
					 5.00000000E-02	 0.00000000E+00	 3.00000000E-01
					 0.00000000E+00	 3.00000000E-01	 3.00000000E-01
					 5.00000000E-02	 3.00000000E-01	 3.00000000E-01
					 0.00000000E+00	 0.00000000E+00	 3.50000000E-01
					 5.00000000E-02	 0.00000000E+00	 3.50000000E-01
					 0.00000000E+00	 3.00000000E-01	 3.50000000E-01
					 5.00000000E-02	 3.00000000E-01	 3.50000000E-01
					 0.00000000E+00	 0.00000000E+00	 4.00000000E-01
					 5.00000000E-02	 0.00000000E+00	 4.00000000E-01
					 0.00000000E+00	 3.00000000E-01	 4.00000000E-01
					 5.00000000E-02	 3.00000000E-01	 4.00000000E-01
					 0.00000000E+00	 0.00000000E+00	 4.50000000E-01
					 5.00000000E-02	 0.00000000E+00	 4.50000000E-01
					 0.00000000E+00	 3.00000000E-01	 4.50000000E-01
					 5.00000000E-02	 3.00000000E-01	 4.50000000E-01
					 0.00000000E+00	 0.00000000E+00	 5.00000000E-01
					 5.00000000E-02	 0.00000000E+00	 5.00000000E-01
					 0.00000000E+00	 3.00000000E-01	 5.00000000E-01
					 5.00000000E-02	 3.00000000E-01	 5.00000000E-01
					 0.00000000E+00	 0.00000000E+00	 5.50000000E-01
					 5.00000000E-02	 0.00000000E+00	 5.50000000E-01
					 0.00000000E+00	 3.00000000E-01	 5.50000000E-01
					 5.00000000E-02	 3.00000000E-01	 5.50000000E-01
					 0.00000000E+00	 0.00000000E+00	 6.00000000E-01
					 5.00000000E-02	 0.00000000E+00	 6.00000000E-01
					 0.00000000E+00	 3.00000000E-01	 6.00000000E-01
					 5.00000000E-02	 3.00000000E-01	 6.00000000E-01
					 0.00000000E+00	 0.00000000E+00	 6.50000000E-01
					 5.00000000E-02	 0.00000000E+00	 6.50000000E-01
					 0.00000000E+00	 3.00000000E-01	 6.50000000E-01
					 5.00000000E-02	 3.00000000E-01	 6.50000000E-01
					 0.00000000E+00	 0.00000000E+00	 7.00000000E-01
					 5.00000000E-02	 0.00000000E+00	 7.00000000E-01
					 0.00000000E+00	 3.00000000E-01	 7.00000000E-01
					 5.00000000E-02	 3.00000000E-01	 7.00000000E-01
					 0.00000000E+00	 0.00000000E+00	 7.50000000E-01
					 5.00000000E-02	 0.00000000E+00	 7.50000000E-01
					 0.00000000E+00	 3.00000000E-01	 7.50000000E-01
					 5.00000000E-02	 3.00000000E-01	 7.50000000E-01
					 0.00000000E+00	 0.00000000E+00	 8.00000000E-01
					 5.00000000E-02	 0.00000000E+00	 8.00000000E-01
					 0.00000000E+00	 3.00000000E-01	 8.00000000E-01
					 5.00000000E-02	 3.00000000E-01	 8.00000000E-01
					 0.00000000E+00	 0.00000000E+00	 8.50000000E-01
					 5.00000000E-02	 0.00000000E+00	 8.50000000E-01
					 0.00000000E+00	 3.00000000E-01	 8.50000000E-01
					 5.00000000E-02	 3.00000000E-01	 8.50000000E-01
					 0.00000000E+00	 0.00000000E+00	 9.00000000E-01
					 5.00000000E-02	 0.00000000E+00	 9.00000000E-01
					 0.00000000E+00	 3.00000000E-01	 9.00000000E-01
					 5.00000000E-02	 3.00000000E-01	 9.00000000E-01
					 0.00000000E+00	 0.00000000E+00	 9.50000000E-01
					 5.00000000E-02	 0.00000000E+00	 9.50000000E-01
					 0.00000000E+00	 3.00000000E-01	 9.50000000E-01
					 5.00000000E-02	 3.00000000E-01	 9.50000000E-01
					 0.00000000E+00	 0.00000000E+00	 1.00000000E+00
					 5.00000000E-02	 0.00000000E+00	 1.00000000E+00
					 0.00000000E+00	 3.00000000E-01	 1.00000000E+00
					 5.00000000E-02	 3.00000000E-01	 1.00000000E+00
					-5.00000000E-02	 0.00000000E+00	 0.00000000E+00
					-5.00000000E-02	 0.00000000E+00	 5.00000000E-02
					-5.00000000E-02	 3.00000000E-01	 0.00000000E+00
					-5.00000000E-02	 3.00000000E-01	 5.00000000E-02
					-5.00000000E-02	 0.00000000E+00	 1.00000000E-01
					-5.00000000E-02	 3.00000000E-01	 1.00000000E-01
					-5.00000000E-02	 0.00000000E+00	 1.50000000E-01
					-5.00000000E-02	 3.00000000E-01	 1.50000000E-01
					-5.00000000E-02	 0.00000000E+00	 2.00000000E-01
					-5.00000000E-02	 3.00000000E-01	 2.00000000E-01
					-5.00000000E-02	 0.00000000E+00	 2.50000000E-01
					-5.00000000E-02	 3.00000000E-01	 2.50000000E-01
					-5.00000000E-02	 0.00000000E+00	 3.00000000E-01
					-5.00000000E-02	 3.00000000E-01	 3.00000000E-01
					-5.00000000E-02	 0.00000000E+00	 3.50000000E-01
					-5.00000000E-02	 3.00000000E-01	 3.50000000E-01
					-5.00000000E-02	 0.00000000E+00	 4.00000000E-01
					-5.00000000E-02	 3.00000000E-01	 4.00000000E-01
					-5.00000000E-02	 0.00000000E+00	 4.50000000E-01
					-5.00000000E-02	 3.00000000E-01	 4.50000000E-01
					-5.00000000E-02	 0.00000000E+00	 5.00000000E-01
					-5.00000000E-02	 3.00000000E-01	 5.00000000E-01
					-5.00000000E-02	 0.00000000E+00	 5.50000000E-01
					-5.00000000E-02	 3.00000000E-01	 5.50000000E-01
					-5.00000000E-02	 0.00000000E+00	 6.00000000E-01
					-5.00000000E-02	 3.00000000E-01	 6.00000000E-01
					-5.00000000E-02	 0.00000000E+00	 6.50000000E-01
					-5.00000000E-02	 3.00000000E-01	 6.50000000E-01
					-5.00000000E-02	 0.00000000E+00	 7.00000000E-01
					-5.00000000E-02	 3.00000000E-01	 7.00000000E-01
					-5.00000000E-02	 0.00000000E+00	 7.50000000E-01
					-5.00000000E-02	 3.00000000E-01	 7.50000000E-01
					-5.00000000E-02	 0.00000000E+00	 8.00000000E-01
					-5.00000000E-02	 3.00000000E-01	 8.00000000E-01
					-5.00000000E-02	 0.00000000E+00	 8.50000000E-01
					-5.00000000E-02	 3.00000000E-01	 8.50000000E-01
					-5.00000000E-02	 0.00000000E+00	 9.00000000E-01
					-5.00000000E-02	 3.00000000E-01	 9.00000000E-01
					-5.00000000E-02	 0.00000000E+00	 9.50000000E-01
					-5.00000000E-02	 3.00000000E-01	 9.50000000E-01
					-5.00000000E-02	 0.00000000E+00	 1.00000000E+00
					-5.00000000E-02	 3.00000000E-01	 1.00000000E+00

				</DataArray>
			</Points>
			<Cells>
				<DataArray type="Int32" Name="connectivity" format="ascii">
					0 1 2 3 4 5 6 7 3 2 8 9 7 6 10 11 9 8 12 13 11 10 14 15 13 12 16 17 15 14 18 19 17 16 20 21 19 18 22 23 21 20 24 25 23 22 26 27 25 24 28 29 27 26 30 31 29 28 32 33 31 30 34 35 33 32 36 37 35 34 38 39 37 36 40 41 39 38 42 43 41 40 44 45 43 42 46 47 45 44 48 49 47 46 50 51 49 48 52 53 51 50 54 55 53 52 56 57 55 54 58 59 57 56 60 61 59 58 62 63 61 60 64 65 63 62 66 67 65 64 68 69 67 66 70 71 69 68 72 73 71 70 74 75 73 72 76 77 75 74 78 79 77 76 80 81 79 78 82 83 1 84 85 2 5 86 87 6 2 85 88 8 6 87 89 10 8 88 90 12 10 89 91 14 12 90 92 16 14 91 93 18 16 92 94 20 18 93 95 22 20 94 96 24 22 95 97 26 24 96 98 28 26 97 99 30 28 98 100 32 30 99 101 34 32 100 102 36 34 101 103 38 36 102 104 40 38 103 105 42 40 104 106 44 42 105 107 46 44 106 108 48 46 107 109 50 48 108 110 52 50 109 111 54 52 110 112 56 54 111 113 58 56 112 114 60 58 113 115 62 60 114 116 64 62 115 117 66 64 116 118 68 66 117 119 70 68 118 120 72 70 119 121 74 72 120 122 76 74 121 123 78 76 122 124 80 78 123 125 82 
				</DataArray>
				<DataArray type="Int32" Name="offsets" format="ascii">
					8 16 24 32 40 48 56 64 72 80 88 96 104 112 120 128 136 144 152 160 168 176 184 192 200 208 216 224 232 240 248 256 264 272 280 288 296 304 312 320 
				</DataArray>
				<DataArray type="UInt8" Name="types" format="ascii">
					12 12 12 12 12 12 12 12 12 12 12 12 12 12 12 12 12 12 12 12 12 12 12 12 12 12 12 12 12 12 12 12 12 12 12 12 12 12 12 12 
				</DataArray>
			</Cells>
			<PointData>
				<DataArray type="Float32" Name="U" NumberOfComponents="3" ComponentName0="D1" ComponentName1="D2" ComponentName2="D3" format="ascii">
					 0.00000000E+00	 0.00000000E+00	 0.00000000E+00
					 0.00000000E+00	 0.00000000E+00	 0.00000000E+00
					 3.79733000E-03	 0.00000000E+00	-5.11454000E-04
					 4.14041000E-03	 0.00000000E+00	-6.48244000E-03
					 0.00000000E+00	 0.00000000E+00	 0.00000000E+00
					 0.00000000E+00	 0.00000000E+00	 0.00000000E+00
					 3.79733000E-03	 0.00000000E+00	-5.11454000E-04
					 4.14041000E-03	 0.00000000E+00	-6.48244000E-03
					 1.33404000E-02	 0.00000000E+00	-1.55662000E-03
					 1.25645000E-02	 0.00000000E+00	-1.21385000E-02
					 1.33404000E-02	 0.00000000E+00	-1.55662000E-03
					 1.25645000E-02	 0.00000000E+00	-1.21385000E-02
					 2.65453000E-02	 0.00000000E+00	-3.37048000E-03
					 2.48850000E-02	 0.00000000E+00	-1.71468000E-02
					 2.65453000E-02	 0.00000000E+00	-3.37048000E-03
					 2.48850000E-02	 0.00000000E+00	-1.71468000E-02
					 4.22749000E-02	 0.00000000E+00	-5.85902000E-03
					 3.98524000E-02	 0.00000000E+00	-2.16561000E-02
					 4.22749000E-02	 0.00000000E+00	-5.85902000E-03
					 3.98524000E-02	 0.00000000E+00	-2.16561000E-02
					 5.94534000E-02	 0.00000000E+00	-8.78921000E-03
					 5.65439000E-02	 0.00000000E+00	-2.56525000E-02
					 5.94534000E-02	 0.00000000E+00	-8.78921000E-03
					 5.65439000E-02	 0.00000000E+00	-2.56525000E-02
					 7.72131000E-02	 0.00000000E+00	-1.19025000E-02
					 7.40901000E-02	 0.00000000E+00	-2.90568000E-02
					 7.72131000E-02	 0.00000000E+00	-1.19025000E-02
					 7.40901000E-02	 0.00000000E+00	-2.90568000E-02
					 9.48343000E-02	 0.00000000E+00	-1.49617000E-02
					 9.17554000E-02	 0.00000000E+00	-3.18046000E-02
					 9.48343000E-02	 0.00000000E+00	-1.49617000E-02
					 9.17554000E-02	 0.00000000E+00	-3.18046000E-02
					 1.11768000E-01	 0.00000000E+00	-1.77905000E-02
					 1.08907000E-01	 0.00000000E+00	-3.38680000E-02
					 1.11768000E-01	 0.00000000E+00	-1.77905000E-02
					 1.08907000E-01	 0.00000000E+00	-3.38680000E-02
					 1.27646000E-01	 0.00000000E+00	-2.02771000E-02
					 1.25103000E-01	 0.00000000E+00	-3.52863000E-02
					 1.27646000E-01	 0.00000000E+00	-2.02771000E-02
					 1.25103000E-01	 0.00000000E+00	-3.52863000E-02
					 1.42251000E-01	 0.00000000E+00	-2.23743000E-02
					 1.40066000E-01	 0.00000000E+00	-3.61379000E-02
					 1.42251000E-01	 0.00000000E+00	-2.23743000E-02
					 1.40066000E-01	 0.00000000E+00	-3.61379000E-02
					 1.55463000E-01	 0.00000000E+00	-2.40885000E-02
					 1.53651000E-01	 0.00000000E+00	-3.65241000E-02
					 1.55463000E-01	 0.00000000E+00	-2.40885000E-02
					 1.53651000E-01	 0.00000000E+00	-3.65241000E-02
					 1.67255000E-01	 0.00000000E+00	-2.54606000E-02
					 1.65782000E-01	 0.00000000E+00	-3.65565000E-02
					 1.67255000E-01	 0.00000000E+00	-2.54606000E-02
					 1.65782000E-01	 0.00000000E+00	-3.65565000E-02
					 1.77676000E-01	 0.00000000E+00	-2.65402000E-02
					 1.76495000E-01	 0.00000000E+00	-3.63487000E-02
					 1.77676000E-01	 0.00000000E+00	-2.65402000E-02
					 1.76495000E-01	 0.00000000E+00	-3.63487000E-02
					 1.86816000E-01	 0.00000000E+00	-2.73715000E-02
					 1.85872000E-01	 0.00000000E+00	-3.59836000E-02
					 1.86816000E-01	 0.00000000E+00	-2.73715000E-02
					 1.85872000E-01	 0.00000000E+00	-3.59836000E-02
					 1.94779000E-01	 0.00000000E+00	-2.79936000E-02
					 1.94038000E-01	 0.00000000E+00	-3.55263000E-02
					 1.94779000E-01	 0.00000000E+00	-2.79936000E-02
					 1.94038000E-01	 0.00000000E+00	-3.55263000E-02
					 2.01700000E-01	 0.00000000E+00	-2.84407000E-02
					 2.01114000E-01	 0.00000000E+00	-3.50393000E-02
					 2.01700000E-01	 0.00000000E+00	-2.84407000E-02
					 2.01114000E-01	 0.00000000E+00	-3.50393000E-02
					 2.07744000E-01	 0.00000000E+00	-2.87421000E-02
					 2.07271000E-01	 0.00000000E+00	-3.46042000E-02
					 2.07744000E-01	 0.00000000E+00	-2.87421000E-02
					 2.07271000E-01	 0.00000000E+00	-3.46042000E-02
					 2.13140000E-01	 0.00000000E+00	-2.89450000E-02
					 2.12749000E-01	 0.00000000E+00	-3.43176000E-02
					 2.13140000E-01	 0.00000000E+00	-2.89450000E-02
					 2.12749000E-01	 0.00000000E+00	-3.43176000E-02
					 2.18181000E-01	 0.00000000E+00	-2.91210000E-02
					 2.17859000E-01	 0.00000000E+00	-3.42608000E-02
					 2.18181000E-01	 0.00000000E+00	-2.91210000E-02
					 2.17859000E-01	 0.00000000E+00	-3.42608000E-02
					 2.23189000E-01	 0.00000000E+00	-2.93431000E-02
					 2.22905000E-01	 0.00000000E+00	-3.44302000E-02
					 2.23189000E-01	 0.00000000E+00	-2.93431000E-02
					 2.22905000E-01	 0.00000000E+00	-3.44302000E-02
					 0.00000000E+00	 0.00000000E+00	 0.00000000E+00
					 5.12749000E-03	 0.00000000E+00	 5.24115000E-03
					 0.00000000E+00	 0.00000000E+00	 0.00000000E+00
					 5.12749000E-03	 0.00000000E+00	 5.24115000E-03
					 1.50401000E-02	 0.00000000E+00	 8.71132000E-03
					 1.50401000E-02	 0.00000000E+00	 8.71132000E-03
					 2.88761000E-02	 0.00000000E+00	 1.01368000E-02
					 2.88761000E-02	 0.00000000E+00	 1.01368000E-02
					 4.51022000E-02	 0.00000000E+00	 9.76870000E-03
					 4.51022000E-02	 0.00000000E+00	 9.76870000E-03
					 6.25570000E-02	 0.00000000E+00	 7.99562000E-03
					 6.25570000E-02	 0.00000000E+00	 7.99562000E-03
					 8.03610000E-02	 0.00000000E+00	 5.24168000E-03
					 8.03610000E-02	 0.00000000E+00	 5.24168000E-03
					 9.77968000E-02	 0.00000000E+00	 1.92182000E-03
					 9.77968000E-02	 0.00000000E+00	 1.92182000E-03
					 1.14419000E-01	 0.00000000E+00	-1.63833000E-03
					 1.14419000E-01	 0.00000000E+00	-1.63833000E-03
					 1.29915000E-01	 0.00000000E+00	-5.17754000E-03
					 1.29915000E-01	 0.00000000E+00	-5.17754000E-03
					 1.44132000E-01	 0.00000000E+00	-8.52903000E-03
					 1.44132000E-01	 0.00000000E+00	-8.52903000E-03
					 1.56955000E-01	 0.00000000E+00	-1.15818000E-02
					 1.56955000E-01	 0.00000000E+00	-1.15818000E-02
					 1.68417000E-01	 0.00000000E+00	-1.43012000E-02
					 1.68417000E-01	 0.00000000E+00	-1.43012000E-02
					 1.78564000E-01	 0.00000000E+00	-1.66761000E-02
					 1.78564000E-01	 0.00000000E+00	-1.66761000E-02
					 1.87497000E-01	 0.00000000E+00	-1.87197000E-02
					 1.87497000E-01	 0.00000000E+00	-1.87197000E-02
					 1.95286000E-01	 0.00000000E+00	-2.04322000E-02
					 1.95286000E-01	 0.00000000E+00	-2.04322000E-02
					 2.02097000E-01	 0.00000000E+00	-2.18157000E-02
					 2.02097000E-01	 0.00000000E+00	-2.18157000E-02
					 2.08082000E-01	 0.00000000E+00	-2.28590000E-02
					 2.08082000E-01	 0.00000000E+00	-2.28590000E-02
					 2.13461000E-01	 0.00000000E+00	-2.35706000E-02
					 2.13461000E-01	 0.00000000E+00	-2.35706000E-02
					 2.18483000E-01	 0.00000000E+00	-2.40012000E-02
					 2.18483000E-01	 0.00000000E+00	-2.40012000E-02
					 2.23472000E-01	 0.00000000E+00	-2.42774000E-02
					 2.23472000E-01	 0.00000000E+00	-2.42774000E-02
				</DataArray>
				<DataArray type="Float32" Name="S" NumberOfComponents="10" ComponentName0="xx" ComponentName1="yy" ComponentName2="zz" ComponentName3="xy" ComponentName4="yz" ComponentName5="zx" ComponentName6="Mises" ComponentName7="Min Principal" ComponentName8="Mid Principal" ComponentName9="Max Principal" format="ascii">
					-3.97985000E+03	-4.50405000E+03	-1.43353000E+04	 0.00000000E+00	 0.00000000E+00	 2.86378000E+03	 1.12554658E+04	-1.50745060E+04	-4.50405000E+03	-3.24064403E+03
					 1.95373000E+02	-2.44219000E+02	-1.68536000E+03	 0.00000000E+00	 0.00000000E+00	 3.65679000E+03	 6.55896195E+03	-4.52075862E+03	-2.44219000E+02	 3.03077162E+03
					-6.41483000E+01	-2.67701000E+02	-1.51969000E+03	-1.44445000E-08	 6.39512000E-09	 6.83291000E+02	 1.80676940E+03	-1.79018615E+03	-2.67701000E+02	 2.06347849E+02
					-1.72455000E+03	-3.38177000E+03	-1.24374000E+04	-3.02595000E-08	-1.96451000E-08	-3.77179000E+02	 1.00092345E+04	-1.24506633E+04	-3.38177000E+03	-1.71128667E+03
					-3.97985000E+03	-4.50405000E+03	-1.43353000E+04	 0.00000000E+00	 0.00000000E+00	 2.86378000E+03	 1.12554658E+04	-1.50745060E+04	-4.50405000E+03	-3.24064403E+03
					 1.95373000E+02	-2.44219000E+02	-1.68536000E+03	 0.00000000E+00	 0.00000000E+00	 3.65679000E+03	 6.55896195E+03	-4.52075862E+03	-2.44219000E+02	 3.03077162E+03
					-6.41483000E+01	-2.67701000E+02	-1.51969000E+03	-1.44445000E-08	 6.39508000E-09	 6.83291000E+02	 1.80676940E+03	-1.79018615E+03	-2.67701000E+02	 2.06347849E+02
					-1.72455000E+03	-3.38177000E+03	-1.24374000E+04	-3.02596000E-08	-1.96450000E-08	-3.77179000E+02	 1.00092345E+04	-1.24506633E+04	-3.38177000E+03	-1.71128667E+03
					 1.03679000E+02	-1.46085000E+02	-1.02541000E+03	 4.47814000E-08	 4.36605000E-09	 8.04951000E+02	 1.73177844E+03	-1.44405246E+03	-1.46085000E+02	 5.22321463E+02
					-1.84634000E+03	-2.59373000E+03	-9.55846000E+03	 1.02449000E-07	-3.03654000E-08	-1.01773000E+03	 7.57487613E+03	-9.69050395E+03	-2.59373000E+03	-1.71429605E+03
					 1.03679000E+02	-1.46085000E+02	-1.02541000E+03	 4.47818000E-08	 4.36609000E-09	 8.04951000E+02	 1.73177844E+03	-1.44405246E+03	-1.46085000E+02	 5.22321463E+02
					-1.84634000E+03	-2.59373000E+03	-9.55846000E+03	 1.02450000E-07	-3.03653000E-08	-1.01773000E+03	 7.57487613E+03	-9.69050395E+03	-2.59373000E+03	-1.71429605E+03
					 2.68733000E+02	-6.06556000E+01	-6.52397000E+02	 1.23542000E-07	-3.07421000E-08	 7.00905000E+02	 1.45855101E+03	-1.03051426E+03	-6.06556000E+01	 6.46850263E+02
					-1.15215000E+03	-1.68047000E+03	-6.55179000E+03	 1.36412000E-07	-4.42706000E-08	-8.98463000E+02	 5.38555509E+03	-6.69736343E+03	-1.68047000E+03	-1.00657657E+03
					 2.68733000E+02	-6.06556000E+01	-6.52397000E+02	 1.23542000E-07	-3.07422000E-08	 7.00905000E+02	 1.45855101E+03	-1.03051426E+03	-6.06556000E+01	 6.46850263E+02
					-1.15215000E+03	-1.68047000E+03	-6.55179000E+03	 1.36410000E-07	-4.42704000E-08	-8.98463000E+02	 5.38555509E+03	-6.69736343E+03	-1.68047000E+03	-1.00657657E+03
					 3.17513000E+02	-7.00622000E+00	-3.76787000E+02	 1.75929000E-07	-5.48249000E-08	 6.55197000E+02	 1.28448466E+03	-7.71119455E+02	-7.00622000E+00	 7.11845455E+02
					-6.71823000E+02	-9.83463000E+02	-3.99310000E+03	 1.54949000E-07	-5.39523000E-08	-5.20450000E+02	 3.30235707E+03	-4.07274551E+03	-9.83463000E+02	-5.92177492E+02
					 3.17513000E+02	-7.00622000E+00	-3.76787000E+02	 1.75927000E-07	-5.48255000E-08	 6.55197000E+02	 1.28448466E+03	-7.71119455E+02	-7.00622000E+00	 7.11845455E+02
					-6.71823000E+02	-9.83463000E+02	-3.99310000E+03	 1.54949000E-07	-5.39525000E-08	-5.20450000E+02	 3.30235707E+03	-4.07274551E+03	-9.83463000E+02	-5.92177492E+02
					 3.04229000E+02	 2.42410000E+01	-1.80066000E+02	 1.52238000E-07	-5.83034000E-08	 5.96793000E+02	 1.11616477E+03	-5.81966089E+02	 2.42410000E+01	 7.06129089E+02
					-1.97507000E+02	-4.15126000E+02	-1.82047000E+03	 1.61114000E-07	-2.30478000E-08	-2.50499000E+01	 1.52645401E+03	-1.82085654E+03	-4.15126000E+02	-1.97120455E+02
					 3.04229000E+02	 2.42410000E+01	-1.80066000E+02	 1.52237000E-07	-5.83028000E-08	 5.96793000E+02	 1.11616477E+03	-5.81966089E+02	 2.42410000E+01	 7.06129089E+02
					-1.97507000E+02	-4.15126000E+02	-1.82047000E+03	 1.61119000E-07	-2.30472000E-08	-2.50499000E+01	 1.52645401E+03	-1.82085654E+03	-4.15126000E+02	-1.97120455E+02
					 2.18528000E+02	 2.82346000E+01	-6.80133000E+01	 1.10393000E-07	-3.88199000E-08	 5.24795000E+02	 9.43408688E+02	-4.68742899E+02	 2.82346000E+01	 6.19257599E+02
					 1.75101000E+02	 2.28432000E+01	-4.37060000E+01	 1.23649000E-07	 8.66746000E-09	 4.41990000E+02	 7.89816022E+02	-3.89631267E+02	 2.28432000E+01	 5.21026267E+02
					 2.18528000E+02	 2.82346000E+01	-6.80133000E+01	 1.10395000E-07	-3.88196000E-08	 5.24795000E+02	 9.43408688E+02	-4.68742899E+02	 2.82346000E+01	 6.19257599E+02
					 1.75101000E+02	 2.28432000E+01	-4.37060000E+01	 1.23646000E-07	 8.66734000E-09	 4.41990000E+02	 7.89816022E+02	-3.89631267E+02	 2.28432000E+01	 5.21026267E+02
					 1.47059000E+02	 2.88032000E+01	 8.67595000E-01	 5.03099000E-08	-1.09727000E-08	 4.13344000E+02	 7.28442288E+02	-3.45794066E+02	 2.88032000E+01	 4.93720661E+02
					 4.59084000E+02	 3.53815000E+02	 1.36188000E+03	 6.84830000E-08	 6.07280000E-09	 7.74451000E+02	 1.64938827E+03	 1.40811378E+01	 3.53815000E+02	 1.80688286E+03
					 1.47059000E+02	 2.88032000E+01	 8.67595000E-01	 5.03081000E-08	-1.09728000E-08	 4.13344000E+02	 7.28442288E+02	-3.45794066E+02	 2.88032000E+01	 4.93720661E+02
					 4.59084000E+02	 3.53815000E+02	 1.36188000E+03	 6.84834000E-08	 6.07276000E-09	 7.74451000E+02	 1.64938827E+03	 1.40811378E+01	 3.53815000E+02	 1.80688286E+03
					 4.94756000E+01	 1.62691000E+01	 2.62876000E+01	 5.19466000E-08	-1.70507000E-08	 3.00122000E+02	 5.20663046E+02	-2.62464260E+02	 1.62691000E+01	 3.38227460E+02
					 6.00863000E+02	 5.75845000E+02	 2.38495000E+03	 5.74266000E-08	-6.99317000E-09	 9.53372000E+02	 2.44028300E+03	 1.87280299E+02	 5.75845000E+02	 2.79853270E+03
					 4.94756000E+01	 1.62691000E+01	 2.62876000E+01	 5.19431000E-08	-1.70511000E-08	 3.00122000E+02	 5.20663046E+02	-2.62464260E+02	 1.62691000E+01	 3.38227460E+02
					 6.00863000E+02	 5.75845000E+02	 2.38495000E+03	 5.74247000E-08	-6.99221000E-09	 9.53372000E+02	 2.44028300E+03	 1.87280299E+02	 5.75845000E+02	 2.79853270E+03
					-3.33121000E+01	 4.19857000E+00	 4.00345000E+01	 1.72038000E-08	-2.41487000E-09	 2.02664000E+02	 3.56726204E+02	-2.02594203E+02	 4.19857000E+00	 2.09316603E+02
					 6.35369000E+02	 7.08025000E+02	 3.05649000E+03	 2.12820000E-08	 3.52825000E-08	 1.00252000E+03	 2.95065008E+03	 2.74146094E+02	 7.08025000E+02	 3.41771291E+03
					-3.33121000E+01	 4.19857000E+00	 4.00345000E+01	 1.72016000E-08	-2.41487000E-09	 2.02664000E+02	 3.56726204E+02	-2.02594203E+02	 4.19857000E+00	 2.09316603E+02
					 6.35369000E+02	 7.08025000E+02	 3.05649000E+03	 2.12844000E-08	 3.52815000E-08	 1.00252000E+03	 2.95065008E+03	 2.74146094E+02	 7.08025000E+02	 3.41771291E+03
					-1.11136000E+02	-1.07450000E+01	 3.76451000E+01	-2.08369000E-08	 2.47509000E-08	 1.23911000E+02	 2.51673783E+02	-1.81271883E+02	-1.07450000E+01	 1.07780983E+02
					 6.02875000E+02	 7.71917000E+02	 3.43348000E+03	-1.92597000E-08	 4.86851000E-08	 9.58825000E+02	 3.21254492E+03	 3.08666884E+02	 7.71917000E+02	 3.72768812E+03
					-1.11136000E+02	-1.07450000E+01	 3.76451000E+01	-2.08307000E-08	 2.47529000E-08	 1.23911000E+02	 2.51673783E+02	-1.81271883E+02	-1.07450000E+01	 1.07780983E+02
					 6.02875000E+02	 7.71917000E+02	 3.43348000E+03	-1.92552000E-08	 4.86847000E-08	 9.58825000E+02	 3.21254492E+03	 3.08666884E+02	 7.71917000E+02	 3.72768812E+03
					-1.22293000E+02	-1.37752000E+01	 3.12163000E+01	-2.25834000E-08	 1.59664000E-08	 4.58675000E+01	 1.58095570E+02	-1.34953695E+02	-1.37752000E+01	 4.38769946E+01
					 5.68728000E+02	 7.92208000E+02	 3.57377000E+03	-2.11574000E-08	 1.59209000E-08	 8.41129000E+02	 3.24517302E+03	 3.49311908E+02	 7.92208000E+02	 3.79318609E+03
					-1.22293000E+02	-1.37752000E+01	 3.12163000E+01	-2.25788000E-08	 1.59647000E-08	 4.58675000E+01	 1.58095570E+02	-1.34953695E+02	-1.37752000E+01	 4.38769946E+01
					 5.68728000E+02	 7.92208000E+02	 3.57377000E+03	-2.11672000E-08	 1.59245000E-08	 8.41129000E+02	 3.24517302E+03	 3.49311908E+02	 7.92208000E+02	 3.79318609E+03
					-1.42802000E+02	-2.31286000E+01	 5.09950000E+00	 1.76870000E-08	 1.02981000E-09	-9.85765000E+00	 1.37070131E+02	-1.43456120E+02	-2.31286000E+01	 5.75362041E+00
					 4.99021000E+02	 7.67115000E+02	 3.50411000E+03	 0.00000000E+00	-2.42079000E-09	 6.90888000E+02	 3.11909709E+03	 3.47792177E+02	 7.67115000E+02	 3.65533882E+03
					-1.42802000E+02	-2.31286000E+01	 5.09950000E+00	 1.76795000E-08	 1.02885000E-09	-9.85765000E+00	 1.37070131E+02	-1.43456120E+02	-2.31286000E+01	 5.75362041E+00
					 4.99021000E+02	 7.67115000E+02	 3.50411000E+03	 0.00000000E+00	-2.42125000E-09	 6.90888000E+02	 3.11909709E+03	 3.47792177E+02	 7.67115000E+02	 3.65533882E+03
					-1.50686000E+02	-2.81739000E+01	-1.00070000E+01	 6.57292000E-08	 7.29699000E-09	-4.68626000E+01	 1.55413081E+02	-1.64867199E+02	-2.81739000E+01	 4.17419888E+00
					 4.20000000E+02	 7.15046000E+02	 3.30025000E+03	 5.54599000E-08	 5.63923000E-09	 5.39131000E+02	 2.89915034E+03	 3.22392172E+02	 7.15046000E+02	 3.39785783E+03
					-1.50686000E+02	-2.81739000E+01	-1.00070000E+01	 6.57324000E-08	 7.29671000E-09	-4.68626000E+01	 1.55413081E+02	-1.64867199E+02	-2.81739000E+01	 4.17419888E+00
					 4.20000000E+02	 7.15046000E+02	 3.30025000E+03	 5.54525000E-08	 5.63964000E-09	 5.39131000E+02	 2.89915034E+03	 3.22392172E+02	 7.15046000E+02	 3.39785783E+03
					-1.69963000E+02	-3.16504000E+01	-4.65005000E+00	 6.88338000E-08	 5.45875000E-09	-6.99833000E+01	 1.95670309E+02	-1.95610519E+02	-3.16504000E+01	 2.09974691E+01
					 3.37133000E+02	 6.49616000E+02	 3.03154000E+03	 7.15874000E-08	 2.54759000E-08	 4.03240000E+02	 2.64637976E+03	 2.78079138E+02	 6.49616000E+02	 3.09059386E+03
					-1.69963000E+02	-3.16504000E+01	-4.65005000E+00	 6.88267000E-08	 5.45932000E-09	-6.99833000E+01	 1.95670309E+02	-1.95610519E+02	-3.16504000E+01	 2.09974691E+01
					 3.37133000E+02	 6.49616000E+02	 3.03154000E+03	 7.15910000E-08	 2.54729000E-08	 4.03240000E+02	 2.64637976E+03	 2.78079138E+02	 6.49616000E+02	 3.09059386E+03
					-1.40204000E+02	-1.69586000E+01	 4.31372000E+01	 3.43996000E-09	-4.41432000E-09	-9.42697000E+01	 2.29929976E+02	-1.80025891E+02	-1.69586000E+01	 8.29590912E+01
					 2.86701000E+02	 5.83045000E+02	 2.72582000E+03	 9.83228000E-09	 3.49643000E-08	 2.77166000E+02	 2.35473267E+03	 2.55602127E+02	 5.83045000E+02	 2.75691887E+03
					-1.40204000E+02	-1.69586000E+01	 4.31372000E+01	 3.44324000E-09	-4.41414000E-09	-9.42697000E+01	 2.29929976E+02	-1.80025891E+02	-1.69586000E+01	 8.29590912E+01
					 2.86701000E+02	 5.83045000E+02	 2.72582000E+03	 9.81782000E-09	 3.49662000E-08	 2.77166000E+02	 2.35473267E+03	 2.55602127E+02	 5.83045000E+02	 2.75691887E+03
					-1.34190000E+02	-2.07318000E+00	 1.16225000E+02	-5.40804000E-08	 1.11151000E-08	-1.15437000E+02	 2.95051853E+02	-1.79284053E+02	-2.07318000E+00	 1.61319053E+02
					 2.15009000E+02	 4.96118000E+02	 2.33799000E+03	-8.09211000E-08	 2.45570000E-08	 1.59627000E+02	 2.01636402E+03	 2.03073741E+02	 4.96118000E+02	 2.34992526E+03
					-1.34190000E+02	-2.07318000E+00	 1.16225000E+02	-5.40700000E-08	 1.11143000E-08	-1.15437000E+02	 2.95051853E+02	-1.79284053E+02	-2.07318000E+00	 1.61319053E+02
					 2.15009000E+02	 4.96118000E+02	 2.33799000E+03	-8.09304000E-08	 2.45572000E-08	 1.59627000E+02	 2.01636402E+03	 2.03073741E+02	 4.96118000E+02	 2.34992526E+03
					-1.36833000E+02	 1.19760000E+01	 1.93532000E+02	-5.32346000E-08	 2.30388000E-08	-1.35168000E+02	 3.70047336E+02	-1.85088188E+02	 1.19760000E+01	 2.41787188E+02
					 1.19680000E+02	 3.78648000E+02	 1.81904000E+03	-2.04251000E-08	 3.07668000E-08	 5.46012000E+01	 1.58863238E+03	 1.17927446E+02	 3.78648000E+02	 1.82079255E+03
					-1.36833000E+02	 1.19760000E+01	 1.93532000E+02	-5.32342000E-08	 2.30389000E-08	-1.35168000E+02	 3.70047336E+02	-1.85088188E+02	 1.19760000E+01	 2.41787188E+02
					 1.19680000E+02	 3.78648000E+02	 1.81904000E+03	-2.04144000E-08	 3.07677000E-08	 5.46012000E+01	 1.58863238E+03	 1.17927446E+02	 3.78648000E+02	 1.82079255E+03
					-1.51326000E+02	 1.17014000E+01	 2.09472000E+02	-7.80435000E-08	 1.88353000E-08	-1.36921000E+02	 3.92651564E+02	-1.97402516E+02	 1.17014000E+01	 2.55548516E+02
					 1.54825000E+01	 2.32461000E+02	 1.16725000E+03	-7.36945000E-08	 7.76576000E-08	-1.79274000E+01	 1.06052036E+03	 1.52035254E+01	 2.32461000E+02	 1.16752897E+03
					-1.51326000E+02	 1.17014000E+01	 2.09472000E+02	-7.80615000E-08	 1.88349000E-08	-1.36921000E+02	 3.92651564E+02	-1.97402516E+02	 1.17014000E+01	 2.55548516E+02
					 1.54825000E+01	 2.32461000E+02	 1.16725000E+03	-7.36875000E-08	 7.76576000E-08	-1.79274000E+01	 1.06052036E+03	 1.52035254E+01	 2.32461000E+02	 1.16752897E+03
					-1.13560000E+02	 3.77315000E+00	 1.32665000E+02	-1.56907000E-07	 2.50197000E-08	-9.33698000E+01	 2.67688667E+02	-1.44961600E+02	 3.77315000E+00	 1.64066600E+02
					-3.02700000E+01	 9.60133000E+01	 5.15379000E+02	-1.44917000E-07	 1.20200000E-07	-3.41689000E+01	 4.98273507E+02	-3.24013538E+01	 9.60133000E+01	 5.17510354E+02
					-1.13560000E+02	 3.77315000E+00	 1.32665000E+02	-1.56895000E-07	 2.50199000E-08	-9.33698000E+01	 2.67688667E+02	-1.44961600E+02	 3.77315000E+00	 1.64066600E+02
					-3.02700000E+01	 9.60133000E+01	 5.15379000E+02	-1.44920000E-07	 1.20201000E-07	-3.41689000E+01	 4.98273507E+02	-3.24013538E+01	 9.60133000E+01	 5.17510354E+02
					-6.02223000E+01	 2.97823000E+00	 7.53646000E+01	-2.52850000E-07	 3.05755000E-08	-6.20390000E+01	 1.59233988E+02	-8.43243852E+01	 2.97823000E+00	 9.94666852E+01
					-1.55465000E+01	 4.08902000E+01	 2.20734000E+02	-2.18867000E-07	 1.28318000E-07	-2.91007000E+01	 2.19588789E+02	-1.90778137E+01	 4.08902000E+01	 2.24265314E+02
					-6.02223000E+01	 2.97823000E+00	 7.53646000E+01	-2.52853000E-07	 3.05743000E-08	-6.20390000E+01	 1.59233988E+02	-8.43243852E+01	 2.97823000E+00	 9.94666852E+01
					-1.55465000E+01	 4.08902000E+01	 2.20734000E+02	-2.18846000E-07	 1.28321000E-07	-2.91007000E+01	 2.19588789E+02	-1.90778137E+01	 4.08902000E+01	 2.24265314E+02
					 4.44149000E+03	 3.48303000E+03	 1.62460000E+04	 0.00000000E+00	 0.00000000E+00	 6.54658000E+03	 1.67377532E+04	 1.52930663E+03	 3.48303000E+03	 1.91581834E+04
					 1.42388000E+03	 2.59499000E+03	 1.36274000E+04	-1.24700000E-08	 9.06488000E-09	 2.74091000E+03	 1.25914057E+04	 8.36539707E+02	 2.59499000E+03	 1.42147403E+04
					 4.44149000E+03	 3.48303000E+03	 1.62460000E+04	 0.00000000E+00	 0.00000000E+00	 6.54658000E+03	 1.67377532E+04	 1.52930663E+03	 3.48303000E+03	 1.91581834E+04