<?xml version="1.0"?>
<VTKFile type="UnstructuredGrid" version="0.1" byte_order="LittleEndian">
	<UnstructuredGrid>
		<Piece NumberOfPoints="126" NumberOfCells="40">
			<Points>
				<DataArray type="Float64" NumberOfComponents="3" format="ascii">
					 5.00000000E-02	 0.00000000E+00	 0.00000000E+00
					 0.00000000E+00	 0.00000000E+00	 0.00000000E+00
					 0.00000000E+00	 0.00000000E+00	 5.00000000E-02
					 5.00000000E-02	 0.00000000E+00	 5.00000000E-02
					 5.00000000E-02	 3.00000000E-01	 0.00000000E+00
					 0.00000000E+00	 3.00000000E-01	 0.00000000E+00
					 0.00000000E+00	 3.00000000E-01	 5.00000000E-02
					 5.00000000E-02	 3.00000000E-01	 5.00000000E-02
					 0.00000000E+00	 0.00000000E+00	 1.00000000E-01
					 5.00000000E-02	 0.00000000E+00	 1.00000000E-01
					 0.00000000E+00	 3.00000000E-01	 1.00000000E-01
					 5.00000000E-02	 3.00000000E-01	 1.00000000E-01
					 0.00000000E+00	 0.00000000E+00	 1.50000000E-01
					 5.00000000E-02	 0.00000000E+00	 1.50000000E-01
					 0.00000000E+00	 3.00000000E-01	 1.50000000E-01
					 5.00000000E-02	 3.00000000E-01	 1.50000000E-01
					 0.00000000E+00	 0.00000000E+00	 2.00000000E-01
					 5.00000000E-02	 0.00000000E+00	 2.00000000E-01
					 0.00000000E+00	 3.00000000E-01	 2.00000000E-01
					 5.00000000E-02	 3.00000000E-01	 2.00000000E-01
					 0.00000000E+00	 0.00000000E+00	 2.50000000E-01
					 5.00000000E-02	 0.00000000E+00	 2.50000000E-01
					 0.00000000E+00	 3.00000000E-01	 2.50000000E-01
					 5.00000000E-02	 3.00000000E-01	 2.50000000E-01
					 0.00000000E+00	 0.00000000E+00	 3.00000000E-01
					 5.00000000E-02	 0.00000000E+00	 3.00000000E-01
					 0.00000000E+00	 3.00000000E-01	 3.00000000E-01
					 5.00000000E-02	 3.00000000E-01	 3.00000000E-01
					 0.00000000E+00	 0.00000000E+00	 3.50000000E-01
					 5.00000000E-02	 0.00000000E+00	 3.50000000E-01
					 0.00000000E+00	 3.00000000E-01	 3.50000000E-01
					 5.00000000E-02	 3.00000000E-01	 3.50000000E-01
					 0.00000000E+00	 0.00000000E+00	 4.00000000E-01
					 5.00000000E-02	 0.00000000E+00	 4.00000000E-01
					 0.00000000E+00	 3.00000000E-01	 4.00000000E-01
					 5.00000000E-02	 3.00000000E-01	 4.00000000E-01
					 0.00000000E+00	 0.00000000E+00	 4.50000000E-01
					 5.00000000E-02	 0.00000000E+00	 4.50000000E-01
					 0.00000000E+00	 3.00000000E-01	 4.50000000E-01
					 5.00000000E-02	 3.00000000E-01	 4.50000000E-01
					 0.00000000E+00	 0.00000000E+00	 5.00000000E-01
					 5.00000000E-02	 0.00000000E+00	 5.00000000E-01
					 0.00000000E+00	 3.00000000E-01	 5.00000000E-01
					 5.00000000E-02	 3.00000000E-01	 5.00000000E-01
					 0.00000000E+00	 0.00000000E+00	 5.50000000E-01
					 5.00000000E-02	 0.00000000E+00	 5.50000000E-01
					 0.00000000E+00	 3.00000000E-01	 5.50000000E-01
					 5.00000000E-02	 3.00000000E-01	 5.50000000E-01
					 0.00000000E+00	 0.00000000E+00	 6.00000000E-01
					 5.00000000E-02	 0.00000000E+00	 6.00000000E-01
					 0.00000000E+00	 3.00000000E-01	 6.00000000E-01
					 5.00000000E-02	 3.00000000E-01	 6.00000000E-01
					 0.00000000E+00	 0.00000000E+00	 6.50000000E-01
					 5.00000000E-02	 0.00000000E+00	 6.50000000E-01
					 0.00000000E+00	 3.00000000E-01	 6.50000000E-01
					 5.00000000E-02	 3.00000000E-01	 6.50000000E-01
					 0.00000000E+00	 0.00000000E+00	 7.00000000E-01
					 5.00000000E-02	 0.00000000E+00	 7.00000000E-01
					 0.00000000E+00	 3.00000000E-01	 7.00000000E-01
					 5.00000000E-02	 3.00000000E-01	 7.00000000E-01
					 0.00000000E+00	 0.00000000E+00	 7.50000000E-01
					 5.00000000E-02	 0.00000000E+00	 7.50000000E-01
					 0.00000000E+00	 3.00000000E-01	 7.50000000E-01
					 5.00000000E-02	 3.00000000E-01	 7.50000000E-01
					 0.00000000E+00	 0.00000000E+00	 8.00000000E-01
					 5.00000000E-02	 0.00000000E+00	 8.00000000E-01
					 0.00000000E+00	 3.00000000E-01	 8.00000000E-01
					 5.00000000E-02	 3.00000000E-01	 8.00000000E-01
					 0.00000000E+00	 0.00000000E+00	 8.50000000E-01
					 5.00000000E-02	 0.00000000E+00	 8.50000000E-01
					 0.00000000E+00	 3.00000000E-01	 8.50000000E-01
					 5.00000000E-02	 3.00000000E-01	 8.50000000E-01
					 0.00000000E+00	 0.00000000E+00	 9.00000000E-01
					 5.00000000E-02	 0.00000000E+00	 9.00000000E-01
					 0.00000000E+00	 3.00000000E-01	 9.00000000E-01
					 5.00000000E-02	 3.00000000E-01	 9.00000000E-01
					 0.00000000E+00	 0.00000000E+00	 9.50000000E-01
					 5.00000000E-02	 0.00000000E+00	 9.50000000E-01
					 0.00000000E+00	 3.00000000E-01	 9.50000000E-01
					 5.00000000E-02	 3.00000000E-01	 9.50000000E-01
					 0.00000000E+00	 0.00000000E+00	 1.00000000E+00
					 5.00000000E-02	 0.00000000E+00	 1.00000000E+00
					 0.00000000E+00	 3.00000000E-01	 1.00000000E+00
					 5.00000000E-02	 3.00000000E-01	 1.00000000E+00
					-5.00000000E-02	 0.00000000E+00	 0.00000000E+00
					-5.00000000E-02	 0.00000000E+00	 5.00000000E-02
					-5.00000000E-02	 3.00000000E-01	 0.00000000E+00
					-5.00000000E-02	 3.00000000E-01	 5.00000000E-02
					-5.00000000E-02	 0.00000000E+00	 1.00000000E-01
					-5.00000000E-02	 3.00000000E-01	 1.00000000E-01
					-5.00000000E-02	 0.00000000E+00	 1.50000000E-01
					-5.00000000E-02	 3.00000000E-01	 1.50000000E-01
					-5.00000000E-02	 0.00000000E+00	 2.00000000E-01
					-5.00000000E-02	 3.00000000E-01	 2.00000000E-01
					-5.00000000E-02	 0.00000000E+00	 2.50000000E-01
					-5.00000000E-02	 3.00000000E-01	 2.50000000E-01
					-5.00000000E-02	 0.00000000E+00	 3.00000000E-01
					-5.00000000E-02	 3.00000000E-01	 3.00000000E-01
					-5.00000000E-02	 0.00000000E+00	 3.50000000E-01
					-5.00000000E-02	 3.00000000E-01	 3.50000000E-01
					-5.00000000E-02	 0.00000000E+00	 4.00000000E-01
					-5.00000000E-02	 3.00000000E-01	 4.00000000E-01
					-5.00000000E-02	 0.00000000E+00	 4.50000000E-01
					-5.00000000E-02	 3.00000000E-01	 4.50000000E-01
					-5.00000000E-02	 0.00000000E+00	 5.00000000E-01
					-5.00000000E-02	 3.00000000E-01	 5.00000000E-01
					-5.00000000E-02	 0.00000000E+00	 5.50000000E-01
					-5.00000000E-02	 3.00000000E-01	 5.50000000E-01
					-5.00000000E-02	 0.00000000E+00	 6.00000000E-01
					-5.00000000E-02	 3.00000000E-01	 6.00000000E-01
					-5.00000000E-02	 0.00000000E+00	 6.50000000E-01
					-5.00000000E-02	 3.00000000E-01	 6.50000000E-01
					-5.00000000E-02	 0.00000000E+00	 7.00000000E-01
					-5.00000000E-02	 3.00000000E-01	 7.00000000E-01
					-5.00000000E-02	 0.00000000E+00	 7.50000000E-01
					-5.00000000E-02	 3.00000000E-01	 7.50000000E-01
					-5.00000000E-02	 0.00000000E+00	 8.00000000E-01
					-5.00000000E-02	 3.00000000E-01	 8.00000000E-01
					-5.00000000E-02	 0.00000000E+00	 8.50000000E-01
					-5.00000000E-02	 3.00000000E-01	 8.50000000E-01
					-5.00000000E-02	 0.00000000E+00	 9.00000000E-01
					-5.00000000E-02	 3.00000000E-01	 9.00000000E-01
					-5.00000000E-02	 0.00000000E+00	 9.50000000E-01
					-5.00000000E-02	 3.00000000E-01	 9.50000000E-01
					-5.00000000E-02	 0.00000000E+00	 1.00000000E+00
					-5.00000000E-02	 3.00000000E-01	 1.00000000E+00

				</DataArray>
			</Points>
			<Cells>
				<DataArray type="Int32" Name="connectivity" format="ascii">
					0 1 2 3 4 5 6 7 3 2 8 9 7 6 10 11 9 8 12 13 11 10 14 15 13 12 16 17 15 14 18 19 17 16 20 21 19 18 22 23 21 20 24 25 23 22 26 27 25 24 28 29 27 26 30 31 29 28 32 33 31 30 34 35 33 32 36 37 35 34 38 39 37 36 40 41 39 38 42 43 41 40 44 45 43 42 46 47 45 44 48 49 47 46 50 51 49 48 52 53 51 50 54 55 53 52 56 57 55 54 58 59 57 56 60 61 59 58 62 63 61 60 64 65 63 62 66 67 65 64 68 69 67 66 70 71 69 68 72 73 71 70 74 75 73 72 76 77 75 74 78 79 77 76 80 81 79 78 82 83 1 84 85 2 5 86 87 6 2 85 88 8 6 87 89 10 8 88 90 12 10 89 91 14 12 90 92 16 14 91 93 18 16 92 94 20 18 93 95 22 20 94 96 24 22 95 97 26 24 96 98 28 26 97 99 30 28 98 100 32 30 99 101 34 32 100 102 36 34 101 103 38 36 102 104 40 38 103 105 42 40 104 106 44 42 105 107 46 44 106 108 48 46 107 109 50 48 108 110 52 50 109 111 54 52 110 112 56 54 111 113 58 56 112 114 60 58 113 115 62 60 114 116 64 62 115 117 66 64 116 118 68 66 117 119 70 68 118 120 72 70 119 121 74 72 120 122 76 74 121 123 78 76 122 124 80 78 123 125 82 
				</DataArray>
				<DataArray type="Int32" Name="offsets" format="ascii">
					8 16 24 32 40 48 56 64 72 80 88 96 104 112 120 128 136 144 152 160 168 176 184 192 200 208 216 224 232 240 248 256 264 272 280 288 296 304 312 320 
				</DataArray>
				<DataArray type="UInt8" Name="types" format="ascii">
					12 12 12 12 12 12 12 12 12 12 12 12 12 12 12 12 12 12 12 12 12 12 12 12 12 12 12 12 12 12 12 12 12 12 12 12 12 12 12 12 
				</DataArray>
			</Cells>
			<PointData>
				<DataArray type="Float32" Name="U" NumberOfComponents="3" ComponentName0="D1" ComponentName1="D2" ComponentName2="D3" format="ascii">
					 0.00000000E+00	 0.00000000E+00	 0.00000000E+00
					 0.00000000E+00	 0.00000000E+00	 0.00000000E+00
					 2.96769000E-03	 0.00000000E+00	-4.64426000E-04
					 3.36601000E-03	 0.00000000E+00	-6.86841000E-03
					 0.00000000E+00	 0.00000000E+00	 0.00000000E+00
					 0.00000000E+00	 0.00000000E+00	 0.00000000E+00
					 2.96769000E-03	 0.00000000E+00	-4.64426000E-04
					 3.36601000E-03	 0.00000000E+00	-6.86841000E-03
					 1.27440000E-02	 0.00000000E+00	-1.64927000E-03
					 1.17072000E-02	 0.00000000E+00	-1.42548000E-02
					 1.27440000E-02	 0.00000000E+00	-1.64927000E-03
					 1.17072000E-02	 0.00000000E+00	-1.42548000E-02
					 2.82211000E-02	 0.00000000E+00	-4.30376000E-03
					 2.53922000E-02	 0.00000000E+00	-2.25344000E-02
					 2.82211000E-02	 0.00000000E+00	-4.30376000E-03
					 2.53922000E-02	 0.00000000E+00	-2.25344000E-02
					 4.89936000E-02	 0.00000000E+00	-8.96410000E-03
					 4.38324000E-02	 0.00000000E+00	-3.22565000E-02
					 4.89936000E-02	 0.00000000E+00	-8.96410000E-03
					 4.38324000E-02	 0.00000000E+00	-3.22565000E-02
					 7.45369000E-02	 0.00000000E+00	-1.60533000E-02
					 6.66750000E-02	 0.00000000E+00	-4.38661000E-02
					 7.45369000E-02	 0.00000000E+00	-1.60533000E-02
					 6.66750000E-02	 0.00000000E+00	-4.38661000E-02
					 1.04354000E-01	 0.00000000E+00	-2.59203000E-02
					 9.35403000E-02	 0.00000000E+00	-5.76922000E-02
					 1.04354000E-01	 0.00000000E+00	-2.59203000E-02
					 9.35403000E-02	 0.00000000E+00	-5.76922000E-02
					 1.37898000E-01	 0.00000000E+00	-3.87818000E-02
					 1.24050000E-01	 0.00000000E+00	-7.39066000E-02
					 1.37898000E-01	 0.00000000E+00	-3.87818000E-02
					 1.24050000E-01	 0.00000000E+00	-7.39066000E-02
					 1.74549000E-01	 0.00000000E+00	-5.46459000E-02
					 1.57774000E-01	 0.00000000E+00	-9.24850000E-02
					 1.74549000E-01	 0.00000000E+00	-5.46459000E-02
					 1.57774000E-01	 0.00000000E+00	-9.24850000E-02
					 2.13649000E-01	 0.00000000E+00	-7.32905000E-02
					 1.94215000E-01	 0.00000000E+00	-1.13238000E-01
					 2.13649000E-01	 0.00000000E+00	-7.32905000E-02
					 1.94215000E-01	 0.00000000E+00	-1.13238000E-01
					 2.54611000E-01	 0.00000000E+00	-9.43578000E-02
					 2.32861000E-01	 0.00000000E+00	-1.35908000E-01
					 2.54611000E-01	 0.00000000E+00	-9.43578000E-02
					 2.32861000E-01	 0.00000000E+00	-1.35908000E-01
					 2.96976000E-01	 0.00000000E+00	-1.17479000E-01
					 2.73256000E-01	 0.00000000E+00	-1.60243000E-01
					 2.96976000E-01	 0.00000000E+00	-1.17479000E-01
					 2.73256000E-01	 0.00000000E+00	-1.60243000E-01
					 3.40413000E-01	 0.00000000E+00	-1.42339000E-01
					 3.15038000E-01	 0.00000000E+00	-1.86028000E-01
					 3.40413000E-01	 0.00000000E+00	-1.42339000E-01
					 3.15038000E-01	 0.00000000E+00	-1.86028000E-01
					 3.84670000E-01	 0.00000000E+00	-1.68665000E-01
					 3.57935000E-01	 0.00000000E+00	-2.13052000E-01
					 3.84670000E-01	 0.00000000E+00	-1.68665000E-01
					 3.57935000E-01	 0.00000000E+00	-2.13052000E-01
					 4.29536000E-01	 0.00000000E+00	-1.96184000E-01
					 4.01733000E-01	 0.00000000E+00	-2.41077000E-01
					 4.29536000E-01	 0.00000000E+00	-1.96184000E-01
					 4.01733000E-01	 0.00000000E+00	-2.41077000E-01
					 4.74815000E-01	 0.00000000E+00	-2.24596000E-01
					 4.46225000E-01	 0.00000000E+00	-2.69840000E-01
					 4.74815000E-01	 0.00000000E+00	-2.24596000E-01
					 4.46225000E-01	 0.00000000E+00	-2.69840000E-01
					 5.20349000E-01	 0.00000000E+00	-2.53623000E-01
					 4.91210000E-01	 0.00000000E+00	-2.99102000E-01
					 5.20349000E-01	 0.00000000E+00	-2.53623000E-01
					 4.91210000E-01	 0.00000000E+00	-2.99102000E-01
					 5.66035000E-01	 0.00000000E+00	-2.83063000E-01
					 5.36525000E-01	 0.00000000E+00	-3.28698000E-01
					 5.66035000E-01	 0.00000000E+00	-2.83063000E-01
					 5.36525000E-01	 0.00000000E+00	-3.28698000E-01
					 6.11817000E-01	 0.00000000E+00	-3.12789000E-01
					 5.82069000E-01	 0.00000000E+00	-3.58521000E-01
					 6.11817000E-01	 0.00000000E+00	-3.12789000E-01
					 5.82069000E-01	 0.00000000E+00	-3.58521000E-01
					 6.57648000E-01	 0.00000000E+00	-3.42680000E-01
					 6.27775000E-01	 0.00000000E+00	-3.88454000E-01
					 6.57648000E-01	 0.00000000E+00	-3.42680000E-01
					 6.27775000E-01	 0.00000000E+00	-3.88454000E-01
					 7.03480000E-01	 0.00000000E+00	-3.72599000E-01
					 6.73556000E-01	 0.00000000E+00	-4.18397000E-01
					 7.03480000E-01	 0.00000000E+00	-3.72599000E-01
					 6.73556000E-01	 0.00000000E+00	-4.18397000E-01
					 0.00000000E+00	 0.00000000E+00	 0.00000000E+00
					 4.50696000E-03	 0.00000000E+00	 5.79853000E-03
					 0.00000000E+00	 0.00000000E+00	 0.00000000E+00
					 4.50696000E-03	 0.00000000E+00	 5.79853000E-03
					 1.52206000E-02	 0.00000000E+00	 1.05443000E-02
					 1.52206000E-02	 0.00000000E+00	 1.05443000E-02
					 3.24062000E-02	 0.00000000E+00	 1.33562000E-02
					 3.24062000E-02	 0.00000000E+00	 1.33562000E-02
					 5.53636000E-02	 0.00000000E+00	 1.36667000E-02
					 5.53636000E-02	 0.00000000E+00	 1.36667000E-02
					 8.34660000E-02	 0.00000000E+00	 1.10189000E-02
					 8.34660000E-02	 0.00000000E+00	 1.10189000E-02
					 1.16075000E-01	 0.00000000E+00	 5.05742000E-03
					 1.16075000E-01	 0.00000000E+00	 5.05742000E-03
					 1.52482000E-01	 0.00000000E+00	-4.45249000E-03
					 1.52482000E-01	 0.00000000E+00	-4.45249000E-03
					 1.91899000E-01	 0.00000000E+00	-1.75493000E-02
					 1.91899000E-01	 0.00000000E+00	-1.75493000E-02
					 2.33524000E-01	 0.00000000E+00	-3.39945000E-02
					 2.33524000E-01	 0.00000000E+00	-3.39945000E-02
					 2.76698000E-01	 0.00000000E+00	-5.33615000E-02
					 2.76698000E-01	 0.00000000E+00	-5.33615000E-02
					 3.20955000E-01	 0.00000000E+00	-7.51774000E-02
					 3.20955000E-01	 0.00000000E+00	-7.51774000E-02
					 3.65985000E-01	 0.00000000E+00	-9.90349000E-02
					 3.65985000E-01	 0.00000000E+00	-9.90349000E-02
					 4.11550000E-01	 0.00000000E+00	-1.24590000E-01
					 4.11550000E-01	 0.00000000E+00	-1.24590000E-01
					 4.57439000E-01	 0.00000000E+00	-1.51529000E-01
					 4.57439000E-01	 0.00000000E+00	-1.51529000E-01
					 5.03471000E-01	 0.00000000E+00	-1.79524000E-01
					 5.03471000E-01	 0.00000000E+00	-1.79524000E-01
					 5.49529000E-01	 0.00000000E+00	-2.08263000E-01
					 5.49529000E-01	 0.00000000E+00	-2.08263000E-01
					 5.95571000E-01	 0.00000000E+00	-2.37508000E-01
					 5.95571000E-01	 0.00000000E+00	-2.37508000E-01
					 6.41579000E-01	 0.00000000E+00	-2.67107000E-01
					 6.41579000E-01	 0.00000000E+00	-2.67107000E-01
					 6.87523000E-01	 0.00000000E+00	-2.96927000E-01
					 6.87523000E-01	 0.00000000E+00	-2.96927000E-01
					 7.33379000E-01	 0.00000000E+00	-3.26822000E-01
					 7.33379000E-01	 0.00000000E+00	-3.26822000E-01
				</DataArray>
				<DataArray type="Float32" Name="S" NumberOfComponents="10" ComponentName0="xx" ComponentName1="yy" ComponentName2="zz" ComponentName3="xy" ComponentName4="yz" ComponentName5="zx" ComponentName6="Mises" ComponentName7="Min Principal" ComponentName8="Mid Principal" ComponentName9="Max Principal" format="ascii">
					-4.57107000E+03	-4.84593000E+03	-1.52115000E+04	 0.00000000E+00	 0.00000000E+00	 2.27928000E+03	 1.12229685E+04	-1.56791866E+04	-4.84593000E+03	-4.10338340E+03
					-6.03941000E+01	-2.50276000E+02	-1.83390000E+03	 0.00000000E+00	 0.00000000E+00	 2.83531000E+03	 5.19245318E+03	-3.91788999E+03	-2.50276000E+02	 2.02359589E+03
					-2.48062000E+02	-3.15755000E+02	-1.71915000E+03	 2.60914000E-08	 1.38644000E-08	-1.14289000E+02	 1.45199374E+03	-1.72797617E+03	-3.15755000E+02	-2.39235829E+02
					-2.36286000E+03	-4.09158000E+03	-1.42785000E+04	 2.67274000E-08	 0.00000000E+00	-1.20865000E+03	 1.13470106E+04	-1.43998620E+04	-4.09158000E+03	-2.24149798E+03
					-4.57107000E+03	-4.84593000E+03	-1.52115000E+04	 0.00000000E+00	 0.00000000E+00	 2.27928000E+03	 1.12229685E+04	-1.56791866E+04	-4.84593000E+03	-4.10338340E+03
					-6.03941000E+01	-2.50276000E+02	-1.83390000E+03	 0.00000000E+00	 0.00000000E+00	 2.83531000E+03	 5.19245318E+03	-3.91788999E+03	-2.50276000E+02	 2.02359589E+03
					-2.48062000E+02	-3.15755000E+02	-1.71915000E+03	 2.60915000E-08	 1.38644000E-08	-1.14289000E+02	 1.45199374E+03	-1.72797617E+03	-3.15755000E+02	-2.39235829E+02
					-2.36286000E+03	-4.09158000E+03	-1.42785000E+04	 2.67272000E-08	 0.00000000E+00	-1.20865000E+03	 1.13470106E+04	-1.43998620E+04	-4.09158000E+03	-2.24149798E+03
					-3.07627000E+02	-2.65092000E+02	-1.48187000E+03	 3.95387000E-08	 1.29402000E-08	-2.81484000E+01	 1.19707112E+03	-1.48254437E+03	-3.06952627E+02	-2.65092000E+02
					-3.34648000E+03	-4.05682000E+03	-1.33692000E+04	 4.14713000E-08	 1.29612000E-09	-2.61923000E+03	 1.06967779E+04	-1.40124041E+04	-4.05682000E+03	-2.70327593E+03
					-3.07627000E+02	-2.65092000E+02	-1.48187000E+03	 3.95386000E-08	 1.29400000E-08	-2.81484000E+01	 1.19707112E+03	-1.48254437E+03	-3.06952627E+02	-2.65092000E+02
					-3.34648000E+03	-4.05682000E+03	-1.33692000E+04	 4.14711000E-08	 1.29627000E-09	-2.61923000E+03	 1.06967779E+04	-1.40124041E+04	-4.05682000E+03	-2.70327593E+03
					-2.54806000E+02	-2.19240000E+02	-1.23927000E+03	 4.28433000E-08	 3.52981000E-08	-1.43336000E+02	 1.03299728E+03	-1.25971485E+03	-2.34361152E+02	-2.19240000E+02
					-3.66095000E+03	-3.71897000E+03	-1.18758000E+04	 1.99703000E-08	 2.84135000E-08	-3.50403000E+03	 1.01904455E+04	-1.31673718E+04	-3.71897000E+03	-2.36937821E+03
					-2.54806000E+02	-2.19240000E+02	-1.23927000E+03	 4.28431000E-08	 3.52978000E-08	-1.43336000E+02	 1.03299728E+03	-1.25971485E+03	-2.34361152E+02	-2.19240000E+02
					-3.66095000E+03	-3.71897000E+03	-1.18758000E+04	 1.99722000E-08	 2.84130000E-08	-3.50403000E+03	 1.01904455E+04	-1.31673718E+04	-3.71897000E+03	-2.36937821E+03
					-2.26417000E+02	-1.74261000E+02	-1.00326000E+03	 7.45709000E-08	 4.29338000E-08	-1.57130000E+02	 8.48994599E+02	-1.03383862E+03	-1.95838382E+02	-1.74261000E+02
					-4.27439000E+03	-3.47170000E+03	-1.04097000E+04	 6.77400000E-08	 3.03398000E-08	-4.09550000E+03	 9.67111435E+03	-1.24590390E+04	-3.47170000E+03	-2.22505101E+03
					-2.26417000E+02	-1.74261000E+02	-1.00326000E+03	 7.45710000E-08	 4.29344000E-08	-1.57130000E+02	 8.48994599E+02	-1.03383862E+03	-1.95838382E+02	-1.74261000E+02
					-4.27439000E+03	-3.47170000E+03	-1.04097000E+04	 6.77348000E-08	 3.03396000E-08	-4.09550000E+03	 9.67111435E+03	-1.24590390E+04	-3.47170000E+03	-2.22505101E+03
					-1.60461000E+02	-1.31248000E+02	-8.07931000E+02	 8.67223000E-08	 4.66154000E-08	-1.30112000E+02	 6.99837652E+02	-8.33099257E+02	-1.35292743E+02	-1.31248000E+02
					-4.84227000E+03	-3.22354000E+03	-8.95846000E+03	 9.43963000E-08	 4.66321000E-08	-4.37177000E+03	 9.14130330E+03	-1.17323551E+04	-3.22354000E+03	-2.06837494E+03
					-1.60461000E+02	-1.31248000E+02	-8.07931000E+02	 8.67275000E-08	 4.66151000E-08	-1.30112000E+02	 6.99837652E+02	-8.33099257E+02	-1.35292743E+02	-1.31248000E+02
					-4.84227000E+03	-3.22354000E+03	-8.95846000E+03	 9.43945000E-08	 4.66332000E-08	-4.37177000E+03	 9.14130330E+03	-1.17323551E+04	-3.22354000E+03	-2.06837494E+03
					-3.31204000E+01	-9.11776000E+01	-6.85406000E+02	 5.81223000E-08	 8.79004000E-08	-8.48540000E+01	 6.42322248E+02	-6.96263686E+02	-9.11776000E+01	-2.22627144E+01
					-5.24666000E+03	-2.94629000E+03	-7.53382000E+03	 5.94439000E-08	 1.04334000E-07	-4.35564000E+03	 8.52636597E+03	-1.08935027E+04	-2.94629000E+03	-1.88697729E+03
					-3.31204000E+01	-9.11776000E+01	-6.85406000E+02	 5.81230000E-08	 8.79008000E-08	-8.48540000E+01	 6.42322248E+02	-6.96263686E+02	-9.11776000E+01	-2.22627144E+01
					-5.24666000E+03	-2.94629000E+03	-7.53382000E+03	 5.94411000E-08	 1.04334000E-07	-4.35564000E+03	 8.52636597E+03	-1.08935027E+04	-2.94629000E+03	-1.88697729E+03
					 1.46252000E+02	-4.85651000E+01	-6.00648000E+02	 2.60211000E-08	 1.19168000E-07	-5.51619000E+01	 6.77814817E+02	-6.04699970E+02	-4.85651000E+01	 1.50303970E+02
					-5.35011000E+03	-2.60688000E+03	-6.13835000E+03	 4.17781000E-08	 1.30238000E-07	-4.07103000E+03	 7.74782631E+03	-9.83429306E+03	-2.60688000E+03	-1.65416694E+03
					 1.46252000E+02	-4.85651000E+01	-6.00648000E+02	 2.60226000E-08	 1.19164000E-07	-5.51619000E+01	 6.77814817E+02	-6.04699970E+02	-4.85651000E+01	 1.50303970E+02
					-5.35011000E+03	-2.60688000E+03	-6.13835000E+03	 4.17805000E-08	 1.30240000E-07	-4.07103000E+03	 7.74782631E+03	-9.83429306E+03	-2.60688000E+03	-1.65416694E+03
					 3.13887000E+02	-8.18071000E+00	-5.16777000E+02	 1.91819000E-08	 1.20911000E-07	-3.97115000E+01	 7.28650292E+02	-5.18671166E+02	-8.18071000E+00	 3.15781166E+02
					-5.12124000E+03	-2.21539000E+03	-4.82499000E+03	 3.08805000E-08	 1.39812000E-07	-3.58205000E+03	 6.79441806E+03	-8.55822633E+03	-2.21539000E+03	-1.38800367E+03
					 3.13887000E+02	-8.18071000E+00	-5.16777000E+02	 1.91830000E-08	 1.20912000E-07	-3.97115000E+01	 7.28650292E+02	-5.18671166E+02	-8.18071000E+00	 3.15781166E+02
					-5.12124000E+03	-2.21539000E+03	-4.82499000E+03	 3.08852000E-08	 1.39814000E-07	-3.58205000E+03	 6.79441806E+03	-8.55822633E+03	-2.21539000E+03	-1.38800367E+03
					 4.28905000E+02	 2.69390000E+01	-4.11639000E+02	 2.11119000E-08	 1.21464000E-07	-2.48946000E+01	 7.29438136E+02	-4.12375664E+02	 2.69390000E+01	 4.29641664E+02
					-4.64737000E+03	-1.81959000E+03	-3.68133000E+03	 1.68973000E-08	 1.31667000E-07	-2.99441000E+03	 5.75302513E+03	-7.19746714E+03	-1.81959000E+03	-1.13123286E+03
					 4.28905000E+02	 2.69390000E+01	-4.11639000E+02	 2.10990000E-08	 1.21462000E-07	-2.48946000E+01	 7.29438136E+02	-4.12375664E+02	 2.69390000E+01	 4.29641664E+02
					-4.64737000E+03	-1.81959000E+03	-3.68133000E+03	 1.69012000E-08	 1.31670000E-07	-2.99441000E+03	 5.75302513E+03	-7.19746714E+03	-1.81959000E+03	-1.13123286E+03
					 4.89017000E+02	 5.36027000E+01	-3.01667000E+02	-4.56554000E-09	 1.42754000E-07	-1.11184000E+00	 6.85926664E+02	-3.01668563E+02	 5.36027000E+01	 4.89018563E+02
					-4.06035000E+03	-1.46492000E+03	-2.76432000E+03	-9.48593000E-09	 1.38116000E-07	-2.41696000E+03	 4.75155579E+03	-5.91465774E+03	-1.46492000E+03	-9.10012263E+02
					 4.89017000E+02	 5.36027000E+01	-3.01667000E+02	-4.55895000E-09	 1.42759000E-07	-1.11184000E+00	 6.85926664E+02	-3.01668563E+02	 5.36027000E+01	 4.89018563E+02
					-4.06035000E+03	-1.46492000E+03	-2.76432000E+03	-9.49437000E-09	 1.38115000E-07	-2.41696000E+03	 4.75155579E+03	-5.91465774E+03	-1.46492000E+03	-9.10012263E+02
					 5.20161000E+02	 7.21237000E+01	-2.12254000E+02	-2.39471000E-08	 1.35372000E-07	 2.38952000E+01	 6.40884433E+02	-2.13032758E+02	 7.21237000E+01	 5.20939758E+02
					-3.45614000E+03	-1.17027000E+03	-2.07666000E+03	-4.20366000E-08	 1.12251000E-07	-1.91291000E+03	 3.86684998E+03	-4.79986156E+03	-1.17027000E+03	-7.32938435E+02
					 5.20161000E+02	 7.21237000E+01	-2.12254000E+02	-2.39366000E-08	 1.35365000E-07	 2.38952000E+01	 6.40884433E+02	-2.13032758E+02	 7.21237000E+01	 5.20939758E+02
					-3.45614000E+03	-1.17027000E+03	-2.07666000E+03	-4.20406000E-08	 1.12261000E-07	-1.91291000E+03	 3.86684998E+03	-4.79986156E+03	-1.17027000E+03	-7.32938435E+02
					 5.38851000E+02	 8.26712000E+01	-1.57931000E+02	-3.23776000E-08	 9.84788000E-08	 3.70632000E+01	 6.16334596E+02	-1.59896918E+02	 8.26712000E+01	 5.40816918E+02
					-2.85598000E+03	-9.24398000E+02	-1.56749000E+03	-7.50083000E-08	 6.78493000E-08	-1.49555000E+03	 3.10038720E+03	-3.84014570E+03	-9.24398000E+02	-5.83324296E+02
					 5.38851000E+02	 8.26712000E+01	-1.57931000E+02	-3.23858000E-08	 9.84758000E-08	 3.70632000E+01	 6.16334596E+02	-1.59896918E+02	 8.26712000E+01	 5.40816918E+02
					-2.85598000E+03	-9.24398000E+02	-1.56749000E+03	-7.50142000E-08	 6.78446000E-08	-1.49555000E+03	 3.10038720E+03	-3.84014570E+03	-9.24398000E+02	-5.83324296E+02
					 5.42045000E+02	 8.62369000E+01	-1.29288000E+02	-1.26985000E-08	 1.56393000E-08	 3.28809000E+01	 5.96400421E+02	-1.30894613E+02	 8.62369000E+01	 5.43651613E+02
					-2.25123000E+03	-7.08777000E+02	-1.17591000E+03	-6.97236000E-08	-1.80802000E-08	-1.14525000E+03	 2.41073360E+03	-2.97874818E+03	-7.08777000E+02	-4.48391816E+02
					 5.42045000E+02	 8.62369000E+01	-1.29288000E+02	-1.27010000E-08	 1.56412000E-08	 3.28809000E+01	 5.96400421E+02	-1.30894613E+02	 8.62369000E+01	 5.43651613E+02
					-2.25123000E+03	-7.08777000E+02	-1.17591000E+03	-6.97074000E-08	-1.80766000E-08	-1.14525000E+03	 2.41073360E+03	-2.97874818E+03	-7.08777000E+02	-4.48391816E+02
					 5.12987000E+02	 8.28910000E+01	-1.08067000E+02	 2.42061000E-09	-4.86255000E-08	 2.08675000E+01	 5.52163161E+02	-1.08767361E+02	 8.28910000E+01	 5.13687361E+02
					-1.65822000E+03	-5.15054000E+02	-8.55634000E+02	-4.28692000E-08	-6.49339000E-08	-8.43272000E+02	 1.77955240E+03	-2.19081336E+03	-5.15054000E+02	-3.23040638E+02
					 5.12987000E+02	 8.28910000E+01	-1.08067000E+02	 2.44650000E-09	-4.86351000E-08	 2.08675000E+01	 5.52163161E+02	-1.08767361E+02	 8.28910000E+01	 5.13687361E+02
					-1.65822000E+03	-5.15054000E+02	-8.55634000E+02	-4.29004000E-08	-6.49354000E-08	-8.43272000E+02	 1.77955240E+03	-2.19081336E+03	-5.15054000E+02	-3.23040638E+02
					 4.42818000E+02	 7.29059000E+01	-8.27739000E+01	 5.27250000E-09	-7.45424000E-08	 1.36742000E+01	 4.68209307E+02	-8.31294179E+01	 7.29059000E+01	 4.43173518E+02
					-1.14234000E+03	-3.53535000E+02	-5.96958000E+02	-1.16912000E-08	-8.49600000E-08	-5.88974000E+02	 1.23698259E+03	-1.51868733E+03	-3.53535000E+02	-2.20610670E+02
					 4.42818000E+02	 7.29059000E+01	-8.27739000E+01	 5.29772000E-09	-7.45318000E-08	 1.36742000E+01	 4.68209307E+02	-8.31294179E+01	 7.29059000E+01	 4.43173518E+02
					-1.14234000E+03	-3.53535000E+02	-5.96958000E+02	-1.17047000E-08	-8.49734000E-08	-5.88974000E+02	 1.23698259E+03	-1.51868733E+03	-3.53535000E+02	-2.20610670E+02
					 3.49164000E+02	 5.89131000E+01	-5.63895000E+01	 1.99508000E-08	-9.04328000E-08	 9.88895000E+00	 3.62353877E+02	-5.66304873E+01	 5.89131000E+01	 3.49404987E+02
					-7.53574000E+02	-2.33064000E+02	-3.99627000E+02	 7.40066000E-09	-9.03087000E-08	-3.97515000E+02	 8.28269709E+02	-1.01173013E+03	-2.33064000E+02	-1.41470870E+02
					 3.49164000E+02	 5.89131000E+01	-5.63895000E+01	 1.99595000E-08	-9.04435000E-08	 9.88895000E+00	 3.62353877E+02	-5.66304873E+01	 5.89131000E+01	 3.49404987E+02
					-7.53574000E+02	-2.33064000E+02	-3.99627000E+02	 7.43176000E-09	-9.03013000E-08	-3.97515000E+02	 8.28269709E+02	-1.01173013E+03	-2.33064000E+02	-1.41470870E+02
					 2.62036000E+02	 4.44286000E+01	-4.03755000E+01	 1.55251000E-08	-9.34934000E-08	 1.03554000E+00	 2.70188698E+02	-4.03790459E+01	 4.44286000E+01	 2.62039546E+02
					-4.71866000E+02	-1.47514000E+02	-2.60683000E+02	 3.03640000E-08	-9.30763000E-08	-2.64475000E+02	 5.39579399E+02	-6.51049131E+02	-1.47514000E+02	-8.14998689E+01
					 2.62036000E+02	 4.44286000E+01	-4.03755000E+01	 1.55279000E-08	-9.34948000E-08	 1.03554000E+00	 2.70188698E+02	-4.03790459E+01	 4.44286000E+01	 2.62039546E+02
					-4.71866000E+02	-1.47514000E+02	-2.60683000E+02	 3.03605000E-08	-9.30865000E-08	-2.64475000E+02	 5.39579399E+02	-6.51049131E+02	-1.47514000E+02	-8.14998689E+01
					 1.94818000E+02	 3.29604000E+01	-3.00051000E+01	-1.49007000E-08	-6.18405000E-08	-9.24861000E+00	 2.01520699E+02	-3.03849209E+01	 3.29604000E+01	 1.95197821E+02
					-2.42581000E+02	-7.95174000E+01	-1.53383000E+02	 2.73146000E-08	-4.50010000E-08	-1.62067000E+02	 3.14321828E+02	-3.66073592E+02	-7.95174000E+01	-2.98904080E+01
					 1.94818000E+02	 3.29604000E+01	-3.00051000E+01	-1.48850000E-08	-6.18234000E-08	-9.24861000E+00	 2.01520699E+02	-3.03849209E+01	 3.29604000E+01	 1.95197821E+02
					-2.42581000E+02	-7.95174000E+01	-1.53383000E+02	 2.73014000E-08	-4.50021000E-08	-1.62067000E+02	 3.14321828E+02	-3.66073592E+02	-7.95174000E+01	-2.98904080E+01
					 1.36268000E+02	 2.48529000E+01	-1.19123000E+01	-5.77486000E-08	 0.00000000E+00	-7.52581000E-01	 1.33652168E+02	-1.19161221E+01	 2.48529000E+01	 1.36271822E+02
					-7.96952000E+01	-3.08326000E+01	-7.42403000E+01	 5.23475000E-09	 2.69897000E-08	-7.18017000E+01	 1.32729881E+02	-1.48821234E+02	-3.08326000E+01	-5.11426639E+00
					 1.36268000E+02	 2.48529000E+01	-1.19123000E+01	-5.78172000E-08	 0.00000000E+00	-7.52581000E-01	 1.33652168E+02	-1.19161221E+01	 2.48529000E+01	 1.36271822E+02
					-7.96952000E+01	-3.08326000E+01	-7.42403000E+01	 5.29776000E-09	 2.69891000E-08	-7.18017000E+01	 1.32729881E+02	-1.48821234E+02	-3.08326000E+01	-5.11426639E+00
					 1.08279000E+02	 2.57161000E+01	 2.04423000E+01	-9.90397000E-08	 7.40239000E-08	 1.10139000E+01	 8.74287345E+01	 1.90823168E+01	 2.57161000E+01	 1.09638983E+02
					-2.87453000E+01	-8.37882000E+00	-1.31898000E+01	-2.31927000E-08	 9.56349000E-08	-2.35073000E+01	 4.46960375E+01	-4.57281346E+01	-8.37882000E+00	 3.79303457E+00
					 1.08279000E+02	 2.57161000E+01	 2.04423000E+01	-9.90309000E-08	 7.39909000E-08	 1.10139000E+01	 8.74287345E+01	 1.90823168E+01	 2.57161000E+01	 1.09638983E+02
					-2.87453000E+01	-8.37882000E+00	-1.31898000E+01	-2.31830000E-08	 9.56334000E-08	-2.35073000E+01	 4.46960375E+01	-4.57281346E+01	-8.37882000E+00	 3.79303457E+00
					 4.46462000E+03	 3.78089000E+03	 1.79282000E+04	 0.00000000E+00	 0.00000000E+00	 5.83750000E+03	 1.71222120E+04	 2.28611243E+03	 3.78089000E+03	 2.01067076E+04
					 1.70615000E+03	 3.11876000E+03	 1.68020000E+04	 2.54506000E-08	 3.55059000E-08	 2.53303000E+03	 1.50931881E+04	 1.29245376E+03	 3.11876000E+03	 1.72156962E+04
					 4.46462000E+03	 3.78089000E+03	 1.79282000E+04	 0.00000000E+00	 0.00000000E+00	 5.83750000E+03	 1.71222120E+04	 2.28611243E+03	 3.78089000E+03	 2.01067076E+04