<?xml version="1.0"?>
<VTKFile type="UnstructuredGrid" version="0.1" byte_order="LittleEndian">
	<UnstructuredGrid>
		<Piece NumberOfPoints="126" NumberOfCells="40">
			<Points>
				<DataArray type="Float64" NumberOfComponents="3" format="ascii">
					 5.00000000E-02	 0.00000000E+00	 0.00000000E+00
					 0.00000000E+00	 0.00000000E+00	 0.00000000E+00
					 0.00000000E+00	 0.00000000E+00	 5.00000000E-02
					 5.00000000E-02	 0.00000000E+00	 5.00000000E-02
					 5.00000000E-02	 3.00000000E-01	 0.00000000E+00
					 0.00000000E+00	 3.00000000E-01	 0.00000000E+00
					 0.00000000E+00	 3.00000000E-01	 5.00000000E-02
					 5.00000000E-02	 3.00000000E-01	 5.00000000E-02
					 0.00000000E+00	 0.00000000E+00	 1.00000000E-01
					 5.00000000E-02	 0.00000000E+00	 1.00000000E-01
					 0.00000000E+00	 3.00000000E-01	 1.00000000E-01
					 5.00000000E-02	 3.00000000E-01	 1.00000000E-01
					 0.00000000E+00	 0.00000000E+00	 1.50000000E-01
					 5.00000000E-02	 0.00000000E+00	 1.50000000E-01
					 0.00000000E+00	 3.00000000E-01	 1.50000000E-01
					 5.00000000E-02	 3.00000000E-01	 1.50000000E-01
					 0.00000000E+00	 0.00000000E+00	 2.00000000E-01
					 5.00000000E-02	 0.00000000E+00	 2.00000000E-01
					 0.00000000E+00	 3.00000000E-01	 2.00000000E-01
					 5.00000000E-02	 3.00000000E-01	 2.00000000E-01
					 0.00000000E+00	 0.00000000E+00	 2.50000000E-01
					 5.00000000E-02	 0.00000000E+00	 2.50000000E-01
					 0.00000000E+00	 3.00000000E-01	 2.50000000E-01
					 5.00000000E-02	 3.00000000E-01	 2.50000000E-01
					 0.00000000E+00	 0.00000000E+00	 3.00000000E-01
					 5.00000000E-02	 0.00000000E+00	 3.00000000E-01
					 0.00000000E+00	 3.00000000E-01	 3.00000000E-01
					 5.00000000E-02	 3.00000000E-01	 3.00000000E-01
					 0.00000000E+00	 0.00000000E+00	 3.50000000E-01
					 5.00000000E-02	 0.00000000E+00	 3.50000000E-01
					 0.00000000E+00	 3.00000000E-01	 3.50000000E-01
					 5.00000000E-02	 3.00000000E-01	 3.50000000E-01
					 0.00000000E+00	 0.00000000E+00	 4.00000000E-01
					 5.00000000E-02	 0.00000000E+00	 4.00000000E-01
					 0.00000000E+00	 3.00000000E-01	 4.00000000E-01
					 5.00000000E-02	 3.00000000E-01	 4.00000000E-01
					 0.00000000E+00	 0.00000000E+00	 4.50000000E-01
					 5.00000000E-02	 0.00000000E+00	 4.50000000E-01
					 0.00000000E+00	 3.00000000E-01	 4.50000000E-01
					 5.00000000E-02	 3.00000000E-01	 4.50000000E-01
					 0.00000000E+00	 0.00000000E+00	 5.00000000E-01
					 5.00000000E-02	 0.00000000E+00	 5.00000000E-01
					 0.00000000E+00	 3.00000000E-01	 5.00000000E-01
					 5.00000000E-02	 3.00000000E-01	 5.00000000E-01
					 0.00000000E+00	 0.00000000E+00	 5.50000000E-01
					 5.00000000E-02	 0.00000000E+00	 5.50000000E-01
					 0.00000000E+00	 3.00000000E-01	 5.50000000E-01
					 5.00000000E-02	 3.00000000E-01	 5.50000000E-01
					 0.00000000E+00	 0.00000000E+00	 6.00000000E-01
					 5.00000000E-02	 0.00000000E+00	 6.00000000E-01
					 0.00000000E+00	 3.00000000E-01	 6.00000000E-01
					 5.00000000E-02	 3.00000000E-01	 6.00000000E-01
					 0.00000000E+00	 0.00000000E+00	 6.50000000E-01
					 5.00000000E-02	 0.00000000E+00	 6.50000000E-01
					 0.00000000E+00	 3.00000000E-01	 6.50000000E-01
					 5.00000000E-02	 3.00000000E-01	 6.50000000E-01
					 0.00000000E+00	 0.00000000E+00	 7.00000000E-01
					 5.00000000E-02	 0.00000000E+00	 7.00000000E-01
					 0.00000000E+00	 3.00000000E-01	 7.00000000E-01
					 5.00000000E-02	 3.00000000E-01	 7.00000000E-01
					 0.00000000E+00	 0.00000000E+00	 7.50000000E-01
					 5.00000000E-02	 0.00000000E+00	 7.50000000E-01
					 0.00000000E+00	 3.00000000E-01	 7.50000000E-01
					 5.00000000E-02	 3.00000000E-01	 7.50000000E-01
					 0.00000000E+00	 0.00000000E+00	 8.00000000E-01
					 5.00000000E-02	 0.00000000E+00	 8.00000000E-01
					 0.00000000E+00	 3.00000000E-01	 8.00000000E-01
					 5.00000000E-02	 3.00000000E-01	 8.00000000E-01
					 0.00000000E+00	 0.00000000E+00	 8.50000000E-01
					 5.00000000E-02	 0.00000000E+00	 8.50000000E-01
					 0.00000000E+00	 3.00000000E-01	 8.50000000E-01
					 5.00000000E-02	 3.00000000E-01	 8.50000000E-01
					 0.00000000E+00	 0.00000000E+00	 9.00000000E-01
					 5.00000000E-02	 0.00000000E+00	 9.00000000E-01
					 0.00000000E+00	 3.00000000E-01	 9.00000000E-01
					 5.00000000E-02	 3.00000000E-01	 9.00000000E-01
					 0.00000000E+00	 0.00000000E+00	 9.50000000E-01
					 5.00000000E-02	 0.00000000E+00	 9.50000000E-01
					 0.00000000E+00	 3.00000000E-01	 9.50000000E-01
					 5.00000000E-02	 3.00000000E-01	 9.50000000E-01
					 0.00000000E+00	 0.00000000E+00	 1.00000000E+00
					 5.00000000E-02	 0.00000000E+00	 1.00000000E+00
					 0.00000000E+00	 3.00000000E-01	 1.00000000E+00
					 5.00000000E-02	 3.00000000E-01	 1.00000000E+00
					-5.00000000E-02	 0.00000000E+00	 0.00000000E+00
					-5.00000000E-02	 0.00000000E+00	 5.00000000E-02
					-5.00000000E-02	 3.00000000E-01	 0.00000000E+00
					-5.00000000E-02	 3.00000000E-01	 5.00000000E-02
					-5.00000000E-02	 0.00000000E+00	 1.00000000E-01
					-5.00000000E-02	 3.00000000E-01	 1.00000000E-01
					-5.00000000E-02	 0.00000000E+00	 1.50000000E-01
					-5.00000000E-02	 3.00000000E-01	 1.50000000E-01
					-5.00000000E-02	 0.00000000E+00	 2.00000000E-01
					-5.00000000E-02	 3.00000000E-01	 2.00000000E-01
					-5.00000000E-02	 0.00000000E+00	 2.50000000E-01
					-5.00000000E-02	 3.00000000E-01	 2.50000000E-01
					-5.00000000E-02	 0.00000000E+00	 3.00000000E-01
					-5.00000000E-02	 3.00000000E-01	 3.00000000E-01
					-5.00000000E-02	 0.00000000E+00	 3.50000000E-01
					-5.00000000E-02	 3.00000000E-01	 3.50000000E-01
					-5.00000000E-02	 0.00000000E+00	 4.00000000E-01
					-5.00000000E-02	 3.00000000E-01	 4.00000000E-01
					-5.00000000E-02	 0.00000000E+00	 4.50000000E-01
					-5.00000000E-02	 3.00000000E-01	 4.50000000E-01
					-5.00000000E-02	 0.00000000E+00	 5.00000000E-01
					-5.00000000E-02	 3.00000000E-01	 5.00000000E-01
					-5.00000000E-02	 0.00000000E+00	 5.50000000E-01
					-5.00000000E-02	 3.00000000E-01	 5.50000000E-01
					-5.00000000E-02	 0.00000000E+00	 6.00000000E-01
					-5.00000000E-02	 3.00000000E-01	 6.00000000E-01
					-5.00000000E-02	 0.00000000E+00	 6.50000000E-01
					-5.00000000E-02	 3.00000000E-01	 6.50000000E-01
					-5.00000000E-02	 0.00000000E+00	 7.00000000E-01
					-5.00000000E-02	 3.00000000E-01	 7.00000000E-01
					-5.00000000E-02	 0.00000000E+00	 7.50000000E-01
					-5.00000000E-02	 3.00000000E-01	 7.50000000E-01
					-5.00000000E-02	 0.00000000E+00	 8.00000000E-01
					-5.00000000E-02	 3.00000000E-01	 8.00000000E-01
					-5.00000000E-02	 0.00000000E+00	 8.50000000E-01
					-5.00000000E-02	 3.00000000E-01	 8.50000000E-01
					-5.00000000E-02	 0.00000000E+00	 9.00000000E-01
					-5.00000000E-02	 3.00000000E-01	 9.00000000E-01
					-5.00000000E-02	 0.00000000E+00	 9.50000000E-01
					-5.00000000E-02	 3.00000000E-01	 9.50000000E-01
					-5.00000000E-02	 0.00000000E+00	 1.00000000E+00
					-5.00000000E-02	 3.00000000E-01	 1.00000000E+00

				</DataArray>
			</Points>
			<Cells>
				<DataArray type="Int32" Name="connectivity" format="ascii">
					0 1 2 3 4 5 6 7 3 2 8 9 7 6 10 11 9 8 12 13 11 10 14 15 13 12 16 17 15 14 18 19 17 16 20 21 19 18 22 23 21 20 24 25 23 22 26 27 25 24 28 29 27 26 30 31 29 28 32 33 31 30 34 35 33 32 36 37 35 34 38 39 37 36 40 41 39 38 42 43 41 40 44 45 43 42 46 47 45 44 48 49 47 46 50 51 49 48 52 53 51 50 54 55 53 52 56 57 55 54 58 59 57 56 60 61 59 58 62 63 61 60 64 65 63 62 66 67 65 64 68 69 67 66 70 71 69 68 72 73 71 70 74 75 73 72 76 77 75 74 78 79 77 76 80 81 79 78 82 83 1 84 85 2 5 86 87 6 2 85 88 8 6 87 89 10 8 88 90 12 10 89 91 14 12 90 92 16 14 91 93 18 16 92 94 20 18 93 95 22 20 94 96 24 22 95 97 26 24 96 98 28 26 97 99 30 28 98 100 32 30 99 101 34 32 100 102 36 34 101 103 38 36 102 104 40 38 103 105 42 40 104 106 44 42 105 107 46 44 106 108 48 46 107 109 50 48 108 110 52 50 109 111 54 52 110 112 56 54 111 113 58 56 112 114 60 58 113 115 62 60 114 116 64 62 115 117 66 64 116 118 68 66 117 119 70 68 118 120 72 70 119 121 74 72 120 122 76 74 121 123 78 76 122 124 80 78 123 125 82 
				</DataArray>
				<DataArray type="Int32" Name="offsets" format="ascii">
					8 16 24 32 40 48 56 64 72 80 88 96 104 112 120 128 136 144 152 160 168 176 184 192 200 208 216 224 232 240 248 256 264 272 280 288 296 304 312 320 
				</DataArray>
				<DataArray type="UInt8" Name="types" format="ascii">
					12 12 12 12 12 12 12 12 12 12 12 12 12 12 12 12 12 12 12 12 12 12 12 12 12 12 12 12 12 12 12 12 12 12 12 12 12 12 12 12 
				</DataArray>
			</Cells>
			<PointData>
				<DataArray type="Float32" Name="U" NumberOfComponents="3" ComponentName0="D1" ComponentName1="D2" ComponentName2="D3" format="ascii">
					 0.00000000E+00	 0.00000000E+00	 0.00000000E+00
					 0.00000000E+00	 0.00000000E+00	 0.00000000E+00
					 3.32764000E-03	 0.00000000E+00	-4.18811000E-04
					 3.69064000E-03	 0.00000000E+00	-6.43573000E-03
					 0.00000000E+00	 0.00000000E+00	 0.00000000E+00
					 0.00000000E+00	 0.00000000E+00	 0.00000000E+00
					 3.32764000E-03	 0.00000000E+00	-4.18811000E-04
					 3.69064000E-03	 0.00000000E+00	-6.43573000E-03
					 1.27255000E-02	 0.00000000E+00	-1.41026000E-03
					 1.18869000E-02	 0.00000000E+00	-1.26664000E-02
					 1.27255000E-02	 0.00000000E+00	-1.41026000E-03
					 1.18869000E-02	 0.00000000E+00	-1.26664000E-02
					 2.66343000E-02	 0.00000000E+00	-3.41737000E-03
					 2.45771000E-02	 0.00000000E+00	-1.89827000E-02
					 2.66343000E-02	 0.00000000E+00	-3.41737000E-03
					 2.45771000E-02	 0.00000000E+00	-1.89827000E-02
					 4.43725000E-02	 0.00000000E+00	-6.62465000E-03
					 4.09271000E-02	 0.00000000E+00	-2.57738000E-02
					 4.43725000E-02	 0.00000000E+00	-6.62465000E-03
					 4.09271000E-02	 0.00000000E+00	-2.57738000E-02
					 6.53144000E-02	 0.00000000E+00	-1.11128000E-02
					 6.04379000E-02	 0.00000000E+00	-3.33221000E-02
					 6.53144000E-02	 0.00000000E+00	-1.11128000E-02
					 6.04379000E-02	 0.00000000E+00	-3.33221000E-02
					 8.90569000E-02	 0.00000000E+00	-1.69536000E-02
					 8.27155000E-02	 0.00000000E+00	-4.18428000E-02
					 8.90569000E-02	 0.00000000E+00	-1.69536000E-02
					 8.27155000E-02	 0.00000000E+00	-4.18428000E-02
					 1.15318000E-01	 0.00000000E+00	-2.42132000E-02
					 1.07505000E-01	 0.00000000E+00	-5.14714000E-02
					 1.15318000E-01	 0.00000000E+00	-2.42132000E-02
					 1.07505000E-01	 0.00000000E+00	-5.14714000E-02
					 1.43824000E-01	 0.00000000E+00	-3.29100000E-02
					 1.34572000E-01	 0.00000000E+00	-6.22239000E-02
					 1.43824000E-01	 0.00000000E+00	-3.29100000E-02
					 1.34572000E-01	 0.00000000E+00	-6.22239000E-02
					 1.74254000E-01	 0.00000000E+00	-4.29783000E-02
					 1.63645000E-01	 0.00000000E+00	-7.40384000E-02
					 1.74254000E-01	 0.00000000E+00	-4.29783000E-02
					 1.63645000E-01	 0.00000000E+00	-7.40384000E-02
					 2.06283000E-01	 0.00000000E+00	-5.42985000E-02
					 1.94423000E-01	 0.00000000E+00	-8.68385000E-02
					 2.06283000E-01	 0.00000000E+00	-5.42985000E-02
					 1.94423000E-01	 0.00000000E+00	-8.68385000E-02
					 2.39653000E-01	 0.00000000E+00	-6.67652000E-02
					 2.26635000E-01	 0.00000000E+00	-1.00597000E-01
					 2.39653000E-01	 0.00000000E+00	-6.67652000E-02
					 2.26635000E-01	 0.00000000E+00	-1.00597000E-01
					 2.74210000E-01	 0.00000000E+00	-8.03414000E-02
					 2.60085000E-01	 0.00000000E+00	-1.15338000E-01
					 2.74210000E-01	 0.00000000E+00	-8.03414000E-02
					 2.60085000E-01	 0.00000000E+00	-1.15338000E-01
					 3.09865000E-01	 0.00000000E+00	-9.50316000E-02
					 2.94673000E-01	 0.00000000E+00	-1.31084000E-01
					 3.09865000E-01	 0.00000000E+00	-9.50316000E-02
					 2.94673000E-01	 0.00000000E+00	-1.31084000E-01
					 3.46511000E-01	 0.00000000E+00	-1.10803000E-01
					 3.30318000E-01	 0.00000000E+00	-1.47785000E-01
					 3.46511000E-01	 0.00000000E+00	-1.10803000E-01
					 3.30318000E-01	 0.00000000E+00	-1.47785000E-01
					 3.84014000E-01	 0.00000000E+00	-1.27562000E-01
					 3.66918000E-01	 0.00000000E+00	-1.65337000E-01
					 3.84014000E-01	 0.00000000E+00	-1.27562000E-01
					 3.66918000E-01	 0.00000000E+00	-1.65337000E-01
					 4.22241000E-01	 0.00000000E+00	-1.45187000E-01
					 4.04363000E-01	 0.00000000E+00	-1.83604000E-01
					 4.22241000E-01	 0.00000000E+00	-1.45187000E-01
					 4.04363000E-01	 0.00000000E+00	-1.83604000E-01
					 4.61068000E-01	 0.00000000E+00	-1.63538000E-01
					 4.42557000E-01	 0.00000000E+00	-2.02442000E-01
					 4.61068000E-01	 0.00000000E+00	-1.63538000E-01
					 4.42557000E-01	 0.00000000E+00	-2.02442000E-01
					 5.00332000E-01	 0.00000000E+00	-1.82437000E-01
					 4.81376000E-01	 0.00000000E+00	-2.21656000E-01
					 5.00332000E-01	 0.00000000E+00	-1.82437000E-01
					 4.81376000E-01	 0.00000000E+00	-2.21656000E-01
					 5.39818000E-01	 0.00000000E+00	-2.01644000E-01
					 5.20629000E-01	 0.00000000E+00	-2.41018000E-01
					 5.39818000E-01	 0.00000000E+00	-2.01644000E-01
					 5.20629000E-01	 0.00000000E+00	-2.41018000E-01
					 5.79308000E-01	 0.00000000E+00	-2.20912000E-01
					 5.60050000E-01	 0.00000000E+00	-2.60338000E-01
					 5.79308000E-01	 0.00000000E+00	-2.20912000E-01
					 5.60050000E-01	 0.00000000E+00	-2.60338000E-01
					 0.00000000E+00	 0.00000000E+00	 0.00000000E+00
					 4.71859000E-03	 0.00000000E+00	 5.42665000E-03
					 0.00000000E+00	 0.00000000E+00	 0.00000000E+00
					 4.71859000E-03	 0.00000000E+00	 5.42665000E-03
					 1.47107000E-02	 0.00000000E+00	 9.50152000E-03
					 1.47107000E-02	 0.00000000E+00	 9.50152000E-03
					 2.96928000E-02	 0.00000000E+00	 1.17563000E-02
					 2.96928000E-02	 0.00000000E+00	 1.17563000E-02
					 4.86584000E-02	 0.00000000E+00	 1.21420000E-02
					 4.86584000E-02	 0.00000000E+00	 1.21420000E-02
					 7.09237000E-02	 0.00000000E+00	 1.07170000E-02
					 7.09237000E-02	 0.00000000E+00	 1.07170000E-02
					 9.60475000E-02	 0.00000000E+00	 7.54801000E-03
					 9.60475000E-02	 0.00000000E+00	 7.54801000E-03
					 1.23694000E-01	 0.00000000E+00	 2.65830000E-03
					 1.23694000E-01	 0.00000000E+00	 2.65830000E-03
					 1.53562000E-01	 0.00000000E+00	-3.96659000E-03
					 1.53562000E-01	 0.00000000E+00	-3.96659000E-03
					 1.85274000E-01	 0.00000000E+00	-1.22592000E-02
					 1.85274000E-01	 0.00000000E+00	-1.22592000E-02
					 2.18497000E-01	 0.00000000E+00	-2.20758000E-02
					 2.18497000E-01	 0.00000000E+00	-2.20758000E-02
					 2.52980000E-01	 0.00000000E+00	-3.32320000E-02
					 2.52980000E-01	 0.00000000E+00	-3.32320000E-02
					 2.88614000E-01	 0.00000000E+00	-4.56350000E-02
					 2.88614000E-01	 0.00000000E+00	-4.56350000E-02
					 3.25304000E-01	 0.00000000E+00	-5.92567000E-02
					 3.25304000E-01	 0.00000000E+00	-5.92567000E-02
					 3.62919000E-01	 0.00000000E+00	-7.40787000E-02
					 3.62919000E-01	 0.00000000E+00	-7.40787000E-02
					 4.01287000E-01	 0.00000000E+00	-9.00126000E-02
					 4.01287000E-01	 0.00000000E+00	-9.00126000E-02
					 4.40265000E-01	 0.00000000E+00	-1.06955000E-01
					 4.40265000E-01	 0.00000000E+00	-1.06955000E-01
					 4.79687000E-01	 0.00000000E+00	-1.24775000E-01
					 4.79687000E-01	 0.00000000E+00	-1.24775000E-01
					 5.19350000E-01	 0.00000000E+00	-1.43309000E-01
					 5.19350000E-01	 0.00000000E+00	-1.43309000E-01
					 5.59024000E-01	 0.00000000E+00	-1.62313000E-01
					 5.59024000E-01	 0.00000000E+00	-1.62313000E-01
					 5.98559000E-01	 0.00000000E+00	-1.81513000E-01
					 5.98559000E-01	 0.00000000E+00	-1.81513000E-01
				</DataArray>
				<DataArray type="Float32" Name="S" NumberOfComponents="10" ComponentName0="xx" ComponentName1="yy" ComponentName2="zz" ComponentName3="xy" ComponentName4="yz" ComponentName5="zx" ComponentName6="Mises" ComponentName7="Min Principal" ComponentName8="Mid Principal" ComponentName9="Max Principal" format="ascii">
					-4.10984000E+03	-4.49506000E+03	-1.43486000E+04	-2.07035000E-09	 1.48082000E-09	 2.56273000E+03	 1.09881382E+04	-1.49542210E+04	-4.49506000E+03	-3.50421898E+03
					 9.70901000E+01	-2.04717000E+02	-1.55180000E+03	 0.00000000E+00	 0.00000000E+00	 3.20733000E+03	 5.75961601E+03	-4.03895205E+03	-2.04717000E+02	 2.58424215E+03
					-1.43452000E+02	-2.47933000E+02	-1.40270000E+03	 4.44056000E-08	-3.11576000E-08	 3.14259000E+02	 1.32715126E+03	-1.47676990E+03	-2.47933000E+02	-6.93821032E+01
					-1.95139000E+03	-3.57917000E+03	-1.29622000E+04	 6.12124000E-08	-7.12920000E-08	-7.22606000E+02	 1.03697110E+04	-1.30094199E+04	-3.57917000E+03	-1.90417007E+03
					-4.10984000E+03	-4.49506000E+03	-1.43486000E+04	-2.07035000E-09	 1.48082000E-09	 2.56273000E+03	 1.09881382E+04	-1.49542210E+04	-4.49506000E+03	-3.50421898E+03
					 9.70901000E+01	-2.04717000E+02	-1.55180000E+03	 0.00000000E+00	 0.00000000E+00	 3.20733000E+03	 5.75961601E+03	-4.03895205E+03	-2.04717000E+02	 2.58424215E+03
					-1.43452000E+02	-2.47933000E+02	-1.40270000E+03	 4.44057000E-08	-3.11576000E-08	 3.14259000E+02	 1.32715126E+03	-1.47676990E+03	-2.47933000E+02	-6.93821032E+01
					-1.95139000E+03	-3.57917000E+03	-1.29622000E+04	 6.12124000E-08	-7.12919000E-08	-7.22606000E+02	 1.03697110E+04	-1.30094199E+04	-3.57917000E+03	-1.90417007E+03
					-7.78320000E+01	-1.55217000E+02	-1.00720000E+03	 1.02255000E-07	-5.04955000E-08	 4.14109000E+02	 1.14553610E+03	-1.16494470E+03	-1.55217000E+02	 7.99126977E+01
					-2.44626000E+03	-3.16400000E+03	-1.11531000E+04	 1.15674000E-07	-8.69521000E-08	-1.70546000E+03	 8.87697852E+03	-1.14752398E+04	-3.16400000E+03	-2.12412019E+03
					-7.78320000E+01	-1.55217000E+02	-1.00720000E+03	 1.02255000E-07	-5.04955000E-08	 4.14109000E+02	 1.14553610E+03	-1.16494470E+03	-1.55217000E+02	 7.99126977E+01
					-2.44626000E+03	-3.16400000E+03	-1.11531000E+04	 1.15674000E-07	-8.69520000E-08	-1.70546000E+03	 8.87697852E+03	-1.14752398E+04	-3.16400000E+03	-2.12412019E+03
					 3.36104000E+01	-8.55525000E+01	-6.80139000E+02	 1.62127000E-07	-3.67410000E-08	 2.98091000E+02	 8.39738225E+02	-7.88256553E+02	-8.55525000E+01	 1.41727953E+02
					-2.22152000E+03	-2.58006000E+03	-9.16640000E+03	 1.60195000E-07	-4.61573000E-08	-2.09386000E+03	 7.68261941E+03	-9.74884462E+03	-2.58006000E+03	-1.63907538E+03
					 3.36104000E+01	-8.55525000E+01	-6.80139000E+02	 1.62127000E-07	-3.67409000E-08	 2.98091000E+02	 8.39738225E+02	-7.88256553E+02	-8.55525000E+01	 1.41727953E+02
					-2.22152000E+03	-2.58006000E+03	-9.16640000E+03	 1.60195000E-07	-4.61576000E-08	-2.09386000E+03	 7.68261941E+03	-9.74884462E+03	-2.58006000E+03	-1.63907538E+03
					 6.70378000E+01	-3.58787000E+01	-4.15649000E+02	 1.62058000E-07	 0.00000000E+00	 2.52871000E+02	 6.21074186E+02	-5.23863005E+02	-3.58787000E+01	 1.75251805E+02
					-2.26071000E+03	-2.19197000E+03	-7.60900000E+03	 1.75665000E-07	 1.81412000E-08	-2.28503000E+03	 6.68136654E+03	-8.45229918E+03	-2.19197000E+03	-1.41741082E+03
					 6.70378000E+01	-3.58787000E+01	-4.15649000E+02	 1.62059000E-07	 0.00000000E+00	 2.52871000E+02	 6.21074186E+02	-5.23863005E+02	-3.58787000E+01	 1.75251805E+02
					-2.26071000E+03	-2.19197000E+03	-7.60900000E+03	 1.75667000E-07	 1.81402000E-08	-2.28503000E+03	 6.68136654E+03	-8.45229918E+03	-2.19197000E+03	-1.41741082E+03
					 7.86081000E+01	-1.92026000E+00	-2.19780000E+02	 1.04633000E-07	 3.53668000E-08	 2.27702000E+02	 4.76483130E+02	-3.42812079E+02	-1.92026000E+00	 2.01640179E+02
					-2.31871000E+03	-1.91409000E+03	-6.42245000E+03	 1.23167000E-07	 7.79244000E-08	-2.34837000E+03	 5.93374920E+03	-7.48907517E+03	-1.91409000E+03	-1.25208483E+03
					 7.86081000E+01	-1.92026000E+00	-2.19780000E+02	 1.04632000E-07	 3.53667000E-08	 2.27702000E+02	 4.76483130E+02	-3.42812079E+02	-1.92026000E+00	 2.01640179E+02
					-2.31871000E+03	-1.91409000E+03	-6.42245000E+03	 1.23166000E-07	 7.79240000E-08	-2.34837000E+03	 5.93374920E+03	-7.48907517E+03	-1.91409000E+03	-1.25208483E+03
					 9.70100000E+01	 1.75019000E+01	-1.12930000E+02	 1.84795000E-08	 6.33962000E-08	 2.36462000E+02	 4.48828746E+02	-2.66674086E+02	 1.75019000E+01	 2.50754086E+02
					-2.38139000E+03	-1.71288000E+03	-5.51929000E+03	 6.99020000E-08	 1.00041000E-07	-2.33442000E+03	 5.36093180E+03	-6.76301148E+03	-1.71288000E+03	-1.13766852E+03
					 9.70100000E+01	 1.75019000E+01	-1.12930000E+02	 1.84743000E-08	 6.33955000E-08	 2.36462000E+02	 4.48828746E+02	-2.66674086E+02	 1.75019000E+01	 2.50754086E+02
					-2.38139000E+03	-1.71288000E+03	-5.51929000E+03	 6.99081000E-08	 1.00041000E-07	-2.33442000E+03	 5.36093180E+03	-6.76301148E+03	-1.71288000E+03	-1.13766852E+03
					 1.69795000E+02	 3.94931000E+01	-5.42256000E+01	-3.55357000E-08	 9.63125000E-08	 2.54548000E+02	 4.82034809E+02	-2.20317784E+02	 3.94931000E+01	 3.35887184E+02
					-2.36468000E+03	-1.52647000E+03	-4.73884000E+03	-1.91509000E-08	 1.25461000E-07	-2.24240000E+03	 4.83883763E+03	-6.08898618E+03	-1.52647000E+03	-1.01453382E+03
					 1.69795000E+02	 3.94931000E+01	-5.42256000E+01	-3.55327000E-08	 9.63129000E-08	 2.54548000E+02	 4.82034809E+02	-2.20317784E+02	 3.94931000E+01	 3.35887184E+02
					-2.36468000E+03	-1.52647000E+03	-4.73884000E+03	-1.91538000E-08	 1.25461000E-07	-2.24240000E+03	 4.83883763E+03	-6.08898618E+03	-1.52647000E+03	-1.01453382E+03
					 2.40349000E+02	 5.69751000E+01	-1.98361000E+01	-4.33328000E-08	 1.10905000E-07	 2.78418000E+02	 5.34940058E+02	-1.97055532E+02	 5.69751000E+01	 4.17568432E+02
					-2.26690000E+03	-1.33425000E+03	-4.00147000E+03	-2.48650000E-08	 1.11614000E-07	-2.06568000E+03	 4.27754806E+03	-5.37454594E+03	-1.33425000E+03	-8.93824062E+02
					 2.40349000E+02	 5.69751000E+01	-1.98361000E+01	-4.33326000E-08	 1.10905000E-07	 2.78418000E+02	 5.34940058E+02	-1.97055532E+02	 5.69751000E+01	 4.17568432E+02
					-2.26690000E+03	-1.33425000E+03	-4.00147000E+03	-2.48654000E-08	 1.11615000E-07	-2.06568000E+03	 4.27754806E+03	-5.37454594E+03	-1.33425000E+03	-8.93824062E+02
					 2.85236000E+02	 7.22205000E+01	 2.57073000E+01	-8.23953000E-08	 1.18408000E-07	 2.92921000E+02	 5.61119640E+02	-1.64905470E+02	 7.22205000E+01	 4.75848770E+02
					-2.12448000E+03	-1.14833000E+03	-3.32281000E+03	-6.98900000E-08	 1.34330000E-07	-1.84446000E+03	 3.71008241E+03	-4.66298287E+03	-1.14833000E+03	-7.84307126E+02
					 2.85236000E+02	 7.22205000E+01	 2.57073000E+01	-8.23902000E-08	 1.18408000E-07	 2.92921000E+02	 5.61119640E+02	-1.64905470E+02	 7.22205000E+01	 4.75848770E+02
					-2.12448000E+03	-1.14833000E+03	-3.32281000E+03	-6.98959000E-08	 1.34331000E-07	-1.84446000E+03	 3.71008241E+03	-4.66298287E+03	-1.14833000E+03	-7.84307126E+02
					 2.82089000E+02	 7.87312000E+01	 7.22709000E+01	-1.17429000E-07	 1.26324000E-07	 2.97156000E+02	 5.54630460E+02	-1.37951129E+02	 7.87312000E+01	 4.92311029E+02
					-2.00551000E+03	-9.99340000E+02	-2.77251000E+03	-1.24161000E-07	 1.31246000E-07	-1.64255000E+03	 3.23516784E+03	-4.07573545E+03	-9.99340000E+02	-7.02284547E+02
					 2.82089000E+02	 7.87312000E+01	 7.22709000E+01	-1.17455000E-07	 1.26324000E-07	 2.97156000E+02	 5.54630460E+02	-1.37951129E+02	 7.87312000E+01	 4.92311029E+02
					-2.00551000E+03	-9.99340000E+02	-2.77251000E+03	-1.24154000E-07	 1.31242000E-07	-1.64255000E+03	 3.23516784E+03	-4.07573545E+03	-9.99340000E+02	-7.02284547E+02
					 2.70074000E+02	 8.18003000E+01	 1.07358000E+02	-7.35859000E-08	 9.60384000E-08	 2.77340000E+02	 5.11899176E+02	-1.00310988E+02	 8.18003000E+01	 4.77742988E+02
					-1.93583000E+03	-8.98591000E+02	-2.38063000E+03	-1.24636000E-07	 7.01348000E-08	-1.51016000E+03	 2.92862175E+03	-3.68467849E+03	-8.98591000E+02	-6.31781512E+02
					 2.70074000E+02	 8.18003000E+01	 1.07358000E+02	-7.35713000E-08	 9.60417000E-08	 2.77340000E+02	 5.11899176E+02	-1.00310988E+02	 8.18003000E+01	 4.77742988E+02
					-1.93583000E+03	-8.98591000E+02	-2.38063000E+03	-1.24631000E-07	 7.01321000E-08	-1.51016000E+03	 2.92862175E+03	-3.68467849E+03	-8.98591000E+02	-6.31781512E+02
					 2.55081000E+02	 7.34140000E+01	 8.61488000E+01	-3.50994000E-09	 3.22031000E-08	 2.45930000E+02	 4.60756200E+02	-8.94160346E+01	 7.34140000E+01	 4.30645835E+02
					-1.90064000E+03	-8.36356000E+02	-2.12573000E+03	-3.93069000E-08	-2.36092000E-08	-1.42738000E+03	 2.74502580E+03	-3.44499506E+03	-8.36356000E+02	-5.81374942E+02
					 2.55081000E+02	 7.34140000E+01	 8.61488000E+01	-3.52503000E-09	 3.22036000E-08	 2.45930000E+02	 4.60756200E+02	-8.94160346E+01	 7.34140000E+01	 4.30645835E+02
					-1.90064000E+03	-8.36356000E+02	-2.12573000E+03	-3.93077000E-08	-2.36065000E-08	-1.42738000E+03	 2.74502580E+03	-3.44499506E+03	-8.36356000E+02	-5.81374942E+02
					 2.51453000E+02	 6.03677000E+01	 2.86279000E+01	 5.55482000E-08	-2.84306000E-08	 2.01145000E+02	 4.06157542E+02	-8.98988188E+01	 6.03677000E+01	 3.69979719E+02
					-1.83688000E+03	-7.78853000E+02	-1.92015000E+03	 2.78101000E-08	-5.47913000E-08	-1.34584000E+03	 2.57843225E+03	-3.22499886E+03	-7.78853000E+02	-5.32031142E+02
					 2.51453000E+02	 6.03677000E+01	 2.86279000E+01	 5.55638000E-08	-2.84304000E-08	 2.01145000E+02	 4.06157542E+02	-8.98988188E+01	 6.03677000E+01	 3.69979719E+02
					-1.83688000E+03	-7.78853000E+02	-1.92015000E+03	 2.78156000E-08	-5.47971000E-08	-1.34584000E+03	 2.57843225E+03	-3.22499886E+03	-7.78853000E+02	-5.32031142E+02
					 2.41838000E+02	 4.50829000E+01	-3.43345000E+01	 8.57841000E-08	-4.74703000E-08	 1.55518000E+02	 3.64969884E+02	-1.04223395E+02	 4.50829000E+01	 3.11726895E+02
					-1.71161000E+03	-7.05273000E+02	-1.70067000E+03	 7.14425000E-08	-4.98555000E-08	-1.22965000E+03	 2.35328321E+03	-2.93580217E+03	-7.05273000E+02	-4.76477834E+02
					 2.41838000E+02	 4.50829000E+01	-3.43345000E+01	 8.57787000E-08	-4.74756000E-08	 1.55518000E+02	 3.64969884E+02	-1.04223395E+02	 4.50829000E+01	 3.11726895E+02
					-1.71161000E+03	-7.05273000E+02	-1.70067000E+03	 7.14336000E-08	-4.98474000E-08	-1.22965000E+03	 2.35328321E+03	-2.93580217E+03	-7.05273000E+02	-4.76477834E+02
					 2.45321000E+02	 3.82969000E+01	-6.71828000E+01	 5.11273000E-08	-3.64987000E-08	 1.13025000E+02	 3.37854609E+02	-1.03776193E+02	 3.82969000E+01	 2.81914393E+02
					-1.50932000E+03	-6.08300000E+02	-1.44570000E+03	 6.06642000E-08	-4.38442000E-08	-1.07790000E+03	 2.06013759E+03	-2.55587927E+03	-6.08300000E+02	-3.99140728E+02
					 2.45321000E+02	 3.82969000E+01	-6.71828000E+01	 5.11387000E-08	-3.64945000E-08	 1.13025000E+02	 3.37854609E+02	-1.03776193E+02	 3.82969000E+01	 2.81914393E+02
					-1.50932000E+03	-6.08300000E+02	-1.44570000E+03	 6.06315000E-08	-4.38365000E-08	-1.07790000E+03	 2.06013759E+03	-2.55587927E+03	-6.08300000E+02	-3.99140728E+02
					 2.61495000E+02	 3.49630000E+01	-9.47915000E+01	 2.67058000E-08	-3.93288000E-08	 9.14890000E+01	 3.50224549E+02	-1.16911214E+02	 3.49630000E+01	 2.83614714E+02
					-1.22903000E+03	-4.92708000E+02	-1.17669000E+03	 4.47611000E-08	-3.00658000E-08	-8.81987000E+02	 1.68525181E+03	-2.08523517E+03	-4.92708000E+02	-3.20484832E+02
					 2.61495000E+02	 3.49630000E+01	-9.47915000E+01	 2.67204000E-08	-3.93258000E-08	 9.14890000E+01	 3.50224549E+02	-1.16911214E+02	 3.49630000E+01	 2.83614714E+02
					-1.22903000E+03	-4.92708000E+02	-1.17669000E+03	 4.47423000E-08	-3.00721000E-08	-8.81987000E+02	 1.68525181E+03	-2.08523517E+03	-4.92708000E+02	-3.20484832E+02
					 2.87099000E+02	 3.47912000E+01	-1.16700000E+02	 4.57550000E-08	-4.80207000E-08	 8.07148000E+01	 3.79968233E+02	-1.32236208E+02	 3.47912000E+01	 3.02635208E+02
					-8.58873000E+02	-3.55464000E+02	-8.87775000E+02	 5.05051000E-08	-3.68150000E-08	-6.39523000E+02	 1.22301859E+03	-1.51301025E+03	-3.55464000E+02	-2.33637750E+02
					 2.87099000E+02	 3.47912000E+01	-1.16700000E+02	 4.57582000E-08	-4.80197000E-08	 8.07148000E+01	 3.79968233E+02	-1.32236208E+02	 3.47912000E+01	 3.02635208E+02
					-8.58873000E+02	-3.55464000E+02	-8.87775000E+02	 5.04947000E-08	-3.68088000E-08	-6.39523000E+02	 1.22301859E+03	-1.51301025E+03	-3.55464000E+02	-2.33637750E+02
					 2.73348000E+02	 3.01559000E+01	-1.23437000E+02	 5.06731000E-08	-6.11779000E-08	 7.03187000E+01	 3.67314463E+02	-1.35530375E+02	 3.01559000E+01	 2.85441375E+02
					-4.53279000E+02	-2.08310000E+02	-5.77503000E+02	 6.92800000E-08	-5.14927000E-08	-3.70294000E+02	 7.19183830E+02	-8.90858105E+02	-2.08310000E+02	-1.39923895E+02
					 2.73348000E+02	 3.01559000E+01	-1.23437000E+02	 5.06598000E-08	-6.11722000E-08	 7.03187000E+01	 3.67314463E+02	-1.35530375E+02	 3.01559000E+01	 2.85441375E+02
					-4.53279000E+02	-2.08310000E+02	-5.77503000E+02	 6.93001000E-08	-5.14995000E-08	-3.70294000E+02	 7.19183830E+02	-8.90858105E+02	-2.08310000E+02	-1.39923895E+02
					 1.81206000E+02	 1.99537000E+01	-8.15009000E+01	 3.43556000E-08	-4.98512000E-08	 5.18816000E+01	 2.46435040E+02	-9.13757377E+01	 1.99537000E+01	 1.91080838E+02
					-1.52531000E+02	-8.71489000E+01	-2.81427000E+02	 6.17190000E-08	-2.81398000E-08	-1.41832000E+02	 2.99441877E+02	-3.72766872E+02	-8.71489000E+01	-6.11911284E+01
					 1.81206000E+02	 1.99537000E+01	-8.15009000E+01	 3.43490000E-08	-4.98541000E-08	 5.18816000E+01	 2.46435040E+02	-9.13757377E+01	 1.99537000E+01	 1.91080838E+02
					-1.52531000E+02	-8.71489000E+01	-2.81427000E+02	 6.17162000E-08	-2.81315000E-08	-1.41832000E+02	 2.99441877E+02	-3.72766872E+02	-8.71489000E+01	-6.11911284E+01
					 1.12009000E+02	 1.70632000E+01	-2.65641000E+01	 3.33521000E-08	-5.80063000E-08	 3.73406000E+01	 1.38719993E+02	-3.59855319E+01	 1.70632000E+01	 1.21430432E+02
					-5.38740000E+01	-3.52764000E+01	-1.22350000E+02	 5.28170000E-08	-2.46864000E-08	-5.21045000E+01	 1.20220461E+02	-1.50458769E+02	-3.52764000E+01	-2.57652313E+01
					 1.12009000E+02	 1.70632000E+01	-2.65641000E+01	 3.33483000E-08	-5.79999000E-08	 3.73406000E+01	 1.38719993E+02	-3.59855319E+01	 1.70632000E+01	 1.21430432E+02
					-5.38740000E+01	-3.52764000E+01	-1.22350000E+02	 5.28456000E-08	-2.46762000E-08	-5.21045000E+01	 1.20220461E+02	-1.50458769E+02	-3.52764000E+01	-2.57652313E+01
					 4.35583000E+03	 3.57025000E+03	 1.67630000E+04	 0.00000000E+00	 0.00000000E+00	 6.04783000E+03	 1.65538688E+04	 1.89565631E+03	 3.57025000E+03	 1.92231737E+04
					 1.50618000E+03	 2.80846000E+03	 1.49212000E+04	 5.11351000E-08	 3.95952000E-08	 2.54278000E+03	 1.35493828E+04	 1.04037692E+03	 2.80846000E+03	 1.53870031E+04
					 4.35583000E+03	 3.57025000E+03	 1.67630000E+04	 0.00000000E+00	 0.00000000E+00	 6.04783000E+03	 1.65538688E+04	 1.89565631E+03	 3.57025000E+03	 1.92231737E+04