<?xml version="1.0"?>
<VTKFile type="UnstructuredGrid" version="0.1" byte_order="LittleEndian">
	<UnstructuredGrid>
		<Piece NumberOfPoints="126" NumberOfCells="40">
			<Points>
				<DataArray type="Float64" NumberOfComponents="3" format="ascii">
					 5.00000000E-02	 0.00000000E+00	 0.00000000E+00
					 0.00000000E+00	 0.00000000E+00	 0.00000000E+00
					 0.00000000E+00	 0.00000000E+00	 5.00000000E-02
					 5.00000000E-02	 0.00000000E+00	 5.00000000E-02
					 5.00000000E-02	 3.00000000E-01	 0.00000000E+00
					 0.00000000E+00	 3.00000000E-01	 0.00000000E+00
					 0.00000000E+00	 3.00000000E-01	 5.00000000E-02
					 5.00000000E-02	 3.00000000E-01	 5.00000000E-02
					 0.00000000E+00	 0.00000000E+00	 1.00000000E-01
					 5.00000000E-02	 0.00000000E+00	 1.00000000E-01
					 0.00000000E+00	 3.00000000E-01	 1.00000000E-01
					 5.00000000E-02	 3.00000000E-01	 1.00000000E-01
					 0.00000000E+00	 0.00000000E+00	 1.50000000E-01
					 5.00000000E-02	 0.00000000E+00	 1.50000000E-01
					 0.00000000E+00	 3.00000000E-01	 1.50000000E-01
					 5.00000000E-02	 3.00000000E-01	 1.50000000E-01
					 0.00000000E+00	 0.00000000E+00	 2.00000000E-01
					 5.00000000E-02	 0.00000000E+00	 2.00000000E-01
					 0.00000000E+00	 3.00000000E-01	 2.00000000E-01
					 5.00000000E-02	 3.00000000E-01	 2.00000000E-01
					 0.00000000E+00	 0.00000000E+00	 2.50000000E-01
					 5.00000000E-02	 0.00000000E+00	 2.50000000E-01
					 0.00000000E+00	 3.00000000E-01	 2.50000000E-01
					 5.00000000E-02	 3.00000000E-01	 2.50000000E-01
					 0.00000000E+00	 0.00000000E+00	 3.00000000E-01
					 5.00000000E-02	 0.00000000E+00	 3.00000000E-01
					 0.00000000E+00	 3.00000000E-01	 3.00000000E-01
					 5.00000000E-02	 3.00000000E-01	 3.00000000E-01
					 0.00000000E+00	 0.00000000E+00	 3.50000000E-01
					 5.00000000E-02	 0.00000000E+00	 3.50000000E-01
					 0.00000000E+00	 3.00000000E-01	 3.50000000E-01
					 5.00000000E-02	 3.00000000E-01	 3.50000000E-01
					 0.00000000E+00	 0.00000000E+00	 4.00000000E-01
					 5.00000000E-02	 0.00000000E+00	 4.00000000E-01
					 0.00000000E+00	 3.00000000E-01	 4.00000000E-01
					 5.00000000E-02	 3.00000000E-01	 4.00000000E-01
					 0.00000000E+00	 0.00000000E+00	 4.50000000E-01
					 5.00000000E-02	 0.00000000E+00	 4.50000000E-01
					 0.00000000E+00	 3.00000000E-01	 4.50000000E-01
					 5.00000000E-02	 3.00000000E-01	 4.50000000E-01
					 0.00000000E+00	 0.00000000E+00	 5.00000000E-01
					 5.00000000E-02	 0.00000000E+00	 5.00000000E-01
					 0.00000000E+00	 3.00000000E-01	 5.00000000E-01
					 5.00000000E-02	 3.00000000E-01	 5.00000000E-01
					 0.00000000E+00	 0.00000000E+00	 5.50000000E-01
					 5.00000000E-02	 0.00000000E+00	 5.50000000E-01
					 0.00000000E+00	 3.00000000E-01	 5.50000000E-01
					 5.00000000E-02	 3.00000000E-01	 5.50000000E-01
					 0.00000000E+00	 0.00000000E+00	 6.00000000E-01
					 5.00000000E-02	 0.00000000E+00	 6.00000000E-01
					 0.00000000E+00	 3.00000000E-01	 6.00000000E-01
					 5.00000000E-02	 3.00000000E-01	 6.00000000E-01
					 0.00000000E+00	 0.00000000E+00	 6.50000000E-01
					 5.00000000E-02	 0.00000000E+00	 6.50000000E-01
					 0.00000000E+00	 3.00000000E-01	 6.50000000E-01
					 5.00000000E-02	 3.00000000E-01	 6.50000000E-01
					 0.00000000E+00	 0.00000000E+00	 7.00000000E-01
					 5.00000000E-02	 0.00000000E+00	 7.00000000E-01
					 0.00000000E+00	 3.00000000E-01	 7.00000000E-01
					 5.00000000E-02	 3.00000000E-01	 7.00000000E-01
					 0.00000000E+00	 0.00000000E+00	 7.50000000E-01
					 5.00000000E-02	 0.00000000E+00	 7.50000000E-01
					 0.00000000E+00	 3.00000000E-01	 7.50000000E-01
					 5.00000000E-02	 3.00000000E-01	 7.50000000E-01
					 0.00000000E+00	 0.00000000E+00	 8.00000000E-01
					 5.00000000E-02	 0.00000000E+00	 8.00000000E-01
					 0.00000000E+00	 3.00000000E-01	 8.00000000E-01
					 5.00000000E-02	 3.00000000E-01	 8.00000000E-01
					 0.00000000E+00	 0.00000000E+00	 8.50000000E-01
					 5.00000000E-02	 0.00000000E+00	 8.50000000E-01
					 0.00000000E+00	 3.00000000E-01	 8.50000000E-01
					 5.00000000E-02	 3.00000000E-01	 8.50000000E-01
					 0.00000000E+00	 0.00000000E+00	 9.00000000E-01
					 5.00000000E-02	 0.00000000E+00	 9.00000000E-01
					 0.00000000E+00	 3.00000000E-01	 9.00000000E-01
					 5.00000000E-02	 3.00000000E-01	 9.00000000E-01
					 0.00000000E+00	 0.00000000E+00	 9.50000000E-01
					 5.00000000E-02	 0.00000000E+00	 9.50000000E-01
					 0.00000000E+00	 3.00000000E-01	 9.50000000E-01
					 5.00000000E-02	 3.00000000E-01	 9.50000000E-01
					 0.00000000E+00	 0.00000000E+00	 1.00000000E+00
					 5.00000000E-02	 0.00000000E+00	 1.00000000E+00
					 0.00000000E+00	 3.00000000E-01	 1.00000000E+00
					 5.00000000E-02	 3.00000000E-01	 1.00000000E+00
					-5.00000000E-02	 0.00000000E+00	 0.00000000E+00
					-5.00000000E-02	 0.00000000E+00	 5.00000000E-02
					-5.00000000E-02	 3.00000000E-01	 0.00000000E+00
					-5.00000000E-02	 3.00000000E-01	 5.00000000E-02
					-5.00000000E-02	 0.00000000E+00	 1.00000000E-01
					-5.00000000E-02	 3.00000000E-01	 1.00000000E-01
					-5.00000000E-02	 0.00000000E+00	 1.50000000E-01
					-5.00000000E-02	 3.00000000E-01	 1.50000000E-01
					-5.00000000E-02	 0.00000000E+00	 2.00000000E-01
					-5.00000000E-02	 3.00000000E-01	 2.00000000E-01
					-5.00000000E-02	 0.00000000E+00	 2.50000000E-01
					-5.00000000E-02	 3.00000000E-01	 2.50000000E-01
					-5.00000000E-02	 0.00000000E+00	 3.00000000E-01
					-5.00000000E-02	 3.00000000E-01	 3.00000000E-01
					-5.00000000E-02	 0.00000000E+00	 3.50000000E-01
					-5.00000000E-02	 3.00000000E-01	 3.50000000E-01
					-5.00000000E-02	 0.00000000E+00	 4.00000000E-01
					-5.00000000E-02	 3.00000000E-01	 4.00000000E-01
					-5.00000000E-02	 0.00000000E+00	 4.50000000E-01
					-5.00000000E-02	 3.00000000E-01	 4.50000000E-01
					-5.00000000E-02	 0.00000000E+00	 5.00000000E-01
					-5.00000000E-02	 3.00000000E-01	 5.00000000E-01
					-5.00000000E-02	 0.00000000E+00	 5.50000000E-01
					-5.00000000E-02	 3.00000000E-01	 5.50000000E-01
					-5.00000000E-02	 0.00000000E+00	 6.00000000E-01
					-5.00000000E-02	 3.00000000E-01	 6.00000000E-01
					-5.00000000E-02	 0.00000000E+00	 6.50000000E-01
					-5.00000000E-02	 3.00000000E-01	 6.50000000E-01
					-5.00000000E-02	 0.00000000E+00	 7.00000000E-01
					-5.00000000E-02	 3.00000000E-01	 7.00000000E-01
					-5.00000000E-02	 0.00000000E+00	 7.50000000E-01
					-5.00000000E-02	 3.00000000E-01	 7.50000000E-01
					-5.00000000E-02	 0.00000000E+00	 8.00000000E-01
					-5.00000000E-02	 3.00000000E-01	 8.00000000E-01
					-5.00000000E-02	 0.00000000E+00	 8.50000000E-01
					-5.00000000E-02	 3.00000000E-01	 8.50000000E-01
					-5.00000000E-02	 0.00000000E+00	 9.00000000E-01
					-5.00000000E-02	 3.00000000E-01	 9.00000000E-01
					-5.00000000E-02	 0.00000000E+00	 9.50000000E-01
					-5.00000000E-02	 3.00000000E-01	 9.50000000E-01
					-5.00000000E-02	 0.00000000E+00	 1.00000000E+00
					-5.00000000E-02	 3.00000000E-01	 1.00000000E+00

				</DataArray>
			</Points>
			<Cells>
				<DataArray type="Int32" Name="connectivity" format="ascii">
					0 1 2 3 4 5 6 7 3 2 8 9 7 6 10 11 9 8 12 13 11 10 14 15 13 12 16 17 15 14 18 19 17 16 20 21 19 18 22 23 21 20 24 25 23 22 26 27 25 24 28 29 27 26 30 31 29 28 32 33 31 30 34 35 33 32 36 37 35 34 38 39 37 36 40 41 39 38 42 43 41 40 44 45 43 42 46 47 45 44 48 49 47 46 50 51 49 48 52 53 51 50 54 55 53 52 56 57 55 54 58 59 57 56 60 61 59 58 62 63 61 60 64 65 63 62 66 67 65 64 68 69 67 66 70 71 69 68 72 73 71 70 74 75 73 72 76 77 75 74 78 79 77 76 80 81 79 78 82 83 1 84 85 2 5 86 87 6 2 85 88 8 6 87 89 10 8 88 90 12 10 89 91 14 12 90 92 16 14 91 93 18 16 92 94 20 18 93 95 22 20 94 96 24 22 95 97 26 24 96 98 28 26 97 99 30 28 98 100 32 30 99 101 34 32 100 102 36 34 101 103 38 36 102 104 40 38 103 105 42 40 104 106 44 42 105 107 46 44 106 108 48 46 107 109 50 48 108 110 52 50 109 111 54 52 110 112 56 54 111 113 58 56 112 114 60 58 113 115 62 60 114 116 64 62 115 117 66 64 116 118 68 66 117 119 70 68 118 120 72 70 119 121 74 72 120 122 76 74 121 123 78 76 122 124 80 78 123 125 82 
				</DataArray>
				<DataArray type="Int32" Name="offsets" format="ascii">
					8 16 24 32 40 48 56 64 72 80 88 96 104 112 120 128 136 144 152 160 168 176 184 192 200 208 216 224 232 240 248 256 264 272 280 288 296 304 312 320 
				</DataArray>
				<DataArray type="UInt8" Name="types" format="ascii">
					12 12 12 12 12 12 12 12 12 12 12 12 12 12 12 12 12 12 12 12 12 12 12 12 12 12 12 12 12 12 12 12 12 12 12 12 12 12 12 12 
				</DataArray>
			</Cells>
			<PointData>
				<DataArray type="Float32" Name="U" NumberOfComponents="3" ComponentName0="D1" ComponentName1="D2" ComponentName2="D3" format="ascii">
					 0.00000000E+00	 0.00000000E+00	 0.00000000E+00
					 0.00000000E+00	 0.00000000E+00	 0.00000000E+00
					 1.45132000E-03	 0.00000000E+00	 1.46164000E-04
					 1.61529000E-03	 0.00000000E+00	-1.64034000E-03
					 0.00000000E+00	 0.00000000E+00	 0.00000000E+00
					 0.00000000E+00	 0.00000000E+00	 0.00000000E+00
					 1.45132000E-03	 0.00000000E+00	 1.46164000E-04
					 1.61529000E-03	 0.00000000E+00	-1.64034000E-03
					 4.47083000E-03	 0.00000000E+00	 2.83662000E-04
					 4.43554000E-03	 0.00000000E+00	-2.67995000E-03
					 4.47083000E-03	 0.00000000E+00	 2.83662000E-04
					 4.43554000E-03	 0.00000000E+00	-2.67995000E-03
					 8.23406000E-03	 0.00000000E+00	 3.78307000E-04
					 8.11162000E-03	 0.00000000E+00	-3.19423000E-03
					 8.23406000E-03	 0.00000000E+00	 3.78307000E-04
					 8.11162000E-03	 0.00000000E+00	-3.19423000E-03
					 1.22954000E-02	 0.00000000E+00	 4.30254000E-04
					 1.21227000E-02	 0.00000000E+00	-3.30227000E-03
					 1.22954000E-02	 0.00000000E+00	 4.30254000E-04
					 1.21227000E-02	 0.00000000E+00	-3.30227000E-03
					 1.62444000E-02	 0.00000000E+00	 4.69141000E-04
					 1.60517000E-02	 0.00000000E+00	-3.07266000E-03
					 1.62444000E-02	 0.00000000E+00	 4.69141000E-04
					 1.60517000E-02	 0.00000000E+00	-3.07266000E-03
					 1.97979000E-02	 0.00000000E+00	 5.52560000E-04
					 1.95971000E-02	 0.00000000E+00	-2.56278000E-03
					 1.97979000E-02	 0.00000000E+00	 5.52560000E-04
					 1.95971000E-02	 0.00000000E+00	-2.56278000E-03
					 2.27714000E-02	 0.00000000E+00	 7.19425000E-04
					 2.25712000E-02	 0.00000000E+00	-1.82582000E-03
					 2.27714000E-02	 0.00000000E+00	 7.19425000E-04
					 2.25712000E-02	 0.00000000E+00	-1.82582000E-03
					 2.50486000E-02	 0.00000000E+00	 9.60092000E-04
					 2.48732000E-02	 0.00000000E+00	-9.31784000E-04
					 2.50486000E-02	 0.00000000E+00	 9.60092000E-04
					 2.48732000E-02	 0.00000000E+00	-9.31784000E-04
					 2.65976000E-02	 0.00000000E+00	 1.24181000E-03
					 2.64370000E-02	 0.00000000E+00	 1.03023000E-05
					 2.65976000E-02	 0.00000000E+00	 1.24181000E-03
					 2.64370000E-02	 0.00000000E+00	 1.03023000E-05
					 2.74600000E-02	 0.00000000E+00	 1.53680000E-03
					 2.73259000E-02	 0.00000000E+00	 8.90079000E-04
					 2.74600000E-02	 0.00000000E+00	 1.53680000E-03
					 2.73259000E-02	 0.00000000E+00	 8.90079000E-04
					 2.77263000E-02	 0.00000000E+00	 1.80959000E-03
					 2.76376000E-02	 0.00000000E+00	 1.64676000E-03
					 2.77263000E-02	 0.00000000E+00	 1.80959000E-03
					 2.76376000E-02	 0.00000000E+00	 1.64676000E-03
					 2.75575000E-02	 0.00000000E+00	 2.02986000E-03
					 2.74968000E-02	 0.00000000E+00	 2.22768000E-03
					 2.75575000E-02	 0.00000000E+00	 2.02986000E-03
					 2.74968000E-02	 0.00000000E+00	 2.22768000E-03
					 2.71246000E-02	 0.00000000E+00	 2.21667000E-03
					 2.70707000E-02	 0.00000000E+00	 2.60211000E-03
					 2.71246000E-02	 0.00000000E+00	 2.21667000E-03
					 2.70707000E-02	 0.00000000E+00	 2.60211000E-03
					 2.66016000E-02	 0.00000000E+00	 2.38165000E-03
					 2.65869000E-02	 0.00000000E+00	 2.80922000E-03
					 2.66016000E-02	 0.00000000E+00	 2.38165000E-03
					 2.65869000E-02	 0.00000000E+00	 2.80922000E-03
					 2.61041000E-02	 0.00000000E+00	 2.50198000E-03
					 2.61091000E-02	 0.00000000E+00	 2.89752000E-03
					 2.61041000E-02	 0.00000000E+00	 2.50198000E-03
					 2.61091000E-02	 0.00000000E+00	 2.89752000E-03
					 2.57082000E-02	 0.00000000E+00	 2.59768000E-03
					 2.57164000E-02	 0.00000000E+00	 2.92176000E-03
					 2.57082000E-02	 0.00000000E+00	 2.59768000E-03
					 2.57164000E-02	 0.00000000E+00	 2.92176000E-03
					 2.54346000E-02	 0.00000000E+00	 2.69091000E-03
					 2.54320000E-02	 0.00000000E+00	 2.90787000E-03
					 2.54346000E-02	 0.00000000E+00	 2.69091000E-03
					 2.54320000E-02	 0.00000000E+00	 2.90787000E-03
					 2.52784000E-02	 0.00000000E+00	 2.77615000E-03
					 2.52806000E-02	 0.00000000E+00	 2.87684000E-03
					 2.52784000E-02	 0.00000000E+00	 2.77615000E-03
					 2.52806000E-02	 0.00000000E+00	 2.87684000E-03
					 2.52347000E-02	 0.00000000E+00	 2.84417000E-03
					 2.52390000E-02	 0.00000000E+00	 2.85527000E-03
					 2.52347000E-02	 0.00000000E+00	 2.84417000E-03
					 2.52390000E-02	 0.00000000E+00	 2.85527000E-03
					 2.52535000E-02	 0.00000000E+00	 2.91596000E-03
					 2.52653000E-02	 0.00000000E+00	 2.85573000E-03
					 2.52535000E-02	 0.00000000E+00	 2.91596000E-03
					 2.52653000E-02	 0.00000000E+00	 2.85573000E-03
					 0.00000000E+00	 0.00000000E+00	 0.00000000E+00
					 1.81222000E-03	 0.00000000E+00	 1.93120000E-03
					 0.00000000E+00	 0.00000000E+00	 0.00000000E+00
					 1.81222000E-03	 0.00000000E+00	 1.93120000E-03
					 4.74815000E-03	 0.00000000E+00	 3.22300000E-03
					 4.74815000E-03	 0.00000000E+00	 3.22300000E-03
					 8.48951000E-03	 0.00000000E+00	 3.92667000E-03
					 8.48951000E-03	 0.00000000E+00	 3.92667000E-03
					 1.24999000E-02	 0.00000000E+00	 4.15062000E-03
					 1.24999000E-02	 0.00000000E+00	 4.15062000E-03
					 1.63957000E-02	 0.00000000E+00	 4.02327000E-03
					 1.63957000E-02	 0.00000000E+00	 4.02327000E-03
					 1.99183000E-02	 0.00000000E+00	 3.69122000E-03
					 1.99183000E-02	 0.00000000E+00	 3.69122000E-03
					 2.28519000E-02	 0.00000000E+00	 3.27739000E-03
					 2.28519000E-02	 0.00000000E+00	 3.27739000E-03
					 2.50956000E-02	 0.00000000E+00	 2.86403000E-03
					 2.50956000E-02	 0.00000000E+00	 2.86403000E-03
					 2.66345000E-02	 0.00000000E+00	 2.48663000E-03
					 2.66345000E-02	 0.00000000E+00	 2.48663000E-03
					 2.75033000E-02	 0.00000000E+00	 2.16715000E-03
					 2.75033000E-02	 0.00000000E+00	 2.16715000E-03
					 2.77471000E-02	 0.00000000E+00	 1.95170000E-03
					 2.77471000E-02	 0.00000000E+00	 1.95170000E-03
					 2.75900000E-02	 0.00000000E+00	 1.84481000E-03
					 2.75900000E-02	 0.00000000E+00	 1.84481000E-03
					 2.71856000E-02	 0.00000000E+00	 1.83709000E-03
					 2.71856000E-02	 0.00000000E+00	 1.83709000E-03
					 2.66611000E-02	 0.00000000E+00	 1.93241000E-03
					 2.66611000E-02	 0.00000000E+00	 1.93241000E-03
					 2.61506000E-02	 0.00000000E+00	 2.09139000E-03
					 2.61506000E-02	 0.00000000E+00	 2.09139000E-03
					 2.57611000E-02	 0.00000000E+00	 2.29053000E-03
					 2.57611000E-02	 0.00000000E+00	 2.29053000E-03
					 2.54959000E-02	 0.00000000E+00	 2.48868000E-03
					 2.54959000E-02	 0.00000000E+00	 2.48868000E-03
					 2.53394000E-02	 0.00000000E+00	 2.66504000E-03
					 2.53394000E-02	 0.00000000E+00	 2.66504000E-03
					 2.52752000E-02	 0.00000000E+00	 2.81062000E-03
					 2.52752000E-02	 0.00000000E+00	 2.81062000E-03
					 2.52619000E-02	 0.00000000E+00	 2.88810000E-03
					 2.52619000E-02	 0.00000000E+00	 2.88810000E-03
				</DataArray>
				<DataArray type="Float32" Name="S" NumberOfComponents="10" ComponentName0="xx" ComponentName1="yy" ComponentName2="zz" ComponentName3="xy" ComponentName4="yz" ComponentName5="zx" ComponentName6="Mises" ComponentName7="Min Principal" ComponentName8="Mid Principal" ComponentName9="Max Principal" format="ascii">
					-1.00219000E+03	-1.09397000E+03	-4.15939000E+03	 0.00000000E+00	 0.00000000E+00	 1.48303000E+03	 4.03543077E+03	-4.74674382E+03	-1.09397000E+03	-4.14836182E+02
					 1.83364000E+02	 1.11277000E+02	 3.79922000E+02	 0.00000000E+00	 0.00000000E+00	 1.46040000E+03	 2.54092608E+03	-1.18206015E+03	 1.11277000E+02	 1.74534615E+03
					 1.67269000E+01	 8.70886000E+01	 4.05242000E+02	 6.52432000E-09	 8.37980000E-09	 4.59852000E+02	 8.73469951E+02	-2.88214766E+02	 8.70886000E+01	 7.10183666E+02
					-2.89534000E+02	-7.32277000E+02	-3.22611000E+03	 2.38301000E-08	 3.15284000E-08	 3.63141000E+02	 2.81335488E+03	-3.27035003E+03	-7.32277000E+02	-2.45293972E+02
					-1.00219000E+03	-1.09397000E+03	-4.15939000E+03	 0.00000000E+00	 0.00000000E+00	 1.48303000E+03	 4.03543077E+03	-4.74674382E+03	-1.09397000E+03	-4.14836182E+02
					 1.83364000E+02	 1.11277000E+02	 3.79922000E+02	 0.00000000E+00	 0.00000000E+00	 1.46040000E+03	 2.54092608E+03	-1.18206015E+03	 1.11277000E+02	 1.74534615E+03
					 1.67269000E+01	 8.70886000E+01	 4.05242000E+02	 6.52436000E-09	 8.37979000E-09	 4.59852000E+02	 8.73469951E+02	-2.88214766E+02	 8.70886000E+01	 7.10183666E+02
					-2.89534000E+02	-7.32277000E+02	-3.22611000E+03	 2.38301000E-08	 3.15284000E-08	 3.63141000E+02	 2.81335488E+03	-3.27035003E+03	-7.32277000E+02	-2.45293972E+02
					 3.45927000E+01	 1.08650000E+02	 5.06728000E+02	-3.51251000E-08	 8.24608000E-09	 4.58400000E+02	 9.07646869E+02	-2.44954327E+02	 1.08650000E+02	 7.86275027E+02
					-2.66526000E+02	-4.13117000E+02	-1.75481000E+03	-1.59779000E-08	 3.05080000E-08	 2.35162000E+02	 1.47790820E+03	-1.79108358E+03	-4.13117000E+02	-2.30252417E+02
					 3.45927000E+01	 1.08650000E+02	 5.06728000E+02	-3.51251000E-08	 8.24608000E-09	 4.58400000E+02	 9.07646869E+02	-2.44954327E+02	 1.08650000E+02	 7.86275027E+02
					-2.66526000E+02	-4.13117000E+02	-1.75481000E+03	-1.59777000E-08	 3.05080000E-08	 2.35162000E+02	 1.47790820E+03	-1.79108358E+03	-4.13117000E+02	-2.30252417E+02
					 4.18947000E+01	 1.09485000E+02	 5.11467000E+02	-6.77499000E-08	-4.29635000E-09	 3.72685000E+02	 7.81031618E+02	-1.63794627E+02	 1.09485000E+02	 7.17156327E+02
					-5.25075000E+01	-1.05235000E+02	-4.66749000E+02	-3.01495000E-08	 3.52545000E-09	 2.55958000E+02	 5.90828050E+02	-5.88890308E+02	-1.05235000E+02	 6.96338080E+01
					 4.18947000E+01	 1.09485000E+02	 5.11467000E+02	-6.77499000E-08	-4.29635000E-09	 3.72685000E+02	 7.81031618E+02	-1.63794627E+02	 1.09485000E+02	 7.17156327E+02
					-5.25075000E+01	-1.05235000E+02	-4.66749000E+02	-3.01497000E-08	 3.52537000E-09	 2.55958000E+02	 5.90828050E+02	-5.88890308E+02	-1.05235000E+02	 6.96338080E+01
					 5.02859000E+01	 1.04021000E+02	 4.76127000E+02	-1.18348000E-09	-1.34124000E-08	 2.97972000E+02	 6.53993446E+02	-1.03020902E+02	 1.04021000E+02	 6.29433802E+02
					 9.47149000E+01	 1.22964000E+02	 5.29055000E+02	-1.36700000E-08	-2.27166000E-08	 2.56441000E+02	 6.11935925E+02	-2.41579299E+01	 1.22964000E+02	 6.47927830E+02
					 5.02859000E+01	 1.04021000E+02	 4.76127000E+02	-1.18375000E-09	-1.34123000E-08	 2.97972000E+02	 6.53993446E+02	-1.03020902E+02	 1.04021000E+02	 6.29433802E+02
					 9.47149000E+01	 1.22964000E+02	 5.29055000E+02	-1.36691000E-08	-2.27168000E-08	 2.56441000E+02	 6.11935925E+02	-2.41579299E+01	 1.22964000E+02	 6.47927830E+02
					 4.42542000E+01	 1.03963000E+02	 4.80063000E+02	 5.71906000E-08	-5.51288000E-09	 2.21001000E+02	 5.60354492E+02	-4.82021088E+01	 1.03963000E+02	 5.72519309E+02
					 1.90673000E+02	 2.93450000E+02	 1.30442000E+03	 2.27114000E-08	-2.40919000E-08	 2.38926000E+02	 1.14358420E+03	 1.41581378E+02	 2.93450000E+02	 1.35351162E+03
					 4.42542000E+01	 1.03963000E+02	 4.80063000E+02	 5.71914000E-08	-5.51285000E-09	 2.21001000E+02	 5.60354492E+02	-4.82021088E+01	 1.03963000E+02	 5.72519309E+02
					 1.90673000E+02	 2.93450000E+02	 1.30442000E+03	 2.27110000E-08	-2.40919000E-08	 2.38926000E+02	 1.14358420E+03	 1.41581378E+02	 2.93450000E+02	 1.35351162E+03
					 8.77156000E+00	 1.12990000E+02	 5.59511000E+02	 2.12987000E-08	-3.86485000E-09	 1.54926000E+02	 5.73397249E+02	-3.18184455E+01	 1.12990000E+02	 6.00101006E+02
					 2.31970000E+02	 4.15502000E+02	 1.89791000E+03	 7.00531000E-09	-9.47110000E-09	 2.00149000E+02	 1.61971159E+03	 2.08261155E+02	 4.15502000E+02	 1.92161884E+03
					 8.77156000E+00	 1.12990000E+02	 5.59511000E+02	 2.12987000E-08	-3.86488000E-09	 1.54926000E+02	 5.73397249E+02	-3.18184455E+01	 1.12990000E+02	 6.00101006E+02
					 2.31970000E+02	 4.15502000E+02	 1.89791000E+03	 7.00498000E-09	-9.47112000E-09	 2.00149000E+02	 1.61971159E+03	 2.08261155E+02	 4.15502000E+02	 1.92161884E+03
					-5.52793000E+00	 1.32295000E+02	 6.70585000E+02	 1.76728000E-08	-1.55747000E-08	 9.14577000E+01	 6.38775017E+02	-1.76809515E+01	 1.32295000E+02	 6.82738021E+02
					 2.43513000E+02	 4.97746000E+02	 2.32029000E+03	 2.81930000E-08	 6.01003000E-09	 1.48290000E+02	 1.97879298E+03	 2.32977956E+02	 4.97746000E+02	 2.33082504E+03
					-5.52793000E+00	 1.32295000E+02	 6.70585000E+02	 1.76725000E-08	-1.55747000E-08	 9.14577000E+01	 6.38775017E+02	-1.76809515E+01	 1.32295000E+02	 6.82738021E+02
					 2.43513000E+02	 4.97746000E+02	 2.32029000E+03	 2.81929000E-08	 6.01002000E-09	 1.48290000E+02	 1.97879298E+03	 2.32977956E+02	 4.97746000E+02	 2.33082504E+03
					 5.14343000E+00	 1.49146000E+02	 7.44667000E+02	-1.31391000E-08	-1.28908000E-08	 2.91399000E+01	 6.80944900E+02	 3.99698994E+00	 1.49146000E+02	 7.45813440E+02
					 2.73398000E+02	 5.41773000E+02	 2.52293000E+03	-4.00709000E-08	 4.44228000E-08	 8.49020000E+01	 2.13314938E+03	 2.70198174E+02	 5.41773000E+02	 2.52612983E+03
					 5.14343000E+00	 1.49146000E+02	 7.44667000E+02	-1.31384000E-08	-1.28908000E-08	 2.91399000E+01	 6.80944900E+02	 3.99698994E+00	 1.49146000E+02	 7.45813440E+02
					 2.73398000E+02	 5.41773000E+02	 2.52293000E+03	-4.00704000E-08	 4.44228000E-08	 8.49020000E+01	 2.13314938E+03	 2.70198174E+02	 5.41773000E+02	 2.52612983E+03
					-1.66616000E+01	 1.47037000E+02	 7.56506000E+02	-8.32309000E-08	 1.18002000E-08	-2.34005000E+01	 7.06867502E+02	-1.73691862E+01	 1.47037000E+02	 7.57213586E+02
					 2.34446000E+02	 5.18696000E+02	 2.44104000E+03	-1.06722000E-07	 3.18043000E-08	 2.21462000E+01	 2.07944756E+03	 2.34223755E+02	 5.18696000E+02	 2.44126225E+03
					-1.66616000E+01	 1.47037000E+02	 7.56506000E+02	-8.32306000E-08	 1.18002000E-08	-2.34005000E+01	 7.06867502E+02	-1.73691862E+01	 1.47037000E+02	 7.57213586E+02
					 2.34446000E+02	 5.18696000E+02	 2.44104000E+03	-1.06722000E-07	 3.18043000E-08	 2.21462000E+01	 2.07944756E+03	 2.34223755E+02	 5.18696000E+02	 2.44126225E+03
					-3.16165000E+01	 1.35590000E+02	 7.14572000E+02	-6.94725000E-08	 4.80882000E-09	-7.03118000E+01	 6.89071093E+02	-3.81840319E+01	 1.35590000E+02	 7.21139532E+02
					 2.04243000E+02	 4.60009000E+02	 2.16098000E+03	-8.50149000E-08	-1.00737000E-08	-3.50236000E+01	 1.84321705E+03	 2.03616314E+02	 4.60009000E+02	 2.16160669E+03
					-3.16165000E+01	 1.35590000E+02	 7.14572000E+02	-6.94732000E-08	 4.80887000E-09	-7.03118000E+01	 6.89071093E+02	-3.81840319E+01	 1.35590000E+02	 7.21139532E+02
					 2.04243000E+02	 4.60009000E+02	 2.16098000E+03	-8.50130000E-08	-1.00736000E-08	-3.50236000E+01	 1.84321705E+03	 2.03616314E+02	 4.60009000E+02	 2.16160669E+03
					 2.08024000E+01	 1.28245000E+02	 6.24682000E+02	-5.67083000E-08	-7.48858000E-09	-1.03814000E+02	 5.86228734E+02	 3.45394557E+00	 1.28245000E+02	 6.42030454E+02
					 2.11445000E+02	 3.85777000E+02	 1.76159000E+03	-5.53591000E-08	-3.53319000E-08	-7.66225000E+01	 1.47672418E+03	 2.07666816E+02	 3.85777000E+02	 1.76536818E+03
					 2.08024000E+01	 1.28245000E+02	 6.24682000E+02	-5.67096000E-08	-7.48859000E-09	-1.03814000E+02	 5.86228734E+02	 3.45394557E+00	 1.28245000E+02	 6.42030454E+02
					 2.11445000E+02	 3.85777000E+02	 1.76159000E+03	-5.53588000E-08	-3.53319000E-08	-7.66225000E+01	 1.47672418E+03	 2.07666816E+02	 3.85777000E+02	 1.76536818E+03
					 1.52005000E+01	 1.05551000E+02	 5.16051000E+02	-3.09880000E-08	 2.57618000E-09	-1.11314000E+02	 5.00933891E+02	-8.42463302E+00	 1.05551000E+02	 5.39676133E+02
					 1.59589000E+02	 2.78047000E+02	 1.25414000E+03	-5.18615000E-08	-3.54426000E-08	-8.91229000E+01	 1.05178160E+03	 1.52379726E+02	 2.78047000E+02	 1.26134927E+03
					 1.52005000E+01	 1.05551000E+02	 5.16051000E+02	-3.09887000E-08	 2.57620000E-09	-1.11314000E+02	 5.00933891E+02	-8.42463302E+00	 1.05551000E+02	 5.39676133E+02
					 1.59589000E+02	 2.78047000E+02	 1.25414000E+03	-5.18619000E-08	-3.54427000E-08	-8.91229000E+01	 1.05178160E+03	 1.52379726E+02	 2.78047000E+02	 1.26134927E+03
					-2.82685000E+01	 8.14916000E+01	 4.38860000E+02	-8.02132000E-09	 6.83037000E-09	-9.79597000E+01	 4.55820746E+02	-4.79795186E+01	 8.14916000E+01	 4.58571019E+02
					 5.69263000E+01	 1.60063000E+02	 7.52501000E+02	-2.18533000E-08	-1.10392000E-08	-7.30735000E+01	 6.62375477E+02	 4.93324783E+01	 1.60063000E+02	 7.60094822E+02
					-2.82685000E+01	 8.14916000E+01	 4.38860000E+02	-8.02132000E-09	 6.83038000E-09	-9.79597000E+01	 4.55820746E+02	-4.79795186E+01	 8.14916000E+01	 4.58571019E+02
					 5.69263000E+01	 1.60063000E+02	 7.52501000E+02	-2.18537000E-08	-1.10391000E-08	-7.30735000E+01	 6.62375477E+02	 4.93324783E+01	 1.60063000E+02	 7.60094822E+02
					 4.59880000E+00	 7.33401000E+01	 3.64459000E+02	 1.84457000E-08	 2.79229000E-09	-7.38834000E+01	 3.54772804E+02	-9.97970567E+00	 7.33401000E+01	 3.79037506E+02
					 6.66444000E+01	 9.13106000E+01	 3.92651000E+02	 4.17607000E-08	-1.09049000E-08	-5.50482000E+01	 3.28539638E+02	 5.76000899E+01	 9.13106000E+01	 4.01695310E+02
					 4.59880000E+00	 7.33401000E+01	 3.64459000E+02	 1.84453000E-08	 2.79230000E-09	-7.38834000E+01	 3.54772804E+02	-9.97970567E+00	 7.33401000E+01	 3.79037506E+02
					 6.66444000E+01	 9.13106000E+01	 3.92651000E+02	 4.17608000E-08	-1.09048000E-08	-5.50482000E+01	 3.28539638E+02	 5.76000899E+01	 9.13106000E+01	 4.01695310E+02
					 2.32636000E+01	 6.05587000E+01	 2.80897000E+02	 1.05526000E-07	 3.55937000E-09	-4.49139000E+01	 2.53395353E+02	 1.56581588E+01	 6.05587000E+01	 2.88502441E+02
					 5.67887000E+01	 4.30690000E+01	 1.59107000E+02	 9.40063000E-08	 4.50040000E-09	-4.02804000E+01	 1.30109849E+02	 4.28343395E+01	 4.30690000E+01	 1.73061361E+02
					 2.32636000E+01	 6.05587000E+01	 2.80897000E+02	 1.05526000E-07	 3.55936000E-09	-4.49139000E+01	 2.53395353E+02	 1.56581588E+01	 6.05587000E+01	 2.88502441E+02
					 5.67887000E+01	 4.30690000E+01	 1.59107000E+02	 9.40039000E-08	 4.50040000E-09	-4.02804000E+01	 1.30109849E+02	 4.28343395E+01	 4.30690000E+01	 1.73061361E+02
					 7.35571000E+00	 4.95069000E+01	 2.41124000E+02	 8.08103000E-08	 1.58555000E-08	-1.99892000E+01	 2.18562186E+02	 5.65877949E+00	 4.95069000E+01	 2.42820931E+02
					 2.92407000E+01	 1.04103000E+01	 2.27884000E+01	 4.94948000E-08	 4.72189000E-08	-1.45063000E+01	 3.01000825E+01	 1.04103000E+01	 1.11538372E+01	 4.08752628E+01
					 7.35571000E+00	 4.95069000E+01	 2.41124000E+02	 8.08098000E-08	 1.58554000E-08	-1.99892000E+01	 2.18562186E+02	 5.65877949E+00	 4.95069000E+01	 2.42820931E+02
					 2.92407000E+01	 1.04103000E+01	 2.27884000E+01	 4.94954000E-08	 4.72191000E-08	-1.45063000E+01	 3.01000825E+01	 1.04103000E+01	 1.11538372E+01	 4.08752628E+01
					-2.39212000E+01	 3.88047000E+01	 2.18721000E+02	-1.56839000E-08	 6.78825000E-09	-5.87172000E+00	 2.18387858E+02	-2.40632072E+01	 3.88047000E+01	 2.18863007E+02
					-2.01652000E+01	-1.60521000E+01	-6.01626000E+01	 2.20744000E-09	 7.20570000E-08	-8.93469000E-01	 4.22328991E+01	-6.01825485E+01	-2.01452515E+01	-1.60521000E+01
					-2.39212000E+01	 3.88047000E+01	 2.18721000E+02	-1.56844000E-08	 6.78830000E-09	-5.87172000E+00	 2.18387858E+02	-2.40632072E+01	 3.88047000E+01	 2.18863007E+02
					-2.01652000E+01	-1.60521000E+01	-6.01626000E+01	 2.20760000E-09	 7.20568000E-08	-8.93469000E-01	 4.22328991E+01	-6.01825485E+01	-2.01452515E+01	-1.60521000E+01
					-2.66138000E+01	 3.16663000E+01	 1.85567000E+02	-8.42737000E-08	-7.05757000E-09	 5.75840000E+00	 1.90133693E+02	-2.67699630E+01	 3.16663000E+01	 1.85723163E+02
					-1.10642000E+01	-1.58753000E+01	-6.83822000E+01	-9.95270000E-08	 9.27702000E-08	 4.29326000E+00	 5.55700767E+01	-6.87019916E+01	-1.58753000E+01	-1.07444084E+01
					-2.66138000E+01	 3.16663000E+01	 1.85567000E+02	-8.42745000E-08	-7.05753000E-09	 5.75840000E+00	 1.90133693E+02	-2.67699630E+01	 3.16663000E+01	 1.85723163E+02
					-1.10642000E+01	-1.58753000E+01	-6.83822000E+01	-9.95255000E-08	 9.27703000E-08	 4.29326000E+00	 5.55700767E+01	-6.87019916E+01	-1.58753000E+01	-1.07444084E+01
					-1.53105000E+00	 3.45461000E+01	 1.74725000E+02	-1.50380000E-07	-1.67827000E-08	 9.89337000E+00	 1.62180690E+02	-2.08463279E+00	 3.45461000E+01	 1.75278583E+02
					 4.41968000E+00	-4.17292000E+00	-2.53744000E+01	-1.50618000E-07	 9.88774000E-08	 3.44830000E+00	 2.72246889E+01	-2.57682911E+01	-4.17292000E+00	 4.81357109E+00
					-1.53105000E+00	 3.45461000E+01	 1.74725000E+02	-1.50379000E-07	-1.67826000E-08	 9.89337000E+00	 1.62180690E+02	-2.08463279E+00	 3.45461000E+01	 1.75278583E+02
					 4.41968000E+00	-4.17292000E+00	-2.53744000E+01	-1.50620000E-07	 9.88773000E-08	 3.44830000E+00	 2.72246889E+01	-2.57682911E+01	-4.17292000E+00	 4.81357109E+00
					 5.24257000E+01	 4.89735000E+01	 1.93011000E+02	-2.42366000E-07	-2.86850000E-08	 2.60665000E+00	 1.42414384E+02	 4.89735000E+01	 5.23773856E+01	 1.93059314E+02
					 3.17159000E+01	 8.17335000E+00	 9.08649000E+00	-2.32169000E-07	 9.21357000E-08	-3.39953000E+01	 6.32505265E+01	-1.54276059E+01	 8.17335000E+00	 5.62299959E+01
					 5.24257000E+01	 4.89735000E+01	 1.93011000E+02	-2.42366000E-07	-2.86849000E-08	 2.60665000E+00	 1.42414384E+02	 4.89735000E+01	 5.23773856E+01	 1.93059314E+02
					 3.17159000E+01	 8.17335000E+00	 9.08649000E+00	-2.32171000E-07	 9.21357000E-08	-3.39953000E+01	 6.32505265E+01	-1.54276059E+01	 8.17335000E+00	 5.62299959E+01
					 1.40459000E+03	 1.28441000E+03	 5.47253000E+03	 0.00000000E+00	 0.00000000E+00	 1.99329000E+03	 5.38247891E+03	 5.90711868E+02	 1.28441000E+03	 6.28640813E+03
					 3.07134000E+02	 8.88764000E+02	 4.39253000E+03	-2.15710000E-08	-2.45676000E-08	 6.94689000E+02	 4.01252333E+03	 1.92238914E+02	 8.88764000E+02	 4.50742509E+03
					 1.40459000E+03	 1.28441000E+03	 5.47253000E+03	 0.00000000E+00	 0.00000000E+00	 1.99329000E+03	 5.38247891E+03	 5.90711868E+02	 1.28441000E+03	 6.28640813E+03