<?xml version="1.0"?>
<VTKFile type="UnstructuredGrid" version="0.1" byte_order="LittleEndian">
	<UnstructuredGrid>
		<Piece NumberOfPoints="126" NumberOfCells="40">
			<Points>
				<DataArray type="Float64" NumberOfComponents="3" format="ascii">
					 5.00000000E-02	 0.00000000E+00	 0.00000000E+00
					 0.00000000E+00	 0.00000000E+00	 0.00000000E+00
					 0.00000000E+00	 0.00000000E+00	 5.00000000E-02
					 5.00000000E-02	 0.00000000E+00	 5.00000000E-02
					 5.00000000E-02	 3.00000000E-01	 0.00000000E+00
					 0.00000000E+00	 3.00000000E-01	 0.00000000E+00
					 0.00000000E+00	 3.00000000E-01	 5.00000000E-02
					 5.00000000E-02	 3.00000000E-01	 5.00000000E-02
					 0.00000000E+00	 0.00000000E+00	 1.00000000E-01
					 5.00000000E-02	 0.00000000E+00	 1.00000000E-01
					 0.00000000E+00	 3.00000000E-01	 1.00000000E-01
					 5.00000000E-02	 3.00000000E-01	 1.00000000E-01
					 0.00000000E+00	 0.00000000E+00	 1.50000000E-01
					 5.00000000E-02	 0.00000000E+00	 1.50000000E-01
					 0.00000000E+00	 3.00000000E-01	 1.50000000E-01
					 5.00000000E-02	 3.00000000E-01	 1.50000000E-01
					 0.00000000E+00	 0.00000000E+00	 2.00000000E-01
					 5.00000000E-02	 0.00000000E+00	 2.00000000E-01
					 0.00000000E+00	 3.00000000E-01	 2.00000000E-01
					 5.00000000E-02	 3.00000000E-01	 2.00000000E-01
					 0.00000000E+00	 0.00000000E+00	 2.50000000E-01
					 5.00000000E-02	 0.00000000E+00	 2.50000000E-01
					 0.00000000E+00	 3.00000000E-01	 2.50000000E-01
					 5.00000000E-02	 3.00000000E-01	 2.50000000E-01
					 0.00000000E+00	 0.00000000E+00	 3.00000000E-01
					 5.00000000E-02	 0.00000000E+00	 3.00000000E-01
					 0.00000000E+00	 3.00000000E-01	 3.00000000E-01
					 5.00000000E-02	 3.00000000E-01	 3.00000000E-01
					 0.00000000E+00	 0.00000000E+00	 3.50000000E-01
					 5.00000000E-02	 0.00000000E+00	 3.50000000E-01
					 0.00000000E+00	 3.00000000E-01	 3.50000000E-01
					 5.00000000E-02	 3.00000000E-01	 3.50000000E-01
					 0.00000000E+00	 0.00000000E+00	 4.00000000E-01
					 5.00000000E-02	 0.00000000E+00	 4.00000000E-01
					 0.00000000E+00	 3.00000000E-01	 4.00000000E-01
					 5.00000000E-02	 3.00000000E-01	 4.00000000E-01
					 0.00000000E+00	 0.00000000E+00	 4.50000000E-01
					 5.00000000E-02	 0.00000000E+00	 4.50000000E-01
					 0.00000000E+00	 3.00000000E-01	 4.50000000E-01
					 5.00000000E-02	 3.00000000E-01	 4.50000000E-01
					 0.00000000E+00	 0.00000000E+00	 5.00000000E-01
					 5.00000000E-02	 0.00000000E+00	 5.00000000E-01
					 0.00000000E+00	 3.00000000E-01	 5.00000000E-01
					 5.00000000E-02	 3.00000000E-01	 5.00000000E-01
					 0.00000000E+00	 0.00000000E+00	 5.50000000E-01
					 5.00000000E-02	 0.00000000E+00	 5.50000000E-01
					 0.00000000E+00	 3.00000000E-01	 5.50000000E-01
					 5.00000000E-02	 3.00000000E-01	 5.50000000E-01
					 0.00000000E+00	 0.00000000E+00	 6.00000000E-01
					 5.00000000E-02	 0.00000000E+00	 6.00000000E-01
					 0.00000000E+00	 3.00000000E-01	 6.00000000E-01
					 5.00000000E-02	 3.00000000E-01	 6.00000000E-01
					 0.00000000E+00	 0.00000000E+00	 6.50000000E-01
					 5.00000000E-02	 0.00000000E+00	 6.50000000E-01
					 0.00000000E+00	 3.00000000E-01	 6.50000000E-01
					 5.00000000E-02	 3.00000000E-01	 6.50000000E-01
					 0.00000000E+00	 0.00000000E+00	 7.00000000E-01
					 5.00000000E-02	 0.00000000E+00	 7.00000000E-01
					 0.00000000E+00	 3.00000000E-01	 7.00000000E-01
					 5.00000000E-02	 3.00000000E-01	 7.00000000E-01
					 0.00000000E+00	 0.00000000E+00	 7.50000000E-01
					 5.00000000E-02	 0.00000000E+00	 7.50000000E-01
					 0.00000000E+00	 3.00000000E-01	 7.50000000E-01
					 5.00000000E-02	 3.00000000E-01	 7.50000000E-01
					 0.00000000E+00	 0.00000000E+00	 8.00000000E-01
					 5.00000000E-02	 0.00000000E+00	 8.00000000E-01
					 0.00000000E+00	 3.00000000E-01	 8.00000000E-01
					 5.00000000E-02	 3.00000000E-01	 8.00000000E-01
					 0.00000000E+00	 0.00000000E+00	 8.50000000E-01
					 5.00000000E-02	 0.00000000E+00	 8.50000000E-01
					 0.00000000E+00	 3.00000000E-01	 8.50000000E-01
					 5.00000000E-02	 3.00000000E-01	 8.50000000E-01
					 0.00000000E+00	 0.00000000E+00	 9.00000000E-01
					 5.00000000E-02	 0.00000000E+00	 9.00000000E-01
					 0.00000000E+00	 3.00000000E-01	 9.00000000E-01
					 5.00000000E-02	 3.00000000E-01	 9.00000000E-01
					 0.00000000E+00	 0.00000000E+00	 9.50000000E-01
					 5.00000000E-02	 0.00000000E+00	 9.50000000E-01
					 0.00000000E+00	 3.00000000E-01	 9.50000000E-01
					 5.00000000E-02	 3.00000000E-01	 9.50000000E-01
					 0.00000000E+00	 0.00000000E+00	 1.00000000E+00
					 5.00000000E-02	 0.00000000E+00	 1.00000000E+00
					 0.00000000E+00	 3.00000000E-01	 1.00000000E+00
					 5.00000000E-02	 3.00000000E-01	 1.00000000E+00
					-5.00000000E-02	 0.00000000E+00	 0.00000000E+00
					-5.00000000E-02	 0.00000000E+00	 5.00000000E-02
					-5.00000000E-02	 3.00000000E-01	 0.00000000E+00
					-5.00000000E-02	 3.00000000E-01	 5.00000000E-02
					-5.00000000E-02	 0.00000000E+00	 1.00000000E-01
					-5.00000000E-02	 3.00000000E-01	 1.00000000E-01
					-5.00000000E-02	 0.00000000E+00	 1.50000000E-01
					-5.00000000E-02	 3.00000000E-01	 1.50000000E-01
					-5.00000000E-02	 0.00000000E+00	 2.00000000E-01
					-5.00000000E-02	 3.00000000E-01	 2.00000000E-01
					-5.00000000E-02	 0.00000000E+00	 2.50000000E-01
					-5.00000000E-02	 3.00000000E-01	 2.50000000E-01
					-5.00000000E-02	 0.00000000E+00	 3.00000000E-01
					-5.00000000E-02	 3.00000000E-01	 3.00000000E-01
					-5.00000000E-02	 0.00000000E+00	 3.50000000E-01
					-5.00000000E-02	 3.00000000E-01	 3.50000000E-01
					-5.00000000E-02	 0.00000000E+00	 4.00000000E-01
					-5.00000000E-02	 3.00000000E-01	 4.00000000E-01
					-5.00000000E-02	 0.00000000E+00	 4.50000000E-01
					-5.00000000E-02	 3.00000000E-01	 4.50000000E-01
					-5.00000000E-02	 0.00000000E+00	 5.00000000E-01
					-5.00000000E-02	 3.00000000E-01	 5.00000000E-01
					-5.00000000E-02	 0.00000000E+00	 5.50000000E-01
					-5.00000000E-02	 3.00000000E-01	 5.50000000E-01
					-5.00000000E-02	 0.00000000E+00	 6.00000000E-01
					-5.00000000E-02	 3.00000000E-01	 6.00000000E-01
					-5.00000000E-02	 0.00000000E+00	 6.50000000E-01
					-5.00000000E-02	 3.00000000E-01	 6.50000000E-01
					-5.00000000E-02	 0.00000000E+00	 7.00000000E-01
					-5.00000000E-02	 3.00000000E-01	 7.00000000E-01
					-5.00000000E-02	 0.00000000E+00	 7.50000000E-01
					-5.00000000E-02	 3.00000000E-01	 7.50000000E-01
					-5.00000000E-02	 0.00000000E+00	 8.00000000E-01
					-5.00000000E-02	 3.00000000E-01	 8.00000000E-01
					-5.00000000E-02	 0.00000000E+00	 8.50000000E-01
					-5.00000000E-02	 3.00000000E-01	 8.50000000E-01
					-5.00000000E-02	 0.00000000E+00	 9.00000000E-01
					-5.00000000E-02	 3.00000000E-01	 9.00000000E-01
					-5.00000000E-02	 0.00000000E+00	 9.50000000E-01
					-5.00000000E-02	 3.00000000E-01	 9.50000000E-01
					-5.00000000E-02	 0.00000000E+00	 1.00000000E+00
					-5.00000000E-02	 3.00000000E-01	 1.00000000E+00

				</DataArray>
			</Points>
			<Cells>
				<DataArray type="Int32" Name="connectivity" format="ascii">
					0 1 2 3 4 5 6 7 3 2 8 9 7 6 10 11 9 8 12 13 11 10 14 15 13 12 16 17 15 14 18 19 17 16 20 21 19 18 22 23 21 20 24 25 23 22 26 27 25 24 28 29 27 26 30 31 29 28 32 33 31 30 34 35 33 32 36 37 35 34 38 39 37 36 40 41 39 38 42 43 41 40 44 45 43 42 46 47 45 44 48 49 47 46 50 51 49 48 52 53 51 50 54 55 53 52 56 57 55 54 58 59 57 56 60 61 59 58 62 63 61 60 64 65 63 62 66 67 65 64 68 69 67 66 70 71 69 68 72 73 71 70 74 75 73 72 76 77 75 74 78 79 77 76 80 81 79 78 82 83 1 84 85 2 5 86 87 6 2 85 88 8 6 87 89 10 8 88 90 12 10 89 91 14 12 90 92 16 14 91 93 18 16 92 94 20 18 93 95 22 20 94 96 24 22 95 97 26 24 96 98 28 26 97 99 30 28 98 100 32 30 99 101 34 32 100 102 36 34 101 103 38 36 102 104 40 38 103 105 42 40 104 106 44 42 105 107 46 44 106 108 48 46 107 109 50 48 108 110 52 50 109 111 54 52 110 112 56 54 111 113 58 56 112 114 60 58 113 115 62 60 114 116 64 62 115 117 66 64 116 118 68 66 117 119 70 68 118 120 72 70 119 121 74 72 120 122 76 74 121 123 78 76 122 124 80 78 123 125 82 
				</DataArray>
				<DataArray type="Int32" Name="offsets" format="ascii">
					8 16 24 32 40 48 56 64 72 80 88 96 104 112 120 128 136 144 152 160 168 176 184 192 200 208 216 224 232 240 248 256 264 272 280 288 296 304 312 320 
				</DataArray>
				<DataArray type="UInt8" Name="types" format="ascii">
					12 12 12 12 12 12 12 12 12 12 12 12 12 12 12 12 12 12 12 12 12 12 12 12 12 12 12 12 12 12 12 12 12 12 12 12 12 12 12 12 
				</DataArray>
			</Cells>
			<PointData>
				<DataArray type="Float32" Name="U" NumberOfComponents="3" ComponentName0="D1" ComponentName1="D2" ComponentName2="D3" format="ascii">
					 0.00000000E+00	 0.00000000E+00	 0.00000000E+00
					 0.00000000E+00	 0.00000000E+00	 0.00000000E+00
					 3.96481000E-03	 0.00000000E+00	-4.25306000E-04
					 4.26802000E-03	 0.00000000E+00	-6.59198000E-03
					 0.00000000E+00	 0.00000000E+00	 0.00000000E+00
					 0.00000000E+00	 0.00000000E+00	 0.00000000E+00
					 3.96481000E-03	 0.00000000E+00	-4.25306000E-04
					 4.26802000E-03	 0.00000000E+00	-6.59198000E-03
					 1.38297000E-02	 0.00000000E+00	-1.41136000E-03
					 1.29537000E-02	 0.00000000E+00	-1.23471000E-02
					 1.38297000E-02	 0.00000000E+00	-1.41136000E-03
					 1.29537000E-02	 0.00000000E+00	-1.23471000E-02
					 2.74469000E-02	 0.00000000E+00	-3.24095000E-03
					 2.56293000E-02	 0.00000000E+00	-1.75383000E-02
					 2.74469000E-02	 0.00000000E+00	-3.24095000E-03
					 2.56293000E-02	 0.00000000E+00	-1.75383000E-02
					 4.37533000E-02	 0.00000000E+00	-5.86240000E-03
					 4.10910000E-02	 0.00000000E+00	-2.24088000E-02
					 4.37533000E-02	 0.00000000E+00	-5.86240000E-03
					 4.10910000E-02	 0.00000000E+00	-2.24088000E-02
					 6.17680000E-02	 0.00000000E+00	-9.07816000E-03
					 5.85082000E-02	 0.00000000E+00	-2.69765000E-02
					 6.17680000E-02	 0.00000000E+00	-9.07816000E-03
					 5.85082000E-02	 0.00000000E+00	-2.69765000E-02
					 8.06886000E-02	 0.00000000E+00	-1.26310000E-02
					 7.70850000E-02	 0.00000000E+00	-3.11407000E-02
					 8.06886000E-02	 0.00000000E+00	-1.26310000E-02
					 7.70850000E-02	 0.00000000E+00	-3.11407000E-02
					 9.98382000E-02	 0.00000000E+00	-1.62604000E-02
					 9.61515000E-02	 0.00000000E+00	-3.47920000E-02
					 9.98382000E-02	 0.00000000E+00	-1.62604000E-02
					 9.61515000E-02	 0.00000000E+00	-3.47920000E-02
					 1.18668000E-01	 0.00000000E+00	-1.97508000E-02
					 1.15094000E-01	 0.00000000E+00	-3.78434000E-02
					 1.18668000E-01	 0.00000000E+00	-1.97508000E-02
					 1.15094000E-01	 0.00000000E+00	-3.78434000E-02
					 1.36779000E-01	 0.00000000E+00	-2.29525000E-02
					 1.33449000E-01	 0.00000000E+00	-4.02929000E-02
					 1.36779000E-01	 0.00000000E+00	-2.29525000E-02
					 1.33449000E-01	 0.00000000E+00	-4.02929000E-02
					 1.53936000E-01	 0.00000000E+00	-2.58002000E-02
					 1.50919000E-01	 0.00000000E+00	-4.22001000E-02
					 1.53936000E-01	 0.00000000E+00	-2.58002000E-02
					 1.50919000E-01	 0.00000000E+00	-4.22001000E-02
					 1.70010000E-01	 0.00000000E+00	-2.82907000E-02
					 1.67355000E-01	 0.00000000E+00	-4.36397000E-02
					 1.70010000E-01	 0.00000000E+00	-2.82907000E-02
					 1.67355000E-01	 0.00000000E+00	-4.36397000E-02
					 1.84911000E-01	 0.00000000E+00	-3.04318000E-02
					 1.82610000E-01	 0.00000000E+00	-4.46687000E-02
					 1.84911000E-01	 0.00000000E+00	-3.04318000E-02
					 1.82610000E-01	 0.00000000E+00	-4.46687000E-02
					 1.98607000E-01	 0.00000000E+00	-3.22311000E-02
					 1.96628000E-01	 0.00000000E+00	-4.53930000E-02
					 1.98607000E-01	 0.00000000E+00	-3.22311000E-02
					 1.96628000E-01	 0.00000000E+00	-4.53930000E-02
					 2.11200000E-01	 0.00000000E+00	-3.37293000E-02
					 2.09486000E-01	 0.00000000E+00	-4.59607000E-02
					 2.11200000E-01	 0.00000000E+00	-3.37293000E-02
					 2.09486000E-01	 0.00000000E+00	-4.59607000E-02
					 2.22913000E-01	 0.00000000E+00	-3.50047000E-02
					 2.21417000E-01	 0.00000000E+00	-4.65169000E-02
					 2.22913000E-01	 0.00000000E+00	-3.50047000E-02
					 2.21417000E-01	 0.00000000E+00	-4.65169000E-02
					 2.34011000E-01	 0.00000000E+00	-3.61426000E-02
					 2.32669000E-01	 0.00000000E+00	-4.71444000E-02
					 2.34011000E-01	 0.00000000E+00	-3.61426000E-02
					 2.32669000E-01	 0.00000000E+00	-4.71444000E-02
					 2.44721000E-01	 0.00000000E+00	-3.72014000E-02
					 2.43476000E-01	 0.00000000E+00	-4.78808000E-02
					 2.44721000E-01	 0.00000000E+00	-3.72014000E-02
					 2.43476000E-01	 0.00000000E+00	-4.78808000E-02
					 2.55219000E-01	 0.00000000E+00	-3.82232000E-02
					 2.54026000E-01	 0.00000000E+00	-4.87353000E-02
					 2.55219000E-01	 0.00000000E+00	-3.82232000E-02
					 2.54026000E-01	 0.00000000E+00	-4.87353000E-02
					 2.65636000E-01	 0.00000000E+00	-3.92523000E-02
					 2.64482000E-01	 0.00000000E+00	-4.97101000E-02
					 2.65636000E-01	 0.00000000E+00	-3.92523000E-02
					 2.64482000E-01	 0.00000000E+00	-4.97101000E-02
					 2.76062000E-01	 0.00000000E+00	-4.03345000E-02
					 2.74932000E-01	 0.00000000E+00	-5.07853000E-02
					 2.76062000E-01	 0.00000000E+00	-4.03345000E-02
					 2.74932000E-01	 0.00000000E+00	-5.07853000E-02
					 0.00000000E+00	 0.00000000E+00	 0.00000000E+00
					 5.39562000E-03	 0.00000000E+00	 5.52271000E-03
					 0.00000000E+00	 0.00000000E+00	 0.00000000E+00
					 5.39562000E-03	 0.00000000E+00	 5.52271000E-03
					 1.56658000E-02	 0.00000000E+00	 9.18744000E-03
					 1.56658000E-02	 0.00000000E+00	 9.18744000E-03
					 2.99801000E-02	 0.00000000E+00	 1.07524000E-02
					 2.99801000E-02	 0.00000000E+00	 1.07524000E-02
					 4.68795000E-02	 0.00000000E+00	 1.04710000E-02
					 4.68795000E-02	 0.00000000E+00	 1.04710000E-02
					 6.52955000E-02	 0.00000000E+00	 8.69835000E-03
					 6.52955000E-02	 0.00000000E+00	 8.69835000E-03
					 8.43999000E-02	 0.00000000E+00	 5.83215000E-03
					 8.43999000E-02	 0.00000000E+00	 5.83215000E-03
					 1.03494000E-01	 0.00000000E+00	 2.28599000E-03
					 1.03494000E-01	 0.00000000E+00	 2.28599000E-03
					 1.22117000E-01	 0.00000000E+00	-1.59977000E-03
					 1.22117000E-01	 0.00000000E+00	-1.59977000E-03
					 1.39914000E-01	 0.00000000E+00	-5.53218000E-03
					 1.39914000E-01	 0.00000000E+00	-5.53218000E-03
					 1.56720000E-01	 0.00000000E+00	-9.32578000E-03
					 1.56720000E-01	 0.00000000E+00	-9.32578000E-03
					 1.72404000E-01	 0.00000000E+00	-1.28711000E-02
					 1.72404000E-01	 0.00000000E+00	-1.28711000E-02
					 1.86952000E-01	 0.00000000E+00	-1.61222000E-02
					 1.86952000E-01	 0.00000000E+00	-1.61222000E-02
					 2.00348000E-01	 0.00000000E+00	-1.90029000E-02
					 2.00348000E-01	 0.00000000E+00	-1.90029000E-02
					 2.12725000E-01	 0.00000000E+00	-2.14559000E-02
					 2.12725000E-01	 0.00000000E+00	-2.14559000E-02
					 2.24267000E-01	 0.00000000E+00	-2.34729000E-02
					 2.24267000E-01	 0.00000000E+00	-2.34729000E-02
					 2.35266000E-01	 0.00000000E+00	-2.51293000E-02
					 2.35266000E-01	 0.00000000E+00	-2.51293000E-02
					 2.45921000E-01	 0.00000000E+00	-2.65137000E-02
					 2.45921000E-01	 0.00000000E+00	-2.65137000E-02
					 2.56402000E-01	 0.00000000E+00	-2.77161000E-02
					 2.56402000E-01	 0.00000000E+00	-2.77161000E-02
					 2.66793000E-01	 0.00000000E+00	-2.88153000E-02
					 2.66793000E-01	 0.00000000E+00	-2.88153000E-02
					 2.77198000E-01	 0.00000000E+00	-2.98935000E-02
					 2.77198000E-01	 0.00000000E+00	-2.98935000E-02
				</DataArray>
				<DataArray type="Float32" Name="S" NumberOfComponents="10" ComponentName0="xx" ComponentName1="yy" ComponentName2="zz" ComponentName3="xy" ComponentName4="yz" ComponentName5="zx" ComponentName6="Mises" ComponentName7="Min Principal" ComponentName8="Mid Principal" ComponentName9="Max Principal" format="ascii">
					-4.02314000E+03	-4.57976000E+03	-1.45395000E+04	 0.00000000E+00	-1.89590000E-09	 2.92758000E+03	 1.14351306E+04	-1.52995574E+04	-4.57976000E+03	-3.26308259E+03
					 3.03801000E+02	-1.77736000E+02	-1.47825000E+03	 0.00000000E+00	-2.02355000E-09	 3.83037000E+03	 6.82383053E+03	-4.51986493E+03	-1.77736000E+02	 3.34541593E+03
					-7.74654000E+01	-2.25286000E+02	-1.32167000E+03	-9.80431000E-08	 1.68123000E-08	 7.41450000E+02	 1.74218864E+03	-1.66743100E+03	-2.25286000E+02	 2.68295603E+02
					-1.81979000E+03	-3.44846000E+03	-1.26154000E+04	-8.51798000E-08	 9.16743000E-09	-4.06392000E+02	 1.01049858E+04	-1.26306767E+04	-3.44846000E+03	-1.80451332E+03
					-4.02314000E+03	-4.57976000E+03	-1.45395000E+04	 0.00000000E+00	-1.89591000E-09	 2.92758000E+03	 1.14351306E+04	-1.52995574E+04	-4.57976000E+03	-3.26308259E+03
					 3.03801000E+02	-1.77736000E+02	-1.47825000E+03	 0.00000000E+00	-2.02355000E-09	 3.83037000E+03	 6.82383053E+03	-4.51986493E+03	-1.77736000E+02	 3.34541593E+03
					-7.74654000E+01	-2.25286000E+02	-1.32167000E+03	-9.80432000E-08	 1.68123000E-08	 7.41450000E+02	 1.74218864E+03	-1.66743100E+03	-2.25286000E+02	 2.68295603E+02
					-1.81979000E+03	-3.44846000E+03	-1.26154000E+04	-8.51796000E-08	 9.16730000E-09	-4.06392000E+02	 1.01049858E+04	-1.26306767E+04	-3.44846000E+03	-1.80451332E+03
					 9.09374000E+01	-1.02338000E+02	-8.17522000E+02	-9.90671000E-08	 2.96095000E-08	 8.50401000E+02	 1.69015283E+03	-1.32740146E+03	-1.02338000E+02	 6.00816865E+02
					-1.97527000E+03	-2.65704000E+03	-9.71409000E+03	-9.18165000E-08	-2.38230000E-09	-1.09306000E+03	 7.65913771E+03	-9.86551498E+03	-2.65704000E+03	-1.82384502E+03
					 9.09374000E+01	-1.02338000E+02	-8.17522000E+02	-9.90664000E-08	 2.96095000E-08	 8.50401000E+02	 1.69015283E+03	-1.32740146E+03	-1.02338000E+02	 6.00816865E+02
					-1.97527000E+03	-2.65704000E+03	-9.71409000E+03	-9.18171000E-08	-2.38216000E-09	-1.09306000E+03	 7.65913771E+03	-9.86551498E+03	-2.65704000E+03	-1.82384502E+03
					 2.49596000E+02	-3.09337000E+01	-5.02006000E+02	-6.71304000E-08	 2.82827000E-08	 7.10737000E+02	 1.39577829E+03	-9.30178554E+02	-3.09337000E+01	 6.77768554E+02
					-1.31079000E+03	-1.77722000E+03	-6.82519000E+03	-7.77739000E-08	 1.63782000E-08	-1.04119000E+03	 5.59520443E+03	-7.01523082E+03	-1.77722000E+03	-1.12074918E+03
					 2.49596000E+02	-3.09337000E+01	-5.02006000E+02	-6.71304000E-08	 2.82825000E-08	 7.10737000E+02	 1.39577829E+03	-9.30178554E+02	-3.09337000E+01	 6.77768554E+02
					-1.31079000E+03	-1.77722000E+03	-6.82519000E+03	-7.77718000E-08	 1.63784000E-08	-1.04119000E+03	 5.59520443E+03	-7.01523082E+03	-1.77722000E+03	-1.12074918E+03
					 3.02094000E+02	 7.44572000E+00	-3.02601000E+02	-4.24981000E-08	 2.03794000E-08	 6.42952000E+02	 1.23063526E+03	-7.10747191E+02	 7.44572000E+00	 7.10240191E+02
					-8.73863000E+02	-1.13296000E+03	-4.47691000E+03	-4.21869000E-08	 2.34644000E-08	-7.39829000E+02	 3.70912134E+03	-4.62290643E+03	-1.13296000E+03	-7.27866572E+02
					 3.02094000E+02	 7.44572000E+00	-3.02601000E+02	-4.24987000E-08	 2.03793000E-08	 6.42952000E+02	 1.23063526E+03	-7.10747191E+02	 7.44572000E+00	 7.10240191E+02
					-8.73863000E+02	-1.13296000E+03	-4.47691000E+03	-4.21904000E-08	 2.34635000E-08	-7.39829000E+02	 3.70912134E+03	-4.62290643E+03	-1.13296000E+03	-7.27866572E+02
					 3.06072000E+02	 3.07402000E+01	-1.57920000E+02	-7.97674000E-08	 3.87014000E-08	 5.81965000E+02	 1.08599917E+03	-5.52426518E+02	 3.07402000E+01	 7.00578518E+02
					-4.19304000E+02	-6.01379000E+02	-2.49181000E+03	-7.95606000E-08	 2.77775000E-08	-2.95436000E+02	 2.05254188E+03	-2.53310176E+03	-6.01379000E+02	-3.78012240E+02
					 3.06072000E+02	 3.07402000E+01	-1.57920000E+02	-7.97659000E-08	 3.87012000E-08	 5.81965000E+02	 1.08599917E+03	-5.52426518E+02	 3.07402000E+01	 7.00578518E+02
					-4.19304000E+02	-6.01379000E+02	-2.49181000E+03	-7.95608000E-08	 2.77770000E-08	-2.95436000E+02	 2.05254188E+03	-2.53310176E+03	-6.01379000E+02	-3.78012240E+02
					 2.41625000E+02	 3.66844000E+01	-5.10461000E+01	-9.35480000E-08	 4.66487000E-08	 5.33108000E+02	 9.59317075E+02	-4.57538039E+02	 3.66844000E+01	 6.48116939E+02
					-3.46764000E+01	-1.74987000E+02	-8.21921000E+02	-9.39221000E-08	 9.03583000E-09	 1.76318000E+02	 7.88826010E+02	-8.59606655E+02	-1.74987000E+02	 3.00925516E+00
					 2.41625000E+02	 3.66844000E+01	-5.10461000E+01	-9.35512000E-08	 4.66485000E-08	 5.33108000E+02	 9.59317075E+02	-4.57538039E+02	 3.66844000E+01	 6.48116939E+02
					-3.46764000E+01	-1.74987000E+02	-8.21921000E+02	-9.39211000E-08	 9.03637000E-09	 1.76318000E+02	 7.88826010E+02	-8.59606655E+02	-1.74987000E+02	 3.00925516E+00
					 1.93363000E+02	 4.90559000E+01	 5.95657000E+01	-2.12277000E-08	 0.00000000E+00	 4.60402000E+02	 8.09523540E+02	-3.38772612E+02	 4.90559000E+01	 5.91701312E+02
					 2.97410000E+02	 1.69590000E+02	 5.73806000E+02	-2.65297000E-08	-5.46927000E-08	 5.69806000E+02	 1.04980868E+03	-1.50717477E+02	 1.69590000E+02	 1.02193348E+03
					 1.93363000E+02	 4.90559000E+01	 5.95657000E+01	-2.12282000E-08	 0.00000000E+00	 4.60402000E+02	 8.09523540E+02	-3.38772612E+02	 4.90559000E+01	 5.91701312E+02
					 2.97410000E+02	 1.69590000E+02	 5.73806000E+02	-2.65303000E-08	-5.46925000E-08	 5.69806000E+02	 1.04980868E+03	-1.50717477E+02	 1.69590000E+02	 1.02193348E+03
					 1.02987000E+02	 4.97303000E+01	 1.48338000E+02	 1.22920000E-08	-5.61940000E-08	 3.82294000E+02	 6.67648366E+02	-2.57303400E+02	 4.97303000E+01	 5.08628400E+02
					 4.91209000E+02	 4.15160000E+02	 1.64915000E+03	 5.57753000E-08	-6.14558000E-08	 8.36067000E+02	 1.87928049E+03	 5.32159469E+01	 4.15160000E+02	 2.08714305E+03
					 1.02987000E+02	 4.97303000E+01	 1.48338000E+02	 1.22967000E-08	-5.61930000E-08	 3.82294000E+02	 6.67648366E+02	-2.57303400E+02	 4.97303000E+01	 5.08628400E+02
					 4.91209000E+02	 4.15160000E+02	 1.64915000E+03	 5.57710000E-08	-6.14559000E-08	 8.36067000E+02	 1.87928049E+03	 5.32159469E+01	 4.15160000E+02	 2.08714305E+03
					 1.77066000E+01	 4.73811000E+01	 2.15375000E+02	-2.30444000E-08	-3.95699000E-08	 3.04345000E+02	 5.58538538E+02	-2.03449947E+02	 4.73811000E+01	 4.36531547E+02
					 5.69943000E+02	 5.69036000E+02	 2.38233000E+03	-3.28671000E-08	-5.76447000E-09	 9.65922000E+02	 2.46686182E+03	 1.51677377E+02	 5.69036000E+02	 2.80059562E+03
					 1.77066000E+01	 4.73811000E+01	 2.15375000E+02	-2.30402000E-08	-3.95717000E-08	 3.04345000E+02	 5.58538538E+02	-2.03449947E+02	 4.73811000E+01	 4.36531547E+02
					 5.69943000E+02	 5.69036000E+02	 2.38233000E+03	-3.28782000E-08	-5.76353000E-09	 9.65922000E+02	 2.46686182E+03	 1.51677377E+02	 5.69036000E+02	 2.80059562E+03
					-6.74902000E+01	 3.43238000E+01	 2.29704000E+02	-3.05573000E-08	-5.72950000E-09	 2.37185000E+02	 4.87034009E+02	-1.98782046E+02	 3.43238000E+01	 3.60995846E+02
					 5.73167000E+02	 6.51201000E+02	 2.81770000E+03	-1.63406000E-08	 1.78197000E-08	 9.98205000E+02	 2.80323161E+03	 1.93469679E+02	 6.51201000E+02	 3.19739732E+03
					-6.74902000E+01	 3.43238000E+01	 2.29704000E+02	-3.05667000E-08	-5.72879000E-09	 2.37185000E+02	 4.87034009E+02	-1.98782046E+02	 3.43238000E+01	 3.60995846E+02
					 5.73167000E+02	 6.51201000E+02	 2.81770000E+03	-1.63414000E-08	 1.78186000E-08	 9.98205000E+02	 2.80323161E+03	 1.93469679E+02	 6.51201000E+02	 3.19739732E+03
					-8.34718000E+01	 3.06469000E+01	 2.24018000E+02	-7.38268000E-08	 1.51706000E-08	 1.53796000E+02	 3.78737835E+02	-1.47191159E+02	 3.06469000E+01	 2.87737359E+02
					 5.75010000E+02	 6.96674000E+02	 3.05679000E+03	-6.47038000E-08	 2.17884000E-08	 9.43198000E+02	 2.92249178E+03	 2.57236964E+02	 6.96674000E+02	 3.37456304E+03
					-8.34718000E+01	 3.06469000E+01	 2.24018000E+02	-7.38196000E-08	 1.51705000E-08	 1.53796000E+02	 3.78737835E+02	-1.47191159E+02	 3.06469000E+01	 2.87737359E+02
					 5.75010000E+02	 6.96674000E+02	 3.05679000E+03	-6.46900000E-08	 2.17889000E-08	 9.43198000E+02	 2.92249178E+03	 2.57236964E+02	 6.96674000E+02	 3.37456304E+03
					-1.27109000E+02	 2.02750000E+01	 2.15725000E+02	-8.42850000E-08	 1.24676000E-08	 7.26470000E+01	 3.23360029E+02	-1.41867655E+02	 2.02750000E+01	 2.30483655E+02
					 5.03252000E+02	 6.89961000E+02	 3.09079000E+03	-9.64098000E-08	-1.50635000E-08	 8.17871000E+02	 2.87294891E+03	 2.66416153E+02	 6.89961000E+02	 3.32762585E+03
					-1.27109000E+02	 2.02750000E+01	 2.15725000E+02	-8.42906000E-08	 1.24679000E-08	 7.26470000E+01	 3.23360029E+02	-1.41867655E+02	 2.02750000E+01	 2.30483655E+02
					 5.03252000E+02	 6.89961000E+02	 3.09079000E+03	-9.64004000E-08	-1.50639000E-08	 8.17871000E+02	 2.87294891E+03	 2.66416153E+02	 6.89961000E+02	 3.32762585E+03
					-1.68977000E+02	 1.66681000E+01	 2.41939000E+02	-3.33036000E-08	 1.28135000E-08	-2.51125000E-01	 3.56415080E+02	-1.68977153E+02	 1.66681000E+01	 2.41939153E+02
					 3.79747000E+02	 6.28039000E+02	 2.88181000E+03	-5.65765000E-08	-3.71986000E-08	 6.38110000E+02	 2.63102244E+03	 2.26405264E+02	 6.28039000E+02	 3.03515174E+03
					-1.68977000E+02	 1.66681000E+01	 2.41939000E+02	-3.33038000E-08	 1.28136000E-08	-2.51125000E-01	 3.56415080E+02	-1.68977153E+02	 1.66681000E+01	 2.41939153E+02
					 3.79747000E+02	 6.28039000E+02	 2.88181000E+03	-5.65721000E-08	-3.71960000E-08	 6.38110000E+02	 2.63102244E+03	 2.26405264E+02	 6.28039000E+02	 3.03515174E+03
					-2.13979000E+02	 1.26872000E+01	 2.70633000E+02	-1.70229000E-08	 1.48235000E-08	-4.42697000E+01	 4.26919917E+02	-2.17989877E+02	 1.26872000E+01	 2.74643877E+02
					 2.34586000E+02	 5.19001000E+02	 2.44644000E+03	-2.25520000E-08	-3.08862000E-08	 4.52610000E+02	 2.22680780E+03	 1.45552607E+02	 5.19001000E+02	 2.53547339E+03
					-2.13979000E+02	 1.26872000E+01	 2.70633000E+02	-1.70220000E-08	 1.48243000E-08	-4.42697000E+01	 4.26919917E+02	-2.17989877E+02	 1.26872000E+01	 2.74643877E+02
					 2.34586000E+02	 5.19001000E+02	 2.44644000E+03	-2.25627000E-08	-3.08863000E-08	 4.52610000E+02	 2.22680780E+03	 1.45552607E+02	 5.19001000E+02	 2.53547339E+03
					-1.83069000E+02	 2.15628000E+01	 2.87461000E+02	 8.67031000E-09	-1.98075000E-09	-6.56167000E+01	 4.24150808E+02	-1.92048082E+02	 2.15628000E+01	 2.96440082E+02
					 1.48359000E+02	 4.00677000E+02	 1.90739000E+03	-7.86131000E-09	-3.63687000E-08	 2.91947000E+02	 1.72328709E+03	 1.01170359E+02	 4.00677000E+02	 1.95457864E+03
					-1.83069000E+02	 2.15628000E+01	 2.87461000E+02	 8.67146000E-09	-1.97801000E-09	-6.56167000E+01	 4.24150808E+02	-1.92048082E+02	 2.15628000E+01	 2.96440082E+02
					 1.48359000E+02	 4.00677000E+02	 1.90739000E+03	-7.87046000E-09	-3.63724000E-08	 2.91947000E+02	 1.72328709E+03	 1.01170359E+02	 4.00677000E+02	 1.95457864E+03
					-1.62029000E+02	 2.19425000E+01	 2.70817000E+02	 2.85482000E-08	 0.00000000E+00	-5.82921000E+01	 3.89568674E+02	-1.69741860E+02	 2.19425000E+01	 2.78529860E+02
					 7.01849000E+01	 2.81622000E+02	 1.36528000E+03	-3.76015000E-09	-5.25740000E-08	 1.75117000E+02	 1.24102526E+03	 4.69241367E+01	 2.81622000E+02	 1.38854076E+03
					-1.62029000E+02	 2.19425000E+01	 2.70817000E+02	 2.85540000E-08	 0.00000000E+00	-5.82921000E+01	 3.89568674E+02	-1.69741860E+02	 2.19425000E+01	 2.78529860E+02
					 7.01849000E+01	 2.81622000E+02	 1.36528000E+03	-3.76201000E-09	-5.25753000E-08	 1.75117000E+02	 1.24102526E+03	 4.69241367E+01	 2.81622000E+02	 1.38854076E+03
					-1.46528000E+02	 1.91718000E+01	 2.42787000E+02	 7.53350000E-08	-1.10985000E-08	-3.91703000E+01	 3.45132022E+02	-1.50429949E+02	 1.91718000E+01	 2.46688949E+02
					-1.51860000E+00	 1.74263000E+02	 8.84994000E+02	 6.91250000E-08	-7.75067000E-08	 9.60962000E+01	 8.29864204E+02	-1.18156344E+01	 1.74263000E+02	 8.95291034E+02
					-1.46528000E+02	 1.91718000E+01	 2.42787000E+02	 7.53273000E-08	-1.10998000E-08	-3.91703000E+01	 3.45132022E+02	-1.50429949E+02	 1.91718000E+01	 2.46688949E+02
					-1.51860000E+00	 1.74263000E+02	 8.84994000E+02	 6.91289000E-08	-7.75058000E-08	 9.60962000E+01	 8.29864204E+02	-1.18156344E+01	 1.74263000E+02	 8.95291034E+02
					-1.53111000E+02	 6.39908000E+00	 1.85902000E+02	 1.36879000E-07	-3.38889000E-08	-1.64955000E+01	 2.95150120E+02	-1.53911737E+02	 6.39908000E+00	 1.86702737E+02
					-6.89297000E+01	 8.18071000E+01	 4.82195000E+02	 1.34463000E-07	-4.05392000E-08	 4.98268000E+01	 5.00832681E+02	-7.33982746E+01	 8.18071000E+01	 4.86663575E+02
					-1.53111000E+02	 6.39908000E+00	 1.85902000E+02	 1.36878000E-07	-3.38881000E-08	-1.64955000E+01	 2.95150120E+02	-1.53911737E+02	 6.39908000E+00	 1.86702737E+02
					-6.89297000E+01	 8.18071000E+01	 4.82195000E+02	 1.34465000E-07	-4.05392000E-08	 4.98268000E+01	 5.00832681E+02	-7.33982746E+01	 8.18071000E+01	 4.86663575E+02
					-1.17743000E+02	-6.00396000E+00	 8.81617000E+01	 1.36424000E-07	-1.07071000E-08	-4.63578000E+00	 1.78715518E+02	-1.17847318E+02	-6.00396000E+00	 8.82660180E+01
					-7.65955000E+01	 2.03694000E+01	 1.79381000E+02	 1.45874000E-07	 9.76968000E-09	 2.23385000E+01	 2.27161727E+02	-7.85303069E+01	 2.03694000E+01	 1.81315807E+02
					-1.17743000E+02	-6.00396000E+00	 8.81617000E+01	 1.36416000E-07	-1.07084000E-08	-4.63578000E+00	 1.78715518E+02	-1.17847318E+02	-6.00396000E+00	 8.82660180E+01
					-7.65955000E+01	 2.03694000E+01	 1.79381000E+02	 1.45889000E-07	 9.77305000E-09	 2.23385000E+01	 2.27161727E+02	-7.85303069E+01	 2.03694000E+01	 1.81315807E+02
					-7.47484000E+01	-8.38417000E+00	 3.29469000E+01	 1.24505000E-07	 1.29265000E-08	-9.39568000E+00	 9.54997875E+01	-7.55619631E+01	-8.38417000E+00	 3.37604631E+01
					-4.79357000E+01	 2.29560000E+00	 5.95185000E+01	 1.16690000E-07	 3.46594000E-08	 1.07467000E+01	 9.49657787E+01	-4.89999573E+01	 2.29560000E+00	 6.05827573E+01
					-7.47484000E+01	-8.38417000E+00	 3.29469000E+01	 1.24509000E-07	 1.29265000E-08	-9.39568000E+00	 9.54997875E+01	-7.55619631E+01	-8.38417000E+00	 3.37604631E+01
					-4.79357000E+01	 2.29560000E+00	 5.95185000E+01	 1.16645000E-07	 3.46590000E-08	 1.07467000E+01	 9.49657787E+01	-4.89999573E+01	 2.29560000E+00	 6.05827573E+01
					 4.73587000E+03	 3.66894000E+03	 1.72803000E+04	 0.00000000E+00	-1.57266000E-09	 6.97624000E+03	 1.78294382E+04	 1.62679481E+03	 3.66894000E+03	 2.03893752E+04
					 1.48822000E+03	 2.73076000E+03	 1.45016000E+04	-8.92866000E-08	-1.82312000E-08	 2.97038000E+03	 1.34607500E+04	 8.42276073E+02	 2.73076000E+03	 1.51475439E+04
					 4.73587000E+03	 3.66894000E+03	 1.72803000E+04	 0.00000000E+00	-1.57265000E-09	 6.97624000E+03	 1.78294382E+04	 1.62679481E+03	 3.66894000E+03	 2.03893752E+04