<?xml version="1.0"?>
<VTKFile type="UnstructuredGrid" version="0.1" byte_order="LittleEndian">
	<UnstructuredGrid>
		<Piece NumberOfPoints="126" NumberOfCells="40">
			<Points>
				<DataArray type="Float64" NumberOfComponents="3" format="ascii">
					 5.00000000E-02	 0.00000000E+00	 0.00000000E+00
					 0.00000000E+00	 0.00000000E+00	 0.00000000E+00
					 0.00000000E+00	 0.00000000E+00	 5.00000000E-02
					 5.00000000E-02	 0.00000000E+00	 5.00000000E-02
					 5.00000000E-02	 3.00000000E-01	 0.00000000E+00
					 0.00000000E+00	 3.00000000E-01	 0.00000000E+00
					 0.00000000E+00	 3.00000000E-01	 5.00000000E-02
					 5.00000000E-02	 3.00000000E-01	 5.00000000E-02
					 0.00000000E+00	 0.00000000E+00	 1.00000000E-01
					 5.00000000E-02	 0.00000000E+00	 1.00000000E-01
					 0.00000000E+00	 3.00000000E-01	 1.00000000E-01
					 5.00000000E-02	 3.00000000E-01	 1.00000000E-01
					 0.00000000E+00	 0.00000000E+00	 1.50000000E-01
					 5.00000000E-02	 0.00000000E+00	 1.50000000E-01
					 0.00000000E+00	 3.00000000E-01	 1.50000000E-01
					 5.00000000E-02	 3.00000000E-01	 1.50000000E-01
					 0.00000000E+00	 0.00000000E+00	 2.00000000E-01
					 5.00000000E-02	 0.00000000E+00	 2.00000000E-01
					 0.00000000E+00	 3.00000000E-01	 2.00000000E-01
					 5.00000000E-02	 3.00000000E-01	 2.00000000E-01
					 0.00000000E+00	 0.00000000E+00	 2.50000000E-01
					 5.00000000E-02	 0.00000000E+00	 2.50000000E-01
					 0.00000000E+00	 3.00000000E-01	 2.50000000E-01
					 5.00000000E-02	 3.00000000E-01	 2.50000000E-01
					 0.00000000E+00	 0.00000000E+00	 3.00000000E-01
					 5.00000000E-02	 0.00000000E+00	 3.00000000E-01
					 0.00000000E+00	 3.00000000E-01	 3.00000000E-01
					 5.00000000E-02	 3.00000000E-01	 3.00000000E-01
					 0.00000000E+00	 0.00000000E+00	 3.50000000E-01
					 5.00000000E-02	 0.00000000E+00	 3.50000000E-01
					 0.00000000E+00	 3.00000000E-01	 3.50000000E-01
					 5.00000000E-02	 3.00000000E-01	 3.50000000E-01
					 0.00000000E+00	 0.00000000E+00	 4.00000000E-01
					 5.00000000E-02	 0.00000000E+00	 4.00000000E-01
					 0.00000000E+00	 3.00000000E-01	 4.00000000E-01
					 5.00000000E-02	 3.00000000E-01	 4.00000000E-01
					 0.00000000E+00	 0.00000000E+00	 4.50000000E-01
					 5.00000000E-02	 0.00000000E+00	 4.50000000E-01
					 0.00000000E+00	 3.00000000E-01	 4.50000000E-01
					 5.00000000E-02	 3.00000000E-01	 4.50000000E-01
					 0.00000000E+00	 0.00000000E+00	 5.00000000E-01
					 5.00000000E-02	 0.00000000E+00	 5.00000000E-01
					 0.00000000E+00	 3.00000000E-01	 5.00000000E-01
					 5.00000000E-02	 3.00000000E-01	 5.00000000E-01
					 0.00000000E+00	 0.00000000E+00	 5.50000000E-01
					 5.00000000E-02	 0.00000000E+00	 5.50000000E-01
					 0.00000000E+00	 3.00000000E-01	 5.50000000E-01
					 5.00000000E-02	 3.00000000E-01	 5.50000000E-01
					 0.00000000E+00	 0.00000000E+00	 6.00000000E-01
					 5.00000000E-02	 0.00000000E+00	 6.00000000E-01
					 0.00000000E+00	 3.00000000E-01	 6.00000000E-01
					 5.00000000E-02	 3.00000000E-01	 6.00000000E-01
					 0.00000000E+00	 0.00000000E+00	 6.50000000E-01
					 5.00000000E-02	 0.00000000E+00	 6.50000000E-01
					 0.00000000E+00	 3.00000000E-01	 6.50000000E-01
					 5.00000000E-02	 3.00000000E-01	 6.50000000E-01
					 0.00000000E+00	 0.00000000E+00	 7.00000000E-01
					 5.00000000E-02	 0.00000000E+00	 7.00000000E-01
					 0.00000000E+00	 3.00000000E-01	 7.00000000E-01
					 5.00000000E-02	 3.00000000E-01	 7.00000000E-01
					 0.00000000E+00	 0.00000000E+00	 7.50000000E-01
					 5.00000000E-02	 0.00000000E+00	 7.50000000E-01
					 0.00000000E+00	 3.00000000E-01	 7.50000000E-01
					 5.00000000E-02	 3.00000000E-01	 7.50000000E-01
					 0.00000000E+00	 0.00000000E+00	 8.00000000E-01
					 5.00000000E-02	 0.00000000E+00	 8.00000000E-01
					 0.00000000E+00	 3.00000000E-01	 8.00000000E-01
					 5.00000000E-02	 3.00000000E-01	 8.00000000E-01
					 0.00000000E+00	 0.00000000E+00	 8.50000000E-01
					 5.00000000E-02	 0.00000000E+00	 8.50000000E-01
					 0.00000000E+00	 3.00000000E-01	 8.50000000E-01
					 5.00000000E-02	 3.00000000E-01	 8.50000000E-01
					 0.00000000E+00	 0.00000000E+00	 9.00000000E-01
					 5.00000000E-02	 0.00000000E+00	 9.00000000E-01
					 0.00000000E+00	 3.00000000E-01	 9.00000000E-01
					 5.00000000E-02	 3.00000000E-01	 9.00000000E-01
					 0.00000000E+00	 0.00000000E+00	 9.50000000E-01
					 5.00000000E-02	 0.00000000E+00	 9.50000000E-01
					 0.00000000E+00	 3.00000000E-01	 9.50000000E-01
					 5.00000000E-02	 3.00000000E-01	 9.50000000E-01
					 0.00000000E+00	 0.00000000E+00	 1.00000000E+00
					 5.00000000E-02	 0.00000000E+00	 1.00000000E+00
					 0.00000000E+00	 3.00000000E-01	 1.00000000E+00
					 5.00000000E-02	 3.00000000E-01	 1.00000000E+00
					-5.00000000E-02	 0.00000000E+00	 0.00000000E+00
					-5.00000000E-02	 0.00000000E+00	 5.00000000E-02
					-5.00000000E-02	 3.00000000E-01	 0.00000000E+00
					-5.00000000E-02	 3.00000000E-01	 5.00000000E-02
					-5.00000000E-02	 0.00000000E+00	 1.00000000E-01
					-5.00000000E-02	 3.00000000E-01	 1.00000000E-01
					-5.00000000E-02	 0.00000000E+00	 1.50000000E-01
					-5.00000000E-02	 3.00000000E-01	 1.50000000E-01
					-5.00000000E-02	 0.00000000E+00	 2.00000000E-01
					-5.00000000E-02	 3.00000000E-01	 2.00000000E-01
					-5.00000000E-02	 0.00000000E+00	 2.50000000E-01
					-5.00000000E-02	 3.00000000E-01	 2.50000000E-01
					-5.00000000E-02	 0.00000000E+00	 3.00000000E-01
					-5.00000000E-02	 3.00000000E-01	 3.00000000E-01
					-5.00000000E-02	 0.00000000E+00	 3.50000000E-01
					-5.00000000E-02	 3.00000000E-01	 3.50000000E-01
					-5.00000000E-02	 0.00000000E+00	 4.00000000E-01
					-5.00000000E-02	 3.00000000E-01	 4.00000000E-01
					-5.00000000E-02	 0.00000000E+00	 4.50000000E-01
					-5.00000000E-02	 3.00000000E-01	 4.50000000E-01
					-5.00000000E-02	 0.00000000E+00	 5.00000000E-01
					-5.00000000E-02	 3.00000000E-01	 5.00000000E-01
					-5.00000000E-02	 0.00000000E+00	 5.50000000E-01
					-5.00000000E-02	 3.00000000E-01	 5.50000000E-01
					-5.00000000E-02	 0.00000000E+00	 6.00000000E-01
					-5.00000000E-02	 3.00000000E-01	 6.00000000E-01
					-5.00000000E-02	 0.00000000E+00	 6.50000000E-01
					-5.00000000E-02	 3.00000000E-01	 6.50000000E-01
					-5.00000000E-02	 0.00000000E+00	 7.00000000E-01
					-5.00000000E-02	 3.00000000E-01	 7.00000000E-01
					-5.00000000E-02	 0.00000000E+00	 7.50000000E-01
					-5.00000000E-02	 3.00000000E-01	 7.50000000E-01
					-5.00000000E-02	 0.00000000E+00	 8.00000000E-01
					-5.00000000E-02	 3.00000000E-01	 8.00000000E-01
					-5.00000000E-02	 0.00000000E+00	 8.50000000E-01
					-5.00000000E-02	 3.00000000E-01	 8.50000000E-01
					-5.00000000E-02	 0.00000000E+00	 9.00000000E-01
					-5.00000000E-02	 3.00000000E-01	 9.00000000E-01
					-5.00000000E-02	 0.00000000E+00	 9.50000000E-01
					-5.00000000E-02	 3.00000000E-01	 9.50000000E-01
					-5.00000000E-02	 0.00000000E+00	 1.00000000E+00
					-5.00000000E-02	 3.00000000E-01	 1.00000000E+00

				</DataArray>
			</Points>
			<Cells>
				<DataArray type="Int32" Name="connectivity" format="ascii">
					0 1 2 3 4 5 6 7 3 2 8 9 7 6 10 11 9 8 12 13 11 10 14 15 13 12 16 17 15 14 18 19 17 16 20 21 19 18 22 23 21 20 24 25 23 22 26 27 25 24 28 29 27 26 30 31 29 28 32 33 31 30 34 35 33 32 36 37 35 34 38 39 37 36 40 41 39 38 42 43 41 40 44 45 43 42 46 47 45 44 48 49 47 46 50 51 49 48 52 53 51 50 54 55 53 52 56 57 55 54 58 59 57 56 60 61 59 58 62 63 61 60 64 65 63 62 66 67 65 64 68 69 67 66 70 71 69 68 72 73 71 70 74 75 73 72 76 77 75 74 78 79 77 76 80 81 79 78 82 83 1 84 85 2 5 86 87 6 2 85 88 8 6 87 89 10 8 88 90 12 10 89 91 14 12 90 92 16 14 91 93 18 16 92 94 20 18 93 95 22 20 94 96 24 22 95 97 26 24 96 98 28 26 97 99 30 28 98 100 32 30 99 101 34 32 100 102 36 34 101 103 38 36 102 104 40 38 103 105 42 40 104 106 44 42 105 107 46 44 106 108 48 46 107 109 50 48 108 110 52 50 109 111 54 52 110 112 56 54 111 113 58 56 112 114 60 58 113 115 62 60 114 116 64 62 115 117 66 64 116 118 68 66 117 119 70 68 118 120 72 70 119 121 74 72 120 122 76 74 121 123 78 76 122 124 80 78 123 125 82 
				</DataArray>
				<DataArray type="Int32" Name="offsets" format="ascii">
					8 16 24 32 40 48 56 64 72 80 88 96 104 112 120 128 136 144 152 160 168 176 184 192 200 208 216 224 232 240 248 256 264 272 280 288 296 304 312 320 
				</DataArray>
				<DataArray type="UInt8" Name="types" format="ascii">
					12 12 12 12 12 12 12 12 12 12 12 12 12 12 12 12 12 12 12 12 12 12 12 12 12 12 12 12 12 12 12 12 12 12 12 12 12 12 12 12 
				</DataArray>
			</Cells>
			<PointData>
				<DataArray type="Float32" Name="U" NumberOfComponents="3" ComponentName0="D1" ComponentName1="D2" ComponentName2="D3" format="ascii">
					 0.00000000E+00	 0.00000000E+00	 0.00000000E+00
					 0.00000000E+00	 0.00000000E+00	 0.00000000E+00
					 3.37102000E-03	 0.00000000E+00	-5.02543000E-04
					 3.75828000E-03	 0.00000000E+00	-6.65139000E-03
					 0.00000000E+00	 0.00000000E+00	 0.00000000E+00
					 0.00000000E+00	 0.00000000E+00	 0.00000000E+00
					 3.37102000E-03	 0.00000000E+00	-5.02543000E-04
					 3.75828000E-03	 0.00000000E+00	-6.65139000E-03
					 1.29126000E-02	 0.00000000E+00	-1.62443000E-03
					 1.20580000E-02	 0.00000000E+00	-1.31497000E-02
					 1.29126000E-02	 0.00000000E+00	-1.62443000E-03
					 1.20580000E-02	 0.00000000E+00	-1.31497000E-02
					 2.70802000E-02	 0.00000000E+00	-3.83868000E-03
					 2.49330000E-02	 0.00000000E+00	-1.98559000E-02
					 2.70802000E-02	 0.00000000E+00	-3.83868000E-03
					 2.49330000E-02	 0.00000000E+00	-1.98559000E-02
					 4.52794000E-02	 0.00000000E+00	-7.38510000E-03
					 4.16214000E-02	 0.00000000E+00	-2.72020000E-02
					 4.52794000E-02	 0.00000000E+00	-7.38510000E-03
					 4.16214000E-02	 0.00000000E+00	-2.72020000E-02
					 6.69231000E-02	 0.00000000E+00	-1.23854000E-02
					 6.16885000E-02	 0.00000000E+00	-3.54416000E-02
					 6.69231000E-02	 0.00000000E+00	-1.23854000E-02
					 6.16885000E-02	 0.00000000E+00	-3.54416000E-02
					 9.15094000E-02	 0.00000000E+00	-1.88854000E-02
					 8.46918000E-02	 0.00000000E+00	-4.47039000E-02
					 9.15094000E-02	 0.00000000E+00	-1.88854000E-02
					 8.46918000E-02	 0.00000000E+00	-4.47039000E-02
					 1.18593000E-01	 0.00000000E+00	-2.68683000E-02
					 1.10224000E-01	 0.00000000E+00	-5.50704000E-02
					 1.18593000E-01	 0.00000000E+00	-2.68683000E-02
					 1.10224000E-01	 0.00000000E+00	-5.50704000E-02
					 1.47846000E-01	 0.00000000E+00	-3.63156000E-02
					 1.37944000E-01	 0.00000000E+00	-6.66263000E-02
					 1.47846000E-01	 0.00000000E+00	-3.63156000E-02
					 1.37944000E-01	 0.00000000E+00	-6.66263000E-02
					 1.79083000E-01	 0.00000000E+00	-4.72507000E-02
					 1.67638000E-01	 0.00000000E+00	-7.94700000E-02
					 1.79083000E-01	 0.00000000E+00	-4.72507000E-02
					 1.67638000E-01	 0.00000000E+00	-7.94700000E-02
					 2.12171000E-01	 0.00000000E+00	-5.97100000E-02
					 1.99191000E-01	 0.00000000E+00	-9.36447000E-02
					 2.12171000E-01	 0.00000000E+00	-5.97100000E-02
					 1.99191000E-01	 0.00000000E+00	-9.36447000E-02
					 2.46927000E-01	 0.00000000E+00	-7.36617000E-02
					 2.32478000E-01	 0.00000000E+00	-1.09092000E-01
					 2.46927000E-01	 0.00000000E+00	-7.36617000E-02
					 2.32478000E-01	 0.00000000E+00	-1.09092000E-01
					 2.83107000E-01	 0.00000000E+00	-8.89913000E-02
					 2.67302000E-01	 0.00000000E+00	-1.25688000E-01
					 2.83107000E-01	 0.00000000E+00	-8.89913000E-02
					 2.67302000E-01	 0.00000000E+00	-1.25688000E-01
					 3.20472000E-01	 0.00000000E+00	-1.05560000E-01
					 3.03438000E-01	 0.00000000E+00	-1.43330000E-01
					 3.20472000E-01	 0.00000000E+00	-1.05560000E-01
					 3.03438000E-01	 0.00000000E+00	-1.43330000E-01
					 3.58841000E-01	 0.00000000E+00	-1.23265000E-01
					 3.40691000E-01	 0.00000000E+00	-1.61953000E-01
					 3.58841000E-01	 0.00000000E+00	-1.23265000E-01
					 3.40691000E-01	 0.00000000E+00	-1.61953000E-01
					 3.98076000E-01	 0.00000000E+00	-1.42033000E-01
					 3.78932000E-01	 0.00000000E+00	-1.81496000E-01
					 3.98076000E-01	 0.00000000E+00	-1.42033000E-01
					 3.78932000E-01	 0.00000000E+00	-1.81496000E-01
					 4.38033000E-01	 0.00000000E+00	-1.61756000E-01
					 4.18055000E-01	 0.00000000E+00	-2.01829000E-01
					 4.38033000E-01	 0.00000000E+00	-1.61756000E-01
					 4.18055000E-01	 0.00000000E+00	-2.01829000E-01
					 4.78524000E-01	 0.00000000E+00	-1.82234000E-01
					 4.57924000E-01	 0.00000000E+00	-2.22733000E-01
					 4.78524000E-01	 0.00000000E+00	-1.82234000E-01
					 4.57924000E-01	 0.00000000E+00	-2.22733000E-01
					 5.19342000E-01	 0.00000000E+00	-2.03207000E-01
					 4.98347000E-01	 0.00000000E+00	-2.43957000E-01
					 5.19342000E-01	 0.00000000E+00	-2.03207000E-01
					 4.98347000E-01	 0.00000000E+00	-2.43957000E-01
					 5.60300000E-01	 0.00000000E+00	-2.24421000E-01
					 5.39111000E-01	 0.00000000E+00	-2.65285000E-01
					 5.60300000E-01	 0.00000000E+00	-2.24421000E-01
					 5.39111000E-01	 0.00000000E+00	-2.65285000E-01
					 6.01255000E-01	 0.00000000E+00	-2.45675000E-01
					 5.80006000E-01	 0.00000000E+00	-2.86580000E-01
					 6.01255000E-01	 0.00000000E+00	-2.45675000E-01
					 5.80006000E-01	 0.00000000E+00	-2.86580000E-01
					 0.00000000E+00	 0.00000000E+00	 0.00000000E+00
					 4.77104000E-03	 0.00000000E+00	 5.45628000E-03
					 0.00000000E+00	 0.00000000E+00	 0.00000000E+00
					 4.77104000E-03	 0.00000000E+00	 5.45628000E-03
					 1.49472000E-02	 0.00000000E+00	 9.53970000E-03
					 1.49472000E-02	 0.00000000E+00	 9.53970000E-03
					 3.02741000E-02	 0.00000000E+00	 1.17592000E-02
					 3.02741000E-02	 0.00000000E+00	 1.17592000E-02
					 4.98216000E-02	 0.00000000E+00	 1.20077000E-02
					 4.98216000E-02	 0.00000000E+00	 1.20077000E-02
					 7.29136000E-02	 0.00000000E+00	 1.02470000E-02
					 7.29136000E-02	 0.00000000E+00	 1.02470000E-02
					 9.89767000E-02	 0.00000000E+00	 6.51502000E-03
					 9.89767000E-02	 0.00000000E+00	 6.51502000E-03
					 1.27525000E-01	 0.00000000E+00	 9.29485000E-04
					 1.27525000E-01	 0.00000000E+00	 9.29485000E-04
					 1.58261000E-01	 0.00000000E+00	-6.40161000E-03
					 1.58261000E-01	 0.00000000E+00	-6.40161000E-03
					 1.90993000E-01	 0.00000000E+00	-1.54250000E-02
					 1.90993000E-01	 0.00000000E+00	-1.54250000E-02
					 2.25566000E-01	 0.00000000E+00	-2.61630000E-02
					 2.25566000E-01	 0.00000000E+00	-2.61630000E-02
					 2.61729000E-01	 0.00000000E+00	-3.85941000E-02
					 2.61729000E-01	 0.00000000E+00	-3.85941000E-02
					 2.99211000E-01	 0.00000000E+00	-5.26245000E-02
					 2.99211000E-01	 0.00000000E+00	-5.26245000E-02
					 3.37762000E-01	 0.00000000E+00	-6.80902000E-02
					 3.37762000E-01	 0.00000000E+00	-6.80902000E-02
					 3.77206000E-01	 0.00000000E+00	-8.48523000E-02
					 3.77206000E-01	 0.00000000E+00	-8.48523000E-02
					 4.17392000E-01	 0.00000000E+00	-1.02811000E-01
					 4.17392000E-01	 0.00000000E+00	-1.02811000E-01
					 4.58138000E-01	 0.00000000E+00	-1.21877000E-01
					 4.58138000E-01	 0.00000000E+00	-1.21877000E-01
					 4.99208000E-01	 0.00000000E+00	-1.41870000E-01
					 4.99208000E-01	 0.00000000E+00	-1.41870000E-01
					 5.40381000E-01	 0.00000000E+00	-1.62535000E-01
					 5.40381000E-01	 0.00000000E+00	-1.62535000E-01
					 5.81501000E-01	 0.00000000E+00	-1.83592000E-01
					 5.81501000E-01	 0.00000000E+00	-1.83592000E-01
					 6.22493000E-01	 0.00000000E+00	-2.04794000E-01
					 6.22493000E-01	 0.00000000E+00	-2.04794000E-01
				</DataArray>
				<DataArray type="Float32" Name="S" NumberOfComponents="10" ComponentName0="xx" ComponentName1="yy" ComponentName2="zz" ComponentName3="xy" ComponentName4="yz" ComponentName5="zx" ComponentName6="Mises" ComponentName7="Min Principal" ComponentName8="Mid Principal" ComponentName9="Max Principal" format="ascii">
					-4.25995000E+03	-4.65689000E+03	-1.47291000E+04	 0.00000000E+00	 0.00000000E+00	 2.57587000E+03	 1.12031405E+04	-1.53285529E+04	-4.65689000E+03	-3.66049709E+03
					 4.88378000E+01	-2.58716000E+02	-1.79115000E+03	 0.00000000E+00	 0.00000000E+00	 3.23494000E+03	 5.85736798E+03	-4.23437265E+03	-2.58716000E+02	 2.49206045E+03
					-1.42713000E+02	-2.94186000E+02	-1.64964000E+03	-4.54176000E-09	 2.47092000E-08	 2.63770000E+02	 1.50805774E+03	-1.69447585E+03	-2.94186000E+02	-9.78771459E+01
					-2.00597000E+03	-3.71338000E+03	-1.33410000E+04	-1.74200000E-08	 1.69416000E-08	-7.94789000E+02	 1.06742531E+04	-1.33964576E+04	-3.71338000E+03	-1.95051236E+03
					-4.25995000E+03	-4.65689000E+03	-1.47291000E+04	 0.00000000E+00	 0.00000000E+00	 2.57587000E+03	 1.12031405E+04	-1.53285529E+04	-4.65689000E+03	-3.66049709E+03
					 4.88378000E+01	-2.58716000E+02	-1.79115000E+03	 0.00000000E+00	 0.00000000E+00	 3.23494000E+03	 5.85736798E+03	-4.23437265E+03	-2.58716000E+02	 2.49206045E+03
					-1.42713000E+02	-2.94186000E+02	-1.64964000E+03	-4.54181000E-09	 2.47092000E-08	 2.63770000E+02	 1.50805774E+03	-1.69447585E+03	-2.94186000E+02	-9.78771459E+01
					-2.00597000E+03	-3.71338000E+03	-1.33410000E+04	-1.74201000E-08	 1.69417000E-08	-7.94789000E+02	 1.06742531E+04	-1.33964576E+04	-3.71338000E+03	-1.95051236E+03
					-1.02203000E+02	-2.13527000E+02	-1.29676000E+03	-5.87377000E-08	 5.52702000E-08	 3.11207000E+02	 1.26369537E+03	-1.37297345E+03	-2.13527000E+02	-2.59895525E+01
					-2.56757000E+03	-3.33463000E+03	-1.16243000E+04	-4.80875000E-08	 5.06926000E-08	-1.87408000E+03	 9.28451461E+03	-1.19967783E+04	-3.33463000E+03	-2.19509166E+03
					-1.02203000E+02	-2.13527000E+02	-1.29676000E+03	-5.87366000E-08	 5.52704000E-08	 3.11207000E+02	 1.26369537E+03	-1.37297345E+03	-2.13527000E+02	-2.59895525E+01
					-2.56757000E+03	-3.33463000E+03	-1.16243000E+04	-4.80874000E-08	 5.06926000E-08	-1.87408000E+03	 9.28451461E+03	-1.19967783E+04	-3.33463000E+03	-2.19509166E+03
					-1.58608000E+01	-1.58473000E+02	-1.01490000E+03	-6.19363000E-08	 7.26809000E-08	 1.53684000E+02	 9.73035816E+02	-1.03800704E+03	-1.58473000E+02	 7.24623790E+00
					-2.42015000E+03	-2.79452000E+03	-9.75659000E+03	-6.92139000E-08	 6.05219000E-08	-2.35986000E+03	 8.24158840E+03	-1.04501102E+04	-2.79452000E+03	-1.72662984E+03
					-1.58608000E+01	-1.58473000E+02	-1.01490000E+03	-6.19383000E-08	 7.26806000E-08	 1.53684000E+02	 9.73035816E+02	-1.03800704E+03	-1.58473000E+02	 7.24623790E+00
					-2.42015000E+03	-2.79452000E+03	-9.75659000E+03	-6.92114000E-08	 6.05226000E-08	-2.35986000E+03	 8.24158840E+03	-1.04501102E+04	-2.79452000E+03	-1.72662984E+03
					 1.51683000E+01	-1.18995000E+02	-7.95393000E+02	-2.14442000E-08	 6.86693000E-08	 9.61882000E+01	 7.70725854E+02	-8.06651154E+02	-1.18995000E+02	 2.64264538E+01
					-2.51715000E+03	-2.42393000E+03	-8.23865000E+03	-3.12629000E-08	 3.82776000E-08	-2.61034000E+03	 7.32934071E+03	-9.25059486E+03	-2.42393000E+03	-1.50520514E+03
					 1.51683000E+01	-1.18995000E+02	-7.95393000E+02	-2.14456000E-08	 6.86694000E-08	 9.61882000E+01	 7.70725854E+02	-8.06651154E+02	-1.18995000E+02	 2.64264538E+01
					-2.51715000E+03	-2.42393000E+03	-8.23865000E+03	-3.12619000E-08	 3.82772000E-08	-2.61034000E+03	 7.32934071E+03	-9.25059486E+03	-2.42393000E+03	-1.50520514E+03
					 3.67339000E+01	-8.68344000E+01	-6.15691000E+02	-2.35907000E-09	 5.16583000E-08	 6.62343000E+01	 6.11121335E+02	-6.22347210E+02	-8.68344000E+01	 4.33901103E+01
					-2.57271000E+03	-2.11113000E+03	-6.94134000E+03	-1.81296000E-08	 3.68924000E-09	-2.66587000E+03	 6.52955167E+03	-8.20348621E+03	-2.11113000E+03	-1.31056379E+03
					 3.67339000E+01	-8.68344000E+01	-6.15691000E+02	-2.36011000E-09	 5.16585000E-08	 6.62343000E+01	 6.11121335E+02	-6.22347210E+02	-8.68344000E+01	 4.33901103E+01
					-2.57271000E+03	-2.11113000E+03	-6.94134000E+03	-1.81305000E-08	 3.68865000E-09	-2.66587000E+03	 6.52955167E+03	-8.20348621E+03	-2.11113000E+03	-1.31056379E+03
					 3.17752000E+01	-6.47554000E+01	-4.72289000E+02	 3.80017000E-08	 1.33436000E-08	 4.76576000E+01	 4.70696288E+02	-4.76755294E+02	-6.47554000E+01	 3.62414943E+01
					-2.61687000E+03	-1.85549000E+03	-5.85451000E+03	 2.59743000E-08	-2.06800000E-08	-2.61641000E+03	 5.83642789E+03	-7.31240570E+03	-1.85549000E+03	-1.15897430E+03
					 3.17752000E+01	-6.47554000E+01	-4.72289000E+02	 3.80055000E-08	 1.33439000E-08	 4.76576000E+01	 4.70696288E+02	-4.76755294E+02	-6.47554000E+01	 3.62414943E+01
					-2.61687000E+03	-1.85549000E+03	-5.85451000E+03	 2.59711000E-08	-2.06800000E-08	-2.61641000E+03	 5.83642789E+03	-7.31240570E+03	-1.85549000E+03	-1.15897430E+03
					 2.02890000E+01	-4.48634000E+01	-3.41815000E+02	 5.04976000E-08	 1.09820000E-08	 2.15606000E+01	 3.36402699E+02	-3.43094254E+02	-4.48634000E+01	 2.15682540E+01
					-2.66738000E+03	-1.66151000E+03	-4.99197000E+03	 4.39411000E-08	-2.03463000E-09	-2.54237000E+03	 5.30515449E+03	-6.62513111E+03	-1.66151000E+03	-1.03421889E+03
					 2.02890000E+01	-4.48634000E+01	-3.41815000E+02	 5.04951000E-08	 1.09809000E-08	 2.15606000E+01	 3.36402699E+02	-3.43094254E+02	-4.48634000E+01	 2.15682540E+01
					-2.66738000E+03	-1.66151000E+03	-4.99197000E+03	 4.39452000E-08	-2.03375000E-09	-2.54237000E+03	 5.30515449E+03	-6.62513111E+03	-1.66151000E+03	-1.03421889E+03
					 3.44284000E+00	-3.31852000E+01	-2.51172000E+02	 9.03395000E-08	 8.94644000E-09	 1.26380000E+01	 2.39423150E+02	-2.51797759E+02	-3.31852000E+01	 4.06859877E+00
					-2.74842000E+03	-1.53067000E+03	-4.35200000E+03	 6.99631000E-08	-9.37283000E-09	-2.47281000E+03	 4.93472505E+03	-6.14975929E+03	-1.53067000E+03	-9.50660712E+02
					 3.44284000E+00	-3.31852000E+01	-2.51172000E+02	 9.03332000E-08	 8.94953000E-09	 1.26380000E+01	 2.39423150E+02	-2.51797759E+02	-3.31852000E+01	 4.06859877E+00
					-2.74842000E+03	-1.53067000E+03	-4.35200000E+03	 6.99649000E-08	-9.37535000E-09	-2.47281000E+03	 4.93472505E+03	-6.14975929E+03	-1.53067000E+03	-9.50660712E+02
					 3.14944000E+01	-2.06433000E+01	-2.03345000E+02	 9.90359000E-08	 1.10243000E-08	 2.78558000E+01	 2.18978844E+02	-2.06603929E+02	-2.06433000E+01	 3.47533292E+01
					-2.80002000E+03	-1.42550000E+03	-3.84554000E+03	 8.05099000E-08	-5.94444000E-09	-2.37828000E+03	 4.62473272E+03	-5.75783519E+03	-1.42550000E+03	-8.87724810E+02
					 3.14944000E+01	-2.06433000E+01	-2.03345000E+02	 9.90384000E-08	 1.10249000E-08	 2.78558000E+01	 2.18978844E+02	-2.06603929E+02	-2.06433000E+01	 3.47533292E+01
					-2.80002000E+03	-1.42550000E+03	-3.84554000E+03	 8.05194000E-08	-5.94143000E-09	-2.37828000E+03	 4.62473272E+03	-5.75783519E+03	-1.42550000E+03	-8.87724810E+02
					 1.02390000E+02	-4.44486000E+00	-1.81843000E+02	 8.54836000E-08	 1.74461000E-09	 6.30419000E+01	 2.71585965E+02	-1.95197979E+02	-4.44486000E+00	 1.15744979E+02
					-2.74438000E+03	-1.30048000E+03	-3.35711000E+03	 8.45221000E-08	 1.26097000E-08	-2.21111000E+03	 4.24405801E+03	-5.28297862E+03	-1.30048000E+03	-8.18511378E+02
					 1.02390000E+02	-4.44486000E+00	-1.81843000E+02	 8.54871000E-08	 1.74462000E-09	 6.30419000E+01	 2.71585965E+02	-1.95197979E+02	-4.44486000E+00	 1.15744979E+02
					-2.74438000E+03	-1.30048000E+03	-3.35711000E+03	 8.45201000E-08	 1.26101000E-08	-2.21111000E+03	 4.24405801E+03	-5.28297862E+03	-1.30048000E+03	-8.18511378E+02
					 1.93131000E+02	 1.98960000E+01	-1.40562000E+02	 5.46461000E-08	 2.02371000E-08	 9.71642000E+01	 3.34479778E+02	-1.66792263E+02	 1.98960000E+01	 2.19361263E+02
					-2.56771000E+03	-1.14333000E+03	-2.84093000E+03	 7.67824000E-08	 4.37214000E-08	-1.97376000E+03	 3.76561579E+03	-4.68280195E+03	-1.14333000E+03	-7.25838049E+02
					 1.93131000E+02	 1.98960000E+01	-1.40562000E+02	 5.46529000E-08	 2.02355000E-08	 9.71642000E+01	 3.34479778E+02	-1.66792263E+02	 1.98960000E+01	 2.19361263E+02
					-2.56771000E+03	-1.14333000E+03	-2.84093000E+03	 7.67868000E-08	 4.37159000E-08	-1.97376000E+03	 3.76561579E+03	-4.68280195E+03	-1.14333000E+03	-7.25838049E+02
					 2.53186000E+02	 4.00752000E+01	-8.96603000E+01	 2.89555000E-08	 4.11826000E-08	 1.31719000E+02	 3.76756200E+02	-1.34421773E+02	 4.00752000E+01	 2.97947473E+02
					-2.34289000E+03	-9.84611000E+02	-2.35490000E+03	 5.73487000E-08	 5.57396000E-08	-1.71158000E+03	 3.26341804E+03	-4.06048553E+03	-9.84611000E+02	-6.37304466E+02
					 2.53186000E+02	 4.00752000E+01	-8.96603000E+01	 2.89493000E-08	 4.11825000E-08	 1.31719000E+02	 3.76756200E+02	-1.34421773E+02	 4.00752000E+01	 2.97947473E+02
					-2.34289000E+03	-9.84611000E+02	-2.35490000E+03	 5.73537000E-08	 5.57397000E-08	-1.71158000E+03	 3.26341804E+03	-4.06048553E+03	-9.84611000E+02	-6.37304466E+02
					 2.87761000E+02	 5.37441000E+01	-4.67407000E+01	 1.08089000E-08	 5.41639000E-08	 1.53648000E+02	 3.98997957E+02	-1.06603378E+02	 5.37441000E+01	 3.47623678E+02
					-2.12556000E+03	-8.49206000E+02	-1.95507000E+03	 4.73618000E-09	 4.95671000E-08	-1.47675000E+03	 2.82540483E+03	-3.51952333E+03	-8.49206000E+02	-5.61106674E+02
					 2.87761000E+02	 5.37441000E+01	-4.67407000E+01	 1.08246000E-08	 5.41799000E-08	 1.53648000E+02	 3.98997957E+02	-1.06603378E+02	 5.37441000E+01	 3.47623678E+02
					-2.12556000E+03	-8.49206000E+02	-1.95507000E+03	 4.72503000E-09	 4.95580000E-08	-1.47675000E+03	 2.82540483E+03	-3.51952333E+03	-8.49206000E+02	-5.61106674E+02
					 3.11832000E+02	 5.76766000E+01	-4.29461000E+01	 7.35471000E-09	 2.66222000E-08	 1.55020000E+02	 4.15195495E+02	-1.01137345E+02	 5.76766000E+01	 3.70023245E+02
					-1.90395000E+03	-7.34298000E+02	-1.64384000E+03	-1.14138000E-08	-8.83820000E-09	-1.27652000E+03	 2.45357184E+03	-3.05702306E+03	-7.34298000E+02	-4.90766942E+02
					 3.11832000E+02	 5.76766000E+01	-4.29461000E+01	 7.35583000E-09	 2.66230000E-08	 1.55020000E+02	 4.15195495E+02	-1.01137345E+02	 5.76766000E+01	 3.70023245E+02
					-1.90395000E+03	-7.34298000E+02	-1.64384000E+03	-1.14293000E-08	-8.84585000E-09	-1.27652000E+03	 2.45357184E+03	-3.05702306E+03	-7.34298000E+02	-4.90766942E+02
					 3.43812000E+02	 5.76371000E+01	-6.81567000E+01	 2.14849000E-08	-1.93933000E-08	 1.28013000E+02	 4.27646076E+02	-1.04694268E+02	 5.76371000E+01	 3.80349568E+02
					-1.61189000E+03	-6.12672000E+02	-1.36393000E+03	-2.82124000E-08	-5.55541000E-08	-1.07781000E+03	 2.07296355E+03	-2.57282725E+03	-6.12672000E+02	-4.02992751E+02
					 3.43812000E+02	 5.76371000E+01	-6.81567000E+01	 2.14934000E-08	-1.93846000E-08	 1.28013000E+02	 4.27646076E+02	-1.04694268E+02	 5.76371000E+01	 3.80349568E+02
					-1.61189000E+03	-6.12672000E+02	-1.36393000E+03	-2.82415000E-08	-5.55628000E-08	-1.07781000E+03	 2.07296355E+03	-2.57282725E+03	-6.12672000E+02	-4.02992751E+02
					 3.57524000E+02	 5.16311000E+01	-1.06330000E+02	 4.37790000E-08	-7.05095000E-08	 9.14163000E+01	 4.38077817E+02	-1.23696147E+02	 5.16311000E+01	 3.74890147E+02
					-1.22350000E+03	-4.69205000E+02	-1.07015000E+03	 1.94248000E-08	-8.99134000E-08	-8.41742000E+02	 1.61319398E+03	-1.99205198E+03	-4.69205000E+02	-3.01598019E+02
					 3.57524000E+02	 5.16311000E+01	-1.06330000E+02	 4.37872000E-08	-7.05078000E-08	 9.14163000E+01	 4.38077817E+02	-1.23696147E+02	 5.16311000E+01	 3.74890147E+02
					-1.22350000E+03	-4.69205000E+02	-1.07015000E+03	 1.94048000E-08	-8.99306000E-08	-8.41742000E+02	 1.61319398E+03	-1.99205198E+03	-4.69205000E+02	-3.01598019E+02
					 3.34756000E+02	 4.31001000E+01	-1.22188000E+02	 3.87508000E-08	-6.63449000E-08	 5.86625000E+01	 4.13417992E+02	-1.29598902E+02	 4.31001000E+01	 3.42166902E+02
					-7.82792000E+02	-3.12340000E+02	-7.55168000E+02	 4.26247000E-08	-5.19617000E-08	-5.74598000E+02	 1.09525385E+03	-1.34374398E+03	-3.12340000E+02	-1.94216020E+02
					 3.34756000E+02	 4.31001000E+01	-1.22188000E+02	 3.87333000E-08	-6.63498000E-08	 5.86625000E+01	 4.13417992E+02	-1.29598902E+02	 4.31001000E+01	 3.42166902E+02
					-7.82792000E+02	-3.12340000E+02	-7.55168000E+02	 4.26619000E-08	-5.19660000E-08	-5.74598000E+02	 1.09525385E+03	-1.34374398E+03	-3.12340000E+02	-1.94216020E+02
					 2.67843000E+02	 3.18644000E+01	-1.09177000E+02	 2.88999000E-08	-2.18862000E-08	 3.88780000E+01	 3.36742966E+02	-1.13144321E+02	 3.18644000E+01	 2.71810321E+02
					-3.82919000E+02	-1.68656000E+02	-4.53193000E+02	 3.87895000E-08	-1.29785000E-08	-3.17161000E+02	 6.06364153E+02	-7.37157408E+02	-1.68656000E+02	-9.89545918E+01
					 2.67843000E+02	 3.18644000E+01	-1.09177000E+02	 2.89051000E-08	-2.18903000E-08	 3.88780000E+01	 3.36742966E+02	-1.13144321E+02	 3.18644000E+01	 2.71810321E+02
					-3.82919000E+02	-1.68656000E+02	-4.53193000E+02	 3.87753000E-08	-1.29670000E-08	-3.17161000E+02	 6.06364153E+02	-7.37157408E+02	-1.68656000E+02	-9.89545918E+01
					 1.64974000E+02	 2.07954000E+01	-6.10007000E+01	 3.82867000E-08	-3.05765000E-08	 3.10494000E+01	 2.05337560E+02	-6.51893138E+01	 2.07954000E+01	 1.69162614E+02
					-1.23014000E+02	-6.65753000E+01	-2.08783000E+02	 4.15590000E-08	-4.42814000E-08	-1.20101000E+02	 2.42188129E+02	-2.93426264E+02	-6.65753000E+01	-3.83707362E+01
					 1.64974000E+02	 2.07954000E+01	-6.10007000E+01	 3.82905000E-08	-3.05704000E-08	 3.10494000E+01	 2.05337560E+02	-6.51893138E+01	 2.07954000E+01	 1.69162614E+02
					-1.23014000E+02	-6.65753000E+01	-2.08783000E+02	 4.15486000E-08	-4.42933000E-08	-1.20101000E+02	 2.42188129E+02	-2.93426264E+02	-6.65753000E+01	-3.83707362E+01
					 1.05063000E+02	 1.91030000E+01	-9.43589000E+00	 7.21173000E-08	-7.62049000E-08	 2.76707000E+01	 1.13814743E+02	-1.57723443E+01	 1.91030000E+01	 1.11399454E+02
					-4.54301000E+01	-2.53045000E+01	-8.10391000E+01	 6.16829000E-08	-7.93784000E-08	-4.38634000E+01	 9.03420540E+01	-1.10573781E+02	-2.53045000E+01	-1.58954188E+01
					 1.05063000E+02	 1.91030000E+01	-9.43589000E+00	 7.21063000E-08	-7.62041000E-08	 2.76707000E+01	 1.13814743E+02	-1.57723443E+01	 1.91030000E+01	 1.11399454E+02
					-4.54301000E+01	-2.53045000E+01	-8.10391000E+01	 6.16528000E-08	-7.93772000E-08	-4.38634000E+01	 9.03420540E+01	-1.10573781E+02	-2.53045000E+01	-1.58954188E+01
					 4.39307000E+03	 3.59096000E+03	 1.68527000E+04	 0.00000000E+00	 0.00000000E+00	 6.12181000E+03	 1.66826085E+04	 1.88863331E+03	 3.59096000E+03	 1.93571367E+04
					 1.56082000E+03	 2.83514000E+03	 1.50173000E+04	-4.60958000E-09	 1.56356000E-08	 2.56566000E+03	 1.36125206E+04	 1.08823888E+03	 2.83514000E+03	 1.54898811E+04
					 4.39307000E+03	 3.59096000E+03	 1.68527000E+04	 0.00000000E+00	 0.00000000E+00	 6.12181000E+03	 1.66826085E+04	 1.88863331E+03	 3.59096000E+03	 1.93571367E+04