<?xml version="1.0"?>
<VTKFile type="UnstructuredGrid" version="0.1" byte_order="LittleEndian">
	<UnstructuredGrid>
		<Piece NumberOfPoints="126" NumberOfCells="40">
			<Points>
				<DataArray type="Float64" NumberOfComponents="3" format="ascii">
					 5.00000000E-02	 0.00000000E+00	 0.00000000E+00
					 0.00000000E+00	 0.00000000E+00	 0.00000000E+00
					 0.00000000E+00	 0.00000000E+00	 5.00000000E-02
					 5.00000000E-02	 0.00000000E+00	 5.00000000E-02
					 5.00000000E-02	 3.00000000E-01	 0.00000000E+00
					 0.00000000E+00	 3.00000000E-01	 0.00000000E+00
					 0.00000000E+00	 3.00000000E-01	 5.00000000E-02
					 5.00000000E-02	 3.00000000E-01	 5.00000000E-02
					 0.00000000E+00	 0.00000000E+00	 1.00000000E-01
					 5.00000000E-02	 0.00000000E+00	 1.00000000E-01
					 0.00000000E+00	 3.00000000E-01	 1.00000000E-01
					 5.00000000E-02	 3.00000000E-01	 1.00000000E-01
					 0.00000000E+00	 0.00000000E+00	 1.50000000E-01
					 5.00000000E-02	 0.00000000E+00	 1.50000000E-01
					 0.00000000E+00	 3.00000000E-01	 1.50000000E-01
					 5.00000000E-02	 3.00000000E-01	 1.50000000E-01
					 0.00000000E+00	 0.00000000E+00	 2.00000000E-01
					 5.00000000E-02	 0.00000000E+00	 2.00000000E-01
					 0.00000000E+00	 3.00000000E-01	 2.00000000E-01
					 5.00000000E-02	 3.00000000E-01	 2.00000000E-01
					 0.00000000E+00	 0.00000000E+00	 2.50000000E-01
					 5.00000000E-02	 0.00000000E+00	 2.50000000E-01
					 0.00000000E+00	 3.00000000E-01	 2.50000000E-01
					 5.00000000E-02	 3.00000000E-01	 2.50000000E-01
					 0.00000000E+00	 0.00000000E+00	 3.00000000E-01
					 5.00000000E-02	 0.00000000E+00	 3.00000000E-01
					 0.00000000E+00	 3.00000000E-01	 3.00000000E-01
					 5.00000000E-02	 3.00000000E-01	 3.00000000E-01
					 0.00000000E+00	 0.00000000E+00	 3.50000000E-01
					 5.00000000E-02	 0.00000000E+00	 3.50000000E-01
					 0.00000000E+00	 3.00000000E-01	 3.50000000E-01
					 5.00000000E-02	 3.00000000E-01	 3.50000000E-01
					 0.00000000E+00	 0.00000000E+00	 4.00000000E-01
					 5.00000000E-02	 0.00000000E+00	 4.00000000E-01
					 0.00000000E+00	 3.00000000E-01	 4.00000000E-01
					 5.00000000E-02	 3.00000000E-01	 4.00000000E-01
					 0.00000000E+00	 0.00000000E+00	 4.50000000E-01
					 5.00000000E-02	 0.00000000E+00	 4.50000000E-01
					 0.00000000E+00	 3.00000000E-01	 4.50000000E-01
					 5.00000000E-02	 3.00000000E-01	 4.50000000E-01
					 0.00000000E+00	 0.00000000E+00	 5.00000000E-01
					 5.00000000E-02	 0.00000000E+00	 5.00000000E-01
					 0.00000000E+00	 3.00000000E-01	 5.00000000E-01
					 5.00000000E-02	 3.00000000E-01	 5.00000000E-01
					 0.00000000E+00	 0.00000000E+00	 5.50000000E-01
					 5.00000000E-02	 0.00000000E+00	 5.50000000E-01
					 0.00000000E+00	 3.00000000E-01	 5.50000000E-01
					 5.00000000E-02	 3.00000000E-01	 5.50000000E-01
					 0.00000000E+00	 0.00000000E+00	 6.00000000E-01
					 5.00000000E-02	 0.00000000E+00	 6.00000000E-01
					 0.00000000E+00	 3.00000000E-01	 6.00000000E-01
					 5.00000000E-02	 3.00000000E-01	 6.00000000E-01
					 0.00000000E+00	 0.00000000E+00	 6.50000000E-01
					 5.00000000E-02	 0.00000000E+00	 6.50000000E-01
					 0.00000000E+00	 3.00000000E-01	 6.50000000E-01
					 5.00000000E-02	 3.00000000E-01	 6.50000000E-01
					 0.00000000E+00	 0.00000000E+00	 7.00000000E-01
					 5.00000000E-02	 0.00000000E+00	 7.00000000E-01
					 0.00000000E+00	 3.00000000E-01	 7.00000000E-01
					 5.00000000E-02	 3.00000000E-01	 7.00000000E-01
					 0.00000000E+00	 0.00000000E+00	 7.50000000E-01
					 5.00000000E-02	 0.00000000E+00	 7.50000000E-01
					 0.00000000E+00	 3.00000000E-01	 7.50000000E-01
					 5.00000000E-02	 3.00000000E-01	 7.50000000E-01
					 0.00000000E+00	 0.00000000E+00	 8.00000000E-01
					 5.00000000E-02	 0.00000000E+00	 8.00000000E-01
					 0.00000000E+00	 3.00000000E-01	 8.00000000E-01
					 5.00000000E-02	 3.00000000E-01	 8.00000000E-01
					 0.00000000E+00	 0.00000000E+00	 8.50000000E-01
					 5.00000000E-02	 0.00000000E+00	 8.50000000E-01
					 0.00000000E+00	 3.00000000E-01	 8.50000000E-01
					 5.00000000E-02	 3.00000000E-01	 8.50000000E-01
					 0.00000000E+00	 0.00000000E+00	 9.00000000E-01
					 5.00000000E-02	 0.00000000E+00	 9.00000000E-01
					 0.00000000E+00	 3.00000000E-01	 9.00000000E-01
					 5.00000000E-02	 3.00000000E-01	 9.00000000E-01
					 0.00000000E+00	 0.00000000E+00	 9.50000000E-01
					 5.00000000E-02	 0.00000000E+00	 9.50000000E-01
					 0.00000000E+00	 3.00000000E-01	 9.50000000E-01
					 5.00000000E-02	 3.00000000E-01	 9.50000000E-01
					 0.00000000E+00	 0.00000000E+00	 1.00000000E+00
					 5.00000000E-02	 0.00000000E+00	 1.00000000E+00
					 0.00000000E+00	 3.00000000E-01	 1.00000000E+00
					 5.00000000E-02	 3.00000000E-01	 1.00000000E+00
					-5.00000000E-02	 0.00000000E+00	 0.00000000E+00
					-5.00000000E-02	 0.00000000E+00	 5.00000000E-02
					-5.00000000E-02	 3.00000000E-01	 0.00000000E+00
					-5.00000000E-02	 3.00000000E-01	 5.00000000E-02
					-5.00000000E-02	 0.00000000E+00	 1.00000000E-01
					-5.00000000E-02	 3.00000000E-01	 1.00000000E-01
					-5.00000000E-02	 0.00000000E+00	 1.50000000E-01
					-5.00000000E-02	 3.00000000E-01	 1.50000000E-01
					-5.00000000E-02	 0.00000000E+00	 2.00000000E-01
					-5.00000000E-02	 3.00000000E-01	 2.00000000E-01
					-5.00000000E-02	 0.00000000E+00	 2.50000000E-01
					-5.00000000E-02	 3.00000000E-01	 2.50000000E-01
					-5.00000000E-02	 0.00000000E+00	 3.00000000E-01
					-5.00000000E-02	 3.00000000E-01	 3.00000000E-01
					-5.00000000E-02	 0.00000000E+00	 3.50000000E-01
					-5.00000000E-02	 3.00000000E-01	 3.50000000E-01
					-5.00000000E-02	 0.00000000E+00	 4.00000000E-01
					-5.00000000E-02	 3.00000000E-01	 4.00000000E-01
					-5.00000000E-02	 0.00000000E+00	 4.50000000E-01
					-5.00000000E-02	 3.00000000E-01	 4.50000000E-01
					-5.00000000E-02	 0.00000000E+00	 5.00000000E-01
					-5.00000000E-02	 3.00000000E-01	 5.00000000E-01
					-5.00000000E-02	 0.00000000E+00	 5.50000000E-01
					-5.00000000E-02	 3.00000000E-01	 5.50000000E-01
					-5.00000000E-02	 0.00000000E+00	 6.00000000E-01
					-5.00000000E-02	 3.00000000E-01	 6.00000000E-01
					-5.00000000E-02	 0.00000000E+00	 6.50000000E-01
					-5.00000000E-02	 3.00000000E-01	 6.50000000E-01
					-5.00000000E-02	 0.00000000E+00	 7.00000000E-01
					-5.00000000E-02	 3.00000000E-01	 7.00000000E-01
					-5.00000000E-02	 0.00000000E+00	 7.50000000E-01
					-5.00000000E-02	 3.00000000E-01	 7.50000000E-01
					-5.00000000E-02	 0.00000000E+00	 8.00000000E-01
					-5.00000000E-02	 3.00000000E-01	 8.00000000E-01
					-5.00000000E-02	 0.00000000E+00	 8.50000000E-01
					-5.00000000E-02	 3.00000000E-01	 8.50000000E-01
					-5.00000000E-02	 0.00000000E+00	 9.00000000E-01
					-5.00000000E-02	 3.00000000E-01	 9.00000000E-01
					-5.00000000E-02	 0.00000000E+00	 9.50000000E-01
					-5.00000000E-02	 3.00000000E-01	 9.50000000E-01
					-5.00000000E-02	 0.00000000E+00	 1.00000000E+00
					-5.00000000E-02	 3.00000000E-01	 1.00000000E+00

				</DataArray>
			</Points>
			<Cells>
				<DataArray type="Int32" Name="connectivity" format="ascii">
					0 1 2 3 4 5 6 7 3 2 8 9 7 6 10 11 9 8 12 13 11 10 14 15 13 12 16 17 15 14 18 19 17 16 20 21 19 18 22 23 21 20 24 25 23 22 26 27 25 24 28 29 27 26 30 31 29 28 32 33 31 30 34 35 33 32 36 37 35 34 38 39 37 36 40 41 39 38 42 43 41 40 44 45 43 42 46 47 45 44 48 49 47 46 50 51 49 48 52 53 51 50 54 55 53 52 56 57 55 54 58 59 57 56 60 61 59 58 62 63 61 60 64 65 63 62 66 67 65 64 68 69 67 66 70 71 69 68 72 73 71 70 74 75 73 72 76 77 75 74 78 79 77 76 80 81 79 78 82 83 1 84 85 2 5 86 87 6 2 85 88 8 6 87 89 10 8 88 90 12 10 89 91 14 12 90 92 16 14 91 93 18 16 92 94 20 18 93 95 22 20 94 96 24 22 95 97 26 24 96 98 28 26 97 99 30 28 98 100 32 30 99 101 34 32 100 102 36 34 101 103 38 36 102 104 40 38 103 105 42 40 104 106 44 42 105 107 46 44 106 108 48 46 107 109 50 48 108 110 52 50 109 111 54 52 110 112 56 54 111 113 58 56 112 114 60 58 113 115 62 60 114 116 64 62 115 117 66 64 116 118 68 66 117 119 70 68 118 120 72 70 119 121 74 72 120 122 76 74 121 123 78 76 122 124 80 78 123 125 82 
				</DataArray>
				<DataArray type="Int32" Name="offsets" format="ascii">
					8 16 24 32 40 48 56 64 72 80 88 96 104 112 120 128 136 144 152 160 168 176 184 192 200 208 216 224 232 240 248 256 264 272 280 288 296 304 312 320 
				</DataArray>
				<DataArray type="UInt8" Name="types" format="ascii">
					12 12 12 12 12 12 12 12 12 12 12 12 12 12 12 12 12 12 12 12 12 12 12 12 12 12 12 12 12 12 12 12 12 12 12 12 12 12 12 12 
				</DataArray>
			</Cells>
			<PointData>
				<DataArray type="Float32" Name="U" NumberOfComponents="3" ComponentName0="D1" ComponentName1="D2" ComponentName2="D3" format="ascii">
					 0.00000000E+00	 0.00000000E+00	 0.00000000E+00
					 0.00000000E+00	 0.00000000E+00	 0.00000000E+00
					 3.76164000E-03	 0.00000000E+00	-5.35333000E-04
					 4.11258000E-03	 0.00000000E+00	-6.46081000E-03
					 0.00000000E+00	 0.00000000E+00	 0.00000000E+00
					 0.00000000E+00	 0.00000000E+00	 0.00000000E+00
					 3.76164000E-03	 0.00000000E+00	-5.35333000E-04
					 4.11258000E-03	 0.00000000E+00	-6.46081000E-03
					 1.32241000E-02	 0.00000000E+00	-1.59555000E-03
					 1.24729000E-02	 0.00000000E+00	-1.20879000E-02
					 1.32241000E-02	 0.00000000E+00	-1.59555000E-03
					 1.24729000E-02	 0.00000000E+00	-1.20879000E-02
					 2.63019000E-02	 0.00000000E+00	-3.40345000E-03
					 2.46834000E-02	 0.00000000E+00	-1.70536000E-02
					 2.63019000E-02	 0.00000000E+00	-3.40345000E-03
					 2.46834000E-02	 0.00000000E+00	-1.70536000E-02
					 4.18736000E-02	 0.00000000E+00	-5.86736000E-03
					 3.95077000E-02	 0.00000000E+00	-2.15109000E-02
					 4.18736000E-02	 0.00000000E+00	-5.86736000E-03
					 3.95077000E-02	 0.00000000E+00	-2.15109000E-02
					 5.88808000E-02	 0.00000000E+00	-8.75694000E-03
					 5.60383000E-02	 0.00000000E+00	-2.54416000E-02
					 5.88808000E-02	 0.00000000E+00	-8.75694000E-03
					 5.60383000E-02	 0.00000000E+00	-2.54416000E-02
					 7.64450000E-02	 0.00000000E+00	-1.18130000E-02
					 7.33993000E-02	 0.00000000E+00	-2.87623000E-02
					 7.64450000E-02	 0.00000000E+00	-1.18130000E-02
					 7.33993000E-02	 0.00000000E+00	-2.87623000E-02
					 9.38396000E-02	 0.00000000E+00	-1.47996000E-02
					 9.08452000E-02	 0.00000000E+00	-3.14094000E-02
					 9.38396000E-02	 0.00000000E+00	-1.47996000E-02
					 9.08452000E-02	 0.00000000E+00	-3.14094000E-02
					 1.10533000E-01	 0.00000000E+00	-1.75394000E-02
					 1.07755000E-01	 0.00000000E+00	-3.33561000E-02
					 1.10533000E-01	 0.00000000E+00	-1.75394000E-02
					 1.07755000E-01	 0.00000000E+00	-3.33561000E-02
					 1.26158000E-01	 0.00000000E+00	-1.99163000E-02
					 1.23695000E-01	 0.00000000E+00	-3.46348000E-02
					 1.26158000E-01	 0.00000000E+00	-1.99163000E-02
					 1.23695000E-01	 0.00000000E+00	-3.46348000E-02
					 1.40479000E-01	 0.00000000E+00	-2.18842000E-02
					 1.38369000E-01	 0.00000000E+00	-3.53234000E-02
					 1.40479000E-01	 0.00000000E+00	-2.18842000E-02
					 1.38369000E-01	 0.00000000E+00	-3.53234000E-02
					 1.53366000E-01	 0.00000000E+00	-2.34658000E-02
					 1.51628000E-01	 0.00000000E+00	-3.55451000E-02
					 1.53366000E-01	 0.00000000E+00	-2.34658000E-02
					 1.51628000E-01	 0.00000000E+00	-3.55451000E-02
					 1.64797000E-01	 0.00000000E+00	-2.47241000E-02
					 1.63404000E-01	 0.00000000E+00	-3.54209000E-02
					 1.64797000E-01	 0.00000000E+00	-2.47241000E-02
					 1.63404000E-01	 0.00000000E+00	-3.54209000E-02
					 1.74795000E-01	 0.00000000E+00	-2.57094000E-02
					 1.73700000E-01	 0.00000000E+00	-3.50512000E-02
					 1.74795000E-01	 0.00000000E+00	-2.57094000E-02
					 1.73700000E-01	 0.00000000E+00	-3.50512000E-02
					 1.83421000E-01	 0.00000000E+00	-2.64521000E-02
					 1.82564000E-01	 0.00000000E+00	-3.45255000E-02
					 1.83421000E-01	 0.00000000E+00	-2.64521000E-02
					 1.82564000E-01	 0.00000000E+00	-3.45255000E-02
					 1.90793000E-01	 0.00000000E+00	-2.69889000E-02
					 1.90135000E-01	 0.00000000E+00	-3.39400000E-02
					 1.90793000E-01	 0.00000000E+00	-2.69889000E-02
					 1.90135000E-01	 0.00000000E+00	-3.39400000E-02
					 1.97101000E-01	 0.00000000E+00	-2.73633000E-02
					 1.96591000E-01	 0.00000000E+00	-3.33720000E-02
					 1.97101000E-01	 0.00000000E+00	-2.73633000E-02
					 1.96591000E-01	 0.00000000E+00	-3.33720000E-02
					 2.02556000E-01	 0.00000000E+00	-2.76107000E-02
					 2.02151000E-01	 0.00000000E+00	-3.28809000E-02
					 2.02556000E-01	 0.00000000E+00	-2.76107000E-02
					 2.02151000E-01	 0.00000000E+00	-3.28809000E-02
					 2.07361000E-01	 0.00000000E+00	-2.77720000E-02
					 2.07033000E-01	 0.00000000E+00	-3.25306000E-02
					 2.07361000E-01	 0.00000000E+00	-2.77720000E-02
					 2.07033000E-01	 0.00000000E+00	-3.25306000E-02
					 2.11769000E-01	 0.00000000E+00	-2.79043000E-02
					 2.11509000E-01	 0.00000000E+00	-3.23980000E-02
					 2.11769000E-01	 0.00000000E+00	-2.79043000E-02
					 2.11509000E-01	 0.00000000E+00	-3.23980000E-02
					 2.16115000E-01	 0.00000000E+00	-2.80688000E-02
					 2.15892000E-01	 0.00000000E+00	-3.24957000E-02
					 2.16115000E-01	 0.00000000E+00	-2.80688000E-02
					 2.15892000E-01	 0.00000000E+00	-3.24957000E-02
					 0.00000000E+00	 0.00000000E+00	 0.00000000E+00
					 5.06866000E-03	 0.00000000E+00	 5.17047000E-03
					 0.00000000E+00	 0.00000000E+00	 0.00000000E+00
					 5.06866000E-03	 0.00000000E+00	 5.17047000E-03
					 1.48887000E-02	 0.00000000E+00	 8.58655000E-03
					 1.48887000E-02	 0.00000000E+00	 8.58655000E-03
					 2.85832000E-02	 0.00000000E+00	 9.98238000E-03
					 2.85832000E-02	 0.00000000E+00	 9.98238000E-03
					 4.46389000E-02	 0.00000000E+00	 9.61276000E-03
					 4.46389000E-02	 0.00000000E+00	 9.61276000E-03
					 6.19121000E-02	 0.00000000E+00	 7.85540000E-03
					 6.19121000E-02	 0.00000000E+00	 7.85540000E-03
					 7.95097000E-02	 0.00000000E+00	 5.13062000E-03
					 7.95097000E-02	 0.00000000E+00	 5.13062000E-03
					 9.67133000E-02	 0.00000000E+00	 1.85705000E-03
					 9.67133000E-02	 0.00000000E+00	 1.85705000E-03
					 1.13097000E-01	 0.00000000E+00	-1.63999000E-03
					 1.13097000E-01	 0.00000000E+00	-1.63999000E-03
					 1.28343000E-01	 0.00000000E+00	-5.10070000E-03
					 1.28343000E-01	 0.00000000E+00	-5.10070000E-03
					 1.42277000E-01	 0.00000000E+00	-8.36033000E-03
					 1.42277000E-01	 0.00000000E+00	-8.36033000E-03
					 1.54772000E-01	 0.00000000E+00	-1.13211000E-02
					 1.54772000E-01	 0.00000000E+00	-1.13211000E-02
					 1.65863000E-01	 0.00000000E+00	-1.39716000E-02
					 1.65863000E-01	 0.00000000E+00	-1.39716000E-02
					 1.75580000E-01	 0.00000000E+00	-1.63129000E-02
					 1.75580000E-01	 0.00000000E+00	-1.63129000E-02
					 1.84002000E-01	 0.00000000E+00	-1.83353000E-02
					 1.84002000E-01	 0.00000000E+00	-1.83353000E-02
					 1.91211000E-01	 0.00000000E+00	-2.00084000E-02
					 1.91211000E-01	 0.00000000E+00	-2.00084000E-02
					 1.97423000E-01	 0.00000000E+00	-2.13306000E-02
					 1.97423000E-01	 0.00000000E+00	-2.13306000E-02
					 2.02823000E-01	 0.00000000E+00	-2.23229000E-02
					 2.02823000E-01	 0.00000000E+00	-2.23229000E-02
					 2.07611000E-01	 0.00000000E+00	-2.30126000E-02
					 2.07611000E-01	 0.00000000E+00	-2.30126000E-02
					 2.12004000E-01	 0.00000000E+00	-2.34272000E-02
					 2.12004000E-01	 0.00000000E+00	-2.34272000E-02
					 2.16336000E-01	 0.00000000E+00	-2.36597000E-02
					 2.16336000E-01	 0.00000000E+00	-2.36597000E-02
				</DataArray>
				<DataArray type="Float32" Name="S" NumberOfComponents="10" ComponentName0="xx" ComponentName1="yy" ComponentName2="zz" ComponentName3="xy" ComponentName4="yz" ComponentName5="zx" ComponentName6="Mises" ComponentName7="Min Principal" ComponentName8="Mid Principal" ComponentName9="Max Principal" format="ascii">
					-3.97192000E+03	-4.48927000E+03	-1.42938000E+04	 0.00000000E+00	 1.16087000E-09	 2.84914000E+03	 1.12170241E+04	-1.50280191E+04	-4.48927000E+03	-3.23770093E+03
					 1.69022000E+02	-2.62058000E+02	-1.74248000E+03	 0.00000000E+00	 0.00000000E+00	 3.61898000E+03	 6.50436071E+03	-4.52978607E+03	-2.62058000E+02	 2.95632807E+03
					-6.59623000E+01	-2.79982000E+02	-1.57268000E+03	 4.07140000E-08	-6.67420000E-09	 6.69274000E+02	 1.82683290E+03	-1.82703006E+03	-2.79982000E+02	 1.88387758E+02
					-1.70601000E+03	-3.36666000E+03	-1.23944000E+04	 5.37726000E-08	-1.27965000E-08	-3.70026000E+02	 9.98301167E+03	-1.24071948E+04	-3.36666000E+03	-1.69321523E+03
					-3.97192000E+03	-4.48927000E+03	-1.42938000E+04	 0.00000000E+00	 1.16087000E-09	 2.84914000E+03	 1.12170241E+04	-1.50280191E+04	-4.48927000E+03	-3.23770093E+03
					 1.69022000E+02	-2.62058000E+02	-1.74248000E+03	 0.00000000E+00	 0.00000000E+00	 3.61898000E+03	 6.50436071E+03	-4.52978607E+03	-2.62058000E+02	 2.95632807E+03
					-6.59623000E+01	-2.79982000E+02	-1.57268000E+03	 4.07142000E-08	-6.67414000E-09	 6.69274000E+02	 1.82683290E+03	-1.82703006E+03	-2.79982000E+02	 1.88387758E+02
					-1.70601000E+03	-3.36666000E+03	-1.23944000E+04	 5.37727000E-08	-1.27966000E-08	-3.70026000E+02	 9.98301167E+03	-1.24071948E+04	-3.36666000E+03	-1.69321523E+03
					 1.00056000E+02	-1.58040000E+02	-1.07773000E+03	 6.48867000E-08	-4.52368000E-09	 7.84410000E+02	 1.73081157E+03	-1.46970091E+03	-1.58040000E+02	 4.92026912E+02
					-1.82063000E+03	-2.57905000E+03	-9.52034000E+03	 6.25912000E-08	-2.17526000E-08	-1.00617000E+03	 7.55369149E+03	-9.64965094E+03	-2.57905000E+03	-1.69131906E+03
					 1.00056000E+02	-1.58040000E+02	-1.07773000E+03	 6.48869000E-08	-4.52373000E-09	 7.84410000E+02	 1.73081157E+03	-1.46970091E+03	-1.58040000E+02	 4.92026912E+02
					-1.82063000E+03	-2.57905000E+03	-9.52034000E+03	 6.25913000E-08	-2.17530000E-08	-1.00617000E+03	 7.55369149E+03	-9.64965094E+03	-2.57905000E+03	-1.69131906E+03
					 2.61674000E+02	-7.17612000E+01	-6.98856000E+02	 1.05453000E-07	-4.54940000E-09	 6.76651000E+02	 1.44467717E+03	-1.04835666E+03	-7.17612000E+01	 6.11174657E+02
					-1.13071000E+03	-1.67023000E+03	-6.52543000E+03	 9.26525000E-08	-6.52768000E-08	-8.90128000E+02	 5.37219787E+03	-6.66850638E+03	-1.67023000E+03	-9.87633621E+02
					 2.61674000E+02	-7.17612000E+01	-6.98856000E+02	 1.05452000E-07	-4.54968000E-09	 6.76651000E+02	 1.44467717E+03	-1.04835666E+03	-7.17612000E+01	 6.11174657E+02
					-1.13071000E+03	-1.67023000E+03	-6.52543000E+03	 9.26527000E-08	-6.52757000E-08	-8.90128000E+02	 5.37219787E+03	-6.66850638E+03	-1.67023000E+03	-9.87633621E+02
					 3.12294000E+02	-1.63763000E+01	-4.17323000E+02	 1.74032000E-07	-6.48928000E-08	 6.34860000E+02	 1.26874085E+03	-7.84725167E+02	-1.63763000E+01	 6.79696167E+02
					-6.51560000E+02	-9.75295000E+02	-3.97318000E+03	 1.92108000E-07	-9.84424000E-08	-5.12686000E+02	 3.29411292E+03	-4.05051176E+03	-9.75295000E+02	-5.74228236E+02
					 3.12294000E+02	-1.63763000E+01	-4.17323000E+02	 1.74032000E-07	-6.48933000E-08	 6.34860000E+02	 1.26874085E+03	-7.84725167E+02	-1.63763000E+01	 6.79696167E+02
					-6.51560000E+02	-9.75295000E+02	-3.97318000E+03	 1.92106000E-07	-9.84424000E-08	-5.12686000E+02	 3.29411292E+03	-4.05051176E+03	-9.75295000E+02	-5.74228236E+02
					 3.00018000E+02	 1.68754000E+01	-2.12480000E+02	 2.32531000E-07	-9.27622000E-08	 5.83374000E+02	 1.10394275E+03	-5.93403484E+02	 1.68754000E+01	 6.80941484E+02
					-1.80028000E+02	-4.05979000E+02	-1.79271000E+03	 2.22965000E-07	-6.25538000E-08	-1.41309000E+01	 1.51261661E+03	-1.79283381E+03	-4.05979000E+02	-1.79904189E+02
					 3.00018000E+02	 1.68754000E+01	-2.12480000E+02	 2.32531000E-07	-9.27615000E-08	 5.83374000E+02	 1.10394275E+03	-5.93403484E+02	 1.68754000E+01	 6.80941484E+02
					-1.80028000E+02	-4.05979000E+02	-1.79271000E+03	 2.22965000E-07	-6.25548000E-08	-1.41309000E+01	 1.51261661E+03	-1.79283381E+03	-4.05979000E+02	-1.79904189E+02
					 2.15877000E+02	 2.35113000E+01	-8.92929000E+01	 1.40134000E-07	-3.42120000E-08	 5.12162000E+02	 9.26476525E+02	-4.71116110E+02	 2.35113000E+01	 5.97700210E+02
					 1.90981000E+02	 3.51221000E+01	 2.33507000E+00	 1.59024000E-07	 0.00000000E+00	 4.50165000E+02	 7.99013591E+02	-3.63282558E+02	 3.51221000E+01	 5.56598628E+02
					 2.15877000E+02	 2.35113000E+01	-8.92929000E+01	 1.40130000E-07	-3.42119000E-08	 5.12162000E+02	 9.26476525E+02	-4.71116110E+02	 2.35113000E+01	 5.97700210E+02
					 1.90981000E+02	 3.51221000E+01	 2.33507000E+00	 1.59024000E-07	 0.00000000E+00	 4.50165000E+02	 7.99013591E+02	-3.63282558E+02	 3.51221000E+01	 5.56598628E+02
					 1.50127000E+02	 2.91325000E+01	-1.09808000E+00	 7.66963000E-08	-2.34948000E-08	 4.08092000E+02	 7.20297530E+02	-3.40523293E+02	 2.91325000E+01	 4.89552213E+02
					 4.74970000E+02	 3.70262000E+02	 1.43136000E+03	 1.21437000E-07	 1.17069000E-08	 7.83311000E+02	 1.69307875E+03	 3.54250691E+01	 3.70262000E+02	 1.87090493E+03
					 1.50127000E+02	 2.91325000E+01	-1.09808000E+00	 7.66946000E-08	-2.34947000E-08	 4.08092000E+02	 7.20297530E+02	-3.40523293E+02	 2.91325000E+01	 4.89552213E+02
					 4.74970000E+02	 3.70262000E+02	 1.43136000E+03	 1.21441000E-07	 1.17069000E-08	 7.83311000E+02	 1.69307875E+03	 3.54250691E+01	 3.70262000E+02	 1.87090493E+03
					 5.75913000E+01	 2.43365000E+01	 5.81137000E+01	 3.77243000E-08	-2.69471000E-08	 3.14433000E+02	 5.45644446E+02	-2.56580608E+02	 2.43365000E+01	 3.72285608E+02
					 6.16646000E+02	 5.99345000E+02	 2.49514000E+03	 6.74610000E-08	 4.14237000E-08	 9.75937000E+02	 2.53355441E+03	 2.01404921E+02	 5.99345000E+02	 2.91038108E+03
					 5.75913000E+01	 2.43365000E+01	 5.81137000E+01	 3.77224000E-08	-2.69464000E-08	 3.14433000E+02	 5.45644446E+02	-2.56580608E+02	 2.43365000E+01	 3.72285608E+02
					 6.16646000E+02	 5.99345000E+02	 2.49514000E+03	 6.74611000E-08	 4.14230000E-08	 9.75937000E+02	 2.53355441E+03	 2.01404921E+02	 5.99345000E+02	 2.91038108E+03
					-2.15268000E+01	 2.12151000E+01	 1.13324000E+02	-9.12124000E-09	 1.39080000E-08	 2.31228000E+02	 4.17907876E+02	-1.94959392E+02	 2.12151000E+01	 2.86756592E+02
					 6.52985000E+02	 7.41763000E+02	 3.22373000E+03	-9.43571000E-09	 7.92274000E-08	 1.03779000E+03	 3.10151738E+03	 2.86331305E+02	 7.41763000E+02	 3.59038369E+03
					-2.15268000E+01	 2.12151000E+01	 1.13324000E+02	-9.12152000E-09	 1.39068000E-08	 2.31228000E+02	 4.17907876E+02	-1.94959392E+02	 2.12151000E+01	 2.86756592E+02
					 6.52985000E+02	 7.41763000E+02	 3.22373000E+03	-9.43788000E-09	 7.92282000E-08	 1.03779000E+03	 3.10151738E+03	 2.86331305E+02	 7.41763000E+02	 3.59038369E+03
					-1.05024000E+02	 9.60957000E+00	 1.33084000E+02	-3.22101000E-08	 3.55557000E-08	 1.54568000E+02	 3.37956957E+02	-1.81072849E+02	 9.60957000E+00	 2.09132849E+02
					 6.14214000E+02	 8.09780000E+02	 3.63182000E+03	-2.86686000E-08	 7.85663000E-08	 9.94339000E+02	 3.39413922E+03	 3.16031516E+02	 8.09780000E+02	 3.93000248E+03
					-1.05024000E+02	 9.60957000E+00	 1.33084000E+02	-3.22145000E-08	 3.55558000E-08	 1.54568000E+02	 3.37956957E+02	-1.81072849E+02	 9.60957000E+00	 2.09132849E+02
					 6.14214000E+02	 8.09780000E+02	 3.63182000E+03	-2.86725000E-08	 7.85663000E-08	 9.94339000E+02	 3.39413922E+03	 3.16031516E+02	 8.09780000E+02	 3.93000248E+03
					-1.19504000E+02	 2.45242000E+00	 1.08382000E+02	-6.48119000E-08	 3.28457000E-08	 7.13197000E+01	 2.32965095E+02	-1.39983866E+02	 2.45242000E+00	 1.28861866E+02
					 5.79247000E+02	 8.29492000E+02	 3.76918000E+03	-5.70004000E-08	 4.92898000E-08	 8.70335000E+02	 3.42234998E+03	 3.57237675E+02	 8.29492000E+02	 3.99118932E+03
					-1.19504000E+02	 2.45242000E+00	 1.08382000E+02	-6.48111000E-08	 3.28454000E-08	 7.13197000E+01	 2.32965095E+02	-1.39983866E+02	 2.45242000E+00	 1.28861866E+02
					 5.79247000E+02	 8.29492000E+02	 3.76918000E+03	-5.69973000E-08	 4.92891000E-08	 8.70335000E+02	 3.42234998E+03	 3.57237675E+02	 8.29492000E+02	 3.99118932E+03
					-1.30778000E+02	-1.35151000E+01	 3.93916000E+01	-3.62492000E-08	 1.60360000E-08	 3.40321000E+00	 1.50958422E+02	-1.30846033E+02	-1.35151000E+01	 3.94596334E+01
					 5.25928000E+02	 8.08462000E+02	 3.70248000E+03	-5.53581000E-08	-1.08315000E-08	 7.10957000E+02	 3.28469233E+03	 3.74065928E+02	 8.08462000E+02	 3.85434207E+03
					-1.30778000E+02	-1.35151000E+01	 3.93916000E+01	-3.62645000E-08	 1.60360000E-08	 3.40321000E+00	 1.50958422E+02	-1.30846033E+02	-1.35151000E+01	 3.94596334E+01
					 5.25928000E+02	 8.08462000E+02	 3.70248000E+03	-5.53455000E-08	-1.08309000E-08	 7.10957000E+02	 3.28469233E+03	 3.74065928E+02	 8.08462000E+02	 3.85434207E+03
					-1.37971000E+02	-2.51925000E+01	-9.39944000E+00	 4.59179000E-08	-9.70731000E-09	-4.98761000E+01	 1.49038265E+02	-1.55050365E+02	-2.51925000E+01	 7.67992525E+00
					 4.51213000E+02	 7.57622000E+02	 3.49890000E+03	 3.40364000E-08	-3.43858000E-08	 5.42550000E+02	 3.05475454E+03	 3.57509124E+02	 7.57622000E+02	 3.59260388E+03
					-1.37971000E+02	-2.51925000E+01	-9.39944000E+00	 4.59288000E-08	-9.70739000E-09	-4.98761000E+01	 1.49038265E+02	-1.55050365E+02	-2.51925000E+01	 7.67992525E+00
					 4.51213000E+02	 7.57622000E+02	 3.49890000E+03	 3.40222000E-08	-3.43859000E-08	 5.42550000E+02	 3.05475454E+03	 3.57509124E+02	 7.57622000E+02	 3.59260388E+03
					-1.69393000E+02	-3.37071000E+01	-1.65996000E+01	 6.04597000E-08	-1.54555000E-08	-8.81611000E+01	 2.10574726E+02	-2.09653213E+02	-3.37071000E+01	 2.36606129E+01
					 3.50814000E+02	 6.79851000E+02	 3.18022000E+03	 4.16665000E-08	-2.82787000E-09	 3.82642000E+02	 2.76080950E+03	 2.99979734E+02	 6.79851000E+02	 3.23105427E+03
					-1.69393000E+02	-3.37071000E+01	-1.65996000E+01	 6.04571000E-08	-1.54558000E-08	-8.81611000E+01	 2.10574726E+02	-2.09653213E+02	-3.37071000E+01	 2.36606129E+01
					 3.50814000E+02	 6.79851000E+02	 3.18022000E+03	 4.16658000E-08	-2.82780000E-09	 3.82642000E+02	 2.76080950E+03	 2.99979734E+02	 6.79851000E+02	 3.23105427E+03
					-1.47400000E+02	-2.18930000E+01	 2.49173000E+01	 5.58071000E-08	 0.00000000E+00	-1.16840000E+02	 2.54505380E+02	-2.06413312E+02	-2.18930000E+01	 8.39306121E+01
					 2.82721000E+02	 5.92508000E+02	 2.78016000E+03	 5.69751000E-08	 2.04714000E-08	 2.40015000E+02	 2.39422576E+03	 2.59863688E+02	 5.92508000E+02	 2.80301731E+03
					-1.47400000E+02	-2.18930000E+01	 2.49173000E+01	 5.57990000E-08	 0.00000000E+00	-1.16840000E+02	 2.54505380E+02	-2.06413312E+02	-2.18930000E+01	 8.39306121E+01
					 2.82721000E+02	 5.92508000E+02	 2.78016000E+03	 5.69790000E-08	 2.04732000E-08	 2.40015000E+02	 2.39422576E+03	 2.59863688E+02	 5.92508000E+02	 2.80301731E+03
					-1.39862000E+02	-9.35080000E+00	 8.48296000E+01	 5.22897000E-08	 1.87036000E-08	-1.27951000E+02	 2.95481122E+02	-1.97789619E+02	-9.35080000E+00	 1.42757219E+02
					 2.07528000E+02	 4.91837000E+02	 2.32229000E+03	 2.29785000E-08	 4.66813000E-08	 1.27102000E+02	 2.00006720E+03	 1.99916278E+02	 4.91837000E+02	 2.32990172E+03
					-1.39862000E+02	-9.35080000E+00	 8.48296000E+01	 5.22882000E-08	 1.87034000E-08	-1.27951000E+02	 2.95481122E+02	-1.97789619E+02	-9.35080000E+00	 1.42757219E+02
					 2.07528000E+02	 4.91837000E+02	 2.32229000E+03	 2.29735000E-08	 4.66817000E-08	 1.27102000E+02	 2.00006720E+03	 1.99916278E+02	 4.91837000E+02	 2.32990172E+03
					-1.37154000E+02	 2.59345000E+00	 1.46355000E+02	 1.14177000E-08	 2.16950000E-08	-1.35870000E+02	 3.40101476E+02	-1.91753759E+02	 2.59345000E+00	 2.00954759E+02
					 1.20100000E+02	 3.76036000E+02	 1.80428000E+03	 6.06752000E-09	 6.89540000E-08	 3.86969000E+01	 1.57334534E+03	 1.19211342E+02	 3.76036000E+02	 1.80516866E+03
					-1.37154000E+02	 2.59345000E+00	 1.46355000E+02	 1.14060000E-08	 2.16940000E-08	-1.35870000E+02	 3.40101476E+02	-1.91753759E+02	 2.59345000E+00	 2.00954759E+02
					 1.20100000E+02	 3.76036000E+02	 1.80428000E+03	 6.07301000E-09	 6.89544000E-08	 3.86969000E+01	 1.57334534E+03	 1.19211342E+02	 3.76036000E+02	 1.80516866E+03
					-1.47633000E+02	 2.76389000E+00	 1.60644000E+02	-3.13096000E-08	 9.97734000E-09	-1.38777000E+02	 3.59259236E+02	-2.00901667E+02	 2.76389000E+00	 2.13912667E+02
					 2.53447000E+01	 2.38751000E+02	 1.18925000E+03	-2.56088000E-08	 1.00382000E-07	-2.52275000E+01	 1.07412399E+03	 2.47981538E+01	 2.38751000E+02	 1.18979655E+03
					-1.47633000E+02	 2.76389000E+00	 1.60644000E+02	-3.13003000E-08	 9.97820000E-09	-1.38777000E+02	 3.59259236E+02	-2.00901667E+02	 2.76389000E+00	 2.13912667E+02
					 2.53447000E+01	 2.38751000E+02	 1.18925000E+03	-2.56060000E-08	 1.00381000E-07	-2.52275000E+01	 1.07412399E+03	 2.47981538E+01	 2.38751000E+02	 1.18979655E+03
					-1.12440000E+02	-1.67771000E+00	 1.03993000E+02	-1.20610000E-07	 1.57671000E-08	-9.88934000E+01	 2.53926421E+02	-1.50820619E+02	-1.67771000E+00	 1.42373619E+02
					-2.22596000E+01	 1.03724000E+02	 5.46318000E+02	-1.17372000E-07	 1.25792000E-07	-3.92629000E+01	 5.21675788E+02	-2.49580769E+01	 1.03724000E+02	 5.49016477E+02
					-1.12440000E+02	-1.67771000E+00	 1.03993000E+02	-1.20630000E-07	 1.57672000E-08	-9.88934000E+01	 2.53926421E+02	-1.50820619E+02	-1.67771000E+00	 1.42373619E+02
					-2.22596000E+01	 1.03724000E+02	 5.46318000E+02	-1.17372000E-07	 1.25793000E-07	-3.92629000E+01	 5.21675788E+02	-2.49580769E+01	 1.03724000E+02	 5.49016477E+02
					-6.62453000E+01	-1.12960000E+00	 6.08077000E+01	-2.25252000E-07	 3.30608000E-08	-6.62572000E+01	 1.58995043E+02	-9.45100455E+01	-1.12960000E+00	 8.90724455E+01
					-1.64309000E+01	 4.50144000E+01	 2.42374000E+02	-2.29627000E-07	 1.57845000E-07	-3.26726000E+01	 2.40947407E+02	-2.04919014E+01	 4.50144000E+01	 2.46435001E+02
					-6.62453000E+01	-1.12960000E+00	 6.08077000E+01	-2.25239000E-07	 3.30581000E-08	-6.62572000E+01	 1.58995043E+02	-9.45100455E+01	-1.12960000E+00	 8.90724455E+01
					-1.64309000E+01	 4.50144000E+01	 2.42374000E+02	-2.29630000E-07	 1.57845000E-07	-3.26726000E+01	 2.40947407E+02	-2.04919014E+01	 4.50144000E+01	 2.46435001E+02
					 4.37243000E+03	 3.43686000E+03	 1.59909000E+04	 0.00000000E+00	 0.00000000E+00	 6.45114000E+03	 1.64798559E+04	 1.50039674E+03	 3.43686000E+03	 1.88629333E+04
					 1.40211000E+03	 2.55853000E+03	 1.34015000E+04	 3.07615000E-08	 3.26590000E-08	 2.68462000E+03	 1.23720607E+04	 8.28866187E+02	 2.55853000E+03	 1.39747438E+04
					 4.37243000E+03	 3.43686000E+03	 1.59909000E+04	 0.00000000E+00	 0.00000000E+00	 6.45114000E+03	 1.64798559E+04	 1.50039674E+03	 3.43686000E+03	 1.88629333E+04