<?xml version="1.0"?>
<VTKFile type="UnstructuredGrid" version="0.1" byte_order="LittleEndian">
	<UnstructuredGrid>
		<Piece NumberOfPoints="126" NumberOfCells="40">
			<Points>
				<DataArray type="Float64" NumberOfComponents="3" format="ascii">
					 5.00000000E-02	 0.00000000E+00	 0.00000000E+00
					 0.00000000E+00	 0.00000000E+00	 0.00000000E+00
					 0.00000000E+00	 0.00000000E+00	 5.00000000E-02
					 5.00000000E-02	 0.00000000E+00	 5.00000000E-02
					 5.00000000E-02	 3.00000000E-01	 0.00000000E+00
					 0.00000000E+00	 3.00000000E-01	 0.00000000E+00
					 0.00000000E+00	 3.00000000E-01	 5.00000000E-02
					 5.00000000E-02	 3.00000000E-01	 5.00000000E-02
					 0.00000000E+00	 0.00000000E+00	 1.00000000E-01
					 5.00000000E-02	 0.00000000E+00	 1.00000000E-01
					 0.00000000E+00	 3.00000000E-01	 1.00000000E-01
					 5.00000000E-02	 3.00000000E-01	 1.00000000E-01
					 0.00000000E+00	 0.00000000E+00	 1.50000000E-01
					 5.00000000E-02	 0.00000000E+00	 1.50000000E-01
					 0.00000000E+00	 3.00000000E-01	 1.50000000E-01
					 5.00000000E-02	 3.00000000E-01	 1.50000000E-01
					 0.00000000E+00	 0.00000000E+00	 2.00000000E-01
					 5.00000000E-02	 0.00000000E+00	 2.00000000E-01
					 0.00000000E+00	 3.00000000E-01	 2.00000000E-01
					 5.00000000E-02	 3.00000000E-01	 2.00000000E-01
					 0.00000000E+00	 0.00000000E+00	 2.50000000E-01
					 5.00000000E-02	 0.00000000E+00	 2.50000000E-01
					 0.00000000E+00	 3.00000000E-01	 2.50000000E-01
					 5.00000000E-02	 3.00000000E-01	 2.50000000E-01
					 0.00000000E+00	 0.00000000E+00	 3.00000000E-01
					 5.00000000E-02	 0.00000000E+00	 3.00000000E-01
					 0.00000000E+00	 3.00000000E-01	 3.00000000E-01
					 5.00000000E-02	 3.00000000E-01	 3.00000000E-01
					 0.00000000E+00	 0.00000000E+00	 3.50000000E-01
					 5.00000000E-02	 0.00000000E+00	 3.50000000E-01
					 0.00000000E+00	 3.00000000E-01	 3.50000000E-01
					 5.00000000E-02	 3.00000000E-01	 3.50000000E-01
					 0.00000000E+00	 0.00000000E+00	 4.00000000E-01
					 5.00000000E-02	 0.00000000E+00	 4.00000000E-01
					 0.00000000E+00	 3.00000000E-01	 4.00000000E-01
					 5.00000000E-02	 3.00000000E-01	 4.00000000E-01
					 0.00000000E+00	 0.00000000E+00	 4.50000000E-01
					 5.00000000E-02	 0.00000000E+00	 4.50000000E-01
					 0.00000000E+00	 3.00000000E-01	 4.50000000E-01
					 5.00000000E-02	 3.00000000E-01	 4.50000000E-01
					 0.00000000E+00	 0.00000000E+00	 5.00000000E-01
					 5.00000000E-02	 0.00000000E+00	 5.00000000E-01
					 0.00000000E+00	 3.00000000E-01	 5.00000000E-01
					 5.00000000E-02	 3.00000000E-01	 5.00000000E-01
					 0.00000000E+00	 0.00000000E+00	 5.50000000E-01
					 5.00000000E-02	 0.00000000E+00	 5.50000000E-01
					 0.00000000E+00	 3.00000000E-01	 5.50000000E-01
					 5.00000000E-02	 3.00000000E-01	 5.50000000E-01
					 0.00000000E+00	 0.00000000E+00	 6.00000000E-01
					 5.00000000E-02	 0.00000000E+00	 6.00000000E-01
					 0.00000000E+00	 3.00000000E-01	 6.00000000E-01
					 5.00000000E-02	 3.00000000E-01	 6.00000000E-01
					 0.00000000E+00	 0.00000000E+00	 6.50000000E-01
					 5.00000000E-02	 0.00000000E+00	 6.50000000E-01
					 0.00000000E+00	 3.00000000E-01	 6.50000000E-01
					 5.00000000E-02	 3.00000000E-01	 6.50000000E-01
					 0.00000000E+00	 0.00000000E+00	 7.00000000E-01
					 5.00000000E-02	 0.00000000E+00	 7.00000000E-01
					 0.00000000E+00	 3.00000000E-01	 7.00000000E-01
					 5.00000000E-02	 3.00000000E-01	 7.00000000E-01
					 0.00000000E+00	 0.00000000E+00	 7.50000000E-01
					 5.00000000E-02	 0.00000000E+00	 7.50000000E-01
					 0.00000000E+00	 3.00000000E-01	 7.50000000E-01
					 5.00000000E-02	 3.00000000E-01	 7.50000000E-01
					 0.00000000E+00	 0.00000000E+00	 8.00000000E-01
					 5.00000000E-02	 0.00000000E+00	 8.00000000E-01
					 0.00000000E+00	 3.00000000E-01	 8.00000000E-01
					 5.00000000E-02	 3.00000000E-01	 8.00000000E-01
					 0.00000000E+00	 0.00000000E+00	 8.50000000E-01
					 5.00000000E-02	 0.00000000E+00	 8.50000000E-01
					 0.00000000E+00	 3.00000000E-01	 8.50000000E-01
					 5.00000000E-02	 3.00000000E-01	 8.50000000E-01
					 0.00000000E+00	 0.00000000E+00	 9.00000000E-01
					 5.00000000E-02	 0.00000000E+00	 9.00000000E-01
					 0.00000000E+00	 3.00000000E-01	 9.00000000E-01
					 5.00000000E-02	 3.00000000E-01	 9.00000000E-01
					 0.00000000E+00	 0.00000000E+00	 9.50000000E-01
					 5.00000000E-02	 0.00000000E+00	 9.50000000E-01
					 0.00000000E+00	 3.00000000E-01	 9.50000000E-01
					 5.00000000E-02	 3.00000000E-01	 9.50000000E-01
					 0.00000000E+00	 0.00000000E+00	 1.00000000E+00
					 5.00000000E-02	 0.00000000E+00	 1.00000000E+00
					 0.00000000E+00	 3.00000000E-01	 1.00000000E+00
					 5.00000000E-02	 3.00000000E-01	 1.00000000E+00
					-5.00000000E-02	 0.00000000E+00	 0.00000000E+00
					-5.00000000E-02	 0.00000000E+00	 5.00000000E-02
					-5.00000000E-02	 3.00000000E-01	 0.00000000E+00
					-5.00000000E-02	 3.00000000E-01	 5.00000000E-02
					-5.00000000E-02	 0.00000000E+00	 1.00000000E-01
					-5.00000000E-02	 3.00000000E-01	 1.00000000E-01
					-5.00000000E-02	 0.00000000E+00	 1.50000000E-01
					-5.00000000E-02	 3.00000000E-01	 1.50000000E-01
					-5.00000000E-02	 0.00000000E+00	 2.00000000E-01
					-5.00000000E-02	 3.00000000E-01	 2.00000000E-01
					-5.00000000E-02	 0.00000000E+00	 2.50000000E-01
					-5.00000000E-02	 3.00000000E-01	 2.50000000E-01
					-5.00000000E-02	 0.00000000E+00	 3.00000000E-01
					-5.00000000E-02	 3.00000000E-01	 3.00000000E-01
					-5.00000000E-02	 0.00000000E+00	 3.50000000E-01
					-5.00000000E-02	 3.00000000E-01	 3.50000000E-01
					-5.00000000E-02	 0.00000000E+00	 4.00000000E-01
					-5.00000000E-02	 3.00000000E-01	 4.00000000E-01
					-5.00000000E-02	 0.00000000E+00	 4.50000000E-01
					-5.00000000E-02	 3.00000000E-01	 4.50000000E-01
					-5.00000000E-02	 0.00000000E+00	 5.00000000E-01
					-5.00000000E-02	 3.00000000E-01	 5.00000000E-01
					-5.00000000E-02	 0.00000000E+00	 5.50000000E-01
					-5.00000000E-02	 3.00000000E-01	 5.50000000E-01
					-5.00000000E-02	 0.00000000E+00	 6.00000000E-01
					-5.00000000E-02	 3.00000000E-01	 6.00000000E-01
					-5.00000000E-02	 0.00000000E+00	 6.50000000E-01
					-5.00000000E-02	 3.00000000E-01	 6.50000000E-01
					-5.00000000E-02	 0.00000000E+00	 7.00000000E-01
					-5.00000000E-02	 3.00000000E-01	 7.00000000E-01
					-5.00000000E-02	 0.00000000E+00	 7.50000000E-01
					-5.00000000E-02	 3.00000000E-01	 7.50000000E-01
					-5.00000000E-02	 0.00000000E+00	 8.00000000E-01
					-5.00000000E-02	 3.00000000E-01	 8.00000000E-01
					-5.00000000E-02	 0.00000000E+00	 8.50000000E-01
					-5.00000000E-02	 3.00000000E-01	 8.50000000E-01
					-5.00000000E-02	 0.00000000E+00	 9.00000000E-01
					-5.00000000E-02	 3.00000000E-01	 9.00000000E-01
					-5.00000000E-02	 0.00000000E+00	 9.50000000E-01
					-5.00000000E-02	 3.00000000E-01	 9.50000000E-01
					-5.00000000E-02	 0.00000000E+00	 1.00000000E+00
					-5.00000000E-02	 3.00000000E-01	 1.00000000E+00

				</DataArray>
			</Points>
			<Cells>
				<DataArray type="Int32" Name="connectivity" format="ascii">
					0 1 2 3 4 5 6 7 3 2 8 9 7 6 10 11 9 8 12 13 11 10 14 15 13 12 16 17 15 14 18 19 17 16 20 21 19 18 22 23 21 20 24 25 23 22 26 27 25 24 28 29 27 26 30 31 29 28 32 33 31 30 34 35 33 32 36 37 35 34 38 39 37 36 40 41 39 38 42 43 41 40 44 45 43 42 46 47 45 44 48 49 47 46 50 51 49 48 52 53 51 50 54 55 53 52 56 57 55 54 58 59 57 56 60 61 59 58 62 63 61 60 64 65 63 62 66 67 65 64 68 69 67 66 70 71 69 68 72 73 71 70 74 75 73 72 76 77 75 74 78 79 77 76 80 81 79 78 82 83 1 84 85 2 5 86 87 6 2 85 88 8 6 87 89 10 8 88 90 12 10 89 91 14 12 90 92 16 14 91 93 18 16 92 94 20 18 93 95 22 20 94 96 24 22 95 97 26 24 96 98 28 26 97 99 30 28 98 100 32 30 99 101 34 32 100 102 36 34 101 103 38 36 102 104 40 38 103 105 42 40 104 106 44 42 105 107 46 44 106 108 48 46 107 109 50 48 108 110 52 50 109 111 54 52 110 112 56 54 111 113 58 56 112 114 60 58 113 115 62 60 114 116 64 62 115 117 66 64 116 118 68 66 117 119 70 68 118 120 72 70 119 121 74 72 120 122 76 74 121 123 78 76 122 124 80 78 123 125 82 
				</DataArray>
				<DataArray type="Int32" Name="offsets" format="ascii">
					8 16 24 32 40 48 56 64 72 80 88 96 104 112 120 128 136 144 152 160 168 176 184 192 200 208 216 224 232 240 248 256 264 272 280 288 296 304 312 320 
				</DataArray>
				<DataArray type="UInt8" Name="types" format="ascii">
					12 12 12 12 12 12 12 12 12 12 12 12 12 12 12 12 12 12 12 12 12 12 12 12 12 12 12 12 12 12 12 12 12 12 12 12 12 12 12 12 
				</DataArray>
			</Cells>
			<PointData>
				<DataArray type="Float32" Name="U" NumberOfComponents="3" ComponentName0="D1" ComponentName1="D2" ComponentName2="D3" format="ascii">
					 0.00000000E+00	 0.00000000E+00	 0.00000000E+00
					 0.00000000E+00	 0.00000000E+00	 0.00000000E+00
					 3.08427000E-03	 0.00000000E+00	-4.90892000E-04
					 3.48882000E-03	 0.00000000E+00	-6.83551000E-03
					 0.00000000E+00	 0.00000000E+00	 0.00000000E+00
					 0.00000000E+00	 0.00000000E+00	 0.00000000E+00
					 3.08427000E-03	 0.00000000E+00	-4.90892000E-04
					 3.48882000E-03	 0.00000000E+00	-6.83551000E-03
					 1.27775000E-02	 0.00000000E+00	-1.67851000E-03
					 1.18017000E-02	 0.00000000E+00	-1.40178000E-02
					 1.27775000E-02	 0.00000000E+00	-1.67851000E-03
					 1.18017000E-02	 0.00000000E+00	-1.40178000E-02
					 2.78820000E-02	 0.00000000E+00	-4.24394000E-03
					 2.52340000E-02	 0.00000000E+00	-2.19859000E-02
					 2.78820000E-02	 0.00000000E+00	-4.24394000E-03
					 2.52340000E-02	 0.00000000E+00	-2.19859000E-02
					 4.80450000E-02	 0.00000000E+00	-8.69307000E-03
					 4.32222000E-02	 0.00000000E+00	-3.13301000E-02
					 4.80450000E-02	 0.00000000E+00	-8.69307000E-03
					 4.32222000E-02	 0.00000000E+00	-3.13301000E-02
					 7.28260000E-02	 0.00000000E+00	-1.54368000E-02
					 6.54769000E-02	 0.00000000E+00	-4.24771000E-02
					 7.28260000E-02	 0.00000000E+00	-1.54368000E-02
					 6.54769000E-02	 0.00000000E+00	-4.24771000E-02
					 1.01766000E-01	 0.00000000E+00	-2.47857000E-02
					 9.16567000E-02	 0.00000000E+00	-5.56896000E-02
					 1.01766000E-01	 0.00000000E+00	-2.47857000E-02
					 9.16567000E-02	 0.00000000E+00	-5.56896000E-02
					 1.34335000E-01	 0.00000000E+00	-3.68969000E-02
					 1.21383000E-01	 0.00000000E+00	-7.10865000E-02
					 1.34335000E-01	 0.00000000E+00	-3.68969000E-02
					 1.21383000E-01	 0.00000000E+00	-7.10865000E-02
					 1.69965000E-01	 0.00000000E+00	-5.17731000E-02
					 1.54235000E-01	 0.00000000E+00	-8.86724000E-02
					 1.69965000E-01	 0.00000000E+00	-5.17731000E-02
					 1.54235000E-01	 0.00000000E+00	-8.86724000E-02
					 2.08104000E-01	 0.00000000E+00	-6.92909000E-02
					 1.89782000E-01	 0.00000000E+00	-1.08364000E-01
					 2.08104000E-01	 0.00000000E+00	-6.92909000E-02
					 1.89782000E-01	 0.00000000E+00	-1.08364000E-01
					 2.48229000E-01	 0.00000000E+00	-8.92236000E-02
					 2.27602000E-01	 0.00000000E+00	-1.29990000E-01
					 2.48229000E-01	 0.00000000E+00	-8.92236000E-02
					 2.27602000E-01	 0.00000000E+00	-1.29990000E-01
					 2.89865000E-01	 0.00000000E+00	-1.11251000E-01
					 2.67283000E-01	 0.00000000E+00	-1.53298000E-01
					 2.89865000E-01	 0.00000000E+00	-1.11251000E-01
					 2.67283000E-01	 0.00000000E+00	-1.53298000E-01
					 3.32601000E-01	 0.00000000E+00	-1.34996000E-01
					 3.08429000E-01	 0.00000000E+00	-1.77989000E-01
					 3.32601000E-01	 0.00000000E+00	-1.34996000E-01
					 3.08429000E-01	 0.00000000E+00	-1.77989000E-01
					 3.76116000E-01	 0.00000000E+00	-1.60088000E-01
					 3.50679000E-01	 0.00000000E+00	-2.03780000E-01
					 3.76116000E-01	 0.00000000E+00	-1.60088000E-01
					 3.50679000E-01	 0.00000000E+00	-2.03780000E-01
					 4.20198000E-01	 0.00000000E+00	-1.86238000E-01
					 3.93739000E-01	 0.00000000E+00	-2.30464000E-01
					 4.20198000E-01	 0.00000000E+00	-1.86238000E-01
					 3.93739000E-01	 0.00000000E+00	-2.30464000E-01
					 4.64736000E-01	 0.00000000E+00	-2.13278000E-01
					 4.37425000E-01	 0.00000000E+00	-2.57925000E-01
					 4.64736000E-01	 0.00000000E+00	-2.13278000E-01
					 4.37425000E-01	 0.00000000E+00	-2.57925000E-01
					 5.09659000E-01	 0.00000000E+00	-2.41097000E-01
					 4.81652000E-01	 0.00000000E+00	-2.86067000E-01
					 5.09659000E-01	 0.00000000E+00	-2.41097000E-01
					 4.81652000E-01	 0.00000000E+00	-2.86067000E-01
					 5.54875000E-01	 0.00000000E+00	-2.69536000E-01
					 5.26358000E-01	 0.00000000E+00	-3.14725000E-01
					 5.54875000E-01	 0.00000000E+00	-2.69536000E-01
					 5.26358000E-01	 0.00000000E+00	-3.14725000E-01
					 6.00262000E-01	 0.00000000E+00	-2.98365000E-01
					 5.71439000E-01	 0.00000000E+00	-3.43675000E-01
					 6.00262000E-01	 0.00000000E+00	-2.98365000E-01
					 5.71439000E-01	 0.00000000E+00	-3.43675000E-01
					 6.45705000E-01	 0.00000000E+00	-3.27356000E-01
					 6.16744000E-01	 0.00000000E+00	-3.72715000E-01
					 6.45705000E-01	 0.00000000E+00	-3.27356000E-01
					 6.16744000E-01	 0.00000000E+00	-3.72715000E-01
					 6.91132000E-01	 0.00000000E+00	-3.56359000E-01
					 6.62123000E-01	 0.00000000E+00	-4.01742000E-01
					 6.91132000E-01	 0.00000000E+00	-3.56359000E-01
					 6.62123000E-01	 0.00000000E+00	-4.01742000E-01
					 0.00000000E+00	 0.00000000E+00	 0.00000000E+00
					 4.57646000E-03	 0.00000000E+00	 5.69541000E-03
					 0.00000000E+00	 0.00000000E+00	 0.00000000E+00
					 4.57646000E-03	 0.00000000E+00	 5.69541000E-03
					 1.51328000E-02	 0.00000000E+00	 1.02664000E-02
					 1.51328000E-02	 0.00000000E+00	 1.02664000E-02
					 3.18339000E-02	 0.00000000E+00	 1.29648000E-02
					 3.18339000E-02	 0.00000000E+00	 1.29648000E-02
					 5.40372000E-02	 0.00000000E+00	 1.33230000E-02
					 5.40372000E-02	 0.00000000E+00	 1.33230000E-02
					 8.12120000E-02	 0.00000000E+00	 1.09075000E-02
					 8.12120000E-02	 0.00000000E+00	 1.09075000E-02
					 1.12767000E-01	 0.00000000E+00	 5.37941000E-03
					 1.12767000E-01	 0.00000000E+00	 5.37941000E-03
					 1.48026000E-01	 0.00000000E+00	-3.44348000E-03
					 1.48026000E-01	 0.00000000E+00	-3.44348000E-03
					 1.86295000E-01	 0.00000000E+00	-1.55738000E-02
					 1.86295000E-01	 0.00000000E+00	-1.55738000E-02
					 2.26895000E-01	 0.00000000E+00	-3.08552000E-02
					 2.26895000E-01	 0.00000000E+00	-3.08552000E-02
					 2.69211000E-01	 0.00000000E+00	-4.90121000E-02
					 2.69211000E-01	 0.00000000E+00	-4.90121000E-02
					 3.12708000E-01	 0.00000000E+00	-6.96635000E-02
					 3.12708000E-01	 0.00000000E+00	-6.96635000E-02
					 3.56964000E-01	 0.00000000E+00	-9.23709000E-02
					 3.56964000E-01	 0.00000000E+00	-9.23709000E-02
					 4.01698000E-01	 0.00000000E+00	-1.16688000E-01
					 4.01698000E-01	 0.00000000E+00	-1.16688000E-01
					 4.46774000E-01	 0.00000000E+00	-1.42251000E-01
					 4.46774000E-01	 0.00000000E+00	-1.42251000E-01
					 4.92141000E-01	 0.00000000E+00	-1.68829000E-01
					 4.92141000E-01	 0.00000000E+00	-1.68829000E-01
					 5.37735000E-01	 0.00000000E+00	-1.96282000E-01
					 5.37735000E-01	 0.00000000E+00	-1.96282000E-01
					 5.83434000E-01	 0.00000000E+00	-2.24452000E-01
					 5.83434000E-01	 0.00000000E+00	-2.24452000E-01
					 6.29105000E-01	 0.00000000E+00	-2.53111000E-01
					 6.29105000E-01	 0.00000000E+00	-2.53111000E-01
					 6.74668000E-01	 0.00000000E+00	-2.82020000E-01
					 6.74668000E-01	 0.00000000E+00	-2.82020000E-01
					 7.20116000E-01	 0.00000000E+00	-3.10997000E-01
					 7.20116000E-01	 0.00000000E+00	-3.10997000E-01
				</DataArray>
				<DataArray type="Float32" Name="S" NumberOfComponents="10" ComponentName0="xx" ComponentName1="yy" ComponentName2="zz" ComponentName3="xy" ComponentName4="yz" ComponentName5="zx" ComponentName6="Mises" ComponentName7="Min Principal" ComponentName8="Mid Principal" ComponentName9="Max Principal" format="ascii">
					-4.50356000E+03	-4.81400000E+03	-1.51241000E+04	 0.00000000E+00	 0.00000000E+00	 2.36672000E+03	 1.12427440E+04	-1.56276352E+04	-4.81400000E+03	-4.00002479E+03
					-4.11253000E+01	-2.63271000E+02	-1.86517000E+03	 0.00000000E+00	 0.00000000E+00	 2.94912000E+03	 5.39103055E+03	-4.04007064E+03	-2.63271000E+02	 2.13377534E+03
					-2.14618000E+02	-3.16397000E+02	-1.74404000E+03	 1.37123000E-08	 2.77199000E-09	-2.88352000E+01	 1.48199932E+03	-1.74458346E+03	-3.16397000E+02	-2.14074544E+02
					-2.26381000E+03	-4.00364000E+03	-1.40751000E+04	 2.04749000E-08	-2.64381000E-09	-1.10926000E+03	 1.12105003E+04	-1.41783734E+04	-4.00364000E+03	-2.16053658E+03
					-4.50356000E+03	-4.81400000E+03	-1.51241000E+04	 0.00000000E+00	 0.00000000E+00	 2.36672000E+03	 1.12427440E+04	-1.56276352E+04	-4.81400000E+03	-4.00002479E+03
					-4.11253000E+01	-2.63271000E+02	-1.86517000E+03	 0.00000000E+00	 0.00000000E+00	 2.94912000E+03	 5.39103055E+03	-4.04007064E+03	-2.63271000E+02	 2.13377534E+03
					-2.14618000E+02	-3.16397000E+02	-1.74404000E+03	 1.37125000E-08	 2.77204000E-09	-2.88352000E+01	 1.48199932E+03	-1.74458346E+03	-3.16397000E+02	-2.14074544E+02
					-2.26381000E+03	-4.00364000E+03	-1.40751000E+04	 2.04748000E-08	-2.64395000E-09	-1.10926000E+03	 1.12105003E+04	-1.41783734E+04	-4.00364000E+03	-2.16053658E+03
					-2.69122000E+02	-2.64455000E+02	-1.49235000E+03	 4.57280000E-08	-7.02747000E-09	 8.80443000E+00	 1.22566304E+03	-1.49241337E+03	-2.69058632E+02	-2.64455000E+02
					-3.16917000E+03	-3.90699000E+03	-1.30307000E+04	 3.24487000E-08	-2.24854000E-08	-2.47530000E+03	 1.04354899E+04	-1.36171402E+04	-3.90699000E+03	-2.58272977E+03
					-2.69122000E+02	-2.64455000E+02	-1.49235000E+03	 4.57279000E-08	-7.02773000E-09	 8.80443000E+00	 1.22566304E+03	-1.49241337E+03	-2.69058632E+02	-2.64455000E+02
					-3.16917000E+03	-3.90699000E+03	-1.30307000E+04	 3.24485000E-08	-2.24855000E-08	-2.47530000E+03	 1.04354899E+04	-1.36171402E+04	-3.90699000E+03	-2.58272977E+03
					-2.44712000E+02	-2.30506000E+02	-1.27663000E+03	 6.89652000E-08	-4.98696000E-09	-1.55589000E+02	 1.07347092E+03	-1.29957881E+03	-2.30506000E+02	-2.21763191E+02
					-3.44243000E+03	-3.58249000E+03	-1.16034000E+04	 7.40729000E-08	-5.13311000E-09	-3.33305000E+03	 9.94010511E+03	-1.27916511E+04	-3.58249000E+03	-2.25417890E+03
					-2.44712000E+02	-2.30506000E+02	-1.27663000E+03	 6.89657000E-08	-4.98704000E-09	-1.55589000E+02	 1.07347092E+03	-1.29957881E+03	-2.30506000E+02	-2.21763191E+02
					-3.44243000E+03	-3.58249000E+03	-1.16034000E+04	 7.40734000E-08	-5.13303000E-09	-3.33305000E+03	 9.94010511E+03	-1.27916511E+04	-3.58249000E+03	-2.25417890E+03
					-2.44145000E+02	-2.01866000E+02	-1.09442000E+03	 4.83280000E-08	 5.80673000E-09	-2.09353000E+02	 9.44558046E+02	-1.14317128E+03	-2.01866000E+02	-1.95393723E+02
					-4.02367000E+03	-3.37195000E+03	-1.02793000E+04	 5.05268000E-08	 1.16755000E-08	-3.93544000E+03	 9.49197708E+03	-1.21785035E+04	-3.37195000E+03	-2.12446653E+03
					-2.44145000E+02	-2.01866000E+02	-1.09442000E+03	 4.83267000E-08	 5.80737000E-09	-2.09353000E+02	 9.44558046E+02	-1.14317128E+03	-2.01866000E+02	-1.95393723E+02
					-4.02367000E+03	-3.37195000E+03	-1.02793000E+04	 5.05278000E-08	 1.16762000E-08	-3.93544000E+03	 9.49197708E+03	-1.21785035E+04	-3.37195000E+03	-2.12446653E+03
					-2.00339000E+02	-1.68137000E+02	-9.28177000E+02	 4.36650000E-08	-1.78946000E-09	-2.10491000E+02	 8.28940496E+02	-9.84666729E+02	-1.68137000E+02	-1.43849271E+02
					-4.55029000E+03	-3.14275000E+03	-8.92527000E+03	 5.65923000E-08	-6.93597000E-09	-4.23518000E+03	 9.00498901E+03	-1.15045254E+04	-3.14275000E+03	-1.97103456E+03
					-2.00339000E+02	-1.68137000E+02	-9.28177000E+02	 4.36665000E-08	-1.78912000E-09	-2.10491000E+02	 8.28940496E+02	-9.84666729E+02	-1.68137000E+02	-1.43849271E+02
					-4.55029000E+03	-3.14275000E+03	-8.92527000E+03	 5.65947000E-08	-6.93775000E-09	-4.23518000E+03	 9.00498901E+03	-1.15045254E+04	-3.14275000E+03	-1.97103456E+03
					-1.02285000E+02	-1.26428000E+02	-7.76127000E+02	 3.86298000E-08	-7.94435000E-09	-1.70804000E+02	 7.25189201E+02	-8.16948990E+02	-1.26428000E+02	-6.14630098E+01
					-4.92441000E+03	-2.86790000E+03	-7.53720000E+03	 5.34947000E-08	-2.01197000E-09	-4.24086000E+03	 8.38950620E+03	-1.06683225E+04	-2.86790000E+03	-1.79328751E+03
					-1.02285000E+02	-1.26428000E+02	-7.76127000E+02	 3.86306000E-08	-7.94508000E-09	-1.70804000E+02	 7.25189201E+02	-8.16948990E+02	-1.26428000E+02	-6.14630098E+01
					-4.92441000E+03	-2.86790000E+03	-7.53720000E+03	 5.34949000E-08	-2.01122000E-09	-4.24086000E+03	 8.38950620E+03	-1.06683225E+04	-2.86790000E+03	-1.79328751E+03
					 4.44724000E+01	-7.55327000E+01	-6.25051000E+02	 1.01928000E-08	 3.29363000E-09	-1.14458000E+02	 6.49321558E+02	-6.44077414E+02	-7.55327000E+01	 6.34988139E+01
					-5.05881000E+03	-2.54534000E+03	-6.17785000E+03	 1.97913000E-08	 1.34613000E-08	-3.99151000E+03	 7.62751019E+03	-9.64886529E+03	-2.54534000E+03	-1.58779471E+03
					 4.44724000E+01	-7.55327000E+01	-6.25051000E+02	 1.01906000E-08	 3.29378000E-09	-1.14458000E+02	 6.49321558E+02	-6.44077414E+02	-7.55327000E+01	 6.34988139E+01
					-5.05881000E+03	-2.54534000E+03	-6.17785000E+03	 1.97954000E-08	 1.34580000E-08	-3.99151000E+03	 7.62751019E+03	-9.64886529E+03	-2.54534000E+03	-1.58779471E+03
					 2.05969000E+02	-2.64666000E+01	-4.96266000E+02	-3.39668000E-08	 2.61388000E-08	-5.36738000E+01	 6.26560867E+02	-5.00344749E+02	-2.64666000E+01	 2.10047749E+02
					-4.93227000E+03	-2.19674000E+03	-4.93448000E+03	-3.25640000E-08	 3.77104000E-08	-3.56291000E+03	 6.75071535E+03	-8.49628517E+03	-2.19674000E+03	-1.37046483E+03
					 2.05969000E+02	-2.64666000E+01	-4.96266000E+02	-3.39628000E-08	 2.61372000E-08	-5.36738000E+01	 6.26560867E+02	-5.00344749E+02	-2.64666000E+01	 2.10047749E+02
					-4.93227000E+03	-2.19674000E+03	-4.93448000E+03	-3.25655000E-08	 3.77127000E-08	-3.56291000E+03	 6.75071535E+03	-8.49628517E+03	-2.19674000E+03	-1.37046483E+03
					 3.59036000E+02	 1.52344000E+01	-3.98288000E+02	-3.20391000E-08	 1.49591000E-08	-9.82986000E+00	 6.57008262E+02	-3.98415567E+02	 1.52344000E+01	 3.59163567E+02
					-4.56148000E+03	-1.84176000E+03	-3.85753000E+03	-5.67192000E-08	-2.02228000E-09	-3.03843000E+03	 5.80293427E+03	-7.26825364E+03	-1.84176000E+03	-1.15075636E+03
					 3.59036000E+02	 1.52344000E+01	-3.98288000E+02	-3.20448000E-08	 1.49567000E-08	-9.82986000E+00	 6.57008262E+02	-3.98415567E+02	 1.52344000E+01	 3.59163567E+02
					-4.56148000E+03	-1.84176000E+03	-3.85753000E+03	-5.67189000E-08	-2.02110000E-09	-3.03843000E+03	 5.80293427E+03	-7.26825364E+03	-1.84176000E+03	-1.15075636E+03
					 4.68643000E+02	 4.45056000E+01	-3.25403000E+02	-2.51958000E-08	-1.27089000E-08	 7.79489000E+00	 6.88330777E+02	-3.25479513E+02	 4.45056000E+01	 4.68719513E+02
					-3.99775000E+03	-1.49445000E+03	-2.95129000E+03	-6.70450000E-08	-5.01768000E-08	-2.48911000E+03	 4.83000951E+03	-6.01802904E+03	-1.49445000E+03	-9.31010962E+02
					 4.68643000E+02	 4.45056000E+01	-3.25403000E+02	-2.52083000E-08	-1.27135000E-08	 7.79489000E+00	 6.88330777E+02	-3.25479513E+02	 4.45056000E+01	 4.68719513E+02
					-3.99775000E+03	-1.49445000E+03	-2.95129000E+03	-6.70500000E-08	-5.01730000E-08	-2.48911000E+03	 4.83000951E+03	-6.01802904E+03	-1.49445000E+03	-9.31010962E+02
					 5.09199000E+02	 6.02381000E+01	-2.59768000E+02	 1.33919000E-08	-9.57002000E-08	 6.54375000E+00	 6.69155051E+02	-2.59823682E+02	 6.02381000E+01	 5.09254682E+02
					-3.33978000E+03	-1.17527000E+03	-2.21161000E+03	-2.21029000E-08	-1.28196000E-07	-1.96806000E+03	 3.89046480E+03	-4.82299860E+03	-1.17527000E+03	-7.28391395E+02
					 5.09199000E+02	 6.02381000E+01	-2.59768000E+02	 1.33880000E-08	-9.56982000E-08	 6.54375000E+00	 6.69155051E+02	-2.59823682E+02	 6.02381000E+01	 5.09254682E+02
					-3.33978000E+03	-1.17527000E+03	-2.21161000E+03	-2.20915000E-08	-1.28194000E-07	-1.96806000E+03	 3.89046480E+03	-4.82299860E+03	-1.17527000E+03	-7.28391395E+02
					 4.77923000E+02	 6.35767000E+01	-1.92979000E+02	 1.41671000E-08	-1.13331000E-07	 4.00598000E+00	 5.86391279E+02	-1.93002919E+02	 6.35767000E+01	 4.77946919E+02
					-2.70630000E+03	-9.05908000E+02	-1.63025000E+03	 3.33682000E-08	-1.06128000E-07	-1.51849000E+03	 3.06258368E+03	-3.77926314E+03	-9.05908000E+02	-5.57286862E+02
					 4.77923000E+02	 6.35767000E+01	-1.92979000E+02	 1.41740000E-08	-1.13329000E-07	 4.00598000E+00	 5.86391279E+02	-1.93002919E+02	 6.35767000E+01	 4.77946919E+02
					-2.70630000E+03	-9.05908000E+02	-1.63025000E+03	 3.33801000E-08	-1.06127000E-07	-1.51849000E+03	 3.06258368E+03	-3.77926314E+03	-9.05908000E+02	-5.57286862E+02
					 4.05513000E+02	 5.99937000E+01	-1.26544000E+02	-2.38132000E-08	-4.29198000E-08	 9.23755000E+00	 4.67854970E+02	-1.26704334E+02	 5.99937000E+01	 4.05673334E+02
					-2.19626000E+03	-7.03013000E+02	-1.20310000E+03	 1.45707000E-08	-2.12040000E-08	-1.16761000E+03	 2.41310164E+03	-2.96850024E+03	-7.03013000E+02	-4.30859757E+02
					 4.05513000E+02	 5.99937000E+01	-1.26544000E+02	-2.38050000E-08	-4.29091000E-08	 9.23755000E+00	 4.67854970E+02	-1.26704334E+02	 5.99937000E+01	 4.05673334E+02
					-2.19626000E+03	-7.03013000E+02	-1.20310000E+03	 1.45489000E-08	-2.12236000E-08	-1.16761000E+03	 2.41310164E+03	-2.96850024E+03	-7.03013000E+02	-4.30859757E+02
					 3.39682000E+02	 5.45982000E+01	-7.98078000E+01	-4.82651000E-08	-8.82883000E-09	 1.61597000E+01	 3.72072744E+02	-8.04293873E+01	 5.45982000E+01	 3.40303587E+02
					-1.82019000E+03	-5.61326000E+02	-9.12331000E+02	-1.37550000E-08	 3.05217000E-09	-9.18428000E+02	 1.94848800E+03	-2.39074182E+03	-5.61326000E+02	-3.41779177E+02
					 3.39682000E+02	 5.45982000E+01	-7.98078000E+01	-4.82658000E-08	-8.83213000E-09	 1.61597000E+01	 3.72072744E+02	-8.04293873E+01	 5.45982000E+01	 3.40303587E+02
					-1.82019000E+03	-5.61326000E+02	-9.12331000E+02	-1.37453000E-08	 3.05961000E-09	-9.18428000E+02	 1.94848800E+03	-2.39074182E+03	-5.61326000E+02	-3.41779177E+02
					 3.12591000E+02	 5.05210000E+01	-6.74684000E+01	-6.69225000E-08	-6.86853000E-09	 1.14048000E+01	 3.37511294E+02	-6.78103269E+01	 5.05210000E+01	 3.12932927E+02
					-1.49028000E+03	-4.51354000E+02	-7.17674000E+02	-3.15964000E-08	 1.73462000E-09	-7.35064000E+02	 1.57941890E+03	-1.93436793E+03	-4.51354000E+02	-2.73586073E+02
					 3.12591000E+02	 5.05210000E+01	-6.74684000E+01	-6.69141000E-08	-6.86742000E-09	 1.14048000E+01	 3.37511294E+02	-6.78103269E+01	 5.05210000E+01	 3.12932927E+02
					-1.49028000E+03	-4.51354000E+02	-7.17674000E+02	-3.15974000E-08	 1.73357000E-09	-7.35064000E+02	 1.57941890E+03	-1.93436793E+03	-4.51354000E+02	-2.73586073E+02
					 3.12968000E+02	 4.80786000E+01	-7.61314000E+01	-8.39047000E-08	 1.65269000E-08	-5.31688000E+00	 3.44356267E+02	-7.62040394E+01	 4.80786000E+01	 3.13040639E+02
					-1.10498000E+03	-3.37285000E+02	-5.53482000E+02	-5.77385000E-08	 2.89901000E-08	-5.65803000E+02	 1.19604452E+03	-1.45865180E+03	-3.37285000E+02	-1.99810198E+02
					 3.12968000E+02	 4.80786000E+01	-7.61314000E+01	-8.39061000E-08	 1.65159000E-08	-5.31688000E+00	 3.44356267E+02	-7.62040394E+01	 4.80786000E+01	 3.13040639E+02
					-1.10498000E+03	-3.37285000E+02	-5.53482000E+02	-5.77364000E-08	 2.89764000E-08	-5.65803000E+02	 1.19604452E+03	-1.45865180E+03	-3.37285000E+02	-1.99810198E+02
					 3.00634000E+02	 4.48402000E+01	-7.76106000E+01	-9.89986000E-08	 3.52833000E-08	-1.77432000E+01	 3.35695227E+02	-7.84410981E+01	 4.48402000E+01	 3.01464498E+02
					-6.67716000E+02	-2.12593000E+02	-3.83790000E+02	-7.42619000E-08	 3.10678000E-08	-3.82396000E+02	 7.72793484E+02	-9.33650284E+02	-2.12593000E+02	-1.17855716E+02
					 3.00634000E+02	 4.48402000E+01	-7.76106000E+01	-9.89872000E-08	 3.52759000E-08	-1.77432000E+01	 3.35695227E+02	-7.84410981E+01	 4.48402000E+01	 3.01464498E+02
					-6.67716000E+02	-2.12593000E+02	-3.83790000E+02	-7.42383000E-08	 3.10830000E-08	-3.82396000E+02	 7.72793484E+02	-9.33650284E+02	-2.12593000E+02	-1.17855716E+02
					 2.50584000E+02	 3.89139000E+01	-5.60300000E+01	-9.60933000E-08	 5.09559000E-08	-1.45370000E+01	 2.73037238E+02	-5.67176772E+01	 3.89139000E+01	 2.51271677E+02
					-2.80312000E+02	-9.93548000E+01	-2.13799000E+02	-8.32862000E-08	 6.36597000E-08	-2.04634000E+02	 3.88276581E+02	-4.54374261E+02	-9.93548000E+01	-3.97367388E+01
					 2.50584000E+02	 3.89139000E+01	-5.60300000E+01	-9.60550000E-08	 5.09685000E-08	-1.45370000E+01	 2.73037238E+02	-5.67176772E+01	 3.89139000E+01	 2.51271677E+02
					-2.80312000E+02	-9.93548000E+01	-2.13799000E+02	-8.32663000E-08	 6.36538000E-08	-2.04634000E+02	 3.88276581E+02	-4.54374261E+02	-9.93548000E+01	-3.97367388E+01
					 1.68814000E+02	 2.97169000E+01	-2.00043000E+01	-8.40584000E-08	 8.47778000E-08	 4.68746000E+00	 1.69712087E+02	-2.01205957E+01	 2.97169000E+01	 1.68930296E+02
					-5.89047000E+01	-2.97911000E+01	-8.98491000E+01	-7.96279000E-08	 9.77782000E-08	-7.27409000E+01	 1.36307652E+02	-1.48745089E+02	-2.97911000E+01	-8.71119827E-03
					 1.68814000E+02	 2.97169000E+01	-2.00043000E+01	-8.41201000E-08	 8.47725000E-08	 4.68746000E+00	 1.69712087E+02	-2.01205957E+01	 2.97169000E+01	 1.68930296E+02
					-5.89047000E+01	-2.97911000E+01	-8.98491000E+01	-7.96124000E-08	 9.77553000E-08	-7.27409000E+01	 1.36307652E+02	-1.48745089E+02	-2.97911000E+01	-8.71119827E-03
					 1.23980000E+02	 2.86121000E+01	 1.92879000E+01	-7.05628000E-08	 1.01209000E-07	 1.73575000E+01	 1.04761896E+02	 1.64851354E+01	 2.86121000E+01	 1.26782765E+02
					-7.20336000E+00	-4.48485000E+00	-1.52754000E+01	-7.67786000E-08	 9.37640000E-08	-1.80275000E+01	 3.27026653E+01	-2.97131510E+01	-4.48485000E+00	 7.23439097E+00
					 1.23980000E+02	 2.86121000E+01	 1.92879000E+01	-7.05109000E-08	 1.01234000E-07	 1.73575000E+01	 1.04761896E+02	 1.64851354E+01	 2.86121000E+01	 1.26782765E+02
					-7.20336000E+00	-4.48485000E+00	-1.52754000E+01	-7.68181000E-08	 9.37557000E-08	-1.80275000E+01	 3.27026653E+01	-2.97131510E+01	-4.48485000E+00	 7.23439097E+00
					 4.43795000E+03	 3.72313000E+03	 1.75953000E+04	 0.00000000E+00	 0.00000000E+00	 5.91079000E+03	 1.69659741E+04	 2.17262120E+03	 3.72313000E+03	 1.98606288E+04
					 1.67996000E+03	 3.04456000E+03	 1.63008000E+04	 1.58771000E-08	 2.63578000E-08	 2.52522000E+03	 1.46563879E+04	 1.25610714E+03	 3.04456000E+03	 1.67246529E+04
					 4.43795000E+03	 3.72313000E+03	 1.75953000E+04	 0.00000000E+00	 0.00000000E+00	 5.91079000E+03	 1.69659741E+04	 2.17262120E+03	 3.72313000E+03	 1.98606288E+04