<?xml version="1.0"?>
<VTKFile type="UnstructuredGrid" version="0.1" byte_order="LittleEndian">
	<UnstructuredGrid>
		<Piece NumberOfPoints="126" NumberOfCells="40">
			<Points>
				<DataArray type="Float64" NumberOfComponents="3" format="ascii">
					 5.00000000E-02	 0.00000000E+00	 0.00000000E+00
					 0.00000000E+00	 0.00000000E+00	 0.00000000E+00
					 0.00000000E+00	 0.00000000E+00	 5.00000000E-02
					 5.00000000E-02	 0.00000000E+00	 5.00000000E-02
					 5.00000000E-02	 3.00000000E-01	 0.00000000E+00
					 0.00000000E+00	 3.00000000E-01	 0.00000000E+00
					 0.00000000E+00	 3.00000000E-01	 5.00000000E-02
					 5.00000000E-02	 3.00000000E-01	 5.00000000E-02
					 0.00000000E+00	 0.00000000E+00	 1.00000000E-01
					 5.00000000E-02	 0.00000000E+00	 1.00000000E-01
					 0.00000000E+00	 3.00000000E-01	 1.00000000E-01
					 5.00000000E-02	 3.00000000E-01	 1.00000000E-01
					 0.00000000E+00	 0.00000000E+00	 1.50000000E-01
					 5.00000000E-02	 0.00000000E+00	 1.50000000E-01
					 0.00000000E+00	 3.00000000E-01	 1.50000000E-01
					 5.00000000E-02	 3.00000000E-01	 1.50000000E-01
					 0.00000000E+00	 0.00000000E+00	 2.00000000E-01
					 5.00000000E-02	 0.00000000E+00	 2.00000000E-01
					 0.00000000E+00	 3.00000000E-01	 2.00000000E-01
					 5.00000000E-02	 3.00000000E-01	 2.00000000E-01
					 0.00000000E+00	 0.00000000E+00	 2.50000000E-01
					 5.00000000E-02	 0.00000000E+00	 2.50000000E-01
					 0.00000000E+00	 3.00000000E-01	 2.50000000E-01
					 5.00000000E-02	 3.00000000E-01	 2.50000000E-01
					 0.00000000E+00	 0.00000000E+00	 3.00000000E-01
					 5.00000000E-02	 0.00000000E+00	 3.00000000E-01
					 0.00000000E+00	 3.00000000E-01	 3.00000000E-01
					 5.00000000E-02	 3.00000000E-01	 3.00000000E-01
					 0.00000000E+00	 0.00000000E+00	 3.50000000E-01
					 5.00000000E-02	 0.00000000E+00	 3.50000000E-01
					 0.00000000E+00	 3.00000000E-01	 3.50000000E-01
					 5.00000000E-02	 3.00000000E-01	 3.50000000E-01
					 0.00000000E+00	 0.00000000E+00	 4.00000000E-01
					 5.00000000E-02	 0.00000000E+00	 4.00000000E-01
					 0.00000000E+00	 3.00000000E-01	 4.00000000E-01
					 5.00000000E-02	 3.00000000E-01	 4.00000000E-01
					 0.00000000E+00	 0.00000000E+00	 4.50000000E-01
					 5.00000000E-02	 0.00000000E+00	 4.50000000E-01
					 0.00000000E+00	 3.00000000E-01	 4.50000000E-01
					 5.00000000E-02	 3.00000000E-01	 4.50000000E-01
					 0.00000000E+00	 0.00000000E+00	 5.00000000E-01
					 5.00000000E-02	 0.00000000E+00	 5.00000000E-01
					 0.00000000E+00	 3.00000000E-01	 5.00000000E-01
					 5.00000000E-02	 3.00000000E-01	 5.00000000E-01
					 0.00000000E+00	 0.00000000E+00	 5.50000000E-01
					 5.00000000E-02	 0.00000000E+00	 5.50000000E-01
					 0.00000000E+00	 3.00000000E-01	 5.50000000E-01
					 5.00000000E-02	 3.00000000E-01	 5.50000000E-01
					 0.00000000E+00	 0.00000000E+00	 6.00000000E-01
					 5.00000000E-02	 0.00000000E+00	 6.00000000E-01
					 0.00000000E+00	 3.00000000E-01	 6.00000000E-01
					 5.00000000E-02	 3.00000000E-01	 6.00000000E-01
					 0.00000000E+00	 0.00000000E+00	 6.50000000E-01
					 5.00000000E-02	 0.00000000E+00	 6.50000000E-01
					 0.00000000E+00	 3.00000000E-01	 6.50000000E-01
					 5.00000000E-02	 3.00000000E-01	 6.50000000E-01
					 0.00000000E+00	 0.00000000E+00	 7.00000000E-01
					 5.00000000E-02	 0.00000000E+00	 7.00000000E-01
					 0.00000000E+00	 3.00000000E-01	 7.00000000E-01
					 5.00000000E-02	 3.00000000E-01	 7.00000000E-01
					 0.00000000E+00	 0.00000000E+00	 7.50000000E-01
					 5.00000000E-02	 0.00000000E+00	 7.50000000E-01
					 0.00000000E+00	 3.00000000E-01	 7.50000000E-01
					 5.00000000E-02	 3.00000000E-01	 7.50000000E-01
					 0.00000000E+00	 0.00000000E+00	 8.00000000E-01
					 5.00000000E-02	 0.00000000E+00	 8.00000000E-01
					 0.00000000E+00	 3.00000000E-01	 8.00000000E-01
					 5.00000000E-02	 3.00000000E-01	 8.00000000E-01
					 0.00000000E+00	 0.00000000E+00	 8.50000000E-01
					 5.00000000E-02	 0.00000000E+00	 8.50000000E-01
					 0.00000000E+00	 3.00000000E-01	 8.50000000E-01
					 5.00000000E-02	 3.00000000E-01	 8.50000000E-01
					 0.00000000E+00	 0.00000000E+00	 9.00000000E-01
					 5.00000000E-02	 0.00000000E+00	 9.00000000E-01
					 0.00000000E+00	 3.00000000E-01	 9.00000000E-01
					 5.00000000E-02	 3.00000000E-01	 9.00000000E-01
					 0.00000000E+00	 0.00000000E+00	 9.50000000E-01
					 5.00000000E-02	 0.00000000E+00	 9.50000000E-01
					 0.00000000E+00	 3.00000000E-01	 9.50000000E-01
					 5.00000000E-02	 3.00000000E-01	 9.50000000E-01
					 0.00000000E+00	 0.00000000E+00	 1.00000000E+00
					 5.00000000E-02	 0.00000000E+00	 1.00000000E+00
					 0.00000000E+00	 3.00000000E-01	 1.00000000E+00
					 5.00000000E-02	 3.00000000E-01	 1.00000000E+00
					-5.00000000E-02	 0.00000000E+00	 0.00000000E+00
					-5.00000000E-02	 0.00000000E+00	 5.00000000E-02
					-5.00000000E-02	 3.00000000E-01	 0.00000000E+00
					-5.00000000E-02	 3.00000000E-01	 5.00000000E-02
					-5.00000000E-02	 0.00000000E+00	 1.00000000E-01
					-5.00000000E-02	 3.00000000E-01	 1.00000000E-01
					-5.00000000E-02	 0.00000000E+00	 1.50000000E-01
					-5.00000000E-02	 3.00000000E-01	 1.50000000E-01
					-5.00000000E-02	 0.00000000E+00	 2.00000000E-01
					-5.00000000E-02	 3.00000000E-01	 2.00000000E-01
					-5.00000000E-02	 0.00000000E+00	 2.50000000E-01
					-5.00000000E-02	 3.00000000E-01	 2.50000000E-01
					-5.00000000E-02	 0.00000000E+00	 3.00000000E-01
					-5.00000000E-02	 3.00000000E-01	 3.00000000E-01
					-5.00000000E-02	 0.00000000E+00	 3.50000000E-01
					-5.00000000E-02	 3.00000000E-01	 3.50000000E-01
					-5.00000000E-02	 0.00000000E+00	 4.00000000E-01
					-5.00000000E-02	 3.00000000E-01	 4.00000000E-01
					-5.00000000E-02	 0.00000000E+00	 4.50000000E-01
					-5.00000000E-02	 3.00000000E-01	 4.50000000E-01
					-5.00000000E-02	 0.00000000E+00	 5.00000000E-01
					-5.00000000E-02	 3.00000000E-01	 5.00000000E-01
					-5.00000000E-02	 0.00000000E+00	 5.50000000E-01
					-5.00000000E-02	 3.00000000E-01	 5.50000000E-01
					-5.00000000E-02	 0.00000000E+00	 6.00000000E-01
					-5.00000000E-02	 3.00000000E-01	 6.00000000E-01
					-5.00000000E-02	 0.00000000E+00	 6.50000000E-01
					-5.00000000E-02	 3.00000000E-01	 6.50000000E-01
					-5.00000000E-02	 0.00000000E+00	 7.00000000E-01
					-5.00000000E-02	 3.00000000E-01	 7.00000000E-01
					-5.00000000E-02	 0.00000000E+00	 7.50000000E-01
					-5.00000000E-02	 3.00000000E-01	 7.50000000E-01
					-5.00000000E-02	 0.00000000E+00	 8.00000000E-01
					-5.00000000E-02	 3.00000000E-01	 8.00000000E-01
					-5.00000000E-02	 0.00000000E+00	 8.50000000E-01
					-5.00000000E-02	 3.00000000E-01	 8.50000000E-01
					-5.00000000E-02	 0.00000000E+00	 9.00000000E-01
					-5.00000000E-02	 3.00000000E-01	 9.00000000E-01
					-5.00000000E-02	 0.00000000E+00	 9.50000000E-01
					-5.00000000E-02	 3.00000000E-01	 9.50000000E-01
					-5.00000000E-02	 0.00000000E+00	 1.00000000E+00
					-5.00000000E-02	 3.00000000E-01	 1.00000000E+00

				</DataArray>
			</Points>
			<Cells>
				<DataArray type="Int32" Name="connectivity" format="ascii">
					0 1 2 3 4 5 6 7 3 2 8 9 7 6 10 11 9 8 12 13 11 10 14 15 13 12 16 17 15 14 18 19 17 16 20 21 19 18 22 23 21 20 24 25 23 22 26 27 25 24 28 29 27 26 30 31 29 28 32 33 31 30 34 35 33 32 36 37 35 34 38 39 37 36 40 41 39 38 42 43 41 40 44 45 43 42 46 47 45 44 48 49 47 46 50 51 49 48 52 53 51 50 54 55 53 52 56 57 55 54 58 59 57 56 60 61 59 58 62 63 61 60 64 65 63 62 66 67 65 64 68 69 67 66 70 71 69 68 72 73 71 70 74 75 73 72 76 77 75 74 78 79 77 76 80 81 79 78 82 83 1 84 85 2 5 86 87 6 2 85 88 8 6 87 89 10 8 88 90 12 10 89 91 14 12 90 92 16 14 91 93 18 16 92 94 20 18 93 95 22 20 94 96 24 22 95 97 26 24 96 98 28 26 97 99 30 28 98 100 32 30 99 101 34 32 100 102 36 34 101 103 38 36 102 104 40 38 103 105 42 40 104 106 44 42 105 107 46 44 106 108 48 46 107 109 50 48 108 110 52 50 109 111 54 52 110 112 56 54 111 113 58 56 112 114 60 58 113 115 62 60 114 116 64 62 115 117 66 64 116 118 68 66 117 119 70 68 118 120 72 70 119 121 74 72 120 122 76 74 121 123 78 76 122 124 80 78 123 125 82 
				</DataArray>
				<DataArray type="Int32" Name="offsets" format="ascii">
					8 16 24 32 40 48 56 64 72 80 88 96 104 112 120 128 136 144 152 160 168 176 184 192 200 208 216 224 232 240 248 256 264 272 280 288 296 304 312 320 
				</DataArray>
				<DataArray type="UInt8" Name="types" format="ascii">
					12 12 12 12 12 12 12 12 12 12 12 12 12 12 12 12 12 12 12 12 12 12 12 12 12 12 12 12 12 12 12 12 12 12 12 12 12 12 12 12 
				</DataArray>
			</Cells>
			<PointData>
				<DataArray type="Float32" Name="U" NumberOfComponents="3" ComponentName0="D1" ComponentName1="D2" ComponentName2="D3" format="ascii">
					 0.00000000E+00	 0.00000000E+00	 0.00000000E+00
					 0.00000000E+00	 0.00000000E+00	 0.00000000E+00
					 6.42663000E-04	 0.00000000E+00	-2.84183000E-06
					 7.24434000E-04	 0.00000000E+00	-5.37730000E-04
					 0.00000000E+00	 0.00000000E+00	 0.00000000E+00
					 0.00000000E+00	 0.00000000E+00	 0.00000000E+00
					 6.42663000E-04	 0.00000000E+00	-2.84183000E-06
					 7.24434000E-04	 0.00000000E+00	-5.37730000E-04
					 1.59117000E-03	 0.00000000E+00	-4.51842000E-07
					 1.59875000E-03	 0.00000000E+00	-7.12900000E-04
					 1.59117000E-03	 0.00000000E+00	-4.51842000E-07
					 1.59875000E-03	 0.00000000E+00	-7.12900000E-04
					 2.44975000E-03	 0.00000000E+00	 3.96482000E-06
					 2.43966000E-03	 0.00000000E+00	-6.40601000E-04
					 2.44975000E-03	 0.00000000E+00	 3.96482000E-06
					 2.43966000E-03	 0.00000000E+00	-6.40601000E-04
					 3.07119000E-03	 0.00000000E+00	 8.97608000E-06
					 3.05536000E-03	 0.00000000E+00	-4.41110000E-04
					 3.07119000E-03	 0.00000000E+00	 8.97608000E-06
					 3.05536000E-03	 0.00000000E+00	-4.41110000E-04
					 3.40300000E-03	 0.00000000E+00	 2.28052000E-05
					 3.38652000E-03	 0.00000000E+00	-2.07265000E-04
					 3.40300000E-03	 0.00000000E+00	 2.28052000E-05
					 3.38652000E-03	 0.00000000E+00	-2.07265000E-04
					 3.47599000E-03	 0.00000000E+00	 4.74106000E-05
					 3.47580000E-03	 0.00000000E+00	-1.52910000E-05
					 3.47599000E-03	 0.00000000E+00	 4.74106000E-05
					 3.47580000E-03	 0.00000000E+00	-1.52910000E-05
					 3.40666000E-03	 0.00000000E+00	 8.57245000E-05
					 3.41126000E-03	 0.00000000E+00	 9.10467000E-05
					 3.40666000E-03	 0.00000000E+00	 8.57245000E-05
					 3.41126000E-03	 0.00000000E+00	 9.10467000E-05
					 3.35879000E-03	 0.00000000E+00	 1.52427000E-04
					 3.36423000E-03	 0.00000000E+00	 1.39768000E-04
					 3.35879000E-03	 0.00000000E+00	 1.52427000E-04
					 3.36423000E-03	 0.00000000E+00	 1.39768000E-04
					 3.40065000E-03	 0.00000000E+00	 2.66795000E-04
					 3.39113000E-03	 0.00000000E+00	 2.11552000E-04
					 3.40065000E-03	 0.00000000E+00	 2.66795000E-04
					 3.39113000E-03	 0.00000000E+00	 2.11552000E-04
					 3.48689000E-03	 0.00000000E+00	 4.37478000E-04
					 3.46989000E-03	 0.00000000E+00	 3.49593000E-04
					 3.48689000E-03	 0.00000000E+00	 4.37478000E-04
					 3.46989000E-03	 0.00000000E+00	 3.49593000E-04
					 3.58697000E-03	 0.00000000E+00	 6.45775000E-04
					 3.56029000E-03	 0.00000000E+00	 5.22632000E-04
					 3.58697000E-03	 0.00000000E+00	 6.45775000E-04
					 3.56029000E-03	 0.00000000E+00	 5.22632000E-04
					 3.72450000E-03	 0.00000000E+00	 8.41472000E-04
					 3.71328000E-03	 0.00000000E+00	 6.74831000E-04
					 3.72450000E-03	 0.00000000E+00	 8.41472000E-04
					 3.71328000E-03	 0.00000000E+00	 6.74831000E-04
					 3.90745000E-03	 0.00000000E+00	 9.76077000E-04
					 3.92075000E-03	 0.00000000E+00	 7.88440000E-04
					 3.90745000E-03	 0.00000000E+00	 9.76077000E-04
					 3.92075000E-03	 0.00000000E+00	 7.88440000E-04
					 4.08910000E-03	 0.00000000E+00	 1.06464000E-03
					 4.12154000E-03	 0.00000000E+00	 8.97791000E-04
					 4.08910000E-03	 0.00000000E+00	 1.06464000E-03
					 4.12154000E-03	 0.00000000E+00	 8.97791000E-04
					 4.24606000E-03	 0.00000000E+00	 1.17110000E-03
					 4.25023000E-03	 0.00000000E+00	 1.03086000E-03
					 4.24606000E-03	 0.00000000E+00	 1.17110000E-03
					 4.25023000E-03	 0.00000000E+00	 1.03086000E-03
					 4.36749000E-03	 0.00000000E+00	 1.28250000E-03
					 4.38169000E-03	 0.00000000E+00	 1.15211000E-03
					 4.36749000E-03	 0.00000000E+00	 1.28250000E-03
					 4.38169000E-03	 0.00000000E+00	 1.15211000E-03
					 4.44980000E-03	 0.00000000E+00	 1.36490000E-03
					 4.50020000E-03	 0.00000000E+00	 1.26130000E-03
					 4.44980000E-03	 0.00000000E+00	 1.36490000E-03
					 4.50020000E-03	 0.00000000E+00	 1.26130000E-03
					 4.50745000E-03	 0.00000000E+00	 1.45955000E-03
					 4.55795000E-03	 0.00000000E+00	 1.39873000E-03
					 4.50745000E-03	 0.00000000E+00	 1.45955000E-03
					 4.55795000E-03	 0.00000000E+00	 1.39873000E-03
					 4.52919000E-03	 0.00000000E+00	 1.53431000E-03
					 4.58921000E-03	 0.00000000E+00	 1.48999000E-03
					 4.52919000E-03	 0.00000000E+00	 1.53431000E-03
					 4.58921000E-03	 0.00000000E+00	 1.48999000E-03
					 4.56734000E-03	 0.00000000E+00	 1.63302000E-03
					 4.63420000E-03	 0.00000000E+00	 1.51904000E-03
					 4.56734000E-03	 0.00000000E+00	 1.63302000E-03
					 4.63420000E-03	 0.00000000E+00	 1.51904000E-03
					 0.00000000E+00	 0.00000000E+00	 0.00000000E+00
					 7.48428000E-04	 0.00000000E+00	 5.37712000E-04
					 0.00000000E+00	 0.00000000E+00	 0.00000000E+00
					 7.48428000E-04	 0.00000000E+00	 5.37712000E-04
					 1.63898000E-03	 0.00000000E+00	 7.15585000E-04
					 1.63898000E-03	 0.00000000E+00	 7.15585000E-04
					 2.47178000E-03	 0.00000000E+00	 6.46039000E-04
					 2.47178000E-03	 0.00000000E+00	 6.46039000E-04
					 3.08175000E-03	 0.00000000E+00	 4.59212000E-04
					 3.08175000E-03	 0.00000000E+00	 4.59212000E-04
					 3.41550000E-03	 0.00000000E+00	 2.53513000E-04
					 3.41550000E-03	 0.00000000E+00	 2.53513000E-04
					 3.50537000E-03	 0.00000000E+00	 1.10034000E-04
					 3.50537000E-03	 0.00000000E+00	 1.10034000E-04
					 3.44603000E-03	 0.00000000E+00	 8.37114000E-05
					 3.44603000E-03	 0.00000000E+00	 8.37114000E-05
					 3.41511000E-03	 0.00000000E+00	 1.73430000E-04
					 3.41511000E-03	 0.00000000E+00	 1.73430000E-04
					 3.46854000E-03	 0.00000000E+00	 3.32966000E-04
					 3.46854000E-03	 0.00000000E+00	 3.32966000E-04
					 3.57250000E-03	 0.00000000E+00	 5.32356000E-04
					 3.57250000E-03	 0.00000000E+00	 5.32356000E-04
					 3.67217000E-03	 0.00000000E+00	 7.60871000E-04
					 3.67217000E-03	 0.00000000E+00	 7.60871000E-04
					 3.79737000E-03	 0.00000000E+00	 9.78032000E-04
					 3.79737000E-03	 0.00000000E+00	 9.78032000E-04
					 3.94775000E-03	 0.00000000E+00	 1.12997000E-03
					 3.94775000E-03	 0.00000000E+00	 1.12997000E-03
					 4.11850000E-03	 0.00000000E+00	 1.22886000E-03
					 4.11850000E-03	 0.00000000E+00	 1.22886000E-03
					 4.28695000E-03	 0.00000000E+00	 1.31186000E-03
					 4.28695000E-03	 0.00000000E+00	 1.31186000E-03
					 4.40067000E-03	 0.00000000E+00	 1.35966000E-03
					 4.40067000E-03	 0.00000000E+00	 1.35966000E-03
					 4.44790000E-03	 0.00000000E+00	 1.41033000E-03
					 4.44790000E-03	 0.00000000E+00	 1.41033000E-03
					 4.51871000E-03	 0.00000000E+00	 1.50857000E-03
					 4.51871000E-03	 0.00000000E+00	 1.50857000E-03
					 4.52464000E-03	 0.00000000E+00	 1.57326000E-03
					 4.52464000E-03	 0.00000000E+00	 1.57326000E-03
					 4.52676000E-03	 0.00000000E+00	 1.61843000E-03
					 4.52676000E-03	 0.00000000E+00	 1.61843000E-03
				</DataArray>
				<DataArray type="Float32" Name="S" NumberOfComponents="10" ComponentName0="xx" ComponentName1="yy" ComponentName2="zz" ComponentName3="xy" ComponentName4="yz" ComponentName5="zx" ComponentName6="Mises" ComponentName7="Min Principal" ComponentName8="Mid Principal" ComponentName9="Max Principal" format="ascii">
					-3.37072000E+02	-3.56887000E+02	-1.40302000E+03	 0.00000000E+00	 0.00000000E+00	 7.04696000E+02	 1.61409584E+03	-1.75359438E+03	-3.56887000E+02	 1.35023785E+01
					 1.62274000E+01	 8.58968000E-01	-2.69988000E+00	 0.00000000E+00	 0.00000000E+00	 6.42535000E+02	 1.11303963E+03	-6.35840929E+02	 8.58968000E-01	 6.49368449E+02
					-1.08797000E+01	-1.90336000E+00	 1.82400000E+00	 2.52658000E-08	 8.93914000E-09	 2.57917000E+02	 4.46868507E+02	-2.62523053E+02	-1.90336000E+00	 2.53467353E+02
					 1.11285000E+00	-1.77189000E+02	-8.72165000E+02	 5.33214000E-09	-2.39025000E-08	 2.56627000E+02	 9.14478512E+02	-9.41995193E+02	-1.77189000E+02	 7.09430435E+01
					-3.37072000E+02	-3.56887000E+02	-1.40302000E+03	 0.00000000E+00	 0.00000000E+00	 7.04696000E+02	 1.61409584E+03	-1.75359438E+03	-3.56887000E+02	 1.35023785E+01
					 1.62274000E+01	 8.58968000E-01	-2.69988000E+00	 0.00000000E+00	 0.00000000E+00	 6.42535000E+02	 1.11303963E+03	-6.35840929E+02	 8.58968000E-01	 6.49368449E+02
					-1.08797000E+01	-1.90336000E+00	 1.82400000E+00	 2.52657000E-08	 8.93914000E-09	 2.57917000E+02	 4.46868507E+02	-2.62523053E+02	-1.90336000E+00	 2.53467353E+02
					 1.11285000E+00	-1.77189000E+02	-8.72165000E+02	 5.33216000E-09	-2.39025000E-08	 2.56627000E+02	 9.14478512E+02	-9.41995193E+02	-1.77189000E+02	 7.09430435E+01
					-2.54120000E+01	-2.28581000E+00	 1.50992000E+01	 5.68249000E-08	-4.63856000E-09	 1.89606000E+02	 3.30288380E+02	-1.95841283E+02	-2.28581000E+00	 1.85528483E+02
					 9.14889000E+00	-2.10456000E+01	-1.12203000E+02	 4.22134000E-08	 0.00000000E+00	 1.43805000E+02	 2.72054157E+02	-2.07608599E+02	-2.10456000E+01	 1.04554489E+02
					-2.54120000E+01	-2.28581000E+00	 1.50992000E+01	 5.68249000E-08	-4.63856000E-09	 1.89606000E+02	 3.30288380E+02	-1.95841283E+02	-2.28581000E+00	 1.85528483E+02
					 9.14889000E+00	-2.10456000E+01	-1.12203000E+02	 4.22133000E-08	 0.00000000E+00	 1.43805000E+02	 2.72054157E+02	-2.07608599E+02	-2.10456000E+01	 1.04554489E+02
					-2.15450000E+01	-1.06134000E+00	 1.66713000E+01	 3.77169000E-08	-3.23866000E-09	 9.69558000E+01	 1.71168156E+02	-1.01257640E+02	-1.06134000E+00	 9.63839401E+01
					 8.11117000E+01	 9.01086000E+01	 3.72187000E+02	-1.89376000E-08	 1.89187000E-08	 8.58766000E+01	 3.22972708E+02	 5.76641495E+01	 9.01086000E+01	 3.95634551E+02
					-2.15450000E+01	-1.06134000E+00	 1.66713000E+01	 3.77169000E-08	-3.23867000E-09	 9.69558000E+01	 1.71168156E+02	-1.01257640E+02	-1.06134000E+00	 9.63839401E+01
					 8.11117000E+01	 9.01086000E+01	 3.72187000E+02	-1.89377000E-08	 1.89187000E-08	 8.58766000E+01	 3.22972708E+02	 5.76641495E+01	 9.01086000E+01	 3.95634551E+02
					-2.06416000E+01	 4.88057000E-01	 2.29238000E+01	 3.29006000E-08	 9.73949000E-09	 2.66380000E+01	 5.96039735E+01	-3.32692046E+01	 4.88057000E-01	 3.55514046E+01
					 1.10166000E+02	 1.36618000E+02	 5.77700000E+02	 1.42302000E-08	 2.80453000E-09	 2.56002000E+01	 4.57041192E+02	 1.08768418E+02	 1.36618000E+02	 5.79097582E+02
					-2.06416000E+01	 4.88057000E-01	 2.29238000E+01	 3.29006000E-08	 9.73950000E-09	 2.66380000E+01	 5.96039735E+01	-3.32692046E+01	 4.88057000E-01	 3.55514046E+01
					 1.10166000E+02	 1.36618000E+02	 5.77700000E+02	 1.42303000E-08	 2.80453000E-09	 2.56002000E+01	 4.57041192E+02	 1.08768418E+02	 1.36618000E+02	 5.79097582E+02
					-2.36861000E+01	 3.89420000E+00	 4.29713000E+01	 2.84244000E-08	 1.20575000E-09	-2.78838000E+01	 7.54848974E+01	-3.38120723E+01	 3.89420000E+00	 5.30972723E+01
					 9.99463000E+01	 1.31480000E+02	 5.61872000E+02	 4.62570000E-09	 2.06515000E-09	-1.88877000E+01	 4.48189397E+02	 9.91752869E+01	 1.31480000E+02	 5.62643013E+02
					-2.36861000E+01	 3.89420000E+00	 4.29713000E+01	 2.84243000E-08	 1.20575000E-09	-2.78838000E+01	 7.54848974E+01	-3.38120723E+01	 3.89420000E+00	 5.30972723E+01
					 9.99463000E+01	 1.31480000E+02	 5.61872000E+02	 4.62579000E-09	 2.06515000E-09	-1.88877000E+01	 4.48189397E+02	 9.91752869E+01	 1.31480000E+02	 5.62643013E+02
					-1.81354000E+01	 1.11767000E+01	 7.40994000E+01	-6.06273000E-09	 5.42687000E-09	-6.08645000E+01	 1.33327881E+02	-4.83809619E+01	 1.11767000E+01	 1.04344962E+02
					 9.90692000E+01	 9.92151000E+01	 3.99510000E+02	-2.10366000E-08	 1.31611000E-08	-5.03918000E+01	 3.12792042E+02	 9.08424414E+01	 9.92151000E+01	 4.07736759E+02
					-1.81354000E+01	 1.11767000E+01	 7.40994000E+01	-6.06256000E-09	 5.42686000E-09	-6.08645000E+01	 1.33327881E+02	-4.83809619E+01	 1.11767000E+01	 1.04344962E+02
					 9.90692000E+01	 9.92151000E+01	 3.99510000E+02	-2.10366000E-08	 1.31611000E-08	-5.03918000E+01	 3.12792042E+02	 9.08424414E+01	 9.92151000E+01	 4.07736759E+02
					-1.11316000E+01	 2.34366000E+01	 1.28729000E+02	-4.48751000E-08	 2.84039000E-09	-5.50434000E+01	 1.58147230E+02	-3.01958096E+01	 2.34366000E+01	 1.47793210E+02
					 6.40189000E+01	 5.47166000E+01	 2.10360000E+02	-5.05756000E-08	-1.06227000E-09	-5.06972000E+01	 1.74854732E+02	 4.81718367E+01	 5.47166000E+01	 2.26207063E+02
					-1.11316000E+01	 2.34366000E+01	 1.28729000E+02	-4.48752000E-08	 2.84039000E-09	-5.50434000E+01	 1.58147230E+02	-3.01958096E+01	 2.34366000E+01	 1.47793210E+02
					 6.40189000E+01	 5.47166000E+01	 2.10360000E+02	-5.05756000E-08	-1.06227000E-09	-5.06972000E+01	 1.74854732E+02	 4.81718367E+01	 5.47166000E+01	 2.26207063E+02
					-7.22025000E+00	 4.34041000E+01	 2.25288000E+02	-1.25798000E-08	-1.02772000E-08	-1.98197000E+01	 2.14547882E+02	-8.89763940E+00	 4.34041000E+01	 2.26965389E+02
					 5.47089000E+01	 4.37700000E+01	 1.64610000E+02	-2.21705000E-08	-1.85708000E-08	-2.27687000E+01	 1.22292067E+02	 4.37700000E+01	 5.01785569E+01	 1.69140343E+02
					-7.22025000E+00	 4.34041000E+01	 2.25288000E+02	-1.25798000E-08	-1.02772000E-08	-1.98197000E+01	 2.14547882E+02	-8.89763940E+00	 4.34041000E+01	 2.26965389E+02
					 5.47089000E+01	 4.37700000E+01	 1.64610000E+02	-2.21705000E-08	-1.85708000E-08	-2.27687000E+01	 1.22292067E+02	 4.37700000E+01	 5.01785569E+01	 1.69140343E+02
					-7.77919000E+00	 6.92574000E+01	 3.56258000E+02	 7.83809000E-09	 0.00000000E+00	 3.61463000E+00	 3.32344287E+02	-7.81507716E+00	 6.92574000E+01	 3.56293887E+02
					 4.46454000E+01	 6.35828000E+01	 2.74506000E+02	-8.18605000E-09	-2.62385000E-08	-2.26300000E+00	 2.21036020E+02	 4.46231227E+01	 6.35828000E+01	 2.74528277E+02
					-7.77919000E+00	 6.92574000E+01	 3.56258000E+02	 7.83822000E-09	 0.00000000E+00	 3.61463000E+00	 3.32344287E+02	-7.81507716E+00	 6.92574000E+01	 3.56293887E+02
					 4.46454000E+01	 6.35828000E+01	 2.74506000E+02	-8.18611000E-09	-2.62385000E-08	-2.26300000E+00	 2.21036020E+02	 4.46231227E+01	 6.35828000E+01	 2.74528277E+02
					-9.75215000E+00	 9.22258000E+01	 4.74621000E+02	 2.87016000E-08	 0.00000000E+00	 2.24523000E+00	 4.42308256E+02	-9.76255716E+00	 9.22258000E+01	 4.74631407E+02
					 5.85703000E+01	 9.23626000E+01	 4.05721000E+02	 2.96379000E-08	-2.75088000E-08	-3.02587000E+00	 3.31590071E+02	 5.85439276E+01	 9.23626000E+01	 4.05747372E+02
					-9.75215000E+00	 9.22258000E+01	 4.74621000E+02	 2.87015000E-08	 0.00000000E+00	 2.24523000E+00	 4.42308256E+02	-9.76255716E+00	 9.22258000E+01	 4.74631407E+02
					 5.85703000E+01	 9.23626000E+01	 4.05721000E+02	 2.96379000E-08	-2.75088000E-08	-3.02587000E+00	 3.31590071E+02	 5.85439276E+01	 9.23626000E+01	 4.05747372E+02
					-1.35294000E+01	 9.75611000E+01	 5.05511000E+02	 6.23870000E-08	-5.37931000E-09	 2.94445000E-01	 4.73374945E+02	-1.35295670E+01	 9.75611000E+01	 5.05511167E+02
					 3.78480000E+01	 9.07613000E+01	 4.18639000E+02	 4.72245000E-08	 0.00000000E+00	-1.00526000E+00	 3.57289415E+02	 3.78453462E+01	 9.07613000E+01	 4.18641654E+02
					-1.35294000E+01	 9.75611000E+01	 5.05511000E+02	 6.23870000E-08	-5.37930000E-09	 2.94445000E-01	 4.73374945E+02	-1.35295670E+01	 9.75611000E+01	 5.05511167E+02
					 3.78480000E+01	 9.07613000E+01	 4.18639000E+02	 4.72244000E-08	 0.00000000E+00	-1.00526000E+00	 3.57289415E+02	 3.78453462E+01	 9.07613000E+01	 4.18641654E+02
					-8.66949000E-01	 8.23727000E+01	 4.15670000E+02	 2.83502000E-08	-1.72158000E-09	 9.28027000E+00	 3.82122820E+02	-1.07360703E+00	 8.23727000E+01	 4.15876658E+02
					 5.96935000E+01	 8.14402000E+01	 3.49373000E+02	 1.95130000E-08	 3.24004000E-08	 1.41461000E+01	 2.80513627E+02	 5.90043342E+01	 8.14402000E+01	 3.50062166E+02
					-8.66949000E-01	 8.23727000E+01	 4.15670000E+02	 2.83502000E-08	-1.72160000E-09	 9.28027000E+00	 3.82122820E+02	-1.07360703E+00	 8.23727000E+01	 4.15876658E+02
					 5.96935000E+01	 8.14402000E+01	 3.49373000E+02	 1.95128000E-08	 3.24004000E-08	 1.41461000E+01	 2.80513627E+02	 5.90043342E+01	 8.14402000E+01	 3.50062166E+02
					 3.95121000E+01	 6.57510000E+01	 2.90648000E+02	-3.47233000E-08	 1.58567000E-09	 1.20039000E+01	 2.40000982E+02	 3.89396374E+01	 6.57510000E+01	 2.91220463E+02
					 1.11003000E+02	 8.35729000E+01	 3.08286000E+02	-6.31722000E-08	 2.17086000E-08	 1.69683000E+01	 2.14355440E+02	 8.35729000E+01	 1.09554197E+02	 3.09734803E+02
					 3.95121000E+01	 6.57510000E+01	 2.90648000E+02	-3.47233000E-08	 1.58570000E-09	 1.20039000E+01	 2.40000982E+02	 3.89396374E+01	 6.57510000E+01	 2.91220463E+02
					 1.11003000E+02	 8.35729000E+01	 3.08286000E+02	-6.31720000E-08	 2.17085000E-08	 1.69683000E+01	 2.14355440E+02	 8.35729000E+01	 1.09554197E+02	 3.09734803E+02
					 7.00049000E+01	 6.63172000E+01	 2.62708000E+02	-4.64154000E-08	-1.18515000E-09	 4.10767000E+00	 1.94703195E+02	 6.63172000E+01	 6.99173804E+01	 2.62795520E+02
					 1.68075000E+02	 1.02588000E+02	 3.46800000E+02	-2.46348000E-09	 8.50606000E-09	-1.84472000E+00	 2.18964714E+02	 1.02588000E+02	 1.68055962E+02	 3.46819038E+02
					 7.00049000E+01	 6.63172000E+01	 2.62708000E+02	-4.64152000E-08	-1.18514000E-09	 4.10767000E+00	 1.94703195E+02	 6.63172000E+01	 6.99173804E+01	 2.62795520E+02
					 1.68075000E+02	 1.02588000E+02	 3.46800000E+02	-2.46370000E-09	 8.50602000E-09	-1.84472000E+00	 2.18964714E+02	 1.02588000E+02	 1.68055962E+02	 3.46819038E+02
					 2.43796000E+01	 6.06079000E+01	 2.79888000E+02	-4.60649000E-08	-3.68035000E-09	-9.57316000E-01	 2.39464291E+02	 2.43760133E+01	 6.06079000E+01	 2.79891587E+02
					 9.63317000E+01	 8.76685000E+01	 3.43759000E+02	-2.28062000E-08	 1.04401000E-09	-9.89044000E+00	 2.52452559E+02	 8.76685000E+01	 9.59369780E+01	 3.44153722E+02
					 2.43796000E+01	 6.06079000E+01	 2.79888000E+02	-4.60650000E-08	-3.68030000E-09	-9.57316000E-01	 2.39464291E+02	 2.43760133E+01	 6.06079000E+01	 2.79891587E+02
					 9.63317000E+01	 8.76685000E+01	 3.43759000E+02	-2.28059000E-08	 1.04394000E-09	-9.89044000E+00	 2.52452559E+02	 8.76685000E+01	 9.59369780E+01	 3.44153722E+02
					 3.96717000E+01	 5.83731000E+01	 2.53233000E+02	-5.74965000E-08	-5.15413000E-09	-1.72611000E+00	 2.04873654E+02	 3.96577496E+01	 5.83731000E+01	 2.53246950E+02
					 1.15041000E+02	 8.63573000E+01	 3.18255000E+02	-2.90589000E-08	-9.12245000E-09	-5.18337000E+00	 2.19153407E+02	 8.63573000E+01	 1.14908874E+02	 3.18387126E+02
					 3.96717000E+01	 5.83731000E+01	 2.53233000E+02	-5.74965000E-08	-5.15414000E-09	-1.72611000E+00	 2.04873654E+02	 3.96577496E+01	 5.83731000E+01	 2.53246950E+02
					 1.15041000E+02	 8.63573000E+01	 3.18255000E+02	-2.90589000E-08	-9.12240000E-09	-5.18337000E+00	 2.19153407E+02	 8.63573000E+01	 1.14908874E+02	 3.18387126E+02
					 1.28893000E+02	 7.64044000E+01	 2.54231000E+02	-3.04926000E-08	-1.53102000E-08	-4.52155000E+00	 1.58444996E+02	 7.64044000E+01	 1.28730097E+02	 2.54393903E+02
					 2.16775000E+02	 1.15652000E+02	 3.63734000E+02	-2.46811000E-08	-1.45151000E-08	-1.54806000E+01	 2.17721590E+02	 1.15652000E+02	 2.15161984E+02	 3.65347016E+02
					 1.28893000E+02	 7.64044000E+01	 2.54231000E+02	-3.04926000E-08	-1.53101000E-08	-4.52155000E+00	 1.58444996E+02	 7.64044000E+01	 1.28730097E+02	 2.54393903E+02
					 2.16775000E+02	 1.15652000E+02	 3.63734000E+02	-2.46813000E-08	-1.45151000E-08	-1.54806000E+01	 2.17721590E+02	 1.15652000E+02	 2.15161984E+02	 3.65347016E+02
					 1.08862000E+02	 6.94784000E+01	 2.39545000E+02	-2.67445000E-08	 0.00000000E+00	-1.52269000E+01	 1.56433554E+02	 6.94784000E+01	 1.07111249E+02	 2.41295751E+02
					 2.10877000E+02	 1.09677000E+02	 3.39528000E+02	-6.08975000E-08	-1.43292000E-08	-1.63462000E+01	 2.01528151E+02	 1.09677000E+02	 2.08832566E+02	 3.41572434E+02
					 1.08862000E+02	 6.94784000E+01	 2.39545000E+02	-2.67446000E-08	 0.00000000E+00	-1.52269000E+01	 1.56433554E+02	 6.94784000E+01	 1.07111249E+02	 2.41295751E+02
					 2.10877000E+02	 1.09677000E+02	 3.39528000E+02	-6.08972000E-08	-1.43292000E-08	-1.63462000E+01	 2.01528151E+02	 1.09677000E+02	 2.08832566E+02	 3.41572434E+02
					 1.43925000E+02	 7.92256000E+01	 2.53311000E+02	-8.83226000E-09	 1.67355000E-09	-1.17160000E+01	 1.53754063E+02	 7.92256000E+01	 1.42684210E+02	 2.54551790E+02
					 2.00302000E+02	 7.99840000E+01	 2.00622000E+02	-6.97785000E-09	 1.44194000E-08	-6.22889000E+00	 1.20960417E+02	 7.99840000E+01	 1.94231055E+02	 2.06692945E+02
					 1.43925000E+02	 7.92256000E+01	 2.53311000E+02	-8.83214000E-09	 1.67361000E-09	-1.17160000E+01	 1.53754063E+02	 7.92256000E+01	 1.42684210E+02	 2.54551790E+02
					 2.00302000E+02	 7.99840000E+01	 2.00622000E+02	-6.97816000E-09	 1.44195000E-08	-6.22889000E+00	 1.20960417E+02	 7.99840000E+01	 1.94231055E+02	 2.06692945E+02
					 2.09159000E+02	 1.01444000E+02	 2.99768000E+02	-6.69578000E-08	-1.86388000E-08	-1.16453000E+01	 1.73145313E+02	 1.01444000E+02	 2.07686254E+02	 3.01240746E+02
					 1.98159000E+02	 6.39510000E+01	 1.22339000E+02	-5.51697000E-08	 4.66639000E-08	-6.93279000E+01	 1.67343605E+02	 6.39510000E+01	 8.12330154E+01	 2.39264985E+02
					 2.09159000E+02	 1.01444000E+02	 2.99768000E+02	-6.69580000E-08	-1.86388000E-08	-1.16453000E+01	 1.73145313E+02	 1.01444000E+02	 2.07686254E+02	 3.01240746E+02
					 1.98159000E+02	 6.39510000E+01	 1.22339000E+02	-5.51690000E-08	 4.66638000E-08	-6.93279000E+01	 1.67343605E+02	 6.39510000E+01	 8.12330154E+01	 2.39264985E+02
					 3.81540000E+02	 3.60251000E+02	 1.46590000E+03	 0.00000000E+00	 0.00000000E+00	 7.69157000E+02	 1.72458176E+03	-1.73228487E+01	 3.60251000E+02	 1.86476285E+03
					-2.13367000E+01	 1.74284000E+02	 9.08542000E+02	 1.97086000E-08	 1.66219000E-08	 2.87338000E+02	 9.84239662E+02	-1.02960910E+02	 1.74284000E+02	 9.90166210E+02
					 3.81540000E+02	 3.60251000E+02	 1.46590000E+03	 0.00000000E+00	 0.00000000E+00	 7.69157000E+02	 1.72458176E+03	-1.73228487E+01	 3.60251000E+02	 1.86476285E+03