<?xml version="1.0"?>
<VTKFile type="UnstructuredGrid" version="0.1" byte_order="LittleEndian">
	<UnstructuredGrid>
		<Piece NumberOfPoints="126" NumberOfCells="40">
			<Points>
				<DataArray type="Float64" NumberOfComponents="3" format="ascii">
					 5.00000000E-02	 0.00000000E+00	 0.00000000E+00
					 0.00000000E+00	 0.00000000E+00	 0.00000000E+00
					 0.00000000E+00	 0.00000000E+00	 5.00000000E-02
					 5.00000000E-02	 0.00000000E+00	 5.00000000E-02
					 5.00000000E-02	 3.00000000E-01	 0.00000000E+00
					 0.00000000E+00	 3.00000000E-01	 0.00000000E+00
					 0.00000000E+00	 3.00000000E-01	 5.00000000E-02
					 5.00000000E-02	 3.00000000E-01	 5.00000000E-02
					 0.00000000E+00	 0.00000000E+00	 1.00000000E-01
					 5.00000000E-02	 0.00000000E+00	 1.00000000E-01
					 0.00000000E+00	 3.00000000E-01	 1.00000000E-01
					 5.00000000E-02	 3.00000000E-01	 1.00000000E-01
					 0.00000000E+00	 0.00000000E+00	 1.50000000E-01
					 5.00000000E-02	 0.00000000E+00	 1.50000000E-01
					 0.00000000E+00	 3.00000000E-01	 1.50000000E-01
					 5.00000000E-02	 3.00000000E-01	 1.50000000E-01
					 0.00000000E+00	 0.00000000E+00	 2.00000000E-01
					 5.00000000E-02	 0.00000000E+00	 2.00000000E-01
					 0.00000000E+00	 3.00000000E-01	 2.00000000E-01
					 5.00000000E-02	 3.00000000E-01	 2.00000000E-01
					 0.00000000E+00	 0.00000000E+00	 2.50000000E-01
					 5.00000000E-02	 0.00000000E+00	 2.50000000E-01
					 0.00000000E+00	 3.00000000E-01	 2.50000000E-01
					 5.00000000E-02	 3.00000000E-01	 2.50000000E-01
					 0.00000000E+00	 0.00000000E+00	 3.00000000E-01
					 5.00000000E-02	 0.00000000E+00	 3.00000000E-01
					 0.00000000E+00	 3.00000000E-01	 3.00000000E-01
					 5.00000000E-02	 3.00000000E-01	 3.00000000E-01
					 0.00000000E+00	 0.00000000E+00	 3.50000000E-01
					 5.00000000E-02	 0.00000000E+00	 3.50000000E-01
					 0.00000000E+00	 3.00000000E-01	 3.50000000E-01
					 5.00000000E-02	 3.00000000E-01	 3.50000000E-01
					 0.00000000E+00	 0.00000000E+00	 4.00000000E-01
					 5.00000000E-02	 0.00000000E+00	 4.00000000E-01
					 0.00000000E+00	 3.00000000E-01	 4.00000000E-01
					 5.00000000E-02	 3.00000000E-01	 4.00000000E-01
					 0.00000000E+00	 0.00000000E+00	 4.50000000E-01
					 5.00000000E-02	 0.00000000E+00	 4.50000000E-01
					 0.00000000E+00	 3.00000000E-01	 4.50000000E-01
					 5.00000000E-02	 3.00000000E-01	 4.50000000E-01
					 0.00000000E+00	 0.00000000E+00	 5.00000000E-01
					 5.00000000E-02	 0.00000000E+00	 5.00000000E-01
					 0.00000000E+00	 3.00000000E-01	 5.00000000E-01
					 5.00000000E-02	 3.00000000E-01	 5.00000000E-01
					 0.00000000E+00	 0.00000000E+00	 5.50000000E-01
					 5.00000000E-02	 0.00000000E+00	 5.50000000E-01
					 0.00000000E+00	 3.00000000E-01	 5.50000000E-01
					 5.00000000E-02	 3.00000000E-01	 5.50000000E-01
					 0.00000000E+00	 0.00000000E+00	 6.00000000E-01
					 5.00000000E-02	 0.00000000E+00	 6.00000000E-01
					 0.00000000E+00	 3.00000000E-01	 6.00000000E-01
					 5.00000000E-02	 3.00000000E-01	 6.00000000E-01
					 0.00000000E+00	 0.00000000E+00	 6.50000000E-01
					 5.00000000E-02	 0.00000000E+00	 6.50000000E-01
					 0.00000000E+00	 3.00000000E-01	 6.50000000E-01
					 5.00000000E-02	 3.00000000E-01	 6.50000000E-01
					 0.00000000E+00	 0.00000000E+00	 7.00000000E-01
					 5.00000000E-02	 0.00000000E+00	 7.00000000E-01
					 0.00000000E+00	 3.00000000E-01	 7.00000000E-01
					 5.00000000E-02	 3.00000000E-01	 7.00000000E-01
					 0.00000000E+00	 0.00000000E+00	 7.50000000E-01
					 5.00000000E-02	 0.00000000E+00	 7.50000000E-01
					 0.00000000E+00	 3.00000000E-01	 7.50000000E-01
					 5.00000000E-02	 3.00000000E-01	 7.50000000E-01
					 0.00000000E+00	 0.00000000E+00	 8.00000000E-01
					 5.00000000E-02	 0.00000000E+00	 8.00000000E-01
					 0.00000000E+00	 3.00000000E-01	 8.00000000E-01
					 5.00000000E-02	 3.00000000E-01	 8.00000000E-01
					 0.00000000E+00	 0.00000000E+00	 8.50000000E-01
					 5.00000000E-02	 0.00000000E+00	 8.50000000E-01
					 0.00000000E+00	 3.00000000E-01	 8.50000000E-01
					 5.00000000E-02	 3.00000000E-01	 8.50000000E-01
					 0.00000000E+00	 0.00000000E+00	 9.00000000E-01
					 5.00000000E-02	 0.00000000E+00	 9.00000000E-01
					 0.00000000E+00	 3.00000000E-01	 9.00000000E-01
					 5.00000000E-02	 3.00000000E-01	 9.00000000E-01
					 0.00000000E+00	 0.00000000E+00	 9.50000000E-01
					 5.00000000E-02	 0.00000000E+00	 9.50000000E-01
					 0.00000000E+00	 3.00000000E-01	 9.50000000E-01
					 5.00000000E-02	 3.00000000E-01	 9.50000000E-01
					 0.00000000E+00	 0.00000000E+00	 1.00000000E+00
					 5.00000000E-02	 0.00000000E+00	 1.00000000E+00
					 0.00000000E+00	 3.00000000E-01	 1.00000000E+00
					 5.00000000E-02	 3.00000000E-01	 1.00000000E+00
					-5.00000000E-02	 0.00000000E+00	 0.00000000E+00
					-5.00000000E-02	 0.00000000E+00	 5.00000000E-02
					-5.00000000E-02	 3.00000000E-01	 0.00000000E+00
					-5.00000000E-02	 3.00000000E-01	 5.00000000E-02
					-5.00000000E-02	 0.00000000E+00	 1.00000000E-01
					-5.00000000E-02	 3.00000000E-01	 1.00000000E-01
					-5.00000000E-02	 0.00000000E+00	 1.50000000E-01
					-5.00000000E-02	 3.00000000E-01	 1.50000000E-01
					-5.00000000E-02	 0.00000000E+00	 2.00000000E-01
					-5.00000000E-02	 3.00000000E-01	 2.00000000E-01
					-5.00000000E-02	 0.00000000E+00	 2.50000000E-01
					-5.00000000E-02	 3.00000000E-01	 2.50000000E-01
					-5.00000000E-02	 0.00000000E+00	 3.00000000E-01
					-5.00000000E-02	 3.00000000E-01	 3.00000000E-01
					-5.00000000E-02	 0.00000000E+00	 3.50000000E-01
					-5.00000000E-02	 3.00000000E-01	 3.50000000E-01
					-5.00000000E-02	 0.00000000E+00	 4.00000000E-01
					-5.00000000E-02	 3.00000000E-01	 4.00000000E-01
					-5.00000000E-02	 0.00000000E+00	 4.50000000E-01
					-5.00000000E-02	 3.00000000E-01	 4.50000000E-01
					-5.00000000E-02	 0.00000000E+00	 5.00000000E-01
					-5.00000000E-02	 3.00000000E-01	 5.00000000E-01
					-5.00000000E-02	 0.00000000E+00	 5.50000000E-01
					-5.00000000E-02	 3.00000000E-01	 5.50000000E-01
					-5.00000000E-02	 0.00000000E+00	 6.00000000E-01
					-5.00000000E-02	 3.00000000E-01	 6.00000000E-01
					-5.00000000E-02	 0.00000000E+00	 6.50000000E-01
					-5.00000000E-02	 3.00000000E-01	 6.50000000E-01
					-5.00000000E-02	 0.00000000E+00	 7.00000000E-01
					-5.00000000E-02	 3.00000000E-01	 7.00000000E-01
					-5.00000000E-02	 0.00000000E+00	 7.50000000E-01
					-5.00000000E-02	 3.00000000E-01	 7.50000000E-01
					-5.00000000E-02	 0.00000000E+00	 8.00000000E-01
					-5.00000000E-02	 3.00000000E-01	 8.00000000E-01
					-5.00000000E-02	 0.00000000E+00	 8.50000000E-01
					-5.00000000E-02	 3.00000000E-01	 8.50000000E-01
					-5.00000000E-02	 0.00000000E+00	 9.00000000E-01
					-5.00000000E-02	 3.00000000E-01	 9.00000000E-01
					-5.00000000E-02	 0.00000000E+00	 9.50000000E-01
					-5.00000000E-02	 3.00000000E-01	 9.50000000E-01
					-5.00000000E-02	 0.00000000E+00	 1.00000000E+00
					-5.00000000E-02	 3.00000000E-01	 1.00000000E+00

				</DataArray>
			</Points>
			<Cells>
				<DataArray type="Int32" Name="connectivity" format="ascii">
					0 1 2 3 4 5 6 7 3 2 8 9 7 6 10 11 9 8 12 13 11 10 14 15 13 12 16 17 15 14 18 19 17 16 20 21 19 18 22 23 21 20 24 25 23 22 26 27 25 24 28 29 27 26 30 31 29 28 32 33 31 30 34 35 33 32 36 37 35 34 38 39 37 36 40 41 39 38 42 43 41 40 44 45 43 42 46 47 45 44 48 49 47 46 50 51 49 48 52 53 51 50 54 55 53 52 56 57 55 54 58 59 57 56 60 61 59 58 62 63 61 60 64 65 63 62 66 67 65 64 68 69 67 66 70 71 69 68 72 73 71 70 74 75 73 72 76 77 75 74 78 79 77 76 80 81 79 78 82 83 1 84 85 2 5 86 87 6 2 85 88 8 6 87 89 10 8 88 90 12 10 89 91 14 12 90 92 16 14 91 93 18 16 92 94 20 18 93 95 22 20 94 96 24 22 95 97 26 24 96 98 28 26 97 99 30 28 98 100 32 30 99 101 34 32 100 102 36 34 101 103 38 36 102 104 40 38 103 105 42 40 104 106 44 42 105 107 46 44 106 108 48 46 107 109 50 48 108 110 52 50 109 111 54 52 110 112 56 54 111 113 58 56 112 114 60 58 113 115 62 60 114 116 64 62 115 117 66 64 116 118 68 66 117 119 70 68 118 120 72 70 119 121 74 72 120 122 76 74 121 123 78 76 122 124 80 78 123 125 82 
				</DataArray>
				<DataArray type="Int32" Name="offsets" format="ascii">
					8 16 24 32 40 48 56 64 72 80 88 96 104 112 120 128 136 144 152 160 168 176 184 192 200 208 216 224 232 240 248 256 264 272 280 288 296 304 312 320 
				</DataArray>
				<DataArray type="UInt8" Name="types" format="ascii">
					12 12 12 12 12 12 12 12 12 12 12 12 12 12 12 12 12 12 12 12 12 12 12 12 12 12 12 12 12 12 12 12 12 12 12 12 12 12 12 12 
				</DataArray>
			</Cells>
			<PointData>
				<DataArray type="Float32" Name="U" NumberOfComponents="3" ComponentName0="D1" ComponentName1="D2" ComponentName2="D3" format="ascii">
					 0.00000000E+00	 0.00000000E+00	 0.00000000E+00
					 0.00000000E+00	 0.00000000E+00	 0.00000000E+00
					 3.73373000E-03	 0.00000000E+00	-1.24865000E-04
					 3.97539000E-03	 0.00000000E+00	-6.04112000E-03
					 0.00000000E+00	 0.00000000E+00	 0.00000000E+00
					 0.00000000E+00	 0.00000000E+00	 0.00000000E+00
					 3.73373000E-03	 0.00000000E+00	-1.24865000E-04
					 3.97539000E-03	 0.00000000E+00	-6.04112000E-03
					 1.32081000E-02	 0.00000000E+00	-7.27241000E-04
					 1.23134000E-02	 0.00000000E+00	-1.14462000E-02
					 1.32081000E-02	 0.00000000E+00	-7.27241000E-04
					 1.23134000E-02	 0.00000000E+00	-1.14462000E-02
					 2.65989000E-02	 0.00000000E+00	-2.17202000E-03
					 2.47110000E-02	 0.00000000E+00	-1.65566000E-02
					 2.65989000E-02	 0.00000000E+00	-2.17202000E-03
					 2.47110000E-02	 0.00000000E+00	-1.65566000E-02
					 4.31583000E-02	 0.00000000E+00	-4.53434000E-03
					 4.02471000E-02	 0.00000000E+00	-2.17264000E-02
					 4.31583000E-02	 0.00000000E+00	-4.53434000E-03
					 4.02471000E-02	 0.00000000E+00	-2.17264000E-02
					 6.21349000E-02	 0.00000000E+00	-7.76557000E-03
					 5.83239000E-02	 0.00000000E+00	-2.70655000E-02
					 6.21349000E-02	 0.00000000E+00	-7.76557000E-03
					 5.83239000E-02	 0.00000000E+00	-2.70655000E-02
					 8.28615000E-02	 0.00000000E+00	-1.17313000E-02
					 7.83093000E-02	 0.00000000E+00	-3.25638000E-02
					 8.28615000E-02	 0.00000000E+00	-1.17313000E-02
					 7.83093000E-02	 0.00000000E+00	-3.25638000E-02
					 1.04805000E-01	 0.00000000E+00	-1.62710000E-02
					 9.96918000E-02	 0.00000000E+00	-3.82155000E-02
					 1.04805000E-01	 0.00000000E+00	-1.62710000E-02
					 9.96918000E-02	 0.00000000E+00	-3.82155000E-02
					 1.27636000E-01	 0.00000000E+00	-2.12592000E-02
					 1.22085000E-01	 0.00000000E+00	-4.40089000E-02
					 1.27636000E-01	 0.00000000E+00	-2.12592000E-02
					 1.22085000E-01	 0.00000000E+00	-4.40089000E-02
					 1.51153000E-01	 0.00000000E+00	-2.65990000E-02
					 1.45269000E-01	 0.00000000E+00	-4.99168000E-02
					 1.51153000E-01	 0.00000000E+00	-2.65990000E-02
					 1.45269000E-01	 0.00000000E+00	-4.99168000E-02
					 1.75144000E-01	 0.00000000E+00	-3.21882000E-02
					 1.69032000E-01	 0.00000000E+00	-5.58519000E-02
					 1.75144000E-01	 0.00000000E+00	-3.21882000E-02
					 1.69032000E-01	 0.00000000E+00	-5.58519000E-02
					 1.99352000E-01	 0.00000000E+00	-3.79135000E-02
					 1.93148000E-01	 0.00000000E+00	-6.17258000E-02
					 1.99352000E-01	 0.00000000E+00	-3.79135000E-02
					 1.93148000E-01	 0.00000000E+00	-6.17258000E-02
					 2.23559000E-01	 0.00000000E+00	-4.36779000E-02
					 2.17355000E-01	 0.00000000E+00	-6.74722000E-02
					 2.23559000E-01	 0.00000000E+00	-4.36779000E-02
					 2.17355000E-01	 0.00000000E+00	-6.74722000E-02
					 2.47624000E-01	 0.00000000E+00	-4.94180000E-02
					 2.41487000E-01	 0.00000000E+00	-7.30916000E-02
					 2.47624000E-01	 0.00000000E+00	-4.94180000E-02
					 2.41487000E-01	 0.00000000E+00	-7.30916000E-02
					 2.71475000E-01	 0.00000000E+00	-5.51045000E-02
					 2.65436000E-01	 0.00000000E+00	-7.85997000E-02
					 2.71475000E-01	 0.00000000E+00	-5.51045000E-02
					 2.65436000E-01	 0.00000000E+00	-7.85997000E-02
					 2.95068000E-01	 0.00000000E+00	-6.07280000E-02
					 2.89163000E-01	 0.00000000E+00	-8.40213000E-02
					 2.95068000E-01	 0.00000000E+00	-6.07280000E-02
					 2.89163000E-01	 0.00000000E+00	-8.40213000E-02
					 3.18389000E-01	 0.00000000E+00	-6.62841000E-02
					 3.12618000E-01	 0.00000000E+00	-8.93578000E-02
					 3.18389000E-01	 0.00000000E+00	-6.62841000E-02
					 3.12618000E-01	 0.00000000E+00	-8.93578000E-02
					 3.41439000E-01	 0.00000000E+00	-7.17630000E-02
					 3.35793000E-01	 0.00000000E+00	-9.46294000E-02
					 3.41439000E-01	 0.00000000E+00	-7.17630000E-02
					 3.35793000E-01	 0.00000000E+00	-9.46294000E-02
					 3.64236000E-01	 0.00000000E+00	-7.71666000E-02
					 3.58690000E-01	 0.00000000E+00	-9.98743000E-02
					 3.64236000E-01	 0.00000000E+00	-7.71666000E-02
					 3.58690000E-01	 0.00000000E+00	-9.98743000E-02
					 3.86872000E-01	 0.00000000E+00	-8.25344000E-02
					 3.81394000E-01	 0.00000000E+00	-1.05171000E-01
					 3.86872000E-01	 0.00000000E+00	-8.25344000E-02
					 3.81394000E-01	 0.00000000E+00	-1.05171000E-01
					 4.09478000E-01	 0.00000000E+00	-8.79377000E-02
					 4.04032000E-01	 0.00000000E+00	-1.10557000E-01
					 4.09478000E-01	 0.00000000E+00	-8.79377000E-02
					 4.04032000E-01	 0.00000000E+00	-1.10557000E-01
					 0.00000000E+00	 0.00000000E+00	 0.00000000E+00
					 5.20025000E-03	 0.00000000E+00	 5.64486000E-03
					 0.00000000E+00	 0.00000000E+00	 0.00000000E+00
					 5.20025000E-03	 0.00000000E+00	 5.64486000E-03
					 1.51223000E-02	 0.00000000E+00	 9.67940000E-03
					 1.51223000E-02	 0.00000000E+00	 9.67940000E-03
					 2.93225000E-02	 0.00000000E+00	 1.18892000E-02
					 2.93225000E-02	 0.00000000E+00	 1.18892000E-02
					 4.67045000E-02	 0.00000000E+00	 1.23785000E-02
					 4.67045000E-02	 0.00000000E+00	 1.23785000E-02
					 6.64215000E-02	 0.00000000E+00	 1.13051000E-02
					 6.64215000E-02	 0.00000000E+00	 1.13051000E-02
					 8.77649000E-02	 0.00000000E+00	 8.91451000E-03
					 8.77649000E-02	 0.00000000E+00	 8.91451000E-03
					 1.10174000E-01	 0.00000000E+00	 5.52867000E-03
					 1.10174000E-01	 0.00000000E+00	 5.52867000E-03
					 1.33383000E-01	 0.00000000E+00	 1.38494000E-03
					 1.33383000E-01	 0.00000000E+00	 1.38494000E-03
					 1.57176000E-01	 0.00000000E+00	-3.35237000E-03
					 1.57176000E-01	 0.00000000E+00	-3.35237000E-03
					 1.81338000E-01	 0.00000000E+00	-8.57550000E-03
					 1.81338000E-01	 0.00000000E+00	-8.57550000E-03
					 2.05582000E-01	 0.00000000E+00	-1.41304000E-02
					 2.05582000E-01	 0.00000000E+00	-1.41304000E-02
					 2.29754000E-01	 0.00000000E+00	-1.98924000E-02
					 2.29754000E-01	 0.00000000E+00	-1.98924000E-02
					 2.53732000E-01	 0.00000000E+00	-2.57401000E-02
					 2.53732000E-01	 0.00000000E+00	-2.57401000E-02
					 2.77472000E-01	 0.00000000E+00	-3.16067000E-02
					 2.77472000E-01	 0.00000000E+00	-3.16067000E-02
					 3.00921000E-01	 0.00000000E+00	-3.74297000E-02
					 3.00921000E-01	 0.00000000E+00	-3.74297000E-02
					 3.24112000E-01	 0.00000000E+00	-4.31993000E-02
					 3.24112000E-01	 0.00000000E+00	-4.31993000E-02
					 3.47042000E-01	 0.00000000E+00	-4.88850000E-02
					 3.47042000E-01	 0.00000000E+00	-4.88850000E-02
					 3.69758000E-01	 0.00000000E+00	-5.44590000E-02
					 3.69758000E-01	 0.00000000E+00	-5.44590000E-02
					 3.92339000E-01	 0.00000000E+00	-5.99110000E-02
					 3.92339000E-01	 0.00000000E+00	-5.99110000E-02
					 4.14934000E-01	 0.00000000E+00	-6.53118000E-02
					 4.14934000E-01	 0.00000000E+00	-6.53118000E-02
				</DataArray>
				<DataArray type="Float32" Name="S" NumberOfComponents="10" ComponentName0="xx" ComponentName1="yy" ComponentName2="zz" ComponentName3="xy" ComponentName4="yz" ComponentName5="zx" ComponentName6="Mises" ComponentName7="Min Principal" ComponentName8="Mid Principal" ComponentName9="Max Principal" format="ascii">
					-3.69893000E+03	-4.17748000E+03	-1.35955000E+04	-1.45081000E-09	 1.70277000E-09	 2.81933000E+03	 1.08296338E+04	-1.43423134E+04	-4.17748000E+03	-2.95211657E+03
					 4.30434000E+02	 1.03990000E+01	-6.86813000E+02	 0.00000000E+00	 1.50708000E-09	 3.65753000E+03	 6.40998943E+03	-3.82813354E+03	 1.03990000E+01	 3.57175454E+03
					-1.27247000E+02	-7.84992000E+01	-5.44222000E+02	 7.44339000E-08	-2.26349000E-08	 7.07595000E+02	 1.30332005E+03	-1.07340497E+03	-7.84992000E+01	 4.01935970E+02
					-1.82859000E+03	-3.22811000E+03	-1.19389000E+04	 7.51316000E-08	-5.26780000E-08	-3.97530000E+02	 9.51322941E+03	-1.19545065E+04	-3.22811000E+03	-1.81298350E+03
					-3.69893000E+03	-4.17748000E+03	-1.35955000E+04	-1.45089000E-09	 1.70277000E-09	 2.81933000E+03	 1.08296338E+04	-1.43423134E+04	-4.17748000E+03	-2.95211657E+03
					 4.30434000E+02	 1.03990000E+01	-6.86813000E+02	 0.00000000E+00	 1.50708000E-09	 3.65753000E+03	 6.40998943E+03	-3.82813354E+03	 1.03990000E+01	 3.57175454E+03
					-1.27247000E+02	-7.84992000E+01	-5.44222000E+02	 7.44339000E-08	-2.26350000E-08	 7.07595000E+02	 1.30332005E+03	-1.07340497E+03	-7.84992000E+01	 4.01935970E+02
					-1.82859000E+03	-3.22811000E+03	-1.19389000E+04	 7.51314000E-08	-5.26778000E-08	-3.97530000E+02	 9.51322941E+03	-1.19545065E+04	-3.22811000E+03	-1.81298350E+03
					 8.85781000E+00	 4.16844000E+01	-3.18985000E+01	 1.53503000E-07	-3.93825000E-08	 8.48860000E+02	 1.47165432E+03	-8.60624914E+02	 4.16844000E+01	 8.37584224E+02
					-2.09967000E+03	-2.60492000E+03	-9.48487000E+03	 1.33687000E-07	-8.28866000E-08	-1.12597000E+03	 7.40732810E+03	-9.65272376E+03	-2.60492000E+03	-1.93181624E+03
					 8.85781000E+00	 4.16844000E+01	-3.18985000E+01	 1.53502000E-07	-3.93824000E-08	 8.48860000E+02	 1.47165432E+03	-8.60624914E+02	 4.16844000E+01	 8.37584224E+02
					-2.09967000E+03	-2.60492000E+03	-9.48487000E+03	 1.33687000E-07	-8.28866000E-08	-1.12597000E+03	 7.40732810E+03	-9.65272376E+03	-2.60492000E+03	-1.93181624E+03
					 1.74869000E+02	 1.13470000E+02	 2.69577000E+02	 1.72769000E-07	-4.22119000E-08	 7.70496000E+02	 1.34147183E+03	-5.49726796E+02	 1.13470000E+02	 9.94172796E+02
					-1.61316000E+03	-1.89797000E+03	-7.10270000E+03	 1.66481000E-07	-5.15445000E-08	-1.22434000E+03	 5.75757897E+03	-7.36338684E+03	-1.89797000E+03	-1.35247316E+03
					 1.74869000E+02	 1.13470000E+02	 2.69577000E+02	 1.72772000E-07	-4.22118000E-08	 7.70496000E+02	 1.34147183E+03	-5.49726796E+02	 1.13470000E+02	 9.94172796E+02
					-1.61316000E+03	-1.89797000E+03	-7.10270000E+03	 1.66482000E-07	-5.15446000E-08	-1.22434000E+03	 5.75757897E+03	-7.36338684E+03	-1.89797000E+03	-1.35247316E+03
					 2.70445000E+02	 1.57407000E+02	 4.53511000E+02	 8.62665000E-08	-1.98441000E-08	 7.76190000E+02	 1.36908616E+03	-4.19590427E+02	 1.57407000E+02	 1.14354643E+03
					-1.34425000E+03	-1.39865000E+03	-5.23825000E+03	 1.10278000E-07	 1.15848000E-08	-1.10089000E+03	 4.31163984E+03	-5.52793679E+03	-1.39865000E+03	-1.05456321E+03
					 2.70445000E+02	 1.57407000E+02	 4.53511000E+02	 8.62628000E-08	-1.98441000E-08	 7.76190000E+02	 1.36908616E+03	-4.19590427E+02	 1.57407000E+02	 1.14354643E+03
					-1.34425000E+03	-1.39865000E+03	-5.23825000E+03	 1.10279000E-07	 1.15862000E-08	-1.10089000E+03	 4.31163984E+03	-5.52793679E+03	-1.39865000E+03	-1.05456321E+03
					 3.22261000E+02	 1.83054000E+02	 5.67560000E+02	 7.38357000E-08	-6.02760000E-09	 7.64378000E+02	 1.36620595E+03	-3.29244928E+02	 1.83054000E+02	 1.21906593E+03
					-1.04446000E+03	-9.86767000E+02	-3.69691000E+03	 6.29662000E-08	 3.41678000E-08	-8.37754000E+02	 3.04915440E+03	-3.93934829E+03	-9.86767000E+02	-8.02021711E+02
					 3.22261000E+02	 1.83054000E+02	 5.67560000E+02	 7.38357000E-08	-6.02756000E-09	 7.64378000E+02	 1.36620595E+03	-3.29244928E+02	 1.83054000E+02	 1.21906593E+03
					-1.04446000E+03	-9.86767000E+02	-3.69691000E+03	 6.29654000E-08	 3.41666000E-08	-8.37754000E+02	 3.04915440E+03	-3.93934829E+03	-9.86767000E+02	-8.02021711E+02
					 2.97719000E+02	 1.86310000E+02	 6.30095000E+02	 5.56975000E-08	-8.56780000E-09	 7.29545000E+02	 1.32537661E+03	-2.84327160E+02	 1.86310000E+02	 1.21214116E+03
					-7.91377000E+02	-6.71426000E+02	-2.48756000E+03	 1.05112000E-07	 6.04389000E-08	-5.51547000E+02	 2.00187316E+03	-2.65113212E+03	-6.71426000E+02	-6.27804877E+02
					 2.97719000E+02	 1.86310000E+02	 6.30095000E+02	 5.56968000E-08	-8.56799000E-09	 7.29545000E+02	 1.32537661E+03	-2.84327160E+02	 1.86310000E+02	 1.21214116E+03
					-7.91377000E+02	-6.71426000E+02	-2.48756000E+03	 1.05112000E-07	 6.04392000E-08	-5.51547000E+02	 2.00187316E+03	-2.65113212E+03	-6.71426000E+02	-6.27804877E+02
					 2.98344000E+02	 1.95426000E+02	 6.86950000E+02	-4.11088000E-08	 2.32114000E-08	 6.70436000E+02	 1.24501188E+03	-2.05377416E+02	 1.95426000E+02	 1.19067142E+03
					-5.47866000E+02	-4.31164000E+02	-1.58241000E+03	-1.90261000E-08	 8.56241000E-08	-3.17781000E+02	 1.22783887E+03	-1.67222538E+03	-4.58050621E+02	-4.31164000E+02
					 2.98344000E+02	 1.95426000E+02	 6.86950000E+02	-4.11119000E-08	 2.32117000E-08	 6.70436000E+02	 1.24501188E+03	-2.05377416E+02	 1.95426000E+02	 1.19067142E+03
					-5.47866000E+02	-4.31164000E+02	-1.58241000E+03	-1.90241000E-08	 8.56239000E-08	-3.17781000E+02	 1.22783887E+03	-1.67222538E+03	-4.58050621E+02	-4.31164000E+02
					 2.86886000E+02	 1.96117000E+02	 7.09459000E+02	-9.24613000E-08	 4.37327000E-08	 6.48109000E+02	 1.21872856E+03	-1.83507235E+02	 1.96117000E+02	 1.17985223E+03
					-3.53410000E+02	-2.56336000E+02	-9.22876000E+02	-9.66885000E-08	 7.25978000E-08	-1.04533000E+02	 6.49443357E+02	-9.41458066E+02	-3.34827934E+02	-2.56336000E+02
					 2.86886000E+02	 1.96117000E+02	 7.09459000E+02	-9.24625000E-08	 4.37328000E-08	 6.48109000E+02	 1.21872856E+03	-1.83507235E+02	 1.96117000E+02	 1.17985223E+03
					-3.53410000E+02	-2.56336000E+02	-9.22876000E+02	-9.66889000E-08	 7.25962000E-08	-1.04533000E+02	 6.49443357E+02	-9.41458066E+02	-3.34827934E+02	-2.56336000E+02
					 2.92734000E+02	 1.97722000E+02	 7.16327000E+02	-1.03790000E-07	 6.24148000E-08	 6.51132000E+02	 1.22499934E+03	-1.80181585E+02	 1.97722000E+02	 1.18924258E+03
					-1.62255000E+02	-1.07897000E+02	-3.77463000E+02	-1.19117000E-07	 4.97998000E-08	 1.17837000E+02	 3.20350164E+02	-4.29433996E+02	-1.10284004E+02	-1.07897000E+02
					 2.92734000E+02	 1.97722000E+02	 7.16327000E+02	-1.03792000E-07	 6.24148000E-08	 6.51132000E+02	 1.22499934E+03	-1.80181585E+02	 1.97722000E+02	 1.18924258E+03
					-1.62255000E+02	-1.07897000E+02	-3.77463000E+02	-1.19124000E-07	 4.98002000E-08	 1.17837000E+02	 3.20350164E+02	-4.29433996E+02	-1.10284004E+02	-1.07897000E+02
					 2.63951000E+02	 1.88436000E+02	 7.00401000E+02	-6.63768000E-08	 4.89276000E-08	 6.48553000E+02	 1.22107028E+03	-2.02106942E+02	 1.88436000E+02	 1.16645894E+03
					 1.32833000E+01	 2.44869000E+01	 1.13629000E+02	-6.86410000E-08	 1.45622000E-08	 3.41544000E+02	 5.99189001E+02	-2.81753379E+02	 2.44869000E+01	 4.08665679E+02
					 2.63951000E+02	 1.88436000E+02	 7.00401000E+02	-6.63823000E-08	 4.89264000E-08	 6.48553000E+02	 1.22107028E+03	-2.02106942E+02	 1.88436000E+02	 1.16645894E+03
					 1.32833000E+01	 2.44869000E+01	 1.13629000E+02	-6.86329000E-08	 1.45638000E-08	 3.41544000E+02	 5.99189001E+02	-2.81753379E+02	 2.44869000E+01	 4.08665679E+02
					 2.49829000E+02	 1.84253000E+02	 6.91886000E+02	 7.69889000E-09	-1.73047000E-09	 5.92862000E+02	 1.13276608E+03	-1.61865938E+02	 1.84253000E+02	 1.10358094E+03
					 1.84127000E+02	 1.43132000E+02	 5.46006000E+02	 9.87726000E-09	-1.69408000E-08	 5.00365000E+02	 9.47928072E+02	-1.67008904E+02	 1.43132000E+02	 8.97141904E+02
					 2.49829000E+02	 1.84253000E+02	 6.91886000E+02	 7.70375000E-09	-1.73389000E-09	 5.92862000E+02	 1.13276608E+03	-1.61865938E+02	 1.84253000E+02	 1.10358094E+03
					 1.84127000E+02	 1.43132000E+02	 5.46006000E+02	 9.87039000E-09	-1.69401000E-08	 5.00365000E+02	 9.47928072E+02	-1.67008904E+02	 1.43132000E+02	 8.97141904E+02
					 1.90490000E+02	 1.64792000E+02	 6.50361000E+02	 3.14447000E-08	-1.06827000E-08	 5.23401000E+02	 1.02264623E+03	-1.51255303E+02	 1.64792000E+02	 9.92106303E+02
					 2.67664000E+02	 2.15084000E+02	 8.31291000E+02	 1.70677000E-08	-1.01294000E-08	 5.86467000E+02	 1.17554506E+03	-1.01185539E+02	 2.15084000E+02	 1.20014054E+03
					 1.90490000E+02	 1.64792000E+02	 6.50361000E+02	 3.14458000E-08	-1.06808000E-08	 5.23401000E+02	 1.02264623E+03	-1.51255303E+02	 1.64792000E+02	 9.92106303E+02
					 2.67664000E+02	 2.15084000E+02	 8.31291000E+02	 1.70855000E-08	-1.01324000E-08	 5.86467000E+02	 1.17554506E+03	-1.01185539E+02	 2.15084000E+02	 1.20014054E+03
					 1.28181000E+02	 1.39853000E+02	 5.83724000E+02	 5.82356000E-08	 4.61905000E-09	 4.46767000E+02	 8.95064701E+02	-1.45525923E+02	 1.39853000E+02	 8.57430923E+02
					 2.88293000E+02	 2.44119000E+02	 9.59570000E+02	 2.91134000E-08	-1.35002000E-08	 6.04544000E+02	 1.25643841E+03	-6.75355279E+01	 2.44119000E+02	 1.31539853E+03
					 1.28181000E+02	 1.39853000E+02	 5.83724000E+02	 5.82283000E-08	 4.61924000E-09	 4.46767000E+02	 8.95064701E+02	-1.45525923E+02	 1.39853000E+02	 8.57430923E+02
					 2.88293000E+02	 2.44119000E+02	 9.59570000E+02	 2.91108000E-08	-1.34974000E-08	 6.04544000E+02	 1.25643841E+03	-6.75355279E+01	 2.44119000E+02	 1.31539853E+03
					 4.97557000E+01	 1.04260000E+02	 4.80042000E+02	 7.82834000E-08	-2.12043000E-08	 3.72115000E+02	 7.61625423E+02	-1.64933848E+02	 1.04260000E+02	 6.94731548E+02
					 2.63223000E+02	 2.39928000E+02	 9.62353000E+02	 8.27296000E-08	-2.93597000E-08	 5.81810000E+02	 1.23333705E+03	-6.59597921E+01	 2.39928000E+02	 1.29153579E+03
					 4.97557000E+01	 1.04260000E+02	 4.80042000E+02	 7.82765000E-08	-2.12060000E-08	 3.72115000E+02	 7.61625423E+02	-1.64933848E+02	 1.04260000E+02	 6.94731548E+02
					 2.63223000E+02	 2.39928000E+02	 9.62353000E+02	 8.27419000E-08	-2.93555000E-08	 5.81810000E+02	 1.23333705E+03	-6.59597921E+01	 2.39928000E+02	 1.29153579E+03
					 1.97396000E+01	 7.91767000E+01	 3.80876000E+02	 8.81554000E-08	-3.45627000E-08	 2.78691000E+02	 5.87786856E+02	-1.31766813E+02	 7.91767000E+01	 5.32382413E+02
					 2.52639000E+02	 2.28734000E+02	 9.12870000E+02	 8.48410000E-08	-2.84061000E-08	 5.16127000E+02	 1.11866907E+03	-2.99145162E+01	 2.28734000E+02	 1.19542352E+03
					 1.97396000E+01	 7.91767000E+01	 3.80876000E+02	 8.81602000E-08	-3.45628000E-08	 2.78691000E+02	 5.87786856E+02	-1.31766813E+02	 7.91767000E+01	 5.32382413E+02
					 2.52639000E+02	 2.28734000E+02	 9.12870000E+02	 8.48140000E-08	-2.84070000E-08	 5.16127000E+02	 1.11866907E+03	-2.99145162E+01	 2.28734000E+02	 1.19542352E+03
					-3.23721000E+01	 4.83096000E+01	 2.76249000E+02	 1.05252000E-07	-3.37557000E-08	 2.00370000E+02	 4.44185610E+02	-1.30964462E+02	 4.83096000E+01	 3.74841362E+02
					 1.97993000E+02	 1.98272000E+02	 8.09736000E+02	 1.03572000E-07	-2.59010000E-08	 4.35227000E+02	 9.70735043E+02	-2.80940661E+01	 1.98272000E+02	 1.03582307E+03
					-3.23721000E+01	 4.83096000E+01	 2.76249000E+02	 1.05243000E-07	-3.37504000E-08	 2.00370000E+02	 4.44185610E+02	-1.30964462E+02	 4.83096000E+01	 3.74841362E+02
					 1.97993000E+02	 1.98272000E+02	 8.09736000E+02	 1.03597000E-07	-2.58966000E-08	 4.35227000E+02	 9.70735043E+02	-2.80940661E+01	 1.98272000E+02	 1.03582307E+03
					-8.37121000E+01	 2.19845000E+01	 1.94794000E+02	 8.19307000E-08	-2.86594000E-08	 1.29327000E+02	 3.30872619E+02	-1.34503479E+02	 2.19845000E+01	 2.45585379E+02
					 1.12794000E+02	 1.50543000E+02	 6.50297000E+02	 9.70106000E-08	 1.25943000E-08	 3.30840000E+02	 7.73569375E+02	-4.46967719E+01	 1.50543000E+02	 8.07787772E+02
					-8.37121000E+01	 2.19845000E+01	 1.94794000E+02	 8.19321000E-08	-2.86602000E-08	 1.29327000E+02	 3.30872619E+02	-1.34503479E+02	 2.19845000E+01	 2.45585379E+02
					 1.12794000E+02	 1.50543000E+02	 6.50297000E+02	 9.70253000E-08	 1.25920000E-08	 3.30840000E+02	 7.73569375E+02	-4.46967719E+01	 1.50543000E+02	 8.07787772E+02
					-1.38543000E+02	-4.39435000E+00	 1.17223000E+02	 2.52381000E-08	 0.00000000E+00	 7.51496000E+01	 2.56989943E+02	-1.58989107E+02	-4.39435000E+00	 1.37669107E+02
					 1.95944000E+00	 8.17412000E+01	 4.11287000E+02	 3.15222000E-08	 2.54960000E-08	 2.09220000E+02	 5.22088434E+02	-8.60545401E+01	 8.17412000E+01	 4.99300980E+02
					-1.38543000E+02	-4.39435000E+00	 1.17223000E+02	 2.52630000E-08	 0.00000000E+00	 7.51496000E+01	 2.56989943E+02	-1.58989107E+02	-4.39435000E+00	 1.37669107E+02
					 1.95944000E+00	 8.17412000E+01	 4.11287000E+02	 3.15215000E-08	 2.54925000E-08	 2.09220000E+02	 5.22088434E+02	-8.60545401E+01	 8.17412000E+01	 4.99300980E+02
					-1.32356000E+02	-2.03401000E+01	 3.09518000E+01	 5.78974000E-08	-1.45360000E-08	 3.13522000E+01	 1.54508286E+02	-1.38168207E+02	-2.03401000E+01	 3.67640068E+01
					-5.54631000E+01	 2.00708000E+01	 1.56861000E+02	 2.64752000E-08	-3.51823000E-08	 9.29349000E+01	 2.46292333E+02	-9.03941983E+01	 2.00708000E+01	 1.91792098E+02
					-1.32356000E+02	-2.03401000E+01	 3.09518000E+01	 5.79005000E-08	-1.45420000E-08	 3.13522000E+01	 1.54508286E+02	-1.38168207E+02	-2.03401000E+01	 3.67640068E+01
					-5.54631000E+01	 2.00708000E+01	 1.56861000E+02	 2.64266000E-08	-3.51782000E-08	 9.29349000E+01	 2.46292333E+02	-9.03941983E+01	 2.00708000E+01	 1.91792098E+02
					-1.10992000E+02	-2.45785000E+01	-1.17251000E+01	 9.74247000E-08	-3.84479000E-08	 7.14588000E+00	 9.43207345E+01	-1.11503769E+02	-2.45785000E+01	-1.12133313E+01
					-5.30073000E+01	-3.09878000E+00	 3.76429000E+01	 9.70337000E-08	-7.44041000E-08	 4.39565000E+01	 1.09456034E+02	-7.08212417E+01	-3.09878000E+00	 5.54568417E+01
					-1.10992000E+02	-2.45785000E+01	-1.17251000E+01	 9.73948000E-08	-3.84485000E-08	 7.14588000E+00	 9.43207345E+01	-1.11503769E+02	-2.45785000E+01	-1.12133313E+01
					-5.30073000E+01	-3.09878000E+00	 3.76429000E+01	 9.71027000E-08	-7.43996000E-08	 4.39565000E+01	 1.09456034E+02	-7.08212417E+01	-3.09878000E+00	 5.54568417E+01
					 4.71548000E+03	 3.72975000E+03	 1.77076000E+04	 1.45869000E-09	 1.53701000E-09	 6.75264000E+03	 1.78708704E+04	 1.84153773E+03	 3.72975000E+03	 2.05815423E+04
					 1.42465000E+03	 2.82704000E+03	 1.52573000E+04	 9.64505000E-08	 4.97701000E-08	 2.90715000E+03	 1.41161148E+04	 8.38503899E+02	 2.82704000E+03	 1.58434461E+04
					 4.71548000E+03	 3.72975000E+03	 1.77076000E+04	 1.45867000E-09	 1.53701000E-09	 6.75264000E+03	 1.78708704E+04	 1.84153773E+03	 3.72975000E+03	 2.05815423E+04