<?xml version="1.0"?>
<VTKFile type="UnstructuredGrid" version="0.1" byte_order="LittleEndian">
	<UnstructuredGrid>
		<Piece NumberOfPoints="126" NumberOfCells="40">
			<Points>
				<DataArray type="Float64" NumberOfComponents="3" format="ascii">
					 5.00000000E-02	 0.00000000E+00	 0.00000000E+00
					 0.00000000E+00	 0.00000000E+00	 0.00000000E+00
					 0.00000000E+00	 0.00000000E+00	 5.00000000E-02
					 5.00000000E-02	 0.00000000E+00	 5.00000000E-02
					 5.00000000E-02	 3.00000000E-01	 0.00000000E+00
					 0.00000000E+00	 3.00000000E-01	 0.00000000E+00
					 0.00000000E+00	 3.00000000E-01	 5.00000000E-02
					 5.00000000E-02	 3.00000000E-01	 5.00000000E-02
					 0.00000000E+00	 0.00000000E+00	 1.00000000E-01
					 5.00000000E-02	 0.00000000E+00	 1.00000000E-01
					 0.00000000E+00	 3.00000000E-01	 1.00000000E-01
					 5.00000000E-02	 3.00000000E-01	 1.00000000E-01
					 0.00000000E+00	 0.00000000E+00	 1.50000000E-01
					 5.00000000E-02	 0.00000000E+00	 1.50000000E-01
					 0.00000000E+00	 3.00000000E-01	 1.50000000E-01
					 5.00000000E-02	 3.00000000E-01	 1.50000000E-01
					 0.00000000E+00	 0.00000000E+00	 2.00000000E-01
					 5.00000000E-02	 0.00000000E+00	 2.00000000E-01
					 0.00000000E+00	 3.00000000E-01	 2.00000000E-01
					 5.00000000E-02	 3.00000000E-01	 2.00000000E-01
					 0.00000000E+00	 0.00000000E+00	 2.50000000E-01
					 5.00000000E-02	 0.00000000E+00	 2.50000000E-01
					 0.00000000E+00	 3.00000000E-01	 2.50000000E-01
					 5.00000000E-02	 3.00000000E-01	 2.50000000E-01
					 0.00000000E+00	 0.00000000E+00	 3.00000000E-01
					 5.00000000E-02	 0.00000000E+00	 3.00000000E-01
					 0.00000000E+00	 3.00000000E-01	 3.00000000E-01
					 5.00000000E-02	 3.00000000E-01	 3.00000000E-01
					 0.00000000E+00	 0.00000000E+00	 3.50000000E-01
					 5.00000000E-02	 0.00000000E+00	 3.50000000E-01
					 0.00000000E+00	 3.00000000E-01	 3.50000000E-01
					 5.00000000E-02	 3.00000000E-01	 3.50000000E-01
					 0.00000000E+00	 0.00000000E+00	 4.00000000E-01
					 5.00000000E-02	 0.00000000E+00	 4.00000000E-01
					 0.00000000E+00	 3.00000000E-01	 4.00000000E-01
					 5.00000000E-02	 3.00000000E-01	 4.00000000E-01
					 0.00000000E+00	 0.00000000E+00	 4.50000000E-01
					 5.00000000E-02	 0.00000000E+00	 4.50000000E-01
					 0.00000000E+00	 3.00000000E-01	 4.50000000E-01
					 5.00000000E-02	 3.00000000E-01	 4.50000000E-01
					 0.00000000E+00	 0.00000000E+00	 5.00000000E-01
					 5.00000000E-02	 0.00000000E+00	 5.00000000E-01
					 0.00000000E+00	 3.00000000E-01	 5.00000000E-01
					 5.00000000E-02	 3.00000000E-01	 5.00000000E-01
					 0.00000000E+00	 0.00000000E+00	 5.50000000E-01
					 5.00000000E-02	 0.00000000E+00	 5.50000000E-01
					 0.00000000E+00	 3.00000000E-01	 5.50000000E-01
					 5.00000000E-02	 3.00000000E-01	 5.50000000E-01
					 0.00000000E+00	 0.00000000E+00	 6.00000000E-01
					 5.00000000E-02	 0.00000000E+00	 6.00000000E-01
					 0.00000000E+00	 3.00000000E-01	 6.00000000E-01
					 5.00000000E-02	 3.00000000E-01	 6.00000000E-01
					 0.00000000E+00	 0.00000000E+00	 6.50000000E-01
					 5.00000000E-02	 0.00000000E+00	 6.50000000E-01
					 0.00000000E+00	 3.00000000E-01	 6.50000000E-01
					 5.00000000E-02	 3.00000000E-01	 6.50000000E-01
					 0.00000000E+00	 0.00000000E+00	 7.00000000E-01
					 5.00000000E-02	 0.00000000E+00	 7.00000000E-01
					 0.00000000E+00	 3.00000000E-01	 7.00000000E-01
					 5.00000000E-02	 3.00000000E-01	 7.00000000E-01
					 0.00000000E+00	 0.00000000E+00	 7.50000000E-01
					 5.00000000E-02	 0.00000000E+00	 7.50000000E-01
					 0.00000000E+00	 3.00000000E-01	 7.50000000E-01
					 5.00000000E-02	 3.00000000E-01	 7.50000000E-01
					 0.00000000E+00	 0.00000000E+00	 8.00000000E-01
					 5.00000000E-02	 0.00000000E+00	 8.00000000E-01
					 0.00000000E+00	 3.00000000E-01	 8.00000000E-01
					 5.00000000E-02	 3.00000000E-01	 8.00000000E-01
					 0.00000000E+00	 0.00000000E+00	 8.50000000E-01
					 5.00000000E-02	 0.00000000E+00	 8.50000000E-01
					 0.00000000E+00	 3.00000000E-01	 8.50000000E-01
					 5.00000000E-02	 3.00000000E-01	 8.50000000E-01
					 0.00000000E+00	 0.00000000E+00	 9.00000000E-01
					 5.00000000E-02	 0.00000000E+00	 9.00000000E-01
					 0.00000000E+00	 3.00000000E-01	 9.00000000E-01
					 5.00000000E-02	 3.00000000E-01	 9.00000000E-01
					 0.00000000E+00	 0.00000000E+00	 9.50000000E-01
					 5.00000000E-02	 0.00000000E+00	 9.50000000E-01
					 0.00000000E+00	 3.00000000E-01	 9.50000000E-01
					 5.00000000E-02	 3.00000000E-01	 9.50000000E-01
					 0.00000000E+00	 0.00000000E+00	 1.00000000E+00
					 5.00000000E-02	 0.00000000E+00	 1.00000000E+00
					 0.00000000E+00	 3.00000000E-01	 1.00000000E+00
					 5.00000000E-02	 3.00000000E-01	 1.00000000E+00
					-5.00000000E-02	 0.00000000E+00	 0.00000000E+00
					-5.00000000E-02	 0.00000000E+00	 5.00000000E-02
					-5.00000000E-02	 3.00000000E-01	 0.00000000E+00
					-5.00000000E-02	 3.00000000E-01	 5.00000000E-02
					-5.00000000E-02	 0.00000000E+00	 1.00000000E-01
					-5.00000000E-02	 3.00000000E-01	 1.00000000E-01
					-5.00000000E-02	 0.00000000E+00	 1.50000000E-01
					-5.00000000E-02	 3.00000000E-01	 1.50000000E-01
					-5.00000000E-02	 0.00000000E+00	 2.00000000E-01
					-5.00000000E-02	 3.00000000E-01	 2.00000000E-01
					-5.00000000E-02	 0.00000000E+00	 2.50000000E-01
					-5.00000000E-02	 3.00000000E-01	 2.50000000E-01
					-5.00000000E-02	 0.00000000E+00	 3.00000000E-01
					-5.00000000E-02	 3.00000000E-01	 3.00000000E-01
					-5.00000000E-02	 0.00000000E+00	 3.50000000E-01
					-5.00000000E-02	 3.00000000E-01	 3.50000000E-01
					-5.00000000E-02	 0.00000000E+00	 4.00000000E-01
					-5.00000000E-02	 3.00000000E-01	 4.00000000E-01
					-5.00000000E-02	 0.00000000E+00	 4.50000000E-01
					-5.00000000E-02	 3.00000000E-01	 4.50000000E-01
					-5.00000000E-02	 0.00000000E+00	 5.00000000E-01
					-5.00000000E-02	 3.00000000E-01	 5.00000000E-01
					-5.00000000E-02	 0.00000000E+00	 5.50000000E-01
					-5.00000000E-02	 3.00000000E-01	 5.50000000E-01
					-5.00000000E-02	 0.00000000E+00	 6.00000000E-01
					-5.00000000E-02	 3.00000000E-01	 6.00000000E-01
					-5.00000000E-02	 0.00000000E+00	 6.50000000E-01
					-5.00000000E-02	 3.00000000E-01	 6.50000000E-01
					-5.00000000E-02	 0.00000000E+00	 7.00000000E-01
					-5.00000000E-02	 3.00000000E-01	 7.00000000E-01
					-5.00000000E-02	 0.00000000E+00	 7.50000000E-01
					-5.00000000E-02	 3.00000000E-01	 7.50000000E-01
					-5.00000000E-02	 0.00000000E+00	 8.00000000E-01
					-5.00000000E-02	 3.00000000E-01	 8.00000000E-01
					-5.00000000E-02	 0.00000000E+00	 8.50000000E-01
					-5.00000000E-02	 3.00000000E-01	 8.50000000E-01
					-5.00000000E-02	 0.00000000E+00	 9.00000000E-01
					-5.00000000E-02	 3.00000000E-01	 9.00000000E-01
					-5.00000000E-02	 0.00000000E+00	 9.50000000E-01
					-5.00000000E-02	 3.00000000E-01	 9.50000000E-01
					-5.00000000E-02	 0.00000000E+00	 1.00000000E+00
					-5.00000000E-02	 3.00000000E-01	 1.00000000E+00

				</DataArray>
			</Points>
			<Cells>
				<DataArray type="Int32" Name="connectivity" format="ascii">
					0 1 2 3 4 5 6 7 3 2 8 9 7 6 10 11 9 8 12 13 11 10 14 15 13 12 16 17 15 14 18 19 17 16 20 21 19 18 22 23 21 20 24 25 23 22 26 27 25 24 28 29 27 26 30 31 29 28 32 33 31 30 34 35 33 32 36 37 35 34 38 39 37 36 40 41 39 38 42 43 41 40 44 45 43 42 46 47 45 44 48 49 47 46 50 51 49 48 52 53 51 50 54 55 53 52 56 57 55 54 58 59 57 56 60 61 59 58 62 63 61 60 64 65 63 62 66 67 65 64 68 69 67 66 70 71 69 68 72 73 71 70 74 75 73 72 76 77 75 74 78 79 77 76 80 81 79 78 82 83 1 84 85 2 5 86 87 6 2 85 88 8 6 87 89 10 8 88 90 12 10 89 91 14 12 90 92 16 14 91 93 18 16 92 94 20 18 93 95 22 20 94 96 24 22 95 97 26 24 96 98 28 26 97 99 30 28 98 100 32 30 99 101 34 32 100 102 36 34 101 103 38 36 102 104 40 38 103 105 42 40 104 106 44 42 105 107 46 44 106 108 48 46 107 109 50 48 108 110 52 50 109 111 54 52 110 112 56 54 111 113 58 56 112 114 60 58 113 115 62 60 114 116 64 62 115 117 66 64 116 118 68 66 117 119 70 68 118 120 72 70 119 121 74 72 120 122 76 74 121 123 78 76 122 124 80 78 123 125 82 
				</DataArray>
				<DataArray type="Int32" Name="offsets" format="ascii">
					8 16 24 32 40 48 56 64 72 80 88 96 104 112 120 128 136 144 152 160 168 176 184 192 200 208 216 224 232 240 248 256 264 272 280 288 296 304 312 320 
				</DataArray>
				<DataArray type="UInt8" Name="types" format="ascii">
					12 12 12 12 12 12 12 12 12 12 12 12 12 12 12 12 12 12 12 12 12 12 12 12 12 12 12 12 12 12 12 12 12 12 12 12 12 12 12 12 
				</DataArray>
			</Cells>
			<PointData>
				<DataArray type="Float32" Name="U" NumberOfComponents="3" ComponentName0="D1" ComponentName1="D2" ComponentName2="D3" format="ascii">
					 0.00000000E+00	 0.00000000E+00	 0.00000000E+00
					 0.00000000E+00	 0.00000000E+00	 0.00000000E+00
					 1.81941000E-03	 0.00000000E+00	 1.40899000E-04
					 2.02461000E-03	 0.00000000E+00	-2.24145000E-03
					 0.00000000E+00	 0.00000000E+00	 0.00000000E+00
					 0.00000000E+00	 0.00000000E+00	 0.00000000E+00
					 1.81941000E-03	 0.00000000E+00	 1.40899000E-04
					 2.02461000E-03	 0.00000000E+00	-2.24145000E-03
					 5.79951000E-03	 0.00000000E+00	 2.12814000E-04
					 5.73166000E-03	 0.00000000E+00	-3.82693000E-03
					 5.79951000E-03	 0.00000000E+00	 2.12814000E-04
					 5.73166000E-03	 0.00000000E+00	-3.82693000E-03
					 1.09174000E-02	 0.00000000E+00	 1.88596000E-04
					 1.07004000E-02	 0.00000000E+00	-4.81258000E-03
					 1.09174000E-02	 0.00000000E+00	 1.88596000E-04
					 1.07004000E-02	 0.00000000E+00	-4.81258000E-03
					 1.66423000E-02	 0.00000000E+00	 1.20721000E-04
					 1.63136000E-02	 0.00000000E+00	-5.30296000E-03
					 1.66423000E-02	 0.00000000E+00	 1.20721000E-04
					 1.63136000E-02	 0.00000000E+00	-5.30296000E-03
					 2.24910000E-02	 0.00000000E+00	 4.32776000E-05
					 2.21146000E-02	 0.00000000E+00	-5.36443000E-03
					 2.24910000E-02	 0.00000000E+00	 4.32776000E-05
					 2.21146000E-02	 0.00000000E+00	-5.36443000E-03
					 2.80605000E-02	 0.00000000E+00	-1.74125000E-05
					 2.76902000E-02	 0.00000000E+00	-5.06192000E-03
					 2.80605000E-02	 0.00000000E+00	-1.74125000E-05
					 2.76902000E-02	 0.00000000E+00	-5.06192000E-03
					 3.30447000E-02	 0.00000000E+00	-2.73883000E-05
					 3.27090000E-02	 0.00000000E+00	-4.44672000E-03
					 3.30447000E-02	 0.00000000E+00	-2.73883000E-05
					 3.27090000E-02	 0.00000000E+00	-4.44672000E-03
					 3.72320000E-02	 0.00000000E+00	 2.72264000E-05
					 3.69478000E-02	 0.00000000E+00	-3.58232000E-03
					 3.72320000E-02	 0.00000000E+00	 2.72264000E-05
					 3.69478000E-02	 0.00000000E+00	-3.58232000E-03
					 4.04902000E-02	 0.00000000E+00	 1.56002000E-04
					 4.02389000E-02	 0.00000000E+00	-2.55000000E-03
					 4.04902000E-02	 0.00000000E+00	 1.56002000E-04
					 4.02389000E-02	 0.00000000E+00	-2.55000000E-03
					 4.27563000E-02	 0.00000000E+00	 3.63189000E-04
					 4.25472000E-02	 0.00000000E+00	-1.42708000E-03
					 4.27563000E-02	 0.00000000E+00	 3.63189000E-04
					 4.25472000E-02	 0.00000000E+00	-1.42708000E-03
					 4.40284000E-02	 0.00000000E+00	 5.88047000E-04
					 4.38736000E-02	 0.00000000E+00	-3.17442000E-04
					 4.40284000E-02	 0.00000000E+00	 5.88047000E-04
					 4.38736000E-02	 0.00000000E+00	-3.17442000E-04
					 4.43958000E-02	 0.00000000E+00	 7.81334000E-04
					 4.42809000E-02	 0.00000000E+00	 6.59821000E-04
					 4.43958000E-02	 0.00000000E+00	 7.81334000E-04
					 4.42809000E-02	 0.00000000E+00	 6.59821000E-04
					 4.40212000E-02	 0.00000000E+00	 9.58785000E-04
					 4.39231000E-02	 0.00000000E+00	 1.42793000E-03
					 4.40212000E-02	 0.00000000E+00	 9.58785000E-04
					 4.39231000E-02	 0.00000000E+00	 1.42793000E-03
					 4.31506000E-02	 0.00000000E+00	 1.13078000E-03
					 4.30779000E-02	 0.00000000E+00	 1.97058000E-03
					 4.31506000E-02	 0.00000000E+00	 1.13078000E-03
					 4.30779000E-02	 0.00000000E+00	 1.97058000E-03
					 4.20404000E-02	 0.00000000E+00	 1.31159000E-03
					 4.19866000E-02	 0.00000000E+00	 2.32914000E-03
					 4.20404000E-02	 0.00000000E+00	 1.31159000E-03
					 4.19866000E-02	 0.00000000E+00	 2.32914000E-03
					 4.08926000E-02	 0.00000000E+00	 1.50976000E-03
					 4.08489000E-02	 0.00000000E+00	 2.56750000E-03
					 4.08926000E-02	 0.00000000E+00	 1.50976000E-03
					 4.08489000E-02	 0.00000000E+00	 2.56750000E-03
					 3.98002000E-02	 0.00000000E+00	 1.72406000E-03
					 3.97527000E-02	 0.00000000E+00	 2.74607000E-03
					 3.98002000E-02	 0.00000000E+00	 1.72406000E-03
					 3.97527000E-02	 0.00000000E+00	 2.74607000E-03
					 3.87939000E-02	 0.00000000E+00	 1.92724000E-03
					 3.87576000E-02	 0.00000000E+00	 2.88116000E-03
					 3.87939000E-02	 0.00000000E+00	 1.92724000E-03
					 3.87576000E-02	 0.00000000E+00	 2.88116000E-03
					 3.78625000E-02	 0.00000000E+00	 2.07902000E-03
					 3.78452000E-02	 0.00000000E+00	 2.97795000E-03
					 3.78625000E-02	 0.00000000E+00	 2.07902000E-03
					 3.78452000E-02	 0.00000000E+00	 2.97795000E-03
					 3.69694000E-02	 0.00000000E+00	 2.17212000E-03
					 3.69739000E-02	 0.00000000E+00	 3.01345000E-03
					 3.69694000E-02	 0.00000000E+00	 2.17212000E-03
					 3.69739000E-02	 0.00000000E+00	 3.01345000E-03
					 0.00000000E+00	 0.00000000E+00	 0.00000000E+00
					 2.29920000E-03	 0.00000000E+00	 2.50368000E-03
					 0.00000000E+00	 0.00000000E+00	 0.00000000E+00
					 2.29920000E-03	 0.00000000E+00	 2.50368000E-03
					 6.20421000E-03	 0.00000000E+00	 4.20961000E-03
					 6.20421000E-03	 0.00000000E+00	 4.20961000E-03
					 1.13445000E-02	 0.00000000E+00	 5.16523000E-03
					 1.13445000E-02	 0.00000000E+00	 5.16523000E-03
					 1.70549000E-02	 0.00000000E+00	 5.53540000E-03
					 1.70549000E-02	 0.00000000E+00	 5.53540000E-03
					 2.28497000E-02	 0.00000000E+00	 5.45178000E-03
					 2.28497000E-02	 0.00000000E+00	 5.45178000E-03
					 2.83452000E-02	 0.00000000E+00	 5.03081000E-03
					 2.83452000E-02	 0.00000000E+00	 5.03081000E-03
					 3.32306000E-02	 0.00000000E+00	 4.40076000E-03
					 3.32306000E-02	 0.00000000E+00	 4.40076000E-03
					 3.73355000E-02	 0.00000000E+00	 3.66180000E-03
					 3.73355000E-02	 0.00000000E+00	 3.66180000E-03
					 4.05422000E-02	 0.00000000E+00	 2.88729000E-03
					 4.05422000E-02	 0.00000000E+00	 2.88729000E-03
					 4.27758000E-02	 0.00000000E+00	 2.14679000E-03
					 4.27758000E-02	 0.00000000E+00	 2.14679000E-03
					 4.40035000E-02	 0.00000000E+00	 1.47780000E-03
					 4.40035000E-02	 0.00000000E+00	 1.47780000E-03
					 4.43729000E-02	 0.00000000E+00	 9.05023000E-04
					 4.43729000E-02	 0.00000000E+00	 9.05023000E-04
					 4.40299000E-02	 0.00000000E+00	 4.87739000E-04
					 4.40299000E-02	 0.00000000E+00	 4.87739000E-04
					 4.31969000E-02	 0.00000000E+00	 2.79183000E-04
					 4.31969000E-02	 0.00000000E+00	 2.79183000E-04
					 4.21011000E-02	 0.00000000E+00	 2.89119000E-04
					 4.21011000E-02	 0.00000000E+00	 2.89119000E-04
					 4.09699000E-02	 0.00000000E+00	 4.56403000E-04
					 4.09699000E-02	 0.00000000E+00	 4.56403000E-04
					 3.98890000E-02	 0.00000000E+00	 7.06003000E-04
					 3.98890000E-02	 0.00000000E+00	 7.06003000E-04
					 3.88735000E-02	 0.00000000E+00	 9.57439000E-04
					 3.88735000E-02	 0.00000000E+00	 9.57439000E-04
					 3.79115000E-02	 0.00000000E+00	 1.14902000E-03
					 3.79115000E-02	 0.00000000E+00	 1.14902000E-03
					 3.69820000E-02	 0.00000000E+00	 1.23788000E-03
					 3.69820000E-02	 0.00000000E+00	 1.23788000E-03
				</DataArray>
				<DataArray type="Float32" Name="S" NumberOfComponents="10" ComponentName0="xx" ComponentName1="yy" ComponentName2="zz" ComponentName3="xy" ComponentName4="yz" ComponentName5="zx" ComponentName6="Mises" ComponentName7="Min Principal" ComponentName8="Mid Principal" ComponentName9="Max Principal" format="ascii">
					-1.35928000E+03	-1.50039000E+03	-5.59179000E+03	 0.00000000E+00	 0.00000000E+00	 1.79966000E+03	 5.20126252E+03	-6.25353992E+03	-1.50039000E+03	-6.97530079E+02
					 2.26748000E+02	 1.15772000E+02	 3.46004000E+02	 0.00000000E+00	 0.00000000E+00	 1.82902000E+03	 3.17422663E+03	-1.54361571E+03	 1.15772000E+02	 2.11636771E+03
					 2.13065000E+01	 8.00137000E+01	 3.48109000E+02	 2.89838000E-08	-3.74602000E-09	 5.37357000E+02	 9.78426485E+02	-3.76943845E+02	 8.00137000E+01	 7.46359345E+02
					-4.46780000E+02	-1.05113000E+03	-4.51994000E+03	 6.38469000E-08	-3.38504000E-08	 3.60960000E+02	 3.85812564E+03	-4.55168063E+03	-1.05113000E+03	-4.15039373E+02
					-1.35928000E+03	-1.50039000E+03	-5.59179000E+03	 0.00000000E+00	 0.00000000E+00	 1.79966000E+03	 5.20126252E+03	-6.25353992E+03	-1.50039000E+03	-6.97530079E+02
					 2.26748000E+02	 1.15772000E+02	 3.46004000E+02	 0.00000000E+00	 0.00000000E+00	 1.82902000E+03	 3.17422663E+03	-1.54361571E+03	 1.15772000E+02	 2.11636771E+03
					 2.13065000E+01	 8.00137000E+01	 3.48109000E+02	 2.89837000E-08	-3.74603000E-09	 5.37357000E+02	 9.78426485E+02	-3.76943845E+02	 8.00137000E+01	 7.46359345E+02
					-4.46780000E+02	-1.05113000E+03	-4.51994000E+03	 6.38469000E-08	-3.38504000E-08	 3.60960000E+02	 3.85812564E+03	-4.55168063E+03	-1.05113000E+03	-4.15039373E+02
					 6.34978000E+01	 1.06002000E+02	 4.52900000E+02	 7.99246000E-08	 3.08801000E-09	 5.51732000E+02	 1.02475073E+03	-3.26879486E+02	 1.06002000E+02	 8.43277286E+02
					-4.15353000E+02	-6.68758000E+02	-2.81766000E+03	 6.73321000E-08	-1.04309000E-08	 1.91624000E+02	 2.31012893E+03	-2.83284917E+03	-6.68758000E+02	-4.00163831E+02
					 6.34978000E+01	 1.06002000E+02	 4.52900000E+02	 7.99244000E-08	 3.08804000E-09	 5.51732000E+02	 1.02475073E+03	-3.26879486E+02	 1.06002000E+02	 8.43277286E+02
					-4.15353000E+02	-6.68758000E+02	-2.81766000E+03	 6.73323000E-08	-1.04310000E-08	 1.91624000E+02	 2.31012893E+03	-2.83284917E+03	-6.68758000E+02	-4.00163831E+02
					 7.01182000E+01	 1.17323000E+02	 5.19958000E+02	 3.88733000E-08	 3.42648000E-09	 4.61258000E+02	 9.06436081E+02	-2.18136241E+02	 1.17323000E+02	 8.08212441E+02
					-1.50904000E+02	-2.81686000E+02	-1.23353000E+03	 1.00529000E-07	 3.07011000E-08	 2.33209000E+02	 1.10034281E+03	-1.28162874E+03	-2.81686000E+02	-1.02805258E+02
					 7.01182000E+01	 1.17323000E+02	 5.19958000E+02	 3.88737000E-08	 3.42650000E-09	 4.61258000E+02	 9.06436081E+02	-2.18136241E+02	 1.17323000E+02	 8.08212441E+02
					-1.50904000E+02	-2.81686000E+02	-1.23353000E+03	 1.00528000E-07	 3.07010000E-08	 2.33209000E+02	 1.10034281E+03	-1.28162874E+03	-2.81686000E+02	-1.02805258E+02
					 5.85543000E+01	 1.24021000E+02	 5.70783000E+02	 2.19645000E-08	-2.23971000E-09	 4.01636000E+02	 8.46796692E+02	-1.61677901E+02	 1.24021000E+02	 7.91015201E+02
					 8.87262000E+00	 1.10822000E+01	 5.30509000E+01	 1.54940000E-08	 3.29196000E-08	 2.88576000E+02	 5.01684473E+02	-2.58458415E+02	 1.10822000E+01	 3.20381935E+02
					 5.85543000E+01	 1.24021000E+02	 5.70783000E+02	 2.19648000E-08	-2.23981000E-09	 4.01636000E+02	 8.46796692E+02	-1.61677901E+02	 1.24021000E+02	 7.91015201E+02
					 8.87262000E+00	 1.10822000E+01	 5.30509000E+01	 1.54952000E-08	 3.29198000E-08	 2.88576000E+02	 5.01684473E+02	-2.58458415E+02	 1.10822000E+01	 3.20381935E+02
					 4.42525000E+01	 1.21814000E+02	 5.73361000E+02	 3.53358000E-08	 6.71660000E-09	 3.34759000E+02	 7.62314834E+02	-1.17869403E+02	 1.21814000E+02	 7.35482903E+02
					 1.39315000E+02	 2.39309000E+02	 1.08099000E+03	 6.55528000E-09	-2.49338000E-09	 3.38038000E+02	 1.07023260E+03	 3.05339695E+01	 2.39309000E+02	 1.18977103E+03
					 4.42525000E+01	 1.21814000E+02	 5.73361000E+02	 3.53363000E-08	 6.71661000E-09	 3.34759000E+02	 7.62314834E+02	-1.17869403E+02	 1.21814000E+02	 7.35482903E+02
					 1.39315000E+02	 2.39309000E+02	 1.08099000E+03	 6.55427000E-09	-2.49332000E-09	 3.38038000E+02	 1.07023260E+03	 3.05339695E+01	 2.39309000E+02	 1.18977103E+03
					 2.27544000E+01	 1.14407000E+02	 5.53984000E+02	 7.95186000E-08	-1.08283000E-09	 2.60682000E+02	 6.67668951E+02	-8.37951818E+01	 1.14407000E+02	 6.60533582E+02
					 2.42329000E+02	 4.13358000E+02	 1.87918000E+03	 5.77042000E-08	-1.13359000E-08	 3.43517000E+02	 1.66811118E+03	 1.73159869E+02	 4.13358000E+02	 1.94834913E+03
					 2.27544000E+01	 1.14407000E+02	 5.53984000E+02	 7.95189000E-08	-1.08284000E-09	 2.60682000E+02	 6.67668951E+02	-8.37951818E+01	 1.14407000E+02	 6.60533582E+02
					 2.42329000E+02	 4.13358000E+02	 1.87918000E+03	 5.77037000E-08	-1.13359000E-08	 3.43517000E+02	 1.66811118E+03	 1.73159869E+02	 4.13358000E+02	 1.94834913E+03
					 1.92523000E+01	 1.12790000E+02	 5.45104000E+02	 5.09061000E-08	 1.21427000E-08	 1.87055000E+02	 5.83995781E+02	-4.04975008E+01	 1.12790000E+02	 6.04853801E+02
					 3.07152000E+02	 5.39146000E+02	 2.47518000E+03	 6.98261000E-09	 2.45565000E-08	 3.13306000E+02	 2.13205982E+03	 2.62783529E+02	 5.39146000E+02	 2.51954847E+03
					 1.92523000E+01	 1.12790000E+02	 5.45104000E+02	 5.09059000E-08	 1.21427000E-08	 1.87055000E+02	 5.83995781E+02	-4.04975008E+01	 1.12790000E+02	 6.04853801E+02
					 3.07152000E+02	 5.39146000E+02	 2.47518000E+03	 6.98223000E-09	 2.45565000E-08	 3.13306000E+02	 2.13205982E+03	 2.62783529E+02	 5.39146000E+02	 2.51954847E+03
					 1.08510000E+01	 1.13069000E+02	 5.51692000E+02	-5.99734000E-09	 1.57422000E-08	 1.20939000E+02	 5.39956060E+02	-1.49606531E+01	 1.13069000E+02	 5.77503653E+02
					 3.48535000E+02	 6.20648000E+02	 2.86648000E+03	 3.11810000E-09	 8.03312000E-09	 2.52770000E+02	 2.43322933E+03	 3.23410764E+02	 6.20648000E+02	 2.89160424E+03
					 1.08510000E+01	 1.13069000E+02	 5.51692000E+02	-5.99748000E-09	 1.57422000E-08	 1.20939000E+02	 5.39956060E+02	-1.49606531E+01	 1.13069000E+02	 5.77503653E+02
					 3.48535000E+02	 6.20648000E+02	 2.86648000E+03	 3.11693000E-09	 8.03323000E-09	 2.52770000E+02	 2.43322933E+03	 3.23410764E+02	 6.20648000E+02	 2.89160424E+03
					-2.91988000E+01	 1.12542000E+02	 5.88270000E+02	 5.64030000E-08	-1.39664000E-08	 6.00689000E+01	 5.69791602E+02	-3.49881709E+01	 1.12542000E+02	 5.94059371E+02
					 3.16446000E+02	 6.49064000E+02	 3.05356000E+03	 3.67501000E-08	-2.14872000E-08	 1.71707000E+02	 2.60393246E+03	 3.05716389E+02	 6.49064000E+02	 3.06428961E+03
					-2.91988000E+01	 1.12542000E+02	 5.88270000E+02	 5.64038000E-08	-1.39664000E-08	 6.00689000E+01	 5.69791602E+02	-3.49881709E+01	 1.12542000E+02	 5.94059371E+02
					 3.16446000E+02	 6.49064000E+02	 3.05356000E+03	 3.67506000E-08	-2.14872000E-08	 1.71707000E+02	 2.60393246E+03	 3.05716389E+02	 6.49064000E+02	 3.06428961E+03
					-4.56395000E+01	 1.11557000E+02	 6.00125000E+02	 8.98150000E-08	-1.67252000E-08	-6.77974000E+00	 5.83393953E+02	-4.57106712E+01	 1.11557000E+02	 6.00196171E+02
					 3.06206000E+02	 6.45820000E+02	 3.04655000E+03	 7.41966000E-08	 1.07968000E-08	 7.73112000E+01	 2.59077108E+03	 3.04026612E+02	 6.45820000E+02	 3.04872939E+03
					-4.56395000E+01	 1.11557000E+02	 6.00125000E+02	 8.98149000E-08	-1.67252000E-08	-6.77974000E+00	 5.83393953E+02	-4.57106712E+01	 1.11557000E+02	 6.00196171E+02
					 3.06206000E+02	 6.45820000E+02	 3.04655000E+03	 7.41967000E-08	 1.07967000E-08	 7.73112000E+01	 2.59077108E+03	 3.04026612E+02	 6.45820000E+02	 3.04872939E+03
					-2.15905000E+00	 1.07199000E+02	 5.35122000E+02	-1.02979000E-08	 3.13444000E-09	-7.36445000E+01	 5.08079363E+02	-1.20705741E+01	 1.07199000E+02	 5.45033524E+02
					 3.16420000E+02	 6.00858000E+02	 2.79217000E+03	-1.09349000E-08	 3.46329000E-08	-1.72045000E+01	 2.34668567E+03	 3.16300448E+02	 6.00858000E+02	 2.79228955E+03
					-2.15905000E+00	 1.07199000E+02	 5.35122000E+02	-1.03005000E-08	 3.13446000E-09	-7.36445000E+01	 5.08079363E+02	-1.20705741E+01	 1.07199000E+02	 5.45033524E+02
					 3.16420000E+02	 6.00858000E+02	 2.79217000E+03	-1.09327000E-08	 3.46329000E-08	-1.72045000E+01	 2.34668567E+03	 3.16300448E+02	 6.00858000E+02	 2.79228955E+03
					 6.72216000E+00	 9.38508000E+01	 4.60976000E+02	-3.71505000E-08	 4.30905000E-09	-1.26623000E+02	 4.71656214E+02	-2.61894208E+01	 9.38508000E+01	 4.93887581E+02
					 2.80651000E+02	 5.03683000E+02	 2.31092000E+03	-4.24058000E-08	 3.18605000E-09	-9.66604000E+01	 1.93570407E+03	 2.76059416E+02	 5.03683000E+02	 2.31551158E+03
					 6.72216000E+00	 9.38508000E+01	 4.60976000E+02	-3.71510000E-08	 4.30908000E-09	-1.26623000E+02	 4.71656214E+02	-2.61894208E+01	 9.38508000E+01	 4.93887581E+02
					 2.80651000E+02	 5.03683000E+02	 2.31092000E+03	-4.24048000E-08	 3.18603000E-09	-9.66604000E+01	 1.93570407E+03	 2.76059416E+02	 5.03683000E+02	 2.31551158E+03
					-1.10806000E+01	 8.53401000E+01	 4.38509000E+02	 1.79993000E-08	 1.40964000E-09	-1.55780000E+02	 4.90795519E+02	-5.97818887E+01	 8.53401000E+01	 4.87210289E+02
					 1.89146000E+02	 3.74461000E+02	 1.72554000E+03	 6.40724000E-09	-2.89469000E-09	-1.42488000E+02	 1.47344488E+03	 1.76043147E+02	 3.74461000E+02	 1.73864285E+03
					-1.10806000E+01	 8.53401000E+01	 4.38509000E+02	 1.80020000E-08	 1.40959000E-09	-1.55780000E+02	 4.90795519E+02	-5.97818887E+01	 8.53401000E+01	 4.87210289E+02
					 1.89146000E+02	 3.74461000E+02	 1.72554000E+03	 6.40590000E-09	-2.89468000E-09	-1.42488000E+02	 1.47344488E+03	 1.76043147E+02	 3.74461000E+02	 1.73864285E+03
					-8.87622000E+00	 8.93459000E+01	 4.58350000E+02	-9.92364000E-09	 3.77124000E-09	-1.49852000E+02	 4.99422508E+02	-5.28071733E+01	 8.93459000E+01	 5.02280953E+02
					 1.37148000E+02	 2.62280000E+02	 1.19566000E+03	-2.16297000E-08	 2.84690000E-08	-1.39758000E+02	 1.03065457E+03	 1.19006327E+02	 2.62280000E+02	 1.21380167E+03
					-8.87622000E+00	 8.93459000E+01	 4.58350000E+02	-9.92242000E-09	 3.77125000E-09	-1.49852000E+02	 4.99422508E+02	-5.28071733E+01	 8.93459000E+01	 5.02280953E+02
					 1.37148000E+02	 2.62280000E+02	 1.19566000E+03	-2.16294000E-08	 2.84690000E-08	-1.39758000E+02	 1.03065457E+03	 1.19006327E+02	 2.62280000E+02	 1.21380167E+03
					 1.49847000E+01	 1.03514000E+02	 5.06737000E+02	-5.25521000E-08	 1.03854000E-08	-1.15019000E+02	 4.95793693E+02	-1.05879509E+01	 1.03514000E+02	 5.32309651E+02
					 9.55425000E+01	 1.77891000E+02	 8.04019000E+02	-5.69128000E-08	 1.92609000E-08	-1.05578000E+02	 6.95570551E+02	 8.01438311E+01	 1.77891000E+02	 8.19417669E+02
					 1.49847000E+01	 1.03514000E+02	 5.06737000E+02	-5.25555000E-08	 1.03853000E-08	-1.15019000E+02	 4.95793693E+02	-1.05879509E+01	 1.03514000E+02	 5.32309651E+02
					 9.55425000E+01	 1.77891000E+02	 8.04019000E+02	-5.69131000E-08	 1.92611000E-08	-1.05578000E+02	 6.95570551E+02	 8.01438311E+01	 1.77891000E+02	 8.19417669E+02
					 1.75001000E+01	 1.12880000E+02	 5.51862000E+02	-7.66102000E-08	 6.96050000E-09	-7.08682000E+01	 5.08664414E+02	 8.26114874E+00	 1.12880000E+02	 5.61100951E+02
					 6.33121000E+01	 1.25447000E+02	 5.69054000E+02	-6.21292000E-08	-4.17451000E-08	-6.51987000E+01	 4.90880845E+02	 5.50421152E+01	 1.25447000E+02	 5.77323985E+02
					 1.75001000E+01	 1.12880000E+02	 5.51862000E+02	-7.66091000E-08	 6.96045000E-09	-7.08682000E+01	 5.08664414E+02	 8.26114874E+00	 1.12880000E+02	 5.61100951E+02
					 6.33121000E+01	 1.25447000E+02	 5.69054000E+02	-6.21295000E-08	-4.17450000E-08	-6.51987000E+01	 4.90880845E+02	 5.50421152E+01	 1.25447000E+02	 5.77323985E+02
					-5.60543000E+00	 1.08002000E+02	 5.50536000E+02	-2.35171000E-08	-1.89554000E-08	-3.52968000E+01	 5.12597046E+02	-7.83667117E+00	 1.08002000E+02	 5.52767241E+02
					 1.45334000E+01	 8.71588000E+01	 4.24175000E+02	 1.87759000E-08	-7.25499000E-08	-2.80853000E+01	 3.81702314E+02	 1.26168202E+01	 8.71588000E+01	 4.26091580E+02
					-5.60543000E+00	 1.08002000E+02	 5.50536000E+02	-2.35164000E-08	-1.89555000E-08	-3.52968000E+01	 5.12597046E+02	-7.83667117E+00	 1.08002000E+02	 5.52767241E+02
					 1.45334000E+01	 8.71588000E+01	 4.24175000E+02	 1.87739000E-08	-7.25498000E-08	-2.80853000E+01	 3.81702314E+02	 1.26168202E+01	 8.71588000E+01	 4.26091580E+02
					-4.65446000E+00	 9.20775000E+01	 4.68637000E+02	 1.97790000E-08	-1.69285000E-08	-1.16205000E+01	 4.33571881E+02	-4.93960082E+00	 9.20775000E+01	 4.68922141E+02
					 1.09764000E+01	 6.52022000E+01	 3.16611000E+02	 2.36519000E-08	-9.02527000E-08	-2.79983000E+00	 2.82494571E+02	 1.09507537E+01	 6.52022000E+01	 3.16636646E+02
					-4.65446000E+00	 9.20775000E+01	 4.68637000E+02	 1.97807000E-08	-1.69285000E-08	-1.16205000E+01	 4.33571881E+02	-4.93960082E+00	 9.20775000E+01	 4.68922141E+02
					 1.09764000E+01	 6.52022000E+01	 3.16611000E+02	 2.36552000E-08	-9.02528000E-08	-2.79983000E+00	 2.82494571E+02	 1.09507537E+01	 6.52022000E+01	 3.16636646E+02
					 2.10474000E+01	 7.05933000E+01	 3.33713000E+02	 1.34174000E-07	 1.09137000E-08	-6.35535000E-01	 2.91074710E+02	 2.10461082E+01	 7.05933000E+01	 3.33714292E+02
					 2.45452000E+01	 4.32215000E+01	 1.92154000E+02	 1.43348000E-07	-1.46878000E-07	 5.56135000E+00	 1.59386284E+02	 2.43608741E+01	 4.32215000E+01	 1.92338326E+02
					 2.10474000E+01	 7.05933000E+01	 3.33713000E+02	 1.34174000E-07	 1.09137000E-08	-6.35535000E-01	 2.91074710E+02	 2.10461082E+01	 7.05933000E+01	 3.33714292E+02
					 2.45452000E+01	 4.32215000E+01	 1.92154000E+02	 1.43349000E-07	-1.46879000E-07	 5.56135000E+00	 1.59386284E+02	 2.43608741E+01	 4.32215000E+01	 1.92338326E+02
					 7.77109000E+01	 6.98506000E+01	 2.72684000E+02	 3.00573000E-07	 1.93780000E-08	-7.03692000E+00	 1.99392567E+02	 6.98506000E+01	 7.74572552E+01	 2.72937645E+02
					 6.03983000E+01	 3.63649000E+01	 1.21607000E+02	 3.54799000E-07	-1.82693000E-07	-3.05669000E+01	 9.27263100E+01	 3.63649000E+01	 4.77480362E+01	 1.34257264E+02
					 7.77109000E+01	 6.98506000E+01	 2.72684000E+02	 3.00572000E-07	 1.93779000E-08	-7.03692000E+00	 1.99392567E+02	 6.98506000E+01	 7.74572552E+01	 2.72937645E+02
					 6.03983000E+01	 3.63649000E+01	 1.21607000E+02	 3.54799000E-07	-1.82693000E-07	-3.05669000E+01	 9.27263100E+01	 3.63649000E+01	 4.77480362E+01	 1.34257264E+02
					 1.85517000E+03	 1.66248000E+03	 7.20956000E+03	 0.00000000E+00	 0.00000000E+00	 2.59826000E+03	 7.07044724E+03	 8.01637444E+02	 1.66248000E+03	 8.26309256E+03
					 4.60151000E+02	 1.17809000E+03	 5.86943000E+03	 3.49024000E-08	 1.45671000E-08	 9.20476000E+02	 5.33235704E+03	 3.07807670E+02	 1.17809000E+03	 6.02177333E+03
					 1.85517000E+03	 1.66248000E+03	 7.20956000E+03	 0.00000000E+00	 0.00000000E+00	 2.59826000E+03	 7.07044724E+03	 8.01637444E+02	 1.66248000E+03	 8.26309256E+03