<?xml version="1.0"?>
<VTKFile type="UnstructuredGrid" version="0.1" byte_order="LittleEndian">
	<UnstructuredGrid>
		<Piece NumberOfPoints="126" NumberOfCells="40">
			<Points>
				<DataArray type="Float64" NumberOfComponents="3" format="ascii">
					 5.00000000E-02	 0.00000000E+00	 0.00000000E+00
					 0.00000000E+00	 0.00000000E+00	 0.00000000E+00
					 0.00000000E+00	 0.00000000E+00	 5.00000000E-02
					 5.00000000E-02	 0.00000000E+00	 5.00000000E-02
					 5.00000000E-02	 3.00000000E-01	 0.00000000E+00
					 0.00000000E+00	 3.00000000E-01	 0.00000000E+00
					 0.00000000E+00	 3.00000000E-01	 5.00000000E-02
					 5.00000000E-02	 3.00000000E-01	 5.00000000E-02
					 0.00000000E+00	 0.00000000E+00	 1.00000000E-01
					 5.00000000E-02	 0.00000000E+00	 1.00000000E-01
					 0.00000000E+00	 3.00000000E-01	 1.00000000E-01
					 5.00000000E-02	 3.00000000E-01	 1.00000000E-01
					 0.00000000E+00	 0.00000000E+00	 1.50000000E-01
					 5.00000000E-02	 0.00000000E+00	 1.50000000E-01
					 0.00000000E+00	 3.00000000E-01	 1.50000000E-01
					 5.00000000E-02	 3.00000000E-01	 1.50000000E-01
					 0.00000000E+00	 0.00000000E+00	 2.00000000E-01
					 5.00000000E-02	 0.00000000E+00	 2.00000000E-01
					 0.00000000E+00	 3.00000000E-01	 2.00000000E-01
					 5.00000000E-02	 3.00000000E-01	 2.00000000E-01
					 0.00000000E+00	 0.00000000E+00	 2.50000000E-01
					 5.00000000E-02	 0.00000000E+00	 2.50000000E-01
					 0.00000000E+00	 3.00000000E-01	 2.50000000E-01
					 5.00000000E-02	 3.00000000E-01	 2.50000000E-01
					 0.00000000E+00	 0.00000000E+00	 3.00000000E-01
					 5.00000000E-02	 0.00000000E+00	 3.00000000E-01
					 0.00000000E+00	 3.00000000E-01	 3.00000000E-01
					 5.00000000E-02	 3.00000000E-01	 3.00000000E-01
					 0.00000000E+00	 0.00000000E+00	 3.50000000E-01
					 5.00000000E-02	 0.00000000E+00	 3.50000000E-01
					 0.00000000E+00	 3.00000000E-01	 3.50000000E-01
					 5.00000000E-02	 3.00000000E-01	 3.50000000E-01
					 0.00000000E+00	 0.00000000E+00	 4.00000000E-01
					 5.00000000E-02	 0.00000000E+00	 4.00000000E-01
					 0.00000000E+00	 3.00000000E-01	 4.00000000E-01
					 5.00000000E-02	 3.00000000E-01	 4.00000000E-01
					 0.00000000E+00	 0.00000000E+00	 4.50000000E-01
					 5.00000000E-02	 0.00000000E+00	 4.50000000E-01
					 0.00000000E+00	 3.00000000E-01	 4.50000000E-01
					 5.00000000E-02	 3.00000000E-01	 4.50000000E-01
					 0.00000000E+00	 0.00000000E+00	 5.00000000E-01
					 5.00000000E-02	 0.00000000E+00	 5.00000000E-01
					 0.00000000E+00	 3.00000000E-01	 5.00000000E-01
					 5.00000000E-02	 3.00000000E-01	 5.00000000E-01
					 0.00000000E+00	 0.00000000E+00	 5.50000000E-01
					 5.00000000E-02	 0.00000000E+00	 5.50000000E-01
					 0.00000000E+00	 3.00000000E-01	 5.50000000E-01
					 5.00000000E-02	 3.00000000E-01	 5.50000000E-01
					 0.00000000E+00	 0.00000000E+00	 6.00000000E-01
					 5.00000000E-02	 0.00000000E+00	 6.00000000E-01
					 0.00000000E+00	 3.00000000E-01	 6.00000000E-01
					 5.00000000E-02	 3.00000000E-01	 6.00000000E-01
					 0.00000000E+00	 0.00000000E+00	 6.50000000E-01
					 5.00000000E-02	 0.00000000E+00	 6.50000000E-01
					 0.00000000E+00	 3.00000000E-01	 6.50000000E-01
					 5.00000000E-02	 3.00000000E-01	 6.50000000E-01
					 0.00000000E+00	 0.00000000E+00	 7.00000000E-01
					 5.00000000E-02	 0.00000000E+00	 7.00000000E-01
					 0.00000000E+00	 3.00000000E-01	 7.00000000E-01
					 5.00000000E-02	 3.00000000E-01	 7.00000000E-01
					 0.00000000E+00	 0.00000000E+00	 7.50000000E-01
					 5.00000000E-02	 0.00000000E+00	 7.50000000E-01
					 0.00000000E+00	 3.00000000E-01	 7.50000000E-01
					 5.00000000E-02	 3.00000000E-01	 7.50000000E-01
					 0.00000000E+00	 0.00000000E+00	 8.00000000E-01
					 5.00000000E-02	 0.00000000E+00	 8.00000000E-01
					 0.00000000E+00	 3.00000000E-01	 8.00000000E-01
					 5.00000000E-02	 3.00000000E-01	 8.00000000E-01
					 0.00000000E+00	 0.00000000E+00	 8.50000000E-01
					 5.00000000E-02	 0.00000000E+00	 8.50000000E-01
					 0.00000000E+00	 3.00000000E-01	 8.50000000E-01
					 5.00000000E-02	 3.00000000E-01	 8.50000000E-01
					 0.00000000E+00	 0.00000000E+00	 9.00000000E-01
					 5.00000000E-02	 0.00000000E+00	 9.00000000E-01
					 0.00000000E+00	 3.00000000E-01	 9.00000000E-01
					 5.00000000E-02	 3.00000000E-01	 9.00000000E-01
					 0.00000000E+00	 0.00000000E+00	 9.50000000E-01
					 5.00000000E-02	 0.00000000E+00	 9.50000000E-01
					 0.00000000E+00	 3.00000000E-01	 9.50000000E-01
					 5.00000000E-02	 3.00000000E-01	 9.50000000E-01
					 0.00000000E+00	 0.00000000E+00	 1.00000000E+00
					 5.00000000E-02	 0.00000000E+00	 1.00000000E+00
					 0.00000000E+00	 3.00000000E-01	 1.00000000E+00
					 5.00000000E-02	 3.00000000E-01	 1.00000000E+00
					-5.00000000E-02	 0.00000000E+00	 0.00000000E+00
					-5.00000000E-02	 0.00000000E+00	 5.00000000E-02
					-5.00000000E-02	 3.00000000E-01	 0.00000000E+00
					-5.00000000E-02	 3.00000000E-01	 5.00000000E-02
					-5.00000000E-02	 0.00000000E+00	 1.00000000E-01
					-5.00000000E-02	 3.00000000E-01	 1.00000000E-01
					-5.00000000E-02	 0.00000000E+00	 1.50000000E-01
					-5.00000000E-02	 3.00000000E-01	 1.50000000E-01
					-5.00000000E-02	 0.00000000E+00	 2.00000000E-01
					-5.00000000E-02	 3.00000000E-01	 2.00000000E-01
					-5.00000000E-02	 0.00000000E+00	 2.50000000E-01
					-5.00000000E-02	 3.00000000E-01	 2.50000000E-01
					-5.00000000E-02	 0.00000000E+00	 3.00000000E-01
					-5.00000000E-02	 3.00000000E-01	 3.00000000E-01
					-5.00000000E-02	 0.00000000E+00	 3.50000000E-01
					-5.00000000E-02	 3.00000000E-01	 3.50000000E-01
					-5.00000000E-02	 0.00000000E+00	 4.00000000E-01
					-5.00000000E-02	 3.00000000E-01	 4.00000000E-01
					-5.00000000E-02	 0.00000000E+00	 4.50000000E-01
					-5.00000000E-02	 3.00000000E-01	 4.50000000E-01
					-5.00000000E-02	 0.00000000E+00	 5.00000000E-01
					-5.00000000E-02	 3.00000000E-01	 5.00000000E-01
					-5.00000000E-02	 0.00000000E+00	 5.50000000E-01
					-5.00000000E-02	 3.00000000E-01	 5.50000000E-01
					-5.00000000E-02	 0.00000000E+00	 6.00000000E-01
					-5.00000000E-02	 3.00000000E-01	 6.00000000E-01
					-5.00000000E-02	 0.00000000E+00	 6.50000000E-01
					-5.00000000E-02	 3.00000000E-01	 6.50000000E-01
					-5.00000000E-02	 0.00000000E+00	 7.00000000E-01
					-5.00000000E-02	 3.00000000E-01	 7.00000000E-01
					-5.00000000E-02	 0.00000000E+00	 7.50000000E-01
					-5.00000000E-02	 3.00000000E-01	 7.50000000E-01
					-5.00000000E-02	 0.00000000E+00	 8.00000000E-01
					-5.00000000E-02	 3.00000000E-01	 8.00000000E-01
					-5.00000000E-02	 0.00000000E+00	 8.50000000E-01
					-5.00000000E-02	 3.00000000E-01	 8.50000000E-01
					-5.00000000E-02	 0.00000000E+00	 9.00000000E-01
					-5.00000000E-02	 3.00000000E-01	 9.00000000E-01
					-5.00000000E-02	 0.00000000E+00	 9.50000000E-01
					-5.00000000E-02	 3.00000000E-01	 9.50000000E-01
					-5.00000000E-02	 0.00000000E+00	 1.00000000E+00
					-5.00000000E-02	 3.00000000E-01	 1.00000000E+00

				</DataArray>
			</Points>
			<Cells>
				<DataArray type="Int32" Name="connectivity" format="ascii">
					0 1 2 3 4 5 6 7 3 2 8 9 7 6 10 11 9 8 12 13 11 10 14 15 13 12 16 17 15 14 18 19 17 16 20 21 19 18 22 23 21 20 24 25 23 22 26 27 25 24 28 29 27 26 30 31 29 28 32 33 31 30 34 35 33 32 36 37 35 34 38 39 37 36 40 41 39 38 42 43 41 40 44 45 43 42 46 47 45 44 48 49 47 46 50 51 49 48 52 53 51 50 54 55 53 52 56 57 55 54 58 59 57 56 60 61 59 58 62 63 61 60 64 65 63 62 66 67 65 64 68 69 67 66 70 71 69 68 72 73 71 70 74 75 73 72 76 77 75 74 78 79 77 76 80 81 79 78 82 83 1 84 85 2 5 86 87 6 2 85 88 8 6 87 89 10 8 88 90 12 10 89 91 14 12 90 92 16 14 91 93 18 16 92 94 20 18 93 95 22 20 94 96 24 22 95 97 26 24 96 98 28 26 97 99 30 28 98 100 32 30 99 101 34 32 100 102 36 34 101 103 38 36 102 104 40 38 103 105 42 40 104 106 44 42 105 107 46 44 106 108 48 46 107 109 50 48 108 110 52 50 109 111 54 52 110 112 56 54 111 113 58 56 112 114 60 58 113 115 62 60 114 116 64 62 115 117 66 64 116 118 68 66 117 119 70 68 118 120 72 70 119 121 74 72 120 122 76 74 121 123 78 76 122 124 80 78 123 125 82 
				</DataArray>
				<DataArray type="Int32" Name="offsets" format="ascii">
					8 16 24 32 40 48 56 64 72 80 88 96 104 112 120 128 136 144 152 160 168 176 184 192 200 208 216 224 232 240 248 256 264 272 280 288 296 304 312 320 
				</DataArray>
				<DataArray type="UInt8" Name="types" format="ascii">
					12 12 12 12 12 12 12 12 12 12 12 12 12 12 12 12 12 12 12 12 12 12 12 12 12 12 12 12 12 12 12 12 12 12 12 12 12 12 12 12 
				</DataArray>
			</Cells>
			<PointData>
				<DataArray type="Float32" Name="U" NumberOfComponents="3" ComponentName0="D1" ComponentName1="D2" ComponentName2="D3" format="ascii">
					 0.00000000E+00	 0.00000000E+00	 0.00000000E+00
					 0.00000000E+00	 0.00000000E+00	 0.00000000E+00
					 1.41084000E-03	 0.00000000E+00	 1.81555000E-04
					 1.55795000E-03	 0.00000000E+00	-1.52819000E-03
					 0.00000000E+00	 0.00000000E+00	 0.00000000E+00
					 0.00000000E+00	 0.00000000E+00	 0.00000000E+00
					 1.41084000E-03	 0.00000000E+00	 1.81555000E-04
					 1.55795000E-03	 0.00000000E+00	-1.52819000E-03
					 4.31238000E-03	 0.00000000E+00	 3.16479000E-04
					 4.28362000E-03	 0.00000000E+00	-2.50501000E-03
					 4.31238000E-03	 0.00000000E+00	 3.16479000E-04
					 4.28362000E-03	 0.00000000E+00	-2.50501000E-03
					 7.88839000E-03	 0.00000000E+00	 3.80654000E-04
					 7.77880000E-03	 0.00000000E+00	-2.98234000E-03
					 7.88839000E-03	 0.00000000E+00	 3.80654000E-04
					 7.77880000E-03	 0.00000000E+00	-2.98234000E-03
					 1.17018000E-02	 0.00000000E+00	 4.33973000E-04
					 1.15286000E-02	 0.00000000E+00	-3.04606000E-03
					 1.17018000E-02	 0.00000000E+00	 4.33973000E-04
					 1.15286000E-02	 0.00000000E+00	-3.04606000E-03
					 1.53807000E-02	 0.00000000E+00	 5.26134000E-04
					 1.51789000E-02	 0.00000000E+00	-2.75004000E-03
					 1.53807000E-02	 0.00000000E+00	 5.26134000E-04
					 1.51789000E-02	 0.00000000E+00	-2.75004000E-03
					 1.86551000E-02	 0.00000000E+00	 6.83218000E-04
					 1.84523000E-02	 0.00000000E+00	-2.16178000E-03
					 1.86551000E-02	 0.00000000E+00	 6.83218000E-04
					 1.84523000E-02	 0.00000000E+00	-2.16178000E-03
					 2.13496000E-02	 0.00000000E+00	 9.08336000E-04
					 2.11473000E-02	 0.00000000E+00	-1.37814000E-03
					 2.13496000E-02	 0.00000000E+00	 9.08336000E-04
					 2.11473000E-02	 0.00000000E+00	-1.37814000E-03
					 2.33764000E-02	 0.00000000E+00	 1.17809000E-03
					 2.31989000E-02	 0.00000000E+00	-4.98266000E-04
					 2.33764000E-02	 0.00000000E+00	 1.17809000E-03
					 2.31989000E-02	 0.00000000E+00	-4.98266000E-04
					 2.47079000E-02	 0.00000000E+00	 1.45633000E-03
					 2.45672000E-02	 0.00000000E+00	 3.91944000E-04
					 2.47079000E-02	 0.00000000E+00	 1.45633000E-03
					 2.45672000E-02	 0.00000000E+00	 3.91944000E-04
					 2.54063000E-02	 0.00000000E+00	 1.71180000E-03
					 2.52951000E-02	 0.00000000E+00	 1.19440000E-03
					 2.54063000E-02	 0.00000000E+00	 1.71180000E-03
					 2.52951000E-02	 0.00000000E+00	 1.19440000E-03
					 2.55784000E-02	 0.00000000E+00	 1.93338000E-03
					 2.54898000E-02	 0.00000000E+00	 1.83062000E-03
					 2.55784000E-02	 0.00000000E+00	 1.93338000E-03
					 2.54898000E-02	 0.00000000E+00	 1.83062000E-03
					 2.53818000E-02	 0.00000000E+00	 2.11549000E-03
					 2.53428000E-02	 0.00000000E+00	 2.29097000E-03
					 2.53818000E-02	 0.00000000E+00	 2.11549000E-03
					 2.53428000E-02	 0.00000000E+00	 2.29097000E-03
					 2.49961000E-02	 0.00000000E+00	 2.25469000E-03
					 2.49733000E-02	 0.00000000E+00	 2.58320000E-03
					 2.49961000E-02	 0.00000000E+00	 2.25469000E-03
					 2.49733000E-02	 0.00000000E+00	 2.58320000E-03
					 2.45628000E-02	 0.00000000E+00	 2.37703000E-03
					 2.45475000E-02	 0.00000000E+00	 2.72695000E-03
					 2.45628000E-02	 0.00000000E+00	 2.37703000E-03
					 2.45475000E-02	 0.00000000E+00	 2.72695000E-03
					 2.41890000E-02	 0.00000000E+00	 2.49158000E-03
					 2.41926000E-02	 0.00000000E+00	 2.77610000E-03
					 2.41890000E-02	 0.00000000E+00	 2.49158000E-03
					 2.41926000E-02	 0.00000000E+00	 2.77610000E-03
					 2.39248000E-02	 0.00000000E+00	 2.57969000E-03
					 2.39457000E-02	 0.00000000E+00	 2.78279000E-03
					 2.39248000E-02	 0.00000000E+00	 2.57969000E-03
					 2.39457000E-02	 0.00000000E+00	 2.78279000E-03
					 2.37598000E-02	 0.00000000E+00	 2.65663000E-03
					 2.37831000E-02	 0.00000000E+00	 2.80327000E-03
					 2.37598000E-02	 0.00000000E+00	 2.65663000E-03
					 2.37831000E-02	 0.00000000E+00	 2.80327000E-03
					 2.36526000E-02	 0.00000000E+00	 2.73305000E-03
					 2.36729000E-02	 0.00000000E+00	 2.83345000E-03
					 2.36526000E-02	 0.00000000E+00	 2.73305000E-03
					 2.36729000E-02	 0.00000000E+00	 2.83345000E-03
					 2.35746000E-02	 0.00000000E+00	 2.80392000E-03
					 2.35986000E-02	 0.00000000E+00	 2.86937000E-03
					 2.35746000E-02	 0.00000000E+00	 2.80392000E-03
					 2.35986000E-02	 0.00000000E+00	 2.86937000E-03
					 2.35133000E-02	 0.00000000E+00	 2.87129000E-03
					 2.35438000E-02	 0.00000000E+00	 2.88490000E-03
					 2.35133000E-02	 0.00000000E+00	 2.87129000E-03
					 2.35438000E-02	 0.00000000E+00	 2.88490000E-03
					 0.00000000E+00	 0.00000000E+00	 0.00000000E+00
					 1.76172000E-03	 0.00000000E+00	 1.88868000E-03
					 0.00000000E+00	 0.00000000E+00	 0.00000000E+00
					 1.76172000E-03	 0.00000000E+00	 1.88868000E-03
					 4.56349000E-03	 0.00000000E+00	 3.11257000E-03
					 4.56349000E-03	 0.00000000E+00	 3.11257000E-03
					 8.11590000E-03	 0.00000000E+00	 3.73724000E-03
					 8.11590000E-03	 0.00000000E+00	 3.73724000E-03
					 1.18973000E-02	 0.00000000E+00	 3.91956000E-03
					 1.18973000E-02	 0.00000000E+00	 3.91956000E-03
					 1.55332000E-02	 0.00000000E+00	 3.81327000E-03
					 1.55332000E-02	 0.00000000E+00	 3.81327000E-03
					 1.87737000E-02	 0.00000000E+00	 3.54728000E-03
					 1.87737000E-02	 0.00000000E+00	 3.54728000E-03
					 2.14337000E-02	 0.00000000E+00	 3.20768000E-03
					 2.14337000E-02	 0.00000000E+00	 3.20768000E-03
					 2.34321000E-02	 0.00000000E+00	 2.84564000E-03
					 2.34321000E-02	 0.00000000E+00	 2.84564000E-03
					 2.47336000E-02	 0.00000000E+00	 2.51200000E-03
					 2.47336000E-02	 0.00000000E+00	 2.51200000E-03
					 2.54361000E-02	 0.00000000E+00	 2.22732000E-03
					 2.54361000E-02	 0.00000000E+00	 2.22732000E-03
					 2.56109000E-02	 0.00000000E+00	 2.01141000E-03
					 2.56109000E-02	 0.00000000E+00	 2.01141000E-03
					 2.54052000E-02	 0.00000000E+00	 1.91679000E-03
					 2.54052000E-02	 0.00000000E+00	 1.91679000E-03
					 2.50310000E-02	 0.00000000E+00	 1.93503000E-03
					 2.50310000E-02	 0.00000000E+00	 1.93503000E-03
					 2.46236000E-02	 0.00000000E+00	 2.03369000E-03
					 2.46236000E-02	 0.00000000E+00	 2.03369000E-03
					 2.42323000E-02	 0.00000000E+00	 2.19007000E-03
					 2.42323000E-02	 0.00000000E+00	 2.19007000E-03
					 2.39530000E-02	 0.00000000E+00	 2.35237000E-03
					 2.39530000E-02	 0.00000000E+00	 2.35237000E-03
					 2.37768000E-02	 0.00000000E+00	 2.50840000E-03
					 2.37768000E-02	 0.00000000E+00	 2.50840000E-03
					 2.36668000E-02	 0.00000000E+00	 2.63087000E-03
					 2.36668000E-02	 0.00000000E+00	 2.63087000E-03
					 2.35760000E-02	 0.00000000E+00	 2.72346000E-03
					 2.35760000E-02	 0.00000000E+00	 2.72346000E-03
					 2.34947000E-02	 0.00000000E+00	 2.77807000E-03
					 2.34947000E-02	 0.00000000E+00	 2.77807000E-03
				</DataArray>
				<DataArray type="Float32" Name="S" NumberOfComponents="10" ComponentName0="xx" ComponentName1="yy" ComponentName2="zz" ComponentName3="xy" ComponentName4="yz" ComponentName5="zx" ComponentName6="Mises" ComponentName7="Min Principal" ComponentName8="Mid Principal" ComponentName9="Max Principal" format="ascii">
					-9.32343000E+02	-1.01803000E+03	-3.88748000E+03	 0.00000000E+00	 0.00000000E+00	 1.43876000E+03	 3.83367332E+03	-4.47224974E+03	-1.01803000E+03	-3.47573262E+02
					 2.02511000E+02	 1.34010000E+02	 4.77862000E+02	 0.00000000E+00	 0.00000000E+00	 1.42225000E+03	 2.48349704E+03	-1.08871154E+03	 1.34010000E+02	 1.76908454E+03
					 5.00767000E+00	 9.13043000E+01	 4.40570000E+02	-2.78737000E-08	-7.48880000E-09	 4.57894000E+02	 8.88017363E+02	-2.84257071E+02	 9.13043000E+01	 7.29834741E+02
					-2.87721000E+02	-6.88918000E+02	-3.02953000E+03	-1.99812000E-08	 1.05077000E-09	 3.69975000E+02	 2.64369336E+03	-3.07857643E+03	-6.88918000E+02	-2.38674568E+02
					-9.32343000E+02	-1.01803000E+03	-3.88748000E+03	 0.00000000E+00	 0.00000000E+00	 1.43876000E+03	 3.83367332E+03	-4.47224974E+03	-1.01803000E+03	-3.47573262E+02
					 2.02511000E+02	 1.34010000E+02	 4.77862000E+02	 0.00000000E+00	 0.00000000E+00	 1.42225000E+03	 2.48349704E+03	-1.08871154E+03	 1.34010000E+02	 1.76908454E+03
					 5.00767000E+00	 9.13043000E+01	 4.40570000E+02	-2.78737000E-08	-7.48876000E-09	 4.57894000E+02	 8.88017363E+02	-2.84257071E+02	 9.13043000E+01	 7.29834741E+02
					-2.87721000E+02	-6.88918000E+02	-3.02953000E+03	-1.99812000E-08	 1.05070000E-09	 3.69975000E+02	 2.64369336E+03	-3.07857643E+03	-6.88918000E+02	-2.38674568E+02
					 3.34741000E+01	 9.62013000E+01	 4.45703000E+02	-3.29950000E-08	-7.77813000E-09	 4.45360000E+02	 8.62001155E+02	-2.51154454E+02	 9.62013000E+01	 7.30331554E+02
					-2.45656000E+02	-3.86859000E+02	-1.64929000E+03	-4.17416000E-08	 2.62073000E-08	 2.43915000E+02	 1.40371398E+03	-1.69046804E+03	-3.86859000E+02	-2.04477961E+02
					 3.34741000E+01	 9.62013000E+01	 4.45703000E+02	-3.29951000E-08	-7.77815000E-09	 4.45360000E+02	 8.62001155E+02	-2.51154454E+02	 9.62013000E+01	 7.30331554E+02
					-2.45656000E+02	-3.86859000E+02	-1.64929000E+03	-4.17416000E-08	 2.62074000E-08	 2.43915000E+02	 1.40371398E+03	-1.69046804E+03	-3.86859000E+02	-2.04477961E+02
					 3.24283000E+01	 9.30794000E+01	 4.37782000E+02	-1.11343000E-08	 6.15451000E-09	 3.52052000E+02	 7.17793050E+02	-1.71119561E+02	 9.30794000E+01	 6.41329861E+02
					-4.55524000E+01	-9.04332000E+01	-4.00086000E+02	-7.49193000E-08	 1.02817000E-08	 2.47242000E+02	 5.43306937E+02	-5.27043007E+02	-9.04332000E+01	 8.14046073E+01
					 3.24283000E+01	 9.30794000E+01	 4.37782000E+02	-1.11343000E-08	 6.15449000E-09	 3.52052000E+02	 7.17793050E+02	-1.71119561E+02	 9.30794000E+01	 6.41329861E+02
					-4.55524000E+01	-9.04332000E+01	-4.00086000E+02	-7.49191000E-08	 1.02817000E-08	 2.47242000E+02	 5.43306937E+02	-5.27043007E+02	-9.04332000E+01	 8.14046073E+01
					 1.45827000E+01	 1.00017000E+02	 4.91919000E+02	 4.83281000E-08	 5.31343000E-09	 2.82929000E+02	 6.59177159E+02	-1.16899531E+02	 1.00017000E+02	 6.23401231E+02
					 6.28621000E+01	 1.33549000E+02	 6.15580000E+02	 1.80403000E-08	-2.92116000E-08	 2.41884000E+02	 6.68541254E+02	-2.80419875E+01	 1.33549000E+02	 7.06484087E+02
					 1.45827000E+01	 1.00017000E+02	 4.91919000E+02	 4.83281000E-08	 5.31341000E-09	 2.82929000E+02	 6.59177159E+02	-1.16899531E+02	 1.00017000E+02	 6.23401231E+02
					 6.28621000E+01	 1.33549000E+02	 6.15580000E+02	 1.80404000E-08	-2.92115000E-08	 2.41884000E+02	 6.68541254E+02	-2.80419875E+01	 1.33549000E+02	 7.06484087E+02
					 8.29302000E+00	 1.17548000E+02	 5.85699000E+02	 2.94854000E-08	-1.67668000E-08	 2.16196000E+02	 6.49978437E+02	-6.36840793E+01	 1.17548000E+02	 6.57676099E+02
					 1.50711000E+02	 3.10558000E+02	 1.43530000E+03	 1.37282000E-08	-3.00240000E-08	 2.31763000E+02	 1.27731145E+03	 1.10175863E+02	 3.10558000E+02	 1.47583514E+03
					 8.29302000E+00	 1.17548000E+02	 5.85699000E+02	 2.94857000E-08	-1.67668000E-08	 2.16196000E+02	 6.49978437E+02	-6.36840793E+01	 1.17548000E+02	 6.57676099E+02
					 1.50711000E+02	 3.10558000E+02	 1.43530000E+03	 1.37281000E-08	-3.00240000E-08	 2.31763000E+02	 1.27731145E+03	 1.10175863E+02	 3.10558000E+02	 1.47583514E+03
					-4.53988000E+00	 1.34412000E+02	 6.82452000E+02	 4.76534000E-08	-1.17633000E-08	 1.50974000E+02	 6.81312044E+02	-3.62540271E+01	 1.34412000E+02	 7.14166147E+02
					 2.12242000E+02	 4.33716000E+02	 2.01532000E+03	 2.43801000E-09	-2.89679000E-08	 1.94494000E+02	 1.73617103E+03	 1.91500953E+02	 4.33716000E+02	 2.03606105E+03
					-4.53988000E+00	 1.34412000E+02	 6.82452000E+02	 4.76536000E-08	-1.17633000E-08	 1.50974000E+02	 6.81312044E+02	-3.62540271E+01	 1.34412000E+02	 7.14166147E+02
					 2.12242000E+02	 4.33716000E+02	 2.01532000E+03	 2.43751000E-09	-2.89679000E-08	 1.94494000E+02	 1.73617103E+03	 1.91500953E+02	 4.33716000E+02	 2.03606105E+03
					-2.76358000E+01	 1.42340000E+02	 7.44910000E+02	 9.22506000E-08	-3.23139000E-09	 8.60860000E+01	 7.18774717E+02	-3.71122559E+01	 1.42340000E+02	 7.54386456E+02
					 2.05850000E+02	 4.90432000E+02	 2.32185000E+03	 7.45405000E-08	 6.12700000E-09	 1.38075000E+02	 2.00336255E+03	 1.96878255E+02	 4.90432000E+02	 2.33082175E+03
					-2.76358000E+01	 1.42340000E+02	 7.44910000E+02	 9.22504000E-08	-3.23137000E-09	 8.60860000E+01	 7.18774717E+02	-3.71122559E+01	 1.42340000E+02	 7.54386456E+02
					 2.05850000E+02	 4.90432000E+02	 2.32185000E+03	 7.45405000E-08	 6.12697000E-09	 1.38075000E+02	 2.00336255E+03	 1.96878255E+02	 4.90432000E+02	 2.33082175E+03
					-2.86030000E+01	 1.43130000E+02	 7.49329000E+02	 7.16951000E-09	-6.15435000E-09	 2.01991000E+01	 7.08729733E+02	-2.91271190E+01	 1.43130000E+02	 7.49853119E+02
					 2.19298000E+02	 5.08393000E+02	 2.40267000E+03	-1.46078000E-08	 3.41394000E-08	 7.12622000E+01	 2.05784406E+03	 2.16974574E+02	 5.08393000E+02	 2.40499343E+03
					-2.86030000E+01	 1.43130000E+02	 7.49329000E+02	 7.16949000E-09	-6.15428000E-09	 2.01991000E+01	 7.08729733E+02	-2.91271190E+01	 1.43130000E+02	 7.49853119E+02
					 2.19298000E+02	 5.08393000E+02	 2.40267000E+03	-1.46080000E-08	 3.41394000E-08	 7.12622000E+01	 2.05784406E+03	 2.16974574E+02	 5.08393000E+02	 2.40499343E+03
					-4.44231000E+00	 1.37388000E+02	 6.95362000E+02	-5.45498000E-08	 2.77215000E-09	-3.81251000E+01	 6.44165364E+02	-6.51322403E+00	 1.37388000E+02	 6.97432914E+02
					 2.30214000E+02	 4.83801000E+02	 2.25941000E+03	-7.29496000E-08	 2.37200000E-08	 5.04996000E+00	 1.91505654E+03	 2.30201432E+02	 4.83801000E+02	 2.25942257E+03
					-4.44231000E+00	 1.37388000E+02	 6.95362000E+02	-5.45499000E-08	 2.77210000E-09	-3.81251000E+01	 6.44165364E+02	-6.51322403E+00	 1.37388000E+02	 6.97432914E+02
					 2.30214000E+02	 4.83801000E+02	 2.25941000E+03	-7.29493000E-08	 2.37200000E-08	 5.04996000E+00	 1.91505654E+03	 2.30201432E+02	 4.83801000E+02	 2.25942257E+03
					-1.88088000E+01	 1.15518000E+02	 5.99616000E+02	-7.02903000E-08	 4.31631000E-09	-7.87034000E+01	 5.79659015E+02	-2.86677611E+01	 1.15518000E+02	 6.09474961E+02
					 1.93674000E+02	 4.07602000E+02	 1.89508000E+03	-3.46624000E-08	 8.93418000E-09	-4.82938000E+01	 1.60734752E+03	 1.92304300E+02	 4.07602000E+02	 1.89644970E+03
					-1.88088000E+01	 1.15518000E+02	 5.99616000E+02	-7.02908000E-08	 4.31641000E-09	-7.87034000E+01	 5.79659015E+02	-2.86677611E+01	 1.15518000E+02	 6.09474961E+02
					 1.93674000E+02	 4.07602000E+02	 1.89508000E+03	-3.46631000E-08	 8.93407000E-09	-4.82938000E+01	 1.60734752E+03	 1.92304300E+02	 4.07602000E+02	 1.89644970E+03
					-2.49016000E+01	 9.45022000E+01	 5.00234000E+02	-4.52607000E-08	 5.44068000E-09	-1.02929000E+02	 5.09023199E+02	-4.43554811E+01	 9.45022000E+01	 5.19687881E+02
					 1.30864000E+02	 3.05907000E+02	 1.42821000E+03	-5.44403000E-08	-1.36835000E-08	-7.90797000E+01	 1.22695402E+03	 1.26061476E+02	 3.05907000E+02	 1.43301252E+03
					-2.49016000E+01	 9.45022000E+01	 5.00234000E+02	-4.52620000E-08	 5.44065000E-09	-1.02929000E+02	 5.09023199E+02	-4.43554811E+01	 9.45022000E+01	 5.19687881E+02
					 1.30864000E+02	 3.05907000E+02	 1.42821000E+03	-5.44378000E-08	-1.36834000E-08	-7.90797000E+01	 1.22695402E+03	 1.26061476E+02	 3.05907000E+02	 1.43301252E+03
					 2.68837000E+01	 8.70873000E+01	 4.10824000E+02	-1.45892000E-08	-2.45958000E-09	-1.05542000E+02	 4.01668247E+02	-2.16121139E-01	 8.70873000E+01	 4.37923821E+02
					 1.48861000E+02	 2.24923000E+02	 9.90543000E+02	-2.57991000E-08	-3.08838000E-08	-8.54167000E+01	 8.19806098E+02	 1.40280110E+02	 2.24923000E+02	 9.99123890E+02
					 2.68837000E+01	 8.70873000E+01	 4.10824000E+02	-1.45898000E-08	-2.45952000E-09	-1.05542000E+02	 4.01668247E+02	-2.16121139E-01	 8.70873000E+01	 4.37923821E+02
					 1.48861000E+02	 2.24923000E+02	 9.90543000E+02	-2.57988000E-08	-3.08838000E-08	-8.54167000E+01	 8.19806098E+02	 1.40280110E+02	 2.24923000E+02	 9.99123890E+02
					 1.56691000E+01	 6.97448000E+01	 3.34886000E+02	 6.63168000E-09	-1.07633000E-08	-8.69663000E+01	 3.32040879E+02	-6.48601799E+00	 6.97448000E+01	 3.57041118E+02
					 8.96289000E+01	 1.31717000E+02	 5.74401000E+02	 0.00000000E+00	-4.13237000E-08	-7.13634000E+01	 4.81300805E+02	 7.93417775E+01	 1.31717000E+02	 5.84688122E+02
					 1.56691000E+01	 6.97448000E+01	 3.34886000E+02	 6.63167000E-09	-1.07632000E-08	-8.69663000E+01	 3.32040879E+02	-6.48601799E+00	 6.97448000E+01	 3.57041118E+02
					 8.96289000E+01	 1.31717000E+02	 5.74401000E+02	 0.00000000E+00	-4.13239000E-08	-7.13634000E+01	 4.81300805E+02	 7.93417775E+01	 1.31717000E+02	 5.84688122E+02
					-1.70733000E+01	 5.54854000E+01	 2.96113000E+02	 6.34421000E-08	 4.26873000E-09	-5.82692000E+01	 3.01350181E+02	-2.75631063E+01	 5.54854000E+01	 3.06602806E+02
					 2.84454000E+01	 5.58908000E+01	 2.52271000E+02	 2.30331000E-08	-3.45189000E-08	-4.15085000E+01	 2.23331665E+02	 2.09955996E+01	 5.58908000E+01	 2.59720800E+02
					-1.70733000E+01	 5.54854000E+01	 2.96113000E+02	 6.34406000E-08	 4.26874000E-09	-5.82692000E+01	 3.01350181E+02	-2.75631063E+01	 5.54854000E+01	 3.06602806E+02
					 2.84454000E+01	 5.58908000E+01	 2.52271000E+02	 2.30334000E-08	-3.45189000E-08	-4.15085000E+01	 2.23331665E+02	 2.09955996E+01	 5.58908000E+01	 2.59720800E+02
					 1.80290000E+01	 5.55381000E+01	 2.60822000E+02	 8.74756000E-08	 1.45513000E-08	-2.68411000E+01	 2.31105518E+02	 1.50970847E+01	 5.55381000E+01	 2.63753915E+02
					 3.12500000E+01	 2.21551000E+01	 7.96581000E+01	 8.62113000E-08	 0.00000000E+00	-1.66029000E+01	 6.07725024E+01	 2.21551000E+01	 2.61028605E+01	 8.48052395E+01
					 1.80290000E+01	 5.55381000E+01	 2.60822000E+02	 8.74771000E-08	 1.45511000E-08	-2.68411000E+01	 2.31105518E+02	 1.50970847E+01	 5.55381000E+01	 2.63753915E+02
					 3.12500000E+01	 2.21551000E+01	 7.96581000E+01	 8.62118000E-08	 0.00000000E+00	-1.66029000E+01	 6.07725024E+01	 2.21551000E+01	 2.61028605E+01	 8.48052395E+01
					 4.69173000E+01	 5.31683000E+01	 2.19681000E+02	 6.87638000E-08	 9.26796000E-09	 2.42767000E-01	 1.69725078E+02	 4.69169589E+01	 5.31683000E+01	 2.19681341E+02
					 6.60863000E+01	 2.34969000E+01	 5.14358000E+01	 7.43628000E-08	 4.95025000E-08	-1.56363000E+00	 3.75748979E+01	 2.34969000E+01	 5.12707745E+01	 6.62513255E+01
					 4.69173000E+01	 5.31683000E+01	 2.19681000E+02	 6.87642000E-08	 9.26814000E-09	 2.42767000E-01	 1.69725078E+02	 4.69169589E+01	 5.31683000E+01	 2.19681341E+02
					 6.60863000E+01	 2.34969000E+01	 5.14358000E+01	 7.43602000E-08	 4.95023000E-08	-1.56363000E+00	 3.75748979E+01	 2.34969000E+01	 5.12707745E+01	 6.62513255E+01
					 6.01628000E+01	 5.34415000E+01	 2.07687000E+02	-3.37789000E-08	 8.08288000E-09	 1.11241000E+01	 1.52221407E+02	 5.34415000E+01	 5.93287004E+01	 2.08521100E+02
					 7.97403000E+01	 3.26784000E+01	 8.37809000E+01	-2.47978000E-08	 6.66704000E-08	 1.02510000E+01	 5.23121037E+01	 3.26784000E+01	 7.13124129E+01	 9.22087871E+01
					 6.01628000E+01	 5.34415000E+01	 2.07687000E+02	-3.37787000E-08	 8.08293000E-09	 1.11241000E+01	 1.52221407E+02	 5.34415000E+01	 5.93287004E+01	 2.08521100E+02
					 7.97403000E+01	 3.26784000E+01	 8.37809000E+01	-2.47988000E-08	 6.66704000E-08	 1.02510000E+01	 5.23121037E+01	 3.26784000E+01	 7.13124129E+01	 9.22087871E+01
					 5.74784000E+01	 5.12019000E+01	 1.99131000E+02	-9.78703000E-08	 0.00000000E+00	 8.58404000E+00	 1.45653676E+02	 5.12019000E+01	 5.69601101E+01	 1.99649290E+02
					 7.64682000E+01	 3.56623000E+01	 1.02016000E+02	-9.21720000E-08	 4.07966000E-08	 8.14267000E+00	 5.96592135E+01	 3.56623000E+01	 7.40936481E+01	 1.04390552E+02
					 5.74784000E+01	 5.12019000E+01	 1.99131000E+02	-9.78706000E-08	 0.00000000E+00	 8.58404000E+00	 1.45653676E+02	 5.12019000E+01	 5.69601101E+01	 1.99649290E+02
					 7.64682000E+01	 3.56623000E+01	 1.02016000E+02	-9.21718000E-08	 4.07966000E-08	 8.14267000E+00	 5.96592135E+01	 3.56623000E+01	 7.40936481E+01	 1.04390552E+02
					 7.63879000E+01	 5.36393000E+01	 1.92366000E+02	-1.36618000E-07	-5.15643000E-09	 3.26399000E+00	 1.28991158E+02	 5.36393000E+01	 7.62961137E+01	 1.92457786E+02
					 8.12713000E+01	 3.31730000E+01	 8.47254000E+01	-1.54406000E-07	 4.70199000E-08	 9.02085000E-01	 4.99395122E+01	 3.31730000E+01	 8.10498996E+01	 8.49468004E+01
					 7.63879000E+01	 5.36393000E+01	 1.92366000E+02	-1.36617000E-07	-5.15647000E-09	 3.26399000E+00	 1.28991158E+02	 5.36393000E+01	 7.62961137E+01	 1.92457786E+02
					 8.12713000E+01	 3.31730000E+01	 8.47254000E+01	-1.54407000E-07	 4.70198000E-08	 9.02085000E-01	 4.99395122E+01	 3.31730000E+01	 8.10498996E+01	 8.49468004E+01
					 1.10368000E+02	 6.12257000E+01	 1.96427000E+02	-2.06264000E-07	-2.70587000E-09	-7.99347000E+00	 1.19339604E+02	 6.12257000E+01	 1.09631835E+02	 1.97163165E+02
					 9.16885000E+01	 3.06511000E+01	 6.17182000E+01	-1.90322000E-07	 6.21021000E-08	-4.13140000E+01	 8.89663626E+01	 3.06511000E+01	 3.27556388E+01	 1.20651061E+02
					 1.10368000E+02	 6.12257000E+01	 1.96427000E+02	-2.06266000E-07	-2.70589000E-09	-7.99347000E+00	 1.19339604E+02	 6.12257000E+01	 1.09631835E+02	 1.97163165E+02
					 9.16885000E+01	 3.06511000E+01	 6.17182000E+01	-1.90321000E-07	 6.21022000E-08	-4.13140000E+01	 8.89663626E+01	 3.06511000E+01	 3.27556388E+01	 1.20651061E+02
					 1.36980000E+03	 1.25596000E+03	 5.34687000E+03	 0.00000000E+00	 0.00000000E+00	 1.93397000E+03	 5.24437936E+03	 5.84436767E+02	 1.25596000E+03	 6.13223323E+03
					 2.81683000E+02	 8.54171000E+02	 4.22928000E+03	-2.75700000E-08	-1.57052000E-08	 6.72597000E+02	 3.87407703E+03	 1.70231577E+02	 8.54171000E+02	 4.34073142E+03
					 1.36980000E+03	 1.25596000E+03	 5.34687000E+03	 0.00000000E+00	 0.00000000E+00	 1.93397000E+03	 5.24437936E+03	 5.84436767E+02	 1.25596000E+03	 6.13223323E+03