<?xml version="1.0"?>
<VTKFile type="UnstructuredGrid" version="0.1" byte_order="LittleEndian">
	<UnstructuredGrid>
		<Piece NumberOfPoints="126" NumberOfCells="40">
			<Points>
				<DataArray type="Float64" NumberOfComponents="3" format="ascii">
					 5.00000000E-02	 0.00000000E+00	 0.00000000E+00
					 0.00000000E+00	 0.00000000E+00	 0.00000000E+00
					 0.00000000E+00	 0.00000000E+00	 5.00000000E-02
					 5.00000000E-02	 0.00000000E+00	 5.00000000E-02
					 5.00000000E-02	 3.00000000E-01	 0.00000000E+00
					 0.00000000E+00	 3.00000000E-01	 0.00000000E+00
					 0.00000000E+00	 3.00000000E-01	 5.00000000E-02
					 5.00000000E-02	 3.00000000E-01	 5.00000000E-02
					 0.00000000E+00	 0.00000000E+00	 1.00000000E-01
					 5.00000000E-02	 0.00000000E+00	 1.00000000E-01
					 0.00000000E+00	 3.00000000E-01	 1.00000000E-01
					 5.00000000E-02	 3.00000000E-01	 1.00000000E-01
					 0.00000000E+00	 0.00000000E+00	 1.50000000E-01
					 5.00000000E-02	 0.00000000E+00	 1.50000000E-01
					 0.00000000E+00	 3.00000000E-01	 1.50000000E-01
					 5.00000000E-02	 3.00000000E-01	 1.50000000E-01
					 0.00000000E+00	 0.00000000E+00	 2.00000000E-01
					 5.00000000E-02	 0.00000000E+00	 2.00000000E-01
					 0.00000000E+00	 3.00000000E-01	 2.00000000E-01
					 5.00000000E-02	 3.00000000E-01	 2.00000000E-01
					 0.00000000E+00	 0.00000000E+00	 2.50000000E-01
					 5.00000000E-02	 0.00000000E+00	 2.50000000E-01
					 0.00000000E+00	 3.00000000E-01	 2.50000000E-01
					 5.00000000E-02	 3.00000000E-01	 2.50000000E-01
					 0.00000000E+00	 0.00000000E+00	 3.00000000E-01
					 5.00000000E-02	 0.00000000E+00	 3.00000000E-01
					 0.00000000E+00	 3.00000000E-01	 3.00000000E-01
					 5.00000000E-02	 3.00000000E-01	 3.00000000E-01
					 0.00000000E+00	 0.00000000E+00	 3.50000000E-01
					 5.00000000E-02	 0.00000000E+00	 3.50000000E-01
					 0.00000000E+00	 3.00000000E-01	 3.50000000E-01
					 5.00000000E-02	 3.00000000E-01	 3.50000000E-01
					 0.00000000E+00	 0.00000000E+00	 4.00000000E-01
					 5.00000000E-02	 0.00000000E+00	 4.00000000E-01
					 0.00000000E+00	 3.00000000E-01	 4.00000000E-01
					 5.00000000E-02	 3.00000000E-01	 4.00000000E-01
					 0.00000000E+00	 0.00000000E+00	 4.50000000E-01
					 5.00000000E-02	 0.00000000E+00	 4.50000000E-01
					 0.00000000E+00	 3.00000000E-01	 4.50000000E-01
					 5.00000000E-02	 3.00000000E-01	 4.50000000E-01
					 0.00000000E+00	 0.00000000E+00	 5.00000000E-01
					 5.00000000E-02	 0.00000000E+00	 5.00000000E-01
					 0.00000000E+00	 3.00000000E-01	 5.00000000E-01
					 5.00000000E-02	 3.00000000E-01	 5.00000000E-01
					 0.00000000E+00	 0.00000000E+00	 5.50000000E-01
					 5.00000000E-02	 0.00000000E+00	 5.50000000E-01
					 0.00000000E+00	 3.00000000E-01	 5.50000000E-01
					 5.00000000E-02	 3.00000000E-01	 5.50000000E-01
					 0.00000000E+00	 0.00000000E+00	 6.00000000E-01
					 5.00000000E-02	 0.00000000E+00	 6.00000000E-01
					 0.00000000E+00	 3.00000000E-01	 6.00000000E-01
					 5.00000000E-02	 3.00000000E-01	 6.00000000E-01
					 0.00000000E+00	 0.00000000E+00	 6.50000000E-01
					 5.00000000E-02	 0.00000000E+00	 6.50000000E-01
					 0.00000000E+00	 3.00000000E-01	 6.50000000E-01
					 5.00000000E-02	 3.00000000E-01	 6.50000000E-01
					 0.00000000E+00	 0.00000000E+00	 7.00000000E-01
					 5.00000000E-02	 0.00000000E+00	 7.00000000E-01
					 0.00000000E+00	 3.00000000E-01	 7.00000000E-01
					 5.00000000E-02	 3.00000000E-01	 7.00000000E-01
					 0.00000000E+00	 0.00000000E+00	 7.50000000E-01
					 5.00000000E-02	 0.00000000E+00	 7.50000000E-01
					 0.00000000E+00	 3.00000000E-01	 7.50000000E-01
					 5.00000000E-02	 3.00000000E-01	 7.50000000E-01
					 0.00000000E+00	 0.00000000E+00	 8.00000000E-01
					 5.00000000E-02	 0.00000000E+00	 8.00000000E-01
					 0.00000000E+00	 3.00000000E-01	 8.00000000E-01
					 5.00000000E-02	 3.00000000E-01	 8.00000000E-01
					 0.00000000E+00	 0.00000000E+00	 8.50000000E-01
					 5.00000000E-02	 0.00000000E+00	 8.50000000E-01
					 0.00000000E+00	 3.00000000E-01	 8.50000000E-01
					 5.00000000E-02	 3.00000000E-01	 8.50000000E-01
					 0.00000000E+00	 0.00000000E+00	 9.00000000E-01
					 5.00000000E-02	 0.00000000E+00	 9.00000000E-01
					 0.00000000E+00	 3.00000000E-01	 9.00000000E-01
					 5.00000000E-02	 3.00000000E-01	 9.00000000E-01
					 0.00000000E+00	 0.00000000E+00	 9.50000000E-01
					 5.00000000E-02	 0.00000000E+00	 9.50000000E-01
					 0.00000000E+00	 3.00000000E-01	 9.50000000E-01
					 5.00000000E-02	 3.00000000E-01	 9.50000000E-01
					 0.00000000E+00	 0.00000000E+00	 1.00000000E+00
					 5.00000000E-02	 0.00000000E+00	 1.00000000E+00
					 0.00000000E+00	 3.00000000E-01	 1.00000000E+00
					 5.00000000E-02	 3.00000000E-01	 1.00000000E+00
					-5.00000000E-02	 0.00000000E+00	 0.00000000E+00
					-5.00000000E-02	 0.00000000E+00	 5.00000000E-02
					-5.00000000E-02	 3.00000000E-01	 0.00000000E+00
					-5.00000000E-02	 3.00000000E-01	 5.00000000E-02
					-5.00000000E-02	 0.00000000E+00	 1.00000000E-01
					-5.00000000E-02	 3.00000000E-01	 1.00000000E-01
					-5.00000000E-02	 0.00000000E+00	 1.50000000E-01
					-5.00000000E-02	 3.00000000E-01	 1.50000000E-01
					-5.00000000E-02	 0.00000000E+00	 2.00000000E-01
					-5.00000000E-02	 3.00000000E-01	 2.00000000E-01
					-5.00000000E-02	 0.00000000E+00	 2.50000000E-01
					-5.00000000E-02	 3.00000000E-01	 2.50000000E-01
					-5.00000000E-02	 0.00000000E+00	 3.00000000E-01
					-5.00000000E-02	 3.00000000E-01	 3.00000000E-01
					-5.00000000E-02	 0.00000000E+00	 3.50000000E-01
					-5.00000000E-02	 3.00000000E-01	 3.50000000E-01
					-5.00000000E-02	 0.00000000E+00	 4.00000000E-01
					-5.00000000E-02	 3.00000000E-01	 4.00000000E-01
					-5.00000000E-02	 0.00000000E+00	 4.50000000E-01
					-5.00000000E-02	 3.00000000E-01	 4.50000000E-01
					-5.00000000E-02	 0.00000000E+00	 5.00000000E-01
					-5.00000000E-02	 3.00000000E-01	 5.00000000E-01
					-5.00000000E-02	 0.00000000E+00	 5.50000000E-01
					-5.00000000E-02	 3.00000000E-01	 5.50000000E-01
					-5.00000000E-02	 0.00000000E+00	 6.00000000E-01
					-5.00000000E-02	 3.00000000E-01	 6.00000000E-01
					-5.00000000E-02	 0.00000000E+00	 6.50000000E-01
					-5.00000000E-02	 3.00000000E-01	 6.50000000E-01
					-5.00000000E-02	 0.00000000E+00	 7.00000000E-01
					-5.00000000E-02	 3.00000000E-01	 7.00000000E-01
					-5.00000000E-02	 0.00000000E+00	 7.50000000E-01
					-5.00000000E-02	 3.00000000E-01	 7.50000000E-01
					-5.00000000E-02	 0.00000000E+00	 8.00000000E-01
					-5.00000000E-02	 3.00000000E-01	 8.00000000E-01
					-5.00000000E-02	 0.00000000E+00	 8.50000000E-01
					-5.00000000E-02	 3.00000000E-01	 8.50000000E-01
					-5.00000000E-02	 0.00000000E+00	 9.00000000E-01
					-5.00000000E-02	 3.00000000E-01	 9.00000000E-01
					-5.00000000E-02	 0.00000000E+00	 9.50000000E-01
					-5.00000000E-02	 3.00000000E-01	 9.50000000E-01
					-5.00000000E-02	 0.00000000E+00	 1.00000000E+00
					-5.00000000E-02	 3.00000000E-01	 1.00000000E+00

				</DataArray>
			</Points>
			<Cells>
				<DataArray type="Int32" Name="connectivity" format="ascii">
					0 1 2 3 4 5 6 7 3 2 8 9 7 6 10 11 9 8 12 13 11 10 14 15 13 12 16 17 15 14 18 19 17 16 20 21 19 18 22 23 21 20 24 25 23 22 26 27 25 24 28 29 27 26 30 31 29 28 32 33 31 30 34 35 33 32 36 37 35 34 38 39 37 36 40 41 39 38 42 43 41 40 44 45 43 42 46 47 45 44 48 49 47 46 50 51 49 48 52 53 51 50 54 55 53 52 56 57 55 54 58 59 57 56 60 61 59 58 62 63 61 60 64 65 63 62 66 67 65 64 68 69 67 66 70 71 69 68 72 73 71 70 74 75 73 72 76 77 75 74 78 79 77 76 80 81 79 78 82 83 1 84 85 2 5 86 87 6 2 85 88 8 6 87 89 10 8 88 90 12 10 89 91 14 12 90 92 16 14 91 93 18 16 92 94 20 18 93 95 22 20 94 96 24 22 95 97 26 24 96 98 28 26 97 99 30 28 98 100 32 30 99 101 34 32 100 102 36 34 101 103 38 36 102 104 40 38 103 105 42 40 104 106 44 42 105 107 46 44 106 108 48 46 107 109 50 48 108 110 52 50 109 111 54 52 110 112 56 54 111 113 58 56 112 114 60 58 113 115 62 60 114 116 64 62 115 117 66 64 116 118 68 66 117 119 70 68 118 120 72 70 119 121 74 72 120 122 76 74 121 123 78 76 122 124 80 78 123 125 82 
				</DataArray>
				<DataArray type="Int32" Name="offsets" format="ascii">
					8 16 24 32 40 48 56 64 72 80 88 96 104 112 120 128 136 144 152 160 168 176 184 192 200 208 216 224 232 240 248 256 264 272 280 288 296 304 312 320 
				</DataArray>
				<DataArray type="UInt8" Name="types" format="ascii">
					12 12 12 12 12 12 12 12 12 12 12 12 12 12 12 12 12 12 12 12 12 12 12 12 12 12 12 12 12 12 12 12 12 12 12 12 12 12 12 12 
				</DataArray>
			</Cells>
			<PointData>
				<DataArray type="Float32" Name="U" NumberOfComponents="3" ComponentName0="D1" ComponentName1="D2" ComponentName2="D3" format="ascii">
					 0.00000000E+00	 0.00000000E+00	 0.00000000E+00
					 0.00000000E+00	 0.00000000E+00	 0.00000000E+00
					 2.33121000E-03	 0.00000000E+00	 1.04546000E-04
					 2.57079000E-03	 0.00000000E+00	-3.08531000E-03
					 0.00000000E+00	 0.00000000E+00	 0.00000000E+00
					 0.00000000E+00	 0.00000000E+00	 0.00000000E+00
					 2.33121000E-03	 0.00000000E+00	 1.04546000E-04
					 2.57079000E-03	 0.00000000E+00	-3.08531000E-03
					 7.60208000E-03	 0.00000000E+00	 9.55807000E-05
					 7.42911000E-03	 0.00000000E+00	-5.40373000E-03
					 7.60208000E-03	 0.00000000E+00	 9.55807000E-05
					 7.42911000E-03	 0.00000000E+00	-5.40373000E-03
					 1.45547000E-02	 0.00000000E+00	-1.19841000E-04
					 1.41459000E-02	 0.00000000E+00	-7.07063000E-03
					 1.45547000E-02	 0.00000000E+00	-1.19841000E-04
					 1.41459000E-02	 0.00000000E+00	-7.07063000E-03
					 2.25444000E-02	 0.00000000E+00	-4.92346000E-04
					 2.19461000E-02	 0.00000000E+00	-8.19492000E-03
					 2.25444000E-02	 0.00000000E+00	-4.92346000E-04
					 2.19461000E-02	 0.00000000E+00	-8.19492000E-03
					 3.09209000E-02	 0.00000000E+00	-9.22567000E-04
					 3.02241000E-02	 0.00000000E+00	-8.78758000E-03
					 3.09209000E-02	 0.00000000E+00	-9.22567000E-04
					 3.02241000E-02	 0.00000000E+00	-8.78758000E-03
					 3.91051000E-02	 0.00000000E+00	-1.34313000E-03
					 3.84133000E-02	 0.00000000E+00	-8.89130000E-03
					 3.91051000E-02	 0.00000000E+00	-1.34313000E-03
					 3.84133000E-02	 0.00000000E+00	-8.89130000E-03
					 4.66453000E-02	 0.00000000E+00	-1.70333000E-03
					 4.60218000E-02	 0.00000000E+00	-8.58286000E-03
					 4.66453000E-02	 0.00000000E+00	-1.70333000E-03
					 4.60218000E-02	 0.00000000E+00	-8.58286000E-03
					 5.32918000E-02	 0.00000000E+00	-1.96827000E-03
					 5.27693000E-02	 0.00000000E+00	-7.96200000E-03
					 5.32918000E-02	 0.00000000E+00	-1.96827000E-03
					 5.27693000E-02	 0.00000000E+00	-7.96200000E-03
					 5.89097000E-02	 0.00000000E+00	-2.13843000E-03
					 5.84971000E-02	 0.00000000E+00	-7.11722000E-03
					 5.89097000E-02	 0.00000000E+00	-2.13843000E-03
					 5.84971000E-02	 0.00000000E+00	-7.11722000E-03
					 6.34187000E-02	 0.00000000E+00	-2.23289000E-03
					 6.31077000E-02	 0.00000000E+00	-6.12240000E-03
					 6.34187000E-02	 0.00000000E+00	-2.23289000E-03
					 6.31077000E-02	 0.00000000E+00	-6.12240000E-03
					 6.67771000E-02	 0.00000000E+00	-2.27314000E-03
					 6.65435000E-02	 0.00000000E+00	-5.04228000E-03
					 6.67771000E-02	 0.00000000E+00	-2.27314000E-03
					 6.65435000E-02	 0.00000000E+00	-5.04228000E-03
					 6.89851000E-02	 0.00000000E+00	-2.26647000E-03
					 6.88078000E-02	 0.00000000E+00	-3.91623000E-03
					 6.89851000E-02	 0.00000000E+00	-2.26647000E-03
					 6.88078000E-02	 0.00000000E+00	-3.91623000E-03
					 7.00546000E-02	 0.00000000E+00	-2.21728000E-03
					 6.99046000E-02	 0.00000000E+00	-2.76428000E-03
					 7.00546000E-02	 0.00000000E+00	-2.21728000E-03
					 6.99046000E-02	 0.00000000E+00	-2.76428000E-03
					 7.00034000E-02	 0.00000000E+00	-2.13195000E-03
					 6.98579000E-02	 0.00000000E+00	-1.62577000E-03
					 7.00034000E-02	 0.00000000E+00	-2.13195000E-03
					 6.98579000E-02	 0.00000000E+00	-1.62577000E-03
					 6.88922000E-02	 0.00000000E+00	-2.02345000E-03
					 6.87295000E-02	 0.00000000E+00	-5.81184000E-04
					 6.88922000E-02	 0.00000000E+00	-2.02345000E-03
					 6.87295000E-02	 0.00000000E+00	-5.81184000E-04
					 6.68666000E-02	 0.00000000E+00	-1.93123000E-03
					 6.67014000E-02	 0.00000000E+00	 2.76504000E-04
					 6.68666000E-02	 0.00000000E+00	-1.93123000E-03
					 6.67014000E-02	 0.00000000E+00	 2.76504000E-04
					 6.41484000E-02	 0.00000000E+00	-1.88828000E-03
					 6.39924000E-02	 0.00000000E+00	 8.80180000E-04
					 6.41484000E-02	 0.00000000E+00	-1.88828000E-03
					 6.39924000E-02	 0.00000000E+00	 8.80180000E-04
					 6.09855000E-02	 0.00000000E+00	-1.89930000E-03
					 6.08489000E-02	 0.00000000E+00	 1.21664000E-03
					 6.09855000E-02	 0.00000000E+00	-1.89930000E-03
					 6.08489000E-02	 0.00000000E+00	 1.21664000E-03
					 5.76211000E-02	 0.00000000E+00	-1.94184000E-03
					 5.75016000E-02	 0.00000000E+00	 1.32425000E-03
					 5.76211000E-02	 0.00000000E+00	-1.94184000E-03
					 5.75016000E-02	 0.00000000E+00	 1.32425000E-03
					 5.42647000E-02	 0.00000000E+00	-1.99039000E-03
					 5.41610000E-02	 0.00000000E+00	 1.27754000E-03
					 5.42647000E-02	 0.00000000E+00	-1.99039000E-03
					 5.41610000E-02	 0.00000000E+00	 1.27754000E-03
					 0.00000000E+00	 0.00000000E+00	 0.00000000E+00
					 3.00027000E-03	 0.00000000E+00	 3.25156000E-03
					 0.00000000E+00	 0.00000000E+00	 0.00000000E+00
					 3.00027000E-03	 0.00000000E+00	 3.25156000E-03
					 8.24133000E-03	 0.00000000E+00	 5.50058000E-03
					 8.24133000E-03	 0.00000000E+00	 5.50058000E-03
					 1.52739000E-02	 0.00000000E+00	 6.75511000E-03
					 1.52739000E-02	 0.00000000E+00	 6.75511000E-03
					 2.32900000E-02	 0.00000000E+00	 7.17918000E-03
					 2.32900000E-02	 0.00000000E+00	 7.17918000E-03
					 3.16273000E-02	 0.00000000E+00	 6.94038000E-03
					 3.16273000E-02	 0.00000000E+00	 6.94038000E-03
					 3.97075000E-02	 0.00000000E+00	 6.21388000E-03
					 3.97075000E-02	 0.00000000E+00	 6.21388000E-03
					 4.71001000E-02	 0.00000000E+00	 5.19511000E-03
					 4.71001000E-02	 0.00000000E+00	 5.19511000E-03
					 5.36051000E-02	 0.00000000E+00	 4.04359000E-03
					 5.36051000E-02	 0.00000000E+00	 4.04359000E-03
					 5.90867000E-02	 0.00000000E+00	 2.85590000E-03
					 5.90867000E-02	 0.00000000E+00	 2.85590000E-03
					 6.34914000E-02	 0.00000000E+00	 1.67300000E-03
					 6.34914000E-02	 0.00000000E+00	 1.67300000E-03
					 6.67604000E-02	 0.00000000E+00	 5.10722000E-04
					 6.67604000E-02	 0.00000000E+00	 5.10722000E-04
					 6.89169000E-02	 0.00000000E+00	-6.09807000E-04
					 6.89169000E-02	 0.00000000E+00	-6.09807000E-04
					 6.99650000E-02	 0.00000000E+00	-1.66341000E-03
					 6.99650000E-02	 0.00000000E+00	-1.66341000E-03
					 6.99368000E-02	 0.00000000E+00	-2.62281000E-03
					 6.99368000E-02	 0.00000000E+00	-2.62281000E-03
					 6.88676000E-02	 0.00000000E+00	-3.46048000E-03
					 6.88676000E-02	 0.00000000E+00	-3.46048000E-03
					 6.68944000E-02	 0.00000000E+00	-4.15141000E-03
					 6.68944000E-02	 0.00000000E+00	-4.15141000E-03
					 6.42191000E-02	 0.00000000E+00	-4.67567000E-03
					 6.42191000E-02	 0.00000000E+00	-4.67567000E-03
					 6.10942000E-02	 0.00000000E+00	-5.03023000E-03
					 6.10942000E-02	 0.00000000E+00	-5.03023000E-03
					 5.77464000E-02	 0.00000000E+00	-5.22358000E-03
					 5.77464000E-02	 0.00000000E+00	-5.22358000E-03
					 5.43813000E-02	 0.00000000E+00	-5.32424000E-03
					 5.43813000E-02	 0.00000000E+00	-5.32424000E-03
				</DataArray>
				<DataArray type="Float32" Name="S" NumberOfComponents="10" ComponentName0="xx" ComponentName1="yy" ComponentName2="zz" ComponentName3="xy" ComponentName4="yz" ComponentName5="zx" ComponentName6="Mises" ComponentName7="Min Principal" ComponentName8="Mid Principal" ComponentName9="Max Principal" format="ascii">
					-1.85429000E+03	-2.07664000E+03	-7.51902000E+03	 0.00000000E+00	-1.01249000E-09	 2.18040000E+03	 6.71874134E+03	-8.26106903E+03	-2.07664000E+03	-1.11224097E+03
					 2.84626000E+02	 1.05752000E+02	 2.11187000E+02	 0.00000000E+00	 0.00000000E+00	 2.33561000E+03	 4.04839167E+03	-2.08799213E+03	 1.05752000E+02	 2.58380513E+03
					 1.01535000E+01	 6.51956000E+01	 2.52673000E+02	-3.87515000E-08	 1.38476000E-08	 6.41590000E+02	 1.13287676E+03	-5.21535182E+02	 6.51956000E+01	 7.84361682E+02
					-6.86537000E+02	-1.49244000E+03	-6.21401000E+03	-8.99392000E-08	 6.19744000E-08	 3.09779000E+02	 5.19958839E+03	-6.23131691E+03	-1.49244000E+03	-6.69230086E+02
					-1.85429000E+03	-2.07664000E+03	-7.51902000E+03	 0.00000000E+00	-1.01249000E-09	 2.18040000E+03	 6.71874134E+03	-8.26106903E+03	-2.07664000E+03	-1.11224097E+03
					 2.84626000E+02	 1.05752000E+02	 2.11187000E+02	 0.00000000E+00	 0.00000000E+00	 2.33561000E+03	 4.04839167E+03	-2.08799213E+03	 1.05752000E+02	 2.58380513E+03
					 1.01535000E+01	 6.51956000E+01	 2.52673000E+02	-3.87514000E-08	 1.38476000E-08	 6.41590000E+02	 1.13287676E+03	-5.21535182E+02	 6.51956000E+01	 7.84361682E+02
					-6.86537000E+02	-1.49244000E+03	-6.21401000E+03	-8.99392000E-08	 6.19744000E-08	 3.09779000E+02	 5.19958839E+03	-6.23131691E+03	-1.49244000E+03	-6.69230086E+02
					 7.45090000E+01	 1.06923000E+02	 4.25788000E+02	-9.05181000E-08	 1.30984000E-08	 6.84999000E+02	 1.23317969E+03	-4.57009802E+02	 1.06923000E+02	 9.57306802E+02
					-6.68382000E+02	-1.01912000E+03	-4.18157000E+03	-1.19443000E-07	 4.19644000E-08	 8.05101000E+01	 3.35451102E+03	-4.18341404E+03	-1.01912000E+03	-6.66537955E+02
					 7.45090000E+01	 1.06923000E+02	 4.25788000E+02	-9.05181000E-08	 1.30984000E-08	 6.84999000E+02	 1.23317969E+03	-4.57009802E+02	 1.06923000E+02	 9.57306802E+02
					-6.68382000E+02	-1.01912000E+03	-4.18157000E+03	-1.19443000E-07	 4.19643000E-08	 8.05101000E+01	 3.35451102E+03	-4.18341404E+03	-1.01912000E+03	-6.66537955E+02
					 1.32379000E+02	 1.22663000E+02	 4.78166000E+02	-9.88634000E-08	 1.25317000E-08	 5.91846000E+02	 1.08345179E+03	-3.11309895E+02	 1.22663000E+02	 9.21854895E+02
					-2.73207000E+02	-5.22800000E+02	-2.26852000E+03	-1.36982000E-07	 7.67043000E-09	 1.62828000E+02	 1.90396779E+03	-2.28172029E+03	-5.22800000E+02	-2.60006710E+02
					 1.32379000E+02	 1.22663000E+02	 4.78166000E+02	-9.88634000E-08	 1.25317000E-08	 5.91846000E+02	 1.08345179E+03	-3.11309895E+02	 1.22663000E+02	 9.21854895E+02
					-2.73207000E+02	-5.22800000E+02	-2.26852000E+03	-1.36982000E-07	 7.67038000E-09	 1.62828000E+02	 1.90396779E+03	-2.28172029E+03	-5.22800000E+02	-2.60006710E+02
					 1.39442000E+02	 1.28640000E+02	 5.13116000E+02	-1.22747000E-07	 2.65873000E-08	 5.36130000E+02	 1.00304113E+03	-2.41473976E+02	 1.28640000E+02	 8.94031976E+02
					-3.21410000E+01	-1.38439000E+02	-6.46599000E+02	-1.21075000E-07	 1.40121000E-08	 2.91254000E+02	 7.60282132E+02	-7.62712120E+02	-1.38439000E+02	 8.39721205E+01
					 1.39442000E+02	 1.28640000E+02	 5.13116000E+02	-1.22747000E-07	 2.65873000E-08	 5.36130000E+02	 1.00304113E+03	-2.41473976E+02	 1.28640000E+02	 8.94031976E+02
					-3.21410000E+01	-1.38439000E+02	-6.46599000E+02	-1.21075000E-07	 1.40120000E-08	 2.91254000E+02	 7.60282132E+02	-7.62712120E+02	-1.38439000E+02	 8.39721205E+01
					 1.04386000E+02	 1.22166000E+02	 5.17348000E+02	-1.72331000E-07	 2.71771000E-08	 4.58902000E+02	 8.91787202E+02	-1.92348112E+02	 1.22166000E+02	 8.14082112E+02
					 1.45859000E+02	 1.70541000E+02	 7.25999000E+02	-1.57288000E-07	 1.90596000E-08	 4.24027000E+02	 9.28573796E+02	-7.78214274E+01	 1.70541000E+02	 9.49679427E+02
					 1.04386000E+02	 1.22166000E+02	 5.17348000E+02	-1.72331000E-07	 2.71772000E-08	 4.58902000E+02	 8.91787202E+02	-1.92348112E+02	 1.22166000E+02	 8.14082112E+02
					 1.45859000E+02	 1.70541000E+02	 7.25999000E+02	-1.57288000E-07	 1.90594000E-08	 4.24027000E+02	 9.28573796E+02	-7.78214274E+01	 1.70541000E+02	 9.49679427E+02
					 6.11677000E+01	 1.04882000E+02	 4.68980000E+02	-1.23521000E-07	 3.16010000E-09	 3.47020000E+02	 7.15306385E+02	-1.37419129E+02	 1.04882000E+02	 6.67566829E+02
					 2.82922000E+02	 4.01712000E+02	 1.78026000E+03	-1.21945000E-07	-1.07603000E-08	 4.77784000E+02	 1.66225630E+03	 1.43456538E+02	 4.01712000E+02	 1.91972546E+03
					 6.11677000E+01	 1.04882000E+02	 4.68980000E+02	-1.23521000E-07	 3.16001000E-09	 3.47020000E+02	 7.15306385E+02	-1.37419129E+02	 1.04882000E+02	 6.67566829E+02
					 2.82922000E+02	 4.01712000E+02	 1.78026000E+03	-1.21946000E-07	-1.07602000E-08	 4.77784000E+02	 1.66225630E+03	 1.43456538E+02	 4.01712000E+02	 1.91972546E+03
					 2.90289000E+01	 8.76445000E+01	 4.07571000E+02	-7.83538000E-08	-5.98471000E-09	 2.33420000E+02	 5.36652706E+02	-8.22136550E+01	 8.76445000E+01	 5.18813555E+02
					 3.51591000E+02	 5.49314000E+02	 2.48552000E+03	-9.59925000E-08	-2.86374000E-08	 4.59527000E+02	 2.19187493E+03	 2.56841978E+02	 5.49314000E+02	 2.58026902E+03
					 2.90289000E+01	 8.76445000E+01	 4.07571000E+02	-7.83523000E-08	-5.98469000E-09	 2.33420000E+02	 5.36652706E+02	-8.22136550E+01	 8.76445000E+01	 5.18813555E+02
					 3.51591000E+02	 5.49314000E+02	 2.48552000E+03	-9.59927000E-08	-2.86374000E-08	 4.59527000E+02	 2.19187493E+03	 2.56841978E+02	 5.49314000E+02	 2.58026902E+03
					-1.07819000E+00	 7.02882000E+01	 3.44752000E+02	-3.11953000E-08	-4.81126000E-09	 1.50992000E+02	 4.10373954E+02	-5.77240110E+01	 7.02882000E+01	 4.01397821E+02
					 3.86130000E+02	 6.34206000E+02	 2.90015000E+03	-3.31456000E-08	-3.13075000E-08	 4.06862000E+02	 2.50095588E+03	 3.21924337E+02	 6.34206000E+02	 2.96435566E+03
					-1.07819000E+00	 7.02882000E+01	 3.44752000E+02	-3.11929000E-08	-4.81135000E-09	 1.50992000E+02	 4.10373954E+02	-5.77240110E+01	 7.02882000E+01	 4.01397821E+02
					 3.86130000E+02	 6.34206000E+02	 2.90015000E+03	-3.31475000E-08	-3.13073000E-08	 4.06862000E+02	 2.50095588E+03	 3.21924337E+02	 6.34206000E+02	 2.96435566E+03
					-1.05996000E+01	 5.45276000E+01	 2.71357000E+02	-1.30720000E-09	 1.53538000E-09	 9.08833000E+01	 3.00262144E+02	-3.73551824E+01	 5.45276000E+01	 2.98112582E+02
					 4.03585000E+02	 6.76653000E+02	 3.10725000E+03	-2.67188000E-08	 4.84332000E-09	 3.34534000E+02	 2.64231436E+03	 3.62806964E+02	 6.76653000E+02	 3.14802804E+03
					-1.05996000E+01	 5.45276000E+01	 2.71357000E+02	-1.30512000E-09	 1.53549000E-09	 9.08833000E+01	 3.00262144E+02	-3.73551824E+01	 5.45276000E+01	 2.98112582E+02
					 4.03585000E+02	 6.76653000E+02	 3.10725000E+03	-2.67211000E-08	 4.84314000E-09	 3.34534000E+02	 2.64231436E+03	 3.62806964E+02	 6.76653000E+02	 3.14802804E+03
					-2.90290000E+01	 3.39909000E+01	 1.84530000E+02	-5.58691000E-08	 1.68837000E-08	 4.38733000E+01	 2.04682893E+02	-3.76909487E+01	 3.39909000E+01	 1.93191949E+02
					 4.07099000E+02	 6.88915000E+02	 3.16706000E+03	-5.03754000E-08	 1.41399000E-08	 2.47521000E+02	 2.66510858E+03	 3.85076352E+02	 6.88915000E+02	 3.18908265E+03
					-2.90290000E+01	 3.39909000E+01	 1.84530000E+02	-5.58697000E-08	 1.68838000E-08	 4.38733000E+01	 2.04682893E+02	-3.76909487E+01	 3.39909000E+01	 1.93191949E+02
					 4.07099000E+02	 6.88915000E+02	 3.16706000E+03	-5.03743000E-08	 1.41399000E-08	 2.47521000E+02	 2.66510858E+03	 3.85076352E+02	 6.88915000E+02	 3.18908265E+03
					-2.95935000E+01	 2.17162000E+01	 1.22581000E+02	-3.37671000E-08	-2.22398000E-09	 1.02234000E+01	 1.35260081E+02	-3.02772570E+01	 2.17162000E+01	 1.23264757E+02
					 3.91890000E+02	 6.81697000E+02	 3.14208000E+03	-3.93867000E-08	-2.11113000E-08	 1.60671000E+02	 2.63210074E+03	 3.82535135E+02	 6.81697000E+02	 3.15143487E+03
					-2.95935000E+01	 2.17162000E+01	 1.22581000E+02	-3.37644000E-08	-2.22409000E-09	 1.02234000E+01	 1.35260081E+02	-3.02772570E+01	 2.17162000E+01	 1.23264757E+02
					 3.91890000E+02	 6.81697000E+02	 3.14208000E+03	-3.93914000E-08	-2.11111000E-08	 1.60671000E+02	 2.63210074E+03	 3.82535135E+02	 6.81697000E+02	 3.15143487E+03
					-2.46641000E+01	 2.04599000E+01	 1.11537000E+02	 1.11721000E-08	-1.98968000E-08	-1.28676000E+01	 1.22219892E+02	-2.58691056E+01	 2.04599000E+01	 1.12742006E+02
					 3.91423000E+02	 6.75505000E+02	 3.10834000E+03	 1.46667000E-08	-2.63333000E-08	 7.66216000E+01	 2.59000501E+03	 3.89263859E+02	 6.75505000E+02	 3.11049914E+03
					-2.46641000E+01	 2.04599000E+01	 1.11537000E+02	 1.11717000E-08	-1.98968000E-08	-1.28676000E+01	 1.22219892E+02	-2.58691056E+01	 2.04599000E+01	 1.12742006E+02
					 3.91423000E+02	 6.75505000E+02	 3.10834000E+03	 1.46668000E-08	-2.63332000E-08	 7.66216000E+01	 2.59000501E+03	 3.89263859E+02	 6.75505000E+02	 3.11049914E+03
					-1.46121000E+01	 3.04791000E+01	 1.53355000E+02	 2.72337000E-08	-3.60197000E-09	-4.09341000E+01	 1.66430546E+02	-2.40567963E+01	 3.04791000E+01	 1.62799696E+02
					 3.84039000E+02	 6.65101000E+02	 3.06060000E+03	 2.71486000E-08	-1.63401000E-09	-8.54434000E+00	 2.54772724E+03	 3.84011724E+02	 6.65101000E+02	 3.06062728E+03
					-1.46121000E+01	 3.04791000E+01	 1.53355000E+02	 2.72294000E-08	-3.60191000E-09	-4.09341000E+01	 1.66430546E+02	-2.40567963E+01	 3.04791000E+01	 1.62799696E+02
					 3.84039000E+02	 6.65101000E+02	 3.06060000E+03	 2.71472000E-08	-1.63413000E-09	-8.54434000E+00	 2.54772724E+03	 3.84011724E+02	 6.65101000E+02	 3.06062728E+03
					-1.89548000E+01	 4.40177000E+01	 2.28489000E+02	 1.69614000E-08	 1.95167000E-08	-8.45288000E+01	 2.66546749E+02	-4.50735706E+01	 4.40177000E+01	 2.54607771E+02
					 3.60969000E+02	 6.32685000E+02	 2.91248000E+03	 1.26244000E-08	 1.91266000E-08	-9.73848000E+01	 2.43294122E+03	 3.57257464E+02	 6.32685000E+02	 2.91619154E+03
					-1.89548000E+01	 4.40177000E+01	 2.28489000E+02	 1.69627000E-08	 1.95168000E-08	-8.45288000E+01	 2.66546749E+02	-4.50735706E+01	 4.40177000E+01	 2.54607771E+02
					 3.60969000E+02	 6.32685000E+02	 2.91248000E+03	 1.26219000E-08	 1.91265000E-08	-9.73848000E+01	 2.43294122E+03	 3.57257464E+02	 6.32685000E+02	 2.91619154E+03
					-2.91937000E+01	 5.24339000E+01	 2.84671000E+02	-8.65626000E-09	 7.85885000E-09	-1.33813000E+02	 3.65064172E+02	-7.84983046E+01	 5.24339000E+01	 3.33975605E+02
					 2.88477000E+02	 5.54366000E+02	 2.57141000E+03	 3.00504000E-08	 2.00538000E-08	-1.73239000E+02	 2.18300447E+03	 2.75405704E+02	 5.54366000E+02	 2.58448130E+03
					-2.91937000E+01	 5.24339000E+01	 2.84671000E+02	-8.65784000E-09	 7.85895000E-09	-1.33813000E+02	 3.65064172E+02	-7.84983046E+01	 5.24339000E+01	 3.33975605E+02
					 2.88477000E+02	 5.54366000E+02	 2.57141000E+03	 3.00527000E-08	 2.00537000E-08	-1.73239000E+02	 2.18300447E+03	 2.75405704E+02	 5.54366000E+02	 2.58448130E+03
					-2.42798000E+01	 5.16763000E+01	 2.79206000E+02	 6.77920000E-09	-5.49681000E-09	-1.65262000E+02	 3.95924170E+02	-9.68969596E+01	 5.16763000E+01	 3.51823160E+02
					 2.33426000E+02	 4.45347000E+02	 2.05162000E+03	-1.07864000E-08	 2.54745000E-08	-2.05099000E+02	 1.75830124E+03	 2.10577210E+02	 4.45347000E+02	 2.07446879E+03
					-2.42798000E+01	 5.16763000E+01	 2.79206000E+02	 6.77991000E-09	-5.49694000E-09	-1.65262000E+02	 3.95924170E+02	-9.68969596E+01	 5.16763000E+01	 3.51823160E+02
					 2.33426000E+02	 4.45347000E+02	 2.05162000E+03	-1.07851000E-08	 2.54745000E-08	-2.05099000E+02	 1.75830124E+03	 2.10577210E+02	 4.45347000E+02	 2.07446879E+03
					-6.93467000E+00	 4.45172000E+01	 2.28387000E+02	-4.45120000E-08	-4.88481000E-09	-1.69853000E+02	 3.63958745E+02	-9.58993748E+01	 4.45172000E+01	 3.17351705E+02
					 1.78969000E+02	 3.16445000E+02	 1.43333000E+03	-3.98909000E-08	 3.19497000E-08	-1.95649000E+02	 1.23883503E+03	 1.49160984E+02	 3.16445000E+02	 1.46313802E+03
					-6.93467000E+00	 4.45172000E+01	 2.28387000E+02	-4.45131000E-08	-4.88482000E-09	-1.69853000E+02	 3.63958745E+02	-9.58993748E+01	 4.45172000E+01	 3.17351705E+02
					 1.78969000E+02	 3.16445000E+02	 1.43333000E+03	-3.98904000E-08	 3.19497000E-08	-1.95649000E+02	 1.23883503E+03	 1.49160984E+02	 3.16445000E+02	 1.46313802E+03
					 5.18450000E+00	 3.65481000E+01	 1.77605000E+02	-7.45635000E-08	-5.88286000E-09	-1.46319000E+02	 2.99219862E+02	-7.84329773E+01	 3.65481000E+01	 2.61222477E+02
					 1.29839000E+02	 1.91240000E+02	 8.37647000E+02	-7.36363000E-08	-5.53772000E-09	-1.53351000E+02	 7.29281644E+02	 9.80428958E+01	 1.91240000E+02	 8.69443104E+02
					 5.18450000E+00	 3.65481000E+01	 1.77605000E+02	-7.45614000E-08	-5.88275000E-09	-1.46319000E+02	 2.99219862E+02	-7.84329773E+01	 3.65481000E+01	 2.61222477E+02
					 1.29839000E+02	 1.91240000E+02	 8.37647000E+02	-7.36367000E-08	-5.53776000E-09	-1.53351000E+02	 7.29281644E+02	 9.80428958E+01	 1.91240000E+02	 8.69443104E+02
					 1.63930000E+01	 3.48657000E+01	 1.58360000E+02	-2.95644000E-08	-1.81919000E-08	-9.16158000E+01	 2.07493904E+02	-2.85204891E+01	 3.48657000E+01	 2.03273489E+02
					 7.14134000E+01	 8.61892000E+01	 3.62145000E+02	-3.36633000E-08	-4.32545000E-08	-8.81217000E+01	 3.22092685E+02	 4.67890538E+01	 8.61892000E+01	 3.86769346E+02
					 1.63930000E+01	 3.48657000E+01	 1.58360000E+02	-2.95654000E-08	-1.81919000E-08	-9.16158000E+01	 2.07493904E+02	-2.85204891E+01	 3.48657000E+01	 2.03273489E+02
					 7.14134000E+01	 8.61892000E+01	 3.62145000E+02	-3.36635000E-08	-4.32545000E-08	-8.81217000E+01	 3.22092685E+02	 4.67890538E+01	 8.61892000E+01	 3.86769346E+02
					 4.72883000E+01	 4.19832000E+01	 1.63176000E+02	 2.07941000E-08	-2.72804000E-08	-5.96093000E+01	 1.57266350E+02	 2.21011786E+01	 4.19832000E+01	 1.88363121E+02
					 6.14915000E+01	 4.53512000E+01	 1.65908000E+02	-2.40611000E-09	-5.69717000E-08	-7.65206000E+01	 1.74398495E+02	 2.10655037E+01	 4.53512000E+01	 2.06333996E+02
					 4.72883000E+01	 4.19832000E+01	 1.63176000E+02	 2.07917000E-08	-2.72807000E-08	-5.96093000E+01	 1.57266350E+02	 2.21011786E+01	 4.19832000E+01	 1.88363121E+02
					 6.14915000E+01	 4.53512000E+01	 1.65908000E+02	-2.40545000E-09	-5.69717000E-08	-7.65206000E+01	 1.74398495E+02	 2.10655037E+01	 4.53512000E+01	 2.06333996E+02
					 2.48529000E+03	 2.15699000E+03	 9.56595000E+03	 0.00000000E+00	 0.00000000E+00	 3.50997000E+03	 9.46191185E+03	 1.04025884E+03	 2.15699000E+03	 1.10109812E+04
					 6.49251000E+02	 1.55589000E+03	 7.89340000E+03	-1.75912000E-08	-2.71230000E-08	 1.29458000E+03	 7.19441958E+03	 4.24851652E+02	 1.55589000E+03	 8.11779935E+03
					 2.48529000E+03	 2.15699000E+03	 9.56595000E+03	 0.00000000E+00	 0.00000000E+00	 3.50997000E+03	 9.46191185E+03	 1.04025884E+03	 2.15699000E+03	 1.10109812E+04