<?xml version="1.0"?>
<VTKFile type="UnstructuredGrid" version="0.1" byte_order="LittleEndian">
	<UnstructuredGrid>
		<Piece NumberOfPoints="126" NumberOfCells="40">
			<Points>
				<DataArray type="Float64" NumberOfComponents="3" format="ascii">
					 5.00000000E-02	 0.00000000E+00	 0.00000000E+00
					 0.00000000E+00	 0.00000000E+00	 0.00000000E+00
					 0.00000000E+00	 0.00000000E+00	 5.00000000E-02
					 5.00000000E-02	 0.00000000E+00	 5.00000000E-02
					 5.00000000E-02	 3.00000000E-01	 0.00000000E+00
					 0.00000000E+00	 3.00000000E-01	 0.00000000E+00
					 0.00000000E+00	 3.00000000E-01	 5.00000000E-02
					 5.00000000E-02	 3.00000000E-01	 5.00000000E-02
					 0.00000000E+00	 0.00000000E+00	 1.00000000E-01
					 5.00000000E-02	 0.00000000E+00	 1.00000000E-01
					 0.00000000E+00	 3.00000000E-01	 1.00000000E-01
					 5.00000000E-02	 3.00000000E-01	 1.00000000E-01
					 0.00000000E+00	 0.00000000E+00	 1.50000000E-01
					 5.00000000E-02	 0.00000000E+00	 1.50000000E-01
					 0.00000000E+00	 3.00000000E-01	 1.50000000E-01
					 5.00000000E-02	 3.00000000E-01	 1.50000000E-01
					 0.00000000E+00	 0.00000000E+00	 2.00000000E-01
					 5.00000000E-02	 0.00000000E+00	 2.00000000E-01
					 0.00000000E+00	 3.00000000E-01	 2.00000000E-01
					 5.00000000E-02	 3.00000000E-01	 2.00000000E-01
					 0.00000000E+00	 0.00000000E+00	 2.50000000E-01
					 5.00000000E-02	 0.00000000E+00	 2.50000000E-01
					 0.00000000E+00	 3.00000000E-01	 2.50000000E-01
					 5.00000000E-02	 3.00000000E-01	 2.50000000E-01
					 0.00000000E+00	 0.00000000E+00	 3.00000000E-01
					 5.00000000E-02	 0.00000000E+00	 3.00000000E-01
					 0.00000000E+00	 3.00000000E-01	 3.00000000E-01
					 5.00000000E-02	 3.00000000E-01	 3.00000000E-01
					 0.00000000E+00	 0.00000000E+00	 3.50000000E-01
					 5.00000000E-02	 0.00000000E+00	 3.50000000E-01
					 0.00000000E+00	 3.00000000E-01	 3.50000000E-01
					 5.00000000E-02	 3.00000000E-01	 3.50000000E-01
					 0.00000000E+00	 0.00000000E+00	 4.00000000E-01
					 5.00000000E-02	 0.00000000E+00	 4.00000000E-01
					 0.00000000E+00	 3.00000000E-01	 4.00000000E-01
					 5.00000000E-02	 3.00000000E-01	 4.00000000E-01
					 0.00000000E+00	 0.00000000E+00	 4.50000000E-01
					 5.00000000E-02	 0.00000000E+00	 4.50000000E-01
					 0.00000000E+00	 3.00000000E-01	 4.50000000E-01
					 5.00000000E-02	 3.00000000E-01	 4.50000000E-01
					 0.00000000E+00	 0.00000000E+00	 5.00000000E-01
					 5.00000000E-02	 0.00000000E+00	 5.00000000E-01
					 0.00000000E+00	 3.00000000E-01	 5.00000000E-01
					 5.00000000E-02	 3.00000000E-01	 5.00000000E-01
					 0.00000000E+00	 0.00000000E+00	 5.50000000E-01
					 5.00000000E-02	 0.00000000E+00	 5.50000000E-01
					 0.00000000E+00	 3.00000000E-01	 5.50000000E-01
					 5.00000000E-02	 3.00000000E-01	 5.50000000E-01
					 0.00000000E+00	 0.00000000E+00	 6.00000000E-01
					 5.00000000E-02	 0.00000000E+00	 6.00000000E-01
					 0.00000000E+00	 3.00000000E-01	 6.00000000E-01
					 5.00000000E-02	 3.00000000E-01	 6.00000000E-01
					 0.00000000E+00	 0.00000000E+00	 6.50000000E-01
					 5.00000000E-02	 0.00000000E+00	 6.50000000E-01
					 0.00000000E+00	 3.00000000E-01	 6.50000000E-01
					 5.00000000E-02	 3.00000000E-01	 6.50000000E-01
					 0.00000000E+00	 0.00000000E+00	 7.00000000E-01
					 5.00000000E-02	 0.00000000E+00	 7.00000000E-01
					 0.00000000E+00	 3.00000000E-01	 7.00000000E-01
					 5.00000000E-02	 3.00000000E-01	 7.00000000E-01
					 0.00000000E+00	 0.00000000E+00	 7.50000000E-01
					 5.00000000E-02	 0.00000000E+00	 7.50000000E-01
					 0.00000000E+00	 3.00000000E-01	 7.50000000E-01
					 5.00000000E-02	 3.00000000E-01	 7.50000000E-01
					 0.00000000E+00	 0.00000000E+00	 8.00000000E-01
					 5.00000000E-02	 0.00000000E+00	 8.00000000E-01
					 0.00000000E+00	 3.00000000E-01	 8.00000000E-01
					 5.00000000E-02	 3.00000000E-01	 8.00000000E-01
					 0.00000000E+00	 0.00000000E+00	 8.50000000E-01
					 5.00000000E-02	 0.00000000E+00	 8.50000000E-01
					 0.00000000E+00	 3.00000000E-01	 8.50000000E-01
					 5.00000000E-02	 3.00000000E-01	 8.50000000E-01
					 0.00000000E+00	 0.00000000E+00	 9.00000000E-01
					 5.00000000E-02	 0.00000000E+00	 9.00000000E-01
					 0.00000000E+00	 3.00000000E-01	 9.00000000E-01
					 5.00000000E-02	 3.00000000E-01	 9.00000000E-01
					 0.00000000E+00	 0.00000000E+00	 9.50000000E-01
					 5.00000000E-02	 0.00000000E+00	 9.50000000E-01
					 0.00000000E+00	 3.00000000E-01	 9.50000000E-01
					 5.00000000E-02	 3.00000000E-01	 9.50000000E-01
					 0.00000000E+00	 0.00000000E+00	 1.00000000E+00
					 5.00000000E-02	 0.00000000E+00	 1.00000000E+00
					 0.00000000E+00	 3.00000000E-01	 1.00000000E+00
					 5.00000000E-02	 3.00000000E-01	 1.00000000E+00
					-5.00000000E-02	 0.00000000E+00	 0.00000000E+00
					-5.00000000E-02	 0.00000000E+00	 5.00000000E-02
					-5.00000000E-02	 3.00000000E-01	 0.00000000E+00
					-5.00000000E-02	 3.00000000E-01	 5.00000000E-02
					-5.00000000E-02	 0.00000000E+00	 1.00000000E-01
					-5.00000000E-02	 3.00000000E-01	 1.00000000E-01
					-5.00000000E-02	 0.00000000E+00	 1.50000000E-01
					-5.00000000E-02	 3.00000000E-01	 1.50000000E-01
					-5.00000000E-02	 0.00000000E+00	 2.00000000E-01
					-5.00000000E-02	 3.00000000E-01	 2.00000000E-01
					-5.00000000E-02	 0.00000000E+00	 2.50000000E-01
					-5.00000000E-02	 3.00000000E-01	 2.50000000E-01
					-5.00000000E-02	 0.00000000E+00	 3.00000000E-01
					-5.00000000E-02	 3.00000000E-01	 3.00000000E-01
					-5.00000000E-02	 0.00000000E+00	 3.50000000E-01
					-5.00000000E-02	 3.00000000E-01	 3.50000000E-01
					-5.00000000E-02	 0.00000000E+00	 4.00000000E-01
					-5.00000000E-02	 3.00000000E-01	 4.00000000E-01
					-5.00000000E-02	 0.00000000E+00	 4.50000000E-01
					-5.00000000E-02	 3.00000000E-01	 4.50000000E-01
					-5.00000000E-02	 0.00000000E+00	 5.00000000E-01
					-5.00000000E-02	 3.00000000E-01	 5.00000000E-01
					-5.00000000E-02	 0.00000000E+00	 5.50000000E-01
					-5.00000000E-02	 3.00000000E-01	 5.50000000E-01
					-5.00000000E-02	 0.00000000E+00	 6.00000000E-01
					-5.00000000E-02	 3.00000000E-01	 6.00000000E-01
					-5.00000000E-02	 0.00000000E+00	 6.50000000E-01
					-5.00000000E-02	 3.00000000E-01	 6.50000000E-01
					-5.00000000E-02	 0.00000000E+00	 7.00000000E-01
					-5.00000000E-02	 3.00000000E-01	 7.00000000E-01
					-5.00000000E-02	 0.00000000E+00	 7.50000000E-01
					-5.00000000E-02	 3.00000000E-01	 7.50000000E-01
					-5.00000000E-02	 0.00000000E+00	 8.00000000E-01
					-5.00000000E-02	 3.00000000E-01	 8.00000000E-01
					-5.00000000E-02	 0.00000000E+00	 8.50000000E-01
					-5.00000000E-02	 3.00000000E-01	 8.50000000E-01
					-5.00000000E-02	 0.00000000E+00	 9.00000000E-01
					-5.00000000E-02	 3.00000000E-01	 9.00000000E-01
					-5.00000000E-02	 0.00000000E+00	 9.50000000E-01
					-5.00000000E-02	 3.00000000E-01	 9.50000000E-01
					-5.00000000E-02	 0.00000000E+00	 1.00000000E+00
					-5.00000000E-02	 3.00000000E-01	 1.00000000E+00

				</DataArray>
			</Points>
			<Cells>
				<DataArray type="Int32" Name="connectivity" format="ascii">
					0 1 2 3 4 5 6 7 3 2 8 9 7 6 10 11 9 8 12 13 11 10 14 15 13 12 16 17 15 14 18 19 17 16 20 21 19 18 22 23 21 20 24 25 23 22 26 27 25 24 28 29 27 26 30 31 29 28 32 33 31 30 34 35 33 32 36 37 35 34 38 39 37 36 40 41 39 38 42 43 41 40 44 45 43 42 46 47 45 44 48 49 47 46 50 51 49 48 52 53 51 50 54 55 53 52 56 57 55 54 58 59 57 56 60 61 59 58 62 63 61 60 64 65 63 62 66 67 65 64 68 69 67 66 70 71 69 68 72 73 71 70 74 75 73 72 76 77 75 74 78 79 77 76 80 81 79 78 82 83 1 84 85 2 5 86 87 6 2 85 88 8 6 87 89 10 8 88 90 12 10 89 91 14 12 90 92 16 14 91 93 18 16 92 94 20 18 93 95 22 20 94 96 24 22 95 97 26 24 96 98 28 26 97 99 30 28 98 100 32 30 99 101 34 32 100 102 36 34 101 103 38 36 102 104 40 38 103 105 42 40 104 106 44 42 105 107 46 44 106 108 48 46 107 109 50 48 108 110 52 50 109 111 54 52 110 112 56 54 111 113 58 56 112 114 60 58 113 115 62 60 114 116 64 62 115 117 66 64 116 118 68 66 117 119 70 68 118 120 72 70 119 121 74 72 120 122 76 74 121 123 78 76 122 124 80 78 123 125 82 
				</DataArray>
				<DataArray type="Int32" Name="offsets" format="ascii">
					8 16 24 32 40 48 56 64 72 80 88 96 104 112 120 128 136 144 152 160 168 176 184 192 200 208 216 224 232 240 248 256 264 272 280 288 296 304 312 320 
				</DataArray>
				<DataArray type="UInt8" Name="types" format="ascii">
					12 12 12 12 12 12 12 12 12 12 12 12 12 12 12 12 12 12 12 12 12 12 12 12 12 12 12 12 12 12 12 12 12 12 12 12 12 12 12 12 
				</DataArray>
			</Cells>
			<PointData>
				<DataArray type="Float32" Name="U" NumberOfComponents="3" ComponentName0="D1" ComponentName1="D2" ComponentName2="D3" format="ascii">
					 0.00000000E+00	 0.00000000E+00	 0.00000000E+00
					 0.00000000E+00	 0.00000000E+00	 0.00000000E+00
					 3.37551000E-03	 0.00000000E+00	-4.49404000E-04
					 3.74540000E-03	 0.00000000E+00	-6.55324000E-03
					 0.00000000E+00	 0.00000000E+00	 0.00000000E+00
					 0.00000000E+00	 0.00000000E+00	 0.00000000E+00
					 3.37551000E-03	 0.00000000E+00	-4.49404000E-04
					 3.74540000E-03	 0.00000000E+00	-6.55324000E-03
					 1.28865000E-02	 0.00000000E+00	-1.50658000E-03
					 1.20344000E-02	 0.00000000E+00	-1.29191000E-02
					 1.28865000E-02	 0.00000000E+00	-1.50658000E-03
					 1.20344000E-02	 0.00000000E+00	-1.29191000E-02
					 2.69397000E-02	 0.00000000E+00	-3.63370000E-03
					 2.48429000E-02	 0.00000000E+00	-1.94269000E-02
					 2.69397000E-02	 0.00000000E+00	-3.63370000E-03
					 2.48429000E-02	 0.00000000E+00	-1.94269000E-02
					 4.48779000E-02	 0.00000000E+00	-7.03255000E-03
					 4.13475000E-02	 0.00000000E+00	-2.64947000E-02
					 4.48779000E-02	 0.00000000E+00	-7.03255000E-03
					 4.13475000E-02	 0.00000000E+00	-2.64947000E-02
					 6.61093000E-02	 0.00000000E+00	-1.17912000E-02
					 6.10847000E-02	 0.00000000E+00	-3.43918000E-02
					 6.61093000E-02	 0.00000000E+00	-1.17912000E-02
					 6.10847000E-02	 0.00000000E+00	-3.43918000E-02
					 9.02134000E-02	 0.00000000E+00	-1.79616000E-02
					 8.36619000E-02	 0.00000000E+00	-4.32877000E-02
					 9.02134000E-02	 0.00000000E+00	-1.79616000E-02
					 8.36619000E-02	 0.00000000E+00	-4.32877000E-02
					 1.16857000E-01	 0.00000000E+00	-2.55732000E-02
					 1.08781000E-01	 0.00000000E+00	-5.32881000E-02
					 1.16857000E-01	 0.00000000E+00	-2.55732000E-02
					 1.08781000E-01	 0.00000000E+00	-5.32881000E-02
					 1.45750000E-01	 0.00000000E+00	-3.46318000E-02
					 1.36175000E-01	 0.00000000E+00	-6.44350000E-02
					 1.45750000E-01	 0.00000000E+00	-3.46318000E-02
					 1.36175000E-01	 0.00000000E+00	-6.44350000E-02
					 1.76612000E-01	 0.00000000E+00	-4.51060000E-02
					 1.65587000E-01	 0.00000000E+00	-7.67341000E-02
					 1.76612000E-01	 0.00000000E+00	-4.51060000E-02
					 1.65587000E-01	 0.00000000E+00	-7.67341000E-02
					 2.09186000E-01	 0.00000000E+00	-5.69516000E-02
					 1.96771000E-01	 0.00000000E+00	-9.01837000E-02
					 2.09186000E-01	 0.00000000E+00	-5.69516000E-02
					 1.96771000E-01	 0.00000000E+00	-9.01837000E-02
					 2.43265000E-01	 0.00000000E+00	-7.01359000E-02
					 2.29533000E-01	 0.00000000E+00	-1.04782000E-01
					 2.43265000E-01	 0.00000000E+00	-7.01359000E-02
					 2.29533000E-01	 0.00000000E+00	-1.04782000E-01
					 2.78663000E-01	 0.00000000E+00	-8.46038000E-02
					 2.63699000E-01	 0.00000000E+00	-1.20475000E-01
					 2.78663000E-01	 0.00000000E+00	-8.46038000E-02
					 2.63699000E-01	 0.00000000E+00	-1.20475000E-01
					 3.15190000E-01	 0.00000000E+00	-1.00248000E-01
					 2.99091000E-01	 0.00000000E+00	-1.37171000E-01
					 3.15190000E-01	 0.00000000E+00	-1.00248000E-01
					 2.99091000E-01	 0.00000000E+00	-1.37171000E-01
					 3.52684000E-01	 0.00000000E+00	-1.16960000E-01
					 3.35541000E-01	 0.00000000E+00	-1.54793000E-01
					 3.52684000E-01	 0.00000000E+00	-1.16960000E-01
					 3.35541000E-01	 0.00000000E+00	-1.54793000E-01
					 3.91029000E-01	 0.00000000E+00	-1.34672000E-01
					 3.72931000E-01	 0.00000000E+00	-1.73298000E-01
					 3.91029000E-01	 0.00000000E+00	-1.34672000E-01
					 3.72931000E-01	 0.00000000E+00	-1.73298000E-01
					 4.30126000E-01	 0.00000000E+00	-1.53326000E-01
					 4.11188000E-01	 0.00000000E+00	-1.92609000E-01
					 4.30126000E-01	 0.00000000E+00	-1.53326000E-01
					 4.11188000E-01	 0.00000000E+00	-1.92609000E-01
					 4.69832000E-01	 0.00000000E+00	-1.72791000E-01
					 4.50230000E-01	 0.00000000E+00	-2.12558000E-01
					 4.69832000E-01	 0.00000000E+00	-1.72791000E-01
					 4.50230000E-01	 0.00000000E+00	-2.12558000E-01
					 5.09936000E-01	 0.00000000E+00	-1.92821000E-01
					 4.89901000E-01	 0.00000000E+00	-2.32877000E-01
					 5.09936000E-01	 0.00000000E+00	-1.92821000E-01
					 4.89901000E-01	 0.00000000E+00	-2.32877000E-01
					 5.50209000E-01	 0.00000000E+00	-2.13116000E-01
					 5.29968000E-01	 0.00000000E+00	-2.53296000E-01
					 5.50209000E-01	 0.00000000E+00	-2.13116000E-01
					 5.29968000E-01	 0.00000000E+00	-2.53296000E-01
					 5.90478000E-01	 0.00000000E+00	-2.33431000E-01
					 5.70178000E-01	 0.00000000E+00	-2.73652000E-01
					 5.90478000E-01	 0.00000000E+00	-2.33431000E-01
					 5.70178000E-01	 0.00000000E+00	-2.73652000E-01
					 0.00000000E+00	 0.00000000E+00	 0.00000000E+00
					 4.77974000E-03	 0.00000000E+00	 5.46919000E-03
					 0.00000000E+00	 0.00000000E+00	 0.00000000E+00
					 4.77974000E-03	 0.00000000E+00	 5.46919000E-03
					 1.48962000E-02	 0.00000000E+00	 9.54476000E-03
					 1.48962000E-02	 0.00000000E+00	 9.54476000E-03
					 3.00515000E-02	 0.00000000E+00	 1.17497000E-02
					 3.00515000E-02	 0.00000000E+00	 1.17497000E-02
					 4.92653000E-02	 0.00000000E+00	 1.20283000E-02
					 4.92653000E-02	 0.00000000E+00	 1.20283000E-02
					 7.18796000E-02	 0.00000000E+00	 1.04135000E-02
					 7.18796000E-02	 0.00000000E+00	 1.04135000E-02
					 9.74210000E-02	 0.00000000E+00	 6.96698000E-03
					 9.74210000E-02	 0.00000000E+00	 6.96698000E-03
					 1.25504000E-01	 0.00000000E+00	 1.74972000E-03
					 1.25504000E-01	 0.00000000E+00	 1.74972000E-03
					 1.55828000E-01	 0.00000000E+00	-5.20882000E-03
					 1.55828000E-01	 0.00000000E+00	-5.20882000E-03
					 1.88076000E-01	 0.00000000E+00	-1.38435000E-02
					 1.88076000E-01	 0.00000000E+00	-1.38435000E-02
					 2.21984000E-01	 0.00000000E+00	-2.40761000E-02
					 2.21984000E-01	 0.00000000E+00	-2.40761000E-02
					 2.57326000E-01	 0.00000000E+00	-3.58281000E-02
					 2.57326000E-01	 0.00000000E+00	-3.58281000E-02
					 2.93914000E-01	 0.00000000E+00	-4.90442000E-02
					 2.93914000E-01	 0.00000000E+00	-4.90442000E-02
					 3.31539000E-01	 0.00000000E+00	-6.36080000E-02
					 3.31539000E-01	 0.00000000E+00	-6.36080000E-02
					 3.70044000E-01	 0.00000000E+00	-7.93889000E-02
					 3.70044000E-01	 0.00000000E+00	-7.93889000E-02
					 4.09308000E-01	 0.00000000E+00	-9.62826000E-02
					 4.09308000E-01	 0.00000000E+00	-9.62826000E-02
					 4.49208000E-01	 0.00000000E+00	-1.14243000E-01
					 4.49208000E-01	 0.00000000E+00	-1.14243000E-01
					 4.89531000E-01	 0.00000000E+00	-1.33170000E-01
					 4.89531000E-01	 0.00000000E+00	-1.33170000E-01
					 5.30021000E-01	 0.00000000E+00	-1.52850000E-01
					 5.30021000E-01	 0.00000000E+00	-1.52850000E-01
					 5.70464000E-01	 0.00000000E+00	-1.72971000E-01
					 5.70464000E-01	 0.00000000E+00	-1.72971000E-01
					 6.10769000E-01	 0.00000000E+00	-1.93234000E-01
					 6.10769000E-01	 0.00000000E+00	-1.93234000E-01
				</DataArray>
				<DataArray type="Float32" Name="S" NumberOfComponents="10" ComponentName0="xx" ComponentName1="yy" ComponentName2="zz" ComponentName3="xy" ComponentName4="yz" ComponentName5="zx" ComponentName6="Mises" ComponentName7="Min Principal" ComponentName8="Mid Principal" ComponentName9="Max Principal" format="ascii">
					-4.18592000E+03	-4.58211000E+03	-1.45571000E+04	 0.00000000E+00	 0.00000000E+00	 2.58171000E+03	 1.11177814E+04	-1.51642270E+04	-4.58211000E+03	-3.57879301E+03
					 8.78256000E+01	-2.22966000E+02	-1.64257000E+03	 0.00000000E+00	 0.00000000E+00	 3.24804000E+03	 5.84827833E+03	-4.13867122E+03	-2.22966000E+02	 2.58392682E+03
					-1.42656000E+02	-2.67419000E+02	-1.50904000E+03	 4.82119000E-08	 1.47408000E-08	 3.04070000E+02	 1.41048664E+03	-1.57365137E+03	-2.67419000E+02	-7.80446343E+01
					-1.98398000E+03	-3.64919000E+03	-1.31601000E+04	 4.26534000E-08	 1.35634000E-09	-7.53260000E+02	 1.05247422E+04	-1.32106405E+04	-3.64919000E+03	-1.93343954E+03
					-4.18592000E+03	-4.58211000E+03	-1.45571000E+04	 0.00000000E+00	 0.00000000E+00	 2.58171000E+03	 1.11177814E+04	-1.51642270E+04	-4.58211000E+03	-3.57879301E+03
					 8.78256000E+01	-2.22966000E+02	-1.64257000E+03	 0.00000000E+00	 0.00000000E+00	 3.24804000E+03	 5.84827833E+03	-4.13867122E+03	-2.22966000E+02	 2.58392682E+03
					-1.42656000E+02	-2.67419000E+02	-1.50904000E+03	 4.82119000E-08	 1.47408000E-08	 3.04070000E+02	 1.41048664E+03	-1.57365137E+03	-2.67419000E+02	-7.80446343E+01
					-1.98398000E+03	-3.64919000E+03	-1.31601000E+04	 4.26533000E-08	 1.35616000E-09	-7.53260000E+02	 1.05247422E+04	-1.32106405E+04	-3.64919000E+03	-1.93343954E+03
					-8.48333000E+01	-1.85050000E+02	-1.16004000E+03	 1.07673000E-07	 1.81779000E-08	 3.71218000E+02	 1.21316428E+03	-1.27575140E+03	-1.85050000E+02	 3.08781022E+01
					-2.49975000E+03	-3.24363000E+03	-1.13769000E+04	 9.31943000E-08	 1.14370000E-08	-1.78206000E+03	 9.07087806E+03	-1.17212829E+04	-3.24363000E+03	-2.15536714E+03
					-8.48333000E+01	-1.85050000E+02	-1.16004000E+03	 1.07673000E-07	 1.81779000E-08	 3.71218000E+02	 1.21316428E+03	-1.27575140E+03	-1.85050000E+02	 3.08781022E+01
					-2.49975000E+03	-3.24363000E+03	-1.13769000E+04	 9.31946000E-08	 1.14372000E-08	-1.78206000E+03	 9.07087806E+03	-1.17212829E+04	-3.24363000E+03	-2.15536714E+03
					 9.77032000E+00	-1.30844000E+02	-8.91741000E+02	 9.96524000E-08	 2.23639000E-08	 2.10780000E+02	 9.15977222E+02	-9.38588468E+02	-1.30844000E+02	 5.66177884E+01
					-2.30347000E+03	-2.68111000E+03	-9.45293000E+03	 9.20904000E-08	 2.85851000E-08	-2.22547000E+03	 7.96339239E+03	-1.00890682E+04	-2.68111000E+03	-1.66733176E+03
					 9.77032000E+00	-1.30844000E+02	-8.91741000E+02	 9.96524000E-08	 2.23636000E-08	 2.10780000E+02	 9.15977222E+02	-9.38588468E+02	-1.30844000E+02	 5.66177884E+01
					-2.30347000E+03	-2.68111000E+03	-9.45293000E+03	 9.20896000E-08	 2.85857000E-08	-2.22547000E+03	 7.96339239E+03	-1.00890682E+04	-2.68111000E+03	-1.66733176E+03
					 2.95056000E+01	-9.30444000E+01	-6.71726000E+02	 6.87478000E-08	 3.55315000E-08	 1.36050000E+02	 6.90171815E+02	-6.97196682E+02	-9.30444000E+01	 5.49762817E+01
					-2.37812000E+03	-2.31111000E+03	-7.94265000E+03	 6.37419000E-08	 5.67602000E-08	-2.46253000E+03	 7.03800580E+03	-8.87590011E+03	-2.31111000E+03	-1.44486989E+03
					 2.95056000E+01	-9.30444000E+01	-6.71726000E+02	 6.87480000E-08	 3.55308000E-08	 1.36050000E+02	 6.90171815E+02	-6.97196682E+02	-9.30444000E+01	 5.49762817E+01
					-2.37812000E+03	-2.31111000E+03	-7.94265000E+03	 6.37412000E-08	 5.67608000E-08	-2.46253000E+03	 7.03800580E+03	-8.87590011E+03	-2.31111000E+03	-1.44486989E+03
					 3.58601000E+01	-6.08277000E+01	-4.78971000E+02	 6.90699000E-08	 5.99394000E-08	 1.03203000E+02	 5.06531621E+02	-4.98888507E+02	-6.08277000E+01	 5.57776072E+01
					-2.45290000E+03	-2.02650000E+03	-6.72695000E+03	 8.24872000E-08	 7.51596000E-08	-2.53643000E+03	 6.29064438E+03	-7.90660301E+03	-2.02650000E+03	-1.27324699E+03
					 3.58601000E+01	-6.08277000E+01	-4.78971000E+02	 6.90690000E-08	 5.99396000E-08	 1.03203000E+02	 5.06531621E+02	-4.98888507E+02	-6.08277000E+01	 5.57776072E+01
					-2.45290000E+03	-2.02650000E+03	-6.72695000E+03	 8.24869000E-08	 7.51600000E-08	-2.53643000E+03	 6.29064438E+03	-7.90660301E+03	-2.02650000E+03	-1.27324699E+03
					 4.81333000E+01	-3.36420000E+01	-3.27579000E+02	 6.99090000E-08	 1.01403000E-07	 1.15369000E+02	 3.96299085E+02	-3.60176789E+02	-3.36420000E+01	 8.07310891E+01
					-2.51761000E+03	-1.80114000E+03	-5.73658000E+03	 4.74123000E-08	 1.19019000E-07	-2.50522000E+03	 5.65771812E+03	-7.10477349E+03	-1.80114000E+03	-1.14941651E+03
					 4.81333000E+01	-3.36420000E+01	-3.27579000E+02	 6.99122000E-08	 1.01403000E-07	 1.15369000E+02	 3.96299085E+02	-3.60176789E+02	-3.36420000E+01	 8.07310891E+01
					-2.51761000E+03	-1.80114000E+03	-5.73658000E+03	 4.74092000E-08	 1.19019000E-07	-2.50522000E+03	 5.65771812E+03	-7.10477349E+03	-1.80114000E+03	-1.14941651E+03
					 1.03052000E+02	-1.47178000E+00	-2.00550000E+02	 7.45673000E-08	 1.18209000E-07	 1.42541000E+02	 3.63757579E+02	-2.56983196E+02	-1.47178000E+00	 1.59485196E+02
					-2.52241000E+03	-1.60152000E+03	-4.89177000E+03	 6.81716000E-08	 1.14300000E-07	-2.40194000E+03	 5.09428822E+03	-6.38529508E+03	-1.60152000E+03	-1.02888492E+03
					 1.03052000E+02	-1.47178000E+00	-2.00550000E+02	 7.45648000E-08	 1.18209000E-07	 1.42541000E+02	 3.63757579E+02	-2.56983196E+02	-1.47178000E+00	 1.59485196E+02
					-2.52241000E+03	-1.60152000E+03	-4.89177000E+03	 6.81721000E-08	 1.14298000E-07	-2.40194000E+03	 5.09428822E+03	-6.38529508E+03	-1.60152000E+03	-1.02888492E+03
					 1.55619000E+02	 2.42342000E+01	-1.07884000E+02	 3.30584000E-08	 1.31974000E-07	 1.79988000E+02	 3.86345115E+02	-1.99188856E+02	 2.42342000E+01	 2.46923856E+02
					-2.48550000E+03	-1.42302000E+03	-4.16412000E+03	 4.05494000E-08	 1.50725000E-07	-2.24599000E+03	 4.56766267E+03	-5.72249896E+03	-1.42302000E+03	-9.27121038E+02
					 1.55619000E+02	 2.42342000E+01	-1.07884000E+02	 3.30627000E-08	 1.31974000E-07	 1.79988000E+02	 3.86345115E+02	-1.99188856E+02	 2.42342000E+01	 2.46923856E+02
					-2.48550000E+03	-1.42302000E+03	-4.16412000E+03	 4.05451000E-08	 1.50725000E-07	-2.24599000E+03	 4.56766267E+03	-5.72249896E+03	-1.42302000E+03	-9.27121038E+02
					 1.97384000E+02	 4.31391000E+01	-4.16045000E+01	 1.85015000E-08	 1.33676000E-07	 2.07563000E+02	 4.16282875E+02	-1.61612389E+02	 4.31391000E+01	 3.17391889E+02
					-2.42750000E+03	-1.26954000E+03	-3.55340000E+03	 3.75186000E-08	 1.36252000E-07	-2.07270000E+03	 4.09884437E+03	-5.13823909E+03	-1.26954000E+03	-8.42660906E+02
					 1.97384000E+02	 4.31391000E+01	-4.16045000E+01	 1.84923000E-08	 1.33678000E-07	 2.07563000E+02	 4.16282875E+02	-1.61612389E+02	 4.31391000E+01	 3.17391889E+02
					-2.42750000E+03	-1.26954000E+03	-3.55340000E+03	 3.75250000E-08	 1.36253000E-07	-2.07270000E+03	 4.09884437E+03	-5.13823909E+03	-1.26954000E+03	-8.42660906E+02
					 2.20600000E+02	 5.02814000E+01	-1.73056000E+01	 1.98239000E-08	 1.28758000E-07	 2.16719000E+02	 4.31264566E+02	-1.45571112E+02	 5.02814000E+01	 3.48865512E+02
					-2.35522000E+03	-1.14202000E+03	-3.05901000E+03	 1.25634000E-08	 1.07341000E-07	-1.90721000E+03	 3.70585518E+03	-4.64651699E+03	-1.14202000E+03	-7.67713011E+02
					 2.20600000E+02	 5.02814000E+01	-1.73056000E+01	 1.98295000E-08	 1.28755000E-07	 2.16719000E+02	 4.31264566E+02	-1.45571112E+02	 5.02814000E+01	 3.48865512E+02
					-2.35522000E+03	-1.14202000E+03	-3.05901000E+03	 1.25613000E-08	 1.07340000E-07	-1.90721000E+03	 3.70585518E+03	-4.64651699E+03	-1.14202000E+03	-7.67713011E+02
					 2.50317000E+02	 5.48802000E+01	-1.47012000E+01	 9.50276000E-09	 9.97188000E-08	 1.98008000E+02	 4.17441474E+02	-1.20447907E+02	 5.48802000E+01	 3.56063707E+02
					-2.24321000E+03	-1.02341000E+03	-2.63459000E+03	-5.19076000E-09	 5.99354000E-08	-1.74848000E+03	 3.36006586E+03	-4.19829674E+03	-1.02341000E+03	-6.79503261E+02
					 2.50317000E+02	 5.48802000E+01	-1.47012000E+01	 9.50597000E-09	 9.97237000E-08	 1.98008000E+02	 4.17441474E+02	-1.20447907E+02	 5.48802000E+01	 3.56063707E+02
					-2.24321000E+03	-1.02341000E+03	-2.63459000E+03	-5.20636000E-09	 5.99384000E-08	-1.74848000E+03	 3.36006586E+03	-4.19829674E+03	-1.02341000E+03	-6.79503261E+02
					 2.60004000E+02	 5.38676000E+01	-2.22729000E+01	 0.00000000E+00	 5.96659000E-08	 1.77428000E+02	 3.98028900E+02	-1.07851801E+02	 5.38676000E+01	 3.45582901E+02
					-2.10477000E+03	-9.09575000E+02	-2.25365000E+03	-3.62229000E-08	 2.91966000E-08	-1.57720000E+03	 3.01517437E+03	-3.75816572E+03	-9.09575000E+02	-6.00254284E+02
					 2.60004000E+02	 5.38676000E+01	-2.22729000E+01	 0.00000000E+00	 5.96682000E-08	 1.77428000E+02	 3.98028900E+02	-1.07851801E+02	 5.38676000E+01	 3.45582901E+02
					-2.10477000E+03	-9.09575000E+02	-2.25365000E+03	-3.62187000E-08	 2.91954000E-08	-1.57720000E+03	 3.01517437E+03	-3.75816572E+03	-9.09575000E+02	-6.00254284E+02
					 2.54579000E+02	 5.24214000E+01	-1.78946000E+01	 2.00798000E-08	 2.89627000E-09	 1.62967000E+02	 3.73766877E+02	-9.40694493E+01	 5.24214000E+01	 3.30753849E+02
					-1.96438000E+03	-8.06982000E+02	-1.92197000E+03	-1.46053000E-08	-4.49544000E-08	-1.40624000E+03	 2.68790184E+03	-3.34957487E+03	-8.06982000E+02	-5.36775132E+02
					 2.54579000E+02	 5.24214000E+01	-1.78946000E+01	 2.00853000E-08	 2.90098000E-09	 1.62967000E+02	 3.73766877E+02	-9.40694493E+01	 5.24214000E+01	 3.30753849E+02
					-1.96438000E+03	-8.06982000E+02	-1.92197000E+03	-1.46230000E-08	-4.49516000E-08	-1.40624000E+03	 2.68790184E+03	-3.34957487E+03	-8.06982000E+02	-5.36775132E+02
					 2.46480000E+02	 4.82871000E+01	-2.44577000E+01	 4.85876000E-08	-5.74757000E-08	 1.52039000E+02	 3.58241967E+02	-9.26249638E+01	 4.82871000E+01	 3.14647264E+02
					-1.82447000E+03	-7.19987000E+02	-1.65699000E+03	 2.29213000E-08	-8.01157000E-08	-1.25269000E+03	 2.40221776E+03	-2.99621581E+03	-7.19987000E+02	-4.85244188E+02
					 2.46480000E+02	 4.82871000E+01	-2.44577000E+01	 4.85639000E-08	-5.74744000E-08	 1.52039000E+02	 3.58241967E+02	-9.26249638E+01	 4.82871000E+01	 3.14647264E+02
					-1.82447000E+03	-7.19987000E+02	-1.65699000E+03	 2.29314000E-08	-8.01259000E-08	-1.25269000E+03	 2.40221776E+03	-2.99621581E+03	-7.19987000E+02	-4.85244188E+02
					 2.65559000E+02	 4.55313000E+01	-5.14033000E+01	 8.53090000E-08	-8.83548000E-08	 1.24268000E+02	 3.54209557E+02	-9.43143314E+01	 4.55313000E+01	 3.08470031E+02
					-1.62742000E+03	-6.29135000E+02	-1.42596000E+03	 7.68338000E-08	-8.81368000E-08	-1.10498000E+03	 2.12108156E+03	-2.63625178E+03	-6.29135000E+02	-4.17128225E+02
					 2.65559000E+02	 4.55313000E+01	-5.14033000E+01	 8.53220000E-08	-8.83551000E-08	 1.24268000E+02	 3.54209557E+02	-9.43143314E+01	 4.55313000E+01	 3.08470031E+02
					-1.62742000E+03	-6.29135000E+02	-1.42596000E+03	 7.68302000E-08	-8.81344000E-08	-1.10498000E+03	 2.12108156E+03	-2.63625178E+03	-6.29135000E+02	-4.17128225E+02
					 2.91772000E+02	 3.82397000E+01	-1.08530000E+02	 7.71992000E-08	-7.39942000E-08	 8.58394000E+01	 3.80967242E+02	-1.26160600E+02	 3.82397000E+01	 3.09402600E+02
					-1.31636000E+03	-5.12132000E+02	-1.18128000E+03	 7.50275000E-08	-7.39007000E-08	-9.14799000E+02	 1.75127548E+03	-2.16610887E+03	-5.12132000E+02	-3.31531135E+02
					 2.91772000E+02	 3.82397000E+01	-1.08530000E+02	 7.71956000E-08	-7.39929000E-08	 8.58394000E+01	 3.80967242E+02	-1.26160600E+02	 3.82397000E+01	 3.09402600E+02
					-1.31636000E+03	-5.12132000E+02	-1.18128000E+03	 7.50158000E-08	-7.39049000E-08	-9.14799000E+02	 1.75127548E+03	-2.16610887E+03	-5.12132000E+02	-3.31531135E+02
					 2.96685000E+02	 2.93791000E+01	-1.53460000E+02	 5.23963000E-08	-6.57297000E-08	 4.50731000E+01	 3.99814087E+02	-1.57928813E+02	 2.93791000E+01	 3.01153813E+02
					-8.88789000E+02	-3.60612000E+02	-8.81812000E+02	 5.86896000E-08	-7.73559000E-08	-6.60727000E+02	 1.25897380E+03	-1.54603671E+03	-3.60612000E+02	-2.24564291E+02
					 2.96685000E+02	 2.93791000E+01	-1.53460000E+02	 5.24136000E-08	-6.57260000E-08	 4.50731000E+01	 3.99814087E+02	-1.57928813E+02	 2.93791000E+01	 3.01153813E+02
					-8.88789000E+02	-3.60612000E+02	-8.81812000E+02	 5.86893000E-08	-7.73614000E-08	-6.60727000E+02	 1.25897380E+03	-1.54603671E+03	-3.60612000E+02	-2.24564291E+02
					 2.48600000E+02	 1.92483000E+01	-1.53434000E+02	 4.20171000E-08	-7.79151000E-08	 2.04064000E+01	 3.51106282E+02	-1.54467131E+02	 1.92483000E+01	 2.49633131E+02
					-4.47221000E+02	-2.01122000E+02	-5.47704000E+02	 3.27114000E-08	-9.06045000E-08	-3.76414000E+02	 7.21424158E+02	-8.77214666E+02	-2.01122000E+02	-1.17710334E+02
					 2.48600000E+02	 1.92483000E+01	-1.53434000E+02	 4.20269000E-08	-7.79064000E-08	 2.04064000E+01	 3.51106282E+02	-1.54467131E+02	 1.92483000E+01	 2.49633131E+02
					-4.47221000E+02	-2.01122000E+02	-5.47704000E+02	 3.27052000E-08	-9.06088000E-08	-3.76414000E+02	 7.21424158E+02	-8.77214666E+02	-2.01122000E+02	-1.17710334E+02
					 1.51325000E+02	 1.19092000E+01	-9.18783000E+01	 4.76375000E-08	-9.56803000E-08	 1.79201000E+01	 2.13638989E+02	-9.31916258E+01	 1.19092000E+01	 1.52638326E+02
					-1.44575000E+02	-7.95988000E+01	-2.51675000E+02	 2.92113000E-08	-1.06739000E-07	-1.42285000E+02	 2.88766915E+02	-3.50153365E+02	-7.95988000E+01	-4.60966351E+01
					 1.51325000E+02	 1.19092000E+01	-9.18783000E+01	 4.76179000E-08	-9.57045000E-08	 1.79201000E+01	 2.13638989E+02	-9.31916258E+01	 1.19092000E+01	 1.52638326E+02
					-1.44575000E+02	-7.95988000E+01	-2.51675000E+02	 2.92026000E-08	-1.06735000E-07	-1.42285000E+02	 2.88766915E+02	-3.50153365E+02	-7.95988000E+01	-4.60966351E+01
					 9.19413000E+01	 1.25424000E+01	-2.91471000E+01	 4.04982000E-08	-8.58608000E-08	 1.97724000E+01	 1.11915788E+02	-3.22939351E+01	 1.25424000E+01	 9.50881351E+01
					-5.20115000E+01	-3.07268000E+01	-1.01477000E+02	 4.49061000E-08	-9.19300000E-08	-5.10821000E+01	 1.08539741E+02	-1.33498896E+02	-3.07268000E+01	-1.99896038E+01
					 9.19413000E+01	 1.25424000E+01	-2.91471000E+01	 4.05165000E-08	-8.58571000E-08	 1.97724000E+01	 1.11915788E+02	-3.22939351E+01	 1.25424000E+01	 9.50881351E+01
					-5.20115000E+01	-3.07268000E+01	-1.01477000E+02	 4.49196000E-08	-9.19319000E-08	-5.10821000E+01	 1.08539741E+02	-1.33498896E+02	-3.07268000E+01	-1.99896038E+01
					 4.40612000E+03	 3.59923000E+03	 1.69124000E+04	 0.00000000E+00	 0.00000000E+00	 6.13778000E+03	 1.67381699E+04	 1.89717673E+03	 3.59923000E+03	 1.94213433E+04
					 1.53491000E+03	 2.82847000E+03	 1.50187000E+04	 4.90607000E-08	 1.58138000E-08	 2.57969000E+03	 1.36384823E+04	 1.05822143E+03	 2.82847000E+03	 1.54953886E+04
					 4.40612000E+03	 3.59923000E+03	 1.69124000E+04	 0.00000000E+00	 0.00000000E+00	 6.13778000E+03	 1.67381699E+04	 1.89717673E+03	 3.59923000E+03	 1.94213433E+04