<?xml version="1.0"?>
<VTKFile type="UnstructuredGrid" version="0.1" byte_order="LittleEndian">
	<UnstructuredGrid>
		<Piece NumberOfPoints="126" NumberOfCells="40">
			<Points>
				<DataArray type="Float64" NumberOfComponents="3" format="ascii">
					 5.00000000E-02	 0.00000000E+00	 0.00000000E+00
					 0.00000000E+00	 0.00000000E+00	 0.00000000E+00
					 0.00000000E+00	 0.00000000E+00	 5.00000000E-02
					 5.00000000E-02	 0.00000000E+00	 5.00000000E-02
					 5.00000000E-02	 3.00000000E-01	 0.00000000E+00
					 0.00000000E+00	 3.00000000E-01	 0.00000000E+00
					 0.00000000E+00	 3.00000000E-01	 5.00000000E-02
					 5.00000000E-02	 3.00000000E-01	 5.00000000E-02
					 0.00000000E+00	 0.00000000E+00	 1.00000000E-01
					 5.00000000E-02	 0.00000000E+00	 1.00000000E-01
					 0.00000000E+00	 3.00000000E-01	 1.00000000E-01
					 5.00000000E-02	 3.00000000E-01	 1.00000000E-01
					 0.00000000E+00	 0.00000000E+00	 1.50000000E-01
					 5.00000000E-02	 0.00000000E+00	 1.50000000E-01
					 0.00000000E+00	 3.00000000E-01	 1.50000000E-01
					 5.00000000E-02	 3.00000000E-01	 1.50000000E-01
					 0.00000000E+00	 0.00000000E+00	 2.00000000E-01
					 5.00000000E-02	 0.00000000E+00	 2.00000000E-01
					 0.00000000E+00	 3.00000000E-01	 2.00000000E-01
					 5.00000000E-02	 3.00000000E-01	 2.00000000E-01
					 0.00000000E+00	 0.00000000E+00	 2.50000000E-01
					 5.00000000E-02	 0.00000000E+00	 2.50000000E-01
					 0.00000000E+00	 3.00000000E-01	 2.50000000E-01
					 5.00000000E-02	 3.00000000E-01	 2.50000000E-01
					 0.00000000E+00	 0.00000000E+00	 3.00000000E-01
					 5.00000000E-02	 0.00000000E+00	 3.00000000E-01
					 0.00000000E+00	 3.00000000E-01	 3.00000000E-01
					 5.00000000E-02	 3.00000000E-01	 3.00000000E-01
					 0.00000000E+00	 0.00000000E+00	 3.50000000E-01
					 5.00000000E-02	 0.00000000E+00	 3.50000000E-01
					 0.00000000E+00	 3.00000000E-01	 3.50000000E-01
					 5.00000000E-02	 3.00000000E-01	 3.50000000E-01
					 0.00000000E+00	 0.00000000E+00	 4.00000000E-01
					 5.00000000E-02	 0.00000000E+00	 4.00000000E-01
					 0.00000000E+00	 3.00000000E-01	 4.00000000E-01
					 5.00000000E-02	 3.00000000E-01	 4.00000000E-01
					 0.00000000E+00	 0.00000000E+00	 4.50000000E-01
					 5.00000000E-02	 0.00000000E+00	 4.50000000E-01
					 0.00000000E+00	 3.00000000E-01	 4.50000000E-01
					 5.00000000E-02	 3.00000000E-01	 4.50000000E-01
					 0.00000000E+00	 0.00000000E+00	 5.00000000E-01
					 5.00000000E-02	 0.00000000E+00	 5.00000000E-01
					 0.00000000E+00	 3.00000000E-01	 5.00000000E-01
					 5.00000000E-02	 3.00000000E-01	 5.00000000E-01
					 0.00000000E+00	 0.00000000E+00	 5.50000000E-01
					 5.00000000E-02	 0.00000000E+00	 5.50000000E-01
					 0.00000000E+00	 3.00000000E-01	 5.50000000E-01
					 5.00000000E-02	 3.00000000E-01	 5.50000000E-01
					 0.00000000E+00	 0.00000000E+00	 6.00000000E-01
					 5.00000000E-02	 0.00000000E+00	 6.00000000E-01
					 0.00000000E+00	 3.00000000E-01	 6.00000000E-01
					 5.00000000E-02	 3.00000000E-01	 6.00000000E-01
					 0.00000000E+00	 0.00000000E+00	 6.50000000E-01
					 5.00000000E-02	 0.00000000E+00	 6.50000000E-01
					 0.00000000E+00	 3.00000000E-01	 6.50000000E-01
					 5.00000000E-02	 3.00000000E-01	 6.50000000E-01
					 0.00000000E+00	 0.00000000E+00	 7.00000000E-01
					 5.00000000E-02	 0.00000000E+00	 7.00000000E-01
					 0.00000000E+00	 3.00000000E-01	 7.00000000E-01
					 5.00000000E-02	 3.00000000E-01	 7.00000000E-01
					 0.00000000E+00	 0.00000000E+00	 7.50000000E-01
					 5.00000000E-02	 0.00000000E+00	 7.50000000E-01
					 0.00000000E+00	 3.00000000E-01	 7.50000000E-01
					 5.00000000E-02	 3.00000000E-01	 7.50000000E-01
					 0.00000000E+00	 0.00000000E+00	 8.00000000E-01
					 5.00000000E-02	 0.00000000E+00	 8.00000000E-01
					 0.00000000E+00	 3.00000000E-01	 8.00000000E-01
					 5.00000000E-02	 3.00000000E-01	 8.00000000E-01
					 0.00000000E+00	 0.00000000E+00	 8.50000000E-01
					 5.00000000E-02	 0.00000000E+00	 8.50000000E-01
					 0.00000000E+00	 3.00000000E-01	 8.50000000E-01
					 5.00000000E-02	 3.00000000E-01	 8.50000000E-01
					 0.00000000E+00	 0.00000000E+00	 9.00000000E-01
					 5.00000000E-02	 0.00000000E+00	 9.00000000E-01
					 0.00000000E+00	 3.00000000E-01	 9.00000000E-01
					 5.00000000E-02	 3.00000000E-01	 9.00000000E-01
					 0.00000000E+00	 0.00000000E+00	 9.50000000E-01
					 5.00000000E-02	 0.00000000E+00	 9.50000000E-01
					 0.00000000E+00	 3.00000000E-01	 9.50000000E-01
					 5.00000000E-02	 3.00000000E-01	 9.50000000E-01
					 0.00000000E+00	 0.00000000E+00	 1.00000000E+00
					 5.00000000E-02	 0.00000000E+00	 1.00000000E+00
					 0.00000000E+00	 3.00000000E-01	 1.00000000E+00
					 5.00000000E-02	 3.00000000E-01	 1.00000000E+00
					-5.00000000E-02	 0.00000000E+00	 0.00000000E+00
					-5.00000000E-02	 0.00000000E+00	 5.00000000E-02
					-5.00000000E-02	 3.00000000E-01	 0.00000000E+00
					-5.00000000E-02	 3.00000000E-01	 5.00000000E-02
					-5.00000000E-02	 0.00000000E+00	 1.00000000E-01
					-5.00000000E-02	 3.00000000E-01	 1.00000000E-01
					-5.00000000E-02	 0.00000000E+00	 1.50000000E-01
					-5.00000000E-02	 3.00000000E-01	 1.50000000E-01
					-5.00000000E-02	 0.00000000E+00	 2.00000000E-01
					-5.00000000E-02	 3.00000000E-01	 2.00000000E-01
					-5.00000000E-02	 0.00000000E+00	 2.50000000E-01
					-5.00000000E-02	 3.00000000E-01	 2.50000000E-01
					-5.00000000E-02	 0.00000000E+00	 3.00000000E-01
					-5.00000000E-02	 3.00000000E-01	 3.00000000E-01
					-5.00000000E-02	 0.00000000E+00	 3.50000000E-01
					-5.00000000E-02	 3.00000000E-01	 3.50000000E-01
					-5.00000000E-02	 0.00000000E+00	 4.00000000E-01
					-5.00000000E-02	 3.00000000E-01	 4.00000000E-01
					-5.00000000E-02	 0.00000000E+00	 4.50000000E-01
					-5.00000000E-02	 3.00000000E-01	 4.50000000E-01
					-5.00000000E-02	 0.00000000E+00	 5.00000000E-01
					-5.00000000E-02	 3.00000000E-01	 5.00000000E-01
					-5.00000000E-02	 0.00000000E+00	 5.50000000E-01
					-5.00000000E-02	 3.00000000E-01	 5.50000000E-01
					-5.00000000E-02	 0.00000000E+00	 6.00000000E-01
					-5.00000000E-02	 3.00000000E-01	 6.00000000E-01
					-5.00000000E-02	 0.00000000E+00	 6.50000000E-01
					-5.00000000E-02	 3.00000000E-01	 6.50000000E-01
					-5.00000000E-02	 0.00000000E+00	 7.00000000E-01
					-5.00000000E-02	 3.00000000E-01	 7.00000000E-01
					-5.00000000E-02	 0.00000000E+00	 7.50000000E-01
					-5.00000000E-02	 3.00000000E-01	 7.50000000E-01
					-5.00000000E-02	 0.00000000E+00	 8.00000000E-01
					-5.00000000E-02	 3.00000000E-01	 8.00000000E-01
					-5.00000000E-02	 0.00000000E+00	 8.50000000E-01
					-5.00000000E-02	 3.00000000E-01	 8.50000000E-01
					-5.00000000E-02	 0.00000000E+00	 9.00000000E-01
					-5.00000000E-02	 3.00000000E-01	 9.00000000E-01
					-5.00000000E-02	 0.00000000E+00	 9.50000000E-01
					-5.00000000E-02	 3.00000000E-01	 9.50000000E-01
					-5.00000000E-02	 0.00000000E+00	 1.00000000E+00
					-5.00000000E-02	 3.00000000E-01	 1.00000000E+00

				</DataArray>
			</Points>
			<Cells>
				<DataArray type="Int32" Name="connectivity" format="ascii">
					0 1 2 3 4 5 6 7 3 2 8 9 7 6 10 11 9 8 12 13 11 10 14 15 13 12 16 17 15 14 18 19 17 16 20 21 19 18 22 23 21 20 24 25 23 22 26 27 25 24 28 29 27 26 30 31 29 28 32 33 31 30 34 35 33 32 36 37 35 34 38 39 37 36 40 41 39 38 42 43 41 40 44 45 43 42 46 47 45 44 48 49 47 46 50 51 49 48 52 53 51 50 54 55 53 52 56 57 55 54 58 59 57 56 60 61 59 58 62 63 61 60 64 65 63 62 66 67 65 64 68 69 67 66 70 71 69 68 72 73 71 70 74 75 73 72 76 77 75 74 78 79 77 76 80 81 79 78 82 83 1 84 85 2 5 86 87 6 2 85 88 8 6 87 89 10 8 88 90 12 10 89 91 14 12 90 92 16 14 91 93 18 16 92 94 20 18 93 95 22 20 94 96 24 22 95 97 26 24 96 98 28 26 97 99 30 28 98 100 32 30 99 101 34 32 100 102 36 34 101 103 38 36 102 104 40 38 103 105 42 40 104 106 44 42 105 107 46 44 106 108 48 46 107 109 50 48 108 110 52 50 109 111 54 52 110 112 56 54 111 113 58 56 112 114 60 58 113 115 62 60 114 116 64 62 115 117 66 64 116 118 68 66 117 119 70 68 118 120 72 70 119 121 74 72 120 122 76 74 121 123 78 76 122 124 80 78 123 125 82 
				</DataArray>
				<DataArray type="Int32" Name="offsets" format="ascii">
					8 16 24 32 40 48 56 64 72 80 88 96 104 112 120 128 136 144 152 160 168 176 184 192 200 208 216 224 232 240 248 256 264 272 280 288 296 304 312 320 
				</DataArray>
				<DataArray type="UInt8" Name="types" format="ascii">
					12 12 12 12 12 12 12 12 12 12 12 12 12 12 12 12 12 12 12 12 12 12 12 12 12 12 12 12 12 12 12 12 12 12 12 12 12 12 12 12 
				</DataArray>
			</Cells>
			<PointData>
				<DataArray type="Float32" Name="U" NumberOfComponents="3" ComponentName0="D1" ComponentName1="D2" ComponentName2="D3" format="ascii">
					 0.00000000E+00	 0.00000000E+00	 0.00000000E+00
					 0.00000000E+00	 0.00000000E+00	 0.00000000E+00
					 2.06020000E-03	 0.00000000E+00	 1.35000000E-04
					 2.28414000E-03	 0.00000000E+00	-2.61210000E-03
					 0.00000000E+00	 0.00000000E+00	 0.00000000E+00
					 0.00000000E+00	 0.00000000E+00	 0.00000000E+00
					 2.06020000E-03	 0.00000000E+00	 1.35000000E-04
					 2.28414000E-03	 0.00000000E+00	-2.61210000E-03
					 6.62911000E-03	 0.00000000E+00	 1.78928000E-04
					 6.52100000E-03	 0.00000000E+00	-4.51018000E-03
					 6.62911000E-03	 0.00000000E+00	 1.78928000E-04
					 6.52100000E-03	 0.00000000E+00	-4.51018000E-03
					 1.25652000E-02	 0.00000000E+00	 9.36351000E-05
					 1.22697000E-02	 0.00000000E+00	-5.75970000E-03
					 1.25652000E-02	 0.00000000E+00	 9.36351000E-05
					 1.22697000E-02	 0.00000000E+00	-5.75970000E-03
					 1.92748000E-02	 0.00000000E+00	-7.46031000E-05
					 1.88389000E-02	 0.00000000E+00	-6.48665000E-03
					 1.92748000E-02	 0.00000000E+00	-7.46031000E-05
					 1.88389000E-02	 0.00000000E+00	-6.48665000E-03
					 2.62064000E-02	 0.00000000E+00	-2.77520000E-04
					 2.57056000E-02	 0.00000000E+00	-6.75962000E-03
					 2.62064000E-02	 0.00000000E+00	-2.77520000E-04
					 2.57056000E-02	 0.00000000E+00	-6.75962000E-03
					 3.29209000E-02	 0.00000000E+00	-4.54904000E-04
					 3.24209000E-02	 0.00000000E+00	-6.61762000E-03
					 3.29209000E-02	 0.00000000E+00	-4.54904000E-04
					 3.24209000E-02	 0.00000000E+00	-6.61762000E-03
					 3.90845000E-02	 0.00000000E+00	-5.70081000E-04
					 3.86278000E-02	 0.00000000E+00	-6.10424000E-03
					 3.90845000E-02	 0.00000000E+00	-5.70081000E-04
					 3.86278000E-02	 0.00000000E+00	-6.10424000E-03
					 4.44306000E-02	 0.00000000E+00	-6.10902000E-04
					 4.40373000E-02	 0.00000000E+00	-5.27894000E-03
					 4.44306000E-02	 0.00000000E+00	-6.10902000E-04
					 4.40373000E-02	 0.00000000E+00	-5.27894000E-03
					 4.87435000E-02	 0.00000000E+00	-5.54438000E-04
					 4.84121000E-02	 0.00000000E+00	-4.20674000E-03
					 4.87435000E-02	 0.00000000E+00	-5.54438000E-04
					 4.84121000E-02	 0.00000000E+00	-4.20674000E-03
					 5.18851000E-02	 0.00000000E+00	-4.22475000E-04
					 5.16375000E-02	 0.00000000E+00	-3.00522000E-03
					 5.18851000E-02	 0.00000000E+00	-4.22475000E-04
					 5.16375000E-02	 0.00000000E+00	-3.00522000E-03
					 5.38660000E-02	 0.00000000E+00	-2.71104000E-04
					 5.36897000E-02	 0.00000000E+00	-1.82343000E-03
					 5.38660000E-02	 0.00000000E+00	-2.71104000E-04
					 5.36897000E-02	 0.00000000E+00	-1.82343000E-03
					 5.48293000E-02	 0.00000000E+00	-1.20891000E-04
					 5.46938000E-02	 0.00000000E+00	-7.63875000E-04
					 5.48293000E-02	 0.00000000E+00	-1.20891000E-04
					 5.46938000E-02	 0.00000000E+00	-7.63875000E-04
					 5.49513000E-02	 0.00000000E+00	 2.73604000E-05
					 5.48320000E-02	 0.00000000E+00	 1.39056000E-04
					 5.49513000E-02	 0.00000000E+00	 2.73604000E-05
					 5.48320000E-02	 0.00000000E+00	 1.39056000E-04
					 5.43952000E-02	 0.00000000E+00	 1.67383000E-04
					 5.43004000E-02	 0.00000000E+00	 8.80583000E-04
					 5.43952000E-02	 0.00000000E+00	 1.67383000E-04
					 5.43004000E-02	 0.00000000E+00	 8.80583000E-04
					 5.33013000E-02	 0.00000000E+00	 2.59221000E-04
					 5.32329000E-02	 0.00000000E+00	 1.44746000E-03
					 5.33013000E-02	 0.00000000E+00	 2.59221000E-04
					 5.32329000E-02	 0.00000000E+00	 1.44746000E-03
					 5.18060000E-02	 0.00000000E+00	 2.78020000E-04
					 5.17574000E-02	 0.00000000E+00	 1.83457000E-03
					 5.18060000E-02	 0.00000000E+00	 2.78020000E-04
					 5.17574000E-02	 0.00000000E+00	 1.83457000E-03
					 5.00164000E-02	 0.00000000E+00	 2.34754000E-04
					 4.99764000E-02	 0.00000000E+00	 2.05054000E-03
					 5.00164000E-02	 0.00000000E+00	 2.34754000E-04
					 4.99764000E-02	 0.00000000E+00	 2.05054000E-03
					 4.80266000E-02	 0.00000000E+00	 1.54160000E-04
					 4.79980000E-02	 0.00000000E+00	 2.12899000E-03
					 4.80266000E-02	 0.00000000E+00	 1.54160000E-04
					 4.79980000E-02	 0.00000000E+00	 2.12899000E-03
					 4.59379000E-02	 0.00000000E+00	 7.85310000E-05
					 4.59112000E-02	 0.00000000E+00	 2.11669000E-03
					 4.59379000E-02	 0.00000000E+00	 7.85310000E-05
					 4.59112000E-02	 0.00000000E+00	 2.11669000E-03
					 4.38572000E-02	 0.00000000E+00	 6.12201000E-05
					 4.38345000E-02	 0.00000000E+00	 2.07865000E-03
					 4.38572000E-02	 0.00000000E+00	 6.12201000E-05
					 4.38345000E-02	 0.00000000E+00	 2.07865000E-03
					 0.00000000E+00	 0.00000000E+00	 0.00000000E+00
					 2.62312000E-03	 0.00000000E+00	 2.85181000E-03
					 0.00000000E+00	 0.00000000E+00	 0.00000000E+00
					 2.62312000E-03	 0.00000000E+00	 2.85181000E-03
					 7.13176000E-03	 0.00000000E+00	 4.80561000E-03
					 7.13176000E-03	 0.00000000E+00	 4.80561000E-03
					 1.31137000E-02	 0.00000000E+00	 5.90555000E-03
					 1.31137000E-02	 0.00000000E+00	 5.90555000E-03
					 1.98231000E-02	 0.00000000E+00	 6.32088000E-03
					 1.98231000E-02	 0.00000000E+00	 6.32088000E-03
					 2.67074000E-02	 0.00000000E+00	 6.20349000E-03
					 2.67074000E-02	 0.00000000E+00	 6.20349000E-03
					 3.33415000E-02	 0.00000000E+00	 5.71362000E-03
					 3.33415000E-02	 0.00000000E+00	 5.71362000E-03
					 3.93858000E-02	 0.00000000E+00	 4.98200000E-03
					 3.93858000E-02	 0.00000000E+00	 4.98200000E-03
					 4.46212000E-02	 0.00000000E+00	 4.08673000E-03
					 4.46212000E-02	 0.00000000E+00	 4.08673000E-03
					 4.88402000E-02	 0.00000000E+00	 3.11436000E-03
					 4.88402000E-02	 0.00000000E+00	 3.11436000E-03
					 5.19056000E-02	 0.00000000E+00	 2.15288000E-03
					 5.19056000E-02	 0.00000000E+00	 2.15288000E-03
					 5.38313000E-02	 0.00000000E+00	 1.27361000E-03
					 5.38313000E-02	 0.00000000E+00	 1.27361000E-03
					 5.47927000E-02	 0.00000000E+00	 5.22880000E-04
					 5.47927000E-02	 0.00000000E+00	 5.22880000E-04
					 5.49336000E-02	 0.00000000E+00	-8.70339000E-05
					 5.49336000E-02	 0.00000000E+00	-8.70339000E-05
					 5.43969000E-02	 0.00000000E+00	-5.67226000E-04
					 5.43969000E-02	 0.00000000E+00	-5.67226000E-04
					 5.32987000E-02	 0.00000000E+00	-9.56144000E-04
					 5.32987000E-02	 0.00000000E+00	-9.56144000E-04
					 5.18121000E-02	 0.00000000E+00	-1.28679000E-03
					 5.18121000E-02	 0.00000000E+00	-1.28679000E-03
					 5.00350000E-02	 0.00000000E+00	-1.58149000E-03
					 5.00350000E-02	 0.00000000E+00	-1.58149000E-03
					 4.80627000E-02	 0.00000000E+00	-1.82202000E-03
					 4.80627000E-02	 0.00000000E+00	-1.82202000E-03
					 4.59832000E-02	 0.00000000E+00	-1.96883000E-03
					 4.59832000E-02	 0.00000000E+00	-1.96883000E-03
					 4.38953000E-02	 0.00000000E+00	-2.02067000E-03
					 4.38953000E-02	 0.00000000E+00	-2.02067000E-03
				</DataArray>
				<DataArray type="Float32" Name="S" NumberOfComponents="10" ComponentName0="xx" ComponentName1="yy" ComponentName2="zz" ComponentName3="xy" ComponentName4="yz" ComponentName5="zx" ComponentName6="Mises" ComponentName7="Min Principal" ComponentName8="Mid Principal" ComponentName9="Max Principal" format="ascii">
					-1.57419000E+03	-1.75213000E+03	-6.44914000E+03	 0.00000000E+00	 0.00000000E+00	 1.98942000E+03	 5.89938364E+03	-7.15794476E+03	-1.75213000E+03	-8.65385243E+02
					 2.59347000E+02	 1.18061000E+02	 3.16030000E+02	 0.00000000E+00	 0.00000000E+00	 2.06928000E+03	 3.58844568E+03	-1.78178558E+03	 1.18061000E+02	 2.35716258E+03
					 2.33939000E+01	 7.91837000E+01	 3.29345000E+02	-9.28535000E-09	 2.43471000E-09	 5.93203000E+02	 1.06551350E+03	-4.36240800E+02	 7.91837000E+01	 7.88979700E+02
					-5.40628000E+02	-1.23986000E+03	-5.26261000E+03	 6.76937000E-09	-2.87760000E-08	 3.51978000E+02	 4.45600090E+03	-5.28870237E+03	-1.23986000E+03	-5.14535630E+02
					-1.57419000E+03	-1.75213000E+03	-6.44914000E+03	 0.00000000E+00	 0.00000000E+00	 1.98942000E+03	 5.89938364E+03	-7.15794476E+03	-1.75213000E+03	-8.65385243E+02
					 2.59347000E+02	 1.18061000E+02	 3.16030000E+02	 0.00000000E+00	 0.00000000E+00	 2.06928000E+03	 3.58844568E+03	-1.78178558E+03	 1.18061000E+02	 2.35716258E+03
					 2.33939000E+01	 7.91837000E+01	 3.29345000E+02	-9.28528000E-09	 2.43473000E-09	 5.93203000E+02	 1.06551350E+03	-4.36240800E+02	 7.91837000E+01	 7.88979700E+02
					-5.40628000E+02	-1.23986000E+03	-5.26261000E+03	 6.76929000E-09	-2.87759000E-08	 3.51978000E+02	 4.45600090E+03	-5.28870237E+03	-1.23986000E+03	-5.14535630E+02
					 7.79280000E+01	 1.14301000E+02	 4.72679000E+02	-9.40763000E-09	 2.41704000E-09	 6.19457000E+02	 1.13752978E+03	-3.74838071E+02	 1.14301000E+02	 9.25445071E+02
					-5.08742000E+02	-8.09052000E+02	-3.37723000E+03	 8.47438000E-09	-4.15429000E-08	 1.57584000E+02	 2.74435275E+03	-3.38586110E+03	-8.09052000E+02	-5.00110895E+02
					 7.79280000E+01	 1.14301000E+02	 4.72679000E+02	-9.40769000E-09	 2.41707000E-09	 6.19457000E+02	 1.13752978E+03	-3.74838071E+02	 1.14301000E+02	 9.25445071E+02
					-5.08742000E+02	-8.09052000E+02	-3.37723000E+03	 8.47430000E-09	-4.15430000E-08	 1.57584000E+02	 2.74435275E+03	-3.38586110E+03	-8.09052000E+02	-5.00110895E+02
					 9.82043000E+01	 1.29184000E+02	 5.49855000E+02	 8.30394000E-08	-1.67556000E-08	 5.24763000E+02	 1.00850618E+03	-2.47261252E+02	 1.29184000E+02	 8.95320552E+02
					-1.95749000E+02	-3.71226000E+02	-1.62211000E+03	 1.36105000E-07	-3.37240000E-08	 2.18354000E+02	 1.39929973E+03	-1.65478800E+03	-3.71226000E+02	-1.63071005E+02
					 9.82043000E+01	 1.29184000E+02	 5.49855000E+02	 8.30393000E-08	-1.67557000E-08	 5.24763000E+02	 1.00850618E+03	-2.47261252E+02	 1.29184000E+02	 8.95320552E+02
					-1.95749000E+02	-3.71226000E+02	-1.62211000E+03	 1.36105000E-07	-3.37238000E-08	 2.18354000E+02	 1.39929973E+03	-1.65478800E+03	-3.71226000E+02	-1.63071005E+02
					 8.84851000E+01	 1.33117000E+02	 5.87086000E+02	 7.70148000E-08	-2.83808000E-08	 4.57154000E+02	 9.24830091E+02	-1.82925977E+02	 1.33117000E+02	 8.58497077E+02
					-9.92031000E+00	-4.64264000E+01	-2.15202000E+02	 8.87729000E-08	 5.14127000E-09	 2.95295000E+02	 5.45505863E+02	-4.25185978E+02	-4.64264000E+01	 2.00063668E+02
					 8.84851000E+01	 1.33117000E+02	 5.87086000E+02	 7.70137000E-08	-2.83808000E-08	 4.57154000E+02	 9.24830091E+02	-1.82925977E+02	 1.33117000E+02	 8.58497077E+02
					-9.92031000E+00	-4.64264000E+01	-2.15202000E+02	 8.87718000E-08	 5.14084000E-09	 2.95295000E+02	 5.45505863E+02	-4.25185978E+02	-4.64264000E+01	 2.00063668E+02
					 6.86878000E+01	 1.31179000E+02	 5.97427000E+02	 7.51158000E-08	-1.85046000E-08	 3.82815000E+02	 8.30704952E+02	-1.32172231E+02	 1.31179000E+02	 7.98287031E+02
					 1.38747000E+02	 2.10200000E+02	 9.33475000E+02	 8.39979000E-08	 4.14335000E-09	 3.68102000E+02	 9.93181591E+02	-5.55054645E+00	 2.10200000E+02	 1.07777255E+03
					 6.86878000E+01	 1.31179000E+02	 5.97427000E+02	 7.51155000E-08	-1.85046000E-08	 3.82815000E+02	 8.30704952E+02	-1.32172231E+02	 1.31179000E+02	 7.98287031E+02
					 1.38747000E+02	 2.10200000E+02	 9.33475000E+02	 8.39978000E-08	 4.14323000E-09	 3.68102000E+02	 9.93181591E+02	-5.55054645E+00	 2.10200000E+02	 1.07777255E+03
					 4.43375000E+01	 1.27020000E+02	 5.97254000E+02	 6.17898000E-08	-1.57511000E-08	 3.12616000E+02	 7.48346727E+02	-9.65265804E+01	 1.27020000E+02	 7.38118080E+02
					 2.60072000E+02	 4.14193000E+02	 1.86729000E+03	 5.99552000E-08	 6.11866000E-09	 4.08376000E+02	 1.69100852E+03	 1.62260797E+02	 4.14193000E+02	 1.96510120E+03
					 4.43375000E+01	 1.27020000E+02	 5.97254000E+02	 6.17900000E-08	-1.57512000E-08	 3.12616000E+02	 7.48346727E+02	-9.65265804E+01	 1.27020000E+02	 7.38118080E+02
					 2.60072000E+02	 4.14193000E+02	 1.86729000E+03	 5.99558000E-08	 6.11876000E-09	 4.08376000E+02	 1.69100852E+03	 1.62260797E+02	 4.14193000E+02	 1.96510120E+03
					 3.66281000E+01	 1.22613000E+02	 5.77491000E+02	 2.64541000E-08	-1.63390000E-08	 2.44923000E+02	 6.58317450E+02	-5.77971960E+01	 1.22613000E+02	 6.71916296E+02
					 3.42045000E+02	 5.66639000E+02	 2.58779000E+03	 2.40811000E-08	 2.25250000E-08	 4.10415000E+02	 2.25715609E+03	 2.69391204E+02	 5.66639000E+02	 2.66044380E+03
					 3.66281000E+01	 1.22613000E+02	 5.77491000E+02	 2.64541000E-08	-1.63389000E-08	 2.44923000E+02	 6.58317450E+02	-5.77971960E+01	 1.22613000E+02	 6.71916296E+02
					 3.42045000E+02	 5.66639000E+02	 2.58779000E+03	 2.40806000E-08	 2.25249000E-08	 4.10415000E+02	 2.25715609E+03	 2.69391204E+02	 5.66639000E+02	 2.66044380E+03
					 7.98066000E+00	 1.14171000E+02	 5.59110000E+02	 8.92728000E-09	-5.70934000E-09	 1.73746000E+02	 5.89116579E+02	-4.22207822E+01	 1.14171000E+02	 6.09311442E+02
					 3.79570000E+02	 6.70465000E+02	 3.10514000E+03	-2.86508000E-08	 3.73097000E-08	 3.61960000E+02	 2.66712245E+03	 3.32320249E+02	 6.70465000E+02	 3.15238975E+03
					 7.98066000E+00	 1.14171000E+02	 5.59110000E+02	 8.92830000E-09	-5.70929000E-09	 1.73746000E+02	 5.89116579E+02	-4.22207822E+01	 1.14171000E+02	 6.09311442E+02
					 3.79570000E+02	 6.70465000E+02	 3.10514000E+03	-2.86512000E-08	 3.73096000E-08	 3.61960000E+02	 2.66712245E+03	 3.32320249E+02	 6.70465000E+02	 3.15238975E+03
					-3.30252000E+01	 1.04324000E+02	 5.48198000E+02	-2.04808000E-08	 1.05681000E-08	 8.79554000E+01	 5.47780181E+02	-4.60437277E+01	 1.04324000E+02	 5.61216528E+02
					 3.62794000E+02	 7.18291000E+02	 3.38116000E+03	-4.80737000E-08	 2.08938000E-08	 2.65170000E+02	 2.89393102E+03	 3.39675314E+02	 7.18291000E+02	 3.40427869E+03
					-3.30252000E+01	 1.04324000E+02	 5.48198000E+02	-2.04812000E-08	 1.05681000E-08	 8.79554000E+01	 5.47780181E+02	-4.60437277E+01	 1.04324000E+02	 5.61216528E+02
					 3.62794000E+02	 7.18291000E+02	 3.38116000E+03	-4.80747000E-08	 2.08940000E-08	 2.65170000E+02	 2.89393102E+03	 3.39675314E+02	 7.18291000E+02	 3.40427869E+03
					-2.99891000E+01	 9.52773000E+01	 4.98189000E+02	 2.40710000E-09	 1.45573000E-08	-4.72704000E+00	 4.78087693E+02	-3.00314022E+01	 9.52773000E+01	 4.98231302E+02
					 3.77491000E+02	 7.16923000E+02	 3.35530000E+03	-1.49804000E-08	 4.72873000E-09	 1.35969000E+02	 2.83324188E+03	 3.71295443E+02	 7.16923000E+02	 3.36149556E+03
					-2.99891000E+01	 9.52773000E+01	 4.98189000E+02	 2.40671000E-09	 1.45573000E-08	-4.72704000E+00	 4.78087693E+02	-3.00314022E+01	 9.52773000E+01	 4.98231302E+02
					 3.77491000E+02	 7.16923000E+02	 3.35530000E+03	-1.49813000E-08	 4.72862000E-09	 1.35969000E+02	 2.83324188E+03	 3.71295443E+02	 7.16923000E+02	 3.36149556E+03
					-4.25361000E+00	 8.53738000E+01	 4.22864000E+02	-3.17454000E-08	 7.73233000E-09	-7.05914000E+01	 4.08815995E+02	-1.56181452E+01	 8.53738000E+01	 4.34228535E+02
					 3.65152000E+02	 6.58576000E+02	 3.04948000E+03	-2.88749000E-08	 0.00000000E+00	 1.71268000E+01	 2.55047999E+03	 3.65042730E+02	 6.58576000E+02	 3.04958927E+03
					-4.25361000E+00	 8.53738000E+01	 4.22864000E+02	-3.17433000E-08	 7.73229000E-09	-7.05914000E+01	 4.08815995E+02	-1.56181452E+01	 8.53738000E+01	 4.34228535E+02
					 3.65152000E+02	 6.58576000E+02	 3.04948000E+03	-2.88733000E-08	 0.00000000E+00	 1.71268000E+01	 2.55047999E+03	 3.65042730E+02	 6.58576000E+02	 3.04958927E+03
					-1.47387000E+01	 7.23819000E+01	 3.70233000E+02	 1.07473000E-08	 9.00237000E-09	-9.89071000E+01	 3.89361126E+02	-3.86631475E+01	 7.23819000E+01	 3.94157448E+02
					 3.10962000E+02	 5.66860000E+02	 2.61340000E+03	 3.78819000E-09	-2.51500000E-08	-5.90824000E+01	 2.18814703E+03	 3.09446895E+02	 5.66860000E+02	 2.61491510E+03
					-1.47387000E+01	 7.23819000E+01	 3.70233000E+02	 1.07459000E-08	 9.00237000E-09	-9.89071000E+01	 3.89361126E+02	-3.86631475E+01	 7.23819000E+01	 3.94157448E+02
					 3.10962000E+02	 5.66860000E+02	 2.61340000E+03	 3.78759000E-09	-2.51500000E-08	-5.90824000E+01	 2.18814703E+03	 3.09446895E+02	 5.66860000E+02	 2.61491510E+03
					-3.32404000E+01	 6.34077000E+01	 3.46347000E+02	 5.54025000E-08	 0.00000000E+00	-1.05003000E+02	 3.87063223E+02	-6.03505464E+01	 6.34077000E+01	 3.73457146E+02
					 2.35674000E+02	 4.67743000E+02	 2.16575000E+03	 4.20373000E-08	-1.06401000E-08	-8.93797000E+01	 1.83169451E+03	 2.31543763E+02	 4.67743000E+02	 2.16988024E+03
					-3.32404000E+01	 6.34077000E+01	 3.46347000E+02	 5.54004000E-08	 0.00000000E+00	-1.05003000E+02	 3.87063223E+02	-6.03505464E+01	 6.34077000E+01	 3.73457146E+02
					 2.35674000E+02	 4.67743000E+02	 2.16575000E+03	 4.20387000E-08	-1.06401000E-08	-8.93797000E+01	 1.83169451E+03	 2.31543763E+02	 4.67743000E+02	 2.16988024E+03
					-2.68007000E+01	 5.36188000E+01	 2.92616000E+02	 1.19872000E-08	-1.45962000E-08	-1.03720000E+02	 3.39235181E+02	-5.75250033E+01	 5.36188000E+01	 3.23340303E+02
					 2.06346000E+02	 3.79606000E+02	 1.73268000E+03	 1.63353000E-08	 6.32004000E-09	-9.90512000E+01	 1.45763346E+03	 1.99944933E+02	 3.79606000E+02	 1.73908107E+03
					-2.68007000E+01	 5.36188000E+01	 2.92616000E+02	 1.19861000E-08	-1.45962000E-08	-1.03720000E+02	 3.39235181E+02	-5.75250033E+01	 5.36188000E+01	 3.23340303E+02
					 2.06346000E+02	 3.79606000E+02	 1.73268000E+03	 1.63355000E-08	 6.32003000E-09	-9.90512000E+01	 1.45763346E+03	 1.99944933E+02	 3.79606000E+02	 1.73908107E+03
					 5.14270000E+00	 3.60106000E+01	 1.73255000E+02	 2.78063000E-08	 0.00000000E+00	-9.48509000E+01	 2.25865842E+02	-3.75376072E+01	 3.60106000E+01	 2.15935307E+02
					 1.89377000E+02	 2.91852000E+02	 1.29297000E+03	 3.72406000E-08	 1.07114000E-09	-9.76666000E+01	 1.06955329E+03	 1.80800283E+02	 2.91852000E+02	 1.30154672E+03
					 5.14270000E+00	 3.60106000E+01	 1.73255000E+02	 2.78059000E-08	 0.00000000E+00	-9.48509000E+01	 2.25865842E+02	-3.75376072E+01	 3.60106000E+01	 2.15935307E+02
					 1.89377000E+02	 2.91852000E+02	 1.29297000E+03	 3.72398000E-08	 1.07111000E-09	-9.76666000E+01	 1.06955329E+03	 1.80800283E+02	 2.91852000E+02	 1.30154672E+03
					 7.83709000E+00	 7.94615000E+00	 3.08032000E+01	 5.73318000E-08	 9.53392000E-09	-8.20281000E+01	 1.43912393E+02	-6.35078077E+01	 7.94615000E+00	 1.02148098E+02
					 1.58484000E+02	 2.01914000E+02	 8.61517000E+02	 6.89571000E-08	 7.00962000E-09	-8.33043000E+01	 6.97443661E+02	 1.48747879E+02	 2.01914000E+02	 8.71253121E+02
					 7.83709000E+00	 7.94615000E+00	 3.08032000E+01	 5.73314000E-08	 9.53390000E-09	-8.20281000E+01	 1.43912393E+02	-6.35078077E+01	 7.94615000E+00	 1.02148098E+02
					 1.58484000E+02	 2.01914000E+02	 8.61517000E+02	 6.89554000E-08	 7.00966000E-09	-8.33043000E+01	 6.97443661E+02	 1.48747879E+02	 2.01914000E+02	 8.71253121E+02
					-1.71154000E+00	-1.49307000E+01	-7.33190000E+01	 7.96579000E-08	 7.98919000E-09	-7.22769000E+01	 1.41519027E+02	-1.18174165E+02	-1.49307000E+01	 4.31436251E+01
					 1.07839000E+02	 1.16792000E+02	 4.79467000E+02	 6.14884000E-08	 3.61482000E-08	-7.09695000E+01	 3.87260056E+02	 9.47472119E+01	 1.16792000E+02	 4.92558788E+02
					-1.71154000E+00	-1.49307000E+01	-7.33190000E+01	 7.96598000E-08	 7.98921000E-09	-7.22769000E+01	 1.41519027E+02	-1.18174165E+02	-1.49307000E+01	 4.31436251E+01
					 1.07839000E+02	 1.16792000E+02	 4.79467000E+02	 6.14848000E-08	 3.61481000E-08	-7.09695000E+01	 3.87260056E+02	 9.47472119E+01	 1.16792000E+02	 4.92558788E+02
					-1.16588000E+00	-1.98332000E+01	-9.79632000E+01	 2.52487000E-08	 0.00000000E+00	-6.17794000E+01	 1.39144983E+02	-1.28044630E+02	-1.98332000E+01	 2.89155502E+01
					 8.21302000E+01	 5.64765000E+01	 2.00981000E+02	 2.55046000E-08	 8.30689000E-08	-6.03090000E+01	 1.69540892E+02	 5.64765000E+01	 5.68882884E+01	 2.26222912E+02
					-1.16588000E+00	-1.98332000E+01	-9.79632000E+01	 2.52512000E-08	 0.00000000E+00	-6.17794000E+01	 1.39144983E+02	-1.28044630E+02	-1.98332000E+01	 2.89155502E+01
					 8.21302000E+01	 5.64765000E+01	 2.00981000E+02	 2.55024000E-08	 8.30689000E-08	-6.03090000E+01	 1.69540892E+02	 5.64765000E+01	 5.68882884E+01	 2.26222912E+02
					 1.68098000E+01	 1.82903000E+00	-7.55525000E+00	-9.72562000E-08	 7.06697000E-09	-4.14798000E+01	 7.49319247E+01	-3.86045157E+01	 1.82903000E+00	 4.78590657E+01
					 5.53356000E+01	 2.20003000E+01	 5.47793000E+01	-9.03886000E-08	 1.20405000E-07	-4.36782000E+01	 8.25612665E+01	 1.13783644E+01	 2.20003000E+01	 9.87365356E+01
					 1.68098000E+01	 1.82903000E+00	-7.55525000E+00	-9.72559000E-08	 7.06701000E-09	-4.14798000E+01	 7.49319247E+01	-3.86045157E+01	 1.82903000E+00	 4.78590657E+01
					 5.53356000E+01	 2.20003000E+01	 5.47793000E+01	-9.03885000E-08	 1.20405000E-07	-4.36782000E+01	 8.25612665E+01	 1.13783644E+01	 2.20003000E+01	 9.87365356E+01
					 5.09090000E+01	 2.50573000E+01	 7.45434000E+01	-2.10882000E-07	 1.48101000E-08	-3.16203000E+01	 6.95515262E+01	 2.50573000E+01	 2.89698734E+01	 9.64825266E+01
					 5.64940000E+01	 1.54299000E+01	 2.08302000E+01	-2.16298000E-07	 1.25235000E-07	-5.85959000E+01	 1.08600661E+02	-2.25870319E+01	 1.54299000E+01	 9.99112319E+01
					 5.09090000E+01	 2.50573000E+01	 7.45434000E+01	-2.10883000E-07	 1.48101000E-08	-3.16203000E+01	 6.95515262E+01	 2.50573000E+01	 2.89698734E+01	 9.64825266E+01
					 5.64940000E+01	 1.54299000E+01	 2.08302000E+01	-2.16296000E-07	 1.25236000E-07	-5.85959000E+01	 1.08600661E+02	-2.25870319E+01	 1.54299000E+01	 9.99112319E+01
					 2.14371000E+03	 1.89271000E+03	 8.29564000E+03	 0.00000000E+00	 0.00000000E+00	 3.01296000E+03	 8.16622079E+03	 9.13924352E+02	 1.89271000E+03	 9.52542565E+03
					 5.47080000E+02	 1.35200000E+03	 6.79035000E+03	-3.65955000E-08	 1.27930000E-08	 1.08912000E+03	 6.17734010E+03	 3.62540859E+02	 1.35200000E+03	 6.97488914E+03
					 2.14371000E+03	 1.89271000E+03	 8.29564000E+03	 0.00000000E+00	 0.00000000E+00	 3.01296000E+03	 8.16622079E+03	 9.13924352E+02	 1.89271000E+03	 9.52542565E+03