<?xml version="1.0"?>
<VTKFile type="UnstructuredGrid" version="0.1" byte_order="LittleEndian">
	<UnstructuredGrid>
		<Piece NumberOfPoints="126" NumberOfCells="40">
			<Points>
				<DataArray type="Float64" NumberOfComponents="3" format="ascii">
					 5.00000000E-02	 0.00000000E+00	 0.00000000E+00
					 0.00000000E+00	 0.00000000E+00	 0.00000000E+00
					 0.00000000E+00	 0.00000000E+00	 5.00000000E-02
					 5.00000000E-02	 0.00000000E+00	 5.00000000E-02
					 5.00000000E-02	 3.00000000E-01	 0.00000000E+00
					 0.00000000E+00	 3.00000000E-01	 0.00000000E+00
					 0.00000000E+00	 3.00000000E-01	 5.00000000E-02
					 5.00000000E-02	 3.00000000E-01	 5.00000000E-02
					 0.00000000E+00	 0.00000000E+00	 1.00000000E-01
					 5.00000000E-02	 0.00000000E+00	 1.00000000E-01
					 0.00000000E+00	 3.00000000E-01	 1.00000000E-01
					 5.00000000E-02	 3.00000000E-01	 1.00000000E-01
					 0.00000000E+00	 0.00000000E+00	 1.50000000E-01
					 5.00000000E-02	 0.00000000E+00	 1.50000000E-01
					 0.00000000E+00	 3.00000000E-01	 1.50000000E-01
					 5.00000000E-02	 3.00000000E-01	 1.50000000E-01
					 0.00000000E+00	 0.00000000E+00	 2.00000000E-01
					 5.00000000E-02	 0.00000000E+00	 2.00000000E-01
					 0.00000000E+00	 3.00000000E-01	 2.00000000E-01
					 5.00000000E-02	 3.00000000E-01	 2.00000000E-01
					 0.00000000E+00	 0.00000000E+00	 2.50000000E-01
					 5.00000000E-02	 0.00000000E+00	 2.50000000E-01
					 0.00000000E+00	 3.00000000E-01	 2.50000000E-01
					 5.00000000E-02	 3.00000000E-01	 2.50000000E-01
					 0.00000000E+00	 0.00000000E+00	 3.00000000E-01
					 5.00000000E-02	 0.00000000E+00	 3.00000000E-01
					 0.00000000E+00	 3.00000000E-01	 3.00000000E-01
					 5.00000000E-02	 3.00000000E-01	 3.00000000E-01
					 0.00000000E+00	 0.00000000E+00	 3.50000000E-01
					 5.00000000E-02	 0.00000000E+00	 3.50000000E-01
					 0.00000000E+00	 3.00000000E-01	 3.50000000E-01
					 5.00000000E-02	 3.00000000E-01	 3.50000000E-01
					 0.00000000E+00	 0.00000000E+00	 4.00000000E-01
					 5.00000000E-02	 0.00000000E+00	 4.00000000E-01
					 0.00000000E+00	 3.00000000E-01	 4.00000000E-01
					 5.00000000E-02	 3.00000000E-01	 4.00000000E-01
					 0.00000000E+00	 0.00000000E+00	 4.50000000E-01
					 5.00000000E-02	 0.00000000E+00	 4.50000000E-01
					 0.00000000E+00	 3.00000000E-01	 4.50000000E-01
					 5.00000000E-02	 3.00000000E-01	 4.50000000E-01
					 0.00000000E+00	 0.00000000E+00	 5.00000000E-01
					 5.00000000E-02	 0.00000000E+00	 5.00000000E-01
					 0.00000000E+00	 3.00000000E-01	 5.00000000E-01
					 5.00000000E-02	 3.00000000E-01	 5.00000000E-01
					 0.00000000E+00	 0.00000000E+00	 5.50000000E-01
					 5.00000000E-02	 0.00000000E+00	 5.50000000E-01
					 0.00000000E+00	 3.00000000E-01	 5.50000000E-01
					 5.00000000E-02	 3.00000000E-01	 5.50000000E-01
					 0.00000000E+00	 0.00000000E+00	 6.00000000E-01
					 5.00000000E-02	 0.00000000E+00	 6.00000000E-01
					 0.00000000E+00	 3.00000000E-01	 6.00000000E-01
					 5.00000000E-02	 3.00000000E-01	 6.00000000E-01
					 0.00000000E+00	 0.00000000E+00	 6.50000000E-01
					 5.00000000E-02	 0.00000000E+00	 6.50000000E-01
					 0.00000000E+00	 3.00000000E-01	 6.50000000E-01
					 5.00000000E-02	 3.00000000E-01	 6.50000000E-01
					 0.00000000E+00	 0.00000000E+00	 7.00000000E-01
					 5.00000000E-02	 0.00000000E+00	 7.00000000E-01
					 0.00000000E+00	 3.00000000E-01	 7.00000000E-01
					 5.00000000E-02	 3.00000000E-01	 7.00000000E-01
					 0.00000000E+00	 0.00000000E+00	 7.50000000E-01
					 5.00000000E-02	 0.00000000E+00	 7.50000000E-01
					 0.00000000E+00	 3.00000000E-01	 7.50000000E-01
					 5.00000000E-02	 3.00000000E-01	 7.50000000E-01
					 0.00000000E+00	 0.00000000E+00	 8.00000000E-01
					 5.00000000E-02	 0.00000000E+00	 8.00000000E-01
					 0.00000000E+00	 3.00000000E-01	 8.00000000E-01
					 5.00000000E-02	 3.00000000E-01	 8.00000000E-01
					 0.00000000E+00	 0.00000000E+00	 8.50000000E-01
					 5.00000000E-02	 0.00000000E+00	 8.50000000E-01
					 0.00000000E+00	 3.00000000E-01	 8.50000000E-01
					 5.00000000E-02	 3.00000000E-01	 8.50000000E-01
					 0.00000000E+00	 0.00000000E+00	 9.00000000E-01
					 5.00000000E-02	 0.00000000E+00	 9.00000000E-01
					 0.00000000E+00	 3.00000000E-01	 9.00000000E-01
					 5.00000000E-02	 3.00000000E-01	 9.00000000E-01
					 0.00000000E+00	 0.00000000E+00	 9.50000000E-01
					 5.00000000E-02	 0.00000000E+00	 9.50000000E-01
					 0.00000000E+00	 3.00000000E-01	 9.50000000E-01
					 5.00000000E-02	 3.00000000E-01	 9.50000000E-01
					 0.00000000E+00	 0.00000000E+00	 1.00000000E+00
					 5.00000000E-02	 0.00000000E+00	 1.00000000E+00
					 0.00000000E+00	 3.00000000E-01	 1.00000000E+00
					 5.00000000E-02	 3.00000000E-01	 1.00000000E+00
					-5.00000000E-02	 0.00000000E+00	 0.00000000E+00
					-5.00000000E-02	 0.00000000E+00	 5.00000000E-02
					-5.00000000E-02	 3.00000000E-01	 0.00000000E+00
					-5.00000000E-02	 3.00000000E-01	 5.00000000E-02
					-5.00000000E-02	 0.00000000E+00	 1.00000000E-01
					-5.00000000E-02	 3.00000000E-01	 1.00000000E-01
					-5.00000000E-02	 0.00000000E+00	 1.50000000E-01
					-5.00000000E-02	 3.00000000E-01	 1.50000000E-01
					-5.00000000E-02	 0.00000000E+00	 2.00000000E-01
					-5.00000000E-02	 3.00000000E-01	 2.00000000E-01
					-5.00000000E-02	 0.00000000E+00	 2.50000000E-01
					-5.00000000E-02	 3.00000000E-01	 2.50000000E-01
					-5.00000000E-02	 0.00000000E+00	 3.00000000E-01
					-5.00000000E-02	 3.00000000E-01	 3.00000000E-01
					-5.00000000E-02	 0.00000000E+00	 3.50000000E-01
					-5.00000000E-02	 3.00000000E-01	 3.50000000E-01
					-5.00000000E-02	 0.00000000E+00	 4.00000000E-01
					-5.00000000E-02	 3.00000000E-01	 4.00000000E-01
					-5.00000000E-02	 0.00000000E+00	 4.50000000E-01
					-5.00000000E-02	 3.00000000E-01	 4.50000000E-01
					-5.00000000E-02	 0.00000000E+00	 5.00000000E-01
					-5.00000000E-02	 3.00000000E-01	 5.00000000E-01
					-5.00000000E-02	 0.00000000E+00	 5.50000000E-01
					-5.00000000E-02	 3.00000000E-01	 5.50000000E-01
					-5.00000000E-02	 0.00000000E+00	 6.00000000E-01
					-5.00000000E-02	 3.00000000E-01	 6.00000000E-01
					-5.00000000E-02	 0.00000000E+00	 6.50000000E-01
					-5.00000000E-02	 3.00000000E-01	 6.50000000E-01
					-5.00000000E-02	 0.00000000E+00	 7.00000000E-01
					-5.00000000E-02	 3.00000000E-01	 7.00000000E-01
					-5.00000000E-02	 0.00000000E+00	 7.50000000E-01
					-5.00000000E-02	 3.00000000E-01	 7.50000000E-01
					-5.00000000E-02	 0.00000000E+00	 8.00000000E-01
					-5.00000000E-02	 3.00000000E-01	 8.00000000E-01
					-5.00000000E-02	 0.00000000E+00	 8.50000000E-01
					-5.00000000E-02	 3.00000000E-01	 8.50000000E-01
					-5.00000000E-02	 0.00000000E+00	 9.00000000E-01
					-5.00000000E-02	 3.00000000E-01	 9.00000000E-01
					-5.00000000E-02	 0.00000000E+00	 9.50000000E-01
					-5.00000000E-02	 3.00000000E-01	 9.50000000E-01
					-5.00000000E-02	 0.00000000E+00	 1.00000000E+00
					-5.00000000E-02	 3.00000000E-01	 1.00000000E+00

				</DataArray>
			</Points>
			<Cells>
				<DataArray type="Int32" Name="connectivity" format="ascii">
					0 1 2 3 4 5 6 7 3 2 8 9 7 6 10 11 9 8 12 13 11 10 14 15 13 12 16 17 15 14 18 19 17 16 20 21 19 18 22 23 21 20 24 25 23 22 26 27 25 24 28 29 27 26 30 31 29 28 32 33 31 30 34 35 33 32 36 37 35 34 38 39 37 36 40 41 39 38 42 43 41 40 44 45 43 42 46 47 45 44 48 49 47 46 50 51 49 48 52 53 51 50 54 55 53 52 56 57 55 54 58 59 57 56 60 61 59 58 62 63 61 60 64 65 63 62 66 67 65 64 68 69 67 66 70 71 69 68 72 73 71 70 74 75 73 72 76 77 75 74 78 79 77 76 80 81 79 78 82 83 1 84 85 2 5 86 87 6 2 85 88 8 6 87 89 10 8 88 90 12 10 89 91 14 12 90 92 16 14 91 93 18 16 92 94 20 18 93 95 22 20 94 96 24 22 95 97 26 24 96 98 28 26 97 99 30 28 98 100 32 30 99 101 34 32 100 102 36 34 101 103 38 36 102 104 40 38 103 105 42 40 104 106 44 42 105 107 46 44 106 108 48 46 107 109 50 48 108 110 52 50 109 111 54 52 110 112 56 54 111 113 58 56 112 114 60 58 113 115 62 60 114 116 64 62 115 117 66 64 116 118 68 66 117 119 70 68 118 120 72 70 119 121 74 72 120 122 76 74 121 123 78 76 122 124 80 78 123 125 82 
				</DataArray>
				<DataArray type="Int32" Name="offsets" format="ascii">
					8 16 24 32 40 48 56 64 72 80 88 96 104 112 120 128 136 144 152 160 168 176 184 192 200 208 216 224 232 240 248 256 264 272 280 288 296 304 312 320 
				</DataArray>
				<DataArray type="UInt8" Name="types" format="ascii">
					12 12 12 12 12 12 12 12 12 12 12 12 12 12 12 12 12 12 12 12 12 12 12 12 12 12 12 12 12 12 12 12 12 12 12 12 12 12 12 12 
				</DataArray>
			</Cells>
			<PointData>
				<DataArray type="Float32" Name="U" NumberOfComponents="3" ComponentName0="D1" ComponentName1="D2" ComponentName2="D3" format="ascii">
					 0.00000000E+00	 0.00000000E+00	 0.00000000E+00
					 0.00000000E+00	 0.00000000E+00	 0.00000000E+00
					 1.11571000E-03	 0.00000000E+00	 3.25135000E-04
					 1.18085000E-03	 0.00000000E+00	-8.42942000E-04
					 0.00000000E+00	 0.00000000E+00	 0.00000000E+00
					 0.00000000E+00	 0.00000000E+00	 0.00000000E+00
					 1.11571000E-03	 0.00000000E+00	 3.25135000E-04
					 1.18085000E-03	 0.00000000E+00	-8.42942000E-04
					 3.16260000E-03	 0.00000000E+00	 6.33119000E-04
					 3.11024000E-03	 0.00000000E+00	-1.19840000E-03
					 3.16260000E-03	 0.00000000E+00	 6.33119000E-04
					 3.11024000E-03	 0.00000000E+00	-1.19840000E-03
					 5.46913000E-03	 0.00000000E+00	 8.53905000E-04
					 5.38960000E-03	 0.00000000E+00	-1.17441000E-03
					 5.46913000E-03	 0.00000000E+00	 8.53905000E-04
					 5.38960000E-03	 0.00000000E+00	-1.17441000E-03
					 7.69276000E-03	 0.00000000E+00	 9.92166000E-04
					 7.60933000E-03	 0.00000000E+00	-9.10692000E-04
					 7.69276000E-03	 0.00000000E+00	 9.92166000E-04
					 7.60933000E-03	 0.00000000E+00	-9.10692000E-04
					 9.57735000E-03	 0.00000000E+00	 1.08229000E-03
					 9.49758000E-03	 0.00000000E+00	-4.90345000E-04
					 9.57735000E-03	 0.00000000E+00	 1.08229000E-03
					 9.49758000E-03	 0.00000000E+00	-4.90345000E-04
					 1.09965000E-02	 0.00000000E+00	 1.17764000E-03
					 1.09214000E-02	 0.00000000E+00	 2.19488000E-05
					 1.09965000E-02	 0.00000000E+00	 1.17764000E-03
					 1.09214000E-02	 0.00000000E+00	 2.19488000E-05
					 1.19203000E-02	 0.00000000E+00	 1.30020000E-03
					 1.18467000E-02	 0.00000000E+00	 5.52262000E-04
					 1.19203000E-02	 0.00000000E+00	 1.30020000E-03
					 1.18467000E-02	 0.00000000E+00	 5.52262000E-04
					 1.24086000E-02	 0.00000000E+00	 1.42536000E-03
					 1.23600000E-02	 0.00000000E+00	 1.01276000E-03
					 1.24086000E-02	 0.00000000E+00	 1.42536000E-03
					 1.23600000E-02	 0.00000000E+00	 1.01276000E-03
					 1.25850000E-02	 0.00000000E+00	 1.52807000E-03
					 1.25646000E-02	 0.00000000E+00	 1.35244000E-03
					 1.25850000E-02	 0.00000000E+00	 1.52807000E-03
					 1.25646000E-02	 0.00000000E+00	 1.35244000E-03
					 1.25930000E-02	 0.00000000E+00	 1.61919000E-03
					 1.25901000E-02	 0.00000000E+00	 1.56984000E-03
					 1.25930000E-02	 0.00000000E+00	 1.61919000E-03
					 1.25901000E-02	 0.00000000E+00	 1.56984000E-03
					 1.25576000E-02	 0.00000000E+00	 1.71363000E-03
					 1.25527000E-02	 0.00000000E+00	 1.66852000E-03
					 1.25576000E-02	 0.00000000E+00	 1.71363000E-03
					 1.25527000E-02	 0.00000000E+00	 1.66852000E-03
					 1.25955000E-02	 0.00000000E+00	 1.79846000E-03
					 1.26147000E-02	 0.00000000E+00	 1.68522000E-03
					 1.25955000E-02	 0.00000000E+00	 1.79846000E-03
					 1.26147000E-02	 0.00000000E+00	 1.68522000E-03
					 1.27600000E-02	 0.00000000E+00	 1.87687000E-03
					 1.27795000E-02	 0.00000000E+00	 1.71041000E-03
					 1.27600000E-02	 0.00000000E+00	 1.87687000E-03
					 1.27795000E-02	 0.00000000E+00	 1.71041000E-03
					 1.30020000E-02	 0.00000000E+00	 1.96214000E-03
					 1.29950000E-02	 0.00000000E+00	 1.77820000E-03
					 1.30020000E-02	 0.00000000E+00	 1.96214000E-03
					 1.29950000E-02	 0.00000000E+00	 1.77820000E-03
					 1.32147000E-02	 0.00000000E+00	 2.03601000E-03
					 1.32128000E-02	 0.00000000E+00	 1.89315000E-03
					 1.32147000E-02	 0.00000000E+00	 2.03601000E-03
					 1.32128000E-02	 0.00000000E+00	 1.89315000E-03
					 1.33078000E-02	 0.00000000E+00	 2.09744000E-03
					 1.33256000E-02	 0.00000000E+00	 2.05685000E-03
					 1.33078000E-02	 0.00000000E+00	 2.09744000E-03
					 1.33256000E-02	 0.00000000E+00	 2.05685000E-03
					 1.32927000E-02	 0.00000000E+00	 2.16583000E-03
					 1.32987000E-02	 0.00000000E+00	 2.19931000E-03
					 1.32927000E-02	 0.00000000E+00	 2.16583000E-03
					 1.32987000E-02	 0.00000000E+00	 2.19931000E-03
					 1.32124000E-02	 0.00000000E+00	 2.24379000E-03
					 1.32276000E-02	 0.00000000E+00	 2.30687000E-03
					 1.32124000E-02	 0.00000000E+00	 2.24379000E-03
					 1.32276000E-02	 0.00000000E+00	 2.30687000E-03
					 1.31157000E-02	 0.00000000E+00	 2.30343000E-03
					 1.31340000E-02	 0.00000000E+00	 2.36887000E-03
					 1.31157000E-02	 0.00000000E+00	 2.30343000E-03
					 1.31340000E-02	 0.00000000E+00	 2.36887000E-03
					 1.30395000E-02	 0.00000000E+00	 2.37790000E-03
					 1.30717000E-02	 0.00000000E+00	 2.38983000E-03
					 1.30395000E-02	 0.00000000E+00	 2.37790000E-03
					 1.30717000E-02	 0.00000000E+00	 2.38983000E-03
					 0.00000000E+00	 0.00000000E+00	 0.00000000E+00
					 1.40767000E-03	 0.00000000E+00	 1.51562000E-03
					 0.00000000E+00	 0.00000000E+00	 0.00000000E+00
					 1.40767000E-03	 0.00000000E+00	 1.51562000E-03
					 3.34896000E-03	 0.00000000E+00	 2.44224000E-03
					 3.34896000E-03	 0.00000000E+00	 2.44224000E-03
					 5.59638000E-03	 0.00000000E+00	 2.85595000E-03
					 5.59638000E-03	 0.00000000E+00	 2.85595000E-03
					 7.75861000E-03	 0.00000000E+00	 2.87763000E-03
					 7.75861000E-03	 0.00000000E+00	 2.87763000E-03
					 9.60255000E-03	 0.00000000E+00	 2.65619000E-03
					 9.60255000E-03	 0.00000000E+00	 2.65619000E-03
					 1.10171000E-02	 0.00000000E+00	 2.34404000E-03
					 1.10171000E-02	 0.00000000E+00	 2.34404000E-03
					 1.19384000E-02	 0.00000000E+00	 2.04867000E-03
					 1.19384000E-02	 0.00000000E+00	 2.04867000E-03
					 1.24284000E-02	 0.00000000E+00	 1.82405000E-03
					 1.24284000E-02	 0.00000000E+00	 1.82405000E-03
					 1.26030000E-02	 0.00000000E+00	 1.69692000E-03
					 1.26030000E-02	 0.00000000E+00	 1.69692000E-03
					 1.26326000E-02	 0.00000000E+00	 1.67846000E-03
					 1.26326000E-02	 0.00000000E+00	 1.67846000E-03
					 1.26125000E-02	 0.00000000E+00	 1.75228000E-03
					 1.26125000E-02	 0.00000000E+00	 1.75228000E-03
					 1.26404000E-02	 0.00000000E+00	 1.89281000E-03
					 1.26404000E-02	 0.00000000E+00	 1.89281000E-03
					 1.27945000E-02	 0.00000000E+00	 2.05669000E-03
					 1.27945000E-02	 0.00000000E+00	 2.05669000E-03
					 1.30549000E-02	 0.00000000E+00	 2.14922000E-03
					 1.30549000E-02	 0.00000000E+00	 2.14922000E-03
					 1.32390000E-02	 0.00000000E+00	 2.15427000E-03
					 1.32390000E-02	 0.00000000E+00	 2.15427000E-03
					 1.33122000E-02	 0.00000000E+00	 2.15149000E-03
					 1.33122000E-02	 0.00000000E+00	 2.15149000E-03
					 1.33111000E-02	 0.00000000E+00	 2.14805000E-03
					 1.33111000E-02	 0.00000000E+00	 2.14805000E-03
					 1.32403000E-02	 0.00000000E+00	 2.17586000E-03
					 1.32403000E-02	 0.00000000E+00	 2.17586000E-03
					 1.31370000E-02	 0.00000000E+00	 2.22596000E-03
					 1.31370000E-02	 0.00000000E+00	 2.22596000E-03
					 1.30261000E-02	 0.00000000E+00	 2.26546000E-03
					 1.30261000E-02	 0.00000000E+00	 2.26546000E-03
				</DataArray>
				<DataArray type="Float32" Name="S" NumberOfComponents="10" ComponentName0="xx" ComponentName1="yy" ComponentName2="zz" ComponentName3="xy" ComponentName4="yz" ComponentName5="zx" ComponentName6="Mises" ComponentName7="Min Principal" ComponentName8="Mid Principal" ComponentName9="Max Principal" format="ascii">
					-5.06523000E+02	-5.57297000E+02	-2.18314000E+03	 0.00000000E+00	 0.00000000E+00	 1.13017000E+03	 2.56131738E+03	-2.75197235E+03	-5.57297000E+02	 6.23093494E+01
					 2.68622000E+02	 2.24271000E+02	 8.79110000E+02	 0.00000000E+00	 0.00000000E+00	 1.13316000E+03	 2.06249682E+03	-5.99686506E+02	 2.24271000E+02	 1.74741851E+03
					-1.82252000E+00	 1.62572000E+02	 8.21748000E+02	-1.66576000E-08	-1.34980000E-08	 4.16861000E+02	 1.04461608E+03	-1.75989642E+02	 1.62572000E+02	 9.95915122E+02
					-1.46109000E+02	-3.31235000E+02	-1.47997000E+03	-5.50025000E-09	 5.66933000E-09	 3.65767000E+02	 1.40281180E+03	-1.57368514E+03	-3.31235000E+02	-5.23938597E+01
					-5.06523000E+02	-5.57297000E+02	-2.18314000E+03	 0.00000000E+00	 0.00000000E+00	 1.13017000E+03	 2.56131738E+03	-2.75197235E+03	-5.57297000E+02	 6.23093494E+01
					 2.68622000E+02	 2.24271000E+02	 8.79110000E+02	 0.00000000E+00	 0.00000000E+00	 1.13316000E+03	 2.06249682E+03	-5.99686506E+02	 2.24271000E+02	 1.74741851E+03
					-1.82252000E+00	 1.62572000E+02	 8.21748000E+02	-1.66576000E-08	-1.34980000E-08	 4.16861000E+02	 1.04461608E+03	-1.75989642E+02	 1.62572000E+02	 9.95915122E+02
					-1.46109000E+02	-3.31235000E+02	-1.47997000E+03	-5.50021000E-09	 5.66930000E-09	 3.65767000E+02	 1.40281180E+03	-1.57368514E+03	-3.31235000E+02	-5.23938597E+01
					 1.01981000E+01	 1.50319000E+02	 7.51414000E+02	 1.94777000E-08	-2.64616000E-09	 3.74671000E+02	 9.41440446E+02	-1.46193581E+02	 1.50319000E+02	 9.07805681E+02
					-1.07994000E+02	-9.36408000E+01	-3.56185000E+02	 2.09877000E-08	 2.23672000E-08	 2.67636000E+02	 5.29390411E+02	-5.27095808E+02	-9.36408000E+01	 6.29168078E+01
					 1.01981000E+01	 1.50319000E+02	 7.51414000E+02	 1.94777000E-08	-2.64612000E-09	 3.74671000E+02	 9.41440446E+02	-1.46193581E+02	 1.50319000E+02	 9.07805681E+02
					-1.07994000E+02	-9.36408000E+01	-3.56185000E+02	 2.09877000E-08	 2.23672000E-08	 2.67636000E+02	 5.29390411E+02	-5.27095808E+02	-9.36408000E+01	 6.29168078E+01
					 9.66900000E+00	 1.11933000E+02	 5.57218000E+02	-1.66308000E-08	 6.02101000E-09	 2.63741000E+02	 6.80405194E+02	-9.67035662E+01	 1.11933000E+02	 6.63590566E+02
					 4.72150000E+01	 1.03815000E+02	 4.78306000E+02	-2.95531000E-08	 2.72677000E-08	 2.31908000E+02	 5.70952906E+02	-5.38483802E+01	 1.03815000E+02	 5.79369380E+02
					 9.66900000E+00	 1.11933000E+02	 5.57218000E+02	-1.66307000E-08	 6.02100000E-09	 2.63741000E+02	 6.80405194E+02	-9.67035662E+01	 1.11933000E+02	 6.63590566E+02
					 4.72150000E+01	 1.03815000E+02	 4.78306000E+02	-2.95533000E-08	 2.72677000E-08	 2.31908000E+02	 5.70952906E+02	-5.38483802E+01	 1.03815000E+02	 5.79369380E+02
					 1.54030000E+01	 7.85399000E+01	 3.80446000E+02	-4.12829000E-08	 0.00000000E+00	 1.68290000E+02	 4.46272953E+02	-5.03407252E+01	 7.85399000E+01	 4.46189725E+02
					 1.43556000E+02	 2.24134000E+02	 9.93012000E+02	-6.37211000E-08	 3.43182000E-09	 1.69585000E+02	 8.63653901E+02	 1.10951576E+02	 2.24134000E+02	 1.02561642E+03
					 1.54030000E+01	 7.85399000E+01	 3.80446000E+02	-4.12829000E-08	 0.00000000E+00	 1.68290000E+02	 4.46272953E+02	-5.03407252E+01	 7.85399000E+01	 4.46189725E+02
					 1.43556000E+02	 2.24134000E+02	 9.93012000E+02	-6.37211000E-08	 3.43186000E-09	 1.69585000E+02	 8.63653901E+02	 1.10951576E+02	 2.24134000E+02	 1.02561642E+03
					 1.34899000E+01	 6.18401000E+01	 2.96271000E+02	-5.55437000E-08	 6.23220000E-09	 8.35262000E+01	 2.99266182E+02	-9.33865277E+00	 6.18401000E+01	 3.19099553E+02
					 1.89610000E+02	 2.91756000E+02	 1.29312000E+03	-9.00617000E-08	-7.28926000E-09	 1.02288000E+02	 1.07090499E+03	 1.80208680E+02	 2.91756000E+02	 1.30252132E+03
					 1.34899000E+01	 6.18401000E+01	 2.96271000E+02	-5.55438000E-08	 6.23222000E-09	 8.35262000E+01	 2.99266182E+02	-9.33865277E+00	 6.18401000E+01	 3.19099553E+02
					 1.89610000E+02	 2.91756000E+02	 1.29312000E+03	-9.00615000E-08	-7.28927000E-09	 1.02288000E+02	 1.07090499E+03	 1.80208680E+02	 2.91756000E+02	 1.30252132E+03
					-6.78905000E+00	 5.92785000E+01	 3.03077000E+02	-4.52577000E-08	 8.99258000E-09	 1.39488000E+01	 2.83713776E+02	-7.41569605E+00	 5.92785000E+01	 3.03703646E+02
					 1.94957000E+02	 3.14842000E+02	 1.40681000E+03	-5.01032000E-08	 5.47795000E-09	 3.32931000E+01	 1.15801658E+03	 1.94043032E+02	 3.14842000E+02	 1.40772397E+03
					-6.78905000E+00	 5.92785000E+01	 3.03077000E+02	-4.52572000E-08	 8.99260000E-09	 1.39488000E+01	 2.83713776E+02	-7.41569605E+00	 5.92785000E+01	 3.03703646E+02
					 1.94957000E+02	 3.14842000E+02	 1.40681000E+03	-5.01034000E-08	 5.47795000E-09	 3.32931000E+01	 1.15801658E+03	 1.94043032E+02	 3.14842000E+02	 1.40772397E+03
					-2.05596000E+01	 5.93944000E+01	 3.17735000E+02	-4.05985000E-08	 6.16446000E-09	-3.98949000E+01	 3.13946940E+02	-2.52007120E+01	 5.93944000E+01	 3.22376112E+02
					 1.53305000E+02	 2.87884000E+02	 1.31004000E+03	-6.64252000E-08	-2.68918000E-09	-2.03885000E+01	 1.09623091E+03	 1.52945746E+02	 2.87884000E+02	 1.31039925E+03
					-2.05596000E+01	 5.93944000E+01	 3.17735000E+02	-4.05986000E-08	 6.16449000E-09	-3.98949000E+01	 3.13946940E+02	-2.52007120E+01	 5.93944000E+01	 3.22376112E+02
					 1.53305000E+02	 2.87884000E+02	 1.31004000E+03	-6.64253000E-08	-2.68920000E-09	-2.03885000E+01	 1.09623091E+03	 1.52945746E+02	 2.87884000E+02	 1.31039925E+03
					-1.00843000E+01	 5.51519000E+01	 2.86293000E+02	-2.36286000E-08	 3.83154000E-09	-7.23975000E+01	 2.97464167E+02	-2.68237373E+01	 5.51519000E+01	 3.03032437E+02
					 1.42441000E+02	 2.35870000E+02	 1.05275000E+03	-4.08173000E-08	-2.01713000E-08	-5.06200000E+01	 8.71796620E+02	 1.39634799E+02	 2.35870000E+02	 1.05555620E+03
					-1.00843000E+01	 5.51519000E+01	 2.86293000E+02	-2.36284000E-08	 3.83151000E-09	-7.23975000E+01	 2.97464167E+02	-2.68237373E+01	 5.51519000E+01	 3.03032437E+02
					 1.42441000E+02	 2.35870000E+02	 1.05275000E+03	-4.08174000E-08	-2.01714000E-08	-5.06200000E+01	 8.71796620E+02	 1.39634799E+02	 2.35870000E+02	 1.05555620E+03
					 1.41477000E+01	 5.20785000E+01	 2.46888000E+02	 2.15060000E-08	 2.66255000E-09	-7.99832000E+01	 2.56847628E+02	-1.06888216E+01	 5.20785000E+01	 2.71724522E+02
					 1.31859000E+02	 1.72036000E+02	 7.36328000E+02	 9.31605000E-09	-2.27017000E-08	-6.01688000E+01	 5.94619261E+02	 1.25927997E+02	 1.72036000E+02	 7.42259003E+02
					 1.41477000E+01	 5.20785000E+01	 2.46888000E+02	 2.15066000E-08	 2.66245000E-09	-7.99832000E+01	 2.56847628E+02	-1.06888216E+01	 5.20785000E+01	 2.71724522E+02
					 1.31859000E+02	 1.72036000E+02	 7.36328000E+02	 9.31541000E-09	-2.27016000E-08	-6.01688000E+01	 5.94619261E+02	 1.25927997E+02	 1.72036000E+02	 7.42259003E+02
					 5.35131000E+00	 4.76919000E+01	 2.34031000E+02	 4.88806000E-08	 1.18569000E-09	-6.81608000E+01	 2.41541668E+02	-1.34234378E+01	 4.76919000E+01	 2.52805748E+02
					 9.74540000E+01	 1.03245000E+02	 4.21749000E+02	 3.09608000E-08	-2.27935000E-08	-5.55044000E+01	 3.35507087E+02	 8.82172820E+01	 1.03245000E+02	 4.30985718E+02
					 5.35131000E+00	 4.76919000E+01	 2.34031000E+02	 4.88807000E-08	 1.18567000E-09	-6.81608000E+01	 2.41541668E+02	-1.34234378E+01	 4.76919000E+01	 2.52805748E+02
					 9.74540000E+01	 1.03245000E+02	 4.21749000E+02	 3.09604000E-08	-2.27934000E-08	-5.55044000E+01	 3.35507087E+02	 8.82172820E+01	 1.03245000E+02	 4.30985718E+02
					-1.96579000E+01	 3.98616000E+01	 2.19910000E+02	 8.25440000E-08	-5.58957000E-09	-4.06964000E+01	 2.27255317E+02	-2.63824147E+01	 3.98616000E+01	 2.26634515E+02
					 2.55582000E+01	 3.52101000E+01	 1.51092000E+02	 6.91944000E-08	 0.00000000E+00	-3.29368000E+01	 1.33771271E+02	 1.74412758E+01	 3.52101000E+01	 1.59208924E+02
					-1.96579000E+01	 3.98616000E+01	 2.19910000E+02	 8.25437000E-08	-5.58955000E-09	-4.06964000E+01	 2.27255317E+02	-2.63824147E+01	 3.98616000E+01	 2.26634515E+02
					 2.55582000E+01	 3.52101000E+01	 1.51092000E+02	 6.91948000E-08	 0.00000000E+00	-3.29368000E+01	 1.33771271E+02	 1.74412758E+01	 3.52101000E+01	 1.59208924E+02
					 2.06805000E+01	 4.59673000E+01	 2.09991000E+02	 2.98903000E-08	 8.04416000E-09	-2.40596000E+00	 1.78067956E+02	 2.06499274E+01	 4.59673000E+01	 2.10021573E+02
					 6.57212000E+01	 2.69397000E+01	 6.90960000E+01	-9.57638000E-09	 3.24584000E-08	 1.97819000E-01	 4.05757467E+01	 2.69397000E+01	 6.57096441E+01	 6.91075559E+01
					 2.06805000E+01	 4.59673000E+01	 2.09991000E+02	 2.98901000E-08	 8.04403000E-09	-2.40596000E+00	 1.78067956E+02	 2.06499274E+01	 4.59673000E+01	 2.10021573E+02
					 6.57212000E+01	 2.69397000E+01	 6.90960000E+01	-9.57527000E-09	 3.24583000E-08	 1.97819000E-01	 4.05757467E+01	 2.69397000E+01	 6.57096441E+01	 6.91075559E+01
					 3.59736000E+01	 5.00066000E+01	 2.14860000E+02	-2.79348000E-08	 1.45037000E-08	 3.05635000E+01	 1.80247993E+02	 3.08958311E+01	 5.00066000E+01	 2.19937769E+02
					 8.41359000E+01	 4.43730000E+01	 1.38104000E+02	-1.85814000E-08	 3.30788000E-08	 2.38760000E+01	 9.13770339E+01	 4.43730000E+01	 7.50893751E+01	 1.47150525E+02
					 3.59736000E+01	 5.00066000E+01	 2.14860000E+02	-2.79351000E-08	 1.45037000E-08	 3.05635000E+01	 1.80247993E+02	 3.08958311E+01	 5.00066000E+01	 2.19937769E+02
					 8.41359000E+01	 4.43730000E+01	 1.38104000E+02	-1.85826000E-08	 3.30786000E-08	 2.38760000E+01	 9.13770339E+01	 4.43730000E+01	 7.50893751E+01	 1.47150525E+02
					-2.51062000E+01	 3.36443000E+01	 1.94063000E+02	-6.27837000E-08	 8.08679000E-09	 4.23580000E+01	 2.09745226E+02	-3.30077044E+01	 3.36443000E+01	 2.01964504E+02
					 4.36514000E+01	 5.67253000E+01	 2.40915000E+02	-5.43628000E-08	 1.42889000E-08	 3.31908000E+01	 1.99523777E+02	 3.82165811E+01	 5.67253000E+01	 2.46349819E+02
					-2.51062000E+01	 3.36443000E+01	 1.94063000E+02	-6.27836000E-08	 8.08675000E-09	 4.23580000E+01	 2.09745226E+02	-3.30077044E+01	 3.36443000E+01	 2.01964504E+02
					 4.36514000E+01	 5.67253000E+01	 2.40915000E+02	-5.43634000E-08	 1.42888000E-08	 3.31908000E+01	 1.99523777E+02	 3.82165811E+01	 5.67253000E+01	 2.46349819E+02
					 1.10948000E+01	 3.66542000E+01	 1.72687000E+02	-5.83965000E-08	 3.56088000E-09	 2.26090000E+01	 1.55462610E+02	 7.99109871E+00	 3.66542000E+01	 1.75790701E+02
					 8.85943000E+01	 9.18044000E+01	 3.72533000E+02	-5.05154000E-08	-2.01666000E-08	 2.29393000E+01	 2.85129186E+02	 8.67529834E+01	 9.18044000E+01	 3.74374317E+02
					 1.10948000E+01	 3.66542000E+01	 1.72687000E+02	-5.83964000E-08	 3.56082000E-09	 2.26090000E+01	 1.55462610E+02	 7.99109871E+00	 3.66542000E+01	 1.75790701E+02
					 8.85943000E+01	 9.18044000E+01	 3.72533000E+02	-5.05157000E-08	-2.01666000E-08	 2.29393000E+01	 2.85129186E+02	 8.67529834E+01	 9.18044000E+01	 3.74374317E+02
					 6.12683000E+01	 4.77393000E+01	 1.77881000E+02	-8.01532000E-09	-6.50676000E-09	-8.32030000E+00	 1.24767348E+02	 4.77393000E+01	 6.06776395E+01	 1.78471660E+02
					 1.49578000E+02	 1.13753000E+02	 4.21874000E+02	-4.95894000E-09	-4.32175000E-08	 2.54616000E+00	 2.91895521E+02	 1.13753000E+02	 1.49554194E+02	 4.21897806E+02
					 6.12683000E+01	 4.77393000E+01	 1.77881000E+02	-8.01496000E-09	-6.50685000E-09	-8.32030000E+00	 1.24767348E+02	 4.77393000E+01	 6.06776395E+01	 1.78471660E+02
					 1.49578000E+02	 1.13753000E+02	 4.21874000E+02	-4.95981000E-09	-4.32175000E-08	 2.54616000E+00	 2.91895521E+02	 1.13753000E+02	 1.49554194E+02	 4.21897806E+02
					 3.23450000E+01	 4.46455000E+01	 1.91428000E+02	 7.22090000E-08	 5.99872000E-09	-2.21624000E+01	 1.58036131E+02	 2.93151842E+01	 4.46455000E+01	 1.94457816E+02
					 9.94261000E+01	 8.72716000E+01	 3.38625000E+02	 7.65860000E-08	-4.09053000E-08	-1.56477000E+01	 2.46993401E+02	 8.72716000E+01	 9.84068161E+01	 3.39644284E+02
					 3.23450000E+01	 4.46455000E+01	 1.91428000E+02	 7.22084000E-08	 5.99871000E-09	-2.21624000E+01	 1.58036131E+02	 2.93151842E+01	 4.46455000E+01	 1.94457816E+02
					 9.94261000E+01	 8.72716000E+01	 3.38625000E+02	 7.65865000E-08	-4.09052000E-08	-1.56477000E+01	 2.46993401E+02	 8.72716000E+01	 9.84068161E+01	 3.39644284E+02
					 2.93195000E+01	 4.17184000E+01	 1.79819000E+02	 6.42410000E-08	 0.00000000E+00	-2.31395000E+01	 1.50146973E+02	 2.58421179E+01	 4.17184000E+01	 1.83296382E+02
					 9.72542000E+01	 6.66523000E+01	 2.36932000E+02	 8.16695000E-08	-4.24988000E-08	-1.94252000E+01	 1.60788014E+02	 6.66523000E+01	 9.46030293E+01	 2.39583171E+02
					 2.93195000E+01	 4.17184000E+01	 1.79819000E+02	 6.42419000E-08	 0.00000000E+00	-2.31395000E+01	 1.50146973E+02	 2.58421179E+01	 4.17184000E+01	 1.83296382E+02
					 9.72542000E+01	 6.66523000E+01	 2.36932000E+02	 8.16690000E-08	-4.24989000E-08	-1.94252000E+01	 1.60788014E+02	 6.66523000E+01	 9.46030293E+01	 2.39583171E+02
					 4.09948000E+01	 4.37694000E+01	 1.78356000E+02	 1.17424000E-07	-4.26002000E-09	-1.51819000E+01	 1.38514063E+02	 3.93368266E+01	 4.37694000E+01	 1.80013973E+02
					 7.66717000E+01	 3.98938000E+01	 1.23081000E+02	 1.02749000E-07	-7.46416000E-08	-1.26323000E+01	 7.54453356E+01	 3.98938000E+01	 7.34560778E+01	 1.26296622E+02
					 4.09948000E+01	 4.37694000E+01	 1.78356000E+02	 1.17424000E-07	-4.26004000E-09	-1.51819000E+01	 1.38514063E+02	 3.93368266E+01	 4.37694000E+01	 1.80013973E+02
					 7.66717000E+01	 3.98938000E+01	 1.23081000E+02	 1.02748000E-07	-7.46416000E-08	-1.26323000E+01	 7.54453356E+01	 3.98938000E+01	 7.34560778E+01	 1.26296622E+02
					 1.10514000E+02	 6.48123000E+01	 2.14337000E+02	 1.88139000E-07	 1.21322000E-08	-1.42459000E+01	 1.34987352E+02	 6.48123000E+01	 1.08594751E+02	 2.16256249E+02
					 1.00011000E+02	 3.54309000E+01	 7.73638000E+01	 1.94255000E-07	-8.81255000E-08	-5.05550000E+01	 1.04347260E+02	 3.54309000E+01	 3.68797563E+01	 1.40495044E+02
					 1.10514000E+02	 6.48123000E+01	 2.14337000E+02	 1.88138000E-07	 1.21321000E-08	-1.42459000E+01	 1.34987352E+02	 6.48123000E+01	 1.08594751E+02	 2.16256249E+02
					 1.00011000E+02	 3.54309000E+01	 7.73638000E+01	 1.94255000E-07	-8.81255000E-08	-5.05550000E+01	 1.04347260E+02	 3.54309000E+01	 3.68797563E+01	 1.40495044E+02
					 1.08200000E+03	 1.00828000E+03	 4.25043000E+03	 0.00000000E+00	 0.00000000E+00	 1.51812000E+03	 4.14632668E+03	 4.72035085E+02	 1.00828000E+03	 4.86039492E+03
					 1.32485000E+02	 6.45609000E+02	 3.24863000E+03	-2.88927000E-08	 1.22137000E-08	 5.42490000E+02	 3.04262606E+03	 4.07437786E+01	 6.45609000E+02	 3.34037122E+03
					 1.08200000E+03	 1.00828000E+03	 4.25043000E+03	 0.00000000E+00	 0.00000000E+00	 1.51812000E+03	 4.14632668E+03	 4.72035085E+02	 1.00828000E+03	 4.86039492E+03