<?xml version="1.0"?>
<VTKFile type="UnstructuredGrid" version="0.1" byte_order="LittleEndian">
	<UnstructuredGrid>
		<Piece NumberOfPoints="126" NumberOfCells="40">
			<Points>
				<DataArray type="Float64" NumberOfComponents="3" format="ascii">
					 5.00000000E-02	 0.00000000E+00	 0.00000000E+00
					 0.00000000E+00	 0.00000000E+00	 0.00000000E+00
					 0.00000000E+00	 0.00000000E+00	 5.00000000E-02
					 5.00000000E-02	 0.00000000E+00	 5.00000000E-02
					 5.00000000E-02	 3.00000000E-01	 0.00000000E+00
					 0.00000000E+00	 3.00000000E-01	 0.00000000E+00
					 0.00000000E+00	 3.00000000E-01	 5.00000000E-02
					 5.00000000E-02	 3.00000000E-01	 5.00000000E-02
					 0.00000000E+00	 0.00000000E+00	 1.00000000E-01
					 5.00000000E-02	 0.00000000E+00	 1.00000000E-01
					 0.00000000E+00	 3.00000000E-01	 1.00000000E-01
					 5.00000000E-02	 3.00000000E-01	 1.00000000E-01
					 0.00000000E+00	 0.00000000E+00	 1.50000000E-01
					 5.00000000E-02	 0.00000000E+00	 1.50000000E-01
					 0.00000000E+00	 3.00000000E-01	 1.50000000E-01
					 5.00000000E-02	 3.00000000E-01	 1.50000000E-01
					 0.00000000E+00	 0.00000000E+00	 2.00000000E-01
					 5.00000000E-02	 0.00000000E+00	 2.00000000E-01
					 0.00000000E+00	 3.00000000E-01	 2.00000000E-01
					 5.00000000E-02	 3.00000000E-01	 2.00000000E-01
					 0.00000000E+00	 0.00000000E+00	 2.50000000E-01
					 5.00000000E-02	 0.00000000E+00	 2.50000000E-01
					 0.00000000E+00	 3.00000000E-01	 2.50000000E-01
					 5.00000000E-02	 3.00000000E-01	 2.50000000E-01
					 0.00000000E+00	 0.00000000E+00	 3.00000000E-01
					 5.00000000E-02	 0.00000000E+00	 3.00000000E-01
					 0.00000000E+00	 3.00000000E-01	 3.00000000E-01
					 5.00000000E-02	 3.00000000E-01	 3.00000000E-01
					 0.00000000E+00	 0.00000000E+00	 3.50000000E-01
					 5.00000000E-02	 0.00000000E+00	 3.50000000E-01
					 0.00000000E+00	 3.00000000E-01	 3.50000000E-01
					 5.00000000E-02	 3.00000000E-01	 3.50000000E-01
					 0.00000000E+00	 0.00000000E+00	 4.00000000E-01
					 5.00000000E-02	 0.00000000E+00	 4.00000000E-01
					 0.00000000E+00	 3.00000000E-01	 4.00000000E-01
					 5.00000000E-02	 3.00000000E-01	 4.00000000E-01
					 0.00000000E+00	 0.00000000E+00	 4.50000000E-01
					 5.00000000E-02	 0.00000000E+00	 4.50000000E-01
					 0.00000000E+00	 3.00000000E-01	 4.50000000E-01
					 5.00000000E-02	 3.00000000E-01	 4.50000000E-01
					 0.00000000E+00	 0.00000000E+00	 5.00000000E-01
					 5.00000000E-02	 0.00000000E+00	 5.00000000E-01
					 0.00000000E+00	 3.00000000E-01	 5.00000000E-01
					 5.00000000E-02	 3.00000000E-01	 5.00000000E-01
					 0.00000000E+00	 0.00000000E+00	 5.50000000E-01
					 5.00000000E-02	 0.00000000E+00	 5.50000000E-01
					 0.00000000E+00	 3.00000000E-01	 5.50000000E-01
					 5.00000000E-02	 3.00000000E-01	 5.50000000E-01
					 0.00000000E+00	 0.00000000E+00	 6.00000000E-01
					 5.00000000E-02	 0.00000000E+00	 6.00000000E-01
					 0.00000000E+00	 3.00000000E-01	 6.00000000E-01
					 5.00000000E-02	 3.00000000E-01	 6.00000000E-01
					 0.00000000E+00	 0.00000000E+00	 6.50000000E-01
					 5.00000000E-02	 0.00000000E+00	 6.50000000E-01
					 0.00000000E+00	 3.00000000E-01	 6.50000000E-01
					 5.00000000E-02	 3.00000000E-01	 6.50000000E-01
					 0.00000000E+00	 0.00000000E+00	 7.00000000E-01
					 5.00000000E-02	 0.00000000E+00	 7.00000000E-01
					 0.00000000E+00	 3.00000000E-01	 7.00000000E-01
					 5.00000000E-02	 3.00000000E-01	 7.00000000E-01
					 0.00000000E+00	 0.00000000E+00	 7.50000000E-01
					 5.00000000E-02	 0.00000000E+00	 7.50000000E-01
					 0.00000000E+00	 3.00000000E-01	 7.50000000E-01
					 5.00000000E-02	 3.00000000E-01	 7.50000000E-01
					 0.00000000E+00	 0.00000000E+00	 8.00000000E-01
					 5.00000000E-02	 0.00000000E+00	 8.00000000E-01
					 0.00000000E+00	 3.00000000E-01	 8.00000000E-01
					 5.00000000E-02	 3.00000000E-01	 8.00000000E-01
					 0.00000000E+00	 0.00000000E+00	 8.50000000E-01
					 5.00000000E-02	 0.00000000E+00	 8.50000000E-01
					 0.00000000E+00	 3.00000000E-01	 8.50000000E-01
					 5.00000000E-02	 3.00000000E-01	 8.50000000E-01
					 0.00000000E+00	 0.00000000E+00	 9.00000000E-01
					 5.00000000E-02	 0.00000000E+00	 9.00000000E-01
					 0.00000000E+00	 3.00000000E-01	 9.00000000E-01
					 5.00000000E-02	 3.00000000E-01	 9.00000000E-01
					 0.00000000E+00	 0.00000000E+00	 9.50000000E-01
					 5.00000000E-02	 0.00000000E+00	 9.50000000E-01
					 0.00000000E+00	 3.00000000E-01	 9.50000000E-01
					 5.00000000E-02	 3.00000000E-01	 9.50000000E-01
					 0.00000000E+00	 0.00000000E+00	 1.00000000E+00
					 5.00000000E-02	 0.00000000E+00	 1.00000000E+00
					 0.00000000E+00	 3.00000000E-01	 1.00000000E+00
					 5.00000000E-02	 3.00000000E-01	 1.00000000E+00
					-5.00000000E-02	 0.00000000E+00	 0.00000000E+00
					-5.00000000E-02	 0.00000000E+00	 5.00000000E-02
					-5.00000000E-02	 3.00000000E-01	 0.00000000E+00
					-5.00000000E-02	 3.00000000E-01	 5.00000000E-02
					-5.00000000E-02	 0.00000000E+00	 1.00000000E-01
					-5.00000000E-02	 3.00000000E-01	 1.00000000E-01
					-5.00000000E-02	 0.00000000E+00	 1.50000000E-01
					-5.00000000E-02	 3.00000000E-01	 1.50000000E-01
					-5.00000000E-02	 0.00000000E+00	 2.00000000E-01
					-5.00000000E-02	 3.00000000E-01	 2.00000000E-01
					-5.00000000E-02	 0.00000000E+00	 2.50000000E-01
					-5.00000000E-02	 3.00000000E-01	 2.50000000E-01
					-5.00000000E-02	 0.00000000E+00	 3.00000000E-01
					-5.00000000E-02	 3.00000000E-01	 3.00000000E-01
					-5.00000000E-02	 0.00000000E+00	 3.50000000E-01
					-5.00000000E-02	 3.00000000E-01	 3.50000000E-01
					-5.00000000E-02	 0.00000000E+00	 4.00000000E-01
					-5.00000000E-02	 3.00000000E-01	 4.00000000E-01
					-5.00000000E-02	 0.00000000E+00	 4.50000000E-01
					-5.00000000E-02	 3.00000000E-01	 4.50000000E-01
					-5.00000000E-02	 0.00000000E+00	 5.00000000E-01
					-5.00000000E-02	 3.00000000E-01	 5.00000000E-01
					-5.00000000E-02	 0.00000000E+00	 5.50000000E-01
					-5.00000000E-02	 3.00000000E-01	 5.50000000E-01
					-5.00000000E-02	 0.00000000E+00	 6.00000000E-01
					-5.00000000E-02	 3.00000000E-01	 6.00000000E-01
					-5.00000000E-02	 0.00000000E+00	 6.50000000E-01
					-5.00000000E-02	 3.00000000E-01	 6.50000000E-01
					-5.00000000E-02	 0.00000000E+00	 7.00000000E-01
					-5.00000000E-02	 3.00000000E-01	 7.00000000E-01
					-5.00000000E-02	 0.00000000E+00	 7.50000000E-01
					-5.00000000E-02	 3.00000000E-01	 7.50000000E-01
					-5.00000000E-02	 0.00000000E+00	 8.00000000E-01
					-5.00000000E-02	 3.00000000E-01	 8.00000000E-01
					-5.00000000E-02	 0.00000000E+00	 8.50000000E-01
					-5.00000000E-02	 3.00000000E-01	 8.50000000E-01
					-5.00000000E-02	 0.00000000E+00	 9.00000000E-01
					-5.00000000E-02	 3.00000000E-01	 9.00000000E-01
					-5.00000000E-02	 0.00000000E+00	 9.50000000E-01
					-5.00000000E-02	 3.00000000E-01	 9.50000000E-01
					-5.00000000E-02	 0.00000000E+00	 1.00000000E+00
					-5.00000000E-02	 3.00000000E-01	 1.00000000E+00

				</DataArray>
			</Points>
			<Cells>
				<DataArray type="Int32" Name="connectivity" format="ascii">
					0 1 2 3 4 5 6 7 3 2 8 9 7 6 10 11 9 8 12 13 11 10 14 15 13 12 16 17 15 14 18 19 17 16 20 21 19 18 22 23 21 20 24 25 23 22 26 27 25 24 28 29 27 26 30 31 29 28 32 33 31 30 34 35 33 32 36 37 35 34 38 39 37 36 40 41 39 38 42 43 41 40 44 45 43 42 46 47 45 44 48 49 47 46 50 51 49 48 52 53 51 50 54 55 53 52 56 57 55 54 58 59 57 56 60 61 59 58 62 63 61 60 64 65 63 62 66 67 65 64 68 69 67 66 70 71 69 68 72 73 71 70 74 75 73 72 76 77 75 74 78 79 77 76 80 81 79 78 82 83 1 84 85 2 5 86 87 6 2 85 88 8 6 87 89 10 8 88 90 12 10 89 91 14 12 90 92 16 14 91 93 18 16 92 94 20 18 93 95 22 20 94 96 24 22 95 97 26 24 96 98 28 26 97 99 30 28 98 100 32 30 99 101 34 32 100 102 36 34 101 103 38 36 102 104 40 38 103 105 42 40 104 106 44 42 105 107 46 44 106 108 48 46 107 109 50 48 108 110 52 50 109 111 54 52 110 112 56 54 111 113 58 56 112 114 60 58 113 115 62 60 114 116 64 62 115 117 66 64 116 118 68 66 117 119 70 68 118 120 72 70 119 121 74 72 120 122 76 74 121 123 78 76 122 124 80 78 123 125 82 
				</DataArray>
				<DataArray type="Int32" Name="offsets" format="ascii">
					8 16 24 32 40 48 56 64 72 80 88 96 104 112 120 128 136 144 152 160 168 176 184 192 200 208 216 224 232 240 248 256 264 272 280 288 296 304 312 320 
				</DataArray>
				<DataArray type="UInt8" Name="types" format="ascii">
					12 12 12 12 12 12 12 12 12 12 12 12 12 12 12 12 12 12 12 12 12 12 12 12 12 12 12 12 12 12 12 12 12 12 12 12 12 12 12 12 
				</DataArray>
			</Cells>
			<PointData>
				<DataArray type="Float32" Name="U" NumberOfComponents="3" ComponentName0="D1" ComponentName1="D2" ComponentName2="D3" format="ascii">
					 0.00000000E+00	 0.00000000E+00	 0.00000000E+00
					 0.00000000E+00	 0.00000000E+00	 0.00000000E+00
					 2.45209000E-03	 0.00000000E+00	 2.97073000E-05
					 2.72072000E-03	 0.00000000E+00	-3.43340000E-03
					 0.00000000E+00	 0.00000000E+00	 0.00000000E+00
					 0.00000000E+00	 0.00000000E+00	 0.00000000E+00
					 2.45209000E-03	 0.00000000E+00	 2.97073000E-05
					 2.72072000E-03	 0.00000000E+00	-3.43340000E-03
					 8.16153000E-03	 0.00000000E+00	-9.06626000E-05
					 7.96436000E-03	 0.00000000E+00	-6.09150000E-03
					 8.16153000E-03	 0.00000000E+00	-9.06626000E-05
					 7.96436000E-03	 0.00000000E+00	-6.09150000E-03
					 1.57661000E-02	 0.00000000E+00	-4.61464000E-04
					 1.52878000E-02	 0.00000000E+00	-8.05896000E-03
					 1.57661000E-02	 0.00000000E+00	-4.61464000E-04
					 1.52878000E-02	 0.00000000E+00	-8.05896000E-03
					 2.44785000E-02	 0.00000000E+00	-1.02531000E-03
					 2.37866000E-02	 0.00000000E+00	-9.44186000E-03
					 2.44785000E-02	 0.00000000E+00	-1.02531000E-03
					 2.37866000E-02	 0.00000000E+00	-9.44186000E-03
					 3.35661000E-02	 0.00000000E+00	-1.66470000E-03
					 3.27705000E-02	 0.00000000E+00	-1.02894000E-02
					 3.35661000E-02	 0.00000000E+00	-1.66470000E-03
					 3.27705000E-02	 0.00000000E+00	-1.02894000E-02
					 4.25043000E-02	 0.00000000E+00	-2.30035000E-03
					 4.17094000E-02	 0.00000000E+00	-1.06799000E-02
					 4.25043000E-02	 0.00000000E+00	-2.30035000E-03
					 4.17094000E-02	 0.00000000E+00	-1.06799000E-02
					 5.09187000E-02	 0.00000000E+00	-2.87718000E-03
					 5.01879000E-02	 0.00000000E+00	-1.06711000E-02
					 5.09187000E-02	 0.00000000E+00	-2.87718000E-03
					 5.01879000E-02	 0.00000000E+00	-1.06711000E-02
					 5.85475000E-02	 0.00000000E+00	-3.34035000E-03
					 5.79119000E-02	 0.00000000E+00	-1.03033000E-02
					 5.85475000E-02	 0.00000000E+00	-3.34035000E-03
					 5.79119000E-02	 0.00000000E+00	-1.03033000E-02
					 6.52018000E-02	 0.00000000E+00	-3.65704000E-03
					 6.46748000E-02	 0.00000000E+00	-9.61058000E-03
					 6.52018000E-02	 0.00000000E+00	-3.65704000E-03
					 6.46748000E-02	 0.00000000E+00	-9.61058000E-03
					 7.07389000E-02	 0.00000000E+00	-3.82512000E-03
					 7.03196000E-02	 0.00000000E+00	-8.62813000E-03
					 7.07389000E-02	 0.00000000E+00	-3.82512000E-03
					 7.03196000E-02	 0.00000000E+00	-8.62813000E-03
					 7.50350000E-02	 0.00000000E+00	-3.85607000E-03
					 7.46999000E-02	 0.00000000E+00	-7.40118000E-03
					 7.50350000E-02	 0.00000000E+00	-3.85607000E-03
					 7.46999000E-02	 0.00000000E+00	-7.40118000E-03
					 7.79905000E-02	 0.00000000E+00	-3.76437000E-03
					 7.77166000E-02	 0.00000000E+00	-5.99495000E-03
					 7.79905000E-02	 0.00000000E+00	-3.76437000E-03
					 7.77166000E-02	 0.00000000E+00	-5.99495000E-03
					 7.95530000E-02	 0.00000000E+00	-3.59735000E-03
					 7.93239000E-02	 0.00000000E+00	-4.50708000E-03
					 7.95530000E-02	 0.00000000E+00	-3.59735000E-03
					 7.93239000E-02	 0.00000000E+00	-4.50708000E-03
					 7.97320000E-02	 0.00000000E+00	-3.42863000E-03
					 7.95416000E-02	 0.00000000E+00	-3.06620000E-03
					 7.97320000E-02	 0.00000000E+00	-3.42863000E-03
					 7.95416000E-02	 0.00000000E+00	-3.06620000E-03
					 7.86160000E-02	 0.00000000E+00	-3.31783000E-03
					 7.84383000E-02	 0.00000000E+00	-1.80494000E-03
					 7.86160000E-02	 0.00000000E+00	-3.31783000E-03
					 7.84383000E-02	 0.00000000E+00	-1.80494000E-03
					 7.63891000E-02	 0.00000000E+00	-3.28102000E-03
					 7.62076000E-02	 0.00000000E+00	-8.16639000E-04
					 7.63891000E-02	 0.00000000E+00	-3.28102000E-03
					 7.62076000E-02	 0.00000000E+00	-8.16639000E-04
					 7.33134000E-02	 0.00000000E+00	-3.29605000E-03
					 7.31191000E-02	 0.00000000E+00	-1.39843000E-04
					 7.33134000E-02	 0.00000000E+00	-3.29605000E-03
					 7.31191000E-02	 0.00000000E+00	-1.39843000E-04
					 6.96853000E-02	 0.00000000E+00	-3.34000000E-03
					 6.94954000E-02	 0.00000000E+00	 2.35117000E-04
					 6.96853000E-02	 0.00000000E+00	-3.34000000E-03
					 6.94954000E-02	 0.00000000E+00	 2.35117000E-04
					 6.58066000E-02	 0.00000000E+00	-3.40387000E-03
					 6.56371000E-02	 0.00000000E+00	 3.48339000E-04
					 6.58066000E-02	 0.00000000E+00	-3.40387000E-03
					 6.56371000E-02	 0.00000000E+00	 3.48339000E-04
					 6.19387000E-02	 0.00000000E+00	-3.48265000E-03
					 6.17954000E-02	 0.00000000E+00	 2.79403000E-04
					 6.19387000E-02	 0.00000000E+00	-3.48265000E-03
					 6.17954000E-02	 0.00000000E+00	 2.79403000E-04
					 0.00000000E+00	 0.00000000E+00	 0.00000000E+00
					 3.16744000E-03	 0.00000000E+00	 3.43124000E-03
					 0.00000000E+00	 0.00000000E+00	 0.00000000E+00
					 3.16744000E-03	 0.00000000E+00	 3.43124000E-03
					 8.86938000E-03	 0.00000000E+00	 5.80018000E-03
					 8.86938000E-03	 0.00000000E+00	 5.80018000E-03
					 1.65792000E-02	 0.00000000E+00	 7.04789000E-03
					 1.65792000E-02	 0.00000000E+00	 7.04789000E-03
					 2.53279000E-02	 0.00000000E+00	 7.35082000E-03
					 2.53279000E-02	 0.00000000E+00	 7.35082000E-03
					 3.43850000E-02	 0.00000000E+00	 6.95211000E-03
					 3.43850000E-02	 0.00000000E+00	 6.95211000E-03
					 4.32308000E-02	 0.00000000E+00	 6.08612000E-03
					 4.32308000E-02	 0.00000000E+00	 6.08612000E-03
					 5.15015000E-02	 0.00000000E+00	 4.94197000E-03
					 5.15015000E-02	 0.00000000E+00	 4.94197000E-03
					 5.89847000E-02	 0.00000000E+00	 3.65577000E-03
					 5.89847000E-02	 0.00000000E+00	 3.65577000E-03
					 6.54885000E-02	 0.00000000E+00	 2.32944000E-03
					 6.54885000E-02	 0.00000000E+00	 2.32944000E-03
					 7.08960000E-02	 0.00000000E+00	 1.01514000E-03
					 7.08960000E-02	 0.00000000E+00	 1.01514000E-03
					 7.50774000E-02	 0.00000000E+00	-2.70474000E-04
					 7.50774000E-02	 0.00000000E+00	-2.70474000E-04
					 7.79626000E-02	 0.00000000E+00	-1.51073000E-03
					 7.79626000E-02	 0.00000000E+00	-1.51073000E-03
					 7.94826000E-02	 0.00000000E+00	-2.69215000E-03
					 7.94826000E-02	 0.00000000E+00	-2.69215000E-03
					 7.96549000E-02	 0.00000000E+00	-3.80986000E-03
					 7.96549000E-02	 0.00000000E+00	-3.80986000E-03
					 7.85597000E-02	 0.00000000E+00	-4.84648000E-03
					 7.85597000E-02	 0.00000000E+00	-4.84648000E-03
					 7.63958000E-02	 0.00000000E+00	-5.74841000E-03
					 7.63958000E-02	 0.00000000E+00	-5.74841000E-03
					 7.33963000E-02	 0.00000000E+00	-6.45159000E-03
					 7.33963000E-02	 0.00000000E+00	-6.45159000E-03
					 6.98340000E-02	 0.00000000E+00	-6.92386000E-03
					 6.98340000E-02	 0.00000000E+00	-6.92386000E-03
					 6.59790000E-02	 0.00000000E+00	-7.18167000E-03
					 6.59790000E-02	 0.00000000E+00	-7.18167000E-03
					 6.20962000E-02	 0.00000000E+00	-7.32202000E-03
					 6.20962000E-02	 0.00000000E+00	-7.32202000E-03
				</DataArray>
				<DataArray type="Float32" Name="S" NumberOfComponents="10" ComponentName0="xx" ComponentName1="yy" ComponentName2="zz" ComponentName3="xy" ComponentName4="yz" ComponentName5="zx" ComponentName6="Mises" ComponentName7="Min Principal" ComponentName8="Mid Principal" ComponentName9="Max Principal" format="ascii">
					-2.07320000E+03	-2.31910000E+03	-8.28775000E+03	 0.00000000E+00	 0.00000000E+00	 2.26325000E+03	 7.24705750E+03	-9.02462100E+03	-2.31910000E+03	-1.33632900E+03
					 2.55114000E+02	 5.98866000E+01	-1.06122000E+01	 0.00000000E+00	 0.00000000E+00	 2.44634000E+03	 4.24388799E+03	-2.32769441E+03	 5.98866000E+01	 2.57219621E+03
					 1.63564000E+01	 2.68771000E+01	 4.18294000E+01	 5.48121000E-08	 1.14662000E-08	 6.47831000E+02	 1.12229523E+03	-6.18863289E+02	 2.68771000E+01	 6.77049089E+02
					-7.61800000E+02	-1.67919000E+03	-6.91887000E+03	 6.15954000E-08	 1.28278000E-08	 2.63231000E+02	 5.77152949E+03	-6.93010333E+03	-1.67919000E+03	-7.50566674E+02
					-2.07320000E+03	-2.31910000E+03	-8.28775000E+03	 0.00000000E+00	 0.00000000E+00	 2.26325000E+03	 7.24705750E+03	-9.02462100E+03	-2.31910000E+03	-1.33632900E+03
					 2.55114000E+02	 5.98866000E+01	-1.06122000E+01	 0.00000000E+00	 0.00000000E+00	 2.44634000E+03	 4.24388799E+03	-2.32769441E+03	 5.98866000E+01	 2.57219621E+03
					 1.63564000E+01	 2.68771000E+01	 4.18294000E+01	 5.48119000E-08	 1.14661000E-08	 6.47831000E+02	 1.12229523E+03	-6.18863289E+02	 2.68771000E+01	 6.77049089E+02
					-7.61800000E+02	-1.67919000E+03	-6.91887000E+03	 6.15955000E-08	 1.28278000E-08	 2.63231000E+02	 5.77152949E+03	-6.93010333E+03	-1.67919000E+03	-7.50566674E+02
					 9.46080000E+01	 7.29895000E+01	 2.25825000E+02	-1.93842000E-08	 0.00000000E+00	 7.23304000E+02	 1.26096313E+03	-5.66056969E+02	 7.29895000E+01	 8.86489969E+02
					-7.39607000E+02	-1.16984000E+03	-4.77786000E+03	 2.93754000E-09	 1.46697000E-08	 2.36902000E+01	 3.84146869E+03	-4.77799897E+03	-1.16984000E+03	-7.39468027E+02
					 9.46080000E+01	 7.29895000E+01	 2.25825000E+02	-1.93841000E-08	 0.00000000E+00	 7.23304000E+02	 1.26096313E+03	-5.66056969E+02	 7.29895000E+01	 8.86489969E+02
					-7.39607000E+02	-1.16984000E+03	-4.77786000E+03	 2.93768000E-09	 1.46698000E-08	 2.36902000E+01	 3.84146869E+03	-4.77799897E+03	-1.16984000E+03	-7.39468027E+02
					 1.52671000E+02	 8.80012000E+01	 2.79009000E+02	-4.72479000E-08	 0.00000000E+00	 6.23564000E+02	 1.09307361E+03	-4.10915442E+02	 8.80012000E+01	 8.42595442E+02
					-3.12297000E+02	-6.24092000E+02	-2.70319000E+03	-4.42218000E-08	-7.37993000E-09	 1.23124000E+02	 2.26132606E+03	-2.70951380E+03	-6.24092000E+02	-3.05973200E+02
					 1.52671000E+02	 8.80012000E+01	 2.79009000E+02	-4.72484000E-08	 0.00000000E+00	 6.23564000E+02	 1.09307361E+03	-4.10915442E+02	 8.80012000E+01	 8.42595442E+02
					-3.12297000E+02	-6.24092000E+02	-2.70319000E+03	-4.42215000E-08	-7.37979000E-09	 1.23124000E+02	 2.26132606E+03	-2.70951380E+03	-6.24092000E+02	-3.05973200E+02
					 1.50294000E+02	 8.95572000E+01	 3.02466000E+02	-3.71604000E-08	 5.40999000E-09	 5.27035000E+02	 9.32408382E+02	-3.06118799E+02	 8.95572000E+01	 7.58878799E+02
					-5.62677000E+01	-2.13326000E+02	-9.90142000E+02	-1.13422000E-08	 1.27675000E-09	 2.46069000E+02	 9.65280097E+02	-1.05101187E+03	-2.13326000E+02	 4.60217422E+00
					 1.50294000E+02	 8.95572000E+01	 3.02466000E+02	-3.71592000E-08	 5.41002000E-09	 5.27035000E+02	 9.32408382E+02	-3.06118799E+02	 8.95572000E+01	 7.58878799E+02
					-5.62677000E+01	-2.13326000E+02	-9.90142000E+02	-1.13440000E-08	 1.27683000E-09	 2.46069000E+02	 9.65280097E+02	-1.05101187E+03	-2.13326000E+02	 4.60217422E+00
					 1.07357000E+02	 8.07242000E+01	 3.03359000E+02	-3.90651000E-09	 7.36044000E-09	 4.17964000E+02	 7.53941568E+02	-2.23941547E+02	 8.07242000E+01	 6.34657547E+02
					 1.24269000E+02	 9.43772000E+01	 3.58714000E+02	 1.32703000E-08	 3.16365000E-08	 3.64518000E+02	 6.79327666E+02	-1.41411212E+02	 9.43772000E+01	 6.24394212E+02
					 1.07357000E+02	 8.07242000E+01	 3.03359000E+02	-3.90653000E-09	 7.36037000E-09	 4.17964000E+02	 7.53941568E+02	-2.23941547E+02	 8.07242000E+01	 6.34657547E+02
					 1.24269000E+02	 9.43772000E+01	 3.58714000E+02	 1.32691000E-08	 3.16365000E-08	 3.64518000E+02	 6.79327666E+02	-1.41411212E+02	 9.43772000E+01	 6.24394212E+02
					 6.54813000E+01	 6.56846000E+01	 2.65940000E+02	-2.92426000E-08	 1.61595000E-08	 3.15968000E+02	 5.82795255E+02	-1.65773437E+02	 6.56846000E+01	 4.97194737E+02
					 2.63105000E+02	 3.18251000E+02	 1.36279000E+03	-2.93640000E-08	 4.74939000E-08	 4.33616000E+02	 1.30987536E+03	 1.12697823E+02	 3.18251000E+02	 1.51319718E+03
					 6.54813000E+01	 6.56846000E+01	 2.65940000E+02	-2.92432000E-08	 1.61595000E-08	 3.15968000E+02	 5.82795255E+02	-1.65773437E+02	 6.56846000E+01	 4.97194737E+02
					 2.63105000E+02	 3.18251000E+02	 1.36279000E+03	-2.93634000E-08	 4.74939000E-08	 4.33616000E+02	 1.30987536E+03	 1.12697823E+02	 3.18251000E+02	 1.51319718E+03
					 4.40424000E+01	 5.62925000E+01	 2.34618000E+02	-4.51089000E-08	 1.00523000E-08	 2.32952000E+02	 4.43772979E+02	-1.12356906E+02	 5.62925000E+01	 3.91017306E+02
					 3.49123000E+02	 4.78723000E+02	 2.11194000E+03	-1.69611000E-08	 1.95515000E-08	 4.58806000E+02	 1.87812877E+03	 2.36859578E+02	 4.78723000E+02	 2.22420342E+03
					 4.40424000E+01	 5.62925000E+01	 2.34618000E+02	-4.51070000E-08	 1.00523000E-08	 2.32952000E+02	 4.43772979E+02	-1.12356906E+02	 5.62925000E+01	 3.91017306E+02
					 3.49123000E+02	 4.78723000E+02	 2.11194000E+03	-1.69632000E-08	 1.95515000E-08	 4.58806000E+02	 1.87812877E+03	 2.36859578E+02	 4.78723000E+02	 2.22420342E+03
					 1.26567000E+01	 5.16324000E+01	 2.37355000E+02	-2.39557000E-08	-1.49804000E-09	 1.78726000E+02	 3.72933784E+02	-8.60991347E+01	 5.16324000E+01	 3.36110835E+02
					 3.96736000E+02	 5.98217000E+02	 2.69601000E+03	-4.96879000E-08	-9.24237000E-09	 4.54562000E+02	 2.34176757E+03	 3.10131986E+02	 5.98217000E+02	 2.78261401E+03
					 1.26567000E+01	 5.16324000E+01	 2.37355000E+02	-2.39562000E-08	-1.49804000E-09	 1.78726000E+02	 3.72933784E+02	-8.60991347E+01	 5.16324000E+01	 3.36110835E+02
					 3.96736000E+02	 5.98217000E+02	 2.69601000E+03	-4.96882000E-08	-9.24226000E-09	 4.54562000E+02	 2.34176757E+03	 3.10131986E+02	 5.98217000E+02	 2.78261401E+03
					-1.18714000E+00	 5.59150000E+01	 2.68208000E+02	-5.44328000E-09	-4.46642000E-09	 1.41595000E+02	 3.47273363E+02	-6.19187884E+01	 5.59150000E+01	 3.28939648E+02
					 4.30509000E+02	 6.94080000E+02	 3.17512000E+03	-3.26043000E-08	-2.49970000E-08	 4.26374000E+02	 2.72476489E+03	 3.65797738E+02	 6.94080000E+02	 3.23983126E+03
					-1.18714000E+00	 5.59150000E+01	 2.68208000E+02	-5.44180000E-09	-4.46631000E-09	 1.41595000E+02	 3.47273363E+02	-6.19187884E+01	 5.59150000E+01	 3.28939648E+02
					 4.30509000E+02	 6.94080000E+02	 3.17512000E+03	-3.26045000E-08	-2.49970000E-08	 4.26374000E+02	 2.72476489E+03	 3.65797738E+02	 6.94080000E+02	 3.23983126E+03
					-1.82715000E+01	 6.06508000E+01	 3.05536000E+02	 3.08532000E-08	 1.47091000E-08	 1.09774000E+02	 3.48819992E+02	-5.19774515E+01	 6.06508000E+01	 3.39241952E+02
					 4.58234000E+02	 7.72371000E+02	 3.57043000E+03	 4.33886000E-09	-3.31427000E-08	 3.69683000E+02	 3.03591611E+03	 4.14923826E+02	 7.72371000E+02	 3.61374017E+03
					-1.82715000E+01	 6.06508000E+01	 3.05536000E+02	 3.08506000E-08	 1.47091000E-08	 1.09774000E+02	 3.48819992E+02	-5.19774515E+01	 6.06508000E+01	 3.39241952E+02
					 4.58234000E+02	 7.72371000E+02	 3.57043000E+03	 4.34148000E-09	-3.31427000E-08	 3.69683000E+02	 3.03591611E+03	 4.14923826E+02	 7.72371000E+02	 3.61374017E+03
					-2.93451000E+01	 6.98010000E+01	 3.60639000E+02	 7.02506000E-08	 1.42562000E-08	 7.31695000E+01	 3.73247200E+02	-4.26213272E+01	 6.98010000E+01	 3.73915227E+02
					 4.50822000E+02	 8.24344000E+02	 3.86326000E+03	 5.27484000E-08	-8.70275000E-09	 2.82052000E+02	 3.27845865E+03	 4.27666371E+02	 8.24344000E+02	 3.88641563E+03
					-2.93451000E+01	 6.98010000E+01	 3.60639000E+02	 7.02520000E-08	 1.42563000E-08	 7.31695000E+01	 3.73247200E+02	-4.26213272E+01	 6.98010000E+01	 3.73915227E+02
					 4.50822000E+02	 8.24344000E+02	 3.86326000E+03	 5.27491000E-08	-8.70328000E-09	 2.82052000E+02	 3.27845865E+03	 4.27666371E+02	 8.24344000E+02	 3.88641563E+03
					-5.27299000E+01	 7.49105000E+01	 4.09218000E+02	 2.75190000E-08	 6.72205000E-09	 2.62717000E+01	 4.15686572E+02	-5.42192112E+01	 7.49105000E+01	 4.10707311E+02
					 4.29918000E+02	 8.47158000E+02	 4.01177000E+03	 3.69482000E-08	 2.98809000E-08	 1.65284000E+02	 3.40458770E+03	 4.22307167E+02	 8.47158000E+02	 4.01938083E+03
					-5.27299000E+01	 7.49105000E+01	 4.09218000E+02	 2.75194000E-08	 6.72206000E-09	 2.62717000E+01	 4.15686572E+02	-5.42192112E+01	 7.49105000E+01	 4.10707311E+02
					 4.29918000E+02	 8.47158000E+02	 4.01177000E+03	 3.69425000E-08	 2.98809000E-08	 1.65284000E+02	 3.40458770E+03	 4.22307167E+02	 8.47158000E+02	 4.01938083E+03
					-5.48418000E+01	 7.26646000E+01	 4.01083000E+02	-1.02582000E-08	 3.38874000E-09	-3.29968000E+01	 4.11410187E+02	-5.72175094E+01	 7.26646000E+01	 4.03458709E+02
					 4.12139000E+02	 8.31605000E+02	 3.94460000E+03	 0.00000000E+00	 3.36261000E-08	 3.52812000E+01	 3.34308532E+03	 4.11786657E+02	 8.31605000E+02	 3.94495234E+03
					-5.48418000E+01	 7.26646000E+01	 4.01083000E+02	-1.02557000E-08	 3.38879000E-09	-3.29968000E+01	 4.11410187E+02	-5.72175094E+01	 7.26646000E+01	 4.03458709E+02
					 4.12139000E+02	 8.31605000E+02	 3.94460000E+03	 0.00000000E+00	 3.36259000E-08	 3.52812000E+01	 3.34308532E+03	 4.11786657E+02	 8.31605000E+02	 3.94495234E+03
					-3.44424000E+01	 6.05091000E+01	 3.21976000E+02	-4.92338000E-08	-1.22210000E-08	-9.79743000E+01	 3.61945150E+02	-5.95985914E+01	 6.05091000E+01	 3.47132191E+02
					 4.15579000E+02	 7.73276000E+02	 3.61967000E+03	-2.55163000E-08	 1.89025000E-08	-9.47884000E+01	 3.04548963E+03	 4.12777272E+02	 7.73276000E+02	 3.62247173E+03
					-3.44424000E+01	 6.05091000E+01	 3.21976000E+02	-4.92362000E-08	-1.22209000E-08	-9.79743000E+01	 3.61945150E+02	-5.95985914E+01	 6.05091000E+01	 3.47132191E+02
					 4.15579000E+02	 7.73276000E+02	 3.61967000E+03	-2.55161000E-08	 1.89026000E-08	-9.47884000E+01	 3.04548963E+03	 4.12777272E+02	 7.73276000E+02	 3.62247173E+03
					-1.03487000E+01	 4.47325000E+01	 2.22706000E+02	-8.94008000E-08	-1.94462000E-08	-1.54158000E+02	 3.40302169E+02	-8.70655278E+01	 4.47325000E+01	 2.99422828E+02
					 3.76913000E+02	 6.62653000E+02	 3.05919000E+03	-8.28372000E-08	-5.50761000E-09	-1.99818000E+02	 2.57480196E+03	 3.62109131E+02	 6.62653000E+02	 3.07399387E+03
					-1.03487000E+01	 4.47325000E+01	 2.22706000E+02	-8.93996000E-08	-1.94465000E-08	-1.54158000E+02	 3.40302169E+02	-8.70655278E+01	 4.47325000E+01	 2.99422828E+02
					 3.76913000E+02	 6.62653000E+02	 3.05919000E+03	-8.28378000E-08	-5.50750000E-09	-1.99818000E+02	 2.57480196E+03	 3.62109131E+02	 6.62653000E+02	 3.07399387E+03
					-8.07531000E+00	 3.30858000E+01	 1.66715000E+02	-8.39281000E-08	-1.55482000E-08	-1.90099000E+02	 3.65327546E+02	-1.29906212E+02	 3.30858000E+01	 2.88545902E+02
					 3.06832000E+02	 5.19506000E+02	 2.36693000E+03	-6.19372000E-08	-3.43771000E-08	-2.51519000E+02	 2.01019654E+03	 2.76568428E+02	 5.19506000E+02	 2.39719357E+03
					-8.07531000E+00	 3.30858000E+01	 1.66715000E+02	-8.39252000E-08	-1.55483000E-08	-1.90099000E+02	 3.65327546E+02	-1.29906212E+02	 3.30858000E+01	 2.88545902E+02
					 3.06832000E+02	 5.19506000E+02	 2.36693000E+03	-6.19358000E-08	-3.43771000E-08	-2.51519000E+02	 2.01019654E+03	 2.76568428E+02	 5.19506000E+02	 2.39719357E+03
					-1.91537000E+01	 2.98468000E+01	 1.65838000E+02	-5.49662000E-08	-1.75426000E-08	-2.02648000E+02	 3.88274295E+02	-1.49417124E+02	 2.98468000E+01	 2.96101424E+02
					 2.02727000E+02	 3.61154000E+02	 1.64208000E+03	-3.56693000E-08	-7.39339000E-08	-2.49848000E+02	 1.43390232E+03	 1.60590998E+02	 3.61154000E+02	 1.68421600E+03
					-1.91537000E+01	 2.98468000E+01	 1.65838000E+02	-5.49650000E-08	-1.75426000E-08	-2.02648000E+02	 3.88274295E+02	-1.49417124E+02	 2.98468000E+01	 2.96101424E+02
					 2.02727000E+02	 3.61154000E+02	 1.64208000E+03	-3.56696000E-08	-7.39339000E-08	-2.49848000E+02	 1.43390232E+03	 1.60590998E+02	 3.61154000E+02	 1.68421600E+03
					-2.44429000E+01	 3.08107000E+01	 1.78409000E+02	 7.92160000E-08	 0.00000000E+00	-1.82076000E+02	 3.63934837E+02	-1.31436942E+02	 3.08107000E+01	 2.85403042E+02
					 1.16113000E+02	 2.13910000E+02	 9.68671000E+02	 7.69678000E-08	-8.88294000E-08	-1.99161000E+02	 8.78656414E+02	 7.18828186E+01	 2.13910000E+02	 1.01290118E+03
					-2.44429000E+01	 3.08107000E+01	 1.78409000E+02	 7.92150000E-08	 0.00000000E+00	-1.82076000E+02	 3.63934837E+02	-1.31436942E+02	 3.08107000E+01	 2.85403042E+02
					 1.16113000E+02	 2.13910000E+02	 9.68671000E+02	 7.69664000E-08	-8.88294000E-08	-1.99161000E+02	 8.78656414E+02	 7.18828186E+01	 2.13910000E+02	 1.01290118E+03
					-7.76102000E+00	 3.32092000E+01	 1.74396000E+02	 1.69751000E-07	 1.55717000E-08	-1.15860000E+02	 2.60129476E+02	-6.40556235E+01	 3.32092000E+01	 2.30690604E+02
					 5.24967000E+01	 9.42827000E+01	 4.22602000E+02	 1.83046000E-07	-4.48462000E-08	-1.12861000E+02	 4.01835288E+02	 2.07958296E+01	 9.42827000E+01	 4.54302870E+02
					-7.76102000E+00	 3.32092000E+01	 1.74396000E+02	 1.69753000E-07	 1.55719000E-08	-1.15860000E+02	 2.60129476E+02	-6.40556235E+01	 3.32092000E+01	 2.30690604E+02
					 5.24967000E+01	 9.42827000E+01	 4.22602000E+02	 1.83043000E-07	-4.48463000E-08	-1.12861000E+02	 4.01835288E+02	 2.07958296E+01	 9.42827000E+01	 4.54302870E+02
					 4.24346000E+01	 4.34095000E+01	 1.75286000E+02	 2.22692000E-07	 1.45775000E-08	-7.27577000E+01	 1.82762077E+02	 1.03409794E+01	 4.34095000E+01	 2.07379621E+02
					 6.04790000E+01	 5.13484000E+01	 1.97115000E+02	 2.15110000E-07	-1.95396000E-08	-8.53496000E+01	 2.04582491E+02	 1.94722391E+01	 5.13484000E+01	 2.38121761E+02
					 4.24346000E+01	 4.34095000E+01	 1.75286000E+02	 2.22691000E-07	 1.45773000E-08	-7.27577000E+01	 1.82762077E+02	 1.03409794E+01	 4.34095000E+01	 2.07379621E+02
					 6.04790000E+01	 5.13484000E+01	 1.97115000E+02	 2.15106000E-07	-1.95395000E-08	-8.53496000E+01	 2.04582491E+02	 1.94722391E+01	 5.13484000E+01	 2.38121761E+02
					 2.64027000E+03	 2.27558000E+03	 1.01361000E+04	 0.00000000E+00	 0.00000000E+00	 3.73520000E+03	 1.00453610E+04	 1.09681600E+03	 2.27558000E+03	 1.16795540E+04
					 7.25406000E+02	 1.65320000E+03	 8.39387000E+03	 2.50810000E-08	-7.98399000E-09	 1.39712000E+03	 7.64246163E+03	 4.78795033E+02	 1.65320000E+03	 8.64048097E+03
					 2.64027000E+03	 2.27558000E+03	 1.01361000E+04	 0.00000000E+00	 0.00000000E+00	 3.73520000E+03	 1.00453610E+04	 1.09681600E+03	 2.27558000E+03	 1.16795540E+04