<?xml version="1.0"?>
<VTKFile type="UnstructuredGrid" version="0.1" byte_order="LittleEndian">
	<UnstructuredGrid>
		<Piece NumberOfPoints="126" NumberOfCells="40">
			<Points>
				<DataArray type="Float64" NumberOfComponents="3" format="ascii">
					 5.00000000E-02	 0.00000000E+00	 0.00000000E+00
					 0.00000000E+00	 0.00000000E+00	 0.00000000E+00
					 0.00000000E+00	 0.00000000E+00	 5.00000000E-02
					 5.00000000E-02	 0.00000000E+00	 5.00000000E-02
					 5.00000000E-02	 3.00000000E-01	 0.00000000E+00
					 0.00000000E+00	 3.00000000E-01	 0.00000000E+00
					 0.00000000E+00	 3.00000000E-01	 5.00000000E-02
					 5.00000000E-02	 3.00000000E-01	 5.00000000E-02
					 0.00000000E+00	 0.00000000E+00	 1.00000000E-01
					 5.00000000E-02	 0.00000000E+00	 1.00000000E-01
					 0.00000000E+00	 3.00000000E-01	 1.00000000E-01
					 5.00000000E-02	 3.00000000E-01	 1.00000000E-01
					 0.00000000E+00	 0.00000000E+00	 1.50000000E-01
					 5.00000000E-02	 0.00000000E+00	 1.50000000E-01
					 0.00000000E+00	 3.00000000E-01	 1.50000000E-01
					 5.00000000E-02	 3.00000000E-01	 1.50000000E-01
					 0.00000000E+00	 0.00000000E+00	 2.00000000E-01
					 5.00000000E-02	 0.00000000E+00	 2.00000000E-01
					 0.00000000E+00	 3.00000000E-01	 2.00000000E-01
					 5.00000000E-02	 3.00000000E-01	 2.00000000E-01
					 0.00000000E+00	 0.00000000E+00	 2.50000000E-01
					 5.00000000E-02	 0.00000000E+00	 2.50000000E-01
					 0.00000000E+00	 3.00000000E-01	 2.50000000E-01
					 5.00000000E-02	 3.00000000E-01	 2.50000000E-01
					 0.00000000E+00	 0.00000000E+00	 3.00000000E-01
					 5.00000000E-02	 0.00000000E+00	 3.00000000E-01
					 0.00000000E+00	 3.00000000E-01	 3.00000000E-01
					 5.00000000E-02	 3.00000000E-01	 3.00000000E-01
					 0.00000000E+00	 0.00000000E+00	 3.50000000E-01
					 5.00000000E-02	 0.00000000E+00	 3.50000000E-01
					 0.00000000E+00	 3.00000000E-01	 3.50000000E-01
					 5.00000000E-02	 3.00000000E-01	 3.50000000E-01
					 0.00000000E+00	 0.00000000E+00	 4.00000000E-01
					 5.00000000E-02	 0.00000000E+00	 4.00000000E-01
					 0.00000000E+00	 3.00000000E-01	 4.00000000E-01
					 5.00000000E-02	 3.00000000E-01	 4.00000000E-01
					 0.00000000E+00	 0.00000000E+00	 4.50000000E-01
					 5.00000000E-02	 0.00000000E+00	 4.50000000E-01
					 0.00000000E+00	 3.00000000E-01	 4.50000000E-01
					 5.00000000E-02	 3.00000000E-01	 4.50000000E-01
					 0.00000000E+00	 0.00000000E+00	 5.00000000E-01
					 5.00000000E-02	 0.00000000E+00	 5.00000000E-01
					 0.00000000E+00	 3.00000000E-01	 5.00000000E-01
					 5.00000000E-02	 3.00000000E-01	 5.00000000E-01
					 0.00000000E+00	 0.00000000E+00	 5.50000000E-01
					 5.00000000E-02	 0.00000000E+00	 5.50000000E-01
					 0.00000000E+00	 3.00000000E-01	 5.50000000E-01
					 5.00000000E-02	 3.00000000E-01	 5.50000000E-01
					 0.00000000E+00	 0.00000000E+00	 6.00000000E-01
					 5.00000000E-02	 0.00000000E+00	 6.00000000E-01
					 0.00000000E+00	 3.00000000E-01	 6.00000000E-01
					 5.00000000E-02	 3.00000000E-01	 6.00000000E-01
					 0.00000000E+00	 0.00000000E+00	 6.50000000E-01
					 5.00000000E-02	 0.00000000E+00	 6.50000000E-01
					 0.00000000E+00	 3.00000000E-01	 6.50000000E-01
					 5.00000000E-02	 3.00000000E-01	 6.50000000E-01
					 0.00000000E+00	 0.00000000E+00	 7.00000000E-01
					 5.00000000E-02	 0.00000000E+00	 7.00000000E-01
					 0.00000000E+00	 3.00000000E-01	 7.00000000E-01
					 5.00000000E-02	 3.00000000E-01	 7.00000000E-01
					 0.00000000E+00	 0.00000000E+00	 7.50000000E-01
					 5.00000000E-02	 0.00000000E+00	 7.50000000E-01
					 0.00000000E+00	 3.00000000E-01	 7.50000000E-01
					 5.00000000E-02	 3.00000000E-01	 7.50000000E-01
					 0.00000000E+00	 0.00000000E+00	 8.00000000E-01
					 5.00000000E-02	 0.00000000E+00	 8.00000000E-01
					 0.00000000E+00	 3.00000000E-01	 8.00000000E-01
					 5.00000000E-02	 3.00000000E-01	 8.00000000E-01
					 0.00000000E+00	 0.00000000E+00	 8.50000000E-01
					 5.00000000E-02	 0.00000000E+00	 8.50000000E-01
					 0.00000000E+00	 3.00000000E-01	 8.50000000E-01
					 5.00000000E-02	 3.00000000E-01	 8.50000000E-01
					 0.00000000E+00	 0.00000000E+00	 9.00000000E-01
					 5.00000000E-02	 0.00000000E+00	 9.00000000E-01
					 0.00000000E+00	 3.00000000E-01	 9.00000000E-01
					 5.00000000E-02	 3.00000000E-01	 9.00000000E-01
					 0.00000000E+00	 0.00000000E+00	 9.50000000E-01
					 5.00000000E-02	 0.00000000E+00	 9.50000000E-01
					 0.00000000E+00	 3.00000000E-01	 9.50000000E-01
					 5.00000000E-02	 3.00000000E-01	 9.50000000E-01
					 0.00000000E+00	 0.00000000E+00	 1.00000000E+00
					 5.00000000E-02	 0.00000000E+00	 1.00000000E+00
					 0.00000000E+00	 3.00000000E-01	 1.00000000E+00
					 5.00000000E-02	 3.00000000E-01	 1.00000000E+00
					-5.00000000E-02	 0.00000000E+00	 0.00000000E+00
					-5.00000000E-02	 0.00000000E+00	 5.00000000E-02
					-5.00000000E-02	 3.00000000E-01	 0.00000000E+00
					-5.00000000E-02	 3.00000000E-01	 5.00000000E-02
					-5.00000000E-02	 0.00000000E+00	 1.00000000E-01
					-5.00000000E-02	 3.00000000E-01	 1.00000000E-01
					-5.00000000E-02	 0.00000000E+00	 1.50000000E-01
					-5.00000000E-02	 3.00000000E-01	 1.50000000E-01
					-5.00000000E-02	 0.00000000E+00	 2.00000000E-01
					-5.00000000E-02	 3.00000000E-01	 2.00000000E-01
					-5.00000000E-02	 0.00000000E+00	 2.50000000E-01
					-5.00000000E-02	 3.00000000E-01	 2.50000000E-01
					-5.00000000E-02	 0.00000000E+00	 3.00000000E-01
					-5.00000000E-02	 3.00000000E-01	 3.00000000E-01
					-5.00000000E-02	 0.00000000E+00	 3.50000000E-01
					-5.00000000E-02	 3.00000000E-01	 3.50000000E-01
					-5.00000000E-02	 0.00000000E+00	 4.00000000E-01
					-5.00000000E-02	 3.00000000E-01	 4.00000000E-01
					-5.00000000E-02	 0.00000000E+00	 4.50000000E-01
					-5.00000000E-02	 3.00000000E-01	 4.50000000E-01
					-5.00000000E-02	 0.00000000E+00	 5.00000000E-01
					-5.00000000E-02	 3.00000000E-01	 5.00000000E-01
					-5.00000000E-02	 0.00000000E+00	 5.50000000E-01
					-5.00000000E-02	 3.00000000E-01	 5.50000000E-01
					-5.00000000E-02	 0.00000000E+00	 6.00000000E-01
					-5.00000000E-02	 3.00000000E-01	 6.00000000E-01
					-5.00000000E-02	 0.00000000E+00	 6.50000000E-01
					-5.00000000E-02	 3.00000000E-01	 6.50000000E-01
					-5.00000000E-02	 0.00000000E+00	 7.00000000E-01
					-5.00000000E-02	 3.00000000E-01	 7.00000000E-01
					-5.00000000E-02	 0.00000000E+00	 7.50000000E-01
					-5.00000000E-02	 3.00000000E-01	 7.50000000E-01
					-5.00000000E-02	 0.00000000E+00	 8.00000000E-01
					-5.00000000E-02	 3.00000000E-01	 8.00000000E-01
					-5.00000000E-02	 0.00000000E+00	 8.50000000E-01
					-5.00000000E-02	 3.00000000E-01	 8.50000000E-01
					-5.00000000E-02	 0.00000000E+00	 9.00000000E-01
					-5.00000000E-02	 3.00000000E-01	 9.00000000E-01
					-5.00000000E-02	 0.00000000E+00	 9.50000000E-01
					-5.00000000E-02	 3.00000000E-01	 9.50000000E-01
					-5.00000000E-02	 0.00000000E+00	 1.00000000E+00
					-5.00000000E-02	 3.00000000E-01	 1.00000000E+00

				</DataArray>
			</Points>
			<Cells>
				<DataArray type="Int32" Name="connectivity" format="ascii">
					0 1 2 3 4 5 6 7 3 2 8 9 7 6 10 11 9 8 12 13 11 10 14 15 13 12 16 17 15 14 18 19 17 16 20 21 19 18 22 23 21 20 24 25 23 22 26 27 25 24 28 29 27 26 30 31 29 28 32 33 31 30 34 35 33 32 36 37 35 34 38 39 37 36 40 41 39 38 42 43 41 40 44 45 43 42 46 47 45 44 48 49 47 46 50 51 49 48 52 53 51 50 54 55 53 52 56 57 55 54 58 59 57 56 60 61 59 58 62 63 61 60 64 65 63 62 66 67 65 64 68 69 67 66 70 71 69 68 72 73 71 70 74 75 73 72 76 77 75 74 78 79 77 76 80 81 79 78 82 83 1 84 85 2 5 86 87 6 2 85 88 8 6 87 89 10 8 88 90 12 10 89 91 14 12 90 92 16 14 91 93 18 16 92 94 20 18 93 95 22 20 94 96 24 22 95 97 26 24 96 98 28 26 97 99 30 28 98 100 32 30 99 101 34 32 100 102 36 34 101 103 38 36 102 104 40 38 103 105 42 40 104 106 44 42 105 107 46 44 106 108 48 46 107 109 50 48 108 110 52 50 109 111 54 52 110 112 56 54 111 113 58 56 112 114 60 58 113 115 62 60 114 116 64 62 115 117 66 64 116 118 68 66 117 119 70 68 118 120 72 70 119 121 74 72 120 122 76 74 121 123 78 76 122 124 80 78 123 125 82 
				</DataArray>
				<DataArray type="Int32" Name="offsets" format="ascii">
					8 16 24 32 40 48 56 64 72 80 88 96 104 112 120 128 136 144 152 160 168 176 184 192 200 208 216 224 232 240 248 256 264 272 280 288 296 304 312 320 
				</DataArray>
				<DataArray type="UInt8" Name="types" format="ascii">
					12 12 12 12 12 12 12 12 12 12 12 12 12 12 12 12 12 12 12 12 12 12 12 12 12 12 12 12 12 12 12 12 12 12 12 12 12 12 12 12 
				</DataArray>
			</Cells>
			<PointData>
				<DataArray type="Float32" Name="U" NumberOfComponents="3" ComponentName0="D1" ComponentName1="D2" ComponentName2="D3" format="ascii">
					 0.00000000E+00	 0.00000000E+00	 0.00000000E+00
					 0.00000000E+00	 0.00000000E+00	 0.00000000E+00
					 1.88060000E-03	 0.00000000E+00	 1.36850000E-04
					 2.08745000E-03	 0.00000000E+00	-2.33708000E-03
					 0.00000000E+00	 0.00000000E+00	 0.00000000E+00
					 0.00000000E+00	 0.00000000E+00	 0.00000000E+00
					 1.88060000E-03	 0.00000000E+00	 1.36850000E-04
					 2.08745000E-03	 0.00000000E+00	-2.33708000E-03
					 6.00447000E-03	 0.00000000E+00	 2.10320000E-04
					 5.92318000E-03	 0.00000000E+00	-3.99466000E-03
					 6.00447000E-03	 0.00000000E+00	 2.10320000E-04
					 5.92318000E-03	 0.00000000E+00	-3.99466000E-03
					 1.13261000E-02	 0.00000000E+00	 1.75550000E-04
					 1.10981000E-02	 0.00000000E+00	-5.04083000E-03
					 1.13261000E-02	 0.00000000E+00	 1.75550000E-04
					 1.10981000E-02	 0.00000000E+00	-5.04083000E-03
					 1.72987000E-02	 0.00000000E+00	 7.09185000E-05
					 1.69575000E-02	 0.00000000E+00	-5.59348000E-03
					 1.72987000E-02	 0.00000000E+00	 7.09185000E-05
					 1.69575000E-02	 0.00000000E+00	-5.59348000E-03
					 2.34146000E-02	 0.00000000E+00	-4.18792000E-05
					 2.30117000E-02	 0.00000000E+00	-5.70934000E-03
					 2.34146000E-02	 0.00000000E+00	-4.18792000E-05
					 2.30117000E-02	 0.00000000E+00	-5.70934000E-03
					 2.92697000E-02	 0.00000000E+00	-1.11682000E-04
					 2.88675000E-02	 0.00000000E+00	-5.43057000E-03
					 2.92697000E-02	 0.00000000E+00	-1.11682000E-04
					 2.88675000E-02	 0.00000000E+00	-5.43057000E-03
					 3.45398000E-02	 0.00000000E+00	-1.34128000E-04
					 3.41808000E-02	 0.00000000E+00	-4.82761000E-03
					 3.45398000E-02	 0.00000000E+00	-1.34128000E-04
					 3.41808000E-02	 0.00000000E+00	-4.82761000E-03
					 3.90069000E-02	 0.00000000E+00	-1.10197000E-04
					 3.87012000E-02	 0.00000000E+00	-3.98953000E-03
					 3.90069000E-02	 0.00000000E+00	-1.10197000E-04
					 3.87012000E-02	 0.00000000E+00	-3.98953000E-03
					 4.25442000E-02	 0.00000000E+00	-7.33148000E-06
					 4.22826000E-02	 0.00000000E+00	-2.96274000E-03
					 4.25442000E-02	 0.00000000E+00	-7.33148000E-06
					 4.22826000E-02	 0.00000000E+00	-2.96274000E-03
					 4.50480000E-02	 0.00000000E+00	 1.70547000E-04
					 4.48401000E-02	 0.00000000E+00	-1.80607000E-03
					 4.50480000E-02	 0.00000000E+00	 1.70547000E-04
					 4.48401000E-02	 0.00000000E+00	-1.80607000E-03
					 4.64843000E-02	 0.00000000E+00	 3.87938000E-04
					 4.63102000E-02	 0.00000000E+00	-6.40901000E-04
					 4.64843000E-02	 0.00000000E+00	 3.87938000E-04
					 4.63102000E-02	 0.00000000E+00	-6.40901000E-04
					 4.69436000E-02	 0.00000000E+00	 6.16928000E-04
					 4.68037000E-02	 0.00000000E+00	 3.96447000E-04
					 4.69436000E-02	 0.00000000E+00	 6.16928000E-04
					 4.68037000E-02	 0.00000000E+00	 3.96447000E-04
					 4.66381000E-02	 0.00000000E+00	 8.12753000E-04
					 4.65385000E-02	 0.00000000E+00	 1.21150000E-03
					 4.66381000E-02	 0.00000000E+00	 8.12753000E-04
					 4.65385000E-02	 0.00000000E+00	 1.21150000E-03
					 4.58261000E-02	 0.00000000E+00	 9.64615000E-04
					 4.57653000E-02	 0.00000000E+00	 1.78679000E-03
					 4.58261000E-02	 0.00000000E+00	 9.64615000E-04
					 4.57653000E-02	 0.00000000E+00	 1.78679000E-03
					 4.47275000E-02	 0.00000000E+00	 1.09271000E-03
					 4.46773000E-02	 0.00000000E+00	 2.16317000E-03
					 4.47275000E-02	 0.00000000E+00	 1.09271000E-03
					 4.46773000E-02	 0.00000000E+00	 2.16317000E-03
					 4.35002000E-02	 0.00000000E+00	 1.22346000E-03
					 4.34453000E-02	 0.00000000E+00	 2.41134000E-03
					 4.35002000E-02	 0.00000000E+00	 1.22346000E-03
					 4.34453000E-02	 0.00000000E+00	 2.41134000E-03
					 4.22422000E-02	 0.00000000E+00	 1.36958000E-03
					 4.21845000E-02	 0.00000000E+00	 2.58292000E-03
					 4.22422000E-02	 0.00000000E+00	 1.36958000E-03
					 4.21845000E-02	 0.00000000E+00	 2.58292000E-03
					 4.10043000E-02	 0.00000000E+00	 1.51097000E-03
					 4.09597000E-02	 0.00000000E+00	 2.70672000E-03
					 4.10043000E-02	 0.00000000E+00	 1.51097000E-03
					 4.09597000E-02	 0.00000000E+00	 2.70672000E-03
					 3.98015000E-02	 0.00000000E+00	 1.62559000E-03
					 3.97724000E-02	 0.00000000E+00	 2.79221000E-03
					 3.98015000E-02	 0.00000000E+00	 1.62559000E-03
					 3.97724000E-02	 0.00000000E+00	 2.79221000E-03
					 3.86291000E-02	 0.00000000E+00	 1.70446000E-03
					 3.86170000E-02	 0.00000000E+00	 2.82441000E-03
					 3.86291000E-02	 0.00000000E+00	 1.70446000E-03
					 3.86170000E-02	 0.00000000E+00	 2.82441000E-03
					 0.00000000E+00	 0.00000000E+00	 0.00000000E+00
					 2.38541000E-03	 0.00000000E+00	 2.58808000E-03
					 0.00000000E+00	 0.00000000E+00	 0.00000000E+00
					 2.38541000E-03	 0.00000000E+00	 2.58808000E-03
					 6.43591000E-03	 0.00000000E+00	 4.35610000E-03
					 6.43591000E-03	 0.00000000E+00	 4.35610000E-03
					 1.17733000E-02	 0.00000000E+00	 5.35136000E-03
					 1.17733000E-02	 0.00000000E+00	 5.35136000E-03
					 1.77317000E-02	 0.00000000E+00	 5.72862000E-03
					 1.77317000E-02	 0.00000000E+00	 5.72862000E-03
					 2.38062000E-02	 0.00000000E+00	 5.63419000E-03
					 2.38062000E-02	 0.00000000E+00	 5.63419000E-03
					 2.95878000E-02	 0.00000000E+00	 5.21100000E-03
					 2.95878000E-02	 0.00000000E+00	 5.21100000E-03
					 3.47488000E-02	 0.00000000E+00	 4.56955000E-03
					 3.47488000E-02	 0.00000000E+00	 4.56955000E-03
					 3.91290000E-02	 0.00000000E+00	 3.79020000E-03
					 3.91290000E-02	 0.00000000E+00	 3.79020000E-03
					 4.25974000E-02	 0.00000000E+00	 2.96291000E-03
					 4.25974000E-02	 0.00000000E+00	 2.96291000E-03
					 4.50524000E-02	 0.00000000E+00	 2.15610000E-03
					 4.50524000E-02	 0.00000000E+00	 2.15610000E-03
					 4.64669000E-02	 0.00000000E+00	 1.42168000E-03
					 4.64669000E-02	 0.00000000E+00	 1.42168000E-03
					 4.69374000E-02	 0.00000000E+00	 8.21308000E-04
					 4.69374000E-02	 0.00000000E+00	 8.21308000E-04
					 4.66418000E-02	 0.00000000E+00	 3.90859000E-04
					 4.66418000E-02	 0.00000000E+00	 3.90859000E-04
					 4.58489000E-02	 0.00000000E+00	 1.37192000E-04
					 4.58489000E-02	 0.00000000E+00	 1.37192000E-04
					 4.47667000E-02	 0.00000000E+00	 3.56953000E-05
					 4.47667000E-02	 0.00000000E+00	 3.56953000E-05
					 4.35705000E-02	 0.00000000E+00	 5.89136000E-05
					 4.35705000E-02	 0.00000000E+00	 5.89136000E-05
					 4.23263000E-02	 0.00000000E+00	 1.64680000E-04
					 4.23263000E-02	 0.00000000E+00	 1.64680000E-04
					 4.10874000E-02	 0.00000000E+00	 3.01156000E-04
					 4.10874000E-02	 0.00000000E+00	 3.01156000E-04
					 3.98620000E-02	 0.00000000E+00	 4.29950000E-04
					 3.98620000E-02	 0.00000000E+00	 4.29950000E-04
					 3.86582000E-02	 0.00000000E+00	 4.96929000E-04
					 3.86582000E-02	 0.00000000E+00	 4.96929000E-04
				</DataArray>
				<DataArray type="Float32" Name="S" NumberOfComponents="10" ComponentName0="xx" ComponentName1="yy" ComponentName2="zz" ComponentName3="xy" ComponentName4="yz" ComponentName5="zx" ComponentName6="Mises" ComponentName7="Min Principal" ComponentName8="Mid Principal" ComponentName9="Max Principal" format="ascii">
					-1.41576000E+03	-1.56537000E+03	-5.81502000E+03	 0.00000000E+00	 0.00000000E+00	 1.84568000E+03	 5.37934033E+03	-6.48678457E+03	-1.56537000E+03	-7.43995426E+02
					 2.32910000E+02	 1.14587000E+02	 3.31890000E+02	 0.00000000E+00	 0.00000000E+00	 1.88970000E+03	 3.27847636E+03	-1.60794794E+03	 1.14587000E+02	 2.17274794E+03
					 1.25191000E+01	 7.88934000E+01	 3.48340000E+02	 5.95503000E-08	 3.75249000E-09	 5.50517000E+02	 1.00204703E+03	-3.95124867E+02	 7.88934000E+01	 7.55983967E+02
					-4.79326000E+02	-1.09991000E+03	-4.70638000E+03	 4.99222000E-08	-1.72377000E-08	 3.56452000E+02	 4.00138002E+03	-4.73622754E+03	-1.09991000E+03	-4.49478462E+02
					-1.41576000E+03	-1.56537000E+03	-5.81502000E+03	 0.00000000E+00	 0.00000000E+00	 1.84568000E+03	 5.37934033E+03	-6.48678457E+03	-1.56537000E+03	-7.43995426E+02
					 2.32910000E+02	 1.14587000E+02	 3.31890000E+02	 0.00000000E+00	 0.00000000E+00	 1.88970000E+03	 3.27847636E+03	-1.60794794E+03	 1.14587000E+02	 2.17274794E+03
					 1.25191000E+01	 7.88934000E+01	 3.48340000E+02	 5.95502000E-08	 3.75247000E-09	 5.50517000E+02	 1.00204703E+03	-3.95124867E+02	 7.88934000E+01	 7.55983967E+02
					-4.79326000E+02	-1.09991000E+03	-4.70638000E+03	 4.99223000E-08	-1.72377000E-08	 3.56452000E+02	 4.00138002E+03	-4.73622754E+03	-1.09991000E+03	-4.49478462E+02
					 6.04239000E+01	 1.09200000E+02	 4.70780000E+02	 5.16137000E-08	 0.00000000E+00	 5.70214000E+02	 1.06121990E+03	-3.40403032E+02	 1.09200000E+02	 8.71606932E+02
					-4.45267000E+02	-7.02930000E+02	-2.94807000E+03	 7.09142000E-08	-2.03741000E-08	 1.85340000E+02	 2.40594807E+03	-2.96172053E+03	-7.02930000E+02	-4.31616473E+02
					 6.04239000E+01	 1.09200000E+02	 4.70780000E+02	 5.16135000E-08	 0.00000000E+00	 5.70214000E+02	 1.06121990E+03	-3.40403032E+02	 1.09200000E+02	 8.71606932E+02
					-4.45267000E+02	-7.02930000E+02	-2.94807000E+03	 7.09141000E-08	-2.03742000E-08	 1.85340000E+02	 2.40594807E+03	-2.96172053E+03	-7.02930000E+02	-4.31616473E+02
					 9.45522000E+01	 1.22031000E+02	 5.18814000E+02	 1.10004000E-07	-1.27693000E-08	 4.79800000E+02	 9.27210372E+02	-2.17919186E+02	 1.22031000E+02	 8.31285386E+02
					-1.40223000E+02	-2.98583000E+02	-1.32563000E+03	 1.19971000E-07	-2.32116000E-08	 2.36128000E+02	 1.18735668E+03	-1.37093424E+03	-2.98583000E+02	-9.49187639E+01
					 9.45522000E+01	 1.22031000E+02	 5.18814000E+02	 1.10004000E-07	-1.27693000E-08	 4.79800000E+02	 9.27210372E+02	-2.17919186E+02	 1.22031000E+02	 8.31285386E+02
					-1.40223000E+02	-2.98583000E+02	-1.32563000E+03	 1.19970000E-07	-2.32116000E-08	 2.36128000E+02	 1.18735668E+03	-1.37093424E+03	-2.98583000E+02	-9.49187639E+01
					 9.01274000E+01	 1.27263000E+02	 5.55265000E+02	 8.06251000E-08	-1.05148000E-09	 4.16309000E+02	 8.48762880E+02	-1.54170060E+02	 1.27263000E+02	 7.99562460E+02
					 3.25576000E+01	 1.34441000E+00	-1.92991000E+01	 1.06105000E-07	-2.89358000E-09	 2.92145000E+02	 5.08026447E+02	-2.86664085E+02	 1.34441000E+00	 2.99922585E+02
					 9.01274000E+01	 1.27263000E+02	 5.55265000E+02	 8.06255000E-08	-1.05151000E-09	 4.16309000E+02	 8.48762880E+02	-1.54170060E+02	 1.27263000E+02	 7.99562460E+02
					 3.25576000E+01	 1.34441000E+00	-1.92991000E+01	 1.06105000E-07	-2.89352000E-09	 2.92145000E+02	 5.08026447E+02	-2.86664085E+02	 1.34441000E+00	 2.99922585E+02
					 5.64918000E+01	 1.28313000E+02	 5.94361000E+02	 1.07029000E-07	 4.04709000E-09	 3.49921000E+02	 7.89408176E+02	-1.15901738E+02	 1.28313000E+02	 7.66754538E+02
					 1.44972000E+02	 2.35551000E+02	 1.05655000E+03	 1.36149000E-07	 4.22881000E-09	 3.46096000E+02	 1.05638843E+03	 2.84620801E+01	 2.35551000E+02	 1.17305992E+03
					 5.64918000E+01	 1.28313000E+02	 5.94361000E+02	 1.07030000E-07	 4.04707000E-09	 3.49921000E+02	 7.89408176E+02	-1.15901738E+02	 1.28313000E+02	 7.66754538E+02
					 1.44972000E+02	 2.35551000E+02	 1.05655000E+03	 1.36148000E-07	 4.22857000E-09	 3.46096000E+02	 1.05638843E+03	 2.84620801E+01	 2.35551000E+02	 1.17305992E+03
					 3.07717000E+01	 1.25141000E+02	 6.00837000E+02	 1.03812000E-07	-4.62786000E-09	 2.76092000E+02	 7.13276752E+02	-8.10210575E+01	 1.25141000E+02	 7.12629757E+02
					 2.48138000E+02	 4.19776000E+02	 1.90759000E+03	 8.07770000E-08	 2.10310000E-08	 3.63000000E+02	 1.70109451E+03	 1.72207202E+02	 4.19776000E+02	 1.98352080E+03
					 3.07717000E+01	 1.25141000E+02	 6.00837000E+02	 1.03812000E-07	-4.62781000E-09	 2.76092000E+02	 7.13276752E+02	-8.10210575E+01	 1.25141000E+02	 7.12629757E+02
					 2.48138000E+02	 4.19776000E+02	 1.90759000E+03	 8.07764000E-08	 2.10310000E-08	 3.63000000E+02	 1.70109451E+03	 1.72207202E+02	 4.19776000E+02	 1.98352080E+03
					 3.14611000E+01	 1.17540000E+02	 5.56892000E+02	 5.61794000E-08	-1.08676000E-08	 1.96966000E+02	 5.95521208E+02	-3.41754149E+01	 1.17540000E+02	 6.22528515E+02
					 3.22599000E+02	 5.45512000E+02	 2.49313000E+03	 4.99070000E-08	 2.81698000E-08	 3.34338000E+02	 2.14765015E+03	 2.72266374E+02	 5.45512000E+02	 2.54346263E+03
					 3.14611000E+01	 1.17540000E+02	 5.56892000E+02	 5.61799000E-08	-1.08675000E-08	 1.96966000E+02	 5.95521208E+02	-3.41754149E+01	 1.17540000E+02	 6.22528515E+02
					 3.22599000E+02	 5.45512000E+02	 2.49313000E+03	 4.99076000E-08	 2.81698000E-08	 3.34338000E+02	 2.14765015E+03	 2.72266374E+02	 5.45512000E+02	 2.54346263E+03
					 9.71775000E+00	 1.08705000E+02	 5.30127000E+02	 3.39581000E-08	-4.77754000E-09	 1.33348000E+02	 5.31465380E+02	-2.24611676E+01	 1.08705000E+02	 5.62305918E+02
					 3.53548000E+02	 6.23791000E+02	 2.87796000E+03	 2.18482000E-08	 2.82115000E-08	 2.76745000E+02	 2.44811069E+03	 3.23565244E+02	 6.23791000E+02	 2.90794276E+03
					 9.71775000E+00	 1.08705000E+02	 5.30127000E+02	 3.39578000E-08	-4.77761000E-09	 1.33348000E+02	 5.31465380E+02	-2.24611676E+01	 1.08705000E+02	 5.62305918E+02
					 3.53548000E+02	 6.23791000E+02	 2.87796000E+03	 2.18474000E-08	 2.82115000E-08	 2.76745000E+02	 2.44811069E+03	 3.23565244E+02	 6.23791000E+02	 2.90794276E+03
					-1.30499000E+01	 1.09639000E+02	 5.56217000E+02	 1.96275000E-08	 2.83610000E-09	 7.44504000E+01	 5.34699192E+02	-2.26256662E+01	 1.09639000E+02	 5.65792766E+02
					 3.50154000E+02	 6.71054000E+02	 3.13607000E+03	 3.76003000E-08	 1.86258000E-09	 2.01009000E+02	 2.66299046E+03	 3.35725554E+02	 6.71054000E+02	 3.15049845E+03
					-1.30499000E+01	 1.09639000E+02	 5.56217000E+02	 1.96271000E-08	 2.83610000E-09	 7.44504000E+01	 5.34699192E+02	-2.26256662E+01	 1.09639000E+02	 5.65792766E+02
					 3.50154000E+02	 6.71054000E+02	 3.13607000E+03	 3.75997000E-08	 1.86256000E-09	 2.01009000E+02	 2.66299046E+03	 3.35725554E+02	 6.71054000E+02	 3.15049845E+03
					-9.96837000E+00	 1.14798000E+02	 5.79236000E+02	 7.51710000E-08	-5.83883000E-09	 9.83462000E-03	 5.37787641E+02	-9.96837016E+00	 1.14798000E+02	 5.79236000E+02
					 3.65077000E+02	 6.85539000E+02	 3.19840000E+03	 3.23197000E-08	-1.40930000E-08	 9.48702000E+01	 2.69247912E+03	 3.61903946E+02	 6.85539000E+02	 3.20157305E+03
					-9.96837000E+00	 1.14798000E+02	 5.79236000E+02	 7.51716000E-08	-5.83882000E-09	 9.83463000E-03	 5.37787641E+02	-9.96837016E+00	 1.14798000E+02	 5.79236000E+02
					 3.65077000E+02	 6.85539000E+02	 3.19840000E+03	 3.23195000E-08	-1.40930000E-08	 9.48702000E+01	 2.69247912E+03	 3.61903946E+02	 6.85539000E+02	 3.20157305E+03
					-1.90496000E+01	 1.11173000E+02	 5.71915000E+02	 2.36631000E-08	-1.23743000E-08	-7.83630000E+01	 5.54673252E+02	-2.92641259E+01	 1.11173000E+02	 5.82129526E+02
					 3.12533000E+02	 6.29557000E+02	 2.95183000E+03	 2.30847000E-08	 0.00000000E+00	-2.11647000E+01	 2.49620035E+03	 3.12363290E+02	 6.29557000E+02	 2.95199971E+03
					-1.90496000E+01	 1.11173000E+02	 5.71915000E+02	 2.36628000E-08	-1.23744000E-08	-7.83630000E+01	 5.54673252E+02	-2.92641259E+01	 1.11173000E+02	 5.82129526E+02
					 3.12533000E+02	 6.29557000E+02	 2.95183000E+03	 2.30843000E-08	 0.00000000E+00	-2.11647000E+01	 2.49620035E+03	 3.12363290E+02	 6.29557000E+02	 2.95199971E+03
					-2.97510000E+01	 9.83519000E+01	 5.20282000E+02	-1.34127000E-08	 1.05838000E-08	-1.35343000E+02	 5.50852988E+02	-6.12500835E+01	 9.83519000E+01	 5.51781083E+02
					 2.51081000E+02	 5.23087000E+02	 2.44624000E+03	-2.17638000E-08	-8.14809000E-09	-1.04487000E+02	 2.08047266E+03	 2.46118758E+02	 5.23087000E+02	 2.45120224E+03
					-2.97510000E+01	 9.83519000E+01	 5.20282000E+02	-1.34077000E-08	 1.05838000E-08	-1.35343000E+02	 5.50852988E+02	-6.12500835E+01	 9.83519000E+01	 5.51781083E+02
					 2.51081000E+02	 5.23087000E+02	 2.44624000E+03	-2.17627000E-08	-8.14805000E-09	-1.04487000E+02	 2.08047266E+03	 2.46118758E+02	 5.23087000E+02	 2.45120224E+03
					-9.38118000E+00	 8.50762000E+01	 4.34747000E+02	 2.01493000E-08	 2.81826000E-08	-1.51257000E+02	 4.82552477E+02	-5.60011798E+01	 8.50762000E+01	 4.81367000E+02
					 2.08645000E+02	 3.98764000E+02	 1.83228000E+03	 3.25308000E-08	-8.04872000E-09	-1.29766000E+02	 1.55375984E+03	 1.98339110E+02	 3.98764000E+02	 1.84258589E+03
					-9.38118000E+00	 8.50762000E+01	 4.34747000E+02	 2.01466000E-08	 2.81826000E-08	-1.51257000E+02	 4.82552477E+02	-5.60011798E+01	 8.50762000E+01	 4.81367000E+02
					 2.08645000E+02	 3.98764000E+02	 1.83228000E+03	 3.25278000E-08	-8.04880000E-09	-1.29766000E+02	 1.55375984E+03	 1.98339110E+02	 3.98764000E+02	 1.84258589E+03
					 1.18918000E+01	 7.61913000E+01	 3.69994000E+02	 2.70093000E-08	 1.15824000E-08	-1.34315000E+02	 4.04310990E+02	-3.28869810E+01	 7.61913000E+01	 4.14772781E+02
					 1.83313000E+02	 2.86145000E+02	 1.27083000E+03	 4.71175000E-08	 1.61814000E-08	-1.19346000E+02	 1.06026718E+03	 1.70369808E+02	 2.86145000E+02	 1.28377319E+03
					 1.18918000E+01	 7.61913000E+01	 3.69994000E+02	 2.70113000E-08	 1.15824000E-08	-1.34315000E+02	 4.04310990E+02	-3.28869810E+01	 7.61913000E+01	 4.14772781E+02
					 1.83313000E+02	 2.86145000E+02	 1.27083000E+03	 4.71148000E-08	 1.61814000E-08	-1.19346000E+02	 1.06026718E+03	 1.70369808E+02	 2.86145000E+02	 1.28377319E+03
					 1.09967000E+01	 7.30042000E+01	 3.55740000E+02	-2.05539000E-08	-8.04461000E-09	-1.03546000E+02	 3.65351235E+02	-1.77131256E+01	 7.30042000E+01	 3.84449826E+02
					 1.17873000E+02	 1.90876000E+02	 8.47288000E+02	 0.00000000E+00	 1.62087000E-08	-9.85687000E+01	 7.16431129E+02	 1.04787767E+02	 1.90876000E+02	 8.60373233E+02
					 1.09967000E+01	 7.30042000E+01	 3.55740000E+02	-2.05547000E-08	-8.04466000E-09	-1.03546000E+02	 3.65351235E+02	-1.77131256E+01	 7.30042000E+01	 3.84449826E+02
					 1.17873000E+02	 1.90876000E+02	 8.47288000E+02	 0.00000000E+00	 1.62089000E-08	-9.85687000E+01	 7.16431129E+02	 1.04787767E+02	 1.90876000E+02	 8.60373233E+02
					-2.37251000E+01	 7.01040000E+01	 3.76628000E+02	-4.47070000E-08	-1.39421000E-08	-7.15803000E+01	 3.83266163E+02	-3.61382735E+01	 7.01040000E+01	 3.89041173E+02
					 4.46446000E+01	 1.22953000E+02	 5.75323000E+02	-4.84931000E-08	-1.41045000E-08	-6.54203000E+01	 5.08954458E+02	 3.66987717E+01	 1.22953000E+02	 5.83268828E+02
					-2.37251000E+01	 7.01040000E+01	 3.76628000E+02	-4.47072000E-08	-1.39422000E-08	-7.15803000E+01	 3.83266163E+02	-3.61382735E+01	 7.01040000E+01	 3.89041173E+02
					 4.46446000E+01	 1.22953000E+02	 5.75323000E+02	-4.84947000E-08	-1.41045000E-08	-6.54203000E+01	 5.08954458E+02	 3.66987717E+01	 1.22953000E+02	 5.83268828E+02
					-4.15392000E+01	 6.87045000E+01	 3.87681000E+02	-2.51818000E-08	 1.10116000E-09	-4.42591000E+01	 3.93626008E+02	-4.60554630E+01	 6.87045000E+01	 3.92197263E+02
					-4.23773000E+00	 8.00449000E+01	 4.07210000E+02	-4.78274000E-08	-5.59990000E-08	-3.46909000E+01	 3.81215523E+02	-7.14216407E+00	 8.00449000E+01	 4.10114434E+02
					-4.15392000E+01	 6.87045000E+01	 3.87681000E+02	-2.51819000E-08	 1.10112000E-09	-4.42591000E+01	 3.93626008E+02	-4.60554630E+01	 6.87045000E+01	 3.92197263E+02
					-4.23773000E+00	 8.00449000E+01	 4.07210000E+02	-4.78299000E-08	-5.59989000E-08	-3.46909000E+01	 3.81215523E+02	-7.14216407E+00	 8.00449000E+01	 4.10114434E+02
					-3.51795000E+01	 6.23566000E+01	 3.49091000E+02	 2.15484000E-08	 1.09865000E-09	-2.23039000E+01	 3.48122470E+02	-3.64697350E+01	 6.23566000E+01	 3.50381235E+02
					-7.14790000E-01	 5.92367000E+01	 2.98356000E+02	 4.62067000E-08	-1.01645000E-07	-1.39535000E+01	 2.75121572E+02	-1.36439598E+00	 5.92367000E+01	 2.99005606E+02
					-3.51795000E+01	 6.23566000E+01	 3.49091000E+02	 2.15492000E-08	 1.09869000E-09	-2.23039000E+01	 3.48122470E+02	-3.64697350E+01	 6.23566000E+01	 3.50381235E+02
					-7.14790000E-01	 5.92367000E+01	 2.98356000E+02	 4.62089000E-08	-1.01645000E-07	-1.39535000E+01	 2.75121572E+02	-1.36439598E+00	 5.92367000E+01	 2.99005606E+02
					-7.97328000E+00	 5.33006000E+01	 2.75752000E+02	 1.11300000E-07	-6.22622000E-09	-9.90869000E+00	 2.59160415E+02	-8.31890546E+00	 5.33006000E+01	 2.76097625E+02
					 7.14822000E+00	 3.79884000E+01	 1.83365000E+02	 1.33443000E-07	-1.25891000E-07	-6.82180000E+00	 1.63427427E+02	 6.88452536E+00	 3.79884000E+01	 1.83628695E+02
					-7.97328000E+00	 5.33006000E+01	 2.75752000E+02	 1.11297000E-07	-6.22624000E-09	-9.90869000E+00	 2.59160415E+02	-8.31890546E+00	 5.33006000E+01	 2.76097625E+02
					 7.14822000E+00	 3.79884000E+01	 1.83365000E+02	 1.33446000E-07	-1.25890000E-07	-6.82180000E+00	 1.63427427E+02	 6.88452536E+00	 3.79884000E+01	 1.83628695E+02
					 4.33381000E+01	 5.69950000E+01	 2.42563000E+02	 2.66949000E-07	 3.28167000E-09	-1.10949000E+01	 1.93715171E+02	 4.27221259E+01	 5.69950000E+01	 2.43178974E+02
					 3.32780000E+01	 3.06685000E+01	 1.20274000E+02	 2.34952000E-07	-1.30388000E-07	-3.64485000E+01	 1.08570756E+02	 2.00259414E+01	 3.06685000E+01	 1.33526059E+02
					 4.33381000E+01	 5.69950000E+01	 2.42563000E+02	 2.66954000E-07	 3.28162000E-09	-1.10949000E+01	 1.93715171E+02	 4.27221259E+01	 5.69950000E+01	 2.43178974E+02
					 3.32780000E+01	 3.06685000E+01	 1.20274000E+02	 2.34945000E-07	-1.30388000E-07	-3.64485000E+01	 1.08570756E+02	 2.00259414E+01	 3.06685000E+01	 1.33526059E+02
					 1.92600000E+03	 1.71854000E+03	 7.47168000E+03	 0.00000000E+00	 0.00000000E+00	 2.70625000E+03	 7.34298851E+03	 8.24252186E+02	 1.71854000E+03	 8.57342781E+03
					 4.68548000E+02	 1.21772000E+03	 6.09098000E+03	 4.22096000E-08	 8.22724000E-09	 9.61827000E+02	 5.54402067E+03	 3.08561116E+02	 1.21772000E+03	 6.25096688E+03
					 1.92600000E+03	 1.71854000E+03	 7.47168000E+03	 0.00000000E+00	 0.00000000E+00	 2.70625000E+03	 7.34298851E+03	 8.24252186E+02	 1.71854000E+03	 8.57342781E+03