<?xml version="1.0"?>
<VTKFile type="UnstructuredGrid" version="0.1" byte_order="LittleEndian">
	<UnstructuredGrid>
		<Piece NumberOfPoints="126" NumberOfCells="40">
			<Points>
				<DataArray type="Float64" NumberOfComponents="3" format="ascii">
					 5.00000000E-02	 0.00000000E+00	 0.00000000E+00
					 0.00000000E+00	 0.00000000E+00	 0.00000000E+00
					 0.00000000E+00	 0.00000000E+00	 5.00000000E-02
					 5.00000000E-02	 0.00000000E+00	 5.00000000E-02
					 5.00000000E-02	 3.00000000E-01	 0.00000000E+00
					 0.00000000E+00	 3.00000000E-01	 0.00000000E+00
					 0.00000000E+00	 3.00000000E-01	 5.00000000E-02
					 5.00000000E-02	 3.00000000E-01	 5.00000000E-02
					 0.00000000E+00	 0.00000000E+00	 1.00000000E-01
					 5.00000000E-02	 0.00000000E+00	 1.00000000E-01
					 0.00000000E+00	 3.00000000E-01	 1.00000000E-01
					 5.00000000E-02	 3.00000000E-01	 1.00000000E-01
					 0.00000000E+00	 0.00000000E+00	 1.50000000E-01
					 5.00000000E-02	 0.00000000E+00	 1.50000000E-01
					 0.00000000E+00	 3.00000000E-01	 1.50000000E-01
					 5.00000000E-02	 3.00000000E-01	 1.50000000E-01
					 0.00000000E+00	 0.00000000E+00	 2.00000000E-01
					 5.00000000E-02	 0.00000000E+00	 2.00000000E-01
					 0.00000000E+00	 3.00000000E-01	 2.00000000E-01
					 5.00000000E-02	 3.00000000E-01	 2.00000000E-01
					 0.00000000E+00	 0.00000000E+00	 2.50000000E-01
					 5.00000000E-02	 0.00000000E+00	 2.50000000E-01
					 0.00000000E+00	 3.00000000E-01	 2.50000000E-01
					 5.00000000E-02	 3.00000000E-01	 2.50000000E-01
					 0.00000000E+00	 0.00000000E+00	 3.00000000E-01
					 5.00000000E-02	 0.00000000E+00	 3.00000000E-01
					 0.00000000E+00	 3.00000000E-01	 3.00000000E-01
					 5.00000000E-02	 3.00000000E-01	 3.00000000E-01
					 0.00000000E+00	 0.00000000E+00	 3.50000000E-01
					 5.00000000E-02	 0.00000000E+00	 3.50000000E-01
					 0.00000000E+00	 3.00000000E-01	 3.50000000E-01
					 5.00000000E-02	 3.00000000E-01	 3.50000000E-01
					 0.00000000E+00	 0.00000000E+00	 4.00000000E-01
					 5.00000000E-02	 0.00000000E+00	 4.00000000E-01
					 0.00000000E+00	 3.00000000E-01	 4.00000000E-01
					 5.00000000E-02	 3.00000000E-01	 4.00000000E-01
					 0.00000000E+00	 0.00000000E+00	 4.50000000E-01
					 5.00000000E-02	 0.00000000E+00	 4.50000000E-01
					 0.00000000E+00	 3.00000000E-01	 4.50000000E-01
					 5.00000000E-02	 3.00000000E-01	 4.50000000E-01
					 0.00000000E+00	 0.00000000E+00	 5.00000000E-01
					 5.00000000E-02	 0.00000000E+00	 5.00000000E-01
					 0.00000000E+00	 3.00000000E-01	 5.00000000E-01
					 5.00000000E-02	 3.00000000E-01	 5.00000000E-01
					 0.00000000E+00	 0.00000000E+00	 5.50000000E-01
					 5.00000000E-02	 0.00000000E+00	 5.50000000E-01
					 0.00000000E+00	 3.00000000E-01	 5.50000000E-01
					 5.00000000E-02	 3.00000000E-01	 5.50000000E-01
					 0.00000000E+00	 0.00000000E+00	 6.00000000E-01
					 5.00000000E-02	 0.00000000E+00	 6.00000000E-01
					 0.00000000E+00	 3.00000000E-01	 6.00000000E-01
					 5.00000000E-02	 3.00000000E-01	 6.00000000E-01
					 0.00000000E+00	 0.00000000E+00	 6.50000000E-01
					 5.00000000E-02	 0.00000000E+00	 6.50000000E-01
					 0.00000000E+00	 3.00000000E-01	 6.50000000E-01
					 5.00000000E-02	 3.00000000E-01	 6.50000000E-01
					 0.00000000E+00	 0.00000000E+00	 7.00000000E-01
					 5.00000000E-02	 0.00000000E+00	 7.00000000E-01
					 0.00000000E+00	 3.00000000E-01	 7.00000000E-01
					 5.00000000E-02	 3.00000000E-01	 7.00000000E-01
					 0.00000000E+00	 0.00000000E+00	 7.50000000E-01
					 5.00000000E-02	 0.00000000E+00	 7.50000000E-01
					 0.00000000E+00	 3.00000000E-01	 7.50000000E-01
					 5.00000000E-02	 3.00000000E-01	 7.50000000E-01
					 0.00000000E+00	 0.00000000E+00	 8.00000000E-01
					 5.00000000E-02	 0.00000000E+00	 8.00000000E-01
					 0.00000000E+00	 3.00000000E-01	 8.00000000E-01
					 5.00000000E-02	 3.00000000E-01	 8.00000000E-01
					 0.00000000E+00	 0.00000000E+00	 8.50000000E-01
					 5.00000000E-02	 0.00000000E+00	 8.50000000E-01
					 0.00000000E+00	 3.00000000E-01	 8.50000000E-01
					 5.00000000E-02	 3.00000000E-01	 8.50000000E-01
					 0.00000000E+00	 0.00000000E+00	 9.00000000E-01
					 5.00000000E-02	 0.00000000E+00	 9.00000000E-01
					 0.00000000E+00	 3.00000000E-01	 9.00000000E-01
					 5.00000000E-02	 3.00000000E-01	 9.00000000E-01
					 0.00000000E+00	 0.00000000E+00	 9.50000000E-01
					 5.00000000E-02	 0.00000000E+00	 9.50000000E-01
					 0.00000000E+00	 3.00000000E-01	 9.50000000E-01
					 5.00000000E-02	 3.00000000E-01	 9.50000000E-01
					 0.00000000E+00	 0.00000000E+00	 1.00000000E+00
					 5.00000000E-02	 0.00000000E+00	 1.00000000E+00
					 0.00000000E+00	 3.00000000E-01	 1.00000000E+00
					 5.00000000E-02	 3.00000000E-01	 1.00000000E+00
					-5.00000000E-02	 0.00000000E+00	 0.00000000E+00
					-5.00000000E-02	 0.00000000E+00	 5.00000000E-02
					-5.00000000E-02	 3.00000000E-01	 0.00000000E+00
					-5.00000000E-02	 3.00000000E-01	 5.00000000E-02
					-5.00000000E-02	 0.00000000E+00	 1.00000000E-01
					-5.00000000E-02	 3.00000000E-01	 1.00000000E-01
					-5.00000000E-02	 0.00000000E+00	 1.50000000E-01
					-5.00000000E-02	 3.00000000E-01	 1.50000000E-01
					-5.00000000E-02	 0.00000000E+00	 2.00000000E-01
					-5.00000000E-02	 3.00000000E-01	 2.00000000E-01
					-5.00000000E-02	 0.00000000E+00	 2.50000000E-01
					-5.00000000E-02	 3.00000000E-01	 2.50000000E-01
					-5.00000000E-02	 0.00000000E+00	 3.00000000E-01
					-5.00000000E-02	 3.00000000E-01	 3.00000000E-01
					-5.00000000E-02	 0.00000000E+00	 3.50000000E-01
					-5.00000000E-02	 3.00000000E-01	 3.50000000E-01
					-5.00000000E-02	 0.00000000E+00	 4.00000000E-01
					-5.00000000E-02	 3.00000000E-01	 4.00000000E-01
					-5.00000000E-02	 0.00000000E+00	 4.50000000E-01
					-5.00000000E-02	 3.00000000E-01	 4.50000000E-01
					-5.00000000E-02	 0.00000000E+00	 5.00000000E-01
					-5.00000000E-02	 3.00000000E-01	 5.00000000E-01
					-5.00000000E-02	 0.00000000E+00	 5.50000000E-01
					-5.00000000E-02	 3.00000000E-01	 5.50000000E-01
					-5.00000000E-02	 0.00000000E+00	 6.00000000E-01
					-5.00000000E-02	 3.00000000E-01	 6.00000000E-01
					-5.00000000E-02	 0.00000000E+00	 6.50000000E-01
					-5.00000000E-02	 3.00000000E-01	 6.50000000E-01
					-5.00000000E-02	 0.00000000E+00	 7.00000000E-01
					-5.00000000E-02	 3.00000000E-01	 7.00000000E-01
					-5.00000000E-02	 0.00000000E+00	 7.50000000E-01
					-5.00000000E-02	 3.00000000E-01	 7.50000000E-01
					-5.00000000E-02	 0.00000000E+00	 8.00000000E-01
					-5.00000000E-02	 3.00000000E-01	 8.00000000E-01
					-5.00000000E-02	 0.00000000E+00	 8.50000000E-01
					-5.00000000E-02	 3.00000000E-01	 8.50000000E-01
					-5.00000000E-02	 0.00000000E+00	 9.00000000E-01
					-5.00000000E-02	 3.00000000E-01	 9.00000000E-01
					-5.00000000E-02	 0.00000000E+00	 9.50000000E-01
					-5.00000000E-02	 3.00000000E-01	 9.50000000E-01
					-5.00000000E-02	 0.00000000E+00	 1.00000000E+00
					-5.00000000E-02	 3.00000000E-01	 1.00000000E+00

				</DataArray>
			</Points>
			<Cells>
				<DataArray type="Int32" Name="connectivity" format="ascii">
					0 1 2 3 4 5 6 7 3 2 8 9 7 6 10 11 9 8 12 13 11 10 14 15 13 12 16 17 15 14 18 19 17 16 20 21 19 18 22 23 21 20 24 25 23 22 26 27 25 24 28 29 27 26 30 31 29 28 32 33 31 30 34 35 33 32 36 37 35 34 38 39 37 36 40 41 39 38 42 43 41 40 44 45 43 42 46 47 45 44 48 49 47 46 50 51 49 48 52 53 51 50 54 55 53 52 56 57 55 54 58 59 57 56 60 61 59 58 62 63 61 60 64 65 63 62 66 67 65 64 68 69 67 66 70 71 69 68 72 73 71 70 74 75 73 72 76 77 75 74 78 79 77 76 80 81 79 78 82 83 1 84 85 2 5 86 87 6 2 85 88 8 6 87 89 10 8 88 90 12 10 89 91 14 12 90 92 16 14 91 93 18 16 92 94 20 18 93 95 22 20 94 96 24 22 95 97 26 24 96 98 28 26 97 99 30 28 98 100 32 30 99 101 34 32 100 102 36 34 101 103 38 36 102 104 40 38 103 105 42 40 104 106 44 42 105 107 46 44 106 108 48 46 107 109 50 48 108 110 52 50 109 111 54 52 110 112 56 54 111 113 58 56 112 114 60 58 113 115 62 60 114 116 64 62 115 117 66 64 116 118 68 66 117 119 70 68 118 120 72 70 119 121 74 72 120 122 76 74 121 123 78 76 122 124 80 78 123 125 82 
				</DataArray>
				<DataArray type="Int32" Name="offsets" format="ascii">
					8 16 24 32 40 48 56 64 72 80 88 96 104 112 120 128 136 144 152 160 168 176 184 192 200 208 216 224 232 240 248 256 264 272 280 288 296 304 312 320 
				</DataArray>
				<DataArray type="UInt8" Name="types" format="ascii">
					12 12 12 12 12 12 12 12 12 12 12 12 12 12 12 12 12 12 12 12 12 12 12 12 12 12 12 12 12 12 12 12 12 12 12 12 12 12 12 12 
				</DataArray>
			</Cells>
			<PointData>
				<DataArray type="Float32" Name="U" NumberOfComponents="3" ComponentName0="D1" ComponentName1="D2" ComponentName2="D3" format="ascii">
					 0.00000000E+00	 0.00000000E+00	 0.00000000E+00
					 0.00000000E+00	 0.00000000E+00	 0.00000000E+00
					 5.79402000E-04	 0.00000000E+00	-3.82036000E-07
					 6.41380000E-04	 0.00000000E+00	-4.58691000E-04
					 0.00000000E+00	 0.00000000E+00	 0.00000000E+00
					 0.00000000E+00	 0.00000000E+00	 0.00000000E+00
					 5.79402000E-04	 0.00000000E+00	-3.82036000E-07
					 6.41380000E-04	 0.00000000E+00	-4.58691000E-04
					 1.39489000E-03	 0.00000000E+00	 8.88456000E-07
					 1.39867000E-03	 0.00000000E+00	-5.88421000E-04
					 1.39489000E-03	 0.00000000E+00	 8.88456000E-07
					 1.39867000E-03	 0.00000000E+00	-5.88421000E-04
					 2.08700000E-03	 0.00000000E+00	 6.12682000E-07
					 2.07654000E-03	 0.00000000E+00	-4.97993000E-04
					 2.08700000E-03	 0.00000000E+00	 6.12681000E-07
					 2.07654000E-03	 0.00000000E+00	-4.97993000E-04
					 2.54090000E-03	 0.00000000E+00	 5.32331000E-06
					 2.52537000E-03	 0.00000000E+00	-3.08299000E-04
					 2.54090000E-03	 0.00000000E+00	 5.32331000E-06
					 2.52537000E-03	 0.00000000E+00	-3.08299000E-04
					 2.73423000E-03	 0.00000000E+00	 1.43322000E-05
					 2.72368000E-03	 0.00000000E+00	-1.19290000E-04
					 2.73423000E-03	 0.00000000E+00	 1.43322000E-05
					 2.72368000E-03	 0.00000000E+00	-1.19290000E-04
					 2.73428000E-03	 0.00000000E+00	 2.41434000E-05
					 2.74045000E-03	 0.00000000E+00	 1.24668000E-06
					 2.73428000E-03	 0.00000000E+00	 2.41434000E-05
					 2.74045000E-03	 0.00000000E+00	 1.24668000E-06
					 2.67319000E-03	 0.00000000E+00	 3.93811000E-05
					 2.68279000E-03	 0.00000000E+00	 3.89600000E-05
					 2.67319000E-03	 0.00000000E+00	 3.93811000E-05
					 2.68279000E-03	 0.00000000E+00	 3.89600000E-05
					 2.66824000E-03	 0.00000000E+00	 6.88129000E-05
					 2.67916000E-03	 0.00000000E+00	 4.23904000E-05
					 2.66824000E-03	 0.00000000E+00	 6.88129000E-05
					 2.67916000E-03	 0.00000000E+00	 4.23904000E-05
					 2.72385000E-03	 0.00000000E+00	 1.25696000E-04
					 2.72327000E-03	 0.00000000E+00	 7.31921000E-05
					 2.72385000E-03	 0.00000000E+00	 1.25696000E-04
					 2.72327000E-03	 0.00000000E+00	 7.31921000E-05
					 2.79958000E-03	 0.00000000E+00	 2.26705000E-04
					 2.79239000E-03	 0.00000000E+00	 1.61079000E-04
					 2.79958000E-03	 0.00000000E+00	 2.26705000E-04
					 2.79239000E-03	 0.00000000E+00	 1.61079000E-04
					 2.87057000E-03	 0.00000000E+00	 3.84167000E-04
					 2.84525000E-03	 0.00000000E+00	 3.01575000E-04
					 2.87057000E-03	 0.00000000E+00	 3.84167000E-04
					 2.84525000E-03	 0.00000000E+00	 3.01575000E-04
					 2.97096000E-03	 0.00000000E+00	 5.88274000E-04
					 2.93944000E-03	 0.00000000E+00	 4.70693000E-04
					 2.97096000E-03	 0.00000000E+00	 5.88274000E-04
					 2.93944000E-03	 0.00000000E+00	 4.70693000E-04
					 3.12385000E-03	 0.00000000E+00	 7.90886000E-04
					 3.09806000E-03	 0.00000000E+00	 6.36363000E-04
					 3.12385000E-03	 0.00000000E+00	 7.90886000E-04
					 3.09806000E-03	 0.00000000E+00	 6.36363000E-04
					 3.29777000E-03	 0.00000000E+00	 9.31995000E-04
					 3.30767000E-03	 0.00000000E+00	 7.73910000E-04
					 3.29777000E-03	 0.00000000E+00	 9.31995000E-04
					 3.30767000E-03	 0.00000000E+00	 7.73910000E-04
					 3.43840000E-03	 0.00000000E+00	 1.02149000E-03
					 3.45480000E-03	 0.00000000E+00	 8.97381000E-04
					 3.43840000E-03	 0.00000000E+00	 1.02149000E-03
					 3.45480000E-03	 0.00000000E+00	 8.97381000E-04
					 3.55939000E-03	 0.00000000E+00	 1.13181000E-03
					 3.55082000E-03	 0.00000000E+00	 1.03479000E-03
					 3.55939000E-03	 0.00000000E+00	 1.13181000E-03
					 3.55082000E-03	 0.00000000E+00	 1.03479000E-03
					 3.64728000E-03	 0.00000000E+00	 1.24098000E-03
					 3.64724000E-03	 0.00000000E+00	 1.15049000E-03
					 3.64728000E-03	 0.00000000E+00	 1.24098000E-03
					 3.64724000E-03	 0.00000000E+00	 1.15049000E-03
					 3.70355000E-03	 0.00000000E+00	 1.32646000E-03
					 3.74206000E-03	 0.00000000E+00	 1.24669000E-03
					 3.70355000E-03	 0.00000000E+00	 1.32646000E-03
					 3.74206000E-03	 0.00000000E+00	 1.24669000E-03
					 3.73576000E-03	 0.00000000E+00	 1.42725000E-03
					 3.76365000E-03	 0.00000000E+00	 1.36604000E-03
					 3.73576000E-03	 0.00000000E+00	 1.42725000E-03
					 3.76365000E-03	 0.00000000E+00	 1.36604000E-03
					 3.77236000E-03	 0.00000000E+00	 1.51770000E-03
					 3.81262000E-03	 0.00000000E+00	 1.41320000E-03
					 3.77236000E-03	 0.00000000E+00	 1.51770000E-03
					 3.81262000E-03	 0.00000000E+00	 1.41320000E-03
					 0.00000000E+00	 0.00000000E+00	 0.00000000E+00
					 6.67925000E-04	 0.00000000E+00	 4.57554000E-04
					 0.00000000E+00	 0.00000000E+00	 0.00000000E+00
					 6.67925000E-04	 0.00000000E+00	 4.57554000E-04
					 1.42322000E-03	 0.00000000E+00	 5.84161000E-04
					 1.42322000E-03	 0.00000000E+00	 5.84161000E-04
					 2.09422000E-03	 0.00000000E+00	 4.97131000E-04
					 2.09422000E-03	 0.00000000E+00	 4.97131000E-04
					 2.54329000E-03	 0.00000000E+00	 3.20270000E-04
					 2.54329000E-03	 0.00000000E+00	 3.20270000E-04
					 2.73930000E-03	 0.00000000E+00	 1.48349000E-04
					 2.73930000E-03	 0.00000000E+00	 1.48349000E-04
					 2.75491000E-03	 0.00000000E+00	 4.77206000E-05
					 2.75491000E-03	 0.00000000E+00	 4.77206000E-05
					 2.69906000E-03	 0.00000000E+00	 4.19706000E-05
					 2.69906000E-03	 0.00000000E+00	 4.19706000E-05
					 2.70199000E-03	 0.00000000E+00	 1.01633000E-04
					 2.70199000E-03	 0.00000000E+00	 1.01633000E-04
					 2.76237000E-03	 0.00000000E+00	 1.89247000E-04
					 2.76237000E-03	 0.00000000E+00	 1.89247000E-04
					 2.85378000E-03	 0.00000000E+00	 3.06861000E-04
					 2.85378000E-03	 0.00000000E+00	 3.06861000E-04
					 2.93530000E-03	 0.00000000E+00	 4.81631000E-04
					 2.93530000E-03	 0.00000000E+00	 4.81631000E-04
					 3.04740000E-03	 0.00000000E+00	 7.09329000E-04
					 3.04740000E-03	 0.00000000E+00	 7.09329000E-04
					 3.18636000E-03	 0.00000000E+00	 9.24348000E-04
					 3.18636000E-03	 0.00000000E+00	 9.24348000E-04
					 3.33017000E-03	 0.00000000E+00	 1.06446000E-03
					 3.33017000E-03	 0.00000000E+00	 1.06446000E-03
					 3.45018000E-03	 0.00000000E+00	 1.16075000E-03
					 3.45018000E-03	 0.00000000E+00	 1.16075000E-03
					 3.59457000E-03	 0.00000000E+00	 1.25315000E-03
					 3.59457000E-03	 0.00000000E+00	 1.25315000E-03
					 3.66776000E-03	 0.00000000E+00	 1.30251000E-03
					 3.66776000E-03	 0.00000000E+00	 1.30251000E-03
					 3.69174000E-03	 0.00000000E+00	 1.35321000E-03
					 3.69174000E-03	 0.00000000E+00	 1.35321000E-03
					 3.73027000E-03	 0.00000000E+00	 1.46772000E-03
					 3.73027000E-03	 0.00000000E+00	 1.46772000E-03
					 3.73629000E-03	 0.00000000E+00	 1.53217000E-03
					 3.73629000E-03	 0.00000000E+00	 1.53217000E-03
				</DataArray>
				<DataArray type="Float32" Name="S" NumberOfComponents="10" ComponentName0="xx" ComponentName1="yy" ComponentName2="zz" ComponentName3="xy" ComponentName4="yz" ComponentName5="zx" ComponentName6="Mises" ComponentName7="Min Principal" ComponentName8="Mid Principal" ComponentName9="Max Principal" format="ascii">
					-2.88815000E+02	-3.04433000E+02	-1.19991000E+03	 0.00000000E+00	 0.00000000E+00	 6.26367000E+02	 1.41177739E+03	-1.51886824E+03	-3.04433000E+02	 3.01432414E+01
					 1.45892000E+01	 1.98339000E+00	 3.48200000E+00	 0.00000000E+00	 0.00000000E+00	 5.79346000E+02	 1.00352759E+03	-5.70337018E+02	 1.98339000E+00	 5.88408218E+02
					-1.89437000E+01	-3.85440000E+00	 2.52770000E-01	 2.25244000E-08	 1.87507000E-09	 2.39340000E+02	 4.14918591E+02	-2.48877846E+02	-3.85440000E+00	 2.30186916E+02
					-1.52189000E+01	-1.50397000E+02	-7.25817000E+02	-1.86140000E-08	-2.47643000E-08	 2.35258000E+02	 7.70197674E+02	-7.96644388E+02	-1.50397000E+02	 5.56084884E+01
					-2.88815000E+02	-3.04433000E+02	-1.19991000E+03	 0.00000000E+00	 0.00000000E+00	 6.26367000E+02	 1.41177739E+03	-1.51886824E+03	-3.04433000E+02	 3.01432414E+01
					 1.45892000E+01	 1.98339000E+00	 3.48200000E+00	 0.00000000E+00	 0.00000000E+00	 5.79346000E+02	 1.00352759E+03	-5.70337018E+02	 1.98339000E+00	 5.88408218E+02
					-1.89437000E+01	-3.85440000E+00	 2.52770000E-01	 2.25244000E-08	 1.87507000E-09	 2.39340000E+02	 4.14918591E+02	-2.48877846E+02	-3.85440000E+00	 2.30186916E+02
					-1.52189000E+01	-1.50397000E+02	-7.25817000E+02	-1.86140000E-08	-2.47643000E-08	 2.35258000E+02	 7.70197674E+02	-7.96644388E+02	-1.50397000E+02	 5.56084884E+01
					-1.42669000E+01	-1.74655000E+00	 6.49976000E+00	 8.36055000E-08	 1.19946000E-08	 1.67637000E+02	 2.90920090E+02	-1.71841831E+02	-1.74655000E+00	 1.64074691E+02
					 1.32826000E+01	-4.89721000E+00	-3.60927000E+01	 1.06291000E-07	-2.27485000E-08	 1.27620000E+02	 2.25236288E+02	-1.41390989E+02	-4.89721000E+00	 1.18580889E+02
					-1.42669000E+01	-1.74655000E+00	 6.49976000E+00	 8.36056000E-08	 1.19946000E-08	 1.67637000E+02	 2.90920090E+02	-1.71841831E+02	-1.74655000E+00	 1.64074691E+02
					 1.32826000E+01	-4.89721000E+00	-3.60927000E+01	 1.06291000E-07	-2.27485000E-08	 1.27620000E+02	 2.25236288E+02	-1.41390989E+02	-4.89721000E+00	 1.18580889E+02
					-1.09845000E+01	-4.81568000E-01	 8.86611000E+00	 8.74652000E-08	-3.96208000E-09	 7.55427000E+01	 1.31969569E+02	-7.72511316E+01	-4.81568000E-01	 7.51327416E+01
					 7.61055000E+01	 9.01291000E+01	 3.77092000E+02	 8.15153000E-08	 1.77996000E-08	 6.64444000E+01	 3.15932264E+02	 6.20901588E+01	 9.01291000E+01	 3.91107341E+02
					-1.09845000E+01	-4.81568000E-01	 8.86611000E+00	 8.74652000E-08	-3.96208000E-09	 7.55427000E+01	 1.31969569E+02	-7.72511316E+01	-4.81568000E-01	 7.51327416E+01
					 7.61055000E+01	 9.01291000E+01	 3.77092000E+02	 8.15152000E-08	 1.77996000E-08	 6.64444000E+01	 3.15932264E+02	 6.20901588E+01	 9.01291000E+01	 3.91107341E+02
					-1.51799000E+01	 6.88273000E-02	 1.54122000E+01	 2.83449000E-08	-1.23812000E-09	 9.41949000E+00	 3.11141455E+01	-1.78475895E+01	 6.88273000E-02	 1.80798895E+01
					 8.87618000E+01	 1.17162000E+02	 5.00608000E+02	 2.04538000E-08	 2.05003000E-08	 1.13435000E+01	 3.98890178E+02	 8.84496021E+01	 1.17162000E+02	 5.00920198E+02
					-1.51799000E+01	 6.88272000E-02	 1.54122000E+01	 2.83451000E-08	-1.23812000E-09	 9.41949000E+00	 3.11141455E+01	-1.78475895E+01	 6.88272000E-02	 1.80798895E+01
					 8.87618000E+01	 1.17162000E+02	 5.00608000E+02	 2.04539000E-08	 2.05003000E-08	 1.13435000E+01	 3.98890178E+02	 8.84496021E+01	 1.17162000E+02	 5.00920198E+02
					-1.37958000E+01	 1.31022000E+00	 2.02376000E+01	-1.98689000E-08	-2.66765000E-09	-3.70989000E+01	 7.07201533E+01	-3.75944949E+01	 1.31022000E+00	 4.40362949E+01
					 7.56854000E+01	 9.62678000E+01	 4.08074000E+02	 1.13198000E-08	 5.71490000E-09	-2.57024000E+01	 3.25647511E+02	 7.37096708E+01	 9.62678000E+01	 4.10049729E+02
					-1.37958000E+01	 1.31022000E+00	 2.02376000E+01	-1.98691000E-08	-2.66765000E-09	-3.70989000E+01	 7.07201533E+01	-3.75944949E+01	 1.31022000E+00	 4.40362949E+01
					 7.56854000E+01	 9.62678000E+01	 4.08074000E+02	 1.13197000E-08	 5.71489000E-09	-2.57024000E+01	 3.25647511E+02	 7.37096708E+01	 9.62678000E+01	 4.10049729E+02
					-1.08040000E+01	 3.54510000E+00	 2.85612000E+01	-4.00912000E-08	-1.04136000E-08	-5.37761000E+01	 9.93290856E+01	-4.83863428E+01	 3.54510000E+00	 6.61435428E+01
					 6.92252000E+01	 5.68113000E+01	 2.15683000E+02	-3.38008000E-08	-1.28743000E-08	-4.34306000E+01	 1.70530806E+02	 5.68113000E+01	 5.73148681E+01	 2.27593332E+02
					-1.08040000E+01	 3.54510000E+00	 2.85612000E+01	-4.00911000E-08	-1.04136000E-08	-5.37761000E+01	 9.93290856E+01	-4.83863428E+01	 3.54510000E+00	 6.61435428E+01
					 6.92252000E+01	 5.68113000E+01	 2.15683000E+02	-3.38009000E-08	-1.28742000E-08	-4.34306000E+01	 1.70530806E+02	 5.68113000E+01	 5.73148681E+01	 2.27593332E+02
					-6.68601000E+00	 9.47632000E+00	 5.42202000E+01	-1.32699000E-08	 4.37671000E-09	-3.45427000E+01	 8.10308301E+01	-2.22827663E+01	 9.47632000E+00	 6.98169563E+01
					 3.93969000E+01	 2.01174000E+01	 6.13403000E+01	-4.65643000E-09	-2.75047000E-08	-3.11322000E+01	 6.46831611E+01	 1.73596303E+01	 2.01174000E+01	 8.33775697E+01
					-6.68601000E+00	 9.47632000E+00	 5.42202000E+01	-1.32698000E-08	 4.37671000E-09	-3.45427000E+01	 8.10308301E+01	-2.22827663E+01	 9.47632000E+00	 6.98169563E+01
					 3.93969000E+01	 2.01174000E+01	 6.13403000E+01	-4.65647000E-09	-2.75047000E-08	-3.11322000E+01	 6.46831611E+01	 1.73596303E+01	 2.01174000E+01	 8.33775697E+01
					-1.55556000E+00	 2.11708000E+01	 1.07686000E+02	 8.52471000E-09	 8.06854000E-09	-4.24419000E+00	 1.00107853E+02	-1.72020467E+00	 2.11708000E+01	 1.07850645E+02
					 4.05696000E+01	 1.86925000E+01	 5.29731000E+01	 5.42923000E-08	-2.63917000E-08	-6.17263000E+00	 3.19078519E+01	 1.86925000E+01	 3.80213178E+01	 5.55213822E+01
					-1.55556000E+00	 2.11708000E+01	 1.07686000E+02	 8.52465000E-09	 8.06855000E-09	-4.24419000E+00	 1.00107853E+02	-1.72020467E+00	 2.11708000E+01	 1.07850645E+02
					 4.05696000E+01	 1.86925000E+01	 5.29731000E+01	 5.42924000E-08	-2.63917000E-08	-6.17263000E+00	 3.19078519E+01	 1.86925000E+01	 3.80213178E+01	 5.55213822E+01
					 7.08970000E-01	 3.96380000E+01	 1.98188000E+02	 1.89903000E-08	-1.08144000E-08	 7.80056000E+00	 1.81681908E+02	 4.01321695E-01	 3.96380000E+01	 1.98495648E+02
					 3.81049000E+01	 3.91895000E+01	 1.58298000E+02	 4.66919000E-08	-1.34661000E-08	 4.20310000E+00	 1.19875745E+02	 3.79580987E+01	 3.91895000E+01	 1.58444801E+02
					 7.08970000E-01	 3.96380000E+01	 1.98188000E+02	 1.89904000E-08	-1.08144000E-08	 7.80056000E+00	 1.81681908E+02	 4.01321695E-01	 3.96380000E+01	 1.98495648E+02
					 3.81049000E+01	 3.91895000E+01	 1.58298000E+02	 4.66918000E-08	-1.34661000E-08	 4.20310000E+00	 1.19875745E+02	 3.79580987E+01	 3.91895000E+01	 1.58444801E+02
					 4.64444000E+00	 6.57429000E+01	 3.25878000E+02	 6.57353000E-08	-4.60649000E-09	 7.09364000E-01	 2.95463459E+02	 4.64287355E+00	 6.57429000E+01	 3.25879566E+02
					 5.70174000E+01	 7.13137000E+01	 3.00972000E+02	 5.23622000E-08	 7.30102000E-09	-4.52034000E+00	 2.37259106E+02	 5.69336694E+01	 7.13137000E+01	 3.01055731E+02
					 4.64444000E+00	 6.57429000E+01	 3.25878000E+02	 6.57352000E-08	-4.60649000E-09	 7.09365000E-01	 2.95463459E+02	 4.64287355E+00	 6.57429000E+01	 3.25879566E+02
					 5.70174000E+01	 7.13137000E+01	 3.00972000E+02	 5.23621000E-08	 7.30103000E-09	-4.52034000E+00	 2.37259106E+02	 5.69336694E+01	 7.13137000E+01	 3.01055731E+02
					 1.00300000E+00	 9.05857000E+01	 4.55292000E+02	 5.25609000E-08	 1.36412000E-08	-3.94427000E+00	 4.16837849E+02	 9.68757275E-01	 9.05857000E+01	 4.55326243E+02
					 3.59223000E+01	 8.63414000E+01	 3.98223000E+02	 5.88633000E-08	 2.77338000E-08	-8.82539000E+00	 3.40250893E+02	 3.57074471E+01	 8.63414000E+01	 3.98437853E+02
					 1.00300000E+00	 9.05857000E+01	 4.55292000E+02	 5.25609000E-08	 1.36412000E-08	-3.94427000E+00	 4.16837849E+02	 9.68757275E-01	 9.05857000E+01	 4.55326243E+02
					 3.59223000E+01	 8.63414000E+01	 3.98223000E+02	 5.88633000E-08	 2.77338000E-08	-8.82539000E+00	 3.40250893E+02	 3.57074471E+01	 8.63414000E+01	 3.98437853E+02
					-7.38928000E+00	 9.97826000E+01	 5.10510000E+02	 3.22769000E-09	 6.73362000E-09	 8.00752000E+00	 4.73702014E+02	-7.51305900E+00	 9.97826000E+01	 5.10633779E+02
					 2.81994000E+01	 9.07291000E+01	 4.28279000E+02	 8.74508000E-09	 1.76622000E-08	 9.36298000E+00	 3.73121681E+02	 2.79804000E+01	 9.07291000E+01	 4.28498000E+02
					-7.38928000E+00	 9.97826000E+01	 5.10510000E+02	 3.22776000E-09	 6.73367000E-09	 8.00752000E+00	 4.73702014E+02	-7.51305900E+00	 9.97826000E+01	 5.10633779E+02
					 2.81994000E+01	 9.07291000E+01	 4.28279000E+02	 8.74514000E-09	 1.76622000E-08	 9.36298000E+00	 3.73121681E+02	 2.79804000E+01	 9.07291000E+01	 4.28498000E+02
					-2.02603000E+00	 8.54379000E+01	 4.32316000E+02	-4.62211000E-09	-1.09620000E-08	 2.01625000E+01	 3.99416144E+02	-2.95998093E+00	 8.54379000E+01	 4.33249951E+02
					 3.34386000E+01	 8.42074000E+01	 3.89973000E+02	-1.14141000E-08	 3.99797000E-09	 3.03428000E+01	 3.38164874E+02	 3.08747183E+01	 8.42074000E+01	 3.92536882E+02
					-2.02603000E+00	 8.54379000E+01	 4.32316000E+02	-4.62195000E-09	-1.09621000E-08	 2.01625000E+01	 3.99416144E+02	-2.95998093E+00	 8.54379000E+01	 4.33249951E+02
					 3.34386000E+01	 8.42074000E+01	 3.89973000E+02	-1.14142000E-08	 3.99795000E-09	 3.03428000E+01	 3.38164874E+02	 3.08747183E+01	 8.42074000E+01	 3.92536882E+02
					 4.76785000E+01	 6.96105000E+01	 3.01862000E+02	-1.64354000E-09	-1.87127000E-08	 1.24437000E+01	 2.44908246E+02	 4.70707645E+01	 6.96105000E+01	 3.02469735E+02
					 1.14295000E+02	 9.38368000E+01	 3.56826000E+02	-1.14966000E-08	 6.72244000E-09	 2.08277000E+01	 2.55935443E+02	 9.38368000E+01	 1.12519391E+02	 3.58601609E+02
					 4.76785000E+01	 6.96105000E+01	 3.01862000E+02	-1.64369000E-09	-1.87127000E-08	 1.24437000E+01	 2.44908246E+02	 4.70707645E+01	 6.96105000E+01	 3.02469735E+02
					 1.14295000E+02	 9.38368000E+01	 3.56826000E+02	-1.14966000E-08	 6.72240000E-09	 2.08277000E+01	 2.55935443E+02	 9.38368000E+01	 1.12519391E+02	 3.58601609E+02
					 7.32626000E+01	 6.82948000E+01	 2.69308000E+02	-5.01643000E-08	 0.00000000E+00	-6.18285000E-01	 1.98578798E+02	 6.82948000E+01	 7.32606501E+01	 2.69309950E+02
					 1.31031000E+02	 9.79217000E+01	 3.60540000E+02	-5.78321000E-08	 8.88059000E-09	-2.27454000E+00	 2.47759984E+02	 9.79217000E+01	 1.31008460E+02	 3.60562540E+02
					 7.32626000E+01	 6.82948000E+01	 2.69308000E+02	-5.01643000E-08	 0.00000000E+00	-6.18285000E-01	 1.98578798E+02	 6.82948000E+01	 7.32606501E+01	 2.69309950E+02
					 1.31031000E+02	 9.79217000E+01	 3.60540000E+02	-5.78323000E-08	 8.88060000E-09	-2.27454000E+00	 2.47759984E+02	 9.79217000E+01	 1.31008460E+02	 3.60562540E+02
					 1.52646000E+01	 5.87106000E+01	 2.79499000E+02	-5.71934000E-08	 1.81765000E-09	-4.46492000E+00	 2.45534625E+02	 1.51891752E+01	 5.87106000E+01	 2.79574425E+02
					 6.17494000E+01	 7.86959000E+01	 3.33386000E+02	-4.16254000E-08	 0.00000000E+00	-5.36971000E-01	 2.63573902E+02	 6.17483385E+01	 7.86959000E+01	 3.33387061E+02
					 1.52646000E+01	 5.87106000E+01	 2.79499000E+02	-5.71935000E-08	 1.81773000E-09	-4.46492000E+00	 2.45534625E+02	 1.51891752E+01	 5.87106000E+01	 2.79574425E+02
					 6.17494000E+01	 7.86959000E+01	 3.33386000E+02	-4.16253000E-08	 0.00000000E+00	-5.36972000E-01	 2.63573902E+02	 6.17483385E+01	 7.86959000E+01	 3.33387061E+02
					 3.76897000E+01	 5.80802000E+01	 2.53679000E+02	-5.30569000E-08	-4.90224000E-09	-3.79364000E+00	 2.06654774E+02	 3.76230890E+01	 5.80802000E+01	 2.53745611E+02
					 7.07199000E+01	 7.06422000E+01	 2.83681000E+02	-6.82162000E-08	-1.91516000E-08	 5.34381000E+00	 2.13200967E+02	 7.05858927E+01	 7.06422000E+01	 2.83815007E+02
					 3.76897000E+01	 5.80802000E+01	 2.53679000E+02	-5.30569000E-08	-4.90221000E-09	-3.79364000E+00	 2.06654774E+02	 3.76230890E+01	 5.80802000E+01	 2.53745611E+02
					 7.07199000E+01	 7.06422000E+01	 2.83681000E+02	-6.82162000E-08	-1.91516000E-08	 5.34381000E+00	 2.13200967E+02	 7.05858927E+01	 7.06422000E+01	 2.83815007E+02
					 1.29168000E+02	 7.87698000E+01	 2.65834000E+02	 3.44600000E-08	 3.12872000E-09	-9.03410000E+00	 1.68374996E+02	 7.87698000E+01	 1.28573401E+02	 2.66428599E+02
					 1.74598000E+02	 9.73949000E+01	 3.14057000E+02	 1.02221000E-08	-2.82157000E-08	-2.16300000E+01	 1.93853989E+02	 9.73949000E+01	 1.71320240E+02	 3.17334760E+02
					 1.29168000E+02	 7.87698000E+01	 2.65834000E+02	 3.44601000E-08	 3.12877000E-09	-9.03410000E+00	 1.68374996E+02	 7.87698000E+01	 1.28573401E+02	 2.66428599E+02
					 1.74598000E+02	 9.73949000E+01	 3.14057000E+02	 1.02222000E-08	-2.82157000E-08	-2.16300000E+01	 1.93853989E+02	 9.73949000E+01	 1.71320240E+02	 3.17334760E+02
					 1.08211000E+02	 7.47914000E+01	 2.66842000E+02	 3.52135000E-08	-3.24672000E-09	-1.64518000E+01	 1.79983426E+02	 7.47914000E+01	 1.06522733E+02	 2.68530267E+02
					 1.29870000E+02	 7.40080000E+01	 2.41259000E+02	 3.70684000E-08	-2.15621000E-08	-2.60168000E+01	 1.54211239E+02	 7.40080000E+01	 1.24092952E+02	 2.47036048E+02
					 1.08211000E+02	 7.47914000E+01	 2.66842000E+02	 3.52135000E-08	-3.24671000E-09	-1.64518000E+01	 1.79983426E+02	 7.47914000E+01	 1.06522733E+02	 2.68530267E+02
					 1.29870000E+02	 7.40080000E+01	 2.41259000E+02	 3.70683000E-08	-2.15621000E-08	-2.60168000E+01	 1.54211239E+02	 7.40080000E+01	 1.24092952E+02	 2.47036048E+02
					 1.62113000E+02	 8.56346000E+01	 2.67331000E+02	-5.48504000E-09	-3.43466000E-09	-2.29655000E+01	 1.62938393E+02	 8.56346000E+01	 1.57318855E+02	 2.72125145E+02
					 1.39025000E+02	 5.82901000E+01	 1.53012000E+02	-1.73727000E-08	-1.71472000E-08	-5.57219000E+01	 1.30987746E+02	 5.82901000E+01	 8.98594475E+01	 2.02177553E+02
					 1.62113000E+02	 8.56346000E+01	 2.67331000E+02	-5.48474000E-09	-3.43463000E-09	-2.29655000E+01	 1.62938393E+02	 8.56346000E+01	 1.57318855E+02	 2.72125145E+02
					 1.39025000E+02	 5.82901000E+01	 1.53012000E+02	-1.73726000E-08	-1.71471000E-08	-5.57219000E+01	 1.30987746E+02	 5.82901000E+01	 8.98594475E+01	 2.02177553E+02
					 3.23635000E+02	 3.06591000E+02	 1.24443000E+03	 0.00000000E+00	 0.00000000E+00	 6.83694000E+02	 1.50537717E+03	-4.02267697E+01	 3.06591000E+02	 1.60829177E+03
					-2.47230000E+01	 1.40342000E+02	 7.37853000E+02	 2.83582000E-08	 2.57969000E-08	 2.59776000E+02	 8.27855490E+02	-1.04806986E+02	 1.40342000E+02	 8.17936986E+02
					 3.23635000E+02	 3.06591000E+02	 1.24443000E+03	 0.00000000E+00	 0.00000000E+00	 6.83694000E+02	 1.50537717E+03	-4.02267697E+01	 3.06591000E+02	 1.60829177E+03