<?xml version="1.0"?>
<VTKFile type="UnstructuredGrid" version="0.1" byte_order="LittleEndian">
	<UnstructuredGrid>
		<Piece NumberOfPoints="126" NumberOfCells="40">
			<Points>
				<DataArray type="Float64" NumberOfComponents="3" format="ascii">
					 5.00000000E-02	 0.00000000E+00	 0.00000000E+00
					 0.00000000E+00	 0.00000000E+00	 0.00000000E+00
					 0.00000000E+00	 0.00000000E+00	 5.00000000E-02
					 5.00000000E-02	 0.00000000E+00	 5.00000000E-02
					 5.00000000E-02	 3.00000000E-01	 0.00000000E+00
					 0.00000000E+00	 3.00000000E-01	 0.00000000E+00
					 0.00000000E+00	 3.00000000E-01	 5.00000000E-02
					 5.00000000E-02	 3.00000000E-01	 5.00000000E-02
					 0.00000000E+00	 0.00000000E+00	 1.00000000E-01
					 5.00000000E-02	 0.00000000E+00	 1.00000000E-01
					 0.00000000E+00	 3.00000000E-01	 1.00000000E-01
					 5.00000000E-02	 3.00000000E-01	 1.00000000E-01
					 0.00000000E+00	 0.00000000E+00	 1.50000000E-01
					 5.00000000E-02	 0.00000000E+00	 1.50000000E-01
					 0.00000000E+00	 3.00000000E-01	 1.50000000E-01
					 5.00000000E-02	 3.00000000E-01	 1.50000000E-01
					 0.00000000E+00	 0.00000000E+00	 2.00000000E-01
					 5.00000000E-02	 0.00000000E+00	 2.00000000E-01
					 0.00000000E+00	 3.00000000E-01	 2.00000000E-01
					 5.00000000E-02	 3.00000000E-01	 2.00000000E-01
					 0.00000000E+00	 0.00000000E+00	 2.50000000E-01
					 5.00000000E-02	 0.00000000E+00	 2.50000000E-01
					 0.00000000E+00	 3.00000000E-01	 2.50000000E-01
					 5.00000000E-02	 3.00000000E-01	 2.50000000E-01
					 0.00000000E+00	 0.00000000E+00	 3.00000000E-01
					 5.00000000E-02	 0.00000000E+00	 3.00000000E-01
					 0.00000000E+00	 3.00000000E-01	 3.00000000E-01
					 5.00000000E-02	 3.00000000E-01	 3.00000000E-01
					 0.00000000E+00	 0.00000000E+00	 3.50000000E-01
					 5.00000000E-02	 0.00000000E+00	 3.50000000E-01
					 0.00000000E+00	 3.00000000E-01	 3.50000000E-01
					 5.00000000E-02	 3.00000000E-01	 3.50000000E-01
					 0.00000000E+00	 0.00000000E+00	 4.00000000E-01
					 5.00000000E-02	 0.00000000E+00	 4.00000000E-01
					 0.00000000E+00	 3.00000000E-01	 4.00000000E-01
					 5.00000000E-02	 3.00000000E-01	 4.00000000E-01
					 0.00000000E+00	 0.00000000E+00	 4.50000000E-01
					 5.00000000E-02	 0.00000000E+00	 4.50000000E-01
					 0.00000000E+00	 3.00000000E-01	 4.50000000E-01
					 5.00000000E-02	 3.00000000E-01	 4.50000000E-01
					 0.00000000E+00	 0.00000000E+00	 5.00000000E-01
					 5.00000000E-02	 0.00000000E+00	 5.00000000E-01
					 0.00000000E+00	 3.00000000E-01	 5.00000000E-01
					 5.00000000E-02	 3.00000000E-01	 5.00000000E-01
					 0.00000000E+00	 0.00000000E+00	 5.50000000E-01
					 5.00000000E-02	 0.00000000E+00	 5.50000000E-01
					 0.00000000E+00	 3.00000000E-01	 5.50000000E-01
					 5.00000000E-02	 3.00000000E-01	 5.50000000E-01
					 0.00000000E+00	 0.00000000E+00	 6.00000000E-01
					 5.00000000E-02	 0.00000000E+00	 6.00000000E-01
					 0.00000000E+00	 3.00000000E-01	 6.00000000E-01
					 5.00000000E-02	 3.00000000E-01	 6.00000000E-01
					 0.00000000E+00	 0.00000000E+00	 6.50000000E-01
					 5.00000000E-02	 0.00000000E+00	 6.50000000E-01
					 0.00000000E+00	 3.00000000E-01	 6.50000000E-01
					 5.00000000E-02	 3.00000000E-01	 6.50000000E-01
					 0.00000000E+00	 0.00000000E+00	 7.00000000E-01
					 5.00000000E-02	 0.00000000E+00	 7.00000000E-01
					 0.00000000E+00	 3.00000000E-01	 7.00000000E-01
					 5.00000000E-02	 3.00000000E-01	 7.00000000E-01
					 0.00000000E+00	 0.00000000E+00	 7.50000000E-01
					 5.00000000E-02	 0.00000000E+00	 7.50000000E-01
					 0.00000000E+00	 3.00000000E-01	 7.50000000E-01
					 5.00000000E-02	 3.00000000E-01	 7.50000000E-01
					 0.00000000E+00	 0.00000000E+00	 8.00000000E-01
					 5.00000000E-02	 0.00000000E+00	 8.00000000E-01
					 0.00000000E+00	 3.00000000E-01	 8.00000000E-01
					 5.00000000E-02	 3.00000000E-01	 8.00000000E-01
					 0.00000000E+00	 0.00000000E+00	 8.50000000E-01
					 5.00000000E-02	 0.00000000E+00	 8.50000000E-01
					 0.00000000E+00	 3.00000000E-01	 8.50000000E-01
					 5.00000000E-02	 3.00000000E-01	 8.50000000E-01
					 0.00000000E+00	 0.00000000E+00	 9.00000000E-01
					 5.00000000E-02	 0.00000000E+00	 9.00000000E-01
					 0.00000000E+00	 3.00000000E-01	 9.00000000E-01
					 5.00000000E-02	 3.00000000E-01	 9.00000000E-01
					 0.00000000E+00	 0.00000000E+00	 9.50000000E-01
					 5.00000000E-02	 0.00000000E+00	 9.50000000E-01
					 0.00000000E+00	 3.00000000E-01	 9.50000000E-01
					 5.00000000E-02	 3.00000000E-01	 9.50000000E-01
					 0.00000000E+00	 0.00000000E+00	 1.00000000E+00
					 5.00000000E-02	 0.00000000E+00	 1.00000000E+00
					 0.00000000E+00	 3.00000000E-01	 1.00000000E+00
					 5.00000000E-02	 3.00000000E-01	 1.00000000E+00
					-5.00000000E-02	 0.00000000E+00	 0.00000000E+00
					-5.00000000E-02	 0.00000000E+00	 5.00000000E-02
					-5.00000000E-02	 3.00000000E-01	 0.00000000E+00
					-5.00000000E-02	 3.00000000E-01	 5.00000000E-02
					-5.00000000E-02	 0.00000000E+00	 1.00000000E-01
					-5.00000000E-02	 3.00000000E-01	 1.00000000E-01
					-5.00000000E-02	 0.00000000E+00	 1.50000000E-01
					-5.00000000E-02	 3.00000000E-01	 1.50000000E-01
					-5.00000000E-02	 0.00000000E+00	 2.00000000E-01
					-5.00000000E-02	 3.00000000E-01	 2.00000000E-01
					-5.00000000E-02	 0.00000000E+00	 2.50000000E-01
					-5.00000000E-02	 3.00000000E-01	 2.50000000E-01
					-5.00000000E-02	 0.00000000E+00	 3.00000000E-01
					-5.00000000E-02	 3.00000000E-01	 3.00000000E-01
					-5.00000000E-02	 0.00000000E+00	 3.50000000E-01
					-5.00000000E-02	 3.00000000E-01	 3.50000000E-01
					-5.00000000E-02	 0.00000000E+00	 4.00000000E-01
					-5.00000000E-02	 3.00000000E-01	 4.00000000E-01
					-5.00000000E-02	 0.00000000E+00	 4.50000000E-01
					-5.00000000E-02	 3.00000000E-01	 4.50000000E-01
					-5.00000000E-02	 0.00000000E+00	 5.00000000E-01
					-5.00000000E-02	 3.00000000E-01	 5.00000000E-01
					-5.00000000E-02	 0.00000000E+00	 5.50000000E-01
					-5.00000000E-02	 3.00000000E-01	 5.50000000E-01
					-5.00000000E-02	 0.00000000E+00	 6.00000000E-01
					-5.00000000E-02	 3.00000000E-01	 6.00000000E-01
					-5.00000000E-02	 0.00000000E+00	 6.50000000E-01
					-5.00000000E-02	 3.00000000E-01	 6.50000000E-01
					-5.00000000E-02	 0.00000000E+00	 7.00000000E-01
					-5.00000000E-02	 3.00000000E-01	 7.00000000E-01
					-5.00000000E-02	 0.00000000E+00	 7.50000000E-01
					-5.00000000E-02	 3.00000000E-01	 7.50000000E-01
					-5.00000000E-02	 0.00000000E+00	 8.00000000E-01
					-5.00000000E-02	 3.00000000E-01	 8.00000000E-01
					-5.00000000E-02	 0.00000000E+00	 8.50000000E-01
					-5.00000000E-02	 3.00000000E-01	 8.50000000E-01
					-5.00000000E-02	 0.00000000E+00	 9.00000000E-01
					-5.00000000E-02	 3.00000000E-01	 9.00000000E-01
					-5.00000000E-02	 0.00000000E+00	 9.50000000E-01
					-5.00000000E-02	 3.00000000E-01	 9.50000000E-01
					-5.00000000E-02	 0.00000000E+00	 1.00000000E+00
					-5.00000000E-02	 3.00000000E-01	 1.00000000E+00

				</DataArray>
			</Points>
			<Cells>
				<DataArray type="Int32" Name="connectivity" format="ascii">
					0 1 2 3 4 5 6 7 3 2 8 9 7 6 10 11 9 8 12 13 11 10 14 15 13 12 16 17 15 14 18 19 17 16 20 21 19 18 22 23 21 20 24 25 23 22 26 27 25 24 28 29 27 26 30 31 29 28 32 33 31 30 34 35 33 32 36 37 35 34 38 39 37 36 40 41 39 38 42 43 41 40 44 45 43 42 46 47 45 44 48 49 47 46 50 51 49 48 52 53 51 50 54 55 53 52 56 57 55 54 58 59 57 56 60 61 59 58 62 63 61 60 64 65 63 62 66 67 65 64 68 69 67 66 70 71 69 68 72 73 71 70 74 75 73 72 76 77 75 74 78 79 77 76 80 81 79 78 82 83 1 84 85 2 5 86 87 6 2 85 88 8 6 87 89 10 8 88 90 12 10 89 91 14 12 90 92 16 14 91 93 18 16 92 94 20 18 93 95 22 20 94 96 24 22 95 97 26 24 96 98 28 26 97 99 30 28 98 100 32 30 99 101 34 32 100 102 36 34 101 103 38 36 102 104 40 38 103 105 42 40 104 106 44 42 105 107 46 44 106 108 48 46 107 109 50 48 108 110 52 50 109 111 54 52 110 112 56 54 111 113 58 56 112 114 60 58 113 115 62 60 114 116 64 62 115 117 66 64 116 118 68 66 117 119 70 68 118 120 72 70 119 121 74 72 120 122 76 74 121 123 78 76 122 124 80 78 123 125 82 
				</DataArray>
				<DataArray type="Int32" Name="offsets" format="ascii">
					8 16 24 32 40 48 56 64 72 80 88 96 104 112 120 128 136 144 152 160 168 176 184 192 200 208 216 224 232 240 248 256 264 272 280 288 296 304 312 320 
				</DataArray>
				<DataArray type="UInt8" Name="types" format="ascii">
					12 12 12 12 12 12 12 12 12 12 12 12 12 12 12 12 12 12 12 12 12 12 12 12 12 12 12 12 12 12 12 12 12 12 12 12 12 12 12 12 
				</DataArray>
			</Cells>
			<PointData>
				<DataArray type="Float32" Name="U" NumberOfComponents="3" ComponentName0="D1" ComponentName1="D2" ComponentName2="D3" format="ascii">
					 0.00000000E+00	 0.00000000E+00	 0.00000000E+00
					 0.00000000E+00	 0.00000000E+00	 0.00000000E+00
					 3.80642000E-03	 0.00000000E+00	-7.12465000E-05
					 4.03021000E-03	 0.00000000E+00	-6.03693000E-03
					 0.00000000E+00	 0.00000000E+00	 0.00000000E+00
					 0.00000000E+00	 0.00000000E+00	 0.00000000E+00
					 3.80642000E-03	 0.00000000E+00	-7.12465000E-05
					 4.03021000E-03	 0.00000000E+00	-6.03693000E-03
					 1.33939000E-02	 0.00000000E+00	-6.48072000E-04
					 1.24790000E-02	 0.00000000E+00	-1.14205000E-02
					 1.33939000E-02	 0.00000000E+00	-6.48072000E-04
					 1.24790000E-02	 0.00000000E+00	-1.14205000E-02
					 2.68396000E-02	 0.00000000E+00	-2.09424000E-03
					 2.49503000E-02	 0.00000000E+00	-1.64800000E-02
					 2.68396000E-02	 0.00000000E+00	-2.09424000E-03
					 2.49503000E-02	 0.00000000E+00	-1.64800000E-02
					 4.33276000E-02	 0.00000000E+00	-4.44001000E-03
					 4.04375000E-02	 0.00000000E+00	-2.15891000E-02
					 4.33276000E-02	 0.00000000E+00	-4.44001000E-03
					 4.04375000E-02	 0.00000000E+00	-2.15891000E-02
					 6.21815000E-02	 0.00000000E+00	-7.62987000E-03
					 5.83825000E-02	 0.00000000E+00	-2.69289000E-02
					 6.21815000E-02	 0.00000000E+00	-7.62987000E-03
					 5.83825000E-02	 0.00000000E+00	-2.69289000E-02
					 8.29059000E-02	 0.00000000E+00	-1.15833000E-02
					 7.83042000E-02	 0.00000000E+00	-3.25545000E-02
					 8.29059000E-02	 0.00000000E+00	-1.15833000E-02
					 7.83042000E-02	 0.00000000E+00	-3.25545000E-02
					 1.05074000E-01	 0.00000000E+00	-1.62011000E-02
					 9.98158000E-02	 0.00000000E+00	-3.84691000E-02
					 1.05074000E-01	 0.00000000E+00	-1.62011000E-02
					 9.98158000E-02	 0.00000000E+00	-3.84691000E-02
					 1.28331000E-01	 0.00000000E+00	-2.13829000E-02
					 1.22539000E-01	 0.00000000E+00	-4.46399000E-02
					 1.28331000E-01	 0.00000000E+00	-2.13829000E-02
					 1.22539000E-01	 0.00000000E+00	-4.46399000E-02
					 1.52419000E-01	 0.00000000E+00	-2.70362000E-02
					 1.46200000E-01	 0.00000000E+00	-5.10463000E-02
					 1.52419000E-01	 0.00000000E+00	-2.70362000E-02
					 1.46200000E-01	 0.00000000E+00	-5.10463000E-02
					 1.77156000E-01	 0.00000000E+00	-3.30778000E-02
					 1.70600000E-01	 0.00000000E+00	-5.76349000E-02
					 1.77156000E-01	 0.00000000E+00	-3.30778000E-02
					 1.70600000E-01	 0.00000000E+00	-5.76349000E-02
					 2.02351000E-01	 0.00000000E+00	-3.94072000E-02
					 1.95582000E-01	 0.00000000E+00	-6.43049000E-02
					 2.02351000E-01	 0.00000000E+00	-3.94072000E-02
					 1.95582000E-01	 0.00000000E+00	-6.43049000E-02
					 2.27762000E-01	 0.00000000E+00	-4.58860000E-02
					 2.20899000E-01	 0.00000000E+00	-7.09008000E-02
					 2.27762000E-01	 0.00000000E+00	-4.58860000E-02
					 2.20899000E-01	 0.00000000E+00	-7.09008000E-02
					 2.53148000E-01	 0.00000000E+00	-5.23687000E-02
					 2.46296000E-01	 0.00000000E+00	-7.73284000E-02
					 2.53148000E-01	 0.00000000E+00	-5.23687000E-02
					 2.46296000E-01	 0.00000000E+00	-7.73284000E-02
					 2.78353000E-01	 0.00000000E+00	-5.87669000E-02
					 2.71572000E-01	 0.00000000E+00	-8.35797000E-02
					 2.78353000E-01	 0.00000000E+00	-5.87669000E-02
					 2.71572000E-01	 0.00000000E+00	-8.35797000E-02
					 3.03324000E-01	 0.00000000E+00	-6.50704000E-02
					 2.96660000E-01	 0.00000000E+00	-8.97170000E-02
					 3.03324000E-01	 0.00000000E+00	-6.50704000E-02
					 2.96660000E-01	 0.00000000E+00	-8.97170000E-02
					 3.28059000E-01	 0.00000000E+00	-7.13017000E-02
					 3.21515000E-01	 0.00000000E+00	-9.57783000E-02
					 3.28059000E-01	 0.00000000E+00	-7.13017000E-02
					 3.21515000E-01	 0.00000000E+00	-9.57783000E-02
					 3.52579000E-01	 0.00000000E+00	-7.74757000E-02
					 3.46139000E-01	 0.00000000E+00	-1.01807000E-01
					 3.52579000E-01	 0.00000000E+00	-7.74757000E-02
					 3.46139000E-01	 0.00000000E+00	-1.01807000E-01
					 3.76930000E-01	 0.00000000E+00	-8.36166000E-02
					 3.70562000E-01	 0.00000000E+00	-1.07850000E-01
					 3.76930000E-01	 0.00000000E+00	-8.36166000E-02
					 3.70562000E-01	 0.00000000E+00	-1.07850000E-01
					 4.01172000E-01	 0.00000000E+00	-8.97672000E-02
					 3.94857000E-01	 0.00000000E+00	-1.13969000E-01
					 4.01172000E-01	 0.00000000E+00	-8.97672000E-02
					 3.94857000E-01	 0.00000000E+00	-1.13969000E-01
					 4.25375000E-01	 0.00000000E+00	-9.59893000E-02
					 4.19091000E-01	 0.00000000E+00	-1.20187000E-01
					 4.25375000E-01	 0.00000000E+00	-9.59893000E-02
					 4.19091000E-01	 0.00000000E+00	-1.20187000E-01
					 0.00000000E+00	 0.00000000E+00	 0.00000000E+00
					 5.30135000E-03	 0.00000000E+00	 5.74183000E-03
					 0.00000000E+00	 0.00000000E+00	 0.00000000E+00
					 5.30135000E-03	 0.00000000E+00	 5.74183000E-03
					 1.53177000E-02	 0.00000000E+00	 9.79854000E-03
					 1.53177000E-02	 0.00000000E+00	 9.79854000E-03
					 2.95489000E-02	 0.00000000E+00	 1.19685000E-02
					 2.95489000E-02	 0.00000000E+00	 1.19685000E-02
					 4.68538000E-02	 0.00000000E+00	 1.24395000E-02
					 4.68538000E-02	 0.00000000E+00	 1.24395000E-02
					 6.64845000E-02	 0.00000000E+00	 1.14416000E-02
					 6.64845000E-02	 0.00000000E+00	 1.14416000E-02
					 8.79042000E-02	 0.00000000E+00	 9.18676000E-03
					 8.79042000E-02	 0.00000000E+00	 9.18676000E-03
					 1.10632000E-01	 0.00000000E+00	 5.89391000E-03
					 1.10632000E-01	 0.00000000E+00	 5.89391000E-03
					 1.34358000E-01	 0.00000000E+00	 1.73286000E-03
					 1.34358000E-01	 0.00000000E+00	 1.73286000E-03
					 1.58820000E-01	 0.00000000E+00	-3.13534000E-03
					 1.58820000E-01	 0.00000000E+00	-3.13534000E-03
					 1.83844000E-01	 0.00000000E+00	-8.60731000E-03
					 1.83844000E-01	 0.00000000E+00	-8.60731000E-03
					 2.09189000E-01	 0.00000000E+00	-1.45641000E-02
					 2.09189000E-01	 0.00000000E+00	-1.45641000E-02
					 2.34647000E-01	 0.00000000E+00	-2.08896000E-02
					 2.34647000E-01	 0.00000000E+00	-2.08896000E-02
					 2.59988000E-01	 0.00000000E+00	-2.74011000E-02
					 2.59988000E-01	 0.00000000E+00	-2.74011000E-02
					 2.85104000E-01	 0.00000000E+00	-3.39471000E-02
					 2.85104000E-01	 0.00000000E+00	-3.39471000E-02
					 3.09944000E-01	 0.00000000E+00	-4.04229000E-02
					 3.09944000E-01	 0.00000000E+00	-4.04229000E-02
					 3.34565000E-01	 0.00000000E+00	-4.68236000E-02
					 3.34565000E-01	 0.00000000E+00	-4.68236000E-02
					 3.58992000E-01	 0.00000000E+00	-5.31418000E-02
					 3.58992000E-01	 0.00000000E+00	-5.31418000E-02
					 3.83284000E-01	 0.00000000E+00	-5.93912000E-02
					 3.83284000E-01	 0.00000000E+00	-5.93912000E-02
					 4.07478000E-01	 0.00000000E+00	-6.55870000E-02
					 4.07478000E-01	 0.00000000E+00	-6.55870000E-02
					 4.31664000E-01	 0.00000000E+00	-7.17940000E-02
					 4.31664000E-01	 0.00000000E+00	-7.17940000E-02
				</DataArray>
				<DataArray type="Float32" Name="S" NumberOfComponents="10" ComponentName0="xx" ComponentName1="yy" ComponentName2="zz" ComponentName3="xy" ComponentName4="yz" ComponentName5="zx" ComponentName6="Mises" ComponentName7="Min Principal" ComponentName8="Mid Principal" ComponentName9="Max Principal" format="ascii">
					-3.67734000E+03	-4.17094000E+03	-1.35891000E+04	 0.00000000E+00	 1.45339000E-09	 2.85751000E+03	 1.08669348E+04	-1.43538939E+04	-4.17094000E+03	-2.91254609E+03
					 4.89379000E+02	 4.96954000E+01	-5.42363000E+02	 0.00000000E+00	 0.00000000E+00	 3.73857000E+03	 6.53719283E+03	-3.80048571E+03	 4.96954000E+01	 3.74750171E+03
					-1.18068000E+02	-5.47636000E+01	-4.32728000E+02	 4.78603000E-08	-2.31241000E-09	 7.59932000E+02	 1.36214084E+03	-1.05144528E+03	-5.47636000E+01	 5.00649275E+02
					-1.83360000E+03	-3.21951000E+03	-1.19130000E+04	 6.74243000E-08	-1.71985000E-08	-3.73509000E+02	 9.48495844E+03	-1.19268220E+04	-3.21951000E+03	-1.81977795E+03
					-3.67734000E+03	-4.17094000E+03	-1.35891000E+04	 0.00000000E+00	 1.45339000E-09	 2.85751000E+03	 1.08669348E+04	-1.43538939E+04	-4.17094000E+03	-2.91254609E+03
					 4.89379000E+02	 4.96954000E+01	-5.42363000E+02	 0.00000000E+00	 0.00000000E+00	 3.73857000E+03	 6.53719283E+03	-3.80048571E+03	 4.96954000E+01	 3.74750171E+03
					-1.18068000E+02	-5.47636000E+01	-4.32728000E+02	 4.78604000E-08	-2.31241000E-09	 7.59932000E+02	 1.36214084E+03	-1.05144528E+03	-5.47636000E+01	 5.00649275E+02
					-1.83360000E+03	-3.21951000E+03	-1.19130000E+04	 6.74243000E-08	-1.71984000E-08	-3.73509000E+02	 9.48495844E+03	-1.19268220E+04	-3.21951000E+03	-1.81977795E+03
					 3.26961000E+01	 5.86231000E+01	 3.26042000E+01	 9.17863000E-08	-3.84701000E-09	 8.92378000E+02	 1.54586225E+03	-8.59727851E+02	 5.86231000E+01	 9.25028151E+02
					-2.07226000E+03	-2.57183000E+03	-9.38791000E+03	 1.14647000E-07	-2.12745000E-09	-1.08934000E+03	 7.32622759E+03	-9.54667318E+03	-2.57183000E+03	-1.91349682E+03
					 3.26961000E+01	 5.86231000E+01	 3.26042000E+01	 9.17863000E-08	-3.84708000E-09	 8.92378000E+02	 1.54586225E+03	-8.59727851E+02	 5.86231000E+01	 9.25028151E+02
					-2.07226000E+03	-2.57183000E+03	-9.38791000E+03	 1.14646000E-07	-2.12733000E-09	-1.08934000E+03	 7.32622759E+03	-9.54667318E+03	-2.57183000E+03	-1.91349682E+03
					 1.80796000E+02	 1.19669000E+02	 2.93036000E+02	 9.43203000E-08	 1.21153000E-08	 7.64028000E+02	 1.33207041E+03	-5.29170313E+02	 1.19669000E+02	 1.00300231E+03
					-1.57809000E+03	-1.85977000E+03	-6.98165000E+03	 1.03439000E-07	 1.79295000E-08	-1.20248000E+03	 5.66512171E+03	-7.23716155E+03	-1.85977000E+03	-1.32257845E+03
					 1.80796000E+02	 1.19669000E+02	 2.93036000E+02	 9.43183000E-08	 1.21153000E-08	 7.64028000E+02	 1.33207041E+03	-5.29170313E+02	 1.19669000E+02	 1.00300231E+03
					-1.57809000E+03	-1.85977000E+03	-6.98165000E+03	 1.03441000E-07	 1.79293000E-08	-1.20248000E+03	 5.66512171E+03	-7.23716155E+03	-1.85977000E+03	-1.32257845E+03
					 2.34659000E+02	 1.56369000E+02	 4.78777000E+02	 1.24736000E-07	 2.19697000E-08	 7.23681000E+02	 1.28684789E+03	-3.77184302E+02	 1.56369000E+02	 1.09062030E+03
					-1.36723000E+03	-1.39769000E+03	-5.21576000E+03	 1.01072000E-07	 2.26475000E-08	-1.13833000E+03	 4.31071575E+03	-5.52724789E+03	-1.39769000E+03	-1.05574211E+03
					 2.34659000E+02	 1.56369000E+02	 4.78777000E+02	 1.24737000E-07	 2.19695000E-08	 7.23681000E+02	 1.28684789E+03	-3.77184302E+02	 1.56369000E+02	 1.09062030E+03
					-1.36723000E+03	-1.39769000E+03	-5.21576000E+03	 1.01069000E-07	 2.26484000E-08	-1.13833000E+03	 4.31071575E+03	-5.52724789E+03	-1.39769000E+03	-1.05574211E+03
					 2.69522000E+02	 1.82511000E+02	 6.12075000E+02	 7.27855000E-08	 3.37138000E-08	 7.14286000E+02	 1.29820369E+03	-2.93735454E+02	 1.82511000E+02	 1.17533245E+03
					-1.15063000E+03	-1.04505000E+03	-3.85996000E+03	 9.72733000E-08	 3.44580000E-08	-9.49175000E+02	 3.21565962E+03	-4.15939610E+03	-1.04505000E+03	-8.51193902E+02
					 2.69522000E+02	 1.82511000E+02	 6.12075000E+02	 7.27858000E-08	 3.37136000E-08	 7.14286000E+02	 1.29820369E+03	-2.93735454E+02	 1.82511000E+02	 1.17533245E+03
					-1.15063000E+03	-1.04505000E+03	-3.85996000E+03	 9.72720000E-08	 3.44580000E-08	-9.49175000E+02	 3.21565962E+03	-4.15939610E+03	-1.04505000E+03	-8.51193902E+02
					 2.71379000E+02	 1.91875000E+02	 6.80238000E+02	 2.44288000E-08	 4.73968000E-08	 7.22986000E+02	 1.33196050E+03	-2.75523768E+02	 1.91875000E+02	 1.22714077E+03
					-9.48485000E+02	-7.72178000E+02	-2.80607000E+03	 1.94114000E-08	 4.41177000E-08	-7.04757000E+02	 2.30201188E+03	-3.04318399E+03	-7.72178000E+02	-7.11371013E+02
					 2.71379000E+02	 1.91875000E+02	 6.80238000E+02	 2.44287000E-08	 4.73971000E-08	 7.22986000E+02	 1.33196050E+03	-2.75523768E+02	 1.91875000E+02	 1.22714077E+03
					-9.48485000E+02	-7.72178000E+02	-2.80607000E+03	 1.94118000E-08	 4.41179000E-08	-7.04757000E+02	 2.30201188E+03	-3.04318399E+03	-7.72178000E+02	-7.11371013E+02
					 3.03721000E+02	 2.03464000E+02	 7.18427000E+02	 3.33809000E-08	 6.17627000E-08	 6.95698000E+02	 1.29444847E+03	-2.14867440E+02	 2.03464000E+02	 1.23701544E+03
					-7.15545000E+02	-5.45732000E+02	-1.96761000E+03	 4.43347000E-08	 6.27875000E-08	-4.79710000E+02	 1.58097602E+03	-2.13027159E+03	-5.52883405E+02	-5.45732000E+02
					 3.03721000E+02	 2.03464000E+02	 7.18427000E+02	 3.33763000E-08	 6.17632000E-08	 6.95698000E+02	 1.29444847E+03	-2.14867440E+02	 2.03464000E+02	 1.23701544E+03
					-7.15545000E+02	-5.45732000E+02	-1.96761000E+03	 4.43352000E-08	 6.27872000E-08	-4.79710000E+02	 1.58097602E+03	-2.13027159E+03	-5.52883405E+02	-5.45732000E+02
					 2.96453000E+02	 1.97641000E+02	 7.03116000E+02	 1.19817000E-08	 6.51304000E-08	 6.58166000E+02	 1.23080024E+03	-1.89074108E+02	 1.97641000E+02	 1.18864311E+03
					-5.28019000E+02	-3.77406000E+02	-1.34212000E+03	 2.58090000E-08	 6.45601000E-08	-2.89479000E+02	 1.02929742E+03	-1.43455744E+03	-4.35581561E+02	-3.77406000E+02
					 2.96453000E+02	 1.97641000E+02	 7.03116000E+02	 1.19819000E-08	 6.51300000E-08	 6.58166000E+02	 1.23080024E+03	-1.89074108E+02	 1.97641000E+02	 1.18864311E+03
					-5.28019000E+02	-3.77406000E+02	-1.34212000E+03	 2.58120000E-08	 6.45605000E-08	-2.89479000E+02	 1.02929742E+03	-1.43455744E+03	-4.35581561E+02	-3.77406000E+02
					 2.92395000E+02	 1.87269000E+02	 6.58760000E+02	 2.06292000E-08	 3.53284000E-08	 6.24867000E+02	 1.16411579E+03	-1.75586532E+02	 1.87269000E+02	 1.12674153E+03
					-3.59987000E+02	-2.46523000E+02	-8.68212000E+02	 4.40835000E-08	 3.52251000E-08	-1.18996000E+02	 6.09353851E+02	-8.94693888E+02	-3.33505112E+02	-2.46523000E+02
					 2.92395000E+02	 1.87269000E+02	 6.58760000E+02	 2.06287000E-08	 3.53286000E-08	 6.24867000E+02	 1.16411579E+03	-1.75586532E+02	 1.87269000E+02	 1.12674153E+03
					-3.59987000E+02	-2.46523000E+02	-8.68212000E+02	 4.40821000E-08	 3.52241000E-08	-1.18996000E+02	 6.09353851E+02	-8.94693888E+02	-3.33505112E+02	-2.46523000E+02
					 2.76890000E+02	 1.70063000E+02	 5.90138000E+02	 4.98870000E-08	 1.54958000E-08	 6.12107000E+02	 1.12562187E+03	-1.98313553E+02	 1.70063000E+02	 1.06534155E+03
					-1.84692000E+02	-1.26371000E+02	-4.46613000E+02	 4.48961000E-08	 0.00000000E+00	 7.80354000E+01	 3.24881540E+02	-4.68099790E+02	-1.63205210E+02	-1.26371000E+02
					 2.76890000E+02	 1.70063000E+02	 5.90138000E+02	 4.98882000E-08	 1.54953000E-08	 6.12107000E+02	 1.12562187E+03	-1.98313553E+02	 1.70063000E+02	 1.06534155E+03
					-1.84692000E+02	-1.26371000E+02	-4.46613000E+02	 4.48944000E-08	 0.00000000E+00	 7.80354000E+01	 3.24881540E+02	-4.68099790E+02	-1.63205210E+02	-1.26371000E+02
					 2.97855000E+02	 1.67916000E+02	 5.58456000E+02	 5.55282000E-08	 1.69796000E-08	 5.79570000E+02	 1.06130270E+03	-1.65881204E+02	 1.67916000E+02	 1.02219220E+03
					 4.45956000E+01	 1.35280000E+01	 2.61717000E+01	 2.85923000E-08	-2.02560000E-08	 2.86234000E+02	 4.96509776E+02	-2.50998547E+02	 1.35280000E+01	 3.21765847E+02
					 2.97855000E+02	 1.67916000E+02	 5.58456000E+02	 5.55363000E-08	 1.69804000E-08	 5.79570000E+02	 1.06130270E+03	-1.65881204E+02	 1.67916000E+02	 1.02219220E+03
					 4.45956000E+01	 1.35280000E+01	 2.61717000E+01	 2.85840000E-08	-2.02592000E-08	 2.86234000E+02	 4.96509776E+02	-2.50998547E+02	 1.35280000E+01	 3.21765847E+02
					 2.63867000E+02	 1.59981000E+02	 5.51965000E+02	 8.34266000E-08	-1.10126000E-08	 5.43014000E+02	 1.00414875E+03	-1.53879620E+02	 1.59981000E+02	 9.69711620E+02
					 2.18042000E+02	 1.37737000E+02	 4.83726000E+02	 7.01785000E-08	-5.35503000E-08	 4.76722000E+02	 8.83269059E+02	-1.44000696E+02	 1.37737000E+02	 8.45768696E+02
					 2.63867000E+02	 1.59981000E+02	 5.51965000E+02	 8.34306000E-08	-1.10140000E-08	 5.43014000E+02	 1.00414875E+03	-1.53879620E+02	 1.59981000E+02	 9.69711620E+02
					 2.18042000E+02	 1.37737000E+02	 4.83726000E+02	 7.01771000E-08	-5.35504000E-08	 4.76722000E+02	 8.83269059E+02	-1.44000696E+02	 1.37737000E+02	 8.45768696E+02
					 1.99273000E+02	 1.51182000E+02	 5.71097000E+02	 9.02710000E-08	-5.19489000E-08	 4.95474000E+02	 9.46007755E+02	-1.44019834E+02	 1.51182000E+02	 9.14389834E+02
					 2.99472000E+02	 2.18302000E+02	 8.15654000E+02	 1.19205000E-07	-4.36108000E-08	 5.91217000E+02	 1.16770867E+03	-8.75327335E+01	 2.18302000E+02	 1.20265873E+03
					 1.99273000E+02	 1.51182000E+02	 5.71097000E+02	 9.02792000E-08	-5.19481000E-08	 4.95474000E+02	 9.46007755E+02	-1.44019834E+02	 1.51182000E+02	 9.14389834E+02
					 2.99472000E+02	 2.18302000E+02	 8.15654000E+02	 1.19185000E-07	-4.36085000E-08	 5.91217000E+02	 1.16770867E+03	-8.75327335E+01	 2.18302000E+02	 1.20265873E+03
					 1.07411000E+02	 1.30932000E+02	 5.59475000E+02	 4.93321000E-08	-4.25612000E-08	 4.45869000E+02	 8.89201662E+02	-1.66446618E+02	 1.30932000E+02	 8.33332618E+02
					 2.90556000E+02	 2.42563000E+02	 9.50027000E+02	 6.54727000E-08	-1.66861000E-08	 6.21888000E+02	 1.27635785E+03	-8.36049302E+01	 2.42563000E+02	 1.32418793E+03
					 1.07411000E+02	 1.30932000E+02	 5.59475000E+02	 4.93321000E-08	-4.25618000E-08	 4.45869000E+02	 8.89201662E+02	-1.66446618E+02	 1.30932000E+02	 8.33332618E+02
					 2.90556000E+02	 2.42563000E+02	 9.50027000E+02	 6.54751000E-08	-1.66873000E-08	 6.21888000E+02	 1.27635785E+03	-8.36049302E+01	 2.42563000E+02	 1.32418793E+03
					 7.21136000E+01	 1.17117000E+02	 5.22481000E+02	-1.02210000E-08	-2.30941000E-08	 3.66388000E+02	 7.66360579E+02	-1.32758354E+02	 1.17117000E+02	 7.27352954E+02
					 2.78493000E+02	 2.40373000E+02	 9.48675000E+02	 1.10916000E-09	-1.41890000E-08	 5.69959000E+02	 1.20445181E+03	-4.75810626E+01	 2.40373000E+02	 1.27474906E+03
					 7.21136000E+01	 1.17117000E+02	 5.22481000E+02	-1.02214000E-08	-2.30918000E-08	 3.66388000E+02	 7.66360579E+02	-1.32758354E+02	 1.17117000E+02	 7.27352954E+02
					 2.78493000E+02	 2.40373000E+02	 9.48675000E+02	 1.09325000E-09	-1.41939000E-08	 5.69959000E+02	 1.20445181E+03	-4.75810626E+01	 2.40373000E+02	 1.27474906E+03
					 2.70261000E+01	 9.28433000E+01	 4.43225000E+02	-5.59013000E-08	-2.17023000E-08	 2.90320000E+02	 6.34836585E+02	-1.22073391E+02	 9.28433000E+01	 5.92324491E+02
					 2.23413000E+02	 2.09459000E+02	 8.42971000E+02	-3.79608000E-08	-1.34548000E-08	 4.80163000E+02	 1.04132688E+03	-3.82268791E+01	 2.09459000E+02	 1.10461088E+03
					 2.70261000E+01	 9.28433000E+01	 4.43225000E+02	-5.59147000E-08	-2.17043000E-08	 2.90320000E+02	 6.34836585E+02	-1.22073391E+02	 9.28433000E+01	 5.92324491E+02
					 2.23413000E+02	 2.09459000E+02	 8.42971000E+02	-3.79311000E-08	-1.34571000E-08	 4.80163000E+02	 1.04132688E+03	-3.82268791E+01	 2.09459000E+02	 1.10461088E+03
					-1.66569000E+01	 6.66440000E+01	 3.53662000E+02	-7.39292000E-08	-1.96817000E-08	 2.21746000E+02	 5.10628138E+02	-1.20383778E+02	 6.66440000E+01	 4.57388878E+02
					 1.37669000E+02	 1.57359000E+02	 6.60907000E+02	-5.16482000E-08	-2.27476000E-08	 3.68277000E+02	 8.18991447E+02	-5.24557879E+01	 1.57359000E+02	 8.51031788E+02
					-1.66569000E+01	 6.66440000E+01	 3.53662000E+02	-7.39228000E-08	-1.96858000E-08	 2.21746000E+02	 5.10628138E+02	-1.20383778E+02	 6.66440000E+01	 4.57388878E+02
					 1.37669000E+02	 1.57359000E+02	 6.60907000E+02	-5.16548000E-08	-2.27425000E-08	 3.68277000E+02	 8.18991447E+02	-5.24557879E+01	 1.57359000E+02	 8.51031788E+02
					-7.29590000E+01	 3.28613000E+01	 2.39420000E+02	-3.73208000E-08	-1.48337000E-08	 1.63432000E+02	 3.94781702E+02	-1.42834045E+02	 3.28613000E+01	 3.09295045E+02
					 3.00404000E+01	 8.77404000E+01	 4.14026000E+02	-5.27110000E-08	-3.24844000E-08	 2.50782000E+02	 5.63287756E+02	-9.38035407E+01	 8.77404000E+01	 5.37869941E+02
					-7.29590000E+01	 3.28613000E+01	 2.39420000E+02	-3.73354000E-08	-1.48299000E-08	 1.63432000E+02	 3.94781702E+02	-1.42834045E+02	 3.28613000E+01	 3.09295045E+02
					 3.00404000E+01	 8.77404000E+01	 4.14026000E+02	-5.27389000E-08	-3.24818000E-08	 2.50782000E+02	 5.63287756E+02	-9.38035407E+01	 8.77404000E+01	 5.37869941E+02
					-8.78451000E+01	 2.11609000E+00	 9.92057000E+01	-3.14674000E-08	 4.35857000E-09	 8.74121000E+01	 2.21757369E+02	-1.22334838E+02	 2.11609000E+00	 1.33695438E+02
					-2.99821000E+01	 2.69657000E+01	 1.66248000E+02	-2.55660000E-08	-1.03116000E-08	 1.26536000E+02	 2.80372091E+02	-9.19855134E+01	 2.69657000E+01	 2.28251413E+02
					-8.78451000E+01	 2.11609000E+00	 9.92057000E+01	-3.14440000E-08	 4.35816000E-09	 8.74121000E+01	 2.21757369E+02	-1.22334838E+02	 2.11609000E+00	 1.33695438E+02
					-2.99821000E+01	 2.69657000E+01	 1.66248000E+02	-2.55602000E-08	-1.03112000E-08	 1.26536000E+02	 2.80372091E+02	-9.19855134E+01	 2.69657000E+01	 2.28251413E+02
					-7.70719000E+01	-9.42621000E+00	 3.01042000E+01	-3.49808000E-08	 9.25501000E-09	 3.61464000E+01	 1.12837677E+02	-8.81231673E+01	-9.42621000E+00	 4.11554673E+01
					-2.72765000E+01	 4.97225000E+00	 5.23391000E+01	-4.16281000E-08	 1.37943000E-08	 6.30315000E+01	 1.29344625E+02	-6.20182200E+01	 4.97225000E+00	 8.70808200E+01
					-7.70719000E+01	-9.42621000E+00	 3.01042000E+01	-3.50080000E-08	 9.24847000E-09	 3.61464000E+01	 1.12837677E+02	-8.81231673E+01	-9.42621000E+00	 4.11554673E+01
					-2.72765000E+01	 4.97225000E+00	 5.23391000E+01	-4.16223000E-08	 1.37894000E-08	 6.30315000E+01	 1.29344625E+02	-6.20182200E+01	 4.97225000E+00	 8.70808200E+01
					 4.82208000E+03	 3.79402000E+03	 1.80786000E+04	 0.00000000E+00	 0.00000000E+00	 6.91561000E+03	 1.82728682E+04	 1.87122249E+03	 3.79402000E+03	 2.10294575E+04
					 1.43998000E+03	 2.86006000E+03	 1.54883000E+04	 2.71971000E-08	 1.33465000E-08	 2.99505000E+03	 1.43643015E+04	 8.28097294E+02	 2.86006000E+03	 1.61001827E+04
					 4.82208000E+03	 3.79402000E+03	 1.80786000E+04	 0.00000000E+00	 0.00000000E+00	 6.91561000E+03	 1.82728682E+04	 1.87122249E+03	 3.79402000E+03	 2.10294575E+04