<?xml version="1.0"?>
<VTKFile type="UnstructuredGrid" version="0.1" byte_order="LittleEndian">
	<UnstructuredGrid>
		<Piece NumberOfPoints="126" NumberOfCells="40">
			<Points>
				<DataArray type="Float64" NumberOfComponents="3" format="ascii">
					 5.00000000E-02	 0.00000000E+00	 0.00000000E+00
					 0.00000000E+00	 0.00000000E+00	 0.00000000E+00
					 0.00000000E+00	 0.00000000E+00	 5.00000000E-02
					 5.00000000E-02	 0.00000000E+00	 5.00000000E-02
					 5.00000000E-02	 3.00000000E-01	 0.00000000E+00
					 0.00000000E+00	 3.00000000E-01	 0.00000000E+00
					 0.00000000E+00	 3.00000000E-01	 5.00000000E-02
					 5.00000000E-02	 3.00000000E-01	 5.00000000E-02
					 0.00000000E+00	 0.00000000E+00	 1.00000000E-01
					 5.00000000E-02	 0.00000000E+00	 1.00000000E-01
					 0.00000000E+00	 3.00000000E-01	 1.00000000E-01
					 5.00000000E-02	 3.00000000E-01	 1.00000000E-01
					 0.00000000E+00	 0.00000000E+00	 1.50000000E-01
					 5.00000000E-02	 0.00000000E+00	 1.50000000E-01
					 0.00000000E+00	 3.00000000E-01	 1.50000000E-01
					 5.00000000E-02	 3.00000000E-01	 1.50000000E-01
					 0.00000000E+00	 0.00000000E+00	 2.00000000E-01
					 5.00000000E-02	 0.00000000E+00	 2.00000000E-01
					 0.00000000E+00	 3.00000000E-01	 2.00000000E-01
					 5.00000000E-02	 3.00000000E-01	 2.00000000E-01
					 0.00000000E+00	 0.00000000E+00	 2.50000000E-01
					 5.00000000E-02	 0.00000000E+00	 2.50000000E-01
					 0.00000000E+00	 3.00000000E-01	 2.50000000E-01
					 5.00000000E-02	 3.00000000E-01	 2.50000000E-01
					 0.00000000E+00	 0.00000000E+00	 3.00000000E-01
					 5.00000000E-02	 0.00000000E+00	 3.00000000E-01
					 0.00000000E+00	 3.00000000E-01	 3.00000000E-01
					 5.00000000E-02	 3.00000000E-01	 3.00000000E-01
					 0.00000000E+00	 0.00000000E+00	 3.50000000E-01
					 5.00000000E-02	 0.00000000E+00	 3.50000000E-01
					 0.00000000E+00	 3.00000000E-01	 3.50000000E-01
					 5.00000000E-02	 3.00000000E-01	 3.50000000E-01
					 0.00000000E+00	 0.00000000E+00	 4.00000000E-01
					 5.00000000E-02	 0.00000000E+00	 4.00000000E-01
					 0.00000000E+00	 3.00000000E-01	 4.00000000E-01
					 5.00000000E-02	 3.00000000E-01	 4.00000000E-01
					 0.00000000E+00	 0.00000000E+00	 4.50000000E-01
					 5.00000000E-02	 0.00000000E+00	 4.50000000E-01
					 0.00000000E+00	 3.00000000E-01	 4.50000000E-01
					 5.00000000E-02	 3.00000000E-01	 4.50000000E-01
					 0.00000000E+00	 0.00000000E+00	 5.00000000E-01
					 5.00000000E-02	 0.00000000E+00	 5.00000000E-01
					 0.00000000E+00	 3.00000000E-01	 5.00000000E-01
					 5.00000000E-02	 3.00000000E-01	 5.00000000E-01
					 0.00000000E+00	 0.00000000E+00	 5.50000000E-01
					 5.00000000E-02	 0.00000000E+00	 5.50000000E-01
					 0.00000000E+00	 3.00000000E-01	 5.50000000E-01
					 5.00000000E-02	 3.00000000E-01	 5.50000000E-01
					 0.00000000E+00	 0.00000000E+00	 6.00000000E-01
					 5.00000000E-02	 0.00000000E+00	 6.00000000E-01
					 0.00000000E+00	 3.00000000E-01	 6.00000000E-01
					 5.00000000E-02	 3.00000000E-01	 6.00000000E-01
					 0.00000000E+00	 0.00000000E+00	 6.50000000E-01
					 5.00000000E-02	 0.00000000E+00	 6.50000000E-01
					 0.00000000E+00	 3.00000000E-01	 6.50000000E-01
					 5.00000000E-02	 3.00000000E-01	 6.50000000E-01
					 0.00000000E+00	 0.00000000E+00	 7.00000000E-01
					 5.00000000E-02	 0.00000000E+00	 7.00000000E-01
					 0.00000000E+00	 3.00000000E-01	 7.00000000E-01
					 5.00000000E-02	 3.00000000E-01	 7.00000000E-01
					 0.00000000E+00	 0.00000000E+00	 7.50000000E-01
					 5.00000000E-02	 0.00000000E+00	 7.50000000E-01
					 0.00000000E+00	 3.00000000E-01	 7.50000000E-01
					 5.00000000E-02	 3.00000000E-01	 7.50000000E-01
					 0.00000000E+00	 0.00000000E+00	 8.00000000E-01
					 5.00000000E-02	 0.00000000E+00	 8.00000000E-01
					 0.00000000E+00	 3.00000000E-01	 8.00000000E-01
					 5.00000000E-02	 3.00000000E-01	 8.00000000E-01
					 0.00000000E+00	 0.00000000E+00	 8.50000000E-01
					 5.00000000E-02	 0.00000000E+00	 8.50000000E-01
					 0.00000000E+00	 3.00000000E-01	 8.50000000E-01
					 5.00000000E-02	 3.00000000E-01	 8.50000000E-01
					 0.00000000E+00	 0.00000000E+00	 9.00000000E-01
					 5.00000000E-02	 0.00000000E+00	 9.00000000E-01
					 0.00000000E+00	 3.00000000E-01	 9.00000000E-01
					 5.00000000E-02	 3.00000000E-01	 9.00000000E-01
					 0.00000000E+00	 0.00000000E+00	 9.50000000E-01
					 5.00000000E-02	 0.00000000E+00	 9.50000000E-01
					 0.00000000E+00	 3.00000000E-01	 9.50000000E-01
					 5.00000000E-02	 3.00000000E-01	 9.50000000E-01
					 0.00000000E+00	 0.00000000E+00	 1.00000000E+00
					 5.00000000E-02	 0.00000000E+00	 1.00000000E+00
					 0.00000000E+00	 3.00000000E-01	 1.00000000E+00
					 5.00000000E-02	 3.00000000E-01	 1.00000000E+00
					-5.00000000E-02	 0.00000000E+00	 0.00000000E+00
					-5.00000000E-02	 0.00000000E+00	 5.00000000E-02
					-5.00000000E-02	 3.00000000E-01	 0.00000000E+00
					-5.00000000E-02	 3.00000000E-01	 5.00000000E-02
					-5.00000000E-02	 0.00000000E+00	 1.00000000E-01
					-5.00000000E-02	 3.00000000E-01	 1.00000000E-01
					-5.00000000E-02	 0.00000000E+00	 1.50000000E-01
					-5.00000000E-02	 3.00000000E-01	 1.50000000E-01
					-5.00000000E-02	 0.00000000E+00	 2.00000000E-01
					-5.00000000E-02	 3.00000000E-01	 2.00000000E-01
					-5.00000000E-02	 0.00000000E+00	 2.50000000E-01
					-5.00000000E-02	 3.00000000E-01	 2.50000000E-01
					-5.00000000E-02	 0.00000000E+00	 3.00000000E-01
					-5.00000000E-02	 3.00000000E-01	 3.00000000E-01
					-5.00000000E-02	 0.00000000E+00	 3.50000000E-01
					-5.00000000E-02	 3.00000000E-01	 3.50000000E-01
					-5.00000000E-02	 0.00000000E+00	 4.00000000E-01
					-5.00000000E-02	 3.00000000E-01	 4.00000000E-01
					-5.00000000E-02	 0.00000000E+00	 4.50000000E-01
					-5.00000000E-02	 3.00000000E-01	 4.50000000E-01
					-5.00000000E-02	 0.00000000E+00	 5.00000000E-01
					-5.00000000E-02	 3.00000000E-01	 5.00000000E-01
					-5.00000000E-02	 0.00000000E+00	 5.50000000E-01
					-5.00000000E-02	 3.00000000E-01	 5.50000000E-01
					-5.00000000E-02	 0.00000000E+00	 6.00000000E-01
					-5.00000000E-02	 3.00000000E-01	 6.00000000E-01
					-5.00000000E-02	 0.00000000E+00	 6.50000000E-01
					-5.00000000E-02	 3.00000000E-01	 6.50000000E-01
					-5.00000000E-02	 0.00000000E+00	 7.00000000E-01
					-5.00000000E-02	 3.00000000E-01	 7.00000000E-01
					-5.00000000E-02	 0.00000000E+00	 7.50000000E-01
					-5.00000000E-02	 3.00000000E-01	 7.50000000E-01
					-5.00000000E-02	 0.00000000E+00	 8.00000000E-01
					-5.00000000E-02	 3.00000000E-01	 8.00000000E-01
					-5.00000000E-02	 0.00000000E+00	 8.50000000E-01
					-5.00000000E-02	 3.00000000E-01	 8.50000000E-01
					-5.00000000E-02	 0.00000000E+00	 9.00000000E-01
					-5.00000000E-02	 3.00000000E-01	 9.00000000E-01
					-5.00000000E-02	 0.00000000E+00	 9.50000000E-01
					-5.00000000E-02	 3.00000000E-01	 9.50000000E-01
					-5.00000000E-02	 0.00000000E+00	 1.00000000E+00
					-5.00000000E-02	 3.00000000E-01	 1.00000000E+00

				</DataArray>
			</Points>
			<Cells>
				<DataArray type="Int32" Name="connectivity" format="ascii">
					0 1 2 3 4 5 6 7 3 2 8 9 7 6 10 11 9 8 12 13 11 10 14 15 13 12 16 17 15 14 18 19 17 16 20 21 19 18 22 23 21 20 24 25 23 22 26 27 25 24 28 29 27 26 30 31 29 28 32 33 31 30 34 35 33 32 36 37 35 34 38 39 37 36 40 41 39 38 42 43 41 40 44 45 43 42 46 47 45 44 48 49 47 46 50 51 49 48 52 53 51 50 54 55 53 52 56 57 55 54 58 59 57 56 60 61 59 58 62 63 61 60 64 65 63 62 66 67 65 64 68 69 67 66 70 71 69 68 72 73 71 70 74 75 73 72 76 77 75 74 78 79 77 76 80 81 79 78 82 83 1 84 85 2 5 86 87 6 2 85 88 8 6 87 89 10 8 88 90 12 10 89 91 14 12 90 92 16 14 91 93 18 16 92 94 20 18 93 95 22 20 94 96 24 22 95 97 26 24 96 98 28 26 97 99 30 28 98 100 32 30 99 101 34 32 100 102 36 34 101 103 38 36 102 104 40 38 103 105 42 40 104 106 44 42 105 107 46 44 106 108 48 46 107 109 50 48 108 110 52 50 109 111 54 52 110 112 56 54 111 113 58 56 112 114 60 58 113 115 62 60 114 116 64 62 115 117 66 64 116 118 68 66 117 119 70 68 118 120 72 70 119 121 74 72 120 122 76 74 121 123 78 76 122 124 80 78 123 125 82 
				</DataArray>
				<DataArray type="Int32" Name="offsets" format="ascii">
					8 16 24 32 40 48 56 64 72 80 88 96 104 112 120 128 136 144 152 160 168 176 184 192 200 208 216 224 232 240 248 256 264 272 280 288 296 304 312 320 
				</DataArray>
				<DataArray type="UInt8" Name="types" format="ascii">
					12 12 12 12 12 12 12 12 12 12 12 12 12 12 12 12 12 12 12 12 12 12 12 12 12 12 12 12 12 12 12 12 12 12 12 12 12 12 12 12 
				</DataArray>
			</Cells>
			<PointData>
				<DataArray type="Float32" Name="U" NumberOfComponents="3" ComponentName0="D1" ComponentName1="D2" ComponentName2="D3" format="ascii">
					 0.00000000E+00	 0.00000000E+00	 0.00000000E+00
					 0.00000000E+00	 0.00000000E+00	 0.00000000E+00
					 6.11154000E-05	 0.00000000E+00	-4.63817000E-06
					 6.89749000E-05	 0.00000000E+00	-1.47181000E-05
					 0.00000000E+00	 0.00000000E+00	 0.00000000E+00
					 0.00000000E+00	 0.00000000E+00	 0.00000000E+00
					 6.11154000E-05	 0.00000000E+00	-4.63817000E-06
					 6.89749000E-05	 0.00000000E+00	-1.47181000E-05
					 7.79221000E-05	 0.00000000E+00	-1.89688000E-07
					 7.77403000E-05	 0.00000000E+00	-4.72608000E-06
					 7.79221000E-05	 0.00000000E+00	-1.89688000E-07
					 7.77403000E-05	 0.00000000E+00	-4.72608000E-06
					 7.13853000E-05	 0.00000000E+00	 9.98831000E-07
					 7.46651000E-05	 0.00000000E+00	 6.26155000E-08
					 7.13853000E-05	 0.00000000E+00	 9.98831000E-07
					 7.46651000E-05	 0.00000000E+00	 6.26155000E-08
					 6.96895000E-05	 0.00000000E+00	 2.84387000E-07
					 7.57076000E-05	 0.00000000E+00	-6.10302000E-07
					 6.96895000E-05	 0.00000000E+00	 2.84387000E-07
					 7.57076000E-05	 0.00000000E+00	-6.10302000E-07
					 7.27856000E-05	 0.00000000E+00	-1.78839000E-07
					 7.73934000E-05	 0.00000000E+00	-1.68546000E-06
					 7.27856000E-05	 0.00000000E+00	-1.78839000E-07
					 7.73934000E-05	 0.00000000E+00	-1.68546000E-06
					 7.82454000E-05	 0.00000000E+00	 9.17285000E-07
					 8.73950000E-05	 0.00000000E+00	-9.08786000E-07
					 7.82454000E-05	 0.00000000E+00	 9.17285000E-07
					 8.73950000E-05	 0.00000000E+00	-9.08786000E-07
					 7.57494000E-05	 0.00000000E+00	 1.74852000E-06
					 8.51903000E-05	 0.00000000E+00	 7.43388000E-08
					 7.57494000E-05	 0.00000000E+00	 1.74852000E-06
					 8.51903000E-05	 0.00000000E+00	 7.43389000E-08
					 7.49703000E-05	 0.00000000E+00	 1.09238000E-06
					 8.89663000E-05	 0.00000000E+00	-8.66073000E-07
					 7.49703000E-05	 0.00000000E+00	 1.09238000E-06
					 8.89663000E-05	 0.00000000E+00	-8.66073000E-07
					 7.93716000E-05	 0.00000000E+00	 1.15917000E-06
					 9.31325000E-05	 0.00000000E+00	-2.32797000E-06
					 7.93716000E-05	 0.00000000E+00	 1.15917000E-06
					 9.31325000E-05	 0.00000000E+00	-2.32797000E-06
					 8.67193000E-05	 0.00000000E+00	 2.21086000E-06
					 1.09946000E-04	 0.00000000E+00	-1.53667000E-06
					 8.67193000E-05	 0.00000000E+00	 2.21086000E-06
					 1.09946000E-04	 0.00000000E+00	-1.53667000E-06
					 8.55772000E-05	 0.00000000E+00	 2.72431000E-06
					 1.09776000E-04	 0.00000000E+00	-3.03256000E-07
					 8.55772000E-05	 0.00000000E+00	 2.72431000E-06
					 1.09776000E-04	 0.00000000E+00	-3.03256000E-07
					 8.62433000E-05	 0.00000000E+00	 2.57494000E-06
					 1.17479000E-04	 0.00000000E+00	-1.47379000E-06
					 8.62433000E-05	 0.00000000E+00	 2.57494000E-06
					 1.17479000E-04	 0.00000000E+00	-1.47379000E-06
					 9.31223000E-05	 0.00000000E+00	 4.15331000E-06
					 1.26802000E-04	 0.00000000E+00	-3.78990000E-06
					 9.31223000E-05	 0.00000000E+00	 4.15331000E-06
					 1.26802000E-04	 0.00000000E+00	-3.78990000E-06
					 1.04746000E-04	 0.00000000E+00	 5.78338000E-06
					 1.59203000E-04	 0.00000000E+00	-3.15975000E-06
					 1.04746000E-04	 0.00000000E+00	 5.78338000E-06
					 1.59203000E-04	 0.00000000E+00	-3.15975000E-06
					 1.07903000E-04	 0.00000000E+00	 6.92057000E-06
					 1.67513000E-04	 0.00000000E+00	-1.37495000E-06
					 1.07903000E-04	 0.00000000E+00	 6.92057000E-06
					 1.67513000E-04	 0.00000000E+00	-1.37495000E-06
					 1.14701000E-04	 0.00000000E+00	 1.08950000E-05
					 1.90260000E-04	 0.00000000E+00	-8.51050000E-07
					 1.14701000E-04	 0.00000000E+00	 1.08950000E-05
					 1.90260000E-04	 0.00000000E+00	-8.51050000E-07
					 1.30665000E-04	 0.00000000E+00	 2.60250000E-05
					 2.17867000E-04	 0.00000000E+00	 5.74113000E-06
					 1.30665000E-04	 0.00000000E+00	 2.60250000E-05
					 2.17867000E-04	 0.00000000E+00	 5.74113000E-06
					 1.55238000E-04	 0.00000000E+00	 6.42213000E-05
					 2.83938000E-04	 0.00000000E+00	 4.90325000E-05
					 1.55238000E-04	 0.00000000E+00	 6.42213000E-05
					 2.83938000E-04	 0.00000000E+00	 4.90325000E-05
					 1.51196000E-04	 0.00000000E+00	 1.91367000E-04
					 2.78737000E-04	 0.00000000E+00	 1.66163000E-04
					 1.51196000E-04	 0.00000000E+00	 1.91367000E-04
					 2.78737000E-04	 0.00000000E+00	 1.66163000E-04
					 1.50099000E-04	 0.00000000E+00	 4.75433000E-04
					 2.57525000E-04	 0.00000000E+00	 2.72049000E-04
					 1.50099000E-04	 0.00000000E+00	 4.75433000E-04
					 2.57525000E-04	 0.00000000E+00	 2.72049000E-04
					 0.00000000E+00	 0.00000000E+00	 0.00000000E+00
					 1.17809000E-04	 0.00000000E+00	 1.28882000E-05
					 0.00000000E+00	 0.00000000E+00	 0.00000000E+00
					 1.17809000E-04	 0.00000000E+00	 1.28882000E-05
					 1.28897000E-04	 0.00000000E+00	 2.06170000E-06
					 1.28897000E-04	 0.00000000E+00	 2.06170000E-06
					 1.15326000E-04	 0.00000000E+00	-1.64248000E-06
					 1.15326000E-04	 0.00000000E+00	-1.64248000E-06
					 1.13957000E-04	 0.00000000E+00	 1.58892000E-07
					 1.13957000E-04	 0.00000000E+00	 1.58892000E-07
					 1.15360000E-04	 0.00000000E+00	 1.85467000E-06
					 1.15360000E-04	 0.00000000E+00	 1.85467000E-06
					 1.29042000E-04	 0.00000000E+00	 6.47985000E-07
					 1.29042000E-04	 0.00000000E+00	 6.47985000E-07
					 1.15486000E-04	 0.00000000E+00	-5.74769000E-07
					 1.15486000E-04	 0.00000000E+00	-5.74769000E-07
					 1.14993000E-04	 0.00000000E+00	 1.18233000E-06
					 1.14993000E-04	 0.00000000E+00	 1.18233000E-06
					 1.16547000E-04	 0.00000000E+00	 2.87889000E-06
					 1.16547000E-04	 0.00000000E+00	 2.87889000E-06
					 1.29228000E-04	 0.00000000E+00	 1.76234000E-06
					 1.29228000E-04	 0.00000000E+00	 1.76234000E-06
					 1.16337000E-04	 0.00000000E+00	 7.01776000E-07
					 1.16337000E-04	 0.00000000E+00	 7.01776000E-07
					 1.16371000E-04	 0.00000000E+00	 2.78488000E-06
					 1.16371000E-04	 0.00000000E+00	 2.78488000E-06
					 1.18132000E-04	 0.00000000E+00	 4.88235000E-06
					 1.18132000E-04	 0.00000000E+00	 4.88235000E-06
					 1.28419000E-04	 0.00000000E+00	 4.57175000E-06
					 1.28419000E-04	 0.00000000E+00	 4.57175000E-06
					 1.17157000E-04	 0.00000000E+00	 5.12513000E-06
					 1.17157000E-04	 0.00000000E+00	 5.12513000E-06
					 1.19169000E-04	 0.00000000E+00	 1.10633000E-05
					 1.19169000E-04	 0.00000000E+00	 1.10633000E-05
					 1.23752000E-04	 0.00000000E+00	 2.43004000E-05
					 1.23752000E-04	 0.00000000E+00	 2.43004000E-05
					 1.31439000E-04	 0.00000000E+00	 6.36434000E-05
					 1.31439000E-04	 0.00000000E+00	 6.36434000E-05
					 1.41098000E-04	 0.00000000E+00	 1.89506000E-04
					 1.41098000E-04	 0.00000000E+00	 1.89506000E-04
					 8.78632000E-05	 0.00000000E+00	 3.51649000E-04
					 8.78632000E-05	 0.00000000E+00	 3.51649000E-04
				</DataArray>
				<DataArray type="Float32" Name="S" NumberOfComponents="10" ComponentName0="xx" ComponentName1="yy" ComponentName2="zz" ComponentName3="xy" ComponentName4="yz" ComponentName5="zx" ComponentName6="Mises" ComponentName7="Min Principal" ComponentName8="Mid Principal" ComponentName9="Max Principal" format="ascii">
					-9.59324000E+00	-9.78161000E+00	-3.91055000E+01	 0.00000000E+00	 0.00000000E+00	 6.89199000E+01	 1.22944327E+02	-9.48312541E+01	-9.78161000E+00	 4.61325141E+01
					-2.95205000E+00	-3.06700000E+00	-1.22763000E+01	 0.00000000E+00	 0.00000000E+00	 6.10895000E+01	 1.06215178E+02	-6.88813148E+01	-3.06700000E+00	 5.36529648E+01
					-6.49836000E+01	-1.63372000E+01	-1.65046000E+01	-1.68307000E-08	 0.00000000E+00	 2.51393000E+01	 6.52250723E+01	-7.56659809E+01	-1.63372000E+01	-5.82221911E+00
					 1.94857000E+01	 3.68003000E+00	-9.96884000E-01	-3.89499000E-08	 9.66977000E-09	 2.87721000E+01	 5.31894323E+01	-2.12960209E+01	 3.68003000E+00	 3.97848369E+01
					-9.59324000E+00	-9.78161000E+00	-3.91055000E+01	 0.00000000E+00	 0.00000000E+00	 6.89199000E+01	 1.22944327E+02	-9.48312541E+01	-9.78161000E+00	 4.61325141E+01
					-2.95205000E+00	-3.06700000E+00	-1.22763000E+01	 0.00000000E+00	 0.00000000E+00	 6.10895000E+01	 1.06215178E+02	-6.88813148E+01	-3.06700000E+00	 5.36529648E+01
					-6.49836000E+01	-1.63372000E+01	-1.65046000E+01	-1.68307000E-08	 0.00000000E+00	 2.51393000E+01	 6.52250723E+01	-7.56659809E+01	-1.63372000E+01	-5.82221911E+00
					 1.94857000E+01	 3.68003000E+00	-9.96884000E-01	-3.89499000E-08	 9.66977000E-09	 2.87721000E+01	 5.31894323E+01	-2.12960209E+01	 3.68003000E+00	 3.97848369E+01
					-6.62147000E+01	-1.51783000E+01	-9.53821000E+00	-1.45285000E-08	 6.65140000E-09	 1.74088000E+00	 5.41614865E+01	-6.62681227E+01	-1.51783000E+01	-9.48478733E+00
					 4.44259000E+00	 4.80557000E+00	 1.95918000E+01	-1.29811000E-08	 8.72312000E-09	-1.69010000E+00	 1.52545328E+01	 4.25632656E+00	 4.80557000E+00	 1.97780634E+01
					-6.62147000E+01	-1.51783000E+01	-9.53821000E+00	-1.45285000E-08	 6.65140000E-09	 1.74088000E+00	 5.41614865E+01	-6.62681227E+01	-1.51783000E+01	-9.48478733E+00
					 4.44259000E+00	 4.80557000E+00	 1.95918000E+01	-1.29811000E-08	 8.72312000E-09	-1.69010000E+00	 1.52545328E+01	 4.25632656E+00	 4.80557000E+00	 1.97780634E+01
					-5.39753000E+01	-1.34011000E+01	-1.29267000E+01	-1.10053000E-08	 6.62041000E-09	-3.26435000E+00	 4.12032414E+01	-5.42332730E+01	-1.34011000E+01	-1.26687270E+01
					 1.01183000E+01	 3.55806000E+00	 7.67467000E+00	-2.37364000E-08	 0.00000000E+00	-1.95326000E+00	 6.66505447E+00	 3.55806000E+00	 6.59256301E+00	 1.12004070E+01
					-5.39753000E+01	-1.34011000E+01	-1.29267000E+01	-1.10053000E-08	 6.62041000E-09	-3.26435000E+00	 4.12032414E+01	-5.42332730E+01	-1.34011000E+01	-1.26687270E+01
					 1.01183000E+01	 3.55806000E+00	 7.67467000E+00	-2.37364000E-08	 0.00000000E+00	-1.95326000E+00	 6.66505447E+00	 3.55806000E+00	 6.59256301E+00	 1.12004070E+01
					-5.13100000E+01	-1.31487000E+01	-1.43264000E+01	 7.21690000E-09	 0.00000000E+00	 3.14804000E-01	 3.75902452E+01	-5.13126794E+01	-1.43237206E+01	-1.31487000E+01
					 1.54683000E+01	 3.42921000E+00	 1.68134000E+00	 1.56473000E-08	 5.17179000E-09	 4.69412000E-01	 1.30268394E+01	 1.66537616E+00	 3.42921000E+00	 1.54842638E+01
					-5.13100000E+01	-1.31487000E+01	-1.43264000E+01	 7.21690000E-09	 0.00000000E+00	 3.14805000E-01	 3.75902453E+01	-5.13126794E+01	-1.43237206E+01	-1.31487000E+01
					 1.54683000E+01	 3.42921000E+00	 1.68134000E+00	 1.56473000E-08	 5.17179000E-09	 4.69412000E-01	 1.30268394E+01	 1.66537616E+00	 3.42921000E+00	 1.54842638E+01
					-5.03354000E+01	-1.24499000E+01	-1.18168000E+01	 7.16835000E-09	 3.18315000E-09	 2.50739000E+00	 3.84520253E+01	-5.04979341E+01	-1.24499000E+01	-1.16542659E+01
					 1.21911000E+01	 2.97248000E+00	 2.67481000E+00	-1.53409000E-08	 4.88128000E-09	 4.33764000E+00	 1.20108714E+01	 9.94394244E-01	 2.97248000E+00	 1.38715158E+01
					-5.03354000E+01	-1.24499000E+01	-1.18168000E+01	 7.16835000E-09	 3.18315000E-09	 2.50739000E+00	 3.84520253E+01	-5.04979341E+01	-1.24499000E+01	-1.16542659E+01
					 1.21911000E+01	 2.97248000E+00	 2.67481000E+00	-1.53409000E-08	 4.88128000E-09	 4.33764000E+00	 1.20108714E+01	 9.94394244E-01	 2.97248000E+00	 1.38715158E+01
					-5.47772000E+01	-1.32474000E+01	-1.13196000E+01	 9.86276000E-09	 2.74509000E-09	 7.01729000E-01	 4.25438494E+01	-5.47885282E+01	-1.32474000E+01	-1.13082718E+01
					 2.49930000E+01	 6.68568000E+00	 8.44622000E+00	 2.75415000E-08	 4.42778000E-09	 2.07274000E+00	 1.78582040E+01	 6.68568000E+00	 8.19052838E+00	 2.52486916E+01
					-5.47772000E+01	-1.32474000E+01	-1.13196000E+01	 9.86276000E-09	 2.74509000E-09	 7.01729000E-01	 4.25438494E+01	-5.47885282E+01	-1.32474000E+01	-1.13082718E+01
					 2.49930000E+01	 6.68568000E+00	 8.44622000E+00	 2.75415000E-08	 4.42778000E-09	 2.07274000E+00	 1.78582040E+01	 6.68568000E+00	 8.19052838E+00	 2.52486916E+01
					-4.02684000E+01	-1.00454000E+01	-9.87018000E+00	 1.02946000E-09	-2.79491000E-09	-1.31511000E+00	 3.03964578E+01	-4.03251892E+01	-1.00454000E+01	-9.81339084E+00
					 2.51963000E+01	 6.30738000E+00	 6.35038000E+00	 5.88603000E-09	 8.05655000E-09	-8.89188000E-01	 1.89302110E+01	 6.30738000E+00	 6.30851932E+00	 2.52381607E+01
					-4.02684000E+01	-1.00454000E+01	-9.87018000E+00	 1.02946000E-09	-2.79491000E-09	-1.31511000E+00	 3.03964578E+01	-4.03251892E+01	-1.00454000E+01	-9.81339084E+00
					 2.51963000E+01	 6.30738000E+00	 6.35038000E+00	 5.88602000E-09	 8.05655000E-09	-8.89188000E-01	 1.89302110E+01	 6.30738000E+00	 6.30851932E+00	 2.52381607E+01
					-3.48255000E+01	-8.87773000E+00	-9.46700000E+00	-1.17609000E-08	 1.49707000E-09	 7.85499000E-01	 2.56942560E+01	-3.48498081E+01	-9.44269187E+00	-8.87773000E+00
					 3.65373000E+01	 8.52887000E+00	 6.12708000E+00	-2.51200000E-08	 8.59362000E-09	 2.01285000E+00	 2.94900968E+01	 5.99442826E+00	 8.52887000E+00	 3.66699517E+01
					-3.48255000E+01	-8.87773000E+00	-9.46700000E+00	-1.17609000E-08	 1.49707000E-09	 7.85499000E-01	 2.56942560E+01	-3.48498081E+01	-9.44269187E+00	-8.87773000E+00
					 3.65373000E+01	 8.52887000E+00	 6.12708000E+00	-2.51200000E-08	 8.59362000E-09	 2.01285000E+00	 2.94900968E+01	 5.99442826E+00	 8.52887000E+00	 3.66699517E+01
					-3.07809000E+01	-7.43632000E+00	-6.31746000E+00	-8.97153000E-09	 5.61549000E-09	 3.26927000E+00	 2.45846488E+01	-3.12102661E+01	-7.43632000E+00	-5.88809393E+00
					 3.64908000E+01	 8.94993000E+00	 8.28136000E+00	-1.30841000E-08	 0.00000000E+00	 7.00502000E+00	 3.04067496E+01	 6.63763781E+00	 8.94993000E+00	 3.81345222E+01
					-3.07809000E+01	-7.43632000E+00	-6.31746000E+00	-8.97153000E-09	 5.61549000E-09	 3.26927000E+00	 2.45846488E+01	-3.12102661E+01	-7.43632000E+00	-5.88809393E+00
					 3.64908000E+01	 8.94993000E+00	 8.28136000E+00	-1.30841000E-08	 0.00000000E+00	 7.00502000E+00	 3.04067496E+01	 6.63763781E+00	 8.94993000E+00	 3.81345222E+01
					-2.50920000E+01	-5.91263000E+00	-4.34698000E+00	-9.11145000E-09	 0.00000000E+00	 1.44952000E+00	 2.01650936E+01	-2.51927928E+01	-5.91263000E+00	-4.24618718E+00
					 6.26575000E+01	 1.61556000E+01	 1.81820000E+01	-1.44961000E-09	 4.55484000E-09	 4.57621000E+00	 4.62074306E+01	 1.61556000E+01	 1.77160229E+01	 6.31234771E+01
					-2.50920000E+01	-5.91263000E+00	-4.34698000E+00	-9.11145000E-09	 0.00000000E+00	 1.44952000E+00	 2.01650936E+01	-2.51927928E+01	-5.91263000E+00	-4.24618718E+00
					 6.26575000E+01	 1.61556000E+01	 1.81820000E+01	-1.44960000E-09	 4.55484000E-09	 4.57621000E+00	 4.62074306E+01	 1.61556000E+01	 1.77160229E+01	 6.31234771E+01
					-8.56495000E+00	-2.07039000E+00	-1.70623000E+00	-1.22235000E-08	-3.52269000E-09	-7.44099000E-01	 6.80720435E+00	-8.64474849E+00	-2.07039000E+00	-1.62643151E+00
					 6.45961000E+01	 1.61492000E+01	 1.62126000E+01	 1.45080000E-09	-2.42124000E-09	 7.38005000E-01	 4.84321026E+01	 1.61492000E+01	 1.62013457E+01	 6.46073543E+01
					-8.56495000E+00	-2.07039000E+00	-1.70623000E+00	-1.22235000E-08	-3.52269000E-09	-7.44099000E-01	 6.80720435E+00	-8.64474849E+00	-2.07039000E+00	-1.62643151E+00
					 6.45962000E+01	 1.61492000E+01	 1.62126000E+01	 1.45080000E-09	-2.42124000E-09	 7.38005000E-01	 4.84322025E+01	 1.61492000E+01	 1.62013457E+01	 6.46074543E+01
					 2.02969000E+00	 8.39613000E-01	 2.26898000E+00	-1.89704000E-08	-1.41446000E-09	 1.64029000E+00	 3.13527835E+00	 5.04687253E-01	 8.39613000E-01	 3.79398275E+00
					 8.22124000E+01	 1.96565000E+01	 1.61714000E+01	-4.54655000E-08	-3.95563000E-09	 4.46594000E+00	 6.48323528E+01	 1.58707650E+01	 1.96565000E+01	 8.25130350E+01
					 2.02969000E+00	 8.39613000E-01	 2.26898000E+00	-1.89704000E-08	-1.41446000E-09	 1.64029000E+00	 3.13527835E+00	 5.04687253E-01	 8.39613000E-01	 3.79398275E+00
					 8.22124000E+01	 1.96565000E+01	 1.61714000E+01	-4.54655000E-08	-3.95563000E-09	 4.46594000E+00	 6.48323528E+01	 1.58707650E+01	 1.96565000E+01	 8.25130350E+01
					 1.27003000E+01	 3.95414000E+00	 7.16363000E+00	-7.05352000E-09	-2.63949000E-09	 4.91053000E+00	 1.14483773E+01	 3.95414000E+00	 4.29485727E+00	 1.55690727E+01
					 8.93562000E+01	 2.18877000E+01	 2.02088000E+01	-1.73584000E-09	-8.04762000E-09	 1.29280000E+01	 7.18991628E+01	 1.78707957E+01	 2.18877000E+01	 9.16942043E+01
					 1.27003000E+01	 3.95414000E+00	 7.16363000E+00	-7.05352000E-09	-2.63949000E-09	 4.91053000E+00	 1.14483773E+01	 3.95414000E+00	 4.29485727E+00	 1.55690727E+01
					 8.93562000E+01	 2.18877000E+01	 2.02088000E+01	-1.73585000E-09	-8.04762000E-09	 1.29280000E+01	 7.18991628E+01	 1.78707957E+01	 2.18877000E+01	 9.16942043E+01
					 4.21058000E+01	 1.11717000E+01	 1.39401000E+01	-6.21826000E-09	-2.25924000E-09	 3.51472000E+00	 3.02655644E+01	 1.11717000E+01	 1.35081327E+01	 4.25377673E+01
					 1.46268000E+02	 3.70907000E+01	 3.95111000E+01	-2.09937000E-08	-5.44712000E-09	 1.14237000E+01	 1.09785205E+02	 3.70907000E+01	 3.83023734E+01	 1.47476727E+02
					 4.21058000E+01	 1.11717000E+01	 1.39401000E+01	-6.21826000E-09	-2.25924000E-09	 3.51472000E+00	 3.02655644E+01	 1.11717000E+01	 1.35081327E+01	 4.25377673E+01
					 1.46268000E+02	 3.70907000E+01	 3.95111000E+01	-2.09937000E-08	-5.44712000E-09	 1.14237000E+01	 1.09785205E+02	 3.70907000E+01	 3.83023734E+01	 1.47476727E+02
					 6.89849000E+01	 1.84752000E+01	 2.35874000E+01	 5.72361000E-09	 2.90788000E-09	 1.71861000E+00	 4.82494514E+01	 1.84752000E+01	 2.35224317E+01	 6.90498683E+01
					 1.60013000E+02	 4.04851000E+01	 4.27957000E+01	 4.16461000E-09	-1.41854000E-08	 7.23818000E+00	 1.19051461E+02	 4.04851000E+01	 4.23504331E+01	 1.60458267E+02
					 6.89849000E+01	 1.84752000E+01	 2.35874000E+01	 5.72361000E-09	 2.90788000E-09	 1.71861000E+00	 4.82494514E+01	 1.84752000E+01	 2.35224317E+01	 6.90498683E+01
					 1.60013000E+02	 4.04851000E+01	 4.27957000E+01	 4.16460000E-09	-1.41854000E-08	 7.23818000E+00	 1.19051461E+02	 4.04851000E+01	 4.23504331E+01	 1.60458267E+02
					 1.01370000E+02	 3.00364000E+01	 4.91484000E+01	 3.75025000E-09	 0.00000000E+00	 5.41947000E+00	 6.46415906E+01	 3.00364000E+01	 4.85919067E+01	 1.01926493E+02
					 2.04317000E+02	 5.27022000E+01	 5.98211000E+01	 8.34646000E-09	-1.61415000E-09	 1.34520000E+01	 1.50004215E+02	 5.27022000E+01	 5.85794413E+01	 2.05558659E+02
					 1.01370000E+02	 3.00364000E+01	 4.91484000E+01	 3.75025000E-09	 0.00000000E+00	 5.41947000E+00	 6.46415906E+01	 3.00364000E+01	 4.85919067E+01	 1.01926493E+02
					 2.04317000E+02	 5.27022000E+01	 5.98211000E+01	 8.34645000E-09	-1.61415000E-09	 1.34520000E+01	 1.50004215E+02	 5.27022000E+01	 5.85794413E+01	 2.05558659E+02
					 1.43512000E+02	 4.90848000E+01	 1.02472000E+02	 2.76725000E-09	 4.88970000E-09	 1.09957000E+01	 8.41914584E+01	 4.90848000E+01	 9.97116259E+01	 1.46272374E+02
					 2.49745000E+02	 7.46645000E+01	 1.24626000E+02	 4.64387000E-09	 2.98846000E-09	 2.66593000E+01	 1.62893227E+02	 7.46645000E+01	 1.19182490E+02	 2.55188510E+02
					 1.43512000E+02	 4.90848000E+01	 1.02472000E+02	 2.76725000E-09	 4.88970000E-09	 1.09957000E+01	 8.41914584E+01	 4.90848000E+01	 9.97116259E+01	 1.46272374E+02
					 2.49745000E+02	 7.46645000E+01	 1.24626000E+02	 4.64387000E-09	 2.98846000E-09	 2.66593000E+01	 1.62893227E+02	 7.46645000E+01	 1.19182490E+02	 2.55188510E+02
					 2.58814000E+02	 1.05663000E+02	 2.71682000E+02	 1.77454000E-08	 3.91730000E-09	 2.92442000E+00	 1.60053797E+02	 1.05663000E+02	 2.58180568E+02	 2.72315432E+02
					 3.97592000E+02	 1.38848000E+02	 2.99831000E+02	 3.88660000E-08	 7.32103000E-09	 1.52895000E+01	 2.27841842E+02	 1.38848000E+02	 2.97495564E+02	 3.99927436E+02
					 2.58814000E+02	 1.05663000E+02	 2.71682000E+02	 1.77454000E-08	 3.91730000E-09	 2.92442000E+00	 1.60053797E+02	 1.05663000E+02	 2.58180568E+02	 2.72315432E+02
					 3.97592000E+02	 1.38848000E+02	 2.99831000E+02	 3.88659000E-08	 7.32103000E-09	 1.52895000E+01	 2.27841842E+02	 1.38848000E+02	 2.97495564E+02	 3.99927436E+02
					 3.20299000E+02	 1.82195000E+02	 5.97165000E+02	 6.63935000E-09	-6.22598000E-09	-1.44769000E+01	 3.66868561E+02	 1.82195000E+02	 3.19544083E+02	 5.97919917E+02
					 4.15064000E+02	 1.58796000E+02	 3.82396000E+02	 4.14214000E-08	 1.69915000E-08	-3.88365000E+01	 2.50785853E+02	 1.58796000E+02	 3.56598381E+02	 4.40861619E+02
					 3.20299000E+02	 1.82195000E+02	 5.97165000E+02	 6.63936000E-09	-6.22597000E-09	-1.44769000E+01	 3.66868561E+02	 1.82195000E+02	 3.19544083E+02	 5.97919917E+02
					 4.15064000E+02	 1.58796000E+02	 3.82396000E+02	 4.14214000E-08	 1.69915000E-08	-3.88365000E+01	 2.50785853E+02	 1.58796000E+02	 3.56598381E+02	 4.40861619E+02
					 4.15344000E+02	 2.44886000E+02	 8.20317000E+02	-1.03359000E-08	-9.13120000E-09	-4.17564000E+01	 5.17030694E+02	 2.44886000E+02	 4.11083361E+02	 8.24577639E+02
					 3.58620000E+02	 1.42025000E+02	 3.55774000E+02	-4.58887000E-08	 2.71179000E-08	-2.26735000E+02	 4.47807263E+02	 1.30457535E+02	 1.42025000E+02	 5.83936465E+02
					 4.15344000E+02	 2.44886000E+02	 8.20317000E+02	-1.03359000E-08	-9.13119000E-09	-4.17564000E+01	 5.17030694E+02	 2.44886000E+02	 4.11083361E+02	 8.24577639E+02
					 3.58620000E+02	 1.42025000E+02	 3.55774000E+02	-4.58887000E-08	 2.71179000E-08	-2.26735000E+02	 4.47807263E+02	 1.30457535E+02	 1.42025000E+02	 5.83936465E+02
					 9.17227000E+00	 8.68404000E+00	 3.47349000E+01	 0.00000000E+00	 0.00000000E+00	 1.17870000E+02	 2.05781869E+02	-9.66073652E+01	 8.68404000E+00	 1.40514535E+02
					-1.49979000E+02	-3.70796000E+01	-3.49087000E+01	-7.44762000E-09	 3.25824000E-09	 4.68790000E+01	 1.39960718E+02	-1.66659307E+02	-3.70796000E+01	-1.82283925E+01
					 9.17227000E+00	 8.68404000E+00	 3.47349000E+01	 0.00000000E+00	 0.00000000E+00	 1.17870000E+02	 2.05781869E+02	-9.66073652E+01	 8.68404000E+00	 1.40514535E+02