<?xml version="1.0"?>
<VTKFile type="UnstructuredGrid" version="0.1" byte_order="LittleEndian">
	<UnstructuredGrid>
		<Piece NumberOfPoints="126" NumberOfCells="40">
			<Points>
				<DataArray type="Float64" NumberOfComponents="3" format="ascii">
					 5.00000000E-02	 0.00000000E+00	 0.00000000E+00
					 0.00000000E+00	 0.00000000E+00	 0.00000000E+00
					 0.00000000E+00	 0.00000000E+00	 5.00000000E-02
					 5.00000000E-02	 0.00000000E+00	 5.00000000E-02
					 5.00000000E-02	 3.00000000E-01	 0.00000000E+00
					 0.00000000E+00	 3.00000000E-01	 0.00000000E+00
					 0.00000000E+00	 3.00000000E-01	 5.00000000E-02
					 5.00000000E-02	 3.00000000E-01	 5.00000000E-02
					 0.00000000E+00	 0.00000000E+00	 1.00000000E-01
					 5.00000000E-02	 0.00000000E+00	 1.00000000E-01
					 0.00000000E+00	 3.00000000E-01	 1.00000000E-01
					 5.00000000E-02	 3.00000000E-01	 1.00000000E-01
					 0.00000000E+00	 0.00000000E+00	 1.50000000E-01
					 5.00000000E-02	 0.00000000E+00	 1.50000000E-01
					 0.00000000E+00	 3.00000000E-01	 1.50000000E-01
					 5.00000000E-02	 3.00000000E-01	 1.50000000E-01
					 0.00000000E+00	 0.00000000E+00	 2.00000000E-01
					 5.00000000E-02	 0.00000000E+00	 2.00000000E-01
					 0.00000000E+00	 3.00000000E-01	 2.00000000E-01
					 5.00000000E-02	 3.00000000E-01	 2.00000000E-01
					 0.00000000E+00	 0.00000000E+00	 2.50000000E-01
					 5.00000000E-02	 0.00000000E+00	 2.50000000E-01
					 0.00000000E+00	 3.00000000E-01	 2.50000000E-01
					 5.00000000E-02	 3.00000000E-01	 2.50000000E-01
					 0.00000000E+00	 0.00000000E+00	 3.00000000E-01
					 5.00000000E-02	 0.00000000E+00	 3.00000000E-01
					 0.00000000E+00	 3.00000000E-01	 3.00000000E-01
					 5.00000000E-02	 3.00000000E-01	 3.00000000E-01
					 0.00000000E+00	 0.00000000E+00	 3.50000000E-01
					 5.00000000E-02	 0.00000000E+00	 3.50000000E-01
					 0.00000000E+00	 3.00000000E-01	 3.50000000E-01
					 5.00000000E-02	 3.00000000E-01	 3.50000000E-01
					 0.00000000E+00	 0.00000000E+00	 4.00000000E-01
					 5.00000000E-02	 0.00000000E+00	 4.00000000E-01
					 0.00000000E+00	 3.00000000E-01	 4.00000000E-01
					 5.00000000E-02	 3.00000000E-01	 4.00000000E-01
					 0.00000000E+00	 0.00000000E+00	 4.50000000E-01
					 5.00000000E-02	 0.00000000E+00	 4.50000000E-01
					 0.00000000E+00	 3.00000000E-01	 4.50000000E-01
					 5.00000000E-02	 3.00000000E-01	 4.50000000E-01
					 0.00000000E+00	 0.00000000E+00	 5.00000000E-01
					 5.00000000E-02	 0.00000000E+00	 5.00000000E-01
					 0.00000000E+00	 3.00000000E-01	 5.00000000E-01
					 5.00000000E-02	 3.00000000E-01	 5.00000000E-01
					 0.00000000E+00	 0.00000000E+00	 5.50000000E-01
					 5.00000000E-02	 0.00000000E+00	 5.50000000E-01
					 0.00000000E+00	 3.00000000E-01	 5.50000000E-01
					 5.00000000E-02	 3.00000000E-01	 5.50000000E-01
					 0.00000000E+00	 0.00000000E+00	 6.00000000E-01
					 5.00000000E-02	 0.00000000E+00	 6.00000000E-01
					 0.00000000E+00	 3.00000000E-01	 6.00000000E-01
					 5.00000000E-02	 3.00000000E-01	 6.00000000E-01
					 0.00000000E+00	 0.00000000E+00	 6.50000000E-01
					 5.00000000E-02	 0.00000000E+00	 6.50000000E-01
					 0.00000000E+00	 3.00000000E-01	 6.50000000E-01
					 5.00000000E-02	 3.00000000E-01	 6.50000000E-01
					 0.00000000E+00	 0.00000000E+00	 7.00000000E-01
					 5.00000000E-02	 0.00000000E+00	 7.00000000E-01
					 0.00000000E+00	 3.00000000E-01	 7.00000000E-01
					 5.00000000E-02	 3.00000000E-01	 7.00000000E-01
					 0.00000000E+00	 0.00000000E+00	 7.50000000E-01
					 5.00000000E-02	 0.00000000E+00	 7.50000000E-01
					 0.00000000E+00	 3.00000000E-01	 7.50000000E-01
					 5.00000000E-02	 3.00000000E-01	 7.50000000E-01
					 0.00000000E+00	 0.00000000E+00	 8.00000000E-01
					 5.00000000E-02	 0.00000000E+00	 8.00000000E-01
					 0.00000000E+00	 3.00000000E-01	 8.00000000E-01
					 5.00000000E-02	 3.00000000E-01	 8.00000000E-01
					 0.00000000E+00	 0.00000000E+00	 8.50000000E-01
					 5.00000000E-02	 0.00000000E+00	 8.50000000E-01
					 0.00000000E+00	 3.00000000E-01	 8.50000000E-01
					 5.00000000E-02	 3.00000000E-01	 8.50000000E-01
					 0.00000000E+00	 0.00000000E+00	 9.00000000E-01
					 5.00000000E-02	 0.00000000E+00	 9.00000000E-01
					 0.00000000E+00	 3.00000000E-01	 9.00000000E-01
					 5.00000000E-02	 3.00000000E-01	 9.00000000E-01
					 0.00000000E+00	 0.00000000E+00	 9.50000000E-01
					 5.00000000E-02	 0.00000000E+00	 9.50000000E-01
					 0.00000000E+00	 3.00000000E-01	 9.50000000E-01
					 5.00000000E-02	 3.00000000E-01	 9.50000000E-01
					 0.00000000E+00	 0.00000000E+00	 1.00000000E+00
					 5.00000000E-02	 0.00000000E+00	 1.00000000E+00
					 0.00000000E+00	 3.00000000E-01	 1.00000000E+00
					 5.00000000E-02	 3.00000000E-01	 1.00000000E+00
					-5.00000000E-02	 0.00000000E+00	 0.00000000E+00
					-5.00000000E-02	 0.00000000E+00	 5.00000000E-02
					-5.00000000E-02	 3.00000000E-01	 0.00000000E+00
					-5.00000000E-02	 3.00000000E-01	 5.00000000E-02
					-5.00000000E-02	 0.00000000E+00	 1.00000000E-01
					-5.00000000E-02	 3.00000000E-01	 1.00000000E-01
					-5.00000000E-02	 0.00000000E+00	 1.50000000E-01
					-5.00000000E-02	 3.00000000E-01	 1.50000000E-01
					-5.00000000E-02	 0.00000000E+00	 2.00000000E-01
					-5.00000000E-02	 3.00000000E-01	 2.00000000E-01
					-5.00000000E-02	 0.00000000E+00	 2.50000000E-01
					-5.00000000E-02	 3.00000000E-01	 2.50000000E-01
					-5.00000000E-02	 0.00000000E+00	 3.00000000E-01
					-5.00000000E-02	 3.00000000E-01	 3.00000000E-01
					-5.00000000E-02	 0.00000000E+00	 3.50000000E-01
					-5.00000000E-02	 3.00000000E-01	 3.50000000E-01
					-5.00000000E-02	 0.00000000E+00	 4.00000000E-01
					-5.00000000E-02	 3.00000000E-01	 4.00000000E-01
					-5.00000000E-02	 0.00000000E+00	 4.50000000E-01
					-5.00000000E-02	 3.00000000E-01	 4.50000000E-01
					-5.00000000E-02	 0.00000000E+00	 5.00000000E-01
					-5.00000000E-02	 3.00000000E-01	 5.00000000E-01
					-5.00000000E-02	 0.00000000E+00	 5.50000000E-01
					-5.00000000E-02	 3.00000000E-01	 5.50000000E-01
					-5.00000000E-02	 0.00000000E+00	 6.00000000E-01
					-5.00000000E-02	 3.00000000E-01	 6.00000000E-01
					-5.00000000E-02	 0.00000000E+00	 6.50000000E-01
					-5.00000000E-02	 3.00000000E-01	 6.50000000E-01
					-5.00000000E-02	 0.00000000E+00	 7.00000000E-01
					-5.00000000E-02	 3.00000000E-01	 7.00000000E-01
					-5.00000000E-02	 0.00000000E+00	 7.50000000E-01
					-5.00000000E-02	 3.00000000E-01	 7.50000000E-01
					-5.00000000E-02	 0.00000000E+00	 8.00000000E-01
					-5.00000000E-02	 3.00000000E-01	 8.00000000E-01
					-5.00000000E-02	 0.00000000E+00	 8.50000000E-01
					-5.00000000E-02	 3.00000000E-01	 8.50000000E-01
					-5.00000000E-02	 0.00000000E+00	 9.00000000E-01
					-5.00000000E-02	 3.00000000E-01	 9.00000000E-01
					-5.00000000E-02	 0.00000000E+00	 9.50000000E-01
					-5.00000000E-02	 3.00000000E-01	 9.50000000E-01
					-5.00000000E-02	 0.00000000E+00	 1.00000000E+00
					-5.00000000E-02	 3.00000000E-01	 1.00000000E+00

				</DataArray>
			</Points>
			<Cells>
				<DataArray type="Int32" Name="connectivity" format="ascii">
					0 1 2 3 4 5 6 7 3 2 8 9 7 6 10 11 9 8 12 13 11 10 14 15 13 12 16 17 15 14 18 19 17 16 20 21 19 18 22 23 21 20 24 25 23 22 26 27 25 24 28 29 27 26 30 31 29 28 32 33 31 30 34 35 33 32 36 37 35 34 38 39 37 36 40 41 39 38 42 43 41 40 44 45 43 42 46 47 45 44 48 49 47 46 50 51 49 48 52 53 51 50 54 55 53 52 56 57 55 54 58 59 57 56 60 61 59 58 62 63 61 60 64 65 63 62 66 67 65 64 68 69 67 66 70 71 69 68 72 73 71 70 74 75 73 72 76 77 75 74 78 79 77 76 80 81 79 78 82 83 1 84 85 2 5 86 87 6 2 85 88 8 6 87 89 10 8 88 90 12 10 89 91 14 12 90 92 16 14 91 93 18 16 92 94 20 18 93 95 22 20 94 96 24 22 95 97 26 24 96 98 28 26 97 99 30 28 98 100 32 30 99 101 34 32 100 102 36 34 101 103 38 36 102 104 40 38 103 105 42 40 104 106 44 42 105 107 46 44 106 108 48 46 107 109 50 48 108 110 52 50 109 111 54 52 110 112 56 54 111 113 58 56 112 114 60 58 113 115 62 60 114 116 64 62 115 117 66 64 116 118 68 66 117 119 70 68 118 120 72 70 119 121 74 72 120 122 76 74 121 123 78 76 122 124 80 78 123 125 82 
				</DataArray>
				<DataArray type="Int32" Name="offsets" format="ascii">
					8 16 24 32 40 48 56 64 72 80 88 96 104 112 120 128 136 144 152 160 168 176 184 192 200 208 216 224 232 240 248 256 264 272 280 288 296 304 312 320 
				</DataArray>
				<DataArray type="UInt8" Name="types" format="ascii">
					12 12 12 12 12 12 12 12 12 12 12 12 12 12 12 12 12 12 12 12 12 12 12 12 12 12 12 12 12 12 12 12 12 12 12 12 12 12 12 12 
				</DataArray>
			</Cells>
			<PointData>
				<DataArray type="Float32" Name="U" NumberOfComponents="3" ComponentName0="D1" ComponentName1="D2" ComponentName2="D3" format="ascii">
					 0.00000000E+00	 0.00000000E+00	 0.00000000E+00
					 0.00000000E+00	 0.00000000E+00	 0.00000000E+00
					 3.69266000E-03	 0.00000000E+00	-5.55158000E-04
					 4.05554000E-03	 0.00000000E+00	-6.35845000E-03
					 0.00000000E+00	 0.00000000E+00	 0.00000000E+00
					 0.00000000E+00	 0.00000000E+00	 0.00000000E+00
					 3.69266000E-03	 0.00000000E+00	-5.55158000E-04
					 4.05554000E-03	 0.00000000E+00	-6.35845000E-03
					 1.29495000E-02	 0.00000000E+00	-1.60202000E-03
					 1.22444000E-02	 0.00000000E+00	-1.18687000E-02
					 1.29495000E-02	 0.00000000E+00	-1.60202000E-03
					 1.22444000E-02	 0.00000000E+00	-1.18687000E-02
					 2.57460000E-02	 0.00000000E+00	-3.35743000E-03
					 2.42103000E-02	 0.00000000E+00	-1.67168000E-02
					 2.57460000E-02	 0.00000000E+00	-3.35743000E-03
					 2.42103000E-02	 0.00000000E+00	-1.67168000E-02
					 4.09878000E-02	 0.00000000E+00	-5.75333000E-03
					 3.87418000E-02	 0.00000000E+00	-2.10578000E-02
					 4.09878000E-02	 0.00000000E+00	-5.75333000E-03
					 3.87418000E-02	 0.00000000E+00	-2.10578000E-02
					 5.76090000E-02	 0.00000000E+00	-8.56441000E-03
					 5.49146000E-02	 0.00000000E+00	-2.48643000E-02
					 5.76090000E-02	 0.00000000E+00	-8.56441000E-03
					 5.49146000E-02	 0.00000000E+00	-2.48643000E-02
					 7.47386000E-02	 0.00000000E+00	-1.15176000E-02
					 7.18530000E-02	 0.00000000E+00	-2.80427000E-02
					 7.47386000E-02	 0.00000000E+00	-1.15176000E-02
					 7.18530000E-02	 0.00000000E+00	-2.80427000E-02
					 9.16852000E-02	 0.00000000E+00	-1.43683000E-02
					 8.88474000E-02	 0.00000000E+00	-3.05259000E-02
					 9.16852000E-02	 0.00000000E+00	-1.43683000E-02
					 8.88474000E-02	 0.00000000E+00	-3.05259000E-02
					 1.07924000E-01	 0.00000000E+00	-1.69468000E-02
					 1.05299000E-01	 0.00000000E+00	-3.22827000E-02
					 1.07924000E-01	 0.00000000E+00	-1.69468000E-02
					 1.05299000E-01	 0.00000000E+00	-3.22827000E-02
					 1.23066000E-01	 0.00000000E+00	-1.91531000E-02
					 1.20753000E-01	 0.00000000E+00	-3.33478000E-02
					 1.23066000E-01	 0.00000000E+00	-1.91531000E-02
					 1.20753000E-01	 0.00000000E+00	-3.33478000E-02
					 1.36852000E-01	 0.00000000E+00	-2.09541000E-02
					 1.34895000E-01	 0.00000000E+00	-3.38061000E-02
					 1.36852000E-01	 0.00000000E+00	-2.09541000E-02
					 1.34895000E-01	 0.00000000E+00	-3.38061000E-02
					 1.49141000E-01	 0.00000000E+00	-2.23644000E-02
					 1.47551000E-01	 0.00000000E+00	-3.37596000E-02
					 1.49141000E-01	 0.00000000E+00	-2.23644000E-02
					 1.47551000E-01	 0.00000000E+00	-3.37596000E-02
					 1.59871000E-01	 0.00000000E+00	-2.34164000E-02
					 1.58612000E-01	 0.00000000E+00	-3.33059000E-02
					 1.59871000E-01	 0.00000000E+00	-2.34164000E-02
					 1.58612000E-01	 0.00000000E+00	-3.33059000E-02
					 1.69026000E-01	 0.00000000E+00	-2.41530000E-02
					 1.68054000E-01	 0.00000000E+00	-3.25637000E-02
					 1.69026000E-01	 0.00000000E+00	-2.41530000E-02
					 1.68054000E-01	 0.00000000E+00	-3.25637000E-02
					 1.76655000E-01	 0.00000000E+00	-2.46391000E-02
					 1.75923000E-01	 0.00000000E+00	-3.16732000E-02
					 1.76655000E-01	 0.00000000E+00	-2.46391000E-02
					 1.75923000E-01	 0.00000000E+00	-3.16732000E-02
					 1.82903000E-01	 0.00000000E+00	-2.49534000E-02
					 1.82373000E-01	 0.00000000E+00	-3.07851000E-02
					 1.82903000E-01	 0.00000000E+00	-2.49534000E-02
					 1.82373000E-01	 0.00000000E+00	-3.07851000E-02
					 1.88014000E-01	 0.00000000E+00	-2.51698000E-02
					 1.87635000E-01	 0.00000000E+00	-3.00218000E-02
					 1.88014000E-01	 0.00000000E+00	-2.51698000E-02
					 1.87635000E-01	 0.00000000E+00	-3.00218000E-02
					 1.92257000E-01	 0.00000000E+00	-2.53378000E-02
					 1.91987000E-01	 0.00000000E+00	-2.94576000E-02
					 1.92257000E-01	 0.00000000E+00	-2.53378000E-02
					 1.91987000E-01	 0.00000000E+00	-2.94576000E-02
					 1.95896000E-01	 0.00000000E+00	-2.54821000E-02
					 1.95697000E-01	 0.00000000E+00	-2.91254000E-02
					 1.95896000E-01	 0.00000000E+00	-2.54821000E-02
					 1.95697000E-01	 0.00000000E+00	-2.91254000E-02
					 1.99213000E-01	 0.00000000E+00	-2.56093000E-02
					 1.99061000E-01	 0.00000000E+00	-2.90243000E-02
					 1.99213000E-01	 0.00000000E+00	-2.56093000E-02
					 1.99061000E-01	 0.00000000E+00	-2.90243000E-02
					 2.02508000E-01	 0.00000000E+00	-2.57235000E-02
					 2.02373000E-01	 0.00000000E+00	-2.90879000E-02
					 2.02508000E-01	 0.00000000E+00	-2.57235000E-02
					 2.02373000E-01	 0.00000000E+00	-2.90879000E-02
					 0.00000000E+00	 0.00000000E+00	 0.00000000E+00
					 4.95177000E-03	 0.00000000E+00	 5.03466000E-03
					 0.00000000E+00	 0.00000000E+00	 0.00000000E+00
					 4.95177000E-03	 0.00000000E+00	 5.03466000E-03
					 1.45481000E-02	 0.00000000E+00	 8.36761000E-03
					 1.45481000E-02	 0.00000000E+00	 8.36761000E-03
					 2.79287000E-02	 0.00000000E+00	 9.74356000E-03
					 2.79287000E-02	 0.00000000E+00	 9.74356000E-03
					 4.36200000E-02	 0.00000000E+00	 9.39101000E-03
					 4.36200000E-02	 0.00000000E+00	 9.39101000E-03
					 6.04826000E-02	 0.00000000E+00	 7.67034000E-03
					 6.04826000E-02	 0.00000000E+00	 7.67034000E-03
					 7.76386000E-02	 0.00000000E+00	 5.01235000E-03
					 7.76386000E-02	 0.00000000E+00	 5.01235000E-03
					 9.43981000E-02	 0.00000000E+00	 1.84238000E-03
					 9.43981000E-02	 0.00000000E+00	 1.84238000E-03
					 1.10328000E-01	 0.00000000E+00	-1.52720000E-03
					 1.10328000E-01	 0.00000000E+00	-1.52720000E-03
					 1.25087000E-01	 0.00000000E+00	-4.86260000E-03
					 1.25087000E-01	 0.00000000E+00	-4.86260000E-03
					 1.38480000E-01	 0.00000000E+00	-8.01542000E-03
					 1.38480000E-01	 0.00000000E+00	-8.01542000E-03
					 1.50375000E-01	 0.00000000E+00	-1.08892000E-02
					 1.50375000E-01	 0.00000000E+00	-1.08892000E-02
					 1.60774000E-01	 0.00000000E+00	-1.34548000E-02
					 1.60774000E-01	 0.00000000E+00	-1.34548000E-02
					 1.69655000E-01	 0.00000000E+00	-1.56892000E-02
					 1.69655000E-01	 0.00000000E+00	-1.56892000E-02
					 1.77084000E-01	 0.00000000E+00	-1.75782000E-02
					 1.77084000E-01	 0.00000000E+00	-1.75782000E-02
					 1.83176000E-01	 0.00000000E+00	-1.91122000E-02
					 1.83176000E-01	 0.00000000E+00	-1.91122000E-02
					 1.88200000E-01	 0.00000000E+00	-2.03141000E-02
					 1.88200000E-01	 0.00000000E+00	-2.03141000E-02
					 1.92397000E-01	 0.00000000E+00	-2.12150000E-02
					 1.92397000E-01	 0.00000000E+00	-2.12150000E-02
					 1.96031000E-01	 0.00000000E+00	-2.18368000E-02
					 1.96031000E-01	 0.00000000E+00	-2.18368000E-02
					 1.99351000E-01	 0.00000000E+00	-2.21962000E-02
					 1.99351000E-01	 0.00000000E+00	-2.21962000E-02
					 2.02646000E-01	 0.00000000E+00	-2.23614000E-02
					 2.02646000E-01	 0.00000000E+00	-2.23614000E-02
				</DataArray>
				<DataArray type="Float32" Name="S" NumberOfComponents="10" ComponentName0="xx" ComponentName1="yy" ComponentName2="zz" ComponentName3="xy" ComponentName4="yz" ComponentName5="zx" ComponentName6="Mises" ComponentName7="Min Principal" ComponentName8="Mid Principal" ComponentName9="Max Principal" format="ascii">
					-3.90939000E+03	-4.41455000E+03	-1.41035000E+04	-1.07389000E-09	 0.00000000E+00	 2.82924000E+03	 1.10923039E+04	-1.48360735E+04	-4.41455000E+03	-3.17681648E+03
					 1.37392000E+02	-2.78888000E+02	-1.77799000E+03	 0.00000000E+00	 0.00000000E+00	 3.55147000E+03	 6.39401748E+03	-4.49862895E+03	-2.78888000E+02	 2.85803095E+03
					-6.25530000E+01	-2.86007000E+02	-1.59563000E+03	 2.51823000E-08	-1.73673000E-08	 6.53573000E+02	 1.82733620E+03	-1.83643401E+03	-2.86007000E+02	 1.78251013E+02
					-1.65288000E+03	-3.30239000E+03	-1.22131000E+04	-7.24936000E-09	-4.05067000E-08	-3.41588000E+02	 9.85748387E+03	-1.22241377E+04	-3.30239000E+03	-1.64184230E+03
					-3.90939000E+03	-4.41455000E+03	-1.41035000E+04	-1.07389000E-09	 0.00000000E+00	 2.82924000E+03	 1.10923039E+04	-1.48360735E+04	-4.41455000E+03	-3.17681648E+03
					 1.37392000E+02	-2.78888000E+02	-1.77799000E+03	 0.00000000E+00	 0.00000000E+00	 3.55147000E+03	 6.39401748E+03	-4.49862895E+03	-2.78888000E+02	 2.85803095E+03
					-6.25530000E+01	-2.86007000E+02	-1.59563000E+03	 2.51822000E-08	-1.73673000E-08	 6.53573000E+02	 1.82733620E+03	-1.83643401E+03	-2.86007000E+02	 1.78251013E+02
					-1.65288000E+03	-3.30239000E+03	-1.22131000E+04	-7.24924000E-09	-4.05066000E-08	-3.41588000E+02	 9.85748387E+03	-1.22241377E+04	-3.30239000E+03	-1.64184230E+03
					 8.72911000E+01	-1.67364000E+02	-1.10210000E+03	 3.08401000E-08	-2.72494000E-08	 7.62040000E+02	 1.70842933E+03	-1.47403145E+03	-1.67364000E+02	 4.59222551E+02
					-1.77221000E+03	-2.53198000E+03	-9.38150000E+03	 6.88073000E-08	-4.14939000E-08	-9.62728000E+02	 7.44834009E+03	-9.50141469E+03	-2.53198000E+03	-1.65229531E+03
					 8.72911000E+01	-1.67364000E+02	-1.10210000E+03	 3.08400000E-08	-2.72493000E-08	 7.62040000E+02	 1.70842933E+03	-1.47403145E+03	-1.67364000E+02	 4.59222551E+02
					-1.77221000E+03	-2.53198000E+03	-9.38150000E+03	 6.88070000E-08	-4.14943000E-08	-9.62728000E+02	 7.44834009E+03	-9.50141469E+03	-2.53198000E+03	-1.65229531E+03
					 2.48340000E+02	-8.46502000E+01	-7.44617000E+02	 5.00607000E-08	-3.84352000E-08	 6.55834000E+02	 1.43406968E+03	-1.07070104E+03	-8.46502000E+01	 5.74424043E+02
					-1.08995000E+03	-1.64402000E+03	-6.45102000E+03	 3.92090000E-08	-4.02344000E-08	-8.47053000E+02	 5.31320557E+03	-6.58167099E+03	-1.64402000E+03	-9.59299010E+02
					 2.48340000E+02	-8.46502000E+01	-7.44617000E+02	 5.00603000E-08	-3.84357000E-08	 6.55834000E+02	 1.43406968E+03	-1.07070104E+03	-8.46502000E+01	 5.74424043E+02
					-1.08995000E+03	-1.64402000E+03	-6.45102000E+03	 3.92089000E-08	-4.02329000E-08	-8.47053000E+02	 5.31320557E+03	-6.58167099E+03	-1.64402000E+03	-9.59299010E+02
					 3.00314000E+02	-3.64472000E+01	-5.03749000E+02	 8.97351000E-08	-2.37996000E-08	 6.01796000E+02	 1.25523841E+03	-8.25449324E+02	-3.64472000E+01	 6.22014324E+02
					-6.13061000E+02	-9.62274000E+02	-3.94871000E+03	 6.26096000E-08	-5.00797000E-08	-4.88611000E+02	 3.28631619E+03	-4.01880934E+03	-9.62274000E+02	-5.42961660E+02
					 3.00314000E+02	-3.64472000E+01	-5.03749000E+02	 8.97362000E-08	-2.37991000E-08	 6.01796000E+02	 1.25523841E+03	-8.25449324E+02	-3.64472000E+01	 6.22014324E+02
					-6.13061000E+02	-9.62274000E+02	-3.94871000E+03	 6.26078000E-08	-5.00817000E-08	-4.88611000E+02	 3.28631619E+03	-4.01880934E+03	-9.62274000E+02	-5.42961660E+02
					 2.82714000E+02	-7.29289000E+00	-3.16207000E+02	 1.03045000E-07	-3.15526000E-08	 5.36973000E+02	 1.06495970E+03	-6.31577041E+02	-7.29289000E+00	 5.98084041E+02
					-1.58183000E+02	-4.01942000E+02	-1.79337000E+03	 1.01214000E-07	-5.64078000E-08	-1.73200000E+01	 1.52825501E+03	-1.79355343E+03	-4.01942000E+02	-1.57999566E+02
					 2.82714000E+02	-7.29289000E+00	-3.16207000E+02	 1.03045000E-07	-3.15535000E-08	 5.36973000E+02	 1.06495970E+03	-6.31577041E+02	-7.29289000E+00	 5.98084041E+02
					-1.58183000E+02	-4.01942000E+02	-1.79337000E+03	 1.01219000E-07	-5.64070000E-08	-1.73200000E+01	 1.52825501E+03	-1.79355343E+03	-4.01942000E+02	-1.57999566E+02
					 1.97803000E+02	 5.20730000E+00	-1.63619000E+02	 1.61300000E-07	-6.76702000E-08	 4.77351000E+02	 8.84139454E+02	-4.93320032E+02	 5.20730000E+00	 5.27504032E+02
					 1.93301000E+02	 3.68772000E+01	 8.89486000E+00	 1.64190000E-07	-2.88177000E-08	 4.36504000E+02	 7.75393930E+02	-3.45037866E+02	 3.68772000E+01	 5.47233726E+02
					 1.97803000E+02	 5.20730000E+00	-1.63619000E+02	 1.61299000E-07	-6.76702000E-08	 4.77351000E+02	 8.84139454E+02	-4.93320032E+02	 5.20730000E+00	 5.27504032E+02
					 1.93301000E+02	 3.68772000E+01	 8.89487000E+00	 1.64188000E-07	-2.88178000E-08	 4.36504000E+02	 7.75393929E+02	-3.45037860E+02	 3.68772000E+01	 5.47233730E+02
					 1.39755000E+02	 2.30724000E+01	-2.17454000E+01	 1.10251000E-07	-2.57043000E-08	 4.03162000E+02	 7.13072028E+02	-3.52164500E+02	 2.30724000E+01	 4.70174100E+02
					 4.70470000E+02	 3.79444000E+02	 1.48399000E+03	 9.88478000E-08	 4.28338000E-08	 7.83113000E+02	 1.72266163E+03	 4.44536772E+01	 3.79444000E+02	 1.91000632E+03
					 1.39755000E+02	 2.30724000E+01	-2.17454000E+01	 1.10250000E-07	-2.57047000E-08	 4.03162000E+02	 7.13072028E+02	-3.52164500E+02	 2.30724000E+01	 4.70174100E+02
					 4.70470000E+02	 3.79444000E+02	 1.48399000E+03	 9.88488000E-08	 4.28340000E-08	 7.83113000E+02	 1.72266163E+03	 4.44536772E+01	 3.79444000E+02	 1.91000632E+03
					 6.10940000E+01	 2.89640000E+01	 7.71664000E+01	 1.47136000E-08	 1.68393000E-08	 3.27726000E+02	 5.69227598E+02	-2.58694313E+02	 2.89640000E+01	 3.96954713E+02
					 6.23971000E+02	 6.23273000E+02	 2.61652000E+03	 3.69732000E-08	 6.10293000E-08	 9.91985000E+02	 2.63130111E+03	 2.14330453E+02	 6.23273000E+02	 3.02616055E+03
					 6.10940000E+01	 2.89640000E+01	 7.71664000E+01	 1.47153000E-08	 1.68407000E-08	 3.27726000E+02	 5.69227598E+02	-2.58694313E+02	 2.89640000E+01	 3.96954713E+02
					 6.23971000E+02	 6.23273000E+02	 2.61652000E+03	 3.69729000E-08	 6.10300000E-08	 9.91985000E+02	 2.63130111E+03	 2.14330453E+02	 6.23273000E+02	 3.02616055E+03
					-1.29741000E+01	 2.80036000E+01	 1.37435000E+02	-3.61559000E-08	 1.95746000E-08	 2.48099000E+02	 4.50330980E+02	-1.97016224E+02	 2.80036000E+01	 3.21477124E+02
					 6.71329000E+02	 7.78116000E+02	 3.40335000E+03	-2.23322000E-08	 3.90891000E-08	 1.06201000E+03	 3.25072201E+03	 3.07064977E+02	 7.78116000E+02	 3.76761402E+03
					-1.29741000E+01	 2.80036000E+01	 1.37435000E+02	-3.61508000E-08	 1.95741000E-08	 2.48099000E+02	 4.50330980E+02	-1.97016224E+02	 2.80036000E+01	 3.21477124E+02
					 6.71329000E+02	 7.78116000E+02	 3.40335000E+03	-2.23388000E-08	 3.90891000E-08	 1.06201000E+03	 3.25072201E+03	 3.07064977E+02	 7.78116000E+02	 3.76761402E+03
					-8.48740000E+01	 1.88875000E+01	 1.56760000E+02	-7.46997000E-08	 2.13949000E-08	 1.73028000E+02	 3.65919662E+02	-1.75091206E+02	 1.88875000E+01	 2.46977206E+02
					 6.53436000E+02	 8.63758000E+02	 3.88760000E+03	-4.17000000E-08	 1.28381000E-08	 1.02434000E+03	 3.60161819E+03	 3.56301024E+02	 8.63758000E+02	 4.18473498E+03
					-8.48740000E+01	 1.88875000E+01	 1.56760000E+02	-7.47003000E-08	 2.13945000E-08	 1.73028000E+02	 3.65919662E+02	-1.75091206E+02	 1.88875000E+01	 2.46977206E+02
					 6.53436000E+02	 8.63758000E+02	 3.88760000E+03	-4.16915000E-08	 1.28388000E-08	 1.02434000E+03	 3.60161819E+03	 3.56301024E+02	 8.63758000E+02	 4.18473498E+03
					-9.60352000E+01	 2.02539000E+01	 1.70869000E+02	-6.29537000E-08	 1.14511000E-08	 1.00832000E+02	 2.90214118E+02	-1.29845036E+02	 2.02539000E+01	 2.04678836E+02
					 6.27679000E+02	 9.07312000E+02	 4.14922000E+03	-5.85161000E-08	-9.98538000E-09	 9.11957000E+02	 3.74028117E+03	 4.05527837E+02	 9.07312000E+02	 4.37137116E+03
					-9.60352000E+01	 2.02539000E+01	 1.70869000E+02	-6.29516000E-08	 1.14512000E-08	 1.00832000E+02	 2.90214118E+02	-1.29845036E+02	 2.02539000E+01	 2.04678836E+02
					 6.27679000E+02	 9.07312000E+02	 4.14922000E+03	-5.85185000E-08	-9.98590000E-09	 9.11957000E+02	 3.74028117E+03	 4.05527837E+02	 9.07312000E+02	 4.37137116E+03
					-1.26938000E+02	 1.59594000E+01	 1.80113000E+02	-5.58985000E-08	 1.63941000E-08	 4.27372000E+01	 2.76229250E+02	-1.32775442E+02	 1.59594000E+01	 1.85950442E+02
					 5.54699000E+02	 9.04838000E+02	 4.20809000E+03	-5.21951000E-08	-9.22990000E-09	 7.56558000E+02	 3.72931743E+03	 4.04225702E+02	 9.04838000E+02	 4.35856330E+03
					-1.26938000E+02	 1.59594000E+01	 1.80113000E+02	-5.58975000E-08	 1.63936000E-08	 4.27372000E+01	 2.76229250E+02	-1.32775442E+02	 1.59594000E+01	 1.85950442E+02
					 5.54699000E+02	 9.04838000E+02	 4.20809000E+03	-5.22063000E-08	-9.22721000E-09	 7.56558000E+02	 3.72931743E+03	 4.04225702E+02	 9.04838000E+02	 4.35856330E+03
					-1.48276000E+02	 1.32468000E+01	 1.90856000E+02	-6.33062000E-08	 3.33843000E-08	-2.13503000E+01	 2.96125116E+02	-1.49614838E+02	 1.32468000E+01	 1.92194838E+02
					 4.63047000E+02	 8.59859000E+02	 4.05314000E+03	-5.48875000E-08	-2.23930000E-08	 5.67349000E+02	 3.54785713E+03	 3.75521636E+02	 8.59859000E+02	 4.14066536E+03
					-1.48276000E+02	 1.32468000E+01	 1.90856000E+02	-6.33009000E-08	 3.33835000E-08	-2.13503000E+01	 2.96125116E+02	-1.49614838E+02	 1.32468000E+01	 1.92194838E+02
					 4.63047000E+02	 8.59859000E+02	 4.05314000E+03	-5.48822000E-08	-2.23934000E-08	 5.67349000E+02	 3.54785713E+03	 3.75521636E+02	 8.59859000E+02	 4.14066536E+03
					-1.70778000E+02	 4.76189000E+00	 1.75572000E+02	 3.73540000E-08	 2.09615000E-08	-8.86722000E+01	 3.36990522E+02	-1.92159778E+02	 4.76189000E+00	 1.96953778E+02
					 3.67248000E+02	 7.71001000E+02	 3.66289000E+03	 2.73976000E-08	-6.64715000E-08	 3.66818000E+02	 3.17762705E+03	 3.26913352E+02	 7.71001000E+02	 3.70322465E+03
					-1.70778000E+02	 4.76189000E+00	 1.75572000E+02	 3.73443000E-08	 2.09615000E-08	-8.86722000E+01	 3.36990522E+02	-1.92159778E+02	 4.76189000E+00	 1.96953778E+02
					 3.67248000E+02	 7.71001000E+02	 3.66289000E+03	 2.74073000E-08	-6.64726000E-08	 3.66818000E+02	 3.17762705E+03	 3.26913352E+02	 7.71001000E+02	 3.70322465E+03
					-1.42421000E+02	 1.22886000E+00	 1.34723000E+02	 1.28364000E-07	-4.10812000E-09	-1.43287000E+02	 3.45291001E+02	-2.03181294E+02	 1.22886000E+00	 1.95483294E+02
					 2.95990000E+02	 6.48565000E+02	 3.06955000E+03	 1.18671000E-07	-6.52556000E-08	 1.88675000E+02	 2.63549826E+03	 2.83213990E+02	 6.48565000E+02	 3.08232601E+03
					-1.42421000E+02	 1.22886000E+00	 1.34723000E+02	 1.28367000E-07	-4.10899000E-09	-1.43287000E+02	 3.45291001E+02	-2.03181294E+02	 1.22886000E+00	 1.95483294E+02
					 2.95990000E+02	 6.48565000E+02	 3.06955000E+03	 1.18678000E-07	-6.52567000E-08	 1.88675000E+02	 2.63549826E+03	 2.83213990E+02	 6.48565000E+02	 3.08232601E+03
					-1.30415000E+02	-1.14567000E+01	 6.46594000E+01	 1.52413000E-07	-1.33860000E-08	-1.68694000E+02	 3.38189853E+02	-2.27739728E+02	-1.14567000E+01	 1.61984128E+02
					 2.14289000E+02	 4.98432000E+02	 2.35046000E+03	 1.48872000E-07	-2.93245000E-08	 5.79481000E+01	 2.01173052E+03	 2.12718192E+02	 4.98432000E+02	 2.35203081E+03
					-1.30415000E+02	-1.14567000E+01	 6.46594000E+01	 1.52411000E-07	-1.33853000E-08	-1.68694000E+02	 3.38189853E+02	-2.27739728E+02	-1.14567000E+01	 1.61984128E+02
					 2.14289000E+02	 4.98432000E+02	 2.35046000E+03	 1.48873000E-07	-2.93252000E-08	 5.79481000E+01	 2.01173052E+03	 2.12718192E+02	 4.98432000E+02	 2.35203081E+03
					-1.18425000E+02	-2.30607000E+01	-7.43731000E-01	 1.23847000E-07	-2.75041000E-09	-1.76183000E+02	 3.23793124E+02	-2.45333308E+02	-2.30607000E+01	 1.26164577E+02
					 1.28574000E+02	 3.38813000E+02	 1.60026000E+03	 1.42861000E-07	 2.07125000E-08	-2.97179000E+01	 1.37960276E+03	 1.27974148E+02	 3.38813000E+02	 1.60085985E+03
					-1.18425000E+02	-2.30607000E+01	-7.43731000E-01	 1.23846000E-07	-2.75050000E-09	-1.76183000E+02	 3.23793124E+02	-2.45333308E+02	-2.30607000E+01	 1.26164577E+02
					 1.28574000E+02	 3.38813000E+02	 1.60026000E+03	 1.42867000E-07	 2.07128000E-08	-2.97179000E+01	 1.37960276E+03	 1.27974148E+02	 3.38813000E+02	 1.60085985E+03
					-1.22695000E+02	-3.22959000E+01	-3.98107000E+01	 6.90638000E-08	 1.44699000E-08	-1.63436000E+02	 2.96113351E+02	-2.49861207E+02	-3.22959000E+01	 8.73555065E+01
					 3.76190000E+01	 1.83260000E+02	 8.90423000E+02	 6.88707000E-08	 4.12101000E-08	-7.63043000E+01	 8.01092863E+02	 3.08455023E+01	 1.83260000E+02	 8.97196498E+02
					-1.22695000E+02	-3.22959000E+01	-3.98107000E+01	 6.90711000E-08	 1.44704000E-08	-1.63436000E+02	 2.96113351E+02	-2.49861207E+02	-3.22959000E+01	 8.73555065E+01
					 3.76190000E+01	 1.83260000E+02	 8.90423000E+02	 6.88556000E-08	 4.12109000E-08	-7.63043000E+01	 8.01092863E+02	 3.08455023E+01	 1.83260000E+02	 8.97196498E+02
					-9.77612000E+01	-2.65049000E+01	-3.48476000E+01	 2.42549000E-08	 2.16367000E-08	-1.05978000E+02	 1.95567381E+02	-1.76852429E+02	-2.65049000E+01	 4.42436292E+01
					-1.88646000E+01	 6.27852000E+01	 3.34864000E+02	 2.86423000E-08	 2.96845000E-08	-6.55924000E+01	 3.40317251E+02	-3.06357780E+01	 6.27852000E+01	 3.46635178E+02
					-9.77612000E+01	-2.65049000E+01	-3.48476000E+01	 2.42497000E-08	 2.16357000E-08	-1.05978000E+02	 1.95567381E+02	-1.76852429E+02	-2.65049000E+01	 4.42436292E+01
					-1.88646000E+01	 6.27852000E+01	 3.34864000E+02	 2.86267000E-08	 2.96852000E-08	-6.55924000E+01	 3.40317251E+02	-3.06357780E+01	 6.27852000E+01	 3.46635178E+02
					-7.47045000E+01	-1.91591000E+01	-2.08950000E+01	 2.13042000E-09	 1.54147000E-08	-6.66628000E+01	 1.27764120E+02	-1.19687124E+02	-1.91591000E+01	 2.40876236E+01
					-3.50847000E+01	 1.59816000E+01	 1.15278000E+02	 5.55996000E-08	 6.19851000E-09	-4.76322000E+01	 1.56027950E+02	-4.89036976E+01	 1.59816000E+01	 1.29096998E+02
					-7.47045000E+01	-1.91591000E+01	-2.08950000E+01	 2.12956000E-09	 1.54165000E-08	-6.66628000E+01	 1.27764120E+02	-1.19687124E+02	-1.91591000E+01	 2.40876236E+01
					-3.50847000E+01	 1.59816000E+01	 1.15278000E+02	 5.56209000E-08	 6.20005000E-09	-4.76322000E+01	 1.56027950E+02	-4.89036976E+01	 1.59816000E+01	 1.29096998E+02
					 4.23974000E+03	 3.34786000E+03	 1.55090000E+04	 0.00000000E+00	 0.00000000E+00	 6.26521000E+03	 1.59875285E+04	 1.44810680E+03	 3.34786000E+03	 1.83006332E+04
					 1.36202000E+03	 2.49277000E+03	 1.29980000E+04	 2.86689000E-08	-1.57800000E-08	 2.58009000E+03	 1.19786408E+04	 8.15587634E+02	 2.49277000E+03	 1.35444324E+04
					 4.23974000E+03	 3.34786000E+03	 1.55090000E+04	 0.00000000E+00	 0.00000000E+00	 6.26521000E+03	 1.59875285E+04	 1.44810680E+03	 3.34786000E+03	 1.83006332E+04