/*--------------------------------*- C++ -*----------------------------------*\
| =========                 |                                                 |
| \\      /  F ield         | OpenFOAM: The Open Source CFD Toolbox           |
|  \\    /   O peration     | Version:  dev                                   |
|   \\  /    A nd           | Web:      www.OpenFOAM.org                      |
|    \\/     M anipulation  |                                                 |
\*---------------------------------------------------------------------------*/
FoamFile
{
    version     2.0;
    format      ascii;
    class       volVectorField;
    location    "1.7";
    object      Force;
}
// * * * * * * * * * * * * * * * * * * * * * * * * * * * * * * * * * * * * * //

dimensions      [1 1 -2 0 0 0 0];

internalField   uniform (0 0 0);

boundaryField
{
    inlet
    {
        type            calculated;
        value           uniform (0 0 0);
    }
    outlet
    {
        type            calculated;
        value           uniform (0 0 0);
    }
    flap
    {
        type            calculated;
        value           nonuniform List<vector> 
33
(
(2.48712 2.0174e-17 -0.183798)
(2.44246 2.49963e-21 -0.46324)
(2.31194 1.99381e-17 -0.73015)
(2.09733 -5.78565e-18 -0.923311)
(1.83348 -6.42651e-22 -1.0334)
(1.56108 2.32779e-22 -1.06933)
(1.31018 -8.67092e-18 -1.04987)
(1.09774 1.82944e-17 -0.995876)
(0.924862 1.76799e-17 -0.923813)
(0.785234 -1.0938e-17 -0.843152)
(0.670508 1.8057e-21 -0.758272)
(0.570672 4.71249e-18 -0.668145)
(0.47626 1.46862e-17 -0.568763)
(0.377615 1.31314e-17 -0.453314)
(0.261154 1.10513e-17 -0.313095)
(0.608578 1.80086e-17 0.497254)
(0.393169 -1.16737e-21 0.319617)
(0.174953 9.11081e-18 0.143885)
(-0.0172182 0 0.00129518)
(-0.0168057 -1.18101e-17 0.00315162)
(-0.0160841 -4.59177e-41 0.00506272)
(-0.0150972 1.22659e-17 0.0066171)
(-0.0139081 -3.67342e-40 0.0078129)
(-0.0125885 4.43528e-20 0.0085955)
(-0.0112108 4.122e-20 0.00894192)
(-0.00981707 -1.10203e-39 0.00885171)
(-0.00844047 -3.76328e-22 0.00835601)
(-0.00710764 1.43925e-17 0.00752685)
(-0.00587096 -3.92573e-22 0.00649819)
(-0.00480434 1.56089e-17 0.0054567)
(-0.00378383 1.68872e-17 0.00436953)
(-0.00178566 2.02678e-17 0.00241329)
(0.00919961 -7.04589e-20 -0.0118612)
)
;
    }
    upperWall
    {
        type            calculated;
        value           uniform (0 0 0);
    }
    lowerWall
    {
        type            calculated;
        value           uniform (0 0 0);
    }
    frontAndBack
    {
        type            empty;
    }
}


// ************************************************************************* //
