/*--------------------------------*- C++ -*----------------------------------*\
| =========                 |                                                 |
| \\      /  F ield         | OpenFOAM: The Open Source CFD Toolbox           |
|  \\    /   O peration     | Version:  dev                                   |
|   \\  /    A nd           | Web:      www.OpenFOAM.org                      |
|    \\/     M anipulation  |                                                 |
\*---------------------------------------------------------------------------*/
FoamFile
{
    version     2.0;
    format      ascii;
    class       surfaceScalarField;
    location    "1.7";
    object      meshPhi;
}
// * * * * * * * * * * * * * * * * * * * * * * * * * * * * * * * * * * * * * //

dimensions      [0 3 -1 0 0 0 0];

internalField   nonuniform List<scalar> 
5457
(
5.71249e-06
-1.88392e-06
1.1173e-05
-5.25816e-06
1.63989e-05
-7.97345e-06
2.15194e-05
-1.01357e-05
2.65613e-05
-1.1851e-05
3.1586e-05
-1.31771e-05
3.68227e-05
-1.41549e-05
4.25951e-05
-1.48554e-05
4.90829e-05
-1.53758e-05
5.6248e-05
-1.57822e-05
6.39328e-05
-1.60978e-05
7.19542e-05
-1.63259e-05
8.0143e-05
-1.64622e-05
8.83265e-05
-1.65082e-05
9.63204e-05
-1.64683e-05
0.000103936
-1.63428e-05
0.000110983
-1.61327e-05
0.000117277
-1.58402e-05
0.000122637
-1.54711e-05
0.000126863
-1.50315e-05
0.000129711
-1.45199e-05
0.000130873
-1.39199e-05
0.000129965
-1.31939e-05
0.000126587
-1.22822e-05
0.000120285
-1.10991e-05
0.000110414
-9.50873e-06
9.66398e-05
-7.31012e-06
7.96521e-05
-4.29427e-06
6.43558e-05
-5.51704e-07
7.97567e-06
5.73407e-06
-3.77308e-06
1.12063e-05
-1.05318e-05
1.64502e-05
-1.59742e-05
2.15942e-05
-2.03154e-05
2.6641e-05
-2.37693e-05
3.16132e-05
-2.64462e-05
3.67451e-05
-2.84154e-05
4.24254e-05
-2.98165e-05
4.88701e-05
-3.08597e-05
5.60261e-05
-3.16841e-05
6.37172e-05
-3.23183e-05
7.17527e-05
-3.27643e-05
7.99648e-05
-3.30399e-05
8.81863e-05
-3.31529e-05
9.6238e-05
-3.30987e-05
0.000103935
-3.28774e-05
0.000111095
-3.24901e-05
0.000117543
-3.19402e-05
0.000123131
-3.1241e-05
0.000127713
-3.04129e-05
0.000131119
-2.9463e-05
0.000133135
-2.83753e-05
0.000133466
-2.70972e-05
0.000131949
-2.55531e-05
0.000128559
-2.36542e-05
0.000123163
-2.12567e-05
0.000116037
-1.82102e-05
0.000108302
-1.44453e-05
0.000104889
-1.03524e-05
-3.60274e-06
5.83906e-06
-5.65995e-06
1.13948e-05
-1.57992e-05
1.67188e-05
-2.39702e-05
2.19506e-05
-3.05036e-05
2.70466e-05
-3.57245e-05
3.1939e-05
-3.97888e-05
3.68654e-05
-4.27624e-05
4.23657e-05
-4.48454e-05
4.87396e-05
-4.63993e-05
5.58896e-05
-4.76563e-05
6.35981e-05
-4.86495e-05
7.16624e-05
-4.93714e-05
7.99166e-05
-4.98396e-05
8.82015e-05
-5.00656e-05
9.63507e-05
-5.00487e-05
0.000104189
-4.97915e-05
0.000111545
-4.9295e-05
0.000118256
-4.8557e-05
0.000124233
-4.7601e-05
0.000129437
-4.64786e-05
0.000133835
-4.52215e-05
0.000137422
-4.38458e-05
0.000140052
-4.23297e-05
0.000141814
-4.0615e-05
0.000143175
-3.86636e-05
0.000144678
-3.64602e-05
0.000147868
-3.41345e-05
0.000155348
-3.2107e-05
0.000172032
-3.14402e-05
-3.13588e-05
6.0474e-06
-7.54511e-06
1.17591e-05
-2.1061e-05
1.72236e-05
-3.19521e-05
2.26179e-05
-4.06739e-05
2.78349e-05
-4.76912e-05
3.26282e-05
-5.32011e-05
3.72113e-05
-5.7197e-05
4.24182e-05
-5.99169e-05
4.87022e-05
-6.19504e-05
5.58621e-05
-6.36588e-05
6.36097e-05
-6.50619e-05
7.17205e-05
-6.61275e-05
8.00287e-05
-6.68529e-05
8.83916e-05
-6.72534e-05
9.66652e-05
-6.73454e-05
0.000104689
-6.71398e-05
0.000112312
-6.66416e-05
0.000119389
-6.58538e-05
0.000125878
-6.48041e-05
0.000131848
-6.35497e-05
0.000137466
-6.21565e-05
0.000143023
-6.07155e-05
0.000148613
-5.92892e-05
0.000154518
-5.78891e-05
0.000161535
-5.65693e-05
0.000170674
-5.54543e-05
0.000184334
-5.48368e-05
0.000208439
-5.58097e-05
0.000251861
-6.11909e-05
-6.75969e-05
6.3502e-06
-9.43414e-06
1.22614e-05
-2.6329e-05
1.78968e-05
-3.99319e-05
2.35412e-05
-5.08459e-05
2.90038e-05
-5.97164e-05
3.36925e-05
-6.67854e-05
3.77169e-05
-7.18484e-05
4.24636e-05
-7.51253e-05
4.86606e-05
-7.75877e-05
5.58679e-05
-7.97837e-05
6.36849e-05
-8.1656e-05
7.18589e-05
-8.31259e-05
8.02278e-05
-8.41744e-05
8.86757e-05
-8.48258e-05
9.70913e-05
-8.51186e-05
0.000105336
-8.50778e-05
0.000113273
-8.47134e-05
0.000120816
-8.40522e-05
0.000127935
-8.31248e-05
0.000134696
-8.19417e-05
0.000141501
-8.06016e-05
0.000149005
-7.9326e-05
0.000157623
-7.83149e-05
0.000167828
-7.76856e-05
0.000180443
-7.75318e-05
0.000197291
-7.81179e-05
0.000221133
-7.99427e-05
0.000262025
-8.49124e-05
0.000340756
-9.95939e-05
-0.000111856
6.76476e-06
-1.13194e-05
1.29025e-05
-3.15796e-05
1.8712e-05
-4.78842e-05
2.47218e-05
-6.1014e-05
3.06563e-05
-7.18267e-05
3.52859e-05
-8.06538e-05
3.8397e-05
-8.68746e-05
4.24308e-05
-9.05523e-05
4.8606e-05
-9.33524e-05
5.59361e-05
-9.61029e-05
6.38651e-05
-9.85314e-05
7.21223e-05
-0.000100489
8.05594e-05
-0.000101944
8.9095e-05
-0.000102938
9.76596e-05
-0.00010354
0.000106147
-0.000103794
0.0001144
-0.000103707
0.000122397
-0.000103321
0.00013017
-0.000102707
0.000137708
-0.00010187
0.000145523
-0.0001009
0.000154605
-0.000100078
0.000165875
-9.98008e-05
0.000180071
-0.000100445
0.000197885
-0.000102231
0.000222001
-0.000105473
0.000258287
-0.000111447
0.000319825
-0.000123495
0.000445496
-0.000154192
-0.000175949
7.31772e-06
-1.31953e-05
1.37029e-05
-3.67946e-05
1.96499e-05
-5.57668e-05
2.61414e-05
-7.10951e-05
3.29271e-05
-8.39162e-05
3.76613e-05
-9.48264e-05
3.92333e-05
-0.000102372
4.21442e-05
-0.000106125
4.85027e-05
-0.000109088
5.60758e-05
-0.000112514
6.41641e-05
-0.000115608
7.2519e-05
-0.000118147
8.10192e-05
-0.000120097
8.96306e-05
-0.00012153
9.83257e-05
-0.000122563
0.000107037
-0.000123261
0.000115626
-0.000123655
0.000124049
-0.000123799
0.000132407
-0.000123779
0.000140712
-0.000123645
0.000149344
-0.000123462
0.000159364
-0.000123471
0.000172584
-0.000124327
0.000190185
-0.000126841
0.000213328
-0.000131651
0.000245308
-0.000139475
0.000298324
-0.000153234
0.000388897
-0.00017916
0.000576356
-0.00023839
-0.000282109
8.05348e-06
-1.50669e-05
1.46852e-05
-4.19794e-05
2.06339e-05
-6.3551e-05
2.76918e-05
-8.09908e-05
3.59825e-05
-9.58072e-05
4.12712e-05
-0.000109363
4.01421e-05
-0.000118577
4.12354e-05
-0.000121741
4.83106e-05
-0.000124564
5.62858e-05
-0.000128919
6.45645e-05
-0.000132812
7.30138e-05
-0.000136037
8.15829e-05
-0.000138609
9.02821e-05
-0.000140647
9.90858e-05
-0.00014228
0.000107957
-0.000143589
0.000116907
-0.00014469
0.0001258
-0.000145663
0.000134724
-0.000146593
0.000143847
-0.00014763
0.000153233
-0.000148834
0.000163502
-0.00015025
0.000177902
-0.000152823
0.000198562
-0.000158214
0.000227004
-0.000167697
0.000269876
-0.000183413
0.000343373
-0.000210592
0.000473913
-0.000260483
0.000738577
-0.000364375
-0.000446093
8.93477e-06
-1.69348e-05
1.57711e-05
-4.71304e-05
2.15292e-05
-7.12176e-05
2.9183e-05
-9.06354e-05
4.00552e-05
-0.000107229
4.48936e-05
-0.000121438
3.88206e-05
-0.000130315
3.90206e-05
-0.000134558
4.81391e-05
-0.000139561
5.66636e-05
-0.000145435
6.51297e-05
-0.000150271
7.36572e-05
-0.000154283
8.23287e-05
-0.00015762
9.1167e-05
-0.000160441
0.000100086
-0.000162854
0.000109039
-0.000164939
0.000118221
-0.000166897
0.000127579
-0.000168933
0.000137157
-0.000171202
0.000147377
-0.000173997
0.000157972
-0.000177464
0.000169041
-0.000181616
0.000184243
-0.000187253
0.000206927
-0.000196433
0.000241255
-0.000212447
0.000299178
-0.000240471
0.000397423
-0.000288231
0.000581108
-0.00037465
0.000927462
-0.000535503
-0.000656458
9.56669e-06
-1.87396e-05
1.66165e-05
-5.2145e-05
2.23728e-05
-7.87651e-05
3.04199e-05
-0.000100101
4.26002e-05
-0.000117711
4.42475e-05
-0.000129772
3.48572e-05
-0.000137134
3.74684e-05
-0.000145585
4.84705e-05
-0.000154921
5.74058e-05
-0.000162288
6.59795e-05
-0.000168101
7.45478e-05
-0.000172962
8.33005e-05
-0.000177129
9.22587e-05
-0.000180808
0.000101294
-0.000184136
0.000110335
-0.000187223
0.000119621
-0.000190294
0.000129371
-0.000193673
0.000139557
-0.000197588
0.00015083
-0.000202453
0.000163296
-0.000208827
0.000177237
-0.000217226
0.000193516
-0.000227889
0.000215838
-0.000242195
0.000257811
-0.00026665
0.00033392
-0.000310687
0.000465622
-0.000386474
0.000716179
-0.000521382
0.00112946
-0.000740892
-0.000878185
9.64366e-06
-2.04603e-05
1.70689e-05
-5.70066e-05
2.34071e-05
-8.62541e-05
3.14485e-05
-0.000109597
4.14428e-05
-0.000128137
4.04253e-05
-0.000140296
3.39043e-05
-0.000149009
3.94403e-05
-0.000160122
4.97344e-05
-0.000171207
5.8615e-05
-0.000179501
6.70968e-05
-0.000186201
7.56418e-05
-0.00019191
8.44935e-05
-0.000197024
9.35704e-05
-0.00020174
0.000102717
-0.000206171
0.000111938
-0.000210507
0.000121307
-0.000214959
0.000131162
-0.000219844
0.000141617
-0.000225566
0.000153425
-0.00023272
0.000167437
-0.0002422
0.000184441
-0.000255061
0.000202573
-0.000271918
0.000227336
-0.000294951
0.000279806
-0.000332136
0.000377257
-0.000396014
0.000554751
-0.000506694
0.000877346
-0.000695716
0.00133049
-0.000963185
-0.00108683
9.53614e-06
-2.21544e-05
1.75123e-05
-6.18161e-05
2.47019e-05
-9.37089e-05
3.26142e-05
-0.00011918
4.00497e-05
-0.000139365
3.97889e-05
-0.000154134
3.7635e-05
-0.000165539
4.31539e-05
-0.000176936
5.16754e-05
-0.000187824
6.01419e-05
-0.000196888
6.83785e-05
-0.000204462
7.69694e-05
-0.000211135
8.60923e-05
-0.000217423
9.53896e-05
-0.000223416
0.00010463
-0.000229113
0.00011397
-0.000234798
0.000123411
-0.000240798
0.000133126
-0.000247429
0.000143537
-0.000255217
0.000155492
-0.000264983
0.000170055
-0.000277827
0.000188334
-0.000295211
0.00021061
-0.000319325
0.000246463
-0.000354761
0.00031416
-0.000409448
0.000439813
-0.000498838
0.000670892
-0.000649689
0.00105182
-0.000887905
0.00152051
-0.00118681
-0.00129479
9.63087e-06
-2.38306e-05
1.82114e-05
-6.65713e-05
2.61696e-05
-0.000101091
3.4201e-05
-0.000128786
4.09113e-05
-0.000150967
4.24589e-05
-0.0001681
4.21895e-05
-0.000181512
4.64015e-05
-0.000193419
5.37825e-05
-0.000204495
6.17786e-05
-0.000214321
6.99506e-05
-0.000222944
7.88378e-05
-0.000230845
8.8278e-05
-0.000238398
9.77922e-05
-0.000245679
0.000107198
-0.000252792
0.000116645
-0.000260048
0.0001263
-0.000267888
0.000135983
-0.000276614
0.000146262
-0.000286771
0.00015841
-0.00029952
0.000173524
-0.000316316
0.000193444
-0.00033919
0.000223153
-0.000371852
0.000274144
-0.000420389
0.00036246
-0.00049453
0.000521676
-0.000612407
0.000796539
-0.000799908
0.00120465
-0.00107255
0.00167302
-0.00138731
-0.00154255
9.92902e-06
-2.54875e-05
1.91243e-05
-7.12722e-05
2.78236e-05
-0.000108411
3.63478e-05
-0.000138417
4.34124e-05
-0.000162814
4.61588e-05
-0.000182284
4.62149e-05
-0.000197382
4.92499e-05
-0.000209746
5.58698e-05
-0.00022113
6.36163e-05
-0.00023181
7.20658e-05
-0.000241637
8.13612e-05
-0.000250876
9.10545e-05
-0.000259752
0.000100841
-0.000268452
0.000110662
-0.000277239
0.000120426
-0.000286345
0.000130378
-0.000296181
0.000140293
-0.000307211
0.000150853
-0.00032016
0.000163659
-0.000336346
0.000180335
-0.000357612
0.000204131
-0.00038678
0.000242363
-0.000428293
0.000307597
-0.000489577
0.000417686
-0.000582159
0.000600794
-0.0007221
0.000890875
-0.000931039
0.00129131
-0.00121899
0.00173557
-0.00153571
-0.00189328
1.03807e-05
-2.7141e-05
2.02274e-05
-7.59638e-05
2.97339e-05
-0.000115735
3.91494e-05
-0.000148129
4.74415e-05
-0.000174945
5.12594e-05
-0.000196976
5.02392e-05
-0.000213597
5.16849e-05
-0.000226019
5.80582e-05
-0.00023769
6.59568e-05
-0.000249433
7.48744e-05
-0.000260574
8.46034e-05
-0.000271249
9.47335e-05
-0.000281671
0.000105065
-0.000292062
0.000115442
-0.000302638
0.000125775
-0.000313717
0.000136286
-0.000325816
0.000146945
-0.000339512
0.000158567
-0.000355664
0.000172573
-0.000375552
0.000191879
-0.000401514
0.000220977
-0.000437118
0.000268059
-0.00048757
0.000346763
-0.000560988
0.000470805
-0.000666835
0.000658963
-0.000817708
0.000937293
-0.00103085
0.0012955
-0.00130489
0.00163509
-0.00157183
-0.00249708
0.000140636
-7.67247e-05
0.000366072
-0.000103227
0.000899616
-0.00019803
0.00155262
-0.000346577
0.00190971
-0.000493682
0.0019353
-0.000523294
0.00184796
-0.000422408
0.00176466
-0.000322571
0.00169506
-0.000270927
0.00164325
-0.000241771
0.00160568
-0.000222964
0.00157582
-0.000205291
0.00154774
-0.000187763
0.00151811
-0.000172564
0.00148459
-0.000159063
0.00144564
-0.000147049
0.00140004
-0.000136221
0.00134671
-0.000126201
0.0012847
-0.000116614
0.00121336
-0.000107244
0.00113233
-9.80126e-05
0.0010415
-8.88686e-05
0.000940969
-7.97588e-05
0.000831098
-7.06163e-05
0.000712418
-6.13405e-05
0.000585508
-5.17908e-05
0.000450855
-4.17978e-05
0.000308746
-3.11659e-05
0.000158441
-1.96111e-05
-6.83974e-06
0.00018645
-0.00014114
0.000436143
-0.000209249
0.000993971
-0.000391502
0.00164606
-0.000644869
0.00198395
-0.000855125
0.00198265
-0.00088568
0.00188255
-0.000760425
0.00179759
-0.000630914
0.0017243
-0.00054759
0.00166877
-0.000487973
0.00162787
-0.000441516
0.00159456
-0.000402963
0.00156357
-0.000369357
0.00153129
-0.000339828
0.00149547
-0.000313576
0.00145459
-0.000290184
0.00140742
-0.000269105
0.0013528
-0.000249562
0.00128966
-0.000230763
0.00121731
-0.000212303
0.00113538
-0.00019408
0.00104371
-0.00017601
0.000942395
-0.000157985
0.000831788
-0.000139872
0.00071246
-0.00012148
0.000585031
-0.000102531
0.000450044
-8.26955e-05
0.000307877
-6.16047e-05
0.000157883
-3.87236e-05
-1.34944e-05
0.000267409
-0.000201954
0.000567326
-0.000328272
0.00115918
-0.000594242
0.00178064
-0.000907528
0.00205132
-0.00108068
0.00201772
-0.00106453
0.00192081
-0.000985915
0.00183556
-0.000900239
0.0017595
-0.000810565
0.00169979
-0.000727104
0.00165497
-0.000652319
0.00161804
-0.000591456
0.00158347
-0.000541931
0.00154787
-0.000499174
0.00150913
-0.00046126
0.00146579
-0.000427458
0.00141669
-0.000397043
0.0013605
-0.000368779
0.00129594
-0.000341313
0.00122226
-0.000314121
0.00113911
-0.000287225
0.00104628
-0.000260536
0.000943797
-0.000233867
0.00083204
-0.000207022
0.000711681
-0.000179729
0.000583419
-0.000151584
0.000447907
-0.000122115
0.000305736
-9.08176e-05
0.000156485
-5.69757e-05
-1.98255e-05
0.000376679
-0.00027536
0.000748733
-0.000474862
0.00136765
-0.000819893
0.00191405
-0.00116426
0.0020892
-0.00130026
0.00203635
-0.00125159
0.00195261
-0.00118213
0.00186643
-0.00111161
0.00178983
-0.00102485
0.00172813
-0.000933293
0.00168004
-0.000843795
0.00163976
-0.000766996
0.00160188
-0.000703533
0.00156318
-0.000649082
0.00152165
-0.000600819
0.001476
-0.000557776
0.00142524
-0.000519233
0.00136778
-0.000483336
0.00130189
-0.000447798
0.00122687
-0.000412165
0.00114248
-0.000376918
0.00104844
-0.000341969
0.000944596
-0.000306973
0.000831402
-0.000271644
0.000709724
-0.000235668
0.000580374
-0.000198537
0.000444146
-0.000159643
0.00030201
-0.000118404
0.000154039
-7.40432e-05
-2.57018e-05
0.000516816
-0.000378343
0.000971561
-0.000659812
0.00159391
-0.00106424
0.0020337
-0.00140349
0.00212758
-0.00151374
0.00205993
-0.00145653
0.00197383
-0.00136568
0.00188793
-0.00127717
0.00181372
-0.00118845
0.00175271
-0.00109804
0.00170284
-0.00100765
0.0016596
-0.000924418
0.00161871
-0.000851735
0.0015771
-0.000787943
0.00153288
-0.00073093
0.00148503
-0.000679977
0.00143303
-0.000634919
0.00137478
-0.000592938
0.00130762
-0.000549874
0.00123113
-0.000505843
0.00114551
-0.000462569
0.00105026
-0.000419844
0.000944878
-0.000376922
0.000829871
-0.000333365
0.000706517
-0.000288906
0.000575747
-0.000242992
0.000438438
-0.00019487
0.000296162
-0.000143919
0.000150064
-8.95218e-05
-3.09481e-05
0.000693264
-0.000525335
0.00122321
-0.000883084
0.00180454
-0.0013088
0.00212167
-0.00159953
0.00215648
-0.00166813
0.00207652
-0.00160496
0.00198337
-0.00150925
0.00189979
-0.00141449
0.00182991
-0.00132358
0.00177188
-0.00123506
0.00172201
-0.0011474
0.0016769
-0.00106279
0.00163351
-0.000985006
0.00158925
-0.000914512
0.00154241
-0.000850468
0.00149231
-0.00079288
0.00143983
-0.000743515
0.00138172
-0.000697889
0.00131316
-0.000647479
0.00123484
-0.000594402
0.00114804
-0.000543465
0.00105182
-0.000493724
0.000944751
-0.000443455
0.000827397
-0.000391899
0.000701924
-0.000339077
0.000569354
-0.000284579
0.000430325
-0.0002274
0.000287259
-0.000166839
0.000143637
-0.000102828
-3.52872e-05
0.000903517
-0.000717378
0.00147556
-0.00112681
0.00196849
-0.00153154
0.0021675
-0.00174875
0.00216172
-0.00177456
0.0020767
-0.00170796
0.00198493
-0.00161574
0.0019061
-0.00152462
0.00184129
-0.00143771
0.00178667
-0.00135268
0.0017375
-0.00126744
0.00169131
-0.00118316
0.00164594
-0.00110292
0.00159931
-0.00102808
0.00154982
-0.000958568
0.00149696
-0.000894956
0.00144545
-0.000844599
0.00138954
-0.000800149
0.00131884
-0.00074166
0.0012376
-0.000676983
0.00114977
-0.000618715
0.00105322
-0.000563238
0.00094454
-0.000506643
0.000824033
-0.00044729
0.000695802
-0.000385931
0.000561088
-0.000322975
0.000419314
-0.000256906
0.00027368
-0.000186497
0.000132896
-0.000112983
-3.8205e-05
0.0011305
-0.000933161
0.00169571
-0.00136439
0.00208257
-0.00171937
0.00218589
-0.00186231
0.00214957
-0.00184777
0.00206284
-0.00177502
0.00197899
-0.00169076
0.00190948
-0.00161086
0.00185042
-0.00153253
0.00179825
-0.00145204
0.00174964
-0.00136949
0.00170269
-0.00128661
0.00165576
-0.00120576
0.00160711
-0.00112859
0.00155488
-0.00105492
0.00149697
-0.00098342
0.00144638
-0.00092433
0.00139803
-0.0008787
0.00132616
-0.00082184
0.00123919
-0.000752079
0.00115022
-0.00068706
0.00105425
-0.000627238
0.00094473
-0.000565838
0.00082058
-0.000499571
0.000688814
-0.000429873
0.000551525
-0.000358586
0.000405331
-0.000283538
0.000252595
-0.000202101
0.000113817
-0.000118134
-3.86118e-05
0.00135264
-0.00114149
0.00187924
-0.00158212
0.00216879
-0.00187248
0.00218976
-0.00194294
0.00212504
-0.00189095
0.00204043
-0.0018158
0.00197095
-0.00174572
0.00191313
-0.00168198
0.00185801
-0.00161252
0.00180699
-0.00153525
0.00175852
-0.00145524
0.00171097
-0.00137443
0.00166303
-0.00129413
0.00161302
-0.0012159
0.00155866
-0.0011396
0.00149609
-0.00106258
0.00144252
-0.00098791
0.0013998
-0.000928434
0.00133005
-0.000877307
0.00123876
-0.000814989
0.00114858
-0.000747766
0.00105319
-0.000684172
0.000944173
-0.000618823
0.000818217
-0.000547718
0.000683466
-0.000471684
0.000543026
-0.000392746
0.000390328
-0.000308451
0.000219482
-0.000212925
7.37073e-05
-0.000112637
-3.20579e-05
0.00155859
-0.00132517
0.00201672
-0.00176173
0.0022107
-0.00195686
0.00217227
-0.00196744
0.0020916
-0.00190339
0.00201697
-0.00183727
0.00196759
-0.00178714
0.00192077
-0.00174309
0.00186423
-0.00168075
0.00181274
-0.00160331
0.00176423
-0.00152494
0.0017163
-0.00144661
0.00166773
-0.00136805
0.00161703
-0.00128991
0.00156202
-0.0012127
0.00150004
-0.00113537
0.00144156
-0.00105643
0.00139219
-0.000986251
0.00132423
-0.000929664
0.0012355
-0.000869727
0.00114456
-0.000802429
0.00104858
-0.000734837
0.000940704
-0.00066534
0.000816535
-0.000590906
0.000681562
-0.000510898
0.000538759
-0.000425943
0.00038145
-0.00033423
0.000196763
-0.000230533
4.16841e-05
-0.000120904
-3.36565e-05
0.00174843
-0.00149749
0.00208235
-0.0018962
0.00217202
-0.00196348
0.0021269
-0.0019371
0.00205433
-0.00189287
0.00199355
-0.00184267
0.00195864
-0.00180228
0.00192241
-0.00177235
0.00186651
-0.00172556
0.00181407
-0.00165432
0.0017659
-0.00157789
0.00171834
-0.00150286
0.00166954
-0.00142738
0.00161843
-0.0013512
0.00156362
-0.00127497
0.00150422
-0.00119878
0.00144364
-0.00112297
0.00138462
-0.00105214
0.00131495
-0.000987599
0.00123034
-0.000922009
0.00113921
-0.000852431
0.00104195
-0.000781075
0.00093475
-0.000707472
0.000813939
-0.000629716
0.000681441
-0.000546463
0.00053926
-0.000457226
0.000384227
-0.000361004
0.000211163
-0.000256558
6.20432e-05
-0.000147746
-4.69925e-05
0.0019227
-0.00167525
0.00210844
-0.0019939
0.0021032
-0.00195407
0.00207345
-0.00190767
0.00202116
-0.00187784
0.00196978
-0.00184064
0.00193002
-0.00179891
0.00189967
-0.00176565
0.0018579
-0.0017333
0.00180906
-0.00168064
0.00176273
-0.00161388
0.00171633
-0.00154491
0.00166805
-0.00147388
0.00161708
-0.00140117
0.00156262
-0.00132744
0.00150425
-0.0012532
0.0014432
-0.00117928
0.00137948
-0.00110779
0.00130732
-0.00103906
0.0012242
-0.000969692
0.00113323
-0.000897654
0.00103514
-0.000823252
0.000928166
-0.000746099
0.000809964
-0.000664933
0.000680787
-0.000578454
0.000541909
-0.000485789
0.000393448
-0.000386203
0.000239095
-0.000279504
0.000100105
-0.000167882
-5.61018e-05
0.00206332
-0.00183383
0.00213087
-0.002032
0.00207372
-0.00194277
0.00203908
-0.00189248
0.00199618
-0.0018633
0.00194902
-0.00183434
0.00189952
-0.00179867
0.00186697
-0.00176296
0.00183916
-0.00173178
0.00179837
-0.00169119
0.00175544
-0.00163668
0.00171071
-0.00157537
0.00166346
-0.0015098
0.00161312
-0.00144126
0.00155915
-0.00137071
0.00150122
-0.0012989
0.00143952
-0.00122666
0.00137336
-0.0011551
0.00129976
-0.00108422
0.00121714
-0.00101235
0.00112648
-0.000938135
0.00102824
-0.000861216
0.000921569
-0.0007811
0.000805196
-0.000696811
0.000679047
-0.000607221
0.000544111
-0.000511402
0.000401824
-0.000408676
0.000256837
-0.000298892
0.000120333
-0.000182808
-6.21618e-05
0.00215586
-0.00191045
0.00215411
-0.00202158
0.00207638
-0.00190762
0.00202308
-0.00186259
0.00197627
-0.00183837
0.00193104
-0.00181799
0.00188439
-0.00179393
0.00184906
-0.00176635
0.00182101
-0.00173597
0.00178516
-0.0016983
0.00174525
-0.00165108
0.00170229
-0.0015965
0.00165621
-0.00153651
0.00160666
-0.0014725
0.00155323
-0.00140556
0.00149558
-0.0013365
0.00143345
-0.00126611
0.00136604
-0.00119502
0.00129164
-0.00112322
0.0012092
-0.00104982
0.00111889
-0.000973901
0.00102087
-0.00089493
0.000914741
-0.00081234
0.000799872
-0.000725301
0.000676273
-0.000632836
0.000544826
-0.000534049
0.000407222
-0.000428233
0.000267192
-0.000315036
0.000130493
-0.000194286
-6.65223e-05
0.00237583
-0.002001
0.00220792
-0.00183657
0.00208519
-0.00180294
0.00201016
-0.00179971
0.00195721
-0.00179743
0.00191336
-0.00179141
0.00187316
-0.0017786
0.00183803
-0.00175906
0.00180585
-0.00173325
0.00177089
-0.00170002
0.0017326
-0.00165866
0.00169102
-0.00161004
0.00164602
-0.00155548
0.00159728
-0.00149615
0.00154442
-0.00143307
0.00148706
-0.00136704
0.00142477
-0.00129873
0.0013568
-0.00122862
0.00128207
-0.0011567
0.00119983
-0.00108248
0.00110994
-0.00100534
0.00101242
-0.000924728
0.00090708
-0.000840079
0.00079365
-0.000750648
0.000672281
-0.000655572
0.000543768
-0.000554
0.00040963
-0.000445181
0.00027255
-0.000328557
0.000135514
-0.000203417
-6.9849e-05
1.13687e-05
-2.87921e-05
2.23079e-05
-8.06507e-05
3.30889e-05
-0.000123062
4.41485e-05
-0.000157889
5.51046e-05
-0.000187326
6.06087e-05
-0.00021251
5.63751e-05
-0.000230657
5.52084e-05
-0.00024229
6.25869e-05
-0.000254154
7.1364e-05
-0.00026743
8.11829e-05
-0.000280104
9.18055e-05
-0.000292375
0.000102876
-0.000304441
0.000114211
-0.000316561
0.000125643
-0.00032907
0.000137477
-0.000342544
0.000149594
-0.000357441
0.000161985
-0.000374225
0.000175797
-0.000393972
0.000192111
-0.00041795
0.000215191
-0.000448636
0.000251383
-0.00049052
0.000309833
-0.000549497
0.000400984
-0.000631818
0.000533438
-0.00074451
0.0007234
-0.000897983
0.000988842
-0.00110073
0.00130991
-0.001335
0.00159019
-0.00151922
-0.00154325
0.000884037
1.23287e-05
-3.04183e-05
2.42868e-05
-8.52669e-05
3.62918e-05
-0.000130273
4.91387e-05
-0.000167465
6.44728e-05
-0.000199611
7.0168e-05
-0.000226367
5.8888e-05
-0.00024372
5.63294e-05
-0.000255702
6.70143e-05
-0.000270264
7.69665e-05
-0.000285925
8.76311e-05
-0.000300202
9.91109e-05
-0.000314032
0.000111145
-0.000327796
0.000123609
-0.000341835
0.000136591
-0.000356618
0.000150594
-0.000372794
0.000165127
-0.000390783
0.000180426
-0.000411203
0.000197656
-0.000435172
0.000217114
-0.000463552
0.000244231
-0.000498737
0.000288098
-0.000546203
0.000356083
-0.000611413
0.000454429
-0.000698862
0.000591687
-0.000814627
0.000780082
-0.000964321
0.00102884
-0.00114654
0.0013194
-0.0013361
0.00159393
-0.00146983
-0.00149273
0.00179992
1.33673e-05
-3.19991e-05
2.63563e-05
-8.97508e-05
3.95697e-05
-0.000137276
5.39046e-05
-0.000176633
7.20995e-05
-0.000210219
7.40233e-05
-0.000235576
5.79473e-05
-0.000252131
5.90377e-05
-0.000268524
7.28295e-05
-0.000287475
8.35845e-05
-0.000304831
9.50107e-05
-0.00032053
0.000107496
-0.000335997
0.000120906
-0.000351713
0.000134968
-0.000367939
0.00015003
-0.000385143
0.000166729
-0.000404117
0.000184738
-0.000425482
0.000204795
-0.00045011
0.000227384
-0.000479019
0.0002498
-0.000511634
0.000280313
-0.000549991
0.00033138
-0.00060117
0.000406893
-0.000670415
0.000512928
-0.000761161
0.000656281
-0.000876604
0.000842265
-0.0010162
0.00107568
-0.00117281
0.00133614
-0.00132175
0.00156644
-0.00141977
-0.00143559
0.00171615
1.44784e-05
-3.35336e-05
2.85166e-05
-9.41161e-05
4.29616e-05
-0.000144138
5.8103e-05
-0.000185581
7.4169e-05
-0.000219994
7.3265e-05
-0.000245767
6.26118e-05
-0.000265369
6.86041e-05
-0.000285846
8.07954e-05
-0.000306321
9.12705e-05
-0.000324115
0.000103567
-0.000341091
0.000117395
-0.000358341
0.000132511
-0.000376048
0.000148618
-0.000394506
0.000166348
-0.00041432
0.000186476
-0.000436321
0.000209136
-0.000461242
0.000236059
-0.000490411
0.000267681
-0.000525495
0.000290707
-0.000562148
0.000320434
-0.000600409
0.000379014
-0.000652889
0.000463215
-0.000725478
0.000577941
-0.000817116
0.000725067
-0.000927072
0.000906964
-0.00105191
0.00112473
-0.00118287
0.00135529
-0.00129927
0.0015561
-0.00137395
-0.00139064
0.00169826
1.56979e-05
-3.50233e-05
3.07892e-05
-9.83485e-05
4.66508e-05
-0.000150837
6.25367e-05
-0.000194481
7.60785e-05
-0.000230697
7.78923e-05
-0.000259596
7.58416e-05
-0.000283207
8.28492e-05
-0.000305377
9.09141e-05
-0.000325773
0.000100028
-0.000343659
0.00011343
-0.000361632
0.000128878
-0.000380668
0.000145984
-0.000400426
0.000164675
-0.000421255
0.000185775
-0.000443809
0.000210031
-0.000468847
0.000238101
-0.000497172
0.000273773
-0.000530646
0.000310688
-0.000568245
0.000327618
-0.000603122
0.000359371
-0.000641706
0.000430939
-0.000699429
0.000524746
-0.000775193
0.000645128
-0.000863892
0.000792868
-0.000964916
0.000969872
-0.00107443
0.0011705
-0.0011828
0.00137214
-0.00127414
0.00154792
-0.00133298
-0.00135007
0.00167771
1.70596e-05
-3.64419e-05
3.29264e-05
-0.000102297
5.04132e-05
-0.000157089
6.77536e-05
-0.000203044
8.20286e-05
-0.000241653
8.89303e-05
-0.000273795
9.22551e-05
-0.000300783
9.92527e-05
-0.000325147
0.000102722
-0.000345864
0.000109027
-0.000362902
0.000124459
-0.000381581
0.000142013
-0.00040276
0.000161642
-0.000424741
0.000183408
-0.000447985
0.00020835
-0.000473199
0.000237384
-0.000501242
0.000270384
-0.000532432
0.000309571
-0.000566661
0.000336875
-0.000599422
0.000351869
-0.000631887
0.000402746
-0.00067894
0.000488235
-0.000743919
0.000587985
-0.000818118
0.000711285
-0.00090092
0.000859294
-0.000992712
0.0010294
-0.00108767
0.00121066
-0.00117626
0.00138634
-0.0012482
0.00154095
-0.00129554
-0.0013114
0.00165809
1.8497e-05
-3.77425e-05
3.44364e-05
-0.0001058
5.3465e-05
-0.000162593
7.34032e-05
-0.000210928
9.16211e-05
-0.000252621
0.000103781
-0.000288592
0.00011029
-0.000318492
0.000114883
-0.000342641
0.000110582
-0.000361075
0.000116287
-0.00037829
0.000136992
-0.000400314
0.000157118
-0.000424511
0.000179694
-0.00044866
0.000204711
-0.000474156
0.000233941
-0.000501882
0.000269159
-0.000533178
0.000307483
-0.000567851
0.000339456
-0.00060118
0.000355489
-0.000630401
0.0003892
-0.00066775
0.000464933
-0.000723831
0.000551373
-0.000788019
0.000649934
-0.000853979
0.000776439
-0.000929079
0.000923275
-0.00101158
0.00108252
-0.00109237
0.0012442
-0.00116437
0.00139821
-0.00122177
0.00153513
-0.00126037
-0.00127395
0.00164067
1.972e-05
-3.88657e-05
3.56661e-05
-0.000108972
5.5851e-05
-0.000167629
7.91845e-05
-0.000218127
0.000105683
-0.000263367
0.000120236
-0.000301822
0.000119737
-0.000329667
0.000117849
-0.000350265
0.000113681
-0.000370078
0.000127079
-0.000393681
0.000152416
-0.000420237
0.000174163
-0.000445853
0.000199607
-0.000471504
0.000227644
-0.000498821
0.000261668
-0.00052875
0.000306082
-0.000563794
0.000347056
-0.000600531
0.000365618
-0.000630295
0.000388862
-0.000660274
0.000455252
-0.000707725
0.00053963
-0.000767242
0.000609949
-0.000821309
0.000705496
-0.000876861
0.000838618
-0.00094686
0.000981008
-0.00102156
0.00112743
-0.00108985
0.00127198
-0.0011487
0.00140849
-0.00119507
0.00153064
-0.00122664
-0.00123752
0.00162599
2.07589e-05
-3.98708e-05
3.74786e-05
-0.000111901
5.84101e-05
-0.00017223
8.414e-05
-0.000224233
0.000116625
-0.000270735
0.000127577
-0.000308349
0.000115808
-0.000334486
0.000115062
-0.000357548
0.000127036
-0.000384701
0.000151228
-0.000415026
0.000172308
-0.000442457
0.000192059
-0.000466252
0.000220393
-0.0004923
0.000251318
-0.000521293
0.00028928
-0.000552622
0.0003395
-0.000588153
0.000374349
-0.000622131
0.000387721
-0.000650115
0.000433119
-0.000685654
0.000523195
-0.00073855
0.000602392
-0.000794559
0.000660171
-0.000842012
0.00075986
-0.000894479
0.000896492
-0.000959632
0.00103153
-0.00102483
0.0011656
-0.00108215
0.00129571
-0.00113046
0.00141786
-0.00116813
0.00152766
-0.00119384
-0.00120201
0.00161416
2.22046e-05
-4.08104e-05
3.9598e-05
-0.000114427
6.10472e-05
-0.00017606
8.74122e-05
-0.00022919
0.000116763
-0.000275381
0.000124906
-0.00031278
0.000118416
-0.000342829
0.000129019
-0.000372421
0.00015712
-0.000405127
0.000183359
-0.000436904
0.000190173
-0.000460479
0.000207737
-0.000481825
0.000242572
-0.000510357
0.000276581
-0.000542004
0.000315845
-0.000573837
0.000362799
-0.000607603
0.000393861
-0.000640439
0.000421829
-0.000673247
0.000485782
-0.000714229
0.000575609
-0.000763819
0.000651235
-0.000813584
0.000719942
-0.000861458
0.000825178
-0.000913629
0.000952047
-0.000969778
0.00107685
-0.00102337
0.00119922
-0.00107079
0.00131688
-0.00111035
0.00142698
-0.00114092
0.00152634
-0.00116165
-0.00116728
0.00160521
2.40192e-05
-4.15706e-05
4.23061e-05
-0.000116667
6.43112e-05
-0.000179596
9.04476e-05
-0.000233675
0.000114971
-0.0002804
0.000126548
-0.000319748
0.000133703
-0.000353623
0.000153051
-0.000386181
0.000186918
-0.000420169
0.000206526
-0.000450711
0.00020428
-0.000473302
0.000227835
-0.00049772
0.000269798
-0.000529498
0.000305003
-0.000561674
0.000343568
-0.000592928
0.000388274