/*--------------------------------*- C++ -*----------------------------------*\
| =========                 |                                                 |
| \\      /  F ield         | OpenFOAM: The Open Source CFD Toolbox           |
|  \\    /   O peration     | Version:  dev                                   |
|   \\  /    A nd           | Web:      www.OpenFOAM.org                      |
|    \\/     M anipulation  |                                                 |
\*---------------------------------------------------------------------------*/
FoamFile
{
    version     2.0;
    format      ascii;
    class       surfaceVectorField;
    location    "1.7";
    object      Uf;
}
// * * * * * * * * * * * * * * * * * * * * * * * * * * * * * * * * * * * * * //

dimensions      [0 1 -1 0 0 0 0];

internalField   nonuniform List<vector> 
5457
(
(9.91418 -1.83979e-20 0.0210359)
(9.96961 -3.8276e-20 0.0356217)
(9.82449 0 0.0260079)
(9.93405 1.21727e-21 0.0384456)
(9.72755 -1.09304e-20 0.0297776)
(9.87716 0 0.0431957)
(9.62087 -1.04772e-20 0.0336405)
(9.80435 5.34968e-21 0.0494195)
(9.50441 -3.01513e-21 0.0375805)
(9.72055 -5.57657e-21 0.0560533)
(9.37837 -1.23446e-20 0.0416278)
(9.6267 -2.63902e-20 0.0629835)
(9.24261 -1.57279e-20 0.0459056)
(9.52229 2.75976e-20 0.0704053)
(9.09665 5.11631e-22 0.0505363)
(9.40674 -1.94703e-20 0.0785153)
(8.93981 6.63664e-21 0.0556283)
(9.27952 2.02106e-20 0.0874767)
(8.77126 1.53996e-20 0.061291)
(9.13998 -1.41771e-20 0.0974538)
(8.58997 -1.1366e-21 0.0676448)
(8.98727 1.51203e-20 0.108632)
(8.39476 -1.53917e-20 0.0748268)
(8.82035 -3.94016e-20 0.121225)
(8.18423 1.11168e-21 0.0829961)
(8.63796 4.08777e-20 0.135479)
(7.95679 1.99947e-20 0.0923376)
(8.43868 1.20409e-23 0.151678)
(7.71063 -1.3348e-21 0.103068)
(8.22087 9.21251e-20 0.170147)
(7.44371 -1.8913e-20 0.115443)
(7.98265 -1.78126e-20 0.191263)
(7.15375 0 0.12976)
(7.72188 -6.9986e-20 0.215461)
(6.83819 1.15872e-20 0.146364)
(7.43619 2.12512e-20 0.243228)
(6.49423 1.12091e-20 0.165651)
(7.12289 2.35058e-22 0.275104)
(6.11881 -2.57921e-20 0.188074)
(6.77902 -2.36e-20 0.311668)
(5.7087 -2.49933e-20 0.214151)
(6.40133 -6.92413e-22 0.353527)
(5.26048 1.15887e-19 0.244474)
(5.98633 2.12465e-19 0.401292)
(4.77066 -6.03822e-21 0.279731)
(5.53023 -1.59337e-19 0.455527)
(4.2357 -1.15936e-19 0.320737)
(5.029 -1.1734e-19 0.516701)
(3.65206 -3.30162e-19 0.368471)
(4.47826 1.2061e-19 0.585104)
(3.01616 9.0286e-21 0.424107)
(3.87311 -2.66051e-19 0.66065)
(2.32423 3.32338e-19 0.488958)
(3.20743 1.42035e-19 0.742327)
(1.57258 -1.3654e-19 0.563812)
(2.47247 -1.32596e-19 0.826283)
(0.754136 -1.32875e-19 0.612245)
(1.63526 -2.59265e-20 0.90157)
(0.882131 2.88369e-19 0.857591)
(10.007 -1.81835e-20 0.040843)
(10.0011 1.75023e-20 0.0326786)
(9.9851 1.19043e-21 0.0516589)
(9.9952 -3.76277e-20 0.0477549)
(9.94952 1.63725e-20 0.0604594)
(9.97117 -1.01928e-20 0.0589686)
(9.90169 1.0007e-20 0.0699718)
(9.93131 2.66629e-20 0.0714851)
(9.84158 -2.9375e-20 0.0801109)
(9.87943 3.90462e-20 0.0848905)
(9.76932 1.46181e-20 0.0908791)
(9.81662 -5.88965e-23 0.0989974)
(9.68485 2.29328e-20 0.102526)
(9.74258 1.23517e-20 0.114109)
(9.58787 1.00715e-21 0.115325)
(9.65688 -3.86327e-20 0.13059)
(9.47782 -1.24826e-21 0.129529)
(9.55908 4.05549e-20 0.148766)
(9.354 -1.39156e-20 0.145404)
(9.44865 1.46511e-20 0.168969)
(9.21549 -2.41596e-20 0.163249)
(9.32484 -4.4141e-20 0.191572)
(9.06121 1.83505e-20 0.183409)
(9.18674 -1.59807e-20 0.216999)
(8.88986 3.90513e-20 0.206281)
(9.03323 1.06813e-19 0.245745)
(8.69994 7.37615e-20 0.232325)
(8.86305 -6.93142e-20 0.278384)
(8.48972 7.36342e-20 0.262069)
(8.67472 2.19462e-19 0.315571)
(8.25725 -6.98516e-20 0.29613)
(8.46653 4.20689e-21 0.358075)
(8.00026 -4.71922e-20 0.335211)
(8.23652 -2.38644e-19 0.406793)
(7.7162 9.47683e-21 0.380105)
(7.98248 2.10477e-20 0.462747)
(7.40222 -3.50311e-20 0.431683)
(7.70186 -1.12318e-20 0.527085)
(7.05509 2.12741e-21 0.490889)
(7.39178 3.30647e-19 0.601076)
(6.67127 2.40202e-19 0.558719)
(7.04897 -1.55053e-20 0.686104)
(6.2468 -6.76549e-20 0.636185)
(6.66971 6.20129e-19 0.783641)
(5.77731 -2.69727e-19 0.724288)
(6.24977 -2.18392e-19 0.895206)
(5.25785 1.21945e-19 0.824004)
(5.78415 0 1.02232)
(4.68251 1.83065e-19 0.936298)
(5.26674 1.17647e-19 1.1665)
(4.04377 -1.33373e-19 1.06211)
(4.68962 8.06999e-19 1.32929)
(3.33033 -3.26932e-19 1.20293)
(4.04146 -1.06456e-18 1.51249)
(2.52072 -1.70555e-21 1.36522)
(3.3044 -3.62938e-21 1.7194)
(1.55954 4.25286e-19 1.59379)
(2.43279 -1.90992e-18 1.9642)
(1.48557 2.55449e-18 2.31423)
(10.0001 -2.9322e-21 0.0421353)
(9.99887 3.27537e-20 0.0326689)
(9.98215 -4.84092e-20 0.0583446)
(9.99052 4.83494e-21 0.0554753)
(9.95036 8.62341e-22 0.0728911)
(9.9677 -1.01949e-20 0.0732004)
(9.90745 5.59696e-20 0.0885528)
(9.9308 5.31227e-20 0.0914432)
(9.85371 6.76022e-20 0.105389)
(9.88251 1.98738e-23 0.110858)
(9.78911 -2.07193e-21 0.123428)
(9.82394 2.34089e-20 0.131397)
(9.71359 -5.02271e-20 0.142997)
(9.755 -9.79043e-20 0.15341)
(9.62687 2.43606e-21 0.164489)
(9.67535 2.54493e-20 0.177383)
(9.52853 5.59396e-20 0.188301)
(9.58463 -5.36748e-20 0.203779)
(9.41796 -1.67217e-20 0.214862)
(9.48239 9.88802e-20 0.233082)
(9.29437 -3.54462e-20 0.244656)
(9.36806 -5.89345e-20 0.265831)
(9.15684 7.47469e-20 0.278245)
(9.24084 7.70547e-21 0.30263)
(9.00427 -4.72517e-21 0.316282)
(9.0998 1.88854e-19 0.344186)
(8.83539 8.14286e-20 0.359523)
(8.94397 -1.95212e-19 0.391317)
(8.64875 1.46114e-19 0.408849)
(8.77215 1.45951e-19 0.444972)
(8.44265 -1.68869e-19 0.465292)
(8.58295 2.77462e-21 0.506278)
(8.21513 -1.65917e-19 0.530046)
(8.37478 -1.88348e-19 0.576554)
(7.96396 -1.04323e-22 0.604472)
(8.14583 2.9432e-19 0.657326)
(7.68657 3.59622e-19 0.690104)
(7.89399 -3.46302e-19 0.750347)
(7.37998 3.07641e-19 0.788654)
(7.61687 3.54339e-19 0.857607)
(7.04072 3.7407e-19 0.902008)
(7.31159 -8.77033e-20 0.981368)
(6.66475 4.56973e-19 1.0322)
(6.97482 4.0727e-19 1.12418)
(6.2472 5.35311e-20 1.1814)
(6.60246 5.41405e-20 1.2889)
(5.78195 -1.50891e-21 1.35197)
(6.18942 0 1.47877)
(5.26089 7.46926e-19 1.54681)
(5.72892 -1.16962e-19 1.69766)
(4.67234 -1.26544e-19 1.77012)
(5.21152 9.78646e-19 1.95075)
(3.99794 -7.40923e-19 2.02996)
(4.62356 -8.64876e-19 2.24618)
(3.20328 -1.87229e-18 2.34033)
(3.9411 -1.09777e-19 2.60126)
(2.26258 4.1049e-19 2.80215)
(3.16605 -1.26378e-19 3.02552)
(2.04742 1.63199e-18 3.7978)
(9.99533 3.99949e-20 0.0465095)
(9.99742 -1.44473e-23 0.034622)
(9.97762 4.2696e-20 0.0697177)
(9.987 4.85134e-20 0.06312)
(9.94655 4.34037e-20 0.0909964)
(9.96384 8.09375e-20 0.087129)
(9.90444 -3.88693e-21 0.112949)
(9.92775 -9.52212e-20 0.111059)
(9.85195 -4.36689e-20 0.136114)
(9.88061 -1.11205e-19 0.136262)
(9.78909 -7.48328e-20 0.160749)
(9.82344 2.31671e-20 0.162973)
(9.71583 -1.98364e-20 0.18731)
(9.75628 -7.35948e-20 0.191601)
(9.63197 -3.21827e-20 0.216331)
(9.6789 1.53141e-19 0.222713)
(9.53721 -7.89555e-21 0.24836)
(9.59102 -1.60957e-19 0.256892)
(9.43107 5.37263e-20 0.283988)
(9.49226 1.25729e-19 0.29475)
(9.31292 -1.45581e-20 0.323877)
(9.3822 -4.40554e-20 0.336975)
(9.18201 1.2505e-19 0.368766)
(9.2602 -1.54478e-20 0.384328)
(9.0375 -8.54607e-21 0.419514)
(9.1255 2.52929e-19 0.43766)
(8.87847 -1.24799e-19 0.477131)
(8.97737 -1.33406e-19 0.497974)
(8.70379 0 0.54281)
(8.81489 -2.84039e-19 0.566471)
(8.51217 -2.00534e-20 0.617949)
(8.63704 -1.52781e-19 0.644576)
(8.30215 2.79823e-19 0.704185)
(8.44264 6.25278e-19 0.733951)
(8.07202 -6.20377e-20 0.803411)
(8.23036 -1.00567e-20 0.836539)
(7.81983 -3.40493e-19 0.917808)
(7.99872 -3.88924e-19 0.954613)
(7.54329 -4.76509e-20 1.04989)
(7.74598 4.57127e-20 1.09081)
(7.2396 -4.66997e-20 1.20255)
(7.47007 4.75884e-20 1.24823)
(6.90534 0 1.37915)
(7.16845 -7.94271e-19 1.43052)
(6.53618 0 1.58356)
(6.83799 7.11017e-19 1.642)
(6.1263 -1.15722e-19 1.8205)
(6.47454 0 1.88795)
(5.66755 1.23965e-19 2.09608)
(6.07243 -1.14371e-19 2.17508)
(5.14796 2.3638e-19 2.41933)
(5.62357 2.35698e-19 2.51267)
(4.55036 -2.34919e-19 2.8074)
(5.11783 1.81902e-18 2.91429)
(3.83568 1.59781e-18 3.27373)
(4.52253 -1.69064e-18 3.41348)
(3.06918 7.80606e-19 3.94136)
(3.96119 1.86999e-18 3.94763)
(2.69485 -2.5904e-19 5.09889)
(9.99282 9.46499e-21 0.0517857)
(9.99667 -1.4333e-19 0.0376178)
(9.97458 8.74417e-20 0.0807092)
(9.98496 4.84883e-21 0.0709911)
(9.94405 -6.14795e-20 0.107667)
(9.9615 -8.0468e-20 0.100824)
(9.9027 -2.02913e-19 0.135099)
(9.92611 -1.37599e-19 0.130341)
(9.85127 -4.16442e-20 0.163959)
(9.88013 -2.23724e-20 0.161172)
(9.78986 2.25325e-20 0.194726)
(9.82439 2.3419e-20 0.19385)
(9.71843 1.03863e-19 0.227944)
(9.759 -9.68531e-20 0.228875)
(9.63684 1.84134e-20 0.264234)
(9.68379 1.02058e-19 0.26688)
(9.54481 -2.19192e-20 0.304248)
(9.59854 -1.33572e-19 0.308547)
(9.44199 2.48503e-20 0.348695)
(9.50294 1.11003e-19 0.35459)
(9.3279 -4.44412e-20 0.398371)
(9.39665 -1.09644e-22 0.405815)
(9.20193 1.17152e-19 0.454155)
(9.27921 -1.38266e-19 0.463134)
(9.06339 1.21175e-19 0.517042)
(9.15003 2.57025e-19 0.52753)
(8.91156 -2.95262e-19 0.588223)
(9.00848 -2.59634e-19 0.600142)
(8.74563 -4.34643e-19 0.669129)
(8.85387 -5.54767e-21 0.682366)
(8.56465 5.05268e-19 0.761439)
(8.68546 -1.52821e-19 0.775853)
(8.36761 3.25519e-19 0.867119)
(8.50246 6.45062e-19 0.882528)
(8.15335 -3.43197e-19 0.988482)
(8.30401 -6.49668e-19 1.00466)
(7.92058 3.78581e-21 1.12824)
(8.08917 3.75985e-19 1.14493)
(7.6678 1.40621e-19 1.28955)
(7.8569 4.52161e-20 1.30651)
(7.39314 -7.10136e-19 1.47625)
(7.60601 1.85812e-19 1.49319)
(7.09427 -6.83282e-20 1.69291)
(7.33502 -7.92616e-19 1.70957)
(6.76819 7.03198e-19 1.94511)
(7.04212 1.08697e-19 1.96128)
(6.41071 0 2.23995)
(6.72495 7.11524e-19 2.25544)
(6.01596 0 2.58685)
(6.38029 1.68333e-18 2.60127)
(5.57545 1.80506e-18 2.9986)
(6.00342 -1.79806e-18 3.01137)
(5.08141 4.03459e-19 3.4986)
(5.59341 1.69533e-18 3.50038)
(4.48701 -1.47278e-18 4.08878)
(5.09612 -1.54647e-18 4.12288)
(3.95544 2.72254e-19 4.87898)
(4.81855 1.88988e-19 4.67654)
(3.42396 2.39773e-19 6.13788)
(9.99148 -1.45106e-19 0.0575048)
(9.9963 -4.89927e-21 0.0411688)
(9.97278 -1.65009e-19 0.0915831)
(9.98388 1.58236e-19 0.0790626)
(9.94286 -1.57826e-19 0.124019)
(9.96035 -1.61292e-19 0.114256)
(9.90251 4.53682e-20 0.156978)
(9.92579 8.44402e-20 0.149171)
(9.85242 4.36431e-20 0.191593)
(9.88116 1.32258e-19 0.185461)
(9.79274 -9.83878e-20 0.228497)
(9.82713 4.63841e-20 0.223896)
(9.72343 -9.4848e-20 0.268305)
(9.76381 -9.62878e-20 0.265084)
(9.64439 -5.44179e-20 0.311706)
(9.69112 -1.00899e-19 0.309725)
(9.55541 3.93867e-21 0.359439)
(9.60888 -9.19422e-22 0.358581)
(9.45618 8.40424e-20 0.412308)
(9.51685 -5.57003e-20 0.412453)
(9.34637 -9.63844e-20 0.471228)
(9.41472 1.44067e-19 0.472226)
(9.22554 8.51142e-21 0.537223)
(9.30216 -1.22936e-19 0.538935)
(9.09313 -1.32725e-19 0.611427)
(9.17883 3.81786e-19 0.613716)
(8.94855 3.42668e-20 0.695178)
(9.04418 -5.65885e-19 0.697841)
(8.79119 2.74133e-19 0.790078)
(8.89771 -2.55699e-22 0.792829)
(8.62043 0 0.898017)
(8.73894 2.8751e-19 0.900489)
(8.43565 -3.50468e-19 1.02121)
(8.56739 3.05113e-19 1.02294)
(8.23616 8.43755e-20 1.16229)
(8.38259 -6.2935e-19 1.1627)
(8.02126 4.12769e-19 1.3244)
(8.18409 -2.87856e-19 1.32276)
(7.79023 9.22972e-20 1.51124)
(7.97152 7.24761e-19 1.50669)
(7.5422 9.0059e-20 1.72734)
(7.74452 4.52192e-20 1.7188)
(7.27609 -6.05417e-19 1.97831)
(7.50271 0 1.96442)
(6.99064 1.16629e-19 2.27109)
(7.2458 -6.95139e-19 2.25016)
(6.68418 2.39247e-18 2.61453)
(6.97355 8.07715e-19 2.58445)
(6.35449 -9.49417e-20 3.02037)
(6.68588 1.673e-18 2.97807)
(5.99813 -1.90469e-18 3.50302)
(6.38176 -1.68099e-18 3.4457)
(5.62078 -2.08525e-19 4.08842)
(6.07404 -4.09979e-21 3.99788)
(5.16197 6.10643e-20 4.75952)
(5.67001 -3.07076e-18 4.71917)
(4.85614 1.61926e-19 5.58343)
(5.69377 2.47479e-18 5.21488)
(4.19216 2.9569e-18 6.90352)
(9.9908 3.0177e-19 0.063479)
(9.99615 -8.17483e-21 0.0449974)
(9.97192 1.54976e-19 0.102377)
(9.98343 9.90098e-21 0.0872187)
(9.94271 8.62578e-20 0.140016)
(9.96011 2.40273e-19 0.127385)
(9.90357 1.72342e-19 0.178299)
(9.92652 1.88974e-19 0.167457)
(9.85506 1.33297e-19 0.218429)
(9.88343 2.23471e-20 0.20901)
(9.79739 4.56923e-20 0.261172)
(9.83136 4.7707e-22 0.25297)
(9.73056 -1.02459e-19 0.307235)
(9.77042 9.64295e-20 0.300054)
(9.6545 -4.55182e-20 0.357383)
(9.70062 -3.10883e-22 0.351028)
(9.56906 -6.1513e-20 0.412438)
(9.62179 -1.03974e-19 0.406726)
(9.47397 7.88946e-21 0.473291)
(9.53381 -1.11133e-19 0.468037)
(9.36894 1.12924e-19 0.540937)
(9.43638 1.14968e-19 0.535924)
(9.25369 2.59149e-19 0.616512)
(9.32925 0 0.611475)
(9.12789 -6.7276e-20 0.701291)
(9.21227 2.86081e-19 0.695942)
(8.99111 -5.91147e-19 0.796732)
(9.0851 -2.79975e-19 0.790733)
(8.84296 1.73848e-20 0.904562)
(8.94744 -2.79197e-19 0.897474)
(8.68306 5.93019e-19 1.02682)
(8.799 2.69979e-19 1.01809)
(8.51113 1.25981e-20 1.16591)
(8.63961 2.96016e-19 1.15484)
(8.32689 -9.96304e-19 1.32468)
(8.46916 3.29063e-19 1.31041)
(8.13017 3.57568e-20 1.50658)
(8.28764 -1.35579e-18 1.48801)
(7.92095 6.69662e-19 1.71571)
(8.09525 6.61515e-19 1.69148)
(7.69935 -4.52312e-20 1.95706)
(7.89244 -8.93588e-20 1.92549)
(7.46562 -9.70729e-20 2.23692)
(7.67991 7.16927e-19 2.19578)
(7.22032 3.68007e-21 2.56316)
(7.45884 6.8898e-19 2.50961)
(6.96452 9.86483e-20 2.94566)
(7.23115 -1.38721e-18 2.87609)
(6.70006 1.00844e-19 3.39716)
(6.99989 0 3.30663)
(6.42832 1.98218e-19 3.93122)
(6.76685 1.23604e-19 3.81689)
(6.16859 -2.78342e-18 4.57412)
(6.5619 1.52062e-18 4.4081)
(5.84383 -2.03576e-18 5.28792)
(6.23947 -6.95365e-18 5.20492)
(5.71579 5.24794e-18 6.07985)
(6.54205 5.12824e-18 5.59395)
(4.95523 2.85602e-18 7.42856)
(9.99055 -2.99784e-19 0.0695485)
(9.99615 -1.40755e-20 0.0489331)
(9.97177 1.00243e-19 0.113003)
(9.98343 -1.58026e-19 0.0953351)
(9.94339 3.41965e-19 0.155552)
(9.96057 2.79604e-19 0.140154)
(9.90564 3.55137e-20 0.198917)
(9.92811 -4.10108e-20 0.185118)
(9.85896 -1.1101e-19 0.244324)
(9.88675 2.1557e-20 0.231706)
(9.80358 5.30566e-20 0.292648)
(9.83687 -9.11463e-20 0.280937)
(9.73954 1.96812e-19 0.344677)
(9.77861 9.60638e-20 0.333627)
(9.66681 -6.06729e-20 0.401247)
(9.71199 2.00647e-19 0.390608)
(9.58529 -1.53792e-19 0.463254)
(9.63693 -1.0366e-19 0.452774)
(9.4948 0 0.531662)
(9.55337 -1.62939e-19 0.521089)
(9.39512 0 0.607528)
(9.46113 2.26605e-19 0.596585)
(9.28608 3.16736e-20 0.692055)
(9.36004 -1.17608e-19 0.680392)
(9.16751 6.3959e-20 0.786618)
(9.25004 -2.48076e-19 0.773824)
(9.03922 3.22619e-20 0.892792)
(9.13101 3.52795e-19 0.878393)
(8.90101 -1.79841e-20 1.0124)
(9.00283 -2.70084e-19 0.995825)
(8.75276 -2.68229e-20 1.1476)
(8.86547 5.59017e-19 1.12813)
(8.59448 6.12783e-19 1.30093)
(8.71901 -8.74566e-19 1.27766)
(8.42632 -5.16756e-20 1.47537)
(8.56368 1.82267e-18 1.44722)
(8.24861 -7.05289e-19 1.67454)
(8.39993 -1.26283e-18 1.64013)
(8.06194 -1.0619e-19 1.90279)
(8.22851 -4.23397e-20 1.86038)
(7.86736 6.7942e-19 2.16542)
(8.05056 -4.35908e-20 2.11284)
(7.66639 1.5045e-18 2.46903)
(7.86778 7.1587e-19 2.40344)
(7.46132 -6.96388e-19 2.82193)
(7.68272 7.38906e-19 2.73969)
(7.25574 -1.48411e-18 3.23425)
(7.49916 -1.48053e-18 3.13091)
(7.05521 2.25651e-20 3.71875)
(7.32309 1.40164e-18 3.58824)
(6.86464 1.41886e-18 4.2864)
(7.15746 -1.22021e-18 4.12792)
(6.71504 -2.59227e-18 4.96217)
(7.05095 2.69985e-18 4.73763)
(6.51369 -2.84192e-18 5.69055)
(6.7976 -5.21697e-18 5.58924)
(6.50273 2.53752e-18 6.41938)
(7.33451 1.90362e-18 5.85509)
(5.68288 2.70092e-18 7.77114)
(9.99055 1.25039e-19 0.0755893)
(9.99625 2.73763e-19 0.0528652)
(9.97213 3.09519e-20 0.123375)
(9.98373 1.5122e-19 0.103303)
(9.94474 -1.103e-19 0.170554)
(9.96155 -1.19395e-19 0.152496)
(9.90855 -5.3744e-20 0.218745)
(9.93041 -2.12272e-20 0.202074)
(9.86392 3.92048e-20 0.269178)
(9.89095 -1.29217e-19 0.253442)
(9.81109 -4.45689e-20 0.322803)
(9.84348 4.48878e-20 0.307673)
(9.75012 1.0181e-19 0.380484)
(9.78816 9.48859e-20 0.365664)
(9.68103 1.5208e-19 0.443111)
(9.72502 -9.7405e-20 0.428305)
(9.60378 -1.13845e-19 0.511643)
(9.65407 1.5561e-19 0.496539)
(9.5183 7.04252e-20 0.587104)
(9.57531 -2.16975e-19 0.571379)
(9.4245 1.0327e-19 0.670608)
(9.48868 2.26846e-19 0.653912)
(9.32228 -3.99685e-19 0.763404)
(9.39414 -2.94392e-19 0.745319)
(9.2116 5.02067e-20 0.866935)
(9.29171 -3.74453e-20 0.84696)
(9.09245 4.0943e-20 0.98286)
(9.1814 2.56711e-19 0.960404)
(8.96486 3.18988e-19 1.11308)
(9.06331 -2.70378e-19 1.08744)
(8.82898 -3.08522e-19 1.2598)
(8.93766 5.43272e-19 1.23014)
(8.68511 3.7028e-19 1.42565)
(8.80479 -8.66145e-19 1.3909)
(8.53378 5.75184e-19 1.61369)
(8.66527 5.81337e-19 1.57256)
(8.37584 -5.86042e-19 1.82761)
(8.51995 -7.74425e-21 1.77851)
(8.21246 2.02372e-20 2.0719)
(8.37012 5.92713e-20 2.01281)
(8.04549 0 2.35193)
(8.21758 0 2.28032)
(7.87757 -4.43842e-20 2.67439)
(8.06486 0 2.58703)
(7.71256 -4.41321e-20 3.0476)
(7.91567 -4.41587e-20 2.9404)
(7.55607 1.3934e-18 3.48144)
(7.77534 0 3.34958)
(7.41677 1.97595e-19 3.98787)
(7.65239 1.39642e-18 3.82487)
(7.30147 -3.95575e-21 4.57475)
(7.54927 -1.40019e-18 4.38311)
(7.24944 -6.98735e-20 5.26462)
(7.53354 1.27945e-18 4.99634)
(7.15801 -2.13114e-18 5.9915)
(7.33932 -1.22451e-18 5.88552)
(7.2087 5.2295e-18 6.65497)
(8.06077 -1.01741e-18 6.03887)
(6.36155 9.5067e-19 7.99221)
(9.99074 2.97669e-19 0.0815069)
(9.99641 3.10933e-22 0.0567175)
(9.9729 -5.03078e-21 0.133409)
(9.98427 -1.84122e-20 0.111031)
(9.94665 -2.82251e-20 0.184949)
(9.96296 -2.96651e-19 0.164339)
(9.91219 -9.89336e-20 0.237697)
(9.9333 1.24694e-19 0.218253)
(9.86981 -1.20198e-19 0.29288)
(9.89591 -1.30428e-19 0.274125)
(9.81975 1.85401e-19 0.351506)
(9.85106 3.36897e-22 0.333062)
(9.76213 -1.08004e-19 0.414497)
(9.7989 1.89117e-19 0.396026)
(9.697 -8.94755e-20 0.482793)
(9.73953 -3.93323e-19 0.463954)
(9.62439 4.59979e-20 0.557393)
(9.67301 1.29968e-22 0.537822)
(9.54432 -5.29718e-20 0.639371)
(9.5994 1.57879e-19 0.618682)
(9.45681 -1.7966e-19 0.729885)
(9.51877 -3.32756e-19 0.707661)
(9.36188 7.21019e-20 0.830224)
(9.43117 -5.32301e-21 0.805985)
(9.2596 1.73887e-19 0.941868)
(9.33674 2.4241e-19 0.91504)
(9.15013 -6.272e-20 1.06652)
(9.23563 -3.14139e-19 1.03642)
(9.03374 -3.45504e-20 1.20611)
(9.12815 2.57392e-19 1.17194)
(8.91082 -3.36205e-20 1.36291)
(9.01472 -3.59111e-22 1.32369)
(8.78195 -6.36792e-19 1.53953)
(8.89596 -6.26688e-19 1.49409)
(8.64804 -1.05665e-20 1.73909)
(8.77272 -5.98314e-19 1.68599)
(8.51037 6.39381e-19 1.96529)
(8.64623 1.19441e-18 1.90272)
(8.37076 3.85401e-20 2.22257)
(8.51831 6.05081e-22 2.14833)
(8.23171 0 2.51625)
(8.39139 0 2.42759)
(8.09678 0 2.85291)
(8.26866 1.2532e-18 2.74639)
(7.97109 0 3.24059)
(8.15479 -1.41707e-18 3.11192)
(7.86185 0 3.68863)
(8.05627 1.53935e-19 3.53296)
(7.77999 -1.60269e-19 4.20804)
(7.98371 1.20839e-18 4.01874)
(7.73325 -1.66229e-19 4.80339)
(7.93786 -2.49243e-18 4.58702)
(7.76431 0 5.49551)
(8.00344 1.106e-18 5.19505)
(7.77225 -7.4088e-20 6.21505)
(7.86276 9.02745e-19 6.10718)
(7.84261 -1.95429e-18 6.83146)
(8.72449 -2.4226e-18 6.1798)
(6.99274 -5.90607e-19 8.14597)
(9.99107 -3.16306e-19 0.0872285)
(9.99662 -1.36146e-19 0.0604356)
(9.97397 -3.1621e-19 0.143033)
(9.98498 -3.10274e-19 0.118445)
(9.94903 -1.34885e-19 0.198666)
(9.96471 1.56137e-19 0.175618)
(9.91644 8.80524e-20 0.25569)
(9.93667 0 0.233584)
(9.8765 -7.25731e-21 0.315331)
(9.9015 8.63463e-20 0.293669)
(9.82943 7.54805e-21 0.378635)
(9.85946 -6.67038e-22 0.357001)
(9.77539 -1.06963e-19 0.446576)
(9.81068 1.47242e-21 0.42459)
(9.71449 -2.9675e-19 0.520126)
(9.7553 -1.96562e-19 0.497408)
(9.64683 1.14729e-19 0.600313)
(9.69347 -1.44927e-21 0.576457)
(9.57251 -1.301e-19 0.688243)
(9.62532 1.91621e-21 0.662809)
(9.49165 -1.53206e-19 0.785112)
(9.551 -3.34176e-19 0.757623)
(9.40439 1.69027e-19 0.892232)
(9.47068 3.98066e-19 0.862155)
(9.31092 -2.54346e-19 1.0111)
(9.38459 0 0.9778)
(9.21159 1.39551e-20 1.14342)
(9.29306 -2.50827e-19 1.10614)
(9.10684 2.88325e-19 1.29116)
(9.19657 2.57797e-19 1.249)
(8.99731 -6.01655e-19 1.45657)
(9.09574 -3.13749e-20 1.40847)
(8.88386 -5.89558e-19 1.64226)
(8.99142 -1.17001e-18 1.58695)
(8.76769 6.23684e-19 1.85128)
(8.88477 5.17218e-19 1.78722)
(8.65052 5.44755e-19 2.08724)
(8.77733 5.88868e-19 2.01251)
(8.53472 -3.7987e-20 2.35449)
(8.67134 5.46218e-19 2.26671)
(8.42347 1.25839e-18 2.65822)
(8.56978 -4.4573e-19 2.55451)
(8.321 -1.57196e-19 3.00474)
(8.47652 2.44665e-18 2.88159)
(8.2334 -1.2691e-18 3.40165)
(8.39695 -2.60935e-18 3.25474)
(8.16904 1.35183e-18 3.8576)
(8.33835 -2.84378e-19 3.68225)
(8.14028 -1.06038e-18 4.38283)
(8.31304 1.20866e-18 4.17233)
(8.15566 -1.39956e-18 4.9793)
(8.31966 -2.32949e-18 4.7439)
(8.25575 2.01344e-18 5.66806)
(8.45651 1.10504e-18 5.34409)
(8.35919 -1.25268e-18 6.37975)
(8.3695 1.63035e-18 6.26401)
(8.42319 2.03176e-18 6.98442)
(9.3351 -2.58867e-18 6.30596)
(7.59629 -1.56984e-18 8.27325)
(9.99149 -1.33472e-19 0.0926975)
(9.99687 0 0.0639791)
(9.97528 1.72414e-19 0.152181)
(9.98583 1.83283e-20 0.125485)
(9.95177 2.87911e-19 0.21164)
(9.96672 1.38095e-19 0.186271)
(9.92119 0 0.27265)
(9.94045 -1.2164e-19 0.248006)
(9.88384 9.12796e-20 0.336438)
(9.90764 -2.11823e-19 0.312001)
(9.83994 -6.70825e-21 0.404081)
(9.86853 1.78368e-19 0.379399)
(9.7897 -9.17718e-20 0.476588)
(9.82331 -1.84857e-19 0.451248)
(9.73326 1.02422e-19 0.554956)
(9.77214 -2.8897e-19 0.528545)
(9.6708 -1.14282e-19 0.640225)
(9.71522 4.01329e-19 0.612302)
(9.60251 -2.07851e-19 0.733524)
(9.65276 -4.18164e-19 0.7036)
(9.52859 2.28942e-19 0.836074)
(9.58499 1.0565e-19 0.803622)
(9.4493 2.23005e-19 0.9492)
(9.5122 2.26612e-19 0.913641)
(9.36496 0 1.07439)
(9.43473 2.32994e-19 1.03504)
(9.27607 0 1.21334)
(9.35303 1.8703e-21 1.16937)
(9.18327 -6.60366e-20 1.36798)
(9.26776 2.51087e-19 1.31843)
(9.08742 -6.13668e-19 1.54054)
(9.17975 -6.38502e-19 1.48427)
(8.98962 -4.6673e-20 1.73357)
(9.09007 -6.07842e-19 1.66925)
(8.89138 4.82035e-19 1.95001)
(9.0001 1.09722e-18 1.87603)
(8.79473 5.89299e-19 2.19331)
(8.91178 1.77349e-21 2.10773)
(8.70248 1.36118e-19 2.46762)
(8.82757 2.42852e-20 2.36797)
(8.61839 7.5073e-19 2.77795)
(8.75083 -1.58347e-18 2.66124)
(8.54736 1.1605e-20 3.1303)
(8.68609 -1.07763e-18 2.99298)
(8.49614 -1.63525e-18 3.53173)
(8.63936 8.11104e-20 3.36956)
(8.47393 -4.43599e-19 3.99026)
(8.61844 -1.5831e-19 3.79874)
(8.49389 0 4.51553)
(8.637 -1.02832e-18 4.28797)
(8.56611 0 5.1086)
(8.69223 1.94148e-18 4.85719)
(8.72364 6.94932e-19 5.79257)
(8.89084 0 5.4504)
(8.92442 1.79859e-18 6.4962)
(8.86464 7.28257e-19 6.35873)
(8.98135 -5.83071e-18 7.14286)
(9.90141 -3.007e-19 6.43572)
(8.21567 -2.58906e-18 8.39843)
(9.99199 1.52251e-19 0.0978689)
(9.99714 8.9053e-21 0.0673172)
(9.97678 -1.34524e-20 0.160798)
(9.98678 4.35756e-19 0.132102)
(9.95482 -2.77139e-19 0.223814)
(9.96894 -1.56231e-19 0.196248)
(9.92637 -3.35451e-19 0.288512)
(9.94455 4.02072e-20 0.261463)
(9.89173 -1.17327e-19 0.356126)
(9.91422 -8.53431e-20 0.329055)
(9.85116 -6.57364e-21 0.427754)
(9.87819 3.07842e-19 0.40018)
(9.80489 -3.84079e-19 0.50443)
(9.83666 -1.83743e-19 0.475909)
(9.7531 2.18059e-20 0.587164)
(9.78985 -2.8814e-19 0.55726)
(9.69605 8.38857e-20 0.677001)
(9.73802 3.00424e-19 0.645242)
(9.634 -9.62044e-20 0.775083)
(9.68143 -2.0807e-19 0.740935)
(9.56723 1.05105e-19 0.882643)
(9.6204 8.88686e-22 0.845536)
(9.49611 2.36619e-19 1.001)
(9.5553 0 0.96032)
(9.42109 2.32081e-19 1.13161)
(9.4866 4.57136e-21 1.08663)
(9.34284 2.5678e-19 1.2761)
(9.41489 2.36727e-19 1.22596)
(9.26216 -3.31797e-19 1.4364)
(9.34098 1.3088e-19 1.38007)
(9.18011 -6.32771e-19 1.61464)
(9.26586 -4.48644e-19 1.55096)
(9.09803 5.52866e-19 1.8133)
(9.1908 6.47304e-20 1.74088)
(9.01769 6.09194e-19 2.03519)
(9.1174 6.11659e-19 1.95236)
(8.94144 -5.61814e-19 2.28353)
(9.04794 1.77821e-21 2.18834)
(8.87234 -1.70231e-18 2.56219)
(8.98513 -5.63005e-19 2.4522)
(8.81453 -3.42028e-18 2.87592)
(8.9325 -1.00936e-18 2.74811)
(8.77352 -1.01729e-18 3.23033)
(8.89512 -2.27999e-18 3.08117)
(8.7566 1.56532e-18 3.63199)
(8.8795 1.27973e-18 3.45728)
(8.77358 -7.30328e-19 4.08833)
(8.89383 1.29268e-18 3.88367)
(8.83814 8.50426e-19 4.60877)
(8.95282 -3.44242e-18 4.36732)
(8.96334 2.01557e-18 5.19492)
(9.05379 1.94931e-18 4.92794)
(9.17106 0 5.87268)
(9.30553 0 5.5143)
(9.47201 0 6.56751)
(9.35367 5.84864e-19 6.38715)
(9.56324 0 7.31851)
(10.4304 -5.72079e-19 6.56584)
(8.90534 -6.37209e-19 8.53862)
(9.99254 3.00747e-19 0.102707)
(9.99744 6.16638e-23 0.0704256)
(9.97843 2.80257e-19 0.168839)
(9.98782 -2.92864e-19 0.138256)
(9.95812 1.65396e-19 0.235137)
(9.97135 0 0.205502)
(9.9319 2.88086e-19 0.303221)
(9.94894 1.99898e-21 0.273907)
(9.90009 3.47626e-19 0.374327)
(9.92117 1.26824e-19 0.344779)
(9.86297 1.21698e-19 0.449572)
(9.88832 4.46193e-20 0.419281)
(9.82079 -8.95043e-20 0.53001)
(9.8506 -1.81569e-19 0.498506)
(9.7738 5.68806e-22 0.616652)
(9.80827 1.8985e-19 0.58348)
(9.7223 0 0.710537)
(9.76166 -9.74061e-20 0.6752)
(9.66663 -1.07699e-19 0.812807)
(9.71106 -3.04045e-19 0.774733)
(9.60716 -1.04448e-19 0.924692)
(9.65687 2.08401e-19 0.883282)
(9.54434 -2.32359e-19 1.04748)
(9.59957 0 1.0021)
(9.47877 1.19981e-20 1.18257)
(9.53973 -1.17815e-19 1.13248)
(9.41125 1.09757e-19 1.33154)
(9.47807 4.67074e-19 1.27583)
(9.34273 7.96127e-21 1.49625)
(9.4155 -2.38519e-19 1.43386)
(9.27442 2.55439e-19 1.67877)
(9.35319 1.26148e-19 1.60852)
(9.20786 1.28248e-19 1.8814)
(9.29258 -4.94202e-19 1.8019)
(9.14507 0 2.10677)
(9.23544 1.01732e-18 2.01633)
(9.0887 0 2.35789)
(9.18426 -7.71649e-19 2.25453)
(9.04206 1.31485e-19 2.63834)
(9.14203 0 2.51965)
(9.00952 1.31246e-19 2.95252)
(9.11255 3.85265e-19 2.81554)
(8.99698 0 3.30556)
(9.10114 1.27527e-18 3.14679)
(9.01219 1.00407e-18 3.70346)
(9.11471 -1.01399e-18 3.51875)
(9.06544 -1.3312e-18 4.15314)
(9.16177 1.01782e-18 3.93801)
(9.17086 -2.47407e-18 4.6637)
(9.2577 -1.96479e-18 4.41091)
(9.34552 1.06814e-21 5.23793)
(9.40164 1.03503e-21 4.95517)
(9.60081 5.63938e-19 5.90297)
(9.69814 0 5.5305)
(10.001 5.14746e-19 6.58654)
(9.83598 -4.96489e-19 6.34159)
(10.212 -1.22868e-18 7.49682)
(10.9262 -9.10925e-19 6.65914)
(9.70458 -7.83501e-20 8.71233)
(9.99315 -5.99547e-19 0.107182)
(9.99775 -2.7539e-19 0.0732855)
(9.98021 -5.67116e-19 0.176265)
(9.98893 -5.91995e-19 0.143918)
(9.96163 -1.63497e-19 0.245569)
(9.9739 2.879e-19 0.213999)
(9.93774 -1.57016e-19 0.316735)
(9.95356 -1.2419e-20 0.285301)
(9.90885 -1.77975e-19 0.391002)
(9.92845 -7.78266e-20 0.359135)
(9.87527 -2.62994e-19 0.4695)
(9.89887 -2.59478e-19 0.436667)
(9.83729 1.04378e-19 0.553294)
(9.86504 -6.57317e-21 0.519)
(9.7952 8.71086e-20 0.643389)
(9.8273 2.80833e-19 0.607164)
(9.74935 -4.05071e-19 0.740805)
(9.78603 -9.82777e-20 0.702137)
(9.70015 1.98728e-20 0.846673)
(9.74153 -5.93181e-19 0.804959)
(9.64805 3.10158e-19 0.962211)
(9.69425 5.15843e-19 0.916833)
(9.59358 1.13155e-19 1.08866)
(9.64482 0 1.03898)
(9.53747 3.45135e-19 1.22734)
(9.59389 9.31798e-21 1.1726)
(9.48063 1.10441e-19 1.37978)
(9.54227 4.51015e-19 1.31905)
(9.42414 -1.16393e-19 1.54776)
(9.49098 -3.39241e-19 1.47995)
(9.36937 -6.30605e-19 1.73322)
(9.44137 0 1.65716)
(9.31801 4.06298e-19 1.93827)
(9.395 -9.80454e-19 1.85259)
(9.27223 2.36021e-19 2.16531)
(9.35386 1.5058e-18 2.06838)
(9.23488 -7.69547e-19 2.4171)
(9.32044 -3.1481e-19 2.30696)
(9.20956 2.55068e-19 2.69693)
(9.2979 -4.73296e-19 2.57119)
(9.2009 1.53344e-18 3.00875)
(9.29039 1.19375e-18 2.86454)
(9.21502 2.81546e-19 3.35714)
(9.30341 1.07191e-18 3.19103)
(9.25995 -1.02851e-18 3.7474)
(9.34406 -1.04036e-18 3.55536)
(9.34643 4.5291e-19 4.18573)
(9.42114 -1.25618e-18 3.96314)
(9.48882 4.74348e-19 4.68014)
(9.55018 1.28261e-18 4.41968)
(9.70826 0 5.23463)
(9.73319 0 4.93872)
(10.0106 -1.05491e-18 5.87227)
(10.0648 5.60842e-19 5.4922)
(10.5012 -1.43996e-18 6.53217)
(10.2999 -1.16826e-19 6.21216)
(10.9419 1.60819e-18 7.63326)
(11.426 7.03719e-20 6.60916)
(11.436 1.15256e-19 8.73781)
(0.0944197 0 -0.0735916)
(0.054023 -7.73268e-21 -0.0686951)
(0.250193 0 -0.0710211)
(0.132564 0 -0.0889112)
(0.452449 0 -0.0583412)
(0.316628 5.72208e-21 -0.0817599)
(0.707899 0 -0.0509784)
(0.554118 -1.55333e-20 -0.0796445)
(0.983444 -7.83069e-22 -0.0479146)
(0.834173 0 -0.0802876)
(1.23518 8.62753e-23 -0.0464162)
(1.10736 1.93574e-21 -0.08023)
(1.45242 -8.0673e-22 -0.0450894)
(1.34306 7.24638e-22 -0.0791099)
(1.64164 -1.94494e-21 -0.0436761)
(1.54295 -1.26383e-21 -0.0772529)
(1.80938 -2.41142e-22 -0.0421436)
(1.7148 -1.90931e-21 -0.0748565)
(1.95981 3.22276e-22 -0.0404371)
(1.86502 3.28108e-22 -0.072058)
(2.0957 0 -0.0384825)
(1.99815 9.9378e-22 -0.0689513)
(2.21886 0 -0.0362239)
(2.11729 4.64719e-22 -0.0655)
(2.33017 0 -0.033567)
(2.22422 -1.32834e-21 -0.061569)
(2.4295 0 -0.0304548)
(2.31983 0 -0.0568388)
(2.51648 0 -0.0270423)
(2.40413 -1.13618e-21 -0.0512813)
(2.59152 -5.63104e-22 -0.0234637)
(2.47684 -7.37651e-22 -0.0454479)
(2.65499 -1.20401e-21 -0.0197188)
(2.53855 3.62377e-22 -0.039414)
(2.7067 -6.41432e-22 -0.0162337)
(2.58966 1.58107e-21 -0.0329099)
(2.74808 0 -0.0137795)
(2.62929 -1.95739e-22 -0.0270136)
(2.78286 0 -0.0123579)
(2.65817 1.92513e-22 -0.023274)
(2.81402 0 -0.0111743)
(2.68001 0 -0.0213467)
(2.8422 0 -0.0101543)
(2.69775 0 -0.019779)
(2.86793 1.19031e-21 -0.0105908)
(2.71059 0 -0.0185345)
(2.89391 1.19626e-21 -0.0139501)
(2.71681 -1.68146e-22 -0.0191377)
(2.92486 0 -0.0207156)
(2.71803 -2.66163e-21 -0.0230937)
(2.96677 0 -0.0305294)
(2.71943 -2.43231e-21 -0.0314366)
(3.02658 2.70423e-23 -0.0427897)
(2.72875 -7.5085e-23 -0.0450651)
(3.11206 1.33672e-23 -0.0565431)
(2.75666 2.19684e-21 -0.0648201)
(3.23012 -2.68431e-23 -0.0687769)
(2.81727 -6.52234e-23 -0.0904611)
(2.95692 -1.79949e-23 -0.115113)
(0.0479412 -8.20941e-21 -0.113239)
(0.0234675 -1.50758e-20 -0.115443)
(0.181563 5.05767e-21 -0.133733)
(0.0521042 -1.75492e-22 -0.161751)
(0.400991 -6.24594e-21 -0.128879)
(0.235828 1.6763e-20 -0.16526)
(0.683337 -1.52621e-20 -0.127919)
(0.471379 -1.15989e-20 -0.165045)
(0.976428 2.26372e-21 -0.127909)
(0.74387 0 -0.165924)
(1.23281 1.97478e-21 -0.126247)
(0.999036 -3.54125e-21 -0.16406)
(1.44519 -6.65451e-22 -0.122865)
(1.20985 2.84272e-21 -0.159825)
(1.62271 -1.88623e-21 -0.118522)
(1.38008 -1.12931e-21 -0.154364)
(1.77409 -1.21397e-21 -0.113719)
(1.51879 2.97732e-21 -0.148315)
(1.9052 1.01041e-21 -0.108633)
(1.6336 0 -0.141965)
(2.02045 1.469e-21 -0.103284)
(1.7301 -1.35745e-21 -0.135363)