/*--------------------------------*- C++ -*----------------------------------*\
| =========                 |                                                 |
| \\      /  F ield         | OpenFOAM: The Open Source CFD Toolbox           |
|  \\    /   O peration     | Version:  dev                                   |
|   \\  /    A nd           | Web:      www.OpenFOAM.org                      |
|    \\/     M anipulation  |                                                 |
\*---------------------------------------------------------------------------*/
FoamFile
{
    version     2.0;
    format      ascii;
    class       volVectorField;
    location    "3.24";
    object      cellDisplacement;
}
// * * * * * * * * * * * * * * * * * * * * * * * * * * * * * * * * * * * * * //

dimensions      [0 1 0 0 0 0 0];

internalField   nonuniform List<vector> 
465
(
(0.109252 0 -0.00345751)
(0.110599 0 -0.00388725)
(0.114052 0 -0.00427513)
(0.117428 0 -0.00471825)
(0.111505 0 -0.00426592)
(0.114699 0 -0.00466278)
(0.117764 0 -0.00510525)
(0.120644 0 -0.00559517)
(0.123275 0 -0.00613343)
(0.112027 0 -0.00459076)
(0.114967 0 -0.00498725)
(0.117745 0 -0.00542071)
(0.120317 0 -0.00589133)
(0.122635 0 -0.00639804)
(0.124652 0 -0.00693822)
(0.126328 0 -0.00750713)
(0.112224 0 -0.00486351)
(0.114925 0 -0.00525291)
(0.117446 0 -0.00567157)
(0.119751 0 -0.00611836)
(0.121806 0 -0.00659094)
(0.123577 0 -0.00708557)
(0.12504 0 -0.00759667)
(0.126175 0 -0.0081164)
(0.126976 0 -0.00863399)
(0.112144 0 -0.00508623)
(0.114628 0 -0.00546391)
(0.116922 0 -0.00586408)
(0.118998 0 -0.00628466)
(0.120832 0 -0.00672261)
(0.122401 0 -0.00717377)
(0.123691 0 -0.00763259)
(0.124692 0 -0.00809199)
(0.125403 0 -0.00854328)
(0.111828 0 -0.0052607)
(0.114121 0 -0.00562405)
(0.116216 0 -0.00600367)
(0.118096 0 -0.00639719)
(0.119743 0 -0.00680136)
(0.121146 0 -0.00721206)
(0.122294 0 -0.0076242)
(0.123185 0 -0.00803179)
(0.123822 0 -0.00842797)
(0.111318 0 -0.00539013)
(0.113439 0 -0.00573702)
(0.11536 0 -0.00609502)
(0.117071 0 -0.00646161)
(0.118562 0 -0.00683361)
(0.119825 0 -0.00720719)
(0.120857 0 -0.00757792)
(0.121657 0 -0.00794087)
(0.122231 0 -0.00829073)
(0.110643 0 -0.00547668)
(0.11261 0 -0.00580587)
(0.114381 0 -0.00614194)
(0.115947 0 -0.00648238)
(0.117305 0 -0.0068242)
(0.11845 0 -0.00716401)
(0.119383 0 -0.00749804)
(0.120108 0 -0.00782233)
(0.120628 0 -0.00813275)
(0.109826 0 -0.00552208)
(0.111659 0 -0.00583304)
(0.113298 0 -0.00614742)
(0.11474 0 -0.00646284)
(0.115983 0 -0.00677662)
(0.117029 0 -0.0070858)
(0.117879 0 -0.00738728)
(0.118538 0 -0.00767789)
(0.119012 0 -0.00795443)
(0.10889 0 -0.00552777)
(0.110604 0 -0.00582039)
(0.112128 0 -0.00611366)
(0.113463 0 -0.00640539)
(0.114609 0 -0.00669323)
(0.11557 0 -0.00697467)
(0.116348 0 -0.00724716)
(0.116951 0 -0.0075082)
(0.117385 0 -0.0077553)
(0.106055 0 -0.00522027)
(0.107853 0 -0.00549468)
(0.109462 0 -0.00576921)
(0.110887 0 -0.00604214)
(0.112128 0 -0.00631156)
(0.113191 0 -0.00657544)
(0.114078 0 -0.0068317)
(0.114796 0 -0.00707828)
(0.115349 0 -0.0073132)
(0.115747 0 -0.00753457)
(0.105029 0 -0.00516515)
(0.106732 0 -0.0054236)
(0.10825 0 -0.0056803)
(0.109588 0 -0.0059337)
(0.110749 0 -0.00618213)
(0.111739 0 -0.00642387)
(0.112562 0 -0.0066572)
(0.113226 0 -0.00688045)
(0.113737 0 -0.00709206)
(0.114102 0 -0.00729056)
(0.103926 0 -0.00507226)
(0.105546 0 -0.00531466)
(0.106984 0 -0.00555389)
(0.108245 0 -0.00578855)
(0.109336 0 -0.00601721)
(0.110262 0 -0.00623841)
(0.111031 0 -0.00645075)
(0.111648 0 -0.00665289)
(0.112121 0 -0.00684361)
(0.112457 0 -0.00702177)
(0.102765 0 -0.00494112)
(0.10431 0 -0.00516749)
(0.105677 0 -0.00538963)
(0.106871 0 -0.0056063)
(0.107901 0 -0.00581626)
(0.108772 0 -0.00601832)
(0.109493 0 -0.00621133)
(0.110069 0 -0.00639422)
(0.110509 0 -0.00656604)
(0.110819 0 -0.00672596)
(0.101561 0 -0.00477089)
(0.103041 0 -0.00498127)
(0.104346 0 -0.00518664)
(0.105482 0 -0.00538595)
(0.106458 0 -0.00557814)
(0.107281 0 -0.00576223)
(0.10796 0 -0.00593728)
(0.1085 0 -0.00610245)
(0.10891 0 -0.00625702)
(0.109197 0 -0.00640036)
(0.100334 0 -0.00456031)
(0.101757 0 -0.00475465)
(0.103006 0 -0.0049435)
(0.104092 0 -0.00512595)
(0.105021 0 -0.00530111)
(0.105803 0 -0.00546816)
(0.106444 0 -0.00562636)
(0.106953 0 -0.00577505)
(0.107336 0 -0.00591369)
(0.107602 0 -0.00604178)
(0.0991029 0 -0.00430763)
(0.100475 0 -0.00448581)
(0.101677 0 -0.00465824)
(0.102718 0 -0.00482415)
(0.103607 0 -0.00498281)
(0.104352 0 -0.00513354)
(0.104961 0 -0.00527575)
(0.105442 0 -0.00540892)
(0.105802 0 -0.00553265)
(0.106049 0 -0.00564657)
(0.0978888 0 -0.00401065)
(0.0992172 0 -0.00417237)
(0.100378 0 -0.00432831)
(0.10138 0 -0.00447783)
(0.102233 0 -0.0046203)
(0.102946 0 -0.00475518)
(0.103527 0 -0.00488199)
(0.103984 0 -0.00500034)
(0.104324 0 -0.00510993)
(0.104553 0 -0.00521048)
(0.0967144 0 -0.00366661)
(0.0980048 0 -0.00381139)
(0.0991294 0 -0.00395057)
(0.100098 0 -0.00408359)
(0.100921 0 -0.00420994)
(0.101607 0 -0.00432919)
(0.102163 0 -0.00444095)
(0.102599 0 -0.00454492)
(0.10292 0 -0.00464088)
(0.103135 0 -0.00472865)
(0.0956049 0 -0.0032722)
(0.0968629 0 -0.00339932)
(0.0979569 0 -0.0035212)
(0.0988976 0 -0.00363736)
(0.0996944 0 -0.0037474)
(0.100357 0 -0.00385095)
(0.100892 0 -0.00394773)
(0.101309 0 -0.0040375)
(0.101615 0 -0.0041201)
(0.101817 0 -0.00419541)
(0.0945884 0 -0.00282348)
(0.0958191 0 -0.00293192)
(0.0968877 0 -0.00303565)
(0.0978046 0 -0.00313428)
(0.0985798 0 -0.00322749)
(0.0992222 0 -0.003315)
(0.0997402 0 -0.00339657)
(0.100142 0 -0.00347203)
(0.100434 0 -0.00354126)
(0.100625 0 -0.00360419)
(0.0936959 0 -0.00231583)
(0.0949046 0 -0.00240419)
(0.0959525 0 -0.00248855)
(0.0968503 0 -0.00256863)
(0.0976079 0 -0.00264415)
(0.0982343 0 -0.00271489)
(0.098738 0 -0.00278069)
(0.099127 0 -0.00284141)
(0.0994084 0 -0.00289697)
(0.0995892 0 -0.00294732)
(0.0929624 0 -0.00174385)
(0.0941543 0 -0.00181028)
(0.0951864 0 -0.00187363)
(0.0960695 0 -0.00193366)
(0.0968136 0 -0.00199018)
(0.0974277 0 -0.00204304)
(0.0979204 0 -0.0020921)
(0.0982995 0 -0.00213729)
(0.0985724 0 -0.00217853)
(0.0987458 0 -0.0022158)
(0.0924272 0 -0.00110131)
(0.0936076 0 -0.0011434)
(0.0946288 0 -0.0011835)
(0.0955018 0 -0.00122147)
(0.0962365 0 -0.00125717)
(0.0968421 0 -0.00129051)
(0.0973271 0 -0.0013214)
(0.0976994 0 -0.0013498)
(0.0979663 0 -0.00137567)
(0.0981345 0 -0.00139899)
(0.0921346 0 -0.00038108)
(0.0933087 0 -0.000395717)
(0.0943242 0 -0.000409656)
(0.0951918 0 -0.000422844)
(0.0959217 0 -0.000435239)
(0.0965228 0 -0.000446803)
(0.0970038 0 -0.000457509)
(0.0973724 0 -0.000467338)
(0.0976361 0 -0.000476278)
(0.0978015 0 -0.000484321)
(0.127335 0 -0.00901282)
(0.125727 0 -0.00887027)
(0.125876 0 -0.00908148)
(0.125961 0 -0.00928746)
(0.124118 0 -0.00871289)
(0.124256 0 -0.00889651)
(0.124337 0 -0.00907531)
(0.122501 0 -0.00854085)
(0.122629 0 -0.00870173)
(0.122707 0 -0.00885821)
(0.120875 0 -0.00835355)
(0.120993 0 -0.00849527)
(0.121066 0 -0.00863286)
(0.119238 0 -0.00815029)
(0.119346 0 -0.00827581)
(0.119413 0 -0.00839753)
(0.117591 0 -0.00792956)
(0.117689 0 -0.008041)
(0.11775 0 -0.00814927)
(0.115935 0 -0.00769019)
(0.116025 0 -0.00778961)
(0.116079 0 -0.00788597)
(0.114274 0 -0.00742948)
(0.114355 0 -0.00751839)
(0.114403 0 -0.0076047)
(0.112613 0 -0.00714603)
(0.112685 0 -0.00722538)
(0.112726 0 -0.00730232)
(0.11096 0 -0.00683712)
(0.111025 0 -0.00690795)
(0.111059 0 -0.00697645)
(0.109325 0 -0.00649966)
(0.109382 0 -0.00656279)
(0.10941 0 -0.00662363)
(0.107719 0 -0.00613022)
(0.107769 0 -0.00618631)
(0.107791 0 -0.00624019)
(0.106154 0 -0.00572495)
(0.106198 0 -0.00577453)
(0.106214 0 -0.005822)
(0.104649 0 -0.00527943)
(0.104686 0 -0.00532293)
(0.104697 0 -0.00536444)
(0.103221 0 -0.00478862)
(0.103253 0 -0.00482635)
(0.10326 0 -0.00486223)
(0.101895 0 -0.00424668)
(0.101922 0 -0.00427887)
(0.101924 0 -0.00430937)
(0.100696 0 -0.00364689)
(0.100719 0 -0.00367363)
(0.100716 0 -0.00369888)
(0.0996545 0 -0.00298138)
(0.0996737 0 -0.00300265)
(0.0996677 0 -0.00302269)
(0.0988063 0 -0.00224093)
(0.0988227 0 -0.0022566)
(0.0988139 0 -0.0022713)
(0.0981917 0 -0.00141467)
(0.098206 0 -0.00142441)
(0.0981953 0 -0.00143355)
(0.0978569 0 -0.000489714)
(0.0978701 0 -0.000493064)
(0.0978584 0 -0.000496196)
(0.125991 0 -0.00959157)
(0.124376 0 -0.00933919)
(0.124197 0 -0.00967014)
(0.123783 0 -0.00996824)
(0.123135 0 -0.0102236)
(0.122749 0 -0.0090891)
(0.122599 0 -0.00937917)
(0.122238 0 -0.00964264)
(0.121663 0 -0.00987131)
(0.120874 0 -0.0100597)
(0.11987 0 -0.0102036)
(0.121108 0 -0.00883616)
(0.120977 0 -0.00909217)
(0.120657 0 -0.0093252)
(0.12014 0 -0.00952945)
(0.119422 0 -0.00969999)
(0.118502 0 -0.00983277)
(0.117377 0 -0.00992482)
(0.116048 0 -0.009974)
(0.119451 0 -0.008577)
(0.119335 0 -0.00880342)
(0.119044 0 -0.00901002)
(0.118572 0 -0.00919218)
(0.117912 0 -0.00934568)
(0.11706 0 -0.00946682)
(0.116012 0 -0.00955257)
(0.114765 0 -0.0096006)
(0.113315 0 -0.00960934)
(0.117783 0 -0.00830888)
(0.117675 0 -0.00850914)
(0.117406 0 -0.00869234)
(0.116968 0 -0.0088545)
(0.116354 0 -0.00899196)
(0.115558 0 -0.00910138)
(0.114573 0 -0.00917988)
(0.113395 0 -0.00922506)
(0.112018 0 -0.00923508)
(0.116107 0 -0.00802778)
(0.116003 0 -0.00820531)
(0.115749 0 -0.00836778)
(0.115337 0 -0.00851186)
(0.114758 0 -0.00863438)
(0.114007 0 -0.00873235)
(0.113074 0 -0.0088031)
(0.111954 0 -0.00884429)
(0.11064 0 -0.00885397)
(0.114424 0 -0.0077311)
(0.114321 0 -0.00788836)
(0.114077 0 -0.0080323)
(0.113685 0 -0.00816)
(0.113134 0 -0.00826868)
(0.112418 0 -0.00835569)
(0.111529 0 -0.00841855)
(0.110458 0 -0.00845505)
(0.109196 0 -0.00846325)
(0.112741 0 -0.00741489)
(0.112637 0 -0.00755443)
(0.1124 0 -0.00768187)
(0.112021 0 -0.00779477)
(0.111492 0 -0.00789072)
(0.110805 0 -0.00796735)
(0.10995 0 -0.00802244)
(0.108919 0 -0.00805391)
(0.107702 0 -0.00805988)
(0.111067 0 -0.00707643)
(0.110959 0 -0.00720003)
(0.110725 0 -0.00731263)
(0.110356 0 -0.00741209)
(0.109844 0 -0.00749633)
(0.109179 0 -0.00756325)
(0.108352 0 -0.00761085)
(0.107354 0 -0.00763719)
(0.106174 0 -0.00764052)
(0.109411 0 -0.00671223)
(0.109298 0 -0.0068214)
(0.109064 0 -0.00692054)
(0.108702 0 -0.00700777)
(0.108201 0 -0.00708125)
(0.107553 0 -0.00713915)
(0.106748 0 -0.00717964)
(0.105777 0 -0.00720097)
(0.104629 0 -0.00720149)
(0.107783 0 -0.00631841)
(0.107665 0 -0.00641446)
(0.10743 0 -0.00650134)
(0.107071 0 -0.00657739)
(0.106579 0 -0.006641)
(0.105944 0 -0.00669055)
(0.105157 0 -0.00672441)
(0.104207 0 -0.00674098)
(0.103084 0 -0.00673876)
(0.106199 0 -0.00589071)
(0.106074 0 -0.00597472)
(0.105837 0 -0.00605036)
(0.105479 0 -0.00611617)
(0.104993 0 -0.00617074)
(0.104367 0 -0.00621262)
(0.103594 0 -0.00624037)
(0.102661 0 -0.00625256)
(0.10156 0 -0.0062478)
(0.104675 0 -0.00542431)
(0.104543 0 -0.00549721)
(0.104303 0 -0.00556249)
(0.103945 0 -0.00561889)
(0.103461 0 -0.00566516)
(0.102843 0 -0.00570003)
(0.102079 0 -0.00572224)
(0.101161 0 -0.00573051)
(0.100076 0 -0.00572359)
(0.10323 0 -0.00491383)
(0.103092 0 -0.00497635)
(0.102847 0 -0.005032)
(0.102488 0 -0.0050797)
(0.102006 0 -0.00511836)
(0.101392 0 -0.00514687)
(0.100637 0 -0.00516412)
(0.0997288 0 -0.00516901)
(0.0986576 0 -0.00516042)
(0.101888 0 -0.00435308)
(0.101743 0 -0.00440578)
(0.101494 0 -0.00445241)
(0.101133 0 -0.00449201)
(0.100652 0 -0.00452366)
(0.100041 0 -0.00454643)
(0.0992904 0 -0.00455934)
(0.0983906 0 -0.00456144)
(0.09733 0 -0.00455179)
(0.100675 0 -0.00373496)
(0.100524 0 -0.00377824)
(0.100271 0 -0.00381627)
(0.0999075 0 -0.00384827)
(0.0994256 0 -0.00387346)
(0.0988161 0 -0.00389105)
(0.0980696 0 -0.00390024)
(0.0971756 0 -0.00390022)
(0.0961231 0 -0.0038902)
(0.0996213 0 -0.00305122)
(0.0994653 0 -0.00308527)
(0.0992084 0 -0.00311499)
(0.0988426 0 -0.00313976)
(0.0983597 0 -0.00315893)
(0.0977509 0 -0.00317188)
(0.0970068 0 -0.00317797)
(0.0961169 0 -0.00317654)
(0.0950703 0 -0.00316697)
(0.0987635 0 -0.0022922)
(0.0986031 0 -0.00231701)
(0.0983429 0 -0.00233853)
(0.0979748 0 -0.00235627)
(0.0974908 0 -0.00236977)
(0.0968821 0 -0.00237857)
(0.0961392 0 -0.00238217)
(0.095252 0 -0.0023801)
(0.0942095 0 -0.0023719)
(0.098142 0 -0.00144649)
(0.0979784 0 -0.0014618)
(0.0977156 0 -0.00147499)
(0.0973457 0 -0.00148577)
(0.0968606 0 -0.00149383)
(0.0962517 0 -0.00149887)
(0.0955095 0 -0.00150061)
(0.0946238 0 -0.00149873)
(0.0935839 0 -0.00149294)
(0.0978037 0 -0.000500633)
(0.0976383 0 -0.000505864)
(0.0973741 0 -0.000510352)
(0.0970031 0 -0.000513992)
(0.0965173 0 -0.000516679)
(0.0959081 0 -0.00051831)
(0.0951661 0 -0.000518781)
(0.0942811 0 -0.000517989)
(0.0932424 0 -0.000515831)
)
;

boundaryField
{
    inlet
    {
        type            cellMotion;
        value           nonuniform 0();
    }
    outlet
    {
        type            cellMotion;
        value           nonuniform 0();
    }
    flap
    {
        type            cellMotion;
        value           nonuniform 0();
    }
    upperWall
    {
        type            slip;
    }
    lowerWall
    {
        type            slip;
    }
    frontAndBack
    {
        type            empty;
    }
    procBoundary1to0
    {
        type            processor;
        value           nonuniform List<vector> 
18
(
(0.107803 0 -0.00521634)
(0.106986 0 -0.00523751)
(0.106986 0 -0.00523751)
(0.104065 0 -0.00494704)
(0.103134 0 -0.00490606)
(0.102116 0 -0.00482766)
(0.10103 0 -0.00471132)
(0.0998936 0 -0.00455619)
(0.098726 0 -0.00436101)
(0.0975473 0 -0.00412414)
(0.096379 0 -0.00384347)
(0.0952444 0 -0.00351645)
(0.0941689 0 -0.00313999)
(0.0931808 0 -0.00271044)
(0.0923114 0 -0.00222355)
(0.0915957 0 -0.00167437)
(0.0910726 0 -0.00105724)
(0.0907861 0 -0.000365745)
)
;
    }
    procBoundary1to2
    {
        type            processor;
        value           nonuniform List<vector> 
17
(
(0.111656 0 -0.00957705)
(0.110434 0 -0.00920803)
(0.109121 0 -0.00883003)
(0.107733 0 -0.0084409)
(0.106287 0 -0.00803806)
(0.1048 0 -0.00761854)
(0.103289 0 -0.00717898)
(0.101773 0 -0.00671558)
(0.100273 0 -0.00622408)
(0.098809 0 -0.0056996)
(0.0974064 0 -0.00513663)
(0.0960917 0 -0.00452883)
(0.0948948 0 -0.00386885)
(0.0938496 0 -0.00314816)
(0.0929943 0 -0.00235675)
(0.092372 0 -0.00148275)
(0.0920323 0 -0.000512148)
)
;
    }
    procBoundary1to3
    {
        type            processor;
        value           nonuniform List<vector> 9((0.105606 0 -0.00314723) (0.107129 0 -0.0035502) (0.108235 0 -0.00391201) (0.108966 0 -0.00422974) (0.109369 0 -0.00450262) (0.109486 0 -0.00473101) (0.109354 0 -0.00491492) (0.10901 0 -0.00505602) (0.108485 0 -0.00515621));
    }
    procBoundary1to4
    {
        type            processor;
        value           nonuniform List<vector> 
30
(
(0.10739 0 -0.00297938)
(0.112945 0 -0.00382313)
(0.112945 0 -0.00382313)
(0.116638 0 -0.00425257)
(0.120657 0 -0.00521989)
(0.120657 0 -0.00521989)
(0.123659 0 -0.00578405)
(0.125593 0 -0.00671941)
(0.125593 0 -0.00671941)
(0.127537 0 -0.00735056)
(0.127632 0 -0.00809693)
(0.127632 0 -0.00809693)
(0.128546 0 -0.00869508)
(0.128943 0 -0.00913889)
(0.127495 0 -0.00925814)
(0.127495 0 -0.00925814)
(0.127579 0 -0.00949774)
(0.127595 0 -0.00985158)
(0.12577 0 -0.0099711)
(0.12577 0 -0.0099711)
(0.125285 0 -0.0103088)
(0.124542 0 -0.0105926)
(0.122255 0 -0.0104299)
(0.122255 0 -0.0104299)
(0.121147 0 -0.010583)
(0.118653 0 -0.0102999)
(0.118653 0 -0.0102999)
(0.117226 0 -0.0103473)
(0.114513 0 -0.00997891)
(0.114513 0 -0.00997891)
)
;
    }
}


// ************************************************************************* //
