/*--------------------------------*- C++ -*----------------------------------*\
| =========                 |                                                 |
| \\      /  F ield         | OpenFOAM: The Open Source CFD Toolbox           |
|  \\    /   O peration     | Version:  dev                                   |
|   \\  /    A nd           | Web:      www.OpenFOAM.org                      |
|    \\/     M anipulation  |                                                 |
\*---------------------------------------------------------------------------*/
FoamFile
{
    version     2.0;
    format      ascii;
    class       volVectorField;
    location    "0.57";
    object      Force;
}
// * * * * * * * * * * * * * * * * * * * * * * * * * * * * * * * * * * * * * //

dimensions      [1 1 -2 0 0 0 0];

internalField   uniform (0 0 0);

boundaryField
{
    inlet
    {
        type            calculated;
        value           nonuniform 0();
    }
    outlet
    {
        type            calculated;
        value           nonuniform 0();
    }
    flap
    {
        type            calculated;
        value           nonuniform List<vector> 
33
(
(3.06496 1.78969e-17 -0.109785)
(3.04363 3.3193e-17 -0.229605)
(3.01993 2.1356e-17 -0.336736)
(2.99011 4.01606e-18 -0.41201)
(2.951 -1.18939e-22 -0.460014)
(2.9016 1.26958e-17 -0.484688)
(2.84233 -1.64856e-17 -0.490894)
(2.77373 1.63599e-17 -0.483237)
(2.69303 -1.62638e-17 -0.465243)
(2.5962 3.57462e-18 -0.438966)
(2.47687 2.30563e-23 -0.406112)
(2.3221 1.60786e-17 -0.368501)
(2.10785 3.19524e-17 -0.325245)
(1.7852 -1.67206e-21 -0.269098)
(1.23042 -1.68275e-18 -0.182565)
(0.142244 8.46777e-18 0.903657)
(0.104457 8.54391e-18 0.683473)
(0.0656474 1.83061e-22 0.427661)
(0.0631691 -5.75958e-24 -0.00218686)
(0.0611148 4.30033e-20 -0.00441994)
(0.0629954 -1.23661e-22 -0.00647944)
(0.0747386 1.55814e-17 -0.00935246)
(0.0994091 -2.53307e-24 -0.0141407)
(0.137372 -1.60169e-17 -0.0211967)
(0.186887 1.64317e-17 -0.0301655)
(0.244399 -4.30479e-42 -0.0401847)
(0.305139 4.18517e-19 -0.0501167)
(0.363599 -9.91823e-39 -0.0587466)
(0.414 -3.44383e-41 -0.0651387)
(0.45127 -1.86417e-24 -0.069)
(0.472122 -1.59564e-17 -0.0705243)
(0.475819 6.4985e-19 -0.069943)
(0.464252 -1.83994e-17 -0.0683783)
)
;
    }
    upperWall
    {
        type            calculated;
        value           nonuniform 0();
    }
    lowerWall
    {
        type            calculated;
        value           uniform (0 0 0);
    }
    frontAndBack
    {
        type            empty;
    }
    procBoundary4to1
    {
        type            processor;
        value           uniform (0 0 0);
    }
    procBoundary4to2
    {
        type            processor;
        value           uniform (0 0 0);
    }
    procBoundary4to3
    {
        type            processor;
        value           uniform (0 0 0);
    }
    procBoundary4to5
    {
        type            processor;
        value           uniform (0 0 0);
    }
}


// ************************************************************************* //
