/*--------------------------------*- C++ -*----------------------------------*\
| =========                 |                                                 |
| \\      /  F ield         | OpenFOAM: The Open Source CFD Toolbox           |
|  \\    /   O peration     | Version:  dev                                   |
|   \\  /    A nd           | Web:      www.OpenFOAM.org                      |
|    \\/     M anipulation  |                                                 |
\*---------------------------------------------------------------------------*/
FoamFile
{
    version     2.0;
    format      ascii;
    class       surfaceScalarField;
    location    "0.23";
    object      meshPhi;
}
// * * * * * * * * * * * * * * * * * * * * * * * * * * * * * * * * * * * * * //

dimensions      [0 3 -1 0 0 0 0];

internalField   nonuniform List<scalar> 
882
(
-1.14634e-06
-5.9134e-06
-6.26623e-07
-6.59212e-06
-3.78198e-07
-1.11374e-07
-5.77247e-06
1.00487e-09
-6.71793e-06
1.69273e-07
-7.42745e-06
3.65507e-07
-7.92501e-06
5.47648e-07
7.01606e-07
-5.2585e-06
7.6031e-07
-6.43682e-06
8.35402e-07
-7.41824e-06
9.5194e-07
-8.22868e-06
1.06694e-06
-8.89508e-06
1.16786e-06
-9.46604e-06
1.25023e-06
1.31022e-06
-4.27447e-06
1.68613e-06
-5.68578e-06
1.65404e-06
-6.90536e-06
1.67585e-06
-7.95721e-06
1.7077e-06
-8.89173e-06
1.7357e-06
-9.75279e-06
1.75277e-06
-1.05687e-05
1.75827e-06
-1.13784e-05
1.75472e-06
1.74723e-06
-1.21686e-05
-2.71134e-06
2.82609e-06
-4.33294e-06
2.67189e-06
-5.76661e-06
2.58097e-06
-7.03452e-06
2.50883e-06
-8.17052e-06
2.44065e-06
-9.20995e-06
2.36755e-06
-1.02038e-05
2.28469e-06
-1.1185e-05
2.18856e-06
2.08044e-06
-1.20614e-05
-4.68248e-07
4.24161e-06
-2.26655e-06
3.95187e-06
-3.8752e-06
3.73088e-06
-5.31194e-06
3.53503e-06
-6.6018e-06
3.34917e-06
-7.77289e-06
3.1626e-06
-8.8549e-06
2.9675e-06
-9.86924e-06
2.75704e-06
2.53798e-06
-1.07042e-05
2.54156e-06
6.00381e-06
6.09558e-07
5.57068e-06
-1.1253e-06
5.20701e-06
-2.67705e-06
4.87436e-06
-4.06408e-06
4.55843e-06
-5.30634e-06
4.24766e-06
-6.42266e-06
3.93264e-06
-7.42681e-06
3.60536e-06
3.27866e-06
-8.21638e-06
6.38088e-06
8.19424e-06
4.36805e-06
7.60963e-06
2.56315e-06
7.09671e-06
9.54907e-07
6.62474e-06
-4.70069e-07
6.18018e-06
-1.72562e-06
5.75106e-06
-2.82426e-06
5.32746e-06
-3.77534e-06
4.90132e-06
4.48974e-06
-4.49017e-06
1.10856e-05
1.08762e-05
9.05351e-06
1.01292e-05
7.24028e-06
9.46949e-06
5.63652e-06
8.86913e-06
4.23263e-06
8.31263e-06
3.01905e-06
7.78729e-06
1.98706e-06
7.28301e-06
1.12952e-06
6.79206e-06
6.33196e-06
5.17629e-07
1.66597e-05
1.4018e-05
1.46799e-05
1.31307e-05
1.29238e-05
1.23486e-05
1.13856e-05
1.16469e-05
1.00594e-05
1.1009e-05
8.93893e-06
1.04217e-05
8.01778e-06
9.8747e-06
7.28975e-06
9.36054e-06
8.89246e-06
6.80508e-06
2.51371e-05
1.86326e-05
2.30878e-05
1.75393e-05
2.12349e-05
1.65594e-05
1.95999e-05
1.5697e-05
1.81845e-05
1.49334e-05
1.69873e-05
1.4253e-05
1.60047e-05
1.36431e-05
1.52318e-05
1.30933e-05
1.46624e-05
1.25958e-05
1.21552e-05
1.43234e-05
3.22178e-05
2.24735e-05
3.03558e-05
2.13384e-05
2.86858e-05
2.03103e-05
2.7225e-05
1.94128e-05
2.59809e-05
1.86298e-05
2.49553e-05
1.79468e-05
2.41468e-05
1.73516e-05
2.35508e-05
1.68334e-05
2.31606e-05
1.63835e-05
1.59944e-05
2.29785e-05
4.00543e-05
2.63744e-05
3.84188e-05
2.52454e-05
3.69699e-05
2.42158e-05
3.57233e-05
2.33266e-05
3.46876e-05
2.25635e-05
3.3866e-05
2.19127e-05
3.32575e-05
2.13618e-05
3.28572e-05
2.08995e-05
3.26574e-05
2.05153e-05
2.01883e-05
3.26355e-05
4.8561e-05
3.01218e-05
4.71844e-05
2.90434e-05
4.5988e-05
2.80543e-05
4.49854e-05
2.72109e-05
4.41847e-05
2.64995e-05
4.35887e-05
2.59067e-05
4.31956e-05
2.54195e-05
4.29999e-05
2.50253e-05
4.29924e-05
2.47121e-05
2.44458e-05
4.31267e-05
5.76207e-05
3.34717e-05
5.65309e-05
3.24807e-05
5.56112e-05
3.15662e-05
5.48733e-05
3.0797e-05
5.43239e-05
3.01596e-05
5.39647e-05
2.96403e-05
5.37929e-05
2.92254e-05
5.38015e-05
2.89012e-05
5.39798e-05
2.8654e-05
2.84381e-05
5.42599e-05
6.70976e-05
3.61651e-05
6.63147e-05
3.52882e-05
6.56873e-05
3.44726e-05
6.52257e-05
3.37962e-05
6.49347e-05
3.32451e-05
6.48147e-05
3.28054e-05
6.48615e-05
3.24628e-05
6.50666e-05
3.22025e-05
6.54178e-05
3.20097e-05
3.18299e-05
6.58287e-05
7.68401e-05
3.79453e-05
7.63751e-05
3.71981e-05
7.60472e-05
3.64958e-05
7.58648e-05
3.5921e-05
7.58312e-05
3.546e-05
7.59452e-05
3.50986e-05
7.62011e-05
3.48221e-05
7.65893e-05
3.46152e-05
7.70964e-05
3.44627e-05
3.43046e-05
7.76206e-05
8.66835e-05
3.85733e-05
8.65385e-05
3.79611e-05
8.65088e-05
3.7377e-05
8.66009e-05
3.69049e-05
8.68168e-05
3.65311e-05
8.71536e-05
3.62417e-05
8.76047e-05
3.6022e-05
8.81592e-05
3.58571e-05
8.8803e-05
3.57316e-05
3.55839e-05
8.94223e-05
9.64523e-05
3.78415e-05
9.6621e-05
3.73608e-05
9.68805e-05
3.68924e-05
9.72358e-05
3.65178e-05
9.76876e-05
3.62242e-05
9.82321e-05
3.5998e-05
9.88613e-05
3.58254e-05
9.95638e-05
3.56921e-05
0.000100325
3.55837e-05
3.544e-05
0.000101022
0.000105961
3.55853e-05
0.000106428
3.52256e-05
0.000106961
3.48649e-05
0.000107563
3.4579e-05
0.000108233
3.4356e-05
0.000108966
3.41838e-05
0.000109755
3.40496e-05
0.000110588
3.39406e-05
0.000111449
3.38438e-05
3.37034e-05
0.000112209
0.00011501
3.16923e-05
0.000115754
3.14384e-05
0.000116538
3.11738e-05
0.000117364
3.09655e-05
0.000118231
3.08033e-05
0.000119133
3.06765e-05
0.000120063
3.05743e-05
0.000121007
3.04855e-05
0.000121952
3.03993e-05
3.0267e-05
0.000122763
0.000123386
2.61095e-05
0.000124375
2.59437e-05
0.000125381
2.57621e-05
0.000126404
2.56199e-05
0.000127443
2.55089e-05
0.000128493
2.54206e-05
0.000129543
2.53462e-05
0.000130583
2.52769e-05
0.000131598
2.52041e-05
2.50887e-05
0.000132452
0.00013085
1.88509e-05
0.000132045
1.87553e-05
0.000133236
1.86436e-05
0.000134423
1.85568e-05
0.000135606
1.84887e-05
0.000136777
1.84333e-05
0.000137929
1.83845e-05
0.000139048
1.83361e-05
0.000140122
1.82822e-05
1.81946e-05
0.00014101
0.000137135
1.00029e-05
0.000138482
9.96145e-06
0.000139811
9.90877e-06
0.000141123
9.86808e-06
0.000142415
9.83612e-06
0.00014368
9.80967e-06
0.00014491
9.78549e-06
0.000146091
9.76037e-06
0.000147212
9.73118e-06
9.68304e-06
0.000148129
0.000142048
0.000143484
0.000144899
0.00014629
0.000147654
0.000148983
0.000150267
0.000151494
0.00015265
0.00015359
8.55402e-07
-1.25919e-05
9.81659e-07
-1.27411e-05
9.52095e-07
8.98143e-07
-1.26218e-05
-1.12068e-05
1.16853e-06
-1.14182e-05
1.12048e-06
1.07584e-06
-1.13967e-05
-8.6752e-06
1.50019e-06
-8.87715e-06
1.43851e-06
1.40455e-06
-8.88731e-06
-4.89516e-06
2.07664e-06
-5.08869e-06
2.00916e-06
1.98439e-06
-5.14219e-06
1.805e-07
2.98226e-06
-9.88308e-10
2.91875e-06
2.89917e-06
-1.03704e-07
6.54753e-06
4.26102e-06
6.38092e-06
4.2111e-06
4.19135e-06
6.22281e-06
1.41535e-05
5.90199e-06
1.40034e-05
5.87338e-06
5.84827e-06
1.37851e-05
2.29e-05
7.83759e-06
2.27668e-05
7.83502e-06
7.80069e-06
2.24858e-05
3.26479e-05
9.95198e-06
3.25311e-05
9.97691e-06
9.93145e-06
3.2187e-05
4.32251e-05
1.20957e-05
4.31233e-05
1.21466e-05
1.20901e-05
4.27186e-05
5.44365e-05
1.41021e-05
5.43477e-05
1.41753e-05
1.41094e-05
5.3887e-05
6.60731e-05
1.58029e-05
6.59951e-05
1.58932e-05
1.58207e-05
6.54848e-05
7.79215e-05
1.70411e-05
7.78519e-05
1.71423e-05
1.70668e-05
7.7299e-05
8.97685e-05
1.76794e-05
8.9705e-05
1.77854e-05
1.77103e-05
8.91168e-05
0.000101404
1.76067e-05
0.000101344
1.77115e-05
1.76401e-05
0.000100727
0.000112617
1.67407e-05
0.00011256
1.68388e-05
1.67742e-05
0.000111919
0.000123192
1.50301e-05
0.000123136
1.51166e-05
1.50613e-05
0.000122475
0.000132896
1.24556e-05
0.00013284
1.2526e-05
1.24823e-05
0.000132162
0.000141469
9.03106e-06
0.000141412
9.08142e-06
9.05109e-06
0.000140719
0.0001486
4.80539e-06
0.000148546
4.83194e-06
4.81646e-06
0.000147841
0.000154074
0.000154024
0.000153309
1.69056e-06
-1.11796e-05
2.11242e-06
-1.08281e-05
1.99927e-06
-1.04186e-05
1.82452e-06
1.59397e-06
-8.73553e-06
2.84267e-06
-8.45777e-06
2.8431e-06
-8.07331e-06
2.79664e-06
-7.57261e-06
2.70227e-06
-6.90148e-06
2.5648e-06
2.40308e-06
-5.05319e-06
4.07025e-06
-4.81974e-06
4.17615e-06
-4.4462e-06
4.25181e-06
-3.93133e-06
4.29659e-06
-3.24988e-06
4.32049e-06
-2.36773e-06
4.33287e-06
-1.26468e-06
4.34989e-06
4.40831e-06
-1.01938e-07
5.95123e-06
5.60331e-08
6.13695e-06
3.8096e-07
6.31224e-06
8.81496e-07
6.47686e-06
1.5704e-06
6.64126e-06
2.45368e-06
6.81759e-06
3.54575e-06
7.02359e-06
4.85613e-06
7.2795e-06
7.6219e-06
6.1185e-06
8.56574e-06
6.17285e-06
8.79678e-06
6.41499e-06
9.03743e-06
6.85129e-06
9.29033e-06
7.48923e-06
9.56527e-06
8.33428e-06
9.87437e-06
9.39119e-06
1.02334e-05
1.06568e-05
1.06615e-05
1.11632e-05
1.35601e-05
1.18905e-05
1.34865e-05
1.21333e-05
1.36136e-05
1.24028e-05
1.39444e-05
1.27075e-05
1.44847e-05
1.30559e-05
1.52381e-05
1.34595e-05
1.62054e-05
1.39327e-05
1.73827e-05
1.44921e-05
1.51124e-05
2.21304e-05
1.57938e-05
2.19102e-05
1.60232e-05
2.18958e-05
1.62906e-05
2.20871e-05
1.66132e-05
2.24895e-05
1.69981e-05
2.3106e-05
1.74566e-05
2.39359e-05
1.80019e-05
2.4975e-05
1.86492e-05
1.93438e-05
3.16973e-05
2.00493e-05
3.13188e-05
2.02519e-05
3.11436e-05
2.04966e-05
3.11693e-05
2.08111e-05
3.14018e-05
2.12012e-05
3.18439e-05
2.16786e-05
3.24951e-05
2.22562e-05
3.33512e-05
2.29484e-05
2.36731e-05
4.20964e-05
2.4363e-05
4.15551e-05
2.45367e-05
4.12079e-05
2.47496e-05
4.10502e-05
2.50397e-05
4.1089e-05
2.54124e-05
4.13278e-05
2.588e-05
4.17669e-05
2.64556e-05
4.24026e-05
2.71537e-05
2.78679e-05
5.31393e-05
2.84046e-05
5.24376e-05
2.85556e-05
5.19147e-05
2.8737e-05
5.15641e-05
2.8996e-05
5.13941e-05
2.93376e-05
5.14094e-05
2.97753e-05
5.16113e-05
3.03226e-05
5.19973e-05
3.09942e-05
3.16643e-05
6.46226e-05
3.18375e-05
6.37688e-05
3.19765e-05
6.30729e-05
3.21329e-05
6.25273e-05
3.23609e-05
6.21415e-05
3.26657e-05
6.19215e-05
3.30614e-05
6.18699e-05
3.35622e-05
6.19854e-05
3.4183e-05
3.47843e-05
7.6336e-05
3.43449e-05
7.5342e-05
3.44824e-05
7.44811e-05
3.46226e-05
7.37445e-05
3.4824e-05
7.31429e-05
3.50915e-05
7.26837e-05
3.54397e-05
7.23706e-05
3.58832e-05
7.22036e-05
3.64371e-05
3.69541e-05
8.80671e-05
3.5648e-05
8.69472e-05
3.57914e-05
8.59327e-05
3.59234e-05
8.50138e-05
3.61033e-05
8.42024e-05
3.63359e-05
8.35067e-05
3.66357e-05
8.29317e-05
3.70172e-05
8.24788e-05
3.74951e-05
3.79213e-05
9.96042e-05
3.55192e-05
9.83729e-05
3.56707e-05
9.72181e-05
3.5799e-05
9.6129e-05
3.59613e-05
9.5118e-05
3.6162e-05
9.41945e-05
3.64149e-05
9.33643e-05
3.67336e-05
9.26299e-05
3.71325e-05
3.74686e-05
0.000110734
3.3789e-05
0.000109406
3.39452e-05
0.000108124
3.40699e-05
0.000106879
3.42157e-05
0.000105682
3.43864e-05
0.000104544
3.45945e-05
0.000103472
3.48524e-05
0.000102468
3.51731e-05
3.54254e-05
0.000121238
3.03506e-05
0.000119824
3.05027e-05
0.00011843
3.06195e-05
0.000117044
3.07468e-05
0.000115678
3.08876e-05
0.000114343
3.10526e-05
0.000113046
3.12526e-05
0.000111791
3.14987e-05
3.16773e-05
0.00013088
2.51625e-05
0.000129391
2.52976e-05
0.000127898
2.53986e-05
0.000126388
2.55026e-05
0.000124872
2.56119e-05
0.000123361
2.57349e-05
0.000121864
2.58802e-05
0.000120385
2.60565e-05
2.61734e-05
0.000139397
1.82511e-05
0.000137844
1.83544e-05
0.000136265
1.84299e-05
0.000134648
1.85044e-05
0.000133004
1.85794e-05
0.000131345
1.86608e-05
0.000129678
1.87545e-05
0.000128008
1.88665e-05
1.8934e-05
0.000146484
9.71449e-06
0.000144875
9.77136e-06
0.000143226
9.81213e-06
0.000141522
9.85118e-06
0.000139776
9.88936e-06
0.000137999
9.92961e-06
0.0001362
9.9748e-06
0.000134385
1.00277e-05
1.00572e-05
0.00015192
0.000150263
0.000148557
0.000146788
0.000144969
0.00014311
0.000141222
0.000139311
)
;

boundaryField
{
    inlet
    {
        type            calculated;
        value           nonuniform 0();
    }
    outlet
    {
        type            calculated;
        value           nonuniform 0();
    }
    flap
    {
        type            calculated;
        value           nonuniform 0();
    }
    upperWall
    {
        type            calculated;
        value           nonuniform List<scalar> 
22
(
0
0
0
0
-6.81462e-15
0
0
0
0
0
0
0
0
3.02061e-15
0
0
0
0
0
0
0
0
)
;
    }
    lowerWall
    {
        type            calculated;
        value           nonuniform 0();
    }
    frontAndBack
    {
        type            empty;
        value           nonuniform 0();
    }
    procBoundary1to0
    {
        type            processor;
        value           nonuniform List<scalar> 
18
(
-1.33109e-05
-1.88337e-05
-1.50253e-05
-2.72236e-05
-3.41245e-05
-4.17205e-05
-4.99451e-05
-5.86903e-05
-6.78298e-05
-7.72219e-05
-8.67118e-05
-9.61333e-05
-0.00010531
-0.000114051
-0.000122151
-0.000129383
-0.000135491
-0.00014029
)
;
    }
    procBoundary1to2
    {
        type            processor;
        value           nonuniform List<scalar> 
17
(
6.33485e-06
1.20474e-05
1.86397e-05
2.60477e-05
3.41948e-05
4.2979e-05
5.22767e-05
6.19474e-05
7.18368e-05
8.17811e-05
9.1608e-05
0.000101136
0.000110172
0.000118507
0.00012591
0.000132118
0.000136936
)
;
    }
    procBoundary1to3
    {
        type            processor;
        value           nonuniform List<scalar> 9(4.9437e-06 4.90556e-06 4.54712e-06 3.81821e-06 2.621e-06 8.63231e-07 -1.54405e-06 -4.67995e-06 -8.59363e-06);
    }
    procBoundary1to4
    {
        type            processor;
        value           nonuniform List<scalar> 
30
(
1.53275e-06
-5.7024e-06
8.16297e-07
4.74606e-07
-6.96194e-06
-1.28612e-07
-3.19698e-07
-8.21546e-06
-8.18678e-07
-8.92309e-07
-9.95581e-06
-1.34508e-06
-1.36433e-06
-6.72914e-07
-1.26374e-05
-8.37961e-07
-7.68171e-07
-1.37716e-06
-1.22734e-05
-1.47486e-06
-1.19886e-06
-8.78916e-07
-9.91702e-06
-1.32351e-06
-1.03925e-06
-6.02028e-06
-2.25234e-06
-2.15146e-06
5.59631e-08
-4.58253e-06
)
;
    }
}


// ************************************************************************* //
