/*--------------------------------*- C++ -*----------------------------------*\
| =========                 |                                                 |
| \\      /  F ield         | OpenFOAM: The Open Source CFD Toolbox           |
|  \\    /   O peration     | Version:  dev                                   |
|   \\  /    A nd           | Web:      www.OpenFOAM.org                      |
|    \\/     M anipulation  |                                                 |
\*---------------------------------------------------------------------------*/
FoamFile
{
    version     2.0;
    format      ascii;
    class       surfaceVectorField;
    location    "0.23";
    object      Uf;
}
// * * * * * * * * * * * * * * * * * * * * * * * * * * * * * * * * * * * * * //

dimensions      [0 1 -1 0 0 0 0];

internalField   nonuniform List<vector> 
882
(
(10.1562 4.82674e-21 5.2568)
(10.4253 -1.4524e-21 5.40973)
(10.5 3.92884e-21 5.10883)
(10.6252 -3.18185e-22 5.85019)
(10.6908 -7.54303e-21 5.51689)
(10.928 8.26486e-21 5.93771)
(10.7666 -2.26467e-21 5.21982)
(10.8063 -2.37082e-22 4.92769)
(10.9953 1.20044e-21 5.60857)
(11.0224 -3.61872e-21 5.28976)
(11.273 -9.63763e-22 6.00246)
(11.2816 4.75289e-21 5.65527)
(11.6071 -2.97157e-21 6.39555)
(11.59 -3.3913e-21 6.01916)
(11.9536 1.98141e-21 6.37454)
(11.0642 -1.60386e-21 5.00088)
(11.0735 -1.84904e-21 4.72061)
(11.3116 0 5.33986)
(11.3061 -8.89961e-23 5.03828)
(11.6026 2.30699e-21 5.67548)
(11.5775 0 5.35222)
(11.9419 1.66769e-21 6.00161)
(11.8914 3.34308e-22 5.65719)
(12.3334 -3.33069e-21 6.31052)
(12.2514 1.44296e-21 5.94671)
(12.7797 -1.63516e-21 6.59269)
(12.6597 -2.7908e-21 6.21302)
(13.1176 7.59188e-22 6.44699)
(11.3183 -2.98003e-22 4.76063)
(11.3017 6.24918e-23 4.49425)
(11.5757 -8.89813e-23 5.0532)
(11.5434 3.11737e-22 4.7703)
(11.8709 -2.02004e-21 5.33627)
(11.819 2.54791e-21 5.03734)
(12.2067 1.13702e-22 5.60411)
(12.1306 -2.01972e-21 5.29039)
(12.5847 2.00672e-21 5.85002)
(12.4799 3.4238e-21 5.52368)
(13.0056 -3.41665e-22 6.06638)
(12.8674 -5.41271e-22 5.73072)
(13.4678 9.75773e-23 6.24491)
(13.2926 -1.23985e-21 5.90441)
(13.968 4.06356e-22 6.37808)
(13.7483 3.50732e-22 6.03727)
(14.2898 1.00513e-22 6.12407)
(14.5001 -3.80635e-21 6.44865)
(11.5301 6.72633e-22 4.50586)
(11.4919 2.9462e-21 4.25447)
(11.7908 3.00063e-21 4.75616)
(11.7368 -2.21246e-21 4.49236)
(12.0835 2.54751e-21 4.99277)
(12.0106 2.62716e-21 4.71759)
(12.4096 1.35968e-21 5.2106)
(12.3143 0 4.92563)
(12.7692 8.13956e-22 5.40402)
(12.6482 1.36074e-21 5.11156)
(13.1617 -1.46418e-21 5.56702)
(13.0116 4.31485e-22 5.27014)
(13.5846 -9.36715e-22 5.69337)
(13.4032 -1.88281e-21 5.39598)
(14.0343 3.72661e-23 5.77785)
(13.8164 0 5.4837)
(14.2978 2.40152e-23 5.53001)
(14.5054 1.12229e-22 5.81354)
(11.702 -1.45813e-23 4.24229)
(11.6461 5.32724e-21 4.00632)
(11.9607 -2.60694e-21 4.45478)
(11.8896 -2.68905e-21 4.20987)
(12.2461 1.78255e-23 4.65094)
(12.1571 1.82589e-23 4.3984)
(12.5583 1.92746e-24 4.82639)
(12.449 1.60685e-21 4.56798)
(12.8967 9.70049e-22 4.97653)
(12.7646 -1.58544e-21 4.71451)
(13.2596 -5.75805e-24 5.09675)
(13.1026 9.42498e-23 4.8339)
(13.6445 -9.23238e-22 5.18249)
(13.4611 -5.34643e-22 4.92215)
(14.0477 -1.35686e-23 5.23022)
(13.8342 5.20445e-22 4.97544)
(14.2618 2.36425e-24 4.99178)
(14.4645 -2.22544e-21 5.24016)
(11.8371 2.59686e-21 3.97465)
(11.7671 1.5818e-22 3.75402)
(12.09 0 4.15385)
(12.0055 4.06191e-21 3.92711)
(12.3645 1.64591e-21 4.31526)
(12.2637 -4.13197e-21 4.08389)
(12.6603 -1.94942e-23 4.45522)
(12.5412 1.67162e-21 4.22099)
(12.976 -2.48168e-21 4.57011)
(12.8371 8.23553e-22 4.33514)
(13.3097 -4.47128e-22 4.65642)
(13.1495 -5.2736e-21 4.42316)
(13.6587 9.67102e-22 4.71093)
(13.4763 2.30903e-21 4.48218)
(14.0195 5.36837e-22 4.73134)
(13.8125 1.08636e-22 4.50957)
(14.192 4.45055e-22 4.50427)
(14.3882 1.0687e-23 4.72269)
(11.9388 1.65902e-21 3.70675)
(11.8578 -2.57098e-21 3.50102)
(12.183 -1.66747e-22 3.85699)
(12.0886 3.30308e-22 3.64744)
(12.4446 -4.10485e-21 3.98891)
(12.3354 -3.36649e-22 3.77705)
(12.7225 2.5342e-21 4.09951)
(12.5972 -2.92931e-21 3.88705)
(13.0153 -2.04525e-21 4.18597)
(12.8728 5.5106e-21 3.97484)
(13.3208 -2.43349e-21 4.24573)
(13.1602 -4.4849e-21 4.03805)
(13.6365 1.45317e-21 4.27654)
(13.4573 3.20148e-21 4.07464)
(13.9592 -4.10665e-22 4.27701)
(13.7598 -1.7224e-21 4.08292)
(14.0969 4.4592e-22 4.06243)
(14.2854 2.85085e-22 4.25536)
(12.0108 -3.93138e-21 3.44156)
(11.9216 3.5858e-24 3.25003)
(12.2445 1.59359e-22 3.5669)
(12.143 -2.99414e-22 3.37335)
(12.4918 8.66782e-22 3.67405)
(12.3771 2.82457e-22 3.47995)
(12.7514 1.25296e-22 3.7606)
(12.6227 -3.05136e-21 3.56755)
(13.0218 3.00245e-21 3.8244)
(12.8782 3.0754e-21 3.63414)
(13.3007 1.29836e-21 3.86361)
(13.1419 -1.90806e-21 3.67796)
(13.5859 -8.16054e-23 3.87676)
(13.4116 4.56064e-21 3.69764)
(13.8745 -1.28033e-21 3.86307)
(13.6837 -2.7195e-21 3.69214)
(13.9836 5.54931e-24 3.66144)
(14.1636 6.76411e-24 3.83275)
(12.0568 3.72333e-21 3.18131)
(11.9619 -3.4258e-22 3.00313)
(12.2789 -1.75258e-22 3.28545)
(12.1729 -1.24674e-22 3.10662)
(12.5114 -3.73084e-21 3.37199)
(12.3937 -3.79628e-21 3.19391)
(12.7529 -2.38427e-23 3.43904)
(12.623 -1.18546e-24 3.26318)
(13.0018 -1.95441e-21 3.48498)
(12.8593 2.36877e-21 3.31288)
(13.2562 1.4433e-21 3.50855)
(13.1008 -4.31137e-21 3.34176)
(13.5137 1.80311e-21 3.50882)
(13.3455 1.8772e-21 3.34894)
(13.7721 -1.40212e-21 3.48548)
(13.5905 -9.53234e-22 3.33385)
(13.8577 5.41569e-22 3.29677)
(14.0288 -2.94735e-22 3.44982)
(11.8798 3.6847e-21 2.82647)
(11.7905 4.14099e-21 2.66156)
(12.0807 -4.2835e-21 2.92762)
(11.9821 -3.9551e-21 2.76181)
(12.2906 -3.83437e-21 3.01385)
(12.1822 -2.59933e-22 2.8484)
(12.5083 2.42126e-23 3.0834)
(12.3896 -2.99382e-21 2.91963)
(12.7324 2.44968e-21 3.13478)
(12.6032 3.08592e-21 2.97403)
(12.9612 -5.3382e-23 3.16684)
(12.8213 2.40637e-21 3.01044)
(13.193 -3.85632e-21 3.17871)
(13.0423 -2.43077e-21 3.028)
(13.4257 -9.51269e-22 3.16989)
(13.2645 -1.5136e-21 3.02618)
(13.6574 7.62052e-22 3.14038)
(13.4854 5.03099e-22 3.00476)
(13.7242 5.56427e-22 2.96419)
(13.8861 1.57697e-21 3.10188)
(11.8953 -3.68259e-21 2.5962)
(11.8032 3.65017e-21 2.44185)
(12.0861 1.67377e-22 2.68154)
(11.9857 -3.97761e-21 2.52708)
(12.2838 6.00681e-22 2.75274)
(12.1747 2.54614e-22 2.59937)
(12.4871 1.46913e-22 2.80838)
(12.369 -5.97751e-21 2.65731)
(12.6946 3.04139e-21 2.84733)
(12.5676 8.72173e-21 2.69975)
(12.9049 -3.69085e-23 2.86874)
(12.7688 -2.66977e-21 2.72583)
(13.1162 -3.13627e-23 2.87208)
(12.9712 -1.71482e-23 2.73499)
(13.3269 -3.81045e-24 2.85713)
(13.1733 1.40215e-23 2.72694)
(13.5353 1.02135e-23 2.82409)
(13.3729 1.30422e-21 2.7017)
(13.5872 -1.31768e-21 2.65983)
(13.7396 0 2.78465)
(11.8958 3.34652e-21 2.37183)
(11.8025 3.74615e-21 2.22723)
(12.0765 -3.88838e-21 2.44367)
(11.9757 -2.99949e-22 2.29952)
(12.2622 -6.48343e-21 2.50234)
(12.1538 -3.58672e-21 2.35975)
(12.4518 2.81491e-21 2.54668)
(12.3357 -2.98145e-21 2.40678)
(12.6439 2.86592e-21 2.57584)
(12.5202 8.30075e-21 2.43969)
(12.8372 -2.64924e-21 2.58923)
(12.706 -5.36005e-21 2.45785)
(13.0302 2.93553e-23 2.58655)
(12.8916 -8.5944e-24 2.46092)
(13.2215 1.35384e-21 2.56777)
(13.0758 1.49871e-23 2.44881)
(13.4095 1.54341e-22 2.53323)
(13.2569 2.71734e-21 2.42167)
(13.4498 -2.77042e-21 2.38011)
(13.5928 -8.76752e-22 2.49424)
(11.8844 1.05327e-23 2.15385)
(11.7911 -3.58796e-21 2.01818)
(12.0551 6.77784e-24 2.21422)
(11.9552 6.94261e-24 2.07936)
(12.2294 0 2.26248)
(12.1229 0 2.12946)
(12.4061 2.64268e-21 2.29771)
(12.2931 -2.75273e-21 2.16755)
(12.5841 -1.35919e-22 2.31926)
(12.4647 5.43718e-21 2.19292)
(12.7621 -2.65502e-21 2.32673)
(12.6364 -2.70107e-21 2.20512)
(12.9388 -2.33166e-23 2.31999)
(12.8071 -3.93624e-25 2.20395)
(13.113 1.41173e-21 2.29915)
(12.9756 -2.23501e-23 2.18944)
(13.2833 1.22024e-22 2.26461)
(13.1404 1.43845e-21 2.16184)
(13.3151 -1.45426e-21 2.12177)
(13.4486 -9.5507e-22 2.22709)
(11.8637 -3.59116e-21 1.94247)
(11.7716 -3.67847e-21 1.81488)
(12.0248 0 1.9931)
(11.9269 6.16391e-24 1.86652)
(12.1884 -2.81963e-21 2.03274)
(12.0848 0 1.90813)
(12.3534 1.14083e-22 2.06065)
(12.2442 -2.80833e-21 1.93893)
(12.5186 2.80415e-21 2.07635)
(12.404 5.34311e-21 1.95838)
(12.6829 1.80718e-23 2.07958)
(12.5632 -2.51866e-21 1.96617)
(12.8452 6.04911e-25 2.07032)
(12.7207 3.91977e-26 1.96219)
(13.0044 5.14579e-24 2.04875)
(12.8755 1.80338e-21 1.94656)
(13.1595 1.35195e-23 2.01532)
(13.0262 -3.40095e-21 1.91959)
(13.1853 2.89677e-21 1.88187)
(13.3094 1.01525e-23 1.98)
(11.8364 6.31375e-24 1.73759)
(11.7462 3.11043e-21 1.61725)
(11.9886 6.16313e-24 1.77995)
(11.8934 -3.17107e-21 1.6607)
(12.1422 1.12226e-23 1.81246)
(12.0423 0 1.69516)
(12.2964 2.55198e-21 1.83452)
(12.1918 -2.62237e-21 1.72003)
(12.4502 -1.13226e-22 1.84578)
(12.3411 5.21445e-21 1.73487)
(12.6024 -2.53686e-21 1.84609)
(12.4892 -4.83826e-21 1.73947)
(12.7521 1.84659e-21 1.83548)
(12.6351 2.2832e-21 1.73381)
(12.8984 -1.69266e-21 1.8142)
(12.7779 1.85476e-21 1.71803)
(13.0403 -5.93684e-22 1.78268)
(12.9165 -3.50299e-21 1.69247)
(13.0622 2.97163e-21 1.65769)
(13.1771 -1.21618e-21 1.75006)
(11.8048 -1.46477e-22 1.53893)
(11.7173 6.38033e-21 1.42501)
(11.9486 -3.177e-21 1.57425)
(11.8569 -3.25422e-21 1.46137)
(12.0933 -2.69761e-21 1.60084)
(11.9976 0 1.48982)
(12.2379 1.086e-22 1.61824)
(12.1383 -1.32697e-22 1.50984)
(12.3814 3.70009e-22 1.62619)
(12.2783 -2.26684e-21 1.52112)
(12.523 1.0289e-22 1.62458)
(12.4166 -2.08511e-21 1.52349)
(12.6618 2.29153e-21 1.61353)
(12.5524 4.62807e-21 1.51699)
(12.797 -7.09277e-24 1.59327)
(12.6849 1.8761e-21 1.50179)
(12.9277 -7.37567e-25 1.56424)
(12.8132 -1.91166e-21 1.47822)
(12.9476 -1.46976e-21 1.44678)
(13.0533 -2.27002e-24 1.53467)
(11.7709 3.19428e-21 1.34592)
(11.6867 3.27194e-21 1.23766)
(11.9073 0 1.37521)
(11.8195 -2.77872e-21 1.26787)
(12.0439 2.62691e-21 1.39688)
(11.9528 5.48997e-21 1.29121)
(12.18 -2.56547e-21 1.41057)
(12.0858 -8.12887e-23 1.30727)
(12.3146 -4.77813e-21 1.41607)
(12.2176 -7.49685e-21 1.31579)
(12.447 2.55742e-21 1.41335)
(12.3474 2.63502e-21 1.31669)
(12.5764 4.20231e-21 1.40253)
(12.4746 2.3358e-21 1.31)
(12.702 -7.97443e-23 1.38384)
(12.5983 1.92561e-21 1.29591)
(12.8232 -3.41616e-21 1.3577)
(12.7178 -1.95086e-21 1.27472)
(12.8427 -3.03932e-21 1.2469)
(12.9395 2.5587e-21 1.33137)
(11.7367 -2.84626e-21 1.15804)
(11.6562 5.65432e-24 1.05458)
(11.8664 2.84723e-21 1.18212)
(11.783 -2.85682e-21 1.07938)
(11.9959 2.71313e-21 1.19967)
(11.9098 5.6175e-21 1.09834)
(12.1246 -5.1358e-21 1.21039)
(12.036 -2.7684e-21 1.11112)
(12.2515 1.02789e-22 1.21413)
(12.1608 -4.75392e-21 1.11754)
(12.376 2.41144e-21 1.2109)
(12.2834 2.65129e-21 1.11752)
(12.4973 4.01132e-24 1.2008)
(12.4032 2.22383e-21 1.11113)
(12.6149 3.91584e-24 1.18408)
(12.5195 4.07771e-24 1.09855)
(12.7282 -1.56502e-21 1.16109)
(12.6317 0 1.08003)
(12.7487 -3.12873e-21 1.056)
(12.8366 2.64525e-21 1.13815)
(11.7038 -5.53061e-24 0.974199)
(11.6273 -2.7352e-21 0.874992)
(11.8277 -1.62577e-23 0.993725)
(11.7489 2.79527e-21 0.894981)
(11.9511 -1.13071e-25 1.00777)
(11.8703 -2.48127e-25 0.91013)
(12.0734 -2.37751e-21 1.0161)
(11.9907 2.41458e-21 0.920177)
(12.1938 -2.13744e-21 1.01862)
(12.1095 -4.82978e-21 0.92497)
(12.3116 2.46177e-21 1.01531)
(12.2261 1.90049e-22 0.924467)
(12.4262 2.22368e-21 1.00631)
(12.3398 2.2776e-21 0.918733)
(12.5371 7.14686e-26 0.991825)
(12.4499 1.87751e-21 0.907921)
(12.6437 -1.60185e-21 0.972161)
(12.5561 -1.92195e-21 0.892266)
(12.6666 -1.59834e-21 0.872111)
(12.7457 2.72011e-21 0.952678)
(11.6737 1.35775e-22 0.79416)
(11.6016 -5.47874e-21 0.698015)
(11.7927 2.81134e-21 0.809634)
(11.7187 5.58364e-21 0.713652)
(11.911 2.47312e-21 0.820652)
(11.8355 5.22332e-24 0.725427)
(12.0279 -1.00084e-22 0.827034)
(11.9512 4.81218e-21 0.733139)
(12.1429 -2.44279e-21 0.828699)
(12.0651 -4.90736e-21 0.736672)
(12.2552 4.38612e-24 0.825664)
(12.1767 1.94724e-25 0.736001)
(12.3643 1.92303e-21 0.818031)
(12.2854 -2.00304e-21 0.731184)
(12.4697 -9.42716e-23 0.805983)
(12.3906 3.96483e-21 0.722352)
(12.5709 -1.91833e-21 0.789778)
(12.4919 -1.96843e-21 0.7097)
(12.5972 1.60567e-21 0.693514)
(12.6675 -1.35256e-24 0.773806)
(11.6479 1.05743e-22 0.61553)
(11.5802 -1.36705e-21 0.522654)
(11.7628 2.70899e-21 0.627351)
(11.6938 2.77986e-21 0.534269)
(11.8769 2.4014e-21 0.635708)
(11.8069 2.42255e-24 0.542984)
(11.9895 -1.16898e-22 0.640465)
(11.9187 1.25341e-21 0.548649)
(12.1 -2.40477e-21 0.641566)
(12.0288 -1.84541e-22 0.55118)
(12.2079 -2.05597e-21 0.639027)
(12.1365 -1.12502e-21 0.550561)
(12.3126 9.09509e-23 0.632936)
(12.2413 -2.0475e-21 0.546838)
(12.4137 2.04178e-21 0.623437)
(12.3426 2.09136e-21 0.540113)
(12.5106 1.64116e-21 0.610734)
(12.4401 -8.68801e-22 0.53053)
(12.5414 3.32727e-21 0.518299)
(12.6032 -6.37825e-21 0.598252)
(11.6274 1.37399e-21 0.439855)
(11.5641 1.4021e-21 0.347836)
(11.7392 7.52454e-24 0.448279)
(11.675 5.16569e-24 0.355655)
(11.85 -1.17317e-21 0.454225)
(11.7852 1.03627e-25 0.361519)
(11.9592 1.1828e-21 0.457594)
(11.8943 -4.79306e-23 0.365326)
(12.0664 1.12502e-21 0.458348)
(12.0014 1.17916e-21 0.367024)
(12.1709 -1.11643e-21 0.456499)
(12.1062 -2.17207e-21 0.366605)
(12.2722 3.99018e-24 0.452111)
(12.2081 2.01897e-21 0.364102)
(12.37 -8.89895e-22 0.44529)
(12.3066 -9.90338e-22 0.359589)
(12.4637 8.17342e-22 0.436186)
(12.4013 -8.89812e-22 0.353172)
(12.4997 2.52279e-21 0.345006)
(12.5531 -8.0071e-22 0.427252)
(11.613 0 0.261145)
(11.4646 -3.26232e-22 0.172418)
(11.7224 -2.42633e-24 0.2663)
(11.5722 2.99335e-22 0.176546)
(11.8308 1.15256e-21 0.269935)
(11.6793 -3.07808e-22 0.179658)
(11.9377 -5.1458e-23 0.271994)
(11.7852 1.43133e-21 0.181701)
(12.0424 -2.19907e-21 0.272457)
(11.8895 -1.72419e-21 0.18265)
(12.1445 1.04057e-21 0.271338)
(11.9914 -7.79504e-22 0.182502)
(12.2435 9.99315e-22 0.26868)
(12.0905 2.06361e-21 0.181277)
(12.339 -9.90244e-22 0.264553)
(12.1863 -1.01338e-21 0.179015)
(12.4305 8.1506e-22 0.259058)
(12.2784 0 0.17577)
(12.374 8.14982e-22 0.171631)
(12.5178 -1.37854e-21 0.253645)
(11.4229 -1.95814e-23 0.086672)
(11.5282 -1.37129e-23 0.0887495)
(11.6328 -2.2104e-23 0.0902624)
(11.7361 -2.83408e-22 0.091188)
(11.8374 -2.69949e-22 0.0915179)
(11.9362 2.69577e-22 0.0912574)
(12.032 9.35807e-25 0.0904237)
(12.1244 9.13535e-25 0.0890431)
(12.213 0 0.0871567)
(12.2974 4.45202e-25 0.0852564)
(14.5959 -2.83583e-21 6.14033)
(14.7422 -2.73651e-21 5.81107)
(14.5675 -1.56496e-21 5.53069)
(14.984 3.48739e-23 5.7943)
(14.8253 -1.17703e-21 5.51611)
(15.044 2.86758e-21 5.48797)
(15.2297 3.89739e-21 5.75152)
(14.6729 -1.4622e-22 5.22806)
(14.4994 -1.67076e-21 4.98124)
(14.8847 1.66942e-21 5.20165)
(14.7257 1.69876e-21 4.95762)
(14.9172 -2.02366e-21 4.92243)
(15.0992 -9.27214e-23 5.15168)
(14.5716 0 4.70394)
(14.4016 0 4.48597)
(14.7572 -2.03919e-21 4.67119)
(14.6004 -2.29406e-21 4.45645)
(14.7683 2.24438e-22 4.41702)
(14.9444 -7.98808e-22 4.61663)
(14.447 -2.32195e-21 4.23234)
(14.2819 1.50048e-24 4.03907)
(14.6099 -6.57506e-24 4.19585)
(14.4569 -2.34954e-21 4.00607)
(14.6044 2.33766e-21 3.96457)
(14.7735 3.08437e-21 4.13919)
(14.3062 1.51853e-24 3.80727)
(14.1472 -2.14454e-22 3.63506)
(14.4495 -5.63207e-24 3.76903)
(14.3016 2.17688e-22 3.60042)
(14.4314 2.52181e-24 3.55848)
(14.5929 -2.02849e-23 3.71224)
(14.155 -1.93689e-22 3.42323)
(14.0029 6.12435e-22 3.26893)
(14.2814 2.28734e-22 3.38471)
(14.1395 2.22662e-22 3.23401)
(14.2542 5.81054e-24 3.19282)
(14.4075 2.38128e-23 3.32924)
(13.9981 8.4354e-22 3.07519)
(13.8535 8.54044e-22 2.93606)
(14.11 -3.20719e-24 3.03747)
(13.9747 -3.39015e-22 2.90186)
(14.0764 3.34676e-22 2.86226)
(14.2213 4.9691e-22 2.98435)
(13.8395 -3.42726e-22 2.75862)
(13.7026 0 2.63225)
(13.9389 -5.18182e-24 2.72245)
(13.8108 -1.12589e-21 2.59948)
(13.9014 1.12761e-21 2.56208)
(14.0376 4.58637e-22 2.67237)
(13.6822 -7.88557e-22 2.46938)
(13.5535 -7.10279e-24 2.35371)
(13.771 -1.35119e-24 2.4353)
(13.6505 -7.97269e-22 2.32287)
(13.7316 7.99215e-22 2.28804)
(13.859 1.06298e-21 2.38873)
(13.5291 -6.49142e-24 2.20377)
(13.4087 -2.69042e-25 2.09699)
(13.6088 -8.81907e-25 2.17213)
(13.4961 -2.14099e-24 2.06841)
(13.5692 -1.59746e-24 2.03641)
(13.6877 -2.70981e-24 2.12933)
(13.3822 4.19542e-24 1.95847)
(13.2703 -2.27573e-21 1.85899)
(13.4543 -2.85779e-24 1.92949)
(13.3496 1.73649e-21 1.83288)
(13.4158 -1.7361e-21 1.80384)
(13.5255 0 1.8906)
(13.2434 -5.4984e-22 1.73047)
(13.14 -2.34261e-21 1.63692)
(13.309 6.97981e-24 1.70427)
(13.2124 1.78145e-21 1.61339)
(13.2729 -1.78168e-21 1.58736)
(13.3737 -2.35781e-21 1.66934)
(13.1142 -4.5775e-24 1.51711)
(13.0192 2.57703e-21 1.42823)
(13.1743 -3.63031e-24 1.49374)
(13.0858 0 1.40735)
(13.1415 -1.78972e-24 1.38434)
(13.2336 -5.93429e-24 1.46275)
(12.9957 2.61274e-21 1.31589)
(12.9091 5.31734e-21 1.23063)
(13.0512 1.89747e-24 1.29537)
(12.971 1.18744e-24 1.21242)
(13.0226 -2.10051e-21 1.19241)
(13.1059 -6.16078e-22 1.26825)
(12.889 2.70664e-21 1.12476)
(12.8109 5.48565e-21 1.04203)
(12.9407 -2.12676e-21 1.10707)
(12.8687 4.91425e-26 1.02646)
(12.9169 6.51869e-23 1.00941)
(12.9916 -2.11928e-21 1.08375)
(12.795 2.77966e-21 0.941365)
(12.7252 2.81157e-21 0.860499)
(12.8435 2.24423e-21 0.92645)
(12.7798 -1.19135e-24 0.847562)
(12.8253 2.27212e-21 0.833421)
(12.8913 2.22947e-21 0.906851)
(12.7143 -2.66749e-24 0.76457)
(12.653 -5.46409e-21 0.68414)
(12.7603 0 0.752412)
(12.705 2.64478e-21 0.673797)
(12.7483 -2.35432e-21 0.662497)
(12.8056 7.76338e-22 0.736456)
(12.6479 -2.79714e-21 0.591054)
(12.5951 -7.00063e-21 0.511376)
(12.692 2.93724e-22 0.581594)
(12.645 2.70937e-21 0.50361)
(12.6867 -3.60133e-21 0.495146)
(12.7353 -2.35509e-21 0.569203)
(12.5963 -1.42346e-21 0.422102)
(12.5518 -2.83759e-21 0.340164)
(12.6389 -1.20388e-21 0.415332)
(12.6003 2.43749e-26 0.334934)
(12.6408 -1.21915e-21 0.329204)
(12.6809 -7.80692e-22 0.406461)
(12.5599 -1.41386e-21 0.250489)
(12.4246 -1.42986e-21 0.169383)
(12.6014 -9.25685e-25 0.246329)
(12.4717 -6.35619e-25 0.16663)
(12.5109 -3.01142e-25 0.163668)
(12.6423 -7.123e-25 0.24091)
(12.3382 3.31588e-25 0.084116)
(12.3783 0 0.0826072)
(12.4177 1.03472e-25 0.0806684)
(15.4458 6.90968e-24 5.3911)
(15.543 -9.57075e-23 5.0071)
(15.2672 2.57668e-21 4.8181)
(15.9938 -2.91266e-21 4.82094)
(15.6435 -1.34321e-21 4.66675)
(16.4403 -3.48274e-22 4.56537)
(16.0627 -3.14077e-21 4.45509)
(16.4837 2.84237e-21 4.1765)
(15.3296 1.16551e-21 4.47)
(15.073 2.73003e-21 4.30873)
(15.721 -1.53255e-21 4.29323)
(15.3988 -1.4028e-21 4.16143)
(16.1103 -1.33012e-22 4.05906)
(15.7618 3.51283e-21 3.96439)
(16.4881 2.93555e-21 3.76345)
(16.1276 -3.55947e-21 3.71168)
(16.8444 3.38978e-21 3.40561)
(16.4747 7.92643e-21 3.4017)
(16.7943 1.03786e-21 3.03453)
(15.108 -3.72999e-23 3.99363)
(14.8702 -5.64248e-23 3.85584)
(15.4464 3.64741e-21 3.82604)
(15.1524 -2.25796e-21 3.71402)
(15.7824 3.41853e-22 3.61061)
(15.4656 5.98925e-21 3.53065)
(16.1085 1.2756e-21 3.34388)
(15.781 -3.64561e-21 3.30081)
(16.4162 5.69337e-21 3.02512)
(16.0801 5.03927e-21 3.02315)
(16.6967 -4.6784e-21 2.65494)
(16.3554 -3.76989e-21 2.69776)
(16.9405 -1.18701e-20 2.2355)
(16.6006 -1.13793e-21 2.32584)
(16.8077 -1.17511e-20 1.91028)
(14.8841 -2.27778e-21 3.57072)
(14.6641 -1.28917e-24 3.45209)
(15.1771 -2.28258e-22 3.41313)
(14.9093 -2.31259e-21 3.31734)
(15.4669 2.30926e-21 3.21542)
(15.18 1.30913e-22 3.1476)
(15.7473 0 2.97483)
(15.452 2.13388e-21 2.93893)
(16.0115 -4.43462e-21 2.69085)
(15.7093 0 2.6903)
(16.2522 -2.02906e-22 2.36413)
(15.9457 -4.54139e-21 2.40192)
(16.4613 -7.60478e-22 1.99655)
(16.1562 4.4693e-21 2.07489)
(16.631 -2.29426e-22 1.59172)
(16.3341 -5.34259e-21 1.71166)
(16.4721 9.78173e-21 1.31636)
(14.662 1.92398e-23 3.19401)
(14.4586 7.71684e-22 3.09075)
(14.9166 -2.17882e-21 3.04719)
(14.6725 -1.90205e-21 2.96428)
(15.1673 -2.19805e-22 2.86656)
(14.9077 -1.09011e-21 2.80819)
(15.4092 2.18527e-21 2.64999)
(15.1431 2.18551e-21 2.61936)
(15.6365 0 2.3972)
(15.3653 -1.55e-23 2.39707)
(15.8432 1.31962e-23 2.10883)
(15.5691 0 2.1416)
(16.023 1.24127e-23 1.78654)
(15.7504 -3.1521e-21 1.85398)
(16.1694 4.52549e-21 1.43328)
(15.9039 -3.46347e-22 1.53626)
(16.0237 8.00536e-21 1.1918)
(14.4447 -1.39073e-21 2.85697)
(14.2568 7.70643e-22 2.76588)
(14.6671 -9.29382e-22 2.72136)
(14.4446 -2.68669e-21 2.64845)
(14.8852 1.16869e-21 2.55715)
(14.6499 1.89218e-21 2.50585)
(15.0949 -1.55017e-23 2.36274)
(14.855 -1.51061e-21 2.33563)
(15.2915 -1.58732e-23 2.13799)
(15.048 1.48788e-21 2.1373)
(15.4702 -3.1663e-21 1.88356)
(15.2247 0 1.91121)
(15.6257 -3.60171e-21 1.60086)
(15.3819 -3.23844e-21 1.65828)
(15.7529 3.00243e-21 1.29234)
(15.5154 -3.53576e-22 1.38025)
(15.6203 4.75554e-22 1.07985)
(14.2347 -7.38697e-22 2.55384)
(14.0614 9.04755e-25 2.47226)
(14.4302 -1.37938e-22 2.42957)
(14.2271 -1.13303e-21 2.36426)
(14.6211 -7.6997e-22 2.28105)
(14.4077 1.83704e-21 2.23481)
(14.8041 -6.58097e-23 2.10707)
(14.5875 -2.26781e-21 2.082)
(14.9754 1.54036e-21 1.90761)
(14.7564 2.93064e-21 1.90552)
(15.131 4.08379e-24 1.6833)
(14.9109 -1.36786e-21 1.70574)
(15.2667 4.18159e-24 1.43535)
(15.0484 3.39224e-24 1.48348)
(15.3781 -2.97604e-21 1.1658)
(15.1655 0 1.24022)
(15.2583 -3.04724e-21 0.978191)
(14.034 -3.75657e-22 2.27958)
(13.8744 -2.89151e-26 2.20532)
(14.2069 6.20395e-22 2.16656)
(14.0216 -3.86602e-22 2.10686)
(14.3752 4.81019e-22 2.03294)
(14.1815 1.12269e-21 1.9901)
(14.5361 6.5195e-22 1.87779)
(14.3404 -7.3838e-22 1.85355)
(14.6866 5.59591e-23 1.70118)
(14.4894 1.42109e-21 1.69701)
(14.8233 -1.40169e-21 1.50371)
(14.6256 -1.5498e-22 1.52087)
(14.9428 -9.11892e-25 1.28643)
(14.747 -1.22246e-21 1.32587)
(15.0414 4.78755e-25 1.05102)
(14.8509 -1.69455e-21 1.11324)
(14.9338 -2.14687e-22 0.884838)
(13.8441 -1.93883e-24 2.02982)
(13.6974 -9.08896e-25 1.96103)
(13.9981 -1.05473e-24 1.9278)
(13.8291 -2.00575e-25 1.87206)
(14.1476 0 1.80824)
(13.9718 0 1.76745)
(14.2903 -2.6444e-24 1.67046)
(14.1133 3.75176e-22 1.64606)
(14.4237 1.24356e-21 1.51458)
(14.246 -3.68295e-22 1.50777)
(14.5449 5.78831e-23 1.34114)
(14.3673 1.27802e-21 1.35297)
(14.6511 -2.9458e-21 1.15107)
(14.4756 -1.252e-21 1.18231)
(14.7394 -1.95883e-21 0.945746)
(14.5686 -1.73671e-21 0.99684)
(14.6436 -2.19153e-22 0.798098)
(13.6662 7.84288e-25 1.80075)
(13.5318 1.62701e-24 1.73589)
(13.8044 8.03103e-25 1.70937)
(13.6505 1.9969e-24 1.65621)
(13.9383 3.75213e-22 1.60307)
(13.7789 0 1.56319)
(14.066 3.38274e-23 1.48132)
(13.9061 3.84605e-22 1.45593)
(14.1853 -3.72476e-22 1.3443)
(14.0253 -3.74314e-22 1.33439)
(14.2939 1.03013e-24 1.1925)
(14.1343 1.84185e-24 1.19894)
(14.3893 -2.00307e-24 1.0267)
(14.2319 -6.52523e-26 1.05016)
(14.4692 -1.90043e-26 0.848084)
(14.3161 9.48373e-22 0.888932)
(14.3847 -9.30586e-22 0.716541)
(13.5013 2.86004e-24 1.58903)
(13.3786 4.99833e-26 1.5268)
(13.6264 1.22248e-24 1.50788)
(13.4865 -5.77717e-22 1.45614)
(13.7474 4.38402e-25 1.41405)
(13.603 5.65914e-22 1.37414)
(13.8627 4.48917e-25 1.30715)
(13.7184 1.05031e-24 1.28008)
(13.9704 0 1.18737)
(13.8265 0 1.17399)
(14.0686 7.95213e-25 1.05515)
(13.9255 0 1.05619)
(14.1553 9.50516e-22 0.911166)
(14.0143 6.68275e-25 0.927192)
(14.2284 4.65379e-23 0.756419)
(14.0914 3.0656e-22 0.787763)
(14.1549 -1.11861e-21 0.638962)
(13.3502 -5.80603e-22 1.39177)
(13.2386 -9.31261e-22 1.33104)
(13.4643 2.62186e-23 1.32043)
(13.3375 3.17654e-22 1.26912)
(13.5747 5.80148e-22 1.23834)
(13.4442 5.80922e-22 1.19758)
(13.6798 6.15837e-25 1.14524)
(13.5499 -3.72151e-27 1.1159)
(13.778 0 1.0413)
(13.6489 -8.79969e-23 1.0241)
(13.8678 -1.461e-25 0.926918)
(13.7397 8.62222e-23 0.922496)
(13.9474 -6.6623e-22 0.80269)
(13.8214 -2.73116e-22 0.811533)
(14.0151 -8.51479e-22 0.669442)
(13.8928 -4.14515e-22 0.691855)
(13.9522 -1.68206e-22 0.564347)
(13.2134 -1.53346e-22 1.20635)
(13.1125 2.47932e-22 1.14621)
(13.3185 9.33828e-22 1.14439)
(13.2041 1.77204e-21 1.09271)
(13.4201 7.62564e-25 1.07339)
(13.3026 -8.22018e-22 1.03114)
(13.5168 -8.8609e-23 0.993159)
(13.4003 -6.03258e-25 0.961087)
(13.6074 -4.99158e-24 0.903864)
(13.492 -9.01254e-23 0.882611)
(13.6903 -1.84688e-22 0.80586)
(13.5761 8.83078e-23 0.795978)
(13.7642 -1.58925e-23 0.69965)
(13.6521 -2.79559e-22 0.70158)
(13.8274 2.7404e-22 0.58593)
(13.7189 5.14419e-22 0.599957)
(13.775 -2.35501e-22 0.491842)
(13.0916 2.06848e-21 1.03067)
(13.001 -3.51082e-23 0.970135)
(13.1893 -6.6042e-24 0.977704)
(13.0865 8.58802e-22 0.924769)
(13.2836 -8.43184e-22 0.917214)
(13.1785 -8.43352e-22 0.872719)
(13.3735 0 0.849059)
(13.2696 3.34433e-25 0.81367)
(13.4578 0 0.773403)
(13.3553 3.74949e-22 0.747688)
(13.5352 0 0.690551)
(13.4341 -3.67242e-22 0.675008)
(13.6045 2.40379e-22 0.600929)
(13.5055 5.60955e-23 0.595962)
(13.6642 1.45555e-23 0.505115)
(13.5686 1.91223e-22 0.511)
(13.6221 -2.41198e-22 0.420724)
(12.9851 -1.29557e-21 0.862314)
(12.9046 -1.28123e-22 0.800876)
(13.0768 -1.06e-24 0.817997)
(12.9851 -1.14532e-21 0.763383)
(13.1653 2.3285e-25 0.767513)
(13.0718 7.36238e-25 0.720465)
(13.2497 3.75329e-22 0.71077)
(13.1578 6.40953e-22 0.671889)
(13.329 1.79388e-23 0.647915)
(13.2386 -2.43584e-22 0.617724)
(13.4019 -3.19984e-22 0.579207)
(13.3132 -3.76222e-22 0.558167)
(13.4675 -4.86621e-25 0.505)
(13.3809 5.73598e-23 0.493492)
(13.5245 -5.62653e-23 0.425768)
(13.4411 -5.62007e-23 0.42407)
(13.4926 0 0.350381)
(12.8945 1.38055e-22 0.70024)
(12.8238 2.53687e-21 0.636607)
(12.9813 -1.1711e-21 0.664274)
(12.9005 -1.17094e-21 0.606763)
(13.0652 6.41527e-22 0.623387)
(12.983 1.09062e-24 0.572671)
(13.1453 2.02674e-23 0.577518)
(13.0649 -4.93872e-23 0.534151)
(13.2205 -6.42812e-22 0.526792)
(13.1419 -4.98266e-22 0.491266)
(13.29 -1.88324e-25 0.471424)
(13.2131 1.37798e-22 0.444178)
(13.3527 -2.25625e-26 0.4117)
(13.2781 3.88885e-22 0.393108)
(13.4075 7.26998e-26 0.347998)
(13.336 1.27815e-22 0.338347)
(13.3859 -1.2532e-22 0.280272)
(12.8203 1.37544e-21 0.541116)
(12.7593 2.66597e-21 0.475641)
(12.9033 1.35016e-24 0.513269)
(12.833 -1.13668e-21 0.453288)
(12.9836 -7.05313e-22 0.481659)
(12.9124 5.24746e-22 0.42778)
(13.0603 -5.70373e-22 0.446251)
(12.9911 -7.2236e-22 0.399002)
(13.1325 2.84628e-22 0.407147)
(13.0654 -1.49883e-22 0.367001)
(13.1993 5.30317e-22 0.364515)
(13.1341 4.33017e-22 0.331901)
(13.2598 5.26103e-22 0.318576)
(13.1969 2.38924e-22 0.293869)
(13.313 2.64047e-24 0.269622)
(13.2532 2.86939e-22 0.253123)
(13.302 -1.28253e-22 0.209943)
(12.7631 2.23841e-22 0.386362)
(12.7113 1.32225e-21 0.316237)
(12.8434 -6.24972e-22 0.366463)
(12.7829 -6.24294e-22 0.301251)
(12.921 5.37331e-22 0.343894)
(12.8599 4.69892e-22 0.284215)
(12.9952 -2.97723e-22 0.318631)
(12.9365 -4.52259e-22 0.264992)
(13.0652 -1.38791e-23 0.290753)
(13.0087 -6.16528e-22 0.24362)
(13.1301 1.39338e-22 0.260385)
(13.0757 8.46248e-22 0.220196)
(13.189 -6.10773e-24 0.227688)
(13.137 -4.00691e-22 0.194836)
(13.241 1.59954e-22 0.192868)
(13.1921 1.59876e-22 0.167686)
(13.2402 9.7427e-26 0.138932)
(12.7226 5.40587e-22 0.228741)
(12.5793 -3.28252e-25 0.156767)
(12.8009 4.71782e-22 0.216774)
(12.6486 4.19142e-22 0.149278)
(12.8767 -5.35561e-22 0.203203)
(12.7231 6.30429e-23 0.140639)
(12.9493 -7.74817e-22 0.188005)
(12.797 -5.60351e-22 0.130858)
(13.0177 2.27925e-22 0.17124)
(12.8667 -2.24072e-22 0.119995)
(13.0813 3.23204e-22 0.152991)
(12.9311 6.22873e-22 0.108105)
(13.1391 -2.43093e-22 0.133357)
(12.99 -3.04014e-22 0.0952442)
(13.1903 0 0.112464)
(13.0427 0 0.0814888)
(13.0884 0 0.0669376)
(12.4948 -1.34815e-22 0.0763824)
(12.5699 -2.75698e-24 0.0722005)
(12.6424 3.81821e-23 0.0674459)
(12.7115 -3.53513e-24 0.0621122)
(12.7763 1.59416e-22 0.0562306)
(12.8362 2.83428e-24 0.0498372)
(12.8902 -6.23596e-23 0.0429721)
(12.9374 0 0.0356849)
)
;

boundaryField
{
    inlet
    {
        type            calculated;
        value           nonuniform 0();
    }
    outlet
    {
        type            calculated;
        value           nonuniform 0();
    }
    flap
    {
        type            calculated;
        value           nonuniform 0();
    }
    upperWall
    {
        type            calculated;
        value           uniform (0 0 0);
    }
    lowerWall
    {
        type            calculated;
        value           nonuniform 0();
    }
    frontAndBack
    {
        type            empty;
        value           nonuniform 0();
    }
    procBoundary1to0
    {
        type            processor;
        value           nonuniform List<vector> 
18
(
(11.7916 -8.69118e-24 3.30061)
(11.8463 1.26114e-23 3.06172)
(11.7616 4.04711e-21 2.8855)
(11.6888 -1.41425e-22 2.71236)
(11.7123 4.33502e-21 2.49838)
(11.7213 3.74309e-21 2.28819)
(11.7184 3.92321e-21 2.08252)
(11.7061 -7.42255e-21 1.8818)
(11.6868 3.58733e-21 1.68616)
(11.6626 3.18605e-21 1.49553)
(11.6357 3.0927e-21 1.30955)
(11.6076 6.04493e-24 1.12787)
(11.5802 -1.2058e-25 0.949543)
(11.5548 -2.80764e-21 0.774507)
(11.5328 1.64185e-22 0.600457)
(11.5154 4.1545e-21 0.429103)
(11.5032 0 0.254559)
(11.3176 -3.18441e-22 0.0840674)
)
;
    }
    procBoundary1to2
    {
        type            processor;
        value           nonuniform List<vector> 
17
(
(16.7535 1.6421e-20 1.15523)
(16.276 9.08924e-21 1.05356)
(15.8465 7.31798e-21 0.961611)
(15.4611 -9.12489e-21 0.877574)
(15.1158 -4.87916e-21 0.799873)
(14.8069 -4.11021e-21 0.727154)
(14.5311 1.90257e-24 0.658275)
(14.2859 2.98619e-22 0.592245)
(14.069 -2.84455e-23 0.528285)
(13.8786 1.46448e-24 0.465615)
(13.7131 -2.41169e-22 0.403858)
(13.5717 4.14511e-25 0.342117)
(13.4535 -4.05374e-25 0.280798)
(13.3579 -1.28336e-22 0.218015)
(13.2853 9.7416e-26 0.156184)
(13.2341 -1.08226e-23 0.0904681)
(12.9772 3.88167e-26 0.0280379)
)
;
    }
    procBoundary1to3
    {
        type            processor;
        value           nonuniform List<vector> 9((9.92628 2.29512e-21 5.1002) (10.269 2.59363e-21 4.9881) (10.5797 1.8577e-21 4.84026) (10.8556 -3.8939e-21 4.66325) (11.0956 -4.19183e-22 4.46337) (11.2998 3.48654e-21 4.24643) (11.4693 2.73003e-21 4.01759) (11.606 8.05433e-21 3.78129) (11.7125 -7.60043e-21 3.54127));
    }
    procBoundary1to4
    {
        type            processor;
        value           nonuniform List<vector> 
30
(
(9.77849 2.24057e-21 5.36412)
(10.0424 6.15041e-21 5.56216)
(10.3116 -3.94578e-23 5.71066)
(10.5147 1.37628e-21 6.18869)
(10.8778 5.28138e-21 6.30683)
(11.2202 -3.79624e-21 6.36715)
(11.5767 1.37504e-21 6.79866)
(12.0045 2.5094e-21 6.77952)