/*--------------------------------*- C++ -*----------------------------------*\
| =========                 |                                                 |
| \\      /  F ield         | OpenFOAM: The Open Source CFD Toolbox           |
|  \\    /   O peration     | Version:  dev                                   |
|   \\  /    A nd           | Web:      www.OpenFOAM.org                      |
|    \\/     M anipulation  |                                                 |
\*---------------------------------------------------------------------------*/
FoamFile
{
    version     2.0;
    format      ascii;
    class       surfaceScalarField;
    location    "0.52";
    object      phi;
}
// * * * * * * * * * * * * * * * * * * * * * * * * * * * * * * * * * * * * * //

dimensions      [0 3 -1 0 0 0 0];

internalField   nonuniform List<scalar> 
881
(
0.148125
0.120099
0.119395
0.17539
0.113609
0.182684
0.112094
0.190227
0.108543
0.102363
0.211065
0.111574
0.215419
0.107733
0.221215
0.102739
0.227725
0.0958468
0.0864582
0.260002
0.114419
0.259871
0.107858
0.261945
0.100658
0.265585
0.0922003
0.270129
0.0819084
0.274952
0.0693211
0.0541513
0.317601
0.119024
0.314844
0.110608
0.313945
0.101552
0.31468
0.0914589
0.316676
0.0799077
0.319479
0.0665128
0.322649
0.0509782
0.325855
0.0331243
0.0128342
0.373993
0.12214
0.371629
0.112967
0.370272
0.102904
0.369999
0.091726
0.370741
0.0791616
0.372316
0.0649337
0.374494
0.0487966
0.377066
0.0305497
0.379902
0.00999707
-0.0128398
0.421769
0.122145
0.421711
0.113022
0.421883
0.102727
0.422466
0.0911385
0.423535
0.0780889
0.425069
0.063396
0.426972
0.046891
0.429085
0.0284343
0.431157
0.00792459
0.432793
-0.0144752
0.433565
-0.0383407
-0.063149
0.457956
0.118844
0.46073
0.110244
0.463189
0.100264
0.465493
0.0888312
0.467731
0.0758471
0.469918
0.0612063
0.471986
0.0448205
0.473772
0.0266464
0.474971
0.00672622
0.475185
-0.0146885
0.474061
-0.0372151
0.471302
-0.060386
-0.083638
0.482803
0.112855
0.488046
0.104997
0.492648
0.0956589
0.496689
0.0847863
0.50021
0.0723233
0.503191
0.0582229
0.505544
0.0424663
0.507094
0.0250954
0.507561
0.0062593
0.506635
-0.0137604
0.504056
-0.0346335
0.49963
-0.0559558
0.493232
-0.0772349
0.484818
-0.0979062
-0.117361
0.498305
0.105104
0.50526
0.0980406
0.511418
0.0894981
0.516771
0.0794308
0.521288
0.0678043
0.5249
0.0546089
0.52749
0.0398756
0.528885
0.0237002
0.528864
0.00628082
0.527212
-0.0121067
0.523754
-0.0311719
0.518371
-0.0505686
0.511013
-0.0698713
0.501706
-0.088591
0.490556
-0.106202
-0.122166
0.507096
0.0964908
0.514952
0.0901832
0.521974
0.0824743
0.528081
0.0733219
0.533181
0.0627033
0.537162
0.0506272
0.539887
0.0371495
0.541197
0.0223906
0.540926
0.00655349
0.538932
-0.0101107
0.535105
-0.0273404
0.529376
-0.0448353
0.521741
-0.0622297
0.51226
-0.0791027
0.501069
-0.0950009
0.488376
-0.109462
0.47446
-0.122036
-0.132315
0.511686
0.0877108
0.519782
0.082086
0.527073
0.0751819
0.533435
0.0669588
0.538737
0.0574007
0.542841
0.0465228
0.545603
0.0343875
0.546878
0.0211165
0.54654
0.00689383
0.544493
-0.00806076
0.540668
-0.0235114
0.535031
-0.0391927
0.527598
-0.0547899
0.518445
-0.0699413
0.50771
-0.0842563
0.495595
-0.0973348
0.482359
-0.108787
0.468315
-0.118256
-0.125441
0.514032
0.0792024
0.521932
0.0741857
0.529085
0.0680285
0.535349
0.0606947
0.540578
0.0521713
0.544626
0.0424752
0.54735
0.031665
0.54862
0.0198483
0.548332
0.00718375
0.546415
-0.00614014
0.542823
-0.0199147
0.53754
-0.0339038
0.530592
-0.0478341
0.522053
-0.0613944
0.512055
-0.0742478
0.50078
-0.0860476
0.488461
-0.0964541
0.475374
-0.105153
0.461829
-0.111878
-0.116423
0.515429
0.0711818
0.522905
0.0667104
0.529697
0.0612361
0.535665
0.0547273
0.540664
0.0471729
0.544551
0.0385893
0.547192
0.0290256
0.548471
0.0185722
0.548295
0.00736275
0.546603
-0.00444388
0.54336
-0.0166661
0.538557
-0.0290944
0.532221
-0.0414906
0.524422
-0.0535861
0.515275
-0.0650899
0.504942
-0.0757012
0.493626
-0.0851234
0.481569
-0.09308
0.469041
-0.0993321
0.456328
-0.10369
-0.106247
0.516615
0.0637188
0.523584
0.0597421
0.529931
0.0548904
0.535522
0.0491367
0.540225
0.0424714
0.543908
0.0349083
0.546448
0.0264881
0.547738
0.0172855
0.547695
0.00740949
0.546262
-0.00300585
0.543405
-0.0138038
0.539119
-0.024801
0.533427
-0.03579
0.52639
-0.0465386
0.518106
-0.0567952
0.508717
-0.0662987
0.498399
-0.0747904
0.487363
-0.0820264
0.475842
-0.0877931
0.46409
-0.0919162
-0.0944475
0.517969
0.0568069
0.52443
0.0532826
0.530323
0.0489988
0.535529
0.0439327
0.539927
0.0380757
0.543399
0.0314389
0.545834
0.0240565
0.547134
0.0159888
0.547224
0.00732404
0.546049
-0.00182475
0.543574
-0.011323
0.539793
-0.0210116
0.534723
-0.0307114
0.528417
-0.0402214
0.520958
-0.0493245
0.512468
-0.0577944
0.503098
-0.0654054
0.493033
-0.0719432
0.482476
-0.0772169
0.471649
-0.0810674
-0.0835152
0.519686
0.050407
0.525673
0.0472981
0.531141
0.0435329
0.535984
0.0390921
0.540095
0.0339681
0.543367
0.0281697
0.545702
0.0217249
0.547013
0.014683
0.547227
0.00711518
0.546292
-0.000883821
0.544175
-0.00919835
0.540864
-0.0176921
0.536373
-0.026211
0.530745
-0.034582
0.524052
-0.0426179
0.516395
-0.0501231
0.507908
-0.0569015
0.498748
-0.0627652
0.489096
-0.0675445
0.479147
-0.0710955
-0.0734158
0.521883
0.0444696
0.527441
0.0417429
0.532525
0.0384518
0.537041
0.0345801
0.540891
0.030121
0.543984
0.0250813
0.546229
0.0194838
0.547549
0.0133688
0.547876
0.00679369
0.54716
-0.000160918
0.545367
-0.00739746
0.542485
-0.0148008
0.538523
-0.0222382
0.533514
-0.0295614
0.52752
-0.0366097
0.520627
-0.043215
0.51295
-0.0492073
0.504627
-0.0544229
0.495816
-0.058712
0.48669
-0.0619457
-0.0641059
0.524652
0.0389434
0.52983
0.036569
0.534573
0.0337121
0.538798
0.0303592
0.542419
0.0265042
0.545353
0.0221523
0.54752
0.017322
0.548848
0.0120459
0.549277
0.00637163
0.548757
0.000366718
0.547257
-0.00588824
0.544761
-0.0122953
0.541275
-0.0187411
0.536826
-0.0250996
0.531465
-0.0312339
0.525266
-0.0369997
0.518328
-0.042251
0.510771
-0.0468458
0.502734
-0.0506535
0.494373
-0.0535598
-0.0555364
0.52808
0.0337781
0.532924
0.0317291
0.537369
0.0292711
0.541341
0.0263924
0.544762
0.023088
0.547558
0.0193617
0.549657
0.0152284
0.550995
0.0107146
0.551514
0.00586025
0.551169
0.00071949
0.549931
-0.00464006
0.54778
-0.0101345
0.544721
-0.0156696
0.540774
-0.0211387
0.535981
-0.0264256
0.530406
-0.0314081
0.524135
-0.0359613
0.517274
-0.0399636
0.509946
-0.0433018
0.502288
-0.0458764
-0.0476535
0.532255
0.0289247
0.536811
0.0271776
0.540999
0.0250873
0.544752
0.0226441
0.548002
0.0198436
0.550681
0.0166889
0.552724
0.0131918
0.554072
0.00937381
0.554673
0.00526763
0.554484
0.000916959
0.553476
-0.00362156
0.551631
-0.0082784
0.548949
-0.0129749
0.545447
-0.0176216
0.541158
-0.0221216
0.53614
-0.0263719
0.530466
-0.0302675
0.52423
-0.0337051
0.51754
-0.0365882
0.510521
-0.0388311
-0.0403979
0.537266
0.0243358
0.541579
0.0228702
0.54555
0.0211208
0.54912
0.0190798
0.552226
0.0167435
0.554807
0.0141141
0.556805
0.011201
0.558165
0.00802168
0.558839
0.00460227
0.558787
0.000978621
0.55798
-0.00280394
0.556403
-0.00668873
0.554051
-0.0106095
0.550937
-0.0144928
0.547092
-0.0182594
0.542562
-0.0218239
0.537414
-0.0250989
0.53173
-0.0279984
0.525609
-0.0304415
0.519161
-0.032356
-0.0337071
0.543212
0.0199651
0.547324
0.0187638
0.551117
0.0173328
0.554537
0.0156661
0.557526
0.0137605
0.560029
0.0116178
0.561993
0.00924522
0.563366
0.00665655
0.564105
0.00387261
0.564172
0.00092192
0.56354
-0.00216003
0.562191
-0.00532736
0.560122
-0.0085258
0.557341
-0.0116969
0.553876
-0.0147766
0.549767
-0.0176957
0.545073
-0.0203832
0.539868
-0.0227691
0.534239
-0.0247872
0.52829
-0.0263778
-0.027509
0.550195
0.0157667
0.554148
0.0148157
0.557802
0.013685
0.561104
0.0123699
0.564003
0.0108682
0.566447
0.00918082
0.568387
0.00731349
0.569775
0.00527666
0.570572
0.0030863
0.57074
0.000764268
0.570254
-0.00166223
0.569097
-0.00415663
0.567263
-0.00667699
0.564761
-0.0091785
0.561613
-0.0116103
0.557856
-0.0139183
0.553542
-0.0160468
0.548737
-0.0179405
0.543524
-0.0195469
0.537995
-0.0208187
-0.0217288
0.558331
0.011695
0.562169
0.0109836
0.56572
0.0101394
0.568937
0.00915891
0.571772
0.00804029
0.574176
0.00678439
0.576102
0.00539523
0.577508
0.00388041
0.578353
0.00225146
0.578604
0.00052413
0.578236
-0.00128158
0.577231
-0.00313793
0.575584
-0.005015
0.573303
-0.00688012
0.570406
-0.00869459
0.566927
-0.0104186
0.562914
-0.0120105
0.558428
-0.013429
0.553543
-0.0146343
0.548346
-0.0155903
-0.0162756
0.567749
0.00770252
0.571514
0.00722386
0.575002
0.00665678
0.578169
0.00599908
0.580966
0.00524953
0.583349
0.00440865
0.585274
0.00347905
0.586698
0.00246568
0.587584
0.00137577
0.5879
0.00021931
0.587621
-0.000989705
0.58673
-0.00223282
0.585222
-0.00349036
0.583099
-0.00474002
0.58038
-0.00595609
0.577095
-0.00711213
0.573288
-0.0081802
0.569018
-0.00913214
0.564352
-0.0099403
0.559371
-0.0105774
-0.0110209
0.578548
0.00374474
0.582281
0.00349569
0.585742
0.00320144
0.588886
0.00286084
0.591669
0.00247328
0.594046
0.00203906
0.595974
0.00155974
0.59741
0.00103849
0.598316
0.000480809
0.598653
-0.000105966
0.598391
-0.000715299
0.597513
-0.00134062
0.596012
-0.00197239
0.593889
-0.00259928
0.591162
-0.00320902
0.58786
-0.00378846
0.584028
-0.00432367
0.579723
-0.00480044
0.575017
-0.00520452
0.569993
-0.00552103
-0.00573943
0.579535
0.583036
0.586243
0.589109
0.591589
0.593636
0.595204
0.596252
0.596743
0.596649
0.595947
0.594621
0.592665
0.590084
0.586895
0.583129
0.57883
0.574058
0.568883
0.563395
)
;

boundaryField
{
    inlet
    {
        type            calculated;
        value           nonuniform 0();
    }
    outlet
    {
        type            calculated;
        value           nonuniform List<scalar> 
15
(
0.443666
0.452313
0.460741
0.469072
0.477405
0.48583
0.494432
0.503294
0.5125
0.522122
0.532247
0.542925
0.55415
0.564746
0.557692
)
;
    }
    flap
    {
        type            calculated;
        value           nonuniform 0();
    }
    upperWall
    {
        type            calculated;
        value           nonuniform List<scalar> 
21
(
0
0
0
0
0
0
0
0
0
0
0
0
0
0
5.067e-15
0
0
0
0
0
0
)
;
    }
    lowerWall
    {
        type            calculated;
        value           nonuniform 0();
    }
    frontAndBack
    {
        type            empty;
        value           nonuniform 0();
    }
    procBoundary2to1
    {
        type            processor;
        value           nonuniform List<scalar> 
17
(
-0.502907
-0.505524
-0.507408
-0.509151
-0.511056
-0.513284
-0.515943
-0.519123
-0.522912
-0.527397
-0.532674
-0.538838
-0.545992
-0.554256
-0.563753
-0.574586
-0.575787
)
;
    }
    procBoundary2to4
    {
        type            processor;
        value           nonuniform List<scalar> 
11
(
-0.140534
-0.168907
-0.209037
-0.262852
-0.322211
-0.377115
-0.421778
-0.454659
-0.476817
-0.490556
-0.498485
)
;
    }
    procBoundary2to5
    {
        type            processor;
        value           nonuniform List<scalar> 
34
(
-0.127697
-0.126771
0.155495
-0.116093
-0.109803
0.19766
-0.0931008
0.234362
-0.0741487
-0.0587048
0.279502
-0.0363335
-0.0160224
0.329042
0.00995194
0.38279
0.0375709
0.0636513
0.433066
0.088272
0.466674
0.106328
0.127752
0.474436
0.134973
0.47776
0.135965
0.147125
0.459665
0.139959
0.453813
0.130117
0.448155
0.118931
)
;
    }
}


// ************************************************************************* //
