/*--------------------------------*- C++ -*----------------------------------*\
| =========                 |                                                 |
| \\      /  F ield         | OpenFOAM: The Open Source CFD Toolbox           |
|  \\    /   O peration     | Version:  dev                                   |
|   \\  /    A nd           | Web:      www.OpenFOAM.org                      |
|    \\/     M anipulation  |                                                 |
\*---------------------------------------------------------------------------*/
FoamFile
{
    version     2.0;
    format      ascii;
    class       volVectorField;
    location    "3.4";
    object      Force;
}
// * * * * * * * * * * * * * * * * * * * * * * * * * * * * * * * * * * * * * //

dimensions      [1 1 -2 0 0 0 0];

internalField   uniform (0 0 0);

boundaryField
{
    inlet
    {
        type            calculated;
        value           uniform (0 0 0);
    }
    outlet
    {
        type            calculated;
        value           uniform (0 0 0);
    }
    flap
    {
        type            calculated;
        value           nonuniform List<vector> 
33
(
(3.72748 -6.15244e-19 -0.0738656)
(3.72047 1.71029e-18 -0.165167)
(3.71553 -3.41614e-18 -0.257806)
(3.70547 2.46496e-18 -0.339093)
(3.6811 -1.01876e-21 -0.409745)
(3.63921 -3.20885e-18 -0.469382)
(3.57965 3.29138e-37 -0.518621)
(3.50268 1.68635e-18 -0.557719)
(3.40656 -1.67933e-18 -0.587172)
(3.28792 -1.65097e-18 -0.605386)
(3.1429 1.64943e-18 -0.608402)
(2.96245 1.1683e-22 -0.592993)
(2.72626 -1.41794e-37 -0.555564)
(2.38877 1.33101e-22 -0.488554)
(1.83449 2.8745e-22 -0.37396)
(0.142421 -4.63719e-19 0.678093)
(0.0861281 -5.87747e-39 0.412001)
(0.0298725 0 0.1511)
(-0.0472016 -1.53394e-18 0.000911352)
(-0.0472644 1.52768e-18 0.00202158)
(-0.0472489 -1.55253e-18 0.00312912)
(-0.0470629 -1.02355e-22 0.00407957)
(-0.0467544 -1.60018e-18 0.00491377)
(-0.0465468 1.57469e-18 0.00566504)
(-0.0467795 -4.18398e-24 0.00640995)
(-0.0477277 -1.52081e-18 0.00724169)
(-0.0492819 1.66022e-18 0.00818666)
(-0.0509307 7.05406e-20 0.0091515)
(-0.0521062 1.68148e-18 0.00997556)
(-0.0526534 1.62356e-18 0.0106163)
(-0.051961 3.22233e-18 0.0109018)
(-0.0481889 -1.17549e-38 0.0104545)
(-0.0379787 5.1576e-20 0.00827584)
)
;
    }
    upperWall
    {
        type            calculated;
        value           uniform (0 0 0);
    }
    lowerWall
    {
        type            calculated;
        value           uniform (0 0 0);
    }
    frontAndBack
    {
        type            empty;
    }
}


// ************************************************************************* //
