/*--------------------------------*- C++ -*----------------------------------*\
| =========                 |                                                 |
| \\      /  F ield         | OpenFOAM: The Open Source CFD Toolbox           |
|  \\    /   O peration     | Version:  dev                                   |
|   \\  /    A nd           | Web:      www.OpenFOAM.org                      |
|    \\/     M anipulation  |                                                 |
\*---------------------------------------------------------------------------*/
FoamFile
{
    version     2.0;
    format      ascii;
    class       pointVectorField;
    location    "3.4";
    object      pointDisplacement;
}
// * * * * * * * * * * * * * * * * * * * * * * * * * * * * * * * * * * * * * //

dimensions      [0 1 0 0 0 0 0];

internalField   nonuniform List<vector> 
5828
(
(0 0 0)
(0.00863553 0 0)
(0.0164111 0 0)
(0.0231179 0 0)
(0.0288356 0 0)
(0.0336421 0 0)
(0.0376091 0 0)
(0.0408019 0 0)
(0.0432794 0 0)
(0.0450942 0 0)
(0.0462932 0 0)
(0.046918 0 0)
(0.0470058 0 0)
(0.0465897 0 0)
(0.0457 0 0)
(0.0443647 0 0)
(0.0426108 0 0)
(0.0404655 0 0)
(0.0379574 0 0)
(0.0351182 0 0)
(0.031984 0 0)
(0.0285983 0 0)
(0.0250143 0 0)
(0.0212973 0 0)
(0.0175284 0 0)
(0.0138072 0 0)
(0.0102568 0 0)
(0.0070318 0 0)
(0.00433619 0 0)
(0.00247808 0 0)
(0 0 0)
(0 0 0)
(0.00864124 0 -7.86525e-06)
(0.0164228 0 -1.4746e-05)
(0.0231358 0 -2.02816e-05)
(0.0288599 0 -2.43873e-05)
(0.0336733 0 -2.69687e-05)
(0.0376479 0 -2.79047e-05)
(0.0408493 0 -2.7039e-05)
(0.0433364 0 -2.41738e-05)
(0.0451622 0 -1.90647e-05)
(0.0463738 0 -1.14161e-05)
(0.047013 0 -8.77533e-07)
(0.0471172 0 1.296e-05)
(0.0467199 0 3.05642e-05)
(0.0458516 0 5.2459e-05)
(0.0445407 0 7.92242e-05)
(0.0428142 0 0.000111491)
(0.0406998 0 0.000149926)
(0.0382265 0 0.000195201)
(0.0354258 0 0.000247973)
(0.0323341 0 0.000308881)
(0.0289947 0 0.000378531)
(0.0254606 0 0.000457446)
(0.0217973 0 0.000546044)
(0.018086 0 0.000644592)
(0.0144273 0 0.000753059)
(0.0109458 0 0.000870869)
(0.00779889 0 0.000996304)
(0.00519365 0 0.00112461)
(0.00343562 0 0.00124161)
(0.00134836 0 0.00142594)
(0 0 0)
(0.00865929 0 -1.58014e-05)
(0.0164586 0 -2.96361e-05)
(0.0231895 0 -4.07882e-05)
(0.0289325 0 -4.9095e-05)
(0.0337664 0 -5.43736e-05)
(0.0377636 0 -5.6389e-05)
(0.0409904 0 -5.48362e-05)
(0.0435062 0 -4.93282e-05)
(0.0453647 0 -3.9387e-05)
(0.0466137 0 -2.44341e-05)
(0.0472958 0 -3.78362e-06)
(0.047449 0 2.33654e-05)
(0.0471076 0 5.79295e-05)
(0.0463032 0 0.000100932)
(0.0450648 0 0.000153505)
(0.0434202 0 0.000216884)
(0.0413979 0 0.000292374)
(0.039028 0 0.000381283)
(0.0363425 0 0.000484855)
(0.0333773 0 0.000604291)
(0.030176 0 0.0007407)
(0.0267911 0 0.000894952)
(0.0232872 0 0.00106761)
(0.0197463 0 0.00125883)
(0.0162707 0 0.00146786)
(0.012988 0 0.00169239)
(0.0100598 0 0.00192714)
(0.00769524 0 0.00216024)
(0.00618592 0 0.00236316)
(0.0043504 0 0.00262652)
(0 0 0)
(0.00868885 0 -2.38747e-05)
(0.0165173 0 -4.48054e-05)
(0.0232778 0 -6.17319e-05)
(0.0290519 0 -7.44262e-05)
(0.0339194 0 -8.26298e-05)
(0.037954 0 -8.60067e-05)
(0.0412226 0 -8.41186e-05)
(0.0437859 0 -7.64068e-05)
(0.0456985 0 -6.21812e-05)
(0.0470093 0 -4.0605e-05)
(0.047762 0 -1.06875e-05)
(0.047996 0 2.87305e-05)
(0.047747 0 7.89772e-05)
(0.0470479 0 0.000141527)
(0.0459291 0 0.000218005)
(0.0444195 0 0.000310198)
(0.0425489 0 0.000419995)
(0.0403497 0 0.000549284)
(0.0378544 0 0.00069975)
(0.0350985 0 0.000873007)
(0.0321255 0 0.00107051)
(0.0289873 0 0.00129316)
(0.0257454 0 0.00154118)
(0.0224817 0 0.00181409)
(0.0192998 0 0.00210954)
(0.0163281 0 0.00242205)
(0.0137292 0 0.00274108)
(0.0117061 0 0.00304644)
(0.0105254 0 0.00329849)
(0.00899155 0 0.00358767)
(0 0 0)
(0.00872978 0 -3.21468e-05)
(0.0165986 0 -6.03796e-05)
(0.0233999 0 -8.33103e-05)
(0.0292171 0 -0.000100664)
(0.0341313 0 -0.000112125)
(0.0382174 0 -0.000117277)
(0.0415438 0 -0.000115569)
(0.0441725 0 -0.000106298)
(0.0461596 0 -8.85912e-05)
(0.0475554 0 -6.13912e-05)
(0.0484056 0 -2.34479e-05)
(0.0487508 0 2.67052e-05)
(0.0486285 0 9.07583e-05)
(0.0480744 0 0.000170562)
(0.0471203 0 0.000268143)
(0.0457963 0 0.000385753)
(0.0441335 0 0.00052579)
(0.0421666 0 0.00069052)
(0.0399308 0 0.000881929)
(0.0374623 0 0.001102)
(0.034804 0 0.00135232)
(0.0320073 0 0.00163347)
(0.0291303 0 0.0019451)
(0.0262478 0 0.00228543)
(0.0234584 0 0.00264949)
(0.0208907 0 0.00302806)
(0.0187055 0 0.00340506)
(0.0170935 0 0.00375283)
(0.0162927 0 0.00402526)
(0.0150587 0 0.00431762)
(0 0 0)
(0.00878164 0 -4.06734e-05)
(0.0167016 0 -7.64728e-05)
(0.0235547 0 -0.000105703)
(0.0294263 0 -0.000128067)
(0.0343995 0 -0.000143214)
(0.0385507 0 -0.000150673)
(0.04195 0 -0.000149812)
(0.0446611 0 -0.000139811)
(0.0467419 0 -0.000119661)
(0.0482447 0 -8.8125e-05)
(0.0492172 0 -4.37582e-05)
(0.0497021 0 1.51453e-05)
(0.0497384 0 9.05851e-05)
(0.0493645 0 0.000184676)
(0.0486151 0 0.000299697)
(0.0475228 0 0.000438258)
(0.0461205 0 0.000603104)
(0.0444426 0 0.000796704)
(0.0425286 0 0.00102137)
(0.040418 0 0.00127931)
(0.0381526 0 0.00157197)
(0.0357831 0 0.00189952)
(0.0333667 0 0.00226078)
(0.0309678 0 0.00265195)
(0.0286699 0 0.00306533)
(0.0265896 0 0.00348839)
(0.0248831 0 0.00389992)
(0.0237311 0 0.00426675)
(0.023341 0 0.00453972)
(0.0223993 0 0.00482616)
(0 0 0)
(0.00884385 0 -4.95025e-05)
(0.0168251 0 -9.31835e-05)
(0.0237403 0 -0.000129065)
(0.0296771 0 -0.000156858)
(0.0347208 0 -0.000176204)
(0.0389499 0 -0.000186608)
(0.0424361 0 -0.000187392)
(0.0452452 0 -0.000177654)
(0.0474375 0 -0.000156303)
(0.0490673 0 -0.000121966)
(0.0501839 0 -7.30482e-05)
(0.0508328 0 -7.74424e-06)
(0.051056 0 7.61204e-05)
(0.0508932 0 0.000180868)
(0.0503833 0 0.000308946)
(0.0495635 0 0.000463138)
(0.0484686 0 0.00064633)
(0.0471345 0 0.00086119)
(0.045602 0 0.00111025)
(0.0439133 0 0.00139563)
(0.0421111 0 0.00171847)
(0.0402439 0 0.00207848)
(0.0383663 0 0.00247337)
(0.0365368 0 0.00289741)
(0.0348259 0 0.0033408)
(0.0333211 0 0.00378806)
(0.0321547 0 0.00421432)
(0.0315006 0 0.00458263)
(0.0315425 0 0.00484255)
(0.0308879 0 0.00511969)
(0 0 0)
(0.00891569 0 -5.86733e-05)
(0.0169677 0 -0.000110592)
(0.0239546 0 -0.000153524)
(0.0299668 0 -0.000187221)
(0.0350917 0 -0.000211349)
(0.0394101 0 -0.000225421)
(0.042996 0 -0.00022876)
(0.0459172 0 -0.000220406)
(0.048236 0 -0.00019921)
(0.0500087 0 -0.000163787)
(0.0512873 0 -0.000112462)
(0.0521213 0 -4.34081e-05)
(0.0525565 0 4.55478e-05)
(0.0526344 0 0.000156855)
(0.0523972 0 0.000293071)
(0.0518858 0 0.000456974)
(0.0511386 0 0.000651432)
(0.0501949 0 0.000879183)
(0.0490965 0 0.0011427)
(0.0478867 0 0.00144387)
(0.0466099 0 0.00178347)
(0.0453126 0 0.00216062)
(0.0440441 0 0.00257199)
(0.0428561 0 0.00301066)
(0.0418071 0 0.00346501)
(0.0409594 0 0.00391741)
(0.0404026 0 0.00434123)
(0.0402872 0 0.00469734)
(0.0407815 0 0.00493447)
(0.0404204 0 0.00519842)
(0 0 0)
(0.00899631 0 -6.82145e-05)
(0.0171278 0 -0.000128756)
(0.0241951 0 -0.000179175)
(0.0302918 0 -0.000219295)
(0.0355075 0 -0.00024884)
(0.0399258 0 -0.000267368)
(0.0436218 0 -0.000274201)
(0.0466654 0 -0.000268405)
(0.0491221 0 -0.000248839)
(0.051052 0 -0.000214191)
(0.0525103 0 -0.00016285)
(0.0535496 0 -9.29767e-05)
(0.0542184 0 -2.46549e-06)
(0.0545617 0 0.000111081)
(0.054625 0 0.00025016)
(0.0544522 0 0.000417414)
(0.0540859 0 0.000615534)
(0.0535689 0 0.000847094)
(0.0529448 0 0.00111436)
(0.0522596 0 0.00141887)
(0.0515594 0 0.00176094)
(0.0508896 0 0.00213915)
(0.0502945 0 0.00254945)
(0.0498163 0 0.00298414)
(0.0494958 0 0.00343064)
(0.0493733 0 0.00387032)
(0.0494959 0 0.00427625)
(0.0499727 0 0.0046085)
(0.0509448 0 0.00481495)
(0.0508913 0 0.00506579)
(0 0 0)
(0.00908472 0 -7.81434e-05)
(0.0173034 0 -0.000147714)
(0.024459 0 -0.000206075)
(0.0306484 0 -0.000253168)
(0.0359634 0 -0.000288802)
(0.0404887 0 -0.000312562)
(0.0443016 0 -0.000323813)
(0.0474766 0 -0.000321811)
(0.0500834 0 -0.00030552)
(0.0521844 0 -0.000273676)
(0.0538377 0 -0.000224785)
(0.0550986 0 -0.000157136)
(0.056018 0 -6.87575e-05)
(0.0566446 0 4.25719e-05)
(0.057028 0 0.000179091)
(0.0572159 0 0.000343136)
(0.0572549 0 0.000537037)
(0.0571911 0 0.000762988)
(0.0570698 0 0.00102294)
(0.0569412 0 0.00131794)
(0.056855 0 0.00164777)
(0.0568559 0 0.00201051)
(0.0569854 0 0.00240168)
(0.0572757 0 0.00281346)
(0.0577499 0 0.00323334)
(0.058421 0 0.0036429)
(0.0592953 0 0.00401629)
(0.0604283 0 0.00431357)
(0.0619112 0 0.0044813)
(0.0622001 0 0.00471741)
(0 0 0)
(0.00917982 0 -8.84658e-05)
(0.0174922 0 -0.000167477)
(0.0247432 0 -0.000234246)
(0.0310326 0 -0.000288878)
(0.036452 0 -0.000331237)
(0.0410879 0 -0.000360961)
(0.0450247 0 -0.000377666)
(0.0483421 0 -0.000380824)
(0.0511099 0 -0.000369485)
(0.0533925 0 -0.000342497)
(0.0552507 0 -0.000298496)
(0.0567419 0 -0.000235965)
(0.0579211 0 -0.000153287)
(0.0588415 0 -4.85832e-05)
(0.0595567 0 8.00268e-05)
(0.0601177 0 0.000234398)
(0.0605753 0 0.000416296)
(0.0609799 0 0.000627247)
(0.0613806 0 0.000868643)
(0.0618296 0 0.00114112)
(0.0623768 0 0.001444)
(0.0630726 0 0.00177468)
(0.0639602 0 0.00212837)
(0.0650631 0 0.00249777)
(0.0663888 0 0.00287163)
(0.0679238 0 0.00323325)
(0.069632 0 0.00355923)
(0.0714977 0 0.00381046)
(0.0735327 0 0.00393129)
(0.0742276 0 0.00413822)
(0 0 0)
(0.00928041 0 -9.91745e-05)
(0.0176919 0 -0.000188031)
(0.0250441 0 -0.000263666)
(0.0314379 0 -0.000326352)
(0.0369636 0 -0.000376013)
(0.041715 0 -0.000412522)
(0.0457852 0 -0.000435813)
(0.0492533 0 -0.000445505)
(0.0521885 0 -0.000440718)
(0.0546574 0 -0.000420445)
(0.056724 0 -0.000383631)
(0.0584484 0 -0.000329008)
(0.0598904 0 -0.000255403)
(0.0611084 0 -0.000161488)
(0.062158 0 -4.58369e-05)
(0.0630939 0 9.27893e-05)
(0.0639712 0 0.000255416)
(0.064845 0 0.000442702)
(0.0657717 0 0.000654993)
(0.0668025 0 0.000892283)
(0.0679857 0 0.00115362)
(0.0693806 0 0.00143579)
(0.0710351 0 0.00173355)
(0.07297 0 0.00204039)
(0.075184 0 0.00234741)
(0.0776434 0 0.00264156)
(0.080275 0 0.00290396)
(0.0829669 0 0.00309936)
(0.0856086 0 0.00316896)
(0.0868079 0 0.00333604)
(0 0 0)
(0.00938518 0 -0.00011025)
(0.0178996 0 -0.000209335)
(0.0253564 0 -0.00029426)
(0.0318565 0 -0.000365451)
(0.0374917 0 -0.000423035)
(0.0423654 0 -0.000467216)
(0.0465748 0 -0.000498127)
(0.0501972 0 -0.000515546)
(0.0533011 0 -0.000518764)
(0.0559562 0 -0.000506934)
(0.0582316 0 -0.000479454)
(0.0601914 0 -0.000435508)
(0.0618977 0 -0.000374283)
(0.0634116 0 -0.000295018)
(0.0647912 0 -0.000196933)
(0.0660948 0 -7.95282e-05)
(0.0673812 0 5.73469e-05)
(0.0687098 0 0.000213373)
(0.0701413 0 0.00038765)
(0.0717304 0 0.000578834)
(0.0735321 0 0.000784978)
(0.0756045 0 0.00100289)
(0.0779987 0 0.00122683)
(0.0807454 0 0.00145038)
(0.083843 0 0.00166759)
(0.0872518 0 0.00187112)
(0.0908747 0 0.00205062)
(0.0944988 0 0.00218155)
(0.0978404 0 0.00220361)
(0.099762 0 0.00233588)
(0 0 0)
(0.00949283 0 -0.00012166)
(0.0181126 0 -0.000231324)
(0.0256748 0 -0.000325926)
(0.0322827 0 -0.000406083)
(0.0380321 0 -0.000472229)
(0.0430319 0 -0.000524874)
(0.0473821 0 -0.000564308)
(0.0511584 0 -0.000590467)
(0.0544295 0 -0.000602955)
(0.0572706 0 -0.000601298)
(0.0597556 0 -0.000585252)
(0.0619499 0 -0.000554472)
(0.0639169 0 -0.000508586)
(0.065719 0 -0.000447388)
(0.0674172 0 -0.000370852)
(0.0690727 0 -0.000279323)
(0.0707467 0 -0.000173627)
(0.0725014 0 -5.51988e-05)
(0.0743991 0 7.37978e-05)
(0.0765004 0 0.000210397)
(0.0788681 0 0.000350752)
(0.0815556 0 0.000491089)
(0.084618 0 0.000624991)
(0.0880981 0 0.00074513)
(0.0920017 0 0.000847314)
(0.0963006 0 0.000930216)
(0.100899 0 0.000996999)
(0.105532 0 0.00104748)
(0.10972 0 0.00103354)
(0.112924 0 0.00117603)
(0 0 0)
(0.00960207 0 -0.000133362)
(0.0183282 0 -0.000253913)
(0.0259957 0 -0.000358543)
(0.0327121 0 -0.000448108)
(0.0385782 0 -0.000523382)
(0.0437059 0 -0.00058518)
(0.048196 0 -0.00063396)
(0.0521241 0 -0.000669825)
(0.0555613 0 -0.00069277)
(0.0585878 0 -0.000702825)
(0.0612788 0 -0.000700044)
(0.0637006 0 -0.000684487)
(0.0659178 0 -0.000656322)
(0.0679942 0 -0.000615958)
(0.0699925 0 -0.000564132)
(0.0719751 0 -0.000502063)
(0.0740048 0 -0.000431591)
(0.0761444 0 -0.000355324)
(0.0784569 0 -0.000276786)
(0.0810046 0 -0.000200549)
(0.0838499 0 -0.000132359)
(0.0870496 0 -7.82712e-05)
(0.0906598 0 -4.63239e-05)
(0.0947209 0 -4.56733e-05)
(0.0992481 0 -8.28969e-05)
(0.104231 0 -0.000159159)
(0.109598 0 -0.000261699)
(0.115105 0 -0.000349788)
(0.1202 0 -0.000403302)
(0.126151 0 -7.92187e-05)
(0 0 0)
(0.00971248 0 -0.000145383)
(0.0185455 0 -0.000277156)
(0.0263176 0 -0.00039218)
(0.0331425 0 -0.000491634)
(0.0391279 0 -0.000576654)
(0.0443852 0 -0.000648317)
(0.0490141 0 -0.00070727)
(0.0530923 0 -0.00075382)
(0.0566944 0 -0.00078839)
(0.0599032 0 -0.000811508)
(0.0627942 0 -0.00082355)
(0.0654344 0 -0.000825004)
(0.0678892 0 -0.000816577)
(0.0702228 0 -0.000799305)
(0.0724984 0 -0.000774661)
(0.0747784 0 -0.000744711)
(0.077125 0 -0.000712268)
(0.0795999 0 -0.00068106)
(0.082264 0 -0.000655907)
(0.0851769 0 -0.000642902)
(0.0883956 0 -0.000649568)
(0.0919773 0 -0.000684881)
(0.0959663 0 -0.000759052)
(0.100386 0 -0.000884314)
(0.105246 0 -0.00107484)
(0.110528 0 -0.00134563)
(0.11615 0 -0.00171232)
(0.121878 0 -0.00219123)
(0.127304 0 -0.00288049)
(0.139396 0 -0.00138163)
(0 0 0)
(0.00863553 0 0)
(0.0164111 0 0)
(0.0231179 0 0)
(0.0288356 0 0)
(0.0336421 0 0)
(0.0376091 0 0)
(0.0408019 0 0)
(0.0432794 0 0)
(0.0450942 0 0)
(0.0462932 0 0)
(0.046918 0 0)
(0.0470058 0 0)
(0.0465897 0 0)
(0.0457 0 0)
(0.0443647 0 0)
(0.0426108 0 0)
(0.0404655 0 0)
(0.0379574 0 0)
(0.0351182 0 0)
(0.031984 0 0)
(0.0285983 0 0)
(0.0250143 0 0)
(0.0212973 0 0)
(0.0175284 0 0)
(0.0138072 0 0)
(0.0102568 0 0)
(0.0070318 0 0)
(0.00433619 0 0)
(0.00247808 0 0)
(0 0 0)
(0 0 0)
(0.00864124 0 -7.86525e-06)
(0.0164228 0 -1.4746e-05)
(0.0231358 0 -2.02816e-05)
(0.0288599 0 -2.43873e-05)
(0.0336733 0 -2.69687e-05)
(0.0376479 0 -2.79047e-05)
(0.0408493 0 -2.7039e-05)
(0.0433364 0 -2.41738e-05)
(0.0451622 0 -1.90647e-05)
(0.0463738 0 -1.14161e-05)
(0.047013 0 -8.77533e-07)
(0.0471172 0 1.296e-05)
(0.0467199 0 3.05642e-05)
(0.0458516 0 5.2459e-05)
(0.0445407 0 7.92242e-05)
(0.0428142 0 0.000111491)
(0.0406998 0 0.000149926)
(0.0382265 0 0.000195201)
(0.0354258 0 0.000247973)
(0.0323341 0 0.000308881)
(0.0289947 0 0.000378531)
(0.0254606 0 0.000457446)
(0.0217973 0 0.000546044)
(0.018086 0 0.000644592)
(0.0144273 0 0.000753059)
(0.0109458 0 0.000870869)
(0.00779889 0 0.000996304)
(0.00519365 0 0.00112461)
(0.00343562 0 0.00124161)
(0.00134836 0 0.00142594)
(0 0 0)
(0.00865929 0 -1.58014e-05)
(0.0164586 0 -2.96361e-05)
(0.0231895 0 -4.07882e-05)
(0.0289325 0 -4.9095e-05)
(0.0337664 0 -5.43736e-05)
(0.0377636 0 -5.6389e-05)
(0.0409904 0 -5.48362e-05)
(0.0435062 0 -4.93282e-05)
(0.0453647 0 -3.9387e-05)
(0.0466137 0 -2.44341e-05)
(0.0472958 0 -3.78362e-06)
(0.047449 0 2.33654e-05)
(0.0471076 0 5.79295e-05)
(0.0463032 0 0.000100932)
(0.0450648 0 0.000153505)
(0.0434202 0 0.000216884)
(0.0413979 0 0.000292374)
(0.039028 0 0.000381283)
(0.0363425 0 0.000484855)
(0.0333773 0 0.000604291)
(0.030176 0 0.0007407)
(0.0267911 0 0.000894952)
(0.0232872 0 0.00106761)
(0.0197463 0 0.00125883)
(0.0162707 0 0.00146786)
(0.012988 0 0.00169239)
(0.0100598 0 0.00192714)
(0.00769524 0 0.00216024)
(0.00618592 0 0.00236316)
(0.0043504 0 0.00262652)
(0 0 0)
(0.00868885 0 -2.38747e-05)
(0.0165173 0 -4.48054e-05)
(0.0232778 0 -6.17319e-05)
(0.0290519 0 -7.44262e-05)
(0.0339194 0 -8.26298e-05)
(0.037954 0 -8.60067e-05)
(0.0412226 0 -8.41186e-05)
(0.0437859 0 -7.64068e-05)
(0.0456985 0 -6.21812e-05)
(0.0470093 0 -4.0605e-05)
(0.047762 0 -1.06875e-05)
(0.047996 0 2.87305e-05)
(0.047747 0 7.89772e-05)
(0.0470479 0 0.000141527)
(0.0459291 0 0.000218005)
(0.0444195 0 0.000310198)
(0.0425489 0 0.000419995)
(0.0403497 0 0.000549284)
(0.0378544 0 0.00069975)
(0.0350985 0 0.000873007)
(0.0321255 0 0.00107051)
(0.0289873 0 0.00129316)
(0.0257454 0 0.00154118)
(0.0224817 0 0.00181409)
(0.0192998 0 0.00210954)
(0.0163281 0 0.00242205)
(0.0137292 0 0.00274108)
(0.0117061 0 0.00304644)
(0.0105254 0 0.00329849)
(0.00899155 0 0.00358767)
(0 0 0)
(0.00872978 0 -3.21468e-05)
(0.0165986 0 -6.03796e-05)
(0.0233999 0 -8.33103e-05)
(0.0292171 0 -0.000100664)
(0.0341313 0 -0.000112125)
(0.0382174 0 -0.000117277)
(0.0415438 0 -0.000115569)
(0.0441725 0 -0.000106298)
(0.0461596 0 -8.85912e-05)
(0.0475554 0 -6.13912e-05)
(0.0484056 0 -2.34479e-05)
(0.0487508 0 2.67052e-05)
(0.0486285 0 9.07583e-05)
(0.0480744 0 0.000170562)
(0.0471203 0 0.000268143)
(0.0457963 0 0.000385753)
(0.0441335 0 0.00052579)
(0.0421666 0 0.00069052)
(0.0399308 0 0.000881929)
(0.0374623 0 0.001102)
(0.034804 0 0.00135232)
(0.0320073 0 0.00163347)
(0.0291303 0 0.0019451)
(0.0262478 0 0.00228543)
(0.0234584 0 0.00264949)
(0.0208907 0 0.00302806)
(0.0187055 0 0.00340506)
(0.0170935 0 0.00375283)
(0.0162927 0 0.00402526)
(0.0150587 0 0.00431762)
(0 0 0)
(0.00878164 0 -4.06734e-05)
(0.0167016 0 -7.64728e-05)
(0.0235547 0 -0.000105703)
(0.0294263 0 -0.000128067)
(0.0343995 0 -0.000143214)
(0.0385507 0 -0.000150673)
(0.04195 0 -0.000149812)
(0.0446611 0 -0.000139811)
(0.0467419 0 -0.000119661)
(0.0482447 0 -8.8125e-05)
(0.0492172 0 -4.37582e-05)
(0.0497021 0 1.51453e-05)
(0.0497384 0 9.05851e-05)
(0.0493645 0 0.000184676)
(0.0486151 0 0.000299697)
(0.0475228 0 0.000438258)
(0.0461205 0 0.000603104)
(0.0444426 0 0.000796704)
(0.0425286 0 0.00102137)
(0.040418 0 0.00127931)
(0.0381526 0 0.00157197)
(0.0357831 0 0.00189952)
(0.0333667 0 0.00226078)
(0.0309678 0 0.00265195)
(0.0286699 0 0.00306533)
(0.0265896 0 0.00348839)
(0.0248831 0 0.00389992)
(0.0237311 0 0.00426675)
(0.023341 0 0.00453972)
(0.0223993 0 0.00482616)
(0 0 0)
(0.00884385 0 -4.95025e-05)
(0.0168251 0 -9.31835e-05)
(0.0237403 0 -0.000129065)
(0.0296771 0 -0.000156858)
(0.0347208 0 -0.000176204)
(0.0389499 0 -0.000186608)
(0.0424361 0 -0.000187392)
(0.0452452 0 -0.000177654)
(0.0474375 0 -0.000156303)
(0.0490673 0 -0.000121966)
(0.0501839 0 -7.30482e-05)
(0.0508328 0 -7.74424e-06)
(0.051056 0 7.61204e-05)
(0.0508932 0 0.000180868)
(0.0503833 0 0.000308946)
(0.0495635 0 0.000463138)
(0.0484686 0 0.00064633)
(0.0471345 0 0.00086119)
(0.045602 0 0.00111025)
(0.0439133 0 0.00139563)
(0.0421111 0 0.00171847)
(0.0402439 0 0.00207848)
(0.0383663 0 0.00247337)
(0.0365368 0 0.00289741)
(0.0348259 0 0.0033408)
(0.0333211 0 0.00378806)
(0.0321547 0 0.00421432)
(0.0315006 0 0.00458263)
(0.0315425 0 0.00484255)
(0.0308879 0 0.00511969)
(0 0 0)
(0.00891569 0 -5.86733e-05)
(0.0169677 0 -0.000110592)
(0.0239546 0 -0.000153524)
(0.0299668 0 -0.000187221)
(0.0350917 0 -0.000211349)
(0.0394101 0 -0.000225421)
(0.042996 0 -0.00022876)
(0.0459172 0 -0.000220406)
(0.048236 0 -0.00019921)
(0.0500087 0 -0.000163787)
(0.0512873 0 -0.000112462)
(0.0521213 0 -4.34081e-05)
(0.0525565 0 4.55478e-05)
(0.0526344 0 0.000156855)
(0.0523972 0 0.000293071)
(0.0518858 0 0.000456974)
(0.0511386 0 0.000651432)
(0.0501949 0 0.000879183)
(0.0490965 0 0.0011427)
(0.0478867 0 0.00144387)
(0.0466099 0 0.00178347)
(0.0453126 0 0.00216062)
(0.0440441 0 0.00257199)
(0.0428561 0 0.00301066)
(0.0418071 0 0.00346501)
(0.0409594 0 0.00391741)
(0.0404026 0 0.00434123)
(0.0402872 0 0.00469734)
(0.0407815 0 0.00493447)
(0.0404204 0 0.00519842)
(0 0 0)
(0.00899631 0 -6.82145e-05)
(0.0171278 0 -0.000128756)
(0.0241951 0 -0.000179175)
(0.0302918 0 -0.000219295)
(0.0355075 0 -0.00024884)
(0.0399258 0 -0.000267368)
(0.0436218 0 -0.000274201)
(0.0466654 0 -0.000268405)
(0.0491221 0 -0.000248839)
(0.051052 0 -0.000214191)
(0.0525103 0 -0.00016285)
(0.0535496 0 -9.29767e-05)
(0.0542184 0 -2.46549e-06)
(0.0545617 0 0.000111081)
(0.054625 0 0.00025016)
(0.0544522 0 0.000417414)
(0.0540859 0 0.000615534)
(0.0535689 0 0.000847094)
(0.0529448 0 0.00111436)
(0.0522596 0 0.00141887)
(0.0515594 0 0.00176094)
(0.0508896 0 0.00213915)
(0.0502945 0 0.00254945)
(0.0498163 0 0.00298414)
(0.0494958 0 0.00343064)
(0.0493733 0 0.00387032)
(0.0494959 0 0.00427625)
(0.0499727 0 0.0046085)
(0.0509448 0 0.00481495)
(0.0508913 0 0.00506579)
(0 0 0)
(0.00908472 0 -7.81434e-05)
(0.0173034 0 -0.000147714)
(0.024459 0 -0.000206075)
(0.0306484 0 -0.000253168)
(0.0359634 0 -0.000288802)
(0.0404887 0 -0.000312562)
(0.0443016 0 -0.000323813)
(0.0474766 0 -0.000321811)
(0.0500834 0 -0.00030552)
(0.0521844 0 -0.000273676)
(0.0538377 0 -0.000224785)
(0.0550986 0 -0.000157136)
(0.056018 0 -6.87575e-05)
(0.0566446 0 4.25719e-05)
(0.057028 0 0.000179091)
(0.0572159 0 0.000343136)
(0.0572549 0 0.000537037)
(0.0571911 0 0.000762988)
(0.0570698 0 0.00102294)
(0.0569412 0 0.00131794)
(0.056855 0 0.00164777)
(0.0568559 0 0.00201051)
(0.0569854 0 0.00240168)
(0.0572757 0 0.00281346)
(0.0577499 0 0.00323334)
(0.058421 0 0.0036429)
(0.0592953 0 0.00401629)
(0.0604283 0 0.00431357)
(0.0619112 0 0.0044813)
(0.0622001 0 0.00471741)
(0 0 0)
(0.00917982 0 -8.84658e-05)
(0.0174922 0 -0.000167477)
(0.0247432 0 -0.000234246)
(0.0310326 0 -0.000288878)
(0.036452 0 -0.000331237)
(0.0410879 0 -0.000360961)
(0.0450247 0 -0.000377666)
(0.0483421 0 -0.000380824)
(0.0511099 0 -0.000369485)
(0.0533925 0 -0.000342497)
(0.0552507 0 -0.000298496)
(0.0567419 0 -0.000235965)
(0.0579211 0 -0.000153287)
(0.0588415 0 -4.85832e-05)
(0.0595567 0 8.00268e-05)
(0.0601177 0 0.000234398)
(0.0605753 0 0.000416296)
(0.0609799 0 0.000627247)
(0.0613806 0 0.000868643)
(0.0618296 0 0.00114112)
(0.0623768 0 0.001444)
(0.0630726 0 0.00177468)
(0.0639602 0 0.00212837)
(0.0650631 0 0.00249777)
(0.0663888 0 0.00287163)
(0.0679238 0 0.00323325)
(0.069632 0 0.00355923)
(0.0714977 0 0.00381046)
(0.0735327 0 0.00393129)
(0.0742276 0 0.00413822)
(0 0 0)
(0.00928041 0 -9.91745e-05)
(0.0176919 0 -0.000188031)
(0.0250441 0 -0.000263666)
(0.0314379 0 -0.000326352)
(0.0369636 0 -0.000376013)
(0.041715 0 -0.000412522)
(0.0457852 0 -0.000435813)
(0.0492533 0 -0.000445505)
(0.0521885 0 -0.000440718)
(0.0546574 0 -0.000420445)
(0.056724 0 -0.000383631)
(0.0584484 0 -0.000329008)
(0.0598904 0 -0.000255403)
(0.0611084 0 -0.000161488)
(0.062158 0 -4.58369e-05)
(0.0630939 0 9.27893e-05)
(0.0639712 0 0.000255416)
(0.064845 0 0.000442702)
(0.0657717 0 0.000654993)
(0.0668025 0 0.000892283)
(0.0679857 0 0.00115362)
(0.0693806 0 0.00143579)
(0.0710351 0 0.00173355)
(0.07297 0 0.00204039)
(0.075184 0 0.00234741)
(0.0776434 0 0.00264156)
(0.080275 0 0.00290396)
(0.0829669 0 0.00309936)
(0.0856086 0 0.00316896)
(0.0868079 0 0.00333604)
(0 0 0)
(0.00938518 0 -0.00011025)
(0.0178996 0 -0.000209335)
(0.0253564 0 -0.00029426)
(0.0318565 0 -0.000365451)
(0.0374917 0 -0.000423035)
(0.0423654 0 -0.000467216)
(0.0465748 0 -0.000498127)
(0.0501972 0 -0.000515546)
(0.0533011 0 -0.000518764)
(0.0559562 0 -0.000506934)
(0.0582316 0 -0.000479454)
(0.0601914 0 -0.000435508)
(0.0618977 0 -0.000374283)
(0.0634116 0 -0.000295018)
(0.0647912 0 -0.000196933)
(0.0660948 0 -7.95282e-05)
(0.0673812 0 5.73469e-05)
(0.0687098 0 0.000213373)
(0.0701413 0 0.00038765)
(0.0717304 0 0.000578834)
(0.0735321 0 0.000784978)
(0.0756045 0 0.00100289)
(0.0779987 0 0.00122683)
(0.0807454 0 0.00145038)
(0.083843 0 0.00166759)
(0.0872518 0 0.00187112)
(0.0908747 0 0.00205062)
(0.0944988 0 0.00218155)
(0.0978404 0 0.00220361)
(0.099762 0 0.00233588)
(0 0 0)
(0.00949283 0 -0.00012166)
(0.0181126 0 -0.000231324)
(0.0256748 0 -0.000325926)
(0.0322827 0 -0.000406083)
(0.0380321 0 -0.000472229)
(0.0430319 0 -0.000524874)
(0.0473821 0 -0.000564308)
(0.0511584 0 -0.000590467)
(0.0544295 0 -0.000602955)
(0.0572706 0 -0.000601298)
(0.0597556 0 -0.000585252)
(0.0619499 0 -0.000554472)
(0.0639169 0 -0.000508586)
(0.065719 0 -0.000447388)
(0.0674172 0 -0.000370852)
(0.0690727 0 -0.000279323)
(0.0707467 0 -0.000173627)
(0.0725014 0 -5.51988e-05)
(0.0743991 0 7.37978e-05)
(0.0765004 0 0.000210397)
(0.0788681 0 0.000350752)
(0.0815556 0 0.000491089)
(0.084618 0 0.000624991)
(0.0880981 0 0.00074513)
(0.0920017 0 0.000847314)
(0.0963006 0 0.000930216)
(0.100899 0 0.000996999)
(0.105532 0 0.00104748)
(0.10972 0 0.00103354)
(0.112924 0 0.00117603)
(0 0 0)
(0.00960207 0 -0.000133362)
(0.0183282 0 -0.000253913)
(0.0259957 0 -0.000358543)
(0.0327121 0 -0.000448108)
(0.0385782 0 -0.000523382)
(0.0437059 0 -0.00058518)
(0.048196 0 -0.00063396)
(0.0521241 0 -0.000669825)
(0.0555613 0 -0.00069277)
(0.0585878 0 -0.000702825)
(0.0612788 0 -0.000700044)
(0.0637006 0 -0.000684487)
(0.0659178 0 -0.000656322)
(0.0679942 0 -0.000615958)
(0.0699925 0 -0.000564132)
(0.0719751 0 -0.000502063)
(0.0740048 0 -0.000431591)
(0.0761444 0 -0.000355324)
(0.0784569 0 -0.000276786)
(0.0810046 0 -0.000200549)
(0.0838499 0 -0.000132359)
(0.0870496 0 -7.82712e-05)
(0.0906598 0 -4.63239e-05)
(0.0947209 0 -4.56733e-05)
(0.0992481 0 -8.28969e-05)
(0.104231 0 -0.000159159)
(0.109598 0 -0.000261699)
(0.115105 0 -0.000349788)
(0.1202 0 -0.000403302)
(0.126151 0 -7.92187e-05)
(0 0 0)
(0.00971248 0 -0.000145383)
(0.0185455 0 -0.000277156)
(0.0263176 0 -0.00039218)
(0.0331425 0 -0.000491634)
(0.0391279 0 -0.000576654)
(0.0443852 0 -0.000648317)
(0.0490141 0 -0.00070727)
(0.0530923 0 -0.00075382)
(0.0566944 0 -0.00078839)
(0.0599032 0 -0.000811508)
(0.0627942 0 -0.00082355)
(0.0654344 0 -0.000825004)
(0.0678892 0 -0.000816577)
(0.0702228 0 -0.000799305)
(0.0724984 0 -0.000774661)
(0.0747784 0 -0.000744711)
(0.077125 0 -0.000712268)
(0.0795999 0 -0.00068106)
(0.082264 0 -0.000655907)
(0.0851769 0 -0.000642902)
(0.0883956 0 -0.000649568)
(0.0919773 0 -0.000684881)
(0.0959663 0 -0.000759052)
(0.100386 0 -0.000884314)
(0.105246 0 -0.00107484)
(0.110528 0 -0.00134563)
(0.11615 0 -0.00171232)
(0.121878 0 -0.00219123)
(0.127304 0 -0.00288049)
(0.139396 0 -0.00138163)
(0 0 0)
(0.00284129 0 0)
(0.00536914 0 0)
(0.00925569 0 0)
(0.0141615 0 0)
(0.0197397 0 0)
(0.0256583 0 0)
(0.0316229 0 0)
(0.0373926 0 0)
(0.0427872 0 0)
(0.0476832 0 0)
(0.0520025 0 0)
(0.0556991 0 0)
(0.058748 0 0)
(0.0611378 0 0)
(0.0628649 0 0)
(0.0639283 0 0)
(0.0643261 0 0)
(0.0640531 0 0)
(0.0630996 0 0)
(0.0614508 0 0)
(0.0590863 0 0)
(0.0559801 0 0)
(0.0521008 0 0)
(0.0474117 0 0)
(0.0418716 0 0)
(0.0354354 0 0)
(0.0280549 0 0)
(0.0196803 0 0)
(0.0102569 0 0)
(0 0 0)
(0.00128967 0 -0.00152178)
(0.00379405 0 -0.00146377)
(0.00630139 0 -0.00147782)
(0.0101556 0 -0.00148805)
(0.0150208 0 -0.00149495)
(0.0205492 0 -0.00149434)
(0.0264088 0 -0.00148224)
(0.0323067 0 -0.00145668)
(0.0380049 0 -0.00141748)
(0.0433268 0 -0.00136599)
(0.0481525 0 -0.00130476)
(0.0524066 0 -0.001237)
(0.0560443 0 -0.00116566)
(0.0590408 0 -0.00109275)
(0.0613848 0 -0.00101976)
(0.0630723 0 -0.000947708)
(0.0641019 0 -0.000877404)
(0.064471 0 -0.000809348)
(0.0641739 0 -0.000743644)
(0.0632 0 -0.000680231)
(0.0615341 0 -0.000618929)
(0.0591553 0 -0.000559414)
(0.0560371 0 -0.000501253)
(0.0521476 0 -0.000443912)
(0.0474498 0 -0.000386772)
(0.0419022 0 -0.000329113)
(0.0354594 0 -0.000270102)
(0.0280728 0 -0.000208766)
(0.0196923 0 -0.000143961)
(0.010263 0 -7.42885e-05)
(0 0 0)
(0.0041814 0 -0.00291358)
(0.00654394 0 -0.0028818)
(0.00902827 0 -0.00292411)
(0.0128097 0 -0.00295621)
(0.0175659 0 -0.0029767)
(0.0229523 0 -0.00297843)
(0.0286384 0 -0.00295472)
(0.0343383 0 -0.00290297)
(0.0398234 0 -0.00282358)
(0.0449284 0 -0.00271956)
(0.0495447 0 -0.00259631)
(0.0536049 0 -0.00246055)
(0.057068 0 -0.00231836)
(0.0599092 0 -0.00217334)
(0.0621171 0 -0.0020283)
(0.0636869 0 -0.00188516)
(0.0646159 0 -0.00174553)
(0.0649001 0 -0.00161044)
(0.0645311 0 -0.00147999)
(0.0634969 0 -0.00135403)
(0.0617803 0 -0.00123223)
(0.059359 0 -0.00111394)
(0.0562051 0 -0.000998295)
(0.0522854 0 -0.000884231)
(0.0475619 0 -0.000770518)
(0.0419921 0 -0.000655728)
(0.0355297 0 -0.000538207)
(0.0281252 0 -0.000416023)
(0.0197276 0 -0.000286899)
(0.010281 0 -0.000148054)
(0 0 0)
(0.00867063 0 -0.00422878)
(0.0108981 0 -0.0042498)
(0.0133939 0 -0.00433367)
(0.0170939 0 -0.00439928)
(0.0216949 0 -0.00444005)
(0.026861 0 -0.0044465)
(0.0322671 0 -0.00441005)
(0.0376394 0 -0.00432817)
(0.0427718 0 -0.00420453)
(0.0475226 0 -0.00404578)
(0.0518013 0 -0.00386046)
(0.0555505 0 -0.00365773)
(0.0587316 0 -0.00344583)
(0.061321 0 -0.00323025)
(0.0633083 0 -0.00301503)
(0.064687 0 -0.00280263)
(0.0654528 0 -0.00259554)
(0.065599 0 -0.00239544)
(0.0651134 0 -0.00220208)
(0.0639808 0 -0.00201526)
(0.0621818 0 -0.00183454)
(0.0596912 0 -0.00165891)
(0.056479 0 -0.00148709)
(0.0525101 0 -0.00131751)
(0.0477447 0 -0.00114833)
(0.0421386 0 -0.00097744)
(0.0356441 0 -0.000802392)
(0.0282105 0 -0.000620315)
(0.019785 0 -0.000427826)
(0.0103104 0 -0.000220793)
(0 0 0)
(0.014553 0 -0.00552171)
(0.016694 0 -0.00559439)
(0.0192342 0 -0.00572308)
(0.0228561 0 -0.00582552)
(0.0272698 0 -0.0058873)
(0.0321415 0 -0.00589481)
(0.0371567 0 -0.00583882)
(0.0420741 0 -0.00571922)
(0.0467265 0 -0.00554492)
(0.0510034 0 -0.00532816)
(0.0548329 0 -0.00508075)
(0.0581662 0 -0.00481291)
(0.0609684 0 -0.0045334)
(0.0632206 0 -0.00424988)
(0.0649128 0 -0.00396765)
(0.0660371 0 -0.00368986)
(0.0665856 0 -0.00341907)
(0.0665468 0 -0.00315706)
(0.0659039 0 -0.00290344)
(0.0646386 0 -0.00265815)
(0.062728 0 -0.00242082)
(0.0601437 0 -0.00218994)
(0.0568525 0 -0.00196386)
(0.0528167 0 -0.00174049)
(0.0479941 0 -0.00151746)
(0.0423387 0 -0.00129197)
(0.0358005 0 -0.00106083)
(0.0283271 0 -0.00082026)
(0.0198636 0 -0.000565804)
(0.0103505 0 -0.000292026)
(0 0 0)
(0.021694 0 -0.00683048)
(0.0237822 0 -0.00694493)
(0.0263909 0 -0.007114)
(0.0299361 0 -0.00724764)
(0.0341219 0 -0.00732179)
(0.0386105 0 -0.00731777)
(0.0431245 0 -0.00722963)
(0.0474782 0 -0.00706368)
(0.0515452 0 -0.00683331)
(0.0552452 0 -0.00655494)
(0.0585255 0 -0.00624347)
(0.0613499 0 -0.00591085)
(0.0636917 0 -0.00556652)
(0.0655356 0 -0.00521879)
(0.0668714 0 -0.00487378)
(0.0676892 0 -0.00453569)
(0.0679752 0 -0.00420638)
(0.0677116 0 -0.00388685)
(0.0668782 0 -0.00357725)
(0.0654515 0 -0.00327734)
(0.0634044 0 -0.00298641)
(0.0607047 0 -0.00270293)
(0.0573162 0 -0.00242506)
(0.0531978 0 -0.00215016)
(0.0483045 0 -0.00187535)
(0.0425877 0 -0.00159721)
(0.0359954 0 -0.00131182)
(0.0284724 0 -0.00101456)
(0.0199616 0 -0.000699953)
(0.0104006 0 -0.000361302)
(0 0 0)
(0.0299753 0 -0.00818049)
(0.0320329 0 -0.00832392)
(0.0347175 0 -0.00852381)