/*--------------------------------*- C++ -*----------------------------------*\
| =========                 |                                                 |
| \\      /  F ield         | OpenFOAM: The Open Source CFD Toolbox           |
|  \\    /   O peration     | Version:  dev                                   |
|   \\  /    A nd           | Web:      www.OpenFOAM.org                      |
|    \\/     M anipulation  |                                                 |
\*---------------------------------------------------------------------------*/
FoamFile
{
    version     2.0;
    format      ascii;
    class       pointVectorField;
    location    "4.91";
    object      pointDisplacement;
}
// * * * * * * * * * * * * * * * * * * * * * * * * * * * * * * * * * * * * * //

dimensions      [0 1 0 0 0 0 0];

internalField   nonuniform List<vector> 
1034
(
(0 0 0)
(0.021799 0 -0.00180325)
(0.0414177 0 -0.00344485)
(0 0 0)
(0.021799 0 -0.00180325)
(0.0414177 0 -0.00344485)
(0 0 0)
(0.0220776 0 -0.00191389)
(0.0419764 0 -0.0036587)
(0.0592841 0 -0.00521577)
(0 0 0)
(0.0223653 0 -0.0020239)
(0.0425513 0 -0.00387144)
(0.0601496 0 -0.00552349)
(0.075516 0 -0.00702198)
(0 0 0)
(0.0226577 0 -0.00213212)
(0.0431347 0 -0.00408089)
(0.0610275 0 -0.0058269)
(0.0767002 0 -0.00741476)
(0.0904794 0 -0.00887987)
(0 0 0)
(0.0229513 0 -0.00223765)
(0.04372 0 -0.00428535)
(0.0619083 0 -0.00612355)
(0.077889 0 -0.00779957)
(0.091992 0 -0.00935082)
(0.104507 0 -0.0108067)
(0 0 0)
(0.0232424 0 -0.00233949)
(0.0442997 0 -0.0044829)
(0.0627808 0 -0.00641062)
(0.079069 0 -0.00817284)
(0.0934982 0 -0.00980914)
(0.106359 0 -0.0113507)
(0.117909 0 -0.0128227)
(0 0 0)
(0.0235275 0 -0.00243661)
(0.0448664 0 -0.00467147)
(0.0636338 0 -0.00668527)
(0.0802275 0 -0.00853123)
(0.0949832 0 -0.0102508)
(0.108183 0 -0.0118756)
(0.120079 0 -0.013431)
(0.130915 0 -0.014941)
(0.140917 0 -0.0164282)
(0 0 0)
(0.0238038 0 -0.00252795)
(0.0454196 0 -0.00484954)
(0.064467 0 -0.00694541)
(0.0813548 0 -0.00887126)
(0.0964269 0 -0.0106706)
(0.109954 0 -0.012375)
(0.122183 0 -0.0140105)
(0.133369 0 -0.0156039)
(0.143736 0 -0.0171784)
(0.153441 0 -0.0187482)
(0 0 0)
(0.0240685 0 -0.00261248)
(0.0459537 0 -0.00501508)
(0.065274 0 -0.0071879)
(0.0824438 0 -0.00918888)
(0.097816 0 -0.0110634)
(0.111652 0 -0.0128428)
(0.124197 0 -0.0145539)
(0.135711 0 -0.0162254)
(0.146409 0 -0.0178804)
(0.156442 0 -0.0195323)
(0.165975 0 -0.021199)
(0.175177 0 -0.0229009)
(0 0 0)
(0.0243176 0 -0.00268898)
(0.0464554 0 -0.00516507)
(0.0660392 0 -0.0074089)
(0.0834859 0 -0.00948008)
(0.0991371 0 -0.0114235)
(0.113255 0 -0.013271)
(0.126094 0 -0.0150519)
(0.13791 0 -0.0167954)
(0.148901 0 -0.0185222)
(0.159217 0 -0.0202466)
(0.169023 0 -0.0219869)
(0.178467 0 -0.0237603)
(0.18766 0 -0.025579)
(0.196706 0 -0.027457)
(0 0 0)
(0.024548 0 -0.00275617)
(0.0469243 0 -0.00529771)
(0.0667596 0 -0.00760562)
(0.0844618 0 -0.00973929)
(0.100364 0 -0.0117434)
(0.114739 0 -0.0136517)
(0.127847 0 -0.0154953)
(0.139927 0 -0.0173014)
(0.151164 0 -0.019089)
(0.161714 0 -0.0208741)
(0.171732 0 -0.0226736)
(0.18135 0 -0.0245021)
(0.190675 0 -0.0263711)
(0.199799 0 -0.0282923)
(0.208798 0 -0.0302752)
(0 0 0)
(0.0247541 0 -0.00281236)
(0.0473487 0 -0.00540956)
(0.0674121 0 -0.00777206)
(0.0853388 0 -0.00995826)
(0.101465 0 -0.012014)
(0.116073 0 -0.0139748)
(0.129416 0 -0.0158713)
(0.141715 0 -0.0177283)
(0.153153 0 -0.0195653)
(0.163887 0 -0.0213984)
(0.174061 0 -0.0232428)
(0.183797 0 -0.0251113)
(0.193193 0 -0.0270142)
(0.202335 0 -0.0289608)
(0.211285 0 -0.0309581)
(0.220087 0 -0.0330109)
(0.228765 0 -0.0351216)
(0 0 0)
(0.0249264 0 -0.00285511)
(0.0477061 0 -0.0054954)
(0.067965 0 -0.00790072)
(0.0860889 0 -0.010129)
(0.102414 0 -0.0122265)
(0.117223 0 -0.0142295)
(0.130762 0 -0.0161674)
(0.143241 0 -0.0180642)
(0.154841 0 -0.019939)
(0.165716 0 -0.0218076)
(0.175998 0 -0.0236834)
(0.185801 0 -0.0255775)
(0.195219 0 -0.0274989)
(0.204326 0 -0.0294545)
(0.213178 0 -0.0314491)
(0.221812 0 -0.0334852)
(0.230249 0 -0.0355629)
(0.238489 0 -0.0376793)
(0.246511 0 -0.0398272)
(0 0 0)
(0.0250585 0 -0.00288245)
(0.0479864 0 -0.00555164)
(0.0684072 0 -0.00798697)
(0.0866987 0 -0.0102456)
(0.103194 0 -0.0123738)
(0.118171 0 -0.0144074)
(0.13187 0 -0.0163752)
(0.144494 0 -0.0183003)
(0.156219 0 -0.020201)
(0.167191 0 -0.0220922)
(0.177538 0 -0.0239858)
(0.187366 0 -0.0258916)
(0.196761 0 -0.0278168)
(0.205792 0 -0.0297664)
(0.214509 0 -0.0317431)
(0.222943 0 -0.0337473)
(0.231117 0 -0.0357786)
(0.239035 0 -0.0378332)
(0.246671 0 -0.0399009)
(0.253993 0 -0.0419701)
(0.260969 0 -0.0440298)
(0 0 0)
(0.0251478 0 -0.00289298)
(0.0481851 0 -0.00557564)
(0.0687332 0 -0.008027)
(0.0871607 0 -0.0103032)
(0.103794 0 -0.0124497)
(0.118908 0 -0.0145018)
(0.132733 0 -0.0164874)
(0.145467 0 -0.0184284)
(0.15728 0 -0.0203424)
(0.168313 0 -0.0222432)
(0.178686 0 -0.0241414)
(0.188501 0 -0.0260452)
(0.197838 0 -0.0279603)
(0.20676 0 -0.0298903)
(0.215314 0 -0.0318361)
(0.223531 0 -0.0337969)
(0.231436 0 -0.0357719)
(0.239029 0 -0.0377551)
(0.246286 0 -0.0397351)
(0.253184 0 -0.0417007)
(0.259699 0 -0.0436407)
(0 0 0)
(0.0251927 0 -0.00288539)
(0.0482994 0 -0.00556485)
(0.0689393 0 -0.00801714)
(0.08747 0 -0.0102969)
(0.104211 0 -0.0124484)
(0.119428 0 -0.014506)
(0.133347 0 -0.0164964)
(0.146159 0 -0.0184406)
(0.158026 0 -0.0203551)
(0.169086 0 -0.0222524)
(0.179452 0 -0.0241419)
(0.189222 0 -0.0260306)
(0.19847 0 -0.0279226)
(0.207261 0 -0.0298207)
(0.21564 0 -0.0317254)
(0.223635 0 -0.0336341)
(0.231266 0 -0.0355435)
(0.238531 0 -0.0374464)
(0.245419 0 -0.0393327)
(0.251917 0 -0.0411925)
(0.258008 0 -0.0430148)
(0 0 0)
(0.0251927 0 -0.00285847)
(0.0483285 0 -0.00551692)
(0.0690242 0 -0.00795389)
(0.0876249 0 -0.010222)
(0.104441 0 -0.0123642)
(0.119733 0 -0.0144137)
(0.133716 0 -0.0163955)
(0.146572 0 -0.0183294)
(0.158463 0 -0.020231)
(0.169522 0 -0.0221121)
(0.179853 0 -0.0239798)
(0.189551 0 -0.0258405)
(0.198696 0 -0.0276985)
(0.207342 0 -0.0295543)
(0.215534 0 -0.0314074)
(0.223297 0 -0.0332541)
(0.230648 0 -0.0350891)
(0.237594 0 -0.0369059)
(0.244133 0 -0.0386959)
(0.250259 0 -0.0404497)
(0 0 0)
(0.0251486 0 -0.00281114)
(0.0482738 0 -0.00542966)
(0.0689897 0 -0.00783398)
(0.0876269 0 -0.0100743)
(0.104488 0 -0.012192)
(0.119825 0 -0.0142189)
(0.133845 0 -0.0161781)
(0.146717 0 -0.0180875)
(0.158604 0 -0.0199624)
(0.16964 0 -0.0218144)
(0.179919 0 -0.0236488)
(0.18953 0 -0.0254699)
(0.198554 0 -0.0272822)
(0.207041 0 -0.0290849)
(0.21503 0 -0.0308755)
(0.222554 0 -0.0326509)
(0.229631 0 -0.0344055)
(0.236274 0 -0.0361327)
(0.242486 0 -0.0378248)
(0.248269 0 -0.0394734)
(0 0 0)
(0.0250621 0 -0.00274241)
(0.0481386 0 -0.00530109)
(0.0688409 0 -0.00765448)
(0.0874808 0 -0.00984945)
(0.104355 0 -0.011926)
(0.119715 0 -0.0139151)
(0.133749 0 -0.0158376)
(0.146619 0 -0.0177089)
(0.158481 0 -0.0195435)
(0.16947 0 -0.0213526)
(0.179678 0 -0.0231408)
(0.189187 0 -0.024911)
(0.19807 0 -0.0266656)
(0.206383 0 -0.028404)
(0.214168 0 -0.0301236)
(0.221456 0 -0.0318206)
(0.228272 0 -0.0334895)
(0.234629 0 -0.0351242)
(0.240538 0 -0.0367174)
(0.246007 0 -0.0382619)
(0 0 0)
(0.0249365 0 -0.00265122)
(0.0479288 0 -0.00512907)
(0.0685877 0 -0.00741233)
(0.0872078 0 -0.00954464)
(0.104073 0 -0.0115632)
(0.119426 0 -0.0134975)
(0.133448 0 -0.015367)
(0.146295 0 -0.0171861)
(0.158117 0 -0.0189671)
(0.169036 0 -0.0207193)
(0.17915 0 -0.0224476)
(0.18854 0 -0.0241545)
(0.197276 0 -0.0258408)
(0.205414 0 -0.0275055)
(0.212996 0 -0.0291459)
(0.220058 0 -0.0307579)
(0.226624 0 -0.0323364)
(0.232715 0 -0.0338756)
(0.238345 0 -0.0353691)
(0.243526 0 -0.0368103)
(0 0 0)
(0.0247756 0 -0.00253657)
(0.0476515 0 -0.0049115)
(0.0682393 0 -0.00710433)
(0.0868196 0 -0.00915568)
(0.103656 0 -0.0110992)
(0.118975 0 -0.0129613)
(0.132957 0 -0.0147609)
(0.14576 0 -0.0165117)
(0.157521 0 -0.0182244)
(0.168359 0 -0.0199064)
(0.178369 0 -0.021562)
(0.187633 0 -0.0231934)
(0.196219 0 -0.0248005)
(0.204182 0 -0.0263821)
(0.211568 0 -0.0279352)
(0.218413 0 -0.0294558)
(0.224746 0 -0.0309392)
(0.23059 0 -0.03238)
(0.235963 0 -0.0337723)
(0.240882 0 -0.0351108)
(0 0 0)
(0.0245837 0 -0.0023979)
(0.0473146 0 -0.00464713)
(0.0678053 0 -0.00672829)
(0.0863194 0 -0.00867841)
(0.103104 0 -0.0105281)
(0.118372 0 -0.0123008)
(0.1323 0 -0.0140139)
(0.145042 0 -0.0156802)
(0.156729 0 -0.017309)
(0.167475 0 -0.0189064)
(0.177375 0 -0.0204761)
(0.186509 0 -0.0220196)
(0.194945 0 -0.0235365)
(0.202739 0 -0.0250252)
(0.209937 0 -0.0264828)
(0.216578 0 -0.0279054)
(0.222694 0 -0.0292886)
(0.22831 0 -0.0306274)
(0.233449 0 -0.0319168)
(0.238132 0 -0.0331521)
(0 0 0)
(0.0243663 0 -0.00223475)
(0.0469282 0 -0.00433493)
(0.0672999 0 -0.00628242)
(0.0857268 0 -0.00811042)
(0.102441 0 -0.00984628)
(0.117643 0 -0.0115109)
(0.131505 0 -0.01312)
(0.144174 0 -0.0146849)
(0.155778 0 -0.0162137)
(0.166427 0 -0.0177115)
(0.176214 0 -0.0191813)
(0.185219 0 -0.020624)
(0.193508 0 -0.0220392)
(0.20114 0 -0.0234248)
(0.208161 0 -0.024778)
(0.214612 0 -0.0260953)
(0.220528 0 -0.0273725)
(0.225937 0 -0.0286052)
(0.230864 0 -0.0297888)
(0.235334 0 -0.0309194)
(0 0 0)
(0.0241299 0 -0.00204653)
(0.046505 0 -0.00397357)
(0.0667409 0 -0.00576455)
(0.0850651 0 -0.00744869)
(0.101695 0 -0.00905005)
(0.116821 0 -0.010587)
(0.130607 0 -0.0120734)
(0.143197 0 -0.013519)
(0.154713 0 -0.0149308)
(0.165262 0 -0.016313)
(0.174937 0 -0.0176681)
(0.183816 0 -0.0189965)
(0.191966 0 -0.0202974)
(0.199445 0 -0.0215688)
(0.206302 0 -0.022808)
(0.212579 0 -0.0240117)
(0.218313 0 -0.0251761)
(0.223534 0 -0.0262971)
(0.228271 0 -0.0273709)
(0.232551 0 -0.0283942)
(0 0 0)
(0.0238827 0 -0.00183272)
(0.0460599 0 -0.0035619)
(0.0661495 0 -0.00517273)
(0.0843612 0 -0.00669039)
(0.100899 0 -0.0081356)
(0.115941 0 -0.00952419)
(0.129647 0 -0.0108679)
(0.142154 0 -0.0121753)
(0.153581 0 -0.0134521)
(0.164032 0 -0.0147018)
(0.173599 0 -0.0159261)
(0.182358 0 -0.0171253)
(0.190378 0 -0.0182983)
(0.197716 0 -0.0194432)
(0.204424 0 -0.0205573)
(0.210544 0 -0.0216377)
(0.216115 0 -0.0226809)
(0.221169 0 -0.0236834)
(0.225738 0 -0.0246418)
(0.22985 0 -0.0255533)
(0 0 0)
(0.0236337 0 -0.0015929)
(0.0456105 0 -0.00309885)
(0.0655505 0 -0.00450514)
(0.0836461 0 -0.0058328)
(0.100088 0 -0.00709917)
(0.115046 0 -0.00831751)
(0.128671 0 -0.00949764)
(0.141095 0 -0.0106466)
(0.152436 0 -0.011769)
(0.162794 0 -0.0128676)
(0.17226 0 -0.0139437)
(0.18091 0 -0.0149972)
(0.188812 0 -0.016027)
(0.196024 0 -0.0170313)
(0.202598 0 -0.0180076)
(0.208579 0 -0.0189532)
(0.214007 0 -0.019865)
(0.218916 0 -0.0207401)
(0.223338 0 -0.0215753)
(0.227304 0 -0.0223686)
(0 0 0)
(0.0233937 0 -0.00132669)
(0.0451769 0 -0.00258354)
(0.0649719 0 -0.00376013)
(0.0829549 0 -0.00487334)
(0.0993039 0 -0.00593712)
(0.11418 0 -0.00696211)
(0.127728 0 -0.00795619)
(0.140076 0 -0.0089249)
(0.151337 0 -0.00987191)
(0.161612 0 -0.0107993)
(0.170987 0 -0.0117078)
(0.17954 0 -0.0125972)
(0.187338 0 -0.0134665)
(0.194441 0 -0.0143139)
(0.200901 0 -0.0151372)
(0.206763 0 -0.0159341)
(0.212068 0 -0.016702)
(0.216854 0 -0.0174382)
(0.221151 0 -0.0181402)
(0.224994 0 -0.0188062)
(0 0 0)
(0.0231752 0 -0.00103379)
(0.0447825 0 -0.00201518)
(0.0644464 0 -0.00293622)
(0.0823277 0 -0.00380963)
(0.0985933 0 -0.00464592)
(0.113397 0 -0.00545314)
(0.126876 0 -0.00623718)
(0.139157 0 -0.00700219)
(0.15035 0 -0.00775085)
(0.160553 0 -0.00848459)
(0.169852 0 -0.00920389)
(0.178324 0 -0.00990838)
(0.186036 0 -0.0105971)
(0.193049 0 -0.0112685)
(0.199414 0 -0.0119209)
(0.205179 0 -0.0125523)
(0.210385 0 -0.0131604)
(0.21507 0 -0.0137432)
(0.219267 0 -0.0142987)
(0.22301 0 -0.0148254)
(0 0 0)
(0.0229929 0 -0.000714012)
(0.044455 0 -0.0013932)
(0.0640117 0 -0.0020322)
(0.0818104 0 -0.00263955)
(0.0980086 0 -0.00322231)
(0.112753 0 -0.00378588)
(0.126179 0 -0.00433422)
(0.138407 0 -0.00487007)
(0.149546 0 -0.00539519)
(0.159693 0 -0.00591046)
(0.168933 0 -0.0064161)
(0.177343 0 -0.00691177)
(0.184991 0 -0.00739669)
(0.191935 0 -0.00786973)
(0.198229 0 -0.00832955)
(0.20392 0 -0.00877466)
(0.209052 0 -0.00920351)
(0.213661 0 -0.00961455)
(0.217782 0 -0.0100063)
(0.221451 0 -0.0103777)
(0 0 0)
(0.0228658 0 -0.00036731)
(0.0442283 0 -0.000717293)
(0.0637129 0 -0.00104726)
(0.0814566 0 -0.00136149)
(0.09761 0 -0.00166356)
(0.112316 0 -0.00195618)
(0.125706 0 -0.00224134)
(0.1379 0 -0.00252043)
(0.149004 0 -0.0027943)
(0.159115 0 -0.00306337)
(0.168317 0 -0.00332771)
(0.176688 0 -0.00358709)
(0.184293 0 -0.00384108)
(0.191194 0 -0.00408904)
(0.197443 0 -0.00433024)
(0.203088 0 -0.00456385)
(0.208172 0 -0.00478904)
(0.212734 0 -0.00500495)
(0.216807 0 -0.00521078)
(0.220429 0 -0.00540594)
(0 0 0)
(0.0228276 0 0)
(0.0441534 0 0)
(0.0636113 0 0)
(0.0813345 0 0)
(0.0974713 0 0)
(0.112163 0 0)
(0.12554 0 0)
(0.137721 0 0)
(0.148812 0 0)
(0.15891 0 0)
(0.168099 0 0)
(0.176455 0 0)
(0.184046 0 0)
(0.190932 0 0)
(0.197165 0 0)
(0.202793 0 0)
(0.207861 0 0)
(0.212405 0 0)
(0.216462 0 0)
(0.220067 0 0)
(0 0 0)
(0.0220776 0 -0.00191389)
(0.0419764 0 -0.0036587)
(0.0592841 0 -0.00521577)
(0 0 0)
(0.0223653 0 -0.0020239)
(0.0425513 0 -0.00387144)
(0.0601496 0 -0.00552349)
(0.075516 0 -0.00702198)
(0 0 0)
(0.0226577 0 -0.00213212)
(0.0431347 0 -0.00408089)
(0.0610275 0 -0.0058269)
(0.0767002 0 -0.00741476)
(0.0904794 0 -0.00887987)
(0 0 0)
(0.0229513 0 -0.00223765)
(0.04372 0 -0.00428535)
(0.0619083 0 -0.00612355)
(0.077889 0 -0.00779957)
(0.091992 0 -0.00935082)
(0.104507 0 -0.0108067)
(0 0 0)
(0.0232424 0 -0.00233949)
(0.0442997 0 -0.0044829)
(0.0627808 0 -0.00641062)
(0.079069 0 -0.00817284)
(0.0934982 0 -0.00980914)
(0.106359 0 -0.0113507)
(0.117909 0 -0.0128227)
(0 0 0)
(0.0235275 0 -0.00243661)
(0.0448664 0 -0.00467147)
(0.0636338 0 -0.00668527)
(0.0802275 0 -0.00853123)
(0.0949832 0 -0.0102508)
(0.108183 0 -0.0118756)
(0.120079 0 -0.013431)
(0.130915 0 -0.014941)
(0.140917 0 -0.0164282)
(0 0 0)
(0.0238038 0 -0.00252795)
(0.0454196 0 -0.00484954)
(0.064467 0 -0.00694541)
(0.0813548 0 -0.00887126)
(0.0964269 0 -0.0106706)
(0.109954 0 -0.012375)
(0.122183 0 -0.0140105)
(0.133369 0 -0.0156039)
(0.143736 0 -0.0171784)
(0.153441 0 -0.0187482)
(0 0 0)
(0.0240685 0 -0.00261248)
(0.0459537 0 -0.00501508)
(0.065274 0 -0.0071879)
(0.0824438 0 -0.00918888)
(0.097816 0 -0.0110634)
(0.111652 0 -0.0128428)
(0.124197 0 -0.0145539)
(0.135711 0 -0.0162254)
(0.146409 0 -0.0178804)
(0.156442 0 -0.0195323)
(0.165975 0 -0.021199)
(0.175177 0 -0.0229009)
(0 0 0)
(0.0243176 0 -0.00268898)
(0.0464554 0 -0.00516507)
(0.0660392 0 -0.0074089)
(0.0834859 0 -0.00948008)
(0.0991371 0 -0.0114235)
(0.113255 0 -0.013271)
(0.126094 0 -0.0150519)
(0.13791 0 -0.0167954)
(0.148901 0 -0.0185222)
(0.159217 0 -0.0202466)
(0.169023 0 -0.0219869)
(0.178467 0 -0.0237603)
(0.18766 0 -0.025579)
(0.196706 0 -0.027457)
(0 0 0)
(0.024548 0 -0.00275617)
(0.0469243 0 -0.00529771)
(0.0667596 0 -0.00760562)
(0.0844618 0 -0.00973929)
(0.100364 0 -0.0117434)
(0.114739 0 -0.0136517)
(0.127847 0 -0.0154953)
(0.139927 0 -0.0173014)
(0.151164 0 -0.019089)
(0.161714 0 -0.0208741)
(0.171732 0 -0.0226736)
(0.18135 0 -0.0245021)
(0.190675 0 -0.0263711)
(0.199799 0 -0.0282923)
(0.208798 0 -0.0302752)
(0 0 0)
(0.0247541 0 -0.00281236)
(0.0473487 0 -0.00540956)
(0.0674121 0 -0.00777206)
(0.0853388 0 -0.00995826)
(0.101465 0 -0.012014)
(0.116073 0 -0.0139748)
(0.129416 0 -0.0158713)
(0.141715 0 -0.0177283)
(0.153153 0 -0.0195653)
(0.163887 0 -0.0213984)
(0.174061 0 -0.0232428)
(0.183797 0 -0.0251113)
(0.193193 0 -0.0270142)
(0.202335 0 -0.0289608)
(0.211285 0 -0.0309581)
(0.220087 0 -0.0330109)
(0.228765 0 -0.0351216)
(0 0 0)
(0.0249264 0 -0.00285511)
(0.0477061 0 -0.0054954)
(0.067965 0 -0.00790072)
(0.0860889 0 -0.010129)
(0.102414 0 -0.0122265)
(0.117223 0 -0.0142295)
(0.130762 0 -0.0161674)
(0.143241 0 -0.0180642)
(0.154841 0 -0.019939)
(0.165716 0 -0.0218076)
(0.175998 0 -0.0236834)
(0.185801 0 -0.0255775)
(0.195219 0 -0.0274989)
(0.204326 0 -0.0294545)
(0.213178 0 -0.0314491)
(0.221812 0 -0.0334852)
(0.230249 0 -0.0355629)
(0.238489 0 -0.0376793)
(0.246511 0 -0.0398272)
(0 0 0)
(0.0250585 0 -0.00288245)
(0.0479864 0 -0.00555164)
(0.0684072 0 -0.00798697)
(0.0866987 0 -0.0102456)
(0.103194 0 -0.0123738)
(0.118171 0 -0.0144074)
(0.13187 0 -0.0163752)
(0.144494 0 -0.0183003)
(0.156219 0 -0.020201)
(0.167191 0 -0.0220922)
(0.177538 0 -0.0239858)
(0.187366 0 -0.0258916)
(0.196761 0 -0.0278168)
(0.205792 0 -0.0297664)
(0.214509 0 -0.0317431)
(0.222943 0 -0.0337473)
(0.231117 0 -0.0357786)
(0.239035 0 -0.0378332)
(0.246671 0 -0.0399009)
(0.253993 0 -0.0419701)
(0.260969 0 -0.0440298)
(0 0 0)
(0.0251478 0 -0.00289298)
(0.0481851 0 -0.00557564)
(0.0687332 0 -0.008027)
(0.0871607 0 -0.0103032)
(0.103794 0 -0.0124497)
(0.118908 0 -0.0145018)
(0.132733 0 -0.0164874)
(0.145467 0 -0.0184284)
(0.15728 0 -0.0203424)
(0.168313 0 -0.0222432)
(0.178686 0 -0.0241414)
(0.188501 0 -0.0260452)
(0.197838 0 -0.0279603)
(0.20676 0 -0.0298903)
(0.215314 0 -0.0318361)
(0.223531 0 -0.0337969)
(0.231436 0 -0.0357719)
(0.239029 0 -0.0377551)
(0.246286 0 -0.0397351)
(0.253184 0 -0.0417007)
(0.259699 0 -0.0436407)
(0 0 0)
(0.0251927 0 -0.00288539)
(0.0482994 0 -0.00556485)
(0.0689393 0 -0.00801714)
(0.08747 0 -0.0102969)
(0.104211 0 -0.0124484)
(0.119428 0 -0.014506)
(0.133347 0 -0.0164964)
(0.146159 0 -0.0184406)
(0.158026 0 -0.0203551)
(0.169086 0 -0.0222524)
(0.179452 0 -0.0241419)
(0.189222 0 -0.0260306)
(0.19847 0 -0.0279226)
(0.207261 0 -0.0298207)
(0.21564 0 -0.0317254)
(0.223635 0 -0.0336341)
(0.231266 0 -0.0355435)
(0.238531 0 -0.0374464)
(0.245419 0 -0.0393327)
(0.251917 0 -0.0411925)
(0.258008 0 -0.0430148)
(0 0 0)
(0.0251927 0 -0.00285847)
(0.0483285 0 -0.00551692)
(0.0690242 0 -0.00795389)
(0.0876249 0 -0.010222)
(0.104441 0 -0.0123642)
(0.119733 0 -0.0144137)
(0.133716 0 -0.0163955)
(0.146572 0 -0.0183294)
(0.158463 0 -0.020231)
(0.169522 0 -0.0221121)
(0.179853 0 -0.0239798)
(0.189551 0 -0.0258405)
(0.198696 0 -0.0276985)
(0.207342 0 -0.0295543)
(0.215534 0 -0.0314074)
(0.223297 0 -0.0332541)
(0.230648 0 -0.0350891)
(0.237594 0 -0.0369059)
(0.244133 0 -0.0386959)
(0.250259 0 -0.0404497)
(0 0 0)
(0.0251486 0 -0.00281114)
(0.0482738 0 -0.00542966)
(0.0689897 0 -0.00783398)
(0.0876269 0 -0.0100743)
(0.104488 0 -0.012192)
(0.119825 0 -0.0142189)
(0.133845 0 -0.0161781)
(0.146717 0 -0.0180875)
(0.158604 0 -0.0199624)
(0.16964 0 -0.0218144)
(0.179919 0 -0.0236488)
(0.18953 0 -0.0254699)
(0.198554 0 -0.0272822)
(0.207041 0 -0.0290849)
(0.21503 0 -0.0308755)
(0.222554 0 -0.0326509)
(0.229631 0 -0.0344055)
(0.236274 0 -0.0361327)
(0.242486 0 -0.0378248)
(0.248269 0 -0.0394734)
(0 0 0)
(0.0250621 0 -0.00274241)
(0.0481386 0 -0.00530109)
(0.0688409 0 -0.00765448)
(0.0874808 0 -0.00984945)
(0.104355 0 -0.011926)
(0.119715 0 -0.0139151)
(0.133749 0 -0.0158376)
(0.146619 0 -0.0177089)
(0.158481 0 -0.0195435)
(0.16947 0 -0.0213526)
(0.179678 0 -0.0231408)
(0.189187 0 -0.024911)
(0.19807 0 -0.0266656)
(0.206383 0 -0.028404)
(0.214168 0 -0.0301236)
(0.221456 0 -0.0318206)
(0.228272 0 -0.0334895)
(0.234629 0 -0.0351242)
(0.240538 0 -0.0367174)
(0.246007 0 -0.0382619)
(0 0 0)
(0.0249365 0 -0.00265122)
(0.0479288 0 -0.00512907)
(0.0685877 0 -0.00741233)
(0.0872078 0 -0.00954464)
(0.104073 0 -0.0115632)
(0.119426 0 -0.0134975)
(0.133448 0 -0.015367)
(0.146295 0 -0.0171861)
(0.158117 0 -0.0189671)
(0.169036 0 -0.0207193)
(0.17915 0 -0.0224476)
(0.18854 0 -0.0241545)
(0.197276 0 -0.0258408)
(0.205414 0 -0.0275055)
(0.212996 0 -0.0291459)
(0.220058 0 -0.0307579)
(0.226624 0 -0.0323364)
(0.232715 0 -0.0338756)
(0.238345 0 -0.0353691)
(0.243526 0 -0.0368103)
(0 0 0)
(0.0247756 0 -0.00253657)
(0.0476515 0 -0.0049115)
(0.0682393 0 -0.00710433)
(0.0868196 0 -0.00915568)
(0.103656 0 -0.0110992)
(0.118975 0 -0.0129613)
(0.132957 0 -0.0147609)
(0.14576 0 -0.0165117)
(0.157521 0 -0.0182244)
(0.168359 0 -0.0199064)
(0.178369 0 -0.021562)
(0.187633 0 -0.0231934)
(0.196219 0 -0.0248005)
(0.204182 0 -0.0263821)
(0.211568 0 -0.0279352)
(0.218413 0 -0.0294558)
(0.224746 0 -0.0309392)
(0.23059 0 -0.03238)
(0.235963 0 -0.0337723)
(0.240882 0 -0.0351108)
(0 0 0)
(0.0245837 0 -0.0023979)
(0.0473146 0 -0.00464713)
(0.0678053 0 -0.00672829)
(0.0863194 0 -0.00867841)
(0.103104 0 -0.0105281)
(0.118372 0 -0.0123008)
(0.1323 0 -0.0140139)
(0.145042 0 -0.0156802)
(0.156729 0 -0.017309)
(0.167475 0 -0.0189064)
(0.177375 0 -0.0204761)
(0.186509 0 -0.0220196)
(0.194945 0 -0.0235365)
(0.202739 0 -0.0250252)
(0.209937 0 -0.0264828)
(0.216578 0 -0.0279054)
(0.222694 0 -0.0292886)
(0.22831 0 -0.0306274)
(0.233449 0 -0.0319168)
(0.238132 0 -0.0331521)
(0 0 0)
(0.0243663 0 -0.00223475)
(0.0469282 0 -0.00433493)
(0.0672999 0 -0.00628242)
(0.0857268 0 -0.00811042)
(0.102441 0 -0.00984628)
(0.117643 0 -0.0115109)
(0.131505 0 -0.01312)
(0.144174 0 -0.0146849)
(0.155778 0 -0.0162137)
(0.166427 0 -0.0177115)
(0.176214 0 -0.0191813)
(0.185219 0 -0.020624)
(0.193508 0 -0.0220392)
(0.20114 0 -0.0234248)
(0.208161 0 -0.024778)
(0.214612 0 -0.0260953)
(0.220528 0 -0.0273725)
(0.225937 0 -0.0286052)
(0.230864 0 -0.0297888)
(0.235334 0 -0.0309194)
(0 0 0)
(0.0241299 0 -0.00204653)
(0.046505 0 -0.00397357)
(0.0667409 0 -0.00576455)
(0.0850651 0 -0.00744869)
(0.101695 0 -0.00905005)
(0.116821 0 -0.010587)
(0.130607 0 -0.0120734)
(0.143197 0 -0.013519)
(0.154713 0 -0.0149308)
(0.165262 0 -0.016313)
(0.174937 0 -0.0176681)
(0.183816 0 -0.0189965)
(0.191966 0 -0.0202974)
(0.199445 0 -0.0215688)
(0.206302 0 -0.022808)
(0.212579 0 -0.0240117)
(0.218313 0 -0.0251761)
(0.223534 0 -0.0262971)
(0.228271 0 -0.0273709)
(0.232551 0 -0.0283942)
(0 0 0)
(0.0238827 0 -0.00183272)
(0.0460599 0 -0.0035619)
(0.0661495 0 -0.00517273)
(0.0843612 0 -0.00669039)
(0.100899 0 -0.0081356)
(0.115941 0 -0.00952419)
(0.129647 0 -0.0108679)
(0.142154 0 -0.0121753)
(0.153581 0 -0.0134521)
(0.164032 0 -0.0147018)
(0.173599 0 -0.0159261)
(0.182358 0 -0.0171253)
(0.190378 0 -0.0182983)
(0.197716 0 -0.0194432)
(0.204424 0 -0.0205573)
(0.210544 0 -0.0216377)
(0.216115 0 -0.0226809)
(0.221169 0 -0.0236834)
(0.225738 0 -0.0246418)
(0.22985 0 -0.0255533)
(0 0 0)
(0.0236337 0 -0.0015929)
(0.0456105 0 -0.00309885)
(0.0655505 0 -0.00450514)
(0.0836461 0 -0.0058328)
(0.100088 0 -0.00709917)
(0.115046 0 -0.00831751)
(0.128671 0 -0.00949764)
(0.141095 0 -0.0106466)
(0.152436 0 -0.011769)
(0.162794 0 -0.0128676)
(0.17226 0 -0.0139437)
(0.18091 0 -0.0149972)
(0.188812 0 -0.016027)
(0.196024 0 -0.0170313)
(0.202598 0 -0.0180076)
(0.208579 0 -0.0189532)
(0.214007 0 -0.019865)
(0.218916 0 -0.0207401)
(0.223338 0 -0.0215753)
(0.227304 0 -0.0223686)
(0 0 0)
(0.0233937 0 -0.00132669)
(0.0451769 0 -0.00258354)
(0.0649719 0 -0.00376013)
(0.0829549 0 -0.00487334)
(0.0993039 0 -0.00593712)
(0.11418 0 -0.00696211)
(0.127728 0 -0.00795619)
(0.140076 0 -0.0089249)
(0.151337 0 -0.00987191)
(0.161612 0 -0.0107993)
(0.170987 0 -0.0117078)
(0.17954 0 -0.0125972)
(0.187338 0 -0.0134665)
(0.194441 0 -0.0143139)
(0.200901 0 -0.0151372)
(0.206763 0 -0.0159341)
(0.212068 0 -0.016702)
(0.216854 0 -0.0174382)
(0.221151 0 -0.0181402)
(0.224994 0 -0.0188062)
(0 0 0)
(0.0231752 0 -0.00103379)
(0.0447825 0 -0.00201518)
(0.0644464 0 -0.00293622)
(0.0823277 0 -0.00380963)
(0.0985933 0 -0.00464592)
(0.113397 0 -0.00545314)
(0.126876 0 -0.00623718)
(0.139157 0 -0.00700219)
(0.15035 0 -0.00775085)
(0.160553 0 -0.00848459)
(0.169852 0 -0.00920389)
(0.178324 0 -0.00990838)
(0.186036 0 -0.0105971)
(0.193049 0 -0.0112685)
(0.199414 0 -0.0119209)
(0.205179 0 -0.0125523)
(0.210385 0 -0.0131604)
(0.21507 0 -0.0137432)
(0.219267 0 -0.0142987)
(0.22301 0 -0.0148254)
(0 0 0)
(0.0229929 0 -0.000714012)
(0.044455 0 -0.0013932)
(0.0640117 0 -0.0020322)
(0.0818104 0 -0.00263955)
(0.0980086 0 -0.00322231)
(0.112753 0 -0.00378588)
(0.126179 0 -0.00433422)
(0.138407 0 -0.00487007)
(0.149546 0 -0.00539519)
(0.159693 0 -0.00591046)
(0.168933 0 -0.0064161)
(0.177343 0 -0.00691177)
(0.184991 0 -0.00739669)
(0.191935 0 -0.00786973)
(0.198229 0 -0.00832955)
(0.20392 0 -0.00877466)
(0.209052 0 -0.00920351)
(0.213661 0 -0.00961455)
(0.217782 0 -0.0100063)
(0.221451 0 -0.0103777)
(0 0 0)
(0.0228658 0 -0.00036731)
(0.0442283 0 -0.000717293)
(0.0637129 0 -0.00104726)
(0.0814566 0 -0.00136149)
(0.09761 0 -0.00166356)
(0.112316 0 -0.00195618)
(0.125706 0 -0.00224134)
(0.1379 0 -0.00252043)
(0.149004 0 -0.0027943)
(0.159115 0 -0.00306337)
(0.168317 0 -0.00332771)
(0.176688 0 -0.00358709)
(0.184293 0 -0.00384108)
(0.191194 0 -0.00408904)
(0.197443 0 -0.00433024)
(0.203088 0 -0.00456385)
(0.208172 0 -0.00478904)
(0.212734 0 -0.00500495)
(0.216807 0 -0.00521078)
(0.220429 0 -0.00540594)
(0 0 0)
(0.0228276 0 0)
(0.0441534 0 0)
(0.0636113 0 0)
(0.0813345 0 0)
(0.0974713 0 0)
(0.112163 0 0)
(0.12554 0 0)
(0.137721 0 0)
(0.148812 0 0)
(0.15891 0 0)
(0.168099 0 0)
(0.176455 0 0)
(0.184046 0 0)
(0.190932 0 0)
(0.197165 0 0)
(0.202793 0 0)
(0.207861 0 0)
(0.212405 0 0)
(0.216462 0 0)
(0.220067 0 0)
)
;

boundaryField
{
    inlet
    {
        type            fixedValue;
        value           uniform (0 0 0);
    }
    outlet
    {
        type            fixedValue;
        value           nonuniform 0();
    }
    flap
    {
        type            fixedValue;
        value           nonuniform 0();
    }
    upperWall
    {
        type            slip;
    }
    lowerWall
    {
        type            slip;
    }
    frontAndBack
    {
        type            empty;
    }
    procBoundary0to1
    {
        type            processor;
    }
    procBoundary0to3
    {
        type            processor;
    }
}


// ************************************************************************* //
