/*--------------------------------*- C++ -*----------------------------------*\
| =========                 |                                                 |
| \\      /  F ield         | OpenFOAM: The Open Source CFD Toolbox           |
|  \\    /   O peration     | Version:  dev                                   |
|   \\  /    A nd           | Web:      www.OpenFOAM.org                      |
|    \\/     M anipulation  |                                                 |
\*---------------------------------------------------------------------------*/
FoamFile
{
    version     2.0;
    format      ascii;
    class       pointVectorField;
    location    "4.84";
    object      pointDisplacement;
}
// * * * * * * * * * * * * * * * * * * * * * * * * * * * * * * * * * * * * * //

dimensions      [0 1 0 0 0 0 0];

internalField   nonuniform List<vector> 
5828
(
(0 0 0)
(0.0182787 0 0)
(0.0345669 0 0)
(0.0484103 0 0)
(0.0600343 0 0)
(0.0696546 0 0)
(0.0774645 0 0)
(0.0836347 0 0)
(0.0883133 0 0)
(0.0916301 0 0)
(0.0937012 0 0)
(0.0946295 0 0)
(0.0945051 0 0)
(0.0934085 0 0)
(0.0914129 0 0)
(0.0885855 0 0)
(0.0849896 0 0)
(0.0806857 0 0)
(0.0757341 0 0)
(0.0701971 0 0)
(0.0641412 0 0)
(0.0576404 0 0)
(0.0507793 0 0)
(0.0436572 0 0)
(0.0363941 0 0)
(0.0291403 0 0)
(0.0220948 0 0)
(0.0155413 0 0)
(0.00989693 0 0)
(0.0059101 0 0)
(0 0 0)
(0 0 0)
(0.0182916 0 -0.00010142)
(0.0345921 0 -0.000192978)
(0.048448 0 -0.000273167)
(0.0600853 0 -0.000343761)
(0.0697196 0 -0.000405919)
(0.0775449 0 -0.000460402)
(0.0837326 0 -0.000507782)
(0.0884309 0 -0.000548554)
(0.0917695 0 -0.000582192)
(0.0938653 0 -0.00060788)
(0.0948217 0 -0.000625156)
(0.0947291 0 -0.000633016)
(0.0936687 0 -0.000630215)
(0.091714 0 -0.000615242)
(0.0889331 0 -0.000586327)
(0.0853899 0 -0.00054136)
(0.0811458 0 -0.000477816)
(0.0762622 0 -0.000392795)
(0.0708022 0 -0.000283028)
(0.0648338 0 -0.000144873)
(0.0584326 0 2.56652e-05)
(0.0516852 0 0.000232917)
(0.0446942 0 0.000481422)
(0.0375831 0 0.000775776)
(0.0305056 0 0.00112045)
(0.0236627 0 0.00151936)
(0.0173526 0 0.00197499)
(0.0120224 0 0.002477)
(0.00844259 0 0.0029688)
(0.00353996 0 0.00368319)
(0 0 0)
(0.0183324 0 -0.000203128)
(0.0346698 0 -0.000386545)
(0.0485627 0 -0.000547253)
(0.0602395 0 -0.000688869)
(0.0699155 0 -0.000813678)
(0.0777866 0 -0.000923177)
(0.0840264 0 -0.00101849)
(0.0887829 0 -0.0011002)
(0.0921857 0 -0.00116774)
(0.0943545 0 -0.00122006)
(0.0953945 0 -0.00125589)
(0.0953966 0 -0.0012732)
(0.0944434 0 -0.00126956)
(0.0926101 0 -0.00124202)
(0.0899669 0 -0.00118719)
(0.08658 0 -0.00110102)
(0.0825133 0 -0.000978604)
(0.0778307 0 -0.00081435)
(0.0725985 0 -0.000601997)
(0.0668886 0 -0.000334621)
(0.0607814 0 -4.7081e-06)
(0.0543696 0 0.000395778)
(0.0477655 0 0.000874943)
(0.0411061 0 0.00144037)
(0.0345595 0 0.00209827)
(0.0283317 0 0.00285288)
(0.0227267 0 0.00370087)
(0.0182491 0 0.00460949)
(0.0157384 0 0.00545514)
(0.011769 0 0.00660655)
(0 0 0)
(0.0184009 0 -0.00030516)
(0.0347986 0 -0.000580656)
(0.0487526 0 -0.000822218)
(0.060495 0 -0.00103541)
(0.0702397 0 -0.00122355)
(0.078186 0 -0.00138883)
(0.0845104 0 -0.00153297)
(0.0893616 0 -0.00165619)
(0.0928717 0 -0.00175852)
(0.0951629 0 -0.00183934)
(0.0963412 0 -0.00189615)
(0.0964999 0 -0.0019259)
(0.095724 0 -0.00192518)
(0.094091 0 -0.00188973)
(0.0916748 0 -0.00181485)
(0.0885458 0 -0.00169489)
(0.0847714 0 -0.00152288)
(0.0804197 0 -0.00129098)
(0.0755622 0 -0.000990511)
(0.0702766 0 -0.000612026)
(0.0646504 0 -0.000145513)
(0.0587832 0 0.000419606)
(0.0528032 0 0.00109323)
(0.0468697 0 0.00188332)
(0.0411753 0 0.00279404)
(0.0359536 0 0.00382263)
(0.0314951 0 0.00494937)
(0.0282934 0 0.0061109)
(0.0272737 0 0.00711412)
(0.0245802 0 0.00845349)
(0 0 0)
(0.0184893 0 -0.000407212)
(0.0349733 0 -0.000774912)
(0.0490158 0 -0.00109761)
(0.0608495 0 -0.00138246)
(0.0706882 0 -0.00163409)
(0.0787375 0 -0.00185579)
(0.0851779 0 -0.00204983)
(0.0901603 0 -0.00221658)
(0.0938205 0 -0.00235629)
(0.0962818 0 -0.00246849)
(0.0976517 0 -0.00254985)
(0.0980265 0 -0.0025964)
(0.0974956 0 -0.00260411)
(0.0961388 0 -0.00256747)
(0.0940354 0 -0.002481)
(0.0912621 0 -0.00233812)
(0.0878909 0 -0.00213007)
(0.0839957 0 -0.0018474)
(0.079655 0 -0.00147987)
(0.0749544 0 -0.00101657)
(0.0699932 0 -0.000446609)
(0.0648797 0 0.000241505)
(0.0597492 0 0.00105791)
(0.0547777 0 0.00200776)
(0.0501937 0 0.00308801)
(0.046279 0 0.0042806)
(0.0433411 0 0.00554209)
(0.0417915 0 0.00678091)
(0.0425628 0 0.00774279)
(0.0412617 0 0.00907696)
(0 0 0)
(0.0185965 0 -0.000509129)
(0.0351918 0 -0.000969227)
(0.0493464 0 -0.0013733)
(0.061294 0 -0.00172989)
(0.0712534 0 -0.00204535)
(0.0794353 0 -0.00232442)
(0.0860238 0 -0.00256983)
(0.0911733 0 -0.00278253)
(0.0950229 0 -0.00296259)
(0.0976971 0 -0.00310906)
(0.0993063 0 -0.00321873)
(0.099953 0 -0.0032875)
(0.0997311 0 -0.00331078)
(0.0987247 0 -0.00328234)
(0.0970174 0 -0.00319589)
(0.0946926 0 -0.00304404)
(0.0918291 0 -0.00281722)
(0.0885081 0 -0.00250517)
(0.0848171 0 -0.00209713)
(0.0808501 0 -0.00158174)
(0.0767222 0 -0.000948844)
(0.0725621 0 -0.000189008)
(0.0685082 0 0.00070528)
(0.064739 0 0.00173452)
(0.0614969 0 0.0028864)
(0.0591103 0 0.00412219)
(0.0579469 0 0.0053677)
(0.0583549 0 0.00650722)
(0.0611174 0 0.00724974)
(0.0612181 0 0.00843792)
(0 0 0)
(0.0187286 0 -0.000610721)
(0.0354555 0 -0.00116304)
(0.0497408 0 -0.0016485)
(0.0618239 0 -0.00207761)
(0.0719305 0 -0.0024582)
(0.0802734 0 -0.00279601)
(0.0870402 0 -0.00309461)
(0.09239 0 -0.00335551)
(0.0964651 0 -0.00357882)
(0.0993914 0 -0.00376289)
(0.101285 0 -0.00390537)
(0.102256 0 -0.00400287)
(0.102403 0 -0.00405013)
(0.101815 0 -0.00404082)
(0.100581 0 -0.00396799)
(0.0987915 0 -0.00382364)
(0.0965324 0 -0.00359835)
(0.0938945 0 -0.00328201)
(0.0909776 0 -0.00286472)
(0.0878867 0 -0.00233606)
(0.0847444 0 -0.00168696)
(0.0816957 0 -0.000911763)
(0.0789057 0 -1.01742e-05)
(0.0765727 0 0.00100911)
(0.0749173 0 0.0021247)
(0.0742616 0 0.00328121)
(0.0750356 0 0.00437075)
(0.0775885 0 0.00524879)
(0.0824247 0 0.00562096)
(0.0838902 0 0.00654997)
(0 0 0)
(0.0188836 0 -0.000711932)
(0.0357614 0 -0.00135618)
(0.0501985 0 -0.00192308)
(0.0624395 0 -0.00242514)
(0.0727137 0 -0.00287154)
(0.0812407 0 -0.00326924)
(0.0882131 0 -0.00362284)
(0.0937932 0 -0.0039344)
(0.0981267 0 -0.00420429)
(0.101344 0 -0.00443105)
(0.103568 0 -0.00461281)
(0.104912 0 -0.00474654)
(0.105481 0 -0.00482707)
(0.105371 0 -0.0048484)
(0.10468 0 -0.00480363)
(0.103502 0 -0.00468492)
(0.101933 0 -0.00448359)
(0.100074 0 -0.00419038)
(0.0980399 0 -0.00379774)
(0.0959558 0 -0.00329849)
(0.0939463 0 -0.00268572)
(0.0921608 0 -0.00195765)
(0.0907852 0 -0.00112131)
(0.0900509 0 -0.000198852)
(0.0901917 0 0.000772344)
(0.0914644 0 0.00172784)
(0.0942922 0 0.00253613)
(0.0990375 0 0.00302143)
(0.105929 0 0.00291025)
(0.108731 0 0.00347501)
(0 0 0)
(0.0190603 0 -0.000812885)
(0.0361071 0 -0.0015489)
(0.0507122 0 -0.00219726)
(0.0631287 0 -0.00277226)
(0.0735919 0 -0.00328493)
(0.0823268 0 -0.00374385)
(0.0895298 0 -0.00415434)
(0.0953678 0 -0.00451924)
(0.0999909 0 -0.00483944)
(0.103535 0 -0.00511424)
(0.106128 0 -0.005342)
(0.107888 0 -0.00551987)
(0.108925 0 -0.00564353)
(0.109347 0 -0.00570785)
(0.109257 0 -0.00570659)
(0.108758 0 -0.00563279)
(0.107955 0 -0.00547932)
(0.106962 0 -0.00523911)
(0.105906 0 -0.00490696)
(0.104923 0 -0.00447909)
(0.104158 0 -0.0039547)
(0.103784 0 -0.00333948)
(0.103979 0 -0.00264597)
(0.104971 0 -0.00190519)
(0.107035 0 -0.00117505)
(0.110401 0 -0.00053334)
(0.115388 0 -0.00011713)
(0.122293 0 -0.000117847)
(0.131149 0 -0.000775921)
(0.135221 0 -0.000626216)
(0 0 0)
(0.0192571 0 -0.000913255)
(0.0364883 0 -0.00174043)
(0.0512754 0 -0.00247003)
(0.0638841 0 -0.00311855)
(0.0745575 0 -0.00369876)
(0.0835224 0 -0.00422041)
(0.0909791 0 -0.0046899)
(0.0971 0 -0.00511102)
(0.10204 0 -0.00548538)
(0.105941 0 -0.00581306)
(0.108935 0 -0.00609302)
(0.111146 0 -0.00632304)
(0.112692 0 -0.00649982)
(0.113689 0 -0.00661972)
(0.11425 0 -0.00667774)
(0.114483 0 -0.0066683)
(0.114507 0 -0.00658648)
(0.114453 0 -0.00642937)
(0.114456 0 -0.0061948)
(0.114657 0 -0.00588203)
(0.115221 0 -0.00549663)
(0.116348 0 -0.00505406)
(0.118237 0 -0.00457783)
(0.121088 0 -0.00410372)
(0.125176 0 -0.00370245)
(0.130746 0 -0.00346943)
(0.137967 0 -0.00353385)
(0.146996 0 -0.00407939)
(0.157682 0 -0.0053005)
(0.162924 0 -0.00556816)
(0 0 0)
(0.0194641 0 -0.00101246)
(0.036897 0 -0.0019302)
(0.0518854 0 -0.00274102)
(0.0647042 0 -0.00346372)
(0.0756038 0 -0.00411251)
(0.0848154 0 -0.00469818)
(0.0925453 0 -0.00522866)
(0.0989708 0 -0.00570885)
(0.104251 0 -0.00614114)
(0.108533 0 -0.00652653)
(0.111954 0 -0.00686485)
(0.114646 0 -0.00715488)
(0.116731 0 -0.00739448)
(0.11834 0 -0.00758241)
(0.119589 0 -0.00771523)
(0.120596 0 -0.00778912)
(0.121492 0 -0.00780265)
(0.122419 0 -0.00775591)
(0.123528 0 -0.00765202)
(0.124984 0 -0.0074977)
(0.126955 0 -0.00730298)
(0.12964 0 -0.00708874)
(0.133278 0 -0.00689322)
(0.138082 0 -0.00676319)
(0.144284 0 -0.00677059)
(0.152105 0 -0.0070194)
(0.161602 0 -0.00762772)
(0.172744 0 -0.00874867)
(0.185128 0 -0.0105132)
(0.191506 0 -0.0111783)
(0 0 0)
(0.0196794 0 -0.00111041)
(0.0373303 0 -0.00211827)
(0.0525373 0 -0.0030103)
(0.0655815 0 -0.00380744)
(0.0767203 0 -0.00452543)
(0.0861922 0 -0.00517616)
(0.0942117 0 -0.00576945)
(0.10096 0 -0.00631142)
(0.106599 0 -0.00680521)
(0.111282 0 -0.00725289)
(0.115152 0 -0.00765548)
(0.118345 0 -0.00801302)
(0.120996 0 -0.00832536)
(0.123239 0 -0.00859302)
(0.125198 0 -0.00881412)
(0.127004 0 -0.00898867)
(0.128806 0 -0.00912001)
(0.130745 0 -0.00921043)
(0.132981 0 -0.00926715)
(0.135708 0 -0.00930603)
(0.139116 0 -0.00934648)
(0.143395 0 -0.00941331)
(0.148799 0 -0.00955393)
(0.155581 0 -0.00983056)
(0.163921 0 -0.0103123)
(0.173998 0 -0.0110994)
(0.185795 0 -0.0122941)
(0.199058 0 -0.0139987)
(0.213049 0 -0.0162663)
(0.220728 0 -0.0172928)
(0 0 0)
(0.0199087 0 -0.00120725)
(0.0377883 0 -0.00230438)
(0.0532254 0 -0.00327715)
(0.0665061 0 -0.00414839)
(0.0778928 0 -0.00493552)
(0.0876362 0 -0.00565247)
(0.0959605 0 -0.00631064)
(0.103046 0 -0.00691693)
(0.109058 0 -0.00747545)
(0.114155 0 -0.0079896)
(0.118488 0 -0.00846183)
(0.122198 0 -0.00889365)
(0.125431 0 -0.00928783)
(0.128323 0 -0.00964587)
(0.131004 0 -0.00996807)
(0.133622 0 -0.0102591)
(0.136329 0 -0.0105253)
(0.139285 0 -0.0107753)
(0.142658 0 -0.0110209)
(0.146639 0 -0.0112819)
(0.151448 0 -0.0115891)
(0.157302 0 -0.0119789)
(0.16444 0 -0.0125015)
(0.173123 0 -0.0132279)
(0.183538 0 -0.0142322)
(0.195828 0 -0.0156038)
(0.2099 0 -0.0174149)
(0.225285 0 -0.0197008)
(0.240855 0 -0.0224285)
(0.250407 0 -0.0237995)
(0 0 0)
(0.0201492 0 -0.00130273)
(0.0382664 0 -0.002488)
(0.0539393 0 -0.00354059)
(0.0674627 0 -0.00448513)
(0.0791091 0 -0.00534149)
(0.0891375 0 -0.00612594)
(0.0977764 0 -0.00685065)
(0.105208 0 -0.00752323)
(0.111602 0 -0.00814921)
(0.117122 0 -0.00873339)
(0.121925 0 -0.00927994)
(0.126161 0 -0.00979246)
(0.12998 0 -0.0102755)
(0.13352 0 -0.010732)
(0.136926 0 -0.0111667)
(0.14035 0 -0.0115873)
(0.143947 0 -0.0120025)
(0.147889 0 -0.0124271)
(0.152364 0 -0.0128809)
(0.157561 0 -0.0133882)
(0.163696 0 -0.0139846)
(0.171023 0 -0.0147213)
(0.179769 0 -0.0156529)
(0.190183 0 -0.0168546)
(0.202488 0 -0.0184098)
(0.216795 0 -0.0203957)
(0.232967 0 -0.0228496)
(0.250375 0 -0.0257254)
(0.267546 0 -0.0288937)
(0.280376 0 -0.0306163)
(0 0 0)
(0.0203982 0 -0.0013965)
(0.0387596 0 -0.0026683)
(0.0546708 0 -0.00379923)
(0.0684421 0 -0.00481662)
(0.0803593 0 -0.00574274)
(0.0906822 0 -0.00659532)
(0.0996409 0 -0.00738742)
(0.107423 0 -0.00812774)
(0.114202 0 -0.00882332)
(0.120148 0 -0.0094803)
(0.125424 0 -0.010105)
(0.130187 0 -0.0107035)
(0.134586 0 -0.0112809)
(0.138764 0 -0.0118425)
(0.142875 0 -0.0123967)
(0.147076 0 -0.0129544)
(0.151531 0 -0.0135295)
(0.156411 0 -0.0141394)
(0.161911 0 -0.0148103)
(0.168233 0 -0.015575)
(0.175576 0 -0.016472)
(0.184195 0 -0.0175598)
(0.194324 0 -0.018904)
(0.206195 0 -0.020584)
(0.220016 0 -0.022688)
(0.235868 0 -0.0252897)
(0.253593 0 -0.028409)
(0.272489 0 -0.0319235)
(0.291123 0 -0.0356058)
(0.310444 0 -0.0376314)
(0 0 0)
(0.0206506 0 -0.00148872)
(0.0392597 0 -0.00284566)
(0.0554191 0 -0.00405438)
(0.0694501 0 -0.00514497)
(0.0816464 0 -0.00614146)
(0.0922703 0 -0.00706298)
(0.101553 0 -0.00792351)
(0.109689 0 -0.00873305)
(0.116857 0 -0.0095004)
(0.123232 0 -0.0102335)
(0.128983 0 -0.0109404)
(0.134266 0 -0.0116282)
(0.139231 0 -0.0123037)
(0.144035 0 -0.0129765)
(0.14883 0 -0.0136566)
(0.15377 0 -0.0143567)
(0.159031 0 -0.0150965)
(0.164787 0 -0.0158986)
(0.171218 0 -0.0167901)
(0.178524 0 -0.01781)
(0.186907 0 -0.019004)
(0.196591 0 -0.020433)
(0.207795 0 -0.0221693)
(0.220704 0 -0.0242949)
(0.235456 0 -0.0269003)
(0.252033 0 -0.0300664)
(0.270161 0 -0.0338497)
(0.288956 0 -0.0382214)
(0.307146 0 -0.0433346)
(0.340554 0 -0.0447637)
(0 0 0)
(0.0182787 0 0)
(0.0345669 0 0)
(0.0484103 0 0)
(0.0600343 0 0)
(0.0696546 0 0)
(0.0774645 0 0)
(0.0836347 0 0)
(0.0883133 0 0)
(0.0916301 0 0)
(0.0937012 0 0)
(0.0946295 0 0)
(0.0945051 0 0)
(0.0934085 0 0)
(0.0914129 0 0)
(0.0885855 0 0)
(0.0849896 0 0)
(0.0806857 0 0)
(0.0757341 0 0)
(0.0701971 0 0)
(0.0641412 0 0)
(0.0576404 0 0)
(0.0507793 0 0)
(0.0436572 0 0)
(0.0363941 0 0)
(0.0291403 0 0)
(0.0220948 0 0)
(0.0155413 0 0)
(0.00989693 0 0)
(0.0059101 0 0)
(0 0 0)
(0 0 0)
(0.0182916 0 -0.00010142)
(0.0345921 0 -0.000192978)
(0.048448 0 -0.000273167)
(0.0600853 0 -0.000343761)
(0.0697196 0 -0.000405919)
(0.0775449 0 -0.000460402)
(0.0837326 0 -0.000507782)
(0.0884309 0 -0.000548554)
(0.0917695 0 -0.000582192)
(0.0938653 0 -0.00060788)
(0.0948217 0 -0.000625156)
(0.0947291 0 -0.000633016)
(0.0936687 0 -0.000630215)
(0.091714 0 -0.000615242)
(0.0889331 0 -0.000586327)
(0.0853899 0 -0.00054136)
(0.0811458 0 -0.000477816)
(0.0762622 0 -0.000392795)
(0.0708022 0 -0.000283028)
(0.0648338 0 -0.000144873)
(0.0584326 0 2.56652e-05)
(0.0516852 0 0.000232917)
(0.0446942 0 0.000481422)
(0.0375831 0 0.000775776)
(0.0305056 0 0.00112045)
(0.0236627 0 0.00151936)
(0.0173526 0 0.00197499)
(0.0120224 0 0.002477)
(0.00844259 0 0.0029688)
(0.00353996 0 0.00368319)
(0 0 0)
(0.0183324 0 -0.000203128)
(0.0346698 0 -0.000386545)
(0.0485627 0 -0.000547253)
(0.0602395 0 -0.000688869)
(0.0699155 0 -0.000813678)
(0.0777866 0 -0.000923177)
(0.0840264 0 -0.00101849)
(0.0887829 0 -0.0011002)
(0.0921857 0 -0.00116774)
(0.0943545 0 -0.00122006)
(0.0953945 0 -0.00125589)
(0.0953966 0 -0.0012732)
(0.0944434 0 -0.00126956)
(0.0926101 0 -0.00124202)
(0.0899669 0 -0.00118719)
(0.08658 0 -0.00110102)
(0.0825133 0 -0.000978604)
(0.0778307 0 -0.00081435)
(0.0725985 0 -0.000601997)
(0.0668886 0 -0.000334621)
(0.0607814 0 -4.7081e-06)
(0.0543696 0 0.000395778)
(0.0477655 0 0.000874943)
(0.0411061 0 0.00144037)
(0.0345595 0 0.00209827)
(0.0283317 0 0.00285288)
(0.0227267 0 0.00370087)
(0.0182491 0 0.00460949)
(0.0157384 0 0.00545514)
(0.011769 0 0.00660655)
(0 0 0)
(0.0184009 0 -0.00030516)
(0.0347986 0 -0.000580656)
(0.0487526 0 -0.000822218)
(0.060495 0 -0.00103541)
(0.0702397 0 -0.00122355)
(0.078186 0 -0.00138883)
(0.0845104 0 -0.00153297)
(0.0893616 0 -0.00165619)
(0.0928717 0 -0.00175852)
(0.0951629 0 -0.00183934)
(0.0963412 0 -0.00189615)
(0.0964999 0 -0.0019259)
(0.095724 0 -0.00192518)
(0.094091 0 -0.00188973)
(0.0916748 0 -0.00181485)
(0.0885458 0 -0.00169489)
(0.0847714 0 -0.00152288)
(0.0804197 0 -0.00129098)
(0.0755622 0 -0.000990511)
(0.0702766 0 -0.000612026)
(0.0646504 0 -0.000145513)
(0.0587832 0 0.000419606)
(0.0528032 0 0.00109323)
(0.0468697 0 0.00188332)
(0.0411753 0 0.00279404)
(0.0359536 0 0.00382263)
(0.0314951 0 0.00494937)
(0.0282934 0 0.0061109)
(0.0272737 0 0.00711412)
(0.0245802 0 0.00845349)
(0 0 0)
(0.0184893 0 -0.000407212)
(0.0349733 0 -0.000774912)
(0.0490158 0 -0.00109761)
(0.0608495 0 -0.00138246)
(0.0706882 0 -0.00163409)
(0.0787375 0 -0.00185579)
(0.0851779 0 -0.00204983)
(0.0901603 0 -0.00221658)
(0.0938205 0 -0.00235629)
(0.0962818 0 -0.00246849)
(0.0976517 0 -0.00254985)
(0.0980265 0 -0.0025964)
(0.0974956 0 -0.00260411)
(0.0961388 0 -0.00256747)
(0.0940354 0 -0.002481)
(0.0912621 0 -0.00233812)
(0.0878909 0 -0.00213007)
(0.0839957 0 -0.0018474)
(0.079655 0 -0.00147987)
(0.0749544 0 -0.00101657)
(0.0699932 0 -0.000446609)
(0.0648797 0 0.000241505)
(0.0597492 0 0.00105791)
(0.0547777 0 0.00200776)
(0.0501937 0 0.00308801)
(0.046279 0 0.0042806)
(0.0433411 0 0.00554209)
(0.0417915 0 0.00678091)
(0.0425628 0 0.00774279)
(0.0412617 0 0.00907696)
(0 0 0)
(0.0185965 0 -0.000509129)
(0.0351918 0 -0.000969227)
(0.0493464 0 -0.0013733)
(0.061294 0 -0.00172989)
(0.0712534 0 -0.00204535)
(0.0794353 0 -0.00232442)
(0.0860238 0 -0.00256983)
(0.0911733 0 -0.00278253)
(0.0950229 0 -0.00296259)
(0.0976971 0 -0.00310906)
(0.0993063 0 -0.00321873)
(0.099953 0 -0.0032875)
(0.0997311 0 -0.00331078)
(0.0987247 0 -0.00328234)
(0.0970174 0 -0.00319589)
(0.0946926 0 -0.00304404)
(0.0918291 0 -0.00281722)
(0.0885081 0 -0.00250517)
(0.0848171 0 -0.00209713)
(0.0808501 0 -0.00158174)
(0.0767222 0 -0.000948844)
(0.0725621 0 -0.000189008)
(0.0685082 0 0.00070528)
(0.064739 0 0.00173452)
(0.0614969 0 0.0028864)
(0.0591103 0 0.00412219)
(0.0579469 0 0.0053677)
(0.0583549 0 0.00650722)
(0.0611174 0 0.00724974)
(0.0612181 0 0.00843792)
(0 0 0)
(0.0187286 0 -0.000610721)
(0.0354555 0 -0.00116304)
(0.0497408 0 -0.0016485)
(0.0618239 0 -0.00207761)
(0.0719305 0 -0.0024582)
(0.0802734 0 -0.00279601)
(0.0870402 0 -0.00309461)
(0.09239 0 -0.00335551)
(0.0964651 0 -0.00357882)
(0.0993914 0 -0.00376289)
(0.101285 0 -0.00390537)
(0.102256 0 -0.00400287)
(0.102403 0 -0.00405013)
(0.101815 0 -0.00404082)
(0.100581 0 -0.00396799)
(0.0987915 0 -0.00382364)
(0.0965324 0 -0.00359835)
(0.0938945 0 -0.00328201)
(0.0909776 0 -0.00286472)
(0.0878867 0 -0.00233606)
(0.0847444 0 -0.00168696)
(0.0816957 0 -0.000911763)
(0.0789057 0 -1.01742e-05)
(0.0765727 0 0.00100911)
(0.0749173 0 0.0021247)
(0.0742616 0 0.00328121)
(0.0750356 0 0.00437075)
(0.0775885 0 0.00524879)
(0.0824247 0 0.00562096)
(0.0838902 0 0.00654997)
(0 0 0)
(0.0188836 0 -0.000711932)
(0.0357614 0 -0.00135618)
(0.0501985 0 -0.00192308)
(0.0624395 0 -0.00242514)
(0.0727137 0 -0.00287154)
(0.0812407 0 -0.00326924)
(0.0882131 0 -0.00362284)
(0.0937932 0 -0.0039344)
(0.0981267 0 -0.00420429)
(0.101344 0 -0.00443105)
(0.103568 0 -0.00461281)
(0.104912 0 -0.00474654)
(0.105481 0 -0.00482707)
(0.105371 0 -0.0048484)
(0.10468 0 -0.00480363)
(0.103502 0 -0.00468492)
(0.101933 0 -0.00448359)
(0.100074 0 -0.00419038)
(0.0980399 0 -0.00379774)
(0.0959558 0 -0.00329849)
(0.0939463 0 -0.00268572)
(0.0921608 0 -0.00195765)
(0.0907852 0 -0.00112131)
(0.0900509 0 -0.000198852)
(0.0901917 0 0.000772344)
(0.0914644 0 0.00172784)
(0.0942922 0 0.00253613)
(0.0990375 0 0.00302143)
(0.105929 0 0.00291025)
(0.108731 0 0.00347501)
(0 0 0)
(0.0190603 0 -0.000812885)
(0.0361071 0 -0.0015489)
(0.0507122 0 -0.00219726)
(0.0631287 0 -0.00277226)
(0.0735919 0 -0.00328493)
(0.0823268 0 -0.00374385)
(0.0895298 0 -0.00415434)
(0.0953678 0 -0.00451924)
(0.0999909 0 -0.00483944)
(0.103535 0 -0.00511424)
(0.106128 0 -0.005342)
(0.107888 0 -0.00551987)
(0.108925 0 -0.00564353)
(0.109347 0 -0.00570785)
(0.109257 0 -0.00570659)
(0.108758 0 -0.00563279)
(0.107955 0 -0.00547932)
(0.106962 0 -0.00523911)
(0.105906 0 -0.00490696)
(0.104923 0 -0.00447909)
(0.104158 0 -0.0039547)
(0.103784 0 -0.00333948)
(0.103979 0 -0.00264597)
(0.104971 0 -0.00190519)
(0.107035 0 -0.00117505)
(0.110401 0 -0.00053334)
(0.115388 0 -0.00011713)
(0.122293 0 -0.000117847)
(0.131149 0 -0.000775921)
(0.135221 0 -0.000626216)
(0 0 0)
(0.0192571 0 -0.000913255)
(0.0364883 0 -0.00174043)
(0.0512754 0 -0.00247003)
(0.0638841 0 -0.00311855)
(0.0745575 0 -0.00369876)
(0.0835224 0 -0.00422041)
(0.0909791 0 -0.0046899)
(0.0971 0 -0.00511102)
(0.10204 0 -0.00548538)
(0.105941 0 -0.00581306)
(0.108935 0 -0.00609302)
(0.111146 0 -0.00632304)
(0.112692 0 -0.00649982)
(0.113689 0 -0.00661972)
(0.11425 0 -0.00667774)
(0.114483 0 -0.0066683)
(0.114507 0 -0.00658648)
(0.114453 0 -0.00642937)
(0.114456 0 -0.0061948)
(0.114657 0 -0.00588203)
(0.115221 0 -0.00549663)
(0.116348 0 -0.00505406)
(0.118237 0 -0.00457783)
(0.121088 0 -0.00410372)
(0.125176 0 -0.00370245)
(0.130746 0 -0.00346943)
(0.137967 0 -0.00353385)
(0.146996 0 -0.00407939)
(0.157682 0 -0.0053005)
(0.162924 0 -0.00556816)
(0 0 0)
(0.0194641 0 -0.00101246)
(0.036897 0 -0.0019302)
(0.0518854 0 -0.00274102)
(0.0647042 0 -0.00346372)
(0.0756038 0 -0.00411251)
(0.0848154 0 -0.00469818)
(0.0925453 0 -0.00522866)
(0.0989708 0 -0.00570885)
(0.104251 0 -0.00614114)
(0.108533 0 -0.00652653)
(0.111954 0 -0.00686485)
(0.114646 0 -0.00715488)
(0.116731 0 -0.00739448)
(0.11834 0 -0.00758241)
(0.119589 0 -0.00771523)
(0.120596 0 -0.00778912)
(0.121492 0 -0.00780265)
(0.122419 0 -0.00775591)
(0.123528 0 -0.00765202)
(0.124984 0 -0.0074977)
(0.126955 0 -0.00730298)
(0.12964 0 -0.00708874)
(0.133278 0 -0.00689322)
(0.138082 0 -0.00676319)
(0.144284 0 -0.00677059)
(0.152105 0 -0.0070194)
(0.161602 0 -0.00762772)
(0.172744 0 -0.00874867)
(0.185128 0 -0.0105132)
(0.191506 0 -0.0111783)
(0 0 0)
(0.0196794 0 -0.00111041)
(0.0373303 0 -0.00211827)
(0.0525373 0 -0.0030103)
(0.0655815 0 -0.00380744)
(0.0767203 0 -0.00452543)
(0.0861922 0 -0.00517616)
(0.0942117 0 -0.00576945)
(0.10096 0 -0.00631142)
(0.106599 0 -0.00680521)
(0.111282 0 -0.00725289)
(0.115152 0 -0.00765548)
(0.118345 0 -0.00801302)
(0.120996 0 -0.00832536)
(0.123239 0 -0.00859302)
(0.125198 0 -0.00881412)
(0.127004 0 -0.00898867)
(0.128806 0 -0.00912001)
(0.130745 0 -0.00921043)
(0.132981 0 -0.00926715)
(0.135708 0 -0.00930603)
(0.139116 0 -0.00934648)
(0.143395 0 -0.00941331)
(0.148799 0 -0.00955393)
(0.155581 0 -0.00983056)
(0.163921 0 -0.0103123)
(0.173998 0 -0.0110994)
(0.185795 0 -0.0122941)
(0.199058 0 -0.0139987)
(0.213049 0 -0.0162663)
(0.220728 0 -0.0172928)
(0 0 0)
(0.0199087 0 -0.00120725)
(0.0377883 0 -0.00230438)
(0.0532254 0 -0.00327715)
(0.0665061 0 -0.00414839)
(0.0778928 0 -0.00493552)
(0.0876362 0 -0.00565247)
(0.0959605 0 -0.00631064)
(0.103046 0 -0.00691693)
(0.109058 0 -0.00747545)
(0.114155 0 -0.0079896)
(0.118488 0 -0.00846183)
(0.122198 0 -0.00889365)
(0.125431 0 -0.00928783)
(0.128323 0 -0.00964587)
(0.131004 0 -0.00996807)
(0.133622 0 -0.0102591)
(0.136329 0 -0.0105253)
(0.139285 0 -0.0107753)
(0.142658 0 -0.0110209)
(0.146639 0 -0.0112819)
(0.151448 0 -0.0115891)
(0.157302 0 -0.0119789)
(0.16444 0 -0.0125015)
(0.173123 0 -0.0132279)
(0.183538 0 -0.0142322)
(0.195828 0 -0.0156038)
(0.2099 0 -0.0174149)
(0.225285 0 -0.0197008)
(0.240855 0 -0.0224285)
(0.250407 0 -0.0237995)
(0 0 0)
(0.0201492 0 -0.00130273)
(0.0382664 0 -0.002488)
(0.0539393 0 -0.00354059)
(0.0674627 0 -0.00448513)
(0.0791091 0 -0.00534149)
(0.0891375 0 -0.00612594)
(0.0977764 0 -0.00685065)
(0.105208 0 -0.00752323)
(0.111602 0 -0.00814921)
(0.117122 0 -0.00873339)
(0.121925 0 -0.00927994)
(0.126161 0 -0.00979246)
(0.12998 0 -0.0102755)
(0.13352 0 -0.010732)
(0.136926 0 -0.0111667)
(0.14035 0 -0.0115873)
(0.143947 0 -0.0120025)
(0.147889 0 -0.0124271)
(0.152364 0 -0.0128809)
(0.157561 0 -0.0133882)
(0.163696 0 -0.0139846)
(0.171023 0 -0.0147213)
(0.179769 0 -0.0156529)
(0.190183 0 -0.0168546)
(0.202488 0 -0.0184098)
(0.216795 0 -0.0203957)
(0.232967 0 -0.0228496)
(0.250375 0 -0.0257254)
(0.267546 0 -0.0288937)
(0.280376 0 -0.0306163)
(0 0 0)
(0.0203982 0 -0.0013965)
(0.0387596 0 -0.0026683)
(0.0546708 0 -0.00379923)
(0.0684421 0 -0.00481662)
(0.0803593 0 -0.00574274)
(0.0906822 0 -0.00659532)
(0.0996409 0 -0.00738742)
(0.107423 0 -0.00812774)
(0.114202 0 -0.00882332)
(0.120148 0 -0.0094803)
(0.125424 0 -0.010105)
(0.130187 0 -0.0107035)
(0.134586 0 -0.0112809)
(0.138764 0 -0.0118425)
(0.142875 0 -0.0123967)
(0.147076 0 -0.0129544)
(0.151531 0 -0.0135295)
(0.156411 0 -0.0141394)
(0.161911 0 -0.0148103)
(0.168233 0 -0.015575)
(0.175576 0 -0.016472)
(0.184195 0 -0.0175598)
(0.194324 0 -0.018904)
(0.206195 0 -0.020584)
(0.220016 0 -0.022688)
(0.235868 0 -0.0252897)
(0.253593 0 -0.028409)
(0.272489 0 -0.0319235)
(0.291123 0 -0.0356058)
(0.310444 0 -0.0376314)
(0 0 0)
(0.0206506 0 -0.00148872)
(0.0392597 0 -0.00284566)
(0.0554191 0 -0.00405438)
(0.0694501 0 -0.00514497)
(0.0816464 0 -0.00614146)
(0.0922703 0 -0.00706298)
(0.101553 0 -0.00792351)
(0.109689 0 -0.00873305)
(0.116857 0 -0.0095004)
(0.123232 0 -0.0102335)
(0.128983 0 -0.0109404)
(0.134266 0 -0.0116282)
(0.139231 0 -0.0123037)
(0.144035 0 -0.0129765)
(0.14883 0 -0.0136566)
(0.15377 0 -0.0143567)
(0.159031 0 -0.0150965)
(0.164787 0 -0.0158986)
(0.171218 0 -0.0167901)
(0.178524 0 -0.01781)
(0.186907 0 -0.019004)
(0.196591 0 -0.020433)
(0.207795 0 -0.0221693)
(0.220704 0 -0.0242949)
(0.235456 0 -0.0269003)
(0.252033 0 -0.0300664)
(0.270161 0 -0.0338497)
(0.288956 0 -0.0382214)
(0.307146 0 -0.0433346)
(0.340554 0 -0.0447637)
(0 0 0)
(0.00860502 0 0)
(0.0175783 0 0)
(0.0322013 0 0)
(0.0512968 0 0)
(0.0729388 0 0)
(0.0950935 0 0)
(0.116081 0 0)
(0.134789 0 0)
(0.150707 0 0)
(0.163749 0 0)
(0.174033 0 0)
(0.181784 0 0)
(0.187221 0 0)
(0.190546 0 0)
(0.191929 0 0)
(0.19149 0 0)
(0.189313 0 0)
(0.185455 0 0)
(0.179942 0 0)
(0.17278 0 0)
(0.16395 0 0)
(0.153415 0 0)
(0.141124 0 0)
(0.127009 0 0)
(0.110981 0 0)
(0.0929685 0 0)
(0.0729045 0 0)
(0.0506915 0 0)
(0.0262266 0 0)
(0 0 0)
(0.00317887 0 -0.00413308)
(0.0111156 0 -0.00438602)
(0.0202438 0 -0.00489152)
(0.0349315 0 -0.00547372)
(0.0539488 0 -0.00604183)
(0.0753984 0 -0.00651196)
(0.0972921 0 -0.00683422)
(0.117977 0 -0.00699394)
(0.136381 0 -0.00699344)
(0.152026 0 -0.00686791)
(0.164829 0 -0.00665438)
(0.174911 0 -0.00637367)
(0.182497 0 -0.00605047)
(0.1878 0 -0.00570376)
(0.191016 0 -0.00535293)
(0.192311 0 -0.00500075)
(0.191802 0 -0.00464546)
(0.189569 0 -0.00429333)
(0.185665 0 -0.00394888)
(0.180117 0 -0.00361251)
(0.172926 0 -0.0032849)
(0.164073 0 -0.00296476)
(0.15352 0 -0.00264939)
(0.14121 0 -0.00233962)
(0.127079 0 -0.00203546)
(0.111046 0 -0.00172809)
(0.0930281 0 -0.0014123)
(0.0729495 0 -0.00108623)
(0.0507175 0 -0.000746642)
(0.0262376 0 -0.000384756)
(0 0 0)
(0.0106047 0 -0.00823604)
(0.0184267 0 -0.0088481)
(0.0280604 0 -0.00986776)
(0.0429339 0 -0.0110109)
(0.0617266 0 -0.0120929)
(0.0826297 0 -0.012974)
(0.103749 0 -0.0135641)
(0.12354 0 -0.0138309)
(0.141054 0 -0.0138003)
(0.155894 0 -0.0135349)
(0.167992 0 -0.0130947)
(0.177486 0 -0.0125393)
(0.184587 0 -0.0119038)
(0.189495 0 -0.0112201)
(0.192394 0 -0.0105255)
(0.193433 0 -0.00982777)
(0.192717 0 -0.00913039)
(0.190319 0 -0.00843981)
(0.186284 0 -0.00776496)
(0.18063 0 -0.00710605)
(0.173353 0 -0.00646367)
(0.164434 0 -0.00583667)
(0.153822 0 -0.00521871)
(0.141459 0 -0.00461253)
(0.127287 0 -0.00401152)
(0.111228 0 -0.00340472)
(0.0931843 0 -0.00278526)
(0.0730663 0 -0.00214483)
(0.050793 0 -0.00147455)
(0.0262792 0 -0.000759654)
(0 0 0)
(0.0223123 0 -0.0125224)
(0.0300752 0 -0.0135038)
(0.0404983 0 -0.0150275)
(0.0555966 0 -0.0166735)
(0.0740075 0 -0.0181858)
(0.0940339 0 -0.0193782)
(0.113907 0 -0.0201345)
(0.132292 0 -0.0204294)
(0.148421 0 -0.0203169)
(0.162001 0 -0.0198847)
(0.172999 0 -0.0192066)
(0.181571 0 -0.0183761)
(0.187909 0 -0.0174409)
(0.192196 0 -0.0164427)
(0.194594 0 -0.0154236)
(0.195227 0 -0.0143996)
(0.194185 0 -0.0133821)
(0.191525 0 -0.0123769)
(0.187279 0 -0.0113933)
(0.181455 0 -0.0104306)
(0.17404 0 -0.00949242)
(0.165011 0 -0.00857665)
(0.154306 0 -0.0076759)
(0.141862 0 -0.00678728)
(0.127628 0 -0.00590274)
(0.111514 0 -0.00501204)
(0.0934187 0 -0.00410353)
(0.0732503 0 -0.00316309)
(0.0509289 0 -0.0021753)
(0.0263597 0 -0.00112064)
(0 0 0)
(0.0377061 0 -0.0171778)
(0.0455711 0 -0.0184838)
(0.0569083 0 -0.0204663)
(0.0721805 0 -0.0225221)
(0.090033 0 -0.0243511)
(0.108863 0 -0.0257302)
(0.127089 0 -0.0265335)
(0.143657 0 -0.0267679)
(0.158007 0 -0.026511)
(0.169959 0 -0.0258749)
(0.179546 0 -0.0249539)
(0.186927 0 -0.0238471)
(0.19228 0 -0.0226247)
(0.195762 0 -0.0213339)
(0.197504 0 -0.0200151)
(0.197605 0 -0.0186911)
(0.196135 0 -0.0173781)
(0.19313 0 -0.0160855)
(0.188607 0 -0.0148175)
(0.182557 0 -0.0135742)
(0.174958 0 -0.0123607)
(0.165778 0 -0.0111749)
(0.154951 0 -0.010011)
(0.142405 0 -0.00885729)
(0.128081 0 -0.00770659)
(0.111887 0 -0.00654831)
(0.0937211 0 -0.00536498)
(0.0734913 0 -0.00413836)
(0.0511082 0 -0.00284766)
(0.0264592 0 -0.0014676)
(0 0 0)
(0.056327 0 -0.0223091)
(0.0643518 0 -0.0238565)
(0.0765868 0 -0.0262282)
(0.0919289 0 -0.028588)
(0.10901 0 -0.030596)
(0.126323 0 -0.0320147)
(0.142569 0 -0.0327421)
(0.157 0 -0.0328223)
(0.169276 0 -0.03236)
(0.179337 0 -0.0314826)
(0.18729 0 -0.0303103)
(0.193289 0 -0.0289374)
(0.197493 0 -0.0274435)
(0.200029 0 -0.0258797)
(0.200997 0 -0.0242862)
(0.200468 0 -0.0226886)
(0.198486 0 -0.0211055)
(0.195068 0 -0.0195476)
(0.190212 0 -0.0180194)
(0.183894 0 -0.0165239)
(0.176073 0 -0.0150598)
(0.166709 0 -0.0136262)
(0.155731 0 -0.0122184)
(0.143062 0 -0.0108214)
(0.128625 0 -0.00942437)
(0.112332 0 -0.00801392)
(0.0940797 0 -0.00657011)
(0.0737711 0 -0.00507097)
(0.0513087 0 -0.00349139)
(0.0265675 0 -0.00180017)
(0 0 0)
(0.0777139 0 -0.0279326)
(0.085851 0 -0.0296257)
(0.0988552 0 -0.0322993)
(0.114099 0 -0.0348461)
(0.130138 0 -0.0368827)
(0.145615 0 -0.0381848)
(0.159609 0 -0.0387124)
(0.17167 0 -0.0385477)
(0.181676 0 -0.0378258)
(0.189691 0 -0.0366847)
(0.195873 0 -0.0352533)
(0.200371 0 -0.0336261)
(0.203319 0 -0.0318789)
(0.204815 0 -0.0300643)
(0.20493 0 -0.0282222)
(0.203702 0 -0.026378)
(0.201152 0 -0.024552)
(0.197272 0 -0.0227553)
(0.19204 0 -0.0209941)
(0.185416 0 -0.0192734)
(0.177347 0 -0.0175867)
(0.167772 0 -0.0159312)
(0.156618 0 -0.0143003)
(0.143802 0 -0.0126793)
(0.129239 0 -0.0110539)
(0.112833 0 -0.00940719)
(0.0944812 0 -0.00771752)
(0.0740805 0 -0.00595986)
(0.0515261 0 -0.00410522)
(0.0266829 0 -0.00211725)
(0 0 0)
(0.101403 0 -0.0339844)
(0.109566 0 -0.0357582)
(0.123131 0 -0.0386373)
(0.137988 0 -0.0412292)
(0.152649 0 -0.043132)
(0.166006 0 -0.0441717)
(0.177525 0 -0.0443838)
(0.187058 0 -0.0438966)
(0.19469 0 -0.042871)
(0.200588 0 -0.0414518)
(0.204934 0 -0.0397616)
(0.207874 0 -0.0378913)
(0.209517 0 -0.0359114)