/*--------------------------------*- C++ -*----------------------------------*\
| =========                 |                                                 |
| \\      /  F ield         | OpenFOAM: The Open Source CFD Toolbox           |
|  \\    /   O peration     | Version:  dev                                   |
|   \\  /    A nd           | Web:      www.OpenFOAM.org                      |
|    \\/     M anipulation  |                                                 |
\*---------------------------------------------------------------------------*/
FoamFile
{
    version     2.0;
    format      ascii;
    class       volVectorField;
    location    "4.66";
    object      Force;
}
// * * * * * * * * * * * * * * * * * * * * * * * * * * * * * * * * * * * * * //

dimensions      [1 1 -2 0 0 0 0];

internalField   uniform (0 0 0);

boundaryField
{
    inlet
    {
        type            calculated;
        value           uniform (0 0 0);
    }
    outlet
    {
        type            calculated;
        value           uniform (0 0 0);
    }
    flap
    {
        type            calculated;
        value           nonuniform List<vector> 
33
(
(3.62193 -1.76324e-38 -0.202121)
(3.57234 1.83622e-17 -0.428637)
(3.51053 4.64959e-18 -0.628934)
(3.43608 1.75684e-17 -0.767351)
(3.35347 -4.73126e-21 -0.85375)
(3.26643 -1.28821e-22 -0.897213)
(3.17773 9.3675e-23 -0.9078)
(3.08864 -4.07434e-21 -0.89476)
(2.99446 -8.44008e-18 -0.865354)
(2.88848 8.14305e-18 -0.824756)
(2.76185 1.61095e-17 -0.775739)
(2.60075 1.60006e-17 -0.71877)
(2.38311 1.57866e-17 -0.650411)
(2.06711 -1.63412e-21 -0.558559)
(1.55557 1.77073e-21 -0.419015)
(0.18934 9.90329e-18 0.681835)
(0.119378 -6.10308e-19 0.440113)
(0.0471594 7.881e-18 0.176627)
(-0.0715295 1.37947e-17 0.00395511)
(-0.0711599 1.42107e-17 0.00849809)
(-0.0700754 1.46544e-17 0.0124402)
(-0.0683751 1.50853e-17 0.0150497)
(-0.0661862 -6.92353e-25 0.0165438)
(-0.0637217 1.72082e-24 0.017116)
(-0.0612156 6.37986e-23 0.0170281)
(-0.058852 2.575e-24 0.0165419)
(-0.0567505 -3.53742e-23 0.015868)
(-0.0548599 1.64302e-17 0.0151304)
(-0.0531777 1.64797e-17 0.0144363)
(-0.0515426 -1.44554e-19 0.0138247)
(-0.0489975 1.67135e-17 0.0130714)
(-0.0418754 -1.22207e-24 0.011196)
(-0.0235786 5.73944e-23 0.006354)
)
;
    }
    upperWall
    {
        type            calculated;
        value           uniform (0 0 0);
    }
    lowerWall
    {
        type            calculated;
        value           uniform (0 0 0);
    }
    frontAndBack
    {
        type            empty;
    }
}


// ************************************************************************* //
