/*--------------------------------*- C++ -*----------------------------------*\
| =========                 |                                                 |
| \\      /  F ield         | OpenFOAM: The Open Source CFD Toolbox           |
|  \\    /   O peration     | Version:  dev                                   |
|   \\  /    A nd           | Web:      www.OpenFOAM.org                      |
|    \\/     M anipulation  |                                                 |
\*---------------------------------------------------------------------------*/
FoamFile
{
    version     2.0;
    format      ascii;
    class       volVectorField;
    location    "3.11";
    object      cellDisplacement;
}
// * * * * * * * * * * * * * * * * * * * * * * * * * * * * * * * * * * * * * //

dimensions      [0 1 0 0 0 0 0];

internalField   nonuniform List<vector> 
2790
(
(0.00635608 0 -7.28104e-06)
(0.0182068 0 -2.08941e-05)
(0.0284436 0 -3.27728e-05)
(0.0371919 0 -4.30861e-05)
(0.0445847 0 -5.19623e-05)
(0.0507425 0 -5.94785e-05)
(0.0557739 0 -6.56307e-05)
(0.0597756 0 -7.04e-05)
(0.0628315 0 -7.37202e-05)
(0.0650155 0 -7.53882e-05)
(0.0663925 0 -7.52045e-05)
(0.0670189 0 -7.29079e-05)
(0.0669443 0 -6.81721e-05)
(0.0662122 0 -6.06149e-05)
(0.0648601 0 -4.96177e-05)
(0.0629231 0 -3.45958e-05)
(0.0604342 0 -1.48238e-05)
(0.0574256 0 1.05699e-05)
(0.0539309 0 4.2616e-05)
(0.049987 0 8.25239e-05)
(0.0456357 0 0.000131707)
(0.0409273 0 0.000191814)
(0.0359214 0 0.000264795)
(0.0306918 0 0.000352996)
(0.0253337 0 0.000459314)
(0.0199739 0 0.000587404)
(0.0147918 0 0.000741745)
(0.0100372 0 0.000925375)
(0.0060941 0 0.00113544)
(0.00375289 0 0.00134055)
(0.00636392 0 -2.18674e-05)
(0.0182301 0 -6.27573e-05)
(0.0284821 0 -9.84497e-05)
(0.037246 0 -0.000129455)
(0.0446554 0 -0.000156161)
(0.0508314 0 -0.000178811)
(0.055883 0 -0.00019738)
(0.0599081 0 -0.000211825)
(0.062991 0 -0.000221985)
(0.0652055 0 -0.000227214)
(0.0666178 0 -0.000226942)
(0.0672852 0 -0.000220399)
(0.0672575 0 -0.000206615)
(0.0665803 0 -0.000184547)
(0.0652911 0 -0.000152244)
(0.0634263 0 -0.000108059)
(0.0610204 0 -4.98623e-05)
(0.058107 0 2.48962e-05)
(0.0547214 0 0.000119219)
(0.0509021 0 0.000236614)
(0.0466938 0 0.000381145)
(0.04215 0 0.00055748)
(0.0373346 0 0.000771019)
(0.0323266 0 0.00102801)
(0.0272264 0 0.00133571)
(0.0221651 0 0.00170245)
(0.017349 0 0.00213866)
(0.0130606 0 0.00264544)
(0.00972704 0 0.00320137)
(0.00810226 0 0.00369858)
(0.00637965 0 -3.65176e-05)
(0.0182768 0 -0.000104818)
(0.0285593 0 -0.000164474)
(0.0373541 0 -0.000216353)
(0.0447969 0 -0.000261099)
(0.0510093 0 -0.000299176)
(0.0561012 0 -0.000330483)
(0.0601732 0 -0.000354988)
(0.0633097 0 -0.000372584)
(0.0655851 0 -0.000382028)
(0.067068 0 -0.000382492)
(0.0678167 0 -0.000372732)
(0.0678821 0 -0.00035112)
(0.0673105 0 -0.000315733)
(0.0661451 0 -0.000264219)
(0.0644226 0 -0.000193624)
(0.0621801 0 -0.000100549)
(0.059454 0 1.90181e-05)
(0.0562827 0 0.000169757)
(0.0527082 0 0.000357078)
(0.0487797 0 0.000587161)
(0.0445579 0 0.000866892)
(0.040115 0 0.00120392)
(0.0355414 0 0.00160652)
(0.030951 0 0.00208324)
(0.0264766 0 0.00264351)
(0.0223251 0 0.00329091)
(0.018825 0 0.0040136)
(0.0164328 0 0.00475899)
(0.0157772 0 0.00535388)
(0.00640338 0 -5.12575e-05)
(0.0183471 0 -0.000147157)
(0.0286751 0 -0.000230996)
(0.0375158 0 -0.000304018)
(0.0450085 0 -0.000367116)
(0.051275 0 -0.000421094)
(0.0564262 0 -0.000465634)
(0.0605682 0 -0.00050076)
(0.0637825 0 -0.000526013)
(0.0661472 0 -0.000540624)
(0.0677341 0 -0.000543094)
(0.0686028 0 -0.000531773)
(0.0688065 0 -0.000504508)
(0.0683924 0 -0.000458544)
(0.0674089 0 -0.000391285)
(0.0658961 0 -0.000298771)
(0.0638941 0 -0.000176586)
(0.0614435 0 -1.96192e-05)
(0.0585867 0 0.000178003)
(0.0553703 0 0.00042296)
(0.0518481 0 0.000722743)
(0.0480909 0 0.00108525)
(0.0441803 0 0.0015187)
(0.0402196 0 0.00203097)
(0.0363358 0 0.0026285)
(0.0326871 0 0.00331393)
(0.0294591 0 0.00407854)
(0.0269499 0 0.00489331)
(0.0256393 0 0.00567176)
(0.0259997 0 0.00621067)
(0.00643519 0 -6.61043e-05)
(0.0184409 0 -0.00018983)
(0.0288293 0 -0.000298116)
(0.03773 0 -0.000392628)
(0.0452887 0 -0.000474434)
(0.0516251 0 -0.00054435)
(0.0568522 0 -0.000602656)
(0.0610815 0 -0.000649109)
(0.0643985 0 -0.000683003)
(0.0668839 0 -0.000704221)
(0.0686069 0 -0.000710413)
(0.0696325 0 -0.000699768)
(0.070017 0 -0.000669779)
(0.0698119 0 -0.000617372)
(0.0690671 0 -0.000539093)
(0.0678281 0 -0.000430574)
(0.0661402 0 -0.0002868)
(0.0640488 0 -0.000102029)
(0.0616016 0 0.000130206)
(0.0588503 0 0.000417054)
(0.0558492 0 0.000766487)
(0.0526852 0 0.00118595)
(0.0494448 0 0.00168238)
(0.0462454 0 0.00226051)
(0.0432221 0 0.00292103)
(0.0405389 0 0.00365672)
(0.0383921 0 0.00444561)
(0.0370098 0 0.00524278)
(0.03678 0 0.00594022)
(0.0380642 0 0.00633951)
(0.00647515 0 -8.10655e-05)
(0.018558 0 -0.000232859)
(0.0290213 0 -0.000365875)
(0.0379933 0 -0.000481844)
(0.0456249 0 -0.000582611)
(0.0520476 0 -0.000668987)
(0.0573736 0 -0.000741877)
(0.0617113 0 -0.000800636)
(0.0651562 0 -0.000844906)
(0.0677851 0 -0.000873844)
(0.0696728 0 -0.000885798)
(0.0708888 0 -0.000878529)
(0.0714923 0 -0.000849279)
(0.071539 0 -0.00079474)
(0.0710825 0 -0.000711063)
(0.0701738 0 -0.000593667)
(0.0688644 0 -0.000437364)
(0.067206 0 -0.000236288)
(0.0652531 0 1.59545e-05)
(0.0630663 0 0.000325969)
(0.0607058 0 0.000701462)
(0.0582479 0 0.00114879)
(0.0557886 0 0.00167183)
(0.0534686 0 0.00227006)
(0.0514201 0 0.00293672)
(0.0497991 0 0.00365447)
(0.048784 0 0.00438918)
(0.0485569 0 0.00508468)
(0.049343 0 0.00563322)
(0.0514018 0 0.0058643)
(0.0065233 0 -9.61392e-05)
(0.0186978 0 -0.000276237)
(0.0292385 0 -0.000433862)
(0.0382929 0 -0.000571505)
(0.0460204 0 -0.000691817)
(0.0525474 0 -0.000795746)
(0.0579847 0 -0.000883564)
(0.0624477 0 -0.000955632)
(0.0660379 0 -0.00101155)
(0.0688338 0 -0.00105006)
(0.0709156 0 -0.00107022)
(0.0723524 0 -0.0010694)
(0.0732087 0 -0.00104479)
(0.0735451 0 -0.000993047)
(0.0734197 0 -0.000910268)
(0.0728895 0 -0.000791929)
(0.0720134 0 -0.000633136)
(0.0708494 0 -0.000428364)
(0.0694593 0 -0.000171809)
(0.0679105 0 0.000142253)
(0.0662789 0 0.000519065)
(0.064631 0 0.00096274)
(0.063059 0 0.00147525)
(0.0617059 0 0.00205022)
(0.0607072 0 0.00267195)
(0.0601958 0 0.0033149)
(0.0603109 0 0.0039369)
(0.0611743 0 0.0044777)
(0.0628864 0 0.004844)
(0.0655578 0 0.00490625)
(0.00657973 0 -0.000111313)
(0.0188488 0 -0.000319618)
(0.0294775 0 -0.000502017)
(0.0386355 0 -0.000662072)
(0.046473 0 -0.000802548)
(0.0531094 0 -0.000924076)
(0.0586704 0 -0.0010276)
(0.0632801 0 -0.0011142)
(0.0670358 0 -0.00118333)
(0.0700231 0 -0.00123404)
(0.0723232 0 -0.00126517)
(0.0740075 0 -0.00127413)
(0.0751467 0 -0.00125839)
(0.075806 0 -0.00121475)
(0.076049 0 -0.00113956)
(0.0759378 0 -0.00102857)
(0.0755407 0 -0.000877742)
(0.0749217 0 -0.000682286)
(0.0741489 0 -0.00043749)
(0.0732958 0 -0.000139216)
(0.0724416 0 0.000215433)
(0.0716705 0 0.000626875)
(0.0710775 0 0.00109325)
(0.070746 0 0.00160626)
(0.0708383 0 0.00214097)
(0.0714472 0 0.00266658)
(0.0726579 0 0.00313792)
(0.0745206 0 0.00349782)
(0.077035 0 0.00367295)
(0.0801532 0 0.0035812)
(0.00663404 0 -0.000126411)
(0.0190101 0 -0.000362953)
(0.0297454 0 -0.000570687)
(0.0390176 0 -0.000753443)
(0.0469686 0 -0.000914129)
(0.0537255 0 -0.00105389)
(0.0594307 0 -0.00117462)
(0.0642018 0 -0.00127708)
(0.0681399 0 -0.00136107)
(0.0713364 0 -0.00142596)
(0.0738758 0 -0.00147094)
(0.0758293 0 -0.00149311)
(0.0772757 0 -0.00149057)
(0.0782848 0 -0.00146045)
(0.0789255 0 -0.00139967)
(0.079262 0 -0.0013042)
(0.0793785 0 -0.00117178)
(0.0793409 0 -0.000998464)
(0.0792235 0 -0.000781034)
(0.0791054 0 -0.00051736)
(0.0790709 0 -0.000207127)
(0.0792095 0 0.000146988)
(0.079618 0 0.000537959)
(0.0803517 0 0.000955783)
(0.0815497 0 0.00137219)
(0.0832644 0 0.00175297)
(0.0855182 0 0.00205505)
(0.088283 0 0.00222955)
(0.0914621 0 0.00222478)
(0.094869 0 0.00200556)
(0.00668555 0 -0.00014141)
(0.0191812 0 -0.000406517)
(0.0300382 0 -0.000639755)
(0.0394262 0 -0.000845328)
(0.0475015 0 -0.00102639)
(0.0543972 0 -0.00118565)
(0.0602563 0 -0.00132449)
(0.0652007 0 -0.00144406)
(0.0693347 0 -0.00154452)
(0.0727546 0 -0.0016255)
(0.0755433 0 -0.0016863)
(0.0777793 0 -0.0017248)
(0.0795498 0 -0.00173964)
(0.0809257 0 -0.00172821)
(0.0819845 0 -0.00168856)
(0.0827975 0 -0.00161747)
(0.0834504 0 -0.00151344)
(0.084015 0 -0.00137422)
(0.0845721 0 -0.00119844)
(0.0852064 0 -0.000986203)
(0.0860057 0 -0.000739786)
(0.0870599 0 -0.000464738)
(0.0884559 0 -0.000170912)
(0.0902673 0 0.000127258)
(0.0925604 0 0.000404104)
(0.0953476 0 0.0006266)
(0.098587 0 0.000757823)
(0.102167 0 0.00076064)
(0.105889 0 0.000604125)
(0.109456 0 0.000291807)
(0.00674314 0 -0.000156468)
(0.0193599 0 -0.00045018)
(0.0303431 0 -0.000708845)
(0.0398562 0 -0.000937586)
(0.0480698 0 -0.00113996)
(0.0551163 0 -0.00131911)
(0.0611363 0 -0.00147683)
(0.0662636 0 -0.00161472)
(0.070603 0 -0.00173315)
(0.0742532 0 -0.00183201)
(0.0772956 0 -0.00191029)
(0.0798254 0 -0.0019681)
(0.0819312 0 -0.00200433)
(0.0836814 0 -0.00201617)
(0.0851694 0 -0.00200365)
(0.0864778 0 -0.00196526)
(0.0876744 0 -0.00189861)
(0.0888441 0 -0.00180392)
(0.0900744 0 -0.00168199)
(0.0914543 0 -0.00153519)
(0.0930738 0 -0.00136823)
(0.0950217 0 -0.00118901)
(0.0973802 0 -0.00100928)
(0.100226 0 -0.000845764)
(0.103569 0 -0.000719286)
(0.10738 0 -0.000656863)
(0.111553 0 -0.00068494)
(0.115892 0 -0.0008259)
(0.120086 0 -0.00109213)
(0.123744 0 -0.0014575)
(0.00680464 0 -0.000171505)
(0.019542 0 -0.000493621)
(0.0306591 0 -0.000778037)
(0.0403117 0 -0.00103016)
(0.0486665 0 -0.00125448)
(0.0558661 0 -0.00145356)
(0.0620586 0 -0.0016311)
(0.067376 0 -0.0017884)
(0.0719273 0 -0.00192623)
(0.0758126 0 -0.00204479)
(0.0791211 0 -0.00214362)
(0.0819543 0 -0.00222371)
(0.0843936 0 -0.0022841)
(0.0865285 0 -0.00232431)
(0.0884477 0 -0.00234399)
(0.0902369 0 -0.00234336)
(0.091965 0 -0.00232111)
(0.0937238 0 -0.00227924)
(0.0956044 0 -0.0022206)
(0.0976979 0 -0.00214974)
(0.100095 0 -0.00207346)
(0.102881 0 -0.00200131)
(0.106131 0 -0.0019453)
(0.109938 0 -0.00192507)
(0.114252 0 -0.00195213)
(0.119015 0 -0.00204454)
(0.124077 0 -0.00221399)
(0.129169 0 -0.00246412)
(0.133853 0 -0.00279007)
(0.137628 0 -0.00316612)
(0.00686953 0 -0.000186478)
(0.0197348 0 -0.000536943)
(0.0309823 0 -0.000847088)
(0.0407801 0 -0.00112282)
(0.0492816 0 -0.00136909)
(0.0566394 0 -0.0015889)
(0.0630113 0 -0.00178658)
(0.0685232 0 -0.00196425)
(0.0732902 0 -0.00212275)
(0.0774152 0 -0.00226272)
(0.0809963 0 -0.00238472)
(0.0841309 0 -0.0024896)
(0.0869051 0 -0.00257716)
(0.0894218 0 -0.00264925)
(0.0917573 0 -0.00270499)
(0.0940011 0 -0.00274579)
(0.0962351 0 -0.00277294)
(0.0985497 0 -0.00278966)
(0.101036 0 -0.00280058)
(0.103786 0 -0.00281214)
(0.106888 0 -0.00283293)
(0.110424 0 -0.00287383)
(0.114472 0 -0.00294712)
(0.119106 0 -0.00307041)
(0.124258 0 -0.00324944)
(0.129864 0 -0.00349083)
(0.135755 0 -0.00378825)
(0.141628 0 -0.00412042)
(0.146929 0 -0.00445952)
(0.150982 0 -0.00480366)
(0.00693699 0 -0.00020133)
(0.019935 0 -0.000579957)
(0.0313162 0 -0.000915688)
(0.0412574 0 -0.00121518)
(0.0499067 0 -0.00148332)
(0.0574251 0 -0.00172447)
(0.0639791 0 -0.00194286)
(0.06969 0 -0.00214124)
(0.0746731 0 -0.00232146)
(0.0790365 0 -0.00248403)
(0.0828853 0 -0.00263051)
(0.0863164 0 -0.00276212)
(0.0894216 0 -0.0028798)
(0.0922965 0 -0.00298528)
(0.0950263 0 -0.00307963)
(0.0976991 0 -0.00316512)
(0.100401 0 -0.00324476)
(0.103222 0 -0.00332311)
(0.106251 0 -0.00340637)
(0.109578 0 -0.00350254)
(0.113285 0 -0.00362161)
(0.117452 0 -0.00377549)
(0.122157 0 -0.00397749)
(0.127428 0 -0.00423934)
(0.133226 0 -0.0045665)
(0.139487 0 -0.00495648)
(0.146062 0 -0.00538704)
(0.152683 0 -0.00580724)
(0.15877 0 -0.00614265)
(0.16343 0 -0.00641053)
(0.0070061 0 -0.000215997)
(0.0201397 0 -0.000622468)
(0.0316556 0 -0.000983507)
(0.0417362 0 -0.00130645)
(0.0505342 0 -0.00159649)
(0.0582169 0 -0.00185922)
(0.06495 0 -0.00209902)
(0.0708597 0 -0.00231869)
(0.0760581 0 -0.00252096)
(0.0806533 0 -0.00270685)
(0.0847612 0 -0.00287873)
(0.0884772 0 -0.00303825)
(0.0918948 0 -0.00318714)
(0.095107 0 -0.00332759)
(0.0982017 0 -0.00346196)
(0.101266 0 -0.00359351)
(0.104387 0 -0.00372654)
(0.107651 0 -0.0038668)
(0.111144 0 -0.00402167)
(0.114947 0 -0.00420028)
(0.119138 0 -0.00441353)
(0.123783 0 -0.00467386)
(0.128949 0 -0.00499493)
(0.13464 0 -0.00538624)
(0.14082 0 -0.005854)
(0.14743 0 -0.00639632)
(0.154349 0 -0.00699167)
(0.16138 0 -0.00757797)
(0.168072 0 -0.0080023)
(0.173698 0 -0.00816906)
(0.00438211 0 -0.00155332)
(0.00820772 0 -0.00158263)
(0.0147989 0 -0.00156652)
(0.0232604 0 -0.00153618)
(0.0326931 0 -0.0014946)
(0.0423691 0 -0.00144583)
(0.0517607 0 -0.00138414)
(0.0605459 0 -0.00131533)
(0.0685157 0 -0.001243)
(0.0755462 0 -0.00116943)
(0.081578 0 -0.00109463)
(0.0866056 0 -0.00102018)
(0.090645 0 -0.000946859)
(0.0937082 0 -0.000873132)
(0.0958194 0 -0.000807343)
(0.0970037 0 -0.000744105)
(0.0972735 0 -0.000684183)
(0.096632 0 -0.000627386)
(0.095073 0 -0.000573315)
(0.0925805 0 -0.000521304)
(0.0891329 0 -0.000472121)
(0.0846982 0 -0.000424194)
(0.0792345 0 -0.00037728)
(0.072694 0 -0.000330956)
(0.065025 0 -0.00028497)
(0.0561691 0 -0.000238378)
(0.0460609 0 -0.000190496)
(0.0346336 0 -0.000140511)
(0.0218198 0 -8.74337e-05)
(0.00753271 0 -3.00343e-05)
(0.00830067 0 -0.00455331)
(0.0120581 0 -0.00464145)
(0.0184205 0 -0.00461569)
(0.0265909 0 -0.00454606)
(0.0356792 0 -0.00443267)
(0.0449765 0 -0.00427955)
(0.0540034 0 -0.00409714)
(0.0624656 0 -0.00389557)
(0.0701492 0 -0.00368398)
(0.0769256 0 -0.00346916)
(0.0827325 0 -0.00324911)
(0.0875672 0 -0.00302997)
(0.0914414 0 -0.00281478)
(0.0943693 0 -0.00260277)
(0.0963691 0 -0.0024044)
(0.0974589 0 -0.00221732)
(0.0976506 0 -0.00204003)
(0.0969443 0 -0.00187173)
(0.095332 0 -0.00171132)
(0.0927941 0 -0.00155624)
(0.0893096 0 -0.00141035)
(0.084845 0 -0.00126747)
(0.0793559 0 -0.00112756)
(0.072793 0 -0.000989229)
(0.0651055 0 -0.000852041)
(0.0562343 0 -0.000712841)
(0.0461118 0 -0.000569733)
(0.034671 0 -0.000420293)
(0.0218436 0 -0.000261555)
(0.00754119 0 -8.98516e-05)
(0.0153781 0 -0.00729195)
(0.0191715 0 -0.00745991)
(0.0252252 0 -0.00746428)
(0.0328862 0 -0.00738144)
(0.0413105 0 -0.00721306)
(0.0499138 0 -0.00696929)
(0.0582944 0 -0.00667909)
(0.0661607 0 -0.00635839)
(0.0733065 0 -0.00602072)
(0.0795865 0 -0.00566867)
(0.0849595 0 -0.00531231)
(0.0894255 0 -0.00495816)
(0.092987 0 -0.00461138)
(0.0956534 0 -0.00427496)
(0.0974359 0 -0.00395347)
(0.0983447 0 -0.00364963)
(0.0983845 0 -0.00336094)
(0.0975519 0 -0.00308625)
(0.0958361 0 -0.00282434)
(0.0932109 0 -0.00257294)
(0.0896522 0 -0.00233049)
(0.0851298 0 -0.00209492)
(0.0795914 0 -0.00186439)
(0.0729844 0 -0.00163583)
(0.0652607 0 -0.00140989)
(0.0563604 0 -0.00117981)
(0.0462098 0 -0.000943166)
(0.034743 0 -0.000695944)
(0.0218898 0 -0.000433172)
(0.00755771 0 -0.00014882)
(0.025007 0 -0.00979826)
(0.0288639 0 -0.0100352)
(0.0345748 0 -0.010085)
(0.0415481 0 -0.00999277)
(0.0491169 0 -0.00978156)
(0.056835 0 -0.00947279)
(0.0643482 0 -0.00909396)
(0.0714047 0 -0.0086718)
(0.0777763 0 -0.00821607)
(0.0833598 0 -0.00773899)
(0.0881359 0 -0.00725822)
(0.0920861 0 -0.00678135)
(0.0952074 0 -0.0063148)
(0.0975028 0 -0.00586351)
(0.0989782 0 -0.00543451)
(0.099626 0 -0.00502352)
(0.099447 0 -0.00463111)
(0.0984318 0 -0.00425662)
(0.0965635 0 -0.00389881)
(0.0938158 0 -0.0035566)
(0.0901554 0 -0.00322259)
(0.0855446 0 -0.0028977)
(0.0799351 0 -0.00258036)
(0.0732634 0 -0.00226681)
(0.0654853 0 -0.00195332)
(0.0565442 0 -0.00163478)
(0.0463519 0 -0.00130726)
(0.0348472 0 -0.000964934)
(0.021957 0 -0.000600727)
(0.00758191 0 -0.000206406)
(0.0365589 0 -0.0121213)
(0.0404653 0 -0.0123998)
(0.0457813 0 -0.0124795)
(0.0519849 0 -0.01238)
(0.058615 0 -0.0121363)
(0.0653185 0 -0.0117726)
(0.071811 0 -0.0113175)
(0.0778747 0 -0.0108044)
(0.0833095 0 -0.0102446)
(0.0880694 0 -0.00966242)
(0.0921173 0 -0.00907327)
(0.0954337 0 -0.00848803)
(0.0980106 0 -0.00791463)
(0.0998434 0 -0.00735876)
(0.100928 0 -0.0068287)
(0.101246 0 -0.00632039)
(0.100792 0 -0.00583336)
(0.0995479 0 -0.00536729)
(0.0974883 0 -0.00492074)
(0.0945824 0 -0.00449151)
(0.0907945 0 -0.00407517)
(0.0860758 0 -0.00366962)
(0.0803671 0 -0.00326954)
(0.0736201 0 -0.00287557)
(0.0657839 0 -0.00247906)
(0.0567838 0 -0.00207685)
(0.0465342 0 -0.00166135)
(0.0349798 0 -0.00122561)
(0.0220439 0 -0.000763186)
(0.00761367 0 -0.00026225)
(0.0495029 0 -0.0142964)
(0.0534 0 -0.0145839)
(0.0582533 0 -0.0146631)
(0.0636726 0 -0.0145511)
(0.069321 0 -0.0142759)
(0.0749354 0 -0.0138622)
(0.080304 0 -0.0133392)
(0.0852576 0 -0.0127423)
(0.0896706 0 -0.0120972)
(0.0935054 0 -0.0114247)
(0.096731 0 -0.0107427)
(0.0993282 0 -0.010064)
(0.101283 0 -0.00939772)
(0.102583 0 -0.0087496)
(0.10321 0 -0.00812632)
(0.103148 0 -0.00753066)
(0.102375 0 -0.00695889)
(0.100864 0 -0.00641033)
(0.0985807 0 -0.00588331)
(0.0954886 0 -0.00537518)
(0.0915434 0 -0.00488194)
(0.0866991 0 -0.00440245)
(0.0808834 0 -0.00392745)
(0.0740405 0 -0.00345613)
(0.0661237 0 -0.00298242)
(0.0570578 0 -0.00250108)
(0.046767 0 -0.00200271)
(0.0351555 0 -0.00147796)
(0.0221509 0 -0.00092039)
(0.00765456 0 -0.000316557)
(0.0633929 0 -0.0163261)
(0.0671989 0 -0.0165966)
(0.0715446 0 -0.0166549)
(0.0761596 0 -0.0165175)
(0.0808015 0 -0.0162052)
(0.0852865 0 -0.0157409)
(0.0894763 0 -0.0151551)
(0.093266 0 -0.0144855)
(0.0965974 0 -0.0137658)
(0.099448 0 -0.0130166)
(0.101795 0 -0.0122566)
(0.10362 0 -0.0114995)
(0.104905 0 -0.010755)
(0.105625 0 -0.0100285)
(0.105753 0 -0.00932471)
(0.105276 0 -0.00865346)
(0.104152 0 -0.00800718)
(0.102345 0 -0.00738539)
(0.0998134 0 -0.00678631)
(0.0965132 0 -0.0062071)
(0.0923908 0 -0.00564275)
(0.0873975 0 -0.00509281)
(0.0814613 0 -0.00455043)
(0.0745149 0 -0.00400799)
(0.0665091 0 -0.00346144)
(0.0573675 0 -0.00290404)
(0.0470154 0 -0.00232698)
(0.0353384 0 -0.00171921)
(0.0222543 0 -0.00107062)
(0.00768582 0 -0.00036815)
(0.0778447 0 -0.018195)
(0.0814723 0 -0.0184349)
(0.08527 0 -0.018461)
(0.089062 0 -0.0182871)
(0.0926785 0 -0.0179291)
(0.0960115 0 -0.0174102)
(0.0989989 0 -0.0167636)
(0.101603 0 -0.0160289)
(0.103834 0 -0.015245)
(0.10568 0 -0.0144323)
(0.107127 0 -0.0136089)
(0.108159 0 -0.0127886)
(0.108751 0 -0.0119806)
(0.108874 0 -0.0111909)
(0.108486 0 -0.0104221)
(0.107567 0 -0.00968371)
(0.106071 0 -0.00897341)
(0.103949 0 -0.00828797)
(0.101152 0 -0.00762563)
(0.0976297 0 -0.00698379)
(0.0933188 0 -0.00635761)
(0.088158 0 -0.00574316)
(0.0820869 0 -0.00513668)
(0.0750318 0 -0.00452873)
(0.0669298 0 -0.00391424)
(0.057705 0 -0.0032858)
(0.047278 0 -0.00263421)
(0.0355277 0 -0.00194757)
(0.0223681 0 -0.00121323)
(0.00772336 0 -0.000417115)
(0.0925249 0 -0.0198912)
(0.0959017 0 -0.0200983)
(0.0991181 0 -0.0200875)
(0.102058 0 -0.0198656)
(0.104623 0 -0.0194501)
(0.106787 0 -0.0188698)
(0.108569 0 -0.0181627)
(0.109991 0 -0.0173686)
(0.111141 0 -0.0165319)
(0.111995 0 -0.0156689)
(0.112554 0 -0.0147967)
(0.112799 0 -0.0139279)
(0.112703 0 -0.0130713)
(0.112229 0 -0.0122327)
(0.111331 0 -0.0114154)
(0.109964 0 -0.010623)
(0.108087 0 -0.00985856)
(0.105641 0 -0.00911898)
(0.102567 0 -0.00840189)
(0.0988081 0 -0.00770443)
(0.0942988 0 -0.00702332)
(0.0889693 0 -0.00635154)
(0.082754 0 -0.00568509)
(0.07558 0 -0.00501656)
(0.0673759 0 -0.00433924)
(0.0580625 0 -0.00364487)
(0.0475496 0 -0.00292298)
(0.03572 0 -0.00216232)
(0.0224877 0 -0.00134767)
(0.00776458 0 -0.000463399)
(0.107166 0 -0.0214201)
(0.110243 0 -0.0215992)
(0.112836 0 -0.0215436)
(0.114866 0 -0.0212553)
(0.116334 0 -0.0207654)
(0.117314 0 -0.0201153)
(0.117909 0 -0.0193493)
(0.118199 0 -0.0185051)
(0.118297 0 -0.0176245)
(0.118202 0 -0.0167254)
(0.11791 0 -0.0158192)
(0.117403 0 -0.0149168)
(0.116646 0 -0.0140259)
(0.115595 0 -0.0131518)
(0.114198 0 -0.0122979)
(0.112401 0 -0.0114667)
(0.110148 0 -0.0106599)
(0.107378 0 -0.00987605)
(0.104026 0 -0.00911287)
(0.100027 0 -0.0083675)
(0.0953117 0 -0.00763617)
(0.0898084 0 -0.00691324)
(0.0834453 0 -0.00619346)
(0.0761469 0 -0.00546992)
(0.0678369 0 -0.00473516)
(0.0584341 0 -0.00398028)
(0.0478255 0 -0.00319329)
(0.0359086 0 -0.00236273)
(0.0226107 0 -0.00147357)
(0.0078084 0 -0.000506848)
(0.12159 0 -0.0228147)
(0.124323 0 -0.0229625)
(0.126196 0 -0.0228344)
(0.127207 0 -0.022447)
(0.12751 0 -0.0218617)
(0.1273 0 -0.0211351)
(0.126749 0 -0.0203144)
(0.125984 0 -0.0194337)
(0.125097 0 -0.0185236)
(0.124122 0 -0.0176026)
(0.123047 0 -0.0166774)
(0.121845 0 -0.0157562)
(0.120475 0 -0.0148452)
(0.118884 0 -0.0139487)
(0.117015 0 -0.0130698)
(0.114806 0 -0.0122107)
(0.112193 0 -0.0113723)
(0.109109 0 -0.0105539)
(0.105486 0 -0.00975344)
(0.101251 0 -0.00896825)
(0.0963331 0 -0.00819448)
(0.0906562 0 -0.00742706)
(0.0841443 0 -0.00666037)
(0.0767194 0 -0.00588759)
(0.0683019 0 -0.00510092)
(0.0588 0 -0.00429011)
(0.0480986 0 -0.00344426)
(0.0361022 0 -0.00254915)
(0.0227371 0 -0.00159083)
(0.00785505 0 -0.000547421)
(0.13571 0 -0.0241229)
(0.137983 0 -0.0242044)
(0.138925 0 -0.0239406)
(0.138746 0 -0.0234081)
(0.137819 0 -0.0227099)
(0.13644 0 -0.0219101)
(0.134825 0 -0.0210483)
(0.133101 0 -0.0201478)
(0.131348 0 -0.0192282)
(0.1296 0 -0.0183028)
(0.127834 0 -0.0173746)
(0.126015 0 -0.0164492)
(0.124096 0 -0.0155315)
(0.122018 0 -0.0146251)
(0.119717 0 -0.0137327)
(0.117127 0 -0.0128561)
(0.114178 0 -0.0119962)
(0.110798 0 -0.0111525)
(0.106916 0 -0.0103234)
(0.102455 0 -0.00950623)
(0.0973405 0 -0.00869743)
(0.0914936 0 -0.0078922)
(0.084835 0 -0.00708487)
(0.0772844 0 -0.00626867)
(0.0687623 0 -0.005436)
(0.0591556 0 -0.00457474)
(0.0483585 0 -0.00367418)
(0.0362925 0 -0.00272081)
(0.022867 0 -0.00169941)
(0.00790736 0 -0.000585422)
(0.149456 0 -0.0253696)
(0.150943 0 -0.0252839)
(0.150587 0 -0.0247847)
(0.149036 0 -0.0240699)
(0.146873 0 -0.0232661)
(0.144427 0 -0.022418)
(0.141893 0 -0.0215432)
(0.139367 0 -0.0206487)
(0.136893 0 -0.019742)
(0.134503 0 -0.0188309)
(0.13216 0 -0.0179158)
(0.129821 0 -0.0170007)
(0.127431 0 -0.0160892)
(0.124929 0 -0.0151846)
(0.122247 0 -0.0142893)
(0.119315 0 -0.0134052)
(0.11606 0 -0.0125331)
(0.11241 0 -0.0116728)
(0.108286 0 -0.0108231)
(0.103614 0 -0.00998154)
(0.0983124 0 -0.00914477)
(0.0923026 0 -0.00830825)
(0.0855022 0 -0.0074664)
(0.0778278 0 -0.00661246)
(0.0691968 0 -0.00573877)
(0.0594931 0 -0.00483361)
(0.0486105 0 -0.00388374)
(0.0364729 0 -0.00287724)
(0.0229809 0 -0.00179785)
(0.00794856 0 -0.000619623)
(0.16246 0 -0.0264702)
(0.162486 0 -0.0260134)
(0.160444 0 -0.0251979)
(0.157492 0 -0.0243322)
(0.154257 0 -0.023484)
(0.150973 0 -0.0226439)
(0.147752 0 -0.0217998)
(0.144638 0 -0.0209445)
(0.141638 0 -0.0200762)
(0.138762 0 -0.0191983)
(0.13597 0 -0.0183122)
(0.133215 0 -0.0174207)
(0.130441 0 -0.0165274)
(0.127583 0 -0.0156353)
(0.124575 0 -0.014747)
(0.121344 0 -0.0138643)
(0.117819 0 -0.0129885)
(0.113923 0 -0.0121195)
(0.10958 0 -0.0112566)
(0.104711 0 -0.0103975)
(0.0992352 0 -0.00953923)
(0.0930715 0 -0.00867748)
(0.0861355 0 -0.00780677)
(0.0783409 0 -0.00692036)
(0.0695979 0 -0.00601008)
(0.0598012 0 -0.00506537)
(0.0488453 0 -0.00407242)
(0.036638 0 -0.00301816)
(0.0230773 0 -0.00188605)
(0.00797949 0 -0.000649965)
(0.173008 0 -0.0269541)
(0.171062 0 -0.0259104)
(0.167496 0 -0.0249305)
(0.163607 0 -0.0241064)
(0.159738 0 -0.0233467)
(0.15598 0 -0.0225977)
(0.152364 0 -0.0218358)
(0.148897 0 -0.0210523)
(0.145569 0 -0.0202464)
(0.142368 0 -0.0194206)
(0.139257 0 -0.018578)
(0.13619 0 -0.0177225)
(0.133114 0 -0.0168579)
(0.129968 0 -0.0159877)
(0.126687 0 -0.0151148)
(0.123202 0 -0.0142415)
(0.11944 0 -0.0133692)
(0.115326 0 -0.0124985)
(0.110784 0 -0.0116288)
(0.105735 0 -0.0107583)
(0.100099 0 -0.00988436)
(0.0937912 0 -0.00900282)
(0.0867274 0 -0.00810843)
(0.0788191 0 -0.0071945)
(0.0699733 0 -0.00625273)
(0.0600881 0 -0.00527262)
(0.0490592 0 -0.00424117)
(0.0367845 0 -0.00314416)
(0.023152 0 -0.00196411)
(0.00799666 0 -0.000676233)
(0.00707672 0 -0.000230587)
(0.0203486 0 -0.000664791)
(0.0320007 0 -0.0010512)
(0.0422167 0 -0.00139751)
(0.0511666 0 -0.00171001)
(0.0590197 0 -0.0019949)
(0.0659331 0 -0.00225665)
(0.07204 0 -0.00249869)
(0.0774469 0 -0.00272321)
(0.0822728 0 -0.00293338)
(0.0866329 0 -0.00313166)
(0.0906226 0 -0.00332016)
(0.0943357 0 -0.00350127)
(0.0978634 0 -0.00367782)
(0.101293 0 -0.00385309)
(0.104711 0 -0.00403122)
(0.1082 0 -0.00421745)
(0.111841 0 -0.0044184)
(0.115714 0 -0.00464217)
(0.119889 0 -0.00489848)
(0.124431 0 -0.00519851)
(0.129391 0 -0.00555471)
(0.134816 0 -0.00598094)
(0.140673 0 -0.00648434)
(0.146915 0 -0.00707484)
(0.153464 0 -0.00776103)
(0.160174 0 -0.00855351)
(0.166799 0 -0.00948371)
(0.172925 0 -0.0106579)
(0.178298 0 -0.0124829)
(0.00714797 0 -0.000245114)
(0.0205591 0 -0.000706928)
(0.0323484 0 -0.00111865)
(0.0427049 0 -0.00148873)
(0.0518085 0 -0.00182418)
(0.0598294 0 -0.00213153)
(0.0669214 0 -0.00241566)
(0.0732182 0 -0.0026804)
(0.0788338 0 -0.00292852)
(0.0838894 0 -0.00316402)
(0.0884932 0 -0.00338954)
(0.0927431 0 -0.0036078)
(0.096732 0 -0.00382177)
(0.100549 0 -0.00403485)
(0.10428 0 -0.00425101)
(0.108005 0 -0.00447502)
(0.111804 0 -0.0047127)
(0.115749 0 -0.00497106)
(0.119908 0 -0.00525837)
(0.124339 0 -0.0055842)
(0.12909 0 -0.00595919)
(0.134191 0 -0.00639488)
(0.13965 0 -0.00690305)
(0.145412 0 -0.00749021)
(0.151405 0 -0.00816746)
(0.157505 0 -0.00894656)
(0.163524 0 -0.00984597)
(0.169199 0 -0.0109049)
(0.174181 0 -0.0121983)
(0.178133 0 -0.0138661)
(0.00721811 0 -0.000259388)
(0.0207667 0 -0.00074837)
(0.0326913 0 -0.00118497)
(0.0431877 0 -0.00157856)
(0.0524426 0 -0.00193691)
(0.0606257 0 -0.00226653)
(0.0678909 0 -0.002573)
(0.0743727 0 -0.0028606)
(0.0801912 0 -0.00313295)
(0.0854628 0 -0.00339388)
(0.0902943 0 -0.00364662)
(0.0947829 0 -0.00389442)
(0.0990201 0 -0.00414069)
(0.103092 0 -0.0043893)
(0.107079 0 -0.00464463)
(0.111058 0 -0.0049118)
(0.115099 0 -0.00519681)
(0.119265 0 -0.0055066)
(0.123612 0 -0.00584907)
(0.128182 0 -0.00623295)
(0.133002 0 -0.00666757)
(0.13808 0 -0.00716249)
(0.143393 0 -0.0077267)
(0.148877 0 -0.00836747)
(0.154435 0 -0.00909372)
(0.159926 0 -0.00991557)
(0.165167 0 -0.0108511)
(0.16991 0 -0.0119213)
(0.17387 0 -0.0131577)
(0.17682 0 -0.0146418)
(0.00728577 0 -0.000273288)
(0.0209675 0 -0.00078877)
(0.033024 0 -0.00124973)
(0.0436565 0 -0.00166627)
(0.0530575 0 -0.00204703)
(0.0613973 0 -0.00239886)
(0.0688279 0 -0.00272735)
(0.0754861 0 -0.00303759)
(0.0814937 0 -0.00333368)
(0.0869645 0 -0.00361956)
(0.0920029 0 -0.00389888)
(0.0967047 0 -0.00417526)
(0.101158 0 -0.00445246)
(0.105446 0 -0.00473461)
(0.109643 0 -0.00502629)
(0.113819 0 -0.00533268)
(0.118035 0 -0.00565964)
(0.122344 0 -0.00601368)
(0.126788 0 -0.00640192)
(0.131395 0 -0.0068319)
(0.136174 0 -0.00731127)
(0.141113 0 -0.00784747)
(0.146174 0 -0.00844731)
(0.151283 0 -0.00911675)
(0.15634 0 -0.00986327)
(0.16121 0 -0.0106938)
(0.165715 0 -0.0116147)
(0.169648 0 -0.012631)
(0.172831 0 -0.0137624)
(0.175105 0 -0.0150494)
(0.00734955 0 -0.000286687)
(0.0211576 0 -0.000827758)
(0.0333404 0 -0.00131233)
(0.0441036 0 -0.00175121)
(0.0536431 0 -0.00215359)
(0.0621312 0 -0.002527)
(0.0697192 0 -0.00287733)
(0.0765423 0 -0.00320962)
(0.0827238 0 -0.00352874)
(0.0883749 0 -0.00383873)
(0.0935979 0 -0.00414357)
(0.0984855 0 -0.00444712)
(0.103123 0 -0.00475334)
(0.107586 0 -0.00506646)
(0.111947 0 -0.00539105)
(0.116265 0 -0.00573213)
(0.120595 0 -0.00609514)
(0.124978 0 -0.00648592)
(0.129444 0 -0.00691059)
(0.134008 0 -0.0073753)
(0.138665 0 -0.00788601)
(0.143392 0 -0.00844813)
(0.14814 0 -0.00906639)
(0.152848 0 -0.00974741)
(0.157407 0 -0.0104926)
(0.161681 0 -0.0113018)
(0.165532 0 -0.012175)
(0.168823 0 -0.0131159)
(0.171434 0 -0.0141317)
(0.173259 0 -0.0152303)
(0.00740809 0 -0.000299442)
(0.0213331 0 -0.000864932)
(0.0336343 0 -0.00137213)
(0.0445207 0 -0.00183247)
(0.0541904 0 -0.00225571)
(0.0628162 0 -0.00264973)
(0.07055 0 -0.00302104)
(0.0775259 0 -0.00337487)
(0.0838649 0 -0.00371605)
(0.0896765 0 -0.00404896)
(0.0950604 0 -0.00437788)
(0.100106 0 -0.00470678)
(0.104894 0 -0.00503967)
(0.109496 0 -0.00538073)
(0.113975 0 -0.00573437)
(0.118388 0 -0.00610525)
(0.122776 0 -0.00649822)
(0.127175 0 -0.00691832)
(0.131602 0 -0.00737055)
(0.136064 0 -0.00785972)
(0.140547 0 -0.0083902)
(0.145022 0 -0.0089657)
(0.149446 0 -0.00959081)
(0.153746 0 -0.0102668)
(0.157817 0 -0.0109899)
(0.16156 0 -0.0117598)
(0.164874 0 -0.0125749)
(0.167663 0 -0.0134341)
(0.169848 0 -0.0143358)
(0.171369 0 -0.015272)
(0.00746008 0 -0.000311406)
(0.0214902 0 -0.000899864)
(0.0338997 0 -0.00142845)
(0.0448998 0 -0.00190915)
(0.0546898 0 -0.00235221)
(0.0634422 0 -0.00276586)
(0.0713083 0 -0.00315688)
(0.0784217 0 -0.00353102)
(0.084901 0 -0.00389314)
(0.0908534 0 -0.00424778)
(0.096374 0 -0.00459895)
(0.10155 0 -0.00495105)
(0.106456 0 -0.0053079)
(0.11116 0 -0.00567357)
(0.115719 0 -0.00605213)
(0.120182 0 -0.00644778)
(0.124584 0 -0.00686471)
(0.12895 0 -0.00730706)
(0.133295 0 -0.00777876)
(0.137615 0 -0.00828338)
(0.141894 0 -0.00882393)
(0.146104 0 -0.00940339)
(0.150195 0 -0.0100226)
(0.154095 0 -0.0106788)
(0.157729 0 -0.0113701)
(0.16102 0 -0.0120941)
(0.163896 0 -0.0128472)
(0.166291 0 -0.0136253)
(0.168156 0 -0.0144217)
(0.169459 0 -0.015224)
(0.00750425 0 -0.00032242)
(0.0216254 0 -0.000932099)
(0.0341312 0 -0.00148056)
(0.0452337 0 -0.00198027)
(0.0551322 0 -0.00244187)
(0.0639988 0 -0.00287391)
(0.0719834 0 -0.00328343)
(0.0792178 0 -0.00367633)
(0.0858189 0 -0.00405772)
(0.0918909 0 -0.0044323)
(0.0975254 0 -0.004804)
(0.102804 0 -0.00517683)
(0.107799 0 -0.00555466)
(0.112572 0 -0.00594141)
(0.117176 0 -0.00634066)
(0.121651 0 -0.00675612)
(0.126029 0 -0.00719127)
(0.130328 0 -0.00764935)
(0.134557 0 -0.0081333)
(0.138712 0 -0.00864565)
(0.142774 0 -0.00918844)
(0.146712 0 -0.00976235)
(0.150475 0 -0.0103652)
(0.154012 0 -0.0109952)
(0.157264 0 -0.0116495)
(0.160175 0 -0.0123246)
(0.162693 0 -0.0130158)
(0.164776 0 -0.0137174)
(0.166394 0 -0.0144209)
(0.167534 0 -0.0151138)
(0.00753944 0 -0.000332322)
(0.0217353 0 -0.000961165)
(0.0343235 0 -0.00152771)
(0.0455153 0 -0.00204482)
(0.0555095 0 -0.00252343)