/*--------------------------------*- C++ -*----------------------------------*\
| =========                 |                                                 |
| \\      /  F ield         | OpenFOAM: The Open Source CFD Toolbox           |
|  \\    /   O peration     | Version:  dev                                   |
|   \\  /    A nd           | Web:      www.OpenFOAM.org                      |
|    \\/     M anipulation  |                                                 |
\*---------------------------------------------------------------------------*/
FoamFile
{
    version     2.0;
    format      ascii;
    class       volVectorField;
    location    "0.3";
    object      Force;
}
// * * * * * * * * * * * * * * * * * * * * * * * * * * * * * * * * * * * * * //

dimensions      [1 1 -2 0 0 0 0];

internalField   uniform (0 0 0);

boundaryField
{
    inlet
    {
        type            calculated;
        value           uniform (0 0 0);
    }
    outlet
    {
        type            calculated;
        value           uniform (0 0 0);
    }
    flap
    {
        type            calculated;
        value           nonuniform List<vector> 
33
(
(2.25885 -3.72712e-19 -0.0529971)
(2.24554 -1.68984e-18 -0.100267)
(2.22883 1.66878e-18 -0.13348)
(2.20611 -1.48912e-18 -0.147795)
(2.17701 1.56519e-19 -0.148556)
(2.14058 1.77908e-18 -0.138788)
(2.0965 -1.64035e-21 -0.119973)
(2.04481 1.59628e-18 -0.0939478)
(1.98265 -2.27072e-18 -0.0645258)
(1.90441 1.59294e-18 -0.035735)
(1.80108 -1.19031e-22 -0.0102241)
(1.65755 -1.6046e-18 0.00904522)
(1.44562 1.22802e-19 0.0198861)
(1.1035 -1.86686e-19 0.0219042)
(0.461351 1.52376e-22 0.0145538)
(-0.0177063 -7.98177e-19 1.55805)
(-0.0214266 8.02061e-19 1.34182)
(-0.014325 1.61104e-18 1.09563)
(1.55341 1.54011e-18 -0.0374926)
(1.56158 1.03293e-18 -0.0696737)
(1.57646 -1.5924e-18 -0.0941064)
(1.60294 1.6173e-18 -0.106707)
(1.64259 -1.6318e-18 -0.11117)
(1.69642 5.01326e-19 -0.108928)
(1.76281 1.65895e-18 -0.0996716)
(1.83515 -1.66885e-18 -0.0832104)
(1.90414 6.3764e-19 -0.0612002)
(1.95969 1.67119e-18 -0.0365535)
(1.99324 3.33382e-18 -0.0120873)
(1.99926 -4.85394e-23 0.00891614)
(1.97698 -9.9832e-23 0.0231932)
(1.93079 -3.25227e-19 0.0300749)
(1.86704 -3.15394e-19 0.029514)
)
;
    }
    upperWall
    {
        type            calculated;
        value           uniform (0 0 0);
    }
    lowerWall
    {
        type            calculated;
        value           uniform (0 0 0);
    }
    frontAndBack
    {
        type            empty;
    }
}


// ************************************************************************* //
