/*--------------------------------*- C++ -*----------------------------------*\
| =========                 |                                                 |
| \\      /  F ield         | OpenFOAM: The Open Source CFD Toolbox           |
|  \\    /   O peration     | Version:  dev                                   |
|   \\  /    A nd           | Web:      www.OpenFOAM.org                      |
|    \\/     M anipulation  |                                                 |
\*---------------------------------------------------------------------------*/
FoamFile
{
    version     2.0;
    format      ascii;
    class       pointVectorField;
    location    "3.27";
    object      pointDisplacement;
}
// * * * * * * * * * * * * * * * * * * * * * * * * * * * * * * * * * * * * * //

dimensions      [0 1 0 0 0 0 0];

internalField   nonuniform List<vector> 
1034
(
(0 0 0)
(0.00953741 0 -0.000105636)
(0.0182138 0 -0.000200783)
(0 0 0)
(0.00953741 0 -0.000105636)
(0.0182138 0 -0.000200783)
(0 0 0)
(0.00964395 0 -0.000115797)
(0.0184243 0 -0.000220535)
(0.0261658 0 -0.000311485)
(0 0 0)
(0.00974944 0 -0.000126341)
(0.0186327 0 -0.000241031)
(0.0264768 0 -0.000341452)
(0.0334085 0 -0.000428797)
(0 0 0)
(0.00985184 0 -0.000137183)
(0.0188352 0 -0.000262115)
(0.0267793 0 -0.000372285)
(0.0338142 0 -0.000469296)
(0.0400571 0 -0.00055447)
(0 0 0)
(0.00994929 0 -0.000148236)
(0.0190285 0 -0.000283642)
(0.0270686 0 -0.000403798)
(0.0342027 0 -0.000510696)
(0.0405502 0 -0.000606043)
(0.0462166 0 -0.000691258)
(0 0 0)
(0.01004 0 -0.000159397)
(0.0192091 0 -0.000305409)
(0.0273402 0 -0.00043572)
(0.0345682 0 -0.000552676)
(0.0410143 0 -0.000658332)
(0.0467854 0 -0.000754456)
(0.0519768 0 -0.000842597)
(0 0 0)
(0.0101222 0 -0.000170548)
(0.0193738 0 -0.000327184)
(0.0275891 0 -0.000467705)
(0.0349046 0 -0.000594809)
(0.0414425 0 -0.000710842)
(0.04731 0 -0.000817872)
(0.0526026 0 -0.000917744)
(0.0574059 0 -0.00101221)
(0.0617974 0 -0.00110307)
(0 0 0)
(0.0101942 0 -0.000181552)
(0.0195194 0 -0.000348703)
(0.027811 0 -0.000499366)
(0.0352063 0 -0.000636573)
(0.0418278 0 -0.000762953)
(0.0477828 0 -0.000880803)
(0.053166 0 -0.000992217)
(0.0580622 0 -0.00109916)
(0.0625474 0 -0.0012036)
(0.0666901 0 -0.00130751)
(0 0 0)
(0.0102543 0 -0.000192259)
(0.0196427 0 -0.000369675)
(0.0280014 0 -0.00053027)
(0.0354677 0 -0.000677395)
(0.042164 0 -0.000813938)
(0.0481966 0 -0.00094241)
(0.0536595 0 -0.00106508)
(0.0586361 0 -0.00118408)
(0.0632008 0 -0.00130153)
(0.0674201 0 -0.00141951)
(0.0713527 0 -0.00154017)
(0.0750513 0 -0.00166583)
(0 0 0)
(0.0103013 0 -0.000202505)
(0.0197411 0 -0.000389777)
(0.0281565 0 -0.000559949)
(0.0356841 0 -0.000716657)
(0.0424451 0 -0.000863021)
(0.048545 0 -0.00100174)
(0.0540763 0 -0.00113523)
(0.0591208 0 -0.00126574)
(0.063751 0 -0.00139545)
(0.068031 0 -0.00152651)
(0.0720176 0 -0.00166109)
(0.0757602 0 -0.00180144)
(0.0793017 0 -0.00194988)
(0.082678 0 -0.00210884)
(0 0 0)
(0.0103338 0 -0.000212113)
(0.0198122 0 -0.000408668)
(0.028273 0 -0.0005879)
(0.0358511 0 -0.000753696)
(0.0426664 0 -0.000909377)
(0.0488227 0 -0.00105779)
(0.0544108 0 -0.00120148)
(0.0595107 0 -0.00134276)
(0.0641928 0 -0.00148385)
(0.068519 0 -0.00162688)
(0.0725435 0 -0.00177399)
(0.0763133 0 -0.00192732)
(0.0798684 0 -0.00208904)
(0.0832421 0 -0.00226131)
(0.0864612 0 -0.0024463)
(0 0 0)
(0.0103509 0 -0.000220914)
(0.0198542 0 -0.00042602)
(0.0283483 0 -0.000613642)
(0.0359657 0 -0.000787884)
(0.0428242 0 -0.000952227)
(0.0490257 0 -0.00110964)
(0.0546591 0 -0.00126275)
(0.0598022 0 -0.0014139)
(0.0645232 0 -0.0015653)
(0.0688819 0 -0.00171906)
(0.0729301 0 -0.00187721)
(0.0767124 0 -0.00204173)
(0.0802664 0 -0.00221459)
(0.0836231 0 -0.0023977)
(0.0868076 0 -0.00259293)
(0.0898382 0 -0.00280194)
(0.0927254 0 -0.00302616)
(0 0 0)
(0.0103518 0 -0.000228734)
(0.0198657 0 -0.000441491)
(0.0283804 0 -0.000636677)
(0.0360254 0 -0.000818565)
(0.0429159 0 -0.00099076)
(0.0491514 0 -0.00115632)
(0.0548185 0 -0.00131789)
(0.0599928 0 -0.00147786)
(0.0647405 0 -0.00163837)
(0.069119 0 -0.00180145)
(0.073178 0 -0.00196901)
(0.0769598 0 -0.00214285)
(0.0805003 0 -0.00232469)
(0.0838284 0 -0.00251616)
(0.0869676 0 -0.00271875)
(0.0899346 0 -0.00293371)
(0.0927402 0 -0.00316204)
(0.0953902 0 -0.00340448)
(0.0978858 0 -0.00366144)
(0 0 0)
(0.0103362 0 -0.000235357)
(0.0198456 0 -0.000454657)
(0.0283678 0 -0.000656382)
(0.0360283 0 -0.000844924)
(0.0429392 0 -0.00102397)
(0.0491972 0 -0.00119663)
(0.0548867 0 -0.00136555)
(0.0600809 0 -0.00153309)
(0.0648436 0 -0.00170134)
(0.0692302 0 -0.0018722)
(0.0732885 0 -0.00204743)
(0.0770589 0 -0.00222864)
(0.0805754 0 -0.00241731)
(0.0838658 0 -0.00261474)
(0.0869521 0 -0.00282208)
(0.0898506 0 -0.00304023)
(0.0925725 0 -0.00326985)
(0.0951245 0 -0.00351129)
(0.0975092 0 -0.00376452)
(0.0997258 0 -0.00402913)
(0.101771 0 -0.00430418)
(0 0 0)
(0.0103036 0 -0.000240561)
(0.0197935 0 -0.000465088)
(0.0283096 0 -0.000672129)
(0.0359734 0 -0.000866144)
(0.0428931 0 -0.00105086)
(0.0491626 0 -0.0012294)
(0.0548635 0 -0.00140438)
(0.0600667 0 -0.00157811)
(0.0648338 0 -0.00175258)
(0.0692183 0 -0.00192958)
(0.0732659 0 -0.00211069)
(0.0770158 0 -0.00229731)
(0.0805004 0 -0.00249068)
(0.0837465 0 -0.00269184)
(0.0867755 0 -0.00290162)
(0.0896035 0 -0.00312061)
(0.0922423 0 -0.00334913)
(0.0946995 0 -0.00358723)
(0.0969796 0 -0.00383463)
(0.0990842 0 -0.00409068)
(0.101012 0 -0.00435414)
(0 0 0)
(0.0102543 0 -0.000244147)
(0.0197095 0 -0.000472394)
(0.0282062 0 -0.000683347)
(0.0358611 0 -0.000881484)
(0.0427783 0 -0.00107053)
(0.0490486 0 -0.00125357)
(0.0547506 0 -0.0014332)
(0.0599529 0 -0.00161161)
(0.0647149 0 -0.0017907)
(0.0690883 0 -0.00197212)
(0.0731171 0 -0.00215727)
(0.0768391 0 -0.00234736)
(0.0802859 0 -0.0025434)
(0.0834833 0 -0.00274617)
(0.0864526 0 -0.00295625)
(0.08921 0 -0.00317396)
(0.091768 0 -0.00339937)
(0.0941356 0 -0.00363229)
(0.0963188 0 -0.00387224)
(0.0983209 0 -0.00411832)
(0.100143 0 -0.00436921)
(0 0 0)
(0.0101885 0 -0.00024592)
(0.0195943 0 -0.000476193)
(0.0280587 0 -0.000689479)
(0.0356929 0 -0.000890219)
(0.042597 0 -0.0010821)
(0.0488579 0 -0.00126813)
(0.0545515 0 -0.00145084)
(0.0597439 0 -0.00163232)
(0.0644926 0 -0.00181434)
(0.0688472 0 -0.00199841)
(0.0728505 0 -0.00218575)
(0.0765391 0 -0.0023774)
(0.0799437 0 -0.00257413)
(0.08309 0 -0.00277654)
(0.0859988 0 -0.00298495)
(0.088687 0 -0.00319948)
(0.0911678 0 -0.00342002)
(0.0934514 0 -0.00364618)
(0.0955455 0 -0.00387735)
(0.0974545 0 -0.00411244)
(0 0 0)
(0.0101073 0 -0.000245691)
(0.0194496 0 -0.000476115)
(0.0278693 0 -0.000689982)
(0.0354718 0 -0.000891646)
(0.0423524 0 -0.0010847)
(0.0485947 0 -0.00127209)
(0.0542713 0 -0.0014562)
(0.059446 0 -0.00163904)
(0.064174 0 -0.00182223)
(0.0685036 0 -0.00200713)
(0.0724762 0 -0.00219482)
(0.0761273 0 -0.00238612)
(0.0794871 0 -0.00258166)
(0.082581 0 -0.00278181)
(0.08543 0 -0.00298675)
(0.0880514 0 -0.00319641)
(0.0904594 0 -0.00341051)
(0.092665 0 -0.00362857)
(0.0946775 0 -0.00384987)
(0.0965029 0 -0.00407325)
(0 0 0)
(0.0100117 0 -0.000243283)
(0.0192776 0 -0.000471809)
(0.027641 0 -0.000684339)
(0.0352015 0 -0.00088509)
(0.0420496 0 -0.00107753)
(0.0482647 0 -0.00126448)
(0.0539167 0 -0.00144822)
(0.0590668 0 -0.00163061)
(0.0637683 0 -0.00181314)
(0.0680678 0 -0.00199703)
(0.0720057 0 -0.00218318)
(0.0756165 0 -0.00237228)
(0.0789301 0 -0.00256478)
(0.0819717 0 -0.00276091)
(0.0847626 0 -0.00296068)
(0.0873205 0 -0.00316392)
(0.0896603 0 -0.00337022)
(0.0917943 0 -0.00357902)
(0.0937329 0 -0.00378958)
(0.0954832 0 -0.00400071)
(0 0 0)
(0.00990329 0 -0.000238528)
(0.0190811 0 -0.000462942)
(0.027378 0 -0.000672057)
(0.0348873 0 -0.000869908)
(0.0416945 0 -0.00105981)
(0.0478752 0 -0.00124441)
(0.0534961 0 -0.00142588)
(0.0586159 0 -0.00160592)
(0.063286 0 -0.0017859)
(0.0675517 0 -0.00196687)
(0.071452 0 -0.00214962)
(0.0750211 0 -0.00233467)
(0.0782882 0 -0.00252234)
(0.0812785 0 -0.00271274)
(0.0840136 0 -0.00290576)
(0.0865117 0 -0.00310112)
(0.0887884 0 -0.00329837)
(0.0908571 0 -0.0034969)
(0.0927289 0 -0.00369595)
(0.0944124 0 -0.00389436)
(0 0 0)
(0.00978404 0 -0.000231271)
(0.0188637 0 -0.000449205)
(0.0270853 0 -0.000652677)
(0.0345355 0 -0.000845495)
(0.0412948 0 -0.00103078)
(0.0474349 0 -0.00121102)
(0.0530193 0 -0.00138821)
(0.0581043 0 -0.00156393)
(0.0627395 0 -0.00173939)
(0.0669686 0 -0.00191551)
(0.0708298 0 -0.00209294)
(0.0743565 0 -0.00227209)
(0.0775777 0 -0.00245317)
(0.0805186 0 -0.00263616)
(0.0832009 0 -0.0028209)
(0.0856434 0 -0.00300702)
(0.0878622 0 -0.00319405)
(0.0898715 0 -0.00338135)
(0.0916836 0 -0.00356818)
(0.0933075 0 -0.00375343)
(0 0 0)
(0.00965622 0 -0.000221373)
(0.0186299 0 -0.000430315)
(0.026769 0 -0.000625772)
(0.0341537 0 -0.000811288)
(0.0408596 0 -0.000989758)
(0.0469541 0 -0.00116349)
(0.0524979 0 -0.0013343)
(0.0575448 0 -0.00150361)
(0.0621426 0 -0.00167251)
(0.0663335 0 -0.00184178)
(0.070155 0 -0.00201196)
(0.0736397 0 -0.00218334)
(0.0768165 0 -0.00235605)
(0.0797104 0 -0.00252999)
(0.0823433 0 -0.00270493)
(0.0847345 0 -0.00288047)
(0.0869007 0 -0.00305612)
(0.0888567 0 -0.00323125)
(0.0906154 0 -0.00340516)
(0.0921866 0 -0.00357678)
(0 0 0)
(0.00952247 0 -0.000208709)
(0.0183845 0 -0.000406018)
(0.026436 0 -0.000590956)
(0.0337507 0 -0.000766768)
(0.0403991 0 -0.000936099)
(0.0464447 0 -0.00110105)
(0.0519452 0 -0.00126326)
(0.0569518 0 -0.001424)
(0.0615108 0 -0.00158421)
(0.0656632 0 -0.00174457)
(0.0694452 0 -0.00190549)
(0.0728892 0 -0.0020672)
(0.0760236 0 -0.00222973)
(0.0788734 0 -0.00239293)
(0.0814609 0 -0.00255654)
(0.0838053 0 -0.00272015)
(0.0859241 0 -0.00288324)
(0.0878324 0 -0.00304523)
(0.0895439 0 -0.00320545)
(0.0910687 0 -0.00336292)
(0 0 0)
(0.00938581 0 -0.000193169)
(0.0181333 0 -0.000376088)
(0.0260944 0 -0.000547881)
(0.0333365 0 -0.000711465)
(0.0399252 0 -0.000869211)
(0.0459201 0 -0.001023)
(0.0513759 0 -0.00117428)
(0.0563416 0 -0.00132417)
(0.0608617 0 -0.00147348)
(0.0649759 0 -0.00162276)
(0.0687198 0 -0.00177235)
(0.072125 0 -0.0019224)
(0.0752198 0 -0.00207287)
(0.078029 0 -0.0022236)
(0.080575 0 -0.00237428)
(0.0828774 0 -0.0025245)
(0.0849538 0 -0.00267379)
(0.0868201 0 -0.00282158)
(0.0884901 0 -0.00296727)
(0.0899745 0 -0.00310993)
(0 0 0)
(0.00924965 0 -0.000174663)
(0.0178828 0 -0.000340335)
(0.0257533 0 -0.000496248)
(0.0329226 0 -0.000644962)
(0.0394513 0 -0.000788559)
(0.0453955 0 -0.000928677)
(0.0508067 0 -0.00106658)
(0.055732 0 -0.00120323)
(0.0602143 0 -0.0013393)
(0.064292 0 -0.00147525)
(0.0679998 0 -0.00161132)
(0.0713691 0 -0.00174762)
(0.0744275 0 -0.00188406)
(0.0772 0 -0.00202045)
(0.0797089 0 -0.00215649)
(0.081974 0 -0.00229179)
(0.0840134 0 -0.00242589)
(0.0858429 0 -0.00255828)
(0.087477 0 -0.00268842)
(0.0889265 0 -0.00281547)
(0 0 0)
(0.00911785 0 -0.000153121)
(0.0176403 0 -0.000298606)
(0.025423 0 -0.000435807)
(0.0325218 0 -0.000566906)
(0.0389925 0 -0.000693676)
(0.0448877 0 -0.000817506)
(0.0502563 0 -0.000939466)
(0.0551433 0 -0.00106035)
(0.0595899 0 -0.00118072)
(0.0636337 0 -0.00130093)
(0.0673086 0 -0.00142117)
(0.0706453 0 -0.00154148)
(0.0736712 0 -0.00166176)
(0.0764113 0 -0.00178181)
(0.0788878 0 -0.00190134)
(0.0811207 0 -0.00202)
(0.083128 0 -0.00213735)
(0.0849261 0 -0.00225296)
(0.0865297 0 -0.00236632)
(0.0879496 0 -0.00247673)
(0 0 0)
(0.00899483 0 -0.000128495)
(0.0174141 0 -0.000250792)
(0.0251154 0 -0.000366372)
(0.0321488 0 -0.000477018)
(0.0385659 0 -0.000584177)
(0.044416 0 -0.000688982)
(0.0497455 0 -0.000792299)
(0.0545976 0 -0.000894765)
(0.0590122 0 -0.000996822)
(0.0630259 0 -0.00109874)
(0.0666717 0 -0.00120066)
(0.06998 0 -0.00130257)
(0.0729779 0 -0.00140437)
(0.0756903 0 -0.00150587)
(0.0781393 0 -0.00160681)
(0.080345 0 -0.00170686)
(0.0823257 0 -0.00180567)
(0.0840977 0 -0.00190283)
(0.0856759 0 -0.00199795)
(0.0870714 0 -0.0020904)
(0 0 0)
(0.0088857 0 -0.000100767)
(0.017214 0 -0.000196839)
(0.0248438 0 -0.000287832)
(0.0318202 0 -0.000375109)
(0.0381907 0 -0.00045978)
(0.0440017 0 -0.00054271)
(0.0492976 0 -0.000624556)
(0.0541199 0 -0.000705801)
(0.0585074 0 -0.000786771)
(0.0624956 0 -0.000867661)
(0.0661173 0 -0.000948553)
(0.0694021 0 -0.00102943)
(0.0723772 0 -0.00111019)
(0.075067 0 -0.00119068)
(0.0774939 0 -0.00127066)
(0.0796778 0 -0.00134986)
(0.0816372 0 -0.001428)
(0.0833884 0 -0.00150475)
(0.0849466 0 -0.00157979)
(0.0863228 0 -0.00165261)
(0 0 0)
(0.00879664 0 -6.9952e-05)
(0.0170514 0 -0.000136758)
(0.0246242 0 -0.000200168)
(0.0315553 0 -0.00026111)
(0.037889 0 -0.000320337)
(0.0436694 0 -0.000378438)
(0.048939 0 -0.000435859)
(0.0537382 0 -0.000492923)
(0.0581046 0 -0.000549846)
(0.0620734 0 -0.000606754)
(0.0656766 0 -0.000663691)
(0.0689438 0 -0.000720635)
(0.0719016 0 -0.000777506)
(0.0745747 0 -0.000834176)
(0.0769851 0 -0.000890479)
(0.079153 0 -0.000946217)
(0.0810966 0 -0.00100118)
(0.0828327 0 -0.00105512)
(0.0843762 0 -0.00110783)
(0.0857382 0 -0.00115893)
(0 0 0)
(0.00873549 0 -3.61112e-05)
(0.0169406 0 -7.06479e-05)
(0.0244756 0 -0.000103489)
(0.0313769 0 -0.000135105)
(0.0376866 0 -0.00016588)
(0.043447 0 -0.000196113)
(0.0486996 0 -0.000226032)
(0.0534838 0 -0.000255798)
(0.0578367 0 -0.00028552)
(0.0617931 0 -0.000315259)
(0.0653846 0 -0.000345034)
(0.0686405 0 -0.000374829)
(0.0715875 0 -0.000404597)
(0.07425 0 -0.000434268)
(0.0766502 0 -0.000463751)
(0.078808 0 -0.000492938)
(0.080742 0 -0.000521715)
(0.0824686 0 -0.000549955)
(0.0840031 0 -0.000577534)
(0.0853564 0 -0.000604269)
(0 0 0)
(0.00871472 0 0)
(0.0169018 0 0)
(0.0244231 0 0)
(0.0313138 0 0)
(0.0376149 0 0)
(0.0433681 0 0)
(0.0486145 0 0)
(0.0533934 0 0)
(0.0577415 0 0)
(0.0616934 0 0)
(0.0652808 0 0)
(0.0685327 0 0)
(0.071476 0 0)
(0.0741348 0 0)
(0.0765313 0 0)
(0.0786857 0 0)
(0.0806162 0 0)
(0.0823396 0 0)
(0.083871 0 0)
(0.0852214 0 0)
(0 0 0)
(0.00964395 0 -0.000115797)
(0.0184243 0 -0.000220535)
(0.0261658 0 -0.000311485)
(0 0 0)
(0.00974944 0 -0.000126341)
(0.0186327 0 -0.000241031)
(0.0264768 0 -0.000341452)
(0.0334085 0 -0.000428797)
(0 0 0)
(0.00985184 0 -0.000137183)
(0.0188352 0 -0.000262115)
(0.0267793 0 -0.000372285)
(0.0338142 0 -0.000469296)
(0.0400571 0 -0.00055447)
(0 0 0)
(0.00994929 0 -0.000148236)
(0.0190285 0 -0.000283642)
(0.0270686 0 -0.000403798)
(0.0342027 0 -0.000510696)
(0.0405502 0 -0.000606043)
(0.0462166 0 -0.000691258)
(0 0 0)
(0.01004 0 -0.000159397)
(0.0192091 0 -0.000305409)
(0.0273402 0 -0.00043572)
(0.0345682 0 -0.000552676)
(0.0410143 0 -0.000658332)
(0.0467854 0 -0.000754456)
(0.0519768 0 -0.000842597)
(0 0 0)
(0.0101222 0 -0.000170548)
(0.0193738 0 -0.000327184)
(0.0275891 0 -0.000467705)
(0.0349046 0 -0.000594809)
(0.0414425 0 -0.000710842)
(0.04731 0 -0.000817872)
(0.0526026 0 -0.000917744)
(0.0574059 0 -0.00101221)
(0.0617974 0 -0.00110307)
(0 0 0)
(0.0101942 0 -0.000181552)
(0.0195194 0 -0.000348703)
(0.027811 0 -0.000499366)
(0.0352063 0 -0.000636573)
(0.0418278 0 -0.000762953)
(0.0477828 0 -0.000880803)
(0.053166 0 -0.000992217)
(0.0580622 0 -0.00109916)
(0.0625474 0 -0.0012036)
(0.0666901 0 -0.00130751)
(0 0 0)
(0.0102543 0 -0.000192259)
(0.0196427 0 -0.000369675)
(0.0280014 0 -0.00053027)
(0.0354677 0 -0.000677395)
(0.042164 0 -0.000813938)
(0.0481966 0 -0.00094241)
(0.0536595 0 -0.00106508)
(0.0586361 0 -0.00118408)
(0.0632008 0 -0.00130153)
(0.0674201 0 -0.00141951)
(0.0713527 0 -0.00154017)
(0.0750513 0 -0.00166583)
(0 0 0)
(0.0103013 0 -0.000202505)
(0.0197411 0 -0.000389777)
(0.0281565 0 -0.000559949)
(0.0356841 0 -0.000716657)
(0.0424451 0 -0.000863021)
(0.048545 0 -0.00100174)
(0.0540763 0 -0.00113523)
(0.0591208 0 -0.00126574)
(0.063751 0 -0.00139545)
(0.068031 0 -0.00152651)
(0.0720176 0 -0.00166109)
(0.0757602 0 -0.00180144)
(0.0793017 0 -0.00194988)
(0.082678 0 -0.00210884)
(0 0 0)
(0.0103338 0 -0.000212113)
(0.0198122 0 -0.000408668)
(0.028273 0 -0.0005879)
(0.0358511 0 -0.000753696)
(0.0426664 0 -0.000909377)
(0.0488227 0 -0.00105779)
(0.0544108 0 -0.00120148)
(0.0595107 0 -0.00134276)
(0.0641928 0 -0.00148385)
(0.068519 0 -0.00162688)
(0.0725435 0 -0.00177399)
(0.0763133 0 -0.00192732)
(0.0798684 0 -0.00208904)
(0.0832421 0 -0.00226131)
(0.0864612 0 -0.0024463)
(0 0 0)
(0.0103509 0 -0.000220914)
(0.0198542 0 -0.00042602)
(0.0283483 0 -0.000613642)
(0.0359657 0 -0.000787884)
(0.0428242 0 -0.000952227)
(0.0490257 0 -0.00110964)
(0.0546591 0 -0.00126275)
(0.0598022 0 -0.0014139)
(0.0645232 0 -0.0015653)
(0.0688819 0 -0.00171906)
(0.0729301 0 -0.00187721)
(0.0767124 0 -0.00204173)
(0.0802664 0 -0.00221459)
(0.0836231 0 -0.0023977)
(0.0868076 0 -0.00259293)
(0.0898382 0 -0.00280194)
(0.0927254 0 -0.00302616)
(0 0 0)
(0.0103518 0 -0.000228734)
(0.0198657 0 -0.000441491)
(0.0283804 0 -0.000636677)
(0.0360254 0 -0.000818565)
(0.0429159 0 -0.00099076)
(0.0491514 0 -0.00115632)
(0.0548185 0 -0.00131789)
(0.0599928 0 -0.00147786)
(0.0647405 0 -0.00163837)
(0.069119 0 -0.00180145)
(0.073178 0 -0.00196901)
(0.0769598 0 -0.00214285)
(0.0805003 0 -0.00232469)
(0.0838284 0 -0.00251616)
(0.0869676 0 -0.00271875)
(0.0899346 0 -0.00293371)
(0.0927402 0 -0.00316204)
(0.0953902 0 -0.00340448)
(0.0978858 0 -0.00366144)
(0 0 0)
(0.0103362 0 -0.000235357)
(0.0198456 0 -0.000454657)
(0.0283678 0 -0.000656382)
(0.0360283 0 -0.000844924)
(0.0429392 0 -0.00102397)
(0.0491972 0 -0.00119663)
(0.0548867 0 -0.00136555)
(0.0600809 0 -0.00153309)
(0.0648436 0 -0.00170134)
(0.0692302 0 -0.0018722)
(0.0732885 0 -0.00204743)
(0.0770589 0 -0.00222864)
(0.0805754 0 -0.00241731)
(0.0838658 0 -0.00261474)
(0.0869521 0 -0.00282208)
(0.0898506 0 -0.00304023)
(0.0925725 0 -0.00326985)
(0.0951245 0 -0.00351129)
(0.0975092 0 -0.00376452)
(0.0997258 0 -0.00402913)
(0.101771 0 -0.00430418)
(0 0 0)
(0.0103036 0 -0.000240561)
(0.0197935 0 -0.000465088)
(0.0283096 0 -0.000672129)
(0.0359734 0 -0.000866144)
(0.0428931 0 -0.00105086)
(0.0491626 0 -0.0012294)
(0.0548635 0 -0.00140438)
(0.0600667 0 -0.00157811)
(0.0648338 0 -0.00175258)
(0.0692183 0 -0.00192958)
(0.0732659 0 -0.00211069)
(0.0770158 0 -0.00229731)
(0.0805004 0 -0.00249068)
(0.0837465 0 -0.00269184)
(0.0867755 0 -0.00290162)
(0.0896035 0 -0.00312061)
(0.0922423 0 -0.00334913)
(0.0946995 0 -0.00358723)
(0.0969796 0 -0.00383463)
(0.0990842 0 -0.00409068)
(0.101012 0 -0.00435414)
(0 0 0)
(0.0102543 0 -0.000244147)
(0.0197095 0 -0.000472394)
(0.0282062 0 -0.000683347)
(0.0358611 0 -0.000881484)
(0.0427783 0 -0.00107053)
(0.0490486 0 -0.00125357)
(0.0547506 0 -0.0014332)
(0.0599529 0 -0.00161161)
(0.0647149 0 -0.0017907)
(0.0690883 0 -0.00197212)
(0.0731171 0 -0.00215727)
(0.0768391 0 -0.00234736)
(0.0802859 0 -0.0025434)
(0.0834833 0 -0.00274617)
(0.0864526 0 -0.00295625)
(0.08921 0 -0.00317396)
(0.091768 0 -0.00339937)
(0.0941356 0 -0.00363229)
(0.0963188 0 -0.00387224)
(0.0983209 0 -0.00411832)
(0.100143 0 -0.00436921)
(0 0 0)
(0.0101885 0 -0.00024592)
(0.0195943 0 -0.000476193)
(0.0280587 0 -0.000689479)
(0.0356929 0 -0.000890219)
(0.042597 0 -0.0010821)
(0.0488579 0 -0.00126813)
(0.0545515 0 -0.00145084)
(0.0597439 0 -0.00163232)
(0.0644926 0 -0.00181434)
(0.0688472 0 -0.00199841)
(0.0728505 0 -0.00218575)
(0.0765391 0 -0.0023774)
(0.0799437 0 -0.00257413)
(0.08309 0 -0.00277654)
(0.0859988 0 -0.00298495)
(0.088687 0 -0.00319948)
(0.0911678 0 -0.00342002)
(0.0934514 0 -0.00364618)
(0.0955455 0 -0.00387735)
(0.0974545 0 -0.00411244)
(0 0 0)
(0.0101073 0 -0.000245691)
(0.0194496 0 -0.000476115)
(0.0278693 0 -0.000689982)
(0.0354718 0 -0.000891646)
(0.0423524 0 -0.0010847)
(0.0485947 0 -0.00127209)
(0.0542713 0 -0.0014562)
(0.059446 0 -0.00163904)
(0.064174 0 -0.00182223)
(0.0685036 0 -0.00200713)
(0.0724762 0 -0.00219482)
(0.0761273 0 -0.00238612)
(0.0794871 0 -0.00258166)
(0.082581 0 -0.00278181)
(0.08543 0 -0.00298675)
(0.0880514 0 -0.00319641)
(0.0904594 0 -0.00341051)
(0.092665 0 -0.00362857)
(0.0946775 0 -0.00384987)
(0.0965029 0 -0.00407325)
(0 0 0)
(0.0100117 0 -0.000243283)
(0.0192776 0 -0.000471809)
(0.027641 0 -0.000684339)
(0.0352015 0 -0.00088509)
(0.0420496 0 -0.00107753)
(0.0482647 0 -0.00126448)
(0.0539167 0 -0.00144822)
(0.0590668 0 -0.00163061)
(0.0637683 0 -0.00181314)
(0.0680678 0 -0.00199703)
(0.0720057 0 -0.00218318)
(0.0756165 0 -0.00237228)
(0.0789301 0 -0.00256478)
(0.0819717 0 -0.00276091)
(0.0847626 0 -0.00296068)
(0.0873205 0 -0.00316392)
(0.0896603 0 -0.00337022)
(0.0917943 0 -0.00357902)
(0.0937329 0 -0.00378958)
(0.0954832 0 -0.00400071)
(0 0 0)
(0.00990329 0 -0.000238528)
(0.0190811 0 -0.000462942)
(0.027378 0 -0.000672057)
(0.0348873 0 -0.000869908)
(0.0416945 0 -0.00105981)
(0.0478752 0 -0.00124441)
(0.0534961 0 -0.00142588)
(0.0586159 0 -0.00160592)
(0.063286 0 -0.0017859)
(0.0675517 0 -0.00196687)
(0.071452 0 -0.00214962)
(0.0750211 0 -0.00233467)
(0.0782882 0 -0.00252234)
(0.0812785 0 -0.00271274)
(0.0840136 0 -0.00290576)
(0.0865117 0 -0.00310112)
(0.0887884 0 -0.00329837)
(0.0908571 0 -0.0034969)
(0.0927289 0 -0.00369595)
(0.0944124 0 -0.00389436)
(0 0 0)
(0.00978404 0 -0.000231271)
(0.0188637 0 -0.000449205)
(0.0270853 0 -0.000652677)
(0.0345355 0 -0.000845495)
(0.0412948 0 -0.00103078)
(0.0474349 0 -0.00121102)
(0.0530193 0 -0.00138821)
(0.0581043 0 -0.00156393)
(0.0627395 0 -0.00173939)
(0.0669686 0 -0.00191551)
(0.0708298 0 -0.00209294)
(0.0743565 0 -0.00227209)
(0.0775777 0 -0.00245317)
(0.0805186 0 -0.00263616)
(0.0832009 0 -0.0028209)
(0.0856434 0 -0.00300702)
(0.0878622 0 -0.00319405)
(0.0898715 0 -0.00338135)
(0.0916836 0 -0.00356818)
(0.0933075 0 -0.00375343)
(0 0 0)
(0.00965622 0 -0.000221373)
(0.0186299 0 -0.000430315)
(0.026769 0 -0.000625772)
(0.0341537 0 -0.000811288)
(0.0408596 0 -0.000989758)
(0.0469541 0 -0.00116349)
(0.0524979 0 -0.0013343)
(0.0575448 0 -0.00150361)
(0.0621426 0 -0.00167251)
(0.0663335 0 -0.00184178)
(0.070155 0 -0.00201196)
(0.0736397 0 -0.00218334)
(0.0768165 0 -0.00235605)
(0.0797104 0 -0.00252999)
(0.0823433 0 -0.00270493)
(0.0847345 0 -0.00288047)
(0.0869007 0 -0.00305612)
(0.0888567 0 -0.00323125)
(0.0906154 0 -0.00340516)
(0.0921866 0 -0.00357678)
(0 0 0)
(0.00952247 0 -0.000208709)
(0.0183845 0 -0.000406018)
(0.026436 0 -0.000590956)
(0.0337507 0 -0.000766768)
(0.0403991 0 -0.000936099)
(0.0464447 0 -0.00110105)
(0.0519452 0 -0.00126326)
(0.0569518 0 -0.001424)
(0.0615108 0 -0.00158421)
(0.0656632 0 -0.00174457)
(0.0694452 0 -0.00190549)
(0.0728892 0 -0.0020672)
(0.0760236 0 -0.00222973)
(0.0788734 0 -0.00239293)
(0.0814609 0 -0.00255654)
(0.0838053 0 -0.00272015)
(0.0859241 0 -0.00288324)
(0.0878324 0 -0.00304523)
(0.0895439 0 -0.00320545)
(0.0910687 0 -0.00336292)
(0 0 0)
(0.00938581 0 -0.000193169)
(0.0181333 0 -0.000376088)
(0.0260944 0 -0.000547881)
(0.0333365 0 -0.000711465)
(0.0399252 0 -0.000869211)
(0.0459201 0 -0.001023)
(0.0513759 0 -0.00117428)
(0.0563416 0 -0.00132417)
(0.0608617 0 -0.00147348)
(0.0649759 0 -0.00162276)
(0.0687198 0 -0.00177235)
(0.072125 0 -0.0019224)
(0.0752198 0 -0.00207287)
(0.078029 0 -0.0022236)
(0.080575 0 -0.00237428)
(0.0828774 0 -0.0025245)
(0.0849538 0 -0.00267379)
(0.0868201 0 -0.00282158)
(0.0884901 0 -0.00296727)
(0.0899745 0 -0.00310993)
(0 0 0)
(0.00924965 0 -0.000174663)
(0.0178828 0 -0.000340335)
(0.0257533 0 -0.000496248)
(0.0329226 0 -0.000644962)
(0.0394513 0 -0.000788559)
(0.0453955 0 -0.000928677)
(0.0508067 0 -0.00106658)
(0.055732 0 -0.00120323)
(0.0602143 0 -0.0013393)
(0.064292 0 -0.00147525)
(0.0679998 0 -0.00161132)
(0.0713691 0 -0.00174762)
(0.0744275 0 -0.00188406)
(0.0772 0 -0.00202045)
(0.0797089 0 -0.00215649)
(0.081974 0 -0.00229179)
(0.0840134 0 -0.00242589)
(0.0858429 0 -0.00255828)
(0.087477 0 -0.00268842)
(0.0889265 0 -0.00281547)
(0 0 0)
(0.00911785 0 -0.000153121)
(0.0176403 0 -0.000298606)
(0.025423 0 -0.000435807)
(0.0325218 0 -0.000566906)
(0.0389925 0 -0.000693676)
(0.0448877 0 -0.000817506)
(0.0502563 0 -0.000939466)
(0.0551433 0 -0.00106035)
(0.0595899 0 -0.00118072)
(0.0636337 0 -0.00130093)
(0.0673086 0 -0.00142117)
(0.0706453 0 -0.00154148)
(0.0736712 0 -0.00166176)
(0.0764113 0 -0.00178181)
(0.0788878 0 -0.00190134)
(0.0811207 0 -0.00202)
(0.083128 0 -0.00213735)
(0.0849261 0 -0.00225296)
(0.0865297 0 -0.00236632)
(0.0879496 0 -0.00247673)
(0 0 0)
(0.00899483 0 -0.000128495)
(0.0174141 0 -0.000250792)
(0.0251154 0 -0.000366372)
(0.0321488 0 -0.000477018)
(0.0385659 0 -0.000584177)
(0.044416 0 -0.000688982)
(0.0497455 0 -0.000792299)
(0.0545976 0 -0.000894765)
(0.0590122 0 -0.000996822)
(0.0630259 0 -0.00109874)
(0.0666717 0 -0.00120066)
(0.06998 0 -0.00130257)
(0.0729779 0 -0.00140437)
(0.0756903 0 -0.00150587)
(0.0781393 0 -0.00160681)
(0.080345 0 -0.00170686)
(0.0823257 0 -0.00180567)
(0.0840977 0 -0.00190283)
(0.0856759 0 -0.00199795)
(0.0870714 0 -0.0020904)
(0 0 0)
(0.0088857 0 -0.000100767)
(0.017214 0 -0.000196839)
(0.0248438 0 -0.000287832)
(0.0318202 0 -0.000375109)
(0.0381907 0 -0.00045978)
(0.0440017 0 -0.00054271)
(0.0492976 0 -0.000624556)
(0.0541199 0 -0.000705801)
(0.0585074 0 -0.000786771)
(0.0624956 0 -0.000867661)
(0.0661173 0 -0.000948553)
(0.0694021 0 -0.00102943)
(0.0723772 0 -0.00111019)
(0.075067 0 -0.00119068)
(0.0774939 0 -0.00127066)
(0.0796778 0 -0.00134986)
(0.0816372 0 -0.001428)
(0.0833884 0 -0.00150475)
(0.0849466 0 -0.00157979)
(0.0863228 0 -0.00165261)
(0 0 0)
(0.00879664 0 -6.9952e-05)
(0.0170514 0 -0.000136758)
(0.0246242 0 -0.000200168)
(0.0315553 0 -0.00026111)
(0.037889 0 -0.000320337)
(0.0436694 0 -0.000378438)
(0.048939 0 -0.000435859)
(0.0537382 0 -0.000492923)
(0.0581046 0 -0.000549846)
(0.0620734 0 -0.000606754)
(0.0656766 0 -0.000663691)
(0.0689438 0 -0.000720635)
(0.0719016 0 -0.000777506)
(0.0745747 0 -0.000834176)
(0.0769851 0 -0.000890479)
(0.079153 0 -0.000946217)
(0.0810966 0 -0.00100118)
(0.0828327 0 -0.00105512)
(0.0843762 0 -0.00110783)
(0.0857382 0 -0.00115893)
(0 0 0)
(0.00873549 0 -3.61112e-05)
(0.0169406 0 -7.06479e-05)
(0.0244756 0 -0.000103489)
(0.0313769 0 -0.000135105)
(0.0376866 0 -0.00016588)
(0.043447 0 -0.000196113)
(0.0486996 0 -0.000226032)
(0.0534838 0 -0.000255798)
(0.0578367 0 -0.00028552)
(0.0617931 0 -0.000315259)
(0.0653846 0 -0.000345034)
(0.0686405 0 -0.000374829)
(0.0715875 0 -0.000404597)
(0.07425 0 -0.000434268)
(0.0766502 0 -0.000463751)
(0.078808 0 -0.000492938)
(0.080742 0 -0.000521715)
(0.0824686 0 -0.000549955)
(0.0840031 0 -0.000577534)
(0.0853564 0 -0.000604269)
(0 0 0)
(0.00871472 0 0)
(0.0169018 0 0)
(0.0244231 0 0)
(0.0313138 0 0)
(0.0376149 0 0)
(0.0433681 0 0)
(0.0486145 0 0)
(0.0533934 0 0)
(0.0577415 0 0)
(0.0616934 0 0)
(0.0652808 0 0)
(0.0685327 0 0)
(0.071476 0 0)
(0.0741348 0 0)
(0.0765313 0 0)
(0.0786857 0 0)
(0.0806162 0 0)
(0.0823396 0 0)
(0.083871 0 0)
(0.0852214 0 0)
)
;

boundaryField
{
    inlet
    {
        type            fixedValue;
        value           uniform (0 0 0);
    }
    outlet
    {
        type            fixedValue;
        value           nonuniform 0();
    }
    flap
    {
        type            fixedValue;
        value           nonuniform 0();
    }
    upperWall
    {
        type            slip;
    }
    lowerWall
    {
        type            slip;
    }
    frontAndBack
    {
        type            empty;
    }
    procBoundary0to1
    {
        type            processor;
    }
    procBoundary0to3
    {
        type            processor;
    }
}


// ************************************************************************* //
