/*--------------------------------*- C++ -*----------------------------------*\
| =========                 |                                                 |
| \\      /  F ield         | OpenFOAM: The Open Source CFD Toolbox           |
|  \\    /   O peration     | Version:  dev                                   |
|   \\  /    A nd           | Web:      www.OpenFOAM.org                      |
|    \\/     M anipulation  |                                                 |
\*---------------------------------------------------------------------------*/
FoamFile
{
    version     2.0;
    format      ascii;
    class       pointVectorField;
    location    "1.99";
    object      pointDisplacement;
}
// * * * * * * * * * * * * * * * * * * * * * * * * * * * * * * * * * * * * * //

dimensions      [0 1 0 0 0 0 0];

internalField   nonuniform List<vector> 
1030
(
(0 0 0)
(0.0250255 0 0)
(0.0471844 0 0)
(0.0658429 0 0)
(0.0813696 0 0)
(0.0941073 0 0)
(0.104353 0 0)
(0.112375 0 0)
(0.118406 0 0)
(0.12264 0 0)
(0.125245 0 0)
(0.126369 0 0)
(0.126143 0 0)
(0.124681 0 0)
(0.122085 0 0)
(0.118446 0 0)
(0.113848 0 0)
(0.108367 0 0)
(0.10208 0 0)
(0.0950646 0 0)
(0.0873974 0 0)
(0.0791587 0 0)
(0 0 0)
(0.0250426 0 -0.000270933)
(0.047217 0 -0.000513942)
(0.0658913 0 -0.000725899)
(0.0814355 0 -0.000912687)
(0.0941917 0 -0.00107899)
(0.104456 0 -0.00122775)
(0.112499 0 -0.00136097)
(0.118554 0 -0.00148009)
(0.122815 0 -0.00158547)
(0.12545 0 -0.00167692)
(0.126609 0 -0.00175396)
(0.126422 0 -0.00181638)
(0.125004 0 -0.00186125)
(0.122458 0 -0.00188501)
(0.118877 0 -0.00188548)
(0.114344 0 -0.00185884)
(0.108938 0 -0.00179978)
(0.102737 0 -0.00170407)
(0.0958217 0 -0.00156631)
(0.0882721 0 -0.00137781)
(0.0801726 0 -0.00112901)
(0 0 0)
(0.0250933 0 -0.000542554)
(0.0473164 0 -0.00102934)
(0.0660384 0 -0.00145412)
(0.0816316 0 -0.00182854)
(0.0944406 0 -0.00216076)
(0.104764 0 -0.00245791)
(0.112873 0 -0.00272531)
(0.119 0 -0.00296478)
(0.123342 0 -0.00317704)
(0.126068 0 -0.00336174)
(0.127328 0 -0.00351768)
(0.127256 0 -0.00364344)
(0.125968 0 -0.00373482)
(0.123571 0 -0.00378639)
(0.12016 0 -0.00379299)
(0.115824 0 -0.00374735)
(0.110645 0 -0.00364005)
(0.104702 0 -0.00346168)
(0.0980845 0 -0.00320101)
(0.0908844 0 -0.00284275)
(0.0831963 0 -0.00236927)
(0 0 0)
(0.0251779 0 -0.000813901)
(0.047482 0 -0.0015444)
(0.0662828 0 -0.00218216)
(0.0819554 0 -0.00274472)
(0.0948511 0 -0.00324469)
(0.105274 0 -0.0036927)
(0.113493 0 -0.00409637)
(0.119741 0 -0.00445864)
(0.124217 0 -0.00478079)
(0.127094 0 -0.00506237)
(0.128523 0 -0.00530134)
(0.128639 0 -0.00549395)
(0.127567 0 -0.00563686)
(0.125416 0 -0.00572473)
(0.122286 0 -0.00574854)
(0.118273 0 -0.00569816)
(0.113465 0 -0.00556185)
(0.107951 0 -0.0053247)
(0.101828 0 -0.00496972)
(0.0952041 0 -0.00447801)
(0.0881908 0 -0.00382648)
(0 0 0)
(0.0252952 0 -0.0010841)
(0.0477117 0 -0.00205753)
(0.0666217 0 -0.00290787)
(0.0824065 0 -0.00365869)
(0.0954242 0 -0.00432796)
(0.105983 0 -0.00492901)
(0.114353 0 -0.00547105)
(0.120768 0 -0.00595887)
(0.125429 0 -0.00639452)
(0.128514 0 -0.00677767)
(0.130177 0 -0.00710569)
(0.130557 0 -0.0073745)
(0.129784 0 -0.00758067)
(0.127973 0 -0.00771762)
(0.125231 0 -0.0077744)
(0.121659 0 -0.00773877)
(0.117357 0 -0.00759626)
(0.112427 0 -0.00733044)
(0.106985 0 -0.00692266)
(0.101157 0 -0.00635174)
(0.0950761 0 -0.00559275)
(0 0 0)
(0.0254439 0 -0.00135288)
(0.0480034 0 -0.00256833)
(0.067052 0 -0.00363085)
(0.08298 0 -0.00457005)
(0.0961532 0 -0.00540908)
(0.106884 0 -0.00616428)
(0.115443 0 -0.00684683)
(0.122068 0 -0.0074633)
(0.126964 0 -0.00801677)
(0.130312 0 -0.0085073)
(0.13227 0 -0.00893183)
(0.132984 0 -0.00928785)
(0.132591 0 -0.00957148)
(0.131209 0 -0.00977384)
(0.128956 0 -0.00988396)
(0.125944 0 -0.00988901)
(0.122282 0 -0.00977315)
(0.118087 0 -0.00951978)
(0.113495 0 -0.00911092)
(0.108658 0 -0.00852708)
(0.103746 0 -0.00774736)
(0 0 0)
(0.0256231 0 -0.00162056)
(0.0483553 0 -0.00307687)
(0.0675698 0 -0.00435063)
(0.08367 0 -0.00547826)
(0.097031 0 -0.00648785)
(0.107967 0 -0.0073988)
(0.116754 0 -0.00822454)
(0.123631 0 -0.00897358)
(0.128809 0 -0.00965033)
(0.132472 0 -0.0102557)
(0.134786 0 -0.0107878)
(0.135903 0 -0.0112442)
(0.135964 0 -0.0116203)
(0.135096 0 -0.011907)
(0.133426 0 -0.0120944)
(0.13108 0 -0.0121706)
(0.128185 0 -0.0121215)
(0.124868 0 -0.0119301)
(0.12128 0 -0.0115788)
(0.117608 0 -0.011056)
(0.114064 0 -0.0103507)
(0 0 0)
(0.0258268 0 -0.00188711)
(0.0487561 0 -0.00358307)
(0.068167 0 -0.00506775)
(0.0844718 0 -0.00638463)
(0.0980519 0 -0.00756619)
(0.109227 0 -0.00863515)
(0.118277 0 -0.00960749)
(0.125447 0 -0.0104938)
(0.130951 0 -0.0113003)
(0.134979 0 -0.0120292)
(0.137708 0 -0.0126813)
(0.139292 0 -0.013253)
(0.139875 0 -0.0137381)
(0.139597 0 -0.0141298)
(0.138596 0 -0.0144203)
(0.137012 0 -0.0145998)
(0.134985 0 -0.0146563)
(0.132668 0 -0.0145776)
(0.130233 0 -0.0143523)
(0.127889 0 -0.0139746)
(0.125888 0 -0.0134461)
(0 0 0)
(0.0260526 0 -0.0021515)
(0.0492024 0 -0.00408636)
(0.0688396 0 -0.00578268)
(0.0853799 0 -0.00728999)
(0.099209 0 -0.00864529)
(0.110654 0 -0.00987496)
(0.120002 0 -0.0109977)
(0.127501 0 -0.0120265)
(0.133373 0 -0.0129695)
(0.137814 0 -0.0138306)
(0.141003 0 -0.0146116)
(0.143105 0 -0.0153104)
(0.144272 0 -0.0159218)
(0.14465 0 -0.0164402)
(0.144394 0 -0.0168616)
(0.143659 0 -0.0171804)
(0.1426 0 -0.0173873)
(0.141391 0 -0.0174772)
(0.140239 0 -0.017449)
(0.139364 0 -0.0173032)
(0.139054 0 -0.0170566)
(0 0 0)
(0.0263029 0 -0.00241301)
(0.0496981 0 -0.00458526)
(0.0695846 0 -0.00649274)
(0.0863844 0 -0.00819064)
(0.100489 0 -0.00972088)
(0.112233 0 -0.0111135)
(0.121908 0 -0.01239)
(0.129771 0 -0.0135663)
(0.136048 0 -0.0146526)
(0.140939 0 -0.0156541)
(0.14463 0 -0.0165733)
(0.147296 0 -0.0174117)
(0.149101 0 -0.0181683)
(0.150201 0 -0.0188389)
(0.150762 0 -0.0194226)
(0.150951 0 -0.0199175)
(0.150948 0 -0.0203223)
(0.15094 0 -0.0206368)
(0.151158 0 -0.0208703)
(0.151863 0 -0.0210404)
(0.153374 0 -0.0211818)
(0 0 0)
(0.0265748 0 -0.00267108)
(0.0502371 0 -0.00507809)
(0.0703935 0 -0.00719504)
(0.0874743 0 -0.00908302)
(0.101878 0 -0.0107888)
(0.113945 0 -0.0123463)
(0.123974 0 -0.0137794)
(0.132231 0 -0.0151077)
(0.138945 0 -0.0163441)
(0.144323 0 -0.0174953)
(0.148558 0 -0.0185662)
(0.151835 0 -0.0195613)
(0.154327 0 -0.0204824)
(0.156205 0 -0.0213306)
(0.157641 0 -0.0221065)
(0.15881 0 -0.022811)
(0.15992 0 -0.0234542)
(0.161185 0 -0.0240466)
(0.162849 0 -0.0246072)
(0.165215 0 -0.0251726)
(0.16864 0 -0.0258001)
(0 0 0)
(0.0268658 0 -0.00292517)
(0.0508141 0 -0.00556387)
(0.0712591 0 -0.00788834)
(0.0886405 0 -0.00996566)
(0.103364 0 -0.0118476)
(0.115777 0 -0.0135717)
(0.126186 0 -0.0151658)
(0.134866 0 -0.0166524)
(0.142048 0 -0.0180461)
(0.147944 0 -0.0193561)
(0.152761 0 -0.0205923)
(0.156687 0 -0.0217599)
(0.159903 0 -0.0228624)
(0.162591 0 -0.0239067)
(0.164938 0 -0.0248991)
(0.167138 0 -0.0258483)
(0.169411 0 -0.0267711)
(0.172001 0 -0.0276921)
(0.175167 0 -0.028641)
(0.17924 0 -0.0296715)
(0.184628 0 -0.0308694)
(0 0 0)
(0.0271741 0 -0.00317532)
(0.0514257 0 -0.00604272)
(0.0721765 0 -0.00857287)
(0.0898765 0 -0.0108389)
(0.10494 0 -0.0128975)
(0.117721 0 -0.0147905)
(0.128536 0 -0.0165504)
(0.137662 0 -0.0182011)
(0.145335 0 -0.0197581)
(0.151774 0 -0.0212348)
(0.157195 0 -0.0226446)
(0.161792 0 -0.0239948)
(0.165757 0 -0.0252942)
(0.169285 0 -0.0265549)
(0.172577 0 -0.0277897)
(0.175845 0 -0.0290164)
(0.179312 0 -0.0302559)
(0.183243 0 -0.0315451)
(0.187933 0 -0.0329324)
(0.193737 0 -0.0344901)
(0.201094 0 -0.0363276)
(0 0 0)
(0.0274981 0 -0.00342151)
(0.0520682 0 -0.00651455)
(0.0731398 0 -0.00924848)
(0.0911744 0 -0.0117023)
(0.106595 0 -0.0139381)
(0.119764 0 -0.0160016)
(0.131001 0 -0.0179286)
(0.140587 0 -0.0197453)
(0.148767 0 -0.0214704)
(0.155766 0 -0.0231199)
(0.161807 0 -0.0247106)
(0.167096 0 -0.0262558)
(0.171835 0 -0.0277689)
(0.176231 0 -0.0292674)
(0.180487 0 -0.0307676)
(0.184825 0 -0.0322927)
(0.189491 0 -0.033877)
(0.194767 0 -0.0355696)
(0.200975 0 -0.0374357)
(0.208493 0 -0.0395673)
(0.21778 0 -0.042094)
(0 0 0)
(0.0278335 0 -0.00366228)
(0.0527336 0 -0.00697669)
(0.074138 0 -0.00991136)
(0.0925195 0 -0.0125512)
(0.108311 0 -0.0149635)
(0.12188 0 -0.0171977)
(0.133549 0 -0.0192916)
(0.143608 0 -0.0212759)
(0.152308 0 -0.0231737)
(0.159884 0 -0.0250035)
(0.166564 0 -0.0267858)
(0.172565 0 -0.028539)
(0.17809 0 -0.0302791)
(0.18335 0 -0.032026)
(0.188564 0 -0.0338047)
(0.193967 0 -0.0356476)
(0.199829 0 -0.0376026)
(0.206436 0 -0.0397264)
(0.214121 0 -0.0420973)
(0.223295 0 -0.0448307)
(0.234434 0 -0.0480766)
(0 0 0)
(0.0281797 0 -0.00389838)
(0.0534211 0 -0.00743063)
(0.0751694 0 -0.0105637)
(0.09391 0 -0.0133884)
(0.110086 0 -0.0159771)
(0.124069 0 -0.0183833)
(0.136185 0 -0.0206478)
(0.146736 0 -0.0228054)
(0.155975 0 -0.0248819)
(0.164145 0 -0.0269005)
(0.171479 0 -0.0288838)
(0.178194 0 -0.0308516)
(0.184504 0 -0.0328264)
(0.190629 0 -0.0348339)
(0.196799 0 -0.0369067)
(0.203263 0 -0.0390865)
(0.210297 0 -0.041429)
(0.218196 0 -0.044001)
(0.227309 0 -0.0468968)
(0.238058 0 -0.0502466)
(0.250929 0 -0.0542206)
(0 0 0)
(0.0250255 0 0)
(0.0471844 0 0)
(0.0658429 0 0)
(0.0813696 0 0)
(0.0941073 0 0)
(0.104353 0 0)
(0.112375 0 0)
(0.118406 0 0)
(0.12264 0 0)
(0.125245 0 0)
(0.126369 0 0)
(0.126143 0 0)
(0.124681 0 0)
(0.122085 0 0)
(0.118446 0 0)
(0.113848 0 0)
(0.108367 0 0)
(0.10208 0 0)
(0.0950646 0 0)
(0.0873974 0 0)
(0.0791587 0 0)
(0 0 0)
(0.0250426 0 -0.000270933)
(0.047217 0 -0.000513942)
(0.0658913 0 -0.000725899)
(0.0814355 0 -0.000912687)
(0.0941917 0 -0.00107899)
(0.104456 0 -0.00122775)
(0.112499 0 -0.00136097)
(0.118554 0 -0.00148009)
(0.122815 0 -0.00158547)
(0.12545 0 -0.00167692)
(0.126609 0 -0.00175396)
(0.126422 0 -0.00181638)
(0.125004 0 -0.00186125)
(0.122458 0 -0.00188501)
(0.118877 0 -0.00188548)
(0.114344 0 -0.00185884)
(0.108938 0 -0.00179978)
(0.102737 0 -0.00170407)
(0.0958217 0 -0.00156631)
(0.0882721 0 -0.00137781)
(0.0801726 0 -0.00112901)
(0 0 0)
(0.0250933 0 -0.000542554)
(0.0473164 0 -0.00102934)
(0.0660384 0 -0.00145412)
(0.0816316 0 -0.00182854)
(0.0944406 0 -0.00216076)
(0.104764 0 -0.00245791)
(0.112873 0 -0.00272531)
(0.119 0 -0.00296478)
(0.123342 0 -0.00317704)
(0.126068 0 -0.00336174)
(0.127328 0 -0.00351768)
(0.127256 0 -0.00364344)
(0.125968 0 -0.00373482)
(0.123571 0 -0.00378639)
(0.12016 0 -0.00379299)
(0.115824 0 -0.00374735)
(0.110645 0 -0.00364005)
(0.104702 0 -0.00346168)
(0.0980845 0 -0.00320101)
(0.0908844 0 -0.00284275)
(0.0831963 0 -0.00236927)
(0 0 0)
(0.0251779 0 -0.000813901)
(0.047482 0 -0.0015444)
(0.0662828 0 -0.00218216)
(0.0819554 0 -0.00274472)
(0.0948511 0 -0.00324469)
(0.105274 0 -0.0036927)
(0.113493 0 -0.00409637)
(0.119741 0 -0.00445864)
(0.124217 0 -0.00478079)
(0.127094 0 -0.00506237)
(0.128523 0 -0.00530134)
(0.128639 0 -0.00549395)
(0.127567 0 -0.00563686)
(0.125416 0 -0.00572473)
(0.122286 0 -0.00574854)
(0.118273 0 -0.00569816)
(0.113465 0 -0.00556185)
(0.107951 0 -0.0053247)
(0.101828 0 -0.00496972)
(0.0952041 0 -0.00447801)
(0.0881908 0 -0.00382648)
(0 0 0)
(0.0252952 0 -0.0010841)
(0.0477117 0 -0.00205753)
(0.0666217 0 -0.00290787)
(0.0824065 0 -0.00365869)
(0.0954242 0 -0.00432796)
(0.105983 0 -0.00492901)
(0.114353 0 -0.00547105)
(0.120768 0 -0.00595887)
(0.125429 0 -0.00639452)
(0.128514 0 -0.00677767)
(0.130177 0 -0.00710569)
(0.130557 0 -0.0073745)
(0.129784 0 -0.00758067)
(0.127973 0 -0.00771762)
(0.125231 0 -0.0077744)
(0.121659 0 -0.00773877)
(0.117357 0 -0.00759626)
(0.112427 0 -0.00733044)
(0.106985 0 -0.00692266)
(0.101157 0 -0.00635174)
(0.0950761 0 -0.00559275)
(0 0 0)
(0.0254439 0 -0.00135288)
(0.0480034 0 -0.00256833)
(0.067052 0 -0.00363085)
(0.08298 0 -0.00457005)
(0.0961532 0 -0.00540908)
(0.106884 0 -0.00616428)
(0.115443 0 -0.00684683)
(0.122068 0 -0.0074633)
(0.126964 0 -0.00801677)
(0.130312 0 -0.0085073)
(0.13227 0 -0.00893183)
(0.132984 0 -0.00928785)
(0.132591 0 -0.00957148)
(0.131209 0 -0.00977384)
(0.128956 0 -0.00988396)
(0.125944 0 -0.00988901)
(0.122282 0 -0.00977315)
(0.118087 0 -0.00951978)
(0.113495 0 -0.00911092)
(0.108658 0 -0.00852708)
(0.103746 0 -0.00774736)
(0 0 0)
(0.0256231 0 -0.00162056)
(0.0483553 0 -0.00307687)
(0.0675698 0 -0.00435063)
(0.08367 0 -0.00547826)
(0.097031 0 -0.00648785)
(0.107967 0 -0.0073988)
(0.116754 0 -0.00822454)
(0.123631 0 -0.00897358)
(0.128809 0 -0.00965033)
(0.132472 0 -0.0102557)
(0.134786 0 -0.0107878)
(0.135903 0 -0.0112442)
(0.135964 0 -0.0116203)
(0.135096 0 -0.011907)
(0.133426 0 -0.0120944)
(0.13108 0 -0.0121706)
(0.128185 0 -0.0121215)
(0.124868 0 -0.0119301)
(0.12128 0 -0.0115788)
(0.117608 0 -0.011056)
(0.114064 0 -0.0103507)
(0 0 0)
(0.0258268 0 -0.00188711)
(0.0487561 0 -0.00358307)
(0.068167 0 -0.00506775)
(0.0844718 0 -0.00638463)
(0.0980519 0 -0.00756619)
(0.109227 0 -0.00863515)
(0.118277 0 -0.00960749)
(0.125447 0 -0.0104938)
(0.130951 0 -0.0113003)
(0.134979 0 -0.0120292)
(0.137708 0 -0.0126813)
(0.139292 0 -0.013253)
(0.139875 0 -0.0137381)
(0.139597 0 -0.0141298)
(0.138596 0 -0.0144203)
(0.137012 0 -0.0145998)
(0.134985 0 -0.0146563)
(0.132668 0 -0.0145776)
(0.130233 0 -0.0143523)
(0.127889 0 -0.0139746)
(0.125888 0 -0.0134461)
(0 0 0)
(0.0260526 0 -0.0021515)
(0.0492024 0 -0.00408636)
(0.0688396 0 -0.00578268)
(0.0853799 0 -0.00728999)
(0.099209 0 -0.00864529)
(0.110654 0 -0.00987496)
(0.120002 0 -0.0109977)
(0.127501 0 -0.0120265)
(0.133373 0 -0.0129695)
(0.137814 0 -0.0138306)
(0.141003 0 -0.0146116)
(0.143105 0 -0.0153104)
(0.144272 0 -0.0159218)
(0.14465 0 -0.0164402)
(0.144394 0 -0.0168616)
(0.143659 0 -0.0171804)
(0.1426 0 -0.0173873)
(0.141391 0 -0.0174772)
(0.140239 0 -0.017449)
(0.139364 0 -0.0173032)
(0.139054 0 -0.0170566)
(0 0 0)
(0.0263029 0 -0.00241301)
(0.0496981 0 -0.00458526)
(0.0695846 0 -0.00649274)
(0.0863844 0 -0.00819064)
(0.100489 0 -0.00972088)
(0.112233 0 -0.0111135)
(0.121908 0 -0.01239)
(0.129771 0 -0.0135663)
(0.136048 0 -0.0146526)
(0.140939 0 -0.0156541)
(0.14463 0 -0.0165733)
(0.147296 0 -0.0174117)
(0.149101 0 -0.0181683)
(0.150201 0 -0.0188389)
(0.150762 0 -0.0194226)
(0.150951 0 -0.0199175)
(0.150948 0 -0.0203223)
(0.15094 0 -0.0206368)
(0.151158 0 -0.0208703)
(0.151863 0 -0.0210404)
(0.153374 0 -0.0211818)
(0 0 0)
(0.0265748 0 -0.00267108)
(0.0502371 0 -0.00507809)
(0.0703935 0 -0.00719504)
(0.0874743 0 -0.00908302)
(0.101878 0 -0.0107888)
(0.113945 0 -0.0123463)
(0.123974 0 -0.0137794)
(0.132231 0 -0.0151077)
(0.138945 0 -0.0163441)
(0.144323 0 -0.0174953)
(0.148558 0 -0.0185662)
(0.151835 0 -0.0195613)
(0.154327 0 -0.0204824)
(0.156205 0 -0.0213306)
(0.157641 0 -0.0221065)
(0.15881 0 -0.022811)
(0.15992 0 -0.0234542)
(0.161185 0 -0.0240466)
(0.162849 0 -0.0246072)
(0.165215 0 -0.0251726)
(0.16864 0 -0.0258001)
(0 0 0)
(0.0268658 0 -0.00292517)
(0.0508141 0 -0.00556387)
(0.0712591 0 -0.00788834)
(0.0886405 0 -0.00996566)
(0.103364 0 -0.0118476)
(0.115777 0 -0.0135717)
(0.126186 0 -0.0151658)
(0.134866 0 -0.0166524)
(0.142048 0 -0.0180461)
(0.147944 0 -0.0193561)
(0.152761 0 -0.0205923)
(0.156687 0 -0.0217599)
(0.159903 0 -0.0228624)
(0.162591 0 -0.0239067)
(0.164938 0 -0.0248991)
(0.167138 0 -0.0258483)
(0.169411 0 -0.0267711)
(0.172001 0 -0.0276921)
(0.175167 0 -0.028641)
(0.17924 0 -0.0296715)
(0.184628 0 -0.0308694)
(0 0 0)
(0.0271741 0 -0.00317532)
(0.0514257 0 -0.00604272)
(0.0721765 0 -0.00857287)
(0.0898765 0 -0.0108389)
(0.10494 0 -0.0128975)
(0.117721 0 -0.0147905)
(0.128536 0 -0.0165504)
(0.137662 0 -0.0182011)
(0.145335 0 -0.0197581)
(0.151774 0 -0.0212348)
(0.157195 0 -0.0226446)
(0.161792 0 -0.0239948)
(0.165757 0 -0.0252942)
(0.169285 0 -0.0265549)
(0.172577 0 -0.0277897)
(0.175845 0 -0.0290164)
(0.179312 0 -0.0302559)
(0.183243 0 -0.0315451)
(0.187933 0 -0.0329324)
(0.193737 0 -0.0344901)
(0.201094 0 -0.0363276)
(0 0 0)
(0.0274981 0 -0.00342151)
(0.0520682 0 -0.00651455)
(0.0731398 0 -0.00924848)
(0.0911744 0 -0.0117023)
(0.106595 0 -0.0139381)
(0.119764 0 -0.0160016)
(0.131001 0 -0.0179286)
(0.140587 0 -0.0197453)
(0.148767 0 -0.0214704)
(0.155766 0 -0.0231199)
(0.161807 0 -0.0247106)
(0.167096 0 -0.0262558)
(0.171835 0 -0.0277689)
(0.176231 0 -0.0292674)
(0.180487 0 -0.0307676)
(0.184825 0 -0.0322927)
(0.189491 0 -0.033877)
(0.194767 0 -0.0355696)
(0.200975 0 -0.0374357)
(0.208493 0 -0.0395673)
(0.21778 0 -0.042094)
(0 0 0)
(0.0278335 0 -0.00366228)
(0.0527336 0 -0.00697669)
(0.074138 0 -0.00991136)
(0.0925195 0 -0.0125512)
(0.108311 0 -0.0149635)
(0.12188 0 -0.0171977)
(0.133549 0 -0.0192916)
(0.143608 0 -0.0212759)
(0.152308 0 -0.0231737)
(0.159884 0 -0.0250035)
(0.166564 0 -0.0267858)
(0.172565 0 -0.028539)
(0.17809 0 -0.0302791)
(0.18335 0 -0.032026)
(0.188564 0 -0.0338047)
(0.193967 0 -0.0356476)
(0.199829 0 -0.0376026)
(0.206436 0 -0.0397264)
(0.214121 0 -0.0420973)
(0.223295 0 -0.0448307)
(0.234434 0 -0.0480766)
(0 0 0)
(0.0281797 0 -0.00389838)
(0.0534211 0 -0.00743063)
(0.0751694 0 -0.0105637)
(0.09391 0 -0.0133884)
(0.110086 0 -0.0159771)
(0.124069 0 -0.0183833)
(0.136185 0 -0.0206478)
(0.146736 0 -0.0228054)
(0.155975 0 -0.0248819)
(0.164145 0 -0.0269005)
(0.171479 0 -0.0288838)
(0.178194 0 -0.0308516)
(0.184504 0 -0.0328264)
(0.190629 0 -0.0348339)
(0.196799 0 -0.0369067)
(0.203263 0 -0.0390865)
(0.210297 0 -0.041429)
(0.218196 0 -0.044001)
(0.227309 0 -0.0468968)
(0.238058 0 -0.0502466)
(0.250929 0 -0.0542206)
(0.0541358 0 -0.00788154)
(0.0762428 0 -0.0112133)
(0.0953597 0 -0.0142248)
(0.111942 0 -0.0169937)
(0.12636 0 -0.0195764)
(0.138948 0 -0.0220182)
(0.15001 0 -0.0243559)
(0.159806 0 -0.0266176)
(0.168583 0 -0.0288309)
(0.176578 0 -0.0310213)
(0.184017 0 -0.0332138)
(0.191124 0 -0.0354363)
(0.198129 0 -0.0377218)
(0.205257 0 -0.0401048)
(0.212764 0 -0.0426343)
(0.220936 0 -0.0453755)
(0.230084 0 -0.0484095)
(0.240562 0 -0.0518418)
(0.252773 0 -0.0558086)
(0.267204 0 -0.0604945)
(0.0773623 0 -0.0118601)
(0.0968759 0 -0.015061)
(0.11388 0 -0.018013)
(0.128748 0 -0.020775)
(0.141822 0 -0.0233968)
(0.153405 0 -0.0259173)
(0.163766 0 -0.0283688)
(0.17316 0 -0.030783)
(0.18183 0 -0.0331893)
(0.190009 0 -0.0356185)
(0.197918 0 -0.0380996)
(0.205787 0 -0.0406697)
(0.213855 0 -0.0433715)
(0.222379 0 -0.0462605)
(0.231648 0 -0.0494089)
(0.24197 0 -0.0529044)
(0.253694 0 -0.0568617)
(0.267207 0 -0.0614211)
(0.282977 0 -0.066776)
(0.0984415 0 -0.0158886)
(0.115873 0 -0.0190224)
(0.131197 0 -0.0219635)
(0.144762 0 -0.0247655)
(0.156876 0 -0.0274718)
(0.167816 0 -0.030119)
(0.177841 0 -0.0327413)
(0.187188 0 -0.0353695)
(0.196093 0 -0.0380374)
(0.204784 0 -0.0407798)
(0.213496 0 -0.043638)
(0.22247 0 -0.0466618)
(0.231964 0 -0.049911)
(0.242258 0 -0.0534616)
(0.253647 0 -0.0574034)
(0.266459 0 -0.0618527)
(0.281065 0 -0.0669552)
(0.29789 0 -0.0728992)
(0.117895 0 -0.0200114)
(0.133684 0 -0.023132)
(0.147753 0 -0.0261171)
(0.160411 0 -0.0290133)
(0.171935 0 -0.0318589)
(0.182578 0 -0.0346887)
(0.192587 0 -0.0375384)
(0.202203 0 -0.0404459)
(0.211655 0 -0.0434504)
(0.221175 0 -0.0465963)
(0.231004 0 -0.0499363)
(0.241393 0 -0.0535345)
(0.25261 0 -0.0574671)
(0.26493 0 -0.0618251)
(0.278651 0 -0.0667196)
(0.294104 0 -0.0722906)
(0.311625 0 -0.0787009)
(0.136204 0 -0.0242754)
(0.150779 0 -0.0274435)
(0.163975 0 -0.030527)
(0.176068 0 -0.0335673)
(0.187318 0 -0.0366028)
(0.197981 0 -0.0396752)
(0.208285 0 -0.0428212)
(0.218457 0 -0.0460813)
(0.228733 0 -0.0495054)
(0.239347 0 -0.0531484)
(0.250539 0 -0.0570746)
(0.26255 0 -0.0613565)
(0.275636 0 -0.0660827)
(0.290061 0 -0.0713581)
(0.306079 0 -0.0772992)
(0.32394 0 -0.0840404)
(0.1538 0 -0.0287269)
(0.16752 0 -0.031993)
(0.180175 0 -0.0352258)
(0.192024 0 -0.0384665)
(0.203313 0 -0.0417559)
(0.214266 0 -0.0451312)
(0.225111 0 -0.0486373)
(0.236082 0 -0.0523261)
(0.247397 0 -0.0562508)
(0.259277 0 -0.0604727)
(0.271938 0 -0.0650597)
(0.285614 0 -0.0700968)
(0.300517 0 -0.0756728)
(0.31682 0 -0.081876)
(0.334706 0 -0.0888157)
(0.184227 0 -0.0368189)
(0.196646 0 -0.0402562)
(0.208522 0 -0.0437516)
(0.220079 0 -0.0473452)
(0.231544 0 -0.0510834)
(0.243136 0 -0.0550162)
(0.255054 0 -0.0591934)
(0.267495 0 -0.0636708)
(0.280659 0 -0.0685131)
(0.294748 0 -0.0737973)
(0.3099 0 -0.0795845)
(0.32623 0 -0.0859413)
(0.343851 0 -0.0929472)
(0.201135 0 -0.0419475)
(0.213556 0 -0.0456356)
(0.225663 0 -0.0494305)
(0.237679 0 -0.0533799)
(0.249805 0 -0.0575293)
(0.262221 0 -0.0619243)
(0.275097 0 -0.0666131)
(0.288617 0 -0.0716571)
(0.302936 0 -0.0771158)
(0.318121 0 -0.0830241)
(0.33425 0 -0.0894312)
(0.351356 0 -0.096379)
(0.230955 0 -0.0513536)
(0.24345 0 -0.0554889)
(0.256017 0 -0.0598228)
(0.26882 0 -0.0643955)
(0.282004 0 -0.069248)
(0.295731 0 -0.0744348)
(0.310103 0 -0.0799939)
(0.325136 0 -0.0859396)
(0.340867 0 -0.0923003)
(0.357251 0 -0.0990794)
(0.261713 0 -0.0618562)
(0.274789 0 -0.0665627)
(0.288156 0 -0.0715286)
(0.301949 0 -0.0767981)
(0.316214 0 -0.0823863)
(0.330932 0 -0.088291)
(0.346095 0 -0.0945169)
(0.361603 0 -0.101037)
(0.280078 0 -0.0683845)
(0.293513 0 -0.0734139)
(0.307235 0 -0.0787047)
(0.32125 0 -0.0842546)
(0.335513 0 -0.0900465)
(0.349977 0 -0.0960641)
(0.364532 0 -0.102268)
(0.311575 0 -0.0801201)
(0.325209 0 -0.0855673)
(0.338904 0 -0.0911849)
(0.352601 0 -0.096947)
(0.366205 0 -0.102813)
(0.341179 0 -0.0917058)
(0.354099 0 -0.0971896)
(0.366787 0 -0.102713)
(0.0541358 0 -0.00788154)
(0.0762428 0 -0.0112133)
(0.0953597 0 -0.0142248)
(0.111942 0 -0.0169937)
(0.12636 0 -0.0195764)
(0.138948 0 -0.0220182)
(0.15001 0 -0.0243559)
(0.159806 0 -0.0266176)
(0.168583 0 -0.0288309)
(0.176578 0 -0.0310213)
(0.184017 0 -0.0332138)
(0.191124 0 -0.0354363)
(0.198129 0 -0.0377218)
(0.205257 0 -0.0401048)
(0.212764 0 -0.0426343)
(0.220936 0 -0.0453755)
(0.230084 0 -0.0484095)
(0.240562 0 -0.0518418)
(0.252773 0 -0.0558086)
(0.267204 0 -0.0604945)
(0.0773623 0 -0.0118601)
(0.0968759 0 -0.015061)
(0.11388 0 -0.018013)
(0.128748 0 -0.020775)
(0.141822 0 -0.0233968)
(0.153405 0 -0.0259173)
(0.163766 0 -0.0283688)
(0.17316 0 -0.030783)
(0.18183 0 -0.0331893)
(0.190009 0 -0.0356185)
(0.197918 0 -0.0380996)
(0.205787 0 -0.0406697)
(0.213855 0 -0.0433715)
(0.222379 0 -0.0462605)
(0.231648 0 -0.0494089)
(0.24197 0 -0.0529044)
(0.253694 0 -0.0568617)
(0.267207 0 -0.0614211)
(0.282977 0 -0.066776)
(0.0984415 0 -0.0158886)
(0.115873 0 -0.0190224)
(0.131197 0 -0.0219635)
(0.144762 0 -0.0247655)
(0.156876 0 -0.0274718)
(0.167816 0 -0.030119)
(0.177841 0 -0.0327413)
(0.187188 0 -0.0353695)
(0.196093 0 -0.0380374)
(0.204784 0 -0.0407798)
(0.213496 0 -0.043638)
(0.22247 0 -0.0466618)
(0.231964 0 -0.049911)
(0.242258 0 -0.0534616)
(0.253647 0 -0.0574034)
(0.266459 0 -0.0618527)
(0.281065 0 -0.0669552)
(0.29789 0 -0.0728992)
(0.117895 0 -0.0200114)
(0.133684 0 -0.023132)
(0.147753 0 -0.0261171)
(0.160411 0 -0.0290133)
(0.171935 0 -0.0318589)
(0.182578 0 -0.0346887)
(0.192587 0 -0.0375384)
(0.202203 0 -0.0404459)
(0.211655 0 -0.0434504)
(0.221175 0 -0.0465963)
(0.231004 0 -0.0499363)
(0.241393 0 -0.0535345)
(0.25261 0 -0.0574671)
(0.26493 0 -0.0618251)
(0.278651 0 -0.0667196)
(0.294104 0 -0.0722906)
(0.311625 0 -0.0787009)
(0.136204 0 -0.0242754)
(0.150779 0 -0.0274435)
(0.163975 0 -0.030527)
(0.176068 0 -0.0335673)
(0.187318 0 -0.0366028)
(0.197981 0 -0.0396752)
(0.208285 0 -0.0428212)
(0.218457 0 -0.0460813)
(0.228733 0 -0.0495054)
(0.239347 0 -0.0531484)
(0.250539 0 -0.0570746)
(0.26255 0 -0.0613565)
(0.275636 0 -0.0660827)
(0.290061 0 -0.0713581)
(0.306079 0 -0.0772992)
(0.32394 0 -0.0840404)
(0.1538 0 -0.0287269)
(0.16752 0 -0.031993)
(0.180175 0 -0.0352258)
(0.192024 0 -0.0384665)
(0.203313 0 -0.0417559)
(0.214266 0 -0.0451312)
(0.225111 0 -0.0486373)
(0.236082 0 -0.0523261)
(0.247397 0 -0.0562508)
(0.259277 0 -0.0604727)
(0.271938 0 -0.0650597)
(0.285614 0 -0.0700968)
(0.300517 0 -0.0756728)
(0.31682 0 -0.081876)
(0.334706 0 -0.0888157)
(0.184227 0 -0.0368189)
(0.196646 0 -0.0402562)
(0.208522 0 -0.0437516)
(0.220079 0 -0.0473452)
(0.231544 0 -0.0510834)
(0.243136 0 -0.0550162)
(0.255054 0 -0.0591934)
(0.267495 0 -0.0636708)
(0.280659 0 -0.0685131)
(0.294748 0 -0.0737973)
(0.3099 0 -0.0795845)
(0.32623 0 -0.0859413)
(0.343851 0 -0.0929472)
(0.201135 0 -0.0419475)
(0.213556 0 -0.0456356)
(0.225663 0 -0.0494305)
(0.237679 0 -0.0533799)
(0.249805 0 -0.0575293)
(0.262221 0 -0.0619243)
(0.275097 0 -0.0666131)
(0.288617 0 -0.0716571)
(0.302936 0 -0.0771158)
(0.318121 0 -0.0830241)
(0.33425 0 -0.0894312)
(0.351356 0 -0.096379)
(0.230955 0 -0.0513536)
(0.24345 0 -0.0554889)
(0.256017 0 -0.0598228)
(0.26882 0 -0.0643955)
(0.282004 0 -0.069248)
(0.295731 0 -0.0744348)
(0.310103 0 -0.0799939)
(0.325136 0 -0.0859396)
(0.340867 0 -0.0923003)
(0.357251 0 -0.0990794)
(0.261713 0 -0.0618562)
(0.274789 0 -0.0665627)
(0.288156 0 -0.0715286)
(0.301949 0 -0.0767981)
(0.316214 0 -0.0823863)
(0.330932 0 -0.088291)
(0.346095 0 -0.0945169)
(0.361603 0 -0.101037)
(0.280078 0 -0.0683845)
(0.293513 0 -0.0734139)
(0.307235 0 -0.0787047)
(0.32125 0 -0.0842546)
(0.335513 0 -0.0900465)
(0.349977 0 -0.0960641)
(0.364532 0 -0.102268)
(0.311575 0 -0.0801201)
(0.325209 0 -0.0855673)
(0.338904 0 -0.0911849)
(0.352601 0 -0.096947)
(0.366205 0 -0.102813)
(0.341179 0 -0.0917058)
(0.354099 0 -0.0971896)
(0.366787 0 -0.102713)
)
;

boundaryField
{
    inlet
    {
        type            fixedValue;
        value           uniform (0 0 0);
    }
    outlet
    {
        type            fixedValue;
        value           nonuniform 0();
    }
    flap
    {
        type            fixedValue;
        value           nonuniform 0();
    }
    upperWall
    {
        type            slip;
    }
    lowerWall
    {
        type            slip;
    }
    frontAndBack
    {
        type            empty;
    }
    procBoundary3to0
    {
        type            processor;
    }
    procBoundary3to1
    {
        type            processor;
    }
    procBoundary3to4
    {
        type            processor;
    }
}


// ************************************************************************* //
