/*--------------------------------*- C++ -*----------------------------------*\
| =========                 |                                                 |
| \\      /  F ield         | OpenFOAM: The Open Source CFD Toolbox           |
|  \\    /   O peration     | Version:  dev                                   |
|   \\  /    A nd           | Web:      www.OpenFOAM.org                      |
|    \\/     M anipulation  |                                                 |
\*---------------------------------------------------------------------------*/
FoamFile
{
    version     2.0;
    format      ascii;
    class       volVectorField;
    location    "4";
    object      cellDisplacement;
}
// * * * * * * * * * * * * * * * * * * * * * * * * * * * * * * * * * * * * * //

dimensions      [0 1 0 0 0 0 0];

internalField   nonuniform List<vector> 
465
(
(0.0221775 0 0.00129322)
(0.022259 0 0.00125298)
(0.022714 0 0.00125807)
(0.0231379 0 0.0012545)
(0.0222839 0 0.00121294)
(0.0227072 0 0.00121464)
(0.0230965 0 0.0012083)
(0.0234473 0 0.00119348)
(0.0237549 0 0.00116977)
(0.0222591 0 0.00117344)
(0.0226537 0 0.00117265)
(0.023012 0 0.00116452)
(0.0233311 0 0.00114881)
(0.0236077 0 0.00112537)
(0.0238391 0 0.00109417)
(0.024023 0 0.00105537)
(0.0221924 0 0.00113466)
(0.0225606 0 0.00113211)
(0.0228916 0 0.00112294)
(0.0231832 0 0.00110708)
(0.0234336 0 0.00108458)
(0.0236413 0 0.0010556)
(0.023805 0 0.00102054)
(0.0239243 0 0.000980061)
(0.0239997 0 0.000935202)
(0.0220892 0 0.00109658)
(0.0224336 0 0.0010929)
(0.0227405 0 0.00108328)
(0.0230085 0 0.0010678)
(0.0232369 0 0.00104662)
(0.0234248 0 0.00102005)
(0.0235721 0 0.000988565)
(0.0236789 0 0.000952842)
(0.0237461 0 0.000913781)
(0.0219539 0 0.00105914)
(0.0222772 0 0.0010548)
(0.0225629 0 0.00104518)
(0.0228108 0 0.00103042)
(0.0230205 0 0.00101079)
(0.0231921 0 0.000986646)
(0.0233258 0 0.000958475)
(0.0234224 0 0.00092691)
(0.023483 0 0.000892707)
(0.0217904 0 0.00102218)
(0.0220949 0 0.00101756)
(0.0223623 0 0.00100824)
(0.0225928 0 0.000994447)
(0.0227867 0 0.000976457)
(0.0229446 0 0.000954652)
(0.0230671 0 0.000929505)
(0.0231553 0 0.000901574)
(0.0232105 0 0.00087149)
(0.0216019 0 0.000985495)
(0.0218899 0 0.000980874)
(0.0221413 0 0.00097209)
(0.0223569 0 0.000959378)
(0.0225375 0 0.000943041)
(0.0226838 0 0.00092345)
(0.0227969 0 0.000901039)
(0.0228782 0 0.000876294)
(0.0229289 0 0.000849741)
(0.0213916 0 0.00094883)
(0.021665 0 0.000944424)
(0.0219026 0 0.000936315)
(0.0221054 0 0.000924751)
(0.0222744 0 0.00091003)
(0.022411 0 0.000892503)
(0.0225163 0 0.00087256)
(0.0225916 0 0.000850621)
(0.0226386 0 0.000827127)
(0.0211622 0 0.000911912)
(0.0214228 0 0.00090787)
(0.0216482 0 0.000900525)
(0.0218399 0 0.000890123)
(0.0219992 0 0.000876953)
(0.0221275 0 0.000861336)
(0.0222261 0 0.000843617)
(0.0222965 0 0.000824163)
(0.0223402 0 0.000803342)
(0.0206315 0 0.00087482)
(0.0209165 0 0.000874431)
(0.0211657 0 0.00087086)
(0.0213805 0 0.000864327)
(0.0215627 0 0.000855073)
(0.0217136 0 0.00084337)
(0.0218347 0 0.000829511)
(0.0219276 0 0.000813801)
(0.0219937 0 0.000796557)
(0.0220347 0 0.000778093)
(0.0203824 0 0.000836263)
(0.0206569 0 0.000836091)
(0.0208961 0 0.000833044)
(0.0211017 0 0.000827332)
(0.0212755 0 0.000819188)
(0.0214192 0 0.000808861)
(0.0215342 0 0.000796615)
(0.0216222 0 0.000782721)
(0.0216847 0 0.000767454)
(0.0217233 0 0.000751082)
(0.0201209 0 0.000796452)
(0.0203861 0 0.000796553)
(0.0206165 0 0.000794051)
(0.0208141 0 0.000789147)
(0.0209807 0 0.000782057)
(0.0211181 0 0.000773011)
(0.0212278 0 0.000762244)
(0.0213116 0 0.000749995)
(0.021371 0 0.000736504)
(0.0214075 0 0.000722002)
(0.01985 0 0.000755047)
(0.020107 0 0.000755449)
(0.0203297 0 0.000753491)
(0.0205203 0 0.000749364)
(0.0206806 0 0.000743266)
(0.0208126 0 0.000735405)
(0.0209178 0 0.00072599)
(0.0209979 0 0.000715235)
(0.0210545 0 0.000703347)
(0.0210892 0 0.000690526)
(0.0195731 0 0.000711678)
(0.0198227 0 0.000712384)
(0.0200387 0 0.000710953)
(0.0202231 0 0.000707559)
(0.020378 0 0.000702383)
(0.0205052 0 0.000695612)
(0.0206065 0 0.000687435)
(0.0206835 0 0.000678038)
(0.0207377 0 0.000667602)
(0.0207707 0 0.000656302)
(0.0192935 0 0.000665939)
(0.0195366 0 0.000666934)
(0.0197467 0 0.000665994)
(0.0199258 0 0.000663279)
(0.0200759 0 0.000658952)
(0.0201991 0 0.000653182)
(0.0202969 0 0.000646135)
(0.0203711 0 0.000637975)
(0.0204233 0 0.000628862)
(0.0204549 0 0.000618946)
(0.0190151 0 0.000617381)
(0.0192526 0 0.000618632)
(0.0194575 0 0.000618136)
(0.0196319 0 0.000616038)
(0.019778 0 0.000612486)
(0.0198975 0 0.000607629)
(0.0199924 0 0.000601613)
(0.0200642 0 0.000594583)
(0.0201146 0 0.000586678)
(0.0201449 0 0.000578031)
(0.0187423 0 0.000565507)
(0.0189749 0 0.000566963)
(0.0191752 0 0.000566852)
(0.0193456 0 0.000565305)
(0.019488 0 0.000562451)
(0.0196045 0 0.000558422)
(0.0196968 0 0.000553348)
(0.0197666 0 0.000547353)
(0.0198154 0 0.00054056)
(0.0198446 0 0.000533083)
(0.0184799 0 0.000509756)
(0.0187081 0 0.000511353)
(0.0189045 0 0.00051156)
(0.0190714 0 0.00051049)
(0.0192108 0 0.000508258)
(0.0193246 0 0.000504978)
(0.0194147 0 0.000500762)
(0.0194827 0 0.000495719)
(0.0195301 0 0.000489954)
(0.0195584 0 0.000483566)
(0.018233 0 0.000449495)
(0.0184576 0 0.000451155)
(0.0186506 0 0.000451602)
(0.0188145 0 0.000450933)
(0.0189513 0 0.000449246)
(0.0190629 0 0.000446639)
(0.0191511 0 0.000443207)
(0.0192176 0 0.000439044)
(0.0192639 0 0.000434238)
(0.0192913 0 0.000428876)
(0.0180077 0 0.000384)
(0.0182292 0 0.000385633)
(0.0184195 0 0.000386235)
(0.0185809 0 0.000385885)
(0.0187155 0 0.000384667)
(0.0188252 0 0.000382662)
(0.0189119 0 0.000379948)
(0.0189771 0 0.000376604)
(0.0190224 0 0.000372705)
(0.0190491 0 0.00036832)
(0.0178107 0 0.000312438)
(0.0180296 0 0.000313939)
(0.0182177 0 0.000314601)
(0.0183771 0 0.000314487)
(0.01851 0 0.000313663)
(0.0186182 0 0.000312193)
(0.0187036 0 0.000310141)
(0.0187678 0 0.00030757)
(0.0188123 0 0.000304538)
(0.0188384 0 0.000301103)
(0.0176494 0 0.000233839)
(0.0178664 0 0.000235089)
(0.0180527 0 0.000235707)
(0.0182106 0 0.000235741)
(0.0183422 0 0.000235237)
(0.0184493 0 0.000234244)
(0.0185337 0 0.000232809)
(0.0185971 0 0.000230978)
(0.018641 0 0.000228795)
(0.0186667 0 0.000226302)
(0.0175321 0 0.000147069)
(0.0177479 0 0.000147931)
(0.017933 0 0.000148392)
(0.0180899 0 0.00014848)
(0.0182205 0 0.000148226)
(0.0183269 0 0.000147659)
(0.0184107 0 0.000146809)
(0.0184735 0 0.000145703)
(0.018517 0 0.000144371)
(0.0185424 0 0.000142838)
(0.0174683 0 5.07827e-05)
(0.0176835 0 5.10994e-05)
(0.017868 0 5.12763e-05)
(0.0180244 0 5.13233e-05)
(0.0181546 0 5.12504e-05)
(0.0182605 0 5.10677e-05)
(0.018344 0 5.07855e-05)
(0.0184066 0 5.04136e-05)
(0.0184498 0 4.99617e-05)
(0.0184751 0 4.94392e-05)
(0.0240242 0 0.000899191)
(0.0237681 0 0.000882667)
(0.0237738 0 0.000861637)
(0.0237707 0 0.000840192)
(0.0235029 0 0.000865593)
(0.0235081 0 0.000847273)
(0.0235053 0 0.000828568)
(0.0232286 0 0.000847707)
(0.0232333 0 0.000831634)
(0.0232309 0 0.000815199)
(0.0229455 0 0.000828777)
(0.0229498 0 0.0008146)
(0.0229476 0 0.000800078)
(0.0226539 0 0.000808581)
(0.0226578 0 0.000796026)
(0.0226557 0 0.00078314)
(0.0223543 0 0.000786896)
(0.0223579 0 0.000775746)
(0.0223559 0 0.000764277)
(0.0220478 0 0.000763486)
(0.0220511 0 0.000753567)
(0.0220492 0 0.000743338)
(0.0217355 0 0.000738103)
(0.0217385 0 0.000729271)
(0.0217366 0 0.000720137)
(0.0214188 0 0.000710473)
(0.0214216 0 0.000702611)
(0.0214197 0 0.000694455)
(0.0210998 0 0.000680301)
(0.0211023 0 0.00067331)
(0.0211004 0 0.000666032)
(0.0207807 0 0.000647256)
(0.0207829 0 0.000641054)
(0.020781 0 0.000634575)
(0.0204643 0 0.000610975)
(0.0204663 0 0.000605492)
(0.0204644 0 0.000599743)
(0.0201538 0 0.000571047)
(0.0201556 0 0.000566227)
(0.0201536 0 0.000561154)
(0.019853 0 0.000527012)
(0.0198546 0 0.00052281)
(0.0198526 0 0.000518367)
(0.0195663 0 0.000478352)
(0.0195678 0 0.00047473)
(0.0195657 0 0.000470885)
(0.0192988 0 0.000424473)
(0.0193001 0 0.000421404)
(0.019298 0 0.000418133)
(0.0190563 0 0.000364699)
(0.0190574 0 0.000362166)
(0.0190553 0 0.000359456)
(0.0188453 0 0.000298249)
(0.0188464 0 0.000296247)
(0.0188442 0 0.000294096)
(0.0186734 0 0.000224218)
(0.0186743 0 0.000222752)
(0.0186721 0 0.000221173)
(0.018549 0 0.00014155)
(0.0185498 0 0.000140641)
(0.0185476 0 0.00013966)
(0.0184816 0 4.89982e-05)
(0.0184824 0 4.86868e-05)
(0.0184802 0 4.83499e-05)
(0.0237526 0 0.000807256)
(0.0234892 0 0.000799756)
(0.0234338 0 0.00076036)
(0.023343 0 0.000720503)
(0.0232155 0 0.000680798)
(0.0232163 0 0.000789819)
(0.023166 0 0.000754872)
(0.023083 0 0.000719183)
(0.0229661 0 0.000683229)
(0.0228142 0 0.000647443)
(0.0226267 0 0.000612177)
(0.0229342 0 0.000777598)
(0.0228879 0 0.000746461)
(0.0228114 0 0.000714417)
(0.0227032 0 0.000681838)
(0.0225622 0 0.000649079)
(0.0223873 0 0.000616453)
(0.0221775 0 0.00058424)
(0.0219322 0 0.000552653)
(0.0226433 0 0.000763144)
(0.0226003 0 0.000735306)
(0.0225291 0 0.000706468)
(0.0224282 0 0.000676919)
(0.0222962 0 0.000646948)
(0.022132 0 0.000616826)
(0.0219342 0 0.000586796)
(0.0217018 0 0.000557062)
(0.0214337 0 0.000527814)
(0.0223444 0 0.000746434)
(0.0223041 0 0.000721479)
(0.0222373 0 0.000695477)
(0.0221424 0 0.000668654)
(0.0220181 0 0.000641244)
(0.0218629 0 0.000613473)
(0.0216753 0 0.000585552)
(0.0214542 0 0.000557674)
(0.021198 0 0.000530006)
(0.0220382 0 0.000727382)
(0.0220002 0 0.000704969)
(0.0219371 0 0.000681495)
(0.0218473 0 0.000657135)
(0.0217294 0 0.000632076)
(0.0215819 0 0.000606505)
(0.0214032 0 0.000580605)
(0.0211917 0 0.000554545)
(0.0209459 0 0.000528483)
(0.0217262 0 0.000705852)
(0.02169 0 0.000685701)
(0.02163 0 0.000664496)
(0.0215445 0 0.000642371)
(0.0214321 0 0.000619476)
(0.0212911 0 0.000595964)
(0.0211199 0 0.00057199)
(0.0209168 0 0.000547702)
(0.0206802 0 0.000523242)
(0.0214097 0 0.00068166)
(0.0213751 0 0.00066354)
(0.0213177 0 0.000644388)
(0.0212358 0 0.000624305)
(0.021128 0 0.000603409)
(0.0209926 0 0.000581828)
(0.020828 0 0.000559689)
(0.0206322 0 0.000537121)
(0.0204035 0 0.000514248)
(0.0210908 0 0.000654582)
(0.0210575 0 0.000638301)
(0.0210022 0 0.00062102)
(0.0209235 0 0.000602814)
(0.0208196 0 0.000583778)
(0.020689 0 0.000564013)
(0.02053 0 0.000543627)
(0.0203405 0 0.000522729)
(0.0201188 0 0.000501426)
(0.0207717 0 0.000624347)
(0.0207395 0 0.000609747)
(0.0206861 0 0.000594186)
(0.02061 0 0.000577722)
(0.0205095 0 0.000560427)
(0.020383 0 0.000542383)
(0.0202288 0 0.00052368)
(0.0200449 0 0.000504407)
(0.0198292 0 0.00048466)
(0.0204553 0 0.000590638)
(0.020424 0 0.000577589)
(0.0203722 0 0.000563628)
(0.0202982 0 0.000548793)
(0.0202006 0 0.000533143)
(0.0200777 0 0.000516744)
(0.0199276 0 0.000499667)
(0.0197485 0 0.000481988)
(0.0195382 0 0.000463787)
(0.0201447 0 0.000553091)
(0.0201143 0 0.00054149)
(0.0200637 0 0.00052903)
(0.0199917 0 0.000515738)
(0.0198965 0 0.00050166)
(0.0197766 0 0.000486846)
(0.0196301 0 0.000471355)
(0.0194551 0 0.000455252)
(0.0192495 0 0.000438602)
(0.0198439 0 0.000511283)
(0.0198141 0 0.00050105)
(0.0197647 0 0.000490019)
(0.0196942 0 0.000478206)
(0.0196012 0 0.000465647)
(0.0194838 0 0.000452382)
(0.0193404 0 0.000438459)
(0.019169 0 0.000423928)
(0.0189674 0 0.000408847)
(0.0195571 0 0.000464732)
(0.0195279 0 0.00045581)
(0.0194794 0 0.000446157)
(0.0194103 0 0.000435784)
(0.019319 0 0.000424716)
(0.0192039 0 0.000412985)
(0.0190631 0 0.000400629)
(0.0188947 0 0.000387691)
(0.0186966 0 0.000374216)
(0.0192895 0 0.000412881)
(0.0192608 0 0.000405236)
(0.0192131 0 0.000396936)
(0.0191451 0 0.000387987)
(0.0190553 0 0.000378407)
(0.018942 0 0.00036822)
(0.0188034 0 0.000357458)
(0.0186376 0 0.000346153)
(0.0184424 0 0.000334345)
(0.0190469 0 0.000355091)
(0.0190185 0 0.000348713)
(0.0189715 0 0.000341766)
(0.0189044 0 0.000334251)
(0.0188158 0 0.000326183)
(0.018704 0 0.000317579)
(0.0185673 0 0.000308464)
(0.0184036 0 0.000298864)
(0.0182108 0 0.00028881)
(0.0188359 0 0.000290622)
(0.0188078 0 0.000285527)
(0.0187612 0 0.000279961)
(0.0186949 0 0.000273923)
(0.0186072 0 0.000267422)
(0.0184967 0 0.000260472)
(0.0183613 0 0.000253091)
(0.0181993 0 0.000245299)
(0.0180086 0 0.000237122)
(0.0186639 0 0.000218615)
(0.018636 0 0.000214851)
(0.0185898 0 0.000210726)
(0.018524 0 0.000206241)
(0.0184371 0 0.0002014)
(0.0183274 0 0.000196213)
(0.0181931 0 0.000190693)
(0.0180324 0 0.000184855)
(0.0178431 0 0.000178718)
(0.0185394 0 0.000138068)
(0.0185116 0 0.000135717)
(0.0184657 0 0.000133135)
(0.0184003 0 0.000130321)
(0.0183138 0 0.000127277)
(0.0182047 0 0.00012401)
(0.0180712 0 0.000120528)
(0.0179113 0 0.000116839)
(0.017723 0 0.000112956)
(0.0184719 0 4.78026e-05)
(0.0184442 0 4.6993e-05)
(0.0183984 0 4.6102e-05)
(0.0183332 0 4.51293e-05)
(0.018247 0 4.40761e-05)
(0.0181382 0 4.29442e-05)
(0.018005 0 4.17363e-05)
(0.0178456 0 4.04558e-05)
(0.0176578 0 3.91063e-05)
)
;

boundaryField
{
    inlet
    {
        type            cellMotion;
        value           nonuniform 0();
    }
    outlet
    {
        type            cellMotion;
        value           nonuniform 0();
    }
    flap
    {
        type            cellMotion;
        value           nonuniform 0();
    }
    upperWall
    {
        type            slip;
    }
    lowerWall
    {
        type            slip;
    }
    frontAndBack
    {
        type            empty;
    }
    procBoundary1to0
    {
        type            processor;
        value           nonuniform List<vector> 
18
(
(0.0210815 0 0.000949313)
(0.0208654 0 0.00091242)
(0.0208654 0 0.00091242)
(0.0203094 0 0.000871794)
(0.0200711 0 0.000833335)
(0.0198193 0 0.000793529)
(0.0195572 0 0.000752073)
(0.0192879 0 0.000708627)
(0.0190153 0 0.000662811)
(0.0187431 0 0.0006142)
(0.0184757 0 0.000562315)
(0.018218 0 0.000506616)
(0.0179752 0 0.000446485)
(0.0177534 0 0.000381219)
(0.0175591 0 0.000310002)
(0.0173999 0 0.000231886)
(0.0172842 0 0.00014576)
(0.0172212 0 5.03095e-05)
)
;
    }
    procBoundary1to2
    {
        type            processor;
        value           nonuniform List<vector> 
17
(
(0.0211294 0 0.000499027)
(0.0209058 0 0.000502567)
(0.0206647 0 0.000502429)
(0.0204086 0 0.000498604)
(0.0201405 0 0.000491045)
(0.0198635 0 0.000479675)
(0.0195806 0 0.000464375)
(0.0192955 0 0.00044499)
(0.019012 0 0.000421321)
(0.0187344 0 0.000393125)
(0.0184676 0 0.000360113)
(0.0182168 0 0.000321944)
(0.017988 0 0.000278221)
(0.017788 0 0.00022849)
(0.0176243 0 0.000172228)
(0.0175054 0 0.000108847)
(0.0174407 0 3.76794e-05)
)
;
    }
    procBoundary1to3
    {
        type            processor;
        value           nonuniform List<vector> 9((0.0216694 0 0.00127536) (0.0217773 0 0.00123991) (0.0218292 0 0.00120365) (0.0218308 0 0.00116714) (0.0217888 0 0.00113071) (0.0217083 0 0.00109436) (0.0215937 0 0.00105813) (0.0214487 0 0.00102197) (0.0212769 0 0.000985766));
    }
    procBoundary1to4
    {
        type            processor;
        value           nonuniform List<vector> 
30
(
(0.0220308 0 0.00133322)
(0.0226654 0 0.0013028)
(0.0226654 0 0.0013028)
(0.023127 0 0.00130319)
(0.0235252 0 0.00124157)
(0.0235252 0 0.00124157)
(0.0238694 0 0.00121857)
(0.0240151 0 0.0011368)
(0.0240151 0 0.0011368)
(0.0242241 0 0.00109433)
(0.0241581 0 0.0010095)
(0.0241581 0 0.0010095)
(0.0242438 0 0.000957644)
(0.0242718 0 0.000915481)
(0.0240306 0 0.000874819)
(0.0240306 0 0.000874819)
(0.024027 0 0.000849992)
(0.0240065 0 0.000811984)
(0.023691 0 0.000762598)
(0.023691 0 0.000762598)
(0.0235906 0 0.000717944)
(0.0234504 0 0.00067405)
(0.0230509 0 0.000641714)
(0.0230509 0 0.000641714)
(0.0228489 0 0.000603635)
(0.0224033 0 0.00057768)
(0.0224033 0 0.00057768)
(0.0221434 0 0.000544179)
(0.0216507 0 0.000521817)
(0.0216507 0 0.000521817)
)
;
    }
}


// ************************************************************************* //
