/*--------------------------------*- C++ -*----------------------------------*\
| =========                 |                                                 |
| \\      /  F ield         | OpenFOAM: The Open Source CFD Toolbox           |
|  \\    /   O peration     | Version:  dev                                   |
|   \\  /    A nd           | Web:      www.OpenFOAM.org                      |
|    \\/     M anipulation  |                                                 |
\*---------------------------------------------------------------------------*/
FoamFile
{
    version     2.0;
    format      ascii;
    class       pointVectorField;
    location    "4";
    object      pointDisplacement;
}
// * * * * * * * * * * * * * * * * * * * * * * * * * * * * * * * * * * * * * //

dimensions      [0 1 0 0 0 0 0];

internalField   nonuniform List<vector> 
1028
(
(0.0218445 0 0.00130284)
(0.0223563 0 0.00131945)
(0.021971 0 0.00126538)
(0.0224542 0 0.00127678)
(0.0229113 0 0.00127965)
(0.0233366 0 0.00127319)
(0.0220375 0 0.00122739)
(0.0224912 0 0.00123467)
(0.0229141 0 0.00123389)
(0.0233019 0 0.00122447)
(0.0236493 0 0.00120586)
(0.0239511 0 0.00117747)
(0.0220509 0 0.00118931)
(0.0224761 0 0.00119343)
(0.0228675 0 0.00119004)
(0.0232219 0 0.00117879)
(0.0235354 0 0.00115937)
(0.0238043 0 0.00113153)
(0.0240254 0 0.00109517)
(0.0241962 0 0.00105042)
(0.022018 0 0.0011515)
(0.0224166 0 0.00115323)
(0.0227797 0 0.00114807)
(0.0231046 0 0.00113585)
(0.023389 0 0.00111647)
(0.0236305 0 0.00108994)
(0.0238272 0 0.00105642)
(0.0239777 0 0.00101637)
(0.0240816 0 0.000970598)
(0.0241351 0 0.000926715)
(0.0219449 0 0.0011141)
(0.0223192 0 0.00111408)
(0.0226567 0 0.00110782)
(0.0229561 0 0.00109529)
(0.0232157 0 0.00107653)
(0.0234343 0 0.00105172)
(0.0236109 0 0.00102119)
(0.0237452 0 0.000985503)
(0.0238374 0 0.00094547)
(0.0238848 0 0.000907571)
(0.0218365 0 0.00107707)
(0.0221887 0 0.00107587)
(0.0225037 0 0.00106905)
(0.0227808 0 0.00105668)
(0.0230193 0 0.00103892)
(0.0232187 0 0.00101603)
(0.0233788 0 0.000988439)
(0.0234999 0 0.000956701)
(0.0235827 0 0.00092156)
(0.0236253 0 0.000888568)
(0.0216969 0 0.00104038)
(0.0220293 0 0.00103844)
(0.0223245 0 0.00103146)
(0.0225824 0 0.00101958)
(0.0228029 0 0.00100304)
(0.0229861 0 0.000982145)
(0.0231325 0 0.000957325)
(0.0232428 0 0.00092912)
(0.0233179 0 0.000898172)
(0.0233565 0 0.000869273)
(0.0215297 0 0.00100387)
(0.0218445 0 0.00100154)
(0.0221223 0 0.000994705)
(0.0223635 0 0.000983552)
(0.0225687 0 0.000968341)
(0.0227383 0 0.000949409)
(0.0228732 0 0.000927168)
(0.0229745 0 0.000902108)
(0.0230434 0 0.000874778)
(0.0230786 0 0.000849342)
(0.0213382 0 0.000967369)
(0.0216373 0 0.000964922)
(0.0218999 0 0.000958441)
(0.0221267 0 0.000948147)
(0.0223187 0 0.000934311)
(0.0224768 0 0.000917266)
(0.0226022 0 0.000897396)
(0.0226959 0 0.000875135)
(0.0227595 0 0.000850951)
(0.0227919 0 0.000828482)
(0.0211254 0 0.000930637)
(0.0214106 0 0.000928276)
(0.0216599 0 0.000922299)
(0.0218742 0 0.000912943)
(0.0220549 0 0.000900477)
(0.0222032 0 0.000885217)
(0.0223204 0 0.000867514)
(0.0224078 0 0.000847749)
(0.0224669 0 0.000826321)
(0.022497 0 0.000806424)
(0.0205847 0 0.000892067)
(0.0208942 0 0.000893415)
(0.021167 0 0.000891287)
(0.0214045 0 0.000885913)
(0.0216081 0 0.000877528)
(0.0217791 0 0.000866395)
(0.0219189 0 0.000852806)
(0.0220291 0 0.000837078)
(0.0221111 0 0.000819545)
(0.0221665 0 0.000800548)
(0.0221945 0 0.000782902)
(0.0203489 0 0.000854076)
(0.0206471 0 0.000855422)
(0.020909 0 0.000853627)
(0.0211362 0 0.00084891)
(0.0213303 0 0.000841498)
(0.0214929 0 0.000831639)
(0.0216256 0 0.000819604)
(0.0217299 0 0.000805676)
(0.0218072 0 0.000790146)
(0.0218593 0 0.000773308)
(0.0218856 0 0.000757648)
(0.0200987 0 0.000814919)
(0.0203868 0 0.000816363)
(0.0206391 0 0.000814957)
(0.0208573 0 0.000810914)
(0.0210432 0 0.000804451)
(0.0211986 0 0.000795798)
(0.021325 0 0.0007852)
(0.0214242 0 0.00077291)
(0.0214976 0 0.000759184)
(0.0215468 0 0.000744274)
(0.0215715 0 0.000730381)
(0.0198371 0 0.000774302)
(0.0201163 0 0.0007759)
(0.0203601 0 0.00077491)
(0.0205704 0 0.000771536)
(0.0207492 0 0.000765981)
(0.0208982 0 0.000758456)
(0.0210193 0 0.000749182)
(0.021114 0 0.000738385)
(0.021184 0 0.000726288)
(0.0212308 0 0.000713111)
(0.0212541 0 0.0007008)
(0.0195673 0 0.000731885)
(0.0198385 0 0.000733667)
(0.0200748 0 0.000733096)
(0.0202782 0 0.000730368)
(0.0204507 0 0.000725668)
(0.0205943 0 0.00071919)
(0.0207107 0 0.000711133)
(0.0208016 0 0.000701696)
(0.0208686 0 0.000691076)
(0.0209133 0 0.000679464)
(0.0209354 0 0.000668579)
(0.0192927 0 0.000687295)
(0.0195567 0 0.000689264)
(0.0197864 0 0.000689096)
(0.0199838 0 0.000686975)
(0.020151 0 0.000683071)
(0.0202898 0 0.000677559)
(0.0204022 0 0.000670617)
(0.0204897 0 0.000662421)
(0.0205541 0 0.000653143)
(0.0205969 0 0.000642951)
(0.0206179 0 0.000633361)
(0.019017 0 0.000640118)
(0.0192748 0 0.000642255)
(0.0194986 0 0.000642457)
(0.0196907 0 0.000640894)
(0.0198532 0 0.00063772)
(0.0199879 0 0.000633093)
(0.0200967 0 0.000627169)
(0.0201814 0 0.000620105)
(0.0202435 0 0.000612053)
(0.0202847 0 0.000603157)
(0.0203048 0 0.000594749)
(0.0187444 0 0.00058989)
(0.0189965 0 0.000592159)
(0.0192153 0 0.000592683)
(0.0194028 0 0.000591619)
(0.0195611 0 0.000589106)
(0.0196923 0 0.000585282)
(0.0197981 0 0.000580287)
(0.0198803 0 0.000574257)
(0.0199404 0 0.000567326)
(0.0199801 0 0.00055962)
(0.0199994 0 0.000552301)
(0.0184793 0 0.000536092)
(0.0187266 0 0.000538437)
(0.018941 0 0.000539224)
(0.0191244 0 0.000538593)
(0.0192792 0 0.000536667)
(0.0194072 0 0.000533567)
(0.0195104 0 0.000529417)
(0.0195905 0 0.000524334)
(0.0196489 0 0.000518434)
(0.0196874 0 0.000511828)
(0.0197059 0 0.00050552)
(0.0182268 0 0.000478136)
(0.0184699 0 0.000480488)
(0.0186805 0 0.000481465)
(0.0188605 0 0.000481193)
(0.0190122 0 0.000479778)
(0.0191377 0 0.000477326)
(0.0192386 0 0.000473941)
(0.0193168 0 0.000469727)
(0.0193738 0 0.000464782)
(0.0194111 0 0.000459202)
(0.019429 0 0.000453843)
(0.0179926 0 0.000415355)
(0.0182321 0 0.000417625)
(0.0184395 0 0.00041871)
(0.0186166 0 0.000418718)
(0.0187658 0 0.000417736)
(0.018889 0 0.000415856)
(0.018988 0 0.000413166)
(0.0190647 0 0.000409752)
(0.0191204 0 0.000405698)
(0.0191569 0 0.000401085)
(0.0191741 0 0.000396628)
(0.017783 0 0.000346977)
(0.0180196 0 0.000349064)
(0.0182242 0 0.000350163)
(0.018399 0 0.000350363)
(0.0185461 0 0.000349737)
(0.0186674 0 0.000348357)
(0.0187649 0 0.000346296)
(0.0188403 0 0.000343625)
(0.0188951 0 0.000340413)
(0.0189307 0 0.000336725)
(0.0189475 0 0.00033314)
(0.017605 0 0.000272112)
(0.0178393 0 0.000273897)
(0.0180418 0 0.000274905)
(0.0182147 0 0.000275204)
(0.0183601 0 0.000274852)
(0.0184801 0 0.000273904)
(0.0185764 0 0.000272417)
(0.0186507 0 0.000270444)
(0.0187047 0 0.000268038)
(0.0187397 0 0.000265252)
(0.0187562 0 0.000262528)
(0.0174666 0 0.000189719)
(0.0176991 0 0.000191063)
(0.0179002 0 0.000191861)
(0.0180717 0 0.000192161)
(0.018216 0 0.000192002)
(0.0183349 0 0.000191423)
(0.0184303 0 0.000190461)
(0.0185039 0 0.000189155)
(0.0185573 0 0.000187541)
(0.0185919 0 0.000185655)
(0.018608 0 0.000183801)
(0.0173766 0 9.85728e-05)
(0.0176081 0 9.93138e-05)
(0.0178082 0 9.97684e-05)
(0.017979 0 9.99621e-05)
(0.0181225 0 9.99143e-05)
(0.0182407 0 9.96451e-05)
(0.0183356 0 9.91742e-05)
(0.0184088 0 9.85211e-05)
(0.0184618 0 9.7705e-05)
(0.0184962 0 9.67444e-05)
(0.0185121 0 9.57962e-05)
(0.0173449 0 0)
(0.017576 0 0)
(0.0177758 0 0)
(0.0179463 0 0)
(0.0180895 0 0)
(0.0182076 0 0)
(0.0183023 0 0)
(0.0183753 0 0)
(0.0184282 0 0)
(0.0184625 0 0)
(0.0184784 0 0)
(0.0218445 0 0.00130284)
(0.0223563 0 0.00131945)
(0.021971 0 0.00126538)
(0.0224542 0 0.00127678)
(0.0229113 0 0.00127965)
(0.0233366 0 0.00127319)
(0.0220375 0 0.00122739)
(0.0224912 0 0.00123467)
(0.0229141 0 0.00123389)
(0.0233019 0 0.00122447)
(0.0236493 0 0.00120586)
(0.0239511 0 0.00117747)
(0.0220509 0 0.00118931)
(0.0224761 0 0.00119343)
(0.0228675 0 0.00119004)
(0.0232219 0 0.00117879)
(0.0235354 0 0.00115937)
(0.0238043 0 0.00113153)
(0.0240254 0 0.00109517)
(0.0241962 0 0.00105042)
(0.022018 0 0.0011515)
(0.0224166 0 0.00115323)
(0.0227797 0 0.00114807)
(0.0231046 0 0.00113585)
(0.023389 0 0.00111647)
(0.0236305 0 0.00108994)
(0.0238272 0 0.00105642)
(0.0239777 0 0.00101637)
(0.0240816 0 0.000970598)
(0.0241351 0 0.000926715)
(0.0219449 0 0.0011141)
(0.0223192 0 0.00111408)
(0.0226567 0 0.00110782)
(0.0229561 0 0.00109529)
(0.0232157 0 0.00107653)
(0.0234343 0 0.00105172)
(0.0236109 0 0.00102119)
(0.0237452 0 0.000985503)
(0.0238374 0 0.00094547)
(0.0238848 0 0.000907571)
(0.0218365 0 0.00107707)
(0.0221887 0 0.00107587)
(0.0225037 0 0.00106905)
(0.0227808 0 0.00105668)
(0.0230193 0 0.00103892)
(0.0232187 0 0.00101603)
(0.0233788 0 0.000988439)
(0.0234999 0 0.000956701)
(0.0235827 0 0.00092156)
(0.0236253 0 0.000888568)
(0.0216969 0 0.00104038)
(0.0220293 0 0.00103844)
(0.0223245 0 0.00103146)
(0.0225824 0 0.00101958)
(0.0228029 0 0.00100304)
(0.0229861 0 0.000982145)
(0.0231325 0 0.000957325)
(0.0232428 0 0.00092912)
(0.0233179 0 0.000898172)
(0.0233565 0 0.000869273)
(0.0215297 0 0.00100387)
(0.0218445 0 0.00100154)
(0.0221223 0 0.000994705)
(0.0223635 0 0.000983552)
(0.0225687 0 0.000968341)
(0.0227383 0 0.000949409)
(0.0228732 0 0.000927168)
(0.0229745 0 0.000902108)
(0.0230434 0 0.000874778)
(0.0230786 0 0.000849342)
(0.0213382 0 0.000967369)
(0.0216373 0 0.000964922)
(0.0218999 0 0.000958441)
(0.0221267 0 0.000948147)
(0.0223187 0 0.000934311)
(0.0224768 0 0.000917266)
(0.0226022 0 0.000897396)
(0.0226959 0 0.000875135)
(0.0227595 0 0.000850951)
(0.0227919 0 0.000828482)
(0.0211254 0 0.000930637)
(0.0214106 0 0.000928276)
(0.0216599 0 0.000922299)
(0.0218742 0 0.000912943)
(0.0220549 0 0.000900477)
(0.0222032 0 0.000885217)
(0.0223204 0 0.000867514)
(0.0224078 0 0.000847749)
(0.0224669 0 0.000826321)
(0.022497 0 0.000806424)
(0.0205847 0 0.000892067)
(0.0208942 0 0.000893415)
(0.021167 0 0.000891287)
(0.0214045 0 0.000885913)
(0.0216081 0 0.000877528)
(0.0217791 0 0.000866395)
(0.0219189 0 0.000852806)
(0.0220291 0 0.000837078)
(0.0221111 0 0.000819545)
(0.0221665 0 0.000800548)
(0.0221945 0 0.000782902)
(0.0203489 0 0.000854076)
(0.0206471 0 0.000855422)
(0.020909 0 0.000853627)
(0.0211362 0 0.00084891)
(0.0213303 0 0.000841498)
(0.0214929 0 0.000831639)
(0.0216256 0 0.000819604)
(0.0217299 0 0.000805676)
(0.0218072 0 0.000790146)
(0.0218593 0 0.000773308)
(0.0218856 0 0.000757648)
(0.0200987 0 0.000814919)
(0.0203868 0 0.000816363)
(0.0206391 0 0.000814957)
(0.0208573 0 0.000810914)
(0.0210432 0 0.000804451)
(0.0211986 0 0.000795798)
(0.021325 0 0.0007852)
(0.0214242 0 0.00077291)
(0.0214976 0 0.000759184)
(0.0215468 0 0.000744274)
(0.0215715 0 0.000730381)
(0.0198371 0 0.000774302)
(0.0201163 0 0.0007759)
(0.0203601 0 0.00077491)
(0.0205704 0 0.000771536)
(0.0207492 0 0.000765981)
(0.0208982 0 0.000758456)
(0.0210193 0 0.000749182)
(0.021114 0 0.000738385)
(0.021184 0 0.000726288)
(0.0212308 0 0.000713111)
(0.0212541 0 0.0007008)
(0.0195673 0 0.000731885)
(0.0198385 0 0.000733667)
(0.0200748 0 0.000733096)
(0.0202782 0 0.000730368)
(0.0204507 0 0.000725668)
(0.0205943 0 0.00071919)
(0.0207107 0 0.000711133)
(0.0208016 0 0.000701696)
(0.0208686 0 0.000691076)
(0.0209133 0 0.000679464)
(0.0209354 0 0.000668579)
(0.0192927 0 0.000687295)
(0.0195567 0 0.000689264)
(0.0197864 0 0.000689096)
(0.0199838 0 0.000686975)
(0.020151 0 0.000683071)
(0.0202898 0 0.000677559)
(0.0204022 0 0.000670617)
(0.0204897 0 0.000662421)
(0.0205541 0 0.000653143)
(0.0205969 0 0.000642951)
(0.0206179 0 0.000633361)
(0.019017 0 0.000640118)
(0.0192748 0 0.000642255)
(0.0194986 0 0.000642457)
(0.0196907 0 0.000640894)
(0.0198532 0 0.00063772)
(0.0199879 0 0.000633093)
(0.0200967 0 0.000627169)
(0.0201814 0 0.000620105)
(0.0202435 0 0.000612053)
(0.0202847 0 0.000603157)
(0.0203048 0 0.000594749)
(0.0187444 0 0.00058989)
(0.0189965 0 0.000592159)
(0.0192153 0 0.000592683)
(0.0194028 0 0.000591619)
(0.0195611 0 0.000589106)
(0.0196923 0 0.000585282)
(0.0197981 0 0.000580287)
(0.0198803 0 0.000574257)
(0.0199404 0 0.000567326)
(0.0199801 0 0.00055962)
(0.0199994 0 0.000552301)
(0.0184793 0 0.000536092)
(0.0187266 0 0.000538437)
(0.018941 0 0.000539224)
(0.0191244 0 0.000538593)
(0.0192792 0 0.000536667)
(0.0194072 0 0.000533567)
(0.0195104 0 0.000529417)
(0.0195905 0 0.000524334)
(0.0196489 0 0.000518434)
(0.0196874 0 0.000511828)
(0.0197059 0 0.00050552)
(0.0182268 0 0.000478136)
(0.0184699 0 0.000480488)
(0.0186805 0 0.000481465)
(0.0188605 0 0.000481193)
(0.0190122 0 0.000479778)
(0.0191377 0 0.000477326)
(0.0192386 0 0.000473941)
(0.0193168 0 0.000469727)
(0.0193738 0 0.000464782)
(0.0194111 0 0.000459202)
(0.019429 0 0.000453843)
(0.0179926 0 0.000415355)
(0.0182321 0 0.000417625)
(0.0184395 0 0.00041871)
(0.0186166 0 0.000418718)
(0.0187658 0 0.000417736)
(0.018889 0 0.000415856)
(0.018988 0 0.000413166)
(0.0190647 0 0.000409752)
(0.0191204 0 0.000405698)
(0.0191569 0 0.000401085)
(0.0191741 0 0.000396628)
(0.017783 0 0.000346977)
(0.0180196 0 0.000349064)
(0.0182242 0 0.000350163)
(0.018399 0 0.000350363)
(0.0185461 0 0.000349737)
(0.0186674 0 0.000348357)
(0.0187649 0 0.000346296)
(0.0188403 0 0.000343625)
(0.0188951 0 0.000340413)
(0.0189307 0 0.000336725)
(0.0189475 0 0.00033314)
(0.017605 0 0.000272112)
(0.0178393 0 0.000273897)
(0.0180418 0 0.000274905)
(0.0182147 0 0.000275204)
(0.0183601 0 0.000274852)
(0.0184801 0 0.000273904)
(0.0185764 0 0.000272417)
(0.0186507 0 0.000270444)
(0.0187047 0 0.000268038)
(0.0187397 0 0.000265252)
(0.0187562 0 0.000262528)
(0.0174666 0 0.000189719)
(0.0176991 0 0.000191063)
(0.0179002 0 0.000191861)
(0.0180717 0 0.000192161)
(0.018216 0 0.000192002)
(0.0183349 0 0.000191423)
(0.0184303 0 0.000190461)
(0.0185039 0 0.000189155)
(0.0185573 0 0.000187541)
(0.0185919 0 0.000185655)
(0.018608 0 0.000183801)
(0.0173766 0 9.85728e-05)
(0.0176081 0 9.93138e-05)
(0.0178082 0 9.97684e-05)
(0.017979 0 9.99621e-05)
(0.0181225 0 9.99143e-05)
(0.0182407 0 9.96451e-05)
(0.0183356 0 9.91742e-05)
(0.0184088 0 9.85211e-05)
(0.0184618 0 9.7705e-05)
(0.0184962 0 9.67444e-05)
(0.0185121 0 9.57962e-05)
(0.0173449 0 0)
(0.017576 0 0)
(0.0177758 0 0)
(0.0179463 0 0)
(0.0180895 0 0)
(0.0182076 0 0)
(0.0183023 0 0)
(0.0183753 0 0)
(0.0184282 0 0)
(0.0184625 0 0)
(0.0184784 0 0)
(0.0241514 0 0.0008941)
(0.0238993 0 0.000879585)
(0.0239006 0 0.000856665)
(0.0238894 0 0.000827515)
(0.0236383 0 0.0008643)
(0.0236396 0 0.000844423)
(0.0236296 0 0.000819083)
(0.0233684 0 0.00084806)
(0.0233695 0 0.000830675)
(0.0233606 0 0.000808459)
(0.0230895 0 0.000830688)
(0.0230905 0 0.000815386)
(0.0230824 0 0.000795784)
(0.0228019 0 0.000812006)
(0.0228029 0 0.00079847)
(0.0227954 0 0.00078109)
(0.0225061 0 0.000791824)
(0.022507 0 0.000779808)
(0.0225 0 0.00076434)
(0.022203 0 0.000769937)
(0.0222037 0 0.000759244)
(0.0221971 0 0.000745441)
(0.0218934 0 0.000746122)
(0.021894 0 0.000736593)
(0.0218877 0 0.000724254)
(0.0215788 0 0.000720131)
(0.0215793 0 0.000711635)
(0.0215733 0 0.000700598)
(0.0212608 0 0.000691693)
(0.0212612 0 0.000684121)
(0.0212554 0 0.000674251)
(0.0209417 0 0.000660502)
(0.0209419 0 0.000653764)
(0.0209362 0 0.000644949)
(0.0206238 0 0.00062622)
(0.0206239 0 0.000620241)
(0.0206183 0 0.000612389)
(0.0203102 0 0.000588464)
(0.0203102 0 0.000583183)
(0.0203047 0 0.000576219)
(0.0200045 0 0.000546808)
(0.0200043 0 0.000542173)
(0.0199989 0 0.000536036)
(0.0197106 0 0.000500765)
(0.0197104 0 0.000496736)
(0.0197051 0 0.00049138)
(0.0194335 0 0.000449784)
(0.0194331 0 0.000446332)
(0.0194278 0 0.000441723)
(0.0191784 0 0.000393237)
(0.0191779 0 0.000390341)
(0.0191727 0 0.000386458)
(0.0189516 0 0.0003304)
(0.018951 0 0.00032805)
(0.0189458 0 0.000324889)
(0.01876 0 0.000260436)
(0.0187594 0 0.000258636)
(0.0187542 0 0.000256204)
(0.0186118 0 0.000182371)
(0.0186111 0 0.000181137)
(0.0186059 0 0.000179464)
(0.0185158 0 9.50628e-05)
(0.0185151 0 9.44276e-05)
(0.0185099 0 9.35647e-05)
(0.018482 0 0)
(0.0184813 0 0)
(0.0184761 0 0)
(0.0241514 0 0.0008941)
(0.0238993 0 0.000879585)
(0.0239006 0 0.000856665)
(0.0238894 0 0.000827515)
(0.0236383 0 0.0008643)
(0.0236396 0 0.000844423)
(0.0236296 0 0.000819083)
(0.0233684 0 0.00084806)
(0.0233695 0 0.000830675)
(0.0233606 0 0.000808459)
(0.0230895 0 0.000830688)
(0.0230905 0 0.000815386)
(0.0230824 0 0.000795784)
(0.0228019 0 0.000812006)
(0.0228029 0 0.00079847)
(0.0227954 0 0.00078109)
(0.0225061 0 0.000791824)
(0.022507 0 0.000779808)
(0.0225 0 0.00076434)
(0.022203 0 0.000769937)
(0.0222037 0 0.000759244)
(0.0221971 0 0.000745441)
(0.0218934 0 0.000746122)
(0.021894 0 0.000736593)
(0.0218877 0 0.000724254)
(0.0215788 0 0.000720131)
(0.0215793 0 0.000711635)
(0.0215733 0 0.000700598)
(0.0212608 0 0.000691693)
(0.0212612 0 0.000684121)
(0.0212554 0 0.000674251)
(0.0209417 0 0.000660502)
(0.0209419 0 0.000653764)
(0.0209362 0 0.000644949)
(0.0206238 0 0.00062622)
(0.0206239 0 0.000620241)
(0.0206183 0 0.000612389)
(0.0203102 0 0.000588464)
(0.0203102 0 0.000583183)
(0.0203047 0 0.000576219)
(0.0200045 0 0.000546808)
(0.0200043 0 0.000542173)
(0.0199989 0 0.000536036)
(0.0197106 0 0.000500765)
(0.0197104 0 0.000496736)
(0.0197051 0 0.00049138)
(0.0194335 0 0.000449784)
(0.0194331 0 0.000446332)
(0.0194278 0 0.000441723)
(0.0191784 0 0.000393237)
(0.0191779 0 0.000390341)
(0.0191727 0 0.000386458)
(0.0189516 0 0.0003304)
(0.018951 0 0.00032805)
(0.0189458 0 0.000324889)
(0.01876 0 0.000260436)
(0.0187594 0 0.000258636)
(0.0187542 0 0.000256204)
(0.0186118 0 0.000182371)
(0.0186111 0 0.000181137)
(0.0186059 0 0.000179464)
(0.0185158 0 9.50628e-05)
(0.0185151 0 9.44276e-05)
(0.0185099 0 9.35647e-05)
(0.018482 0 0)
(0.0184813 0 0)
(0.0184761 0 0)
(0.0238469 0 0.000785733)
(0.0235918 0 0.000782506)
(0.0235147 0 0.000740363)
(0.0234 0 0.000698335)
(0.023247 0 0.000657013)
(0.0233265 0 0.000776216)
(0.0232566 0 0.000738742)
(0.023152 0 0.000700939)
(0.0230118 0 0.000663306)
(0.0228354 0 0.000626251)
(0.0226222 0 0.000590091)
(0.0230512 0 0.000767202)
(0.0229872 0 0.000733746)
(0.0228911 0 0.000699678)
(0.0227616 0 0.000665408)
(0.0225978 0 0.000631298)
(0.0223989 0 0.000597646)
(0.0221643 0 0.000564696)
(0.0218934 0 0.000532629)
(0.0227666 0 0.000755642)
(0.0227073 0 0.000725677)
(0.0226181 0 0.000694923)
(0.0224976 0 0.000663708)
(0.0223446 0 0.000632337)
(0.0221579 0 0.000601088)
(0.0219366 0 0.000570197)
(0.0216798 0 0.000539845)
(0.0213868 0 0.000510114)
(0.0224732 0 0.000741606)
(0.0224179 0 0.000714697)
(0.0223344 0 0.000686893)
(0.0222214 0 0.000658454)
(0.0220775 0 0.000629635)
(0.0219013 0 0.000600673)
(0.0216916 0 0.000571781)
(0.0214472 0 0.000543148)
(0.021167 0 0.000514863)
(0.0221719 0 0.000725082)
(0.0221198 0 0.00070087)
(0.0220412 0 0.000675705)
(0.0219345 0 0.000649791)
(0.0217983 0 0.000623338)
(0.021631 0 0.000596546)
(0.0214313 0 0.000569606)
(0.0211977 0 0.000542688)
(0.0209288 0 0.000515882)
(0.0218638 0 0.000705993)
(0.0218145 0 0.000684182)
(0.0217399 0 0.000661391)
(0.0216385 0 0.00063778)
(0.0215088 0 0.00061352)
(0.0213492 0 0.00058878)
(0.0211581 0 0.000563724)
(0.0209339 0 0.000538506)
(0.0206751 0 0.000513202)
(0.0215504 0 0.000684207)
(0.0215034 0 0.00066455)
(0.0214322 0 0.000643908)
(0.0213353 0 0.000622407)
(0.0212112 0 0.000600185)
(0.0210581 0 0.000577383)
(0.0208745 0 0.00055414)
(0.0206584 0 0.000530593)
(0.0204085 0 0.000506799)
(0.0212335 0 0.000659542)
(0.0211883 0 0.000641833)
(0.02112 0 0.000623151)
(0.021027 0 0.000603595)
(0.0209076 0 0.000583275)
(0.0207601 0 0.000562307)
(0.0205829 0 0.000540808)
(0.020374 0 0.000518897)
(0.0201318 0 0.000496615)
(0.0209151 0 0.000631767)
(0.0208716 0 0.000615836)
(0.0208057 0 0.000598957)
(0.0207159 0 0.000581206)
(0.0206005 0 0.000562671)
(0.0204579 0 0.000543446)
(0.0202863 0 0.00052363)
(0.0200836 0 0.000503324)
(0.0198483 0 0.000482552)
(0.0205979 0 0.000600606)
(0.0205557 0 0.000586313)
(0.0204919 0 0.000571107)
(0.0204048 0 0.000555045)
(0.020293 0 0.000538198)
(0.0201545 0 0.000520641)
(0.0199877 0 0.000502457)
(0.0197905 0 0.000483732)
(0.0195612 0 0.000464474)
(0.0202848 0 0.000565731)
(0.0202438 0 0.000552963)
(0.0201817 0 0.000539325)
(0.020097 0 0.000524861)
(0.0199881 0 0.000509625)
(0.0198533 0 0.000493679)
(0.0196906 0 0.00047709)
(0.0194981 0 0.000459932)
(0.0192741 0 0.000442199)
(0.0199795 0 0.000526762)
(0.0199394 0 0.00051543)
(0.0198788 0 0.00050328)
(0.0197962 0 0.000490344)
(0.0196898 0 0.000476664)
(0.019558 0 0.00046229)
(0.0193989 0 0.000447277)
(0.0192105 0 0.000431685)
(0.0189911 0 0.000415501)
(0.019686 0 0.000483257)
(0.0196467 0 0.000473296)
(0.0195874 0 0.000462578)
(0.0195064 0 0.000451124)
(0.0194022 0 0.000438967)
(0.0192731 0 0.000426148)
(0.0191171 0 0.00041271)
(0.0189322 0 0.000398703)
(0.0187168 0 0.000384107)
(0.019409 0 0.000434708)
(0.0193705 0 0.000426077)
(0.0193122 0 0.000416758)
(0.0192327 0 0.000406764)
(0.0191303 0 0.000396122)
(0.0190034 0 0.000384862)
(0.01885 0 0.00037302)
(0.0186681 0 0.000360638)
(0.0184561 0 0.00034769)
(0.0191541 0 0.00038053)
(0.0191162 0 0.000373212)
(0.0190587 0 0.000365283)
(0.0189804 0 0.000356754)
(0.0188795 0 0.000347643)
(0.0187544 0 0.000337975)
(0.0186032 0 0.000327778)
(0.0184239 0 0.000317085)
(0.0182148 0 0.000305871)
(0.0189275 0 0.000320045)
(0.01889 0 0.000314048)
(0.0188332 0 0.00030753)
(0.0187558 0 0.000300498)
(0.0186562 0 0.000292966)
(0.0185325 0 0.000284953)
(0.0183831 0 0.000276479)
(0.0182058 0 0.000267572)
(0.0179991 0 0.000258208)
(0.018736 0 0.000252469)
(0.0186989 0 0.000247831)
(0.0186427 0 0.000242776)
(0.018566 0 0.000237308)
(0.0184673 0 0.000231437)
(0.0183448 0 0.000225176)
(0.0181968 0 0.000218542)
(0.0180211 0 0.000211554)
(0.0178162 0 0.000204193)
(0.0185878 0 0.000176889)
(0.0185509 0 0.000173682)
(0.0184951 0 0.000170179)
(0.0184189 0 0.000166381)
(0.0183209 0 0.000162295)
(0.0181993 0 0.000157929)
(0.0180522 0 0.000153295)
(0.0178777 0 0.000148406)
(0.0176742 0 0.000143249)
(0.0184919 0 9.22334e-05)
(0.0184551 0 9.05735e-05)
(0.0183995 0 8.87566e-05)
(0.0183236 0 8.67836e-05)
(0.018226 0 8.46576e-05)
(0.0181049 0 8.23831e-05)
(0.0179584 0 7.99659e-05)
(0.0177846 0 7.74131e-05)
(0.0175819 0 7.47183e-05)
(0.0184581 0 0)
(0.0184214 0 0)
(0.0183658 0 0)
(0.0182901 0 0)
(0.0181926 0 0)
(0.0180716 0 0)
(0.0179254 0 0)
(0.0177517 0 0)
(0.0175493 0 0)
(0.0238469 0 0.000785733)
(0.0235918 0 0.000782506)
(0.0235147 0 0.000740363)
(0.0234 0 0.000698335)
(0.023247 0 0.000657013)
(0.0233265 0 0.000776216)
(0.0232566 0 0.000738742)
(0.023152 0 0.000700939)
(0.0230118 0 0.000663306)
(0.0228354 0 0.000626251)
(0.0226222 0 0.000590091)
(0.0230512 0 0.000767202)
(0.0229872 0 0.000733746)
(0.0228911 0 0.000699678)
(0.0227616 0 0.000665408)
(0.0225978 0 0.000631298)
(0.0223989 0 0.000597646)
(0.0221643 0 0.000564696)
(0.0218934 0 0.000532629)
(0.0227666 0 0.000755642)
(0.0227073 0 0.000725677)
(0.0226181 0 0.000694923)
(0.0224976 0 0.000663708)
(0.0223446 0 0.000632337)
(0.0221579 0 0.000601088)
(0.0219366 0 0.000570197)
(0.0216798 0 0.000539845)
(0.0213868 0 0.000510114)
(0.0224732 0 0.000741606)
(0.0224179 0 0.000714697)
(0.0223344 0 0.000686893)
(0.0222214 0 0.000658454)
(0.0220775 0 0.000629635)
(0.0219013 0 0.000600673)
(0.0216916 0 0.000571781)
(0.0214472 0 0.000543148)
(0.021167 0 0.000514863)
(0.0221719 0 0.000725082)
(0.0221198 0 0.00070087)
(0.0220412 0 0.000675705)
(0.0219345 0 0.000649791)
(0.0217983 0 0.000623338)
(0.021631 0 0.000596546)
(0.0214313 0 0.000569606)
(0.0211977 0 0.000542688)
(0.0209288 0 0.000515882)
(0.0218638 0 0.000705993)
(0.0218145 0 0.000684182)
(0.0217399 0 0.000661391)
(0.0216385 0 0.00063778)
(0.0215088 0 0.00061352)
(0.0213492 0 0.00058878)
(0.0211581 0 0.000563724)
(0.0209339 0 0.000538506)
(0.0206751 0 0.000513202)
(0.0215504 0 0.000684207)
(0.0215034 0 0.00066455)
(0.0214322 0 0.000643908)
(0.0213353 0 0.000622407)
(0.0212112 0 0.000600185)
(0.0210581 0 0.000577383)
(0.0208745 0 0.00055414)
(0.0206584 0 0.000530593)
(0.0204085 0 0.000506799)
(0.0212335 0 0.000659542)
(0.0211883 0 0.000641833)
(0.02112 0 0.000623151)
(0.021027 0 0.000603595)
(0.0209076 0 0.000583275)
(0.0207601 0 0.000562307)
(0.0205829 0 0.000540808)
(0.020374 0 0.000518897)
(0.0201318 0 0.000496615)
(0.0209151 0 0.000631767)
(0.0208716 0 0.000615836)
(0.0208057 0 0.000598957)
(0.0207159 0 0.000581206)
(0.0206005 0 0.000562671)
(0.0204579 0 0.000543446)
(0.0202863 0 0.00052363)
(0.0200836 0 0.000503324)
(0.0198483 0 0.000482552)
(0.0205979 0 0.000600606)
(0.0205557 0 0.000586313)
(0.0204919 0 0.000571107)
(0.0204048 0 0.000555045)
(0.020293 0 0.000538198)
(0.0201545 0 0.000520641)
(0.0199877 0 0.000502457)
(0.0197905 0 0.000483732)
(0.0195612 0 0.000464474)
(0.0202848 0 0.000565731)
(0.0202438 0 0.000552963)
(0.0201817 0 0.000539325)
(0.020097 0 0.000524861)
(0.0199881 0 0.000509625)
(0.0198533 0 0.000493679)
(0.0196906 0 0.00047709)
(0.0194981 0 0.000459932)
(0.0192741 0 0.000442199)
(0.0199795 0 0.000526762)
(0.0199394 0 0.00051543)
(0.0198788 0 0.00050328)
(0.0197962 0 0.000490344)
(0.0196898 0 0.000476664)
(0.019558 0 0.00046229)
(0.0193989 0 0.000447277)
(0.0192105 0 0.000431685)
(0.0189911 0 0.000415501)
(0.019686 0 0.000483257)
(0.0196467 0 0.000473296)
(0.0195874 0 0.000462578)
(0.0195064 0 0.000451124)
(0.0194022 0 0.000438967)
(0.0192731 0 0.000426148)
(0.0191171 0 0.00041271)
(0.0189322 0 0.000398703)
(0.0187168 0 0.000384107)
(0.019409 0 0.000434708)
(0.0193705 0 0.000426077)
(0.0193122 0 0.000416758)
(0.0192327 0 0.000406764)
(0.0191303 0 0.000396122)
(0.0190034 0 0.000384862)
(0.01885 0 0.00037302)
(0.0186681 0 0.000360638)
(0.0184561 0 0.00034769)
(0.0191541 0 0.00038053)
(0.0191162 0 0.000373212)
(0.0190587 0 0.000365283)
(0.0189804 0 0.000356754)
(0.0188795 0 0.000347643)
(0.0187544 0 0.000337975)
(0.0186032 0 0.000327778)
(0.0184239 0 0.000317085)
(0.0182148 0 0.000305871)
(0.0189275 0 0.000320045)
(0.01889 0 0.000314048)
(0.0188332 0 0.00030753)
(0.0187558 0 0.000300498)
(0.0186562 0 0.000292966)
(0.0185325 0 0.000284953)
(0.0183831 0 0.000276479)
(0.0182058 0 0.000267572)
(0.0179991 0 0.000258208)
(0.018736 0 0.000252469)
(0.0186989 0 0.000247831)
(0.0186427 0 0.000242776)
(0.018566 0 0.000237308)
(0.0184673 0 0.000231437)
(0.0183448 0 0.000225176)
(0.0181968 0 0.000218542)
(0.0180211 0 0.000211554)
(0.0178162 0 0.000204193)
(0.0185878 0 0.000176889)
(0.0185509 0 0.000173682)
(0.0184951 0 0.000170179)
(0.0184189 0 0.000166381)
(0.0183209 0 0.000162295)
(0.0181993 0 0.000157929)
(0.0180522 0 0.000153295)
(0.0178777 0 0.000148406)
(0.0176742 0 0.000143249)
(0.0184919 0 9.22334e-05)
(0.0184551 0 9.05735e-05)
(0.0183995 0 8.87566e-05)
(0.0183236 0 8.67836e-05)
(0.018226 0 8.46576e-05)
(0.0181049 0 8.23831e-05)
(0.0179584 0 7.99659e-05)
(0.0177846 0 7.74131e-05)
(0.0175819 0 7.47183e-05)
(0.0184581 0 0)
(0.0184214 0 0)
(0.0183658 0 0)
(0.0182901 0 0)
(0.0181926 0 0)
(0.0180716 0 0)
(0.0179254 0 0)
(0.0177517 0 0)
(0.0175493 0 0)
)
;

boundaryField
{
    inlet
    {
        type            fixedValue;
        value           nonuniform 0();
    }
    outlet
    {
        type            fixedValue;
        value           nonuniform 0();
    }
    flap
    {
        type            fixedValue;
        value           nonuniform 0();
    }
    upperWall
    {
        type            slip;
    }
    lowerWall
    {
        type            slip;
    }
    frontAndBack
    {
        type            empty;
    }
    procBoundary1to0
    {
        type            processor;
    }
    procBoundary1to2
    {
        type            processor;
    }
    procBoundary1to3
    {
        type            processor;
    }
    procBoundary1to4
    {
        type            processor;
    }
}


// ************************************************************************* //
