/*--------------------------------*- C++ -*----------------------------------*\
| =========                 |                                                 |
| \\      /  F ield         | OpenFOAM: The Open Source CFD Toolbox           |
|  \\    /   O peration     | Version:  dev                                   |
|   \\  /    A nd           | Web:      www.OpenFOAM.org                      |
|    \\/     M anipulation  |                                                 |
\*---------------------------------------------------------------------------*/
FoamFile
{
    version     2.0;
    format      ascii;
    class       surfaceVectorField;
    location    "0.12";
    object      Uf;
}
// * * * * * * * * * * * * * * * * * * * * * * * * * * * * * * * * * * * * * //

dimensions      [0 1 -1 0 0 0 0];

internalField   nonuniform List<vector> 
5457
(
(9.92129 -3.29683e-22 0.0236504)
(9.9693 -6.40315e-22 0.0383912)
(9.82806 2.20148e-23 0.0310669)
(9.92971 -6.33023e-22 0.0465885)
(9.71879 -2.97382e-23 0.0371187)
(9.86201 6.61488e-22 0.0559546)
(9.59152 -3.34083e-22 0.0431497)
(9.7691 -7.0347e-22 0.0667809)
(9.44611 3.3952e-23 0.0491425)
(9.65615 2.23042e-23 0.0781674)
(9.28286 -1.24922e-23 0.0550359)
(9.52417 1.17839e-23 0.0899242)
(9.10198 2.74511e-23 0.0608488)
(9.37224 -8.83243e-22 0.102077)
(8.90379 -2.48156e-24 0.0666244)
(9.19972 -7.44938e-22 0.114593)
(8.68872 -5.09729e-23 0.0724376)
(9.00667 -7.75942e-22 0.127401)
(8.45723 0 0.0784183)
(8.79355 0 0.140488)
(8.20962 0 0.0847529)
(8.56097 2.28462e-22 0.15396)
(7.94581 1.28059e-22 0.0916608)
(8.30941 7.10867e-22 0.168045)
(7.66532 5.28256e-22 0.0993633)
(8.03902 1.11718e-21 0.183053)
(7.36721 1.17708e-22 0.108055)
(7.74954 6.66314e-22 0.199316)
(7.05022 -2.69361e-22 0.117884)
(7.44024 -2.67025e-22 0.217127)
(6.71291 0 0.128947)
(7.11007 -1.16651e-21 0.236697)
(6.35388 3.25756e-22 0.141281)
(6.75779 5.73258e-22 0.258122)
(5.97186 3.17991e-22 0.154871)
(6.38213 6.08561e-22 0.28137)
(5.56599 1.46666e-21 0.169643)
(5.98202 4.05111e-21 0.306271)
(5.13591 -7.11686e-23 0.185469)
(5.55672 1.52051e-21 0.332507)
(4.68192 -1.47143e-21 0.202161)
(5.10607 -5.18087e-21 0.359611)
(4.20513 3.41666e-21 0.219481)
(4.63054 -7.13738e-21 0.386963)
(3.70755 -1.62862e-22 0.237155)
(4.13147 9.91142e-21 0.413807)
(3.19213 -3.43279e-21 0.254908)
(3.61111 -3.47522e-21 0.439284)
(2.6627 0 0.272511)
(3.07269 0 0.462498)
(2.12388 0 0.289844)
(2.52037 0 0.482608)
(1.58082 4.25875e-20 0.306917)
(1.9591 0 0.498905)
(1.0389 -3.73844e-20 0.324126)
(1.39449 -3.25915e-20 0.510801)
(0.502637 -4.24614e-20 0.335583)
(0.826801 7.35622e-21 0.518317)
(0.355329 -7.15689e-20 0.498631)
(9.99838 -9.45354e-22 0.0491735)
(9.99544 1.26089e-21 0.0391813)
(9.96375 2.11614e-23 0.0672528)
(9.98021 3.59069e-22 0.0638968)
(9.90772 -2.85392e-23 0.0832365)
(9.94061 -1.69417e-21 0.0846464)
(9.83115 -3.39074e-22 0.10009)
(9.87641 -1.02883e-21 0.106959)
(9.73299 0 0.117911)
(9.79104 0 0.130939)
(9.61231 -8.69806e-22 0.136575)
(9.68497 0 0.156403)
(9.46832 -1.65389e-21 0.156027)
(9.55684 9.44927e-23 0.183335)
(9.30063 -1.51874e-21 0.17615)
(9.40546 5.91183e-22 0.211552)
(9.10932 -7.15608e-22 0.196813)
(9.23041 -5.13407e-22 0.24073)
(8.89493 2.31217e-22 0.218001)
(9.03194 -1.07166e-21 0.270606)
(8.6582 9.44994e-22 0.239878)
(8.81068 1.12563e-21 0.301156)
(8.3998 1.70489e-21 0.262788)
(8.56737 2.30288e-22 0.332647)
(8.1201 1.24877e-21 0.287177)
(8.30257 1.48717e-21 0.365587)
(7.81903 2.6919e-22 0.313512)
(8.01649 -1.7874e-21 0.400613)
(7.49605 -1.17501e-21 0.342189)
(7.70884 -5.3956e-22 0.43836)
(7.15027 -5.72802e-22 0.373473)
(7.37891 -1.16651e-21 0.479347)
(6.78059 8.52949e-22 0.407454)
(7.02566 -2.46387e-21 0.523895)
(6.3859 4.37897e-21 0.444022)
(6.64787 2.14577e-21 0.572074)
(5.96528 4.08013e-21 0.482853)
(6.24437 6.74723e-21 0.623671)
(5.51817 -3.65757e-21 0.5234)
(5.81418 2.97914e-21 0.678171)
(5.04458 -1.08706e-20 0.564889)
(5.35674 -1.02472e-20 0.734734)
(4.54524 -4.63486e-22 0.606335)
(4.87206 -1.10904e-20 0.792195)
(4.02176 6.45659e-21 0.64658)
(4.36092 1.46149e-20 0.849077)
(3.47675 0 0.684377)
(3.82501 0 0.903642)
(2.91381 0 0.718511)
(3.26704 0 0.953991)
(2.33753 0 0.747963)
(2.69081 0 0.99821)
(1.75334 -7.58958e-20 0.772021)
(2.10115 0 1.03454)
(1.16721 1.26692e-20 0.790679)
(1.50427 -7.49696e-20 1.06141)
(0.584461 -2.38607e-20 0.792778)
(0.897711 8.16807e-20 1.07862)
(0.384668 -1.42584e-19 1.05799)
(9.99088 2.55765e-21 0.0565279)
(9.99313 1.89967e-21 0.0436298)
(9.95908 -1.38148e-21 0.0843831)
(9.97522 -6.22732e-22 0.0797879)
(9.90629 -2.68692e-21 0.111098)
(9.93642 -6.86424e-22 0.111674)
(9.83419 -6.75919e-22 0.139746)
(9.87501 6.87992e-22 0.144789)
(9.74201 0 0.170741)
(9.79329 0 0.180492)
(9.6285 9.65631e-22 0.203978)
(9.69161 -1.84107e-22 0.21892)
(9.49257 2.34555e-21 0.239243)
(9.56869 1.14242e-21 0.260043)
(9.33348 1.58269e-21 0.276132)
(9.42326 5.96556e-22 0.303533)
(9.15101 -8.76723e-22 0.31419)
(9.25471 1.0327e-21 0.348813)
(8.94544 -1.50754e-22 0.353141)
(9.06311 -2.35303e-21 0.395359)
(8.71735 4.01164e-22 0.393047)
(8.84896 1.77436e-21 0.442967)
(8.46736 3.05619e-23 0.434328)
(8.61291 -8.63908e-24 0.491886)
(8.19584 -1.58749e-21 0.477672)
(8.35548 1.48106e-21 0.542773)
(7.90278 -2.58025e-21 0.523877)
(8.07685 -2.94239e-24 0.596544)
(7.58769 -5.37645e-22 0.573695)
(7.77677 -5.442e-22 0.654175)
(7.2497 -3.07241e-21 0.627701)
(7.45452 1.12631e-21 0.716526)
(6.88761 -1.11576e-21 0.686197)
(7.10899 -4.21926e-21 0.784198)
(6.50015 4.56909e-21 0.749159)
(6.73885 1.86299e-21 0.857445)
(6.08608 5.61138e-21 0.816195)
(6.34268 2.69612e-21 0.936114)
(5.64442 -3.75022e-21 0.886517)
(5.91915 2.90791e-21 1.0196)
(5.17462 -1.04812e-20 0.958923)
(5.46723 -1.09863e-20 1.10681)
(4.67677 4.24585e-21 1.03179)
(4.98634 -7.01028e-21 1.19615)
(4.15177 7.98197e-21 1.10313)
(4.47655 -8.11991e-21 1.2855)
(3.60146 0 1.17062)
(3.93879 2.78134e-20 1.37227)
(3.02886 0 1.23178)
(3.375 -1.40121e-20 1.45348)
(2.43812 0 1.28416)
(2.78838 0 1.52594)
(1.83459 0 1.32545)
(2.18336 3.11108e-20 1.58646)
(1.22468 -4.33788e-21 1.35422)
(1.56668 -3.20795e-20 1.63201)
(0.615173 -4.00128e-20 1.35372)
(0.933856 6.09313e-20 1.6614)
(0.397456 -9.61469e-20 1.63528)
(9.98679 -1.31248e-21 0.0673422)
(9.99192 -1.2663e-21 0.0500736)
(9.95499 6.97267e-23 0.10635)
(9.97227 -2.57566e-21 0.0956788)
(9.90315 2.7017e-21 0.144518)
(9.93332 1.33078e-21 0.138218)
(9.83224 1.35386e-21 0.184737)
(9.87307 1.37044e-21 0.18199)
(9.74184 -1.86332e-22 0.228007)
(9.79308 -1.40472e-21 0.229085)
(9.6308 8.85588e-24 0.27452)
(9.69361 -1.84106e-22 0.280081)
(9.49802 -6.12756e-22 0.324072)
(9.57352 1.88313e-22 0.334973)
(9.34278 5.19161e-23 0.37613)
(9.4316 7.74082e-22 0.393286)
(9.16484 -4.8535e-22 0.430041)
(9.26727 -1.21586e-21 0.454211)
(8.96444 -3.77962e-22 0.485356)
(9.08058 1.2721e-21 0.516975)
(8.74208 1.34387e-21 0.542066)
(8.87196 -1.34028e-21 0.581214)
(8.49831 1.45983e-21 0.600664)
(8.64201 4.71021e-22 0.64716)
(8.23345 3.04708e-21 0.662047)
(8.3912 -1.94433e-21 0.715615)
(7.94742 2.02639e-21 0.727314)
(8.11967 2.03587e-21 0.787766)
(7.63972 1.13987e-21 0.797556)
(7.82711 4.27674e-21 0.864932)
(7.30938 -8.48983e-23 0.873662)
(7.51273 -2.20489e-21 0.948327)
(6.95512 -1.16917e-21 0.956192)
(7.17534 -4.59614e-24 1.03887)
(6.57548 0 1.04527)
(6.81345 4.99303e-21 1.13705)
(6.16893 0 1.14055)
(6.42541 1.41538e-21 1.24286)
(5.73412 -4.48144e-21 1.24113)
(6.00954 -5.37832e-21 1.35572)
(5.26995 -7.48333e-21 1.34553)
(5.56433 8.56881e-21 1.4744)
(4.77587 -1.94148e-20 1.45165)
(5.08857 1.03325e-20 1.59699)
(4.25201 1.20902e-20 1.55679)
(4.5816 -1.46182e-20 1.72085)
(3.69945 1.33641e-20 1.65769)
(4.04351 2.69868e-20 1.84259)
(3.12046 -1.38471e-20 1.75061)
(3.47543 -1.40143e-20 1.95814)
(2.51866 3.14752e-20 1.83163)
(2.87981 1.79964e-21 2.06287)
(1.89919 -1.52104e-21 1.89678)
(2.26054 3.11164e-20 2.15192)
(1.26876 3.42577e-20 1.94318)
(1.62489 -3.20849e-20 2.22036)
(0.635166 6.35021e-21 1.94729)
(0.966043 9.61477e-20 2.26567)
(0.408475 -8.63755e-20 2.23551)
(9.9849 -2.54645e-21 0.0789568)
(9.99138 -3.76811e-21 0.057437)
(9.95272 -1.26785e-21 0.127704)
(9.97089 -1.31236e-21 0.111763)
(9.90177 0 0.17612)
(9.93203 1.2387e-22 0.164302)
(9.83226 -1.42172e-21 0.227041)
(9.87301 -8.4573e-23 0.218464)
(9.74378 -1.38774e-21 0.281977)
(9.79498 -6.60483e-25 0.276646)
(9.6353 0 0.341386)
(9.69804 -1.44463e-21 0.339829)
(9.50575 1.58221e-21 0.405026)
(9.58109 1.49625e-21 0.408081)
(9.35441 -5.17699e-22 0.472156)
(9.44302 1.55402e-21 0.480782)
(9.18107 5.71633e-22 0.541861)
(9.28329 -4.13448e-22 0.55689)
(8.98593 2.78483e-22 0.613471)
(9.10192 4.23339e-21 0.635395)
(8.76949 -2.19074e-21 0.686878)
(8.89935 -3.96851e-21 0.715783)
(8.53224 -2.96212e-21 0.762636)
(8.67613 0 0.79828)
(8.27446 -2.90631e-21 0.841845)
(8.4327 9.23789e-22 0.883835)
(7.99603 4.31351e-21 0.925916)
(8.16916 -4.03279e-21 0.973911)
(7.69636 8.54297e-22 1.0163)
(7.88513 2.11408e-21 1.07018)
(7.37442 -2.09813e-21 1.11423)
(7.57976 -1.19213e-21 1.17423)
(7.02879 6.2174e-21 1.22057)
(7.25174 -3.51349e-21 1.28734)
(6.65778 6.36996e-21 1.33568)
(6.89941 9.78635e-21 1.41029)
(6.25958 -4.03775e-21 1.45934)
(6.52084 -2.39107e-21 1.54331)
(5.83238 7.83955e-21 1.59064)
(6.11396 -5.37855e-21 1.68593)
(5.37452 2.64185e-20 1.72796)
(5.67672 1.15871e-20 1.83695)
(4.88473 1.48347e-20 1.86885)
(5.20722 1.33907e-20 1.99428)
(4.36232 7.2524e-22 2.00999)
(4.70394 1.58578e-21 2.15489)
(3.80749 -8.21796e-22 2.1472)
(4.16598 -8.31727e-22 2.3147)
(3.22164 1.82108e-21 2.27547)
(3.59346 1.36491e-20 2.46853)
(2.60777 1.77883e-21 2.38926)
(2.9879 -1.5761e-20 2.61024)
(1.97072 0 2.48273)
(2.3525 -1.48661e-20 2.73306)
(1.3174 3.12999e-20 2.55148)
(1.69504 7.68752e-21 2.8299)
(0.655911 6.32533e-21 2.56495)
(1.00597 3.0954e-20 2.89692)
(0.422815 -2.58207e-20 2.8702)
(9.98411 -2.50491e-21 0.0908919)
(9.99119 -2.4934e-21 0.0651865)
(9.95184 9.64045e-23 0.148778)
(9.97048 2.53501e-21 0.127889)
(9.902 3.68556e-23 0.207097)
(9.93211 2.74252e-21 0.189822)
(9.83428 1.33722e-21 0.268594)
(9.8746 -8.45726e-23 0.253995)
(9.7482 -7.52755e-23 0.335041)
(9.79891 -1.54961e-21 0.322921)
(9.64278 8.71434e-23 0.407074)
(9.70498 3.22973e-21 0.397889)
(9.51702 1.46926e-21 0.484403)
(9.59174 -3.1551e-21 0.479048)
(9.37024 1.63446e-21 0.566096)
(9.45818 -1.55973e-21 0.565647)
(9.20222 3.30399e-21 0.651011)
(9.30377 1.62357e-21 0.656413)
(9.01319 -1.12657e-22 0.738295)
(9.12858 1.66605e-21 0.75011)
(8.80362 -1.72996e-21 0.827772)
(8.93302 1.72948e-21 0.846082)
(8.57398 3.89699e-21 0.920077)
(8.71763 9.17254e-22 0.944555)
(8.3245 -2.62633e-22 1.01653)
(8.48282 1.00668e-21 1.04664)
(8.05502 -6.1569e-21 1.11886)
(8.22865 -7.99101e-21 1.15407)
(7.76489 2.87356e-23 1.22889)
(7.9547 -1.11531e-22 1.2689)
(7.45298 -2.63572e-21 1.34824)
(7.66007 -4.3934e-21 1.3931)
(7.11771 2.13181e-22 1.47813)
(7.34331 -1.58018e-22 1.52835)
(6.75716 8.83776e-22 1.61921)
(7.00258 4.79329e-21 1.67582)
(6.36917 -3.76067e-21 1.7715)
(6.63566 -1.29314e-21 1.83605)
(5.95141 -1.42809e-21 1.93422)
(6.24005 -2.58793e-21 2.00883)
(5.50158 -1.39433e-21 2.10574)
(5.81307 -1.41123e-21 2.19313)
(5.01753 0 2.28341)
(5.35201 -1.41849e-21 2.38688)
(4.49757 0 2.46345)
(4.85432 -1.48449e-21 2.58684)
(3.94076 1.38125e-20 2.64082)
(4.31785 0 2.7884)
(3.34739 -4.23709e-21 2.80921)
(3.74135 1.38554e-20 2.9854)
(2.71953 -3.2409e-20 2.96125)
(3.12505 -1.58455e-20 3.17011)
(2.06154 -6.99157e-21 3.0889)
(2.47099 -2.21746e-21 3.33356)
(1.38063 7.59891e-21 3.18572)
(1.78745 3.37153e-22 3.46596)
(0.685982 -2.70749e-22 3.21466)
(1.06214 7.80681e-21 3.56134)
(0.444521 -2.45716e-20 3.54572)
(9.98393 2.60692e-21 0.102889)
(9.99119 2.5049e-21 0.0730253)
(9.952 5.18341e-21 0.169492)
(9.97071 2.65939e-23 0.143842)
(9.90351 2.58694e-21 0.23727)
(9.93323 2.88725e-25 0.214654)
(9.83793 -2.9891e-21 0.308946)
(9.87754 0 0.288399)
(9.7547 1.81289e-21 0.386465)
(9.80456 -1.76262e-22 0.367667)
(9.65289 -8.9674e-23 0.470619)
(9.7141 1.62534e-21 0.453964)
(9.53156 -6.16406e-21 0.561094)
(9.60517 -1.87068e-21 0.547516)
(9.39007 -1.53181e-21 0.656788)
(9.47678 -1.16988e-21 0.647451)
(9.22824 -1.3306e-23 0.756334)
(9.3285 3.16819e-21 0.752272)
(9.0463 3.50881e-21 0.858702)
(9.16039 -4.1317e-21 0.860525)
(8.84471 4.36627e-21 0.963652)
(8.97288 8.97215e-22 0.97142)
(8.62392 -1.97143e-21 1.0719)
(8.7665 9.17242e-22 1.08519)
(8.38414 -6.8298e-21 1.18498)
(8.54163 -9.53764e-22 1.2031)
(8.12519 -1.8501e-21 1.30496)
(8.29833 -3.90663e-21 1.32719)
(7.84637 -4.58391e-21 1.43404)
(8.03618 2.09333e-21 1.45987)
(7.54646 -1.86562e-21 1.57428)
(7.75419 -6.49219e-21 1.60354)
(7.22374 4.47855e-21 1.7273)
(7.45086 6.74053e-21 1.76034)
(6.87606 2.54263e-21 1.89416)
(7.12417 2.30686e-21 1.93188)
(6.50085 -1.36517e-22 2.07521)
(6.77161 2.51252e-21 2.11913)
(6.09527 -2.55703e-21 2.26999)
(6.39024 -1.47055e-23 2.32231)
(5.65623 -1.43548e-21 2.47705)
(5.97672 1.07705e-20 2.54074)
(5.18058 -2.90391e-21 2.69379)
(5.52742 -2.38255e-22 2.77264)
(4.66534 -1.46694e-21 2.91616)
(5.03851 2.32739e-20 3.01485)
(4.10806 2.05332e-22 3.13846)
(4.5063 -1.20512e-20 3.26249)
(3.50744 1.95552e-21 3.35312)
(3.92767 2.56836e-24 3.50863)
(2.86407 1.45243e-20 3.55079)
(3.30084 1.73463e-21 3.744)
(2.18141 5.18604e-21 3.72062)
(2.62594 4.93899e-22 3.95711)
(1.46697 6.7835e-22 3.85293)
(1.91118 -7.46737e-21 4.13437)
(0.732485 -1.65946e-20 3.90359)
(1.14144 2.1822e-20 4.26545)
(0.476741 -2.44398e-20 4.26428)
(9.98412 -1.05451e-22 0.114738)
(9.99132 2.49277e-21 0.0807709)
(9.95293 -5.15622e-21 0.189679)
(9.97138 -1.18296e-25 0.15943)
(9.90605 -2.58605e-21 0.266452)
(9.93514 -2.61773e-21 0.238657)
(9.84296 2.81005e-21 0.347856)
(9.8816 -2.65929e-21 0.321501)
(9.76301 -3.41886e-22 0.435982)
(9.81167 3.69603e-23 0.410646)
(9.66533 -1.98038e-22 0.531743)
(9.72516 -5.69645e-21 0.507762)
(9.54906 3.13126e-21 0.6348)
(9.62108 2.59714e-21 0.613131)
(9.4136 3.58241e-21 0.743882)
(9.49854 3.80617e-22 0.725769)
(9.2588 -1.03754e-21 0.857406)
(9.35715 3.44554e-24 0.843966)
(9.08492 -6.68154e-21 0.974168)
(9.197 -8.30611e-22 0.966053)
(8.8924 -2.55083e-21 1.09387)
(9.01855 -2.58188e-21 1.09111)
(8.68172 1.91204e-21 1.2173)
(8.82231 8.92616e-22 1.21939)
(8.45307 1.93238e-21 1.34624)
(8.6087 9.7673e-22 1.35231)
(8.20627 1.08016e-22 1.48307)
(8.37778 3.93802e-21 1.49219)
(7.94061 8.06648e-23 1.63043)
(8.12913 2.03054e-21 1.64182)
(7.65481 2.27121e-21 1.79081)
(7.86178 3.75782e-23 1.80408)
(7.34706 4.51565e-21 1.96631)
(7.57418 7.67733e-24 1.98157)
(7.01498 2.27924e-21 2.15849)
(7.26419 2.25837e-21 2.17644)
(6.65567 2.60332e-21 2.3682)
(6.92907 0 2.39022)
(6.2657 1.34411e-20 2.59548)
(6.56547 2.57256e-21 2.62372)
(5.84118 1.18498e-20 2.83932)
(6.1694 1.07707e-20 2.87686)
(5.37779 2.62068e-20 3.09745)
(5.73623 -9.69384e-21 3.14846)
(4.87099 1.22906e-20 3.36595)
(5.26074 3.58918e-20 3.43584)
(4.31637 -1.2112e-20 3.63879)
(4.73729 -2.38506e-20 3.73435)
(3.7103 -1.98566e-22 3.90736)
(4.16025 1.48811e-20 4.03672)
(3.05096 -1.23044e-20 4.16022)
(3.52488 1.55459e-21 4.33238)
(2.33992 -1.22423e-20 4.38298)
(2.82799 -1.21592e-20 4.60705)
(1.58419 1.41185e-20 4.56094)
(2.07621 -1.3977e-20 4.84214)
(0.797757 1.38408e-20 4.64051)
(1.25043 3.26735e-20 5.02017)
(0.522244 0 5.03972)
(9.98456 2.56758e-21 0.126279)
(9.99153 4.89647e-21 0.0883014)
(9.95442 2.50622e-21 0.20918)
(9.97237 7.50714e-21 0.174493)
(9.90945 -2.69147e-21 0.294482)
(9.93768 2.60856e-21 0.261686)
(9.84916 -5.39973e-21 0.38513)
(9.88659 1.65719e-22 0.353131)
(9.77291 -5.38688e-21 0.483349)
(9.82007 -1.70751e-22 0.451638)
(9.67987 -2.80108e-21 0.590147)
(9.73792 2.97938e-21 0.559008)
(9.56924 -1.801e-22 0.70515)
(9.63922 -5.47981e-22 0.675561)
(9.4405 -3.20166e-21 0.826928)
(9.52314 7.52118e-22 0.800204)
(9.29354 2.00077e-22 0.953687)
(9.38935 -3.55022e-21 0.931021)
(9.12862 3.24632e-21 1.08405)
(9.238 3.28585e-21 1.06614)
(8.94624 9.03349e-22 1.21767)
(9.06954 8.45475e-22 1.20451)
(8.74686 -4.17822e-23 1.35543)
(8.88455 -1.729e-21 1.34639)
(8.53074 3.01635e-21 1.4993)
(8.68344 8.83743e-22 1.49335)
(8.29769 5.83621e-21 1.65203)
(8.46634 7.60945e-21 1.64799)
(8.04703 1.96357e-21 1.81666)
(8.23289 -1.97243e-21 1.8135)
(7.77752 -2.22467e-21 1.99616)
(7.98216 -4.12359e-21 1.9932)
(7.48727 -2.21937e-21 2.1932)
(7.71263 -2.18991e-21 2.19023)
(7.17377 -4.62683e-23 2.4099)
(7.42213 -6.75715e-21 2.40732)
(6.83385 0 2.64778)
(7.10779 9.21967e-21 2.64669)
(6.46356 0 2.90758)
(6.76594 -4.75413e-21 2.90991)
(6.05821 -1.10044e-20 3.18906)
(6.39204 1.00612e-20 3.19781)
(5.61225 5.06626e-22 3.49071)
(5.98052 -1.35893e-20 3.51016)
(5.11933 -9.4088e-22 3.80924)
(5.52467 1.09673e-20 3.84533)
(4.57256 3.59002e-21 4.13888)
(5.01662 -6.96148e-22 4.19959)
(3.96506 1.64756e-20 4.47055)
(4.44755 4.55496e-22 4.56614)
(3.2912 1.536e-21 4.79093)
(3.80847 1.19937e-20 4.93389)
(2.54866 -1.39907e-20 5.08147)
(3.09072 -1.2559e-20 5.28602)
(1.74189 5.34945e-21 5.32033)
(2.29651 -1.70882e-20 5.59794)
(0.885729 1.84453e-20 5.44077)
(1.39974 1.51639e-20 5.84176)
(0.586168 2.43258e-20 5.8946)
(9.98518 9.86754e-21 0.137391)
(9.99181 -4.54662e-25 0.0955297)
(9.95635 7.5502e-21 0.227855)
(9.97361 -7.84752e-23 0.188898)
(9.91355 5.43546e-21 0.321208)
(9.94072 5.25807e-21 0.283602)
(9.85638 5.38927e-21 0.420578)
(9.89238 2.74237e-21 0.38313)
(9.7842 8.23193e-21 0.528325)
(9.82958 2.56795e-21 0.49044)
(9.69625 5.18897e-21 0.645533)
(9.75219 5.60196e-21 0.607449)
(9.59181 3.99962e-22 0.771787)
(9.65933 -3.74097e-24 0.734499)
(9.47043 3.51643e-22 0.905499)
(9.55027 -2.95086e-21 0.870386)
(9.33204 -3.82068e-22 1.04467)
(9.42474 -4.43754e-24 1.013)
(9.17695 8.55644e-22 1.18777)
(9.28294 0 1.16025)
(9.00569 -1.81784e-21 1.33438)
(9.12535 8.45456e-22 1.31099)
(8.81876 -7.72184e-22 1.48546)
(8.9526 -2.62153e-21 1.46546)
(8.61646 5.55763e-21 1.6432)
(8.76517 1.8989e-24 1.62537)
(8.39869 -3.11103e-22 1.81067)
(8.56325 5.50343e-21 1.79358)
(8.16485 -8.08232e-21 1.99133)
(8.3466 -3.95672e-21 1.97366)
(7.91377 -4.06737e-21 2.18867)
(8.1144 -6.13447e-21 2.16938)
(7.64361 -6.78021e-21 2.40592)
(7.86526 1.45258e-20 2.38444)
(7.35183 2.69868e-21 2.64589)
(7.59709 -1.09749e-20 2.62221)
(7.0351 4.30246e-21 2.91088)
(7.30702 1.37181e-20 2.88566)
(6.68912 5.48378e-21 3.20259)
(6.99126 -9.34867e-21 3.17733)
(6.30851 7.20377e-21 3.52188)
(6.6449 1.48905e-20 3.49918)
(5.88652 -2.85685e-21 3.86854)
(6.26164 -1.16656e-22 3.85242)
(5.41494 1.10651e-20 4.24061)
(5.8334 -1.63332e-22 4.23712)
(4.88395 -3.83844e-21 4.63358)
(5.35005 1.11016e-20 4.65144)
(4.28243 -3.90576e-21 5.03897)
(4.79901 -1.19752e-20 5.09043)
(3.59893 -2.40258e-21 5.44254)
(4.16566 2.17501e-20 5.54407)
(2.82414 -1.57499e-20 5.82164)
(3.433 -2.13571e-20 5.9945)
(1.95588 -6.68963e-21 6.14514)
(2.59392 -2.21007e-22 6.41118)
(1.00689 2.01782e-20 6.32614)
(1.60851 -5.06095e-21 6.75189)
(0.678579 1.46041e-20 6.85887)
(9.98593 -9.94541e-21 0.147974)
(9.99214 -4.87706e-21 0.10239)
(9.95864 -2.30408e-21 0.245578)
(9.97504 -5.10567e-21 0.202537)
(9.91826 2.53527e-21 0.346486)
(9.94417 -2.48721e-21 0.304279)
(9.86447 -8.09226e-23 0.454026)
(9.89883 -6.68854e-25 0.411351)
(9.7967 -2.44318e-23 0.570693)
(9.84004 2.66915e-21 0.526871)
(9.71426 3.42454e-22 0.697635)
(9.76776 -2.79914e-21 0.652858)
(9.6165 -3.39003e-21 0.834387)
(9.68117 7.19896e-22 0.789667)
(9.50305 -3.27144e-21 0.979208)
(9.57962 -3.66541e-21 0.935984)
(9.3739 3.77677e-22 1.1299)
(9.46293 7.69279e-22 1.0895)
(9.22942 0 1.28478)
(9.33135 1.03291e-23 1.24794)
(9.07016 0 1.44335)
(9.18542 1.60249e-21 1.41001)
(8.89671 -1.81588e-21 1.60663)
(9.02581 8.36715e-22 1.57595)
(8.70944 1.63033e-23 1.77702)
(8.8531 -3.55326e-21 1.74758)
(8.50839 1.74704e-21 1.95788)
(8.6676 -9.08374e-23 1.92801)
(8.29308 -2.03508e-21 2.15309)
(8.46922 0 2.12113)
(8.0625 1.26985e-20 2.36664)
(8.25735 -2.01093e-21 2.33119)
(7.81498 1.00248e-20 2.60236)
(8.03081 6.37643e-21 2.56239)
(7.5481 3.3663e-22 2.86379)
(7.78773 -1.2684e-22 2.81877)
(7.25855 -1.99471e-22 3.15414)
(7.52544 4.4985e-21 3.10414)
(6.94193 3.47358e-22 3.47625)
(7.24029 -9.07219e-21 3.42207)
(6.59243 7.40369e-21 3.83247)
(6.92733 9.39874e-21 3.77593)
(6.20243 2.56387e-21 4.22441)
(6.57991 -1.93673e-21 4.16877)
(5.76199 0 4.65241)
(6.18908 4.84433e-21 4.60307)
(5.25827 2.68907e-21 5.11457)
(5.74275 0 5.08012)
(4.67508 1.40803e-20 5.60497)
(5.2247 -1.01693e-20 5.59876)
(3.99302 2.2414e-21 6.11083)
(4.61368 1.9239e-20 6.15298)
(3.19119 -5.55467e-21 6.60738)
(3.88118 -1.15324e-20 6.72762)
(2.25303 1.55708e-21 7.05328)
(3.00332 3.10189e-21 7.28955)
(1.17984 -1.16991e-20 7.33132)
(1.91156 -1.26124e-20 7.7805)
(0.819822 1.51616e-21 7.98771)
(9.98679 -4.03342e-23 0.157952)
(9.9925 1.89323e-23 0.108833)
(9.9612 -5.25558e-21 0.262244)
(9.97662 -1.96548e-23 0.215323)
(9.92346 -4.99175e-21 0.370189)
(9.94796 -5.13584e-21 0.323609)
(9.8733 2.78167e-21 0.485319)
(9.90583 -5.18363e-21 0.437664)
(9.81025 -1.70708e-22 0.610261)
(9.85132 8.3257e-23 0.560768)
(9.73368 -2.3783e-21 0.746215)
(9.78444 -2.77405e-21 0.695036)
(9.64303 3.90429e-22 0.892664)
(9.70448 3.5796e-22 0.840824)
(9.53801 4.27608e-22 1.04771)
(9.61087 2.95816e-21 0.996705)
(9.41869 3.9298e-22 1.20898)
(9.50352 -2.96807e-21 1.16018)
(9.28548 1.63215e-21 1.37459)
(9.38274 3.46957e-21 1.32878)
(9.13902 2.42973e-21 1.544)
(9.24913 -5.60419e-21 1.50108)
(8.97996 -9.53432e-22 1.71826)
(9.10344 1.65887e-21 1.67727)
(8.8088 -3.61693e-21 1.89993)
(8.94636 -5.1489e-21 1.85927)
(8.62573 -1.83377e-21 2.09266)
(8.77836 -5.35856e-21 2.0504)
(8.4305 0 2.30069)
(8.59955 0 2.25486)
(8.22234 -8.22835e-21 2.52849)
(8.40961 -1.90248e-21 2.47726)
(7.99987 -3.84928e-21 2.78047)
(8.20766 -8.15289e-21 2.72233)
(7.76096 4.09025e-21 3.06093)
(7.99223 6.14379e-21 2.99474)
(7.5026 -4.53107e-21 3.37403)
(7.76108 0 3.2991)
(7.22061 1.91236e-22 3.7239)
(7.51099 -4.47741e-21 3.64007)
(6.90921 -8.07823e-23 4.11462)
(7.23745 4.56901e-21 4.02254)
(6.56047 4.05194e-22 4.55021)
(6.9341 4.54851e-21 4.45169)
(6.16338 4.78629e-21 5.03428)
(6.59194 -8.73082e-21 4.93305)
(5.70266 -1.29772e-20 5.56926)
(6.19809 9.13591e-21 5.47225)
(5.15712 -4.64282e-21 6.15475)
(5.7338 -8.32257e-21 6.07431)
(4.49778 5.03098e-21 6.78403)
(5.17183 5.91043e-21 6.74159)
(3.68666 -2.72807e-21 7.43643)
(4.47042 -2.76083e-21 7.4691)
(2.67973 -1.11818e-20 8.06537)
(3.58025 -4.65047e-21 8.23199)
(1.44276 -2.05413e-22 8.51451)
(2.37707 -6.15085e-21 8.96559)
(1.05686 1.16213e-20 9.38409)
(9.98773 3.8911e-23 0.167263)
(9.99289 0 0.114818)
(9.96399 3.80633e-23 0.277762)
(9.97832 -4.8115e-21 0.227184)
(9.92906 -5.32835e-21 0.392206)
(9.95202 -3.89098e-23 0.341499)
(9.88276 -7.81751e-21 0.51432)
(9.91328 -8.1668e-23 0.461957)
(9.82467 -2.55378e-21 0.646859)
(9.86326 -2.50253e-21 0.591994)
(9.75427 0 0.791068)
(9.80204 -8.41873e-23 0.733815)
(9.67109 2.95583e-21 0.946369)
(9.729 0 0.887765)
(9.57493 -5.10037e-22 1.11072)
(9.6437 2.56045e-21 1.05231)
(9.46593 1.86061e-22 1.28154)
(9.54609 3.60007e-22 1.22475)
(9.34457 -3.87371e-21 1.45679)
(9.43658 8.33798e-24 1.40243)
(9.21157 -6.28632e-21 1.63583)
(9.31584 -9.12933e-22 1.58378)
(9.06767 -2.61835e-21 1.81974)
(9.18471 8.2215e-22 1.76893)
(8.91353 -6.89377e-21 2.0112)
(9.04401 -8.46712e-22 1.95987)
(8.74954 -3.4605e-21 2.21409)
(8.89439 8.54565e-22 2.16005)
(8.57573 -1.92523e-21 2.43297)
(8.73622 -3.52276e-21 2.37392)
(8.39165 -1.90462e-21 2.67273)
(8.56952 -1.90238e-21 2.60644)
(8.19636 2.00296e-21 2.93832)
(8.39386 -2.21189e-23 2.86275)
(7.98823 1.98017e-21 3.23471)
(8.20829 2.00406e-21 3.14806)
(7.76482 0 3.56702)
(8.01122 0 3.4677)
(7.52259 0 3.94065)
(7.80025 4.08437e-21 3.82737)
(7.25643 9.18252e-21 4.36155)
(7.57183 -9.68103e-23 4.23337)
(6.95899 -4.75256e-21 4.83646)
(7.32073 4.96063e-21 4.69305)
(6.61947 -4.18554e-21 5.37302)
(7.0392 -5.00836e-21 5.21524)
(6.22184 1.35796e-20 5.97978)
(6.7155 4.65723e-21 5.81076)
(5.74175 2.40735e-21 6.66542)
(6.33131 -4.17954e-21 6.49287)
(5.14167 -1.9905e-21 7.43651)
(5.85742 6.71315e-21 7.27732)
(4.36322 -4.70565e-21 8.28997)
(5.24279 -2.04645e-21 8.18064)
(3.31762 8.33034e-22 9.19538)
(4.41024 -6.90592e-22 9.21042)
(1.88585 4.94003e-21 9.96668)
(3.14044 5.88756e-21 10.337)
(1.50316 6.19327e-22 11.2135)
(9.98873 -4.90847e-21 0.175856)
(9.9933 4.70128e-21 0.120316)
(9.96696 -4.8307e-21 0.292058)
(9.98012 6.41997e-25 0.238063)
(9.93498 5.20564e-21 0.412442)
(9.95628 -1.97209e-23 0.357871)
(9.89271 5.20238e-21 0.540917)
(9.92109 1.01644e-20 0.484137)
(9.8398 -3.72588e-24 0.680354)
(9.87573 4.14329e-23 0.620437)
(9.77582 -8.31705e-23 0.832032)
(9.82036 1.66749e-22 0.769056)
(9.70041 -3.64466e-22 0.995313)
(9.7545 -3.43637e-22 0.930325)
(9.61344 3.40233e-21 1.168)
(9.67776 1.7099e-22 1.10259)
(9.51516 1.78386e-22 1.34732)
(9.59022 3.35114e-21 1.28298)
(9.4061 2.95758e-21 1.53107)
(9.49235 -9.74312e-23 1.46862)
(9.28707 6.21398e-21 1.71849)
(9.3849 5.85068e-21 1.65779)
(9.15895 2.57099e-21 1.91064)
(9.2688 3.15212e-21 1.85055)
(9.02254 6.91521e-21 2.11029)
(9.14503 2.54042e-21 2.04889)
(8.87849 7.3665e-22 2.32148)
(9.01445 7.68904e-21 2.25637)
(8.72715 -3.48047e-21 2.54904)
(8.87772 -1.74631e-21 2.4776)
(8.5685 0 2.79818)
(8.73526 1.77681e-21 2.71779)
(8.40213 0 3.07428)
(8.58715 0 2.98239)
(8.22711 0 3.3829)
(8.43312 -3.68088e-21 3.27701)
(8.04185 4.13297e-21 3.72991)
(8.27244 -1.83897e-21 3.60754)
(7.84393 3.95492e-21 4.12186)
(8.10385 4.07816e-21 3.98045)
(7.62961 -4.25746e-21 4.5664)
(7.92528 -6.13172e-21 4.40319)
(7.39328 4.57587e-21 5.07288)
(7.73355 1.96465e-21 4.8849)
(7.12625 3.94134e-21 5.65319)
(7.52366 2.40031e-21 5.43729)
(6.81474 -1.31213e-20 6.32282)
(7.2877 -8.19764e-21 6.07607)
(6.43607 1.94299e-22 7.10243)
(7.0126 -8.62892e-21 6.82314)
(5.95112 6.49123e-21 8.01977)
(6.67609 8.62978e-21 7.71038)
(5.28833 2.0078e-21 9.11088)
(6.23455 -7.56529e-22 8.78652)
(4.30731 4.93814e-21 10.4193)
(5.6122 2.78906e-21 10.1284)
(2.71317 1.63004e-21 11.8556)
(4.49982 1.36093e-21 11.8638)
(2.47267 -1.2346e-21 13.8653)
(9.98978 9.55229e-21 0.183694)
(9.99373 9.23113e-21 0.125303)
(9.97006 4.81004e-21 0.305072)
(9.98198 4.93148e-21 0.247917)
(9.94116 5.06228e-21 0.430819)
(9.96071 4.61151e-21 0.372669)
(9.90305 4.88102e-21 0.565005)
(9.92918 3.09839e-22 0.504131)
(9.85548 2.13409e-22 0.710604)
(9.88862 -4.17918e-23 0.64601)
(9.79811 -9.98227e-23 0.868926)
(9.83928 2.55644e-22 0.800656)
(9.73068 1.97926e-22 1.03926)
(9.78078 -3.50086e-22 0.968379)
(9.65317 1.58203e-22 1.21927)
(9.71286 5.41074e-22 1.14741)
(9.56588 3.03396e-21 1.40598)
(9.63567 2.32015e-21 1.33469)
(9.46946 2.8697e-21 1.59701)
(9.54976 6.02507e-22 1.52715)
(9.36478 2.75854e-21 1.79147)
(9.45597 -6.89877e-21 1.72288)
(9.25285 3.11421e-21 1.99038)
(9.35535 9.66141e-22 1.92185)
(9.13469 3.37531e-21 2.19653)
(9.249 7.59828e-22 2.12602)
(9.01117 5.08861e-21 2.41406)
(9.13803 -5.29752e-22 2.33896)
(8.88302 3.54564e-21 2.64797)
(9.02342 1.8053e-21 2.5654)
(8.75072 1.75549e-21 2.90368)
(8.906 5.03037e-21 2.81066)
(8.61448 -3.72479e-21 3.18687)
(8.78645 -1.67168e-21 3.08038)
(8.47421 -5.49761e-21 3.50346)
(8.66525 1.4339e-21 3.38039)
(8.32944 -1.81398e-21 3.85987)
(8.54271 3.39952e-21 3.71687)
(8.17922 -6.08464e-21 4.26342)
(8.41893 1.65769e-21 4.0967)
(8.02189 1.80343e-22 4.72294)
(8.29377 -6.13122e-21 4.52794)
(7.85475 -1.74198e-22 5.24972)
(8.16681 6.16794e-21 5.0207)
(7.67333 -9.83292e-21 5.85892)
(8.03716 -6.21869e-21 5.58831)
(7.47012 -3.71152e-21 6.57191)
(7.90333 1.34987e-21 6.24936)
(7.23187 -3.50233e-23 7.4205)
(7.76285 1.45172e-22 7.0312)
(6.93354 1.2799e-21 8.45543)
(7.61243 -1.69567e-21 7.97711)
(6.52264 1.93569e-22 9.76611)
(7.44666 -1.4705e-22 9.16249)
(5.8692 -6.81256e-22 11.5545)
(7.29356 -1.81503e-21 10.7401)
(4.52363 2.2526e-21 14.4814)
(7.25626 2.89573e-21 13.1528)
(6.48604 -4.16224e-21 18.2962)
(-0.613072 3.46353e-20 0.319089)
(-0.337753 -9.55258e-20 0.592557)
(-1.24537 -1.64898e-20 0.310851)
(-0.954611 3.06342e-20 0.598547)
(-1.86957 -6.1973e-21 0.289059)
(-1.60247 4.53456e-20 0.577815)
(-2.46355 -2.95169e-20 0.256561)
(-2.22872 -3.67029e-20 0.537993)
(-3.00194 -3.92445e-21 0.213478)
(-2.81012 -4.28016e-20 0.476976)
(-3.45546 2.54408e-22 0.159897)
(-3.31802 2.08173e-20 0.392828)
(-3.79229 -1.21267e-22 0.0965045)
(-3.72019 3.31612e-21 0.285148)
(-3.9813 3.24365e-21 0.0249173)
(-3.98383 -2.77796e-23 0.156338)
(-3.99627 -6.43944e-22 -0.0527137)
(-4.08028 -1.51228e-21 0.0120723)
(-3.81886 -1.2438e-21 -0.132619)
(-3.98817 1.97608e-21 -0.140095)
(-3.44487 -6.45922e-22 -0.208054)
(-3.69504 1.93092e-21 -0.288434)
(-2.88875 -1.42746e-23 -0.27145)
(-3.2096 1.00867e-21 -0.41889)
(-2.18196 -1.41622e-22 -0.317198)
(-2.55663 -1.29195e-22 -0.519932)
(-1.36696 4.89862e-23 -0.34295)
(-1.77507 -1.01542e-21 -0.58551)
(-0.488031 1.7648e-22 -0.34947)
(-0.90611 1.74415e-22 -0.61665)
(0.414142 0 -0.340062)
(0.0199214 0 -0.618131)
(1.30526 0 -0.319481)
(0.91897 0 -0.596246)
(2.15874 2.20705e-23 -0.292376)
(1.80339 0 -0.557679)
(2.95825 4.75663e-24 -0.262274)
(2.64412 6.71718e-23 -0.510164)
(3.69385 -1.67149e-23 -0.23145)
(3.42481 -6.5244e-23 -0.458383)
(4.36079 1.56448e-24 -0.201521)
(4.13812 5.28843e-24 -0.405859)
(4.9583 -5.20452e-24 -0.173543)
(4.78147 2.89313e-23 -0.355088)
(5.48841 0 -0.14811)
(5.35567 2.19657e-23 -0.307656)
(5.95496 7.11359e-24 -0.125466)
(5.86383 -1.29834e-24 -0.264433)
(6.36282 7.34104e-24 -0.105615)
(6.31044 2.64253e-24 -0.225758)
(6.71726 8.48484e-26 -0.0884017)
(6.70062 7.65333e-24 -0.191601)
(7.02356 -9.20172e-25 -0.0735991)
(7.03967 -1.76803e-24 -0.161711)
(7.28682 7.73164e-25 -0.0609858)
(7.33273 2.39447e-24 -0.135746)
(7.51217 1.61362e-24 -0.0510039)
(7.5844 -6.26589e-25 -0.113484)
(7.84415 7.32899e-27 -0.0967871)
(-0.627251 -1.01773e-19 0.909608)
(-0.347892 -3.03285e-19 1.22199)
(-1.28399 9.23902e-20 0.895105)
(-0.987052 1.93443e-19 1.22335)
(-1.92942 1.66189e-20 0.848942)
(-1.66305 3.06052e-20 1.17719)
(-2.54369 -4.95486e-20 0.774253)
(-2.31686 -5.85654e-20 1.0953)
(-3.10125 -1.91973e-20 0.66696)
(-2.92688 -3.57017e-20 0.97128)
(-3.57153 2.40704e-20 0.524751)
(-3.46286 1.7343e-20 0.800199)
(-3.92074 3.4285e-21 0.34861)
(-3.88962 1.99822e-20 0.580659)
(-4.11527 -4.76645e-21 0.143878)
(-4.17086 -1.96076e-20 0.317068)
(-4.12647 1.06649e-21 -0.0799976)
(-4.27484 -1.51861e-21 0.0209161)
(-3.9346 5.02995e-21 -0.308131)
(-4.17744 -1.2994e-21 -0.291767)
(-3.5352 3.59644e-21 -0.520576)
(-3.86197 -2.84678e-22 -0.596585)