/*--------------------------------*- C++ -*----------------------------------*\
| =========                 |                                                 |
| \\      /  F ield         | OpenFOAM: The Open Source CFD Toolbox           |
|  \\    /   O peration     | Version:  dev                                   |
|   \\  /    A nd           | Web:      www.OpenFOAM.org                      |
|    \\/     M anipulation  |                                                 |
\*---------------------------------------------------------------------------*/
FoamFile
{
    version     2.0;
    format      ascii;
    class       surfaceScalarField;
    location    "2.02";
    object      phi;
}
// * * * * * * * * * * * * * * * * * * * * * * * * * * * * * * * * * * * * * //

dimensions      [0 3 -1 0 0 0 0];

internalField   nonuniform List<scalar> 
5457
(
0.197451
0.00254563
0.194909
0.00253751
0.192318
0.0025871
0.189611
0.00270138
0.186778
0.00282747
0.183817
0.00295594
0.180719
0.00309224
0.177474
0.00324108
0.174068
0.00340349
0.170485
0.00358185
0.166707
0.00378032
0.162715
0.00399603
0.158489
0.00423242
0.153999
0.00449797
0.149214
0.00479376
0.1441
0.00512312
0.138617
0.00549106
0.132719
0.00590425
0.126351
0.00637371
0.119449
0.00690498
0.111947
0.00750244
0.103768
0.0081785
0.0948211
0.00894565
0.0850008
0.00981837
0.0741814
0.0108174
0.062207
0.0119726
0.048873
0.0133327
0.033881
0.0149911
0.0165761
0.0173045
0.016576
0.199309
0.00323323
0.19811
0.00373266
0.196723
0.00396969
0.195164
0.00425473
0.193428
0.00455832
0.191507
0.00487077
0.189395
0.00519954
0.187085
0.00554655
0.184568
0.00591728
0.181833
0.00631647
0.178865
0.00675018
0.175645
0.00721949
0.172153
0.00773166
0.168361
0.00829737
0.164242
0.00892168
0.159761
0.00961313
0.154878
0.0103823
0.149547
0.0112425
0.143713
0.0122135
0.137308
0.0133126
0.130255
0.0145565
0.122459
0.015974
0.113803
0.0176001
0.10414
0.0194795
0.0932696
0.0216859
0.0808967
0.0243437
0.0665626
0.0276655
0.0494903
0.0320624
0.027728
0.0390665
0.0443039
0.199172
0.00405737
0.198053
0.00484802
0.19674
0.00527761
0.195278
0.00571265
0.19366
0.00617049
0.19188
0.00664509
0.189932
0.00714235
0.187809
0.00766471
0.185503
0.00822012
0.183004
0.00881462
0.180303
0.00945277
0.177379
0.010148
0.174206
0.0109108
0.170766
0.0117454
0.167033
0.0126642
0.162973
0.0136826
0.158546
0.0148173
0.153706
0.0160908
0.148399
0.0175256
0.14256
0.0191554
0.136096
0.0210214
0.12889
0.0231794
0.120787
0.0257016
0.111585
0.02868
0.100992
0.0322765
0.0885493
0.0367844
0.0734579
0.0427553
0.0544112
0.0511082
0.0299508
0.0635264
0.0742545
0.199081
0.00497306
0.197967
0.00595774
0.196668
0.00657155
0.195219
0.00715747
0.193618
0.00776597
0.19186
0.0083964
0.189944
0.00905359
0.18786
0.00974374
0.185601
0.0104753
0.183159
0.0112555
0.180523
0.0120907
0.177677
0.0129983
0.174602
0.0139926
0.171277
0.0150787
0.167678
0.016272
0.163777
0.0175936
0.159538
0.0190654
0.154912
0.0207243
0.149841
0.0226027
0.144254
0.0247463
0.138057
0.0272205
0.131123
0.0301125
0.123269
0.0335546
0.11423
0.0377162
0.103619
0.0428858
0.0908753
0.0495261
0.0751232
0.0585059
0.0545389
0.0716915
0.0289564
0.0891084
0.103211
0.199034
0.00593571
0.197911
0.00707642
0.196623
0.00785549
0.195184
0.00859083
0.193598
0.00934647
0.191859
0.0101289
0.189963
0.0109437
0.187903
0.0117989
0.185671
0.0127041
0.183257
0.013668
0.180649
0.0147004
0.177836
0.015815
0.174802
0.0170336
0.171521
0.0183682
0.167971
0.0198319
0.164122
0.0214528
0.159938
0.023259
0.155376
0.0252946
0.150375
0.0276105
0.144851
0.0302745
0.138698
0.0333756
0.131787
0.0370239
0.123913
0.0414268
0.114772
0.0468552
0.103931
0.0537242
0.0906781
0.0627775
0.0741881
0.0749943
0.0525906
0.0932879
0.0267651
0.114933
0.129976
0.199009
0.00692318
0.197879
0.00820257
0.196603
0.00912707
0.19518
0.0100083
0.193612
0.0109088
0.191894
0.0118402
0.190021
0.0128104
0.187986
0.0138291
0.185779
0.0149067
0.183392
0.0160537
0.180811
0.0172824
0.178022
0.0186078
0.175011
0.020052
0.171757
0.0216312
0.168232
0.0233664
0.164405
0.0252914
0.160231
0.0274431
0.15567
0.0298646
0.150666
0.0326213
0.145124
0.0358222
0.138918
0.0395842
0.131896
0.044045
0.123843
0.0494791
0.114419
0.0562775
0.103183
0.0649577
0.0894329
0.0765256
0.0721917
0.0922338
0.0497393
0.115739
0.0240923
0.14058
0.154068
0.198998
0.0079219
0.197865
0.00933089
0.196601
0.0103869
0.195195
0.0114091
0.193647
0.0124508
0.191953
0.0135279
0.190106
0.0146507
0.188099
0.0158306
0.185922
0.0170792
0.183565
0.0184085
0.181015
0.0198334
0.178251
0.0213755
0.175264
0.0230464
0.172038
0.0248662
0.168539
0.026876
0.164732
0.0291105
0.160575
0.0316111
0.15601
0.0344394
0.150965
0.0376748
0.145354
0.0414386
0.139051
0.0458903
0.13187
0.0512261
0.12358
0.0577689
0.113832
0.0660231
0.102106
0.0766817
0.0877879
0.0908417
0.0699925
0.110028
0.04689
0.138841
0.0214416
0.166027
0.17551
0.198998
0.00892009
0.197868
0.0104567
0.196615
0.0116359
0.195227
0.0127911
0.193703
0.013969
0.192036
0.0151879
0.19022
0.0164599
0.188246
0.0177984
0.186105
0.019216
0.183786
0.0207252
0.181276
0.0223437
0.178558
0.0240974
0.175614
0.0259972
0.172425
0.0280644
0.168956
0.0303556
0.165168
0.0329113
0.161017
0.0357741
0.15644
0.0390265
0.151351
0.0427734
0.145669
0.0471278
0.139261
0.0523021
0.131916
0.0585715
0.123392
0.0662928
0.113327
0.0760867
0.101214
0.0887921
0.0862909
0.105763
0.0680019
0.128315
0.0444943
0.162347
0.0192417
0.19128
0.194752
0.199006
0.00991008
0.197886
0.0115728
0.19665
0.0128675
0.195287
0.0141483
0.193792
0.0154576
0.192159
0.0168141
0.19038
0.0182312
0.188446
0.0197255
0.186347
0.0213097
0.184074
0.0229962
0.181613
0.024804
0.178949
0.0267652
0.176054
0.0288986
0.172902
0.0312259
0.169465
0.0338048
0.165704
0.0366844
0.161563
0.0399284
0.156988
0.0436133
0.151896
0.0478749
0.146168
0.0528642
0.139663
0.0588117
0.132177
0.0660594
0.123442
0.0750279
0.11309
0.0864374
0.100614
0.101267
0.0852393
0.121137
0.0665216
0.147032
0.04268
0.186189
0.0178227
0.216137
0.212576
0.19902
0.0108869
0.197916
0.0126719
0.196704
0.0140752
0.195371
0.0154753
0.193911
0.0169113
0.192316
0.0184009
0.190582
0.0199582
0.188695
0.0216052
0.186644
0.0233543
0.184422
0.0252155
0.18201
0.0272153
0.179393
0.0293853
0.176549
0.0317491
0.173443
0.0343409
0.170052
0.0372076
0.166346
0.040404
0.162257
0.0440314
0.15771
0.0481729
0.152631
0.0529646
0.146894
0.0586106
0.140343
0.0653693
0.132773
0.0736313
0.123885
0.0839171
0.113329
0.0969936
0.100546
0.114049
0.0848975
0.136785
0.0657915
0.166138
0.0418037
0.210177
0.0175601
0.240382
0.230137
0.199037
0.0118461
0.197956
0.0137491
0.196771
0.015255
0.195472
0.0167686
0.19405
0.0183262
0.192499
0.0199446
0.190807
0.0216413
0.188966
0.0234382
0.186969
0.025345
0.184803
0.0273776
0.182445
0.0295716
0.179887
0.0319459
0.177112
0.0345304
0.174086
0.0373755
0.170775
0.0405306
0.167131
0.0440619
0.163105
0.0480717
0.158613
0.052679
0.15358
0.0580098
0.147894
0.0643067
0.141382
0.0718888
0.133822
0.0811952
0.124919
0.0928216
0.114296
0.107617
0.101456
0.12689
0.0856701
0.152571
0.0661515
0.185658
0.0424787
0.233852
0.0189765
0.263887
0.249115
0.199056
0.0127861
0.198
0.0148019
0.196845
0.0164043
0.195582
0.0180254
0.194202
0.0196992
0.192696
0.0214428
0.19105
0.0232783
0.189262
0.0252179
0.187327
0.0272731
0.185227
0.0294718
0.182948
0.031849
0.180475
0.0344201
0.177784
0.0372267
0.174843
0.0403254
0.171617
0.043769
0.168054
0.047639
0.164119
0.0520207
0.159743
0.0570694
0.15482
0.0629468
0.149234
0.069904
0.142829
0.0783021
0.135407
0.0886229
0.126672
0.101559
0.116232
0.11806
0.10359
0.139534
0.0878371
0.168326
0.0682453
0.205253
0.0455605
0.256542
0.0228469
0.286605
0.271964
0.199077
0.0137052
0.198048
0.0158275
0.196926
0.0175204
0.195703
0.0192423
0.194369
0.0210261
0.192914
0.0228894
0.19133
0.0248532
0.189612
0.0269266
0.187749
0.0291278
0.185728
0.0314863
0.183537
0.0340372
0.18115
0.0368073
0.178544
0.039837
0.175692
0.0431859
0.172569
0.0469032
0.169145
0.0510776
0.165352
0.0558286
0.161123
0.061313
0.156365
0.0677191
0.150961
0.0753201
0.144771
0.0845018
0.13763
0.0957714
0.12928
0.109913
0.119338
0.128006
0.107209
0.151667
0.092168
0.183372
0.0736805
0.223747
0.0532313
0.276999
0.0313662
0.308476
0.303333
0.199104
0.0145977
0.198107
0.0168203
0.197025
0.0185974
0.195847
0.0204133
0.194566
0.0223001
0.193171
0.0242759
0.191656
0.0263577
0.190015
0.0285579
0.188231
0.030903
0.18629
0.0334205
0.18418
0.0361425
0.181881
0.0391051
0.179381
0.0423408
0.176664
0.0459097
0.173693
0.049885
0.170424
0.0543602
0.16679
0.0594773
0.16275
0.0653682
0.158235
0.0722488
0.153123
0.0804443
0.147309
0.090327
0.140634
0.102455
0.132924
0.11763
0.123831
0.137105
0.112948
0.162555
0.100122
0.196205
0.0850741
0.238805
0.0699473
0.292136
0.050971
0.327459
0.354306
0.199129
0.0154651
0.198165
0.0177809
0.197121
0.019636
0.195989
0.0215384
0.194761
0.0235204
0.193425
0.0256028
0.191974
0.0277984
0.190399
0.0301225
0.188685
0.0326068
0.18682
0.0352768
0.1848
0.0381571
0.182617
0.0412858
0.180247
0.0447123
0.177666
0.0484973
0.174839
0.0527209
0.171727
0.0574848
0.168294
0.0629247
0.164494
0.0691835
0.160254
0.0765028
0.155508
0.085204
0.150177
0.0956692
0.144165
0.108477
0.13732
0.124482
0.129539
0.144894
0.120983
0.17112
0.112079
0.20512
0.103516
0.247381
0.0988793
0.296788
0.0930415
0.333306
0.447352
0.000799364
-0.000798591
0.00259615
-0.00178502
0.00475256
-0.00210189
0.00689831
-0.00204271
0.00868772
-0.00169847
0.010144
-0.00141553
0.0114412
-0.00128761
0.0126989
-0.00125274
0.0139688
-0.00125747
0.015252
-0.00126425
0.0165219
-0.00124903
0.0177385
-0.00119568
0.0188722
-0.00111517
0.0199069
-0.00102134
0.0208041
-0.000891185
0.0215127
-0.000711044
0.0220237
-0.000522216
0.0223835
-0.000379654
0.0226225
-0.00026652
0.0227125
-0.000124124
0.0226366
3.65333e-05
0.022454
0.000139046
0.0222931
0.000114472
0.0223118
-6.69302e-05
0.0226833
-0.00042061
0.0235771
-0.000943157
0.0251057
-0.0015775
0.0273354
-0.00227783
0.030304
-0.00301561
-0.00356341
0.000635748
-0.00143355
0.00242049
-0.00355662
0.00497661
-0.00459999
0.00751232
-0.00447364
0.0095757
-0.00367244
0.0112049
-0.00300602
0.0125936
-0.00266814
0.0138818
-0.00253674
0.0151155
-0.00247899
0.0162964
-0.00242599
0.0174164
-0.0023481
0.0184506
-0.00220944
0.0193865
-0.00203301
0.0202315
-0.00185359
0.020964
-0.00161829
0.0215339
-0.0012839
0.0219233
-0.000923246
0.0221824
-0.000658761
0.0223495
-0.00046126
0.0223831
-0.000191824
0.022214
0.000166216
0.0218555
0.000454205
0.0214078
0.000516
0.020954
0.000338834
0.0204913
-6.8239e-06
0.0201252
-0.000626115
0.0200792
-0.00158025
0.0206037
-0.00285024
0.0220727
-0.00453157
-0.00656048
0.000478336
-0.00191097
0.00206946
-0.00513208
0.00439667
-0.00686506
0.00653007
-0.00650491
0.00819176
-0.00525252
0.00945403
-0.00423364
0.0104572
-0.00366305
0.0112908
-0.00336475
0.011993
-0.00316818
0.0125738
-0.00298724
0.0130192
-0.00277276
0.0133197
-0.00249013
0.0134909
-0.00218701
0.0135621
-0.00191283
0.0135241
-0.00157545
0.0133029
-0.00106596
0.0128505
-0.000482628
0.012237
-6.52553e-05
0.0114749
0.000273487
0.0104105
0.00083887
0.00890775
0.00163006
0.00699445
0.00232469
0.00483364
0.00263119
0.00269902
0.00242604
0.000959778
0.00168407
-0.000213291
0.00049836
-0.000489803
-0.00135203
0.000705308
-0.00409291
0.00339949
-0.00727232
-0.0103229
0.00054447
-0.00245417
0.00200395
-0.00657255
0.00390815
-0.00870477
0.00539474
-0.00789781
0.00644219
-0.00623092
0.007151
-0.00491305
0.00759346
-0.00409574
0.00779998
-0.00356257
0.00779631
-0.00314949
0.00759781
-0.00276866
0.00720681
-0.00236125
0.00662437
-0.00188866
0.00585692
-0.0014032
0.00494965
-0.000994298
0.0039512
-0.000572586
0.0026544
0.000227405
0.000638217
0.00152194
-0.00229828
0.00285172
-0.00568323
0.00363173
-0.00870598
0.00382869
-0.0110196
0.00390571
-0.0127675
0.00403064
-0.0141006
0.00391956
-0.0149514
0.00323034
-0.0151323
0.00181741
-0.0143889
-0.000292949
-0.0127033
-0.00308526
-0.010488
-0.00635523
-0.008216
-0.00959052
-0.0123416
0.000733617
-0.00318582
0.00202485
-0.00784122
0.00333288
-0.00994923
0.0040429
-0.00852715
0.00435694
-0.00648956
0.00436712
-0.00489848
0.0040875
-0.00380457
0.00350488
-0.00296805
0.00262566
-0.00225321
0.00148593
-0.00160829
0.000117776
-0.000972885
-0.0015124
-0.000240085
-0.00358696
0.000687029
-0.00624426
0.00167374
-0.00927362
0.00246094
-0.0121291
0.00307952
-0.014437
0.00381866
-0.0163176
0.00471359
-0.0181019
0.00539022
-0.0199051
0.00559995
-0.0215193
0.00548307
-0.0226904
0.00516099
-0.0232973
0.00448282
-0.0233324
0.00321995
-0.0228321
0.00127057
-0.0218333
-0.0013388
-0.0205613
-0.00440408
-0.0193677
-0.00759528
-0.0185196
-0.0104843
-0.0126133
0.000968067
-0.00415084
0.00192856
-0.00877631
0.002454
-0.010416
0.00226938
-0.00827735
0.00172057
-0.00589774
0.000868069
-0.00402424
-0.000336286
-0.0025864
-0.00194904
-0.00134031
-0.00399481
-0.000188489
-0.00647425
0.000892242
-0.00928921
0.00186207
-0.0121752
0.00266389
-0.014794
0.003321
-0.0170332
0.00392328
-0.0190651
0.00449697
-0.0210316
0.00504304
-0.0228668
0.00564325
-0.0244544
0.00628331
-0.0258233
0.00673452
-0.027055
0.00680104
-0.0280983
0.00649082
-0.0288122
0.00583549
-0.0291189
0.00474722
-0.0290497
0.00310639
-0.0286976
0.000873101
-0.0281986
-0.00188386
-0.027713
-0.00493567
-0.0274075
-0.0079465
-0.0274563
-0.0104805
-0.0121239
0.00114311
-0.00528957
0.00152544
-0.00913225
0.00104455
-0.0098849
-0.00019721
-0.00698579
-0.00181458
-0.00424709
-0.00380453
-0.00201409
-0.00627763
-9.72456e-05
-0.00916417
0.00156372
-0.0121559
0.00282352
-0.0149454
0.00370312
-0.0174276
0.00436409
-0.0196606
0.00491462
-0.0217146
0.0053899
-0.0236151
0.00583404
-0.0253774
0.00626352
-0.0270272
0.00669038
-0.0285371
0.00714336
-0.0298423
0.00757173
-0.0309401
0.00780896
-0.0318735
0.00770526
-0.0326384
0.00722167
-0.0331877
0.00634689
-0.0335062
0.00502486
-0.0336369
0.00319417
-0.0336596
0.000851488
-0.0336769
-0.0019114
-0.0337794
-0.00487825
-0.0340557
-0.00771512
-0.0346297
-0.00995085
-0.011251
0.0010915
-0.00637541
0.000586262
-0.00860212
-0.00120933
-0.00804989
-0.00368406
-0.00447474
-0.00652265
-0.00138211
-0.00971663
0.00119943
-0.0129316
0.00313543
-0.0158132
0.00446433
-0.0183711
0.00540223
-0.0207187
0.00607205
-0.0228859
0.006551
-0.0248661
0.00691243
-0.0266722
0.00721077
-0.0283168
0.007489
-0.0298167
0.00776808
-0.0311908
0.00806254
-0.0324243
0.00836812
-0.0334833
0.00861517
-0.0343715
0.0086752
-0.035126
0.00843211
-0.0357684
0.00783161
-0.0363015
0.00684358
-0.0367412
0.00542521
-0.037127
0.00353855
-0.0375148
0.00119627
-0.0379641
-0.00150581
-0.0385165
-0.00436985
-0.0392103
-0.00706533
-0.0401165
-0.00908837
-0.0101661
0.000586536
-0.00695546
-0.00120105
-0.00679338
-0.00441735
-0.0048052
-0.00812025
-0.000746237
-0.0118407
0.0023597
-0.0151448
0.00452245
-0.0179887
0.00599802
-0.0205469
0.00704233
-0.0228832
0.00775951
-0.0250155
0.00822539
-0.02695
0.00850514
-0.0286868
0.00866687
-0.0302334
0.00877213
-0.0316053
0.00887144
-0.0328282
0.00899605
-0.0339214
0.00915456
-0.0348856
0.0093246
-0.0357143
0.00942959
-0.0364222
0.00936264
-0.0370477
0.00903153
-0.0376277
0.00838083
-0.0381919
0.00737301
-0.0387726
0.00596816
-0.039406
0.00413197
-0.040125
0.00187369
-0.0409494
-0.00072397
-0.0418759
-0.00348632
-0.0428952
-0.00608909
-0.0440279
-0.00799859
-0.00895598
-0.000608704
-0.00634017
-0.00387553
-0.00351038
-0.00841353
-0.000247907
-0.0126179
0.00347616
-0.0161131
0.00587237
-0.0190913
0.00751853
-0.0217489
0.0086746
-0.0241354
0.00944887
-0.0262743
0.00991936
-0.028182
0.0101539
-0.0298652
0.0102078
-0.031325
0.0101444
-0.0325745
0.0100365
-0.0336397
0.00994744
-0.0345562
0.00991823
-0.0353526
0.00995064
-0.0360433
0.0100086
-0.0366423
0.0100156
-0.0371746
0.00987596
-0.0376819
0.00951431
-0.0382109
0.00888064
-0.0388073
0.00793631
-0.0395157
0.00664042
-0.0403752
0.004953
-0.0414006
0.00285888
-0.042568
0.000402175
-0.0438286
-0.00226756
-0.0451294
-0.00483038
-0.0464336
-0.00673653
-0.0076694
-0.00256522
-0.00376906
-0.00725262
0.00118831
-0.0121238
0.00463651
-0.0159605
0.00732642
-0.0191915
0.00911824
-0.0220311
0.010375
-0.0245379
0.0112001
-0.0267372
0.0116682
-0.0286463
0.0118493
-0.030286
0.0118144
-0.031676
0.0116174
-0.0328244
0.0113106
-0.0337435
0.0109707
-0.0344664
0.0106815
-0.035042
0.0105
-0.0355187
0.0104278
-0.0359278
0.010412
-0.0362915
0.0103676
-0.0366399
0.0102067
-0.0370173
0.00986874
-0.0374782
0.00931404
-0.0380808
0.0085074
-0.0388806
0.0074056
-0.0399218
0.0059572
-0.0412139
0.0041122
-0.042708
0.00185627
-0.0443024
-0.000713906
-0.0458808
-0.0032931
-0.0473398
-0.00531877
-0.00635888
-0.00499077
0.0012263
-0.0103229
0.00652787
-0.0147087
0.00903197
-0.0182753
0.0109045
-0.0213724
0.0122288
-0.0240739
0.0130923
-0.0263899
0.0135343
-0.0283429
0.013641
-0.0299693
0.0134966
-0.0313023
0.013168
-0.0323658
0.0127005
-0.0331697
0.0121324
-0.033725
0.0115412
-0.0340715
0.0110393
-0.0342785
0.0107135
-0.0344184
0.0105688
-0.0345371
0.0105259
-0.0346559
0.0104757
-0.0348002
0.0103347
-0.0350144
0.0100614
-0.0353613
0.00963489
-0.0359123
0.00902846
-0.0367364
0.00819657
-0.0378878
0.00707301
-0.0393856
0.00557256
-0.0411794
0.00361129
-0.0431204
0.0011875
-0.0449965
-0.00145711
-0.046609
-0.00374667
-0.00507616
-0.00763526
0.00886461
-0.0123658
0.0112633
-0.016284
0.012958
-0.0196869
0.0143176
-0.0226524
0.0152071
-0.025172
0.015627
-0.0272379
0.0156178
-0.0288841
0.0153069
-0.0301731
0.0148065
-0.0311587
0.0141743
-0.0318669
0.0134281
-0.0322989
0.0125822
-0.0324574
0.0117149
-0.0323885
0.0109818
-0.0321961
0.0105279
-0.0319879
0.0103622
-0.0318132
0.0103472
-0.0316751
0.0103278
-0.0315804
0.0102248
-0.0315687
0.0100295
-0.0317136
0.00975515
-0.0321059
0.00939226
-0.0328346
0.00889358
-0.0339724
0.00817653
-0.0355583
0.00712233
-0.0375649
0.00558035
-0.0398453
0.00342939
-0.0420646
0.000723001
-0.0438367
-0.0020142
-0.003911
-0.00965035
0.0185167
-0.0131311
0.0147477
-0.0168316
0.0166654
-0.0201279
0.0176238
-0.022956
0.0180476
-0.0252656
0.0179515
-0.0270144
0.0173839
-0.0282711
0.016583
-0.0291444
0.0157005
-0.0297216
0.014772
-0.0300352
0.0137608
-0.0300649
0.0126294
-0.0297812
0.0114461
-0.0292301
0.0104419
-0.0285805
0.00988512
-0.0280084
0.00979186
-0.0275527
0.00988795
-0.0271544
0.00992055
-0.0267708
0.009827
-0.0264297
0.00966936
-0.0262204
0.00952247
-0.026266
0.00941067
-0.0266901
0.00928735
-0.0275974
0.0090509
-0.0290576
0.00854774
-0.0310709
0.00755727
-0.0335027
0.00582367
-0.0360096
0.00319164
-0.0379565
-0.00010611
-0.00310836
-0.00389491
0.0224127
-0.00889353
0.0197498
-0.015885
0.0236634
-0.0194933
0.0212417
-0.0223161
0.0208826
-0.0243801
0.0200303
-0.0256521
0.0186731
-0.0263403
0.0172904
-0.0266534
0.016034
-0.0267215
0.0148602
-0.0265784
0.0136362
-0.0261613
0.0122292
-0.0253544
0.0106534
-0.0241682
0.00926656
-0.0229274
0.00865083
-0.0219706
0.00883688
-0.0212757
0.00918977
-0.0206404
0.00927688
-0.0199205
0.00909371
-0.0191064
0.00883711
-0.0183089
0.00870271
-0.0177012
0.00877705
-0.0174577
0.00901472
-0.017735
0.00929653
-0.0186597
0.00943879
-0.0202677
0.00912997
-0.0224159
0.00793539
-0.0247311
0.00546949
-0.0264493
0.00157405
-0.00312903
0.206802
0.016319
0.205853
0.0187261
0.204828
0.0206563
0.203719
0.0226407
0.202514
0.0247165
0.201203
0.0269046
0.199779
0.0292105
0.198233
0.0316568
0.196558
0.034271
0.194751
0.0370735
0.192801
0.0401003
0.190689
0.0433931
0.188396
0.0470053
0.185896
0.0510023
0.18318
0.0554448
0.180223
0.0604532
0.176988
0.0661726
0.173423
0.0727638
0.169485
0.0804547
0.165169
0.0895333
0.160439
0.100411
0.155255
0.113673
0.149648
0.1301
0.143963
0.150589
0.138817
0.176277
0.135564
0.208388
0.137073
0.24589
0.150168
0.28371
0.180088
0.303397
0.289323
0.338122
0.211843
0.0171555
0.210918
0.0196477
0.209921
0.0216484
0.208845
0.0237105
0.207676
0.025876
0.20641
0.02816
0.205041
0.0305674
0.203561
0.033124
0.201965
0.035855
0.200242
0.0387849
0.198379
0.0419537
0.19636
0.0454065
0.194184
0.0491795
0.191839
0.0533487
0.189302
0.0579887
0.186551
0.0632138
0.183568
0.0691674
0.180341
0.0760041
0.176858
0.0839511
0.173135
0.0932679
0.169193
0.104366
0.165123
0.117756
0.16129
0.133945
0.158283
0.15361
0.157166
0.177409
0.160408
0.205165
0.172361
0.233959
0.200496
0.255595
0.246152
0.257755
0.249873
0.28561
0.217012
0.0179677
0.216119
0.0205369
0.215161
0.0226019
0.214129
0.0247367
0.213015
0.0269812
0.211816
0.0293483
0.21052
0.0318501
0.20912
0.034511
0.207607
0.0373536
0.205974
0.040405
0.204222
0.043694
0.202347
0.0472731
0.200336
0.0511868
0.198179
0.0555051
0.19586
0.0603113
0.193375
0.0657065
0.190726
0.0718259
0.187934
0.0788074
0.185034
0.0868624
0.182061
0.0962518
0.179114
0.107325
0.17652
0.120363
0.174772
0.135709
0.17462
0.153778
0.177618
0.174429
0.186448
0.196357
0.204464
0.215966
0.233218
0.226863
0.265899
0.22509
0.213803
0.301979
0.222315
0.0187463
0.221464
0.0213834
0.220557
0.0235049
0.219583
0.0257047
0.218537
0.0280197
0.217408
0.0304662
0.216187
0.0330583
0.214869
0.0358139
0.213457
0.0387503
0.211954
0.0418927
0.21035
0.0452847
0.208638
0.0489743
0.206813
0.0530051
0.204875
0.0574399
0.202829
0.0623581
0.200679
0.067861
0.198448
0.0740638
0.196176
0.081088
0.193946
0.0891014
0.191831
0.0983744
0.190082
0.109083
0.189118
0.121339
0.189449
0.135396
0.192053
0.151193
0.198512
0.167993
0.210902
0.183992
0.230731
0.196163
0.256577
0.20104
0.284618
0.197067
0.183459
0.314975
0.227753
0.0194826
0.226955
0.0221781
0.226109
0.0243466
0.225201
0.0266072
0.224221
0.0289924
0.223167
0.0315106
0.222037
0.0341743
0.220836
0.0370001
0.219559
0.0400102
0.218202
0.0432333
0.216751
0.0467199
0.215222
0.0504901
0.213625
0.0545925
0.211957
0.0591018
0.21023
0.0640825
0.208472
0.0696203
0.206725
0.0758145
0.20506
0.0827589
0.203563
0.090604
0.202402
0.0995398
0.20194
0.109551
0.202558
0.12073
0.204847
0.133122
0.209804
0.146257
0.218708
0.159114
0.232753
0.169974
0.251938
0.177005
0.274326
0.178676
0.297254
0.174157
0.161455
0.31927
0.233328
0.0201712
0.232588
0.0229148
0.231807
0.0251231
0.230969
0.0274386
0.230072
0.029883
0.229119
0.0324536
0.228111
0.0351703
0.227042
0.0380545
0.225904
0.0411308
0.224697
0.0444216
0.223437
0.0479632
0.222133
0.0517785
0.220789
0.0559244
0.219418
0.0604632
0.218055
0.0654398
0.216734
0.0709388
0.215523
0.0770257
0.214515
0.0837688
0.213806
0.0913157
0.213677
0.0996713
0.214467
0.108764
0.216537
0.118669
0.220513
0.129157
0.22724
0.139547
0.237542
0.148835
0.251668
0.155875
0.268939
0.159761
0.287808
0.159831
0.306433
0.155552
0.144197
0.323705
0.239045
0.0208035
0.238372
0.0235845
0.237664
0.0258264
0.236912
0.0281842
0.236121
0.0306673
0.235287
0.0332786
0.2344
0.0360449
0.233463
0.0389779
0.232482
0.0420949
0.231465
0.0454198
0.230425
0.048985
0.229361
0.0528245
0.228293
0.0569777
0.227257
0.0614863
0.226292
0.0663963
0.225443
0.0717819
0.224808
0.0776572
0.224473
0.0841026
0.224596
0.0911919
0.225494
0.0987738
0.22742
0.10684
0.230747
0.115349
0.23606
0.123855
0.243928
0.131693
0.254611
0.138169
0.267848
0.142661
0.28299
0.144643
0.299015
0.14383
0.314705
0.139881
0.129871
0.329045
0.244911
0.0213675
0.244318
0.0241744
0.243696
0.026443
0.243042
0.0288329
0.242359
0.0313432
0.241643
0.0339846
0.240894
0.0367829
0.240115
0.0397424
0.239315
0.0428789
0.238506
0.0462105
0.237696
0.049776
0.236898
0.0536034
0.236146
0.057712
0.235481
0.0621364
0.234933
0.0669332
0.234586
0.0721198
0.234542
0.077694
0.234888
0.0837526
0.235844
0.0902323
0.23766
0.0969551
0.240565
0.103937
0.244934
0.110987
0.251188
0.117611
0.259537
0.123357
0.269897
0.127825
0.281964
0.130611
0.295233
0.131394
0.309036
0.130047
0.32254
0.126395
0.117699
0.334726
0.250926
0.021855
0.250416
0.0246798
0.249889
0.0269663
0.249345
0.029371
0.248785
0.0318954
0.248206
0.0345547
0.24761
0.037367
0.247006
0.0403326
0.246405
0.0434636
0.24582
0.0467783
0.24526
0.0503164
0.244754
0.0540891
0.244339
0.0581075
0.244053
0.0624065
0.243945
0.0670266
0.24412
0.0719334
0.244659
0.0771454
0.245679
0.0827257
0.2474
0.0885058
0.250009
0.0943423
0.253739
0.100206
0.258892
0.10584
0.265635
0.110877
0.273953
0.11505
0.283716
0.118075
0.294662
0.119681
0.306369
0.119703
0.318367
0.118066
0.330099
0.114679
0.107118
0.340692
0.257092
0.0222579
0.256678
0.0250905
0.256258
0.0273816
0.255839
0.0297841
0.255413
0.0323142
0.254981
0.0349776
0.254554
0.0377824
0.254141
0.0407318
0.253756
0.0438327
0.253405
0.0471119
0.253112
0.0505898
0.252914
0.0542671
0.252845
0.0581557
0.25295
0.0622827
0.253303
0.066658
0.253987
0.0712355
0.255084
0.0760368
0.256744
0.081057
0.259138
0.0861048
0.262428
0.0910469
0.266808
0.0958245
0.27242
0.100232
0.279275
0.10403
0.28732
0.107014
0.296434
0.108973
0.306357
0.109771
0.316759
0.109315
0.327316
0.107523
0.337626
0.104383
0.0977749
0.346979
0.263419
0.0225631
0.263115
0.0253906
0.262812
0.0276805
0.262519
0.0300709
0.262239
0.0325877
0.261972
0.0352356
0.261728
0.0380159
0.261518
0.0409279
0.261354
0.0439813
0.261249
0.0471992
0.261244
0.0505765
0.261366
0.0541245
0.261655
0.0578458
0.262167
0.0617508
0.262962
0.0658446
0.264118
0.0700643
0.265749
0.074393
0.268001
0.0787944
0.270992
0.0831059
0.274828
0.0872047
0.279616
0.0910337
0.285403
0.0944471
0.292168
0.0972702
0.299848
0.0993424
0.308307
0.100524
0.317329
0.10076
0.32667
0.099987
0.336077
0.0981296
0.345235
0.0952369
0.0894341
0.353585
0.2699
0.0227665
0.26971
0.0255768
0.269538
0.0278483
0.269392
0.0302115
0.269272
0.0327022
0.269181
0.0353182
0.269128
0.0380583
0.269127
0.0409169
0.269195
0.0438982
0.26936
0.0470175
0.269654
0.0502639
0.270102
0.053657
0.270745
0.057183
0.271647
0.0608288
0.272868
0.0646043
0.274488
0.0684272
0.276629
0.0722384
0.279402
0.07601
0.282869
0.0796301
0.287071
0.0829964
0.292062
0.0860394
0.297864
0.0886449
0.304448
0.0906901
0.311732
0.092065
0.31957
0.0926947
0.327808
0.092532
0.336279
0.0915269
0.344744
0.0896756
0.352959
0.087033
0.0819079
0.360493
0.276545
0.0228585
0.276478
0.0256406
0.27645
0.027872
0.276465
0.0301926
0.276512
0.0326493
0.2766
0.0352229
0.276748
0.0379006
0.276971
0.0406827
0.277288
0.0435678
0.277729
0.0465605
0.278322
0.0496542
0.279094
0.052867
0.280083
0.0561743
0.28136
0.0595331
0.28301
0.0629365
0.285098
0.0663226
0.287691
0.0696301
0.290862
0.0728264
0.294646
0.0758368
0.299063
0.0785728
0.304142
0.0809564
0.309881
0.0829046
0.316239
0.0843351
0.32312
0.0851884
0.330403
0.0854187
0.337977
0.0849659
0.345704
0.0838099
0.353384
0.0820055
0.360831
0.0795961
0.0750511
0.367695
0.283354
0.0228333
0.283431
0.0255605
0.283558
0.0277417
0.283728
0.030018
0.283951
0.0324213
0.284232
0.0349351
0.284588
0.0375361
0.285046
0.040215
0.285628
0.0429736
0.286347
0.0458282
0.287227
0.0487589
0.288322
0.0517553
0.289673
0.0548063
0.291336
0.0578522
0.293392
0.0608644
0.29588
0.063819
0.298828
0.0666682
0.302281
0.0693619
0.306271
0.0718371
0.310813
0.074024
0.315908
0.075857
0.321536
0.0772753
0.327636
0.0782361
0.334125
0.0787033
0.34093
0.0786191
0.347953
0.0779498
0.355046
0.0767258
0.36206
0.0750002
0.368868
0.0727968
0.0687516
0.375174
0.290336
0.0226806
0.290565
0.025328
0.290853
0.0274508
0.291188
0.0296789
0.291589
0.0320166
0.292073
0.0344451
0.292657
0.0369454
0.29336
0.0395032
0.294204
0.0421196
0.2952
0.0448201
0.296378
0.0475671
0.297801
0.0503182
0.299515
0.053078
0.301553
0.0557996
0.303952
0.0584512
0.306742
0.061015
0.309955
0.0634435
0.31362
0.0656875
0.317753
0.0676954
0.322357
0.0694136
0.327419
0.0707916
0.332895
0.0717967
0.33873
0.0724026
0.344878
0.0725581
0.351275
0.072227
0.357806
0.0714253
0.364352
0.070187
0.370811
0.0685494
0.377085
0.0665312
0.0629206
0.382922
0.297504
0.0223798
0.297882
0.0249464
0.298328
0.0270026
0.298842
0.0291622
0.299439
0.0314164
0.300136
0.0337438
0.300952
0.0361238
0.301906
0.0385417
0.303007
0.0410105
0.30429
0.0435281
0.305791
0.0460552
0.307541
0.0485569
0.309579
0.0510282
0.311925
0.0534417
0.314601
0.0557636
0.317639
0.0579662
0.321062
0.0600111
0.324885
0.0618562
0.329114
0.0634606
0.333738
0.0647854
0.338724
0.0658027
0.34403
0.066489
0.349633
0.0668013
0.355489
0.0667059
0.36151
0.0662106
0.367604
0.0653379
0.373686
0.0641119
0.379677
0.0625663
0.385501
0.060716
0.057487
0.39094
0.304835
0.0219374
0.305378
0.0244013
0.305999
0.0263793
0.306699
0.0284599
0.307498
0.0306149
0.308421
0.0328181
0.309478
0.0350629
0.310686
0.0373284
0.312062
0.0396286
0.313638
0.0419457
0.315442
0.0442431
0.317488
0.0465025
0.319801
0.0487062
0.322405
0.0508287
0.325319
0.0528404
0.328565
0.0547132
0.332155
0.0564145
0.336096
0.05791
0.340386
0.0591671
0.344994
0.0601755
0.349881
0.0609145
0.355037
0.0613333
0.360437
0.0614035
0.366015
0.0611319
0.371697
0.0605344
0.377415
0.0596266
0.383102
0.0584322
0.388696
0.0569806
0.394136
0.0552842
0.052393
0.399236
0.312344
0.0213489
0.313062
0.0236816
0.313863
0.0255771
0.314756
0.0275654
0.315774
0.0295962
0.316937
0.0316531
0.318249
0.0337488
0.319717
0.0358582
0.321367
0.0379755
0.323218
0.0400897
0.325288
0.0421688
0.327593
0.0441918
0.330154
0.0461397
0.332988
0.0479894
0.336108
0.0497148
0.339527
0.0512903
0.343249
0.052689
0.347273
0.0538835
0.351591
0.0548488
0.356169
0.0555976
0.360975
0.0561096
0.365997
0.0563134
0.371198
0.0562064
0.376519
0.0558169
0.381904
0.0551556
0.387299
0.0542394
0.392649
0.0530902
0.397906
0.0517336
0.40302
0.0501796
0.0475905
0.407829
0.320044
0.0206028
0.320931
0.0227935
0.321922
0.0245854
0.323037
0.0264501
0.324295
0.0283385
0.325699
0.0302492
0.327258
0.0321891
0.328981
0.0341352
0.330883
0.0360717
0.332987
0.0379842
0.335305
0.0398489
0.337851
0.0416443
0.340637
0.043351
0.343677
0.0449482
0.346976
0.0464135
0.350541
0.0477249
0.354369
0.048861
0.358453
0.0498011
0.362776
0.050528
0.36732
0.0510561
0.372058
0.0513754
0.376954
0.0514219
0.381973
0.0511939
0.38707
0.0507273
0.3922
0.0500338
0.397318
0.0491303
0.402382
0.0480368
0.40735
0.0467755
0.412186
0.0453548
0.0430381
0.416746
0.327936
0.019689
0.329005
0.0217241
0.330208
0.0233824
0.331555
0.0251038
0.333046
0.0268495
0.334683
0.028614
0.336479
0.0303947
0.338445
0.0321707
0.340594
0.0339243
0.34294
0.0356397
0.345493
0.0372969
0.348262
0.0388759
0.351257
0.040358
0.354482
0.0417245
0.357941
0.0429567
0.361632
0.0440367
0.365549
0.0449478
0.369679
0.0456751
0.374006
0.0462071
0.378512
0.0465563
0.383175
0.0467189
0.387958