/*--------------------------------*- C++ -*----------------------------------*\
| =========                 |                                                 |
| \\      /  F ield         | OpenFOAM: The Open Source CFD Toolbox           |
|  \\    /   O peration     | Version:  dev                                   |
|   \\  /    A nd           | Web:      www.OpenFOAM.org                      |
|    \\/     M anipulation  |                                                 |
\*---------------------------------------------------------------------------*/
FoamFile
{
    version     2.0;
    format      ascii;
    class       volVectorField;
    location    "0.84";
    object      U;
}
// * * * * * * * * * * * * * * * * * * * * * * * * * * * * * * * * * * * * * //

dimensions      [0 1 -1 0 0 0 0];

internalField   nonuniform List<vector> 
465
(
(-5.70235 1.08972e-19 0.211333)
(-6.37196 0 0.190854)
(-6.99991 -1.88919e-20 0.167659)
(-7.57804 1.55053e-20 0.141882)
(-8.09793 0 0.11357)
(-8.55091 9.21915e-21 0.0828133)
(-8.92838 0 0.0497474)
(-9.22152 0 0.0144555)
(-9.42175 7.82521e-22 -0.0232609)
(-9.51985 -1.47149e-21 -0.0641345)
(-9.50554 1.84708e-22 -0.109697)
(-9.3654 7.13067e-22 -0.162675)
(-9.07911 -1.42937e-22 -0.225443)
(-8.63331 0 -0.299115)
(-8.01335 0 -0.386385)
(-7.19387 0 -0.492511)
(-6.11747 -2.993e-21 -0.629505)
(-4.69342 -4.267e-21 -0.823413)
(-2.87604 0 -1.10775)
(-0.663354 0 -1.47358)
(-6.76419 1.39277e-19 0.683366)
(-7.4638 -6.85179e-20 0.652592)
(-8.11773 -7.43204e-20 0.613194)
(-8.71839 -5.21629e-20 0.565195)
(-9.25802 2.36252e-20 0.508539)
(-9.72879 -2.44604e-20 0.443288)
(-10.1229 1.51636e-20 0.369586)
(-10.4322 0 0.287639)
(-10.6483 3.68842e-21 0.197364)
(-10.7623 6.11719e-22 0.0980127)
(-10.7653 7.85577e-23 -0.012353)
(-10.6502 -2.99674e-21 -0.13587)
(-10.4089 2.29801e-21 -0.271051)
(-10.0334 1.44228e-21 -0.417908)
(-9.51679 1.77788e-23 -0.578132)
(-8.84925 0 -0.755924)
(-8.00794 3.71041e-21 -0.963571)
(-6.9678 3.3594e-21 -1.22787)
(-5.79986 1.44951e-20 -1.56547)
(-4.90218 0 -1.88332)
(-7.18737 7.78395e-22 1.1239)
(-7.88542 1.27842e-19 1.05895)
(-8.53928 -1.31959e-19 0.979395)
(-9.14244 1.58335e-19 0.8855)
(-9.68841 1.70933e-20 0.777509)
(-10.1704 -6.82487e-21 0.655868)
(-10.5813 -2.23453e-20 0.521141)
(-10.9133 1.29805e-20 0.374066)
(-11.1582 -1.07186e-20 0.215362)
(-11.308 1.07099e-21 0.0456439)
(-11.3546 0 -0.13485)
(-11.2923 2.24014e-21 -0.327248)
(-11.1184 -2.27879e-21 -0.534942)
(-10.8289 -6.49578e-21 -0.756926)
(-10.4229 2.25839e-21 -0.99222)
(-9.90073 8.46705e-22 -1.24076)
(-9.25762 -5.0666e-21 -1.50734)
(-8.49436 0 -1.80538)
(-7.69048 -1.47649e-20 -2.13907)
(-7.14538 6.28899e-21 -2.43685)
(-7.26239 4.60163e-19 1.59645)
(-7.95122 -3.92737e-19 1.50975)
(-8.6003 3.04483e-19 1.40496)
(-9.20356 -5.75914e-20 1.28226)
(-9.75505 7.60225e-20 1.14161)
(-10.2482 -5.47631e-20 0.983019)
(-10.6757 -3.02017e-20 0.806425)
(-11.0294 -1.29277e-20 0.611912)
(-11.3017 4.31546e-21 0.39957)
(-11.4853 1.61538e-21 0.169625)
(-11.5735 0 -0.0772635)
(-11.56 4.31204e-21 -0.340393)
(-11.4479 -4.24233e-21 -0.61871)
(-11.2353 5.63917e-21 -0.910759)
(-10.9251 3.02879e-21 -1.2138)
(-10.5234 -3.43138e-21 -1.52506)
(-10.0345 5.2713e-21 -1.84366)
(-9.46912 0 -2.17295)
(-8.89729 -6.69145e-21 -2.51037)
(-8.5332 -5.65446e-21 -2.79451)
(-7.09501 0 2.0554)
(-7.76824 0 1.94418)
(-8.40664 6.5402e-20 1.81029)
(-9.00423 0 1.65355)
(-9.55502 3.90244e-20 1.47389)
(-10.0525 0 1.2713)
(-10.4895 0 1.046)
(-10.8588 0 0.798704)
(-11.1531 2.43253e-21 0.530496)
(-11.3655 -1.00576e-20 0.243021)
(-11.4911 7.57226e-21 -0.0611274)
(-11.5251 6.18324e-21 -0.379253)
(-11.4693 -6.07572e-21 -0.711865)
(-11.3255 0 -1.05678)
(-11.0988 -6.5539e-21 -1.40856)
(-10.7985 3.00268e-21 -1.76157)
(-10.4335 0 -2.11027)
(-10.0196 4.7414e-22 -2.45144)
(-9.61444 6.40139e-21 -2.77892)
(-9.36706 -2.48005e-22 -3.03853)
(-6.72976 -7.82323e-19 2.50982)
(-7.3801 -7.58721e-20 2.37801)
(-8.00079 -6.55871e-20 2.21984)
(-8.58636 -9.66437e-20 2.03489)
(-9.13103 -3.90779e-20 1.82298)
(-9.6283 0 1.58406)
(-10.0714 0 1.31831)
(-10.4538 6.25144e-22 1.02626)
(-10.7685 -5.35386e-21 0.709004)
(-11.0085 -6.45171e-21 0.368715)
(-11.1692 -3.26985e-20 0.00915102)
(-11.247 3.75722e-20 -0.365165)
(-11.2413 0 -0.75154)
(-11.1591 0 -1.14661)
(-11.0057 0 -1.54265)
(-10.7913 0 -1.93125)
(-10.5278 0 -2.30319)
(-10.2336 -6.46989e-21 -2.65082)
(-9.95504 0 -2.96566)
(-9.79115 0 -3.20101)
(-6.19375 1.73106e-19 2.95443)
(-6.8143 7.63752e-20 2.80433)
(-7.41087 9.89905e-20 2.62425)
(-7.97853 -2.75944e-19 2.41341)
(-8.51192 1.5108e-19 2.17146)
(-9.00507 -5.40401e-20 1.89829)
(-9.45132 0 1.59422)
(-9.84422 0 1.2599)
(-10.1771 3.20133e-20 0.896756)
(-10.4431 0 0.507773)
(-10.6371 5.29642e-20 0.0980678)
(-10.7565 -1.00327e-20 -0.325955)
(-10.7967 -5.90519e-20 -0.759106)
(-10.7707 -3.52099e-20 -1.19703)
(-10.6829 3.98741e-20 -1.63014)
(-10.5435 0 -2.04735)
(-10.3658 0 -2.43642)
(-10.1692 6.46563e-21 -2.78647)
(-9.99097 0 -3.08745)
(-9.89113 0 -3.30073)
(-5.50733 -3.23711e-19 3.3852)
(-6.09204 7.03747e-19 3.21959)
(-6.6589 -1.35163e-19 3.02079)
(-7.20347 0 2.78776)
(-7.72076 1.65658e-20 2.51988)
(-8.20551 4.53786e-20 2.21701)
(-8.65162 -7.71789e-22 1.87947)
(-9.05259 1.83055e-20 1.50799)
(-9.40185 -3.8147e-20 1.10413)
(-9.69237 -2.21771e-20 0.671159)
(-9.91844 -2.15401e-20 0.214897)
(-10.078 -1.06226e-19 -0.256443)
(-10.1604 -1.01298e-20 -0.732809)
(-10.186 -2.18871e-20 -1.20867)
(-10.1582 -2.821e-20 -1.67405)
(-10.086 0 -2.11537)
(-9.98266 -2.79914e-21 -2.51804)
(-9.86821 -1.79e-20 -2.86861)
(-9.77252 -3.70121e-22 -3.15583)
(-9.72474 3.93372e-22 -3.34927)
(-4.68747 -1.68346e-19 3.79854)
(-5.23127 -9.02375e-21 3.62055)
(-5.76352 0 3.40647)
(-6.28028 1.26701e-19 3.15509)
(-6.77699 -1.69099e-19 2.86557)
(-7.24886 1.91304e-20 2.53763)
(-7.69065 0 2.1715)
(-8.09622 -2.4283e-20 1.76786)
(-8.45907 4.13372e-20 1.32828)
(-8.77185 4.42069e-20 0.855864)
(-9.02791 0 0.3566)
(-9.22394 2.20091e-20 -0.158978)
(-9.34879 4.33999e-20 -0.674758)
(-9.4223 4.05613e-20 -1.18379)
(-9.45074 5.88155e-20 -1.67732)
(-9.44074 5.04541e-21 -2.13941)
(-9.40444 -4.95611e-21 -2.55366)
(-9.36167 2.07404e-20 -2.90436)
(-9.33689 5.8917e-22 -3.17878)
(-9.33398 -6.24484e-22 -3.35405)
(-3.75014 -3.94647e-19 4.19084)
(-4.24907 -6.37434e-19 4.00368)
(-4.74263 3.13424e-19 3.77779)
(-5.22724 -6.32502e-20 3.51193)
(-5.69891 7.24774e-20 3.20516)
(-6.1533 -5.61518e-20 2.85705)
(-6.58582 -1.3731e-20 2.46758)
(-6.991 6.2898e-20 2.0372)
(-7.36243 -1.31443e-19 1.56717)
(-7.69215 0 1.06022)
(-7.97212 -7.49439e-20 0.522816)
(-8.19832 1.4989e-19 -0.0317097)
(-8.37375 -8.00399e-20 -0.584322)
(-8.49172 -7.57753e-20 -1.12335)
(-8.57358 -5.92902e-20 -1.64156)
(-8.62285 6.03783e-21 -2.12169)
(-8.64987 -5.92708e-21 -2.54642)
(-8.67302 1.51883e-21 -2.89816)
(-8.71249 -1.4958e-21 -3.16164)
(-8.75098 -1.53261e-20 -3.31999)
(-2.7118 -2.72459e-19 4.55841)
(-3.16308 3.8164e-19 4.36532)
(-3.61481 -1.58355e-19 4.13119)
(-4.0636 2.10664e-19 3.85476)
(-4.50606 1.83848e-20 3.53514)
(-4.93842 -8.21255e-21 3.17168)
(-5.35663 3.7002e-20 2.7641)
(-5.75585 4.88043e-20 2.31243)
(-6.13007 3.64268e-20 1.81743)
(-6.47155 -7.01157e-20 1.28163)
(-6.77223 1.13405e-19 0.712094)
(-7.02894 5.30236e-20 0.124104)
(-7.24731 3.8429e-20 -0.461814)
(-7.40533 7.65977e-20 -1.02861)
(-7.53642 0 -1.5678)
(-7.64272 6.498e-20 -2.06291)
(-7.732 0 -2.49717)
(-7.81952 7.47527e-20 -2.85188)
(-7.92122 -4.71658e-22 -3.10759)
(-8.00118 3.39439e-20 -3.25024)
(-1.58976 0 4.8977)
(-1.99152 7.93079e-20 4.70212)
(-2.39897 -3.55102e-19 4.46329)
(-2.80887 0 4.18019)
(-3.21853 9.74916e-21 3.85208)
(-3.62495 -3.30181e-20 3.47796)
(-4.02475 -7.84687e-20 3.05727)
(-4.41385 1.50295e-19 2.58955)
(-4.78689 -1.29367e-19 2.07513)
(-5.13642 -8.56709e-20 1.51674)
(-5.45354 0 0.921748)
(-5.73438 -1.39774e-19 0.305518)
(-5.98788 4.77285e-20 -0.31134)
(-6.1761 -7.24796e-20 -0.902905)
(-6.34912 -1.05747e-19 -1.45779)
(-6.50861 6.13129e-21 -1.96326)
(-6.65971 0 -2.40495)
(-6.81307 -7.54831e-20 -2.76471)
(-6.97945 5.39762e-22 -3.01745)
(-7.10519 -1.86972e-20 -3.14624)
(-0.401855 1.35499e-19 5.20488)
(-0.752867 1.83263e-19 5.00979)
(-1.11412 -2.21106e-19 4.76995)
(-1.48217 1.18083e-19 4.48463)
(-1.85538 0 4.15267)
(-2.2318 7.64243e-21 3.77285)
(-2.60896 7.18263e-20 3.34445)
(-2.984 1.37123e-20 2.86633)
(-3.35245 5.47503e-21 2.33815)
(-3.70704 3.84717e-20 1.76319)
(-4.03674 -4.17317e-21 1.14812)
(-4.33571 5.13657e-20 0.506934)
(-4.61504 0 -0.140228)
(-4.82178 7.17451e-20 -0.75316)
(-5.02582 1.08886e-19 -1.31588)
(-5.23111 -8.13205e-20 -1.82434)
(-5.44082 1.32431e-19 -2.26832)
(-5.6615 0 -2.63353)
(-5.89815 -5.94293e-22 -2.88949)
(-6.07975 6.14279e-22 -3.00775)
(0.839208 -5.51757e-21 5.48021)
(0.542112 -1.72201e-19 5.29166)
(0.226483 1.68956e-19 5.05313)
(-0.100886 2.4038e-20 4.7655)
(-0.434709 -3.01654e-20 4.43205)
(-0.776229 0 4.04993)
(-1.12427 -8.60528e-20 3.61799)
(-1.47782 0 3.13483)
(-1.83367 4.61316e-20 2.59956)
(-2.18658 -9.79432e-20 2.01252)
(-2.5248 5.18127e-20 1.37914)
(-2.83655 -2.86046e-20 0.715279)
(-3.11754 2.83837e-20 0.0444093)
(-3.36171 0 -0.589272)
(-3.58616 0 -1.15069)
(-3.8276 0 -1.6513)
(-4.08734 -6.83052e-22 -2.08791)
(-4.37175 1.03135e-19 -2.45438)
(-4.68294 -5.99518e-20 -2.71903)
(-4.93837 0 -2.83254)
(2.09865 -1.28576e-19 5.71108)
(1.85666 7.98274e-20 5.53132)
(1.59609 3.21908e-20 5.30209)
(1.31885 -7.96119e-20 5.02131)
(1.02998 6.56291e-21 4.69178)
(0.730498 2.49856e-20 4.31348)
(0.421496 4.63019e-20 3.88575)
(0.10208 0 3.4051)
(-0.230675 4.29319e-20 2.86293)
(-0.567436 4.88802e-20 2.27034)
(-0.896631 -5.96821e-20 1.62779)
(-1.20469 1.5181e-19 0.933622)
(-1.51441 6.15534e-22 0.213682)
(-1.80193 2.89692e-20 -0.421611)
(-2.0488 1.18319e-20 -0.970404)
(-2.32213 -2.13134e-20 -1.45387)
(-2.62097 -1.24658e-19 -1.87125)
(-2.95616 -1.98323e-19 -2.22694)
(-3.33535 6.08141e-20 -2.49877)
(-3.69182 0 -2.61566)
(3.56372 4.68785e-19 6.02175)
(3.40369 0 5.90507)
(3.21968 7.24782e-20 5.73726)
(3.01547 -1.29938e-19 5.51783)
(2.79281 7.21437e-20 5.24555)
(2.55475 -2.67426e-20 4.92178)
(2.30375 -1.15802e-20 4.54793)
(2.04181 4.97854e-20 4.12444)
(1.77019 7.12997e-20 3.6507)
(1.48714 1.97898e-21 3.12211)
(1.19278 -5.50254e-20 2.53956)
(0.893109 5.47416e-20 1.91146)
(0.609845 -8.87721e-20 1.24858)
(0.327703 -3.00912e-20 0.55227)
(-0.126022 0 -0.177806)
(-0.421532 -1.92742e-19 -0.770816)
(-0.73722 1.62009e-19 -1.24328)
(-1.07067 -3.74328e-21 -1.63465)
(-1.43829 1.04859e-19 -1.9619)
(-1.85783 -2.48866e-21 -2.22468)
(-2.34774 0 -2.35196)
(4.80672 -1.26028e-19 6.14765)
(4.70975 1.23516e-19 6.05213)
(4.58602 0 5.90057)
(4.43971 0 5.69399)
(4.27354 -5.20403e-20 5.43273)
(4.08973 0 5.11779)
(3.89075 0 4.75075)
(3.67893 -4.7792e-20 4.33258)
(3.45597 -6.84093e-20 3.86299)
(3.22153 -1.72097e-19 3.33953)
(2.97366 -4.6975e-20 2.76237)
(2.71153 5.72857e-20 2.1381)
(2.44013 -2.90605e-20 1.48408)
(2.16718 2.89633e-20 0.827093)
(1.78055 -2.20176e-19 0.156814)
(1.36161 1.87132e-19 -0.468969)
(0.991696 -1.5347e-19 -0.965091)
(0.615196 -1.04929e-21 -1.35245)
(0.221035 -3.66565e-21 -1.65379)
(-0.204953 -3.23793e-22 -1.89277)
(-0.836949 3.1975e-22 -2.03135)
(5.92745 0 6.01611)
(5.84048 0 5.82658)
(5.73215 1.15365e-20 5.57968)
(5.60437 -1.15677e-20 5.27688)
(5.45911 -1.74961e-20 4.91982)
(5.29834 1.72855e-20 4.50982)
(5.12342 6.36629e-20 4.04732)
(4.93413 8.24368e-20 3.53171)
(4.72788 9.59213e-20 2.9643)
(4.50046 -1.05454e-19 2.35193)
(4.24784 0 1.71324)
(3.96872 2.15686e-19 1.07974)
(3.6577 2.10634e-19 0.46261)
(3.20808 -5.5525e-21 -0.138778)
(2.77998 5.46462e-21 -0.650081)
(2.35553 0 -1.04462)
(1.92432 9.3897e-20 -1.33604)
(1.49808 -5.75879e-20 -1.53936)
(0.894655 1.54241e-22 -1.66725)
(7.14081 2.4322e-20 5.68093)
(7.06853 4.47723e-21 5.39378)
(6.97697 -4.85241e-21 5.05044)
(6.86698 3.9373e-20 4.65261)
(6.739 -6.11602e-20 4.20169)
(6.59207 -2.05005e-20 3.69891)
(6.42294 2.03308e-20 3.14746)
(6.22614 0 2.55566)
(5.995 0 1.94127)
(5.72425 -2.06649e-19 1.33176)
(5.42103 0 0.752871)
(5.03288 5.18738e-21 0.202423)
(4.58044 -1.54456e-19 -0.296986)
(4.13228 -1.20635e-19 -0.696122)
(3.67832 -9.12243e-20 -0.989481)
(3.23468 5.60398e-20 -1.18878)
(2.66193 0 -1.31515)
(8.46267 -6.53104e-21 5.46593)
(8.41973 1.41446e-20 5.13947)
(8.35719 -2.67127e-20 4.75801)
(8.27353 3.90534e-20 4.32357)
(8.16639 0 3.83888)
(8.03171 6.57149e-20 3.30891)
(7.86362 -8.75607e-22 2.74326)
(7.65557 -7.77951e-20 2.15876)
(7.40292 0 1.57918)
(7.10701 1.69556e-19 1.03095)
(6.77605 -1.55248e-19 0.529135)
(6.34105 6.98047e-21 0.0638107)
(5.89056 5.37903e-21 -0.328586)
(5.43396 -8.21667e-20 -0.624764)
(4.98662 2.8243e-22 -0.828965)
(4.43397 -1.97709e-20 -0.963758)
(9.76036 -9.69992e-21 4.82738)
(9.71322 -4.36001e-20 4.41309)
(9.64061 -8.10581e-21 3.95116)
(9.53713 1.0253e-21 3.44755)
(9.39652 0 2.91243)
(9.21286 8.5526e-20 2.36164)
(8.98245 0 1.81592)
(8.70569 -1.62879e-19 1.29806)
(8.38944 2.90527e-19 0.828538)
(8.03279 2.51741e-19 0.411917)
(7.59231 2.08853e-19 0.0403108)
(7.1509 1.57191e-19 -0.255284)
(6.71769 0 -0.467795)
(6.19285 3.28375e-22 -0.614138)
(11.0259 -1.68279e-22 4.03948)
(10.9462 -1.15812e-19 3.56476)
(10.8294 5.9488e-20 3.06274)
(10.6697 0 2.54774)
(10.4637 1.294e-19 2.03782)
(10.2118 8.95167e-21 1.55247)
(9.91888 -1.2819e-19 1.11018)
(9.59486 -1.19757e-19 0.723841)
(9.23116 -1.03649e-19 0.390651)
(8.81576 -7.24562e-20 0.104622)
(8.41289 4.8854e-22 -0.11528)
(7.93023 1.73608e-20 -0.273735)
(12.2976 5.95317e-20 3.66722)
(12.1974 -6.11284e-20 3.19733)
(12.0582 -1.55914e-20 2.71737)
(11.8767 -2.5111e-19 2.24266)
(11.6531 2.29107e-20 1.78965)
(11.3916 -6.43069e-22 1.37399)
(11.1005 -6.70276e-21 1.00838)
(10.7902 4.58382e-21 0.698439)
(10.454 -1.32778e-21 0.43739)
(10.0881 -3.20723e-21 0.21821)
(9.65959 -1.56695e-20 0.049926)
(13.427 0 2.87374)
(13.269 1.13442e-19 2.43063)
(13.0754 0 2.00694)
(12.8494 -1.16091e-20 1.61554)
(12.5986 1.50692e-21 1.26722)
(12.3322 8.26913e-20 0.968812)
(12.0586 -5.65169e-20 0.721278)
(11.7756 3.40719e-20 0.517156)
(11.405 1.51006e-20 0.348256)
(14.6673 6.01189e-20 2.60164)
(14.5052 5.68214e-20 2.20244)
(14.3173 -9.74036e-21 1.83139)
(14.1093 9.6753e-21 1.49741)
(13.8893 -5.91362e-20 1.20696)
(13.6649 4.36145e-20 0.963238)
(13.4424 -3.27095e-20 0.765426)
(13.162 1.20654e-20 0.606851)
(15.7675 0 2.01774)
(15.6031 0 1.69567)
(15.4282 4.64276e-20 1.41179)
(15.2492 -3.6266e-20 1.17025)
(15.0718 0 0.973243)
(14.8534 -1.1589e-20 0.819937)
(17.0002 2.27408e-20 1.85836)
(16.8686 -5.54356e-20 1.58145)
(16.7306 6.27885e-20 1.34324)
(16.5914 0 1.14787)
(16.4191 0 0.998351)
(18.0135 -2.03657e-20 1.48157)
(17.9079 0 1.29021)
(17.7734 0 1.14469)
(18.9491 9.81215e-21 1.39993)
(18.8484 0 1.25947)
(19.6168 -5.14812e-22 1.34303)
)
;

boundaryField
{
    inlet
    {
        type            fixedValue;
        value           nonuniform 0();
    }
    outlet
    {
        type            zeroGradient;
    }
    flap
    {
        type            movingWallVelocity;
        value           nonuniform 0();
    }
    upperWall
    {
        type            noSlip;
    }
    lowerWall
    {
        type            noSlip;
    }
    frontAndBack
    {
        type            empty;
    }
    procBoundary5to2
    {
        type            processor;
        value           nonuniform List<vector> 
34
(
(6.0287 1.45636e-19 6.21649)
(5.99078 0 6.14669)
(5.99078 0 6.14669)
(7.22609 -1.07826e-19 6.07997)
(7.19324 3.10428e-20 5.91015)
(7.19324 3.10428e-20 5.91015)
(8.48781 1.90415e-20 5.7358)
(8.48781 1.90415e-20 5.7358)
(9.79728 -1.13284e-20 5.50115)
(9.78673 8.88153e-21 5.19063)
(9.78673 8.88153e-21 5.19063)
(11.1021 4.61599e-22 4.87174)
(11.0754 3.25711e-20 4.47709)
(11.0754 3.25711e-20 4.47709)
(12.3649 -3.00588e-20 4.11471)
(12.3649 -3.00588e-20 4.11471)
(13.6398 3.68732e-20 3.76496)
(13.5496 -6.14297e-20 3.32272)
(13.5496 -6.14297e-20 3.32272)
(14.8009 1.89698e-20 3.01853)
(14.8009 1.89698e-20 3.01853)
(16.0423 3.71686e-20 2.7512)
(15.9153 7.52897e-20 2.37208)
(15.9153 7.52897e-20 2.37208)
(17.1208 1.20077e-20 2.1693)
(17.1208 1.20077e-20 2.1693)
(18.204 -8.25393e-21 1.98176)
(18.1136 -1.752e-20 1.7138)
(18.1136 -1.752e-20 1.7138)
(19.0237 1.61914e-21 1.58446)
(19.0237 1.61914e-21 1.58446)
(19.6857 5.77543e-21 1.47712)
(19.6857 5.77543e-21 1.47712)
(20.0953 1.76672e-23 1.39636)
)
;
    }
    procBoundary5to4
    {
        type            processor;
        value           nonuniform List<vector> 
18
(
(-4.99997 1.0986e-19 0.22874)
(-6.02678 -2.83126e-20 0.705012)
(-6.45161 4.42433e-19 1.17342)
(-6.53921 4.70971e-19 1.66433)
(-6.39178 1.06112e-19 2.14365)
(-6.05427 -1.06863e-19 2.61544)
(-5.55334 0 3.07525)
(-4.90843 6.51076e-19 3.51873)
(-4.13542 9.19049e-19 3.94193)
(-3.24891 -6.95629e-19 4.34112)
(-2.26401 -7.77584e-19 4.71249)
(-1.19691 0 5.05217)
(-0.064641 3.69808e-19 5.35663)
(1.11862 0 5.6237)
(2.31984 0 5.84348)
(2.31984 0 5.84348)
(3.69469 1.51177e-19 6.08742)
(4.87227 1.14653e-21 6.18575)
)
;
    }
}


// ************************************************************************* //
