/*--------------------------------*- C++ -*----------------------------------*\
| =========                 |                                                 |
| \\      /  F ield         | OpenFOAM: The Open Source CFD Toolbox           |
|  \\    /   O peration     | Version:  dev                                   |
|   \\  /    A nd           | Web:      www.OpenFOAM.org                      |
|    \\/     M anipulation  |                                                 |
\*---------------------------------------------------------------------------*/
FoamFile
{
    version     2.0;
    format      ascii;
    class       pointVectorField;
    location    "0.55";
    object      pointDisplacement;
}
// * * * * * * * * * * * * * * * * * * * * * * * * * * * * * * * * * * * * * //

dimensions      [0 1 0 0 0 0 0];

internalField   nonuniform List<vector> 
5828
(
(0 0 0)
(0.0094105 0 0)
(0.0179119 0 0)
(0.0253035 0 0)
(0.0316924 0 0)
(0.0371741 0 0)
(0.0418319 0 0)
(0.0457406 0 0)
(0.0489644 0 0)
(0.0515573 0 0)
(0.0535648 0 0)
(0.0550261 0 0)
(0.0559736 0 0)
(0.0564329 0 0)
(0.0564238 0 0)
(0.0559605 0 0)
(0.0550513 0 0)
(0.0537003 0 0)
(0.0519066 0 0)
(0.0496662 0 0)
(0.0469725 0 0)
(0.0438196 0 0)
(0.0402044 0 0)
(0.0361309 0 0)
(0.0316169 0 0)
(0.0267059 0 0)
(0.0214998 0 0)
(0.0162004 0 0)
(0.0111879 0 0)
(0.00732495 0 0)
(0 0 0)
(0 0 0)
(0.00941294 0 -3.30302e-05)
(0.0179168 0 -6.33617e-05)
(0.0253111 0 -9.06569e-05)
(0.0317033 0 -0.00011551)
(0.0371891 0 -0.000138434)
(0.0418515 0 -0.000159627)
(0.0457656 0 -0.000179149)
(0.0489964 0 -0.000197125)
(0.0515975 0 -0.000213489)
(0.0536148 0 -0.00022789)
(0.0550879 0 -0.000239834)
(0.0560498 0 -0.000248755)
(0.0565265 0 -0.00025382)
(0.0565384 0 -0.000253957)
(0.0561006 0 -0.000247627)
(0.0552231 0 -0.000232842)
(0.053911 0 -0.000207146)
(0.0521656 0 -0.0001673)
(0.0499849 0 -0.000109168)
(0.0473654 0 -2.75081e-05)
(0.044305 0 8.42052e-05)
(0.0408064 0 0.000234071)
(0.0368809 0 0.000432139)
(0.0325569 0 0.000690768)
(0.0278882 0 0.00102565)
(0.022987 0 0.00145665)
(0.0180784 0 0.00200502)
(0.0135952 0 0.00268204)
(0.0104317 0 0.00342049)
(0.00538112 0 0.00494859)
(0 0 0)
(0.00942167 0 -6.6132e-05)
(0.0179328 0 -0.000126875)
(0.0253347 0 -0.00018156)
(0.031737 0 -0.00023136)
(0.0372349 0 -0.000277178)
(0.0419104 0 -0.000319533)
(0.0458406 0 -0.000358696)
(0.0490917 0 -0.000394838)
(0.0517173 0 -0.000427883)
(0.0537635 0 -0.000457111)
(0.0552715 0 -0.000481527)
(0.0562758 0 -0.000500109)
(0.0568041 0 -0.000511227)
(0.0568785 0 -0.000512587)
(0.0565168 0 -0.000501523)
(0.0557328 0 -0.000474551)
(0.0545359 0 -0.00042681)
(0.0529326 0 -0.000352179)
(0.0509277 0 -0.000242938)
(0.0485253 0 -8.92998e-05)
(0.0457347 0 0.000120733)
(0.0425741 0 0.000401823)
(0.039074 0 0.000771888)
(0.03529 0 0.00125201)
(0.0313115 0 0.00186664)
(0.027285 0 0.00264086)
(0.0234698 0 0.00359431)
(0.0203545 0 0.00471039)
(0.0188286 0 0.00581546)
(0.0160869 0 0.00770197)
(0 0 0)
(0.00943705 0 -9.92586e-05)
(0.0179599 0 -0.000190413)
(0.0253739 0 -0.000272536)
(0.0317909 0 -0.000347342)
(0.0373071 0 -0.000415986)
(0.0420056 0 -0.000479498)
(0.0459635 0 -0.00053849)
(0.0492482 0 -0.000593061)
(0.0519137 0 -0.000643046)
(0.0540068 0 -0.000687531)
(0.0555713 0 -0.000725266)
(0.0566449 0 -0.0007548)
(0.0572573 0 -0.000773863)
(0.0574338 0 -0.000779292)
(0.0571963 0 -0.000767344)
(0.056564 0 -0.000733244)
(0.0555532 0 -0.000670437)
(0.054179 0 -0.000570655)
(0.0524575 0 -0.00042368)
(0.0504055 0 -0.000216589)
(0.0480467 0 6.638e-05)
(0.0454199 0 0.000443645)
(0.0425814 0 0.000936707)
(0.0396238 0 0.00156878)
(0.0366851 0 0.00236181)
(0.0339586 0 0.00332997)
(0.0317263 0 0.00446734)
(0.0304247 0 0.00570148)
(0.0307542 0 0.00676752)
(0.0303288 0 0.00842298)
(0 0 0)
(0.00945495 0 -0.000132227)
(0.0179957 0 -0.000253683)
(0.025428 0 -0.000363099)
(0.0318641 0 -0.000462757)
(0.0374046 0 -0.000554351)
(0.0421355 0 -0.000639308)
(0.0461322 0 -0.000718404)
(0.0494623 0 -0.000791759)
(0.0521817 0 -0.000859087)
(0.054339 0 -0.000919514)
(0.0559811 0 -0.000971793)
(0.0571486 0 -0.00101411)
(0.0578749 0 -0.00104376)
(0.0581896 0 -0.00105714)
(0.0581192 0 -0.00104955)
(0.0576899 0 -0.00101535)
(0.056927 0 -0.000947158)
(0.0558563 0 -0.000835481)
(0.0545085 0 -0.000668956)
(0.0529187 0 -0.000433576)
(0.051128 0 -0.000112311)
(0.0491967 0 0.00031367)
(0.0472098 0 0.00086472)
(0.0452919 0 0.0015597)
(0.0436209 0 0.00240864)
(0.0424225 0 0.0034038)
(0.0419731 0 0.00450217)
(0.042584 0 0.00558212)
(0.0445845 0 0.00635584)
(0.0460434 0 0.00746235)
(0 0 0)
(0.00947539 0 -0.000165019)
(0.018038 0 -0.00031657)
(0.0254926 0 -0.000452988)
(0.0319546 0 -0.000577338)
(0.0375281 0 -0.000692014)
(0.0422995 0 -0.000798689)
(0.0463438 0 -0.000898197)
(0.04973 0 -0.000990792)
(0.0525162 0 -0.00107622)
(0.0547535 0 -0.00115368)
(0.056492 0 -0.00122207)
(0.0577756 0 -0.00127942)
(0.0586419 0 -0.00132287)
(0.0591258 0 -0.00134863)
(0.0592601 0 -0.00135176)
(0.0590781 0 -0.00132615)
(0.058614 0 -0.00126411)
(0.0579053 0 -0.00115607)
(0.0569986 0 -0.000991091)
(0.0559488 0 -0.000756101)
(0.0548188 0 -0.000435694)
(0.0536922 0 -1.39579e-05)
(0.0526816 0 0.000524109)
(0.0519348 0 0.00118815)
(0.0516439 0 0.0019729)
(0.0520302 0 0.00284709)
(0.0533154 0 0.00373776)
(0.055644 0 0.00450299)
(0.0589005 0 0.00490248)
(0.0617478 0 0.00547618)
(0 0 0)
(0.00949592 0 -0.000197491)
(0.0180822 0 -0.000378844)
(0.0255646 0 -0.000542177)
(0.0320608 0 -0.000691317)
(0.0376756 0 -0.000829129)
(0.042495 0 -0.000957518)
(0.0465946 0 -0.00107757)
(0.0500462 0 -0.00118989)
(0.0529104 0 -0.00129417)
(0.0552412 0 -0.00138982)
(0.0570922 0 -0.00147605)
(0.0585106 0 -0.00155088)
(0.0595384 0 -0.00161157)
(0.0602163 0 -0.00165454)
(0.0605853 0 -0.00167532)
(0.0606847 0 -0.00166772)
(0.0605564 0 -0.00162417)
(0.0602522 0 -0.00153665)
(0.0598332 0 -0.00139586)
(0.0593695 0 -0.001191)
(0.0589459 0 -0.000910811)
(0.0586679 0 -0.000544977)
(0.0586723 0 -8.69957e-05)
(0.0591213 0 0.000461308)
(0.0601899 0 0.00108144)
(0.0620585 0 0.00172648)
(0.0648573 0 0.00231229)
(0.0685206 0 0.00271105)
(0.0725262 0 0.00277307)
(0.0763472 0 0.00294863)
(0 0 0)
(0.00951588 0 -0.000229464)
(0.0181296 0 -0.000440386)
(0.0256468 0 -0.000630658)
(0.0321831 0 -0.000804641)
(0.0378436 0 -0.000965598)
(0.0427163 0 -0.00111566)
(0.0468792 0 -0.00125641)
(0.0504052 0 -0.00138883)
(0.0533567 0 -0.00151275)
(0.0557929 0 -0.00162793)
(0.05777 0 -0.00173381)
(0.0593378 0 -0.00182861)
(0.0605434 0 -0.00190997)
(0.0614334 0 -0.00197484)
(0.0620555 0 -0.00201955)
(0.062456 0 -0.00203864)
(0.0626861 0 -0.00202582)
(0.0628106 0 -0.00197544)
(0.0628998 0 -0.00188048)
(0.0630342 0 -0.00173347)
(0.0633179 0 -0.00152928)
(0.0638737 0 -0.00126498)
(0.0648479 0 -0.000942886)
(0.0663936 0 -0.00057447)
(0.068656 0 -0.000187386)
(0.071759 0 0.000166871)
(0.0757178 0 0.000413312)
(0.0802349 0 0.000469412)
(0.0844994 0 0.000283826)
(0.0888992 0 0.000153884)
(0 0 0)
(0.00954114 0 -0.00026102)
(0.0181856 0 -0.000501222)
(0.0257402 0 -0.000718214)
(0.0323196 0 -0.000916882)
(0.0380292 0 -0.00110094)
(0.0429597 0 -0.00127293)
(0.0471925 0 -0.00143481)
(0.0508004 0 -0.00158774)
(0.0538486 0 -0.00173211)
(0.0564001 0 -0.00186819)
(0.0585133 0 -0.00199544)
(0.0602415 0 -0.00211259)
(0.0616362 0 -0.00221784)
(0.062749 0 -0.00230888)
(0.0636327 0 -0.00238292)
(0.0643409 0 -0.00243613)
(0.0649348 0 -0.00246454)
(0.0654865 0 -0.0024649)
(0.0660727 0 -0.00243344)
(0.0667829 0 -0.00236731)
(0.0677289 0 -0.00226725)
(0.0690389 0 -0.00213787)
(0.0708475 0 -0.00198867)
(0.0732834 0 -0.00183779)
(0.0764604 0 -0.0017169)
(0.080435 0 -0.00167063)
(0.0850957 0 -0.00174713)
(0.0899571 0 -0.00196851)
(0.0940894 0 -0.00230622)
(0.0986504 0 -0.0026367)
(0 0 0)
(0.0095707 0 -0.000292044)
(0.0182489 0 -0.000561023)
(0.0258429 0 -0.000804302)
(0.032468 0 -0.00102733)
(0.0382303 0 -0.00123433)
(0.043223 0 -0.00142834)
(0.0475294 0 -0.00161163)
(0.0512242 0 -0.00178562)
(0.0543759 0 -0.00195128)
(0.0570495 0 -0.00210922)
(0.0593052 0 -0.00225925)
(0.0611998 0 -0.00240069)
(0.0627888 0 -0.00253246)
(0.0641276 0 -0.00265316)
(0.0652725 0 -0.002761)
(0.0662839 0 -0.00285431)
(0.0672304 0 -0.00293189)
(0.0681864 0 -0.00299281)
(0.0692319 0 -0.00303703)
(0.0704601 0 -0.00306685)
(0.0719757 0 -0.00308749)
(0.0738931 0 -0.003109)
(0.0763262 0 -0.00314672)
(0.0793753 0 -0.00322254)
(0.0831097 0 -0.00336559)
(0.0875095 0 -0.00360458)
(0.0923584 0 -0.0039511)
(0.0971062 0 -0.00437503)
(0.100858 0 -0.00479382)
(0.105224 0 -0.00524405)
(0 0 0)
(0.00960349 0 -0.00032237)
(0.0183176 0 -0.000619475)
(0.0259526 0 -0.000888472)
(0.0326252 0 -0.0011354)
(0.0384427 0 -0.00136498)
(0.0435004 0 -0.00158075)
(0.0478833 0 -0.00178535)
(0.0516685 0 -0.00198064)
(0.0549267 0 -0.00216799)
(0.0577245 0 -0.00234829)
(0.0601243 0 -0.00252191)
(0.0621858 0 -0.00268883)
(0.0639672 0 -0.00284879)
(0.065527 0 -0.00300141)
(0.0669243 0 -0.00314624)
(0.068224 0 -0.0032837)
(0.0694976 0 -0.00341509)
(0.0708164 0 -0.00354164)
(0.0722572 0 -0.0036664)
(0.073908 0 -0.00379589)
(0.0758585 0 -0.00393928)
(0.0781994 0 -0.00411008)
(0.0810153 0 -0.00432672)
(0.0843661 0 -0.00461081)
(0.0882636 0 -0.0049835)
(0.0926239 0 -0.00545487)
(0.0971912 0 -0.00600557)
(0.101466 0 -0.00656992)
(0.104689 0 -0.00703019)
(0.108596 0 -0.00755474)
(0 0 0)
(0.00963856 0 -0.000351875)
(0.01839 0 -0.000676343)
(0.0260671 0 -0.000970375)
(0.0327881 0 -0.00124061)
(0.0386621 0 -0.00149227)
(0.043786 0 -0.00172936)
(0.0482466 0 -0.00195492)
(0.0521229 0 -0.00217124)
(0.0554875 0 -0.00238006)
(0.0584083 0 -0.00258269)
(0.0609495 0 -0.00278002)
(0.0631727 0 -0.0029727)
(0.065138 0 -0.0031613)
(0.0669057 0 -0.00334648)
(0.0685367 0 -0.00352922)
(0.0700959 0 -0.00371147)
(0.071652 0 -0.00389624)
(0.0732715 0 -0.00408697)
(0.0750237 0 -0.00428925)
(0.0769831 0 -0.00451214)
(0.0792198 0 -0.00476742)
(0.0817958 0 -0.00507028)
(0.0847554 0 -0.00543866)
(0.0881098 0 -0.00589048)
(0.0918166 0 -0.00643781)
(0.0957515 0 -0.00707573)
(0.0996743 0 -0.00776638)
(0.103199 0 -0.00842357)
(0.105778 0 -0.00890896)
(0.108948 0 -0.0094865)
(0 0 0)
(0.00967465 0 -0.000380292)
(0.0184639 0 -0.000731107)
(0.0261829 0 -0.00104924)
(0.0329522 0 -0.00134193)
(0.0388824 0 -0.00161489)
(0.0440721 0 -0.00187256)
(0.0486095 0 -0.00211838)
(0.0525752 0 -0.00235504)
(0.056043 0 -0.00258467)
(0.059082 0 -0.00280897)
(0.0617575 0 -0.00302935)
(0.0641321 0 -0.00324709)
(0.0662668 0 -0.0034635)
(0.0682219 0 -0.00368016)
(0.0700581 0 -0.00389916)
(0.0718372 0 -0.00412355)
(0.0736219 0 -0.00435745)
(0.0754726 0 -0.00460615)
(0.0774485 0 -0.00487695)
(0.0796055 0 -0.00517983)
(0.0819899 0 -0.00552706)
(0.0846312 0 -0.00593305)
(0.087533 0 -0.00641291)
(0.0906596 0 -0.00697928)
(0.0939243 0 -0.00763647)
(0.0971796 0 -0.00837104)
(0.100219 0 -0.00913848)
(0.102793 0 -0.00984817)
(0.104615 0 -0.0103545)
(0.106797 0 -0.010969)
(0 0 0)
(0.00971024 0 -0.000407359)
(0.0185364 0 -0.000783257)
(0.0262963 0 -0.00112434)
(0.0331125 0 -0.00143839)
(0.0390974 0 -0.0017316)
(0.0443508 0 -0.00200883)
(0.0489623 0 -0.0022739)
(0.0530134 0 -0.00252985)
(0.0565788 0 -0.00277918)
(0.0597283 0 -0.00302397)
(0.0625276 0 -0.0032661)
(0.0650396 0 -0.00350735)
(0.0673248 0 -0.00374966)
(0.0694424 0 -0.00399531)
(0.0714509 0 -0.00424717)
(0.0734075 0 -0.00450902)
(0.0753679 0 -0.00478569)
(0.0773837 0 -0.00508327)
(0.0795009 0 -0.00540951)
(0.0817568 0 -0.005774)
(0.0841734 0 -0.00618771)
(0.0867502 0 -0.00666224)
(0.0894554 0 -0.00720815)
(0.0922168 0 -0.00783195)
(0.094916 0 -0.00853165)
(0.0973924 0 -0.00929067)
(0.0994681 0 -0.0100693)
(0.101 0 -0.0107907)
(0.101953 0 -0.0113179)
(0.102941 0 -0.0119458)
(0 0 0)
(0.00974393 0 -0.000432924)
(0.0186051 0 -0.00083251)
(0.0264038 0 -0.00119524)
(0.0332648 0 -0.00152943)
(0.0393018 0 -0.00184172)
(0.0446158 0 -0.00213733)
(0.0492972 0 -0.00242043)
(0.0534282 0 -0.0026944)
(0.057084 0 -0.00296204)
(0.0603345 0 -0.00322578)
(0.0632452 0 -0.00348785)
(0.0658783 0 -0.00375045)
(0.0682931 0 -0.00401596)
(0.0705466 0 -0.00428712)
(0.0726935 0 -0.00456723)
(0.0747857 0 -0.00486038)
(0.0768711 0 -0.00517157)
(0.0789912 0 -0.00550682)
(0.0811789 0 -0.00587326)
(0.0834543 0 -0.00627892)
(0.0858186 0 -0.00673212)
(0.0882481 0 -0.00724034)
(0.090687 0 -0.00780849)
(0.0930419 0 -0.00843636)
(0.0951808 0 -0.00911578)
(0.0969432 0 -0.00982822)
(0.0981692 0 -0.0105435)
(0.0987619 0 -0.0112164)
(0.098829 0 -0.0117565)
(0.0981584 0 -0.0124576)
(0 0 0)
(0.00977477 0 -0.000457121)
(0.0186683 0 -0.000879097)
(0.0265032 0 -0.00126228)
(0.0334064 0 -0.00161548)
(0.0394926 0 -0.00194573)
(0.0448635 0 -0.00225859)
(0.0496104 0 -0.00255854)
(0.0538156 0 -0.00284923)
(0.0575543 0 -0.00313375)
(0.060896 0 -0.00341479)
(0.0639055 0 -0.00369486)
(0.0666436 0 -0.00397643)
(0.0691676 0 -0.00426214)
(0.0715314 0 -0.00455493)
(0.0737853 0 -0.00485822)
(0.0759753 0 -0.00517602)
(0.0781412 0 -0.00551298)
(0.0803148 0 -0.00587435)
(0.082517 0 -0.00626585)
(0.0847539 0 -0.00669319)
(0.0870117 0 -0.00716125)
(0.0892523 0 -0.00767281)
(0.0914093 0 -0.00822678)
(0.0933856 0 -0.00881588)
(0.0950574 0 -0.00942441)
(0.0962862 0 -0.0100261)
(0.0969451 0 -0.0105831)
(0.0969668 0 -0.0110432)
(0.096457 0 -0.0113175)
(0.0932065 0 -0.0126953)
(0 0 0)
(0.0094105 0 0)
(0.0179119 0 0)
(0.0253035 0 0)
(0.0316924 0 0)
(0.0371741 0 0)
(0.0418319 0 0)
(0.0457406 0 0)
(0.0489644 0 0)
(0.0515573 0 0)
(0.0535648 0 0)
(0.0550261 0 0)
(0.0559736 0 0)
(0.0564329 0 0)
(0.0564238 0 0)
(0.0559605 0 0)
(0.0550513 0 0)
(0.0537003 0 0)
(0.0519066 0 0)
(0.0496662 0 0)
(0.0469725 0 0)
(0.0438196 0 0)
(0.0402044 0 0)
(0.0361309 0 0)
(0.0316169 0 0)
(0.0267059 0 0)
(0.0214998 0 0)
(0.0162004 0 0)
(0.0111879 0 0)
(0.00732495 0 0)
(0 0 0)
(0 0 0)
(0.00941294 0 -3.30302e-05)
(0.0179168 0 -6.33617e-05)
(0.0253111 0 -9.06569e-05)
(0.0317033 0 -0.00011551)
(0.0371891 0 -0.000138434)
(0.0418515 0 -0.000159627)
(0.0457656 0 -0.000179149)
(0.0489964 0 -0.000197125)
(0.0515975 0 -0.000213489)
(0.0536148 0 -0.00022789)
(0.0550879 0 -0.000239834)
(0.0560498 0 -0.000248755)
(0.0565265 0 -0.00025382)
(0.0565384 0 -0.000253957)
(0.0561006 0 -0.000247627)
(0.0552231 0 -0.000232842)
(0.053911 0 -0.000207146)
(0.0521656 0 -0.0001673)
(0.0499849 0 -0.000109168)
(0.0473654 0 -2.75081e-05)
(0.044305 0 8.42052e-05)
(0.0408064 0 0.000234071)
(0.0368809 0 0.000432139)
(0.0325569 0 0.000690768)
(0.0278882 0 0.00102565)
(0.022987 0 0.00145665)
(0.0180784 0 0.00200502)
(0.0135952 0 0.00268204)
(0.0104317 0 0.00342049)
(0.00538112 0 0.00494859)
(0 0 0)
(0.00942167 0 -6.6132e-05)
(0.0179328 0 -0.000126875)
(0.0253347 0 -0.00018156)
(0.031737 0 -0.00023136)
(0.0372349 0 -0.000277178)
(0.0419104 0 -0.000319533)
(0.0458406 0 -0.000358696)
(0.0490917 0 -0.000394838)
(0.0517173 0 -0.000427883)
(0.0537635 0 -0.000457111)
(0.0552715 0 -0.000481527)
(0.0562758 0 -0.000500109)
(0.0568041 0 -0.000511227)
(0.0568785 0 -0.000512587)
(0.0565168 0 -0.000501523)
(0.0557328 0 -0.000474551)
(0.0545359 0 -0.00042681)
(0.0529326 0 -0.000352179)
(0.0509277 0 -0.000242938)
(0.0485253 0 -8.92998e-05)
(0.0457347 0 0.000120733)
(0.0425741 0 0.000401823)
(0.039074 0 0.000771888)
(0.03529 0 0.00125201)
(0.0313115 0 0.00186664)
(0.027285 0 0.00264086)
(0.0234698 0 0.00359431)
(0.0203545 0 0.00471039)
(0.0188286 0 0.00581546)
(0.0160869 0 0.00770197)
(0 0 0)
(0.00943705 0 -9.92586e-05)
(0.0179599 0 -0.000190413)
(0.0253739 0 -0.000272536)
(0.0317909 0 -0.000347342)
(0.0373071 0 -0.000415986)
(0.0420056 0 -0.000479498)
(0.0459635 0 -0.00053849)
(0.0492482 0 -0.000593061)
(0.0519137 0 -0.000643046)
(0.0540068 0 -0.000687531)
(0.0555713 0 -0.000725266)
(0.0566449 0 -0.0007548)
(0.0572573 0 -0.000773863)
(0.0574338 0 -0.000779292)
(0.0571963 0 -0.000767344)
(0.056564 0 -0.000733244)
(0.0555532 0 -0.000670437)
(0.054179 0 -0.000570655)
(0.0524575 0 -0.00042368)
(0.0504055 0 -0.000216589)
(0.0480467 0 6.638e-05)
(0.0454199 0 0.000443645)
(0.0425814 0 0.000936707)
(0.0396238 0 0.00156878)
(0.0366851 0 0.00236181)
(0.0339586 0 0.00332997)
(0.0317263 0 0.00446734)
(0.0304247 0 0.00570148)
(0.0307542 0 0.00676752)
(0.0303288 0 0.00842298)
(0 0 0)
(0.00945495 0 -0.000132227)
(0.0179957 0 -0.000253683)
(0.025428 0 -0.000363099)
(0.0318641 0 -0.000462757)
(0.0374046 0 -0.000554351)
(0.0421355 0 -0.000639308)
(0.0461322 0 -0.000718404)
(0.0494623 0 -0.000791759)
(0.0521817 0 -0.000859087)
(0.054339 0 -0.000919514)
(0.0559811 0 -0.000971793)
(0.0571486 0 -0.00101411)
(0.0578749 0 -0.00104376)
(0.0581896 0 -0.00105714)
(0.0581192 0 -0.00104955)
(0.0576899 0 -0.00101535)
(0.056927 0 -0.000947158)
(0.0558563 0 -0.000835481)
(0.0545085 0 -0.000668956)
(0.0529187 0 -0.000433576)
(0.051128 0 -0.000112311)
(0.0491967 0 0.00031367)
(0.0472098 0 0.00086472)
(0.0452919 0 0.0015597)
(0.0436209 0 0.00240864)
(0.0424225 0 0.0034038)
(0.0419731 0 0.00450217)
(0.042584 0 0.00558212)
(0.0445845 0 0.00635584)
(0.0460434 0 0.00746235)
(0 0 0)
(0.00947539 0 -0.000165019)
(0.018038 0 -0.00031657)
(0.0254926 0 -0.000452988)
(0.0319546 0 -0.000577338)
(0.0375281 0 -0.000692014)
(0.0422995 0 -0.000798689)
(0.0463438 0 -0.000898197)
(0.04973 0 -0.000990792)
(0.0525162 0 -0.00107622)
(0.0547535 0 -0.00115368)
(0.056492 0 -0.00122207)
(0.0577756 0 -0.00127942)
(0.0586419 0 -0.00132287)
(0.0591258 0 -0.00134863)
(0.0592601 0 -0.00135176)
(0.0590781 0 -0.00132615)
(0.058614 0 -0.00126411)
(0.0579053 0 -0.00115607)
(0.0569986 0 -0.000991091)
(0.0559488 0 -0.000756101)
(0.0548188 0 -0.000435694)
(0.0536922 0 -1.39579e-05)
(0.0526816 0 0.000524109)
(0.0519348 0 0.00118815)
(0.0516439 0 0.0019729)
(0.0520302 0 0.00284709)
(0.0533154 0 0.00373776)
(0.055644 0 0.00450299)
(0.0589005 0 0.00490248)
(0.0617478 0 0.00547618)
(0 0 0)
(0.00949592 0 -0.000197491)
(0.0180822 0 -0.000378844)
(0.0255646 0 -0.000542177)
(0.0320608 0 -0.000691317)
(0.0376756 0 -0.000829129)
(0.042495 0 -0.000957518)
(0.0465946 0 -0.00107757)
(0.0500462 0 -0.00118989)
(0.0529104 0 -0.00129417)
(0.0552412 0 -0.00138982)
(0.0570922 0 -0.00147605)
(0.0585106 0 -0.00155088)
(0.0595384 0 -0.00161157)
(0.0602163 0 -0.00165454)
(0.0605853 0 -0.00167532)
(0.0606847 0 -0.00166772)
(0.0605564 0 -0.00162417)
(0.0602522 0 -0.00153665)
(0.0598332 0 -0.00139586)
(0.0593695 0 -0.001191)
(0.0589459 0 -0.000910811)
(0.0586679 0 -0.000544977)
(0.0586723 0 -8.69957e-05)
(0.0591213 0 0.000461308)
(0.0601899 0 0.00108144)
(0.0620585 0 0.00172648)
(0.0648573 0 0.00231229)
(0.0685206 0 0.00271105)
(0.0725262 0 0.00277307)
(0.0763472 0 0.00294863)
(0 0 0)
(0.00951588 0 -0.000229464)
(0.0181296 0 -0.000440386)
(0.0256468 0 -0.000630658)
(0.0321831 0 -0.000804641)
(0.0378436 0 -0.000965598)
(0.0427163 0 -0.00111566)
(0.0468792 0 -0.00125641)
(0.0504052 0 -0.00138883)
(0.0533567 0 -0.00151275)
(0.0557929 0 -0.00162793)
(0.05777 0 -0.00173381)
(0.0593378 0 -0.00182861)
(0.0605434 0 -0.00190997)
(0.0614334 0 -0.00197484)
(0.0620555 0 -0.00201955)
(0.062456 0 -0.00203864)
(0.0626861 0 -0.00202582)
(0.0628106 0 -0.00197544)
(0.0628998 0 -0.00188048)
(0.0630342 0 -0.00173347)
(0.0633179 0 -0.00152928)
(0.0638737 0 -0.00126498)
(0.0648479 0 -0.000942886)
(0.0663936 0 -0.00057447)
(0.068656 0 -0.000187386)
(0.071759 0 0.000166871)
(0.0757178 0 0.000413312)
(0.0802349 0 0.000469412)
(0.0844994 0 0.000283826)
(0.0888992 0 0.000153884)
(0 0 0)
(0.00954114 0 -0.00026102)
(0.0181856 0 -0.000501222)
(0.0257402 0 -0.000718214)
(0.0323196 0 -0.000916882)
(0.0380292 0 -0.00110094)
(0.0429597 0 -0.00127293)
(0.0471925 0 -0.00143481)
(0.0508004 0 -0.00158774)
(0.0538486 0 -0.00173211)
(0.0564001 0 -0.00186819)
(0.0585133 0 -0.00199544)
(0.0602415 0 -0.00211259)
(0.0616362 0 -0.00221784)
(0.062749 0 -0.00230888)
(0.0636327 0 -0.00238292)
(0.0643409 0 -0.00243613)
(0.0649348 0 -0.00246454)
(0.0654865 0 -0.0024649)
(0.0660727 0 -0.00243344)
(0.0667829 0 -0.00236731)
(0.0677289 0 -0.00226725)
(0.0690389 0 -0.00213787)
(0.0708475 0 -0.00198867)
(0.0732834 0 -0.00183779)
(0.0764604 0 -0.0017169)
(0.080435 0 -0.00167063)
(0.0850957 0 -0.00174713)
(0.0899571 0 -0.00196851)
(0.0940894 0 -0.00230622)
(0.0986504 0 -0.0026367)
(0 0 0)
(0.0095707 0 -0.000292044)
(0.0182489 0 -0.000561023)
(0.0258429 0 -0.000804302)
(0.032468 0 -0.00102733)
(0.0382303 0 -0.00123433)
(0.043223 0 -0.00142834)
(0.0475294 0 -0.00161163)
(0.0512242 0 -0.00178562)
(0.0543759 0 -0.00195128)
(0.0570495 0 -0.00210922)
(0.0593052 0 -0.00225925)
(0.0611998 0 -0.00240069)
(0.0627888 0 -0.00253246)
(0.0641276 0 -0.00265316)
(0.0652725 0 -0.002761)
(0.0662839 0 -0.00285431)
(0.0672304 0 -0.00293189)
(0.0681864 0 -0.00299281)
(0.0692319 0 -0.00303703)
(0.0704601 0 -0.00306685)
(0.0719757 0 -0.00308749)
(0.0738931 0 -0.003109)
(0.0763262 0 -0.00314672)
(0.0793753 0 -0.00322254)
(0.0831097 0 -0.00336559)
(0.0875095 0 -0.00360458)
(0.0923584 0 -0.0039511)
(0.0971062 0 -0.00437503)
(0.100858 0 -0.00479382)
(0.105224 0 -0.00524405)
(0 0 0)
(0.00960349 0 -0.00032237)
(0.0183176 0 -0.000619475)
(0.0259526 0 -0.000888472)
(0.0326252 0 -0.0011354)
(0.0384427 0 -0.00136498)
(0.0435004 0 -0.00158075)
(0.0478833 0 -0.00178535)
(0.0516685 0 -0.00198064)
(0.0549267 0 -0.00216799)
(0.0577245 0 -0.00234829)
(0.0601243 0 -0.00252191)
(0.0621858 0 -0.00268883)
(0.0639672 0 -0.00284879)
(0.065527 0 -0.00300141)
(0.0669243 0 -0.00314624)
(0.068224 0 -0.0032837)
(0.0694976 0 -0.00341509)
(0.0708164 0 -0.00354164)
(0.0722572 0 -0.0036664)
(0.073908 0 -0.00379589)
(0.0758585 0 -0.00393928)
(0.0781994 0 -0.00411008)
(0.0810153 0 -0.00432672)
(0.0843661 0 -0.00461081)
(0.0882636 0 -0.0049835)
(0.0926239 0 -0.00545487)
(0.0971912 0 -0.00600557)
(0.101466 0 -0.00656992)
(0.104689 0 -0.00703019)
(0.108596 0 -0.00755474)
(0 0 0)
(0.00963856 0 -0.000351875)
(0.01839 0 -0.000676343)
(0.0260671 0 -0.000970375)
(0.0327881 0 -0.00124061)
(0.0386621 0 -0.00149227)
(0.043786 0 -0.00172936)
(0.0482466 0 -0.00195492)
(0.0521229 0 -0.00217124)
(0.0554875 0 -0.00238006)
(0.0584083 0 -0.00258269)
(0.0609495 0 -0.00278002)
(0.0631727 0 -0.0029727)
(0.065138 0 -0.0031613)
(0.0669057 0 -0.00334648)
(0.0685367 0 -0.00352922)
(0.0700959 0 -0.00371147)
(0.071652 0 -0.00389624)
(0.0732715 0 -0.00408697)
(0.0750237 0 -0.00428925)
(0.0769831 0 -0.00451214)
(0.0792198 0 -0.00476742)
(0.0817958 0 -0.00507028)
(0.0847554 0 -0.00543866)
(0.0881098 0 -0.00589048)
(0.0918166 0 -0.00643781)
(0.0957515 0 -0.00707573)
(0.0996743 0 -0.00776638)
(0.103199 0 -0.00842357)
(0.105778 0 -0.00890896)
(0.108948 0 -0.0094865)
(0 0 0)
(0.00967465 0 -0.000380292)
(0.0184639 0 -0.000731107)
(0.0261829 0 -0.00104924)
(0.0329522 0 -0.00134193)
(0.0388824 0 -0.00161489)
(0.0440721 0 -0.00187256)
(0.0486095 0 -0.00211838)
(0.0525752 0 -0.00235504)
(0.056043 0 -0.00258467)
(0.059082 0 -0.00280897)
(0.0617575 0 -0.00302935)
(0.0641321 0 -0.00324709)
(0.0662668 0 -0.0034635)
(0.0682219 0 -0.00368016)
(0.0700581 0 -0.00389916)
(0.0718372 0 -0.00412355)
(0.0736219 0 -0.00435745)
(0.0754726 0 -0.00460615)
(0.0774485 0 -0.00487695)
(0.0796055 0 -0.00517983)
(0.0819899 0 -0.00552706)
(0.0846312 0 -0.00593305)
(0.087533 0 -0.00641291)
(0.0906596 0 -0.00697928)
(0.0939243 0 -0.00763647)
(0.0971796 0 -0.00837104)
(0.100219 0 -0.00913848)
(0.102793 0 -0.00984817)
(0.104615 0 -0.0103545)
(0.106797 0 -0.010969)
(0 0 0)
(0.00971024 0 -0.000407359)
(0.0185364 0 -0.000783257)
(0.0262963 0 -0.00112434)
(0.0331125 0 -0.00143839)
(0.0390974 0 -0.0017316)
(0.0443508 0 -0.00200883)
(0.0489623 0 -0.0022739)
(0.0530134 0 -0.00252985)
(0.0565788 0 -0.00277918)
(0.0597283 0 -0.00302397)
(0.0625276 0 -0.0032661)
(0.0650396 0 -0.00350735)
(0.0673248 0 -0.00374966)
(0.0694424 0 -0.00399531)
(0.0714509 0 -0.00424717)
(0.0734075 0 -0.00450902)
(0.0753679 0 -0.00478569)
(0.0773837 0 -0.00508327)
(0.0795009 0 -0.00540951)
(0.0817568 0 -0.005774)
(0.0841734 0 -0.00618771)
(0.0867502 0 -0.00666224)
(0.0894554 0 -0.00720815)
(0.0922168 0 -0.00783195)
(0.094916 0 -0.00853165)
(0.0973924 0 -0.00929067)
(0.0994681 0 -0.0100693)
(0.101 0 -0.0107907)
(0.101953 0 -0.0113179)
(0.102941 0 -0.0119458)
(0 0 0)
(0.00974393 0 -0.000432924)
(0.0186051 0 -0.00083251)
(0.0264038 0 -0.00119524)
(0.0332648 0 -0.00152943)
(0.0393018 0 -0.00184172)
(0.0446158 0 -0.00213733)
(0.0492972 0 -0.00242043)
(0.0534282 0 -0.0026944)
(0.057084 0 -0.00296204)
(0.0603345 0 -0.00322578)
(0.0632452 0 -0.00348785)
(0.0658783 0 -0.00375045)
(0.0682931 0 -0.00401596)
(0.0705466 0 -0.00428712)
(0.0726935 0 -0.00456723)
(0.0747857 0 -0.00486038)
(0.0768711 0 -0.00517157)
(0.0789912 0 -0.00550682)
(0.0811789 0 -0.00587326)
(0.0834543 0 -0.00627892)
(0.0858186 0 -0.00673212)
(0.0882481 0 -0.00724034)
(0.090687 0 -0.00780849)
(0.0930419 0 -0.00843636)
(0.0951808 0 -0.00911578)
(0.0969432 0 -0.00982822)
(0.0981692 0 -0.0105435)
(0.0987619 0 -0.0112164)
(0.098829 0 -0.0117565)
(0.0981584 0 -0.0124576)
(0 0 0)
(0.00977477 0 -0.000457121)
(0.0186683 0 -0.000879097)
(0.0265032 0 -0.00126228)
(0.0334064 0 -0.00161548)
(0.0394926 0 -0.00194573)
(0.0448635 0 -0.00225859)
(0.0496104 0 -0.00255854)
(0.0538156 0 -0.00284923)
(0.0575543 0 -0.00313375)
(0.060896 0 -0.00341479)
(0.0639055 0 -0.00369486)
(0.0666436 0 -0.00397643)
(0.0691676 0 -0.00426214)
(0.0715314 0 -0.00455493)
(0.0737853 0 -0.00485822)
(0.0759753 0 -0.00517602)
(0.0781412 0 -0.00551298)
(0.0803148 0 -0.00587435)
(0.082517 0 -0.00626585)
(0.0847539 0 -0.00669319)
(0.0870117 0 -0.00716125)
(0.0892523 0 -0.00767281)
(0.0914093 0 -0.00822678)
(0.0933856 0 -0.00881588)
(0.0950574 0 -0.00942441)
(0.0962862 0 -0.0100261)
(0.0969451 0 -0.0105831)
(0.0969668 0 -0.0110432)
(0.096457 0 -0.0113175)
(0.0932065 0 -0.0126953)
(0 0 0)
(0.0101508 0 0)
(0.01736 0 0)
(0.0262903 0 0)
(0.0352426 0 0)
(0.043306 0 0)
(0.0502028 0 0)
(0.0559245 0 0)
(0.0605627 0 0)
(0.0642442 0 0)
(0.0670912 0 0)
(0.0692155 0 0)
(0.0707023 0 0)
(0.0716122 0 0)
(0.0719899 0 0)
(0.0718652 0 0)
(0.0712544 0 0)
(0.0701619 0 0)
(0.0685821 0 0)
(0.0665022 0 0)
(0.0638979 0 0)
(0.0607372 0 0)
(0.0569895 0 0)
(0.052618 0 0)
(0.0475705 0 0)
(0.0417886 0 0)
(0.035218 0 0)
(0.0278002 0 0)
(0.0194643 0 0)
(0.0101329 0 0)
(0 0 0)
(0.00461188 0 -0.00536095)
(0.0130384 0 -0.00464204)
(0.0200038 0 -0.00447491)
(0.0285232 0 -0.00409749)
(0.0370246 0 -0.00363336)
(0.0446922 0 -0.003156)
(0.0512716 0 -0.00271701)
(0.0567415 0 -0.00233319)
(0.061183 0 -0.00200305)
(0.0647154 0 -0.00172139)
(0.0674518 0 -0.00148439)
(0.0694928 0 -0.00128799)
(0.0709156 0 -0.00112478)
(0.071777 0 -0.000987416)
(0.0721178 0 -0.000869599)
(0.0719649 0 -0.000768811)
(0.0713325 0 -0.000682934)
(0.0702231 0 -0.000608515)
(0.06863 0 -0.00054316)
(0.066539 0 -0.000485086)
(0.0639259 0 -0.000433215)
(0.0607593 0 -0.000385734)
(0.0570074 0 -0.000341042)
(0.0526329 0 -0.000298673)
(0.0475833 0 -0.000257651)
(0.0417983 0 -0.000217347)
(0.0352249 0 -0.000177244)
(0.027806 0 -0.000136367)
(0.0194688 0 -9.36719e-05)
(0.0101348 0 -4.81822e-05)
(0 0 0)
(0.0144245 0 -0.00953796)
(0.0210232 0 -0.00873357)
(0.0273372 0 -0.00840835)
(0.0347358 0 -0.00770781)
(0.0420219 0 -0.00685492)
(0.0486117 0 -0.00598303)
(0.0543059 0 -0.00517261)
(0.0590696 0 -0.00445784)
(0.062962 0 -0.00384218)
(0.0660752 0 -0.00331724)
(0.0684955 0 -0.00287384)
(0.0702967 0 -0.00250149)
(0.071536 0 -0.00218907)
(0.0722575 0 -0.00192593)
(0.0724918 0 -0.00170121)
(0.0722574 0 -0.00150849)
(0.0715619 0 -0.0013427)
(0.0704032 0 -0.00119833)
(0.0687714 0 -0.00107106)
(0.066649 0 -0.000957491)
(0.0640108 0 -0.000855181)
(0.0608259 0 -0.000761355)
(0.0570601 0 -0.000673522)
(0.0526751 0 -0.000590273)
(0.0476174 0 -0.000510001)
(0.0418249 0 -0.000430933)
(0.0352451 0 -0.000351618)
(0.0278232 0 -0.00027065)
(0.0194824 0 -0.000186028)
(0.0101405 0 -9.57212e-05)
(0 0 0)
(0.0279222 0 -0.0128976)
(0.0325948 0 -0.0119981)
(0.0379276 0 -0.0115078)
(0.0437406 0 -0.0105585)
(0.0493525 0 -0.00943112)
(0.0544334 0 -0.00828526)
(0.0588552 0 -0.00721083)
(0.062593 0 -0.00625373)
(0.0656829 0 -0.00542472)
(0.0681751 0 -0.00471435)
(0.0701187 0 -0.00411018)
(0.0715545 0 -0.00359752)
(0.072513 0 -0.00316224)
(0.0730186 0 -0.00279243)
(0.0730872 0 -0.00247622)
(0.0727247 0 -0.00220369)
(0.0719295 0 -0.00196716)
(0.0706928 0 -0.00175983)
(0.0689995 0 -0.00157605)
(0.0668279 0 -0.00141112)
(0.0641504 0 -0.00126145)
(0.0609349 0 -0.00112376)
(0.057145 0 -0.000994999)
(0.0527397 0 -0.000872768)
(0.0476666 0 -0.000754935)
(0.0418642 0 -0.000638592)
(0.0352761 0 -0.00052136)
(0.0278478 0 -0.00040152)
(0.0195019 0 -0.000276263)
(0.0101516 0 -0.00014231)
(0 0 0)
(0.0433156 0 -0.0153641)
(0.0461678 0 -0.0143575)
(0.0502407 0 -0.0136899)
(0.054249 0 -0.0125675)
(0.0580069 0 -0.0112819)
(0.0613976 0 -0.00998719)
(0.0643723 0 -0.00876785)
(0.0669237 0 -0.00767004)
(0.0690676 0 -0.00670917)
(0.0708156 0 -0.00587797)
(0.0721801 0 -0.00516397)
(0.0731665 0 -0.00455214)
(0.073776 0 -0.00402676)
(0.0740105 0 -0.00357506)
(0.073868 0 -0.0031853)
(0.0733406 0 -0.0028466)
(0.0724158 0 -0.00255007)
(0.0710771 0 -0.00228811)
(0.0693032 0 -0.00205431)
(0.0670671 0 -0.00184301)
(0.0643377 0 -0.00165002)
(0.0610807 0 -0.00147181)
(0.0572578 0 -0.00130469)
(0.0528251 0 -0.00114554)
(0.0477316 0 -0.000991596)
(0.041916 0 -0.000839383)
(0.0353157 0 -0.000685805)
(0.0278746 0 -0.000528419)
(0.0195206 0 -0.000363822)
(0.0101648 0 -0.000187599)
(0 0 0)
(0.0591095 0 -0.016899)
(0.0602959 0 -0.015763)
(0.0629412 0 -0.0149473)
(0.0651246 0 -0.0137409)
(0.0670511 0 -0.0124092)
(0.0687734 0 -0.0110839)
(0.0703086 0 -0.00983328)
(0.0716591 0 -0.00869463)
(0.0728224 0 -0.00768307)
(0.0737851 0 -0.0067959)
(0.0745257 0 -0.00602329)
(0.0750193 0 -0.00535271)
(0.0752414 0 -0.00476986)
(0.0751715 0 -0.00426221)
(0.0747886 0 -0.00381864)
(0.0740711 0 -0.00342896)
(0.0729956 0 -0.00308433)
(0.0715371 0 -0.00277712)
(0.0696682 0 -0.00250078)
(0.0673561 0 -0.00224928)
(0.0645644 0 -0.00201793)
(0.061257 0 -0.001803)
(0.057394 0 -0.00160055)
(0.0529288 0 -0.00140696)
(0.0478101 0 -0.00121888)
(0.0419759 0 -0.00103261)
(0.0353601 0 -0.000844431)
(0.0279039 0 -0.000650989)
(0.0195397 0 -0.000448356)
(0.0101778 0 -0.000231302)
(0 0 0)
(0.0741324 0 -0.017381)
(0.0737666 0 -0.0161922)
(0.0749592 0 -0.0153126)
(0.0754614 0 -0.014134)
(0.0757268 0 -0.0128696)
(0.0759457 0 -0.0116204)
(0.0761755 0 -0.0104364)