/*--------------------------------*- C++ -*----------------------------------*\
| =========                 |                                                 |
| \\      /  F ield         | OpenFOAM: The Open Source CFD Toolbox           |
|  \\    /   O peration     | Version:  dev                                   |
|   \\  /    A nd           | Web:      www.OpenFOAM.org                      |
|    \\/     M anipulation  |                                                 |
\*---------------------------------------------------------------------------*/
FoamFile
{
    version     2.0;
    format      ascii;
    class       volScalarField;
    location    "4.3";
    object      p;
}
// * * * * * * * * * * * * * * * * * * * * * * * * * * * * * * * * * * * * * //

dimensions      [0 2 -2 0 0 0 0];

internalField   nonuniform List<scalar> 
465
(
139.964
139.838
140.05
140.585
141.34
142.263
143.349
144.598
146.007
147.571
149.285
151.143
153.136
155.256
157.489
159.819
162.225
164.677
167.141
169.574
171.927
139.781
139.753
139.987
140.52
141.272
142.193
143.274
144.517
145.919
147.475
149.18
151.027
153.01
155.119
157.341
159.66
162.056
164.5
166.96
169.394
171.754
139.595
139.637
139.89
140.414
141.153
142.062
143.129
144.354
145.736
147.269
148.947
150.765
152.714
154.785
156.967
159.243
161.594
163.994
166.411
168.807
171.137
139.388
139.464
139.728
140.243
140.969
141.862
142.91
144.113
145.468
146.969
148.611
150.387
152.289
154.308
156.432
158.645
160.928
163.257
165.604
167.934
170.207
139.151
139.243
139.516
140.023
140.733
141.606
142.63
143.804
145.123
146.584
148.179
149.902
151.744
153.696
155.746
157.879
160.076
162.315
164.57
166.812
169.005
138.88
138.978
139.254
139.752
140.442
141.291
142.285
143.423
144.701
146.113
147.653
149.313
151.084
152.957
154.919
156.956
159.051
161.182
163.327
165.459
167.549
138.573
138.672
138.946
139.431
140.1
140.92
141.88
142.977
144.206
145.562
147.037
148.624
150.314
152.096
153.958
155.885
157.862
159.869
161.884
163.885
165.848
138.229
138.327
138.594
139.064
139.708
140.496
141.416
142.466
143.641
144.933
146.336
147.841
149.439
151.119
152.869
154.673
156.517
158.381
160.247
162.093
163.9
137.848
137.943
138.2
138.652
139.269
140.021
140.897
141.895
143.009
144.232
145.555
146.97
148.467
150.034
151.659
153.327
155.022
156.726
158.42
160.086
161.704
137.432
137.522
137.766
138.197
138.784
139.497
140.326
141.267
142.315
143.462
144.699
146.016
147.403
148.848
150.337
151.856
153.387
154.912
156.412
157.868
159.261
136.983
137.065
137.295
137.702
138.256
138.927
139.705
140.586
141.563
142.629
143.773
144.986
146.256
147.569
148.913
150.269
151.621
152.949
154.232
155.449
156.576
136.5
136.576
136.789
137.171
137.689
138.316
139.039
139.856
140.759
141.738
142.785
143.887
145.032
146.207
147.395
148.579
149.739
150.852
151.896
152.843
153.666
135.987
136.055
136.25
136.604
137.086
137.665
138.332
139.081
139.906
140.796
141.74
142.727
143.742
144.771
145.797
146.798
147.754
148.638
149.423
150.075
150.558
135.446
135.505
135.681
136.006
136.449
136.979
137.587
138.266
139.01
139.807
140.646
141.513
142.395
143.273
144.13
144.942
145.685
146.329
146.839
147.176
147.29
134.878
134.928
135.084
135.379
135.781
136.261
136.808
137.416
138.076
138.779
139.509
140.255
140.999
141.724
142.408
143.026
143.551
143.948
144.176
144.186
143.916
134.45
134.713
135.073
135.501
135.985
136.518
137.093
137.697
138.316
138.936
139.539
140.106
140.612
141.032
141.334
141.477
141.417
141.093
140.432
134.001
134.318
134.69
135.108
135.564
136.05
136.552
137.056
137.547
138.005
138.409
138.735
138.953
139.027
138.915
138.566
137.912
136.868
133.52
133.836
134.186
134.563
134.957
135.355
135.743
136.102
136.413
136.654
136.798
136.814
136.664
136.303
135.674
134.707
133.311
132.941
133.222
133.518
133.82
134.113
134.382
134.609
134.774
134.853
134.819
134.638
134.271
133.672
132.783
131.533
129.832
132.219
132.434
132.642
132.83
132.982
133.079
133.1
133.02
132.813
132.444
131.873
131.055
129.932
128.437
126.486
131.315
131.431
131.515
131.551
131.52
131.401
131.17
130.798
130.252
129.495
128.48
127.155
125.457
123.312
130.174
130.097
129.943
129.69
129.315
128.79
128.083
127.157
125.971
124.477
122.619
120.335
128.63
128.358
127.979
127.47
126.804
125.952
124.88
123.549
121.919
119.942
117.566
126.279
125.648
124.856
123.876
122.679
121.231
119.496
117.436
115.011
122.956
121.868
120.567
119.026
117.216
115.106
112.667
119.938
118.554
116.944
115.084
112.951
110.524
114.988
113.1
110.967
108.573
109.145
106.8
)
;

boundaryField
{
    inlet
    {
        type            zeroGradient;
    }
    outlet
    {
        type            fixedValue;
        value           nonuniform 0();
    }
    flap
    {
        type            zeroGradient;
    }
    upperWall
    {
        type            zeroGradient;
    }
    lowerWall
    {
        type            zeroGradient;
    }
    frontAndBack
    {
        type            empty;
    }
    procBoundary3to0
    {
        type            processor;
        value           nonuniform List<scalar> 
34
(
134.274
134.315
134.315
133.772
133.772
133.25
133.25
132.683
132.683
132.008
132.008
131.181
131.181
130.167
130.191
130.191
128.814
128.814
127.157
126.775
126.775
124.602
123.86
123.86
121.118
121.118
118.094
116.646
116.646
113.159
111.262
111.262
107.479
105.192
)
;
    }
    procBoundary3to1
    {
        type            processor;
        value           nonuniform List<scalar> 9(123.978 120.636 117.556 114.74 112.183 109.869 107.784 105.907 104.22);
    }
    procBoundary3to4
    {
        type            processor;
        value           nonuniform List<scalar> 
19
(
174.142
173.982
173.35
172.378
171.112
169.568
167.749
165.649
163.258
160.572
157.594
154.336
150.828
147.122
143.285
139.333
135.321
131.369
127.567
)
;
    }
}


// ************************************************************************* //
