/*--------------------------------*- C++ -*----------------------------------*\
| =========                 |                                                 |
| \\      /  F ield         | OpenFOAM: The Open Source CFD Toolbox           |
|  \\    /   O peration     | Version:  dev                                   |
|   \\  /    A nd           | Web:      www.OpenFOAM.org                      |
|    \\/     M anipulation  |                                                 |
\*---------------------------------------------------------------------------*/
FoamFile
{
    version     2.0;
    format      ascii;
    class       surfaceVectorField;
    location    "3.32";
    object      Uf;
}
// * * * * * * * * * * * * * * * * * * * * * * * * * * * * * * * * * * * * * //

dimensions      [0 1 -1 0 0 0 0];

internalField   nonuniform List<vector> 
5457
(
(9.91553 -5.9974e-22 0.0242067)
(9.97577 -1.19722e-21 0.0392252)
(9.81566 7.19198e-23 0.031915)
(9.92914 6.22206e-22 0.0476931)
(9.69846 6.34377e-22 0.0383675)
(9.8509 4.83065e-22 0.0576326)
(9.56215 1.7492e-21 0.0449319)
(9.75027 -5.65508e-21 0.0690263)
(9.40689 2.58383e-22 0.0516583)
(9.63081 1.30402e-20 0.0809379)
(9.23306 1.60638e-21 0.0586025)
(9.49238 -1.38031e-21 0.0932831)
(9.04059 -3.289e-21 0.0659128)
(9.33445 -1.42107e-21 0.106296)
(8.82908 -2.82667e-21 0.0737387)
(9.15664 -6.12136e-21 0.120215)
(8.59784 3.11689e-21 0.0822097)
(8.95849 3.16167e-21 0.135236)
(8.34602 -1.74037e-21 0.0914472)
(8.73931 -3.27603e-21 0.151536)
(8.0726 1.19889e-22 0.101574)
(8.49816 2.74105e-20 0.16929)
(7.77643 1.76168e-21 0.112717)
(8.23397 -3.17157e-20 0.188673)
(7.45627 0 0.125002)
(7.94553 0 0.209855)
(7.11082 4.11066e-21 0.138554)
(7.63156 7.68312e-21 0.232989)
(6.73877 2.13048e-20 0.153486)
(7.29072 5.51271e-23 0.258197)
(6.33894 -1.90715e-20 0.169883)
(6.92172 1.70697e-20 0.285544)
(5.91033 -5.41302e-20 0.187791)
(6.52336 -3.54249e-20 0.315002)
(5.45233 2.02614e-20 0.207185)
(6.0947 -1.8914e-20 0.346411)
(4.96486 3.79216e-20 0.227949)
(5.63522 5.74832e-20 0.379424)
(4.44863 0 0.249829)
(5.14499 0 0.41345)
(3.90544 0 0.272374)
(4.62497 1.67332e-19 0.447572)
(3.33848 0 0.294864)
(4.07725 3.46907e-19 0.480432)
(2.75278 -1.21396e-20 0.316205)
(3.50548 -1.79793e-19 0.510136)
(2.1557 7.54918e-22 0.33473)
(2.91528 -1.89338e-19 0.534121)
(1.55756 2.53528e-20 0.347768)
(2.3148 -2.51946e-20 0.548926)
(0.972692 1.27647e-20 0.350367)
(1.71542 2.02135e-19 0.549827)
(0.420998 0 0.318804)
(1.13544 0 0.530012)
(-0.0542536 1.3969e-20 0.0873696)
(0.571483 0 0.463419)
(-0.235767 1.36685e-20 -0.218173)
(0.0836245 -4.11934e-19 0.177087)
(0.114964 -2.88025e-20 -0.238035)
(9.99776 5.64358e-23 0.0505016)
(10.0036 -1.13568e-21 0.0402669)
(9.95975 1.02836e-21 0.0692856)
(9.98309 1.20924e-21 0.0658467)
(9.89905 -5.89612e-21 0.0859418)
(9.93479 -5.1493e-21 0.087485)
(9.81745 5.90894e-21 0.103305)
(9.86489 -6.95234e-22 0.110349)
(9.71507 1.11893e-20 0.121462)
(9.77568 1.06324e-20 0.134317)
(9.59207 -4.41116e-21 0.140483)
(9.66715 3.91076e-23 0.159294)
(9.4484 -4.32167e-21 0.160675)
(9.53897 -5.84949e-21 0.185654)
(9.28369 0 0.182368)
(9.39091 -3.03202e-21 0.213844)
(9.09731 -3.3224e-21 0.205849)
(9.22259 0 0.244254)
(8.88845 2.63096e-20 0.231388)
(9.03338 -6.17697e-24 0.277244)
(8.65612 -5.26272e-21 0.259248)
(8.82246 5.64284e-20 0.313173)
(8.39917 -3.30363e-20 0.28969)
(8.58884 -5.802e-20 0.352402)
(8.11636 7.79097e-21 0.322962)
(8.33139 0 0.395284)
(7.80634 3.50784e-21 0.359275)
(8.04887 7.6486e-21 0.442151)
(7.46775 -3.9561e-21 0.398777)
(7.73999 3.93189e-21 0.493273)
(7.09928 0 0.44151)
(7.40338 6.68324e-20 0.548818)
(6.69976 0 0.487349)
(7.03777 -6.87189e-20 0.608785)
(6.26834 1.92951e-20 0.535933)
(6.642 0 0.672913)
(5.80465 1.8772e-20 0.586588)
(6.21521 1.00021e-22 0.74058)
(5.30903 1.69605e-19 0.638215)
(5.75699 0 0.810687)
(4.78281 5.17137e-19 0.689142)
(5.26762 3.32169e-19 0.881479)
(4.22868 1.60881e-19 0.736964)
(4.74833 5.16596e-19 0.950312)
(3.65117 -3.56866e-19 0.778345)
(4.20166 -5.81179e-19 1.01341)
(3.0572 -2.14068e-19 0.80868)
(3.63191 -1.8048e-19 1.06557)
(2.45701 1.5285e-19 0.821358)
(3.04572 3.67703e-19 1.09952)
(1.86599 1.86972e-19 0.805779)
(2.45263 5.86473e-19 1.10456)
(1.30957 0 0.738817)
(1.86725 -4.08499e-19 1.06246)
(0.824632 -4.28464e-19 0.571221)
(1.29661 4.22218e-19 0.933048)
(0.334557 -4.75362e-19 0.18898)
(0.766024 -8.84329e-19 0.65118)
(0.42444 -3.02545e-21 0.0975788)
(9.99035 5.60604e-23 0.0582858)
(10.0013 -1.89217e-23 0.0447516)
(9.95562 -5.06174e-21 0.0872701)
(9.97818 0 0.0824315)
(9.89862 1.15291e-22 0.114722)
(9.93094 1.5143e-22 0.115523)
(9.82217 4.19393e-21 0.143383)
(9.8642 3.41757e-22 0.149068)
(9.72683 -6.74864e-22 0.173532)
(9.77911 -6.84749e-22 0.184033)
(9.6127 -1.48638e-21 0.205317)
(9.67568 0 0.220548)
(9.47978 -4.51983e-21 0.239158)
(9.55387 2.19997e-20 0.259079)
(9.32784 -2.98918e-21 0.275538)
(9.4136 -2.41036e-20 0.300224)
(9.15639 3.31392e-21 0.314909)
(9.25464 -2.8338e-20 0.344548)
(8.96478 3.09046e-20 0.357711)
(9.07654 -2.31602e-20 0.392582)
(8.75217 2.04983e-21 0.404383)
(8.87865 1.35355e-19 0.444856)
(8.51757 -2.41755e-20 0.455367)
(8.66021 -8.0315e-20 0.501906)
(8.25989 -1.97313e-23 0.511089)
(8.42031 0 0.564267)
(7.97789 8.0364e-21 0.571929)
(8.15794 -7.61914e-21 0.632452)
(7.67027 7.56018e-20 0.638176)
(7.87201 3.42815e-23 0.706908)
(7.33569 -3.72038e-21 0.709957)
(7.56134 8.32516e-20 0.787955)
(6.97287 -6.77779e-20 0.787144)
(7.22475 8.63211e-20 0.875702)
(6.58065 -1.91144e-20 0.869234)
(6.86106 -1.41781e-19 0.969914)
(6.15814 -1.85994e-20 0.955216)
(6.46918 -1.88592e-20 1.06986)
(5.70492 1.6704e-19 1.04339)
(6.04825 2.73265e-19 1.17417)
(5.22124 3.34914e-19 1.13111)
(5.5978 2.09076e-19 1.28056)
(4.70832 -2.39103e-19 1.21447)
(5.11791 5.45279e-19 1.38547)
(4.16874 -4.00767e-19 1.288)
(4.60933 -6.71089e-21 1.48369)
(3.60693 4.06125e-19 1.34413)
(4.07392 -3.6417e-19 1.56795)
(3.02963 8.03069e-19 1.37219)
(3.51494 7.82997e-19 1.62813)
(2.4463 -1.90101e-20 1.35634)
(2.93686 5.82069e-20 1.64984)
(1.86753 2.08073e-20 1.27019)
(2.34544 3.48003e-19 1.61208)
(1.29435 -4.97226e-20 1.0767)
(1.74272 -1.23804e-18 1.48192)
(0.697019 -4.24788e-19 0.734198)
(1.10799 4.20898e-19 1.22312)
(0.61056 2.82923e-20 0.763105)
(9.98607 -7.47627e-23 0.0694391)
(10 -7.58219e-23 0.0512215)
(9.9515 5.21572e-21 0.11006)
(9.97512 0 0.0989478)
(9.89554 3.76375e-22 0.149098)
(9.92781 1.53983e-20 0.143056)
(9.8204 -4.55259e-21 0.188939)
(9.86234 -1.58166e-20 0.187135)
(9.72698 0 0.230345)
(9.77907 -1.36084e-21 0.232753)
(9.61552 2.38015e-20 0.273749)
(9.67792 2.26006e-20 0.280389)
(9.48607 1.75239e-21 0.319743)
(9.559 -2.31251e-20 0.330607)
(9.33854 -4.95161e-20 0.368987)
(9.42237 2.93566e-21 0.384116)
(9.17265 -5.47357e-20 0.422113)
(9.26791 -1.8983e-20 0.441622)
(8.98795 8.35275e-20 0.479741)
(9.09531 -2.64323e-20 0.503796)
(8.78385 4.99683e-20 0.542487)
(8.9041 1.08073e-19 0.571308)
(8.55968 -5.50234e-20 0.610973)
(8.69374 -6.27633e-20 0.644832)
(8.31461 -7.70294e-21 0.685811)
(8.46357 1.31039e-19 0.725048)
(8.04777 -1.55109e-20 0.76757)
(8.21285 -1.27286e-19 0.812623)
(7.75817 8.832e-21 0.856719)
(7.94078 -7.91037e-21 0.90816)
(7.44477 1.73394e-19 0.953551)
(7.64649 8.39421e-23 1.01213)
(7.1065 9.3309e-21 1.05806)
(7.32906 1.21236e-19 1.12478)
(6.74225 -1.39877e-19 1.1698)
(6.98752 -1.41836e-19 1.24602)
(6.35099 2.76997e-19 1.28767)
(6.62081 0 1.37515)
(5.93186 3.14986e-19 1.40973)
(6.22788 6.18913e-19 1.51074)
(5.48426 4.24816e-19 1.53284)
(5.8078 -3.11133e-19 1.65032)
(5.00794 7.70647e-19 1.65224)
(5.35972 6.66178e-19 1.79001)
(4.50319 2.52354e-20 1.76113)
(4.88268 5.39318e-20 1.92389)
(3.97107 2.52686e-20 1.8501)
(4.37598 -1.07549e-18 2.04366)
(3.41325 3.04682e-20 1.90628)
(3.83914 1.06571e-18 2.13802)
(2.83119 4.27826e-19 1.91215)
(3.27131 -3.87121e-19 2.19184)
(2.22344 -9.25393e-19 1.84335)
(2.67042 8.05451e-19 2.18559)
(1.57986 -7.5491e-19 1.67314)
(2.03333 -7.90896e-19 2.09365)
(0.871465 8.67718e-19 1.36993)
(1.31969 8.57414e-19 1.8972)
(0.694627 -1.73717e-18 1.54078)
(9.98405 0 0.0813886)
(9.99946 0 0.0586337)
(9.94916 1.04089e-20 0.132226)
(9.97365 0 0.115616)
(9.89419 -1.25936e-21 0.181645)
(9.92647 2.04903e-20 0.17011)
(9.82048 -1.2416e-20 0.231761)
(9.86233 -1.0494e-20 0.224485)
(9.729 2.1585e-20 0.283723)
(9.78108 1.09533e-20 0.280481)
(9.62004 -2.49867e-20 0.338225)
(9.68242 -2.22941e-20 0.338901)
(9.4937 -2.15764e-20 0.395981)
(9.56653 -2.34785e-20 0.400444)
(9.3499 3.3166e-20 0.457753)
(9.43354 1.80234e-20 0.465913)
(9.18847 9.22873e-21 0.524291)
(9.2834 3.13845e-21 0.536128)
(9.00905 0 0.596325)
(9.11584 6.42439e-21 0.611877)
(8.81123 -7.05473e-21 0.674585)
(8.93051 -5.36768e-20 0.693942)
(8.59447 1.26006e-19 0.759804)
(8.72698 6.88711e-20 0.783107)
(8.35821 7.91086e-21 0.852718)
(8.50474 2.3232e-19 0.880162)
(8.10178 -1.18063e-19 0.954026)
(8.26323 -2.38386e-19 0.985898)
(7.82448 -1.65448e-20 1.06433)
(8.00185 0 1.10104)
(7.52555 -5.0437e-20 1.18406)
(7.71991 -1.45979e-19 1.22618)
(7.20417 -3.3418e-20 1.31336)
(7.41673 1.15934e-19 1.36171)
(6.85944 0 1.45192)
(7.09152 3.46415e-20 1.5077)
(6.49031 3.50184e-19 1.5987)
(6.74334 0 1.66363)
(6.09571 -1.86691e-20 1.75179)
(6.37102 3.45691e-19 1.82816)
(5.67446 -5.65546e-20 1.90801)
(5.97325 -3.94338e-19 1.99895)
(5.22515 -5.79688e-20 2.06242)
(5.54848 -7.15921e-20 2.17227)
(4.74603 -1.06024e-18 2.20779)
(5.0945 -3.41057e-19 2.34233)
(4.23509 -1.07003e-20 2.33418)
(4.60842 -1.41456e-18 2.50075)
(3.68963 6.3236e-19 2.42848)
(4.08671 7.27438e-19 2.63639)
(3.10531 2.57856e-21 2.47399)
(3.52457 1.44584e-18 2.73494)
(2.47455 9.24726e-19 2.4501)
(2.91494 -7.68345e-19 2.77904)
(1.7847 8.34434e-19 2.33754)
(2.25305 7.6829e-19 2.74755)
(1.0139 -1.74925e-18 2.1084)
(1.49047 -2.25323e-20 2.62931)
(0.775364 -1.76212e-18 2.36961)
(9.98316 0 0.0936564)
(9.99926 -6.01054e-22 0.0664586)
(9.94823 1.03822e-20 0.154085)
(9.97318 9.90052e-21 0.132311)
(9.89444 1.07884e-20 0.213552)
(9.92652 6.39731e-23 0.196589)
(9.82258 1.3177e-20 0.273853)
(9.86398 4.89654e-23 0.260909)
(9.73349 -3.34137e-20 0.336289)
(9.78512 -9.39882e-21 0.326977)
(9.62753 -2.08059e-20 0.401728)
(9.68943 -2.97267e-21 0.395833)
(9.50478 1.67195e-20 0.470988)
(9.57709 2.9849e-21 0.46832)
(9.36522 -1.22164e-20 0.544925)
(9.44831 -1.15323e-23 0.545339)
(9.20869 3.79705e-22 0.624393)
(9.30306 -5.62262e-23 0.627808)
(9.03492 -4.80915e-20 0.710229)
(9.14113 1.67691e-23 0.716618)
(8.84355 2.3945e-20 0.803267)
(8.9622 -6.69127e-20 0.812648)
(8.63416 1.7745e-19 0.904346)
(8.76593 -4.84179e-20 0.916781)
(8.40628 -2.04045e-20 1.01431)
(8.55186 8.58036e-20 1.0299)
(8.15937 -1.17069e-19 1.13397)
(8.31955 -1.59024e-20 1.1529)
(7.89288 -1.31434e-19 1.26404)
(8.06851 -1.52763e-20 1.2866)
(7.60618 2.38555e-20 1.40508)
(7.79813 -1.29715e-19 1.43173)
(7.29861 1.82963e-19 1.55739)
(7.50777 4.15656e-19 1.5888)
(6.96936 3.41921e-20 1.72083)
(7.19672 -2.38108e-19 1.75804)
(6.61741 0 1.89461)
(6.86408 -2.86101e-19 1.93921)
(6.2414 -3.93101e-20 2.07699)
(6.50857 3.29988e-19 2.13127)
(5.83963 -4.05235e-19 2.2651)
(6.12843 -3.94951e-22 2.3322)
(5.40983 -3.57783e-19 2.45439)
(5.72146 -9.99341e-19 2.53876)
(4.94878 -7.08344e-19 2.63802)
(5.28461 6.53541e-19 2.74585)
(4.45214 -6.52674e-19 2.8065)
(4.81345 -7.00066e-19 2.94587)
(3.91418 1.5484e-18 2.9475)
(4.30222 -7.11573e-19 3.12855)
(3.32729 6.53133e-19 3.04591)
(3.74359 1.48836e-18 3.28083)
(2.68131 -9.10924e-19 3.08388)
(3.12766 -1.98606e-20 3.38711)
(1.96396 -9.89139e-20 3.04506)
(2.45005 -5.08105e-20 3.42804)
(1.16077 -2.75477e-20 2.90094)
(1.66088 0 3.39294)
(0.871206 -2.71091e-20 3.22539)
(9.98291 9.44626e-21 0.105995)
(9.99928 4.80248e-21 0.0743977)
(9.94835 -5.35015e-22 0.175577)
(9.97337 1.48461e-20 0.148836)
(9.89598 -1.0686e-20 0.244666)
(9.92762 -1.00592e-20 0.222378)
(9.82633 -2.26749e-20 0.314792)
(9.86699 -1.04395e-20 0.296231)
(9.74008 2.11364e-20 0.387314)
(9.79087 -2.30637e-20 0.372014)
(9.6376 2.09095e-20 0.463251)
(9.69859 2.23949e-20 0.450915)
(9.51904 -1.3793e-20 0.543543)
(9.59035 -1.07986e-22 0.533919)
(9.38437 1.21499e-20 0.629149)
(9.46639 -4.17203e-20 0.622027)
(9.23346 -4.16634e-22 0.721022)
(9.32672 4.89445e-20 0.71625)
(9.06608 -1.97265e-20 0.820094)
(9.17115 -6.38134e-20 0.817576)
(8.88192 -1.39031e-19 0.927295)
(8.99939 5.23224e-20 0.92697)
(8.68062 -1.38297e-19 1.04355)
(8.81118 -2.20257e-19 1.0454)
(8.46178 8.89223e-20 1.1698)
(8.60615 2.24423e-19 1.17384)
(8.22493 8.59571e-20 1.30695)
(8.38387 -1.33636e-20 1.31327)
(7.96957 -1.5076e-20 1.45583)
(8.1439 1.50077e-20 1.46464)
(7.69508 2.69357e-19 1.61713)
(7.88564 -3.12617e-20 1.6288)
(7.4008 -1.39172e-20 1.79129)
(7.60843 5.60073e-19 1.80641)
(7.08589 -5.59215e-19 1.97844)
(7.31147 -8.46169e-19 1.99791)
(6.74922 5.16114e-20 2.17811)
(6.99377 2.62142e-20 2.20337)
(6.38917 3.64844e-19 2.38898)
(6.65388 2.93884e-19 2.4222)
(6.0035 -6.07121e-19 2.60866)
(6.28964 -5.63396e-19 2.65293)
(5.58919 3.1999e-20 2.83338)
(5.89826 -1.79892e-18 2.893)
(5.14202 6.45927e-19 3.05729)
(5.47594 1.29172e-18 3.13836)
(4.65609 -7.59573e-19 3.27198)
(5.01722 6.65136e-19 3.38268)
(4.12373 -7.48805e-19 3.46637)
(4.51482 -1.47474e-18 3.61705)
(3.53551 7.99726e-19 3.62669)
(3.95979 -4.94029e-20 3.82968)
(2.88023 8.39804e-19 3.73635)
(3.34029 7.97932e-19 4.00601)
(2.14628 4.85203e-20 3.77821)
(2.65239 1.60857e-18 4.12669)
(1.32441 0 3.71979)
(1.84995 -1.52999e-18 4.1766)
(0.988704 0 4.09848)
(9.98306 1.03763e-20 0.118202)
(9.99943 4.21024e-21 0.0822666)
(9.94925 5.01456e-21 0.196547)
(9.97402 4.945e-21 0.16501)
(9.89857 -9.82673e-21 0.274805)
(9.92954 1.03188e-20 0.247345)
(9.83145 -1.10097e-20 0.354341)
(9.87112 -2.01845e-20 0.330286)
(9.74846 -2.11503e-20 0.436541)
(9.79808 -1.69552e-24 0.415372)
(9.64997 1.05408e-21 0.522543)
(9.70966 2.48936e-20 0.503885)
(9.53614 -2.86186e-20 0.613403)
(9.60602 -2.26986e-20 0.596932)
(9.407 -3.65938e-21 0.710181)
(9.48746 -8.9233e-20 0.695617)
(9.26241 -1.60096e-20 0.813922)
(9.354 8.53201e-20 0.801049)
(9.10218 9.82898e-21 0.925641)
(9.20547 -5.73877e-20 0.914302)
(8.92606 -3.2602e-20 1.04634)
(9.04169 5.25617e-20 1.0364)
(8.73379 1.48498e-19 1.17704)
(8.86245 -1.09518e-19 1.16837)
(8.525 1.18974e-19 1.31877)
(8.66746 2.40003e-19 1.31132)
(8.29924 -8.40006e-20 1.47255)
(8.45629 -1.01766e-19 1.46632)
(8.05599 -1.78437e-21 1.63934)
(8.22847 3.01789e-20 1.63447)
(7.79461 2.67209e-19 1.81999)
(7.98342 -1.94444e-22 1.81676)
(7.51435 -2.90207e-19 2.01514)
(7.7204 4.65551e-21 2.01404)
(7.21422 -2.49667e-19 2.22519)
(7.43852 -2.77128e-19 2.227)
(6.89291 2.7188e-19 2.45009)
(7.13658 -3.10435e-20 2.45606)
(6.5485 -6.45486e-19 2.6891)
(6.8129 2.80503e-19 2.70122)
(6.1783 -1.77136e-18 2.94057)
(6.46504 -1.18999e-18 2.96171)
(5.77862 -5.0284e-19 3.20168)
(6.08965 -1.19529e-18 3.23588)
(5.3444 1.30367e-18 3.46788)
(5.68221 6.43336e-19 3.52089)
(4.8687 -7.39512e-20 3.7323)
(5.23644 1.04913e-19 3.81202)
(4.34254 -7.60059e-19 3.98532)
(4.74398 -1.30588e-18 4.10203)
(3.75514 -4.33669e-20 4.21415)
(4.19457 6.38915e-19 4.38056)
(3.09448 1.57464e-18 4.40229)
(3.5745 -1.45823e-18 4.6335)
(2.34865 5.66211e-21 4.52943)
(2.8788 3.01093e-18 4.84061)
(1.51108 -1.50328e-18 4.5564)
(2.0692 -3.07553e-18 4.97887)
(1.13178 1.5724e-18 4.99068)
(9.98348 -1.17768e-21 0.130119)
(9.99968 1.18887e-21 0.0899424)
(9.95074 1.03584e-20 0.216846)
(9.97501 9.79798e-21 0.180675)
(9.90203 -4.97816e-22 0.303819)
(9.9321 -6.35545e-22 0.271356)
(9.83775 -8.88642e-21 0.392323)
(9.8762 -1.04003e-20 0.362917)
(9.7584 4.64017e-20 0.483756)
(9.80657 -2.00845e-20 0.45685)
(9.66435 4.71954e-22 0.579349)
(9.7224 1.10638e-19 0.554499)
(9.55579 -8.4251e-20 0.680266)
(9.62383 -9.09329e-20 0.657073)
(9.43275 2.1775e-21 0.787667)
(9.51117 -4.15585e-20 0.765786)
(9.29511 4.19861e-20 0.902679)
(9.38448 4.86156e-20 0.881841)
(9.14276 -1.31536e-20 1.02638)
(9.24367 1.06835e-19 1.00635)
(8.97557 -2.65498e-20 1.15982)
(9.0887 -1.03045e-19 1.14039)
(8.79331 -1.33542e-20 1.30414)
(8.91937 -1.35375e-20 1.28508)
(8.59563 1.46942e-20 1.46048)
(8.73538 0 1.44164)
(8.38208 1.41903e-20 1.63)
(8.53638 2.43961e-19 1.61131)
(8.15212 3.13702e-20 1.8138)
(8.32187 -2.35106e-19 1.79529)
(7.90509 -2.62797e-19 2.01289)
(8.09127 6.14194e-20 1.99475)
(7.64012 1.40977e-20 2.22819)
(7.84382 -3.21193e-19 2.21076)
(7.3561 -5.53049e-20 2.46041)
(7.5785 2.64054e-19 2.44431)
(7.05147 -1.89947e-20 2.71002)
(7.29397 2.28641e-19 2.69629)
(6.72404 -2.8179e-19 2.97697)
(6.98832 -2.6858e-19 2.9673)
(6.37074 -6.14408e-19 3.26052)
(6.65886 -5.88186e-19 3.25742)
(5.98727 -2.6796e-20 3.55903)
(6.3018 5.56616e-19 3.56615)
(5.56783 -5.62076e-19 3.86946)
(5.91198 -5.97241e-19 3.89207)
(5.10459 -1.14322e-18 4.18676)
(5.48234 -1.63366e-20 4.23227)
(4.58743 1.14447e-19 4.503)
(5.0035 -2.50192e-18 4.58155)
(4.0041 -7.9875e-19 4.80639)
(4.4638 1.99695e-18 4.93131)
(3.34099 1.61258e-20 5.07995)
(3.84725 -1.41611e-18 5.26806)
(2.58422 -1.23215e-19 5.29879)
(3.14508 2.75882e-18 5.57043)
(1.72708 1.30935e-19 5.41476)
(2.32949 -1.54701e-18 5.805)
(1.3054 4.4561e-20 5.91345)
(9.98409 1.22855e-20 0.141627)
(10 1.19459e-21 0.0973374)
(9.95269 -1.31688e-21 0.236338)
(9.97626 8.5836e-21 0.195704)
(9.90621 -1.06889e-20 0.331566)
(9.93517 1.04963e-20 0.294282)
(9.84507 -2.1738e-20 0.428563)
(9.88207 -2.06573e-20 0.393976)
(9.76972 4.60137e-20 0.528744)
(9.81617 -2.14332e-20 0.496264)
(9.68053 1.64006e-20 0.633414)
(9.7366 6.89369e-20 0.602534)
(9.57769 -4.75486e-20 0.743838)
(9.64351 -4.81966e-20 0.714091)
(9.46124 6.12954e-21 0.861267)
(9.53719 -1.16798e-20 0.832253)
(9.33116 1.14264e-19 0.986879)
(9.41781 -8.44795e-20 0.958272)
(9.18746 1.41185e-20 1.12179)
(9.28543 2.11936e-19 1.09327)
(9.03007 -8.88531e-20 1.26716)
(9.14005 -9.00714e-20 1.2384)
(8.85873 0 1.42421)
(8.98144 0 1.39493)
(8.67314 2.3251e-19 1.59423)
(8.80934 -1.09665e-19 1.56418)
(8.47289 -1.14306e-20 1.7785)
(8.62348 5.68177e-19 1.7475)
(8.25743 -2.01342e-19 1.97828)
(8.42341 -4.95762e-19 1.94625)
(8.02611 -1.75686e-21 2.19482)
(8.20857 3.00153e-20 2.16178)
(7.778 -6.40287e-20 2.42928)
(7.97818 -2.48629e-19 2.39542)
(7.51188 5.47664e-19 2.68281)
(7.7312 -3.15369e-21 2.6485)
(7.22605 -2.65093e-20 2.95643)
(7.46621 1.32893e-18 2.92241)
(6.91809 -5.79153e-19 3.2509)
(7.18119 -1.09081e-18 3.21845)
(6.58459 5.96501e-19 3.56654)
(6.87325 0 3.53769)
(6.22081 -2.60614e-20 3.90311)
(6.53831 5.90036e-19 3.88092)
(5.82027 -4.44213e-20 4.25936)
(6.17075 -6.03032e-19 4.24842)
(5.37425 -1.40226e-18 4.63233)
(5.76283 5.82664e-19 4.63942)
(4.87132 -5.72269e-19 5.01629)
(5.30405 -3.15066e-18 5.05125)
(4.29719 1.34291e-18 5.40098)
(4.78091 1.31481e-18 5.47784)
(3.63526 1.36387e-18 5.76934)
(4.17451 1.37079e-18 5.90734)
(2.86701 1.30536e-18 6.09126)
(3.46842 1.34927e-18 6.31823)
(1.98164 -1.63027e-18 6.30737)
(2.64545 2.02761e-20 6.66524)
(1.51824 -2.89495e-18 6.88774)
(9.98483 -2.40569e-21 0.152627)
(10.0004 -5.92026e-21 0.104386)
(9.955 2.04594e-20 0.254905)
(9.97771 4.8484e-21 0.209992)
(9.91099 6.31906e-23 0.357912)
(9.93867 4.19648e-20 0.316002)
(9.85326 -2.03639e-20 0.462902)
(9.88861 -2.0552e-20 0.423325)
(9.78223 2.77261e-21 0.571313)
(9.82671 -4.23215e-20 0.533447)
(9.69826 2.6958e-21 0.684516)
(9.75207 -2.05885e-20 0.647799)
(9.60153 -1.18149e-20 0.803864)
(9.66478 -2.45337e-22 0.767772)
(9.49215 -1.033e-19 0.930664)
(9.56522 8.67316e-20 0.894743)
(9.37027 1.71938e-20 1.06612)
(9.45373 -1.44133e-19 1.02997)
(9.23594 1.03711e-19 1.21142)
(9.33043 9.89645e-20 1.17462)
(9.08906 0 1.36782)
(9.19525 0 1.32998)
(8.92944 -1.11123e-19 1.53666)
(9.04804 1.05032e-19 1.49743)
(8.75683 2.34733e-19 1.71933)
(8.88864 -2.1717e-19 1.67835)
(8.57089 7.04687e-20 1.91726)
(8.71684 5.48187e-19 1.87421)
(8.37115 -2.5777e-19 2.13189)
(8.53226 -2.44616e-19 2.08652)
(8.15695 -2.20389e-19 2.36467)
(8.33444 -2.64978e-19 2.31684)
(7.92741 -1.8502e-19 2.61708)
(8.12269 -2.17482e-19 2.56675)
(7.68129 7.94017e-19 2.89072)
(7.89597 2.4862e-19 2.83797)
(7.41683 2.37081e-19 3.18725)
(7.65291 5.33111e-19 3.1324)
(7.13153 -4.98978e-19 3.50828)
(7.39153 -1.06574e-18 3.4521)
(6.82183 0 3.85539)
(7.10893 5.37873e-19 3.79921)
(6.48271 0 4.22992)
(6.80101 -5.52617e-19 4.17599)
(6.1072 3.74095e-20 4.63272)
(6.46193 5.63112e-19 4.58465)
(5.68573 -1.20622e-18 5.06348)
(6.08353 5.83209e-22 5.02702)
(5.20533 -1.21809e-18 5.51949)
(5.65432 -1.23033e-18 5.50377)
(4.64884 1.34154e-18 5.99344)
(5.15864 3.77814e-20 6.01275)
(3.99469 1.35577e-18 6.46989)
(4.57378 2.50217e-18 6.546)
(3.21572 6.33944e-20 6.91444)
(3.87136 -1.20063e-18 7.08494)
(2.29011 -1.37577e-18 7.25516)
(3.04096 4.07669e-20 7.57386)
(1.78737 -8.02831e-20 7.9486)
(9.98569 1.4449e-21 0.163045)
(10.0008 -2.37105e-21 0.111038)
(9.9576 2.68977e-20 0.272443)
(9.97932 1.23832e-21 0.223451)
(9.91628 2.04176e-20 0.382738)
(9.94251 -5.22729e-22 0.336413)
(9.86219 -4.28428e-20 0.495197)
(9.89572 2.05249e-20 0.450845)
(9.79576 -6.53788e-20 0.611295)
(9.83806 -4.23306e-20 0.568257)
(9.7173 -2.32541e-20 0.732461)
(9.7686 -6.81054e-20 0.690129)
(9.62706 9.95095e-20 0.8601)
(9.68744 4.42544e-20 0.817906)
(9.52526 4.2773e-20 0.995542)
(9.59508 9.84135e-20 0.952968)
(9.41214 -5.90933e-20 1.14003)
(9.49198 -1.42627e-19 1.09659)
(9.28772 -6.08846e-21 1.29485)
(9.37822 -7.19885e-22 1.25007)
(9.15196 1.0643e-19 1.46136)
(9.25373 2.00902e-19 1.41477)
(9.00475 -5.12279e-21 1.64098)
(9.11853 1.98255e-21 1.59213)
(8.84593 1.06012e-19 1.8352)
(8.97253 -1.07505e-19 1.78361)
(8.67524 2.23339e-19 2.04557)
(8.81557 3.28763e-21 1.99079)
(8.49232 -2.51879e-19 2.2737)
(8.64745 2.54969e-19 2.21532)
(8.29665 -2.61539e-19 2.52127)
(8.46785 -3.22584e-20 2.45892)
(8.08745 2.21744e-19 2.79011)
(8.27627 -2.37385e-19 2.72346)
(7.86353 -9.14367e-21 3.08224)
(8.07175 2.34395e-19 3.01102)
(7.62325 -7.88234e-19 3.39998)
(7.85309 -2.23501e-19 3.32404)
(7.36424 -1.1314e-20 3.74588)
(7.61855 -5.29578e-19 3.66532)
(7.08303 -2.65596e-20 4.12282)
(7.36548 -1.76502e-20 4.03808)
(6.77466 2.15174e-20 4.53394)
(7.09009 -1.11932e-18 4.44612)
(6.43205 5.20764e-19 4.98257)
(6.78686 5.30358e-19 4.89382)
(6.04514 -3.60676e-20 5.47173)
(6.44779 -3.64709e-20 5.38608)
(5.59951 3.83602e-20 6.00313)
(6.06106 -5.55493e-19 5.92791)
(5.07457 1.22401e-18 6.57485)
(5.60928 5.86242e-19 6.52326)
(4.44157 -9.90941e-20 7.17706)
(5.06575 1.19145e-18 7.17203)
(3.65918 -1.20789e-18 7.77604)
(4.38638 -2.35904e-18 7.8654)
(2.68172 1.33347e-18 8.29023)
(3.55908 1.15038e-18 8.54629)
(2.14896 1.28984e-18 9.15364)
(9.98663 -2.52641e-21 0.172818)
(10.0013 9.38515e-21 0.117252)
(9.96044 -2.62129e-20 0.288866)
(9.98107 -4.82847e-21 0.236011)
(9.92198 -1.14068e-22 0.405937)
(9.94663 -2.11484e-20 0.355425)
(9.87174 2.01274e-20 0.525326)
(9.90328 4.07877e-20 0.476431)
(9.81013 -4.5411e-20 0.648544)
(9.85007 2.10306e-20 0.60057)
(9.73748 9.54084e-22 0.777065)
(9.78603 -8.77502e-20 0.729368)
(9.6541 4.3895e-20 0.912308)
(9.7113 4.45114e-20 0.864281)
(9.56031 -9.02782e-20 1.05562)
(9.62652 0 1.00668)
(9.45635 -8.238e-20 1.20831)
(9.53217 -8.49027e-22 1.15791)
(9.34228 2.08936e-19 1.37176)
(9.42828 -9.69315e-20 1.31935)
(9.21814 9.39192e-20 1.5474)
(9.31495 9.51012e-20 1.49244)
(9.08393 -1.01805e-19 1.73671)
(9.19226 -1.20352e-21 1.67865)
(8.93958 -2.08888e-19 1.94127)
(9.06019 0 1.87951)
(8.78496 3.79323e-20 2.16272)
(8.91877 -4.23098e-19 2.09669)
(8.6199 4.71444e-19 2.40282)
(8.76799 4.46297e-19 2.33191)
(8.44408 -1.02087e-20 2.66347)
(8.60772 2.46884e-19 2.58704)
(8.25691 -2.19379e-19 2.94683)
(8.43765 -2.37568e-19 2.86424)
(8.05738 1.49895e-20 3.25536)
(8.25709 1.06887e-22 3.16597)
(7.84411 3.2089e-20 3.59198)
(8.06518 0 3.49509)
(7.61509 -5.31007e-19 3.96013)
(7.86055 4.83534e-19 3.85506)
(7.36735 -1.12385e-18 4.36398)
(7.64114 -1.04758e-18 4.25009)
(7.09647 -5.94431e-19 4.80857)
(7.40398 -5.34047e-19 4.68547)
(6.79598 -3.3155e-20 5.29993)
(7.14454 -3.87202e-22 5.16773)
(6.45616 -5.61386e-19 5.84517)
(6.85601 0 5.7051)
(6.0622 2.0987e-21 6.45209)
(6.5278 -1.08067e-18 6.30784)
(5.59093 5.60258e-19 7.12787)
(6.14294 5.80013e-19 6.98838)
(5.00565 -1.11186e-18 7.87597)
(5.67357 -5.01921e-19 7.76024)
(4.24492 2.44547e-20 8.67736)
(5.06076 -8.00042e-20 8.63725)
(3.21691 1.10987e-18 9.46236)
(4.28185 1.55143e-19 9.58802)
(2.68435 1.99976e-18 10.6051)
(9.98765 6.92641e-21 0.181896)
(10.0017 7.01694e-21 0.122997)
(9.96347 0 0.3041)
(9.98292 -4.78076e-21 0.247615)
(9.92801 2.06633e-20 0.427422)
(9.95098 0 0.372966)
(9.88179 4.13928e-20 0.553182)
(9.91121 4.0624e-20 0.499995)
(9.82521 -2.28345e-20 0.682929)
(9.86261 1.56898e-21 0.630279)
(9.75864 -4.23736e-20 0.818158)
(9.80419 -4.29698e-20 0.765372)
(9.68243 0 0.960285)
(9.73617 4.27081e-20 0.906723)
(9.59695 8.94407e-20 1.11068)
(9.65926 -9.04817e-20 1.05571)
(9.50245 -1.66472e-20 1.27074)
(9.57388 4.14038e-20 1.21374)
(9.39909 -2.08353e-19 1.4419)
(9.48017 8.29657e-20 1.38226)
(9.28699 -1.3145e-21 1.62565)
(9.37833 -1.97839e-19 1.56274)
(9.16624 1.00675e-19 1.8235)
(9.26852 1.01987e-19 1.75668)
(9.03692 -2.19507e-19 2.03707)
(9.15085 0 1.96566)
(8.89912 -4.33801e-21 2.26811)
(9.02558 -2.16864e-19 2.19137)
(8.75286 2.19267e-19 2.51845)
(8.89292 2.07494e-19 2.43559)
(8.59803 1.39827e-20 2.79022)
(8.75287 7.27344e-23 2.70035)
(8.4343 -1.523e-20 3.08585)
(8.60535 -1.41982e-20 2.988)
(8.26105 -1.48899e-20 3.4082)
(8.45016 -1.50635e-20 3.30131)
(8.07736 4.56919e-19 3.76066)
(8.28693 -2.38362e-19 3.64348)
(7.88181 -4.80446e-20 4.14741)
(8.11484 4.67731e-19 4.01842)
(7.67232 -4.53197e-19 4.57377)
(7.93275 -2.29587e-19 4.43116)
(7.44569 6.56935e-20 5.04647)
(7.73899 -4.63168e-19 4.88809)
(7.19703 3.27556e-20 5.5742)
(7.53085 5.36158e-19 5.39758)
(6.91858 -5.29791e-19 6.16837)
(7.30413 4.98108e-19 5.97081)
(6.59767 -4.91689e-19 6.84406)
(7.05193 -1.51602e-18 6.62317)
(6.21249 -4.97916e-19 7.62132)
(6.76243 4.25929e-20 7.37652)
(5.72334 5.33506e-19 8.52786)
(6.41553 4.69369e-19 8.26285)
(5.05076 3.28896e-20 9.59071)
(5.95457 5.58958e-19 9.33583)
(4.03167 1.31591e-18 10.849)
(5.37159 -9.21571e-19 10.6514)
(3.57548 2.71913e-18 12.496)
(9.98871 -4.81188e-21 0.19024)
(10.0022 -4.38165e-21 0.128248)
(9.96664 -4.71141e-21 0.31809)
(9.98485 -1.83601e-20 0.25822)
(9.93431 2.05454e-20 0.447119)
(9.95551 -1.38475e-20 0.388978)
(9.89225 2.0436e-22 0.57867)
(9.91946 1.82675e-20 0.521468)
(9.84087 -1.91942e-20 0.71432)
(9.87561 1.80655e-20 0.657296)
(9.78058 4.33045e-20 0.85557)
(9.823 -8.03162e-20 0.79803)
(9.71176 -4.95826e-20 1.00383)
(9.76193 1.27371e-19 0.945111)
(9.63481 -1.36794e-19 1.16052)
(9.6931 -9.07173e-20 1.09993)
(9.55003 1.41574e-19 1.32707)
(9.61695 -9.12638e-20 1.26394)
(9.45764 8.99334e-20 1.50498)
(9.53371 1.9456e-19 1.43863)
(9.35788 -9.07596e-20 1.69573)
(9.44368 -9.08173e-20 1.62547)
(9.25097 0 1.90089)
(9.34715 0 1.82599)
(9.13719 0 2.12207)
(9.24441 0 2.04175)
(9.01682 0 2.36105)
(9.13592 0 2.27443)
(8.89008 -1.42443e-20 2.61978)
(9.02204 0 2.5259)
(8.75705 -2.82821e-20 2.90049)
(8.90299 -1.43465e-20 2.79828)
(8.6178 -1.40427e-20 3.20586)
(8.779 2.04661e-19 3.09402)
(8.47225 -2.41085e-19 3.53897)
(8.65041 -4.39203e-19 3.41599)
(8.3201 -2.20718e-19 3.90357)
(8.51744 1.96834e-19 3.76765)
(8.16083 2.79342e-19 4.30433)
(8.38007 1.16302e-20 4.15319)
(7.99358 -2.41782e-19 4.74731)
(8.23839 4.06435e-20 4.57798)
(7.81702 1.50272e-20 5.24042)
(8.09236 -9.57948e-19 5.04899)
(7.62895 1.00159e-18 5.79431)
(7.94183 9.71698e-19 5.57553)
(7.4257 -5.03107e-19 6.42377)
(7.78654 5.07921e-19 6.17043)
(7.20078 -9.76273e-19 7.15022)
(7.62611 -1.0177e-18 6.85204)
(6.942 1.00002e-18 8.0064)
(7.45992 1.1802e-20 7.6482)
(6.62384 5.08055e-19 9.04904)
(7.29075 1.17914e-18 8.60467)
(6.18406 -4.18509e-19 10.3858)
(7.11168 -6.86267e-19 9.81268)
(5.44483 7.49777e-19 12.5411)
(7.20141 6.68513e-20 11.4682)
(6.42994 7.83698e-19 15.1928)
(0.157458 1.53584e-21 -0.0870019)
(0.0888182 2.15691e-21 -0.148062)
(0.350037 -2.19891e-21 -0.0992329)
(0.264066 -2.11097e-21 -0.17605)
(0.528045 -1.57169e-23 -0.0855591)
(0.440643 7.68589e-21 -0.156433)
(0.671977 0 -0.0638514)
(0.598046 -7.40952e-21 -0.122233)
(0.777206 0 -0.0419595)
(0.723142 -2.57771e-23 -0.0867242)
(0.84519 1.35274e-21 -0.0228079)
(0.812663 0 -0.0545602)
(0.880507 1.10748e-22 -0.00748356)
(0.869162 1.36852e-21 -0.0276656)
(0.889563 -1.85913e-21 0.00354814)
(0.898153 1.33781e-21 -0.00690334)
(0.879876 -4.92548e-24 0.0103353)
(0.906084 -3.06122e-21 0.00736733)
(0.858567 7.74058e-23 0.013539)
(0.898188 -1.59998e-21 0.0158499)
(0.831341 -4.96132e-23 0.0140471)
(0.880784 -2.48419e-22 0.0198928)
(0.802854 6.73691e-23 0.0127254)
(0.858778 -4.45119e-22 0.0204647)
(0.776509 -3.36328e-23 0.0104139)
(0.835865 4.87138e-22 0.0186149)
(0.7542 4.35699e-22 0.00790977)
(0.814554 -3.8337e-22 0.0155052)
(0.736138 -8.90991e-23 0.00588062)
(0.795919 8.00313e-22 0.0123493)
(0.720993 -8.60932e-24 0.00469685)
(0.779442 -1.3151e-24 0.0101843)
(0.706718 8.36709e-23 0.00427617)
(0.763392 1.94646e-24 0.00943431)
(0.691943 -6.67278e-23 0.00411876)
(0.745944 -2.94524e-22 0.00959307)
(0.677135 -1.3942e-23 0.00358785)
(0.726596 2.21665e-22 0.00944184)
(0.664693 1.21215e-22 0.00224686)
(0.706946 1.93336e-22 0.00779195)
(0.657813 -4.19124e-23 7.31778e-05)
(0.69027 5.50187e-23 0.00423522)
(0.658812 -1.27613e-22 -0.00257261)
(0.680033 1.43592e-22 -0.000595364)
(0.668172 1.73812e-24 -0.00534922)
(0.677652 -1.17337e-22 -0.00554003)
(0.685582 5.40758e-23 -0.00829077)
(0.681858 9.94488e-23 -0.0101282)
(0.711621 2.7423e-23 -0.0116619)
(0.691946 -1.38095e-23 -0.0148848)
(0.747794 -1.90285e-23 -0.0155468)
(0.707056 2.38479e-23 -0.0203187)
(0.795679 -1.32088e-23 -0.0196981)
(0.728686 -9.78603e-24 -0.0264307)
(0.856726 -4.69483e-24 -0.0237151)
(0.761303 -1.39743e-23 -0.0331158)
(0.931485 3.81215e-24 -0.0267964)
(0.808168 0 -0.0398606)
(0.885 -4.22268e-24 -0.0429135)
(0.178901 -2.46035e-22 -0.246927)
(0.0725687 8.40703e-21 -0.324399)
(0.361981 7.58573e-21 -0.249264)
(0.25666 -1.66086e-20 -0.343581)
(0.52647 -2.27233e-21 -0.211524)
(0.418104 1.57094e-20 -0.300166)
(0.661881 -7.54371e-21 -0.161366)
(0.556876 -4.68518e-22 -0.23616)
(0.765133 -2.61101e-23 -0.112057)
(0.665844 -6.76992e-21 -0.170844)
(0.838055 0 -0.0690696)
(0.744864 0 -0.112328)
(0.885285 2.64866e-21 -0.0343648)
(0.797093 0 -0.0641577)
(0.911854 4.25778e-22 -0.00817134)
(0.827811 7.1917e-21 -0.0269552)
(0.921683 -4.72015e-21 0.0099312)
(0.842159 -7.4562e-21 0.000165114)