/*--------------------------------*- C++ -*----------------------------------*\
| =========                 |                                                 |
| \\      /  F ield         | OpenFOAM: The Open Source CFD Toolbox           |
|  \\    /   O peration     | Version:  dev                                   |
|   \\  /    A nd           | Web:      www.OpenFOAM.org                      |
|    \\/     M anipulation  |                                                 |
\*---------------------------------------------------------------------------*/
FoamFile
{
    version     2.0;
    format      ascii;
    class       pointVectorField;
    location    "2.48";
    object      pointDisplacement;
}
// * * * * * * * * * * * * * * * * * * * * * * * * * * * * * * * * * * * * * //

dimensions      [0 1 0 0 0 0 0];

internalField   nonuniform List<vector> 
5828
(
(0 0 0)
(0.0222583 0 0)
(0.0420002 0 0)
(0.0586681 0 0)
(0.0725704 0 0)
(0.0839974 0 0)
(0.0932074 0 0)
(0.100426 0 0)
(0.105847 0 0)
(0.10964 0 0)
(0.111952 0 0)
(0.112913 0 0)
(0.112637 0 0)
(0.111226 0 0)
(0.108774 0 0)
(0.105362 0 0)
(0.101067 0 0)
(0.0959617 0 0)
(0.0901189 0 0)
(0.0836107 0 0)
(0.0765121 0 0)
(0.0689043 0 0)
(0.0608778 0 0)
(0.0525379 0 0)
(0.0440087 0 0)
(0.0354446 0 0)
(0.027064 0 0)
(0.0191895 0 0)
(0.0123234 0 0)
(0.00745176 0 0)
(1.13677e-09 0 0)
(0 0 0)
(0.0222755 0 -0.000197941)
(0.0420318 0 -0.000375959)
(0.0587144 0 -0.0005315)
(0.0726326 0 -0.000668826)
(0.0840763 0 -0.000790636)
(0.0933043 0 -0.00089875)
(0.100543 0 -0.000994656)
(0.105987 0 -0.00107904)
(0.109806 0 -0.00115201)
(0.112147 0 -0.00121319)
(0.11314 0 -0.00126172)
(0.1129 0 -0.0012964)
(0.11153 0 -0.00131593)
(0.109124 0 -0.00131804)
(0.105765 0 -0.00129992)
(0.10153 0 -0.00125873)
(0.0964939 0 -0.00119081)
(0.0907296 0 -0.00109192)
(0.0843115 0 -0.00095715)
(0.0773169 0 -0.000780868)
(0.0698296 0 -0.000556697)
(0.0619441 0 -0.000277584)
(0.0537723 0 6.39592e-05)
(0.0454472 0 0.000475901)
(0.0371279 0 0.00096696)
(0.0290358 0 0.00154529)
(0.0215055 0 0.00221446)
(0.0150835 0 0.00296492)
(0.0108355 0 0.00371452)
(0.00454695 0 0.00476737)
(0 0 0)
(0.022328 0 -0.000396288)
(0.0421284 0 -0.000752524)
(0.0588554 0 -0.00106393)
(0.0728215 0 -0.00133913)
(0.0843146 0 -0.00158342)
(0.0935966 0 -0.00180035)
(0.100896 0 -0.00199307)
(0.106408 0 -0.00216297)
(0.110303 0 -0.00231031)
(0.112729 0 -0.00243435)
(0.113819 0 -0.00253349)
(0.113688 0 -0.00260519)
(0.11244 0 -0.00264575)
(0.110172 0 -0.00265213)
(0.10697 0 -0.00262026)
(0.102915 0 -0.00254354)
(0.0980824 0 -0.00241476)
(0.0925512 0 -0.00222583)
(0.0864005 0 -0.00196744)
(0.0797134 0 -0.00162892)
(0.0725813 0 -0.00119824)
(0.0651076 0 -0.000662124)
(0.0574227 0 -7.06243e-06)
(0.0496857 0 0.000780849)
(0.0420847 0 0.00171551)
(0.0348709 0 0.00280526)
(0.0283977 0 0.00404762)
(0.0232449 0 0.00540778)
(0.0206942 0 0.00669051)
(0.0157431 0 0.00850925)
(0 0 0)
(0.0224066 0 -0.000594799)
(0.0422838 0 -0.0011295)
(0.0590889 0 -0.00159717)
(0.0731348 0 -0.00201011)
(0.0847093 0 -0.00237673)
(0.0940802 0 -0.0027031)
(0.10148 0 -0.0029937)
(0.107104 0 -0.00325061)
(0.111124 0 -0.00347429)
(0.113692 0 -0.00366381)
(0.11494 0 -0.00381694)
(0.114989 0 -0.00393015)
(0.113944 0 -0.00399839)
(0.111906 0 -0.00401724)
(0.108965 0 -0.0039807)
(0.105205 0 -0.00387955)
(0.10071 0 -0.00370374)
(0.0955634 0 -0.00344211)
(0.0898539 0 -0.00308199)
(0.0836747 0 -0.00260887)
(0.0771297 0 -0.00200672)
(0.0703362 0 -0.0012581)
(0.0634419 0 -0.000345542)
(0.0566384 0 0.000746407)
(0.0501664 0 0.00202911)
(0.0443548 0 0.0035004)
(0.0396336 0 0.00513276)
(0.0365571 0 0.00684776)
(0.0365364 0 0.00831206)
(0.0335819 0 0.0105006)
(0 0 0)
(0.0225106 0 -0.000793223)
(0.0424967 0 -0.00150684)
(0.0594095 0 -0.00213122)
(0.0735635 0 -0.00268177)
(0.0852533 0 -0.00317091)
(0.0947507 0 -0.00360789)
(0.10229 0 -0.00399804)
(0.10807 0 -0.00434421)
(0.112264 0 -0.00464722)
(0.115027 0 -0.00490611)
(0.116495 0 -0.00511826)
(0.116792 0 -0.00527953)
(0.116029 0 -0.0053846)
(0.114309 0 -0.00542723)
(0.111729 0 -0.00539917)
(0.108378 0 -0.00528981)
(0.104347 0 -0.00508699)
(0.0997303 0 -0.00477775)
(0.0946283 0 -0.00434758)
(0.0891472 0 -0.00377964)
(0.0834048 0 -0.00305558)
(0.0775477 0 -0.00215822)
(0.0717482 0 -0.00107102)
(0.0662227 0 0.000218574)
(0.0612586 0 0.00171302)
(0.0572569 0 0.00339064)
(0.0548051 0 0.00517301)
(0.0545509 0 0.00691013)
(0.0577774 0 0.00813548)
(0.0571299 0 0.0102993)
(0 0 0)
(0.0226475 0 -0.00099108)
(0.0427696 0 -0.00188339)
(0.0598143 0 -0.00266452)
(0.0741036 0 -0.00335384)
(0.0859426 0 -0.00396744)
(0.095603 0 -0.00451696)
(0.10332 0 -0.00500911)
(0.109297 0 -0.00544774)
(0.113712 0 -0.00583424)
(0.116723 0 -0.0061678)
(0.11847 0 -0.00644567)
(0.119081 0 -0.00666331)
(0.118674 0 -0.00681534)
(0.117356 0 -0.0068947)
(0.115231 0 -0.00689169)
(0.112397 0 -0.00679476)
(0.108951 0 -0.00659028)
(0.105 0 -0.00626517)
(0.100663 0 -0.00580531)
(0.096061 0 -0.00519349)
(0.0913275 0 -0.00441131)
(0.0866343 0 -0.00344387)
(0.0821922 0 -0.00228157)
(0.0782622 0 -0.000923178)
(0.0751874 0 0.000614828)
(0.0734001 0 0.00228491)
(0.0735793 0 0.00395411)
(0.0766115 0 0.00536102)
(0.0836133 0 0.00591979)
(0.0855004 0 0.00771389)
(0 0 0)
(0.0228146 0 -0.00118779)
(0.0430995 0 -0.00225798)
(0.0603023 0 -0.00319558)
(0.0747551 0 -0.00402449)
(0.0867723 0 -0.00476407)
(0.0966271 0 -0.00542784)
(0.104558 0 -0.00602443)
(0.110772 0 -0.00655892)
(0.115451 0 -0.00703343)
(0.118758 0 -0.00744759)
(0.120838 0 -0.00779879)
(0.121824 0 -0.00808219)
(0.121839 0 -0.00829309)
(0.121002 0 -0.00842467)
(0.119421 0 -0.00846638)
(0.117205 0 -0.00840693)
(0.114461 0 -0.00823299)
(0.111308 0 -0.00793121)
(0.107879 0 -0.00748894)
(0.104321 0 -0.00689212)
(0.10079 0 -0.0061263)
(0.0974782 0 -0.0051817)
(0.0946303 0 -0.00405887)
(0.0925584 0 -0.00277352)
(0.091671 0 -0.00137084)
(0.0924742 0 5.79186e-05)
(0.0956324 0 0.00133366)
(0.102204 0 0.00207603)
(0.113274 0 0.00158716)
(0.117865 0 0.00271553)
(0 0 0)
(0.0230102 0 -0.00138358)
(0.043484 0 -0.00263065)
(0.0608686 0 -0.00372399)
(0.0755102 0 -0.00469246)
(0.0877326 0 -0.00555867)
(0.0978111 0 -0.00633822)
(0.105988 0 -0.0070417)
(0.112475 0 -0.00767563)
(0.117459 0 -0.00824307)
(0.121107 0 -0.00874439)
(0.123571 0 -0.00917759)
(0.124989 0 -0.00953885)
(0.125494 0 -0.00982374)
(0.125208 0 -0.0100252)
(0.12425 0 -0.0101335)
(0.122742 0 -0.010139)
(0.120809 0 -0.0100314)
(0.118572 0 -0.00979632)
(0.116182 0 -0.00942365)
(0.113814 0 -0.00890663)
(0.11165 0 -0.00823718)
(0.10991 0 -0.00741528)
(0.108878 0 -0.00645673)
(0.108912 0 -0.0053994)
(0.110457 0 -0.00431695)
(0.114114 0 -0.00335642)
(0.120578 0 -0.00275712)
(0.130915 0 -0.00298747)
(0.14613 0 -0.00482439)
(0.153458 0 -0.00461613)
(0 0 0)
(0.0232284 0 -0.00157839)
(0.043912 0 -0.00300129)
(0.0615046 0 -0.00425008)
(0.0763628 0 -0.00535868)
(0.0888168 0 -0.00635265)
(0.0991472 0 -0.00724995)
(0.107601 0 -0.00806329)
(0.114396 0 -0.00880084)
(0.119722 0 -0.00946684)
(0.123753 0 -0.0100626)
(0.126646 0 -0.0105874)
(0.128553 0 -0.0110398)
(0.129608 0 -0.011415)
(0.129938 0 -0.0117052)
(0.129672 0 -0.0119027)
(0.128948 0 -0.0120014)
(0.12791 0 -0.0119948)
(0.126692 0 -0.0118711)
(0.125459 0 -0.0116246)
(0.12441 0 -0.0112558)
(0.123757 0 -0.0107671)
(0.123752 0 -0.0101716)
(0.124717 0 -0.00950348)
(0.127063 0 -0.00882854)
(0.131282 0 -0.00825756)
(0.138011 0 -0.00798301)
(0.148047 0 -0.00832241)
(0.162324 0 -0.00979477)
(0.181588 0 -0.0131848)
(0.191581 0 -0.0140605)
(0 0 0)
(0.0234666 0 -0.0017715)
(0.0443798 0 -0.00336948)
(0.0622057 0 -0.00477415)
(0.0773068 0 -0.00602375)
(0.0900173 0 -0.0071469)
(0.100626 0 -0.0081641)
(0.109386 0 -0.00909053)
(0.11652 0 -0.00993625)
(0.122223 0 -0.0107068)
(0.126674 0 -0.0114047)
(0.130037 0 -0.0120301)
(0.132472 0 -0.0125841)
(0.134123 0 -0.0130635)
(0.135124 0 -0.0134617)
(0.135617 0 -0.0137741)
(0.135749 0 -0.0139968)
(0.135677 0 -0.0141269)
(0.135561 0 -0.01416)
(0.135582 0 -0.0140967)
(0.135957 0 -0.0139448)
(0.136933 0 -0.0137207)
(0.138797 0 -0.0134545)
(0.141915 0 -0.013203)
(0.146727 0 -0.0130579)
(0.153809 0 -0.0131767)
(0.163813 0 -0.0137944)
(0.177595 0 -0.0152974)
(0.195888 0 -0.0182231)
(0.219025 0 -0.0232851)
(0.231607 0 -0.0253484)
(0 0 0)
(0.0237272 0 -0.00196245)
(0.0448904 0 -0.0037342)
(0.062968 0 -0.00529421)
(0.0783316 0 -0.00668491)
(0.0913198 0 -0.00793816)
(0.102229 0 -0.00907695)
(0.11132 0 -0.0101193)
(0.11882 0 -0.0110775)
(0.12493 0 -0.0119583)
(0.129834 0 -0.0127659)
(0.133704 0 -0.0135025)
(0.136706 0 -0.0141703)
(0.138992 0 -0.0147682)
(0.14071 0 -0.0152937)
(0.142017 0 -0.0157466)
(0.143062 0 -0.0161237)
(0.144016 0 -0.0164264)
(0.145066 0 -0.0166607)
(0.146413 0 -0.0168343)
(0.148289 0 -0.0169649)
(0.15098 0 -0.0170858)
(0.154815 0 -0.0172474)
(0.160193 0 -0.0175296)
(0.167608 0 -0.0180573)
(0.177672 0 -0.0190243)
(0.191097 0 -0.0207172)
(0.208704 0 -0.0235621)
(0.230989 0 -0.0280811)
(0.257785 0 -0.034852)
(0.272958 0 -0.0381751)
(0 0 0)
(0.0240083 0 -0.002151)
(0.0454375 0 -0.00409419)
(0.0637822 0 -0.00580803)
(0.0794257 0 -0.0073394)
(0.09271 0 -0.00872332)
(0.10394 0 -0.009986)
(0.113386 0 -0.0111479)
(0.121278 0 -0.0122228)
(0.12782 0 -0.0132195)
(0.133205 0 -0.0141445)
(0.137614 0 -0.0150031)
(0.141218 0 -0.0157979)
(0.144171 0 -0.0165288)
(0.146639 0 -0.0171991)
(0.148793 0 -0.0178134)
(0.15079 0 -0.0183722)
(0.152816 0 -0.0188831)
(0.155079 0 -0.0193601)
(0.157797 0 -0.0198209)
(0.161226 0 -0.0202953)
(0.165683 0 -0.0208331)
(0.171545 0 -0.0215101)
(0.179245 0 -0.0224307)
(0.189331 0 -0.0237545)
(0.202433 0 -0.0257061)
(0.219346 0 -0.0286268)
(0.240777 0 -0.0329458)
(0.266966 0 -0.0391316)
(0.29714 0 -0.04756)
(0.31514 0 -0.0521538)
(0 0 0)
(0.0242988 0 -0.00233629)
(0.046012 0 -0.00444896)
(0.0646426 0 -0.00631565)
(0.0805829 0 -0.00798743)
(0.0941824 0 -0.00950296)
(0.105755 0 -0.0108922)
(0.115575 0 -0.0121769)
(0.123877 0 -0.0133723)
(0.130872 0 -0.0144902)
(0.136759 0 -0.0155392)
(0.141726 0 -0.0165266)
(0.145949 0 -0.0174577)
(0.149597 0 -0.0183365)
(0.152843 0 -0.0191694)
(0.155863 0 -0.0199645)
(0.158837 0 -0.02073)
(0.161963 0 -0.0214802)
(0.165459 0 -0.0222363)
(0.169567 0 -0.0230277)
(0.174571 0 -0.0238995)
(0.180805 0 -0.0249164)
(0.188682 0 -0.0261762)
(0.198691 0 -0.0278168)
(0.211407 0 -0.0300265)
(0.227523 0 -0.0330721)
(0.24786 0 -0.0373277)
(0.272988 0 -0.0432006)
(0.302926 0 -0.0510751)
(0.336149 0 -0.0610509)
(0.357756 0 -0.0669136)
(0 0 0)
(0.0245958 0 -0.002518)
(0.0466096 0 -0.00479832)
(0.0655431 0 -0.00681687)
(0.0817952 0 -0.0086287)
(0.0957267 0 -0.0102764)
(0.107655 0 -0.0117927)
(0.117859 0 -0.0132009)
(0.126584 0 -0.0145193)
(0.134047 0 -0.0157629)
(0.140451 0 -0.0169416)
(0.145991 0 -0.0180653)
(0.150852 0 -0.0191429)
(0.155215 0 -0.0201837)
(0.159254 0 -0.0211948)
(0.163151 0 -0.0221879)
(0.167108 0 -0.023181)
(0.171334 0 -0.0241951)
(0.17606 0 -0.0252596)
(0.181544 0 -0.0264152)
(0.188093 0 -0.0277226)
(0.196072 0 -0.0292657)
(0.205903 0 -0.0311597)
(0.218111 0 -0.0335701)
(0.23331 0 -0.0367191)
(0.252269 0 -0.0409215)
(0.275734 0 -0.0465515)
(0.304205 0 -0.054)
(0.337501 0 -0.063535)
(0.3734 0 -0.074966)
(0.400524 0 -0.0821347)
(0 0 0)
(0.024905 0 -0.00269598)
(0.0472282 0 -0.00514082)
(0.0664739 0 -0.00730898)
(0.0830488 0 -0.00925963)
(0.0973223 0 -0.011039)
(0.109615 0 -0.0126819)
(0.120214 0 -0.014215)
(0.129376 0 -0.01566)
(0.13732 0 -0.0170332)
(0.144251 0 -0.0183468)
(0.150377 0 -0.019615)
(0.155886 0 -0.0208484)
(0.160964 0 -0.0220589)
(0.165794 0 -0.0232594)
(0.170569 0 -0.0244659)
(0.1755 0 -0.0257031)
(0.180806 0 -0.0269992)
(0.186729 0 -0.0283922)
(0.193539 0 -0.0299336)
(0.201566 0 -0.0317002)
(0.211187 0 -0.033792)
(0.222846 0 -0.0363457)
(0.237064 0 -0.0395451)
(0.254487 0 -0.0436457)
(0.275865 0 -0.0489852)
(0.301838 0 -0.055938)
(0.332868 0 -0.064905)
(0.368529 0 -0.0760382)
(0.406516 0 -0.0890137)
(0.44326 0 -0.0975389)
(0 0 0)
(0.0252259 0 -0.00287126)
(0.0478682 0 -0.0054784)
(0.0674361 0 -0.00779484)
(0.0843451 0 -0.00988388)
(0.0989723 0 -0.0117952)
(0.111643 0 -0.0135665)
(0.122654 0 -0.0152281)
(0.132265 0 -0.0168037)
(0.140698 0 -0.0183103)
(0.148166 0 -0.0197636)
(0.154882 0 -0.0211813)
(0.161042 0 -0.0225774)
(0.166834 0 -0.0239664)
(0.172457 0 -0.0253676)
(0.178102 0 -0.0268003)
(0.183985 0 -0.0282937)
(0.190342 0 -0.0298857)
(0.197416 0 -0.0316218)
(0.205488 0 -0.0335638)
(0.214892 0 -0.0357999)
(0.226015 0 -0.0384462)
(0.239298 0 -0.0416541)
(0.255249 0 -0.0456247)
(0.274482 0 -0.0506303)
(0.297592 0 -0.0569939)
(0.325094 0 -0.0651038)
(0.35723 0 -0.0753875)
(0.393045 0 -0.0880575)
(0.429734 0 -0.103178)
(0.486025 0 -0.113019)
(0 0 0)
(0.0222583 0 0)
(0.0420002 0 0)
(0.0586681 0 0)
(0.0725704 0 0)
(0.0839974 0 0)
(0.0932074 0 0)
(0.100426 0 0)
(0.105847 0 0)
(0.10964 0 0)
(0.111952 0 0)
(0.112913 0 0)
(0.112637 0 0)
(0.111226 0 0)
(0.108774 0 0)
(0.105362 0 0)
(0.101067 0 0)
(0.0959617 0 0)
(0.0901189 0 0)
(0.0836107 0 0)
(0.0765121 0 0)
(0.0689043 0 0)
(0.0608778 0 0)
(0.0525379 0 0)
(0.0440087 0 0)
(0.0354446 0 0)
(0.027064 0 0)
(0.0191895 0 0)
(0.0123234 0 0)
(0.00745176 0 0)
(0 0 0)
(0 0 0)
(0.0222755 0 -0.000197941)
(0.0420318 0 -0.000375959)
(0.0587144 0 -0.0005315)
(0.0726326 0 -0.000668826)
(0.0840763 0 -0.000790636)
(0.0933043 0 -0.00089875)
(0.100543 0 -0.000994656)
(0.105987 0 -0.00107904)
(0.109806 0 -0.00115201)
(0.112147 0 -0.00121319)
(0.11314 0 -0.00126172)
(0.1129 0 -0.0012964)
(0.11153 0 -0.00131593)
(0.109124 0 -0.00131804)
(0.105765 0 -0.00129992)
(0.10153 0 -0.00125873)
(0.0964939 0 -0.00119081)
(0.0907296 0 -0.00109192)
(0.0843115 0 -0.00095715)
(0.0773169 0 -0.000780868)
(0.0698296 0 -0.000556697)
(0.0619441 0 -0.000277584)
(0.0537723 0 6.39592e-05)
(0.0454472 0 0.000475901)
(0.0371279 0 0.00096696)
(0.0290358 0 0.00154529)
(0.0215055 0 0.00221446)
(0.0150835 0 0.00296492)
(0.0108355 0 0.00371452)
(0.00454695 0 0.00476737)
(0 0 0)
(0.022328 0 -0.000396288)
(0.0421284 0 -0.000752524)
(0.0588554 0 -0.00106393)
(0.0728215 0 -0.00133913)
(0.0843146 0 -0.00158342)
(0.0935966 0 -0.00180035)
(0.100896 0 -0.00199307)
(0.106408 0 -0.00216297)
(0.110303 0 -0.00231031)
(0.112729 0 -0.00243435)
(0.113819 0 -0.00253349)
(0.113688 0 -0.00260519)
(0.11244 0 -0.00264575)
(0.110172 0 -0.00265213)
(0.10697 0 -0.00262026)
(0.102915 0 -0.00254354)
(0.0980824 0 -0.00241476)
(0.0925512 0 -0.00222583)
(0.0864005 0 -0.00196744)
(0.0797134 0 -0.00162892)
(0.0725813 0 -0.00119824)
(0.0651076 0 -0.000662124)
(0.0574227 0 -7.06243e-06)
(0.0496857 0 0.000780849)
(0.0420847 0 0.00171551)
(0.0348709 0 0.00280526)
(0.0283977 0 0.00404762)
(0.0232449 0 0.00540778)
(0.0206942 0 0.00669051)
(0.0157431 0 0.00850925)
(0 0 0)
(0.0224066 0 -0.000594799)
(0.0422838 0 -0.0011295)
(0.0590889 0 -0.00159717)
(0.0731348 0 -0.00201011)
(0.0847093 0 -0.00237673)
(0.0940802 0 -0.0027031)
(0.10148 0 -0.0029937)
(0.107104 0 -0.00325061)
(0.111124 0 -0.00347429)
(0.113692 0 -0.00366381)
(0.11494 0 -0.00381694)
(0.114989 0 -0.00393015)
(0.113944 0 -0.00399839)
(0.111906 0 -0.00401724)
(0.108965 0 -0.0039807)
(0.105205 0 -0.00387955)
(0.10071 0 -0.00370374)
(0.0955634 0 -0.00344211)
(0.0898539 0 -0.00308199)
(0.0836747 0 -0.00260887)
(0.0771297 0 -0.00200672)
(0.0703362 0 -0.0012581)
(0.0634419 0 -0.000345542)
(0.0566384 0 0.000746407)
(0.0501664 0 0.00202911)
(0.0443548 0 0.0035004)
(0.0396336 0 0.00513276)
(0.0365571 0 0.00684776)
(0.0365364 0 0.00831206)
(0.0335819 0 0.0105006)
(0 0 0)
(0.0225106 0 -0.000793223)
(0.0424967 0 -0.00150684)
(0.0594095 0 -0.00213122)
(0.0735635 0 -0.00268177)
(0.0852533 0 -0.00317091)
(0.0947507 0 -0.00360789)
(0.10229 0 -0.00399804)
(0.10807 0 -0.00434421)
(0.112264 0 -0.00464722)
(0.115027 0 -0.00490611)
(0.116495 0 -0.00511826)
(0.116792 0 -0.00527953)
(0.116029 0 -0.0053846)
(0.114309 0 -0.00542723)
(0.111729 0 -0.00539917)
(0.108378 0 -0.00528981)
(0.104347 0 -0.00508699)
(0.0997303 0 -0.00477775)
(0.0946283 0 -0.00434758)
(0.0891472 0 -0.00377964)
(0.0834048 0 -0.00305558)
(0.0775477 0 -0.00215822)
(0.0717482 0 -0.00107102)
(0.0662227 0 0.000218574)
(0.0612586 0 0.00171302)
(0.0572569 0 0.00339064)
(0.0548051 0 0.00517301)
(0.0545509 0 0.00691013)
(0.0577774 0 0.00813548)
(0.0571299 0 0.0102993)
(0 0 0)
(0.0226475 0 -0.00099108)
(0.0427696 0 -0.00188339)
(0.0598143 0 -0.00266452)
(0.0741036 0 -0.00335384)
(0.0859426 0 -0.00396744)
(0.095603 0 -0.00451696)
(0.10332 0 -0.00500911)
(0.109297 0 -0.00544774)
(0.113712 0 -0.00583424)
(0.116723 0 -0.0061678)
(0.11847 0 -0.00644567)
(0.119081 0 -0.00666331)
(0.118674 0 -0.00681534)
(0.117356 0 -0.0068947)
(0.115231 0 -0.00689169)
(0.112397 0 -0.00679476)
(0.108951 0 -0.00659028)
(0.105 0 -0.00626517)
(0.100663 0 -0.00580531)
(0.096061 0 -0.00519349)
(0.0913275 0 -0.00441131)
(0.0866343 0 -0.00344387)
(0.0821922 0 -0.00228157)
(0.0782622 0 -0.000923178)
(0.0751874 0 0.000614828)
(0.0734001 0 0.00228491)
(0.0735793 0 0.00395411)
(0.0766115 0 0.00536102)
(0.0836133 0 0.00591979)
(0.0855004 0 0.00771389)
(0 0 0)
(0.0228146 0 -0.00118779)
(0.0430995 0 -0.00225798)
(0.0603023 0 -0.00319558)
(0.0747551 0 -0.00402449)
(0.0867723 0 -0.00476407)
(0.0966271 0 -0.00542784)
(0.104558 0 -0.00602443)
(0.110772 0 -0.00655892)
(0.115451 0 -0.00703343)
(0.118758 0 -0.00744759)
(0.120838 0 -0.00779879)
(0.121824 0 -0.00808219)
(0.121839 0 -0.00829309)
(0.121002 0 -0.00842467)
(0.119421 0 -0.00846638)
(0.117205 0 -0.00840693)
(0.114461 0 -0.00823299)
(0.111308 0 -0.00793121)
(0.107879 0 -0.00748894)
(0.104321 0 -0.00689212)
(0.10079 0 -0.0061263)
(0.0974782 0 -0.0051817)
(0.0946303 0 -0.00405887)
(0.0925584 0 -0.00277352)
(0.091671 0 -0.00137084)
(0.0924742 0 5.79186e-05)
(0.0956324 0 0.00133366)
(0.102204 0 0.00207603)
(0.113274 0 0.00158716)
(0.117865 0 0.00271553)
(0 0 0)
(0.0230102 0 -0.00138358)
(0.043484 0 -0.00263065)
(0.0608686 0 -0.00372399)
(0.0755102 0 -0.00469246)
(0.0877326 0 -0.00555867)
(0.0978111 0 -0.00633822)
(0.105988 0 -0.0070417)
(0.112475 0 -0.00767563)
(0.117459 0 -0.00824307)
(0.121107 0 -0.00874439)
(0.123571 0 -0.00917759)
(0.124989 0 -0.00953885)
(0.125494 0 -0.00982374)
(0.125208 0 -0.0100252)
(0.12425 0 -0.0101335)
(0.122742 0 -0.010139)
(0.120809 0 -0.0100314)
(0.118572 0 -0.00979632)
(0.116182 0 -0.00942365)
(0.113814 0 -0.00890663)
(0.11165 0 -0.00823718)
(0.10991 0 -0.00741528)
(0.108878 0 -0.00645673)
(0.108912 0 -0.0053994)
(0.110457 0 -0.00431695)
(0.114114 0 -0.00335642)
(0.120578 0 -0.00275712)
(0.130915 0 -0.00298747)
(0.14613 0 -0.00482439)
(0.153458 0 -0.00461613)
(0 0 0)
(0.0232284 0 -0.00157839)
(0.043912 0 -0.00300129)
(0.0615046 0 -0.00425008)
(0.0763628 0 -0.00535868)
(0.0888168 0 -0.00635265)
(0.0991472 0 -0.00724995)
(0.107601 0 -0.00806329)
(0.114396 0 -0.00880084)
(0.119722 0 -0.00946684)
(0.123753 0 -0.0100626)
(0.126646 0 -0.0105874)
(0.128553 0 -0.0110398)
(0.129608 0 -0.011415)
(0.129938 0 -0.0117052)
(0.129672 0 -0.0119027)
(0.128948 0 -0.0120014)
(0.12791 0 -0.0119948)
(0.126692 0 -0.0118711)
(0.125459 0 -0.0116246)
(0.12441 0 -0.0112558)
(0.123757 0 -0.0107671)
(0.123752 0 -0.0101716)
(0.124717 0 -0.00950348)
(0.127063 0 -0.00882854)
(0.131282 0 -0.00825756)
(0.138011 0 -0.00798301)
(0.148047 0 -0.00832241)
(0.162324 0 -0.00979477)
(0.181588 0 -0.0131848)
(0.191581 0 -0.0140605)
(0 0 0)
(0.0234666 0 -0.0017715)
(0.0443798 0 -0.00336948)
(0.0622057 0 -0.00477415)
(0.0773068 0 -0.00602375)
(0.0900173 0 -0.0071469)
(0.100626 0 -0.0081641)
(0.109386 0 -0.00909053)
(0.11652 0 -0.00993625)
(0.122223 0 -0.0107068)
(0.126674 0 -0.0114047)
(0.130037 0 -0.0120301)
(0.132472 0 -0.0125841)
(0.134123 0 -0.0130635)
(0.135124 0 -0.0134617)
(0.135617 0 -0.0137741)
(0.135749 0 -0.0139968)
(0.135677 0 -0.0141269)
(0.135561 0 -0.01416)
(0.135582 0 -0.0140967)
(0.135957 0 -0.0139448)
(0.136933 0 -0.0137207)
(0.138797 0 -0.0134545)
(0.141915 0 -0.013203)
(0.146727 0 -0.0130579)
(0.153809 0 -0.0131767)
(0.163813 0 -0.0137944)
(0.177595 0 -0.0152974)
(0.195888 0 -0.0182231)
(0.219025 0 -0.0232851)
(0.231607 0 -0.0253484)
(0 0 0)
(0.0237272 0 -0.00196245)
(0.0448904 0 -0.0037342)
(0.062968 0 -0.00529421)
(0.0783316 0 -0.00668491)
(0.0913198 0 -0.00793816)
(0.102229 0 -0.00907695)
(0.11132 0 -0.0101193)
(0.11882 0 -0.0110775)
(0.12493 0 -0.0119583)
(0.129834 0 -0.0127659)
(0.133704 0 -0.0135025)
(0.136706 0 -0.0141703)
(0.138992 0 -0.0147682)
(0.14071 0 -0.0152937)
(0.142017 0 -0.0157466)
(0.143062 0 -0.0161237)
(0.144016 0 -0.0164264)
(0.145066 0 -0.0166607)
(0.146413 0 -0.0168343)
(0.148289 0 -0.0169649)
(0.15098 0 -0.0170858)
(0.154815 0 -0.0172474)
(0.160193 0 -0.0175296)
(0.167608 0 -0.0180573)
(0.177672 0 -0.0190243)
(0.191097 0 -0.0207172)
(0.208704 0 -0.0235621)
(0.230989 0 -0.0280811)
(0.257785 0 -0.034852)
(0.272958 0 -0.0381751)
(0 0 0)
(0.0240083 0 -0.002151)
(0.0454375 0 -0.00409419)
(0.0637822 0 -0.00580803)
(0.0794257 0 -0.0073394)
(0.09271 0 -0.00872332)
(0.10394 0 -0.009986)
(0.113386 0 -0.0111479)
(0.121278 0 -0.0122228)
(0.12782 0 -0.0132195)
(0.133205 0 -0.0141445)
(0.137614 0 -0.0150031)
(0.141218 0 -0.0157979)
(0.144171 0 -0.0165288)
(0.146639 0 -0.0171991)
(0.148793 0 -0.0178134)
(0.15079 0 -0.0183722)
(0.152816 0 -0.0188831)
(0.155079 0 -0.0193601)
(0.157797 0 -0.0198209)
(0.161226 0 -0.0202953)
(0.165683 0 -0.0208331)
(0.171545 0 -0.0215101)
(0.179245 0 -0.0224307)
(0.189331 0 -0.0237545)
(0.202433 0 -0.0257061)
(0.219346 0 -0.0286268)
(0.240777 0 -0.0329458)
(0.266966 0 -0.0391316)
(0.29714 0 -0.04756)
(0.31514 0 -0.0521538)
(0 0 0)
(0.0242988 0 -0.00233629)
(0.046012 0 -0.00444896)
(0.0646426 0 -0.00631565)
(0.0805829 0 -0.00798743)
(0.0941824 0 -0.00950296)
(0.105755 0 -0.0108922)
(0.115575 0 -0.0121769)
(0.123877 0 -0.0133723)
(0.130872 0 -0.0144902)
(0.136759 0 -0.0155392)
(0.141726 0 -0.0165266)
(0.145949 0 -0.0174577)
(0.149597 0 -0.0183365)
(0.152843 0 -0.0191694)
(0.155863 0 -0.0199645)
(0.158837 0 -0.02073)
(0.161963 0 -0.0214802)
(0.165459 0 -0.0222363)
(0.169567 0 -0.0230277)
(0.174571 0 -0.0238995)
(0.180805 0 -0.0249164)
(0.188682 0 -0.0261762)
(0.198691 0 -0.0278168)
(0.211407 0 -0.0300265)
(0.227523 0 -0.0330721)
(0.24786 0 -0.0373277)
(0.272988 0 -0.0432006)
(0.302926 0 -0.0510751)
(0.336149 0 -0.0610509)
(0.357756 0 -0.0669136)
(0 0 0)
(0.0245958 0 -0.002518)
(0.0466096 0 -0.00479832)
(0.0655431 0 -0.00681687)
(0.0817952 0 -0.0086287)
(0.0957267 0 -0.0102764)
(0.107655 0 -0.0117927)
(0.117859 0 -0.0132009)
(0.126584 0 -0.0145193)
(0.134047 0 -0.0157629)
(0.140451 0 -0.0169416)
(0.145991 0 -0.0180653)
(0.150852 0 -0.0191429)
(0.155215 0 -0.0201837)
(0.159254 0 -0.0211948)
(0.163151 0 -0.0221879)
(0.167108 0 -0.023181)
(0.171334 0 -0.0241951)
(0.17606 0 -0.0252596)
(0.181544 0 -0.0264152)
(0.188093 0 -0.0277226)
(0.196072 0 -0.0292657)
(0.205903 0 -0.0311597)
(0.218111 0 -0.0335701)
(0.23331 0 -0.0367191)
(0.252269 0 -0.0409215)
(0.275734 0 -0.0465515)
(0.304205 0 -0.054)
(0.337501 0 -0.063535)
(0.3734 0 -0.074966)
(0.400524 0 -0.0821347)
(0 0 0)
(0.024905 0 -0.00269598)
(0.0472282 0 -0.00514082)
(0.0664739 0 -0.00730898)
(0.0830488 0 -0.00925963)
(0.0973223 0 -0.011039)
(0.109615 0 -0.0126819)
(0.120214 0 -0.014215)
(0.129376 0 -0.01566)
(0.13732 0 -0.0170332)
(0.144251 0 -0.0183468)
(0.150377 0 -0.019615)
(0.155886 0 -0.0208484)
(0.160964 0 -0.0220589)
(0.165794 0 -0.0232594)
(0.170569 0 -0.0244659)
(0.1755 0 -0.0257031)
(0.180806 0 -0.0269992)
(0.186729 0 -0.0283922)
(0.193539 0 -0.0299336)
(0.201566 0 -0.0317002)
(0.211187 0 -0.033792)
(0.222846 0 -0.0363457)
(0.237064 0 -0.0395451)
(0.254487 0 -0.0436457)
(0.275865 0 -0.0489852)
(0.301838 0 -0.055938)
(0.332868 0 -0.064905)
(0.368529 0 -0.0760382)
(0.406516 0 -0.0890137)
(0.44326 0 -0.0975389)
(0 0 0)
(0.0252259 0 -0.00287126)
(0.0478682 0 -0.0054784)
(0.0674361 0 -0.00779484)
(0.0843451 0 -0.00988388)
(0.0989723 0 -0.0117952)
(0.111643 0 -0.0135665)
(0.122654 0 -0.0152281)
(0.132265 0 -0.0168037)
(0.140698 0 -0.0183103)
(0.148166 0 -0.0197636)
(0.154882 0 -0.0211813)
(0.161042 0 -0.0225774)
(0.166834 0 -0.0239664)
(0.172457 0 -0.0253676)
(0.178102 0 -0.0268003)
(0.183985 0 -0.0282937)
(0.190342 0 -0.0298857)
(0.197416 0 -0.0316218)
(0.205488 0 -0.0335638)
(0.214892 0 -0.0357999)
(0.226015 0 -0.0384462)
(0.239298 0 -0.0416541)
(0.255249 0 -0.0456247)
(0.274482 0 -0.0506303)
(0.297592 0 -0.0569939)
(0.325094 0 -0.0651038)
(0.35723 0 -0.0753875)
(0.393045 0 -0.0880575)
(0.429734 0 -0.103178)
(0.486025 0 -0.113019)
(0 0 0)
(0.0131181 0 0)
(0.0296477 0 0)
(0.0595076 0 0)
(0.101179 0 0)
(0.148071 0 0)
(0.192077 0 0)
(0.228422 0 0)
(0.256297 0 0)
(0.276805 0 0)
(0.291439 0 0)
(0.30143 0 0)
(0.307655 0 0)
(0.310733 0 0)
(0.311081 0 0)
(0.308978 0 0)
(0.3046 0 0)
(0.298036 0 0)
(0.289317 0 0)
(0.278442 0 0)
(0.265385 0 0)
(0.250095 0 0)
(0.232511 0 0)
(0.212559 0 0)
(0.190158 0 0)
(0.165222 0 0)
(0.137661 0 0)
(0.107385 0 0)
(0.0743107 0 0)
(0.0383092 0 0)
(0 0 0)
(0.00396722 0 -0.00569017)
(0.016547 0 -0.00665971)
(0.0335928 0 -0.00823233)
(0.0637625 0 -0.0102756)
(0.105314 0 -0.0124045)
(0.151672 0 -0.0141193)
(0.194961 0 -0.015138)
(0.230633 0 -0.0155103)
(0.25797 0 -0.0153765)
(0.278082 0 -0.0149111)
(0.292429 0 -0.0142606)
(0.302208 0 -0.0134952)
(0.308274 0 -0.0126727)
(0.311232 0 -0.0118433)
(0.311488 0 -0.0110035)
(0.309313 0 -0.010154)
(0.304878 0 -0.00934069)
(0.298268 0 -0.00857732)
(0.289512 0 -0.00785439)
(0.278608 0 -0.0071667)
(0.265526 0 -0.00650893)
(0.250216 0 -0.0058752)
(0.232615 0 -0.00525913)
(0.212649 0 -0.00465384)
(0.190236 0 -0.00405192)
(0.165289 0 -0.00344534)
(0.137718 0 -0.00282526)
(0.107433 0 -0.0021818)
(0.0743485 0 -0.00150376)
(0.0383343 0 -0.000777008)
(0 0 0)
(0.0136263 0 -0.0117401)
(0.0266423 0 -0.0137233)
(0.0452108 0 -0.0168777)
(0.0762373 0 -0.0208383)
(0.117438 0 -0.0248443)
(0.162239 0 -0.0279882)
(0.20343 0 -0.0298019)
(0.23713 0 -0.0303932)
(0.262892 0 -0.03006)
(0.281844 0 -0.0291265)
(0.295347 0 -0.0278511)
(0.304499 0 -0.0263704)
(0.310098 0 -0.0247931)
(0.312696 0 -0.0231736)
(0.312673 0 -0.0215279)
(0.310285 0 -0.0199001)
(0.305683 0 -0.0183427)
(0.298937 0 -0.0168664)
(0.290072 0 -0.0154626)
(0.279079 0 -0.0141233)
(0.265923 0 -0.0128389)
(0.250553 0 -0.0115984)
(0.232901 0 -0.0103898)
(0.212892 0 -0.00919999)
(0.190442 0 -0.00801462)
(0.165463 0 -0.00681811)
(0.137863 0 -0.00559327)
(0.107549 0 -0.00432078)
(0.0744342 0 -0.00297872)
(0.0383826 0 -0.00153932)
(0 0 0)
(0.0292535 0 -0.0185251)
(0.0428611 0 -0.0215263)
(0.0636577 0 -0.0262654)
(0.0957828 0 -0.0319436)
(0.136253 0 -0.0374406)
(0.178569 0 -0.0415718)
(0.216545 0 -0.0438365)
(0.247247 0 -0.0444289)
(0.270628 0 -0.0438081)
(0.287808 0 -0.0424089)
(0.299999 0 -0.040547)
(0.308169 0 -0.0384185)
(0.313016 0 -0.0361424)
(0.315034 0 -0.0337845)
(0.314569 0 -0.0314141)
(0.311841 0 -0.0290987)
(0.306968 0 -0.0268752)
(0.300004 0 -0.0247516)
(0.290963 0 -0.0227235)
(0.279826 0 -0.0207814)
(0.266551 0 -0.0189128)
(0.251082 0 -0.0171028)
(0.233348 0 -0.0153344)
(0.21327 0 -0.013589)
(0.190761 0 -0.0118461)
(0.16573 0 -0.0100834)
(0.138083 0 -0.0082758)
(0.107724 0 -0.0063953)
(0.0745616 0 -0.00440994)
(0.0384533 0 -0.00227915)
(0 0 0)
(0.0501286 0 -0.0263768)
(0.0645072 0 -0.0303159)
(0.0878959 0 -0.0366044)
(0.121111 0 -0.0437658)
(0.160303 0 -0.0502973)
(0.199296 0 -0.0549131)
(0.233212 0 -0.0572349)
(0.26022 0 -0.0576126)
(0.28067 0 -0.0566218)
(0.295626 0 -0.0547488)
(0.306138 0 -0.0523383)
(0.313022 0 -0.0496011)
(0.316876 0 -0.0466678)
(0.318138 0 -0.0436533)
(0.317096 0 -0.040655)
(0.313914 0 -0.0377312)
(0.30868 0 -0.034911)
(0.301424 0 -0.0322046)
(0.292146 0 -0.0296091)
(0.280813 0 -0.0271145)
(0.267378 0 -0.0247059)
(0.251776 0 -0.0223652)
(0.233931 0 -0.0200715)
(0.21376 0 -0.0178014)
(0.191172 0 -0.0155291)
(0.166072 0 -0.0132259)
(0.138363 0 -0.0108599)
(0.107944 0 -0.008395)
(0.0747194 0 -0.00578996)
(0.0385395 0 -0.00299247)
(0 0 0)
(0.0756465 0 -0.0355057)
(0.0908494 0 -0.0402554)
(0.116889 0 -0.0479871)
(0.150857 0 -0.0563022)
(0.188045 0 -0.0633509)
(0.22299 0 -0.0679434)
(0.252321 0 -0.0699638)
(0.275261 0 -0.0699407)
(0.292449 0 -0.0684995)
(0.304882 0 -0.0661366)
(0.31344 0 -0.0631874)
(0.318806 0 -0.0598679)
(0.321501 0 -0.0563513)
(0.321881 0 -0.0527773)
(0.320152 0 -0.0492348)
(0.316426 0 -0.0457754)
(0.310753 0 -0.0424276)
(0.303142 0 -0.039202)
(0.293573 0 -0.0360964)
(0.282003 0 -0.0331001)
(0.268371 0 -0.0301968)
(0.252606 0 -0.0273657)
(0.234625 0 -0.0245827)
(0.21434 0 -0.0218205)
(0.191655 0 -0.0190484)
(0.166471 0 -0.0162325)
(0.138686 0 -0.0133344)
(0.108195 0 -0.0103108)
(0.0748974 0 -0.00711231)
(0.0386355 0 -0.00367579)
(0 0 0)
(0.105176 0 -0.0459951)
(0.121195 0 -0.0514099)
(0.149608 0 -0.0603739)
(0.18363 0 -0.0693822)
(0.218003 0 -0.0763977)
(0.248376 0 -0.0805229)
(0.272885 0 -0.0819642)
(0.291607 0 -0.0813856)
(0.305379 0 -0.0794214)
(0.315104 0 -0.0765375)
(0.321535 0 -0.0730525)
(0.325266 0 -0.0692107)
(0.326714 0 -0.0652017)
(0.326125 0 -0.061152)
(0.323627 0 -0.0571409)
(0.319285 0 -0.0532178)
(0.313114 0 -0.0494099)
(0.305097 0 -0.0457275)
(0.295196 0 -0.0421685)
(0.283351 0 -0.0387215)
(0.269492 0 -0.035369)
(0.253538 0 -0.0320885)
(0.2354 0 -0.0288531)
(0.214983 0 -0.0256323)
(0.192187 0 -0.0223914)
(0.166907 0 -0.0190918)
(0.139036 0 -0.0156896)
(0.108465 0 -0.0121351)
(0.0750863 0 -0.00837148)
(0.0387361 0 -0.00432617)
(0 0 0)
(0.138115 0 -0.0578026)
(0.154858 0 -0.0637272)
(0.185098 0 -0.073615)
(0.218246 0 -0.0827767)
(0.248995 0 -0.0892226)
(0.274429 0 -0.0925065)
(0.294043 0 -0.0931482)
(0.308543 0 -0.0918922)
(0.318854 0 -0.0893359)
(0.325806 0 -0.0859072)
(0.330084 0 -0.0819292)
(0.332164 0 -0.0776463)
(0.332326 0 -0.073225)
(0.330717 0 -0.0687751)
(0.327401 0 -0.0643689)
(0.322396 0 -0.0600521)
(0.315685 0 -0.0558498)
(0.307226 0 -0.0517713)
(0.296959 0 -0.0478142)
(0.284813 0 -0.0439667)
(0.270703 0 -0.0402104)
(0.254541 0 -0.0365214)
(0.23623 0 -0.0328709)
(0.215667 0 -0.0292257)
(0.192748 0 -0.0255479)
(0.167362 0 -0.0217947)
(0.139398 0 -0.0179177)
(0.108741 0 -0.0138615)
(0.0752775 0 -0.00956297)
(0.0388369 0 -0.00494121)
(0 0 0)
(0.173886 0 -0.0708248)
(0.191196 0 -0.077067)
(0.222485 0 -0.0874751)
(0.253668 0 -0.0962017)
(0.280019 0 -0.101583)
(0.300261 0 -0.103721)
(0.315018 0 -0.103397)
(0.325374 0 -0.101368)