/*--------------------------------*- C++ -*----------------------------------*\
| =========                 |                                                 |
| \\      /  F ield         | OpenFOAM: The Open Source CFD Toolbox           |
|  \\    /   O peration     | Version:  dev                                   |
|   \\  /    A nd           | Web:      www.OpenFOAM.org                      |
|    \\/     M anipulation  |                                                 |
\*---------------------------------------------------------------------------*/
FoamFile
{
    version     2.0;
    format      ascii;
    class       volVectorField;
    location    "2.48";
    object      U;
}
// * * * * * * * * * * * * * * * * * * * * * * * * * * * * * * * * * * * * * //

dimensions      [0 1 -1 0 0 0 0];

internalField   nonuniform List<vector> 
2790
(
(9.94001 -4.77968e-20 0.0184905)
(9.86825 -3.10481e-21 0.0255802)
(9.77066 3.23828e-21 0.0301279)
(9.65666 6.80156e-21 0.0347229)
(9.53114 2.13044e-20 0.0394095)
(9.39454 1.48523e-20 0.0441358)
(9.24634 -3.11723e-20 0.049016)
(9.08617 1.62164e-20 0.0541985)
(8.91364 -1.70608e-20 0.0598086)
(8.72814 0 0.0659581)
(8.52882 -9.37886e-21 0.0727608)
(8.31468 0 0.080342)
(8.08454 5.16759e-21 0.0888453)
(7.83706 4.38036e-20 0.0984313)
(7.5707 -4.24813e-20 0.109278)
(7.28377 0 0.121594)
(6.9744 1.26324e-20 0.135617)
(6.64056 0 0.151613)
(6.2801 0 0.16987)
(5.89077 2.94544e-20 0.190688)
(5.47033 -6.19649e-20 0.214372)
(5.01665 0 0.241227)
(4.5278 0 0.271548)
(4.00226 0 0.305576)
(3.43912 0 0.343412)
(2.83839 -1.55132e-19 0.384857)
(2.20141 0 0.428924)
(1.53209 0 0.471703)
(0.830451 0 0.49861)
(0.296217 0 0.365113)
(10.005 4.77638e-20 0.0360011)
(9.99421 -6.19839e-21 0.0517214)
(9.95919 6.4614e-21 0.0625867)
(9.90566 0 0.0740277)
(9.83756 -2.82993e-20 0.0861388)
(9.75561 -4.43802e-20 0.0987237)
(9.65953 -1.56178e-20 0.112002)
(9.5491 3.22602e-20 0.126305)
(9.42405 5.08722e-20 0.14192)
(9.28387 0 0.15911)
(9.12786 9.31401e-21 0.178146)
(8.95512 0 0.199328)
(8.76459 -8.76857e-20 0.223009)
(8.55502 8.53938e-20 0.249595)
(8.32489 -8.4629e-21 0.279525)
(8.07249 1.91468e-19 0.313273)
(7.79598 -2.10331e-19 0.351362)
(7.49331 5.23389e-20 0.394351)
(7.16225 0 0.442828)
(6.80041 -4.3903e-19 0.497345)
(6.40524 4.21948e-19 0.558358)
(5.9741 6.33664e-19 0.626176)
(5.50435 -5.40027e-19 0.700916)
(4.99329 -5.73656e-19 0.782321)
(4.43825 1.44689e-18 0.869485)
(3.83643 1.66981e-18 0.960484)
(3.18412 -1.54807e-18 1.05161)
(2.4751 -2.55214e-18 1.136)
(1.66964 -1.86516e-20 1.2098)
(0.96017 -8.06062e-21 1.24053)
(10.0023 0 0.0359129)
(9.98921 -8.64812e-20 0.0583262)
(9.95691 -1.29035e-20 0.0763904)
(9.90847 0 0.0952422)
(9.8466 0 0.115252)
(9.77209 8.85571e-20 0.136254)
(9.68483 6.20417e-20 0.158544)
(9.58466 -6.43347e-20 0.182582)
(9.47137 -1.01827e-19 0.208799)
(9.34455 3.50564e-20 0.237605)
(9.20362 -3.70356e-20 0.269437)
(9.04784 0 0.304782)
(8.87633 0 0.34422)
(8.68804 0 0.388444)
(8.48166 5.6096e-21 0.438217)
(8.25569 2.34742e-20 0.494344)
(8.00846 -4.47807e-19 0.557692)
(7.73813 3.59341e-19 0.629225)
(7.44266 0 0.710002)
(7.11972 -1.71049e-19 0.801089)
(6.76667 1.20025e-19 0.903439)
(6.38055 -1.25729e-19 1.01783)
(5.95797 0 1.14483)
(5.49497 0 1.28457)
(4.98649 -2.57389e-18 1.43645)
(4.42568 2.03748e-18 1.59912)
(3.80206 -2.12441e-18 1.77038)
(3.09922 -2.3793e-20 1.94744)
(2.26247 2.44473e-18 2.13797)
(1.37096 -4.01262e-18 2.38787)
(10.0005 -5.94179e-21 0.0380766)
(9.98488 1.17299e-19 0.0688478)
(9.95239 -9.01033e-20 0.0955839)
(9.90502 -5.39174e-20 0.122268)
(9.84456 -8.44938e-20 0.149877)
(9.77182 -8.83131e-23 0.178625)
(9.68686 6.15151e-20 0.208998)
(9.58962 -1.29416e-19 0.241599)
(9.47999 1.34071e-19 0.276998)
(9.3577 1.77077e-19 0.315759)
(9.22234 -1.09794e-19 0.358487)
(9.07332 3.8571e-20 0.405851)
(8.90991 -2.01992e-20 0.458619)
(8.73134 -3.41859e-19 0.517718)
(8.53668 -5.40711e-21 0.584203)
(8.32483 -2.9245e-20 0.659193)
(8.09451 -6.13435e-21 0.743876)
(7.8443 4.06466e-19 0.839599)
(7.57259 0 0.947918)
(7.27756 1.12794e-19 1.0705)
(6.95696 9.49244e-19 1.20899)
(6.60791 1.96653e-18 1.36494)
(6.22704 -1.01675e-18 1.53988)
(5.81003 -1.883e-18 1.73522)
(5.35053 2.19095e-18 1.952)
(4.83939 2.81758e-19 2.19131)
(4.26304 -4.66876e-18 2.45558)
(3.60141 4.68668e-18 2.75079)
(2.82919 2.88411e-19 3.07524)
(1.79557 -1.91609e-18 3.59541)
(9.99954 1.89353e-19 0.0418127)
(9.98235 0 0.0795718)
(9.94948 1.02944e-19 0.113752)
(9.90291 0 0.147347)
(9.84371 5.60714e-20 0.1818)
(9.7725 -2.32823e-22 0.21773)
(9.68945 -6.20699e-20 0.255787)
(9.5946 1.27708e-19 0.296653)
(9.48786 0 0.340981)
(9.36906 0 0.389442)
(9.23787 0 0.442775)
(9.09386 -1.34024e-22 0.501806)
(8.93638 -3.03443e-19 0.567441)
(8.76476 3.34125e-19 0.640732)
(8.57838 3.5489e-19 0.722921)
(8.37651 -1.10947e-18 0.815382)
(8.15831 3.63291e-20 0.919589)
(7.92261 -1.28927e-20 1.03717)
(7.66833 -1.18849e-19 1.17007)
(7.39429 -1.24164e-19 1.32053)
(7.09884 9.14985e-19 1.49093)
(6.77951 0 1.68364)
(6.43332 1.7644e-18 1.90128)
(6.05655 -4.8829e-19 2.14695)
(5.64326 -4.26734e-18 2.42412)
(5.18449 1.35824e-18 2.73689)
(4.66796 0 3.09151)
(4.06976 2.74645e-19 3.50427)
(3.44004 -4.50869e-18 3.9297)
(2.28389 5.45482e-18 4.71399)
(9.99906 -3.88174e-22 0.0463361)
(9.98094 0 0.0903823)
(9.94797 5.13808e-20 0.131555)
(9.90239 -1.07181e-19 0.172024)
(9.84471 -5.59791e-20 0.213377)
(9.77529 0 0.256507)
(9.69438 -1.22276e-19 0.302188)
(9.60208 0 0.351167)
(9.49838 -6.65581e-20 0.404168)
(9.38316 -2.107e-19 0.461955)
(9.25618 3.62428e-19 0.525387)
(9.11717 -3.82626e-19 0.595441)
(8.96568 3.16502e-19 0.67318)
(8.80109 -3.35339e-19 0.759765)
(8.62291 3.45878e-19 0.856547)
(8.43065 1.13376e-20 0.9651)
(8.2238 -4.7385e-20 1.08719)
(8.00145 -8.01393e-19 1.22471)
(7.76277 9.28222e-19 1.37983)
(7.50718 1.08727e-19 1.55523)
(7.23368 -2.23842e-19 1.75404)
(6.94071 0 1.97958)
(6.62581 2.1958e-18 2.23542)
(6.28607 -3.74805e-18 2.52614)
(5.91727 1.78788e-18 2.85759)
(5.51261 4.72484e-18 3.23677)
(5.06457 -2.46826e-19 3.671)
(4.53715 -2.74584e-19 4.18882)
(4.09361 -8.50405e-18 4.66623)
(2.82827 4.80827e-18 5.67498)
(9.99887 -1.88498e-19 0.0512581)
(9.98031 1.7091e-19 0.101266)
(9.94758 2.55124e-20 0.149015)
(9.90323 0 0.19611)
(9.84731 1.11585e-19 0.24416)
(9.77998 0 0.294239)
(9.70154 -1.22008e-19 0.347235)
(9.6122 1.26375e-19 0.403977)
(9.51201 6.63454e-20 0.465264)
(9.40089 2.08877e-19 0.531939)
(9.27871 -1.41306e-19 0.604956)
(9.14528 -5.65968e-19 0.68542)
(9.00031 6.69894e-19 0.774555)
(8.84334 -9.89976e-19 0.873639)
(8.67398 6.83125e-19 0.984104)
(8.49185 7.11495e-19 1.10765)
(8.29668 -6.96801e-19 1.24628)
(8.08805 0 1.40218)
(7.86526 1.63787e-18 1.57767)
(7.62792 -1.67986e-18 1.77573)
(7.37567 1.98775e-18 2.00004)
(7.10803 -2.22318e-20 2.2548)
(6.82352 -2.06511e-20 2.54464)
(6.52014 5.78302e-18 2.87527)
(6.19566 5.17616e-19 3.25412)
(5.84586 -7.94366e-18 3.69044)
(5.47131 4.22878e-18 4.18986)
(5.01232 0 4.79759)
(4.76718 7.59246e-18 5.28419)
(3.40492 -8.75834e-18 6.46682)
(9.99884 0 0.0563455)
(9.98023 -3.89703e-19 0.112099)
(9.94805 0 0.166032)
(9.90508 0 0.219446)
(9.85115 1.1127e-19 0.273966)
(9.78626 1.50475e-22 0.330753)
(9.71074 0 0.390775)
(9.62489 -1.25827e-19 0.454948)
(9.52881 0 0.524144)
(9.42247 0 0.599278)
(9.30579 7.17568e-20 0.681385)
(9.17862 0 0.771672)
(9.0408 -3.90684e-20 0.871496)
(8.8921 0 0.982248)
(8.73222 6.82131e-19 1.10544)
(8.56096 -1.41274e-18 1.24288)
(8.37811 7.30742e-19 1.39669)
(8.18381 1.53995e-18 1.5693)
(7.97772 1.99311e-20 1.76335)
(7.75949 1.98858e-20 1.98197)
(7.52928 1.92709e-20 2.2292)
(7.28731 -1.76699e-18 2.50986)
(7.0333 1.68592e-18 2.8295)
(6.76667 -1.13966e-19 3.19484)
(6.48704 -3.98103e-18 3.61422)
(6.19184 3.75477e-18 4.0983)
(5.89223 0 4.64849)
(5.49493 0 5.3323)
(5.43863 -6.68452e-18 5.80092)
(3.9919 7.84193e-18 7.10968)
(9.99886 0 0.0614524)
(9.98056 2.42855e-19 0.122753)
(9.94921 -5.0594e-20 0.182527)
(9.90774 0 0.241958)
(9.85598 0 0.302676)
(9.79382 2.30053e-19 0.365874)
(9.72158 -2.40183e-19 0.432581)
(9.63964 2.50145e-19 0.503799)
(9.54816 1.30208e-19 0.580474)
(9.44713 0 0.663593)
(9.33652 1.41385e-19 0.754272)
(9.21615 0 0.853779)
(9.08608 0 0.963537)
(8.94636 0 1.08505)
(8.79677 0 1.21996)
(8.63726 6.98044e-19 1.37015)
(8.46777 7.33603e-19 1.5378)
(8.28866 -1.48764e-18 1.7255)
(8.10004 0 1.93616)
(7.90192 0 2.17317)
(7.69489 1.70977e-18 2.44079)
(7.47967 3.33794e-18 2.74419)
(7.257 1.85693e-18 3.08963)
(7.02777 -3.40073e-18 3.48466)
(6.79321 3.56613e-18 3.93795)
(6.55158 -3.53631e-18 4.46148)
(6.32587 -4.24377e-19 5.05041)
(5.9832 -8.10445e-19 5.7988)
(6.09388 0 6.24038)
(4.57605 0 7.63741)
(9.99892 -3.7128e-19 0.0664832)
(9.98121 4.33999e-19 0.133106)
(9.95094 -2.51692e-19 0.198427)
(9.91112 0 0.263586)
(9.86169 0 0.330194)
(9.80249 -4.57605e-19 0.399466)
(9.73377 -2.39316e-19 0.472483)
(9.65603 3.73077e-19 0.550322)
(9.56951 -3.87497e-19 0.634002)
(9.47421 0 0.72458)
(9.3702 -1.40668e-19 0.82326)
(9.25729 -5.86846e-19 0.931355)
(9.13566 4.53111e-19 1.05027)
(9.00553 7.85936e-20 1.1816)
(8.86688 -8.16081e-20 1.32713)
(8.71989 0 1.48884)
(8.5647 -1.41875e-18 1.66893)
(8.40177 -1.47254e-20 1.87009)
(8.23149 1.50117e-18 2.09542)
(8.05438 2.40799e-20 2.34854)
(7.87151 -2.5591e-20 2.63386)
(7.68409 7.66715e-20 2.95684)
(7.49375 3.31728e-18 3.32421)
(7.30272 -3.34279e-18 3.74416)
(7.11339 1.79143e-19 4.22544)
(6.92403 0 4.78153)
(6.76946 4.09004e-19 5.40042)
(6.47638 7.7944e-19 6.20399)
(6.72706 5.4636e-18 6.62679)
(5.15431 -6.50387e-18 8.08931)
(9.999 3.47452e-19 0.071373)
(9.98208 -3.12798e-19 0.143054)
(9.95312 1.50832e-19 0.213645)
(9.91515 0 0.284247)
(9.86828 -1.09359e-19 0.356421)
(9.81228 6.81895e-19 0.431411)
(9.74736 1.18169e-19 0.51035)
(9.67413 1.23482e-19 0.594365)
(9.59289 -2.57448e-19 0.684549)
(9.50366 2.65713e-19 0.78202)
(9.40655 0 0.888054)
(9.30165 0 1.00402)
(9.18916 7.51819e-19 1.13132)
(9.06912 -8.51076e-19 1.27153)
(8.94188 -7.26612e-19 1.42654)
(8.808 6.63961e-19 1.59843)
(8.66777 -8.56839e-20 1.78944)
(8.52177 0 2.00235)
(8.37071 0 2.24041)
(8.21551 -1.53227e-18 2.50728)
(8.05767 1.50868e-18 2.80754)
(7.89894 -2.46919e-20 3.14685)
(7.74167 0 3.53226)
(7.58915 -2.96098e-18 3.97246)
(7.44555 6.06959e-18 4.47655)
(7.30794 -3.09028e-18 5.05977)
(7.22124 0 5.70325)
(6.97645 0 6.55416)
(7.34087 4.90041e-18 6.98131)
(5.73504 -1.00687e-18 8.50842)
(9.99915 -2.30216e-20 0.0760818)
(9.98303 -3.57714e-19 0.152521)
(9.95554 0 0.228088)
(9.91967 0 0.303831)
(9.87563 -2.16303e-19 0.38123)
(9.82307 -4.51324e-19 0.461569)
(9.76226 -1.0735e-21 0.546022)
(9.69388 -2.45112e-19 0.63576)
(9.6182 2.53105e-19 0.73195)
(9.53531 3.96426e-19 0.835755)
(9.44536 4.13831e-19 0.948457)
(9.34876 -5.66413e-19 1.07148)
(9.24584 1.46789e-19 1.2063)
(9.13647 1.53403e-19 1.35447)
(9.02121 7.93471e-19 1.51782)
(8.90092 -6.50261e-19 1.6985)
(8.7761 8.47015e-20 1.89886)
(8.64752 -1.39024e-18 2.12174)
(8.51629 1.417e-18 2.37042)
(8.38372 0 2.64862)
(8.25164 -1.82974e-19 2.96096)
(8.12231 0 3.31326)
(7.99879 -3.70666e-19 3.71281)
(7.88493 1.78382e-19 4.16854)
(7.78725 0 4.69033)
(7.70154 -2.7992e-18 5.29562)
(7.68065 1.4277e-18 5.96151)
(7.4892 -6.09601e-18 6.85243)
(7.94722 9.19342e-18 7.31898)
(6.34062 -4.53517e-18 8.93883)
(9.99956 3.65408e-19 0.0805658)
(9.9841 7.12602e-19 0.161479)
(9.95806 -3.95989e-19 0.241697)
(9.92451 -5.19563e-20 0.322238)
(9.88346 3.2312e-19 0.404506)
(9.83451 -2.23572e-19 0.489814)
(9.77805 -2.39992e-21 0.579356)
(9.7147 2.41351e-19 0.674349)
(9.64483 2.50603e-19 0.776025)
(9.56864 -1.30846e-19 0.885579)
(9.48629 4.07351e-19 1.00427)
(9.39832 -5.5862e-19 1.13354)
(9.30511 -1.45714e-19 1.27494)
(9.20691 0 1.43008)
(9.10418 6.21817e-19 1.60066)
(8.99783 -6.36307e-19 1.78876)
(8.88878 -1.63058e-19 1.99687)
(8.77799 -1.67122e-19 2.22784)
(8.667 0 2.48495)
(8.55748 1.40344e-18 2.77191)
(8.45157 -8.88856e-19 3.09334)
(8.35207 0 3.45515)
(8.26286 3.61448e-19 3.86478)
(8.18838 -3.1506e-18 4.33132)
(8.13659 2.76563e-18 4.86528)
(8.10326 1.28335e-18 5.48643)
(8.14792 1.26592e-18 6.17335)
(8.02317 3.33516e-18 7.09494)
(8.56575 0 7.6432)
(7.0092 4.92746e-18 9.42108)
(10.0001 -3.6467e-19 0.0847715)
(9.98532 -3.31271e-19 0.169914)
(9.96078 3.45686e-19 0.254446)
(9.92965 -1.02851e-19 0.339405)
(9.8917 -3.19785e-19 0.426167)
(9.84657 1.04883e-21 0.516041)
(9.79466 -2.31469e-19 0.610236)
(9.73652 -2.40406e-19 0.710003)
(9.67269 -2.99308e-21 0.816612)
(9.60346 2.5702e-19 0.93128)
(9.52901 2.65959e-19 1.05527)
(9.44992 0 1.19002)
(9.36655 2.84099e-19 1.33707)
(9.27969 -5.91015e-19 1.49806)
(9.18985 9.06816e-19 1.67466)
(9.0978 0 1.86884)
(9.00475 1.61122e-19 2.0831)
(8.91195 -1.59766e-19 2.32024)
(8.82141 -3.30459e-19 2.58349)
(8.73507 -3.34743e-19 2.87653)
(8.65542 -3.44561e-19 3.20396)
(8.58578 -2.38067e-18 3.57155)
(8.53096 3.01701e-20 3.98678)
(8.49654 2.67015e-18 4.45895)
(8.49109 0 4.99892)
(8.51194 -1.23851e-18 5.62765)
(8.62328 -1.09312e-18 6.33088)
(8.58719 -1.45861e-19 7.26614)
(9.21918 -1.61769e-18 7.93319)
(7.79081 -1.4811e-18 9.99128)
(10.0006 -3.38468e-19 0.088665)
(9.98666 -7.04531e-20 0.177779)
(9.96379 -4.91439e-20 0.266287)
(9.93522 -3.08024e-22 0.355287)
(9.9005 5.31093e-19 0.446159)
(9.85934 1.09052e-21 0.540188)
(9.81208 0 0.638596)
(9.7593 0 0.742653)
(9.70169 -9.81573e-23 0.853639)
(9.63951 2.5683e-19 0.972794)
(9.57305 -2.61432e-19 1.10139)
(9.50294 -8.13579e-19 1.24085)
(9.4297 -8.45012e-19 1.39264)
(9.35418 2.84485e-19 1.55837)
(9.27728 -1.48536e-21 1.73975)
(9.19982 3.02878e-19 1.93871)
(9.12285 0 2.15755)
(9.04811 6.35827e-19 2.39898)
(8.97791 -9.64956e-19 2.66609)
(8.91454 1.63404e-18 2.96252)
(8.86098 0 3.29279)
(8.82088 -2.92116e-18 3.66228)
(8.79997 2.58451e-18 4.07817)
(8.80506 0 4.54977)
(8.84608 1.17401e-18 5.088)
(8.92352 0 5.71292)
(9.10299 3.01767e-18 6.41951)
(9.18232 -3.80778e-18 7.33653)
(9.91855 1.34351e-18 8.12505)
(8.754 -1.88242e-18 10.7084)
(0.0271142 1.13311e-20 -0.0238757)
(0.080609 1.07572e-20 -0.0470432)
(0.218204 -1.81063e-20 -0.0484731)
(0.376451 8.17158e-21 -0.0382192)
(0.510478 0 -0.0241739)
(0.601192 -5.90251e-21 -0.0129654)
(0.654061 0 -0.00623904)
(0.684114 1.76591e-21 -0.00335337)
(0.704518 -1.84613e-21 -0.00278613)
(0.722398 0 -0.00308969)
(0.740126 0 -0.00360934)
(0.758117 2.24285e-22 -0.00396232)
(0.775163 0 -0.00337839)
(0.788394 -3.2681e-22 -0.00162198)
(0.795572 0 0.00021579)
(0.798209 5.48223e-22 0.000835869)
(0.799871 0 0.000880634)
(0.800756 4.74763e-22 0.00226757)
(0.796748 -4.08177e-22 0.00517395)
(0.785112 0 0.00739106)
(0.768852 0 0.00663318)
(0.756811 0 0.00221373)
(0.759165 6.43967e-23 -0.00465961)
(0.780581 1.37849e-23 -0.0118102)
(0.819697 0 -0.0179214)
(0.873724 2.49538e-22 -0.0242341)
(0.943497 -1.47341e-23 -0.033064)
(1.03353 1.30903e-23 -0.0443941)
(1.14734 -1.29058e-23 -0.0561566)
(1.31587 1.92749e-22 -0.0645186)
(0.0221704 -5.70641e-20 -0.0430846)
(0.0427096 3.13984e-20 -0.112123)
(0.18293 -9.71413e-21 -0.133741)
(0.349768 0 -0.11408)
(0.501708 0 -0.0802379)
(0.613326 5.91758e-21 -0.0508541)
(0.685362 0 -0.0316434)
(0.730732 -9.93906e-22 -0.0218137)
(0.761744 0 -0.0180169)
(0.785871 0 -0.0168473)
(0.806329 1.1281e-21 -0.0168968)
(0.824888 -2.73661e-22 -0.0173269)
(0.842125 -1.73126e-22 -0.0156949)
(0.856244 5.46304e-22 -0.0108375)
(0.864814 1.0289e-21 -0.00588305)
(0.868732 -5.45078e-22 -0.00481827)
(0.871926 0 -0.00596378)
(0.876769 -1.91569e-21 -0.00359064)
(0.880771 7.21199e-22 0.00402456)
(0.875549 7.03554e-23 0.0120242)
(0.859153 -6.93778e-23 0.0136982)
(0.840333 1.86934e-23 0.00605605)
(0.823968 -6.70015e-23 -0.00819313)
(0.813994 -2.92678e-23 -0.0239413)
(0.815028 0 -0.0371031)
(0.825264 -2.34493e-22 -0.0469303)
(0.837888 3.08521e-23 -0.0575139)
(0.859751 -3.04441e-23 -0.073937)
(0.906162 0 -0.0988634)
(1.00354 -1.93142e-22 -0.128175)
(0.0159358 -5.75533e-20 -0.0604523)
(-0.000726967 0 -0.171194)
(0.118946 1.81006e-20 -0.211272)
(0.262182 0 -0.181261)
(0.395589 2.47155e-20 -0.129296)
(0.493216 -3.71593e-20 -0.0839351)
(0.552883 1.72108e-20 -0.053993)
(0.585268 -1.71316e-20 -0.0380832)
(0.601616 0 -0.0311817)
(0.609073 -2.99924e-21 -0.0278897)
(0.610527 -3.17042e-21 -0.0267214)
(0.607226 0 -0.0276527)
(0.600779 0 -0.0261412)
(0.591721 -4.71222e-22 -0.0181679)
(0.575194 1.17902e-23 -0.00891813)
(0.550406 6.80473e-22 -0.0075746)
(0.519942 0 -0.0129713)
(0.491088 1.12316e-21 -0.0141834)
(0.457748 -2.29199e-22 -0.00407097)
(0.411513 2.26096e-22 0.0125535)
(0.349346 -5.21047e-22 0.0254029)
(0.268643 5.69295e-23 0.0283156)
(0.179833 -3.27017e-22 0.0208577)
(0.0971704 -7.24871e-22 0.00573839)
(0.0518447 9.3846e-23 -0.0109569)
(0.0516703 -8.89929e-22 -0.0329715)
(0.0746633 -4.39253e-25 -0.0712405)
(0.139457 -6.04453e-23 -0.123069)
(0.23131 1.65883e-23 -0.178615)
(0.3262 2.69565e-22 -0.23617)
(0.0113855 1.16092e-19 -0.0811643)
(-0.0348807 0 -0.222345)
(0.0617315 -1.04831e-19 -0.271096)
(0.175154 1.54397e-19 -0.2299)
(0.278517 -1.34239e-19 -0.163208)
(0.349272 6.30297e-20 -0.105378)
(0.383614 0 -0.0666873)
(0.390693 0 -0.0456966)
(0.379638 4.52297e-21 -0.0361504)
(0.357484 -7.28346e-21 -0.0302739)
(0.3277 -9.83422e-22 -0.0258751)
(0.285604 0 -0.0253746)
(0.232891 -7.31597e-22 -0.025522)
(0.18298 3.97139e-21 -0.0164626)
(0.112357 -3.7696e-21 0.00272632)
(0.0157148 1.5517e-21 0.0197131)
(-0.128863 0 0.0289626)
(-0.285163 0 0.0356754)
(-0.392149 -1.15614e-21 0.0513769)
(-0.453072 -8.98333e-22 0.0700014)
(-0.499107 9.89127e-22 0.079263)
(-0.535227 1.4462e-22 0.0710814)
(-0.555938 2.96146e-22 0.0441718)
(-0.553283 6.26194e-22 0.0034075)
(-0.522008 0 -0.0458386)
(-0.463575 9.47194e-22 -0.0973721)
(-0.396379 9.35483e-22 -0.147582)
(-0.33199 -5.59481e-23 -0.196678)
(-0.27973 1.14138e-21 -0.245923)
(-0.252246 1.35532e-22 -0.294326)
(-0.00239844 2.40162e-20 -0.108576)
(-0.0713226 0 -0.26624)
(0.00390989 -6.85069e-20 -0.311641)
(0.083007 -5.48926e-20 -0.256623)
(0.146597 8.6554e-20 -0.176794)
(0.178144 0 -0.109141)
(0.172975 -1.65591e-20 -0.0628136)
(0.138963 1.72093e-20 -0.0359024)
(0.0800182 0 -0.0223225)
(0.00427743 0 -0.0123357)
(-0.0824338 1.20694e-21 0.0019894)
(-0.207142 0 0.0166202)
(-0.364256 -1.64574e-21 0.0277066)
(-0.522258 -2.12382e-21 0.0479114)
(-0.631298 2.64782e-21 0.0744296)
(-0.721508 -4.21838e-21 0.0927636)
(-0.815484 1.43844e-21 0.0940354)
(-0.904921 0 0.0850198)
(-0.970045 6.14098e-22 0.0786115)
(-1.00532 1.41237e-21 0.0769819)
(-1.01407 -1.66268e-21 0.0707224)
(-1.00128 -2.02806e-22 0.0500169)
(-0.972008 -9.0935e-23 0.0124017)
(-0.93492 -7.55668e-22 -0.0370854)
(-0.890297 0 -0.0897965)
(-0.844692 0 -0.140416)
(-0.803802 -8.7408e-22 -0.187784)
(-0.772093 -3.8311e-23 -0.232998)
(-0.754857 -2.51572e-22 -0.277184)
(-0.751775 -4.22527e-22 -0.314905)
(-0.0382772 -1.21066e-19 -0.143937)
(-0.122505 4.52202e-20 -0.299001)
(-0.0663554 3.84942e-20 -0.328913)
(-0.0288261 9.08765e-20 -0.254283)
(-0.0176336 -1.04409e-20 -0.159601)
(-0.0431982 -4.64352e-20 -0.0805283)
(-0.11689 -1.7345e-20 -0.0214851)
(-0.233627 1.66573e-20 0.0186253)
(-0.385594 0 0.0425472)
(-0.546497 0 0.059416)
(-0.682143 6.69352e-22 0.0763401)
(-0.798289 0 0.0891327)
(-0.917459 1.62886e-21 0.0956574)
(-1.0312 4.60978e-21 0.102659)
(-1.12658 1.64444e-22 0.114979)
(-1.20337 -1.64218e-21 0.124556)
(-1.2671 7.78492e-22 0.120618)
(-1.3186 -6.75334e-23 0.104662)
(-1.35268 -1.07702e-22 0.0862261)
(-1.36515 -2.79176e-21 0.0688847)
(-1.35606 2.72649e-21 0.0478353)
(-1.33037 -2.71598e-23 0.017115)
(-1.29627 -2.42611e-23 -0.0245563)
(-1.26212 8.91402e-22 -0.0738348)
(-1.22798 0 -0.124534)
(-1.19927 7.89496e-23 -0.172234)
(-1.17771 9.14991e-22 -0.215645)
(-1.16654 7.29147e-23 -0.25609)
(-1.16737 -8.42876e-22 -0.29497)
(-1.17275 -1.49673e-22 -0.325777)
(-0.10258 -5.29455e-20 -0.1777)
(-0.19474 -1.26614e-19 -0.312558)
(-0.159394 1.4486e-19 -0.312715)
(-0.177219 -1.0376e-19 -0.20625)
(-0.240628 1.41385e-20 -0.0897262)
(-0.363605 -4.70341e-20 0.00610647)
(-0.529889 2.58125e-20 0.0733229)
(-0.679471 1.57315e-20 0.108372)
(-0.819804 0 0.123268)
(-0.957563 -3.31514e-21 0.128951)
(-1.08448 -1.95415e-21 0.134959)
(-1.19765 2.03271e-21 0.141843)
(-1.30223 -2.00913e-21 0.145828)
(-1.39642 -3.06445e-21 0.148107)
(-1.47482 1.92523e-21 0.150432)
(-1.535 -1.89945e-21 0.148211)
(-1.57969 2.2316e-21 0.135292)
(-1.61169 1.76307e-21 0.11237)
(-1.63025 0 0.0852643)
(-1.63369 -4.02247e-22 0.0569727)
(-1.62261 -1.1701e-21 0.025644)
(-1.60126 -1.49511e-21 -0.0115538)
(-1.57596 1.02637e-24 -0.0551714)
(-1.55125 -5.6354e-23 -0.103024)
(-1.52979 -2.92233e-22 -0.150805)
(-1.51444 -4.53842e-23 -0.194796)
(-1.50697 -1.06232e-21 -0.234014)
(-1.51001 0 -0.269866)
(-1.52214 0 -0.303584)
(-1.53191 1.20676e-22 -0.328762)
(-0.190704 1.58299e-19 -0.193528)
(-0.284453 -3.45039e-19 -0.292854)
(-0.28398 1.97807e-19 -0.240736)
(-0.379155 -4.01888e-20 -0.0996937)
(-0.53824 -6.63986e-20 0.034824)
(-0.707474 1.31992e-20 0.124311)
(-0.859172 5.74661e-20 0.168712)
(-1.00704 -5.51547e-21 0.189832)
(-1.14504 -8.92902e-21 0.197429)
(-1.27279 1.09786e-21 0.197573)
(-1.38824 2.09593e-21 0.196156)
(-1.49126 -1.64908e-21 0.194902)
(-1.58279 1.08531e-21 0.19205)
(-1.66192 0 0.187098)
(-1.72592 2.26471e-21 0.179611)
(-1.77411 -2.23452e-21 0.166519)
(-1.80878 -3.99243e-21 0.144686)
(-1.83252 0 0.115023)
(-1.84608 3.7582e-21 0.0812658)
(-1.84925 2.59025e-21 0.0456457)
(-1.84299 0 0.00772493)
(-1.83036 1.16567e-21 -0.0335763)
(-1.81559 0 -0.0782349)
(-1.80175 4.8851e-22 -0.124456)
(-1.79206 3.06392e-22 -0.169131)
(-1.78811 0 -0.209436)
(-1.79201 0 -0.244637)
(-1.80592 -8.40086e-23 -0.276217)
(-1.82601 2.24872e-22 -0.305268)
(-1.83847 2.91211e-23 -0.326064)
(-0.291887 -2.29616e-19 -0.176551)
(-0.383736 8.97292e-20 -0.219503)
(-0.44164 0 -0.109425)
(-0.618325 1.80869e-20 0.0583371)
(-0.799577 -3.62212e-21 0.172639)
(-0.96477 -3.53095e-20 0.234011)
(-1.12232 3.4818e-20 0.264434)
(-1.26775 0 0.274167)
(-1.39813 0 0.271697)
(-1.51488 -7.80697e-22 0.263544)
(-1.61836 -4.10539e-22 0.254062)
(-1.70909 5.72044e-21 0.244411)
(-1.78779 1.17616e-21 0.233569)
(-1.85433 0 0.220554)
(-1.90801 -5.89389e-21 0.204172)
(-1.94897 -5.81149e-21 0.182158)
(-1.97909 0 0.152958)
(-2.00064 1.09008e-21 0.117621)
(-2.01477 -4.81642e-21 0.0787488)
(-2.02188 3.71374e-21 0.038064)
(-2.02299 0 -0.0041993)
(-2.0203 0 -0.048146)
(-2.01646 0 -0.0931875)
(-2.01394 -4.86495e-22 -0.137765)
(-2.01518 8.4412e-23 -0.179666)
(-2.02138 0 -0.216759)
(-2.03487 -1.9568e-22 -0.248439)
(-2.05749 6.83097e-22 -0.276167)
(-2.08358 -2.27395e-22 -0.301058)
(-2.09778 -3.50942e-22 -0.318347)
(-0.390624 -6.58698e-20 -0.113898)
(-0.485944 0 -0.0837418)
(-0.613897 -8.02372e-20 0.0794639)
(-0.812079 6.53374e-20 0.222071)
(-1.00097 5.36451e-20 0.305289)
(-1.17653 -5.33241e-20 0.34799)
(-1.33471 -6.0806e-21 0.362299)
(-1.47338 6.11761e-21 0.357912)
(-1.59359 3.47078e-21 0.343327)
(-1.69755 -4.4553e-21 0.325056)
(-1.78729 -5.46591e-21 0.306684)
(-1.86469 0 0.288945)
(-1.93137 9.36843e-22 0.270679)
(-1.98784 -5.95506e-21 0.250399)
(-2.03408 5.86792e-21 0.226559)
(-2.07068 5.78505e-21 0.197535)
(-2.09931 6.43591e-21 0.162666)
(-2.12187 0 0.122988)
(-2.13957 -6.27354e-21 0.0804137)
(-2.15306 -7.00417e-21 0.0363356)
(-2.16325 0 -0.00873017)
(-2.17158 -2.56265e-21 -0.0543892)
(-2.17954 2.07296e-21 -0.0996042)
(-2.18823 -1.94897e-22 -0.142844)
(-2.19981 -4.17874e-23 -0.182571)
(-2.21521 4.13563e-23 -0.217169)
(-2.23694 1.95139e-22 -0.245995)
(-2.26668 7.01745e-22 -0.2703)
(-2.29742 0 -0.291351)
(-2.31271 3.54458e-22 -0.305592)
(-0.466332 6.6459e-20 0.0498048)
(-0.580836 1.98352e-19 0.146378)
(-0.74518 -2.10048e-19 0.279751)
(-0.965249 -1.43748e-22 0.387656)
(-1.16958 0 0.446423)
(-1.3493 0 0.466572)
(-1.50293 8.8742e-21 0.460332)
(-1.63131 -5.58812e-21 0.438335)
(-1.73778 2.96853e-21 0.409525)
(-1.82622 0 0.380173)
(-1.90074 6.01595e-21 0.353177)
(-1.96469 -5.91598e-21 0.328481)
(-2.02005 0 0.304146)
(-2.06766 0 0.278043)
(-2.10787 0 0.248486)
(-2.14147 0 0.214356)
(-2.16999 -9.73512e-21 0.175531)
(-2.19507 3.28341e-21 0.132994)
(-2.21799 1.24385e-20 0.0882075)
(-2.23949 3.10095e-21 0.042298)
(-2.26022 -4.28083e-21 -0.00421691)
(-2.28093 6.28834e-21 -0.0508468)
(-2.30204 5.84353e-22 -0.0963506)
(-2.32305 -2.17816e-21 -0.139004)
(-2.34504 3.17125e-21 -0.177437)
(-2.36911 -2.27122e-21 -0.210518)
(-2.39803 0 -0.237402)
(-2.43358 -1.29719e-21 -0.258835)
(-2.46793 0 -0.276204)
(-2.48381 0 -0.287555)
(-0.472135 0 0.362088)
(-0.622832 4.48476e-20 0.384031)
(-0.850401 -1.10746e-19 0.485658)
(-1.09483 1.50152e-22 0.564265)
(-1.30802 0 0.593155)
(-1.48611 -4.45872e-21 0.585197)
(-1.6308 -3.22928e-21 0.554171)
(-1.74518 -5.96401e-21 0.511817)
(-1.83437 2.87355e-21 0.467409)
(-1.90434 7.46338e-21 0.427021)
(-1.96144 -6.47584e-22 0.392684)
(-2.01059 -7.87551e-21 0.362865)
(-2.05409 0 0.334346)
(-2.09271 -4.56551e-21 0.304293)
(-2.12679 4.49853e-21 0.270979)
(-2.15718 9.30153e-21 0.233728)
(-2.18542 -8.61892e-21 0.192812)
(-2.21323 6.06705e-21 0.149164)
(-2.24215 -2.77473e-21 0.103869)
(-2.2729 -1.4826e-21 0.0577159)
(-2.30556 4.26585e-21 0.0110221)
(-2.3402 -3.44948e-21 -0.035912)
(-2.37632 -2.71471e-21 -0.0820069)
(-2.41216 2.07399e-21 -0.125398)
(-2.44596 9.99634e-22 -0.164387)
(-2.47905 5.19521e-21 -0.197533)
(-2.51458 3.44674e-23 -0.223819)
(-2.5549 -3.41621e-23 -0.243082)
(-2.59207 2.02088e-21 -0.256403)
(-2.60824 5.14613e-24 -0.264077)
(-0.417381 -2.41383e-20 0.791991)
(-0.658847 6.45248e-20 0.651076)
(-0.948968 7.73158e-20 0.711186)
(-1.20672 -6.81878e-20 0.751344)
(-1.42242 0 0.742978)
(-1.59343 3.76889e-21 0.70075)
(-1.72379 -6.24211e-21 0.640399)
(-1.81854 6.7999e-21 0.574781)
(-1.88498 0 0.513564)
(-1.93184 2.79619e-21 0.46269)
(-1.968 8.64744e-21 0.423176)
(-1.99996 0 0.391049)
(-2.02999 -5.45001e-21 0.360847)
(-2.05793 -6.37681e-21 0.328966)
(-2.08366 0 0.29393)
(-2.10809 -1.99554e-20 0.255682)
(-2.13315 1.84087e-20 0.214928)
(-2.16116 -5.80327e-21 0.172581)
(-2.1943 -1.93675e-21 0.129264)
(-2.23357 -6.67879e-21 0.0851449)
(-2.27846 -6.09371e-22 0.0400976)
(-2.32807 9.97613e-21 -0.00591884)
(-2.38076 2.00604e-22 -0.0521966)
(-2.43344 5.92608e-21 -0.0970666)
(-2.48262 -3.96009e-21 -0.13851)
(-2.52723 -6.70616e-21 -0.174368)
(-2.56997 0 -0.202025)
(-2.61423 1.83087e-23 -0.219721)
(-2.65343 -4.13843e-21 -0.227711)
(-2.66996 0 -0.229494)
(-0.226929 -4.40255e-19 1.28795)
(-0.661977 1.06637e-19 0.965661)
(-1.01442 -1.29165e-19 0.974088)
(-1.28554 -1.36533e-20 0.958743)
(-1.5067 5.66447e-22 0.89902)
(-1.66798 -5.53879e-22 0.812188)
(-1.77874 0 0.715547)
(-1.84769 -9.94174e-21 0.622611)
(-1.8852 2.10308e-20 0.543164)
(-1.90361 -9.15254e-21 0.482991)
(-1.91529 1.19194e-20 0.441734)
(-1.92818 1.29075e-20 0.411345)
(-1.94321 -1.26906e-20 0.382327)
(-1.95785 1.79604e-20 0.350391)
(-1.97075 -6.15223e-21 0.315228)
(-1.98287 1.06595e-20 0.277975)
(-1.99707 -2.08333e-20 0.239988)
(-2.01698 0 0.202131)
(-2.04604 -1.05157e-20 0.164321)
(-2.08626 9.37618e-21 0.125606)
(-2.13743 -8.09313e-22 0.0848521)
(-2.19771 -9.35241e-21 0.0413262)
(-2.26413 0 -0.00487923)
(-2.33157 8.49188e-22 -0.0522696)
(-2.39428 -7.18802e-23 -0.0980189)
(-2.44983 3.75275e-21 -0.138543)
(-2.49926 -1.1344e-23 -0.169596)
(-2.5447 1.12529e-23 -0.186629)
(-2.58214 3.96677e-21 -0.1883)
(-2.59767 6.01514e-22 -0.182256)
(0.332916 -3.11842e-19 1.73786)
(-0.283535 0 1.30105)
(-0.907838 2.36794e-20 1.34669)
(-1.25272 3.57497e-21 1.20946)
(-1.50294 -9.55502e-21 1.06469)
(-1.65897 1.05336e-20 0.915128)
(-1.75086 -2.53742e-20 0.772355)
(-1.79473 0 0.647731)
(-1.80429 0 0.549888)
(-1.79512 0 0.48424)
(-1.7845 -1.11254e-21 0.448096)
(-1.78231 -6.18928e-21 0.425011)
(-1.78567 2.36113e-20 0.398674)
(-1.78706 0 0.366207)
(-1.78314 -6.72665e-21 0.330272)
(-1.77507 1.71488e-20 0.294203)
(-1.7669 1.40779e-20 0.260496)
(-1.76405 -2.43493e-21 0.230126)
(-1.77198 1.206e-20 0.202163)
(-1.79478 -1.0417e-21 0.174062)
(-1.83425 0 0.142837)
(-1.88968 3.144e-22 0.106252)
(-1.95806 9.02123e-21 0.0634571)
(-2.03367 -7.01189e-21 0.0155336)
(-2.10864 -5.91644e-21 -0.0342136)
(-2.17639 0 -0.0807614)
(-2.23421 -3.24452e-21 -0.117744)
(-2.28265 5.56673e-24 -0.137697)
(-2.31978 -3.26318e-21 -0.136639)
(-2.33578 -6.00896e-22 -0.124689)
(10.0011 -3.25423e-19 0.092304)
(9.9881 -6.74232e-20 0.185148)
(9.96707 -4.6784e-20 0.277357)
(9.94122 4.86745e-19 0.370098)
(9.90994 -1.01217e-19 0.464774)
(9.87295 4.2202e-19 0.562628)
(9.83055 -2.25217e-22 0.664884)
(9.78344 -2.26817e-19 0.772808)
(9.73234 2.33739e-19 0.887685)
(9.67755 0 1.01078)
(9.61946 -5.01625e-19 1.14336)
(9.55878 2.5676e-19 1.2868)
(9.49619 7.94679e-19 1.44251)
(9.43246 -5.46392e-19 1.61197)
(9.36886 2.82027e-19 1.79692)
(9.30639 1.14452e-18 1.99928)
(9.24621 -1.45922e-18 2.22121)
(9.19029 -2.99934e-19 2.46514)
(9.1409 0 2.73387)
(9.10086 0 3.03097)
(9.07367 -5.98194e-19 3.3607)
(9.0636 4.17878e-18 3.72798)
(9.07695 -4.41092e-20 4.1392)
(9.12114 -2.30107e-18 4.60278)
(9.2086 -1.1042e-18 5.12891)
(9.34453 0 5.73407)
(9.59285 -1.72778e-18 6.4194)
(9.81488 -5.8934e-19 7.26661)
(10.8326 7.34657e-19 8.05652)
(11.8196 -7.78503e-19 10.9471)
(10.0015 0 0.0957036)
(9.98957 0 0.192014)
(9.97047 -9.09173e-20 0.287648)
(9.94733 -3.78634e-19 0.383821)
(9.91962 9.86028e-20 0.481955)
(9.88701 -2.03428e-19 0.583266)
(9.84977 -2.36211e-21 0.688973)
(9.8086 2.1938e-19 0.80031)
(9.76423 -4.50824e-19 0.918556)
(9.71709 -4.67901e-19 1.04499)
(9.66758 -1.93761e-21 1.18087)
(9.61651 -1.91169e-21 1.32749)
(9.56477 5.06181e-19 1.48617)
(9.51315 -2.60753e-19 1.6583)
(9.46298 5.348e-19 1.84555)
(9.41534 -2.75329e-19 2.04975)
(9.37195 1.39252e-18 2.27297)
(9.33493 -1.12802e-18 2.51736)
(9.30626 0 2.78533)
(9.28919 -1.13587e-18 3.08013)
(9.2876 1.14796e-18 3.40551)
(9.30664 -1.69643e-18 3.76579)
(9.35283 0 4.16621)
(9.4338 2.06974e-18 4.61333)
(9.5634 -2.03671e-18 5.11494)
(9.75061 0 5.68116)
(10.0516 7.91569e-19 6.31021)
(10.365 2.17888e-18 7.02383)
(11.0685 -1.27387e-18 7.68419)
(11.8188 1.41384e-18 8.7856)
(10.002 0 0.0988028)
(9.99124 -3.37083e-19 0.198278)
(9.97415 0 0.297051)
(9.95378 9.16294e-20 0.396319)
(9.9298 2.85229e-19 0.497507)
(9.90174 -1.96816e-19 0.601855)
(9.86983 -2.07072e-19 0.710584)
(9.83481 6.3396e-19 0.824874)
(9.79739 2.1835e-19 0.94596)
(9.75807 0 1.07513)
(9.71731 4.63906e-19 1.21361)
(9.6761 -9.52461e-19 1.36258)
(9.63535 2.42371e-19 1.52327)
(9.59596 0 1.69701)
(9.55929 -1.02298e-18 1.88535)
(9.52643 2.08252e-18 2.08994)