/*--------------------------------*- C++ -*----------------------------------*\
| =========                 |                                                 |
| \\      /  F ield         | OpenFOAM: The Open Source CFD Toolbox           |
|  \\    /   O peration     | Version:  dev                                   |
|   \\  /    A nd           | Web:      www.OpenFOAM.org                      |
|    \\/     M anipulation  |                                                 |
\*---------------------------------------------------------------------------*/
FoamFile
{
    version     2.0;
    format      ascii;
    class       surfaceScalarField;
    location    "0.89";
    object      meshPhi;
}
// * * * * * * * * * * * * * * * * * * * * * * * * * * * * * * * * * * * * * //

dimensions      [0 3 -1 0 0 0 0];

internalField   nonuniform List<scalar> 
881
(
-3.95313e-06
3.04464e-08
-1.0111e-05
1.29133e-07
-1.97801e-05
3.24271e-07
-3.30348e-05
6.36574e-07
-4.89404e-05
1.05252e-06
-6.59926e-05
1.53582e-06
-8.2463e-05
2.03831e-06
-9.66837e-05
2.50829e-06
-0.000107276
2.89701e-06
-0.000113309
3.16466e-06
-0.000114383
3.286e-06
-0.000110638
3.25279e-06
-0.000102687
3.0706e-06
-9.14987e-05
2.76115e-06
-7.8244e-05
2.35999e-06
-6.41276e-05
1.90748e-06
-5.02449e-05
1.44412e-06
-3.74738e-05
1.00566e-06
-2.64152e-05
6.19363e-07
-1.73723e-05
3.01803e-07
7.56768e-08
-3.62386e-06
5.39248e-08
-9.56695e-06
2.3961e-07
-1.91457e-05
6.22448e-07
-3.24143e-05
1.24376e-06
-4.84225e-05
2.07606e-06
-6.56486e-05
3.0464e-06
-8.23426e-05
4.05801e-06
-9.68096e-05
5.00703e-06
-0.000107643
5.79515e-06
-0.000113887
6.34132e-06
-0.000115122
6.59302e-06
-0.000111474
6.53203e-06
-0.000103554
6.1717e-06
-9.23362e-05
5.55667e-06
-7.90048e-05
4.75633e-06
-6.47824e-05
3.85143e-06
-5.07821e-05
2.92345e-06
-3.78977e-05
2.04457e-06
-2.67438e-05
1.27002e-06
-1.76384e-05
6.33892e-07
1.79522e-07
-3.24723e-06
6.63682e-08
-8.92604e-06
3.2001e-07
-1.83641e-05
8.77014e-07
-3.16005e-05
1.79864e-06
-4.76706e-05
3.04249e-06
-6.5042e-05
4.49914e-06
-8.19512e-05
6.02384e-06
-9.66797e-05
7.46032e-06
-0.000107795
8.66038e-06
-0.000114317
9.50029e-06
-0.000115802
9.89789e-06
-0.000112356
9.82306e-06
-0.000104575
9.29869e-06
-9.3431e-05
8.39281e-06
-8.01122e-05
7.20581e-06
-6.58515e-05
5.85803e-06
-5.17762e-05
4.47189e-06
-3.87952e-05
3.15624e-06
-2.75366e-05
1.9949e-06
-1.83289e-05
1.0402e-06
3.53796e-07
-2.85163e-06
6.41798e-08
-8.22693e-06
3.5973e-07
-1.74703e-05
1.07037e-06
-3.06161e-05
2.27659e-06
-4.66904e-05
3.92084e-06
-6.41563e-05
5.85782e-06
-8.12471e-05
7.89547e-06
-9.62293e-05
9.8245e-06
-0.000107648
1.14461e-05
-0.000114502
1.25956e-05
-0.000116322
1.31626e-05
-0.000113186
1.31035e-05
-0.000105668
1.24454e-05
-9.4724e-05
1.12758e-05
-8.15331e-05
9.72604e-06
-6.73284e-05
7.95489e-06
-5.32445e-05
6.12492e-06
-4.02016e-05
4.38155e-06
-2.88414e-05
2.83759e-06
-1.95e-05
1.56432e-06
6.39607e-07
-2.35522e-06
4.27362e-08
-7.33743e-06
3.45525e-07
-1.63158e-05
1.18155e-06
-2.93234e-05
2.65043e-06
-4.53808e-05
4.67994e-06
-6.29426e-05
7.08879e-06
-8.02386e-05
9.63716e-06
-9.55242e-05
1.20634e-05
-0.00010732
1.41186e-05
-0.000114599
1.55992e-05
-0.000116862
1.63669e-05
-0.000114149
1.63616e-05
-0.000107004
1.56094e-05
-9.63595e-05
1.42132e-05
-8.33778e-05
1.23338e-05
-6.92879e-05
1.01665e-05
-5.52291e-05
7.91299e-06
-4.21322e-05
5.75471e-06
-3.0655e-05
3.83358e-06
-2.11498e-05
2.24107e-06
1.07001e-06
-1.75096e-06
-2.45831e-09
-6.24838e-06
2.64715e-07
-1.48922e-05
1.19125e-06
-2.77148e-05
2.89553e-06
-4.3732e-05
5.28994e-06
-6.1387e-05
8.15654e-06
-7.89048e-05
1.12091e-05
-9.4535e-05
1.41374e-05
-0.000106779
1.66446e-05
-0.000114576
1.84856e-05
-0.000117387
1.94908e-05
-0.000115214
1.95819e-05
-0.000108559
1.87815e-05
-9.83199e-05
1.72047e-05
-8.5638e-05
1.50378e-05
-7.17314e-05
1.25099e-05
-5.77419e-05
9.85975e-06
-4.46087e-05
7.30474e-06
-3.30036e-05
5.01524e-06
-2.33062e-05
3.10306e-06
1.67515e-06
-1.03338e-06
-7.5491e-08
-4.95156e-06
1.0577e-07
-1.31908e-05
1.08178e-06
-2.57791e-05
2.98824e-06
-4.17272e-05
5.72087e-06
-5.9469e-05
9.02644e-06
-7.72231e-05
1.25749e-05
-9.32352e-05
1.60094e-05
-0.00010599
1.89867e-05
-0.000114392
2.12186e-05
-0.000117858
2.25018e-05
-0.00011634
2.27379e-05
-0.000110294
2.19431e-05
-0.000100576
2.02402e-05
-8.82949e-05
1.78366e-05
-7.4651e-05
1.49912e-05
-6.07851e-05
1.19776e-05
-4.76467e-05
9.04883e-06
-3.59203e-05
6.40474e-06
-2.60135e-05
4.17684e-06
2.48261e-06
-1.97428e-07
-1.80366e-07
-3.43985e-06
-1.42286e-07
-1.12035e-05
8.36517e-07
-2.35041e-05
2.90658e-06
-3.93468e-05
5.94601e-06
-5.71628e-05
9.66857e-06
-7.51641e-05
1.3702e-05
-9.15901e-05
1.76437e-05
-0.00010491
2.11052e-05
-0.000113996
2.37565e-05
-0.000118216
2.536e-05
-0.000117471
2.57941e-05
-0.000112157
2.50645e-05
-0.000103081
2.32974e-05
-9.13136e-05
2.07167e-05
-7.80262e-05
1.76068e-05
-6.43488e-05
1.42718e-05
-5.12469e-05
1.09975e-05
-3.94241e-05
8.01455e-06
-2.93084e-05
5.47689e-06
3.50884e-06
7.64013e-07
-3.20947e-07
-1.70319e-06
-4.9022e-07
-8.92086e-06
4.39286e-07
-2.08814e-05
2.63038e-06
-3.658e-05
5.94144e-06
-5.44483e-05
1.00538e-05
-7.26957e-05
1.45553e-05
-8.95564e-05
1.89996e-05
-0.000103486
2.29556e-05
-0.000113324
2.60525e-05
-0.000118392
2.80179e-05
-0.000118529
2.87047e-05
-0.000114071
2.8104e-05
-0.000105765
2.63405e-05
-9.46318e-05
2.36485e-05
-8.18096e-05
2.0334e-05
-6.84095e-05
1.67293e-05
-5.54055e-05
1.31485e-05
-4.35216e-05
9.85059e-06
-3.32041e-05
7.01308e-06
4.76386e-06
1.85835e-06
-5.00242e-07
2.70212e-07
-9.46569e-07
-6.33029e-06
-1.23004e-07
-1.78996e-05
2.1427e-06
-3.34138e-05
5.68578e-06
-5.13043e-05
1.01551e-05
-6.9784e-05
1.51008e-05
-8.7086e-05
2.00368e-05
-0.000101655
2.44915e-05
-0.000112299
2.80552e-05
-0.000118294
3.0421e-05
-0.000119417
3.14141e-05
-0.000115936
3.10075e-05
-0.000108528
2.93192e-05
-9.81557e-05
2.65888e-05
-8.5916e-05
2.3137e-05
-7.29008e-05
1.93191e-05
-6.00795e-05
1.54768e-05
-4.81903e-05
1.18972e-05
-3.76958e-05
8.77976e-06
6.24933e-06
3.09426e-06
-7.21542e-07
2.49188e-06
-1.51972e-06
-3.42154e-06
-8.61736e-07
-1.45475e-05
1.42914e-06
-2.98333e-05
5.16032e-06
-4.77082e-05
9.94784e-06
-6.63938e-05
1.53071e-05
-8.41278e-05
2.07158e-05
-9.93462e-05
2.56653e-05
-0.000110833
2.97095e-05
-0.000117818
3.25078e-05
-0.000120016
3.38566e-05
-0.00011762
3.37074e-05
-0.000111235
3.21666e-05
-0.000101756
2.94747e-05
-9.02291e-05
2.59617e-05
-7.77156e-05
2.1998e-05
-6.5171e-05
1.79482e-05
-5.33451e-05
1.41247e-05
-4.27213e-05
1.07512e-05
7.94676e-06
4.4853e-06
-9.88176e-07
4.97704e-06
-2.21763e-06
-1.8625e-07
-1.78605e-06
-1.08185e-05
4.79564e-07
-2.5828e-05
4.35145e-06
-4.36401e-05
9.41272e-06
-6.24909e-05
1.5147e-05
-8.0629e-05
2.10004e-05
-9.64862e-05
2.64307e-05
-0.000108827
3.09587e-05
-0.00011684
3.42121e-05
-0.00012018
3.59587e-05
-0.000118963
3.61264e-05
-0.000113713
3.48054e-05
-0.000105254
3.22287e-05
-9.4574e-05
2.87303e-05
-8.26895e-05
2.46939e-05
-7.05304e-05
2.05018e-05
-5.8846e-05
1.64852e-05
-4.81403e-05
1.28874e-05
9.81896e-06
6.0498e-06
-1.30345e-06
7.74534e-06
-3.0476e-06
3.37925e-06
-2.90166e-06
-6.71663e-06
-7.09078e-07
-2.13995e-05
3.25431e-06
-3.90916e-05
8.53889e-06
-5.80483e-05
1.46004e-05
-7.6539e-05
2.08589e-05
-9.29978e-05
2.67441e-05
-0.000106176
3.17464e-05
-0.000115226
3.54649e-05
-0.000119746
3.76399e-05
-0.000119777
3.81753e-05
-0.000115755
3.71413e-05
-0.000108428
3.47562e-05
-9.87151e-05
3.1351e-05
-8.75796e-05
2.73169e-05
-7.59217e-05
2.30497e-05
-6.44747e-05
1.88987e-05
-5.37387e-05
1.51217e-05
1.18096e-05
7.80844e-06
-1.67052e-06
1.08197e-05
-4.01653e-06
7.27607e-06
-4.21301e-06
-2.25017e-06
-2.1379e-06
-1.6556e-05
1.867e-06
-3.40641e-05
7.32132e-06
-5.30513e-05
1.36566e-05
-7.18152e-05
2.02699e-05
-8.88068e-05
2.65686e-05
-0.00010277
3.202e-05
-0.000112831
3.6198e-05
-0.000118532
3.88175e-05
-0.000119842
3.97578e-05
-0.000117114
3.9065e-05
-0.000111007
3.69399e-05
-0.000102364
3.37067e-05
-9.20862e-05
2.97562e-05
-8.10305e-05
2.54884e-05
-6.99125e-05
2.12646e-05
-5.92114e-05
1.73579e-05
1.38348e-05
9.54825e-06
1.40761e-05
1.15291e-05
-5.68382e-06
2.59475e-06
-3.82043e-06
-1.12783e-05
1.78179e-07
-2.85275e-05
5.74456e-06
-4.74569e-05
1.22944e-05
-6.63937e-05
1.92051e-05
-8.38177e-05
2.58658e-05
-9.84828e-05
3.1728e-05
-0.000109491
3.63469e-05
-0.000116336
3.94141e-05
-0.000118921
4.07836e-05
-0.000117513
4.04768e-05
-0.000112681
3.86738e-05
-0.000105187
3.56847e-05
-9.58621e-05
3.18959e-05
-8.55019e-05
2.7707e-05
-7.47891e-05
2.34802e-05
-6.41879e-05
1.94978e-05
1.58028e-05
1.66017e-05
8.20254e-06
-5.7227e-06
-5.7042e-06
-1.85402e-06
-2.32528e-05
3.77243e-06
-4.27377e-05
1.04725e-05
-6.24604e-05
1.76177e-05
-8.08754e-05
2.45842e-05
-9.67129e-05
3.08126e-05
-0.00010903
3.58456e-05
-0.000117257
3.93548e-05
-0.000121228
4.11694e-05
-0.000121132
4.12861e-05
-0.000117463
3.98618e-05
-0.000110925
3.71856e-05
-0.000102306
3.36308e-05
-9.23586e-05
2.95938e-05
-8.17375e-05
2.54344e-05
-7.09105e-05
2.14366e-05
1.7619e-05
1.43803e-05
9.62857e-07
-4.17686e-06
-1.65647e-05
1.36943e-06
-3.62245e-05
8.16509e-06
-5.63505e-05
1.54782e-05
-7.54027e-05
2.26892e-05
-9.21073e-05
2.92321e-05
-0.0001055
3.46389e-05
-0.000114972
3.85675e-05
-0.000120286
4.08281e-05
-0.000121542
4.13903e-05
-0.000119153
4.03844e-05
-0.000113744
3.80763e-05
-0.000106035
3.48189e-05
-9.67265e-05
3.0997e-05
-8.64383e-05
2.69683e-05
-7.56383e-05
2.30203e-05
1.91535e-05
8.42032e-06
-8.73202e-06
-1.38164e-06
-2.84587e-05
5.35511e-06
-4.88421e-05
1.27723e-05
-6.83956e-05
2.01569e-05
-8.58412e-05
2.69539e-05
-0.000100187
3.26837e-05
-0.0001108
3.69919e-05
-0.000117384
3.96764e-05
-0.000119959
4.06842e-05
-0.000118841
4.01157e-05
-0.000114575
3.821e-05
-0.000107804
3.52958e-05
-9.91819e-05
3.17401e-05
-8.93116e-05
2.78968e-05
-7.86988e-05
2.40656e-05
2.027e-05
7.70338e-08
-1.93399e-05
2.14198e-06
-3.9816e-05
9.49687e-06
-5.96914e-05
1.69762e-05
-7.7726e-05
2.39516e-05
-9.28717e-05
2.99435e-05
-0.000104469
3.45803e-05
-0.000112187
3.7649e-05
-0.000115975
3.90791e-05
-0.000116059
3.89446e-05
-0.000112888
3.74546e-05
-0.000107034
3.49096e-05
-9.91062e-05
3.16551e-05
-8.97036e-05
2.80353e-05
-7.94051e-05
2.43582e-05
2.06851e-05
-9.0316e-06
-2.91774e-05
5.76318e-06
-4.91587e-05
1.31631e-05
-6.75896e-05
2.02352e-05
-8.33361e-05
2.64114e-05
-9.57283e-05
3.13088e-05
-0.000104393
3.47067e-05
-0.000109224
3.65157e-05
-0.000110373
3.6788e-05
-0.0001082
3.57055e-05
-0.000103204
3.35384e-05
-9.59465e-05
3.06053e-05
-8.70014e-05
2.72284e-05
-7.69597e-05
2.36971e-05
2.00426e-05
-1.72128e-05
-3.68331e-05
-5.53154e-05
1.58788e-05
-7.14297e-05
2.21135e-05
-8.43761e-05
2.71932e-05
-9.37567e-05
3.0845e-05
-9.942e-05
3.29726e-05
-0.000101449
3.3607e-05
-0.000100141
3.29048e-05
-9.59309e-05
3.11115e-05
-8.93077e-05
2.85121e-05
-8.07881e-05
2.53951e-05
-7.08733e-05
2.20175e-05
1.83725e-05
-4.09366e-05
-5.70906e-05
1.71451e-05
-7.03244e-05
2.22996e-05
-8.01504e-05
2.61226e-05
-8.64114e-05
2.8492e-05
-8.91069e-05
2.94253e-05
-8.85171e-05
2.90586e-05
-8.50074e-05
2.76195e-05
-7.89863e-05
2.53543e-05
-7.09001e-05
2.25167e-05
-6.11594e-05
1.93381e-05
1.58197e-05
-4.03836e-05
-5.36088e-05
-6.36237e-05
2.06433e-05
-7.02188e-05
2.31851e-05
-7.33238e-05
2.4324e-05
-7.32795e-05
2.42168e-05
-7.03614e-05
2.30923e-05
-6.49055e-05
2.11477e-05
-5.73007e-05
1.86032e-05
-4.79158e-05
1.5669e-05
1.23617e-05
-4.41963e-05
-5.09206e-05
-5.41697e-05
1.83854e-05
-5.44493e-05
1.84649e-05
-5.19957e-05
1.75936e-05
-4.7056e-05
1.59432e-05
-3.9982e-05
1.36922e-05
-3.11182e-05
1.10326e-05
7.99519e-06
-3.1672e-05
-3.21139e-05
1.18694e-05
-2.99864e-05
1.12328e-05
-2.5481e-05
9.82971e-06
-1.8953e-05
7.8492e-06
-1.07074e-05
5.47111e-06
2.73413e-06
-6.34118e-06
-4.44906e-06
-2.68208e-07
2.91111e-06
5.75945e-06
1.1759e-06
1.33731e-05
-9.43905e-07
-3.37442e-06
2.84894e-05
3.41075e-05
4.11622e-05
-8.12195e-06
-1.02525e-05
7.26014e-05
)
;

boundaryField
{
    inlet
    {
        type            calculated;
        value           uniform 0;
    }
    outlet
    {
        type            calculated;
        value           nonuniform 0();
    }
    flap
    {
        type            calculated;
        value           nonuniform 0();
    }
    upperWall
    {
        type            calculated;
        value           nonuniform 0();
    }
    lowerWall
    {
        type            calculated;
        value           uniform 0;
    }
    frontAndBack
    {
        type            empty;
        value           nonuniform 0();
    }
    procBoundary3to0
    {
        type            processor;
        value           nonuniform List<scalar> 
34
(
-2.01061e-06
-5.0016e-06
-1.76572e-05
-7.12556e-06
-2.13061e-05
-7.60169e-06
-2.04293e-05
-6.49572e-06
-1.59025e-05
-4.17188e-06
-9.15511e-06
-1.17458e-06
-1.82959e-06
1.91241e-06
8.93632e-06
2.29795e-05
1.10387e-05
2.46397e-05
1.16181e-05
1.67224e-05
3.41629e-05
1.43507e-05
1.70695e-05
2.83233e-05
1.15282e-05
5.6844e-06
4.37621e-06
4.05656e-06
-2.46237e-05
-4.82462e-06
-6.25875e-06
-6.6036e-05
-1.59864e-05
-1.77872e-05
)
;
    }
    procBoundary3to1
    {
        type            processor;
        value           nonuniform List<scalar> 9(-6.50046e-05 -5.86578e-05 -4.89027e-05 -3.60896e-05 -2.00064e-05 -4.72503e-07 2.26601e-05 4.94903e-05 8.00354e-05);
    }
    procBoundary3to4
    {
        type            processor;
        value           nonuniform List<scalar> 
19
(
-1.07477e-05
-1.09442e-05
-1.15154e-05
-1.25194e-05
-1.39529e-05
-1.5846e-05
-1.82404e-05
-2.11785e-05
-2.46774e-05
-2.87333e-05
-3.33026e-05
-3.82597e-05
-4.33898e-05
-4.84043e-05
-5.29678e-05
-5.89297e-05
-6.32176e-05
-6.6234e-05
-6.72991e-05
)
;
    }
}


// ************************************************************************* //
