/*--------------------------------*- C++ -*----------------------------------*\
| =========                 |                                                 |
| \\      /  F ield         | OpenFOAM: The Open Source CFD Toolbox           |
|  \\    /   O peration     | Version:  dev                                   |
|   \\  /    A nd           | Web:      www.OpenFOAM.org                      |
|    \\/     M anipulation  |                                                 |
\*---------------------------------------------------------------------------*/
FoamFile
{
    version     2.0;
    format      ascii;
    class       volScalarField;
    location    "0.87";
    object      p;
}
// * * * * * * * * * * * * * * * * * * * * * * * * * * * * * * * * * * * * * //

dimensions      [0 2 -2 0 0 0 0];

internalField   nonuniform List<scalar> 
465
(
172.264
169.115
166.557
163.411
166.12
163.466
160.286
156.529
152.157
163.288
160.582
157.409
153.739
149.553
144.851
139.656
160.623
157.898
154.763
151.199
147.2
142.772
137.937
132.725
127.284
158.124
155.405
152.327
148.88
145.064
140.89
136.378
131.557
126.55
155.787
153.093
150.085
146.76
143.121
139.18
134.96
130.482
125.851
153.608
150.952
148.022
144.819
141.348
137.623
133.663
129.487
125.185
151.579
148.97
146.123
143.039
139.727
136.2
132.473
128.566
124.555
149.694
147.139
144.375
141.407
138.244
134.897
131.381
127.713
123.958
147.946
145.448
142.768
139.911
136.885
133.703
130.378
126.923
123.396
148.605
146.329
143.89
141.291
138.538
135.64
132.608
129.455
126.191
122.867
147.074
144.837
142.456
139.935
137.281
134.501
131.606
128.606
125.514
122.37
145.66
143.464
141.14
138.694
136.131
133.459
130.688
127.827
124.887
121.904
144.36
142.205
139.937
137.56
135.082
132.509
129.849
127.113
124.31
121.469
143.171
141.056
138.841
136.529
134.128
131.645
129.086
126.462
123.779
121.065
142.09
140.014
137.848
135.597
133.266
130.863
128.395
125.869
123.294
120.691
141.115
139.075
136.955
134.759
132.492
130.161
127.773
125.335
122.854
120.349
140.244
138.238
136.16
134.013
131.803
129.536
127.219
124.857
122.458
120.038
139.477
137.502
135.461
133.358
131.199
128.988
126.732
124.437
122.11
119.763
138.813
136.866
134.858
132.794
130.678
128.515
126.312
124.074
121.807
119.522
138.256
136.333
134.354
132.322
130.243
128.121
125.963
123.773
121.557
119.324
137.803
135.9
133.945
131.94
129.891
127.802
125.68
123.528
121.352
119.159
137.466
135.58
133.644
131.661
129.636
127.575
125.481
123.36
121.216
119.058
137.233
135.359
133.435
131.466
129.457
127.413
125.337
123.235
121.112
118.972
137.144
135.279
133.366
131.408
129.411
127.38
125.317
123.23
121.121
118.996
122.277
121.932
118.75
115.914
121.57
118.616
115.999
121.201
118.45
116.026
120.834
118.263
116.011
120.474
118.064
115.964
120.122
117.858
115.893
119.782
117.649
115.804
119.456
117.44
115.702
119.143
117.233
115.591
118.845
117.031
115.473
118.564
116.835
115.352
118.3
116.648
115.231
118.054
116.47
115.111
117.829
116.305
114.997
117.628
116.156
114.891
117.451
116.023
114.795
117.307
115.917
114.719
117.184
115.825
114.653
117.12
115.785
114.63
117.055
115.737
114.598
117.103
115.8
114.666
112.136
112.552
107.913
102.288
96.1642
112.862
108.616
103.412
97.6943
91.7724
85.6744
113.092
109.189
104.376
99.0561
93.5219
87.8
81.8614
75.7132
113.259
109.656
105.196
100.249
95.0895
89.7444
84.1824
78.4056
72.4414
113.375
110.035
105.891
101.283
96.4724
91.4849
86.2885
80.8814
75.286
113.45
110.34
106.477
102.174
97.68
93.021
88.1649
83.107
77.8658
113.493
110.584
106.968
102.937
98.7269
94.3637
89.8162
85.0777
80.1631
113.509
110.774
107.377
103.587
99.6289
95.5289
91.2568
86.8043
82.1836
113.502
110.919
107.714
104.137
100.401
96.5337
92.5048
88.3052
83.9447
113.477
111.025
107.988
104.599
101.058
97.3946
93.579
89.6011
85.4688
113.439
111.1
108.209
104.983
101.614
98.1274
94.4976
90.7126
86.7787
113.392
111.149
108.385
105.301
102.079
98.747
95.2778
91.6596
87.897
113.339
111.177
108.522
105.56
102.467
99.2665
95.9352
92.4599
88.8439
113.285
111.192
108.629
105.773
102.787
99.6997
96.4854
93.1314
89.6396
113.233
111.197
108.712
105.943
103.049
100.055
96.9389
93.6862
90.2982
113.192
111.202
108.781
106.085
103.266
100.35
97.3135
94.1439
90.8409
113.156
111.201
108.831
106.192
103.433
100.578
97.6058
94.502
91.2662
113.151
111.223
108.891
106.298
103.584
100.775
97.8514
94.7974
91.6123
113.137
111.225
108.919
106.355
103.672
100.895
98.0024
94.9814
91.83
113.204
111.295
109.004
106.459
103.794
101.034
98.1598
95.157
92.0237
)
;

boundaryField
{
    inlet
    {
        type            zeroGradient;
    }
    outlet
    {
        type            fixedValue;
        value           nonuniform 0();
    }
    flap
    {
        type            zeroGradient;
    }
    upperWall
    {
        type            zeroGradient;
    }
    lowerWall
    {
        type            zeroGradient;
    }
    frontAndBack
    {
        type            empty;
    }
    procBoundary1to0
    {
        type            processor;
        value           nonuniform List<scalar> 
18
(
152.039
150.259
150.259
150.717
149.164
147.725
146.398
145.181
144.071
143.069
142.171
141.38
140.694
140.117
139.647
139.297
139.054
138.957
)
;
    }
    procBoundary1to2
    {
        type            processor;
        value           nonuniform List<scalar> 
17
(
66.3235
69.5319
72.4663
75.094
77.4132
79.4394
81.1957
82.7074
83.9997
85.0954
86.017
86.7806
87.4092
87.9022
88.2995
88.5511
88.7627
)
;
    }
    procBoundary1to3
    {
        type            processor;
        value           nonuniform List<scalar> 9(174.13 171.162 168.302 165.566 162.963 160.5 158.177 155.994 153.949);
    }
    procBoundary1to4
    {
        type            processor;
        value           nonuniform List<scalar> 
30
(
175.549
169.854
169.854
166.798
159.603
159.603
155.065
147.155
147.155
141.541
134.001
134.001
128.066
122.606
118.835
118.835
115.753
111.584
107.053
107.053
100.993
94.4903
89.8684
89.8684
83.4271
79.3736
79.3736
72.8808
69.3871
69.3871
)
;
    }
}


// ************************************************************************* //
