/*--------------------------------*- C++ -*----------------------------------*\
| =========                 |                                                 |
| \\      /  F ield         | OpenFOAM: The Open Source CFD Toolbox           |
|  \\    /   O peration     | Version:  dev                                   |
|   \\  /    A nd           | Web:      www.OpenFOAM.org                      |
|    \\/     M anipulation  |                                                 |
\*---------------------------------------------------------------------------*/
FoamFile
{
    version     2.0;
    format      ascii;
    class       surfaceVectorField;
    location    "0.52";
    object      Uf;
}
// * * * * * * * * * * * * * * * * * * * * * * * * * * * * * * * * * * * * * //

dimensions      [0 1 -1 0 0 0 0];

internalField   nonuniform List<vector> 
865
(
(2.71071 -4.53275e-20 0.290669)
(3.42836 2.10799e-19 0.471959)
(2.1393 -4.43877e-20 0.302799)
(2.86347 -1.33306e-19 0.488032)
(1.57386 0 0.307686)
(2.29552 0 0.495157)
(1.03046 -2.12297e-19 0.298634)
(1.73672 9.69747e-20 0.488541)
(0.532451 4.61132e-19 0.264216)
(1.20254 -2.59943e-19 0.460222)
(0.11236 1.4956e-19 0.18329)
(0.717594 6.5685e-19 0.398449)
(-0.178416 -4.49979e-19 0.0424358)
(0.312956 -4.58366e-19 0.278538)
(-0.272943 3.21197e-20 -0.0950425)
(0.0608111 -1.11046e-20 0.0807636)
(0.0353935 4.81237e-19 -0.137688)
(3.56565 1.19026e-19 0.711886)
(4.07579 4.5342e-20 0.931111)
(3.00436 -8.69749e-20 0.729643)
(3.53402 8.29329e-20 0.965085)
(2.4455 9.85344e-20 0.730752)
(2.98468 -4.64471e-22 0.981355)
(1.90361 4.43793e-20 0.706785)
(2.43792 2.37328e-21 0.971051)
(1.39658 -5.00114e-20 0.645968)
(1.9061 9.65419e-20 0.921363)
(0.944588 2.7355e-20 0.534395)
(1.40317 0 0.815252)
(0.554013 -1.39531e-20 0.356521)
(0.941592 2.72025e-20 0.636285)
(0.223372 4.27572e-19 0.123938)
(0.5727 8.24864e-19 0.370525)
(0.369959 -1.89469e-18 -0.0317914)
(4.03129 9.30883e-21 1.1727)
(4.4302 -5.50607e-21 1.36015)
(3.50187 1.68471e-19 1.20565)
(3.92043 -1.68464e-19 1.41452)
(2.96679 -9.65933e-20 1.21252)
(3.3973 3.53527e-19 1.44503)
(2.4353 5.57819e-20 1.18175)
(2.86689 -9.51173e-20 1.4404)
(1.91664 1.46312e-19 1.09877)
(2.33589 5.23836e-20 1.38614)
(1.41738 0 0.948725)
(1.81035 0 1.26536)
(0.940303 8.71243e-19 0.725326)
(1.29128 0 1.06382)
(0.48262 -1.36959e-18 0.435306)
(0.804056 8.65769e-19 0.776088)
(0.496899 -2.80008e-18 0.350553)
(4.30858 -1.86037e-19 1.60085)
(4.64658 -3.139e-19 1.76469)
(3.80558 2.24253e-20 1.65358)
(4.16091 1.56067e-19 1.8417)
(3.28887 3.50422e-19 1.67458)
(3.65681 -3.34289e-19 1.89185)
(2.76242 -9.73523e-20 1.65059)
(3.1365 1.80134e-19 1.90288)
(2.22932 -9.53946e-20 1.56606)
(2.60216 2.80727e-19 1.86002)
(1.69025 0 1.40611)
(2.05537 -3.89548e-19 1.74757)
(1.14409 0 1.16445)
(1.49423 -3.05656e-19 1.55392)
(0.58436 -4.27126e-19 0.833128)
(0.929597 4.23622e-19 1.2828)
(0.552735 -1.7947e-19 0.904856)
(4.48974 3.47012e-20 2.00795)
(4.79736 -1.51019e-20 2.1537)
(4.00331 -2.07092e-19 2.0834)
(4.32626 5.03315e-19 2.25548)
(3.49673 -5.00876e-19 2.12507)
(3.83263 -5.23468e-19 2.33)
(2.9704 5.60863e-19 2.11931)
(3.31597 4.18081e-21 2.36477)
(2.42417 -1.99639e-20 2.05102)
(2.77561 3.78926e-19 2.34524)
(1.85724 -6.95142e-19 1.90683)
(2.21102 -3.90867e-19 2.25651)
(1.27022 1.2682e-19 1.68282)
(1.62029 -3.06503e-19 2.08745)
(0.66871 6.4886e-19 1.37378)
(1.00226 5.29891e-19 1.84)
(0.582468 -2.36033e-20 1.47195)
(4.62587 4.61917e-19 2.40479)
(4.92165 1.6507e-19 2.53476)
(4.14761 1.7581e-19 2.50622)
(4.45779 -1.56663e-19 2.66354)
(3.64427 -1.03005e-20 2.57441)
(3.96798 3.36286e-19 2.76645)
(3.11414 -1.75589e-19 2.5959)
(3.44997 -5.21443e-19 2.8312)
(2.55539 0 2.55633)
(2.90143 -3.59314e-19 2.84365)
(1.96649 -4.21624e-22 2.44358)
(2.32071 -3.79107e-19 2.78966)
(1.34674 1.0634e-19 2.25606)
(1.70692 2.94564e-19 2.65951)
(0.691625 -1.46704e-19 1.98179)
(1.05068 5.32662e-20 2.46096)
(0.594331 -1.85053e-21 2.1636)
(4.74643 -4.61726e-19 2.79805)
(5.04148 -1.58901e-19 2.91315)
(4.2707 9.4859e-21 2.92864)
(4.58043 -4.65442e-19 3.07135)
(3.76589 -1.86326e-19 3.0282)
(4.09029 3.24299e-19 3.20626)
(3.22897 -7.04761e-19 3.08366)
(3.56766 -3.42517e-19 3.30599)
(2.65728 -7.40193e-19 3.08107)
(3.00916 -8.22673e-21 3.3567)
(2.04929 -7.67641e-20 3.00857)
(2.41256 -1.24138e-20 3.3444)
(1.40617 2.38195e-19 2.8644)
(1.7792 2.95124e-19 3.2587)
(0.732874 2.01189e-19 2.64452)
(1.09819 1.0121e-19 3.1047)
(0.611297 -8.92896e-19 2.86263)
(4.8691 -1.64942e-19 3.19187)
(5.17021 2.91232e-19 3.29187)
(4.39296 -1.41314e-19 3.35478)
(4.71009 -4.55698e-19 3.48224)
(3.88404 1.61395e-19 3.48993)
(4.21778 3.15595e-19 3.65272)
(3.33844 3.63428e-19 3.58452)
(3.68895 1.67958e-19 3.79186)
(2.75295 7.23674e-19 3.62444)
(3.11916 3.56638e-19 3.88577)
(2.12671 3.63536e-19 3.59646)
(2.50522 -3.49188e-19 3.91932)
(1.46439 1.55264e-19 3.49376)
(1.84932 0 3.87807)
(0.783511 -9.70329e-19 3.2853)
(1.1387 1.53306e-19 3.7541)
(0.625539 -4.30289e-19 3.45482)
(5.00563 -7.9714e-21 3.58847)
(5.31683 6.83259e-19 3.67211)
(4.52838 1.25141e-20 3.78707)
(4.85787 -1.48744e-19 3.89777)
(4.01466 3.21708e-19 3.96195)
(4.36353 7.3951e-19 4.10768)
(3.45954 1.63173e-19 4.1004)
(3.82861 1.67209e-19 4.29088)
(2.85877 -7.32486e-19 4.18759)
(3.2473 0 4.43327)
(2.21075 -7.11524e-19 4.20785)
(2.61417 -1.23906e-18 4.51822)
(1.51936 0 4.14867)
(1.92935 1.84214e-19 4.52753)
(0.794437 7.92409e-19 3.97011)
(1.17204 1.93786e-19 4.44846)
(0.624196 7.52665e-19 4.19974)
(5.16454 5.36448e-19 3.98832)
(5.4885 2.21e-20 4.05334)
(4.68742 5.95769e-19 4.22647)
(5.03272 1.34858e-19 4.31802)
(4.17 5.79401e-19 4.44572)
(4.53821 4.45694e-19 4.57188)
(3.60615 0 4.6335)
(3.99912 5.73324e-19 4.80454)
(2.9895 -5.23627e-19 4.77406)
(3.40826 0 5.00206)
(2.31524 -3.20392e-19 4.84917)
(2.75698 1.42788e-19 5.14683)
(1.58344 3.77971e-19 4.84152)
(2.04103 8.89584e-19 5.21747)
(0.803231 1.89557e-19 4.69431)
(1.23313 3.79338e-19 5.19482)
(0.624641 0 4.98784)
(5.35352 -3.86223e-19 4.39035)
(5.69194 -2.89174e-19 4.43357)
(4.87952 -1.92981e-20 4.67258)
(5.24275 2.01704e-19 4.74153)
(4.36137 4.40116e-19 4.94174)
(4.7515 -2.32338e-19 5.04471)
(3.79188 5.72025e-19 5.18556)
(4.2119 1.87161e-19 5.33334)
(3.16231 6.84125e-19 5.3876)
(3.61618 -1.38876e-19 5.5939)
(2.463 1.37942e-18 5.52712)
(2.95278 1.86281e-18 5.80878)
(1.68677 8.8368e-19 5.57636)
(2.2068 5.69868e-20 5.95445)
(0.863927 1.87111e-19 5.41476)
(1.29088 -1.71206e-19 5.98095)
(0.630528 5.32109e-20 5.49228)
(5.57985 3.10688e-19 4.79239)
(5.9329 1.04529e-20 4.80999)
(5.11341 -1.64173e-20 5.124)
(5.49524 6.54055e-20 5.16604)
(4.59942 -4.98942e-19 5.45003)
(5.01196 -3.29958e-19 5.52514)
(4.03007 -5.53463e-19 5.75861)
(4.47631 3.78297e-20 5.87819)
(3.39534 1.0888e-18 6.03317)
(3.88118 3.16272e-19 6.21213)
(2.67978 4.82121e-19 6.25368)
(3.21746 -6.22843e-19 6.51129)
(1.84837 -1.0425e-18 6.40902)
(2.47791 -7.37739e-19 6.7668)
(0.742557 -3.0582e-19 6.36097)
(1.50835 -2.39643e-18 7.05544)
(0.880927 3.34072e-18 7.24354)
(5.84922 -2.401e-19 5.19169)
(6.21657 -3.00276e-19 5.17882)
(5.39659 -2.56753e-19 5.57953)
(5.79855 -1.1014e-19 5.5891)
(4.8931 2.33143e-19 5.97281)
(5.33121 -3.7321e-19 6.01395)
(4.33117 9.7087e-19 6.36216)
(4.80625 -9.05222e-20 6.44643)
(3.70351 -1.58303e-18 6.73516)
(4.21774 2.33072e-19 6.87498)
(3.00179 -2.01291e-18 7.0814)
(3.56902 -1.48622e-18 7.28498)
(2.21635 -2.26796e-18 7.42745)
(2.91316 0 7.66485)
(1.3339 1.4788e-18 7.68072)
(2.1702 -1.87149e-18 8.06698)
(1.75154 -2.48687e-18 8.15836)
(6.16793 -1.68688e-19 5.58315)
(6.55021 3.73792e-19 5.53282)
(5.73913 -2.2754e-19 6.03537)
(6.16618 5.3214e-19 6.00357)
(5.25577 -7.2876e-19 6.50927)
(5.73182 -1.16322e-19 6.5064)
(4.70942 -9.14067e-19 6.99842)
(5.23389 -6.14033e-19 7.03962)
(4.09932 4.95634e-19 7.48536)
(4.65352 -1.09776e-18 7.59115)
(3.45404 8.08754e-19 7.91812)
(3.95816 1.49678e-18 8.11394)
(2.89138 5.66679e-19 8.16462)
(3.12653 0 8.45177)
(2.73865 -7.8477e-18 7.87093)
(2.17058 -9.18911e-20 8.2019)
(-1.19723 3.93205e-19 6.62262)
(6.54724 1.0769e-18 5.95398)
(6.94502 1.43895e-20 5.85753)
(6.16065 6.41836e-19 6.4764)
(6.61648 2.90526e-20 6.38897)
(5.71785 0 7.04416)
(6.2457 -2.04925e-19 6.97497)
(5.19834 -7.98353e-19 7.66226)
(5.81877 -3.79585e-19 7.62912)
(4.56144 -1.17559e-19 8.33254)
(5.31116 4.6008e-19 8.37423)
(3.71064 6.99319e-19 9.04449)
(4.66753 -3.00054e-19 9.25652)
(2.40654 -4.08565e-19 9.74904)
(3.76504 1.47818e-18 10.3773)
(0.11934 1.15291e-17 10.6267)
(3.26378 -1.1338e-18 12.0095)
(-0.0736182 7.3141e-18 14.7626)
(-0.429726 2.7455e-18 0.598754)
(-0.0340508 3.78105e-18 0.981054)
(-1.58252 1.28145e-20 0.633444)
(-1.16969 7.47903e-19 0.917873)
(-2.69603 -1.15018e-19 0.626967)
(-2.30555 -1.66508e-19 0.944491)
(-3.81578 2.2486e-20 0.616347)
(-3.41127 0 0.974421)
(-4.94253 2.29098e-20 0.595447)
(-4.5306 1.95225e-20 0.980978)
(-6.06441 -7.07762e-21 0.566882)
(-5.64869 -2.48136e-20 0.967718)
(-7.16892 -1.51672e-20 0.533433)
(-6.75293 -7.15943e-21 0.94007)
(-8.24475 -2.38623e-20 0.496717)
(-7.83184 3.72528e-20 0.901847)
(-9.2817 -1.62785e-20 0.457548)
(-8.8752 3.27944e-20 0.855354)
(-9.87352 0 0.801856)
(-0.993325 -1.47796e-19 1.35771)
(-0.473605 -9.15275e-19 1.58976)
(-1.95067 5.6673e-19 1.39197)
(-1.44256 6.15664e-19 1.82792)
(-3.00841 -3.98284e-20 1.437)
(-2.51645 -2.91408e-20 1.92691)
(-4.10463 5.8048e-22 1.4563)
(-3.58179 -2.21027e-20 1.96504)
(-5.21133 -2.39678e-20 1.4471)
(-4.66464 -4.44465e-20 1.96028)
(-6.31079 -2.51251e-20 1.41563)
(-5.74368 -1.47809e-21 1.9235)
(-7.38964 4.37479e-20 1.36742)
(-6.80581 5.60391e-20 1.86239)
(-8.43678 9.2456e-20 1.30619)
(-7.84021 7.68143e-20 1.78244)
(-9.44241 4.88012e-20 1.23416)
(-8.83759 1.69171e-20 1.68716)
(-9.78933 -7.17612e-20 1.57846)
(-0.985623 -7.55975e-20 2.27807)
(-0.416162 5.01921e-20 2.80351)
(-2.02327 2.01692e-20 2.38642)
(-1.46412 -1.20835e-20 2.87345)
(-3.06317 -1.11915e-20 2.43681)
(-2.51859 2.14028e-20 2.92919)
(-4.11731 -6.82027e-20 2.44225)
(-3.54051 -1.08564e-21 2.9413)
(-5.17186 -2.26547e-20 2.40873)
(-4.56851 -2.35995e-20 2.90822)
(-6.21361 8.02639e-20 2.34404)
(-5.58552 -5.75831e-20 2.8387)
(-7.23167 8.81293e-20 2.25426)
(-6.58245 8.75131e-20 2.73973)
(-8.2169 3.97968e-22 2.1439)
(-7.55105 -2.77393e-20 2.61673)
(-9.16109 -1.03447e-19 2.01578)
(-8.48399 -3.21194e-20 2.47326)
(-9.37416 8.01632e-21 2.31121)
(-0.978287 1.48695e-19 3.27365)
(-0.384544 1.74612e-19 3.66613)
(-1.96868 -1.11033e-20 3.38435)
(-1.40501 -2.14925e-20 3.84397)
(-2.97041 3.22381e-20 3.41287)
(-2.40767 1.04297e-20 3.88724)
(-3.96961 4.54365e-20 3.38899)
(-3.37116 -2.94002e-20 3.87038)
(-4.9591 -5.74285e-20 3.32165)
(-4.33277 7.31229e-20 3.80465)
(-5.93126 -5.38103e-20 3.21954)
(-5.27771 2.86116e-20 3.70009)
(-6.87889 -2.93857e-20 3.08883)
(-6.20122 4.56505e-21 3.56343)
(-7.79549 -6.13766e-20 2.9339)
(-7.09792 -2.45093e-20 3.39962)
(-8.67476 8.00269e-20 2.75731)
(-7.96257 0 3.21166)
(-8.78952 1.58487e-19 3.00078)
(-0.896589 5.57267e-21 4.22156)
(-0.299741 5.36203e-20 4.54878)
(-1.84308 0 4.32575)
(-1.27128 -4.56272e-20 4.76188)
(-2.78456 -5.07187e-20 4.32747)
(-2.22403 3.9585e-20 4.78132)
(-3.71508 -3.47182e-21 4.27214)
(-3.11609 -1.30379e-19 4.73509)
(-4.63038 1.60876e-19 4.1711)
(-4.00088 4.962e-20 4.63743)
(-5.52632 8.70861e-20 4.03345)
(-4.86591 1.49096e-19 4.49978)
(-6.39876 9.31854e-21 3.86499)
(-5.71 -1.89606e-19 4.32873)
(-7.2435 3.67308e-20 3.66938)
(-6.53009 -2.95034e-20 4.12853)
(-8.05588 7.6601e-20 3.44829)
(-7.32274 -1.93628e-20 3.90118)
(-8.08344 3.04692e-20 3.64682)
(-0.732464 -4.10104e-22 5.16155)
(-0.23662 5.67652e-20 5.6889)
(-1.66131 -6.97903e-21 5.21179)
(-1.13768 -4.48132e-20 5.66133)
(-2.53395 -3.72553e-20 5.17345)
(-2.00048 5.23465e-20 5.60827)
(-3.38487 -7.99967e-20 5.08607)
(-2.8018 8.57389e-21 5.52627)
(-4.21707 3.5535e-20 4.95374)
(-3.59857 6.31804e-20 5.398)
(-5.02968 -1.24426e-19 4.78443)
(-4.37495 -1.91298e-19 5.23105)
(-5.82097 -2.31232e-19 4.58305)
(-5.13231 -1.41839e-19 5.03051)
(-6.58864 -8.68398e-20 4.3522)
(-5.86934 -8.60792e-20 4.79938)
(-7.32937 -6.73287e-20 4.09238)
(-6.58408 -1.60116e-19 4.5383)
(-7.27303 -4.8184e-20 4.24606)
(-0.734775 1.12669e-20 5.99504)
(-0.186272 -5.79982e-20 6.20928)
(-1.4739 1.35406e-20 6.00811)
(-0.999353 -3.26732e-21 6.37718)
(-2.24315 1.00755e-19 5.93942)
(-1.74783 1.33252e-20 6.33755)
(-2.99959 1.51794e-19 5.82276)
(-2.44458 2.92655e-20 6.23161)
(-3.73815 -1.61882e-19 5.66289)
(-3.14194 -3.25233e-20 6.07784)
(-4.45866 -2.08505e-19 5.46685)
(-3.81964 -6.61823e-20 5.88702)
(-5.16103 5.11222e-21 5.23808)
(-4.48147 1.61785e-19 5.66285)
(-5.84453 -1.58826e-19 4.97776)
(-5.12746 -2.91697e-20 5.40682)
(-6.507 -1.42729e-19 4.68493)
(-5.75696 -1.41565e-19 5.11799)
(-6.36735 -2.81681e-21 4.79367)
(-0.578598 -7.15191e-20 6.66936)
(-0.0854692 -4.00166e-21 6.94039)
(-1.26149 -3.63045e-21 6.69946)
(-0.815406 -6.96739e-20 7.03918)
(-1.92343 -5.96994e-20 6.61131)
(-1.46532 1.0378e-19 6.96556)
(-2.57209 -1.57041e-19 6.47191)
(-2.05243 -2.51543e-19 6.84)
(-3.20558 6.47423e-20 6.2905)
(-2.64042 -2.24358e-19 6.66831)
(-3.82402 3.06231e-19 6.07377)
(-3.20925 1.75616e-19 6.46047)
(-4.42854 1.32246e-19 5.82372)
(-3.76619 1.34396e-19 6.21915)
(-5.01972 -8.60719e-21 5.54)
(-4.31259 -9.87904e-21 5.9445)
(-5.59644 -1.09785e-21 5.22012)
(-4.84902 1.57809e-19 5.63407)
(-5.37369 -1.69364e-19 5.28371)
(-0.429838 -9.44257e-21 7.32624)
(0.00708815 4.56329e-19 7.68466)
(-1.01859 3.58236e-20 7.29314)
(-0.654273 -1.01635e-19 7.60232)
(-1.57321 -8.33811e-20 7.18179)
(-1.169 3.49051e-20 7.49104)
(-2.10768 -3.19396e-19 7.0255)
(-1.6319 2.42138e-19 7.34757)
(-2.6264 -1.19685e-19 6.82926)
(-2.10003 1.24538e-20 7.1633)
(-3.13301 3.08635e-21 6.59833)
(-2.55014 -3.09881e-19 6.94476)
(-3.63071 -6.53311e-21 6.3333)
(-2.99329 2.7924e-21 6.69255)
(-4.12143 1.56807e-19 6.03235)
(-3.432 2.13221e-22 6.40545)
(-4.60501 -4.80344e-21 5.69155)
(-3.868 -4.2675e-20 6.07957)
(-4.30021 1.19557e-20 5.70942)
(-0.391929 3.32144e-19 7.77702)
(0.094173 -6.55299e-21 7.74325)
(-0.781589 -1.05191e-19 7.76576)
(-0.46485 -3.63108e-20 7.97208)
(-1.20365 3.60249e-19 7.64493)
(-0.85473 -6.9885e-20 7.89602)
(-1.61132 5.84297e-19 7.47797)
(-1.18619 1.55681e-19 7.74802)
(-2.00535 -1.72064e-19 7.27288)
(-1.52506 1.25387e-19 7.55742)
(-2.3913 -3.1655e-19 7.03368)
(-1.84765 -4.61307e-20 7.33357)
(-2.77424 9.70625e-21 6.75958)
(-2.16946 3.78316e-19 7.07587)
(-3.15736 -2.00733e-19 6.44746)
(-2.49381 0 6.782)
(-3.54126 -2.55887e-20 6.09199)
(-2.82334 -2.76912e-20 6.44674)
(-3.15743 1.83306e-19 6.06332)
(-0.132586 -2.95009e-19 8.16801)
(0.169945 -1.13154e-19 8.47014)
(-0.520074 0 8.12845)
(-0.277004 -7.52641e-20 8.34473)
(-0.814394 -2.87597e-19 7.99673)
(-0.529542 0 8.19442)
(-1.08581 -3.15963e-19 7.82403)
(-0.716867 -5.9639e-19 8.03819)
(-1.34673 2.61436e-19 7.61474)
(-0.919045 -2.00798e-20 7.84461)
(-1.60504 6.56362e-19 7.37211)
(-1.10755 5.56775e-20 7.61919)
(-1.8673 3.76867e-19 7.09429)
(-1.30298 3.0803e-19 7.36053)
(-2.13756 1.77421e-19 6.77691)
(-1.50868 -2.20629e-19 7.06536)
(-2.41677 1.81562e-19 6.41329)
(-1.72781 4.11835e-19 6.72695)
(-1.95972 -9.91684e-20 6.33716)
(-0.128581 6.06396e-20 8.47543)
(0.107281 1.67128e-19 8.55277)
(-0.258094 -7.84102e-20 8.3781)
(-0.192526 -1.42612e-20 8.47928)
(-0.401683 -2.99968e-19 8.23503)
(-0.202041 4.75581e-19 8.3674)
(-0.532047 -3.08634e-19 8.05858)
(-0.227564 -4.59604e-20 8.21149)
(-0.655085 -2.35471e-19 7.84739)
(-0.287547 7.47677e-20 8.01425)
(-0.781912 -3.12339e-19 7.60508)
(-0.338355 1.38664e-19 7.78995)
(-0.920631 -2.93644e-19 7.32853)
(-0.405487 -3.96708e-19 7.53551)
(-1.07545 4.4499e-21 7.01179)
(-0.49121 -5.1857e-20 7.24546)
(-1.24715 1.36555e-19 6.64665)
(-0.598331 -4.50872e-20 6.91107)
(-0.725786 -8.74578e-22 6.52246)
(-0.273375 7.44649e-20 8.2349)
(0.59422 -4.81018e-19 7.01544)
(-0.0152352 5.80218e-19 8.43357)
(0.266112 8.06898e-20 8.23897)
(0.0168428 7.88074e-19 8.33706)
(0.232049 -2.77139e-19 8.37627)
(0.0395082 3.63883e-19 8.16375)
(0.288128 4.83435e-19 8.23391)
(0.0586865 4.66064e-19 7.95572)
(0.361246 7.93386e-20 8.04128)
(0.0642877 6.97246e-20 7.72058)
(0.445672 2.88595e-19 7.82721)
(0.0490398 -1.5865e-19 7.45355)
(0.505028 -3.13365e-19 7.58668)
(0.0098716 -1.01894e-19 7.14646)
(0.537176 1.76693e-19 7.31118)
(-0.0530963 -1.8547e-19 6.78886)
(0.540754 -1.91118e-19 6.98975)
(0.517942 1.00312e-19 6.61103)
(1.05112 -5.39001e-19 8.18401)
(-0.819643 -4.84646e-18 9.58729)
(0.513269 -8.1168e-19 8.50895)
(0.252548 8.52908e-19 9.04869)
(0.502236 -5.98014e-19 8.33679)
(0.397142 -3.82795e-19 8.42426)
(0.631969 1.95351e-19 8.12453)
(0.714466 -4.52081e-19 8.11219)
(0.780498 -1.11713e-19 7.91801)
(0.985282 0 7.90637)
(0.913122 -9.3434e-20 7.6986)
(1.21871 -2.89703e-21 7.71295)
(1.01716 2.0192e-20 7.45132)
(1.40569 -1.48518e-19 7.50187)
(1.0899 9.1371e-20 7.16309)
(1.55247 7.87313e-20 7.25491)
(1.13315 9.30155e-20 6.82166)
(1.66285 1.79015e-19 6.95768)
(1.74184 1.91511e-19 6.59803)
(-1.12501 9.8872e-19 7.95464)
(-1.96437 8.37064e-20 5.81238)
(0.044969 1.43554e-18 8.19669)
(-0.584301 -6.11794e-20 7.14521)
(0.683204 -5.40858e-20 8.02035)
(0.321483 9.6915e-19 7.54772)
(1.11461 -6.70534e-19 7.85383)
(1.05381 -8.85619e-19 7.57112)
(1.45663 1.1227e-19 7.69581)
(1.56736 -1.28609e-19 7.50925)
(1.73503 -5.32578e-20 7.52259)
(1.96406 -1.5726e-19 7.40952)
(1.96078 -9.24643e-20 7.31603)
(2.28097 -1.82896e-19 7.26745)
(2.14268 1.64948e-19 7.0615)
(2.53962 1.52359e-19 7.07217)
(2.28818 2.77882e-19 6.74683)
(2.75243 7.84523e-21 6.81399)
(7.01232 -1.04222e-18 6.29208)
(7.41243 -6.19687e-19 6.14039)
(6.69753 -8.18026e-19 6.88214)
(7.16272 1.97926e-19 6.72201)
(6.33931 -5.78535e-19 7.54492)
(6.89027 -5.99482e-19 7.37644)
(5.91924 8.13869e-19 8.30498)
(6.59074 2.98871e-19 8.12856)
(5.40312 3.24541e-19 9.20516)
(6.26068 7.67603e-19 9.02083)
(4.73142 5.17297e-19 10.3264)
(5.90403 -2.09366e-18 10.128)
(3.79645 1.51675e-18 11.7779)
(5.42146 1.91984e-18 11.5854)
(2.49456 -1.0281e-18 14.1875)
(5.92298 -6.46547e-19 13.5746)
(4.27237 0 15.4494)
(5.37542 -8.0051e-19 16.6048)
(7.55111 6.14515e-19 6.56565)
(7.92859 -1.97359e-19 6.35617)
(7.33574 3.97516e-19 7.20363)
(7.77196 7.97625e-19 6.96597)
(7.10705 2.39882e-19 7.93073)
(7.61755 1.63394e-19 7.65382)
(6.86709 2.57696e-19 8.77855)
(7.47299 8.0486e-20 8.4427)
(6.62752 -1.46868e-18 9.79474)
(7.35411 4.60533e-19 9.36431)
(6.43771 -4.47382e-19 11.0546)
(7.31128 -1.73819e-18 10.4512)
(6.44876 6.4423e-19 12.6612)
(7.25298 6.28864e-19 11.7189)
(6.82347 -1.31596e-19 14.7324)
(7.97951 1.65823e-19 13.2551)
(7.88141 -1.50554e-20 14.7974)
(7.83041 3.66898e-19 14.9539)
(8.13512 0 6.75325)
(8.47022 0 6.49301)
(8.03062 5.53485e-19 7.40805)
(8.40878 -1.76973e-19 7.10577)
(7.94556 1.72585e-21 8.14961)
(8.37172 6.78086e-19 7.78938)
(7.89788 2.4508e-19 9.00103)
(8.37354 -4.68401e-19 8.55793)
(7.92027 8.53365e-20 9.98767)
(8.43501 5.84542e-19 9.42624)
(8.06512 -6.18198e-19 11.1291)
(8.61046 1.42539e-19 10.4028)
(8.41353 4.5881e-19 12.4644)
(8.8298 -1.92524e-19 11.4735)
(8.98805 4.20635e-19 13.9074)
(9.51635 2.96683e-19 12.7345)
(10.0608 2.66165e-20 14.0401)
(9.81786 6.06266e-21 14.2811)
(8.73069 -1.79064e-19 6.84667)
(8.73024 -3.47319e-20 7.48826)
(9.03811 -5.95183e-19 7.14373)
(8.77107 1.84603e-19 8.20132)
(9.10244 -5.46722e-19 7.79596)
(8.87318 -1.11195e-19 8.99641)
(9.22097 1.09554e-18 8.5124)
(9.06412 6.47524e-19 9.87992)
(9.41149 5.89912e-20 9.29797)
(9.37454 5.79181e-19 10.8419)
(9.71467 1.05672e-18 10.1541)
(9.84164 -3.40884e-19 11.9006)
(10.097 2.65344e-19 11.061)
(10.5162 -9.93545e-20 12.9882)
(10.7495 2.355e-20 12.0757)
(11.5805 2.3863e-20 13.0483)
(11.4819 4.42336e-20 13.4949)
(9.39728 -1.10813e-18 7.45857)
(9.53586 3.9334e-19 8.11922)
(9.74273 1.25161e-18 8.83523)
(9.98594 6.73122e-19 8.34839)
(10.0384 4.79915e-19 9.60506)
(10.265 -6.94813e-20 9.04347)
(10.4455 7.39155e-19 10.4139)
(10.6457 -2.3212e-19 9.77936)
(10.9894 6.47638e-19 11.267)
(11.1213 2.55958e-19 10.5333)
(11.7227 1.50901e-19 12.1186)
(11.763 9.74093e-20 11.323)
(12.6483 2.66101e-22 12.0529)
(12.6525 -1.67901e-20 12.609)
(10.5031 -6.70687e-19 8.57166)
(10.8662 -7.96365e-19 9.23438)
(11.3298 -7.22792e-19 9.91226)
(11.4248 -2.47644e-19 9.32287)
(11.9077 -3.08379e-19 10.5978)
(11.9423 -3.37963e-19 9.94162)
(12.6275 -5.75269e-20 11.2579)
(12.5689 -1.40153e-19 10.5563)
(13.4136 3.74084e-20 11.1172)
(13.4759 1.78053e-20 11.6784)
(12.0475 1.46435e-19 9.36291)
(12.6257 -1.65465e-19 9.91033)
(13.306 -4.33735e-20 10.4209)
(13.1951 1.14217e-20 9.80845)
(13.9769 2.48971e-21 10.2411)
(14.0795 4.77836e-21 10.7654)
(13.82 5.87393e-20 9.62698)
(14.5248 -7.97453e-21 9.90098)
(3.87998 -3.50398e-19 13.4293)
(5.76062 3.58977e-19 14.4539)
(-0.467081 3.14571e-19 8.34665)
(5.50647 -3.23663e-19 9.45343)
(1.40615 0 5.14894)
(-2.71424 2.3157e-19 4.70771)
(7.93882 7.85529e-20 12.9834)
(8.89283 2.33124e-19 14.6041)
(6.51591 -2.18274e-19 9.45837)
(9.07494 -2.97603e-19 12.0094)
(7.28391 2.45838e-19 8.76915)
(3.86993 0 6.42513)
(10.1574 -7.37813e-20 13.2793)
(10.7537 1.70692e-20 13.8854)
(9.74221 1.58943e-19 11.2326)
(11.0997 -1.11127e-19 12.69)
(10.5115 3.06061e-19 10.8593)
(8.47641 2.65222e-19 8.9661)
(11.8473 -3.4415e-20 13.1413)
(12.1864 6.94287e-21 13.082)
(11.8465 2.46188e-20 12.1677)
(12.5967 -3.1501e-20 12.615)
(12.5468 1.12669e-20 11.7029)
(11.3529 8.23064e-20 10.6977)
(13.0467 1.12724e-20 12.5448)
(13.2013 1.15494e-22 12.1971)
(13.2696 -4.26061e-20 12.1612)
(13.6453 1.01559e-20 12.0901)
(13.8517 -4.28233e-20 11.7141)
(13.2215 -3.97691e-20 11.3195)
(13.8753 -1.27429e-21 11.7319)
(13.9171 -1.28802e-21 11.283)
(14.2069 6.89485e-21 11.64)
(14.3646 4.70399e-21 11.3253)
(14.6794 -4.57115e-22 11.2235)
(14.4045 -3.18839e-20 11.2231)
(14.4621 4.75932e-21 10.8565)
(14.4344 -3.44818e-21 10.3888)
(14.8253 -2.2545e-21 10.8897)
(14.8615 8.24764e-21 10.476)
(15.2025 -3.48277e-21 10.4915)
(15.132 1.01916e-20 10.7252)
(14.8789 2.80713e-22 9.99092)
(15.2336 7.19246e-21 10.0608)
(15.2023 7.00371e-22 9.62981)
(15.5313 6.5649e-21 9.68088)
(15.5704 -6.07797e-22 10.0244)
(15.499 -4.09181e-23 9.23639)
(15.827 4.68356e-21 9.25167)
(-1.50735 -6.06872e-19 5.81649)
(-0.0260674 3.56442e-19 3.89315)
(-0.14787 -4.74545e-19 6.76816)
(-0.013756 -1.72828e-18 4.99628)
(0.844553 2.36327e-19 7.12951)
(0.77911 1.44749e-18 6.11595)
(1.56415 -3.43718e-19 7.23047)
(1.56795 2.53026e-19 6.61037)
(2.1087 -4.07648e-19 7.23192)
(2.20173 -2.56376e-19 6.8269)
(2.53776 -2.89074e-19 7.16548)
(2.72032 1.3229e-19 6.90018)
(2.88683 6.2182e-20 7.03476)
(3.14917 1.35124e-19 6.87148)
(3.17731 -4.8744e-21 6.83574)
(3.51031 -6.89062e-20 6.75463)
(3.82 2.3499e-19 6.5526)
(1.33192 -8.10944e-19 4.26964)
(4.54256 -7.8629e-20 5.60338)
(0.944652 1.02086e-19 5.00054)
(2.78784 -4.14087e-20 4.83424)
(1.51564 1.33015e-18 5.8739)
(2.29195 2.8671e-19 5.14772)
(2.21312 2.43589e-19 6.33296)
(2.54505 3.5691e-19 5.64535)
(2.82491 2.61854e-19 6.56145)
(3.02916 -1.87234e-19 6.04037)
(3.34287 5.39392e-19 6.64417)
(3.53864 1.89349e-20 6.26863)
(3.78483 3.88265e-21 6.61584)
(4.01339 8.12457e-20 6.35599)
(4.16724 1.71102e-19 6.4898)
(4.44278 -1.45583e-19 6.32529)
(4.82926 3.07476e-19 6.1876)
(5.68659 7.74295e-19 5.90427)
(8.73476 -7.56013e-20 7.88608)
(3.88627 4.20708e-19 4.96355)
(6.64131 8.91391e-19 6.10337)
(3.24947 -4.94142e-19 5.04199)
(5.09622 -4.33141e-19 5.38542)
(3.33587 -6.10222e-20 5.44203)
(4.43914 -3.87784e-19 5.27308)
(3.73225 -4.26021e-19 5.7985)
(4.37476 -8.83021e-20 5.44071)
(4.20755 -4.34767e-19 6.0143)
(4.61117 -3.50615e-19 5.65274)
(4.67588 -6.50957e-20 6.09079)
(4.97785 4.46897e-19 5.79231)
(5.11341 -8.93179e-21 6.04343)
(5.38812 -5.44957e-19 5.82436)
(5.80004 -3.10905e-19 5.74446)
(9.51989 2.34669e-20 7.94979)
(11.6948 4.10529e-20 9.51749)
(7.61876 -3.70703e-20 6.3405)
(10.1702 3.83652e-21 7.66117)
(6.21283 -4.31903e-19 5.49588)
(8.54871 -3.6793e-19 6.42125)
(5.44915 -4.13215e-19 5.23168)
(7.32496 -4.01325e-19 5.71993)
(5.23318 -9.37531e-21 5.2855)
(6.6114 -2.68641e-20 5.41053)
(5.37054 5.23262e-19 5.42849)
(6.32672 4.98682e-19 5.33321)
(5.68833 -2.52568e-20 5.52846)
(6.34579 -1.13081e-20 5.34485)
(6.07906 -8.48776e-19 5.53241)
(6.5541 5.11971e-20 5.34478)
(6.86531 -4.42459e-19 5.27731)
(12.3268 2.23395e-20 9.3022)
(13.6756 -2.49387e-20 10.3372)
(10.9909 -3.55173e-19 7.74782)
(12.855 -2.04031e-20 8.82936)
(9.61511 -3.23463e-19 6.58557)
(11.6947 -2.17029e-19 7.55055)
(8.4691 2.76801e-20 5.82951)
(10.523 5.40518e-19 6.59008)
(7.69005 4.92285e-19 5.4112)
(9.5402 0 5.92875)
(7.29238 -2.15549e-20 5.22185)
(8.83841 3.21347e-19 5.50822)
(7.20873 6.19833e-20 5.14285)
(8.43322 -5.6075e-19 5.25127)
(7.34265 4.73889e-19 5.07697)
(8.2861 3.6525e-19 5.07758)
(8.33413 -4.02758e-19 4.91804)
(14.214 -6.42097e-20 9.93279)
(14.922 -3.3441e-20 10.4794)
(13.5373 1.26799e-19 8.69767)
(14.6832 2.89098e-20 9.42995)
(12.5944 6.39023e-19 7.58617)
(14.0902 5.9792e-21 8.36255)
(11.5902 5.23952e-19 6.68284)
(13.3003 3.52215e-19 7.41222)
(10.6842 -1.75245e-19 5.99809)
(12.464 -1.58792e-19 6.62366)
(9.9778 -2.07404e-19 5.50619)
(11.7003 1.99345e-19 5.99919)
(9.51308 -2.69035e-19 5.15871)
(11.0881 -2.29203e-19 5.51561)
(9.28303 -5.05752e-19 4.89591)
(10.6633 1.2572e-20 5.13429)
(10.4258 -1.53568e-20 4.81067)
(15.389 6.03108e-20 10.0021)
(15.6575 2.38867e-20 10.1573)
(15.2521 -8.48479e-20 9.13815)
(15.8154 -7.22337e-22 9.51542)
(14.8102 -2.7642e-19 8.23172)
(15.7041 -1.17372e-19 8.736)
(14.183 -3.20118e-19 7.38271)
(15.3578 -1.61913e-19 7.93696)
(13.4866 2.14292e-19 6.63585)
(14.8584 -4.50003e-21 7.1827)
(12.8182 1.86333e-19 6.00334)
(14.2987 3.68752e-19 6.50443)
(12.2482 5.73108e-20 5.47576)
(13.7567 -3.11905e-20 5.91001)
(11.8176 5.21046e-19 5.02936)
(13.288 2.7885e-19 5.39032)
(12.9261 2.57192e-19 4.92556)
(16.0644 -3.87166e-20 9.67548)
(16.0632 -6.97994e-21 9.57013)
(16.2954 -3.0326e-20 9.13389)
(16.4483 -3.02555e-20 9.22183)
(16.2721 0 8.47162)
(16.6738 -1.71897e-20 8.7072)
(16.0454 1.49068e-19 7.76933)
(16.701 -7.17832e-20 8.10255)
(15.6821 1.42883e-19 7.07922)
(16.5555 1.52388e-19 7.46446)
(15.2504 1.58512e-19 6.43054)
(16.2945 -2.85744e-19 6.83084)
(14.8113 1.85721e-19 5.83424)
(15.9753 1.62055e-19 6.22334)
(14.4126 1.23119e-20 5.28746)
(15.6463 2.2656e-20 5.64959)
(15.345 1.85422e-19 5.10668)
(16.4143 7.52707e-22 9.11193)
(16.8552 -1.71529e-20 8.80171)
(16.7527 -3.12664e-22 8.69541)
(17.1217 -8.89134e-20 8.35537)
(17.1743 9.57512e-21 8.37873)
(17.2201 -7.34152e-20 7.82193)
(17.4608 -2.61324e-21 7.95186)
(17.1776 -2.68171e-19 7.24331)
(17.6011 0 7.45194)
(17.0323 -2.85834e-19 6.6504)
(17.6216 -2.4492e-19 6.91016)
(16.8254 -4.09285e-22 6.06243)
(17.5567 -1.92182e-21 6.34967)
(16.5953 1.95018e-19 5.48798)
(17.4392 1.90154e-21 5.78482)
(17.299 2.58523e-20 5.22194)
(17.0963 2.6516e-20 8.26986)
(17.5285 9.56191e-20 7.98145)
(17.8458 6.99225e-20 7.59581)
(18.0498 2.45705e-20 7.13839)
(18.1295 2.99936e-21 7.19632)
(18.1547 3.39951e-20 6.63253)
(18.3627 4.15327e-20 6.756)
(18.182 3.81246e-22 6.09673)
(18.5133 2.17362e-20 6.26934)
(18.1562 -1.65611e-19 5.54345)
(18.599 9.42499e-20 5.7504)
(18.6381 -1.78736e-19 5.20862)
(18.4418 1.65372e-20 6.82457)
(18.7245 2.65439e-20 6.40823)
(18.9364 1.15672e-19 5.94206)
(18.9578 2.39385e-20 6.01444)
(19.0888 8.65511e-20 5.43713)
(19.1977 -2.99139e-20 5.55664)
(19.386 -9.2166e-20 5.05933)
(19.2201 -1.20301e-19 5.64055)
(19.4975 -2.07703e-19 5.19376)
(19.6576 -6.22927e-20 4.79945)
)
;

boundaryField
{
    inlet
    {
        type            calculated;
        value           nonuniform 0();
    }
    outlet
    {
        type            calculated;
        value           nonuniform 0();
    }
    flap
    {
        type            calculated;
        value           nonuniform List<vector> 
33
(
(-2.83878e-15 -2.77556e-14 -1.33803e-15)
(0 0 0)
(-2.58265e-15 0 -2.75131e-14)
(9.53386e-16 -2.77556e-14 2.74818e-14)
(-5.17289e-18 1.26914e-33 -1.89387e-16)
(-2.02262e-16 0 -5.55357e-14)
(0 -2.77556e-14 0)
(0 0 0)
(-3.57951e-18 -2.77556e-14 -1.5756e-16)
(1.30531e-15 2.77556e-14 -1.11088e-13)
(3.17989e-17 -2.77556e-14 4.68656e-16)
(-3.99413e-16 -1.1716e-32 1.61615e-15)
(0 0 0)
(2.57296e-31 -2.77556e-14 -1.77668e-31)
(1.12824e-15 1.57685e-31 -3.79269e-15)
(-6.92798e-15 0 -2.75022e-16)
(1.05444e-13 -2.77556e-14 -1.45771e-13)
(0 0 0)
(1.21533e-15 -1.8355e-32 4.96889e-16)
(1.36212e-15 0 -4.02573e-15)
(0 0 0)
(1.83542e-15 -1.01603e-32 -5.45149e-14)
(-1.10605e-16 2.29681e-36 -5.55109e-14)
(-1.84851e-16 2.77556e-14 -2.25754e-15)
(1.99893e-15 -2.77556e-14 -5.54391e-14)
(0 0 0)
(0 0 0)
(-7.46612e-17 0 1.4376e-15)
(0 0 0)
(-4.88349e-18 -3.19897e-33 3.68131e-16)
(2.51958e-14 0 -1.04975e-13)
(-3.44753e-14 -2.77556e-14 -9.90191e-14)
(6.36682e-14 -5.55112e-14 -1.79856e-13)
)
;
    }
    upperWall
    {
        type            calculated;
        value           nonuniform 0();
    }
    lowerWall
    {
        type            calculated;
        value           uniform (0 0 0);
    }
    frontAndBack
    {
        type            empty;
        value           nonuniform 0();
    }
    procBoundary4to1
    {
        type            processor;
        value           nonuniform List<vector> 
30
(
(9.01266 -8.44376e-20 6.54921)
(9.31029 -5.07578e-19 6.85103)
(9.63565 -3.53738e-19 7.09229)
(9.78093 -7.62617e-19 7.69774)
(10.2237 -4.63716e-19 7.93853)
(10.6613 -3.8127e-19 8.09706)
(10.9989 -1.62355e-19 8.7013)
(11.5602 3.97278e-19 8.80105)
(12.0665 2.40688e-19 8.82104)
(12.5923 -3.15731e-19 9.32631)
(13.1838 -1.32606e-19 9.22955)
(13.6756 1.17762e-19 9.08907)
(14.3932 -8.83908e-22 9.42237)
(14.8077 -3.54368e-21 9.54259)
(15.1692 -2.83456e-21 9.16801)
(15.4293 -3.30085e-21 8.82552)
(15.7326 8.73048e-21 8.87707)
(16.2665 -1.43467e-20 8.86557)
(16.5643 -1.6251e-20 8.43945)
(16.8559 -4.21542e-22 8.05656)
(17.3643 3.7308e-20 7.86547)
(17.7985 9.02609e-20 7.57262)
(18.0818 2.40279e-20 7.17799)
(18.2939 -7.19234e-21 6.77564)
(18.6583 -3.28787e-20 6.42413)
(18.8901 -3.81667e-20 6.03787)
(19.0355 -2.48064e-21 5.63976)
(19.3696 -1.88497e-19 5.24339)
(19.528 -4.4958e-20 4.85702)
(19.5964 -6.53115e-20 4.46779)
)
;
    }
    procBoundary4to2
    {
        type            processor;
        value           nonuniform List<vector> 
11
(
(5.51591 -9.08851e-21 5.8835)
(6.48797 -6.1127e-19 5.42591)
(7.60702 2.30519e-19 4.96162)
(9.24925 -2.64733e-19 4.65916)
(11.5404 8.61195e-22 4.63263)
(14.0867 2.4569e-19 4.77821)