/*--------------------------------*- C++ -*----------------------------------*\
| =========                 |                                                 |
| \\      /  F ield         | OpenFOAM: The Open Source CFD Toolbox           |
|  \\    /   O peration     | Version:  dev                                   |
|   \\  /    A nd           | Web:      www.OpenFOAM.org                      |
|    \\/     M anipulation  |                                                 |
\*---------------------------------------------------------------------------*/
FoamFile
{
    version     2.0;
    format      ascii;
    class       surfaceScalarField;
    location    "2.5";
    object      phi;
}
// * * * * * * * * * * * * * * * * * * * * * * * * * * * * * * * * * * * * * //

dimensions      [0 3 -1 0 0 0 0];

internalField   nonuniform List<scalar> 
879
(
0.0119151
-0.000372999
0.0123264
-0.000397427
0.012718
-0.000374267
0.0130294
-0.000292757
0.0132557
-0.000208631
0.0134549
-0.000184724
0.0136589
-0.000194534
0.0137997
-0.000137576
0.0137876
8.01591e-06
0.013638
0.000137951
0.0134852
0.000133604
0.0135194
-6.04621e-05
0.0138791
-0.000392436
0.0145848
-0.000743868
0.0155786
-0.00103665
0.0168528
-0.00132067
0.0184983
-0.00169479
0.0206151
-0.00216807
0.0232577
-0.00269529
-0.00312664
0.0131172
-0.000776476
0.0135404
-0.000806311
0.013952
-0.000768307
0.0142872
-0.000609058
0.0145257
-0.000429506
0.0147479
-0.000392509
0.0150116
-0.000448757
0.0152627
-0.000385698
0.015379
-0.00011239
0.0152989
0.000206319
0.0151056
0.000307581
0.0149223
9.66168e-05
0.0148218
-0.000324654
0.0148679
-0.000828134
0.0150688
-0.00128027
0.0153713
-0.00166957
0.0158314
-0.00220408
0.0166343
-0.00302213
0.0180065
-0.00412005
-0.00541832
0.00994166
-0.000799091
0.00994995
-0.000799446
0.00992334
-0.000723491
0.00976581
-0.000432434
0.00943176
-7.77179e-05
0.00903289
2.07209e-05
0.00867233
-7.89059e-05
0.00825007
3.95307e-05
0.00756162
0.000571863
0.00655247
0.00120378
0.00525663
0.00158432
0.00378086
0.00154631
0.00235752
0.0010663
0.00123958
0.000251968
0.000648802
-0.000731883
0.000761477
-0.00182828
0.00161839
-0.00310984
0.00309986
-0.00455446
0.00495296
-0.00602546
-0.00755118
0.00502835
-0.000164828
0.0042807
-3.53156e-05
0.00345996
0.000116196
0.00236021
0.00068671
0.000734358
0.0015659
-0.00145352
0.00222289
-0.00391166
0.00238846
-0.00610891
0.00223974
-0.00775265
0.00221152
-0.00893378
0.00237345
-0.00979543
0.00242721
-0.0103385
0.00206373
-0.0104924
0.00118838
-0.0102152
-6.25508e-05
-0.00950623
-0.0014827
-0.00847327
-0.00290672
-0.00734808
-0.00428334
-0.00631637
-0.00563653
-0.00542701
-0.00696668
-0.00828179
-0.00277316
0.00180276
-0.00519996
0.00240945
-0.00781808
0.00275405
-0.010207
0.00309531
-0.0122003
0.0035771
-0.0139498
0.00398664
-0.0155516
0.00399948
-0.0169674
0.00365858
-0.0180311
0.00327135
-0.018619
0.00295021
-0.018731
0.00252092
-0.018461
0.00176869
-0.017949
0.000645126
-0.0173081
-0.000740085
-0.0166344
-0.0021975
-0.0160059
-0.00357994
-0.0154898
-0.00484705
-0.0151465
-0.00602964
-0.0149998
-0.00716457
-0.00819207
-0.0130548
0.00412275
-0.0151918
0.00456575
-0.017283
0.00486567
-0.0192559
0.0050881
-0.0209686
0.0053077
-0.0223491
0.0053814
-0.023451
0.00511066
-0.0243238
0.00453452
-0.0249098
0.00385377
-0.0251266
0.00315628
-0.0249837
0.00236032
-0.0245974
0.00135797
-0.0241174
0.00013469
-0.0236547
-0.00123859
-0.0232747
-0.00261779
-0.0230175
-0.00388103
-0.0229128
-0.0049986
-0.0229863
-0.00600516
-0.0232678
-0.00693358
-0.00770344
-0.0204044
0.00633985
-0.0224076
0.00658907
-0.0242471
0.00672606
-0.0259035
0.00676457
-0.0272884
0.00671054
-0.028354
0.00646114
-0.0291512
0.00591711
-0.0297379
0.00512458
-0.0301038
0.00421636
-0.0302188
0.00326099
-0.030108
0.00223253
-0.0298612
0.00108755
-0.0295796
-0.00017656
-0.0293535
-0.00149955
-0.0292397
-0.00277091
-0.0292642
-0.00389952
-0.0294481
-0.00486069
-0.0298089
-0.00569248
-0.0303748
-0.00641736
-0.00697833
-0.0261643
0.00834207
-0.0279494
0.00839489
-0.029542
0.00833971
-0.0309224
0.00816512
-0.032045
0.00785081
-0.0329022
0.00733241
-0.0335428
0.00656695
-0.0340151
0.00560034
-0.0343279
0.00452618
-0.0344769
0.00340033
-0.0344875
0.00222664
-0.0344208
0.000998082
-0.0343535
-0.000272542
-0.0343563
-0.00153056
-0.0344725
-0.00269303
-0.0347234
-0.00369072
-0.0351268
-0.00450224
-0.0357009
-0.00516556
-0.036468
-0.0056991
-0.00608983
-0.0307178
0.0100999
-0.0322561
0.00995406
-0.0336017
0.00970632
-0.0347501
0.00933339
-0.0356875
0.0088057
-0.036423
0.00808182
-0.0369964
0.00714943
-0.0374463
0.00605379
-0.037788
0.00486527
-0.038028
0.00363115
-0.0381873
0.00237019
-0.0383084
0.00109721
-0.0384504
-0.00015825
-0.0386652
-0.00134862
-0.038982
-0.00241346
-0.0394187
-0.00329503
-0.0399933
-0.00397151
-0.0407288
-0.00447634
-0.0416444
-0.0048314
-0.00507678
-0.034229
0.011579
-0.0355083
0.0112541
-0.0366272
0.0108459
-0.0375904
0.010316
-0.0383969
0.00962936
-0.039062
0.00876047
-0.039618
0.00771452
-0.0400961
0.00653552
-0.0405133
0.00528001
-0.0408791
0.00398829
-0.0412088
0.00268482
-0.041528
0.00139527
-0.0418741
0.000161133
-0.0422831
-0.000971474
-0.0427762
-0.00195654
-0.0433663
-0.0027448
-0.0440731
-0.00330751
-0.0449286
-0.00366609
-0.0459565
-0.0038504
-0.00396339
-0.0367466
0.0127602
-0.0377708
0.0122986
-0.0386819
0.0117771
-0.0394871
0.0111402
-0.0401917
0.0103506
-0.0408124
0.00939439
-0.0413764
0.00828739
-0.041911
0.00707372
-0.0424336
0.00580038
-0.0429534
0.00449982
-0.0434784
0.00319545
-0.0440166
0.00191317
-0.044578
0.000696796
-0.0451789
-0.000401381
-0.0458338
-0.00133676
-0.0465525
-0.00206485
-0.0473579
-0.00254391
-0.0482967
-0.00277141
-0.04941
-0.00278303
-0.00275896
-0.0382624
0.0136158
-0.0390194
0.0130753
-0.0397214
0.0124986
-0.040373
0.01181
-0.0409788
0.0109725
-0.0415564
0.00998467
-0.0421324
0.00887193
-0.0427336
0.00767838
-0.0433789
0.00644369
-0.0440761
0.00518911
-0.0448235
0.00392902
-0.0456113
0.00268151
-0.0464224
0.00148299
-0.0472394
0.000385863
-0.0480589
-0.000551245
-0.0488937
-0.00126775
-0.0497722
-0.0017061
-0.0507606
-0.00182605
-0.0519417
-0.00164687
-0.0014564
-0.0386891
0.0140973
-0.0391509
0.0135561
-0.0396211
0.0129875
-0.0400897
0.0122961
-0.0405571
0.0114552
-0.0410443
0.010484
-0.0415872
0.00942291
-0.0422207
0.00831517
-0.0429693
0.00719038
-0.0438411
0.00605331
-0.0448225
0.00489715
-0.0458819
0.00372211
-0.0469752
0.00255233
-0.0480544
0.00143625
-0.0490797
0.00044113
-0.0500439
-0.000340228
-0.0509842
-0.00080541
-0.0519918
-0.000860404
-0.0532016
-0.000481051
-8.74824e-05
-0.0378788
0.0141561
-0.0380197
0.0137153
-0.0382247
0.0132103
-0.0384468
0.0125349
-0.0386762
0.0116991
-0.0389421
0.0107614
-0.0393002
0.00978862
-0.0398114
0.00882942
-0.0405212
0.00789812
-0.0414464
0.00697118
-0.0425678
0.00600582
-0.0438305
0.00496668
-0.0451526
0.00385125
-0.0464494
0.00270525
-0.0476567
0.00161648
-0.0487378
0.000705251
-0.0497021
0.000120341
-0.050644
4.05335e-05
-0.0517379
0.000569988
0.00124463
-0.0354668
0.0138528
-0.0353706
0.0136363
-0.0353481
0.0132046
-0.0352852
0.0124875
-0.0351588
0.0115862
-0.0350118
0.0106251
-0.0349264
0.00971019
-0.0350025
0.00890817
-0.0353313
0.00822471
-0.0359691
0.00760175
-0.0369222
0.00694644
-0.0381461
0.00617292
-0.0395493
0.00523207
-0.0410068
0.00413578
-0.0423896
0.00296827
-0.0436038
0.00188494
-0.0446239
0.00110292
-0.0455185
0.000895187
-0.0464367
0.00144627
0.0025866
-0.0305722
0.0144531
-0.0307155
0.0140128
-0.0310379
0.0139755
-0.0312062
0.0133892
-0.0310867
0.012383
-0.030692
0.0112046
-0.030097
0.0100402
-0.0294127
0.00903253
-0.0287778
0.00827549
-0.0283319
0.00777642
-0.028182
0.0074444
-0.0283855
0.00713728
-0.0289631
0.00673276
-0.02991
0.00615639
-0.0311798
0.00537855
-0.0326569
0.00441413
-0.0341558
0.00334908
-0.035492
0.00240131
-0.0365777
0.00194046
-0.0375287
0.00235475
0.00385273
-0.00402195
-0.0103333
-0.0142302
0.0178884
-0.0165521
0.0157264
-0.0178829
0.0137278
-0.0185223
0.0118561
-0.0186239
0.0101509
-0.0183095
0.00872389
-0.0177276
0.0076952
-0.0170408
0.00708664
-0.0163738
0.00676947
-0.0157965
0.00654713
-0.0153635
0.00628196
-0.0151586
0.00592888
-0.0152994
0.0054923
-0.0159016
0.00498532
-0.0170036
0.00441633
-0.0184684
0.00382841
-0.0199627
0.00339446
-0.0212158
0.00356534
0.00501185
0.0594353
0.0495539
0.0409275
0.0223669
0.0333402
0.0194541
0.0266338
0.0168654
0.0207699
0.0145924
0.0158489
0.012617
0.0120307
0.0109012
0.00939236
0.00939935
0.00784551
0.00808074
0.00716564
0.00694378
0.00706898
0.00600284
0.00727257
0.00526164
0.00752632
0.00470051
0.00762316
0.00428486
0.00741205
0.0040018
0.00684261
0.00392358
0.00610755
0.00425793
0.00579202
0.129775
0.120128
0.0291109
0.111248
0.0257513
0.103077
0.022767
0.0955697
0.0201242
0.0886876
0.0177786
0.0823911
0.0156867
0.0766412
0.0138169
0.0714144
0.0121521
0.0667138
0.0106805
0.0625626
0.00938566
0.0589854
0.00824657
0.0559876
0.00724811
0.0535577
0.00639389
0.0517001
0.00574089
0.0504796
0.00543592
0.00642789
0.203438
0.194878
0.186828
0.0308191
0.17928
0.0276707
0.172209
0.0248432
0.165584
0.0223017
0.159373
0.020014
0.153551
0.0179552
0.148107
0.016101
0.143042
0.0144232
0.138365
0.012892
0.134094
0.0114844
0.13024
0.0102103
0.126806
0.00913456
0.123914
0.00828529
0.00831502
0.257659
0.251153
0.24497
0.0310198
0.239106
0.0281546
0.233555
0.0255492
0.228316
0.0231747
0.223388
0.021005
0.218773
0.0190109
0.214468
0.017166
0.210463
0.0154539
0.206764
0.0138721
0.203428
0.0124302
0.200629
0.0110407
0.0104025
0.302938
0.298181
0.0328993
0.293642
0.0300721
0.289327
0.0274697
0.285241
0.0250662
0.281392
0.0228319
0.277785
0.0207407
0.274434
0.0187703
0.271367
0.0169006
0.268649
0.015108
0.266391
0.013256
0.0122006
0.343814
0.340347
0.337028
0.0307677
0.333871
0.0281986
0.330887
0.0257875
0.328091
0.0235046
0.325502
0.0213235
0.323152
0.0192129
0.321084
0.017135
0.319353
0.014944
0.0136358
0.373371
0.371103
0.0304405
0.368952
0.02791
0.366932
0.0254923
0.365061
0.0231584
0.363364
0.0208719
0.361863
0.0185945
0.360576
0.0161878
0.014743
0.399133
0.397712
0.396369
0.0268029
0.395117
0.0243742
0.393969
0.0219815
0.392934
0.0195887
0.392007
0.0170714
0.0155718
0.418624
0.417874
0.0250881
0.417167
0.0226489
0.416502
0.0202124
0.415864
0.0176663
0.0161678
0.43544
0.435077
0.434702
0.0205459
0.434295
0.0180293
0.0165694
0.449373
0.449154
0.0182045
0.0168048
0.461879
0.0168929
)
;

boundaryField
{
    inlet
    {
        type            calculated;
        value           nonuniform 0();
    }
    outlet
    {
        type            calculated;
        value           nonuniform List<scalar> 
30
(
0.0263311
0.020245
0.00703297
-0.00474885
-0.0151415
-0.0238077
-0.0311505
-0.0374062
-0.0427063
-0.0471178
-0.0506614
-0.0532903
-0.0546155
-0.0531141
-0.0478218
-0.0388386
-0.0224187
0.00528353
0.0497998
0.121983
0.198498
0.264549
0.317873
0.359424
0.391133
0.415223
0.433848
0.448873
0.461745
0.473481
)
;
    }
    flap
    {
        type            calculated;
        value           nonuniform 0();
    }
    upperWall
    {
        type            calculated;
        value           nonuniform 0();
    }
    lowerWall
    {
        type            calculated;
        value           uniform 0;
    }
    frontAndBack
    {
        type            empty;
        value           nonuniform 0();
    }
    procBoundary5to2
    {
        type            processor;
        value           nonuniform List<scalar> 
34
(
0.0234312
0.0203403
-0.0707944
0.0292636
0.0256226
-0.140261
0.0328656
-0.212505
0.038188
0.034318
-0.264478
0.037641
0.0341739
-0.307903
0.0359782
-0.34741
0.0364842
0.0335227
-0.375736
0.033113
-0.400613
0.0318961
0.0293016
-0.419412
0.0275588
-0.435796
0.0254082
0.0229726
-0.44952
0.020652
-0.461939
0.0182201
-0.473476
0.016842
)
;
    }
    procBoundary5to4
    {
        type            processor;
        value           nonuniform List<scalar> 
18
(
-0.0115321
-0.0127029
-0.00990681
-0.00564856
0.000821579
0.0107525
0.0182063
0.0241818
0.0289799
0.0327697
0.0355849
0.0374257
0.0382259
0.0378376
0.0357869
-0.0143571
0.0304922
-0.00494045
)
;
    }
}


// ************************************************************************* //
