/*--------------------------------*- C++ -*----------------------------------*\
| =========                 |                                                 |
| \\      /  F ield         | OpenFOAM: The Open Source CFD Toolbox           |
|  \\    /   O peration     | Version:  dev                                   |
|   \\  /    A nd           | Web:      www.OpenFOAM.org                      |
|    \\/     M anipulation  |                                                 |
\*---------------------------------------------------------------------------*/
FoamFile
{
    version     2.0;
    format      ascii;
    class       volScalarField;
    location    "3.15";
    object      p;
}
// * * * * * * * * * * * * * * * * * * * * * * * * * * * * * * * * * * * * * //

dimensions      [0 2 -2 0 0 0 0];

internalField   nonuniform List<scalar> 
2790
(
140.732
140.677
140.988
141.552
142.284
143.175
144.224
145.427
146.779
148.272
149.901
151.66
153.543
155.539
157.636
159.819
162.069
164.362
166.668
168.952
171.172
173.284
175.236
176.977
178.459
179.64
180.494
181.022
181.251
181.362
140.554
140.596
140.929
141.491
142.22
143.108
144.153
145.352
146.696
148.182
149.803
151.553
153.426
155.412
157.499
159.672
161.913
164.199
166.5
168.783
171.007
173.129
175.097
176.861
178.372
179.586
180.475
181.033
181.31
181.58
140.373
140.487
140.839
141.391
142.108
142.984
144.016
145.199
146.524
147.988
149.585
151.308
153.15
155.101
157.151
159.285
161.485
163.729
165.989
168.235
170.429
172.53
174.493
176.271
177.821
179.105
180.106
180.839
181.361
181.869
140.174
140.323
140.688
141.231
141.935
142.796
143.811
144.972
146.272
147.707
149.27
150.955
152.753
154.657
156.654
158.73
160.868
163.047
165.243
167.425
169.561
171.616
173.55
175.324
176.904
178.264
179.397
180.32
181.049
181.706
139.948
140.114
140.488
141.024
141.713
142.555
143.548
144.681
145.949
147.346
148.866
150.502
152.246
154.089
156.019
158.021
160.08
162.176
164.286
166.384
168.441
170.426
172.308
174.057
175.645
177.056
178.279
179.319
180.126
180.748
139.689
139.864
140.243
140.77
141.44
142.26
143.224
144.325
145.554
146.906
148.374
149.952
151.631
153.402
155.251
157.167
159.133
161.129
163.136
165.13
167.086
168.978
170.781
172.471
174.028
175.436
176.678
177.737
178.514
178.959
139.397
139.575
139.953
140.469
141.119
141.911
142.844
143.906
145.089
146.389
147.799
149.31
150.914
152.601
154.36
156.176
158.033
159.915
161.802
163.672
165.504
167.276
168.967
170.558
172.031
173.369
174.549
175.538
176.216
176.411
139.07
139.249
139.622
140.124
140.75
141.513
142.408
143.427
144.559
145.801
147.144
148.58
150.1
151.694
153.349
155.053
156.789
158.54
160.289
162.014
163.697
165.318
166.857
168.299
169.627
170.823
171.858
172.695
173.223
173.13
138.709
138.886
139.252
139.737
140.337
141.066
141.921
142.891
143.967
145.143
146.413
147.766
149.193
150.684
152.226
153.805
155.405
157.01
158.601
160.158
161.663
163.096
164.439
165.676
166.789
167.76
168.559
169.156
169.477
169.053
138.315
138.489
138.844
139.309
139.881
140.573
141.384
142.301
143.315
144.422
145.611
146.874
148.201
149.579
150.997
152.44
153.89
155.331
156.744
158.108
159.403
160.608
161.703
162.669
163.484
164.131
164.584
164.824
164.846
164.022
137.889
138.058
138.401
138.844
139.385
140.038
140.8
141.66
142.609
143.64
144.744
145.91
147.128
148.386
149.67
150.965
152.252
153.513
154.727
155.871
156.923
157.856
158.645
159.263
159.683
159.881
159.837
159.547
159.107
157.747
137.433
137.596
137.924
138.343
138.851
139.462
140.173
140.973
141.853
142.803
143.816
144.88
145.984
147.114
148.255
149.391
150.502
151.567
152.562
153.461
154.235
154.85
155.271
155.457
155.365
154.956
154.202
153.105
151.89
149.691
136.947
137.104
137.416
137.81
138.282
138.849
139.506
140.243
141.05
141.917
142.834
143.791
144.774
145.769
146.76
147.729
148.653
149.508
150.267
150.897
151.361
151.615
151.606
151.272
150.539
149.327
147.565
145.211
142.602
138.817
136.434
136.585
136.88
137.246
137.682
138.202
138.804
139.475
140.205
140.985
141.804
142.649
143.508
144.363
145.198
145.991
146.719
147.354
147.862
148.204
148.333
148.191
147.702
146.769
145.269
143.041
139.888
135.578
130.341
122.93
135.896
136.04
136.317
136.655
137.052
137.524
138.068
138.672
139.324
140.015
140.732
141.463
142.193
142.905
143.58
144.193
144.719
145.126
145.374
145.417
145.196
144.636
143.635
142.056
139.705
136.294
131.388
124.243
114.131
96.6592
6.86015
6.82846
6.73666
6.57808
6.37391
6.152
5.93184
5.72145
5.52095
5.32698
5.13642
4.94753
4.7594
4.57141
4.38308
4.19407
4.00416
3.81295
3.6186
3.417
3.20241
2.96917
2.71358
2.43467
2.13268
1.80714
1.45639
1.07924
0.675245
0.244058
6.86163
6.81924
6.71543
6.5519
6.34909
6.13113
5.91519
5.70866
5.51158
5.32024
5.13143
4.94375
4.75648
4.5691
4.38116
4.19234
4.00272
3.81244
3.61992
3.42065
3.20814
2.97607
2.72054
2.44124
2.13907
1.81325
1.46154
1.08239
0.675417
0.239369
6.87002
6.81328
6.69349
6.52179
6.31882
6.10478
5.8939
5.69183
5.49795
5.309
5.12218
4.93612
4.7502
4.56388
4.37659
4.18803
3.99876
3.81028
3.62155
3.42705
3.2186
2.98859
2.73284
2.45117
2.14651
1.81819
1.46299
1.08025
0.670013
0.231437
6.88782
6.81275
6.67717
6.49724
6.29326
6.08201
5.8757
5.67737
5.48542
5.29724
5.11103
4.92555
4.74062
4.55573
4.36988
4.18239
3.99381
3.80677
3.62116
3.43044
3.22519
2.99713
2.74207
2.45973
2.15247
1.82024
1.46077
1.07379
0.660438
0.223492
6.9241
6.82779
6.67875
6.49286
6.28827
6.07785
5.87295
5.6745
5.48051
5.29016
5.1013
4.91338
4.72723
4.54221
4.35709
4.17118
3.98549
3.80177
3.61884
3.43025
3.2269
3.00067
2.74692
2.46428
2.15418
1.81786
1.45397
1.06236
0.646567
0.215881
6.99767
6.8808
6.72263
6.53298
6.32625
6.11488
5.90086
5.68816
5.48386
5.28579
5.09042
4.89792
4.70911
4.52336
4.33913
4.15555
3.97326
3.79291
3.61241
3.42559
3.22395
2.99965
2.7475
2.46512
2.15264
1.81228
1.44368
1.04675
0.629202
0.208166
7.13735
7.00441
6.8425
6.64441
6.42162
6.18809
5.95003
5.71705
5.49477
5.28182
5.07614
4.87717
4.68472
4.49768
4.3143
4.13343
3.95487
3.77818
3.60054
3.41594
3.21643
2.99441
2.74428
2.46274
2.14877
1.8046
1.43063
1.02767
0.609076
0.200104
7.37544
7.22623
7.04708
6.819
6.55718
6.28201
6.00891
5.74801
5.50242
5.27164
5.05389
4.84764
4.65142
4.46333
4.28125
4.10357
3.92924
3.75679
3.58281
3.40135
3.20486
2.98585
2.73835
2.45835
2.14389
1.79588
1.41553
1.00582
0.586634
0.191606
7.71798
7.54101
7.31382
7.02621
6.70401
6.37618
6.06098
5.76691
5.49632
5.24779
5.01854
4.80578
4.60676
4.41866
4.23884
4.06514
3.89576
3.7284
3.55916
3.38207
3.18977
2.97475
2.73061
2.4528
2.13876
1.78754
1.39984
0.981848
0.562051
0.182604
8.14186
7.91561
7.60974
7.23532
6.83709
6.44815
6.08683
5.75973
5.46644
5.20312
4.96517
4.7483
4.54857
4.36225
4.1861
4.01748
3.85404
3.69288
3.5297
3.35846
3.1718
2.96199
2.72215
2.44717
2.13405
1.78068
1.38519
0.956629
0.535317
0.172965
8.62824
8.32673
7.89898
7.41216
6.92425
6.47106
6.06696
5.71304
5.40372
5.13149
4.88961
4.67246
4.47508
4.29294
4.12228
3.96014
3.80386
3.65021
3.49465
3.33094
3.15153
2.94834
2.71389
2.44244
2.13058
1.77529
1.3727
0.932462
0.507043
0.162573
9.20841
8.73592
8.12898
7.50528
6.926
6.41732
5.98304
5.61524
5.30101
5.0284
4.7889
4.57632
4.38509
4.21005
4.04698
3.89288
3.74515
3.60054
3.45433
3.30003
3.12972
2.93478
2.70697
2.43983
2.1295
1.77214
1.36221
0.910123
0.479283
0.151505
9.86328
9.05006
8.20812
7.44833
6.80028
6.2611
5.8197
5.45815
5.15439
4.89177
4.66167
4.45897
4.27823
4.11354
3.9603
3.81581
3.67808
3.54414
3.40921
3.26643
3.10731
2.92245
2.70267
2.44059
2.13178
1.77179
1.35384
0.889171
0.451684
0.139867
10.4711
9.09686
8.00089
7.1621
6.50998
5.98337
5.56725
5.23912
4.96502
4.72298
4.50853
4.3208
4.15519
4.0044
3.86307
3.72953
3.6031
3.48157
3.36009
3.23124
3.08566
2.91292
2.70263
2.44632
2.1389
1.77569
1.34949
0.872368
0.426993
0.127928
10.6381
8.52919
7.28818
6.55417
6.04597
5.58285
5.22494
4.96344
4.74189
4.528
4.3321
4.16339
4.018
3.88493
3.75712
3.63518
3.52108
3.41383
3.30841
3.19644
3.06734
2.9093
2.71042
2.46072
2.15426
1.78666
1.35147
0.861616
0.406503
0.116243
135.324
135.461
135.719
136.026
136.383
136.806
137.29
137.823
138.394
138.992
139.604
140.217
140.815
141.379
141.887
142.316
142.633
142.805
142.786
142.521
141.942
140.956
139.436
137.205
133.997
129.387
122.643
112.226
94.7735
44.6545
134.712
134.84
135.079
135.354
135.669
136.039
136.46
136.92
137.406
137.907
138.411
138.901
139.362
139.773
140.112
140.35
140.455
140.387
140.098
139.526
138.593
137.194
135.187
132.369
128.44
122.925
115.032
103.28
87.1975
65.0359
134.064
134.184
134.401
134.643
134.914
135.23
135.586
135.97
136.369
136.771
137.163
137.529
137.85
138.107
138.273
138.32
138.213
137.909
137.357
136.49
135.227
133.457
131.038
127.77
123.384
117.505
109.684
99.3565
87.2556
74.2591
133.38
133.492
133.687
133.895
134.121
134.381
134.67
134.977
135.287
135.589
135.868
136.108
136.289
136.391
136.386
136.245
135.931
135.401
134.6
133.463
131.908
129.829
127.096
123.538
118.949
113.087
105.728
96.5974
85.6506
72.7358
132.664
132.766
132.939
133.112
133.291
133.494
133.717
133.945
134.166
134.366
134.532
134.646
134.689
134.638
134.467
134.145
133.634
132.892
131.865
130.49
128.69
126.371
123.42
119.704
115.071
109.356
102.405
94.0133
84.0066
72.6958
131.915
132.008
132.158
132.295
132.428
132.574
132.728
132.878
133.009
133.109
133.162
133.153
133.06
132.862
132.531
132.037
131.344
130.409
129.183
127.607
125.612
123.118
120.034
116.258
111.68
106.189
99.6892
92.0993
83.3988
74.0216
131.137
131.221
131.348
131.449
131.534
131.622
131.709
131.781
131.823
131.824
131.768
131.638
131.415
131.076
130.595
129.942
129.083
127.978
126.582
124.842
122.701
120.092
116.944
113.183
108.737
103.54
97.5496
90.7604
83.2005
75.1907
130.332
130.406
130.51
130.575
130.613
130.644
130.664
130.659
130.614
130.518
130.356
130.111
129.764
129.293
128.672
127.875
126.869
125.618
124.082
122.217
119.973
117.3
114.146
110.459
106.195
101.323
95.8322
89.7413
83.0869
76.1196
129.503
129.567
129.648
129.677
129.669
129.644
129.598
129.518
129.389
129.2
128.937
128.582
128.119
127.525
126.779
125.853
124.72
123.347
121.7
119.743
117.437
114.743
111.626
108.052
103.998
99.4531
94.4238
88.9402
83.046
76.9476
128.653
128.707
128.765
128.76
128.706
128.627
128.517
128.364
128.154
127.877
127.517
127.061
126.49
125.786
124.926
123.889
122.648
121.177
119.447
117.429
115.093
112.413
109.363
105.927
102.094
97.8654
93.259
88.3093
83.0618
77.6828
127.785
127.83
127.866
127.826
127.73
127.597
127.426
127.203
126.917
126.556
126.107
125.557
124.888
124.085
123.127
121.994
120.665
119.118
117.329
115.276
112.938
110.296
107.337
104.051
100.439
96.5102
92.2865
87.8029
83.1017
78.3158
126.905
126.94
126.954
126.882
126.743
126.56
126.331
126.043
125.684
125.245
124.714
124.078
123.322
122.431
121.389
120.177
118.779
117.175
115.349
113.284
110.964
108.38
105.523
102.393
98.9961
95.3455
91.4643
87.3853
83.1461
78.8536
126.015
126.042
126.035
125.932
125.753
125.522
125.238
124.888
124.463
123.953
123.347
122.634
121.801
120.835
119.721
118.446
116.994
115.352
113.507
111.446
109.162
106.647
103.901
100.926
97.7333
94.3371
90.7603
87.0324
83.1859
79.3071
125.122
125.14
125.114
124.981
124.764
124.489
124.153
123.747
123.26
122.685
122.012
121.231
120.331
119.301
118.129
116.804
115.314
113.649
111.8
109.758
107.52
105.083
102.449
99.6258
96.6234
93.458
90.1508
86.7276
83.2162
79.6864
124.23
124.24
124.195
124.035
123.783
123.466
123.083
122.625
122.083
121.449
120.717
119.876
118.92
117.837
116.619
115.256
113.741
112.065
110.223
108.211
106.027
103.672
101.15
98.4703
95.6439
92.6866
89.6175
86.4589
83.2344
80.0008
123.345
123.347
123.284
123.099
122.815
122.459
122.033
121.528
120.936
120.251
119.467
118.576
117.572
116.446
115.193
113.804
112.274
110.598
108.773
106.798
104.672
102.4
99.9868
97.4417
94.7765
92.0058
89.1465
86.2179
83.2399
80.2591
122.472
122.467
122.388
122.179
121.865
121.475
121.011
120.464
119.828
119.098
118.269
117.336
116.293
115.133
113.853
112.447
110.912
109.244
107.444
105.51
103.445
101.255
98.9447
96.5247
94.006
91.4018
88.7273
85.9989
83.2333
80.469
121.617
121.605
121.511
121.281
120.941
120.52
120.021
119.437
118.763
117.994
117.128
116.16
115.085
113.901
112.602
111.187
109.654
108.001
106.229
104.339
102.336
100.224
98.0115
95.7066
93.3201
90.8642
88.3521
85.7979
83.2159
80.6375
120.787
120.769
120.662
120.413
120.049
119.601
119.071
118.455
117.748
116.946
116.049
115.052
113.954
112.75
111.441
110.023
108.497
106.863
105.123
103.279
101.336
99.2993
97.1766
94.9766
92.709
90.3846
88.0151
85.6126
83.1892
80.771
119.989
119.964
119.845
119.579
119.195
118.722
118.166
117.523
116.787
115.959
115.036
114.017
112.9
111.685
110.369
108.954
107.44
105.828
104.121
102.323
100.437
98.4711
96.4312
94.3261
92.1647
89.9566
87.712
85.4414
83.1553
80.8752
119.228
119.198
119.068
118.787
118.384
117.891
117.313
116.646
115.887
115.036
114.093
113.057
111.927
110.705
109.388
107.98
106.48
104.892
103.219
101.464
99.6335
97.7324
95.768
93.7482
91.6811
89.5753
87.4398
85.2839
83.1163
80.9551
118.512
118.477
118.337
118.043
117.625
117.114
116.517
115.83
115.052
114.183
113.224
112.176
111.038
109.812
108.498
107.098
105.615
104.052
102.412
100.699
98.9191
97.0775
95.1811
93.2373
91.2534
89.2373
87.1968
85.14
83.0746
81.0156
117.847
117.808
117.66
117.355
116.923
116.397
115.784
115.081
114.288
113.405
112.434
111.377
110.234
109.007
107.699
106.31
104.844
103.305
101.697
100.023
98.2894
96.5015
94.6658
92.789
90.8781
88.9398
86.9814
85.0099
83.0321
81.0606
117.243
117.2
117.043
116.728
116.285
115.747
115.12
114.404
113.599
112.705
111.726
110.663
109.518
108.294
106.991
105.614
104.166
102.65
101.071
99.4335
97.7417
96.0015
94.2192
92.4009
90.5531
88.682
86.794
84.8953
82.9922
81.0949
116.706
116.659
116.495
116.171
115.718
115.169
114.532
113.806
112.991
112.089
111.104
110.038
108.893
107.671
106.376
105.011
103.58
102.086
100.533
98.9274
97.2724
95.5738
93.8376
92.0696
90.2756
88.4615
86.6329
84.7956
82.955
81.1198
116.244
116.193
116.022
115.689
115.228
114.671
114.026
113.291
112.469
111.563
110.574
109.506
108.362
107.145
105.858
104.504
103.088
101.613
100.084
98.506
96.8827
95.2196
93.5224
91.7966
90.0478
88.2811
86.502
84.7156
82.9269
81.1433
115.868
115.811
115.631
115.29
114.822
114.257
113.605
112.865
112.038
111.127
110.136
109.067
107.925
106.713
105.433
104.09
102.687
101.229
99.72
98.1647
96.5676
94.9336
93.2682
91.5766
89.864
88.1354
86.3957
84.6497
82.9019
81.1584
115.587
115.522
115.331
114.983
114.51
113.941
113.284
112.539
111.708
110.795
109.802
108.734
107.595
106.386
105.113
103.778
102.386
100.942
99.4491
97.9123
96.3359
94.7249
93.0845
91.4197
89.7354
88.0365
86.3275
84.6131
82.8976
81.1862
115.42
115.325
115.116
114.763
114.287
113.715
113.055
112.307
111.475
110.561
109.568
108.502
107.364
106.159
104.891
103.563
102.179
100.744
99.2624
97.7383
96.1761
94.5806
92.9569
91.3099
89.6445
87.965
86.2761
84.5821
82.887
81.195
115.403
115.255
115.021
114.661
114.182
113.606
112.943
112.193
111.359
110.445
109.453
108.387
107.252
106.05
104.785
103.462
102.084
100.656
99.1823
97.6668
96.1141
94.5288
92.916
91.2805
89.6269
87.9597
86.2832
84.6017
82.9192
81.2392
-45.1781
-22.3488
-2.12605
48.2356
42.6321
32.1007
58.9077
47.6546
37.1178
57.7207
48.0829
40.6149
61.2508
53.6833
47.4484
64.8805
58.5809
53.1622
67.4486
62.0948
57.4756
69.491
64.9269
60.998
71.2257
67.2912
63.9107
72.6819
69.2454
66.2995
73.8961
70.8609
68.2647
74.9104
72.2034
69.8915
75.7586
73.3229
71.2447
76.4678
74.2585
72.3748
77.0603
75.0419
73.3215
77.5547
75.6984
74.1162
77.9663
76.2485
74.784
78.308
76.7091
75.3453
78.5906
77.094
75.8166
78.8233
77.415
76.2119
79.0139
77.6818
76.5427
79.1699
77.9034
76.8191
79.2965
78.0862
77.0487
79.4005
78.2381
77.2403
79.4835
78.3612
77.3968
79.5558
78.4666
77.5294
79.6083
78.5456
77.6306
79.6672
78.6246
77.7253
79.6941
78.6658
77.7791
79.7578
78.7422
77.8613
8.82906
6.13383
5.49058
5.5454
5.53381
5.09598
4.78828
4.63403
4.50058
4.31381
4.13261
3.98605
3.86793
3.75756
3.64387
3.53319
3.4323
3.3419
3.25633
3.16549
3.05699
2.91727
2.73244
2.49033
2.1836
1.80863
1.36149
0.8566
0.388236
0.104966
14.9783
6.79665
5.76887
5.87102
5.2232
4.30368
4.08933
4.25031
4.31049
4.10931
3.91606
3.78999
3.70906
3.6281
3.52587
3.42381
3.33685
3.26704
3.20667
3.14268
3.06016
2.94351
2.77631
2.54315
2.23418
1.84687
1.38269
0.860025
0.374742
0.093609
22.455
12.0284
8.26846
6.34778
4.88702
4.31086
4.29556
4.48873
4.27825
3.81408
3.58695
3.53028
3.54048
3.51275
3.41166
3.31077
3.23731
3.19245
3.16369
3.1331
3.08262
2.99442
2.84907
2.62653
2.31299
1.90676
1.41844
0.876526
0.373609
0.082612
30.3217
20.2862
14.1313
10.074
7.33995
5.78427
4.94454
4.48017
4.06049
3.77685
3.6334
3.57938
3.56443
3.45368
3.27381
3.16122
3.11191
3.10812
3.12496
3.13756
3.12581
3.07171
2.9534
2.74467
2.42583
1.99397
1.47165
0.908354
0.39055
0.0724502
38.6906
29.2412
21.796
16.1887
12.1051
9.24643
7.2844
5.94831
5.01267
4.38556
3.96767
3.70018
3.53045
3.37146
3.23699
3.15274
3.11545
3.11766
3.14275
3.17092
3.18475
3.16383
3.0784
2.89154
2.57456
2.12276
1.56703
0.97523
0.433531
0.0618975
45.7734
37.3553
29.6049
23.1297
18.0509
14.167
11.2367
9.04676
7.40688
6.1793
5.26924
4.60932
4.13357
3.77451
3.5071
3.32345
3.21712
3.18014
3.19665
3.24319
3.2911
3.3059
3.24756
3.07565
2.75887
2.28968
1.6975
1.05959
0.488503
0.0371464
51.4029
44.1779
36.7564
30.0472
24.458
19.9115
16.2399
13.2991
10.9577
9.10431
7.6512
6.52385
5.65216
4.97324
4.44711
4.05365
3.77955
3.61001
3.52436
3.49555
3.49149
3.47497
3.40305
3.23011
2.9172
2.44775
1.84372
1.17479
0.545728
-0.0401856
55.9471
49.7686
42.9634
36.4528
30.7572
25.8877
21.744
18.2488
15.332
12.9202
10.9422
9.33102
8.02446
6.9671
6.11709
5.44634
4.93314
4.55575
4.2891
4.10354
3.96498
3.83473
3.66939
3.42415
3.06128
2.56287
1.94373
1.25618
0.574263
-0.14824
59.617
54.2848
48.1706
42.0854
36.5531
31.6341
27.2771
23.4525
20.1357
17.2891
14.8655
12.8156
11.0915
9.64824
8.44778
7.45962
6.65788
6.01736
5.51087
5.10757
4.77253
4.46673
4.14786
3.77386
3.31015
2.73933
2.07006
1.33801
0.589785
-0.243277
62.5807
57.9253
52.4685
46.8885
41.6652
36.879
32.5067
28.5462
25.0018
21.8635
19.1078
16.7046
14.6213
12.8252
11.2852
9.97367
8.86496
7.93377
7.15297
6.49231
5.91791
5.39267
4.87732
4.33368
3.73054
3.05072
2.29692
1.49097
0.662313
-0.25249
64.9955
60.8838
56.0066
50.9268
46.0681
41.5128
37.2514
33.2946
29.6625
26.363
23.3907
20.7314
18.3668
16.2754
14.4348
12.8229
11.4174
10.1952
9.13121
8.19765
7.36344
6.59497
5.85723
5.1166
4.34535
3.52671
2.65873
1.7537
0.832058
-0.152903
66.9829
63.3127
58.93
54.3074
49.8152
45.5302
41.4474
37.5819
33.9604
30.6011
27.5098
24.6844
22.1172
19.7967
17.7085
15.8368
14.164
12.6708
11.3356
10.1342
9.03956
8.0224
7.05252
6.101
5.14364
4.16451
3.15873
2.13258
1.10135
0.0355798
68.631
65.3242
61.3593
57.1397
52.9907
48.9802
45.1041
41.3772
37.8277
34.4783
31.3414
28.4225
25.7215
23.2343
20.9536
18.869
16.9681
15.2357
13.6546
12.2045
10.8629
9.60527
8.40619
7.24129
6.08971
4.9367
3.7758
2.60943
1.44875
0.278101
70.0056
67.0016
63.3902
59.5208
55.6816
51.9324
48.2675
44.6998
41.2562
37.9603
34.828
31.869
29.0884
26.4873
24.0634
21.8114
19.723
17.7876
15.9917
14.3195
12.7527
11.2713
9.85444
8.48188
7.1358
5.80279
4.47554
3.15363
1.84415
0.541184
71.1573
68.408
65.0968
61.5304
57.9663
54.4573
50.9958
47.5918
44.2697
41.0524
37.9567
34.9948
32.1745
29.5007
26.9746
24.5946
22.3564
20.2528
18.2741
16.4084
14.6413
12.957
11.3384
9.76909
8.23376
6.72035
5.22101
3.733
2.25917
0.799847
72.1252
69.5917
66.5366
63.2321
59.9105
56.6185
53.3468
50.1022
46.9062
43.78
40.7404
37.8
34.9686
32.2528
29.6567
27.1815
24.8255
22.5849
20.4531
18.4214
16.4789
14.6133
12.811
11.0584
9.34259
7.65254
5.98007
4.32036
2.67222
1.03935
72.9402
70.5902
67.7547
64.6769
61.5682
58.4703
55.3723
52.2783
49.2066
46.1764
43.2035
40.3003
37.4773
34.7424
32.1012
29.5567
27.1097
24.7587
22.4998
20.327
18.2323
16.2063
14.2382
12.3169
10.4313
8.57137
6.7285
4.89614
3.06953
1.2537
73.627
71.4339
68.7869
65.9056
62.9834
60.0579
57.1172
54.1627
51.2098
48.2756
45.3742
42.5178
39.7166
36.979
34.3114
31.7183
29.2021
26.7631
24.3994
22.1074
19.8814
17.7143
15.5977
13.5224
11.4788
9.45759
7.45001
5.44803
3.44393
1.44295
74.2057
72.1469
69.6623
66.9512
64.1922
61.4192
58.6195
55.7925
52.9509
50.1094
47.2808
44.4762
41.7054
38.9767
36.297
33.6715
31.1037
28.5953
26.1459
23.7537
21.4149
19.1243
16.8754
14.6604
12.4711
10.2988
8.13448
5.96906
3.79265
1.61008
74.693
72.7491
70.4045
67.841
65.2243
62.5856
59.9116
57.1998
54.4607
51.7068
48.9495
46.1986
43.4633
40.7516
38.0702
35.4249
32.8197
30.2571
27.7383
25.2624
22.8273
20.4291
18.0629
15.7223
13.3998
11.0874
8.77592
6.45567
4.11521
1.75878
75.1025
73.2571
71.0329
68.5971
66.1042
63.5832
61.0204
58.4119
55.7659
53.0933
50.4039
47.7064
45.0091
42.3194
39.6438
36.9882
34.3568
31.7528
29.178
26.6327
24.1158
21.6246
19.1552
16.7023
14.2592
11.8183
9.37058
6.90583
4.41175
1.89189
75.4462
73.6849
71.5641
69.2385
66.8528
64.4343
61.9692
59.4522
56.8899
54.2915
51.6654
49.0192
46.3603
43.6954
41.0307
38.3717
35.7229
33.0877
30.4684
27.866
25.2801
22.709
20.1495
17.5971
15.0459
12.4886
9.91635
7.31867
4.68283
2.01157
75.7333
74.0435
72.0111
69.78
67.4866
65.1569
62.7768
60.3401
57.852
55.3202
52.7519
50.1537
47.5321
44.893
42.2422
39.5848
36.9253
34.2671
31.6127
28.9637
26.3201
23.6808
21.0434
18.4039
15.7568
13.0954
10.4108
7.69257
4.92781
2.11829
75.9731
74.3437
72.3864
70.2356
68.0211
65.7673
63.4604
61.0934
58.6701
56.1971
53.6806
51.1261
48.5394
45.9258
43.2903
40.6377
37.9723
35.2975
32.6159
29.9292
27.2378
24.5411
21.8371
19.1221
16.3914
13.6381
10.8538
8.02798
5.14775
2.21354
76.1704
74.5914
72.697
70.6137
68.4654
66.2758
64.0309
61.7233
59.3556
56.9336
54.4623
51.9467
49.3916
46.8017
44.1816
41.5357
38.8678
36.1812
33.4787
30.7619
28.0314
25.287
22.5268
19.7477
16.9449
14.1121
11.2409
8.32095
5.33937
2.29524
76.3355
74.7978
72.9552
70.9276
68.834
66.6974
64.504
62.2458
59.9248
57.5457
55.1129
52.6307
50.1032
47.5347
44.9291
42.2904
39.6222
36.9276
34.2093
31.4688
28.707
25.9237
23.1171
20.2846
17.4214
14.5213
11.5762
8.57577
5.50712
2.36718
76.4642
74.9594
73.158
71.1746
69.1246
67.0302
64.8781
62.6597
60.3762
58.0318
55.6304
53.1757
50.6712
48.1206
45.5277
42.8958
40.2285
37.5285
34.7984
32.0398
29.2535
26.4394
23.5959
20.7202
17.808
14.8532
11.8475
8.78081
5.64049
2.42198
76.5769
75.0966
73.3266
71.377
69.3599
67.2976
65.1768
62.9887
60.734
58.4163
56.039
53.6055
51.1189
48.5826
45.9997
43.3736
40.7074
38.0039
35.2653
32.4933
29.6886
26.8511
23.9793
21.0706
18.1206
15.1231
12.0701
8.95123
5.75382
2.47037
76.6468
75.1822
73.433
71.5063
69.5115
67.4709
65.3711
63.2033
60.968
58.6683
56.3073
53.8882
51.4138
48.8872
46.3113
43.6893
41.0242
38.3185
35.5744
32.7935
29.9765
27.1234
24.2326
21.3015
18.3256
15.299
12.2132
9.05781
5.82031
2.49244
76.7286
75.2653
73.5275
71.6146
69.6325
67.6035
65.5149
63.3579
61.1327
58.8423
56.4896
54.0776
51.6091
49.0868
46.5139
43.8932
41.2277
38.5198
35.7717
32.9851
30.1606
27.2981
24.3961
21.4521
18.4615
15.4182
12.3135
9.13601
5.87081
2.49958
)
;

boundaryField
{
    inlet
    {
        type            zeroGradient;
    }
    outlet
    {
        type            fixedValue;
        value           uniform 0;
    }
    flap
    {
        type            zeroGradient;
    }
    upperWall
    {
        type            zeroGradient;
    }
    lowerWall
    {
        type            zeroGradient;
    }
    frontAndBack
    {
        type            empty;
    }
}


// ************************************************************************* //
