/*--------------------------------*- C++ -*----------------------------------*\
| =========                 |                                                 |
| \\      /  F ield         | OpenFOAM: The Open Source CFD Toolbox           |
|  \\    /   O peration     | Version:  dev                                   |
|   \\  /    A nd           | Web:      www.OpenFOAM.org                      |
|    \\/     M anipulation  |                                                 |
\*---------------------------------------------------------------------------*/
FoamFile
{
    version     2.0;
    format      ascii;
    class       surfaceScalarField;
    location    "3.15";
    object      phi;
}
// * * * * * * * * * * * * * * * * * * * * * * * * * * * * * * * * * * * * * //

dimensions      [0 3 -1 0 0 0 0];

internalField   nonuniform List<scalar> 
5457
(
0.198207
0.00180053
0.196125
0.00208623
0.193713
0.0024121
0.190934
0.00277543
0.187791
0.00313447
0.184296
0.00348459
0.18045
0.00383416
0.176247
0.0041906
0.171677
0.00455802
0.166727
0.00493977
0.16138
0.00533896
0.155618
0.00575809
0.149417
0.00619916
0.142755
0.00666363
0.135607
0.00715221
0.12795
0.0076637
0.119764
0.00819459
0.111033
0.00873964
0.101751
0.00929146
0.0919201
0.00983884
0.081562
0.0103657
0.0707181
0.0108504
0.0594588
0.0112646
0.047892
0.0115708
0.0361758
0.0117191
0.0245391
0.0116387
0.0133244
0.0112159
0.00313678
0.0101882
-0.00310014
0.00623717
-0.00310008
0.199903
0.00190509
0.199086
0.0029073
0.197826
0.0036731
0.196157
0.00444014
0.194084
0.00519957
0.191614
0.00594433
0.188748
0.00668763
0.185483
0.0074433
0.181809
0.00821969
0.177715
0.00902387
0.173184
0.00986197
0.168198
0.0107394
0.162734
0.0116609
0.15677
0.0126299
0.150278
0.0136481
0.143234
0.0147143
0.135614
0.0158234
0.127396
0.0169659
0.11857
0.018127
0.109131
0.0192864
0.0990898
0.0204141
0.0884781
0.0214687
0.0773537
0.0223944
0.0658135
0.0231151
0.0540071
0.0235285
0.0421609
0.0234868
0.0306421
0.0227359
0.0201071
0.0207239
0.0100909
0.0162536
0.00699089
0.199756
0.00215685
0.199009
0.00365938
0.197823
0.00485879
0.196259
0.00600107
0.194326
0.00712424
0.192032
0.00822828
0.189378
0.00932948
0.186362
0.0104465
0.182977
0.0115919
0.179214
0.0127762
0.175059
0.0140087
0.170496
0.015298
0.165503
0.0166521
0.160057
0.0180767
0.154135
0.0195752
0.147707
0.0211481
0.140748
0.0227912
0.133228
0.0244944
0.125125
0.0262392
0.11642
0.0279994
0.107104
0.0297377
0.0971795
0.0314001
0.086667
0.0329123
0.0756144
0.0341719
0.0641056
0.0350403
0.0522671
0.0353275
0.0402396
0.0347647
0.0280332
0.0329311
0.0149216
0.0293655
0.0219125
0.199668
0.00249677
0.198924
0.0044086
0.197757
0.00602586
0.196215
0.00753956
0.194316
0.00901546
0.192069
0.0104656
0.189476
0.0119097
0.186539
0.0133711
0.183252
0.0148663
0.179609
0.0164077
0.175602
0.0180077
0.171216
0.0196784
0.166436
0.02143
0.161243
0.0232709
0.155616
0.0252063
0.149532
0.0272386
0.142965
0.0293662
0.135887
0.0315814
0.128268
0.0338669
0.12008
0.0361957
0.111296
0.0385294
0.101891
0.0408121
0.091845
0.0429643
0.0811445
0.0448768
0.0697852
0.0464028
0.057765
0.0473499
0.0450502
0.047481
0.0314652
0.0465168
0.0165264
0.0443046
0.038439
0.199625
0.0028797
0.198874
0.00516532
0.197724
0.00717667
0.196205
0.00905519
0.194338
0.010875
0.192133
0.0126606
0.189592
0.0144374
0.186717
0.0162339
0.183501
0.018069
0.179942
0.0199562
0.176031
0.02191
0.171758
0.0239457
0.167108
0.026077
0.162066
0.0283138
0.156613
0.030663
0.150728
0.0331292
0.144388
0.0357141
0.137565
0.0384133
0.130227
0.0412141
0.122338
0.0440931
0.113857
0.0470177
0.104737
0.0499391
0.0949234
0.0527841
0.0843535
0.0554514
0.0729551
0.0578047
0.0606391
0.0596683
0.047302
0.0608196
0.0328016
0.061018
0.0169661
0.0601405
0.0554052
0.199606
0.00328221
0.198852
0.00592555
0.19772
0.00830914
0.196232
0.0105407
0.194406
0.0126931
0.192253
0.0148036
0.189772
0.0169055
0.186964
0.0190294
0.183825
0.0211952
0.180352
0.0234178
0.176538
0.0257151
0.172371
0.028106
0.167839
0.0306065
0.162925
0.0332284
0.15761
0.0359806
0.151875
0.0388705
0.145692
0.0419036
0.139034
0.0450798
0.131864
0.0483933
0.124137
0.0518281
0.115804
0.0553586
0.1068
0.0589509
0.0970411
0.0625491
0.0864324
0.0660651
0.0748642
0.0693766
0.0622163
0.0723187
0.0483734
0.0746642
0.0332821
0.0761102
0.0170307
0.0763922
0.072436
0.1996
0.00369134
0.198849
0.00668234
0.197741
0.00941903
0.196291
0.0119878
0.194516
0.0144609
0.192422
0.0168874
0.190009
0.019306
0.187278
0.021747
0.18423
0.0242309
0.180858
0.0267775
0.177155
0.0294094
0.173106
0.0321479
0.168699
0.0350096
0.163919
0.0380086
0.158744
0.0411576
0.153152
0.0444679
0.147113
0.0479491
0.140593
0.0516075
0.13355
0.0554455
0.125927
0.0594593
0.117663
0.0636306
0.108685
0.0679365
0.09889
0.0723508
0.0881573
0.076803
0.076363
0.081175
0.0633841
0.0853003
0.0491262
0.0889238
0.03361
0.0916274
0.0170823
0.0929203
0.0895183
0.199602
0.00409952
0.198862
0.00742819
0.197784
0.0104995
0.196379
0.0133896
0.194661
0.0161726
0.192633
0.0189053
0.190298
0.0216288
0.187659
0.0243724
0.184715
0.0271613
0.181459
0.030022
0.177879
0.0329792
0.173965
0.0360556
0.169701
0.0392693
0.16507
0.0426379
0.160052
0.0461783
0.154617
0.0499066
0.148734
0.0538381
0.142363
0.0579869
0.135451
0.0623648
0.127938
0.0669815
0.11974
0.0718362
0.110773
0.0769117
0.100924
0.0822063
0.0900579
0.0876751
0.0780422
0.0931949
0.0647601
0.0985854
0.0501442
0.103542
0.034235
0.107538
0.0173542
0.109801
0.106873
0.199609
0.00450155
0.198888
0.00815552
0.197846
0.0115444
0.196492
0.0147413
0.194835
0.0178225
0.192882
0.0208489
0.190636
0.0238621
0.188103
0.0268929
0.185276
0.0299748
0.182147
0.0331385
0.178707
0.036409
0.174944
0.0398108
0.170843
0.0433653
0.166386
0.0470937
0.161547
0.0510179
0.156298
0.0551594
0.150601
0.0595408
0.14441
0.0641849
0.137667
0.069115
0.130303
0.0743536
0.122226
0.0799215
0.113324
0.0858226
0.103471
0.0920665
0.0925278
0.0986237
0.0803483
0.105379
0.0668066
0.11213
0.0518366
0.118514
0.0354654
0.12391
0.0180289
0.127238
0.124902
0.19962
0.00489332
0.198925
0.00885811
0.197923
0.0125489
0.196624
0.0160385
0.195037
0.0194031
0.193168
0.0227081
0.191023
0.0259952
0.188604
0.0292989
0.185905
0.0326604
0.182918
0.0361128
0.179634
0.0396819
0.176042
0.0433944
0.172127
0.0472751
0.167868
0.0513497
0.163241
0.0556453
0.158213
0.0601899
0.152745
0.0650139
0.146786
0.0701503
0.140273
0.075635
0.133128
0.0815064
0.125254
0.0878041
0.116521
0.0945635
0.106786
0.10181
0.0958929
0.109523
0.0836675
0.117609
0.0699447
0.125856
0.0546079
0.133852
0.0376338
0.140885
0.0193171
0.145556
0.144219
0.199634
0.00527188
0.198968
0.0095317
0.198012
0.0135085
0.196775
0.0172747
0.195265
0.0209065
0.19349
0.0244738
0.191454
0.0280194
0.189158
0.0315814
0.186598
0.035207
0.183767
0.0389312
0.180656
0.0427815
0.177255
0.0467865
0.173549
0.0509751
0.169517
0.0553776
0.165136
0.0600262
0.160372
0.064956
0.155184
0.0702057
0.149521
0.0758188
0.143318
0.081845
0.136492
0.0883397
0.12894
0.0953643
0.120527
0.102985
0.111093
0.111251
0.100453
0.120169
0.088384
0.129682
0.0746405
0.139603
0.0589837
0.149511
0.0412451
0.158625
0.0215782
0.165223
0.165797
0.19965
0.00563521
0.199018
0.0101731
0.198113
0.0144174
0.196943
0.0184431
0.195518
0.0223262
0.193844
0.0261388
0.191926
0.029926
0.189763
0.0337312
0.187353
0.0376037
0.184691
0.0415802
0.181769
0.045691
0.178579
0.0499675
0.175105
0.0544416
0.17133
0.0591481
0.16723
0.0641246
0.162775
0.0694127
0.157924
0.0750591
0.15263
0.0811178
0.14683
0.0876515
0.140444
0.0947328
0.13337
0.102446
0.125473
0.11089
0.116583
0.120148
0.106491
0.130268
0.0949105
0.141267
0.0814717
0.153045
0.065716
0.165269
0.0471569
0.177185
0.0255685
0.186812
0.191366
0.199668
0.00598126
0.199072
0.0107789
0.198223
0.0152712
0.197127
0.0195384
0.195792
0.0236564
0.194227
0.0276957
0.192434
0.0317073
0.190413
0.035739
0.188164
0.0398392
0.185685
0.0440464
0.182969
0.0483947
0.180008
0.0529183
0.17679
0.0576514
0.1733
0.0626328
0.169518
0.0679047
0.165416
0.0735143
0.160962
0.0795154
0.156114
0.0859706
0.150817
0.0929539
0.145003
0.100553
0.138585
0.108871
0.131435
0.118049
0.123394
0.128197
0.114252
0.139417
0.103675
0.151849
0.0911617
0.165562
0.0759538
0.180479
0.0569836
0.196156
0.0330625
0.210733
0.224428
0.199689
0.00630784
0.199132
0.0113463
0.198342
0.0160668
0.197324
0.0205568
0.196085
0.0248909
0.194634
0.0291383
0.192974
0.0333566
0.191104
0.0375955
0.189028
0.0419023
0.186744
0.046317
0.184249
0.0508776
0.181535
0.0556211
0.178595
0.060583
0.175417
0.0658048
0.171986
0.0713324
0.168282
0.0772171
0.164281
0.0835176
0.159952
0.0903026
0.155257
0.0976535
0.150149
0.105667
0.144561
0.114465
0.138403
0.124215
0.131564
0.135043
0.123871
0.147115
0.115017
0.160708
0.104478
0.176104
0.0913082
0.193651
0.0737697
0.213696
0.0485909
0.235912
0.273019
0.199711
0.00661361
0.199196
0.0118734
0.198466
0.0168027
0.197528
0.0214949
0.19639
0.0260252
0.195058
0.0304631
0.193534
0.0348692
0.191823
0.0392943
0.189928
0.0437844
0.187849
0.0483821
0.185585
0.0531294
0.183132
0.0580634
0.180485
0.0632206
0.177639
0.0686443
0.174584
0.0743823
0.171312
0.0804879
0.167808
0.0870219
0.164057
0.0940553
0.160042
0.101672
0.155743
0.109972
0.151128
0.119087
0.146182
0.129169
0.140877
0.140355
0.135132
0.152866
0.128808
0.167035
0.121631
0.183285
0.112999
0.202284
0.101403
0.225292
0.0818807
0.255435
0.3549
0.00205947
-0.00205927
0.00538414
-0.00332381
0.00878868
-0.00340211
0.0116349
-0.00284141
0.0137059
-0.00206316
0.0149953
-0.00127831
0.0156046
-0.000595368
0.0156948
-7.37609e-05
0.0154389
0.00027426
0.0149801
0.000476755
0.0144314
0.000564181
0.0138765
0.000568666
0.0133624
0.000526334
0.0129007
0.000472052
0.0124723
0.000436445
0.0120364
0.000441312
0.0115494
0.000489391
0.0109906
0.000557969
0.0103833
0.00060312
0.00980108
0.000574826
0.00934111
0.000449446
0.00907773
0.000249933
0.00904327
1.83617e-05
0.00925706
-0.000232231
0.00976794
-0.000531377
0.0106228
-0.000877158
0.011825
-0.00122605
0.0133782
-0.0015786
0.0152762
-0.00192482
-0.00209654
0.00272902
-0.00478809
0.00587191
-0.00646581
0.0089451
-0.00647283
0.0115564
-0.00544786
0.0135493
-0.00404812
0.0149289
-0.00264699
0.0157807
-0.00143333
0.016194
-0.000470807
0.016251
0.000235387
0.0160522
0.000693391
0.0156995
0.000932454
0.0152705
0.00101135
0.014813
0.000996091
0.0143454
0.000950058
0.0138589
0.000931119
0.0133188
0.000986958
0.0126846
0.00112602
0.011943
0.00129884
0.01113
0.0014121
0.0103366
0.00136097
0.00967019
0.00110536
0.00917966
0.000727071
0.00882903
0.000352952
0.008552
2.63983e-05
0.008315
-0.000314837
0.00818842
-0.000772823
0.00834688
-0.00140833
0.00894087
-0.0021979
0.0100329
-0.00304366
-0.00363028
0.00307256
-0.00786043
0.00592869
-0.00932104
0.00837427
-0.00891593
0.0103103
-0.00737907
0.0117007
-0.00543077
0.012589
-0.00352466
0.0130779
-0.00190875
0.013242
-0.000619037
0.0131403
0.000354671
0.0128418
0.00100934
0.0124039
0.00138586
0.01186
0.00156887
0.0112298
0.00163863
0.0105238
0.00166667
0.00974114
0.00172222
0.00884786
0.001886
0.00778735
0.00218932
0.00653492
0.00255085
0.00513064
0.00281266
0.00365648
0.0028281
0.00220563
0.002546
0.000905273
0.00201426
-9.29368e-05
0.00133531
-0.00068809
0.000603321
-0.000882011
-0.000141221
-0.000739129
-0.000937818
-0.000347258
-0.00182392
0.000172073
-0.00274244
0.000705076
-0.00360337
-0.00432184
0.00297725
-0.0108375
0.00548339
-0.0118263
0.00725833
-0.0106884
0.00843091
-0.00854694
0.009112
-0.00610447
0.00937198
-0.00377444
0.00932224
-0.00184615
0.00894717
-0.000228859
0.00833141
0.000987309
0.00758918
0.00176853
0.00671763
0.00227259
0.0056647
0.00263543
0.00438285
0.002933
0.00288281
0.0031776
0.00123462
0.00337918
-0.000447915
0.00357472
-0.00205313
0.00379779
-0.00352236
0.00402014
-0.00483423
0.00412127
-0.00597953
0.0039668
-0.00693511
0.00349178
-0.00766408
0.00273045
-0.00814346
0.00179916
-0.00838733
0.000829245
-0.00845089
-9.77074e-05
-0.00841103
-0.000999582
-0.00834665
-0.00191184
-0.00831241
-0.00280173
-0.00829438
-0.003648
-0.00440092
0.00248714
-0.0133244
0.0043832
-0.0137214
0.0053221
-0.0116249
0.00558402
-0.00880438
0.00541674
-0.0059302
0.00486685
-0.00321494
0.00385391
-0.000821101
0.00248686
0.00115247
0.00104314
0.00244702
-0.000431034
0.00325898
-0.00195605
0.00381249
-0.00355477
0.00424778
-0.00520169
0.00459263
-0.00684977
0.00483691
-0.00844103
0.00497964
-0.00991752
0.00505792
-0.0112283
0.00511243
-0.0123315
0.00512394
-0.0132172
0.00500427
-0.0139057
0.00464922
-0.0144341
0.00401089
-0.0148457
0.00312972
-0.0151735
0.00211191
-0.0154311
0.00106925
-0.0156255
7.70398e-05
-0.0157879
-0.000858804
-0.0159609
-0.00176212
-0.0161635
-0.00262396
-0.0163877
-0.0034502
-0.00417214
0.00166792
-0.0149921
0.00255999
-0.0146126
0.00236336
-0.011426
0.00144768
-0.00788447
-3.17633e-05
-0.00444424
-0.00210605
-0.0011317
-0.00424878
0.00133293
-0.00601274
0.0029298
-0.00763187
0.00408119
-0.00924424
0.00488685
-0.0108536
0.00543637
-0.0124128
0.00582064
-0.0138879
0.00608062
-0.0152607
0.00622127
-0.016522
0.00625059
-0.0176558
0.00619895
-0.0186348
0.00609591
-0.0194376
0.00592791
-0.020068
0.00563265
-0.0205626
0.00513837
-0.0209759
0.00441551
-0.0213555
0.00349752
-0.0217199
0.00246174
-0.0220596
0.00139193
-0.0223631
0.000361195
-0.0226562
-0.00058687
-0.0229783
-0.00146299
-0.023338
-0.00228895
-0.0237337
-0.00308063
-0.00374279
0.00051791
-0.0155098
-0.000102344
-0.0139915
-0.00186351
-0.00966272
-0.00438186
-0.00536218
-0.00733044
-0.00148961
-0.00990733
0.00145346
-0.0119421
0.00337819
-0.0137618
0.00476189
-0.0154321
0.0057656
-0.0169851
0.00645457
-0.0184359
0.00690146
-0.0197754
0.00717367
-0.0209938
0.00731211
-0.0220956
0.00733492
-0.0230924
0.00725751
-0.023989
0.0071033
-0.0247772
0.00688916
-0.0254487
0.00660126
-0.0260119
0.00619444
-0.0264974
0.00561908
-0.0269448
0.00485488
-0.0273833
0.00392483
-0.0278195
0.0028839
-0.0282433
0.00179925
-0.0286471
0.0007461
-0.0290549
-0.000199896
-0.0295047
-0.00103576
-0.0300027
-0.00181529
-0.030545
-0.0025643
-0.00317208
-0.00113311
-0.0143765
-0.00361187
-0.011512
-0.00697064
-0.00630195
-0.010672
-0.00165722
-0.0138589
0.00170292
-0.0163239
0.003926
-0.0184441
0.00550812
-0.0203058
0.00663519
-0.0219362
0.00740917
-0.0233751
0.00790744
-0.024657
0.00819722
-0.0258036
0.00833381
-0.0268322
0.00835391
-0.0277638
0.00827868
-0.0286194
0.00812353
-0.0294102
0.00790246
-0.0301356
0.00762011
-0.0307916
0.00725972
-0.0313837
0.00678577
-0.0319317
0.00616291
-0.0324606
0.00537635
-0.032988
0.00444171
-0.033518
0.00340041
-0.0340457
0.00231094
-0.0345667
0.00124871
-0.0350868
0.000299839
-0.035645
-0.000499847
-0.0362679
-0.0012163
-0.0369446
-0.00191335
-0.00247845
-0.00307556
-0.0113007
-0.007278
-0.00730879
-0.0119498
-0.0016283
-0.0159589
0.00235525
-0.0190932
0.00484237
-0.0217143
0.00655416
-0.0239223
0.0077251
-0.0257754
0.00849901
-0.0273362
0.0089824
-0.028669
0.00925358
-0.0298289
0.0093707
-0.0308572
0.00937557
-0.0317859
0.00929581
-0.032643
0.00914808
-0.0334508
0.00894218
-0.0342209
0.00868124
-0.0349538
0.0083591
-0.0356473
0.00795626
-0.0363051
0.00744337
-0.0369396
0.00679388
-0.0375667
0.00599662
-0.0381978
0.00506281
-0.0388359
0.0040257
-0.03948
0.00293959
-0.0401288
0.00187968
-0.0407811
0.000932136
-0.0414581
0.000155251
-0.0422016
-0.000496402
-0.0430108
-0.00112957
-0.0016627
-0.00488941
-0.00641115
-0.0109422
-0.00125523
-0.0162029
0.00363413
-0.0202877
0.00644319
-0.0236453
0.00820471
-0.0263866
0.00930196
-0.0286114
0.0099583
-0.0304198
0.0103176
-0.0319072
0.0104815
-0.0331598
0.010519
-0.0342469
0.0104709
-0.0352182
0.0103602
-0.0361099
0.0102008
-0.0369502
0.0100008
-0.0377595
0.00976254
-0.0385489
0.0094797
-0.0393208
0.00913744
-0.0400747
0.0087137
-0.0408142
0.00818324
-0.0415485
0.00752519
-0.0422888
0.00673069
-0.0430434
0.00580795
-0.0438145
0.00478456
-0.0446009
0.0037111
-0.0453991
0.00266049
-0.046204
0.00171749
-0.0470161
0.000945959
-0.047867
0.000331239
-0.048795
-0.000226729
-0.000714091
-0.00705095
0.000639972
-0.0143065
0.00600095
-0.0198549
0.00918422
-0.0243038
0.010895
-0.0278071
0.0117125
-0.0305592
0.0120602
-0.0327291
0.0121361
-0.0344555
0.0120536
-0.0358604
0.0118976
-0.0370466
0.0117175
-0.0380888
0.011526
-0.0390356
0.0113202
-0.0399196
0.0110979
-0.0407667
0.0108603
-0.0415967
0.0106038
-0.042422
0.0103142
-0.0432472
0.00996943
-0.0440742
0.00954462
-0.0449071
0.00901687
-0.0457534
0.008369
-0.0466215
0.00759314
-0.0475171
0.00669471
-0.0484409
0.00569662
-0.0493892
0.00464494
-0.0503538
0.00360822
-0.0513257
0.00267035
-0.0523055
0.00190476
-0.0533094
0.00131226
-0.0543666
0.000805601
0.000381553
-0.00936411
0.0100043
-0.0174547
0.0140922
-0.0236785
0.0154097
-0.0283066
0.0155259
-0.0317549
0.0151651
-0.0343784
0.0146896
-0.0364073
0.0141726
-0.0379993
0.0136549
-0.0392935
0.0132027
-0.0404055
0.0128413
-0.0414077
0.0125408
-0.0423381
0.0122635
-0.0432198
0.0119926
-0.0440766
0.0117294
-0.0449309
0.0114692
-0.0457979
0.0111905
-0.0466844
0.0108629
-0.0475934
0.0104578
-0.0485292
0.00995384
-0.0494988
0.00933651
-0.0505094
0.00859851
-0.0515656
0.00774258
-0.0526669
0.00678667
-0.0538052
0.00576936
-0.0549661
0.00475275
-0.0561355
0.00382113
-0.0573102
0.00305879
-0.0585073
0.00248688
-0.0597593
0.00203313
0.0016714
-0.0121762
0.0221807
-0.0215247
0.0234413
-0.0280286
0.0219153
-0.0324629
0.0199629
-0.0355613
0.0182677
-0.0378782
0.0170123
-0.0396632
0.015965
-0.0410467
0.0150473
-0.0421758
0.0143423
-0.0431838
0.0138609
-0.0441336
0.0135029
-0.0450388
0.0131813
-0.0459071
0.0128737
-0.0467614
0.0125958
-0.0476304
0.0123492
-0.0485337
0.012103
-0.0494784
0.0118146
-0.0504666
0.0114504
-0.0515023
0.0109909
-0.0525934
0.0104259
-0.0537489
0.00974918
-0.0549743
0.00896008
-0.0562674
0.00806907
-0.0576145
0.007103
-0.0589899
0.00611213
-0.0603642
0.0051773
-0.0617192
0.00439357
-0.0630648
0.0038103
-0.0644473
0.00339151
0.00309286
-0.0166442
0.0388251
-0.0268139
0.0336118
-0.0331056
0.0282088
-0.0368522
0.0237124
-0.0391555
0.0205752
-0.0409513
0.0188138
-0.0423892
0.0174102
-0.0434639
0.0161308
-0.0443349
0.0152237
-0.0451859
0.0147234
-0.0460581
0.0143869
-0.0469147
0.0140503
-0.0477371
0.0137085
-0.0485511
0.0134217
-0.0493994
0.0132083
-0.0503069
0.0130196
-0.0512772
0.0127918
-0.0523077
0.0124853
-0.0534019
0.0120866
-0.054571
0.0115935
-0.0558283
0.011002
-0.0571822
0.0103064
-0.0586296
0.00950615
-0.0601533
0.00861362
-0.0617195
0.00766279
-0.0632833
0.00672339
-0.0648077
0.00589817
-0.0662946
0.00527539
-0.0677954
0.00486844
0.00467215
-0.0221041
0.0609295
-0.0329652
0.0444738
-0.0391827
0.0344282
-0.0415662
0.026099
-0.0421822
0.0211955
-0.0432648
0.019902
-0.0443384
0.018491
-0.044986
0.0167872
-0.0454413
0.0156893
-0.0460636
0.0153567
-0.0468351
0.01517
-0.0476103
0.0148374
-0.0483266
0.0144368
-0.0490271
0.0141337
-0.0497858
0.0139774
-0.0506334
0.013876
-0.0515617
0.0137269
-0.0525586
0.0134865
-0.0536274
0.013157
-0.0547866
0.0127513
-0.0560598
0.0122709
-0.0574642
0.0117035
-0.0590026
0.0110345
-0.0606598
0.0102582
-0.0623982
0.00938608
-0.0641566
0.00846445
-0.0658712
0.00759329
-0.0675251
0.00690775
-0.0691611
0.00648097
0.00642231
0.207386
0.00690543
0.2069
0.0123731
0.206212
0.0174981
0.20533
0.022378
0.204262
0.0270903
0.203012
0.0317052
0.201588
0.0362833
0.199993
0.0408769
0.198232
0.0455314
0.196308
0.050292
0.194223
0.0552022
0.191977
0.0602977
0.189571
0.0656167
0.187005
0.0712026
0.184279
0.077103
0.181393
0.0833704
0.17835
0.0900643
0.175154
0.0972531
0.171812
0.105016
0.16834
0.113448
0.164763
0.122669
0.161148
0.132791
0.157565
0.143944
0.1541
0.156336
0.150919
0.17022
0.148289
0.185917
0.146704
0.20387
0.147338
0.224658
0.156702
0.246071
0.262189
0.249412
0.21243
0.00717714
0.211985
0.0128338
0.211356
0.0181367
0.21055
0.0231865
0.209576
0.0280619
0.20844
0.0328339
0.207149
0.0375638
0.20571
0.0423041
0.204127
0.047101
0.202405
0.0519996
0.200552
0.0570417
0.198574
0.0622638
0.196476
0.0677043
0.194265
0.0734049
0.191951
0.0794106
0.189547
0.0857703
0.187072
0.0925384
0.18455
0.0997751
0.18202
0.107549
0.179536
0.115936
0.177187
0.125023
0.175096
0.134887
0.173429
0.145618
0.172443
0.157327
0.172564
0.170103
0.174506
0.183978
0.179632
0.198745
0.190504
0.213786
0.208324
0.22825
0.245035
0.225478
0.217599
0.00742556
0.217199
0.01325
0.216637
0.0187104
0.215918
0.0239102
0.21505
0.0289285
0.214041
0.0338361
0.2129
0.038695
0.211634
0.0435583
0.21025
0.0484719
0.208757
0.0534791
0.207165
0.0586198
0.205485
0.0639307
0.20373
0.0694486
0.201914
0.0752118
0.200056
0.0812609
0.198183
0.0876387
0.196329
0.0943905
0.194539
0.101564
0.192877
0.109211
0.191432
0.117383
0.190331
0.126127
0.189739
0.135484
0.18988
0.145483
0.191078
0.156132
0.193799
0.167386
0.198677
0.179102
0.206453
0.19097
0.217632
0.202607
0.231509
0.214373
0.225671
0.250872
0.222896
0.00764776
0.222546
0.0136168
0.222056
0.0192124
0.221433
0.02454
0.220683
0.0296792
0.219815
0.0346998
0.218838
0.0396632
0.217761
0.044623
0.216596
0.0496245
0.215353
0.0547085
0.214046
0.0599131
0.212691
0.0652729
0.211306
0.070822
0.209914
0.0765942
0.208543
0.0826237
0.207231
0.0889452
0.206024
0.095593
0.204987
0.1026
0.2042
0.109998
0.203772
0.117811
0.203847
0.126055
0.204609
0.134726
0.206286
0.14381
0.209177
0.153244
0.213667
0.162899
0.220179
0.172591
0.229076
0.182073
0.240685
0.190997
0.25583
0.199227
0.205289
0.276212
0.228323
0.00784092
0.228029
0.0139292
0.227618
0.0196361
0.227098
0.0250677
0.226477
0.0303034
0.225761
0.0354129
0.224961
0.0404556
0.224089
0.0454839
0.223159
0.0505424
0.222183
0.0556701
0.221181
0.0609022
0.22017
0.0662702
0.219177
0.0718039
0.218229
0.0775318
0.217363
0.0834809
0.216625
0.0896762
0.216074
0.09614
0.215781
0.10289
0.215839
0.109938
0.216365
0.117285
0.217503
0.124918
0.219426
0.132806
0.222343
0.140896
0.226516
0.149074
0.232235
0.157182
0.239786
0.165041
0.249438
0.172421
0.26148
0.178956
0.276338
0.184368
0.187784
0.293842
0.233883
0.00800232
0.233649
0.0141828
0.233324
0.0199753
0.232915
0.0254856
0.23243
0.0307923
0.231878
0.0359643
0.231268
0.0410597
0.230615
0.0461282
0.229933
0.0512126
0.22924
0.0563498
0.228557
0.0615721
0.227907
0.0669074
0.227318
0.0723803
0.226826
0.0780133
0.226472
0.0838253
0.22631
0.0898317
0.226401
0.0960431
0.226824
0.102463
0.227674
0.109086
0.229064
0.115894
0.231127
0.122855
0.234019
0.129915
0.237929
0.136987
0.243061
0.143943
0.249604
0.150641
0.25774
0.156906
0.267634
0.162526
0.279365
0.167225
0.292966
0.170767
0.172513
0.308237
0.239579
0.00812941
0.23941
0.0143733
0.239177
0.0202243
0.238885
0.0257869
0.238545
0.031138
0.238164
0.036345
0.237756
0.0414646
0.237333
0.0465441
0.236912
0.0516238
0.236513
0.056737
0.236159
0.0619126
0.235879
0.0671751
0.235702
0.0725442
0.235669
0.0780354
0.235825
0.0836601
0.236224
0.0894246
0.236932
0.0953284
0.238027
0.101363
0.239599
0.107511
0.241751
0.11374
0.244602
0.120002
0.248292
0.126225
0.252968
0.132312
0.25876
0.138152
0.265787
0.143614
0.274154
0.148539
0.283924
0.152756
0.295079
0.156069
0.307561
0.158285
0.158857
0.321216
0.245415
0.00821986
0.245314
0.014497
0.245177
0.0203781
0.24501
0.0259654
0.244821
0.0313334
0.24462
0.0365476
0.24442
0.0416624
0.244235
0.0467229
0.244085
0.0517666
0.243988
0.0568235
0.243971
0.0619181
0.244063
0.0670706
0.2443
0.0722959
0.24472
0.0776037
0.245372
0.0829984
0.246309
0.0884784
0.247597
0.0940336
0.249308
0.0996465
0.251525
0.10529
0.254336
0.110925
0.257847
0.116489
0.262168
0.121903
0.267395
0.127084
0.273611
0.131936
0.280888
0.136336
0.28927
0.140157
0.298761
0.143264
0.309312
0.145518
0.320818
0.146778
0.146595
0.33308
0.251394
0.00827157
0.251364
0.0145507
0.251328
0.0204325
0.25129
0.026016
0.251258
0.0313728
0.251243
0.0365659
0.251257
0.0416473
0.251316
0.0466593
0.25144
0.0516361
0.251651
0.0566048
0.251973
0.0615861
0.252437
0.0665954
0.253079
0.0716426
0.253941
0.0767317
0.255067
0.0818617
0.256511
0.087025
0.258333
0.0922043
0.260599
0.0973744
0.26338
0.102503
0.266752
0.107548
0.270798
0.11244
0.275594
0.117104
0.281204
0.121473
0.287677
0.125462
0.295045
0.128966
0.303314
0.131886
0.312455
0.134122
0.322395
0.135578
0.333009
0.136163
0.135513
0.344091
0.257518
0.00828273
0.257562
0.0145317
0.25763
0.020384
0.257726
0.0259348
0.257856
0.031252
0.25803
0.0363959
0.258262
0.0414155
0.258569
0.0463501
0.258969
0.0512309
0.259484
0.0560815
0.260143
0.0609192
0.260973
0.0657554
0.262011
0.0705953
0.263294
0.0754383
0.264868
0.0802786
0.26678
0.0851039
0.269085
0.0898909
0.271841
0.0946111
0.275108
0.0992303
0.278948
0.103703
0.283417
0.107966
0.288564
0.111954
0.294426
0.115607
0.30103
0.118855
0.308382
0.121613
0.31646
0.123807
0.325215
0.125365
0.334564
0.126228
0.344385
0.126342
0.125405
0.354492
0.26379
0.00825194
0.263911
0.014438
0.264086
0.0202304
0.264317
0.0257193
0.264612
0.0309685
0.264978
0.0360352
0.26543
0.0409654
0.265984
0.0457952
0.266658
0.0505526
0.267476
0.0552581
0.268462
0.0599255
0.269646
0.0645625
0.271062
0.069171
0.272745
0.0737466
0.274735
0.0782803
0.277075
0.0827548
0.279814
0.0871444
0.282997
0.09142
0.286674
0.0955468
0.290891
0.0994807
0.295684
0.103168
0.301079
0.106554
0.307097
0.109586
0.313745
0.112203
0.321008
0.114347
0.328851
0.115961
0.337216
0.116999
0.346017
0.117425
0.355146
0.117212
0.116108
0.364442
0.270214
0.00817816
0.270413
0.0142685
0.270696
0.0199702
0.271065
0.025368
0.271525
0.0305213
0.272084
0.0354836
0.272755
0.0402977
0.273554
0.0449968
0.274498
0.0496056
0.27561
0.0541417
0.276914
0.0586157
0.278437
0.0630324
0.280209
0.0673907
0.282264
0.0716837
0.284638
0.0758993
0.287366
0.0800186
0.290487
0.0840163
0.294037
0.0878633
0.298052
0.0915251
0.302564
0.0949625
0.307596
0.0981305
0.31316
0.100984
0.319261
0.10348
0.325891
0.10557
0.333022
0.107212
0.340611
0.108369
0.348599
0.10901
0.356905
0.109117
0.365434
0.108682
0.107492
0.37405
0.276794
0.00806054
0.277071
0.0140223
0.277463
0.0196029
0.27797
0.0248808
0.278594
0.0299106
0.279345
0.0347424
0.280233
0.0394153
0.281272
0.0439596
0.28248
0.048397
0.283876
0.0527423
0.285483
0.0570036
0.287327
0.0611833
0.289433
0.065278
0.291831
0.0692791
0.29455
0.0731729
0.297621
0.0769405
0.301073
0.0805581
0.304932
0.0839979
0.309223
0.0872282
0.313965
0.0902145
0.31917
0.0929189
0.324841
0.0953071
0.33097
0.0973457
0.337537
0.0989986
0.344511
0.100235
0.351844
0.101032
0.359478
0.101374
0.367341
0.101252
0.375351
0.10067
0.0994491
0.383393
0.283532
0.00789855
0.283887
0.0136995
0.284388
0.0191289
0.285032
0.0242587
0.28582
0.0291386
0.286759
0.0338147
0.287858
0.038323
0.289131
0.0426904
0.290593
0.0469363
0.292261
0.0510727
0.294156
0.0551059
0.296298
0.0590362
0.298712
0.0628589
0.301421
0.0665645
0.304449
0.0701389
0.307819
0.0735641
0.311553
0.0768179
0.31567
0.0798754
0.320184
0.0827094
0.325103
0.0852904
0.330429
0.0875866
0.336158
0.0895724
0.342273
0.0912246
0.348751
0.0925165
0.355555
0.0934279
0.362638
0.0939454
0.369947
0.0940625
0.377417
0.0937809
0.384978
0.0931082
0.0918921
0.392534
0.290432
0.0076921
0.290866
0.0133006
0.291474
0.0185496
0.292252
0.023504
0.2932
0.0282087
0.294322
0.0327055
0.295627
0.0370274
0.297125
0.0411983
0.298829
0.0452351
0.300754
0.0491479
0.302917
0.052941
0.305337
0.0566136
0.308032
0.0601603
0.31102
0.0635713
0.314321
0.0668332
0.317951
0.0699292
0.321924
0.0728396
0.326252
0.075543
0.33094
0.0780163
0.335991
0.0802347
0.341398
0.082174
0.347149
0.0838164
0.353223
0.0851448
0.359594
0.0861411
0.366225
0.0867932
0.373072
0.0870955
0.380084
0.087048
0.387206
0.0866573
0.394378
0.0859348
0.0847492
0.40152
0.297498
0.00744148
0.298008
0.0128271
0.298721
0.0178674
0.29963
0.0226203
0.300734
0.0271256
0.302033
0.0314212
0.303535
0.0355369
0.305247
0.0394939
0.30718
0.0433067
0.309347
0.0469838
0.31176
0.0505283
0.314434
0.0539386
0.317383
0.0572089
0.320621
0.06033
0.324161
0.0632895
0.328014
0.0660725
0.332188
0.068662
0.336686
0.0710402
0.341511
0.0731882
0.346656
0.0750854
0.35211
0.076715
0.357856
0.0780658
0.363871
0.0791247
0.370127
0.0798807
0.376589
0.0803284
0.383214
0.0804672
0.389959
0.0803015
0.396774
0.0798408
0.403609
0.0790984
0.077961
0.410397
0.304733
0.00714725
0.305318
0.0122806
0.306133
0.0170851
0.307169
0.0216116
0.308422
0.025895
0.309892
0.0299693
0.311581
0.0338609
0.313496
0.0375887
0.315644
0.0411653
0.318035
0.0445976
0.320678
0.0478878
0.323583
0.051034
0.326761
0.0540306
0.33022
0.0568693
0.333969
0.059539
0.338012
0.0620269
0.342352
0.0643191
0.346989
0.0664008
0.351917
0.0682575
0.357126
0.0698728
0.362602
0.0712354
0.368324
0.072339
0.374269
0.0731752
0.380409
0.0737378
0.386709
0.074026
0.393131
0.0740429
0.399635
0.0737954
0.40618
0.0732948
0.412723
0.0725548
0.0714772
0.419206
0.312141
0.00681024
0.312799
0.0116634
0.313713
0.0162064
0.314871
0.0204832
0.316267
0.0245237
0.317898
0.028358
0.319764
0.0320097
0.32187
0.0354953
0.324219
0.0388255
0.326817
0.0420062
0.32967
0.045039
0.332785
0.047922
0.336167
0.05065
0.339821
0.0532157
0.34375
0.0556097
0.347954
0.0578215
0.352432
0.0598398
0.357179
0.0616531
0.362184
0.0632505
0.367436
0.0646194
0.372915
0.0657528
0.378602
0.0666486
0.384472
0.0673019
0.390497
0.0677103
0.396645
0.0678759
0.402882
0.0678042
0.409173
0.0675038
0.415481
0.0669864
0.42177
0.0662655
0.0652559
0.427991
0.319726
0.00643147
0.320454
0.0109782
0.321463
0.0152355
0.322737
0.0192406
0.324269
0.0230187
0.326053
0.0265963
0.328086
0.029994
0.33037
0.0332262
0.332904
0.0363021
0.335693
0.0392266
0.338737
0.042001
0.342041
0.0446233
0.345605
0.0470894
0.34943
0.0493929
0.353515
0.0515262
0.357857
0.0534809
0.362449
0.0552483
0.367283
0.0568196
0.372346
0.0581872
0.377623
0.0593417
0.383095
0.0602794
0.388739
0.0610014
0.394533
0.0615058
0.40045
0.0617925
0.406459
0.0618659
0.41253
0.0617326
0.418631
0.061402
0.424732
0.0608856
0.430802
0.0601966
0.0592608
0.436797
0.327492
0.00601209
0.328288
0.0102277
0.329387
0.0141766
0.330772
0.0178896
0.332432
0.0213875
0.33436
0.0246934
0.336549
0.0278248
0.338998
0.0307942
0.341704
0.0336095
0.344667
0.0362748
0.347886
0.0387912
0.351359
0.0411571
0.355085
0.0433689
0.359061
0.0454217
0.363281
0.0473094
0.36774
0.0490256
0.372427
0.0505637
0.377331
0.0519177
0.382438
0.0530823
0.38773
0.0540508
0.393186
0.0548221
0.398787
0.0553998
0.404508
0.0557839
0.410324
0.0559762
0.416208
0.0559819