/*--------------------------------*- C++ -*----------------------------------*\
| =========                 |                                                 |
| \\      /  F ield         | OpenFOAM: The Open Source CFD Toolbox           |
|  \\    /   O peration     | Version:  dev                                   |
|   \\  /    A nd           | Web:      www.OpenFOAM.org                      |
|    \\/     M anipulation  |                                                 |
\*---------------------------------------------------------------------------*/
FoamFile
{
    version     2.0;
    format      ascii;
    class       surfaceVectorField;
    location    "2.69";
    object      Uf;
}
// * * * * * * * * * * * * * * * * * * * * * * * * * * * * * * * * * * * * * //

dimensions      [0 1 -1 0 0 0 0];

internalField   nonuniform List<vector> 
881
(
(2.98898 -1.78348e-20 1.37263)
(5.33821 -3.25028e-22 1.91843)
(4.70317 -3.13582e-20 1.65941)
(7.11713 -1.38318e-20 2.19172)
(9.07633 -2.03207e-21 2.67914)
(6.48807 7.9984e-21 1.91391)
(8.48655 -7.28578e-21 2.37171)
(5.90453 5.06806e-21 1.67574)
(7.92559 1.21285e-20 2.10305)
(7.39736 3.8564e-21 1.87001)
(10.4969 2.96148e-21 2.8826)
(11.8985 8.98383e-21 3.28116)
(9.97644 -3.3533e-21 2.57911)
(11.4539 1.53364e-21 2.96303)
(9.47138 1.11648e-20 2.31018)
(11.0123 8.61579e-23 2.67692)
(8.98725 1.1384e-20 2.07373)
(10.5797 5.79729e-21 2.4214)
(10.1611 1.18796e-22 2.19495)
(12.8905 5.9871e-21 3.38513)
(13.7922 9.80427e-21 3.68869)
(12.5271 3.31785e-21 3.08203)
(13.5086 3.24368e-21 3.38136)
(12.1597 -4.36795e-21 2.80713)
(13.2123 -1.51605e-22 3.09894)
(11.7939 -4.41385e-21 2.55948)
(12.9094 -6.65558e-21 2.84148)
(11.4349 -2.83741e-24 2.33781)
(12.6055 1.28357e-21 2.60842)
(11.087 -6.33649e-21 2.14042)
(12.3055 -5.27345e-22 2.39851)
(12.0134 2.56037e-21 2.21002)
(14.4317 5.44585e-21 3.7037)
(14.9416 1.08801e-20 3.91805)
(14.2175 -2.41165e-22 3.41631)
(14.8003 3.45391e-21 3.63499)
(13.9877 -2.41535e-21 3.15018)
(14.6369 -3.66572e-21 3.36908)
(13.7485 -9.35073e-22 2.90583)
(14.4578 -2.75591e-21 3.12172)
(13.5053 7.7967e-22 2.683)
(14.2685 2.83477e-21 2.89346)
(13.2624 7.05656e-21 2.48066)
(14.074 -4.17449e-22 2.68411)
(13.0237 1.46798e-20 2.29728)
(13.8782 4.87343e-21 2.49285)
(12.7923 3.64198e-22 2.13105)
(13.6847 7.13297e-21 2.31831)
(13.4965 -6.85864e-21 2.15883)
(15.3216 7.7591e-21 3.86255)
(15.5482 2.63591e-20 4.00057)
(15.233 2.01479e-22 3.60101)
(15.5199 -6.83076e-21 3.74891)
(15.1221 -3.02967e-21 3.35362)
(15.4655 1.68855e-20 3.50733)
(14.9946 1.04167e-21 3.12194)
(15.3904 -8.56236e-21 3.27808)
(14.8556 6.64799e-22 2.90663)
(15.2994 6.32675e-21 3.06258)
(14.7096 -1.07587e-21 2.70769)
(15.197 -1.65245e-20 2.86144)
(14.5603 -1.2349e-21 2.52449)
(15.0871 6.35224e-21 2.67463)
(14.4111 3.44775e-23 2.35591)
(14.9732 -1.1386e-20 2.50157)
(14.2647 1.41744e-22 2.2005)
(14.8581 -6.59404e-21 2.34123)
(14.7441 3.52133e-22 2.19238)
(15.751 1.22825e-20 3.89492)
(15.7897 1.26946e-20 3.97257)
(15.7585 9.71685e-21 3.66382)
(15.8429 -2.20376e-20 3.75421)
(15.7413 1.19294e-20 3.44069)
(15.87 3.63376e-20 3.54024)
(15.7041 -3.55798e-21 3.22772)
(15.8749 -9.28341e-21 3.33334)
(15.651 -1.06848e-20 3.02629)
(15.8614 3.21167e-21 3.13539)
(15.5861 -9.51584e-21 2.83707)
(15.8332 -1.99857e-20 2.94758)
(15.5127 -3.59078e-21 2.66012)
(15.7936 2.17864e-20 2.77049)
(15.4339 -1.82558e-20 2.49502)
(15.7456 -5.8306e-21 2.60415)
(15.3522 -6.54936e-21 2.34096)
(15.6916 -6.73145e-21 2.4482)
(15.2694 1.89517e-21 2.19698)
(15.6339 -8.38499e-21 2.30201)
(15.1869 1.35299e-21 2.06207)
(15.5737 1.57973e-21 2.16482)
(15.5121 4.91851e-21 2.03594)
(15.8817 -2.19464e-20 3.83567)
(15.8079 -1.0029e-20 3.86889)
(15.9557 3.28783e-21 3.63528)
(15.9141 -2.33954e-20 3.68207)
(16.006 1.57347e-20 3.43814)
(15.9967 3.54647e-20 3.4956)
(16.0357 -2.6115e-21 3.24665)
(16.058 1.70656e-20 3.31215)
(16.0481 -5.07181e-21 3.06256)
(16.1009 3.53022e-20 3.13381)
(16.0462 1.16376e-20 2.88699)
(16.128 -2.49814e-20 2.96205)
(16.0329 2.12448e-20 2.72052)
(16.1418 1.7151e-20 2.79787)
(16.0106 8.02746e-21 2.56327)
(16.1448 1.41592e-20 2.64176)
(15.9815 -7.64777e-21 2.41506)
(16.139 -1.2092e-20 2.49386)
(15.9471 -8.92697e-21 2.27548)
(16.1261 -3.31279e-21 2.35406)
(15.9086 5.1739e-21 2.14412)
(16.1074 5.95071e-21 2.22215)
(15.8666 5.24405e-21 2.02067)
(16.0836 8.46552e-22 2.09793)
(16.0552 7.03064e-21 1.98141)
(15.8382 -1.13369e-20 3.71619)
(15.7056 5.76064e-20 3.71843)
(15.9536 8.21615e-21 3.54412)
(15.8422 -5.60832e-22 3.55957)
(16.0479 3.72373e-20 3.37202)
(15.9587 1.03843e-21 3.39843)
(16.1231 5.58736e-20 3.20224)
(16.0564 9.59085e-22 3.23748)
(16.1815 1.66661e-20 3.03663)
(16.137 2.50058e-20 3.07877)
(16.225 -2.06328e-20 2.87653)
(16.2023 1.85165e-20 2.92388)
(16.256 9.70509e-21 2.72288)
(16.2541 -2.3452e-20 2.77403)
(16.2762 -5.80907e-21 2.5762)
(16.2942 7.48852e-21 2.63002)
(16.2874 -7.2503e-21 2.43673)
(16.3241 -2.18229e-20 2.49234)
(16.2907 1.24343e-20 2.30455)
(16.3451 2.00175e-20 2.36129)
(16.2873 1.0505e-21 2.17968)
(16.3583 2.31823e-20 2.23705)
(16.2776 1.98723e-21 2.06224)
(16.3644 -6.08384e-21 2.11981)
(16.262 9.58276e-21 1.95258)
(16.3637 -4.039e-21 2.00989)
(16.2405 3.643e-21 1.85143)
(16.3566 -6.25165e-22 1.90789)
(16.3431 4.28194e-21 1.81474)
(15.7063 6.99205e-20 3.56091)
(15.5483 1.16286e-19 3.54206)
(15.8444 -8.01367e-21 3.41369)
(15.6999 -4.51041e-20 3.40715)
(15.9647 -3.63232e-20 3.26433)
(15.8349 -1.9688e-20 3.26839)
(16.0682 -3.14575e-20 3.11497)
(15.9539 -1.70813e-20 3.12796)
(16.1563 2.70177e-20 2.96742)
(16.0577 -1.47637e-20 2.98774)
(16.2303 1.65674e-20 2.82311)
(16.1476 9.9302e-21 2.84933)
(16.2919 -2.63859e-20 2.68314)
(16.2248 -4.21585e-20 2.714)
(16.3422 -8.26903e-21 2.54831)
(16.2903 2.36561e-20 2.58274)
(16.3826 5.57588e-21 2.41915)
(16.3454 -5.23175e-20 2.45629)
(16.4139 3.10005e-20 2.29608)
(16.391 3.45684e-20 2.3352)
(16.4371 1.61091e-20 2.17944)
(16.4278 -1.48906e-20 2.21993)
(16.4526 -1.26006e-20 2.06965)
(16.4566 -9.8766e-22 2.11094)
(16.4608 -1.48972e-20 1.96727)
(16.4776 -1.18676e-20 2.00877)
(16.462 -8.25826e-23 1.87312)
(16.4913 -3.16762e-21 1.91414)
(16.4564 1.27198e-21 1.78828)
(16.498 -3.97465e-22 1.82799)
(16.4979 4.42656e-21 1.7515)
(15.5382 1.7913e-21 3.38639)
(15.3731 1.20521e-19 3.3529)
(15.6869 -5.76264e-20 3.26052)
(15.5303 -1.03666e-19 3.23831)
(15.8208 0 3.13123)
(15.6739 -3.61957e-20 3.11901)
(15.9404 0 3.00041)
(15.8042 7.39157e-20 2.99686)
(16.0464 -3.28782e-20 2.86973)
(15.9214 2.2122e-20 2.87356)
(16.1398 -4.91361e-20 2.74064)
(16.0263 -1.62541e-20 2.75062)
(16.2213 7.80808e-21 2.61428)
(16.1195 1.68203e-20 2.62933)
(16.292 -1.98711e-20 2.49161)
(16.2019 -3.24757e-21 2.51075)
(16.3527 -2.44875e-20 2.37337)
(16.2742 -5.57353e-20 2.39574)
(16.4042 -1.17388e-20 2.26017)
(16.337 6.88635e-20 2.28503)
(16.447 -3.28807e-20 2.15258)
(16.391 -1.55681e-20 2.17927)
(16.4816 0 2.05121)
(16.4367 0 2.07907)
(16.5085 0 1.95674)
(16.4745 -9.08749e-21 1.98511)
(16.5279 -3.5626e-21 1.87004)
(16.5047 6.76897e-21 1.89819)
(16.5403 2.71515e-21 1.79214)
(16.5278 -3.63077e-21 1.81922)
(16.5463 1.51432e-21 1.72422)
(16.5443 1.0147e-20 1.74927)
(16.5466 5.83308e-21 1.66752)
(16.5547 -8.69084e-21 1.68951)
(16.5602 2.67961e-21 1.64109)
(15.3615 1.71922e-20 3.20242)
(15.1981 9.95732e-21 3.15827)
(15.5137 -8.31339e-20 3.09486)
(15.3557 -6.19074e-20 3.06099)
(15.6538 3.72267e-20 2.98314)
(15.5024 -1.04416e-19 2.95856)
(15.7818 9.77242e-20 2.86892)
(15.6379 1.53235e-19 2.8526)
(15.8981 3.99825e-20 2.75371)
(15.7624 -4.68477e-20 2.7446)
(16.0032 5.07064e-20 2.63889)
(15.8761 1.77573e-20 2.63596)
(16.0975 5.89467e-21 2.52562)
(15.9794 -1.83071e-20 2.52793)
(16.1817 -3.89373e-20 2.4149)
(16.0728 2.33811e-20 2.42156)
(16.2564 3.73407e-20 2.30759)
(16.1567 -9.51652e-21 2.31779)
(16.3221 6.67288e-20 2.20443)
(16.2317 7.67421e-20 2.21742)
(16.3793 1.79315e-20 2.10612)
(16.2982 1.52528e-20 2.12121)
(16.4284 -9.14479e-21 2.01337)
(16.3567 -4.15907e-20 2.02988)
(16.4699 -2.42729e-21 1.92696)
(16.4075 2.40091e-20 1.94418)
(16.504 6.90012e-21 1.84775)
(16.451 9.38956e-21 1.86493)
(16.5313 3.70083e-21 1.7767)
(16.4877 0 1.79302)
(16.5524 1.1258e-22 1.71488)
(16.518 3.77079e-21 1.72944)
(16.5681 -1.22296e-20 1.66336)
(16.5427 -3.74044e-21 1.67521)
(16.5794 -1.65701e-20 1.62317)
(16.5626 -8.67259e-21 1.63135)
(16.5789 9.10452e-21 1.59877)
(15.1889 -6.95592e-20 3.01421)
(15.0308 -8.13122e-20 2.96182)
(15.341 -8.27001e-20 2.92244)
(15.1864 -1.52445e-20 2.87937)
(15.4831 9.14763e-21 2.82612)
(15.3331 -1.19315e-20 2.79165)
(15.6151 9.39177e-21 2.72672)
(15.4706 2.32639e-20 2.70002)
(15.7371 -7.09528e-20 2.62561)
(15.5987 -2.44873e-20 2.60583)
(15.8493 -5.22596e-20 2.52404)
(15.7175 -4.00027e-21 2.51035)
(15.9518 -1.25998e-21 2.42314)
(15.8272 -5.7123e-20 2.41471)
(16.0451 5.41708e-20 2.32392)
(15.9279 1.73468e-20 2.31994)
(16.1295 2.90037e-20 2.22725)
(16.02 1.66204e-20 2.22696)
(16.2056 2.524e-20 2.13395)
(16.1039 -1.63075e-21 2.13662)
(16.2736 -4.46278e-20 2.04481)
(16.1799 -2.85784e-21 2.04974)
(16.334 -8.87746e-21 1.96058)
(16.2484 -1.89603e-21 1.96709)
(16.3871 3.64542e-20 1.88207)
(16.3097 -3.61256e-21 1.88945)
(16.4334 2.49113e-21 1.81015)
(16.3642 1.97496e-20 1.81766)
(16.4732 0 1.74571)
(16.4123 -1.48858e-20 1.75256)
(16.5073 0 1.68973)
(16.4545 -1.73343e-20 1.69507)
(16.5363 0 1.64315)
(16.4916 9.18652e-21 1.6461)
(16.5613 1.73438e-20 1.60689)
(16.5244 -1.16605e-20 1.60657)
(16.5834 1.16151e-20 1.58173)
(16.5538 9.40163e-21 1.5773)
(16.5809 -1.32324e-21 1.55897)
(15.0251 -2.69441e-20 2.82427)
(14.8734 1.33785e-19 2.76517)
(15.1753 5.72729e-20 2.74619)
(15.0259 1.30266e-19 2.69551)
(15.3173 1.77386e-21 2.66345)
(15.1712 -6.98915e-20 2.62067)
(15.4509 -1.04255e-20 2.57732)
(15.3088 -3.31481e-21 2.5418)
(15.5759 4.37954e-20 2.48904)
(15.4385 2.0953e-20 2.4601)
(15.6923 -7.82896e-21 2.39973)
(15.5603 -4.10416e-21 2.37667)
(15.8003 -3.95722e-20 2.31042)
(15.674 -3.8612e-21 2.29253)
(15.9 -2.10969e-20 2.22208)
(15.7799 1.3892e-21 2.20862)
(15.9917 -1.44176e-20 2.13559)
(15.8781 -3.81478e-20 2.12587)
(16.0757 -3.03828e-20 2.0518)
(15.9689 -1.75481e-20 2.04512)
(16.1524 4.09942e-20 1.97151)
(16.0525 -2.85893e-20 1.9672)
(16.2219 3.59179e-21 1.89552)
(16.1292 8.91911e-20 1.89291)
(16.2848 -2.11651e-20 1.82464)
(16.1993 -8.03779e-20 1.82304)
(16.3413 2.67753e-21 1.75971)
(16.2632 2.00785e-20 1.75839)
(16.392 -3.26257e-20 1.70158)
(16.3213 -1.52748e-20 1.69979)
(16.4374 -8.44859e-21 1.65113)
(16.374 -1.93128e-20 1.64807)
(16.4783 -2.34574e-21 1.60922)
(16.4222 4.84924e-21 1.60408)
(16.5156 -2.01755e-20 1.57669)
(16.4665 3.44702e-21 1.56864)
(16.5503 -3.65523e-21 1.55424)
(16.5078 -1.18616e-20 1.54249)
(16.5834 -8.81666e-23 1.54244)
(16.547 4.79673e-21 1.52629)
(16.5955 -2.33484e-21 1.52058)
(14.8711 2.95052e-19 2.63368)
(14.726 1.6491e-19 2.56895)
(15.0186 4.08459e-21 2.56753)
(14.8748 1.51278e-19 2.51036)
(15.1594 -7.65208e-20 2.49682)
(15.0179 -1.47992e-19 2.44685)
(15.2932 2.83601e-20 2.42262)
(15.1547 4.0769e-20 2.37937)
(15.4198 -2.76248e-20 2.346)
(15.2849 -9.16058e-20 2.30893)
(15.5389 0 2.26795)
(15.4084 9.78116e-20 2.23647)
(15.6507 3.81495e-20 2.1894)
(15.5251 -2.34244e-20 2.16291)
(15.7553 -1.51966e-20 2.11126)
(15.6349 1.95634e-20 2.08911)
(15.8527 -4.17381e-20 2.03439)
(15.7379 -1.89431e-20 2.01596)
(15.9432 -1.54392e-20 1.95965)
(15.8343 1.2091e-20 1.94429)
(16.027 1.84787e-20 1.88783)
(15.9242 -4.43491e-20 1.8749)
(16.1044 6.52307e-21 1.81973)
(16.008 2.4198e-20 1.80859)
(16.1757 -4.00573e-20 1.75615)
(16.0858 1.63835e-21 1.74613)
(16.2412 2.44382e-21 1.69788)
(16.1579 -1.83008e-20 1.68829)
(16.3015 -1.56608e-21 1.64573)
(16.2249 1.52464e-20 1.63585)
(16.3572 -6.19408e-21 1.6005)
(16.2872 2.7016e-21 1.58958)
(16.4088 1.08003e-20 1.56299)
(16.3454 -2.27137e-20 1.55027)
(16.4573 1.2287e-20 1.53395)
(16.4002 1.20177e-20 1.51866)
(16.5034 -3.47268e-21 1.51406)
(16.4525 -6.39598e-21 1.49546)
(16.5484 2.60069e-21 1.50386)
(16.503 3.46891e-22 1.48126)
(16.566 2.31086e-21 1.47663)
(14.7267 1.77502e-20 2.4429)
(14.5882 -1.47786e-19 2.37345)
(14.8711 1.67678e-21 2.38716)
(14.7334 1.64301e-19 2.32442)
(15.0102 -3.17253e-20 2.3271)
(14.8739 1.08891e-19 2.27085)
(15.1434 -7.93813e-20 2.26358)
(15.0093 -2.56582e-19 2.21348)
(15.2707 3.31338e-20 2.1975)
(15.1394 1.42092e-19 2.15312)
(15.3917 7.63565e-20 2.12973)
(15.2639 -1.01988e-19 2.09058)
(15.5064 -4.33433e-20 2.0611)
(15.3826 2.58821e-20 2.02669)
(15.6148 1.65661e-20 1.99246)
(15.4954 -8.14946e-20 1.96225)
(15.7169 3.55651e-20 1.92464)
(15.6024 5.83345e-20 1.89806)
(15.8129 -1.64126e-20 1.85846)
(15.7035 1.51343e-20 1.83493)
(15.9029 -3.9815e-20 1.79469)
(15.7989 -7.24425e-22 1.77361)
(15.9871 1.97364e-20 1.7341)
(15.8888 5.13765e-22 1.71487)
(16.0659 2.43599e-20 1.67745)
(15.9735 -2.54841e-21 1.65943)
(16.1396 -5.82653e-21 1.62548)
(16.0531 -2.13023e-20 1.60802)
(16.2087 1.98934e-20 1.57897)
(16.1282 1.56444e-20 1.56139)
(16.2737 -1.37599e-20 1.53866)
(16.1992 1.78566e-20 1.52025)
(16.3351 -2.21633e-20 1.50527)
(16.2666 -3.82615e-20 1.48533)
(16.3939 -6.80305e-21 1.47951)
(16.3311 1.45862e-21 1.45732)
(16.4508 -2.60177e-21 1.46201)
(16.3936 3.50463e-21 1.43686)
(16.5068 3.93732e-22 1.45328)
(16.4546 3.55945e-22 1.42453)
(16.5311 -3.51882e-22 1.4209)
(14.5921 -4.05392e-21 2.25224)
(14.4605 -4.49011e-19 2.17882)
(14.7332 2.75462e-19 2.20554)
(14.6017 4.1808e-19 2.13799)
(14.8702 -1.14027e-19 2.15485)
(14.7395 8.50594e-21 2.09308)
(15.0025 -3.78924e-20 2.10081)
(14.8733 -2.16848e-19 2.04461)
(15.1298 8.69861e-21 2.04418)
(15.0028 3.21953e-19 1.9932)
(15.252 -1.56417e-19 1.98571)
(15.1277 -4.41471e-19 1.93959)
(15.3689 -1.09373e-20 1.92617)
(15.2479 1.73005e-19 1.8845)
(15.4804 -4.15339e-20 1.86633)
(15.363 2.1414e-20 1.82865)
(15.5864 3.82738e-20 1.80696)
(15.4732 -1.90588e-20 1.77277)
(15.6871 3.14825e-20 1.74882)
(15.5783 5.05836e-20 1.7176)
(15.7825 4.05956e-20 1.69263)
(15.6785 -1.82947e-20 1.66384)
(15.8729 -2.21978e-20 1.63913)
(15.7739 4.06869e-20 1.61221)
(15.9585 -4.89355e-20 1.58901)
(15.8647 -4.92258e-20 1.56337)
(16.0397 0 1.54299)
(15.9512 2.02102e-20 1.51802)
(16.1168 1.35657e-20 1.50178)
(16.0337 -1.79797e-20 1.47684)
(16.1904 -6.13411e-21 1.46607)
(16.1127 4.69559e-20 1.44051)
(16.261 -1.48455e-20 1.43655)
(16.1886 -8.07421e-21 1.40971)
(16.3293 1.1941e-20 1.41386)
(16.2622 9.77949e-21 1.38506)
(16.3961 6.58387e-21 1.39858)
(16.334 2.36225e-21 1.36717)
(16.4624 0 1.39122)
(16.4048 0 1.35657)
(16.494 0 1.35384)
(14.4675 -3.45453e-20 2.06187)
(14.3426 -3.04857e-19 1.98504)
(14.6053 1.53053e-19 2.02296)
(14.4802 2.84141e-19 1.95122)
(14.7399 -9.22263e-20 1.98043)
(14.6152 -1.06504e-19 1.91378)
(14.871 1.40737e-19 1.93475)
(14.7471 -8.82997e-20 1.87308)
(14.998 -1.23625e-19 1.88654)
(14.8757 2.44774e-19 1.82962)
(15.1209 -1.16617e-19 1.83645)
(15.0006 -2.14064e-19 1.78399)
(15.2394 2.09281e-19 1.78518)
(15.1217 3.15538e-20 1.73683)
(15.3533 4.52671e-20 1.73343)
(15.2387 2.42209e-19 1.6888)
(15.4626 -7.87878e-21 1.68187)
(15.3515 -1.43908e-19 1.64056)
(15.5674 9.5363e-22 1.63121)
(15.4601 1.07428e-19 1.59275)
(15.6676 -1.94091e-20 1.5821)
(15.5644 -6.85115e-20 1.54602)
(15.7635 1.48107e-20 1.53522)
(15.6647 -2.69054e-20 1.501)
(15.8552 2.03304e-20 1.49123)
(15.761 2.72885e-20 1.45833)
(15.9432 2.56409e-21 1.45078)
(15.8536 2.07375e-20 1.41864)
(16.0276 1.49529e-20 1.41454)
(15.9429 -3.7179e-20 1.38256)
(16.1091 4.60738e-20 1.38316)
(16.0292 1.50279e-21 1.35074)
(16.1881 1.6794e-20 1.35725)
(16.113 1.25381e-20 1.32378)
(16.2653 1.26658e-22 1.33742)
(16.1949 4.42051e-21 1.30226)
(16.3414 -4.34983e-21 1.32421)
(16.2755 -1.21746e-20 1.28675)
(16.4173 0 1.31809)
(16.3553 0 1.27774)
(16.4563 -2.02554e-21 1.27579)
(14.3528 9.369e-21 1.87171)
(14.2347 1.40861e-19 1.79186)
(14.4875 2.62961e-20 1.83947)
(14.3687 -1.47363e-19 1.76404)
(14.6197 -1.02831e-19 1.804)
(14.501 -1.61699e-20 1.73303)
(14.7493 1.13307e-20 1.76566)
(14.6311 -2.5917e-19 1.69912)
(14.8758 1.61717e-19 1.72491)
(14.7586 2.41385e-19 1.66265)
(14.999 -6.73272e-20 1.68232)
(14.8833 1.16136e-19 1.62409)
(15.1186 6.09182e-20 1.63853)
(15.005 -1.1519e-19 1.58404)
(15.2345 5.63098e-20 1.59414)
(15.1234 8.897e-20 1.5431)
(15.3466 -3.08584e-20 1.54976)
(15.2383 -1.03787e-19 1.50183)
(15.4548 3.98356e-20 1.506)
(15.3497 5.57823e-20 1.46079)
(15.5592 -7.70257e-20 1.46345)
(15.4577 -5.22778e-20 1.42053)
(15.66 -1.52053e-20 1.42272)
(15.5622 -4.28595e-20 1.38163)
(15.7573 2.78413e-20 1.38442)
(15.6635 2.80006e-20 1.34468)
(15.8514 -1.88043e-20 1.34917)
(15.7617 0 1.31025)
(15.9426 -5.17192e-20 1.31756)
(15.8571 -2.11208e-20 1.27893)
(16.0313 -3.30968e-20 1.2902)
(15.9501 -3.52203e-20 1.2513)
(16.118 0 1.26766)
(16.041 -1.40937e-20 1.22791)
(16.2034 -7.84609e-21 1.25048)
(16.1305 -1.10448e-20 1.2093)
(16.2881 -7.94602e-21 1.23917)
(16.2192 -4.0531e-22 1.19598)
(16.3728 -2.03538e-21 1.23417)
(16.3074 0 1.18841)
(16.4193 -2.18522e-21 1.18715)
(14.2482 -1.36618e-20 1.68153)
(14.1367 -5.3512e-21 1.59886)
(14.3799 -1.93736e-19 1.65504)
(14.2676 -2.25423e-20 1.5762)
(14.5099 -1.71238e-19 1.62569)
(14.3974 -1.77796e-20 1.55073)
(14.638 -3.3833e-20 1.59376)
(14.5257 -1.39968e-19 1.5227)
(14.7638 1.97342e-19 1.5596)
(14.6522 2.20283e-19 1.49236)
(14.887 7.19504e-20 1.52371)
(14.7765 -5.63156e-21 1.4601)
(15.0074 -9.07521e-20 1.48664)
(14.8984 -7.79958e-21 1.42644)
(15.1248 -7.11877e-20 1.44893)
(15.0179 -7.16811e-20 1.39191)
(15.2392 -1.81975e-20 1.4111)
(15.1345 -5.93826e-20 1.35695)
(15.3504 -3.6474e-20 1.37366)
(15.2484 5.52789e-20 1.32205)
(15.4585 -1.74154e-20 1.33714)
(15.3595 -1.91321e-20 1.28771)
(15.5636 0 1.3021)
(15.4678 4.4333e-20 1.25445)
(15.6659 0 1.26909)
(15.5735 -1.47717e-20 1.22278)
(15.7655 -1.95247e-21 1.23866)
(15.6766 -2.21066e-20 1.19323)
(15.8627 -3.89751e-21 1.21136)
(15.7775 3.97696e-20 1.16632)
(15.958 -1.61611e-20 1.18774)
(15.8765 -3.52554e-20 1.14257)
(16.0518 -2.54869e-20 1.16832)
(15.974 1.48418e-20 1.1225)
(16.1447 -3.62849e-21 1.15359)
(16.0704 4.24151e-21 1.10657)
(16.2372 7.73471e-21 1.14402)
(16.1664 6.33272e-21 1.09526)
(16.3302 -1.31895e-22 1.14001)
(16.2623 -7.54873e-21 1.08898)
(16.3842 1.05326e-21 1.08828)
(14.1539 -1.41118e-20 1.49082)
(14.0495 2.08599e-21 1.40568)
(14.2829 1.57871e-19 1.46925)
(14.1775 1.50665e-19 1.38738)
(14.4109 1.69316e-20 1.44519)
(14.305 1.70044e-20 1.36665)
(14.5375 1.12988e-19 1.41885)
(14.4317 0 1.3437)
(14.6626 1.685e-20 1.39052)
(14.5571 2.27941e-19 1.31876)
(14.7857 -8.75025e-20 1.36061)
(14.6809 -2.1101e-19 1.29213)
(14.9066 1.31473e-20 1.32959)
(14.803 -5.16429e-23 1.26421)
(15.0253 -5.97333e-20 1.29789)
(14.9232 -3.32972e-20 1.23539)
(15.1416 1.35922e-20 1.26597)
(15.0413 -8.2868e-20 1.20612)
(15.2554 7.45696e-20 1.23427)
(15.1573 7.60733e-20 1.17681)
(15.3667 4.28771e-20 1.20327)
(15.2711 -3.23862e-21 1.14788)
(15.4756 3.04132e-20 1.17345)
(15.3827 -1.91618e-21 1.11979)
(15.5822 -3.73051e-20 1.14531)
(15.4922 -2.85564e-20 1.09298)
(15.6868 1.93768e-20 1.11934)
(15.5997 -2.26837e-20 1.06794)
(15.7895 9.10557e-21 1.09604)
(15.7055 6.19767e-20 1.04512)
(15.8907 -4.52014e-21 1.07587)
(15.8099 -3.59797e-20 1.02497)
(15.9909 4.55011e-20 1.05932)
(15.9131 3.00352e-20 1.00796)
(16.0905 1.44229e-20 1.04683)
(16.0158 2.08393e-20 0.994504)
(16.1902 -9.06959e-21 1.03882)
(16.1184 -2.96237e-21 0.985022)
(16.2906 -5.34274e-21 1.03567)
(16.2213 -1.13047e-20 0.9799)
(16.3522 3.38127e-21 0.979654)
(14.0711 1.67965e-19 1.29961)
(13.9742 1.50271e-19 1.21192)
(14.1976 9.03511e-21 1.2822)
(14.0996 -1.28933e-19 1.19727)
(14.3236 0 1.26266)
(14.225 2.56603e-19 1.18056)
(14.449 1.12994e-19 1.24121)
(14.3501 -2.47578e-19 1.16201)
(14.5732 3.60013e-21 1.21807)
(14.4744 1.07558e-19 1.14185)
(14.6961 -1.25827e-19 1.19351)
(14.5977 -3.40431e-21 1.12021)
(14.8175 -4.69685e-20 1.16789)
(14.7199 4.72559e-20 1.09736)
(14.9371 -5.59516e-20 1.14159)
(14.8407 -2.68454e-20 1.07368)
(15.055 -2.21403e-20 1.11503)
(14.96 -3.38334e-20 1.04955)
(15.171 -2.10475e-21 1.08858)
(15.0777 -1.01593e-21 1.02532)
(15.2851 -4.91813e-20 1.06264)
(15.1938 1.54355e-20 1.00134)
(15.3973 -6.1835e-20 1.03764)
(15.3082 -6.42696e-20 0.977986)
(15.5077 -1.36622e-20 1.01401)
(15.421 -1.37366e-20 0.955668)
(15.6166 1.9276e-20 0.992169)
(15.5323 2.26005e-20 0.934786)
(15.7241 1.77193e-20 0.972563)
(15.6424 -2.66364e-21 0.915742)
(15.8306 -1.89418e-21 0.955612)
(15.7515 -1.90501e-21 0.898934)
(15.9364 4.91436e-21 0.941726)
(15.8599 7.34459e-21 0.88475)
(16.0421 3.52381e-21 0.931301)
(15.9681 1.16126e-20 0.873566)
(16.1482 -5.06805e-21 0.924713)
(16.0765 5.07589e-21 0.865746)
(16.2553 -1.41733e-21 0.922297)
(16.1856 -1.09238e-21 0.861629)
(16.3245 9.91055e-22 0.86168)
(14.0008 -1.48228e-19 1.10681)
(13.9113 -4.78117e-22 1.01693)
(14.1252 1.16638e-19 1.09292)
(14.0347 -1.41677e-19 1.00543)
(14.2495 1.36068e-20 1.07727)
(14.1583 3.35435e-19 0.99222)
(14.3735 -2.60965e-19 1.06006)
(14.2819 -3.17045e-19 0.977531)
(14.497 1.02777e-19 1.04147)
(14.4053 6.06026e-21 0.961517)
(14.6196 1.73129e-19 1.02163)
(14.5282 4.83767e-20 0.94426)
(14.7412 6.94512e-20 1.00082)
(14.6503 1.00077e-19 0.925962)
(14.8617 -4.06418e-21 0.97938)
(14.7716 8.24025e-21 0.906935)
(14.9808 -1.29351e-20 0.957654)
(14.8919 -7.33127e-20 0.887463)
(15.0986 1.65579e-20 0.935958)
(15.011 5.77349e-20 0.867826)
(15.215 1.5951e-21 0.91463)
(15.129 2.60708e-20 0.848343)
(15.3301 -1.59613e-20 0.89403)
(15.2458 1.47765e-20 0.829347)
(15.4438 2.27236e-20 0.874527)
(15.3614 -1.38766e-20 0.811173)
(15.5565 6.31572e-22 0.856493)
(15.476 2.31917e-20 0.794154)
(15.6681 -2.27884e-20 0.840294)
(15.5898 -3.51719e-21 0.778624)
(15.7792 7.3863e-21 0.82629)
(15.7029 -1.91693e-20 0.764916)
(15.89 1.41312e-20 0.814836)
(15.8157 3.98116e-22 0.753356)
(16.0009 1.33385e-20 0.806275)
(15.9286 -4.43187e-21 0.744268)
(16.1126 9.25379e-21 0.800937)
(16.0421 6.75816e-21 0.737964)
(16.2256 5.16378e-23 0.799122)
(16.1566 2.58176e-21 0.734746)
(16.3025 -3.4818e-21 0.735055)
(13.9434 9.43399e-21 0.913018)
(13.8618 8.09109e-20 0.819893)
(14.066 7.23065e-20 0.902265)
(13.9834 -7.42103e-21 0.811175)
(14.1889 1.04363e-20 0.890077)
(14.1056 7.85216e-21 0.801097)
(14.3119 -5.00342e-20 0.876628)
(14.2282 -5.69267e-21 0.789807)
(14.4347 -5.0712e-20 0.862033)
(14.3509 -5.05179e-20 0.777437)
(14.5571 -2.77488e-20 0.846413)
(14.4735 -1.04526e-19 0.764093)
(14.6789 3.92209e-20 0.829981)
(14.5955 1.01721e-19 0.749929)
(14.8 -6.1088e-20 0.812988)
(14.7172 -1.12937e-20 0.735126)
(14.9203 -3.58623e-21 0.795681)
(14.8384 -5.21598e-20 0.719877)
(15.0396 6.81776e-20 0.778337)
(14.9587 2.36447e-20 0.704445)
(15.158 3.98421e-20 0.761263)
(15.0783 3.606e-20 0.689118)
(15.2754 1.75264e-20 0.744765)
(15.1971 8.66406e-21 0.674169)
(15.3919 -1.41657e-20 0.729141)
(15.3151 -6.67169e-22 0.659858)
(15.5077 1.95028e-20 0.714686)
(15.4324 -6.06163e-21 0.64645)
(15.623 5.44384e-22 0.7017)
(15.5492 2.07312e-20 0.634207)
(15.7379 -2.67559e-20 0.690477)
(15.6657 -1.01124e-20 0.623399)
(15.8529 -1.86042e-20 0.681316)
(15.7822 -8.14529e-21 0.614292)
(15.9684 -1.14695e-20 0.674504)
(15.8991 -1.79715e-20 0.607152)
(16.0849 0 0.670321)
(16.0168 -1.70944e-21 0.602237)
(16.2029 -2.24147e-21 0.669018)
(16.1358 -9.70312e-22 0.599788)
(16.2875 -1.16662e-21 0.600151)
(13.9002 6.5606e-20 0.714995)
(13.827 2.898e-22 0.620075)
(14.0214 -7.39845e-20 0.706985)
(13.9475 -3.42902e-21 0.613785)
(14.1433 -8.43635e-21 0.697844)
(14.0687 -6.78918e-20 0.606472)
(14.2656 -5.18383e-21 0.687685)
(14.1906 6.04807e-20 0.598207)
(14.388 -1.04618e-19 0.676635)
(14.3129 -5.9944e-20 0.589137)
(14.5103 2.3826e-20 0.664816)
(14.4352 -8.91614e-20 0.57939)
(14.6323 5.2301e-20 0.65234)
(14.5574 1.13436e-19 0.569013)
(14.754 -1.27126e-21 0.639347)
(14.6795 -6.16563e-22 0.558067)
(14.8752 -2.58647e-20 0.626048)
(14.8014 1.56027e-20 0.54673)
(14.9959 -9.57328e-21 0.612706)
(14.9228 -3.24168e-20 0.535254)
(15.1159 4.72199e-21 0.599571)
(15.0436 6.01899e-20 0.523863)
(15.2352 -9.81393e-21 0.586875)
(15.164 -1.13314e-20 0.512745)
(15.354 7.71391e-21 0.574841)
(15.2839 -2.74738e-20 0.502088)
(15.4724 -5.35534e-21 0.563699)
(15.4033 1.12322e-21 0.49209)
(15.5905 1.04416e-20 0.553684)
(15.5226 -7.87502e-21 0.482957)
(15.7086 8.94252e-21 0.545033)
(15.6418 1.1261e-20 0.474896)
(15.827 -7.28113e-21 0.537983)
(15.7612 1.41912e-20 0.468116)
(15.9462 -8.28981e-21 0.532768)
(15.8813 -6.60566e-21 0.462824)
(16.0666 -2.72215e-21 0.529617)
(16.0024 -3.83616e-21 0.459229)
(16.1887 7.31244e-23 0.528737)
(16.1249 4.19206e-21 0.457533)
(16.2812 1.04837e-21 0.458062)
(13.8729 -7.05748e-20 0.516586)
(13.8086 -1.07246e-19 0.416567)
(13.9933 4.29756e-21 0.511033)
(13.9283 3.80571e-20 0.412424)
(14.1146 0 0.504657)
(14.0489 0 0.407591)
(14.2364 6.9395e-21 0.497545)
(14.1704 -2.65566e-20 0.402117)
(14.3586 -4.3397e-20 0.489832)
(14.2924 5.81206e-20 0.396129)
(14.4809 -1.60567e-21 0.481591)
(14.4147 -7.45064e-20 0.38972)
(14.6033 6.16313e-20 0.472827)
(14.5372 5.08258e-20 0.382868)
(14.7255 1.63835e-20 0.46362)
(14.6597 1.40308e-20 0.375573)
(14.8475 9.91572e-21 0.454175)
(14.7821 2.47864e-22 0.367992)
(14.9692 3.72156e-20 0.444713)
(14.9043 -2.06768e-21 0.36033)
(15.0904 4.52647e-20 0.435399)
(15.0261 3.31416e-20 0.352731)
(15.2113 -2.90784e-20 0.426378)
(15.1476 1.3239e-21 0.345304)
(15.3319 -3.48225e-20 0.41781)
(15.2689 -4.24479e-20 0.338171)
(15.4522 -1.30536e-21 0.409869)
(15.3899 4.61598e-21 0.331471)
(15.5726 -7.49946e-21 0.40273)
(15.5109 4.60622e-22 0.32535)
(15.6931 1.66187e-20 0.396572)
(15.632 -5.68998e-21 0.319953)
(15.8142 1.53722e-20 0.391571)
(15.7536 1.54519e-20 0.315428)
(15.9363 -2.09368e-21 0.387908)
(15.8759 -2.43418e-21 0.311924)
(16.0597 3.12951e-21 0.385759)
(15.9994 5.21725e-21 0.309597)
(16.185 5.32418e-21 0.38528)
(16.1245 3.21948e-21 0.308598)
(16.2838 5.23748e-22 0.309136)
(13.8628 1.04788e-21 0.308763)
(13.6736 -1.83067e-20 0.208049)
(13.9827 3.45243e-20 0.305387)
(13.7914 3.39631e-20 0.205933)
(14.1036 -2.66851e-20 0.301513)
(13.9101 -1.55864e-20 0.203458)
(14.2253 2.4119e-20 0.297213)
(14.0296 -2.90584e-20 0.200663)
(14.3474 2.91412e-20 0.292577)
(14.1497 5.57344e-20 0.197613)
(14.4698 -2.3432e-20 0.287625)
(14.2702 -2.66303e-20 0.19435)
(14.5925 2.73967e-21 0.28233)
(14.3909 0 0.190851)
(14.7152 -2.21765e-21 0.276747)
(14.5116 1.49036e-22 0.187113)
(14.8377 -1.19649e-20 0.271028)
(14.6322 -5.11164e-21 0.183223)
(14.9601 -6.99045e-21 0.26531)
(14.7526 -4.79671e-21 0.179295)
(15.0822 -1.12472e-20 0.259681)
(14.8727 0 0.1754)
(15.2041 -1.14264e-20 0.254224)
(14.9925 -7.84035e-21 0.171588)
(15.3258 -2.96149e-21 0.249038)
(15.112 -3.1064e-21 0.167921)
(15.4475 6.50514e-21 0.244234)
(15.2314 2.90492e-21 0.164475)
(15.5693 2.44508e-21 0.239924)
(15.3506 9.70653e-21 0.161325)
(15.6914 -7.3329e-21 0.236222)
(15.47 -1.14195e-20 0.158551)
(15.8141 -2.44672e-21 0.233248)
(15.5899 3.54039e-22 0.156234)
(15.938 4.87318e-21 0.231136)
(15.7105 -9.39352e-22 0.15447)
(16.0633 5.36575e-21 0.230052)
(15.8324 5.52827e-21 0.153385)
(16.1905 -1.6107e-21 0.230229)
(15.9559 -3.41523e-21 0.153178)
(16.1137 1.10791e-21 0.154364)
(13.5977 1.42998e-20 0.103612)
(13.7142 -1.63799e-20 0.102431)
(13.8315 -1.77292e-20 0.101066)
(13.9494 1.52627e-21 0.0995477)
(14.0678 2.85672e-22 0.0979027)
(14.1864 -3.17533e-21 0.0961327)
(14.3052 -2.67824e-21 0.0942295)
(14.4238 -2.7237e-21 0.0922177)
(14.5423 2.25249e-21 0.0901514)
(14.6604 2.2895e-21 0.0880766)
(14.7781 3.68611e-21 0.0860237)
(14.8955 6.23051e-22 0.0840225)
(15.0126 2.80766e-21 0.0821097)
(15.1295 6.07262e-21 0.0803249)
(15.2463 -4.09043e-21 0.0787086)
(15.3634 -3.80011e-21 0.0773033)
(15.481 1.92149e-21 0.0761573)
(15.5996 -4.28879e-22 0.0753326)
(15.7198 -3.3228e-21 0.0749215)
(15.8423 -7.66565e-22 0.0751412)
)
;

boundaryField
{
    inlet
    {
        type            calculated;
        value           nonuniform 0();
    }
    outlet
    {
        type            calculated;
        value           nonuniform List<vector> 
15
(
(16.6165 -9.78756e-21 1.53929)
(16.5936 5.24025e-21 1.50128)
(16.5632 -6.94819e-22 1.45124)
(16.5294 0 1.38966)
(16.4941 0 1.31696)
(16.4589 -4.10394e-21 1.23341)
(16.4247 -2.65981e-22 1.13957)
(16.3928 2.3342e-21 1.03548)
(16.3646 4.45552e-21 0.922299)
(16.3409 -2.46715e-21 0.799254)
(16.3236 -4.52257e-21 0.66923)
(16.3135 2.14821e-21 0.528989)
(16.3132 -3.5706e-23 0.385557)
(16.32 1.08327e-21 0.230727)
(15.9685 1.06943e-21 0.0754702)
)
;
    }
    flap
    {
        type            calculated;
        value           nonuniform 0();
    }
    upperWall
    {
        type            calculated;
        value           uniform (0 0 0);
    }
    lowerWall
    {
        type            calculated;
        value           nonuniform 0();
    }
    frontAndBack
    {
        type            empty;
        value           nonuniform 0();
    }
    procBoundary2to1
    {
        type            processor;
        value           nonuniform List<vector> 
17
(
(15.1973 6.21265e-20 3.30403)
(15.0272 -1.27444e-19 3.09996)
(14.8672 -1.90766e-19 2.89648)
(14.7175 3.19019e-19 2.69428)
(14.5775 1.05144e-20 2.49355)
(14.4473 -1.58653e-19 2.29437)
(14.327 -6.35229e-19 2.09672)
(14.2164 8.61256e-21 1.90035)
(14.1154 -3.0755e-20 1.70487)
(14.0244 2.04669e-20 1.50966)
(13.9445 3.1804e-19 1.31469)
(13.8768 -9.49173e-21 1.11872)
(13.8214 -7.79206e-20 0.922176)
(13.7797 7.17023e-20 0.721797)
(13.7536 -1.44667e-19 0.521281)
(13.7439 7.59791e-21 0.311607)
(13.4823 -5.36533e-21 0.104594)
)
;
    }
    procBoundary2to4
    {
        type            processor;
        value           nonuniform List<vector> 
11
(
(3.65274 8.54613e-21 1.62831)
(7.78918 -2.9964e-20 2.51346)
(11.0257 1.1507e-20 3.22258)
(13.2431 2.72549e-21 3.71695)
(14.6231 1.49578e-20 4.01099)
(15.3817 1.6267e-20 4.13575)
(15.7143 7.14513e-20 4.13094)
(15.7809 -2.04343e-20 4.03618)
(15.7 0 3.88533)
(15.5496 1.25749e-19 3.70348)
(15.3746 1.30142e-19 3.50671)
)
;
    }
    procBoundary2to5
    {
        type            processor;
        value           nonuniform List<vector> 
34
(
(1.38331 9.07692e-21 1.16706)
(0.95184 -2.1414e-20 1.00249)
(2.40981 -1.00262e-20 1.16326)
(4.13186 2.36952e-20 1.44085)
(3.62238 -3.23757e-20 1.25767)
(5.36715 -1.08155e-20 1.47308)
(6.90402 -3.74678e-21 1.66923)
(8.52795 0 1.86737)
(9.76014 -1.17738e-22 1.99565)
(9.3802 -6.18616e-21 1.82095)