/*--------------------------------*- C++ -*----------------------------------*\
| =========                 |                                                 |
| \\      /  F ield         | OpenFOAM: The Open Source CFD Toolbox           |
|  \\    /   O peration     | Version:  dev                                   |
|   \\  /    A nd           | Web:      www.OpenFOAM.org                      |
|    \\/     M anipulation  |                                                 |
\*---------------------------------------------------------------------------*/
FoamFile
{
    version     2.0;
    format      ascii;
    class       surfaceScalarField;
    location    "0.52";
    object      phi;
}
// * * * * * * * * * * * * * * * * * * * * * * * * * * * * * * * * * * * * * //

dimensions      [0 3 -1 0 0 0 0];

internalField   nonuniform List<scalar> 
882
(
0.134075
0.235706
0.131126
0.239611
0.138467
0.145744
0.249892
0.127357
0.254592
0.133765
0.260352
0.139982
0.267298
0.14589
0.151354
0.263726
0.122923
0.269036
0.128453
0.275315
0.1337
0.282642
0.138562
0.291068
0.142926
0.300615
0.146677
0.149691
0.27715
0.117966
0.282917
0.122685
0.289554
0.127062
0.297103
0.131011
0.305584
0.134444
0.314988
0.137272
0.325268
0.139409
0.336341
0.140777
0.14117
0.348054
0.29013
0.112603
0.296228
0.116586
0.303096
0.120193
0.310751
0.123356
0.319189
0.126005
0.328382
0.128078
0.338276
0.129515
0.348784
0.130267
0.130175
0.359778
0.302656
0.106939
0.308979
0.110263
0.315975
0.113196
0.323644
0.115687
0.331966
0.117683
0.340904
0.119139
0.350399
0.120019
0.360372
0.120293
0.119835
0.370711
0.314725
0.101063
0.321185
0.103803
0.328229
0.106153
0.335842
0.108074
0.343997
0.109527
0.35265
0.110485
0.361745
0.110924
0.371207
0.11083
0.110101
0.380941
0.326347
0.0950481
0.332873
0.0972777
0.339899
0.0991278
0.347404
0.100569
0.355354
0.101577
0.363705
0.102134
0.372402
0.102227
0.381378
0.101853
0.100929
0.390549
0.337543
0.0889584
0.344076
0.0907458
0.351034
0.0921708
0.358391
0.0932136
0.36611
0.0938584
0.374148
0.0940957
0.382452
0.0939223
0.390964
0.0933404
0.0922819
0.399611
0.348341
0.0828454
0.354834
0.0842535
0.361685
0.0853212
0.368864
0.0860355
0.376334
0.0863882
0.384054
0.0863759
0.391976
0.0860008
0.400046
0.0852697
0.0841266
0.408201
0.352681
0.0753594
0.358777
0.0767514
0.365194
0.0778377
0.371908
0.0786082
0.378888
0.0790557
0.386099
0.0791771
0.393502
0.0789737
0.401051
0.0784514
0.4087
0.0776197
0.0764324
0.416394
0.362851
0.0696092
0.368894
0.07071
0.375206
0.0715264
0.381762
0.0720531
0.388531
0.0722872
0.395478
0.0722295
0.402567
0.0718845
0.409757
0.0712605
0.417008
0.0703686
0.0691703
0.424269
0.372776
0.0638916
0.37874
0.0647463
0.384928
0.0653395
0.391312
0.0656695
0.397862
0.0657367
0.404547
0.0655448
0.411331
0.0651001
0.418178
0.0644125
0.425052
0.0634938
0.062312
0.431909
0.382502
0.0582288
0.388371
0.0588781
0.394421
0.0592896
0.400625
0.0594643
0.406957
0.0594051
0.413383
0.0591172
0.419874
0.0586085
0.426396
0.0578893
0.432917
0.0569716
0.0558287
0.439399
0.392082
0.0526359
0.397843
0.0531166
0.403749
0.0533832
0.409773
0.0534388
0.41589
0.0532879
0.422068
0.0529368
0.428281
0.0523941
0.434499
0.0516701
0.440692
0.0507766
0.0496911
0.446828
0.401572
0.0471221
0.40722
0.0474666
0.412981
0.0476206
0.41883
0.0475886
0.42474
0.047376
0.430685
0.0469897
0.436638
0.0464384
0.442574
0.045732
0.448466
0.0448817
0.0438689
0.454286
0.41103
0.0416902
0.416567
0.0419271
0.422188
0.0419968
0.427869
0.0419045
0.433587
0.0416559
0.439315
0.041258
0.445031
0.0407194
0.450711
0.0400494
0.456331
0.0392583
0.0383305
0.461867
0.420519
0.0363376
0.42595
0.036492
0.431442
0.0365018
0.43697
0.0363725
0.442512
0.0361097
0.448046
0.0357204
0.453549
0.0352124
0.459
0.0345943
0.464379
0.0338753
0.0330425
0.469664
0.430103
0.0310563
0.43544
0.03115
0.440816
0.0311208
0.446209
0.0309743
0.451598
0.0307159
0.456962
0.0303519
0.46228
0.0298895
0.467533
0.0293362
0.472703
0.0287002
0.0279709
0.477771
0.439849
0.0258336
0.445107
0.0258847
0.450388
0.0258343
0.455668
0.0256873
0.460929
0.0254488
0.466151
0.0251242
0.471315
0.0247197
0.476403
0.0242419
0.4814
0.0236976
0.023078
0.486288
0.449821
0.0206514
0.455023
0.0206754
0.460231
0.0206185
0.465426
0.020485
0.470588
0.0202791
0.4757
0.0200055
0.480743
0.0196694
0.485702
0.019276
0.490562
0.018831
0.0183276
0.495306
0.460097
0.0154872
0.465267
0.0154964
0.470431
0.0154448
0.475572
0.015336
0.480669
0.0151732
0.485706
0.0149601
0.490666
0.0147005
0.495536
0.0143986
0.500301
0.0140584
0.0136748
0.504947
0.470741
0.0103137
0.47591
0.0103178
0.481063
0.0102809
0.486184
0.0102056
0.491253
0.0100941
0.496254
0.00994906
0.501172
0.00977315
0.505992
0.00956922
0.510702
0.00934019
0.00908277
0.515286
0.481829
0.00509938
0.48703
0.00510474
0.49221
0.00508899
0.497351
0.00505345
0.502435
0.00499936
0.507445
0.00492805
0.512367
0.00484094
0.517186
0.00473954
0.521891
0.00462534
0.00449698
0.526468
0.48532
0.490412
0.495488
0.50053
0.505517
0.510434
0.515263
0.519992
0.524606
0.529094
0.0701404
0.365346
0.0645717
0.371014
0.0648966
0.0654235
0.376804
0.375927
0.0593543
0.381231
0.0595917
0.0600089
0.386645
0.385835
0.0544592
0.390802
0.0546238
0.0549467
0.395864
0.395147
0.0498607
0.399804
0.0499658
0.0502097
0.40454
0.403934
0.045537
0.408305
0.045594
0.0457727
0.412742
0.412268
0.041469
0.416374
0.0414878
0.0416131
0.420533
0.420222
0.0376397
0.424081
0.0376287
0.0377108
0.427983
0.427875
0.034033
0.431504
0.0339995
0.0340472
0.435168
0.435308
0.0306333
0.438724
0.0305835
0.0306045
0.442167
0.442606
0.0274254
0.445825
0.0273646
0.0273653
0.449064
0.449858
0.0243937
0.452896
0.0243264
0.0243125
0.45595
0.457156
0.0215223
0.46003
0.0214523
0.0214285
0.462914
0.464592
0.0187948
0.467319
0.0187252
0.0186954
0.470052
0.472262
0.0161943
0.474859
0.0161278
0.0160953
0.477459
0.48026
0.0137028
0.482745
0.0136415
0.013609
0.485231
0.488686
0.0113023
0.491078
0.0112482
0.011218
0.493469
0.497633
0.00897249
0.499952
0.00892687
0.00890042
0.50227
0.507221
0.00669476
0.509487
0.00665898
0.00663803
0.511749
0.517533
0.00444359
0.519771
0.00441835
0.0044028
0.522006
0.528705
0.0022021
0.530933
0.0021875
0.00217851
0.533157
0.531291
0.533475
0.535653
0.134509
0.397939
0.123214
0.409502
0.126572
0.421002
0.129015
0.130447
0.406451
0.112625
0.417435
0.115586
0.428617
0.117831
0.439787
0.119274
0.450739
0.119796
0.11929
0.414433
0.102732
0.424737
0.105281
0.435331
0.107235
0.446075
0.108527
0.456822
0.109046
0.467418
0.10869
0.477715
0.107354
0.104938
0.421982
0.0934911
0.431603
0.0956593
0.441521
0.0973154
0.451643
0.0984024
0.46186
0.0988263
0.472053
0.0984947
0.482094
0.09731
0.491853
0.0951743
0.0919978
0.429169
0.0848556
0.43814
0.0866871
0.447385
0.0880691
0.456833
0.0889535
0.466398
0.0892584
0.475987
0.0889035
0.485492
0.0878023
0.494796
0.0858666
0.0830133
0.43606
0.07678
0.444427
0.078319
0.453035
0.079461
0.461823
0.0801644
0.470722
0.0803579
0.479652
0.079972
0.48852
0.0789314
0.497225
0.077159
0.0745815
0.442727
0.0692216
0.450538
0.0705088
0.458554
0.071445
0.466723
0.0719941
0.474986
0.0720942
0.483271
0.0716852
0.491499
0.0707022
0.499578
0.0690784
0.066751
0.44925
0.0621398
0.456548
0.0632114
0.46402
0.0639731
0.47162
0.064394
0.479293
0.0644203
0.486977
0.0640004
0.4946
0.0630786
0.502079
0.0615975
0.0595036
0.45571
0.0554952
0.462539
0.056383
0.469515
0.0569981
0.476595
0.0573142
0.48373
0.0572848
0.490865
0.056866
0.497933
0.05601
0.504862
0.0546681
0.0527947
0.462197
0.0492491
0.4686
0.0499806
0.475126
0.0504734
0.481736
0.0507051
0.488385
0.050636
0.495022
0.0502286
0.50159
0.0494426
0.508021
0.0482364
0.0465719
0.468802
0.0433629
0.474822
0.0439619
0.480943
0.0443532
0.487131
0.044518
0.493345
0.0444226
0.499539
0.0440354
0.50566
0.0433223
0.511648
0.0422483
0.0407816
0.475619
0.0377976
0.481298
0.0382843
0.48706
0.0385918
0.492875
0.0387046
0.498704
0.0385942
0.504506
0.0382342
0.510233
0.0375961
0.515832
0.0366506
0.0353712
0.482744
0.0325138
0.488124
0.0329053
0.493573
0.033144
0.499062
0.0332172
0.504556
0.0331011
0.510017
0.032774
0.515403
0.0322121
0.520663
0.0313912
0.0302896
0.490275
0.0274715
0.495399
0.027782
0.50058
0.0279642
0.50579
0.028008
0.510999
0.027894
0.51617
0.0276041
0.521264
0.0271191
0.526237
0.0264193
0.025487
0.498311
0.0226295
0.503223
0.0228707
0.508182
0.0230066
0.513162
0.0230294
0.518133
0.0229235
0.523064
0.0226744
0.527918
0.0222668
0.532654
0.0216848
0.0209144
0.506955
0.0179451
0.5117
0.0181262
0.516483
0.018224
0.52128
0.0182327
0.526065
0.0181398
0.530806
0.0179344
0.53547
0.0176044
0.540018
0.0171376
0.0165233
0.516319
0.0133742
0.520943
0.0135026
0.525599
0.0135686
0.530264
0.0135683
0.534912
0.0134925
0.539514
0.013333
0.544039
0.013081
0.54845
0.0127277
0.012265
0.526511
0.00886847
0.531064
0.00894878
0.535644
0.00898874
0.540229
0.00898387
0.544793
0.00892819
0.54931
0.0088166
0.553749
0.00864342
0.558075
0.00840262
0.00808908
0.537647
0.00437665
0.542177
0.00441777
0.54673
0.00443473
0.551287
0.00442743
0.55582
0.0043942
0.560305
0.00433259
0.564709
0.00423951
0.569
0.00411182
0.00394692
0.540027
0.544444
0.548877
0.553304
0.557698
0.56203
0.56627
0.570382
)
;

boundaryField
{
    inlet
    {
        type            calculated;
        value           nonuniform 0();
    }
    outlet
    {
        type            calculated;
        value           nonuniform 0();
    }
    flap
    {
        type            calculated;
        value           nonuniform 0();
    }
    upperWall
    {
        type            calculated;
        value           nonuniform List<scalar> 
22
(
0
0
0
0
0
0
0
0
0
0
-2.96167e-15
0
0
0
0
0
0
0
0
0
0
0
)
;
    }
    lowerWall
    {
        type            calculated;
        value           nonuniform 0();
    }
    frontAndBack
    {
        type            empty;
        value           nonuniform 0();
    }
    procBoundary1to0
    {
        type            processor;
        value           nonuniform List<scalar> 
18
(
-0.331452
-0.342226
-0.0811125
-0.346927
-0.3571
-0.367058
-0.376839
-0.38649
-0.39606
-0.405601
-0.415171
-0.424827
-0.434633
-0.444648
-0.454942
-0.465579
-0.476627
-0.480234
)
;
    }
    procBoundary1to2
    {
        type            processor;
        value           nonuniform List<scalar> 
17
(
0.501204
0.503777
0.505655
0.507407
0.509326
0.51157
0.514245
0.51744
0.521244
0.525746
0.531042
0.537229
0.544412
0.55271
0.562253
0.573144
0.57433
)
;
    }
    procBoundary1to3
    {
        type            processor;
        value           nonuniform List<scalar> 9(-0.2193 -0.232761 -0.246125 -0.259294 -0.272193 -0.284768 -0.296991 -0.308847 -0.320331);
    }
    procBoundary1to4
    {
        type            processor;
        value           nonuniform List<scalar> 
30
(
-0.13604
0.221262
-0.142375
-0.150784
0.244647
-0.152838
-0.159595
0.275537
-0.156226
-0.16033
0.311253
-0.151852
-0.152884
-0.0760906
0.354003
-0.0705661
-0.0712144
-0.146434
0.388728
-0.138138
-0.140517
-0.14158
0.432131
-0.130751
-0.129842
0.461286
-0.117656
-0.114808
0.487581
-0.101352
)
;
    }
}


// ************************************************************************* //
