/*--------------------------------*- C++ -*----------------------------------*\
| =========                 |                                                 |
| \\      /  F ield         | OpenFOAM: The Open Source CFD Toolbox           |
|  \\    /   O peration     | Version:  dev                                   |
|   \\  /    A nd           | Web:      www.OpenFOAM.org                      |
|    \\/     M anipulation  |                                                 |
\*---------------------------------------------------------------------------*/
FoamFile
{
    version     2.0;
    format      ascii;
    class       pointVectorField;
    location    "0.52";
    object      pointDisplacement;
}
// * * * * * * * * * * * * * * * * * * * * * * * * * * * * * * * * * * * * * //

dimensions      [0 1 0 0 0 0 0];

internalField   nonuniform List<vector> 
1028
(
(0.0944759 0 0.105644)
(0.0945854 0 0.11167)
(0.0931417 0 0.109078)
(0.09314 0 0.114821)
(0.092845 0 0.120694)
(0.0922447 0 0.126577)
(0.0918881 0 0.111392)
(0.0918311 0 0.11675)
(0.0915118 0 0.122086)
(0.0909341 0 0.127282)
(0.090111 0 0.132185)
(0.0890694 0 0.136615)
(0.090714 0 0.112761)
(0.0906423 0 0.117695)
(0.0903396 0 0.122499)
(0.08982 0 0.127065)
(0.0891053 0 0.131267)
(0.0882273 0 0.134964)
(0.0872302 0 0.138014)
(0.0861707 0 0.140275)
(0.0896098 0 0.113332)
(0.0895513 0 0.117842)
(0.08929 0 0.122147)
(0.088846 0 0.126155)
(0.0882446 0 0.129765)
(0.0875184 0 0.132872)
(0.0867074 0 0.135371)
(0.0858584 0 0.13717)
(0.0850227 0 0.138194)
(0.0843404 0 0.138423)
(0.0885624 0 0.113226)
(0.0885349 0 0.117332)
(0.0883288 0 0.121185)
(0.0879667 0 0.124709)
(0.0874748 0 0.127825)
(0.0868838 0 0.130455)
(0.0862282 0 0.132528)
(0.0855456 0 0.133983)
(0.0848742 0 0.134778)
(0.0843214 0 0.134922)
(0.0875578 0 0.11254)
(0.087572 0 0.116271)
(0.0874272 0 0.119721)
(0.0871468 0 0.122829)
(0.0867562 0 0.125535)
(0.0862829 0 0.127782)
(0.0857562 0 0.129522)
(0.085206 0 0.130719)
(0.0846609 0 0.13135)
(0.0842055 0 0.131439)
(0.0865829 0 0.111345)
(0.0866442 0 0.114737)
(0.0865621 0 0.117833)
(0.0863595 0 0.120585)
(0.0860601 0 0.12295)
(0.0856881 0 0.124888)
(0.0852683 0 0.126367)
(0.0848244 0 0.127366)
(0.0843783 0 0.127878)
(0.0839986 0 0.127932)
(0.085626 0 0.109696)
(0.0857364 0 0.112783)
(0.0857154 0 0.11557)
(0.0855848 0 0.118019)
(0.0853662 0 0.1201)
(0.0850811 0 0.121787)
(0.08475 0 0.123059)
(0.0843923 0 0.123906)
(0.084025 0 0.124329)
(0.0837052 0 0.12436)
(0.0846771 0 0.107632)
(0.0848365 0 0.110447)
(0.0848733 0 0.112964)
(0.0848083 0 0.115155)
(0.0846609 0 0.117)
(0.0844499 0 0.11848)
(0.0841929 0 0.119587)
(0.0839058 0 0.120316)
(0.0836023 0 0.120671)
(0.0833306 0 0.120687)
(0.0837287 0 0.10518)
(0.0839355 0 0.107752)
(0.0840263 0 0.110033)
(0.0840204 0 0.112003)
(0.0839354 0 0.113649)
(0.0837879 0 0.11496)
(0.083593 0 0.115932)
(0.0833642 0 0.116567)
(0.0831129 0 0.116871)
(0.0828805 0 0.116878)
(0.0823924 0 0.0997362)
(0.0827758 0 0.102353)
(0.0830276 0 0.104708)
(0.0831682 0 0.106782)
(0.0832151 0 0.108561)
(0.0831847 0 0.110039)
(0.0830916 0 0.111209)
(0.0829492 0 0.112071)
(0.0827691 0 0.11263)
(0.0825609 0 0.112895)
(0.0823609 0 0.112897)
(0.0813958 0 0.0967404)
(0.0818164 0 0.0991559)
(0.0821102 0 0.101316)
(0.082296 0 0.103207)
(0.0823901 0 0.104821)
(0.0824073 0 0.106155)
(0.0823611 0 0.107206)
(0.0822632 0 0.107977)
(0.082124 0 0.108474)
(0.0819518 0 0.108708)
(0.0817788 0 0.108708)
(0.0803949 0 0.0933525)
(0.0808507 0 0.0955828)
(0.0811832 0 0.0975668)
(0.0814097 0 0.0992959)
(0.0815455 0 0.100766)
(0.0816044 0 0.101975)
(0.0815986 0 0.102924)
(0.0815387 0 0.103619)
(0.081434 0 0.104065)
(0.0812922 0 0.104275)
(0.0811419 0 0.104274)
(0.0793922 0 0.0895632)
(0.0798808 0 0.0916223)
(0.0802484 0 0.0934465)
(0.0805115 0 0.0950302)
(0.0806843 0 0.0963717)
(0.0807796 0 0.0974717)
(0.0808086 0 0.0983332)
(0.0807813 0 0.0989619)
(0.080706 0 0.0993658)
(0.0805899 0 0.099555)
(0.0804588 0 0.0995547)
(0.0783919 0 0.0853571)
(0.0789107 0 0.0872561)
(0.0793102 0 0.088933)
(0.0796059 0 0.0903843)
(0.0798113 0 0.0916102)
(0.0799384 0 0.092613)
(0.0799976 0 0.093397)
(0.0799983 0 0.0939684)
(0.0799482 0 0.0943355)
(0.0798539 0 0.0945081)
(0.0797392 0 0.0945093)
(0.0774001 0 0.0807118)
(0.0779466 0 0.0824591)
(0.0783748 0 0.0839979)
(0.0786996 0 0.0853265)
(0.0789338 0 0.0864465)
(0.0790886 0 0.087361)
(0.0791741 0 0.0880751)
(0.0791988 0 0.0885955)
(0.0791703 0 0.0889302)
(0.0790948 0 0.0890888)
(0.078994 0 0.0890919)
(0.0764252 0 0.0755983)
(0.0769966 0 0.0771992)
(0.0774507 0 0.0786063)
(0.0778013 0 0.079819)
(0.0780608 0 0.0808396)
(0.07824 0 0.0816721)
(0.0783482 0 0.0823219)
(0.0783937 0 0.0827955)
(0.0783837 0 0.083101)
(0.0783242 0 0.0832472)
(0.0782354 0 0.0832527)
(0.0754773 0 0.0699802)
(0.0760713 0 0.0714373)
(0.0765484 0 0.0727161)
(0.0769219 0 0.0738167)
(0.0772037 0 0.0747421)
(0.077404 0 0.0754964)
(0.0775319 0 0.0760853)
(0.0775954 0 0.076515)
(0.0776013 0 0.0767932)
(0.0775555 0 0.0769279)
(0.0774769 0 0.076936)
(0.0745689 0 0.0638139)
(0.0751831 0 0.0651267)
(0.0756806 0 0.0662777)
(0.0760743 0 0.0672674)
(0.0763755 0 0.0680991)
(0.0765942 0 0.0687771)
(0.0767391 0 0.0693065)
(0.076818 0 0.0696936)
(0.0768375 0 0.0699453)
(0.0768035 0 0.0700691)
(0.0767336 0 0.0700796)
(0.0737145 0 0.0570477)
(0.0743466 0 0.0582127)
(0.074862 0 0.0592335)
(0.0752732 0 0.0601109)
(0.0755913 0 0.060848)
(0.0758258 0 0.0614489)
(0.0759854 0 0.0619186)
(0.0760774 0 0.0622629)
(0.0761085 0 0.0624879)
(0.0760844 0 0.0626006)
(0.0760219 0 0.0626133)
(0.0729308 0 0.0496212)
(0.0735784 0 0.0506316)
(0.0741094 0 0.0515167)
(0.0745358 0 0.0522773)
(0.0748683 0 0.0529163)
(0.0751163 0 0.0534376)
(0.0752882 0 0.0538455)
(0.0753914 0 0.0541452)
(0.0754322 0 0.0543423)
(0.0754164 0 0.0544428)
(0.07536 0 0.0544573)
(0.0722366 0 0.0414642)
(0.0728976 0 0.0423097)
(0.0734417 0 0.0430503)
(0.0738809 0 0.0436867)
(0.0742255 0 0.0442216)
(0.0744848 0 0.0446582)
(0.0746669 0 0.0450003)
(0.0747792 0 0.045252)
(0.074828 0 0.0454183)
(0.0748189 0 0.0455043)
(0.0747674 0 0.0455185)
(0.0716532 0 0.0324959)
(0.072325 0 0.0331621)
(0.0728799 0 0.0337457)
(0.0733295 0 0.0342474)
(0.0736838 0 0.0346692)
(0.0739522 0 0.0350137)
(0.0741425 0 0.0352839)
(0.0742621 0 0.0354829)
(0.0743171 0 0.0356146)
(0.0743132 0 0.0356826)
(0.0742653 0 0.0356936)
(0.0712039 0 0.0226233)
(0.0718841 0 0.0230912)
(0.0724472 0 0.0235013)
(0.0729045 0 0.023854)
(0.0732662 0 0.0241507)
(0.0735413 0 0.0243932)
(0.0737377 0 0.0245834)
(0.0738626 0 0.0247237)
(0.0739222 0 0.0248164)
(0.0739221 0 0.0248641)
(0.0738769 0 0.0248713)
(0.0709143 0 0.0117346)
(0.0715999 0 0.0119796)
(0.0721683 0 0.0121945)
(0.0726306 0 0.0123795)
(0.072997 0 0.0125351)
(0.0732764 0 0.0126624)
(0.0734767 0 0.0127623)
(0.073605 0 0.012836)
(0.0736674 0 0.0128848)
(0.0736696 0 0.0129099)
(0.0736261 0 0.0129137)
(0.0708127 0 0)
(0.0715002 0 0)
(0.0720704 0 0)
(0.0725346 0 0)
(0.0729026 0 0)
(0.0731835 0 0)
(0.0733852 0 0)
(0.0735146 0 0)
(0.073578 0 0)
(0.0735811 0 0)
(0.0735381 0 0)
(0.0944759 0 0.105644)
(0.0945854 0 0.11167)
(0.0931417 0 0.109078)
(0.09314 0 0.114821)
(0.092845 0 0.120694)
(0.0922447 0 0.126577)
(0.0918881 0 0.111392)
(0.0918311 0 0.11675)
(0.0915118 0 0.122086)
(0.0909341 0 0.127282)
(0.090111 0 0.132185)
(0.0890694 0 0.136615)
(0.090714 0 0.112761)
(0.0906423 0 0.117695)
(0.0903396 0 0.122499)
(0.08982 0 0.127065)
(0.0891053 0 0.131267)
(0.0882273 0 0.134964)
(0.0872302 0 0.138014)
(0.0861707 0 0.140275)
(0.0896098 0 0.113332)
(0.0895513 0 0.117842)
(0.08929 0 0.122147)
(0.088846 0 0.126155)
(0.0882446 0 0.129765)
(0.0875184 0 0.132872)
(0.0867074 0 0.135371)
(0.0858584 0 0.13717)
(0.0850227 0 0.138194)
(0.0843404 0 0.138423)
(0.0885624 0 0.113226)
(0.0885349 0 0.117332)
(0.0883288 0 0.121185)
(0.0879667 0 0.124709)
(0.0874748 0 0.127825)
(0.0868838 0 0.130455)
(0.0862282 0 0.132528)
(0.0855456 0 0.133983)
(0.0848742 0 0.134778)
(0.0843214 0 0.134922)
(0.0875578 0 0.11254)
(0.087572 0 0.116271)
(0.0874272 0 0.119721)
(0.0871468 0 0.122829)
(0.0867562 0 0.125535)
(0.0862829 0 0.127782)
(0.0857562 0 0.129522)
(0.085206 0 0.130719)
(0.0846609 0 0.13135)
(0.0842055 0 0.131439)
(0.0865829 0 0.111345)
(0.0866442 0 0.114737)
(0.0865621 0 0.117833)
(0.0863595 0 0.120585)
(0.0860601 0 0.12295)
(0.0856881 0 0.124888)
(0.0852683 0 0.126367)
(0.0848244 0 0.127366)
(0.0843783 0 0.127878)
(0.0839986 0 0.127932)
(0.085626 0 0.109696)
(0.0857364 0 0.112783)
(0.0857154 0 0.11557)
(0.0855848 0 0.118019)
(0.0853662 0 0.1201)
(0.0850811 0 0.121787)
(0.08475 0 0.123059)
(0.0843923 0 0.123906)
(0.084025 0 0.124329)
(0.0837052 0 0.12436)
(0.0846771 0 0.107632)
(0.0848365 0 0.110447)
(0.0848733 0 0.112964)
(0.0848083 0 0.115155)
(0.0846609 0 0.117)
(0.0844499 0 0.11848)
(0.0841929 0 0.119587)
(0.0839058 0 0.120316)
(0.0836023 0 0.120671)
(0.0833306 0 0.120687)
(0.0837287 0 0.10518)
(0.0839355 0 0.107752)
(0.0840263 0 0.110033)
(0.0840204 0 0.112003)
(0.0839354 0 0.113649)
(0.0837879 0 0.11496)
(0.083593 0 0.115932)
(0.0833642 0 0.116567)
(0.0831129 0 0.116871)
(0.0828805 0 0.116878)
(0.0823924 0 0.0997362)
(0.0827758 0 0.102353)
(0.0830276 0 0.104708)
(0.0831682 0 0.106782)
(0.0832151 0 0.108561)
(0.0831847 0 0.110039)
(0.0830916 0 0.111209)
(0.0829492 0 0.112071)
(0.0827691 0 0.11263)
(0.0825609 0 0.112895)
(0.0823609 0 0.112897)
(0.0813958 0 0.0967404)
(0.0818164 0 0.0991559)
(0.0821102 0 0.101316)
(0.082296 0 0.103207)
(0.0823901 0 0.104821)
(0.0824073 0 0.106155)
(0.0823611 0 0.107206)
(0.0822632 0 0.107977)
(0.082124 0 0.108474)
(0.0819518 0 0.108708)
(0.0817788 0 0.108708)
(0.0803949 0 0.0933525)
(0.0808507 0 0.0955828)
(0.0811832 0 0.0975668)
(0.0814097 0 0.0992959)
(0.0815455 0 0.100766)
(0.0816044 0 0.101975)
(0.0815986 0 0.102924)
(0.0815387 0 0.103619)
(0.081434 0 0.104065)
(0.0812922 0 0.104275)
(0.0811419 0 0.104274)
(0.0793922 0 0.0895632)
(0.0798808 0 0.0916223)
(0.0802484 0 0.0934465)
(0.0805115 0 0.0950302)
(0.0806843 0 0.0963717)
(0.0807796 0 0.0974717)
(0.0808086 0 0.0983332)
(0.0807813 0 0.0989619)
(0.080706 0 0.0993658)
(0.0805899 0 0.099555)
(0.0804588 0 0.0995547)
(0.0783919 0 0.0853571)
(0.0789107 0 0.0872561)
(0.0793102 0 0.088933)
(0.0796059 0 0.0903843)
(0.0798113 0 0.0916102)
(0.0799384 0 0.092613)
(0.0799976 0 0.093397)
(0.0799983 0 0.0939684)
(0.0799482 0 0.0943355)
(0.0798539 0 0.0945081)
(0.0797392 0 0.0945093)
(0.0774001 0 0.0807118)
(0.0779466 0 0.0824591)
(0.0783748 0 0.0839979)
(0.0786996 0 0.0853265)
(0.0789338 0 0.0864465)
(0.0790886 0 0.087361)
(0.0791741 0 0.0880751)
(0.0791988 0 0.0885955)
(0.0791703 0 0.0889302)
(0.0790948 0 0.0890888)
(0.078994 0 0.0890919)
(0.0764252 0 0.0755983)
(0.0769966 0 0.0771992)
(0.0774507 0 0.0786063)
(0.0778013 0 0.079819)
(0.0780608 0 0.0808396)
(0.07824 0 0.0816721)
(0.0783482 0 0.0823219)
(0.0783937 0 0.0827955)
(0.0783837 0 0.083101)
(0.0783242 0 0.0832472)
(0.0782354 0 0.0832527)
(0.0754773 0 0.0699802)
(0.0760713 0 0.0714373)
(0.0765484 0 0.0727161)
(0.0769219 0 0.0738167)
(0.0772037 0 0.0747421)
(0.077404 0 0.0754964)
(0.0775319 0 0.0760853)
(0.0775954 0 0.076515)
(0.0776013 0 0.0767932)
(0.0775555 0 0.0769279)
(0.0774769 0 0.076936)
(0.0745689 0 0.0638139)
(0.0751831 0 0.0651267)
(0.0756806 0 0.0662777)
(0.0760743 0 0.0672674)
(0.0763755 0 0.0680991)
(0.0765942 0 0.0687771)
(0.0767391 0 0.0693065)
(0.076818 0 0.0696936)
(0.0768375 0 0.0699453)
(0.0768035 0 0.0700691)
(0.0767336 0 0.0700796)
(0.0737145 0 0.0570477)
(0.0743466 0 0.0582127)
(0.074862 0 0.0592335)
(0.0752732 0 0.0601109)
(0.0755913 0 0.060848)
(0.0758258 0 0.0614489)
(0.0759854 0 0.0619186)
(0.0760774 0 0.0622629)
(0.0761085 0 0.0624879)
(0.0760844 0 0.0626006)
(0.0760219 0 0.0626133)
(0.0729308 0 0.0496212)
(0.0735784 0 0.0506316)
(0.0741094 0 0.0515167)
(0.0745358 0 0.0522773)
(0.0748683 0 0.0529163)
(0.0751163 0 0.0534376)
(0.0752882 0 0.0538455)
(0.0753914 0 0.0541452)
(0.0754322 0 0.0543423)
(0.0754164 0 0.0544428)
(0.07536 0 0.0544573)
(0.0722366 0 0.0414642)
(0.0728976 0 0.0423097)
(0.0734417 0 0.0430503)
(0.0738809 0 0.0436867)
(0.0742255 0 0.0442216)
(0.0744848 0 0.0446582)
(0.0746669 0 0.0450003)
(0.0747792 0 0.045252)
(0.074828 0 0.0454183)
(0.0748189 0 0.0455043)
(0.0747674 0 0.0455185)
(0.0716532 0 0.0324959)
(0.072325 0 0.0331621)
(0.0728799 0 0.0337457)
(0.0733295 0 0.0342474)
(0.0736838 0 0.0346692)
(0.0739522 0 0.0350137)
(0.0741425 0 0.0352839)
(0.0742621 0 0.0354829)
(0.0743171 0 0.0356146)
(0.0743132 0 0.0356826)
(0.0742653 0 0.0356936)
(0.0712039 0 0.0226233)
(0.0718841 0 0.0230912)
(0.0724472 0 0.0235013)
(0.0729045 0 0.023854)
(0.0732662 0 0.0241507)
(0.0735413 0 0.0243932)
(0.0737377 0 0.0245834)
(0.0738626 0 0.0247237)
(0.0739222 0 0.0248164)
(0.0739221 0 0.0248641)
(0.0738769 0 0.0248713)
(0.0709143 0 0.0117346)
(0.0715999 0 0.0119796)
(0.0721683 0 0.0121945)
(0.0726306 0 0.0123795)
(0.072997 0 0.0125351)
(0.0732764 0 0.0126624)
(0.0734767 0 0.0127623)
(0.073605 0 0.012836)
(0.0736674 0 0.0128848)
(0.0736696 0 0.0129099)
(0.0736261 0 0.0129137)
(0.0708127 0 0)
(0.0715002 0 0)
(0.0720704 0 0)
(0.0725346 0 0)
(0.0729026 0 0)
(0.0731835 0 0)
(0.0733852 0 0)
(0.0735146 0 0)
(0.073578 0 0)
(0.0735811 0 0)
(0.0735381 0 0)
(0.0839041 0 0.138192)
(0.0839622 0 0.134703)
(0.0836945 0 0.134356)
(0.0833858 0 0.133699)
(0.0839041 0 0.131237)
(0.0836756 0 0.130932)
(0.0834056 0 0.130368)
(0.083742 0 0.127746)
(0.0835437 0 0.127477)
(0.083304 0 0.126988)
(0.0834841 0 0.124191)
(0.08331 0 0.123953)
(0.083095 0 0.123525)
(0.0831382 0 0.120533)
(0.0829836 0 0.120322)
(0.0827888 0 0.119945)
(0.0827114 0 0.116738)
(0.0825729 0 0.11655)
(0.0823948 0 0.116216)
(0.0822112 0 0.112771)
(0.0820861 0 0.112602)
(0.0819221 0 0.112305)
(0.0816452 0 0.108594)
(0.0815314 0 0.108443)
(0.0813794 0 0.108178)
(0.0810219 0 0.104171)
(0.0809176 0 0.104036)
(0.0807758 0 0.103799)
(0.0803504 0 0.0994624)
(0.0802542 0 0.0993416)
(0.0801211 0 0.0991302)
(0.0796406 0 0.094427)
(0.0795513 0 0.0943191)
(0.0794259 0 0.0941302)
(0.0789038 0 0.0890191)
(0.0788205 0 0.0889231)
(0.0787016 0 0.0887547)
(0.0781524 0 0.0831887)
(0.0780742 0 0.0831039)
(0.0779611 0 0.0829545)
(0.0774001 0 0.0768807)
(0.0773264 0 0.0768065)
(0.0772182 0 0.076675)
(0.076662 0 0.0700327)
(0.0765921 0 0.0699688)
(0.0764883 0 0.0698546)
(0.0759548 0 0.0625747)
(0.0758882 0 0.0625207)
(0.075788 0 0.0624235)
(0.0752966 0 0.0544268)
(0.0752326 0 0.0543823)
(0.0751353 0 0.0542994)
(0.0747068 0 0.0454946)
(0.0746447 0 0.0454581)
(0.0745493 0 0.045387)
(0.0742069 0 0.035674)
(0.0741461 0 0.0356444)
(0.0740523 0 0.0355882)
(0.0738199 0 0.0248566)
(0.0737602 0 0.0248355)
(0.0736678 0 0.0247968)
(0.0735701 0 0.012906)
(0.0735112 0 0.012895)
(0.0734196 0 0.0128748)
(0.0734825 0 0)
(0.0734238 0 0)
(0.0733326 0 0)
(0.0839041 0 0.138192)
(0.0839622 0 0.134703)
(0.0836945 0 0.134356)
(0.0833858 0 0.133699)
(0.0839041 0 0.131237)
(0.0836756 0 0.130932)
(0.0834056 0 0.130368)
(0.083742 0 0.127746)
(0.0835437 0 0.127477)
(0.083304 0 0.126988)
(0.0834841 0 0.124191)
(0.08331 0 0.123953)
(0.083095 0 0.123525)
(0.0831382 0 0.120533)
(0.0829836 0 0.120322)
(0.0827888 0 0.119945)
(0.0827114 0 0.116738)
(0.0825729 0 0.11655)
(0.0823948 0 0.116216)
(0.0822112 0 0.112771)
(0.0820861 0 0.112602)
(0.0819221 0 0.112305)
(0.0816452 0 0.108594)
(0.0815314 0 0.108443)
(0.0813794 0 0.108178)
(0.0810219 0 0.104171)
(0.0809176 0 0.104036)
(0.0807758 0 0.103799)
(0.0803504 0 0.0994624)
(0.0802542 0 0.0993416)
(0.0801211 0 0.0991302)
(0.0796406 0 0.094427)
(0.0795513 0 0.0943191)
(0.0794259 0 0.0941302)
(0.0789038 0 0.0890191)
(0.0788205 0 0.0889231)
(0.0787016 0 0.0887547)
(0.0781524 0 0.0831887)
(0.0780742 0 0.0831039)
(0.0779611 0 0.0829545)
(0.0774001 0 0.0768807)
(0.0773264 0 0.0768065)
(0.0772182 0 0.076675)
(0.076662 0 0.0700327)
(0.0765921 0 0.0699688)
(0.0764883 0 0.0698546)
(0.0759548 0 0.0625747)
(0.0758882 0 0.0625207)
(0.075788 0 0.0624235)
(0.0752966 0 0.0544268)
(0.0752326 0 0.0543823)
(0.0751353 0 0.0542994)
(0.0747068 0 0.0454946)
(0.0746447 0 0.0454581)
(0.0745493 0 0.045387)
(0.0742069 0 0.035674)
(0.0741461 0 0.0356444)
(0.0740523 0 0.0355882)
(0.0738199 0 0.0248566)
(0.0737602 0 0.0248355)
(0.0736678 0 0.0247968)
(0.0735701 0 0.012906)
(0.0735112 0 0.012895)
(0.0734196 0 0.0128748)
(0.0734825 0 0)
(0.0734238 0 0)
(0.0733326 0 0)
(0.083009 0 0.132307)
(0.0830598 0 0.129185)
(0.0827212 0 0.127312)
(0.0824413 0 0.124896)
(0.0822108 0 0.121978)
(0.0829846 0 0.125971)
(0.0826517 0 0.124364)
(0.0823516 0 0.122285)
(0.0820781 0 0.11976)
(0.0818184 0 0.116827)
(0.0815542 0 0.113537)
(0.082798 0 0.122641)
(0.0824725 0 0.121248)
(0.0821601 0 0.119441)
(0.0818563 0 0.117236)
(0.0815511 0 0.114655)
(0.0812302 0 0.111729)
(0.0808766 0 0.108509)
(0.0804704 0 0.105049)
(0.0825111 0 0.119171)
(0.0821938 0 0.117951)
(0.0818743 0 0.116367)
(0.0815489 0 0.114425)
(0.081209 0 0.112138)
(0.0808434 0 0.109525)
(0.0804384 0 0.106623)
(0.0799769 0 0.103472)
(0.0794383 0 0.100112)
(0.0821337 0 0.115534)
(0.0818247 0 0.114457)
(0.0815015 0 0.113057)
(0.0811605 0 0.111334)
(0.0807947 0 0.109294)
(0.0803943 0 0.106952)
(0.0799472 0 0.10433)
(0.0794392 0 0.101456)
(0.0788525 0 0.0983656)
(0.0816753 0 0.1117)
(0.0813742 0 0.110744)
(0.0810496 0 0.109498)
(0.0806977 0 0.10796)
(0.0803124 0 0.106134)
(0.0798846 0 0.104026)
(0.0794032 0 0.101646)
(0.0788563 0 0.0990202)
(0.0782287 0 0.0961759)
(0.081145 0 0.107639)
(0.0808514 0 0.106786)
(0.0805268 0 0.105672)
(0.0801674 0 0.104294)
(0.0797671 0 0.102652)
(0.079317 0 0.100743)
(0.0788076 0 0.0985763)
(0.0782288 0 0.0961741)
(0.0775666 0 0.0935558)
(0.0805523 0 0.103317)
(0.0802657 0 0.102553)
(0.0799419 0 0.101553)
(0.079577 0 0.100313)
(0.0791647 0 0.0988279)
(0.0786966 0 0.0970935)
(0.0781646 0 0.0951192)
(0.0775597 0 0.09292)
(0.0768684 0 0.0905099)
(0.0799071 0 0.0986978)
(0.0796268 0 0.0980119)
(0.0793043 0 0.0971117)
(0.0789354 0 0.0959916)
(0.0785136 0 0.0946448)
(0.0780312 0 0.0930673)
(0.077481 0 0.0912665)
(0.0768543 0 0.0892522)
(0.0761386 0 0.0870348)
(0.0792202 0 0.0937427)
(0.0789457 0 0.0931261)
(0.0786248 0 0.0923149)
(0.0782531 0 0.091303)
(0.077824 0 0.0900807)
(0.0773299 0 0.0886441)
(0.0767647 0 0.0870005)
(0.0761198 0 0.0851562)
(0.0753835 0 0.0831187)
(0.0785033 0 0.088408)
(0.0782341 0 0.0878543)
(0.0779151 0 0.0871239)
(0.0775413 0 0.0862097)
(0.0771058 0 0.0850998)
(0.0766023 0 0.0837921)
(0.0760248 0 0.0822946)
(0.075365 0 0.0806095)
(0.0746115 0 0.0787423)
(0.0777692 0 0.0826455)
(0.0775048 0 0.0821498)
(0.0771876 0 0.0814939)
(0.0768118 0 0.0806668)
(0.076371 0 0.0796596)
(0.0758599 0 0.0784746)
(0.0752726 0 0.0771155)
(0.0746003 0 0.0755821)
(0.0738324 0 0.0738787)
(0.077032 0 0.0764017)
(0.076772 0 0.0759612)
(0.076456 0 0.0753734)
(0.0760782 0 0.0746259)
(0.0756332 0 0.0737166)
(0.0751164 0 0.0726495)
(0.074521 0 0.0714234)
(0.0738383 0 0.0700371)
(0.0730583 0 0.0684938)
(0.0763071 0 0.0696157)
(0.0760505 0 0.0692259)
(0.0757349 0 0.0686987)
(0.0753554 0 0.0680287)
(0.0749078 0 0.0672178)
(0.0743865 0 0.066266)
(0.0737843 0 0.0651704)
(0.073093 0 0.0639297)
(0.0723029 0 0.0625458)
(0.0756107 0 0.0622156)
(0.0753562 0 0.0618695)
(0.0750409 0 0.0614016)
(0.074661 0 0.0608126)
(0.0742115 0 0.0601016)
(0.0736865 0 0.0592652)
(0.0730788 0 0.0583008)
(0.0723803 0 0.0572068)
(0.0715815 0 0.0559848)
(0.0749606 0 0.0541175)
(0.0747078 0 0.0538154)
(0.0743936 0 0.0534129)
(0.0740137 0 0.0529085)
(0.0735627 0 0.0522984)
(0.0730345 0 0.0515795)
(0.0724221 0 0.0507495)
(0.0717176 0 0.0498066)
(0.0709117 0 0.0487521)
(0.0743769 0 0.0452331)
(0.0741262 0 0.0449825)
(0.0738133 0 0.0446505)
(0.0734334 0 0.0442333)
(0.0729811 0 0.0437277)
(0.0724503 0 0.0431312)
(0.071834 0 0.0424415)
(0.0711243 0 0.0416573)
(0.0703124 0 0.0407793)
(0.073882 0 0.0354689)
(0.0736333 0 0.0352751)
(0.0733213 0 0.0350171)
(0.0729414 0 0.0346918)
(0.0724879 0 0.034297)
(0.0719548 0 0.0338304)
(0.0713353 0 0.0332905)
(0.0706215 0 0.032676)
(0.0698046 0 0.0319876)
(0.0734992 0 0.0247149)
(0.0732518 0 0.0245809)
(0.0729404 0 0.0244017)
(0.0725602 0 0.0241753)
(0.0721058 0 0.0238999)
(0.071571 0 0.0235743)
(0.0709489 0 0.0231971)
(0.0702319 0 0.0227676)
(0.0694112 0 0.0222862)
(0.073252 0 0.0128323)
(0.0730053 0 0.0127627)
(0.0726943 0 0.0126695)
(0.0723139 0 0.0125516)
(0.0718587 0 0.0124081)
(0.0713227 0 0.0122383)
(0.0706989 0 0.0120415)
(0.0699797 0 0.0118174)
(0.0691564 0 0.0115661)
(0.0731652 0 0)
(0.0729188 0 0)
(0.0726078 0 0)
(0.0722273 0 0)
(0.0717719 0 0)
(0.0712354 0 0)
(0.0706109 0 0)
(0.0698909 0 0)
(0.0690667 0 0)
(0.083009 0 0.132307)
(0.0830598 0 0.129185)
(0.0827212 0 0.127312)
(0.0824413 0 0.124896)
(0.0822108 0 0.121978)
(0.0829846 0 0.125971)
(0.0826517 0 0.124364)
(0.0823516 0 0.122285)
(0.0820781 0 0.11976)
(0.0818184 0 0.116827)
(0.0815542 0 0.113537)
(0.082798 0 0.122641)
(0.0824725 0 0.121248)
(0.0821601 0 0.119441)
(0.0818563 0 0.117236)
(0.0815511 0 0.114655)
(0.0812302 0 0.111729)
(0.0808766 0 0.108509)
(0.0804704 0 0.105049)
(0.0825111 0 0.119171)
(0.0821938 0 0.117951)
(0.0818743 0 0.116367)
(0.0815489 0 0.114425)
(0.081209 0 0.112138)
(0.0808434 0 0.109525)
(0.0804384 0 0.106623)
(0.0799769 0 0.103472)
(0.0794383 0 0.100112)
(0.0821337 0 0.115534)
(0.0818247 0 0.114457)
(0.0815015 0 0.113057)
(0.0811605 0 0.111334)
(0.0807947 0 0.109294)
(0.0803943 0 0.106952)
(0.0799472 0 0.10433)
(0.0794392 0 0.101456)
(0.0788525 0 0.0983656)
(0.0816753 0 0.1117)
(0.0813742 0 0.110744)
(0.0810496 0 0.109498)
(0.0806977 0 0.10796)
(0.0803124 0 0.106134)
(0.0798846 0 0.104026)
(0.0794032 0 0.101646)
(0.0788563 0 0.0990202)
(0.0782287 0 0.0961759)
(0.081145 0 0.107639)
(0.0808514 0 0.106786)
(0.0805268 0 0.105672)
(0.0801674 0 0.104294)
(0.0797671 0 0.102652)
(0.079317 0 0.100743)
(0.0788076 0 0.0985763)
(0.0782288 0 0.0961741)
(0.0775666 0 0.0935558)
(0.0805523 0 0.103317)
(0.0802657 0 0.102553)
(0.0799419 0 0.101553)
(0.079577 0 0.100313)
(0.0791647 0 0.0988279)
(0.0786966 0 0.0970935)
(0.0781646 0 0.0951192)
(0.0775597 0 0.09292)
(0.0768684 0 0.0905099)
(0.0799071 0 0.0986978)
(0.0796268 0 0.0980119)
(0.0793043 0 0.0971117)
(0.0789354 0 0.0959916)
(0.0785136 0 0.0946448)
(0.0780312 0 0.0930673)
(0.077481 0 0.0912665)
(0.0768543 0 0.0892522)
(0.0761386 0 0.0870348)
(0.0792202 0 0.0937427)
(0.0789457 0 0.0931261)
(0.0786248 0 0.0923149)
(0.0782531 0 0.091303)
(0.077824 0 0.0900807)
(0.0773299 0 0.0886441)
(0.0767647 0 0.0870005)
(0.0761198 0 0.0851562)
(0.0753835 0 0.0831187)
(0.0785033 0 0.088408)
(0.0782341 0 0.0878543)
(0.0779151 0 0.0871239)
(0.0775413 0 0.0862097)
(0.0771058 0 0.0850998)
(0.0766023 0 0.0837921)
(0.0760248 0 0.0822946)
(0.075365 0 0.0806095)
(0.0746115 0 0.0787423)
(0.0777692 0 0.0826455)
(0.0775048 0 0.0821498)
(0.0771876 0 0.0814939)
(0.0768118 0 0.0806668)
(0.076371 0 0.0796596)
(0.0758599 0 0.0784746)
(0.0752726 0 0.0771155)
(0.0746003 0 0.0755821)
(0.0738324 0 0.0738787)
(0.077032 0 0.0764017)
(0.076772 0 0.0759612)
(0.076456 0 0.0753734)
(0.0760782 0 0.0746259)
(0.0756332 0 0.0737166)
(0.0751164 0 0.0726495)
(0.074521 0 0.0714234)
(0.0738383 0 0.0700371)
(0.0730583 0 0.0684938)
(0.0763071 0 0.0696157)
(0.0760505 0 0.0692259)
(0.0757349 0 0.0686987)
(0.0753554 0 0.0680287)
(0.0749078 0 0.0672178)
(0.0743865 0 0.066266)
(0.0737843 0 0.0651704)
(0.073093 0 0.0639297)
(0.0723029 0 0.0625458)
(0.0756107 0 0.0622156)
(0.0753562 0 0.0618695)
(0.0750409 0 0.0614016)
(0.074661 0 0.0608126)
(0.0742115 0 0.0601016)
(0.0736865 0 0.0592652)
(0.0730788 0 0.0583008)
(0.0723803 0 0.0572068)
(0.0715815 0 0.0559848)
(0.0749606 0 0.0541175)
(0.0747078 0 0.0538154)
(0.0743936 0 0.0534129)
(0.0740137 0 0.0529085)
(0.0735627 0 0.0522984)
(0.0730345 0 0.0515795)
(0.0724221 0 0.0507495)
(0.0717176 0 0.0498066)
(0.0709117 0 0.0487521)
(0.0743769 0 0.0452331)
(0.0741262 0 0.0449825)
(0.0738133 0 0.0446505)
(0.0734334 0 0.0442333)
(0.0729811 0 0.0437277)
(0.0724503 0 0.0431312)
(0.071834 0 0.0424415)
(0.0711243 0 0.0416573)
(0.0703124 0 0.0407793)
(0.073882 0 0.0354689)
(0.0736333 0 0.0352751)
(0.0733213 0 0.0350171)
(0.0729414 0 0.0346918)
(0.0724879 0 0.034297)
(0.0719548 0 0.0338304)
(0.0713353 0 0.0332905)
(0.0706215 0 0.032676)
(0.0698046 0 0.0319876)
(0.0734992 0 0.0247149)
(0.0732518 0 0.0245809)
(0.0729404 0 0.0244017)
(0.0725602 0 0.0241753)
(0.0721058 0 0.0238999)
(0.071571 0 0.0235743)
(0.0709489 0 0.0231971)
(0.0702319 0 0.0227676)
(0.0694112 0 0.0222862)
(0.073252 0 0.0128323)
(0.0730053 0 0.0127627)
(0.0726943 0 0.0126695)
(0.0723139 0 0.0125516)
(0.0718587 0 0.0124081)
(0.0713227 0 0.0122383)
(0.0706989 0 0.0120415)
(0.0699797 0 0.0118174)
(0.0691564 0 0.0115661)
(0.0731652 0 0)
(0.0729188 0 0)
(0.0726078 0 0)
(0.0722273 0 0)
(0.0717719 0 0)
(0.0712354 0 0)
(0.0706109 0 0)
(0.0698909 0 0)
(0.0690667 0 0)
)
;

boundaryField
{
    inlet
    {
        type            fixedValue;
        value           nonuniform 0();
    }
    outlet
    {
        type            fixedValue;
        value           nonuniform 0();
    }
    flap
    {
        type            fixedValue;
        value           nonuniform 0();
    }
    upperWall
    {
        type            slip;
    }
    lowerWall
    {
        type            slip;
    }
    frontAndBack
    {
        type            empty;
    }
    procBoundary1to0
    {
        type            processor;
    }
    procBoundary1to2
    {
        type            processor;
    }
    procBoundary1to3
    {
        type            processor;
    }
    procBoundary1to4
    {
        type            processor;
    }
}


// ************************************************************************* //
