/*--------------------------------*- C++ -*----------------------------------*\
| =========                 |                                                 |
| \\      /  F ield         | OpenFOAM: The Open Source CFD Toolbox           |
|  \\    /   O peration     | Version:  dev                                   |
|   \\  /    A nd           | Web:      www.OpenFOAM.org                      |
|    \\/     M anipulation  |                                                 |
\*---------------------------------------------------------------------------*/
FoamFile
{
    version     2.0;
    format      ascii;
    class       volVectorField;
    location    "0.52";
    object      U;
}
// * * * * * * * * * * * * * * * * * * * * * * * * * * * * * * * * * * * * * //

dimensions      [0 1 -1 0 0 0 0];

internalField   nonuniform List<vector> 
465
(
(9.66974 3.00793e-20 5.38059)
(10.0282 -2.8001e-20 5.28813)
(10.1609 1.37163e-21 5.73833)
(10.3344 -2.41073e-20 6.21201)
(10.3587 -2.72292e-20 5.15921)
(10.5232 1.27009e-20 5.56942)
(10.7268 -3.57776e-20 5.99419)
(10.9759 6.07183e-20 6.42924)
(11.2766 0 6.86827)
(10.6585 -5.10723e-20 4.99987)
(10.8466 -5.20326e-22 5.37019)
(11.0709 -5.12682e-22 5.74792)
(11.3358 5.35814e-21 6.12846)
(11.6448 3.81493e-20 6.50573)
(12.0008 -3.86861e-20 6.87211)
(12.4052 0 7.21832)
(10.9262 0 4.81582)
(11.1309 -4.55439e-22 5.14758)
(11.3683 -1.11134e-20 5.48129)
(11.6411 -1.02747e-20 5.81252)
(11.9512 0 6.13589)
(12.2997 5.48197e-22 6.44511)
(12.6867 0 6.73319)
(13.1052 -6.44321e-21 6.9928)
(13.6075 0 7.21769)
(11.1615 -4.31511e-20 4.61225)
(11.377 8.50052e-20 4.90755)
(11.6215 -8.1671e-20 5.2008)
(11.8963 4.50403e-20 5.48795)
(12.2024 -3.41091e-20 5.7644)
(12.5397 6.54239e-20 6.02506)
(12.9073 -3.12513e-20 6.26454)
(13.2989 6.31643e-21 6.47738)
(13.7612 0 6.65997)
(11.3651 0 4.39372)
(11.5866 -3.45748e-22 4.65512)
(11.8334 0 4.91159)
(12.106 -3.28256e-20 5.15961)
(12.4044 3.46028e-20 5.39531)
(12.728 -6.06844e-23 5.61462)
(13.0755 2.71762e-20 5.81344)
(13.4412 -5.5151e-21 5.98776)
(13.8669 -2.30937e-20 6.13544)
(11.5381 3.85369e-20 4.16422)
(11.7619 2.05664e-20 4.39445)
(12.0073 -1.46303e-19 4.6178)
(12.2745 3.01443e-21 4.83127)
(12.5628 6.74851e-21 5.03168)
(12.8714 6.25395e-21 5.21581)
(13.1985 5.70993e-20 5.38057)
(13.5395 -5.12358e-24 5.52302)
(13.9318 0 5.64187)
(11.6823 -5.70106e-21 3.92713)
(11.9052 7.90728e-20 4.12898)
(12.1466 6.7404e-20 4.32272)
(12.406 -6.85816e-20 4.50582)
(12.6827 0 4.67573)
(12.9755 0 4.82993)
(13.2827 4.14699e-22 4.96607)
(13.6001 -4.33048e-20 5.08202)
(13.9618 4.55377e-20 5.17703)
(11.7996 9.04936e-21 3.68533)
(12.0194 0 3.86153)
(12.2547 -6.02735e-20 4.02893)
(12.5048 1.26687e-19 4.18545)
(12.7689 -6.22334e-20 4.32904)
(13.0456 0 4.45774)
(13.3333 -4.06474e-22 4.56981)
(13.6286 0 4.66369)
(13.9621 3.82091e-20 4.73899)
(11.8923 -6.95432e-20 3.44121)
(12.1071 -4.08005e-21 3.59438)
(12.3349 -8.66807e-23 3.73846)
(12.5747 0 3.87177)
(12.8256 0 3.99268)
(13.0864 -5.20378e-20 4.0997)
(13.3555 1.01045e-19 4.19151)
(13.6299 -4.97622e-20 4.26701)
(13.9374 -1.15989e-23 4.32605)
(11.7654 0 3.05652)
(11.9628 0 3.19675)
(12.1714 -6.1429e-20 3.32933)
(12.3906 5.88007e-20 3.45285)
(12.6195 0 3.56595)
(12.8572 0 3.66737)
(13.1023 -5.02708e-20 3.75596)
(13.3536 5.16815e-20 3.83075)
(13.6085 -4.33642e-20 3.89096)
(13.8921 6.35104e-21 3.93662)
(11.8215 6.49638e-20 2.8316)
(12.0136 5.70105e-20 2.95352)
(12.2151 4.62249e-21 3.06778)
(12.4251 -1.1355e-19 3.17324)
(12.6429 5.63207e-20 3.26881)
(12.8674 0 3.3535)
(13.0975 -4.0255e-22 3.42646)
(13.3319 0 3.48698)
(13.5685 5.30773e-22 3.53452)
(13.8302 -6.52499e-22 3.56923)
(11.8612 -6.22681e-20 2.60725)
(12.0473 -5.83905e-20 2.71275)
(12.241 5.59068e-20 2.81078)
(12.4416 -3.56024e-21 2.90042)
(12.6482 1.71589e-21 2.98081)
(12.8599 -5.06986e-20 3.0512)
(13.0756 5.16372e-20 3.11094)
(13.2942 0 3.15954)
(13.5139 -1.74128e-22 3.19664)
(13.7554 3.29124e-22 3.22245)
(11.8868 3.63911e-21 2.38452)
(12.0663 3.6259e-21 2.47536)
(12.252 5.47877e-20 2.55906)
(12.4431 -5.58399e-20 2.63488)
(12.6388 0 2.70217)
(12.8382 -4.93177e-20 2.76036)
(13.0403 3.07905e-21 2.80897)
(13.2441 4.80412e-20 2.84766)
(13.4481 -8.63329e-23 2.8762)
(13.6713 -3.22658e-22 2.89485)
(11.9003 -5.89515e-20 2.1642)
(12.0731 5.64837e-20 2.24196)
(12.2508 -3.36224e-21 2.31304)
(12.4326 5.14291e-20 2.37684)
(12.6178 -2.61907e-21 2.43286)
(12.8055 -5.07503e-20 2.48067)
(12.9949 -4.53744e-20 2.51994)
(13.1851 4.69848e-20 2.55044)
(13.3747 6.33377e-23 2.57204)
(13.5812 3.93945e-20 2.58501)
(11.9041 -5.34129e-20 1.94676)
(12.0701 5.44751e-20 2.01292)
(12.2399 3.90882e-23 2.0729)
(12.4128 4.98444e-20 2.12625)
(12.588 -9.92003e-20 2.1726)
(12.7648 4.93208e-20 2.21162)
(12.9424 -7.2661e-22 2.2431)
(13.1201 -3.49054e-22 2.26688)
(13.2966 2.08357e-23 2.2829)
(13.488 -1.60225e-22 2.29145)
(11.9002 0 1.73251)
(12.0596 0 1.78836)
(12.2218 3.18211e-21 1.8386)
(12.3862 -1.53987e-21 1.88289)
(12.5521 0 1.92096)
(12.7189 0 1.95256)
(12.8857 4.41409e-20 1.97756)
(13.052 -8.71841e-20 1.99587)
(13.2167 4.33083e-20 2.00748)
(13.3946 1.56982e-22 2.01267)
(11.8906 -5.1677e-20 1.52142)
(12.0436 4.90313e-20 1.5681)
(12.1987 -5.00127e-20 1.60979)
(12.3553 1.50703e-21 1.64622)
(12.5127 0 1.6772)
(12.6703 0 1.70256)
(12.8274 -4.31972e-20 1.72221)
(12.9835 4.40331e-20 1.73612)
(13.1376 4.0305e-20 1.74429)
(13.3036 -4.11133e-20 1.74699)
(11.8771 -9.83414e-20 1.31347)
(12.0242 1.7649e-21 1.352)
(12.1728 4.84988e-20 1.38617)
(12.3222 0 1.41579)
(12.4719 -4.46319e-20 1.4407)
(12.6213 4.55122e-20 1.46082)
(12.7698 -3.3828e-22 1.47607)
(12.9168 0 1.48646)
(13.0617 0 1.49202)
(13.2172 7.65482e-23 1.49299)
(11.8615 4.68695e-20 1.1079)
(12.0033 -9.25132e-20 1.13913)
(12.146 9.24377e-20 1.16666)
(12.2891 -4.62623e-20 1.19033)
(12.432 -4.28133e-20 1.21005)
(12.5742 4.43694e-20 1.22575)
(12.7151 -4.07109e-20 1.23739)
(12.8543 4.21836e-20 1.245)
(12.9912 0 1.24862)
(13.1376 0 1.24846)
(11.8454 -9.40045e-20 0.905003)
(11.9825 4.50163e-20 0.929665)
(12.1201 1.40181e-21 0.951274)
(12.2576 4.33139e-20 0.969732)
(12.3947 -8.7296e-20 0.984965)
(12.5307 4.32808e-20 0.996936)
(12.6651 4.01639e-20 1.00563)
(12.7977 -4.12848e-20 1.01108)
(12.9278 0 1.01333)
(13.0666 0 1.01255)
(11.8303 1.41063e-21 0.702335)
(11.9634 0 0.72101)
(12.0967 -1.37097e-21 0.737291)
(12.2297 0 0.75111)
(12.3619 4.20674e-20 0.76242)
(12.4928 -4.25595e-20 0.7712)
(12.622 0 0.777449)
(12.7491 0 0.781189)
(12.8736 -1.50605e-22 0.782464)
(13.0063 0 0.781419)
(11.8176 -4.38122e-20 0.502111)
(11.9475 0 0.515243)
(12.0773 4.18853e-20 0.526655)
(12.2067 -4.27367e-20 0.536303)
(12.335 -6.44969e-22 0.544157)
(12.4618 3.99356e-20 0.550206)
(12.5869 -4.04095e-20 0.554453)
(12.7097 0 0.556918)
(12.8299 2.21103e-22 0.557633)
(12.9577 0 0.556709)
(11.8084 2.03327e-20 0.297728)
(11.9359 -4.21656e-20 0.30556)
(12.0633 2.11564e-20 0.312337)
(12.1899 0 0.318035)
(12.3155 1.57252e-22 0.322641)
(12.4394 1.93587e-20 0.326152)
(12.5615 -3.86966e-20 0.328575)
(12.6813 3.78494e-20 0.329928)
(12.7985 -1.89237e-20 0.330237)
(12.9229 0 0.329586)
(11.614 0 0.0974674)
(11.7357 1.01441e-20 0.100317)
(11.8573 -2.03543e-20 0.102793)
(11.9784 3.62509e-22 0.104887)
(12.0985 2.17245e-22 0.106591)
(12.2171 1.93567e-20 0.107903)
(12.334 -9.67947e-21 0.108826)
(12.4486 9.08839e-21 0.109364)
(12.5608 -9.30425e-21 0.109525)
(12.6799 0 0.109348)
(13.8938 -1.77869e-21 7.30634)
(14.0229 2.67074e-21 6.73185)
(14.2734 -7.68986e-22 6.79303)
(14.4866 -1.69244e-20 6.84427)
(14.1065 5.06743e-23 6.19314)
(14.3356 -2.25286e-20 6.24171)
(14.5304 2.31934e-20 6.282)
(14.1514 -5.96703e-20 5.68768)
(14.361 5.79653e-20 5.72556)
(14.5391 0 5.7563)
(14.1632 9.67504e-22 5.21295)
(14.3552 -5.33435e-20 5.24193)
(14.5182 5.27585e-20 5.26469)
(14.147 -6.69726e-20 4.76674)
(14.323 0 4.78838)
(14.4724 0 4.80456)
(14.1073 -6.31201e-20 4.34707)
(14.2688 5.17597e-21 4.36269)
(14.4058 5.7134e-20 4.37352)
(14.0483 6.79819e-20 3.95213)
(14.1966 0 3.96288)
(14.3222 0 3.96939)
(13.9739 5.13554e-22 3.58027)
(14.1101 6.01235e-20 3.58711)
(14.2255 -6.04695e-20 3.59023)
(13.8877 -6.49144e-20 3.22991)
(14.0129 6.47818e-20 3.23367)
(14.119 6.89728e-22 3.23416)
(13.7932 0 2.89949)
(13.9085 -6.2026e-20 2.90088)
(14.006 6.14492e-20 2.89941)
(13.6937 -1.33886e-19 2.58748)
(13.8 3.25928e-21 2.58711)
(13.8899 2.52841e-21 2.58423)
(13.5921 -1.31329e-22 2.29229)
(13.6903 -1.25541e-22 2.29066)
(13.7733 -6.00592e-20 2.28686)
(13.4911 1.28763e-22 2.01234)
(13.5822 -6.24546e-20 2.00989)
(13.6591 6.23842e-20 2.00557)
(13.3935 0 1.74589)
(13.4781 1.22733e-22 1.74297)
(13.5496 0 1.73846)
(13.3012 0 1.49144)
(13.3804 -6.19879e-20 1.48835)
(13.4472 6.18717e-20 1.48393)
(13.2167 0 1.2467)
(13.291 6.05226e-23 1.24369)
(13.3538 1.18715e-22 1.23957)
(13.1414 -6.26857e-20 1.01084)
(13.2118 6.25511e-20 1.00811)
(13.2712 -5.75621e-23 1.00449)
(13.0777 0 0.779873)
(13.1449 5.91246e-23 0.777549)
(13.2015 5.83719e-20 0.774545)
(13.0264 -6.07836e-20 0.55552)
(13.0911 6.07163e-20 0.553768)
(13.1457 -5.75982e-20 0.551526)
(12.9898 -2.98125e-20 0.328752)
(13.0526 5.88106e-20 0.32752)
(13.1055 -2.8956e-20 0.32598)
(12.7438 1.4682e-20 0.109023)
(12.8039 -1.46953e-20 0.108519)
(12.8546 -2.75071e-23 0.107908)
(14.8793 8.89615e-21 6.91686)
(14.8908 1.26673e-21 6.34252)
(15.2847 0 6.36629)
(15.7256 0 6.34081)
(16.167 -6.64426e-22 6.26019)
(14.8683 -1.24441e-21 5.8021)
(15.2307 0 5.82081)
(15.6436 0 5.80217)
(16.0691 5.52255e-21 5.7402)
(16.4856 -4.5438e-21 5.63222)
(16.8869 8.62468e-22 5.47678)
(14.8187 7.95578e-22 5.29672)
(15.1495 0 5.30701)
(15.5287 -7.38337e-21 5.28727)
(15.9248 6.78872e-21 5.23227)
(16.3201 7.03327e-21 5.13923)
(16.7097 -2.10641e-20 5.00599)
(17.0906 1.35213e-20 4.8308)
(17.458 1.6867e-21 4.61257)
(14.7468 2.30551e-20 4.82488)
(15.048 -4.11679e-20 4.8268)
(15.3935 1.74685e-20 4.80352)
(15.7564 3.55684e-22 4.75055)
(16.1215 1.63197e-21 4.66541)
(16.4855 -2.06484e-21 4.54598)
(16.8459 0 4.39024)
(17.1989 -1.91952e-20 4.19655)
(17.5394 1.88141e-20 3.96386)
(14.6566 0 4.38428)
(14.9307 0 4.3791)
(15.2448 0 4.35225)
(15.575 9.53443e-21 4.29985)
(15.9082 -8.9995e-21 4.21976)
(16.2416 2.52018e-21 4.1101)
(16.5738 5.34461e-21 3.96896)
(16.9014 -2.05181e-20 3.79469)
(17.2199 1.41696e-20 3.58604)
(14.5517 -2.75883e-20 3.97258)
(14.8014 2.78e-20 3.96183)
(15.0867 6.60438e-22 3.93223)
(15.3866 -8.07098e-22 3.88044)
(15.6891 4.66481e-22 3.80459)
(15.992 1.93519e-21 3.70305)
(16.2944 -4.74587e-21 3.57417)
(16.5933 1.02181e-20 3.41643)
(16.8849 -8.81129e-21 3.22867)
(14.4355 0 3.58757)
(14.6632 -8.00025e-22 3.57268)
(14.9226 7.11378e-23 3.54136)
(15.1949 -1.49164e-20 3.49071)
(15.4692 1.46005e-20 3.41909)
(15.7437 0 3.32513)
(16.0175 0 3.2074)
(16.2883 0 3.06459)
(16.5528 1.72274e-22 2.89569)
(14.3114 3.0094e-20 3.22715)
(14.5192 -3.03478e-20 3.20942)
(14.7554 2.17496e-20 3.17736)
(15.0029 -2.05938e-20 3.12846)
(15.2518 0 3.06132)
(15.5004 -7.59246e-22 2.97477)
(15.7481 0 2.8676)
(15.993 8.70423e-22 2.7387)
(16.2321 -3.73876e-21 2.58721)
(14.1827 0 2.88933)
(14.3727 8.79442e-22 2.86985)
(14.588 2.25098e-20 2.83792)
(14.8132 -2.33975e-20 2.79136)
(15.0394 0 2.72897)
(15.2649 7.45367e-22 2.64977)
(15.4892 -7.26571e-21 2.55274)
(15.7108 3.59257e-21 2.43696)
(15.927 4.64838e-21 2.3017)
(14.0522 6.53412e-20 2.57215)
(14.2262 -2.7544e-21 2.55188)
(14.423 -2.7621e-20 2.52082)
(14.6284 -2.08251e-20 2.47708)
(14.8343 2.03931e-20 2.41967)
(15.0393 0 2.34777)
(15.2429 -1.48237e-21 2.26052)
(15.4437 0 2.15716)
(15.6396 -2.58965e-22 2.03708)
(13.9229 3.55108e-20 2.27369)
(14.0827 0 2.25341)
(14.263 2.55204e-20 2.22382)
(14.4509 -4.70892e-20 2.18333)
(14.6389 4.10791e-20 2.13108)
(14.8257 -1.83969e-20 2.0664)
(15.011 -1.24951e-22 1.98859)
(15.1936 1.02806e-20 1.897)
(15.3716 -9.3486e-21 1.79115)
(13.7973 -7.80132e-22 1.99206)
(13.9446 0 1.97244)
(14.1103 2.627e-20 1.94484)
(14.2828 -4.88189e-20 1.90791)
(14.4551 1.96486e-21 1.86095)
(14.626 2.01953e-20 1.8034)
(14.7954 -1.32632e-20 1.73469)
(14.9621 1.23152e-20 1.6543)
(15.1244 8.78162e-21 1.56181)
(13.6779 2.58933e-22 1.72524)
(13.8142 0 1.70681)
(13.9672 0 1.6816)
(14.1262 -7.97337e-22 1.64849)
(14.2849 2.16662e-20 1.60691)
(14.442 -2.11126e-20 1.55638)
(14.5975 -1.54969e-20 1.49646)
(14.7504 1.60099e-20 1.42671)
(14.8992 -1.12168e-20 1.3468)
(13.5668 -3.25525e-20 1.47152)
(13.6936 6.18157e-20 1.45471)
(13.8356 -2.88681e-20 1.43224)
(13.9831 3.77073e-22 1.40316)
(14.1299 2.16884e-20 1.367)
(14.2752 -2.17001e-21 1.32339)
(14.4188 -1.86612e-20 1.27197)
(14.5598 -1.40949e-20 1.21238)
(14.6971 1.37282e-20 1.14437)
(13.466 -3.24355e-20 1.22837)
(13.5847 1.82174e-21 1.21355)
(13.7174 2.88981e-20 1.19407)
(13.855 -2.42951e-20 1.16916)
(13.9919 2.34771e-20 1.13845)
(14.1271 1.90112e-20 1.10165)
(14.2606 -1.40272e-21 1.05845)
(14.3917 -1.6936e-20 1.0086)
(14.5193 8.19243e-22 0.951878)
(13.3773 -3.22098e-20 0.994849)
(13.4892 3.13111e-20 0.982308)
(13.6141 4.45803e-22 0.96604)
(13.7435 0 0.945441)
(13.8721 0 0.920212)
(13.9991 6.44397e-22 0.890131)
(14.1243 -1.16771e-21 0.854969)
(14.2472 -1.5622e-20 0.814514)
(14.3667 1.57703e-20 0.768607)
(13.3025 -1.42429e-21 0.766705)
(13.4088 -3.0992e-20 0.756651)
(13.5275 2.65682e-20 0.743745)
(13.6503 -2.66697e-20 0.727528)
(13.7723 2.25244e-20 0.707775)
(13.8926 -2.20666e-20 0.684322)
(14.0111 5.83021e-22 0.656997)
(14.1274 -5.35779e-22 0.625642)
(14.2405 -4.52074e-22 0.590137)
(13.2429 3.28195e-20 0.545725)
(13.3451 2.91624e-20 0.538384)
(13.459 -2.84657e-20 0.529028)
(13.5768 -2.00683e-22 0.517318)
(13.6937 2.24749e-20 0.503099)
(13.8089 -2.2018e-20 0.486263)
(13.9223 1.85399e-20 0.466692)
(14.0336 -1.73468e-20 0.444274)
(14.1418 -2.38582e-22 0.418927)
(13.2 1.54108e-20 0.322216)
(13.2992 -2.94602e-20 0.317704)
(13.4097 1.42302e-20 0.312)
(13.5239 -1.20095e-20 0.304846)
(13.6372 1.1957e-20 0.296166)
(13.7488 1.00918e-20 0.285912)
(13.8586 -1.01808e-20 0.274018)
(13.9664 0 0.260414)
(14.0711 2.33307e-22 0.245053)
(12.9446 6.07028e-23 0.106544)
(13.039 0 0.105023)
(13.1439 -1.05405e-22 0.10308)
(13.2523 -6.022e-21 0.100603)
(13.3597 5.89909e-21 0.0975725)
(13.4651 0 0.093978)
(13.5686 4.50077e-21 0.0897954)
(13.6697 -8.43598e-21 0.0849997)
(13.7675 3.94499e-21 0.079573)
)
;

boundaryField
{
    inlet
    {
        type            fixedValue;
        value           nonuniform 0();
    }
    outlet
    {
        type            zeroGradient;
    }
    flap
    {
        type            movingWallVelocity;
        value           nonuniform 0();
    }
    upperWall
    {
        type            noSlip;
    }
    lowerWall
    {
        type            noSlip;
    }
    frontAndBack
    {
        type            empty;
    }
    procBoundary1to0
    {
        type            processor;
        value           nonuniform List<vector> 
18
(
(11.5955 9.28419e-21 3.50236)
(11.6908 -1.39379e-19 3.28067)
(11.6908 -1.39379e-19 3.28067)
(11.5797 8.39576e-21 2.91008)
(11.6392 -2.5131e-21 2.70321)
(11.6834 -7.66402e-20 2.49526)
(11.714 7.53856e-21 2.28735)
(11.7331 -3.56118e-21 2.08038)
(11.7426 6.91587e-21 1.87495)
(11.7444 5.4153e-20 1.67148)
(11.7403 -5.3889e-20 1.47006)
(11.732 1.60792e-21 1.27083)
(11.7212 4.90305e-20 1.07313)
(11.7094 -4.60956e-20 0.877421)
(11.6979 0 0.68136)
(11.6881 -4.35918e-20 0.487321)
(11.6811 6.73667e-22 0.288873)
(11.4927 -6.59693e-22 0.094259)
)
;
    }
    procBoundary1to2
    {
        type            processor;
        value           nonuniform List<vector> 
17
(
(17.8627 0 3.69165)
(17.5248 -2.2089e-20 3.34225)
(17.1651 -1.57891e-20 3.01012)
(16.8072 1.03938e-20 2.70003)
(16.4622 -2.3884e-21 2.41257)
(16.1349 0 2.1465)
(15.8279 -2.51808e-22 1.89992)
(15.5427 4.30416e-21 1.67074)
(15.2804 2.83633e-21 1.45699)
(15.0423 -1.07552e-20 1.25654)
(14.8291 8.86491e-21 1.06778)
(14.6419 -7.27598e-23 0.88817)
(14.4816 -1.1183e-20 0.717159)
(14.3493 3.90632e-22 0.550419)
(14.2459 0 0.390605)
(14.1719 0 0.227906)
(13.861 0 0.0735064)
)
;
    }
    procBoundary1to3
    {
        type            processor;
        value           nonuniform List<vector> 9((9.60943 3.24379e-21 4.92559) (9.92888 7.29434e-20 4.86281) (10.2276 -5.46033e-20 4.7662) (10.5024 -4.93295e-20 4.64026) (10.7512 -1.25963e-20 4.4895) (10.973 -1.15585e-20 4.31825) (11.1676 1.05487e-20 4.13051) (11.3355 -3.18528e-22 3.92988) (11.4776 7.50335e-20 3.71957));
    }
    procBoundary1to4
    {
        type            processor;
        value           nonuniform List<vector> 
30
(
(9.28786 -1.61864e-20 5.43038)
(9.76159 6.13544e-20 5.86922)
(9.76159 6.13544e-20 5.86922)
(9.8938 0 6.39205)
(10.5572 -4.01003e-20 6.70595)
(10.5572 -4.01003e-20 6.70595)
(10.8387 0 7.2145)
(11.6345 -4.10019e-20 7.30244)
(11.6345 -4.10019e-20 7.30244)
(12.053 -3.00849e-20 7.7194)
(12.8511 -6.63371e-21 7.53468)
(12.8511 -6.63371e-21 7.53468)
(13.397 -5.06602e-21 7.81007)
(13.7103 0 7.91776)
(14.1675 0 7.38176)
(14.1675 0 7.38176)
(14.4005 0 7.44431)
(14.8219 -7.99435e-22 7.51701)
(15.2986 0 6.93439)
(15.2986 0 6.93439)
(15.75 -4.5607e-21 6.88377)
(16.178 -5.80434e-21 6.7624)
(16.5835 8.04335e-22 6.12333)
(16.5835 8.04335e-22 6.12333)
(16.9682 2.87686e-20 5.93121)
(17.2694 1.75636e-21 5.27336)
(17.2694 1.75636e-21 5.27336)
(17.6288 -3.08842e-20 5.02244)
(17.8072 -3.23304e-20 4.35095)
(17.8072 -3.23304e-20 4.35095)
)
;
    }
}


// ************************************************************************* //
