/*--------------------------------*- C++ -*----------------------------------*\
| =========                 |                                                 |
| \\      /  F ield         | OpenFOAM: The Open Source CFD Toolbox           |
|  \\    /   O peration     | Version:  dev                                   |
|   \\  /    A nd           | Web:      www.OpenFOAM.org                      |
|    \\/     M anipulation  |                                                 |
\*---------------------------------------------------------------------------*/
FoamFile
{
    version     2.0;
    format      ascii;
    class       pointVectorField;
    location    "0.37";
    object      pointDisplacement;
}
// * * * * * * * * * * * * * * * * * * * * * * * * * * * * * * * * * * * * * //

dimensions      [0 1 0 0 0 0 0];

internalField   nonuniform List<vector> 
1034
(
(0 0 0)
(0.00592683 0 0.00293149)
(0.0113293 0 0.005647)
(0 0 0)
(0.00592683 0 0.00293149)
(0.0113293 0 0.005647)
(0 0 0)
(0.00588376 0 0.00308774)
(0.0112469 0 0.00594807)
(0.015985 0 0.00854577)
(0 0 0)
(0.00583558 0 0.00323812)
(0.0111553 0 0.00623757)
(0.0158547 0 0.00896193)
(0.0200077 0 0.0114658)
(0 0 0)
(0.0057819 0 0.00337977)
(0.0110533 0 0.0065105)
(0.0157118 0 0.00935562)
(0.019829 0 0.0119717)
(0.0234683 0 0.0144051)
(0 0 0)
(0.00572383 0 0.00351206)
(0.010943 0 0.00676565)
(0.0155569 0 0.00972381)
(0.0196353 0 0.0124451)
(0.0232398 0 0.0149772)
(0.0264241 0 0.0173589)
(0 0 0)
(0.00566084 0 0.00363384)
(0.0108236 0 0.00700058)
(0.0153892 0 0.0100627)
(0.0194258 0 0.0128809)
(0.0229934 0 0.0155042)
(0.0261443 0 0.0179727)
(0.0289243 0 0.0203193)
(0 0 0)
(0.0055927 0 0.00374371)
(0.0106947 0 0.00721261)
(0.0152082 0 0.0103687)
(0.0191998 0 0.0132742)
(0.022728 0 0.01598)
(0.0258437 0 0.0185268)
(0.0285917 0 0.0209484)
(0.0310109 0 0.0232727)
(0.0331358 0 0.0255233)
(0 0 0)
(0.00551924 0 0.00384028)
(0.0105559 0 0.00739906)
(0.0150136 0 0.0106379)
(0.0189571 0 0.0136205)
(0.0224433 0 0.0163986)
(0.025522 0 0.019014)
(0.0282364 0 0.0215009)
(0.0306248 0 0.0238877)
(0.0327203 0 0.0261982)
(0.0345526 0 0.028453)
(0 0 0)
(0.00544039 0 0.00392214)
(0.0104071 0 0.00755731)
(0.0148053 0 0.0108667)
(0.0186976 0 0.0139148)
(0.0221394 0 0.0167543)
(0.0251789 0 0.0194275)
(0.0278584 0 0.021969)
(0.0302149 0 0.0244072)
(0.0322807 0 0.0267657)
(0.0340845 0 0.0290647)
(0.0356513 0 0.0313218)
(0.0370028 0 0.0335519)
(0 0 0)
(0.00535617 0 0.00398794)
(0.0102484 0 0.00768477)
(0.0145834 0 0.0110513)
(0.0184215 0 0.0141527)
(0.0218165 0 0.0170418)
(0.024815 0 0.0197611)
(0.0274581 0 0.0223454)
(0.0297818 0 0.0248229)
(0.0318175 0 0.027217)
(0.0335931 0 0.0295471)
(0.035133 0 0.0318297)
(0.0364583 0 0.0340786)
(0.0375875 0 0.0363052)
(0.0385363 0 0.038519)
(0 0 0)
(0.00526666 0 0.00403639)
(0.01008 0 0.00777897)
(0.0143481 0 0.0111884)
(0.0181293 0 0.0143297)
(0.0214752 0 0.0172557)
(0.0244311 0 0.0200089)
(0.0270366 0 0.0226236)
(0.0293266 0 0.0251279)
(0.031332 0 0.0275445)
(0.0330798 0 0.0298921)
(0.0345938 0 0.032186)
(0.0358947 0 0.0344385)
(0.0370007 0 0.0366593)
(0.0379276 0 0.0388555)
(0.0386891 0 0.0410323)
(0 0 0)
(0.00517209 0 0.00406624)
(0.0099022 0 0.00783755)
(0.0141002 0 0.0112745)
(0.0178217 0 0.0144415)
(0.0211165 0 0.0173911)
(0.0240281 0 0.0201651)
(0.026595 0 0.0227976)
(0.028851 0 0.0253158)
(0.030826 0 0.0277418)
(0.0325464 0 0.0300933)
(0.0340356 0 0.0323845)
(0.035314 0 0.0346262)
(0.0363996 0 0.0368265)
(0.0373082 0 0.0389905)
(0.0380536 0 0.041121)
(0.0386481 0 0.0432177)
(0.0391025 0 0.0452769)
(0 0 0)
(0.00507274 0 0.00407634)
(0.00971562 0 0.00785829)
(0.0138402 0 0.0113064)
(0.0174997 0 0.0144842)
(0.0207415 0 0.0174433)
(0.0236075 0 0.0202248)
(0.026135 0 0.0228618)
(0.0283565 0 0.025381)
(0.0303013 0 0.0278033)
(0.0319951 0 0.0301456)
(0.0334608 0 0.0324208)
(0.0347185 0 0.0346384)
(0.0357863 0 0.0368049)
(0.0366799 0 0.0389242)
(0.0374134 0 0.040997)
(0.0379996 0 0.0430215)
(0.0384498 0 0.0449927)
(0.0387746 0 0.0469029)
(0.038984 0 0.048741)
(0 0 0)
(0.004969 0 0.00406564)
(0.00952098 0 0.00783917)
(0.0135693 0 0.0112813)
(0.0171644 0 0.0144542)
(0.0203516 0 0.017408)
(0.0231711 0 0.020183)
(0.0256584 0 0.0228112)
(0.0278455 0 0.0253182)
(0.0297604 0 0.0277241)
(0.0314284 0 0.0300445)
(0.0328719 0 0.0322912)
(0.0341109 0 0.0344726)
(0.0351632 0 0.036594)
(0.0360447 0 0.0386578)
(0.0367699 0 0.0406638)
(0.0373518 0 0.0426091)
(0.0378022 0 0.044488)
(0.0381324 0 0.0462926)
(0.0383529 0 0.0480126)
(0.0384741 0 0.0496353)
(0.0385066 0 0.051147)
(0 0 0)
(0.00486138 0 0.00403317)
(0.0093192 0 0.00777833)
(0.0132888 0 0.0111966)
(0.0168176 0 0.014348)
(0.0199488 0 0.0172814)
(0.0227207 0 0.0200354)
(0.0251676 0 0.0226411)
(0.0273201 0 0.0251229)
(0.0292057 0 0.0274997)
(0.0308488 0 0.0297862)
(0.0322716 0 0.0319929)
(0.0334936 0 0.0341272)
(0.0345327 0 0.0361935)
(0.0354049 0 0.0381931)
(0.0361247 0 0.0401252)
(0.0367054 0 0.0419863)
(0.0371594 0 0.0437709)
(0.0374981 0 0.0454711)
(0.0377326 0 0.0470776)
(0.0378734 0 0.0485796)
(0.0379317 0 0.049966)
(0 0 0)
(0.00475045 0 0.00397807)
(0.00911136 0 0.00767409)
(0.013 0 0.0110497)
(0.016461 0 0.0141626)
(0.0195351 0 0.0170597)
(0.0222588 0 0.0197781)
(0.024665 0 0.0223475)
(0.0267832 0 0.0247909)
(0.02864 0 0.0271263)
(0.0302593 0 0.0293672)
(0.0316626 0 0.0315231)
(0.0328694 0 0.0336006)
(0.0338974 0 0.0356031)
(0.0347625 0 0.0375315)
(0.0354793 0 0.0393844)
(0.0360615 0 0.0411583)
(0.0365213 0 0.0428477)
(0.0368707 0 0.0444458)
(0.0371206 0 0.0459443)
(0.0372822 0 0.0473345)
(0.0373663 0 0.0486076)
(0 0 0)
(0.00463689 0 0.00389959)
(0.00889871 0 0.00752496)
(0.0127047 0 0.0108385)
(0.0160967 0 0.0138952)
(0.0191129 0 0.0167397)
(0.021788 0 0.0194074)
(0.0241535 0 0.0219264)
(0.0262378 0 0.0243184)
(0.0280665 0 0.0266002)
(0.0296629 0 0.0287843)
(0.0310481 0 0.0308794)
(0.0322413 0 0.0328911)
(0.0332598 0 0.0348223)
(0.0341197 0 0.0366735)
(0.0348356 0 0.0384432)
(0.035421 0 0.0401279)
(0.0358884 0 0.0417228)
(0.0362497 0 0.0432219)
(0.036516 0 0.044618)
(0.0366985 0 0.0459048)
(0 0 0)
(0.00452147 0 0.00379705)
(0.00868268 0 0.00732958)
(0.012405 0 0.010561)
(0.015727 0 0.0135432)
(0.0186849 0 0.0163184)
(0.0213114 0 0.0189199)
(0.0236364 0 0.0213742)
(0.0256872 0 0.0237016)
(0.0274886 0 0.0259178)
(0.0290631 0 0.0280342)
(0.0304314 0 0.0300588)
(0.0316123 0 0.0319964)
(0.0326229 0 0.0338496)
(0.0334792 0 0.0356186)
(0.0341956 0 0.0373018)
(0.0347855 0 0.0388963)
(0.0352616 0 0.0403977)
(0.0356356 0 0.0418009)
(0.0359184 0 0.0431004)
(0.0361211 0 0.0442912)
(0 0 0)
(0.00440506 0 0.00366986)
(0.00846485 0 0.00708675)
(0.0121028 0 0.0102153)
(0.0153548 0 0.0131042)
(0.0182543 0 0.0157927)
(0.0208323 0 0.0183122)
(0.0231172 0 0.0206872)
(0.0251351 0 0.0229368)
(0.02691 0 0.0250754)
(0.0284636 0 0.0271134)
(0.0298161 0 0.0290581)
(0.0309859 0 0.0309137)
(0.0319899 0 0.0326826)
(0.0328437 0 0.0343647)
(0.0335617 0 0.0359587)
(0.0341571 0 0.037462)
(0.0346424 0 0.038871)
(0.0350291 0 0.0401815)
(0.035328 0 0.0413891)
(0.03555 0 0.0424902)
(0 0 0)
(0.00428858 0 0.00351747)
(0.00824699 0 0.00679532)
(0.0118008 0 0.00979973)
(0.0149828 0 0.0125757)
(0.0178243 0 0.0151597)
(0.0203543 0 0.0175808)
(0.0225998 0 0.0198618)
(0.0245857 0 0.02202)
(0.0263349 0 0.0240688)
(0.0278686 0 0.0260177)
(0.0292064 0 0.0278731)
(0.0303661 0 0.029639)
(0.0313645 0 0.0313172)
(0.0322167 0 0.032908)
(0.0329369 0 0.0344101)
(0.0335383 0 0.0358212)
(0.0340329 0 0.0371386)
(0.0344321 0 0.0383588)
(0.0347464 0 0.0394784)
(0.0349864 0 0.0404953)
(0 0 0)
(0.00417307 0 0.00333937)
(0.00803101 0 0.00645419)
(0.0115014 0 0.00931249)
(0.0146144 0 0.0119555)
(0.0173987 0 0.0144166)
(0.0198816 0 0.0167224)
(0.0220886 0 0.0188938)
(0.0240433 0 0.0209468)
(0.0257679 0 0.0228933)
(0.0272827 0 0.024742)
(0.0286066 0 0.0264986)
(0.0297573 0 0.0281668)
(0.0307508 0 0.0297482)
(0.031602 0 0.0312428)
(0.032325 0 0.0326498)
(0.0329324 0 0.0339674)
(0.0334362 0 0.0351933)
(0.0338473 0 0.0363248)
(0.034176 0 0.0373595)
(0.0344326 0 0.038296)
(0 0 0)
(0.00405967 0 0.00313503)
(0.00781901 0 0.00606224)
(0.0112078 0 0.00875179)
(0.0142531 0 0.0112409)
(0.0169816 0 0.01356)
(0.0194187 0 0.015733)
(0.0215883 0 0.0177789)
(0.0235131 0 0.019712)
(0.0252141 0 0.0215433)
(0.026711 0 0.0232803)
(0.0280221 0 0.0249282)
(0.0291644 0 0.0264902)
(0.0301536 0 0.0279678)
(0.0310044 0 0.0293611)
(0.0317303 0 0.0306694)
(0.0323437 0 0.0318913)
(0.0328562 0 0.0330248)
(0.0332786 0 0.0340683)
(0.0336206 0 0.0350197)
(0.0338923 0 0.0358785)
(0 0 0)
(0.00394959 0 0.00290389)
(0.00761332 0 0.00561826)
(0.0109229 0 0.00811568)
(0.0139028 0 0.0104294)
(0.0165775 0 0.0125864)
(0.0189705 0 0.0146083)
(0.0211044 0 0.0165118)
(0.0230007 0 0.0183099)
(0.0246794 0 0.0200121)
(0.0261594 0 0.0216251)
(0.0274586 0 0.0231537)
(0.0285932 0 0.0246004)
(0.0295788 0 0.0259666)
(0.0304293 0 0.0272524)
(0.0311581 0 0.0284574)
(0.0317772 0 0.0295802)
(0.0322979 0 0.0306197)
(0.0327305 0 0.0315743)
(0.0330847 0 0.0324429)
(0.0333701 0 0.0332253)
(0 0 0)
(0.00384418 0 0.00264534)
(0.00741644 0 0.0051209)
(0.0106504 0 0.00740198)
(0.013568 0 0.00951769)
(0.0161914 0 0.0114918)
(0.0185427 0 0.0133432)
(0.0206428 0 0.0150866)
(0.0225122 0 0.0167334)
(0.02417 0 0.0182917)
(0.0256344 0 0.0197676)
(0.0269226 0 0.021165)
(0.0280503 0 0.0224862)
(0.0290325 0 0.0237323)
(0.029883 0 0.0249034)
(0.0306146 0 0.0259992)
(0.031239 0 0.0270186)
(0.0317672 0 0.0279607)
(0.0322092 0 0.0288245)
(0.0325742 0 0.029609)
(0.0328717 0 0.0303146)
(0 0 0)
(0.00374493 0 0.00235864)
(0.00723122 0 0.00456862)
(0.0103942 0 0.00660819)
(0.0132534 0 0.00850237)
(0.0158291 0 0.0102716)
(0.0181414 0 0.011932)
(0.0202102 0 0.0134964)
(0.0220547 0 0.0149743)
(0.0236933 0 0.0163728)
(0.0251435 0 0.017697)
(0.0264216 0 0.0189502)
(0.0275431 0 0.0201342)
(0.0285225 0 0.02125)
(0.029373 0 0.0222978)
(0.0301072 0 0.023277)
(0.0307365 0 0.024187)
(0.0312714 0 0.0250269)
(0.0317217 0 0.0257961)
(0.0320963 0 0.0264938)
(0.0324045 0 0.0271208)
(0 0 0)
(0.00365352 0 0.00204296)
(0.0070608 0 0.00395961)
(0.0101588 0 0.00573145)
(0.0129647 0 0.00737934)
(0.0154968 0 0.00892032)
(0.0177737 0 0.010368)
(0.0198141 0 0.0117328)
(0.0216363 0 0.0130229)
(0.0232576 0 0.0142441)
(0.024695 0 0.0154004)
(0.0259642 0 0.0164947)
(0.0270802 0 0.0175283)
(0.0280571 0 0.018502)
(0.0289078 0 0.0194157)
(0.0296443 0 0.0202692)
(0.0302779 0 0.0210618)
(0.0308188 0 0.0217929)
(0.0312764 0 0.0224619)
(0.0316593 0 0.0230683)
(0.0319767 0 0.0236129)
(0 0 0)
(0.00357185 0 0.00169732)
(0.00690882 0 0.00329183)
(0.00994925 0 0.00476847)
(0.012708 0 0.00614395)
(0.0152017 0 0.00743197)
(0.0174476 0 0.00864339)
(0.0194633 0 0.00978665)
(0.0212658 0 0.0108681)
(0.0228722 0 0.0118925)
(0.0242985 0 0.0128629)
(0.0255601 0 0.0137815)
(0.0266716 0 0.0146493)
(0.0276464 0 0.0154667)
(0.0284972 0 0.0162339)
(0.0292359 0 0.0169503)
(0.0298733 0 0.0176154)
(0.0304192 0 0.0182287)
(0.030883 0 0.0187898)
(0.031273 0 0.0192982)
(0.0315982 0 0.0197547)
(0 0 0)
(0.0035022 0 0.00132061)
(0.00677955 0 0.00256293)
(0.00977145 0 0.00371553)
(0.0124907 0 0.00479099)
(0.0149524 0 0.0057996)
(0.0171725 0 0.00674953)
(0.0191675 0 0.00764713)
(0.0209539 0 0.00849715)
(0.022548 0 0.00930302)
(0.0239653 0 0.0100671)
(0.0252207 0 0.0107907)
(0.0263284 0 0.0114748)
(0.0273016 0 0.0121195)
(0.0281527 0 0.0127247)
(0.0288932 0 0.0132899)
(0.0295337 0 0.0138149)
(0.0300839 0 0.014299)
(0.0305528 0 0.0147419)
(0.0309485 0 0.0151433)
(0.0312799 0 0.0155037)
(0 0 0)
(0.00344733 0 0.000911608)
(0.00667815 0 0.00177036)
(0.00963255 0 0.00256857)
(0.0123215 0 0.00331466)
(0.0147587 0 0.00401554)
(0.0169591 0 0.00467667)
(0.0189385 0 0.00530227)
(0.0207127 0 0.00589549)
(0.0222975 0 0.00645859)
(0.023708 0 0.00699306)
(0.0249588 0 0.0074998)
(0.0260638 0 0.00797923)
(0.0270359 0 0.00843141)
(0.0278873 0 0.00885618)
(0.0286293 0 0.0092532)
(0.0292722 0 0.0096221)
(0.0298256 0 0.00996247)
(0.0302984 0 0.010274)
(0.0306984 0 0.0105565)
(0.0310346 0 0.0108103)
(0 0 0)
(0.00341082 0 0.000469017)
(0.00661114 0 0.000911372)
(0.0095413 0 0.0013232)
(0.0122108 0 0.00170874)
(0.0146323 0 0.00207144)
(0.0168202 0 0.00241406)
(0.0187897 0 0.00273871)
(0.0205562 0 0.00304696)
(0.0221351 0 0.00333991)
(0.0235414 0 0.00361829)
(0.0247895 0 0.00388249)
(0.0258928 0 0.00413271)
(0.0268644 0 0.00436892)
(0.027716 0 0.004591)
(0.028459 0 0.00479873)
(0.0291035 0 0.00499189)
(0.0296591 0 0.00517023)
(0.0301344 0 0.00533356)
(0.0305372 0 0.00548176)
(0.0308764 0 0.00561495)
(0 0 0)
(0.00339767 0 0)
(0.00658719 0 0)
(0.00950885 0 0)
(0.0121716 0 0)
(0.0145877 0 0)
(0.0167712 0 0)
(0.0187372 0 0)
(0.0205011 0 0)
(0.022078 0 0)
(0.0234829 0 0)
(0.0247299 0 0)
(0.0258328 0 0)
(0.0268041 0 0)
(0.0276559 0 0)
(0.0283992 0 0)
(0.0290444 0 0)
(0.0296007 0 0)
(0.0300768 0 0)
(0.0304806 0 0)
(0.0308209 0 0)
(0 0 0)
(0.00588376 0 0.00308774)
(0.0112469 0 0.00594807)
(0.015985 0 0.00854577)
(0 0 0)
(0.00583558 0 0.00323812)
(0.0111553 0 0.00623757)
(0.0158547 0 0.00896193)
(0.0200077 0 0.0114658)
(0 0 0)
(0.0057819 0 0.00337977)
(0.0110533 0 0.0065105)
(0.0157118 0 0.00935562)
(0.019829 0 0.0119717)
(0.0234683 0 0.0144051)
(0 0 0)
(0.00572383 0 0.00351206)
(0.010943 0 0.00676565)
(0.0155569 0 0.00972381)
(0.0196353 0 0.0124451)
(0.0232398 0 0.0149772)
(0.0264241 0 0.0173589)
(0 0 0)
(0.00566084 0 0.00363384)
(0.0108236 0 0.00700058)
(0.0153892 0 0.0100627)
(0.0194258 0 0.0128809)
(0.0229934 0 0.0155042)
(0.0261443 0 0.0179727)
(0.0289243 0 0.0203193)
(0 0 0)
(0.0055927 0 0.00374371)
(0.0106947 0 0.00721261)
(0.0152082 0 0.0103687)
(0.0191998 0 0.0132742)
(0.022728 0 0.01598)
(0.0258437 0 0.0185268)
(0.0285917 0 0.0209484)
(0.0310109 0 0.0232727)
(0.0331358 0 0.0255233)
(0 0 0)
(0.00551924 0 0.00384028)
(0.0105559 0 0.00739906)
(0.0150136 0 0.0106379)
(0.0189571 0 0.0136205)
(0.0224433 0 0.0163986)
(0.025522 0 0.019014)
(0.0282364 0 0.0215009)
(0.0306248 0 0.0238877)
(0.0327203 0 0.0261982)
(0.0345526 0 0.028453)
(0 0 0)
(0.00544039 0 0.00392214)
(0.0104071 0 0.00755731)
(0.0148053 0 0.0108667)
(0.0186976 0 0.0139148)
(0.0221394 0 0.0167543)
(0.0251789 0 0.0194275)
(0.0278584 0 0.021969)
(0.0302149 0 0.0244072)
(0.0322807 0 0.0267657)
(0.0340845 0 0.0290647)
(0.0356513 0 0.0313218)
(0.0370028 0 0.0335519)
(0 0 0)
(0.00535617 0 0.00398794)
(0.0102484 0 0.00768477)
(0.0145834 0 0.0110513)
(0.0184215 0 0.0141527)
(0.0218165 0 0.0170418)
(0.024815 0 0.0197611)
(0.0274581 0 0.0223454)
(0.0297818 0 0.0248229)
(0.0318175 0 0.027217)
(0.0335931 0 0.0295471)
(0.035133 0 0.0318297)
(0.0364583 0 0.0340786)
(0.0375875 0 0.0363052)
(0.0385363 0 0.038519)
(0 0 0)
(0.00526666 0 0.00403639)
(0.01008 0 0.00777897)
(0.0143481 0 0.0111884)
(0.0181293 0 0.0143297)
(0.0214752 0 0.0172557)
(0.0244311 0 0.0200089)
(0.0270366 0 0.0226236)
(0.0293266 0 0.0251279)
(0.031332 0 0.0275445)
(0.0330798 0 0.0298921)
(0.0345938 0 0.032186)
(0.0358947 0 0.0344385)
(0.0370007 0 0.0366593)
(0.0379276 0 0.0388555)
(0.0386891 0 0.0410323)
(0 0 0)
(0.00517209 0 0.00406624)
(0.0099022 0 0.00783755)
(0.0141002 0 0.0112745)
(0.0178217 0 0.0144415)
(0.0211165 0 0.0173911)
(0.0240281 0 0.0201651)
(0.026595 0 0.0227976)
(0.028851 0 0.0253158)
(0.030826 0 0.0277418)
(0.0325464 0 0.0300933)
(0.0340356 0 0.0323845)
(0.035314 0 0.0346262)
(0.0363996 0 0.0368265)
(0.0373082 0 0.0389905)
(0.0380536 0 0.041121)
(0.0386481 0 0.0432177)
(0.0391025 0 0.0452769)
(0 0 0)
(0.00507274 0 0.00407634)
(0.00971562 0 0.00785829)
(0.0138402 0 0.0113064)
(0.0174997 0 0.0144842)
(0.0207415 0 0.0174433)
(0.0236075 0 0.0202248)
(0.026135 0 0.0228618)
(0.0283565 0 0.025381)
(0.0303013 0 0.0278033)
(0.0319951 0 0.0301456)
(0.0334608 0 0.0324208)
(0.0347185 0 0.0346384)
(0.0357863 0 0.0368049)
(0.0366799 0 0.0389242)
(0.0374134 0 0.040997)
(0.0379996 0 0.0430215)
(0.0384498 0 0.0449927)
(0.0387746 0 0.0469029)
(0.038984 0 0.048741)
(0 0 0)
(0.004969 0 0.00406564)
(0.00952098 0 0.00783917)
(0.0135693 0 0.0112813)
(0.0171644 0 0.0144542)
(0.0203516 0 0.017408)
(0.0231711 0 0.020183)
(0.0256584 0 0.0228112)
(0.0278455 0 0.0253182)
(0.0297604 0 0.0277241)
(0.0314284 0 0.0300445)
(0.0328719 0 0.0322912)
(0.0341109 0 0.0344726)
(0.0351632 0 0.036594)
(0.0360447 0 0.0386578)
(0.0367699 0 0.0406638)
(0.0373518 0 0.0426091)
(0.0378022 0 0.044488)
(0.0381324 0 0.0462926)
(0.0383529 0 0.0480126)
(0.0384741 0 0.0496353)
(0.0385066 0 0.051147)
(0 0 0)
(0.00486138 0 0.00403317)
(0.0093192 0 0.00777833)
(0.0132888 0 0.0111966)
(0.0168176 0 0.014348)
(0.0199488 0 0.0172814)
(0.0227207 0 0.0200354)
(0.0251676 0 0.0226411)
(0.0273201 0 0.0251229)
(0.0292057 0 0.0274997)
(0.0308488 0 0.0297862)
(0.0322716 0 0.0319929)
(0.0334936 0 0.0341272)
(0.0345327 0 0.0361935)
(0.0354049 0 0.0381931)
(0.0361247 0 0.0401252)
(0.0367054 0 0.0419863)
(0.0371594 0 0.0437709)
(0.0374981 0 0.0454711)
(0.0377326 0 0.0470776)
(0.0378734 0 0.0485796)
(0.0379317 0 0.049966)
(0 0 0)
(0.00475045 0 0.00397807)
(0.00911136 0 0.00767409)
(0.013 0 0.0110497)
(0.016461 0 0.0141626)
(0.0195351 0 0.0170597)
(0.0222588 0 0.0197781)
(0.024665 0 0.0223475)
(0.0267832 0 0.0247909)
(0.02864 0 0.0271263)
(0.0302593 0 0.0293672)
(0.0316626 0 0.0315231)
(0.0328694 0 0.0336006)
(0.0338974 0 0.0356031)
(0.0347625 0 0.0375315)
(0.0354793 0 0.0393844)
(0.0360615 0 0.0411583)
(0.0365213 0 0.0428477)
(0.0368707 0 0.0444458)
(0.0371206 0 0.0459443)
(0.0372822 0 0.0473345)
(0.0373663 0 0.0486076)
(0 0 0)
(0.00463689 0 0.00389959)
(0.00889871 0 0.00752496)
(0.0127047 0 0.0108385)
(0.0160967 0 0.0138952)
(0.0191129 0 0.0167397)
(0.021788 0 0.0194074)
(0.0241535 0 0.0219264)
(0.0262378 0 0.0243184)
(0.0280665 0 0.0266002)
(0.0296629 0 0.0287843)
(0.0310481 0 0.0308794)
(0.0322413 0 0.0328911)
(0.0332598 0 0.0348223)
(0.0341197 0 0.0366735)
(0.0348356 0 0.0384432)
(0.035421 0 0.0401279)
(0.0358884 0 0.0417228)
(0.0362497 0 0.0432219)
(0.036516 0 0.044618)
(0.0366985 0 0.0459048)
(0 0 0)
(0.00452147 0 0.00379705)
(0.00868268 0 0.00732958)
(0.012405 0 0.010561)
(0.015727 0 0.0135432)
(0.0186849 0 0.0163184)
(0.0213114 0 0.0189199)
(0.0236364 0 0.0213742)
(0.0256872 0 0.0237016)
(0.0274886 0 0.0259178)
(0.0290631 0 0.0280342)
(0.0304314 0 0.0300588)
(0.0316123 0 0.0319964)
(0.0326229 0 0.0338496)
(0.0334792 0 0.0356186)
(0.0341956 0 0.0373018)
(0.0347855 0 0.0388963)
(0.0352616 0 0.0403977)
(0.0356356 0 0.0418009)
(0.0359184 0 0.0431004)
(0.0361211 0 0.0442912)
(0 0 0)
(0.00440506 0 0.00366986)
(0.00846485 0 0.00708675)
(0.0121028 0 0.0102153)
(0.0153548 0 0.0131042)
(0.0182543 0 0.0157927)
(0.0208323 0 0.0183122)
(0.0231172 0 0.0206872)
(0.0251351 0 0.0229368)
(0.02691 0 0.0250754)
(0.0284636 0 0.0271134)
(0.0298161 0 0.0290581)
(0.0309859 0 0.0309137)
(0.0319899 0 0.0326826)
(0.0328437 0 0.0343647)
(0.0335617 0 0.0359587)
(0.0341571 0 0.037462)
(0.0346424 0 0.038871)
(0.0350291 0 0.0401815)
(0.035328 0 0.0413891)
(0.03555 0 0.0424902)
(0 0 0)
(0.00428858 0 0.00351747)
(0.00824699 0 0.00679532)
(0.0118008 0 0.00979973)
(0.0149828 0 0.0125757)
(0.0178243 0 0.0151597)
(0.0203543 0 0.0175808)
(0.0225998 0 0.0198618)
(0.0245857 0 0.02202)
(0.0263349 0 0.0240688)
(0.0278686 0 0.0260177)
(0.0292064 0 0.0278731)
(0.0303661 0 0.029639)
(0.0313645 0 0.0313172)
(0.0322167 0 0.032908)
(0.0329369 0 0.0344101)
(0.0335383 0 0.0358212)
(0.0340329 0 0.0371386)
(0.0344321 0 0.0383588)
(0.0347464 0 0.0394784)
(0.0349864 0 0.0404953)
(0 0 0)
(0.00417307 0 0.00333937)
(0.00803101 0 0.00645419)
(0.0115014 0 0.00931249)
(0.0146144 0 0.0119555)
(0.0173987 0 0.0144166)
(0.0198816 0 0.0167224)
(0.0220886 0 0.0188938)
(0.0240433 0 0.0209468)
(0.0257679 0 0.0228933)
(0.0272827 0 0.024742)
(0.0286066 0 0.0264986)
(0.0297573 0 0.0281668)
(0.0307508 0 0.0297482)
(0.031602 0 0.0312428)
(0.032325 0 0.0326498)
(0.0329324 0 0.0339674)
(0.0334362 0 0.0351933)
(0.0338473 0 0.0363248)
(0.034176 0 0.0373595)
(0.0344326 0 0.038296)
(0 0 0)
(0.00405967 0 0.00313503)
(0.00781901 0 0.00606224)
(0.0112078 0 0.00875179)
(0.0142531 0 0.0112409)
(0.0169816 0 0.01356)
(0.0194187 0 0.015733)
(0.0215883 0 0.0177789)
(0.0235131 0 0.019712)
(0.0252141 0 0.0215433)
(0.026711 0 0.0232803)
(0.0280221 0 0.0249282)
(0.0291644 0 0.0264902)
(0.0301536 0 0.0279678)
(0.0310044 0 0.0293611)
(0.0317303 0 0.0306694)
(0.0323437 0 0.0318913)
(0.0328562 0 0.0330248)
(0.0332786 0 0.0340683)
(0.0336206 0 0.0350197)
(0.0338923 0 0.0358785)
(0 0 0)
(0.00394959 0 0.00290389)
(0.00761332 0 0.00561826)
(0.0109229 0 0.00811568)
(0.0139028 0 0.0104294)
(0.0165775 0 0.0125864)
(0.0189705 0 0.0146083)
(0.0211044 0 0.0165118)
(0.0230007 0 0.0183099)
(0.0246794 0 0.0200121)
(0.0261594 0 0.0216251)
(0.0274586 0 0.0231537)
(0.0285932 0 0.0246004)
(0.0295788 0 0.0259666)
(0.0304293 0 0.0272524)
(0.0311581 0 0.0284574)
(0.0317772 0 0.0295802)
(0.0322979 0 0.0306197)
(0.0327305 0 0.0315743)
(0.0330847 0 0.0324429)
(0.0333701 0 0.0332253)
(0 0 0)
(0.00384418 0 0.00264534)
(0.00741644 0 0.0051209)
(0.0106504 0 0.00740198)
(0.013568 0 0.00951769)
(0.0161914 0 0.0114918)
(0.0185427 0 0.0133432)
(0.0206428 0 0.0150866)
(0.0225122 0 0.0167334)
(0.02417 0 0.0182917)
(0.0256344 0 0.0197676)
(0.0269226 0 0.021165)
(0.0280503 0 0.0224862)
(0.0290325 0 0.0237323)
(0.029883 0 0.0249034)
(0.0306146 0 0.0259992)
(0.031239 0 0.0270186)
(0.0317672 0 0.0279607)
(0.0322092 0 0.0288245)
(0.0325742 0 0.029609)
(0.0328717 0 0.0303146)
(0 0 0)
(0.00374493 0 0.00235864)
(0.00723122 0 0.00456862)
(0.0103942 0 0.00660819)
(0.0132534 0 0.00850237)
(0.0158291 0 0.0102716)
(0.0181414 0 0.011932)
(0.0202102 0 0.0134964)
(0.0220547 0 0.0149743)
(0.0236933 0 0.0163728)
(0.0251435 0 0.017697)
(0.0264216 0 0.0189502)
(0.0275431 0 0.0201342)
(0.0285225 0 0.02125)
(0.029373 0 0.0222978)
(0.0301072 0 0.023277)
(0.0307365 0 0.024187)
(0.0312714 0 0.0250269)
(0.0317217 0 0.0257961)
(0.0320963 0 0.0264938)
(0.0324045 0 0.0271208)
(0 0 0)
(0.00365352 0 0.00204296)
(0.0070608 0 0.00395961)
(0.0101588 0 0.00573145)
(0.0129647 0 0.00737934)
(0.0154968 0 0.00892032)
(0.0177737 0 0.010368)
(0.0198141 0 0.0117328)
(0.0216363 0 0.0130229)
(0.0232576 0 0.0142441)
(0.024695 0 0.0154004)
(0.0259642 0 0.0164947)
(0.0270802 0 0.0175283)
(0.0280571 0 0.018502)
(0.0289078 0 0.0194157)
(0.0296443 0 0.0202692)
(0.0302779 0 0.0210618)
(0.0308188 0 0.0217929)
(0.0312764 0 0.0224619)
(0.0316593 0 0.0230683)
(0.0319767 0 0.0236129)
(0 0 0)
(0.00357185 0 0.00169732)
(0.00690882 0 0.00329183)
(0.00994925 0 0.00476847)
(0.012708 0 0.00614395)
(0.0152017 0 0.00743197)
(0.0174476 0 0.00864339)
(0.0194633 0 0.00978665)
(0.0212658 0 0.0108681)
(0.0228722 0 0.0118925)
(0.0242985 0 0.0128629)
(0.0255601 0 0.0137815)
(0.0266716 0 0.0146493)
(0.0276464 0 0.0154667)
(0.0284972 0 0.0162339)
(0.0292359 0 0.0169503)
(0.0298733 0 0.0176154)
(0.0304192 0 0.0182287)
(0.030883 0 0.0187898)
(0.031273 0 0.0192982)
(0.0315982 0 0.0197547)
(0 0 0)
(0.0035022 0 0.00132061)
(0.00677955 0 0.00256293)
(0.00977145 0 0.00371553)
(0.0124907 0 0.00479099)
(0.0149524 0 0.0057996)
(0.0171725 0 0.00674953)
(0.0191675 0 0.00764713)
(0.0209539 0 0.00849715)
(0.022548 0 0.00930302)
(0.0239653 0 0.0100671)
(0.0252207 0 0.0107907)
(0.0263284 0 0.0114748)
(0.0273016 0 0.0121195)
(0.0281527 0 0.0127247)
(0.0288932 0 0.0132899)
(0.0295337 0 0.0138149)
(0.0300839 0 0.014299)
(0.0305528 0 0.0147419)
(0.0309485 0 0.0151433)
(0.0312799 0 0.0155037)
(0 0 0)
(0.00344733 0 0.000911608)
(0.00667815 0 0.00177036)
(0.00963255 0 0.00256857)
(0.0123215 0 0.00331466)
(0.0147587 0 0.00401554)
(0.0169591 0 0.00467667)
(0.0189385 0 0.00530227)
(0.0207127 0 0.00589549)
(0.0222975 0 0.00645859)
(0.023708 0 0.00699306)
(0.0249588 0 0.0074998)
(0.0260638 0 0.00797923)
(0.0270359 0 0.00843141)
(0.0278873 0 0.00885618)
(0.0286293 0 0.0092532)
(0.0292722 0 0.0096221)
(0.0298256 0 0.00996247)
(0.0302984 0 0.010274)
(0.0306984 0 0.0105565)
(0.0310346 0 0.0108103)
(0 0 0)
(0.00341082 0 0.000469017)
(0.00661114 0 0.000911372)
(0.0095413 0 0.0013232)
(0.0122108 0 0.00170874)
(0.0146323 0 0.00207144)
(0.0168202 0 0.00241406)
(0.0187897 0 0.00273871)
(0.0205562 0 0.00304696)
(0.0221351 0 0.00333991)
(0.0235414 0 0.00361829)
(0.0247895 0 0.00388249)
(0.0258928 0 0.00413271)
(0.0268644 0 0.00436892)
(0.027716 0 0.004591)
(0.028459 0 0.00479873)
(0.0291035 0 0.00499189)
(0.0296591 0 0.00517023)
(0.0301344 0 0.00533356)
(0.0305372 0 0.00548176)
(0.0308764 0 0.00561495)
(0 0 0)
(0.00339767 0 0)
(0.00658719 0 0)
(0.00950885 0 0)
(0.0121716 0 0)
(0.0145877 0 0)
(0.0167712 0 0)
(0.0187372 0 0)
(0.0205011 0 0)
(0.022078 0 0)
(0.0234829 0 0)
(0.0247299 0 0)
(0.0258328 0 0)
(0.0268041 0 0)
(0.0276559 0 0)
(0.0283992 0 0)
(0.0290444 0 0)
(0.0296007 0 0)
(0.0300768 0 0)
(0.0304806 0 0)
(0.0308209 0 0)
)
;

boundaryField
{
    inlet
    {
        type            fixedValue;
        value           uniform (0 0 0);
    }
    outlet
    {
        type            fixedValue;
        value           nonuniform 0();
    }
    flap
    {
        type            fixedValue;
        value           nonuniform 0();
    }
    upperWall
    {
        type            slip;
    }
    lowerWall
    {
        type            slip;
    }
    frontAndBack
    {
        type            empty;
    }
    procBoundary0to1
    {
        type            processor;
    }
    procBoundary0to3
    {
        type            processor;
    }
}


// ************************************************************************* //
