/*--------------------------------*- C++ -*----------------------------------*\
| =========                 |                                                 |
| \\      /  F ield         | OpenFOAM: The Open Source CFD Toolbox           |
|  \\    /   O peration     | Version:  dev                                   |
|   \\  /    A nd           | Web:      www.OpenFOAM.org                      |
|    \\/     M anipulation  |                                                 |
\*---------------------------------------------------------------------------*/
FoamFile
{
    version     2.0;
    format      ascii;
    class       volVectorField;
    location    "2.95";
    object      cellDisplacement;
}
// * * * * * * * * * * * * * * * * * * * * * * * * * * * * * * * * * * * * * //

dimensions      [0 1 0 0 0 0 0];

internalField   nonuniform List<vector> 
465
(
(0.207519 0 -0.0331649)
(0.202987 0 -0.0320582)
(0.209157 0 -0.0329377)
(0.204645 0 -0.0319357)
(0.199996 0 -0.0308505)
(0.195174 0 -0.0296944)
(0.210185 0 -0.0325952)
(0.205753 0 -0.031696)
(0.201133 0 -0.0307025)
(0.196298 0 -0.0296271)
(0.191213 0 -0.0284805)
(0.210659 0 -0.0321577)
(0.206347 0 -0.0313552)
(0.201799 0 -0.0304503)
(0.196995 0 -0.0294548)
(0.191902 0 -0.0283788)
(0.186475 0 -0.02723)
(0.180661 0 -0.0260158)
(0.210635 0 -0.0316424)
(0.206466 0 -0.0309282)
(0.20202 0 -0.0301064)
(0.197278 0 -0.0291879)
(0.192215 0 -0.0281819)
(0.18679 0 -0.0270961)
(0.180955 0 -0.0259371)
(0.174654 0 -0.0247098)
(0.167823 0 -0.023418)
(0.210163 0 -0.0310631)
(0.206151 0 -0.0304275)
(0.201825 0 -0.0296819)
(0.19717 0 -0.0288357)
(0.192162 0 -0.027897)
(0.186766 0 -0.0268731)
(0.180939 0 -0.0257699)
(0.174628 0 -0.0245921)
(0.167774 0 -0.023343)
(0.160309 0 -0.022025)
(0.209293 0 -0.0304301)
(0.205441 0 -0.029863)
(0.201245 0 -0.0291858)
(0.196691 0 -0.0284063)
(0.191758 0 -0.0275313)
(0.186412 0 -0.0265671)
(0.180615 0 -0.0255188)
(0.174317 0 -0.0243907)
(0.167461 0 -0.0231858)
(0.159982 0 -0.0219056)
(0.151805 0 -0.0205496)
(0.142855 0 -0.019117)
(0.208068 0 -0.0297506)
(0.204373 0 -0.0292423)
(0.20031 0 -0.0286257)
(0.195867 0 -0.0279067)
(0.19102 0 -0.0270909)
(0.185741 0 -0.0261833)
(0.179992 0 -0.0251883)
(0.173725 0 -0.0241096)
(0.166888 0 -0.0229496)
(0.159419 0 -0.0217095)
(0.151248 0 -0.0203892)
(0.142301 0 -0.0189873)
(0.132497 0 -0.017501)
(0.206529 0 -0.0290294)
(0.202982 0 -0.0285708)
(0.199052 0 -0.028007)
(0.194722 0 -0.0273423)
(0.189971 0 -0.0265807)
(0.184769 0 -0.0257263)
(0.179081 0 -0.0247825)
(0.172861 0 -0.0237521)
(0.16606 0 -0.0226371)
(0.158618 0 -0.0214385)
(0.15047 0 -0.0201558)
(0.141543 0 -0.0187875)
(0.131757 0 -0.0173303)
(0.121023 0 -0.0157784)
(0.109255 0 -0.0141257)
(0.204712 0 -0.0282686)
(0.201304 0 -0.0278516)
(0.1975 0 -0.0273336)
(0.193283 0 -0.026717)
(0.188631 0 -0.0260049)
(0.183513 0 -0.0251999)
(0.177896 0 -0.0243047)
(0.171736 0 -0.0233213)
(0.164985 0 -0.022251)
(0.157586 0 -0.0210945)
(0.149476 0 -0.0198512)
(0.140586 0 -0.0185192)
(0.130838 0 -0.0170952)
(0.12015 0 -0.0155742)
(0.108435 0 -0.0139496)
(0.0955986 0 -0.012213)
(0.20265 0 -0.0274686)
(0.199369 0 -0.0270863)
(0.195684 0 -0.0266075)
(0.191577 0 -0.0260336)
(0.187024 0 -0.0253661)
(0.181995 0 -0.0246069)
(0.176456 0 -0.0237576)
(0.170365 0 -0.0228196)
(0.163674 0 -0.0217935)
(0.15633 0 -0.0206795)
(0.148273 0 -0.0194768)
(0.139435 0 -0.0181835)
(0.129742 0 -0.0167961)
(0.119116 0 -0.01531)
(0.107469 0 -0.0137185)
(0.0947104 0 -0.0120132)
(0.0807359 0 -0.0101827)
(0.0654504 0 -0.00821506)
(0.200373 0 -0.0266279)
(0.197207 0 -0.0262744)
(0.193633 0 -0.0258294)
(0.189631 0 -0.0252931)
(0.185175 0 -0.0246661)
(0.180236 0 -0.0239492)
(0.174779 0 -0.0231432)
(0.168763 0 -0.0222488)
(0.162142 0 -0.0212662)
(0.154865 0 -0.020195)
(0.146872 0 -0.0190342)
(0.138099 0 -0.0177816)
(0.128475 0 -0.0164339)
(0.117924 0 -0.0149865)
(0.106364 0 -0.0134331)
(0.0937039 0 -0.0117656)
(0.0798496 0 -0.00997386)
(0.0647032 0 -0.0080459)
(0.0481612 0 -0.00596751)
(0.197912 0 -0.0257439)
(0.194849 0 -0.0254146)
(0.191377 0 -0.0249987)
(0.187473 0 -0.0244957)
(0.183111 0 -0.0239052)
(0.178261 0 -0.0232274)
(0.172888 0 -0.0224624)
(0.166952 0 -0.02161)
(0.160407 0 -0.0206702)
(0.153204 0 -0.019642)
(0.145285 0 -0.0185242)
(0.136589 0 -0.0173144)
(0.127047 0 -0.0160093)
(0.116586 0 -0.0146045)
(0.105126 0 -0.013094)
(0.0925819 0 -0.0114701)
(0.0788631 0 -0.00972346)
(0.0638741 0 -0.00784273)
(0.047514 0 -0.00581441)
(0.0296765 0 -0.00362267)
(0.195296 0 -0.024813)
(0.192324 0 -0.024504)
(0.188944 0 -0.0241133)
(0.185131 0 -0.0236399)
(0.180858 0 -0.0230828)
(0.176095 0 -0.0224414)
(0.170806 0 -0.0217152)
(0.164952 0 -0.0209036)
(0.158489 0 -0.020006)
(0.151366 0 -0.0190211)
(0.14353 0 -0.0179473)
(0.13492 0 -0.0167824)
(0.125471 0 -0.0155229)
(0.115112 0 -0.0141645)
(0.103766 0 -0.0127016)
(0.0913525 0 -0.011127)
(0.0777843 0 -0.009432)
(0.0629701 0 -0.00760602)
(0.046813 0 -0.00563653)
(0.0292109 0 -0.00350885)
(0.0100199 0 -0.00120173)
(0.192556 0 -0.0238303)
(0.189663 0 -0.0235385)
(0.186364 0 -0.0231702)
(0.182634 0 -0.0227235)
(0.178445 0 -0.0221971)
(0.173765 0 -0.0215899)
(0.168559 0 -0.0209008)
(0.162789 0 -0.020129)
(0.156409 0 -0.0192732)
(0.149373 0 -0.018332)
(0.141626 0 -0.0173037)
(0.13311 0 -0.0161856)
(0.123763 0 -0.0149747)
(0.113516 0 -0.0136667)
(0.102297 0 -0.0122562)
(0.0900266 0 -0.0107366)
(0.0766234 0 -0.00909984)
(0.0620001 0 -0.0073362)
(0.0460652 0 -0.00543424)
(0.0287238 0 -0.00338074)
(0.00984648 0 -0.00115707)
(0.189719 0 -0.0227898)
(0.186894 0 -0.0225131)
(0.183668 0 -0.0221647)
(0.180013 0 -0.0217426)
(0.175901 0 -0.021245)
(0.171301 0 -0.0206703)
(0.166176 0 -0.0200173)
(0.160488 0 -0.0192845)
(0.154194 0 -0.0184706)
(0.147246 0 -0.0175739)
(0.139593 0 -0.0165924)
(0.131178 0 -0.0155237)
(0.121941 0 -0.0143645)
(0.111816 0 -0.0131108)
(0.100733 0 -0.0117577)
(0.0886174 0 -0.0102989)
(0.0753918 0 -0.00872712)
(0.0609736 0 -0.00703347)
(0.0452771 0 -0.00520764)
(0.0282142 0 -0.00323784)
(0.0096668 0 -0.00110754)
(0.186816 0 -0.0216842)
(0.18405 0 -0.0214212)
(0.180887 0 -0.0210913)
(0.1773 0 -0.0206923)
(0.17326 0 -0.0202221)
(0.168734 0 -0.019679)
(0.163687 0 -0.0190614)
(0.15808 0 -0.0183676)
(0.151872 0 -0.017596)
(0.145015 0 -0.0167449)
(0.137458 0 -0.0158122)
(0.129149 0 -0.0147954)
(0.120027 0 -0.0136913)
(0.11003 0 -0.0124963)
(0.0990914 0 -0.0112056)
(0.0871404 0 -0.00981365)
(0.0741029 0 -0.00831371)
(0.0599014 0 -0.0066978)
(0.044456 0 -0.0049567)
(0.0276855 0 -0.00307997)
(0.00948109 0 -0.00105297)
(0.183878 0 -0.0205051)
(0.181163 0 -0.0202551)
(0.178055 0 -0.019943)
(0.174528 0 -0.0195663)
(0.170553 0 -0.019123)
(0.166097 0 -0.0186111)
(0.161124 0 -0.0180288)
(0.155597 0 -0.0173744)
(0.149473 0 -0.0166463)
(0.142706 0 -0.0158424)
(0.135249 0 -0.0149607)
(0.127047 0 -0.0139987)
(0.118044 0 -0.0129536)
(0.108181 0 -0.0118218)
(0.0973932 0 -0.010599)
(0.0856133 0 -0.00928011)
(0.0727717 0 -0.0078591)
(0.0587957 0 -0.00632886)
(0.0436108 0 -0.00468121)
(0.0271425 0 -0.00290698)
(0.00929077 0 -0.000993292)
(0.180941 0 -0.0192428)
(0.178267 0 -0.0190058)
(0.175207 0 -0.0187112)
(0.171734 0 -0.0183568)
(0.167818 0 -0.0179405)
(0.163426 0 -0.0174601)
(0.158524 0 -0.0169139)
(0.153072 0 -0.0163001)
(0.14703 0 -0.0156168)
(0.140354 0 -0.0148623)
(0.132995 0 -0.0140344)
(0.124902 0 -0.0131309)
(0.116021 0 -0.012149)
(0.106294 0 -0.0110854)
(0.0956603 0 -0.00993625)
(0.084056 0 -0.00869706)
(0.0714152 0 -0.0073624)
(0.0576701 0 -0.00592602)
(0.0427516 0 -0.00438076)
(0.0265913 0 -0.00271863)
(0.00909786 0 -0.000928414)
(0.178039 0 -0.0178861)
(0.175401 0 -0.0176625)
(0.172382 0 -0.0173861)
(0.168957 0 -0.0170546)
(0.165094 0 -0.016666)
(0.160761 0 -0.0162182)
(0.155923 0 -0.0157094)
(0.150544 0 -0.0151379)
(0.144581 0 -0.0145019)
(0.137992 0 -0.0137995)
(0.13073 0 -0.0130289)
(0.122746 0 -0.0121879)
(0.113987 0 -0.011274)
(0.104397 0 -0.0102842)
(0.0939182 0 -0.00921507)
(0.0824909 0 -0.00806264)
(0.0700526 0 -0.00682219)
(0.0565402 0 -0.00548825)
(0.0418899 0 -0.00405465)
(0.0260391 0 -0.00251453)
(0.00890477 0 -0.000858218)
(0.175215 0 -0.0164218)
(0.172606 0 -0.0162128)
(0.169623 0 -0.0159557)
(0.166238 0 -0.0156485)
(0.162422 0 -0.0152891)
(0.158143 0 -0.0148756)
(0.153366 0 -0.0144064)
(0.148053 0 -0.0138798)
(0.142166 0 -0.013294)
(0.135661 0 -0.0126474)
(0.128494 0 -0.0119383)
(0.120615 0 -0.0111647)
(0.111975 0 -0.0103242)
(0.10252 0 -0.00941442)
(0.092195 0 -0.00843228)
(0.0809428 0 -0.00737432)
(0.0687053 0 -0.00623647)
(0.0554234 0 -0.00501408)
(0.0410385 0 -0.0037019)
(0.0254938 0 -0.0022941)
(0.00871427 0 -0.000782521)
(0.172513 0 -0.0148349)
(0.169927 0 -0.0146421)
(0.166974 0 -0.0144062)
(0.163624 0 -0.0141252)
(0.15985 0 -0.0137973)
(0.155619 0 -0.0134208)
(0.150897 0 -0.0129941)
(0.145646 0 -0.0125157)
(0.139829 0 -0.0119841)
(0.133404 0 -0.0113978)
(0.126326 0 -0.0107552)
(0.118548 0 -0.0100545)
(0.110023 0 -0.00929395)
(0.100698 0 -0.00847121)
(0.090522 0 -0.00758378)
(0.0794398 0 -0.0066287)
(0.0673971 0 -0.00560258)
(0.0543391 0 -0.00450152)
(0.040212 0 -0.00332112)
(0.0249646 0 -0.00205657)
(0.00852945 0 -0.000701067)
(0.169983 0 -0.0131076)
(0.167416 0 -0.0129333)
(0.164487 0 -0.012721)
(0.161168 0 -0.012469)
(0.15743 0 -0.0121757)
(0.153241 0 -0.0118396)
(0.148567 0 -0.0114594)
(0.143373 0 -0.0110336)
(0.13762 0 -0.0105611)
(0.131268 0 -0.0100405)
(0.124273 0 -0.0094704)
(0.11659 0 -0.00884947)
(0.108172 0 -0.00817608)
(0.0989705 0 -0.0074484)
(0.0889345 0 -0.00666434)
(0.078013 0 -0.0058215)
(0.0661548 0 -0.0049171)
(0.0533091 0 -0.00394796)
(0.0394267 0 -0.00291052)
(0.0244616 0 -0.00180088)
(0.00835381 0 -0.000613516)
(0.167682 0 -0.0112191)
(0.16513 0 -0.0110662)
(0.16222 0 -0.0108807)
(0.158926 0 -0.0106613)
(0.155218 0 -0.0104067)
(0.151065 0 -0.0101155)
(0.146434 0 -0.00978661)
(0.14129 0 -0.00941897)
(0.135594 0 -0.00901151)
(0.129307 0 -0.00856318)
(0.122387 0 -0.00807291)
(0.114789 0 -0.00753956)
(0.106469 0 -0.00696187)
(0.0973795 0 -0.00633842)
(0.0874718 0 -0.00566756)
(0.0766977 0 -0.0049474)
(0.0650089 0 -0.00417578)
(0.0523583 0 -0.00335019)
(0.0387012 0 -0.00246785)
(0.0239964 0 -0.00152571)
(0.00819127 0 -0.000519432)
(0.165672 0 -0.0091452)
(0.163132 0 -0.00901718)
(0.160238 0 -0.0088626)
(0.156963 0 -0.00868033)
(0.15328 0 -0.00846931)
(0.149157 0 -0.00822857)
(0.144562 0 -0.00795722)
(0.139459 0 -0.00765443)
(0.133811 0 -0.00731939)
(0.12758 0 -0.00695133)
(0.120725 0 -0.00654946)
(0.113201 0 -0.00611294)
(0.104967 0 -0.00564087)
(0.0959745 0 -0.00513218)
(0.086179 0 -0.00458567)
(0.0755339 0 -0.00399997)
(0.0639938 0 -0.00337345)
(0.051515 0 -0.00270427)
(0.0380565 0 -0.00199035)
(0.0235823 0 -0.00122944)
(0.0080464 0 -0.000418281)
(0.164028 0 -0.00685684)
(0.161495 0 -0.00675815)
(0.158612 0 -0.00663944)
(0.155353 0 -0.00649991)
(0.151689 0 -0.00633879)
(0.147589 0 -0.00615541)
(0.143021 0 -0.00594914)
(0.137952 0 -0.00571942)
(0.132343 0 -0.00546572)
(0.126157 0 -0.00518752)
(0.119353 0 -0.00488432)
(0.11189 0 -0.00455556)
(0.103724 0 -0.00420065)
(0.0948114 0 -0.0038189)
(0.0851075 0 -0.00340953)
(0.0745681 0 -0.00297159)
(0.06315 0 -0.00250401)
(0.0508123 0 -0.00200554)
(0.0375179 0 -0.00147477)
(0.0232351 0 -0.000910144)
(0.00792461 0 -0.000309432)
(0.162831 0 -0.00431964)
(0.160303 0 -0.00425568)
(0.157428 0 -0.00417901)
(0.154178 0 -0.00408916)
(0.150527 0 -0.00398567)
(0.146443 0 -0.00386816)
(0.141895 0 -0.00373627)
(0.136848 0 -0.0035897)
(0.131267 0 -0.00342814)
(0.125113 0 -0.00325135)
(0.118346 0 -0.00305904)
(0.110926 0 -0.00285094)
(0.10281 0 -0.00262673)
(0.0939549 0 -0.00238604)
(0.0843172 0 -0.00212846)
(0.0738543 0 -0.00185345)
(0.0625247 0 -0.00156042)
(0.0502899 0 -0.00124866)
(0.0371156 0 -0.00091735)
(0.0229741 0 -0.000565616)
(0.00783261 0 -0.00019216)
(0.162177 0 -0.00149326)
(0.159651 0 -0.00147067)
(0.156779 0 -0.00144366)
(0.153535 0 -0.00141206)
(0.14989 0 -0.00137574)
(0.145815 0 -0.00133458)
(0.141277 0 -0.00128845)
(0.136242 0 -0.00123726)
(0.130675 0 -0.00118094)
(0.124538 0 -0.0011194)
(0.117791 0 -0.00105257)
(0.110394 0 -0.000980364)
(0.102305 0 -0.000902692)
(0.0934805 0 -0.000819446)
(0.0838786 0 -0.000730494)
(0.0734571 0 -0.000635677)
(0.0621754 0 -0.000534804)
(0.0499965 0 -0.000427649)
(0.0368877 0 -0.000313954)
(0.0228244 0 -0.000193433)
(0.00777925 0 -6.56766e-05)
)
;

boundaryField
{
    inlet
    {
        type            cellMotion;
        value           nonuniform 0();
    }
    outlet
    {
        type            cellMotion;
        value           uniform (0 0 0);
    }
    flap
    {
        type            cellMotion;
        value           nonuniform 0();
    }
    upperWall
    {
        type            slip;
    }
    lowerWall
    {
        type            slip;
    }
    frontAndBack
    {
        type            empty;
    }
    procBoundary2to1
    {
        type            processor;
        value           nonuniform List<vector> 
17
(
(0.203145 0 -0.0268895)
(0.200581 0 -0.0259871)
(0.197878 0 -0.0250416)
(0.195062 0 -0.0240471)
(0.192162 0 -0.0229966)
(0.189206 0 -0.0218821)
(0.186224 0 -0.0206948)
(0.183251 0 -0.0194242)
(0.18032 0 -0.0180585)
(0.177473 0 -0.0165843)
(0.174753 0 -0.0149858)
(0.172209 0 -0.013245)
(0.169897 0 -0.0113405)
(0.16788 0 -0.00924733)
(0.166231 0 -0.00693597)
(0.165031 0 -0.00437114)
(0.164376 0 -0.0015115)
)
;
    }
    procBoundary2to4
    {
        type            processor;
        value           nonuniform List<vector> 
11
(
(0.211996 0 -0.0341893)
(0.213552 0 -0.0338418)
(0.21444 0 -0.0333851)
(0.214741 0 -0.0328435)
(0.214527 0 -0.0322365)
(0.213863 0 -0.0315782)
(0.212805 0 -0.0308787)
(0.211403 0 -0.0301443)
(0.2097 0 -0.0293784)
(0.207734 0 -0.0285817)
(0.20554 0 -0.0277533)
)
;
    }
    procBoundary2to5
    {
        type            processor;
        value           nonuniform List<vector> 
34
(
(0.205215 0 -0.0332538)
(0.200742 0 -0.0320437)
(0.198363 0 -0.0308808)
(0.198363 0 -0.0308808)
(0.193601 0 -0.0296438)
(0.190125 0 -0.0284755)
(0.190125 0 -0.0284755)
(0.18581 0 -0.0272679)
(0.18581 0 -0.0272679)
(0.180036 0 -0.0259969)
(0.174391 0 -0.0247394)
(0.174391 0 -0.0247394)
(0.167595 0 -0.0234044)
(0.160379 0 -0.0220618)
(0.160379 0 -0.0220618)
(0.152139 0 -0.0206348)
(0.152139 0 -0.0206348)
(0.143188 0 -0.0191718)
(0.133036 0 -0.0176025)
(0.133036 0 -0.0176025)
(0.121728 0 -0.0159215)
(0.121728 0 -0.0159215)
(0.109903 0 -0.0142425)
(0.0963398 0 -0.0123607)
(0.0963398 0 -0.0123607)
(0.0815162 0 -0.0103495)
(0.0815162 0 -0.0103495)
(0.0660862 0 -0.00834644)
(0.0487267 0 -0.00609252)
(0.0487267 0 -0.00609252)
(0.030086 0 -0.00371826)
(0.030086 0 -0.00371826)
(0.0101901 0 -0.00124202)
(0.0101901 0 -0.00124202)
)
;
    }
}


// ************************************************************************* //
