/*--------------------------------*- C++ -*----------------------------------*\
| =========                 |                                                 |
| \\      /  F ield         | OpenFOAM: The Open Source CFD Toolbox           |
|  \\    /   O peration     | Version:  dev                                   |
|   \\  /    A nd           | Web:      www.OpenFOAM.org                      |
|    \\/     M anipulation  |                                                 |
\*---------------------------------------------------------------------------*/
FoamFile
{
    version     2.0;
    format      ascii;
    class       surfaceScalarField;
    location    "4.5";
    object      meshPhi;
}
// * * * * * * * * * * * * * * * * * * * * * * * * * * * * * * * * * * * * * //

dimensions      [0 3 -1 0 0 0 0];

internalField   nonuniform List<scalar> 
5457
(
0.000363016
-2.9982e-06
0.000683693
-8.46378e-06
0.000954277
-1.30481e-05
0.00117992
-1.6879e-05
0.00136513
-2.01016e-05
0.0015142
-2.28293e-05
0.00163089
-2.51286e-05
0.00171917
-2.70237e-05
0.00178236
-2.85952e-05
0.00182278
-2.99256e-05
0.00184229
-3.10486e-05
0.00184242
-3.1981e-05
0.00182407
-3.26462e-05
0.00178832
-3.28835e-05
0.0017374
-3.26861e-05
0.00167348
-3.21678e-05
0.00159774
-3.13373e-05
0.00151035
-3.00856e-05
0.00141215
-2.82864e-05
0.00130483
-2.5865e-05
0.00118929
-2.2732e-05
0.00106605
-1.87163e-05
0.000936206
-1.35968e-05
0.000801609
-7.14988e-06
0.000664423
8.40415e-07
0.000527461
1.06038e-05
0.000395667
2.25449e-05
0.000278233
3.72018e-05
0.000196391
5.43014e-05
7.38089e-05
0.00036354
-6.00744e-06
0.000684385
-1.69519e-05
0.000955472
-2.6129e-05
0.00118174
-3.38083e-05
0.00136752
-4.02712e-05
0.00151719
-4.57538e-05
0.00163433
-5.0388e-05
0.00172315
-5.41938e-05
0.00178717
-5.73478e-05
0.00182855
-6.00321e-05
0.00184925
-6.23073e-05
0.0018509
-6.42226e-05
0.00183416
-6.56179e-05
0.00179963
-6.61251e-05
0.00174999
-6.57431e-05
0.00168801
-6.47665e-05
0.00161507
-6.32415e-05
0.0015305
-6.0916e-05
0.00143506
-5.74983e-05
0.00133148
-5.28804e-05
0.00122077
-4.69472e-05
0.00110295
-3.93669e-05
0.000979264
-2.96873e-05
0.000852549
-1.75006e-05
0.00072567
-2.49547e-06
0.000601451
1.56707e-05
0.000484694
3.75473e-05
0.000386057
6.3627e-05
0.000331217
9.26172e-05
0.000120877
0.000364703
-9.03787e-06
0.000685753
-2.54817e-05
0.000957893
-3.92604e-05
0.00118544
-5.08208e-05
0.00137235
-6.05515e-05
0.00152329
-6.88179e-05
0.00164124
-7.58118e-05
0.00173111
-8.15142e-05
0.00179678
-8.62513e-05
0.0018401
-9.0321e-05
0.00186306
-9.378e-05
0.00186785
-9.67852e-05
0.00185452
-9.91136e-05
0.00182227
-9.99899e-05
0.00177492
-9.94147e-05
0.00171661
-9.80746e-05
0.00164967
-9.61387e-05
0.00157083
-9.31189e-05
0.00148021
-8.84281e-05
0.0013839
-8.20372e-05
0.00128309
-7.39861e-05
0.001176
-6.3803e-05
0.0010635
-5.07464e-05
0.00095126
-3.42636e-05
0.000844118
-1.41093e-05
0.000746212
9.96641e-06
0.000662561
3.81807e-05
0.000598482
7.04197e-05
0.000586939
0.000104075
0.000133031
0.000366723
-1.21014e-05
0.00068761
-3.40649e-05
0.000961494
-5.2425e-05
0.00119107
-6.78786e-05
0.0013795
-8.08721e-05
0.00153247
-9.19497e-05
0.00165154
-0.000101363
0.00174287
-0.000108928
0.00181112
-0.000115227
0.00185726
-0.000120723
0.00188333
-0.000125362
0.00189153
-0.00012919
0.00188229
-0.000132101
0.00185448
-0.000133585
0.00181168
-0.000133521
0.00175815
-0.000132297
0.00169844
-0.000130148
0.00162886
-0.000126855
0.00154695
-0.000121671
0.00146126
-0.000114281
0.00137687
-0.000105068
0.00128658
-9.37346e-05
0.00118856
-7.90187e-05
0.00109524
-6.01811e-05
0.00101431
-3.73226e-05
0.000951402
-1.04811e-05
0.000915151
1.9578e-05
0.000902818
5.14175e-05
0.000947683
8.19542e-05
0.000107199
0.000369907
-1.50651e-05
0.000689191
-4.24002e-05
0.000965938
-6.53978e-05
0.00119869
-8.49005e-05
0.00138881
-0.000101126
0.00154424
-0.000114665
0.00166444
-0.000126302
0.0017581
-0.000136069
0.00183005
-0.000144244
0.00187991
-0.000151265
0.00190971
-0.000157168
0.00192001
-0.000161591
0.00191386
-0.000164622
0.0018937
-0.000166873
0.00185967
-0.000168156
0.00181299
-0.000167865
0.00175856
-0.000165878
0.00169987
-0.000162491
0.00163279
-0.000157473
0.00156026
-0.000150011
0.00149547
-0.000140571
0.00143188
-0.00012991
0.00135628
-0.000116205
0.00128491
-9.76053e-05
0.00123557
-7.513e-05
0.00121187
-4.99912e-05
0.0012245
-2.35757e-05
0.0012789
1.6932e-06
0.00139721
2.22966e-05
3.90071e-05
0.00037149
-1.78148e-05
0.000691904
-5.0383e-05
0.000973832
-7.82518e-05
0.00120813
-0.00010168
0.00139766
-0.000120681
0.00155629
-0.00013646
0.00168049
-0.000150488
0.00177798
-0.000163013
0.00185356
-0.000173368
0.00190803
-0.000181962
0.00194267
-0.000189423
0.00195636
-0.000195113
0.00195493
-0.000199125
0.00194302
-0.000202272
0.00191948
-0.000204482
0.00188406
-0.000205384
0.00183662
-0.000204434
0.00178724
-0.000201484
0.00173617
-0.000196897
0.00167866
-0.000190203
0.00162814
-0.000181373
0.0015949
-0.000171956
0.00155768
-0.000161459
0.00151951
-0.000147077
0.00150988
-0.000129252
0.00153338
-0.000110821
0.00159839
-9.40359e-05
0.00172222
-8.12571e-05
0.00191367
-7.60372e-05
-7.42449e-05
0.000367958
-2.05269e-05
0.00069798
-5.8406e-05
0.000986156
-9.09347e-05
0.0012163
-0.000117602
0.00140461
-0.000139248
0.00156987
-0.000158121
0.00170271
-0.000175359
0.00180432
-0.000190668
0.00188139
-0.00020281
0.00193983
-0.000212343
0.00197917
-0.000220715
0.0019992
-0.000227768
0.00200641
-0.000233546
0.00200358
-0.000238389
0.00199176
-0.000242183
0.00197289
-0.000245045
0.00193847
-0.000246067
0.0018976
-0.000244289
0.00186044
-0.000240715
0.0018213
-0.000235879
0.00178518
-0.00022939
0.00177272
-0.000222168
0.00177971
-0.000215388
0.00179367
-0.000207836
0.00183307
-0.000198853
0.00191139
-0.000191237
0.00203693
-0.000188436
0.0022227
-0.000192926
0.00246478
-0.000206737
-0.000225195
0.000366653
-2.34918e-05
0.000705969
-6.67238e-05
0.000996475
-0.000103319
0.00122269
-0.000133195
0.00141525
-0.000158136
0.00159015
-0.000180392
0.00173129
-0.000200537
0.00183392
-0.000217823
0.00191028
-0.000231323
0.00197123
-0.000241782
0.00201414
-0.000250712
0.00204138
-0.000258834
0.00205882
-0.000266401
0.00206979
-0.000273647
0.00207449
-0.00028029
0.00207466
-0.000285921
0.00205649
-0.000289462
0.0020274
-0.000289799
0.00200714
-0.000288442
0.00199138
-0.000286682
0.00198151
-0.000284363
0.00199035
-0.000281884
0.00203379
-0.000280375
0.00210233
-0.000280332
0.00219424
-0.000281894
0.00232659
-0.000287323
0.00250778
-0.000300013
0.00274096
-0.000322256
0.00300761
-0.000353664
-0.000390839
0.000375277
-2.65304e-05
0.000714292
-7.49514e-05
0.00100301
-0.000115514
0.00123186
-0.000149044
0.00143172
-0.000177517
0.00161478
-0.000202654
0.00176004
-0.000224559
0.00186152
-0.000242999
0.00193943
-0.000258523
0.00200489
-0.000271482
0.00205357
-0.000282313
0.00208966
-0.000292181
0.0021178
-0.000301662
0.00214359
-0.000310914
0.00216482
-0.000319654
0.0021792
-0.000327183
0.00217799
-0.00033302
0.00216994
-0.000336822
0.00217293
-0.000339391
0.00218469
-0.000341829
0.00220846
-0.000344573
0.00225136
-0.00034827
0.00232872
-0.000353955
0.00243936
-0.000362406
0.00257863
-0.000374565
0.00275694
-0.000392572
0.00297804
-0.000418872
0.00323709
-0.000454447
0.00350263
-0.000496015
-0.000541699
0.000385358
-2.92786e-05
0.000722446
-8.27128e-05
0.00101056
-0.000127515
0.00124542
-0.000164851
0.00145123
-0.000196824
0.0016379
-0.000224668
0.00178493
-0.000248167
0.00188987
-0.000268061
0.00197487
-0.000286209
0.00204757
-0.000302284
0.00210538
-0.000315673
0.00215266
-0.000327746
0.00219232
-0.000339275
0.00222931
-0.00035024
0.00226274
-0.000360616
0.00228351
-0.000369457
0.00229914
-0.000377121
0.0023224
-0.000385094
0.00235329
-0.000392825
0.00239448
-0.000400254
0.00245147
-0.000408575
0.00253155
-0.00041874
0.00264409
-0.000431921
0.00279019
-0.000449061
0.00296822
-0.000471025
0.0031809
-0.000499171
0.00342494
-0.000534402
0.00368737
-0.000575424
0.00393006
-0.00061643
-0.000654926
0.00038957
-3.19743e-05
0.000730315
-9.04992e-05
0.00102128
-0.000139789
0.00126336
-0.00018106
0.00147373
-0.000216351
0.00165987
-0.000246691
0.00181002
-0.000272379
0.0019241
-0.000294347
0.00201753
-0.000314373
0.00209703
-0.000332701
0.00216514
-0.000348719
0.00222465
-0.000363277
0.00227594
-0.000376997
0.00232291
-0.000389852
0.00236594
-0.000401927
0.0023926
-0.000412476
0.00242768
-0.000422843
0.00248423
-0.000435238
0.00254361
-0.000448062
0.00261375
-0.000460634
0.00270172
-0.000474559
0.00281423
-0.000490963
0.00295898
-0.000511106
0.00313691
-0.000535895
0.00334461
-0.000565596
0.00357955
-0.000600309
0.00383208
-0.000638986
0.00408291
-0.000677664
0.00429508
-0.000708869
-0.000728279
0.000391981
-3.47573e-05
0.000738652
-9.84357e-05
0.00103485
-0.000152273
0.00128424
-0.0001975
0.00149781
-0.000235881
0.00168363
-0.000268644
0.00183877
-0.000296837
0.00196251
-0.000321268
0.00206284
-0.00034287
0.00214939
-0.000362781
0.00222884
-0.000381482
0.00230027
-0.000398801
0.00236288
-0.000414777
0.00242014
-0.000429659
0.00247051
-0.000443343
0.00251188
-0.000456348
0.00257231
-0.000470788
0.00265429
-0.00048725
0.00273881
-0.000504122
0.00283531
-0.000521413
0.00295071
-0.000540494
0.00309073
-0.000562447
0.00326222
-0.000588419
0.00346491
-0.000619017
0.00369272
-0.000653808
0.00393954
-0.000691693
0.00419188
-0.000729931
0.00442843
-0.000762403
0.00461891
-0.000780416
-0.000779503
0.000395453
-3.74795e-05
0.000747674
-0.000106202
0.0010503
-0.000164486
0.0013059
-0.000213621
0.00152157
-0.000255097
0.00170949
-0.000290303
0.001871
-0.000321027
0.00200351
-0.000348216
0.00211112
-0.00037212
0.00220659
-0.000393853
0.0022973
-0.000414662
0.00237928
-0.0004343
0.00245303
-0.000452512
0.00252113
-0.000469672
0.00258181
-0.000485825
0.00264551
-0.000502057
0.0027297
-0.000520045
0.00282793
-0.000539497
0.00293321
-0.00055963
0.00305231
-0.000580953
0.00319072
-0.000604399
0.0033531
-0.000630886
0.00354465
-0.000661199
0.00376351
-0.000695421
0.00400229
-0.000732702
0.004253
-0.000771338
0.00450171
-0.000808006
0.00473079
-0.000836208
0.00491859
-0.000845818
-0.000839527
0.00039954
-4.01267e-05
0.000757173
-0.000113746
0.00106716
-0.000176344
0.00132797
-0.000229064
0.00154411
-0.00027331
0.00173603
-0.000311122
0.00190621
-0.000344686
0.00204791
-0.000374764
0.00216394
-0.000401303
0.00226836
-0.000425074
0.00236876
-0.000447642
0.00246069
-0.00046928
0.00254571
-0.000489721
0.00262617
-0.000509292
0.00270321
-0.000528362
0.00278759
-0.000547725
0.00288761
-0.000568288
0.00299893
-0.000590142
0.00312138
-0.000613168
0.00325896
-0.000637769
0.00341552
-0.000664578
0.00359466
-0.000694253
0.0037992
-0.000727173
0.00402595
-0.000762937
0.00426747
-0.000800429
0.00451499
-0.000837896
0.00475628
-0.000872826
0.0049816
-0.000901674
0.00518124
-0.000915999
-0.000949047
0.000403966
-4.27001e-05
0.000766677
-0.000121056
0.00108297
-0.000187668
0.00134786
-0.000243496
0.00156634
-0.000290484
0.00176452
-0.000331389
0.00194412
-0.000367963
0.00209422
-0.000400506
0.00221729
-0.000429124
0.00233063
-0.000455001
0.00244102
-0.000479772
0.00254317
-0.000503563
0.00263954
-0.000526193
0.00273297
-0.000548087
0.00282662
-0.000569709
0.00292707
-0.000591675
0.00303929
-0.000614581
0.00316319
-0.000638665
0.00329974
-0.000664065
0.00345166
-0.000691112
0.00362128
-0.000720171
0.00381112
-0.000751604
0.00402214
-0.000785458
0.00424981
-0.000820892
0.00448652
-0.00085643
0.00472293
-0.000890126
0.00494594
-0.00091938
0.00514172
-0.000940851
0.00528989
-0.000945987
-0.00122561
0.000297324
-0.000156082
0.000555158
-0.00017347
0.00093481
-0.000201179
0.0013764
-0.000221813
0.00182164
-0.000233295
0.00223647
-0.000236705
0.00260104
-0.000234469
0.00290572
-0.000228387
0.0031503
-0.000220306
0.00334609
-0.000210344
0.00351064
-0.00019847
0.00363857
-0.000188211
0.00371631
-0.00017973
0.00374893
-0.000167635
0.00374208
-0.000153136
0.00369822
-0.000139238
0.00362666
-0.000123619
0.00353031
-0.000110688
0.0033984
-0.000101751
0.00323534
-8.86972e-05
0.00305749
-7.27848e-05
0.0028612
-6.13492e-05
0.00263717
-5.40622e-05
0.00238106
-4.73262e-05
0.0020911
-4.0631e-05
0.00176679
-3.42303e-05
0.00140269
-2.76679e-05
0.000991493
-2.08149e-05
0.00052178
-1.33146e-05
-4.67651e-06
0.000444518
-0.00031046
0.000715866
-0.000348455
0.00109519
-0.000399823
0.00152092
-0.00043584
0.00194452
-0.000454155
0.0023402
-0.000459289
0.00268671
-0.000455357
0.00297408
-0.000443748
0.00320447
-0.000428006
0.00339216
-0.000413073
0.00355328
-0.000399534
0.00367566
-0.000384242
0.00374351
-0.000363389
0.00376599
-0.000332558
0.00375174
-0.00029463
0.00370321
-0.000257956
0.00362947
-0.000226387
0.00353311
-0.000202599
0.00340503
-0.000184569
0.00324469
-0.000164277
0.00306384
-0.000141955
0.00286464
-0.000124467
0.00264094
-0.000111558
0.00238417
-9.8268e-05
0.00209308
-8.45622e-05
0.00176926
-7.15391e-05
0.00140618
-5.79375e-05
0.000996851
-4.3678e-05
0.000526867
-2.8044e-05
-9.86246e-06
0.000725152
-0.000472241
0.00101894
-0.000526163
0.0013911
-0.000591473
0.00178445
-0.000633996
0.00217064
-0.000654083
0.00253452
-0.000660384
0.00284688
-0.000655987
0.00309916
-0.000638346
0.00330585
-0.000613505
0.0034782
-0.000590608
0.00362463
-0.000570194
0.00373185
-0.000548481
0.00378391
-0.000519911
0.00379246
-0.000477921
0.00376903
-0.000425063
0.00371516
-0.000372307
0.00363929
-0.000328936
0.00354225
-0.000296519
0.00341742
-0.000271553
0.00325963
-0.000248631
0.00307457
-0.000223982
0.00287127
-0.000200641
0.00264945
-0.000181144
0.00239144
-0.000161409
0.00209692
-0.000139139
0.00177432
-0.000116943
0.00141325
-9.52844e-05
0.00100844
-7.26418e-05
0.00053859
-4.68396e-05
-1.64769e-05
0.00112059
-0.000645983
0.00143076
-0.00070375
0.00178154
-0.00076993
0.00213103
-0.000810378
0.00247042
-0.00082788
0.00279117
-0.000832234
0.00305427
-0.000826228
0.00326016
-0.000804455
0.00343784
-0.000773152
0.00358628
-0.000741771
0.00370817
-0.000710247
0.00379307
-0.000677837
0.00382795
-0.000642949
0.00382616
-0.000599626
0.00379714
-0.000546675
0.00373996
-0.000491816
0.00366149
-0.000443627
0.00356106
-0.000404193
0.0034351
-0.000371781
0.00327803
-0.000342854
0.00309004
-0.000312748
0.00288078
-0.00028118
0.00265948
-0.000252568
0.00240392
-0.000226494
0.00210508
-0.000196544
0.00177742
-0.000164237
0.00141883
-0.00013387
0.00102799
-0.000103486
0.000561261
-6.83443e-05
-2.45831e-05
0.00160796
-0.000822954
0.00191493
-0.000872167
0.00222824
-0.00092891
0.00252612
-0.00096132
0.00280942
-0.000972941
0.00306657
-0.000969633
0.00327181
-0.000957525
0.0034399
-0.000936626
0.00358821
-0.000906608
0.00370763
-0.000871724
0.00380065
-0.000833587
0.00385746
-0.000791426
0.00387575
-0.00074877
0.00386902
-0.000705936
0.0038366
-0.000657206
0.00377697
-0.000604734
0.00369445
-0.000555259
0.00358857
-0.000510635
0.0034581
-0.000470722
0.00329934
-0.00043368
0.00311062
-0.000396727
0.00289472
-0.000358081
0.00266785
-0.000319763
0.00241802
-0.00028486
0.00211718
-0.000249223
0.00177587
-0.000210003
0.0014132
-0.000170082
0.00103617
-0.000130426
0.000580036
-8.69792e-05
-3.18958e-05
0.00215541
-0.000981804
0.00243581
-0.00101698
0.00269768
-0.0010604
0.00293743
-0.00108355
0.00315711
-0.00108994
0.00333809
-0.00108054
0.00349078
-0.00106271
0.00363384
-0.00104309
0.00375135
-0.00101678
0.00384024
-0.000981938
0.00390308
-0.000941345
0.00393011
-0.000894362
0.00393281
-0.000846474
0.00392141
-0.000802536
0.00388339
-0.000755976
0.0038199
-0.000705269
0.00373235
-0.000655205
0.00362031
-0.000606921
0.00348468
-0.000561447
0.00332274
-0.000518273
0.00313384
-0.000475728
0.00291572
-0.000432053
0.00268018
-0.000385791
0.00242735
-0.000340998
0.00212495
-0.000298942
0.00177491
-0.000254231
0.00139926
-0.000205536
0.00101608
-0.000155026
0.000573258
-0.0001013
-3.67769e-05
0.00272007
-0.00109808
0.0029547
-0.00112515
0.00315792
-0.00115815
0.00333909
-0.00117581
0.0034982
-0.00118072
0.00361914
-0.00117228
0.00373007
-0.00115508
0.00384067
-0.00113492
0.00392218
-0.00110896
0.00397953
-0.00107487
0.00401365
-0.0010345
0.00401718
-0.000988051
0.00400483
-0.000939412
0.00398234
-0.000892771
0.00393494
-0.000844873
0.00386593
-0.000794985
0.00377277
-0.000744968
0.00365343
-0.000693779
0.00351292
-0.000643982
0.00334707
-0.000596195
0.00315663
-0.000547882
0.00294145
-0.000499137
0.00269927
-0.000448486
0.00243299
-0.000397239
0.00212638
-0.00034757
0.00177491
-0.00029572
0.00139057
-0.000239675
0.00099386
-0.000180087
0.000552189
-0.000115295
-4.08817e-05
0.00325543
-0.00116356
0.00343678
-0.00119414
0.00358511
-0.00122373
0.00371504
-0.00124156
0.00382487
-0.00124843
0.00390807
-0.00124392
0.00398522
-0.00123097
0.00405291
-0.00121227
0.00409461
-0.00118607
0.00412091
-0.00115245
0.00412945
-0.00111335
0.00411601
-0.0010694
0.00408853
-0.00102253
0.00404918
-0.000974505
0.00398922
-0.00092439
0.00391219
-0.000873232
0.00381343
-0.000822558
0.00368661
-0.000770012
0.00354061
-0.000716843
0.00337228
-0.000665248
0.0031786
-0.00061239
0.00296383
-0.000558604
0.0027179
-0.000505191
0.00244005
-0.000450479
0.00212785
-0.000394132
0.00177314
-0.000334704
0.00138859
-0.000271179
0.000987704
-0.000203874
0.000535372
-0.000129803
-4.55093e-05
0.00372737
-0.0011895
0.00386269
-0.00123423
0.00396893
-0.00126671
0.0040584
-0.00128845
0.00412883
-0.00129864
0.00417949
-0.00129708
0.00422365
-0.00128668
0.00425284
-0.00127061
0.00426051
-0.00124718
0.00425919
-0.00121569
0.00424533
-0.00117864
0.00421625
-0.00113724
0.00417389
-0.00109237
0.00411827
-0.00104492
0.004045
-0.000994508
0.00395589
-0.000941507
0.00385047
-0.000888608
0.00371911
-0.00083581
0.00356667
-0.00078084
0.00339697
-0.000725731
0.00320055
-0.000670905
0.00298022
-0.00061453
0.0027313
-0.000557552
0.00244865
-0.000498975
0.00213206
-0.000437272
0.00177343
-0.000371425
0.0013881
-0.000300517
0.000983961
-0.000225049
0.00052279
-0.000142635
-4.98316e-05
0.00412717
-0.00120248
0.00423273
-0.00126328
0.00431146
-0.00130015
0.00436953
-0.00132517
0.0044061
-0.00133729
0.00442267
-0.00133729
0.00442664
-0.00132744
0.00442423
-0.001312
0.00441249
-0.00129199
0.00438961
-0.00126489
0.0043565
-0.00123127
0.00431175
-0.0011929
0.00425537
-0.00115048
0.00418642
-0.00110464
0.00410183
-0.00105547
0.00400056
-0.00100293
0.0038863
-0.00094907
0.00375184
-0.00089542
0.00359397
-0.000839678
0.00341967
-0.0007824
0.0032209
-0.000725437
0.00299528
-0.00066706
0.00274251
-0.000606529
0.00245754
-0.000543555
0.00213833
-0.00047706
0.00177935
-0.000405865
0.00139005
-0.000328675
0.000973965
-0.000245092
0.000508128
-0.000153862
-5.33439e-05
0.00447192
-0.00122802
0.00456202
-0.00129711
0.00462091
-0.00133397
0.0046511
-0.0013573
0.00465638
-0.0013678
0.00464118
-0.00136774
0.00460801
-0.0013589
0.00457729
-0.00134419
0.00454967
-0.00132584
0.00450929
-0.00130232
0.00445963
-0.00127259
0.00440056
-0.00123756
0.00433148
-0.00119797
0.00425111
-0.00115438
0.0041572
-0.0011071
0.00404769
-0.00105646
0.0039248
-0.00100359
0.00378483
-0.000949324
0.00362297
-0.000893008
0.00344243
-0.000834867
0.00323952
-0.000775566
0.00301044
-0.000714412
0.0027539
-0.000650777
0.00246653
-0.0005841
0.00214541
-0.000513388
0.00178681
-0.000437375
0.00139304
-0.000354709
0.000961914
-0.000264046
0.000490631
-0.000164224
-5.63151e-05
0.00479066
-0.0012775
0.00486737
-0.00134158
0.00490235
-0.00136987
0.00490208
-0.00138465
0.00487666
-0.00138982
0.00483406
-0.00138804
0.0047778
-0.00138046
0.00472329
-0.00136797
0.00467329
-0.00135142
0.0046162
-0.00133037
0.00455212
-0.00130398
0.00448057
-0.0012723
0.00440049
-0.00123576
0.00431039
-0.00119481
0.0042083
-0.00114981
0.00409249
-0.00110116
0.00396264
-0.00104959
0.00381624
-0.000995634
0.00365038
-0.000939235
0.00346483
-0.000880526
0.00325715
-0.000819733
0.00302445
-0.000756496
0.00276468
-0.000690298
0.002475
-0.000620508
0.00215209
-0.000546143
0.00179241
-0.000465895
0.00139547
-0.000378383
0.00095599
-0.000281959
0.000480651
-0.000175301
-6.00434e-05
0.00510296
-0.00134653
0.00515261
-0.00138997
0.00515012
-0.00139991
0.00511419
-0.00140129
0.00505932
-0.00140029
0.00499395
-0.0013972
0.00492223
-0.00139121
0.00485009
-0.00138148
0.00478006
-0.0013678
0.00470835
-0.00134976
0.0046323
-0.00132667
0.00455043
-0.00129833
0.00446123
-0.00126497
0.00436299
-0.00122688
0.00425386
-0.0011844
0.00413208
-0.00113792
0.00399635
-0.00108793
0.00384459
-0.00103486
0.0036745
-0.000978828
0.00348468
-0.00091994
0.00327297
-0.000858255
0.00303689
-0.000793517
0.0027742
-0.00072527
0.00248227
-0.000652871
0.00215769
-0.000575356
0.00179697
-0.000491449
0.00139885
-0.000399783
0.000959842
-0.000298865
0.000485644
-0.000187097
-6.45626e-05
0.00539916
-0.00142127
0.00540341
-0.00142366
0.00535021
-0.0014078
0.00527674
-0.00139878
0.00519792
-0.00139596
0.00511633
-0.00139465
0.00503317
-0.00139208
0.00494996
-0.00138624
0.00486791
-0.00137628
0.00478558
-0.0013617
0.00470033
-0.00134203
0.00461029
-0.00131708
0.0045137
-0.00128694
0.00440878
-0.00125183
0.00429366
-0.00121202
0.00416655
-0.00116784
0.0040258
-0.00111968
0.00386944
-0.00106786
0.00369538
-0.00101255
0.00350181
-0.000953845
0.00328662
-0.000891723
0.00304749
-0.000825957
0.00278213
-0.000756116
0.002488
-0.000681554
0.00216189
-0.000601339
0.0018006
-0.000514258
0.00140265
-0.000418939
0.000966826
-0.000313846
0.000494864
-0.000197165
-6.82751e-05
0.00571913
-0.00156128
0.00561545
-0.00133864
0.00550008
-0.00135474
0.00539136
-0.00136544
0.00529585
-0.00137415
0.00520615
-0.00138088
0.00511687
-0.0013845
0.00502783
-0.00138371
0.00493908
-0.00137808
0.00484967
-0.00136734
0.00475767
-0.00135126
0.00466129
-0.00132977
0.00455875
-0.0013029
0.00444827
-0.00127083
0.00432805
-0.00123378
0.00419626
-0.00119203
0.00405114
-0.00114587
0.00389075
-0.00109556
0.00371309
-0.00104126
0.00351619
-0.000983039
0.00329795
-0.000920837
0.00305613
-0.000854428
0.0027884
-0.000783387
0.00249226
-0.000707069
0.00216483
-0.000624572
0.00180323
-0.000534722
0.00140571
-0.000436126
0.000971259
-0.000327176
0.000499577
-0.000205889
-7.13976e-05
0.000424199
-4.521e-05
0.000805561
-0.000128173
0.00113736
-0.000198607
0.00141704
-0.000257672
0.00165257
-0.000307852
0.00186578
-0.000351801
0.00205887
-0.000390849
0.0022207
-0.000425165
0.00235589
-0.000455625
0.00248499
-0.00048414
0.00261038
-0.00051147
0.00272697
-0.000537361
0.00283848
-0.000562083
0.00294823
-0.000586134
0.0030598
-0.000609987
0.00317793
-0.000634142
0.00330633
-0.000659041
0.00344639
-0.000684953
0.00359961
-0.000712077
0.00376789
-0.000740643
0.00395243
-0.0007708
0.00415497
-0.000802639
0.00437474
-0.000835843
0.00460573
-0.0008692
0.00484017
-0.000900968
0.00506866
-0.000928934
0.00527829
-0.000949855
0.00545328
-0.000959143
0.00557484
-0.000949474
-0.000920355
0.00539447
0.000439421
-4.76377e-05
0.00083465
-0.000135065
0.00117736
-0.000209306
0.00147007
-0.00027183
0.00172192
-0.000325232
0.00194692
-0.000371837
0.00214837
-0.000413036
0.00232013
-0.000449384
0.00247019
-0.000482161
0.00261438
-0.000513102
0.00275191
-0.000542487
0.00288147
-0.00057024
0.0030067
-0.000596861
0.00313095
-0.000622817
0.00325765
-0.000648546
0.00339047
-0.000674454
0.00353235
-0.000700881
0.00368507
-0.000728056
0.00385015
-0.000756143
0.00402878
-0.00078525
0.00422144
-0.000815357
0.00442874
-0.000846275
0.00464814
-0.00087736
0.00487307
-0.000907301
0.00509638
-0.000934412
0.00530974
-0.00095667
0.00550402
-0.000971676
0.00567251
-0.000977106
0.00581493
-0.000970319
-0.000956772
0.00593668
0.000455174
-4.99576e-05
0.000864803
-0.000141663
0.00122014
-0.000219597
0.00152674
-0.000285415
0.00179333
-0.000341802
0.00203001
-0.000390967
0.00224085
-0.000434406
0.00242535
-0.000473106
0.00259151
-0.000508249
0.00274877
-0.00054106
0.0028977
-0.000572047
0.00303987
-0.000601455
0.00317829
-0.000629714
0.00331611
-0.00065725
0.00345641
-0.000684448
0.00360212
-0.000711634
0.00375558
-0.00073905
0.0039185
-0.000766847
0.00409218
-0.000795119
0.00427727
-0.000823878
0.00447358
-0.000852955
0.00468026
-0.000881927
0.00489373
-0.000910005
0.00510795
-0.00093599
0.00531651
-0.000958512
0.00551233
-0.000976091
0.00568843
-0.000987306
0.00583988
-0.000990999
0.00596373
-0.000985518
-0.00097956
0.00605532
0.000471424
-5.21492e-05
0.000896027
-0.000147905
0.00126503
-0.000229357
0.00158561
-0.000298283
0.00186621
-0.000357449
0.00211517
-0.000409047
0.00233732
-0.000454669
0.00253546
-0.000495505
0.00271588
-0.000532683
0.00288514
-0.000567212
0.00304575
-0.000599696
0.00320004
-0.000630532
0.00335083
-0.000660138
0.003501
-0.000688903
0.00365326
-0.00071716
0.00380992
-0.000745161
0.00397273
-0.000773046
0.00414302
-0.000800854
0.00432204
-0.000828616
0.00451004
-0.000856313
0.00470604
-0.000883678
0.00490796
-0.000910152
0.00511218
-0.000934976
0.00531357
-0.000957217
0.0055064
-0.000975839
0.00568483
-0.000989832
0.00584313
-0.000998292
0.00597702
-0.0010005
0.00608455
-0.000995877
-0.00099408
0.00616011
0.000488114
-5.41897e-05
0.000928202
-0.000153726
0.00131152
-0.000238474
0.00164619
-0.000310297
0.00194055
-0.000372036
0.00220217
-0.000425909
0.00243647
-0.00047358
0.00264769
-0.000516337
0.00284129
-0.000555285
0.00302254
-0.000591339
0.00319469
-0.000625143
0.00336048
-0.000657167
0.00352266
-0.000687825
0.00368388
-0.000717475
0.00384652
-0.00074641
0.00401233
-0.000774822
0.00418225
-0.000802751
0.004357
-0.000830052
0.00453825
-0.000856704
0.00472627
-0.000882814
0.00491908
-0.000908088
0.00511399
-0.000931913
0.00530782
-0.000953659
0.00549619
-0.000972621
0.00567375
-0.00098794
0.00583555
-0.000998865
0.00597717
-0.00100489
0.00609557
-0.00100577
0.0061899
-0.00100174
-0.00100123
0.00625427
0.000505158
-5.60549e-05
0.000961133
-0.000159055
0.0013592
-0.000246835
0.00170807
-0.000321318
0.0020161
-0.000385412
0.00229061
-0.000441372
0.00253735
-0.000490914
0.00276122
-0.000535377
0.00296729
-0.000575851
0.0031602
-0.000613215
0.00334346
-0.000648127
0.00352
-0.000681086
0.00369252
-0.000712501
0.0038635
-0.000742706
0.00403507
-0.00077197
0.00420868
-0.000800475
0.00438387
-0.000828195
0.00455983
-0.000854583
0.00474029
-0.000879535
0.0049265
-0.0009037
0.00511461
-0.000926851
0.00530176
-0.000948169
0.00548502
-0.000967094
0.00566036
-0.000983028
0.00582317
-0.000995328
0.00596959
-0.00100355
0.00609655
-0.0010075
0.0062022
-0.00100726
0.00628598
-0.00100332
-0.0010024
0.00634231
0.000522446
-5.77199e-05
0.000994592
-0.000163821
0.00140768
-0.00025433
0.00177083
-0.000331209
0.00209251
-0.000397421
0.00237995
-0.000455255
0.00263916
-0.000506462
0.0028753
-0.000552407
0.00309323
-0.000594173
0.0032973
-0.000632619
0.00349105
-0.000668407
0.00367749
-0.000702045
0.00385924
-0.000733931
0.00403863
-0.000764372
0.00421781
-0.000793629
0.0043988
-0.000821976
0.00457684
-0.000848995
0.00474928
-0.000873677
0.00492739
-0.000896717
0.00511201
-0.000919302
0.0052949
-0.000940593
0.00547392
-0.000959529
0.00564637
-0.000975753
0.00580888
-0.000988863
0.005958
-0.000998486
0.00609094
-0.00100441
0.00620559
-0.00100661
0.00630073
-0.00100529
0.00637603
-0.00100094
-0.000998838
0.00642643
0.000539854
-5.916e-05
0.00102833
-0.000167955
0.00145658
-0.000260852
0.00183405
-0.000339835
0.00216931
-0.000407905
0.00246964
-0.000467377
0.00274117
-0.000520023
0.00298919
-0.00056722
0.00321842
-0.000610045
0.00343301
-0.00064934
0.00363651
-0.000685765
0.00383194
-0.000719833
0.00402176
-0.000751922
0.00420807
-0.00078229
0.004393
-0.00081116
0.00457912
-0.000838745
0.00475725
-0.000864354
0.00492594
-0.000887444
0.0051027
-0.000909339
0.00528496
-0.000930527
0.00546173
-0.000949759
0.00563203
-0.000966308
0.00579373
-0.000979996
0.00594431
-0.000990594
0.00608131
-0.000997908
0.00620267
-0.00100186
0.00630693
-0.00100251
0.00639332
-0.0010001
0.00646169
-0.000995019
-0.000991484
0.00650753
0.000557245
-6.03507e-05
0.00106208
-0.000171388
0.00150554
-0.000266294
0.00189729
-0.000347061
0.00224603
-0.000416707
0.00255911
-0.000477562
0.00284271
-0.000531407
0.00310218
-0.000579622
0.00334214
-0.000623273
0.00356657
-0.000663182
0.00377902
-0.000700014
0.00398255
-0.000734301
0.00417934
-0.000766381
0.00437111
-0.000796451
0.00455967
-0.000824684
0.00474642
-0.000851136
0.00492444
-0.000875427
0.00509537
-0.000897642
0.00527092
-0.000918485
0.00544698
-0.000937712
0.00561629
-0.000954601
0.0057776
-0.000968835
0.00592916
-0.000980223
0.00606902
-0.000988615
0.00619537
-0.000993923
0.00630675
-0.000996148
0.00640216
-0.000995402
0.00648118
-0.000991903
0.00654379
-0.00098596
-0.000980996
0.00658593
0.000574489
-6.12714e-05
0.00109561
-0.00017406
0.00155421
-0.000270568
0.00196013
-0.000352773
0.0023222
-0.000423695
0.0026478
-0.000485663
0.00294317
-0.000540458
0.00321365
-0.000589453
0.00346379
-0.000633708
0.00369744
-0.000674032
0.00391815
-0.000711087
0.00412891
-0.000745393
0.00433163
-0.000777256
0.00452778
-0.000806857
0.00471871
-0.000834346
0.00490476
-0.000859768
0.00508367
-0.000883022
0.0052575
-0.000904164
0.00542985
-0.000923385
0.00559827
-0.000940544
0.00575968
-0.000955298
0.00591228
-0.000967412
0.00605447
-0.000976738
0.00618474
-0.00098319
0.00630174
-0.000986743
0.00640447
-0.000987448
0.00649229
-0.00098543
0.00656498
-0.000980887
0.00662269
-0.000974063
-0.000967795
0.00666168
0.000591478
-6.19045e-05
0.00112869
-0.000175921
0.00160228
-0.000273593
0.00202222
-0.000356868
0.0023974
-0.000428746
0.00273525
-0.000491542
0.00304204
-0.000547028
0.00332307
-0.000596565
0.00358286
-0.000641202
0.00382522
-0.000681749
0.00405355
-0.000718838
0.00427062
-0.000752948
0.00447826
-0.000784387
0.00467788
-0.000813354
0.00487059
-0.000839986
0.00505671
-0.000864344
0.00523589
-0.000886425
0.00540901
-0.000906259
0.00557709
-0.00092388
0.00573899
-0.000939196
0.00589292
-0.000952031
0.00603738
-0.000962241
0.00617103
-0.000969737
0.00629273
-0.000974484
0.00640151
-0.000976501
0.00649669
-0.000975863
0.0065779
-0.000972703
0.0066451
-0.000967196
0.00669852
-0.000959544
-0.000952137
0.00673473
0.000608102
-6.22274e-05
0.00116111
-0.000176906
0.00164945
-0.000275266
0.00208316
-0.000359211
0.00247118
-0.000431701
0.00282096
-0.000495024
0.00313877
-0.000550928
0.00342988
-0.000600758
0.00369877
-0.000645549
0.00394921
-0.000686096
0.00418442
-0.00072301
0.00440695
-0.000756745
0.00461868