/*--------------------------------*- C++ -*----------------------------------*\
| =========                 |                                                 |
| \\      /  F ield         | OpenFOAM: The Open Source CFD Toolbox           |
|  \\    /   O peration     | Version:  dev                                   |
|   \\  /    A nd           | Web:      www.OpenFOAM.org                      |
|    \\/     M anipulation  |                                                 |
\*---------------------------------------------------------------------------*/
FoamFile
{
    version     2.0;
    format      ascii;
    class       volVectorField;
    location    "4.5";
    object      U;
}
// * * * * * * * * * * * * * * * * * * * * * * * * * * * * * * * * * * * * * //

dimensions      [0 1 -1 0 0 0 0];

internalField   nonuniform List<vector> 
2790
(
(9.93256 -5.14199e-21 0.019294)
(9.86457 1.76487e-21 0.0275517)
(9.76826 3.64386e-21 0.0332528)
(9.64627 -5.02878e-21 0.0390623)
(9.50626 -2.60634e-21 0.045095)
(9.35062 -2.72652e-21 0.0513247)
(9.17867 -4.59653e-23 0.0578891)
(8.98931 1.60905e-20 0.0649531)
(8.78166 -1.36102e-20 0.0726465)
(8.55481 -3.95255e-22 0.0810834)
(8.30772 4.11966e-22 0.0903888)
(8.03918 0 0.100695)
(7.74783 0 0.112138)
(7.43225 -3.75155e-21 0.124861)
(7.09098 0 0.139006)
(6.72254 8.213e-21 0.154698)
(6.32563 0 0.172042)
(5.89918 1.80231e-20 0.191111)
(5.4425 -1.8888e-20 0.211912)
(4.95548 1.59571e-19 0.23435)
(4.43885 -1.64835e-19 0.258188)
(3.89447 0 0.283016)
(3.32559 0 0.308203)
(2.73717 0 0.332849)
(2.13614 9.8546e-20 0.355738)
(1.53115 0 0.375569)
(0.938542 0 0.391338)
(0.283706 4.31136e-19 0.342984)
(-0.247078 -4.34534e-19 -0.164222)
(-0.00925799 0 -0.329253)
(9.99236 6.85115e-21 0.0388489)
(9.98036 -2.34801e-21 0.0580233)
(9.94217 -9.70785e-21 0.0723512)
(9.87695 -1.00654e-20 0.0874261)
(9.7912 -2.65802e-21 0.103506)
(9.68743 2.66135e-21 0.120454)
(9.56517 0 0.138537)
(9.42345 2.48004e-20 0.158119)
(9.26147 1.75499e-21 0.179487)
(9.07838 2.5951e-20 0.202893)
(8.87321 -5.24666e-20 0.228616)
(8.64476 0 0.256944)
(8.39169 3.55459e-21 0.288158)
(8.11259 3.71628e-21 0.322537)
(7.80595 1.5507e-20 0.360332)
(7.47025 -1.38962e-19 0.401714)
(7.10404 1.51813e-19 0.446749)
(6.70607 -3.0428e-19 0.495355)
(6.27539 6.13922e-19 0.547215)
(5.81155 -3.09305e-19 0.601668)
(5.31483 -4.06721e-20 0.657584)
(4.78654 6.85802e-19 0.71327)
(4.22934 -7.96275e-19 0.766355)
(3.64762 -7.45183e-19 0.81361)
(3.04801 6.71285e-19 0.85067)
(2.43997 0 0.871434)
(1.84213 0 0.865336)
(1.23991 -2.10318e-19 0.795571)
(0.737945 -1.49746e-18 0.595833)
(0.301143 3.59124e-18 0.0221526)
(9.98948 -1.82221e-20 0.0412409)
(9.97468 1.87486e-20 0.0690585)
(9.93866 9.65647e-21 0.0927323)
(9.87818 2.00223e-20 0.117572)
(9.79851 -1.56301e-20 0.144158)
(9.70227 5.22905e-21 0.172414)
(9.5892 -2.25913e-20 0.202693)
(9.45855 4.61413e-20 0.235507)
(9.30967 -4.84057e-20 0.271292)
(9.14185 4.82541e-20 0.310464)
(8.95428 -1.04877e-19 0.353486)
(8.74596 2.03719e-21 0.400841)
(8.51572 2.29939e-19 0.453009)
(8.26227 -1.17278e-19 0.510463)
(7.98426 -2.6367e-19 0.57365)
(7.68024 -3.73004e-21 0.64291)
(7.34874 -5.43278e-20 0.718419)
(6.98836 2.79028e-19 0.800122)
(6.59783 3.66348e-20 0.887607)
(6.17614 0 0.979914)
(5.72272 -6.05635e-19 1.07531)
(5.23763 -7.48757e-19 1.17109)
(4.72197 4.10383e-22 1.26336)
(4.1781 0 1.34668)
(3.61009 1.51441e-18 1.41344)
(3.02373 -1.55577e-18 1.45267)
(2.42906 1.61242e-18 1.44691)
(1.82039 -1.23389e-18 1.3595)
(1.1955 3.15362e-18 1.14837)
(0.714728 -4.39032e-19 0.77098)
(9.9877 -4.52384e-21 0.0461216)
(9.97056 -4.68584e-21 0.0841603)
(9.93439 -2.90096e-20 0.118544)
(9.87508 0 0.153486)
(9.79706 0 0.190154)
(9.70289 1.07192e-20 0.228862)
(9.59247 0 0.270141)
(9.46525 -5.21741e-20 0.314649)
(9.3208 1.38208e-19 0.362988)
(9.15855 -1.97956e-19 0.415756)
(8.97795 1.0317e-19 0.473598)
(8.77826 1.05289e-19 0.537184)
(8.55862 -1.118e-19 0.607192)
(8.31804 2.36059e-19 0.684293)
(8.05551 -2.27576e-19 0.769129)
(7.76997 -3.1802e-20 0.862251)
(7.46024 5.363e-19 0.964029)
(7.12513 4.25926e-20 1.07456)
(6.76344 -2.80951e-20 1.19351)
(6.37407 -5.25483e-19 1.31994)
(5.95589 7.8602e-20 1.4519)
(5.50789 8.24257e-20 1.58616)
(5.02954 2.56234e-19 1.71788)
(4.52079 -1.42907e-18 1.84018)
(3.98205 1.28418e-18 1.94333)
(3.41357 0 2.01365)
(2.81555 0 2.03167)
(2.17972 -8.50416e-22 1.96547)
(1.47065 0 1.78894)
(0.867669 4.365e-19 1.4754)
(9.98681 1.36381e-20 0.0525337)
(9.96835 4.67125e-21 0.0993866)
(9.932 5.32872e-23 0.143144)
(9.87371 -1.99156e-20 0.187207)
(9.7973 0 0.233175)
(9.70513 -1.07061e-20 0.281762)
(9.5971 0 0.333645)
(9.47283 -5.73065e-21 0.389534)
(9.33195 5.97739e-21 0.450131)
(9.17399 -9.97844e-20 0.516167)
(8.99853 3.10135e-19 0.588406)
(8.80496 -2.13378e-19 0.667638)
(8.59261 -6.991e-21 0.754672)
(8.36075 0 0.850309)
(8.10862 -1.51706e-20 0.955323)
(7.83544 -4.76699e-19 1.07042)
(7.54032 5.55475e-19 1.19614)
(7.22236 -3.43653e-20 1.33275)
(6.88053 -5.04201e-19 1.48006)
(6.5138 -6.07812e-19 1.63729)
(6.12088 1.23103e-18 1.80265)
(5.69996 1.13679e-18 1.9728)
(5.24909 -1.50013e-18 2.14256)
(4.76607 1.72911e-19 2.30448)
(4.24801 1.80602e-19 2.4481)
(3.69063 -2.9861e-18 2.55906)
(3.0878 3.05746e-18 2.61866)
(2.43066 -1.97734e-19 2.60026)
(1.67861 -3.24042e-18 2.48379)
(0.990841 3.41098e-18 2.24933)
(9.98638 0 0.059659)
(9.9673 1.86635e-20 0.114637)
(9.93111 3.57008e-23 0.167258)
(9.8741 0 0.220344)
(9.79964 -6.1868e-20 0.275602)
(9.70978 4.25108e-20 0.334009)
(9.60457 0 0.396349)
(9.48371 3.18414e-23 0.463362)
(9.34684 0 0.535841)
(9.19356 0 0.614646)
(9.02348 3.19654e-21 0.700664)
(8.83608 2.14315e-19 0.794796)
(8.6308 -4.23915e-21 0.897959)
(8.40706 -2.28997e-19 1.01106)
(8.16423 4.82589e-19 1.13501)
(7.90165 -4.95699e-19 1.27063)
(7.61862 0 1.41863)
(7.31434 0 1.57943)
(6.98786 1.06122e-18 1.75306)
(6.63806 -2.41192e-18 1.93896)
(6.26359 1.13146e-18 2.13571)
(5.86233 1.58456e-19 2.34032)
(5.43107 0 2.54776)
(4.96579 -1.70252e-19 2.75075)
(4.46128 0 2.93904)
(3.91037 0 3.09858)
(3.30362 -2.99442e-18 3.21142)
(2.633 3.06305e-18 3.25321)
(1.86563 0 3.20048)
(1.11679 -1.03476e-19 3.0364)
(9.98622 0 0.067092)
(9.96703 0 0.129849)
(9.93139 1.9225e-20 0.190867)
(9.8759 -5.94129e-20 0.252653)
(9.80365 -2.06148e-20 0.316917)
(9.71645 4.2346e-20 0.384792)
(9.61454 1.10269e-19 0.457161)
(9.49768 -9.0772e-20 0.534839)
(9.36545 -1.17921e-20 0.618722)
(9.2175 0 0.709796)
(9.05349 2.01446e-19 0.809058)
(8.87294 -4.22928e-19 0.917494)
(8.67541 1.11832e-20 1.03611)
(8.46036 2.12492e-19 1.16591)
(8.22721 4.62107e-19 1.30792)
(7.97535 -5.20087e-19 1.4631)
(7.7041 -5.46837e-19 1.6323)
(7.41267 5.28305e-19 1.81614)
(7.10007 1.17977e-18 2.0149)
(6.76489 -1.13915e-18 2.22831)
(6.40557 7.3875e-20 2.45538)
(6.01982 1.08583e-18 2.69384)
(5.60355 -1.26856e-18 2.93941)
(5.15131 0 3.18539)
(4.65627 0 3.42217)
(4.10947 2.81952e-18 3.6362)
(3.4997 -2.88458e-18 3.80947)
(2.81845 0 3.9171)
(2.04599 1.19107e-20 3.92656)
(1.24738 1.01948e-19 3.81627)
(9.98622 -9.01318e-21 0.0745875)
(9.96734 -9.20341e-21 0.144867)
(9.9326 -1.91094e-20 0.213857)
(9.8788 7.90387e-20 0.283969)
(9.80901 1.80431e-22 0.35691)
(9.72492 -4.21632e-20 0.433892)
(9.6268 -2.19173e-20 0.515872)
(9.51447 1.02382e-19 0.603769)
(9.38746 -8.17831e-20 0.698591)
(9.24549 0 0.801424)
(9.08826 1.96667e-19 0.913354)
(8.9154 -2.08166e-19 1.03545)
(8.72648 -4.40437e-19 1.16879)
(8.52101 4.62545e-19 1.31451)
(8.29843 2.92358e-20 1.47374)
(8.05812 5.18838e-19 1.64761)
(7.79938 -4.69061e-19 1.83713)
(7.5213 -1.05072e-18 2.04313)
(7.22278 2.16456e-18 2.26624)
(6.90221 1.26757e-20 2.50657)
(6.55763 -2.39413e-18 2.76362)
(6.18614 1.50953e-19 3.03597)
(5.78316 0 3.32048)
(5.34243 -7.92874e-20 3.61155)
(4.85563 0 3.90035)
(4.31235 2.72635e-18 4.17384)
(3.69996 -2.78941e-18 4.4134)
(3.00702 0 4.59226)
(2.22741 3.02022e-18 4.66683)
(1.38144 -3.13654e-18 4.60149)
(9.98633 0 0.0819854)
(9.96805 3.69917e-20 0.159538)
(9.93453 3.80576e-20 0.236125)
(9.88265 -7.87259e-20 0.314186)
(9.81555 -4.08538e-20 0.395417)
(9.73499 8.39277e-20 0.481088)
(9.64115 0 0.572228)
(9.53381 -9.04643e-20 0.669869)
(9.41256 9.29284e-20 0.775118)
(9.27718 -1.82088e-19 0.889131)
(9.12743 2.05542e-19 1.01307)
(8.96305 0 1.1481)
(8.78364 -3.36859e-21 1.29539)
(8.58871 4.47829e-19 1.45619)
(8.37774 -4.59139e-19 1.63178)
(8.15011 -4.80708e-19 1.82345)
(7.90506 1.48787e-18 2.0324)
(7.64158 -9.87288e-19 2.25974)
(7.35839 -1.13204e-18 2.50647)
(7.05375 -7.92503e-20 2.77323)
(6.72526 2.33169e-18 3.06022)
(6.3692 2.33248e-18 3.36691)
(5.98061 -1.19648e-18 3.69146)
(5.55264 7.79677e-20 4.02972)
(5.07552 0 4.3741)
(4.53712 -2.5854e-18 4.71238)
(3.9229 2.68714e-18 5.02531)
(3.21609 2.78452e-18 5.28427)
(2.42095 -2.9195e-18 5.43508)
(1.52209 -3.02905e-18 5.4195)
(9.98651 -7.14705e-20 0.0891835)
(9.96902 0 0.173735)
(9.93699 -3.80209e-20 0.257558)
(9.88732 3.92585e-20 0.343178)
(9.8232 -8.12077e-20 0.432275)
(9.74647 1.25693e-19 0.526167)
(9.65729 -8.62974e-20 0.625982)
(9.55539 2.0204e-19 0.732852)
(9.44043 -3.70516e-19 0.847961)
(9.31225 1.02775e-20 0.972521)
(9.17067 1.97488e-19 1.10776)
(9.01552 -4.12492e-19 1.25492)
(8.84646 8.49802e-19 1.4153)
(8.66302 -4.37477e-19 1.59026)
(8.46473 -1.42713e-20 1.78123)
(8.25101 0 1.98967)
(8.02112 1.51033e-20 2.21705)
(7.77391 -3.1552e-20 2.46477)
(7.50793 1.00872e-18 2.73425)
(7.2214 -2.06868e-18 3.02679)
(6.91139 -4.45012e-20 3.34344)
(6.57375 -1.09154e-18 3.68473)
(6.2032 -2.33233e-18 4.05031)
(5.79195 4.77144e-18 4.43777)
(5.32888 -5.86524e-21 4.84153)
(4.79958 -2.54584e-18 5.25104)
(4.18655 0 5.64731)
(3.46509 0 6.00084)
(2.64391 0 6.24858)
(1.6783 -8.89656e-20 6.30372)
(9.98674 1.42601e-19 0.0961128)
(9.97019 0 0.18736)
(9.93986 0 0.278043)
(9.89265 0 0.370808)
(9.83182 4.02122e-20 0.467326)
(9.75921 4.17043e-20 0.568957)
(9.67501 8.62926e-20 0.676925)
(9.57894 6.75306e-20 0.792457)
(9.47076 -1.60238e-19 0.916801)
(9.35034 -4.74911e-20 1.05122)
(9.21761 2.44681e-20 1.19698)
(9.07243 -4.07847e-19 1.35542)
(8.91451 4.17832e-19 1.52794)
(8.7435 0 1.71605)
(8.55895 -8.70237e-22 1.92128)
(8.36041 0 2.1453)
(8.14719 -7.57876e-21 2.38986)
(7.9181 1.52509e-20 2.65674)
(7.67163 -9.68055e-19 2.94782)
(7.4059 1.03594e-18 3.2651)
(7.11774 -3.36486e-20 3.61054)
(6.80302 -3.45339e-20 3.98598)
(6.4561 0 4.39278)
(6.06823 0 4.83088)
(5.62698 2.75825e-20 5.29765)
(5.11519 -2.43606e-18 5.78577)
(4.51104 2.45546e-18 6.27879)
(3.77871 2.52589e-18 6.74856)
(2.9228 -1.64186e-21 7.12612)
(1.86673 -5.49273e-18 7.29387)
(9.987 8.63077e-21 0.102721)
(9.97152 9.14092e-21 0.200328)
(9.94307 -1.88003e-20 0.297479)
(9.89856 0 0.39695)
(9.84127 -4.01548e-20 0.500425)
(9.77307 8.29753e-20 0.6093)
(9.69413 -1.27847e-19 0.724874)
(9.60423 -4.40047e-20 0.848456)
(9.50323 -4.55655e-20 0.981351)
(9.39108 2.36026e-20 1.12486)
(9.2678 1.70783e-19 1.28031)
(9.13326 -2.24927e-19 1.44911)
(8.98726 -4.16e-19 1.63277)
(8.82958 4.25681e-19 1.83289)
(8.65989 -5.98399e-21 2.05115)
(8.4778 0 2.28936)
(8.28265 -7.34644e-21 2.54958)
(8.07349 -1.60481e-20 2.83403)
(7.84902 -1.56526e-20 3.14509)
(7.6072 -4.8959e-22 3.48538)
(7.34511 4.00492e-21 3.85788)
(7.0589 1.05984e-18 4.26585)
(6.74272 -1.07794e-18 4.71267)
(6.38745 2.23276e-18 5.20133)
(5.97973 -2.24638e-18 5.73338)
(5.49962 -2.23479e-18 6.30705)
(4.91998 2.32224e-18 6.9125)
(4.19042 0 7.52835)
(3.29949 0 8.0866)
(2.11716 8.19894e-20 8.44377)
(9.98729 -7.96629e-20 0.108969)
(9.97299 9.97804e-20 0.21257)
(9.94658 -1.87109e-20 0.315778)
(9.90495 1.52205e-22 0.421499)
(9.85142 7.98559e-20 0.531444)
(9.78788 -1.64509e-19 0.647042)
(9.71449 1.27193e-19 0.769654)
(9.63109 -1.75435e-19 0.900643)
(9.53763 2.15333e-20 1.04136)
(9.43417 1.85871e-19 1.19314)
(9.32077 0 1.35738)
(9.19743 4.22997e-19 1.53555)
(9.06404 -4.07376e-19 1.72922)
(8.9205 0 1.94009)
(8.76667 -4.2816e-19 2.16998)
(8.60221 8.91401e-19 2.42086)
(8.42656 -4.56315e-19 2.695)
(8.23917 9.42665e-19 2.99499)
(8.03908 -9.44326e-19 3.32372)
(7.82452 9.85469e-19 3.68447)
(7.59311 -1.03666e-18 4.08114)
(7.34149 0 4.51844)
(7.06428 -1.03634e-18 5.00205)
(6.75303 -1.14287e-18 5.53846)
(6.39463 4.24773e-18 6.13461)
(5.9678 -4.28633e-18 6.79712)
(5.4408 2.24206e-18 7.52889)
(4.74684 2.10127e-18 8.32669)
(3.84363 -2.24478e-18 9.14324)
(2.48694 -2.29005e-18 9.8428)
(9.9876 -8.79808e-21 0.114822)
(9.97455 -1.35585e-19 0.224024)
(9.95033 0 0.332861)
(9.91174 7.66742e-20 0.444364)
(9.86215 7.92366e-20 0.560273)
(9.80347 -2.04194e-19 0.682052)
(9.73589 8.40698e-20 0.811106)
(9.65928 4.35629e-20 0.948833)
(9.57371 1.79665e-19 1.09662)
(9.47928 -1.38114e-19 1.25585)
(9.37617 0 1.42792)
(9.26449 2.43846e-20 1.61437)
(9.14425 0 1.81684)
(9.0155 2.57867e-20 2.03709)
(8.87827 -4.0095e-19 2.27704)
(8.73244 8.74786e-19 2.53882)
(8.57771 -8.68755e-19 2.82485)
(8.41386 4.57803e-19 3.13794)
(8.2404 -1.4773e-20 3.48141)
(8.05622 0 3.85912)
(7.85977 -9.70414e-19 4.2758)
(7.64867 0 4.73744)
(7.41898 0 5.25183)
(7.16437 -9.33891e-19 5.82897)
(6.87431 1.01193e-18 6.48172)
(6.53018 9.93059e-19 7.22717)
(6.10146 -3.23984e-20 8.08741)
(5.51158 -9.39847e-19 9.09534)
(4.68068 0 10.2753)
(3.0999 -2.62011e-20 11.6752)
(9.98792 0 0.120255)
(9.9762 7.21025e-20 0.23464)
(9.95427 0 0.348658)
(9.91887 -1.52788e-19 0.465457)
(9.87338 -7.88939e-20 0.586803)
(9.81974 1.21703e-19 0.71419)
(9.75818 0 0.849052)
(9.68861 0 0.992812)
(9.61118 1.77989e-19 1.14688)
(9.52611 -2.28189e-19 1.31266)
(9.43366 4.68418e-20 1.49158)
(9.334 -7.24543e-20 1.68519)
(9.22732 0 1.89519)
(9.11387 -2.75406e-22 2.12334)
(8.99385 -2.63426e-20 2.37165)
(8.86743 -2.66496e-20 2.64233)
(8.7347 -4.02896e-22 2.9379)
(8.59583 -2.77894e-20 3.2613)
(8.45085 9.13695e-19 3.61606)
(8.29956 -9.28484e-19 4.00646)
(8.14152 9.68762e-19 4.43774)
(7.97592 8.93915e-19 4.91681)
(7.80123 9.50215e-19 5.45291)
(7.61486 -1.79327e-18 6.05858)
(7.41219 9.60284e-19 6.75144)
(7.18417 1.14048e-19 7.55782)
(6.91619 -9.44996e-19 8.51934)
(6.55531 6.95793e-20 9.71425)
(6.05237 1.06321e-19 11.3041)
(4.23089 2.08216e-18 14.3593)
(0.130651 0 -0.128997)
(0.301253 0 -0.132633)
(0.501491 0 -0.112267)
(0.691172 0 -0.0902292)
(0.853291 -4.56746e-21 -0.0712844)
(0.986651 4.46406e-21 -0.0553996)
(1.0949 0 -0.0418533)
(1.18104 0 -0.0298915)
(1.2464 0 -0.0189068)
(1.29125 -1.73521e-21 -0.00862651)
(1.31557 -1.28746e-21 0.000824919)
(1.32021 -4.07261e-22 0.00883172)
(1.30789 0 0.0147291)
(1.28198 0 0.0181437)
(1.24776 -3.65342e-22 0.0190234)
(1.21053 3.5925e-22 0.0178046)
(1.17514 -3.31739e-22 0.0151568)
(1.14513 6.10631e-24 0.0117701)
(1.12261 0 0.0081619)
(1.10854 4.06876e-22 0.00467481)
(1.10277 -2.48588e-22 0.00162754)
(1.10414 3.39494e-22 -0.000689349)
(1.11043 0 -0.00227984)
(1.12017 -1.67316e-22 -0.00339464)
(1.13238 1.39646e-22 -0.0041982)
(1.14634 1.12527e-22 -0.00473264)
(1.16162 0 -0.00506747)
(1.1781 0 -0.00535245)
(1.19611 -3.62604e-23 -0.00565452)
(1.22073 0 -0.00576538)
(0.106912 2.35671e-20 -0.262613)
(0.266412 -2.30327e-20 -0.281102)
(0.45925 0 -0.247111)
(0.6429 1.21181e-21 -0.206717)
(0.803605 1.12633e-21 -0.170973)
(0.940834 0 -0.140443)
(1.05797 0 -0.113884)
(1.15771 0 -0.0900058)
(1.24201 0 -0.0676912)
(1.31183 -2.58315e-21 -0.0462803)
(1.36754 -4.65613e-21 -0.0256364)
(1.40904 4.07241e-22 -0.0063051)
(1.4355 0 0.0104151)
(1.44697 1.51636e-21 0.0225963)
(1.44821 -7.50464e-22 0.0291469)
(1.44438 -7.12448e-22 0.0302749)
(1.43994 0 0.0271614)
(1.43796 3.19154e-22 0.0213922)
(1.43979 0 0.0144597)
(1.44513 -8.25617e-22 0.00752133)
(1.45266 -5.00123e-22 0.00139012)
(1.46154 -2.22023e-22 -0.00341422)
(1.47183 3.90329e-22 -0.00682408)
(1.48311 1.6681e-22 -0.00918109)
(1.49476 -1.3923e-22 -0.010842)
(1.50632 -6.22728e-23 -0.0120565)
(1.51754 -3.06264e-23 -0.013061)
(1.52835 -1.81492e-23 -0.0141455)
(1.53899 3.61653e-23 -0.0154671)
(1.55265 2.4099e-23 -0.0160048)
(0.0799875 4.57422e-20 -0.423747)
(0.201052 1.69163e-22 -0.443074)
(0.368264 1.25753e-21 -0.392645)
(0.525932 -1.87573e-20 -0.333552)
(0.662851 1.92635e-20 -0.280654)
(0.779819 -2.05551e-21 -0.235121)
(0.880094 -1.36165e-20 -0.195489)
(0.966718 1.52913e-20 -0.159997)
(1.04173 -7.13378e-21 -0.127225)
(1.10622 -2.46553e-21 -0.0961264)
(1.16087 7.34884e-22 -0.0662894)
(1.20649 -9.79294e-21 -0.038146)
(1.24411 3.1819e-21 -0.0129886)
(1.27519 3.04818e-21 0.00710861)
(1.29657 -6.68191e-21 0.0195879)
(1.31131 5.01885e-21 0.0239264)
(1.32212 -1.38721e-21 0.0217098)
(1.33052 0 0.0154672)
(1.33722 0 0.00763411)
(1.34229 1.10946e-21 3.14575e-06)
(1.34616 5.00718e-22 -0.00643937)
(1.34884 4.23395e-22 -0.0113641)
(1.35022 -9.89979e-22 -0.0147776)
(1.35013 3.6051e-22 -0.0168134)
(1.3484 2.5293e-23 -0.017696)
(1.34498 1.24659e-22 -0.0176706)
(1.34 1.70934e-22 -0.017069)
(1.33367 2.42736e-23 -0.0164212)
(1.32671 1.19335e-22 -0.0164181)
(1.31973 2.31524e-23 -0.016715)
(0.0585808 -1.33169e-21 -0.574414)
(0.129949 4.14584e-20 -0.578264)
(0.270269 -4.13098e-20 -0.507731)
(0.398582 -1.17539e-21 -0.431415)
(0.506947 -8.66747e-23 -0.363815)
(0.597947 -1.59951e-20 -0.306037)
(0.674973 3.70242e-22 -0.256465)
(0.741496 1.68976e-20 -0.212891)
(0.799609 -1.42182e-20 -0.173036)
(0.850596 2.08808e-20 -0.13581)
(0.895457 6.77613e-21 -0.100396)
(0.934929 1.64363e-21 -0.0672929)
(0.969421 4.74185e-21 -0.0380854)
(0.999153 -6.23531e-21 -0.0145989)
(1.02598 0 0.00161584)
(1.04588 -2.8621e-21 0.00947783)
(1.05935 2.81079e-21 0.010295)
(1.06722 1.27739e-21 0.00690142)
(1.06956 -7.16014e-23 0.00198676)
(1.06672 -1.72091e-21 -0.00261161)
(1.05864 0 -0.00597853)
(1.04598 0 -0.00785345)
(1.03 0 -0.00841683)
(1.01209 -3.36336e-22 -0.00812791)
(0.993724 0 -0.00750582)
(0.976249 0 -0.00696631)
(0.960906 -1.71528e-22 -0.00677016)
(0.948074 -2.63405e-22 -0.00722802)
(0.9378 -1.19929e-22 -0.00915826)
(0.927132 -4.74618e-23 -0.0134954)
(0.0425525 1.33642e-21 -0.710839)
(0.0546924 0 -0.686383)
(0.168611 -1.14816e-21 -0.594212)
(0.264985 0 -0.503133)
(0.341642 3.08697e-20 -0.423487)
(0.40266 -1.45037e-20 -0.355454)
(0.452747 -3.25753e-20 -0.298736)
(0.494805 1.30382e-20 -0.249861)
(0.531091 1.24836e-20 -0.20604)
(0.563317 3.37966e-21 -0.165548)
(0.592787 1.87414e-20 -0.127536)
(0.620072 -8.32255e-21 -0.0921884)
(0.64472 8.07014e-21 -0.0606344)
(0.666023 -4.74719e-21 -0.0344566)
(0.682684 4.58687e-21 -0.0148277)
(0.695077 -2.98301e-21 -0.00214431)
(0.70025 0 0.0041116)
(0.699477 1.255e-21 0.00602399)
(0.693709 -1.35141e-21 0.00594319)
(0.684129 -2.33146e-21 0.00532803)
(0.672181 0 0.00471906)
(0.658977 9.18773e-22 0.00407354)
(0.645563 7.97882e-22 0.00322396)
(0.632522 0 0.00208995)
(0.619982 0 0.000705596)
(0.60762 0 -0.00079571)
(0.595026 -3.38071e-22 -0.00219059)
(0.582403 2.72942e-23 -0.00354479)
(0.570072 -2.95424e-23 -0.00606899)
(0.550402 5.8401e-24 -0.0130512)
(0.0328488 4.04632e-20 -0.826141)
(-0.0226981 0 -0.76346)
(0.0657707 2.25663e-21 -0.649216)
(0.126893 -2.09567e-21 -0.544702)
(0.169328 0 -0.454956)
(0.199499 0 -0.380369)
(0.221442 -1.70699e-20 -0.318642)
(0.237613 1.30315e-20 -0.265885)
(0.250075 3.63734e-21 -0.219125)
(0.260685 1.24264e-20 -0.176497)
(0.270874 1.56675e-20 -0.136937)
(0.281418 0 -0.100415)
(0.292245 0 -0.0678912)
(0.302799 3.20265e-21 -0.0406599)
(0.312297 -7.89745e-21 -0.0196827)
(0.320177 -2.99308e-21 -0.00505628)
(0.325764 5.77737e-21 0.0036603)
(0.327896 -2.81508e-21 0.00769518)
(0.327184 0 0.00892046)
(0.32401 1.15461e-21 0.00873176)
(0.31884 1.05527e-21 0.00798)
(0.311986 -1.85357e-21 0.00707707)
(0.303656 -1.60594e-21 0.00621391)
(0.293839 -6.79938e-22 0.0055161)
(0.282205 -2.53388e-22 0.00506945)
(0.268204 2.49053e-22 0.00498015)
(0.251271 7.73613e-23 0.00533482)
(0.231524 -6.63684e-23 0.00570364)
(0.209901 -5.84968e-24 0.00390376)
(0.182261 9.57135e-23 -0.0072947)
(0.0291105 3.59808e-20 -0.911503)
(-0.100826 0 -0.804208)
(-0.0377456 -1.10922e-21 -0.672508)
(-0.0150862 3.51419e-20 -0.556754)
(-0.00606246 -3.23357e-20 -0.459587)
(-0.00504033 0 -0.38091)
(-0.00934716 3.06804e-20 -0.316689)
(-0.0162952 -1.31165e-20 -0.263039)
(-0.0236517 -1.66572e-20 -0.216804)
(-0.029728 1.4637e-20 -0.175784)
(-0.0332636 1.43555e-20 -0.13844)
(-0.0333703 -3.59018e-21 -0.104297)
(-0.0300517 -1.7581e-21 -0.0738344)
(-0.0239341 3.37182e-21 -0.0479417)
(-0.0159315 0 -0.0274162)
(-0.00761791 -3.08926e-21 -0.0124787)
(0.000368123 4.54697e-21 -0.00261677)
(0.00554765 5.54329e-21 0.0031756)
(0.00779023 -1.65859e-22 0.00633567)
(0.00675978 -2.46739e-21 0.00815079)
(0.00250646 -1.05902e-21 0.00935067)
(-0.00467427 9.34428e-22 0.0101998)
(-0.0144474 8.0762e-22 0.0108006)
(-0.0265592 9.94296e-22 0.0113571)
(-0.0412132 -3.07114e-22 0.0122216)
(-0.059021 4.36816e-22 0.0138553)
(-0.0808733 5.90994e-22 0.0165104)
(-0.107406 3.48968e-22 0.0190247)
(-0.137573 -5.6774e-23 0.0168218)
(-0.163031 -7.89969e-23 0.00369325)
(0.0273005 0 -0.960879)
(-0.175922 0 -0.805918)
(-0.141986 -1.04287e-21 -0.659351)
(-0.15954 -2.02886e-21 -0.535336)
(-0.18151 0 -0.438539)
(-0.206548 0 -0.361416)
(-0.23178 1.93486e-21 -0.299678)
(-0.25509 0 -0.249168)
(-0.275094 0 -0.206448)
(-0.290943 -1.5143e-20 -0.16912)
(-0.30202 -2.97505e-20 -0.135661)
(-0.308079 1.8213e-20 -0.105318)
(-0.309538 1.76023e-21 -0.0781368)
(-0.307347 -8.64991e-21 -0.0545956)
(-0.302781 1.34819e-20 -0.0351754)
(-0.297467 -6.5522e-21 -0.0200698)
(-0.292723 -1.51435e-21 -0.00884498)
(-0.290004 -1.42195e-21 -0.000764314)
(-0.290194 0 0.00501297)
(-0.293677 0 0.00935797)
(-0.300558 1.02561e-21 0.0127393)
(-0.310575 -1.00672e-21 0.0153327)
(-0.323437 -8.16147e-22 0.0173393)
(-0.338987 -3.10558e-22 0.0192371)
(-0.357415 3.05058e-22 0.0217637)
(-0.379408 -2.45381e-22 0.0256243)
(-0.405976 -5.1359e-22 0.030731)
(-0.437677 -4.80099e-22 0.0345648)
(-0.471249 4.36562e-23 0.0314348)
(-0.494179 8.02294e-23 0.0193598)
(0.0272065 0 -0.968232)
(-0.242815 3.40274e-20 -0.761056)
(-0.249154 -6.44626e-20 -0.609395)
(-0.303837 3.45323e-20 -0.488843)
(-0.35537 0 -0.396344)
(-0.403517 0 -0.325049)
(-0.446143 2.00756e-21 -0.269571)
(-0.482306 -2.00253e-20 -0.225219)
(-0.511767 -2.66003e-22 -0.188346)
(-0.534716 1.55864e-20 -0.156408)
(-0.55153 -3.97551e-21 -0.127785)
(-0.562752 -7.6475e-21 -0.10164)
(-0.569247 1.13246e-20 -0.0778192)
(-0.572173 -1.09643e-20 -0.0566011)
(-0.572853 7.08788e-21 -0.0383849)
(-0.572618 -1.00594e-20 -0.0233968)
(-0.572833 6.48764e-21 -0.0113925)
(-0.574413 1.47536e-22 -0.001864)
(-0.578235 -1.20011e-21 0.00581572)
(-0.585066 2.5866e-21 0.0122718)
(-0.595308 1.11658e-21 0.0177427)
(-0.608971 0 0.0222336)
(-0.625709 8.14256e-22 0.0259231)
(-0.645177 1.35164e-21 0.0294556)
(-0.667377 2.43634e-22 0.0338451)
(-0.692722 -2.39371e-22 0.0398866)
(-0.721673 0 0.0469205)
(-0.753511 3.92522e-22 0.0511494)
(-0.783344 -1.92046e-22 0.0466794)
(-0.801129 -8.02484e-23 0.0344725)
(0.0338476 1.2802e-22 -0.926333)
(-0.299765 3.35198e-20 -0.666122)
(-0.360068 -6.69111e-20 -0.523503)
(-0.452043 3.23127e-20 -0.412149)
(-0.53371 0 -0.331313)
(-0.603714 0 -0.272069)
(-0.661856 -2.02128e-21 -0.227638)
(-0.708972 6.15e-21 -0.192869)
(-0.746342 2.08862e-20 -0.16411)
(-0.775332 -1.62953e-20 -0.138916)
(-0.797222 -1.98818e-22 -0.115796)
(-0.813182 8.03739e-21 -0.0940724)
(-0.824406 -1.17059e-20 -0.0736674)
(-0.832176 3.73369e-21 -0.0548399)
(-0.837742 0 -0.0379748)
(-0.842365 3.44043e-21 -0.0233535)
(-0.847382 -6.63137e-21 -0.0109767)
(-0.853002 1.39682e-22 -0.000484067)
(-0.860567 -1.32596e-21 0.00878793)
(-0.871053 2.66546e-21 0.0173004)
(-0.885033 -1.11441e-21 0.0249772)
(-0.902437 -1.06084e-21 0.03147)
(-0.922637 7.59455e-22 0.0367587)
(-0.94486 2.99221e-22 0.0415854)
(-0.968683 -6.10296e-23 0.047232)
(-0.994303 -2.34096e-22 0.0545101)
(-1.02222 6.46504e-22 0.0621477)
(-1.0516 -2.25614e-23 0.0656911)
(-1.07798 1.94202e-22 0.0600718)
(-1.09291 -6.65537e-23 0.0483787)
(0.0478509 -6.57389e-20 -0.825759)
(-0.35532 3.21424e-20 -0.528182)
(-0.483987 0 -0.395598)
(-0.615421 0 -0.304584)
(-0.726318 0 -0.244702)
(-0.816052 -3.61082e-20 -0.204518)
(-0.887178 3.32401e-20 -0.176011)
(-0.942897 9.04666e-23 -0.153939)
(-0.98621 -2.62256e-20 -0.135162)
(-1.01963 1.71353e-20 -0.117765)
(-1.04525 1.70539e-20 -0.100645)
(-1.06479 -8.41231e-21 -0.0834761)
(-1.07972 -3.09069e-23 -0.0664528)
(-1.09141 -8.08836e-21 -0.0499363)
(-1.10109 -3.65975e-21 -0.0343516)
(-1.11024 7.48528e-21 -0.0201717)
(-1.1191 3.39276e-21 -0.00768259)
(-1.1284 -3.10955e-21 0.00351855)
(-1.13938 5.86136e-21 0.0142071)
(-1.15315 -2.75871e-21 0.0246891)
(-1.1705 1.08358e-21 0.0344995)
(-1.19123 8.99801e-22 0.042774)
(-1.21424 -3.30287e-21 0.0491704)
(-1.23814 -1.33987e-21 0.054549)
(-1.26214 1.03358e-21 0.0605874)
(-1.28647 -7.73227e-22 0.0682466)
(-1.31198 -1.19092e-21 0.0758407)
(-1.33851 -2.61553e-22 0.0785797)
(-1.36222 -2.25501e-22 0.072214)
(-1.37523 6.65721e-23 0.0611373)
(0.0531424 0 -0.654861)
(-0.426447 4.57934e-22 -0.335378)
(-0.638451 3.16656e-20 -0.227185)
(-0.808104 -3.30535e-20 -0.169233)
(-0.943262 -2.04872e-21 -0.140207)
(-1.04699 -4.49242e-23 -0.126109)
(-1.12567 0 -0.117988)
(-1.18545 -4.52506e-21 -0.111039)
(-1.23109 -1.40826e-20 -0.103514)
(-1.26602 3.66141e-20 -0.0945476)
(-1.29297 2.72164e-20 -0.083563)
(-1.31413 4.63572e-21 -0.0707641)
(-1.33111 0 -0.0568756)
(-1.34517 0 -0.0425101)
(-1.35766 8.30025e-21 -0.0281661)
(-1.36929 -4.0895e-21 -0.0145409)
(-1.38049 -7.47366e-21 -0.00207605)
(-1.39221 0 0.00965187)
(-1.40533 -3.13705e-21 0.0215241)
(-1.42124 -2.58055e-21 0.0338589)
(-1.44099 2.53028e-21 0.0457832)
(-1.46432 0 0.0557069)
(-1.48962 9.01641e-22 0.0627556)
(-1.51472 7.38799e-22 0.0678781)
(-1.53819 -1.03135e-21 0.0733381)
(-1.56039 7.71547e-22 0.0805795)
(-1.58301 5.48316e-22 0.0878258)
(-1.6067 6.878e-23 0.0899834)
(-1.62813 -1.32121e-23 0.0831887)
(-1.63971 7.24175e-24 0.0725311)
(0.0139696 -2.83289e-20 -0.374471)
(-0.578121 5.51549e-20 -0.0550704)
(-0.880313 -2.61218e-20 -0.00297596)
(-1.06889 1.25999e-22 -0.00875889)
(-1.20476 2.05946e-21 -0.0275018)
(-1.30263 2.17067e-21 -0.0463682)
(-1.37533 -1.89751e-20 -0.06059)
(-1.43036 2.08265e-20 -0.0688976)
(-1.47251 0 -0.0724639)
(-1.50469 0 -0.0718681)
(-1.52957 -1.41694e-20 -0.0666141)
(-1.5497 -2.37088e-20 -0.0574936)
(-1.56654 9.33891e-21 -0.0463159)
(-1.58085 0 -0.0340722)
(-1.59359 -8.28165e-21 -0.0210027)
(-1.60587 8.36007e-21 -0.00774714)
(-1.61845 -2.15472e-22 0.00487407)
(-1.63144 2.31671e-22 0.0170254)
(-1.64554 3.41548e-21 0.0298923)
(-1.66258 2.99511e-21 0.0441274)
(-1.68426 -2.5063e-21 0.0584478)
(-1.71032 0 0.0701883)
(-1.73827 7.48803e-22 0.0775581)
(-1.76473 5.51067e-22 0.0815115)
(-1.78738 9.54928e-22 0.0852501)
(-1.8069 0 0.0912711)
(-1.82615 0 0.0980645)
(-1.84692 3.18428e-22 0.100062)
(-1.8663 1.69238e-22 0.0931389)
(-1.87678 -6.04978e-24 0.0826064)
(-0.107139 4.88345e-23 0.176059)
(-0.807545 2.00132e-20 0.346492)
(-1.17467 1.12575e-20 0.255411)
(-1.36525 -1.07843e-20 0.14497)
(-1.48757 1.53281e-20 0.0710916)
(-1.56932 1.96251e-21 0.0224045)
(-1.62498 -1.84604e-20 -0.0126525)
(-1.66578 -2.06168e-20 -0.0341265)
(-1.69798 1.74467e-20 -0.0464574)
(-1.72254 1.04821e-20 -0.0531446)
(-1.74122 1.02304e-20 -0.0524853)
(-1.75725 2.63441e-21 -0.0455112)
(-1.7718 -9.8982e-21 -0.0361524)
(-1.7845 1.92106e-20 -0.0259159)
(-1.79611 -1.38009e-20 -0.0138972)
(-1.80837 -4.5098e-21 -0.000362259)
(-1.82179 8.15137e-21 0.0128899)
(-1.83555 -4.58206e-23 0.0253761)
(-1.84996 -5.00718e-23 0.0389971)
(-1.86753 1.39553e-21 0.0553249)
(-1.89107 -1.47107e-21 0.0727061)
(-1.92054 0 0.0867913)
(-1.95217 -9.24974e-22 0.0942058)
(-1.98057 -1.73452e-21 0.0958028)
(-2.00222 -2.31849e-21 0.0963045)
(-2.01823 8.10716e-22 0.100124)
(-2.03324 0 0.106482)
(-2.05072 -2.33359e-22 0.108993)
(-2.06819 1.13549e-23 0.102377)
(-2.07788 -4.85784e-23 0.0916916)
(-0.351063 1.47083e-21 0.931357)
(-1.10593 -1.34489e-21 0.921156)
(-1.53184 1.15908e-22 0.538491)
(-1.6888 -7.76539e-22 0.238142)
(-1.75545 2.03931e-21 0.134546)
(-1.80437 9.93311e-21 0.0795839)
(-1.83991 3.55267e-21 0.0204045)
(-1.86475 -1.03514e-20 -0.0135393)
(-1.88601 2.65599e-21 -0.0281319)
(-1.90156 0 -0.0400552)
(-1.91164 2.86915e-21 -0.0432416)
(-1.92237 -2.63406e-21 -0.0359917)
(-1.93491 0 -0.026835)
(-1.94597 0 -0.0186702)
(-1.95561 4.84087e-21 -0.00765927)
(-1.96714 -2.27227e-22 0.00716857)
(-1.98141 -4.19395e-21 0.0219647)
(-1.99608 0 0.0346444)
(-2.01032 -6.84269e-21 0.0484614)
(-2.02768 3.31029e-21 0.0670484)
(-2.05308 3.81834e-21 0.0886113)
(-2.08711 -1.19171e-21 0.106101)
(-2.12404 1.19409e-23 0.113364)
(-2.15533 0 0.110963)
(-2.1756 8.92567e-22 0.106072)
(-2.18668 -6.14216e-22 0.10636)
(-2.19595 0 0.112458)
(-2.20941 2.21565e-22 0.116586)
(-2.2251 -1.44907e-24 0.111031)
(-2.23433 6.48352e-23 0.0999921)
(9.98827 -5.01788e-20 0.125337)
(9.97794 -5.17261e-20 0.244564)
(9.95843 -3.54904e-20 0.363402)
(9.9264 2.19592e-19 0.485104)
(9.88522 -7.56063e-20 0.611464)
(9.83688 3.88127e-20 0.743992)
(9.78165 8.01359e-20 0.884143)
(9.71952 8.28594e-20 1.03335)
(9.65069 -1.26901e-19 1.19302)
(9.57551 1.74753e-19 1.36458)
(9.49433 -2.23848e-19 1.54948)
(9.40741 4.15406e-19 1.74926)
(9.31514 -3.7724e-19 1.9656)
(9.21794 -4.12799e-19 2.20029)
(9.11627 3.47023e-19 2.45531)
(9.01059 2.55594e-20 2.73291)
(8.90144 3.37316e-19 3.0356)
(8.78945 -3.95563e-19 3.36633)
(8.67533 5.31518e-20 3.7287)
(8.55986 0 4.12701)
(8.44399 0 4.56668)
(8.32888 -8.23577e-19 5.05478)
(8.21618 8.91397e-19 5.60084)
(8.10833 -1.12327e-19 6.21796)
(8.0096 1.06201e-19 6.92488)
(7.92762 6.0851e-19 7.7501)
(7.88423 -7.3304e-19 8.73944)
(7.9282 3.32411e-19 9.97461)
(8.60997 -3.36142e-19 11.5512)
(9.1668 6.84241e-20 14.4928)
(9.98864 8.16262e-20 0.130074)
(9.9798 -1.67366e-20 0.253802)
(9.96285 6.87684e-20 0.377082)
(9.93437 -7.11886e-20 0.503264)
(9.89772 -7.30112e-20 0.634167)
(9.85493 -3.74251e-20 0.771308)
(9.8063 0 0.916147)
(9.75189 -1.59719e-19 1.07012)
(9.69199 1.22495e-19 1.23462)
(9.62704 0 1.41107)
(9.55747 0 1.60092)
(9.48373 4.41644e-20 1.80569)
(9.40637 0 2.027)
(9.32601 3.7325e-19 2.26659)
(9.24332 -3.80087e-19 2.52639)
(9.15913 4.82864e-20 2.80858)
(9.07439 4.99837e-20 3.11557)
(8.99025 -4.99488e-20 3.45019)
(8.90811 3.56399e-19 3.8158)
(8.82975 -8.26407e-19 4.21645)
(8.75749 3.89992e-21 4.65714)
(8.6945 -5.22928e-19 5.14427)
(8.64542 -1.02414e-19 5.68615)
(8.61746 -4.04963e-19 6.29376)
(8.62269 -1.85107e-19 6.98173)
(8.68239 4.02975e-19 7.76958)
(8.84023 -9.43329e-20 8.68149)
(9.12278 -8.56056e-20 9.74513)
(9.84582 -8.75429e-20 10.9079)
(10.5406 -1.23892e-19 12.0695)