/*--------------------------------*- C++ -*----------------------------------*\
| =========                 |                                                 |
| \\      /  F ield         | OpenFOAM: The Open Source CFD Toolbox           |
|  \\    /   O peration     | Version:  dev                                   |
|   \\  /    A nd           | Web:      www.OpenFOAM.org                      |
|    \\/     M anipulation  |                                                 |
\*---------------------------------------------------------------------------*/
FoamFile
{
    version     2.0;
    format      ascii;
    class       volVectorField;
    location    "2.73";
    object      cellDisplacement;
}
// * * * * * * * * * * * * * * * * * * * * * * * * * * * * * * * * * * * * * //

dimensions      [0 1 0 0 0 0 0];

internalField   nonuniform List<vector> 
465
(
(0.198906 0 -0.00403746)
(0.208177 0 -0.00384045)
(0.214685 0 -0.00362274)
(0.218736 0 -0.00338798)
(0.22057 0 -0.00315725)
(0.220363 0 -0.00294107)
(0.218229 0 -0.00271146)
(0.214249 0 -0.00250349)
(0.208457 0 -0.00228656)
(0.200865 0 -0.00208931)
(0.191457 0 -0.00188496)
(0.180182 0 -0.00169119)
(0.167009 0 -0.00150197)
(0.151885 0 -0.00131625)
(0.134664 0 -0.00113053)
(0.115341 0 -0.000942042)
(0.0938411 0 -0.00075087)
(0.0700042 0 -0.000552621)
(0.0437471 0 -0.00034323)
(0.0149982 0 -0.000117612)
(0.200904 0 -0.0119016)
(0.209771 0 -0.0113098)
(0.215964 0 -0.0106691)
(0.219772 0 -0.0100054)
(0.221409 0 -0.0093215)
(0.221048 0 -0.00867016)
(0.218791 0 -0.00800926)
(0.214714 0 -0.00738497)
(0.208843 0 -0.00675932)
(0.201191 0 -0.0061681)
(0.19174 0 -0.00557822)
(0.180417 0 -0.00500843)
(0.167209 0 -0.00444938)
(0.152055 0 -0.00390078)
(0.134815 0 -0.00335197)
(0.115469 0 -0.00279292)
(0.0939412 0 -0.00222684)
(0.0700835 0 -0.0016394)
(0.0438233 0 -0.00101883)
(0.0150406 0 -0.000350025)
(0.204696 0 -0.0193202)
(0.212823 0 -0.0183693)
(0.218424 0 -0.0173231)
(0.221762 0 -0.0162635)
(0.223024 0 -0.0151692)
(0.222365 0 -0.0141007)
(0.219871 0 -0.0130468)
(0.215604 0 -0.0120234)
(0.209583 0 -0.0110233)
(0.201811 0 -0.0100536)
(0.192264 0 -0.00910941)
(0.180863 0 -0.00818703)
(0.167587 0 -0.00727513)
(0.152375 0 -0.00638202)
(0.135103 0 -0.00548898)
(0.115714 0 -0.00458032)
(0.0941262 0 -0.00365438)
(0.070225 0 -0.00269169)
(0.0439263 0 -0.00167352)
(0.0150842 0 -0.000575767)
(0.210059 0 -0.0262715)
(0.217157 0 -0.0249845)
(0.221924 0 -0.0235727)
(0.224599 0 -0.0221296)
(0.225333 0 -0.0206685)
(0.22425 0 -0.019222)
(0.221419 0 -0.017801)
(0.216881 0 -0.0164114)
(0.210646 0 -0.01506)
(0.202697 0 -0.0137385)
(0.193008 0 -0.0124607)
(0.181503 0 -0.0112112)
(0.168131 0 -0.00997528)
(0.152826 0 -0.00875818)
(0.135486 0 -0.00753985)
(0.116034 0 -0.00630265)
(0.0943786 0 -0.00503296)
(0.0704161 0 -0.00370924)
(0.0440552 0 -0.0023071)
(0.0151334 0 -0.000794055)
(0.2167 0 -0.0327504)
(0.222536 0 -0.0311243)
(0.226292 0 -0.0293846)
(0.228149 0 -0.0275964)
(0.228229 0 -0.0257955)
(0.226619 0 -0.0240054)
(0.223368 0 -0.022249)
(0.21849 0 -0.0205229)
(0.211988 0 -0.0188511)
(0.203819 0 -0.0172161)
(0.193945 0 -0.0156311)
(0.182293 0 -0.0140802)
(0.168799 0 -0.0125492)
(0.153383 0 -0.0110303)
(0.135953 0 -0.00950519)
(0.116419 0 -0.00795411)
(0.0946837 0 -0.00635666)
(0.0706448 0 -0.00468733)
(0.0442047 0 -0.0029165)
(0.0151884 0 -0.00100395)
(0.224289 0 -0.0387291)
(0.228712 0 -0.0367857)
(0.231326 0 -0.0347391)
(0.232255 0 -0.0326383)
(0.231589 0 -0.0305301)
(0.229373 0 -0.0284283)
(0.225642 0 -0.0263731)
(0.220375 0 -0.0243547)
(0.213555 0 -0.0223962)
(0.205129 0 -0.0204865)
(0.195039 0 -0.0186243)
(0.183212 0 -0.016797)
(0.169569 0 -0.0149904)
(0.154026 0 -0.0131903)
(0.136487 0 -0.0113773)
(0.116854 0 -0.00952903)
(0.0950281 0 -0.00762048)
(0.0709008 0 -0.00562201)
(0.0443691 0 -0.00349913)
(0.0152476 0 -0.00120456)
(0.232482 0 -0.0441839)
(0.235407 0 -0.0419421)
(0.236812 0 -0.0396182)
(0.236744 0 -0.0372357)
(0.235279 0 -0.0348573)
(0.232417 0 -0.0324915)
(0.228161 0 -0.030176)
(0.222471 0 -0.0279102)
(0.2153 0 -0.0257015)
(0.206586 0 -0.0235444)
(0.196256 0 -0.0214326)
(0.184229 0 -0.0193538)
(0.170418 0 -0.0172927)
(0.154731 0 -0.015232)
(0.137068 0 -0.0131502)
(0.117327 0 -0.0110225)
(0.0953992 0 -0.00882023)
(0.0711745 0 -0.00650996)
(0.0445428 0 -0.00405281)
(0.0153094 0 -0.00139514)
(0.240947 0 -0.0490962)
(0.242373 0 -0.0465913)
(0.242536 0 -0.0440101)
(0.241463 0 -0.041392)
(0.23918 0 -0.0387837)
(0.235657 0 -0.0362026)
(0.230855 0 -0.0336692)
(0.224715 0 -0.0311881)
(0.217172 0 -0.0287619)
(0.208147 0 -0.0263856)
(0.197558 0 -0.024051)
(0.185315 0 -0.0217451)
(0.171321 0 -0.0194514)
(0.155479 0 -0.0171506)
(0.137681 0 -0.0148194)
(0.117821 0 -0.0124305)
(0.0957849 0 -0.00995249)
(0.0714567 0 -0.0073485)
(0.0447201 0 -0.00457577)
(0.0153719 0 -0.00157506)
(0.249362 0 -0.0534404)
(0.249353 0 -0.0507185)
(0.248318 0 -0.0479254)
(0.246275 0 -0.0451184)
(0.243188 0 -0.0423262)
(0.239001 0 -0.0395663)
(0.233646 0 -0.0368522)
(0.227046 0 -0.0341886)
(0.219118 0 -0.0315757)
(0.209771 0 -0.0290082)
(0.198911 0 -0.0264767)
(0.186439 0 -0.0239674)
(0.172253 0 -0.0214629)
(0.156246 0 -0.0189425)
(0.138307 0 -0.0163813)
(0.118322 0 -0.0137499)
(0.0961737 0 -0.0110146)
(0.0717389 0 -0.00813551)
(0.0448958 0 -0.00506662)
(0.0154333 0 -0.00174381)
(0.257477 0 -0.0572207)
(0.25614 0 -0.0543202)
(0.254011 0 -0.0513758)
(0.25105 0 -0.0484247)
(0.247194 0 -0.0454905)
(0.24236 0 -0.0425886)
(0.236461 0 -0.0397286)
(0.229403 0 -0.0369141)
(0.221087 0 -0.034144)
(0.211414 0 -0.0314122)
(0.200279 0 -0.0287086)
(0.187574 0 -0.026019)
(0.17319 0 -0.0233253)
(0.157014 0 -0.0206056)
(0.13893 0 -0.0178336)
(0.118818 0 -0.0149786)
(0.0965545 0 -0.0120046)
(0.072013 0 -0.00886941)
(0.0450649 0 -0.00552433)
(0.0154918 0 -0.00190104)
(0.265124 0 -0.0604522)
(0.262608 0 -0.0574286)
(0.259485 0 -0.0543773)
(0.255679 0 -0.051324)
(0.251102 0 -0.0482869)
(0.245655 0 -0.0452781)
(0.239233 0 -0.0423048)
(0.231729 0 -0.0393694)
(0.223035 0 -0.0364697)
(0.213039 0 -0.0335992)
(0.201629 0 -0.0307475)
(0.188691 0 -0.0278999)
(0.174108 0 -0.0250379)
(0.157762 0 -0.0221386)
(0.139532 0 -0.019175)
(0.119293 0 -0.0161151)
(0.096917 0 -0.0129211)
(0.0722713 0 -0.00954917)
(0.0452227 0 -0.00594817)
(0.0155459 0 -0.0020465)
(0.272171 0 -0.0631562)
(0.268634 0 -0.0600616)
(0.264631 0 -0.0569478)
(0.260066 0 -0.0538323)
(0.254831 0 -0.0507285)
(0.248815 0 -0.0476457)
(0.241901 0 -0.0445895)
(0.233974 0 -0.0415611)
(0.224916 0 -0.0385578)
(0.214607 0 -0.0355729)
(0.20293 0 -0.0325956)
(0.189763 0 -0.0296113)
(0.174985 0 -0.026601)
(0.158473 0 -0.0235416)
(0.140099 0 -0.0204052)
(0.119737 0 -0.0171588)
(0.0972514 0 -0.0137636)
(0.0725069 0 -0.0101742)
(0.0453649 0 -0.00633778)
(0.0155941 0 -0.00218004)
(0.278522 0 -0.0653577)
(0.274126 0 -0.0622424)
(0.269367 0 -0.0591086)
(0.264135 0 -0.0559683)
(0.258313 0 -0.0528311)
(0.25178 0 -0.0497046)
(0.244415 0 -0.0465932)
(0.236094 0 -0.0434976)
(0.226693 0 -0.0404148)
(0.216087 0 -0.0373379)
(0.204154 0 -0.0342564)
(0.190767 0 -0.0311555)
(0.175801 0 -0.0280164)
(0.159128 0 -0.0248154)
(0.140617 0 -0.0215245)
(0.120137 0 -0.0181099)
(0.097549 0 -0.0145321)
(0.0727135 0 -0.0107444)
(0.0454875 0 -0.00669302)
(0.0156351 0 -0.00230164)
(0.284116 0 -0.0670877)
(0.279019 0 -0.0639988)
(0.273628 0 -0.0608843)
(0.267828 0 -0.0577532)
(0.261493 0 -0.0546124)
(0.254502 0 -0.0514694)
(0.24673 0 -0.0483282)
(0.238049 0 -0.0451888)
(0.228331 0 -0.0420484)
(0.21745 0 -0.0389004)
(0.205276 0 -0.0357345)
(0.191682 0 -0.0325361)
(0.176538 0 -0.0292863)
(0.159713 0 -0.0259618)
(0.141074 0 -0.022534)
(0.120483 0 -0.0189691)
(0.0978019 0 -0.0152268)
(0.0728852 0 -0.01126)
(0.0455872 0 -0.00701407)
(0.0156676 0 -0.00241136)
(0.288923 0 -0.0683831)
(0.283276 0 -0.0653622)
(0.277374 0 -0.0623016)
(0.271101 0 -0.0592099)
(0.264328 0 -0.0560914)
(0.25694 0 -0.0529558)
(0.24881 0 -0.0498075)
(0.239807 0 -0.0466453)
(0.229803 0 -0.0434673)
(0.218668 0 -0.0402673)
(0.206273 0 -0.0370352)
(0.192488 0 -0.033757)
(0.17718 0 -0.0304141)
(0.160214 0 -0.0269831)
(0.141456 0 -0.0234356)
(0.120767 0 -0.0197376)
(0.0980028 0 -0.0158488)
(0.0730171 0 -0.0117216)
(0.0456608 0 -0.00730126)
(0.0156907 0 -0.00250932)
(0.298909 0 -0.0721443)
(0.292989 0 -0.0692981)
(0.286929 0 -0.0663814)
(0.280626 0 -0.0634055)
(0.273974 0 -0.0603819)
(0.266841 0 -0.0573127)
(0.259107 0 -0.0542053)
(0.250665 0 -0.0510703)
(0.241374 0 -0.0479034)
(0.23111 0 -0.0447051)
(0.219744 0 -0.0414694)
(0.207146 0 -0.0381871)
(0.193183 0 -0.0348443)
(0.177723 0 -0.0314229)
(0.160629 0 -0.0278999)
(0.141763 0 -0.024247)
(0.120985 0 -0.0204305)
(0.0981494 0 -0.01641)
(0.0731073 0 -0.0121382)
(0.0457073 0 -0.00756015)
(0.0157041 0 -0.00259745)
(0.302465 0 -0.0725307)
(0.296289 0 -0.0698491)
(0.289947 0 -0.0670691)
(0.28335 0 -0.0642056)
(0.276396 0 -0.0612709)
(0.268976 0 -0.0582746)
(0.260967 0 -0.0552217)
(0.252265 0 -0.0521223)
(0.242729 0 -0.048972)
(0.232232 0 -0.0457698)
(0.220658 0 -0.0425139)
(0.207875 0 -0.0391962)
(0.193751 0 -0.0358034)
(0.178152 0 -0.0323176)
(0.160942 0 -0.0287164)
(0.141981 0 -0.0249719)
(0.121126 0 -0.0210507)
(0.0982327 0 -0.0169128)
(0.0731489 0 -0.0125113)
(0.0457222 0 -0.00779172)
(0.0157061 0 -0.00267606)
(0.292292 0 -0.0674413)
(0.285501 0 -0.0647115)
(0.278332 0 -0.0618866)
(0.270687 0 -0.0589784)
(0.262457 0 -0.0559952)
(0.253533 0 -0.0529445)
(0.243794 0 -0.0498286)
(0.233121 0 -0.0466462)
(0.221375 0 -0.0433896)
(0.208427 0 -0.0400513)
(0.194164 0 -0.0366228)
(0.178444 0 -0.0330872)
(0.161135 0 -0.0294225)
(0.142093 0 -0.0256009)
(0.121178 0 -0.02159)
(0.0982424 0 -0.0173505)
(0.0731347 0 -0.012836)
(0.0457011 0 -0.00799291)
(0.0156953 0 -0.00274412)
(0.279755 0 -0.0622408)
(0.271952 0 -0.0594359)
(0.263557 0 -0.0565365)
(0.254462 0 -0.0535496)
(0.244555 0 -0.0504789)
(0.233721 0 -0.0473243)
(0.221834 0 -0.0440825)
(0.208777 0 -0.0407461)
(0.194403 0 -0.0373)
(0.17858 0 -0.0337286)
(0.161192 0 -0.0300149)
(0.142086 0 -0.0261307)
(0.121127 0 -0.0220455)
(0.0981699 0 -0.0177208)
(0.0730586 0 -0.0131105)
(0.0456404 0 -0.00816263)
(0.0156705 0 -0.00280128)
(0.272752 0 -0.0596569)
(0.264244 0 -0.0568526)
(0.255025 0 -0.0539416)
(0.244993 0 -0.050929)
(0.234034 0 -0.0478152)
(0.222032 0 -0.0445978)
(0.208866 0 -0.04127)
(0.194409 0 -0.0378211)
(0.17854 0 -0.0342365)
(0.161104 0 -0.0304919)
(0.141947 0 -0.0265587)
(0.120965 0 -0.0224149)
(0.0980077 0 -0.0180218)
(0.0729151 0 -0.0133335)
(0.0455368 0 -0.00829998)
(0.0156307 0 -0.00284724)
(0.255205 0 -0.0541263)
(0.245087 0 -0.0511824)
(0.234039 0 -0.0481205)
(0.221953 0 -0.0449394)
(0.20871 0 -0.0416329)
(0.194189 0 -0.0381911)
(0.178267 0 -0.0345999)
(0.160817 0 -0.0308416)
(0.141663 0 -0.0268825)
(0.120681 0 -0.0226963)
(0.0977502 0 -0.0182521)
(0.0727 0 -0.0135039)
(0.0453876 0 -0.0084043)
(0.0155748 0 -0.00288179)
(0.23372 0 -0.0482431)
(0.22158 0 -0.0451084)
(0.20829 0 -0.0418348)
(0.193731 0 -0.0384121)
(0.177781 0 -0.0348271)
(0.160311 0 -0.0310616)
(0.141179 0 -0.0270901)
(0.120266 0 -0.022887)
(0.0973995 0 -0.0184122)
(0.0724105 0 -0.0136211)
(0.0451907 0 -0.00847515)
(0.0155024 0 -0.00290481)
(0.220902 0 -0.0451072)
(0.207594 0 -0.0418767)
(0.193023 0 -0.0384843)
(0.177072 0 -0.0349181)
(0.159616 0 -0.0311604)
(0.140521 0 -0.0271884)
(0.11966 0 -0.0229758)
(0.0969005 0 -0.018491)
(0.0720461 0 -0.013685)
(0.0449452 0 -0.00851241)
(0.015413 0 -0.00291625)
(0.192059 0 -0.0384092)
(0.176133 0 -0.0348734)
(0.158717 0 -0.031137)
(0.139683 0 -0.0271784)
(0.118902 0 -0.022972)
(0.0962402 0 -0.0184867)
(0.0715556 0 -0.0136858)
(0.044655 0 -0.00851694)
(0.0153077 0 -0.00291636)
(0.174959 0 -0.0346939)
(0.157611 0 -0.0309918)
(0.138663 0 -0.0270603)
(0.117989 0 -0.0228757)
(0.0954579 0 -0.0184081)
(0.0709296 0 -0.0136222)
(0.0442671 0 -0.00847873)
(0.0151917 0 -0.00290623)
(0.137459 0 -0.0268352)
(0.116921 0 -0.0226875)
(0.094552 0 -0.0182551)
(0.0702166 0 -0.0135043)
(0.0437767 0 -0.00839717)
(0.0150047 0 -0.00287437)
(0.1157 0 -0.0224086)
(0.093525 0 -0.0180287)
(0.0694182 0 -0.0133325)
(0.04325 0 -0.00828525)
(0.0148135 0 -0.00283368)
(0.0685363 0 -0.0131073)
(0.0426767 0 -0.00814107)
(0.0146099 0 -0.00278265)
(0.0420556 0 -0.00796435)
(0.014391 0 -0.00272072)
(0.0141568 0 -0.00264781)
)
;

boundaryField
{
    inlet
    {
        type            cellMotion;
        value           nonuniform 0();
    }
    outlet
    {
        type            cellMotion;
        value           uniform (0 0 0);
    }
    flap
    {
        type            cellMotion;
        value           nonuniform 0();
    }
    upperWall
    {
        type            slip;
    }
    lowerWall
    {
        type            slip;
    }
    frontAndBack
    {
        type            empty;
    }
    procBoundary5to2
    {
        type            processor;
        value           nonuniform List<vector> 
34
(
(0.305089 0 -0.0725523)
(0.298796 0 -0.070061)
(0.298796 0 -0.070061)
(0.293954 0 -0.0675208)
(0.287059 0 -0.0649401)
(0.287059 0 -0.0649401)
(0.280647 0 -0.0623464)
(0.280647 0 -0.0623464)
(0.273067 0 -0.0596508)
(0.264499 0 -0.0569507)
(0.264499 0 -0.0569507)
(0.25498 0 -0.054108)
(0.244817 0 -0.0512422)
(0.244817 0 -0.0512422)
(0.233059 0 -0.0481844)
(0.233059 0 -0.0481844)
(0.219904 0 -0.0449362)
(0.20661 0 -0.0417593)
(0.20661 0 -0.0417593)
(0.190827 0 -0.0381862)
(0.190827 0 -0.0381862)
(0.173542 0 -0.0343789)
(0.156292 0 -0.0307244)
(0.156292 0 -0.0307244)
(0.136071 0 -0.0265023)
(0.136071 0 -0.0265023)
(0.114327 0 -0.0220384)
(0.0923788 0 -0.0177291)
(0.0923788 0 -0.0177291)
(0.0675711 0 -0.0128283)
(0.0675711 0 -0.0128283)
(0.0413866 0 -0.00775464)
(0.0413866 0 -0.00775464)
(0.0139078 0 -0.0025638)
)
;
    }
    procBoundary5to4
    {
        type            processor;
        value           nonuniform List<vector> 
18
(
(0.18655 0 -0.00418621)
(0.18903 0 -0.0123736)
(0.193749 0 -0.0201289)
(0.20037 0 -0.0274068)
(0.208542 0 -0.034205)
(0.217845 0 -0.0404962)
(0.227846 0 -0.0462524)
(0.238132 0 -0.0514459)
(0.24831 0 -0.0560491)
(0.258034 0 -0.0600382)
(0.267079 0 -0.063417)
(0.275318 0 -0.0662104)
(0.282651 0 -0.068441)
(0.289025 0 -0.0701417)
(0.294422 0 -0.0713556)
(0.294422 0 -0.0713556)
(0.304778 0 -0.0749088)
(0.308554 0 -0.0750963)
)
;
    }
}


// ************************************************************************* //
