/*--------------------------------*- C++ -*----------------------------------*\
| =========                 |                                                 |
| \\      /  F ield         | OpenFOAM: The Open Source CFD Toolbox           |
|  \\    /   O peration     | Version:  dev                                   |
|   \\  /    A nd           | Web:      www.OpenFOAM.org                      |
|    \\/     M anipulation  |                                                 |
\*---------------------------------------------------------------------------*/
FoamFile
{
    version     2.0;
    format      ascii;
    class       volVectorField;
    location    "4.89";
    object      Force;
}
// * * * * * * * * * * * * * * * * * * * * * * * * * * * * * * * * * * * * * //

dimensions      [1 1 -2 0 0 0 0];

internalField   uniform (0 0 0);

boundaryField
{
    inlet
    {
        type            calculated;
        value           uniform (0 0 0);
    }
    outlet
    {
        type            calculated;
        value           uniform (0 0 0);
    }
    flap
    {
        type            calculated;
        value           nonuniform List<vector> 
33
(
(3.25719 -1.42406e-22 -0.160241)
(3.2311 1.86039e-17 -0.383397)
(3.17817 2.94306e-22 -0.607954)
(3.08546 -2.40634e-24 -0.794258)
(2.95737 -2.58829e-22 -0.938582)
(2.80582 4.20816e-21 -1.04123)
(2.64184 2.93874e-39 -1.10605)
(2.47473 -7.20658e-18 -1.13748)
(2.30795 9.40395e-38 -1.13986)
(2.14185 -6.45299e-18 -1.11585)
(1.97508 1.6495e-17 -1.06728)
(1.79942 -5.87747e-39 -0.994223)
(1.5998 -2.31049e-21 -0.893627)
(1.35104 1.43996e-17 -0.755777)
(1.00571 2.2376e-22 -0.562358)
(0.387507 6.80842e-21 0.68393)
(0.245232 -6.07227e-21 0.433812)
(0.0978025 0 0.175684)
(-0.0851956 1.36419e-17 0.00418123)
(-0.0843474 1.38111e-17 0.00994832)
(-0.0826988 2.58463e-26 0.0157362)
(-0.080266 1.61715e-24 0.0205)
(-0.0771315 2.28486e-19 0.0242659)
(-0.073402 6.5406e-23 0.0269688)
(-0.0692146 2.09468e-19 0.0286352)
(-0.0646724 5.91335e-23 0.0293277)
(-0.0598511 3.12621e-23 0.0291068)
(-0.0547639 -1.561e-17 0.0280212)
(-0.0496139 1.54538e-19 0.0262587)
(-0.0449331 -4.43963e-23 0.0242682)
(-0.0403311 1.25736e-19 0.0219991)
(-0.0312825 -2.59648e-22 0.0170223)
(-0.0105129 -2.26551e-17 0.00495513)
)
;
    }
    upperWall
    {
        type            calculated;
        value           uniform (0 0 0);
    }
    lowerWall
    {
        type            calculated;
        value           uniform (0 0 0);
    }
    frontAndBack
    {
        type            empty;
    }
}


// ************************************************************************* //
