/*--------------------------------*- C++ -*----------------------------------*\
| =========                 |                                                 |
| \\      /  F ield         | OpenFOAM: The Open Source CFD Toolbox           |
|  \\    /   O peration     | Version:  dev                                   |
|   \\  /    A nd           | Web:      www.OpenFOAM.org                      |
|    \\/     M anipulation  |                                                 |
\*---------------------------------------------------------------------------*/
FoamFile
{
    version     2.0;
    format      ascii;
    class       volVectorField;
    location    "4.89";
    object      U;
}
// * * * * * * * * * * * * * * * * * * * * * * * * * * * * * * * * * * * * * //

dimensions      [0 1 -1 0 0 0 0];

internalField   nonuniform List<vector> 
2790
(
(9.93399 2.91773e-20 0.0185753)
(9.86614 -3.0187e-20 0.0257118)
(9.77358 0 0.0303621)
(9.66085 4.10593e-21 0.0351467)
(9.53429 -4.25978e-21 0.0401161)
(9.39554 8.94878e-21 0.0452496)
(9.24392 -1.86198e-20 0.0506842)
(9.07843 1.93998e-20 0.0565605)
(8.89817 -1.0158e-20 0.062996)
(8.7023 0 0.07011)
(8.48982 -2.23787e-20 0.0780236)
(8.2595 2.31455e-20 0.0868636)
(8.00999 0 0.0967751)
(7.73981 -3.19603e-21 0.107922)
(7.44734 5.40861e-20 0.120483)
(7.13087 -5.59134e-20 0.134642)
(6.78862 1.47792e-20 0.150576)
(6.41886 0 0.168468)
(6.01994 -1.31612e-19 0.188493)
(5.59039 2.74175e-19 0.210802)
(5.12904 -1.42725e-19 0.235486)
(4.63521 3.79385e-19 0.262554)
(4.10889 -3.13489e-19 0.291894)
(3.55102 0 0.323214)
(2.96372 -8.57943e-20 0.35595)
(2.3507 0 0.389076)
(1.71753 -7.35126e-19 0.420702)
(1.0744 5.58131e-19 0.445144)
(0.381426 0 0.406554)
(-0.148293 0 -0.213279)
(9.99731 -8.37574e-20 0.0364638)
(9.98868 9.41862e-20 0.0523882)
(9.95701 -7.83296e-21 0.0636161)
(9.90335 0 0.0756687)
(9.83299 0 0.0886565)
(9.74774 7.11577e-20 0.102461)
(9.64716 -5.54397e-20 0.117346)
(9.53044 -9.67321e-21 0.133616)
(9.39678 3.02916e-20 0.151537)
(9.24543 0 0.171389)
(9.07548 -8.88347e-20 0.19345)
(8.88581 8.60375e-20 0.218014)
(8.67511 0 0.24542)
(8.44195 3.16594e-21 0.276039)
(8.18475 0 0.310264)
(7.90177 -2.52097e-19 0.348477)
(7.59121 1.87899e-19 0.391013)
(7.2512 2.16342e-19 0.438158)
(6.87991 3.27316e-19 0.490129)
(6.4756 -5.34549e-19 0.546991)
(6.03669 0 0.608558)
(5.56193 5.12881e-19 0.674287)
(5.05058 -6.22771e-19 0.743151)
(4.50256 6.40451e-19 0.813448)
(3.9187 1.43259e-18 0.882482)
(3.30109 -1.38081e-18 0.945954)
(2.65334 0 0.996647)
(1.9844 1.64249e-18 1.01954)
(1.25174 -4.39765e-18 0.977753)
(0.778312 3.11059e-18 0.804939)
(9.99467 5.82145e-20 0.0369181)
(9.98333 -6.02276e-20 0.0596256)
(9.95399 1.56894e-20 0.0782331)
(9.9052 -1.62793e-20 0.0980416)
(9.84088 3.39766e-20 0.119492)
(9.76293 -7.10383e-20 0.142527)
(9.67116 1.66522e-19 0.167473)
(9.56488 3.92377e-20 0.194751)
(9.44341 -8.01925e-20 0.22478)
(9.30612 8.45959e-20 0.258002)
(9.1523 -9.8383e-20 0.294868)
(8.98098 1.722e-20 0.335872)
(8.79104 1.49977e-21 0.381582)
(8.58123 -2.02628e-19 0.432622)
(8.35015 2.09141e-19 0.489663)
(8.09628 4.72201e-19 0.553383)
(7.81791 -4.29734e-19 0.624396)
(7.51319 3.03073e-20 0.703253)
(7.18025 -6.35051e-20 0.790424)
(6.81712 6.67668e-19 0.886164)
(6.42178 -5.51324e-19 0.990356)
(5.99219 -1.17025e-18 1.10233)
(5.52639 1.35402e-18 1.22066)
(5.02244 0 1.34289)
(4.47838 0 1.46503)
(3.89196 0 1.58079)
(3.25916 0 1.68026)
(2.57526 -3.53138e-19 1.747)
(1.77901 0 1.76073)
(1.07276 0 1.69907)
(9.99289 0 0.0397015)
(9.97904 1.20099e-19 0.0708974)
(9.94947 0 0.0983304)
(9.9018 0 0.126278)
(9.83896 -3.39382e-20 0.155878)
(9.76281 1.41615e-19 0.187439)
(9.6734 -7.35102e-20 0.221423)
(9.5702 -3.84752e-20 0.258387)
(9.45261 -2.0075e-20 0.298917)
(9.32017 1.68446e-19 0.343615)
(9.1724 -1.63036e-19 0.393097)
(9.00857 -1.9536e-19 0.448045)
(8.82781 1.8834e-19 0.509243)
(8.62919 4.02255e-19 0.577536)
(8.41166 -4.14925e-19 0.653843)
(8.17413 0 0.739145)
(7.91528 -4.6078e-19 0.834382)
(7.63352 5.34382e-19 0.940419)
(7.32733 0 1.05807)
(6.99496 -1.31109e-19 1.18798)
(6.63442 0 1.3304)
(6.24332 0 1.48499)
(5.81887 1.46232e-19 1.65055)
(5.35765 0 1.82475)
(4.85507 -2.56477e-18 2.00375)
(4.30457 5.25739e-18 2.18169)
(3.69539 -2.68557e-18 2.35017)
(3.01454 3.45397e-19 2.49768)
(2.20574 3.42865e-19 2.61502)
(1.34943 3.67584e-19 2.73991)
(9.99183 0 0.0440357)
(9.97663 -2.09784e-19 0.0823368)
(9.94688 -3.11539e-20 0.11732)
(9.90004 0 0.152458)
(9.83852 -1.35442e-19 0.189453)
(9.76401 -7.10113e-20 0.228982)
(9.67665 3.64355e-20 0.271602)
(9.57601 -1.53875e-19 0.317951)
(9.46151 1.59026e-19 0.368725)
(9.3328 0 0.424626)
(9.18953 1.74924e-19 0.486377)
(9.0311 1.84826e-19 0.554799)
(8.85684 -7.58542e-19 0.63083)
(8.66602 -1.13709e-20 0.715469)
(8.45782 -5.64685e-21 0.809784)
(8.23156 -6.08715e-21 0.914982)
(7.98635 4.48537e-19 1.03232)
(7.72091 -1.17913e-19 1.16294)
(7.43402 -1.11516e-18 1.30794)
(7.12433 1.02045e-18 1.46838)
(6.79013 -1.33237e-19 1.64503)
(6.4291 0 1.83818)
(6.0381 -5.78638e-19 2.04737)
(5.61286 2.41319e-18 2.27107)
(5.14735 -2.15603e-18 2.50661)
(4.63278 0 2.75013)
(4.0554 -5.54488e-18 2.99647)
(3.39875 5.2751e-18 3.24016)
(2.63924 -5.80178e-18 3.46364)
(1.6701 5.71183e-18 3.78875)
(9.99117 0 0.0491375)
(9.97538 2.39127e-19 0.093799)
(9.94579 -9.31105e-20 0.135879)
(9.89995 -3.23134e-20 0.178204)
(9.84 6.74799e-20 0.222646)
(9.76745 3.3494e-22 0.270124)
(9.68251 7.39928e-20 0.32128)
(9.58478 -1.5185e-19 0.376825)
(9.47372 0 0.437544)
(9.3491 -2.07853e-19 0.504223)
(9.21062 1.71842e-19 0.577689)
(9.05776 0 0.658896)
(8.88998 0 0.748922)
(8.70674 -3.8822e-19 0.848909)
(8.50734 8.31355e-19 0.960039)
(8.29122 -4.24191e-19 1.08366)
(8.0579 -5.5466e-20 1.2213)
(7.8065 5.82652e-20 1.37443)
(7.53598 -9.73672e-19 1.54444)
(7.24521 1.89032e-18 1.73272)
(6.93283 -9.09346e-19 1.9406)
(6.59678 2.70202e-19 2.16915)
(6.2341 2.83379e-19 2.41895)
(5.84027 -2.88649e-19 2.68979)
(5.40867 2.10445e-18 2.98053)
(4.93041 -2.44391e-18 3.2896)
(4.39225 -4.38105e-18 3.61442)
(3.77243 5.04068e-18 3.95505)
(3.10491 1.59723e-19 4.26304)
(2.03939 -6.79991e-19 4.77001)
(9.99082 -1.43988e-20 0.0546149)
(9.97487 -7.45872e-20 0.105258)
(9.94574 3.14046e-20 0.154031)
(9.90112 -6.44012e-20 0.203325)
(9.84297 -6.73582e-20 0.254972)
(9.77275 6.98893e-20 0.310064)
(9.69067 -7.26892e-20 0.369376)
(9.59632 2.27968e-19 0.43372)
(9.48925 -2.37113e-19 0.503954)
(9.36932 2.04957e-19 0.580937)
(9.23625 3.44647e-19 0.665595)
(9.08961 -3.99845e-19 0.758995)
(8.92899 3.97625e-19 0.862332)
(8.75395 -7.76255e-19 0.976877)
(8.56397 3.82747e-19 1.10393)
(8.35847 0 1.24493)
(8.13715 5.50085e-20 1.40156)
(7.89955 -5.67644e-20 1.57563)
(7.64482 1.18412e-21 1.76885)
(7.37199 1.23849e-19 1.98298)
(7.07987 0 2.21988)
(6.76668 1.8617e-18 2.48134)
(6.43003 -2.17352e-18 2.76915)
(6.06585 2.83385e-19 3.08463)
(5.66752 -4.62669e-18 3.42821)
(5.22671 4.40015e-18 3.80007)
(4.73321 -5.06825e-18 4.19855)
(4.15425 4.78734e-18 4.6303)
(3.60137 3.66376e-20 4.9977)
(2.44893 1.71052e-19 5.66027)
(9.99067 0 0.0602351)
(9.97487 0 0.116612)
(9.94647 3.08906e-19 0.171687)
(9.90328 -6.41482e-20 0.227654)
(9.8472 0 0.286235)
(9.77965 2.08614e-19 0.348626)
(9.70079 7.25124e-20 0.41575)
(9.61026 -2.26813e-19 0.488518)
(9.50773 7.76574e-20 0.567846)
(9.39308 3.28103e-19 0.654657)
(9.26605 -6.79865e-19 0.749964)
(9.12634 3.96291e-19 0.854923)
(8.97362 3.93041e-19 0.970837)
(8.80757 -3.81014e-19 1.0991)
(8.62782 3.14705e-21 1.24114)
(8.43385 8.21088e-19 1.39847)
(8.22543 -8.56548e-19 1.57292)
(8.00233 9.56375e-19 1.76653)
(7.76395 -8.06298e-19 1.98139)
(7.50952 1.19424e-19 2.21968)
(7.23798 -1.23396e-19 2.48373)
(6.94782 -2.06162e-18 2.77604)
(6.63693 2.10195e-18 3.09941)
(6.30221 2.67829e-19 3.45674)
(5.93807 4.42648e-18 3.8501)
(5.53628 -4.05569e-18 4.28076)
(5.09115 0 4.74617)
(4.55187 -1.73129e-20 5.26213)
(4.12053 -3.56662e-20 5.67011)
(2.88769 4.99237e-18 6.46488)
(9.9907 0 0.0658431)
(9.97528 -2.3628e-19 0.127742)
(9.94783 -1.84791e-19 0.188769)
(9.90629 -2.55097e-22 0.251083)
(9.85255 6.63944e-20 0.316294)
(9.78796 -2.76813e-19 0.385656)
(9.71266 0 0.460223)
(9.62636 -7.47051e-20 0.540991)
(9.52882 7.76724e-20 0.628934)
(9.41997 3.25289e-19 0.725042)
(9.2996 -4.19107e-19 0.830396)
(9.16747 3.08168e-19 0.946228)
(9.02337 -4.07597e-19 1.07394)
(8.86708 2.35359e-20 1.21503)
(8.69839 2.75135e-20 1.37104)
(8.51692 1.27886e-20 1.54361)
(8.32246 0 1.73466)
(8.11492 0 1.94645)
(7.89393 0 2.18142)
(7.65897 -5.97026e-20 2.44219)
(7.40923 -1.81665e-18 2.7316)
(7.14354 -2.09861e-18 3.05283)
(6.85985 0 3.40952)
(6.55582 -2.62091e-19 3.80584)
(6.2274 0 4.24552)
(5.86637 -6.92616e-20 4.73098)
(5.4723 0 5.25706)
(4.9695 4.22069e-18 5.85206)
(4.656 -4.21524e-18 6.29191)
(3.34708 0 7.20284)
(9.99081 2.27319e-19 0.0713357)
(9.97596 2.35915e-19 0.138544)
(9.94967 6.13369e-20 0.205199)
(9.90999 2.43651e-22 0.27352)
(9.85879 -6.60528e-20 0.345025)
(9.7974 1.37848e-19 0.420998)
(9.72596 1.43519e-19 0.502599)
(9.64425 2.2471e-19 0.590906)
(9.5521 -3.85146e-19 0.686941)
(9.4495 0 0.791758)
(9.33634 8.35417e-20 0.906506)
(9.21242 4.33829e-20 1.03248)
(9.07762 0 1.17116)
(8.93186 -2.33728e-20 1.32413)
(8.77505 -2.42424e-20 1.49304)
(8.607 2.48814e-20 1.67966)
(8.42756 0 1.88602)
(8.23672 6.64481e-21 2.11455)
(8.0343 0 2.36798)
(7.82019 -5.72418e-20 2.6494)
(7.59385 5.78624e-20 2.96218)
(7.35433 6.14529e-20 3.31015)
(7.10017 -3.96739e-18 3.69785)
(6.82939 -5.26324e-21 4.13045)
(6.53909 4.01594e-18 4.613)
(6.22107 -4.05823e-18 5.14971)
(5.88057 4.25772e-18 5.73212)
(5.41194 -3.90203e-18 6.40383)
(5.20668 3.92443e-18 6.87899)
(3.82478 4.16259e-18 7.90096)
(9.99097 -1.98628e-19 0.0766512)
(9.97682 -2.63447e-19 0.148931)
(9.95189 0 0.220889)
(9.91427 2.5293e-19 0.294867)
(9.86583 0 0.372317)
(9.80788 -1.36493e-19 0.454516)
(9.74062 -2.84242e-19 0.542714)
(9.66382 5.90207e-19 0.638072)
(9.57743 -3.05178e-19 0.741653)
(9.48146 7.92187e-20 0.854549)
(9.37597 0 0.977978)
(9.26082 -8.51564e-20 1.11331)
(9.13591 0 1.26207)
(9.00132 8.28403e-19 1.42591)
(8.8571 -7.55933e-19 1.60655)
(8.70326 7.6365e-19 1.8059)
(8.53981 8.20579e-19 2.02616)
(8.36681 -1.67001e-18 2.26989)
(8.18419 1.75074e-18 2.54001)
(7.99231 1.1174e-20 2.84002)
(7.79112 -1.8416e-18 3.17388)
(7.57978 5.80399e-20 3.54604)
(7.35765 5.89872e-20 3.96189)
(7.12327 -3.76026e-18 4.42769)
(6.87451 3.77247e-18 4.94968)
(6.6028 -3.73686e-18 5.53461)
(6.31939 3.50957e-18 6.1715)
(5.8867 3.1491e-18 6.9208)
(5.77902 -3.62734e-18 7.44835)
(4.32737 0 8.59418)
(9.99122 -1.96989e-19 0.0817308)
(9.97794 2.04584e-19 0.158821)
(9.95449 0 0.235761)
(9.91908 -3.77676e-19 0.315038)
(9.87363 5.6243e-22 0.398049)
(9.81941 1.36811e-19 0.48606)
(9.75659 6.71223e-22 0.580404)
(9.68503 -1.4664e-19 0.682314)
(9.60471 3.04512e-19 0.792876)
(9.51572 -3.92348e-19 0.913194)
(9.41826 1.62406e-19 1.04454)
(9.31227 7.62294e-19 1.18838)
(9.19771 -6.08747e-19 1.3463)
(9.07489 -9.06455e-20 1.51994)
(8.94392 -7.48544e-19 1.71107)
(8.80495 1.53798e-18 1.92176)
(8.65828 8.49617e-19 2.15435)
(8.50411 -1.62236e-18 2.41153)
(8.34264 -1.69972e-18 2.6964)
(8.17427 1.70235e-18 3.01266)
(7.99971 -1.37156e-20 3.36488)
(7.8188 0 3.75821)
(7.63128 3.66408e-18 4.19872)
(7.43675 -3.57944e-18 4.69394)
(7.23385 -2.18481e-19 5.25152)
(7.0134 4.29996e-19 5.88138)
(6.79306 0 6.57269)
(6.40588 -2.84295e-18 7.40245)
(6.39026 6.44416e-18 8.01412)
(4.87586 -3.51007e-18 9.32655)
(9.99154 2.52893e-19 0.086518)
(9.97922 2.90824e-20 0.168143)
(9.95739 1.20118e-19 0.249759)
(9.92432 3.13509e-19 0.333962)
(9.88203 -1.29205e-19 0.422114)
(9.83174 1.35251e-19 0.515495)
(9.77358 -1.39588e-19 0.61552)
(9.7075 1.44663e-19 0.723466)
(9.63353 -1.51687e-19 0.840417)
(9.55188 3.10244e-19 0.967479)
(9.4628 1.61602e-19 1.10598)
(9.36627 -3.31853e-19 1.25746)
(9.26248 -7.33238e-22 1.42353)
(9.15192 8.832e-20 1.60582)
(9.03471 8.25114e-19 1.80616)
(8.91125 -1.50578e-18 2.02673)
(8.78204 -8.28668e-19 2.26995)
(8.64747 1.58097e-18 2.53863)
(8.50825 1.52225e-18 2.83606)
(8.36486 -1.54541e-18 3.16606)
(8.21831 0 3.53348)
(8.06968 0 3.94423)
(7.91938 3.27041e-18 4.40511)
(7.76822 -3.62831e-20 4.92475)
(7.61617 -3.55667e-18 5.51258)
(7.45435 -4.16634e-19 6.18231)
(7.30693 0 6.92721)
(6.98711 7.26098e-19 7.83892)
(7.07187 6.94698e-19 8.57956)
(5.51473 0 10.1524)
(9.99186 0 0.0909852)
(9.98055 -2.305e-19 0.176849)
(9.96045 -2.40274e-19 0.262821)
(9.9299 0 0.351565)
(9.89096 1.29446e-19 0.444426)
(9.84475 -5.64867e-22 0.542732)
(9.7914 0 0.64796)
(9.73096 -4.32456e-19 0.761397)
(9.66359 1.47566e-19 0.884103)
(9.58961 1.53379e-19 1.0172)
(9.5092 1.58451e-19 1.16206)
(9.4224 0 1.32029)
(9.32973 -7.64576e-19 1.49347)
(9.23172 -9.17814e-20 1.68321)
(9.12858 4.47009e-19 1.89139)
(9.02108 -7.38612e-19 2.12028)
(8.90985 7.53114e-19 2.37232)
(8.79546 0 2.65037)
(8.67913 9.90494e-20 2.95784)
(8.56197 -1.69445e-18 3.29874)
(8.44499 3.89503e-21 3.67791)
(8.33019 1.90563e-19 4.10163)
(8.21958 -1.61959e-18 4.57747)
(8.11505 0 5.11471)
(8.01905 3.47862e-18 5.72464)
(7.92539 -3.06732e-18 6.42465)
(7.86516 0 7.21624)
(7.65137 -7.02125e-19 8.2006)
(7.87192 -7.41796e-20 9.11551)
(6.32345 0 11.1405)
(9.99221 -4.43297e-19 0.0951212)
(9.98191 4.5927e-19 0.184915)
(9.96359 -2.37941e-19 0.274889)
(9.93572 -2.46896e-19 0.367757)
(9.90032 0 0.464896)
(9.85831 -2.6525e-19 0.567692)
(9.80984 -5.50575e-19 0.677638)
(9.75523 5.69876e-19 0.79599)
(9.6947 -2.9388e-19 0.92379)
(9.62861 -1.52685e-19 1.0622)
(9.55706 -1.57637e-19 1.21266)
(9.4802 6.49386e-19 1.37675)
(9.39891 -1.33384e-18 1.55598)
(9.31366 6.84012e-19 1.75195)
(9.22487 1.76947e-19 1.96663)
(9.13346 -7.22175e-19 2.20222)
(9.0403 7.35535e-19 2.46118)
(8.94653 0 2.74639)
(8.85347 0 3.06118)
(8.76295 0 3.40968)
(8.67654 1.54487e-18 3.7967)
(8.5969 9.76162e-19 4.2284)
(8.52779 -3.78639e-19 4.71262)
(8.47259 -3.7112e-19 5.25876)
(8.43727 -7.18424e-19 5.87896)
(8.42124 0 6.59239)
(8.46456 0 7.40958)
(8.41039 0 8.42833)
(8.84396 -1.60336e-18 9.51058)
(7.41588 0 12.4239)
(0.110669 0 -0.0903819)
(0.272703 0 -0.113089)
(0.474927 0 -0.0948034)
(0.669835 -1.68078e-20 -0.0738326)
(0.840595 1.72419e-22 -0.0576736)
(0.988211 1.18418e-20 -0.0463777)
(1.11873 0 -0.0389064)
(1.23585 -8.05017e-21 -0.0336954)
(1.3427 8.15773e-21 -0.029602)
(1.44015 0 -0.0257624)
(1.52756 -4.24904e-21 -0.0215682)
(1.60409 0 -0.0167156)
(1.66799 0 -0.0111562)
(1.71778 2.10814e-21 -0.00524812)
(1.75291 -2.08965e-21 0.0002304)
(1.77432 0 0.00446071)
(1.78471 -1.92813e-21 0.00696704)
(1.78753 5.6558e-21 0.00779635)
(1.78603 3.55873e-21 0.00727958)
(1.78351 0 0.00577038)
(1.78317 0 0.00364339)
(1.78682 3.36089e-22 0.00125911)
(1.79523 -3.3138e-22 -0.00102518)
(1.80802 0 -0.00286166)
(1.8237 0 -0.00404259)
(1.8412 0 -0.00458852)
(1.8594 0 -0.00462356)
(1.87673 0 -0.00431613)
(1.89273 -1.093e-23 -0.0038985)
(1.91156 1.07264e-23 -0.00360395)
(0.0938229 0 -0.206768)
(0.23948 0 -0.250292)
(0.444399 0 -0.216345)
(0.642565 -1.65454e-20 -0.176352)
(0.822149 -1.57688e-20 -0.145731)
(0.983642 -3.82992e-21 -0.124732)
(1.12915 -3.14813e-20 -0.110924)
(1.26131 3.23105e-20 -0.101642)
(1.38352 -1.64589e-20 -0.0946974)
(1.49731 1.66115e-20 -0.0882272)
(1.60351 4.24258e-21 -0.0808702)
(1.70264 -8.5426e-21 -0.0718966)
(1.79337 -8.51511e-21 -0.0611632)
(1.87536 1.69111e-20 -0.0489987)
(1.94791 0 -0.0363367)
(2.01023 0 -0.0244523)
(2.06224 3.84623e-21 -0.0145555)
(2.10495 -3.20662e-23 -0.00750066)
(2.14066 -3.54011e-21 -0.00367947)
(2.17222 5.06045e-21 -0.00297864)
(2.20217 7.77179e-21 -0.00466142)
(2.23136 0 -0.00765325)
(2.26017 5.05995e-21 -0.0109171)
(2.28822 4.44046e-21 -0.0136408)
(2.31471 -4.22297e-21 -0.0154037)
(2.33986 4.272e-22 -0.016139)
(2.36347 -2.60955e-22 -0.0158949)
(2.38474 2.57537e-22 -0.014882)
(2.40351 -4.35078e-23 -0.0134497)
(2.42185 4.27104e-23 -0.0115066)
(0.0637427 0 -0.348014)
(0.168744 -7.67978e-20 -0.392298)
(0.364154 9.66526e-22 -0.344529)
(0.54511 8.26752e-20 -0.287881)
(0.71013 1.58587e-20 -0.243232)
(0.859518 7.77424e-20 -0.211861)
(0.992814 -5.85383e-20 -0.19065)
(1.11303 -6.25774e-22 -0.176348)
(1.22363 3.70941e-20 -0.165805)
(1.32648 -3.32496e-20 -0.156373)
(1.42341 0 -0.146148)
(1.51537 2.56961e-20 -0.134034)
(1.60241 -1.70617e-20 -0.119627)
(1.68437 -1.68269e-20 -0.103334)
(1.76108 8.35559e-21 -0.0861191)
(1.8321 -8.13167e-21 -0.0693269)
(1.89725 7.86512e-21 -0.0544203)
(1.95639 -1.50281e-20 -0.0427611)
(2.00959 7.15854e-21 -0.0351986)
(2.05704 -1.66302e-20 -0.0317187)
(2.09918 3.25282e-21 -0.0313367)
(2.13612 5.68851e-21 -0.0325847)
(2.16835 -1.0159e-20 -0.0340521)
(2.19599 -4.43822e-21 -0.0347678)
(2.2188 4.66161e-21 -0.0344466)
(2.23724 1.58345e-21 -0.0331621)
(2.2515 6.91101e-22 -0.0309888)
(2.26161 -1.74527e-21 -0.0281355)
(2.26813 -4.34724e-23 -0.0247886)
(2.27091 4.26942e-23 -0.020281)
(0.0341841 0 -0.487449)
(0.0859343 -1.83919e-20 -0.511201)
(0.278499 1.02195e-19 -0.451078)
(0.441546 -2.57317e-19 -0.380346)
(0.588577 1.24622e-19 -0.324044)
(0.719522 5.43205e-20 -0.283999)
(0.834445 -6.62975e-20 -0.25654)
(0.935748 6.4943e-20 -0.23824)
(1.02774 -7.76943e-20 -0.224912)
(1.11264 -2.55097e-20 -0.213622)
(1.19281 -3.39585e-20 -0.202013)
(1.27003 3.45242e-20 -0.188575)
(1.34447 -3.43196e-20 -0.172765)
(1.41659 2.55919e-20 -0.154863)
(1.48673 -8.4568e-21 -0.135611)
(1.55391 8.14004e-21 -0.116489)
(1.61768 -7.87087e-21 -0.0990243)
(1.6773 -7.70489e-21 -0.084504)
(1.73205 -7.16244e-21 -0.0736085)
(1.78102 2.36161e-20 -0.0662416)
(1.82357 -9.46831e-21 -0.0615184)
(1.85903 -1.72313e-20 -0.0581915)
(1.88709 7.53805e-21 -0.0551009)
(1.90781 -2.39584e-21 -0.0514029)
(1.92125 0 -0.046847)
(1.92784 3.2318e-21 -0.0415574)
(1.92814 0 -0.0357352)
(1.92292 5.29202e-21 -0.0297405)
(1.91353 0 -0.0239162)
(1.89806 0 -0.0180961)
(0.00653893 -1.78289e-22 -0.624292)
(-0.00673077 -2.67186e-19 -0.609392)
(0.191169 3.57113e-20 -0.539051)
(0.33366 1.56893e-19 -0.4567)
(0.459705 -1.08146e-19 -0.390858)
(0.568313 6.06126e-21 -0.343007)
(0.660581 1.24951e-19 -0.30987)
(0.738908 -6.55456e-20 -0.28841)
(0.808369 6.59132e-20 -0.273643)
(0.87259 2.58398e-20 -0.261525)
(0.933761 3.42972e-20 -0.249487)
(0.993829 1.74677e-20 -0.235849)
(1.05325 -3.46868e-20 -0.219861)
(1.11233 1.73719e-20 -0.201727)
(1.17103 -5.09395e-20 -0.182079)
(1.22889 3.30404e-20 -0.161929)
(1.28518 -1.61749e-20 -0.142552)
(1.33824 -2.28483e-22 -0.125239)
(1.38675 1.47408e-20 -0.110641)
(1.42938 -2.7498e-20 -0.0987349)
(1.46516 -3.06968e-21 -0.0888728)
(1.49349 1.45915e-20 -0.0801288)
(1.51422 1.30375e-20 -0.0716814)
(1.52767 -9.57864e-21 -0.0629949)
(1.5344 -3.01448e-21 -0.0539887)
(1.53504 -5.51681e-21 -0.0449092)
(1.53021 5.41039e-22 -0.0361106)
(1.52056 -7.88612e-21 -0.0280661)
(1.50713 2.33192e-21 -0.0212729)
(1.48532 -6.9455e-22 -0.0160447)
(-0.0173292 0 -0.757225)
(-0.106512 3.35281e-20 -0.68748)
(0.101121 9.54031e-20 -0.60969)
(0.220384 -1.53963e-19 -0.515097)
(0.322484 -1.54193e-20 -0.439109)
(0.404987 1.09623e-19 -0.384034)
(0.4705 -1.90232e-19 -0.348374)
(0.524429 6.48199e-20 -0.325344)
(0.571522 1.69355e-20 -0.309764)
(0.615495 6.99716e-20 -0.297628)
(0.658514 6.96318e-20 -0.286097)
(0.70225 3.54558e-20 -0.273268)
(0.747268 3.54392e-20 -0.25813)
(0.793748 -5.24741e-20 -0.24063)
(0.841532 1.68977e-20 -0.221215)
(0.889954 1.6777e-20 -0.200759)
(0.938078 -3.61599e-22 -0.180346)
(0.984569 -1.61935e-20 -0.160996)
(1.02801 -7.49281e-21 -0.143372)
(1.06686 6.71207e-21 -0.127694)
(1.09996 0 -0.113626)
(1.12653 0 -0.100557)
(1.14617 -1.05947e-20 -0.0879125)
(1.15886 9.30826e-21 -0.0753249)
(1.16474 0 -0.0627093)
(1.1639 0 -0.0502241)
(1.15644 5.54095e-22 -0.0382131)
(1.1424 -6.34114e-22 -0.0271834)
(1.12242 -2.16365e-21 -0.017868)
(1.08845 6.97782e-22 -0.0116631)
(-0.0355094 -3.01869e-19 -0.883464)
(-0.212579 9.63486e-20 -0.745947)
(0.00799757 1.41778e-21 -0.661412)
(0.0996113 -1.20404e-19 -0.550676)
(0.172983 1.34979e-19 -0.466644)
(0.226212 7.85714e-21 -0.409052)
(0.265404 4.02351e-21 -0.371949)
(0.296288 -6.81356e-20 -0.348821)
(0.323652 1.29504e-19 -0.334242)
(0.350857 -6.97622e-20 -0.323875)
(0.379851 0 -0.314454)
(0.41182 -1.7989e-20 -0.303806)
(0.447152 0 -0.290804)
(0.485759 0 -0.275199)
(0.527251 3.50645e-20 -0.257224)
(0.570771 -3.44024e-20 -0.237515)
(0.615057 -1.69302e-20 -0.216957)
(0.658564 1.63835e-20 -0.196456)
(0.699553 7.53423e-21 -0.176641)
(0.736461 -7.36906e-21 -0.157721)
(0.767772 0 -0.139567)
(0.79237 0 -0.121871)
(0.809481 1.37837e-20 -0.104426)
(0.818844 -2.5689e-21 -0.0871021)
(0.820392 -6.51286e-21 -0.0699219)
(0.814099 -8.79629e-21 -0.0530224)
(0.799786 0 -0.0364201)
(0.775997 3.92147e-21 -0.020087)
(0.740524 -1.8761e-22 -0.00595579)
(0.691196 0 -0.00031302)
(-0.0466618 1.72791e-20 -0.998938)
(-0.322738 -1.21912e-19 -0.783005)
(-0.0910912 1.48864e-19 -0.689311)
(-0.0355681 0 -0.563884)
(0.00724449 -2.28146e-20 -0.474801)
(0.0310068 4.90386e-22 -0.416562)
(0.0453926 -4.13963e-21 -0.381213)
(0.0566386 0 -0.361242)
(0.0689972 7.21159e-20 -0.350401)
(0.0848771 -1.61176e-20 -0.343921)
(0.105397 1.85894e-20 -0.33827)
(0.13094 3.73782e-20 -0.331088)
(0.161377 -3.68435e-20 -0.321196)
(0.196164 0 -0.308189)
(0.234463 0 -0.292079)
(0.275053 0 -0.273268)
(0.316358 1.69853e-20 -0.252496)
(0.356604 -4.94044e-20 -0.230618)
(0.394127 4.76036e-20 -0.208257)
(0.427189 0 -0.185748)
(0.454205 0 -0.163193)
(0.473936 -6.04924e-21 -0.140622)
(0.485576 -1.95363e-20 -0.118086)
(0.48868 1.05373e-20 -0.095651)
(0.483061 2.82314e-20 -0.0732593)
(0.46827 7.73545e-21 -0.050522)
(0.441782 -1.26218e-20 -0.0270725)
(0.403491 5.86651e-22 -0.00416904)
(0.361095 0 0.0131679)
(0.313686 0 0.0174143)
(-0.0517013 0 -1.10036)
(-0.436088 0 -0.79503)
(-0.200633 -1.14246e-19 -0.689907)
(-0.189023 1.15034e-19 -0.550922)
(-0.179387 -1.17483e-19 -0.46153)
(-0.184002 1.25231e-19 -0.407886)
(-0.190731 -8.47056e-21 -0.379502)
(-0.194224 -7.2099e-20 -0.366499)
(-0.191789 8.96542e-20 -0.36202)
(-0.182475 1.85207e-20 -0.361119)
(-0.16636 -1.87716e-20 -0.360255)
(-0.143987 1.91486e-20 -0.357113)
(-0.11611 -3.78252e-20 -0.350599)
(-0.0836977 -7.63431e-20 -0.340256)
(-0.0478706 3.73323e-20 -0.32589)
(-0.0101122 3.72054e-20 -0.307693)
(0.027831 -3.61787e-20 -0.28629)
(0.064195 1.68567e-20 -0.262643)
(0.0972551 -4.93505e-20 -0.237429)
(0.12535 0 -0.211025)
(0.146874 0 -0.183686)
(0.160525 6.29317e-21 -0.155692)
(0.165402 5.42289e-21 -0.127352)
(0.161173 -3.16129e-20 -0.0988474)
(0.14752 -1.75419e-20 -0.0701645)
(0.124515 8.2553e-22 -0.0413862)
(0.095805 9.85147e-21 -0.0135321)
(0.0633343 9.03944e-21 0.0109752)
(0.0283083 0 0.0282075)
(-0.00316616 1.65361e-21 0.0339698)
(-0.0522227 0 -1.18615)
(-0.547778 -1.09752e-19 -0.769639)
(-0.328137 9.7042e-20 -0.651003)
(-0.365703 1.26342e-19 -0.510272)
(-0.391549 -2.47864e-19 -0.431432)
(-0.420533 -1.62303e-20 -0.388947)
(-0.443251 1.43291e-19 -0.37133)
(-0.4566 -7.4164e-20 -0.368061)
(-0.459926 1.30766e-19 -0.371783)
(-0.453839 -9.43484e-20 -0.377575)
(-0.439509 0 -0.382014)
(-0.418341 -2.01623e-20 -0.382966)
(-0.391713 -9.536e-22 -0.379571)
(-0.360832 3.84106e-20 -0.371485)
(-0.326942 0 -0.358364)
(-0.291855 -3.71338e-20 -0.340251)
(-0.257262 3.61051e-20 -0.317811)
(-0.224977 0 -0.29203)
(-0.196471 2.49448e-20 -0.263658)
(-0.173205 -3.23536e-20 -0.23311)
(-0.156668 1.48924e-20 -0.200736)
(-0.14812 -5.49741e-22 -0.167056)
(-0.148294 -3.18779e-20 -0.132753)
(-0.157223 2.13554e-20 -0.0985542)
(-0.173627 0 -0.0652231)
(-0.194901 1.58733e-20 -0.0335169)
(-0.220214 0 -0.00421719)
(-0.248333 4.31773e-22 0.0209346)
(-0.2784 -5.36916e-23 0.038601)
(-0.301077 -1.60161e-21 0.0465569)
(-0.0452541 -1.18066e-19 -1.24066)
(-0.644789 -2.52154e-20 -0.682064)
(-0.489145 1.37979e-20 -0.576407)
(-0.569604 1.13229e-19 -0.447353)
(-0.629123 -1.21308e-19 -0.385346)
(-0.677669 8.41598e-21 -0.360859)
(-0.711109 -7.34001e-20 -0.358884)
(-0.72949 7.21216e-20 -0.368121)
(-0.734693 7.85475e-20 -0.381523)
(-0.728857 -1.37581e-19 -0.394786)
(-0.714052 -7.84684e-20 -0.404824)
(-0.692436 0 -0.40965)
(-0.665935 8.08194e-20 -0.408877)
(-0.635739 4.03315e-20 -0.402585)
(-0.603019 -5.95088e-20 -0.390265)
(-0.569462 1.95466e-20 -0.371592)
(-0.53738 0 -0.347338)
(-0.508391 0 -0.318847)
(-0.483569 0 -0.287076)
(-0.463981 3.26361e-20 -0.252398)
(-0.450906 3.20395e-20 -0.215124)
(-0.445556 0 -0.176038)
(-0.448332 2.83841e-20 -0.136485)
(-0.458387 -3.57829e-22 -0.0979608)
(-0.473697 -2.06436e-20 -0.0615019)
(-0.493423 -1.80601e-20 -0.0275929)
(-0.516354 0 0.0029646)
(-0.542253 -8.58863e-21 0.0284614)
(-0.569111 -2.24279e-22 0.0463772)
(-0.587512 0 0.0560704)
(-0.0374492 1.26915e-20 -1.20599)
(-0.731408 1.27016e-19 -0.55141)
(-0.681985 -1.05289e-19 -0.460192)
(-0.805978 7.16061e-21 -0.360955)
(-0.892016 1.49289e-19 -0.328154)
(-0.952326 -1.48918e-19 -0.328837)
(-0.989385 0 -0.346219)
(-1.00713 0 -0.369759)
(-1.00989 0 -0.393513)
(-1.00107 -4.12535e-20 -0.414389)
(-0.983231 0 -0.429829)
(-0.959198 4.22779e-20 -0.437775)
(-0.93153 -4.10252e-20 -0.438743)
(-0.900941 6.37185e-22 -0.433803)
(-0.867795 6.17157e-20 -0.421993)
(-0.834394 -5.74539e-23 -0.402197)
(-0.803506 -2.36092e-22 -0.375379)
(-0.776681 -1.93762e-20 -0.343691)
(-0.754333 0 -0.308454)
(-0.736934 -3.59832e-20 -0.26985)
(-0.725626 -3.19388e-20 -0.227963)
(-0.721669 -3.11733e-20 -0.18391)
(-0.725261 0 -0.139764)
(-0.735204 0 -0.0974919)
(-0.750417 2.01985e-20 -0.0581462)
(-0.769634 0 -0.0223004)
(-0.791486 7.21785e-22 0.00913228)
(-0.815909 -1.05794e-20 0.0345713)
(-0.84057 0 0.0525396)
(-0.856446 -1.94289e-21 0.0635644)
(-0.0545123 -8.85776e-20 -1.05004)
(-0.819321 9.62941e-20 -0.369849)
(-0.918557 -9.85876e-20 -0.30411)
(-1.0754 -7.37003e-21 -0.254715)
(-1.17612 -9.98905e-20 -0.266325)
(-1.23701 -6.86516e-21 -0.299415)
(-1.26861 7.13867e-20 -0.337922)
(-1.27914 8.07024e-20 -0.376208)
(-1.27476 -7.87419e-20 -0.410221)
(-1.25966 2.11604e-20 -0.438212)
(-1.23607 8.63676e-20 -0.45843)
(-1.20745 -8.44951e-20 -0.468146)
(-1.17716 -4.40835e-20 -0.469451)
(-1.14496 -4.238e-20 -0.465502)
(-1.11003 0 -0.454256)
(-1.07508 -4.35141e-20 -0.432722)
(-1.04413 0 -0.402297)
(-1.01865 -1.9911e-20 -0.366763)
(-0.997933 1.00941e-20 -0.328103)
(-0.981563 1.62541e-20 -0.28601)
(-0.970683 -4.46438e-20 -0.239935)
(-0.966932 3.10844e-20 -0.191131)
(-0.97085 3.00173e-20 -0.142364)
(-0.981713 0 -0.0962243)
(-0.997864 -1.26699e-21 -0.0541323)
(-1.01726 -1.76033e-20 -0.0167623)
(-1.03889 0 0.0150825)
(-1.06239 1.00948e-20 0.0401384)
(-1.08549 6.04288e-21 0.0579299)
(-1.09968 1.88083e-21 0.0697609)
(-0.137984 7.38863e-20 -0.754512)
(-0.952002 -7.28549e-20 -0.132709)
(-1.20217 0 -0.101005)
(-1.37555 7.3741e-20 -0.126845)
(-1.47662 2.50867e-20 -0.212089)
(-1.5201 -6.68972e-20 -0.283086)
(-1.53468 0 -0.337392)
(-1.53212 0 -0.390786)
(-1.5165 -6.4042e-20 -0.435404)
(-1.49228 4.25229e-20 -0.468015)
(-1.46015 -2.27602e-22 -0.491545)
(-1.42431 0 -0.501186)
(-1.39099 1.3522e-19 -0.500792)
(-1.35753 -6.71857e-20 -0.497839)
(-1.31953 2.22708e-20 -0.4879)
(-1.28098 1.98998e-20 -0.463907)
(-1.24883 -4.3554e-20 -0.428153)
(-1.22454 1.08591e-20 -0.387802)
(-1.20522 -4.18957e-20 -0.345976)
(-1.18901 7.50725e-21 -0.301204)
(-1.17737 -2.40235e-21 -0.251319)
(-1.1733 4.08983e-21 -0.197398)
(-1.17823 -3.0315e-20 -0.143354)
(-1.19104 -3.62375e-21 -0.0930405)
(-1.20894 0 -0.0484809)
(-1.22918 3.89166e-20 -0.0101462)
(-1.25097 1.56939e-20 0.0216358)
(-1.27399 0 0.0460259)
(-1.29599 4.89452e-22 0.0633163)
(-1.30903 -6.6939e-23 0.0753575)
(-0.366679 -4.20742e-20 -0.583176)
(-1.27569 3.73956e-20 0.235799)
(-1.53701 0 0.24847)
(-1.72217 -7.02124e-20 0.0133251)
(-1.78582 7.2055e-20 -0.212754)
(-1.77306 1.78722e-20 -0.28662)
(-1.76118 0 -0.339228)
(-1.74804 4.2501e-20 -0.420063)
(-1.71741 -6.4502e-20 -0.474598)
(-1.68109 2.13521e-20 -0.500588)
(-1.64077 -2.32114e-20 -0.528134)
(-1.59763 4.53595e-20 -0.539155)
(-1.56277 2.56821e-20 -0.533177)
(-1.52998 -4.69233e-20 -0.530578)
(-1.48761 -4.87914e-20 -0.523943)
(-1.44255 6.89365e-20 -0.496875)
(-1.40824 0 -0.45289)
(-1.38599 -4.62485e-20 -0.406204)
(-1.36865 3.13987e-20 -0.361928)
(-1.35193 6.09458e-20 -0.315938)
(-1.33833 6.39207e-20 -0.262558)
(-1.33349 4.70402e-21 -0.202523)
(-1.34004 -3.04809e-20 -0.142022)
(-1.3558 -3.88078e-21 -0.0870759)
(-1.37627 2.60883e-20 -0.0404288)
(-1.39794 2.67253e-22 -0.00186899)
(-1.42005 -3.12751e-20 0.029319)
(-1.44285 1.19319e-20 0.0528545)
(-1.46422 -6.62964e-21 0.0693317)
(-1.47655 0 0.0809594)
(9.99259 4.24497e-19 0.0989821)
(9.98332 5.50115e-20 0.192465)
(9.96691 2.85752e-19 0.286139)
(9.94188 2.37289e-19 0.382773)
(9.91016 0 0.48385)
(9.87243 5.08262e-19 0.590803)
(9.82906 -2.62018e-19 0.705049)
(9.78059 5.42334e-19 0.827792)
(9.72724 2.81464e-19 0.960098)
(9.66937 1.30837e-21 1.10321)
(9.60701 -2.98039e-19 1.25858)
(9.54066 0 1.42771)
(9.47133 0 1.612)
(9.39938 1.61354e-19 1.81309)
(9.32567 -6.65795e-19 2.033)
(9.25109 8.47325e-19 2.27379)
(9.1767 1.71871e-19 2.53776)
(9.10439 0 2.8278)
(9.0357 -1.77563e-18 3.14716)
(8.97271 6.7886e-21 3.49973)
(8.91809 1.4432e-18 3.89017)
(8.87543 2.13711e-18 4.32418)
(8.84982 -1.53896e-20 4.809)
(8.8469 -2.40287e-18 5.35323)
(8.87662 2.68455e-18 5.96782)
(8.94616 0 6.66933)
(9.10695 -1.10685e-18 7.47085)
(9.27078 2.06526e-18 8.44049)
(10.2389 -1.39547e-20 9.48605)
(11.2464 0 12.5893)
(9.99301 2.40148e-20 0.102566)
(9.98483 -3.99129e-19 0.199485)
(9.97058 -5.53265e-20 0.296527)
(9.94865 0 0.396587)
(9.92062 0 0.501282)
(9.88727 -4.92262e-19 0.612008)
(9.84929 2.5523e-19 0.730057)
(9.80727 -2.63711e-19 0.856619)
(9.76129 -2.71777e-19 0.992838)
(9.71163 1.39825e-19 1.13998)
(9.6586 4.3342e-19 1.29945)
(9.60312 -5.90745e-19 1.47263)
(9.546 -6.0836e-19 1.66093)
(9.48756 3.10295e-19 1.8659)
(9.42906 0 2.08954)
(9.37171 -8.12537e-19 2.33381)
(9.31663 4.93623e-19 2.60072)
(9.26587 0 2.89296)
(9.22161 3.4093e-19 3.21374)
(9.18623 0 3.56645)
(9.16324 0 3.95519)
(9.15725 -1.33981e-18 4.38479)
(9.17433 1.66835e-18 4.86106)
(9.22226 0 5.39051)
(9.31375 -6.29663e-19 5.98037)
(9.46169 0 6.63934)
(9.71984 5.25547e-19 7.3699)
(10.0249 4.33225e-19 8.185)
(10.7532 -4.38078e-19 8.99954)
(11.6132 2.54427e-19 10.173)
(9.99339 -7.76147e-19 0.105807)
(9.98646 3.89134e-19 0.20584)
(9.97452 -1.07465e-19 0.30588)
(9.95567 1.11189e-19 0.409031)
(9.93136 2.29796e-19 0.517009)
(9.90263 2.38987e-19 0.631039)
(9.87039 -2.46557e-19 0.752321)
(9.83506 5.06512e-22 0.882161)
(9.79653 -1.39986e-21 1.02176)
(9.75518 6.73099e-19 1.17226)