/*--------------------------------*- C++ -*----------------------------------*\
| =========                 |                                                 |
| \\      /  F ield         | OpenFOAM: The Open Source CFD Toolbox           |
|  \\    /   O peration     | Version:  dev                                   |
|   \\  /    A nd           | Web:      www.OpenFOAM.org                      |
|    \\/     M anipulation  |                                                 |
\*---------------------------------------------------------------------------*/
FoamFile
{
    version     2.0;
    format      ascii;
    class       volVectorField;
    location    "0.43";
    object      cellDisplacement;
}
// * * * * * * * * * * * * * * * * * * * * * * * * * * * * * * * * * * * * * //

dimensions      [0 1 0 0 0 0 0];

internalField   nonuniform List<vector> 
465
(
(0.00412617 0 0.00211769)
(0.0118699 0 0.00614255)
(0.00409878 0 0.00222687)
(0.0117917 0 0.00645885)
(0.0185754 0 0.0102822)
(0.00406878 0 0.00233113)
(0.0117057 0 0.00676047)
(0.0184411 0 0.010763)
(0.0243787 0 0.01442)
(0.0040358 0 0.00242951)
(0.0116111 0 0.00704483)
(0.0182935 0 0.011216)
(0.0241857 0 0.0150287)
(0.0293814 0 0.0185544)
(0.00399952 0 0.00252103)
(0.0115073 0 0.00730915)
(0.0181318 0 0.011637)
(0.0239744 0 0.0155942)
(0.0291275 0 0.0192556)
(0.0336708 0 0.0226809)
(0.0039597 0 0.00260469)
(0.0113935 0 0.0075506)
(0.0179549 0 0.0120216)
(0.0237437 0 0.0161108)
(0.0288505 0 0.0198958)
(0.0333538 0 0.0234385)
(0.0373217 0 0.0267893)
(0.00391616 0 0.00267947)
(0.0112693 0 0.00776631)
(0.0177623 0 0.0123654)
(0.0234928 0 0.0165726)
(0.0285498 0 0.0204677)
(0.0330099 0 0.0241148)
(0.0369399 0 0.0275655)
(0.040398 0 0.0308624)
(0.0434352 0 0.0340417)
(0.00386876 0 0.00274436)
(0.0111344 0 0.0079534)
(0.0175534 0 0.0126638)
(0.0232213 0 0.0169735)
(0.0282246 0 0.0209642)
(0.0326385 0 0.0247011)
(0.0365281 0 0.0282369)
(0.0399502 0 0.0316151)
(0.0429547 0 0.0348715)
(0.0455852 0 0.0380354)
(0.00381743 0 0.00279837)
(0.0109886 0 0.00810903)
(0.0173281 0 0.0129123)
(0.0229288 0 0.0173078)
(0.0278749 0 0.021378)
(0.0322397 0 0.0251891)
(0.0360864 0 0.0287945)
(0.0394706 0 0.0322375)
(0.042441 0 0.0355542)
(0.04504 0 0.0387739)
(0.0473051 0 0.0419216)
(0.0492688 0 0.0450194)
(0.00376215 0 0.00284052)
(0.0108319 0 0.00823044)
(0.0170864 0 0.0131067)
(0.0226154 0 0.0175695)
(0.0275009 0 0.0217021)
(0.0318136 0 0.0255708)
(0.0356153 0 0.0292291)
(0.03896 0 0.0327202)
(0.0418951 0 0.0360794)
(0.0444621 0 0.0393358)
(0.0466976 0 0.0425131)
(0.0486334 0 0.0456313)
(0.0502974 0 0.0487056)
(0.0517138 0 0.0517491)
(0.003703 0 0.00286988)
(0.0106644 0 0.00831498)
(0.0168285 0 0.0132427)
(0.0222816 0 0.0177533)
(0.027103 0 0.0219299)
(0.031361 0 0.0258385)
(0.0351157 0 0.0295322)
(0.0384194 0 0.0330539)
(0.0413185 0 0.036438)
(0.0438533 0 0.0397123)
(0.0460596 0 0.0428995)
(0.0479687 0 0.0460174)
(0.0496082 0 0.0490794)
(0.0510019 0 0.0520958)
(0.052171 0 0.0550715)
(0.00364008 0 0.00288556)
(0.0104865 0 0.00836013)
(0.016555 0 0.0133164)
(0.0219282 0 0.017854)
(0.0266822 0 0.022055)
(0.0308831 0 0.025985)
(0.0345889 0 0.0296962)
(0.0378506 0 0.0332305)
(0.040713 0 0.0366213)
(0.0432157 0 0.0398954)
(0.0453936 0 0.0430737)
(0.0472775 0 0.0461721)
(0.0488946 0 0.0492024)
(0.0502689 0 0.0521722)
(0.0514213 0 0.055085)
(0.0523706 0 0.0579401)
(0.0531333 0 0.0607336)
(0.00357361 0 0.00288674)
(0.0102989 0 0.00836357)
(0.0162668 0 0.0133242)
(0.0215562 0 0.0178667)
(0.0262399 0 0.0220718)
(0.0303815 0 0.0260038)
(0.034037 0 0.0297138)
(0.0372556 0 0.0332425)
(0.0400811 0 0.0366222)
(0.0425519 0 0.0398781)
(0.0447024 0 0.0430296)
(0.0465627 0 0.0460911)
(0.0481598 0 0.0490724)
(0.0495176 0 0.0519792)
(0.0506573 0 0.0548133)
(0.0515979 0 0.0575726)
(0.0523564 0 0.0602513)
(0.0529488 0 0.0628391)
(0.0533892 0 0.0653232)
(0.00350385 0 0.00287269)
(0.0101022 0 0.00832316)
(0.015965 0 0.0132627)
(0.0211671 0 0.0177869)
(0.0257778 0 0.0219747)
(0.0298582 0 0.0258887)
(0.0334621 0 0.0295784)
(0.0366371 0 0.0330832)
(0.0394255 0 0.036434)
(0.041865 0 0.0396544)
(0.043989 0 0.0427624)
(0.0458274 0 0.0457708)
(0.0474067 0 0.0486879)
(0.0487509 0 0.051518)
(0.0498812 0 0.0542614)
(0.0508169 0 0.0569152)
(0.0515756 0 0.0594728)
(0.0521734 0 0.0619245)
(0.0526254 0 0.0642581)
(0.0529459 0 0.066458)
(0.0531485 0 0.0685087)
(0.00343115 0 0.00284272)
(0.00989745 0 0.00823697)
(0.0156512 0 0.0131287)
(0.0207628 0 0.0176106)
(0.0252983 0 0.0217589)
(0.0293158 0 0.0256342)
(0.032867 0 0.0292842)
(0.0359979 0 0.0327467)
(0.0387494 0 0.0360508)
(0.0411581 0 0.039219)
(0.0432569 0 0.0422677)
(0.045075 0 0.0452083)
(0.0466387 0 0.048048)
(0.0479718 0 0.0507897)
(0.0490956 0 0.0534332)
(0.0500296 0 0.0559748)
(0.0507916 0 0.058408)
(0.051398 0 0.0607238)
(0.0518643 0 0.0629111)
(0.052205 0 0.0649569)
(0.0524339 0 0.0668478)
(0.00335592 0 0.00279624)
(0.00968578 0 0.00810328)
(0.015327 0 0.0129196)
(0.0203456 0 0.017334)
(0.0248039 0 0.0214199)
(0.0287573 0 0.0252352)
(0.0322551 0 0.0288257)
(0.0353416 0 0.0322273)
(0.0380564 0 0.0354675)
(0.0404352 0 0.0385673)
(0.0425099 0 0.0415417)
(0.0443092 0 0.0444011)
(0.0458592 0 0.0471514)
(0.0471835 0 0.049795)
(0.0483032 0 0.052331)
(0.0492379 0 0.0547558)
(0.0500056 0 0.0570633)
(0.0506228 0 0.0592453)
(0.0511051 0 0.0612921)
(0.0514669 0 0.0631927)
(0.00327865 0 0.00273274)
(0.00946855 0 0.00792057)
(0.0149945 0 0.0126327)
(0.0199181 0 0.0169538)
(0.0242978 0 0.0209535)
(0.0281861 0 0.024687)
(0.0316301 0 0.0281979)
(0.0346722 0 0.0315198)
(0.0373508 0 0.0346789)
(0.0397004 0 0.0376945)
(0.0417521 0 0.0405804)
(0.0435342 0 0.0433459)
(0.0450722 0 0.0459962)
(0.0463894 0 0.0485332)
(0.0475069 0 0.0509559)
(0.0484443 0 0.0532606)
(0.0492194 0 0.0554421)
(0.0498487 0 0.0574932)
(0.0503475 0 0.0594058)
(0.0507304 0 0.0611714)
(0.0031999 0 0.00265177)
(0.00924734 0 0.00768748)
(0.0146561 0 0.0122659)
(0.0194832 0 0.0164668)
(0.0237834 0 0.0203559)
(0.0276061 0 0.0239853)
(0.0309961 0 0.0273958)
(0.0339942 0 0.0306193)
(0.0366372 0 0.03368)
(0.0389584 0 0.0365958)
(0.0409883 0 0.0393794)
(0.0427544 0 0.0420391)
(0.0442818 0 0.0445796)
(0.0455935 0 0.0470024)
(0.0467104 0 0.0493064)
(0.0476517 0 0.0514886)
(0.0484352 0 0.0535442)
(0.0490772 0 0.0554674)
(0.0495928 0 0.0572516)
(0.0499963 0 0.0588901)
(0.00312029 0 0.00255292)
(0.00902388 0 0.0074028)
(0.0143145 0 0.0118171)
(0.0190444 0 0.0158701)
(0.0232647 0 0.0196234)
(0.0270218 0 0.0231255)
(0.0303582 0 0.0264147)
(0.0333127 0 0.0295205)
(0.0359207 0 0.0324654)
(0.0382145 0 0.0352658)
(0.0402236 0 0.0379335)
(0.0419749 0 0.0404758)
(0.043493 0 0.0428969)
(0.0448004 0 0.0451982)
(0.0459177 0 0.0473788)
(0.0468638 0 0.049436)
(0.0476563 0 0.0513659)
(0.0483111 0 0.0531637)
(0.0488432 0 0.0548243)
(0.0492662 0 0.0563426)
(0.00304054 0 0.00243583)
(0.00880014 0 0.00706541)
(0.0139725 0 0.0112842)
(0.0186054 0 0.0151608)
(0.0227461 0 0.0187522)
(0.0264381 0 0.0221034)
(0.0297214 0 0.0252495)
(0.0326331 0 0.0282179)
(0.0352071 0 0.0310292)
(0.0374746 0 0.0336986)
(0.0394639 0 0.0362365)
(0.0412015 0 0.0386497)
(0.0427113 0 0.0409419)
(0.0440153 0 0.0431144)
(0.0451337 0 0.0451665)
(0.0460851 0 0.047096)
(0.0468867 0 0.0488997)
(0.0475542 0 0.0505739)
(0.048102 0 0.0521146)
(0.0485435 0 0.053518)
(0.00296139 0 0.00230016)
(0.00857825 0 0.0066742)
(0.0136335 0 0.0106653)
(0.0181705 0 0.0143362)
(0.0222327 0 0.0177387)
(0.0258605 0 0.0209142)
(0.029092 0 0.0238948)
(0.031962 0 0.0267054)
(0.034503 0 0.0293649)
(0.0367452 0 0.0318868)
(0.0387159 0 0.0342807)
(0.0404407 0 0.0365526)
(0.041943 0 0.038706)
(0.0432443 0 0.0407419)
(0.0443643 0 0.0426599)
(0.0453213 0 0.0444582)
(0.0461318 0 0.0461343)
(0.0468114 0 0.0476853)
(0.0473739 0 0.0491083)
(0.0478324 0 0.0504006)
(0.00288369 0 0.00214557)
(0.00836058 0 0.00622804)
(0.0133011 0 0.00995834)
(0.0177443 0 0.013393)
(0.0217298 0 0.0165788)
(0.0252953 0 0.0195529)
(0.0284764 0 0.0223446)
(0.0313061 0 0.0249761)
(0.0338157 0 0.0274644)
(0.0360337 0 0.0298218)
(0.0379869 0 0.0320566)
(0.0396999 0 0.0341744)
(0.0411955 0 0.036178)
(0.0424946 0 0.0380687)
(0.0436165 0 0.0398459)
(0.0445788 0 0.0415083)
(0.045398 0 0.0430541)
(0.0460889 0 0.0444811)
(0.0466651 0 0.045787)
(0.0471391 0 0.0469701)
(0.00280837 0 0.00197169)
(0.00814973 0 0.00572573)
(0.0129793 0 0.00916111)
(0.0173319 0 0.0123279)
(0.0212435 0 0.0152678)
(0.0247492 0 0.0180138)
(0.027882 0 0.0205919)
(0.0306735 0 0.0230218)
(0.0331531 0 0.0253186)
(0.0353485 0 0.0274931)
(0.0372853 0 0.0295527)
(0.0389875 0 0.0315021)
(0.040477 0 0.033344)
(0.0417743 0 0.0350792)
(0.0428982 0 0.0367077)
(0.0438658 0 0.0382282)
(0.044693 0 0.0396394)
(0.0453943 0 0.0409395)
(0.0459829 0 0.0421271)
(0.046471 0 0.043201)
(0.00273644 0 0.00177807)
(0.00794859 0 0.00516588)
(0.0126726 0 0.00827108)
(0.0169391 0 0.0111373)
(0.0207808 0 0.0138008)
(0.0242299 0 0.0162904)
(0.0273174 0 0.0186288)
(0.0300729 0 0.0208331)
(0.0325246 0 0.0229165)
(0.034699 0 0.0248883)
(0.0366208 0 0.0267548)
(0.038313 0 0.0285201)
(0.0397972 0 0.0301865)
(0.041093 0 0.0317547)
(0.0422188 0 0.0332245)
(0.0431913 0 0.0345951)
(0.0440259 0 0.0358653)
(0.0447367 0 0.0370339)
(0.0453366 0 0.0380999)
(0.0458372 0 0.0390625)
(0.00266904 0 0.00156425)
(0.00776037 0 0.0045469)
(0.0123859 0 0.00728537)
(0.0165724 0 0.00981672)
(0.0203492 0 0.0121718)
(0.023746 0 0.0143751)
(0.0267917 0 0.016446)
(0.0295142 0 0.018399)
(0.0319404 0 0.0202452)
(0.0340957 0 0.0219925)
(0.0360039 0 0.0236462)
(0.0376874 0 0.0252097)
(0.0391668 0 0.0266847)
(0.0404615 0 0.0280718)
(0.0415891 0 0.029371)
(0.0425661 0 0.0305813)
(0.0434074 0 0.0317021)
(0.0441267 0 0.0327322)
(0.0447365 0 0.0336709)
(0.0452481 0 0.0345178)
(0.00260746 0 0.00132962)
(0.00758872 0 0.00386695)
(0.0121249 0 0.00620068)
(0.0162391 0 0.00836127)
(0.0199575 0 0.0103741)
(0.0233073 0 0.0122593)
(0.0263156 0 0.0140328)
(0.0290088 0 0.0157067)
(0.0314124 0 0.0172897)
(0.0335508 0 0.0187885)
(0.0354471 0 0.0202072)
(0.0371229 0 0.0215485)
(0.0385984 0 0.0228137)
(0.0398922 0 0.0240033)
(0.0410217 0 0.025117)
(0.0420027 0 0.0261542)
(0.04285 0 0.0271141)
(0.0435767 0 0.027996)
(0.044195 0 0.0287992)
(0.0447161 0 0.0295235)
(0.00255318 0 0.00107354)
(0.0074379 0 0.00312391)
(0.0118963 0 0.00501326)
(0.0159476 0 0.00676537)
(0.0196156 0 0.0084001)
(0.0229251 0 0.00993326)
(0.0259013 0 0.0113772)
(0.0285694 0 0.0127414)
(0.0309538 0 0.0140327)
(0.0330781 0 0.015256)
(0.0349644 0 0.0164146)
(0.0366339 0 0.0175104)
(0.0381062 0 0.0185444)
(0.0393994 0 0.0195168)
(0.0405306 0 0.0204271)
(0.0415152 0 0.021275)
(0.0423675 0 0.0220596)
(0.0431005 0 0.0227804)
(0.0437261 0 0.0234368)
(0.0442551 0 0.0240287)
(0.00250802 0 0.000795228)
(0.00731297 0 0.00231543)
(0.0117077 0 0.00371891)
(0.0157081 0 0.00502279)
(0.0193353 0 0.00624134)
(0.0226123 0 0.00738593)
(0.0255629 0 0.00846545)
(0.028211 0 0.00948661)
(0.0305802 0 0.0104544)
(0.0326932 0 0.0113721)
(0.0345719 0 0.0122421)
(0.0362365 0 0.0130656)
(0.0377064 0 0.0138431)
(0.0389994 0 0.0145748)
(0.0401321 0 0.0152601)
(0.0411197 0 0.0158986)
(0.0419761 0 0.0164898)
(0.0427143 0 0.017033)
(0.0433457 0 0.0175279)
(0.0438809 0 0.0179742)
(0.00247423 0 0.000493891)
(0.00722024 0 0.00143895)
(0.0115686 0 0.00231315)
(0.0155324 0 0.00312682)
(0.0191305 0 0.00388861)
(0.0223843 0 0.00460539)
(0.0253167 0 0.00528252)
(0.0279507 0 0.00592404)
(0.0303093 0 0.00653287)
(0.0324146 0 0.00711105)
(0.0342878 0 0.00765982)
(0.0359493 0 0.00817988)
(0.0374177 0 0.00867144)
(0.0387107 0 0.00913441)
(0.0398446 0 0.00956849)
(0.0408345 0 0.00997326)
(0.041694 0 0.0103483)
(0.0424359 0 0.0106931)
(0.0430715 0 0.0110075)
(0.0436112 0 0.0112912)
(0.00245495 0 0.000168723)
(0.00716804 0 0.000491838)
(0.0114913 0 0.000791186)
(0.0154354 0 0.00107021)
(0.0190179 0 0.00133181)
(0.0222595 0 0.0015783)
(0.0251822 0 0.00181146)
(0.0278088 0 0.00203265)
(0.0301618 0 0.00224283)
(0.032263 0 0.00244266)
(0.0341336 0 0.00263255)
(0.0357934 0 0.00281269)
(0.0372612 0 0.00298314)
(0.0385544 0 0.00314382)
(0.0396891 0 0.0032946)
(0.0406803 0 0.00343532)
(0.0415416 0 0.00356579)
(0.0422855 0 0.00368586)
(0.0429234 0 0.00379539)
(0.0434656 0 0.00389432)
)
;

boundaryField
{
    inlet
    {
        type            cellMotion;
        value           uniform (0 0 0);
    }
    outlet
    {
        type            cellMotion;
        value           nonuniform 0();
    }
    flap
    {
        type            cellMotion;
        value           nonuniform 0();
    }
    upperWall
    {
        type            slip;
    }
    lowerWall
    {
        type            slip;
    }
    frontAndBack
    {
        type            empty;
    }
    procBoundary0to1
    {
        type            processor;
        value           nonuniform List<vector> 
18
(
(0.0532461 0 0.0703948)
(0.0525637 0 0.0685736)
(0.0517217 0 0.0649393)
(0.0517217 0 0.0649393)
(0.0510106 0 0.0627846)
(0.0503006 0 0.0603798)
(0.0495933 0 0.0577173)
(0.0488914 0 0.0547844)
(0.0481995 0 0.0515636)
(0.0475235 0 0.0480326)
(0.0468709 0 0.0441639)
(0.0462507 0 0.0399246)
(0.0456736 0 0.0352758)
(0.0451518 0 0.0301715)
(0.0446994 0 0.0245582)
(0.044332 0 0.0183736)
(0.0440671 0 0.0115452)
(0.0439241 0 0.00398289)
)
;
    }
    procBoundary0to3
    {
        type            processor;
        value           nonuniform List<vector> 
34
(
(0.00415071 0 0.00200572)
(0.0119402 0 0.00581818)
(0.0186977 0 0.00977855)
(0.0186977 0 0.00977855)
(0.0245546 0 0.0137748)
(0.0245546 0 0.0137748)
(0.0296136 0 0.0178007)
(0.0296136 0 0.0178007)
(0.0339618 0 0.0218519)
(0.0339618 0 0.0218519)
(0.037674 0 0.0259201)
(0.037674 0 0.0259201)
(0.0408137 0 0.0299912)
(0.0408137 0 0.0299912)
(0.0438818 0 0.0330784)
(0.0460961 0 0.0371338)
(0.0460961 0 0.0371338)
(0.0478798 0 0.0411351)
(0.0478798 0 0.0411351)
(0.0498719 0 0.0441926)
(0.0509592 0 0.0480858)
(0.0509592 0 0.0480858)
(0.0524008 0 0.0511358)
(0.0529029 0 0.0547717)
(0.0529029 0 0.0547717)
(0.053133 0 0.0580112)
(0.053133 0 0.0580112)
(0.0539041 0 0.0609118)
(0.0537238 0 0.0634572)
(0.0537238 0 0.0634572)
(0.054156 0 0.0660971)
(0.0536911 0 0.0676879)
(0.0536911 0 0.0676879)
(0.0538683 0 0.0699129)
)
;
    }
}


// ************************************************************************* //
