/*--------------------------------*- C++ -*----------------------------------*\
| =========                 |                                                 |
| \\      /  F ield         | OpenFOAM: The Open Source CFD Toolbox           |
|  \\    /   O peration     | Version:  dev                                   |
|   \\  /    A nd           | Web:      www.OpenFOAM.org                      |
|    \\/     M anipulation  |                                                 |
\*---------------------------------------------------------------------------*/
FoamFile
{
    version     2.0;
    format      ascii;
    class       pointVectorField;
    location    "0.15";
    object      pointDisplacement;
}
// * * * * * * * * * * * * * * * * * * * * * * * * * * * * * * * * * * * * * //

dimensions      [0 1 0 0 0 0 0];

internalField   nonuniform List<vector> 
1034
(
(0 0 0)
(0.000867678 0 0.000541105)
(0.00166208 0 0.00104228)
(0 0 0)
(0.000867678 0 0.000541105)
(0.00166208 0 0.00104228)
(0 0 0)
(0.000861985 0 0.00056953)
(0.00165127 0 0.00109714)
(0.00235288 0 0.00157706)
(0 0 0)
(0.000855661 0 0.000596833)
(0.0016393 0 0.00114988)
(0.00233603 0 0.00165315)
(0.00295541 0 0.00211623)
(0 0 0)
(0.000848657 0 0.000622684)
(0.00162606 0 0.00119987)
(0.00231745 0 0.00172536)
(0.00293216 0 0.0022091)
(0.00347882 0 0.00265941)
(0 0 0)
(0.000840931 0 0.000646854)
(0.00161148 0 0.00124665)
(0.00229702 0 0.00179303)
(0.00290668 0 0.0022963)
(0.003449 0 0.00276522)
(0.0039316 0 0.00320709)
(0 0 0)
(0.000832448 0 0.000669106)
(0.00159548 0 0.00128977)
(0.00227465 0 0.0018555)
(0.00287893 0 0.002377)
(0.00341661 0 0.00286332)
(0.00389512 0 0.00332184)
(0.00432043 0 0.00375812)
(0 0 0)
(0.000823174 0 0.000689209)
(0.00157801 0 0.00132878)
(0.00225025 0 0.00191211)
(0.00284871 0 0.00245024)
(0.00338139 0 0.00295237)
(0.00385543 0 0.00342593)
(0.00427677 0 0.00387669)
(0.00465077 0 0.00430966)
(0.00498239 0 0.00472922)
(0 0 0)
(0.00081307 0 0.000706909)
(0.00155899 0 0.00136319)
(0.0022237 0 0.00196214)
(0.00281581 0 0.00251503)
(0.00334305 0 0.00303111)
(0.00381225 0 0.0035179)
(0.00422932 0 0.00398141)
(0.00459954 0 0.00442677)
(0.00492772 0 0.00485841)
(0.00521823 0 0.00528025)
(0 0 0)
(0.00080212 0 0.000721923)
(0.00153838 0 0.00139246)
(0.00219494 0 0.00200479)
(0.00278014 0 0.0025703)
(0.00330143 0 0.00309831)
(0.00376542 0 0.00359638)
(0.0041779 0 0.00407069)
(0.00454404 0 0.00452642)
(0.00486849 0 0.00496797)
(0.00515545 0 0.00539918)
(0.0054087 0 0.00582349)
(0.0056316 0 0.00624392)
(0 0 0)
(0.000790326 0 0.00073398)
(0.00151619 0 0.00141606)
(0.00216396 0 0.00203931)
(0.0027417 0 0.00261516)
(0.00325657 0 0.00315292)
(0.00371495 0 0.00366017)
(0.00412249 0 0.00414314)
(0.00448423 0 0.004607)
(0.00480466 0 0.00505612)
(0.00508785 0 0.00549421)
(0.0053374 0 0.00592452)
(0.00555652 0 0.00634985)
(0.00574802 0 0.00677268)
(0.00591432 0 0.00719514)
(0 0 0)
(0.000777693 0 0.000742841)
(0.00149243 0 0.00143354)
(0.0021308 0 0.00206505)
(0.00270052 0 0.00264876)
(0.00320851 0 0.00319392)
(0.0036609 0 0.00370809)
(0.00406317 0 0.00419744)
(0.00442019 0 0.00466708)
(0.00473633 0 0.0051213)
(0.0050155 0 0.00556365)
(0.00526119 0 0.00599716)
(0.00547644 0 0.00642436)
(0.00566393 0 0.00684736)
(0.00582597 0 0.00726785)
(0.0059645 0 0.00768715)
(0 0 0)
(0.000764243 0 0.000748276)
(0.00146714 0 0.00144444)
(0.0020955 0 0.00208137)
(0.0026567 0 0.00267031)
(0.00315737 0 0.00322038)
(0.0036034 0 0.00373904)
(0.00400007 0 0.00423237)
(0.0043521 0 0.00470538)
(0.00466371 0 0.00516217)
(0.00493868 0 0.00560614)
(0.00518035 0 0.00604008)
(0.00539168 0 0.00646622)
(0.00557524 0 0.00688632)
(0.00573322 0 0.00730165)
(0.00586749 0 0.00771301)
(0.00597957 0 0.00812066)
(0.00607062 0 0.00852419)
(0 0 0)
(0.000750014 0 0.000750074)
(0.00144039 0 0.00144836)
(0.00205816 0 0.00208769)
(0.00261036 0 0.00267904)
(0.00310329 0 0.00323139)
(0.00354262 0 0.00375201)
(0.00393341 0 0.00424684)
(0.00428021 0 0.00472071)
(0.00458711 0 0.00517755)
(0.00485773 0 0.00562055)
(0.00509533 0 0.00605225)
(0.00530274 0 0.0064746)
(0.00548248 0 0.00688902)
(0.00563669 0 0.00729642)
(0.00576718 0 0.00769719)
(0.00587548 0 0.00809113)
(0.00596281 0 0.00847747)
(0.00603013 0 0.00885471)
(0.0060782 0 0.00922063)
(0 0 0)
(0.000735061 0 0.00074804)
(0.00141228 0 0.00144492)
(0.00201893 0 0.00208344)
(0.00256167 0 0.00267428)
(0.0030465 0 0.00322613)
(0.00347881 0 0.00374607)
(0.00386347 0 0.00423982)
(0.00420485 0 0.00471203)
(0.00450689 0 0.00516641)
(0.00477309 0 0.00560594)
(0.00500661 0 0.00603288)
(0.0052102 0 0.00644892)
(0.0053863 0 0.00685521)
(0.00553704 0 0.00725233)
(0.00566424 0 0.00764037)
(0.00576946 0 0.00801884)
(0.00585398 0 0.00838669)
(0.00591892 0 0.00874229)
(0.00596524 0 0.0090834)
(0.00599381 0 0.00940722)
(0.00600556 0 0.00971041)
(0 0 0)
(0.000719455 0 0.000741999)
(0.00138293 0 0.00143378)
(0.00197799 0 0.00206814)
(0.00251087 0 0.00265536)
(0.00298726 0 0.00320384)
(0.00341228 0 0.00372036)
(0.0037906 0 0.00421041)
(0.00412641 0 0.00467842)
(0.0044235 0 0.00512787)
(0.00468526 0 0.00556148)
(0.00491474 0 0.00598131)
(0.00511464 0 0.00638879)
(0.00528735 0 0.00678481)
(0.00543498 0 0.00716973)
(0.00555937 0 0.00754339)
(0.00566212 0 0.00790514)
(0.00574463 0 0.00825382)
(0.00580815 0 0.00858779)
(0.00585379 0 0.00890494)
(0.00588262 0 0.00920273)
(0.00589588 0 0.00947842)
(0 0 0)
(0.000703283 0 0.000731796)
(0.00135253 0 0.00141463)
(0.00193557 0 0.00204133)
(0.00245824 0 0.00262173)
(0.0029259 0 0.00316382)
(0.00334341 0 0.00367411)
(0.00371523 0 0.0041578)
(0.00404536 0 0.00461905)
(0.00433745 0 0.00506113)
(0.00459479 0 0.00548651)
(0.00482033 0 0.00589703)
(0.00501671 0 0.00629391)
(0.0051863 0 0.00667783)
(0.00533118 0 0.00704897)
(0.00545323 0 0.00740703)
(0.00555409 0 0.00775128)
(0.00563527 0 0.00808055)
(0.00569809 0 0.00839328)
(0.00574383 0 0.00868758)
(0.00577375 0 0.00896132)
(0.00578923 0 0.00921229)
(0 0 0)
(0.000686648 0 0.000717294)
(0.00132125 0 0.00138719)
(0.00189192 0 0.0020026)
(0.0024041 0 0.00257283)
(0.0028628 0 0.00310546)
(0.00327264 0 0.00360663)
(0.00363783 0 0.00408124)
(0.00396222 0 0.00453319)
(0.00424932 0 0.00496549)
(0.00450229 0 0.00538041)
(0.00472402 0 0.00577957)
(0.00491708 0 0.006164)
(0.00508381 0 0.00653423)
(0.00522631 0 0.00689031)
(0.00534645 0 0.00723188)
(0.00544595 0 0.00755817)
(0.00552634 0 0.0078681)
(0.00558908 0 0.00816025)
(0.0056355 0 0.00843299)
(0.00566706 0 0.00868464)
(0 0 0)
(0.000669667 0 0.000698371)
(0.00128931 0 0.00135122)
(0.00184736 0 0.00195159)
(0.00234883 0 0.0025082)
(0.00279842 0 0.00302817)
(0.00320046 0 0.00351725)
(0.00355896 0 0.00398003)
(0.0038776 0 0.00442012)
(0.00415973 0 0.00484028)
(0.00440843 0 0.00524257)
(0.00462649 0 0.00562843)
(0.00481645 0 0.00599872)
(0.0049806 0 0.00635387)
(0.00512104 0 0.00669384)
(0.00523967 0 0.00701824)
(0.00533822 0 0.00732635)
(0.00541829 0 0.00761718)
(0.00548139 0 0.00788952)
(0.00552892 0 0.00814201)
(0.00556242 0 0.00837336)
(0 0 0)
(0.000652473 0 0.000674923)
(0.00125697 0 0.0013065)
(0.00180223 0 0.00188795)
(0.00229287 0 0.00242738)
(0.00273324 0 0.00293141)
(0.00312744 0 0.00340537)
(0.00347924 0 0.00385351)
(0.00379214 0 0.00427916)
(0.00406938 0 0.00468483)
(0.00431393 0 0.00507238)
(0.00452849 0 0.00544306)
(0.00471555 0 0.00579765)
(0.00487738 0 0.00613644)
(0.00501607 0 0.00645937)
(0.00513351 0 0.00676607)
(0.00523146 0 0.00705588)
(0.00531156 0 0.00732793)
(0.00537533 0 0.00758123)
(0.00542423 0 0.00781467)
(0.00545981 0 0.0080273)
(0 0 0)
(0.000635214 0 0.000646851)
(0.00122451 0 0.00125281)
(0.00175692 0 0.00181136)
(0.00223669 0 0.00232994)
(0.00266784 0 0.00281464)
(0.00305419 0 0.00327036)
(0.00339933 0 0.00370099)
(0.00370657 0 0.00410958)
(0.00397903 0 0.00449839)
(0.00421956 0 0.00486909)
(0.00443079 0 0.00522279)
(0.00461517 0 0.00556013)
(0.00477492 0 0.00588137)
(0.00491211 0 0.00618642)
(0.00502864 0 0.00647492)
(0.00512626 0 0.00674633)
(0.00520663 0 0.0069999)
(0.00527128 0 0.00723483)
(0.00532168 0 0.00745025)
(0.00535939 0 0.00764551)
(0 0 0)
(0.000618051 0 0.000614063)
(0.00119221 0 0.00118997)
(0.00171185 0 0.00172151)
(0.00218081 0 0.00221544)
(0.00260281 0 0.00267731)
(0.00298141 0 0.00311157)
(0.00331998 0 0.00352175)
(0.00362169 0 0.00391059)
(0.0038895 0 0.00428013)
(0.00412617 0 0.00463186)
(0.00433427 0 0.00496673)
(0.00451616 0 0.0052853)
(0.00467405 0 0.00558777)
(0.00480996 0 0.00587407)
(0.00492579 0 0.00614388)
(0.00502328 0 0.00639672)
(0.00510409 0 0.00663201)
(0.00516974 0 0.0068491)
(0.00522168 0 0.00704733)
(0.00526149 0 0.00722628)
(0 0 0)
(0.00060116 0 0.000576466)
(0.00116043 0 0.00111777)
(0.0016675 0 0.00161807)
(0.00212583 0 0.00208343)
(0.00253885 0 0.00251884)
(0.00290985 0 0.0029283)
(0.00324202 0 0.00331496)
(0.00353836 0 0.00368127)
(0.0038017 0 0.00402905)
(0.0040347 0 0.00435959)
(0.00423984 0 0.00467373)
(0.00441944 0 0.00497194)
(0.00457565 0 0.00525439)
(0.00471048 0 0.00552099)
(0.00482578 0 0.00577149)
(0.00492328 0 0.00600549)
(0.00500463 0 0.00622253)
(0.00507132 0 0.00642209)
(0.00512479 0 0.0066037)
(0.00516659 0 0.00676713)
(0 0 0)
(0.000584733 0 0.000533958)
(0.00112952 0 0.00103599)
(0.00162436 0 0.00150068)
(0.00207237 0 0.00193341)
(0.00247668 0 0.00233859)
(0.00284035 0 0.00271975)
(0.00316635 0 0.00307969)
(0.00345754 0 0.00342056)
(0.00371662 0 0.00374394)
(0.00394615 0 0.00405096)
(0.00414854 0 0.00434234)
(0.00432604 0 0.00461847)
(0.00448075 0 0.00487949)
(0.00461464 0 0.00512532)
(0.00472953 0 0.00535574)
(0.00482714 0 0.00557043)
(0.00490907 0 0.00576902)
(0.0049768 0 0.00595114)
(0.00503172 0 0.00611643)
(0.00507537 0 0.0062648)
(0 0 0)
(0.00056898 0 0.000486425)
(0.00109988 0 0.000944372)
(0.00158301 0 0.00136894)
(0.00202115 0 0.0017648)
(0.00241713 0 0.00213579)
(0.00277381 0 0.00248499)
(0.00309395 0 0.00281482)
(0.00338027 0 0.00312715)
(0.00363535 0 0.00342333)
(0.00386165 0 0.00370432)
(0.0040615 0 0.00397073)
(0.00423708 0 0.00422287)
(0.00439045 0 0.00446086)
(0.00452353 0 0.00468461)
(0.00463812 0 0.00489396)
(0.00473589 0 0.00508862)
(0.0048184 0 0.00526832)
(0.00488712 0 0.00543277)
(0.00494339 0 0.00558172)
(0.00498873 0 0.0057152)
(0 0 0)
(0.000554133 0 0.000433731)
(0.00107196 0 0.000842636)
(0.00154408 0 0.00122238)
(0.00197294 0 0.00157693)
(0.00236112 0 0.00190958)
(0.00271125 0 0.00222293)
(0.00302594 0 0.00251905)
(0.00330774 0 0.0027995)
(0.00355913 0 0.00306544)
(0.00378246 0 0.00331764)
(0.00397999 0 0.00355662)
(0.00415385 0 0.00378261)
(0.00430603 0 0.00399569)
(0.00443842 0 0.0041958)
(0.00455277 0 0.00438276)
(0.00465072 0 0.00455638)
(0.0047338 0 0.00471641)
(0.00480342 0 0.00486264)
(0.00486091 0 0.00499491)
(0.00490776 0 0.00511329)
(0 0 0)
(0.000540448 0 0.000375717)
(0.00104624 0 0.000730437)
(0.00150825 0 0.00106045)
(0.00192861 0 0.00136905)
(0.00230966 0 0.00165894)
(0.00265383 0 0.00193229)
(0.00296355 0 0.00219081)
(0.00324126 0 0.00243577)
(0.00348931 0 0.00266811)
(0.00370998 0 0.00288847)
(0.00390545 0 0.00309722)
(0.00407778 0 0.00329457)
(0.00422894 0 0.00348054)
(0.00436074 0 0.00365506)
(0.00447491 0 0.00381799)
(0.00457305 0 0.00396916)
(0.00465664 0 0.00410837)
(0.00472708 0 0.00423547)
(0.00478564 0 0.00435032)
(0.0048338 0 0.00445305)
(0 0 0)
(0.00052822 0 0.000312195)
(0.0010233 0 0.00060738)
(0.00147632 0 0.00088252)
(0.00188916 0 0.00114023)
(0.00226392 0 0.00138268)
(0.00260283 0 0.00161158)
(0.00290819 0 0.00182827)
(0.00318231 0 0.00203378)
(0.00342745 0 0.00222882)
(0.00364581 0 0.00241387)
(0.0038395 0 0.00258922)
(0.00401053 0 0.002755)
(0.00416081 0 0.00291122)
(0.00429213 0 0.00305779)
(0.00440616 0 0.00319459)
(0.00450448 0 0.00332146)
(0.00458853 0 0.00343826)
(0.00465968 0 0.00354485)
(0.00471916 0 0.00364114)
(0.00476843 0 0.00372724)
(0 0 0)
(0.000517793 0 0.000242949)
(0.00100377 0 0.000473011)
(0.00144922 0 0.000687868)
(0.00185574 0 0.000889479)
(0.00222522 0 0.00107945)
(0.00255974 0 0.00125908)
(0.00286147 0 0.00142934)
(0.00313261 0 0.001591)
(0.00337534 0 0.00174457)
(0.00359179 0 0.0018904)
(0.00378402 0 0.00202867)
(0.00395399 0 0.00215947)
(0.00410357 0 0.00228276)
(0.0042345 0 0.00239848)
(0.00434844 0 0.00250651)
(0.00444691 0 0.00260671)
(0.00453135 0 0.00269896)
(0.00460308 0 0.00278315)
(0.00466331 0 0.00285922)
(0.00471348 0 0.00292725)
(0 0 0)
(0.000509584 0 0.000167742)
(0.00098846 0 0.000326827)
(0.00142804 0 0.000475692)
(0.00182969 0 0.000615639)
(0.00219512 0 0.000747739)
(0.00252628 0 0.000872846)
(0.00282524 0 0.000991618)
(0.00309411 0 0.00110454)
(0.00333501 0 0.00121195)
(0.00355002 0 0.00131407)
(0.00374115 0 0.00141099)
(0.00391033 0 0.00150276)
(0.00405939 0 0.00158933)
(0.00419005 0 0.00167065)
(0.00430392 0 0.0017466)
(0.00440253 0 0.0018171)
(0.00448727 0 0.00188203)
(0.00455944 0 0.00194133)
(0.00462024 0 0.00199493)
(0.00467109 0 0.00204289)
(0 0 0)
(0.000504126 0 8.6319e-05)
(0.000978343 0 0.000168291)
(0.00141412 0 0.000245128)
(0.00181264 0 0.000317479)
(0.00217548 0 0.000385881)
(0.00250449 0 0.000450759)
(0.00280168 0 0.00051244)
(0.00306911 0 0.000571164)
(0.00330885 0 0.000627093)
(0.00352295 0 0.000680327)
(0.0037134 0 0.000730912)
(0.00388208 0 0.000778854)
(0.00403082 0 0.000824128)
(0.00416131 0 0.000866687)
(0.00427517 0 0.000906476)
(0.00437387 0 0.000943432)
(0.00445881 0 0.000977499)
(0.00453127 0 0.00100863)
(0.00459243 0 0.00103679)
(0.00464371 0 0.001062)
(0 0 0)
(0.00050222 0 0)
(0.000974773 0 0)
(0.00140921 0 0)
(0.00180663 0 0)
(0.00216856 0 0)
(0.00249682 0 0)
(0.00279339 0 0)
(0.00306031 0 0)
(0.00329965 0 0)
(0.00351344 0 0)
(0.00370364 0 0)
(0.00387216 0 0)
(0.00402078 0 0)
(0.00415122 0 0)
(0.00426507 0 0)
(0.0043638 0 0)
(0.00444881 0 0)
(0.00452137 0 0)
(0.00458266 0 0)
(0.00463409 0 0)
(0 0 0)
(0.000861985 0 0.00056953)
(0.00165127 0 0.00109714)
(0.00235288 0 0.00157706)
(0 0 0)
(0.000855661 0 0.000596833)
(0.0016393 0 0.00114988)
(0.00233603 0 0.00165315)
(0.00295541 0 0.00211623)
(0 0 0)
(0.000848657 0 0.000622684)
(0.00162606 0 0.00119987)
(0.00231745 0 0.00172536)
(0.00293216 0 0.0022091)
(0.00347882 0 0.00265941)
(0 0 0)
(0.000840931 0 0.000646854)
(0.00161148 0 0.00124665)
(0.00229702 0 0.00179303)
(0.00290668 0 0.0022963)
(0.003449 0 0.00276522)
(0.0039316 0 0.00320709)
(0 0 0)
(0.000832448 0 0.000669106)
(0.00159548 0 0.00128977)
(0.00227465 0 0.0018555)
(0.00287893 0 0.002377)
(0.00341661 0 0.00286332)
(0.00389512 0 0.00332184)
(0.00432043 0 0.00375812)
(0 0 0)
(0.000823174 0 0.000689209)
(0.00157801 0 0.00132878)
(0.00225025 0 0.00191211)
(0.00284871 0 0.00245024)
(0.00338139 0 0.00295237)
(0.00385543 0 0.00342593)
(0.00427677 0 0.00387669)
(0.00465077 0 0.00430966)
(0.00498239 0 0.00472922)
(0 0 0)
(0.00081307 0 0.000706909)
(0.00155899 0 0.00136319)
(0.0022237 0 0.00196214)
(0.00281581 0 0.00251503)
(0.00334305 0 0.00303111)
(0.00381225 0 0.0035179)
(0.00422932 0 0.00398141)
(0.00459954 0 0.00442677)
(0.00492772 0 0.00485841)
(0.00521823 0 0.00528025)
(0 0 0)
(0.00080212 0 0.000721923)
(0.00153838 0 0.00139246)
(0.00219494 0 0.00200479)
(0.00278014 0 0.0025703)
(0.00330143 0 0.00309831)
(0.00376542 0 0.00359638)
(0.0041779 0 0.00407069)
(0.00454404 0 0.00452642)
(0.00486849 0 0.00496797)
(0.00515545 0 0.00539918)
(0.0054087 0 0.00582349)
(0.0056316 0 0.00624392)
(0 0 0)
(0.000790326 0 0.00073398)
(0.00151619 0 0.00141606)
(0.00216396 0 0.00203931)
(0.0027417 0 0.00261516)
(0.00325657 0 0.00315292)
(0.00371495 0 0.00366017)
(0.00412249 0 0.00414314)
(0.00448423 0 0.004607)
(0.00480466 0 0.00505612)
(0.00508785 0 0.00549421)
(0.0053374 0 0.00592452)
(0.00555652 0 0.00634985)
(0.00574802 0 0.00677268)
(0.00591432 0 0.00719514)
(0 0 0)
(0.000777693 0 0.000742841)
(0.00149243 0 0.00143354)
(0.0021308 0 0.00206505)
(0.00270052 0 0.00264876)
(0.00320851 0 0.00319392)
(0.0036609 0 0.00370809)
(0.00406317 0 0.00419744)
(0.00442019 0 0.00466708)
(0.00473633 0 0.0051213)
(0.0050155 0 0.00556365)
(0.00526119 0 0.00599716)
(0.00547644 0 0.00642436)
(0.00566393 0 0.00684736)
(0.00582597 0 0.00726785)
(0.0059645 0 0.00768715)
(0 0 0)
(0.000764243 0 0.000748276)
(0.00146714 0 0.00144444)
(0.0020955 0 0.00208137)
(0.0026567 0 0.00267031)
(0.00315737 0 0.00322038)
(0.0036034 0 0.00373904)
(0.00400007 0 0.00423237)
(0.0043521 0 0.00470538)
(0.00466371 0 0.00516217)
(0.00493868 0 0.00560614)
(0.00518035 0 0.00604008)
(0.00539168 0 0.00646622)
(0.00557524 0 0.00688632)
(0.00573322 0 0.00730165)
(0.00586749 0 0.00771301)
(0.00597957 0 0.00812066)
(0.00607062 0 0.00852419)
(0 0 0)
(0.000750014 0 0.000750074)
(0.00144039 0 0.00144836)
(0.00205816 0 0.00208769)
(0.00261036 0 0.00267904)
(0.00310329 0 0.00323139)
(0.00354262 0 0.00375201)
(0.00393341 0 0.00424684)
(0.00428021 0 0.00472071)
(0.00458711 0 0.00517755)
(0.00485773 0 0.00562055)
(0.00509533 0 0.00605225)
(0.00530274 0 0.0064746)
(0.00548248 0 0.00688902)
(0.00563669 0 0.00729642)
(0.00576718 0 0.00769719)
(0.00587548 0 0.00809113)
(0.00596281 0 0.00847747)
(0.00603013 0 0.00885471)
(0.0060782 0 0.00922063)
(0 0 0)
(0.000735061 0 0.00074804)
(0.00141228 0 0.00144492)
(0.00201893 0 0.00208344)
(0.00256167 0 0.00267428)
(0.0030465 0 0.00322613)
(0.00347881 0 0.00374607)
(0.00386347 0 0.00423982)
(0.00420485 0 0.00471203)
(0.00450689 0 0.00516641)
(0.00477309 0 0.00560594)
(0.00500661 0 0.00603288)
(0.0052102 0 0.00644892)
(0.0053863 0 0.00685521)
(0.00553704 0 0.00725233)
(0.00566424 0 0.00764037)
(0.00576946 0 0.00801884)
(0.00585398 0 0.00838669)
(0.00591892 0 0.00874229)
(0.00596524 0 0.0090834)
(0.00599381 0 0.00940722)
(0.00600556 0 0.00971041)
(0 0 0)
(0.000719455 0 0.000741999)
(0.00138293 0 0.00143378)
(0.00197799 0 0.00206814)
(0.00251087 0 0.00265536)
(0.00298726 0 0.00320384)
(0.00341228 0 0.00372036)
(0.0037906 0 0.00421041)
(0.00412641 0 0.00467842)
(0.0044235 0 0.00512787)
(0.00468526 0 0.00556148)
(0.00491474 0 0.00598131)
(0.00511464 0 0.00638879)
(0.00528735 0 0.00678481)
(0.00543498 0 0.00716973)
(0.00555937 0 0.00754339)
(0.00566212 0 0.00790514)
(0.00574463 0 0.00825382)
(0.00580815 0 0.00858779)
(0.00585379 0 0.00890494)
(0.00588262 0 0.00920273)
(0.00589588 0 0.00947842)
(0 0 0)
(0.000703283 0 0.000731796)
(0.00135253 0 0.00141463)
(0.00193557 0 0.00204133)
(0.00245824 0 0.00262173)
(0.0029259 0 0.00316382)
(0.00334341 0 0.00367411)
(0.00371523 0 0.0041578)
(0.00404536 0 0.00461905)
(0.00433745 0 0.00506113)
(0.00459479 0 0.00548651)
(0.00482033 0 0.00589703)
(0.00501671 0 0.00629391)
(0.0051863 0 0.00667783)
(0.00533118 0 0.00704897)
(0.00545323 0 0.00740703)
(0.00555409 0 0.00775128)
(0.00563527 0 0.00808055)
(0.00569809 0 0.00839328)
(0.00574383 0 0.00868758)
(0.00577375 0 0.00896132)
(0.00578923 0 0.00921229)
(0 0 0)
(0.000686648 0 0.000717294)
(0.00132125 0 0.00138719)
(0.00189192 0 0.0020026)
(0.0024041 0 0.00257283)
(0.0028628 0 0.00310546)
(0.00327264 0 0.00360663)
(0.00363783 0 0.00408124)
(0.00396222 0 0.00453319)
(0.00424932 0 0.00496549)
(0.00450229 0 0.00538041)
(0.00472402 0 0.00577957)
(0.00491708 0 0.006164)
(0.00508381 0 0.00653423)
(0.00522631 0 0.00689031)
(0.00534645 0 0.00723188)
(0.00544595 0 0.00755817)
(0.00552634 0 0.0078681)
(0.00558908 0 0.00816025)
(0.0056355 0 0.00843299)
(0.00566706 0 0.00868464)
(0 0 0)
(0.000669667 0 0.000698371)
(0.00128931 0 0.00135122)
(0.00184736 0 0.00195159)
(0.00234883 0 0.0025082)
(0.00279842 0 0.00302817)
(0.00320046 0 0.00351725)
(0.00355896 0 0.00398003)
(0.0038776 0 0.00442012)
(0.00415973 0 0.00484028)
(0.00440843 0 0.00524257)
(0.00462649 0 0.00562843)
(0.00481645 0 0.00599872)
(0.0049806 0 0.00635387)
(0.00512104 0 0.00669384)
(0.00523967 0 0.00701824)
(0.00533822 0 0.00732635)
(0.00541829 0 0.00761718)
(0.00548139 0 0.00788952)
(0.00552892 0 0.00814201)
(0.00556242 0 0.00837336)
(0 0 0)
(0.000652473 0 0.000674923)
(0.00125697 0 0.0013065)
(0.00180223 0 0.00188795)
(0.00229287 0 0.00242738)
(0.00273324 0 0.00293141)
(0.00312744 0 0.00340537)
(0.00347924 0 0.00385351)
(0.00379214 0 0.00427916)
(0.00406938 0 0.00468483)
(0.00431393 0 0.00507238)
(0.00452849 0 0.00544306)
(0.00471555 0 0.00579765)
(0.00487738 0 0.00613644)
(0.00501607 0 0.00645937)
(0.00513351 0 0.00676607)
(0.00523146 0 0.00705588)
(0.00531156 0 0.00732793)
(0.00537533 0 0.00758123)
(0.00542423 0 0.00781467)
(0.00545981 0 0.0080273)
(0 0 0)
(0.000635214 0 0.000646851)
(0.00122451 0 0.00125281)
(0.00175692 0 0.00181136)
(0.00223669 0 0.00232994)
(0.00266784 0 0.00281464)
(0.00305419 0 0.00327036)
(0.00339933 0 0.00370099)
(0.00370657 0 0.00410958)
(0.00397903 0 0.00449839)
(0.00421956 0 0.00486909)
(0.00443079 0 0.00522279)
(0.00461517 0 0.00556013)
(0.00477492 0 0.00588137)
(0.00491211 0 0.00618642)
(0.00502864 0 0.00647492)
(0.00512626 0 0.00674633)
(0.00520663 0 0.0069999)
(0.00527128 0 0.00723483)
(0.00532168 0 0.00745025)
(0.00535939 0 0.00764551)
(0 0 0)
(0.000618051 0 0.000614063)
(0.00119221 0 0.00118997)
(0.00171185 0 0.00172151)
(0.00218081 0 0.00221544)
(0.00260281 0 0.00267731)
(0.00298141 0 0.00311157)
(0.00331998 0 0.00352175)
(0.00362169 0 0.00391059)
(0.0038895 0 0.00428013)
(0.00412617 0 0.00463186)
(0.00433427 0 0.00496673)
(0.00451616 0 0.0052853)
(0.00467405 0 0.00558777)
(0.00480996 0 0.00587407)
(0.00492579 0 0.00614388)
(0.00502328 0 0.00639672)
(0.00510409 0 0.00663201)
(0.00516974 0 0.0068491)
(0.00522168 0 0.00704733)
(0.00526149 0 0.00722628)
(0 0 0)
(0.00060116 0 0.000576466)
(0.00116043 0 0.00111777)
(0.0016675 0 0.00161807)
(0.00212583 0 0.00208343)
(0.00253885 0 0.00251884)
(0.00290985 0 0.0029283)
(0.00324202 0 0.00331496)
(0.00353836 0 0.00368127)
(0.0038017 0 0.00402905)
(0.0040347 0 0.00435959)
(0.00423984 0 0.00467373)
(0.00441944 0 0.00497194)
(0.00457565 0 0.00525439)
(0.00471048 0 0.00552099)
(0.00482578 0 0.00577149)
(0.00492328 0 0.00600549)
(0.00500463 0 0.00622253)
(0.00507132 0 0.00642209)
(0.00512479 0 0.0066037)
(0.00516659 0 0.00676713)
(0 0 0)
(0.000584733 0 0.000533958)
(0.00112952 0 0.00103599)
(0.00162436 0 0.00150068)
(0.00207237 0 0.00193341)
(0.00247668 0 0.00233859)
(0.00284035 0 0.00271975)
(0.00316635 0 0.00307969)
(0.00345754 0 0.00342056)
(0.00371662 0 0.00374394)
(0.00394615 0 0.00405096)
(0.00414854 0 0.00434234)
(0.00432604 0 0.00461847)
(0.00448075 0 0.00487949)
(0.00461464 0 0.00512532)
(0.00472953 0 0.00535574)
(0.00482714 0 0.00557043)
(0.00490907 0 0.00576902)
(0.0049768 0 0.00595114)
(0.00503172 0 0.00611643)
(0.00507537 0 0.0062648)
(0 0 0)
(0.00056898 0 0.000486425)
(0.00109988 0 0.000944372)
(0.00158301 0 0.00136894)
(0.00202115 0 0.0017648)
(0.00241713 0 0.00213579)
(0.00277381 0 0.00248499)
(0.00309395 0 0.00281482)
(0.00338027 0 0.00312715)
(0.00363535 0 0.00342333)
(0.00386165 0 0.00370432)
(0.0040615 0 0.00397073)
(0.00423708 0 0.00422287)
(0.00439045 0 0.00446086)
(0.00452353 0 0.00468461)
(0.00463812 0 0.00489396)
(0.00473589 0 0.00508862)
(0.0048184 0 0.00526832)
(0.00488712 0 0.00543277)
(0.00494339 0 0.00558172)
(0.00498873 0 0.0057152)
(0 0 0)
(0.000554133 0 0.000433731)
(0.00107196 0 0.000842636)
(0.00154408 0 0.00122238)
(0.00197294 0 0.00157693)
(0.00236112 0 0.00190958)
(0.00271125 0 0.00222293)
(0.00302594 0 0.00251905)
(0.00330774 0 0.0027995)
(0.00355913 0 0.00306544)
(0.00378246 0 0.00331764)
(0.00397999 0 0.00355662)
(0.00415385 0 0.00378261)
(0.00430603 0 0.00399569)
(0.00443842 0 0.0041958)
(0.00455277 0 0.00438276)
(0.00465072 0 0.00455638)
(0.0047338 0 0.00471641)
(0.00480342 0 0.00486264)
(0.00486091 0 0.00499491)
(0.00490776 0 0.00511329)
(0 0 0)
(0.000540448 0 0.000375717)
(0.00104624 0 0.000730437)
(0.00150825 0 0.00106045)
(0.00192861 0 0.00136905)
(0.00230966 0 0.00165894)
(0.00265383 0 0.00193229)
(0.00296355 0 0.00219081)
(0.00324126 0 0.00243577)
(0.00348931 0 0.00266811)
(0.00370998 0 0.00288847)
(0.00390545 0 0.00309722)
(0.00407778 0 0.00329457)
(0.00422894 0 0.00348054)
(0.00436074 0 0.00365506)
(0.00447491 0 0.00381799)
(0.00457305 0 0.00396916)
(0.00465664 0 0.00410837)
(0.00472708 0 0.00423547)
(0.00478564 0 0.00435032)
(0.0048338 0 0.00445305)
(0 0 0)
(0.00052822 0 0.000312195)
(0.0010233 0 0.00060738)
(0.00147632 0 0.00088252)
(0.00188916 0 0.00114023)
(0.00226392 0 0.00138268)
(0.00260283 0 0.00161158)
(0.00290819 0 0.00182827)
(0.00318231 0 0.00203378)
(0.00342745 0 0.00222882)
(0.00364581 0 0.00241387)
(0.0038395 0 0.00258922)
(0.00401053 0 0.002755)
(0.00416081 0 0.00291122)
(0.00429213 0 0.00305779)
(0.00440616 0 0.00319459)
(0.00450448 0 0.00332146)
(0.00458853 0 0.00343826)
(0.00465968 0 0.00354485)
(0.00471916 0 0.00364114)
(0.00476843 0 0.00372724)
(0 0 0)
(0.000517793 0 0.000242949)
(0.00100377 0 0.000473011)
(0.00144922 0 0.000687868)
(0.00185574 0 0.000889479)
(0.00222522 0 0.00107945)
(0.00255974 0 0.00125908)
(0.00286147 0 0.00142934)
(0.00313261 0 0.001591)
(0.00337534 0 0.00174457)
(0.00359179 0 0.0018904)
(0.00378402 0 0.00202867)
(0.00395399 0 0.00215947)
(0.00410357 0 0.00228276)
(0.0042345 0 0.00239848)
(0.00434844 0 0.00250651)
(0.00444691 0 0.00260671)
(0.00453135 0 0.00269896)
(0.00460308 0 0.00278315)
(0.00466331 0 0.00285922)
(0.00471348 0 0.00292725)
(0 0 0)
(0.000509584 0 0.000167742)
(0.00098846 0 0.000326827)
(0.00142804 0 0.000475692)
(0.00182969 0 0.000615639)
(0.00219512 0 0.000747739)
(0.00252628 0 0.000872846)
(0.00282524 0 0.000991618)
(0.00309411 0 0.00110454)
(0.00333501 0 0.00121195)
(0.00355002 0 0.00131407)
(0.00374115 0 0.00141099)
(0.00391033 0 0.00150276)
(0.00405939 0 0.00158933)
(0.00419005 0 0.00167065)
(0.00430392 0 0.0017466)
(0.00440253 0 0.0018171)
(0.00448727 0 0.00188203)
(0.00455944 0 0.00194133)
(0.00462024 0 0.00199493)
(0.00467109 0 0.00204289)
(0 0 0)
(0.000504126 0 8.6319e-05)
(0.000978343 0 0.000168291)
(0.00141412 0 0.000245128)
(0.00181264 0 0.000317479)
(0.00217548 0 0.000385881)
(0.00250449 0 0.000450759)
(0.00280168 0 0.00051244)
(0.00306911 0 0.000571164)
(0.00330885 0 0.000627093)
(0.00352295 0 0.000680327)
(0.0037134 0 0.000730912)
(0.00388208 0 0.000778854)
(0.00403082 0 0.000824128)
(0.00416131 0 0.000866687)
(0.00427517 0 0.000906476)
(0.00437387 0 0.000943432)
(0.00445881 0 0.000977499)
(0.00453127 0 0.00100863)
(0.00459243 0 0.00103679)
(0.00464371 0 0.001062)
(0 0 0)
(0.00050222 0 0)
(0.000974773 0 0)
(0.00140921 0 0)
(0.00180663 0 0)
(0.00216856 0 0)
(0.00249682 0 0)
(0.00279339 0 0)
(0.00306031 0 0)
(0.00329965 0 0)
(0.00351344 0 0)
(0.00370364 0 0)
(0.00387216 0 0)
(0.00402078 0 0)
(0.00415122 0 0)
(0.00426507 0 0)
(0.0043638 0 0)
(0.00444881 0 0)
(0.00452137 0 0)
(0.00458266 0 0)
(0.00463409 0 0)
)
;

boundaryField
{
    inlet
    {
        type            fixedValue;
        value           uniform (0 0 0);
    }
    outlet
    {
        type            fixedValue;
        value           nonuniform 0();
    }
    flap
    {
        type            fixedValue;
        value           nonuniform 0();
    }
    upperWall
    {
        type            slip;
    }
    lowerWall
    {
        type            slip;
    }
    frontAndBack
    {
        type            empty;
    }
    procBoundary0to1
    {
        type            processor;
    }
    procBoundary0to3
    {
        type            processor;
    }
}


// ************************************************************************* //
