/*--------------------------------*- C++ -*----------------------------------*\
| =========                 |                                                 |
| \\      /  F ield         | OpenFOAM: The Open Source CFD Toolbox           |
|  \\    /   O peration     | Version:  dev                                   |
|   \\  /    A nd           | Web:      www.OpenFOAM.org                      |
|    \\/     M anipulation  |                                                 |
\*---------------------------------------------------------------------------*/
FoamFile
{
    version     2.0;
    format      ascii;
    class       surfaceScalarField;
    location    "0.14";
    object      phi;
}
// * * * * * * * * * * * * * * * * * * * * * * * * * * * * * * * * * * * * * //

dimensions      [0 3 -1 0 0 0 0];

internalField   nonuniform List<scalar> 
882
(
0.122092
0.246546
0.117664
0.252197
0.123221
0.128799
0.260507
0.112495
0.266858
0.11687
0.274583
0.121074
0.283879
0.12497
0.128373
0.273812
0.106796
0.280608
0.110073
0.288635
0.113047
0.298017
0.115589
0.308851
0.117539
0.321196
0.118713
0.118907
0.286422
0.100753
0.293448
0.103048
0.301539
0.104956
0.310763
0.106365
0.321155
0.107146
0.332709
0.107159
0.345359
0.106257
0.358969
0.104295
0.101197
0.373326
0.298337
0.0945247
0.305418
0.0959676
0.313396
0.0969779
0.322293
0.0974673
0.332102
0.0973377
0.342773
0.0964876
0.35421
0.0948196
0.36626
0.0922457
0.0887347
0.378722
0.309584
0.0882423
0.316587
0.0889649
0.324323
0.0892415
0.332784
0.0890061
0.341933
0.0881892
0.351697
0.086723
0.361969
0.0845481
0.372596
0.0816177
0.0779295
0.383401
0.320213
0.0820074
0.32704
0.0821384
0.334449
0.0818322
0.342411
0.0810438
0.350872
0.0797279
0.359751
0.0778437
0.368939
0.0753602
0.378298
0.072259
0.0685559
0.387671
0.330288
0.0758961
0.336871
0.0755553
0.343902
0.0748012
0.351339
0.0736069
0.35912
0.0719467
0.367163
0.0698005
0.375365
0.0671573
0.383607
0.0640176
0.0604071
0.391755
0.339881
0.0699624
0.346178
0.0692576
0.352807
0.0681729
0.359718
0.0666959
0.366848
0.0648161
0.37412
0.0625284
0.381442
0.0598355
0.38871
0.0567492
0.0533001
0.395817
0.349069
0.0642408
0.35506
0.063267
0.361281
0.0619515
0.367684
0.0602931
0.374207
0.0582926
0.38078
0.0559552
0.387323
0.0532922
0.39375
0.050322
0.0470762
0.399974
0.352441
0.0596014
0.357931
0.0587507
0.363608
0.0575899
0.369433
0.0561269
0.375357
0.0543692
0.381324
0.0523252
0.387272
0.0500069
0.393134
0.0474305
0.398838
0.0446177
0.041599
0.404315
0.361293
0.0544999
0.366545
0.0534988
0.371914
0.0522205
0.377362
0.050679
0.382844
0.0488874
0.388309
0.0468595
0.393705
0.0446111
0.398974
0.0421612
0.404059
0.039532
0.0367517
0.408906
0.369969
0.0495756
0.374985
0.0484827
0.38006
0.047145
0.385158
0.0455809
0.390238
0.0438072
0.395257
0.0418409
0.400168
0.0396996
0.404926
0.0374031
0.409485
0.0349729
0.0324347
0.413801
0.378534
0.0448279
0.383324
0.0436924
0.388125
0.0423435
0.392904
0.040802
0.397624
0.0390868
0.402249
0.0372163
0.406739
0.0352088
0.411059
0.0330835
0.415171
0.0308606
0.0285626
0.419043
0.387051
0.0402497
0.39163
0.0391132
0.396181
0.0377925
0.400673
0.0363096
0.405076
0.0346844
0.409357
0.0329352
0.413485
0.0310801
0.417431
0.0291373
0.421166
0.027125
0.0250627
0.424666
0.395583
0.0358296
0.399969
0.0347264
0.404296
0.033466
0.408535
0.0320704
0.41266
0.0305591
0.416645
0.0289502
0.420464
0.0272606
0.424094
0.0255069
0.427514
0.0237051
0.0218722
0.430704
0.404186
0.0315525
0.408402
0.030511
0.412531
0.0293367
0.41655
0.0280509
0.420437
0.0266721
0.42417
0.0252173
0.427729
0.0237019
0.431095
0.0221407
0.434252
0.0205478
0.0189372
0.437187
0.41292
0.0274006
0.416987
0.0264439
0.420947
0.0253766
0.42478
0.0242182
0.428466
0.0229861
0.431987
0.0216954
0.435329
0.0203601
0.438477
0.0189929
0.441418
0.0176059
0.0162108
0.444145
0.421839
0.0233541
0.425782
0.0225012
0.429601
0.0215573
0.433278
0.0205403
0.436799
0.0194656
0.440148
0.0183464
0.443313
0.017195
0.446283
0.0160221
0.449051
0.0148379
0.0136519
0.45161
0.430996
0.0193915
0.434839
0.0186575
0.438546
0.0178505
0.442101
0.0169858
0.445489
0.0160767
0.448701
0.0151346
0.451726
0.0141696
0.454558
0.0131908
0.457189
0.0122063
0.0112237
0.459617
0.440444
0.0154894
0.444214
0.0148867
0.447837
0.0142271
0.4513
0.0135235
0.45459
0.0127866
0.457698
0.0120259
0.460619
0.0112494
0.463345
0.0104644
0.465874
0.0096772
0.00889393
0.468204
0.450232
0.0116228
0.453957
0.0111612
0.457527
0.0106576
0.460928
0.0101221
0.464152
0.0095628
0.467191
0.008987
0.470039
0.00840082
0.472694
0.00780963
0.475153
0.00721816
0.00663077
0.477416
0.460413
0.00776515
0.464122
0.00745235
0.467668
0.00711166
0.47104
0.00674988
0.47423
0.00637279
0.477232
0.00598526
0.480041
0.00559146
0.482656
0.00519505
0.485075
0.00479918
0.00440684
0.487299
0.471016
0.00388663
0.47474
0.00372869
0.478295
0.00355644
0.481672
0.00337347
0.484862
0.0031828
0.48786
0.00298698
0.490663
0.00278818
0.49327
0.00258824
0.495681
0.00238879
0.00219137
0.497897
0.476411
0.48014
0.483697
0.48707
0.490253
0.49324
0.496029
0.498617
0.501006
0.503198
0.049092
0.384932
0.0428819
0.391203
0.0421117
0.0411785
0.397496
0.388746
0.0375369
0.394107
0.0367508
0.0358343
0.399451
0.392278
0.0329296
0.396872
0.0321572
0.0312806
0.401425
0.395738
0.0289462
0.399689
0.028206
0.0273826
0.403587
0.399274
0.0254887
0.402688
0.0247916
0.0240279
0.406043
0.402989
0.0224735
0.405955
0.0218252
0.0211238
0.408859
0.406958
0.0198297
0.40955
0.019233
0.0185937
0.41208
0.411238
0.0174976
0.413518
0.0169529
0.0163742
0.415738
0.415873
0.0154263
0.417892
0.014933
0.0144125
0.419854
0.420896
0.0135732
0.422699
0.0131298
0.0126645
0.424447
0.426338
0.0119016
0.427961
0.0115062
0.0110934
0.429532
0.432225
0.0103807
0.4337
0.0100312
0.00966788
0.435125
0.438584
0.00898359
0.439937
0.00867812
0.0083616
0.441243
0.445441
0.00768742
0.446695
0.00742401
0.00715189
0.447905
0.452825
0.00647205
0.454
0.00624898
0.0060191
0.455133
0.460769
0.00531984
0.461883
0.00513566
0.00494628
0.462956
0.469309
0.0042145
0.470377
0.00406802
0.00391762
0.471406
0.478489
0.00314199
0.479525
0.00303236
0.00291999
0.480523
0.488354
0.00208693
0.489373
0.00201358
0.00193833
0.490355
0.498946
0.00103806
0.499959
0.00100049
0.000962219
0.500936
0.504236
0.505237
0.506199
0.0791563
0.410075
0.0685322
0.420339
0.0643306
0.429803
0.0584933
0.0508363
0.410387
0.0595699
0.418987
0.0557302
0.426892
0.0505879
0.433729
0.0439989
0.439132
0.0359564
0.0265462
0.411192
0.0519654
0.418438
0.0484832
0.425073
0.0439527
0.430809
0.0382631
0.43536
0.0314051
0.438468
0.0234375
0.439923
0.0144752
0.00469118
0.412538
0.0454702
0.418689
0.0423317
0.424299
0.0383421
0.429146
0.0334163
0.433006
0.0275446
0.435676
0.0207675
0.436984
0.0131667
0.436807
0.00486748
-0.00396796
0.414445
0.0398834
0.419708
0.0370691
0.424491
0.0335587
0.428621
0.0292864
0.431922
0.0242433
0.434231
0.0184575
0.43541
0.0119877
0.435352
0.00492538
-0.00260734
0.416921
0.0350427
0.42146
0.0325302
0.425573
0.0294448
0.429124
0.0257357
0.431972
0.0213947
0.433988
0.0164416
0.435056
0.0109189
0.435087
0.00489395
-0.00154099
0.419964
0.0308159
0.423912
0.0285819
0.427483
0.0258745
0.430564
0.0226537
0.433046
0.0189124
0.434823
0.0146647
0.4358
0.00994146
0.435901
0.00479267
-0.000711742
0.423575
0.0270946
0.42704
0.0251168
0.430169
0.0227461
0.432871
0.0199514
0.435057
0.0167263
0.43664
0.013081
0.437543
0.00903798
0.437701
0.00463448
-7.61175e-05
0.427752
0.0237896
0.430822
0.0220467
0.433591
0.0199773
0.435986
0.0175566
0.437933
0.0147793
0.439361
0.0116525
0.440206
0.0081929
0.440412
0.0044282
0.000399359
0.432495
0.0208266
0.435243
0.0192993
0.43772
0.0175004
0.439866
0.0154102
0.441621
0.0130244
0.442926
0.0103477
0.443726
0.00739256
0.443974
0.00417984
0.000740614
0.437808
0.0181437
0.440293
0.0168146
0.442534
0.0152599
0.44448
0.0134639
0.446082
0.0114228
0.44729
0.00914016
0.448057
0.006625
0.448344
0.00389308
0.000968008
0.443698
0.0156888
0.44597
0.0145425
0.448021
0.0132094
0.449808
0.0116772
0.451289
0.0099425
0.452421
0.00800787
0.453166
0.00587995
0.453489
0.00357061
0.00109781
0.450176
0.0134176
0.452278
0.0124408
0.454178
0.0113103
0.455839
0.0100165
0.457225
0.00855667
0.458301
0.00693245
0.459032
0.00514877
0.459389
0.00321454
0.00114341
0.457259
0.0112922
0.459227
0.0104733
0.461008
0.0095296
0.462572
0.00845348
0.463886
0.00724271
0.464921
0.00589839
0.465646
0.00442412
0.466034
0.00282657
0.00111606
0.464969
0.00927936
0.466834
0.00860898
0.468525
0.00783907
0.470015
0.00696381
0.471277
0.00598139
0.472284
0.00489254
0.473009
0.00369986
0.473428
0.00240829
0.00102554
0.473336
0.00734974
0.475126
0.00682023
0.476752
0.0062139
0.47819
0.00552631
0.479416
0.00475607
0.480406
0.00390365
0.481135
0.0029709
0.481583
0.00196141
0.000880797
0.482396
0.00547686
0.484135
0.00508256
0.485717
0.00463209
0.487122
0.00412235
0.488327
0.00355226
0.489309
0.00292212
0.490048
0.0022332
0.490522
0.001488
0.000690455
0.492198
0.00363488
0.49391
0.00337191
0.49547
0.00307256
0.496859
0.00273422
0.498056
0.00235621
0.499041
0.00193883
0.499792
0.00148291
0.500291
0.000990023
0.000462581
0.502772
0.0017991
0.504478
0.00166742
0.506035
0.00151659
0.507424
0.00134599
0.508626
0.00115576
0.50962
0.00094616
0.510386
0.000717683
0.510906
0.000471317
0.000208741
0.508
0.509668
0.511186
0.512533
0.51369
0.514638
0.515357
0.515829
)
;

boundaryField
{
    inlet
    {
        type            calculated;
        value           nonuniform 0();
    }
    outlet
    {
        type            calculated;
        value           nonuniform 0();
    }
    flap
    {
        type            calculated;
        value           nonuniform 0();
    }
    upperWall
    {
        type            calculated;
        value           uniform 0;
    }
    lowerWall
    {
        type            calculated;
        value           nonuniform 0();
    }
    frontAndBack
    {
        type            empty;
        value           nonuniform 0();
    }
    procBoundary1to0
    {
        type            processor;
        value           nonuniform List<scalar> 
18
(
-0.333947
-0.343347
-0.0648733
-0.347169
-0.356191
-0.365045
-0.373786
-0.382473
-0.391163
-0.399909
-0.408768
-0.417793
-0.427033
-0.436542
-0.446365
-0.456555
-0.467138
-0.472525
)
;
    }
    procBoundary1to2
    {
        type            processor;
        value           nonuniform List<scalar> 
17
(
0.435076
0.433991
0.434021
0.435072
0.437066
0.439937
0.443633
0.448117
0.45336
0.459344
0.466062
0.473519
0.481729
0.490714
0.50052
0.511162
0.51604
)
;
    }
    procBoundary1to3
    {
        type            processor;
        value           nonuniform List<scalar> 9(-0.228549 -0.242117 -0.255338 -0.268113 -0.280379 -0.292109 -0.303302 -0.313978 -0.324176);
    }
    procBoundary1to4
    {
        type            processor;
        value           nonuniform List<scalar> 
30
(
-0.12556
0.232017
-0.128873
-0.135921
0.259319
-0.134266
-0.139428
0.294933
-0.131058
-0.132752
0.335041
-0.117905
-0.115555
-0.0563004
0.380534
-0.0483832
-0.0474711
-0.0917867
0.410126
-0.0745947
-0.0679577
-0.0590221
0.437988
-0.0413594
-0.030187
0.442772
-0.0159313
-0.00435311
0.439585
0.00569836
)
;
    }
}


// ************************************************************************* //
