/*--------------------------------*- C++ -*----------------------------------*\
| =========                 |                                                 |
| \\      /  F ield         | OpenFOAM: The Open Source CFD Toolbox           |
|  \\    /   O peration     | Version:  dev                                   |
|   \\  /    A nd           | Web:      www.OpenFOAM.org                      |
|    \\/     M anipulation  |                                                 |
\*---------------------------------------------------------------------------*/
FoamFile
{
    version     2.0;
    format      ascii;
    class       volVectorField;
    location    "0.98";
    object      Force;
}
// * * * * * * * * * * * * * * * * * * * * * * * * * * * * * * * * * * * * * //

dimensions      [1 1 -2 0 0 0 0];

internalField   uniform (0 0 0);

boundaryField
{
    inlet
    {
        type            calculated;
        value           nonuniform 0();
    }
    outlet
    {
        type            calculated;
        value           nonuniform 0();
    }
    flap
    {
        type            calculated;
        value           nonuniform List<vector> 
33
(
(4.67393 1.88948e-17 -0.241879)
(4.6278 1.26602e-17 -0.575969)
(4.54617 -1.84474e-17 -0.90377)
(4.4246 -1.19026e-17 -1.17023)
(4.2742 -4.61828e-24 -1.37606)
(4.10824 -1.77328e-17 -1.52725)
(3.93654 2.87706e-17 -1.63203)
(3.7676 -1.09732e-17 -1.69707)
(3.60305 8.23321e-23 -1.72826)
(3.44197 -6.1496e-23 -1.72914)
(3.28359 1.64261e-17 -1.70197)
(3.12045 -9.51494e-18 -1.64822)
(2.93924 1.54287e-17 -1.56736)
(2.71871 3.07267e-22 -1.45243)
(2.41557 2.78082e-21 -1.29273)
(-0.106 1.30208e-21 -0.199764)
(-0.225704 1.17549e-38 -0.419397)
(-0.346851 9.93025e-19 -0.641987)
(-1.73666 1.35248e-17 0.0908102)
(-1.73574 1.37342e-17 0.216805)
(-1.73179 1.39873e-17 0.346083)
(-1.72585 -2.45596e-24 0.457879)
(-1.71875 9.4408e-18 0.555157)
(-1.71154 -1.47818e-17 0.63848)
(-1.70492 -5.13654e-18 0.709103)
(-1.69807 2.04206e-17 0.767758)
(-1.69129 -2.06623e-17 0.814807)
(-1.68488 5.91421e-38 0.850428)
(-1.67785 8.41213e-38 0.874443)
(-1.66994 0 0.887597)
(-1.66054 -1.67635e-17 0.891641)
(-1.64803 1.81297e-17 0.887686)
(-1.629 -3.97008e-21 0.87971)
)
;
    }
    upperWall
    {
        type            calculated;
        value           nonuniform 0();
    }
    lowerWall
    {
        type            calculated;
        value           uniform (0 0 0);
    }
    frontAndBack
    {
        type            empty;
    }
    procBoundary4to1
    {
        type            processor;
        value           uniform (0 0 0);
    }
    procBoundary4to2
    {
        type            processor;
        value           uniform (0 0 0);
    }
    procBoundary4to3
    {
        type            processor;
        value           uniform (0 0 0);
    }
    procBoundary4to5
    {
        type            processor;
        value           uniform (0 0 0);
    }
}


// ************************************************************************* //
