/*--------------------------------*- C++ -*----------------------------------*\
| =========                 |                                                 |
| \\      /  F ield         | OpenFOAM: The Open Source CFD Toolbox           |
|  \\    /   O peration     | Version:  dev                                   |
|   \\  /    A nd           | Web:      www.OpenFOAM.org                      |
|    \\/     M anipulation  |                                                 |
\*---------------------------------------------------------------------------*/
FoamFile
{
    version     2.0;
    format      ascii;
    class       surfaceVectorField;
    location    "0.98";
    object      Uf;
}
// * * * * * * * * * * * * * * * * * * * * * * * * * * * * * * * * * * * * * //

dimensions      [0 1 -1 0 0 0 0];

internalField   nonuniform List<vector> 
865
(
(4.29489 -1.30333e-19 0.27085)
(5.02033 4.62591e-19 0.444443)
(3.7724 7.4784e-20 0.298838)
(4.51943 -2.45225e-19 0.486193)
(3.2249 2.51439e-19 0.328493)
(3.98999 2.54716e-19 0.528683)
(2.65539 -6.93175e-19 0.359398)
(3.43368 -1.29694e-18 0.57059)
(2.06826 2.37917e-20 0.390706)
(2.85309 5.07871e-19 0.609951)
(1.4696 6.96101e-19 0.419787)
(2.25161 5.65464e-19 0.643562)
(0.86788 -2.78126e-19 0.42697)
(1.63361 0 0.664377)
(0.274888 -8.9567e-19 0.221572)
(0.96851 -1.93626e-18 0.644286)
(0.433317 2.89906e-18 0.321875)
(5.23221 3.35976e-19 0.691501)
(5.69968 -5.03137e-19 0.87455)
(4.72278 -5.94153e-20 0.755875)
(5.22797 7.71113e-19 0.961513)
(4.18302 -1.31227e-18 0.820909)
(4.72454 -9.75061e-19 1.05103)
(3.61438 -7.85875e-20 0.884429)
(4.18916 -3.06916e-18 1.14072)
(3.01894 1.04877e-18 0.94294)
(3.62157 3.26197e-18 1.22697)
(2.39926 -1.35863e-19 0.989584)
(3.02064 -1.35829e-19 1.3038)
(1.75708 -1.62048e-18 1.00818)
(2.38419 -5.34372e-19 1.3587)
(1.07593 2.01715e-18 0.987477)
(1.67031 -1.8861e-18 1.36735)
(1.02885 2.92367e-18 1.3123)
(5.68479 -5.07824e-20 1.13305)
(6.03701 -2.70195e-18 1.26607)
(5.21807 -1.64875e-19 1.24414)
(5.60621 4.65113e-18 1.39706)
(4.71829 -2.75678e-18 1.35763)
(5.14337 -3.11837e-18 1.53384)
(4.18384 3.19962e-19 1.4702)
(4.64595 -1.5259e-18 1.67363)
(3.61186 2.0568e-18 1.57709)
(4.11004 1.81028e-18 1.8123)
(2.99595 -5.31568e-19 1.67097)
(3.52884 -4.10922e-18 1.94411)
(2.31902 -7.99727e-19 1.7395)
(2.89201 4.11196e-18 2.06072)
(1.54437 -8.49286e-19 1.80549)
(2.16615 -6.8433e-21 2.14971)
(1.36137 -5.67359e-19 2.29232)
(5.94928 2.09275e-18 1.52844)
(6.24548 -2.01426e-18 1.62505)
(5.52168 1.61105e-18 1.68449)
(5.84887 3.81798e-18 1.79698)
(5.06082 -1.87595e-18 1.84693)
(5.42161 -3.5473e-18 1.97897)
(4.56226 -8.62837e-21 2.01227)
(4.95937 2.30584e-19 2.16852)
(4.01886 -4.35162e-18 2.1758)
(4.45557 1.94267e-18 2.36184)
(3.41814 4.73262e-19 2.33191)
(3.89994 -3.83767e-18 2.55396)
(2.73644 4.9327e-18 2.46824)
(3.27629 4.59974e-18 2.73976)
(1.97097 2.44474e-19 2.61023)
(2.58515 2.66095e-21 2.8878)
(1.67339 0 3.14869)
(6.13721 -2.15897e-19 1.89389)
(6.40575 -1.72372e-18 1.96014)
(5.74054 -1.41839e-18 2.09144)
(6.03583 3.53027e-18 2.16987)
(5.31175 -1.41194e-18 2.30017)
(5.63719 -3.43821e-18 2.39433)
(4.84459 2.17909e-18 2.51713)
(5.20449 -2.46799e-19 2.63173)
(4.32973 2.43656e-18 2.73769)
(4.7297 5.95996e-18 2.87863)
(3.75367 2.47143e-19 2.9561)
(4.20169 -3.78909e-18 3.12907)
(3.09151 -2.42804e-19 3.15383)
(3.59745 1.47604e-20 3.37807)
(2.36725 -2.36298e-19 3.34354)
(2.96489 -2.45003e-19 3.55749)
(1.98191 4.1758e-18 3.88286)
(6.29757 2.07303e-18 2.23762)
(6.55224 -3.28705e-18 2.2773)
(5.92547 1.45505e-18 2.47393)
(6.20403 5.24077e-18 2.52234)
(5.52292 -2.25616e-18 2.72643)
(5.82895 1.37829e-18 2.78683)
(5.08283 3.54276e-18 2.99269)
(5.42124 -3.79881e-18 3.06959)
(4.59486 -2.19686e-19 3.26755)
(4.97208 1.40247e-19 3.3673)
(4.04649 -4.04336e-18 3.54244)
(4.47103 3.26503e-18 3.67118)
(3.41121 1.48831e-20 3.78918)
(3.88474 -3.63929e-18 3.97565)
(2.72088 4.33253e-18 4.00257)
(3.31051 -4.51551e-19 4.1716)
(2.27805 3.88876e-18 4.52975)
(6.45278 -4.37493e-20 2.56423)
(6.70014 -1.11876e-19 2.57977)
(6.10151 5.13221e-18 2.83714)
(6.37111 5.04602e-18 2.85827)
(5.72137 -1.71797e-19 3.13125)
(6.01672 1.39308e-19 3.16089)
(5.30506 -7.18824e-18 3.44427)
(5.63113 -3.56626e-18 3.48693)
(4.84151 3.59446e-18 3.76983)
(5.20475 -3.67693e-18 3.8328)
(4.31842 3.69767e-18 4.09558)
(4.72847 7.27106e-18 4.18613)
(3.70625 -4.12229e-18 4.38374)
(4.15513 -3.21133e-18 4.54207)
(3.03135 -6.89088e-19 4.61352)
(3.62805 -7.89899e-21 4.75437)
(2.55842 -3.64409e-18 5.1398)
(6.61332 5.02061e-18 2.87629)
(6.85631 3.31614e-18 2.86884)
(6.28128 3.57017e-20 3.18419)
(6.54578 1.73879e-18 3.17951)
(5.9216 -3.2694e-18 3.51822)
(6.21114 -6.54849e-18 3.51891)
(5.52685 -5.37902e-20 3.87614)
(5.84641 3.19138e-18 3.8868)
(5.08514 -5.40852e-20 4.2501)
(5.44105 -1.6928e-21 4.27952)
(4.58303 4.29346e-19 4.62439)
(4.98754 -3.32566e-18 4.68105)
(3.98726 8.73131e-19 4.9539)
(4.42271 3.76639e-18 5.08936)
(3.31461 -3.14481e-18 5.20888)
(3.93203 8.59977e-19 5.32787)
(2.83005 -3.62829e-18 5.75475)
(6.78429 2.43468e-20 3.17459)
(7.02387 4.73998e-18 3.14446)
(6.47146 -4.88153e-18 3.51644)
(6.73249 -4.60502e-18 3.48632)
(6.13201 -7.93578e-20 3.88935)
(6.41823 -3.37558e-18 3.86162)
(5.75806 3.25238e-18 4.29142)
(6.07482 3.2994e-18 4.27075)
(5.33672 -3.26483e-18 4.71372)
(5.69062 5.23613e-20 4.71041)
(4.85263 3.13534e-20 5.13815)
(5.25979 -3.72649e-18 5.16179)
(4.26891 3.74539e-18 5.51516)
(4.70201 -2.51348e-19 5.62756)
(3.59371 1.46873e-19 5.8123)
(4.24156 3.27647e-18 5.90738)
(3.10475 -6.81536e-19 6.39498)
(6.96823 7.24957e-20 3.45855)
(7.20418 7.48438e-18 3.40559)
(6.67582 -3.09552e-18 3.83355)
(6.93369 -6.26987e-18 3.77765)
(6.35794 2.00727e-21 4.24485)
(6.64179 3.00447e-18 4.18808)
(6.00611 9.97015e-20 4.6913)
(6.3221 -2.76851e-19 4.63825)
(5.60624 -3.93331e-19 5.16381)
(5.96181 -8.58095e-21 5.12595)
(5.14048 -3.99427e-18 5.64351)
(5.55664 -3.42133e-18 5.63108)
(4.5686 -8.42557e-19 6.079)
(5.00878 -3.60232e-18 6.1628)
(3.88857 2.23023e-18 6.4391)
(4.57659 2.86075e-18 6.50437)
(3.39586 4.09572e-19 7.07625)
(7.16634 1.10265e-18 3.72662)
(7.39779 5.82651e-18 3.6505)
(6.89674 -1.50526e-19 4.13379)
(7.15078 -5.78508e-18 4.05135)
(6.60337 2.73824e-18 4.58298)
(6.88449 3.11741e-18 4.49565)
(6.27743 -3.84781e-19 5.07441)
(6.59293 3.41665e-19 4.9863)
(5.90357 -3.02853e-18 5.60026)
(6.26231 -3.64292e-19 5.52323)
(5.46073 -3.01705e-18 6.14335)
(5.88984 -5.54104e-18 6.08765)
(4.90525 0 6.65371)
(5.36121 5.08902e-18 6.69671)
(4.21809 9.08876e-19 7.10598)
(4.96045 -4.59629e-20 7.12963)
(3.72296 -2.41985e-18 7.82962)
(7.37929 -1.08984e-18 3.97654)
(7.605 4.18537e-18 3.87699)
(7.13585 -2.51557e-18 4.41411)
(7.38456 -5.46037e-18 4.30424)
(6.87154 7.21802e-19 4.8998)
(7.14819 2.7553e-18 4.77999)
(6.57771 3.65761e-19 5.43611)
(6.89103 -2.38064e-18 5.3092)
(6.23847 -2.86836e-18 6.0185)
(6.59905 6.64343e-19 5.89515)
(5.82903 2.72243e-18 6.6354)
(6.27157 -2.51404e-18 6.52433)
(5.30193 5.12856e-18 7.24393)
(5.78195 5.80921e-18 7.22401)
(4.61265 -3.84932e-18 7.83442)
(5.42771 -4.6122e-20 7.78925)
(4.12244 -3.3271e-18 8.69681)
(7.60737 -1.91879e-19 4.2052)
(7.82552 4.09233e-18 4.08219)
(7.39408 -1.79873e-19 4.67001)
(7.63501 -7.26875e-18 4.53212)
(7.16465 -3.42822e-19 5.18906)
(7.43362 5.42816e-18 5.03508)
(6.91157 -2.08706e-18 5.76787)
(7.21856 -2.4746e-18 5.59828)
(6.62014 1.02119e-18 6.40774)
(6.97736 3.67617e-19 6.22932)
(6.26317 7.05657e-19 7.10814)
(6.71371 6.3592e-19 6.92454)
(5.79069 6.83861e-19 7.84369)
(6.29831 6.99921e-19 7.72518)
(5.12873 -2.29224e-20 8.64593)
(6.03342 -3.17248e-18 8.47036)
(4.66134 4.89195e-18 9.72536)
(7.84995 -3.0019e-18 4.4088)
(8.05759 1.33063e-18 4.26276)
(7.67112 -1.66816e-18 4.89592)
(7.90046 -5.62127e-18 4.73029)
(7.48318 3.31637e-18 5.44235)
(7.73927 2.67189e-18 5.25371)
(7.2814 -1.10018e-20 6.05682)
(7.57443 1.45754e-20 5.84211)
(7.05533 -1.71197e-20 6.74837)
(7.39808 -6.63639e-19 6.50724)
(6.78113 6.30331e-19 7.53264)
(7.22286 9.94034e-21 7.25757)
(6.41507 -3.24603e-18 8.41805)
(6.93546 1.77657e-18 8.15142)
(5.86333 2.56322e-18 9.55319)
(6.85869 -2.61314e-18 9.11058)
(5.45191 5.95448e-18 10.9757)
(8.10427 -1.28816e-18 4.58347)
(8.30013 -1.18128e-18 4.41588)
(7.96409 -1.28403e-18 5.08607)
(8.17962 1.63313e-19 4.8945)
(7.82401 -6.41027e-19 5.65022)
(8.06334 -5.77374e-19 5.429)
(7.68417 -6.38331e-19 6.2869)
(7.95562 -6.54381e-19 6.02882)
(7.54279 -6.30017e-19 7.01149)
(7.8565 0 6.70714)
(7.39042 1.18376e-18 7.85426)
(7.79301 4.43909e-19 7.47959)
(7.21496 2.42232e-18 8.86534)
(7.69567 -8.96759e-19 8.40944)
(6.97123 1.01712e-18 10.5321)
(8.05348 1.61695e-18 9.50499)
(7.76354 1.61625e-19 12.4441)
(0.427904 0 -0.185165)
(0.206189 1.92461e-18 -0.306805)
(0.674266 0 -0.0819602)
(0.409769 -9.0128e-19 -0.15769)
(0.810776 1.91319e-19 -0.0180082)
(0.498702 -9.3188e-19 -0.0769286)
(0.833112 1.04376e-20 0.0190773)
(0.48722 2.53456e-19 -0.0102695)
(0.735004 -3.83247e-19 0.0519723)
(0.367064 9.65054e-19 0.0549454)
(0.523381 3.14157e-21 0.0837351)
(0.137061 -6.20792e-19 0.117275)
(0.216617 9.71092e-20 0.110001)
(-0.187547 5.63779e-19 0.172548)
(-0.160037 2.4173e-21 0.128711)
(-0.584525 -4.66144e-19 0.216462)
(-0.584497 4.82337e-20 0.140695)
(-1.03009 9.33535e-20 0.249452)
(-1.50866 -1.70925e-19 0.273451)
(0.0711974 1.1522e-18 -0.268147)
(-0.0146991 3.76978e-18 -0.403165)
(0.163872 -1.83919e-18 -0.132343)
(0.0149053 6.44476e-19 -0.195527)
(0.140295 -9.25189e-19 -0.0293894)
(-0.0342359 -2.50027e-18 -0.0452442)
(-0.00347352 1.19803e-18 0.0691849)
(-0.185729 -6.80515e-19 0.0852485)
(-0.253423 7.33031e-19 0.162444)
(-0.43503 2.70656e-18 0.204027)
(-0.591385 -5.42865e-20 0.245495)
(-0.773953 -1.14965e-18 0.312647)
(-0.998259 -6.03761e-21 0.315281)
(-1.18421 -2.69007e-19 0.407337)
(-1.45741 -3.72057e-19 0.370548)
(-1.64753 3.40752e-21 0.484124)
(-1.95282 -1.26699e-19 0.412179)
(-2.1483 3.59267e-19 0.542492)
(-2.67173 4.33643e-20 0.583279)
(-0.152152 3.41114e-18 -0.25493)
(-0.106513 -1.01532e-19 -0.357185)
(-0.224052 1.43106e-19 -0.0707647)
(-0.257813 1.78389e-18 -0.102326)
(-0.381988 -2.32306e-18 0.0896609)
(-0.42613 8.91181e-20 0.0881738)
(-0.633355 7.79525e-19 0.235393)
(-0.678527 -2.44102e-18 0.260698)
(-0.971903 8.28863e-19 0.368633)
(-1.01305 1.54717e-18 0.419615)
(-1.38097 -1.36252e-18 0.486901)
(-1.41845 -1.47253e-18 0.563046)
(-1.84293 -2.60408e-19 0.586068)
(-1.87829 1.39062e-20 0.686452)
(-2.34315 7.40959e-19 0.663971)
(-2.37724 3.8129e-19 0.786302)
(-2.86813 5.30049e-19 0.720411)
(-2.90265 1.63737e-20 0.861631)
(-3.44269 1.63691e-20 0.912637)
(-0.273289 -1.80594e-18 -0.127008)
(-0.124811 -5.88811e-18 -0.195995)
(-0.468419 1.84511e-18 0.0934159)
(-0.400228 2.27045e-19 0.0917483)
(-0.731283 2.73595e-20 0.286761)
(-0.667221 3.34745e-18 0.30513)
(-1.06762 -1.7126e-18 0.466207)
(-1.00367 -3.31041e-18 0.506438)
(-1.47029 -7.56069e-19 0.630195)
(-1.4022 3.14456e-18 0.692381)
(-1.9255 -9.02889e-20 0.774324)
(-1.85279 -1.64005e-18 0.858743)
(-2.41929 6.58132e-19 0.894516)
(-2.34243 6.44613e-19 1.0007)
(-2.94005 -3.47185e-19 0.988573)
(-2.85952 -2.1396e-20 1.11494)
(-3.47733 -4.99022e-19 1.05593)
(-3.39451 -1.05968e-18 1.20027)
(-3.93868 -1.55127e-19 1.2564)
(-0.300464 -4.23734e-18 0.0948896)
(-0.0797402 -1.9394e-18 0.0603616)
(-0.592983 1.65704e-18 0.336673)
(-0.437692 -1.76603e-18 0.365171)
(-0.942062 1.16371e-19 0.551416)
(-0.788965 -2.50729e-21 0.593513)
(-1.34392 1.5132e-18 0.752979)
(-1.19142 3.87074e-20 0.811749)
(-1.79209 2.26346e-18 0.936336)
(-1.63595 3.14062e-18 1.01274)
(-2.27639 -8.97556e-19 1.09627)
(-2.11532 -2.23204e-18 1.19143)
(-2.78703 -3.82685e-20 1.22881)
(-2.62038 2.26188e-18 1.34303)
(-3.31565 -7.38593e-19 1.33168)
(-3.14339 1.39143e-19 1.46439)
(-3.85492 -7.13746e-19 1.40395)
(-3.67797 -1.4303e-18 1.55409)
(-4.21815 -1.66575e-19 1.61143)
(-0.248469 5.0997e-19 0.389167)
(0.016709 2.13394e-18 0.394194)
(-0.622243 -3.46348e-18 0.647972)
(-0.39422 -1.77611e-18 0.706304)
(-1.03854 -7.63256e-20 0.874524)
(-0.812966 1.73231e-20 0.93998)
(-1.48739 1.6429e-18 1.08712)
(-1.26274 -2.85277e-20 1.1641)
(-1.96462 -1.35415e-18 1.2795)
(-1.73641 -6.21842e-21 1.36998)
(-2.46381 9.40417e-19 1.44641)
(-2.22987 -1.4441e-18 1.55224)
(-2.97921 2.43753e-18 1.58405)
(-2.73802 3.03736e-18 1.70639)
(-3.50579 -5.56867e-19 1.69009)
(-3.25679 -7.73015e-19 1.82922)
(-4.03905 -8.82753e-19 1.76327)
(-3.78288 -5.40542e-19 1.91906)
(-4.31266 -8.17022e-19 1.97477)
(-0.138076 1.34276e-19 0.745612)
(0.154615 2.0352e-18 0.789415)
(-0.57371 1.68756e-18 1.01561)
(-0.287299 -1.78014e-18 1.10095)
(-1.03756 5.56493e-20 1.24344)
(-0.754679 3.33629e-18 1.32934)
(-1.51533 -1.67294e-18 1.45724)
(-1.23264 -1.66974e-18 1.54988)
(-2.00594 -9.89107e-20 1.65013)
(-1.71865 0 1.7525)
(-2.50693 6.58764e-19 1.81707)
(-2.21208 -1.99296e-19 1.93174)
(-3.01638 -1.79569e-19 1.95435)
(-2.71193 -1.00274e-20 2.08333)
(-3.53242 -7.59386e-19 2.05948)
(-3.21748 -9.09962e-19 2.20382)
(-4.05305 -4.73118e-19 2.13081)
(-3.72805 5.4395e-19 2.29113)
(-4.24202 -4.84246e-19 2.34346)
(0.0154816 3.41445e-19 1.15507)
(0.327321 2.03638e-18 1.22641)
(-0.460609 -1.69217e-19 1.4239)
(-0.129755 -2.15723e-19 1.53062)
(-0.95167 1.63314e-18 1.64335)
(-0.62606 -2.55323e-20 1.74527)
(-1.43987 0 1.85043)
(-1.11189 0 1.95466)
(-1.92824 -1.0065e-19 2.03753)
(-1.59299 0 2.14822)
(-2.41848 -8.66822e-19 2.1998)
(-2.07248 -1.4122e-18 2.32022)
(-2.91217 -7.40977e-19 2.33331)
(-2.55318 8.32884e-19 2.46627)
(-3.41017 3.93907e-19 2.43507)
(-3.03741 2.50832e-20 2.58248)
(-3.91227 5.36303e-19 2.50286)
(-3.52623 7.24694e-19 2.66602)
(-4.01952 1.67729e-19 2.71439)
(0.199869 1.61285e-18 1.59732)
(0.529687 -2.02814e-18 1.68378)
(-0.293806 -7.60735e-20 1.85498)
(0.0682815 1.57473e-18 1.97596)
(-0.790154 -1.64976e-18 2.05837)
(-0.436249 1.42733e-19 2.17048)
(-1.26937 0 2.25323)
(-0.908058 0 2.36346)
(-1.73967 -1.31206e-18 2.43069)
(-1.36642 -1.07812e-19 2.54475)
(-2.207 2.85734e-19 2.58573)
(-1.81823 -1.5195e-18 2.70792)
(-2.67582 1.6031e-18 2.71403)
(-2.2696 2.38717e-18 2.84766)
(-3.149 3.54894e-19 2.81173)
(-2.72505 -7.74113e-19 2.95956)
(-3.62741 3.58374e-19 2.87568)
(-3.1866 1.76966e-19 3.03948)
(-3.65498 -6.49698e-19 3.08437)
(0.406119 -2.29642e-18 2.05253)
(0.759161 -1.37047e-19 2.14012)
(-0.0817785 1.78932e-18 2.28977)
(0.298263 -1.59074e-18 2.41743)
(-0.559467 1.78169e-18 2.47168)
(-0.191945 1.78736e-18 2.58669)
(-1.00929 -1.08e-19 2.65159)
(-0.625855 1.12975e-19 2.76076)
(-1.44569 -3.16667e-19 2.81858)
(-1.04356 3.30382e-21 2.92957)
(-1.87862 5.76644e-19 2.96649)
(-1.45436 -2.08982e-19 3.08519)
(-2.3143 1.89403e-20 3.09003)
(-1.86715 5.85702e-19 3.22014)
(-2.7565 -9.58206e-19 3.18446)
(-2.28712 -1.52885e-18 3.32928)
(-3.20672 -8.27078e-19 3.24561)
(-2.71659 3.76612e-19 3.40718)
(-3.15646 -6.5173e-19 3.45015)
(0.625157 6.88781e-19 2.50032)
(1.01395 2.08676e-18 2.57235)
(0.169133 -1.58702e-18 2.70848)
(0.553559 -3.51166e-18 2.83382)
(-0.26315 1.13619e-19 2.86592)
(0.10226 1.88262e-18 2.97385)
(-0.662555 2.23168e-19 3.03128)
(-0.267215 -1.20797e-19 3.13042)
(-1.05002 1.10553e-19 3.18993)
(-0.62704 1.10398e-19 3.29025)
(-1.43797 -2.02335e-19 3.33363)
(-0.984784 -2.1733e-19 3.44242)
(-1.8332 -9.5365e-19 3.45499)
(-1.35093 6.08543e-19 3.57632)
(-2.23924 -2.04192e-19 3.54834)
(-1.72986 -1.54674e-18 3.6858)
(-2.65749 5.62427e-19 3.60874)
(-2.12338 7.40525e-19 3.76454)
(-2.53176 0 3.8082)
(0.849191 -1.7778e-18 2.91784)
(1.2933 -2.79531e-21 2.95433)
(0.455208 -2.61282e-20 3.0891)
(0.831045 -1.90576e-18 3.20115)
(0.0983328 1.63122e-18 3.22234)
(0.443453 1.87872e-18 3.30872)
(-0.229639 -2.32353e-19 3.37833)
(0.168251 1.27834e-19 3.45516)
(-0.555157 -2.16563e-19 3.53419)
(-0.118315 -9.166e-19 3.61447)
(-0.889392 5.87446e-19 3.67872)
(-0.413403 2.71234e-20 3.76987)
(-1.2383 3.07499e-20 3.80229)
(-0.726731 1.87417e-18 3.90863)
(-1.60415 -6.20379e-19 3.89824)
(-1.06052 -5.98531e-19 4.02321)
(-1.98752 1.83844e-19 3.961)
(-1.4152 1.82365e-19 4.10686)
(-1.78972 -1.67163e-19 4.15457)
(1.07135 -6.54486e-20 3.27693)
(1.58636 -6.35476e-20 3.26335)
(0.777039 2.13664e-23 3.40336)
(1.13343 -1.92025e-18 3.48826)
(0.527761 3.61359e-19 3.51844)
(0.834658 1.99851e-18 3.56318)
(0.290115 -5.53779e-19 3.67874)
(0.681866 1.166e-19 3.71633)
(0.0360624 -6.74455e-19 3.84185)
(0.481669 -1.15781e-18 3.89001)
(-0.238464 1.3048e-18 3.99387)
(0.256185 9.04639e-19 4.05782)
(-0.537157 1.26742e-18 4.12516)
(-0.00200797 2.03933e-19 4.20955)
(-0.860011 1.9852e-19 4.22855)
(-0.288478 -1.04393e-21 4.33558)
(-1.20616 -1.65616e-19 4.29778)
(-0.602304 -3.56004e-19 4.42918)
(-0.940907 5.1528e-19 4.48482)
(1.27988 -1.87413e-18 3.55145)
(1.87809 1.22125e-18 3.49427)
(1.15078 7.72312e-20 3.62978)
(1.45131 -2.93358e-18 3.63121)
(1.0331 1.76837e-18 3.73638)
(1.28842 3.14192e-18 3.70752)
(0.895428 -4.81112e-19 3.9165)
(1.26786 -4.89351e-19 3.896)
(0.720096 4.14434e-19 4.10017)
(1.16296 -6.21933e-21 4.10251)
(0.508038 -1.91487e-19 4.2711)
(1.01051 8.85109e-19 4.29765)
(0.260656 -1.06997e-18 4.41902)
(0.811746 -6.65428e-19 4.47313)
(-0.0179861 -5.53381e-19 4.5354)
(0.575601 -6.00578e-19 4.61767)
(-0.325135 3.17444e-19 4.61509)
(0.305514 -3.57673e-19 4.7266)
(0.00603808 5.17258e-19 4.79416)
(1.45602 4.0144e-19 3.53827)
(1.1754 -1.7451e-19 3.49399)
(1.60712 1.87883e-19 3.70022)
(1.6511 -4.98104e-19 3.50817)
(1.60566 8.89992e-19 3.871)
(1.77652 1.49791e-18 3.74705)
(1.56312 -1.67754e-20 4.08266)
(1.89871 -4.80381e-19 3.98221)
(1.47226 4.5611e-19 4.29889)
(1.90671 2.39061e-19 4.23536)
(1.32945 4.24176e-19 4.49891)
(1.8355 8.4404e-19 4.47558)
(1.14077 -1.96202e-19 4.6712)
(1.7029 1.5957e-21 4.68725)
(0.911861 -4.07656e-19 4.80835)
(1.5211 -7.67604e-19 4.8606)
(0.648044 -1.66974e-19 4.90558)
(1.29841 3.48615e-19 4.99224)
(8.37621 3.09043e-19 4.72824)
(8.55835 -2.3546e-18 4.54138)
(8.27917 9.14154e-19 5.23754)
(8.47738 1.53136e-18 5.02287)
(8.19317 -5.88622e-19 5.80619)
(8.40954 -1.14037e-18 5.55646)
(8.12471 0 6.4444)
(8.36283 1.10965e-18 6.14922)
(8.08492 1.11861e-18 7.16685)
(8.34561 5.34518e-19 6.80964)
(8.09287 -1.6827e-18 8.00107)
(8.39722 6.02453e-19 7.54559)
(8.20872 -1.93572e-18 8.98117)
(8.48145 -2.80468e-18 8.38391)
(8.68566 3.01625e-19 10.7776)
(9.07351 1.12068e-18 9.20565)
(9.70324 -8.04364e-19 10.0325)
(12.1184 5.40731e-18 11.4024)
(8.65785 -1.14612e-18 4.83715)
(8.82268 -1.7048e-18 4.63458)
(8.60495 -5.52799e-19 5.3423)
(8.78077 1.61043e-18 5.10989)
(8.57347 5.77205e-19 5.89948)
(8.75939 -1.61256e-18 5.62997)
(8.57485 1.66371e-18 6.51374)
(8.76821 1.68419e-18 6.19709)
(8.62957 -1.46379e-21 7.18882)
(8.81816 1.06071e-18 6.81043)
(8.77774 -5.20975e-19 7.92317)
(8.94458 -5.46691e-19 7.4588)
(9.1198 0 8.68092)
(9.10977 -3.03273e-20 8.11298)
(9.686 6.8433e-19 9.52834)
(9.50848 7.55434e-19 8.70998)
(10.0615 -4.78766e-20 9.63921)
(10.1409 -1.28085e-18 8.78712)
(8.94383 1.09612e-18 4.90855)
(9.08949 -2.10003e-18 4.69357)
(8.93248 5.47144e-19 5.39911)
(9.08399 2.17098e-18 5.15453)
(8.94937 -5.11806e-19 5.93076)
(9.10352 -1.08373e-18 5.65099)
(9.00601 1.06399e-18 6.50188)
(9.15684 5.59238e-19 6.18095)
(9.11816 5.10781e-19 7.10482)
(9.2519 1.03045e-18 6.73824)
(9.30095 -3.38654e-20 7.71692)
(9.41013 -2.58645e-21 7.31033)
(9.55869 7.56113e-19 8.30058)
(9.60224 -3.1134e-20 7.87524)
(9.82853 1.68685e-20 8.88405)
(9.87656 7.48869e-19 8.43703)
(10.344 -5.3267e-19 9.1559)
(10.3201 4.13281e-19 8.92573)
(9.22831 -1.0335e-18 4.94198)
(9.25339 5.18045e-19 5.41017)
(9.38109 3.89251e-20 5.15934)
(9.30887 1.96728e-21 5.9081)
(9.43476 2.52521e-19 5.62668)
(9.40283 5.20782e-19 6.43045)
(9.5218 -9.70106e-19 6.11671)
(9.54284 5.04961e-19 6.9671)
(9.64714 7.6513e-19 6.62266)
(9.7319 0 7.49837)
(9.8225 0 7.13559)
(9.96804 -1.46005e-20 8.01044)
(10.0365 2.35765e-19 7.63718)
(10.2641 2.32081e-19 8.55165)
(10.2932 -1.44308e-20 8.11712)
(10.7031 -1.97005e-20 8.62436)
(10.7534 -1.00153e-18 8.88272)
(9.5622 -2.34707e-19 5.38105)
(9.64783 -7.45068e-19 5.843)
(9.7686 -7.19492e-19 6.31937)
(9.86253 -8.13644e-19 6.01583)
(9.9291 2.44268e-19 6.80189)
(10.0101 7.7418e-20 6.47462)
(10.133 2.43362e-19 7.27717)
(10.1983 0 6.93303)
(10.3811 2.33201e-19 7.73435)
(10.4245 9.08279e-21 7.37477)
(10.6753 -2.40906e-19 8.19346)
(10.6774 0 7.78753)
(11.0273 -2.37448e-19 8.20536)
(11.0413 -9.44458e-19 8.51794)
(10.1072 4.6554e-21 6.17888)
(10.2831 -1.73046e-19 6.61371)
(10.4953 -2.39957e-19 7.03869)
(10.539 -2.23526e-19 6.7116)
(10.74 -2.30427e-19 7.44231)
(10.7671 4.33629e-19 7.10595)
(11.0097 0 7.82961)
(11.0136 -4.54262e-19 7.47607)
(11.3272 3.22422e-19 7.84036)
(11.3176 -1.04364e-18 8.12279)
(10.8182 4.70306e-19 6.78818)
(11.0569 1.95963e-19 7.14971)
(11.3145 -1.15749e-19 7.49284)
(11.3157 -6.76139e-19 7.17081)
(11.611 1.30337e-18 7.4933)
(11.5996 -8.34851e-19 7.76121)
(11.5965 7.89367e-19 7.17081)
(11.8667 -3.75184e-19 7.41546)
(6.98347 2.7025e-18 9.03965)
(9.81406 7.15157e-19 7.84681)
(3.61702 -8.12288e-19 6.86042)
(7.74457 -5.8538e-19 5.9628)
(4.90502 9.70982e-19 4.68379)
(1.45183 -9.84121e-19 5.02075)
(9.51666 -9.52507e-19 7.44271)
(10.2542 -5.88397e-19 9.18268)
(8.55411 1.22017e-18 6.20428)
(9.80878 -1.33425e-19 7.99211)
(8.96909 9.43213e-19 6.93508)
(7.43973 1.25877e-18 5.24306)
(10.4337 4.27867e-19 8.50944)
(10.6102 -1.09392e-19 8.98171)
(10.1795 -2.05171e-19 7.89326)
(10.6445 -8.90241e-19 8.57269)
(10.4217 7.91683e-19 8.06375)
(9.67419 1.51383e-19 7.17012)
(10.879 -1.51235e-18 8.83035)
(10.9463 -1.42879e-18 8.70019)
(10.8514 1.15279e-19 8.60686)
(11.077 1.75146e-21 8.64362)
(11.0719 8.11981e-19 8.4764)
(10.6787 7.83038e-19 8.18635)
(11.1845 1.34284e-19 8.5822)
(11.2335 -1.36246e-18 8.36283)
(11.2691 6.96159e-19 8.57258)
(11.393 1.48411e-18 8.44167)
(11.4858 -9.37186e-20 8.44976)
(11.2817 2.10052e-19 8.41713)
(11.4676 2.80633e-20 8.23094)
(11.512 -1.55615e-18 7.9984)
(11.5965 6.85774e-19 8.31995)
(11.6771 8.4077e-19 8.12246)
(11.8041 8.74054e-20 8.2113)
(11.6931 -1.95172e-19 8.32516)
(11.7431 -7.25134e-19 7.87892)
(11.7833 -1.53997e-18 7.63995)
(11.8809 2.32856e-19 8.00107)
(11.9435 2.13405e-21 7.77241)
(12.0758 8.06671e-19 7.88934)
(12.0073 2.47294e-19 8.08677)
(12.0029 -8.01347e-19 7.5283)
(12.1388 5.82284e-19 7.65429)
(12.1912 -6.08723e-20 7.41947)
(12.3207 -7.14331e-20 7.5398)
(12.2726 5.7065e-19 7.77313)
(12.3752 -7.29934e-19 7.3006)
(12.5082 -9.55598e-19 7.42804)
(1.67244 -5.12463e-19 3.27612)
(3.16123 -1.41826e-18 3.33016)
(1.92051 8.94396e-19 3.47436)
(3.23476 3.85993e-19 3.23265)
(2.15606 1.10011e-19 3.81028)
(2.92208 3.7634e-19 3.52608)
(2.28052 -2.39999e-19 4.12735)
(2.82813 -2.40901e-19 3.89162)
(2.30063 6.23211e-19 4.41743)
(2.81019 2.09604e-19 4.25654)
(2.23813 4.31363e-19 4.67106)
(2.77273 3.98628e-20 4.57886)
(2.11293 -5.70217e-19 4.88296)
(2.69035 -1.12557e-19 4.84813)
(1.93792 -1.52733e-20 5.0503)
(2.56045 -3.69418e-19 5.06353)
(2.3876 6.83089e-19 5.22665)
(5.43194 -1.7648e-19 4.00416)
(7.5263 2.27456e-19 5.52113)
(4.20844 -1.64302e-19 3.66619)
(6.23527 4.99555e-20 4.58099)
(3.61477 1.48608e-20 3.77881)
(5.09743 -1.08782e-19 4.18922)
(3.38227 2.10703e-19 4.09251)
(4.41708 -1.329e-20 4.16846)
(3.30081 -3.90955e-19 4.44835)
(4.07679 3.16059e-19 4.3763)
(3.24303 -5.22023e-19 4.77147)
(3.90072 -7.21229e-19 4.67461)
(3.15748 1.01303e-19 5.03855)
(3.78308 1.00351e-19 4.97016)
(3.03108 3.2261e-19 5.24708)
(3.669 0 5.22251)
(3.5338 1.75137e-19 5.41964)
(8.32962 4.49386e-19 5.85728)
(9.64272 -2.17406e-19 7.03849)
(6.98232 1.0735e-19 5.04392)
(8.61426 2.225e-19 6.08796)
(5.89317 -1.3944e-19 4.59438)
(7.45644 -1.26586e-19 5.39997)
(5.14191 8.70055e-20 4.48862)
(6.47545 4.82697e-20 4.99945)
(4.69766 3.3255e-21 4.63048)
(5.78191 5.40279e-20 4.87127)
(4.45707 -1.01501e-19 4.8891)
(5.33679 -1.24026e-19 4.95289)
(4.31201 -2.4442e-22 5.16311)
(5.06277 1.50822e-19 5.14899)
(4.19097 -1.57099e-19 5.40108)
(4.88445 3.69877e-20 5.37575)
(4.74403 -2.38257e-19 5.58151)
(9.96745 -4.36416e-19 7.19939)
(10.7663 -1.33876e-19 7.87196)
(9.02501 0 6.39594)
(10.1692 0 7.16457)
(8.04091 6.17187e-20 5.76286)
(9.34451 0 6.51067)
(7.15204 1.3587e-20 5.35374)
(8.47022 6.29862e-20 5.99118)
(6.45089 -7.26211e-20 5.18192)
(7.68086 -5.02566e-20 5.64613)
(5.96424 1.28599e-19 5.21045)
(7.04519 -2.30741e-20 5.48951)
(5.65496 1.919e-19 5.36224)
(6.58211 1.55251e-19 5.49481)
(5.45731 -3.95559e-20 5.55755)
(6.26833 3.8027e-20 5.60462)
(6.05707 -8.25211e-21 5.75664)
(11.004 3.174e-19 7.87467)
(11.4693 2.18819e-19 8.20719)
(10.4726 0 7.30029)
(11.2123 2.8429e-19 7.78421)
(9.78103 0 6.74705)
(10.7372 -3.81608e-19 7.30554)
(9.0269 0 6.28095)
(10.1236 2.24516e-20 6.84672)
(8.30411 0 5.94662)
(9.45873 0 6.45582)
(7.6889 0 5.7676)
(8.81878 2.04364e-20 6.17146)
(7.21948 0 5.73331)
(8.26498 0 6.01266)
(6.89063 7.13251e-20 5.80169)
(7.83051 -3.52971e-20 5.96982)
(7.51457 3.9752e-20 6.00979)
(11.6916 1.82915e-19 8.1288)
(11.9376 -1.04234e-19 8.21118)
(11.4794 -9.366e-20 7.80474)
(11.9133 4.82252e-19 8.03689)
(11.0899 -3.66447e-19 7.42081)
(11.7237 -4.36618e-19 7.76234)
(10.5752 2.2917e-20 7.03356)
(11.3844 2.32179e-20 7.4421)
(9.99661 2.05318e-20 6.68694)
(10.9367 0 7.11632)
(9.41927 2.08968e-20 6.41779)
(10.4326 1.50076e-21 6.82225)
(8.90112 -3.54392e-20 6.24773)
(9.92672 0 6.59079)
(8.47908 -6.91425e-20 6.17585)
(9.46783 3.06876e-20 6.43842)
(9.08745 -3.80209e-20 6.36309)
(12.1596 1.92039e-19 8.1146)
(12.2747 -4.02193e-19 8.02157)
(12.1684 1.48477e-19 7.99733)
(12.3922 1.02122e-19 8.02588)
(12.0293 -4.62863e-20 7.79136)
(12.4077 -2.60339e-21 7.92899)
(11.76 1.69547e-22 7.53458)
(12.2994 -4.17021e-20 7.76066)
(11.3906 -1.95273e-20 7.26057)
(12.076 0 7.54755)
(10.9609 -1.9864e-20 7.0015)
(11.7644 -1.99424e-20 7.31717)
(10.5165 6.7213e-20 6.78449)
(11.3994 1.36893e-19 7.09662)
(10.1004 6.42903e-20 6.62617)
(11.0193 6.08358e-20 6.90789)
(10.6602 -1.92363e-19 6.76367)
(12.4994 -5.03472e-19 7.92736)
(12.5423 -4.12006e-19 7.7311)
(12.6453 -5.06047e-20 7.95699)
(12.7359 -4.55704e-19 7.84333)
(12.6887 2.8369e-21 7.90165)
(12.8832 4.0011e-19 7.87597)
(12.6253 -4.27549e-20 7.77978)
(12.9456 2.97659e-19 7.8382)
(12.4629 0 7.61171)
(12.9122 -6.12672e-19 7.74264)
(12.2196 1.37491e-19 7.41975)
(12.7914 2.97758e-19 7.60537)
(11.9217 1.32238e-19 7.22606)
(12.5997 2.3857e-19 7.44484)
(11.6007 -1.96621e-19 7.04933)
(12.3595 -1.38977e-19 7.27914)
(12.0971 -7.48297e-20 7.12313)
(12.7657 -3.62015e-19 7.6409)
(12.9877 -7.3937e-21 7.75977)
(12.999 -3.81959e-19 7.55949)
(13.1501 7.04335e-19 7.81284)
(13.2218 -3.18657e-19 7.67269)
(13.239 -2.67781e-19 7.80397)
(13.3972 6.78009e-19 7.72992)
(13.2493 -3.26877e-19 7.7413)
(13.5056 -6.32838e-19 7.73308)
(13.1837 4.02671e-19 7.63672)
(13.5441 2.96433e-19 7.68829)
(13.0528 -3.10645e-20 7.50443)
(13.5168 1.50271e-19 7.60506)
(12.8736 -1.51879e-20 7.35878)
(13.4325 -1.34288e-19 7.49473)
(13.3052 2.85896e-19 7.36868)
(13.2459 -7.01735e-19 7.46786)
(13.4776 -3.64043e-19 7.58724)
(13.6677 3.3088e-19 7.65866)
(13.8055 -1.37621e-20 7.68189)
(13.9178 -1.41616e-20 7.56552)
(13.8854 4.08339e-20 7.66028)
(14.0742 -2.72559e-19 7.59596)
(13.9075 5.08045e-20 7.60025)
(14.181 2.86323e-19 7.58567)
(13.8774 1.6522e-19 7.5101)
(14.238 0 7.53949)
(14.2494 1.97173e-19 7.46373)
(14.1889 -2.74041e-19 7.47841)
(14.3746 -3.27895e-20 7.52202)
(14.5185 2.40314e-19 7.5272)
(14.6397 5.21233e-19 7.41664)
(14.6191 2.84843e-20 7.49667)
(14.8082 0 7.42773)
(14.9396 2.16834e-19 7.40501)
(14.9332 2.86015e-19 7.31674)
(15.1342 1.8838e-19 7.33708)
(15.4116 4.34134e-19 7.21168)
)
;

boundaryField
{
    inlet
    {
        type            calculated;
        value           nonuniform 0();
    }
    outlet
    {
        type            calculated;
        value           nonuniform 0();
    }
    flap
    {
        type            calculated;
        value           nonuniform List<vector> 
33
(
(-6.44213e-16 -2.77556e-14 -6.14376e-15)
(0 0 0)
(-8.18324e-15 -2.77556e-14 -2.44339e-14)
(2.49812e-16 2.77556e-14 6.09055e-16)
(0 0 0)
(0 0 0)
(-4.67831e-14 0 -9.47804e-14)
(0 0 0)
(0 0 0)
(0 0 0)
(-4.8242e-15 0 -1.05179e-14)
(0 0 0)
(-4.07104e-14 0 -9.32491e-14)
(-4.0256e-14 1.18707e-31 -9.37334e-14)
(-8.91526e-14 -5.55112e-14 -2.07597e-13)
(6.22329e-15 2.77556e-14 -2.69727e-15)
(4.70669e-14 0 -1.99361e-14)
(-4.67073e-14 0 2.02782e-14)
(0 2.77556e-14 0)
(-7.22472e-16 1.99528e-32 -3.08291e-15)
(-8.43041e-15 -2.77556e-14 -2.49014e-14)
(-2.00814e-15 2.77556e-14 -4.8822e-15)
(-2.10916e-14 6.39723e-32 -4.57976e-14)
(0 0 0)
(-2.20376e-14 0 -4.46291e-14)
(-5.34481e-15 6.68385e-32 -1.09445e-14)
(-5.18577e-15 -2.77556e-14 -1.08186e-14)
(0 0 0)
(0 -2.77556e-14 0)
(-5.06413e-14 0 -1.13201e-13)
(0 0 0)
(0 0 0)
(-8.68245e-15 0 -2.0164e-14)
)
;
    }
    upperWall
    {
        type            calculated;
        value           nonuniform 0();
    }
    lowerWall
    {
        type            calculated;
        value           uniform (0 0 0);
    }
    frontAndBack
    {
        type            empty;
        value           nonuniform 0();
    }
    procBoundary4to1
    {
        type            processor;
        value           nonuniform List<vector> 
30
(
(9.35411 -1.09723e-18 4.71855)
(9.50637 -7.28678e-21 4.93952)
(9.66792 -5.03188e-19 5.12871)
(9.74958 4.94845e-19 5.56499)
(9.96577 4.24483e-19 5.74464)
(10.1791 1.84809e-19 5.88565)
(10.3426 -1.81741e-19 6.3012)
(10.6041 -2.33218e-19 6.40715)
(10.8473 -6.48716e-21 6.47929)
(11.0739 9.06119e-19 6.83517)
(11.3453 -5.15514e-22 6.85995)
(11.59 -2.91078e-21 6.86602)
(11.8738 5.81731e-19 7.15648)
(12.0373 -8.00026e-19 7.29202)
(12.2431 -4.86218e-20 7.18045)
(12.419 6.77126e-19 7.06938)
(12.5444 -1.41295e-18 7.18419)
(12.7703 -3.73828e-19 7.39325)
(12.9873 -3.89604e-19 7.30437)
(13.2124 3.90969e-19 7.22153)
(13.4726 -6.99259e-19 7.37603)
(13.7148 3.37049e-19 7.49199)
(13.967 -9.3797e-21 7.39584)
(14.2021 -3.15885e-20 7.28781)
(14.4361 -2.87432e-19 7.36998)
(14.7034 2.63363e-19 7.26262)
(14.9434 2.74483e-19 7.1362)
(15.1895 -2.43941e-19 7.18979)
(15.4695 -6.51936e-21 7.06292)
(15.7118 2.4792e-19 6.91429)
)
;
    }
    procBoundary4to2
    {
        type            processor;
        value           nonuniform List<vector> 
11
(
(4.05899 1.2137e-19 5.58441)
(5.31172 -1.31528e-20 5.74032)
(6.66809 2.03472e-19 5.91825)
(8.16243 -1.90957e-19 6.17957)
(9.74405 5.72282e-20 6.52903)
(11.2878 -8.32224e-20 6.90164)
(12.6675 -3.9038e-20 7.2121)
(13.8056 4.40747e-19 7.39852)
(14.6787 -2.35283e-20 7.43465)
(15.3035 4.5532e-19 7.324)