/*--------------------------------*- C++ -*----------------------------------*\
| =========                 |                                                 |
| \\      /  F ield         | OpenFOAM: The Open Source CFD Toolbox           |
|  \\    /   O peration     | Version:  dev                                   |
|   \\  /    A nd           | Web:      www.OpenFOAM.org                      |
|    \\/     M anipulation  |                                                 |
\*---------------------------------------------------------------------------*/
FoamFile
{
    version     2.0;
    format      ascii;
    class       volScalarField;
    location    "1.8";
    object      p;
}
// * * * * * * * * * * * * * * * * * * * * * * * * * * * * * * * * * * * * * //

dimensions      [0 2 -2 0 0 0 0];

internalField   nonuniform List<scalar> 
2790
(
71.1311
70.9445
71.0315
71.3384
71.7732
72.3063
72.9377
73.6701
74.5041
75.4402
76.4798
77.6249
78.8779
80.2416
81.7182
83.3094
85.0162
86.8383
88.7732
90.8154
92.9551
95.1765
97.4566
99.7626
102.05
104.26
106.32
108.14
109.609
110.572
70.9814
70.8897
70.9969
71.3021
71.735
72.2669
72.896
73.6249
74.4544
75.385
76.4179
77.5551
78.7991
80.1522
81.6165
83.1937
84.8847
86.6891
88.6045
90.6257
92.7435
94.9431
97.2029
99.4923
101.769
103.978
106.048
107.892
109.407
110.505
70.8454
70.8274
70.9528
71.2504
71.6753
72.2002
72.8211
73.5396
74.3566
75.2723
76.2878
77.4045
78.6243
79.9489
81.3797
82.9175
84.5623
86.3125
88.1649
90.1132
92.1472
94.2517
96.4049
98.5761
100.724
102.791
104.705
106.364
107.61
107.983
70.7105
70.7314
70.871
71.1628
71.5788
72.095
72.7054
73.4106
74.2112
75.1074
76.0995
77.1885
78.3754
79.661
81.0456
82.5287
84.1086
85.7821
87.5437
89.3848
91.2927
93.2489
95.2283
97.1953
99.1003
100.873
102.408
103.529
104.019
102.293
70.5677
70.6095
70.7619
71.0506
71.4576
71.963
72.5598
73.2478
74.0275
74.8984
75.8606
76.9142
78.0593
79.2957
80.6222
82.0366
83.5354
85.113
86.7612
88.4681
90.2168
91.9837
93.7365
95.4299
96.998
98.3411
99.302
99.5617
99.0296
94.2276
70.4127
70.4663
70.6274
70.9129
71.3093
71.8007
72.3805
73.0477
73.8021
74.643
75.5696
76.5812
77.6771
78.8556
80.1142
81.4487
82.8533
84.3198
85.8366
87.3878
88.9515
90.4969
91.9822
93.3478
94.5052
95.3169
95.5696
94.7463
93.1945
85.0245
70.2432
70.3035
70.4693
70.7502
71.1347
71.6102
72.1703
72.8134
73.5388
74.3451
75.2309
76.1947
77.2345
78.3474
79.5292
80.7738
82.0729
83.4154
84.7861
86.1647
87.523
88.8227
90.0105
91.0101
91.7083
91.9264
91.4107
89.3885
86.973
75.6934
70.0582
70.122
70.2892
70.5639
70.9352
71.3926
71.9303
72.5463
73.2391
74.0067
74.847
75.7576
76.7352
77.7757
78.873
80.0191
81.2033
82.4115
83.6246
84.8174
85.9555
86.9923
87.8628
88.4739
88.6879
88.2868
87.0036
83.7592
80.6748
66.8685
69.8573
69.9227
70.0885
70.3553
70.7119
71.1493
71.6622
72.2482
72.9052
73.6304
74.421
75.2736
76.1839
77.1461
78.1526
79.1934
80.2552
81.3208
82.3676
83.3653
84.2734
85.0368
85.5795
85.793
85.5183
84.501
82.491
78.0736
74.4763
58.8431
69.6406
69.7062
69.8686
70.1256
70.4661
70.8817
71.3677
71.9211
72.5394
73.219
73.9563
74.747
75.5856
76.4648
77.3755
78.3055
79.2392
80.1564
81.0309
81.8279
82.5007
82.9868
83.1998
83.0175
82.2647
80.654
77.9762
72.4807
68.4351
51.6414
69.4085
69.4734
69.6307
69.8763
70.1992
70.5915
71.0486
71.5673
72.1443
72.7755
73.4565
74.182
74.9454
75.738
76.5489
77.3643
78.1661
78.9314
79.6307
80.2247
80.6616
80.872
80.7609
80.1944
78.9846
76.8146
73.5249
67.0676
62.5105
45.0706
69.1617
69.2252
69.3758
69.6087
69.9128
70.2803
70.7069
71.1889
71.7226
72.3032
72.9254
73.5831
74.2686
74.9718
75.6804
76.3788
77.0467
77.6589
78.1826
78.5748
78.7793
78.721
78.2976
77.3659
75.7279
73.0391
69.1726
61.8801
56.5982
38.7693
68.901
68.9623
69.1053
69.3243
69.6083
69.9499
70.3444
70.7882
71.2768
71.8049
72.3665
72.9546
73.5603
74.1726
74.7777
75.3581
75.8919
76.3517
76.7023
76.8971
76.8764
76.5609
75.8426
74.5706
72.5381
69.3749
64.9511
56.9626
50.6083
32.2521
68.6273
68.686
68.8203
69.0243
69.2873
69.6019
69.9632
70.3674
70.8096
71.284
71.7838
72.301
72.826
73.3466
73.8478
74.3108
74.712
75.0225
75.2043
75.2089
74.9739
74.417
73.4262
71.8444
69.4573
65.8754
60.9288
52.4034
44.5897
24.9096
68.3415
68.3973
68.5223
68.7104
68.9515
69.2381
69.5654
69.9291
70.3241
70.7439
71.1811
71.627
72.0711
72.5004
72.8987
73.2461
73.5181
73.6839
73.704
73.5284
73.0934
72.3146
71.0781
69.2241
66.5338
62.6138
57.2318
48.39
38.9574
15.9474
-3.38462
-3.37639
-3.38144
-3.41153
-3.48073
-3.57999
-3.68292
-3.77311
-3.84536
-3.89833
-3.9307
-3.94041
-3.92466
-3.88103
-3.80709
-3.69858
-3.55078
-3.36186
-3.13282
-2.86484
-2.55894
-2.21948
-1.85677
-1.48524
-1.11901
-0.770128
-0.451981
-0.184302
0.0049101
0.0907523
-3.39344
-3.38839
-3.39693
-3.42881
-3.49972
-3.59918
-3.70131
-3.79046
-3.86194
-3.91456
-3.94681
-3.95651
-3.94077
-3.89739
-3.82424
-3.71649
-3.56871
-3.37943
-3.15014
-2.88153
-2.5734
-2.22968
-1.86178
-1.4857
-1.11555
-0.761343
-0.434286
-0.153936
0.0456714
0.113505
-3.40725
-3.40541
-3.42032
-3.45719
-3.53201
-3.63164
-3.73167
-3.8184
-3.88798
-3.93936
-3.97097
-3.98036
-3.9643
-3.921
-3.84929
-3.74317
-3.59547
-3.40517
-3.17542
-2.90766
-2.59953
-2.2512
-1.87293
-1.48412
-1.10353
-0.743106
-0.414615
-0.137933
0.0548615
0.113932
-3.42587
-3.42681
-3.45081
-3.49531
-3.57486
-3.67354
-3.76967
-3.85222
-3.91847
-3.96763
-3.99815
-4.00712
-3.9904
-3.94633
-3.87564
-3.77208
-3.62569
-3.43346
-3.19777
-2.92315
-2.61312
-2.26873
-1.89529
-1.50713
-1.12411
-0.761853
-0.433601
-0.159979
0.0285903
0.0832567
-3.4497
-3.45246
-3.48771
-3.54091
-3.62385
-3.7192
-3.80934
-3.88591
-3.94748
-3.99377
-4.02295
-4.03166
-4.01468
-3.96901
-3.89635
-3.79239
-3.64788
-3.46049
-3.23175
-2.9604
-2.6481
-2.30195
-1.93008
-1.54594
-1.16583
-0.805476
-0.481287
-0.214375
-0.0340624
0.0240225
-3.47891
-3.48196
-3.52923
-3.59006
-3.67303
-3.76215
-3.84492
-3.91508
-3.97182
-4.01544
-4.04294
-4.0511
-4.03547
-3.99203
-3.92068
-3.81957
-3.68023
-3.49722
-3.27143
-3.00448
-2.69799
-2.35738
-1.99242
-1.61577
-1.24104
-0.884628
-0.56405
-0.299919
-0.117719
-0.0301843
-3.51343
-3.51415
-3.57202
-3.63715
-3.71638
-3.79727
-3.87335
-3.93981
-3.99491
-4.03752
-4.06362
-4.07052
-4.05695
-4.01964
-3.95433
-3.8568
-3.72229
-3.54653
-3.32859
-3.06952
-2.77184
-2.44058
-2.08511
-1.71668
-1.34789
-0.994989
-0.675283
-0.408802
-0.213804
-0.0729866
-3.55268
-3.54691
-3.61194
-3.67678
-3.75151
-3.82686
-3.89969
-3.9651
-4.01999
-4.06308
-4.09108
-4.09976
-4.08739
-4.05368
-3.99527
-3.9064
-3.78108
-3.61501
-3.40708
-3.15844
-2.87178
-2.55191
-2.20633
-1.8443
-1.47866
-1.125
-0.800314
-0.52337
-0.303693
-0.107173
-3.595
-3.57803
-3.64697
-3.71033
-3.78258
-3.85646
-3.92899
-3.99846
-4.05732
-4.10035
-4.12611
-4.13421
-4.12493
-4.09825
-4.05025
-3.97351
-3.86034
-3.70586
-3.50933
-3.27259
-2.99822
-2.6896
-2.3517
-1.99245
-1.62472
-1.26362
-0.926189
-0.630073
-0.378834
-0.133134
-3.63651
-3.60847
-3.68007
-3.74408
-3.81618
-3.89399
-3.97213
-4.04398
-4.10468
-4.14825
-4.17248
-4.17937
-4.17303
-4.15535
-4.12154
-4.06094
-3.96263
-3.82076
-3.6358
-3.41109
-3.14888
-2.8498
-2.51566
-2.1539
-1.77713
-1.40085
-1.04267
-0.720095
-0.435199
-0.150788
-3.67075
-3.64434
-3.71817
-3.78465
-3.86102
-3.94284
-4.02703
-4.10565
-4.16978
-4.21233
-4.23206
-4.23502
-4.23093
-4.22485
-4.21023
-4.17071
-4.08981
-3.96018
-3.78512
-3.57128
-3.32
-3.02786
-2.69302
-2.32185
-1.92781
-1.52809
-1.14178
-0.787552
-0.470377
-0.1598
-3.69571
-3.69426
-3.76695
-3.83606
-3.91711
-4.00854
-4.10275
-4.18911
-4.2559
-4.29433
-4.30446
-4.29842
-4.29481
-4.30403
-4.31613
-4.30465
-4.24363
-4.12361
-3.95402
-3.74838
-3.50716
-3.21993
-2.87943
-2.49048
-2.06958
-1.63787
-1.2171
-0.828139
-0.482148
-0.159561
-3.72205
-3.75969
-3.82969
-3.90281
-3.99361
-4.09752
-4.20357
-4.29767
-4.36509
-4.3945
-4.38696
-4.36328
-4.35688
-4.38734
-4.43817
-4.46528
-4.42661
-4.30967
-4.13699
-3.93543
-3.70531
-3.42374
-3.07207
-2.65483
-2.19562
-1.72293
-1.26268
-0.838141
-0.467986
-0.148964
-3.78292
-3.85324
-3.9178
-3.99562
-4.09647
-4.21465
-4.3321
-4.43187
-4.4969
-4.51148
-4.4749
-4.41928
-4.40423
-4.46597
-4.57506
-4.65707
-4.64323
-4.51582
-4.3238
-4.12225
-3.90994
-3.63841
-3.26897
-2.80969
-2.29819
-1.77509
-1.27208
-0.814097
-0.425356
-0.125574
-4.43371
-3.98099
-4.04599
-4.10749
-4.21403
-4.35031
-4.47708
-4.581
-4.64544
-4.64442
-4.56481
-4.45229
-4.41709
-4.5266
-4.72454
-4.88621
-4.89974
-4.73573
-4.49562
-4.29181
-4.11495
-3.86164
-3.46489
-2.94507
-2.36495
-1.78305
-1.23763
-0.75344
-0.354332
-0.0853796
68.0389
68.0915
68.2064
68.3777
68.5957
68.8533
69.1452
69.467
69.8133
70.1771
70.5502
70.9235
71.2857
71.623
71.9183
72.1508
72.2953
72.3198
72.1836
71.8364
71.2138
70.2314
68.776
66.6898
63.7578
59.6063
53.9614
45.1753
34.6948
4.73783
67.7162
67.7652
67.8692
68.0226
68.2162
68.4432
68.6983
68.9766
69.2725
69.5785
69.886
70.1853
70.4644
70.709
70.9013
71.0201
71.0394
70.9267
70.6413
70.1331
69.3387
68.176
66.5366
64.2712
61.1822
56.9506
51.3504
43.2909
34.5301
29.5781
67.3756
67.4208
67.5132
67.6478
67.8161
68.0115
68.2285
68.4623
68.7067
68.9539
69.1951
69.4199
69.6161
69.7687
69.8597
69.8676
69.7661
69.5229
69.0983
68.4433
67.4971
66.1829
64.4013
62.0195
58.8745
54.7393
49.5327
42.9174
36.3492
34.6392
67.0179
67.0589
67.1392
67.2541
67.3963
67.5592
67.7375
67.9259
68.1181
68.3061
68.4808
68.6314
68.7455
68.8078
68.8004
68.7015
68.4854
68.1206
67.5687
66.7834
65.7083
64.2746
62.3953
59.9619
56.8574
52.9492
48.2509
42.7057
36.5271
31.4469
66.6437
66.6802
66.7479
66.8427
66.958
67.0878
67.2268
67.3694
67.5092
67.638
67.7465
67.8239
67.8576
67.8323
67.7302
67.5302
67.2071
66.7308
66.0655
65.1686
63.9896
62.4692
60.536
58.109
55.1132
51.4796
47.2341
42.3728
36.845
31.7814
66.2541
66.2859
66.3405
66.4146
66.5026
66.5989
66.6983
66.795
66.8825
66.9526
66.996
67.0019
66.9575
66.8482
66.6563
66.3617
65.9403
65.3642
64.6006
63.6115
62.3537
60.7781
58.8297
56.4527
53.6029
50.2503
46.4222
42.1652
37.5195
33.1451
65.8501
65.8769
65.9181
65.9712
66.0317
66.0944
66.1541
66.2052
66.2409
66.2533
66.2331
66.1697
66.0506
65.8615
65.5856
65.2038
64.6939
64.0303
63.184
62.1222
60.8091
59.2062
57.2737
54.9761
52.291
49.2131
45.7736
42.0316
38.0399
34.1283
65.4331
65.4546
65.4823
65.5142
65.5471
65.5762
65.5966
65.6026
65.5876
65.5438
65.4621
65.3322
65.1421
64.8782
64.5248
64.0641
63.4759
62.7376
61.824
60.708
59.3609
57.7542
55.8612
53.6613
51.1472
48.3266
45.2293
41.905
38.3998
34.9124
65.0045
65.0206
65.0345
65.0452
65.0507
65.0466
65.0282
64.99
64.9257
64.8275
64.687
64.494
64.2373
63.9043
63.4803
62.9493
62.2934
61.4929
60.527
59.3737
58.0112
56.4195
54.5824
52.4901
50.1442
47.5578
44.7583
41.787
38.6879
35.5977
64.5661
64.5766
64.5766
64.5663
64.5447
64.5079
64.4517
64.3706
64.2586
64.1085
63.912
63.6599
63.3415
62.9452
62.458
61.8655
61.1523
60.302
59.2975
58.1218
56.7592
55.1969
53.4263
51.445
49.2593
46.8843
44.3452
41.6773
38.9196
36.17
64.1198
64.1245
64.1107
64.0796
64.0314
63.9629
63.8699
63.7475
63.5899
63.3904
63.1415
62.8343
62.4594
62.0063
61.4633
60.8181
60.0577
59.1688
58.138
56.9527
55.6023
54.0796
52.3816
50.5104
48.4745
46.2893
43.9778
41.5698
39.0978
36.6358
63.6676
63.6663
63.6388
63.5874
63.5134
63.4141
63.2858
63.1239
62.9231
62.6773
62.3795
62.0218
61.5958
61.0921
60.5008
59.8114
59.0133
58.096
57.0496
55.8653
54.5366
53.0606
51.4378
49.6727
47.775
45.7597
43.6471
41.462
39.2314
37.0131
63.2118
63.2044
63.1634
63.0922
62.9932
62.8644
62.7024
62.5031
62.2618
61.9728
61.63
61.2266
60.7549
60.207
59.5745
58.8489
58.0217
57.0853
56.0325
54.8576
53.5576
52.1324
50.5846
48.9201
47.149
45.2853
43.3464
41.3535
39.3286
37.3174
62.7547
62.7412
62.6868
62.5966
62.4738
62.3169
62.123
61.8886
61.6094
61.2807
60.897
60.4524
59.9405
59.3545
58.6878
57.9333
57.0849
56.1371
55.0856
53.9268
52.6602
51.2876
49.8128
48.2425
46.5867
44.8579
43.0712
41.2443
39.3955
37.5611
62.299
62.2792
62.2119
62.1034
61.9579
61.7745
61.5507
61.2836
60.9696
60.6046
60.1841
59.703
59.1561
58.5379
57.8432
57.0667
56.2039
55.2517
54.2073
53.0695
51.8391
50.5191
49.1143
47.6314
46.08
44.4711
42.8179
41.135
39.4375
37.7547
61.8474
61.8213
61.7415
61.6156
61.4487
61.2404
60.9888
60.6915
60.3456
59.9479
59.4946
58.9816
58.4047
57.7598
57.0429
56.2504
55.3794
54.4281
53.3956
52.2819
51.089
49.8206
48.4818
47.0794
45.6223
44.1202
42.5839
41.0261
39.4593
37.9071
61.4028
61.3703
61.2784
61.136
60.9492
60.7179
60.4405
60.1156
59.741
59.314
58.8317
58.2912
57.6891
57.0225
56.2887
55.4855
54.6112
53.6653
52.6478
51.5602
50.405
49.1863
47.9092
46.5804
45.208
43.8007
42.3674
40.9186
39.4649
38.0254
60.9682
60.9294
60.8258
60.668
60.4627
60.2101
59.9091
59.5592
59.1588
58.7059
58.1985
57.6345
57.0116
56.328
55.582
54.7724
53.8988
52.9615
51.9614
50.9007
49.7825
48.611
47.3913
46.1295
44.8331
43.5094
42.1665
40.813
39.4575
38.1157
60.5467
60.5017
60.3869
60.2146
59.9924
59.7203
59.398
59.0256
58.6023
58.1266
57.5977
57.0141
56.3745
55.6779
54.9237
54.1114
53.2415
52.3151
51.3338
50.3002
49.2176
48.0903
46.9233
45.7225
44.4939
43.2444
41.9808
40.7104
39.4403
38.1833
60.1418
60.0905
59.965
59.7793
59.5416
59.252
58.9102
58.5178
58.0744
57.5792
57.0321
56.4325
55.7798
55.0738
54.3144
53.5023
52.6384
51.7244
50.7625
49.7555
48.7069
47.6206
46.5017
45.3555
44.1875
43.0035
41.8096
40.6118
39.4158
38.2324
59.7566
59.6993
59.5637
59.3655
59.1139
58.8085
58.4493
58.0391
57.5783
57.0667
56.5045
55.892
55.2292
54.5165
53.7546
52.9448
52.0885
51.1878
50.2453
49.2639
48.2471
47.1987
46.1235
45.0262
43.9119
42.7856
41.6526
40.5179
39.3864
38.2668
59.3947
59.3317
59.1868
58.9772
58.7125
58.3927
58.0185
57.5929
57.1173
56.5918
56.0173
55.3945
54.7241
54.0072
53.2449
52.439
51.5913
50.7042
49.7805
48.8232
47.8358
46.822
45.786
44.7323
43.6654
42.5898
41.5098
40.4299
39.3542
38.2899
59.0597
58.9913
58.838
58.618
58.341
58.0083
57.6211
57.1826
56.6944
56.1573
55.5728
54.9419
54.2662
53.5468
52.7857
51.9847
51.146
50.2724
49.3665
48.4317
47.4711
46.4883
45.4872
44.472
43.4466
42.415
41.3811
40.3485
39.3209
38.3041
58.7559
58.6824
58.5211
58.2912
58.0032
57.6592
57.261
56.8114
56.3125
55.766
55.1735
54.5366
53.8572
53.1369
52.3779
51.5824
50.7529
49.8921
49.0029
48.0884
47.1518
46.1966
45.2263
44.2446
43.2553
42.2617
41.2674
40.2754
39.2889
38.3128
58.4876
58.409
58.2397
58.0006
57.7027
57.349
56.9413
56.4823
55.9746
55.4203
54.8215
54.1801
53.4983
52.778
52.0218
51.2319
50.4111
49.5621
48.6879
47.7916
46.8762
45.945
45.0013
44.0485
43.0899
42.1287
41.1679
40.2102
39.2584
38.3165
58.2597
58.1755
57.9978
57.7497
57.4434
57.0815
56.6659
56.1993
55.6846
55.1243
54.5208
53.8763
53.1931
52.4736
51.7203
50.9359
50.1231
49.2847
48.4237
47.5431
46.6458
45.735
44.8138
43.8854
42.9526
42.0185
41.0857
40.1567
39.2339
38.3206
58.0778
57.9865
57.7988
57.5418
57.2279
56.8589
56.4364
55.9634
55.443
54.8781
54.271
53.6243
52.9405
52.2221
51.4718
50.6923
49.8865
49.0572
48.2073
47.3398
46.4575
45.5635
44.6607
43.7519
42.8401
41.9277
41.0173
40.1111
39.2112
38.3204
57.9492
57.8461
57.6469
57.3831
57.0642
56.6899
56.2622
55.7842
55.2596
54.6911
54.0814
53.4332
52.749
52.0317
51.2839
50.5085
49.7083
48.8862
48.0452
47.1881
46.3177
45.4368
44.5483
43.655
42.7594
41.8641
40.9712
40.083
39.2014
38.3287
57.8859
57.7521
57.5347
57.2656
56.944
56.5666
56.1355
55.6547
55.1277
54.5574
53.9465
53.2977
52.6139
51.8978
51.1521
50.3799
49.5839
48.767
47.9321
47.0821
46.2198
45.3478
44.469
43.5859
42.7011
41.8169
40.9355
40.0588
39.1887
38.3271
57.9171
57.7305
57.4904
57.2152
56.8903
56.5093
56.075
55.5916
55.0627
54.4911
53.8794
53.2304
52.5469
51.8317
51.0876
50.3176
49.5245
48.7112
47.8805
47.0352
46.1782
45.312
44.4393
43.5628
42.6848
41.8076
40.9332
40.0636
39.2005
38.3454
-81.2008
-54.2015
-26.1909
23.2227
19.3959
16.3333
25.4606
17.1717
12.5152
22.9546
17.8781
14.8595
26.2893
22.6184
19.8032
28.7824
25.6689
23.1129
30.3505
27.7093
25.5256
31.6532
29.3989
27.522
32.7556
30.7922
29.1505
33.6583
31.9248
30.4728
34.3967
32.8526
31.5574
35.0024
33.6164
32.4519
35.4991
34.2461
33.1919
35.9061
34.766
33.8055
36.2392
35.1956
34.3154
36.5113
35.5507
34.7395
36.733
35.8441
35.0925
36.9129
36.086
35.3861
37.058
36.285
35.6299
37.1745
36.4482
35.8321
37.2674
36.5816
35.9993
37.3412
36.6906
36.1374
37.399
36.7788
36.2509
37.4453
36.8512
36.3447
37.4806
36.9085
36.4204
37.5115
36.9578
36.4846
37.5321
36.9934
36.5326
37.5579
37.0308
36.5788
37.5673
37.0484
36.6035
37.5979
37.0878
36.6468
-0.501888
-2.41502
-4.06251
-4.26712
-4.43252
-4.5972
-4.7123
-4.80732
-4.86727
-4.83893
-4.67489
-4.44707
-4.366
-4.55296
-4.89031
-5.17033
-5.21194
-4.96798
-4.63332
-4.43206
-4.31734
-4.09242
-3.6516
-3.04398
-2.37531
-1.72811
-1.14517
-0.64686
-0.253227
-0.0296023
10.4125
0.635026
-3.33346
-3.96252
-4.01322
-4.18184
-4.41692
-4.64395
-4.80633
-4.80308
-4.54978
-4.2297
-4.20302
-4.57338
-5.12147
-5.56501
-5.57776
-5.15374
-4.71791
-4.57034
-4.55382
-4.33878
-3.808
-3.07746
-2.30596
-1.59443
-0.982131
-0.481728
-0.113746
0.0373542
8.18063
2.35269
-0.645677
-1.73343
-2.36051
-3.00062
-3.5894
-4.0441
-4.33264
-4.42081
-4.33097
-4.22464
-4.30114
-4.69763
-5.32791
-5.73889
-5.52441
-4.95159
-4.59671
-4.65969
-4.79936
-4.543
-3.86308
-2.9985
-2.1442
-1.39417
-0.772372
-0.28345
0.0462649
0.102463
11.43
7.25566
4.13291
2.0397
0.529057
-0.688901
-1.6726
-2.42185
-2.94993
-3.27968
-3.46815
-3.63224
-3.91264
-4.38343
-4.91479
-5.19892
-5.10383
-4.86735
-4.78007
-4.78261
-4.56923
-4.04377
-3.31003
-2.49917
-1.73338
-1.06551
-0.509281
-0.0789552
0.177784
0.106766
16.3078
12.4309
8.93736
6.12496
3.97668
2.29652
0.950209
-0.120566
-0.952409
-1.58501
-2.0756
-2.50774
-2.96764
-3.48171
-3.9636
-4.26475
-4.3274
-4.25147
-4.16408
-4.05062
-3.80739
-3.35272
-2.72251
-2.04106
-1.37112
-0.749849
-0.225221
0.152133
0.305763
0.0588611
20.0182
16.5422
13.0646
10.0132
7.54883
5.55993
3.91884
2.55846
1.44048
0.526418
-0.232392
-0.894354
-1.51091
-2.0963
-2.60909
-2.97805
-3.16928
-3.22518
-3.21253
-3.13719
-2.94106
-2.56962
-2.048
-1.4449
-0.843619
-0.32742
0.0645907
0.293641
0.306214
0.000733615
22.9039
19.8669
16.6084
13.571
10.9884
8.81934
6.97127
5.38932
4.04194
2.89788
1.91917
1.06478
0.30149
-0.382507
-0.970312
-1.42895
-1.74107
-1.92464
-2.01085
-2.00417
-1.87863
-1.61631
-1.24139
-0.808622
-0.382949
-0.0122362
0.262341
0.386063
0.324136
0.0236899
25.2609
22.5844
19.5922
16.683
14.1072
11.8681
9.90567
8.18086
6.67167
5.35626
4.20751
3.19676
2.30126
1.51057
0.829207
0.27044
-0.158122
-0.463916
-0.661602
-0.756858
-0.744163
-0.62309
-0.413634
-0.154962
0.106163
0.327251
0.468884
0.498702
0.380559
0.0785544
27.1663
24.7832
22.0569
19.3291
16.8389
14.6119
12.6115
10.8129
9.20396
7.77196
6.49938
5.36695
4.35895
3.46641
2.68817
2.0279
1.48782
1.06385
0.747566
0.532396
0.41511
0.389103
0.436582
0.527507
0.62554
0.695015
0.704162
0.627939
0.448826
0.146013
28.7118
26.5744
24.0948
21.5635
19.198
17.0333
15.0475
13.2269
11.5675
10.0641
8.70707
7.48413
6.38463
5.40161
4.53193
3.77497
3.12993
2.59332
2.15902
1.82031
1.57046
1.39986
1.2923
1.22407
1.16706
1.09315
0.977524
0.80109
0.554589
0.226963
29.9804
28.0507
25.7911
23.4504
21.2235
19.1476
17.2096
15.403
13.7295
12.1898
10.7801
9.49322
8.32248
7.26305
6.3118
5.46657
4.7251
4.08379
3.53735
3.07922
2.7016
2.39418
2.14253
1.92771
1.72786
1.52098
1.28755
1.01278
0.689803
0.313238
31.029
29.2763
27.2103
25.0466
22.9592
20.9842
19.1131
17.344
15.6823
14.1326
12.6948
11.3658
10.1422
9.02107
7.99989
7.07649
6.24836
5.51182
4.86194
4.29253
3.79587
3.36218
2.9789
2.63061
2.30004
1.96979
1.62428
1.25155
0.84535
0.401388
31.8995
30.2989
28.4029
26.4002
24.4468
22.5763
20.7822
19.065
17.4323
15.8911
14.4441
13.0907
11.8301
10.661
9.58188
8.59115
7.68658
6.86489
6.12152
5.45073
4.84543
4.29682
3.79412
3.32465
2.87445
2.4295
1.97701
1.50665
1.01185
0.487708
32.6247
31.1555
29.4087
27.551
25.723
23.9553
22.2423
20.5851
18.9924
17.4726
16.0301
14.6663
13.3819
12.1771
11.0516
10.0044
9.0338
8.13707
7.31039
6.54862
5.84538
5.19299
4.58227
4.00267
3.44273
2.89082
2.33602
1.76895
1.18248
0.570621
33.2305
31.8754
30.2597
28.5316
26.819
25.1492
23.5172
21.9239
20.378
18.8883
17.4602
16.0966
14.7992
13.5695
12.4082
11.3148
10.2883
9.32635
8.42616
7.58344
6.79259
6.04691
5.3386
4.6588
3.99792
3.34604
2.69356
2.03164
1.35266
0.649686
33.7374
32.4816
30.9809
29.3686
27.7609
26.1828
24.6291
23.1003
21.6046
20.1504
18.7439
17.3886
16.0871
14.8416
13.6536
12.5233
11.4501
10.4325
9.4682
8.55392
7.68505
6.8558
6.05941
5.28839
4.53453
3.78924
3.04383
2.28987
1.51945
0.724921
34.162
32.9925
31.593
30.0835
28.5707
27.0773
25.5977
24.132
22.6873
21.2718
19.8915
18.5505
17.2517
15.998
14.7911
13.632
12.5207
11.4562
10.4367
9.45967
8.52154
7.61753
6.7418
5.8878
5.04842
4.21601
3.38264
2.54025
1.68083
0.796366
34.5177
33.4234
32.1127
30.6945
29.267
27.8509
26.4403
25.0348
23.6404
22.2648
20.9136
19.5909
18.3002
17.0441
15.8251
14.6443
13.5024
12.3988
11.3322
10.3007
9.30147
8.33069
7.38348
6.45411
5.53623
4.62294
3.70688
2.78036
1.83546
0.863978
34.8154
33.7867
32.5539
31.2164
29.8652
28.5191
27.1722
25.8231
24.4772
23.1412
21.8204
20.5187
19.2396
17.9859
16.7601
15.5637
14.3977
13.2619
12.1556
11.0771
10.0243
8.9943
7.98295
6.98529
5.99558
5.0075
4.01418
3.00835
1.98225
0.927656
35.0644
34.0929
32.9283
31.662
30.3786
29.0956
27.8065
26.5097
25.2096
23.912
22.6217
21.3424
20.0774
18.8296
17.6013
16.3943
15.2097
14.0478
12.9081
11.7895
10.6902
9.60791
8.53919
7.47984
6.42467
5.3678
4.30286
3.22293
2.12049
0.9874
35.2722
34.3503
33.2454
32.0418
30.8184
29.5916
28.3549
27.1058
25.8482
24.5869
23.3264
22.0699
20.8205
19.5809
18.3535
17.1399
15.9414
14.7585
13.5912
12.4384
11.299
10.1708
9.051
7.93611
6.82158
5.70197
4.57122
3.42273
2.24924
1.04275
35.4455
34.5666
33.5136
32.3648
31.1943
30.0173
28.8273
27.6214
26.4026
25.1752
23.943
22.7089
21.4757
20.2459
19.0217
17.8046
16.596
15.3966
14.2066
13.0251
11.8511
10.683
9.51827
8.35378
7.18571
6.00926
4.81861
3.6073
2.36836
1.09387
35.5892
34.7473
33.7393
32.638
31.5137
30.3805
29.2319
28.0645
26.8808
25.6844
24.4785
23.2658
22.0486
20.8293
19.6098
18.3915
17.1759
15.9638
14.7552
13.5494
12.3459
11.1434
9.93946
8.73112
7.51524
6.28765
5.04289
3.77463
2.47612
1.13969
35.7087
34.8984
33.9289
32.8688
31.7844
30.6893
29.5767
28.4433
27.2907
26.122
24.9402
23.7473
22.5456
21.3369
20.123
18.9053
17.6851
16.4632
15.2395
14.0136
12.7852
11.5533
10.3155
9.0691
7.81123
6.53827
5.24522
3.92603
2.57408
1.18153
35.8063
35.0225
34.0857
33.0604
32.0101
30.9474
29.866
28.7618
27.6363
26.492
25.3315
24.1565
22.969
21.7704
20.5624
19.3463
18.1231
16.8936
15.6577
14.4154
13.1663
11.9093
10.6425
9.3633
8.06907
6.75638
5.42079
4.05669
2.65787
1.21658
35.888
35.1262
34.2166
33.2204
32.1985
31.1631
30.1077
29.0284
27.9259
26.8026
25.6605
24.5012
23.3262
22.137
20.9348
19.7208
18.4959
17.2607
16.0154
14.7599
13.4938
12.2161
10.925
9.61839
8.29347
6.94702
5.57501
4.17229
2.73281
1.24859
35.9509
35.2065
34.3185
33.3457
32.3466
31.3332
30.299
29.2397
28.1559
27.0497
25.9227
24.7764
23.6119
22.4305
21.2333
20.0213
18.7953
17.5559
16.3033
15.0373
13.7575
12.4629
11.1521
9.8229
8.47277
7.09852
5.69635
4.26166
2.78865
1.27058
36.0069
35.2753
34.4041
33.4493
32.4679
31.4714
30.4535
29.4097
28.3405
27.2476
26.1325
24.9964
23.8403
22.6652
21.4721
20.262
19.0355
17.793
16.5348
15.2608
13.9705
12.6629
11.3367
9.98994
8.62008
7.22397
5.79784
4.33715
2.83685
1.29052
36.0397
35.3159
34.4555
33.513
32.5436
31.5585
30.5514
29.5181
28.4586
27.3747
26.2675
25.1382
23.9877
22.8169
21.6266
20.4176
19.1906
17.9461
16.6841
15.4047
14.1071
12.7907
11.4539
10.0951
8.71169
7.30067
5.85806
4.37946
2.86059
1.29613
36.0821
35.3568
34.5019
33.5671
32.6047
31.6258
30.6245
29.5967
28.5423
27.4629
26.3597
25.2337
24.0857
22.9166
21.7271
20.5181
19.2903
18.044
16.7793
15.4961
14.1938
12.8716
11.5283
10.162
8.77009
7.3493
5.89582
4.40529
2.87175
1.2853
)
;

boundaryField
{
    inlet
    {
        type            zeroGradient;
    }
    outlet
    {
        type            fixedValue;
        value           uniform 0;
    }
    flap
    {
        type            zeroGradient;
    }
    upperWall
    {
        type            zeroGradient;
    }
    lowerWall
    {
        type            zeroGradient;
    }
    frontAndBack
    {
        type            empty;
    }
}


// ************************************************************************* //
