/*--------------------------------*- C++ -*----------------------------------*\
| =========                 |                                                 |
| \\      /  F ield         | OpenFOAM: The Open Source CFD Toolbox           |
|  \\    /   O peration     | Version:  dev                                   |
|   \\  /    A nd           | Web:      www.OpenFOAM.org                      |
|    \\/     M anipulation  |                                                 |
\*---------------------------------------------------------------------------*/
FoamFile
{
    version     2.0;
    format      ascii;
    class       volVectorField;
    location    "0.61";
    object      U;
}
// * * * * * * * * * * * * * * * * * * * * * * * * * * * * * * * * * * * * * //

dimensions      [0 1 -1 0 0 0 0];

internalField   nonuniform List<vector> 
465
(
(3.72964 -1.17037e-19 0.282764)
(3.16313 -8.25049e-20 0.305849)
(2.5836 0 0.327486)
(1.99944 0 0.345761)
(1.42132 0 0.356888)
(0.861488 0 0.35009)
(0.335576 0 0.290389)
(-0.102981 0 0.0799884)
(-0.0235424 -4.16098e-19 -0.142456)
(4.62364 5.83243e-19 0.709202)
(4.06909 -5.61525e-19 0.756726)
(3.49679 6.78505e-19 0.79684)
(2.91486 -6.99797e-19 0.824544)
(2.33429 1.46166e-18 0.832198)
(1.76864 -1.8737e-18 0.806059)
(1.22967 -3.06971e-18 0.718953)
(0.729365 2.69491e-18 0.533674)
(0.423465 1.22921e-18 0.198839)
(5.0788 0 1.16444)
(4.56373 0 1.24719)
(4.02637 0 1.31831)
(3.47185 0 1.36955)
(2.90639 -3.54546e-19 1.38909)
(2.33601 -2.5677e-18 1.35953)
(1.76152 -1.07051e-20 1.25539)
(1.15984 3.69158e-19 1.05547)
(0.678708 2.41463e-18 0.76962)
(5.34761 -1.1971e-18 1.57768)
(4.86652 1.07747e-18 1.69609)
(4.35968 1.60717e-19 1.80116)
(3.8283 3.33595e-19 1.88242)
(3.27303 -2.4309e-18 1.92553)
(2.6927 2.83947e-18 1.91175)
(2.08296 2.56073e-18 1.81815)
(1.41961 -2.95933e-18 1.62898)
(0.831295 0 1.37214)
(5.53199 1.15581e-18 1.96343)
(5.07401 -1.06679e-18 2.11639)
(4.58701 1.2494e-18 2.25619)
(4.06905 -3.26957e-19 2.37117)
(3.51661 0 2.44548)
(2.9243 3.12236e-18 2.45906)
(2.2872 3.21913e-18 2.38891)
(1.59515 -5.89014e-18 2.2137)
(0.947486 0 1.96678)
(5.68124 1.14485e-18 2.33168)
(5.23739 -2.36135e-18 2.51926)
(4.76089 -1.24659e-18 2.69534)
(4.24742 2.36027e-18 2.84757)
(3.6909 0 2.95871)
(3.08414 -3.03413e-18 3.00593)
(2.42238 2.75385e-18 2.9623)
(1.71318 -5.64685e-18 2.79502)
(1.03437 6.01197e-18 2.52484)
(5.82112 1.03239e-18 2.68815)
(5.38572 2.38296e-18 2.91144)
(4.91352 -4.75361e-18 3.12617)
(4.39804 1.27594e-19 3.31936)
(3.83148 -2.48938e-20 3.47209)
(3.20602 5.21035e-18 3.55763)
(2.51601 -2.70029e-18 3.5424)
(1.78279 2.19794e-20 3.38187)
(1.08775 9.16234e-20 3.0629)
(5.96652 1.13954e-18 3.0361)
(5.53704 -7.01648e-20 3.2968)
(5.06605 -2.46024e-18 3.55326)
(4.54498 2.37877e-18 3.79192)
(3.96413 0 3.99205)
(3.31472 2.45827e-18 4.12264)
(2.58921 -2.58725e-18 4.14224)
(1.81445 -1.7083e-19 3.9972)
(1.10726 -9.04533e-20 3.62458)
(6.12707 1.62263e-20 3.37633)
(5.70389 0 3.67665)
(5.23428 -2.23892e-18 3.97856)
(4.70744 2.26263e-18 4.26847)
(4.11081 2.37574e-18 4.5244)
(3.43307 2.52615e-19 4.71148)
(2.66416 -5.09378e-18 4.78038)
(1.82512 2.68606e-18 4.66985)
(1.09863 2.99414e-18 4.25782)
(6.30977 -1.60033e-20 3.70729)
(5.89618 0 4.04953)
(5.4318 0 4.40111)
(4.90303 0 4.74946)
(4.29324 0 5.07272)
(3.58617 -1.49037e-19 5.33391)
(2.76731 -1.5436e-18 5.47673)
(1.83784 1.50003e-19 5.4312)
(1.07189 1.19099e-18 5.01019)
(6.51997 1.1086e-18 4.02545)
(6.12227 -1.00454e-18 4.4114)
(5.67074 1.27657e-19 4.81663)
(5.14871 -1.06734e-18 5.23124)
(4.53445 -9.02446e-21 5.63599)
(3.80353 1.12777e-18 5.99532)
(2.93249 3.00544e-19 6.24855)
(1.8857 0 6.31501)
(1.04462 1.62561e-19 5.93733)
(6.76117 9.43449e-19 4.32549)
(6.3883 0 4.75569)
(5.96102 7.48853e-19 5.21715)
(5.46018 -2.45246e-19 5.70486)
(4.8586 -1.56652e-18 6.20588)
(4.12037 5.37775e-19 6.69188)
(3.20637 0 7.10522)
(2.02156 -6.44754e-21 7.35712)
(1.04978 -4.79899e-21 7.11245)
(7.03464 -5.73349e-19 4.60083)
(6.6973 -1.15076e-19 5.07347)
(6.30913 1.21119e-19 5.59073)
(5.85009 9.83319e-21 6.15462)
(5.28925 -2.47255e-19 6.76292)
(4.57856 2.53673e-19 7.40342)
(3.65622 0 8.03802)
(2.3348 -1.40935e-19 8.59159)
(1.15126 -1.36676e-19 8.65339)
(7.33911 0 4.84422)
(7.04859 -3.34111e-19 5.35417)
(6.7163 2.32933e-19 5.9218)
(6.32467 2.35376e-19 6.55732)
(5.84441 0 7.27295)
(5.22252 0 8.08273)
(4.3783 1.11342e-19 8.99622)
(2.99089 0 10.0251)
(1.49186 -3.68227e-19 10.8217)
(7.6702 -1.62145e-21 5.04827)
(7.43659 -4.31507e-19 5.5866)
(7.17606 4.36298e-19 6.19268)
(6.8781 -4.31882e-19 6.88387)
(6.52502 1.35833e-19 7.68639)
(6.0809 -7.68737e-20 8.64366)
(5.49516 -1.6187e-19 9.83473)
(4.35692 -1.81688e-19 11.4868)
(2.49937 2.92309e-19 14.2578)
(0.156714 -5.69448e-20 0.0637579)
(-0.376798 3.23697e-21 0.368255)
(-1.26939 5.00482e-20 0.479048)
(-2.30374 0 0.519707)
(-3.41552 0 0.527936)
(-4.55325 -3.91216e-21 0.518169)
(-5.68586 -1.06971e-21 0.497119)
(-6.79376 -1.43698e-20 0.468505)
(-7.86399 1.40091e-20 0.434563)
(-8.88706 1.22915e-20 0.396724)
(-0.202753 2.33593e-19 0.432844)
(-0.779731 0 0.845533)
(-1.65528 8.32155e-20 1.05491)
(-2.65234 -4.00567e-20 1.16604)
(-3.71902 -5.49355e-20 1.21999)
(-4.80957 5.52437e-22 1.23615)
(-5.89582 1.64074e-20 1.2252)
(-6.95976 -5.86895e-20 1.19426)
(-7.9891 5.7261e-20 1.14813)
(-8.97436 -1.21584e-20 1.09009)
(-0.241408 -2.11475e-19 1.00719)
(-0.887921 4.08316e-19 1.50911)
(-1.77319 -3.53776e-20 1.78927)
(-2.72979 -1.1346e-19 1.94667)
(-3.72994 5.28207e-21 2.02259)
(-4.74226 -5.49039e-22 2.04063)
(-5.7468 -1.15108e-20 2.01544)
(-6.73015 -6.42673e-20 1.9573)
(-7.6826 1.53816e-19 1.87345)
(-8.59638 -8.8923e-20 1.76888)
(-0.150195 -1.43366e-20 1.75188)
(-0.81371 -1.67634e-19 2.26777)
(-1.7167 1.45426e-19 2.55856)
(-2.63132 -1.32324e-20 2.72179)
(-3.55966 -5.28344e-21 2.79427)
(-4.48574 9.43511e-21 2.79984)
(-5.3997 1.16061e-19 2.75463)
(-6.29433 -9.33632e-20 2.67031)
(-7.16341 4.51547e-20 2.55531)
(-8.00133 1.26584e-19 2.41559)
(0.00490677 3.57711e-19 2.62907)
(-0.637669 -3.33898e-19 3.08952)
(-1.54903 -6.02394e-20 3.33964)
(-2.41008 7.34043e-20 3.47438)
(-3.2611 -6.02016e-21 3.52301)
(-4.09819 7.85712e-20 3.50542)
(-4.92038 2.76656e-20 3.43606)
(-5.72608 -2.84117e-19 3.32562)
(-6.51237 8.83502e-21 3.1817)
(-7.27553 4.38244e-20 3.00976)
(0.178029 4.199e-20 3.59098)
(-0.42057 2.31364e-19 3.93871)
(-1.31707 2.23046e-20 4.11109)
(-2.10462 -2.47406e-20 4.19326)
(-2.86922 1.9315e-20 4.20394)
(-3.6135 1.0652e-19 4.15623)
(-4.34285 4.81252e-20 4.06077)
(-5.05939 7.57881e-21 3.92566)
(-5.76277 -3.11864e-19 3.7567)
(-6.45067 1.83889e-19 3.55795)
(0.329667 2.43141e-21 4.56531)
(-0.213416 1.89897e-21 4.76383)
(-1.05588 4.97906e-20 4.83816)
(-1.74373 -3.90471e-20 4.85635)
(-2.40942 -1.3363e-20 4.82331)
(-3.05433 1.36308e-19 4.74394)
(-3.68771 -2.99256e-19 4.62373)
(-4.31349 2.14413e-19 4.46717)
(-4.93259 6.38763e-20 4.27764)
(-5.54356 0 4.05732)
(0.432452 2.62881e-20 5.45567)
(-0.0502709 -8.04302e-20 5.50113)
(-0.786978 -5.04013e-20 5.47963)
(-1.34684 1.33953e-19 5.43691)
(-1.89982 0 5.36347)
(-2.43697 -6.7941e-20 5.25683)
(-2.96946 0 5.11699)
(-3.50136 0 4.94461)
(-4.03372 -6.43975e-20 4.74028)
(-4.56522 1.74925e-19 4.5042)
(0.477751 1.27291e-19 6.16634)
(0.0593034 5.88903e-21 6.08757)
(-0.517558 0 5.99583)
(-0.924674 -1.38777e-19 5.90903)
(-1.35228 1.14421e-19 5.8072)
(-1.77322 1.57578e-20 5.68331)
(-2.19956 0 5.53232)
(-2.63378 0 5.35176)
(-3.07627 -1.62407e-19 5.13974)
(-3.52525 -2.92526e-20 4.89452)
(0.475075 9.23499e-22 6.62568)
(0.128382 -3.3935e-21 6.47576)
(-0.24356 0 6.35568)
(-0.481673 0 6.25115)
(-0.774295 0 6.13989)
(-1.0719 2.22562e-20 6.0134)
(-1.38769 1.26975e-19 5.86259)
(-1.72091 -1.2377e-19 5.68307)
(-2.0705 0 5.47128)
(-2.43389 0 5.22411)
(0.447383 -9.20448e-22 6.79857)
(0.185235 6.55813e-20 6.64231)
(0.0452584 -1.31143e-19 6.541)
(-0.0180294 1.5014e-19 6.44947)
(-0.17082 -6.86439e-20 6.35161)
(-0.340577 1.15792e-19 6.23953)
(-0.54319 2.39403e-20 6.10197)
(-0.773315 -1.70821e-19 5.93376)
(-1.02776 -4.32366e-20 5.73079)
(-1.30289 4.94994e-20 5.48915)
(0.418678 0 6.68627)
(0.267189 -7.68582e-21 6.5889)
(0.36159 -4.55183e-20 6.54666)
(0.464203 3.63875e-20 6.49877)
(0.453581 -1.12682e-20 6.43838)
(0.412479 6.96187e-21 6.35884)
(0.324517 1.43662e-19 6.24922)
(0.198587 -1.02954e-19 6.10352)
(0.0391369 2.36503e-19 5.91658)
(-0.146291 -2.89792e-19 5.68739)
(0.418196 1.51386e-20 6.32428)
(0.411843 6.28794e-22 6.33579)
(0.715597 -1.90398e-21 6.3801)
(0.966587 2.38743e-20 6.40184)
(1.09374 -7.27544e-20 6.39973)
(1.17422 4.35855e-20 6.36809)
(1.19748 0 6.29856)
(1.17452 8.44017e-20 6.18583)
(1.11166 -1.79816e-19 6.02538)
(1.01695 8.72491e-20 5.81611)
(0.472336 1.23542e-20 5.75299)
(0.642425 9.16085e-21 5.90887)
(1.11806 -1.29889e-20 6.06247)
(1.49754 0 6.17282)
(1.74977 0 6.2449)
(1.94056 0 6.27427)
(2.06718 0 6.25509)
(2.14123 0 6.18305)
(2.17088 0 6.05505)
(2.16438 5.8738e-20 5.8705)
(0.598071 -1.26069e-20 4.96998)
(0.983913 4.79338e-20 5.34553)
(1.58328 -2.4631e-20 5.63696)
(2.06342 1.36069e-20 5.84057)
(2.42153 -1.23894e-20 5.9931)
(2.70756 -1.1723e-20 6.09107)
(2.92543 1.03964e-20 6.12863)
(3.08736 0 6.10265)
(3.20286 0 6.01177)
(3.27999 0 5.85622)
(8.03324 -1.96613e-19 5.2112)
(7.86576 2.97371e-19 5.76588)
(7.69081 0 6.39249)
(7.50919 1.48979e-19 7.11121)
(7.32538 4.91642e-20 7.95352)
(7.15234 9.67938e-20 8.9727)
(7.104 -7.33637e-20 10.2601)
(7.5249 1.10113e-19 11.9748)
(7.90987 -1.2617e-19 14.573)
(8.4145 9.54777e-20 5.32505)
(8.31624 -3.74539e-21 5.88111)
(8.22995 4.53378e-20 6.50534)
(8.16667 -2.27375e-19 7.21402)
(8.14899 -1.75024e-22 8.02907)
(8.21527 0 8.97839)
(8.43864 -6.29722e-20 10.088)
(9.04203 6.34618e-20 11.2817)
(9.53496 0 12.1581)
(8.80265 3.13328e-21 5.38779)
(8.77032 -8.87495e-20 5.93072)
(8.76425 -8.39048e-20 6.53158)
(8.79841 8.5891e-20 7.19881)
(8.89463 0 7.93922)
(9.08055 -3.6151e-20 8.7511)
(9.36973 -6.0367e-20 9.61622)
(9.86457 6.12275e-20 10.4629)
(10.4441 1.28217e-20 11.0298)
(9.1866 1.66459e-19 5.40003)
(9.21239 0 5.9185)
(9.27217 8.17915e-20 6.48229)
(9.37813 -3.82532e-20 7.09343)
(9.54583 -1.08838e-19 7.75041)
(9.7942 1.06975e-19 8.44408)
(10.1303 -1.51162e-20 9.15805)
(10.6107 -1.58733e-22 9.87437)
(11.2734 -4.37584e-20 10.4608)
(9.63216 0 5.85239)
(9.74413 0 6.37286)
(9.90329 3.85647e-20 6.92563)
(10.1213 0 7.50677)
(10.4127 6.04202e-20 8.10808)
(10.7863 -4.64714e-20 8.71623)
(11.2625 -4.97055e-23 9.31881)
(11.899 5.13476e-21 9.8322)
(10.3745 2.29248e-21 6.71176)
(10.6271 4.8071e-21 7.22302)
(10.9435 4.78166e-20 7.7416)
(11.3295 0 8.25403)
(11.7856 1.48667e-21 8.74556)
(12.3713 0 9.17158)
(11.3917 5.61037e-21 7.35364)
(11.7748 -5.22304e-22 7.78447)
(12.2088 4.79154e-20 8.18998)
(12.7531 -6.28304e-22 8.54969)
(12.5558 1.84315e-19 7.66127)
(13.0632 -1.55606e-19 7.96533)
(9.6337 1.39771e-19 12.5407)
(6.4901 -8.3767e-20 9.69314)
(0.914017 9.75146e-20 6.4872)
(10.0415 -1.86569e-20 10.5178)
(9.34526 1.55156e-20 8.72743)
(7.82221 -9.45081e-21 7.0283)
(10.8644 1.63361e-20 10.6414)
(10.9214 5.52173e-21 9.92661)
(10.5564 0 9.02264)
(11.6789 1.02215e-20 10.5015)
(11.9016 3.73012e-20 10.3028)
(11.8954 -1.85833e-20 9.89866)
(12.265 -5.43584e-20 9.95709)
(12.5441 5.07821e-20 9.96225)
(12.7038 0 9.84699)
(12.7088 0 9.31729)
(13.0081 0 9.40742)
(13.2375 -2.71749e-21 9.43459)
(13.0681 9.39496e-22 8.69166)
(13.3624 0 8.8057)
(13.6061 4.08468e-21 8.88659)
(13.3556 1.24645e-19 8.09044)
(13.6334 -8.38906e-22 8.19908)
(13.8688 -1.40358e-21 8.28938)
(13.8385 3.94773e-22 7.6095)
(14.0588 0 7.69223)
(-0.842176 -1.65553e-20 3.83081)
(1.28065 5.12285e-21 4.4777)
(2.1051 -5.88395e-21 5.02762)
(2.67177 4.61336e-21 5.38765)
(3.12401 -8.20744e-21 5.64711)
(3.49356 0 5.82432)
(3.79161 3.74112e-21 5.92355)
(4.03337 0 5.94706)
(4.22887 -2.03772e-20 5.89682)
(5.53993 -7.2612e-22 5.09221)
(4.22032 4.26565e-21 4.4184)
(3.64791 -4.36565e-21 4.52344)
(3.68064 0 4.86993)
(3.97447 9.90098e-21 5.21391)
(4.32461 -9.64516e-21 5.47644)
(4.65754 1.92817e-21 5.64361)
(4.9561 -1.88137e-21 5.72023)
(5.21831 1.97354e-20 5.7127)
(9.31695 -2.46138e-21 7.33978)
(7.85801 3.19969e-21 6.06165)
(6.53094 -1.00163e-21 5.29374)
(5.71831 -1.24192e-20 4.99566)
(5.42004 2.02824e-20 5.01698)
(5.44923 -8.78431e-21 5.17222)
(5.64315 7.24506e-21 5.33241)
(5.90533 -7.07513e-21 5.43724)
(6.18457 -2.31979e-20 5.46545)
(11.3915 0 8.73786)
(10.49 4.03071e-22 7.55614)
(9.3862 -2.16052e-22 6.5765)
(8.38197 0 5.87317)
(7.64548 -1.53963e-20 5.44823)
(7.21596 7.52368e-21 5.25361)
(7.05788 1.65888e-20 5.20471)
(7.09882 0 5.21271)
(7.26277 1.7601e-20 5.21116)
(12.6765 1.02154e-20 9.2261)
(12.2931 -1.21969e-20 8.39417)
(11.6417 2.03986e-22 7.5582)
(10.8762 0 6.81641)
(10.1311 0 6.21034)
(9.5027 -2.18038e-21 5.75661)
(9.05095 -1.81194e-20 5.44628)
(8.79413 -2.76574e-21 5.24496)
(8.71286 3.2391e-20 5.10415)
(13.4789 0 9.19149)
(13.4721 -5.92923e-21 8.70274)
(13.2404 6.16277e-21 8.10534)
(12.8318 -6.29967e-21 7.48685)
(12.321 6.23743e-21 6.89715)
(11.7848 1.7244e-20 6.36879)
(11.2912 -1.70813e-20 5.91934)
(10.8913 2.74034e-20 5.54976)
(10.6137 -4.14042e-20 5.24603)
(13.9699 2.64647e-21 8.86182)
(14.1984 1.41394e-21 8.63181)
(14.2812 -2.10889e-21 8.26315)
(14.2009 3.08644e-21 7.81473)
(13.9839 1.1e-21 7.32944)
(13.6771 0 6.84044)
(13.3294 1.93106e-20 6.37155)
(12.9855 -1.40184e-20 5.93597)
(12.6823 2.62813e-20 5.53666)
(14.2706 -2.59031e-21 8.36836)
(14.622 2.78275e-20 8.30401)
(14.906 -3.8955e-20 8.1138)
(15.0718 1.21644e-20 7.82652)
(15.1138 -4.51176e-22 7.47033)
(15.0538 1.57884e-21 7.07114)
(14.9202 -1.57298e-20 6.65086)
(14.7421 1.47676e-20 6.22534)
(14.548 -1.20321e-20 5.80383)
(14.4566 4.24833e-20 7.80589)
(14.8553 -4.36178e-20 7.82952)
(15.2457 0 7.75637)
(15.5677 9.98658e-22 7.59371)
(15.7987 0 7.35483)
(15.9431 -2.1871e-21 7.05536)
(16.0131 0 6.71098)
(16.0238 -3.95114e-21 6.33528)
(15.9922 4.18785e-20 5.93842)
(14.9729 -3.55056e-20 7.29126)
(15.403 3.67084e-20 7.28188)
(15.8051 1.13464e-20 7.20041)
(16.1514 -1.33928e-20 7.04978)
(16.437 4.22185e-22 6.83646)
(16.6637 1.57418e-20 6.56892)
(16.8358 -1.54758e-20 6.25611)
(16.9608 0 5.90608)
(16.2783 1.06675e-21 6.62653)
(16.6435 -8.05666e-22 6.47619)
(16.97 0 6.27217)
(17.2556 0 6.01866)
(17.5008 2.44295e-20 5.72041)
(17.0361 7.43059e-22 5.87659)
(17.3855 8.9967e-21 5.67071)
(17.7058 8.69358e-21 5.41908)
(17.6787 -1.36763e-21 5.04646)
)
;

boundaryField
{
    inlet
    {
        type            fixedValue;
        value           nonuniform 0();
    }
    outlet
    {
        type            zeroGradient;
    }
    flap
    {
        type            movingWallVelocity;
        value           nonuniform List<vector> 
33
(
(-5.54992e-16 -2.77556e-14 -6.89422e-15)
(-2.09978e-15 -2.77556e-14 -1.23397e-14)
(1.87438e-16 0 7.84329e-16)
(-7.11465e-15 -2.77556e-14 -2.55313e-14)
(1.48499e-14 2.77556e-14 5.12045e-14)
(-1.41664e-14 -2.77556e-14 -5.16236e-14)
(-1.24032e-14 0 -5.25856e-14)
(-2.27351e-16 0 -1.23526e-15)
(0 0 0)
(7.93751e-17 0 1.04654e-15)
(0 0 0)
(-1.00478e-18 0 1.18081e-16)
(-1.46098e-17 0 4.50043e-16)
(0 0 0)
(5.14898e-15 -2.77556e-14 -1.10133e-13)
(0 0 0)
(7.67398e-15 2.77556e-14 4.2717e-16)
(-4.42787e-15 0 -1.76877e-16)
(-5.55399e-16 -2.77556e-14 -6.89415e-15)
(2.01755e-16 -9.85167e-33 1.16587e-15)
(0 0 0)
(0 0 0)
(-1.59328e-14 -2.77556e-14 -5.49149e-14)
(7.10831e-32 -2.77556e-14 -1.94976e-32)
(0 0 0)
(-9.89655e-15 1.31512e-32 -5.36868e-14)
(0 0 0)
(1.59826e-16 2.77556e-14 2.10013e-15)
(3.203e-15 2.77556e-14 1.1093e-13)
(0 0 0)
(3.59758e-15 -2.77556e-14 -1.10906e-13)
(4.96279e-15 -2.77556e-14 -1.108e-13)
(0 0 0)
)
;
    }
    upperWall
    {
        type            noSlip;
    }
    lowerWall
    {
        type            noSlip;
    }
    frontAndBack
    {
        type            empty;
    }
    procBoundary4to1
    {
        type            processor;
        value           nonuniform List<vector> 
30
(
(9.55742 0 5.36551)
(9.55742 0 5.36551)
(10.0235 0 5.74097)
(10.1762 0 6.21603)
(10.1762 0 6.21603)
(10.7913 9.39313e-20 6.46255)
(11.0649 -4.41827e-21 6.90924)
(11.0649 -4.41827e-21 6.90924)
(11.7685 -1.36337e-20 6.9575)
(12.1426 8.74016e-20 7.32192)
(12.1426 8.74016e-20 7.32192)
(12.8374 -8.62724e-20 7.15414)
(13.3097 -7.17492e-20 7.40904)
(13.58 1.24926e-19 7.51509)
(13.58 1.24926e-19 7.51509)
(13.9905 -1.04099e-19 7.04763)
(14.1945 8.22558e-21 7.11831)
(14.5709 5.44838e-20 7.23216)
(14.5709 5.44838e-20 7.23216)
(15.0201 1.41609e-21 6.74)
(15.4496 4.21726e-21 6.75764)
(15.8778 -1.31985e-21 6.72053)
(15.8778 -1.31985e-21 6.72053)
(16.2649 8.19499e-21 6.14532)
(16.6609 1.41575e-20 6.03501)
(16.6609 1.41575e-20 6.03501)
(16.9517 1.32081e-20 5.4322)
(17.3244 2.05282e-22 5.26074)
(17.3244 2.05282e-22 5.26074)
(17.5096 -1.7527e-21 4.6419)
)
;
    }
    procBoundary4to2
    {
        type            processor;
        value           nonuniform List<vector> 
11
(
(6.45608 -3.23182e-20 5.41131)
(7.4908 5.94577e-22 5.16053)
(8.7669 3.62525e-20 4.97584)
(10.4637 -8.36632e-22 4.98371)
(12.4454 1.1234e-21 5.16786)
(14.3631 3.09793e-20 5.3894)
(15.9363 5.35825e-20 5.52672)
(17.0483 2.43614e-20 5.52513)
(17.7087 -9.9681e-21 5.38195)
(17.9954 -1.91104e-21 5.12399)
(18.0105 1.12228e-20 4.78978)
)
;
    }
    procBoundary4to3
    {
        type            processor;
        value           nonuniform List<vector> 
19
(
(4.27674 -3.00132e-19 0.259421)
(5.15453 2.92392e-19 0.657785)
(5.56791 5.74966e-19 1.07591)
(5.80184 0 1.45341)
(5.96214 1.1945e-18 1.80566)
(6.09558 -1.15419e-18 2.14136)
(6.22476 1.07571e-18 2.46529)
(6.36154 1.03241e-18 2.78)
(6.51272 1.59548e-20 3.0858)
(6.68297 0 3.38114)
(6.87565 0 3.66304)
(7.09257 -9.22839e-19 3.92733)
(7.33408 1.1077e-19 4.16921)
(7.59882 -5.43099e-19 4.38362)
(7.88342 -4.19161e-19 4.56552)
(8.19344 9.63806e-20 4.71477)
(8.51892 8.99253e-20 4.8253)
(8.85229 -1.75115e-19 4.89513)
(9.18564 8.1464e-20 4.92344)
)
;
    }
    procBoundary4to5
    {
        type            processor;
        value           nonuniform List<vector> 
18
(
(-9.8547 0 0.35591)
(-9.90744 -3.20911e-20 1.02243)
(-9.46466 6.55981e-20 1.64703)
(-8.8027 9.00514e-20 2.2552)
(-8.01097 -7.70083e-20 2.81326)
(-7.11902 7.73708e-20 3.33176)
(-6.14262 -2.76965e-19 3.80693)
(-5.09219 3.56495e-19 4.23541)
(-3.97699 -6.64939e-20 4.61369)
(-2.80707 -3.32653e-19 4.93799)
(-1.59436 -1.27873e-19 5.20456)
(-0.353719 0 5.41041)
(0.895839 -1.08359e-19 5.55386)
(2.12835 1.07461e-19 5.6268)
(3.32569 6.04071e-20 5.63468)
(4.38585 5.04704e-20 5.77407)
(4.38585 5.04704e-20 5.77407)
(5.44636 -2.26557e-20 5.62469)
)
;
    }
}


// ************************************************************************* //
