/*--------------------------------*- C++ -*----------------------------------*\
| =========                 |                                                 |
| \\      /  F ield         | OpenFOAM: The Open Source CFD Toolbox           |
|  \\    /   O peration     | Version:  dev                                   |
|   \\  /    A nd           | Web:      www.OpenFOAM.org                      |
|    \\/     M anipulation  |                                                 |
\*---------------------------------------------------------------------------*/
FoamFile
{
    version     2.0;
    format      ascii;
    class       volVectorField;
    location    "0.53";
    object      Force;
}
// * * * * * * * * * * * * * * * * * * * * * * * * * * * * * * * * * * * * * //

dimensions      [1 1 -2 0 0 0 0];

internalField   uniform (0 0 0);

boundaryField
{
    inlet
    {
        type            calculated;
        value           nonuniform 0();
    }
    outlet
    {
        type            calculated;
        value           nonuniform 0();
    }
    flap
    {
        type            calculated;
        value           nonuniform List<vector> 
33
(
(3.64328 -7.19711e-17 -8.12185)
(4.16744 8.01163e-22 2.82267)
(3.37188 3.60573e-23 -0.337624)
(4.0535 -2.09213e-39 -0.157113)
(3.45998 -3.29747e-39 -0.0956239)
(3.99257 -1.09955e-38 -0.00558235)
(3.94737 1.73303e-17 -0.0975043)
(3.43549 0 -0.127354)
(4.09732 1.2857e-39 -0.136474)
(3.41939 1.5011e-17 0.0902084)
(3.94293 1.78067e-17 -0.328976)
(2.64231 1.28468e-17 0.751794)
(3.39787 1.94174e-17 -0.133242)
(4.77807 6.59156e-17 -3.51861)
(12.3948 1.88079e-37 3.7882)
(-0.0101435 1.55158e-20 0.159813)
(0.642647 2.82119e-37 0.481334)
(1.07752 4.63494e-18 0.815334)
(0.390326 6.02972e-18 -1.0125)
(0.771773 3.00686e-17 0.268412)
(0.578103 1.52226e-17 -0.082097)
(0.647063 -1.65318e-17 0.0241971)
(0.726933 1.61626e-17 0.00157241)
(0.805977 9.209e-25 -0.0627235)
(0.938293 -1.66448e-17 0.0364899)
(1.0393 1.63965e-17 -0.0151327)
(1.20407 -7.60832e-19 -0.0593713)
(1.04401 1.33522e-17 0.0712888)
(1.35504 7.34684e-40 -0.0844177)
(1.1 -2.96442e-20 0.00901297)
(1.65789 7.34684e-40 0.414946)
(1.99038 3.82036e-38 -0.733118)
(4.76519 4.84949e-21 1.6652)
)
;
    }
    upperWall
    {
        type            calculated;
        value           nonuniform 0();
    }
    lowerWall
    {
        type            calculated;
        value           uniform (0 0 0);
    }
    frontAndBack
    {
        type            empty;
    }
    procBoundary4to1
    {
        type            processor;
        value           uniform (0 0 0);
    }
    procBoundary4to2
    {
        type            processor;
        value           uniform (0 0 0);
    }
    procBoundary4to3
    {
        type            processor;
        value           uniform (0 0 0);
    }
    procBoundary4to5
    {
        type            processor;
        value           uniform (0 0 0);
    }
}


// ************************************************************************* //
