/*--------------------------------*- C++ -*----------------------------------*\
| =========                 |                                                 |
| \\      /  F ield         | OpenFOAM: The Open Source CFD Toolbox           |
|  \\    /   O peration     | Version:  dev                                   |
|   \\  /    A nd           | Web:      www.OpenFOAM.org                      |
|    \\/     M anipulation  |                                                 |
\*---------------------------------------------------------------------------*/
FoamFile
{
    version     2.0;
    format      ascii;
    class       surfaceScalarField;
    location    "4.86";
    object      phi;
}
// * * * * * * * * * * * * * * * * * * * * * * * * * * * * * * * * * * * * * //

dimensions      [0 3 -1 0 0 0 0];

internalField   nonuniform List<scalar> 
5457
(
0.197977
0.00204636
0.195825
0.00217335
0.193492
0.00235325
0.190923
0.00258636
0.188113
0.00282614
0.185057
0.00306856
0.181745
0.00331998
0.178161
0.0035857
0.174291
0.00386692
0.170115
0.00416651
0.165611
0.00448912
0.160756
0.00483686
0.155523
0.00521227
0.149884
0.00561774
0.143808
0.00605546
0.137262
0.00652709
0.130213
0.00703361
0.122625
0.00757532
0.114465
0.00815118
0.105702
0.0087581
0.0963092
0.00939037
0.0862711
0.0100389
0.0755824
0.0106908
0.0642572
0.0113276
0.0523373
0.0119223
0.0399032
0.0124361
0.0270936
0.0128111
0.0141722
0.0129222
0.0022762
0.0118964
0.0022763
0.19975
0.00231978
0.198898
0.00304664
0.197739
0.0035321
0.196296
0.00404749
0.194562
0.00457599
0.192532
0.00511128
0.190198
0.00566226
0.187548
0.00623788
0.184568
0.00684354
0.18124
0.0074854
0.177544
0.00817056
0.173458
0.00890441
0.168957
0.00969256
0.164012
0.0105402
0.158594
0.0114526
0.152669
0.012434
0.146199
0.0134873
0.139148
0.0146144
0.131475
0.0158153
0.123141
0.0170859
0.114112
0.0184178
0.104355
0.0197963
0.0938478
0.0212005
0.082579
0.0225988
0.0705612
0.0239425
0.0578468
0.0251525
0.044562
0.0260974
0.0310064
0.0264786
0.0174221
0.0254811
0.0196985
0.199604
0.0027384
0.198823
0.00384931
0.197734
0.00464059
0.196386
0.00541428
0.194778
0.00620046
0.192902
0.00699958
0.190753
0.00782008
0.188321
0.00867221
0.185592
0.00956887
0.18255
0.0105187
0.179178
0.0115281
0.175457
0.0126073
0.171363
0.0137649
0.166873
0.0150089
0.161955
0.0163488
0.156578
0.0177927
0.150702
0.0193463
0.144288
0.0210159
0.137289
0.0228053
0.129655
0.0247142
0.121333
0.0267377
0.112268
0.0288619
0.102399
0.0310713
0.0916623
0.033338
0.0799933
0.0356139
0.0673245
0.0378233
0.0535801
0.0398431
0.038523
0.0415366
0.0210188
0.0429857
0.0407174
0.199512
0.00324886
0.198733
0.00464977
0.197659
0.00573363
0.196328
0.00676389
0.194745
0.00780077
0.192903
0.00885432
0.190798
0.0099337
0.188421
0.0110519
0.185761
0.012226
0.182806
0.0134652
0.179542
0.0147782
0.175951
0.0161796
0.172016
0.0176791
0.167716
0.0192866
0.163026
0.0210174
0.157916
0.022884
0.15235
0.024895
0.146291
0.0270623
0.13969
0.0293967
0.132492
0.0319063
0.12463
0.0345973
0.116028
0.0374642
0.106597
0.0405037
0.0962239
0.0437135
0.0847516
0.0470884
0.0719648
0.050612
0.0575752
0.0542341
0.0411732
0.0579395
0.0219702
0.062189
0.0626877
0.199465
0.00380608
0.198675
0.00546056
0.197614
0.0068142
0.1963
0.00809714
0.194737
0.00938048
0.192923
0.0106817
0.190852
0.0120138
0.188514
0.0133931
0.185901
0.0148363
0.183002
0.0163556
0.179802
0.0179649
0.176284
0.0196791
0.172433
0.0215091
0.16823
0.0234676
0.163654
0.0255721
0.158677
0.0278409
0.153267
0.0302887
0.147383
0.0329323
0.140979
0.035791
0.133996
0.0388827
0.126356
0.0422342
0.117958
0.0458623
0.108687
0.0497756
0.0983998
0.054003
0.0868957
0.0585946
0.0738657
0.0636437
0.0588906
0.0692105
0.0415413
0.0752896
0.021738
0.0819926
0.0844257
0.199442
0.00438554
0.198645
0.00627812
0.197596
0.00788278
0.196301
0.00941118
0.194765
0.010934
0.192984
0.0124765
0.190951
0.0140555
0.188659
0.0156894
0.186099
0.0173945
0.183258
0.0191894
0.180118
0.0210912
0.176667
0.0231123
0.172887
0.0252677
0.168759
0.0275743
0.164263
0.030046
0.159374
0.0327091
0.154055
0.0355904
0.148264
0.0387089
0.141951
0.0420942
0.13505
0.0457767
0.127481
0.0497996
0.119133
0.0542094
0.109851
0.0590589
0.0994372
0.0644187
0.0876878
0.0703458
0.0743204
0.0770127
0.058886
0.084646
0.0408785
0.0932978
0.0209437
0.101928
0.105369
0.199433
0.00497404
0.198634
0.0070966
0.197601
0.00893609
0.196331
0.0106995
0.194828
0.0124547
0.193087
0.0142321
0.191101
0.0160514
0.188862
0.0179331
0.186359
0.0198959
0.18358
0.0219619
0.180508
0.0241495
0.177131
0.0264724
0.173429
0.028949
0.169382
0.0315993
0.164967
0.0344393
0.160155
0.0375002
0.15491
0.0408178
0.149184
0.0444199
0.142921
0.0483453
0.136042
0.0526477
0.128457
0.0573812
0.120055
0.0626099
0.110676
0.0684389
0.100083
0.0750128
0.0879999
0.0824303
0.0742133
0.0908006
0.0583941
0.100466
0.0400058
0.111687
0.0201266
0.121807
0.125496
0.19943
0.00556453
0.198637
0.00790958
0.197624
0.00996869
0.196385
0.0119569
0.19492
0.013938
0.193224
0.0159425
0.191292
0.0179944
0.189114
0.0201172
0.186677
0.0223324
0.183969
0.0246629
0.180978
0.027129
0.177685
0.0297484
0.174072
0.0325417
0.170118
0.035531
0.165794
0.0387412
0.161067
0.0422062
0.1559
0.0459662
0.15024
0.0500652
0.144021
0.0545517
0.137167
0.0594936
0.129562
0.0649811
0.121059
0.0711105
0.111511
0.0779877
0.100719
0.0858055
0.0883568
0.0947932
0.0741315
0.105027
0.0579183
0.11668
0.0393096
0.130295
0.0195094
0.141607
0.145005
0.199435
0.00614969
0.198653
0.0087105
0.197662
0.0109787
0.196457
0.0131815
0.195034
0.0153784
0.193391
0.0176014
0.191519
0.0198782
0.189408
0.0222343
0.187048
0.0246935
0.184425
0.0272805
0.181524
0.0300184
0.178328
0.0329279
0.174818
0.0360321
0.170971
0.0393565
0.166755
0.0429346
0.162135
0.0468056
0.157068
0.0510135
0.151494
0.0556231
0.145334
0.0606995
0.138509
0.0663086
0.13091
0.0725741
0.122374
0.079644
0.112693
0.0876683
0.101674
0.0968241
0.0890661
0.107402
0.0744841
0.119609
0.0579042
0.13326
0.0390605
0.149139
0.0192538
0.161414
0.164259
0.199444
0.00672462
0.198678
0.00949497
0.197713
0.0119629
0.196545
0.0143685
0.195172
0.0167701
0.193587
0.0192024
0.191782
0.0216954
0.189748
0.0242759
0.187474
0.0269696
0.184945
0.0298044
0.182147
0.0328061
0.179063
0.0359972
0.175672
0.0394037
0.171951
0.043056
0.167863
0.0470005
0.16337
0.0512773
0.158428
0.0559363
0.152974
0.0610606
0.146932
0.0667282
0.14019
0.0730397
0.132638
0.0801193
0.124141
0.0881372
0.114455
0.0973531
0.103315
0.107963
0.0905181
0.120199
0.0757377
0.134389
0.0588672
0.15013
0.0397207
0.168285
0.0197199
0.181414
0.183979
0.199455
0.00728747
0.19871
0.0102587
0.197776
0.0129157
0.19665
0.0155128
0.195331
0.0181085
0.19381
0.0207401
0.19208
0.0234389
0.190131
0.0262333
0.187953
0.0291506
0.18553
0.032224
0.182847
0.0354805
0.179888
0.038942
0.176634
0.0426391
0.173057
0.0466121
0.169122
0.0509141
0.164792
0.0555854
0.160011
0.0606975
0.15472
0.0663343
0.148852
0.0725822
0.142295
0.0795859
0.134908
0.0874983
0.126523
0.0965171
0.116959
0.106914
0.105929
0.11899
0.0931528
0.132974
0.0783465
0.149194
0.0613097
0.167166
0.0418973
0.187697
0.0214394
0.201872
0.205418
0.199469
0.00783509
0.198748
0.0109973
0.19785
0.0138324
0.196773
0.0166093
0.195512
0.0193883
0.194061
0.0222081
0.192413
0.0251014
0.190558
0.0280979
0.188483
0.0312294
0.186174
0.0345314
0.183619
0.0380286
0.180802
0.0417455
0.177705
0.0457194
0.174292
0.0500048
0.170537
0.0546478
0.166406
0.0596958
0.161844
0.0652396
0.15679
0.0713704
0.151156
0.0782013
0.144858
0.0858718
0.137769
0.0945782
0.129689
0.104592
0.120453
0.116145
0.109808
0.129632
0.0974021
0.145377
0.0829062
0.163688
0.066038
0.184032
0.0466195
0.207114
0.0254496
0.223041
0.230868
0.199486
0.00836434
0.198793
0.0117075
0.197934
0.0147092
0.196909
0.017654
0.195712
0.0206046
0.194337
0.0236008
0.192778
0.026676
0.191023
0.0298634
0.189059
0.0331992
0.186875
0.0367157
0.184461
0.040436
0.181805
0.0443908
0.17888
0.048628
0.17566
0.0532061
0.172122
0.0581655
0.168223
0.0635746
0.16392
0.0695222
0.159168
0.0761049
0.15388
0.0834744
0.147958
0.0917812
0.141309
0.101217
0.133785
0.112109
0.125183
0.124741
0.115289
0.13952
0.103793
0.15687
0.090331
0.177146
0.0744495
0.199911
0.055824
0.225738
0.0340175
0.244847
0.264885
0.199505
0.00887352
0.198842
0.0123858
0.198027
0.0155425
0.197057
0.0186432
0.195928
0.021753
0.194635
0.0249128
0.19317
0.0281572
0.191522
0.0315231
0.189679
0.0350496
0.187632
0.0387642
0.185375
0.042689
0.182893
0.0468628
0.180159
0.0513477
0.177157
0.0561914
0.173866
0.0614372
0.170249
0.0671715
0.166262
0.0734902
0.161865
0.080484
0.15702
0.088304
0.151634
0.0971534
0.145612
0.107228
0.138871
0.11884
0.131263
0.132342
0.122668
0.148108
0.112887
0.166645
0.101675
0.188353
0.0885366
0.213045
0.0730914
0.241181
0.0522681
0.265669
0.317154
0.199523
0.0093636
0.198892
0.0130311
0.198121
0.0163307
0.197208
0.0195752
0.196149
0.0228317
0.19494
0.0261418
0.193572
0.0295417
0.192035
0.0330738
0.190316
0.0367772
0.188412
0.0406706
0.18632
0.0447791
0.18402
0.049155
0.181494
0.0538613
0.178728
0.058942
0.175697
0.0644498
0.172388
0.0704622
0.168768
0.077091
0.164794
0.0844408
0.160453
0.0926293
0.155701
0.101892
0.150462
0.112455
0.144739
0.124552
0.138519
0.138551
0.131827
0.154791
0.124713
0.173751
0.117351
0.19571
0.109764
0.220628
0.102337
0.248606
0.0905821
0.277424
0.407736
0.0031135
-0.00311405
0.00709664
-0.00398582
0.0107587
-0.00367068
0.0138778
-0.00313769
0.0165265
-0.00267909
0.0188243
-0.00233699
0.0208871
-0.00210541
0.02279
-0.00194453
0.0245631
-0.00181213
0.0262064
-0.00167607
0.0276945
-0.00151245
0.0289803
-0.00130565
0.0300241
-0.00106207
0.0308052
-0.000797753
0.0313336
-0.000542729
0.0316452
-0.000322663
0.0317956
-0.00015712
0.031851
-5.69119e-05
0.0318717
-1.61334e-05
0.0319172
-3.44873e-05
0.0320358
-0.000100713
0.0322546
-0.000194111
0.0325774
-0.000291612
0.0329846
-0.000369723
0.033452
-0.000424203
0.0339561
-0.000455895
0.0344815
-0.000472779
0.0350206
-0.000482774
0.0355721
-0.000492031
-0.00050456
0.00328438
-0.00639902
0.00698162
-0.00768589
0.0105378
-0.00723574
0.0137148
-0.00633379
0.0165185
-0.00551337
0.0190305
-0.00488793
0.0213338
-0.00445049
0.0234947
-0.00414594
0.025547
-0.00390225
0.0275109
-0.00367225
0.0293848
-0.00341055
0.0311423
-0.00308278
0.0327578
-0.00269577
0.0342116
-0.00226839
0.0354844
-0.00183012
0.0365633
-0.00141284
0.0374638
-0.0010646
0.0382282
-0.000823112
0.0389142
-0.000697943
0.0395738
-0.00068332
0.040231
-0.000740357
0.0408933
-0.000831956
0.0415583
-0.000925584
0.0422213
-0.000995516
0.0428787
-0.0010386
0.0435287
-0.00105789
0.0441725
-0.00106407
0.0448095
-0.00106355
0.0454318
-0.00105503
-0.00101221
0.00321565
-0.0096153
0.006489
-0.0109623
0.00959112
-0.0103472
0.0123827
-0.00914469
0.0148666
-0.00802733
0.0170987
-0.00715751
0.0191383
-0.00652962
0.0210514
-0.00609724
0.0228736
-0.00576019
0.024627
-0.0054568
0.0263231
-0.00513053
0.027958
-0.00473734
0.0295217
-0.0042781
0.0309993
-0.00376317
0.0323795
-0.00322544
0.0336587
-0.0027039
0.0348328
-0.00224633
0.035901
-0.00189375
0.0368681
-0.00166146
0.0377405
-0.00154558
0.0385259
-0.00150889
0.0392332
-0.0015155
0.0398664
-0.00152842
0.0404326
-0.00152504
0.0409366
-0.00150022
0.0413864
-0.00146007
0.0417901
-0.00141572
0.0421554
-0.00137299
0.0424919
-0.00133249
-0.00126658
0.00318869
-0.0128047
0.00605463
-0.0138314
0.00869386
-0.012996
0.0110328
-0.0115028
0.0130863
-0.0101096
0.0148994
-0.00900525
0.0165392
-0.00820561
0.0180624
-0.00765546
0.0195125
-0.00724338
0.0209134
-0.00688721
0.0222832
-0.00652389
0.0236284
-0.00610246
0.0249454
-0.00561422
0.0262339
-0.00506956
0.027483
-0.00449039
0.0286806
-0.00391415
0.0298125
-0.00338674
0.0308638
-0.00294844
0.0318181
-0.00261316
0.0326573
-0.00237576
0.0333735
-0.00220912
0.0339608
-0.00207999
0.0344209
-0.00195897
0.034762
-0.00183029
0.034994
-0.00169061
0.0351312
-0.00155033
0.0351901
-0.00142322
0.0351933
-0.00132081
0.0351746
-0.00125524
-0.00122481
0.00314138
-0.0159468
0.00559339
-0.0162869
0.00777495
-0.0151873
0.00960783
-0.0133542
0.011144
-0.0116723
0.0124416
-0.010334
0.013594
-0.0093902
0.014655
-0.00874794
0.01567
-0.00828853
0.0166648
-0.00790973
0.0176571
-0.00753936
0.0186581
-0.00712381
0.0196667
-0.00664262
0.0206801
-0.0061016
0.0216899
-0.00551696
0.0226826
-0.00492056
0.0236329
-0.00434664
0.0245097
-0.0038297
0.0252871
-0.0033892
0.025944
-0.00302466
0.026471
-0.00272127
0.0268675
-0.00245478
0.0271432
-0.00220622
0.0273125
-0.00196476
0.0273913
-0.00172862
0.0273936
-0.00150658
0.0273316
-0.00131047
0.0272194
-0.00115397
0.0270782
-0.00105606
-0.00103197
0.00302445
-0.018972
0.00503165
-0.0182977
0.00672427
-0.0168897
0.00797429
-0.0146217
0.00889528
-0.0126171
0.00962415
-0.0110902
0.0102611
-0.0100554
0.0108546
-0.00936925
0.0114376
-0.00889878
0.012035
-0.00853293
0.0126627
-0.00818971
0.0133295
-0.00781151
0.0140373
-0.00737082
0.0147813
-0.00686516
0.0155513
-0.00630468
0.0163297
-0.00571371
0.0170942
-0.00512188
0.0178175
-0.00455866
0.0184726
-0.00404404
0.0190357
-0.00358103
0.0194906
-0.00316259
0.019832
-0.00277559
0.020062
-0.0024089
0.0201864
-0.00205538
0.0202107
-0.00171317
0.0201359
-0.00138667
0.0199601
-0.00108477
0.0196844
-0.000824485
0.0193214
-0.000635825
-0.000621941
0.00281275
-0.0217856
0.00431977
-0.0198084
0.00541722
-0.0179965
0.00596533
-0.0151856
0.00622714
-0.0128997
0.00640368
-0.0112901
0.00655533
-0.0102313
0.00672697
-0.00956537
0.00694443
-0.00914081
0.00722458
-0.00883708
0.00757762
-0.00856496
0.00800683
-0.00826191
0.00851094
-0.00789602
0.00908278
-0.00745731
0.00970875
-0.00694922
0.0103676
-0.00638834
0.0110327
-0.00579874
0.0116726
-0.00520537
0.0122544
-0.00462685
0.0127494
-0.00407054
0.0131356
-0.00353643
0.0134008
-0.00302141
0.0135408
-0.00252285
0.013557
-0.00203897
0.0134508
-0.00156824
0.0132184
-0.00111027
0.0128355
-0.00065299
0.0122594
-0.000195391
0.0115502
0.000129762
9.86031e-05
0.00249476
-0.0242812
0.00335339
-0.0206707
0.00367157
-0.0183234
0.00344882
-0.0149766
0.00308617
-0.0125546
0.00274232
-0.0109659
0.00247839
-0.0099882
0.00232257
-0.00943109
0.00228472
-0.00912511
0.00236544
-0.00894015
0.00256015
-0.0087814
0.00286095
-0.00858415
0.00325703
-0.00831364
0.0037337
-0.00795487
0.0042697
-0.00750452
0.00483839
-0.00697359
0.00540942
-0.0063825
0.00595013
-0.00575393
0.00642701
-0.00510581
0.00680944
-0.00444865
0.00707361
-0.00378948
0.00720507
-0.00313482
0.00719791
-0.00249082
0.00705034
-0.00185999
0.00675446
-0.00123489
0.0062787
-0.000591555
0.00562
5.35182e-05
0.00486023
0.000616324
0.0040682
0.000977259
0.000964948
0.00200175
-0.0262839
0.00198727
-0.0206597
0.00131633
-0.0176601
0.000316931
-0.0139889
-0.000630072
-0.0116222
-0.00141354
-0.010199
-0.00198805
-0.00943165
-0.00235936
-0.00907885
-0.00254711
-0.00895744
-0.0025725
-0.00893566
-0.00245577
-0.00891934
-0.00221902
-0.00884241
-0.00188407
-0.00867037
-0.00147302
-0.00838718
-0.00101218
-0.00798512
-0.000531873
-0.00747107
-6.31021e-05
-0.00686475
0.000363011
-0.00618877
0.000714833
-0.00546073
0.000962289
-0.00469288
0.00108072
-0.00389796
0.00105482
-0.00309209
0.000878437
-0.0022908
0.000548423
-0.0014998
6.72289e-05
-0.000717434
-0.000516056
3.35233e-05
-0.00113834
0.000722493
-0.00177977
0.00130864
-0.00242097
0.00167293
0.00171774
0.00120977
-0.0274946
-2.86967e-05
-0.0194244
-0.00177528
-0.01592
-0.00353465
-0.0122392
-0.00498745
-0.0101815
-0.0060959
-0.00910466
-0.00687094
-0.00867228
-0.00735918
-0.00860768
-0.00761131
-0.00872373
-0.00767106
-0.00889559
-0.00757548
-0.00903557
-0.00736146
-0.0090778
-0.0070586
-0.008995
-0.00669254
-0.0087746
-0.00629198
-0.00840568
-0.00588994
-0.00789068
-0.00551788
-0.00725082
-0.00520321
-0.00651286
-0.00497216
-0.00569571
-0.00485068
-0.00481211
-0.00486071
-0.00387906
-0.00501506
-0.00292205
-0.00531436
-0.00196905
-0.0057409
-0.0010443
-0.0062484
-0.000174881
-0.00679617
0.000621901
-0.00736882
0.00134068
-0.0079452
0.00193482
-0.00851498
0.00229614
0.0024011
1.93114e-05
-0.0275147
-0.00285914
-0.0165486
-0.00574939
-0.0130351
-0.00817805
-0.00981852
-0.0100209
-0.00834889
-0.0113201
-0.00781763
-0.0121699
-0.00783639
-0.0126703
-0.00812284
-0.0129023
-0.00850877
-0.0129285
-0.00888811
-0.0128031
-0.009181
-0.0125749
-0.00932705
-0.0122772
-0.00931418
-0.0119325
-0.00914059
-0.0115693
-0.00878889
-0.0112242
-0.00825347
-0.0109288
-0.00756058
-0.0107043
-0.00674725
-0.0105688
-0.00583589
-0.0105423
-0.00483714
-0.0106444
-0.003769
-0.0108835
-0.00266831
-0.0112468
-0.00158446
-0.0116961
-0.000567167
-0.0121938
0.000356659
-0.0127249
0.00119246
-0.0132743
0.00193447
-0.0138158
0.00252495
-0.0143509
0.00288362
0.00303805
-0.00211909
-0.0253964
-0.0066887
-0.0119812
-0.0107528
-0.00897554
-0.013679
-0.00689906
-0.0156968
-0.00633987
-0.0170022
-0.00652304
-0.0177733
-0.00707786
-0.0181614
-0.00774915
-0.0182843
-0.00840198
-0.0182108
-0.00897935
-0.0180009
-0.00941028
-0.0177169
-0.0096317
-0.0173937
-0.00965842
-0.0170411
-0.00951416
-0.0166831
-0.00916673
-0.0163635
-0.0085907
-0.0161163
-0.00782218
-0.0159542
-0.00691961
-0.0158833
-0.00591182
-0.0159178
-0.00480182
-0.0160763
-0.00360341
-0.0163638
-0.00236706
-0.0167574
-0.00117052
-0.0172213
-7.66406e-05
-0.0177291
0.000897234
-0.0182627
0.00176426
-0.0188008
0.00251578
-0.019321
0.00309274
-0.0198312
0.00344501
0.00363245
-0.00588681
-0.0195102
-0.0121139
-0.00575604
-0.0168671
-0.00422622
-0.0199782
-0.00379391
-0.0218716
-0.00445434
-0.0229469
-0.00545761
-0.0234575
-0.00657893
-0.0235991
-0.00762117
-0.0235274
-0.00848893
-0.0232909
-0.00923291
-0.0229356
-0.0097843
-0.0225526
-0.0100347
-0.0221792
-0.0100524
-0.021791
-0.00992283
-0.0214016
-0.00957552
-0.0210741
-0.00893554
-0.0208514
-0.00805922
-0.0207313
-0.00704994
-0.0207018
-0.00594664
-0.0207702
-0.00473309
-0.020958
-0.00340908
-0.0212733
-0.00203887
-0.0216989
-0.000725522
-0.022198
0.000448147
-0.0227324
0.00146321
-0.0232752
0.00234424
-0.0238063
0.00308895
-0.0243112
0.00364398
-0.0247981
0.00398203
0.0041844
-0.0123216
-0.00718907
-0.0190286
0.000949096
-0.024022
0.000763673
-0.0270052
-0.000816222
-0.0283275
-0.00313947
-0.0288528
-0.00494161
-0.0289207
-0.00652206
-0.0286965
-0.0078583
-0.028367
-0.00883316
-0.0279167
-0.0096996
-0.0273493
-0.0103697
-0.0268288
-0.0105745
-0.026404
-0.010497
-0.0259682
-0.0103784
-0.02551
-0.0100526
-0.0251409
-0.0093215
-0.0249287
-0.00828551
-0.0248439
-0.00714488
-0.0248412
-0.00595467
-0.0249189
-0.00465531
-0.0251149
-0.00320711
-0.0254578
-0.00168368
-0.0259328
-0.000231986
-0.0264864
0.00102648
-0.0270588
0.00206622
-0.0276118
0.00293327
-0.028134
0.00365213
-0.0286241
0.00417939
-0.0290878
0.00449467
0.00469289
-0.0243574
0.0171677
-0.0276145
0.00420431
-0.0327975
0.00594296
-0.0351199
0.00150088
-0.0345465
-0.00372002
-0.0340802
-0.00541681
-0.0338012
-0.00681165
-0.0331247
-0.00854721
-0.0324474
-0.00952453
-0.0317825
-0.0103803
-0.0309651
-0.0112045
-0.0302894
-0.0112687
-0.0298601
-0.0109453
-0.0293903
-0.0108672
-0.028814
-0.0106469
-0.0283623
-0.00978951
-0.0281594
-0.00850186
-0.0281201
-0.00719401
-0.0281379
-0.00594211
-0.0282012
-0.004592
-0.0283878
-0.00301482
-0.0287627
-0.00129699
-0.0293085
0.000331677
-0.0299391
0.00168103
-0.0305592
0.002716
-0.031118
0.00352707
-0.0316223
0.00419623
-0.0320944
0.00469565
-0.0325369
0.00498509
0.00515597
0.207192
0.00984354
0.206579
0.0136572
0.205835
0.0170915
0.204957
0.0204724
0.203943
0.0238674
0.202787
0.0273182
0.201481
0.0308654
0.200015
0.0345549
0.198385
0.0384181
0.196589
0.0424714
0.194618
0.0467505
0.192453
0.0513142
0.190089
0.0562139
0.18752
0.0614975
0.184723
0.06723
0.181683
0.0734833
0.178405
0.0803515
0.174874
0.0879537
0.171069
0.0964193
0.166994
0.105952
0.162682
0.116754
0.158228
0.128993
0.15378
0.142987
0.149569
0.15899
0.146099
0.177212
0.144247
0.197553
0.145419
0.219451
0.152178
0.241846
0.168313
0.261288
0.27405
0.302
0.21223
0.0103072
0.211646
0.0142539
0.210942
0.017811
0.210116
0.0213177
0.209164
0.0248409
0.208082
0.0284211
0.206863
0.0321041
0.205502
0.0359331
0.203999
0.039933
0.202347
0.0441301
0.200536
0.0485632
0.198559
0.0532874
0.196414
0.0583511
0.194101
0.0637978
0.191613
0.0697028
0.188941
0.0761382
0.186111
0.083164
0.183141
0.0909077
0.18003
0.0995148
0.176847
0.10912
0.173734
0.119853
0.17086
0.13185
0.168532
0.1453
0.167262
0.160247
0.167945
0.176517
0.171971
0.193518
0.18143
0.209985
0.199473
0.2238
0.227879
0.232881
0.244032
0.257898
0.217396
0.0107492
0.216847
0.0148147
0.216191
0.0184813
0.215424
0.0221027
0.214543
0.0257434
0.213547
0.0294387
0.212433
0.0332389
0.211197
0.0371869
0.209838
0.0413068
0.208347
0.0456296
0.206725
0.0501891
0.20497
0.0550406
0.203085
0.0602302
0.201074
0.0657987
0.198942
0.0718207
0.196718
0.0783476
0.194423
0.0854427
0.192093
0.0932213
0.189801
0.101792
0.187672
0.111235
0.185906
0.121604
0.184757
0.132983
0.184659
0.14538
0.186283
0.158606
0.190535
0.172252
0.19848
0.185562
0.210955
0.197504
0.227979
0.206773
0.247824
0.213035
0.217355
0.274501
0.222691
0.0111649
0.222182
0.0153344
0.22158
0.0190974
0.22088
0.0228199
0.220082
0.0265616
0.219186
0.0303568
0.21819
0.0342562
0.217093
0.0383035
0.215891
0.0425243
0.214586
0.0469449
0.213179
0.0516022
0.211672
0.0565491
0.21008
0.0618183
0.208413
0.0674577
0.206693
0.0735292
0.204967
0.0800604
0.203266
0.0871283
0.201661
0.0948121
0.20027
0.103168
0.199265
0.112226
0.198882
0.121972
0.199435
0.132411
0.201384
0.14341
0.205303
0.154669
0.211789
0.165751
0.221309
0.176031
0.233976
0.18483
0.249582
0.191162
0.268174
0.194442
0.193812
0.291717
0.228116
0.0115505
0.227653
0.0158084
0.22711
0.0196534
0.226488
0.0234585
0.225787
0.0272822
0.225002
0.0311627
0.224136
0.0351451
0.223188
0.0392717
0.222162
0.0435671
0.221066
0.0480534
0.219897
0.0527793
0.218665
0.0577845
0.217397
0.0630849
0.216113
0.0687354
0.214849
0.0747838
0.213659
0.0812396
0.2126
0.0881742
0.211771
0.0956275
0.211321
0.103604
0.211448
0.112086
0.212383
0.121022
0.214428
0.130348
0.217958
0.139859
0.223355
0.149252
0.23095
0.158138
0.240934
0.166034
0.253354
0.1724
0.268016
0.176495
0.284541
0.177914
0.175815
0.302537
0.233676
0.0119019
0.233264
0.0162307
0.232789
0.0201407
0.232254
0.0240096
0.231657
0.0278975
0.230998
0.031843
0.230274
0.0358906
0.229489
0.0400781
0.228657
0.0444177
0.227787
0.0489374
0.226878
0.0536982
0.225949
0.0587193
0.225034
0.064
0.224165
0.0696014
0.223387
0.0755543
0.222764
0.081853
0.222376
0.0885505
0.222343
0.095648
0.222821
0.103113
0.223987
0.110907
0.226042
0.118952
0.229241
0.127131
0.233849
0.135231
0.240107
0.142974
0.248193
0.150035
0.258183
0.156029
0.270034
0.160539
0.283383
0.16314
0.297637
0.163656
0.16104
0.31241
0.239375
0.0122141
0.23902
0.0165944
0.23862
0.0205514
0.238179
0.0244665
0.237696
0.0283983
0.237173
0.0323869
0.236604
0.0364817
0.235999
0.0407051
0.235379
0.0450573
0.234749
0.0495834
0.234116
0.0543424
0.233515
0.0593275
0.23298
0.0645374
0.232549
0.0700313
0.232281
0.0758167
0.232243
0.0818831
0.232529
0.0882551
0.233258
0.094908
0.234564
0.101794
0.236601
0.108857
0.239541
0.115997
0.24358
0.123074
0.248902
0.12989
0.255637
0.136221
0.263864
0.141791
0.273599
0.14628
0.2847
0.149426
0.296788
0.151043
0.309416
0.151022
0.14821
0.322244
0.245215
0.0124819
0.244923
0.016893
0.244607
0.0208781
0.244267
0.0248201
0.243908
0.0287752
0.243525
0.0327897
0.24312
0.0369083
0.242714
0.0411333
0.242322
0.0454701
0.241946
0.0499766
0.241615
0.0546878
0.241365
0.0595864
0.241225
0.0646815
0.241246
0.070011
0.241489
0.0755701
0.24202
0.0813454
0.242935
0.0873325
0.244339
0.0934941
0.246349
0.0997725
0.249101
0.106093
0.25273
0.112353
0.257375
0.118411
0.263141
0.124106
0.270098
0.129246
0.278284
0.133588
0.287639
0.136911
0.297972
0.139081
0.308995
0.140012
0.320377
0.139633
0.136845
0.331737
0.251201
0.0127001
0.250978
0.0171207
0.250751
0.0211135
0.250522
0.0250624
0.25029
0.029023
0.250056
0.033043
0.249833
0.0371524
0.249641
0.0413468
0.249486
0.0456452
0.249386
0.0500964
0.249374
0.0547159
0.24948
0.0594922
0.249737
0.0644323
0.250199
0.0695511
0.250926
0.0748403
0.251987
0.0802801
0.253467
0.0858454
0.255462
0.0914904
0.258072
0.0971519
0.261404
0.10275
0.26556
0.108183
0.270617
0.113337
0.276638
0.118067
0.283674
0.122192
0.291711
0.125536
0.300626
0.127982
0.310244
0.129451
0.320351
0.129895
0.33069
0.129285
0.126626
0.340903
0.257336
0.0128632
0.257187
0.0172716
0.257056
0.0212517
0.256942
0.0251874
0.256846
0.029134
0.256775
0.0331315
0.256748
0.037199
0.256776
0.0413394
0.256868
0.0455737
0.25705
0.0499337
0.257354
0.0544287
0.25781
0.0590505
0.258455
0.063798
0.259339
0.0686724
0.260521
0.0736583
0.262069
0.0787296
0.264056
0.083852
0.266564
0.0889748
0.269674
0.0940328
0.273467
0.0989457
0.278007
0.103631
0.283336
0.107992
0.289506
0.111882
0.296526
0.115156
0.304324
0.117723
0.312784
0.119509
0.321762
0.120462
0.331084
0.120562
0.340552
0.119808
0.117312
0.349859
0.263622
0.0129659
0.263554
0.0173402
0.263523
0.021287
0.263531
0.0251885
0.263581
0.0290969
0.263684
0.0330442
0.263855
0.0370463
0.264105
0.0411096
0.264447
0.0452505
0.26491
0.0494894
0.265525
0.053831
0.266323
0.0582673
0.267342
0.0627909
0.268629
0.0673936
0.270237
0.0720543
0.272225
0.0767411
0.274658
0.0814145
0.277602
0.0860239
0.28112
0.0905068
0.285268
0.0947891
0.290083
0.0988048
0.295598
0.102463
0.301833
0.105633
0.30875
0.108225
0.316272
0.110187
0.324301
0.111467
0.332713
0.112038
0.341367
0.111898
0.350108
0.111058
0.108734
0.358678
0.270063
0.0130035
0.27008
0.0173214
0.270155
0.021214
0.270291
0.0250591
0.270494
0.0289051
0.270774
0.0327784
0.271144
0.0366924
0.271618
0.040654
0.272213
0.0446742
0.272955
0.0487652
0.273874
0.0529282
0.275002
0.0571536
0.276376
0.061429
0.278039
0.0657397
0.280038
0.0700615
0.282421
0.0743601
0.285241
0.0785937
0.288549
0.0827109
0.292394
0.0866554
0.296809
0.0903657
0.301823
0.0937814
0.30745
0.0968238
0.313672
0.099398
0.32044
0.101445
0.327684
0.102931
0.335318
0.103823
0.343234
0.104111
0.351318
0.103804
0.359447
0.102919
0.100768
0.367405
0.276663
0.0129717
0.276769
0.0172106
0.276954
0.0210277
0.277223
0.024794
0.277582
0.0285545
0.278041
0.0323313
0.278613
0.0361355
0.279311
0.0399718
0.280156
0.0438465
0.281171
0.0477662
0.282386
0.0517293
0.283829
0.0557238
0.285537
0.0597334
0.287546
0.0637395
0.289898
0.0677156
0.292631
0.0716318
0.295778
0.0754473
0.299386
0.0791018
0.303489
0.0825475
0.308108
0.0857406
0.313255
0.0886263
0.318927
0.0911424
0.325089
0.0932252
0.331691
0.0948335
0.338668
0.0959427
0.345943
0.0965374
0.353426
0.0966176
0.361022
0.0961985
0.368633
0.0952997
0.093316
0.376079
0.283425
0.0128663
0.283623
0.0170036
0.283923
0.0207241
0.284328
0.0243898
0.284846
0.0280426
0.285485
0.0317017
0.286257
0.0353753
0.287178
0.0390648
0.288267
0.042772
0.289548
0.0465005
0.291045
0.0502462
0.292787
0.0539948
0.294805
0.0577264
0.297128
0.0614248
0.299787
0.0650639
0.302816
0.0686071
0.306248
0.0720166
0.31011
0.0752401
0.314419
0.0782355
0.319187
0.0809686
0.324413
0.0833943
0.330082
0.0854666
0.336155
0.0871432
0.342584
0.0883958
0.34931
0.0892083
0.356263
0.0895757
0.363367
0.0895045
0.370545
0.0890128
0.377716
0.0881208
0.0862969
0.384728
0.290352
0.0126838
0.290646
0.0166969
0.291063
0.0203001
0.291606
0.0238442
0.292283
0.0273687
0.293101
0.0308899
0.294072
0.0344131
0.295212
0.0379361
0.296539
0.0414576
0.298074
0.0449784
0.299841
0.0484917
0.301861
0.0519861
0.304156
0.0554416
0.306756
0.0588332
0.309688
0.0621383
0.312979
0.0653201
0.316655
0.0683425
0.320725
0.07117
0.325195
0.0737647
0.330066
0.0760948
0.335329
0.0781268
0.340963
0.0798268
0.346933
0.0811674
0.353191
0.0821311
0.359682
0.0827095
0.366347
0.0829035
0.37312
0.0827236
0.379937
0.0821886
0.386732
0.0813183
0.0796459
0.393377
0.297448
0.0124208
0.297841
0.0162872
0.298377
0.0197534
0.299059
0.0231568
0.299892
0.0265345
0.300887
0.0298981
0.302056
0.0332501
0.303413
0.0365874
0.304969
0.039911
0.306741
0.0432172
0.308753
0.0464894
0.311027
0.0497219
0.313578
0.0528996
0.31643
0.0559881
0.319609
0.0589642
0.32313
0.0618032
0.327002
0.0644723
0.331233
0.0669401
0.33582
0.0691762
0.340758
0.0711548
0.346032
0.0728502
0.351616
0.0742382
0.357477
0.0753022
0.36357
0.0760325
0.369846
0.0764267
0.376254
0.0764897
0.382737
0.0762336
0.389242
0.0756771
0.395715
0.0748388
0.0733095
0.402046
0.304716
0.0120743
0.305212
0.0157713
0.305869
0.0190811
0.306688
0.0223279
0.307674
0.0255445
0.30884
0.0287312
0.310202
0.0318909
0.311766
0.035028
0.31354
0.0381437
0.315538
0.0412272
0.317779
0.0442559
0.320285
0.0472232
0.323073
0.0501179
0.326156
0.0529109
0.329546
0.0555783
0.333255
0.0580969
0.337288
0.0604408
0.341645
0.0625836
0.346318
0.0645013
0.351297
0.0661742
0.356563
0.0675829
0.362088
0.0687102
0.367839
0.069547
0.373777
0.0700898
0.379858
0.0703401
0.386037
0.0703053
0.392267
0.0699983
0.398501
0.0694368
0.404696
0.0686378
0.0672434
0.410757
0.31216
0.0116428
0.312758
0.0151484
0.313535
0.0182853
0.314489
0.0213598
0.315629
0.0243963
0.316966
0.0273896
0.318511
0.0303451
0.320268
0.0332722
0.322247
0.0361681
0.324461
0.0390174
0.326921
0.0418002
0.329642
0.0445068
0.332639
0.0471252
0.335921
0.0496331
0.339493
0.0520082
0.343362
0.0542298
0.347527
0.0562765
0.351982
0.0581275
0.356718
0.0597639
0.361718
0.0611717
0.366962
0.0623368
0.372423
0.0632467
0.378069
0.0638979
0.383864
0.0642908
0.389769
0.0644299
0.395745
0.0643239
0.401752
0.0639858
0.407751
0.0634318
0.413706
0.0626775
0.0614104
0.419534
0.319782
0.0111264
0.32048
0.0144206
0.321374
0.0173679
0.322465
0.0202509
0.323761
0.0230874
0.325266
0.0258757
0.326985
0.0286209
0.328926
0.031329
0.331098
0.0339953
0.333511
0.0366051
0.336173
0.0391408
0.33909
0.0415907
0.342275
0.0439425
0.345731
0.0461781
0.349461
0.0482786
0.353464
0.0502259
0.357737
0.0520028
0.362269
0.0535929
0.367048
0.0549819
0.372056
0.0561606
0.377272
0.0571189
0.382668
0.057848
0.388214
0.0583479
0.393879
0.0586222
0.399627
0.0586768
0.405424
0.058521
0.411237
0.0581673
0.417032
0.0576307
0.422779
0.0569252
0.0557785
0.428406
0.327585
0.0105255
0.328383
0.0135888
0.329395
0.0163274
0.330623
0.0190004
0.33207
0.0216238
0.333735
0.0241973
0.335623
0.0267239
0.33774
0.0292056
0.340094
0.0316368
0.342691
0.0340046
0.345536
0.036294
0.348632
0.0384927
0.351985