/*--------------------------------*- C++ -*----------------------------------*\
| =========                 |                                                 |
| \\      /  F ield         | OpenFOAM: The Open Source CFD Toolbox           |
|  \\    /   O peration     | Version:  dev                                   |
|   \\  /    A nd           | Web:      www.OpenFOAM.org                      |
|    \\/     M anipulation  |                                                 |
\*---------------------------------------------------------------------------*/
FoamFile
{
    version     2.0;
    format      ascii;
    class       surfaceVectorField;
    location    "4.86";
    object      Uf;
}
// * * * * * * * * * * * * * * * * * * * * * * * * * * * * * * * * * * * * * //

dimensions      [0 1 -1 0 0 0 0];

internalField   nonuniform List<vector> 
5457
(
(9.91367 0 0.0222737)
(9.96534 1.87029e-21 0.0371665)
(9.81913 0 0.0282249)
(9.92714 -1.93469e-21 0.0420386)
(9.71347 -2.14627e-21 0.0330084)
(9.86475 -1.60874e-20 0.0487361)
(9.59431 9.07595e-21 0.0379574)
(9.78088 6.29548e-21 0.0570108)
(9.4615 6.07138e-21 0.0430976)
(9.68144 -1.52031e-20 0.0658674)
(9.31506 -4.51563e-21 0.048484)
(9.56819 -1.36596e-20 0.0752491)
(9.15465 -1.02001e-20 0.0542468)
(9.44053 4.73287e-21 0.0853705)
(8.97963 7.13178e-22 0.0605153)
(9.29752 -1.24937e-25 0.096424)
(8.78919 -9.53341e-22 0.0674103)
(9.1384 -1.02311e-20 0.108588)
(8.58234 7.63693e-22 0.0750522)
(8.96235 -1.09411e-20 0.122043)
(8.35793 1.11238e-20 0.08357)
(8.76839 5.67663e-20 0.136978)
(8.11466 1.9815e-22 0.0931048)
(8.55532 -9.45153e-20 0.153603)
(7.85109 1.91621e-22 0.103808)
(8.32183 4.93211e-20 0.172144)
(7.56566 0 0.11584)
(8.06642 -5.21493e-20 0.192829)
(7.25673 0 0.129371)
(7.78753 4.70863e-20 0.215893)
(6.92262 0 0.144578)
(7.48346 0 0.241563)
(6.56161 0 0.161642)
(7.15249 1.20193e-19 0.27005)
(6.17207 0 0.180734)
(6.79289 -1.24087e-19 0.301528)
(5.7525 1.7755e-20 0.201995)
(6.40297 -3.27313e-20 0.336095)
(5.30171 -1.41008e-21 0.225518)
(5.98124 4.34883e-22 0.373716)
(4.81894 2.0956e-20 0.251315)
(5.52647 -3.64777e-20 0.414169)
(4.3041 -2.9082e-21 0.279289)
(5.03793 1.24976e-21 0.456974)
(3.75798 -3.9714e-20 0.309178)
(4.51551 -1.50271e-21 0.501292)
(3.18254 0 0.340478)
(3.95997 -3.31044e-19 0.545799)
(2.58131 0 0.372295)
(3.37327 3.39931e-19 0.588468)
(1.9599 3.77683e-19 0.403046)
(2.75883 0 0.626223)
(1.32686 -5.72148e-21 0.428654)
(2.12199 4.65258e-19 0.654333)
(0.695697 -2.84727e-19 0.409629)
(1.47348 -3.79392e-19 0.66369)
(0.111048 1.96761e-19 0.0581194)
(0.764629 7.02025e-21 0.605559)
(0.308791 -1.77652e-18 0.123564)
(10.0025 -1.84299e-22 0.0447812)
(9.99549 1.87045e-21 0.0360612)
(9.9734 -1.82974e-20 0.0585403)
(9.98553 -1.93484e-21 0.0549708)
(9.92702 -7.21933e-21 0.0703862)
(9.95473 -4.20871e-23 0.0701033)
(9.8648 -1.83658e-20 0.0831296)
(9.90277 -8.37475e-21 0.0867532)
(9.78658 -3.49032e-20 0.096789)
(9.83437 2.61569e-20 0.104637)
(9.69228 -4.07714e-21 0.11143)
(9.75144 -2.71826e-20 0.12368)
(9.58165 1.48478e-20 0.127315)
(9.65367 2.36736e-20 0.144222)
(9.4542 -1.11298e-20 0.144726)
(9.54025 -1.98078e-20 0.166625)
(9.30922 -2.02325e-20 0.16394)
(9.41052 2.04501e-20 0.191249)
(9.14581 4.62283e-20 0.185237)
(9.26381 5.40437e-20 0.21846)
(8.9629 -5.14636e-20 0.20892)
(9.09923 7.35904e-22 0.248639)
(8.75927 -4.2956e-20 0.235314)
(8.91571 -9.74652e-20 0.282215)
(8.53353 -4.70822e-21 0.264763)
(8.71207 1.47907e-19 0.319648)
(8.28416 -3.40815e-21 0.297619)
(8.48694 -1.54313e-19 0.361409)
(8.00953 4.63187e-20 0.334233)
(8.23884 4.71306e-20 0.407991)
(7.7079 1.22148e-19 0.374947)
(7.96614 0 0.459885)
(7.3775 -7.77039e-21 0.420066)
(7.66716 3.87557e-19 0.51756)
(7.01652 -1.55381e-19 0.469816)
(7.34011 -3.69457e-19 0.58143)
(6.62326 -4.96948e-20 0.524274)
(6.98319 -1.66636e-22 0.651775)
(6.19618 -3.51427e-20 0.583296)
(6.5946 5.03663e-20 0.728641)
(5.73406 -5.59655e-20 0.646416)
(6.1727 8.84711e-20 0.81173)
(5.23617 2.78297e-21 0.712729)
(5.71603 -6.34847e-19 0.90025)
(4.70246 -2.96381e-19 0.780726)
(5.22349 6.53467e-19 0.992731)
(4.13378 1.55201e-20 0.848029)
(4.69438 -3.30893e-19 1.08675)
(3.53228 3.36372e-19 0.910927)
(4.12864 -4.98269e-19 1.17846)
(2.90199 9.15468e-20 0.9634)
(3.52674 -5.28578e-19 1.26175)
(2.24999 9.04659e-20 0.993853)
(2.88944 1.41575e-18 1.3263)
(1.59002 -9.31975e-20 0.971013)
(2.22014 -1.63458e-18 1.35045)
(0.929727 -2.01894e-18 0.854085)
(1.46671 2.83089e-18 1.2832)
(0.900022 -3.07454e-18 1.04174)
(9.99533 0 0.0488383)
(9.99317 5.95785e-20 0.0380808)
(9.96981 1.63892e-20 0.0697937)
(9.98067 7.72068e-21 0.0663431)
(9.9271 -1.32659e-21 0.0893535)
(9.951 8.06548e-21 0.0898441)
(9.8698 3.67974e-20 0.11038)
(9.90208 -1.67795e-20 0.114215)
(9.79812 3.29105e-20 0.133069)
(9.8374 3.48731e-20 0.140246)
(9.71192 1.48176e-21 0.157548)
(9.75896 -5.03102e-23 0.168048)
(9.61098 -1.17524e-20 0.184167)
(9.66678 3.79468e-20 0.19802)
(9.49494 1.24873e-20 0.213341)
(9.56015 -2.94767e-20 0.230652)
(9.36322 9.53164e-20 0.245509)
(9.43854 1.63762e-22 0.26647)
(9.21506 7.6179e-21 0.281125)
(9.30141 4.33281e-20 0.306001)
(9.04958 -4.69571e-20 0.320685)
(9.14805 3.41207e-20 0.349801)
(8.86572 9.7547e-20 0.364734)
(8.9776 -9.2939e-20 0.398495)
(8.66228 -6.74396e-21 0.413846)
(8.7891 1.98642e-19 0.452751)
(8.43793 -1.00475e-19 0.468626)
(8.58145 -2.03615e-19 0.513271)
(8.19122 1.87182e-23 0.529691)
(8.35344 -2.21641e-19 0.5808)
(7.92053 2.71665e-19 0.597653)
(8.10372 2.21703e-19 0.656103)
(7.62416 1.39512e-20 0.673087)
(7.8308 2.38161e-19 0.73994)
(7.3003 -2.08623e-19 0.756465)
(7.53312 -2.45423e-19 0.833026)
(6.94706 1.00536e-19 0.848047)
(7.20897 3.24295e-20 0.935936)
(6.56254 1.74343e-19 0.947755)
(6.85653 5.77028e-22 1.04897)
(6.14486 -5.00925e-19 1.05502)
(6.47385 -5.25421e-19 1.172)
(5.69226 3.19597e-20 1.16859)
(6.05892 -6.69361e-19 1.30429)
(5.2031 6.06213e-19 1.28626)
(5.60952 6.13753e-19 1.44423)
(4.67591 -8.46947e-19 1.40449)
(5.1232 -1.26534e-18 1.589)
(4.10931 -1.36484e-18 1.51769)
(4.59708 6.21456e-19 1.73403)
(3.50161 8.05486e-19 1.61713)
(4.02723 -6.96404e-19 1.87216)
(2.84899 -3.17748e-19 1.68895)
(3.40709 2.53443e-18 1.9926)
(2.13691 1.28944e-18 1.71038)
(2.72904 -2.68014e-18 2.07893)
(1.3097 1.73249e-18 1.67428)
(1.93364 2.90694e-18 2.11524)
(1.16911 -1.15868e-18 2.10367)
(9.99076 6.63967e-20 0.0560999)
(9.99177 -5.9355e-20 0.0420705)
(9.96543 -6.42107e-22 0.0857896)
(9.97729 7.72223e-21 0.0776363)
(9.9236 -7.86112e-21 0.113977)
(9.94742 -8.01456e-21 0.10919)
(9.86731 -1.77726e-20 0.143341)
(9.89957 0 0.141214)
(9.79711 1.268e-21 0.17455)
(9.83626 -1.74503e-20 0.175155)
(9.71296 3.71124e-20 0.207977)
(9.75951 5.41504e-20 0.211395)
(9.61476 1.90195e-20 0.244121)
(9.66955 1.90346e-20 0.250412)
(9.50223 -4.12863e-20 0.283556)
(9.56575 7.91372e-20 0.292809)
(9.37495 -5.1102e-20 0.32689)
(9.44766 -1.4272e-19 0.339237)
(9.23236 6.96553e-20 0.374751)
(9.3149 -1.07289e-20 0.390359)
(9.07377 -1.40199e-20 0.42782)
(9.1669 9.00211e-20 0.446887)
(8.89837 1.29756e-20 0.486831)
(9.00297 9.67882e-20 0.509593)
(8.7053 -4.9181e-21 0.55257)
(8.82241 -2.89439e-19 0.579298)
(8.49355 -3.25103e-19 0.625878)
(8.62439 1.02848e-19 0.656893)
(8.26204 7.14343e-21 0.707637)
(8.40803 -1.95345e-19 0.743341)
(8.00952 1.88528e-19 0.798748)
(8.17231 -6.26792e-22 0.839645)
(7.73465 -2.88014e-20 0.900097)
(7.91611 1.99817e-19 0.946828)
(7.43595 0 1.01249)
(7.63821 -3.00043e-20 1.06591)
(7.11177 -6.79253e-20 1.13654)
(7.33725 0 1.1978)
(6.76027 -7.06598e-19 1.27248)
(7.01165 4.61528e-19 1.34317)
(6.37937 -6.97001e-19 1.42004)
(6.65955 -1.17453e-18 1.50225)
(5.96667 -7.14132e-20 1.57814)
(6.27871 -8.34036e-22 1.67474)
(5.51929 -1.27977e-18 1.74466)
(5.86633 -1.46916e-19 1.85943)
(5.03352 2.1757e-19 1.91601)
(5.41867 -1.2641e-18 2.05391)
(4.50431 1.27494e-18 2.08671)
(4.93058 1.45576e-18 2.25422)
(3.92386 1.05092e-18 2.24871)
(4.39458 -1.68214e-19 2.45449)
(3.27909 1.60693e-19 2.39137)
(3.79902 1.37632e-18 2.64694)
(2.54501 -1.05368e-18 2.50124)
(3.13054 -4.10324e-18 2.82255)
(1.68596 -2.81111e-21 2.59661)
(2.3459 5.45143e-18 2.97247)
(1.45029 -3.49713e-18 3.16343)
(9.98842 -1.16894e-19 0.0642097)
(9.99108 -5.96239e-20 0.0470669)
(9.96267 0 0.101285)
(9.97549 0 0.0891221)
(9.92159 0 0.136986)
(9.94549 -6.37666e-20 0.1282)
(9.86632 0 0.173857)
(9.89861 -3.32917e-20 0.167739)
(9.7975 3.67448e-20 0.212945)
(9.83678 1.0368e-19 0.209402)
(9.7152 3.54462e-20 0.254836)
(9.76186 -7.17508e-20 0.253824)
(9.61935 8.01871e-20 0.300147)
(9.67417 0 0.301602)
(9.50967 -2.61945e-20 0.349557)
(9.57314 -3.85617e-20 0.35345)
(9.38585 -1.00108e-19 0.403781)
(9.45837 1.97813e-20 0.410112)
(9.24744 1.13247e-20 0.463571)
(9.32957 0 0.472364)
(9.09385 2.00927e-19 0.529734)
(9.18623 1.11413e-20 0.54106)
(8.92447 -2.12036e-19 0.603131)
(9.02782 1.8694e-19 0.617086)
(8.73862 -1.75403e-19 0.684684)
(8.8538 -3.95552e-19 0.701374)
(8.53559 2.27972e-19 0.775407)
(8.66351 4.03053e-19 0.794962)
(8.31458 -1.99984e-19 0.87638)
(8.45632 -4.11469e-19 0.898989)
(8.07468 1.35805e-20 0.988728)
(8.23149 -1.94629e-20 1.01465)
(7.8149 1.95197e-19 1.1136)
(7.98816 2.57556e-19 1.1432)
(7.53414 -2.95666e-20 1.25212)
(7.72545 -2.97817e-20 1.28592)
(7.23108 5.36181e-19 1.40524)
(7.44231 -4.97563e-19 1.44406)
(6.90416 -2.869e-20 1.57363)
(7.13747 1.55764e-18 1.61867)
(6.55139 -4.63467e-19 1.75754)
(6.80929 -1.0745e-18 1.8105)
(6.17015 -7.81302e-20 1.95653)
(6.4556 7.14428e-20 2.01988)
(5.75692 -1.45248e-19 2.16914)
(6.0734 -1.4492e-19 2.24642)
(5.30667 0 2.39265)
(5.6584 1.19503e-18 2.48878)
(4.81196 0 2.62292)
(5.20436 1.12689e-20 2.74441)
(4.2617 1.68056e-19 2.85442)
(4.70208 -1.25076e-18 3.00953)
(3.63986 -2.88752e-18 3.08098)
(4.13819 1.66992e-19 3.27933)
(2.9212 2.29859e-18 3.29155)
(3.49566 -3.03823e-18 3.54974)
(2.10106 1.5724e-18 3.51604)
(2.77176 2.81803e-18 3.79379)
(1.77451 -2.62995e-19 4.16253)
(9.98729 5.83461e-20 0.0727101)
(9.99077 5.93928e-20 0.0525499)
(9.96125 -6.5012e-20 0.116595)
(9.97468 -1.5315e-20 0.100739)
(9.92098 -9.64943e-20 0.159571)
(9.94484 1.57905e-20 0.146849)
(9.86704 7.29022e-20 0.203951)
(9.89904 -9.9406e-20 0.193652)
(9.79997 -8.00091e-21 0.250925)
(9.83897 1.03488e-19 0.242804)
(9.71992 -1.05948e-19 0.301218)
(9.76626 -3.62837e-20 0.295144)
(9.62677 -1.19456e-19 0.355547)
(9.68124 -7.4873e-20 0.351399)
(9.52034 8.39579e-21 0.414683)
(9.5834 -3.99727e-20 0.412375)
(9.40034 1.19619e-19 0.479432)
(9.47244 1.42335e-19 0.478906)
(9.26637 0 0.55066)
(9.34805 1.06417e-19 0.55187)
(9.11798 0 0.629295)
(9.2098 -1.74496e-19 0.632226)
(8.95466 -6.0892e-21 0.716305)
(9.05734 2.06466e-19 0.720966)
(8.77587 1.95932e-19 0.812735)
(8.89017 -3.92532e-19 0.819127)
(8.58105 -2.49376e-19 0.919741)
(8.70775 3.95837e-19 0.92786)
(8.36963 -2.25033e-19 1.03857)
(8.50964 -4.31789e-19 1.04844)
(8.14093 2.28897e-19 1.17054)
(8.29531 2.03388e-19 1.18222)
(7.89421 2.81519e-20 1.31705)
(8.06406 2.81203e-20 1.33068)
(7.62861 -5.04628e-19 1.4795)
(7.81521 2.94798e-20 1.49534)
(7.34312 5.52188e-19 1.6592)
(7.54799 -1.0457e-18 1.67774)
(7.03646 4.77708e-19 1.85728)
(7.26139 1.59218e-18 1.87934)
(6.70681 -5.24927e-19 2.07458)
(6.95395 -5.31655e-19 2.10143)
(6.35161 1.86755e-21 2.31151)
(6.62372 0 2.34509)
(5.96716 1.2085e-18 2.56775)
(6.26778 1.42394e-19 2.61097)
(5.54801 1.19837e-18 2.84208)
(5.88178 2.34829e-18 2.89908)
(5.08612 -1.2421e-18 3.13204)
(5.45944 -1.16341e-18 3.20862)
(4.56971 -1.24527e-18 3.43421)
(4.9915 -3.66376e-18 3.53765)
(3.9835 3.5278e-21 3.74542)
(4.46529 2.29041e-18 3.88267)
(3.30176 -2.56854e-18 4.05067)
(3.85667 1.59959e-19 4.24399)
(2.54616 1.05124e-18 4.37923)
(3.2241 -5.00639e-18 4.55851)
(2.1392 5.82882e-18 5.07841)
(9.98681 -1.55848e-20 0.0813897)
(9.99068 0 0.0582375)
(9.9608 6.61664e-20 0.13173)
(9.97449 4.55819e-20 0.112352)
(9.92148 1.07088e-20 0.181662)
(9.94512 7.96003e-20 0.165076)
(9.86911 -6.51256e-20 0.233282)
(9.90064 -1.27969e-22 0.218835)
(9.80412 7.26903e-20 0.287831)
(9.84256 -6.88799e-20 0.275208)
(9.72666 -5.86167e-21 0.346172)
(9.77239 7.16332e-20 0.335171)
(9.63668 5.27235e-21 0.409131)
(9.69044 -1.11942e-19 0.399574)
(9.53401 9.71558e-20 0.477572)
(9.59626 7.71873e-20 0.469307)
(9.41841 1.28496e-19 0.5524)
(9.48962 1.40834e-19 0.545295)
(9.28952 -7.27603e-20 0.634578)
(9.37023 8.5561e-20 0.628516)
(9.14698 3.81344e-20 0.725127)
(9.23774 -1.74626e-19 0.720004)
(8.99039 -1.89586e-19 0.825117)
(9.0919 1.83961e-19 0.820842)
(8.81929 -1.80418e-19 0.935692)
(8.93229 -3.75074e-19 0.932174)
(8.63325 2.00717e-19 1.05812)
(8.75847 1.97264e-19 1.05524)
(8.43183 6.47498e-21 1.19378)
(8.57014 6.47838e-21 1.19143)
(8.21455 -1.31165e-22 1.34419)
(8.36688 -4.12612e-19 1.34226)
(7.98079 2.94517e-20 1.51096)
(8.14812 4.09615e-19 1.50941)
(7.7299 -5.26681e-19 1.69573)
(7.91335 4.88857e-19 1.69461)
(7.46108 2.89174e-20 1.90017)
(7.66198 -9.59924e-19 1.89969)
(7.17323 5.55796e-19 2.12592)
(7.39321 5.62308e-19 2.12652)
(6.86477 0 2.37446)
(7.10575 -1.02056e-18 2.37697)
(6.53333 1.41945e-19 2.64705)
(6.79787 -1.04266e-18 2.65287)
(6.17539 1.30332e-18 2.94462)
(6.46696 1.40498e-19 2.9559)
(5.78563 -3.44008e-20 3.26763)
(6.10892 1.15364e-18 3.28746)
(5.35647 -3.59386e-18 3.61542)
(5.71792 -1.17359e-18 3.64847)
(4.87701 -1.30678e-19 3.9856)
(5.2854 -2.41149e-18 4.03853)
(4.33395 2.44447e-18 4.37596)
(4.80122 2.43073e-18 4.45364)
(3.69831 -2.25509e-18 4.76463)
(4.22779 2.47733e-18 4.89978)
(3.00904 8.56521e-19 5.17192)
(3.69929 -4.7671e-18 5.26564)
(2.53473 2.65867e-18 5.91222)
(9.98671 6.19758e-20 0.0900816)
(9.99071 -7.34238e-21 0.0639698)
(9.96105 5.97361e-20 0.146577)
(9.97474 2.28972e-20 0.123818)
(9.92289 6.72571e-20 0.203115)
(9.94614 4.72731e-20 0.182778)
(9.87235 -5.13072e-21 0.261667)
(9.9032 9.86687e-20 0.243164)
(9.80974 -6.74329e-20 0.323487)
(9.84737 -3.46402e-20 0.306467)
(9.73524 -3.76894e-20 0.389548)
(9.78006 0 0.373728)
(9.64883 -3.67366e-20 0.460776)
(9.70155 -7.37241e-20 0.445912)
(9.55038 1.21953e-19 0.538123)
(9.61146 -7.69879e-20 0.524)
(9.4397 9.6961e-20 0.622579)
(9.50959 2.80343e-19 0.608991)
(9.31652 -2.05947e-20 0.715193)
(9.39575 -1.85945e-19 0.701949)
(9.18053 -2.30362e-20 0.817068)
(9.26966 1.7305e-19 0.803988)
(9.0314 -1.03386e-20 0.929359)
(9.13112 -4.32468e-20 0.91627)
(8.86878 1.16202e-20 1.0533)
(8.97981 -1.73253e-19 1.04002)
(8.69236 0 1.19027)
(8.81542 0 1.17657)
(8.50182 -4.18955e-19 1.34177)
(8.63776 6.24214e-21 1.3274)
(8.29674 8.52323e-21 1.5095)
(8.44647 -4.13209e-19 1.49423)
(8.07663 8.70602e-19 1.69527)
(8.24109 -2.37032e-20 1.67892)
(7.84102 3.69897e-20 1.90095)
(8.02124 9.18881e-19 1.88336)
(7.58928 -4.07528e-19 2.12857)
(7.7865 -4.12155e-19 2.10965)
(7.32049 -1.03358e-18 2.38024)
(7.53625 -6.09058e-20 2.36012)
(7.03323 -2.0659e-18 2.65817)
(7.26936 -1.02167e-18 2.63721)
(6.72542 -1.03317e-18 2.96454)
(6.98442 -2.1232e-18 2.94355)
(6.39395 0 3.30136)
(6.67912 1.03501e-18 3.28176)
(6.03404 0 3.6705)
(6.34978 2.12641e-18 3.65447)
(5.63871 0 4.07305)
(5.99133 -2.22084e-18 4.06414)
(5.19816 1.47157e-19 4.50711)
(5.59559 0 4.51173)
(4.70142 2.46075e-18 4.97016)
(5.15641 1.46838e-19 4.99167)
(4.11414 1.75832e-19 5.43283)
(4.6163 2.38103e-18 5.51796)
(3.48102 -2.23696e-18 5.90244)
(4.19228 -2.20679e-18 5.92495)
(2.95265 -3.57004e-20 6.68266)
(9.98691 -4.58237e-20 0.0986526)
(9.99085 -7.34548e-21 0.0696165)
(9.96187 1.08438e-20 0.161027)
(9.97535 -3.80423e-20 0.135011)
(9.92505 7.96592e-20 0.223825)
(9.94777 -1.41149e-19 0.19988)
(9.87656 6.67008e-20 0.288979)
(9.90652 -6.5487e-20 0.266536)
(9.81665 3.34429e-20 0.357748)
(9.85321 1.3569e-19 0.336423)
(9.74546 -3.73275e-20 0.431176)
(9.78909 -7.07436e-20 0.410632)
(9.66301 -1.14051e-19 0.510282)
(9.71436 1.09776e-19 0.490217)
(9.5692 8.73979e-20 0.596087)
(9.62875 -1.14522e-19 0.576229)
(9.46393 -1.02604e-20 0.689659)
(9.53211 1.60199e-19 0.669731)
(9.347 1.34553e-20 0.792128)
(9.42431 -1.24206e-19 0.771856)
(9.21818 1.49527e-19 0.904678)
(9.30518 3.01972e-19 0.883809)
(9.07721 -2.08227e-19 1.02854)
(9.17457 -1.74563e-19 1.00683)
(8.92385 -1.82399e-19 1.16502)
(9.03227 1.83718e-19 1.14219)
(8.75791 6.33655e-21 1.31557)
(8.87814 -3.79025e-19 1.29129)
(8.57917 6.15804e-21 1.48188)
(8.71199 5.5822e-23 1.45574)
(8.38728 -4.40252e-19 1.66581)
(8.53353 0 1.63747)
(8.18186 3.59292e-20 1.86933)
(8.34255 -9.69203e-21 1.83847)
(7.96257 4.53376e-19 2.09455)
(8.13878 7.32396e-21 2.0608)
(7.72894 -6.08647e-20 2.34385)
(7.92186 1.39907e-20 2.30685)
(7.48026 -5.95269e-20 2.61983)
(7.69135 -4.58258e-20 2.57936)
(7.21535 -1.09049e-18 2.92537)
(7.44638 0 2.88134)
(6.93242 -2.94267e-20 3.26357)
(7.18591 -1.01942e-18 3.21617)
(6.62877 3.16976e-18 3.63753)
(6.90794 1.06711e-18 3.58748)
(6.30036 -1.07953e-19 4.05036)
(6.60918 2.1283e-18 3.99906)
(5.94086 -2.21425e-18 4.50451)
(6.28558 -2.15676e-18 4.4547)
(5.5408 0 4.99862)
(5.92858 -3.16663e-20 4.95677)
(5.09106 6.68328e-20 5.5297)
(5.53703 2.04553e-18 5.49762)
(4.55119 1.99761e-19 6.06207)
(5.02832 -4.08085e-18 6.10232)
(3.96046 8.89114e-20 6.58952)
(4.70298 4.0355e-18 6.55091)
(3.39026 -2.22189e-18 7.4163)
(9.98732 0 0.106991)
(9.99103 -1.1625e-19 0.0750847)
(9.96315 -1.92117e-19 0.174987)
(9.97621 0 0.145831)
(9.92783 -2.84955e-19 0.24371)
(9.94988 -6.32377e-20 0.216305)
(9.88158 7.10971e-21 0.315104)
(9.91053 -1.63064e-19 0.288863)
(9.82463 2.78355e-20 0.390453)
(9.85993 3.4071e-20 0.364952)
(9.75708 7.95402e-20 0.470865)
(9.79924 -7.07899e-20 0.445725)
(9.67894 1.05577e-19 0.557421)
(9.72862 1.46574e-19 0.532296)
(9.59021 -3.72068e-20 0.651203)
(9.64787 1.89467e-19 0.625764)
(9.49081 4.16183e-20 0.753341)
(9.5569 -1.56236e-19 0.727246)
(9.38065 1.7116e-19 0.865043)
(9.45561 2.08474e-22 0.837941)
(9.25955 -2.95776e-20 0.987565)
(9.34392 2.13213e-19 0.959134)
(9.12738 2.22952e-19 1.1222)
(9.2218 -5.05311e-19 1.09211)
(8.98403 -2.08091e-20 1.2703)
(9.08915 7.30149e-19 1.2382)
(8.82939 -3.80226e-19 1.43345)
(8.94604 -7.56258e-19 1.39887)
(8.66326 -6.11299e-21 1.61346)
(8.79218 1.44972e-20 1.57589)
(8.48546 4.30868e-19 1.81238)
(8.62737 3.99179e-19 1.77132)
(8.29584 -3.75102e-20 2.03231)
(8.45179 4.38567e-19 1.98727)
(8.09415 -4.33059e-19 2.2756)
(8.26522 3.93469e-19 2.226)
(7.88003 2.84139e-20 2.54498)
(8.06746 -1.60222e-22 2.49019)
(7.65295 1.4267e-20 2.84354)
(7.85826 -1.7996e-18 2.78301)
(7.41209 6.21783e-20 3.17479)
(7.63705 9.18418e-19 3.10794)
(7.15609 9.22746e-20 3.54264)
(7.40308 6.17226e-20 3.46904)
(6.88257 3.06665e-20 3.95138)
(7.15479 6.98024e-22 3.87104)
(6.58806 6.51663e-20 4.40544)
(6.88946 0 4.31896)
(6.2672 3.30766e-20 4.90846)
(6.60384 1.99555e-18 4.81785)
(5.91007 2.0145e-18 5.45988)
(6.28875 -1.94279e-18 5.37198)
(5.50781 -2.15193e-18 6.05735)
(5.9484 4.06335e-18 5.97193)
(5.01439 -5.06521e-19 6.66144)
(5.47188 -4.18582e-18 6.65647)
(4.45404 7.89579e-19 7.25533)
(5.23847 2.2245e-18 7.15848)
(3.85297 -7.00788e-20 8.14285)
(9.98784 -1.14252e-19 0.115013)
(9.99122 -2.29831e-22 0.0803322)
(9.96474 1.27728e-19 0.188364)
(9.97721 -2.99872e-20 0.156182)
(9.93115 5.68722e-20 0.262678)
(9.95232 1.87602e-19 0.231949)
(9.88735 -1.32571e-19 0.339939)
(9.9151 1.61336e-19 0.310048)
(9.83356 -6.64413e-20 0.421474)
(9.8674 -1.34624e-19 0.391953)
(9.76989 0 0.50845)
(9.81033 0 0.478878)
(9.6964 2.31198e-19 0.601994)
(9.74409 -3.81189e-22 0.571976)
(9.61314 6.48339e-20 0.703237)
(9.66852 7.71335e-20 0.672389)
(9.52006 -1.9526e-19 0.813366)
(9.58361 -1.52658e-21 0.781292)
(9.4171 4.55077e-20 0.93365)
(9.48924 -1.21052e-19 0.899946)
(9.30422 -2.73553e-19 1.0654)
(9.38542 4.25864e-20 1.02967)
(9.1814 1.98793e-20 1.20993)
(9.27229 -3.51591e-19 1.17179)
(9.04872 -2.64732e-20 1.36869)
(9.14993 3.61197e-19 1.32762)
(8.90611 -3.51122e-19 1.54337)
(9.01843 -6.77291e-21 1.49881)
(8.75338 4.24881e-19 1.73594)
(8.87748 -3.82721e-19 1.68731)
(8.59055 4.0758e-19 1.9485)
(8.72721 7.94243e-19 1.89515)
(8.41772 8.69734e-19 2.18334)
(8.56795 -4.02848e-19 2.12454)
(8.23483 8.2486e-19 2.44304)
(8.39964 1.69505e-18 2.37799)
(8.04174 -1.84639e-18 2.73068)
(8.22231 -8.30761e-19 2.65846)
(7.83814 -8.74388e-19 3.04982)
(8.03602 -2.66436e-18 2.96947)
(7.62343 9.12593e-19 3.40452)
(7.84067 1.80711e-18 3.31508)
(7.39675 -3.03544e-20 3.79955)
(7.63552 0 3.69992)
(7.15637 -3.00512e-20 4.24038)
(7.4197 -8.64035e-20 4.12972)
(6.89918 1.93757e-18 4.73288)
(7.19157 -1.12617e-19 4.61093)
(6.62064 2.27051e-20 5.28215)
(6.94813 1.93549e-18 5.14987)
(6.31053 1.0567e-19 5.88938)
(6.67979 -2.13674e-18 5.75374)
(5.95832 1.90221e-18 6.55489)
(6.39646 1.90708e-18 6.41301)
(5.51376 -1.43368e-18 7.23936)
(5.95881 -4.11596e-20 7.18151)
(4.97727 6.4841e-19 7.92271)
(5.81427 -1.8868e-18 7.76066)
(4.35701 3.55459e-18 8.8956)
(9.98843 8.35583e-20 0.122664)
(9.99144 1.16126e-19 0.0853259)
(9.96653 3.41347e-20 0.201075)
(9.97835 -3.00035e-20 0.166006)
(9.93484 2.91663e-19 0.280634)
(9.95505 6.22851e-20 0.246735)
(9.89367 1.54077e-19 0.363386)
(9.92013 9.76272e-20 0.330005)
(9.84322 -6.58173e-20 0.450702)
(9.87549 6.60602e-20 0.417334)
(9.78366 -3.87837e-22 0.54379)
(9.82225 -1.3833e-19 0.509976)
(9.71509 -1.53293e-19 0.643818)
(9.76062 -7.29109e-22 0.609113)
(9.6376 9.40479e-21 0.751966)
(9.69051 -1.92903e-21 0.715927)
(9.55119 7.09717e-20 0.869482)
(9.61194 1.55021e-19 0.831666)
(9.45585 -1.21546e-19 0.997671)
(9.52479 -2.39637e-19 0.957635)
(9.35164 -4.12231e-20 1.13785)
(9.42923 2.04447e-19 1.09514)
(9.23874 0 1.29137)
(9.32558 0 1.24549)
(9.11726 3.75888e-19 1.45975)
(9.21406 -3.53038e-19 1.4101)
(8.98721 -4.28695e-20 1.64486)
(9.09458 7.32784e-19 1.59075)
(8.84859 9.44697e-22 1.84871)
(8.96711 -7.32848e-19 1.78948)
(8.70163 -3.05548e-20 2.07346)
(8.83218 1.16449e-18 2.0083)
(8.54659 4.45594e-19 2.32152)
(8.69006 -7.61421e-19 2.2495)
(8.38362 1.49411e-20 2.59574)
(8.54099 3.744e-20 2.51583)
(8.21289 -1.665e-18 2.89951)
(8.38527 -1.92343e-20 2.81046)
(8.03455 5.19744e-20 3.23686)
(8.22324 -8.75029e-19 3.13719)
(7.84832 8.82023e-19 3.61237)
(8.05558 8.89011e-19 3.50068)
(7.65371 -5.65324e-20 4.03157)
(7.88177 -1.06681e-19 3.90613)
(7.44991 -1.69222e-19 4.50117)
(7.70162 1.05601e-19 4.36007)
(7.23455 -1.12629e-19 5.02849)
(7.51482 -2.97929e-21 4.87044)
(7.00361 -2.21563e-19 5.62091)
(7.31909 0 5.44528)
(6.74713 -3.35393e-19 6.28293)
(7.10489 -6.98956e-21 6.09556)
(6.45193 -1.13668e-19 7.02052)
(6.888 -5.11203e-19 6.81482)
(6.06632 -2.22216e-19 7.80031)
(6.50597 -1.53476e-18 7.67203)
(5.55779 1.31799e-18 8.6147)
(6.45688 -4.69359e-19 8.36454)
(4.93548 3.22868e-18 9.71305)
(9.98913 0 0.129897)
(9.99169 0 0.0900205)
(9.96856 0 0.21306)
(9.97962 0 0.175249)
(9.9389 -1.31174e-19 0.297507)
(9.95806 -3.08148e-20 0.2606)
(9.9005 9.042e-21 0.38536)
(9.92561 9.4518e-20 0.348658)
(9.85359 -9.98435e-21 0.478035)
(9.88419 1.32841e-19 0.441)
(9.79835 -1.36381e-19 0.576764)
(9.83497 -1.38145e-19 0.538907)
(9.73494 1.50744e-19 0.682749)
(9.77817 -7.12824e-20 0.643573)
(9.66349 1.46279e-19 0.797234)
(9.71376 2.22549e-19 0.756241)
(9.58399 -1.61863e-19 0.92151)
(9.64173 8.47302e-22 0.878226)
(9.49655 9.30817e-20 1.05688)
(9.56203 -2.37562e-19 1.01083)
(9.40142 2.42911e-19 1.20463)
(9.47505 1.64957e-19 1.15529)
(9.29888 -3.58226e-19 1.36617)
(9.38128 0 1.31293)
(9.18907 1.78906e-20 1.54316)
(9.28092 -9.23359e-20 1.48532)
(9.07205 2.42127e-20 1.73751)
(9.17378 6.63393e-21 1.67434)
(8.94814 4.54021e-19 1.95126)
(9.06035 -7.61973e-21 1.88196)
(8.81776 4.12922e-19 2.18659)
(8.94137 4.42247e-19 2.11021)
(8.68135 -1.16246e-18 2.44606)
(8.81704 -3.46297e-19 2.36147)
(8.53932 1.5778e-21 2.73273)
(8.68799 -8.13496e-19 2.63866)
(8.39212 7.67087e-19 3.05018)
(8.55492 8.01603e-19 2.94511)
(8.24042 -2.64257e-20 3.40282)
(8.41845 -2.66526e-20 3.28477)
(8.08472 -1.07433e-19 3.79582)
(8.27985 0 3.6627)
(7.92505 5.63253e-20 4.23536)
(8.13955 -2.26322e-21 4.08475)
(7.76152 2.72092e-19 4.72918)
(7.99824 8.7843e-19 4.55803)
(7.59316 1.09985e-19 5.28627)
(7.85699 -7.12611e-19 5.09178)
(7.41706 2.14702e-19 5.9171)
(7.71545 1.58336e-18 5.69615)
(7.22466 -1.82566e-19 6.63116)
(7.56551 -1.74438e-18 6.3863)
(7.00066 -1.93706e-18 7.44426)
(7.42945 -1.14936e-20 7.16294)
(6.69757 -2.07739e-18 8.33843)
(7.1348 -1.80711e-19 8.10911)
(6.24334 2.41411e-18 9.35353)
(7.2079 -1.2871e-18 8.96104)
(5.64969 1.93825e-18 10.643)
(9.9899 0 0.136663)
(9.99194 -2.27772e-19 0.0943851)
(9.97081 -3.14138e-20 0.224254)
(9.98097 -1.17711e-19 0.183842)
(9.94335 1.97263e-19 0.313227)
(9.96135 -2.00601e-22 0.27347)
(9.90788 2.19169e-19 0.40578)
(9.9315 1.28152e-19 0.365934)
(9.86468 -1.21595e-23 0.503371)
(9.89345 -1.97906e-19 0.462864)
(9.81396 -7.18815e-20 0.607255)
(9.84841 2.88287e-22 0.565567)
(9.75592 5.25253e-21 0.718667)
(9.79663 -2.69027e-22 0.675252)
(9.69067 7.36253e-20 0.838915)
(9.73806 7.3919e-20 0.793225)
(9.61829 -7.84176e-20 0.9693)
(9.67272 8.48245e-22 0.920857)
(9.539 -1.59891e-19 1.11106)
(9.6007 -2.34364e-19 1.05937)
(9.45323 -8.05626e-20 1.26549)
(9.52259 7.85506e-20 1.20993)
(9.36133 2.65031e-19 1.43408)
(9.43899 0 1.37392)
(9.26343 -1.02174e-19 1.61858)
(9.34994 3.47384e-19 1.5531)
(9.15983 -2.56225e-20 1.8209)
(9.25547 -7.07743e-19 1.74929)
(9.05115 -1.41705e-20 2.04305)
(9.15644 6.81319e-19 1.96434)
(8.93792 -3.2625e-19 2.28726)
(9.05372 -4.67366e-19 2.20039)
(8.82074 -6.48933e-22 2.5562)
(8.94768 -1.41524e-19 2.4599)
(8.70043 0 2.85302)
(8.83919 7.67461e-19 2.74576)
(8.57787 0 3.18142)
(8.72949 -7.78655e-19 3.06139)
(8.45407 0 3.54602)
(8.61969 -9.74887e-20 3.41085)
(8.33042 1.05321e-19 3.95238)
(8.51128 0 3.7993)
(8.20805 8.24299e-19 4.40725)
(8.40609 1.05043e-19 4.23302)
(8.0883 -1.0461e-19 4.91921)
(8.30615 7.19207e-19 4.71946)
(7.97229 7.61599e-19 5.49869)
(8.2142 -1.40141e-18 5.26859)
(7.85953 -3.63055e-19 6.15934)
(8.13311 2.35465e-18 5.89235)
(7.74554 -1.58179e-18 6.91682)
(8.05877 -1.86391e-19 6.60938)
(7.61663 1.74951e-18 7.80063)
(8.02203 -1.01961e-18 7.43025)
(7.44091 6.13082e-19 8.82217)
(7.86417 1.36199e-18 8.44808)
(7.1161 -8.78493e-19 10.1521)
(8.12591 -1.03242e-18 9.49572)
(6.59826 6.46249e-20 11.7447)
(9.9907 -3.43669e-19 0.142917)
(9.99216 -2.32155e-19 0.0984097)
(9.97321 -8.42705e-20 0.234589)
(9.98237 -9.22606e-20 0.191735)
(9.94808 -6.70021e-20 0.32772)
(9.96478 1.74663e-19 0.285283)
(9.91568 -2.94761e-19 0.424566)
(9.93767 -9.71917e-20 0.381774)
(9.87632 -1.94254e-19 0.526622)
(9.90308 -2.01447e-19 0.482865)
(9.83026 7.19342e-20 0.635164)
(9.86235 0 0.58989)
(9.77772 6.96265e-20 0.751472)
(9.81572 7.21296e-20 0.704083)
(9.71884 0 0.876901)
(9.76312 0 0.826815)
(9.65375 -1.58629e-19 1.01272)
(9.70463 1.41413e-19 0.959472)
(9.58284 8.64649e-21 1.16008)
(9.64058 -2.32074e-19 1.10315)
(9.50669 1.58204e-19 1.32028)
(9.57163 1.63578e-19 1.25892)
(9.42566 8.68668e-20 1.49495)
(9.49832 3.09425e-19 1.42834)
(9.33991 -2.71523e-19 1.68589)
(9.4208 -2.29223e-19 1.61331)
(9.24995 1.56719e-20 1.89485)
(9.33949 -6.03988e-19 1.81549)
(9.15666 2.15753e-19 2.12382)
(9.25519 6.99421e-19 2.03654)
(9.06087 -2.79073e-19 2.37515)
(9.16888 2.86117e-19 2.27869)
(8.96331 6.35892e-19 2.6515)
(9.08154 -4.03344e-19 2.54453)
(8.86519 -2.23445e-20 2.95599)
(8.99415 7.84173e-19 2.83676)
(8.76796 -8.72669e-19 3.29237)
(8.90836 -7.95842e-19 3.15872)
(8.67308 -9.7097e-20 3.66527)
(8.82594 -1.86749e-19 3.5146)
(8.58262 0 4.08036)
(8.74876 -7.18244e-19 3.90937)
(8.49915 0 4.54454)
(8.68001 -8.77738e-21 4.34917)
(8.42583 -5.76598e-19 5.06662)
(8.62328 -1.59287e-18 4.84124)
(8.36651 1.81247e-19 5.65783)
(8.58334 -4.0543e-19 5.39536)
(8.32488 2.54944e-18 6.33369)
(8.56722 7.82255e-19 6.02387)
(8.30455 4.27466e-19 7.1147)
(8.57772 1.20826e-18 6.74561)
(8.30206 -1.40269e-18 8.04174)
(8.65693 2.56001e-20 7.57781)
(8.32179 0 9.16384)
(8.69277 -5.64947e-19 8.60729)
(8.30354 -1.10354e-19 10.9944)
(9.34814 -4.33365e-19 9.77743)
(9.11386 -1.14211e-19 12.9887)
(0.162633 -1.98405e-20 -0.102134)
(0.103275 -5.82585e-20 -0.136825)
(0.379002 1.54213e-20 -0.106432)
(0.258194 2.31566e-20 -0.169761)
(0.584318 1.38682e-20 -0.0872523)
(0.462513 4.65312e-20 -0.144643)
(0.764838 0 -0.0683363)
(0.659555 -3.94939e-20 -0.116949)
(0.921965 -2.25651e-21 -0.0540647)
(0.835124 0 -0.0962319)
(1.0596 -3.41753e-21 -0.0440617)
(0.989614 3.69617e-22 -0.0817948)
(1.1821 -1.2744e-21 -0.0370997)
(1.12681 2.39097e-21 -0.0721351)
(1.29239 -1.42238e-22 -0.0318092)
(1.25056 1.19203e-23 -0.0652503)
(1.39176 1.17674e-21 -0.02717)
(1.36318 1.15474e-21 -0.0594825)
(1.48027 -1.52068e-23 -0.0224895)
(1.46569 -5.30495e-23 -0.0536859)
(1.55704 -1.17476e-21 -0.017332)
(1.55849 4.20008e-23 -0.047129)
(1.62054 2.31851e-21 -0.0115418)
(1.64101 9.35207e-21 -0.0393532)
(1.6693 4.61508e-23 -0.00539009)
(1.71173 -1.6258e-20 -0.0303582)
(1.7027 -3.4106e-21 0.000430819)
(1.76979 -6.81772e-21 -0.0207687)
(1.72163 1.03336e-21 0.0051141)
(1.81489 7.78552e-21 -0.0115935)
(1.72847 3.20094e-21 0.00813034)
(1.84746 2.12497e-21 -0.0038589)
(1.72653 -1.42212e-21 0.00941301)
(1.86916 -3.07848e-21 0.00178855)
(1.71943 -2.00122e-21 0.00922354)
(1.88268 -4.37204e-21 0.00511656)
(1.7107 8.98017e-22 0.00794403)
(1.89143 2.37976e-21 0.00617897)
(1.70338 -1.21035e-21 0.00592789)
(1.8988 -3.05857e-21 0.00530113)
(1.69988 -3.47847e-21 0.00347818)
(1.90736 -2.26317e-23 0.00290282)
(1.70157 -1.84672e-21 0.000968727)
(1.91843 2.53691e-21 -0.000341175)
(1.70841 -9.99627e-22 -0.00118288)
(1.93205 0 -0.00354702)
(1.71935 -1.79176e-22 -0.00269778)
(1.94808 1.33272e-22 -0.00607907)
(1.73289 7.97527e-22 -0.00355057)
(1.96538 1.80066e-21 -0.00765059)
(1.74771 6.14721e-22 -0.0039088)
(1.98279 -2.21172e-22 -0.00838756)
(1.76293 2.26364e-22 -0.00395474)
(2.00029 7.8921e-23 -0.00858909)
(1.77797 -4.42208e-22 -0.00382659)
(2.01731 9.72763e-22 -0.00842175)
(1.79258 0 -0.00368242)
(2.03333 4.34812e-23 -0.0080801)
(2.0508 0 -0.00778157)
(0.149096 -3.90816e-20 -0.229126)
(0.0796179 -5.10166e-20 -0.281123)
(0.347394 5.66813e-20 -0.238775)
(0.206042 6.79444e-20 -0.324372)
(0.54992 -1.41319e-20 -0.202382)
(0.406066 -1.22342e-20 -0.28338)
(0.73726 -4.03001e-20 -0.166494)
(0.59525 -7.78979e-20 -0.235132)
(0.905879 2.26403e-21 -0.139638)
(0.766807 2.90407e-22 -0.197545)
(1.05753 5.68115e-21 -0.120997)
(0.921232 3.8695e-20 -0.170983)
(1.19472 3.52867e-21 -0.108164)
(1.05952 3.51466e-20 -0.152724)
(1.32018 1.30413e-21 -0.098638)
(1.18474 -3.64154e-20 -0.13978)
(1.43597 -2.58924e-23 -0.0903424)
(1.29947 -2.09522e-20 -0.129382)
(1.54317 1.32838e-23 -0.0818106)
(1.40553 1.28316e-20 -0.119459)