/*--------------------------------*- C++ -*----------------------------------*\
| =========                 |                                                 |
| \\      /  F ield         | OpenFOAM: The Open Source CFD Toolbox           |
|  \\    /   O peration     | Version:  dev                                   |
|   \\  /    A nd           | Web:      www.OpenFOAM.org                      |
|    \\/     M anipulation  |                                                 |
\*---------------------------------------------------------------------------*/
FoamFile
{
    version     2.0;
    format      ascii;
    class       surfaceScalarField;
    location    "3.09";
    object      phi;
}
// * * * * * * * * * * * * * * * * * * * * * * * * * * * * * * * * * * * * * //

dimensions      [0 3 -1 0 0 0 0];

internalField   nonuniform List<scalar> 
5457
(
0.198158
0.00184399
0.196034
0.00212295
0.193588
0.00244242
0.190782
0.00279874
0.187622
0.00314955
0.184119
0.0034903
0.180275
0.00383031
0.176086
0.00417679
0.171541
0.00453293
0.166631
0.00490204
0.161338
0.00528774
0.155643
0.00569302
0.149526
0.0061191
0.142965
0.00656702
0.135935
0.00703765
0.128415
0.00753016
0.120384
0.00804243
0.111825
0.00857046
0.102728
0.00910766
0.0930938
0.00964383
0.0829373
0.0101646
0.072293
0.0106509
0.0612207
0.0110775
0.0498135
0.011411
0.0382103
0.0116059
0.0266155
0.0115965
0.0153382
0.0112784
0.00492883
0.01041
-0.00237415
0.0073032
-0.00237409
0.199873
0.00197293
0.199025
0.00297086
0.197737
0.00372631
0.196048
0.00448092
0.193961
0.00522557
0.191485
0.00595331
0.188623
0.00667872
0.185372
0.00741484
0.181725
0.00816901
0.177669
0.00894859
0.173191
0.00976057
0.168272
0.0106108
0.16289
0.0115029
0.157023
0.0124393
0.150647
0.0134219
0.143737
0.0144504
0.136269
0.0155215
0.128223
0.0166284
0.119582
0.0177593
0.11034
0.0188956
0.100502
0.0200106
0.090092
0.0210676
0.0791562
0.0220185
0.0677734
0.0227978
0.0560684
0.0233137
0.0442373
0.0234295
0.0325967
0.0229201
0.0217037
0.0213035
0.0114753
0.0175319
0.0091013
0.199727
0.00224828
0.198949
0.00374868
0.197737
0.00493431
0.196153
0.00605824
0.194207
0.00716045
0.191907
0.00824102
0.189256
0.00931624
0.186253
0.0104042
0.182893
0.0115178
0.179165
0.0126675
0.175057
0.0138631
0.170552
0.0151131
0.165632
0.016425
0.160273
0.0178034
0.154452
0.0192514
0.148141
0.0207707
0.141315
0.0223592
0.133945
0.0240099
0.126005
0.0257094
0.117475
0.0274357
0.108339
0.0291553
0.0985914
0.0308218
0.0882422
0.0323731
0.0773196
0.0337244
0.0658794
0.0347569
0.054011
0.0352998
0.0418194
0.035113
0.0292706
0.033853
0.0156171
0.0311856
0.0247185
0.199639
0.00261232
0.198863
0.00452419
0.197669
0.00612466
0.196108
0.00761266
0.194197
0.00906073
0.191943
0.0104822
0.189352
0.0118932
0.186426
0.0133167
0.183161
0.0147716
0.179549
0.0162704
0.175581
0.0178244
0.171247
0.0194453
0.16653
0.0211434
0.161412
0.022926
0.155873
0.0247984
0.149889
0.0267647
0.143433
0.0288258
0.136478
0.0309767
0.128992
0.033206
0.120944
0.0354933
0.112303
0.0378056
0.103035
0.0400972
0.0931079
0.0423055
0.0824928
0.0443438
0.0711591
0.0460936
0.0590686
0.0473924
0.0461557
0.0480272
0.0322453
0.0477641
0.0168822
0.046549
0.0416008
0.199595
0.00302088
0.198811
0.005308
0.197635
0.00729796
0.196097
0.0091428
0.194219
0.0109289
0.192006
0.0126822
0.189465
0.0144202
0.186598
0.0161706
0.1834
0.0179573
0.179866
0.0197945
0.17599
0.0216948
0.17176
0.0236723
0.167164
0.02574
0.162187
0.0279077
0.156809
0.0301837
0.151008
0.0325746
0.14476
0.0350845
0.138035
0.0377133
0.130798
0.0404535
0.123011
0.0432907
0.114627
0.0461979
0.105597
0.0491354
0.0958535
0.0520547
0.0853175
0.0548844
0.0738966
0.057518
0.0614795
0.0598119
0.0479355
0.0615728
0.03316
0.0625404
0.0170715
0.0626378
0.0586724
0.199573
0.00345186
0.198788
0.00609386
0.197633
0.00844931
0.196126
0.0106429
0.194286
0.0127591
0.192122
0.0148329
0.18964
0.0168888
0.186838
0.0189591
0.183713
0.0210701
0.18026
0.0232371
0.176473
0.0254749
0.172342
0.0278
0.167855
0.0302279
0.162994
0.0327717
0.157742
0.0354427
0.152075
0.0382504
0.145967
0.0412031
0.139385
0.0443068
0.132288
0.047561
0.12463
0.050959
0.116349
0.0544873
0.10738
0.0581131
0.0976407
0.0618001
0.0870197
0.0655104
0.0753873
0.0691542
0.0626174
0.0725845
0.0485938
0.075598
0.033292
0.0778432
0.016925
0.0790052
0.0755975
0.199565
0.00389142
0.198786
0.00687344
0.197657
0.00957633
0.196186
0.0121074
0.194393
0.0145421
0.192288
0.0169251
0.189872
0.0192904
0.187144
0.0216732
0.184103
0.0240989
0.180744
0.0265855
0.17706
0.0291517
0.173039
0.0318164
0.168669
0.0345981
0.163931
0.0375128
0.158804
0.0405754
0.153264
0.0437989
0.147279
0.0471978
0.140811
0.0507856
0.133814
0.0545689
0.126231
0.0585519
0.117992
0.062736
0.109005
0.0671083
0.0991767
0.0716353
0.0883873
0.0763054
0.076494
0.0810516
0.0633806
0.0857008
0.0489771
0.0900034
0.033318
0.0935033
0.0167959
0.0955277
0.0923935
0.199566
0.00433024
0.1988
0.00764139
0.197699
0.0106752
0.196272
0.0135277
0.194535
0.0162692
0.192496
0.0189522
0.190154
0.0216178
0.187512
0.0243012
0.184569
0.027029
0.181319
0.0298243
0.177754
0.0327092
0.17386
0.0357051
0.169623
0.0388337
0.165024
0.0421144
0.160039
0.0455661
0.154638
0.0492075
0.148788
0.0530578
0.142443
0.0571403
0.135549
0.061473
0.128042
0.0660694
0.119841
0.0709465
0.110842
0.0761155
0.100923
0.0815625
0.0899556
0.0872786
0.0778132
0.0931985
0.0643886
0.0991287
0.049646
0.104748
0.0336681
0.109482
0.0169234
0.112273
0.109317
0.199574
0.00476195
0.198825
0.00839285
0.197758
0.0117405
0.196382
0.0148978
0.194707
0.0179341
0.19274
0.0209069
0.190484
0.02386
0.187942
0.0268291
0.185111
0.0298462
0.181985
0.0329392
0.178554
0.0361316
0.174805
0.0394485
0.170722
0.0429146
0.166285
0.0465533
0.161466
0.0503893
0.156232
0.0544487
0.150545
0.0587535
0.144357
0.0633382
0.137604
0.0682353
0.130215
0.0734689
0.122096
0.0790749
0.113136
0.0850845
0.103193
0.091514
0.0921236
0.0983543
0.0798039
0.105523
0.0661272
0.112809
0.0510655
0.119812
0.0347116
0.125837
0.017515
0.12947
0.126832
0.199587
0.00518149
0.19886
0.00912284
0.197831
0.0127683
0.19651
0.0162132
0.194905
0.0195299
0.19302
0.0227793
0.190862
0.026005
0.188431
0.0292453
0.185724
0.032539
0.182735
0.0359164
0.179454
0.0394033
0.175868
0.0430287
0.171959
0.0468198
0.167709
0.0508045
0.163087
0.0550142
0.158061
0.0594813
0.152581
0.0642408
0.146598
0.0693305
0.140052
0.0747915
0.132858
0.0806726
0.124914
0.087028
0.116098
0.0939105
0.106257
0.101364
0.0952319
0.109386
0.0828733
0.117887
0.0690461
0.12664
0.0536808
0.13518
0.0368194
0.1427
0.0188035
0.147486
0.145636
0.199604
0.00558549
0.198905
0.00982597
0.197918
0.0137542
0.196657
0.0174697
0.195127
0.0210501
0.193334
0.0245599
0.191282
0.0280431
0.188973
0.0315405
0.186402
0.0350952
0.183565
0.0387411
0.18045
0.0425079
0.177045
0.0464271
0.173334
0.0505265
0.169299
0.0548391
0.164909
0.0594065
0.160128
0.0642674
0.154909
0.0694671
0.149202
0.0750457
0.142947
0.0810557
0.136055
0.0875742
0.12842
0.0946733
0.119911
0.10243
0.110364
0.110919
0.0996003
0.120157
0.0874255
0.130067
0.0736291
0.14044
0.0580206
0.150791
0.0404852
0.160237
0.0211492
0.166823
0.166785
0.199622
0.00597244
0.198956
0.0104966
0.198019
0.0146917
0.196822
0.0186621
0.195373
0.0224902
0.193679
0.0262421
0.191742
0.0299658
0.189563
0.0337047
0.187141
0.0375029
0.184469
0.0414002
0.181537
0.0454298
0.178334
0.049622
0.174848
0.0540081
0.171055
0.0586297
0.166929
0.0635339
0.162436
0.0687646
0.15754
0.0743689
0.152195
0.0803988
0.146331
0.0869278
0.139868
0.0940463
0.132705
0.101846
0.124714
0.11043
0.115721
0.119921
0.105524
0.130362
0.0938814
0.141716
0.0804538
0.153872
0.0648225
0.166425
0.0465337
0.178527
0.0252877
0.188069
0.192073
0.199641
0.00634117
0.199014
0.0111299
0.198131
0.0155754
0.197004
0.0197855
0.195642
0.0238438
0.194053
0.0278198
0.192238
0.0317664
0.1902
0.0357284
0.187936
0.0397528
0.18544
0.0438826
0.182707
0.0481519
0.179728
0.0525915
0.176489
0.0572413
0.172967
0.0621494
0.169143
0.067358
0.164995
0.0729152
0.160491
0.0788778
0.155585
0.0853116
0.150217
0.0923029
0.144322
0.0999499
0.137814
0.108364
0.130579
0.117675
0.122455
0.128054
0.113247
0.139578
0.102662
0.152306
0.090224
0.166314
0.0752021
0.181449
0.0565363
0.197194
0.032972
0.211634
0.225045
0.199662
0.00669009
0.199076
0.0117229
0.198252
0.0164015
0.1972
0.0208335
0.195933
0.0251034
0.194455
0.029287
0.19277
0.0334379
0.19088
0.0376036
0.188783
0.0418352
0.186477
0.046175
0.183959
0.0506581
0.181221
0.0553202
0.178249
0.060206
0.175031
0.0653631
0.171555
0.0708331
0.167803
0.076669
0.163748
0.0829365
0.159357
0.0897092
0.154589
0.0970772
0.149401
0.105147
0.143732
0.114041
0.137498
0.123919
0.130603
0.134959
0.122896
0.147293
0.114089
0.161119
0.103681
0.176726
0.0907417
0.194391
0.0735228
0.214414
0.048743
0.236414
0.273788
0.199684
0.00701855
0.19914
0.012275
0.198378
0.0171662
0.197408
0.0218008
0.196239
0.0262654
0.194876
0.030639
0.193325
0.0349754
0.191589
0.0393253
0.189669
0.0437411
0.187564
0.0482662
0.185271
0.0529384
0.182785
0.0577955
0.180101
0.0628827
0.177214
0.0682455
0.174114
0.0739306
0.17079
0.0799939
0.167228
0.0865011
0.163413
0.0935287
0.159329
0.101167
0.154959
0.109523
0.150286
0.118723
0.145284
0.128931
0.139947
0.140305
0.134232
0.153015
0.128004
0.167352
0.121004
0.183729
0.112638
0.20276
0.101394
0.225659
0.0823522
0.255456
0.35614
0.00174635
-0.00174611
0.00487992
-0.00313256
0.0082016
-0.00331877
0.0110013
-0.00279385
0.013019
-0.00200846
0.0142382
-0.00120636
0.0147683
-0.000514037
0.0147837
3.23889e-06
0.0144627
0.000341521
0.0139478
0.00053481
0.0133498
0.00061501
0.0127449
0.000619988
0.0121691
0.000589265
0.0116225
0.000558028
0.0110794
0.00055212
0.0105005
0.000585179
0.0098439
0.00065965
0.00908441
0.000759174
0.00824166
0.000838877
0.00739539
0.000838763
0.00665734
0.000726982
0.00612008
0.000522781
0.00583567
0.000266776
0.00583715
-2.19722e-05
0.00618304
-0.000368931
0.00692896
-0.000771203
0.00808088
-0.00117919
0.00964961
-0.00159782
0.0116315
-0.00201278
-0.00222949
0.00237185
-0.00411771
0.00534428
-0.00610394
0.00835088
-0.00632241
0.0109264
-0.00536355
0.0128803
-0.00395303
0.0142069
-0.00252012
0.0149885
-0.00127974
0.0153107
-0.000300588
0.0152647
0.000407748
0.0149676
0.000851653
0.014525
0.00107469
0.014009
0.00115091
0.0134574
0.00115439
0.0128791
0.00114787
0.0122608
0.0011795
0.0115708
0.00128156
0.0107708
0.00146293
0.00983952
0.00169025
0.00880747
0.00186717
0.00777224
0.00186658
0.00684974
0.00163849
0.00609223
0.00126588
0.00547043
0.000870996
0.00493885
0.000489159
0.00448112
6.58091e-05
0.00418369
-0.000499011
0.00425044
-0.00127316
0.00484165
-0.00221807
0.00601397
-0.00321592
-0.00387449
0.00280429
-0.00692175
0.00550665
-0.00880521
0.00787663
-0.00868941
0.00975592
-0.00723706
0.0110858
-0.00527377
0.0119073
-0.00332915
0.0123187
-0.00167571
0.0123837
-0.000347743
0.0121693
0.000641833
0.0117596
0.0012806
0.0112103
0.00164102
0.0105497
0.00182636
0.00979057
0.00192714
0.00893728
0.00201291
0.00798501
0.00214121
0.00690635
0.00236693
0.0056474
0.00272547
0.00417418
0.00316364
0.00252763
0.0035103
0.000797802
0.00358931
-0.00091158
0.00333718
-0.00246904
0.00280919
-0.00372161
0.00210622
-0.00456012
0.00130742
-0.00495498
0.000437843
-0.00495235
-0.000526717
-0.00464754
-0.00160507
-0.00416963
-0.0027249
-0.00366464
-0.00375162
-0.00454005
0.00286971
-0.0097912
0.00525738
-0.0111918
0.00695029
-0.0103794
0.00804252
-0.00832369
0.00863054
-0.00585306
0.00879119
-0.00347791
0.00860668
-0.00147647
0.0080876
0.000188355
0.00735125
0.00139692
0.0064831
0.00216745
0.00546624
0.00267454
0.00424097
0.00306657
0.0027574
0.00342446
0.00104187
0.00374051
-0.000805721
0.00399868
-0.00267683
0.00424525
-0.00448398
0.00453675
-0.00616071
0.00484109
-0.00768226
0.00502896
-0.00905009
0.00495056
-0.0102459
0.00452275
-0.0112235
0.00377309
-0.0119441
0.0028098
-0.0124057
0.0017491
-0.0126531
0.000662772
-0.0127651
-0.000439562
-0.0128157
-0.00158132
-0.0128506
-0.00271872
-0.0128643
-0.00376855
-0.00461226
0.00251669
-0.0123076
0.00436841
-0.0130424
0.0052434
-0.0112515
0.00541097
-0.00848593
0.00512141
-0.00555528
0.00438825
-0.00273357
0.00316144
-0.000235825
0.00162335
0.00174246
2.8862e-05
0.00300913
-0.00160564
0.00381987
-0.00331125
0.0043965
-0.00510244
0.00487272
-0.00693959
0.00527559
-0.00877401
0.00558737
-0.010557
0.00579202
-0.0122322
0.0059283
-0.0137422
0.00605149
-0.0150461
0.00614638
-0.0161387
0.00611923
-0.0170445
0.00585043
-0.0178041
0.00527264
-0.0184566
0.00441245
-0.0190267
0.00336334
-0.0195188
0.0022217
-0.0199282
0.00105003
-0.0202697
-0.000122488
-0.0205733
-0.00130432
-0.0208541
-0.00246647
-0.0211151
-0.00353788
-0.00437621
0.00180465
-0.014112
0.00272958
-0.0139663
0.00249094
-0.0110101
0.00144411
-0.00743409
-0.000275545
-0.00382796
-0.0026074
-0.000391352
-0.00490482
0.00207443
-0.00681872
0.0036713
-0.00863084
0.00483789
-0.0104449
0.005651
-0.0122554
0.00622294
-0.0140092
0.00664152
-0.0156666
0.00694726
-0.0172111
0.00714472
-0.0186428
0.00723455
-0.0199534
0.00724734
-0.0211179
0.00722146
-0.0221172
0.00714768
-0.0229575
0.006958
-0.0236774
0.006565
-0.0243331
0.00591921
-0.0249693
0.00503607
-0.0255992
0.00397728
-0.0262038
0.00280735
-0.0267563
0.00158079
-0.0272478
0.000344898
-0.0277063
-0.000872112
-0.0281522
-0.00204878
-0.0285904
-0.00312983
-0.00393477
0.000716742
-0.0148285
0.000178
-0.0134265
-0.00167506
-0.00915452
-0.00442535
-0.00467915
-0.00762558
-0.000620666
-0.010376
0.00236862
-0.0125901
0.00430033
-0.0146156
0.00571071
-0.0164849
0.00672268
-0.0182325
0.00741483
-0.0198664
0.00787247
-0.0213761
0.00816616
-0.0227532
0.00833883
-0.0240053
0.00841003
-0.0251529
0.00839356
-0.0262106
0.00831404
-0.0271762
0.00819316
-0.0280444
0.00801862
-0.0288252
0.00773794
-0.0295502
0.0072853
-0.0302594
0.00662003
-0.0309789
0.00574361
-0.0317078
0.00469084
-0.032424
0.00350508
-0.0330999
0.00223537
-0.0337244
0.0009457
-0.0343258
-0.000296534
-0.0349197
-0.00148276
-0.0355097
-0.0025697
-0.00334853
-0.000925804
-0.0139025
-0.00337353
-0.0109778
-0.00691362
-0.00561204
-0.0108784
-0.000710074
-0.0142517
0.00275905
-0.0168778
0.00500347
-0.0191892
0.0066227
-0.0212323
0.00776659
-0.0230369
0.00854186
-0.0246417
0.00903502
-0.0260781
0.00932408
-0.0273676
0.00947063
-0.0285303
0.00951609
-0.0295921
0.00948539
-0.0305828
0.00939609
-0.031524
0.0092648
-0.0324219
0.00909779
-0.0332761
0.00887621
-0.0340936
0.00855525
-0.0348945
0.00808225
-0.0357031
0.00742093
-0.0365341
0.00656318
-0.0373824
0.00552444
-0.0382286
0.00433326
-0.0390474
0.00303343
-0.0398209
0.00169602
-0.0405516
0.000408662
-0.0412706
-0.000791272
-0.0419989
-0.00187094
-0.00263804
-0.00297092
-0.0109313
-0.00723476
-0.00671308
-0.0121353
-0.000709306
-0.0163181
0.00347673
-0.0195856
0.00603245
-0.0223768
0.00780265
-0.0247456
0.00900153
-0.0267508
0.00978381
-0.0284555
0.0102602
-0.0299223
0.0105165
-0.0312059
0.0106225
-0.0323496
0.0106292
-0.0333899
0.010571
-0.0343603
0.0104696
-0.035291
0.010339
-0.0362025
0.0101863
-0.0371028
0.0100053
-0.0379941
0.00977149
-0.0388819
0.00944351
-0.0397799
0.00897696
-0.0407036
0.0083375
-0.0416604
0.00750926
-0.0426433
0.00649311
-0.0436322
0.00530474
-0.0446015
0.00398254
-0.0455303
0.00260207
-0.0464118
0.00126518
-0.0472752
4.50005e-05
-0.0481383
-0.00103711
-0.00180671
-0.00493974
-0.00599134
-0.0111327
-0.000519237
-0.0165446
0.00470462
-0.0207427
0.00767851
-0.0242463
0.0095415
-0.0271235
0.0106872
-0.0294763
0.0113637
-0.031406
0.0117248
-0.0330071
0.0118742
-0.0343635
0.011887
-0.0355456
0.011819
-0.0366073
0.0117056
-0.0375904
0.0115688
-0.0385292
0.0114224
-0.0394504
0.0112727
-0.0403716
0.011118
-0.0413029
0.0109443
-0.0422497
0.0107228
-0.0432195
0.0104143
-0.0442237
0.00997848
-0.0452737
0.00938092
-0.0463729
0.00859835
-0.0475128
0.00761939
-0.0486723
0.0064474
-0.0498226
0.00511317
-0.0509359
0.00369313
-0.0519939
0.00229857
-0.052994
0.00101831
-0.0539779
-8.20157e-05
-0.000846979
-0.00724645
0.00125532
-0.0146271
0.00686222
-0.0202808
0.0103603
-0.0248546
0.0122557
-0.0284677
0.0131597
-0.0313198
0.0135462
-0.033587
0.0136397
-0.0354079
0.0135563
-0.0368995
0.0133781
-0.0381624
0.0131634
-0.0392743
0.0129451
-0.0402898
0.0127356
-0.0412475
0.0125411
-0.0421779
0.0123668
-0.0431057
0.0122131
-0.0440493
0.0120722
-0.0450214
0.0119244
-0.0460315
0.0117379
-0.0470902
0.0114744
-0.0482092
0.0110952
-0.049398
0.0105638
-0.0506575
0.00984821
-0.0519756
0.00892441
-0.0533283
0.00778382
-0.0546824
0.00644815
-0.0560011
0.00499004
-0.0572534
0.00352672
-0.0584314
0.00217002
-0.0595586
0.00101669
0.000248232
-0.00963345
0.010889
-0.0178578
0.0150873
-0.0241807
0.0166851
-0.0288985
0.0169767
-0.0324171
0.0166832
-0.0351019
0.0162376
-0.0372
0.0157463
-0.0388668
0.0152332
-0.040227
0.0147502
-0.0413915
0.0143411
-0.0424402
0.0140076
-0.0434199
0.0137296
-0.0443593
0.0134949
-0.0452829
0.0133043
-0.0462156
0.0131585
-0.0471802
0.0130476
-0.0481942
0.0129466
-0.049271
0.0128199
-0.0504238
0.012629
-0.0516653
0.0123348
-0.0530038
0.0118968
-0.0544392
0.0112745
-0.0559594
0.010432
-0.0575367
0.00934542
-0.0591299
0.00802272
-0.0606889
0.00652775
-0.0621683
0.00498236
-0.0635553
0.00353114
-0.0648864
0.00231968
0.00153693
-0.0125363
0.0234255
-0.0219824
0.0245343
-0.0285396
0.0232441
-0.0330337
0.021474
-0.036162
0.0198161
-0.0384952
0.0185772
-0.0403237
0.017583
-0.0417725
0.0166919
-0.0429543
0.0159436
-0.0439907
0.0153903
-0.0449618
0.0149922
-0.045897
0.014679
-0.0468071
0.0144192
-0.0477094
0.0142203
-0.048632
0.0140937
-0.0496046
0.0140309
-0.0506499
0.0140002
-0.0517847
0.0139601
-0.0530237
0.0138699
-0.0543802
0.0136898
-0.0558652
0.0133766
-0.0574819
0.0128825
-0.0592185
0.0121566
-0.0610446
0.0111563
-0.0629097
0.0098697
-0.0647446
0.00834179
-0.0664776
0.00669208
-0.0680756
0.00510365
-0.0695768
0.00379316
0.00298113
-0.0170273
0.0404531
-0.0272155
0.0347233
-0.033516
0.0295466
-0.0373265
0.0252878
-0.0396289
0.0221232
-0.041378
0.0203326
-0.0428366
0.0190496
-0.0439869
0.017852
-0.0449061
0.0168742
-0.0457529
0.0162495
-0.0466116
0.0158641
-0.0474759
0.0155571
-0.0483247
0.0152819
-0.0491665
0.0150755
-0.0500375
0.014977
-0.0509775
0.0149815
-0.0520136
0.0150445
-0.0531629
0.0151147
-0.0544407
0.0151499
-0.0558648
0.0151125
-0.0574524
0.0149594
-0.0592112
0.014633
-0.0611317
0.0140654
-0.0631814
0.0131911
-0.0652994
0.01197
-0.0673962
0.0104182
-0.0693746
0.00864762
-0.0711773
0.00688124
-0.0728286
0.00541724
0.00459855
-0.0219088
0.0623622
-0.0328078
0.0456234
-0.0391837
0.0359246
-0.0417866
0.0278941
-0.0424511
0.0227925
-0.0433689
0.0212567
-0.0444493
0.020138
-0.0452315
0.0186439
-0.0457533
0.0174071
-0.0463124
0.0168209
-0.0470153
0.0165799
-0.0477726
0.0163277
-0.0485056
0.0160284
-0.0492161
0.015799
-0.0499596
0.0157323
-0.0507924
0.0158245
-0.0517425
0.0160025
-0.0528226
0.0162
-0.0540498
0.0163792
-0.0554499
0.0165114
-0.0570492
0.0165541
-0.0588643
0.01644
-0.0608934
0.0160832
-0.0631084
0.0153916
-0.065444
0.0142883
-0.0677938
0.0127481
-0.0700305
0.0108619
-0.072063
0.00888901
-0.0738802
0.00720762
0.00639747
0.207359
0.00733395
0.206844
0.0128
0.206125
0.0178886
0.205211
0.022713
0.204109
0.0273604
0.202828
0.03191
0.201372
0.0364183
0.199746
0.0409359
0.197956
0.0455162
0.196002
0.0502063
0.193883
0.0550438
0.1916
0.0600671
0.189154
0.0653205
0.186544
0.0708491
0.18377
0.0767009
0.180832
0.0829311
0.177732
0.089603
0.174475
0.0967895
0.171073
0.104575
0.167546
0.113056
0.16393
0.122347
0.160285
0.132585
0.156709
0.14389
0.153321
0.15641
0.150285
0.170394
0.14788
0.186137
0.1466
0.204042
0.147589
0.22467
0.157214
0.245832
0.261835
0.251519
0.212403
0.00762951
0.211929
0.0132858
0.21127
0.0185533
0.210432
0.0235499
0.209424
0.0283623
0.208255
0.0330694
0.20693
0.0377303
0.205456
0.0423953
0.203839
0.0471182
0.202083
0.051947
0.200194
0.0569194
0.198175
0.0620737
0.196034
0.067452
0.193778
0.0730981
0.191416
0.0790583
0.188961
0.085384
0.186432
0.0921324
0.183858
0.0993669
0.181278
0.107158
0.178756
0.115584
0.17638
0.12473
0.174292
0.134682
0.172681
0.145509
0.171812
0.157286
0.172112
0.170099
0.174299
0.183954
0.179729
0.198614
0.190951
0.213448
0.209178
0.227605
0.244245
0.226768
0.217573
0.00790122
0.217145
0.0137266
0.216553
0.0191524
0.215803
0.0243013
0.214902
0.0292591
0.213859
0.0341028
0.212683
0.0388939
0.21138
0.0436839
0.209958
0.0485244
0.208428
0.0534625
0.206797
0.0585363
0.205075
0.0637828
0.203276
0.0692409
0.201415
0.0749513
0.199511
0.0809563
0.197591
0.0873007
0.195691
0.0940322
0.193858
0.101201
0.192162
0.108858
0.190695
0.117056
0.18959
0.125841
0.189031
0.135249
0.189256
0.145292
0.19059
0.155958
0.193495
0.167199
0.1986
0.178852
0.206635
0.190581
0.218082
0.202002
0.232197
0.213489
0.224598
0.251844
0.22287
0.00814565
0.222494
0.014117
0.221976
0.0196788
0.221323
0.0249579
0.22054
0.0300391
0.219638
0.0349974
0.218625
0.0398944
0.217512
0.0447834
0.216307
0.0497139
0.215025
0.0547301
0.213677
0.0598698
0.212279
0.0651674
0.210851
0.0706583
0.209415
0.0763783
0.208001
0.0823634
0.206648
0.0886501
0.205404
0.0952742
0.204335
0.10227
0.203527
0.109668
0.203093
0.117492
0.203185
0.125754
0.203995
0.134445
0.205765
0.143529
0.208792
0.152937
0.213445
0.16255
0.220147
0.172153
0.229251
0.181479
0.241058
0.190195
0.256376
0.198171
0.203997
0.276977
0.228299
0.00835959
0.227979
0.0144517
0.227542
0.0201259
0.226993
0.025511
0.22634
0.0306914
0.225591
0.0357405
0.224757
0.0407187
0.223848
0.0456789
0.222878
0.0506689
0.221863
0.0557306
0.220819
0.0608994
0.219766
0.0662065
0.21873
0.0716828
0.217741
0.0773581
0.216836
0.0832611
0.216062
0.0894184
0.21548
0.0958533
0.215166
0.102584
0.215214
0.109621
0.215746
0.116962
0.216912
0.124591
0.218894
0.132469
0.221903
0.140526
0.226189
0.148656
0.232042
0.1567
0.23975
0.164447
0.249562
0.171668
0.261745
0.178012
0.276716
0.183201
0.186379
0.294334
0.233861
0.00853999
0.233603
0.0147259
0.233253
0.020487
0.232817
0.0259529
0.232302
0.0312067
0.231718
0.0363205
0.231075
0.0413536
0.230386
0.0463568
0.229666
0.0513754
0.228933
0.0564484
0.228209
0.0616086
0.227519
0.0668839
0.22689
0.0722995
0.226359
0.0778788
0.22597
0.0836422
0.225776
0.0896064
0.225843
0.0957823
0.226251
0.102173
0.227099
0.108772
0.228503
0.115559
0.2306
0.122496
0.233549
0.129523
0.237534
0.136544
0.242756
0.143438
0.249411
0.150048
0.257669
0.156192
0.267676
0.161662
0.2795
0.166188
0.293162
0.16954
0.171062
0.308479
0.23956
0.00868403
0.239369
0.014935
0.239112
0.020756
0.238796
0.0262763
0.238428
0.031577
0.238017
0.0367281
0.237577
0.0417879
0.237119
0.0468048
0.236662
0.0518211
0.236225
0.0568718
0.235833
0.0619863
0.235514
0.0671893
0.2353
0.0725007
0.235232
0.0779368
0.235355
0.08351
0.235727
0.0892274
0.236415
0.0950889
0.2375
0.101086
0.239073
0.107197
0.241241
0.11339
0.244125
0.119613
0.247862
0.125788
0.252597
0.131812
0.258465
0.137573
0.265579
0.142936
0.274032
0.147741
0.283876
0.151819
0.295085
0.154979
0.307594
0.157031
0.157403
0.321254
0.245398
0.00878909
0.245278
0.0150749
0.245121
0.0209276
0.244931
0.0264746
0.244716
0.0317947
0.244488
0.0369555
0.244258
0.042013
0.244041
0.0470135
0.243856
0.051996
0.243724
0.0569919
0.243671
0.0620263
0.243728
0.0671194
0.24393
0.0722865
0.244318
0.0775376
0.244941
0.0828778
0.245855
0.0883057
0.247126
0.0938121
0.248828
0.0993787
0.251047
0.104976
0.253871
0.110564
0.257407
0.116076
0.261767
0.121429
0.267043
0.126537
0.273316
0.131301
0.280653
0.1356
0.289089
0.139306
0.298623
0.142286
0.309199
0.144404
0.320708
0.145523
0.145164
0.332947
0.251379
0.00885282
0.251334
0.015142
0.25128
0.0209972
0.251222
0.0265426
0.251168
0.0318539
0.251127
0.0369962
0.251114
0.0420227
0.251144
0.0469771
0.251236
0.0518948
0.251414
0.0568039
0.251703
0.0617256
0.252135
0.0666756
0.252747
0.0716639
0.253579
0.0766949
0.254679
0.0817674
0.256103
0.086874
0.25791
0.0919985
0.260168
0.0971156
0.262949
0.102191
0.266329
0.107181
0.270392
0.112012
0.275217
0.116603
0.280863
0.120891
0.287373
0.124791
0.294778
0.128196
0.303076
0.131008
0.312235
0.133127
0.322177
0.134463
0.332773
0.134927
0.134124
0.343814
0.257506
0.00887317
0.257538
0.0151335
0.257592
0.020961
0.25767
0.0264759
0.257781
0.0317501
0.257933
0.0368456
0.258141
0.0418127
0.258421
0.0466921
0.258793
0.0515157
0.25928
0.0563081
0.259908
0.0610869
0.26071
0.0658638
0.261719
0.0706441
0.262976
0.0754278
0.264527
0.0802079
0.26642
0.0849718
0.268712
0.0896995
0.27146
0.0943619
0.274724
0.0989224
0.278565
0.103337
0.283041
0.107533
0.288205
0.111437
0.29409
0.115005
0.300715
0.118165
0.308083
0.120828
0.31617
0.122921
0.324923
0.124374
0.334256
0.125131
0.344044
0.125139
0.12407
0.354099
0.263782
0.00884846
0.263894
0.015047
0.264058
0.0208164
0.264276
0.0262715
0.264554
0.0314802
0.264902
0.036501
0.265334
0.0413811
0.265864
0.0461579
0.266514
0.05086
0.267306
0.0555086
0.268266
0.0601179
0.269425
0.0646958
0.270816
0.0692442
0.272475
0.0737593
0.274444
0.0782307
0.276766
0.0826421
0.279488
0.0869699
0.28266
0.0911832
0.286331
0.0952462
0.290547
0.0991165
0.295343
0.102732
0.300744
0.106033
0.306768
0.108979
0.31342
0.111511
0.320683
0.113564
0.328518
0.115085
0.336864
0.116028
0.345635
0.116359
0.354721
0.116054
0.114835
0.363956
0.27021
0.00877742
0.270403
0.0148811
0.27068
0.0205616
0.271039
0.025928
0.271486
0.0310431
0.272031
0.035962
0.272685
0.0407285
0.273464
0.0453767
0.274388
0.0499321
0.275478
0.0544127
0.276759
0.0588295
0.278259
0.0631876
0.280009
0.0674858
0.282043
0.0717174
0.284395
0.0758702
0.287104
0.079926
0.290208
0.0838598
0.293744
0.0876408
0.29775
0.0912348
0.302259
0.0946026
0.30729
0.0976963
0.31285
0.10047
0.318943
0.102882
0.325562
0.104889
0.332678
0.106446
0.340246
0.107516
0.348202
0.108071
0.356467
0.108094
0.364943
0.107577
0.106287
0.373492
0.276793
0.00865918
0.277069
0.0146349
0.277458
0.0201962
0.277959
0.0254448
0.278575
0.030439
0.279315
0.0352298
0.28019
0.0398575
0.281213
0.0443531
0.282404
0.048739
0.283781
0.0530304
0.285369
0.0572358
0.287193
0.0613575
0.289279
0.0653925
0.291657
0.0693323
0.294357
0.0731631
0.29741
0.0768663
0.300846
0.0804181
0.30469
0.0837904
0.308968
0.0869514
0.3137
0.0898663
0.318895
0.0924965
0.324552
0.0948074
0.330664
0.0967667
0.33721
0.0983397
0.344157
0.0994963
0.351458
0.100214
0.359051
0.100477
0.366864
0.10028
0.374814
0.0996264
0.0983164
0.382784
0.283535
0.00849309
0.283894
0.0143083
0.284396
0.0197202
0.285037
0.024823
0.285821
0.0296697
0.286753
0.0343073
0.287843
0.0387728
0.289105
0.0430938
0.290553
0.0472902
0.292206
0.0513745
0.294085
0.055353
0.296211
0.0592265
0.298607
0.0629902
0.301298
0.0666349
0.304309
0.0701467
0.307661
0.0735074
0.311379
0.0766952
0.315479
0.0796851
0.319976
0.0824497
0.324878
0.0849596
0.330187
0.087183
0.335895
0.0890946
0.341985
0.0906717
0.348433
0.0918883
0.355202
0.0927251
0.362244
0.0931694
0.369504
0.0932156
0.376917
0.0928663
0.384413
0.0921298
0.0908355
0.391894
0.29044
0.00827886
0.29088
0.0139018
0.291494
0.0191349
0.292274
0.0240646
0.293222
0.0287385
0.294342
0.0331994
0.295642
0.0374809
0.297132
0.0416078
0.298827
0.0455972
0.300741
0.0494597
0.302892
0.0531998
0.305297
0.056817
0.307977
0.060306
0.31095
0.0636572
0.314235
0.0668573
0.317847
0.0698897
0.321803
0.072735
0.326112
0.0753716
0.33078
0.0777768
0.33581
0.079926
0.341193
0.081795
0.346917
0.0833665
0.35296
0.0846242
0.359294
0.0855501
0.365883
0.0861333
0.372682
0.0863686
0.379639
0.0862568
0.3867
0.0858052
0.393803
0.0850258
0.0837712
0.400867
0.297509
0.00801666
0.298031
0.0134165
0.298754
0.0184425
0.299671
0.023173
0.300778
0.0276499
0.30208
0.0319122
0.303581
0.03599
0.30529
0.0399054
0.307218
0.0436732
0.309376
0.0473021
0.31178
0.0507956
0.314443
0.0541523
0.317379
0.0573666
0.320604
0.0604295
0.324128
0.0633288
0.327964
0.0660499
0.33212
0.068576
0.336598
0.0708893
0.3414
0.0729715
0.346521
0.0748021
0.351947
0.0763647
0.35766
0.0776486
0.363639
0.0786412
0.369854
0.079332
0.376268
0.0797161
0.382841
0.0797937
0.389527
0.0795698
0.396277
0.0790543
0.403041
0.0782612
0.0770624
0.409749
0.304749
0.00770701
0.30535
0.0128542
0.30618
0.017646
0.307228
0.0221523
0.308489
0.0264098
0.309965
0.0304532
0.311658
0.0343096
0.313574
0.0379984
0.315721
0.0415324
0.318108
0.0449189
0.320744
0.0481605
0.323642
0.0512553
0.326809
0.0541982
0.330256
0.0569808
0.33399
0.0595925
0.338017
0.0620209
0.342339
0.064252
0.346954
0.0662716
0.351858
0.0680655
0.357039
0.0696175
0.362483
0.0709169
0.36817
0.0719579
0.374075
0.0727324
0.38017
0.0732348
0.386419
0.0734647
0.392785
0.0734258
0.399228
0.0731257
0.405706
0.0725757
0.412177
0.0717902
0.0706579
0.418581
0.312161
0.00735067
0.31284
0.0122171
0.313773
0.016749
0.314947
0.0210076
0.316356
0.0250246
0.317998
0.0288307
0.319873
0.0324499
0.321984
0.0358991
0.324335
0.0391895
0.326933
0.0423272
0.329783
0.045314
0.332893
0.0481482
0.336267
0.050825
0.339911
0.0533374
0.343826
0.0556763
0.348015
0.0578314
0.352475
0.0597917
0.357199
0.0615463
0.362179
0.0630843
0.367401
0.0643938
0.372847
0.0654681
0.378496
0.0663057
0.384323
0.0669021
0.3903
0.0672552
0.396396
0.0673676
0.402575
0.0672453
0.408802
0.0668971
0.415043
0.0663352
0.42126
0.0655734
0.0645149
0.427403
0.319751
0.00694864
0.320504
0.0115078
0.321536
0.0157554
0.322832
0.0197444
0.324381
0.0235015
0.326181
0.0270536
0.328227
0.0304216
0.330519
0.0336203
0.333061
0.0366593
0.335852
0.0395437
0.338898
0.042275
0.342199
0.0448516
0.345758
0.0472696
0.349574
0.049523
0.353648
0.0516044
0.357975
0.0535058
0.362548
0.0552188
0.36736
0.0567352
0.372397
0.0580474
0.377644
0.0591467
0.38308
0.0600296
0.388686
0.060698
0.394435
0.0611502
0.400303
0.0613865
0.406258
0.0614114
0.41227
0.0612322
0.418308
0.0608584
0.424342
0.060302
0.430339
0.059576
0.0585965
0.436258
0.327522
0.00650205
0.328347
0.0107292
0.329474
0.0146697
0.330885
0.0183687
0.332568
0.0218481
0.334515
0.025131
0.336721
0.0282356
0.339184
0.0311745
0.341901
0.033956
0.344871
0.0365844
0.348094
0.039061
0.351568
0.0413846
0.355291
0.0435519
0.359261
0.0455581
0.363471
0.0473976
0.367916
0.0490644
0.372585
0.0505521
0.377468
0.0518552
0.382549
0.0529688
0.38781
0.0538865
0.393231
0.0546076
0.398792
0.0551363
0.404468
0.0554729
0.410234
0.0556193
0.416064
0.0555813
0.42193
0.0553667
0.427804
0.054985
0.433659
0.0544476