/*--------------------------------*- C++ -*----------------------------------*\
| =========                 |                                                 |
| \\      /  F ield         | OpenFOAM: The Open Source CFD Toolbox           |
|  \\    /   O peration     | Version:  dev                                   |
|   \\  /    A nd           | Web:      www.OpenFOAM.org                      |
|    \\/     M anipulation  |                                                 |
\*---------------------------------------------------------------------------*/
FoamFile
{
    version     2.0;
    format      ascii;
    class       surfaceVectorField;
    location    "3.09";
    object      Uf;
}
// * * * * * * * * * * * * * * * * * * * * * * * * * * * * * * * * * * * * * //

dimensions      [0 1 -1 0 0 0 0];

internalField   nonuniform List<vector> 
5457
(
(9.9124 4.87279e-21 0.0240772)
(9.97563 1.16312e-21 0.0392019)
(9.8103 5.97758e-21 0.0315355)
(9.92763 -1.2059e-21 0.0470915)
(9.6916 -9.61343e-23 0.0377487)
(9.84798 -1.24391e-21 0.0565949)
(9.5545 -1.2686e-21 0.0440676)
(9.74681 1.29732e-21 0.0675429)
(9.39933 0 0.0505187)
(9.62763 -1.06374e-20 0.0789652)
(9.22662 0 0.0571548)
(9.49027 -1.10948e-20 0.0907532)
(9.03642 6.12086e-21 0.0641294)
(9.33433 1.43069e-20 0.103161)
(8.82841 -6.75591e-21 0.0715756)
(9.15966 6.02574e-21 0.116429)
(8.60208 -5.72098e-21 0.0796)
(8.9659 -1.24893e-20 0.1307)
(8.35678 2.02199e-20 0.0883195)
(8.75252 3.16376e-20 0.146129)
(8.09165 -1.75459e-21 0.0978607)
(8.51881 -1.31254e-20 0.162907)
(7.80571 -2.98151e-20 0.108346)
(8.26386 -1.40744e-20 0.181217)
(7.49788 9.32054e-22 0.119895)
(7.98663 4.4034e-20 0.201223)
(7.16703 1.10086e-20 0.132627)
(7.68604 1.61331e-20 0.223077)
(6.81203 -3.97129e-21 0.146659)
(7.36094 -1.27711e-19 0.246918)
(6.4318 0 0.162097)
(7.01018 1.33416e-19 0.27285)
(6.0254 9.38832e-21 0.179023)
(6.63269 7.12037e-20 0.300919)
(5.59214 1.894e-20 0.197477)
(6.22755 -1.44699e-19 0.331086)
(5.1317 9.24756e-20 0.217429)
(5.79412 2.13775e-22 0.363176)
(4.64437 -2.64873e-20 0.238747)
(5.33217 1.01638e-19 0.396815)
(4.13121 -1.04109e-19 0.261156)
(4.84212 -2.52909e-19 0.431361)
(3.59439 0 0.284192)
(4.32525 -1.73206e-19 0.465843)
(3.0374 -1.96858e-19 0.307099)
(3.78393 -4.5368e-20 0.498852)
(2.46556 2.14236e-19 0.32866)
(3.22201 -1.4699e-19 0.528372)
(1.88651 1.88434e-19 0.34685)
(2.64517 4.01786e-19 0.551496)
(1.31121 -2.59409e-19 0.357981)
(2.06155 -9.21585e-19 0.563919)
(0.755652 -2.73725e-19 0.352813)
(1.48236 8.3275e-19 0.55885)
(0.245657 -4.69912e-20 0.259625)
(0.926121 -1.07623e-18 0.52213)
(-0.116516 4.34585e-20 -0.0672289)
(0.360688 1.95306e-18 0.366635)
(0.181339 -1.15256e-18 -0.121516)
(9.99822 -4.94359e-21 0.0500208)
(10.0047 1.16318e-21 0.0399935)
(9.96001 -8.41113e-21 0.0681191)
(9.98401 -1.19913e-21 0.0647108)
(9.89941 1.8876e-22 0.0840883)
(9.93534 -7.42553e-21 0.0854821)
(9.81837 -8.272e-21 0.100747)
(9.86573 -2.57474e-21 0.107468)
(9.71713 -2.174e-20 0.118123)
(9.77753 5.28466e-21 0.130482)
(9.59607 3.62356e-21 0.136274)
(9.67059 -5.5839e-21 0.154364)
(9.4553 1.40813e-20 0.155523)
(9.54479 -1.15513e-20 0.179517)
(9.29458 0 0.176167)
(9.40018 4.46242e-20 0.20639)
(9.11348 2.55583e-20 0.198439)
(9.23647 -4.63899e-20 0.23529)
(8.91138 -2.40764e-21 0.222601)
(9.05313 1.0492e-19 0.266537)
(8.68747 -2.54643e-20 0.248934)
(8.84956 -8.02627e-20 0.300512)
(8.4408 6.06691e-20 0.277698)
(8.62495 -8.64779e-22 0.337584)
(8.1703 5.88128e-20 0.309135)
(8.37836 3.74727e-22 0.378091)
(7.87485 -1.24763e-19 0.343467)
(8.10873 6.10851e-20 0.422356)
(7.55328 1.36291e-20 0.380884)
(7.81496 3.78449e-21 0.470685)
(7.20443 2.03733e-19 0.421513)
(7.49589 2.13185e-21 0.523322)
(6.82723 -8.60786e-20 0.465371)
(7.15037 2.2746e-19 0.580407)
(6.4208 -1.61396e-19 0.512319)
(6.77732 -2.79284e-19 0.641914)
(5.98459 1.08131e-20 0.561972)
(6.37585 -9.54425e-21 0.707566)
(5.51851 -1.29566e-19 0.613602)
(5.94535 -3.55803e-19 0.776705)
(5.02321 -3.21035e-19 0.666042)
(5.48565 1.38312e-19 0.84815)
(4.50031 -2.16811e-19 0.717554)
(4.99721 -1.73242e-19 0.920049)
(3.95269 3.10186e-21 0.765622)
(4.48137 -8.94018e-20 0.989683)
(3.38486 4.66509e-20 0.806593)
(3.94059 5.35665e-22 1.05311)
(2.80359 -7.22138e-19 0.835004)
(3.3787 -9.5943e-20 1.10453)
(2.21889 1.86739e-19 0.842112)
(2.80119 -8.13848e-19 1.13516)
(1.64598 1.98037e-20 0.811529)
(2.21504 6.51629e-20 1.13049)
(1.10938 9.56868e-19 0.704698)
(1.6305 1.5596e-18 1.06204)
(0.597166 7.49402e-19 0.464705)
(1.01419 1.84083e-19 0.873265)
(0.639857 -5.91644e-19 0.475598)
(9.99094 4.86623e-21 0.057364)
(10.0024 0 0.0440514)
(9.9563 -3.09169e-22 0.0853554)
(9.9792 1.43598e-20 0.0806993)
(9.89959 -1.01034e-20 0.111721)
(9.9317 -2.4726e-20 0.112539)
(9.82391 1.11234e-20 0.139247)
(9.86533 -5.19933e-21 0.144775)
(9.7299 2.12707e-20 0.168139)
(9.78137 2.65117e-20 0.178352)
(9.61783 -2.08489e-20 0.198502)
(9.67961 -1.10859e-20 0.21329)
(9.48786 1.98873e-20 0.230772)
(9.56013 2.55225e-20 0.250046)
(9.33993 -3.19571e-21 0.265394)
(9.42331 1.80575e-20 0.289239)
(9.17367 3.53237e-20 0.302753)
(9.26889 -4.94811e-20 0.331358)
(8.98855 2.4193e-20 0.343271)
(9.09643 7.81624e-20 0.376876)
(8.78392 -5.44501e-20 0.387401)
(8.90553 -1.06904e-19 0.426325)
(8.55897 -6.11493e-20 0.435581)
(8.69559 5.6911e-20 0.480247)
(8.31274 3.55516e-21 0.488222)
(8.46586 -1.74869e-19 0.53916)
(8.04422 1.88805e-19 0.545718)
(8.21547 1.80037e-19 0.603557)
(7.7523 -7.69479e-21 0.608424)
(7.94351 1.2752e-19 0.673924)
(7.43581 2.92374e-20 0.676598)
(7.64897 -1.31364e-19 0.750684)
(7.0936 2.69122e-20 0.750337)
(7.33082 1.56218e-19 0.834125)
(6.72457 -1.23412e-19 0.829489)
(6.98797 -3.946e-19 0.924322)
(6.32778 -3.81193e-19 0.91353)
(6.61942 2.58322e-19 1.02103)
(5.90254 -8.12861e-20 1.00139)
(6.22425 -3.75545e-19 1.12352)
(5.44855 2.81419e-19 1.09127)
(5.80169 3.26045e-19 1.23033)
(4.96615 -4.48789e-20 1.18044)
(5.35116 -8.38296e-20 1.33905)
(4.45642 -9.07534e-20 1.26491)
(4.87253 -7.47065e-19 1.44608)
(3.9214 -1.42966e-19 1.3389)
(4.36613 1.40625e-18 1.5462)
(3.3642 -1.95555e-19 1.39398)
(3.83259 -8.44458e-19 1.63175)
(2.78881 -9.26864e-19 1.41755)
(3.2726 -9.95407e-20 1.69159)
(2.19815 1.61005e-18 1.39015)
(2.68541 7.86878e-19 1.7095)
(1.58601 7.86613e-19 1.28343)
(2.07054 2.41468e-18 1.66161)
(0.907105 -1.10579e-18 1.06984)
(1.37826 -3.26172e-18 1.52602)
(0.804927 2.32374e-19 1.25492)
(9.98656 9.7167e-21 0.0679829)
(10.0011 -1.8488e-20 0.05007)
(9.95212 -1.06884e-20 0.107338)
(9.97605 9.56882e-21 0.0965993)
(9.89642 -1.94937e-20 0.144893)
(9.92847 -1.97821e-20 0.139126)
(9.82204 1.07206e-20 0.183162)
(9.86331 -4.51176e-23 0.18146)
(9.72995 -6.44897e-21 0.22286)
(9.78116 1.05854e-20 0.225263)
(9.62047 3.58826e-20 0.264333)
(9.68162 -5.55934e-21 0.270875)
(9.49387 2.3577e-20 0.308169)
(9.5649 2.30233e-20 0.318778)
(9.35024 -2.92939e-20 0.355014)
(9.43157 -2.067e-20 0.36972)
(9.18933 -4.66265e-21 0.405437)
(9.28146 -3.08312e-21 0.424377)
(9.01082 -5.57996e-20 0.460012)
(9.11422 -1.04088e-19 0.48334)
(8.81427 6.9699e-21 0.519355)
(8.9296 -5.45313e-20 0.547239)
(8.59916 -6.03175e-20 0.584083)
(8.72724 1.68345e-19 0.61676)
(8.36481 6.95929e-21 0.654788)
(8.50662 -1.09203e-19 0.692577)
(8.11047 1.17961e-19 0.732047)
(8.26711 1.1233e-19 0.775332)
(7.83533 0 0.816403)
(8.00803 0 0.865667)
(7.53848 -7.45281e-23 0.908302)
(7.72864 2.6093e-19 0.964171)
(7.21897 -2.73381e-19 1.008)
(7.42814 -1.35112e-20 1.0713)
(6.87582 -3.57081e-21 1.11548)
(7.10566 -3.011e-19 1.18728)
(6.50806 2.5491e-19 1.23027)
(6.76027 4.05552e-21 1.31199)
(6.11468 4.12825e-20 1.35128)
(6.39099 3.84921e-20 1.4448)
(5.6947 -4.5035e-20 1.47647)
(5.99677 -5.98222e-19 1.58431)
(5.24725 -7.94941e-19 1.60262)
(5.57621 -6.57296e-19 1.72794)
(4.77159 7.74934e-19 1.72504)
(5.12781 -5.31882e-19 1.87175)
(4.26686 6.80552e-19 1.83695)
(4.64996 1.45289e-18 2.01016)
(3.73171 -7.41084e-19 1.9287)
(4.1402 -2.13193e-18 2.13508)
(3.16329 1.61861e-18 1.98693)
(3.59474 1.51097e-18 2.23532)
(2.55453 1.60671e-18 1.99383)
(3.00682 1.60412e-18 2.29631)
(1.88976 -1.67582e-18 1.9302)
(2.37079 1.0843e-19 2.29923)
(1.13638 -1.86245e-18 1.78038)
(1.63304 -3.40868e-18 2.23544)
(0.93813 1.5119e-18 2.07054)
(9.9844 -1.82021e-20 0.0794106)
(10.0004 -1.38401e-20 0.0570554)
(9.94965 0 0.12874)
(9.97443 -4.75264e-21 0.112654)
(9.89491 0 0.176312)
(9.92702 1.96585e-20 0.165262)
(9.8219 0 0.224434)
(9.86314 -2.03479e-20 0.217483)
(9.73166 1.12149e-20 0.274261)
(9.78286 -1.06212e-20 0.271256)
(9.62457 -1.79689e-20 0.326353)
(9.6857 4.3753e-20 0.327228)
(9.50092 -2.19266e-20 0.381387)
(9.57187 -2.83787e-20 0.385944)
(9.3608 5.81976e-21 0.440147)
(9.44197 5.91215e-21 0.448267)
(9.20407 -1.04071e-19 0.503333)
(9.29589 -9.80741e-20 0.515041)
(9.03047 -1.02058e-19 0.571602)
(9.13333 1.00269e-19 0.586941)
(8.83973 1.10261e-19 0.645658)
(8.95415 -1.05918e-19 0.664668)
(8.63149 1.15319e-19 0.726242)
(8.75809 2.1808e-19 0.749018)
(8.40529 -5.10072e-22 0.814081)
(8.54482 -1.13154e-19 0.8408)
(8.16058 -7.34242e-21 0.909884)
(8.31383 -3.90753e-23 0.940791)
(7.89675 2.64831e-19 1.01433)
(8.0646 2.47789e-19 1.04976)
(7.61316 2.43719e-19 1.12802)
(7.79658 2.64256e-19 1.16843)
(7.30909 -4.51568e-20 1.25138)
(7.50913 -3.11579e-19 1.29739)
(6.98374 -2.89109e-19 1.38454)
(7.20157 -3.16517e-20 1.43707)
(6.6362 -2.12205e-19 1.52722)
(6.87307 -7.98975e-19 1.58751)
(6.26539 -6.09908e-19 1.67848)
(6.52261 5.96762e-19 1.7483)
(5.86993 -1.2126e-18 1.83642)
(6.14897 -1.26536e-18 1.91832)
(5.44799 -3.93075e-19 1.99778)
(5.75034 -1.29672e-18 2.09527)
(4.99729 1.69301e-19 2.15783)
(5.32405 8.72666e-20 2.27532)
(4.5147 -1.39791e-18 2.30987)
(4.86689 0 2.45316)
(3.99543 1.52191e-19 2.44455)
(4.37433 -1.29445e-18 2.6214)
(3.43222 1.49885e-18 2.54953)
(3.83963 2.91145e-20 2.76976)
(2.814 1.00956e-19 2.6094)
(3.2528 1.51351e-18 2.88536)
(2.12554 -1.64372e-18 2.60873)
(2.60757 1.003e-19 2.95094)
(1.34945 2.86832e-20 2.53322)
(1.85543 -3.33506e-18 2.95733)
(1.07614 3.41071e-18 2.87575)
(9.98334 -2.08749e-22 0.0911781)
(9.99999 2.3079e-20 0.0645165)
(9.94856 1.53181e-20 0.149837)
(9.97383 -1.42503e-20 0.128728)
(9.89506 -1.35153e-21 0.207121)
(9.927 -2.94357e-20 0.190821)
(9.82378 -3.08137e-20 0.265049)
(9.86461 4.05195e-20 0.25267)
(9.73574 2.27978e-20 0.324939)
(9.78651 -2.11458e-20 0.31615)
(9.63149 3.22013e-20 0.387502)
(9.69218 1.09517e-20 0.382118)
(9.51127 0 0.453514)
(9.58178 0 0.451288)
(9.37511 -9.96005e-20 0.523882)
(9.45581 -4.69792e-20 0.52465)
(9.22291 1.09333e-19 0.59941)
(9.31425 -4.97753e-20 0.603146)
(9.05451 9.33555e-20 0.680826)
(9.15691 2.02872e-19 0.687515)
(8.86973 6.74489e-21 0.76892)
(8.98367 2.34781e-22 0.77853)
(8.66829 -1.53436e-20 0.864548)
(8.79435 3.9755e-22 0.877087)
(8.44984 -1.11058e-19 0.968568)
(8.58867 -1.16871e-19 0.984109)
(8.21393 2.58781e-19 1.08182)
(8.36621 2.43053e-19 1.1005)
(7.96007 2.47593e-19 1.2051)
(8.12652 -2.38916e-19 1.22716)
(7.68771 -2.99264e-19 1.33914)
(7.86914 5.09002e-19 1.36492)
(7.39628 -2.9409e-19 1.48453)
(7.59344 -5.26635e-19 1.51451)
(7.08506 -5.52046e-19 1.64159)
(7.29883 0 1.67652)
(6.75314 2.84973e-20 1.81027)
(6.98451 -1.07604e-20 1.85127)
(6.39935 -8.31219e-20 1.98994)
(6.64936 6.02606e-19 2.0386)
(6.02206 -1.35143e-18 2.17912)
(6.29193 -6.20157e-19 2.2378)
(5.61878 -7.9962e-19 2.37493)
(5.91019 -1.68959e-20 2.4472)
(5.18601 -8.31805e-20 2.57299)
(5.50072 -8.41472e-20 2.66354)
(4.71901 8.98221e-20 2.76734)
(5.05894 -1.35386e-18 2.88206)
(4.21106 -1.40529e-18 2.94963)
(4.57899 7.6615e-20 3.09641)
(3.65289 5.13301e-20 3.10868)
(4.05269 -5.48381e-20 3.29746)
(3.0326 1.50398e-18 3.23003)
(3.46855 3.62759e-20 3.473)
(2.337 -1.60088e-18 3.29656)
(2.82077 1.50796e-18 3.60499)
(1.55892 1.71349e-19 3.2876)
(2.07091 -1.6169e-18 3.67611)
(1.22366 1.62981e-18 3.66073)
(9.98295 8.4946e-21 0.103043)
(9.99985 -1.36317e-20 0.0721531)
(9.94858 -5.92976e-20 0.170572)
(9.97397 -5.19877e-20 0.144617)
(9.89648 1.3613e-20 0.237198)
(9.92798 -2.95284e-20 0.215726)
(9.82722 4.91947e-20 0.304635)
(9.86734 2.03526e-20 0.286878)
(9.74184 -3.24744e-20 0.374209)
(9.79186 5.235e-20 0.359718)
(9.64094 -2.14302e-20 0.44681)
(9.70081 -5.41555e-20 0.435281)
(9.52467 -4.77155e-20 0.523382)
(9.59429 -4.50591e-20 0.514528)
(9.39304 2.82497e-21 0.604931)
(9.47274 -6.37612e-22 0.598551)
(9.24604 4.76137e-20 0.692323)
(9.33636 3.63233e-20 0.688315)
(9.0836 1.06679e-19 0.786356)
(9.18499 6.23588e-21 0.784623)
(8.90558 -6.08881e-21 0.88791)
(9.0185 2.09358e-19 0.88835)
(8.7117 -1.02907e-19 0.997951)
(8.83677 -2.13478e-19 1.0005)
(8.50165 2.42585e-19 1.11745)
(8.63951 2.26179e-19 1.12209)
(8.27504 -2.61607e-19 1.24737)
(8.42634 -2.27488e-19 1.25416)
(8.03144 3.28709e-20 1.38864)
(8.19685 -2.48276e-19 1.3977)
(7.7703 2.67691e-19 1.54209)
(7.95063 5.06333e-19 1.5537)
(7.49102 -2.25248e-19 1.70847)
(7.68699 -2.28473e-19 1.72303)
(7.1929 5.41519e-19 1.88834)
(7.40526 -3.33427e-20 1.90646)
(6.87495 5.72098e-19 2.08194)
(7.10465 5.34785e-19 2.1046)
(6.53582 5.02274e-20 2.28901)
(6.78386 6.21468e-19 2.31766)
(6.17358 7.22723e-19 2.50868)
(6.44115 -5.84957e-19 2.54542)
(5.78537 6.99078e-19 2.73885)
(6.07415 7.07653e-19 2.78696)
(5.36681 -1.36851e-18 2.97585)
(5.67914 -1.27388e-18 3.04005)
(4.91196 -1.35593e-18 3.21455)
(5.25048 -5.34299e-20 3.30072)
(4.41302 1.42312e-18 3.44772)
(4.78115 -9.70454e-20 3.56356)
(3.85995 -7.0702e-20 3.6649)
(4.26228 3.87175e-20 3.82042)
(3.24094 4.21116e-20 3.85112)
(3.68153 -1.40573e-20 4.05901)
(2.54372 1.47474e-18 3.98437)
(3.03239 2.99106e-18 4.25943)
(1.76551 -7.51882e-20 4.03238)
(2.28888 -1.52198e-18 4.39273)
(1.37946 -7.0092e-22 4.43185)
(9.98301 -7.46814e-20 0.114805)
(10 -2.17237e-23 0.0797581)
(9.94934 -2.18719e-20 0.190816)
(9.97457 5.64296e-20 0.160188)
(9.89882 -2.19477e-20 0.266385)
(9.92965 -3.87782e-20 0.239891)
(9.832 2.40496e-20 0.342949)
(9.87113 -2.02732e-20 0.319912)
(9.74976 2.8968e-20 0.421814)
(9.7987 2.12939e-20 0.401713)
(9.65262 -7.7651e-20 0.504064)
(9.71132 -5.41279e-20 0.486501)
(9.54074 2.71939e-21 0.590802)
(9.60903 -5.57267e-22 0.575434)
(9.41422 3.34474e-20 0.683082)
(9.49246 4.63782e-20 0.66965)
(9.27314 -5.5227e-21 0.781813)
(9.36193 -9.62125e-20 0.770136)
(9.11747 1.11931e-19 0.887882)
(9.21726 9.88509e-20 0.87779)
(8.94706 -4.23226e-21 1.00228)
(9.05831 2.07566e-19 0.993607)
(8.76164 1.22035e-19 1.12608)
(8.885 -2.13184e-19 1.11868)
(8.56093 -2.50433e-19 1.26036)
(8.69705 2.21106e-19 1.25416)
(8.34454 -2.14612e-19 1.40619)
(8.49413 -6.93658e-19 1.40114)
(8.11208 2.35858e-19 1.56463)
(8.27583 2.36847e-19 1.56077)
(7.863 0 1.73669)
(8.04174 2.59499e-19 1.73419)
(7.59659 -3.3801e-20 1.92326)
(7.79122 1.58066e-20 1.92247)
(7.31205 -3.29373e-20 2.12516)
(7.52341 5.60872e-19 2.12657)
(7.00827 5.85454e-19 2.343)
(7.23734 -5.40929e-19 2.3474)
(6.68365 -2.71245e-20 2.577)
(6.9316 5.43906e-19 2.58568)
(6.33591 -5.85319e-19 2.82693)
(6.60415 -6.28498e-19 2.84175)
(5.96181 -1.28853e-18 3.0917)
(6.25216 -1.19922e-18 3.1155)
(5.55649 5.20031e-20 3.36875)
(5.87164 -5.14959e-20 3.40594)
(5.11303 1.20553e-18 3.65385)
(5.4563 2.61133e-18 3.71036)
(4.62273 -1.48343e-18 3.94069)
(4.99804 -1.37875e-18 4.02419)
(4.07494 9.18807e-20 4.21914)
(4.4871 -1.43003e-18 4.34009)
(3.45753 2.94583e-18 4.47293)
(3.91015 1.44001e-18 4.64538)
(2.75755 -2.09564e-20 4.67403)
(3.25789 2.86783e-18 4.91812)
(1.97161 -1.41258e-18 4.77546)
(2.51672 -5.80496e-18 5.11691)
(1.54385 3.10238e-18 5.20747)
(9.9834 1.3199e-19 0.126321)
(10.0004 3.20544e-20 0.0871909)
(9.95065 3.80056e-20 0.210462)
(9.97552 2.38858e-20 0.175336)
(9.90198 -3.68015e-20 0.294532)
(9.93191 -5.82547e-20 0.263188)
(9.83794 -2.23883e-20 0.379789)
(9.87583 2.01881e-20 0.351592)
(9.75922 -6.30304e-20 0.467557)
(9.80676 -2.08495e-22 0.441947)
(9.6662 2.38183e-20 0.559068)
(9.72339 -2.05466e-22 0.535592)
(9.55918 4.38455e-20 0.655507)
(9.62578 2.74149e-22 0.633757)
(9.43839 -8.54678e-20 0.757969)
(9.51478 9.21938e-20 0.737601)
(9.30394 1.10611e-20 0.867443)
(9.39075 -8.35198e-20 0.848204)
(9.15576 1.96113e-19 0.984921)
(9.25345 -1.76319e-20 0.966592)
(8.99371 -7.46464e-21 1.1115)
(9.10275 1.16048e-19 1.09384)
(8.81759 -1.07989e-19 1.24835)
(8.93862 -1.078e-19 1.23113)
(8.62712 -2.34961e-19 1.39665)
(8.76084 -5.12871e-21 1.3797)
(8.42198 -2.29453e-19 1.55757)
(8.56913 -2.30389e-19 1.54078)
(8.20175 2.60624e-19 1.73233)
(8.3631 -2.42345e-21 1.7156)
(7.9659 2.72279e-19 1.92214)
(8.1423 2.37144e-19 1.90552)
(7.7137 6.17823e-19 2.12813)
(7.90619 1.55328e-22 2.11184)
(7.4441 3.97906e-20 2.35137)
(7.65379 5.62748e-19 2.3358)
(7.15581 -5.7026e-19 2.59289)
(7.38389 -1.05903e-18 2.57865)
(6.84702 -7.09062e-20 2.85351)
(7.09495 5.4473e-19 2.84161)
(6.51511 -1.24877e-18 3.13372)
(6.78467 -5.5674e-22 3.12577)
(6.15639 4.86833e-20 3.43354)
(6.4498 -1.20154e-18 3.43192)
(5.76554 2.53504e-18 3.75175)
(6.0859 1.22698e-18 3.76039)
(5.33496 -7.46558e-21 4.0854)
(5.6863 2.49323e-18 4.11005)
(4.85485 -1.32573e-18 4.42909)
(5.24187 -3.79165e-18 4.47768)
(4.31335 -6.30981e-20 4.77292)
(4.74133 1.28421e-18 4.8568)
(3.69686 1.37335e-18 5.09926)
(4.16966 1.27701e-18 5.23463)
(2.98989 -2.96071e-18 5.37432)
(3.5123 -1.30178e-18 5.58774)
(2.18407 -9.10207e-19 5.5349)
(2.76566 -2.92231e-18 5.86329)
(1.72163 4.50854e-18 6.01452)
(9.98402 -7.62429e-20 0.137478)
(10.001 0 0.0943423)
(9.95245 -7.36971e-20 0.229399)
(9.97676 -3.76468e-20 0.189947)
(9.90584 2.73158e-23 0.321503)
(9.93473 7.73797e-20 0.28551)
(9.84482 4.20447e-20 0.414993)
(9.88132 1.97736e-20 0.381805)
(9.76992 6.26421e-20 0.511252)
(9.81583 4.14169e-20 0.480267)
(9.68148 -2.37431e-20 0.61158)
(9.73682 2.15495e-20 0.58232)
(9.57987 5.00197e-20 0.717183)
(9.64443 -2.22751e-20 0.68919)
(9.46542 9.15417e-20 0.829223)
(9.53957 1.14989e-19 0.802066)
(9.33821 -1.11254e-19 0.948811)
(9.42256 9.53758e-20 0.922171)
(9.19817 -9.58614e-20 1.07704)
(9.29322 -2.811e-19 1.05064)
(9.04522 1.25186e-20 1.21509)
(9.15145 -8.9428e-20 1.1886)
(8.87919 -3.44601e-21 1.36421)
(8.99722 1.12874e-20 1.33733)
(8.69987 -3.57513e-21 1.52567)
(8.83045 2.0791e-19 1.49814)
(8.50698 -2.16799e-22 1.70078)
(8.65092 2.23647e-19 1.67238)
(8.30013 -2.29757e-20 1.8909)
(8.45824 -2.28976e-19 1.86142)
(8.07879 -3.82715e-20 2.09748)
(8.25198 4.63256e-19 2.06678)
(7.84223 -4.82787e-20 2.32193)
(8.03164 -5.10642e-19 2.29005)
(7.58931 -5.55775e-19 2.56569)
(7.79626 -5.3078e-19 2.53283)
(7.31853 7.44367e-20 2.8302)
(7.54458 -1.76409e-20 2.79677)
(7.02789 6.09838e-19 3.11695)
(7.27484 5.80753e-19 3.08363)
(6.71446 3.51393e-20 3.42735)
(6.98458 -1.07902e-18 3.39533)
(6.37411 0 3.76255)
(6.67027 6.10068e-21 3.73376)
(6.0011 1.19514e-18 4.12297)
(6.327 -2.29287e-18 4.10063)
(5.58715 -1.34363e-18 4.50739)
(5.94776 2.35502e-18 4.4968)
(5.1211 -1.14055e-18 4.91179)
(5.52247 -2.5035e-18 4.9211)
(4.58899 2.6266e-18 5.32704)
(5.03773 1.31881e-18 5.36872)
(3.97401 -1.42425e-18 5.73496)
(4.47577 9.41746e-21 5.82791)
(3.25559 -1.27333e-18 6.09723)
(3.81395 -1.41319e-18 6.27532)
(2.41622 2.84389e-18 6.33447)
(3.05427 3.65586e-20 6.64898)
(1.9244 2.80067e-18 6.88724)
(9.98482 3.80231e-20 0.148171)
(10.0016 0 0.101137)
(9.95468 1.15381e-19 0.247516)
(9.97823 3.74482e-20 0.203902)
(9.91035 9.6194e-20 0.347197)
(9.93806 1.95073e-20 0.306757)
(9.85253 1.95466e-20 0.44844)
(9.88756 7.93597e-20 0.410457)
(9.78174 0 0.552707)
(9.82581 -8.21138e-20 0.516527)
(9.69832 2.23493e-20 0.661328)
(9.75147 8.48351e-20 0.626448)
(9.60266 4.47788e-20 0.775519)
(9.66478 -6.55089e-20 0.741448)
(9.49504 1.18523e-19 0.896523)
(9.56651 2.2647e-20 0.862771)
(9.37559 -7.99308e-20 1.02557)
(9.45699 8.57412e-22 0.991739)
(9.2443 -2.71996e-19 1.16385)
(9.33615 -1.83627e-19 1.12958)
(9.10111 -8.93311e-20 1.31259)
(9.20391 -2.2807e-19 1.2775)
(8.94593 2.25382e-19 1.47311)
(9.06029 2.03746e-19 1.43681)
(8.77866 4.35561e-19 1.6468)
(8.90534 -8.64173e-21 1.60891)
(8.59906 -1.0912e-20 1.83508)
(8.73891 4.42761e-19 1.79526)
(8.40677 2.66207e-19 2.03948)
(8.56063 -2.29253e-19 1.9974)
(8.20129 -2.07378e-20 2.26167)
(8.37017 1.68849e-20 2.21702)
(7.98189 -9.94138e-19 2.5034)
(8.16705 -1.02572e-20 2.45598)
(7.74752 1.30699e-20 2.76651)
(7.95044 -5.06957e-19 2.71622)
(7.49666 4.9555e-19 3.05296)
(7.71917 -6.19358e-21 2.99987)
(7.22711 -1.12714e-18 3.36495)
(7.47141 5.17175e-19 3.30935)
(6.93576 -1.10014e-18 3.70492)
(7.20467 -2.16366e-18 3.64745)
(6.61822 -2.30892e-18 4.07534)
(6.91536 -2.16034e-18 4.01726)
(6.26835 -1.09683e-18 4.47851)
(6.5983 -2.30089e-18 4.4221)
(5.87722 1.15819e-18 4.91557)
(6.24625 2.2943e-18 4.86525)
(5.43219 -1.20356e-20 5.38492)
(5.84839 -5.1213e-23 5.34853)
(4.91631 -1.3157e-18 5.87967)
(5.38907 -1.16447e-18 5.87038)
(4.30749 1.33857e-20 6.38322)
(4.84674 -4.33469e-20 6.42255)
(3.57639 -1.08213e-19 6.8553)
(4.18762 8.61917e-20 6.98517)
(2.69083 1.72372e-19 7.20261)
(3.41296 1.10798e-18 7.49154)
(2.17459 9.43283e-20 7.86894)
(9.9857 0 0.158314)
(10.0021 7.18396e-20 0.107542)
(9.95725 -5.8748e-20 0.264697)
(9.97985 0 0.217083)
(9.91546 3.66634e-21 0.371511)
(9.94183 -5.77925e-20 0.326798)
(9.86107 -2.49393e-20 0.48002)
(9.89444 9.89485e-20 0.437441)
(9.7946 5.33729e-21 0.591752)
(9.83667 -8.2165e-20 0.550612)
(9.71653 -5.31904e-21 0.708075)
(9.76728 8.48722e-20 0.667805)
(9.6272 -8.63447e-20 0.830253)
(9.68656 4.32077e-20 0.790321)
(9.52685 -9.53893e-20 0.959597)
(9.59523 -1.34658e-19 0.919475)
(9.41564 -1.05535e-19 1.09742)
(9.49362 -1.1705e-19 1.05663)
(9.29365 -1.40308e-19 1.24498)
(9.38175 1.1066e-20 1.20308)
(9.16085 7.09508e-20 1.40356)
(9.25958 6.00069e-20 1.36013)
(9.01726 -3.32777e-20 1.57454)
(9.12726 2.28758e-21 1.52911)
(8.86287 4.16364e-21 1.7594)
(8.9849 -2.07194e-19 1.71145)
(8.69752 2.15992e-19 1.95971)
(8.83238 2.18898e-19 1.90876)
(8.5209 -4.75832e-19 2.17718)
(8.66948 2.23289e-19 2.12277)
(8.33261 2.67567e-20 2.41366)
(8.49599 -2.39388e-19 2.3553)
(8.13205 4.72429e-19 2.67123)
(8.31157 -4.46231e-19 2.6084)
(7.91828 -5.21329e-19 2.95212)
(8.11558 4.65281e-19 2.88441)
(7.68989 1.96502e-20 3.2589)
(7.90695 -5.08583e-19 3.18592)
(7.44473 -5.45438e-19 3.59456)
(7.68408 5.1825e-19 3.51605)
(7.17975 -3.22882e-18 3.96261)
(7.44471 -1.04904e-18 3.8785)
(6.89058 -2.15438e-18 4.36703)
(7.18554 -2.17177e-18 4.27763)
(6.57091 1.12888e-18 4.8123)
(6.9015 -2.15567e-21 4.71858)
(6.21149 1.11644e-18 5.30268)
(6.58558 5.39178e-20 5.20743)
(5.79848 -1.16463e-18 5.84048)
(6.22689 2.16968e-18 5.75006)
(5.31156 1.19872e-19 6.42381)
(5.80826 -2.32265e-18 6.35048)
(4.72152 2.87997e-20 7.0419)
(5.30434 1.22076e-18 7.0081)
(3.98521 1.30484e-18 7.65827)
(4.6679 -2.3632e-18 7.71349)
(3.0464 9.86369e-19 8.17375)
(3.89182 4.7858e-18 8.40503)
(2.51482 -3.57468e-18 9.01773)
(9.98661 7.0741e-20 0.167842)
(10.0026 -7.14124e-20 0.11354)
(9.96006 0 0.28083)
(9.98158 -1.83402e-20 0.229395)
(9.92107 4.00876e-20 0.394324)
(9.94593 1.89775e-20 0.345523)
(9.87033 3.87452e-20 0.50961)
(9.90183 6.27275e-23 0.462641)
(9.80845 -1.83685e-23 0.628253)
(9.84833 -4.06807e-20 0.582384)
(9.73595 1.32789e-19 0.751667)
(9.78416 -4.17654e-20 0.706268)
(9.65321 -7.72293e-21 0.881195)
(9.7096 1.30723e-19 0.835669)
(9.56046 -1.56085e-19 1.01821)
(9.62547 -2.01644e-19 0.971981)
(9.4579 1.4028e-21 1.16406)
(9.53212 2.0672e-19 1.1166)
(9.34567 2.12152e-19 1.32008)
(9.42956 -2.13101e-19 1.27087)
(9.22387 -9.42254e-21 1.48759)
(9.31793 3.08019e-19 1.43613)
(9.09258 -1.74542e-19 1.66802)
(9.19753 -1.78085e-19 1.61376)
(8.95182 1.30125e-20 1.86292)
(9.06842 1.31886e-20 1.80526)
(8.80155 2.26209e-19 2.07401)
(8.93051 0 2.01234)
(8.64162 4.54844e-19 2.30315)
(8.78388 2.37173e-19 2.23682)
(8.47182 -7.15069e-19 2.55236)
(8.62849 -2.18909e-19 2.48064)
(8.29172 -4.44575e-19 2.82399)
(8.46413 -4.67758e-19 2.74609)
(8.10058 4.68445e-19 3.12068)
(8.29042 4.81272e-19 3.0358)
(7.89722 0 3.44556)
(8.10657 -4.81449e-19 3.35283)
(7.67988 0 3.80244)
(7.91145 4.59071e-19 3.70089)
(7.44591 0 4.19591)
(7.70335 0 4.08453)
(7.19142 0 4.63152)
(7.47965 5.0389e-19 4.50936)
(6.91051 -1.08163e-18 5.11617)
(7.23615 -5.10538e-19 4.98242)
(6.59439 1.12163e-18 5.65789)
(6.96693 -5.34888e-20 5.51272)
(6.22918 9.77993e-19 6.26468)
(6.66244 2.22352e-18 6.11096)
(5.79231 -1.1897e-18 6.94344)
(6.30633 -2.19993e-18 6.78923)
(5.24732 -1.21826e-18 7.69692)
(5.87244 -3.5256e-20 7.56029)
(4.53262 1.19416e-18 8.506)
(5.30209 -1.04364e-18 8.43747)
(3.55155 -2.79672e-19 9.29266)
(4.5765 1.29206e-18 9.38868)
(3.03112 -3.82823e-19 10.4237)
(9.98758 -1.59705e-19 0.176708)
(10.003 -7.18777e-20 0.119107)
(9.96306 1.33934e-21 0.295827)
(9.98337 1.84114e-20 0.240783)
(9.92701 -2.13605e-20 0.415526)
(9.95022 1.88225e-20 0.362853)
(9.88017 -8.00768e-20 0.537076)
(9.90962 -4.04463e-22 0.485939)
(9.82317 -8.24576e-20 0.662072)
(9.86063 -4.06739e-20 0.611692)
(9.7565 -4.12564e-20 0.791978)
(9.80194 -8.34297e-20 0.7417)
(9.68055 -6.81468e-20 0.928202)
(9.73377 2.12198e-20 0.877373)
(9.59565 1.67151e-19 1.07217)
(9.65703 -8.91028e-20 1.02015)
(9.50203 -1.36715e-20 1.22527)
(9.57217 2.75777e-19 1.17148)
(9.39993 -1.10211e-19 1.38885)
(9.47927 -3.07197e-19 1.33271)
(9.28959 1.3291e-19 1.5643)
(9.37857 9.7946e-20 1.50521)
(9.17114 1.22661e-20 1.75309)
(9.27045 1.8672e-19 1.69042)
(9.04465 0 1.95684)
(9.15505 -2.03733e-19 1.88992)
(8.91022 1.37753e-20 2.17736)
(9.0324 0 2.10544)
(8.76795 -4.42403e-19 2.41658)
(8.90283 2.15691e-19 2.33883)
(8.6178 2.58769e-20 2.6767)
(8.76646 -6.7074e-19 2.59218)
(8.45956 4.6893e-19 2.96028)
(8.62328 4.52634e-19 2.86792)
(8.29285 -4.7953e-19 3.27034)
(8.47327 4.68002e-19 3.16894)
(8.11693 -1.3956e-20 3.61047)
(8.31609 -4.81799e-19 3.49861)
(7.93067 4.55301e-19 3.98515)
(8.15125 1.38256e-20 3.86109)
(7.73224 5.08877e-19 4.39993)
(7.97791 -4.81663e-19 4.26161)
(7.51884 -1.34927e-20 4.86184)
(7.79456 -4.68614e-19 4.70675)
(7.28599 5.23453e-19 5.38017)
(7.59886 -2.0214e-20 5.20518)
(7.02678 1.06924e-18 5.96672)
(7.38722 1.0233e-18 5.76842)
(6.72966 -9.86986e-19 6.63637)
(7.15361 4.69509e-19 6.41178)
(6.37389 -1.02323e-18 7.40847)
(6.88705 -1.46039e-18 7.15635)
(5.92128 1.27719e-19 8.30956)
(6.56927 0 8.03256)
(5.29547 -9.29985e-19 9.36651)
(6.14656 1.73469e-19 9.09207)
(4.34284 1.22763e-18 10.6212)
(5.621 -1.39966e-18 10.3863)
(3.89987 2.29609e-18 12.2484)
(9.98859 1.07663e-19 0.184881)
(10.0035 7.27922e-20 0.124226)
(9.96614 3.59897e-20 0.309632)
(9.98521 1.06275e-19 0.251222)
(9.93322 3.94801e-20 0.435026)
(9.95465 -5.36548e-20 0.37871)
(9.89048 3.83848e-20 0.562293)
(9.91779 -5.21323e-20 0.507229)
(9.83857 -4.23013e-20 0.693065)
(9.87348 7.55901e-20 0.638434)
(9.77794 -1.93987e-20 0.828864)
(9.82045 3.57555e-20 0.773989)
(9.709 -1.34065e-21 0.971122)
(9.75893 -1.82175e-20 0.915322)
(9.63215 2.47251e-20 1.12129)
(9.68983 1.22674e-19 1.06387)
(9.54776 -2.58731e-20 1.2808)
(9.61376 -3.83291e-20 1.2211)
(9.45612 -9.35244e-20 1.45101)
(9.53087 1.04561e-19 1.38841)
(9.35753 1.52935e-19 1.63334)
(9.44146 -1.06038e-21 1.56718)
(9.25224 -3.42053e-20 1.82933)
(9.34597 1.56863e-20 1.75888)
(9.14049 -2.01298e-19 2.04064)
(9.24471 -1.84088e-19 1.96513)
(9.02255 2.04633e-19 2.26908)
(9.13795 2.42782e-20 2.18764)
(8.89867 -2.25335e-20 2.51665)
(9.02613 1.81283e-19 2.4283)
(8.76905 -2.31943e-19 2.78567)
(8.9096 -2.24334e-19 2.68929)
(8.63381 4.51812e-19 3.07886)
(8.78866 -1.447e-20 2.9731)
(8.493 4.57519e-19 3.39944)
(8.66365 4.96354e-19 3.28273)
(8.34652 -4.49467e-19 3.75135)
(8.53485 -4.31497e-19 3.62173)
(8.19405 -9.29034e-19 4.13947)
(8.40255 -1.67821e-20 3.99448)
(8.03499 -1.46254e-18 4.56999)
(8.26699 -5.46377e-19 4.40652)
(7.86827 -4.72318e-19 5.05105)
(8.12824 -5.50981e-19 4.86493)
(7.69201 4.87936e-19 5.59357)
(7.98649 5.34554e-20 5.37917)
(7.5031 4.23856e-19 6.21225)
(7.84183 5.45512e-20 5.96207)
(7.29599 -8.35027e-21 6.92781)
(7.69426 4.28562e-19 6.63144)
(7.05961 -4.2207e-19 7.77168)
(7.54377 -4.34972e-19 7.41391)
(6.77056 4.9506e-20 8.79779)
(7.39386 0 8.35259)
(6.3719 -3.25204e-19 10.1076)
(7.23814 3.30762e-20 9.53355)
(5.71452 2.01299e-19 12.2178)
(7.35877 -2.95284e-19 11.1311)
(6.67214 4.30616e-19 14.7716)
(0.0898985 -7.65234e-21 -0.0593762)
(0.0538988 5.67595e-20 -0.0786904)
(0.254107 2.72916e-20 -0.0825001)
(0.176425 1.81904e-20 -0.138881)
(0.428903 -1.01718e-21 -0.0755134)
(0.339567 -2.60474e-20 -0.139324)
(0.575977 -7.37049e-21 -0.0560372)
(0.496631 -8.1987e-21 -0.112491)
(0.681146 9.65494e-22 -0.0345431)
(0.624452 -2.00853e-21 -0.0782083)
(0.743487 0 -0.0156703)
(0.713623 1.80952e-21 -0.045436)
(0.769005 0 -0.00143011)
(0.764705 -1.5303e-20 -0.0182704)
(0.767185 3.07434e-21 0.00773057)
(0.784196 2.63385e-20 0.00142968)
(0.747609 1.72037e-22 0.0125825)
(0.779377 -8.11739e-21 0.013981)
(0.717996 -2.70378e-22 0.0143143)
(0.759171 8.76114e-21 0.0209156)
(0.684343 1.07117e-22 0.0140368)
(0.730785 8.84294e-21 0.0235551)
(0.650603 -2.79766e-21 0.0127598)
(0.699239 2.77674e-21 0.0234068)
(0.618615 0 0.0113198)
(0.667421 -3.79753e-21 0.0219848)
(0.588414 5.78658e-22 0.0103111)
(0.636265 7.43568e-21 0.0205491)
(0.558702 5.86933e-22 0.0100764)
(0.605149 -3.5404e-21 0.0199937)
(0.527452 0 0.0107093)
(0.572495 0 0.020779)
(0.492551 0 0.0120134)
(0.536434 0 0.0229136)
(0.452744 0 0.0134176)
(0.495456 0 0.0257926)
(0.409047 0 0.0139962)
(0.449395 0 0.0279331)
(0.365524 1.99706e-22 0.012888)
(0.400518 1.65885e-21 0.0274438)
(0.327832 3.69417e-22 0.00990634)
(0.353722 -9.73273e-22 0.0234419)
(0.300619 5.00017e-22 0.00560799)
(0.314327 1.83676e-22 0.0166908)
(0.286454 2.54824e-22 0.000661412)
(0.285601 6.70376e-22 0.00856217)
(0.286934 -6.48176e-23 -0.00479859)
(0.268527 -6.5524e-23 -0.000304711)
(0.304924 2.03194e-22 -0.0109177)
(0.262865 1.2043e-22 -0.0106315)
(0.343129 8.20313e-23 -0.0172008)
(0.267225 -7.01584e-23 -0.0222685)
(0.401734 -2.1847e-22 -0.0232198)
(0.287581 2.858e-24 -0.0337194)
(0.481157 -1.09451e-22 -0.0293336)
(0.330948 -1.21455e-22 -0.0451229)
(0.581078 -3.59818e-23 -0.0350464)
(0.397164 1.59214e-22 -0.0560751)
(0.498883 6.47107e-23 -0.0610032)
(0.109127 8.34388e-20 -0.166399)
(0.0566028 1.51962e-19 -0.187489)
(0.261602 -3.6723e-20 -0.209927)
(0.17421 -7.35673e-20 -0.271152)
(0.421808 -3.52894e-20 -0.192856)
(0.322198 3.30647e-20 -0.266727)
(0.561038 -2.82534e-21 -0.149285)
(0.459751 -3.45433e-20 -0.217383)
(0.666665 -1.10467e-21 -0.100583)
(0.570646 -3.38508e-20 -0.155118)
(0.737574 -1.33532e-20 -0.0566727)
(0.649332 -1.90029e-21 -0.0958747)
(0.778237 1.04621e-20 -0.0215001)
(0.697078 1.3763e-20 -0.0466508)