/*--------------------------------*- C++ -*----------------------------------*\
| =========                 |                                                 |
| \\      /  F ield         | OpenFOAM: The Open Source CFD Toolbox           |
|  \\    /   O peration     | Version:  dev                                   |
|   \\  /    A nd           | Web:      www.OpenFOAM.org                      |
|    \\/     M anipulation  |                                                 |
\*---------------------------------------------------------------------------*/
FoamFile
{
    version     2.0;
    format      ascii;
    class       volScalarField;
    location    "0.58";
    object      p;
}
// * * * * * * * * * * * * * * * * * * * * * * * * * * * * * * * * * * * * * //

dimensions      [0 2 -2 0 0 0 0];

internalField   nonuniform List<scalar> 
2790
(
110.803
110.674
110.889
111.454
112.256
113.232
114.373
115.68
117.15
118.777
120.554
122.474
124.528
126.704
128.99
131.366
133.809
136.289
138.772
141.213
143.564
145.771
147.778
149.529
150.981
152.1
152.88
153.345
153.572
153.699
110.622
110.589
110.826
111.389
112.188
113.161
114.298
115.599
117.062
118.682
120.45
122.361
124.404
126.571
128.846
131.213
133.648
136.124
138.605
141.05
143.41
145.633
147.662
149.443
150.926
152.078
152.887
153.383
153.676
153.95
110.435
110.474
110.728
111.281
112.068
113.029
114.152
115.436
116.88
118.477
120.22
122.101
124.113
126.245
128.484
130.812
133.207
135.644
138.089
140.504
142.845
145.06
147.1
148.911
150.451
151.689
152.623
153.292
153.781
154.217
110.227
110.3
110.567
111.11
111.883
112.828
113.933
115.195
116.612
118.178
119.886
121.728
123.696
125.779
127.964
130.234
132.57
134.946
137.333
139.696
141.995
144.186
146.223
148.063
149.668
151.018
152.111
152.974
153.632
154.156
109.989
110.078
110.353
110.889
111.645
112.571
113.651
114.884
116.268
117.794
119.457
121.249
123.16
125.181
127.298
129.496
131.755
134.054
136.365
138.658
140.898
143.049
145.074
146.936
148.607
150.068
151.311
152.333
153.106
153.648
109.716
109.811
110.089
110.616
111.353
112.255
113.305
114.503
115.845
117.325
118.934
120.666
122.51
124.457
126.493
128.605
130.774
132.98
135.198
137.404
139.569
141.663
143.659
145.528
147.248
148.803
150.172
151.326
152.204
152.798
109.406
109.503
109.778
110.293
111.008
111.881
112.898
114.055
115.349
116.774
118.322
119.984
121.751
123.612
125.557
127.569
129.633
131.731
133.841
135.942
138.011
140.027
141.968
143.817
145.558
147.177
148.65
149.931
150.944
151.702
109.059
109.154
109.423
109.922
110.613
111.454
112.431
113.542
114.783
116.146
117.623
119.207
120.887
122.653
124.493
126.393
128.338
130.311
132.294
134.269
136.218
138.125
139.978
141.767
143.486
145.13
146.68
148.09
149.281
150.341
108.675
108.767
109.025
109.506
110.169
110.974
111.908
112.968
114.149
115.443
116.844
118.34
119.924
121.584
123.308
125.082
126.892
128.723
130.557
132.381
134.178
135.938
137.655
139.329
140.964
142.57
144.15
145.674
147.073
148.573
108.255
108.341
108.587
109.046
109.679
110.445
111.331
112.335
113.451
114.671
115.987
117.39
118.868
120.411
122.008
123.643
125.302
126.971
128.633
130.275
131.882
133.447
134.966
136.446
137.905
139.372
140.884
142.456
144.042
146.101
107.8
107.88
108.111
108.546
109.146
109.87
110.704
111.648
112.694
113.835
115.06
116.36
117.725
119.143
120.6
122.083
123.575
125.061
126.525
127.951
129.324
130.635
131.88
133.066
134.219
135.386
136.647
138.097
139.745
142.426
107.312
107.384
107.598
108.007
108.572
109.251
110.031
110.91
111.882
112.938
114.067
115.259
116.503
117.786
119.094
120.411
121.72
123.004
124.243
125.418
126.51
127.503
128.384
129.154
129.829
130.461
131.162
132.13
133.492
136.731
106.792
106.856
107.052
107.433
107.96
108.591
109.315
110.126
111.02
111.986
113.014
114.093
115.209
116.349
117.498
118.638
119.75
120.813
121.803
122.694
123.46
124.071
124.497
124.714
124.708
124.494
124.161
123.972
124.214
127.555
106.243
106.298
106.474
106.826
107.314
107.895
108.559
109.3
110.113
110.986
111.909
112.868
113.852
114.843
115.826
116.779
117.682
118.508
119.228
119.809
120.21
120.384
120.274
119.811
118.916
117.5
115.497
113.01
110.221
111.787
105.666
105.713
105.868
106.189
106.635
107.166
107.767
108.436
109.165
109.943
110.757
111.594
112.441
113.278
114.089
114.849
115.534
116.113
116.55
116.802
116.813
116.514
115.813
114.585
112.647
109.729
105.401
99.0436
89.1377
80.5976
-0.784363
-1.14095
-2.14844
-4.15687
-7.29656
-11.5796
-16.9453
-23.2861
-30.4608
-38.3004
-46.6075
-55.1546
-63.6842
-71.9081
-79.509
-86.1458
-91.4664
-95.1264
-96.8021
-96.1831
-92.972
-86.9707
-78.1212
-66.479
-52.2026
-35.4856
-16.6073
3.02449
18.119
18.2689
-0.675519
-1.15022
-2.26177
-4.36663
-7.58688
-11.9376
-17.3618
-23.7557
-30.9818
-38.873
-47.2331
-55.8355
-64.4227
-72.7061
-80.367
-87.0632
-92.4414
-96.1582
-97.8964
-97.3594
-94.259
-88.4058
-79.7782
-68.46
-54.6407
-38.5897
-20.7403
-2.45036
11.9046
12.2509
-0.681911
-1.53264
-3.02095
-5.4325
-8.87348
-13.3703
-18.8824
-25.3217
-32.5645
-40.4551
-48.8066
-57.4002
-65.9837
-74.272
-81.948
-88.6687
-94.0781
-97.8298
-99.6072
-99.1194
-96.0821
-90.332
-81.8861
-70.8616
-57.4803
-42.0863
-25.2616
-8.32045
5.24896
7.36182
-1.19889
-2.55121
-4.48382
-7.25221
-10.9423
-15.5944
-21.1899
-27.6633
-34.9102
-42.7905
-51.1297
-59.7181
-68.3102
-76.6243
-84.3439
-91.1232
-96.6016
-100.427
-102.277
-101.863
-98.9164
-93.2995
-85.0697
-74.3765
-61.4621
-46.7029
-30.7318
-14.7491
-1.43269
3.3717
-2.63205
-4.45979
-6.72736
-9.77172
-13.6535
-18.4198
-24.0676
-30.5497
-37.7788
-45.6298
-53.9401
-62.5091
-71.0977
-79.4278
-87.1831
-94.0155
-99.5588
-103.454
-105.373
-105.026
-102.159
-96.6637
-88.6411
-78.2731
-65.8149
-51.6407
-36.3556
-20.9825
-7.47764
0.147753
-5.28276
-7.37716
-9.75702
-12.9208
-16.8815
-21.6862
-27.3367
-33.7959
-40.9884
-48.8008
-57.0806
-65.6356
-74.2325
-82.5953
-90.4072
-97.3153
-102.945
-106.924
-108.913
-108.611
-105.785
-100.366
-92.498
-82.3931
-70.3109
-56.5968
-41.7807
-26.6842
-12.6768
-2.45145
-9.18701
-11.172
-13.4003
-16.5102
-20.4251
-25.1866
-30.79
-37.1991
-44.3428
-52.1139
-60.3668
-68.915
-77.5288
-85.9336
-93.811
-100.803
-106.526
-110.592
-112.642
-112.367
-109.549
-104.16
-96.391
-86.4826
-74.6879
-61.3047
-46.762
-31.6867
-17.0075
-4.53582
-13.9939
-15.4383
-17.3082
-20.2342
-24.0121
-28.6745
-34.2007
-40.5476
-47.6423
-55.379
-63.615
-72.1673
-80.8089
-89.2665
-97.2202
-104.307
-110.133
-114.291
-116.396
-116.123
-113.272
-107.861
-100.13
-90.3466
-78.7517
-65.5823
-51.1573
-35.9338
-20.5245
-6.18859
-18.9843
-19.5726
-21.0251
-23.7243
-27.3376
-31.8915
-37.3429
-43.6378
-50.6978
-58.4158
-66.65
-75.2195
-83.8997
-92.4189
-100.457
-107.646
-113.581
-117.835
-119.991
-119.7
-116.78
-111.297
-103.548
-93.828
-82.3588
-69.3117
-54.897
-39.4337
-23.3114
-7.47616
-23.2197
-22.9264
-24.0906
-26.6194
-30.1111
-34.5976
-40.0105
-46.286
-53.3388
-61.0611
-69.3112
-77.9105
-86.6372
-95.2224
-103.347
-110.641
-116.691
-121.047
-123.251
-122.931
-119.914
-114.319
-106.51
-96.8072
-85.4104
-72.4259
-57.9629
-42.2328
-25.4651
-8.4587
-25.8772
-25.0095
-26.1442
-28.6351
-32.1062
-36.6045
-42.041
-48.3454
-55.4264
-63.179
-71.4617
-80.099
-88.8739
-97.5217
-105.727
-113.122
-119.287
-123.748
-126.004
-125.651
-122.528
-116.805
-108.914
-99.2016
-87.8469
-74.8975
-60.3732
-44.4007
-27.0926
-9.19843
-26.638
-25.6388
-27.0035
-29.6216
-33.2015
-37.8057
-43.3356
-49.7179
-56.8652
-64.6719
-72.9976
-81.6726
-90.4867
-99.1823
-107.45
-114.928
-121.193
-125.757
-128.07
-127.696
-124.49
-118.658
-110.694
-100.968
-89.6478
-76.7328
-62.1687
-46.012
-28.2943
-9.75575
-25.7082
-24.9524
-26.6995
-29.5815
-33.3907
-38.1917
-43.884
-50.3932
-57.6367
-65.5057
-73.8684
-82.563
-91.3874
-100.093
-108.38
-115.892
-122.212
-126.849
-129.232
-128.895
-125.669
-119.792
-111.8
-102.09
-90.8226
-77.9611
-63.3931
-47.1177
-29.1259
-10.1657
-23.6273
-23.2993
-25.4539
-28.6697
-32.7887
-37.8552
-43.7621
-50.4296
-57.7776
-65.7044
-74.0869
-82.7723
-91.5679
-100.235
-108.485
-115.97
-122.285
-126.953
-129.387
-129.084
-125.886
-120.061
-112.143
-102.53
-91.3704
-78.6003
-64.07
-47.7401
-29.6031
-10.4232
-21.0305
-21.1201
-23.599
-27.1284
-31.595
-36.9674
-43.1107
-49.9399
-57.3827
-65.3487
-73.724
-82.365
-91.0888
-99.6669
-107.82
-115.212
-121.446
-126.051
-128.449
-128.147
-125.036
-119.384
-111.673
-102.267
-91.2927
-78.6659
-64.2224
-47.9107
-29.7492
-10.5255
105.053
105.09
105.223
105.511
105.915
106.392
106.929
107.522
108.164
108.842
109.544
110.255
110.959
111.637
112.269
112.829
113.288
113.611
113.754
113.663
113.27
112.482
111.171
109.151
106.132
101.626
94.7135
83.4582
60.7648
-0.531048
104.396
104.423
104.533
104.786
105.145
105.565
106.035
106.55
107.1
107.675
108.259
108.839
109.395
109.909
110.357
110.71
110.937
110.997
110.841
110.406
109.61
108.345
106.455
103.717
99.7795
94.0636
85.5236
72.4812
53.3693
26.424
103.7
103.716
103.802
104.02
104.331
104.693
105.093
105.526
105.983
106.451
106.915
107.36
107.766
108.113
108.373
108.519
108.513
108.313
107.863
107.096
105.923
104.226
101.847
98.5606
94.0529
87.887
79.5038
68.4179
55.3292
40.7392
102.966
102.971
103.032
103.212
103.475
103.777
104.106
104.455
104.816
105.176
105.519
105.828
106.083
106.261
106.336
106.276
106.043
105.591
104.863
103.79
102.281
100.224
97.4697
93.8308
89.0726
82.9288
75.1441
65.4874
53.987
40.2727
102.195
102.189
102.224
102.366
102.579
102.82
103.076
103.341
103.606
103.857
104.078
104.25
104.355
104.368
104.261
104.002
103.551
102.863
101.881
100.537
98.7454
96.404
93.3872
89.5463
84.712
78.704
71.3461
62.4357
51.8446
39.7637
101.389
101.371
101.381
101.484
101.647
101.827
102.009
102.189
102.357
102.499
102.599
102.638
102.595
102.447
102.165
101.717
101.064
100.161
98.953
97.3774
95.358
92.806
89.6191
85.6826
80.8734
75.066
68.1489
60.0355
50.7365
40.6301
100.551
100.522
100.505
100.569
100.681
100.799
100.909
101.004
101.076
101.111
101.092
101
100.815
100.513
100.066
99.4418
98.6039
97.5091
96.1077
94.3425
92.148
89.4509
86.1704
82.2214
77.5192
71.9874
65.5738
58.2675
50.1125
41.3986
99.6823
99.6419
99.5991
99.6244
99.686
99.7422
99.7793
99.7918
99.7699
99.6998
99.5652
99.3479
99.0273
98.5801
97.9796
97.1952
96.1924
94.9318
93.369
91.4545
89.1338
86.3481
83.0365
79.139
74.6011
69.3815
63.4611
56.8519
49.5911
41.9089
98.7871
98.7354
98.6667
98.6534
98.6651
98.6608
98.6269
98.558
98.4448
98.2736
98.0285
97.6919
97.2439
96.6623
95.9217
94.994
93.8476
92.4473
90.7548
88.7286
86.3245
83.4975
80.2034
76.4015
72.0593
67.1568
61.692
55.6859
49.1752
42.3564
97.8687
97.8059
97.7118
97.6604
97.6233
97.56
97.457
97.3095
97.1085
96.8408
96.4912
96.0427
95.4768
94.7724
93.9064
92.853
91.5844
90.07
88.2775
86.1731
83.7224
80.892
77.651
73.9736
69.8422
65.2505
60.2066
54.7365
48.8762
42.7893
96.931
96.8574
96.7385
96.6502
96.5657
96.4452
96.2758
96.053
95.7685
95.4097
94.9624
94.4106
93.737
92.9224
91.9459
90.7848
89.4148
87.8103
85.9447
83.7915
81.3246
78.5201
75.3578
71.8228
67.9077
63.615
58.9585
53.9651
48.668
43.201
95.9784
95.8944
95.7517
95.6277
95.4975
95.3224
95.0897
94.7956
94.4325
93.9888
93.4512
92.8051
92.0346
91.1227
90.0509
88.7994
87.3479
85.6753
83.7605
81.583
79.1242
76.368
73.3019
69.9191
66.219
62.2093
57.9064
53.3362
48.5281
43.5925
95.0158
94.9218
94.7563
94.5983
94.4246
94.1976
93.9052
93.5443
93.1081
92.5862
91.9662
91.2352
90.379
89.3826
88.2301
86.905
85.3902
83.6691
81.7254
79.5442
77.1126
74.4206
71.4619
68.2349
64.7437
60.9987
57.0172
52.8231
48.4426
43.9666
94.0482
93.9448
93.7579
93.5677
93.353
93.0772
92.7291
92.3062
91.8029
91.2096
90.5156
89.7093
88.7784
87.71
86.4909
85.1072
83.5457
81.7932
79.8379
77.6693
75.2793
72.6626
69.8173
66.7454
63.4539
59.9546
56.2644
52.4051
48.3999
44.3238
93.0814
92.9693
92.7623
92.5418
92.2887
91.9677
91.5681
91.0885
90.524
89.8667
89.1069
88.2348
87.2399
86.1115
84.8386
83.4104
81.8165
80.0473
78.0944
75.9512
73.6132
71.0788
68.349
65.4285
62.3256
59.0527
55.626
52.065
48.3901
44.6633
92.1212
92.001
91.7755
91.527
91.2384
90.8757
90.4291
89.898
89.2788
88.5646
87.7472
86.8185
85.7698
84.5924
83.2776
81.8172
80.2034
78.4296
76.4904
74.3821
72.1033
69.6548
67.0398
64.2645
61.3381
58.2729
55.0839
51.7885
48.4048
44.9841
91.1739
91.0463
90.8038
90.5296
90.2086
89.808
89.319
88.7418
88.0739
87.3099
86.4429
85.4663
84.3733
83.157
81.8109
80.3289
78.7058
76.9372
75.0203
72.9538
70.7385
68.3769
65.8738
63.2362
60.4736
57.5978
54.6227
51.5639
48.4371
45.285
90.2461
90.1118
89.854
89.5565
89.206
88.7713
88.2444
87.6264
86.9161
86.109
85.1999
84.1836
83.0549
81.8087
80.4405
78.9461
77.3222
75.5667
73.6785
71.6582
69.5084
67.2327
64.8369
62.3284
59.7167
57.013
54.2299
51.3813
48.4812
45.5649
89.3446
89.2043
88.9328
88.6143
88.2375
87.7724
87.2121
86.5585
85.8115
84.9678
84.0236
82.975
81.8184
80.5504
79.1678
77.6685
76.0507
74.314
72.4589
70.4874
68.4031
66.2108
63.9166
61.528
59.0544
56.5062
53.8949
51.2328
48.5323
45.8228
88.4765
88.3309
88.0473
87.7102
87.31
86.8183
86.2288
85.5445
84.7662
83.8919
82.919
81.8448
80.6672
79.384
77.9937
76.4955
74.8891
73.1753
71.3559
69.434
67.414
65.3012
63.1019
60.8237
58.4756
56.0671
53.6087
51.1116
48.5867
46.0583
87.6491
87.499
87.2048
86.8513
86.4306
85.9156
85.3011
84.5907
83.7862
82.8867
81.8907
80.7969
79.604
78.3113
76.9187
75.4262
73.8349
72.1466
70.3641
68.4912
66.5329
64.4948
62.3833
60.2058
57.9708
55.6871
53.3644
51.0125
48.6413
46.271
86.8701
86.716
86.4127
86.0448
85.6062
85.0712
84.4354
83.7032
82.877
81.9573
80.9433
79.8347
78.6316
77.3341
75.9431
74.4598
72.8861
71.2247
69.479
67.6534
65.7532
63.7843
61.753
59.6663
57.5324
55.3594
53.1562
50.9315
48.6943
46.4612
86.1473
85.9897
85.6785
85.2981
84.8441
84.2921
83.6385
82.8881
82.0445
81.1087
80.0809
78.9619
77.7524
76.4537
75.0674
73.5955
72.0407
70.4063
68.6962
66.9152
65.0688
63.163
61.2039
59.1984
57.1539
55.0782
52.9793
50.8651
48.7437
46.629
85.4888
85.3283
85.01
84.6187
84.1514
83.5852
82.9168
82.1517
81.2942
80.346
79.3082
78.1821
76.9695
75.6723
74.2927
72.8335
71.2978
69.6896
68.013
66.2731
64.4756
62.6264
60.7314
58.7973
56.831
54.8398
52.8309
50.8119
48.7897
46.7762
84.9033
84.7399
84.4152
84.0141
83.5355
82.9574
82.2769
81.5
80.6315
79.6739
78.6289
77.4985
76.285
74.9909
73.6191
72.1728
70.6557
69.0719
67.4259
65.723
63.9689
62.1693
60.3301
58.4577
56.5585
54.6394
52.7072
50.7686
48.8301
46.9015
84.3997
84.2333
83.9021
83.492
83.0038
82.416
81.726
80.9401
80.0634
79.0991
78.0494
76.9167
75.704
74.4141
73.0505
71.6167
70.1167
68.5549
66.936
65.2654
63.5487
61.7916
59.9999
58.1795
56.3367
54.478
52.6097
50.7379
48.8688
47.0108
83.988
83.8175
83.4784
83.0593
82.5625
81.9667
81.2689
80.4757
79.5928
78.6237
77.5709
76.4374
75.2263
73.9411
72.5852
71.1627
69.6777
68.1348
66.5389
64.8952
63.2094
61.4873
59.7343
57.9561
56.1589
54.3486
52.5313
50.7127
48.8986
47.0958
83.6802
83.5016
83.1529
82.7267
82.2241
81.6224
80.9189
80.1205
79.2332
78.2608
77.2063
76.0728
74.8636
73.5826
72.2335
70.8205
69.3479
67.8203
66.2427
64.6205
62.9592
61.2645
59.5417
57.7964
56.0345
54.2617
52.4838
50.7064
48.9348
47.1754
83.4934
83.2874
82.921
82.4885
81.9826
81.3774
80.6703
79.869
78.9795
78.0058
76.9509
75.8181
74.6111
73.3337
71.9898
70.5838
69.12
67.6033
66.0385
64.431
62.7864
61.1102
59.4078
57.6845
55.946
54.1981
52.4461
50.6955
48.9514
47.2191
83.4674
83.2091
82.818
82.378
81.8681
81.2589
80.5485
79.7447
78.8537
77.8792
76.8244
75.6927
74.4877
73.2132
71.8734
70.4725
69.015
67.5057
65.9493
64.3514
62.7174
61.0528
59.3627
57.6527
55.9281
54.1946
52.4576
50.7223
48.9937
47.2764
-83.405
-65.7448
-40.8612
10.3575
7.11488
2.90194
26.5673
17.3607
9.72433
26.0069
17.1717
10.6946
28.4561
21.1726
15.2799
31.3136
24.9854
19.5155
33.2342
27.6049
22.6729
34.6807
29.6903
25.3166
35.946
31.5143
27.6397
37.0713
33.1144
29.6695
38.0722
34.5224
31.4469
38.9717
35.7743
33.0163
39.7871
36.8961
34.4117
40.5293
37.9059
35.6583
41.2061
38.8175
36.7758
41.8234
39.6412
37.7791
42.3852
40.3849
38.6796
42.8947
41.0547
39.4864
43.3547
41.6556
40.2069
43.7674
42.1921
40.8476
44.1351
42.6679
41.4139
44.4601
43.0871
41.9113
44.7443
43.4525
42.3439
44.9912
43.7689
42.7174
45.2
44.0362
43.0328
45.3791
44.2637
43.2993
45.5186
44.4418
43.5092
45.642
44.5945
43.6847
45.713
44.6863
43.7938
45.7943
44.784
43.8998
-18.1911
-18.9215
-21.5935
-25.2691
-30.0729
-35.7531
-42.1133
-49.0725
-56.5723
-64.5347
-72.8557
-81.4006
-89.996
-98.4225
-106.41
-113.632
-119.699
-124.149
-126.441
-126.142
-123.182
-117.813
-110.432
-101.338
-90.6244
-78.1948
-63.8911
-47.6753
-29.611
-10.5133
-6.16884
-13.4626
-18.2493
-23.0776
-28.491
-34.4708
-40.9709
-47.9775
-55.4577
-63.3437
-71.5387
-79.9155
-88.3086
-96.5072
-104.25
-111.221
-117.043
-121.277
-123.44
-123.169
-120.425
-115.423
-108.461
-99.758
-89.364
-77.1793
-63.0708
-47.0371
-29.1993
-10.4097
-1.42501
-10.734
-16.0907
-21.2697
-27.0948
-33.3323
-39.8974
-46.8478
-54.2018
-61.9119
-69.8897
-78.0134
-86.123
-94.015
-101.438
-108.088
-113.61
-117.601
-119.641
-119.431
-116.948
-112.356
-105.855
-97.5765
-87.5293
-75.619
-61.7562
-45.9951
-28.5198
-10.2245
1.68111
-7.72704
-14.2762
-20.118
-26.1247
-32.3817
-38.9097
-45.7511
-52.9155
-60.37
-68.0439
-75.8283
-83.5726
-91.0824
-98.1179
-104.393
-109.578
-113.315
-115.247
-115.131
-112.935
-108.756
-102.704
-94.8346
-85.124
-73.4998
-59.9326
-44.5439
-27.5785
-9.97027
6.75681
-2.84939
-10.8382
-17.9375
-24.6308
-31.1657
-37.7423
-44.5011
-51.4902
-58.6897
-66.0399
-73.4466
-80.7764
-87.8523
-94.4532
-100.316
-105.144
-108.624
-110.462
-110.458
-108.542
-104.729
-99.0557
-91.5292
-82.1163
-70.7847
-57.5754
-42.6767
-26.3835
-9.6604
11.7458
2.52161
-6.22614
-14.3214
-21.8147
-28.9041
-35.7993
-42.6647
-49.5947
-56.6152
-63.6964
-70.7635
-77.7005
-84.3509
-90.5182
-95.9692
-100.444
-103.673
-105.42
-105.502
-103.801
-100.25
-94.8436
-87.5737
-78.4248
-67.4176
-54.6601
-40.3953
-24.9508
-9.30727
15.9137
7.53241
-1.24691
-9.76312
-17.7488
-25.3065
-32.5885
-39.7072
-46.7371
-53.7155
-60.6381
-67.4562
-74.0773
-80.3679
-86.1572
-91.2418
-95.3967
-98.3929
-100.03
-100.121
-98.5069
-95.0923
-89.859
-82.8042
-73.9445
-63.3513
-51.1855
-37.724
-23.3086
-8.91796
19.4844
12.0413
3.67963
-4.76709
-12.8541
-20.6024
-28.1086
-35.4259
-42.5829
-49.5938
-56.4507
-63.1143
-69.5087
-75.5217
-81.0065
-85.7871
-89.6672
-92.4449
-93.9351
-93.9349
-92.2941
-88.9504
-83.8838
-77.0973
-68.6355
-58.6078
-47.2072
-34.7246
-21.5006
-8.4909
22.5725
16.0065
8.2916
0.252423
-7.60234
-15.2406
-22.7184
-30.046
-37.2109
-44.197
-50.9785
-57.5095
-63.7178
-69.502
-74.7325
-79.254
-82.8916
-85.4594
-86.7707
-86.6335
-84.953
-81.7182
-76.9049
-70.515
-62.6101
-53.3218
-42.8562
-31.5012
-19.5852
-8.01749
25.2259
19.4335
12.4454
5.00231
-2.39181
-9.67861
-16.8902
-24.0123
-31.0051
-37.828
-44.437
-50.7752
-56.7666
-62.3135
-67.2958
-71.5722
-74.9833
-77.3562
-78.5053
-78.276
-76.6393
-73.6161
-69.1785
-63.3265
-56.1294
-47.7258
-38.3201
-28.1847
-17.6281
-7.48888
27.5163
22.3891
16.1138
9.33356
2.5169
-4.26912
-11.0453
-17.7874
-24.4424
-30.9552
-37.269
-43.3183
-49.0232
-54.2873
-58.997
-63.0221
-66.2172
-68.4252
-69.477
-69.2578
-67.7793
-65.0737
-61.116
-55.9082
-49.52
-42.086
-33.7983
-24.9061
-15.692
-6.9041
29.5139
24.953
19.3308
13.2028
6.99399
0.771466
-5.4812
-11.7382
-17.9438
-24.0372
-29.9561
-35.6314
-40.9824
-45.9157
-50.3248
-54.0906
-57.0834
-59.1664
-60.1978
-60.09
-58.8632
-56.5499
-53.134
-48.6228
-43.0826
-36.6369
-29.4595
-21.7726
-13.8288
-6.2742
31.2714
27.1924
22.1492
16.6245
11.0013
5.34333
-0.364095
-6.09765
-11.8039
-17.4227
-22.8921
-28.1441
-33.1012
-37.6758
-41.7704
-45.2787
-48.088
-50.0832
-51.1519
-51.2209
-50.2987
-48.4121
-45.5558
-41.7435
-37.0362
-31.5437
-25.4187
-18.8556
-12.0752
-5.62023
32.8272
29.1597
24.6226
19.6387
14.5529
9.42543
4.24213
-0.977143
-6.18359
-11.3209
-16.3308
-21.1497
-25.7062
-29.9209
-33.7067
-36.9709
-39.6177
-41.5521
-42.6866
-42.9564
-42.3527
-40.8923
-38.5789
-35.4314
-31.5053
-26.8959
-21.7357
-16.1915
-10.4533
-4.96727
34.2101
30.8952
26.7982
22.2913
17.6864
13.0396
8.33744
3.59624
-1.14049
-5.82154
-10.3937
-14.7996
-18.9752
-22.8501
-26.3483
-29.3903
-31.8952
-33.7853
-34.9915
-35.4562
-35.1566
-34.0979
-32.2884
-29.7507
-26.5346
-22.7221
-18.4263
-13.7894
-8.9727
-4.33803
35.4422
32.43
28.7147
24.6257
20.4452
16.2254
11.9535
7.64278
3.33142
-0.934696
-5.10797
-9.13737
-12.9666
-16.5341
-19.7745
-22.6196
-25.0018
-26.8566
-28.1281
-28.7671
-28.742
-28.0468
-26.6916
-24.6999
-22.1163
-19.0106
-15.479
-11.6413
-7.63413
-3.74903
36.5404
33.7884
30.404
26.6795
22.8706
19.026
15.1335
11.2034
7.26921
3.37156
-0.447374
-4.14275
-7.66542
-10.962
-13.9763
-16.6502
-18.9265
-20.751
-22.0765
-22.8655
-23.0816
-22.7063
-21.7523
-20.2424
-18.2152
-15.7301
-12.8683
-9.73083
-6.43298
-3.20964
37.5181
34.9898
31.8919
28.4845
24.9996
21.4825
17.9215
14.3246
10.7209
7.14607
3.63739
0.234025
-3.0213
-6.08243
-8.90086
-11.4271
-13.6124
-15.4107
-16.7821
-17.6949
-18.115
-18.0193
-17.4163
-16.3273
-14.7859
-12.8423
-10.5648
-8.03884
-5.36171
-2.72337
38.3863
36.0502
33.2
30.0679
26.8644
23.6317
20.3588
17.0516
13.7351
10.441
7.20169
4.05148
1.02745
-1.83044
-4.48036
-6.87984
-8.98705
-10.7626
-12.1721
-13.1878
-13.7794
-13.9241
-13.6256
-12.9021
-11.7824
-10.309
-8.53963
-6.54623
-4.41152
-2.2898
39.1544
36.9833
34.3468
31.4527
28.4927
25.5061
22.4823
19.4256
16.3575
13.3058
10.2992
7.36721
4.54227
1.859
-0.646381
-2.93719
-4.97739
-6.7329
-8.1736
-9.27517
-10.0115
-10.3615
-10.3251
-9.91699
-9.16165
-8.09503
-6.76586
-5.23508
-3.57323
-1.90643
39.8304
37.8006
35.3478
32.6589
29.9088
27.134
24.3246
21.4833
18.6289
15.7856
12.9787
10.234
7.57964
5.04583
2.66404
0.46614
-1.51656
-3.2544
-4.72095
-5.89445
-6.75269
-7.27707
-7.46495
-7.3275
-6.88534
-6.16896
-5.21965
-4.08919
-2.83806
-1.56995
40.4219
38.5125
36.217
33.7041
31.134
28.5406
25.9146
23.2575
20.5857
17.9205
15.2841
12.6992
10.1903
7.7838
5.50726
3.38854
1.45501
-0.267349
-1.75517
-2.98886
-3.94961
-4.62144
-4.99999
-5.09339
-4.9189
-4.5025
-3.87931
-3.09357
-2.19738
-1.27663
40.9347
39.1274
36.9658
34.6029
32.1859
29.7468
27.2766
24.776
22.2591
19.745
17.2532
14.8036
12.4178
10.1191
7.93162
5.87993
3.98816
2.27925
0.773986
-0.509995
-1.55672
-2.35247
-2.89188
-3.18067
-3.2333
-3.07201
-2.72687
-2.23585
-1.64415
-1.02346
41.3757
39.6542
37.6055
35.3692
33.0814
30.7722
28.4332
26.0641
23.6775
21.2903
18.9199
16.5839
14.3015
12.0931
9.98032
7.98493
6.12835
4.43101
2.91151
1.58585
0.467747
-0.431199
-1.10512
-1.55769
-1.80118
-1.85491
-1.74469
-1.5034
-1.17056
-0.806613
41.7479
40.0976
38.1428
36.0119
33.8316
31.6304
29.4001
27.1402
24.8616
22.5795
20.3096
18.0677
15.8707
13.7371
11.6861
9.73733
7.90993
6.22231
4.69125
3.33139
2.15464
1.17086
0.386054
-0.202
-0.603764
-0.836142
-0.921598
-0.888875
-0.772785
-0.624754
42.0599
40.4674
38.5893
36.5444
34.4518
32.3384
30.1967
28.0255
25.8346
23.6379
21.4496
19.2839
17.1562
15.0832
13.0824
11.1714
9.36773
7.68812
6.14789
4.76044
3.53631
2.48428
1.61006
0.911967
0.381136
0.00286961
-0.242725
-0.381169
-0.443465
-0.473982
42.3072
40.7601
38.9424
36.9654
34.9419
32.8978
30.8257
28.7243
26.6023
24.4727
22.3485
20.2427
18.1695
16.1441
14.1826
12.3013
10.5164
8.84318
7.29592
5.88698
4.62606
3.52114
2.57723
1.79296
1.16077
0.667694
0.29569
0.021677
-0.182278
-0.354754
42.5079
40.9942
39.2217
37.2956
35.3236
33.331
31.3108
29.2612
27.1905
25.1106
23.0338
20.9724
18.9393
16.949
15.0164
13.1569
11.3856
9.71685
8.16411
6.73902
5.45064
4.30608
3.30955
2.45998
1.75101
1.17087
0.702743
0.32533
0.0129778
-0.268022
42.6373
41.1446
39.4018
37.5102
35.5731
33.6151
31.6295
29.6147
27.5782
25.5317
23.4868
21.455
19.449
17.4824
15.5695
13.725
11.9631
10.2979
8.74213
7.3074
6.00287
4.83463
3.80526
2.91382
2.15498
1.51743
0.984855
0.536839
0.148408
-0.21313
42.7445
41.2541
39.5262
37.6533
35.7343
33.7933
31.8246
29.8266
27.8065
25.7757
23.7456
21.7275
19.7338
17.7776
15.8733
14.0348
12.2765
10.6116
9.05251
7.60962
6.2919
5.10671
4.05676
3.14084
2.35418
1.68542
1.11811
0.632153
0.202289
-0.204968
)
;

boundaryField
{
    inlet
    {
        type            zeroGradient;
    }
    outlet
    {
        type            fixedValue;
        value           uniform 0;
    }
    flap
    {
        type            zeroGradient;
    }
    upperWall
    {
        type            zeroGradient;
    }
    lowerWall
    {
        type            zeroGradient;
    }
    frontAndBack
    {
        type            empty;
    }
}


// ************************************************************************* //
