/*--------------------------------*- C++ -*----------------------------------*\
| =========                 |                                                 |
| \\      /  F ield         | OpenFOAM: The Open Source CFD Toolbox           |
|  \\    /   O peration     | Version:  dev                                   |
|   \\  /    A nd           | Web:      www.OpenFOAM.org                      |
|    \\/     M anipulation  |                                                 |
\*---------------------------------------------------------------------------*/
FoamFile
{
    version     2.0;
    format      ascii;
    class       surfaceScalarField;
    location    "3.46";
    object      phi;
}
// * * * * * * * * * * * * * * * * * * * * * * * * * * * * * * * * * * * * * //

dimensions      [0 3 -1 0 0 0 0];

internalField   nonuniform List<scalar> 
881
(
-0.0458827
0.0198409
0.01293
0.0332136
0.0430738
0.0107417
0.0354088
-0.0106579
0.0286694
0.0231569
0.131673
0.066285
0.109501
0.0575876
0.0882199
0.049957
0.0681382
0.0432454
0.0372617
0.219785
0.0859775
0.200197
0.0771817
0.180962
0.0691981
0.16228
0.0619339
0.144329
0.0552187
0.127128
0.0489667
0.0432291
0.292707
0.101039
0.277098
0.0927969
0.261259
0.0850436
0.245427
0.0777717
0.229731
0.0709197
0.214242
0.0644611
0.199041
0.0584347
0.184238
0.0529035
0.0478762
0.350199
0.111204
0.339057
0.103945
0.327226
0.09688
0.31494
0.0900629
0.302359
0.0835064
0.289595
0.077229
0.276756
0.0712777
0.263954
0.0657088
0.251278
0.0605535
0.0558116
0.393572
0.116761
0.386802
0.110719
0.379056
0.104631
0.370539
0.0985852
0.361413
0.0926364
0.351812
0.086834
0.341855
0.0812384
0.331653
0.0759133
0.321302
0.0709059
0.310869
0.066245
0.300398
0.0619556
0.0580691
0.424966
0.118376
0.422087
0.113601
0.418112
0.108611
0.413202
0.1035
0.407498
0.0983447
0.401122
0.093213
0.394191
0.0881725
0.386813
0.0832937
0.379082
0.0786376
0.371077
0.0742504
0.36286
0.0701711
0.354488
0.066438
0.0630814
0.446941
0.116913
0.447234
0.113312
0.446455
0.109394
0.444709
0.105249
0.442102
0.100955
0.438731
0.0965862
0.434693
0.0922127
0.430084
0.0879049
0.424992
0.0837303
0.419494
0.0797473
0.413659
0.0760045
0.407549
0.0725452
0.40122
0.0694057
0.39472
0.0666088
0.0641626
0.462097
0.113263
0.464758
0.110654
0.466466
0.107689
0.467277
0.104441
0.467256
0.100979
0.46647
0.0973746
0.46499
0.0936952
0.462887
0.0900085
0.460238
0.0863795
0.457114
0.0828704
0.453578
0.0795382
0.449689
0.0764306
0.445504
0.0735866
0.44107
0.0710365
0.436425
0.0687997
0.066886
0.472762
0.108209
0.477032
0.106386
0.480517
0.104207
0.483233
0.101727
0.485209
0.0990058
0.486482
0.0961032
0.487098
0.0930807
0.487106
0.0900011
0.486562
0.0869231
0.485525
0.0839064
0.484048
0.0810123
0.482184
0.0782908
0.479983
0.0757824
0.477491
0.0735227
0.474744
0.0715385
0.471771
0.0698497
0.46859
0.068471
0.0674144
0.480775
0.102348
0.486042
0.101121
0.490692
0.0995593
0.494716
0.0977043
0.498121
0.0956031
0.500919
0.0933057
0.503136
0.090865
0.504801
0.0883358
0.505952
0.0857717
0.506628
0.0832277
0.506877
0.0807611
0.50674
0.0784231
0.50626
0.076257
0.505476
0.0743004
0.504421
0.0725854
0.503122
0.0711383
0.501601
0.0699814
0.499868
0.0691341
0.06861
0.487428
0.0960782
0.493255
0.0952953
0.498608
0.0942072
0.503469
0.092845
0.507828
0.0912454
0.511685
0.0894494
0.515048
0.0875013
0.517936
0.085448
0.520368
0.0833383
0.522371
0.0812219
0.523981
0.0791483
0.525232
0.0771672
0.526159
0.0753248
0.526791
0.0736608
0.527159
0.0722094
0.527286
0.0710012
0.527191
0.0700646
0.526886
0.069426
0.526371
0.0691093
0.0691346
0.493519
0.0896321
0.499633
0.0891814
0.505385
0.0884561
0.510751
0.0874795
0.515717
0.0862805
0.520274
0.0848925
0.524422
0.0833525
0.528168
0.0817006
0.531525
0.0799797
0.534509
0.0782346
0.537144
0.07651
0.539457
0.0748494
0.541477
0.0732983
0.543229
0.0719012
0.544735
0.0706941
0.546018
0.0697085
0.547093
0.0689772
0.547972
0.0685334
0.548655
0.0684104
0.549129
0.0686436
0.0693584
0.499492
0.0831331
0.505741
0.0829327
0.51171
0.0824874
0.517376
0.081814
0.52272
0.0809356
0.527733
0.0798792
0.532409
0.0786757
0.536748
0.0773594
0.540758
0.0759678
0.544449
0.0745403
0.547837
0.073118
0.550941
0.0717395
0.553787
0.0704462
0.556394
0.0692856
0.558783
0.068296
0.560971
0.0675096
0.562974
0.0669618
0.564803
0.0666904
0.566461
0.0667364
0.56794
0.0671464
0.0680641
0.505575
0.0766396
0.51188
0.076628
0.517967
0.0763994
0.523815
0.075966
0.529404
0.0753455
0.534723
0.0745599
0.539762
0.073635
0.544519
0.0725999
0.548997
0.071487
0.553202
0.0703311
0.557146
0.0691691
0.560843
0.0680367
0.56431
0.0669721
0.567569
0.0660185
0.570637
0.0652181
0.573529
0.0646064
0.57626
0.0642181
0.578842
0.0640936
0.581283
0.0642791
0.583583
0.064828
0.0658925
0.511885
0.0701765
0.518207
0.070305
0.524363
0.0702429
0.530329
0.0699986
0.536088
0.0695857
0.541624
0.0690217
0.546929
0.0683279
0.551997
0.0675291
0.556828
0.0666529
0.561425
0.0657298
0.565796
0.0647927
0.56995
0.0638756
0.573903
0.0630119
0.577673
0.0622399
0.581276
0.0616046
0.584727
0.0611438
0.58804
0.0608917
0.591229
0.0608892
0.594307
0.0611843
0.597283
0.0618335
0.0629893
0.518494
0.0637529
0.524816
0.0639812
0.531014
0.0640438
0.537065
0.0639461
0.542951
0.0636983
0.548656
0.0633142
0.55417
0.0628113
0.559485
0.0622102
0.564599
0.0615346
0.569513
0.0608111
0.574231
0.0600685
0.578762
0.059338
0.583116
0.0586504
0.587306
0.0580403
0.591351
0.0575484
0.595267
0.0572155
0.599067
0.057078
0.602767
0.057174
0.606382
0.057551
0.609931
0.0582651
0.0594629
0.525461
0.0573694
0.531777
0.0576635
0.538004
0.057815
0.544121
0.0578271
0.550109
0.0577074
0.555954
0.0574668
0.561643
0.0571192
0.567167
0.0566818
0.572522
0.0561747
0.577708
0.0556206
0.582725
0.055045
0.58758
0.0544753
0.592281
0.0539413
0.596838
0.0534726
0.601271
0.0531046
0.605593
0.0528801
0.609821
0.0528359
0.613971
0.0530081
0.618062
0.0534416
0.622118
0.0541893
0.0553876
0.532847
0.0510218
0.539156
0.0513524
0.545406
0.0515618
0.551579
0.0516518
0.557656
0.0516277
0.563621
0.0514979
0.569463
0.0512736
0.575171
0.050969
0.58074
0.0506007
0.586166
0.0501884
0.591451
0.0497538
0.596597
0.0493214
0.601611
0.0489177
0.606503
0.04857
0.611287
0.0483096
0.615979
0.0481739
0.620599
0.0482014
0.625162
0.0484285
0.62969
0.0488946
0.634211
0.049648
0.0508122
0.540717
0.044702
0.547023
0.0450441
0.553297
0.0452847
0.559521
0.0454245
0.565678
0.0454672
0.571753
0.0454192
0.577733
0.0452895
0.583608
0.0450893
0.58937
0.0448327
0.595016
0.0445361
0.600544
0.0442181
0.605957
0.0438999
0.61126
0.0436047
0.616461
0.0433583
0.621572
0.0431867
0.626611
0.043121
0.631596
0.0432006
0.636546
0.0434612
0.641484
0.0439372
0.64644
0.0446709
0.045772
0.549146
0.0383982
0.555456
0.0387307
0.561758
0.0389796
0.568034
0.0391449
0.574268
0.0392292
0.580445
0.0392374
0.586554
0.0391763
0.592582
0.0390552
0.598523
0.0388853
0.604372
0.0386804
0.610126
0.0384561
0.615787
0.0382303
0.621358
0.0380231
0.626848
0.0378572
0.632268
0.0377542
0.637632
0.0377418
0.642961
0.0378559
0.648275
0.038129
0.6536
0.0385922
0.658968
0.0392815
0.040292
0.558213
0.0320959
0.56454
0.0324007
0.570877
0.0326384
0.57721
0.0328084
0.583522
0.0329126
0.5898
0.0329545
0.596031
0.0329395
0.602206
0.0328747
0.608315
0.0327693
0.614354
0.0326343
0.620319
0.0324825
0.626211
0.0323288
0.632034
0.03219
0.637794
0.0320847
0.643503
0.0320322
0.649173
0.0320568
0.654825
0.0321872
0.660482
0.0324527
0.666172
0.0328815
0.671927
0.0335043
0.0344026
0.568008
0.0257771
0.574365
0.0260393
0.58075
0.0262494
0.587148
0.0264066
0.593544
0.0265122
0.599924
0.0265688
0.606278
0.0265803
0.612594
0.0265523
0.618864
0.0264918
0.625083
0.0264074
0.631247
0.0263094
0.637357
0.0262094
0.643415
0.0261211
0.649428
0.0260591
0.655405
0.0260409
0.661361
0.0260853
0.667317
0.026214
0.673297
0.0264532
0.679329
0.0268282
0.685447
0.0273631
0.0281225
0.578634
0.0194209
0.585042
0.0196282
0.59149
0.0197973
0.597964
0.0199274
0.604452
0.0200193
0.610941
0.0200748
0.617418
0.0200968
0.623875
0.0200892
0.630302
0.0200572
0.636694
0.0200073
0.643047
0.0199469
0.649361
0.019885
0.655639
0.0198317
0.661887
0.0197986
0.668114
0.0197989
0.674337
0.0198464
0.680575
0.0199581
0.686853
0.0201559
0.693199
0.0204599
0.699649
0.0208896
0.0214981
0.590196
0.0130026
0.596675
0.0131454
0.603205
0.013263
0.609773
0.0133547
0.616366
0.013421
0.622972
0.0134632
0.629579
0.0134829
0.636179
0.013483
0.642762
0.0134667
0.649322
0.0134383
0.655856
0.0134029
0.662364
0.0133665
0.668848
0.0133359
0.675315
0.0133189
0.681774
0.0133244
0.688243
0.0133617
0.694738
0.0134442
0.701287
0.0135868
0.707921
0.0138034
0.714677
0.0141086
0.0145378
0.602805
0.00649657
0.609379
0.00656789
0.616011
0.00662641
0.62269
0.00667183
0.629401
0.00670436
0.636134
0.00672459
0.642877
0.00673344
0.649621
0.00673223
0.656357
0.0067227
0.66308
0.006707
0.669785
0.00668774
0.676472
0.00666798
0.683145
0.00665124
0.689809
0.00664151
0.696475
0.00664312
0.703159
0.00666137
0.70988
0.00670375
0.716668
0.0067783
0.723554
0.00689412
0.730573
0.00706465
0.00733397
0.605977
0.612541
0.619163
0.625831
0.63253
0.639249
0.645976
0.652701
0.659416
0.666114
0.672792
0.679449
0.686087
0.692715
0.699343
0.705987
0.712672
0.719429
0.726299
0.733338
)
;

boundaryField
{
    inlet
    {
        type            calculated;
        value           nonuniform 0();
    }
    outlet
    {
        type            calculated;
        value           nonuniform List<scalar> 
15
(
0.549352
0.569215
0.585735
0.600166
0.613437
0.626172
0.638764
0.651457
0.664424
0.677792
0.691702
0.706247
0.721611
0.737749
0.740644
)
;
    }
    flap
    {
        type            calculated;
        value           nonuniform 0();
    }
    upperWall
    {
        type            calculated;
        value           nonuniform List<scalar> 
21
(
0
0
0
0
0
0
0
8.73217e-15
0
0
-9.34608e-15
0
0
-4.99889e-15
0
0
0
0
0
0
0
)
;
    }
    lowerWall
    {
        type            calculated;
        value           nonuniform 0();
    }
    frontAndBack
    {
        type            empty;
        value           nonuniform 0();
    }
    procBoundary2to1
    {
        type            processor;
        value           nonuniform List<scalar> 
17
(
-0.474913
-0.481156
-0.487071
-0.492993
-0.499082
-0.505422
-0.512071
-0.519079
-0.526501
-0.5344
-0.542844
-0.551914
-0.561692
-0.572281
-0.583781
-0.596302
-0.599484
)
;
    }
    procBoundary2to4
    {
        type            processor;
        value           nonuniform List<scalar> 
11
(
0.0393778
-0.05644
-0.154878
-0.239471
-0.307763
-0.360359
-0.399124
-0.426577
-0.445474
-0.458444
-0.467705
)
;
    }
    procBoundary2to5
    {
        type            processor;
        value           nonuniform List<scalar> 
34
(
-0.0133294
-0.0114668
-0.047339
-0.00726278
-0.00754289
-0.0262651
-0.0191734
0.0500561
-0.0317602
-0.02679
0.110694
-0.0380973
-0.0335416
0.169905
-0.0433066
0.238774
-0.0514864
-0.0476064
0.289933
-0.0546112
0.346013
-0.0601147
-0.0575325
0.388082
-0.0620648
0.431595
-0.0653014
-0.0640529
0.465216
-0.0666861
0.497929
-0.0684122
0.525632
-0.0696003
)
;
    }
}


// ************************************************************************* //
