/*--------------------------------*- C++ -*----------------------------------*\
| =========                 |                                                 |
| \\      /  F ield         | OpenFOAM: The Open Source CFD Toolbox           |
|  \\    /   O peration     | Version:  dev                                   |
|   \\  /    A nd           | Web:      www.OpenFOAM.org                      |
|    \\/     M anipulation  |                                                 |
\*---------------------------------------------------------------------------*/
FoamFile
{
    version     2.0;
    format      ascii;
    class       volScalarField;
    location    "3.07";
    object      p;
}
// * * * * * * * * * * * * * * * * * * * * * * * * * * * * * * * * * * * * * //

dimensions      [0 2 -2 0 0 0 0];

internalField   nonuniform List<scalar> 
2790
(
139.311
139.249
139.554
140.111
140.834
141.711
142.744
143.928
145.258
146.726
148.327
150.056
151.906
153.867
155.929
158.076
160.292
162.553
164.833
167.098
169.31
171.426
173.398
175.176
176.711
177.961
178.895
179.504
179.797
179.924
139.136
139.171
139.497
140.051
140.771
141.646
142.676
143.855
145.178
146.639
148.232
149.952
151.792
153.744
155.795
157.933
160.139
162.393
164.667
166.931
169.146
171.271
173.257
175.057
176.621
177.904
178.873
179.518
179.861
180.165
138.958
139.065
139.41
139.954
140.663
141.526
142.543
143.706
145.011
146.451
148.02
149.714
151.524
153.442
155.458
157.557
159.723
161.935
164.168
166.394
168.576
170.677
172.653
174.46
176.054
177.398
178.469
179.275
179.855
180.414
138.763
138.906
139.263
139.799
140.494
141.344
142.343
143.486
144.766
146.178
147.715
149.371
151.139
153.011
154.975
157.018
159.123
161.272
163.44
165.601
167.724
169.774
171.714
173.508
175.119
176.52
177.698
178.665
179.414
180.062
138.542
138.703
139.07
139.599
140.279
141.11
142.088
143.204
144.453
145.828
147.323
148.932
150.647
152.46
154.358
156.33
158.358
160.425
162.508
164.584
166.626
168.602
170.483
172.238
173.84
175.268
176.507
177.55
178.33
178.858
138.291
138.46
138.831
139.352
140.014
140.824
141.774
142.858
144.069
145.4
146.845
148.398
150.05
151.793
153.614
155.5
157.437
159.407
161.389
163.361
165.299
167.179
168.973
170.659
172.212
173.613
174.839
175.862
176.575
176.861
138.006
138.179
138.551
139.06
139.703
140.486
141.404
142.451
143.618
144.899
146.287
147.775
149.354
151.016
152.748
154.538
156.369
158.227
160.09
161.939
163.753
165.509
167.186
168.762
170.217
171.529
172.667
173.591
174.186
174.195
137.688
137.862
138.23
138.726
139.345
140.099
140.982
141.986
143.103
144.327
145.65
147.065
148.563
150.134
151.767
153.447
155.16
156.89
158.618
160.324
161.989
163.592
165.114
166.536
167.836
168.991
169.968
170.725
171.169
170.903
137.338
137.51
137.871
138.35
138.944
139.665
140.508
141.465
142.528
143.689
144.94
146.275
147.683
149.154
150.676
152.235
153.816
155.402
156.975
158.516
160.005
161.422
162.747
163.96
165.04
165.964
166.701
167.214
167.463
166.914
136.954
137.124
137.475
137.936
138.502
139.187
139.987
140.892
141.895
142.987
144.161
145.408
146.718
148.08
149.481
150.908
152.343
153.769
155.169
156.521
157.803
158.995
160.074
161.017
161.8
162.402
162.795
162.958
162.924
162.037
136.54
136.706
137.046
137.485
138.021
138.667
139.42
140.27
141.209
142.228
143.318
144.471
145.676
146.92
148.191
149.474
150.75
152.001
153.206
154.343
155.387
156.313
157.09
157.691
158.085
158.245
158.15
157.795
157.309
155.934
136.096
136.258
136.584
136.999
137.502
138.108
138.811
139.602
140.473
141.414
142.416
143.469
144.562
145.682
146.814
147.942
149.047
150.107
151.099
151.996
152.769
153.384
153.801
153.979
153.872
153.436
152.646
151.497
150.236
148.025
135.624
135.781
136.092
136.482
136.95
137.512
138.163
138.893
139.692
140.551
141.461
142.409
143.385
144.374
145.36
146.324
147.246
148.101
148.863
149.498
149.968
150.23
150.229
149.899
149.165
147.945
146.164
143.775
141.113
137.256
135.125
135.276
135.571
135.935
136.367
136.884
137.48
138.146
138.871
139.645
140.458
141.298
142.152
143.004
143.838
144.632
145.362
146.001
146.518
146.872
147.015
146.889
146.419
145.505
144.023
141.81
138.667
134.353
129.077
121.484
134.602
134.747
135.025
135.361
135.755
136.225
136.765
137.365
138.013
138.7
139.414
140.142
140.871
141.583
142.26
142.878
143.411
143.827
144.09
144.151
143.952
143.418
142.448
140.904
138.591
135.225
130.371
123.283
113.228
95.5335
7.89918
7.87256
7.78776
7.63295
7.42661
7.19742
6.96629
6.7418
6.52383
6.30905
6.09486
5.87989
5.66335
5.4446
5.22294
4.99792
4.76957
4.53749
4.29962
4.05136
3.7863
3.499
3.18715
2.85088
2.49133
2.10782
1.69713
1.25649
0.784228
0.278913
7.9035
7.86778
7.77158
7.61124
7.40536
7.17933
6.95183
6.73087
6.51595
6.30337
6.09067
5.87674
5.661
5.44293
5.22163
4.99666
4.76848
4.53729
4.30132
4.0556
3.79263
3.50619
3.19426
2.8574
2.49743
2.11381
1.70216
1.25916
0.783544
0.273642
7.91665
7.86971
7.75727
7.58746
7.38011
7.15706
6.93392
6.71663
6.50427
6.29368
6.08267
5.87012
5.65567
5.43892
5.21828
4.9932
4.76516
4.53567
4.30355
4.06285
3.8034
3.51823
3.20593
2.86731
2.50426
2.11727
1.70266
1.25659
0.777838
0.265962
7.94071
7.88012
7.75061
7.57032
7.36042
7.13935
6.92038
6.70557
6.49412
6.28383
6.07306
5.86088
5.64757
5.43311
5.21415
4.98915
4.7611
4.5326
4.3029
4.06508
3.80837
3.52525
3.2135
2.8738
2.50754
2.11577
1.69644
1.24626
0.764864
0.257078
7.98261
7.9058
7.76106
7.57236
7.36057
7.13953
6.92123
6.70612
6.49173
6.27857
6.06439
5.84987
5.63549
5.42102
5.20366
4.98145
4.75612
4.52974
4.30109
4.06352
3.80737
3.52513
3.21366
2.87273
2.50299
2.106
1.68171
1.22755
0.745186
0.247489
8.05905
7.96555
7.80995
7.61612
7.40247
7.18027
6.94998
6.71886
6.49578
6.27488
6.05437
5.8355
5.61905
5.40433
5.1886
4.9697
4.74803
4.52431
4.29654
4.05854
3.80185
3.51932
3.20723
2.86461
2.49165
2.08925
1.65925
1.20103
0.719697
0.236799
8.19881
8.09129
7.93141
7.73
7.49991
7.25315
6.9975
6.74722
6.50507
6.26955
6.03963
5.81533
5.59645
5.38154
5.16777
4.95264
4.7352
4.51468
4.28821
4.04991
3.79216
3.50836
3.19459
2.84949
2.47296
2.06552
1.6294
1.1667
0.688633
0.224668
8.43785
8.31543
8.1387
7.90688
7.63491
7.34439
7.05478
6.77516
6.50901
6.25623
6.01552
5.7856
5.56489
5.35088
5.14021
4.92979
4.71738
4.50078
4.27625
4.03797
3.77899
3.49317
3.17666
2.82804
2.44739
2.03505
1.59192
1.12408
0.651741
0.210783
8.7908
8.63853
8.4116
8.1164
7.78059
7.43617
7.10196
6.7877
6.49642
6.22701
5.97682
5.7429
5.52216
5.31098
5.10524
4.90097
4.69473
4.483
4.26125
4.02351
3.76321
3.47462
3.15409
2.80048
2.41447
1.99658
1.54684
1.07368
0.608365
0.194796
9.23912
9.02936
8.71694
8.32827
7.91121
7.50136
7.11835
6.77012
6.45681
6.17458
5.91859
5.68407
5.46639
5.26084
5.06242
4.86624
4.6677
4.46212
4.24414
4.00754
3.74586
3.45367
3.12765
2.76725
2.37409
1.9494
1.49298
1.01458
0.55748
0.176208
9.76834
9.46374
9.01648
8.50395
7.98998
7.51152
7.08367
6.70849
6.38083
6.09276
5.83678
5.60649
5.39606
5.19974
5.01166
4.82602
4.63713
4.43925
4.22622
3.9914
3.72821
3.43135
3.09797
2.72835
2.32551
1.89204
1.42821
0.945951
0.498652
0.154299
10.3989
9.89818
9.24943
8.58716
7.97497
7.43796
6.97897
6.59077
6.26108
5.97702
5.72856
5.50842
5.31023
5.12748
4.95335
4.78113
4.60422
4.41591
4.20918
3.97679
3.71184
3.40905
3.06596
2.68395
2.26796
1.82274
1.34997
0.864611
0.430846
0.128831
11.1067
10.2273
9.31899
8.50712
7.82213
7.25447
6.78872
6.40832
6.09335
5.82538
5.59286
5.38923
5.20875
5.04443
4.88843
4.73296
4.57067
4.39405
4.19516
3.96591
3.69884
3.38844
3.03268
2.63419
2.20036
1.73909
1.25503
0.767229
0.350561
0.0980756
11.7755
10.2757
9.0823
8.17926
7.49322
6.94349
6.50406
6.15804
5.87835
5.6396
5.43084
5.2496
5.09237
4.95181
4.8185
4.68343
4.53865
4.37609
4.18682
3.96154
3.69186
3.37183
2.99968
2.57952
2.12174
1.63883
1.14071
0.652324
0.258316
0.0616206
11.9765
9.68717
8.31772
7.50497
6.97753
6.50835
6.12653
5.84406
5.62393
5.42664
5.24631
5.09138
4.96273
4.8518
4.74614
4.63507
4.51073
4.3649
4.18746
3.96738
3.69486
3.36323
2.97087
2.52335
2.03453
1.52304
1.00675
0.518668
0.152768
0.0189476
134.047
134.185
134.445
134.751
135.106
135.526
136.008
136.538
137.107
137.703
138.314
138.927
139.526
140.094
140.608
141.044
141.373
141.56
141.56
141.32
140.77
139.819
138.341
136.16
133.012
128.479
121.839
111.578
94.4405
44.8653
133.452
133.582
133.823
134.098
134.412
134.781
135.201
135.659
136.145
136.646
137.151
137.643
138.108
138.526
138.873
139.123
139.243
139.195
138.93
138.388
137.49
136.135
134.179
131.424
127.573
122.162
114.412
102.869
87.0906
65.5248
132.822
132.945
133.165
133.407
133.678
133.994
134.35
134.734
135.134
135.538
135.933
136.303
136.631
136.896
137.074
137.136
137.048
136.767
136.243
135.411
134.189
132.469
130.109
126.914
122.617
116.855
109.187
99.0677
87.238
74.7123
132.158
132.272
132.471
132.68
132.906
133.167
133.458
133.766
134.079
134.384
134.668
134.914
135.104
135.217
135.227
135.103
134.811
134.307
133.538
132.439
130.929
128.905
126.236
122.756
118.263
112.521
105.313
96.3777
85.6688
73.0787
131.462
131.567
131.744
131.919
132.099
132.304
132.529
132.76
132.984
133.19
133.362
133.484
133.538
133.5
133.346
133.043
132.557
131.843
130.851
129.516
127.764
125.502
122.619
118.984
114.449
108.853
102.046
93.8332
84.0377
72.9882
130.734
130.831
130.986
131.125
131.259
131.407
131.565
131.719
131.855
131.961
132.022
132.023
131.942
131.759
131.446
130.974
130.307
129.402
128.212
126.679
124.733
122.298
119.282
115.587
111.105
105.729
99.3648
91.9363
83.4228
74.2633
129.978
130.065
130.197
130.301
130.389
130.48
130.571
130.647
130.696
130.704
130.657
130.538
130.329
130.006
129.544
128.914
128.082
127.009
125.65
123.954
121.863
119.312
116.232
112.551
108.197
103.107
97.2416
90.5962
83.1989
75.3689
129.195
129.273
129.382
129.451
129.492
129.527
129.551
129.551
129.514
129.426
129.274
129.041
128.708
128.254
127.654
126.881
125.902
124.684
123.185
121.363
119.169
116.554
113.465
109.854
105.678
100.905
95.5271
89.5635
83.0501
76.2343
128.388
128.457
128.544
128.577
128.572
128.551
128.51
128.436
128.315
128.135
127.882
127.54
127.092
126.517
125.791
124.889
123.784
122.443
120.834
118.919
116.661
114.023
110.968
107.466
103.493
99.0395
94.1121
88.7411
82.9697
77.001
127.56
127.62
127.685
127.683
127.633
127.558
127.454
127.307
127.106
126.838
126.489
126.046
125.491
124.805
123.966
122.953
121.74
120.301
118.607
116.63
114.34
111.713
108.723
105.353
101.594
97.4489
92.9339
88.0837
82.9434
77.676
126.716
126.766
126.809
126.774
126.68
126.552
126.387
126.171
125.894
125.542
125.105
124.568
123.915
123.129
122.192
121.083
119.782
118.265
116.511
114.498
112.204
109.611
106.707
103.483
99.9389
96.0851
91.943
87.5472
82.9396
78.2503
125.858
125.9
125.922
125.854
125.718
125.54
125.316
125.035
124.685
124.256
123.736
123.113
122.373
121.5
120.478
119.289
117.917
116.343
114.55
112.521
110.243
107.705
104.9
101.826
98.4909
94.9074
91.0988
87.0973
82.94
78.7314
124.992
125.025
125.026
124.927
124.751
124.525
124.246
123.904
123.487
122.986
122.392
121.692
120.874
119.925
118.831
117.578
116.151
114.537
112.723
110.697
108.451
105.979
103.28
100.357
97.2191
93.8831
90.3707
86.711
82.9362
79.1305
124.121
124.146
124.128
123.999
123.786
123.514
123.184
122.785
122.307
121.741
121.079
120.31
119.425
118.411
117.258
115.954
114.487
112.848
111.028
109.019
106.816
104.418
101.827
99.05
96.0976
92.9858
89.7356
86.3725
82.9238
79.4578
123.252
123.268
123.232
123.076
122.827
122.514
122.136
121.685
121.15
120.526
119.804
118.976
118.033
116.965
115.765
114.422
112.928
111.277
109.462
107.479
105.327
103.008
100.525
97.8863
95.1046
92.1949
89.1761
86.0703
82.9007
79.7228
122.388
122.397
122.343
122.162
121.88
121.529
121.108
120.609
120.024
119.348
118.573
117.694
116.702
115.591
114.353
112.983
111.473
109.819
108.019
106.071
103.975
101.734
99.3557
96.8479
94.2224
91.4938
88.6789
85.7966
82.8667
79.9344
121.537
121.538
121.468
121.263
120.952
120.565
120.105
119.564
118.935
118.213
117.393
116.47
115.439
114.293
113.027
111.638
110.121
108.474
106.695
104.786
102.748
100.586
98.3068
95.92
93.4365
90.8695
88.2339
85.546
82.8225
80.1005
120.703
120.697
120.612
120.386
120.048
119.63
119.135
118.556
117.888
117.127
116.268
115.31
114.246
113.073
111.788
110.388
108.871
107.237
105.484
103.617
101.638
99.5513
97.3659
95.0902
92.7348
90.3116
87.8337
85.315
82.7696
80.2282
119.892
119.881
119.782
119.537
119.175
118.729
118.203
117.591
116.889
116.094
115.204
114.216
113.127
111.935
110.637
109.233
107.722
106.104
104.382
102.557
100.635
98.6212
96.5227
94.3484
92.1081
89.8124
87.4728
85.1013
82.7099
80.3239
119.112
119.095
118.984
118.721
118.338
117.868
117.315
116.675
115.944
115.121
114.205
113.193
112.085
110.879
109.575
108.171
106.67
105.073
103.382
101.6
99.7336
97.7872
95.7686
93.6862
91.5486
89.3656
87.1471
84.9036
82.6453
80.3933
118.369
118.346
118.224
117.946
117.545
117.053
116.477
115.813
115.058
114.212
113.275
112.245
111.123
109.908
108.601
107.203
105.715
104.14
102.48
100.741
98.9263
97.0426
95.0968
93.0967
91.0505
88.9666
86.8539
84.7215
82.5781
80.4414
117.669
117.641
117.51
117.219
116.801
116.291
115.695
115.011
114.236
113.372
112.417
111.374
110.243
109.023
107.718
106.327
104.854
103.302
101.674
99.9741
98.2082
96.3818
94.5016
92.575
90.6093
88.6122
86.5915
84.5552
82.5109
80.4732
117.02
116.987
116.847
116.544
116.113
115.587
114.975
114.274
113.484
112.604
111.637
110.584
109.447
108.226
106.924
105.543
104.086
102.556
100.958
99.2962
97.5748
95.8001
93.9784
92.1166
90.2214
88.2997
86.3586
84.4049
82.4455
80.4925
116.428
116.392
116.244
115.931
115.487
114.949
114.323
113.609
112.805
111.914
110.938
109.879
108.738
107.518
106.222
104.851
103.411
101.903
100.333
98.7048
97.0236
95.2947
93.5245
91.7193
89.8852
88.0285
86.1555
84.2724
82.3853
80.5043
115.903
115.863
115.707
115.384
114.931
114.382
113.745
113.02
112.206
111.306
110.324
109.26
108.118
106.901
105.611
104.252
102.826
101.339
99.7944
98.1968
96.5509
94.8622
93.1365
91.3798
89.5978
87.7962
85.9808
84.1572
82.3307
80.5098
115.452
115.407
115.243
114.913
114.45
113.893
113.247
112.514
111.692
110.787
109.8
108.734
107.593
106.379
105.096
103.747
102.336
100.867
99.3448
97.7737
96.1583
94.5038
92.8158
91.0999
89.3615
87.606
85.8385
84.0641
82.2879
80.517
115.084
115.033
114.86
114.521
114.052
113.486
112.834
112.094
111.267
110.357
109.367
108.3
107.16
105.95
104.674
103.334
101.936
100.483
98.98
97.431
95.8408
94.2143
92.557
90.8742
89.171
87.4523
85.7229
83.9877
82.2512
80.5191
114.81
114.75
114.566
114.221
113.746
113.176
112.518
111.773
110.942
110.029
109.038
107.971
106.833
105.626
104.356
103.024
101.637
100.196
98.7087
97.1774
95.6073
94.0029
92.3698
90.7129
89.037
87.3471
85.6475
83.9429
82.2376
80.5367
114.647
114.558
114.356
114.004
113.527
112.954
112.293
111.545
110.712
109.798
108.806
107.741
106.604
105.401
104.135
102.81
101.43
99.9988
98.5217
97.0027
95.4462
93.8569
92.2399
90.6003
88.9427
87.2716
85.5915
83.9067
82.2212
80.5391
114.632
114.49
114.263
113.904
113.424
112.847
112.182
111.433
110.599
109.684
108.692
107.627
106.493
105.293
104.03
102.71
101.335
99.9109
98.4412
96.9306
95.3832
93.8038
92.1973
90.5687
88.9226
87.2633
85.5953
83.9226
82.2493
80.5787
-46.1513
-23.1305
-1.90244
49.1438
43.9046
34.0573
59.7055
48.6214
38.3355
58.2839
48.7775
41.4577
61.7445
54.3036
48.189
65.2961
59.1082
53.7934
67.7754
62.5204
57.9932
69.7359
65.2601
61.4123
71.3937
67.5374
64.2275
72.7759
69.4083
66.5239
73.9193
70.9452
68.4024
74.8665
72.2136
69.9483
75.6513
73.2635
71.2261
76.3005
74.134
72.2858
76.8367
74.8564
73.167
77.2784
75.456
73.901
77.6408
75.9533
74.5126
77.9369
76.3649
75.022
78.1774
76.7048
75.4458
78.3715
76.9846
75.7976
78.527
77.214
76.0889
78.6513
77.4018
76.3298
78.7496
77.5545
76.5279
78.8289
77.68
76.6918
78.8904
77.7804
76.8245
78.9448
77.8667
76.937
78.9829
77.9304
77.0223
79.0305
77.9973
77.1042
79.0503
78.0308
77.1499
79.1088
78.1016
77.2265
10.4206
7.26441
6.44859
6.35289
6.38126
6.00116
5.66378
5.46925
5.34185
5.19626
5.04165
4.91396
4.81982
4.74601
4.67397
4.59066
4.48993
4.36432
4.20202
3.98943
3.71464
3.36982
2.95327
2.47181
1.94292
1.39273
0.850126
0.359352
0.0253472
-0.0318805
16.735
7.80775
6.52958
6.60849
6.14625
5.30675
4.96344
4.98908
5.06902
4.98205
4.82656
4.71903
4.666
4.63913
4.60699
4.55372
4.47947
4.37866
4.23631
4.03468
3.75891
3.39958
2.95462
2.43171
1.85151
1.24862
0.667277
0.168525
-0.129542
-0.0946497
23.776
13.079
9.23157
7.35616
5.89673
5.23166
5.06792
5.13813
5.07277
4.77443
4.52812
4.45762
4.48454
4.53417
4.5528
4.52747
4.48042
4.40965
4.29334
4.10723
3.83266
3.45834
2.9814
2.40962
1.76583
1.09372
0.45826
-0.0539498
-0.310452
-0.171936
31.3656
21.3763
15.2292
11.1862
8.41038
6.76892
5.847
5.32138
4.94229
4.66472
4.51932
4.48581
4.50732
4.53817
4.53033
4.49496
4.47407
4.44541
4.36651
4.20313
3.93303
3.54405
3.03276
2.40699
1.69142
0.937871
0.233445
-0.301062
-0.513957
-0.267229
39.6201
30.3077
22.9088
17.3169
13.2212
10.3288
8.32522
6.94841
5.99717
5.35409
4.94304
4.70231
4.58506
4.54715
4.54271
4.55475
4.57195
4.56415
4.49355
4.32953
4.05082
3.64293
3.09877
2.42374
1.64343
0.81571
0.0468038
-0.514585
-0.702544
-0.383565
46.5745
38.3185
30.6576
24.2357
19.1862
15.3075
12.3633
10.1514
8.49969
7.27344
6.37817
5.74782
5.32711
5.06138
4.89978
4.80651
4.75252
4.70284
4.61527
4.44771
4.16485
3.74216
3.169
2.4526
1.62383
0.747069
-0.0672846
-0.665375
-0.860631
-0.529432
52.0663
45.0025
37.7029
31.0845
25.5603
21.0537
17.4013
14.4685
12.1363
10.2981
8.86702
7.773
6.95324
6.34836
5.90477
5.57865
5.33214
5.12509
4.91231
4.64812
4.29266
3.81622
3.20265
2.45468
1.60166
0.709198
-0.112046
-0.710047
-0.912288
-0.632846
56.4823
50.4494
43.7775
37.3799
31.7749
26.9747
22.8821
19.4253
16.5409
14.1603
12.215
10.6424
9.38367
8.38329
7.58948
6.95555
6.43809
5.99289
5.57358
5.13434
4.6347
4.04395
3.34498
2.53978
1.65683
0.759176
-0.0503718
-0.635959
-0.856609
-0.676295
60.0337
54.8267
48.8428
42.8782
37.4503
32.6198
28.3369
24.5742
21.3105
18.5114
16.1324
14.1265
12.447
11.0468
9.88006
8.90198
8.069
7.33709
6.66149
5.99857
5.30947
4.56448
3.74716
2.8596
1.92877
1.01186
0.197792
-0.40257
-0.684662
-0.650254
62.8881
58.3387
53.0016
47.5396
42.4239
37.7342
33.4483
29.5642
26.0874
23.0093
20.3075
17.9528
15.9121
14.1498
12.6281
11.3084
10.1513
9.11653
8.16354
7.25285
6.34926
5.42578
4.46753
3.47626
2.47535
1.51288
0.660284
0.00163972
-0.390391
-0.537084
65.203
61.1806
56.4098
51.4395
46.6841
42.2251
38.0532
34.1788
30.6214
27.389
24.476
21.8679
19.5446
17.4816
15.6507
14.0213
12.5604
11.234
10.0073
8.8463
7.7208
6.6074
5.49305
4.3787
3.2829
2.24303
1.31266
0.551792
0.00842882
-0.345326
67.0988
63.5039
59.2143
54.6901
50.2933
46.0989
42.1027
38.3188
34.7729
31.4821
28.4516
25.6776
23.1505
20.8556
18.7735
16.8818
15.155
13.5658
12.0859
10.6876
9.34605
8.04159
6.76302
5.51018
4.29641
3.14872
2.10475
1.20491
0.478994
-0.100714
68.6626
65.4195
61.5354
57.4031
53.3396
49.4118
45.6159
41.9659
38.4886
35.2053
32.1271
29.2578
26.5952
24.1321
21.8568
19.754
17.8054
15.9902
14.2867
12.6731
11.1295
9.64016
8.19544
6.79404
5.44446
4.16468
2.9794
1.91398
0.985056
0.168052
69.9596
67.0093
63.4679
59.6752
55.9119
52.2366
48.6441
45.1466
41.7694
38.5349
35.4573
32.5448
29.8003
27.222
24.8043
22.5379
20.4103
18.407
16.5117
14.708
12.9807
11.3172
9.70929
8.15476
6.65808
5.22999
3.88523
2.63802
1.49557
0.437445
71.0395
68.3355
65.0849
61.5857
58.0884
54.6447
51.2477
47.9066
44.6443
41.4826
38.4369
35.5176
32.7307
30.0786
27.5599
25.17
22.9014
20.7443
18.6874
16.7188
14.8271
13.0024
11.2378
9.53045
7.88166
6.29675
4.78311
3.34693
1.98871
0.692079
71.9412
69.4457
66.4431
63.1974
59.9343
56.6997
53.4848
50.2959
47.1533
44.077
41.0822
38.1805
35.3797
32.6848
30.0974
27.6164
25.2383
22.957
20.7653
18.6549
16.6175
14.6454
12.7331
10.8769
9.07622
7.33233
5.64742
4.02206
2.452
0.924385
72.6954
70.3773
67.587
64.5604
61.5028
58.4551
55.407
52.3621
49.3377
46.3518
43.419
40.5508
37.756
35.041
32.4097
29.8634
27.4013
25.0207
22.7172
20.4855
18.3197
16.2142
14.1642
12.1661
10.2176
8.31732
6.4639
4.65403
2.88024
1.13253
73.3263
71.1598
68.5518
65.7149
62.8374
59.9557
57.0587
54.1473
51.2361
48.3412
45.4757
42.6508
39.8756
37.1571
34.5005
31.9089
29.3837
26.9242
24.5285
22.1935
19.9153
17.6899
15.5133
13.3818
11.2923
9.2417
7.2261
5.23969
3.27293
1.31809
73.8539
71.8171
69.366
66.6936
63.9734
61.2387
58.4772
55.688
52.8831
50.0764
47.2799
44.5038
41.757
39.0467
36.3788
33.7577
31.1858
28.6644
26.1931
23.7707
21.3947
19.0624
16.7705
14.5155
12.2938
10.1011
7.932
5.77918
3.63178
1.4839
74.2947
72.369
70.053
67.5231
64.9402
62.3348
59.6942
57.0156
54.3088
51.5858
48.8571
46.1321
43.419
40.725
38.0562
35.4174
32.8121
30.2427
27.71
25.214
22.7536
20.3267
17.931
15.563
13.2189
10.8939
8.58173
6.27396
3.95913
1.63277
74.6623
72.8317
70.632
68.2254
65.7619
63.2699
60.7363
58.1568
55.5393
52.8941
50.2304
47.5563
44.8796
42.2069
39.5444
36.897
34.2688
31.6628
29.0806
26.5232
23.9903
21.4806
18.9923
16.5222
14.0665
11.62
9.1759
6.72545
4.25685
1.76667
74.9683
73.219
71.1192
68.8189
66.4589
64.0658
61.6261
59.1346
56.5975
54.0234
51.4203
48.7954
46.1557
43.5072
40.8557
38.2064
35.5633
32.9298
30.3082
27.7
25.1054
22.5239
19.9539
17.3926
14.8363
12.2796
9.71554
7.13518
4.52667
1.88719
75.2219
73.5419
71.5275
69.3185
67.0475
64.7399
62.3821
59.9679
57.5021
54.992
52.4444
49.8656
47.2618
44.6385
42.001
39.3542
36.7022
34.0486
31.396
28.746
26.0996
23.4564
20.8151
18.1734
15.5276
12.8722
10.2005
7.50322
4.76879
1.99457
75.4326
73.811
71.8692
69.7377
67.5428
65.3084
63.0211
60.674
58.2705
55.817
53.3191
50.7825
48.2124
45.6138
42.9916
40.3503
37.6939
35.0259
32.3491
29.6653
26.9756
24.28
21.5776
18.866
16.1416
13.3994
10.6323
7.8313
4.98495
2.09023
75.6048
74.0322
72.1511
70.0848
67.9538
65.7813
63.5538
61.2639
58.914
56.5094
54.0552
51.556
49.0164
46.441
43.834
41.1997
38.5419
35.8639
33.1684
30.4574
27.7322
24.9929
22.2386
19.4672
16.6753
13.8578
11.0078
8.11648
5.17246
2.17224
75.7489
74.2164
72.3855
70.3729
68.2947
66.1733
63.9955
61.7532
59.4482
57.085
54.6678
52.2008
49.688
47.1333
44.5407
41.9139
39.2565
36.5717
33.8621
31.1297
28.3758
25.6006
22.8034
19.9821
17.1334
14.2523
11.3319
8.36354
5.33595
2.24427
75.8609
74.3603
72.5692
70.5993
68.5632
66.4828
64.3447
62.1407
59.872
57.5423
55.1554
52.7148
50.2242
47.6871
45.1068
42.487
39.8309
37.1416
34.4216
31.6727
28.8963
26.0927
23.261
20.3995
17.5046
14.5716
11.5936
8.562
5.46587
2.29954
75.9603
74.4838
72.7231
70.7857
68.7815
66.732
64.6242
62.4494
60.2083
57.9043
55.5407
53.1207
50.6474
48.1239
45.5536
42.9396
40.285
37.5926
34.8649
32.1038
29.3104
26.485
23.627
20.7343
17.8037
14.8303
11.8073
8.72588
5.57525
2.34764
76.0217
74.5607
72.8201
70.9049
68.9223
66.8937
64.8062
62.6511
60.4287
58.142
55.7942
53.388
50.9266
48.4126
45.8491
43.2392
40.5858
37.8917
35.1591
32.3898
29.5851
26.7451
23.8692
20.9555
18.0006
14.9995
11.9452
8.82904
5.64018
2.37079
76.0978
74.6379
72.9083
71.0065
69.0361
67.0186
64.9419
62.7971
60.5844
58.3067
55.9667
53.5674
51.1114
48.6017
46.041
43.4323
40.7786
38.0824
35.346
32.5713
29.7594
26.9105
24.024
21.098
18.1289
15.1118
12.0393
8.90185
5.68633
2.37594
)
;

boundaryField
{
    inlet
    {
        type            zeroGradient;
    }
    outlet
    {
        type            fixedValue;
        value           uniform 0;
    }
    flap
    {
        type            zeroGradient;
    }
    upperWall
    {
        type            zeroGradient;
    }
    lowerWall
    {
        type            zeroGradient;
    }
    frontAndBack
    {
        type            empty;
    }
}


// ************************************************************************* //
