/*--------------------------------*- C++ -*----------------------------------*\
| =========                 |                                                 |
| \\      /  F ield         | OpenFOAM: The Open Source CFD Toolbox           |
|  \\    /   O peration     | Version:  dev                                   |
|   \\  /    A nd           | Web:      www.OpenFOAM.org                      |
|    \\/     M anipulation  |                                                 |
\*---------------------------------------------------------------------------*/
FoamFile
{
    version     2.0;
    format      ascii;
    class       volVectorField;
    location    "1.36";
    object      cellDisplacement;
}
// * * * * * * * * * * * * * * * * * * * * * * * * * * * * * * * * * * * * * //

dimensions      [0 1 0 0 0 0 0];

internalField   nonuniform List<vector> 
465
(
(0.415114 0 -0.128206)
(0.407136 0 -0.123716)
(0.416179 0 -0.127861)
(0.408154 0 -0.123698)
(0.399619 0 -0.119264)
(0.390481 0 -0.114597)
(0.416235 0 -0.127034)
(0.408269 0 -0.123203)
(0.399733 0 -0.119063)
(0.390547 0 -0.114652)
(0.380619 0 -0.110004)
(0.415331 0 -0.125789)
(0.407506 0 -0.122282)
(0.399047 0 -0.118434)
(0.389889 0 -0.114286)
(0.379951 0 -0.109869)
(0.369143 0 -0.105209)
(0.357361 0 -0.100328)
(0.413528 0 -0.124182)
(0.405902 0 -0.12098)
(0.397581 0 -0.117417)
(0.388511 0 -0.113529)
(0.378622 0 -0.109345)
(0.367833 0 -0.104892)
(0.356052 0 -0.100189)
(0.343174 0 -0.0952507)
(0.329092 0 -0.0900872)
(0.410891 0 -0.122258)
(0.403504 0 -0.11934)
(0.395365 0 -0.116046)
(0.38643 0 -0.112409)
(0.376639 0 -0.108457)
(0.365918 0 -0.104212)
(0.354182 0 -0.0996934)
(0.341337 0 -0.0949159)
(0.327281 0 -0.0898884)
(0.311901 0 -0.0846137)
(0.407492 0 -0.120056)
(0.400364 0 -0.117396)
(0.392438 0 -0.114353)
(0.383674 0 -0.110956)
(0.374019 0 -0.107227)
(0.363405 0 -0.103189)
(0.351755 0 -0.0988577)
(0.338982 0 -0.0942469)
(0.32499 0 -0.0893649)
(0.309675 0 -0.0842152)
(0.292927 0 -0.0787958)
(0.274634 0 -0.0731)
(0.403402 0 -0.117607)
(0.396543 0 -0.115177)
(0.388847 0 -0.112365)
(0.380278 0 -0.109191)
(0.370787 0 -0.105677)
(0.360312 0 -0.101841)
(0.348782 0 -0.0976966)
(0.336116 0 -0.093256)
(0.322223 0 -0.0885267)
(0.307006 0 -0.0835117)
(0.29036 0 -0.0782095)
(0.272178 0 -0.0726135)
(0.252342 0 -0.0667103)
(0.398693 0 -0.11493)
(0.392102 0 -0.112706)
(0.384643 0 -0.110103)
(0.376283 0 -0.107137)
(0.366976 0 -0.103827)
(0.356664 0 -0.100185)
(0.345282 0 -0.0962246)
(0.332752 0 -0.0919554)
(0.318989 0 -0.0873837)
(0.303901 0 -0.0825119)
(0.287391 0 -0.0773383)
(0.269352 0 -0.0718565)
(0.249677 0 -0.066055)
(0.228251 0 -0.0599168)
(0.204959 0 -0.0534202)
(0.393448 0 -0.112044)
(0.38711 0 -0.110001)
(0.379884 0 -0.107585)
(0.371738 0 -0.10481)
(0.362626 0 -0.10169)
(0.352495 0 -0.0982348)
(0.341281 0 -0.0944543)
(0.328912 0 -0.0903563)
(0.315306 0 -0.0859456)
(0.300376 0 -0.0812238)
(0.284029 0 -0.0761889)
(0.266165 0 -0.0708347)
(0.24668 0 -0.0651506)
(0.225466 0 -0.0591209)
(0.202412 0 -0.0527253)
(0.177402 0 -0.0459373)
(0.38773 0 -0.10896)
(0.381636 0 -0.107074)
(0.374628 0 -0.104824)
(0.366693 0 -0.102224)
(0.357783 0 -0.0992806)
(0.347844 0 -0.0960027)
(0.336814 0 -0.0923969)
(0.324624 0 -0.0884686)
(0.311197 0 -0.0842211)
(0.29645 0 -0.079655)
(0.280294 0 -0.0747678)
(0.262633 0 -0.0695536)
(0.243368 0 -0.0640022)
(0.222395 0 -0.0580993)
(0.19961 0 -0.051826)
(0.174903 0 -0.0451586)
(0.148165 0 -0.0380687)
(0.119286 0 -0.0305236)
(0.381594 0 -0.105675)
(0.375718 0 -0.103923)
(0.368929 0 -0.101824)
(0.361203 0 -0.0993842)
(0.352496 0 -0.0966069)
(0.342755 0 -0.0934977)
(0.33192 0 -0.0900611)
(0.319924 0 -0.0863004)
(0.306695 0 -0.0822175)
(0.292151 0 -0.077812)
(0.276208 0 -0.0730809)
(0.258775 0 -0.0680181)
(0.239756 0 -0.0626141)
(0.219055 0 -0.0568557)
(0.196569 0 -0.0507255)
(0.172195 0 -0.0442021)
(0.14583 0 -0.0372598)
(0.11737 0 -0.0298689)
(0.0867118 0 -0.0219952)
(0.375115 0 -0.102188)
(0.369437 0 -0.100554)
(0.362856 0 -0.098591)
(0.35533 0 -0.0962975)
(0.34682 0 -0.0936745)
(0.337278 0 -0.0907255)
(0.326644 0 -0.0874527)
(0.314854 0 -0.0838577)
(0.301835 0 -0.0799406)
(0.287512 0 -0.0757002)
(0.271802 0 -0.0711328)
(0.254618 0 -0.0662324)
(0.235871 0 -0.0609901)
(0.215466 0 -0.0553934)
(0.193307 0 -0.0494268)
(0.169296 0 -0.0430706)
(0.143335 0 -0.0363019)
(0.115326 0 -0.0290941)
(0.0851724 0 -0.0214171)
(0.0527878 0 -0.0132393)
(0.368349 0 -0.0984888)
(0.362841 0 -0.0969594)
(0.356462 0 -0.0951208)
(0.349138 0 -0.0929652)
(0.340814 0 -0.0904848)
(0.331468 0 -0.0876883)
(0.321038 0 -0.0845748)
(0.309459 0 -0.0811436)
(0.296661 0 -0.0773937)
(0.282572 0 -0.0733228)
(0.267111 0 -0.0689269)
(0.250196 0 -0.0641998)
(0.23174 0 -0.059133)
(0.211654 0 -0.0537152)
(0.189846 0 -0.0479321)
(0.166224 0 -0.0417662)
(0.140695 0 -0.0351971)
(0.113167 0 -0.028201)
(0.0835495 0 -0.0207515)
(0.0517623 0 -0.0128213)
(0.0176373 0 -0.00435813)
(0.361351 0 -0.0945576)
(0.356011 0 -0.0931304)
(0.349813 0 -0.0914076)
(0.342664 0 -0.0893732)
(0.334533 0 -0.0870323)
(0.325382 0 -0.084384)
(0.315156 0 -0.0814265)
(0.303792 0 -0.0781584)
(0.291222 0 -0.0745776)
(0.277376 0 -0.070681)
(0.262177 0 -0.0664643)
(0.245545 0 -0.0619215)
(0.227398 0 -0.0570443)
(0.207651 0 -0.0518224)
(0.186216 0 -0.046243)
(0.163005 0 -0.0402904)
(0.137932 0 -0.0339465)
(0.11091 0 -0.0271906)
(0.0818554 0 -0.0199997)
(0.0506934 0 -0.01235)
(0.0172685 0 -0.0041955)
(0.354215 0 -0.0903947)
(0.349021 0 -0.089058)
(0.342962 0 -0.0874347)
(0.335991 0 -0.0855198)
(0.32805 0 -0.0833122)
(0.319088 0 -0.0808079)
(0.309061 0 -0.0780039)
(0.29791 0 -0.0748988)
(0.285572 0 -0.0714897)
(0.271975 0 -0.0677729)
(0.257046 0 -0.063744)
(0.24071 0 -0.0593967)
(0.222885 0 -0.0547235)
(0.203491 0 -0.0497149)
(0.182446 0 -0.0443594)
(0.159666 0 -0.0386433)
(0.135069 0 -0.0325506)
(0.108575 0 -0.0260634)
(0.0801043 0 -0.019162)
(0.0495902 0 -0.011826)
(0.0168885 0 -0.00401515)
(0.347009 0 -0.0859791)
(0.34193 0 -0.084723)
(0.335999 0 -0.083193)
(0.329182 0 -0.0813916)
(0.321423 0 -0.0793125)
(0.312657 0 -0.076952)
(0.302817 0 -0.0742985)
(0.291877 0 -0.0713573)
(0.279769 0 -0.0681237)
(0.266425 0 -0.0645933)
(0.251772 0 -0.0607614)
(0.235738 0 -0.0566219)
(0.218246 0 -0.0521678)
(0.199217 0 -0.0473905)
(0.178575 0 -0.0422799)
(0.156239 0 -0.0368239)
(0.132133 0 -0.0310087)
(0.106181 0 -0.0248192)
(0.0783121 0 -0.0182383)
(0.0484627 0 -0.0112493)
(0.0165008 0 -0.00381714)
(0.339786 0 -0.0812712)
(0.334792 0 -0.0800864)
(0.328976 0 -0.0786511)
(0.32231 0 -0.0769639)
(0.314722 0 -0.0750141)
(0.30613 0 -0.0727897)
(0.296487 0 -0.0702935)
(0.285757 0 -0.0675208)
(0.273879 0 -0.0644686)
(0.260787 0 -0.0611328)
(0.246413 0 -0.0575085)
(0.230684 0 -0.0535902)
(0.213529 0 -0.0493714)
(0.194873 0 -0.0448445)
(0.174641 0 -0.0400005)
(0.152759 0 -0.0348291)
(0.129153 0 -0.0293187)
(0.103755 0 -0.0234562)
(0.0764968 0 -0.0172278)
(0.0473219 0 -0.0106194)
(0.0161093 0 -0.00360132)
(0.332605 0 -0.0762372)
(0.327698 0 -0.0751264)
(0.322001 0 -0.0737894)
(0.315455 0 -0.0722113)
(0.308008 0 -0.0703859)
(0.2996 0 -0.0683073)
(0.290162 0 -0.0659737)
(0.279626 0 -0.0633724)
(0.267971 0 -0.0605087)
(0.255128 0 -0.0573772)
(0.24103 0 -0.053973)
(0.225608 0 -0.050291)
(0.208792 0 -0.0463252)
(0.19051 0 -0.042069)
(0.170691 0 -0.0375148)
(0.149265 0 -0.0326538)
(0.126164 0 -0.0274763)
(0.101322 0 -0.0219717)
(0.074678 0 -0.0161284)
(0.0461801 0 -0.00993533)
(0.0157181 0 -0.00336735)
(0.325576 0 -0.0708476)
(0.320744 0 -0.0698161)
(0.315137 0 -0.0685702)
(0.308703 0 -0.0671024)
(0.301391 0 -0.0654063)
(0.29315 0 -0.063477)
(0.283888 0 -0.0613023)
(0.273556 0 -0.0588856)
(0.26212 0 -0.0562215)
(0.249521 0 -0.0533068)
(0.235695 0 -0.0501374)
(0.220575 0 -0.0467088)
(0.204093 0 -0.0430158)
(0.186182 0 -0.0390527)
(0.166774 0 -0.0348132)
(0.145802 0 -0.0302902)
(0.123201 0 -0.0254756)
(0.0989122 0 -0.0203609)
(0.0728777 0 -0.0149369)
(0.0450509 0 -0.00919513)
(0.0153317 0 -0.00311462)
(0.318775 0 -0.0650481)
(0.314002 0 -0.0640957)
(0.308473 0 -0.0629464)
(0.302139 0 -0.0615934)
(0.294948 0 -0.0600309)
(0.286846 0 -0.0582531)
(0.277772 0 -0.0562542)
(0.26765 0 -0.054034)
(0.256415 0 -0.0515796)
(0.244048 0 -0.048896)
(0.230484 0 -0.0459785)
(0.215657 0 -0.0428229)
(0.199501 0 -0.0394249)
(0.181952 0 -0.0357798)
(0.162945 0 -0.0318825)
(0.142417 0 -0.0277272)
(0.120307 0 -0.0233077)
(0.0965585 0 -0.0186172)
(0.07112 0 -0.0136489)
(0.0439492 0 -0.00839621)
(0.0149551 0 -0.00284227)
(0.312298 0 -0.0587793)
(0.307573 0 -0.0579105)
(0.302112 0 -0.0568637)
(0.295867 0 -0.0556329)
(0.288786 0 -0.0542129)
(0.280819 0 -0.052599)
(0.271911 0 -0.0507874)
(0.261968 0 -0.0487671)
(0.250939 0 -0.0465436)
(0.238796 0 -0.0441106)
(0.225481 0 -0.0414657)
(0.210934 0 -0.0386063)
(0.19509 0 -0.0355288)
(0.177888 0 -0.0322297)
(0.159266 0 -0.028705)
(0.139165 0 -0.0249503)
(0.117526 0 -0.0209609)
(0.0942974 0 -0.0167319)
(0.0694319 0 -0.0122581)
(0.0428914 0 -0.00753495)
(0.014594 0 -0.00254911)
(0.306254 0 -0.0519698)
(0.301567 0 -0.0511921)
(0.296163 0 -0.0502559)
(0.289995 0 -0.0491569)
(0.283012 0 -0.0478907)
(0.275162 0 -0.0464528)
(0.26639 0 -0.0448391)
(0.256635 0 -0.0430451)
(0.245814 0 -0.0410733)
(0.233867 0 -0.0389099)
(0.220782 0 -0.0365614)
(0.206494 0 -0.0340248)
(0.190943 0 -0.0312974)
(0.174066 0 -0.0283762)
(0.155806 0 -0.0252584)
(0.136105 0 -0.021941)
(0.114909 0 -0.0184205)
(0.0921698 0 -0.0146936)
(0.0678433 0 -0.0107566)
(0.0418959 0 -0.00660669)
(0.0142544 0 -0.0022336)
(0.300768 0 -0.0445326)
(0.296112 0 -0.0438591)
(0.290752 0 -0.0430415)
(0.284649 0 -0.042087)
(0.277753 0 -0.04099)
(0.27001 0 -0.0397463)
(0.261366 0 -0.0383529)
(0.25177 0 -0.036808)
(0.24112 0 -0.0351042)
(0.229362 0 -0.0332389)
(0.216488 0 -0.0312171)
(0.202438 0 -0.0290357)
(0.187152 0 -0.0266928)
(0.170572 0 -0.0241865)
(0.152641 0 -0.0215149)
(0.133306 0 -0.018676)
(0.112515 0 -0.0156678)
(0.0902219 0 -0.012488)
(0.0663882 0 -0.00913455)
(0.0409838 0 -0.00560563)
(0.0139434 0 -0.00189385)
(0.295983 0 -0.0363551)
(0.291339 0 -0.0357895)
(0.28601 0 -0.035113)
(0.27997 0 -0.0343247)
(0.273149 0 -0.0334183)
(0.265497 0 -0.0323913)
(0.256963 0 -0.0312416)
(0.247496 0 -0.0299674)
(0.236997 0 -0.0285605)
(0.225411 0 -0.0270323)
(0.212723 0 -0.0253745)
(0.198879 0 -0.023587)
(0.183825 0 -0.0216693)
(0.167504 0 -0.0196208)
(0.149861 0 -0.0174404)
(0.130845 0 -0.0151272)
(0.110408 0 -0.0126802)
(0.0885068 0 -0.0100981)
(0.0651057 0 -0.00737988)
(0.0401789 0 -0.00452473)
(0.0136691 0 -0.00152755)
(0.292045 0 -0.0273096)
(0.287425 0 -0.026871)
(0.282138 0 -0.0263586)
(0.276136 0 -0.0257576)
(0.269369 0 -0.0250666)
(0.261786 0 -0.0242842)
(0.253336 0 -0.0234089)
(0.243963 0 -0.0224392)
(0.233608 0 -0.021373)
(0.222182 0 -0.0202202)
(0.209631 0 -0.0189664)
(0.195952 0 -0.0176172)
(0.181085 0 -0.0161723)
(0.164975 0 -0.0146315)
(0.147568 0 -0.0129946)
(0.128814 0 -0.0112612)
(0.108667 0 -0.00943098)
(0.0870871 0 -0.00750356)
(0.0640419 0 -0.00547853)
(0.0395096 0 -0.00335575)
(0.0134408 0 -0.00113203)
(0.289177 0 -0.0172471)
(0.284571 0 -0.016966)
(0.279305 0 -0.0166329)
(0.273332 0 -0.0162451)
(0.266605 0 -0.0158007)
(0.259073 0 -0.0152987)
(0.250685 0 -0.0147384)
(0.241388 0 -0.0141196)
(0.231129 0 -0.0134426)
(0.219804 0 -0.0127062)
(0.207362 0 -0.0119081)
(0.193805 0 -0.0110516)
(0.179075 0 -0.0101364)
(0.163118 0 -0.00916251)
(0.145882 0 -0.00813)
(0.127319 0 -0.0070389)
(0.107383 0 -0.00588926)
(0.0860376 0 -0.00468109)
(0.0632527 0 -0.00341441)
(0.0390108 0 -0.00208934)
(0.0132705 0 -0.000704259)
(0.287604 0 -0.00597392)
(0.283005 0 -0.00587485)
(0.27775 0 -0.00575732)
(0.271793 0 -0.00562071)
(0.265087 0 -0.00546453)
(0.257583 0 -0.00528844)
(0.249229 0 -0.00509226)
(0.239973 0 -0.00487599)
(0.229763 0 -0.00463985)
(0.218493 0 -0.00438301)
(0.206111 0 -0.004105)
(0.192621 0 -0.00380717)
(0.177965 0 -0.00348949)
(0.162092 0 -0.00315201)
(0.144949 0 -0.00279479)
(0.126489 0 -0.00241793)
(0.106668 0 -0.00202149)
(0.0854501 0 -0.00160555)
(0.0628077 0 -0.00117017)
(0.0387263 0 -0.000715466)
(0.0131727 0 -0.000241003)
)
;

boundaryField
{
    inlet
    {
        type            cellMotion;
        value           nonuniform 0();
    }
    outlet
    {
        type            cellMotion;
        value           uniform (0 0 0);
    }
    flap
    {
        type            cellMotion;
        value           nonuniform 0();
    }
    upperWall
    {
        type            slip;
    }
    lowerWall
    {
        type            slip;
    }
    frontAndBack
    {
        type            empty;
    }
    procBoundary2to1
    {
        type            processor;
        value           nonuniform List<vector> 
17
(
(0.386594 0 -0.107078)
(0.379913 0 -0.103484)
(0.372994 0 -0.0996997)
(0.365867 0 -0.0956967)
(0.358607 0 -0.0914624)
(0.351297 0 -0.0869787)
(0.343992 0 -0.0822103)
(0.336757 0 -0.0771212)
(0.32968 0 -0.0716726)
(0.322842 0 -0.0658122)
(0.316338 0 -0.0594786)
(0.310275 0 -0.0525977)
(0.304774 0 -0.0450796)
(0.299977 0 -0.0368129)
(0.296039 0 -0.0276653)
(0.293168 0 -0.0174772)
(0.291594 0 -0.00605525)
)
;
    }
    procBoundary2to4
    {
        type            processor;
        value           nonuniform List<vector> 
11
(
(0.422733 0 -0.132426)
(0.423772 0 -0.131706)
(0.42369 0 -0.13051)
(0.422568 0 -0.128913)
(0.420494 0 -0.126981)
(0.417557 0 -0.124766)
(0.413847 0 -0.122306)
(0.409449 0 -0.119632)
(0.404439 0 -0.116758)
(0.398916 0 -0.113706)
(0.392952 0 -0.110484)
)
;
    }
    procBoundary2to5
    {
        type            processor;
        value           nonuniform List<vector> 
34
(
(0.413009 0 -0.128004)
(0.405212 0 -0.123208)
(0.398702 0 -0.118999)
(0.398702 0 -0.118999)
(0.389701 0 -0.114089)
(0.380635 0 -0.109728)
(0.380635 0 -0.109728)
(0.369849 0 -0.105146)
(0.369849 0 -0.105146)
(0.358123 0 -0.100097)
(0.344498 0 -0.0952396)
(0.344498 0 -0.0952396)
(0.330437 0 -0.0899538)
(0.313692 0 -0.084702)
(0.313692 0 -0.084702)
(0.295089 0 -0.0790917)
(0.295089 0 -0.0790917)
(0.276723 0 -0.0733138)
(0.254676 0 -0.0671148)
(0.254676 0 -0.0671148)
(0.23074 0 -0.0604841)
(0.23074 0 -0.0604841)
(0.207249 0 -0.0539099)
(0.179685 0 -0.0465373)
(0.179685 0 -0.0465373)
(0.150326 0 -0.0387271)
(0.150326 0 -0.0387271)
(0.121066 0 -0.0310578)
(0.0881587 0 -0.0224855)
(0.0881587 0 -0.0224855)
(0.053763 0 -0.0136039)
(0.053763 0 -0.0136039)
(0.0179921 0 -0.00450291)
(0.0179921 0 -0.00450291)
)
;
    }
}


// ************************************************************************* //
