/*--------------------------------*- C++ -*----------------------------------*\
| =========                 |                                                 |
| \\      /  F ield         | OpenFOAM: The Open Source CFD Toolbox           |
|  \\    /   O peration     | Version:  dev                                   |
|   \\  /    A nd           | Web:      www.OpenFOAM.org                      |
|    \\/     M anipulation  |                                                 |
\*---------------------------------------------------------------------------*/
FoamFile
{
    version     2.0;
    format      ascii;
    class       volVectorField;
    location    "1.27";
    object      cellDisplacement;
}
// * * * * * * * * * * * * * * * * * * * * * * * * * * * * * * * * * * * * * //

dimensions      [0 1 0 0 0 0 0];

internalField   nonuniform List<vector> 
2790
(
(0.0130305 0 -6.94761e-05)
(0.0371242 0 -0.000198207)
(0.0575276 0 -0.000309837)
(0.0745855 0 -0.000407472)
(0.0886738 0 -0.000493687)
(0.100106 0 -0.000571683)
(0.109171 0 -0.000640063)
(0.116126 0 -0.000700861)
(0.121184 0 -0.00075449)
(0.124529 0 -0.000801157)
(0.12632 0 -0.000841183)
(0.126698 0 -0.0008726)
(0.125788 0 -0.000895291)
(0.123699 0 -0.000908338)
(0.120531 0 -0.00091039)
(0.11637 0 -0.000899745)
(0.111298 0 -0.000874319)
(0.105391 0 -0.000831542)
(0.0987219 0 -0.000768247)
(0.0913684 0 -0.000682042)
(0.0834104 0 -0.000568368)
(0.0749313 0 -0.000422064)
(0.0660226 0 -0.000237105)
(0.0567878 0 -6.06084e-06)
(0.0473509 0 0.000280186)
(0.0378707 0 0.000633049)
(0.0285728 0 0.00106817)
(0.0198432 0 0.00161068)
(0.0124149 0 0.00229243)
(0.00823892 0 0.00303918)
(0.0130478 0 -0.000208901)
(0.037175 0 -0.000596068)
(0.0576113 0 -0.000931965)
(0.0747022 0 -0.00122591)
(0.0888288 0 -0.00148533)
(0.100298 0 -0.00171514)
(0.1094 0 -0.0019202)
(0.116401 0 -0.00210289)
(0.12151 0 -0.00226417)
(0.124911 0 -0.00240459)
(0.126767 0 -0.00252602)
(0.127216 0 -0.00262115)
(0.126387 0 -0.00269057)
(0.124391 0 -0.00273152)
(0.121328 0 -0.00274003)
(0.117289 0 -0.00271112)
(0.112356 0 -0.00263876)
(0.106611 0 -0.00251553)
(0.100123 0 -0.00233128)
(0.0929824 0 -0.00208108)
(0.0852758 0 -0.00175088)
(0.0770961 0 -0.00132601)
(0.0685517 0 -0.000789814)
(0.0597697 0 -0.000121633)
(0.0509112 0 0.000703463)
(0.0421921 0 0.00171526)
(0.0338991 0 0.00295086)
(0.0264617 0 0.00445038)
(0.0207747 0 0.00621497)
(0.0195076 0 0.00789607)
(0.0130822 0 -0.000348581)
(0.0372762 0 -0.000994773)
(0.057777 0 -0.00155568)
(0.0749322 0 -0.00204689)
(0.0891212 0 -0.00248044)
(0.100665 0 -0.0028631)
(0.109854 0 -0.00320665)
(0.116947 0 -0.0035132)
(0.122158 0 -0.00378434)
(0.125674 0 -0.00402037)
(0.127654 0 -0.00422)
(0.128245 0 -0.00438146)
(0.127579 0 -0.00450203)
(0.125768 0 -0.00457671)
(0.122915 0 -0.00459911)
(0.119117 0 -0.00456145)
(0.114461 0 -0.00445442)
(0.10904 0 -0.00426726)
(0.102927 0 -0.00398675)
(0.0962107 0 -0.0035968)
(0.0890035 0 -0.00307999)
(0.0814125 0 -0.00241483)
(0.0735766 0 -0.00157852)
(0.065657 0 -0.000542102)
(0.0578661 0 0.000727037)
(0.050518 0 0.00226118)
(0.0440927 0 0.00408144)
(0.0392224 0 0.00617273)
(0.0367061 0 0.0084537)
(0.039569 0 0.0101344)
(0.0131334 0 -0.000487744)
(0.0374266 0 -0.00139209)
(0.0580236 0 -0.00217748)
(0.0752746 0 -0.00286587)
(0.0895619 0 -0.00347421)
(0.101217 0 -0.00401487)
(0.110532 0 -0.00449927)
(0.117762 0 -0.00493233)
(0.123124 0 -0.00531654)
(0.126808 0 -0.00565198)
(0.128976 0 -0.00593465)
(0.129782 0 -0.00616861)
(0.129358 0 -0.00634807)
(0.127822 0 -0.00646613)
(0.125282 0 -0.00651447)
(0.12184 0 -0.00648304)
(0.117593 0 -0.0063599)
(0.112636 0 -0.00613125)
(0.107072 0 -0.00578427)
(0.100994 0 -0.0052932)
(0.0945256 0 -0.00463872)
(0.0877965 0 -0.00379544)
(0.0810066 0 -0.00274399)
(0.0743615 0 -0.00145451)
(0.0681318 0 0.000101502)
(0.0626955 0 0.00194412)
(0.0586482 0 0.00405224)
(0.0570611 0 0.00628727)
(0.05894 0 0.00839518)
(0.0665873 0 0.00926101)
(0.0132005 0 -0.000626256)
(0.0376241 0 -0.00178771)
(0.0583486 0 -0.002797)
(0.0757266 0 -0.00368268)
(0.0901455 0 -0.00446632)
(0.101947 0 -0.00516521)
(0.111424 0 -0.0057921)
(0.118833 0 -0.00635406)
(0.124394 0 -0.00685478)
(0.1283 0 -0.007295)
(0.13072 0 -0.00767278)
(0.131807 0 -0.0079875)
(0.131702 0 -0.00823612)
(0.130527 0 -0.00841027)
(0.128398 0 -0.00850047)
(0.125424 0 -0.00849525)
(0.121711 0 -0.00838091)
(0.11736 0 -0.00814016)
(0.112499 0 -0.00776203)
(0.107248 0 -0.00722188)
(0.101752 0 -0.00649913)
(0.0961627 0 -0.00556735)
(0.0907036 0 -0.00440712)
(0.0856592 0 -0.00300287)
(0.0813922 0 -0.00134844)
(0.0784284 0 0.000528577)
(0.0773698 0 0.00256773)
(0.0793389 0 0.00452651)
(0.0860744 0 0.00583441)
(0.0991483 0 0.00523367)
(0.0132826 0 -0.000763969)
(0.0378665 0 -0.00218126)
(0.0587493 0 -0.00341377)
(0.0762845 0 -0.00449704)
(0.0908656 0 -0.00545643)
(0.102847 0 -0.0063145)
(0.112523 0 -0.00708601)
(0.120152 0 -0.00778007)
(0.125957 0 -0.00840176)
(0.130136 0 -0.00895286)
(0.132863 0 -0.00943235)
(0.134294 0 -0.00983646)
(0.134579 0 -0.0101669)
(0.133846 0 -0.0104129)
(0.13222 0 -0.010565)
(0.129819 0 -0.0106115)
(0.126765 0 -0.0105392)
(0.123173 0 -0.0103327)
(0.119172 0 -0.00997376)
(0.114916 0 -0.00944417)
(0.11058 0 -0.00872779)
(0.106357 0 -0.00780444)
(0.102521 0 -0.00666768)
(0.0993972 0 -0.00531624)
(0.097418 0 -0.00377073)
(0.0971869 0 -0.00210598)
(0.0996332 0 -0.000513815)
(0.105624 0 0.000721186)
(0.117337 0 0.000755757)
(0.136272 0 -0.00186968)
(0.0133796 0 -0.000901395)
(0.0381526 0 -0.00257424)
(0.0592249 0 -0.00403019)
(0.0769437 0 -0.00530861)
(0.0917148 0 -0.00644407)
(0.103909 0 -0.00746276)
(0.113819 0 -0.00838149)
(0.121706 0 -0.00921148)
(0.127799 0 -0.00995944)
(0.1323 0 -0.0106285)
(0.135388 0 -0.0112191)
(0.137233 0 -0.0117308)
(0.137979 0 -0.0121585)
(0.137765 0 -0.0124944)
(0.136726 0 -0.0127308)
(0.134993 0 -0.0128568)
(0.132698 0 -0.0128601)
(0.12999 0 -0.0127315)
(0.126995 0 -0.0124476)
(0.123886 0 -0.0119959)
(0.120901 0 -0.0113755)
(0.118251 0 -0.0105715)
(0.116243 0 -0.00958993)
(0.115278 0 -0.00845915)
(0.115925 0 -0.00725645)
(0.118781 0 -0.00609027)
(0.124851 0 -0.00523932)
(0.135469 0 -0.00519317)
(0.152212 0 -0.00682679)
(0.177158 0 -0.0119465)
(0.0134911 0 -0.00103832)
(0.0384793 0 -0.00296601)
(0.0597539 0 -0.00464446)
(0.0776849 0 -0.00611877)
(0.0926885 0 -0.00743279)
(0.105128 0 -0.00861462)
(0.115307 0 -0.00968413)
(0.123491 0 -0.0106548)
(0.129913 0 -0.0115353)
(0.13478 0 -0.0123303)
(0.138282 0 -0.013042)
(0.140596 0 -0.0136738)
(0.141863 0 -0.0142138)
(0.142234 0 -0.0146583)
(0.14186 0 -0.0150034)
(0.140881 0 -0.0152389)
(0.139435 0 -0.0153528)
(0.137702 0 -0.0153437)
(0.135842 0 -0.0151973)
(0.134044 0 -0.0149052)
(0.132554 0 -0.0144701)
(0.131651 0 -0.0138998)
(0.131692 0 -0.0132242)
(0.133118 0 -0.0124957)
(0.136513 0 -0.011822)
(0.142767 0 -0.0114373)
(0.152725 0 -0.0116378)
(0.168119 0 -0.0131321)
(0.190147 0 -0.0168393)
(0.221082 0 -0.0248117)
(0.0136149 0 -0.00117379)
(0.0388431 0 -0.00335402)
(0.0603468 0 -0.00525407)
(0.0785172 0 -0.006927)
(0.0937787 0 -0.00842103)
(0.106494 0 -0.0097684)
(0.116973 0 -0.0109922)
(0.125487 0 -0.0121084)
(0.132275 0 -0.0131276)
(0.137551 0 -0.0140564)
(0.141509 0 -0.0148979)
(0.14433 0 -0.015656)
(0.146172 0 -0.0163241)
(0.147185 0 -0.0168965)
(0.147545 0 -0.0173772)
(0.1474 0 -0.0177568)
(0.146912 0 -0.0180304)
(0.14625 0 -0.0181916)
(0.145621 0 -0.0182418)
(0.14524 0 -0.0181817)
(0.145383 0 -0.0180285)
(0.146365 0 -0.0178061)
(0.148587 0 -0.0175689)
(0.152593 0 -0.0174225)
(0.158992 0 -0.0175086)
(0.168677 0 -0.0181075)
(0.182868 0 -0.019691)
(0.202937 0 -0.0229701)
(0.230642 0 -0.0291515)
(0.267453 0 -0.0402345)
(0.0137499 0 -0.00130757)
(0.0392413 0 -0.00373772)
(0.0609975 0 -0.00585796)
(0.0794286 0 -0.00772816)
(0.094971 0 -0.00940257)
(0.107987 0 -0.010917)
(0.118794 0 -0.0122978)
(0.127669 0 -0.0135637)
(0.134856 0 -0.0147277)
(0.140576 0 -0.0157982)
(0.145026 0 -0.0167785)
(0.148402 0 -0.0176781)
(0.150868 0 -0.0184926)
(0.152595 0 -0.019222)
(0.153749 0 -0.0198654)
(0.154497 0 -0.0204204)
(0.155035 0 -0.0208929)
(0.155516 0 -0.0212713)
(0.156204 0 -0.0215793)
(0.157337 0 -0.0218283)
(0.159197 0 -0.0220423)
(0.162166 0 -0.0222774)
(0.166685 0 -0.0226156)
(0.173355 0 -0.0231995)
(0.182908 0 -0.0242453)
(0.196231 0 -0.0260739)
(0.214697 0 -0.0292725)
(0.239649 0 -0.0346399)
(0.273291 0 -0.0436357)
(0.31576 0 -0.0580006)
(0.0138947 0 -0.00143939)
(0.0396713 0 -0.00411647)
(0.0616997 0 -0.00645515)
(0.0804097 0 -0.00852092)
(0.0962555 0 -0.0103761)
(0.109596 0 -0.0120589)
(0.120756 0 -0.0135996)
(0.130018 0 -0.0150196)
(0.137634 0 -0.0163344)
(0.143829 0 -0.0175553)
(0.148818 0 -0.0186915)
(0.152791 0 -0.0197473)
(0.155924 0 -0.0207255)
(0.158405 0 -0.0216315)
(0.160397 0 -0.0224616)
(0.16208 0 -0.0232194)
(0.163679 0 -0.0239229)
(0.165389 0 -0.0245764)
(0.167451 0 -0.0251985)
(0.170164 0 -0.0258269)
(0.173797 0 -0.0264904)
(0.178812 0 -0.0272822)
(0.185674 0 -0.0283081)
(0.195106 0 -0.0297783)
(0.207825 0 -0.0319352)
(0.224934 0 -0.0352176)
(0.247688 0 -0.0402383)
(0.277944 0 -0.0480487)
(0.317742 0 -0.0601804)
(0.365471 0 -0.0778871)
(0.0140492 0 -0.00156966)
(0.0401334 0 -0.00449145)
(0.0624474 0 -0.00704472)
(0.0814561 0 -0.00930752)
(0.097629 0 -0.0113447)
(0.111315 0 -0.0131979)
(0.122851 0 -0.0149016)
(0.132525 0 -0.0164801)
(0.140596 0 -0.0179519)
(0.1473 0 -0.0193322)
(0.152856 0 -0.020634)
(0.15745 0 -0.021857)
(0.161278 0 -0.0230129)
(0.164525 0 -0.0241055)
(0.167392 0 -0.0251479)
(0.170071 0 -0.0261477)
(0.172774 0 -0.0271197)
(0.175745 0 -0.0280894)
(0.179199 0 -0.0290716)
(0.183497 0 -0.0301326)
(0.188964 0 -0.0313292)
(0.196062 0 -0.03277)
(0.205327 0 -0.0346029)
(0.217459 0 -0.0370551)
(0.233405 0 -0.0404874)
(0.254233 0 -0.04537)
(0.281527 0 -0.0524902)
(0.317531 0 -0.0631268)
(0.363714 0 -0.0787298)
(0.416054 0 -0.0996935)
(0.0142107 0 -0.00169788)
(0.0406047 0 -0.00485968)
(0.0632368 0 -0.00762745)
(0.0825747 0 -0.010088)
(0.0990798 0 -0.0123061)
(0.113129 0 -0.0143307)
(0.12506 0 -0.0162)
(0.135167 0 -0.0179409)
(0.143713 0 -0.0195745)
(0.150944 0 -0.0211202)
(0.157078 0 -0.0225902)
(0.162312 0 -0.0239906)
(0.166861 0 -0.0253398)
(0.170922 0 -0.0266472)
(0.174691 0 -0.0279247)
(0.178382 0 -0.0291905)
(0.182193 0 -0.0304569)
(0.186412 0 -0.0317704)
(0.191299 0 -0.0331672)
(0.197196 0 -0.0347161)
(0.204476 0 -0.0365022)
(0.213632 0 -0.0386604)
(0.225255 0 -0.0413791)
(0.24008 0 -0.0449269)
(0.259107 0 -0.0497166)
(0.283641 0 -0.0563565)
(0.315607 0 -0.0658151)
(0.357231 0 -0.079454)
(0.409476 0 -0.0986404)
(0.465623 0 -0.12266)
(0.0143773 0 -0.00182308)
(0.0410969 0 -0.00522045)
(0.0640597 0 -0.0082009)
(0.0837338 0 -0.0108544)
(0.100587 0 -0.0132522)
(0.115012 0 -0.0154481)
(0.127355 0 -0.0174846)
(0.137908 0 -0.0193908)
(0.146944 0 -0.0211895)
(0.154719 0 -0.0229069)
(0.161449 0 -0.0245552)
(0.167355 0 -0.0261502)
(0.172647 0 -0.0277076)
(0.177532 0 -0.029244)
(0.182204 0 -0.0307713)
(0.186883 0 -0.0323139)
(0.191834 0 -0.0339122)
(0.197303 0 -0.035602)
(0.203591 0 -0.0374426)
(0.211053 0 -0.0395174)
(0.220096 0 -0.0419353)
(0.231231 0 -0.044856)
(0.24508 0 -0.0485013)
(0.262449 0 -0.0531952)
(0.284361 0 -0.0593986)
(0.312358 0 -0.0678546)
(0.348436 0 -0.0796395)
(0.394766 0 -0.0961769)
(0.451812 0 -0.118677)
(0.510878 0 -0.145466)
(0.0145481 0 -0.00194494)
(0.0416046 0 -0.00557256)
(0.0649058 0 -0.00876091)
(0.0849256 0 -0.0116046)
(0.102137 0 -0.0141807)
(0.11695 0 -0.0165471)
(0.129717 0 -0.0187522)
(0.140729 0 -0.0208262)
(0.150277 0 -0.0227996)
(0.158611 0 -0.0246949)
(0.165954 0 -0.02653)
(0.172539 0 -0.028327)
(0.178568 0 -0.0300991)
(0.184254 0 -0.031867)
(0.189827 0 -0.0336597)
(0.195519 0 -0.035508)
(0.201593 0 -0.0374571)
(0.208267 0 -0.0395389)
(0.215915 0 -0.041847)
(0.224882 0 -0.0444715)
(0.235584 0 -0.0475396)
(0.248557 0 -0.0512378)
(0.264445 0 -0.0558195)
(0.284051 0 -0.0616387)
(0.308492 0 -0.0692312)
(0.339234 0 -0.0793717)
(0.378242 0 -0.0932128)
(0.427477 0 -0.112225)
(0.486454 0 -0.137261)
(0.547921 0 -0.166842)
(0.0130178 0 -0.00430377)
(0.0308676 0 -0.00557013)
(0.0730282 0 -0.00736445)
(0.144629 0 -0.00965049)
(0.228289 0 -0.0114815)
(0.29772 0 -0.0122684)
(0.345337 0 -0.0124024)
(0.376241 0 -0.0121275)
(0.396146 0 -0.011591)
(0.408763 0 -0.0109564)
(0.41626 0 -0.0102709)
(0.41985 0 -0.00958242)
(0.420198 0 -0.00891071)
(0.417695 0 -0.00826565)
(0.412566 0 -0.0076517)
(0.404941 0 -0.00706988)
(0.394879 0 -0.0065191)
(0.382399 0 -0.00599697)
(0.367485 0 -0.00549997)
(0.350098 0 -0.00502411)
(0.330182 0 -0.00456512)
(0.307671 0 -0.00411847)
(0.282487 0 -0.00367931)
(0.254549 0 -0.00324247)
(0.223771 0 -0.00280233)
(0.190063 0 -0.00235273)
(0.153337 0 -0.00188678)
(0.113505 0 -0.0013966)
(0.0705005 0 -0.000873213)
(0.0240721 0 -0.00030337)
(0.0216196 0 -0.0130621)
(0.0411187 0 -0.0167985)
(0.0844308 0 -0.0221675)
(0.155628 0 -0.0287168)
(0.2368 0 -0.0338401)
(0.303465 0 -0.0361055)
(0.349194 0 -0.0364456)
(0.378927 0 -0.0356122)
(0.398114 0 -0.0341039)
(0.410267 0 -0.0322229)
(0.41745 0 -0.0302395)
(0.420812 0 -0.028244)
(0.420988 0 -0.0262926)
(0.418348 0 -0.0244145)
(0.41311 0 -0.0226231)
(0.405396 0 -0.0209219)
(0.395262 0 -0.0193083)
(0.382722 0 -0.0177756)
(0.367758 0 -0.016314)
(0.35033 0 -0.014912)
(0.33038 0 -0.0135574)
(0.30784 0 -0.0122372)
(0.282633 0 -0.0109372)
(0.254675 0 -0.00964238)
(0.22388 0 -0.00833625)
(0.190157 0 -0.0070007)
(0.153417 0 -0.0056154)
(0.11357 0 -0.00415708)
(0.0705462 0 -0.00259931)
(0.0240918 0 -0.000902991)
(0.0377939 0 -0.0222588)
(0.0602763 0 -0.0284514)
(0.105745 0 -0.0373892)
(0.176154 0 -0.0476627)
(0.252815 0 -0.0552847)
(0.31445 0 -0.0586523)
(0.356637 0 -0.0590204)
(0.384163 0 -0.0575853)
(0.401965 0 -0.0551892)
(0.413215 0 -0.0522003)
(0.419786 0 -0.0490566)
(0.4227 0 -0.0458877)
(0.422532 0 -0.0427802)
(0.419622 0 -0.0397805)
(0.414168 0 -0.0369113)
(0.406277 0 -0.0341786)
(0.395999 0 -0.0315792)
(0.383341 0 -0.029104)
(0.36828 0 -0.0267371)
(0.350771 0 -0.0244608)
(0.330754 0 -0.0222562)
(0.308158 0 -0.0201027)
(0.282905 0 -0.017978)
(0.254908 0 -0.0158578)
(0.22408 0 -0.0137156)
(0.190327 0 -0.0115221)
(0.15356 0 -0.00924439)
(0.113684 0 -0.00684459)
(0.0706271 0 -0.00427981)
(0.0241254 0 -0.00148651)
(0.0604769 0 -0.0324871)
(0.0867662 0 -0.0411622)
(0.135157 0 -0.0536048)
(0.204256 0 -0.0670138)
(0.274689 0 -0.0761843)
(0.329691 0 -0.0800539)
(0.367143 0 -0.0801887)
(0.391667 0 -0.0781296)
(0.407531 0 -0.0748097)
(0.417509 0 -0.070864)
(0.423193 0 -0.0666878)
(0.425449 0 -0.062471)
(0.424775 0 -0.0583261)
(0.421467 0 -0.0543145)
(0.415693 0 -0.0504669)
(0.407544 0 -0.0467914)
(0.397053 0 -0.0432849)
(0.384221 0 -0.0399376)
(0.369017 0 -0.0367269)
(0.351389 0 -0.0336306)
(0.331274 0 -0.030624)
(0.308597 0 -0.0276803)
(0.283276 0 -0.0247696)
(0.255223 0 -0.0218594)
(0.224347 0 -0.018914)
(0.190553 0 -0.0158938)
(0.153747 0 -0.0127541)
(0.113831 0 -0.00944372)
(0.0707283 0 -0.00590443)
(0.0241663 0 -0.00205004)
(0.0886487 0 -0.0441988)
(0.119317 0 -0.0554825)
(0.170953 0 -0.0712384)
(0.237704 0 -0.0868327)
(0.300587 0 -0.0965689)
(0.348025 0 -0.100302)
(0.380041 0 -0.0999099)
(0.401025 0 -0.0971586)
(0.414562 0 -0.0929831)
(0.422982 0 -0.0881628)
(0.427548 0 -0.0830732)
(0.428964 0 -0.0779321)
(0.42764 0 -0.07287)
(0.423817 0 -0.0679581)
(0.417631 0 -0.0632352)
(0.409146 0 -0.0587087)
(0.39838 0 -0.0543764)
(0.385322 0 -0.0502317)
(0.369934 0 -0.046242)
(0.352154 0 -0.0423826)
(0.331912 0 -0.038625)
(0.30913 0 -0.0349368)
(0.283723 0 -0.0312816)
(0.255598 0 -0.0276198)
(0.224661 0 -0.0239071)
(0.190815 0 -0.0200947)
(0.153961 0 -0.0161271)
(0.113998 0 -0.0119409)
(0.0708409 0 -0.00746427)
(0.024211 0 -0.00259034)
(0.121499 0 -0.0576781)
(0.156857 0 -0.0716925)
(0.211514 0 -0.0904066)
(0.274372 0 -0.106945)
(0.328825 0 -0.116313)
(0.368298 0 -0.119333)
(0.394614 0 -0.118195)
(0.41176 0 -0.114599)
(0.422764 0 -0.109664)
(0.429422 0 -0.104061)
(0.432694 0 -0.0981733)
(0.433124 0 -0.0922288)
(0.43103 0 -0.0863689)
(0.426593 0 -0.0806683)
(0.419914 0 -0.0751749)
(0.411027 0 -0.0698903)
(0.399928 0 -0.0648143)
(0.386602 0 -0.0599527)
(0.370993 0 -0.0552498)
(0.35303 0 -0.0506859)
(0.332637 0 -0.04623)
(0.30973 0 -0.041845)
(0.284219 0 -0.0374892)
(0.25601 0 -0.0331161)
(0.225002 0 -0.0286745)
(0.191095 0 -0.0241068)
(0.154187 0 -0.0193483)
(0.114172 0 -0.0143247)
(0.0709583 0 -0.00895187)
(0.0242586 0 -0.0031048)
(0.158357 0 -0.0730364)
(0.198502 0 -0.0898759)
(0.255192 0 -0.110862)
(0.312453 0 -0.127069)
(0.357927 0 -0.135192)
(0.389467 0 -0.13702)
(0.410112 0 -0.134927)
(0.423415 0 -0.130492)
(0.431813 0 -0.124836)
(0.436591 0 -0.118539)
(0.438451 0 -0.111965)
(0.437787 0 -0.105334)
(0.434831 0 -0.0987949)
(0.429701 0 -0.092415)
(0.422465 0 -0.0862603)
(0.413122 0 -0.0803093)
(0.40164 0 -0.0745659)
(0.388 0 -0.0690314)
(0.372145 0 -0.0636812)
(0.353973 0 -0.058474)
(0.333408 0 -0.0533764)
(0.31036 0 -0.048347)
(0.284733 0 -0.0433391)
(0.256428 0 -0.0383007)
(0.225342 0 -0.033174)
(0.191369 0 -0.0278943)
(0.154404 0 -0.0223885)
(0.114334 0 -0.0165727)
(0.0710644 0 -0.0103528)
(0.0242989 0 -0.00358781)
(0.198636 0 -0.0903014)
(0.24351 0 -0.109996)
(0.300323 0 -0.132088)
(0.350338 0 -0.14672)
(0.386663 0 -0.15291)
(0.410611 0 -0.153214)
(0.425883 0 -0.150008)
(0.435558 0 -0.144799)
(0.44138 0 -0.138489)
(0.444238 0 -0.131589)
(0.444622 0 -0.124439)
(0.442797 0 -0.117236)
(0.43892 0 -0.110138)
(0.433039 0 -0.103179)
(0.425187 0 -0.0964254)
(0.415351 0 -0.0898963)
(0.403469 0 -0.0835748)
(0.389489 0 -0.0774431)
(0.373348 0 -0.0715074)
(0.354946 0 -0.0657197)
(0.334192 0 -0.0600389)
(0.31099 0 -0.0544194)
(0.285237 0 -0.0488102)
(0.256829 0 -0.0431545)
(0.225659 0 -0.037389)
(0.191618 0 -0.0314429)
(0.154593 0 -0.025236)
(0.114471 0 -0.0186764)
(0.0711497 0 -0.0116616)
(0.0243282 0 -0.00403754)
(0.241881 0 -0.109489)
(0.291196 0 -0.131889)
(0.345338 0 -0.153431)
(0.386683 0 -0.165358)
(0.414043 0 -0.169146)
(0.431006 0 -0.167748)
(0.441477 0 -0.163461)
(0.447801 0 -0.157513)
(0.451149 0 -0.150621)
(0.452108 0 -0.143214)
(0.45101 0 -0.135605)
(0.447992 0 -0.127932)
(0.443146 0 -0.120344)
(0.436492 0 -0.112914)
(0.428 0 -0.105657)
(0.417637 0 -0.0986287)
(0.405329 0 -0.0918121)
(0.390998 0 -0.0851894)
(0.374559 0 -0.0787454)
(0.355914 0 -0.0724417)
(0.33496 0 -0.0662355)
(0.311595 0 -0.0600787)
(0.285709 0 -0.0539172)
(0.257195 0 -0.0476903)
(0.22594 0 -0.0413305)
(0.19183 0 -0.0347618)
(0.15475 0 -0.0278983)
(0.114581 0 -0.0206416)
(0.0712164 0 -0.0128824)
(0.0243515 0 -0.00445607)
(0.287792 0 -0.130592)
(0.340223 0 -0.15492)
(0.388631 0 -0.174066)
(0.42038 0 -0.182429)
(0.439273 0 -0.183556)
(0.450186 0 -0.18052)
(0.456505 0 -0.175239)
(0.459791 0 -0.168621)
(0.460828 0 -0.161246)
(0.459956 0 -0.153426)
(0.457381 0 -0.145422)
(0.453187 0 -0.137393)
(0.447375 0 -0.129417)
(0.439937 0 -0.121602)
(0.430807 0 -0.113968)
(0.419913 0 -0.10654)
(0.407166 0 -0.0993123)
(0.392472 0 -0.0922684)
(0.375731 0 -0.0853862)
(0.356836 0 -0.0786296)
(0.335677 0 -0.0719556)
(0.312144 0 -0.0653145)
(0.286125 0 -0.05865)
(0.257503 0 -0.0518989)
(0.226164 0 -0.0449901)
(0.19199 0 -0.0378438)
(0.15486 0 -0.0303695)
(0.114652 0 -0.0224639)
(0.0712573 0 -0.0140124)
(0.024365 0 -0.00484225)
(0.336188 0 -0.153549)
(0.389047 0 -0.178181)
(0.428712 0 -0.193102)
(0.450547 0 -0.19741)
(0.461976 0 -0.195941)
(0.467899 0 -0.191461)
(0.470657 0 -0.185307)
(0.47122 0 -0.178115)
(0.470092 0 -0.170322)
(0.467504 0 -0.162201)
(0.46353 0 -0.153907)
(0.458205 0 -0.14561)
(0.451477 0 -0.137383)
(0.443279 0 -0.129294)
(0.43352 0 -0.121372)
(0.422102 0 -0.113634)
(0.408918 0 -0.106075)
(0.393861 0 -0.0986816)
(0.376817 0 -0.091428)
(0.357671 0 -0.08428)
(0.336308 0 -0.0771946)
(0.312609 0 -0.0701215)
(0.286457 0 -0.0630032)
(0.257732 0 -0.0557748)
(0.226314 0 -0.0483628)
(0.192082 0 -0.0406843)
(0.154912 0 -0.0326459)
(0.114677 0 -0.0241405)
(0.0712667 0 -0.0150501)
(0.0243665 0 -0.00519558)
(0.386468 0 -0.177974)
(0.436066 0 -0.200593)
(0.46425 0 -0.209655)
(0.476733 0 -0.209898)
(0.482148 0 -0.206222)
(0.483948 0 -0.200488)
(0.483587 0 -0.193573)
(0.481732 0 -0.185946)
(0.47866 0 -0.177859)
(0.474513 0 -0.169535)
(0.469283 0 -0.161097)
(0.46292 0 -0.152654)
(0.455331 0 -0.144276)
(0.446414 0 -0.136012)
(0.436053 0 -0.127891)
(0.42413 0 -0.119925)
(0.410524 0 -0.112111)
(0.395112 0 -0.104436)
(0.377773 0 -0.0968748)
(0.358384 0 -0.0893944)
(0.336821 0 -0.0819523)
(0.312962 0 -0.0744984)
(0.286683 0 -0.0669749)
(0.257861 0 -0.0593157)
(0.226373 0 -0.051446)
(0.192092 0 -0.0432814)
(0.154894 0 -0.0347258)
(0.114648 0 -0.0256703)
(0.0712397 0 -0.0159948)
(0.0243543 0 -0.00551599)
(0.438115 0 -0.203323)
(0.478948 0 -0.220563)
(0.494135 0 -0.222858)
(0.499111 0 -0.219698)
(0.49966 0 -0.214159)
(0.497978 0 -0.207429)
(0.494957 0 -0.199979)
(0.491028 0 -0.192078)
(0.486316 0 -0.183879)
(0.480828 0 -0.175504)
(0.47449 0 -0.167041)
(0.467198 0 -0.158566)
(0.458828 0 -0.150134)
(0.44925 0 -0.141787)
(0.43833 0 -0.133549)
(0.425933 0 -0.125432)
(0.411926 0 -0.117435)
(0.396179 0 -0.109543)
(0.378559 0 -0.101735)
(0.358937 0 -0.0939789)
(0.337185 0 -0.0862328)
(0.313175 0 -0.0784477)
(0.28678 0 -0.0705662)
(0.257872 0 -0.0625221)
(0.226324 0 -0.0542402)
(0.192009 0 -0.0456349)
(0.154797 0 -0.0366095)
(0.114557 0 -0.0270536)
(0.0711721 0 -0.0168469)
(0.0243271 0 -0.00580372)
(0.48853 0 -0.227585)
(0.514141 0 -0.235729)
(0.518592 0 -0.232214)
(0.517581 0 -0.226296)
(0.514158 0 -0.219452)
(0.509636 0 -0.212136)
(0.504515 0 -0.204487)
(0.498942 0 -0.196572)
(0.492899 0 -0.188445)
(0.4863 0 -0.180169)
(0.479024 0 -0.171801)
(0.470931 0 -0.163398)
(0.461874 0 -0.155005)
(0.451706 0 -0.146659)
(0.440279 0 -0.138381)
(0.42745 0 -0.130185)
(0.413075 0 -0.122068)
(0.397017 0 -0.114021)
(0.379136 0 -0.106023)
(0.3593 0 -0.0980437)
(0.337374 0 -0.0900435)
(0.313227 0 -0.0819749)
(0.286729 0 -0.0737814)
(0.257748 0 -0.0653973)
(0.226155 0 -0.0567477)
(0.19182 0 -0.047747)
(0.154612 0 -0.0382985)
(0.114398 0 -0.0282919)
(0.0710607 0 -0.0176075)
(0.0242838 0 -0.00605931)
(0.530012 0 -0.245572)
(0.542223 0 -0.244612)
(0.537555 0 -0.23637)
(0.531644 0 -0.228978)
(0.525249 0 -0.221812)
(0.518727 0 -0.214583)
(0.512113 0 -0.207158)
(0.505338 0 -0.199506)
(0.498286 0 -0.191642)
(0.490819 0 -0.183609)
(0.482785 0 -0.17545)
(0.474028 0 -0.167214)
(0.464389 0 -0.158944)
(0.453712 0 -0.150674)
(0.441843 0 -0.142425)
(0.42863 0 -0.134212)
(0.413926 0 -0.126037)
(0.397588 0 -0.11789)
(0.379473 0 -0.109754)
(0.359444 0 -0.101601)
(0.337363 0 -0.0933946)
(0.313097 0 -0.0850881)
(0.286512 0 -0.0766267)
(0.257474 0 -0.0679463)
(0.225853 0 -0.0589726)
(0.191517 0 -0.0496211)
(0.154333 0 -0.0397957)
(0.114167 0 -0.0293875)
(0.0709021 0 -0.0182783)
(0.0242231 0 -0.00628339)
(0.0147242 0 -0.00206511)
(0.0421306 0 -0.00592067)
(0.0657846 0 -0.00931643)
(0.0861645 0 -0.0123508)
(0.10375 0 -0.0151065)
(0.118974 0 -0.0176498)
(0.132188 0 -0.0200284)
(0.143685 0 -0.0222773)
(0.153761 0 -0.0244312)
(0.162661 0 -0.0265093)
(0.170626 0 -0.0285383)
(0.177884 0 -0.0305393)
(0.184663 0 -0.0325387)
(0.191183 0 -0.0345619)
(0.197666 0 -0.036637)
(0.204355 0 -0.038804)
(0.211505 0 -0.0411109)
(0.219389 0 -0.0436158)
(0.228352 0 -0.0464104)
(0.238738 0 -0.0495974)
(0.250988 0 -0.0533266)
(0.265638 0 -0.0578029)
(0.283306 0 -0.0632948)
(0.304807 0 -0.0701921)
(0.331153 0 -0.0790331)
(0.36371 0 -0.0906173)
(0.40408 0 -0.10607)
(0.453214 0 -0.126671)
(0.508994 0 -0.153332)
(0.562046 0 -0.185534)
(0.0149084 0 -0.00218509)
(0.0426803 0 -0.00626861)
(0.0667025 0 -0.00987258)
(0.087465 0 -0.0131012)
(0.105457 0 -0.0160422)
(0.12111 0 -0.0187665)
(0.134778 0 -0.0213213)
(0.146774 0 -0.0237496)
(0.157385 0 -0.0260849)
(0.166865 0 -0.0283526)
(0.175471 0 -0.0305855)
(0.183437 0 -0.0328101)
(0.190985 0 -0.0350517)
(0.198345 0 -0.0373436)
(0.20572 0 -0.0397098)
(0.213399 0 -0.0422125)
(0.221614 0 -0.0448962)
(0.230649 0 -0.047832)
(0.240851 0 -0.0511205)
(0.252563 0 -0.0548754)
(0.266204 0 -0.0592541)
(0.282301 0 -0.0644769)
(0.301433 0 -0.0708192)
(0.324314 0 -0.0786608)
(0.351867 0 -0.0885464)
(0.38509 0 -0.101176)
(0.424752 0 -0.117388)
(0.470364 0 -0.137838)
(0.51783 0 -0.161925)
(0.556735 0 -0.185412)
(0.0150983 0 -0.00230345)
(0.0432466 0 -0.00661238)
(0.0676463 0 -0.0104224)
(0.0888037 0 -0.0138447)
(0.107216 0 -0.0169726)
(0.123303 0 -0.0198752)
(0.137437 0 -0.0226076)
(0.149945 0 -0.0252187)
(0.1611 0 -0.0277408)
(0.171186 0 -0.03021)
(0.180448 0 -0.0326562)
(0.189123 0 -0.0351114)
(0.197419 0 -0.0375969)
(0.205588 0 -0.0401578)
(0.213862 0 -0.042833)
(0.222504 0 -0.0456802)
(0.231711 0 -0.0487372)
(0.241827 0 -0.0521043)
(0.253163 0 -0.0558786)
(0.266028 0 -0.0601727)
(0.280846 0 -0.0651579)
(0.298113 0 -0.0710613)
(0.318276 0 -0.0781253)
(0.342011 0 -0.086738)
(0.369889 0 -0.0973231)
(0.402423 0 -0.110402)
(0.439523 0 -0.126405)
(0.479581 0 -0.145304)
(0.517896 0 -0.165628)
(0.547609 0 -0.184373)
(0.0152895 0 -0.00241844)
(0.0438199 0 -0.00694745)
(0.0686029 0 -0.0109597)
(0.0901611 0 -0.0145722)
(0.109004 0 -0.0178857)
(0.125537 0 -0.0209692)
(0.140156 0 -0.0238849)
(0.153189 0 -0.0266824)
(0.164905 0 -0.029397)
(0.175597 0 -0.0320707)
(0.185495 0 -0.0347285)
(0.194855 0 -0.0374115)
(0.203904 0 -0.0401522)
(0.212871 0 -0.0429896)
(0.221994 0 -0.0459701)
(0.231513 0 -0.0491479)
(0.24167 0 -0.0525834)
(0.252761 0 -0.0563662)
(0.265078 0 -0.0605958)
(0.278918 0 -0.0653889)
(0.2947 0 -0.0709282)
(0.312757 0 -0.0773881)
(0.333537 0 -0.085028)
(0.357435 0 -0.0941314)
(0.384727 0 -0.105003)
(0.415505 0 -0.117963)
(0.449019 0 -0.133068)
(0.483106 0 -0.149784)
(0.513913 0 -0.16664)
(0.53743 0 -0.181846)
(0.01548 0 -0.00252913)
(0.0443954 0 -0.00727135)
(0.069563 0 -0.0114804)
(0.0915342 0 -0.0152825)
(0.110818 0 -0.0187799)
(0.127818 0 -0.0220463)
(0.142932 0 -0.0251472)
(0.156476 0 -0.0281283)
(0.168746 0 -0.0310338)
(0.180025 0 -0.0339073)
(0.190568 0 -0.0367844)
(0.200613 0 -0.0397014)
(0.210386 0 -0.042696)
(0.220093 0 -0.0458001)
(0.230012 0 -0.04908)
(0.24036 0 -0.0525857)
(0.251359 0 -0.0563774)
(0.263298 0 -0.060548)
(0.276441 0 -0.0651943)
(0.291066 0 -0.0704333)
(0.307494 0 -0.076419)
(0.325999 0 -0.083311)
(0.346886 0 -0.0913152)
(0.370331 0 -0.100626)
(0.396417 0 -0.111453)
(0.424786 0 -0.12387)
(0.45432 0 -0.137655)
(0.482928 0 -0.152102)
(0.508024 0 -0.166136)
(0.527301 0 -0.178696)
(0.0156703 0 -0.00263526)
(0.0449738 0 -0.00758317)
(0.0705492 0 -0.0119866)
(0.0929345 0 -0.0159736)
(0.112644 0 -0.0196483)
(0.130102 0 -0.0230917)
(0.145698 0 -0.0263704)
(0.159758 0 -0.029536)
(0.172588 0 -0.0326364)
(0.184463 0 -0.0357136)
(0.19563 0 -0.0388072)
(0.206313 0 -0.0419482)
(0.216755 0 -0.0451839)
(0.227181 0 -0.048557)
(0.237836 0 -0.0521254)
(0.248911 0 -0.0559351)
(0.260646 0 -0.0600572)
(0.273289 0 -0.0645753)
(0.287074 0 -0.0695811)
(0.30224 0 -0.0751821)
(0.319018 0 -0.0815016)
(0.337611 0 -0.0886747)
(0.358162 0 -0.0968383)
(0.380763 0 -0.106144)
(0.405149 0 -0.11662)
(0.430738 0 -0.128184)
(0.456391 0 -0.140492)
(0.480457 0 -0.152916)
(0.501294 0 -0.164739)
(0.517538 0 -0.175275)
(0.0158564 0 -0.00273537)
(0.0455434 0 -0.00787872)
(0.0715213 0 -0.0124678)
(0.0943128 0 -0.0166302)
(0.114449 0 -0.0204765)
(0.13236 0 -0.024092)
(0.148445 0 -0.0275477)
(0.163033 0 -0.0308986)
(0.176407 0 -0.0341897)
(0.188842 0 -0.0374623)
(0.200588 0 -0.0407591)
(0.211893 0 -0.0441236)
(0.22298 0 -0.0475973)
(0.23405 0 -0.0512205)
(0.245351 0 -0.0550542)
(0.257073 0 -0.0591474)
(0.269409 0 -0.0635594)
(0.282597 0 -0.0683737)
(0.296833 0 -0.0736711)
(0.312294 0 -0.0795391)
(0.329146 0 -0.0860766)
(0.34749 0 -0.0933749)
(0.367425 0 -0.101547)
(0.388771 0 -0.110607)
(0.411162 0 -0.120507)
(0.433983 0 -0.131093)
(0.456176 0 -0.141979)
(0.476589 0 -0.152693)
(0.494206 0 -0.162769)
(0.508174 0 -0.171732)
(0.016031 0 -0.00282701)
(0.0460896 0 -0.00815198)
(0.0724643 0 -0.0129159)
(0.0956547 0 -0.0172446)
(0.116224 0 -0.0212588)
(0.134605 0 -0.0250449)
(0.151169 0 -0.0286717)
(0.166245 0 -0.0321946)
(0.180123 0 -0.0356614)
(0.19311 0 -0.0391276)
(0.20543 0 -0.0426279)
(0.217311 0 -0.0462034)
(0.228967 0 -0.0498942)
(0.24062 0 -0.0537505)
(0.252486 0 -0.0578257)
(0.264723 0 -0.0621602)
(0.277536 0 -0.0668205)
(0.291109 0 -0.071873)
(0.305601 0 -0.0773862)
(0.321134 0 -0.0834272)
(0.337801 0 -0.0900631)
(0.35569 0 -0.0973754)
(0.374682 0 -0.105372)
(0.394544 0 -0.114025)
(0.414912 0 -0.123252)
(0.435107 0 -0.13282)
(0.454336 0 -0.142418)
(0.471846 0 -0.151722)
(0.48697 0 -0.160401)
(0.499158 0 -0.168117)
(0.016189 0 -0.00290844)
(0.0466083 0 -0.00840036)
(0.0733778 0 -0.013328)
(0.0969807 0 -0.0178168)
(0.117975 0 -0.0219894)
(0.136786 0 -0.0259312)
(0.153801 0 -0.0297156)
(0.169349 0 -0.033402)
(0.183737 0 -0.0370442)
(0.197245 0 -0.0406922)
(0.210068 0 -0.0443742)
(0.222478 0 -0.0481462)
(0.234666 0 -0.0520436)
(0.246811 0 -0.0561039)
(0.259133 0 -0.0603836)
(0.271789 0 -0.064926)
(0.284939 0 -0.0697827)
(0.298733 0 -0.0750087)
(0.313307 0 -0.080664)
(0.328705 0 -0.0867826)
(0.345029 0 -0.0934326)
(0.362197 0 -0.100615)
(0.380059 0 -0.108312)
(0.398399 0 -0.11648)
(0.416757 0 -0.124966)
(0.434586 0 -0.133562)
(0.451348 0 -0.142046)
(0.466519 0 -0.150176)
(0.479667 0 -0.157722)
(0.490411 0 -0.164434)
(0.0163639 0 -0.00298488)
(0.0471259 0 -0.00862588)
(0.0742473 0 -0.0136969)
(0.0982407 0 -0.0183305)
(0.119643 0 -0.0226475)
(0.138866 0 -0.0267328)
(0.156325 0 -0.0306676)
(0.172346 0 -0.0345117)
(0.187205 0 -0.0383143)
(0.201168 0 -0.0421211)
(0.214472 0 -0.0459754)
(0.227359 0 -0.0499249)
(0.239986 0 -0.0539972)
(0.252554 0 -0.0582372)
(0.265243 0 -0.0626902)
(0.278196 0 -0.0673944)
(0.291548 0 -0.072393)
(0.305435 0 -0.077737)
(0.319915 0 -0.0834542)
(0.335046 0 -0.0895812)
(0.350807 0 -0.0961296)
(0.367098 0 -0.103083)
(0.383788 0 -0.110419)
(0.400562 0 -0.118031)
(0.417032 0 -0.125774)
(0.432818 0 -0.133495)
(0.447521 0 -0.14102)
(0.460775 0 -0.148165)
(0.472321 0 -0.154783)
(0.481867 0 -0.160671)
(0.016516 0 -0.00304803)
(0.0475939 0 -0.00881593)
(0.0750499 0 -0.0140124)
(0.0994185 0 -0.0187757)
(0.121223 0 -0.0232251)
(0.140859 0 -0.0274445)
(0.158737 0 -0.0315154)
(0.175174 0 -0.0354962)
(0.190468 0 -0.0394426)
(0.204872 0 -0.043399)
(0.218593 0 -0.0474013)
(0.231881 0 -0.0515005)