/*--------------------------------*- C++ -*----------------------------------*\
| =========                 |                                                 |
| \\      /  F ield         | OpenFOAM: The Open Source CFD Toolbox           |
|  \\    /   O peration     | Version:  dev                                   |
|   \\  /    A nd           | Web:      www.OpenFOAM.org                      |
|    \\/     M anipulation  |                                                 |
\*---------------------------------------------------------------------------*/
FoamFile
{
    version     2.0;
    format      ascii;
    class       volScalarField;
    location    "1.27";
    object      p;
}
// * * * * * * * * * * * * * * * * * * * * * * * * * * * * * * * * * * * * * //

dimensions      [0 2 -2 0 0 0 0];

internalField   nonuniform List<scalar> 
2790
(
95.4412
95.2843
95.3903
95.7089
96.1505
96.6836
97.3074
98.0255
98.8393
99.7497
100.759
101.869
103.084
104.406
105.838
107.382
109.038
110.804
112.677
114.649
116.709
118.84
121.016
123.204
125.361
127.432
129.348
131.031
132.387
133.264
95.2925
95.2302
95.3563
95.6731
96.1129
96.6448
97.2665
97.9812
98.7905
99.6955
100.698
101.801
103.007
104.318
105.739
107.268
108.909
110.658
112.512
114.464
116.504
118.614
120.771
122.944
125.09
127.156
129.077
130.773
132.146
133.082
95.1578
95.1692
95.3132
95.6226
96.0544
96.5794
97.1929
97.8972
98.694
99.5841
100.569
101.651
102.833
104.116
105.502
106.992
108.586
110.281
112.073
113.953
115.911
117.929
119.983
122.041
124.062
125.991
127.755
129.257
130.351
130.548
95.0246
95.0748
95.233
95.5365
95.9596
96.4761
97.0792
97.7703
98.5508
99.4214
100.383
101.437
102.586
103.83
105.169
106.605
108.134
109.752
111.453
113.227
115.06
116.932
118.817
120.677
122.464
124.106
125.505
126.487
126.873
125.183
94.884
94.9551
95.1258
95.4264
95.8407
96.3464
96.9361
97.6102
98.3699
99.2154
100.147
101.166
102.273
103.467
104.749
106.115
107.562
109.084
110.672
112.312
113.987
115.673
117.335
118.929
120.388
121.616
122.464
122.631
122.069
117.695
94.7317
94.8145
94.9937
95.2911
95.695
96.1871
96.76
97.4135
98.1481
98.9637
99.86
100.837
101.894
103.031
104.244
105.53
106.883
108.294
109.75
111.235
112.726
114.192
115.59
116.861
117.918
118.629
118.793
117.93
116.403
109.056
94.5654
94.6546
94.8384
95.1313
95.5237
96
96.5534
97.1832
97.889
98.6703
99.5261
100.456
101.457
102.528
103.664
104.86
106.107
107.394
108.704
110.016
111.302
112.523
113.626
114.533
115.136
115.261
114.67
112.643
110.269
100.072
94.3841
94.4765
94.6614
94.9483
95.3279
95.7864
96.3178
96.9207
97.5943
98.3372
99.1479
100.025
100.964
101.963
103.014
104.112
105.244
106.396
107.548
108.673
109.739
110.696
111.48
111.998
112.114
111.617
110.252
107.003
103.94
91.2064
94.1874
94.281
94.4642
94.7435
95.1087
95.5476
96.0546
96.6279
97.2661
97.967
98.7285
99.5476
100.42
101.34
102.301
103.293
104.303
105.311
106.296
107.226
108.059
108.741
109.193
109.307
108.923
107.792
105.671
101.197
97.5682
82.5846
93.9754
94.0688
94.2483
94.518
94.8676
95.2851
95.7655
96.3068
96.9067
97.5625
98.2711
99.0287
99.8297
100.667
101.533
102.414
103.294
104.154
104.965
105.692
106.287
106.687
106.802
106.508
105.626
103.869
101.029
95.3659
91.2074
74.2493
93.7484
93.8406
94.0147
94.2734
94.6058
95.0004
95.4524
95.9594
96.5186
97.1266
97.7796
98.4723
99.1985
99.9497
100.715
101.482
102.23
102.937
103.571
104.092
104.447
104.565
104.346
103.65
102.284
99.9245
96.4061
89.6253
84.8433
66.2815
93.5071
93.5974
93.7647
94.011
94.3249
94.6951
95.1171
95.588
96.1044
96.6625
97.2574
97.8829
98.5315
99.1938
99.8572
100.506
101.12
101.673
102.129
102.445
102.562
102.403
101.86
100.779
98.9538
96.0294
91.8651
84.0807
78.4167
58.7022
93.2521
93.3401
93.4996
93.7321
94.0263
94.371
94.7617
95.1949
95.6669
96.1733
96.7083
97.2646
97.8341
98.4056
98.9655
99.4963
99.9756
100.374
100.655
100.77
100.657
100.232
99.3792
97.9382
95.6899
92.2494
87.4654
78.8483
71.9255
51.4198
92.9843
93.0697
93.2207
93.4383
93.7115
94.0299
94.3881
94.7824
95.2087
95.6621
96.1359
96.6221
97.1113
97.5915
98.0477
98.4609
98.807
99.0545
99.1643
99.0859
98.753
98.0774
96.9392
95.171
92.5459
88.656
83.3049
74.0919
65.58
44.1289
92.7048
92.7873
92.929
93.1308
93.3824
93.6734
93.9984
94.3528
94.7327
95.1323
95.5443
95.9599
96.3689
96.7581
97.1117
97.4094
97.6253
97.7268
97.6731
97.4114
96.8734
95.9688
94.5749
92.5221
89.5811
85.339
79.5437
70.0609
59.9712
36.0056
21.7446
21.7723
21.8369
22.0091
22.2714
22.4835
22.5668
22.5391
22.4302
22.2546
22.0174
21.7227
21.3757
20.981
20.5417
20.0574
19.5238
18.9322
18.271
17.5272
16.6872
15.7385
14.6697
13.4687
12.1204
10.6051
8.89411
6.94388
4.69141
2.04866
21.6819
21.7028
21.7718
21.9513
22.2102
22.4141
22.4943
22.4695
22.3675
22.2008
21.9739
21.6895
21.3527
20.9689
20.5412
20.0696
19.5492
18.9703
18.3195
17.5823
16.745
15.7962
14.7258
13.522
12.1688
10.6464
8.92568
6.96247
4.69048
2.00644
21.5857
21.6051
21.6761
21.8635
22.1183
22.316
22.4016
22.3926
22.3115
22.1678
21.964
21.702
21.3865
21.0223
20.6122
20.155
19.6445
19.0705
18.4194
17.6776
16.8326
15.8741
14.7922
13.5743
12.2036
10.6602
8.91586
6.92786
4.63252
1.90871
21.453
21.4771
21.5478
21.7465
22.0027
22.2039
22.3084
22.3298
22.2836
22.1755
22.0059
21.776
21.4894
21.1496
20.7581
20.3123
19.8055
19.2271
18.5645
17.8055
16.9392
15.9562
14.8464
13.5976
12.1933
10.6138
8.83302
6.8128
4.49681
1.75765
21.2783
21.3166
21.3895
21.609
21.8787
22.0993
22.2386
22.3042
22.3048
22.2421
22.1149
21.9234
21.6697
21.3549
20.9791
20.5387
20.0265
19.4327
18.7466
17.9582
17.0585
16.0388
14.8888
13.5973
12.1482
10.5229
8.69852
6.64397
4.31218
1.59376
21.054
21.1221
21.2081
21.4636
21.7645
22.0222
22.2106
22.331
22.3862
22.3752
22.2954
22.1457
21.926
21.6349
21.2697
20.8266
20.2991
19.6793
18.9588
18.1303
17.1866
16.1198
14.9196
13.5749
12.0729
10.397
8.52826
6.442
4.10091
1.44057
20.7688
20.8968
21.0147
21.3267
21.6777
21.9878
22.2356
22.4181
22.5334
22.5785
22.5495
22.4429
22.2556
21.9842
21.6237
21.1698
20.6174
19.9613
19.1964
18.3179
17.3209
16.1992
14.9434
13.5421
11.9845
10.2578
8.34711
6.23265
3.88832
1.31101
20.4054
20.6503
20.8252
21.2139
21.6314
22.0058
22.3189
22.5683
22.7486
22.8539
22.8781
22.8145
22.657
22.3995
22.0368
21.5644
20.9786
20.2777
19.4599
18.5231
17.4651
16.2817
14.9655
13.5068
11.8957
10.1223
8.17502
6.03644
3.69313
1.20879
19.9462
20.391
20.6542
21.1369
21.6318
22.0782
22.4642
22.7853
23.0341
23.202
23.2801
23.2586
23.1281
22.8801
22.5089
22.0115
21.3866
20.6343
19.7561
18.7539
17.629
16.3796
15.0004
13.4835
11.8207
10.0043
8.02447
5.86519
3.53096
1.1391
19.3835
20.1161
20.5074
21.0999
21.6811
22.2082
22.6742
23.0725
23.3931
23.6253
23.7575
23.7769
23.6706
23.428
23.044
22.517
21.8474
21.038
20.0935
19.0207
17.8245
16.5062
15.0628
13.4883
11.7761
9.92016
7.91066
5.73308
3.41034
1.09226
18.7186
19.8144
20.3795
21.1057
21.785
22.403
22.9568
23.4373
23.8318
24.1285
24.3142
24.3731
24.2885
24.0486
23.6488
23.088
22.3686
21.4972
20.4825
19.335
18.0638
16.6745
15.1663
13.5351
11.7756
9.88203
7.84365
5.64761
3.3323
1.06423
17.9156
19.5023
20.2759
21.1663
21.959
22.6764
23.325
23.8907
24.3582
24.7174
24.955
25.0518
24.9874
24.7484
24.3302
23.7324
22.9595
22.0219
20.9336
19.7078
18.3588
16.8963
15.3225
13.635
11.829
9.89783
7.82914
5.61141
3.29475
1.05243
16.9228
19.2194
20.253
21.3246
22.2299
23.0472
23.796
24.4463
24.9801
25.396
25.6828
25.8167
25.772
25.5328
25.0945
24.4579
23.6292
22.622
21.4555
20.1499
18.7212
17.1824
15.5412
13.7965
11.9429
9.97214
7.86933
5.62385
3.29427
1.05466
15.9249
19.0122
20.401
21.6539
22.6215
23.5263
24.3865
25.1168
25.6998
26.162
26.496
26.6672
26.6432
26.4044
25.9461
25.2707
24.3852
23.3066
22.0587
20.6686
19.1576
17.5414
15.8294
14.0252
12.1213
10.1068
7.96383
5.68243
3.32713
1.06918
15.7642
18.9949
20.9013
22.2012
23.0725
24.0806
25.1145
25.9122
26.504
27.0017
27.388
27.5982
27.5957
27.3583
26.8811
26.1687
25.2286
24.08
22.7487
21.2682
19.6724
17.9776
16.1921
14.3251
12.3658
10.3013
8.11076
5.78404
3.39016
1.09471
92.4092
92.4883
92.62
92.805
93.0338
93.2964
93.5868
93.9001
94.2321
94.5766
94.9255
95.2693
95.597
95.8947
96.1458
96.3288
96.4165
96.3757
96.1645
95.7287
94.9996
93.8867
92.268
89.9781
86.7949
82.3299
76.3058
67.0153
56.1026
26.162
92.0939
92.1694
92.2902
92.4573
92.6623
92.895
93.1492
93.42
93.7025
93.9903
94.2746
94.5453
94.7906
94.9965
95.1455
95.2149
95.1772
94.9993
94.6382
94.0401
93.1379
91.8432
90.0397
87.575
84.2479
79.7319
73.8158
65.4128
56.4223
52.4507
91.7615
91.833
91.9422
92.0906
92.2707
92.4724
92.6894
92.9167
93.1489
93.3791
93.5981
93.7953
93.9588
94.0738
94.1225
94.0815
93.9236
93.6161
93.116
92.3713
91.3188
89.8746
87.9347
85.3666
82.0064
77.6283
72.1782
65.3583
58.6954
57.7822
91.4125
91.4798
91.5767
91.7057
91.8602
92.0301
92.2091
92.3922
92.5735
92.7458
92.8995
93.0239
93.1065
93.1327
93.0841
92.9373
92.6663
92.2387
91.6127
90.7403
89.5629
88.0055
85.9796
83.3787
80.0877
75.9818
71.1013
65.4316
59.2213
54.5818
91.0477
91.1105
91.1948
91.3035
91.4316
91.5692
91.7098
91.8483
91.9787
92.0933
92.1824
92.2351
92.2388
92.1792
92.0376
91.7913
91.4155
90.879
90.1427
89.1633
87.8884
86.2546
84.1905
81.6182
78.4676
74.68
70.3038
65.3755
59.892
55.161
90.668
90.7262
90.7976
90.8855
90.9866
91.0914
91.1934
91.2875
91.3672
91.4247
91.4504
91.4333
91.3611
91.2196
90.9904
90.6519
90.181
89.5484
88.7185
87.6533
86.3084
84.6325
82.5716
80.0736
77.1015
73.6366
69.7262
65.4545
60.9109
56.8278
90.2746
90.3282
90.3863
90.4529
90.5268
90.5988
90.6621
90.7119
90.7417
90.7434
90.7075
90.6234
90.4788
90.26
89.9496
89.5273
88.9719
88.2567
87.3503
86.2204
84.8313
83.1434
81.1178
78.7239
75.948
72.7952
69.3139
65.5937
61.7234
58.0613
89.8689
89.9176
89.9624
90.0074
90.0541
90.0934
90.1183
90.1243
90.1052
90.0528
89.9579
89.81
89.5972
89.3067
88.9222
88.4251
87.7962
87.0122
86.046
84.8713
83.4609
81.7849
79.818
77.5459
74.9692
72.1042
68.9954
65.7145
62.3319
59.0607
89.4525
89.496
89.5272
89.551
89.5704
89.5772
89.5647
89.5281
89.4612
89.3565
89.2055
88.9978
88.7216
88.3653
87.9146
87.3519
86.6608
85.8214
84.8111
83.6096
82.1965
80.5509
78.6588
76.5162
74.1308
71.5238
68.7344
65.8194
62.8386
59.9377
89.0274
89.0651
89.0825
89.0854
89.0781
89.0529
89.0039
88.926
88.8133
88.6587
88.4547
88.1912
87.8567
87.4414
86.9323
86.3136
85.5713
84.6893
83.6493
82.4359
81.0349
79.4338
77.6256
75.6119
73.4053
71.0282
68.5145
65.9094
63.2623
60.6771
88.5953
88.6267
88.6302
88.6127
88.5792
88.5231
88.4387
88.3212
88.1648
87.9632
87.7099
87.3949
87.0076
86.5398
85.9801
85.3148
84.532
83.6191
82.5618
81.3486
79.9718
78.4244
76.703
74.814
72.7723
70.5988
68.3221
65.9785
63.607
61.2857
88.1584
88.183
88.1727
88.1351
88.0763
87.9906
87.8722
87.7168
87.5193
87.274
86.975
86.6132
86.1789
85.665
85.0623
84.3591
83.5457
82.6124
81.548
80.3452
79.0014
77.5122
75.8775
74.107
72.2154
70.2211
68.1479
66.0253
63.8837
61.7842
87.7189
87.7362
87.7121
87.6554
87.5721
87.4579
87.3072
87.1162
86.8803
86.5947
86.254
85.8501
85.3744
84.821
84.1825
83.4494
82.6141
81.6693
80.6065
79.4225
78.117
76.6877
75.1379
73.4782
71.7216
69.8842
67.9864
66.0516
64.1038
62.1914
87.2792
87.2886
87.2508
87.176
87.0693
86.9278
86.7468
86.5225
86.2512
85.9287
85.5504
85.1091
84.5977
84.0113
83.3436
82.5878
81.7383
80.7891
79.735
78.5757
77.3115
75.9427
74.4744
72.9166
71.2805
69.5807
67.8345
66.0602
64.2765
62.5227
86.8415
86.843
86.7919
86.6995
86.5707
86.4035
86.1942
85.9392
85.6354
85.2796
84.8677
84.3935
83.8518
83.2382
82.5476
81.7757
80.9185
79.971
78.931
77.8
76.5789
75.2696
73.878
72.4129
70.8844
69.3052
67.69
66.0535
64.41
62.7914
86.4085
86.4021
86.3379
86.2286
86.0791
85.8879
85.6524
85.3695
85.0361
84.6503
84.2089
83.7066
83.1394
82.5041
81.7962
81.0137
80.154
79.2133
78.1917
77.0912
75.9134
74.6613
73.3408
71.9598
70.5272
69.054
67.5522
66.034
64.5108
63.0085
85.9828
85.9687
85.8918
85.7663
85.5976
85.3843
85.1246
84.8164
84.4566
84.044
83.5769
83.0507
82.4629
81.8109
81.0909
80.3023
79.4443
78.5146
77.5141
76.445
75.3096
74.1116
72.8565
71.5513
70.204
68.8239
67.4208
66.0047
64.5849
63.1829
85.5672
85.5456
85.4565
85.3159
85.1292
84.8956
84.6138
84.2828
83.8998
83.4639
82.9747
82.4288
81.8242
81.1596
80.432
79.6418
78.789
77.873
76.895
75.8572
74.7625
73.6148
72.4196
71.1826
69.9109
68.6124
67.2953
65.9678
64.6376
63.3222
85.1648
85.1359
85.0352
84.8802
84.6771
84.4251
84.1232
83.7717
83.3685
82.9127
82.4051
81.8431
81.2254
80.5515
79.8202
79.0318
78.1871
77.2862
76.3309
75.3235
74.2673
73.1664
72.0254
70.8495
69.6448
68.4179
67.1759
65.9255
64.6729
63.4326
84.7786
84.7427
84.6311
84.4628
84.2443
83.9757
83.6562
83.2865
82.866
82.3932
81.8698
81.2951
80.6679
79.9882
79.256
78.4717
77.6365
76.7515
75.8187
74.8406
73.8204
72.7622
71.6701
70.5487
69.4031
68.2393
67.0629
65.8796
64.6943
63.5192
84.4119
84.3691
84.2471
84.0668
83.8344
83.5509
83.216
82.8303
82.3943
81.9076
81.3716
80.787
80.1531
79.4703
78.739
77.9604
77.1358
76.2668
75.3558
74.4053
73.4185
72.3991
71.3508
70.2777
69.1843
68.0757
66.9566
65.8316
64.7048
63.5864
84.068
84.0188
83.8873
83.6954
83.4504
83.1536
82.8052
82.4055
81.9563
81.4583
80.9128
80.3207
79.6821
78.9979
78.2691
77.497
76.6835
75.8304
74.94
74.0152
73.0589
72.0745
71.0652
70.0348
68.9874
67.927
66.8577
65.7832
64.7072
63.638
83.7506
83.6954
83.555
83.3521
83.0954
82.7868
82.4266
82.0153
81.5553
81.0481
80.495
79.8972
79.2556
78.5714
77.8461
77.0812
76.2788
75.4408
74.5697
73.6682
72.7395
71.7863
70.8116
69.8188
68.8114
67.7929
66.7666
65.7358
64.7037
63.677
83.4645
83.4025
83.2523
83.0393
82.773
82.4544
82.0839
81.6629
81.194
80.6793
80.1202
79.5183
78.8751
78.192
77.4707
76.7132
75.9214
75.0976
74.2442
73.3638
72.4594
71.5338
70.5894
69.6292
68.6563
67.6739
66.6847
65.6916
64.6971
63.707
83.2137
83.1438
82.9831
82.7609
82.4866
82.1595
81.7801
81.3508
80.8746
80.3536
79.79
79.1853
78.5413
77.8599
77.143
76.3926
75.6107
74.7998
73.962
73.1002
72.2171
71.3153
70.397
69.4648
68.5215
67.5697
66.612
65.6507
64.6881
63.7288
83.0016
82.9234
82.7519
82.521
82.2395
81.9053
81.5187
81.0827
80.6006
80.075
79.508
78.9015
78.2576
77.5783
76.8656
76.1217
75.3488
74.5491
73.7251
72.8792
72.0143
71.1327
70.2364
69.3278
68.4092
67.4832
66.5519
65.6174
64.6817
63.7486
82.833
82.7456
82.5621
82.3224
82.0343
81.6937
81.3009
80.8593
80.3725
79.8432
79.2737
78.6662
78.0227
77.3455
76.6368
75.8987
75.1334
74.3434
73.5308
72.6982
71.8482
70.9831
70.1047
69.2151
68.3165
67.4111
66.5008
65.5875
64.673
63.76
82.7148
82.6141
82.4175
82.1709
81.8785
81.5334
81.1357
80.6897
80.1993
79.6673
79.096
78.4877
77.8447
77.1693
76.4638
75.7304
74.9714
74.1891
73.3856
72.5636
71.7255
70.8736
70.0095
69.1351
68.2525
67.3636
66.4704
65.5745
64.6777
63.7822
82.6588
82.5264
82.3106
82.0585
81.7639
81.4161
81.0155
80.5669
80.0746
79.5413
78.9693
78.361
77.7189
77.0452
76.3423
75.6124
74.8579
74.081
73.2838
72.4689
71.6388
70.7955
69.9406
69.076
68.2035
67.3251
66.4423
65.5568
64.6701
63.7838
82.6936
82.5079
82.2689
82.0107
81.713
81.3618
80.9581
80.5071
80.0131
79.4786
78.9061
78.2979
77.6564
76.9841
76.2833
75.5563
74.8053
74.0325
73.2403
72.4308
71.6068
70.7702
69.9224
69.0653
68.2007
67.3303
66.4558
65.5786
64.7003
63.8219
-61.9915
-37.0329
-8.8888
46.8803
42.2926
38.8276
49.3653
41.3434
37.0156
46.9445
42.5443
40.1
50.4846
47.4473
45.1217
53.1289
50.5366
48.3794
54.8133
52.5952
50.7349
56.2276
54.3129
52.6945
57.4379
55.7448
54.3088
58.4376
56.9171
55.6287
59.2603
57.8821
56.7161
59.9388
58.6799
57.6164
60.498
59.34
58.3633
60.9583
59.8863
58.9841
61.3374
60.3391
59.501
61.6494
60.7147
59.9322
61.9058
61.0263
60.2922
62.1164
61.285
60.5931
62.289
61.4997
60.8449
62.4302
61.6778
61.0555
62.5453
61.8255
61.2316
62.639
61.9479
61.379
62.7149
62.049
61.5018
62.7772
62.1335
61.6051
62.8267
62.2022
61.69
62.871
62.2632
61.7643
62.9015
62.3077
61.8203
62.942
62.3598
61.8804
62.9542
62.3814
61.9096
63.0064
62.4425
61.9742
20.5911
22.8729
22.4907
22.8824
23.5779
24.8944
26.1053
26.8098
27.3317
27.8961
28.363
28.6133
28.6324
28.4006
27.908
27.1614
26.1678
24.9491
23.5365
21.9689
20.2835
18.5018
16.6391
14.7029
12.679
10.5555
8.30756
5.92487
3.47989
1.12968
34.0028
26.9078
24.409
24.9018
26.2519
27.2862
27.636
27.7002
28.1155
28.8445
29.4039
29.6784
29.7339
29.526
29.0252
28.2473
27.2029
25.9183
24.4291
22.7754
20.9957
19.1208
17.1821
15.1679
13.0614
10.8671
8.55023
6.1008
3.59281
1.17174
33.4599
29.3769
27.8857
27.9261
28.1669
28.188
28.3279
28.9425
29.7694
30.3288
30.5552
30.7
30.7988
30.6496
30.1729
29.3797
28.2945
26.953
25.3956
23.6641
21.799
19.8361
17.8016
15.695
13.5222
11.244
8.82969
6.30173
3.72242
1.21525
37.3336
34.2287
32.3841
31.4425
30.8956
30.5598
30.4951
30.6568
30.8755
31.1448
31.5605
31.9708
32.0999
31.9005
31.3743
30.5239
29.3907
28.0022
26.3915
24.5974
22.6595
20.6143
18.4885
16.2948
14.0272
11.6505
9.14299
6.52517
3.86501
1.25686
42.1397
39.024
36.6504
34.9977
33.9026
33.1931
32.7755
32.5847
32.5685
32.6982
32.9077
33.0599
33.0714
32.8841
32.4044
31.5767
30.4255
29.0029
27.354
25.5159
23.5238
21.4109
19.2031
16.9125
14.5306
12.0453
9.45024
6.75039
3.9968
1.28155
45.6921
42.8059
40.2785
38.2849
36.8315
35.7937
35.0676
34.5962
34.3325
34.2174
34.1759
34.1242
33.9853
33.6827
33.1476
32.3359
31.231
29.8412
28.1989
26.3463
24.3228
22.1607
19.8833
17.501
15.0109
12.4036
9.66763
6.8596
4.07467
1.24487
48.4376
45.858
43.3754
41.246
39.5704
38.2824
37.2989
36.5663
36.0388
35.6625
35.3753
35.1074
34.785
34.3381
33.7096
32.8592
31.7641
30.4155
28.8196
26.9971
24.9785
22.7947
20.4691
18.0135
15.4282
12.7078
9.86014
6.951
4.05015
1.0574
50.69
48.3708
46.0009
43.8448
42.0469
40.5834
39.3932
38.4315
37.661
37.0385
36.5118
36.0205
35.5017
34.8958
34.1512
33.2286
32.1026
30.7592
29.1939
27.4111
25.4237
23.2495
20.9063
18.4065
15.7556
12.9586
10.0346
7.03286
4.02772
0.906524
52.5291
50.4292
48.1968
46.0782
44.2312
42.6572
41.3137
40.1669
39.1892
38.3471
37.5982
36.893
36.1799
35.4088
34.533
33.5151
32.3286
30.9563
29.3884
27.6217
25.6582
23.5038
21.1663
18.6536
15.9735
13.1379
10.1711
7.11683
4.04976
0.85725
54.0329
52.1226
50.0317
47.9835
46.1352
44.5016
43.0532
41.7662
40.6212
39.5934
38.6499
37.7512
36.8563
35.9233
34.9108
33.7838
32.5168
31.0907
29.4922
27.7133
25.7508
23.6041
21.2746
18.7655
16.0832
13.2411
10.2649
7.19561
4.10094
0.879109
55.2737
53.5282
51.572
49.608
47.7873
46.1307
44.6173
43.2304
41.9572
40.7804
39.6747
38.6096
37.5528
36.4698
35.3244
34.0849
32.7276
31.2333
29.586
27.7744
25.7924
23.6364
21.305
18.7992
16.1244
13.2932
10.3295
7.26897
4.16983
0.941745
56.3037
54.7015
52.8699
50.9942
49.2181
47.5645
46.0171
44.5642
43.1982
41.9074
40.6731
39.4715
38.277
37.0619
35.7953
34.4489
33.0015
31.4344
29.7299
27.8751
25.8617
23.6846
21.3415
18.8329
16.1637
13.3459
10.4004
7.35719
4.26451
1.04265
57.1615
55.6846
53.967
52.1792
50.4572
48.8243
47.2667
45.7754
44.3465
42.9729
41.6409
40.3319
39.0256
37.6995
36.3277
34.8866
33.3571
31.7202
29.9584
28.0585
26.0107
23.8085
21.4491
18.933
16.265
13.4561
10.5246
7.49568
4.40931
1.20008
57.8779
56.5113
54.8975
53.1944
51.5314
49.9309
48.3803
46.8722
45.405
43.9748
42.5719
41.1818
39.7884
38.3732
36.9149
35.3944
33.7946
32.096
30.282
28.3407
26.2617
24.0366
21.6617
19.1374
16.468
13.6631
10.7386
7.71594
4.62852
1.43172
58.4777
57.2083
55.6889
54.0664
52.464
50.9032
49.3717
47.8631
46.3769
44.9115
43.4601
42.0116
40.5531
39.0693
37.543
35.959
34.3011
32.5511
30.694
28.7182
26.6132
24.3703
21.984
19.4536
16.7824
13.9783
11.0544
8.02877
4.92906
1.73591
58.9811
57.7977
56.3638
54.817
53.2748
51.7578
50.2538
48.7564
47.266
45.7823
44.3007
42.8127
41.3076
39.7731
38.1957
36.5625
34.8585
33.0677
31.177
29.1743
27.049
24.7926
22.3991
19.8657
17.1933
14.3875
11.4586
8.42079
5.29555
2.08937
59.4042
58.297
56.9405
55.464
53.9805
52.5092
51.0379
49.5601
48.0765
46.5875
45.0901
43.5776
42.0413
40.4713
38.857
37.1868
35.4475
33.6253
31.7081
29.6849
27.5446
25.2778
22.879
20.3444
17.6711
14.8609
11.9212
8.862
5.69752
2.45672
59.7604
58.7206
57.4338
56.0225
54.5949
53.1697
51.7341
50.2815
48.8125
47.328
45.8259
44.3008
42.7455
41.1522
39.5119
37.8146
36.0492
34.2031
32.265
30.2258
28.0743
25.7991
23.395
20.8578
18.1814
15.3631
12.4065
9.31686
6.10067
2.80308
60.0605
59.0801
57.8562
56.5046
55.1299
53.7497
52.3512
50.9272
49.4782
48.0051
46.5065
44.9778
43.4131
41.8058
40.1482
38.4323
36.6481
34.7836
32.8292
30.777
28.6151
26.3317
23.9211
21.3779
18.6936
15.8621
12.8823
9.75414
6.47636
3.1031
60.3134
59.3854
58.2178
56.9208
55.5952
54.2582
52.8967
51.5031
50.0773
48.6206
47.1314
45.6059
44.0389
42.4249
40.7573
39.029
37.231
35.3526
33.3859
31.3222
29.1491
26.856
24.4363
21.8827
19.185
16.3346
13.3255
10.1523
6.80646
3.34436
60.5264
59.6442
58.5269
57.2793
55.9992
54.7029
53.3773
52.0144
50.6137
49.1761
47.7004
46.1828
44.6189
43.0037
41.3315
39.5956
37.7879
35.8992
33.9221
31.8472
29.663
27.3591
24.9273
22.3589
19.642
16.766
13.7226
10.5005
7.08391
3.52627
60.7057
59.8633
58.7906
57.5875
56.3488
55.0903
53.7989
52.466
51.0909
49.674
48.2141
46.7078
45.1506
43.5381
41.8651
40.1253
38.3115
36.4158
34.4292
32.343
30.1478
27.8321
25.3858
22.7995
20.0595
17.1527
14.0697
10.7963
7.31024
3.65691
60.8561
60.048
59.0144
57.851
56.6496
55.4257
54.1661
52.8619
51.5117
50.116
48.6732
47.1799
45.6319
44.0249
42.354
40.6132
38.796
36.8946
34.8998
32.8039
30.5979
28.2687
25.8053
23.1984
20.4336
17.4948
14.3698
11.0435
7.49076
3.74689
60.9827
60.2036
59.2042
58.0758
56.9076
55.7148
54.4842
53.2066
51.8803
50.5051
49.0796
47.6002
46.0629
44.4632
42.7965
41.0569
39.2382
37.3322
35.3305
33.2262
31.0097
28.6666
26.1857
23.557
20.7663
17.7963
14.6302
11.2512
7.63579
3.80901
61.0874
60.3325
59.3622
58.2642
57.125
55.9596
54.7547
53.5012
52.1966
50.8408
49.4318
47.9663
46.4398
44.8482
43.1866
41.4494
39.6303
37.7215
35.7148
33.6029
31.3754
29.019
26.522
23.8724
21.0559
18.0558
14.8512
11.4222
7.7484
3.84834
61.1772
60.4418
59.4961
58.4241
57.3098
56.168
54.9857
53.7533
52.4683
51.1301
49.7366
48.2841
46.7685
45.1852
43.5296
41.7959
39.9777
38.0676
36.0576
33.9394
31.7023
29.3342
26.8227
24.1543
21.3142
18.2858
15.0475
11.5754
7.84872
3.87988
61.2466
60.526
59.5999
58.549
57.4551
56.3327
55.1689
53.9542
52.6855
51.3621
49.9818
48.5408
47.0346
45.4589
43.8088
42.0785
40.2616
38.3507
36.3377
34.2139
31.9689
29.5906
27.066
24.381
21.52
18.4655
15.1968
11.6897
7.91937
3.89194
61.314
60.6038
59.6934
58.6598
57.5825
56.4758
55.3273
54.1273
52.8725
51.5618
50.1931
48.7623
47.265
45.6967
44.0524
42.3262
40.5118
38.6016
36.5874
34.4608
32.2112
29.8259
27.2915
24.5941
21.7173
18.6425
15.3492
11.8133
8.00535
3.9183
61.351
60.6456
59.7446
58.7225
57.6562
56.5597
55.4211
54.2305
52.9845
51.682
50.3206
48.8963
47.4045
45.8406
44.1996
42.4757
40.6624
38.752
36.736
34.607
32.3544
29.9633
27.4208
24.7136
21.825
18.735
15.4227
11.8644
8.03056
3.9063
61.4134
60.7069
59.8129
58.7999
57.742
56.6531
55.5218
54.3383
53.0993
51.8033
50.4479
49.0291
47.5424
45.9831
44.346
42.6255
40.815
38.9065
36.8912
34.7633
32.5117
30.1196
27.5741
24.8637
21.9707
18.8743
15.5516
11.9781
8.11948
3.93417
)
;

boundaryField
{
    inlet
    {
        type            zeroGradient;
    }
    outlet
    {
        type            fixedValue;
        value           uniform 0;
    }
    flap
    {
        type            zeroGradient;
    }
    upperWall
    {
        type            zeroGradient;
    }
    lowerWall
    {
        type            zeroGradient;
    }
    frontAndBack
    {
        type            empty;
    }
}


// ************************************************************************* //
