/*--------------------------------*- C++ -*----------------------------------*\
| =========                 |                                                 |
| \\      /  F ield         | OpenFOAM: The Open Source CFD Toolbox           |
|  \\    /   O peration     | Version:  dev                                   |
|   \\  /    A nd           | Web:      www.OpenFOAM.org                      |
|    \\/     M anipulation  |                                                 |
\*---------------------------------------------------------------------------*/
FoamFile
{
    version     2.0;
    format      ascii;
    class       volVectorField;
    location    "1.83";
    object      Force;
}
// * * * * * * * * * * * * * * * * * * * * * * * * * * * * * * * * * * * * * //

dimensions      [1 1 -2 0 0 0 0];

internalField   uniform (0 0 0);

boundaryField
{
    inlet
    {
        type            calculated;
        value           nonuniform 0();
    }
    outlet
    {
        type            calculated;
        value           nonuniform 0();
    }
    flap
    {
        type            calculated;
        value           nonuniform List<vector> 
33
(
(2.4134 -2.05695e-17 -0.205208)
(2.35381 -5.97797e-18 -0.492903)
(2.2067 2.96939e-24 -0.752538)
(1.98415 3.97247e-22 -0.924777)
(1.72552 0 -1.01155)
(1.46702 -9.20576e-18 -1.02925)
(1.23176 8.21393e-18 -0.998507)
(1.03096 -1.11681e-22 -0.938368)
(0.863733 -6.418e-18 -0.862505)
(0.724817 -8.50089e-24 -0.778568)
(0.608382 -1.49351e-21 -0.69039)
(0.506794 1.57943e-17 -0.597579)
(0.411718 1.20133e-21 -0.496711)
(0.313911 1.31605e-17 -0.381218)
(0.200131 0 -0.242044)
(0.650073 -2.93874e-39 0.522554)
(0.429305 1.19467e-21 0.343262)
(0.207202 -9.52775e-22 0.167381)
(0.0663815 1.13184e-17 -0.00578636)
(0.0658457 -1.16063e-17 -0.0139323)
(0.064673 -8.89975e-23 -0.0223277)
(0.0629382 -2.04611e-19 -0.0296032)
(0.0608773 1.46937e-39 -0.0360328)
(0.0587353 1.13708e-22 -0.0416366)
(0.0567259 -1.75761e-22 -0.0464783)
(0.0549252 1.86201e-22 -0.0506003)
(0.0533988 4.24825e-19 -0.054063)
(0.0521526 -5.35062e-22 -0.0569113)
(0.051102 4.42913e-22 -0.0590689)
(0.0502966 1.54988e-17 -0.0605737)
(0.0499407 1.68855e-17 -0.0617315)
(0.0504439 2.15343e-22 -0.06241)
(0.058973 5.01828e-19 -0.0740049)
)
;
    }
    upperWall
    {
        type            calculated;
        value           nonuniform 0();
    }
    lowerWall
    {
        type            calculated;
        value           uniform (0 0 0);
    }
    frontAndBack
    {
        type            empty;
    }
    procBoundary4to1
    {
        type            processor;
        value           uniform (0 0 0);
    }
    procBoundary4to2
    {
        type            processor;
        value           uniform (0 0 0);
    }
    procBoundary4to3
    {
        type            processor;
        value           uniform (0 0 0);
    }
    procBoundary4to5
    {
        type            processor;
        value           uniform (0 0 0);
    }
}


// ************************************************************************* //
