/*--------------------------------*- C++ -*----------------------------------*\
| =========                 |                                                 |
| \\      /  F ield         | OpenFOAM: The Open Source CFD Toolbox           |
|  \\    /   O peration     | Version:  dev                                   |
|   \\  /    A nd           | Web:      www.OpenFOAM.org                      |
|    \\/     M anipulation  |                                                 |
\*---------------------------------------------------------------------------*/
FoamFile
{
    version     2.0;
    format      ascii;
    class       pointVectorField;
    location    "0.1";
    object      pointDisplacement;
}
// * * * * * * * * * * * * * * * * * * * * * * * * * * * * * * * * * * * * * //

dimensions      [0 1 0 0 0 0 0];

internalField   nonuniform List<vector> 
1030
(
(0 0 0)
(0.000528654 0 0)
(0.00101317 0 0)
(0.00144476 0 0)
(0.00182966 0 0)
(0.0021734 0 0)
(0.00248087 0 0)
(0.00275647 0 0)
(0.00300412 0 0)
(0.00322738 0 0)
(0.00342947 0 0)
(0.00361334 0 0)
(0.00378166 0 0)
(0.0039369 0 0)
(0.0040813 0 0)
(0.00421689 0 0)
(0.00434543 0 0)
(0.00446845 0 0)
(0.0045871 0 0)
(0.00470208 0 0)
(0.0048135 0 0)
(0.00492067 0 0)
(0 0 0)
(0.000528425 0 2.71812e-05)
(0.00101276 0 5.22616e-05)
(0.00144417 0 7.48781e-05)
(0.0018289 0 9.5382e-05)
(0.00217246 0 0.000114033)
(0.00247976 0 0.000131006)
(0.00275516 0 0.000146397)
(0.0030026 0 0.000160231)
(0.00322562 0 0.000172461)
(0.00342744 0 0.000182974)
(0.00361098 0 0.000191593)
(0.00377894 0 0.000198081)
(0.00393377 0 0.000202153)
(0.00407769 0 0.000203484)
(0.00421273 0 0.00020174)
(0.00434068 0 0.000196602)
(0.00446305 0 0.000187823)
(0.00458104 0 0.000175276)
(0.00469542 0 0.000159028)
(0.00480639 0 0.000139399)
(0.00491345 0 0.000117001)
(0 0 0)
(0.000527827 0 5.43227e-05)
(0.0010116 0 0.000104451)
(0.00144248 0 0.000149664)
(0.00182669 0 0.000190665)
(0.00216973 0 0.000227978)
(0.00247648 0 0.000261955)
(0.00275129 0 0.000292795)
(0.00299809 0 0.000320553)
(0.00322038 0 0.000345141)
(0.00342138 0 0.000366344)
(0.00360399 0 0.000383816)
(0.00377086 0 0.000397094)
(0.00392444 0 0.000405613)
(0.00406693 0 0.000408733)
(0.00420036 0 0.000405781)
(0.00432651 0 0.000396112)
(0.00444695 0 0.000379206)
(0.00456295 0 0.000354771)
(0.00467545 0 0.000322887)
(0.00478494 0 0.000284135)
(0.00489139 0 0.000239697)
(0 0 0)
(0.000526845 0 8.13442e-05)
(0.00100969 0 0.000156416)
(0.00143969 0 0.000224143)
(0.00182305 0 0.000285588)
(0.00216522 0 0.000341541)
(0.00247107 0 0.000392541)
(0.00274492 0 0.000438898)
(0.00299065 0 0.000480708)
(0.00321176 0 0.00051786)
(0.0034114 0 0.00055005)
(0.00359247 0 0.000576784)
(0.00375756 0 0.000597393)
(0.0039091 0 0.000611052)
(0.00404925 0 0.000616816)
(0.00418002 0 0.000613677)
(0.00430321 0 0.000600651)
(0.00442042 0 0.000576902)
(0.00453303 0 0.000541904)
(0.00464221 0 0.000495645)
(0.00474882 0 0.000438838)
(0.00485341 0 0.000373118)
(0 0 0)
(0.000525482 0 0.000108175)
(0.00100704 0 0.000208023)
(0.00143583 0 0.00029813)
(0.001818 0 0.000379925)
(0.00215898 0 0.000454472)
(0.00246358 0 0.000522507)
(0.0027361 0 0.000584463)
(0.00298038 0 0.000640496)
(0.00319986 0 0.000690493)
(0.00339766 0 0.000734085)
(0.00357662 0 0.000770661)
(0.00373929 0 0.000799374)
(0.00388804 0 0.000819171)
(0.00402499 0 0.000828824)
(0.00415211 0 0.000827002)
(0.0042712 0 0.000812366)
(0.00438388 0 0.000783717)
(0.00449165 0 0.000740199)
(0.00459586 0 0.000681552)
(0.00469773 0 0.000608419)
(0.00479839 0 0.00052265)
(0 0 0)
(0.000523749 0 0.000134753)
(0.00100367 0 0.000259155)
(0.00143092 0 0.000371466)
(0.00181159 0 0.000473485)
(0.00215106 0 0.000566562)
(0.0024541 0 0.000651641)
(0.00272495 0 0.000729298)
(0.00296741 0 0.000799767)
(0.00318486 0 0.00086296)
(0.00338037 0 0.00091848)
(0.00355671 0 0.000965632)
(0.00371638 0 0.00100344)
(0.00386166 0 0.00103065)
(0.00399463 0 0.0010458)
(0.0041172 0 0.00104726)
(0.00423112 0 0.00103333)
(0.00433803 0 0.0010024)
(0.00443946 0 0.000953178)
(0.00453689 0 0.000884973)
(0.00463184 0 0.000798076)
(0.00472582 0 0.000694186)
(0 0 0)
(0.000521659 0 0.00016101)
(0.000999613 0 0.000309682)
(0.00142501 0 0.000443967)
(0.00180388 0 0.000566042)
(0.00214155 0 0.000677553)
(0.00244273 0 0.000779668)
(0.0027116 0 0.000873123)
(0.00295191 0 0.000958258)
(0.00316697 0 0.00103504)
(0.0033598 0 0.00110309)
(0.00353307 0 0.00116166)
(0.00368923 0 0.0012097)
(0.00383046 0 0.00124583)
(0.00395879 0 0.00126839)
(0.00407601 0 0.0012755)
(0.00418383 0 0.00126511)
(0.00428382 0 0.00123519)
(0.00437749 0 0.00118391)
(0.00446636 0 0.00110996)
(0.00455203 0 0.00101295)
(0.00463625 0 0.000893965)
(0 0 0)
(0.000519226 0 0.000186873)
(0.000994892 0 0.000359468)
(0.00141814 0 0.00051544)
(0.00179493 0 0.000657356)
(0.00213052 0 0.000787168)
(0.00242957 0 0.000906282)
(0.0026962 0 0.00101562)
(0.00293406 0 0.00111565)
(0.00314644 0 0.00120643)
(0.00333624 0 0.00128763)
(0.00350608 0 0.00135853)
(0.00365831 0 0.00141806)
(0.00379505 0 0.00146476)
(0.00391818 0 0.00149687)
(0.00402943 0 0.00151231)
(0.00413038 0 0.00150875)
(0.0042225 0 0.00148376)
(0.00430719 0 0.00143492)
(0.00438589 0 0.00136015)
(0.0044601 0 0.00125808)
(0.00453154 0 0.00112864)
(0 0 0)
(0.000516468 0 0.00021227)
(0.000989543 0 0.000408368)
(0.00141036 0 0.000585681)
(0.00178482 0 0.000747168)
(0.00211809 0 0.0008951)
(0.00241477 0 0.00103114)
(0.00267891 0 0.0011564)
(0.00291409 0 0.00127152)
(0.00312352 0 0.00137669)
(0.00331004 0 0.00147167)
(0.00347617 0 0.00155583)
(0.00362418 0 0.00162812)
(0.00375606 0 0.00168713)
(0.00387362 0 0.00173106)
(0.00397846 0 0.00175773)
(0.00407201 0 0.00176464)
(0.00415559 0 0.00174903)
(0.00423043 0 0.00170794)
(0.00429773 0 0.00163845)
(0.00435875 0 0.001538)
(0.0044149 0 0.0014049)
(0 0 0)
(0.000513402 0 0.000237121)
(0.000983602 0 0.000456235)
(0.00140174 0 0.000654475)
(0.00177362 0 0.000835205)
(0.00210436 0 0.00100102)
(0.00239846 0 0.00115385)
(0.00265991 0 0.00129503)
(0.00289222 0 0.0014254)
(0.00309852 0 0.0015453)
(0.00328156 0 0.00165464)
(0.0034438 0 0.00175293)
(0.00358738 0 0.00183924)
(0.00371422 0 0.00191226)
(0.003826 0 0.00197027)
(0.00392419 0 0.00201114)
(0.00401008 0 0.00203234)
(0.0040848 0 0.00203091)
(0.00414935 0 0.00200351)
(0.00420464 0 0.00194652)
(0.00425151 0 0.00185614)
(0.00429086 0 0.00172881)
(0 0 0)
(0.000510045 0 0.000261347)
(0.000977105 0 0.000502912)
(0.00139232 0 0.000721598)
(0.00176142 0 0.000921174)
(0.00208943 0 0.00110457)
(0.00238078 0 0.00127399)
(0.00263939 0 0.00143103)
(0.00286869 0 0.00157671)
(0.00307173 0 0.0017116)
(0.00325119 0 0.00183579)
(0.00340942 0 0.00194897)
(0.0035485 0 0.00205042)
(0.00367025 0 0.00213903)
(0.00377622 0 0.00221327)
(0.00386776 0 0.0022712)
(0.00394602 0 0.00231044)
(0.00401195 0 0.00232809)
(0.00406631 0 0.00232069)
(0.00410968 0 0.0022842)
(0.00414247 0 0.00221388)
(0.00416492 0 0.00210446)
(0 0 0)
(0.000506418 0 0.000284863)
(0.000970091 0 0.000548234)
(0.00138218 0 0.000786809)
(0.0017483 0 0.00100476)
(0.00207342 0 0.00120536)
(0.0023619 0 0.0013911)
(0.00261754 0 0.00156383)
(0.00284374 0 0.00172481)
(0.00304345 0 0.00187483)
(0.00321928 0 0.00201421)
(0.00337352 0 0.00214289)
(0.00350813 0 0.00226041)
(0.00362486 0 0.00236593)
(0.00372517 0 0.00245826)
(0.0038103 0 0.0025358)
(0.00388126 0 0.00259651)
(0.00393885 0 0.00263784)
(0.00398364 0 0.00265661)
(0.00401595 0 0.00264882)
(0.00403582 0 0.00260947)
(0.00404292 0 0.00253226)
(0 0 0)
(0.000502536 0 0.000307581)
(0.000962597 0 0.000592031)
(0.00137136 0 0.000849858)
(0.00173435 0 0.00108564)
(0.00205646 0 0.00130298)
(0.00234194 0 0.00150467)
(0.00259456 0 0.00169283)
(0.00281761 0 0.00186896)
(0.00301399 0 0.00203411)
(0.00318623 0 0.00218886)
(0.00333654 0 0.00233342)
(0.00346683 0 0.00246764)
(0.00357876 0 0.00259108)
(0.00367372 0 0.00270293)
(0.00375286 0 0.00280209)
(0.0038171 0 0.00288708)
(0.00386716 0 0.00295597)
(0.00390348 0 0.00300628)
(0.00392625 0 0.00303473)
(0.00393533 0 0.00303693)
(0.00393015 0 0.00300689)
(0 0 0)
(0.000498416 0 0.000329412)
(0.000954656 0 0.000634131)
(0.00135992 0 0.000910493)
(0.00171965 0 0.00116347)
(0.00203863 0 0.00139701)
(0.00232106 0 0.0016142)
(0.00257061 0 0.0018174)
(0.00279052 0 0.00200841)
(0.00298362 0 0.00218852)
(0.00315236 0 0.00235859)
(0.00329891 0 0.00251915)
(0.00342512 0 0.0026704)
(0.00353258 0 0.0028123)
(0.00362262 0 0.00294455)
(0.00369637 0 0.00306663)
(0.0037547 0 0.00317778)
(0.00379828 0 0.00327696)
(0.00382755 0 0.00336276)
(0.00384273 0 0.00343322)
(0.00384376 0 0.00348558)
(0.00383027 0 0.00351576)
(0 0 0)
(0.000494065 0 0.000350289)
(0.000946287 0 0.000674405)
(0.0013479 0 0.000968527)
(0.00170425 0 0.00123802)
(0.00202003 0 0.00148715)
(0.00229935 0 0.00171929)
(0.00254584 0 0.00193708)
(0.00276265 0 0.00214258)
(0.00295254 0 0.00233734)
(0.00311794 0 0.00252251)
(0.00326094 0 0.00269894)
(0.00338336 0 0.00286721)
(0.00348675 0 0.00302771)
(0.00357242 0 0.00318066)
(0.00364147 0 0.00332622)
(0.00369478 0 0.00346442)
(0.00373307 0 0.00359525)
(0.00375684 0 0.00371863)
(0.00376648 0 0.00383438)
(0.00376225 0 0.00394212)
(0.00374431 0 0.00404106)
(0 0 0)
(0.000489456 0 0.000370326)
(0.000937434 0 0.000713086)
(0.00133521 0 0.0010243)
(0.00168805 0 0.00130971)
(0.00200053 0 0.0015739)
(0.0022767 0 0.00182052)
(0.00252011 0 0.00205249)
(0.00273385 0 0.00227212)
(0.00292064 0 0.00248122)
(0.00308284 0 0.00268123)
(0.00322252 0 0.00287332)
(0.00334146 0 0.00305844)
(0.00344119 0 0.00323742)
(0.00352303 0 0.00341103)
(0.00358808 0 0.00358006)
(0.00363728 0 0.00374538)
(0.00367141 0 0.00390804)
(0.00369114 0 0.00406938)
(0.00369708 0 0.00423111)
(0.00368989 0 0.0043955)
(0.00367041 0 0.00456566)
(0 0 0)
(0.000528654 0 0)
(0.00101317 0 0)
(0.00144476 0 0)
(0.00182966 0 0)
(0.0021734 0 0)
(0.00248087 0 0)
(0.00275647 0 0)
(0.00300412 0 0)
(0.00322738 0 0)
(0.00342947 0 0)
(0.00361334 0 0)
(0.00378166 0 0)
(0.0039369 0 0)
(0.0040813 0 0)
(0.00421689 0 0)
(0.00434543 0 0)
(0.00446845 0 0)
(0.0045871 0 0)
(0.00470208 0 0)
(0.0048135 0 0)
(0.00492067 0 0)
(0 0 0)
(0.000528425 0 2.71812e-05)
(0.00101276 0 5.22616e-05)
(0.00144417 0 7.48781e-05)
(0.0018289 0 9.5382e-05)
(0.00217246 0 0.000114033)
(0.00247976 0 0.000131006)
(0.00275516 0 0.000146397)
(0.0030026 0 0.000160231)
(0.00322562 0 0.000172461)
(0.00342744 0 0.000182974)
(0.00361098 0 0.000191593)
(0.00377894 0 0.000198081)
(0.00393377 0 0.000202153)
(0.00407769 0 0.000203484)
(0.00421273 0 0.00020174)
(0.00434068 0 0.000196602)
(0.00446305 0 0.000187823)
(0.00458104 0 0.000175276)
(0.00469542 0 0.000159028)
(0.00480639 0 0.000139399)
(0.00491345 0 0.000117001)
(0 0 0)
(0.000527827 0 5.43227e-05)
(0.0010116 0 0.000104451)
(0.00144248 0 0.000149664)
(0.00182669 0 0.000190665)
(0.00216973 0 0.000227978)
(0.00247648 0 0.000261955)
(0.00275129 0 0.000292795)
(0.00299809 0 0.000320553)
(0.00322038 0 0.000345141)
(0.00342138 0 0.000366344)
(0.00360399 0 0.000383816)
(0.00377086 0 0.000397094)
(0.00392444 0 0.000405613)
(0.00406693 0 0.000408733)
(0.00420036 0 0.000405781)
(0.00432651 0 0.000396112)
(0.00444695 0 0.000379206)
(0.00456295 0 0.000354771)
(0.00467545 0 0.000322887)
(0.00478494 0 0.000284135)
(0.00489139 0 0.000239697)
(0 0 0)
(0.000526845 0 8.13442e-05)
(0.00100969 0 0.000156416)
(0.00143969 0 0.000224143)
(0.00182305 0 0.000285588)
(0.00216522 0 0.000341541)
(0.00247107 0 0.000392541)
(0.00274492 0 0.000438898)
(0.00299065 0 0.000480708)
(0.00321176 0 0.00051786)
(0.0034114 0 0.00055005)
(0.00359247 0 0.000576784)
(0.00375756 0 0.000597393)
(0.0039091 0 0.000611052)
(0.00404925 0 0.000616816)
(0.00418002 0 0.000613677)
(0.00430321 0 0.000600651)
(0.00442042 0 0.000576902)
(0.00453303 0 0.000541904)
(0.00464221 0 0.000495645)
(0.00474882 0 0.000438838)
(0.00485341 0 0.000373118)
(0 0 0)
(0.000525482 0 0.000108175)
(0.00100704 0 0.000208023)
(0.00143583 0 0.00029813)
(0.001818 0 0.000379925)
(0.00215898 0 0.000454472)
(0.00246358 0 0.000522507)
(0.0027361 0 0.000584463)
(0.00298038 0 0.000640496)
(0.00319986 0 0.000690493)
(0.00339766 0 0.000734085)
(0.00357662 0 0.000770661)
(0.00373929 0 0.000799374)
(0.00388804 0 0.000819171)
(0.00402499 0 0.000828824)
(0.00415211 0 0.000827002)
(0.0042712 0 0.000812366)
(0.00438388 0 0.000783717)
(0.00449165 0 0.000740199)
(0.00459586 0 0.000681552)
(0.00469773 0 0.000608419)
(0.00479839 0 0.00052265)
(0 0 0)
(0.000523749 0 0.000134753)
(0.00100367 0 0.000259155)
(0.00143092 0 0.000371466)
(0.00181159 0 0.000473485)
(0.00215106 0 0.000566562)
(0.0024541 0 0.000651641)
(0.00272495 0 0.000729298)
(0.00296741 0 0.000799767)
(0.00318486 0 0.00086296)
(0.00338037 0 0.00091848)
(0.00355671 0 0.000965632)
(0.00371638 0 0.00100344)
(0.00386166 0 0.00103065)
(0.00399463 0 0.0010458)
(0.0041172 0 0.00104726)
(0.00423112 0 0.00103333)
(0.00433803 0 0.0010024)
(0.00443946 0 0.000953178)
(0.00453689 0 0.000884973)
(0.00463184 0 0.000798076)
(0.00472582 0 0.000694186)
(0 0 0)
(0.000521659 0 0.00016101)
(0.000999613 0 0.000309682)
(0.00142501 0 0.000443967)
(0.00180388 0 0.000566042)
(0.00214155 0 0.000677553)
(0.00244273 0 0.000779668)
(0.0027116 0 0.000873123)
(0.00295191 0 0.000958258)
(0.00316697 0 0.00103504)
(0.0033598 0 0.00110309)
(0.00353307 0 0.00116166)
(0.00368923 0 0.0012097)
(0.00383046 0 0.00124583)
(0.00395879 0 0.00126839)
(0.00407601 0 0.0012755)
(0.00418383 0 0.00126511)
(0.00428382 0 0.00123519)
(0.00437749 0 0.00118391)
(0.00446636 0 0.00110996)
(0.00455203 0 0.00101295)
(0.00463625 0 0.000893965)
(0 0 0)
(0.000519226 0 0.000186873)
(0.000994892 0 0.000359468)
(0.00141814 0 0.00051544)
(0.00179493 0 0.000657356)
(0.00213052 0 0.000787168)
(0.00242957 0 0.000906282)
(0.0026962 0 0.00101562)
(0.00293406 0 0.00111565)
(0.00314644 0 0.00120643)
(0.00333624 0 0.00128763)
(0.00350608 0 0.00135853)
(0.00365831 0 0.00141806)
(0.00379505 0 0.00146476)
(0.00391818 0 0.00149687)
(0.00402943 0 0.00151231)
(0.00413038 0 0.00150875)
(0.0042225 0 0.00148376)
(0.00430719 0 0.00143492)
(0.00438589 0 0.00136015)
(0.0044601 0 0.00125808)
(0.00453154 0 0.00112864)
(0 0 0)
(0.000516468 0 0.00021227)
(0.000989543 0 0.000408368)
(0.00141036 0 0.000585681)
(0.00178482 0 0.000747168)
(0.00211809 0 0.0008951)
(0.00241477 0 0.00103114)
(0.00267891 0 0.0011564)
(0.00291409 0 0.00127152)
(0.00312352 0 0.00137669)
(0.00331004 0 0.00147167)
(0.00347617 0 0.00155583)
(0.00362418 0 0.00162812)
(0.00375606 0 0.00168713)
(0.00387362 0 0.00173106)
(0.00397846 0 0.00175773)
(0.00407201 0 0.00176464)
(0.00415559 0 0.00174903)
(0.00423043 0 0.00170794)
(0.00429773 0 0.00163845)
(0.00435875 0 0.001538)
(0.0044149 0 0.0014049)
(0 0 0)
(0.000513402 0 0.000237121)
(0.000983602 0 0.000456235)
(0.00140174 0 0.000654475)
(0.00177362 0 0.000835205)
(0.00210436 0 0.00100102)
(0.00239846 0 0.00115385)
(0.00265991 0 0.00129503)
(0.00289222 0 0.0014254)
(0.00309852 0 0.0015453)
(0.00328156 0 0.00165464)
(0.0034438 0 0.00175293)
(0.00358738 0 0.00183924)
(0.00371422 0 0.00191226)
(0.003826 0 0.00197027)
(0.00392419 0 0.00201114)
(0.00401008 0 0.00203234)
(0.0040848 0 0.00203091)
(0.00414935 0 0.00200351)
(0.00420464 0 0.00194652)
(0.00425151 0 0.00185614)
(0.00429086 0 0.00172881)
(0 0 0)
(0.000510045 0 0.000261347)
(0.000977105 0 0.000502912)
(0.00139232 0 0.000721598)
(0.00176142 0 0.000921174)
(0.00208943 0 0.00110457)
(0.00238078 0 0.00127399)
(0.00263939 0 0.00143103)
(0.00286869 0 0.00157671)
(0.00307173 0 0.0017116)
(0.00325119 0 0.00183579)
(0.00340942 0 0.00194897)
(0.0035485 0 0.00205042)
(0.00367025 0 0.00213903)
(0.00377622 0 0.00221327)
(0.00386776 0 0.0022712)
(0.00394602 0 0.00231044)
(0.00401195 0 0.00232809)
(0.00406631 0 0.00232069)
(0.00410968 0 0.0022842)
(0.00414247 0 0.00221388)
(0.00416492 0 0.00210446)
(0 0 0)
(0.000506418 0 0.000284863)
(0.000970091 0 0.000548234)
(0.00138218 0 0.000786809)
(0.0017483 0 0.00100476)
(0.00207342 0 0.00120536)
(0.0023619 0 0.0013911)
(0.00261754 0 0.00156383)
(0.00284374 0 0.00172481)
(0.00304345 0 0.00187483)
(0.00321928 0 0.00201421)
(0.00337352 0 0.00214289)
(0.00350813 0 0.00226041)
(0.00362486 0 0.00236593)
(0.00372517 0 0.00245826)
(0.0038103 0 0.0025358)
(0.00388126 0 0.00259651)
(0.00393885 0 0.00263784)
(0.00398364 0 0.00265661)
(0.00401595 0 0.00264882)
(0.00403582 0 0.00260947)
(0.00404292 0 0.00253226)
(0 0 0)
(0.000502536 0 0.000307581)
(0.000962597 0 0.000592031)
(0.00137136 0 0.000849858)
(0.00173435 0 0.00108564)
(0.00205646 0 0.00130298)
(0.00234194 0 0.00150467)
(0.00259456 0 0.00169283)
(0.00281761 0 0.00186896)
(0.00301399 0 0.00203411)
(0.00318623 0 0.00218886)
(0.00333654 0 0.00233342)
(0.00346683 0 0.00246764)
(0.00357876 0 0.00259108)
(0.00367372 0 0.00270293)
(0.00375286 0 0.00280209)
(0.0038171 0 0.00288708)
(0.00386716 0 0.00295597)
(0.00390348 0 0.00300628)
(0.00392625 0 0.00303473)
(0.00393533 0 0.00303693)
(0.00393015 0 0.00300689)
(0 0 0)
(0.000498416 0 0.000329412)
(0.000954656 0 0.000634131)
(0.00135992 0 0.000910493)
(0.00171965 0 0.00116347)
(0.00203863 0 0.00139701)
(0.00232106 0 0.0016142)
(0.00257061 0 0.0018174)
(0.00279052 0 0.00200841)
(0.00298362 0 0.00218852)
(0.00315236 0 0.00235859)
(0.00329891 0 0.00251915)
(0.00342512 0 0.0026704)
(0.00353258 0 0.0028123)
(0.00362262 0 0.00294455)
(0.00369637 0 0.00306663)
(0.0037547 0 0.00317778)
(0.00379828 0 0.00327696)
(0.00382755 0 0.00336276)
(0.00384273 0 0.00343322)
(0.00384376 0 0.00348558)
(0.00383027 0 0.00351576)
(0 0 0)
(0.000494065 0 0.000350289)
(0.000946287 0 0.000674405)
(0.0013479 0 0.000968527)
(0.00170425 0 0.00123802)
(0.00202003 0 0.00148715)
(0.00229935 0 0.00171929)
(0.00254584 0 0.00193708)
(0.00276265 0 0.00214258)
(0.00295254 0 0.00233734)
(0.00311794 0 0.00252251)
(0.00326094 0 0.00269894)
(0.00338336 0 0.00286721)
(0.00348675 0 0.00302771)
(0.00357242 0 0.00318066)
(0.00364147 0 0.00332622)
(0.00369478 0 0.00346442)
(0.00373307 0 0.00359525)
(0.00375684 0 0.00371863)
(0.00376648 0 0.00383438)
(0.00376225 0 0.00394212)
(0.00374431 0 0.00404106)
(0 0 0)
(0.000489456 0 0.000370326)
(0.000937434 0 0.000713086)
(0.00133521 0 0.0010243)
(0.00168805 0 0.00130971)
(0.00200053 0 0.0015739)
(0.0022767 0 0.00182052)
(0.00252011 0 0.00205249)
(0.00273385 0 0.00227212)
(0.00292064 0 0.00248122)
(0.00308284 0 0.00268123)
(0.00322252 0 0.00287332)
(0.00334146 0 0.00305844)
(0.00344119 0 0.00323742)
(0.00352303 0 0.00341103)
(0.00358808 0 0.00358006)
(0.00363728 0 0.00374538)
(0.00367141 0 0.00390804)
(0.00369114 0 0.00406938)
(0.00369708 0 0.00423111)
(0.00368989 0 0.0043955)
(0.00367041 0 0.00456566)
(0.000927982 0 0.000750524)
(0.00132169 0 0.00107835)
(0.00167082 0 0.00137923)
(0.00197987 0 0.00165807)
(0.00225281 0 0.00191882)
(0.00249311 0 0.00216463)
(0.0027038 0 0.00239809)
(0.00288757 0 0.00262125)
(0.00304671 0 0.00283585)
(0.00318328 0 0.00304334)
(0.00329904 0 0.00324504)
(0.00339553 0 0.00344219)
(0.00347406 0 0.00363607)
(0.0035358 0 0.00382806)
(0.00358174 0 0.00401982)
(0.00361278 0 0.00421335)
(0.00362974 0 0.00441126)
(0.00363351 0 0.00461696)
(0.00362508 0 0.00483507)
(0.00360579 0 0.00507196)
(0.00130732 0 0.00113026)
(0.00165255 0 0.00144608)
(0.00195805 0 0.00173908)
(0.00222768 0 0.00201347)
(0.00246485 0 0.00227267)
(0.00267255 0 0.00251951)
(0.00285339 0 0.0027563)
(0.00300965 0 0.002985)
(0.00314336 0 0.00320736)
(0.00325628 0 0.00342502)
(0.00334995 0 0.00363958)
(0.00342574 0 0.00385275)
(0.00348485 0 0.00406643)
(0.00352837 0 0.00428288)
(0.00355729 0 0.00450488)
(0.00357262 0 0.00473596)
(0.00357542 0 0.00498071)
(0.00356691 0 0.00524527)
(0.00354863 0 0.0055379)
(0.00163332 0 0.00150949)
(0.00193514 0 0.00181601)
(0.0022014 0 0.00210341)
(0.00243545 0 0.00237536)
(0.00264023 0 0.00263495)
(0.00281827 0 0.0028847)
(0.00297186 0 0.00312678)
(0.00310298 0 0.00336318)
(0.00321341 0 0.00359581)
(0.00330473 0 0.00382656)
(0.00337833 0 0.00405748)
(0.00343547 0 0.00429084)
(0.00347732 0 0.0045293)
(0.003505 0 0.0047761)
(0.00351961 0 0.00503527)
(0.00352235 0 0.00531193)
(0.0035145 0 0.00561271)
(0.00349756 0 0.00594611)
(0.00191119 0 0.00188815)
(0.00217401 0 0.00218783)
(0.00240495 0 0.00247177)
(0.00260689 0 0.00274332)
(0.0027823 0 0.00300522)
(0.00293341 0 0.00325974)
(0.00306223 0 0.00350911)
(0.00317054 0 0.00375541)
(0.00325994 0 0.00400077)
(0.00333187 0 0.00424744)
(0.00338765 0 0.00449789)
(0.00342852 0 0.00475499)
(0.00345567 0 0.00502207)
(0.00347031 0 0.0053032)
(0.00347367 0 0.00560332)
(0.00346705 0 0.00592857)
(0.00345182 0 0.00628581)
(0.00214554 0 0.00226585)
(0.00237334 0 0.00256096)
(0.00257253 0 0.00284367)
(0.00274547 0 0.00311675)
(0.00289432 0 0.00338261)
(0.00302111 0 0.00364363)
(0.00312765 0 0.00390205)
(0.00321556 0 0.00416011)
(0.00328632 0 0.00442013)
(0.0033413 0 0.00468463)
(0.0033818 0 0.00495641)
(0.00340908 0 0.00523864)
(0.00342438 0 0.00553495)
(0.00342898 0 0.0058495)
(0.00342413 0 0.00618693)
(0.00341114 0 0.00655152)
(0.00234079 0 0.0026422)
(0.00253724 0 0.00293506)
(0.00270779 0 0.00321817)
(0.00285458 0 0.00349405)
(0.00297962 0 0.0037652)
(0.00308473 0 0.00403393)
(0.00317155 0 0.00430247)
(0.0032416 0 0.0045731)
(0.0032963 0 0.00484821)
(0.003337 0 0.00513033)
(0.00336499 0 0.00542221)
(0.00338156 0 0.00572675)
(0.00338796 0 0.00604692)
(0.00338546 0 0.00638554)
(0.00337525 0 0.00674465)
(0.00266942 0 0.00330781)
(0.00281433 0 0.00359226)
(0.00293787 0 0.00387185)
(0.00304187 0 0.00414886)
(0.00312797 0 0.00442546)
(0.00319774 0 0.00470379)
(0.00325261 0 0.00498596)
(0.00329398 0 0.00527411)
(0.00332318 0 0.00557038)
(0.0033415 0 0.00587681)
(0.0033502 0 0.00619516)
(0.00335051 0 0.0065267)
(0.00334359 0 0.00687167)
(0.00277368 0 0.00367552)
(0.00289597 0 0.00396174)
(0.00299914 0 0.00424496)
(0.00308485 0 0.00452718)
(0.00315469 0 0.00481031)
(0.00321011 0 0.00509614)
(0.00325254 0 0.00538635)
(0.00328332 0 0.00568243)
(0.00330376 0 0.00598555)
(0.00331513 0 0.00629644)
(0.00331864 0 0.00661506)
(0.00331543 0 0.00694028)
(0.00295649 0 0.0043208)
(0.00304209 0 0.00460627)
(0.00311229 0 0.00489149)
(0.00316858 0 0.00517787)
(0.00321237 0 0.00546664)
(0.00324504 0 0.00575868)
(0.00326789 0 0.00605443)
(0.0032822 0 0.00635373)
(0.00328918 0 0.00665564)
(0.00328999 0 0.0069581)
(0.0030704 0 0.0049465)
(0.00312779 0 0.00523075)
(0.00317319 0 0.00551515)
(0.00320797 0 0.0058001)
(0.00323343 0 0.00608546)
(0.00325085 0 0.00637045)
(0.00326145 0 0.00665353)
(0.0032664 0 0.00693217)
(0.00308751 0 0.00525465)
(0.00313469 0 0.00553237)
(0.00317172 0 0.00580799)
(0.00319991 0 0.00608092)
(0.00322052 0 0.00635003)
(0.00323476 0 0.00661346)
(0.00324381 0 0.00686857)
(0.00313594 0 0.00578371)
(0.00316689 0 0.00604304)
(0.00319066 0 0.00629562)
(0.00320846 0 0.00653954)
(0.00322144 0 0.00677226)
(0.0031608 0 0.00620989)
(0.00318198 0 0.00643506)
(0.00319863 0 0.00664701)
(0.000927982 0 0.000750524)
(0.00132169 0 0.00107835)
(0.00167082 0 0.00137923)
(0.00197987 0 0.00165807)
(0.00225281 0 0.00191882)
(0.00249311 0 0.00216463)
(0.0027038 0 0.00239809)
(0.00288757 0 0.00262125)
(0.00304671 0 0.00283585)
(0.00318328 0 0.00304334)
(0.00329904 0 0.00324504)
(0.00339553 0 0.00344219)
(0.00347406 0 0.00363607)
(0.0035358 0 0.00382806)
(0.00358174 0 0.00401982)
(0.00361278 0 0.00421335)
(0.00362974 0 0.00441126)
(0.00363351 0 0.00461696)
(0.00362508 0 0.00483507)
(0.00360579 0 0.00507196)
(0.00130732 0 0.00113026)
(0.00165255 0 0.00144608)
(0.00195805 0 0.00173908)
(0.00222768 0 0.00201347)
(0.00246485 0 0.00227267)
(0.00267255 0 0.00251951)
(0.00285339 0 0.0027563)
(0.00300965 0 0.002985)
(0.00314336 0 0.00320736)
(0.00325628 0 0.00342502)
(0.00334995 0 0.00363958)
(0.00342574 0 0.00385275)
(0.00348485 0 0.00406643)
(0.00352837 0 0.00428288)
(0.00355729 0 0.00450488)
(0.00357262 0 0.00473596)
(0.00357542 0 0.00498071)
(0.00356691 0 0.00524527)
(0.00354863 0 0.0055379)
(0.00163332 0 0.00150949)
(0.00193514 0 0.00181601)
(0.0022014 0 0.00210341)
(0.00243545 0 0.00237536)
(0.00264023 0 0.00263495)
(0.00281827 0 0.0028847)
(0.00297186 0 0.00312678)
(0.00310298 0 0.00336318)
(0.00321341 0 0.00359581)
(0.00330473 0 0.00382656)
(0.00337833 0 0.00405748)
(0.00343547 0 0.00429084)
(0.00347732 0 0.0045293)
(0.003505 0 0.0047761)
(0.00351961 0 0.00503527)
(0.00352235 0 0.00531193)
(0.0035145 0 0.00561271)
(0.00349756 0 0.00594611)
(0.00191119 0 0.00188815)
(0.00217401 0 0.00218783)
(0.00240495 0 0.00247177)
(0.00260689 0 0.00274332)
(0.0027823 0 0.00300522)
(0.00293341 0 0.00325974)
(0.00306223 0 0.00350911)
(0.00317054 0 0.00375541)
(0.00325994 0 0.00400077)
(0.00333187 0 0.00424744)
(0.00338765 0 0.00449789)
(0.00342852 0 0.00475499)
(0.00345567 0 0.00502207)
(0.00347031 0 0.0053032)
(0.00347367 0 0.00560332)
(0.00346705 0 0.00592857)
(0.00345182 0 0.00628581)
(0.00214554 0 0.00226585)
(0.00237334 0 0.00256096)
(0.00257253 0 0.00284367)
(0.00274547 0 0.00311675)
(0.00289432 0 0.00338261)
(0.00302111 0 0.00364363)
(0.00312765 0 0.00390205)
(0.00321556 0 0.00416011)
(0.00328632 0 0.00442013)
(0.0033413 0 0.00468463)
(0.0033818 0 0.00495641)
(0.00340908 0 0.00523864)
(0.00342438 0 0.00553495)
(0.00342898 0 0.0058495)
(0.00342413 0 0.00618693)
(0.00341114 0 0.00655152)
(0.00234079 0 0.0026422)
(0.00253724 0 0.00293506)
(0.00270779 0 0.00321817)
(0.00285458 0 0.00349405)
(0.00297962 0 0.0037652)
(0.00308473 0 0.00403393)
(0.00317155 0 0.00430247)
(0.0032416 0 0.0045731)
(0.0032963 0 0.00484821)
(0.003337 0 0.00513033)
(0.00336499 0 0.00542221)
(0.00338156 0 0.00572675)
(0.00338796 0 0.00604692)
(0.00338546 0 0.00638554)
(0.00337525 0 0.00674465)
(0.00266942 0 0.00330781)
(0.00281433 0 0.00359226)
(0.00293787 0 0.00387185)
(0.00304187 0 0.00414886)
(0.00312797 0 0.00442546)
(0.00319774 0 0.00470379)
(0.00325261 0 0.00498596)
(0.00329398 0 0.00527411)
(0.00332318 0 0.00557038)
(0.0033415 0 0.00587681)
(0.0033502 0 0.00619516)
(0.00335051 0 0.0065267)
(0.00334359 0 0.00687167)
(0.00277368 0 0.00367552)
(0.00289597 0 0.00396174)
(0.00299914 0 0.00424496)
(0.00308485 0 0.00452718)
(0.00315469 0 0.00481031)
(0.00321011 0 0.00509614)
(0.00325254 0 0.00538635)
(0.00328332 0 0.00568243)
(0.00330376 0 0.00598555)
(0.00331513 0 0.00629644)
(0.00331864 0 0.00661506)
(0.00331543 0 0.00694028)
(0.00295649 0 0.0043208)
(0.00304209 0 0.00460627)
(0.00311229 0 0.00489149)
(0.00316858 0 0.00517787)
(0.00321237 0 0.00546664)
(0.00324504 0 0.00575868)
(0.00326789 0 0.00605443)
(0.0032822 0 0.00635373)
(0.00328918 0 0.00665564)
(0.00328999 0 0.0069581)
(0.0030704 0 0.0049465)
(0.00312779 0 0.00523075)
(0.00317319 0 0.00551515)
(0.00320797 0 0.0058001)
(0.00323343 0 0.00608546)
(0.00325085 0 0.00637045)
(0.00326145 0 0.00665353)
(0.0032664 0 0.00693217)
(0.00308751 0 0.00525465)
(0.00313469 0 0.00553237)
(0.00317172 0 0.00580799)
(0.00319991 0 0.00608092)
(0.00322052 0 0.00635003)
(0.00323476 0 0.00661346)
(0.00324381 0 0.00686857)
(0.00313594 0 0.00578371)
(0.00316689 0 0.00604304)
(0.00319066 0 0.00629562)
(0.00320846 0 0.00653954)
(0.00322144 0 0.00677226)
(0.0031608 0 0.00620989)
(0.00318198 0 0.00643506)
(0.00319863 0 0.00664701)
)
;

boundaryField
{
    inlet
    {
        type            fixedValue;
        value           uniform (0 0 0);
    }
    outlet
    {
        type            fixedValue;
        value           nonuniform 0();
    }
    flap
    {
        type            fixedValue;
        value           nonuniform 0();
    }
    upperWall
    {
        type            slip;
    }
    lowerWall
    {
        type            slip;
    }
    frontAndBack
    {
        type            empty;
    }
    procBoundary3to0
    {
        type            processor;
    }
    procBoundary3to1
    {
        type            processor;
    }
    procBoundary3to4
    {
        type            processor;
    }
}


// ************************************************************************* //
