/*--------------------------------*- C++ -*----------------------------------*\
| =========                 |                                                 |
| \\      /  F ield         | OpenFOAM: The Open Source CFD Toolbox           |
|  \\    /   O peration     | Version:  dev                                   |
|   \\  /    A nd           | Web:      www.OpenFOAM.org                      |
|    \\/     M anipulation  |                                                 |
\*---------------------------------------------------------------------------*/
FoamFile
{
    version     2.0;
    format      ascii;
    class       surfaceScalarField;
    location    "1.06";
    object      meshPhi;
}
// * * * * * * * * * * * * * * * * * * * * * * * * * * * * * * * * * * * * * //

dimensions      [0 3 -1 0 0 0 0];

internalField   nonuniform List<scalar> 
879
(
0.00022525
1.03534e-06
0.000240529
4.14248e-07
0.000256573
-4.42963e-07
0.000272651
-1.47498e-06
0.000287796
-2.75568e-06
0.000300819
-4.11288e-06
0.000310613
-5.48319e-06
0.000316257
-6.77937e-06
0.000317024
-7.88132e-06
0.000312488
-8.76595e-06
0.000302433
-9.34265e-06
0.000286899
-9.61125e-06
0.00026603
-9.55772e-06
0.000240159
-9.19878e-06
0.000209703
-8.52476e-06
0.000174975
-7.5595e-06
0.000136329
-6.33385e-06
9.41315e-05
-4.84123e-06
4.8488e-05
-3.08661e-06
-1.08035e-06
0.000223286
1.92042e-06
0.000238826
7.3846e-07
0.000255224
-9.82749e-07
0.000271697
-3.08604e-06
0.00028718
-5.59987e-06
0.000300509
-8.2843e-06
0.000310516
-1.09381e-05
0.00031628
-1.34473e-05
0.000317135
-1.56253e-05
0.000312629
-1.73431e-05
0.000302584
-1.84831e-05
0.000287034
-1.89992e-05
0.000266131
-1.88765e-05
0.000240218
-1.81608e-05
0.000209714
-1.68321e-05
0.000174958
-1.49314e-05
0.0001363
-1.25116e-05
9.40876e-05
-9.56953e-06
4.84498e-05
-6.10575e-06
-2.13701e-06
0.000216809
2.46192e-06
0.000233153
7.14529e-07
0.00025038
-1.85316e-06
0.000267666
-5.01544e-06
0.000283829
-8.64283e-06
0.000297723
-1.2532e-05
0.000308229
-1.6389e-05
0.000314412
-2.00089e-05
0.000315618
-2.31695e-05
0.00031137
-2.56247e-05
0.00030153
-2.72788e-05
0.000286138
-2.80163e-05
0.00026537
-2.78199e-05
0.000239564
-2.67527e-05
0.000209139
-2.48052e-05
0.000174474
-2.20223e-05
0.000135922
-1.84578e-05
9.38117e-05
-1.41226e-05
4.82939e-05
-9.01358e-06
-3.15436e-06
0.000206167
2.52043e-06
0.00022376
1.50185e-07
0.000242165
-3.22614e-06
0.000260519
-7.36036e-06
0.000277634
-1.20024e-05
0.000292359
-1.69585e-05
0.000303627
-2.19035e-05
0.000310482
-2.65007e-05
0.000312265
-3.05129e-05
0.000308533
-3.3623e-05
0.000299107
-3.56976e-05
0.000284061
-3.66255e-05
0.000263613
-3.63644e-05
0.000238095
-3.49568e-05
0.00020792
-3.24191e-05
0.000173491
-2.87974e-05
0.000135173
-2.41403e-05
9.32949e-05
-1.84714e-05
4.80221e-05
-1.17879e-05
-4.12424e-06
0.000193238
1.99796e-06
0.000212237
-1.00634e-06
0.000231954
-5.14325e-06
0.000251474
-1.01352e-05
0.000269682
-1.57184e-05
0.00028541
-2.16177e-05
0.000297569
-2.74828e-05
0.000305236
-3.29277e-05
0.000307714
-3.76439e-05
0.000304606
-4.13239e-05
0.000295735
-4.37578e-05
0.000281175
-4.48352e-05
0.000261167
-4.44967e-05
0.000236051
-4.27576e-05
0.000206238
-3.96499e-05
0.000172144
-3.52234e-05
0.000134148
-2.95269e-05
9.25904e-05
-2.25904e-05
4.76543e-05
-1.44125e-05
-5.04082e-06
0.000179332
8.53083e-07
0.000199699
-2.7646e-06
0.00022071
-7.6073e-06
0.00024141
-1.33558e-05
0.000260704
-1.97542e-05
0.000277435
-2.64681e-05
0.000290495
-3.31003e-05
0.000298997
-3.92692e-05
0.000302242
-4.45828e-05
0.000299828
-4.87303e-05
0.000291602
-5.14644e-05
0.000277628
-5.26414e-05
0.000258147
-5.21941e-05
0.000233514
-5.01242e-05
0.000204145
-4.64665e-05
0.000170465
-4.12727e-05
0.00013287
-3.45924e-05
9.1713e-05
-2.64595e-05
4.71971e-05
-1.68744e-05
-5.89954e-06
0.000165599
-8.71253e-07
0.000187153
-5.07844e-06
0.000209286
-1.05573e-05
0.000231039
-1.69803e-05
0.000251292
-2.40659e-05
0.000268916
-3.14733e-05
0.000282827
-3.87638e-05
0.000292129
-4.55252e-05
0.000296145
-5.13365e-05
0.000294458
-5.58501e-05
0.000286909
-5.88007e-05
0.000273563
-6.00226e-05
0.000254662
-5.94368e-05
0.000230567
-5.7034e-05
0.000201702
-5.28463e-05
0.0001685
-4.69243e-05
0.000131371
-3.93182e-05
9.06833e-05
-3.0064e-05
4.66609e-05
-1.91642e-05
-6.69708e-06
0.000152915
-3.10859e-06
0.000175375
-7.86975e-06
0.000198367
-1.39244e-05
0.000220929
-2.09516e-05
0.000241957
-2.8643e-05
0.000260324
-3.66323e-05
0.000274974
-4.44676e-05
0.000285
-5.16971e-05
0.000289726
-5.78856e-05
0.000288728
-6.2664e-05
0.00028184
-6.57507e-05
0.000269125
-6.69633e-05
0.000250823
-6.62101e-05
0.000227297
-6.34715e-05
0.000198975
-5.87736e-05
0.000166298
-5.21642e-05
0.000129686
-4.36919e-05
8.95243e-05
-3.33942e-05
4.60573e-05
-2.12757e-05
-7.43132e-06
0.000141854
-5.77668e-06
0.000164909
-1.10711e-05
0.000188476
-1.76696e-05
0.000211589
-2.52377e-05
0.000233166
-3.34539e-05
0.000252088
-4.192e-05
0.000267304
-5.01769e-05
0.000277914
-5.77549e-05
0.000283237
-6.42082e-05
0.000282845
-6.91549e-05
0.000276564
-7.23015e-05
0.00026445
-7.34526e-05
0.000246738
-7.25047e-05
0.000223788
-6.94278e-05
0.000196028
-6.42402e-05
0.000163907
-5.69845e-05
0.000127851
-4.77068e-05
8.82599e-05
-3.64449e-05
4.53986e-05
-2.32058e-05
-8.10126e-06
0.000132759
-8.80139e-06
0.000156122
-1.46339e-05
0.000179986
-2.17456e-05
0.000203392
-2.97946e-05
0.00022527
-3.84466e-05
0.000244518
-4.72881e-05
0.000260097
-5.58543e-05
0.000271115
-6.36692e-05
0.00027689
-7.0283e-05
0.00027699
-7.53082e-05
0.000271232
-7.84437e-05
0.000259662
-7.94847e-05
0.000242506
-7.8317e-05
0.000220119
-7.49001e-05
0.000192926
-6.92436e-05
0.000161375
-6.13832e-05
0.000125901
-5.13613e-05
8.69138e-05
-3.92152e-05
4.46971e-05
-2.49541e-05
-8.70694e-06
0.000125783
-1.21504e-05
0.000149208
-1.85151e-05
0.000173114
-2.61012e-05
0.00019656
-3.45691e-05
0.000218492
-4.35732e-05
0.000237832
-5.26933e-05
0.000253558
-6.14647e-05
0.000264791
-6.94132e-05
0.000270853
-7.60915e-05
0.000271309
-8.11123e-05
0.000265969
-8.41715e-05
0.000254866
-8.50578e-05
0.000238217
-8.3648e-05
0.000216363
-7.9891e-05
0.000189725
-7.3787e-05
0.000158749
-6.53637e-05
0.00012387
-5.46587e-05
8.55088e-05
-4.1708e-05
4.39645e-05
-2.6523e-05
-9.24924e-06
0.000120935
-1.58097e-05
0.000144215
-2.26829e-05
0.000167946
-3.06979e-05
0.000191201
-3.95193e-05
0.000212957
-4.8793e-05
0.000232162
-5.80985e-05
0.00024782
-6.69773e-05
0.000259071
-7.49636e-05
0.000265248
-8.16181e-05
0.000265915
-8.65588e-05
0.000260875
-8.94827e-05
0.00025015
-9.01744e-05
0.000233942
-8.8503e-05
0.000212582
-8.44076e-05
0.000186477
-7.78781e-05
0.000156067
-6.89337e-05
0.000121789
-5.76059e-05
8.40657e-05
-4.39292e-05
4.32117e-05
-2.79166e-05
-9.72982e-06
0.000118132
-1.97699e-05
0.000141105
-2.71176e-05
0.000164476
-3.55083e-05
0.000187342
-4.4613e-05
0.000208711
-5.40726e-05
0.00022757
-6.34724e-05
0.000242956
-7.23658e-05
0.000254033
-8.03008e-05
0.000260152
-8.68506e-05
0.000260882
-9.16426e-05
0.000256021
-9.4378e-05
0.000245579
-9.48399e-05
0.000229743
-9.28909e-05
0.000208826
-8.84606e-05
0.000183224
-8.15284e-05
0.000153365
-7.21042e-05
0.000119683
-6.02132e-05
8.26031e-05
-4.58873e-05
4.24484e-05
-2.91409e-05
-1.01509e-05
0.000117247
-2.40346e-05
0.000139783
-3.18071e-05
0.000162641
-4.05131e-05
0.000184942
-4.98255e-05
0.000205739
-5.93843e-05
0.000224061
-6.87878e-05
0.000238984
-7.76073e-05
0.000249709
-8.5408e-05
0.000255608
-9.1779e-05
0.000256258
-9.63604e-05
0.000251456
-9.88606e-05
0.000241201
-9.90624e-05
0.000225662
-9.68232e-05
0.000205137
-9.20636e-05
0.000180002
-8.47521e-05
0.000150674
-7.48894e-05
0.000117577
-6.24932e-05
8.11371e-05
-4.75925e-05
4.16829e-05
-3.02029e-05
-1.0515e-05
0.000118121
-2.85921e-05
0.000140122
-3.67704e-05
0.000162329
-4.5733e-05
0.000183896
-5.51721e-05
0.000203946
-6.47442e-05
0.000221552
-7.40665e-05
0.000235834
-8.27268e-05
0.000246039
-9.03144e-05
0.000251565
-9.64369e-05
0.000252002
-0.00010075
0.000247147
-0.000102971
0.00023699
-0.000102885
0.000221683
-0.000100344
0.000201502
-9.52602e-05
0.000176805
-8.75909e-05
0.000147991
-7.73267e-05
0.000115474
-6.44781e-05
7.9672e-05
-4.90705e-05
4.09194e-05
-3.11199e-05
-1.08286e-05
0.000103912
-2.58419e-05
0.000125349
-3.35932e-05
0.000147548
-4.21216e-05
0.000169819
-5.12713e-05
0.000191291
-6.07523e-05
0.000211163
-7.02382e-05
0.000228532
-7.93869e-05
0.000242529
-8.78019e-05
0.00025242
-9.5098e-05
0.00025762
-0.000100907
0.000257721
-0.000104899
0.00025251
-0.000106798
0.000241967
-0.000106393
0.000226233
-0.000103534
0.000205574
-9.8124e-05
0.000180337
-9.01104e-05
0.000150918
-7.94728e-05
0.000117733
-6.6214e-05
8.121e-05
-5.03552e-05
4.16951e-05
-3.19122e-05
-1.10984e-05
0.000111376
0.000132948
0.000155002
-4.79339e-05
0.000176834
-5.72366e-05
0.000197668
-6.66215e-05
0.000216868
-7.58928e-05
0.000233541
-8.47736e-05
0.000246848
-9.28641e-05
0.000256089
-9.97968e-05
0.000260704
-0.000105229
0.000260303
-0.000108847
0.000254674
-0.000110382
0.000243789
-0.00010963
0.000227771
-0.000106436
0.000206864
-0.000100696
0.000181402
-9.23471e-05
0.000151766
-8.13592e-05
0.000118364
-6.77268e-05
8.16219e-05
-5.14666e-05
4.18921e-05
-3.25933e-05
-1.13293e-05
0.000164156
0.000185645
0.000205709
-7.27295e-05
0.000223984
-8.17292e-05
0.000239777
-9.02285e-05
0.000252202
-9.79243e-05
0.000260616
-0.000104427
0.000264468
-0.00010942
0.000263399
-0.000112604
0.000257214
-0.000113736
0.000245875
-0.000112613
0.000229482
-0.000109069
0.000208263
-0.000102996
0.000182529
-9.43217e-05
0.000152643
-8.30036e-05
0.000119005
-6.90316e-05
8.20361e-05
-5.24164e-05
4.20891e-05
-3.31709e-05
-1.1524e-05
0.000215218
0.000232595
-8.76092e-05
0.000247303
-9.58089e-05
0.00025863
-0.000103008
0.000266053
-0.000109008
0.000268958
-0.000113503
0.000267068
-0.000116196
0.000260191
-0.000116884
0.000248279
-0.000115358
0.00023142
-0.000111452
0.000209823
-0.00010505
0.000183763
-9.60578e-05
0.000153587
-8.44282e-05
0.000119685
-7.01467e-05
8.24719e-05
-5.3219e-05
4.2296e-05
-3.36542e-05
-1.16859e-05
0.000242134
0.000255999
0.00026625
-0.000108066
0.000272468
-0.000113622
0.000274199
-0.000117511
0.000271339
-0.00011964
0.000263643
-0.000119848
0.000251041
-0.000117891
0.000233624
-0.000113606
0.000211575
-0.000106868
0.000185137
-9.75721e-05
0.000154628
-8.56532e-05
0.000120428
-7.10903e-05
8.29464e-05
-5.38886e-05
4.25219e-05
-3.40528e-05
-1.18184e-05
0.000274503
0.000279765
0.000280261
-0.000121386
0.000276229
-0.000122975
0.0002676
-0.000122646
0.000254194
-0.000120242
0.000236118
-0.000115551
0.000213533
-0.000108465
0.000186663
-9.88732e-05
0.000155789
-8.66903e-05
0.000121258
-7.18778e-05
8.34766e-05
-5.44389e-05
4.27762e-05
-3.43758e-05
-1.19248e-05
0.000286903
0.000281795
-0.000126042
0.000272108
-0.00012533
0.000257755
-0.000122432
0.00023893
-0.000117306
0.000215726
-0.000109868
0.00018835
-9.99742e-05
0.000157064
-8.7537e-05
0.000122183
-7.25099e-05
8.40828e-05
-5.48797e-05
4.3072e-05
-3.46337e-05
-1.20093e-05
0.000287581
0.000277095
0.000261782
-0.000124422
0.000242079
-0.000118908
0.00021819
-0.000111093
0.000190229
-0.000100901
0.000158464
-8.82099e-05
0.000123193
-7.29841e-05
8.47541e-05
-5.51962e-05
4.34117e-05
-3.4817e-05
-1.20696e-05
0.000266123
0.000245612
-0.000120231
0.000220961
-0.000112174
0.000192333
-0.000101672
0.000160029
-8.87278e-05
0.000124298
-7.33148e-05
8.54619e-05
-5.5384e-05
4.37641e-05
-3.49057e-05
-1.20944e-05
0.000249272
0.000224011
0.000194706
-0.000102253
0.000161781
-8.91077e-05
0.000125536
-7.35134e-05
8.62325e-05
-5.54672e-05
4.41238e-05
-3.49185e-05
-1.20901e-05
0.00019728
0.000163751
-8.92537e-05
0.000126935
-7.35893e-05
8.71105e-05
-5.54527e-05
4.45355e-05
-3.48706e-05
-1.20666e-05
0.000165833
0.000128491
8.81205e-05
-5.53079e-05
4.50182e-05
-3.47586e-05
-1.20169e-05
8.92342e-05
4.55691e-05
-3.45219e-05
-1.19383e-05
4.61665e-05
-1.17949e-05
)
;

boundaryField
{
    inlet
    {
        type            calculated;
        value           nonuniform 0();
    }
    outlet
    {
        type            calculated;
        value           uniform 0;
    }
    flap
    {
        type            calculated;
        value           nonuniform 0();
    }
    upperWall
    {
        type            calculated;
        value           nonuniform 0();
    }
    lowerWall
    {
        type            calculated;
        value           uniform 0;
    }
    frontAndBack
    {
        type            empty;
        value           nonuniform 0();
    }
    procBoundary5to2
    {
        type            processor;
        value           nonuniform List<scalar> 
34
(
-3.07206e-05
-3.90005e-05
-0.000142095
-5.36278e-05
-6.32814e-05
-0.00019552
-7.84997e-05
-0.000225104
-9.26595e-05
-0.000101017
-0.000264779
-0.000112165
-0.000117773
-0.000287018
-0.00012448
-0.000293076
-0.000128095
-0.000127507
-0.000281925
-0.000125722
-0.000270124
-0.000120734
-0.000112826
-0.000227014
-0.000102304
-0.000199747
-8.88245e-05
-7.33617e-05
-0.000130084
-5.48516e-05
-9.03566e-05
-3.40524e-05
-4.67714e-05
-1.15647e-05
)
;
    }
    procBoundary5to4
    {
        type            processor;
        value           nonuniform List<scalar> 
18
(
-0.000209128
-0.000206735
-0.000199504
-0.000187908
-0.00017393
-0.000159033
-0.000144485
-0.000131207
-0.000119797
-0.00011057
-0.000103624
-9.89239e-05
-9.63663e-05
-9.58186e-05
-9.70785e-05
2.13719e-05
-8.35362e-05
-9.06824e-05
)
;
    }
}


// ************************************************************************* //
