/*--------------------------------*- C++ -*----------------------------------*\
| =========                 |                                                 |
| \\      /  F ield         | OpenFOAM: The Open Source CFD Toolbox           |
|  \\    /   O peration     | Version:  dev                                   |
|   \\  /    A nd           | Web:      www.OpenFOAM.org                      |
|    \\/     M anipulation  |                                                 |
\*---------------------------------------------------------------------------*/
FoamFile
{
    version     2.0;
    format      ascii;
    class       surfaceVectorField;
    location    "1.6";
    object      Uf;
}
// * * * * * * * * * * * * * * * * * * * * * * * * * * * * * * * * * * * * * //

dimensions      [0 1 -1 0 0 0 0];

internalField   nonuniform List<vector> 
5457
(
(9.91376 -1.34583e-19 0.02123)
(9.96985 8.39925e-21 0.0358694)
(9.82296 -7.46961e-20 0.0263728)
(9.93323 8.77503e-21 0.0390125)
(9.72416 2.52451e-20 0.0303412)
(9.87467 -1.87969e-20 0.0441386)
(9.61483 1.73141e-19 0.0344131)
(9.79958 5.74659e-20 0.0507867)
(9.49499 -2.6849e-20 0.0385643)
(9.71272 -3.71131e-20 0.0578381)
(9.3649 -9.98972e-20 0.0428382)
(9.61506 -1.02203e-19 0.0651959)
(9.22437 -4.49102e-20 0.0473675)
(9.50613 1.65163e-19 0.0730899)
(9.07289 -1.36968e-19 0.0522745)
(9.38534 -1.16622e-21 0.0817203)
(8.90977 7.1679e-21 0.0576653)
(9.25212 -4.75138e-20 0.0912447)
(8.73416 4.33848e-20 0.0636484)
(9.1058 9.56547e-20 0.101826)
(8.54504 -7.52063e-20 0.0703445)
(8.94552 -4.95856e-20 0.113649)
(8.34122 -2.55826e-20 0.0778894)
(8.77024 -1.07115e-21 0.126925)
(8.12131 7.27013e-21 0.0864377)
(8.57872 -2.59996e-20 0.141894)
(7.88377 7.01759e-21 0.0961671)
(8.36954 3.51974e-22 0.158829)
(7.62684 0 0.107283)
(8.1411 0 0.178039)
(7.34856 3.07425e-19 0.120023)
(7.89159 2.96761e-20 0.199879)
(7.04678 1.33652e-20 0.134655)
(7.61896 2.71054e-19 0.224746)
(6.71912 -3.50039e-19 0.151481)
(7.32098 -2.78955e-19 0.253059)
(6.36307 -1.5368e-19 0.170852)
(6.99515 -1.43154e-19 0.285273)
(5.9759 -2.49047e-19 0.193164)
(6.63879 -6.40171e-21 0.321898)
(5.55478 -9.05347e-19 0.218845)
(6.24906 -1.48124e-20 0.363428)
(5.09683 6.54485e-19 0.248355)
(5.82288 -4.03143e-19 0.410294)
(4.59926 1.35024e-18 0.282205)
(5.35707 1.52453e-18 0.462836)
(4.05942 -8.83132e-19 0.320966)
(4.8484 1.59858e-20 0.52124)
(3.47489 -3.88502e-19 0.365257)
(4.29351 -8.87847e-19 0.585422)
(2.84362 -1.6607e-18 0.41567)
(3.6889 3.45988e-18 0.654779)
(2.164 1.65037e-19 0.472407)
(3.03044 -1.29789e-17 0.727505)
(1.43575 -2.65275e-18 0.532817)
(2.31213 9.98756e-18 0.798311)
(0.659629 -6.38894e-18 0.540221)
(1.50844 -1.33153e-17 0.851234)
(0.789394 9.60149e-18 0.749839)
(10.0064 1.51404e-19 0.0414569)
(10.0013 1.45328e-19 0.0331787)
(9.98323 6.40431e-20 0.0527974)
(9.99423 -2.7063e-19 0.0488922)
(9.94562 1.5049e-20 0.0622)
(9.9684 3.42437e-19 0.0608684)
(9.89498 -1.54704e-19 0.0723406)
(9.92623 -1.11899e-19 0.0742329)
(9.83133 -1.13784e-19 0.0831121)
(9.87128 -3.46473e-19 0.0884772)
(9.75483 1.68137e-19 0.0945541)
(9.80461 1.58516e-19 0.103451)
(9.66539 2.05698e-19 0.106942)
(9.72606 -8.21464e-20 0.11952)
(9.56267 8.74091e-20 0.120549)
(9.63514 2.12263e-19 0.137057)
(9.4461 4.36574e-20 0.13562)
(9.53139 4.44921e-20 0.156377)
(9.31496 0 0.15242)
(9.41425 -9.12402e-20 0.177805)
(9.16834 2.54378e-20 0.171244)
(9.28298 9.46609e-20 0.201713)
(9.00515 -1.92881e-21 0.192432)
(9.13667 2.49872e-20 0.228525)
(8.8241 -3.24542e-20 0.216365)
(8.97421 -4.12881e-19 0.258725)
(8.62373 -6.67465e-21 0.243483)
(8.79434 3.89661e-19 0.292863)
(8.40235 3.01904e-20 0.274284)
(8.59559 0 0.331573)
(8.15806 -2.55384e-21 0.309338)
(8.37631 -2.82507e-20 0.37558)
(7.8887 -3.06636e-20 0.349269)
(8.13461 -3.11894e-20 0.425715)
(7.59187 -6.97258e-20 0.394747)
(7.86838 -1.14916e-18 0.482875)
(7.26496 6.48955e-21 0.446512)
(7.57514 4.45359e-20 0.548026)
(6.90506 2.27967e-19 0.50536)
(7.25227 8.9852e-19 0.622284)
(6.50902 4.81271e-19 0.572051)
(6.89689 1.53848e-19 0.706819)
(6.07339 4.95776e-19 0.647265)
(6.50558 2.50088e-18 0.802735)
(5.59451 1.7087e-19 0.731567)
(6.07457 -2.39514e-18 0.911069)
(5.06834 0 0.825355)
(5.59952 -6.79677e-19 1.03271)
(4.49023 2.99898e-18 0.928756)
(5.07525 -7.17264e-19 1.16828)
(3.85444 -7.96302e-18 1.04138)
(4.49506 2.9641e-18 1.31807)
(3.15233 -3.12217e-18 1.16224)
(3.84933 -1.08129e-17 1.48177)
(2.36702 -4.79838e-19 1.29261)
(3.12265 -7.81428e-18 1.65862)
(1.44752 3.27436e-18 1.45528)
(2.27031 6.09814e-18 1.85563)
(1.37094 -1.00527e-17 2.10748)
(9.99942 -2.84855e-19 0.0431663)
(9.99914 -5.59521e-19 0.0334327)
(9.98021 2.11755e-20 0.0602458)
(9.98957 5.38665e-19 0.057186)
(9.94639 2.05814e-19 0.0757886)
(9.96486 1.08625e-19 0.0760415)
(9.90074 -3.08545e-19 0.0924929)
(9.92572 -1.4859e-19 0.0955171)
(9.84359 -6.39892e-20 0.11039)
(9.87449 -7.79965e-20 0.11616)
(9.77492 -9.65168e-20 0.129567)
(9.81216 1.58222e-19 0.137979)
(9.69463 -6.99268e-20 0.15039)
(9.73883 -2.47404e-19 0.161403)
(9.60246 1.66182e-19 0.17325)
(9.65415 7.07307e-22 0.186923)
(9.49796 -9.29455e-20 0.198534)
(9.55771 3.51444e-19 0.214992)
(9.38052 6.82183e-21 0.226666)
(9.44906 -7.24823e-19 0.246083)
(9.24935 9.29623e-20 0.25813)
(9.32763 3.73731e-19 0.280731)
(9.10354 -3.93806e-19 0.29348)
(9.19264 -9.71076e-20 0.319547)
(8.94199 2.33976e-20 0.333352)
(9.04322 -2.862e-19 0.363226)
(8.76344 3.896e-19 0.378474)
(8.87832 -4.75417e-19 0.412565)
(8.56644 -5.8906e-20 0.429683)
(8.69676 8.66385e-19 0.468483)
(8.34935 -5.69345e-20 0.487946)
(8.49718 -9.74255e-19 0.532036)
(8.11026 -1.16821e-18 0.554357)
(8.27804 9.39071e-19 0.604471)
(7.84701 -1.01557e-18 0.630081)
(8.03768 -3.14123e-18 0.687188)
(7.55715 9.49793e-19 0.71642)
(7.77389 3.98037e-18 0.781649)
(7.23799 8.1293e-19 0.814862)
(7.48434 1.13481e-18 0.889572)
(6.88633 2.20744e-18 0.926946)
(7.16662 -4.50193e-18 1.01298)
(6.49842 -4.54925e-19 1.05416)
(6.81748 4.50662e-18 1.15393)
(6.06984 -3.22174e-18 1.19793)
(6.43304 2.40499e-18 1.31457)
(5.59515 -1.3956e-18 1.35964)
(6.00849 -5.8147e-19 1.49716)
(5.06711 -7.10428e-19 1.54072)
(5.5375 -5.38462e-18 1.70419)
(4.47529 0 1.74316)
(5.01115 -1.39471e-18 1.93885)
(3.80286 -1.54087e-17 1.9709)
(4.41626 0 2.20616)
(3.01847 -1.53459e-18 2.23246)
(3.73122 -1.52779e-18 2.51711)
(2.08519 -7.78776e-18 2.59966)
(2.94019 1.62051e-18 2.88146)
(1.87383 -1.85115e-17 3.50469)
(9.99475 2.85374e-19 0.0479644)
(9.99777 4.88285e-19 0.0356304)
(9.9757 6.16809e-19 0.0723869)
(9.9861 2.97527e-19 0.0654167)
(9.94261 -2.51271e-19 0.0950236)
(9.961 -1.79593e-19 0.0909062)
(9.89785 8.34012e-20 0.118393)
(9.92277 -2.21849e-19 0.116418)
(9.84203 1.48993e-19 0.143012)
(9.87279 4.57165e-19 0.143235)
(9.77518 -6.01978e-22 0.169205)
(9.81191 4.9252e-22 0.171641)
(9.69726 -1.71976e-19 0.197473)
(9.74046 -4.87441e-19 0.202118)
(9.60808 1.92563e-19 0.228347)
(9.65816 3.3274e-19 0.23525)
(9.50733 -3.00433e-19 0.262364)
(9.56471 3.21331e-21 0.271605)
(9.39453 -3.37939e-19 0.300106)
(9.45974 -2.77251e-19 0.311781)
(9.26909 1.75243e-19 0.342231)
(9.34279 2.7917e-19 0.356455)
(9.13028 7.17324e-21 0.389485)
(9.21327 7.72895e-19 0.40639)
(8.97727 -7.88238e-19 0.442719)
(9.07048 -7.90515e-19 0.46245)
(8.80907 2.42911e-20 0.502913)
(8.91363 6.36342e-20 0.525631)
(8.6246 -8.00365e-20 0.571192)
(8.74182 -1.17253e-20 0.597084)
(8.42262 5.35328e-20 0.64887)
(8.55403 -8.60908e-19 0.678121)
(8.20174 -1.10075e-18 0.737496)
(8.34908 -9.28624e-19 0.770308)
(7.96026 1.96771e-18 0.838756)
(8.12591 1.98221e-18 0.875536)
(7.69619 4.1218e-18 0.954475)
(7.88293 3.90254e-18 0.995767)
(7.40741 -4.26081e-18 1.08686)
(7.6181 3.44751e-19 1.13317)
(7.09133 -2.07493e-18 1.23845)
(7.32971 -1.1027e-17 1.29057)
(6.74461 7.32796e-18 1.41191)
(7.01536 6.80698e-18 1.47116)
(6.36301 5.00716e-18 1.61017)
(6.67173 4.95743e-18 1.67837)
(5.94083 -4.6048e-18 1.83658)
(6.29455 7.10269e-19 1.91631)
(5.47006 -6.03182e-18 2.09531)
(5.87794 -5.89926e-18 2.19)
(4.93875 -1.38882e-18 2.39258)
(5.41331 -9.26951e-18 2.50625)
(4.32897 1.36777e-17 2.74044)
(4.8889 2.14378e-17 2.87531)
(3.60472 1.8084e-18 3.14872)
(4.27683 2.7806e-18 3.32117)
(2.80001 -9.92778e-18 3.7112)
(3.65211 -1.69478e-18 3.80188)
(2.44476 -8.73139e-18 4.76061)
(9.99229 4.96889e-19 0.0536533)
(9.99703 1.04723e-18 0.0388497)
(9.97273 -5.09419e-19 0.0841397)
(9.98409 -1.07286e-18 0.0738753)
(9.94021 -1.51048e-19 0.112798)
(9.95871 0 0.105525)
(9.89626 1.65925e-19 0.142009)
(9.92124 2.91197e-19 0.136952)
(9.84158 2.99539e-19 0.172723)
(9.87249 4.55475e-19 0.169781)
(9.77627 -4.95992e-19 0.205472)
(9.81314 -3.10618e-19 0.204563)
(9.70029 3.30178e-20 0.240849)
(9.74355 -4.87647e-19 0.24186)
(9.61351 1.37271e-19 0.279475)
(9.66357 1.69815e-19 0.282341)
(9.51566 2.11936e-20 0.321988)
(9.57291 -3.48538e-19 0.326665)
(9.40637 3.50232e-19 0.369089)
(9.47127 1.24726e-18 0.375541)
(9.28516 8.85679e-19 0.42156)
(9.35829 -7.29433e-19 0.429768)
(9.15146 -5.21026e-20 0.480285)
(9.23351 8.70491e-19 0.490235)
(9.0046 7.59541e-20 0.546274)
(9.09637 -1.01268e-19 0.557943)
(8.84386 2.69103e-20 0.620691)
(8.94626 7.78e-20 0.634049)
(8.6684 -8.07431e-19 0.704875)
(8.78251 -7.99923e-19 0.719893)
(8.47732 -1.8435e-18 0.800373)
(8.60441 2.74787e-20 0.816987)
(8.2697 2.19867e-18 0.909076)
(8.411 -1.86828e-18 0.927097)
(8.04446 3.95022e-18 1.03316)
(8.20166 3.97464e-18 1.05247)
(7.80015 7.19547e-20 1.17492)
(7.9757 2.80587e-19 1.19562)
(7.53517 -6.58117e-18 1.3371)
(7.7315 -3.78152e-18 1.35915)
(7.24774 -1.91182e-18 1.52311)
(7.46779 -2.3728e-18 1.54641)
(6.9355 4.42275e-18 1.73689)
(7.18327 4.47042e-18 1.7616)
(6.59516 6.19088e-19 1.98294)
(6.87572 5.5382e-19 2.00951)
(6.2221 -6.46935e-19 2.26688)
(6.5422 -8.65795e-18 2.29601)
(5.80966 -9.12885e-18 2.596)
(6.17863 9.3695e-18 2.62859)
(5.34807 1.34083e-17 2.98014)
(5.77892 -9.05499e-18 3.01732)
(4.82583 1.08374e-17 3.43721)
(5.33778 2.12352e-17 3.47417)
(4.2016 -6.52733e-19 3.96957)
(4.81202 -1.07501e-17 4.03898)
(3.58804 -1.71738e-18 4.66632)
(4.42195 -7.79216e-18 4.56461)
(3.09151 1.03568e-17 5.81083)
(9.99093 -5.6384e-19 0.0597776)
(9.99661 -1.60887e-18 0.0426352)
(9.97096 -5.39997e-19 0.0957608)
(9.983 -1.75642e-21 0.0825121)
(9.93911 4.4854e-19 0.130231)
(9.95766 5.65643e-19 0.119853)
(9.89622 5.84207e-19 0.165321)
(9.92105 -1.44742e-19 0.157013)
(9.84295 -1.70089e-19 0.202177)
(9.87371 7.51492e-19 0.195667)
(9.77948 -3.05731e-19 0.241472)
(9.81617 -6.20536e-19 0.236593)
(9.70577 -3.38312e-19 0.283873)
(9.74878 -3.18978e-19 0.280468)
(9.62169 -3.25844e-19 0.330072)
(9.67144 6.57631e-19 0.32803)
(9.52706 9.06946e-19 0.380793)
(9.58394 -6.77585e-19 0.380006)
(9.42157 1.32126e-19 0.436845)
(9.48603 7.15378e-19 0.437205)
(9.30484 -7.16854e-19 0.49913)
(9.37742 -7.29909e-19 0.500536)
(9.17642 8.04335e-19 0.568652)
(9.25777 0 0.570992)
(9.0358 -9.59264e-20 0.646556)
(9.12664 7.91046e-19 0.649689)
(8.88243 -7.64442e-19 0.73417)
(8.98359 -8.59138e-19 0.737911)
(8.7157 4.89293e-20 0.833018)
(8.82814 -1.63606e-18 0.837159)
(8.53494 -2.77774e-20 0.944817)
(8.65988 1.66893e-18 0.949142)
(8.33951 0 1.07165)
(8.478 1.37321e-20 1.07575)
(8.12893 2.47995e-19 1.21609)
(8.28208 -1.89587e-18 1.21937)
(7.90245 -3.62834e-18 1.38097)
(8.07223 -1.68302e-18 1.38296)
(7.65902 4.3341e-19 1.56947)
(7.8475 -3.87296e-18 1.5697)
(7.39753 4.09912e-18 1.78565)
(7.60712 4.0922e-18 1.78334)
(7.11674 5.58669e-19 2.03449)
(7.35069 3.60029e-18 2.02873)
(6.81479 -8.77703e-18 2.32197)
(7.0773 -4.25493e-18 2.3118)
(6.48906 1.41961e-18 2.65555)
(6.78583 -5.44712e-18 2.63984)
(6.13581 9.35576e-18 3.04492)
(6.47473 1.05568e-17 3.02209)
(5.74923 -1.22509e-18 3.50203)
(6.14113 -6.67951e-19 3.4709)
(5.32839 0 4.04727)
(5.79043 0 3.99585)
(4.822 -1.77152e-17 4.66887)
(5.35027 0 4.65927)
(4.40406 6.73659e-18 5.42824)
(5.22113 -1.80328e-17 5.1647)
(3.78406 1.99952e-17 6.64004)
(9.99023 -1.0157e-18 0.0661497)
(9.99643 -5.06825e-19 0.0467105)
(9.97016 1.11664e-18 0.107272)
(9.98257 5.84958e-19 0.0911996)
(9.93909 -4.27868e-20 0.147282)
(9.95753 -2.09201e-19 0.133842)
(9.89746 4.07608e-20 0.188046)
(9.92194 -5.84982e-19 0.17651)
(9.84586 2.73867e-19 0.230785)
(9.87624 1.51874e-19 0.220774)
(9.78452 -6.28025e-19 0.276316)
(9.82077 3.07016e-19 0.267592)
(9.7134 6.9566e-19 0.3254)
(9.75585 3.15999e-19 0.317775)
(9.63243 2.81509e-19 0.378798)
(9.68153 3.38588e-19 0.372112)
(9.54146 -8.44523e-19 0.437315)
(9.59763 -1.01696e-18 0.431388)
(9.44027 -1.72647e-19 0.501859)
(9.5039 -1.82635e-19 0.496499)
(9.32856 0 0.573434)
(9.40019 -7.52821e-21 0.568453)
(9.206 0 0.65314)
(9.28623 1.10675e-18 0.648327)
(9.07221 0 0.742228)
(9.16173 -7.5575e-19 0.737325)
(8.92685 -1.74322e-18 0.842153)
(9.02639 -1.57799e-18 0.836829)
(8.76954 3.56073e-20 0.954618)
(8.87992 -3.10083e-19 0.948462)
(8.5998 1.68585e-18 1.0815)
(8.72216 3.2741e-18 1.07414)
(8.41717 -1.91017e-18 1.22497)
(8.55267 -3.49506e-18 1.21591)
(8.22152 -3.82433e-18 1.38778)
(8.37106 -7.86395e-20 1.37613)
(8.01278 -1.96176e-18 1.57324)
(8.17771 -1.98431e-18 1.55801)
(7.79059 -1.12557e-19 1.785)
(7.9726 -4.10507e-19 1.76525)
(7.55459 3.5797e-18 2.0276)
(7.75564 -5.34699e-20 2.002)
(7.3046 -1.27473e-18 2.30671)
(7.52721 4.09325e-18 2.27354)
(7.04036 -9.72705e-19 2.6294)
(7.28774 -4.54708e-18 2.5865)
(6.76156 3.77148e-18 3.00439)
(7.03796 4.2924e-18 2.94916)
(6.46801 5.43897e-19 3.4427)
(6.77915 0 3.37167)
(6.15806 5.49675e-19 3.95632)
(6.51106 2.34464e-20 3.86762)
(5.84207 0 4.56636)
(6.25297 4.87538e-19 4.44)
(5.45625 0 5.24441)
(5.89033 0 5.18229)
(5.20594 0 6.00735)
(6.01537 0 5.62099)
(4.48843 1.41332e-17 7.26261)
(9.99 1.1155e-18 0.0726041)
(9.99646 1.1022e-18 0.0508817)
(9.97008 -7.58681e-19 0.118586)
(9.98262 -1.01851e-19 0.0998269)
(9.93991 -7.59559e-19 0.163838)
(9.95807 4.82261e-19 0.147442)
(9.89976 -4.589e-19 0.210029)
(9.92373 -6.18013e-22 0.195337)
(9.85011 1.8799e-19 0.258402)
(9.87991 -1.51972e-19 0.244973)
(9.79116 1.25188e-18 0.309899)
(9.82676 -2.96988e-19 0.297433)
(9.72295 -4.08009e-20 0.365366)
(9.7646 3.20592e-19 0.353626)
(9.64547 -9.8543e-19 0.425623)
(9.69364 -3.30549e-19 0.414383)
(9.55862 -3.39868e-19 0.491549)
(9.61374 -3.39156e-19 0.480561)
(9.46224 -1.43263e-20 0.564135)
(9.52465 3.34578e-19 0.553144)
(9.3561 1.11871e-18 0.644461)
(9.42633 -7.53563e-21 0.633204)
(9.24 3.20269e-19 0.733706)
(9.31863 1.11006e-18 0.721881)
(9.11371 -2.34811e-18 0.833203)
(9.20136 3.73611e-19 0.820452)
(8.97705 -1.2517e-19 0.944499)
(9.07439 -2.91733e-18 0.930377)
(8.82984 2.98583e-18 1.06943)
(8.93759 1.60624e-18 1.05335)
(8.67197 -2.00747e-18 1.21008)
(8.79095 1.88191e-18 1.19143)
(8.50318 -1.61805e-18 1.36869)
(8.63461 -3.355e-18 1.34688)
(8.32347 1.73715e-18 1.54806)
(8.46836 1.87235e-18 1.5221)
(8.13319 -4.13139e-19 1.75173)
(8.29247 -3.54895e-18 1.72029)
(7.93276 -3.49131e-19 1.98383)
(8.10775 -2.75819e-19 1.94547)
(7.72269 5.02185e-19 2.24922)
(7.91484 3.67285e-18 2.20214)
(7.50381 7.446e-19 2.55403)
(7.71493 4.97549e-19 2.49589)
(7.27746 7.65514e-19 2.90587)
(7.50971 -6.81545e-21 2.83372)
(7.04558 5.15868e-19 3.31414)
(7.3016 8.15427e-18 3.22429)
(6.81127 -5.15055e-19 3.79034)
(7.09457 -4.11101e-20 3.67806)
(6.57638 -4.4341e-20 4.34466)
(6.88978 -8.00703e-18 4.20934)
(6.36135 4.95589e-19 4.99773)
(6.72252 -6.12425e-18 4.8107)
(6.09053 0 5.70577)
(6.42715 -6.20356e-18 5.61331)
(5.96525 1.51777e-17 6.43718)
(6.77819 1.26343e-17 5.96241)
(5.17921 2.57257e-17 7.71353)
(9.99007 -1.38834e-19 0.0790132)
(9.9966 -1.12021e-18 0.0550208)
(9.97052 1.15235e-18 0.129624)
(9.98301 1.01138e-18 0.1083)
(9.94142 1.23167e-18 0.179816)
(9.95915 1.11601e-18 0.160584)
(9.903 3.03465e-19 0.231161)
(9.92626 1.42818e-19 0.213384)
(9.85555 -6.40007e-19 0.284916)
(9.88453 2.97533e-19 0.268137)
(9.79927 -1.21749e-18 0.342098)
(9.83392 -3.07955e-19 0.325978)
(9.73429 1.86133e-20 0.403612)
(9.77484 3.05382e-19 0.387856)
(9.66067 3.16203e-19 0.470341)
(9.7076 9.60163e-19 0.454652)
(9.57834 3.47562e-19 0.543241)
(9.63203 0 0.527318)
(9.48719 3.35713e-19 0.623365)
(9.54796 3.39962e-19 0.606897)
(9.38713 2.21384e-21 0.711851)
(9.45549 0 0.694497)
(9.27806 1.1512e-18 0.809941)
(9.35455 3.60165e-19 0.791318)
(9.15988 -2.46467e-19 0.919036)
(9.24508 2.50352e-20 0.898696)
(9.03255 -1.11639e-18 1.04075)
(9.12707 -2.96031e-20 1.01815)
(8.89609 5.05149e-19 1.17696)
(9.00061 -1.8598e-19 1.15143)
(8.75067 4.59502e-19 1.32991)
(8.86576 1.05688e-19 1.30061)
(8.59647 2.08758e-19 1.50202)
(8.72314 5.45401e-20 1.46812)
(8.43367 -3.48265e-18 1.6961)
(8.57293 1.07465e-21 1.65654)
(8.26289 -3.37888e-18 1.91576)
(8.41542 -6.91323e-18 1.86904)
(8.08511 3.78127e-18 2.16536)
(8.25194 3.53101e-18 2.10968)
(7.90169 3.64528e-18 2.45)
(8.08381 3.67337e-18 2.38316)
(7.71449 -2.56199e-19 2.77606)
(7.913 0 2.69525)
(7.52627 7.38862e-18 3.15132)
(7.74235 -2.40683e-19 3.05306)
(7.34092 7.62267e-18 3.58529)
(7.57568 7.62523e-18 3.46536)
(7.16436 -7.4412e-18 4.08928)
(7.41935 -4.09957e-20 3.9422)
(7.00071 -1.40719e-17 4.67109)
(7.27454 -7.46082e-18 4.49868)
(6.8781 -1.26168e-17 5.34939)
(7.19335 -1.36371e-17 5.11453)
(6.71303 4.48076e-18 6.06874)
(6.95616 -2.40479e-19 5.96071)
(6.66833 2.42957e-17 6.75772)
(7.49436 1.25134e-17 6.22098)
(5.8426 9.30829e-18 8.03586)
(9.99034 7.13649e-20 0.0852789)
(9.99676 -1.11766e-18 0.0590491)
(9.97139 9.77311e-19 0.140303)
(9.9836 -1.00174e-18 0.116522)
(9.94351 6.26793e-21 0.195134)
(9.96069 -1.24975e-18 0.173193)
(9.90697 1.39978e-19 0.251339)
(9.92938 1.56203e-18 0.230581)
(9.86193 6.18123e-19 0.310202)
(9.88984 -2.91319e-19 0.290172)
(9.80859 1.22759e-18 0.372762)
(9.84197 6.06575e-19 0.353098)
(9.74716 1.25963e-18 0.439962)
(9.78626 6.18746e-19 0.420305)
(9.67772 6.26908e-19 0.512759)
(9.72304 6.39586e-19 0.492753)
(9.60025 -1.79647e-21 0.59217)
(9.65211 -1.29897e-18 0.571474)
(9.51475 -1.73616e-21 0.679291)
(9.57346 3.23185e-19 0.657534)
(9.42123 3.64027e-19 0.775303)
(9.48726 6.81131e-19 0.75207)
(9.31968 -7.72095e-19 0.881499)
(9.39352 3.58432e-19 0.85634)
(9.21017 2.40273e-19 0.999325)
(9.29234 -1.10792e-18 0.971716)
(9.0928 9.00624e-19 1.13044)
(9.18384 1.96681e-19 1.09974)
(8.96778 -5.81991e-19 1.27676)
(9.06827 1.87309e-18 1.24222)
(8.83547 -3.00505e-19 1.44057)
(8.94591 1.84521e-19 1.40123)
(8.69638 -1.54089e-19 1.62444)
(8.81761 -1.02377e-19 1.57924)
(8.55111 -3.50984e-18 1.83126)
(8.68387 -5.24414e-20 1.77899)
(8.40055 1.00293e-19 2.06463)
(8.54533 -3.42244e-18 2.00366)
(8.24616 3.42743e-18 2.32893)
(8.40368 3.45743e-18 2.25725)
(8.08999 0 2.62937)
(8.26082 0 2.54447)
(7.93485 1.42043e-20 2.97237)
(8.11943 -4.16842e-19 2.87112)
(7.78469 1.41671e-20 3.36569)
(7.98332 6.72398e-18 3.24431)
(7.64493 0 3.81855)
(7.85748 -6.65584e-18 3.67263)
(7.52377 0 4.34171)
(7.75024 1.58433e-18 4.16542)
(7.42658 -6.91968e-18 4.94057)
(7.66178 0 4.73867)
(7.38542 -1.2967e-18 5.63128)
(7.65989 -4.29763e-18 5.35912)
(7.3168 6.09502e-18 6.35154)
(7.47512 6.98407e-19 6.23384)
(7.31517 -2.6247e-18 7.00776)
(8.15968 0 6.42717)
(6.47733 -1.43802e-19 8.27569)
(9.99066 -2.18923e-18 0.0913291)
(9.99689 9.83079e-19 0.0629459)
(9.97254 -3.23561e-18 0.150538)
(9.98431 -8.19585e-20 0.124396)
(9.94605 3.65076e-19 0.209725)
(9.9626 -9.70803e-19 0.185191)
(9.91146 1.0938e-18 0.270498)
(9.93298 2.90391e-19 0.246894)
(9.86896 -2.85796e-19 0.334162)
(9.89571 -1.31125e-21 0.31102)
(9.81878 -2.61189e-21 0.401751)
(9.8508 2.99558e-19 0.378684)
(9.76117 -1.53668e-21 0.47425)
(9.7987 -6.13374e-19 0.450835)
(9.69622 -1.32167e-18 0.552685)
(9.73972 9.63811e-22 0.528524)
(9.62397 -9.46833e-19 0.638116)
(9.67373 -6.57004e-19 0.61283)
(9.5445 1.01262e-18 0.731658)
(9.60084 -9.88587e-19 0.704827)
(9.45793 6.70702e-19 0.83453)
(9.52124 1.35309e-18 0.805678)
(9.36437 0 0.948061)
(9.4351 0 0.916674)
(9.26398 -1.13228e-18 1.07372)
(9.34262 0 1.03921)
(9.15707 1.19184e-18 1.21319)
(9.24404 -1.47914e-18 1.17483)
(9.04402 2.61961e-18 1.36841)
(9.1398 1.52527e-18 1.32536)
(8.92543 3.79654e-19 1.54168)
(9.03036 -3.01233e-18 1.49287)
(8.80203 0 1.73561)
(8.9168 -2.28606e-20 1.67984)
(8.67471 0 1.95315)
(8.79993 3.1012e-18 1.88909)
(8.54477 0 2.19786)
(8.68071 3.16073e-18 2.12378)
(8.41414 0 2.47404)
(8.56125 -3.17573e-18 2.38775)
(8.28547 -4.18801e-19 2.78686)
(8.44386 6.3926e-18 2.68564)
(8.16235 6.3035e-18 3.14268)
(8.33186 -6.39267e-18 3.0232)
(8.04971 1.01401e-19 3.54909)
(8.22986 4.4307e-19 3.40737)
(7.95421 -5.13648e-18 4.01481)
(8.14378 -4.73541e-19 3.84649)
(7.88561 1.60618e-18 4.55008)
(8.08365 7.75047e-20 4.34905)
(7.85024 2.68389e-18 5.15791)
(8.04813 0 4.93187)
(7.87922 -2.4303e-18 5.85315)
(8.11778 7.82572e-18 5.55159)
(7.90075 -5.34561e-18 6.5711)
(7.98478 -5.18489e-18 6.44059)
(7.91798 2.48022e-18 7.22156)
(8.7791 6.90366e-18 6.60645)
(7.0947 1.27834e-18 8.47682)
(9.99106 3.07155e-18 0.0971105)
(9.99705 -1.09002e-18 0.0666771)
(9.97394 2.16562e-18 0.160255)
(9.98517 -5.1548e-20 0.13185)
(9.949 -1.01959e-18 0.223532)
(9.96481 1.22546e-18 0.196511)
(9.91649 -8.11522e-19 0.288581)
(9.93703 -1.36913e-20 0.262263)
(9.87669 5.90292e-19 0.356708)
(9.90218 2.9055e-19 0.330597)
(9.82989 -3.28335e-19 0.428953)
(9.86043 -2.90488e-19 0.402626)
(9.77629 -6.00172e-19 0.506342)
(9.81213 -1.24409e-20 0.47934)
(9.71605 6.5521e-19 0.589958)
(9.75755 0 0.561842)
(9.64929 -7.03756e-19 0.680887)
(9.69672 1.27965e-18 0.651237)
(9.57616 -6.11223e-19 0.780255)
(9.62983 -1.96158e-18 0.748606)
(9.49686 6.61014e-19 0.889302)
(9.55712 -6.53144e-19 0.855128)
(9.41162 0 1.00938)
(9.47882 -6.74542e-19 0.97211)
(9.32073 -3.67892e-19 1.14196)
(9.39538 0 1.10095)
(9.22463 -1.10536e-18 1.28872)
(9.30704 -3.63057e-19 1.24319)
(9.12387 -4.17175e-18 1.45159)
(9.21439 -3.76993e-19 1.40063)
(9.01924 -3.38442e-18 1.63283)
(9.11818 -3.4041e-18 1.57529)
(8.91184 3.11307e-18 1.83511)
(9.01949 7.13971e-19 1.76962)
(8.80281 6.26863e-18 2.06139)
(8.91957 6.11878e-18 1.98653)
(8.69376 -6.0374e-20 2.3151)
(8.81992 -6.07798e-19 2.22908)
(8.58708 3.27096e-18 2.60035)
(8.72277 -2.42945e-18 2.50087)
(8.48587 3.91121e-19 2.92221)
(8.63081 6.40794e-18 2.80643)
(8.39434 -1.2263e-17 3.28688)
(8.54787 -5.9903e-18 3.15134)
(8.31825 -1.56291e-19 3.70167)
(8.4792 -7.7476e-18 3.54226)
(8.26524 4.76651e-18 4.17482)
(8.43148 6.20688e-18 3.98721)
(8.24611 -1.533e-18 4.71612)
(8.41619 -9.48845e-18 4.49397)
(8.26852 4.95837e-18 5.32677)
(8.43058 9.97435e-18 5.07981)
(8.3579 5.23585e-18 6.02295)
(8.56385 2.52841e-18 5.69736)
(8.46874 6.70863e-18 6.74042)
(8.4883 3.63401e-18 6.58558)
(8.49792 2.47886e-18 7.42743)
(9.36206 6.89025e-18 6.77753)
(7.71831 4.67167e-18 8.67473)
(9.99158 -4.19564e-18 0.102572)
(9.99728 -2.06451e-18 0.0701922)
(9.97555 -9.65392e-19 0.169392)
(9.98617 -2.12036e-18 0.138841)
(9.95228 2.207e-18 0.236488)
(9.96722 1.08509e-18 0.207102)
(9.92202 1.09547e-18 0.305508)
(9.94142 5.45752e-21 0.27661)
(9.88512 -6.01969e-19 0.377745)
(9.90919 2.85264e-19 0.348812)
(9.84186 3.06067e-20 0.454267)
(9.87074 -8.82062e-19 0.424837)
(9.79246 5.88807e-19 0.536142)
(9.82638 -1.78876e-18 0.505732)
(9.7371 6.4652e-19 0.624477)
(9.77638 6.09417e-19 0.592615)
(9.67601 -3.16955e-20 0.720368)
(9.7209 9.35477e-21 0.686591)
(9.60942 -1.98317e-18 0.824954)
(9.66018 6.26096e-19 0.788757)
(9.53761 -1.99136e-18 0.939478)
(9.59453 -1.98112e-18 0.900297)
(9.46094 -6.65272e-19 1.06529)
(9.52426 1.97985e-18 1.02249)
(9.37983 0 1.20386)
(9.45004 -2.0343e-18 1.15676)
(9.29479 3.66408e-19 1.35683)
(9.37218 6.88834e-19 1.30461)
(9.20657 3.57334e-19 1.52611)
(9.29132 3.62121e-19 1.46781)
(9.11606 7.45854e-19 1.71388)
(9.20859 -3.55581e-18 1.64836)
(9.02459 3.77419e-18 1.92276)
(9.12486 6.47773e-18 1.84853)
(8.93384 -8.2047e-19 2.15574)
(9.04177 -2.05846e-18 2.07118)
(8.84574 -2.99703e-18 2.41607)
(8.96158 5.78162e-19 2.31933)
(8.76292 7.51644e-19 2.70765)
(8.88646 3.64788e-18 2.59642)
(8.68885 0 3.03536)
(8.8195 -2.89193e-18 2.90675)
(8.62821 -1.45421e-18 3.40509)
(8.76501 1.40335e-18 3.2556)
(8.58742 -1.46788e-18 3.82378)
(8.72863 -5.86872e-20 3.64921)
(8.5749 -7.89402e-18 4.29928)
(8.71766 0 4.0952)
(8.60208 1.66153e-18 4.84078)
(8.74473 -5.48897e-18 4.60073)
(8.67882 7.83916e-18 5.44941)
(8.80655 1.44411e-17 5.18312)
(8.82182 8.8337e-19 6.14459)
(8.99617 -6.66271e-18 5.79831)
(9.02618 3.71596e-18 6.8646)
(8.99057 -9.05964e-18 6.66737)
(9.08435 6.21408e-18 7.64561)
(9.91746 8.27218e-18 6.94674)
(8.39016 9.83122e-18 8.89172)
(9.99217 1.1199e-20 0.107676)
(9.99755 1.99512e-18 0.0734652)
(9.97731 -3.92108e-22 0.177908)
(9.98725 1.11838e-18 0.145338)
(9.95581 -1.14024e-18 0.248535)
(9.96979 -8.312e-21 0.216916)
(9.92795 -8.00233e-19 0.321205)
(9.94611 -1.11378e-18 0.28987)
(9.89406 -1.66894e-20 0.397197)
(9.91663 2.85556e-19 0.365604)
(9.85447 -2.71939e-18 0.477616)
(9.88159 -8.70368e-19 0.44526)
(9.80941 -1.72761e-18 0.56356)
(9.84128 -6.17062e-19 0.529936)
(9.75911 -3.82652e-20 0.656136)
(9.79602 6.10225e-19 0.620753)
(9.70387 6.77419e-19 0.75644)
(9.74603 -9.25264e-21 0.718798)
(9.64399 5.89476e-19 0.865619)
(9.69164 1.27791e-18 0.825182)
(9.5798 2.0529e-18 0.984891)
(9.63319 -6.4769e-19 0.941089)
(9.51182 5.55239e-19 1.11559)
(9.57114 5.18278e-20 1.06774)
(9.44063 -1.31067e-18 1.25919)
(9.50616 -1.37101e-18 1.20651)
(9.36685 6.8099e-19 1.41729)
(9.43886 1.36828e-18 1.35897)
(9.29134 -3.60097e-18 1.59175)
(9.36994 -2.7401e-18 1.52678)
(9.21515 2.28109e-18 1.78468)
(9.30067 -1.10307e-19 1.71189)
(9.13967 5.6713e-19 1.9985)
(9.23199 7.15077e-18 1.91647)
(9.06694 -6.45552e-19 2.2361)
(9.1657 -5.79392e-18 2.14306)
(8.99935 7.26068e-18 2.50066)
(9.1045 8.71832e-19 2.39466)
(8.93979 -1.45029e-20 2.79586)
(9.05076 -5.79414e-19 2.67453)
(8.8921 -1.49168e-18 3.12632)
(9.00795 -2.88414e-18 2.98676)
(8.86134 2.81128e-18 3.49745)
(8.98082 1.42061e-18 3.33619)
(8.85437 1.41708e-18 3.91576)
(8.9753 1.40874e-18 3.7285)
(8.88022 2.49897e-18 4.38853)
(8.99922 2.41936e-18 4.1707)
(8.95071 6.91899e-18 4.92442)
(9.06589 2.54481e-18 4.66945)
(9.07912 5.72386e-19 5.52608)
(9.17318 -3.72872e-18 5.24082)
(9.27347 -1.6594e-17 6.21529)
(9.4128 -4.11691e-18 5.84953)
(9.57623 -5.2577e-18 6.93653)
(9.49462 -4.32021e-18 6.67482)
(9.72158 1.21625e-17 7.8793)
(10.4508 -1.05239e-18 7.08786)
(9.16718 5.99285e-18 9.13752)
(9.9928 3.08651e-18 0.112397)
(9.99784 4.58419e-20 0.0764784)
(9.97918 1.08671e-18 0.185766)
(9.98839 1.32094e-18 0.151314)
(9.95955 -4.1392e-21 0.259622)
(9.97247 -2.14874e-18 0.225915)
(9.93419 0 0.335618)
(9.951 -2.58962e-19 0.301996)
(9.90344 -5.90205e-19 0.415017)
(9.9244 1.32059e-18 0.380925)
(9.86763 1.2385e-18 0.498951)
(9.89285 -5.90665e-19 0.463849)
(9.82703 1.74466e-18 0.588536)
(9.85668 1.81031e-18 0.551902)
(9.78192 6.29131e-19 0.684867)
(9.81628 5.66151e-19 0.646193)
(9.73267 6.12193e-19 0.78904)
(9.77192 5.62403e-20 0.747791)
(9.67963 1.05462e-20 0.902199)
(9.724 3.18218e-21 0.857815)
(9.62323 -2.64162e-18 1.02553)
(9.67291 -5.87692e-19 0.977434)
(9.56401 -1.89794e-18 1.16032)
(9.6193 -2.05312e-18 1.10781)
(9.50273 1.34669e-18 1.308)
(9.56366 5.89629e-20 1.25026)
(9.44022 -2.10537e-18 1.47017)
(9.50686 6.87347e-19 1.40631)
(9.37738 7.8156e-19 1.64862)
(9.44991 -4.06889e-18 1.57761)
(9.31542 4.83682e-18 1.84534)
(9.39396 6.07395e-18 1.76603)
(9.25587 6.79483e-19 2.06254)
(9.34029 2.07298e-18 1.97356)
(9.2009 -4.23152e-18 2.30291)
(9.29076 -7.17823e-19 2.20247)
(9.15316 -6.99914e-18 2.56945)
(9.24821 -3.58661e-18 2.45557)
(9.11594 -3.46421e-18 2.86566)
(9.21522 -1.04218e-18 2.73592)
(9.0934 2.80561e-20 3.19578)
(9.19559 -3.70218e-18 3.04727)
(9.09097 1.17409e-20 3.5647)
(9.19452 2.42775e-18 3.394)
(9.11587 2.40342e-18 3.97822)
(9.21817 0 3.78103)
(9.17762 2.46455e-18 4.44291)
(9.27473 2.6829e-19 4.21454)
(9.28854 -8.02477e-18 4.96668)
(9.37793 0 4.70035)
(9.46588 -8.43138e-18 5.55339)
(9.52831 -4.79232e-18 5.25081)
(9.71287 8.29885e-18 6.22288)
(9.81053 0 5.84079)
(10.1143 -2.18286e-19 6.93359)
(9.99359 8.78121e-18 6.58918)
(10.4547 -6.44726e-18 8.08635)
(11.0041 -9.57866e-18 7.08784)
(10.9089 1.81836e-18 9.25696)
(0.136913 -2.05256e-19 -0.0991817)
(0.0576996 -7.10867e-19 -0.102026)
(0.322847 1.21327e-19 -0.0916204)
(0.180928 4.28378e-19 -0.113249)
(0.547744 1.54728e-19 -0.0772633)
(0.385895 -3.63747e-19 -0.104657)
(0.812505 1.67265e-19 -0.0678201)
(0.631993 -3.29588e-19 -0.0994617)
(1.09952 -8.51228e-20 -0.0631122)
(0.910427 3.12938e-19 -0.0983319)
(1.37969 1.72226e-20 -0.0606)
(1.19813 -4.19594e-19 -0.098998)
(1.63287 1.08209e-19 -0.0581026)
(1.46551 2.54504e-19 -0.0980701)
(1.85399 2.10092e-20 -0.0549248)
(1.69869 -2.12676e-19 -0.0944716)
(2.04566 -1.92159e-20 -0.0510986)
(1.898 3.06473e-21 -0.0890084)
(2.21108 3.31422e-22 -0.0467515)
(2.06749 1.77185e-20 -0.0821372)
(2.35273 1.85553e-20 -0.0419744)
(2.21061 -1.76657e-20 -0.0742971)
(2.47199 0 -0.0368519)
(2.32991 3.10207e-20 -0.0654844)
(2.57001 0 -0.0318505)
(2.42733 -5.87935e-20 -0.055953)
(2.65008 0 -0.0272992)
(2.5044 4.07245e-20 -0.0472916)
(2.71473 -2.2192e-20 -0.0227864)
(2.56418 -8.62522e-22 -0.0394057)
(2.76323 -2.00399e-21 -0.0182346)
(2.60873 -2.18249e-20 -0.0305476)
(2.79577 2.04579e-20 -0.0142329)
(2.63671 9.9488e-21 -0.0213722)
(2.81513 1.97104e-20 -0.010992)
(2.64814 -3.84339e-20 -0.0135759)
(2.82427 1.19874e-21 -0.00853012)
(2.64579 5.50502e-21 -0.00739557)
(2.82585 -1.97531e-20 -0.00731871)
(2.63174 -5.42249e-21 -0.00277059)
(2.82244 -1.50348e-20 -0.00786027)
(2.60383 3.16823e-20 0.000265262)
(2.81696 -1.50315e-20 -0.0102361)
(2.5668 -2.96994e-20 0.00140828)
(2.81335 1.38215e-20 -0.0143271)
(2.52651 2.9415e-20 -4.93512e-05)
(2.81673 1.55932e-21 -0.0200518)
(2.48935 2.33068e-21 -0.00499318)
(2.83292 -1.33231e-20 -0.0270876)
(2.4601 -1.67512e-21 -0.014013)
(2.86695 3.23609e-22 -0.0349453)
(2.44506 1.6208e-21 -0.0267487)
(2.92445 2.6835e-23 -0.0436347)
(2.45446 -1.26981e-21 -0.0437103)
(3.01313 6.55815e-21 -0.0536424)
(2.49858 -3.17392e-22 -0.0665453)
(3.14178 6.936e-21 -0.0644111)
(2.58793 1.56423e-20 -0.0963287)
(2.77209 0 -0.12852)
(0.0669834 -1.44976e-19 -0.158867)
(0.00346351 -1.11949e-18 -0.173046)
(0.227497 2.37041e-20 -0.169512)
(0.0807683 1.1558e-18 -0.207053)
(0.454286 -8.47159e-19 -0.160769)
(0.271174 -2.36259e-21 -0.20458)
(0.728799 -1.81484e-19 -0.156128)
(0.502571 -1.6152e-19 -0.198795)
(1.02221 -5.34579e-20 -0.155522)
(0.76597 1.39886e-21 -0.197791)
(1.30005 -1.476e-19 -0.154733)
(1.03031 -1.67608e-19 -0.198454)
(1.54378 -8.94607e-20 -0.150651)
(1.26608 1.6696e-19 -0.195371)
(1.75098 -2.2529e-19 -0.143129)