/*--------------------------------*- C++ -*----------------------------------*\
| =========                 |                                                 |
| \\      /  F ield         | OpenFOAM: The Open Source CFD Toolbox           |
|  \\    /   O peration     | Version:  dev                                   |
|   \\  /    A nd           | Web:      www.OpenFOAM.org                      |
|    \\/     M anipulation  |                                                 |
\*---------------------------------------------------------------------------*/
FoamFile
{
    version     2.0;
    format      ascii;
    class       volVectorField;
    location    "0.44";
    object      Force;
}
// * * * * * * * * * * * * * * * * * * * * * * * * * * * * * * * * * * * * * //

dimensions      [1 1 -2 0 0 0 0];

internalField   uniform (0 0 0);

boundaryField
{
    inlet
    {
        type            calculated;
        value           uniform (0 0 0);
    }
    outlet
    {
        type            calculated;
        value           uniform (0 0 0);
    }
    flap
    {
        type            calculated;
        value           nonuniform List<vector> 
33
(
(3.03302 4.3202e-21 -4.54282)
(3.28427 -1.53119e-22 1.50376)
(3.09166 1.57739e-17 -0.163766)
(3.20965 1.64039e-17 -0.0801608)
(3.0013 -1.53051e-17 0.000614067)
(3.26866 5.31283e-19 -0.0531595)
(3.19779 -1.87976e-40 0.0209999)
(2.89099 -5.22099e-19 -0.0646094)
(3.20821 -2.57687e-19 -0.0228416)
(3.21691 3.51855e-17 -0.0175308)
(2.4233 1.26504e-17 -0.26334)
(2.99724 7.82862e-18 0.888173)
(2.18261 -3.41452e-18 -0.522321)
(3.68106 -2.50928e-17 -1.82676)
(7.22153 5.07336e-21 2.10892)
(-0.0738434 3.64854e-18 0.316127)
(0.563936 1.80032e-17 0.530601)
(0.966969 1.16842e-17 0.773296)
(1.03153 3.59806e-17 -1.55037)
(1.45887 3.15252e-17 0.468412)
(1.21407 2.46431e-23 -0.115332)
(1.2833 1.08579e-19 0.0182027)
(1.35375 1.62789e-17 0.000810653)
(1.41744 1.6486e-17 -0.0785543)
(1.51449 2.38772e-39 0.0356915)
(1.59254 7.72351e-40 -0.0296766)
(1.66034 1.6296e-17 -0.0832271)
(1.89559 1.75581e-17 0.0161273)
(1.54181 1.83671e-39 -0.107)
(1.90047 1.79528e-17 -0.0992234)
(1.72186 1.38047e-17 0.46934)
(2.61707 2.53328e-17 -0.390201)
(4.87816 4.271e-17 1.68748)
)
;
    }
    upperWall
    {
        type            calculated;
        value           uniform (0 0 0);
    }
    lowerWall
    {
        type            calculated;
        value           uniform (0 0 0);
    }
    frontAndBack
    {
        type            empty;
    }
}


// ************************************************************************* //
