/*--------------------------------*- C++ -*----------------------------------*\
| =========                 |                                                 |
| \\      /  F ield         | OpenFOAM: The Open Source CFD Toolbox           |
|  \\    /   O peration     | Version:  dev                                   |
|   \\  /    A nd           | Web:      www.OpenFOAM.org                      |
|    \\/     M anipulation  |                                                 |
\*---------------------------------------------------------------------------*/
FoamFile
{
    version     2.0;
    format      ascii;
    class       volScalarField;
    location    "0.44";
    object      p;
}
// * * * * * * * * * * * * * * * * * * * * * * * * * * * * * * * * * * * * * //

dimensions      [0 2 -2 0 0 0 0];

internalField   nonuniform List<scalar> 
2790
(
111.579
111.467
111.738
112.407
113.348
114.486
115.806
117.307
118.983
120.822
122.813
124.943
127.199
129.564
132.018
134.536
137.091
139.647
142.165
144.599
146.9
149.015
150.894
152.495
153.787
154.766
155.455
155.905
156.195
156.432
111.388
111.371
111.664
112.33
113.266
114.4
115.715
117.21
118.878
120.709
122.691
124.812
127.059
129.415
131.861
134.373
136.923
139.478
141.999
144.441
146.756
148.891
150.796
152.427
153.754
154.771
155.5
155.995
156.329
156.585
111.182
111.234
111.542
112.197
113.119
114.238
115.537
117.012
118.658
120.463
122.418
124.509
126.723
129.045
131.456
133.934
136.451
138.977
141.476
143.907
146.223
148.377
150.324
152.021
153.442
154.58
155.451
156.095
156.562
156.918
110.944
111.028
111.345
111.988
112.893
113.993
115.27
116.718
118.334
120.105
122.021
124.07
126.238
128.511
130.871
133.295
135.762
138.24
140.699
143.101
145.408
147.576
149.567
151.345
152.886
154.18
155.233
156.063
156.689
157.204
110.667
110.763
111.085
111.716
112.601
113.678
114.925
116.34
117.916
119.643
121.51
123.504
125.614
127.823
130.116
132.473
134.872
137.288
139.692
142.053
144.337
146.512
148.542
150.4
152.061
153.51
154.742
155.749
156.52
157.183
110.345
110.444
110.764
111.382
112.243
113.289
114.501
115.875
117.403
119.077
120.884
122.813
124.852
126.986
129.199
131.475
133.792
136.13
138.464
140.768
143.016
145.181
147.236
149.155
150.917
152.501
153.886
155.048
155.94
156.74
109.976
110.073
110.386
110.985
111.819
112.831
114.001
115.327
116.8
118.411
120.149
122.002
123.958
126.004
128.125
130.305
132.526
134.77
137.017
139.246
141.437
143.57
145.623
147.577
149.409
151.094
152.598
153.882
154.867
155.79
109.561
109.652
109.953
110.53
111.333
112.305
113.428
114.698
116.109
117.649
119.308
121.075
122.938
124.883
126.898
128.967
131.075
133.207
135.346
137.477
139.585
141.656
143.675
145.625
147.488
149.233
150.82
152.191
153.228
154.161
109.1
109.183
109.467
110.019
110.787
111.714
112.785
113.994
115.334
116.796
118.367
120.037
121.795
123.627
125.52
127.463
129.44
131.438
133.446
135.45
137.441
139.411
141.351
143.252
145.095
146.856
148.487
149.93
151.048
152.187
108.594
108.666
108.93
109.454
110.183
111.062
112.075
113.217
114.481
115.856
117.331
118.894
120.535
122.241
123.999
125.798
127.623
129.465
131.311
133.153
134.987
136.807
138.612
140.399
142.16
143.875
145.504
146.993
148.188
149.407
108.044
108.104
108.346
108.838
109.525
110.352
111.302
112.372
113.553
114.834
116.205
117.653
119.166
120.733
122.341
123.978
125.631
127.288
128.941
130.581
132.206
133.815
135.412
137.003
138.592
140.172
141.715
143.191
144.493
145.936
107.453
107.499
107.717
108.175
108.817
109.588
110.471
111.464
112.556
113.737
114.996
116.319
117.696
119.112
120.555
122.012
123.47
124.916
126.34
127.734
129.092
130.417
131.715
132.999
134.287
135.589
136.893
138.194
139.652
144.431
106.822
106.854
107.046
107.467
108.061
108.773
109.587
110.497
111.496
112.572
113.711
114.903
116.133
117.387
118.652
119.913
121.154
122.361
123.52
124.619
125.649
126.605
127.492
128.324
129.125
129.921
130.687
131.191
129.988
125.917
106.153
106.172
106.336
106.717
107.261
107.912
108.652
109.478
110.379
111.344
112.36
113.412
114.487
115.57
116.645
117.694
118.699
119.641
120.5
121.258
121.894
122.391
122.739
122.934
122.995
122.955
122.829
122.527
120.992
115.594
105.45
105.454
105.589
105.93
106.422
107.009
107.673
108.41
109.211
110.061
110.948
111.856
112.77
113.673
114.547
115.371
116.123
116.778
117.308
117.683
117.866
117.817
117.494
116.853
115.868
114.59
113.354
113.548
119.136
133.172
-60.7523
-61.7496
-63.5067
-66.2635
-70.0643
-74.9005
-80.7068
-87.3666
-94.7137
-102.532
-110.553
-118.458
-125.878
-132.404
-137.603
-141.043
-142.317
-141.06
-136.975
-129.904
-119.885
-107.142
-92.0687
-75.2173
-57.2433
-38.8265
-20.8766
-5.30706
5.17828
10.4274
-61.2159
-61.9549
-63.7115
-66.511
-70.3726
-75.28
-81.164
-87.9065
-95.341
-103.251
-111.369
-119.372
-126.889
-133.507
-138.786
-142.293
-143.622
-142.412
-138.362
-131.318
-121.336
-108.646
-93.6442
-76.8836
-59.0335
-40.823
-23.2166
-8.02068
2.21538
6.48626
-61.7714
-62.9762
-64.9541
-67.9203
-71.9091
-76.9156
-82.8782
-89.6863
-97.1807
-105.152
-113.336
-121.413
-129.009
-135.706
-141.059
-144.624
-145.994
-144.809
-140.758
-133.696
-123.703
-111.022
-96.0521
-79.3516
-61.6098
-43.6184
-26.401
-11.6161
-1.4312
3.33969
-63.8368
-65.0109
-67.1447
-70.2751
-74.3906
-79.4942
-85.5334
-92.408
-99.9687
-108.014
-116.285
-124.463
-132.172
-138.984
-144.443
-148.096
-149.524
-148.367
-144.309
-137.213
-127.191
-114.498
-99.5371
-82.8663
-65.1932
-47.3589
-30.4147
-15.8412
-5.34714
0.842984
-66.6829
-67.9351
-70.1656
-73.4086
-77.6215
-82.8057
-88.912
-95.8487
-103.476
-111.601
-119.97
-128.266
-136.106
-143.054
-148.64
-152.396
-153.89
-152.752
-148.671
-141.526
-131.463
-118.748
-103.78
-87.116
-69.4712
-51.7134
-34.8839
-20.2678
-9.14239
-1.16712
-70.1285
-71.5602
-73.8552
-77.164
-81.4347
-86.6723
-92.8293
-99.8213
-107.518
-115.734
-124.22
-132.659
-140.662
-147.778
-153.519
-157.398
-158.963
-157.822
-153.683
-146.466
-136.343
-123.588
-108.593
-91.8995
-74.2218
-56.4315
-39.5307
-24.6161
-12.6124
-2.81469
-75.0109
-75.8511
-78.0301
-81.3381
-85.6214
-90.8804
-97.0677
-104.106
-111.872
-120.187
-128.805
-137.408
-145.597
-152.905
-158.823
-162.836
-164.467
-163.301
-159.075
-151.763
-141.567
-128.767
-113.732
-96.9789
-79.207
-61.2749
-44.1296
-28.7068
-15.6705
-4.17237
-78.9629
-80.1404
-82.3823
-85.6752
-89.9354
-95.1861
-101.383
-108.456
-116.289
-124.708
-133.47
-142.251
-150.646
-158.169
-164.282
-168.439
-170.126
-168.908
-164.564
-157.136
-146.865
-134.023
-118.948
-102.114
-84.1976
-66.0338
-48.5061
-32.4324
-18.2965
-5.28034
-83.0869
-84.4399
-86.6606
-89.9081
-94.1155
-99.3307
-105.518
-112.614
-120.509
-129.033
-137.942
-146.911
-155.523
-163.275
-169.598
-173.905
-175.638
-174.342
-169.85
-162.295
-151.955
-139.091
-123.99
-107.073
-88.9802
-70.5314
-52.5331
-35.7368
-20.5047
-6.16429
-88.312
-88.7488
-90.6859
-93.8012
-97.9061
-103.054
-109.209
-116.315
-124.264
-132.888
-141.942
-151.096
-159.928
-167.916
-174.46
-178.921
-180.692
-179.296
-174.639
-166.959
-156.572
-143.716
-128.624
-111.645
-93.371
-74.626
-56.1316
-38.5996
-22.3284
-6.84206
-91.2805
-92.3151
-94.1669
-97.1014
-101.053
-106.102
-112.206
-119.309
-127.301
-136.013
-145.199
-154.526
-163.564
-171.784
-178.552
-183.173
-184.979
-183.482
-178.662
-170.877
-160.479
-147.677
-132.643
-115.664
-97.2444
-78.2108
-59.2552
-41.0034
-23.798
-7.38542
-95.7067
-95.5908
-96.8859
-99.5467
-103.307
-108.236
-114.279
-121.373
-129.399
-138.182
-147.476
-156.945
-166.16
-174.584
-181.564
-186.35
-188.203
-186.646
-181.709
-173.866
-163.506
-150.814
-135.897
-118.992
-100.531
-81.2132
-61.8132
-42.9428
-24.936
-7.82866
-101.521
-97.9658
-98.565
-100.903
-104.449
-109.263
-115.26
-122.352
-130.403
-139.231
-148.588
-158.142
-167.467
-176.031
-183.184
-188.138
-190.1
-188.596
-183.636
-175.814
-165.565
-153.051
-138.315
-121.514
-103.05
-83.5292
-63.7437
-44.3821
-25.7617
-8.19392
-95.4416
-97.1264
-98.6509
-100.861
-104.283
-109.063
-115.078
-122.204
-130.288
-139.14
-148.514
-158.086
-167.44
-176.059
-183.319
-188.413
-190.491
-189.071
-184.213
-176.55
-166.527
-154.273
-139.774
-123.119
-104.666
-85.0393
-65.0141
-45.3254
-26.2943
-8.49485
-105.356
-99.1948
-97.7684
-99.3418
-102.755
-107.647
-113.786
-121.006
-129.144
-138.008
-147.357
-156.881
-166.178
-174.746
-181.975
-187.078
-189.198
-187.893
-183.293
-175.965
-166.304
-154.394
-140.181
-123.725
-105.369
-85.7451
-65.6304
-45.7884
-26.5539
-8.73794
104.701
104.689
104.794
105.093
105.531
106.051
106.636
107.281
107.976
108.706
109.458
110.215
110.961
111.675
112.337
112.924
113.406
113.754
113.928
113.884
113.566
112.901
111.799
110.138
107.754
104.405
99.6155
92.1095
78.9818
31.5505
103.897
103.868
103.942
104.196
104.577
105.027
105.529
106.078
106.662
107.268
107.879
108.478
109.046
109.563
110.003
110.34
110.539
110.563
110.362
109.877
109.028
107.71
105.778
103.014
99.0699
93.3296
84.5617
69.9474
46.8177
2.74901
103.043
102.998
103.039
103.247
103.568
103.946
104.363
104.812
105.282
105.758
106.224
106.66
107.046
107.359
107.572
107.652
107.562
107.255
106.674
105.745
104.372
102.421
99.7066
95.9529
90.7332
83.37
72.8268
57.3167
36.6434
7.7514
102.141
102.079
102.086
102.247
102.507
102.811
103.14
103.487
103.84
104.185
104.502
104.773
104.975
105.081
105.064
104.887
104.508
103.876
102.925
101.574
99.7137
97.201
93.8391
89.3555
83.3717
75.3756
64.7669
50.6835
33.1098
10.7398
101.192
101.113
101.087
101.199
101.397
101.625
101.865
102.108
102.344
102.556
102.724
102.828
102.845
102.747
102.502
102.073
101.415
100.472
99.1755
97.4406
95.1575
92.1857
88.3437
83.3987
77.0594
68.974
58.7737
45.9576
30.287
11.4738
100.198
100.103
100.043
100.106
100.241
100.393
100.543
100.683
100.8
100.879
100.899
100.838
100.673
100.374
99.9097
99.2395
98.3173
97.087
95.4801
93.4131
90.7826
87.4615
83.2945
78.0956
71.6482
63.7076
54.0281
42.3279
28.4548
12.6809
99.162
99.0507
98.9572
98.9712
99.044
99.1198
99.1797
99.2161
99.2167
99.164
99.038
98.8167
98.475
97.984
97.3102
96.4142
95.2499
93.7625
91.8867
89.5449
86.6447
83.077
78.7156
73.4176
67.0272
59.3818
50.3344
39.7602
27.6125
14.259
98.0872
97.9605
97.8341
97.7996
97.8101
97.8105
97.7818
97.7165
97.6022
97.4214
97.1541
96.7779
96.2679
95.5953
94.7269
93.6247
92.2441
90.5338
88.434
85.8756
82.7796
79.0564
74.6079
69.3293
63.1147
55.8647
47.5027
37.9871
27.316
15.8216
96.9773
96.8361
96.6778
96.5956
96.545
96.4714
96.3562
96.1918
95.9661
95.6619
95.2592
94.7362
94.0683
93.2274
92.1819
90.8955
89.3271
87.43
85.1513
82.432
79.2069
75.4058
70.9554
65.7828
59.8203
53.0125
45.3258
36.7584
27.331
17.3317
95.8367
95.6819
95.493
95.3646
95.2545
95.1092
94.9103
94.6505
94.3182
93.8965
93.366
92.7057
91.892
90.8983
89.6948
88.2482
86.5215
84.4735
82.0591
79.2296
75.9334
72.1174
67.7294
62.7216
57.0541
50.7002
43.6526
35.9301
27.5668
18.8052
94.6702
94.5032
94.2853
94.1126
93.9452
93.731
93.452
93.1015
92.6682
92.1361
91.4869
90.7003
89.7542
88.6242
87.283
85.7007
83.8449
81.6804
79.17
76.2749
72.9558
69.1741
64.895
60.0894
54.7369
48.8298
42.3763
35.4055
27.9565
20.2289
93.4834
93.3055
93.0606
92.8458
92.6239
92.3442
91.9896
91.5537
91.0261
90.3918
89.6336
88.7326
87.6687
86.4196
84.9611
83.2672
81.3102
79.061
76.4899
73.567
70.2636
66.5536
62.4151
57.833
52.8004
47.3214
41.413
35.1078
28.4454
21.5884
92.2823
92.095
91.8253
91.571
91.2978
90.9568
90.5314
90.0162
89.4017
88.6741
87.8175
86.8148
85.6479
84.297
82.7414
80.9587
78.9262
76.6207
74.0191
71.0995
67.8421
64.2304
60.2527
55.9036
51.1853
46.1089
40.6957
34.9784
28.9944
22.8761
91.0735
90.8784
90.5863
90.2956
89.9747
89.5767
89.0861
88.4982
87.8047
86.9931
86.049
84.9574
83.7023
82.2667
80.633
78.7829
76.6981
74.3608
71.754
68.8624
65.6735
62.1782
58.3723
54.2572
49.8407
45.1378
40.1715
34.9727
29.5757
24.0881
89.8641
89.6628
89.351
89.027
88.6623
88.2123
87.6623
87.0086
86.2443
85.3583
84.3379
83.17
81.8411
80.3369
78.6428
76.7445
74.6278
72.2795
69.6878
66.8432
63.7387
60.3709
56.741
52.8547
48.7233
44.3636
39.7986
35.0567
30.1688
25.2221
88.6616
88.4559
88.1271
87.7731
87.3688
86.8717
86.2684
85.5562
84.7294
83.7785
82.6927
81.4609
80.0718
78.5139
76.7756
74.846
72.7146
70.3724
67.812
65.0281
62.0183
58.7836
55.3285
51.6617
47.7962
43.7496
39.5435
35.2039
30.7582
26.2772
87.474
87.2655
86.9224
86.542
86.1023
85.5634
84.9129
84.1494
83.2684
82.262
81.1213
79.8372
78.4006
76.8025
75.0342
73.0877
70.9561
68.6336
66.1163
63.4027
60.4937
57.393
54.1078
50.6484
47.0285
43.2654
39.3794
35.3938
31.3326
27.2537
86.3098
86.1
85.7454
85.342
84.8713
84.2957
83.6042
82.7964
81.8692
80.8163
79.6306
78.3049
76.8322
75.2059
73.4199
71.4687
69.3483
67.0559
64.5904
61.9529
59.1467
56.1779
53.0549
49.7889
46.3939
42.8863
39.2849
35.6103
31.8837
28.1524
85.1776
84.9682
84.6046
84.1817
83.6841
83.0769
82.3503
81.505
80.5392
79.4483
78.2267
76.8691
75.3705
73.7264
71.9329
69.9869
67.8867
65.6318
63.2235
60.6648
57.9609
55.1191
52.1488
49.0614
45.8707
42.5921
39.2427
35.8409
32.4053
28.9746
84.0865
83.8788
83.5087
83.0696
82.5492
81.9152
81.1593
80.2829
79.2856
78.1643
76.915
75.5341
74.0184
72.3652
70.5726
68.6395
66.566
64.3537
62.0053
59.5256
56.921
54.1996
51.3712
48.4472
45.4407
42.3661
39.2391
36.0759
32.893
29.7222
83.046
82.841
82.4667
82.0144
81.4751
80.8189
80.0387
79.1372
78.1149
76.9701
75.7004
74.3036
72.7782
71.123
69.3378
67.4232
65.3809
63.2138
60.9261
58.5236
56.0135
53.4044
50.7063
47.9302
45.0886
42.1948
39.2631
36.3079
33.3438
30.3971
82.0655
81.8644
81.4877
81.025
80.4701
79.7959
78.9964
78.0749
77.0334
75.8713
74.5873
73.1809
71.6517
70.0001
68.2272
66.335
64.3264
62.2053
59.9772
57.6483
55.2266
52.7209
50.1409
47.4974
44.8021
42.0674
39.3061
36.5314
33.756
31.0019
81.1552
80.9585
80.581
80.1102
79.5429
78.8543
78.0396
77.103
76.0472
74.8728
73.5799
72.1687
70.6405
68.9966
67.2393
65.3716
63.3975
61.3218
59.1504
56.8904
54.5499
52.1378
49.6636
47.1375
44.5707
41.9746
39.361
36.7416
34.1279
31.5383
80.3251
80.1332
79.756
79.2789
78.7017
78.002
77.1759
76.2281
75.1623
73.9799
72.6821
71.2703
69.7464
68.113
66.3732
64.5308
62.5906
60.5581
58.4397
56.2427
53.9754
51.6467
49.2657
46.8424
44.387
41.9104
39.4232
36.9362
34.4599
32.0095
79.5859
79.3987
79.0222
78.5401
77.9552
77.247
76.4124
75.4567
74.3841
73.1971
71.8976
70.4878
68.9705
67.349
65.6271
63.8095
61.9013
59.9086
57.8381
55.6972
53.4945
51.2385
48.9382
46.603
44.2428
41.8674
39.487
37.1112
34.7497
32.4152
78.9488
78.7656
78.3892
77.9027
77.3117
76.5975
75.7572
74.7963
73.7199
72.531
71.2321
69.8262
68.3168
66.7076
65.0033
63.2087
61.3296
59.3724
57.3438
55.2517
53.1043
50.9102
48.6781
46.4168
44.1358
41.8446
39.5524
37.2683
35.0011
32.7621
78.4259
78.2449
77.8664
77.375
76.7788
76.0598
75.2152
74.2508
73.1722
71.9829
70.686
69.2849
67.7834
66.186
64.4976
62.7234
60.8695
58.9424
56.9491
54.8975
52.7956
50.6521
48.4753
46.2737
44.0564
41.8323
39.6103
37.3988
35.2061
33.0415
78.0312
77.8472
77.4641
76.969
76.3699
75.648
74.8008
73.8345
72.755
71.5664
70.2719
68.8755
67.3813
65.7941
64.119
62.3616
60.5281
58.6252
56.66
54.6402
52.574
50.4698
48.3356
46.18
44.0114
41.8386
39.67
37.5137
35.3777
33.2703
77.7846
77.5767
77.1788
76.6798
76.0795
75.3563
74.5079
73.5412
72.4623
71.2753
69.9838
68.5917
67.1036
65.5244
63.8593
62.1143
60.2954
58.4096
56.464
54.4662
52.4244
50.347
48.2418
46.117
43.9812
41.8426
39.7095
37.5898
35.4909
33.4204
77.7291
77.4706
77.0493
76.5436
75.9401
75.214
74.3634
73.3956
72.3167
71.1307
69.8411
68.4521
66.9682
65.3944
63.736
61.999
60.1894
58.3143
56.3806
54.396
52.3687
50.3068
48.2182
46.1109
43.9932
41.8735
39.7598
37.6596
35.5804
33.5287
-94.2726
-108.581
-102.678
-39.752
-59.8743
-74.2171
-20.4079
-37.8307
-51.5989
-13.3584
-28.8049
-40.88
-7.78724
-20.5627
-31.1402
-2.7978
-13.3724
-22.5327
1.31212
-7.65647
-15.546
4.75231
-2.93704
-9.70743
7.77759
1.14264
-4.67658
10.4959
4.72995
-0.299834
12.9502
7.90479
3.5272
15.1717
10.7294
6.89272
17.1871
13.2536
9.86832
19.0176
15.5164
12.5107
20.6805
17.5485
14.8642
22.1895
19.3744
16.9636
23.5569
21.0145
18.8374
24.7926
22.4854
20.5084
25.9058
23.8013
21.996
26.9041
24.9744
23.3163
27.7946
26.015
24.4829
28.5842
26.933
25.5085
29.2776
27.7357
26.4025
29.8816
28.4316
27.1751
30.397
29.0234
27.8307
30.834
29.5223
28.3812
31.1828
29.9198
28.8199
31.4654
30.2383
29.1679
31.6489
30.4461
29.397
31.7848
30.6011
29.5628
-97.8818
-93.7947
-93.8285
-96.0107
-99.9018
-105.164
-111.56
-118.929
-127.124
-135.969
-145.237
-154.633
-163.77
-172.165
-179.22
-184.193
-186.306
-185.183
-180.973
-174.13
-164.943
-153.443
-139.558
-123.347
-105.166
-85.6577
-65.6068
-45.7902
-26.5619
-8.9296
-78.4844
-82.9273
-87.1951
-91.3505
-96.1768
-101.977
-108.683
-116.194
-124.404
-133.163
-142.264
-151.428
-160.29
-168.388
-175.156
-179.926
-182.026
-181.145
-177.407
-171.126
-162.466
-151.401
-137.859
-121.929
-103.999
-84.73
-64.9096
-45.3142
-26.3121
-9.06776
-66.3512
-76.2899
-81.5144
-86.7273
-92.5306
-98.8315
-105.707
-113.217
-121.315
-129.871
-138.691
-147.511
-155.988
-163.69
-170.099
-174.631
-176.73
-176.118
-172.86
-167.127
-158.964
-148.297
-135.078
-119.453
-101.852
-82.9561
-63.5429
-44.3715
-25.8147
-9.14924
-56.7103
-70.0605
-77.4594
-83.4149
-89.5293
-96.0426
-102.98
-110.376
-118.224
-126.435
-134.84
-143.197
-151.186
-158.409
-164.405
-168.678
-170.779
-170.43
-167.586
-162.291
-154.505
-144.141
-131.201
-115.902
-98.7241
-80.3479
-61.5278
-42.9847
-25.0843
-9.17047
-46.0115
-60.7992
-71.1909
-79.2959
-86.4215
-93.2751
-100.262
-107.553
-115.156
-122.997
-130.933
-138.758
-146.189
-152.876
-158.418
-162.403
-164.481
-164.322
-161.727
-156.662
-149.064
-138.88
-126.185
-111.267
-94.6321
-76.9437
-58.9084
-41.1921
-24.1426
-9.12689
-35.5775
-50.014
-62.3026
-72.6098
-81.3931
-89.259
-96.734
-104.151
-111.647
-119.218
-126.764
-134.109
-141.013
-147.176
-152.261
-155.926
-157.875
-157.707
-155.097
-150.023
-142.451
-132.386
-119.976
-105.556
-89.6295
-72.8162
-55.7569
-39.0498
-23.0184
-9.01282
-26.5307
-39.5924
-52.3502
-63.8888
-73.982
-82.975
-91.2735
-99.1725
-106.846
-114.357
-121.67
-128.664
-135.143
-140.855
-145.514
-148.837
-150.439
-149.947
-147.132
-141.951
-134.399
-124.542
-112.574
-98.8438
-83.8284
-68.0837
-52.1758
-36.631
-21.7469
-8.82212
-18.8618
-30.251
-42.4855
-54.2432
-64.9049
-74.5936
-83.5598
-91.982
-99.9744
-107.595
-114.835
-121.61
-127.768
-133.095
-137.337
-140.215
-141.338
-140.427
-137.4
-132.208
-124.85
-115.418
-104.13
-91.3198
-77.419
-62.9142
-48.2963
-34.0229
-20.3683
-8.55015
-12.3556
-22.1474
-33.3337
-44.5844
-55.1274
-64.9395
-74.1492
-82.8285
-91.0102
-98.7061
-105.893
-112.494
-118.378
-123.358
-127.196
-129.61
-130.286
-129.088
-126.024
-121.036
-114.114
-105.357
-94.9807
-83.289
-70.6599
-57.5119
-44.2663
-31.3192
-18.9246
-8.19659
-6.8248
-15.2313
-25.1888
-35.5266
-45.4702
-54.9218
-63.9334
-72.5047
-80.6031
-88.1903
-95.2133
-101.587
-107.182
-111.83
-115.312
-117.368
-117.779
-116.52
-113.63
-109.049
-102.764
-94.8714
-85.5644
-75.1105
-63.8324
-52.0858
-40.2302
-28.6084
-17.4561
-7.76784
-2.0908
-9.34534
-18.1012
-27.3796
-36.4717
-45.2543
-53.7404
-61.8915
-69.6364
-76.9018
-83.6087
-89.6589
-94.9261
-99.2536
-102.453
-104.307
-104.663
-103.539
-100.98
-96.941
-91.4122
-84.4775
-76.3028
-67.1148
-57.1857
-46.815
-36.3089
-25.9637
-15.9974
-7.27776
2.00097
-4.30807
-11.9854
-20.2204
-28.3887
-36.3662
-44.15
-51.6882
-58.8938
-65.6764
-71.9434
-77.5904
-82.4957
-86.5193
-89.5038
-91.2807
-91.731
-90.867
-88.7282
-85.2897
-80.5504
-74.5803
-67.5166
-59.5482
-50.9015
-41.8281
-32.5882
-23.4376
-14.5764
-6.74576
5.56926
0.0373445
-6.70965
-13.9953
-21.2756
-28.435
-35.4665
-42.3173
-48.8995
-55.1192
-60.8816
-66.085
-70.6171
-74.3553
-77.171
-78.9368
-79.5499
-78.9971
-77.3053
-74.4663
-70.4874
-65.4275
-59.3982
-52.5548
-45.0849
-37.1989
-29.1177
-21.0619
-13.2128
-6.19324
8.70238
3.81348
-2.14385
-8.59841
-15.0762
-21.4725
-27.7804
-33.9523
-39.9063
-45.5531
-50.8032
-55.5629
-59.7319
-63.2048
-65.8763
-67.6482
-68.4323
-68.1889
-66.9257
-64.6457
-61.3628
-57.1264
-52.0271
-46.1922
-39.7765
-32.9559
-25.9177
-18.8515
-11.92
-5.63992
11.4663
7.11344
1.82363
-3.91587
-9.69017
-15.4055
-21.0564
-26.6019
-31.9691
-37.0769
-41.844
-46.1867
-50.0174
-53.2463
-55.7854
-57.5541
-58.4858
-58.5232
-57.6446
-55.8627
-53.1963
-49.6863
-45.4059
-40.459
-34.974
-29.0979
-22.9891
-16.8101
-10.7059
-5.10134
13.9117
10.0087
5.28372
0.155582
-5.011
-10.132
-15.2038
-20.1921
-25.0332
-29.6551
-33.9856
-37.9511
-41.4759
-44.4833
-46.8985
-48.6538
-49.6946
-49.9628
-49.4189
-48.0715
-45.9412
-43.0626
-39.4949
-35.3227
-30.6527
-25.6079
-20.3224
-14.9353
-9.57456
-4.58816
16.0786
12.5552
8.3089
3.70236
-0.942527
-5.55046
-10.1193
-14.6209
-19
-23.1937
-27.1383
-30.7697
-34.0222
-36.8302
-39.1295
-40.862
-41.9803
-42.4302
-42.1677
-41.1932
-39.524
-37.1896
-34.2379
-30.7383
-26.7789
-22.4629
-17.9041
-13.2215
-8.52761
-4.10679
17.999
14.7968
10.9571
6.79544
2.59722
-1.56998
-5.70537
-9.78577
-13.7637
-17.5842
-21.1916
-24.5298
-27.5423
-30.1724
-32.3641
-34.0667
-35.2381
-35.83
-35.8002
-35.1413
-33.8657
-31.9977
-29.5765
-26.6586
-23.317
-19.6384
-15.7193
-11.6618
-7.5649
-3.66053
19.699
16.7693
13.2753
9.49313
5.67667
1.88684
-1.87653
-5.5945
-9.2262
-12.7237
-16.0383
-19.1213
-21.9236
-24.3951
-26.4872
-28.1555
-29.3622
-30.0656
-30.2268
-29.8329
-28.8913
-27.4214
-25.4552
-23.039
-20.2332
-17.1107
-13.7534
-10.2492
-6.68508
-3.2507
21.2005
18.5023
15.3023
11.8435
8.35281
4.88528
1.44009
-1.96727
-5.30153
-8.52076
-11.5825
-14.4442
-17.0625
-19.3935
-21.3949
-23.0273
-24.2562
-25.0476
-25.3656
-25.1923
-24.5324
-23.401
-21.8239
-19.8389
-17.4964
-14.8576
-11.9923
-8.97621
-5.88613
-2.87748
22.5217
20.0203
17.0701
13.8864
10.673
7.4799
4.30593
1.16379
-1.91597
-4.89663
-7.74094
-10.4113
-12.8695
-15.0774
-16.9976
-18.5943
-19.8357
-20.6955
-21.1418
-21.152
-20.7286
-19.8837
-18.6379
-17.0222
-15.0787
-12.859
-10.4229
-7.83594
-5.16575
-2.54051
23.6787
21.3443
18.6059
15.6555
12.6772
9.71695
6.77321
3.85639
0.993117
-1.78416
-4.44235
-6.94836
-9.26865
-11.3695
-13.2172
-14.7797
-16.0285
-16.9402
-17.4882
-17.6506
-17.4257
-16.8224
-15.8575
-14.5567
-12.9551
-11.0968
-9.03328
-6.82142
-4.52122
-2.23895
24.6842
22.4909
19.9312
17.1775
14.3975
11.6337
8.88409
6.15749
3.47734
0.872556
-1.62752
-3.99355
-6.19569
-8.20381
-9.98773
-11.5185
-12.7706
-13.7225
-14.3516
-14.6386
-14.5786
-14.1777
-13.4494
-12.4152
-11.1048
-9.55604
-7.81348
-5.92711
-3.95033
-1.97208
25.5503
23.4755
21.0653
18.4762
15.8622
13.2627
10.6756
8.10841
5.58185
3.12184
0.754752
-1.49314
-3.59512
-5.52403
-7.25251
-8.75444
-10.0067
-10.9893
-11.6831
-12.0713
-12.1471
-11.9141
-11.3833
-10.5729
-9.50831
-8.22228
-6.75382
-5.14719
-3.4503
-1.73851
26.2841
24.3077
22.0212
19.5682
17.0914
14.6275
12.1747
9.73913
7.33952
4.99939
2.74267
0.593072
-1.42517
-3.28721
-4.96826
-6.44472
-7.69518
-8.70106
-9.44621
-9.91573
-10.1016
-10.006
-9.63789
-9.01281
-8.15285
-7.08668
-5.8489
-4.47912
-3.02073
-1.53834
26.8974
25.0011
22.8152
20.4723
18.1064
15.7524
13.4082
11.0793
8.78257
6.53978
4.37286
2.30349
0.353965
-1.45295
-3.09489
-4.54997
-5.79772
-6.82083
-7.6055
-8.13888
-8.41251
-8.42729
-8.1908
-7.71645
-7.02375
-6.13823
-5.09103
-3.91806
-2.65905
-1.37031
27.3875
25.5547
23.4476
21.1912
18.9122
16.6443
14.3854
12.1401
9.92428
7.75801
5.66178
3.65573
1.76053
-0.0026638
-1.61299
-3.04989
-4.29423
-5.32994
-6.14409
-6.72562
-7.06683
-7.16743
-7.03374
-6.67772
-6.11694
-5.37466
-4.47937
-3.46421
-2.36606
-1.23481
27.7715
25.9862
23.9379
21.7454
19.5307
17.3265
15.1306
12.9472
10.7911
8.68142
6.63748
4.67831
2.82336
1.09266
-0.493662
-1.91625
-3.1576
-4.20247
-5.03811
-5.65467
-6.04573
-6.21046
-6.15403
-5.88723
-5.42626
-4.79273
-4.01332
-3.11921
-2.14525
-1.13612
28.028
26.2739
24.2647
22.1154
19.9441
17.7825
15.6288
13.4868
11.3709
9.29926
7.29065
5.36337
3.53597
1.82749
0.257489
-1.1551
-2.39358
-3.4433
-4.29126
-4.92835
-5.34994
-5.55537
-5.54912
-5.34112
-4.94666
-4.38629
-3.68558
-2.87475
-1.98815
-1.06965
28.1979
26.4498
24.4594
22.333
20.1835
18.0426
15.9093
13.7873
11.6905
9.63697
7.64501
5.73263
3.91804
2.21983
0.657211
-0.75118
-1.9892
-3.04304
-3.90128
-4.55445
-4.99615
-5.2256
-5.24755
-5.07178
-4.71317
-4.19173
-3.53246
-2.76507
-1.92368
-1.04997
)
;

boundaryField
{
    inlet
    {
        type            zeroGradient;
    }
    outlet
    {
        type            fixedValue;
        value           uniform 0;
    }
    flap
    {
        type            zeroGradient;
    }
    upperWall
    {
        type            zeroGradient;
    }
    lowerWall
    {
        type            zeroGradient;
    }
    frontAndBack
    {
        type            empty;
    }
}


// ************************************************************************* //
