/*--------------------------------*- C++ -*----------------------------------*\
| =========                 |                                                 |
| \\      /  F ield         | OpenFOAM: The Open Source CFD Toolbox           |
|  \\    /   O peration     | Version:  dev                                   |
|   \\  /    A nd           | Web:      www.OpenFOAM.org                      |
|    \\/     M anipulation  |                                                 |
\*---------------------------------------------------------------------------*/
FoamFile
{
    version     2.0;
    format      ascii;
    class       surfaceScalarField;
    location    "4.43";
    object      meshPhi;
}
// * * * * * * * * * * * * * * * * * * * * * * * * * * * * * * * * * * * * * //

dimensions      [0 3 -1 0 0 0 0];

internalField   nonuniform List<scalar> 
5457
(
6.15293e-06
-1.42115e-07
1.02892e-05
-3.89165e-07
1.13875e-05
-5.60756e-07
9.22605e-06
-6.48527e-07
4.04599e-06
-6.54875e-07
-3.59239e-06
-5.86801e-07
-1.29193e-05
-4.54873e-07
-2.30533e-05
-2.72723e-07
-3.30925e-05
-5.65169e-08
-4.21963e-05
1.75782e-07
-4.96547e-05
4.05364e-07
-5.49426e-05
6.13838e-07
-5.77594e-05
7.84709e-07
-5.80458e-05
9.05142e-07
-5.59727e-05
9.67721e-07
-5.19053e-05
9.71276e-07
-4.63472e-05
9.20822e-07
-3.98727e-05
8.26894e-07
-3.30525e-05
7.0339e-07
-2.6391e-05
5.65437e-07
-2.0163e-05
4.28386e-07
-1.45785e-05
3.04446e-07
-9.93393e-06
2.00752e-07
-6.34021e-06
1.21315e-07
-3.72099e-06
6.62448e-08
-1.94547e-06
3.18466e-08
-8.54227e-07
1.2878e-08
-2.79373e-07
3.94162e-09
-5.51037e-08
5.75757e-10
5.74196e-11
6.34267e-06
-2.865e-07
1.06205e-05
-7.84677e-07
1.18121e-05
-1.13121e-06
9.70403e-06
-1.30959e-06
4.53942e-06
-1.32469e-06
-3.11938e-06
-1.19049e-06
-1.24994e-05
-9.27981e-07
-2.27143e-05
-5.64315e-07
-3.2855e-05
-1.3172e-07
-4.20737e-05
3.33966e-07
-4.9652e-05
7.95165e-07
-5.50548e-05
1.21506e-06
-5.79721e-05
1.56044e-06
-5.83379e-05
1.80522e-06
-5.63187e-05
1.93423e-06
-5.22784e-05
1.94487e-06
-4.6722e-05
1.84682e-06
-4.02298e-05
1.66079e-06
-3.33805e-05
1.41493e-06
-2.66803e-05
1.14023e-06
-2.04139e-05
8.6684e-07
-1.47833e-05
6.18258e-07
-1.00842e-05
4.09245e-07
-6.44452e-06
2.48621e-07
-3.78823e-06
1.36856e-07
-1.98463e-06
6.66616e-08
-8.73397e-07
2.75793e-08
-2.86467e-07
8.83313e-09
-5.68782e-08
1.58497e-09
1.56948e-10
6.56223e-06
-4.34019e-07
1.10155e-05
-1.18909e-06
1.23399e-05
-1.71569e-06
1.03285e-05
-1.98946e-06
5.22556e-06
-2.01798e-06
-2.407e-06
-1.82212e-06
-1.17966e-05
-1.43316e-06
-2.20556e-05
-8.91503e-07
-3.22712e-05
-2.45169e-07
-4.15925e-05
4.52488e-07
-4.92983e-05
1.14549e-06
-5.4844e-05
1.77857e-06
-5.79084e-05
2.30164e-06
-5.84162e-05
2.67568e-06
-5.65253e-05
2.87776e-06
-5.25913e-05
2.90319e-06
-4.71138e-05
2.76563e-06
-4.06722e-05
2.49512e-06
-3.38477e-05
2.13372e-06
-2.71485e-05
1.72844e-06
-2.08502e-05
1.32286e-06
-1.51497e-05
9.49889e-07
-1.03657e-05
6.33137e-07
-6.64696e-06
3.88232e-07
-3.9221e-06
2.16683e-07
-2.0631e-06
1.07781e-07
-9.1112e-07
4.60348e-08
-2.99812e-07
1.55692e-08
-5.99876e-08
3.35176e-09
4.20005e-10
6.79503e-06
-5.85285e-07
1.14494e-05
-1.60434e-06
1.29428e-05
-2.31766e-06
1.10724e-05
-2.69348e-06
6.08228e-06
-2.74234e-06
-1.46879e-06
-2.49199e-06
-1.0813e-05
-1.98371e-06
-2.10653e-05
-1.2708e-06
-3.13136e-05
-4.1665e-07
-4.07094e-05
5.08322e-07
-4.8534e-05
1.43026e-06
-5.42386e-05
2.27599e-06
-5.74896e-05
2.97922e-06
-5.81996e-05
3.48855e-06
-5.65131e-05
3.77301e-06
-5.27715e-05
3.82502e-06
-4.74619e-05
3.66144e-06
-4.11526e-05
3.32078e-06
-3.44173e-05
2.85754e-06
-2.77658e-05
2.33325e-06
-2.14477e-05
1.80273e-06
-1.56564e-05
1.30637e-06
-1.07595e-05
8.78406e-07
-6.93326e-06
5.44675e-07
-4.11306e-06
3.08955e-07
-2.17472e-06
1.57305e-07
-9.63861e-07
6.94069e-08
-3.17816e-07
2.46511e-08
-6.39296e-08
5.99961e-09
8.64272e-10
7.08569e-06
-7.41169e-07
1.19976e-05
-2.03301e-06
1.37121e-05
-2.94147e-06
1.20306e-05
-3.42793e-06
7.19715e-06
-3.50622e-06
-2.3378e-07
-3.21101e-06
-9.50217e-06
-2.59317e-06
-1.97258e-05
-1.71846e-06
-2.99946e-05
-6.65391e-07
-3.94667e-05
4.79405e-07
-4.74265e-05
1.62535e-06
-5.33221e-05
2.68255e-06
-5.68085e-05
3.56944e-06
-5.77816e-05
4.2221e-06
-5.63677e-05
4.60089e-06
-5.28893e-05
4.69474e-06
-4.78155e-05
4.52258e-06
-4.16979e-05
4.13015e-06
-3.50978e-05
3.58265e-06
-2.85239e-05
2.95438e-06
-2.21905e-05
2.30861e-06
-1.62875e-05
1.69075e-06
-1.12473e-05
1.1479e-06
-7.28392e-06
7.20057e-07
-4.3428e-06
4.14827e-07
-2.30633e-06
2.15598e-07
-1.02505e-06
9.77092e-08
-3.38214e-07
3.60217e-08
-6.81239e-08
9.44308e-09
1.45995e-09
7.43623e-06
-9.02409e-07
1.26622e-05
-2.47729e-06
1.46492e-05
-3.59079e-06
1.3204e-05
-4.19812e-06
8.57124e-06
-4.31689e-06
1.30014e-06
-3.98876e-06
-7.85943e-06
-3.27385e-06
-1.80289e-05
-2.24965e-06
-2.83015e-05
-1.00924e-06
-3.7848e-05
3.45474e-07
-4.5956e-05
1.70885e-06
-5.2068e-05
2.97548e-06
-5.58303e-05
4.04921e-06
-5.71206e-05
4.85365e-06
-5.60422e-05
5.34019e-06
-5.28932e-05
5.49351e-06
-4.81193e-05
5.33319e-06
-4.22506e-05
4.91023e-06
-3.58337e-05
4.29873e-06
-2.93715e-05
3.58422e-06
-2.30337e-05
2.8353e-06
-1.70061e-05
2.09959e-06
-1.17996e-05
1.43933e-06
-7.67481e-06
9.1271e-07
-4.59197e-06
5.32962e-07
-2.44451e-06
2.81519e-07
-1.08759e-06
1.30055e-07
-3.5838e-07
4.91236e-08
-7.19526e-08
1.34176e-08
2.13969e-09
7.84771e-06
-1.0696e-06
1.34439e-05
-2.93892e-06
1.57539e-05
-4.26853e-06
1.45917e-05
-5.00828e-06
1.02035e-05
-5.18022e-06
3.13338e-06
-4.83323e-06
-5.87982e-06
-4.03639e-06
-1.5966e-05
-2.87794e-06
-2.62241e-05
-1.46425e-06
-3.5837e-05
8.82618e-08
-4.40982e-05
1.66011e-06
-5.04452e-05
3.13183e-06
-5.45152e-05
4.39366e-06
-5.61673e-05
5.35728e-06
-5.54788e-05
5.96505e-06
-5.27191e-05
6.19644e-06
-4.83051e-05
6.07007e-06
-4.2741e-05
5.64018e-06
-3.65545e-05
4.98763e-06
-3.02394e-05
4.20718e-06
-2.39139e-05
3.36972e-06
-1.77582e-05
2.52239e-06
-1.23729e-05
1.74453e-06
-8.07405e-06
1.11651e-06
-4.83981e-06
6.5899e-07
-2.57675e-06
3.52181e-07
-1.14436e-06
1.64675e-07
-3.75426e-07
6.30059e-08
-7.48426e-08
1.75448e-08
2.82071e-09
8.3211e-06
-1.24322e-06
1.43432e-05
-3.41923e-06
1.70253e-05
-4.9768e-06
1.61914e-05
-5.86146e-06
1.20911e-05
-6.10055e-06
5.26405e-06
-5.75047e-06
-3.56197e-06
-4.8891e-06
-1.35324e-05
-3.61428e-06
-2.37546e-05
-2.04417e-06
-3.34195e-05
-3.08739e-07
-4.18291e-05
1.45966e-06
-4.84196e-05
3.12919e-06
-5.2819e-05
4.57781e-06
-5.48665e-05
5.70608e-06
-5.46119e-05
6.44733e-06
-5.22923e-05
6.77497e-06
-4.82913e-05
6.7051e-06
-4.30831e-05
6.29303e-06
-3.71726e-05
5.62403e-06
-3.10408e-05
4.79988e-06
-2.47511e-05
3.89094e-06
-1.84768e-05
2.94168e-06
-1.29146e-05
2.04993e-06
-8.44367e-06
1.32141e-06
-5.06188e-06
7.85891e-07
-2.68906e-06
4.23051e-07
-1.18843e-06
1.98967e-07
-3.86927e-07
7.64499e-08
-7.63466e-08
2.14073e-08
3.43035e-09
8.85745e-06
-1.42359e-06
1.53606e-05
-3.9191e-06
1.84619e-05
-5.7169e-06
1.79994e-05
-6.75943e-06
1.4229e-05
-7.08048e-06
7.68716e-06
-6.74439e-06
-9.08761e-07
-5.83784e-06
-1.07259e-05
-4.46736e-06
-2.08869e-05
-2.76042e-06
-3.05842e-05
-8.59348e-07
-3.91275e-05
1.09071e-06
-4.59581e-05
2.94729e-06
-5.06955e-05
4.57807e-06
-5.31591e-05
5.87347e-06
-5.33696e-05
6.75797e-06
-5.15294e-05
7.19827e-06
-4.79855e-05
7.20645e-06
-4.31784e-05
6.83684e-06
-3.75865e-05
6.17667e-06
-3.16746e-05
5.3323e-06
-2.54519e-05
4.37134e-06
-1.90844e-05
3.33411e-06
-1.33659e-05
2.33745e-06
-8.74227e-06
1.51427e-06
-5.23176e-06
9.047e-07
-2.7669e-06
4.88531e-07
-1.21356e-06
2.29884e-07
-3.91024e-07
8.8117e-08
-7.6112e-08
2.45832e-08
3.8958e-09
9.4582e-06
-1.61093e-06
1.64966e-05
-4.43902e-06
2.00613e-05
-6.4893e-06
2.00102e-05
-7.70265e-06
1.66094e-05
-8.12073e-06
1.03941e-05
-7.81648e-06
2.07199e-06
-6.88534e-06
-7.54772e-06
-5.44235e-06
-1.76136e-05
-3.62202e-06
-2.732e-05
-1.57548e-06
-3.59753e-05
5.39328e-07
-4.303e-05
2.56903e-06
-4.81002e-05
4.37341e-06
-5.0986e-05
5.83459e-06
-5.16784e-05
6.8686e-06
-5.03438e-05
7.43496e-06
-4.72902e-05
7.54052e-06
-4.29215e-05
7.23667e-06
-3.76867e-05
6.61028e-06
-3.20314e-05
5.76987e-06
-2.59158e-05
4.77873e-06
-1.94995e-05
3.67241e-06
-1.36663e-05
2.58618e-06
-8.92851e-06
1.68018e-06
-5.32423e-06
1.0055e-06
-2.79716e-06
5.42646e-07
-1.21436e-06
2.54311e-07
-3.86065e-07
9.66916e-08
-7.37774e-08
2.66638e-08
4.14533e-09
1.01256e-05
-1.80543e-06
1.77525e-05
-4.97922e-06
2.18205e-05
-7.29371e-06
2.22166e-05
-8.69022e-06
1.92219e-05
-9.22015e-06
1.33723e-05
-8.96574e-06
5.36569e-06
-8.03109e-06
-4.00902e-06
-6.53947e-06
-1.39322e-05
-4.63194e-06
-2.36143e-05
-2.46504e-06
-3.23565e-05
-2.05782e-07
-3.96098e-05
1.98087e-06
-4.49937e-05
3.94671e-06
-4.82929e-05
5.56795e-06
-4.94689e-05
6.75341e-06
-4.86517e-05
7.4553e-06
-4.61094e-05
7.67427e-06
-4.22078e-05
7.45721e-06
-3.73641e-05
6.8885e-06
-3.20024e-05
6.07644e-06
-2.60435e-05
5.07929e-06
-1.96423e-05
3.92804e-06
-1.37583e-05
2.77444e-06
-8.96433e-06
1.80391e-06
-5.31687e-06
1.07837e-06
-2.76851e-06
5.79601e-07
-1.18593e-06
2.69284e-07
-3.70314e-07
1.00901e-07
-6.88188e-08
2.72191e-08
4.09496e-09
1.08634e-05
-2.00726e-06
1.91307e-05
-5.53978e-06
2.37358e-05
-8.12922e-06
2.46092e-05
-9.71994e-06
2.2053e-05
-1.03757e-05
1.66052e-05
-1.01887e-05
8.95392e-06
-9.27174e-06
-1.30991e-07
-7.7555e-06
-9.85754e-06
-5.7873e-06
-1.94645e-05
-3.52826e-06
-2.82587e-05
-1.14994e-06
-3.56795e-05
1.17385e-06
-4.13456e-05
3.28575e-06
-4.50349e-05
5.05702e-06
-4.66813e-05
6.39123e-06
-4.63791e-05
7.23357e-06
-4.43571e-05
7.57807e-06
-4.09424e-05
7.46588e-06
-3.65195e-05
6.97711e-06
-3.14894e-05
6.21778e-06
-2.57464e-05
5.24103e-06
-1.94426e-05
4.07401e-06
-1.35921e-05
2.88186e-06
-8.81695e-06
1.87119e-06
-5.18987e-06
1.11395e-06
-2.6701e-06
5.937e-07
-1.12305e-06
2.71765e-07
-3.41418e-07
9.93873e-08
-6.01901e-08
2.57129e-08
3.60573e-09
1.16777e-05
-2.21676e-06
2.06359e-05
-6.12098e-06
2.58027e-05
-8.99448e-06
2.71767e-05
-1.07884e-05
2.50859e-05
-1.15824e-05
2.00727e-05
-1.14795e-05
1.28152e-05
-1.06009e-05
4.06339e-06
-9.08434e-06
-5.41557e-06
-7.08223e-06
-1.48873e-05
-4.75988e-06
-2.36815e-05
-2.2914e-06
-3.12293e-05
1.45046e-07
-3.71375e-05
2.38426e-06
-4.11811e-05
4.29175e-06
-4.32712e-05
5.7673e-06
-4.34687e-05
6.75036e-06
-4.19648e-05
7.22827e-06
-3.90492e-05
7.23576e-06
-3.50736e-05
6.84735e-06
-3.04147e-05
6.16495e-06
-2.49552e-05
5.23693e-06
-1.88461e-05
4.08755e-06
-1.31288e-05
2.89103e-06
-8.45969e-06
1.86957e-06
-4.92488e-06
1.1036e-06
-2.48951e-06
5.79174e-07
-1.01788e-06
2.58158e-07
-2.94578e-07
9.01419e-08
-4.52883e-08
2.11484e-08
2.37127e-09
1.25776e-05
-2.43456e-06
2.22758e-05
-6.72359e-06
2.80157e-05
-9.88789e-06
2.99052e-05
-1.1891e-05
2.83009e-05
-1.28338e-05
2.37509e-05
-1.283e-05
1.69235e-05
-1.20095e-05
8.54849e-06
-1.05164e-05
-6.32755e-07
-8.50742e-06
-9.91015e-06
-6.15084e-06
-1.86394e-05
-3.62263e-06
-2.62609e-05
-1.10164e-06
-3.23658e-05
1.24267e-06
-3.67181e-05
3.26946e-06
-3.92141e-05
4.87491e-06
-3.98853e-05
5.99451e-06
-3.88886e-05
6.60956e-06
-3.64781e-05
6.7482e-06
-3.29742e-05
6.47854e-06
-2.87289e-05
5.89695e-06
-2.36267e-05
5.04739e-06
-1.78181e-05
3.95188e-06
-1.2342e-05
2.78855e-06
-7.87174e-06
1.78861e-06
-4.5041e-06
1.03914e-06
-2.2104e-06
5.29449e-07
-8.55367e-07
2.23123e-07
-2.17788e-07
6.92179e-08
-1.70847e-08
1.12442e-08
-4.15137e-10
1.34713e-05
-2.63777e-06
2.39976e-05
-7.31261e-06
3.03822e-05
-1.08004e-05
3.27896e-05
-1.3032e-05
3.16881e-05
-1.41313e-05
2.76269e-05
-1.42403e-05
2.12649e-05
-1.34965e-05
1.33112e-05
-1.205e-05
4.47987e-06
-1.00609e-05
-4.54468e-06
-7.6989e-06
-1.31404e-05
-5.1412e-06
-2.07698e-05
-2.56605e-06
-2.70169e-05
-1.4304e-07
-3.16266e-05
1.983e-06
-3.44844e-05
3.70443e-06
-3.55978e-05
4.95366e-06
-3.50932e-05
5.70709e-06
-3.31926e-05
5.98656e-06
-3.01865e-05
5.85335e-06
-2.64029e-05
5.39724e-06
-2.17376e-05
4.65783e-06
-1.63384e-05
3.65443e-06
-1.12129e-05
2.56345e-06
-7.03341e-06
1.6184e-06
-3.90512e-06
9.11124e-07
-1.80632e-06
4.35043e-07
-6.04964e-07
1.56812e-07
-7.87028e-08
2.66035e-08
5.31929e-08
-1.23391e-08
-9.98384e-09
1.48383e-07
9.02243e-11
7.72338e-07
1.31022e-09
2.50902e-06
2.58826e-09
5.95424e-06
4.18661e-09
1.1528e-05
1.85843e-09
1.94143e-05
-1.42372e-08
2.95692e-05
-5.81538e-08
4.17864e-05
-1.46109e-07
5.57835e-05
-2.92081e-07
6.99269e-05
-4.99286e-07
8.28128e-05
-7.62704e-07
9.48418e-05
-1.0738e-06
0.000106149
-1.4142e-06
0.000116352
-1.75878e-06
0.000125061
-2.08381e-06
0.000131918
-2.36859e-06
0.000136621
-2.59866e-06
0.000138955
-2.76337e-06
0.000138798
-2.85653e-06
0.000136127
-2.87705e-06
0.000131002
-2.83292e-06
0.000123559
-2.73469e-06
0.000113983
-2.58661e-06
0.000102481
-2.39284e-06
8.92458e-05
-2.15612e-06
7.4421e-05
-1.87656e-06
5.80852e-05
-1.55196e-06
4.02411e-05
-1.17821e-06
2.07866e-05
-7.48697e-07
-2.61183e-07
1.51868e-07
3.36263e-10
7.89567e-07
2.57005e-09
2.55013e-06
5.44128e-09
6.01531e-06
8.45425e-09
1.15878e-05
2.59986e-09
1.9445e-05
-3.19337e-08
2.95444e-05
-1.23653e-07
4.16767e-05
-3.03221e-07
5.55341e-05
-5.96469e-07
6.96543e-05
-1.01053e-06
8.25822e-05
-1.53367e-06
9.45906e-05
-2.14852e-06
0.000105916
-2.81974e-06
0.000116154
-3.4983e-06
0.000124904
-4.13806e-06
0.000131797
-4.69852e-06
0.000136528
-5.14994e-06
0.000138878
-5.47294e-06
0.000138727
-5.65813e-06
0.000136053
-5.70547e-06
0.000130922
-5.62515e-06
0.000123471
-5.43335e-06
0.000113889
-5.1419e-06
0.000102384
-4.75881e-06
8.91509e-05
-4.28892e-06
7.43347e-05
-3.73353e-06
5.80138e-05
-3.08875e-06
4.01904e-05
-2.34554e-06
2.07609e-05
-1.49072e-06
-5.20066e-07
1.54706e-07
4.93449e-10
8.02015e-07
3.37771e-09
2.56714e-06
7.29384e-09
6.00146e-06
9.75245e-09
1.14815e-05
-3.75115e-09
1.9179e-05
-6.24966e-08
2.90635e-05
-2.0821e-07
4.09429e-05
-4.84794e-07
5.45176e-05
-9.28262e-07
6.84724e-05
-1.54631e-06
8.13574e-05
-2.31972e-06
9.33488e-05
-3.2227e-06
0.000104718
-4.20515e-06
0.000115036
-5.19722e-06
0.000123887
-6.13264e-06
0.000130891
-6.95302e-06
0.000135729
-7.61299e-06
0.000138177
-8.08622e-06
0.000138114
-8.36249e-06
0.000135518
-8.44219e-06
0.000130455
-8.33622e-06
0.000123067
-8.06137e-06
0.000113543
-7.6357e-06
0.000102092
-7.07283e-06
8.89092e-05
-6.37958e-06
7.41418e-05
-5.55743e-06
5.78696e-05
-4.60035e-06
4.00945e-05
-3.49494e-06
2.0713e-05
-2.2218e-06
-7.75194e-07
1.55518e-07
5.38282e-10
8.02399e-07
3.46533e-09
2.5406e-06
6.87258e-09
5.88043e-06
5.05749e-09
1.11722e-05
-2.26784e-08
1.85865e-05
-1.14598e-07
2.81125e-05
-3.23164e-07
3.95905e-05
-7.03278e-07
5.27542e-05
-1.29895e-06
6.64002e-05
-2.11558e-06
7.9158e-05
-3.12491e-06
9.11449e-05
-4.29315e-06
0.000102581
-5.55906e-06
0.00011302
-6.83627e-06
0.000122026
-8.04137e-06
0.000129202
-9.10066e-06
0.00013422
-9.95645e-06
0.000136845
-1.05745e-05
0.000136952
-1.09412e-05
0.000134514
-1.10573e-05
0.000129598
-1.09363e-05
0.000122346
-1.0594e-05
0.000112947
-1.0048e-05
0.000101608
-9.31762e-06
8.85245e-05
-8.41365e-06
7.38467e-05
-7.33666e-06
5.76563e-05
-6.07784e-06
3.9956e-05
-4.62e-06
2.06445e-05
-2.93805e-06
-1.02524e-06
1.54681e-07
4.60909e-10
7.92703e-07
2.7107e-09
2.48136e-06
3.36813e-09
5.68724e-06
-7.52129e-09
1.07363e-05
-5.71832e-08
1.77998e-05
-1.9215e-07
2.68891e-05
-4.73312e-07
3.78797e-05
-9.63312e-07
5.05391e-05
-1.71128e-06
6.37917e-05
-2.71889e-06
7.6384e-05
-3.94666e-06
8.83668e-05
-5.35309e-06
9.98803e-05
-6.87016e-06
0.000110459
-8.39959e-06
0.000119647
-9.84438e-06
0.00012703
-1.11182e-05
0.000132266
-1.2154e-05
0.000135112
-1.29091e-05
0.000135434
-1.33648e-05
0.000133201
-1.3521e-05
0.000128478
-1.33924e-05
0.000121406
-1.29966e-05
0.00011217
-1.23492e-05
0.000100978
-1.14682e-05
8.80259e-05
-1.03687e-05
7.34661e-05
-9.05188e-06
5.73819e-05
-7.50581e-06
3.97779e-05
-5.70944e-06
2.05566e-05
-3.63246e-06
-1.26781e-06
1.51959e-07
2.34067e-10
7.7266e-07
9.15624e-10
2.3937e-06
-3.92547e-09
5.43989e-06
-2.93994e-08
1.0214e-05
-1.09234e-07
1.6889e-05
-2.9697e-07
2.54995e-05
-6.59644e-07
3.59557e-05
-1.26455e-06
4.8059e-05
-2.16331e-06
6.0868e-05
-3.35224e-06
7.32635e-05
-4.77914e-06
8.5229e-05
-6.39516e-06
9.68121e-05
-8.12945e-06
0.000107529
-9.8765e-06
0.000116903
-1.15292e-05
0.000124504
-1.29916e-05
0.000129977
-1.41881e-05
0.000133067
-1.50693e-05
0.00013363
-1.56112e-05
0.000131633
-1.58111e-05
0.000127138
-1.5682e-05
0.000120279
-1.52432e-05
0.00011124
-1.45116e-05
0.000100223
-1.3501e-05
8.74278e-05
-1.22255e-05
7.30102e-05
-1.06872e-05
5.70537e-05
-8.87157e-06
3.95651e-05
-6.75386e-06
2.04514e-05
-4.29919e-06
-1.50088e-06
1.47456e-07
-1.70696e-10
7.44132e-07
-2.09733e-09
2.28592e-06
-1.54059e-08
5.16027e-06
-6.11416e-08
9.64913e-06
-1.79238e-07
1.59274e-05
-4.28669e-07
2.40519e-05
-8.80252e-07
3.39649e-05
-1.6032e-06
4.55007e-05
-2.64931e-06
5.7847e-05
-4.00828e-06
7.00224e-05
-5.61421e-06
8.19475e-05
-7.41127e-06
9.35756e-05
-9.32923e-06
0.000104407
-1.12595e-05
0.00011395
-1.30883e-05
0.000121758
-1.47127e-05
0.000127463
-1.60506e-05
0.000130799
-1.70463e-05
0.000131614
-1.7671e-05
0.000129867
-1.79181e-05
0.000125618
-1.77977e-05
0.000118998
-1.73276e-05
0.000110179
-1.65252e-05
9.93596e-05
-1.54046e-05
8.67439e-05
-1.39753e-05
7.24895e-05
-1.22353e-05
5.66792e-05
-1.01689e-05
3.93224e-05
-7.74856e-06
2.03315e-05
-4.93526e-06
-1.7234e-06
1.41666e-07
-7.94478e-10
7.10601e-07
-6.45466e-09
2.16932e-06
-3.1277e-08
4.87382e-06
-1.02819e-07
9.08812e-06
-2.66606e-07
1.49883e-05
-5.85308e-07
2.26507e-05
-1.13128e-06
3.2046e-05
-1.97337e-06
4.30373e-05
-3.16164e-06
5.49287e-05
-4.67824e-06
6.68683e-05
-6.44317e-06
7.87226e-05
-8.39401e-06
9.03583e-05
-1.04639e-05
0.000101265
-1.25448e-05
0.000110939
-1.45191e-05
0.000118921
-1.62797e-05
0.000124834
-1.77396e-05
0.0001284
-1.88382e-05
0.000129459
-1.95416e-05
0.000127965
-1.9839e-05
0.000123968
-1.97363e-05
0.000117596
-1.92482e-05
0.00010901
-1.83902e-05
9.84058e-05
-1.7177e-05
8.59897e-05
-1.56132e-05
7.19156e-05
-1.36912e-05
5.62664e-05
-1.13937e-05
3.90548e-05
-8.69019e-06
2.01992e-05
-5.53845e-06
-1.93459e-06
1.35456e-07
-1.66156e-09
6.76834e-07
-1.22407e-08
2.05754e-06
-5.16248e-08
4.60825e-06
-1.54224e-07
8.57738e-06
-3.70233e-07
1.41409e-05
-7.64216e-07
2.13908e-05
-1.40813e-06
3.03207e-05
-2.36863e-06
4.08179e-05
-3.69255e-06
5.22833e-05
-5.35385e-06
6.3978e-05
-7.25845e-06
7.57267e-05
-9.33784e-06
8.73234e-05
-1.15305e-05
9.82528e-05
-1.37318e-05
0.000108005
-1.58234e-05
0.000116113
-1.76958e-05
0.000122191
-1.92594e-05
0.000125956
-2.04492e-05
0.000127238
-2.12269e-05
0.000125983
-2.15765e-05
0.000122236
-2.14992e-05
0.000116108
-2.10055e-05
0.000107758
-2.01089e-05
9.73834e-05
-1.88198e-05
8.51821e-05
-1.7138e-05
7.13008e-05
-1.50527e-05
5.58242e-05
-1.25433e-05
3.8768e-05
-9.57652e-06
2.00574e-05
-6.10725e-06
-2.13392e-06
1.30008e-07
-2.799e-09
6.48497e-07
-1.95641e-08
1.96575e-06
-7.6642e-08
4.39222e-06
-2.15326e-07
8.16133e-06
-4.89164e-07
1.3447e-05
-9.6288e-07
2.0353e-05
-1.70659e-06
2.88893e-05
-2.78348e-06
3.89618e-05
-4.23587e-06
5.00445e-05
-6.02903e-06
6.14908e-05
-8.05507e-06
7.30971e-05
-1.024e-05
8.46031e-05
-1.25292e-05
9.54949e-05
-1.4824e-05
0.000105262
-1.70069e-05
0.000113436
-1.89689e-05
0.000119626
-2.06186e-05
0.000123545
-2.18883e-05
0.000125016
-2.27351e-05
0.000123978
-2.3138e-05
0.000120463
-2.3092e-05
0.00011457
-2.26036e-05
0.000106457
-2.16831e-05
9.63183e-05
-2.03336e-05
8.43385e-05
-1.855e-05
7.06577e-05
-1.63191e-05
5.53611e-05
-1.36166e-05
3.84675e-05
-1.04064e-05
1.99087e-05
-6.64075e-06
-2.32102e-06
1.26868e-07
-4.26864e-09
6.32485e-07
-2.87148e-08
1.91052e-06
-1.06936e-07
4.25382e-06
-2.86577e-07
7.88039e-06
-6.23012e-07
1.296e-05
-1.17978e-06
1.96031e-05
-2.02406e-06
2.78297e-05
-3.21464e-06
3.75575e-05
-4.78842e-06
4.83093e-05
-6.70122e-06
5.95067e-05
-8.83151e-06
7.09338e-05
-1.11009e-05
8.22959e-05
-1.34634e-05
9.30864e-05
-1.58275e-05
0.0001028
-1.80789e-05
0.000110972
-2.01101e-05
0.000117213
-2.18298e-05
0.000121232
-2.31682e-05
0.000122849
-2.40786e-05
0.000121995
-2.45346e-05
0.000118687
-2.45251e-05
0.000113015
-2.40516e-05
0.000105137
-2.3118e-05
9.52335e-05
-2.17208e-05
8.34758e-05
-1.98509e-05
6.99986e-05
-1.74912e-05
5.48858e-05
-1.46135e-05
3.81587e-05
-1.11793e-05
1.97557e-05
-7.1385e-06
-2.49572e-06
1.28279e-07
-6.22071e-09
6.37853e-07
-4.03963e-08
1.91083e-06
-1.43944e-07
4.22156e-06
-3.69615e-07
7.77232e-06
-7.73022e-07
1.27258e-05
-1.41552e-06
1.91929e-05
-2.36055e-06
2.71986e-05
-3.66215e-06
3.66662e-05
-5.35122e-06
4.71406e-05
-7.37249e-06
5.8089e-05
-9.59028e-06
6.9301e-05
-1.19243e-05
8.04674e-05
-1.4339e-05
9.10931e-05
-1.67515e-05
0.000100684
-1.9051e-05
0.000108785
-2.11332e-05
0.000115011
-2.29078e-05
0.000119072
-2.4304e-05
0.000120786
-2.52718e-05
0.000120074
-2.57796e-05
0.000116942
-2.58106e-05
0.000111477
-2.53588e-05
0.000103824
-2.44202e-05
9.41487e-05
-2.29865e-05
8.26094e-05
-2.10439e-05
6.93348e-05
-1.85707e-05
5.44061e-05
-1.55349e-05
3.78466e-05
-1.18954e-05
1.96009e-05
-7.6004e-06
-2.65795e-06
1.38575e-07
-9.08242e-09
6.78465e-07
-5.63425e-08
1.99217e-06
-1.91005e-07
4.33027e-06
-4.68702e-07
7.87731e-06
-9.43551e-07
1.27858e-05
-1.67402e-06
1.9163e-05
-2.71959e-06
2.70359e-05
-4.12999e-06
3.63289e-05
-5.93055e-06
4.65748e-05
-8.05075e-06
5.72682e-05
-1.03379e-05
6.82312e-05
-1.27161e-05
7.91536e-05
-1.51646e-05
8.95543e-05
-1.7607e-05
9.89553e-05
-1.99368e-05
0.000106915
-2.20535e-05
0.00011306
-2.38691e-05
0.000117105
-2.53123e-05
0.000118864
-2.63304e-05
0.000118251
-2.68872e-05
0.000115265
-2.69598e-05
0.000109985
-2.65336e-05
0.000102541
-2.5597e-05
9.30814e-05
-2.41365e-05
8.1753e-05
-2.21331e-05
6.86765e-05
-1.95601e-05
5.39292e-05
-1.63821e-05
3.75357e-05
-1.25553e-05
1.94465e-05
-8.02658e-06
-2.80771e-06
1.70268e-07
-1.42715e-08
7.82773e-07
-8.12077e-08
2.19657e-06
-2.55659e-07
4.62804e-06
-5.93065e-07
8.24281e-06
-1.14443e-06
1.31821e-05
-1.96503e-06
1.95478e-05
-3.11059e-06
2.7371e-05
-4.62834e-06
3.65799e-05
-6.54225e-06
4.66327e-05
-8.75512e-06
5.70465e-05
-1.10871e-05
6.77302e-05
-1.34859e-05
7.83658e-05
-1.59529e-05
8.84851e-05
-1.84097e-05
9.76322e-05
-2.07537e-05
0.000105386
-2.28898e-05
0.000111387
-2.47331e-05
0.000115356
-2.62126e-05
0.000117109
-2.7273e-05
0.000116552
-2.78738e-05
0.000113681
-2.79859e-05
0.000108561
-2.75868e-05
0.000101305
-2.66571e-05
9.20465e-05
-2.51773e-05
8.09184e-05
-2.31228e-05
6.80324e-05
-2.04622e-05
5.34613e-05
-1.71565e-05
3.72298e-05
-1.31597e-05
1.92943e-05
-8.41728e-06
-2.94505e-06
2.87465e-07
-3.50689e-08
1.0426e-06
-1.36401e-07
2.6232e-06
-3.64625e-07
5.20815e-06
-7.71351e-07
8.9488e-06
-1.40397e-06
1.39772e-05
-2.31488e-06
2.03907e-05
-3.55713e-06
2.82332e-05
-5.17888e-06
3.74001e-05
-7.19066e-06
4.72637e-05
-9.46624e-06
5.73967e-05
-1.18291e-05
6.77864e-05
-1.42496e-05
7.80969e-05
-1.67291e-05
8.78787e-05
-1.91869e-05
9.67093e-05
-2.15295e-05
0.000104193
-2.36704e-05
0.000109988
-2.55286e-05
0.000113826
-2.70339e-05
0.000115525
-2.81283e-05
0.000114986
-2.87668e-05
0.000112197
-2.89141e-05
0.000107212
-2.85408e-05
0.000100123
-2.76202e-05
9.10492e-05
-2.6126e-05
8.01098e-05
-2.40277e-05
6.74059e-05
-2.12891e-05
5.30045e-05
-1.78677e-05
3.69303e-05
-1.37154e-05
1.91448e-05
-8.77672e-06
-3.07143e-06
1.47139e-05
-2.80585e-06
2.65499e-05
-7.82661e-06
3.40911e-05
-1.1674e-05
3.72357e-05
-1.42043e-05
3.66204e-05
-1.54919e-05
3.29368e-05
-1.57247e-05
2.68509e-05
-1.50753e-05
1.90776e-05
-1.3698e-05
1.03266e-05
-1.1755e-05
1.27899e-06
-9.4154e-06
-7.43951e-06
-6.85654e-06
-1.5294e-05
-4.25638e-06
-2.18591e-05
-1.78235e-06
-2.68561e-05
4.21024e-07
-3.01523e-05
2.24368e-06
-3.17351e-05
3.6151e-06
-3.17085e-05
4.5076e-06
-3.02731e-05
4.93716e-06
-2.7702e-05
4.95814e-06
-2.43111e-05
4.65301e-06
-2.00105e-05
4.05707e-06
-1.49426e-05
3.18516e-06
-1.00929e-05
2.20498e-06
-6.14237e-06
1.3464e-06
-3.20753e-06
7.04996e-07
-1.27314e-06
2.78881e-07
-2.07697e-07
3.84399e-08
2.13603e-07
-6.34028e-08
2.69723e-07
-8.09319e-08
-6.76781e-08
1.73695e-07
1.56005e-05
-2.95708e-06
2.84766e-05
-8.26827e-06
3.72894e-05
-1.24316e-05
4.15237e-05
-1.53165e-05
4.15687e-05
-1.68908e-05
3.83537e-05
-1.7288e-05
3.2688e-05
-1.67459e-05
2.52711e-05
-1.54594e-05
1.67913e-05
-1.3588e-05
7.91155e-06
-1.1297e-05
-7.46318e-07
-8.76294e-06
-8.65316e-06
-6.16365e-06
-1.53891e-05
-3.66337e-06
-2.06665e-05
-1.40385e-06
-2.43345e-05
5.0465e-07
-2.63626e-05
1.98953e-06
-2.68329e-05
3.01962e-06
-2.59239e-05
3.60557e-06
-2.38888e-05
3.79516e-06
-2.10268e-05
3.66367e-06
-1.72707e-05
3.24339e-06
-1.27333e-05
2.54014e-06
-8.33335e-06
1.7025e-06
-4.74967e-06
9.54093e-07
-2.10482e-06
3.95635e-07
-3.88623e-07
2.94111e-08
5.25738e-07
-1.7008e-07
8.54021e-07
-2.46049e-07
8.61388e-07
-2.49634e-07
-2.33065e-07
8.12628e-07
1.64699e-05
-3.10482e-06
3.02038e-05
-8.68396e-06
4.01092e-05
-1.30897e-05
4.57135e-05
-1.62719e-05
4.68751e-05
-1.82077e-05
4.43001e-05
-1.88906e-05
3.90926e-05
-1.85031e-05
3.20997e-05
-1.73234e-05
2.39603e-05
-1.5549e-05
1.53101e-05
-1.33314e-05
6.7738e-06
-1.0846e-05
-1.12619e-06
-8.27156e-06
-7.97826e-06
-5.76769e-06
-1.34919e-05
-3.47222e-06
-1.75025e-05
-1.49407e-06
-1.99632e-05
9.33615e-08
-2.0937e-05
1.25605e-06
-2.05825e-05
1.99985e-06
-1.9135e-05
2.36654e-06
-1.68805e-05
2.42574e-06
-1.37946e-05
2.21384e-06
-9.89161e-06
1.71565e-06
-5.99486e-06
1.03943e-06
-2.82153e-06
4.10994e-07
-4.85247e-07
-5.5907e-08
1.01922e-06
-3.58218e-07
1.81293e-06
-5.17003e-07
2.10137e-06
-5.72179e-07
2.14042e-06
-5.7195e-07
-5.66004e-07
2.18509e-06
1.73902e-05
-3.24619e-06
3.19677e-05
-9.08617e-06
4.27153e-05
-1.37119e-05
4.94841e-05
-1.71038e-05
5.20976e-05
-1.93345e-05
5.06614e-05
-2.03945e-05
4.60904e-05
-2.03012e-05
3.95808e-05
-1.92851e-05
3.18563e-05
-1.76299e-05
2.34898e-05
-1.55084e-05
1.51346e-05
-1.30921e-05
7.29915e-06
-1.05656e-05
3.83289e-07
-8.0806e-06
-5.32159e-06
-5.7694e-06
-9.64205e-06
-3.73863e-06
-1.25172e-05
-2.06169e-06
-1.39924e-05
-7.75134e-07
-1.42074e-05
1.22207e-07
-1.33798e-05
6.65814e-07
-1.17854e-05
9.19413e-07
-9.4681e-06
9.27658e-07
-6.29743e-06
6.62819e-07
-2.93678e-06
1.78782e-07
-1.70991e-07
-3.19164e-07
1.86734e-06
-6.94843e-07
3.18316e-06
-9.32081e-07
3.90129e-06
-1.05132e-06
4.2228e-06
-1.09144e-06
4.39653e-06
-1.09677e-06
-1.11175e-06
4.63644e-06
1.83596e-05
-3.38042e-06
3.38435e-05
-9.4695e-06
4.54171e-05
-1.43132e-05
5.30553e-05
-1.78923e-05
5.69011e-05
-2.03166e-05
5.69708e-05
-2.1678e-05
5.3549e-05
-2.19792e-05
4.77501e-05
-2.12899e-05
4.05114e-05
-1.98276e-05
3.2465e-05
-1.7815e-05
2.43523e-05
-1.54824e-05
1.66428e-05
-1.30269e-05
9.71783e-06
-1.05829e-05
3.86953e-06
-8.27605e-06
-7.23666e-07
-6.21051e-06
-3.98753e-06
-4.45925e-06
-5.95055e-06
-3.0616e-06
-6.73198e-06
-2.0215e-06
-6.52627e-06
-1.31144e-06
-5.58605e-06
-8.78987e-07
-3.99728e-06
-6.85387e-07
-1.61642e-06
-7.37488e-07
1.09424e-06
-9.91716e-07
3.42656e-06
-1.30723e-06
5.18049e-06
-1.56859e-06
6.34042e-06
-1.73731e-06
7.03044e-06
-1.81973e-06
7.45136e-06
-1.84835e-06
7.83336e-06
-1.86278e-06
-1.90017e-06
8.32325e-06
1.93834e-05
-3.50656e-06
3.58295e-05
-9.83128e-06
4.83033e-05
-1.48849e-05
5.67875e-05
-1.86538e-05
6.15401e-05
-2.12482e-05
6.28812e-05
-2.27955e-05
6.09474e-05
-2.33924e-05
5.63179e-05
-2.30908e-05
4.98414e-05
-2.1977e-05
4.22555e-05
-2.02e-05
3.44336e-05
-1.79992e-05
2.69196e-05
-1.56322e-05
2.00419e-05
-1.32516e-05
1.4103e-05
-1.09688e-05
9.27982e-06
-8.88711e-06
5.66238e-06
-7.07853e-06
3.23944e-06
-5.58627e-06
1.91445e-06
-4.41943e-06
1.52383e-06
-3.55933e-06
1.85836e-06
-2.96729e-06
2.83861e-06
-2.61418e-06
4.47398e-06
-2.48351e-06
6.42816e-06
-2.51838e-06
8.23174e-06
-2.62618e-06
9.68512e-06
-2.73864e-06
1.07245e-05
-2.82182e-06
1.1429e-05
-2.86448e-06
1.19827e-05
-2.88052e-06
1.25937e-05
-2.89987e-06
-2.95309e-06
1.33402e-05
2.04655e-05
-3.62354e-06
3.79333e-05
-1.01685e-05
5.13689e-05
-1.54221e-05
6.07777e-05
-1.93764e-05
6.64082e-05
-2.21475e-05
6.86788e-05
-2.38584e-05
6.79832e-05
-2.46371e-05
6.4682e-05
-2.45933e-05
5.94123e-05
-2.38402e-05
5.27282e-05
-2.24651e-05
4.53913e-05
-2.05685e-05
3.81416e-05
-1.83618e-05
3.13661e-05
-1.60603e-05
2.53993e-05
-1.38201e-05
2.03945e-05
-1.17419e-05
1.64702e-05
-9.89383e-06
1.36305e-05
-8.32657e-06
1.18019e-05
-7.05272e-06
1.08544e-05
-6.06127e-06
1.06238e-05
-5.32454e-06
1.10257e-05
-4.81222e-06
1.19814e-05
-4.49831e-06
1.32224e-05
-4.33707e-06
1.44605e-05
-4.26164e-06
1.55746e-05
-4.22529e-06
1.65e-05
-4.20875e-06
1.72649e-05
-4.20303e-06
1.79792e-05
-4.20702e-06
1.88096e-05
-4.23018e-06
-4.29115e-06
1.97817e-05
2.16084e-05
-3.73015e-06
4.01597e-05
-1.04775e-05
5.46206e-05
-1.59193e-05
6.50182e-05
-2.00528e-05
7.16103e-05
-2.29998e-05
7.47924e-05
-2.48874e-05
7.50562e-05
-2.5843e-05
7.28501e-05
-2.59883e-05
6.88241e-05
-2.54718e-05
6.33937e-05
-2.44295e-05
5.69657e-05
-2.2924e-05
5.02274e-05
-2.10423e-05
4.37134e-05
-1.89498e-05
3.7782e-05
-1.68084e-05
3.26431e-05
-1.47451e-05
2.84736e-05
-1.28733e-05
2.52775e-05
-1.12543e-05
2.30011e-05
-9.89648e-06
2.15473e-05
-8.79513e-06
2.0787e-05
-7.93165e-06
2.0601e-05
-7.27137e-06
2.08984e-05
-6.77871e-06
2.15052e-05
-6.42676e-06
2.22271e-05
-6.18138e-06
2.299e-05
-6.00966e-06
2.37695e-05
-5.89372e-06
2.45877e-05
-5.82644e-06
2.54835e-05
-5.80563e-06
2.65554e-05
-5.83173e-06
-5.91075e-06
2.77708e-05
2.28137e-05
-3.82506e-06
4.25116e-05
-1.07547e-05
5.80623e-05
-1.63704e-05
6.95147e-05
-2.06748e-05
7.71367e-05
-2.37949e-05
8.13255e-05
-2.58609e-05
8.25597e-05
-2.70027e-05
8.13411e-05
-2.73485e-05
7.8308e-05
-2.70336e-05
7.39771e-05
-2.62021e-05
6.86419e-05
-2.49658e-05
6.27836e-05
-2.34176e-05
5.68766e-05
-2.16609e-05
5.12107e-05
-1.97758e-05
4.60636e-05
-1.78414e-05
4.17116e-05
-1.59878e-05
3.82368e-05
-1.4336e-05
3.55814e-05
-1.29189e-05
3.3685e-05
-1.17297e-05
3.24461e-05
-1.07596e-05
3.17065e-05
-9.96859e-06
3.13747e-05
-9.31234e-06
3.13949e-05
-8.78403e-06
3.16544e-05
-8.38167e-06
3.20927e-05
-8.08408e-06
3.26972e-05
-7.8722e-06
3.34892e-05
-7.73502e-06
3.45072e-05
-7.66914e-06
3.58085e-05
-7.67527e-06
-7.75029e-06
3.72704e-05
2.40817e-05
-3.90683e-06
4.499e-05
-1.09958e-05
6.16954e-05
-1.67686e-05
7.42689e-05
-2.12332e-05
8.2989e-05
-2.45208e-05
8.82549e-05
-2.67645e-05
9.05413e-05
-2.80957e-05
9.03632e-05
-2.86442e-05
8.8282e-05
-2.85412e-05
8.48425e-05
-2.79164e-05
8.04322e-05
-2.68837e-05
7.55036e-05
-2.55631e-05
7.04132e-05
-2.40708e-05
6.53968e-05
-2.24894e-05
6.0592e-05
-2.0844e-05
5.62331e-05
-1.91586e-05
5.25646e-05
-1.75388e-05
4.96025e-05