/*--------------------------------*- C++ -*----------------------------------*\
| =========                 |                                                 |
| \\      /  F ield         | OpenFOAM: The Open Source CFD Toolbox           |
|  \\    /   O peration     | Version:  dev                                   |
|   \\  /    A nd           | Web:      www.OpenFOAM.org                      |
|    \\/     M anipulation  |                                                 |
\*---------------------------------------------------------------------------*/
FoamFile
{
    version     2.0;
    format      ascii;
    class       pointVectorField;
    location    "0.06";
    object      pointDisplacement;
}
// * * * * * * * * * * * * * * * * * * * * * * * * * * * * * * * * * * * * * //

dimensions      [0 1 0 0 0 0 0];

internalField   nonuniform List<vector> 
1030
(
(0.00106462 0 0.000334389)
(0.00104268 0 0.000319027)
(0.00102064 0 0.0003041)
(0.00107539 0 0.000345001)
(0.0010534 0 0.000329605)
(0.00103107 0 0.000314515)
(0.00100821 0 0.000299702)
(0.000984602 0 0.000285129)
(0.00108309 0 0.000353332)
(0.00106139 0 0.00033815)
(0.00103909 0 0.000323127)
(0.00101605 0 0.000308263)
(0.000992082 0 0.000293545)
(0.000966943 0 0.000278949)
(0.00108798 0 0.000359535)
(0.00106681 0 0.000344763)
(0.00104477 0 0.000329986)
(0.00102179 0 0.000315244)
(0.000997699 0 0.000300544)
(0.000972289 0 0.000285878)
(0.000945288 0 0.000271225)
(0.00091637 0 0.000256554)
(0.00109028 0 0.000363751)
(0.00106983 0 0.000349543)
(0.00104824 0 0.00033516)
(0.00102549 0 0.000320676)
(0.00100147 0 0.000306127)
(0.000975968 0 0.000291519)
(0.000948755 0 0.000276845)
(0.000919528 0 0.000262084)
(0.000887937 0 0.000247207)
(0.000853578 0 0.000232171)
(0.00109026 0 0.000366143)
(0.00107061 0 0.000352587)
(0.00104962 0 0.000338717)
(0.00102725 0 0.000324604)
(0.00100343 0 0.00031031)
(0.000977987 0 0.000295865)
(0.000950711 0 0.000281273)
(0.00092132 0 0.000266523)
(0.000889485 0 0.000251593)
(0.000854826 0 0.000236449)
(0.000816912 0 0.000221045)
(0.00108817 0 0.000366878)
(0.00106934 0 0.000354)
(0.00104902 0 0.000340712)
(0.00102715 0 0.000327065)
(0.00100365 0 0.000313117)
(0.000978379 0 0.00029892)
(0.000951159 0 0.000284496)
(0.000921726 0 0.000269842)
(0.00088977 0 0.000254946)
(0.00085493 0 0.000239776)
(0.000816791 0 0.000224295)
(0.000774887 0 0.000208448)
(0.000728691 0 0.000192162)
(0.00108427 0 0.000366099)
(0.00106622 0 0.000353901)
(0.00104658 0 0.000341213)
(0.00102527 0 0.000328088)
(0.00100219 0 0.000314568)
(0.000977196 0 0.000300695)
(0.000950128 0 0.00028651)
(0.000920753 0 0.000272026)
(0.000888779 0 0.000257236)
(0.000853862 0 0.000242118)
(0.000815604 0 0.000226636)
(0.000773555 0 0.000210739)
(0.000727206 0 0.000194359)
(0.000675988 0 0.000177408)
(0.00107874 0 0.000363915)
(0.00106145 0 0.000352388)
(0.00104246 0 0.000340304)
(0.00102173 0 0.000327718)
(0.000999121 0 0.000314672)
(0.000974494 0 0.000301194)
(0.000947666 0 0.000287315)
(0.00091843 0 0.000273064)
(0.000886523 0 0.000258446)
(0.000851617 0 0.000243446)
(0.000813331 0 0.000228032)
(0.00077123 0 0.000212159)
(0.000724821 0 0.000195759)
(0.00067355 0 0.000178747)
(0.000616804 0 0.000161016)
(0.000553893 0 0.000142426)
(0.00107177 0 0.00036041)
(0.00105518 0 0.000349533)
(0.00103683 0 0.000338051)
(0.00101665 0 0.000326009)
(0.000994533 0 0.000313454)
(0.000970324 0 0.000300415)
(0.000943821 0 0.000286906)
(0.000914799 0 0.000272945)
(0.000883027 0 0.000258556)
(0.00084821 0 0.000243735)
(0.000809976 0 0.000228455)
(0.000767905 0 0.000212671)
(0.00072152 0 0.000196322)
(0.000670285 0 0.000179326)
(0.000613601 0 0.000161577)
(0.000550799 0 0.000142939)
(0.000481134 0 0.000123242)
(0.00106351 0 0.000355641)
(0.00104756 0 0.000345391)
(0.00102982 0 0.000334498)
(0.00101018 0 0.000323004)
(0.000988549 0 0.000310949)
(0.000964771 0 0.000298367)
(0.000938638 0 0.000285268)
(0.000909897 0 0.000271653)
(0.000878331 0 0.000257549)
(0.000843671 0 0.000242965)
(0.00080556 0 0.000227878)
(0.000763592 0 0.000212248)
(0.000717307 0 0.000196018)
(0.000666186 0 0.000179109)
(0.000609648 0 0.00016142)
(0.000547043 0 0.000142818)
(0.000477646 0 0.000123137)
(0.000400652 0 0.000102171)
(0.000315156 0 7.9659e-05)
(0.0010541 0 0.000349652)
(0.00103874 0 0.000339996)
(0.00102156 0 0.000329675)
(0.00100244 0 0.000318723)
(0.000981284 0 0.000307175)
(0.00095793 0 0.000295061)
(0.000932182 0 0.000282394)
(0.000903786 0 0.000269173)
(0.000872496 0 0.000255411)
(0.000838049 0 0.000241117)
(0.00080012 0 0.00022628)
(0.00075832 0 0.000210865)
(0.000712204 0 0.00019482)
(0.000661269 0 0.000178069)
(0.000604952 0 0.000160515)
(0.000542626 0 0.000142031)
(0.000473586 0 0.000122457)
(0.000397055 0 0.000101593)
(0.00031216 0 7.91865e-05)
(0.000217928 0 5.49288e-05)
(0.00104368 0 0.000342461)
(0.00102885 0 0.000333366)
(0.00101218 0 0.000323597)
(0.000993556 0 0.000313178)
(0.000972853 0 0.000302138)
(0.000949915 0 0.000290501)
(0.000924554 0 0.000278283)
(0.000896539 0 0.000265492)
(0.000865588 0 0.000252123)
(0.000831407 0 0.00023817)
(0.000793706 0 0.000223635)
(0.000752131 0 0.000208495)
(0.000706246 0 0.0001927)
(0.000655563 0 0.000176178)
(0.000599538 0 0.000158836)
(0.000537565 0 0.000140554)
(0.000468966 0 0.000121178)
(0.000392988 0 0.000100515)
(0.000308794 0 7.83239e-05)
(0.000215451 0 5.43078e-05)
(0.000111921 0 2.81024e-05)
(0.00103237 0 0.000334059)
(0.00101801 0 0.000325499)
(0.00100181 0 0.000316263)
(0.000983646 0 0.000306368)
(0.00096338 0 0.000295835)
(0.000940853 0 0.000284686)
(0.00091588 0 0.000272935)
(0.000888246 0 0.000260595)
(0.000857663 0 0.000247654)
(0.000823801 0 0.000234093)
(0.000786383 0 0.000219917)
(0.000745084 0 0.000205113)
(0.000699484 0 0.000189632)
(0.000649113 0 0.000173411)
(0.000593445 0 0.000156359)
(0.000531895 0 0.000138364)
(0.000463811 0 0.000119278)
(0.000388471 0 9.89179e-05)
(0.000305073 0 7.70547e-05)
(0.000212726 0 5.34051e-05)
(0.000110445 0 2.76228e-05)
(0 0 0)
(0.00102029 0 0.000324426)
(0.00100635 0 0.000316377)
(0.000990583 0 0.000307657)
(0.000972843 0 0.000298276)
(0.000952991 0 0.000288251)
(0.000930864 0 0.000277599)
(0.000906275 0 0.000266331)
(0.00087901 0 0.000254459)
(0.000848796 0 0.000241973)
(0.000815309 0 0.000228855)
(0.000778236 0 0.0002151)
(0.000737256 0 0.000200691)
(0.000691986 0 0.000185591)
(0.000641977 0 0.000169741)
(0.000586723 0 0.00015306)
(0.00052566 0 0.000135438)
(0.000458163 0 0.000116739)
(0.000383538 0 9.67868e-05)
(0.000301021 0 7.53664e-05)
(0.000209767 0 5.22106e-05)
(0.000108847 0 2.69925e-05)
(0 0 0)
(0.00100757 0 0.000313525)
(0.000994012 0 0.000305966)
(0.000978632 0 0.000297747)
(0.000961284 0 0.000288873)
(0.000941821 0 0.000279357)
(0.000920077 0 0.00026921)
(0.000895861 0 0.000258442)
(0.000868956 0 0.000247059)
(0.000839111 0 0.000235059)
(0.000806029 0 0.000222431)
(0.000769358 0 0.000209155)
(0.00072874 0 0.000195202)
(0.000683832 0 0.000180547)
(0.000634229 0 0.000165143)
(0.00057944 0 0.000148914)
(0.00051892 0 0.000131756)
(0.000452071 0 0.000113542)
(0.000378231 0 9.41066e-05)
(0.000296674 0 7.32483e-05)
(0.000206601 0 5.07167e-05)
(0.00010714 0 2.6207e-05)
(0 0 0)
(0.00099434 0 0.0003013)
(0.000981128 0 0.000294215)
(0.0009661 0 0.000286487)
(0.000949112 0 0.000278116)
(0.000930013 0 0.000269111)
(0.000908633 0 0.000259481)
(0.000884779 0 0.000249231)
(0.000858236 0 0.000238366)
(0.000828759 0 0.000226886)
(0.000796075 0 0.000214785)
(0.000759828 0 0.000202037)
(0.000719617 0 0.000188605)
(0.000675114 0 0.000174467)
(0.000625956 0 0.000159586)
(0.000571673 0 0.000143894)
(0.000511745 0 0.000127294)
(0.000445599 0 0.000109668)
(0.000372604 0 9.08623e-05)
(0.000292074 0 7.06893e-05)
(0.000203258 0 4.89171e-05)
(0.000105342 0 2.52633e-05)
(0 0 0)
(0.000980758 0 0.000287678)
(0.000967849 0 0.000281056)
(0.00095314 0 0.000273812)
(0.000936483 0 0.000265945)
(0.000917721 0 0.000257458)
(0.000896685 0 0.000248357)
(0.00087318 0 0.000238648)
(0.000846993 0 0.000228331)
(0.000817881 0 0.000217408)
(0.000785578 0 0.000205872)
(0.000749749 0 0.000193699)
(0.000709998 0 0.000180858)
(0.00066595 0 0.000167317)
(0.000617261 0 0.000153039)
(0.000563518 0 0.000137972)
(0.00050422 0 0.000122028)
(0.00043882 0 0.000105097)
(0.00036672 0 8.70382e-05)
(0.000287273 0 6.76785e-05)
(0.000199775 0 4.68047e-05)
(0.00010347 0 2.41583e-05)
(0 0 0)
(0.00096698 0 0.000272567)
(0.000954342 0 0.000266402)
(0.00093992 0 0.000259642)
(0.000923563 0 0.000252282)
(0.000905114 0 0.000244324)
(0.0008844 0 0.000235772)
(0.000861228 0 0.000226628)
(0.000835383 0 0.000216893)
(0.000806627 0 0.000206566)
(0.000774695 0 0.00019564)
(0.000739287 0 0.000184103)
(0.000700013 0 0.00017192)
(0.000656449 0 0.00015905)
(0.000608259 0 0.000145463)
(0.000555081 0 0.000131116)
(0.000496441 0 0.000115931)
(0.00043182 0 9.98072e-05)
(0.000360652 0 8.26176e-05)
(0.000282328 0 6.4204e-05)
(0.000196192 0 4.43725e-05)
(0.000101547 0 2.28888e-05)
(0 0 0)
(0.000953183 0 0.000255851)
(0.000940785 0 0.000250144)
(0.000926621 0 0.000243874)
(0.000910537 0 0.000237032)
(0.000892374 0 0.000229621)
(0.00087196 0 0.000221641)
(0.000849102 0 0.000213093)
(0.000823586 0 0.000203978)
(0.000795176 0 0.000194294)
(0.00076361 0 0.000184035)
(0.000728601 0 0.00017319)
(0.000689789 0 0.000161729)
(0.000646748 0 0.000149619)
(0.000599093 0 0.00013682)
(0.000546486 0 0.00012329)
(0.000488521 0 0.000108972)
(0.000424698 0 9.37739e-05)
(0.000354484 0 7.75817e-05)
(0.000277307 0 6.02525e-05)
(0.000192559 0 4.16123e-05)
(9.95996e-05 0 2.14511e-05)
(0 0 0)
(0.000939564 0 0.000237393)
(0.000927379 0 0.000232152)
(0.000913445 0 0.000226383)
(0.000897607 0 0.000220078)
(0.000879705 0 0.000213236)
(0.000859567 0 0.000205859)
(0.000837001 0 0.000197945)
(0.000811796 0 0.000189496)
(0.000783716 0 0.000180508)
(0.000752506 0 0.000170977)
(0.00071788 0 0.000160892)
(0.000679521 0 0.000150236)
(0.000637009 0 0.000138974)
(0.000589895 0 0.000127056)
(0.000537868 0 0.00011445)
(0.000480584 0 0.000101115)
(0.000417566 0 8.69689e-05)
(0.000348311 0 7.1909e-05)
(0.000272285 0 5.5809e-05)
(0.000188928 0 3.85149e-05)
(9.76547e-05 0 1.9841e-05)
(0 0 0)
(0.000926343 0 0.000217027)
(0.000914345 0 0.000212265)
(0.000900615 0 0.000207019)
(0.000884996 0 0.000201276)
(0.00086733 0 0.000195038)
(0.000847444 0 0.000188302)
(0.000825147 0 0.000181069)
(0.00080023 0 0.000173339)
(0.000772463 0 0.00016511)
(0.000741592 0 0.000156377)
(0.000707341 0 0.000147132)
(0.000669411 0 0.000137365)
(0.000627387 0 0.000127036)
(0.000580812 0 0.000116103)
(0.000529381 0 0.000104546)
(0.000472771 0 9.23206e-05)
(0.000410548 0 7.93597e-05)
(0.000342239 0 6.55749e-05)
(0.000267348 0 5.08562e-05)
(0.00018536 0 3.50695e-05)
(9.57442e-05 0 1.80535e-05)
(0 0 0)
(0.000913767 0 0.000194553)
(0.000901931 0 0.000190297)
(0.000888379 0 0.000185602)
(0.000872953 0 0.000180459)
(0.000855496 0 0.000174865)
(0.000835836 0 0.000168821)
(0.000813783 0 0.000162326)
(0.00078913 0 0.000155379)
(0.00076165 0 0.000147981)
(0.000731094 0 0.000140126)
(0.00069719 0 0.00013181)
(0.000659644 0 0.000123021)
(0.000618083 0 0.000113729)
(0.000572066 0 0.000103908)
(0.000521221 0 9.35269e-05)
(0.000465248 0 8.25428e-05)
(0.000403786 0 7.09093e-05)
(0.000336388 0 5.8551e-05)
(0.000262591 0 4.53739e-05)
(0.000181922 0 3.12635e-05)
(9.39036e-05 0 1.60826e-05)
(0 0 0)
(0.000902111 0 0.000169739)
(0.000890413 0 0.000166023)
(0.000877014 0 0.00016192)
(0.000861755 0 0.000157423)
(0.00084448 0 0.000152529)
(0.000825018 0 0.000147237)
(0.000803181 0 0.000141549)
(0.000778763 0 0.000135464)
(0.000751541 0 0.000128982)
(0.00072127 0 0.0001221)
(0.000687681 0 0.000114814)
(0.000650484 0 0.000107114)
(0.000609356 0 9.89851e-05)
(0.000563865 0 9.04029e-05)
(0.000513566 0 8.13263e-05)
(0.000458189 0 7.17268e-05)
(0.00039744 0 6.15741e-05)
(0.000330894 0 5.08042e-05)
(0.000258122 0 3.93386e-05)
(0.000178691 0 2.70822e-05)
(9.21725e-05 0 1.39213e-05)
(0 0 0)
(0.000891686 0 0.000142306)
(0.000880103 0 0.000139177)
(0.000866831 0 0.000135721)
(0.000851712 0 0.00013193)
(0.00083459 0 0.000127804)
(0.000815296 0 0.000123342)
(0.000793643 0 0.000118546)
(0.000769428 0 0.000113415)
(0.00074243 0 0.00010795)
(0.000712408 0 0.00010215)
(0.000679099 0 9.60117e-05)
(0.000642222 0 8.95301e-05)
(0.000601473 0 8.26965e-05)
(0.000556423 0 7.54845e-05)
(0.000506614 0 6.78599e-05)
(0.00045179 0 5.98081e-05)
(0.000391688 0 5.13043e-05)
(0.000325912 0 4.22969e-05)
(0.000254065 0 3.27235e-05)
(0.000175753 0 2.25085e-05)
(9.05966e-05 0 1.15615e-05)
(0 0 0)
(0.00088284 0 0.000111926)
(0.000871347 0 0.000109445)
(0.000858176 0 0.000106704)
(0.000843169 0 0.000103698)
(0.00082617 0 0.000100427)
(0.000807011 0 9.68894e-05)
(0.000785507 0 9.30875e-05)
(0.000761458 0 8.90222e-05)
(0.000734644 0 8.46943e-05)
(0.000704828 0 8.0104e-05)
(0.000671752 0 7.52499e-05)
(0.000635141 0 7.01284e-05)
(0.000594703 0 6.47336e-05)
(0.00055002 0 5.90424e-05)
(0.000500638 0 5.30398e-05)
(0.000446295 0 4.67169e-05)
(0.000386742 0 4.00445e-05)
(0.00032162 0 3.29869e-05)
(0.000250563 0 2.54986e-05)
(0.00017321 0 1.75234e-05)
(8.92292e-05 0 8.99396e-06)
(0 0 0)
(0.000875963 0 7.82091e-05)
(0.000864536 0 7.64562e-05)
(0.000851439 0 7.45201e-05)
(0.000836514 0 7.23971e-05)
(0.000819605 0 7.0087e-05)
(0.000800546 0 6.75906e-05)
(0.000779154 0 6.49091e-05)
(0.000755228 0 6.20437e-05)
(0.000728552 0 5.89957e-05)
(0.00069889 0 5.57658e-05)
(0.000665988 0 5.23535e-05)
(0.000629574 0 4.87566e-05)
(0.000589354 0 4.49702e-05)
(0.000544961 0 4.09782e-05)
(0.000495955 0 3.67855e-05)
(0.000441995 0 3.23822e-05)
(0.00038285 0 2.77358e-05)
(0.000318229 0 2.28286e-05)
(0.000247784 0 1.76309e-05)
(0.000171184 0 1.21058e-05)
(8.81348e-05 0 6.20864e-06)
(0 0 0)
(0.000871494 0 4.06944e-05)
(0.000860107 0 3.97718e-05)
(0.000847055 0 3.87533e-05)
(0.00083218 0 3.76367e-05)
(0.000815328 0 3.64224e-05)
(0.000796331 0 3.51108e-05)
(0.000775007 0 3.3703e-05)
(0.000751158 0 3.21998e-05)
(0.000724568 0 3.06023e-05)
(0.000695003 0 2.89109e-05)
(0.00066221 0 2.71259e-05)
(0.000625916 0 2.5246e-05)
(0.000585829 0 2.32686e-05)
(0.000541629 0 2.11877e-05)
(0.000492887 0 1.90089e-05)
(0.000439176 0 1.67235e-05)
(0.000380284 0 1.43134e-05)
(0.000315983 0 1.17723e-05)
(0.000245935 0 9.08507e-06)
(0.000169826 0 6.23332e-06)
(8.73959e-05 0 3.19478e-06)
(0 0 0)
(0.000869918 0 0)
(0.000858544 0 0)
(0.000845509 0 0)
(0.000830651 0 0)
(0.000813818 0 0)
(0.000794842 0 0)
(0.000773542 0 0)
(0.00074972 0 0)
(0.00072316 0 0)
(0.000693628 0 0)
(0.000660873 0 0)
(0.000624622 0 0)
(0.000584586 0 0)
(0.000540454 0 0)
(0.000491797 0 0)
(0.000438173 0 0)
(0.000379375 0 0)
(0.000315188 0 0)
(0.00024528 0 0)
(0.000169346 0 0)
(8.71395e-05 0 0)
(0 0 0)
(0.00106462 0 0.000334389)
(0.00104268 0 0.000319027)
(0.00102064 0 0.0003041)
(0.00107539 0 0.000345001)
(0.0010534 0 0.000329605)
(0.00103107 0 0.000314515)
(0.00100821 0 0.000299702)
(0.000984602 0 0.000285129)
(0.00108309 0 0.000353332)
(0.00106139 0 0.00033815)
(0.00103909 0 0.000323127)
(0.00101605 0 0.000308263)
(0.000992082 0 0.000293545)
(0.000966943 0 0.000278949)
(0.00108798 0 0.000359535)
(0.00106681 0 0.000344763)
(0.00104477 0 0.000329986)
(0.00102179 0 0.000315244)
(0.000997699 0 0.000300544)
(0.000972289 0 0.000285878)
(0.000945288 0 0.000271225)
(0.00091637 0 0.000256554)
(0.00109028 0 0.000363751)
(0.00106983 0 0.000349543)
(0.00104824 0 0.00033516)
(0.00102549 0 0.000320676)
(0.00100147 0 0.000306127)
(0.000975968 0 0.000291519)
(0.000948755 0 0.000276845)
(0.000919528 0 0.000262084)
(0.000887937 0 0.000247207)
(0.000853578 0 0.000232171)
(0.00109026 0 0.000366143)
(0.00107061 0 0.000352587)
(0.00104962 0 0.000338717)
(0.00102725 0 0.000324604)
(0.00100343 0 0.00031031)
(0.000977987 0 0.000295865)
(0.000950711 0 0.000281273)
(0.00092132 0 0.000266523)
(0.000889485 0 0.000251593)
(0.000854826 0 0.000236449)
(0.000816912 0 0.000221045)
(0.00108817 0 0.000366878)
(0.00106934 0 0.000354)
(0.00104902 0 0.000340712)
(0.00102715 0 0.000327065)
(0.00100365 0 0.000313117)
(0.000978379 0 0.00029892)
(0.000951159 0 0.000284496)
(0.000921726 0 0.000269842)
(0.00088977 0 0.000254946)
(0.00085493 0 0.000239776)
(0.000816791 0 0.000224295)
(0.000774887 0 0.000208448)
(0.000728691 0 0.000192162)
(0.00108427 0 0.000366099)
(0.00106622 0 0.000353901)
(0.00104658 0 0.000341213)
(0.00102527 0 0.000328088)
(0.00100219 0 0.000314568)
(0.000977196 0 0.000300695)
(0.000950128 0 0.00028651)
(0.000920753 0 0.000272026)
(0.000888779 0 0.000257236)
(0.000853862 0 0.000242118)
(0.000815604 0 0.000226636)
(0.000773555 0 0.000210739)
(0.000727206 0 0.000194359)
(0.000675988 0 0.000177408)
(0.00107874 0 0.000363915)
(0.00106145 0 0.000352388)
(0.00104246 0 0.000340304)
(0.00102173 0 0.000327718)
(0.000999121 0 0.000314672)
(0.000974494 0 0.000301194)
(0.000947666 0 0.000287315)
(0.00091843 0 0.000273064)
(0.000886523 0 0.000258446)
(0.000851617 0 0.000243446)
(0.000813331 0 0.000228032)
(0.00077123 0 0.000212159)
(0.000724821 0 0.000195759)
(0.00067355 0 0.000178747)
(0.000616804 0 0.000161016)
(0.000553893 0 0.000142426)
(0.00107177 0 0.00036041)
(0.00105518 0 0.000349533)
(0.00103683 0 0.000338051)
(0.00101665 0 0.000326009)
(0.000994533 0 0.000313454)
(0.000970324 0 0.000300415)
(0.000943821 0 0.000286906)
(0.000914799 0 0.000272945)
(0.000883027 0 0.000258556)
(0.00084821 0 0.000243735)
(0.000809976 0 0.000228455)
(0.000767905 0 0.000212671)
(0.00072152 0 0.000196322)
(0.000670285 0 0.000179326)
(0.000613601 0 0.000161577)
(0.000550799 0 0.000142939)
(0.000481134 0 0.000123242)
(0.00106351 0 0.000355641)
(0.00104756 0 0.000345391)
(0.00102982 0 0.000334498)
(0.00101018 0 0.000323004)
(0.000988549 0 0.000310949)
(0.000964771 0 0.000298367)
(0.000938638 0 0.000285268)
(0.000909897 0 0.000271653)
(0.000878331 0 0.000257549)
(0.000843671 0 0.000242965)
(0.00080556 0 0.000227878)
(0.000763592 0 0.000212248)
(0.000717307 0 0.000196018)
(0.000666186 0 0.000179109)
(0.000609648 0 0.00016142)
(0.000547043 0 0.000142818)
(0.000477646 0 0.000123137)
(0.000400652 0 0.000102171)
(0.000315156 0 7.9659e-05)
(0.0010541 0 0.000349652)
(0.00103874 0 0.000339996)
(0.00102156 0 0.000329675)
(0.00100244 0 0.000318723)
(0.000981284 0 0.000307175)
(0.00095793 0 0.000295061)
(0.000932182 0 0.000282394)
(0.000903786 0 0.000269173)
(0.000872496 0 0.000255411)
(0.000838049 0 0.000241117)
(0.00080012 0 0.00022628)
(0.00075832 0 0.000210865)
(0.000712204 0 0.00019482)
(0.000661269 0 0.000178069)
(0.000604952 0 0.000160515)
(0.000542626 0 0.000142031)
(0.000473586 0 0.000122457)
(0.000397055 0 0.000101593)
(0.00031216 0 7.91865e-05)
(0.000217928 0 5.49288e-05)
(0.00104368 0 0.000342461)
(0.00102885 0 0.000333366)
(0.00101218 0 0.000323597)
(0.000993556 0 0.000313178)
(0.000972853 0 0.000302138)
(0.000949915 0 0.000290501)
(0.000924554 0 0.000278283)
(0.000896539 0 0.000265492)
(0.000865588 0 0.000252123)
(0.000831407 0 0.00023817)
(0.000793706 0 0.000223635)
(0.000752131 0 0.000208495)
(0.000706246 0 0.0001927)
(0.000655563 0 0.000176178)
(0.000599538 0 0.000158836)
(0.000537565 0 0.000140554)
(0.000468966 0 0.000121178)
(0.000392988 0 0.000100515)
(0.000308794 0 7.83239e-05)
(0.000215451 0 5.43078e-05)
(0.000111921 0 2.81024e-05)
(0.00103237 0 0.000334059)
(0.00101801 0 0.000325499)
(0.00100181 0 0.000316263)
(0.000983646 0 0.000306368)
(0.00096338 0 0.000295835)
(0.000940853 0 0.000284686)
(0.00091588 0 0.000272935)
(0.000888246 0 0.000260595)
(0.000857663 0 0.000247654)
(0.000823801 0 0.000234093)
(0.000786383 0 0.000219917)
(0.000745084 0 0.000205113)
(0.000699484 0 0.000189632)
(0.000649113 0 0.000173411)
(0.000593445 0 0.000156359)
(0.000531895 0 0.000138364)
(0.000463811 0 0.000119278)
(0.000388471 0 9.89179e-05)
(0.000305073 0 7.70547e-05)
(0.000212726 0 5.34051e-05)
(0.000110445 0 2.76228e-05)
(0 0 0)
(0.00102029 0 0.000324426)
(0.00100635 0 0.000316377)
(0.000990583 0 0.000307657)
(0.000972843 0 0.000298276)
(0.000952991 0 0.000288251)
(0.000930864 0 0.000277599)
(0.000906275 0 0.000266331)
(0.00087901 0 0.000254459)
(0.000848796 0 0.000241973)
(0.000815309 0 0.000228855)
(0.000778236 0 0.0002151)
(0.000737256 0 0.000200691)
(0.000691986 0 0.000185591)
(0.000641977 0 0.000169741)
(0.000586723 0 0.00015306)
(0.00052566 0 0.000135438)
(0.000458163 0 0.000116739)
(0.000383538 0 9.67868e-05)
(0.000301021 0 7.53664e-05)
(0.000209767 0 5.22106e-05)
(0.000108847 0 2.69925e-05)
(0 0 0)
(0.00100757 0 0.000313525)
(0.000994012 0 0.000305966)
(0.000978632 0 0.000297747)
(0.000961284 0 0.000288873)
(0.000941821 0 0.000279357)
(0.000920077 0 0.00026921)
(0.000895861 0 0.000258442)
(0.000868956 0 0.000247059)
(0.000839111 0 0.000235059)
(0.000806029 0 0.000222431)
(0.000769358 0 0.000209155)
(0.00072874 0 0.000195202)
(0.000683832 0 0.000180547)
(0.000634229 0 0.000165143)
(0.00057944 0 0.000148914)
(0.00051892 0 0.000131756)
(0.000452071 0 0.000113542)
(0.000378231 0 9.41066e-05)
(0.000296674 0 7.32483e-05)
(0.000206601 0 5.07167e-05)
(0.00010714 0 2.6207e-05)
(0 0 0)
(0.00099434 0 0.0003013)
(0.000981128 0 0.000294215)
(0.0009661 0 0.000286487)
(0.000949112 0 0.000278116)
(0.000930013 0 0.000269111)
(0.000908633 0 0.000259481)
(0.000884779 0 0.000249231)
(0.000858236 0 0.000238366)
(0.000828759 0 0.000226886)
(0.000796075 0 0.000214785)
(0.000759828 0 0.000202037)
(0.000719617 0 0.000188605)
(0.000675114 0 0.000174467)
(0.000625956 0 0.000159586)
(0.000571673 0 0.000143894)
(0.000511745 0 0.000127294)
(0.000445599 0 0.000109668)
(0.000372604 0 9.08623e-05)
(0.000292074 0 7.06893e-05)
(0.000203258 0 4.89171e-05)
(0.000105342 0 2.52633e-05)
(0 0 0)
(0.000980758 0 0.000287678)
(0.000967849 0 0.000281056)
(0.00095314 0 0.000273812)
(0.000936483 0 0.000265945)
(0.000917721 0 0.000257458)
(0.000896685 0 0.000248357)
(0.00087318 0 0.000238648)
(0.000846993 0 0.000228331)
(0.000817881 0 0.000217408)
(0.000785578 0 0.000205872)
(0.000749749 0 0.000193699)
(0.000709998 0 0.000180858)
(0.00066595 0 0.000167317)
(0.000617261 0 0.000153039)
(0.000563518 0 0.000137972)
(0.00050422 0 0.000122028)
(0.00043882 0 0.000105097)
(0.00036672 0 8.70382e-05)
(0.000287273 0 6.76785e-05)
(0.000199775 0 4.68047e-05)
(0.00010347 0 2.41583e-05)
(0 0 0)
(0.00096698 0 0.000272567)
(0.000954342 0 0.000266402)
(0.00093992 0 0.000259642)
(0.000923563 0 0.000252282)
(0.000905114 0 0.000244324)
(0.0008844 0 0.000235772)
(0.000861228 0 0.000226628)
(0.000835383 0 0.000216893)
(0.000806627 0 0.000206566)
(0.000774695 0 0.00019564)
(0.000739287 0 0.000184103)
(0.000700013 0 0.00017192)
(0.000656449 0 0.00015905)
(0.000608259 0 0.000145463)
(0.000555081 0 0.000131116)
(0.000496441 0 0.000115931)
(0.00043182 0 9.98072e-05)
(0.000360652 0 8.26176e-05)
(0.000282328 0 6.4204e-05)
(0.000196192 0 4.43725e-05)
(0.000101547 0 2.28888e-05)
(0 0 0)
(0.000953183 0 0.000255851)
(0.000940785 0 0.000250144)
(0.000926621 0 0.000243874)
(0.000910537 0 0.000237032)
(0.000892374 0 0.000229621)
(0.00087196 0 0.000221641)
(0.000849102 0 0.000213093)
(0.000823586 0 0.000203978)
(0.000795176 0 0.000194294)
(0.00076361 0 0.000184035)
(0.000728601 0 0.00017319)
(0.000689789 0 0.000161729)
(0.000646748 0 0.000149619)
(0.000599093 0 0.00013682)
(0.000546486 0 0.00012329)
(0.000488521 0 0.000108972)
(0.000424698 0 9.37739e-05)
(0.000354484 0 7.75817e-05)
(0.000277307 0 6.02525e-05)
(0.000192559 0 4.16123e-05)
(9.95996e-05 0 2.14511e-05)
(0 0 0)
(0.000939564 0 0.000237393)
(0.000927379 0 0.000232152)
(0.000913445 0 0.000226383)
(0.000897607 0 0.000220078)
(0.000879705 0 0.000213236)
(0.000859567 0 0.000205859)
(0.000837001 0 0.000197945)
(0.000811796 0 0.000189496)
(0.000783716 0 0.000180508)
(0.000752506 0 0.000170977)
(0.00071788 0 0.000160892)
(0.000679521 0 0.000150236)
(0.000637009 0 0.000138974)
(0.000589895 0 0.000127056)
(0.000537868 0 0.00011445)
(0.000480584 0 0.000101115)
(0.000417566 0 8.69689e-05)
(0.000348311 0 7.1909e-05)
(0.000272285 0 5.5809e-05)
(0.000188928 0 3.85149e-05)
(9.76547e-05 0 1.9841e-05)
(0 0 0)
(0.000926343 0 0.000217027)
(0.000914345 0 0.000212265)
(0.000900615 0 0.000207019)
(0.000884996 0 0.000201276)
(0.00086733 0 0.000195038)
(0.000847444 0 0.000188302)
(0.000825147 0 0.000181069)
(0.00080023 0 0.000173339)
(0.000772463 0 0.00016511)
(0.000741592 0 0.000156377)
(0.000707341 0 0.000147132)
(0.000669411 0 0.000137365)
(0.000627387 0 0.000127036)
(0.000580812 0 0.000116103)
(0.000529381 0 0.000104546)
(0.000472771 0 9.23206e-05)
(0.000410548 0 7.93597e-05)
(0.000342239 0 6.55749e-05)
(0.000267348 0 5.08562e-05)
(0.00018536 0 3.50695e-05)
(9.57442e-05 0 1.80535e-05)
(0 0 0)
(0.000913767 0 0.000194553)
(0.000901931 0 0.000190297)
(0.000888379 0 0.000185602)
(0.000872953 0 0.000180459)
(0.000855496 0 0.000174865)
(0.000835836 0 0.000168821)
(0.000813783 0 0.000162326)
(0.00078913 0 0.000155379)
(0.00076165 0 0.000147981)
(0.000731094 0 0.000140126)
(0.00069719 0 0.00013181)
(0.000659644 0 0.000123021)
(0.000618083 0 0.000113729)
(0.000572066 0 0.000103908)
(0.000521221 0 9.35269e-05)
(0.000465248 0 8.25428e-05)
(0.000403786 0 7.09093e-05)
(0.000336388 0 5.8551e-05)
(0.000262591 0 4.53739e-05)
(0.000181922 0 3.12635e-05)
(9.39036e-05 0 1.60826e-05)
(0 0 0)
(0.000902111 0 0.000169739)
(0.000890413 0 0.000166023)
(0.000877014 0 0.00016192)
(0.000861755 0 0.000157423)
(0.00084448 0 0.000152529)
(0.000825018 0 0.000147237)
(0.000803181 0 0.000141549)
(0.000778763 0 0.000135464)
(0.000751541 0 0.000128982)
(0.00072127 0 0.0001221)
(0.000687681 0 0.000114814)
(0.000650484 0 0.000107114)
(0.000609356 0 9.89851e-05)
(0.000563865 0 9.04029e-05)
(0.000513566 0 8.13263e-05)
(0.000458189 0 7.17268e-05)
(0.00039744 0 6.15741e-05)
(0.000330894 0 5.08042e-05)
(0.000258122 0 3.93386e-05)
(0.000178691 0 2.70822e-05)
(9.21725e-05 0 1.39213e-05)
(0 0 0)
(0.000891686 0 0.000142306)
(0.000880103 0 0.000139177)
(0.000866831 0 0.000135721)
(0.000851712 0 0.00013193)
(0.00083459 0 0.000127804)
(0.000815296 0 0.000123342)
(0.000793643 0 0.000118546)
(0.000769428 0 0.000113415)
(0.00074243 0 0.00010795)
(0.000712408 0 0.00010215)
(0.000679099 0 9.60117e-05)
(0.000642222 0 8.95301e-05)
(0.000601473 0 8.26965e-05)
(0.000556423 0 7.54845e-05)
(0.000506614 0 6.78599e-05)
(0.00045179 0 5.98081e-05)
(0.000391688 0 5.13043e-05)
(0.000325912 0 4.22969e-05)
(0.000254065 0 3.27235e-05)
(0.000175753 0 2.25085e-05)
(9.05966e-05 0 1.15615e-05)
(0 0 0)
(0.00088284 0 0.000111926)
(0.000871347 0 0.000109445)
(0.000858176 0 0.000106704)
(0.000843169 0 0.000103698)
(0.00082617 0 0.000100427)
(0.000807011 0 9.68894e-05)
(0.000785507 0 9.30875e-05)
(0.000761458 0 8.90222e-05)
(0.000734644 0 8.46943e-05)
(0.000704828 0 8.0104e-05)
(0.000671752 0 7.52499e-05)
(0.000635141 0 7.01284e-05)
(0.000594703 0 6.47336e-05)
(0.00055002 0 5.90424e-05)
(0.000500638 0 5.30398e-05)
(0.000446295 0 4.67169e-05)
(0.000386742 0 4.00445e-05)
(0.00032162 0 3.29869e-05)
(0.000250563 0 2.54986e-05)
(0.00017321 0 1.75234e-05)
(8.92292e-05 0 8.99396e-06)
(0 0 0)
(0.000875963 0 7.82091e-05)
(0.000864536 0 7.64562e-05)
(0.000851439 0 7.45201e-05)
(0.000836514 0 7.23971e-05)
(0.000819605 0 7.0087e-05)
(0.000800546 0 6.75906e-05)
(0.000779154 0 6.49091e-05)
(0.000755228 0 6.20437e-05)
(0.000728552 0 5.89957e-05)
(0.00069889 0 5.57658e-05)
(0.000665988 0 5.23535e-05)
(0.000629574 0 4.87566e-05)
(0.000589354 0 4.49702e-05)
(0.000544961 0 4.09782e-05)
(0.000495955 0 3.67855e-05)
(0.000441995 0 3.23822e-05)
(0.00038285 0 2.77358e-05)
(0.000318229 0 2.28286e-05)
(0.000247784 0 1.76309e-05)
(0.000171184 0 1.21058e-05)
(8.81348e-05 0 6.20864e-06)
(0 0 0)
(0.000871494 0 4.06944e-05)
(0.000860107 0 3.97718e-05)
(0.000847055 0 3.87533e-05)
(0.00083218 0 3.76367e-05)
(0.000815328 0 3.64224e-05)
(0.000796331 0 3.51108e-05)
(0.000775007 0 3.3703e-05)
(0.000751158 0 3.21998e-05)
(0.000724568 0 3.06023e-05)
(0.000695003 0 2.89109e-05)
(0.00066221 0 2.71259e-05)
(0.000625916 0 2.5246e-05)
(0.000585829 0 2.32686e-05)
(0.000541629 0 2.11877e-05)
(0.000492887 0 1.90089e-05)
(0.000439176 0 1.67235e-05)
(0.000380284 0 1.43134e-05)
(0.000315983 0 1.17723e-05)
(0.000245935 0 9.08507e-06)
(0.000169826 0 6.23332e-06)
(8.73959e-05 0 3.19478e-06)
(0 0 0)
(0.000869918 0 0)
(0.000858544 0 0)
(0.000845509 0 0)
(0.000830651 0 0)
(0.000813818 0 0)
(0.000794842 0 0)
(0.000773542 0 0)
(0.00074972 0 0)
(0.00072316 0 0)
(0.000693628 0 0)
(0.000660873 0 0)
(0.000624622 0 0)
(0.000584586 0 0)
(0.000540454 0 0)
(0.000491797 0 0)
(0.000438173 0 0)
(0.000379375 0 0)
(0.000315188 0 0)
(0.00024528 0 0)
(0.000169346 0 0)
(8.71395e-05 0 0)
(0 0 0)
)
;

boundaryField
{
    inlet
    {
        type            fixedValue;
        value           nonuniform 0();
    }
    outlet
    {
        type            fixedValue;
        value           uniform (0 0 0);
    }
    flap
    {
        type            fixedValue;
        value           nonuniform 0();
    }
    upperWall
    {
        type            slip;
    }
    lowerWall
    {
        type            slip;
    }
    frontAndBack
    {
        type            empty;
    }
    procBoundary2to1
    {
        type            processor;
    }
    procBoundary2to4
    {
        type            processor;
    }
    procBoundary2to5
    {
        type            processor;
    }
}


// ************************************************************************* //
