/*--------------------------------*- C++ -*----------------------------------*\
| =========                 |                                                 |
| \\      /  F ield         | OpenFOAM: The Open Source CFD Toolbox           |
|  \\    /   O peration     | Version:  dev                                   |
|   \\  /    A nd           | Web:      www.OpenFOAM.org                      |
|    \\/     M anipulation  |                                                 |
\*---------------------------------------------------------------------------*/
FoamFile
{
    version     2.0;
    format      ascii;
    class       surfaceScalarField;
    location    "2.13";
    object      meshPhi;
}
// * * * * * * * * * * * * * * * * * * * * * * * * * * * * * * * * * * * * * //

dimensions      [0 3 -1 0 0 0 0];

internalField   nonuniform List<scalar> 
879
(
-0.000292908
-3.75023e-06
-0.000306762
-2.59133e-06
-0.000321178
-9.65672e-07
-0.000334191
1.08533e-06
-0.000344238
3.50752e-06
-0.000350156
6.08397e-06
-0.000351211
8.61601e-06
-0.000347068
1.09171e-05
-0.00033772
1.28343e-05
-0.000323417
1.42618e-05
-0.000304571
1.51442e-05
-0.00028168
1.54708e-05
-0.000255257
1.52629e-05
-0.000225775
1.45598e-05
-0.000193635
1.34051e-05
-0.000159141
1.18368e-05
-0.000122492
9.88057e-06
-8.37911e-05
7.54641e-06
-4.29252e-05
4.82046e-06
1.69278e-06
-0.000293684
-7.33107e-06
-0.000307719
-4.95115e-06
-0.00032229
-1.61663e-06
-0.000335346
2.46036e-06
-0.000345366
7.26693e-06
-0.000351206
1.23596e-05
-0.000352147
1.73461e-05
-0.000347866
2.1863e-05
-0.00033837
2.56143e-05
-0.000323919
2.83966e-05
-0.000304934
3.01043e-05
-0.000281918
3.07184e-05
-0.000255387
3.02815e-05
-0.00022582
2.88703e-05
-0.000193616
2.65697e-05
-0.000159082
2.34534e-05
-0.000122413
1.95708e-05
-8.37169e-05
1.49412e-05
-4.28819e-05
9.53852e-06
3.3477e-06
-0.000290431
-1.00779e-05
-0.000305285
-6.64505e-06
-0.000320364
-1.68814e-06
-0.000333839
4.4552e-06
-0.000344171
1.15454e-05
-0.000350243
1.90067e-05
-0.000351356
2.62777e-05
-0.0003472
3.28391e-05
-0.000337795
3.82686e-05
-0.000323406
4.22771e-05
-0.000304464
4.47154e-05
-0.000281478
4.55571e-05
-0.00025497
4.48633e-05
-0.000225423
4.27435e-05
-0.000193244
3.93184e-05
-0.000158743
3.46931e-05
-0.00012212
2.89378e-05
-8.34885e-05
2.20808e-05
-4.27489e-05
1.40865e-05
4.94047e-06
-0.000282201
-1.18162e-05
-0.000298443
-7.31454e-06
-0.000314588
-7.42597e-07
-0.000328936
7.39015e-06
-0.000339998
1.65958e-05
-0.000346693
2.62064e-05
-0.000348343
3.55222e-05
-0.000344653
4.38935e-05
-0.000335646
5.07926e-05
-0.000321597
5.58584e-05
-0.000302939
5.89044e-05
-0.000280189
5.98961e-05
-0.000253877
5.8909e-05
-0.000224496
5.60785e-05
-0.00019246
5.15545e-05
-0.000158089
4.54675e-05
-0.000121596
3.79057e-05
-8.31056e-05
2.89055e-05
-4.25362e-05
1.84251e-05
6.45706e-06
-0.000270601
-1.24262e-05
-0.000288634
-6.69113e-06
-0.000306241
1.48228e-06
-0.000321775
1.1421e-05
-0.000333845
2.25265e-05
-0.000341417
3.40291e-05
-0.00034384
4.51157e-05
-0.000340828
5.50325e-05
-0.000332414
6.31675e-05
-0.000318876
6.91017e-05
-0.000300654
7.26171e-05
-0.000278272
7.36712e-05
-0.000252269
7.23487e-05
-0.000223148
6.88039e-05
-0.000191337
6.32085e-05
-0.000157169
5.57125e-05
-0.00012087
4.64185e-05
-8.25838e-05
3.5371e-05
-4.22497e-05
2.25253e-05
7.88706e-06
-0.000256855
-1.15543e-05
-0.000276881
-4.58059e-06
-0.000296099
5.06875e-06
-0.000312979
1.66181e-05
-0.000326215
2.93786e-05
-0.000334819
4.24908e-05
-0.000338162
5.50538e-05
-0.000335972
6.62353e-05
-0.000328286
7.53595e-05
-0.000315385
8.1963e-05
-0.000297714
8.58019e-05
-0.000275802
8.68252e-05
-0.000250199
8.51226e-05
-0.000221419
8.08597e-05
-0.000189905
7.42227e-05
-0.000156004
6.53753e-05
-0.000119959
5.44308e-05
-8.19338e-05
4.14416e-05
-4.18954e-05
2.63639e-05
9.22234e-06
-0.000242201
-9.15939e-06
-0.00026415
-9.96084e-07
-0.00028496
9.99811e-06
-0.000303206
2.29556e-05
-0.000317648
3.71151e-05
-0.000327337
5.15461e-05
-0.000331663
6.52865e-05
-0.000330364
7.7451e-05
-0.000323479
8.73174e-05
-0.000311291
9.43916e-05
-0.000294244
9.84083e-05
-0.000272873
9.93073e-05
-0.000247737
9.71801e-05
-0.000219362
9.21972e-05
-0.000188202
8.45514e-05
-0.000154621
7.44146e-05
-0.000118883
6.19075e-05
-8.11704e-05
4.70905e-05
-4.14814e-05
2.9924e-05
1.04571e-05
-0.000227674
-5.34817e-06
-0.000251318
3.96683e-06
-0.00027357
1.6171e-05
-0.000293082
3.03341e-05
-0.000308667
4.56392e-05
-0.0003194
6.1103e-05
-0.000324688
7.57308e-05
-0.00032428
8.8608e-05
-0.00031821
9.89794e-05
-0.000306762
0.000106335
-0.000290376
0.000110389
-0.000269585
0.000111074
-0.000244958
0.000108481
-0.00021703
0.000102779
-0.000186269
9.41607e-05
-0.000153054
8.28006e-05
-0.000117665
6.88239e-05
-8.03103e-05
5.22992e-05
-4.10169e-05
3.31943e-05
1.15876e-05
-0.0002141
-2.49236e-07
-0.000239116
1.01618e-05
-0.000262566
2.34364e-05
-0.000283155
3.86072e-05
-0.000299737
5.48162e-05
-0.000311393
7.10387e-05
-0.000317551
8.62815e-05
-0.000317972
9.96243e-05
-0.000312682
0.000110279
-0.000301961
0.000117743
-0.000286237
0.000121705
-0.000266035
0.000122088
-0.000241936
0.000118996
-0.000214482
0.00011258
-0.000184152
0.000103029
-0.000151336
9.05152e-05
-0.000116332
7.51654e-05
-7.93714e-05
5.70574e-05
-4.05118e-05
3.61696e-05
1.26125e-05
-0.000202077
5.96443e-06
-0.000228095
1.74127e-05
-0.000252445
3.16177e-05
-0.000273867
4.76061e-05
-0.000291247
6.44996e-05
-0.00030369
8.1252e-05
-0.000310604
9.68512e-05
-0.000311744
0.000110403
-0.000307143
0.000121134
-0.000297065
0.000128533
-0.000281944
0.000132293
-0.000262313
0.000132322
-0.000238741
0.000128705
-0.000211772
0.000121586
-0.000181892
0.000111146
-0.000149502
9.7552e-05
-0.00011491
8.09264e-05
-7.83719e-05
6.13617e-05
-3.99764e-05
3.88497e-05
1.35323e-05
-0.000192063
1.31266e-05
-0.000218725
2.55273e-05
-0.000243666
4.05224e-05
-0.000265646
5.71439e-05
-0.000283571
7.45021e-05
-0.000296593
9.15725e-05
-0.000304104
0.000107313
-0.000305821
0.000120849
-0.000301789
0.000131471
-0.000292249
0.000138649
-0.000277649
0.000142107
-0.00025854
0.00014174
-0.000235469
0.000137581
-0.000208975
0.000129774
-0.000179551
0.000118496
-0.000147596
0.0001039
-0.000113427
8.61039e-05
-7.73303e-05
6.52169e-05
-3.9422e-05
4.12408e-05
1.43497e-05
-0.000184303
2.10447e-05
-0.000211295
3.43133e-05
-0.000236527
4.99592e-05
-0.000258779
6.70398e-05
-0.000276976
8.4656e-05
-0.000290284
0.000101816
-0.000298134
0.000117512
-0.000300244
0.000130881
-0.00029664
0.000141248
-0.000287563
0.000148098
-0.000273439
0.000151161
-0.000254797
0.000150326
-0.000232183
0.000145605
-0.000206135
0.000137126
-0.000177146
0.000125054
-0.00014562
0.000109531
-0.000111889
9.0682e-05
-7.62624e-05
6.86217e-05
-3.88645e-05
4.33498e-05
1.50692e-05
-0.000178831
2.95387e-05
-0.000205836
4.36064e-05
-0.000231053
5.97758e-05
-0.000253284
7.7157e-05
-0.000271482
9.48556e-05
-0.000284826
0.000111912
-0.000292777
0.000127384
-0.000295085
0.000140443
-0.000291756
0.00015043
-0.000283029
0.000156859
-0.000269299
0.000159454
-0.000251066
0.000158097
-0.000228871
0.000152801
-0.000203244
0.00014367
-0.000174671
0.000130847
-0.000143572
0.000114473
-0.000110296
9.46761e-05
-7.51518e-05
7.15656e-05
-3.82818e-05
4.51519e-05
1.56787e-05
-0.000175615
3.85323e-05
-0.000202334
5.32923e-05
-0.000227249
6.98634e-05
-0.000249175
8.73931e-05
-0.000267103
0.000105007
-0.000280255
0.000121798
-0.000288114
0.000136887
-0.000290436
0.000149494
-0.000287228
0.000158986
-0.000278713
0.000164905
-0.000265271
0.000166974
-0.000247379
0.000165072
-0.000225561
0.000159201
-0.000200332
0.000149445
-0.00017217
0.000135928
-0.000141498
0.000118783
-0.00010867
9.81313e-05
-7.39984e-05
7.40813e-05
-3.76569e-05
4.66684e-05
1.61863e-05
-0.000174457
4.79561e-05
-0.000200666
6.33724e-05
-0.000225019
8.02341e-05
-0.000246359
9.7759e-05
-0.00026375
0.00011512
-0.000276464
0.000131487
-0.000284017
0.000146047
-0.000286174
0.000158072
-0.000282942
0.000166967
-0.000274527
0.000172298
-0.00026129
0.000173792
-0.000243686
0.000171323
-0.000222213
0.000164878
-0.00019737
0.000154523
-0.000169622
0.000140363
-0.000139385
0.00012252
-0.000107016
0.000101108
-7.28339e-05
7.62407e-05
-3.70298e-05
4.79688e-05
1.66209e-05
-0.00015473
4.36189e-05
-0.000182216
5.81119e-05
-0.000208719
7.40616e-05
-0.000233209
9.1067e-05
-0.000254497
0.000108419
-0.000271752
0.000125342
-0.000284277
0.000141123
-0.000291596
0.000155012
-0.000293483
0.000166333
-0.000289941
0.00017453
-0.000281171
0.000179193
-0.000267525
0.000180056
-0.000249448
0.000176988
-0.000227434
0.000169961
-0.000201978
0.00015902
-0.00017355
0.000144254
-0.000142573
0.000125769
-0.000109419
0.000103676
-7.44268e-05
7.80886e-05
-3.78087e-05
4.9073e-05
1.69876e-05
-0.000162247
-0.000189909
-0.000216198
8.54839e-05
-0.000240106
0.000102559
-0.000260626
0.000119454
-0.000277186
0.000135712
-0.000289064
0.000150761
-0.000295799
0.000163851
-0.000297181
0.000174354
-0.000293208
0.000181758
-0.000284074
0.000185673
-0.000270112
0.000185848
-0.000251752
0.000182146
-0.000229465
0.000174523
-0.000203734
0.000163004
-0.000175019
0.00014766
-0.000143741
0.000128584
-0.000110276
0.000105878
-7.49741e-05
7.96592e-05
-3.8061e-05
5.00038e-05
1.72946e-05
-0.000225564
-0.000249
-0.000268512
0.000130789
-0.00028398
0.00014628
-0.000294955
0.000160391
-0.00030086
0.000172573
-0.00030153
0.000182157
-0.000296943
0.00018868
-0.000287295
0.000191774
-0.000272904
0.000191207
-0.000254172
0.000186835
-0.00023155
0.000178601
-0.000205503
0.00016651
-0.000176476
0.000150614
-0.000144887
0.000130992
-0.000111111
0.000107738
-7.55045e-05
8.09702e-05
-3.83053e-05
5.07717e-05
1.75456e-05
-0.000277863
-0.00029223
0.000156772
-0.000302
0.000170129
-0.00030679
0.000181228
-0.000306551
0.000189781
-0.000301156
0.000195347
-0.000290843
0.000197539
-0.000275903
0.000196176
-0.000256711
0.000191103
-0.000233692
0.000182242
-0.000207286
0.000169582
-0.000177924
0.000153155
-0.000146012
0.000133027
-0.000111924
0.000109285
-7.60196e-05
8.20438e-05
-3.85419e-05
5.1391e-05
1.77456e-05
-0.000301177
-0.000310045
-0.000313715
0.00018977
-0.000312299
0.000197404
-0.000305846
0.00020182
-0.000294721
0.000202994
-0.00027912
0.000200795
-0.000259379
0.000194991
-0.000235898
0.000185486
-0.00020909
0.000172258
-0.000179367
0.000155321
-0.000147121
0.000134724
-0.000112719
0.000110547
-7.65202e-05
8.2901e-05
-3.87711e-05
5.18751e-05
1.78994e-05
-0.00032096
-0.000318645
-0.000311057
0.000208033
-0.000298902
0.000208225
-0.000282543
0.000205089
-0.000262166
0.000198533
-0.000238162
0.000188367
-0.000210912
0.000174572
-0.000180803
0.000157142
-0.000148211
0.00013611
-0.000113493
0.000111547
-7.70056e-05
8.35596e-05
-3.89925e-05
5.22353e-05
1.80109e-05
-0.000316488
-0.000303399
0.000212949
-0.000286163
0.000209144
-0.000265041
0.000201764
-0.000240464
0.000190898
-0.000212738
0.000176545
-0.000182222
0.00015864
-0.000149275
0.000137205
-0.000114243
0.000112302
-7.74725e-05
8.40324e-05
-3.92046e-05
5.248e-05
1.8083e-05
-0.000307709
-0.000289874
-0.000268014
0.00020464
-0.000242771
0.000193138
-0.000214547
0.000178186
-0.000183607
0.000159829
-0.000150301
0.000138017
-0.000114958
0.00011282
-7.79148e-05
8.43265e-05
-3.94046e-05
5.26136e-05
1.81172e-05
-0.000270897
-0.000245073
0.00019487
-0.000216316
0.000179537
-0.000184928
0.000160714
-0.000151268
0.000138543
-0.000115626
0.0001131
-7.83241e-05
8.44419e-05
-3.95884e-05
5.26359e-05
1.81136e-05
-0.000247096
-0.000217981
-0.000186181
0.00016125
-0.000152152
0.000138802
-0.000116229
0.000113132
-7.86895e-05
8.43712e-05
-3.97507e-05
5.25417e-05
1.807e-05
-0.000187273
-0.000152943
0.000138636
-0.000116753
0.000112916
-7.89971e-05
8.41015e-05
-3.98852e-05
5.23182e-05
1.79825e-05
-0.000153519
-0.000117167
-7.92437e-05
8.35942e-05
-3.9985e-05
5.19675e-05
1.78452e-05
-7.93967e-05
-4.00466e-05
5.14066e-05
1.76543e-05
-4.00497e-05
1.73643e-05
)
;

boundaryField
{
    inlet
    {
        type            calculated;
        value           nonuniform 0();
    }
    outlet
    {
        type            calculated;
        value           uniform 0;
    }
    flap
    {
        type            calculated;
        value           nonuniform 0();
    }
    upperWall
    {
        type            calculated;
        value           nonuniform 0();
    }
    lowerWall
    {
        type            calculated;
        value           uniform 0;
    }
    frontAndBack
    {
        type            empty;
        value           nonuniform 0();
    }
    procBoundary5to2
    {
        type            processor;
        value           nonuniform List<scalar> 
34
(
5.33779e-05
6.88765e-05
0.000199243
9.63573e-05
0.000113986
0.000258751
0.000141228
0.000287085
0.000165467
0.000179058
0.000317716
0.000196443
0.00020415
0.000324526
0.000212815
0.00032098
0.000215868
0.000212314
0.000293033
0.000206323
0.000273029
0.000195204
0.000180152
0.000219229
0.0001609
0.000187904
0.000137535
0.000112195
0.000117362
8.25991e-05
7.9373e-05
5.04999e-05
3.99635e-05
1.69549e-05
)
;
    }
    procBoundary5to4
    {
        type            processor;
        value           nonuniform List<scalar> 
18
(
0.000280363
0.000280605
0.000275977
0.000265934
0.000252279
0.000236302
0.000219558
0.000203272
0.000188328
0.000175342
0.000164705
0.00015661
0.000151109
0.000148168
0.000147479
-3.44544e-05
0.000126665
0.000133869
)
;
    }
}


// ************************************************************************* //
