/*--------------------------------*- C++ -*----------------------------------*\
| =========                 |                                                 |
| \\      /  F ield         | OpenFOAM: The Open Source CFD Toolbox           |
|  \\    /   O peration     | Version:  dev                                   |
|   \\  /    A nd           | Web:      www.OpenFOAM.org                      |
|    \\/     M anipulation  |                                                 |
\*---------------------------------------------------------------------------*/
FoamFile
{
    version     2.0;
    format      ascii;
    class       surfaceScalarField;
    location    "1.2";
    object      phi;
}
// * * * * * * * * * * * * * * * * * * * * * * * * * * * * * * * * * * * * * //

dimensions      [0 3 -1 0 0 0 0];

internalField   nonuniform List<scalar> 
5457
(
0.197723
0.00227243
0.195376
0.00234739
0.192902
0.00247943
0.190244
0.00267052
0.18739
0.0028699
0.184337
0.00307193
0.181073
0.00328237
0.177583
0.00350523
0.173851
0.00374333
0.169858
0.00399758
0.165586
0.00427064
0.161012
0.00456601
0.156114
0.00488536
0.150867
0.00523122
0.145242
0.00560601
0.13921
0.00601217
0.13274
0.00645212
0.125796
0.00692832
0.118339
0.00744317
0.110331
0.00799774
0.101733
0.00859134
0.0925077
0.00922227
0.0826184
0.00988763
0.0720339
0.0105839
0.0607284
0.0113055
0.0486871
0.0120416
0.0359062
0.0127813
0.022405
0.0135014
0.00833235
0.0140728
0.00833238
0.199547
0.00272024
0.198525
0.0033691
0.197244
0.0037665
0.195724
0.00420234
0.193957
0.00465406
0.191935
0.00511238
0.189651
0.00558491
0.187094
0.0060787
0.184251
0.00659716
0.181105
0.00714891
0.177635
0.0077393
0.173824
0.00836953
0.169651
0.00904596
0.165091
0.00977435
0.160118
0.0105602
0.154702
0.011409
0.148809
0.0123265
0.142402
0.0133187
0.135439
0.0143927
0.127873
0.0155538
0.119654
0.0168034
0.11073
0.0181431
0.101042
0.0195734
0.0905237
0.0211016
0.079094
0.0227352
0.0666561
0.0244798
0.0530855
0.0263523
0.0382001
0.028387
0.0213356
0.0309375
0.029668
0.199408
0.00330736
0.198461
0.00431535
0.197252
0.00498071
0.19583
0.00563674
0.194191
0.00631045
0.192324
0.00699838
0.190221
0.00770636
0.187873
0.00844299
0.185268
0.00921423
0.18239
0.0100322
0.179224
0.0109044
0.175752
0.0118338
0.171955
0.0128303
0.167811
0.0139025
0.163292
0.0150593
0.158371
0.0163104
0.153014
0.0176657
0.147181
0.0191352
0.140823
0.0207362
0.133883
0.0224835
0.126294
0.0243856
0.117976
0.026457
0.108836
0.028712
0.0987531
0.0311832
0.0875594
0.0339288
0.0749975
0.0370418
0.0606779
0.0406721
0.0440517
0.0450135
0.0240303
0.0509589
0.0536984
0.199315
0.00398649
0.198371
0.00525879
0.197177
0.0061803
0.195772
0.00705422
0.194156
0.00794329
0.19232
0.00885313
0.190258
0.00978797
0.18796
0.0107577
0.185415
0.0117719
0.182611
0.0128421
0.179537
0.0139778
0.176177
0.0151873
0.172513
0.016482
0.168525
0.0178733
0.164192
0.0193733
0.159486
0.0209966
0.154375
0.0227587
0.148819
0.0246743
0.142772
0.0267683
0.136172
0.0290732
0.128934
0.0316157
0.12096
0.0344271
0.112105
0.0375639
0.102195
0.0410928
0.0909938
0.0451292
0.078148
0.0498876
0.06306
0.0557601
0.0449064
0.0631671
0.0235918
0.0722735
0.0772901
0.199265
0.00471503
0.198311
0.00621221
0.197129
0.00736761
0.195739
0.0084571
0.19414
0.00955897
0.192327
0.0106856
0.190292
0.0118425
0.188026
0.0130409
0.185518
0.0142926
0.182757
0.0156098
0.179731
0.0170039
0.176425
0.0184871
0.172822
0.020073
0.168904
0.0217751
0.16465
0.0236085
0.160033
0.025594
0.155018
0.027754
0.149565
0.0301108
0.143629
0.0326894
0.137145
0.0355461
0.130012
0.0387401
0.122116
0.0423185
0.113291
0.0463858
0.103302
0.0510802
0.0918237
0.056607
0.0784713
0.0632396
0.0627346
0.0714966
0.0436966
0.0822049
0.0221316
0.0938385
0.0994216
0.199241
0.00546761
0.19828
0.00717174
0.19711
0.00854265
0.195736
0.00984361
0.194159
0.0111536
0.192372
0.0124919
0.190368
0.0138669
0.188136
0.0152902
0.185667
0.0167757
0.182947
0.0183368
0.179965
0.0199867
0.176705
0.0217419
0.173148
0.0236185
0.169276
0.0256308
0.16507
0.0277961
0.160499
0.0301451
0.155525
0.0327084
0.150104
0.0355141
0.144181
0.0385972
0.137685
0.0420301
0.130513
0.0459038
0.122519
0.0503066
0.113528
0.0553737
0.103288
0.0613178
0.0914339
0.0684599
0.0774992
0.0771733
0.0611609
0.0878343
0.0417044
0.101661
0.0204198
0.115123
0.119841
0.199232
0.00622864
0.198271
0.00813095
0.197116
0.00970301
0.195763
0.0112085
0.194213
0.0127212
0.192458
0.0142664
0.190491
0.0158549
0.188301
0.0174992
0.185876
0.0192146
0.183206
0.021016
0.180275
0.0229188
0.177066
0.0249465
0.173557
0.0271165
0.16973
0.0294424
0.165561
0.0319474
0.16102
0.0346658
0.156069
0.0376401
0.150654
0.0409104
0.144707
0.0445286
0.138146
0.0485788
0.130865
0.0531747
0.122708
0.0584578
0.113464
0.0646137
0.102849
0.0719297
0.0905615
0.0807451
0.0761481
0.0915851
0.0593016
0.10468
0.0395658
0.121396
0.0187952
0.135893
0.138636
0.19923
0.00699028
0.198276
0.00908326
0.19714
0.0108441
0.195814
0.0125464
0.194296
0.0142566
0.19258
0.0160036
0.190655
0.0178005
0.188513
0.0196612
0.18614
0.0216025
0.183525
0.0236409
0.18065
0.0257967
0.177497
0.0280966
0.174046
0.0305575
0.170273
0.0332004
0.166146
0.0360566
0.16164
0.0391517
0.156715
0.0425459
0.151303
0.0463038
0.145329
0.0504864
0.1387
0.0551943
0.131296
0.060568
0.122946
0.0668009
0.113436
0.074118
0.102462
0.0829002
0.0896928
0.0935112
0.0748234
0.106452
0.0576073
0.121894
0.0377749
0.141227
0.0176124
0.156055
0.156248
0.199236
0.00774566
0.198292
0.0100246
0.197176
0.0119641
0.195881
0.0138537
0.1944
0.0157553
0.192726
0.0176983
0.190851
0.0196979
0.188763
0.0217697
0.18645
0.0239322
0.183897
0.0262047
0.181083
0.0286149
0.177994
0.0311833
0.174615
0.0339277
0.170914
0.0368879
0.166855
0.0400986
0.162403
0.0435845
0.157511
0.0474176
0.152119
0.0516772
0.146133
0.0564557
0.139452
0.0618614
0.131949
0.0680594
0.123434
0.0753081
0.113662
0.0838834
0.10238
0.0941767
0.0892282
0.106659
0.0739363
0.121741
0.0564267
0.139401
0.0367076
0.160944
0.0171454
0.175616
0.173393
0.199247
0.00848917
0.198317
0.0109512
0.197226
0.0130594
0.195965
0.0151264
0.194526
0.0172124
0.192901
0.0193446
0.191081
0.0215402
0.189056
0.0238164
0.186812
0.0261938
0.184334
0.0286955
0.181599
0.0313553
0.178592
0.0341906
0.175291
0.0372216
0.171669
0.040497
0.167694
0.0440571
0.163315
0.0479443
0.158482
0.0522312
0.153133
0.0570071
0.147177
0.0623955
0.140499
0.0685237
0.132945
0.0756013
0.124338
0.0839053
0.114414
0.0938001
0.102933
0.105651
0.0895859
0.120001
0.0740531
0.137269
0.0563652
0.157085
0.0368811
0.180425
0.017693
0.194803
0.191086
0.199261
0.00921755
0.198352
0.011856
0.197292
0.0141237
0.19607
0.01636
0.194677
0.0186229
0.193107
0.0209364
0.19135
0.0233205
0.189395
0.0257941
0.187228
0.0283796
0.184831
0.0311067
0.182185
0.0340088
0.179271
0.0371056
0.176062
0.040426
0.172538
0.0440098
0.168666
0.0479136
0.16439
0.0522028
0.159657
0.0569455
0.154395
0.0622504
0.148524
0.0682487
0.141927
0.0751059
0.134423
0.0830917
0.125829
0.0924882
0.115944
0.103676
0.104485
0.117101
0.091147
0.133332
0.075671
0.152739
0.0581162
0.174634
0.038957
0.199581
0.0197247
0.214033
0.21081
0.199277
0.00992882
0.198395
0.0127328
0.19737
0.0151525
0.196189
0.0175525
0.194847
0.0199833
0.193337
0.022468
0.191649
0.0250324
0.189771
0.0276956
0.187687
0.0304839
0.185377
0.0334327
0.18283
0.0365655
0.180027
0.0399117
0.176939
0.0435107
0.17354
0.0474
0.169792
0.0516476
0.16565
0.0563279
0.161061
0.0615164
0.155955
0.0673385
0.150243
0.0739429
0.143791
0.0815426
0.136463
0.0904052
0.128079
0.10086
0.118453
0.113291
0.10729
0.128254
0.0943353
0.146278
0.0793968
0.167669
0.0624019
0.191623
0.0437903
0.218189
0.0242023
0.23362
0.235012
0.199296
0.0106199
0.198444
0.0135788
0.197455
0.0161448
0.196318
0.0187004
0.195032
0.0212873
0.193589
0.0239337
0.191978
0.0266682
0.190187
0.0295113
0.188196
0.0324966
0.18599
0.0356565
0.183557
0.03901
0.180877
0.042597
0.177928
0.0464582
0.174672
0.0506496
0.171077
0.0552308
0.167113
0.0602768
0.162721
0.0658913
0.157828
0.0722132
0.152354
0.0794002
0.146176
0.0877057
0.139192
0.0973738
0.131264
0.108774
0.122184
0.122357
0.111733
0.138693
0.0997812
0.158218
0.0861025
0.181338
0.0704479
0.20727
0.0531644
0.235468
0.0332845
0.253498
0.268297
0.19932
0.0112854
0.198499
0.0143927
0.197549
0.0170969
0.196466
0.0197955
0.195242
0.0225291
0.193871
0.0253275
0.192343
0.0282212
0.190643
0.0312373
0.188752
0.034411
0.186661
0.0377665
0.184354
0.0413306
0.181813
0.0451461
0.179014
0.0492582
0.175927
0.0537318
0.172532
0.0586162
0.168787
0.064009
0.16464
0.0700228
0.160034
0.0768028
0.154892
0.0845259
0.149149
0.0934332
0.142714
0.103793
0.135483
0.115989
0.127342
0.130483
0.118216
0.147806
0.108068
0.168354
0.0967738
0.192621
0.0841855
0.21985
0.0704865
0.249162
0.0516431
0.272339
0.31994
0.199342
0.011927
0.198552
0.0151741
0.197644
0.0180074
0.196611
0.0208394
0.195449
0.0237092
0.194151
0.0266481
0.192707
0.0296916
0.191097
0.0328733
0.18931
0.0362226
0.18734
0.0397578
0.185168
0.0435181
0.182777
0.0475474
0.180139
0.0518999
0.177241
0.0566277
0.174065
0.0617857
0.170562
0.0675011
0.166688
0.0738831
0.162421
0.0810546
0.157702
0.0892299
0.152505
0.0986156
0.146784
0.109498
0.140495
0.122261
0.133684
0.137276
0.126459
0.155014
0.119007
0.175791
0.111636
0.199979
0.104805
0.226673
0.0990732
0.254889
0.0894272
0.281984
0.409368
0.00574446
-0.00574579
0.0109971
-0.00525948
0.016387
-0.00541142
0.0218833
-0.00553564
0.0273009
-0.00546495
0.0324523
-0.00519302
0.037167
-0.00474548
0.0413436
-0.00419977
0.0449194
-0.00359675
0.0478338
-0.00293402
0.0500022
-0.00218563
0.0513377
-0.00135299
0.0517871
-0.000468138
0.0514235
0.000345227
0.0504478
0.000959437
0.0490468
0.00138858
0.0474096
0.00163009
0.045721
0.00168806
0.0441553
0.00157227
0.0428802
0.001289
0.0420568
0.000844663
0.0418551
0.000229642
0.0423832
-0.000494068
0.0438159
-0.00139356
0.0465098
-0.00265029
0.0508559
-0.00429896
0.0571776
-0.00627194
0.0657552
-0.00852577
0.0769209
-0.0111124
-0.0143272
0.00373571
-0.00948297
0.00798595
-0.00951715
0.0125748
-0.0100225
0.0171545
-0.0101548
0.0214361
-0.00979289
0.025174
-0.00897113
0.0282235
-0.00782469
0.0304862
-0.00648512
0.031896
-0.00502718
0.032412
-0.00346964
0.0320282
-0.00181955
0.0308618
-0.000204229
0.029195
0.00117978
0.0272322
0.0022895
0.0250399
0.00313533
0.0227323
0.00368363
0.0204504
0.00390485
0.0183461
0.00379174
0.0165662
0.00335865
0.0152396
0.00262944
0.0144802
0.00162514
0.0143895
0.000348183
0.0151657
-0.00123635
0.0170472
-0.00323599
0.0201548
-0.00571444
0.0245541
-0.00865129
0.030365
-0.0120332
0.0377756
-0.0158847
0.0469023
-0.0201859
-0.0254165
0.002513
-0.0119976
0.00534564
-0.0123578
0.00845572
-0.0131549
0.0113096
-0.0130463
0.0135864
-0.0121126
0.0151414
-0.0105634
0.0159399
-0.00865131
0.0159964
-0.00656368
0.0153451
-0.00439631
0.0140415
-0.00218591
0.0122678
-6.41721e-05
0.0102486
0.00179686
0.0080364
0.00337263
0.00564188
0.00466511
0.00316167
0.00559885
0.000712101
0.00612041
-0.00158734
0.00619687
-0.00362067
0.00582409
-0.0052734
0.00501751
-0.00643229
0.0038018
-0.00699723
0.00221076
-0.00687356
0.00025191
-0.00592831
-0.00214817
-0.00407319
-0.00505246
-0.00130848
-0.00843612
0.00236264
-0.0122759
0.00694863
-0.0165699
0.0124268
-0.0213114
0.0187023
-0.0264085
-0.032239
0.00162001
-0.0136195
0.00313749
-0.0138835
0.004635
-0.0146736
0.0055602
-0.0140054
0.00576558
-0.0123557
0.00529942
-0.0101302
0.00424655
-0.00762453
0.00269966
-0.00503834
0.000744307
-0.00246139
-0.00145511
-6.82889e-06
-0.0037394
0.00220103
-0.00612508
0.00416354
-0.00863204
0.00585966
-0.0111956
0.00720931
-0.013746
0.00813216
-0.0162007
0.00856194
-0.0184686
0.00845695
-0.0204475
0.00780146
-0.0220327
0.00660833
-0.0231236
0.00490553
-0.0236316
0.00273875
-0.023479
0.000125973
-0.0226126
-0.00298183
-0.0210329
-0.00659415
-0.0187848
-0.0106419
-0.0159536
-0.0150611
-0.0126874
-0.0197874
-0.00920507
-0.0247429
-0.00574808
-0.0298131
-0.0349764
0.000765725
-0.0143872
0.000993195
-0.0141191
0.000792118
-0.0144919
-0.000154426
-0.0130881
-0.00170536
-0.0108367
-0.00370459
-0.00815942
-0.00599844
-0.00535442
-0.00849223
-0.00256537
-0.0110672
9.32373e-05
-0.0136233
0.00252878
-0.0162002
0.00475793
-0.0188368
0.00678021
-0.0214998
0.00850208
-0.0241488
0.00983835
-0.026728
0.0106938
-0.0291728
0.0109931
-0.0314085
0.0106843
-0.0333513
0.00974218
-0.0349156
0.00817751
-0.0360209
0.00602297
-0.0365963
0.00333331
-0.036594
0.000149446
-0.0360159
-0.00352812
-0.0349058
-0.00766709
-0.0333354
-0.0121709
-0.0314305
-0.0169209
-0.0293893
-0.0217807
-0.027466
-0.0266161
-0.0259458
-0.0312814
-0.0354707
-0.000132017
-0.0142572
-0.00128059
-0.0129781
-0.00310191
-0.0126877
-0.0055563
-0.0106582
-0.00838568
-0.0080336
-0.0113855
-0.00518355
-0.0144291
-0.00233218
-0.0174058
0.000391543
-0.0202505
0.00291799
-0.0230234
0.00528115
-0.0257875
0.00750139
-0.0285337
0.00950558
-0.0312518
0.0111989
-0.0339157
0.0124819
-0.0364848
0.0132449
-0.0389115
0.0134057
-0.0411376
0.0129015
-0.0430971
0.0116989
-0.044718
0.00980258
-0.0459323
0.00724846
-0.0466827
0.00410199
-0.0469433
0.00043485
-0.0467447
-0.00369595
-0.046156
-0.00821968
-0.0452681
-0.0130182
-0.0442212
-0.0179236
-0.043206
-0.0227488
-0.0424438
-0.0273289
-0.0421942
-0.0314799
-0.0348456
-0.00105268
-0.0132064
-0.00359295
-0.0104447
-0.00678764
-0.00950752
-0.0103574
-0.00710854
-0.0140334
-0.00437873
-0.0176249
-0.00161219
-0.0210038
0.00102783
-0.0241412
0.00351032
-0.0271143
0.00587178
-0.0299941
0.00814057
-0.0328019
0.0102882
-0.0355511
0.0122332
-0.038246
0.013872
-0.0408721
0.0150871
-0.0434097
0.0157641
-0.045825
0.0158066
-0.0480725
0.0151396
-0.0500979
0.013721
-0.0518407
0.0115487
-0.0532414
0.00865949
-0.0542511
0.00512886
-0.0548533
0.0010608
-0.0550881
-0.00343143
-0.0550354
-0.00823744
-0.054793
-0.0132211
-0.0544965
-0.0181769
-0.0543119
-0.0228873
-0.0544239
-0.0271684
-0.0550445
-0.030809
-0.0335331
-0.00199727
-0.011211
-0.00581484
-0.00663298
-0.0100674
-0.00526684
-0.0143728
-0.00281907
-0.0184909
-0.000277546
-0.0222693
0.00214941
-0.025696
0.00443771
-0.0288596
0.00665641
-0.0318381
0.00883172
-0.0346805
0.0109631
-0.0374196
0.0130062
-0.0400865
0.0148783
-0.0426994
0.0164629
-0.0452616
0.0176283
-0.047766
0.0182501
-0.0501896
0.0182154
-0.0524964
0.0174366
-0.0546405
0.0158612
-0.0565687
0.0134794
-0.0582264
0.0103266
-0.0595666
0.00648523
-0.060569
0.00208585
-0.0612658
-0.00270611
-0.0617394
-0.00773004
-0.0620923
-0.0128299
-0.0624449
-0.0177823
-0.0629382
-0.0223488
-0.0637252
-0.0263338
-0.0649664
-0.0295183
-0.0317498
-0.00305803
-0.00815459
-0.00784282
-0.00185307
-0.0127666
-0.000352407
-0.0173799
0.0017819
-0.0215408
0.00386982
-0.0252509
0.00584525
-0.0285921
0.00776371
-0.0316392
0.00968715
-0.0344698
0.0116445
-0.0371499
0.0136237
-0.0397311
0.0155665
-0.0422557
0.017381
-0.0447535
0.0189387
-0.0472426
0.0200964
-0.0497241
0.0207131
-0.0521842
0.0206605
-0.054594
0.0198362
-0.056912
0.0181746
-0.059087
0.0156563
-0.0610646
0.0123127
-0.0627949
0.00823071
-0.0642463
0.00355872
-0.0654297
-0.00149531
-0.0664165
-0.00671068
-0.0673169
-0.0118923
-0.0682369
-0.0168214
-0.0692954
-0.0212462
-0.0706183
-0.0249645
-0.0723239
-0.0277642
-0.0296137
-0.004117
-0.00403901
-0.00950551
0.00353154
-0.0146364
0.00477127
-0.0191746
0.00631057
-0.0231412
0.00782544
-0.0266151
0.00930685
-0.0296874
0.0108222
-0.0324553
0.0124396
-0.0350105
0.0141827
-0.0374314
0.0160258
-0.0397848
0.0178992
-0.0421229
0.0196975
-0.0444855
0.0212796
-0.0468986
0.0224888
-0.049372
0.023168
-0.0518985
0.023172
-0.0544536
0.022381
-0.0569972
0.0207134
-0.0594766
0.018137
-0.061833
0.0146767
-0.0640098
0.0104217
-0.0659626
0.00553192
-0.0676711
0.000239485
-0.0691758
-0.00517463
-0.0705906
-0.0104415
-0.0720192
-0.0153529
-0.0735643
-0.0196583
-0.0753286
-0.0231547
-0.0774015
-0.0256439
-0.0271951
-0.00496012
0.000919939
-0.0106239
0.00919224
-0.0155622
0.0097041
-0.0197359
0.0104767
-0.0232715
0.0113518
-0.0262927
0.0123171
-0.0289219
0.0134386
-0.0312735
0.0147766
-0.0334479
0.0163406
-0.035532
0.0180916
-0.0376013
0.0199485
-0.039717
0.021792
-0.0419268
0.0234681
-0.0442637
0.0248055
-0.0467442
0.0256304
-0.0493661
0.0257791
-0.0521075
0.025112
-0.0549274
0.0235282
-0.0577684
0.0209787
-0.0605628
0.0174782
-0.0632424
0.0131146
-0.0657469
0.00805588
-0.0680322
0.00254988
-0.070092
-0.00308452
-0.0720124
-0.00848641
-0.0739188
-0.0134079
-0.0759018
-0.0176335
-0.0780495
-0.0209625
-0.0804325
-0.0232144
-0.0245353
-0.00553824
0.00645727
-0.011113
0.0147647
-0.0154223
0.0140089
-0.0189254
0.0139735
-0.0218146
0.0142329
-0.0242144
0.0147069
-0.0262602
0.0154724
-0.0280777
0.0165801
-0.0297764
0.0180234
-0.0314507
0.0197482
-0.0331828
0.0216612
-0.0350412
0.0236298
-0.0370795
0.0254858
-0.0393363
0.0270426
-0.041833
0.0281094
-0.0445718
0.0285034
-0.0475325
0.0280624
-0.0506718
0.0266622
-0.053926
0.0242333
-0.0572171
0.0207758
-0.0604622
0.0163723
-0.0635834
0.0111957
-0.0665161
0.00550667
-0.069207
-0.000364482
-0.0716701
-0.0059896
-0.0740489
-0.0109916
-0.0764502
-0.0151915
-0.0789549
-0.0184145
-0.0816217
-0.0205021
-0.0216519
-0.00582473
0.0122813
-0.0106008
0.0195388
-0.0139448
0.0173492
-0.0166477
0.0166708
-0.0187649
0.0163426
-0.0203941
0.0163266
-0.0217112
0.0167779
-0.0228742
0.0177296
-0.024002
0.0191357
-0.0251923
0.0209213
-0.0265317
0.0229819
-0.0280934
0.0251717
-0.029935
0.0273075
-0.0320983
0.029187
-0.0346089
0.0306031
-0.0374753
0.0313558
-0.0406803
0.0312574
-0.0441783
0.0301551
-0.0478987
0.027954
-0.0517515
0.0246346
-0.0556346
0.0202672
-0.0594445
0.0150233
-0.0630914
0.00917679
-0.0665083
0.00308053
-0.0696243
-0.00284104
-0.0725121
-0.00806748
-0.0753462
-0.0123177
-0.0782124
-0.0155061
-0.0811664
-0.0175036
-0.0185391
-0.00588173
0.0181626
-0.00874126
0.0223966
-0.0110901
0.0196945
-0.0130676
0.0186429
-0.0142751
0.0175429
-0.0149143
0.0169567
-0.0153186
0.017171
-0.015698
0.0180958
-0.0161568
0.0195794
-0.0167842
0.021532
-0.0176689
0.0238486
-0.0188854
0.0263693
-0.0204929
0.0288961
-0.0225343
0.0312103
-0.025037
0.0330896
-0.0280219
0.0343274
-0.0314784
0.0347044
-0.0353598
0.0340315
-0.0395886
0.032183
-0.0440635
0.0291153
-0.0486626
0.0248777
-0.0532507
0.0196284
-0.0577089
0.0136573
-0.0619468
0.00734552
-0.0658708
0.00111448
-0.0694121
-0.00449082
-0.0727306
-0.00896066
-0.075998
-0.0121974
-0.0792764
-0.0141818
-0.0151685
-0.00425566
0.0224176
-0.00448024
0.0226192
-0.00736971
0.0225803
-0.00881275
0.0200807
-0.00871063
0.0174337
-0.00793484
0.0161719
-0.00718124
0.0164065
-0.00664757
0.0175492
-0.00633641
0.0192535
-0.00631299
0.0214924
-0.00667025
0.0241886
-0.00747879
0.0271598
-0.00879458
0.0301939
-0.0106606
0.0330594
-0.0131013
0.0355151
-0.0161611
0.0373746
-0.0198428
0.0383772
-0.0241001
0.0382842
-0.0288527
0.036936
-0.0339974
0.0342656
-0.0394012
0.0302926
-0.0448847
0.0251283
-0.050284
0.0190781
-0.0554705
0.0125583
-0.0603499
0.00602447
-0.064786
-2.04064e-05
-0.0687565
-0.00495271
-0.0725119
-0.00840174
-0.0761963
-0.0104549
-0.0114863
0.207012
0.0125562
0.206237
0.0159386
0.205348
0.0188969
0.204342
0.0218551
0.203217
0.0248538
0.201962
0.0279272
0.200567
0.0311135
0.199015
0.0344534
0.197296
0.0379686
0.195405
0.0416724
0.193324
0.0456183
0.191032
0.0498521
0.188521
0.0544186
0.185775
0.059374
0.182763
0.0647938
0.179468
0.0707874
0.175866
0.0774734
0.171943
0.0849642
0.167685
0.0934734
0.163104
0.103182
0.158219
0.114368
0.153119
0.127341
0.148014
0.142361
0.143247
0.159762
0.139444
0.179577
0.137694
0.201716
0.139739
0.224618
0.148268
0.246355
0.167005
0.263246
0.270297
0.306076
0.212051
0.0131687
0.211301
0.0166766
0.210447
0.0197476
0.209488
0.0228231
0.208415
0.025946
0.207223
0.029144
0.205904
0.0324611
0.204438
0.0359483
0.20282
0.0396159
0.201042
0.0434763
0.199091
0.0475904
0.196952
0.0520076
0.194619
0.0567615
0.192086
0.0619114
0.189322
0.0675563
0.186334
0.0737695
0.183128
0.0806706
0.179692
0.0883884
0.176068
0.0970848
0.172313
0.106923
0.168531
0.118132
0.164963
0.130889
0.161963
0.145339
0.160164
0.161539
0.160595
0.179127
0.164962
0.197334
0.17558
0.213988
0.195748
0.226182
0.227264
0.23173
0.238384
0.259178
0.217217
0.0137586
0.216502
0.0173783
0.215694
0.0205509
0.214786
0.0237374
0.213776
0.0269734
0.212663
0.030282
0.211432
0.0337211
0.210071
0.0373405
0.208574
0.0411427
0.206933
0.0451463
0.205142
0.0494053
0.203192
0.0539762
0.201076
0.0588908
0.1988
0.0641946
0.196363
0.069996
0.193764
0.0763659
0.19103
0.0833979
0.188196
0.0912136
0.185345
0.0999247
0.182593
0.109663
0.180137
0.120573
0.178296
0.132707
0.177579
0.146031
0.178811
0.160284
0.183083
0.174834
0.19178
0.188621
0.205767
0.199991
0.224641
0.207303
0.246025
0.210345
0.210636
0.273774
0.222514
0.0143203
0.221841
0.0180364
0.221084
0.021303
0.220235
0.0245902
0.219301
0.0279208
0.218279
0.0313282
0.21715
0.0348798
0.215909
0.0386128
0.214553
0.0425313
0.213073
0.0466561
0.211467
0.051038
0.209734
0.0557312
0.207884
0.0607577
0.205916
0.0661724
0.203847
0.0720708
0.201697
0.0785165
0.199514
0.0855774
0.197379
0.0933424
0.195405
0.101889
0.193761
0.111297
0.192695
0.121624
0.192616
0.132765
0.194109
0.144512
0.197902
0.156466
0.204743
0.16797
0.215209
0.178137
0.229155
0.186033
0.245845
0.190607
0.265018
0.19117
0.186958
0.288697
0.227943
0.0148481
0.227316
0.0186472
0.226618
0.0219956
0.225846
0.0253645
0.225002
0.0287768
0.224074
0.0322769
0.223059
0.0359235
0.221956
0.0397477
0.220761
0.04376
0.219466
0.0479825
0.218071
0.0524622
0.216589
0.057238
0.215041
0.0623252
0.213423
0.0678038
0.211769
0.0737341
0.210128
0.0801604
0.20857
0.087135
0.207201
0.0947081
0.206153
0.102931
0.205635
0.111806
0.205963
0.121285
0.207552
0.131157
0.210868
0.141171
0.216369
0.150939
0.224419
0.159898
0.235138
0.1674
0.248315
0.172844
0.263466
0.175449
0.279985
0.174648
0.16957
0.297373
0.233507
0.0153376
0.232931
0.0192065
0.232302
0.0226171
0.231622
0.0260466
0.230879
0.0295301
0.230059
0.0331153
0.229168
0.0368402
0.22822
0.0407271
0.227203
0.04481
0.226111
0.0491076
0.224958
0.0536459
0.223764
0.0584587
0.222543
0.0635682
0.221311
0.069053
0.220121
0.0749362
0.219036
0.0812526
0.218141
0.0880321
0.217559
0.0952887
0.217454
0.103032
0.218067
0.111186
0.219694
0.119646
0.222628
0.128206
0.227168
0.13661
0.233576
0.144508
0.242001
0.151451
0.2524
0.156984
0.264575
0.160656
0.278025
0.161991
0.291905
0.160763
0.155763
0.30571
0.23921
0.0157836
0.238694
0.0197045
0.238145
0.023157
0.237563
0.0266297
0.23693
0.0301722
0.236232
0.0338314
0.235483
0.0376125
0.234702
0.0415368
0.233877
0.045667
0.233016
0.0500018
0.232135
0.0545591
0.231252
0.0593704
0.230383
0.0644618
0.22957
0.0698851
0.228876
0.0756442
0.228374
0.0817643
0.228167
0.0882441
0.228389
0.0950687
0.229216
0.102203
0.230846
0.10955
0.233492
0.116991
0.237353
0.124329
0.242627
0.131317
0.249458
0.137657
0.25786
0.14303
0.267729
0.147098
0.278855
0.149518
0.290763
0.150074
0.302803
0.148718
0.144042
0.314522
0.245057
0.0161789
0.24461
0.0201312
0.24415
0.0236063
0.243672
0.0271077
0.243153
0.0306997
0.242589
0.0344111
0.242006
0.038218
0.241407
0.0421638
0.240795
0.0463088
0.240187
0.0506425
0.239592
0.0551863
0.239037
0.059955
0.238548
0.0649761
0.238188
0.0702672
0.238019
0.0758288
0.238124
0.0816719
0.238608
0.0877672
0.239595
0.0940855
0.24123
0.100568
0.243658
0.107119
0.247041
0.113599
0.251528
0.119829
0.257234
0.125595
0.264197
0.130678
0.272376
0.134835
0.281675
0.137784
0.291858
0.139323
0.302512
0.13941
0.313179
0.138045
0.133818
0.323399
0.251052
0.0165145
0.250683
0.0204784
0.25032
0.0239579
0.249947
0.0274785
0.249548
0.031105
0.249143
0.0348304
0.248741
0.0386411
0.248338
0.0425928
0.247959
0.0467182
0.247611
0.051021
0.24732
0.0555085
0.247119
0.0601857
0.247046
0.0650763
0.24716
0.0701755
0.247524
0.0754834
0.248217
0.0809919
0.249332
0.0866617
0.250972
0.0924509
0.253257
0.0982855
0.256309
0.104065
0.260243
0.109659
0.265151
0.114911
0.271071
0.119661
0.277998
0.123737
0.285903
0.126917
0.294657
0.129017
0.303996
0.129972
0.313612
0.129786
0.323184
0.128466
0.124705
0.332293
0.257203
0.016779
0.256915
0.0207427
0.256646
0.0242125
0.256386
0.0277349
0.256134
0.0313621
0.255903
0.0350734
0.255686
0.0388775
0.255496
0.0428069
0.255362
0.0468802
0.255301
0.0511119
0.255342
0.0554974
0.255515
0.0600422
0.255865
0.0647543
0.256441
0.0696232
0.257302
0.0746414
0.258524
0.0797847
0.260186
0.0850104
0.262381
0.0902632
0.265204
0.0954664
0.268747
0.100523
0.273083
0.105319
0.278248
0.109738
0.284246
0.113652
0.291084
0.116888
0.2987
0.11929
0.306919
0.120787
0.315525
0.121356
0.324297
0.121005
0.332998
0.119758
0.116427
0.341271
0.263504
0.0169692
0.263306
0.0209147
0.26314
0.024362
0.263008
0.0278607
0.262917
0.0314549
0.262865
0.0351357
0.26285
0.0389095
0.262896
0.0427834
0.263026
0.0467752
0.263268
0.0508983
0.263644
0.0551497
0.264185
0.0595297
0.264934
0.0640321
0.265938
0.0686434
0.267255
0.0733445
0.268952
0.078104
0.271098
0.0828765
0.273766
0.0876035
0.277028
0.0922096
0.28095
0.0966032
0.285564
0.100704
0.290874
0.104424
0.2969
0.10762
0.303619
0.11016
0.310917
0.111983
0.318644
0.113052
0.326639
0.113354
0.334729
0.112908
0.342737
0.111744
0.108795
0.350365
0.26996
0.0170804
0.269866
0.0209799
0.269821
0.0243884
0.26983
0.0278425
0.269901
0.0313835
0.270035
0.0350095
0.270241
0.0387182
0.270533
0.0425104
0.270934
0.0463973
0.271471
0.0503872
0.272169
0.0544781
0.273062
0.0586634
0.274189
0.0629303
0.275596
0.0672602
0.277333
0.0716276
0.279457
0.0759969
0.282026
0.0803216
0.285091
0.0845474
0.288704
0.0886037
0.292906
0.0924051
0.297712
0.0958996
0.303124
0.0990099
0.30914
0.1016
0.315695
0.103601
0.322681
0.104991
0.329983
0.105744
0.337472
0.10586
0.34501
0.105364
0.352463
0.104286
0.101674
0.359581
0.276582
0.0170999
0.2766
0.0209305
0.276686
0.0242817
0.276844
0.0276725
0.277083
0.0311409
0.277411
0.0346863
0.277836
0.0383037
0.278373
0.0419898
0.279043
0.0457482
0.27987
0.0495824
0.280884
0.0534887
0.282116
0.0574561
0.283602
0.0614677
0.285383
0.065501
0.287503
0.0695275
0.290007
0.0735093
0.292942
0.0774005
0.29634
0.0811602
0.300226
0.0847249
0.304632
0.0880047
0.309577
0.0909574
0.315056
0.0935323
0.32102
0.0956355
0.327396
0.0972222
0.334104
0.09828
0.341045
0.098798
0.348116
0.0987852
0.355207
0.0982688
0.362213
0.0972758
0.0949585
0.368926
0.28337
0.0170201
0.283505
0.0207617
0.283726
0.0240358
0.284039
0.0273444
0.284453
0.0307205
0.284978
0.0341631
0.285624
0.0376657
0.286404
0.0412221
0.287339
0.0448299
0.288453
0.0484883
0.289772
0.0521906
0.291327
0.055923
0.29315
0.0596663
0.295275
0.0633958
0.297738
0.0670825
0.300576
0.0706872
0.303818
0.0741723
0.307483
0.0775052
0.311601
0.080616
0.316181
0.08343
0.321225
0.0859189
0.326715
0.0880452
0.332599
0.0897532
0.338808
0.0910132
0.345273
0.0918146
0.351911
0.0921577
0.358637
0.0920565
0.365366
0.0915378
0.372013
0.090626
0.0885681
0.378402
0.290326
0.0168355
0.290582
0.0204684
0.290944
0.0236461
0.291417
0.0268531
0.29201
0.0301173
0.292734
0.0334368
0.2936
0.0368038
0.294621
0.0402097
0.295817
0.0436476
0.297209
0.0471125
0.298821
0.0505961
0.300681
0.0540818
0.302815
0.0575503
0.305254
0.0609743
0.308023
0.0643296
0.311142
0.0675829
0.314637
0.0706892
0.318537
0.0736156
0.322854
0.0763071
0.327575
0.0787156
0.332682
0.0808176
0.338155
0.0825773
0.343948
0.0839632
0.350003
0.0849595
0.356257
0.085561
0.362642
0.0857731
0.369085
0.0856118
0.375519
0.0851025
0.381877
0.0842667
0.0824372
0.388007
0.297451
0.0165417
0.297833
0.0200458
0.29834
0.0231085
0.298976
0.0261948
0.299751
0.0293284
0.300676
0.0325059
0.301761
0.0357189
0.303019
0.0389567
0.304467
0.0422081
0.306127
0.0454648
0.308018
0.0487192
0.310164
0.0519507
0.312586
0.0551434
0.3153
0.058275
0.318334
0.0613095
0.321707
0.0642214
0.325437
0.0669703
0.329539
0.0695223
0.334007
0.0718468
0.33882
0.073908
0.343965
0.0756796
0.349412
0.0771351
0.355121
0.0782586
0.36104
0.0790427
0.367115
0.0794874
0.373288
0.079601
0.3795
0.0793999
0.385694
0.0789071
0.391818
0.0781417
0.0765141
0.397742
0.304751
0.0161346
0.305262
0.0194903
0.305915
0.0224201
0.306717
0.0253676
0.307675
0.0283525
0.3088
0.0313705
0.310102
0.0344126
0.311592
0.0374679
0.313284
0.0405206
0.315201
0.0435555
0.317357
0.0465736
0.319761
0.0495574
0.322439
0.0524769
0.325409
0.0553162
0.328688
0.0580416
0.332294
0.0606252
0.336228
0.063045
0.340487
0.0652698
0.345067
0.0672723
0.349951
0.0690293
0.355118
0.0705191
0.360537
0.0717218
0.366169
0.0726302
0.371971
0.0732434
0.377895
0.0735647
0.383893
0.0736043
0.389915
0.0733779
0.395915
0.0729061
0.401851
0.0722055
0.070757
0.407608
0.312227
0.0156111
0.31287
0.018799
0.313673
0.0215791
0.31464
0.0243708
0.31578
0.0271906
0.317104
0.0300321
0.318623
0.0328849
0.320343
0.0357446
0.322268
0.0385955
0.32442
0.0414068
0.326818
0.0441808
0.329469
0.0469133
0.332388
0.0495648
0.335598
0.0521145
0.339101
0.0545459
0.3429
0.0568325
0.346998
0.0589526
0.35139
0.0608829
0.356063
0.062602
0.361002
0.0640945
0.366182
0.065344
0.371573
0.0663355
0.377139
0.0670672
0.382842
0.0675423
0.388642
0.0677667
0.394495
0.0677509
0.400363
0.0675098
0.406207
0.0670617
0.411991
0.0664207
0.0651319
0.417616
0.319884
0.0149679
0.320663
0.0179689
0.321616
0.0205833
0.32275
0.023204
0.32407
0.0258442
0.325588
0.0284954
0.327312
0.0311469
0.329252
0.033797
0.331408
0.0364343
0.333789
0.0390249
0.336412
0.0415578
0.339297
0.0440313
0.342445
0.0464199
0.345862
0.0487004
0.349556
0.0508555
0.353526
0.0528661
0.357767
0.0547137
0.362272
0.0563803
0.367025
0.0578498
0.372008
0.0591126
0.377198
0.0601571
0.382565
0.0609714
0.388077
0.0615574
0.393699
0.061921
0.399397
0.0620691
0.405135
0.0620125
0.410878
0.0617648
0.416596
0.061342
0.422258
0.0607565
0.0596108
0.427779
0.327727
0.0142025
0.328643
0.0169974
0.32975
0.0194307
0.33105
0.021866
0.33255
0.0243138
0.334257
0.0267646
0.336177
0.0292086
0.338321
0.0316403
0.340696
0.0340492
0.343303
0.0364118
0.346146
0.03871
0.349241
0.0409341
0.352593
0.0430671
0.356202
0.0450903
0.360069
0.0469877
0.36419
0.0487439
0.368558
0.0503443
0.373162
0.0517751
0.377985
0.0530246
0.383008
0.0540881
0.388209
0.0549571
0.393558
0.0556224
0.399028
0.056088
0.404586
0.0563613
0.410204
0.0564499
0.41585
0.056364
0.421496
0.056116
0.427114
0.05572
0.432681
0.0551865
0.0541701
0.438119
0.335757