/*--------------------------------*- C++ -*----------------------------------*\
| =========                 |                                                 |
| \\      /  F ield         | OpenFOAM: The Open Source CFD Toolbox           |
|  \\    /   O peration     | Version:  dev                                   |
|   \\  /    A nd           | Web:      www.OpenFOAM.org                      |
|    \\/     M anipulation  |                                                 |
\*---------------------------------------------------------------------------*/
FoamFile
{
    version     2.0;
    format      ascii;
    class       volScalarField;
    location    "0.27";
    object      p;
}
// * * * * * * * * * * * * * * * * * * * * * * * * * * * * * * * * * * * * * //

dimensions      [0 2 -2 0 0 0 0];

internalField   nonuniform List<scalar> 
465
(
-147.102
-157.084
-142.02
-150.925
-158.674
-164.438
-136.232
-144.12
-150.819
-155.637
-157.611
-128.704
-135.661
-141.321
-145.022
-146.015
-143.828
-138.567
-118.701
-124.789
-129.47
-132.096
-132.259
-129.873
-124.958
-117.623
-108.192
-106.622
-111.899
-115.736
-117.652
-117.462
-115.224
-110.915
-104.601
-96.5485
-87.1785
-93.642
-98.2111
-101.438
-103.003
-102.812
-100.932
-97.3455
-92.1066
-85.4187
-77.6071
-69.0615
-60.1847
-80.9333
-84.9135
-87.73
-89.1643
-89.1461
-87.7083
-84.8507
-80.6231
-75.179
-68.7629
-61.6715
-54.2181
-46.7002
-69.2576
-72.7553
-75.283
-76.6854
-76.8871
-75.8859
-73.6912
-70.3504
-65.9794
-60.7595
-54.9154
-48.6903
-42.3216
-36.021
-29.9602
-58.9352
-62.0339
-64.3359
-65.7306
-66.1347
-65.5152
-63.8862
-61.2908
-57.8159
-53.5957
-48.7999
-43.6171
-38.2365
-32.8328
-27.5544
-22.5153
-49.9848
-52.7498
-54.8605
-56.2383
-56.8014
-56.4952
-55.3316
-53.3477
-50.6085
-47.2132
-43.2898
-38.9843
-34.4475
-29.8229
-25.2372
-20.7929
-16.5653
-12.602
-42.2823
-44.7654
-46.7104
-48.0548
-48.7271
-48.6687
-47.881
-46.3931
-44.2536
-41.5354
-38.3353
-34.7663
-30.9479
-26.9977
-23.0229
-19.1142
-15.3425
-11.7569
-8.38651
-35.6623
-37.9054
-39.7031
-41.004
-41.7471
-41.8786
-41.3904
-40.3024
-38.6499
-36.4869
-33.8861
-30.9345
-27.7272
-24.3597
-20.9221
-17.4938
-14.1398
-10.9088
-7.8333
-4.92512
-29.9669
-32.0038
-33.6702
-34.9222
-35.7091
-35.9837
-35.732
-34.965
-33.7078
-31.9997
-29.8952
-27.4615
-24.7734
-21.9086
-18.9423
-15.9432
-12.9701
-10.0695
-7.27561
-4.60596
-2.17159
-25.0593
-26.9186
-28.4678
-29.6693
-30.481
-30.8623
-30.796
-30.286
-29.3492
-28.014
-26.3208
-24.3212
-22.0742
-19.6425
-17.0888
-14.4719
-11.8443
-9.24968
-6.72219
-4.2832
-2.03256
-20.8254
-22.5314
-23.9763
-25.1279
-25.9511
-26.4113
-26.4895
-26.1848
-25.5076
-24.4779
-23.1256
-21.4899
-19.6172
-17.5582
-15.3647
-13.087
-10.7715
-8.45829
-6.18077
-3.96243
-1.89232
-17.1709
-18.7442
-20.0966
-21.2002
-22.0259
-22.5439
-22.7342
-22.5929
-22.1259
-21.3465
-20.2765
-18.9457
-17.3905
-15.6516
-13.7719
-11.7941
-9.75889
-7.70295
-5.65803
-3.64863
-1.75359
-14.0174
-15.4761
-16.7467
-17.8043
-18.6268
-19.1872
-19.4639
-19.4524
-19.1552
-18.5807
-17.7445
-16.669
-15.3826
-13.918
-12.3107
-10.5971
-8.81244
-6.99004
-5.15973
-3.34614
-1.61873
-11.3006
-12.6607
-13.8596
-14.8756
-15.6894
-16.2783
-16.6221
-16.714
-16.554
-16.1472
-15.5042
-14.6421
-13.5827
-12.3527
-10.9811
-9.49883
-7.93681
-6.32486
-4.69076
-3.05874
-1.48976
-8.96702
-10.2424
-11.3787
-12.3569
-13.1595
-13.7673
-14.1624
-14.3363
-14.2869
-14.0169
-13.5335
-12.8491
-11.9811
-10.9507
-9.78201
-8.50135
-7.13567
-5.71175
-4.25528
-2.7897
-1.36839
-6.9732
-8.17629
-9.25836
-10.2025
-10.9928
-11.6128
-12.0468
-12.2853
-12.3248
-12.166
-11.8136
-11.2768
-10.5691
-9.70764
-8.71253
-7.60615
-6.41211
-5.15446
-3.8569
-2.54188
-1.25613
-5.28271
-6.42459
-7.4601
-8.37405
-9.15203
-9.77958
-10.2427
-10.5318
-10.6423
-10.5735
-10.3283
-9.91324
-9.33896
-8.61938
-7.77139
-6.81417
-5.7685
-4.65604
-3.49866
-2.31774
-1.15424
-3.86895
-4.95969
-5.95582
-6.84358
-7.60977
-8.24152
-8.72634
-9.05462
-9.22121
-9.22443
-9.06574
-8.74996
-8.28533
-7.68336
-6.95832
-6.12684
-5.20736
-4.21947
-3.18342
-2.11953
-1.0638
-2.70667
-3.75559
-4.71923
-5.58496
-6.34056
-6.97437
-7.47511
-7.83349
-8.04399
-8.10424
-8.01466
-7.7787
-7.40291
-6.89686
-6.2728
-5.54533
-4.73096
-3.84759
-2.91404
-1.94964
-0.986139
-1.78579
-2.80147
-3.73902
-4.5867
-5.33306
-5.96734
-6.47916
-6.85966
-7.10319
-7.2069
-7.17051
-6.99648
-6.69013
-6.25961
-5.71562
-5.07117
-4.34124
-3.54236
-2.69216
-1.80909
-0.921416
-1.08642
-2.07752
-2.99576
-3.83
-4.56939
-5.20381
-5.7237
-6.12073
-6.38909
-6.52549
-6.52913
-6.40177
-6.14786
-5.7745
-5.29129
-4.71005
-4.04461
-3.31041
-2.52413
-1.70343
-0.873392
-0.618825
-1.593
-2.49773
-3.32224
-4.05583
-4.68846
-5.21142
-5.61741
-5.90072
-6.0578
-6.08749
-5.99105
-5.77233
-5.43771
-4.99599
-4.45815
-3.83717
-3.14765
-2.40553
-1.62789
-0.837843
-0.364368
-1.33099
-2.23
-3.05104
-3.78412
-4.41975
-4.94852
-5.3623
-5.65563
-5.82526
-5.86996
-5.79083
-5.5914
-5.27768
-4.85804
-4.34299
-3.745
-3.07815
-2.3577
-1.59957
-0.821804
)
;

boundaryField
{
    inlet
    {
        type            zeroGradient;
    }
    outlet
    {
        type            fixedValue;
        value           uniform 0;
    }
    flap
    {
        type            zeroGradient;
    }
    upperWall
    {
        type            zeroGradient;
    }
    lowerWall
    {
        type            zeroGradient;
    }
    frontAndBack
    {
        type            empty;
    }
    procBoundary2to1
    {
        type            processor;
        value           nonuniform List<scalar> 
17
(
-39.3349
-33.0341
-27.6091
-22.9316
-18.894
-15.4071
-12.3969
-9.80224
-7.57253
-5.6667
-4.05014
-2.69777
-1.58539
-0.703978
-0.033737
0.413946
0.659301
)
;
    }
    procBoundary2to4
    {
        type            processor;
        value           nonuniform List<scalar> 
11
(
-136.814
-132.686
-127.774
-120.99
-111.67
-100.301
-88.0422
-76.0177
-64.9548
-55.1612
-46.6594
)
;
    }
    procBoundary2to5
    {
        type            processor;
        value           nonuniform List<scalar> 
34
(
-151.907
-162.881
-165.897
-165.897
-172.495
-167.172
-167.172
-155.995
-155.995
-150.765
-130.415
-130.415
-119.745
-97.192
-97.192
-76.9964
-76.9964
-66.5174
-51.3488
-51.3488
-39.3733
-39.3733
-32.4347
-24.2639
-24.2639
-17.7931
-17.7931
-13.4303
-8.92539
-8.92539
-5.23443
-5.23443
-2.30631
-2.30631
)
;
    }
}


// ************************************************************************* //
