/*--------------------------------*- C++ -*----------------------------------*\
| =========                 |                                                 |
| \\      /  F ield         | OpenFOAM: The Open Source CFD Toolbox           |
|  \\    /   O peration     | Version:  dev                                   |
|   \\  /    A nd           | Web:      www.OpenFOAM.org                      |
|    \\/     M anipulation  |                                                 |
\*---------------------------------------------------------------------------*/
FoamFile
{
    version     2.0;
    format      ascii;
    class       volVectorField;
    location    "0.51";
    object      U;
}
// * * * * * * * * * * * * * * * * * * * * * * * * * * * * * * * * * * * * * //

dimensions      [0 1 -1 0 0 0 0];

internalField   nonuniform List<vector> 
465
(
(9.93236 3.16463e-21 0.0196186)
(9.86408 -3.459e-21 0.0282987)
(9.7663 2.16054e-22 0.0343784)
(9.64104 0 0.0405398)
(9.49627 0 0.0469219)
(9.33464 -3.85657e-21 0.0535233)
(9.15542 0 0.0604799)
(8.95737 0 0.0679379)
(8.73956 2.18039e-21 0.0760309)
(8.50111 -2.27806e-21 0.0848861)
(8.24092 0 0.094627)
(7.95772 1.00893e-20 0.105377)
(7.65015 -9.72636e-21 0.117261)
(7.31682 0 0.130403)
(6.95635 -2.33736e-20 0.144918)
(6.56747 2.4077e-20 0.160902)
(6.14918 -6.39655e-21 0.178412)
(5.70084 3.39821e-20 0.197438)
(5.22248 -1.39251e-20 0.217879)
(4.71499 4.54459e-20 0.239508)
(4.18043 -1.5739e-19 0.261915)
(9.99077 -2.85777e-21 0.0398964)
(9.9772 3.7701e-21 0.0602634)
(9.93649 -8.62147e-22 0.0756774)
(9.8672 -8.93104e-21 0.0917653)
(9.77604 -1.87688e-21 0.10884)
(9.66578 -1.20704e-23 0.126829)
(9.53593 -8.04175e-21 0.145998)
(9.38528 1.66421e-20 0.166657)
(9.213 -1.51878e-20 0.189092)
(9.01827 1.12466e-20 0.213587)
(8.80001 -2.36316e-21 0.24041)
(8.55698 2.00027e-20 0.269817)
(8.28782 -2.44722e-22 0.302047)
(7.99111 2.24398e-20 0.337315)
(7.66542 -1.90799e-21 0.375787)
(7.3094 -4.75506e-20 0.417532)
(6.92188 6.31808e-21 0.462476)
(6.50205 -1.14024e-19 0.510312)
(6.04962 1.81726e-19 0.560433)
(5.56517 -1.01751e-19 0.611846)
(5.05038 2.80417e-19 0.663056)
(9.9879 -1.30079e-20 0.0431312)
(9.97147 -1.16887e-20 0.0728289)
(9.93291 -1.72152e-21 0.0982635)
(9.86845 7.13347e-21 0.124788)
(9.78346 7.37954e-21 0.153041)
(9.68083 7.67046e-21 0.183024)
(9.56043 -7.95646e-21 0.215107)
(9.4212 -1.66998e-20 0.249729)
(9.26241 1.2831e-20 0.287314)
(9.08343 4.49947e-21 0.328321)
(8.88337 2.35634e-21 0.373204)
(8.66116 3.97647e-20 0.422389)
(8.41558 -4.08552e-20 0.476285)
(8.14536 -8.4214e-23 0.535272)
(7.84916 2.83713e-21 0.599656)
(7.52564 5.93029e-21 0.669606)
(7.17353 1.2452e-20 0.745063)
(6.79175 0 0.82561)
(6.37954 2.76158e-20 0.910327)
(5.93675 2.33758e-19 0.99766)
(5.464 -2.4084e-19 1.08522)
(9.98617 1.38182e-20 0.0488946)
(9.96741 1.08543e-20 0.0894499)
(9.92872 1.8912e-20 0.126205)
(9.86556 -3.54608e-21 0.163466)
(9.7823 -7.37369e-21 0.20245)
(9.68177 -1.52623e-20 0.243518)
(9.56414 -8.03178e-21 0.287235)
(9.42859 2.46537e-20 0.334207)
(9.27449 2.59182e-20 0.385012)
(9.10138 2.28327e-20 0.440287)
(8.90866 -3.71425e-20 0.500675)
(8.69551 -3.95029e-20 0.566774)
(8.46104 4.05666e-20 0.639166)
(8.20428 7.51682e-22 0.718408)
(7.92422 -9.07311e-20 0.804975)
(7.61977 8.73143e-20 0.899188)
(7.28993 -1.9958e-19 1.00111)
(6.93373 4.14286e-19 1.11037)
(6.55029 3.13198e-20 1.22598)
(6.139 -2.25623e-19 1.34611)
(5.69961 0 1.46786)
(9.98534 0 0.0561771)
(9.96534 2.6582e-20 0.106182)
(9.92651 -1.37375e-20 0.152896)
(9.86441 0 0.1999)
(9.78288 2.20383e-20 0.248853)
(9.6844 7.66907e-21 0.300441)
(9.56929 0 0.355364)
(9.4369 8.32077e-21 0.414345)
(9.28659 8.91808e-21 0.478066)
(9.11798 -8.02757e-20 0.547267)
(8.93061 -6.20557e-22 0.622704)
(8.72384 2.88325e-20 0.705087)
(8.49696 -8.19638e-20 0.795104)
(8.24921 8.34695e-20 0.893436)
(7.97981 -1.79506e-19 1.00068)
(7.68789 -3.67066e-21 1.11727)
(7.37266 3.8971e-19 1.24336)
(7.03333 -2.02114e-19 1.37869)
(6.66906 -2.68236e-20 1.52234)
(6.27897 0 1.67246)
(5.86217 -5.8183e-20 1.82596)
(9.98498 2.74012e-20 0.0641347)
(9.96448 -2.82301e-20 0.122904)
(9.92588 2.73058e-20 0.179063)
(9.86502 -7.09228e-21 0.235695)
(9.78553 -7.36276e-21 0.294576)
(9.68957 1.52417e-20 0.356595)
(9.57744 1.80397e-22 0.422539)
(9.44865 -3.25561e-20 0.493237)
(9.30257 0 0.569481)
(9.13882 -3.56956e-20 0.652101)
(8.95704 1.01877e-19 0.741953)
(8.75668 -7.63277e-20 0.839853)
(8.53708 0 0.946596)
(8.29759 0 1.06297)
(8.0375 -1.78667e-19 1.1897)
(7.75607 1.81889e-19 1.3273)
(7.45252 1.69873e-19 1.47604)
(7.12611 -1.98872e-19 1.63577)
(6.77589 0 1.80575)
(6.40072 0 1.98426)
(5.99913 5.19332e-19 2.16833)
(9.98488 -9.17301e-23 0.0723544)
(9.96438 0 0.139535)
(9.92642 -9.8045e-23 0.204687)
(9.86709 0 0.270616)
(9.78991 4.36797e-20 0.339088)
(9.6969 1.51948e-20 0.411146)
(9.58827 4.18159e-23 0.487679)
(9.46364 3.24813e-20 0.56963)
(9.32242 -1.68356e-20 0.657917)
(9.16423 -1.75121e-20 0.75345)
(8.98876 2.74068e-20 0.857161)
(8.79553 9.56539e-21 0.969969)
(8.58388 9.90076e-21 1.09278)
(8.35315 -1.57172e-19 1.22648)
(8.10268 -1.77559e-21 1.37188)
(7.83169 3.61822e-19 1.52964)
(7.53935 9.46794e-21 1.70012)
(7.22476 -1.83099e-19 1.88334)
(6.88672 -2.5537e-20 2.07881)
(6.52369 0 2.28512)
(6.13358 9.56868e-19 2.49963)
(9.98494 -2.5681e-20 0.0806002)
(9.9648 2.62699e-20 0.155921)
(9.92782 -1.10803e-22 0.229631)
(9.87032 0 0.304466)
(9.79576 -2.90271e-20 0.382156)
(9.7061 4.28669e-23 0.463859)
(9.60147 2.18405e-22 0.550561)
(9.48153 -4.82532e-20 0.64331)
(9.34579 1.68021e-20 0.74314)
(9.19389 1.17714e-22 0.85104)
(9.02555 -1.81819e-20 0.968012)
(8.8403 -7.60691e-20 1.09508)
(8.6375 6.81018e-20 1.23327)
(8.41648 -1.02827e-20 1.38357)
(8.17654 -1.72204e-19 1.54692)
(7.91687 1.76401e-19 1.72408)
(7.63648 4.38969e-21 1.9156)
(7.33419 -9.15458e-21 2.12176)
(7.00843 1.28425e-20 2.34234)
(6.65718 0 2.57641)
(6.27771 3.84074e-19 2.82187)
(9.98512 0 0.0887182)
(9.96561 -2.62592e-20 0.171912)
(9.92992 -2.02858e-20 0.253774)
(9.8745 -1.39376e-20 0.337098)
(9.80287 7.17552e-21 0.423599)
(9.71695 0 0.514513)
(9.61681 0 0.610925)
(9.50209 3.01706e-22 0.713968)
(9.37242 -3.30254e-20 0.824776)
(9.22751 3.44951e-20 0.94442)
(9.06707 1.785e-20 1.07399)
(8.89066 -7.51452e-20 1.21461)
(8.69766 7.698e-20 1.36743)
(8.48741 0 1.53355)
(8.25919 1.69357e-19 1.71404)
(8.01208 -3.4959e-19 1.90984)
(7.74499 1.93047e-19 2.12175)
(7.45639 -2.97522e-21 2.35035)
(7.14436 1.54175e-20 2.59583)
(6.80635 0 2.85779)
(6.43895 0 3.13485)
(9.98539 -1.58789e-21 0.0965944)
(9.96675 -5.03815e-20 0.187374)
(9.9326 0 0.277002)
(9.87952 -2.76254e-20 0.368379)
(9.81113 -2.85384e-20 0.463234)
(9.72931 -4.438e-20 0.562882)
(9.63411 -1.52882e-20 0.668496)
(9.52514 3.18518e-20 0.781284)
(9.40212 0 0.902454)
(9.26484 -1.7142e-20 1.03317)
(9.11302 -1.78009e-20 1.1746)
(8.94626 7.41616e-20 1.328)
(8.76397 -5.69237e-20 1.4946)
(8.56555 1.97381e-20 1.67565)
(8.35028 1.66347e-19 1.87237)
(8.11718 -1.7016e-19 2.08591)
(7.86501 -1.12077e-20 2.31738)
(7.59205 -3.72188e-19 2.56773)
(7.2961 3.89053e-19 2.83767)
(6.97417 3.99602e-19 3.12745)
(6.62214 -4.07797e-19 3.43661)
(9.98569 0 0.104151)
(9.96808 5.19884e-20 0.202197)
(9.93573 0 0.299199)
(9.88528 2.76046e-20 0.398175)
(9.8204 4.27808e-20 0.500894)
(9.74301 2.9367e-20 0.608756)
(9.6531 4.56294e-20 0.723022)
(9.55034 3.16352e-20 0.844956)
(9.43451 -3.24182e-20 0.975829)
(9.30545 0 1.11688)
(9.16293 -3.48386e-20 1.26939)
(9.0066 -1.09238e-19 1.43469)
(8.83595 1.50471e-19 1.61413)
(8.65043 -9.72607e-20 1.80909)
(8.44936 0 2.02094)
(8.23177 0 2.25112)
(7.99636 0 2.50105)
(7.74135 -3.62795e-19 2.77211)
(7.46439 3.58561e-19 3.0656)
(7.16221 -4.11338e-19 3.38259)
(6.83021 -4.69229e-21 3.72371)
(9.98597 0 0.111347)
(9.9695 0 0.216292)
(9.9392 0 0.320243)
(9.89166 2.72604e-20 0.426346)
(9.83055 -1.41639e-20 0.536426)
(9.75784 -2.93642e-20 0.651963)
(9.67356 -1.52678e-20 0.77429)
(9.5774 3.10251e-20 0.904723)
(9.46922 0 1.04458)
(9.34891 0 1.1952)
(9.21632 1.043e-19 1.35791)
(9.07116 -3.51773e-20 1.53415)
(8.91305 1.81784e-20 1.72538)
(8.7415 1.54529e-19 1.93307)
(8.55589 -3.17886e-19 2.15881)
(8.35533 1.63402e-19 2.40427)
(8.13861 -4.20874e-20 2.67122)
(7.90403 1.76564e-19 2.96151)
(7.64926 -1.3535e-19 3.27704)
(7.371 2.36068e-20 3.61979)
(7.06458 -3.85825e-19 3.99169)
(9.98626 0 0.118155)
(9.97104 -3.20529e-21 0.22958)
(9.94297 -4.26446e-20 0.340019)
(9.89855 -8.81423e-20 0.452767)
(9.84145 0 0.569699)
(9.77368 0 0.692348)
(9.69533 0 0.822111)
(9.60613 3.09997e-20 0.960351)
(9.50601 -3.17481e-20 1.10844)
(9.39494 -6.63056e-20 1.26777)
(9.27284 6.7854e-20 1.43975)
(9.13953 0 1.62588)
(8.99475 -1.10048e-19 1.82771)
(8.83813 7.49609e-20 2.04684)
(8.66917 0 2.28503)
(8.48713 1.21819e-19 2.54417)
(8.29098 -8.20723e-20 2.82634)
(8.07928 0 3.13383)
(7.84993 -4.44642e-20 3.46919)
(7.59996 -4.45178e-20 3.8353)
(7.32506 1.85698e-19 4.23542)
(9.98659 1.55075e-21 0.124537)
(9.97271 -4.77356e-21 0.241998)
(9.947 3.6147e-21 0.358446)
(9.90586 5.40892e-20 0.477339)
(9.85297 2.76824e-20 0.60059)
(9.79039 2.85467e-20 0.729766)
(9.71824 0 0.866315)
(9.63633 0 1.01165)
(9.54463 3.16721e-20 1.16717)
(9.44322 -6.51307e-20 1.33432)
(9.33211 4.84656e-23 1.51457)
(9.21124 0 1.70947)
(9.08048 -7.20422e-20 1.92063)
(8.93962 1.10284e-19 2.14977)
(8.78835 0 2.39877)
(8.62614 1.97438e-19 2.66972)
(8.45227 -3.64085e-19 2.96496)
(8.26567 3.32123e-19 3.28715)
(8.06474 -1.69831e-19 3.63939)
(7.84717 4.42381e-20 4.02537)
(7.60954 0 4.44958)
(9.98696 1.54026e-21 0.130458)
(9.9745 -4.74023e-21 0.253489)
(9.95125 1.07157e-19 0.375454)
(9.91354 -6.70246e-21 0.499963)
(9.86505 -2.07871e-20 0.628962)
(9.80787 -4.27655e-20 0.764042)
(9.74217 -1.45559e-20 0.906689)
(9.66781 -3.00539e-20 1.05835)
(9.58486 2.94385e-22 1.22045)
(9.49346 -5.90941e-23 1.39448)
(9.39375 3.33448e-20 1.58193)
(9.28579 -3.39312e-20 1.78438)
(9.16962 0 2.0035)
(9.0452 -3.65623e-20 2.24108)
(8.91245 0 2.49909)
(8.77115 0 2.77974)
(8.62094 -1.57905e-19 3.08556)
(8.46126 1.60931e-19 3.41946)
(8.29121 0 3.78495)
(8.10943 8.41596e-20 4.1863)
(7.91389 -8.56586e-20 4.6289)
(9.95574 -3.76906e-22 0.391294)
(9.92166 -6.40265e-21 0.520994)
(9.8778 6.56456e-21 0.655283)
(9.82631 1.35922e-20 0.795765)
(9.76742 1.41347e-20 0.94395)
(9.70106 2.89214e-20 1.1013)
(9.62736 2.9814e-20 1.26929)
(9.54658 -3.78597e-22 1.44937)
(9.45897 3.32675e-22 1.64308)
(9.36476 3.32254e-20 1.85201)
(9.26412 -9.94777e-20 2.07785)
(9.15727 -3.39542e-20 2.3224)
(9.04437 0 2.58768)
(8.92556 0 2.87596)
(8.80093 1.10518e-19 3.18982)
(8.67052 -7.54204e-20 3.53233)
(8.53428 -3.90166e-20 3.90714)
(8.39203 1.94887e-19 4.31879)
(8.24347 -5.4799e-22 4.77309)
(9.93025 0 0.540377)
(9.89127 0 0.679438)
(9.84575 0 0.824745)
(9.79397 0 0.977817)
(9.73591 -2.38799e-22 1.14013)
(9.67183 2.84971e-20 1.31314)
(9.60208 -2.95999e-20 1.49833)
(9.52703 6.08055e-20 1.6972)
(9.44705 -9.28845e-20 1.91134)
(9.36255 6.42568e-20 2.1424)
(9.27393 -3.26124e-20 2.3922)
(9.18166 6.70376e-20 2.66271)
(9.08626 -3.39744e-20 2.95617)
(8.98829 -7.02096e-20 3.27512)
(8.88845 7.14606e-20 3.62254)
(8.78756 -1.82197e-19 4.00203)
(8.68669 7.29702e-20 4.41797)
(8.5873 -7.36373e-20 4.87591)
(9.90534 4.89953e-20 0.701122)
(9.86603 -5.03787e-20 0.850649)
(9.82162 -1.3051e-20 1.00793)
(9.77217 1.3043e-20 1.17444)
(9.71802 -2.76006e-20 1.35163)
(9.65963 5.65905e-20 1.54092)
(9.5975 -5.81241e-20 1.74382)
(9.53216 2.99481e-20 1.96184)
(9.46418 9.17013e-20 2.1966)
(9.39424 -9.37481e-20 2.44983)
(9.32308 -3.17988e-20 2.72342)
(9.25158 1.63886e-19 3.01947)
(9.18079 -3.28899e-20 3.34037)
(9.11201 0 3.68885)
(9.04687 3.41184e-20 4.06814)
(8.98752 -3.47292e-20 4.48211)
(8.93693 5.2586e-20 4.93545)
(9.88698 4.91654e-20 0.873091)
(9.85015 0 1.03384)
(9.80955 -1.30407e-20 1.2037)
(9.76557 -1.32289e-20 1.3841)
(9.71878 0 1.57643)
(9.66981 -2.79503e-20 1.78211)
(9.61934 2.85538e-20 2.0026)
(9.56813 -5.5925e-22 2.23941)
(9.51704 3.02384e-20 2.49415)
(9.46711 6.10805e-20 2.76856)
(9.41955 0 3.06452)
(9.37583 -3.15083e-20 3.38414)
(9.33774 3.20989e-20 3.72975)
(9.30757 -1.60451e-20 4.10403)
(9.28827 -2.35561e-20 4.51003)
(9.28373 1.01776e-20 4.95121)
(9.87934 -6.06673e-21 1.05519)
(9.84773 -3.6976e-20 1.22752)
(9.81406 -6.36834e-21 1.41013)
(9.77901 0 1.60436)
(9.74331 2.65574e-20 1.81154)
(9.70777 1.37058e-20 2.03302)
(9.6733 -4.22725e-20 2.27019)
(9.64098 2.82578e-20 2.52448)
(9.61205 -2.94404e-20 2.79742)
(9.588 -2.9177e-20 3.09062)
(9.57061 0 3.40579)
(9.56206 -1.47503e-20 3.74479)
(9.56504 -1.90797e-20 4.10962)
(9.58295 3.48979e-20 4.50237)
(9.62007 0 4.92519)
(9.88637 5.1216e-20 1.24557)
(9.86306 2.12897e-20 1.42935)
(9.83975 -2.49169e-20 1.62431)
(9.81726 -6.42221e-20 1.83167)
(9.79652 2.60002e-20 2.05266)
(9.77856 -2.64738e-20 2.28849)
(9.76461 -3.19921e-22 2.5404)
(9.75609 -1.38758e-20 2.80964)
(9.75468 2.84618e-20 3.09752)
(9.76235 -3.52734e-21 3.40532)
(9.7815 3.26477e-20 3.73435)
(9.81501 7.09369e-21 4.0859)
(9.86638 -2.13286e-20 4.46113)
(9.93991 1.43545e-20 4.86099)
(9.90039 2.51642e-20 1.63594)
(9.8909 2.40813e-20 1.84217)
(9.88463 -5.02443e-20 2.06119)
(9.88272 2.58527e-20 2.29402)
(9.88648 -2.57053e-20 2.54169)
(9.89745 0 2.80516)
(9.91739 0 3.08538)
(9.94839 2.65034e-20 3.3832)
(9.99289 2.65908e-20 3.69941)
(10.0538 2.65556e-20 4.0346)
(10.1344 0 4.38912)
(10.2387 0 4.76293)
(9.96345 -5.90732e-21 1.84283)
(9.97115 -5.51939e-21 2.05844)
(9.98459 -1.8057e-20 2.28671)
(10.0051 2.50885e-20 2.5284)
(10.0344 -3.72684e-20 2.78421)
(10.0741 2.53108e-20 3.05471)
(10.1263 -3.86952e-20 3.34036)
(10.1935 -2.59582e-20 3.64144)
(10.2782 -5.09723e-20 3.95796)
(10.3837 -3.85539e-23 4.28961)
(10.5133 7.40579e-20 4.63557)
(10.083 5.0925e-22 2.26667)
(10.1193 -3.51346e-20 2.50082)
(10.1653 3.61978e-20 2.7473)
(10.223 2.37411e-20 3.00635)
(10.2941 2.3811e-20 3.27806)
(10.381 2.38719e-20 3.56228)
(10.4861 1.44091e-22 3.85856)
(10.612 -4.7613e-20 4.16606)
(10.7616 0 4.48345)
(10.2889 -2.24591e-20 2.69519)
(10.3625 -2.31851e-20 2.9414)
(10.4501 -2.32555e-20 3.19785)
(10.5538 0 3.46403)
(10.6757 0 3.73914)
(10.8179 6.68872e-20 4.02199)
(10.9827 -4.48392e-20 4.31094)
(10.4914 -2.14571e-20 2.86117)
(10.5931 0 3.10143)
(10.7107 0 3.34889)
(10.846 0 3.60247)
(11.0006 4.15821e-20 3.8608)
(11.1764 -1.19403e-20 4.12206)
(10.8509 2.0268e-20 3.2191)
(10.9965 -1.00313e-20 3.45128)
(11.1602 -3.93368e-20 3.68567)
(11.3433 2.13214e-20 3.92045)
(11.297 1.40292e-21 3.49952)
(11.4843 2.85248e-20 3.70932)
)
;

boundaryField
{
    inlet
    {
        type            fixedValue;
        value           uniform (10 0 0);
    }
    outlet
    {
        type            zeroGradient;
    }
    flap
    {
        type            movingWallVelocity;
        value           nonuniform 0();
    }
    upperWall
    {
        type            noSlip;
    }
    lowerWall
    {
        type            noSlip;
    }
    frontAndBack
    {
        type            empty;
    }
    procBoundary3to0
    {
        type            processor;
        value           nonuniform List<vector> 
34
(
(9.98735 -9.42391e-20 0.135986)
(9.97639 0 0.264209)
(9.97639 0 0.264209)
(9.96053 4.67925e-20 0.405953)
(9.96053 4.67925e-20 0.405953)
(9.93925 -2.9883e-21 0.557842)
(9.93925 -2.9883e-21 0.557842)
(9.91991 3.45027e-21 0.720029)
(9.91991 3.45027e-21 0.720029)
(9.90844 0 0.891798)
(9.90844 0 0.891798)
(9.90894 0 1.07171)
(9.90894 0 1.07171)
(9.92513 -2.87998e-21 1.25754)
(9.9121 -2.30484e-20 1.44143)
(9.9121 -2.30484e-20 1.44143)
(9.96032 -1.15714e-20 1.63903)
(9.96032 -1.15714e-20 1.63903)
(10.0342 -1.12849e-20 1.83357)
(10.0551 -1.17111e-20 2.04443)
(10.0551 -1.17111e-20 2.04443)
(10.1771 -2.25499e-20 2.23421)
(10.2276 -2.28204e-20 2.45945)
(10.2276 -2.28204e-20 2.45945)
(10.404 -2.23421e-20 2.62886)
(10.404 -2.23421e-20 2.62886)
(10.6088 -4.22666e-20 2.7671)
(10.7221 0 2.99064)
(10.7221 0 2.99064)
(10.9742 1.01781e-20 3.07688)
(11.1273 2.81709e-20 3.28812)
(11.1273 2.81709e-20 3.28812)
(11.4121 5.27697e-20 3.30498)
(11.6008 -7.21869e-20 3.49147)
)
;
    }
    procBoundary3to1
    {
        type            processor;
        value           nonuniform List<vector> 9((9.68194 -6.86101e-23 5.3801) (10.0408 -5.57365e-20 5.28598) (10.3714 0 5.15539) (10.6709 9.70182e-20 4.99442) (10.938 0 4.80883) (11.1725 4.17513e-20 4.60383) (11.375 1.19216e-20 4.38405) (11.5467 -4.8815e-20 4.15347) (11.6895 0 3.91549));
    }
    procBoundary3to4
    {
        type            processor;
        value           nonuniform List<vector> 
19
(
(3.62233 -1.66074e-19 0.284414)
(4.50836 -1.01547e-19 0.711874)
(4.96306 -4.50037e-19 1.1695)
(5.23258 -6.21943e-20 1.58691)
(5.41797 6.14047e-20 1.97819)
(5.56933 -4.892e-19 2.35333)
(5.7135 9.22765e-19 2.71802)
(5.86611 -4.62755e-19 3.07491)
(6.03733 3.39025e-21 3.42409)
(6.23432 -3.35292e-21 3.76341)
(6.462 -4.58081e-19 4.08875)
(6.72331 -7.39279e-19 4.39435)
(7.01896 2.85901e-19 4.67319)
(7.3468 1.81574e-19 4.91758)
(7.70152 -8.85479e-20 5.11979)
(8.08817 1.5849e-19 5.27768)
(8.49161 -7.61067e-20 5.38304)
(8.89932 1.74588e-20 5.43393)
(9.29925 2.03379e-21 5.43145)
)
;
    }
}


// ************************************************************************* //
