/*--------------------------------*- C++ -*----------------------------------*\
| =========                 |                                                 |
| \\      /  F ield         | OpenFOAM: The Open Source CFD Toolbox           |
|  \\    /   O peration     | Version:  dev                                   |
|   \\  /    A nd           | Web:      www.OpenFOAM.org                      |
|    \\/     M anipulation  |                                                 |
\*---------------------------------------------------------------------------*/
FoamFile
{
    version     2.0;
    format      ascii;
    class       volVectorField;
    location    "0.68";
    object      cellDisplacement;
}
// * * * * * * * * * * * * * * * * * * * * * * * * * * * * * * * * * * * * * //

dimensions      [0 1 0 0 0 0 0];

internalField   nonuniform List<vector> 
465
(
(0.143917 0 -0.0176955)
(0.141303 0 -0.0172323)
(0.144283 0 -0.017573)
(0.141726 0 -0.0171473)
(0.138979 0 -0.016654)
(0.136032 0 -0.0160996)
(0.144385 0 -0.0174288)
(0.141892 0 -0.0170332)
(0.139189 0 -0.0165733)
(0.136264 0 -0.0160536)
(0.133098 0 -0.015479)
(0.144243 0 -0.0172622)
(0.14182 0 -0.0168917)
(0.13917 0 -0.0164603)
(0.136279 0 -0.0159709)
(0.133131 0 -0.0154272)
(0.129699 0 -0.0148334)
(0.125952 0 -0.0141938)
(0.143875 0 -0.0170727)
(0.141528 0 -0.0167236)
(0.138934 0 -0.0163166)
(0.136085 0 -0.0158538)
(0.132965 0 -0.0153377)
(0.129549 0 -0.0147714)
(0.125806 0 -0.0141581)
(0.1217 0 -0.0135009)
(0.117189 0 -0.0128027)
(0.143297 0 -0.0168591)
(0.141026 0 -0.0165284)
(0.138495 0 -0.0161431)
(0.135693 0 -0.0157037)
(0.132608 0 -0.0152124)
(0.129215 0 -0.0146713)
(0.125487 0 -0.0140826)
(0.121387 0 -0.0134487)
(0.116876 0 -0.0127718)
(0.111904 0 -0.0120532)
(0.14253 0 -0.0166204)
(0.140326 0 -0.0163055)
(0.13786 0 -0.0159393)
(0.135113 0 -0.0155213)
(0.132067 0 -0.0150524)
(0.128705 0 -0.0145344)
(0.124999 0 -0.0139687)
(0.120915 0 -0.0133572)
(0.116413 0 -0.0127012)
(0.111448 0 -0.0120018)
(0.10597 0 -0.0112594)
(0.0999241 0 -0.0104741)
(0.141588 0 -0.0163551)
(0.139447 0 -0.0160543)
(0.13704 0 -0.0157048)
(0.134349 0 -0.0153063)
(0.131352 0 -0.0148583)
(0.128025 0 -0.0143615)
(0.124348 0 -0.0138176)
(0.120286 0 -0.0132274)
(0.115802 0 -0.0125918)
(0.110852 0 -0.0119116)
(0.105388 0 -0.0111868)
(0.0993555 0 -0.0104169)
(0.0926945 0 -0.00960009)
(0.140485 0 -0.0160617)
(0.138403 0 -0.0157738)
(0.13605 0 -0.0154395)
(0.133411 0 -0.0150582)
(0.130465 0 -0.0146295)
(0.127183 0 -0.0141533)
(0.123538 0 -0.0136297)
(0.119505 0 -0.01306)
(0.115046 0 -0.0124445)
(0.110119 0 -0.0117834)
(0.104677 0 -0.0110766)
(0.098667 0 -0.0103232)
(0.0920322 0 -0.00952149)
(0.0847089 0 -0.0086688)
(0.076629 0 -0.00776152)
(0.139233 0 -0.0157387)
(0.137205 0 -0.0154626)
(0.134904 0 -0.0151423)
(0.132315 0 -0.0147769)
(0.129415 0 -0.0143658)
(0.126181 0 -0.0139088)
(0.122579 0 -0.0134052)
(0.118579 0 -0.0128553)
(0.114151 0 -0.0122595)
(0.109253 0 -0.0116177)
(0.103839 0 -0.0109294)
(0.0978608 0 -0.0101935)
(0.0912605 0 -0.00940826)
(0.0839773 0 -0.00857085)
(0.0759448 0 -0.00767756)
(0.0670894 0 -0.00672293)
(0.137846 0 -0.0153843)
(0.135866 0 -0.0151193)
(0.133614 0 -0.014812)
(0.131072 0 -0.0144615)
(0.128217 0 -0.0140669)
(0.125027 0 -0.0136277)
(0.121473 0 -0.0131434)
(0.117517 0 -0.0126134)
(0.113123 0 -0.0120371)
(0.108259 0 -0.0114146)
(0.102881 0 -0.0107453)
(0.0969408 0 -0.010028)
(0.0903828 0 -0.00926068)
(0.0831483 0 -0.00844051)
(0.0751725 0 -0.00756374)
(0.0663853 0 -0.00662531)
(0.0567108 0 -0.00561876)
(0.0460681 0 -0.00453629)
(0.136336 0 -0.014997)
(0.1344 0 -0.0147423)
(0.132192 0 -0.0144473)
(0.129695 0 -0.0141108)
(0.126885 0 -0.0137319)
(0.123738 0 -0.0133098)
(0.120227 0 -0.0128438)
(0.11632 0 -0.0123334)
(0.111973 0 -0.0117772)
(0.107145 0 -0.011174)
(0.101809 0 -0.0105244)
(0.0959125 0 -0.00982671)
(0.0894042 0 -0.00907881)
(0.0822261 0 -0.00827789)
(0.0743159 0 -0.00742018)
(0.0656059 0 -0.00650084)
(0.0560234 0 -0.00551372)
(0.0454899 0 -0.00445126)
(0.0339211 0 -0.00330395)
(0.134717 0 -0.0145744)
(0.132819 0 -0.0143296)
(0.130652 0 -0.0140464)
(0.128196 0 -0.0137233)
(0.125429 0 -0.0133595)
(0.122326 0 -0.0129539)
(0.118859 0 -0.0125058)
(0.114999 0 -0.0120147)
(0.110698 0 -0.0114779)
(0.105919 0 -0.0108952)
(0.100629 0 -0.0102663)
(0.0947834 0 -0.00958943)
(0.088331 0 -0.00886257)
(0.0812166 0 -0.00808293)
(0.0733801 0 -0.00724685)
(0.0647563 0 -0.00634965)
(0.0552753 0 -0.00538551)
(0.0448621 0 -0.00434721)
(0.0334364 0 -0.003226)
(0.0209134 0 -0.00201148)
(0.133 0 -0.0141139)
(0.131137 0 -0.0138789)
(0.129007 0 -0.0136071)
(0.126591 0 -0.0132972)
(0.123864 0 -0.012948)
(0.120803 0 -0.0125587)
(0.117379 0 -0.0121281)
(0.113562 0 -0.0116554)
(0.109315 0 -0.0111392)
(0.104593 0 -0.0105781)
(0.0993542 0 -0.00997072)
(0.0935629 0 -0.00931588)
(0.0871718 0 -0.00861171)
(0.0801274 0 -0.00785548)
(0.0723717 0 -0.00704362)
(0.0638422 0 -0.00617169)
(0.0544718 0 -0.00523413)
(0.0441889 0 -0.0042242)
(0.0329175 0 -0.00313375)
(0.0205772 0 -0.00195316)
(0.00706734 0 -0.000669661)
(0.1312 0 -0.0136128)
(0.129369 0 -0.0133875)
(0.127273 0 -0.013127)
(0.124893 0 -0.01283)
(0.122205 0 -0.0124955)
(0.119185 0 -0.0121224)
(0.115803 0 -0.0117094)
(0.112031 0 -0.0112557)
(0.107833 0 -0.0107601)
(0.103172 0 -0.0102213)
(0.0979975 0 -0.00963725)
(0.092262 0 -0.00900548)
(0.0859364 0 -0.00832576)
(0.0789675 0 -0.00759517)
(0.071299 0 -0.00681026)
(0.0628708 0 -0.00596679)
(0.0536191 0 -0.00505954)
(0.0434756 0 -0.00408221)
(0.0323683 0 -0.00302728)
(0.020222 0 -0.00188589)
(0.0069421 0 -0.000646318)
(0.129334 0 -0.013068)
(0.127531 0 -0.0128524)
(0.125467 0 -0.0126032)
(0.12312 0 -0.0123194)
(0.120469 0 -0.0119996)
(0.117488 0 -0.0116428)
(0.114149 0 -0.0112478)
(0.110422 0 -0.0108137)
(0.106275 0 -0.0103393)
(0.101673 0 -0.00982351)
(0.096559 0 -0.00926309)
(0.0908909 0 -0.00865705)
(0.0846362 0 -0.00800395)
(0.0777476 0 -0.00730146)
(0.0701717 0 -0.00654636)
(0.061851 0 -0.00573467)
(0.0527247 0 -0.00486154)
(0.0427283 0 -0.00392114)
(0.0317938 0 -0.00290655)
(0.0198507 0 -0.0018097)
(0.00681134 0 -0.000619909)
(0.12742 0 -0.0124758)
(0.125642 0 -0.0122701)
(0.123606 0 -0.0120325)
(0.121291 0 -0.011762)
(0.118674 0 -0.0114573)
(0.11573 0 -0.0111173)
(0.112432 0 -0.0107409)
(0.108751 0 -0.010327)
(0.104653 0 -0.00987456)
(0.100103 0 -0.00938213)
(0.0950602 0 -0.00884798)
(0.0894698 0 -0.00827004)
(0.0832855 0 -0.00764536)
(0.0764804 0 -0.00697353)
(0.0690012 0 -0.00625128)
(0.0607929 0 -0.00547488)
(0.0517976 0 -0.00463984)
(0.0419542 0 -0.00374081)
(0.0311993 0 -0.0027715)
(0.019467 0 -0.00172458)
(0.00667634 0 -0.000590447)
(0.125476 0 -0.011832)
(0.123721 0 -0.0116365)
(0.12171 0 -0.011411)
(0.119424 0 -0.0111542)
(0.11684 0 -0.0108651)
(0.113932 0 -0.0105427)
(0.110674 0 -0.0101857)
(0.107037 0 -0.00979309)
(0.102988 0 -0.00936381)
(0.0984941 0 -0.00889659)
(0.0935181 0 -0.00839019)
(0.0880004 0 -0.00784112)
(0.0818976 0 -0.00724839)
(0.0751797 0 -0.00661024)
(0.0678005 0 -0.00592415)
(0.0597081 0 -0.00518675)
(0.0508476 0 -0.00439395)
(0.0411618 0 -0.00354091)
(0.0305912 0 -0.00262193)
(0.019075 0 -0.00163046)
(0.00653853 0 -0.000557919)
(0.123526 0 -0.0111315)
(0.12179 0 -0.0109469)
(0.119803 0 -0.010734)
(0.117544 0 -0.0104917)
(0.114989 0 -0.0102191)
(0.112116 0 -0.0099151)
(0.108896 0 -0.00957861)
(0.105302 0 -0.00920863)
(0.101302 0 -0.00880405)
(0.0968614 0 -0.00836369)
(0.0919441 0 -0.00788616)
(0.086508 0 -0.00736958)
(0.0804961 0 -0.00681201)
(0.073863 0 -0.00621027)
(0.0665847 0 -0.00556381)
(0.0586099 0 -0.00486936)
(0.0498864 0 -0.00412318)
(0.0403605 0 -0.00332094)
(0.0299767 0 -0.00245755)
(0.0186791 0 -0.00152719)
(0.00639949 0 -0.000522283)
(0.121593 0 -0.0103686)
(0.119875 0 -0.0101955)
(0.117909 0 -0.00999613)
(0.115674 0 -0.0097694)
(0.113148 0 -0.00951436)
(0.110306 0 -0.00923005)
(0.107123 0 -0.00891551)
(0.10357 0 -0.00856976)
(0.099617 0 -0.00819179)
(0.09523 0 -0.0077805)
(0.0903742 0 -0.00733468)
(0.0850131 0 -0.00685307)
(0.0790848 0 -0.00633228)
(0.0725459 0 -0.00577146)
(0.06537 0 -0.00516869)
(0.057513 0 -0.00452148)
(0.0489267 0 -0.00382661)
(0.0395606 0 -0.00308025)
(0.0293636 0 -0.00227793)
(0.0182844 0 -0.00141454)
(0.00626095 0 -0.000483468)
(0.119706 0 -0.0095365)
(0.118003 0 -0.00937592)
(0.116056 0 -0.0091911)
(0.113843 0 -0.00898112)
(0.111342 0 -0.00874508)
(0.108531 0 -0.00848209)
(0.105382 0 -0.0081913)
(0.101869 0 -0.00787181)
(0.0979602 0 -0.00752271)
(0.0936246 0 -0.00714302)
(0.0888271 0 -0.0067316)
(0.0835305 0 -0.00628716)
(0.0776929 0 -0.00580791)
(0.0712558 0 -0.00529224)
(0.0641763 0 -0.00473698)
(0.0564344 0 -0.00414158)
(0.0479828 0 -0.00350302)
(0.0387741 0 -0.00281794)
(0.0287609 0 -0.00208246)
(0.0178965 0 -0.00129217)
(0.00612486 0 -0.000441371)
(0.117894 0 -0.00862706)
(0.116205 0 -0.00848023)
(0.114274 0 -0.00831139)
(0.112081 0 -0.00811973)
(0.109605 0 -0.00790445)
(0.10682 0 -0.00766478)
(0.103704 0 -0.00739995)
(0.100227 0 -0.00710918)
(0.0963609 0 -0.00679169)
(0.092074 0 -0.00644661)
(0.0873328 0 -0.00607299)
(0.0821018 0 -0.00566977)
(0.0763447 0 -0.0052358)
(0.069999 0 -0.00476808)
(0.0630218 0 -0.00426603)
(0.0553922 0 -0.00372766)
(0.0470706 0 -0.00315086)
(0.0380138 0 -0.00253286)
(0.0281783 0 -0.00187036)
(0.0175216 0 -0.00115963)
(0.00599333 0 -0.000395846)
(0.116194 0 -0.00763082)
(0.114517 0 -0.00749925)
(0.1126 0 -0.00734813)
(0.110425 0 -0.00717675)
(0.107969 0 -0.00698442)
(0.10521 0 -0.00677048)
(0.102122 0 -0.0065343)
(0.0986787 0 -0.00627522)
(0.0948517 0 -0.00599258)
(0.0906101 0 -0.00568566)
(0.0859211 0 -0.00535368)
(0.08075 0 -0.00499572)
(0.0750597 0 -0.00461068)
(0.0688088 0 -0.00419703)
(0.0619378 0 -0.00375368)
(0.0544083 0 -0.00327745)
(0.0462082 0 -0.00276824)
(0.0372946 0 -0.00222356)
(0.0276269 0 -0.00164063)
(0.0171665 0 -0.00101635)
(0.00586877 0 -0.000346709)
(0.114645 0 -0.00653651)
(0.112977 0 -0.00642209)
(0.111073 0 -0.00629082)
(0.108912 0 -0.00614211)
(0.106475 0 -0.00597541)
(0.103737 0 -0.00579017)
(0.100675 0 -0.00558588)
(0.0972616 0 -0.00536203)
(0.0934696 0 -0.0051181)
(0.0892688 0 -0.00485352)
(0.0846272 0 -0.00456768)
(0.0795114 0 -0.00425988)
(0.0738862 0 -0.00392935)
(0.0677156 0 -0.00357525)
(0.0609336 0 -0.00319524)
(0.0535018 0 -0.0027877)
(0.0454146 0 -0.00235272)
(0.0366327 0 -0.00188826)
(0.0271191 0 -0.00139206)
(0.0168392 0 -0.000861613)
(0.00575386 0 -0.000293726)
(0.11329 0 -0.00533077)
(0.11163 0 -0.00523582)
(0.109736 0 -0.00512703)
(0.107588 0 -0.00500394)
(0.105166 0 -0.00486611)
(0.102446 0 -0.00471315)
(0.0994054 0 -0.00454467)
(0.0960179 0 -0.0043603)
(0.0922559 0 -0.00415964)
(0.0880902 0 -0.00394231)
(0.0834897 0 -0.00370785)
(0.078422 0 -0.00345576)
(0.0728533 0 -0.00318549)
(0.0667498 0 -0.00289645)
(0.0600452 0 -0.00258653)
(0.052701 0 -0.0022549)
(0.0447137 0 -0.00190155)
(0.0360476 0 -0.00152487)
(0.0266694 0 -0.00112318)
(0.0165488 0 -0.000694576)
(0.00565173 0 -0.000236619)
(0.112181 0 -0.00399771)
(0.110527 0 -0.00392511)
(0.108641 0 -0.00384202)
(0.106502 0 -0.00374815)
(0.104091 0 -0.00364317)
(0.101386 0 -0.00352684)
(0.0983627 0 -0.00339888)
(0.0949955 0 -0.00325906)
(0.0912575 0 -0.00310713)
(0.0871199 0 -0.00294283)
(0.0825523 0 -0.00276587)
(0.0775231 0 -0.00257592)
(0.0719994 0 -0.00237257)
(0.0659489 0 -0.00215534)
(0.0593091 0 -0.00192249)
(0.05204 0 -0.00167516)
(0.0441339 0 -0.00141161)
(0.0355621 0 -0.00113103)
(0.026295 0 -0.000832348)
(0.0163061 0 -0.000514257)
(0.00556612 0 -0.000175067)
(0.111374 0 -0.00251839)
(0.109725 0 -0.00247167)
(0.107843 0 -0.00241829)
(0.105711 0 -0.00235805)
(0.103309 0 -0.0022908)
(0.100613 0 -0.00221638)
(0.0976018 0 -0.00213466)
(0.0942489 0 -0.00204552)
(0.0905278 0 -0.00194881)
(0.0864101 0 -0.00184442)
(0.0818657 0 -0.00173218)
(0.0768631 0 -0.0016119)
(0.0713696 0 -0.00148333)
(0.0653506 0 -0.00134607)
(0.0587683 0 -0.00119947)
(0.0515641 0 -0.00104475)
(0.0437093 0 -0.000879567)
(0.0352037 0 -0.000704104)
(0.0260168 0 -0.000517689)
(0.0161244 0 -0.000319555)
(0.00550166 0 -0.000108707)
(0.110935 0 -0.000870463)
(0.109287 0 -0.000854041)
(0.107408 0 -0.000835298)
(0.10528 0 -0.000814174)
(0.102881 0 -0.000790617)
(0.100191 0 -0.000764582)
(0.0971858 0 -0.000736029)
(0.0938403 0 -0.000704923)
(0.0901281 0 -0.000671226)
(0.0860208 0 -0.000634902)
(0.0814887 0 -0.000595903)
(0.0765004 0 -0.000554172)
(0.0710235 0 -0.000509632)
(0.0650245 0 -0.000462181)
(0.0584701 0 -0.000411742)
(0.0512967 0 -0.000358287)
(0.0434728 0 -0.000301403)
(0.0350034 0 -0.000241101)
(0.0258602 0 -0.00017714)
(0.0160208 0 -0.000109264)
(0.00546453 0 -3.7148e-05)
)
;

boundaryField
{
    inlet
    {
        type            cellMotion;
        value           nonuniform 0();
    }
    outlet
    {
        type            cellMotion;
        value           uniform (0 0 0);
    }
    flap
    {
        type            cellMotion;
        value           nonuniform 0();
    }
    upperWall
    {
        type            slip;
    }
    lowerWall
    {
        type            slip;
    }
    frontAndBack
    {
        type            empty;
    }
    procBoundary2to1
    {
        type            processor;
        value           nonuniform List<vector> 
17
(
(0.138022 0 -0.0152131)
(0.136365 0 -0.0147825)
(0.134616 0 -0.014314)
(0.132788 0 -0.013805)
(0.130898 0 -0.0132521)
(0.128961 0 -0.0126517)
(0.126999 0 -0.0119993)
(0.125032 0 -0.0112897)
(0.123085 0 -0.0105172)
(0.121185 0 -0.00967448)
(0.119363 0 -0.00875341)
(0.117654 0 -0.00774419)
(0.116097 0 -0.00663525)
(0.114737 0 -0.00541282)
(0.113623 0 -0.00406056)
(0.112814 0 -0.0025589)
(0.112373 0 -0.000884727)
)
;
    }
    procBoundary2to4
    {
        type            processor;
        value           nonuniform List<vector> 
11
(
(0.146375 0 -0.0180817)
(0.146657 0 -0.0179268)
(0.14667 0 -0.0177569)
(0.146437 0 -0.0175701)
(0.14598 0 -0.0173637)
(0.145323 0 -0.017136)
(0.144483 0 -0.0168849)
(0.143475 0 -0.0166085)
(0.142312 0 -0.016305)
(0.141008 0 -0.0159724)
(0.139572 0 -0.0156088)
)
;
    }
    procBoundary2to5
    {
        type            processor;
        value           nonuniform List<vector> 
34
(
(0.143256 0 -0.0177937)
(0.140603 0 -0.0172854)
(0.138527 0 -0.0166998)
(0.138527 0 -0.0166998)
(0.135575 0 -0.0161063)
(0.132863 0 -0.0154913)
(0.132863 0 -0.0154913)
(0.129664 0 -0.0148557)
(0.129664 0 -0.0148557)
(0.125928 0 -0.0141888)
(0.121853 0 -0.0135128)
(0.121853 0 -0.0135128)
(0.117355 0 -0.0127936)
(0.112224 0 -0.0120658)
(0.112224 0 -0.0120658)
(0.106424 0 -0.0112945)
(0.106424 0 -0.0112945)
(0.100376 0 -0.0104955)
(0.0932486 0 -0.00964468)
(0.0932486 0 -0.00964468)
(0.0853418 0 -0.00873462)
(0.0853418 0 -0.00873462)
(0.0772257 0 -0.00781637)
(0.0677175 0 -0.00679436)
(0.0677175 0 -0.00679436)
(0.0573346 0 -0.00570089)
(0.0573346 0 -0.00570089)
(0.0465952 0 -0.00460279)
(0.0343692 0 -0.00336789)
(0.0343692 0 -0.00336789)
(0.0212283 0 -0.00206097)
(0.0212283 0 -0.00206097)
(0.00718605 0 -0.00068995)
(0.00718605 0 -0.00068995)
)
;
    }
}


// ************************************************************************* //
