/*--------------------------------*- C++ -*----------------------------------*\
| =========                 |                                                 |
| \\      /  F ield         | OpenFOAM: The Open Source CFD Toolbox           |
|  \\    /   O peration     | Version:  dev                                   |
|   \\  /    A nd           | Web:      www.OpenFOAM.org                      |
|    \\/     M anipulation  |                                                 |
\*---------------------------------------------------------------------------*/
FoamFile
{
    version     2.0;
    format      ascii;
    class       pointVectorField;
    location    "3.1";
    object      pointDisplacement;
}
// * * * * * * * * * * * * * * * * * * * * * * * * * * * * * * * * * * * * * //

dimensions      [0 1 0 0 0 0 0];

internalField   nonuniform List<vector> 
1030
(
(0.153855 0 -0.0203247)
(0.150327 0 -0.019646)
(0.146799 0 -0.0189229)
(0.155565 0 -0.0201298)
(0.152052 0 -0.0195287)
(0.148494 0 -0.0188726)
(0.144871 0 -0.0181707)
(0.141148 0 -0.0174302)
(0.156741 0 -0.019861)
(0.153301 0 -0.0193353)
(0.14977 0 -0.0187461)
(0.146134 0 -0.0181031)
(0.14237 0 -0.017414)
(0.13844 0 -0.0166849)
(0.157437 0 -0.0195345)
(0.154108 0 -0.0190791)
(0.150643 0 -0.018554)
(0.147037 0 -0.0179687)
(0.143269 0 -0.0173311)
(0.13931 0 -0.0166474)
(0.135122 0 -0.0159229)
(0.13066 0 -0.0151617)
(0.157711 0 -0.0191638)
(0.154513 0 -0.0187715)
(0.151142 0 -0.0183059)
(0.147594 0 -0.0177757)
(0.143852 0 -0.0171881)
(0.139895 0 -0.0165494)
(0.135687 0 -0.0158649)
(0.131189 0 -0.0151387)
(0.126351 0 -0.0143736)
(0.121119 0 -0.0135719)
(0.157612 0 -0.0187592)
(0.154557 0 -0.0184222)
(0.151295 0 -0.0180104)
(0.147825 0 -0.0175313)
(0.144133 0 -0.0169914)
(0.1402 0 -0.0163965)
(0.135996 0 -0.0157515)
(0.131484 0 -0.0150604)
(0.12662 0 -0.0143262)
(0.121353 0 -0.013551)
(0.115623 0 -0.0127352)
(0.157187 0 -0.0183288)
(0.154276 0 -0.0180389)
(0.151132 0 -0.0176746)
(0.147752 0 -0.0172419)
(0.144127 0 -0.0167465)
(0.140236 0 -0.0161933)
(0.136055 0 -0.0155869)
(0.131548 0 -0.0149307)
(0.126676 0 -0.0142276)
(0.121392 0 -0.0134797)
(0.115638 0 -0.0126876)
(0.109354 0 -0.0118509)
(0.102473 0 -0.0109685)
(0.156477 0 -0.0178778)
(0.153704 0 -0.0176273)
(0.15068 0 -0.0173041)
(0.147398 0 -0.0169128)
(0.143849 0 -0.0164581)
(0.140015 0 -0.0159441)
(0.135871 0 -0.0153745)
(0.131387 0 -0.0147525)
(0.126524 0 -0.0140806)
(0.121237 0 -0.0133604)
(0.115474 0 -0.0125929)
(0.109179 0 -0.0117779)
(0.102287 0 -0.010914)
(0.0947238 0 -0.0099981)
(0.155516 0 -0.0174095)
(0.152875 0 -0.0171914)
(0.149967 0 -0.0169031)
(0.146785 0 -0.0165483)
(0.143318 0 -0.0161303)
(0.13955 0 -0.0156524)
(0.135455 0 -0.0151176)
(0.131006 0 -0.0145286)
(0.126165 0 -0.0138874)
(0.120891 0 -0.0131955)
(0.115134 0 -0.0124534)
(0.10884 0 -0.011661)
(0.101948 0 -0.0108172)
(0.0943881 0 -0.009919)
(0.0860854 0 -0.00896256)
(0.0769619 0 -0.00794285)
(0.154335 0 -0.0169255)
(0.151816 0 -0.0167334)
(0.149019 0 -0.0164746)
(0.145936 0 -0.0161514)
(0.142554 0 -0.0157661)
(0.138856 0 -0.0153212)
(0.134819 0 -0.014819)
(0.130415 0 -0.0142615)
(0.125608 0 -0.0136503)
(0.120359 0 -0.0129865)
(0.114621 0 -0.0122705)
(0.108341 0 -0.011502)
(0.101461 0 -0.0106797)
(0.0939152 0 -0.00980109)
(0.085633 0 -0.00886265)
(0.0765375 0 -0.00785932)
(0.0665403 0 -0.00678395)
(0.152963 0 -0.016426)
(0.150554 0 -0.0162546)
(0.147861 0 -0.0160202)
(0.144872 0 -0.0157242)
(0.141575 0 -0.0153678)
(0.13795 0 -0.0149528)
(0.133976 0 -0.0144808)
(0.129624 0 -0.0139531)
(0.124861 0 -0.0133709)
(0.119648 0 -0.012735)
(0.11394 0 -0.0120454)
(0.107686 0 -0.0113018)
(0.100831 0 -0.0105027)
(0.0933111 0 -0.00964578)
(0.0850592 0 -0.00872753)
(0.0760014 0 -0.0077433)
(0.066054 0 -0.00668648)
(0.0551286 0 -0.00554895)
(0.0431335 0 -0.00432126)
(0.151423 0 -0.0159097)
(0.149114 0 -0.0157547)
(0.146515 0 -0.0155406)
(0.143616 0 -0.0152677)
(0.140401 0 -0.0149369)
(0.13685 0 -0.0145488)
(0.132942 0 -0.0141046)
(0.128647 0 -0.013605)
(0.123934 0 -0.0130507)
(0.118765 0 -0.0124422)
(0.113096 0 -0.0117794)
(0.106879 0 -0.0110614)
(0.10006 0 -0.010287)
(0.092579 0 -0.00945368)
(0.0843697 0 -0.00855819)
(0.0753608 0 -0.00759593)
(0.0654741 0 -0.00656094)
(0.0546263 0 -0.0054458)
(0.0427272 0 -0.0042414)
(0.0296743 0 -0.00293614)
(0.149737 0 -0.0153747)
(0.147517 0 -0.0152327)
(0.145006 0 -0.0150353)
(0.14219 0 -0.0147823)
(0.139053 0 -0.0144738)
(0.135575 0 -0.01411)
(0.131733 0 -0.0136914)
(0.127499 0 -0.0132182)
(0.122841 0 -0.0126909)
(0.117722 0 -0.0121093)
(0.112101 0 -0.0114732)
(0.10593 0 -0.0107817)
(0.0991569 0 -0.0100332)
(0.0917244 0 -0.00922541)
(0.0835692 0 -0.00835511)
(0.0746222 0 -0.00741797)
(0.0648088 0 -0.00640837)
(0.0540488 0 -0.00531939)
(0.0422568 0 -0.00414258)
(0.0293373 0 -0.00286747)
(0.0151763 0 -0.00148049)
(0.147929 0 -0.0148187)
(0.145787 0 -0.0146868)
(0.143354 0 -0.0145032)
(0.140614 0 -0.0142672)
(0.137551 0 -0.0139784)
(0.134143 0 -0.0136365)
(0.130367 0 -0.0132415)
(0.126195 0 -0.0127934)
(0.121596 0 -0.0122919)
(0.116532 0 -0.0117369)
(0.110965 0 -0.0111276)
(0.104847 0 -0.0104631)
(0.098129 0 -0.00974185)
(0.090755 0 -0.00896143)
(0.0826643 0 -0.00811875)
(0.0737907 0 -0.00720972)
(0.0640627 0 -0.00622909)
(0.0534034 0 -0.00517038)
(0.0417306 0 -0.0040257)
(0.0289559 0 -0.0027856)
(0.0149727 0 -0.00143779)
(0 0 0)
(0.14602 0 -0.0142385)
(0.143946 0 -0.0141145)
(0.141581 0 -0.0139423)
(0.138911 0 -0.013721)
(0.135916 0 -0.0134497)
(0.132575 0 -0.0131278)
(0.128864 0 -0.0127548)
(0.124754 0 -0.0123304)
(0.120215 0 -0.011854)
(0.115211 0 -0.011325)
(0.109702 0 -0.0107428)
(0.103644 0 -0.0101061)
(0.0969877 0 -0.0094133)
(0.0896805 0 -0.00866206)
(0.0816636 0 -0.00784941)
(0.0728736 0 -0.00697148)
(0.0632422 0 -0.00602338)
(0.0526959 0 -0.00499908)
(0.0411562 0 -0.00389132)
(0.0285394 0 -0.0026914)
(0.0147478 0 -0.00138838)
(0 0 0)
(0.14403 0 -0.0136304)
(0.142015 0 -0.0135127)
(0.139711 0 -0.0133502)
(0.137103 0 -0.0131417)
(0.134171 0 -0.0128862)
(0.130893 0 -0.0125827)
(0.127244 0 -0.0122303)
(0.123196 0 -0.0118285)
(0.118718 0 -0.0113765)
(0.113775 0 -0.0108736)
(0.108328 0 -0.0103187)
(0.102334 0 -0.0097106)
(0.0957461 0 -0.00904757)
(0.0885127 0 -0.0083274)
(0.0805777 0 -0.00754723)
(0.0718803 0 -0.00670342)
(0.0623554 0 -0.00579142)
(0.0519331 0 -0.00480572)
(0.0405391 0 -0.00373964)
(0.0280948 0 -0.00258534)
(0.01451 0 -0.00133302)
(0 0 0)
(0.141981 0 -0.0129898)
(0.140016 0 -0.0128773)
(0.137766 0 -0.0127233)
(0.135214 0 -0.0125264)
(0.132339 0 -0.0122853)
(0.129119 0 -0.011999)
(0.125529 0 -0.0116664)
(0.121541 0 -0.0112865)
(0.117124 0 -0.0108587)
(0.112243 0 -0.0103817)
(0.10686 0 -0.00985467)
(0.100934 0 -0.00927612)
(0.0944193 0 -0.00864437)
(0.0872655 0 -0.00795727)
(0.079419 0 -0.00721211)
(0.0708219 0 -0.00640551)
(0.061412 0 -0.00553328)
(0.0511232 0 -0.00459038)
(0.0398856 0 -0.00357079)
(0.0276258 0 -0.00246744)
(0.0142601 0 -0.0012716)
(0 0 0)
(0.139895 0 -0.0123118)
(0.137973 0 -0.0122039)
(0.135769 0 -0.0120575)
(0.133266 0 -0.0118713)
(0.130443 0 -0.0116439)
(0.127277 0 -0.0113741)
(0.123743 0 -0.0110606)
(0.119812 0 -0.0107025)
(0.115455 0 -0.0102986)
(0.110636 0 -0.00984808)
(0.105319 0 -0.00934959)
(0.0994637 0 -0.00880177)
(0.0930249 0 -0.00820297)
(0.0859549 0 -0.00755112)
(0.0782021 0 -0.00684367)
(0.0697113 0 -0.0060775)
(0.0604233 0 -0.0052488)
(0.0502758 0 -0.00435302)
(0.0392032 0 -0.00338474)
(0.027137 0 -0.00233768)
(0.0140004 0 -0.00120413)
(0 0 0)
(0.137796 0 -0.0115906)
(0.13591 0 -0.011487)
(0.133746 0 -0.011348)
(0.131286 0 -0.0111721)
(0.12851 0 -0.010958)
(0.125393 0 -0.0107043)
(0.121911 0 -0.0104099)
(0.118035 0 -0.0100735)
(0.113736 0 -0.0096941)
(0.108978 0 -0.00927058)
(0.103728 0 -0.00880172)
(0.0979431 0 -0.00828613)
(0.0915823 0 -0.0077222)
(0.0845989 0 -0.00710799)
(0.0769435 0 -0.00644115)
(0.0685632 0 -0.00571883)
(0.0594022 0 -0.0049376)
(0.0494016 0 -0.00409337)
(0.0385001 0 -0.00318134)
(0.0266344 0 -0.002196)
(0.0137336 0 -0.00113054)
(0 0 0)
(0.135709 0 -0.0108198)
(0.133853 0 -0.0107207)
(0.131723 0 -0.010589)
(0.129301 0 -0.0104235)
(0.126566 0 -0.0102227)
(0.123494 0 -0.00998536)
(0.12006 0 -0.0097102)
(0.116236 0 -0.00939607)
(0.111992 0 -0.00904187)
(0.107295 0 -0.00864647)
(0.102109 0 -0.00820866)
(0.0963955 0 -0.00772711)
(0.0901134 0 -0.00720031)
(0.083218 0 -0.00662645)
(0.0756617 0 -0.0060034)
(0.0673944 0 -0.00532859)
(0.0583632 0 -0.00459897)
(0.0485128 0 -0.00381094)
(0.037786 0 -0.00296028)
(0.0261244 0 -0.00204219)
(0.0134634 0 -0.00105077)
(0 0 0)
(0.133661 0 -0.00999205)
(0.13183 0 -0.0098978)
(0.129729 0 -0.0097739)
(0.12734 0 -0.00961915)
(0.124642 0 -0.0094322)
(0.12161 0 -0.00921176)
(0.11822 0 -0.00895665)
(0.114444 0 -0.00866573)
(0.110253 0 -0.00833793)
(0.105613 0 -0.00797214)
(0.10049 0 -0.00756723)
(0.0948467 0 -0.00712195)
(0.0886425 0 -0.00663491)
(0.0818346 0 -0.00610448)
(0.0743776 0 -0.00552874)
(0.0662236 0 -0.00490543)
(0.0573227 0 -0.00423188)
(0.0476231 0 -0.00350496)
(0.0370716 0 -0.00272102)
(0.0256147 0 -0.00187593)
(0.0131934 0 -0.00096466)
(0 0 0)
(0.131684 0 -0.00909879)
(0.129874 0 -0.00901019)
(0.127797 0 -0.00889486)
(0.125436 0 -0.00875173)
(0.122769 0 -0.00857953)
(0.119774 0 -0.00837706)
(0.116424 0 -0.00814322)
(0.112692 0 -0.00787695)
(0.108549 0 -0.00757724)
(0.103964 0 -0.00724307)
(0.0989011 0 -0.0068734)
(0.093325 0 -0.00646709)
(0.0871964 0 -0.00602291)
(0.080474 0 -0.00553941)
(0.0731142 0 -0.00501493)
(0.0650717 0 -0.00444752)
(0.0562991 0 -0.00383487)
(0.046748 0 -0.00317432)
(0.0363692 0 -0.00246277)
(0.0251136 0 -0.00169673)
(0.0129281 0 -0.000871972)
(0 0 0)
(0.129812 0 -0.00813033)
(0.128018 0 -0.00804844)
(0.125961 0 -0.00794283)
(0.123624 0 -0.00781255)
(0.120985 0 -0.00765647)
(0.118021 0 -0.00747352)
(0.114706 0 -0.0072627)
(0.111014 0 -0.00702306)
(0.106916 0 -0.00675369)
(0.102381 0 -0.00645369)
(0.0973748 0 -0.00612214)
(0.091862 0 -0.00575806)
(0.0858051 0 -0.00536038)
(0.0791642 0 -0.00492786)
(0.0718976 0 -0.00445911)
(0.0639619 0 -0.00395247)
(0.0553127 0 -0.00340602)
(0.0459046 0 -0.00281754)
(0.0356921 0 -0.00218447)
(0.0246306 0 -0.00150391)
(0.0126724 0 -0.000772381)
(0 0 0)
(0.128083 0 -0.00707536)
(0.126302 0 -0.00700157)
(0.124262 0 -0.00690719)
(0.121944 0 -0.00679145)
(0.119328 0 -0.00665335)
(0.116391 0 -0.00649198)
(0.113107 0 -0.00630648)
(0.109451 0 -0.00609603)
(0.105393 0 -0.00585987)
(0.100902 0 -0.00559723)
(0.0959474 0 -0.00530734)
(0.0904928 0 -0.00498938)
(0.084502 0 -0.00464248)
(0.0779366 0 -0.00426562)
(0.0707566 0 -0.00385766)
(0.0629206 0 -0.00341727)
(0.0543867 0 -0.00294289)
(0.0451124 0 -0.00243273)
(0.0350558 0 -0.00188473)
(0.0241764 0 -0.00129657)
(0.0124318 0 -0.000665448)
(0 0 0)
(0.126541 0 -0.00592073)
(0.124769 0 -0.00585674)
(0.122742 0 -0.00577552)
(0.12044 0 -0.00567645)
(0.117843 0 -0.00555873)
(0.114928 0 -0.00542159)
(0.111671 0 -0.00526434)
(0.108044 0 -0.00508634)
(0.104021 0 -0.00488695)
(0.09957 0 -0.00466558)
(0.0946598 0 -0.00442162)
(0.0892565 0 -0.00415442)
(0.0833244 0 -0.00386332)
(0.0768264 0 -0.00354753)
(0.0697238 0 -0.00320618)
(0.0619774 0 -0.00283822)
(0.0535472 0 -0.00244247)
(0.0443935 0 -0.00201754)
(0.0344776 0 -0.00156183)
(0.0237632 0 -0.00107358)
(0.0122127 0 -0.00055062)
(0 0 0)
(0.125233 0 -0.00465096)
(0.123469 0 -0.00459886)
(0.121451 0 -0.00453319)
(0.119162 0 -0.00445348)
(0.11658 0 -0.00435912)
(0.113683 0 -0.00424953)
(0.110446 0 -0.00412421)
(0.106844 0 -0.00398265)
(0.102849 0 -0.00382442)
(0.0984306 0 -0.00364908)
(0.0935578 0 -0.00345618)
(0.0881974 0 -0.00324528)
(0.0823147 0 -0.00301589)
(0.0758735 0 -0.00276746)
(0.0688365 0 -0.00249937)
(0.0611661 0 -0.00221087)
(0.0528241 0 -0.00190112)
(0.0437732 0 -0.0015691)
(0.0339779 0 -0.00121369)
(0.0234052 0 -0.000833576)
(0.0120224 0 -0.000427222)
(0 0 0)
(0.124217 0 -0.00324779)
(0.122458 0 -0.00321012)
(0.120447 0 -0.00316291)
(0.118166 0 -0.00310586)
(0.115594 0 -0.00303857)
(0.11271 0 -0.00296065)
(0.109489 0 -0.00287176)
(0.105905 0 -0.0027716)
(0.101931 0 -0.00265988)
(0.0975376 0 -0.00253632)
(0.0926933 0 -0.00240066)
(0.0873658 0 -0.00225262)
(0.0815209 0 -0.0020919)
(0.0751235 0 -0.00191816)
(0.0681373 0 -0.00173101)
(0.0605257 0 -0.00152999)
(0.0522523 0 -0.00131456)
(0.0432817 0 -0.00108408)
(0.0335806 0 -0.000837817)
(0.0231193 0 -0.000574942)
(0.0118698 0 -0.000294455)
(0 0 0)
(0.123555 0 -0.00168961)
(0.121799 0 -0.00166944)
(0.119791 0 -0.00164427)
(0.117516 0 -0.00161396)
(0.114951 0 -0.0015783)
(0.112075 0 -0.00153711)
(0.108863 0 -0.00149023)
(0.105291 0 -0.00143751)
(0.10133 0 -0.0013788)
(0.0969517 0 -0.001314)
(0.0921255 0 -0.00124297)
(0.0868189 0 -0.0011656)
(0.0809984 0 -0.00108174)
(0.0746292 0 -0.000991236)
(0.0676757 0 -0.000893913)
(0.0601021 0 -0.000789552)
(0.0518731 0 -0.000677893)
(0.0429546 0 -0.000558632)
(0.0333149 0 -0.000431414)
(0.022927 0 -0.000295837)
(0.0117664 0 -0.000151417)
(0 0 0)
(0.123321 0 0)
(0.121566 0 0)
(0.119559 0 0)
(0.117285 0 0)
(0.114723 0 0)
(0.111849 0 0)
(0.108641 0 0)
(0.105072 0 0)
(0.101116 0 0)
(0.0967435 0 0)
(0.0919236 0 0)
(0.0866244 0 0)
(0.0808124 0 0)
(0.0744531 0 0)
(0.0675112 0 0)
(0.0599511 0 0)
(0.0517378 0 0)
(0.0428377 0 0)
(0.03322 0 0)
(0.0228584 0 0)
(0.0117303 0 0)
(0 0 0)
(0.153855 0 -0.0203247)
(0.150327 0 -0.019646)
(0.146799 0 -0.0189229)
(0.155565 0 -0.0201298)
(0.152052 0 -0.0195287)
(0.148494 0 -0.0188726)
(0.144871 0 -0.0181707)
(0.141148 0 -0.0174302)
(0.156741 0 -0.019861)
(0.153301 0 -0.0193353)
(0.14977 0 -0.0187461)
(0.146134 0 -0.0181031)
(0.14237 0 -0.017414)
(0.13844 0 -0.0166849)
(0.157437 0 -0.0195345)
(0.154108 0 -0.0190791)
(0.150643 0 -0.018554)
(0.147037 0 -0.0179687)
(0.143269 0 -0.0173311)
(0.13931 0 -0.0166474)
(0.135122 0 -0.0159229)
(0.13066 0 -0.0151617)
(0.157711 0 -0.0191638)
(0.154513 0 -0.0187715)
(0.151142 0 -0.0183059)
(0.147594 0 -0.0177757)
(0.143852 0 -0.0171881)
(0.139895 0 -0.0165494)
(0.135687 0 -0.0158649)
(0.131189 0 -0.0151387)
(0.126351 0 -0.0143736)
(0.121119 0 -0.0135719)
(0.157612 0 -0.0187592)
(0.154557 0 -0.0184222)
(0.151295 0 -0.0180104)
(0.147825 0 -0.0175313)
(0.144133 0 -0.0169914)
(0.1402 0 -0.0163965)
(0.135996 0 -0.0157515)
(0.131484 0 -0.0150604)
(0.12662 0 -0.0143262)
(0.121353 0 -0.013551)
(0.115623 0 -0.0127352)
(0.157187 0 -0.0183288)
(0.154276 0 -0.0180389)
(0.151132 0 -0.0176746)
(0.147752 0 -0.0172419)
(0.144127 0 -0.0167465)
(0.140236 0 -0.0161933)
(0.136055 0 -0.0155869)
(0.131548 0 -0.0149307)
(0.126676 0 -0.0142276)
(0.121392 0 -0.0134797)
(0.115638 0 -0.0126876)
(0.109354 0 -0.0118509)
(0.102473 0 -0.0109685)
(0.156477 0 -0.0178778)
(0.153704 0 -0.0176273)
(0.15068 0 -0.0173041)
(0.147398 0 -0.0169128)
(0.143849 0 -0.0164581)
(0.140015 0 -0.0159441)
(0.135871 0 -0.0153745)
(0.131387 0 -0.0147525)
(0.126524 0 -0.0140806)
(0.121237 0 -0.0133604)
(0.115474 0 -0.0125929)
(0.109179 0 -0.0117779)
(0.102287 0 -0.010914)
(0.0947238 0 -0.0099981)
(0.155516 0 -0.0174095)
(0.152875 0 -0.0171914)
(0.149967 0 -0.0169031)
(0.146785 0 -0.0165483)
(0.143318 0 -0.0161303)
(0.13955 0 -0.0156524)
(0.135455 0 -0.0151176)
(0.131006 0 -0.0145286)
(0.126165 0 -0.0138874)
(0.120891 0 -0.0131955)
(0.115134 0 -0.0124534)
(0.10884 0 -0.011661)
(0.101948 0 -0.0108172)
(0.0943881 0 -0.009919)
(0.0860854 0 -0.00896256)
(0.0769619 0 -0.00794285)
(0.154335 0 -0.0169255)
(0.151816 0 -0.0167334)
(0.149019 0 -0.0164746)
(0.145936 0 -0.0161514)
(0.142554 0 -0.0157661)
(0.138856 0 -0.0153212)
(0.134819 0 -0.014819)
(0.130415 0 -0.0142615)
(0.125608 0 -0.0136503)
(0.120359 0 -0.0129865)
(0.114621 0 -0.0122705)
(0.108341 0 -0.011502)
(0.101461 0 -0.0106797)
(0.0939152 0 -0.00980109)
(0.085633 0 -0.00886265)
(0.0765375 0 -0.00785932)
(0.0665403 0 -0.00678395)
(0.152963 0 -0.016426)
(0.150554 0 -0.0162546)
(0.147861 0 -0.0160202)
(0.144872 0 -0.0157242)
(0.141575 0 -0.0153678)
(0.13795 0 -0.0149528)
(0.133976 0 -0.0144808)
(0.129624 0 -0.0139531)
(0.124861 0 -0.0133709)
(0.119648 0 -0.012735)
(0.11394 0 -0.0120454)
(0.107686 0 -0.0113018)
(0.100831 0 -0.0105027)
(0.0933111 0 -0.00964578)
(0.0850592 0 -0.00872753)
(0.0760014 0 -0.0077433)
(0.066054 0 -0.00668648)
(0.0551286 0 -0.00554895)
(0.0431335 0 -0.00432126)
(0.151423 0 -0.0159097)
(0.149114 0 -0.0157547)
(0.146515 0 -0.0155406)
(0.143616 0 -0.0152677)
(0.140401 0 -0.0149369)
(0.13685 0 -0.0145488)
(0.132942 0 -0.0141046)
(0.128647 0 -0.013605)
(0.123934 0 -0.0130507)
(0.118765 0 -0.0124422)
(0.113096 0 -0.0117794)
(0.106879 0 -0.0110614)
(0.10006 0 -0.010287)
(0.092579 0 -0.00945368)
(0.0843697 0 -0.00855819)
(0.0753608 0 -0.00759593)
(0.0654741 0 -0.00656094)
(0.0546263 0 -0.0054458)
(0.0427272 0 -0.0042414)
(0.0296743 0 -0.00293614)
(0.149737 0 -0.0153747)
(0.147517 0 -0.0152327)
(0.145006 0 -0.0150353)
(0.14219 0 -0.0147823)
(0.139053 0 -0.0144738)
(0.135575 0 -0.01411)
(0.131733 0 -0.0136914)
(0.127499 0 -0.0132182)
(0.122841 0 -0.0126909)
(0.117722 0 -0.0121093)
(0.112101 0 -0.0114732)
(0.10593 0 -0.0107817)
(0.0991569 0 -0.0100332)
(0.0917244 0 -0.00922541)
(0.0835692 0 -0.00835511)
(0.0746222 0 -0.00741797)
(0.0648088 0 -0.00640837)
(0.0540488 0 -0.00531939)
(0.0422568 0 -0.00414258)
(0.0293373 0 -0.00286747)
(0.0151763 0 -0.00148049)
(0.147929 0 -0.0148187)
(0.145787 0 -0.0146868)
(0.143354 0 -0.0145032)
(0.140614 0 -0.0142672)
(0.137551 0 -0.0139784)
(0.134143 0 -0.0136365)
(0.130367 0 -0.0132415)
(0.126195 0 -0.0127934)
(0.121596 0 -0.0122919)
(0.116532 0 -0.0117369)
(0.110965 0 -0.0111276)
(0.104847 0 -0.0104631)
(0.098129 0 -0.00974185)
(0.090755 0 -0.00896143)
(0.0826643 0 -0.00811875)
(0.0737907 0 -0.00720972)
(0.0640627 0 -0.00622909)
(0.0534034 0 -0.00517038)
(0.0417306 0 -0.0040257)
(0.0289559 0 -0.0027856)
(0.0149727 0 -0.00143779)
(0 0 0)
(0.14602 0 -0.0142385)
(0.143946 0 -0.0141145)
(0.141581 0 -0.0139423)
(0.138911 0 -0.013721)
(0.135916 0 -0.0134497)
(0.132575 0 -0.0131278)
(0.128864 0 -0.0127548)
(0.124754 0 -0.0123304)
(0.120215 0 -0.011854)
(0.115211 0 -0.011325)
(0.109702 0 -0.0107428)
(0.103644 0 -0.0101061)
(0.0969877 0 -0.0094133)
(0.0896805 0 -0.00866206)
(0.0816636 0 -0.00784941)
(0.0728736 0 -0.00697148)
(0.0632422 0 -0.00602338)
(0.0526959 0 -0.00499908)
(0.0411562 0 -0.00389132)
(0.0285394 0 -0.0026914)
(0.0147478 0 -0.00138838)
(0 0 0)
(0.14403 0 -0.0136304)
(0.142015 0 -0.0135127)
(0.139711 0 -0.0133502)
(0.137103 0 -0.0131417)
(0.134171 0 -0.0128862)
(0.130893 0 -0.0125827)
(0.127244 0 -0.0122303)
(0.123196 0 -0.0118285)
(0.118718 0 -0.0113765)
(0.113775 0 -0.0108736)
(0.108328 0 -0.0103187)
(0.102334 0 -0.0097106)
(0.0957461 0 -0.00904757)
(0.0885127 0 -0.0083274)
(0.0805777 0 -0.00754723)
(0.0718803 0 -0.00670342)
(0.0623554 0 -0.00579142)
(0.0519331 0 -0.00480572)
(0.0405391 0 -0.00373964)
(0.0280948 0 -0.00258534)
(0.01451 0 -0.00133302)
(0 0 0)
(0.141981 0 -0.0129898)
(0.140016 0 -0.0128773)
(0.137766 0 -0.0127233)
(0.135214 0 -0.0125264)
(0.132339 0 -0.0122853)
(0.129119 0 -0.011999)
(0.125529 0 -0.0116664)
(0.121541 0 -0.0112865)
(0.117124 0 -0.0108587)
(0.112243 0 -0.0103817)
(0.10686 0 -0.00985467)
(0.100934 0 -0.00927612)
(0.0944193 0 -0.00864437)
(0.0872655 0 -0.00795727)
(0.079419 0 -0.00721211)
(0.0708219 0 -0.00640551)
(0.061412 0 -0.00553328)
(0.0511232 0 -0.00459038)
(0.0398856 0 -0.00357079)
(0.0276258 0 -0.00246744)
(0.0142601 0 -0.0012716)
(0 0 0)
(0.139895 0 -0.0123118)
(0.137973 0 -0.0122039)
(0.135769 0 -0.0120575)
(0.133266 0 -0.0118713)
(0.130443 0 -0.0116439)
(0.127277 0 -0.0113741)
(0.123743 0 -0.0110606)
(0.119812 0 -0.0107025)
(0.115455 0 -0.0102986)
(0.110636 0 -0.00984808)
(0.105319 0 -0.00934959)
(0.0994637 0 -0.00880177)
(0.0930249 0 -0.00820297)
(0.0859549 0 -0.00755112)
(0.0782021 0 -0.00684367)
(0.0697113 0 -0.0060775)
(0.0604233 0 -0.0052488)
(0.0502758 0 -0.00435302)
(0.0392032 0 -0.00338474)
(0.027137 0 -0.00233768)
(0.0140004 0 -0.00120413)
(0 0 0)
(0.137796 0 -0.0115906)
(0.13591 0 -0.011487)
(0.133746 0 -0.011348)
(0.131286 0 -0.0111721)
(0.12851 0 -0.010958)
(0.125393 0 -0.0107043)
(0.121911 0 -0.0104099)
(0.118035 0 -0.0100735)
(0.113736 0 -0.0096941)
(0.108978 0 -0.00927058)
(0.103728 0 -0.00880172)
(0.0979431 0 -0.00828613)
(0.0915823 0 -0.0077222)
(0.0845989 0 -0.00710799)
(0.0769435 0 -0.00644115)
(0.0685632 0 -0.00571883)
(0.0594022 0 -0.0049376)
(0.0494016 0 -0.00409337)
(0.0385001 0 -0.00318134)
(0.0266344 0 -0.002196)
(0.0137336 0 -0.00113054)
(0 0 0)
(0.135709 0 -0.0108198)
(0.133853 0 -0.0107207)
(0.131723 0 -0.010589)
(0.129301 0 -0.0104235)
(0.126566 0 -0.0102227)
(0.123494 0 -0.00998536)
(0.12006 0 -0.0097102)
(0.116236 0 -0.00939607)
(0.111992 0 -0.00904187)
(0.107295 0 -0.00864647)
(0.102109 0 -0.00820866)
(0.0963955 0 -0.00772711)
(0.0901134 0 -0.00720031)
(0.083218 0 -0.00662645)
(0.0756617 0 -0.0060034)
(0.0673944 0 -0.00532859)
(0.0583632 0 -0.00459897)
(0.0485128 0 -0.00381094)
(0.037786 0 -0.00296028)
(0.0261244 0 -0.00204219)
(0.0134634 0 -0.00105077)
(0 0 0)
(0.133661 0 -0.00999205)
(0.13183 0 -0.0098978)
(0.129729 0 -0.0097739)
(0.12734 0 -0.00961915)
(0.124642 0 -0.0094322)
(0.12161 0 -0.00921176)
(0.11822 0 -0.00895665)
(0.114444 0 -0.00866573)
(0.110253 0 -0.00833793)
(0.105613 0 -0.00797214)
(0.10049 0 -0.00756723)
(0.0948467 0 -0.00712195)
(0.0886425 0 -0.00663491)
(0.0818346 0 -0.00610448)
(0.0743776 0 -0.00552874)
(0.0662236 0 -0.00490543)
(0.0573227 0 -0.00423188)
(0.0476231 0 -0.00350496)
(0.0370716 0 -0.00272102)
(0.0256147 0 -0.00187593)
(0.0131934 0 -0.00096466)
(0 0 0)
(0.131684 0 -0.00909879)
(0.129874 0 -0.00901019)
(0.127797 0 -0.00889486)
(0.125436 0 -0.00875173)
(0.122769 0 -0.00857953)
(0.119774 0 -0.00837706)
(0.116424 0 -0.00814322)
(0.112692 0 -0.00787695)
(0.108549 0 -0.00757724)
(0.103964 0 -0.00724307)
(0.0989011 0 -0.0068734)
(0.093325 0 -0.00646709)
(0.0871964 0 -0.00602291)
(0.080474 0 -0.00553941)
(0.0731142 0 -0.00501493)
(0.0650717 0 -0.00444752)
(0.0562991 0 -0.00383487)
(0.046748 0 -0.00317432)
(0.0363692 0 -0.00246277)
(0.0251136 0 -0.00169673)
(0.0129281 0 -0.000871972)
(0 0 0)
(0.129812 0 -0.00813033)
(0.128018 0 -0.00804844)
(0.125961 0 -0.00794283)
(0.123624 0 -0.00781255)
(0.120985 0 -0.00765647)
(0.118021 0 -0.00747352)
(0.114706 0 -0.0072627)
(0.111014 0 -0.00702306)
(0.106916 0 -0.00675369)
(0.102381 0 -0.00645369)
(0.0973748 0 -0.00612214)
(0.091862 0 -0.00575806)
(0.0858051 0 -0.00536038)
(0.0791642 0 -0.00492786)
(0.0718976 0 -0.00445911)
(0.0639619 0 -0.00395247)
(0.0553127 0 -0.00340602)
(0.0459046 0 -0.00281754)
(0.0356921 0 -0.00218447)
(0.0246306 0 -0.00150391)
(0.0126724 0 -0.000772381)
(0 0 0)
(0.128083 0 -0.00707536)
(0.126302 0 -0.00700157)
(0.124262 0 -0.00690719)
(0.121944 0 -0.00679145)
(0.119328 0 -0.00665335)
(0.116391 0 -0.00649198)
(0.113107 0 -0.00630648)
(0.109451 0 -0.00609603)
(0.105393 0 -0.00585987)
(0.100902 0 -0.00559723)
(0.0959474 0 -0.00530734)
(0.0904928 0 -0.00498938)
(0.084502 0 -0.00464248)
(0.0779366 0 -0.00426562)
(0.0707566 0 -0.00385766)
(0.0629206 0 -0.00341727)
(0.0543867 0 -0.00294289)
(0.0451124 0 -0.00243273)
(0.0350558 0 -0.00188473)
(0.0241764 0 -0.00129657)
(0.0124318 0 -0.000665448)
(0 0 0)
(0.126541 0 -0.00592073)
(0.124769 0 -0.00585674)
(0.122742 0 -0.00577552)
(0.12044 0 -0.00567645)
(0.117843 0 -0.00555873)
(0.114928 0 -0.00542159)
(0.111671 0 -0.00526434)
(0.108044 0 -0.00508634)
(0.104021 0 -0.00488695)
(0.09957 0 -0.00466558)
(0.0946598 0 -0.00442162)
(0.0892565 0 -0.00415442)
(0.0833244 0 -0.00386332)
(0.0768264 0 -0.00354753)
(0.0697238 0 -0.00320618)
(0.0619774 0 -0.00283822)
(0.0535472 0 -0.00244247)
(0.0443935 0 -0.00201754)
(0.0344776 0 -0.00156183)
(0.0237632 0 -0.00107358)
(0.0122127 0 -0.00055062)
(0 0 0)
(0.125233 0 -0.00465096)
(0.123469 0 -0.00459886)
(0.121451 0 -0.00453319)
(0.119162 0 -0.00445348)
(0.11658 0 -0.00435912)
(0.113683 0 -0.00424953)
(0.110446 0 -0.00412421)
(0.106844 0 -0.00398265)
(0.102849 0 -0.00382442)
(0.0984306 0 -0.00364908)
(0.0935578 0 -0.00345618)
(0.0881974 0 -0.00324528)
(0.0823147 0 -0.00301589)
(0.0758735 0 -0.00276746)
(0.0688365 0 -0.00249937)
(0.0611661 0 -0.00221087)
(0.0528241 0 -0.00190112)
(0.0437732 0 -0.0015691)
(0.0339779 0 -0.00121369)
(0.0234052 0 -0.000833576)
(0.0120224 0 -0.000427222)
(0 0 0)
(0.124217 0 -0.00324779)
(0.122458 0 -0.00321012)
(0.120447 0 -0.00316291)
(0.118166 0 -0.00310586)
(0.115594 0 -0.00303857)
(0.11271 0 -0.00296065)
(0.109489 0 -0.00287176)
(0.105905 0 -0.0027716)
(0.101931 0 -0.00265988)
(0.0975376 0 -0.00253632)
(0.0926933 0 -0.00240066)
(0.0873658 0 -0.00225262)
(0.0815209 0 -0.0020919)
(0.0751235 0 -0.00191816)
(0.0681373 0 -0.00173101)
(0.0605257 0 -0.00152999)
(0.0522523 0 -0.00131456)
(0.0432817 0 -0.00108408)
(0.0335806 0 -0.000837817)
(0.0231193 0 -0.000574942)
(0.0118698 0 -0.000294455)
(0 0 0)
(0.123555 0 -0.00168961)
(0.121799 0 -0.00166944)
(0.119791 0 -0.00164427)
(0.117516 0 -0.00161396)
(0.114951 0 -0.0015783)
(0.112075 0 -0.00153711)
(0.108863 0 -0.00149023)
(0.105291 0 -0.00143751)
(0.10133 0 -0.0013788)
(0.0969517 0 -0.001314)
(0.0921255 0 -0.00124297)
(0.0868189 0 -0.0011656)
(0.0809984 0 -0.00108174)
(0.0746292 0 -0.000991236)
(0.0676757 0 -0.000893913)
(0.0601021 0 -0.000789552)
(0.0518731 0 -0.000677893)
(0.0429546 0 -0.000558632)
(0.0333149 0 -0.000431414)
(0.022927 0 -0.000295837)
(0.0117664 0 -0.000151417)
(0 0 0)
(0.123321 0 0)
(0.121566 0 0)
(0.119559 0 0)
(0.117285 0 0)
(0.114723 0 0)
(0.111849 0 0)
(0.108641 0 0)
(0.105072 0 0)
(0.101116 0 0)
(0.0967435 0 0)
(0.0919236 0 0)
(0.0866244 0 0)
(0.0808124 0 0)
(0.0744531 0 0)
(0.0675112 0 0)
(0.0599511 0 0)
(0.0517378 0 0)
(0.0428377 0 0)
(0.03322 0 0)
(0.0228584 0 0)
(0.0117303 0 0)
(0 0 0)
)
;

boundaryField
{
    inlet
    {
        type            fixedValue;
        value           nonuniform 0();
    }
    outlet
    {
        type            fixedValue;
        value           uniform (0 0 0);
    }
    flap
    {
        type            fixedValue;
        value           nonuniform 0();
    }
    upperWall
    {
        type            slip;
    }
    lowerWall
    {
        type            slip;
    }
    frontAndBack
    {
        type            empty;
    }
    procBoundary2to1
    {
        type            processor;
    }
    procBoundary2to4
    {
        type            processor;
    }
    procBoundary2to5
    {
        type            processor;
    }
}


// ************************************************************************* //
