/*--------------------------------*- C++ -*----------------------------------*\
| =========                 |                                                 |
| \\      /  F ield         | OpenFOAM: The Open Source CFD Toolbox           |
|  \\    /   O peration     | Version:  dev                                   |
|   \\  /    A nd           | Web:      www.OpenFOAM.org                      |
|    \\/     M anipulation  |                                                 |
\*---------------------------------------------------------------------------*/
FoamFile
{
    version     2.0;
    format      ascii;
    class       volVectorField;
    location    "4.63";
    object      Force;
}
// * * * * * * * * * * * * * * * * * * * * * * * * * * * * * * * * * * * * * //

dimensions      [1 1 -2 0 0 0 0];

internalField   uniform (0 0 0);

boundaryField
{
    inlet
    {
        type            calculated;
        value           uniform (0 0 0);
    }
    outlet
    {
        type            calculated;
        value           uniform (0 0 0);
    }
    flap
    {
        type            calculated;
        value           nonuniform List<vector> 
33
(
(3.67026 1.87835e-17 -0.207344)
(3.61653 1.35784e-17 -0.430469)
(3.55444 -4.7155e-18 -0.62127)
(3.48504 1.7468e-17 -0.749395)
(3.40999 5.60909e-22 -0.829058)
(3.32981 -2.67061e-22 -0.869744)
(3.24605 -4.34411e-21 -0.879108)
(3.16093 4.16626e-21 -0.863361)
(3.07148 5.57567e-23 -0.828514)
(2.97195 -1.85801e-24 -0.780703)
(2.85301 1.60254e-17 -0.725215)
(2.69887 -1.83671e-39 -0.665028)
(2.48493 1.57958e-17 -0.598315)
(2.16557 6.03034e-18 -0.513388)
(1.63491 2.35099e-38 -0.385894)
(0.165698 -5.87747e-39 0.677282)
(0.104168 -1.83832e-21 0.438425)
(0.0407871 2.41328e-19 0.174364)
(-0.0803714 1.07804e-25 0.00453104)
(-0.0801561 -5.74516e-20 0.00950743)
(-0.079177 -3.23024e-25 0.0137243)
(-0.0775408 1.10146e-19 0.0164475)
(-0.0753993 3.07631e-23 0.0180201)
(-0.0730171 1.5844e-17 0.0186839)
(-0.0706765 1.9915e-19 0.0186834)
(-0.0685762 -7.34684e-40 0.0182301)
(-0.0668204 1.66331e-17 0.017505)
(-0.0653454 -1.65357e-17 0.0166531)
(-0.0640789 -5.50797e-23 0.0158228)
(-0.0627212 1.67824e-17 0.0150831)
(-0.0601782 -7.34684e-40 0.0142521)
(-0.0532019 1.47621e-19 0.012596)
(-0.0347453 -1.86661e-17 0.0083382)
)
;
    }
    upperWall
    {
        type            calculated;
        value           uniform (0 0 0);
    }
    lowerWall
    {
        type            calculated;
        value           uniform (0 0 0);
    }
    frontAndBack
    {
        type            empty;
    }
}


// ************************************************************************* //
