/*--------------------------------*- C++ -*----------------------------------*\
| =========                 |                                                 |
| \\      /  F ield         | OpenFOAM: The Open Source CFD Toolbox           |
|  \\    /   O peration     | Version:  dev                                   |
|   \\  /    A nd           | Web:      www.OpenFOAM.org                      |
|    \\/     M anipulation  |                                                 |
\*---------------------------------------------------------------------------*/
FoamFile
{
    version     2.0;
    format      ascii;
    class       volVectorField;
    location    "0.51";
    object      Force;
}
// * * * * * * * * * * * * * * * * * * * * * * * * * * * * * * * * * * * * * //

dimensions      [1 1 -2 0 0 0 0];

internalField   uniform (0 0 0);

boundaryField
{
    inlet
    {
        type            calculated;
        value           uniform (0 0 0);
    }
    outlet
    {
        type            calculated;
        value           uniform (0 0 0);
    }
    flap
    {
        type            calculated;
        value           nonuniform List<vector> 
33
(
(2.81444 9.18827e-19 -0.106315)
(2.7909 -1.184e-22 -0.215973)
(2.76618 -2.6543e-24 -0.305925)
(2.73795 1.68933e-17 -0.360325)
(2.70435 -1.29491e-17 -0.385767)
(2.66404 5.21916e-23 -0.387578)
(2.6166 1.62294e-17 -0.372153)
(2.56133 1.71391e-21 -0.345287)
(2.49442 1.60722e-17 -0.312136)
(2.41018 -1.60672e-17 -0.277854)
(2.29881 -1.57078e-18 -0.246125)
(2.14531 -1.61256e-17 -0.217537)
(1.92473 1.05674e-23 -0.188968)
(1.58521 1.59325e-17 -0.152244)
(0.987958 -1.48138e-17 -0.0920558)
(0.115995 8.67027e-18 1.11884)
(0.0895425 8.04444e-18 0.903667)
(0.0649054 1.61627e-22 0.643231)
(0.527128 -1.83671e-40 -0.0198435)
(0.528429 -2.94534e-23 -0.0408516)
(0.533417 1.54396e-17 -0.0586038)
(0.548183 1.57772e-17 -0.0713219)
(0.576022 -1.48858e-24 -0.0809664)
(0.617654 1.54428e-17 -0.088323)
(0.670958 -9.16059e-23 -0.0935876)
(0.731024 0 -0.0965544)
(0.791395 -1.07166e-18 -0.0970298)
(0.844843 -3.49151e-22 -0.0954921)
(0.885476 -1.65501e-17 -0.0931564)
(0.910031 1.65099e-17 -0.0910668)
(0.917962 7.34684e-40 -0.0896086)
(0.910952 -3.21824e-22 -0.0881977)
(0.892158 1.78431e-17 -0.0871034)
)
;
    }
    upperWall
    {
        type            calculated;
        value           uniform (0 0 0);
    }
    lowerWall
    {
        type            calculated;
        value           uniform (0 0 0);
    }
    frontAndBack
    {
        type            empty;
    }
}


// ************************************************************************* //
