/*--------------------------------*- C++ -*----------------------------------*\
| =========                 |                                                 |
| \\      /  F ield         | OpenFOAM: The Open Source CFD Toolbox           |
|  \\    /   O peration     | Version:  dev                                   |
|   \\  /    A nd           | Web:      www.OpenFOAM.org                      |
|    \\/     M anipulation  |                                                 |
\*---------------------------------------------------------------------------*/
FoamFile
{
    version     2.0;
    format      ascii;
    class       volScalarField;
    location    "0.51";
    object      p;
}
// * * * * * * * * * * * * * * * * * * * * * * * * * * * * * * * * * * * * * //

dimensions      [0 2 -2 0 0 0 0];

internalField   nonuniform List<scalar> 
2790
(
95.3959
95.2696
95.4874
96.05
96.847
97.8197
98.9589
100.267
101.74
103.374
105.16
107.092
109.163
111.359
113.667
116.069
118.539
121.048
123.559
126.026
128.398
130.621
132.636
134.389
135.835
136.947
137.726
138.206
138.468
138.618
95.2123
95.1831
95.4234
95.9839
96.7776
97.7473
98.8822
100.184
101.651
103.276
105.054
106.976
109.036
111.222
113.52
115.913
118.375
120.879
123.388
125.858
128.241
130.48
132.519
134.301
135.781
136.928
137.74
138.263
138.6
138.884
95.0231
95.0648
95.3233
95.874
96.6553
97.6127
98.7333
100.018
101.464
103.066
104.818
106.711
108.738
110.889
113.149
115.502
117.924
120.389
122.863
125.305
127.669
129.905
131.96
133.781
135.327
136.573
137.524
138.223
138.741
139.177
94.8121
94.8876
95.1579
95.6993
96.4662
97.4077
98.5094
99.7709
101.19
102.761
104.476
106.329
108.31
110.411
112.616
114.91
117.272
119.676
122.091
124.482
126.808
129.024
131.084
132.945
134.572
135.945
137.067
137.962
138.646
139.183
94.5696
94.6609
94.9394
95.473
96.2236
97.145
98.2221
99.4539
100.838
102.368
104.037
105.838
107.761
109.797
111.933
114.152
116.436
118.761
121.1
123.422
125.692
127.874
129.929
131.823
133.528
135.026
136.308
137.368
138.173
138.757
94.2913
94.3893
94.6706
95.1943
95.9255
96.8217
97.8687
99.0644
100.406
101.888
103.501
105.24
107.094
109.054
111.107
113.238
115.429
117.659
119.904
122.139
124.335
126.463
128.495
130.404
132.168
133.768
135.183
136.382
137.294
137.941
93.9754
94.075
94.3538
94.8649
95.5737
96.4408
97.4524
98.6063
99.8991
101.324
102.874
104.541
106.315
108.188
110.145
112.173
114.256
116.375
118.509
120.637
122.737
124.788
126.767
128.66
130.449
132.118
133.641
134.965
136.007
136.802
93.6214
93.7194
93.9915
94.4868
95.1704
96.0044
96.976
98.0824
99.3198
100.682
102.159
103.745
105.43
107.203
109.052
110.964
112.923
114.913
116.916
118.915
120.891
122.83
124.72
126.551
128.318
130.012
131.609
133.057
134.266
135.334
93.2297
93.324
93.5859
94.0623
94.7178
95.5151
96.4421
97.4959
98.672
99.9633
101.361
102.857
104.442
106.106
107.835
109.616
111.436
113.278
115.126
116.967
118.785
120.571
122.319
124.028
125.705
127.355
128.976
130.53
131.938
133.421
92.8012
92.8902
93.1393
93.594
94.2185
94.9757
95.854
96.8503
97.9596
99.1743
100.485
101.884
103.36
104.903
106.499
108.136
109.799
111.472
113.141
114.791
116.41
117.991
119.53
121.035
122.524
124.024
125.567
127.164
128.761
130.797
92.3372
92.4198
92.6537
93.0843
93.675
94.389
95.215
96.1495
97.187
98.3194
99.5373
100.831
102.19
103.602
105.054
106.532
108.021
109.505
110.966
112.391
113.764
115.078
116.327
117.523
118.688
119.871
121.152
122.624
124.298
126.994
91.8396
91.9147
92.1316
92.5357
93.0903
93.7584
94.5287
95.3976
96.3589
97.404
98.5229
99.7049
100.939
102.212
103.509
104.816
106.114
107.387
108.614
109.776
110.856
111.835
112.703
113.46
114.124
114.748
115.447
116.43
117.842
121.189
91.31
91.3769
91.5753
91.951
92.4673
93.0871
93.7989
94.5988
95.4802
96.4337
97.4486
98.5135
99.6158
100.741
101.875
102.998
104.092
105.135
106.102
106.969
107.708
108.288
108.679
108.857
108.807
108.547
108.172
107.965
108.257
111.852
90.7506
90.8088
90.9874
91.333
91.8093
92.3787
93.0295
93.7577
94.5561
95.4145
96.3215
97.2646
98.2301
99.2024
100.164
101.095
101.972
102.77
103.458
104.002
104.36
104.485
104.316
103.783
102.803
101.285
99.1648
96.5609
93.7143
95.6905
90.1635
90.2125
90.3703
90.6846
91.1193
91.6365
92.2246
92.8789
93.5918
94.3524
95.1485
95.9664
96.7912
97.6058
98.3903
99.122
99.7747
100.317
100.712
100.915
100.869
100.502
99.7176
98.3848
96.3135
93.2199
88.6544
81.9672
71.571
63.2015
-28.4163
-28.7914
-29.7558
-31.5953
-34.4315
-38.2987
-43.1726
-48.9853
-55.6288
-62.9563
-70.7806
-78.8707
-86.9491
-94.693
-101.738
-107.693
-112.154
-114.733
-115.067
-112.838
-107.8
-99.8601
-89.0775
-75.6214
-59.7346
-41.698
-21.9663
-2.0204
13.814
17.835
-28.2964
-28.7757
-29.8269
-31.7449
-34.6493
-38.578
-43.5106
-49.3818
-56.0856
-63.4769
-71.3696
-79.5324
-87.6871
-95.5087
-102.63
-108.656
-113.18
-115.815
-116.201
-114.023
-109.044
-101.19
-90.5533
-77.326
-61.7888
-44.306
-25.4761
-6.75856
8.14837
11.319
-28.3241
-29.123
-30.4843
-32.6593
-35.7562
-39.8232
-44.8527
-50.7913
-57.5445
-64.9765
-72.9081
-81.1132
-89.3166
-97.1938
-104.376
-110.461
-115.039
-117.718
-118.138
-115.976
-111.012
-103.207
-92.6798
-79.6543
-64.4485
-47.5115
-29.5816
-12.0938
1.95418
6.26031
-28.8783
-30.0738
-31.7846
-34.2535
-37.5685
-41.7877
-46.9191
-52.926
-59.7288
-67.204
-75.1819
-83.4429
-91.7152
-99.6743
-106.947
-113.125
-117.79
-120.543
-121.018
-118.886
-113.948
-106.204
-95.8115
-83.0186
-68.1702
-51.7617
-34.5875
-17.9825
-4.2381
2.31554
-30.289
-31.8246
-33.7844
-36.4784
-39.9657
-44.3072
-49.5211
-55.5836
-62.4276
-69.9415
-77.9649
-86.2848
-94.6327
-102.684
-110.061
-116.347
-121.111
-123.945
-124.474
-122.363
-117.436
-109.742
-99.4768
-86.9108
-72.4023
-56.4579
-39.855
-23.764
-9.82686
-0.763953
-32.7381
-34.4326
-36.4669
-39.2624
-42.8327
-47.2371
-52.496
-58.5924
-65.4682
-73.0201
-81.0956
-89.4874
-97.9296
-106.096
-113.605
-120.025
-124.911
-127.838
-128.417
-126.304
-121.356
-113.682
-103.513
-91.1359
-76.9034
-61.3012
-45.0411
-29.1057
-14.6119
-3.18684
-36.1827
-37.747
-39.6605
-42.425
-45.9812
-50.3841
-55.6486
-61.7582
-68.658
-76.2496
-84.385
-92.8604
-101.411
-109.71
-117.367
-123.941
-128.963
-131.986
-132.604
-130.465
-125.463
-117.777
-107.672
-95.4409
-81.413
-66.0263
-49.8988
-33.8361
-18.5756
-5.09642
-40.293
-41.4075
-43.0509
-45.6854
-49.1568
-53.5142
-58.7598
-64.8724
-71.7957
-79.4324
-87.6367
-96.2069
-104.879
-113.324
-121.144
-127.887
-133.059
-136.182
-136.824
-134.63
-129.536
-121.802
-111.729
-99.6008
-85.7096
-70.4277
-54.2684
-37.8899
-21.7789
-6.59251
-44.4691
-44.906
-46.2401
-48.7114
-52.0756
-56.379
-61.606
-67.7279
-74.684
-82.3758
-90.6585
-99.3317
-108.132
-116.729
-124.722
-131.644
-136.977
-140.198
-140.851
-138.575
-133.356
-125.544
-115.475
-103.416
-89.6071
-74.3507
-58.056
-41.2683
-24.3161
-7.75149
-47.9615
-47.7046
-48.8276
-51.1785
-54.4675
-58.7469
-63.9816
-70.1352
-77.1421
-84.9012
-93.2696
-102.049
-110.977
-119.724
-127.886
-134.988
-140.488
-143.811
-144.464
-142.088
-136.722
-128.815
-118.734
-106.723
-92.9616
-77.6886
-61.2177
-44.0118
-26.2997
-8.63949
-50.1139
-49.3916
-50.4976
-52.8296
-56.1205
-60.4356
-65.7233
-71.9419
-79.0214
-86.8576
-95.3135
-104.192
-113.234
-122.115
-130.431
-137.703
-143.368
-146.794
-147.442
-144.968
-139.456
-131.457
-121.368
-109.41
-95.6913
-80.3958
-63.7554
-46.1696
-27.8289
-9.31158
-50.6506
-49.8002
-51.0881
-53.5295
-56.9219
-61.3439
-66.7354
-73.05
-80.2159
-88.1348
-96.6697
-105.626
-114.753
-123.732
-132.164
-139.571
-145.379
-148.914
-149.561
-147.019
-141.413
-133.356
-123.279
-111.4
-97.7775
-82.4827
-65.7016
-47.7847
-28.9316
-9.78736
-49.7063
-49.0418
-50.6281
-53.2795
-56.8647
-61.4632
-67.0084
-73.448
-80.7118
-88.7069
-97.2936
-106.287
-115.446
-124.46
-132.941
-140.417
-146.317
-149.955
-150.635
-148.074
-142.462
-134.427
-124.424
-112.659
-99.1593
-83.9022
-67.0279
-48.8627
-29.6238
-10.0885
-47.7332
-47.4324
-49.3217
-52.2203
-56.0559
-60.8836
-66.6201
-73.2026
-80.5624
-88.6098
-97.2111
-106.191
-115.318
-124.292
-132.737
-140.194
-146.108
-149.783
-150.488
-147.958
-142.45
-134.561
-124.733
-113.144
-99.78
-84.5973
-67.6972
-49.3986
-29.9498
-10.2643
-45.3397
-45.4037
-47.4721
-50.5693
-54.6834
-59.7735
-65.7137
-72.4326
-79.8666
-87.9311
-96.5016
-105.411
-114.438
-123.294
-131.613
-138.949
-144.753
-148.343
-149.023
-146.583
-141.304
-133.703
-124.165
-112.829
-99.6571
-84.5975
-67.7471
-49.4359
-29.9526
-10.3403
89.5392
89.5787
89.7146
89.9959
90.3869
90.8499
91.3726
91.9502
92.5743
93.2336
93.9147
94.6031
95.2825
95.9338
96.5353
97.0613
97.4816
97.7598
97.8516
97.7011
97.2366
96.3619
94.9435
92.7855
89.5822
84.8189
77.5177
65.6111
41.3842
-23.7091
88.8705
88.8999
89.0127
89.2591
89.6044
90.0105
90.4649
90.9624
91.4942
92.0482
92.6101
93.1644
93.6933
94.1762
94.5891
94.9037
95.0859
95.0947
94.879
94.3737
93.4942
92.1259
90.108
87.2032
83.0416
77.0075
67.9854
54.1913
33.8547
5.01409
88.1622
88.1811
88.2699
88.4802
88.7779
89.1251
89.5091
89.9242
90.3611
90.807
91.247
91.6645
92.0404
92.3525
92.5751
92.6772
92.622
92.3643
91.8482
91.0027
89.7357
87.9246
85.4019
81.9329
77.1836
70.6898
61.8506
50.1415
36.2286
20.5198
87.4155
87.4237
87.4877
87.6607
87.9096
88.1965
88.5084
88.8394
89.1798
89.5162
89.8329
90.1125
90.3348
90.4766
90.5103
90.4033
90.1167
89.6031
88.804
87.6464
86.0377
83.8587
80.9553
77.129
72.1317
65.6791
57.4925
47.317
35.1518
20.585
86.632
86.6293
86.668
86.8029
87.002
87.2275
87.4664
87.7124
87.9556
88.182
88.3755
88.5179
88.5883
88.5626
88.4123
88.1039
87.5975
86.8451
85.7885
84.3567
82.4623
79.9976
76.8316
72.8079
67.7472
61.457
53.7462
44.3965
33.2635
20.5463
85.8135
85.7997
85.8128
85.9091
86.058
86.2217
86.3872
86.5481
86.6942
86.8114
86.883
86.8906
86.8128
86.6251
86.2988
85.8002
85.0898
84.121
82.838
81.1748
79.0531
76.3804
73.0499
68.9413
63.9245
57.8664
50.647
42.1733
32.4518
21.879
84.9625
84.9376
84.925
84.9825
85.081
85.183
85.2755
85.3519
85.4021
85.4119
85.3645
85.2413
85.021
84.6791
84.1873
83.5129
82.6179
81.4581
79.9825
78.1321
75.8391
73.0275
69.6133
65.5075
60.6212
54.8736
48.209
40.6149
32.1361
23.0785
84.0817
84.0459
84.0076
84.0266
84.0749
84.1158
84.1362
84.1298
84.0863
83.9916
83.8293
83.5809
83.2255
82.7392
82.0949
81.2613
80.203
78.8797
77.246
75.2509
72.8381
69.9472
66.5151
62.4792
57.783
52.3833
46.2598
39.4256
31.9207
23.9881
83.1745
83.1277
83.0643
83.0451
83.0441
83.0251
82.9751
82.8879
82.7538
82.5588
82.287
81.9203
81.4388
80.8195
80.037
79.0624
77.8634
76.4043
74.6459
72.5456
70.0583
67.1376
63.7381
59.8181
55.3441
50.2958
44.6715
38.4946
31.8051
24.8088
82.2445
82.1871
82.0989
82.0425
81.9933
81.916
81.7979
81.6331
81.4123
81.1221
80.7471
80.2704
79.6728
78.9331
78.0279
76.931
75.614
74.046
72.1941
70.0238
67.5003
64.5892
61.2594
57.4847
53.2475
48.5421
43.3779
37.7833
31.7977
25.5909
81.2957
81.228
81.116
81.0234
80.9277
80.7943
80.611
80.3723
80.0694
79.6899
79.2191
78.6412
77.9385
77.0918
76.0798
74.8795
73.4664
71.8147
69.8974
67.6877
65.1593
62.2882
59.0542
55.4426
51.4466
47.0698
42.3275
37.249
31.8707
26.3302
80.3328
80.2553
80.1203
79.9931
79.8528
79.666
79.4207
79.1124
78.7329
78.2706
77.712
77.0425
76.2463
75.306
74.203
72.9176
71.4292
69.7166
67.7586
65.5349
63.0268
60.2184
57.0976
53.6581
49.9005
45.8335
41.4752
36.8535
32.0007
27.0292
79.3606
79.2738
79.1171
78.9569
78.7744
78.5371
78.2339
77.8607
77.4103
76.8722
76.2342
75.4832
74.605
73.5846
72.4061
71.0528
69.5079
67.7548
65.7772
63.5605
61.092
58.3622
55.3654
52.1008
48.5735
44.7953
40.7848
36.5679
32.1731
27.6922
78.3845
78.2889
78.1118
77.9207
77.6985
77.4141
77.0572
76.6242
76.1092
75.5027
74.794
73.9714
73.0227
71.9353
70.6956
69.2903
67.7059
65.9298
63.9501
61.7569
59.3425
56.7022
53.8346
50.7428
47.4348
43.9237
40.2277
36.3701
32.376
28.3205
77.4102
77.3065
77.1104
76.8904
76.6315
76.3036
75.8973
75.4101
74.8368
74.1694
73.3985
72.5142
71.5062
70.3639
69.0765
67.6334
66.0244
64.2401
62.2726
60.1157
57.7655
55.221
52.4839
49.5598
46.4582
43.1925
39.78
36.2415
32.599
28.9141
76.4435
76.3324
76.119
75.8724
75.5796
75.2121
74.7612
74.2251
73.6001
72.8792
72.0546
71.1181
70.0613
68.8755
67.5525
66.0841
64.463
62.6828
60.7386
58.6274
56.3481
53.9022
51.2938
48.5299
45.6207
42.5795
39.4221
36.1671
32.8337
29.4725
75.4909
75.373
75.1438
74.8731
74.5497
74.1464
73.6554
73.0761
72.4057
71.6386
70.7685
69.7887
68.6926
67.4737
66.1257
64.6428
63.0201
61.2538
59.3414
57.2822
55.0774
52.7305
50.2468
47.6342
44.903
42.0659
39.1376
36.1343
33.0729
29.9949
74.5589
74.435
74.1917
73.8992
73.5482
73.113
72.5867
71.9695
71.2599
70.4536
69.5456
68.5307
67.4042
66.1612
64.7974
63.3091
61.6933
59.9484
58.0737
56.0705
53.9418
51.6919
49.3272
46.8559
44.2883
41.6361
38.9128
36.1327
33.3106
30.4807
73.6543
73.5251
73.2693
72.9574
72.582
72.1187
71.5615
70.9118
70.1688
69.3298
68.3908
67.3485
66.1992
64.9401
63.5683
62.0819
60.4796
58.7615
56.9285
54.9833
52.9298
50.7735
48.5209
46.1806
43.7621
41.2767
38.7363
36.1537
33.542
30.9293
72.7842
72.6504
72.3836
72.0547
71.6578
71.1701
70.5864
69.909
69.1382
68.2723
67.3088
66.2455
65.0804
63.8117
62.4383
60.9595
59.3758
57.6882
55.899
54.0118
52.0315
49.9639
47.8159
45.5956
43.3124
40.9765
38.5987
36.1905
33.7632
31.3402
71.9558
71.818
71.5418
71.1981
70.7825
70.2739
69.6677
68.9671
68.1735
67.2861
66.3038
65.2253
64.0499
62.7772
61.4071
59.9404
58.3784
56.7234
54.9786
53.1482
51.2377
49.2531
47.2013
45.0903
42.9288
40.7261
38.4922
36.2372
33.9712
31.7133
71.1767
71.0355
70.7512
70.3946
69.9631
69.4366
68.8117
68.0921
67.2801
66.376
65.3795
64.2907
63.1098
61.8373
60.4744
59.0227
57.4845
55.8629
54.1617
52.3856
50.5405
48.6325
46.6684
44.6557
42.6028
40.5181
38.4107
36.2896
34.1637
32.0491
70.4545
70.3104
70.0192
69.6515
69.2064
68.665
68.0246
67.2896
66.4631
65.5464
64.5399
63.4447
62.2618
60.9928
59.6397
58.2047
56.6911
55.1024
53.4429
51.7178
49.9329
48.0945
46.2092
44.2841
42.327
40.3458
38.3487
36.3437
34.3389
32.3476
69.7973
69.6506
69.3534
68.9761
68.5193
67.9656
67.3127
66.5655
65.728
64.8019
63.7888
62.6903
61.5084
60.2451
58.9033
57.4858
55.9964
54.4391
52.8186
51.1402
49.4099
47.6337
45.8182
43.97
42.0965
40.205
38.303
36.3977
34.4965
32.6104
69.2134
69.0643
68.7614
68.3757
67.909
67.3451
66.6821
65.9254
65.0795
64.1469
63.1296
62.0301
60.8508
59.5946
58.2646
56.8643
55.3979
53.8696
52.2844
50.6478
48.9656
47.244
45.489
43.7072
41.9054
40.0904
38.269
36.448
34.634
32.8361
68.7116
68.5599
68.2512
67.8575
67.3826
66.8106
66.1399
65.3761
64.5242
63.5873
62.5681
61.4692
60.2938
59.0451
57.7267
56.3426
54.897
53.3946
51.8405
50.2401
48.5994
46.9243
45.2207
43.4948
41.7531
40.002
38.2478
36.4967
34.7548
33.03
68.3017
68.1462
67.8303
67.4286
66.9462
66.3672
65.6902
64.9209
64.0646
63.1249
62.1049
61.0075
59.8363
58.5949
57.2872
55.9173
54.4898
53.0095
51.4815
49.9113
48.3048
46.6678
45.0061
43.3255
41.6322
39.9323
38.2318
36.5364
34.8516
33.1841
67.9955
67.8322
67.5073
67.0991
66.6117
66.028
65.3463
64.573
63.7138
62.7725
61.7523
60.6568
59.4895
58.2544
56.9556
55.5975
54.1847
52.7221
51.2148
49.6685
48.0889
46.4816
44.8524
43.2069
41.551
39.8905
38.2312
36.5785
34.9378
33.3149
67.8099
67.6197
67.2772
66.8631
66.3729
65.7864
65.1019
64.3266
63.4661
62.5246
61.5053
60.4117
59.2479
58.0178
56.7258
55.3762
53.9739
52.5237
51.0309
49.501
47.9397
46.3526
44.7453
43.1233
41.4924
39.8582
38.2261
36.6015
34.9895
33.3949
67.7853
67.5427
67.1756
66.754
66.26
65.6698
64.9823
64.2049
63.3434
62.4016
61.3829
60.291
59.1297
57.9032
56.6158
55.272
53.8766
52.4344
50.9507
49.4309
47.8807
46.3058
44.7114
43.1031
41.4865
39.8671
38.2502
36.6411
35.0446
33.4652
-109.874
-92.0616
-66.1916
-12.4145
-16.1801
-20.9229
5.14089
-4.85176
-13.1419
5.3751
-4.09318
-11.051
8.56943
0.827884
-5.42253
12.0736
5.40283
-0.33647
14.5538
8.67154
3.54526
16.5004
11.3286
6.8205
18.2173
13.6595
9.69582
19.753
15.713
12.2136
21.1298
17.5311
14.4278
22.3758
19.1568
16.3922
23.5114
20.6209
18.1468
24.5503
21.9453
19.7217
25.502
23.1464
21.1398
26.3739
24.2367
22.4186
27.1712
25.2255
23.5714
27.898
26.1203
24.6091
28.5577
26.9272
25.5403
29.1532
27.6514
26.3726
29.6872
28.2975
27.1123
30.1625
28.87
27.7655
30.5809
29.372
28.3367
30.9462
29.8087
28.832
31.2577
30.18
29.2526
31.523
30.4947
29.6072
31.7328
30.7437
29.8888
31.9079
30.9486
30.1169
32.0159
31.0775
30.2632
32.1099
31.1881
30.3825
-42.7936
-43.4651
-45.4965
-48.6144
-53.001
-58.3539
-64.4739
-71.2905
-78.7503
-86.7757
-95.2513
-104.019
-112.865
-121.512
-129.605
-136.708
-142.286
-145.7
-146.345
-144.058
-139.112
-131.916
-122.763
-111.746
-98.8146
-83.9286
-67.2081
-49.0086
-29.6671
-10.3352
-31.0502
-37.9332
-41.9763
-46.2796
-51.274
-56.8916
-63.1119
-69.9379
-77.3371
-85.2379
-93.531
-102.065
-110.635
-118.972
-126.736
-133.505
-138.775
-141.976
-142.599
-140.525
-135.983
-129.26
-120.546
-109.885
-97.2265
-82.564
-66.0612
-48.1111
-29.0972
-10.2599
-25.1169
-34.5039
-39.4918
-44.2237
-49.6447
-55.5432
-61.8338
-68.5807
-75.8105
-83.4779
-91.4845
-99.685
-107.881
-115.815
-123.161
-129.525
-134.445
-137.428
-138.056
-136.228
-132.105
-125.856
-117.577
-107.268
-94.8929
-80.4996
-64.309
-46.7542
-28.2566
-10.1205
-20.6176
-30.3294
-36.9246
-42.6218
-48.3701
-54.3388
-60.6099
-67.2493
-74.2692
-81.6354
-89.2704
-97.0465
-104.78
-112.229
-119.088
-124.996
-129.544
-132.318
-132.974
-131.394
-127.648
-121.81
-113.899
-103.894
-91.7993
-77.7256
-61.9549
-44.9525
-27.1622
-9.92437
-14.3518
-24.267
-32.4799
-39.6655
-46.3106
-52.7081
-59.1092
-65.6955
-72.5393
-79.6274
-86.8934
-94.2252
-101.461
-108.383
-114.718
-120.144
-124.311
-126.884
-127.562
-126.175
-122.698
-117.138
-109.482
-99.7217
-87.9124
-74.2327
-59.0125
-42.7317
-25.8377
-9.67712
-8.39102
-17.8538
-26.8486
-35.1165
-42.679
-49.7572
-56.5889
-63.3606
-70.1848
-77.099
-84.0745
-91.0248
-97.8103
-104.24
-110.075
-115.037
-118.832
-121.192
-121.825
-120.496
-117.123
-111.691
-104.195
-94.659
-83.1938
-70.0282
-55.5178
-40.1359
-24.3157
-9.38072
-3.40267
-11.9428
-20.9243
-29.6102
-37.6929
-45.2861
-52.5613
-59.6419
-66.6088
-73.5029
-80.3181
-86.9963
-93.4262
-99.4464
-104.851
-109.4
-112.84
-114.938
-115.396
-113.96
-110.565
-105.199
-97.8687
-88.6358
-77.6506
-65.1685
-51.5471
-37.2346
-22.6388
-9.032
0.868365
-6.66578
-15.1608
-23.7289
-31.8868
-39.6581
-47.1524
-54.4303
-61.5219
-68.4397
-75.1701
-81.662
-87.8212
-93.51
-98.5503
-102.731
-105.821
-107.587
-107.761
-106.158
-102.75
-97.5216
-90.4836
-81.7198
-71.4022
-59.7911
-47.2281
-34.125
-20.8589
-8.62406
4.55691
-2.04841
-9.82882
-17.9259
-25.7997
-33.4164
-40.8401
-48.0857
-55.1402
-61.984
-68.5837
-74.8809
-80.7849
-86.1702
-90.8767
-94.7135
-97.4637
-98.8851
-98.7878
-97.0961
-93.7958
-88.8522
-82.2774
-74.1664
-64.6948
-54.1118
-42.7312
-30.9233
-19.0321
-8.15099
7.73339
1.94001
-5.05762
-12.4989
-19.8568
-27.0686
-34.1706
-41.1511
-47.9693
-54.5798
-60.931
-66.9539
-72.5557
-77.6165
-81.9885
-85.4973
-87.9435
-89.099
-88.8523
-87.2112
-84.1536
-79.6338
-73.6664
-66.3471
-57.8421
-48.3787
-38.2374
-27.7453
-17.2127
-7.6136
10.4878
5.38809
-0.853846
-7.5841
-14.3173
-20.9805
-27.5958
-34.1397
-40.5575
-46.7892
-52.771
-58.427
-63.6629
-68.364
-72.3943
-75.5979
-77.8004
-78.8095
-78.5602
-77.0897
-74.3731
-70.3682
-65.0922
-58.6336
-51.1414
-42.8161
-33.9033
-24.688
-15.4463
-7.02279
12.9019
8.39038
2.8337
-3.20767
-9.29682
-15.3602
-21.4129
-27.4286
-33.3487
-39.1082
-44.6386
-49.8624
-54.6878
-59.008
-62.7008
-65.6309
-67.6531
-68.6174
-68.4735
-67.2489
-64.9253
-61.4729
-56.9102
-51.315
-44.8163
-37.5873
-29.8397
-21.8185
-13.7664
-6.3983
15.0358
11.0236
6.07043
0.659804
-4.81743
-10.2908
-15.7723
-21.2364
-26.6269
-31.8795
-36.927
-41.6949
-46.098
-50.0399
-53.4137
-56.1052
-57.9971
-58.9759
-58.9906
-58.0443
-56.1256
-53.2191
-49.3446
-44.5681
-38.9994
-32.7857
-26.1075
-19.1737
-12.1947
-5.76406
16.9338
13.3469
8.91877
4.06962
-0.850941
-5.77686
-10.7183
-15.6526
-20.5281
-25.2844
-29.8591
-34.1837
-38.1817
-41.7684
-44.8522
-47.3382
-49.1322
-50.148
-50.3311
-49.6621
-48.1321
-45.7371
-42.4973
-38.4687
-33.7432
-28.445
-22.7269
-16.7658
-10.7424
-5.14268
18.6286
15.4055
11.4321
7.07602
2.65036
-1.78347
-6.23458
-10.6836
-15.084
-19.3813
-23.5185
-27.4348
-31.0628
-34.3293
-37.1567
-39.4662
-41.1816
-42.2353
-42.5725
-42.1593
-40.9857
-39.0535
-36.3829
-33.0214
-29.0454
-24.5592
-19.6914
-14.5912
-9.41303
-4.55161
20.1454
17.234
13.654
9.72805
5.73714
1.73805
-2.27766
-6.29377
-10.2692
-14.1552
-17.9012
-21.4535
-24.7536
-27.7386
-30.3428
-32.5006
-34.1491
-35.2334
-35.7016
-35.5138
-34.6571
-33.1348
-30.9663
-28.1914
-24.8739
-21.1008
-16.9803
-12.638
-8.20523
-4.00188
21.5035
18.8596
15.6196
12.0676
8.45614
4.83747
1.20369
-2.4319
-6.03339
-9.55761
-12.96
-16.1935
-19.2076
-21.9483
-24.3599
-26.3869
-27.9768
-29.0832
-29.6594
-29.6653
-29.0849
-27.921
-26.1907
-23.9276
-21.1847
-18.0346
-14.568
-10.8907
-7.11463
-3.49882
22.7182
20.3041
17.3577
14.1301
10.8483
7.56059
4.25939
0.955432
-2.32007
-5.52912
-8.63258
-11.5896
-14.3563
-16.8863
-19.1319
-21.0461
-22.5839
-23.7056
-24.3703
-24.5405
-24.1984
-23.345
-21.9948
-20.1759
-17.9321
-15.3242
-12.4283
-9.33345
-6.13517
-3.04371
23.8022
21.5854
18.8922
15.9452
12.949
9.94792
6.93484
3.91823
0.925174
-2.011
-4.85599
-7.57423
-10.1278
-12.4765
-14.5795
-16.3961
-17.8878
-19.02
-19.7574
-20.0662
-19.928
-19.3419
-18.3198
-16.8847
-15.0731
-12.9358
-10.5366
-7.95074
-5.26003
-2.63542
24.7661
22.7184
20.2432
17.5384
14.7886
12.0349
9.27029
6.50149
3.75194
1.05089
-1.5716
-4.08454
-6.45497
-8.64812
-10.6285
-12.361
-13.8121
-14.9514
-15.7487
-16.1741
-16.2095
-15.8525
-15.1122
-14.0075
-12.5689
-10.8385
-8.87041
-6.72822
-4.48216
-2.27165
25.619
23.7161
21.4279
18.9313
16.3935
13.8522
11.3009
8.74477
6.20413
3.70473
1.27292
-1.06421
-3.27793
-5.33792
-7.21326
-8.87331
-10.2888
-11.433
-12.2797
-12.803
-12.9856
-12.8238
-12.3244
-11.503
-10.3848
-9.00519
-7.40978
-5.65281
-3.79474
-1.94969
26.3692
24.5896
22.4614
20.1429
17.7864
15.4267
13.0575
10.6829
8.32055
5.99313
3.72389
1.53658
-0.543613
-2.49012
-4.27581
-5.87377
-7.25824
-8.40558
-9.29313
-9.89834
-10.205
-10.2086
-9.91414
-9.33425
-8.48998
-7.4112
-6.13653
-4.71239
-3.19114
-1.66666
27.0231
25.3482
23.3558
21.1889
18.9864
16.7808
14.5661
12.3454
10.1341
7.9523
5.82071
3.76022
1.79306
-0.057342
-1.76698
-3.31209
-4.66982
-5.81912
-6.74031
-7.4137
-7.82423
-7.9671
-7.84567
-7.47033
-6.8587
-6.0361
-5.03552
-3.89694
-2.66594
-1.42022
27.5879
26.001
24.123
22.0838
20.0111
17.9351
15.8502
13.7587
11.6742
9.61466
7.59855
5.64447
3.77214
2.00245
0.356753
-1.14373
-2.47859
-3.62894
-4.57755
-5.30719
-5.80396
-6.06292
-6.08634
-5.88271
-5.46691
-4.86059
-4.09218
-3.19639
-2.21318
-1.20748
28.0669
26.553
24.7701
22.837
20.8722
18.9037
16.9264
14.942
12.9624
11.0041
9.0836
7.21757
5.42375
3.7209
2.12824
0.664875
-0.650757
-1.80153
-2.77233
-3.54782
-4.11522
-4.4697
-4.61272
-4.55126
-4.29804
-3.87178
-3.29725
-2.6049
-1.83009
-1.0275
28.4685
27.0138
25.3085
23.462
21.5848
19.7038
17.814
15.9165
14.0222
12.146
10.303
8.50841
6.77829
5.12971
3.58017
2.14709
0.84729
-0.303588
-1.29174
-2.10365
-2.72789
-3.15962
-3.39966
-3.45386
-3.33326
-3.05428
-2.63881
-2.11392
-1.51121
-0.87744
28.7884
27.3805
25.7361
23.9578
22.1498
20.3376
18.5166
16.6875
14.8602
13.0485
11.2665
9.52805
7.84802
6.24216
4.72663
3.31753
2.03042
0.879804
-0.121471
-0.961322
-1.62959
-2.12149
-2.43738
-2.58229
-2.56601
-2.40327
-2.11378
-1.72199
-1.25653
-0.757768
29.0428
27.6692
26.0704
24.3431
22.5866
20.8256
19.0557
17.2773
15.4997
13.7359
11.999
10.3021
8.65909
7.08479
5.59437
4.20297
2.92524
1.77488
0.763877
-0.0968552
-0.79823
-1.33559
-1.70887
-1.92239
-1.98506
-1.9104
-1.71658
-1.42619
-1.06571
-0.670242
29.2096
27.8576
26.289
24.5963
22.8747
21.1481
19.4124
17.6681
15.9238
14.1922
12.4856
10.8167
9.19881
7.64594
6.17269
4.79357
3.52271
2.37359
1.35805
0.485853
-0.235337
-0.801182
-1.2114
-1.4699
-1.58498
-1.5694
-1.44039
-1.21955
-0.932651
-0.613301
29.3306
27.9811
26.427
24.753
23.0492
21.3396
19.6206
17.8926
16.1644
14.448
12.7557
11.1
9.49361
7.95055
6.48498
5.11099
3.84212
2.69076
1.66832
0.785605
0.0507354
-0.532421
-0.963806
-1.24725
-1.39079
-1.4068
-1.31207
-1.1278
-0.879589
-0.599794
)
;

boundaryField
{
    inlet
    {
        type            zeroGradient;
    }
    outlet
    {
        type            fixedValue;
        value           uniform 0;
    }
    flap
    {
        type            zeroGradient;
    }
    upperWall
    {
        type            zeroGradient;
    }
    lowerWall
    {
        type            zeroGradient;
    }
    frontAndBack
    {
        type            empty;
    }
}


// ************************************************************************* //
