/*--------------------------------*- C++ -*----------------------------------*\
| =========                 |                                                 |
| \\      /  F ield         | OpenFOAM: The Open Source CFD Toolbox           |
|  \\    /   O peration     | Version:  dev                                   |
|   \\  /    A nd           | Web:      www.OpenFOAM.org                      |
|    \\/     M anipulation  |                                                 |
\*---------------------------------------------------------------------------*/
FoamFile
{
    version     2.0;
    format      ascii;
    class       surfaceVectorField;
    location    "4.93";
    object      Uf;
}
// * * * * * * * * * * * * * * * * * * * * * * * * * * * * * * * * * * * * * //

dimensions      [0 1 -1 0 0 0 0];

internalField   nonuniform List<vector> 
5457
(
(9.91354 1.46936e-20 0.022109)
(9.96511 -1.74065e-21 0.0369842)
(9.81951 1.41491e-20 0.0279014)
(9.92757 1.76846e-21 0.0415405)
(9.71502 -7.99286e-21 0.0325146)
(9.86622 0 0.0479139)
(9.59766 -7.69063e-21 0.037288)
(9.78388 7.83571e-21 0.0558476)
(9.46725 -4.37029e-21 0.0422448)
(9.68664 -2.44445e-20 0.0643593)
(9.32384 3.22243e-22 0.0474284)
(9.57628 1.28022e-20 0.0733745)
(9.16712 -5.18068e-21 0.052962)
(9.45217 4.59386e-21 0.0830825)
(8.99651 -1.42703e-20 0.0589775)
(9.31327 -1.85854e-20 0.0936806)
(8.8112 5.45196e-21 0.0655992)
(9.15893 -1.27966e-22 0.105359)
(8.61019 9.97951e-21 0.0729482)
(8.98845 1.01564e-20 0.118297)
(8.39236 -1.4233e-21 0.0811526)
(8.80079 0 0.132688)
(8.15638 -1.37539e-21 0.0903511)
(8.59473 -1.23973e-23 0.148747)
(7.90083 1.56449e-21 0.100694)
(8.36897 0 0.166694)
(7.62415 1.51269e-21 0.112348)
(8.12203 -3.02554e-21 0.186764)
(7.32467 0 0.125498)
(7.85231 -1.03027e-19 0.209215)
(7.0006 5.8461e-20 0.140343)
(7.5581 1.198e-19 0.234316)
(6.6501 -3.82394e-21 0.157083)
(7.23757 1.85026e-19 0.262326)
(6.27135 -4.25069e-20 0.17591)
(6.88883 -1.47127e-19 0.293463)
(5.86263 3.22803e-20 0.197003)
(6.51 3.12729e-20 0.327879)
(5.42244 1.62784e-20 0.220509)
(6.09932 -2.29513e-19 0.365628)
(4.94963 0 0.24652)
(5.65524 2.95065e-20 0.406617)
(4.44356 1.56039e-19 0.275039)
(5.17657 -2.83528e-19 0.450518)
(3.90436 -8.03422e-21 0.305939)
(4.66259 7.92885e-20 0.49668)
(3.33314 -1.98511e-19 0.338897)
(4.11332 -1.58378e-19 0.544002)
(2.73236 2.41365e-21 0.373268)
(3.52973 -2.10765e-21 0.590732)
(2.10635 -3.16333e-19 0.407794)
(2.91405 2.55229e-21 0.634095)
(1.46217 4.47271e-21 0.439135)
(2.27005 -1.05081e-18 0.669561)
(0.811934 2.70799e-19 0.44356)
(1.60547 1.06402e-18 0.688216)
(0.181263 -1.87129e-19 0.131108)
(0.887876 -7.93528e-21 0.65833)
(0.33518 -1.52857e-18 0.199626)
(10.003 -1.44975e-20 0.0442643)
(9.99549 -2.95242e-20 0.0356631)
(9.97482 -1.23657e-20 0.0575528)
(9.98643 -1.26173e-20 0.0539842)
(9.92993 1.59701e-20 0.0688939)
(9.95687 -7.50708e-21 0.0684664)
(9.86978 -9.53144e-21 0.0811195)
(9.90658 -7.75681e-21 0.0844351)
(9.79421 -6.57616e-21 0.0942397)
(9.84048 -8.17056e-21 0.101621)
(9.70319 1.69111e-20 0.108292)
(9.76055 1.15924e-22 0.11991)
(9.59649 -9.24322e-21 0.123528)
(9.66641 1.46639e-22 0.139617)
(9.47364 -4.10664e-21 0.140234)
(9.55712 2.80792e-23 0.161114)
(9.33396 4.76598e-21 0.158694)
(9.43218 6.3043e-20 0.184758)
(9.17657 0 0.179198)
(9.29099 1.05372e-20 0.210918)
(9.00041 1.41232e-21 0.202051)
(9.13263 -1.27018e-19 0.240001)
(8.80424 1.3649e-21 0.227578)
(8.95601 5.78025e-21 0.272435)
(8.5867 -4.64442e-21 0.256123)
(8.75994 9.18847e-20 0.308663)
(8.34626 -1.09244e-19 0.28806)
(8.54308 9.90334e-20 0.349172)
(8.08128 2.04927e-20 0.32379)
(8.30395 -3.05948e-19 0.394498)
(7.78996 2.47447e-19 0.363721)
(8.04091 -2.28274e-21 0.445211)
(7.47039 3.63743e-20 0.408226)
(7.7522 3.34586e-19 0.501879)
(7.12062 -7.06109e-20 0.457606)
(7.43592 -1.1704e-19 0.565002)
(6.73871 -2.34851e-19 0.51205)
(7.09007 -1.53603e-20 0.634972)
(6.32283 -2.12853e-19 0.571577)
(6.71267 -1.99842e-20 0.712021)
(5.87136 -2.59127e-19 0.635937)
(6.30177 -2.03672e-19 0.796113)
(5.38301 -3.55124e-19 0.704492)
(5.85551 -3.5337e-19 0.886785)
(4.85704 -7.3565e-20 0.776055)
(5.37221 5.8975e-19 0.982967)
(4.29338 4.10593e-20 0.848659)
(4.85045 -7.57829e-19 1.08273)
(3.69295 -2.27631e-21 0.919114)
(4.28913 -5.9682e-19 1.18287)
(3.05809 -7.41394e-19 0.982079)
(3.68744 7.72239e-19 1.2781)
(2.39334 9.69899e-21 1.02727)
(3.04425 4.92048e-19 1.35926)
(1.70784 7.93555e-19 1.02971)
(2.35992 -2.04828e-18 1.40724)
(1.0093 -1.36188e-18 0.945737)
(1.58399 1.46904e-18 1.38112)
(0.967069 -1.59254e-18 1.19199)
(9.99591 -2.72893e-20 0.0479607)
(9.99318 -4.2258e-23 0.0374237)
(9.97136 -7.65675e-21 0.0681644)
(9.98163 0 0.0648609)
(9.93013 -3.12608e-20 0.0868989)
(9.95322 -2.2493e-20 0.0874127)
(9.87488 -6.37607e-21 0.107065)
(9.90591 5.44816e-20 0.110782)
(9.80581 -1.30747e-21 0.128845)
(9.8435 -1.63054e-20 0.135776)
(9.72282 -1.66679e-20 0.152334)
(9.76807 -2.51566e-22 0.162448)
(9.6257 9.40297e-21 0.177874)
(9.67945 7.05449e-20 0.191197)
(9.51408 6.83006e-20 0.205875)
(9.57685 2.7839e-20 0.222512)
(9.38742 6.78744e-20 0.236777)
(9.45987 5.81594e-22 0.256886)
(9.24501 -1.18897e-19 0.271058)
(9.32807 -8.04479e-20 0.294874)
(9.0859 -1.20341e-19 0.309229)
(9.18066 -4.34531e-20 0.337078)
(8.90905 9.78187e-20 0.35182)
(9.01679 -1.10745e-21 0.384107)
(8.71328 1.95699e-19 0.399404)
(8.83547 9.19123e-20 0.436603)
(8.49729 -1.04438e-19 0.452617)
(8.63562 -9.60056e-20 0.495281)
(8.25959 -3.23656e-19 0.512152)
(8.41603 -2.1842e-19 0.560945)
(7.99857 9.04e-20 0.578733)
(8.17536 1.00046e-19 0.634467)
(7.71244 1.74114e-19 0.653048)
(7.91211 1.79691e-19 0.716747)
(7.39926 -5.99052e-20 0.73569)
(7.62464 -5.79851e-20 0.808622)
(7.05699 1.99684e-19 0.827103)
(7.31109 -3.06489e-20 0.910827)
(6.6835 -1.31159e-20 0.927492)
(6.96947 7.35255e-19 1.02393)
(6.27661 -3.0052e-19 1.03666)
(6.59768 -1.35424e-18 1.14819)
(5.8341 6.0363e-19 1.15381)
(6.19336 -6.9171e-20 1.28337)
(5.35373 -1.1016e-19 1.27732)
(5.75392 8.58508e-20 1.42847)
(4.83318 -1.39318e-18 1.40438)
(5.27633 -1.53343e-20 1.58148)
(4.26989 1.87896e-19 1.53038)
(4.75685 4.51496e-19 1.73885)
(3.66055 1.99995e-18 1.64794)
(4.19042 -2.04984e-18 1.89485)
(2.99901 -1.56818e-18 1.74518)
(3.56897 4.11834e-18 2.04062)
(2.26827 -1.36932e-18 1.80388)
(2.88225 -4.06339e-18 2.1627)
(1.41395 1.15243e-18 1.82318)
(2.07254 1.37183e-18 2.2507)
(1.2706 -2.89468e-18 2.3169)
(9.99133 2.72712e-20 0.0548324)
(9.99176 2.777e-20 0.0411438)
(9.96698 -1.52842e-20 0.0835081)
(9.97825 7.16232e-20 0.0756545)
(9.92661 6.46869e-20 0.110569)
(9.94963 -1.49445e-20 0.105984)
(9.87233 4.31903e-20 0.138741)
(9.90331 3.12826e-20 0.136685)
(9.80473 -1.49525e-20 0.168686)
(9.84229 -2.409e-22 0.169235)
(9.72378 8.8285e-20 0.200754)
(9.76854 1.67218e-20 0.203981)
(9.62934 8.82361e-20 0.235436)
(9.68207 3.53173e-20 0.241405)
(9.52116 -4.03761e-20 0.273283)
(9.58225 -1.80803e-20 0.282086)
(9.39884 -1.492e-19 0.3149)
(9.46874 -3.8491e-20 0.326635)
(9.26181 -4.33793e-21 0.360959)
(9.34118 -1.10995e-19 0.375762)
(9.10937 7.66039e-20 0.412154)
(9.19896 8.36338e-20 0.430228)
(8.94072 -5.40715e-21 0.4692)
(9.04142 -5.5007e-21 0.490785)
(8.75496 -2.02978e-19 0.532875)
(8.8678 0 0.55823)
(8.55113 -2.12054e-19 0.604053)
(8.67729 -4.83006e-21 0.633462)
(8.32812 2.10606e-19 0.683704)
(8.46899 -2.07054e-19 0.717499)
(8.0847 1.90723e-19 0.772866)
(8.24187 4.18978e-19 0.81147)
(7.8195 -5.62438e-20 0.872578)
(7.99489 -2.16298e-19 0.916571)
(7.53094 -2.83063e-20 0.983808)
(7.72679 -2.1436e-22 1.03398)
(7.21725 5.16494e-19 1.1074)
(7.43606 0 1.1648)
(6.87645 -6.3524e-19 1.24398)
(7.12102 1.00869e-18 1.31004)
(6.50627 -1.10584e-18 1.39375)
(6.77975 -1.1135e-18 1.47041)
(6.10404 -5.84179e-19 1.5563)
(6.40983 7.36749e-19 1.64618)
(5.66648 1.77933e-19 1.73034)
(6.00824 -5.77051e-19 1.837)
(5.18932 1.83141e-18 1.91335)
(5.57096 7.40419e-19 2.04154)
(4.66663 -1.80038e-18 2.10122)
(5.09237 3.24325e-20 2.25723)
(4.08947 1.01865e-19 2.2879)
(4.56429 -1.47419e-18 2.48)
(3.44312 1.60532e-18 2.46545)
(3.97412 2.76719e-18 2.70463)
(2.70059 -1.33083e-18 2.62404)
(3.30597 -1.31929e-18 2.92568)
(1.82876 -2.7703e-18 2.79131)
(2.52399 -1.5807e-19 3.13593)
(1.59049 -2.67209e-18 3.42896)
(9.98896 7.29105e-20 0.0625591)
(9.99103 0 0.0458788)
(9.96417 7.01753e-20 0.0983701)
(9.97639 2.8727e-20 0.0866455)
(9.92453 -4.74739e-20 0.132651)
(9.94765 -1.48171e-20 0.124232)
(9.87126 -1.27597e-20 0.167993)
(9.90226 -1.55662e-20 0.162123)
(9.80503 3.17712e-20 0.205461)
(9.84272 -3.21468e-20 0.202043)
(9.72588 -3.5904e-20 0.245629)
(9.77076 -3.37702e-20 0.244626)
(9.63373 -7.19926e-20 0.289089)
(9.68648 -3.19243e-22 0.29045)
(9.52835 -1.65788e-20 0.336491)
(9.58938 3.64165e-20 0.340177)
(9.40942 -1.51057e-21 0.388562)
(9.47913 -7.65841e-20 0.394539)
(9.27645 -1.96421e-20 0.446101)
(9.35541 1.89685e-20 0.454373)
(9.12888 0 0.509928)
(9.21775 8.2552e-20 0.520557)
(8.96608 0 0.58088)
(9.06561 0 0.593967)
(8.78737 1.98136e-19 0.659878)
(8.89839 1.12696e-20 0.675519)
(8.59202 -2.96907e-21 0.747963)
(8.71546 5.06793e-21 0.766259)
(8.37922 1.13142e-20 0.846306)
(8.51615 -3.86503e-19 0.867376)
(8.1481 1.9027e-21 0.956188)
(8.29968 6.0534e-19 0.980194)
(7.89767 -1.57015e-19 1.07894)
(8.06535 -6.21192e-19 1.10615)
(7.62679 2.81029e-20 1.21587)
(7.81228 4.45313e-19 1.24671)
(7.33406 5.07043e-19 1.36824)
(7.53927 5.28197e-19 1.40337)
(7.01784 5.01111e-19 1.53714)
(7.24505 -9.62131e-19 1.57756)
(6.67608 7.53833e-19 1.72336)
(6.92804 1.01224e-18 1.77054)
(6.30606 7.27016e-19 1.92725)
(6.58601 7.34129e-19 1.9833)
(5.90409 0 2.14846)
(6.21592 -1.35005e-19 2.21643)
(5.46496 -1.06204e-18 2.38562)
(5.81353 1.13e-18 2.46989)
(4.98091 3.3874e-19 2.63633)
(5.37255 -8.9697e-19 2.7428)
(4.44028 1.21386e-18 2.8974)
(4.88373 3.41854e-19 3.03357)
(3.82615 -1.58037e-19 3.16604)
(4.33359 -3.06643e-19 3.34028)
(3.11069 -1.56409e-19 3.43446)
(3.70157 0 3.66395)
(2.29651 -1.52005e-19 3.7434)
(3.00356 -3.8699e-20 3.97274)
(1.96286 1.61133e-19 4.47042)
(9.98777 -4.36806e-20 0.0706891)
(9.99069 1.09892e-19 0.05112)
(9.96268 -5.72868e-20 0.113053)
(9.97553 -2.86618e-20 0.0977789)
(9.92385 1.71003e-20 0.15431)
(9.94694 -2.9676e-20 0.142115)
(9.8719 -3.52382e-20 0.196831)
(9.90263 6.20329e-20 0.186954)
(9.80738 -9.7741e-20 0.241844)
(9.84481 -3.23929e-20 0.234035)
(9.73039 2.44972e-21 0.290063)
(9.77499 -1.0069e-19 0.284204)
(9.64088 1.08776e-19 0.34216)
(9.69331 -3.51153e-20 0.338142)
(9.53868 -2.55561e-20 0.398878)
(9.59936 1.0919e-19 0.3966)
(9.42347 -5.44512e-20 0.461056)
(9.49281 -1.3361e-19 0.460421)
(9.29485 1.22311e-19 0.529604)
(9.37339 -1.79022e-19 0.530546)
(9.15237 8.12064e-20 0.605454)
(9.24072 2.46449e-19 0.607956)
(8.99552 1.14576e-20 0.689555)
(9.09439 0 0.693624)
(8.82376 -1.81979e-19 0.782952)
(8.93392 1.80122e-19 0.788574)
(8.63653 -3.84941e-19 0.886834)
(8.75879 -3.81379e-19 0.893973)
(8.4332 2.23112e-19 1.00254)
(8.5685 -1.94938e-19 1.01116)
(8.21314 -3.65909e-20 1.13154)
(8.36243 7.08987e-22 1.1416)
(7.97566 -3.06963e-21 1.27541)
(8.14012 -1.29579e-20 1.28694)
(7.71993 9.46826e-19 1.4358)
(7.90096 -2.53469e-20 1.44892)
(7.44491 -9.61066e-19 1.61434)
(7.64401 9.82381e-19 1.62935)
(7.14932 -4.26152e-19 1.81264)
(7.36838 -1.46262e-18 1.83008)
(6.83143 9.90671e-19 2.03211)
(7.07281 1.06605e-18 2.05295)
(6.48875 -1.3808e-19 2.274)
(6.7554 -1.30194e-19 2.29972)
(6.11767 1.0068e-18 2.53922)
(6.41343 1.28664e-19 2.57208)
(5.7129 1.27846e-18 2.8281)
(6.04294 3.88003e-20 2.87147)
(5.26661 -8.80613e-19 3.14032)
(5.63796 1.1212e-18 3.19893)
(4.76728 -1.17864e-18 3.47507)
(5.1898 -3.44656e-18 3.55505)
(4.19976 -1.48747e-19 3.8332)
(4.68705 2.28906e-18 3.93941)
(3.53459 1.15224e-19 4.20269)
(4.09982 0 4.3599)
(2.80694 2.77764e-19 4.624)
(3.52167 -2.1056e-18 4.73773)
(2.3852 2.50543e-18 5.41463)
(9.98726 1.22464e-19 0.0790126)
(9.99057 1.84617e-22 0.0565822)
(9.96217 -1.18592e-21 0.127564)
(9.9753 -9.91319e-20 0.108918)
(9.92428 1.70306e-20 0.175475)
(9.94716 -1.48162e-20 0.159581)
(9.87387 6.31649e-20 0.22492)
(9.90412 3.09665e-20 0.211074)
(9.81138 -3.65842e-20 0.277185)
(9.84823 -9.58823e-20 0.265059)
(9.73694 -1.37078e-19 0.333108)
(9.78088 -6.67389e-20 0.32252)
(9.65054 -3.21519e-20 0.393463)
(9.70221 -1.39421e-19 0.384246)
(9.55202 -3.06904e-21 0.459095)
(9.61184 7.21293e-20 0.451082)
(9.44109 -2.58955e-19 0.530946)
(9.5095 -1.44087e-22 0.523975)
(9.31742 -4.77451e-20 0.610017)
(9.39494 -1.78874e-19 0.603949)
(9.18067 1.61218e-19 0.697333)
(9.26791 -1.23392e-22 0.692057)
(9.03043 1.71627e-19 0.793943)
(9.12811 3.18847e-19 0.789363)
(8.86628 -2.81478e-20 0.900998)
(8.97512 -7.05279e-21 0.896995)
(8.68777 -1.88405e-19 1.01982)
(8.80853 -1.8568e-19 1.01623)
(8.49442 -4.14438e-19 1.15187)
(8.62798 2.98472e-21 1.14854)
(8.28575 2.36041e-20 1.29878)
(8.43301 -4.14676e-19 1.29552)
(8.06131 -3.51535e-20 1.46237)
(8.22322 -1.03228e-20 1.45896)
(7.82046 2.3469e-20 1.64453)
(7.99826 4.46334e-19 1.64089)
(7.56246 4.48083e-19 1.84727)
(7.75749 -4.6642e-20 1.84341)
(7.28635 6.19891e-20 2.07268)
(7.50026 0 2.06872)
(6.99074 -6.94239e-20 2.32289)
(7.22563 1.02425e-18 2.31925)
(6.67353 1.3893e-19 2.60004)
(6.93205 1.84982e-18 2.59756)
(6.33158 -8.37505e-19 2.90629)
(6.61729 -8.78287e-19 2.90636)
(5.96015 -1.12345e-19 3.24367)
(6.27805 -3.18168e-18 3.24849)
(5.55227 -1.46069e-18 3.61391)
(5.90929 3.08807e-18 3.62675)
(5.09799 7.25925e-21 4.01762)
(5.50338 -2.4094e-18 4.04351)
(4.58586 2.43912e-18 4.45715)
(5.05329 2.36011e-18 4.49776)
(3.98196 -2.19722e-18 4.91303)
(4.51224 -2.14917e-18 5.0066)
(3.34476 8.34519e-19 5.41544)
(4.07047 -6.00568e-20 5.42726)
(2.84553 2.29804e-18 6.25511)
(9.98714 -2.23255e-19 0.0873595)
(9.9906 -1.09794e-19 0.0620925)
(9.96237 -1.11174e-19 0.141803)
(9.97554 1.12714e-19 0.119919)
(9.92559 0 0.196032)
(9.94813 1.1749e-19 0.176554)
(9.87694 -1.3048e-19 0.252102)
(9.90657 0 0.234385)
(9.81674 -1.25534e-19 0.311317)
(9.85283 -6.40199e-20 0.294985)
(9.74518 -7.03722e-20 0.374617)
(9.78823 6.70067e-20 0.359413)
(9.66226 -3.13915e-20 0.442876)
(9.71292 -1.33839e-22 0.428569)
(9.56785 7.3828e-20 0.517034)
(9.62652 1.31935e-22 0.503394)
(9.46173 7.70217e-20 0.598119)
(9.52879 4.6662e-22 0.584914)
(9.34364 -1.28217e-19 0.687207)
(9.41964 7.80544e-20 0.674223)
(9.21333 1.62646e-19 0.785397)
(9.2989 -1.64231e-19 0.772438)
(9.07049 1.3504e-19 0.893831)
(9.16635 3.40222e-19 0.880713)
(8.91477 -1.67535e-19 1.01376)
(9.02163 -1.76214e-19 1.00027)
(8.74584 8.7228e-21 1.14661)
(8.86441 -3.59736e-19 1.13249)
(8.56336 -3.35964e-21 1.294)
(8.69446 3.75682e-19 1.27895)
(8.36693 -4.42803e-19 1.45767)
(8.51153 -3.94464e-19 1.4414)
(8.15625 4.76826e-19 1.63962)
(8.31518 -1.33879e-20 1.62174)
(7.93096 3.70641e-19 1.84205)
(8.10526 8.90145e-19 1.8222)
(7.69056 -4.9491e-19 2.06727)
(7.88158 -5.01415e-19 2.04519)
(7.43436 9.74353e-19 2.3178)
(7.64358 8.7829e-19 2.29326)
(7.16129 2.95429e-18 2.59647)
(7.39061 -7.78745e-20 2.5694)
(6.86965 8.11136e-19 2.90635)
(7.12154 1.9793e-18 2.87695)
(6.55699 -3.24066e-18 3.25074)
(6.83467 8.21297e-19 3.21953)
(6.21958 4.32391e-20 3.63307)
(6.52749 -4.08393e-18 3.60117)
(5.85174 2.11456e-18 4.05667)
(6.19628 2.11979e-18 4.02607)
(5.44489 -6.66315e-20 4.52292)
(5.83418 -2.05178e-18 4.49816)
(4.9919 -2.20148e-18 5.03424)
(5.4402 2.07601e-18 5.01401)
(4.45263 -2.81724e-19 5.56289)
(4.94275 -2.13885e-18 5.60342)
(3.89528 2.00508e-18 6.12266)
(4.63862 2.1314e-18 6.04973)
(3.33111 -6.49384e-20 7.00354)
(9.98732 2.30241e-19 0.0955903)
(9.99074 -6.79884e-21 0.0675253)
(9.96316 3.41573e-19 0.155662)
(9.97613 1.20544e-19 0.130656)
(9.92768 1.1526e-19 0.215883)
(9.94968 2.58429e-22 0.192947)
(9.88099 6.53011e-20 0.278264)
(9.90981 0 0.256785)
(9.82338 1.3096e-19 0.344108)
(9.85848 1.27603e-19 0.323671)
(9.75503 1.36063e-19 0.414436)
(9.79696 7.28743e-22 0.394717)
(9.67594 3.14257e-20 0.490218)
(9.72535 6.89102e-20 0.470932)
(9.586 -7.32756e-20 0.57247)
(9.64328 -3.59904e-20 0.55334)
(9.48511 2.75366e-21 0.662279)
(9.55057 -1.65268e-22 0.643002)
(9.37315 3.81449e-20 0.760792)
(9.44726 1.54855e-19 0.741059)
(9.24994 2.14227e-20 0.869191)
(9.33334 -1.19436e-19 0.848716)
(9.11523 2.07624e-20 0.988709)
(9.20862 2.11004e-20 0.967233)
(8.96873 -3.71231e-19 1.12068)
(9.07286 0 1.09792)
(8.81023 1.78828e-20 1.26663)
(8.92578 -3.65958e-19 1.24221)
(8.63953 -2.63797e-20 1.42829)
(8.76725 3.96279e-19 1.40178)
(8.45636 3.99096e-20 1.60757)
(8.59725 -3.88764e-19 1.57855)
(8.26048 4.12242e-19 1.80656)
(8.41543 8.1225e-19 1.77454)
(8.0518 0 2.02771)
(8.22171 -1.23764e-18 1.99207)
(7.83011 8.88893e-19 2.27367)
(8.01628 1.70682e-18 2.23385)
(7.59494 -1.81871e-19 2.54743)
(7.79876 3.52903e-20 2.50285)
(7.34555 -1.0324e-18 2.85242)
(7.56873 -1.88817e-18 2.80255)
(7.08075 1.97866e-18 3.19249)
(7.32564 -1.84039e-18 3.13697)
(6.79871 -4.59928e-20 3.57199)
(7.0683 2.90067e-18 3.51056)
(6.49683 -1.98391e-18 3.99556)
(6.79492 -3.90272e-18 3.92837)
(6.17095 -2.0529e-18 4.46767)
(6.50312 1.92036e-18 4.39572)
(5.81326 5.92972e-20 4.99008)
(6.18643 -2.03421e-18 4.91811)
(5.41986 2.1495e-18 5.56505)
(5.85091 2.22392e-18 5.48856)
(4.94414 0 6.15771)
(5.39368 0 6.15312)
(4.44887 -5.00562e-20 6.76295)
(5.21835 0 6.62038)
(3.83377 3.93515e-18 7.68338)
(9.9877 -1.1421e-19 0.103598)
(9.99095 -6.80211e-21 0.0727968)
(9.96438 -2.23275e-19 0.169044)
(9.97695 -1.05763e-19 0.141033)
(9.93037 -1.15063e-19 0.234936)
(9.95169 -1.17345e-19 0.20868)
(9.88587 6.46729e-20 0.303282)
(9.9137 6.02568e-20 0.278169)
(9.83115 -4.9967e-21 0.375397)
(9.86502 1.26391e-19 0.350969)
(9.76634 -6.5287e-20 0.45238)
(9.80684 -6.61658e-20 0.428256)
(9.69146 -3.26909e-22 0.535288)
(9.73922 -3.32756e-22 0.511141)
(9.6064 3.7761e-20 0.62518)
(9.66185 -1.41926e-19 0.600703)
(9.51117 1.54555e-19 0.723167)
(9.5746 1.8351e-19 0.698006)
(9.40575 -7.1434e-21 0.830456)
(9.47759 -3.6907e-20 0.804212)
(9.2901 -1.1764e-19 0.948329)
(9.37092 -1.64919e-21 0.920615)
(9.16405 0 1.07812)
(9.25449 -3.29755e-19 1.04858)
(9.02744 0 1.22124)
(9.12823 3.38894e-19 1.18951)
(8.88011 2.34543e-20 1.37928)
(8.99196 0 1.34489)
(8.722 2.28102e-20 1.55409)
(8.84559 2.18441e-22 1.51647)
(8.55304 3.99686e-19 1.7477)
(8.68929 0 1.7063)
(8.37315 -8.63804e-19 1.96233)
(8.52298 4.2522e-19 1.91651)
(8.18235 5.02606e-19 2.2006)
(8.34669 -1.23969e-18 2.14955)
(7.98068 8.37744e-19 2.46549)
(8.16075 1.70322e-18 2.40836)
(7.76795 -1.6908e-18 2.76044)
(7.96505 -8.45607e-19 2.69631)
(7.54382 -2.69782e-18 3.08949)
(7.75954 3.59853e-20 3.01735)
(7.3077 -8.89485e-19 3.45714)
(7.54421 -9.47358e-19 3.37608)
(7.05843 -9.87081e-19 3.86859)
(7.31853 9.37551e-19 3.77769)
(6.79416 1.05209e-20 4.32957)
(7.08139 -1.01476e-19 4.22818)
(6.51222 1.93573e-18 4.84573)
(6.83133 1.07434e-19 4.73385)
(6.20532 1.01335e-19 5.41913)
(6.56196 1.79708e-18 5.30221)
(5.87065 8.66837e-20 6.05254)
(6.28699 -1.80899e-18 5.92262)
(5.4562 0 6.70688)
(5.86901 0 6.65968)
(5.00429 4.21567e-18 7.36045)
(5.80915 0 7.15734)
(4.35385 3.95573e-18 8.32733)
(9.98821 0 0.111305)
(9.9912 1.34701e-20 0.0778509)
(9.96591 0 0.181867)
(9.97795 1.39681e-20 0.150964)
(9.93357 6.14269e-20 0.253104)
(9.95407 -2.89559e-20 0.223667)
(9.89146 1.2318e-19 0.327049)
(9.91818 -6.35322e-23 0.298445)
(9.83983 6.17676e-20 0.40505)
(9.87234 6.31954e-20 0.376778)
(9.77881 0 0.48829)
(9.8177 -6.49052e-20 0.459917)
(9.70841 -1.44403e-19 0.577888)
(9.7543 1.35528e-19 0.549047)
(9.62863 9.19916e-21 0.674926)
(9.68193 -2.81885e-19 0.645273)
(9.53951 -1.15763e-20 0.780525)
(9.60056 1.46499e-19 0.749665)
(9.44111 -3.09344e-20 0.895942)
(9.5103 -1.53265e-19 0.863411)
(9.33345 -2.18793e-19 1.02254)
(9.41132 -1.16881e-19 0.987867)
(9.21655 1.8934e-20 1.16175)
(9.30362 -8.81029e-20 1.12447)
(9.09037 3.34285e-19 1.31505)
(9.18733 3.39376e-19 1.2747)
(8.95486 -2.325e-20 1.48409)
(9.06241 0 1.44012)
(8.81006 -2.26349e-20 1.6708)
(8.92885 -3.827e-19 1.62254)
(8.65612 3.07346e-20 1.87731)
(8.78696 6.93296e-19 1.82403)
(8.49319 3.00028e-20 2.10601)
(8.63693 -1.13693e-18 2.04689)
(8.32145 -6.58066e-21 2.35966)
(8.47907 7.80001e-19 2.29372)
(8.14111 -6.44786e-21 2.64153)
(8.31375 7.98073e-19 2.56765)
(7.95234 8.91055e-19 2.95546)
(8.1412 -7.67502e-19 2.87236)
(7.75525 1.7829e-18 3.30598)
(7.96186 8.7154e-19 3.21219)
(7.54986 8.92062e-19 3.69829)
(7.77619 9.36877e-19 3.59225)
(7.33583 1.81783e-18 4.13835)
(7.5844 0 4.01851)
(7.11191 2.60253e-21 4.63288)
(7.38627 1.11413e-19 4.49796)
(6.87628 -3.77449e-20 5.18905)
(7.1811 -1.10507e-19 5.03791)
(6.62234 -6.56103e-20 5.80978)
(6.96188 1.78456e-18 5.64827)
(6.34638 -1.90414e-18 6.50005)
(6.75032 -1.89687e-18 6.3165)
(5.99366 0 7.22078)
(6.37658 1.53057e-18 7.1257)
(5.57202 0 7.94296)
(6.42049 -2.62766e-18 7.67793)
(4.90444 1.63429e-18 8.9768)
(9.98881 2.72839e-20 0.118649)
(9.99146 2.27435e-19 0.0826507)
(9.96771 -1.59236e-20 0.194047)
(9.97906 4.17278e-20 0.160375)
(9.93723 -8.99274e-20 0.270293)
(9.95674 -5.77709e-20 0.237818)
(9.89769 -5.89269e-20 0.349466)
(9.92312 -3.72385e-22 0.317525)
(9.84934 -6.58282e-20 0.432965)
(9.88028 -1.86007e-19 0.401012)
(9.7923 7.41332e-20 0.522041)
(9.82934 -6.49586e-20 0.489599)
(9.72665 -8.95024e-21 0.617852)
(9.77039 6.87904e-20 0.584513)
(9.65248 -1.37611e-19 0.721493)
(9.70332 -1.39968e-19 0.686869)
(9.56986 0 0.834107)
(9.62813 0 0.79776)
(9.47891 -2.38719e-19 0.956989)
(9.54499 0 0.918405)
(9.3797 1.42308e-20 1.09155)
(9.4541 -4.67834e-19 1.05021)
(9.27236 2.38762e-19 1.23927)
(9.35557 4.01136e-19 1.19462)
(9.15708 0 1.40172)
(9.24969 0 1.35316)
(9.03394 -3.64823e-19 1.58061)
(9.13654 3.4217e-19 1.5275)
(8.90308 3.46767e-19 1.7779)
(9.01635 -6.66985e-19 1.71951)
(8.76485 -4.96071e-19 1.99581)
(8.88953 7.40159e-19 1.93124)
(8.61966 -3.67336e-19 2.23684)
(8.75643 -1.91504e-18 2.16507)
(8.46791 1.58657e-18 2.50394)
(8.61772 7.77993e-19 2.4238)
(8.31007 2.51002e-20 2.80061)
(8.47395 1.5832e-18 2.7107)
(8.14667 -7.76052e-19 3.13101)
(8.32573 -2.64789e-20 3.02968)
(7.97837 2.6103e-20 3.50003)
(8.17404 -8.16372e-19 3.3854)
(7.80582 3.88513e-20 3.91349)
(8.0199 -8.21113e-19 3.78333)
(7.62951 -1.70842e-18 4.37832)
(7.86425 8.14119e-19 4.23019)
(7.44916 -7.83869e-21 4.90227)
(7.70797 -3.5106e-18 4.73411)
(7.26334 1.71415e-18 5.49429)
(7.55164 3.31478e-18 5.30375)
(7.06624 0 6.15936)
(7.38736 3.78011e-19 5.95161)
(6.85195 1.52494e-18 6.90794)
(7.24457 1.44872e-18 6.66673)
(6.56839 -7.36559e-19 7.70624)
(6.92944 4.26142e-19 7.54789)
(6.1781 1.00893e-19 8.5387)
(7.07403 -1.71306e-18 8.19279)
(5.51715 2.41971e-19 9.67758)
(9.98948 2.38471e-19 0.125585)
(9.99175 1.99948e-19 0.0871666)
(9.96968 -2.24133e-21 0.205515)
(9.98029 2.61733e-19 0.169221)
(9.94118 3.29141e-20 0.286423)
(9.95964 -1.43206e-19 0.251075)
(9.90435 -1.30781e-19 0.370448)
(9.92843 1.78867e-19 0.335342)
(9.85944 -1.8305e-19 0.459043)
(9.88871 -1.16215e-21 0.423587)
(9.80659 -6.8042e-20 0.55351)
(9.84164 6.39856e-20 0.517193)
(9.74594 -6.57781e-20 0.655025)
(9.78735 -2.74971e-22 0.617404)
(9.67763 0 0.764696)
(9.72579 0 0.725344)
(9.60181 0 0.883694)
(9.65702 0 0.84213)
(9.51862 -2.36272e-19 1.01335)
(9.58126 0 0.969002)
(9.42826 -6.83104e-20 1.15509)
(9.49877 -2.32919e-19 1.10739)
(9.33093 1.56611e-19 1.31041)
(9.40983 2.38094e-19 1.25875)
(9.22696 3.47075e-19 1.48093)
(9.31473 0 1.42461)
(9.11662 2.75981e-20 1.66846)
(9.21368 6.78782e-19 1.60671)
(9.00026 -2.57115e-19 1.87496)
(9.10728 -3.48577e-19 1.80698)
(8.87834 -7.09433e-19 2.10267)
(8.99603 -3.95219e-19 2.02745)
(8.75151 -7.43451e-19 2.3542)
(8.88042 -1.10519e-19 2.27053)
(8.62047 7.7949e-19 2.63264)
(8.76142 -6.51295e-19 2.53912)
(8.48606 1.52151e-18 2.94165)
(8.63988 7.7881e-19 2.83662)
(8.34927 -6.79204e-20 3.28562)
(8.51692 -1.94351e-20 3.16706)
(8.21132 -1.66616e-18 3.66973)
(8.39411 -3.29233e-20 3.53528)
(8.07362 -4.48927e-20 4.10026)
(8.27312 -8.63196e-19 3.94708)
(7.93756 -9.91219e-19 4.58506)
(8.15571 8.17329e-19 4.40971)
(7.80415 -2.18016e-19 5.13327)
(8.04404 -1.61567e-18 4.93232)
(7.67304 1.98883e-18 5.75575)
(7.94086 1.60931e-18 5.52522)
(7.53991 1.82469e-18 6.46123)
(7.83872 1.17915e-20 6.20361)
(7.39624 2.4206e-19 7.26947)
(7.77413 2.76329e-18 6.96259)
(7.20088 -1.87505e-19 8.15969)
(7.54534 -2.74552e-18 7.91074)
(6.86916 -1.49247e-18 9.17145)
(7.8057 9.1218e-19 8.6948)
(6.2491 -1.41727e-18 10.4764)
(9.99023 2.24491e-19 0.132073)
(9.99203 -2.26555e-19 0.0913635)
(9.97184 1.12788e-19 0.216227)
(9.98162 -1.31141e-20 0.177452)
(9.94544 8.83239e-21 0.301446)
(9.96282 1.70383e-19 0.263384)
(9.91143 3.05394e-19 0.389934)
(9.93416 -2.91999e-20 0.35184)
(9.87009 2.47208e-19 0.483203)
(9.89767 1.23862e-19 0.444439)
(9.82159 1.30734e-19 0.582592)
(9.85458 1.91241e-19 0.542613)
(9.76613 6.55757e-20 0.689283)
(9.80512 1.3241e-19 0.64762)
(9.70388 0 0.804399)
(9.74924 1.36832e-19 0.760589)
(9.63507 0 0.929126)
(9.68708 -7.04678e-20 0.882645)
(9.55992 0 1.06481)
(9.6189 7.26886e-20 1.01504)
(9.4787 8.02994e-20 1.2129)
(9.54502 0 1.15922)
(9.39172 7.80841e-20 1.37489)
(9.46592 -2.32314e-19 1.31665)
(9.29937 3.40689e-19 1.5524)
(9.38184 3.19155e-19 1.48884)
(9.20215 2.90578e-19 1.74729)
(9.29314 3.36614e-19 1.67753)
(9.10064 -4.86863e-19 1.96154)
(9.2008 -4.14481e-20 1.88466)
(8.99548 2.07454e-19 2.19739)
(9.10541 -3.54654e-19 2.11227)
(8.8875 -2.21772e-20 2.45747)
(9.00766 7.27118e-19 2.3628)
(8.77771 -6.42927e-19 2.74496)
(8.90874 -1.9227e-20 2.63912)
(8.66738 -7.71407e-19 3.06359)
(8.80991 -6.40517e-19 2.94466)
(8.5581 1.44254e-20 3.41783)
(8.7128 -9.50121e-19 3.28343)
(8.45175 7.71333e-19 3.81307)
(8.61966 7.75641e-19 3.66034)
(8.35053 0 4.25592)
(8.53282 -9.20217e-19 4.08136)
(8.25698 1.93926e-19 4.75482)
(8.4552 1.28541e-18 4.55403)
(8.17386 1.94608e-19 5.32014)
(8.39047 8.8826e-19 5.08795)
(8.10324 -3.65211e-19 5.96473)
(8.34435 -1.41083e-18 5.69457)
(8.04456 9.34732e-19 6.7023)
(8.31263 -3.68103e-19 6.39119)
(7.98928 -4.07316e-19 7.56408)
(8.33888 1.31495e-18 7.18204)
(7.91865 -1.62391e-18 8.55355)
(8.23879 -1.09727e-18 8.17657)
(7.71935 0 9.84942)
(8.6623 8.61984e-19 9.13369)
(7.18601 3.738e-19 11.4155)
(9.99102 -4.6037e-19 0.138066)
(9.99229 -5.29116e-21 0.095226)
(9.97421 4.8134e-20 0.226113)
(9.983 -2.64887e-19 0.184998)
(9.95009 1.28685e-19 0.315294)
(9.96619 1.83158e-19 0.274668)
(9.91904 -2.08118e-19 0.407863)
(9.9402 -1.50985e-19 0.366963)
(9.88137 6.90078e-20 0.505377)
(9.90701 -6.27366e-20 0.463521)
(9.83735 1.91946e-19 0.609204)
(9.868 1.00783e-20 0.565803)
(9.78721 2.03799e-19 0.72054)
(9.82349 -5.68683e-20 0.675094)
(9.73119 6.31914e-20 0.840507)
(9.77347 1.15388e-20 0.79253)
(9.66955 4.39571e-21 0.970294)
(9.71812 -6.41187e-21 0.919224)
(9.6026 7.16739e-20 1.11126)
(9.65769 5.76866e-21 1.05644)
(9.53068 -3.16147e-19 1.26485)
(9.59261 6.99491e-20 1.20563)
(9.4542 1.57825e-20 1.43256)
(9.52355 -2.7946e-20 1.36823)
(9.37366 3.1538e-19 1.61599)
(9.4507 3.2703e-19 1.54575)
(9.28973 0 1.81695)
(9.37468 -3.04794e-19 1.73986)
(9.20327 8.81402e-20 2.03745)
(9.29663 3.13336e-19 1.95244)
(9.11509 1.76349e-19 2.27973)
(9.21728 4.09779e-19 2.1856)
(9.02618 7.24969e-19 2.5464)
(9.13769 1.72601e-19 2.44175)
(8.93795 -1.87925e-20 2.84056)
(9.05917 6.43645e-19 2.72361)
(8.85209 -8.21694e-19 3.16591)
(8.98347 -1.40987e-18 3.03451)
(8.77073 -1.82302e-19 3.52687)
(8.9127 -1.63465e-20 3.37837)
(8.69652 -9.24904e-19 3.92881)
(8.84959 0 3.75992)
(8.63262 3.64741e-19 4.37846)
(8.79739 -6.0602e-19 4.18506)
(8.58304 1.98928e-18 4.88427)
(8.76042 1.485e-18 4.66106)
(8.55283 -6.98569e-19 5.45705)
(8.74421 7.80783e-20 5.1971)
(8.54779 -1.42127e-18 6.11055)
(8.7577 -8.18662e-19 5.80431)
(8.57442 0 6.86241)
(8.80265 0 6.49939)
(8.63166 5.40792e-19 7.75183)
(8.93029 0 7.29337)
(8.73907 1.40099e-18 8.81357)
(9.00528 -4.051e-19 8.27865)
(8.83162 3.81466e-20 10.5505)
(9.7573 9.36375e-19 9.33664)
(9.59801 5.59761e-19 12.4164)
(0.158879 3.73852e-21 -0.0979706)
(0.101632 1.88899e-20 -0.132045)
(0.372418 4.77609e-21 -0.102265)
(0.253578 -1.10475e-20 -0.163989)
(0.575192 2.82066e-21 -0.0824215)
(0.456112 5.02753e-21 -0.137467)
(0.753152 -9.01529e-21 -0.0632819)
(0.651749 -5.85688e-21 -0.109134)
(0.907801 -3.43506e-21 -0.0494631)
(0.825967 -2.58978e-20 -0.0886424)
(1.04389 3.19761e-21 -0.0404208)
(0.979663 2.12574e-20 -0.0754253)
(1.16616 -3.13981e-21 -0.0346165)
(1.11709 -7.51053e-21 -0.0674257)
(1.27781 9.79427e-23 -0.0306241)
(1.24161 6.58702e-21 -0.0623466)
(1.38069 2.35028e-21 -0.0274001)
(1.35591 7.25635e-21 -0.0586084)
(1.47542 -1.32779e-21 -0.0242133)
(1.46242 -1.00669e-20 -0.0551275)
(1.56156 -2.69482e-21 -0.0205687)
(1.56187 -5.08511e-21 -0.0511181)
(1.63791 2.74988e-21 -0.0162024)
(1.65365 -6.84982e-21 -0.0460086)
(1.70281 4.1964e-21 -0.0111916)
(1.73674 5.406e-21 -0.039539)
(1.75506 1.03299e-23 -0.00598075)
(1.81031 -1.45754e-21 -0.0320118)
(1.79447 0 -0.00120191)
(1.87341 2.76568e-21 -0.0241369)
(1.82196 -2.01327e-21 0.00251667)
(1.92598 -1.36646e-21 -0.01668)
(1.83966 -1.05999e-21 0.00472017)
(1.96861 4.70712e-21 -0.0104741)
(1.85064 6.73188e-22 0.00535025)
(2.00277 -3.30414e-22 -0.00618789)
(1.85817 -3.19397e-22 0.00471035)
(2.03089 9.63902e-22 -0.00395068)
(1.86513 0 0.00319908)
(2.05548 4.15908e-21 -0.00354466)
(1.8739 -1.01546e-21 0.0011702)
(2.07895 -3.38744e-23 -0.00464288)
(1.88606 -1.02555e-21 -0.00102954)
(2.10313 -1.01311e-21 -0.00675737)
(1.90211 0 -0.0030338)
(2.12888 4.79775e-22 -0.00917198)
(1.92145 0 -0.00453575)
(2.15583 1.81267e-21 -0.011221)
(1.94283 -5.69933e-22 -0.00536804)
(2.1833 -1.86248e-22 -0.0124825)
(1.96474 -5.75046e-22 -0.00554768)
(2.21038 7.377e-24 -0.0127782)
(1.98586 3.01236e-22 -0.00524021)
(2.23588 -8.91968e-22 -0.0122317)
(2.00531 1.31084e-22 -0.0046542)
(2.25908 7.10365e-24 -0.0111243)
(2.02268 -1.76344e-22 -0.00404548)
(2.27961 -2.09674e-23 -0.00975371)
(2.30035 7.85794e-24 -0.00854824)
(0.146282 1.59586e-20 -0.221559)
(0.0786765 3.89718e-20 -0.272604)
(0.342354 -1.15898e-20 -0.229972)
(0.201789 9.89683e-21 -0.31301)
(0.544763 -6.4851e-21 -0.192049)
(0.402165 -1.46209e-20 -0.269981)
(0.732601 -2.36379e-20 -0.155616)
(0.592066 -1.55989e-21 -0.220516)
(0.901851 3.43182e-21 -0.129455)
(0.765025 -3.39166e-20 -0.183297)
(1.05398 1.02441e-20 -0.11256)
(0.920586 5.05087e-20 -0.158669)
(1.19162 1.4039e-21 -0.102128)
(1.06001 -2.48458e-20 -0.143187)
(1.31813 1.35335e-20 -0.0953914)
(1.18596 8.68644e-21 -0.133447)
(1.43624 -4.85942e-21 -0.0902592)
(1.30176 3.70498e-21 -0.126727)
(1.54773 -1.4265e-20 -0.0852462)