/*--------------------------------*- C++ -*----------------------------------*\
| =========                 |                                                 |
| \\      /  F ield         | OpenFOAM: The Open Source CFD Toolbox           |
|  \\    /   O peration     | Version:  dev                                   |
|   \\  /    A nd           | Web:      www.OpenFOAM.org                      |
|    \\/     M anipulation  |                                                 |
\*---------------------------------------------------------------------------*/
FoamFile
{
    version     2.0;
    format      ascii;
    class       volVectorField;
    location    "0.03";
    object      Force;
}
// * * * * * * * * * * * * * * * * * * * * * * * * * * * * * * * * * * * * * //

dimensions      [1 1 -2 0 0 0 0];

internalField   uniform (0 0 0);

boundaryField
{
    inlet
    {
        type            calculated;
        value           uniform (0 0 0);
    }
    outlet
    {
        type            calculated;
        value           uniform (0 0 0);
    }
    flap
    {
        type            calculated;
        value           nonuniform List<vector> 
33
(
(2.5866 5.47349e-20 -0.00497472)
(2.58441 1.63061e-17 0.000959083)
(2.57687 -1.63106e-17 0.00110489)
(2.56149 -1.69352e-21 0.0010161)
(2.53812 -6.65328e-24 0.00165232)
(2.50591 -1.63099e-17 0.00226779)
(2.46247 1.63115e-17 0.00226818)
(2.40489 4.89299e-17 0.00298393)
(2.32888 1.63116e-17 0.0036644)
(2.22653 1.63116e-17 0.00391041)
(2.08523 3.46255e-22 0.00482678)
(1.88147 1.63131e-17 0.00570179)
(1.56546 -1.08912e-23 0.00658077)
(1.01611 1.06259e-23 0.00800104)
(-0.158464 1.63711e-17 0.00976895)
(-0.00930017 -4.71459e-20 4.463)
(0.00731173 3.66959e-23 4.26835)
(0.0183481 -1.02347e-23 3.446)
(1.5114 1.6303e-17 -0.00178263)
(1.5342 1.63166e-17 -0.000168306)
(1.57815 1.63113e-17 -0.0003212)
(1.64539 1.0888e-21 -0.000547287)
(1.73751 -4.99815e-25 -0.000625087)
(1.85711 5.08322e-25 -0.000570325)
(2.00969 -1.02458e-24 -0.000701465)
(2.2067 -4.49276e-27 -0.000557099)
(2.46102 -1.63095e-17 -9.54647e-06)
(2.79449 -1.43002e-25 0.000196454)
(3.25151 1.63014e-17 0.000859922)
(3.87847 1.63093e-17 0.00217608)
(4.64819 -2.83911e-24 0.00134256)
(5.35052 2.95291e-24 0.00266867)
(5.67719 -1.49852e-20 0.00691792)
)
;
    }
    upperWall
    {
        type            calculated;
        value           uniform (0 0 0);
    }
    lowerWall
    {
        type            calculated;
        value           uniform (0 0 0);
    }
    frontAndBack
    {
        type            empty;
    }
}


// ************************************************************************* //
