/*--------------------------------*- C++ -*----------------------------------*\
| =========                 |                                                 |
| \\      /  F ield         | OpenFOAM: The Open Source CFD Toolbox           |
|  \\    /   O peration     | Version:  dev                                   |
|   \\  /    A nd           | Web:      www.OpenFOAM.org                      |
|    \\/     M anipulation  |                                                 |
\*---------------------------------------------------------------------------*/
FoamFile
{
    version     2.0;
    format      ascii;
    class       volScalarField;
    location    "0.03";
    object      p;
}
// * * * * * * * * * * * * * * * * * * * * * * * * * * * * * * * * * * * * * //

dimensions      [0 2 -2 0 0 0 0];

internalField   nonuniform List<scalar> 
2790
(
75.9921
75.883
76.1121
76.6311
77.3349
78.1905
79.2029
80.3777
81.7163
83.2206
84.8931
86.7363
88.7515
90.9382
93.2934
95.8106
98.4785
101.28
104.191
107.18
110.206
113.219
116.159
118.961
121.554
123.867
125.835
127.401
128.524
129.189
75.8071
75.7984
76.0529
76.5717
77.2738
78.1271
79.1353
80.3042
81.6357
83.1317
84.7949
86.6279
88.632
90.8069
93.1499
95.6548
98.3109
101.102
104.005
106.988
110.011
113.026
115.974
118.789
121.399
123.733
125.721
127.305
128.442
129.124
75.6171
75.6761
75.948
76.4589
77.1519
77.9964
78.9936
80.1488
81.4643
82.9417
84.5838
86.393
88.3707
90.5168
92.8287
95.3006
97.9227
100.68
103.549
106.502
109.501
112.497
115.434
118.248
120.868
123.22
125.233
126.846
128.009
128.722
75.4045
75.4955
75.7806
76.2856
76.9676
77.7989
78.7795
79.9142
81.2053
82.6545
84.2643
86.037
87.974
90.075
92.3379
94.7574
97.3244
100.025
102.838
105.737
108.687
111.642
114.55
117.347
119.964
122.328
124.365
126.009
127.203
127.954
75.1595
75.2656
75.5592
76.0574
76.7247
77.5374
78.4952
79.6023
80.8607
82.2721
83.8386
85.5623
87.4442
89.4842
91.6802
94.0274
96.5175
99.1377
101.87
104.69
107.564
110.453
113.307
116.066
118.666
121.031
123.088
124.764
125.994
126.792
74.8779
74.9904
75.2866
75.7753
76.4243
77.2135
78.1426
79.2153
80.4332
81.7975
83.31
84.9724
86.7853
88.7484
90.8595
93.1142
95.5049
98.0202
100.644
103.354
106.123
108.914
111.682
114.375
116.93
119.277
121.343
123.049
124.32
125.176
74.5579
74.6719
74.9655
75.4413
76.0685
76.8296
77.7245
78.7562
79.9259
81.2343
82.6826
84.2719
86.0022
87.8728
89.8812
92.023
94.2912
96.6753
99.1611
101.729
104.355
107.008
109.648
112.231
114.702
116.997
119.045
120.769
122.078
123.006
74.199
74.3116
74.5983
75.0578
75.6598
76.3884
77.2438
78.2284
79.3427
80.5868
81.9613
83.4662
85.101
86.8641
88.7524
90.7612
92.8833
95.1088
97.4245
99.8132
102.253
104.718
107.176
109.589
111.913
114.095
116.076
117.783
119.12
120.136
73.8018
73.9111
74.1876
74.6275
75.2009
75.8929
76.704
77.6358
78.688
79.8602
81.1518
82.562
84.089
85.7303
87.4819
89.3379
91.2905
93.3293
95.4412
97.6095
99.8145
102.032
104.237
106.397
108.481
110.454
112.273
113.892
115.216
116.334
73.3676
73.472
73.7356
74.153
74.6947
75.3465
76.1088
76.9826
77.9669
79.0601
80.2606
81.5665
82.9747
84.4812
86.0803
87.7648
89.5252
91.3495
93.2229
95.1274
97.0423
98.9436
100.806
102.604
104.315
105.922
107.416
108.797
110.007
111.227
72.8979
72.9965
73.2451
73.6373
74.1443
74.7527
75.4623
76.2736
77.1846
78.1926
79.295
80.4882
81.7676
83.1275
84.5602
86.0561
87.6032
89.1864
90.7874
92.3841
93.9507
95.4577
96.8741
98.1696
99.322
100.327
101.213
102.058
102.91
104.185
72.3946
72.4866
72.7184
73.0833
73.5532
74.1153
74.7689
75.5138
76.3469
77.2645
78.2626
79.336
80.4784
81.6818
82.936
84.2286
85.5439
86.8623
88.1598
89.4069
90.5678
91.6001
92.4555
93.0824
93.4355
93.4941
93.2994
93.0251
92.9346
94.021
71.8599
71.9447
72.1584
72.4941
72.9249
73.4383
74.0332
74.7083
75.4598
76.2828
77.1717
78.1197
79.1184
80.1574
81.2238
82.3015
83.3702
84.4046
85.3729
86.2349
86.9395
87.4225
87.6034
87.3839
86.6525
85.3025
83.2877
80.7821
78.3264
78.2737
71.2962
71.3733
71.5679
71.8729
72.2629
72.7257
73.2597
73.8627
74.5298
75.255
76.031
76.8495
77.6998
78.569
79.4411
80.2958
81.108
81.8455
82.467
82.9191
83.131
83.0083
82.423
81.2001
79.101
75.8096
70.9453
64.2337
55.9366
50.8966
70.7059
70.7751
70.9497
71.223
71.571
71.9818
72.4533
72.9823
73.5631
74.1883
74.8493
75.5358
76.2351
76.9316
77.6061
78.2343
78.7857
79.2209
79.4888
79.5213
79.2259
78.4738
77.0798
74.7693
71.1204
65.4606
56.6726
42.8859
20.7887
-7.2485
-76.5771
-75.5038
-73.3801
-70.256
-66.2508
-61.5525
-56.3933
-51.0187
-45.6565
-40.4945
-35.6685
-31.261
-27.3075
-23.8074
-20.7355
-18.0522
-15.7115
-13.6665
-11.8728
-10.2903
-8.88403
-7.62356
-6.48302
-5.44025
-4.47613
-3.57388
-2.7184
-1.89571
-1.09239
-0.295057
-77.676
-76.5671
-74.3711
-71.14
-67.0044
-62.1663
-56.8715
-51.3755
-45.9118
-40.6697
-35.7834
-31.3324
-27.3487
-23.8283
-20.743
-18.0512
-15.7052
-13.657
-11.8616
-10.2784
-8.872
-7.61189
-6.47206
-5.43029
-4.46739
-3.56656
-2.71269
-1.89178
-1.09034
-0.294254
-79.8662
-78.6808
-76.3283
-72.8662
-68.4485
-63.3086
-57.723
-51.9699
-46.2957
-40.8928
-35.8915
-31.3636
-27.332
-23.7845
-20.686
-17.9896
-15.644
-13.5991
-11.8081
-10.2299
-8.82859
-7.57345
-6.43843
-5.4013
-4.44294
-3.5466
-2.69723
-1.88089
-1.08413
-0.292623
-83.1989
-81.8989
-79.307
-75.4862
-70.6268
-65.0131
-58.9724
-52.8209
-46.8245
-41.1794
-36.0086
-31.3705
-27.2733
-23.6912
-20.5781
-17.8793
-15.5381
-13.5008
-11.7189
-10.15
-8.75773
-7.51118
-6.38427
-5.35485
-4.40388
-3.51473
-2.6725
-1.86337
-1.07402
-0.290145
-87.7609
-86.3128
-83.4007
-79.0853
-73.6037
-67.3188
-60.6364
-53.9285
-47.4887
-41.5163
-36.1217
-31.3422
-27.164
-23.5419
-20.4148
-17.7172
-15.3852
-13.3608
-11.593
-10.038
-8.65899
-7.42484
-6.30949
-5.29091
-4.35026
-3.47108
-2.63866
-1.83937
-1.06012
-0.286802
-93.6971
-92.0694
-88.7633
-83.8239
-77.5045
-70.3026
-62.7505
-55.3001
-48.2802
-41.8901
-36.2176
-31.2686
-26.9976
-23.3332
-20.1947
-17.503
-15.1857
-13.1797
-11.4311
-9.89472
-8.5331
-7.31506
-6.21462
-5.20997
-4.28248
-3.41596
-2.59594
-1.80908
-1.04258
-0.282611
-101.288
-99.4626
-95.6663
-89.9425
-82.5735
-74.1132
-65.3843
-56.9545
-49.1913
-42.2838
-36.2799
-31.1372
-26.7662
-23.0608
-19.916
-17.2365
-14.9403
-12.9584
-11.2342
-9.72098
-8.38083
-7.18251
-6.10026
-5.11251
-4.20097
-3.34974
-2.54467
-1.77275
-1.02154
-0.27761
-111.084
-109.071
-104.716
-97.9074
-89.1606
-79.0288
-68.6643
-58.9285
-50.2162
-42.6777
-36.2893
-30.9342
-26.4615
-22.7208
-19.5775
-16.918
-14.6498
-12.6981
-11.0034
-9.5179
-8.20314
-7.02805
-5.96713
-4.99917
-4.10626
-3.27287
-2.48521
-1.73065
-0.997179
-0.271845
-123.696
-121.966
-117.054
-108.72
-97.8933
-85.4573
-72.7939
-61.275
-51.346
-43.0467
-36.2234
-30.6448
-26.0759
-22.3101
-19.1787
-16.5484
-14.3156
-12.4004
-10.7403
-9.28676
-8.00116
-6.85263
-5.81605
-4.87065
-3.99895
-3.18584
-2.41795
-1.68308
-0.969684
-0.265364
-140.172
-139.675
-134.606
-124.056
-109.849
-93.88
-77.9864
-64.0286
-52.5518
-43.3541
-36.0554
-30.2541
-25.6027
-21.827
-18.7204
-16.1293
-13.9398
-12.0669
-10.4464
-9.02899
-7.7761
-6.65729
-5.64791
-4.72772
-3.8797
-3.08921
-2.34334
-1.63036
-0.939253
-0.258217
-162.77
-164.577
-159.615
-145.758
-126.144
-104.689
-84.2158
-67.109
-53.7512
-43.5417
-35.753
-29.7475
-25.0372
-21.2717
-18.2047
-15.6633
-13.5247
-11.7
-10.1237
-8.74612
-7.52927
-6.44314
-5.46367
-4.57118
-3.74917
-2.98353
-2.26183
-1.57284
-0.906091
-0.250451
-193.539
-198.577
-193.128
-174.126
-146.541
-117.437
-91.0269
-70.2127
-54.7674
-43.5195
-35.2769
-29.1114
-24.3775
-20.6462
-17.6346
-15.1534
-13.0729
-11.3018
-9.77379
-8.43971
-7.26199
-6.21132
-5.2643
-4.40187
-3.60811
-2.86942
-2.1739
-1.51086
-0.870406
-0.242113
-230.754
-238.097
-231.229
-205.334
-168.122
-129.935
-97.2992
-72.713
-55.3015
-43.1645
-34.5847
-28.3357
-23.6242
-19.954
-17.0137
-14.6027
-12.587
-10.8742
-9.3985
-8.11119
-6.9755
-5.96292
-5.05077
-4.22064
-3.45722
-2.74747
-2.08004
-1.44478
-0.83241
-0.233246
-263.77
-273.003
-265.11
-231.096
-184.565
-138.586
-100.984
-73.6566
-54.9622
-42.3366
-33.6354
-27.4132
-22.7796
-19.1992
-16.3457
-14.0139
-12.0691
-10.4192
-8.99939
-7.7619
-6.67099
-5.69898
-4.82398
-4.02827
-3.29717
-2.61823
-1.98067
-1.37492
-0.792284
-0.223877
-278.047
-292.747
-283.981
-242.248
-188.695
-139.078
-99.9576
-72.1266
-53.3978
-40.9154
-32.393
-26.3358
-21.844
-18.384
-15.6334
-13.3901
-11.5221
-9.93947
-8.57886
-7.39406
-6.3504
-5.42119
-4.58539
-3.826
-3.129
-2.48256
-1.87646
-1.30173
-0.750291
-0.214071
70.0801
70.1409
70.2948
70.535
70.8393
71.1963
71.6031
72.0559
72.5476
73.07
73.6128
74.164
74.7088
75.2291
75.7024
76.1005
76.3877
76.5177
76.4297
76.042
75.2415
73.8666
71.6775
68.3018
63.1267
55.0697
42.016
19.1924
-28.812
-177.318
69.4116
69.4638
69.596
69.8018
70.0607
70.3619
70.7017
71.0754
71.4753
71.8917
72.3131
72.7259
73.1132
73.4546
73.7246
73.8915
73.9149
73.7429
73.3068
72.5144
71.2378
69.2939
66.4104
62.1633
55.8535
46.2499
31.0112
5.69624
-34.8824
-99.2419
68.7061
68.7494
68.8591
69.0295
69.2419
69.4859
69.7573
70.0506
70.3572
70.6664
70.9656
71.2394
71.4696
71.6334
71.7032
71.6445
71.4136
70.9546
70.1945
69.0362
67.3471
64.9415
61.5525
56.7851
50.0426
40.4263
26.6596
7.15763
-18.1834
-48.9597
67.9651
67.9993
68.0862
68.2206
68.3858
68.5719
68.7742
68.9865
69.1995
69.4016
69.5791
69.7156
69.7913
69.7822
69.659
69.3855
68.9165
68.1946
67.1467
65.6771
63.6596
60.9251
57.2452
52.3114
45.7163
36.9534
25.4692
10.6679
-7.90182
-30.5326
67.1907
67.2156
67.2796
67.3778
67.4955
67.6236
67.7569
67.8884
68.0085
68.1048
68.1629
68.1655
68.0921
67.9178
67.6126
67.1399
66.4546
65.501
64.2092
62.4912
60.2354
57.3005
53.509
48.6426
42.4443
34.6293
24.9113
13.002
-1.31947
-17.4981
66.3852
66.401
66.4421
66.5042
66.5747
66.6452
66.7101
66.7621
66.791
66.7842
66.7268
66.601
66.386
66.0569
65.5838
64.9312
64.0559
62.9058
61.4177
59.515
57.1048
54.0764
50.3003
45.6303
39.9104
32.9882
24.7412
15.118
4.20925
-7.40723
65.5516
65.5584
65.5768
65.6033
65.6273
65.6412
65.6393
65.6138
65.5544
65.4484
65.2807
65.0337
64.6867
64.2154
63.5912
62.7805
61.7436
60.434
58.7969
56.7688
54.2766
51.2382
47.5648
43.1655
37.9561
31.8737
24.8988
17.0845
8.58005
-0.234404
64.6931
64.6911
64.6874
64.679
64.6577
64.6167
64.5501
64.4499
64.3061
64.1059
63.8346
63.475
63.0071
62.4081
61.6511
60.7056
59.5365
58.1036
56.3617
54.2605
51.7455
48.7596
45.2466
41.1564
36.4531
31.1261
25.2034
18.766
11.9562
5.04581
63.8134
63.8028
63.7777
63.7357
63.6707
63.5769
63.4483
63.2772
63.0536
62.7652
62.398
61.9356
61.3593
60.6479
59.7774
58.7207
57.4479
55.9257
54.1184
51.9881
49.4967
46.6074
43.2885
39.5181
35.2901
30.6211
25.5583
20.1861
14.6306
9.08994
62.9163
62.8976
62.8521
62.7779
62.6712
62.5273
62.3402
62.1024
61.8044
61.4348
60.9803
60.4257
59.754
58.9462
57.9814
56.8364
55.4866
53.9056
52.0666
49.9428
47.5092
44.745
41.636
38.1788
34.3842
30.2818
25.9242
21.3892
16.7807
12.2403
62.0064
61.98
61.9151
61.8104
61.6645
61.4735
61.2317
60.9322
60.5659
60.1225
59.5897
58.9541
58.2003
57.3121
56.2715
55.0597
53.6571
52.0439
50.2009
48.1107
45.7589
43.1363
40.2407
37.0798
33.6734
30.0559
26.2775
22.4053
18.5212
14.7268
61.0882
61.0546
60.9716
60.8385
60.656
60.4213
60.1292
59.7731
59.345
58.8357
58.2342
57.5286
56.7061
55.7526
54.6538
53.3946
51.9605
50.3372
48.5122
46.4756
44.221
41.7473
39.0601
36.1733
33.1104
29.9056
26.604
23.2608
19.9396
16.7134
60.1668
60.1264
60.0267
59.8674
59.6512
59.3765
59.0386
58.6316
58.1485
57.5812
56.9204
56.1561
55.2773
54.2731
53.1319
51.8426
50.3949
48.7795
46.9893
45.02
42.8712
40.5471
38.058
35.4206
32.659
29.8049
26.8969
23.9797
21.1021
18.3168
59.2472
59.2008
59.0858
58.9026
58.6557
58.3449
57.966
57.5138
56.9824
56.3652
55.6544
54.8418
53.9189
52.8769
51.7075
50.4028
48.9563
47.3629
45.6195
43.7262
41.6865
39.5082
37.2037
34.7907
32.292
29.7357
27.1542
24.583
22.0595
19.6221
58.3348
58.283
58.1543
57.9495
57.6752
57.3322
56.9171
56.4255
55.8526
55.1932
54.4413
53.5904
52.6341
51.5661
50.3807
49.073
47.6396
46.0785
44.39
42.5773
40.6463
38.6068
36.4719
34.259
31.9889
29.6857
27.3761
25.0884
22.851
20.6924
57.4353
57.3786
57.2377
57.0138
56.7152
56.3441
55.8975
55.372
54.7642
54.0701
53.2853
52.4052
51.4252
50.3414
49.1503
47.8496
46.4383
44.917
43.2883
41.5575
39.732
37.8224
35.8418
33.8064
31.7346
29.6468
27.5648
25.5111
23.5075
21.5751
56.5543
56.4933
56.3418
56.1012
55.7815
55.386
54.9126
54.3587
53.722
53.0001
52.19
51.2887
50.2937
49.2027
48.0143
46.7284
45.3457
43.869
42.3025
40.6525
38.9274
37.1379
35.2965
33.4177
31.5176
29.6135
27.723
25.8639
24.0531
22.3064
55.6976
55.633
55.4722
55.2173
54.8795
54.4634
53.9675
53.3902
52.7304
51.987
51.1583
50.243
49.2401
48.149
46.9701
45.7046
44.3552
42.9257
41.4214
39.8495
38.2186
36.5389
34.8221
33.0811
31.3299
29.5826
27.8539
26.1577
24.5072
22.9144
54.8712
54.8034
54.6349
54.3677
54.0147
53.5814
53.0671
52.4711
51.7934
51.034
50.1927
49.2694
48.2646
47.1791
46.0146
44.7738
43.4602
42.0787
40.6354
39.1376
37.5938
36.0137
34.4079
32.7878
31.1653
29.5523
27.9606
26.4014
24.8851
23.4209
54.0809
54.0106
53.8355
53.5582
53.1925
52.7452
52.2163
51.6057
50.9145
50.144
49.2951
48.3689
47.367
46.2914
45.1449
43.9312
42.6547
41.3207
39.9358
38.5072
37.0432
35.5526
34.0452
32.5308
31.0196
29.5215
28.0463
26.6029
25.1995
23.8433
53.3329
53.2604
53.08
52.7943
52.4184
51.9598
51.4194
50.798
50.0974
49.3199
48.4674
47.5423
46.5469
45.4843
44.3582
43.1728
41.9332
40.6452
39.3152
37.9504
36.5586
35.148
33.7272
32.3049
30.8898
29.4901
28.1139
26.7685
25.4604
24.1952
52.6334
52.5591
52.3742
52.0817
51.6975
51.2302
50.6812
50.0519
49.3452
48.564
47.7114
46.7902
45.804
44.7564
43.6517
42.4948
41.2911
40.0464
38.7672
37.4605
36.1335
34.7937
33.4488
32.1064
30.7738
29.4583
28.1663
26.9038
25.6762
24.4879
51.9885
51.9127
51.7241
51.426
51.0353
50.5614
50.0061
49.3715
48.6612
47.879
47.0286
46.1136
45.1381
44.1065
43.0235
41.8942
40.7244
39.5199
38.287
37.0324
35.7627
34.485
33.206
31.9324
30.6706
29.4266
28.2059
27.0135
25.8538
24.7303
51.4047
51.3276
51.1358
50.8331
50.4372
49.9581
49.3984
48.7606
48.0488
47.2675
46.4209
45.5134
44.5494
43.5339
42.4718
41.3686
40.23
39.0619
37.8704
36.6618
35.4423
34.2184
32.996
31.7811
30.5793
29.3957
28.2351
27.1016
25.9987
24.9295
50.8887
50.8103
50.6154
50.3085
49.9083
49.4255
48.8628
48.2232
47.5113
46.7321
45.8904
44.9908
44.0384
43.0383
41.9958
40.9164
39.8058
38.6699
37.5146
36.3458
35.1694
33.9912
32.8168
31.6514
30.4998
29.3667
28.256
27.1713
26.1157
25.0915
50.4478
50.3676
50.1691
49.8581
49.4543
48.9686
48.4039
47.7635
47.0524
46.276
45.4394
44.5478
43.6062
42.6202
41.5951
40.5366
39.4504
38.3421
37.2176
36.0824
34.9421
33.802
32.6673
31.5425
30.4323
29.3404
28.2705
27.2257
26.2084
25.221
50.09
50.0068
49.8031
49.4874
49.0804
48.5925
48.0265
47.3859
46.676
45.9026
45.0709
44.1864
43.2545
42.2806
41.2703
40.2294
39.1634
38.0779
36.9785
35.8706
34.7594
33.6499
32.5469
31.4546
30.3771
29.3179
28.2803
27.2668
26.2799
25.3214
49.8253
49.7351
49.5233
49.2028
48.793
48.3032
47.736
47.0954
46.3868
45.6159
44.7885
43.9099
42.9857
42.0215
41.023
39.9957
38.9454
37.8775
36.7974
35.7103
34.6212
33.5349
32.4558
31.3879
30.3349
29.3003
28.2867
27.2968
26.3326
25.3957
49.6691
49.5551
49.3294
49.0058
48.5953
48.1046
47.5369
46.8965
46.189
45.4203
44.5959
43.7215
42.8028
41.8455
40.8551
39.8374
38.7979
37.742
36.675
35.602
34.528
33.4573
32.3943
31.3428
30.3064
29.2881
28.2908
27.3166
26.3675
25.4451
49.6585
49.4916
49.2415
48.912
48.4993
48.0067
47.4379
46.7973
46.0902
45.3225
44.4998
43.6277
42.7119
41.7581
40.7719
39.7591
38.7251
37.6753
36.615
35.5492
34.4826
33.4198
32.3649
31.3216
30.2935
29.2834
28.2941
27.3278
26.3863
25.4711
-438.086
-417.99
-336.823
-162.913
-185.092
-192.568
-91.0323
-121.35
-141.096
-59.5393
-78.7145
-90.5555
-34.6757
-46.0761
-53.9421
-18.6816
-26.3443
-32.069
-8.30806
-13.7355
-17.9315
-0.969183
-4.97223
-8.1651
4.44209
1.36204
-1.16442
8.53064
6.07979
4.02139
11.6877
9.68415
7.96612
14.1685
12.493
11.0295
16.1455
14.7171
13.4491
17.7394
16.5013
15.3867
19.0369
17.9484
16.9565
20.1013
19.1324
18.24
20.9801
20.108
19.2976
21.709
20.9164
20.174
22.3157
21.5887
20.9034
22.8216
22.1493
21.5121
23.2435
22.6171
22.0206
23.5948
23.0069
22.4448
23.8864
23.3307
22.7977
24.1267
23.5979
23.0894
24.3227
23.8161
23.3279
24.4797
23.9911
23.5195
24.6018
24.1275
23.669
24.6923
24.2285
23.7798
24.7525
24.2959
23.8538
24.7841
24.331
23.8922
-252.906
-277.618
-273.468
-229.115
-175.554
-128.945
-93.1367
-67.6943
-50.4371
-38.818
-30.8062
-25.067
-20.7897
-17.4872
-14.8599
-12.7177
-10.9349
-9.4257
-8.12924
-7.00117
-6.00825
-5.12493
-4.33111
-3.61059
-2.95006
-2.33833
-1.76581
-1.22412
-0.705823
-0.203665
-206.093
-226.176
-217.298
-184.062
-144.479
-109.163
-81.2373
-60.6729
-46.1603
-36.0238
-28.825
-23.5574
-19.5768
-16.478
-14.002
-11.9788
-10.2937
-8.86691
-7.64159
-6.57593
-5.63853
-4.80524
-4.05706
-3.37872
-2.75769
-2.18349
-1.64717
-1.14101
-0.658237
-0.192436
-156.77
-162.434
-154.22
-135.206
-111.208
-87.8569
-68.1227
-52.7238
-41.2253
-32.7777
-26.5352
-21.8351
-18.2142
-15.3603
-13.0624
-11.1763
-9.60142
-8.26631
-7.11911
-6.12138
-5.24406
-4.46466
-3.7655
-3.13234
-2.55353
-2.01935
-1.52158
-1.05315
-0.60797
-0.180481
-101.236
-105.494
-103.741
-95.8393
-83.1689
-68.9733
-55.8268
-44.8102
-36.0462
-29.2451
-23.9973
-19.9186
-16.7046
-14.1314
-12.0377
-10.3073
-8.85602
-7.62241
-6.56084
-5.63697
-4.82453
-4.10308
-3.45641
-2.87151
-2.33768
-1.84606
-1.38916
-0.960619
-0.555049
-0.167751
-62.7308
-68.775
-70.9469
-68.4072
-61.8932
-53.4785
-44.9736
-37.3254
-30.8512
-25.5494
-21.2751
-17.8388
-15.0618
-12.7971
-10.9299
-9.37221
-8.05749
-6.93521
-5.96687
-5.12288
-4.38023
-3.72081
-3.13015
-2.59657
-2.11047
-1.66388
-1.25012
-0.863571
-0.499554
-0.154221
-38.8556
-44.5808
-47.8279
-47.8589
-45.0332
-40.4985
-35.3545
-30.3127
-25.738
-21.7716
-18.4217
-15.6275
-13.304
-11.3674
-9.74433
-8.37409
-7.20759
-6.20585
-5.33804
-4.57981
-3.91176
-3.3184
-2.78722
-2.30798
-1.87229
-1.47314
-1.10472
-0.762179
-0.441559
-0.139856
-23.0881
-28.0047
-31.4967
-32.8922
-32.2225
-30.0934
-27.1865
-24.019
-20.9188
-18.0664
-15.5389
-13.3474
-11.4683
-9.86372
-8.49362
-7.32034
-6.31086
-5.43725
-4.67637
-4.00922
-3.42027
-2.89681
-2.42838
-2.00638
-1.62365
-1.27426
-0.953278
-0.65665
-0.381159
-0.124625
-12.2195
-16.4158
-19.7738
-21.7528
-22.2523
-21.5896
-20.1801
-18.3719
-16.4181
-14.4872
-12.6787
-11.0401
-9.58476
-8.30705
-7.19184
-6.22041
-5.37368
-4.63382
-3.98497
-3.41342
-2.9075
-2.45735
-2.0547
-1.69261
-1.36524
-1.06777
-0.796173
-0.547231
-0.318466
-0.1085
-4.4556
-8.05004
-11.1309
-13.3054
-14.4342
-14.6683
-14.2497
-13.403
-12.3113
-11.1144
-9.90972
-8.75792
-7.69142
-6.72383
-5.85715
-5.08675
-4.40464
-3.80156
-3.26814
-2.79554
-2.37579
-2.00185
-1.66759
-1.36776
-1.09791
-0.854298
-0.633868
-0.434216
-0.253614
-0.0914597
1.2823
-1.82869
-4.61636
-6.80048
-8.24456
-9.01037
-9.23403
-9.05571
-8.60164
-7.97878
-7.27088
-6.53787
-5.8191
-5.13823
-4.50777
-3.93277
-3.41356
-2.94766
-2.53115
-2.15951
-1.82812
-1.53255
-1.26878
-1.0332
-0.822681
-0.634622
-0.466907
-0.317954
-0.186772
-0.0734992
5.63768
2.91232
0.395136
-1.71229
-3.29228
-4.36202
-4.99465
-5.27424
-5.28401
-5.10143
-4.79302
-4.41152
-3.99591
-3.57344
-3.16203
-2.7726
-2.41114
-2.0802
-1.78014
-1.50999
-1.26803
-1.0522
-0.860373
-0.69051
-0.540782
-0.409652
-0.295933
-0.198849
-0.11813
-0.0546209
9.01498
6.60047
4.32201
2.32673
0.710984
-0.521552
-1.40755
-1.99504
-2.33662
-2.48588
-2.49286
-2.4006
-2.24386
-2.04934
-1.83675
-1.61995
-1.40829
-1.20773
-1.02174
-0.852124
-0.699525
-0.563899
-0.444793
-0.341585
-0.253645
-0.180452
-0.121698
-0.07739
-0.0479471
-0.034865
11.6803
9.51977
7.44848
5.57569
3.9788
2.67026
1.63389
0.844105
0.269304
-0.126032
-0.377844
-0.519398
-0.579589
-0.582363
-0.546796
-0.487571
-0.415637
-0.338907
-0.262927
-0.191466
-0.127001
-0.0711066
-0.024745
0.0114744
0.0371188
0.0517797
0.0549407
0.0458735
0.0235029
-0.0142816
13.8145
11.8641
9.97167
8.21975
6.67024
5.33844
4.21937
3.30098
2.56562
1.99087
1.55201
1.22447
0.985433
0.814768
0.695365
0.613166
0.556935
0.517906
0.489377
0.466304
0.44493
0.422463
0.396811
0.366344
0.329717
0.285697
0.233027
0.170312
0.0958708
0.00704234
15.544
13.7695
12.0314
10.3932
8.90467
7.58105
6.42328
5.42726
4.58431
3.88119
3.30168
2.8284
2.44413
2.13275
1.87976
1.67256
1.50053
1.35486
1.22843
1.11552
1.01157
0.912964
0.81676
0.72054
0.622199
0.519811
0.411481
0.295216
0.168776
0.0290043
16.9593
15.3333
13.7287
12.195
10.7723
9.47506
8.30687
7.26818
6.3559
5.56302
4.87953
4.29371
3.79313
3.36541
2.99883
2.68267
2.40741
2.16481
1.94786
1.75065
1.56823
1.39647
1.23187
1.07145
0.91251
0.752554
0.58915
0.419791
0.241763
0.0514652
18.1267
16.6272
15.1381
13.699
12.3424
11.0812
9.92038
8.86267
7.90837
7.05456
6.29568
5.62428
5.03179
4.50913
4.0472
3.63724
3.27114
2.94154
2.6419
2.3665
2.11034
1.86906
1.63887
1.41638
1.19847
0.982235
0.764799
0.543217
0.314352
0.074246
19.0956
17.7043
16.3155
14.9612
13.6681
12.4476
11.3049
10.2439
9.26685
8.37348
7.56122
6.8258
6.16165
5.56243
5.02135
4.53158
4.08644
3.67965
3.30537
2.95829
2.6336
2.32698
2.03451
1.75259
1.47786
1.20709
0.937082
0.664546
0.386
0.0971572
19.9034
18.6051
17.3035
16.0247
14.7911
13.6125
12.494
11.4399
10.4535
9.53616
8.68728
7.90484
7.1856
6.52536
5.91934
5.36238
4.84923
4.37468
3.93373
3.52163
3.13396
2.76657
2.4156
2.07738
1.74844
1.42534
1.10465
0.782825
0.456103
0.119953
20.5787
19.3607
18.1348
16.9229
15.744
14.6066
13.5153
12.4744
11.4878
10.5576
9.68465
8.86848
8.1075
7.39922
6.74044
6.12749
5.55638
5.02296
4.52309
4.05267
3.60773
3.18443
2.77907
2.38809
2.00795
1.63514
1.26609
0.897059
0.524078
0.142408
21.144
19.9952
18.8351
17.6821
16.5529
15.4546
14.3913
13.3672
12.3863
11.4511
10.5634
9.72369
8.93161
8.18594
7.48478
6.82563
6.20563
5.6216
5.07019
4.54798
4.05152
3.57734
3.12201
2.68211
2.25417
1.83467
1.41996
1.0062
0.58925
0.164237
21.6168
20.5275
19.4244
18.3232
17.2385
16.1763
15.1405
14.1349
13.1632
12.2284
11.3327
10.4772
9.66237
8.888
8.15312
7.45623
6.79537
6.16825
5.57225
5.00458
4.4623
3.94237
3.44167
2.95697
2.48494
2.02211
1.56482
1.10919
0.650973
0.185178
22.011
20.9727
19.9186
18.8626
17.8171
16.7878
15.778
14.7911
13.8307
12.8997
12.0006
11.1351
10.304
9.50788
8.74648
8.01909
7.32448
6.66107
6.02691
5.4198
4.83729
4.27677
3.73541
3.21025
2.69813
2.19567
1.69927
1.205
0.708565
0.204937
22.3375
21.3427
20.3305
19.3132
18.3021
17.3021
16.316
15.3471
14.3986
13.4735
12.5743
11.7028
10.8605
10.0481
9.2661
8.51431
7.79212
7.09852
6.43214
5.79128
5.17397
4.57795
4.00075
3.43965
2.89168
2.35358
1.82182
1.2925
0.761327
0.223223
22.6052
21.6468
20.6699
19.6855
18.7038
17.7292
16.7644
15.812
14.8752
13.9569
13.0594
12.1849
11.3349
10.5107
9.71292
8.94191
8.19752
7.47921
6.78608
6.11686
5.46998
4.84353
4.23534
3.64294
3.06356
2.49409
1.93108
1.37069
0.808594
0.23974
22.8207
21.8924
20.9445
19.9873
19.0302
18.0772
17.1306
16.1928
15.2668
14.3553
13.4607
12.585
11.7301
10.8974
10.0877
9.30182
8.53988
7.80174
7.08687
6.39435
5.72294
5.07107
4.4368
3.8179
3.21177
2.61546
2.02562
1.43844
0.849651
0.254192
22.9891
22.0847
21.16
20.2246
19.2874
18.352
17.4203
16.4948
15.5781
14.6728
13.7813
12.9056
12.0477
11.2089
10.3906
9.59348
8.81811
8.06458
7.33262
6.62162
5.9306
5.25824
4.60284
3.96236
3.33436
2.716
2.10402
1.49471
0.883812
0.266294
23.1141
22.2276
21.3204
20.4015
19.4793
18.5573
17.6372
16.7212
15.8119
14.9118
14.0231
13.1479
12.2881
11.4454
10.6209
9.81578
9.03061
8.26572
7.52106
6.79621
6.09042
5.40254
4.73104
4.07403
3.42922
2.79388
2.16483
1.5384
0.910373
0.275756
23.1976
22.3233
21.4278
20.52
19.6081
18.6953
17.7831
16.8737
15.9696
15.073
14.1864
13.3118
12.451
11.6057
10.7774
9.96696
9.17531
8.40286
7.64968
6.9155
6.19971
5.50129
4.81884
4.15058
3.49429
2.84732
2.20656
1.56837
0.92859
0.282271
23.2407
22.3723
21.4827
20.5804
19.6736
18.7653
17.8571
16.951
16.0494
15.1547
14.2692
13.3948
12.5335
11.6869
10.8565
10.0434
9.24848
8.4722
7.71472
6.97585
6.25502
5.55129
4.86333
4.18938
3.52729
2.87446
2.22778
1.58364
0.937892
0.285678
)
;

boundaryField
{
    inlet
    {
        type            zeroGradient;
    }
    outlet
    {
        type            fixedValue;
        value           uniform 0;
    }
    flap
    {
        type            zeroGradient;
    }
    upperWall
    {
        type            zeroGradient;
    }
    lowerWall
    {
        type            zeroGradient;
    }
    frontAndBack
    {
        type            empty;
    }
}


// ************************************************************************* //
