/*--------------------------------*- C++ -*----------------------------------*\
| =========                 |                                                 |
| \\      /  F ield         | OpenFOAM: The Open Source CFD Toolbox           |
|  \\    /   O peration     | Version:  dev                                   |
|   \\  /    A nd           | Web:      www.OpenFOAM.org                      |
|    \\/     M anipulation  |                                                 |
\*---------------------------------------------------------------------------*/
FoamFile
{
    version     2.0;
    format      ascii;
    class       surfaceScalarField;
    location    "3.53";
    object      meshPhi;
}
// * * * * * * * * * * * * * * * * * * * * * * * * * * * * * * * * * * * * * //

dimensions      [0 3 -1 0 0 0 0];

internalField   nonuniform List<scalar> 
5457
(
1.6752e-07
4.15101e-08
6.02684e-07
1.16397e-07
1.4912e-06
1.75774e-07
2.90233e-06
2.18592e-07
4.79884e-06
2.45619e-07
7.06576e-06
2.58046e-07
9.53668e-06
2.57384e-07
1.20191e-05
2.45438e-07
1.43178e-05
2.24289e-07
1.62554e-05
1.96262e-07
1.76888e-05
1.63855e-07
1.8522e-05
1.29626e-07
1.87122e-05
9.60326e-08
1.82717e-05
6.52526e-08
1.72632e-05
3.8999e-08
1.57902e-05
1.83728e-08
1.39838e-05
3.78251e-09
1.19874e-05
-5.04612e-09
9.94148e-06
-8.9621e-09
7.9711e-06
-9.20054e-09
6.11413e-06
-7.38797e-09
4.4189e-06
-5.01074e-09
3.00204e-06
-2.75595e-09
1.90641e-06
-9.68566e-10
1.10981e-06
1.0776e-10
5.73159e-07
5.21033e-10
2.47482e-07
4.99624e-10
7.95001e-08
3.10064e-10
1.55796e-08
1.43175e-10
2.40446e-11
1.22617e-07
8.32438e-08
5.24343e-07
2.33411e-07
1.39168e-06
3.52475e-07
2.79234e-06
4.38367e-07
4.68845e-06
4.92641e-07
6.96398e-06
5.17671e-07
9.45104e-06
5.16464e-07
1.19554e-05
4.92611e-07
1.42797e-05
4.50256e-07
1.62443e-05
3.94036e-07
1.77041e-05
3.28946e-07
1.85606e-05
2.60109e-07
1.87696e-05
1.92469e-07
1.83421e-05
1.30418e-07
1.73404e-05
7.74273e-08
1.58681e-05
3.57472e-08
1.40573e-05
6.23454e-09
1.20524e-05
-1.1633e-08
9.99505e-06
-1.95468e-08
8.01017e-06
-1.99924e-08
6.14491e-06
-1.62183e-08
4.44403e-06
-1.12141e-08
3.01797e-06
-6.43515e-09
1.9161e-06
-2.61767e-09
1.11521e-06
-2.54128e-10
5.75784e-07
7.44214e-10
2.48514e-07
8.31445e-10
7.98047e-08
5.3885e-10
1.56522e-08
2.48954e-10
4.86211e-11
6.48524e-08
1.25189e-07
4.20302e-07
3.51009e-07
1.25374e-06
5.30067e-07
2.63169e-06
6.59308e-07
4.51572e-06
7.41086e-07
6.78905e-06
7.78953e-07
9.2829e-06
7.77389e-07
1.18018e-05
7.41742e-07
1.41471e-05
6.78185e-07
1.61374e-05
5.93637e-07
1.76254e-05
4.95567e-07
1.85107e-05
3.91663e-07
1.87469e-05
2.89368e-07
1.83435e-05
1.95327e-07
1.7361e-05
1.14831e-07
1.59026e-05
5.13485e-08
1.40999e-05
6.25823e-09
1.20977e-05
-2.11468e-08
1.00381e-05
-3.33572e-08
8.04694e-06
-3.4093e-08
6.17715e-06
-2.81882e-08
4.47162e-06
-2.01418e-08
3.0378e-06
-1.23073e-08
1.9294e-06
-5.91983e-09
1.12324e-06
-1.76551e-09
5.79947e-07
2.44974e-10
2.50232e-07
7.6627e-10
8.03204e-08
5.84309e-10
1.57695e-08
2.82933e-10
5.84748e-11
-2.72615e-09
1.67306e-07
2.94951e-07
4.69097e-07
1.08198e-06
7.08433e-07
2.42428e-06
8.81305e-07
4.28294e-06
9.90883e-07
6.54093e-06
1.04189e-06
9.02922e-06
1.04025e-06
1.15521e-05
9.9302e-07
1.39102e-05
9.08364e-07
1.59212e-05
7.95428e-07
1.74366e-05
6.64112e-07
1.83541e-05
5.24645e-07
1.86251e-05
3.8697e-07
1.82567e-05
2.6002e-07
1.73075e-05
1.50969e-07
1.58782e-05
6.45949e-08
1.40991e-05
2.90583e-09
1.21141e-05
-3.48846e-08
1.00651e-05
-5.19776e-08
8.07889e-06
-5.32698e-08
6.2097e-06
-4.50992e-08
4.50127e-06
-3.34544e-08
3.06195e-06
-2.17558e-08
1.94694e-06
-1.19283e-08
1.13446e-06
-5.15782e-09
5.86036e-07
-1.42953e-09
2.52854e-07
6.30781e-11
8.11353e-08
3.43847e-10
1.5948e-08
2.17516e-10
4.87787e-11
-8.91771e-08
2.09614e-07
1.33142e-07
5.87734e-07
8.58539e-07
8.87688e-07
2.1523e-06
1.10454e-06
3.97497e-06
1.24231e-06
6.20921e-06
1.30686e-06
8.68591e-06
1.30554e-06
1.12092e-05
1.24708e-06
1.35794e-05
1.14155e-06
1.56134e-05
1.00024e-06
1.71613e-05
8.35442e-07
1.81189e-05
6.59867e-07
1.8435e-05
4.85953e-07
1.81137e-05
3.24949e-07
1.72106e-05
1.85982e-07
1.58237e-05
7.52542e-08
1.40808e-05
-4.4601e-09
1.21242e-05
-5.38802e-08
1.00951e-05
-7.67876e-08
8.12021e-06
-7.91618e-08
6.2542e-06
-6.86921e-08
4.5425e-06
-5.27716e-08
3.09606e-06
-3.61212e-08
1.97202e-06
-2.16607e-08
1.15067e-06
-1.11381e-08
5.94941e-07
-4.7174e-09
2.56763e-07
-1.50981e-09
8.23794e-08
-2.78141e-10
1.62144e-08
2.83988e-11
1.60492e-11
-1.95089e-07
2.52131e-07
-6.58943e-08
7.06975e-07
5.82555e-07
1.06793e-06
1.81477e-06
1.32919e-06
3.59061e-06
1.49561e-06
5.79241e-06
1.57423e-06
8.25105e-06
1.57379e-06
1.07708e-05
1.5046e-06
1.31518e-05
1.37856e-06
1.52105e-05
1.20905e-06
1.67955e-05
1.01062e-06
1.78006e-05
7.98419e-07
1.81719e-05
5.87344e-07
1.791e-05
3.90977e-07
1.70667e-05
2.2047e-07
1.57363e-05
8.35717e-08
1.40435e-05
-1.60138e-08
1.21278e-05
-7.87539e-08
1.01291e-05
-1.08834e-07
8.17375e-06
-1.1318e-07
6.31444e-06
-1.00579e-07
4.59839e-06
-7.96481e-08
3.14206e-06
-5.67114e-08
2.0058e-06
-3.6122e-08
1.17251e-06
-2.04129e-08
6.06986e-07
-1.0059e-08
2.62101e-07
-4.18405e-09
8.40988e-08
-1.37573e-09
1.65757e-08
-3.09474e-10
-4.28306e-11
-3.20979e-07
2.94871e-07
-3.02893e-07
8.26868e-07
2.53211e-07
1.24925e-06
1.4108e-06
1.55537e-06
3.12875e-06
1.751e-06
5.28902e-06
1.84436e-06
7.72261e-06
1.8455e-06
1.02341e-05
1.76629e-06
1.26239e-05
1.62034e-06
1.4708e-05
1.42298e-06
1.63341e-05
1.19095e-06
1.73936e-05
9.41724e-07
1.78298e-05
6.92603e-07
1.76394e-05
4.59492e-07
1.68698e-05
2.55631e-07
1.56108e-05
9.04358e-08
1.39828e-05
-3.1275e-08
1.21219e-05
-1.095e-07
1.01657e-05
-1.48606e-07
8.2395e-06
-1.5627e-07
6.39131e-06
-1.42015e-07
4.66965e-06
-1.1538e-07
3.20008e-06
-8.46564e-08
2.04811e-06
-5.62046e-08
1.19974e-06
-3.36251e-08
6.21959e-07
-1.78626e-08
2.68734e-07
-8.17653e-09
8.62347e-08
-3.03775e-09
1.70142e-08
-8.21029e-10
-1.30862e-10
-4.67373e-07
3.37855e-07
-5.78614e-07
9.47463e-07
-1.3028e-07
1.43171e-06
9.39547e-07
1.78321e-06
2.58839e-06
2.0087e-06
4.69766e-06
2.11756e-06
7.09859e-06
2.1212e-06
9.59635e-06
2.03288e-06
1.19919e-05
1.86788e-06
1.41012e-05
1.64333e-06
1.5771e-05
1.37799e-06
1.6891e-05
1.09157e-06
1.74011e-05
8.0367e-07
1.72938e-05
5.32483e-07
1.66116e-05
2.93369e-07
1.5439e-05
9.7527e-08
1.38911e-05
-4.89222e-08
1.20997e-05
-1.45263e-07
1.01991e-05
-1.95774e-07
8.31279e-06
-2.08633e-07
6.48121e-06
-1.93615e-07
4.75324e-06
-1.60764e-07
3.26747e-06
-1.20728e-07
2.09685e-06
-8.25687e-08
1.23083e-06
-5.12845e-08
6.3889e-07
-2.84709e-08
2.76158e-07
-1.36788e-08
8.85928e-08
-5.34668e-09
1.74811e-08
-1.53072e-09
-2.5243e-10
-6.34842e-07
3.81104e-07
-8.93836e-07
1.06881e-06
-5.68611e-07
1.61539e-06
4.00411e-07
2.0128e-06
1.96881e-06
2.26885e-06
4.01724e-06
2.39415e-06
6.37722e-06
2.40137e-06
8.85484e-06
2.30516e-06
1.1252e-05
2.12228e-06
1.33849e-05
1.87153e-06
1.50999e-05
1.57356e-06
1.62847e-05
1.25012e-06
1.68762e-05
9.22987e-07
1.68625e-05
6.1258e-07
1.62806e-05
3.36371e-07
1.52088e-05
1.07434e-07
1.37563e-05
-6.66284e-08
1.20494e-05
-1.84127e-07
1.02181e-05
-2.48941e-07
8.38319e-06
-2.69439e-07
6.57496e-06
-2.55065e-07
4.84162e-06
-2.1584e-07
3.33824e-06
-1.65162e-07
2.14755e-06
-1.15533e-07
1.26275e-06
-7.37127e-08
6.55956e-07
-4.21444e-08
2.83456e-07
-2.08594e-08
9.08286e-08
-8.38506e-09
1.78932e-08
-2.4659e-09
-4.12869e-10
-8.24052e-07
4.24653e-07
-1.24939e-06
1.191e-06
-1.06233e-06
1.80036e-06
-2.069e-07
2.24422e-06
1.26971e-06
2.53161e-06
3.24711e-06
2.67439e-06
5.55719e-06
2.6865e-06
8.0072e-06
2.58389e-06
1.04004e-05
2.38466e-06
1.25538e-05
2.10916e-06
1.43135e-05
1.77968e-06
1.55659e-05
1.41985e-06
1.62446e-05
1.05347e-06
1.63331e-05
7.03045e-07
1.58627e-05
3.88129e-07
1.4905e-05
1.23714e-07
1.35622e-05
-8.09573e-08
1.19543e-05
-2.2296e-07
1.02059e-05
-3.05441e-07
8.4344e-06
-3.36593e-07
6.65778e-06
-3.24878e-07
4.92265e-06
-2.79698e-07
3.40308e-06
-2.17516e-07
2.19352e-06
-1.55002e-07
1.29104e-06
-1.01025e-07
6.70505e-07
-5.90776e-08
2.89298e-07
-2.98919e-08
9.24395e-08
-1.22578e-08
1.81267e-08
-3.66801e-09
-6.21875e-10
-1.03585e-06
4.6855e-07
-1.64619e-06
1.31411e-06
-1.61176e-06
1.98672e-06
-8.82225e-07
2.47754e-06
4.91411e-07
2.79705e-06
2.38732e-06
2.95848e-06
4.63783e-06
2.977e-06
7.05168e-06
2.86978e-06
9.43387e-06
2.65617e-06
1.16029e-05
2.3578e-06
1.34049e-05
1.99848e-06
1.47252e-05
1.60348e-06
1.54944e-05
1.19841e-06
1.56915e-05
8.077e-07
1.53416e-05
4.5288e-07
1.45092e-05
1.50865e-07
1.32889e-05
-8.7348e-08
1.17934e-05
-2.57361e-07
1.01411e-05
-3.61246e-07
8.44512e-06
-4.06612e-07
6.71014e-06
-4.00268e-07
4.98041e-06
-3.50363e-07
3.44994e-06
-2.76615e-07
2.22614e-06
-2.00455e-07
1.31001e-06
-1.33162e-07
6.79138e-07
-7.94577e-08
2.91942e-07
-4.10216e-08
9.27311e-08
-1.71436e-08
1.79924e-08
-5.21897e-09
-8.99848e-10
-1.27138e-06
5.12877e-07
-2.08539e-06
1.43834e-06
-2.21697e-06
2.17457e-06
-1.62481e-06
2.71278e-06
-3.65021e-07
3.06522e-06
1.43877e-06
3.24654e-06
3.61938e-06
3.2732e-06
5.98739e-06
3.16349e-06
8.35007e-06
2.93784e-06
1.05277e-05
2.61905e-06
1.23674e-05
2.23216e-06
1.37534e-05
1.80387e-06
1.46137e-05
1.36136e-06
1.4923e-05
9.30784e-07
1.46998e-05
5.35473e-07
1.40015e-05
1.94205e-07
1.29144e-05
-8.0211e-08
1.15432e-05
-2.81717e-07
9.99937e-06
-4.10991e-07
8.39089e-06
-4.74634e-07
6.70953e-06
-4.77154e-07
4.9966e-06
-4.24802e-07
3.46506e-06
-3.40558e-07
2.23556e-06
-2.5098e-07
1.31302e-06
-1.6995e-07
6.77741e-07
-1.03564e-07
2.89126e-07
-5.46828e-08
9.0693e-08
-2.33967e-08
1.7158e-08
-7.30072e-09
-1.29534e-09
-1.53236e-06
5.5776e-07
-2.56854e-06
1.56393e-06
-2.87764e-06
2.36406e-06
-2.43315e-06
2.94993e-06
-1.29753e-06
3.33603e-06
4.03453e-07
3.53857e-06
2.50322e-06
3.57525e-06
4.81459e-06
3.46545e-06
7.14765e-06
3.23056e-06
9.32513e-06
2.89431e-06
1.11953e-05
2.48278e-06
1.26421e-05
2.02383e-06
1.35913e-05
1.54594e-06
1.4013e-05
1.07674e-06
1.39199e-05
6.41139e-07
1.33616e-05
2.5965e-07
1.24159e-05
-5.31373e-08
1.11792e-05
-2.89394e-07
9.75538e-06
-4.48141e-07
8.24654e-06
-5.34569e-07
6.63287e-06
-5.50283e-07
4.95237e-06
-4.99018e-07
3.43414e-06
-4.06771e-07
2.21131e-06
-3.05305e-07
1.29268e-06
-2.1116e-07
6.61328e-07
-1.31874e-07
2.77716e-07
-7.16691e-08
8.46331e-08
-3.17407e-08
1.49093e-08
-1.03342e-08
-1.93155e-09
-1.8213e-06
6.03399e-07
-3.09791e-06
1.6913e-06
-3.59282e-06
2.55542e-06
-3.30476e-06
3.18889e-06
-2.30288e-06
3.60932e-06
-7.15291e-07
3.83439e-06
1.29221e-06
3.88311e-06
3.5351e-06
3.77589e-06
5.82689e-06
3.53495e-06
7.99338e-06
3.18472e-06
9.88463e-06
2.75211e-06
1.13846e-05
2.26588e-06
1.24173e-05
1.75556e-06
1.29488e-05
1.24991e-06
1.29859e-05
7.75185e-07
1.25705e-05
3.53387e-07
1.17721e-05
7.80498e-10
1.06784e-05
-2.73031e-07
9.38537e-06
-4.65258e-07
7.98873e-06
-5.79341e-07
6.45896e-06
-6.13463e-07
4.83027e-06
-5.68207e-07
3.34359e-06
-4.72066e-07
2.14291e-06
-3.61779e-07
1.24092e-06
-2.56469e-07
6.2362e-07
-1.65101e-07
2.52892e-07
-9.33212e-08
7.12115e-08
-4.36073e-08
9.44277e-09
-1.53117e-08
-3.14359e-09
-2.11675e-06
6.46599e-07
-3.66213e-06
1.8159e-06
-4.36593e-06
2.74841e-06
-4.24023e-06
3.43182e-06
-3.38139e-06
3.8871e-06
-1.91809e-06
4.13617e-06
-1.51292e-08
4.19913e-06
2.14609e-06
4.09745e-06
4.38331e-06
3.85398e-06
6.52609e-06
3.49368e-06
8.42681e-06
3.04403e-06
9.97005e-06
2.53451e-06
1.10784e-05
1.99536e-06
1.17145e-05
1.45617e-06
1.18793e-05
9.44222e-07
1.16076e-05
4.82745e-07
1.09607e-05
8.94571e-08
1.00176e-05
-2.24373e-07
8.86647e-06
-4.54126e-07
7.59609e-06
-6.01294e-07
6.169e-06
-6.6019e-07
4.61465e-06
-6.27459e-07
3.18062e-06
-5.3326e-07
2.01959e-06
-4.18875e-07
1.14828e-06
-3.05907e-07
5.55789e-07
-2.04697e-07
2.05953e-07
-1.22297e-07
4.17617e-08
-6.24545e-08
-7.13501e-09
-2.56432e-08
-6.46085e-09
-3.89229e-08
3.9471e-10
-2.0011e-07
2.48991e-09
-6.36741e-07
9.41258e-09
-1.49806e-06
2.51976e-08
-2.917e-06
5.43164e-08
-4.99445e-06
1.01183e-07
-7.78736e-06
1.69624e-07
-1.13024e-05
2.62357e-07
-1.54961e-05
3.80687e-07
-1.99959e-05
5.14634e-07
-2.44655e-05
6.44701e-07
-2.89207e-05
7.64278e-07
-3.32926e-05
8.75981e-07
-3.7417e-05
9.77612e-07
-4.11353e-05
1.06536e-06
-4.43011e-05
1.1367e-06
-4.67863e-05
1.19045e-06
-4.84853e-05
1.22656e-06
-4.93184e-05
1.24573e-06
-4.92345e-05
1.24881e-06
-4.82103e-05
1.23635e-06
-4.62481e-05
1.20821e-06
-4.33702e-05
1.16332e-06
-3.96116e-05
1.09968e-06
-3.50102e-05
1.01441e-06
-2.95978e-05
9.03981e-07
-2.33899e-05
7.64463e-07
-1.6379e-05
5.91764e-07
-8.52719e-06
3.81792e-07
1.34339e-07
-3.94349e-08
7.76783e-10
-2.02746e-07
5.01406e-09
-6.44137e-07
1.87957e-08
-1.5131e-06
5.01714e-08
-2.94257e-06
1.07959e-07
-5.03303e-06
2.00857e-07
-7.84049e-06
3.36388e-07
-1.13695e-05
5.19835e-07
-1.55691e-05
7.53456e-07
-2.00927e-05
1.0184e-06
-2.45863e-05
1.27672e-06
-2.90428e-05
1.51396e-06
-3.34173e-05
1.73536e-06
-3.7543e-05
1.93741e-06
-4.126e-05
2.11232e-06
-4.44217e-05
2.25496e-06
-4.69e-05
2.36292e-06
-4.85891e-05
2.43607e-06
-4.941e-05
2.47565e-06
-4.9312e-05
2.48327e-06
-4.82729e-05
2.45993e-06
-4.62957e-05
2.40524e-06
-4.34039e-05
2.317e-06
-3.96331e-05
2.19116e-06
-3.50221e-05
2.02195e-06
-2.96027e-05
1.80231e-06
-2.33907e-05
1.52442e-06
-1.63781e-05
1.18015e-06
-8.52638e-06
7.61387e-07
2.67884e-07
-3.99543e-08
1.1658e-09
-2.05348e-07
7.53353e-09
-6.50934e-07
2.79406e-08
-1.52573e-06
7.42493e-08
-2.96202e-06
1.5933e-07
-5.05955e-06
2.95862e-07
-7.87353e-06
4.94799e-07
-1.14075e-05
7.63749e-07
-1.56091e-05
1.10564e-06
-2.01457e-05
1.4942e-06
-2.465e-05
1.87514e-06
-2.91035e-05
2.22565e-06
-3.34773e-05
2.55322e-06
-3.76028e-05
2.8535e-06
-4.13192e-05
3.11475e-06
-4.44792e-05
3.32918e-06
-4.6954e-05
3.493e-06
-4.8638e-05
3.60573e-06
-4.94521e-05
3.6689e-06
-4.93463e-05
3.68461e-06
-4.82989e-05
3.65404e-06
-4.63137e-05
3.57637e-06
-4.34148e-05
3.44817e-06
-3.96383e-05
3.26327e-06
-3.50232e-05
3.01303e-06
-2.96014e-05
2.68694e-06
-2.33885e-05
2.27337e-06
-1.63763e-05
1.76028e-06
-8.52545e-06
1.13571e-06
3.9957e-07
-4.03571e-08
1.54954e-09
-2.07268e-07
9.96782e-09
-6.55361e-07
3.65903e-08
-1.53243e-06
9.67328e-08
-2.96946e-06
2.06886e-07
-5.06525e-06
3.83287e-07
-7.87463e-06
6.39953e-07
-1.14016e-05
9.86564e-07
-1.55969e-05
1.42665e-06
-2.013e-05
1.92795e-06
-2.46299e-05
2.42247e-06
-2.90781e-05
2.87976e-06
-3.34492e-05
3.30879e-06
-3.75748e-05
3.70438e-06
-4.12929e-05
4.05097e-06
-4.44553e-05
4.33807e-06
-4.69323e-05
4.56025e-06
-4.86178e-05
4.71636e-06
-4.94331e-05
4.80782e-06
-4.93279e-05
4.83678e-06
-4.82812e-05
4.80428e-06
-4.6297e-05
4.70881e-06
-4.33996e-05
4.54554e-06
-3.96252e-05
4.30614e-06
-3.50126e-05
3.97914e-06
-2.95936e-05
3.55069e-06
-2.33834e-05
3.0055e-06
-1.63735e-05
2.32781e-06
-8.52432e-06
1.50206e-06
5.28471e-07
-4.07424e-08
1.9134e-09
-2.09009e-07
1.22356e-08
-6.59056e-07
4.45122e-08
-1.53703e-06
1.17071e-07
-2.97224e-06
2.49519e-07
-5.06228e-06
4.61158e-07
-7.86172e-06
7.68663e-07
-1.13754e-05
1.18353e-06
-1.55564e-05
1.70985e-06
-2.0078e-05
2.31088e-06
-2.457e-05
2.90798e-06
-2.90132e-05
3.46418e-06
-3.33832e-05
3.98908e-06
-3.75107e-05
4.47638e-06
-4.12331e-05
4.90697e-06
-4.44007e-05
5.26758e-06
-4.6883e-05
5.55095e-06
-4.85733e-05
5.75481e-06
-4.93926e-05
5.88003e-06
-4.92912e-05
5.92834e-06
-4.82481e-05
5.9002e-06
-4.62677e-05
5.79312e-06
-4.33746e-05
5.60068e-06
-3.96047e-05
5.31233e-06
-3.49969e-05
4.91382e-06
-2.95824e-05
4.38808e-06
-2.33762e-05
3.71638e-06
-1.63695e-05
2.87945e-06
-8.52273e-06
1.85837e-06
6.5387e-07
-4.11172e-08
2.24386e-09
-2.10614e-07
1.42684e-08
-6.62223e-07
5.15104e-08
-1.54016e-06
1.34836e-07
-2.97161e-06
2.86438e-07
-5.0527e-06
5.28166e-07
-7.83763e-06
8.78927e-07
-1.13321e-05
1.35178e-06
-1.54911e-05
1.95133e-06
-1.99943e-05
2.63789e-06
-2.44757e-05
3.32537e-06
-2.89144e-05
3.97163e-06
-3.32845e-05
4.58602e-06
-3.7416e-05
5.16081e-06
-4.11447e-05
5.67355e-06
-4.43197e-05
6.10825e-06
-4.68095e-05
6.45555e-06
-4.85068e-05
6.71168e-06
-4.93326e-05
6.87644e-06
-4.92373e-05
6.95064e-06
-4.82002e-05
6.93371e-06
-4.62262e-05
6.82182e-06
-4.33397e-05
6.60676e-06
-3.95767e-05
6.27569e-06
-3.49757e-05
5.81163e-06
-2.95676e-05
5.19445e-06
-2.33668e-05
4.40217e-06
-1.63644e-05
3.41228e-06
-8.52057e-06
2.20278e-06
7.75124e-07
-4.15056e-08
2.53002e-09
-2.12219e-07
1.60178e-08
-6.65319e-07
5.74539e-08
-1.54289e-06
1.49776e-07
-2.96966e-06
3.17238e-07
-5.03989e-06
5.8373e-07
-7.80714e-06
9.69982e-07
-1.12778e-05
1.49037e-06
-1.54084e-05
2.14995e-06
-1.98874e-05
2.90754e-06
-2.43565e-05
3.67273e-06
-2.87912e-05
4.39965e-06
-3.31624e-05
5.09654e-06
-3.72989e-05
5.75391e-06
-4.1035e-05
6.34636e-06
-4.42185e-05
6.85519e-06
-4.67168e-05
7.26875e-06
-4.84222e-05
7.58141e-06
-4.92557e-05
7.79137e-06
-4.91679e-05
7.89799e-06
-4.81386e-05
7.89921e-06
-4.61729e-05
7.78949e-06
-4.32951e-05
7.55862e-06
-3.95412e-05
7.1914e-06
-3.49489e-05
6.66818e-06
-2.95488e-05
5.96593e-06
-2.33549e-05
5.05963e-06
-1.63577e-05
3.92381e-06
-8.51774e-06
2.53372e-06
8.91679e-07
-4.19713e-08
2.76794e-09
-2.1414e-07
1.74616e-08
-6.69278e-07
6.23005e-08
-1.54725e-06
1.61847e-07
-2.96993e-06
3.41937e-07
-5.0293e-06
6.28033e-07
-7.77788e-06
1.0423e-06
-1.12223e-05
1.60019e-06
-1.53202e-05
2.30719e-06
-1.9771e-05
3.12184e-06
-2.42265e-05
3.95227e-06
-2.86577e-05
4.75023e-06
-3.30301e-05
5.52216e-06
-3.71712e-05
6.25666e-06
-4.09141e-05
6.92568e-06
-4.41053e-05
7.50796e-06
-4.66113e-05
7.98942e-06
-4.83243e-05
8.36221e-06
-4.91653e-05
8.62246e-06
-4.90855e-05
8.76758e-06
-4.80648e-05
8.79354e-06
-4.61087e-05
8.69276e-06
-4.32413e-05
8.4528e-06
-3.94982e-05
8.05603e-06
-3.49165e-05
7.48019e-06
-2.9526e-05
6.69949e-06
-2.33402e-05
5.68616e-06
-1.63494e-05
4.41202e-06
-8.51416e-06
2.84985e-06
1.00307e-06
-4.26421e-08
2.95802e-09
-2.16973e-07
1.86069e-08
-6.75725e-07
6.6107e-08
-1.55646e-06
1.71239e-07
-2.97782e-06
3.60991e-07
-5.02894e-06
6.61995e-07
-7.76076e-06
1.09752e-06
-1.11795e-05
1.68387e-06
-1.52436e-05
2.42687e-06
-1.96641e-05
3.28581e-06
-2.41052e-05
4.1697e-06
-2.85325e-05
5.02919e-06
-3.29045e-05
5.86847e-06
-3.70479e-05
6.6741e-06
-4.07947e-05
7.41586e-06
-4.39904e-05
8.07006e-06
-4.65012e-05
8.62013e-06
-4.82193e-05
9.05569e-06
-4.9066e-05
9.37041e-06
-4.89931e-05
9.55927e-06
-4.79809e-05
9.61586e-06
-4.60349e-05
9.5302e-06
-4.3179e-05
9.28742e-06
-3.94481e-05
8.86741e-06
-3.48785e-05
8.24537e-06
-2.94992e-05
7.39292e-06
-2.33228e-05
6.27974e-06
-1.63395e-05
4.87527e-06
-8.50976e-06
3.15009e-06
1.1089e-06
-4.37482e-08
3.10634e-09
-2.21727e-07
1.94927e-08
-6.87255e-07
6.90309e-08
-1.57542e-06
1.78362e-07
-3.00103e-06
3.75273e-07
-5.04972e-06
6.87227e-07
-7.77018e-06
1.13832e-06
-1.11677e-05
1.74549e-06
-1.52002e-05
2.51479e-06
-1.95905e-05
3.40692e-06
-2.40164e-05
4.33359e-06
-2.84377e-05
5.24546e-06
-3.28054e-05
6.14429e-06
-3.6946e-05
7.01467e-06
-4.06909e-05
7.82465e-06
-4.38854e-05
8.54833e-06
-4.63955e-05
9.16663e-06
-4.81139e-05
9.66643e-06
-4.89627e-05
1.00386e-05
-4.88942e-05
1.02753e-05
-4.78891e-05
1.03673e-05
-4.59529e-05
1.0302e-05
-4.3109e-05
1.0062e-05
-3.93913e-05
9.62453e-06
-3.48351e-05
8.96234e-06
-2.94682e-05
8.04468e-06
-2.33026e-05
6.8389e-06
-1.63277e-05
5.3123e-06
-8.5045e-06
3.4336e-06
1.20887e-06
-4.57067e-08
3.2229e-09
-2.30091e-07
2.01915e-08
-7.07893e-07
7.13356e-08
-1.61118e-06
1.83864e-07
-3.05001e-06
3.86066e-07
-5.10563e-06
7.0597e-07
-7.82384e-06
1.16825e-06
-1.12083e-05
1.79033e-06
-1.52155e-05
2.57834e-06
-1.95778e-05
3.49462e-06
-2.39865e-05
4.45465e-06
-2.83974e-05
5.4102e-06
-3.27543e-05
6.36081e-06
-3.68841e-05
7.2893e-06
-4.06182e-05
8.16237e-06
-4.38025e-05
8.95217e-06
-4.63037e-05
9.63716e-06
-4.80155e-05
1.02014e-05
-4.88608e-05
1.06325e-05
-4.87926e-05
1.09198e-05
-4.77922e-05
1.10508e-05
-4.58645e-05
1.101e-05
-4.30324e-05
1.07773e-05
-3.93285e-05
1.03273e-05
-3.47867e-05
9.63054e-06
-2.94334e-05
8.65387e-06
-2.32795e-05
7.36261e-06
-1.63142e-05
5.72219e-06
-8.49837e-06
3.69972e-06
1.30275e-06
-4.93436e-08
3.32263e-09
-2.4501e-07
2.08198e-08
-7.4398e-07
7.34232e-08
-1.67389e-06
1.88667e-07
-3.13853e-06
3.951e-07
-5.21386e-06
7.21082e-07
-7.94231e-06
1.19169e-06
-1.13257e-05
1.82472e-06
-1.5318e-05
2.62626e-06
-1.96558e-05
3.55986e-06
-2.4043e-05
4.54505e-06
-2.84359e-05
5.536e-06
-3.27724e-05
6.53078e-06
-3.688e-05
7.51061e-06
-4.05914e-05
8.44115e-06
-4.37537e-05
9.29284e-06
-4.62352e-05
1.00418e-05
-4.7931e-05
1.06691e-05
-4.87654e-05
1.11594e-05
-4.86922e-05
1.14983e-05
-4.76927e-05
1.16703e-05
-4.57715e-05
1.16569e-05
-4.29504e-05
1.14348e-05
-3.92604e-05
1.09765e-05
-3.47337e-05
1.025e-05
-2.93949e-05
9.22007e-06
-2.32539e-05
7.85024e-06
-1.62989e-05
6.10429e-06
-8.49139e-06
3.94795e-06
1.39034e-06
-5.65262e-08
3.4312e-09
-2.72068e-07
2.15849e-08
-8.05931e-07
7.59444e-08
-1.77822e-06
1.9412e-07
-3.28453e-06
4.04676e-07
-5.39474e-06
7.36079e-07
-8.14819e-06
1.21367e-06
-1.15458e-05
1.85571e-06
-1.55385e-05
2.66845e-06
-1.98551e-05
3.61504e-06
-2.42114e-05
4.61784e-06
-2.85753e-05
5.63597e-06
-3.28789e-05
6.66769e-06
-3.69503e-05
7.69219e-06
-4.0624e-05
8.67418e-06
-4.37497e-05
9.5827e-06
-4.61983e-05
1.03917e-05
-4.7867e-05
1.10795e-05
-4.86814e-05
1.16273e-05
-4.85963e-05
1.20175e-05
-4.75931e-05
1.2231e-05
-4.56758e-05
1.22462e-05
-4.28643e-05
1.20371e-05
-3.91879e-05
1.15735e-05
-3.46766e-05
1.08212e-05
-2.93532e-05
9.74327e-06
-2.32257e-05
8.30145e-06
-1.6282e-05
6.45813e-06
-8.48358e-06
4.17792e-06
1.4715e-06
-7.22004e-08
3.63869e-09
-3.22991e-07
2.29546e-08
-9.11738e-07
8.00801e-08
-1.94581e-06
2.02313e-07
-3.51106e-06
4.17939e-07
-5.67147e-06
7.55266e-07
-8.46469e-06
1.2398e-06
-1.18942e-05
1.8908e-06
-1.59121e-05
2.7162e-06
-2.02073e-05
3.67442e-06
-2.45114e-05
4.68631e-06
-2.88333e-05
5.72268e-06
-3.30901e-05
6.78513e-06
-3.71083e-05
7.84796e-06
-4.07268e-05
8.87502e-06
-4.37992e-05
9.83451e-06
-4.61999e-05
1.06985e-05
-4.78285e-05
1.14428e-05
-4.86127e-05
1.20451e-05
-4.8508e-05
1.24844e-05
-4.74958e-05
1.27384e-05
-4.55788e-05
1.27821e-05
-4.27752e-05
1.25868e-05
-3.91118e-05
1.21198e-05
-3.4616e-05
1.13451e-05
-2.93084e-05
1.02237e-05
-2.31952e-05
8.71609e-06
-1.62635e-05
6.78343e-06
-8.47493e-06
4.38937e-06
1.54612e-06
-1.19005e-07
5.15856e-09
-4.32272e-07
2.65197e-08
-1.0996e-06
8.87962e-08
-2.21388e-06
2.1732e-07
-3.85264e-06
4.39959e-07
-6.07488e-06
7.84608e-07
-8.91864e-06
1.27676e-06
-1.2397e-05
1.93754e-06
-1.64466e-05
2.77276e-06
-2.07089e-05
3.73491e-06
-2.49526e-05
4.75242e-06
-2.92265e-05
5.80743e-06
-3.34219e-05
6.89797e-06
-3.7367e-05
7.99356e-06
-4.09097e-05
9.05921e-06
-4.39098e-05
1.00635e-05
-4.62457e-05
1.0977e-05
-4.78201e-05
1.17727e-05
-4.85626e-05
1.24256e-05
-4.84296e-05
1.29108e-05
-4.74022e-05
1.32029e-05
-4.54816e-05
1.32738e-05
-4.26837e-05
1.30919e-05
-3.90325e-05
1.26225e-05
-3.45522e-05
1.18273e-05
-2.92607e-05
1.06661e-05
-2.31624e-05
9.09791e-06
-1.62434e-05
7.0829e-06
-8.4654e-06
4.58396e-06
1.61477e-06
-2.46536e-06
6.84448e-07
-4.3691e-06
1.92906e-06
-5.38311e-06
2.9356e-06
-5.45351e-06
3.67979e-06
-4.71807e-06
4.17471e-06
-3.34017e-06
4.44928e-06
-1.48695e-06
4.5291e-06
6.56971e-07
4.43633e-06
2.90776e-06
4.19435e-06
5.09329e-06
3.82828e-06
7.06313e-06
3.36599e-06
8.69859e-06
2.83752e-06
9.91841e-06
2.27354e-06
1.06806e-05
1.70415e-06
1.09808e-05
1.1573e-06
1.0848e-05
6.57147e-07
1.03375e-05
2.22589e-07
9.52287e-06
-1.33664e-07
8.4877e-06
-4.05319e-07
7.31693e-06
-5.91934e-07
5.96493e-06
-6.8369e-07
4.45438e-06
-6.72167e-07
3.04302e-06
-5.87698e-07
1.89698e-06
-4.7568e-07
1.03787e-06
-3.60317e-07
4.57551e-07
-2.53293e-07
1.20879e-07
-1.62928e-07
-2.95288e-08
-9.40662e-08
-6.58006e-08
-4.80447e-08
-2.28608e-08
-5.24213e-08
-2.75818e-06
7.19734e-07
-4.98187e-06
2.03114e-06
-6.35743e-06
3.10507e-06
-6.72892e-06
3.9193e-06
-6.17501e-06
4.46986e-06
-4.91842e-06
4.77663e-06
-3.16094e-06
4.8756e-06
-1.08417e-06
4.79564e-06
1.13061e-06
4.55981e-06
3.31322e-06
4.19285e-06
5.31256e-06
3.7229e-06
7.0087e-06
3.18048e-06
8.31806e-06
2.59642e-06
9.19488e-06
2.00094e-06
9.62974e-06
1.42235e-06
9.6454e-06
8.85385e-07
9.29062e-06
4.09827e-07
8.63271e-06
9.47973e-09
7.74967e-06
-3.08093e-07
6.72178e-06
-5.40995e-07
5.49767e-06
-6.7575e-07
4.0838e-06
-6.96794e-07
2.73726e-06
-6.31517e-07
1.63881e-06
-5.29617e-07
8.14429e-07
-4.18701e-07
2.58723e-07
-3.11553e-07
-6.18191e-08
-2.17654e-07
-2.03554e-07
-1.42724e-07
-2.38898e-07
-8.88883e-08
-5.5657e-08
-2.46503e-07
-3.06277e-06
7.54543e-07
-5.57683e-06
2.12933e-06
-7.28376e-06
3.2591e-06
-8.03586e-06
4.13452e-06
-7.78268e-06
4.75364e-06
-6.69631e-06
5.11335e-06
-5.05104e-06
5.23999e-06
-3.0632e-06
5.17641e-06
-9.04872e-07
4.95219e-06
1.25762e-06
4.58982e-06
3.27149e-06
4.11773e-06
5.01602e-06
3.56717e-06
6.40592e-06
2.9687e-06
7.39205e-06
2.35231e-06
7.9602e-06
1.74633e-06
8.12726e-06
1.17577e-06
7.93564e-06
6.60953e-07
7.44672e-06
2.16412e-07
6.73394e-06
-1.49595e-07
5.87532e-06
-4.34938e-07
4.82253e-06
-6.25799e-07
3.53629e-06
-6.94909e-07
2.26447e-06
-6.58629e-07
1.22316e-06
-5.74253e-07
4.36603e-07
-4.75508e-07
-9.76345e-08
-3.75002e-07
-4.13e-07
-2.83418e-07
-5.66403e-07
-2.071e-07
-6.32584e-07
-1.49146e-07
-1.10217e-07
-6.8806e-07
-3.39673e-06
7.8846e-07
-6.21413e-06
2.22578e-06
-8.20703e-06
3.4081e-06
-9.30405e-06
4.33066e-06
-9.44346e-06
5.00798e-06
-8.65455e-06
5.43726e-06
-7.17148e-06
5.61682e-06
-5.29324e-06
5.58089e-06
-3.21472e-06
5.37392e-06
-1.09059e-06
5.02206e-06
9.20619e-07
4.55361e-06
2.69846e-06
4.00146e-06
4.15672e-06
3.39519e-06
5.24333e-06
2.76411e-06
5.93965e-06
2.1363e-06
6.25687e-06
1.5368e-06
6.2312e-06
9.86259e-07
5.91812e-06
4.997e-07
5.38682e-06
8.58384e-08
4.71534e-06
-2.53456e-07
3.87124e-06
-5.06805e-07
2.75297e-06
-6.40532e-07
1.57055e-06
-6.54565e-07
5.84157e-07
-6.00515e-07
-1.69975e-07
-5.19938e-07
-6.92387e-07
-4.32683e-07
-1.02182e-06
-3.49871e-07
-1.21709e-06
-2.77419e-07
-1.35526e-06
-2.19647e-07
-1.77655e-07
-1.49939e-06
-3.76107e-06
8.21409e-07
-6.91478e-06
2.31975e-06
-9.20694e-06
3.55477e-06
-1.05946e-05
4.52131e-06
-1.10895e-05
5.24023e-06
-1.0696e-05
5.72716e-06
-9.50281e-06
5.9791e-06
-7.79244e-06
6.00232e-06
-5.81764e-06
5.82849e-06
-3.74941e-06
5.49194e-06
-1.76099e-06
5.03247e-06
3.16045e-08
4.4862e-06
1.54243e-06
3.87966e-06
2.71664e-06
3.24112e-06
3.53155e-06
2.59826e-06
3.99277e-06
1.976e-06
4.13e-06
1.39525e-06
3.99196e-06
8.71557e-07
3.64148e-06
4.14565e-07
3.15162e-06
2.77533e-08
2.4976e-06
-2.74964e-07
1.57738e-06
-4.67863e-07
5.44756e-07
-5.54999e-07
-3.65722e-07
-5.67236e-07
-1.09011e-06
-5.30839e-07
-1.61818e-06
-4.68355e-07
-1.98598e-06
-3.98606e-07
-2.25378e-06
-3.34313e-07
-2.49819e-06
-2.80421e-07
-2.37383e-07
-2.75865e-06
-4.1589e-06
8.53275e-07
-7.68155e-06
2.41092e-06
-1.03091e-05
3.6979e-06
-1.19999e-05
4.70966e-06
-1.27921e-05
5.46705e-06
-1.27566e-05
5.99214e-06
-1.1944e-05
6.29994e-06
-1.0514e-05
6.39547e-06
-8.71063e-06
6.28726e-06
-6.73804e-06
5.99393e-06
-4.79228e-06
5.55614e-06
-3.0078e-06
5.02288e-06
-1.46428e-06
4.42454e-06
-2.20164e-07
3.78661e-06
6.98582e-07
3.13664e-06
1.29183e-06
2.49915e-06
1.58231e-06
1.89556e-06
1.6106e-06
1.34193e-06
1.42996e-06
8.49106e-07
1.10051e-06
4.23138e-07
5.883e-07
8.13372e-08
-1.50976e-07
-1.57741e-07
-9.8737e-07
-3.08736e-07
-1.76921e-06
-3.97763e-07
-2.44046e-06
-4.37405e-07
-2.98063e-06
-4.34507e-07
-3.40626e-06
-4.00212e-07
-3.76986e-06
-3.51558e-07
-4.14099e-06
-3.0204e-07
-2.58486e-07
-4.53172e-06
-4.59299e-06
8.83894e-07
-8.51977e-06
2.49884e-06
-1.1517e-05
3.8368e-06
-1.35487e-05
4.89393e-06
-1.46509e-05
5.69217e-06
-1.49162e-05
6.25287e-06
-1.44484e-05
6.59714e-06
-1.33556e-05
6.74202e-06
-1.18307e-05
6.70377e-06
-1.00507e-05
6.49064e-06
-8.19571e-06
6.11474e-06
-6.44486e-06
5.61417e-06
-4.89227e-06
5.03174e-06
-3.60138e-06
4.40291e-06
-2.59883e-06
3.75455e-06
-1.89116e-06
3.11009e-06
-1.46286e-06
2.49228e-06
-1.28232e-06
1.91721e-06
-1.30712e-06
1.39664e-06
-1.49052e-06
9.38305e-07
-1.86767e-06
5.58063e-07
-2.45292e-06
2.72478e-07
-3.12145e-06
7.00148e-08
-3.76494e-06
-7.60513e-08
-4.35935e-06
-1.80444e-07
-4.89649e-06
-2.45941e-07
-5.3848e-06
-2.75425e-07
-5.85678e-06
-2.7292e-07
-6.36372e-06
-2.45198e-07
-2.05444e-07
-6.88835e-06
-5.06604e-06
9.13098e-07
-9.43469e-06
2.58304e-06
-1.28382e-05
3.97077e-06
-1.52466e-05
5.07328e-06
-1.66985e-05
5.91366e-06
-1.72821e-05
6.51427e-06
-1.71215e-05
6.89643e-06
-1.63442e-05
7.07967e-06
-1.5131e-05
7.08838e-06
-1.36277e-05
6.9438e-06
-1.19549e-05
6.65244e-06
-1.02944e-05
6.22581e-06
-8.77364e-06
5.69411e-06
-7.46261e-06
5.09227e-06
-6.40103e-06
4.4526e-06
-5.60179e-06
3.80918e-06
-5.05573e-06
3.18692e-06
-4.74037e-06
2.59998e-06
-4.62394e-06
2.06066e-06
-4.6702e-06
1.57802e-06
-4.9044e-06
1.16534e-06
-5.34015e-06
8.35202e-07
-5.87196e-06
5.80114e-07
-6.40808e-06
3.82534e-07
-6.93824e-06
2.32667e-07
-7.46661e-06
1.22621e-07
-8.00947e-06
4.41884e-08
-8.58855e-06
-3.66537e-09
-9.23802e-06
-2.02043e-08
-1.44486e-08
-9.90828e-06
-5.58067e-06
9.40657e-07
-1.04315e-05
2.66286e-06
-1.42804e-05
4.09878e-06
-1.71036e-05
5.24635e-06
-1.89434e-05
6.12987e-06
-1.98886e-05
6.77264e-06
-2.00612e-05
7.19682e-06
-1.96005e-05
7.42362e-06
-1.8679e-05
7.47524e-06
-1.7451e-05
7.37606e-06
-1.60186e-05
7.14484e-06
-1.45288e-05
6.79653e-06
-1.3105e-05
6.34921e-06
-1.18244e-05
5.81793e-06
-1.07431e-05
5.2204e-06
-9.88027e-06
4.59313e-06
-9.243e-06
3.97603e-06
-8.81584e-06
3.38838e-06
-8.57792e-06
2.84079e-06
-8.50276e-06
2.34383e-06
-8.60535e-06
1.90724e-06
-8.89689e-06
1.53886e-06
-9.30063e-06
1.23661e-06
-9.74903e-06
9.92985e-07
-1.02352e-05
8.0192e-07
-1.07637e-05
6.57455e-07
-1.13522e-05
5.53591e-07
-1.20242e-05
4.83497e-07
-1.28082e-05
4.41385e-07
4.24046e-07
-1.36213e-05
-6.13829e-06
9.66171e-07
-1.15129e-05
2.73715e-06
-1.58475e-05
4.21898e-06
-1.91253e-05
5.41067e-06
-2.13921e-05
6.33766e-06
-2.27381e-05
7.02423e-06
-2.32846e-05
7.4933e-06
-2.31729e-05
7.76692e-06
-2.25599e-05
7.86714e-06
-2.15997e-05
7.81605e-06
-2.04132e-05
7.63337e-06
-1.91313e-05
7.3416e-06
-1.78588e-05
6.96419e-06
-1.66803e-05
6.51872e-06
-1.56439e-05
6.00929e-06
-1.47647e-05
5.44324e-06
-1.40702e-05
4.85397e-06
-1.35626e-05
4.27633e-06
-1.32323e-05
3.73177e-06
-1.30606e-05
3.23195e-06
-1.30516e-05
2.78167e-06
-1.3213e-05
2.38392e-06
-1.35026e-05
2.04276e-06
-1.38758e-05
1.76175e-06
-1.4328e-05
1.53879e-06
-1.48635e-05
1.36876e-06
-1.54955e-05
1.2462e-06
-1.62443e-05
1.16588e-06
-1.71327e-05
1.12372e-06
1.11753e-06
-1.80467e-05
-6.73897e-06
9.89158e-07