/*--------------------------------*- C++ -*----------------------------------*\
| =========                 |                                                 |
| \\      /  F ield         | OpenFOAM: The Open Source CFD Toolbox           |
|  \\    /   O peration     | Version:  dev                                   |
|   \\  /    A nd           | Web:      www.OpenFOAM.org                      |
|    \\/     M anipulation  |                                                 |
\*---------------------------------------------------------------------------*/
FoamFile
{
    version     2.0;
    format      ascii;
    class       surfaceVectorField;
    location    "3.53";
    object      Uf;
}
// * * * * * * * * * * * * * * * * * * * * * * * * * * * * * * * * * * * * * //

dimensions      [0 1 -1 0 0 0 0];

internalField   nonuniform List<vector> 
5457
(
(9.91689 -3.30497e-22 0.0245795)
(9.97422 0 0.0396461)
(9.81713 3.56003e-22 0.0325898)
(9.92801 -9.77861e-22 0.0488334)
(9.69921 3.1371e-22 0.0393003)
(9.84981 1.33822e-21 0.0592773)
(9.56138 -3.39781e-22 0.0461093)
(9.74769 -3.44304e-22 0.0711348)
(9.40378 -3.71999e-22 0.053086)
(9.62569 0 0.0835162)
(9.22668 -1.13143e-21 0.0602908)
(9.484 -2.20774e-21 0.0963439)
(9.02996 5.4908e-23 0.0678745)
(9.32202 6.04572e-21 0.109855)
(8.81312 -8.58829e-22 0.0759892)
(9.13923 -1.53781e-21 0.124292)
(8.57543 -1.59972e-21 0.0847671)
(8.93504 -1.62074e-21 0.139852)
(8.31592 -8.88032e-22 0.0943315)
(8.70868 5.07344e-21 0.156714)
(8.0335 2.85263e-21 0.104806)
(8.45913 7.54989e-23 0.175052)
(7.72692 -1.9576e-22 0.116315)
(8.18521 -5.32394e-21 0.195035)
(7.39487 -3.72102e-21 0.128981)
(7.88562 -3.76985e-21 0.216822)
(7.03597 0 0.142918)
(7.55899 -1.96628e-20 0.240543)
(6.64892 -8.76777e-21 0.158221)
(7.20394 2.02469e-20 0.266286)
(6.23254 -1.80351e-21 0.174955)
(6.81914 -8.65589e-21 0.294067)
(5.78596 8.94675e-21 0.193133)
(6.40346 4.44571e-21 0.323796)
(5.30878 7.26131e-21 0.212689)
(5.95611 4.61883e-23 0.355228)
(4.80128 9.9974e-21 0.233443)
(5.47683 -9.50959e-21 0.387905)
(4.26478 2.13875e-20 0.25506)
(4.96615 1.29396e-22 0.421088)
(3.70188 3.84488e-20 0.276997)
(4.42571 1.05744e-19 0.453683)
(3.1169 6.91134e-20 0.298438)
(3.8586 -5.49129e-20 0.484153)
(2.51629 -2.42393e-21 0.318203)
(3.26977 2.28905e-19 0.51044)
(1.909 -4.75458e-20 0.334636)
(2.66646 -1.42555e-19 0.529882)
(1.3069 -1.31783e-20 0.345653)
(2.05883 -2.45961e-20 0.539209)
(0.724163 -2.64859e-20 0.348226)
(1.45986 2.48804e-20 0.535369)
(0.17333 6.41472e-22 0.245352)
(0.899859 -2.69325e-20 0.518081)
(-0.223219 1.27358e-19 -0.0596797)
(0.292111 -2.44641e-19 0.379792)
(-0.301877 -7.41041e-22 -0.311545)
(0.00375674 3.64541e-19 0.0751444)
(0.0451416 -1.15828e-19 -0.301855)
(9.99647 -6.59947e-22 0.051699)
(10.0012 -1.90243e-21 0.0413288)
(9.95707 3.28091e-23 0.0713345)
(9.98023 -1.72239e-24 0.0681248)
(9.89442 6.5907e-22 0.0887322)
(9.93122 -6.70434e-22 0.0907692)
(9.8103 0 0.106799)
(9.85923 -2.75758e-21 0.114556)
(9.70474 -1.86481e-21 0.125668)
(9.76701 2.82431e-21 0.139458)
(9.5778 5.07823e-21 0.145423)
(9.65483 -1.11174e-21 0.1654)
(9.42935 4.3532e-21 0.166374)
(9.52232 1.28629e-20 0.19276)
(9.25892 -2.30132e-21 0.188857)
(9.36907 -1.4807e-20 0.221991)
(9.06579 5.13922e-21 0.213161)
(9.1946 6.42298e-21 0.253489)
(8.84904 5.97146e-21 0.239555)
(8.99819 5.07779e-21 0.287617)
(8.60757 -8.17136e-21 0.2683)
(8.77893 9.53158e-22 0.324733)
(8.34013 -8.87838e-21 0.299644)
(8.53571 -1.07848e-20 0.365188)
(8.04538 -1.99173e-20 0.333806)
(8.26731 0 0.409312)
(7.72187 1.09515e-21 0.370958)
(7.97238 1.55295e-20 0.457392)
(7.36822 1.99856e-20 0.411186)
(7.64956 -1.18869e-20 0.509632)
(6.9831 -2.234e-21 0.454447)
(7.29745 8.39886e-21 0.566105)
(6.56544 -4.5163e-21 0.500507)
(6.91478 -6.54885e-21 0.626678)
(6.11459 -1.69055e-20 0.54886)
(6.50051 -1.14214e-20 0.690921)
(5.63051 -1.93468e-20 0.598635)
(6.054 -4.86724e-21 0.757984)
(5.11413 8.58668e-20 0.648486)
(5.57523 4.86399e-21 0.826459)
(4.56765 1.07473e-20 0.696466)
(5.06515 1.72868e-19 0.894207)
(3.99495 1.08176e-19 0.739887)
(4.52594 -2.31046e-21 0.958178)
(3.40215 8.47124e-20 0.775151)
(3.96154 1.82264e-19 1.01418)
(2.79824 -1.18152e-19 0.797482)
(3.37813 -2.81468e-19 1.0566)
(2.19619 1.44137e-20 0.800344)
(2.78495 1.92423e-19 1.07787)
(1.61652 2.45083e-20 0.773236)
(2.19482 1.30734e-20 1.06688)
(1.09943 -2.741e-19 0.678265)
(1.62989 -4.02584e-19 1.00261)
(0.637181 3.43202e-21 0.477017)
(1.08258 2.22895e-19 0.820367)
(0.184272 2.48385e-19 0.0274643)
(0.627893 2.25023e-19 0.508329)
(0.332063 -5.77587e-20 -0.115139)
(9.98905 -1.21886e-21 0.0604154)
(9.99889 1.26367e-21 0.0465539)
(9.95279 -7.14768e-22 0.0907274)
(9.97534 1.29815e-21 0.0858733)
(9.89378 -4.11553e-21 0.119381)
(9.92735 -1.33834e-21 0.120432)
(9.81475 1.40274e-22 0.149201)
(9.85849 -4.32344e-24 0.155349)
(9.71619 3.52569e-21 0.180529)
(9.77039 5.675e-21 0.191692)
(9.59812 6.85642e-21 0.213536)
(9.66335 -6.53888e-21 0.229631)
(9.46046 -6.66046e-21 0.248647)
(9.53726 6.05829e-21 0.269638)
(9.30289 -5.80541e-21 0.286351)
(9.3919 1.52323e-23 0.31232)
(9.12485 6.34293e-21 0.327107)
(9.22694 -6.37765e-21 0.358248)
(8.92558 2.8921e-24 0.371355)
(9.04184 1.66971e-21 0.407961)
(8.70416 -1.81563e-21 0.419529)
(8.83588 3.44477e-21 0.461988)
(8.45949 -1.76938e-21 0.47205)
(8.60819 5.36401e-21 0.520855)
(8.19037 3.56402e-20 0.529304)
(8.35778 2.99133e-20 0.585067)
(7.89547 2.20112e-21 0.591604)
(8.08353 -3.1848e-21 0.655077)
(7.57343 -2.32046e-20 0.659139)
(7.78427 -3.61481e-20 0.731241)
(7.22288 3.87637e-21 0.731895)
(7.45876 3.67069e-23 0.813745)
(6.84256 -1.35321e-20 0.809559)
(7.10579 7.42824e-20 0.902507)
(6.43145 6.60307e-22 0.891381)
(6.72425 -6.28171e-20 0.997048)
(5.98894 1.94317e-20 0.976013)
(6.3132 -6.62103e-20 1.09631)
(5.51509 9.40261e-20 1.06131)
(5.87211 7.78556e-20 1.19845)
(5.01093 1.58112e-19 1.14411)
(5.401 -8.07699e-20 1.30057)
(4.47885 7.38732e-20 1.21995)
(4.90078 -1.14821e-19 1.39843)
(3.92313 -1.89384e-19 1.28273)
(4.37358 1.77116e-19 1.48605)
(3.35059 3.42756e-20 1.32418)
(3.8232 -1.85432e-19 1.55522)
(2.77143 1.8897e-19 1.33277)
(3.25558 2.76792e-20 1.59465)
(2.19999 -4.18494e-19 1.29098)
(2.67869 3.45374e-19 1.58834)
(1.6515 1.05266e-19 1.1647)
(2.10423 -1.20519e-18 1.5125)
(1.11527 4.49087e-19 0.919819)
(1.53144 1.30012e-18 1.32541)
(0.595505 -8.57276e-20 0.520786)
(0.956068 -4.6462e-19 1.00024)
(0.552364 4.81769e-19 0.459248)
(9.98489 3.78362e-21 0.0725276)
(9.99769 3.16675e-21 0.0537612)
(9.94876 6.39726e-22 0.11491)
(9.9724 6.45067e-22 0.103561)
(9.89083 2.78872e-21 0.155584)
(9.92436 2.6665e-21 0.149556)
(9.81316 5.60366e-21 0.197022)
(9.85682 6.87828e-21 0.195441)
(9.71659 -4.55058e-21 0.24005)
(9.77062 -2.77183e-21 0.242872)
(9.60128 -7.17225e-21 0.285129)
(9.66595 -1.43562e-21 0.292372)
(9.4672 1.26536e-20 0.332864)
(9.54286 -8.96841e-21 0.344523)
(9.31419 -6.41134e-22 0.383919)
(9.40129 2.49356e-20 0.400042)
(9.14188 -1.09481e-20 0.438938)
(9.241 -3.52259e-20 0.459641)
(8.94977 5.13404e-21 0.498542)
(9.06161 -1.17975e-20 0.524)
(8.73717 1.06483e-20 0.563344)
(8.86259 2.73166e-20 0.593789)
(8.5033 3.73631e-20 0.633944)
(8.6433 -2.85902e-20 0.669673)
(8.24726 -9.33516e-21 0.710907)
(8.40299 2.95505e-20 0.752299)
(7.96807 -4.1952e-20 0.794716)
(8.14084 7.38751e-21 0.842262)
(7.66468 -1.24325e-20 0.885717)
(7.85596 -1.19517e-20 0.940054)
(7.336 7.13985e-20 0.984019)
(7.54739 -1.18878e-22 1.04599)
(6.98094 2.32928e-20 1.08937)
(7.21418 9.45445e-21 1.16008)
(6.59849 -1.29751e-19 1.20099)
(6.85535 8.27901e-21 1.2819)
(6.18781 -6.04927e-21 1.31733)
(6.46996 -7.57621e-20 1.41037)
(5.74838 -9.89567e-20 1.43583)
(6.05717 -8.74288e-20 1.54347)
(5.28019 -3.54303e-19 1.55256)
(5.61638 -4.49855e-21 1.67793)
(4.78402 -7.95935e-21 1.66187)
(5.14732 -2.1815e-20 1.80882)
(4.2618 1.76972e-19 1.75587)
(4.65028 4.88038e-21 1.92908)
(3.71687 -1.89599e-19 1.82381)
(4.12633 -3.37193e-19 2.02894)
(3.15409 1.87699e-19 1.85109)
(3.57742 1.82234e-19 2.09522)
(2.57893 -4.58938e-19 1.81771)
(3.00595 3.94603e-19 2.11046)
(1.99408 2.07373e-20 1.6943)
(2.41492 -3.88404e-19 2.0522)
(1.39034 3.66433e-19 1.45425)
(1.80267 3.7705e-19 1.8892)
(0.74907 1.18745e-19 1.07269)
(1.14093 -3.60447e-21 1.60371)
(0.611309 9.67904e-19 1.14803)
(9.98298 -1.38835e-25 0.0854197)
(9.99718 -4.25253e-25 0.0618829)
(9.94657 2.6989e-21 0.138442)
(9.97106 -2.5908e-21 0.121389)
(9.88967 6.81062e-21 0.189912)
(9.9232 2.6666e-21 0.178162)
(9.81352 -1.6271e-21 0.242049)
(9.85705 6.8524e-21 0.234754)
(9.71898 3.58508e-22 0.296066)
(9.77297 -2.79234e-21 0.29298)
(9.60629 -3.33136e-21 0.352686)
(9.67092 1.45722e-20 0.35369)
(9.47546 3.75331e-21 0.412639)
(9.55101 -1.4901e-20 0.417604)
(9.32635 -1.04349e-20 0.476696)
(9.41325 3.13344e-21 0.485535)
(9.15871 -3.57707e-20 0.545612)
(9.25746 -3.85451e-20 0.558308)
(8.97211 1.08934e-20 0.620124)
(9.08335 1.60646e-20 0.63672)
(8.76605 -1.26406e-20 0.700957)
(8.89048 -3.57056e-21 0.721556)
(8.53993 -3.56603e-20 0.788822)
(8.67832 -4.09625e-21 0.813591)
(8.29305 4.5988e-20 0.884398)
(8.44629 -3.66096e-22 0.913581)
(8.02469 3.71465e-20 0.988286)
(8.19372 3.8155e-20 1.02223)
(7.73406 5.13862e-22 1.10094)
(7.91992 -3.11144e-23 1.14014)
(7.42033 -6.19485e-20 1.22259)
(7.62414 -8.11463e-21 1.26773)
(7.08263 -5.57326e-21 1.35308)
(7.30558 -8.27296e-22 1.40513)
(6.72008 6.12287e-20 1.49169)
(6.96338 1.33943e-19 1.55203)
(6.33176 -1.57405e-19 1.63687)
(6.59661 -1.45557e-19 1.70742)
(5.91681 7.85201e-21 1.78595)
(6.20427 -3.08513e-19 1.86935)
(5.47441 3.27548e-19 1.93472)
(5.78522 3.16521e-19 2.03453)
(5.00394 -8.35351e-21 2.07696)
(5.33824 1.88504e-19 2.19787)
(4.50506 -5.132e-19 2.20392)
(4.86203 -1.72339e-19 2.35198)
(3.97773 4.07198e-20 2.30373)
(4.3552 -3.61054e-19 2.48662)
(3.422 3.91768e-19 2.36079)
(3.81628 3.94301e-19 2.58813)
(2.83722 4.55899e-19 2.35541)
(3.24337 2.42467e-20 2.63912)
(2.22028 -2.25548e-20 2.26287)
(2.63396 7.97477e-19 2.61872)
(1.56183 5.6749e-22 2.06226)
(1.9862 -8.22616e-19 2.50134)
(0.846957 8.80597e-19 1.72785)
(1.26271 -4.325e-19 2.27466)
(0.651624 1.32423e-18 1.88695)
(9.98218 -2.62092e-21 0.0986024)
(9.99703 -1.25882e-21 0.0703825)
(9.94579 -2.55343e-21 0.161631)
(9.97072 -1.29936e-21 0.139209)
(9.89015 2.76238e-21 0.223543)
(9.92345 5.30443e-21 0.206141)
(9.81595 5.55834e-21 0.286269)
(9.85899 2.47492e-23 0.273065)
(9.72393 1.16464e-20 0.35117)
(9.77741 -1.11868e-20 0.34176)
(9.61437 2.61449e-21 0.41915)
(9.67848 1.44771e-20 0.413312)
(9.48731 -1.5288e-20 0.491042)
(9.5623 -5.94266e-21 0.48859)
(9.34263 -2.55159e-20 0.56771)
(9.42894 -1.23862e-20 0.568501)
(9.18012 1.40037e-20 0.650015)
(9.27828 9.35802e-21 0.653969)
(8.99943 1.3538e-21 0.738801)
(9.11006 -2.94523e-20 0.745895)
(8.80012 4.96676e-21 0.834898)
(8.92389 3.35447e-20 0.845163)
(8.58169 3.12507e-20 0.939124)
(8.71933 -2.44703e-20 0.952646)
(8.34355 -7.71165e-21 1.05226)
(8.49585 8.73492e-20 1.06919)
(8.08509 4.84928e-22 1.175)
(8.25287 -6.89978e-21 1.19561)
(7.80564 -8.76175e-21 1.30792)
(7.98977 -5.41242e-20 1.33258)
(7.50448 5.3109e-20 1.45135)
(7.70585 -8.24291e-21 1.48065)
(7.18083 1.40413e-19 1.60526)
(7.40035 5.1705e-20 1.64008)
(6.83381 -7.62706e-20 1.76905)
(7.07241 7.19419e-20 1.81068)
(6.4624 -2.98746e-19 1.94134)
(6.72099 1.74938e-20 1.99164)
(6.06538 7.60377e-21 2.11957)
(6.34481 -4.52292e-19 2.18125)
(5.64125 1.75874e-19 2.29963)
(5.94225 1.55236e-19 2.37646)
(5.1882 2.0325e-20 2.47534)
(5.51123 -3.02657e-19 2.57248)
(4.70398 -2.24069e-20 2.63791)
(5.04909 3.10752e-19 2.76224)
(4.18588 1.13065e-21 2.77541)
(4.55248 -2.21469e-20 2.93577)
(3.6305 2.24871e-20 2.8724)
(4.01729 2.25227e-20 3.07981)
(3.03353 3.74283e-19 2.9101)
(3.43868 -2.30402e-20 3.17747)
(2.38931 -1.85485e-20 2.86641)
(2.81084 3.46286e-19 3.20881)
(1.69031 -1.25134e-18 2.72269)
(2.13293 -3.81683e-19 3.15014)
(0.929489 1.62547e-20 2.44761)
(1.36404 -1.68581e-18 2.98855)
(0.69249 1.75398e-18 2.65753)
(9.98202 5.78174e-23 0.111818)
(9.99709 -3.67743e-24 0.0789593)
(9.94608 6.646e-21 0.184405)
(9.97103 -2.56275e-21 0.156812)
(9.89195 2.49501e-21 0.256311)
(9.92477 5.30469e-21 0.233365)
(9.82006 -1.68715e-20 0.329242)
(9.86232 -8.13813e-21 0.310184)
(9.73102 -8.02014e-21 0.40462)
(9.78361 -8.45163e-21 0.388968)
(9.62513 5.65272e-21 0.4835)
(9.68827 1.72742e-20 0.47095)
(9.50244 -3.12304e-21 0.566839)
(9.57638 -1.47772e-20 0.557142)
(9.36288 2.27728e-20 0.6556)
(9.44806 -3.07417e-21 0.648549)
(9.20626 -3.45957e-20 0.750743)
(9.30325 5.08054e-20 0.746184)
(9.03227 3.5456e-21 0.85321)
(9.1417 -1.14313e-19 0.851042)
(8.84053 3.37102e-21 0.963928)
(8.96309 8.10396e-20 0.964104)
(8.63058 3.30469e-20 1.08381)
(8.76701 -1.12098e-19 1.08634)
(8.40188 8.69837e-20 1.21372)
(8.55296 1.44645e-19 1.21868)
(8.15385 -6.20956e-20 1.35446)
(8.32041 8.13843e-21 1.36204)
(7.88585 -5.30365e-20 1.50671)
(8.06873 -5.43602e-20 1.51721)
(7.59713 -8.89759e-21 1.67092)
(7.79721 8.11597e-21 1.68486)
(7.28686 -1.64927e-20 1.8472)
(7.50501 1.63726e-20 1.86539)
(6.95403 1.65159e-19 2.03518)
(7.19115 -1.208e-19 2.05884)
(6.59737 -1.41727e-19 2.23373)
(6.85436 1.43709e-19 2.26468)
(6.21524 -2.97487e-19 2.44063)
(6.49301 -3.19214e-19 2.48154)
(5.80546 -3.29093e-19 2.6522)
(6.10493 1.49476e-19 2.70689)
(5.36513 -5.06045e-21 2.86279)
(5.6872 -6.17011e-19 2.93658)
(4.89049 3.07145e-19 3.06415)
(5.23595 3.11172e-19 3.16428)
(4.37673 -2.65358e-22 3.245)
(4.7462 0 3.3809)
(3.81807 -2.35656e-20 3.39052)
(4.21179 -3.7284e-19 3.57397)
(3.20788 -4.69641e-20 3.48251)
(3.62562 3.59905e-19 3.72723)
(2.53936 -2.36477e-20 3.49941)
(2.97952 -3.66562e-22 3.82084)
(1.80695 -8.30263e-19 3.42139)
(2.27371 -4.03234e-19 3.83025)
(1.00909 1.90128e-20 3.20709)
(1.4653 3.91228e-19 3.73819)
(0.738962 -8.37286e-19 3.45878)
(9.98225 -2.65686e-21 0.124855)
(9.99729 3.75236e-21 0.0874271)
(9.94715 -3.80036e-21 0.206595)
(9.97181 -1.28553e-21 0.174004)
(9.89481 -5.5081e-21 0.28802)
(9.9269 0 0.259692)
(9.82559 2.78258e-22 0.370718)
(9.86679 -2.73972e-21 0.345936)
(9.73996 1.7182e-20 0.456141)
(9.79132 2.79398e-21 0.434371)
(9.63825 -3.57309e-21 0.545466)
(9.70001 5.78294e-21 0.526325)
(9.52053 -1.45775e-20 0.639763)
(9.59295 -8.55335e-23 0.622933)
(9.38675 2.56515e-20 0.740089)
(9.47029 2.4383e-20 0.725294)
(9.23677 -3.10343e-20 0.847493)
(9.332 3.7239e-22 0.834508)
(9.07032 -3.43225e-20 0.96301)
(9.1779 -7.48243e-20 0.951659)
(8.88706 -3.68897e-20 1.08766)
(9.0077 1.97928e-20 1.07782)
(8.68656 2.74585e-21 1.22244)
(8.82103 2.69398e-20 1.21404)
(8.46832 6.40812e-20 1.36834)
(8.61744 -6.54978e-21 1.36138)
(8.23175 1.51095e-20 1.52624)
(8.39639 5.92995e-20 1.52084)
(7.97616 7.58677e-21 1.69697)
(8.15725 -6.06044e-20 1.69335)
(7.70077 3.34891e-20 1.88111)
(7.89926 1.26776e-19 1.87972)
(7.40459 -8.96462e-20 2.07902)
(7.62148 1.81268e-20 2.08057)
(7.08638 -1.39108e-19 2.29057)
(7.32274 -2.71879e-19 2.29621)
(6.74455 -3.94412e-20 2.51503)
(7.00149 -2.14886e-21 2.52647)
(6.37695 1.33386e-19 2.75071)
(6.65569 -1.78569e-21 2.77051)
(5.98067 -1.47737e-19 2.99462)
(6.28257 1.51329e-19 3.02651)
(5.55184 -2.89927e-19 3.24196)
(5.87841 -2.94058e-19 3.29123)
(5.0853 2.73672e-22 3.48555)
(5.43821 5.84834e-22 3.55947)
(4.57455 -3.77025e-19 3.71512)
(4.95548 -2.03346e-20 3.82341)
(4.01175 1.88983e-20 3.91672)
(4.42214 -3.19677e-20 4.07179)
(3.38837 4.02595e-19 4.07238)
(3.82894 3.32679e-20 4.28904)
(2.6964 -3.84479e-19 4.15956)
(3.16512 3.89015e-19 4.45493)
(1.93098 8.2888e-19 4.15464)
(2.43078 -7.68278e-19 4.54237)
(1.09317 -4.8449e-19 4.00266)
(1.5804 1.21839e-18 4.52742)
(0.794552 -1.69752e-18 4.301)
(9.98274 5.06372e-21 0.137553)
(9.99759 -2.48741e-21 0.0956616)
(9.94881 2.53179e-21 0.228041)
(9.97292 2.56576e-21 0.190622)
(9.89855 2.73259e-21 0.318512)
(9.92969 0 0.284977)
(9.83231 -1.47511e-22 0.410507)
(9.87223 1.34725e-20 0.380153)
(9.75052 -8.56735e-21 0.505504)
(9.80034 -8.28184e-21 0.477756)
(9.65345 9.19372e-21 0.604774)
(9.71347 -2.00213e-20 0.579177)
(9.54125 3.91927e-20 0.709487)
(9.61172 2.34305e-20 0.685655)
(9.41389 -1.20658e-21 0.820786)
(9.49528 3.04052e-20 0.798378)
(9.27126 -4.43841e-20 0.939807)
(9.36416 -1.87541e-20 0.918525)
(9.11314 -1.95038e-20 1.06767)
(9.21824 -1.94985e-20 1.04726)
(8.93925 8.37166e-20 1.20549)
(9.05726 -2.50724e-22 1.18575)
(8.74918 1.72319e-20 1.35436)
(8.88091 8.29253e-20 1.33515)
(8.54246 -1.0515e-20 1.51537)
(8.68877 -4.97465e-20 1.4966)
(8.31852 -1.78917e-20 1.68956)
(8.48035 5.1889e-20 1.67123)
(8.07662 6.09179e-20 1.87787)
(8.255 -6.83039e-20 1.86012)
(7.8159 1.10148e-19 2.08112)
(8.01192 2.59461e-19 2.06428)
(7.53522 -1.67618e-19 2.29991)
(7.75009 -2.87586e-19 2.28458)
(7.23311 -1.31696e-19 2.5345)
(7.46815 -1.68843e-19 2.52167)
(6.90762 3.54482e-20 2.78465)
(7.16433 2.73566e-19 2.77586)
(6.55607 1.79051e-20 3.04937)
(6.83618 -1.04778e-19 3.04698)
(6.17489 -2.90491e-22 3.32662)
(6.48039 1.80338e-20 3.33409)
(5.75919 3.71169e-23 3.61277)
(6.09247 -1.91857e-20 3.63513)
(5.30255 -2.02646e-20 3.90204)
(5.66633 3.89399e-20 3.94642)
(4.79673 3.24794e-19 4.18565)
(5.19401 3.39355e-19 4.26183)
(4.2318 -1.697e-20 4.45081)
(4.66537 -3.16463e-19 4.57184)
(3.59677 2.37905e-20 4.67976)
(4.06854 3.39304e-19 4.86205)
(2.8813 -6.47661e-21 4.84817)
(3.3891 1.55105e-20 5.1119)
(2.0791 -3.54335e-19 4.92704)
(2.62473 1.36694e-22 5.29099)
(1.1912 -3.67677e-22 4.8447)
(1.72462 -3.71674e-19 5.36699)
(0.865283 8.85202e-21 5.2036)
(9.98342 -4.9205e-21 0.149785)
(9.99796 -1.27745e-23 0.103574)
(9.95094 0 0.248602)
(9.9743 -3.42798e-24 0.206533)
(9.90303 1.09174e-20 0.347633)
(9.933 -2.60382e-21 0.309082)
(9.84008 5.04617e-21 0.448426)
(9.87847 8.09226e-21 0.412678)
(9.76248 -1.98886e-20 0.552483)
(9.81048 -8.26751e-21 0.518926)
(9.6705 -5.22106e-21 0.661149)
(9.72844 -1.42664e-20 0.62927)
(9.56432 1.47322e-20 0.775683)
(9.63244 1.16523e-20 0.745028)
(9.44394 1.22266e-20 0.897308)
(9.52273 -2.40598e-20 0.867472)
(9.30931 6.12525e-21 1.02724)
(9.39937 2.46306e-20 0.997852)
(9.16027 0 1.16668)
(9.26227 -6.34414e-21 1.13741)
(8.99657 0 1.31683)
(9.11126 0 1.2874)
(8.81787 1.42836e-20 1.4789)
(8.94606 6.73887e-21 1.44905)
(8.62373 1.39313e-20 1.65407)
(8.76635 7.10211e-21 1.62363)
(8.4136 0 1.84354)
(8.57164 -5.78278e-20 1.8124)
(8.18675 1.34299e-19 2.04843)
(8.36133 5.91e-20 2.01659)
(7.94225 -1.44902e-19 2.26981)
(8.13463 2.47981e-19 2.23745)
(7.67887 -2.87407e-19 2.50859)
(7.89046 -3.82499e-19 2.47612)
(7.39494 2.41777e-19 2.7655)
(7.6274 1.13081e-19 2.73368)
(7.08822 1.28916e-19 3.04092)
(7.34347 1.39574e-19 3.011)
(6.75562 -1.03229e-19 3.33473)
(7.03598 -1.40342e-19 3.30869)
(6.39292 -1.29779e-21 3.64602)
(6.70121 1.49121e-22 3.62689)
(5.99438 2.0405e-20 3.97271)
(6.33404 -8.51524e-22 3.96502)
(5.5523 4.02194e-19 4.31084)
(5.92746 3.8247e-20 4.32125)
(5.05667 -3.09753e-19 4.6537)
(5.47207 5.03613e-20 4.6918)
(4.49495 4.76655e-20 4.99035)
(4.95548 -3.41746e-19 5.06969)
(3.85262 3.27063e-19 5.30386)
(4.36243 6.79575e-19 5.44278)
(3.11484 2.3802e-20 5.56827)
(3.67306 -3.503e-19 5.7913)
(2.27053 -2.40676e-20 5.74828)
(2.87913 1.17366e-20 6.08198)
(1.31709 -3.57701e-19 5.75243)
(1.91914 -1.84354e-20 6.27277)
(0.962154 3.54679e-21 6.19518)
(9.98423 4.91627e-21 0.161454)
(9.99838 3.55086e-23 0.111096)
(9.95343 -2.64166e-21 0.268152)
(9.97588 -2.54068e-21 0.221627)
(9.90813 -5.28875e-21 0.375244)
(9.93673 2.59085e-21 0.331881)
(9.84875 -5.4427e-21 0.484304)
(9.88541 -2.68389e-21 0.443365)
(9.77566 -2.72219e-21 0.596868)
(9.8216 -2.75803e-21 0.557707)
(9.68917 2.94239e-21 0.714344)
(9.74472 -1.12873e-20 0.67639)
(9.58945 -2.75985e-20 0.83806)
(9.65487 1.44366e-20 0.8008)
(9.47658 -1.10347e-20 0.969317)
(9.55234 -2.4144e-20 0.932278)
(9.35054 1.17698e-20 1.1094)
(9.43724 1.84295e-20 1.07214)
(9.21123 -6.26459e-21 1.25958)
(9.30956 -6.30182e-21 1.2217)
(9.05848 6.82395e-21 1.42116)
(9.16918 5.86787e-20 1.38228)
(8.89201 -4.36811e-22 1.59543)
(9.01591 -5.33422e-20 1.55521)
(8.71144 -6.5469e-20 1.7837)
(8.84948 -1.38713e-20 1.74185)
(8.51627 2.68842e-21 1.98732)
(8.6695 -6.49098e-20 1.94358)
(8.30583 1.75108e-19 2.20762)
(8.47545 3.47894e-22 2.16184)
(8.07917 2.84808e-21 2.44592)
(8.26657 5.43522e-20 2.39807)
(7.83505 2.39507e-20 2.70352)
(8.04184 1.37267e-20 2.65377)
(7.57172 1.11743e-20 2.98166)
(7.79984 2.67063e-19 2.93043)
(7.28678 -1.33014e-19 3.28145)
(7.5386 -2.64029e-19 3.22958)
(6.97691 -3.5273e-20 3.60377)
(7.25533 -1.73795e-20 3.55269)
(6.63746 5.88455e-22 3.9491)
(6.94616 -2.64476e-20 3.90113)
(6.26204 1.745e-20 4.31718)
(6.60565 -8.60067e-21 4.27602)
(5.84188 -3.13656e-19 4.70647)
(6.22621 -3.00583e-19 4.67786)
(5.36515 1.39218e-20 5.11316)
(5.79729 -3.18238e-20 5.10591)
(4.8163 3.0214e-19 5.52947)
(5.30437 3.16422e-19 5.557)
(4.17585 -1.02073e-20 5.94099)
(4.7282 -1.03356e-20 6.02326)
(3.42131 -3.58214e-19 6.32186)
(4.04146 0 6.48854)
(2.53126 1.82395e-20 6.63085)
(3.22494 -6.76645e-19 6.91963)
(1.49223 3.42877e-19 6.75345)
(2.19684 6.96775e-19 7.26517)
(1.10553 -1.19958e-20 7.31826)
(9.98516 -7.44297e-21 0.172479)
(9.99885 -2.45246e-21 0.118177)
(9.95621 2.75968e-21 0.286584)
(9.97762 -1.01046e-20 0.235814)
(9.91373 5.12659e-21 0.401214)
(9.94082 1.03491e-20 0.353263)
(9.85817 0 0.517989)
(9.89292 0 0.472086)
(9.7899 -1.14338e-20 0.638478)
(9.83355 -2.71715e-21 0.593941)
(9.70924 5.37811e-22 0.764138)
(9.76212 -1.12882e-20 0.720348)
(9.61639 1.73996e-20 0.896361)
(9.67876 8.64941e-21 0.852748)
(9.51147 5.86313e-21 1.03651)
(9.58379 7.78012e-24 0.992537)
(9.39453 4.22948e-23 1.18593)
(9.47741 1.83433e-20 1.14109)
(9.26555 5.94616e-20 1.34596)
(9.35965 -1.23926e-20 1.29978)
(9.12441 -2.8716e-21 1.51798)
(9.23048 9.74927e-20 1.46999)
(8.97094 -6.62918e-20 1.70338)
(9.0898 -1.12899e-19 1.65312)
(8.80484 -1.39382e-20 1.90358)
(8.93744 -1.88636e-23 1.85064)
(8.62571 -6.6477e-20 2.12007)
(8.77311 -2.21184e-23 2.06406)
(8.43294 -1.19822e-19 2.35439)
(8.5964 -5.87824e-20 2.29496)
(8.22571 6.47251e-20 2.60815)
(8.40669 -6.83585e-20 2.54503)
(8.00284 2.59913e-19 2.88303)
(8.2031 1.16026e-19 2.81607)
(7.76265 -1.42726e-20 3.18083)
(7.98435 2.64656e-20 3.11004)
(7.5028 -1.4549e-19 3.50342)
(7.74863 -1.93574e-20 3.42909)
(7.21996 -8.65325e-21 3.85278)
(7.49335 0 3.77561)
(6.90944 -3.54234e-20 4.23093)
(7.21482 8.25117e-21 4.15226)
(6.56461 -3.30053e-19 4.6398)
(6.90777 1.19459e-19 4.56202)
(6.1761 -1.57475e-20 5.08081)
(6.56463 -4.49273e-19 5.00807)
(5.73068 2.74837e-19 5.55416)
(6.17451 -1.57775e-20 5.49348)
(5.20987 0 6.05722)
(5.72155 2.9073e-19 6.02046)
(4.5882 0 6.58146)
(5.18304 -2.84835e-19 6.58842)
(3.83191 -3.26898e-19 7.10581)
(4.52318 3.00412e-19 7.19018)
(2.90025 2.77522e-20 7.58761)
(3.70605 -3.22888e-19 7.80083)
(1.75287 3.32495e-19 7.8879)
(2.61336 3.39586e-19 8.36745)
(1.33609 0 8.64121)
(9.98617 -5.19971e-21 0.182796)
(9.99935 7.39837e-21 0.124775)
(9.95923 -2.25849e-21 0.303805)
(9.97949 -2.54404e-21 0.24902)
(9.91976 5.08726e-21 0.425434)
(9.94519 2.58784e-21 0.373133)
(9.86824 -2.75261e-21 0.549348)
(9.90089 -5.2717e-21 0.498728)
(9.80504 -2.68214e-21 0.677151)
(9.84619 2.69969e-21 0.627495)
(9.73049 -2.92027e-21 0.810341)
(9.78045 2.77329e-21 0.760985)
(9.64484 -8.85246e-21 0.950359)
(9.70386 -2.88338e-21 0.900681)
(9.54826 1.27219e-20 1.09862)
(9.6168 -1.17816e-20 1.04803)
(9.44087 5.52448e-21 1.25652)
(9.5195 2.43989e-20 1.20444)
(9.3227 2.70147e-20 1.42546)
(9.41209 6.21498e-21 1.37134)
(9.19376 -1.5125e-20 1.60688)
(9.29461 2.61419e-20 1.55015)
(9.05395 -4.52287e-20 1.80224)
(9.16708 -1.11908e-19 1.74237)
(8.90311 1.38954e-20 2.01308)
(9.02943 6.0535e-20 1.94951)
(8.74095 6.96058e-21 2.24102)
(8.88153 7.04705e-21 2.1732)
(8.56703 -7.45316e-21 2.48778)
(8.72311 0 2.41516)
(8.38068 -1.49269e-20 2.75524)
(8.55376 -2.73752e-23 2.6773)
(8.18092 -1.18548e-19 3.04547)
(8.37282 -1.19872e-19 2.96168)
(7.96632 2.08019e-20 3.36077)
(8.1793 -1.25621e-19 3.27068)
(7.73484 1.26418e-19 3.70379)
(7.97177 1.27517e-19 3.60703)
(7.48348 1.69957e-20 4.07761)
(7.74809 -8.185e-21 3.97397)
(7.20798 1.64432e-19 4.48583)
(7.50521 2.69636e-19 4.3754)
(6.90211 -5.98287e-21 4.9327)
(7.23862 2.7914e-19 4.81613)
(6.55682 -4.44599e-19 5.42312)
(6.94173 -1.48997e-19 5.30212)
(6.15868 3.11819e-21 5.96241)
(6.60468 -2.89513e-19 5.84073)
(5.68758 -8.50185e-22 6.55549)
(6.21235 2.90855e-19 6.44089)
(5.11287 2.30458e-20 7.20481)
(5.74138 -2.93872e-19 7.11273)
(4.3875 2.96674e-19 7.90404)
(5.1505 3.00529e-19 7.86607)
(3.44006 2.54212e-21 8.62509)
(4.38593 8.22666e-21 8.70179)
(2.16909 2.4742e-21 9.21967)
(3.27244 2.50821e-21 9.59627)
(1.74517 -3.05611e-20 10.2911)
(9.98725 9.93931e-21 0.192355)
(9.99988 4.914e-21 0.130859)
(9.96243 2.37076e-21 0.319739)
(9.98147 5.02423e-21 0.261186)
(9.92613 -7.87628e-21 0.447809)
(9.94978 -7.6744e-21 0.391415)
(9.87882 2.83879e-22 0.578269)
(9.90925 -5.27205e-21 0.523198)
(9.8209 8.15612e-21 0.712755)
(9.85938 1.3507e-20 0.658256)
(9.75271 2.73785e-21 0.852798)
(9.79954 -1.10319e-20 0.798168)
(9.67454 -5.9258e-21 0.999878)
(9.72995 -2.82793e-21 0.944445)
(9.58662 3.51875e-22 1.15544)
(9.65105 -6.70436e-24 1.09856)
(9.48912 2.4866e-20 1.32094)
(9.56313 6.05288e-21 1.26197)
(9.38218 5.59896e-21 1.4978)
(9.46639 1.25373e-20 1.43613)
(9.2659 -7.23455e-20 1.68751)
(9.36099 -4.4312e-20 1.62249)
(9.1403 -4.04156e-21 1.89161)
(9.24703 -2.67542e-20 1.82259)
(9.00535 5.30367e-20 2.1117)
(9.12461 5.36973e-20 2.03802)
(8.86094 0 2.34953)
(8.99374 0 2.27047)
(8.70683 7.42336e-21 2.60697)
(8.85437 0 2.52178)
(8.54259 -1.0642e-19 2.88612)
(8.70633 6.47599e-20 2.79399)
(8.36757 -1.27144e-19 3.18936)
(8.54927 -1.7089e-19 3.08941)
(8.18075 -1.62061e-20 3.51945)
(8.38263 -1.56965e-20 3.41073)
(7.98059 -8.86692e-21 3.87969)
(8.20551 7.16971e-21 3.76113)
(7.76484 2.47481e-19 4.27414)
(8.01655 7.41184e-21 4.14453)
(7.53019 3.84779e-19 4.70785)
(7.81369 3.79501e-19 4.56585)
(7.2717 1.31477e-19 5.18726)
(7.59393 2.57826e-19 5.0314)
(6.98195 4.54016e-21 5.72075)
(7.35271 1.29225e-19 5.54957)
(6.64946 4.43776e-21 6.31926)
(7.08312 -1.2469e-19 6.13169)
(6.25586 -8.97718e-21 6.99715)
(6.77416 0 6.7935)
(5.77034 -8.76841e-21 7.77333)
(6.40807 -8.87398e-21 7.55762)
(5.13808 8.32983e-21 8.67143)
(5.95001 0 8.45816)
(4.25394 8.11648e-21 9.71922)
(5.34872 -6.57775e-23 9.54754)
(2.90005 -3.09447e-20 10.863)
(4.39098 -2.1483e-19 10.9157)
(2.56532 1.62346e-19 12.5383)
(9.98838 0 0.201114)
(10.0004 2.29573e-21 0.136402)
(9.96579 -5.17497e-21 0.334324)
(9.98352 -7.03238e-21 0.272267)
(9.93277 -5.04079e-21 0.468256)
(9.95455 -3.77456e-22 0.408046)
(9.88982 8.19574e-21 0.604645)
(9.9179 9.88245e-21 0.545421)
(9.83734 -5.99777e-21 0.745154)
(9.87301 -9.47782e-21 0.686137)
(9.7757 -1.6493e-20 0.891339)
(9.81925 -3.70055e-21 0.831794)
(9.70522 3.12609e-21 1.0447)
(9.75687 -2.15533e-20 0.98392)
(9.62619 5.77013e-21 1.20673)
(9.68636 2.50469e-20 1.14401)
(9.53887 -6.19609e-21 1.37887)
(9.60809 1.96874e-20 1.31354)
(9.44346 -3.80754e-20 1.56261)
(9.52234 -2.34217e-20 1.49397)
(9.34018 1.48791e-21 1.75945)
(9.42936 -5.59024e-20 1.68679)
(9.22919 3.19503e-20 1.97097)
(9.3294 6.31477e-20 1.89355)
(9.11061 0 2.19884)
(9.22269 6.17335e-21 2.11587)
(8.98454 0 2.44487)
(9.10943 4.4659e-20 2.35549)
(8.85096 5.81183e-20 2.71104)
(8.9898 6.64713e-21 2.6143)
(8.70978 -2.43925e-21 2.99961)
(8.86392 5.30431e-21 2.89446)
(8.56075 -5.77376e-20 3.31317)
(8.73184 -8.55064e-21 3.19838)
(8.40338 7.79252e-21 3.65482)
(8.59349 -4.8374e-20 3.52895)
(8.2369 2.32642e-20 4.02832)
(8.44868 -1.1597e-19 3.88963)
(8.0601 1.43466e-19 4.43841)
(8.297 1.23682e-19 4.28473)
(7.87114 2.51791e-19 4.8912)
(8.13779 2.45099e-19 4.71976)
(7.66724 2.54125e-19 5.39479)
(7.97005 2.48999e-19 5.20194)
(7.44415 -2.20988e-21 5.96025)
(7.79229 1.31222e-19 5.74107)
(7.19516 -1.27731e-19 6.6032)
(7.60239 -1.30655e-19 6.35089)
(6.90914 0 7.34664)
(7.39725 0 7.05154)
(6.56617 0 8.22676)
(7.17309 0 7.87436)
(6.12657 -8.13846e-21 9.30643)
(6.92295 0 8.87318)
(5.49606 -2.25294e-19 10.7248)
(6.6657 -8.18855e-21 10.1553)
(4.37437 8.96198e-20 13.0019)
(6.51332 -2.18466e-19 12.0215)
(5.63931 3.78026e-19 16.0244)
(0.206039 -6.89867e-22 -0.1108)
(0.106899 -8.59411e-22 -0.195718)
(0.411491 4.24895e-22 -0.104277)
(0.310858 4.18767e-22 -0.190471)
(0.585891 0 -0.0843566)
(0.493216 0 -0.157003)
(0.721482 5.20403e-23 -0.0618574)
(0.649046 -2.92985e-22 -0.11898)
(0.818916 -1.1065e-22 -0.0409525)
(0.769283 3.85945e-22 -0.0835108)
(0.881833 -5.19901e-23 -0.0230523)
(0.853945 -7.24884e-23 -0.0527332)
(0.915067 0 -0.00854014)
(0.907557 5.77995e-23 -0.0272463)
(0.924073 -2.1968e-23 0.00243848)
(0.935778 4.50059e-23 -0.00720354)
(0.914952 3.69294e-23 0.00990615)
(0.944393 1.52432e-23 0.00721694)
(0.893671 2.83254e-23 0.0142196)
(0.937674 -1.07904e-22 0.0164446)
(0.865178 0 0.0158847)
(0.921026 0 0.0215534)
(0.83385 0 0.0154238)
(0.898957 0 0.0232035)
(0.803459 0 0.0134289)
(0.875156 0 0.0220422)
(0.776819 0 0.0105846)
(0.852564 0 0.0189194)
(0.75548 0 0.00759715)
(0.833133 0 0.01484)
(0.73956 -1.12754e-23 0.00505076)
(0.817554 0 0.0108408)
(0.727952 -2.45263e-25 0.00322119)
(0.805212 4.59654e-23 0.00773965)
(0.719144 5.97036e-24 0.00197238)
(0.794646 -4.4961e-23 0.00575102)
(0.712358 -4.22154e-25 0.00088864)
(0.784575 2.16249e-23 0.00433757)
(0.70821 6.64339e-25 -0.000412434)
(0.774949 -2.10805e-23 0.00259723)
(0.708326 4.89504e-24 -0.00203325)
(0.767162 1.35408e-23 -6.4895e-05)
(0.714173 8.7301e-24 -0.00378802)
(0.763298 -1.34908e-23 -0.0034905)
(0.72584 0 -0.0054533)
(0.76383 0 -0.00682267)
(0.742537 0 -0.00707431)
(0.76899 1.2584e-23 -0.00955886)
(0.764036 0 -0.00894855)
(0.778074 -5.90848e-24 -0.0120491)
(0.791181 0 -0.0113799)
(0.79057 0 -0.0148937)
(0.825749 0 -0.0144774)
(0.806947 0 -0.0185679)
(0.870085 -3.33381e-26 -0.01789)
(0.829355 -3.69934e-25 -0.0233157)
(0.925563 2.07593e-24 -0.0204384)
(0.861033 3.96896e-25 -0.0285668)
(0.91607 -3.40968e-26 -0.0307542)
(0.202791 -3.10684e-22 -0.298497)
(0.0682615 8.33118e-23 -0.397101)
(0.402745 0 -0.267005)
(0.28416 -1.21369e-21 -0.375787)
(0.572591 -2.89073e-22 -0.213622)
(0.449748 1.17794e-21 -0.309475)
(0.707149 9.19723e-22 -0.158653)
(0.591057 -1.02055e-21 -0.236616)
(0.808067 3.16383e-22 -0.109256)
(0.700787 7.57121e-22 -0.169671)
(0.879382 4.46885e-23 -0.067617)
(0.779914 1.76055e-22 -0.112279)
(0.92611 2.7996e-23 -0.0341087)
(0.832854 4.04466e-23 -0.065434)
(0.953114 -4.9632e-23 -0.00838951)
(0.864951 4.50028e-23 -0.0288094)
(0.964195 -2.34876e-22 0.0100266)