/*--------------------------------*- C++ -*----------------------------------*\
| =========                 |                                                 |
| \\      /  F ield         | OpenFOAM: The Open Source CFD Toolbox           |
|  \\    /   O peration     | Version:  dev                                   |
|   \\  /    A nd           | Web:      www.OpenFOAM.org                      |
|    \\/     M anipulation  |                                                 |
\*---------------------------------------------------------------------------*/
FoamFile
{
    version     2.0;
    format      ascii;
    class       volVectorField;
    location    "3.75";
    object      Force;
}
// * * * * * * * * * * * * * * * * * * * * * * * * * * * * * * * * * * * * * //

dimensions      [1 1 -2 0 0 0 0];

internalField   uniform (0 0 0);

boundaryField
{
    inlet
    {
        type            calculated;
        value           nonuniform 0();
    }
    outlet
    {
        type            calculated;
        value           nonuniform 0();
    }
    flap
    {
        type            calculated;
        value           nonuniform List<vector> 
33
(
(3.90492 1.72595e-17 -0.104228)
(3.87057 -1.69063e-17 -0.190577)
(3.84247 -8.81621e-39 -0.242317)
(3.82126 -2.59714e-18 -0.250898)
(3.80407 -1.60622e-17 -0.227691)
(3.78393 1.71906e-17 -0.181441)
(3.75724 3.47639e-23 -0.119319)
(3.72309 -3.19829e-19 -0.0465834)
(3.67871 -1.27495e-22 0.0303174)
(3.62019 -5.04644e-23 0.10347)
(3.53884 6.73117e-23 0.164842)
(3.41952 1.8331e-17 0.206928)
(3.23403 -5.99572e-25 0.224876)
(2.91936 1.98566e-18 0.216823)
(2.29862 1.69056e-17 0.174869)
(-0.0305234 -6.49515e-22 0.466531)
(-0.0204455 8.03598e-18 0.283138)
(-0.00807474 -3.24023e-20 0.0958439)
(-0.0596631 1.53311e-17 0.00160498)
(-0.0591173 2.04021e-20 0.00271948)
(-0.0581585 -9.49268e-24 0.00336066)
(-0.0571356 -3.90301e-40 0.00333766)
(-0.056519 9.01067e-25 0.00289271)
(-0.056887 4.51857e-24 0.0021953)
(-0.0586942 -1.96221e-20 0.00132759)
(-0.061976 -1.1059e-24 0.000291815)
(-0.0662079 -5.54242e-41 -0.000928037)
(-0.0704701 -1.14794e-41 -0.00226334)
(-0.0739444 -2.46928e-20 -0.00352)
(-0.0766919 -4.82544e-23 -0.00440101)
(-0.0775806 1.64329e-17 -0.00488785)
(-0.0733696 1.61719e-17 -0.00460844)
(-0.0589757 1.58083e-17 -0.00345763)
)
;
    }
    upperWall
    {
        type            calculated;
        value           nonuniform 0();
    }
    lowerWall
    {
        type            calculated;
        value           uniform (0 0 0);
    }
    frontAndBack
    {
        type            empty;
    }
    procBoundary4to1
    {
        type            processor;
        value           uniform (0 0 0);
    }
    procBoundary4to2
    {
        type            processor;
        value           uniform (0 0 0);
    }
    procBoundary4to3
    {
        type            processor;
        value           uniform (0 0 0);
    }
    procBoundary4to5
    {
        type            processor;
        value           uniform (0 0 0);
    }
}


// ************************************************************************* //
