/*--------------------------------*- C++ -*----------------------------------*\
| =========                 |                                                 |
| \\      /  F ield         | OpenFOAM: The Open Source CFD Toolbox           |
|  \\    /   O peration     | Version:  dev                                   |
|   \\  /    A nd           | Web:      www.OpenFOAM.org                      |
|    \\/     M anipulation  |                                                 |
\*---------------------------------------------------------------------------*/
FoamFile
{
    version     2.0;
    format      ascii;
    class       volScalarField;
    location    "3.75";
    object      p;
}
// * * * * * * * * * * * * * * * * * * * * * * * * * * * * * * * * * * * * * //

dimensions      [0 2 -2 0 0 0 0];

internalField   nonuniform List<scalar> 
465
(
184.641
186.513
188.081
189.3
190.15
190.644
190.799
190.851
190.995
184.497
186.395
187.992
189.242
190.116
190.602
190.739
190.889
191.092
183.911
185.833
187.479
188.804
189.781
190.42
190.792
191.097
191.398
182.999
184.941
186.645
188.075
189.214
190.082
190.737
191.26
191.732
181.802
183.756
185.519
187.066
188.386
189.491
190.41
191.154
191.805
180.329
182.276
184.082
185.73
187.212
188.528
189.679
190.611
191.401
178.573
180.482
182.296
184.006
185.607
187.09
188.433
189.53
190.461
176.519
178.347
180.116
181.829
183.486
185.076
186.572
187.827
188.944
174.149
175.838
177.493
179.126
180.751
182.368
183.963
185.367
186.74
171.449
172.928
174.378
175.822
177.29
178.81
180.406
181.916
183.621
168.413
169.598
170.732
171.843
172.979
174.202
175.609
177.095
179.178
165.051
165.848
166.536
167.135
167.694
168.303
169.159
170.288
172.696
161.391
161.707
161.811
161.689
161.354
160.875
160.513
160.489
162.824
157.486
157.24
156.631
155.578
153.991
151.786
149.07
146.033
146.57
153.412
152.551
151.144
149.005
145.858
141.259
134.596
124.453
115.178
3.09288
3.04885
2.93938
2.78457
2.61809
2.46264
2.32767
2.21486
2.12217
2.04566
3.03696
2.98609
2.8792
2.73214
2.57516
2.42861
2.30105
2.19431
2.10701
2.03553
2.96246
2.90485
2.8013
2.66312
2.51787
2.38278
2.26512
2.16662
2.08602
2.02053
2.88811
2.82588
2.726
2.59629
2.46243
2.33835
2.23013
2.13952
2.06579
2.00622
2.83917
2.77487
2.6793
2.55733
2.43268
2.31646
2.21444
2.12809
2.05811
2.00208
2.84276
2.77645
2.68391
2.56682
2.44681
2.33328
2.23242
2.1466
2.07536
2.01552
2.9202
2.84719
2.75163
2.63116
2.50711
2.38889
2.28255
2.19109
2.11229
2.04448
3.07388
2.98374
2.87303
2.73849
2.60089
2.47044
2.35264
2.24943
2.15975
2.0829
3.27874
3.15984
3.02125
2.86362
2.70607
2.5593
2.42755
2.31113
2.21065
2.12508
3.49105
3.33823
3.1647
2.98151
2.80442
2.64074
2.49523
2.36867
2.25972
2.16615
3.66881
3.49189
3.28483
3.07499
2.87956
2.70427
2.54991
2.41613
2.30115
2.20191
3.81499
3.59299
3.35666
3.12723
2.91958
2.73864
2.58201
2.44658
2.33001
2.22895
3.87243
3.58296
3.32902
3.10061
2.90015
2.73013
2.58361
2.45458
2.34234
2.24464
3.6683
3.33032
3.12947
2.96447
2.80313
2.66908
2.55122
2.43776
2.3356
2.24753
2.95155
2.60296
2.64433
2.71454
2.62565
2.55468
2.49078
2.39882
2.30828
2.23719
149.191
147.697
145.467
142.202
137.401
130.116
118.382
95.1646
33.3913
144.881
142.789
139.812
135.588
129.51
120.488
106.768
86.6635
57.4558
140.614
138.017
134.474
129.65
123.075
114.127
102.193
87.7717
70.6805
136.491
133.515
129.611
124.526
117.96
109.598
99.1127
86.4173
70.9615
129.347
125.248
120.099
113.695
105.823
96.2351
84.7567
71.5699
116.269
110.12
102.787
94.1663
84.2522
73.4532
100.456
92.7981
84.2554
75.1631
84.3507
76.5272
-46.2377
-27.8335
-9.28483
38.3639
31.8721
20.6233
53.1645
41.3835
30.4329
54.5894
44.2312
36.1982
58.9411
50.7011
43.9582
63.3398
56.4588
50.5732
66.6157
60.745
55.6902
69.2085
64.1866
59.8683
67.0589
63.3399
0.4849
0.538073
1.67654
2.53691
2.40349
2.37025
2.41192
2.34669
2.26026
6.08684
2.28155
3.24692
2.90617
1.80076
1.93439
2.4136
2.36302
2.19866
15.9762
7.48731
4.79389
2.76425
2.22419
2.87949
3.02861
2.33118
1.86984
25.3153
15.6065
9.98921
6.3582
4.4239
3.60156
2.83605
2.30815
2.14376
34.5107
24.8268
17.6055
12.3377
8.68382
6.2599
4.5859
3.52622
2.9288
42.4783
33.5633
25.7103
19.3012
14.4004
10.7884
8.14562
6.22976
4.87334
48.9664
41.149
33.387
26.5083
20.8913
16.4361
12.9207
10.1654
8.04402
54.263
47.5104
40.2485
33.4117
27.522
22.5735
18.4361
15.0108
12.2191
58.587
52.7443
46.1428
39.6493
33.8148
28.6924
24.2159
20.3434
17.0406
57.0182
51.0916
45.0794
39.5015
34.4381
29.858
25.7535
22.1241
44.4869
39.6215
35.1019
30.9376
27.1478
39.8204
35.7137
31.8901
36.2279
)
;

boundaryField
{
    inlet
    {
        type            zeroGradient;
    }
    outlet
    {
        type            fixedValue;
        value           nonuniform 0();
    }
    flap
    {
        type            zeroGradient;
    }
    upperWall
    {
        type            zeroGradient;
    }
    lowerWall
    {
        type            zeroGradient;
    }
    frontAndBack
    {
        type            empty;
    }
    procBoundary4to1
    {
        type            processor;
        value           nonuniform List<scalar> 
30
(
132.583
132.583
125.536
121.361
121.361
112.986
107.182
107.182
98.6338
91.8109
91.8109
84.5016
77.7049
71.3913
71.3913
69.4498
66.2124
62.1131
62.1131
60.5193
55.2122
49.7124
49.7124
48.7821
44.1818
44.1818
43.9811
40.0013
40.0013
40.1152
)
;
    }
    procBoundary4to2
    {
        type            processor;
        value           nonuniform List<scalar> 
11
(
2.00921
2.53677
2.73083
3.95872
6.44557
9.97492
14.257
18.9518
23.7376
28.3675
32.6849
)
;
    }
    procBoundary4to3
    {
        type            processor;
        value           nonuniform List<scalar> 
19
(
182.52
182.358
181.768
180.867
179.696
178.267
176.582
174.636
172.42
169.929
167.165
164.142
160.885
157.438
153.857
150.142
146.324
142.498
138.74
)
;
    }
    procBoundary4to5
    {
        type            processor;
        value           nonuniform List<scalar> 
18
(
1.98016
1.97417
1.96477
1.95551
1.95414
1.9643
1.98706
2.01737
2.05105
2.08443
2.11447
2.13875
2.15567
2.16499
2.16861
2.21566
2.21566
2.17199
)
;
    }
}


// ************************************************************************* //
