/*--------------------------------*- C++ -*----------------------------------*\
| =========                 |                                                 |
| \\      /  F ield         | OpenFOAM: The Open Source CFD Toolbox           |
|  \\    /   O peration     | Version:  dev                                   |
|   \\  /    A nd           | Web:      www.OpenFOAM.org                      |
|    \\/     M anipulation  |                                                 |
\*---------------------------------------------------------------------------*/
FoamFile
{
    version     2.0;
    format      ascii;
    class       volScalarField;
    location    "5";
    object      p;
}
// * * * * * * * * * * * * * * * * * * * * * * * * * * * * * * * * * * * * * //

dimensions      [0 2 -2 0 0 0 0];

internalField   nonuniform List<scalar> 
465
(
100.622
100.467
100.614
101.03
101.615
102.325
103.156
104.11
105.185
106.379
107.69
109.117
110.661
112.319
114.09
115.97
117.953
120.03
122.185
124.401
126.651
100.462
100.403
100.57
100.984
101.566
102.275
103.103
104.053
105.122
106.309
107.613
109.032
110.565
112.213
113.972
115.839
117.808
119.87
122.012
124.215
126.456
100.311
100.323
100.508
100.914
101.487
102.186
103.004
103.941
104.995
106.164
107.447
108.841
110.347
111.962
113.685
115.51
117.433
119.443
121.527
123.668
125.844
100.152
100.202
100.4
100.799
101.36
102.049
102.853
103.773
104.807
105.952
107.206
108.568
110.036
111.607
113.278
115.045
116.9
118.833
120.832
122.878
124.949
99.9792
100.048
100.257
100.65
101.2
101.874
102.661
103.559
104.567
105.682
106.9
108.22
109.639
111.154
112.761
114.453
116.224
118.061
119.951
121.875
123.81
99.7865
99.8652
100.08
100.468
101.004
101.66
102.425
103.297
104.273
105.351
106.527
107.797
109.159
110.608
112.139
113.744
115.416
117.14
118.902
120.682
122.455
99.5722
99.6555
99.8723
100.252
100.773
101.408
102.147
102.989
103.929
104.965
106.091
107.305
108.601
109.975
111.419
112.926
114.486
116.083
117.7
119.316
120.904
99.3354
99.4201
99.635
100.005
100.508
101.119
101.83
102.638
103.537
104.525
105.597
106.746
107.969
109.259
110.609
112.007
113.442
114.899
116.356
117.79
119.171
99.0762
99.1601
99.3701
99.7277
100.211
100.796
101.476
102.245
103.099
104.035
105.046
106.126
107.269
108.468
109.714
110.994
112.295
113.598
114.882
116.119
117.274
98.7949
98.8765
99.079
99.4223
99.8836
100.441
101.085
101.813
102.619
103.498
104.443
105.448
106.506
107.607
108.742
109.895
111.053
112.193
113.292
114.317
115.228
98.4922
98.5703
98.7635
99.0904
99.5281
100.055
100.662
101.345
102.099
102.917
103.793
104.719
105.686
106.684
107.7
108.721
109.727
110.696
111.599
112.4
113.054
98.1692
98.2429
98.4249
98.7338
99.1461
99.6404
100.208
100.844
101.543
102.297
103.1
103.942
104.814
105.704
106.598
107.48
108.329
109.119
109.818
110.386
110.772
97.8269
97.8954
98.0651
98.3543
98.7397
99.1997
99.7256
100.312
100.953
101.642
102.368
103.124
103.897
104.675
105.444
106.183
106.87
107.477
107.967
108.296
108.407
97.4665
97.5294
97.6856
97.9538
98.3109
98.7353
99.2179
99.7532
100.335
100.955
101.603
102.27
102.942
103.606
104.246
104.84
105.363
105.784
106.063
106.152
105.985
97.0895
97.1464
97.2881
97.5342
97.8618
98.2494
98.6874
99.1701
99.6907
100.241
100.809
101.385
101.955
102.505
103.014
103.463
103.822
104.057
104.127
103.978
103.538
96.8665
97.0891
97.3858
97.7348
98.1265
98.5545
99.0118
99.4893
99.9757
100.459
100.924
101.356
101.734
102.035
102.229
102.279
102.14
101.754
101.047
96.6137
96.8776
97.1863
97.5295
97.9004
98.2919
98.6944
99.096
99.4832
99.8419
100.154
100.399
100.551
100.578
100.444
100.1
99.4863
98.5243
96.3416
96.6083
96.9014
97.2136
97.5375
97.8635
98.1786
98.469
98.7196
98.9118
99.0232
99.0277
98.893
98.58
98.0399
97.212
96.0183
96.0026
96.2443
96.4966
96.7519
97.0002
97.2281
97.4214
97.5644
97.6374
97.6179
97.4789
97.1879
96.7053
95.9832
94.9622
93.5679
95.5605
95.7521
95.9382
96.1086
96.2494
96.3464
96.3831
96.3397
96.1934
95.9171
95.4787
94.8396
93.954
92.766
91.2079
94.9831
95.1002
95.193
95.2478
95.2502
95.1833
95.0275
94.7605
94.3553
93.7809
93.0013
91.9737
90.6477
88.965
94.2584
94.2289
94.1394
93.9728
93.7104
93.3301
92.806
92.1093
91.207
90.0605
88.6265
86.8572
93.1986
93.0207
92.7599
92.3976
91.9127
91.2813
90.4772
89.4708
88.2291
86.7162
84.8945
91.5525
91.0978
90.5183
89.792
88.8959
87.8047
86.4907
84.9253
83.0801
89.1559
88.3478
87.3755
86.2178
84.8524
83.2573
81.4119
86.9569
85.9235
84.7161
83.3176
81.7116
79.8839
83.3031
81.887
80.2852
78.4888
78.9735
77.218
)
;

boundaryField
{
    inlet
    {
        type            zeroGradient;
    }
    outlet
    {
        type            fixedValue;
        value           nonuniform 0();
    }
    flap
    {
        type            zeroGradient;
    }
    upperWall
    {
        type            zeroGradient;
    }
    lowerWall
    {
        type            zeroGradient;
    }
    frontAndBack
    {
        type            empty;
    }
    procBoundary3to0
    {
        type            processor;
        value           nonuniform List<scalar> 
34
(
96.6898
96.7403
96.7403
96.416
96.416
96.1118
96.1118
95.7792
95.7792
95.3713
95.3713
94.8528
94.8528
94.1933
94.242
94.242
93.3099
93.3099
92.163
91.9015
91.9015
90.3579
89.8195
89.8195
87.8337
87.8337
85.6258
84.5451
84.5451
81.98
80.5592
80.5592
77.7705
76.0625
)
;
    }
    procBoundary3to1
    {
        type            processor;
        value           nonuniform List<scalar> 9(89.2005 86.8608 84.702 82.7263 80.9283 79.298 77.8235 76.4921 75.2911);
    }
    procBoundary3to4
    {
        type            processor;
        value           nonuniform List<scalar> 
19
(
128.905
128.703
128.025
127.018
125.73
124.194
122.432
120.462
118.305
115.978
113.505
110.91
108.224
105.479
102.716
99.9194
97.1131
94.3597
91.7087
)
;
    }
}


// ************************************************************************* //
