/*--------------------------------*- C++ -*----------------------------------*\
| =========                 |                                                 |
| \\      /  F ield         | OpenFOAM: The Open Source CFD Toolbox           |
|  \\    /   O peration     | Version:  dev                                   |
|   \\  /    A nd           | Web:      www.OpenFOAM.org                      |
|    \\/     M anipulation  |                                                 |
\*---------------------------------------------------------------------------*/
FoamFile
{
    version     2.0;
    format      ascii;
    class       volVectorField;
    location    "1.38";
    object      Force;
}
// * * * * * * * * * * * * * * * * * * * * * * * * * * * * * * * * * * * * * //

dimensions      [1 1 -2 0 0 0 0];

internalField   uniform (0 0 0);

boundaryField
{
    inlet
    {
        type            calculated;
        value           nonuniform 0();
    }
    outlet
    {
        type            calculated;
        value           nonuniform 0();
    }
    flap
    {
        type            calculated;
        value           nonuniform List<vector> 
33
(
(2.88956 -8.81621e-39 -0.252525)
(2.81501 -5.78466e-22 -0.578509)
(2.67214 -1.96643e-17 -0.867382)
(2.47654 4.75667e-22 -1.06511)
(2.25982 1.8854e-17 -1.18232)
(2.04768 -1.24526e-17 -1.23562)
(1.85541 1.78662e-17 -1.24211)
(1.69024 -2.7918e-37 -1.21667)
(1.54851 -1.68761e-17 -1.16921)
(1.42213 9.66722e-18 -1.10558)
(1.30104 8.93504e-18 -1.02869)
(1.17311 -2.30363e-22 -0.936784)
(1.02676 1.4676e-17 -0.824716)
(0.849937 2.35099e-38 -0.683044)
(0.622038 4.31969e-18 -0.500207)
(0.497782 2.11349e-18 0.609753)
(0.315689 9.79075e-18 0.389269)
(0.134887 -5.76867e-19 0.167048)
(-0.043082 1.16764e-17 0.00384726)
(-0.0422678 3.14812e-24 0.00867355)
(-0.0407287 1.26858e-17 0.0132239)
(-0.0386891 1.30531e-17 0.016584)
(-0.0363718 -1.36634e-17 0.0189516)
(-0.0339997 -1.40326e-17 0.0204162)
(-0.0317436 -1.07018e-19 0.0211254)
(-0.0296516 9.16858e-23 0.0212139)
(-0.0277143 1.54891e-17 0.0208088)
(-0.0258032 -1.79459e-19 0.0199807)
(-0.0236131 1.56701e-17 0.0186627)
(-0.0206387 1.61662e-17 0.0165739)
(-0.0158846 -1.64189e-22 0.0129703)
(-0.00794917 1.29565e-22 0.00696223)
(0.010469 -1.28215e-22 -0.00847249)
)
;
    }
    upperWall
    {
        type            calculated;
        value           nonuniform 0();
    }
    lowerWall
    {
        type            calculated;
        value           uniform (0 0 0);
    }
    frontAndBack
    {
        type            empty;
    }
    procBoundary4to1
    {
        type            processor;
        value           uniform (0 0 0);
    }
    procBoundary4to2
    {
        type            processor;
        value           uniform (0 0 0);
    }
    procBoundary4to3
    {
        type            processor;
        value           uniform (0 0 0);
    }
    procBoundary4to5
    {
        type            processor;
        value           uniform (0 0 0);
    }
}


// ************************************************************************* //
