/*--------------------------------*- C++ -*----------------------------------*\
| =========                 |                                                 |
| \\      /  F ield         | OpenFOAM: The Open Source CFD Toolbox           |
|  \\    /   O peration     | Version:  dev                                   |
|   \\  /    A nd           | Web:      www.OpenFOAM.org                      |
|    \\/     M anipulation  |                                                 |
\*---------------------------------------------------------------------------*/
FoamFile
{
    version     2.0;
    format      ascii;
    class       surfaceScalarField;
    location    "1.38";
    object      phi;
}
// * * * * * * * * * * * * * * * * * * * * * * * * * * * * * * * * * * * * * //

dimensions      [0 3 -1 0 0 0 0];

internalField   nonuniform List<scalar> 
865
(
0.109766
0.00787207
0.101071
0.00869667
0.0914205
0.00965258
0.0806498
0.0107724
0.0685439
0.0121073
0.0548017
0.013743
0.0389392
0.0158626
0.0198402
0.0190989
0.0198403
0.128473
0.0153499
0.120081
0.0170904
0.110594
0.0191404
0.0997707
0.0215978
0.0872405
0.0246393
0.0724184
0.0285663
0.0543208
0.0339604
0.0306974
0.0427219
0.0505377
0.134798
0.0222208
0.126984
0.0249057
0.117984
0.0281412
0.107465
0.0321178
0.0948964
0.0372106
0.0793424
0.0441227
0.0591873
0.0541161
0.0329308
0.0689776
0.0834682
0.137032
0.0288033
0.129491
0.0324478
0.120696
0.036936
0.110208
0.0426062
0.0973942
0.0500261
0.0812631
0.0602577
0.0595182
0.0758634
0.0322
0.096295
0.115667
0.137792
0.0353282
0.13027
0.0399719
0.121428
0.0457777
0.110778
0.0532541
0.097541
0.0632621
0.0807226
0.0770802
0.0578428
0.0987484
0.0303874
0.123751
0.146053
0.138043
0.0419101
0.130412
0.0476061
0.121379
0.0548111
0.11044
0.0641892
0.0968092
0.0768882
0.0793233
0.094567
0.0553719
0.122707
0.0280439
0.151082
0.174095
0.138189
0.0485928
0.1304
0.0553988
0.121139
0.0640756
0.109866
0.075461
0.0957701
0.0909753
0.077949
0.112382
0.0530999
0.147561
0.0254408
0.178749
0.199534
0.138427
0.0553711
0.13048
0.0633488
0.120991
0.0735718
0.109428
0.0870271
0.0948743
0.105522
0.0767592
0.130484
0.0508672
0.173451
0.0223379
0.207287
0.221873
0.138877
0.06223
0.130819
0.0714079
0.121177
0.0832214
0.109376
0.0988372
0.0945313
0.120368
0.07558
0.149421
0.047731
0.201288
0.0176676
0.237356
0.239544
0.139646
0.0691065
0.131548
0.0795031
0.121841
0.0929304
0.109923
0.110767
0.0946951
0.135606
0.074524
0.169586
0.045448
0.230345
0.0144272
0.268375
0.253976
0.140813
0.0759104
0.132788
0.087521
0.123146
0.102569
0.111201
0.122717
0.0957332
0.151088
0.0752573
0.190067
0.0477655
0.257822
0.0178394
0.298292
0.271818
0.142468
0.0825341
0.134662
0.0953187
0.125246
0.111975
0.113553
0.134407
0.0987116
0.165938
0.0791452
0.209645
0.0546007
0.282362
0.0265981
0.326284
0.298412
0.144672
0.0888509
0.137249
0.102735
0.128341
0.120872
0.117508
0.145229
0.103946
0.179497
0.0858881
0.227713
0.0648932
0.303363
0.0397674
0.351403
0.338168
0.147477
0.0947185
0.14066
0.109547
0.132684
0.128838
0.123198
0.1547
0.111514
0.191168
0.0965291
0.242697
0.0814887
0.318411
0.0618656
0.37102
0.400013
0.150557
0.100029
0.144568
0.115531
0.137801
0.135597
0.13011
0.162378
0.121528
0.199733
0.112338
0.251878
0.107588
0.323163
0.101157
0.377438
0.501145
0.00316126
-0.00316027
0.00606285
-0.00300633
0.00948645
-0.00373019
0.0144338
-0.00510735
0.0198627
-0.00535272
0.0247187
-0.00479032
0.0290688
-0.00431969
0.0332714
-0.00417608
0.0374975
-0.00420257
-0.00425886
0.00192678
-0.00509226
0.00492831
-0.00613598
0.00926897
-0.00835473
0.0148236
-0.0107175
0.0202804
-0.010658
0.0248846
-0.00929876
0.0288767
-0.00827233
0.0325875
-0.00786214
0.0361517
-0.00774937
-0.00776025
0.00119905
-0.00630476
0.00402465
-0.0091259
0.00866787
-0.013222
0.0138207
-0.0157536
0.0182589
-0.0148553
0.0217603
-0.0126949
0.0246881
-0.0111774
0.0272776
-0.0104461
0.0296403
-0.0101081
-0.00998635
0.000913746
-0.00724452
0.00397188
-0.0123932
0.00869308
-0.0180983
0.0128504
-0.0196433
0.0158681
-0.0175618
0.0180486
-0.0147629
0.0197546
-0.0128816
0.0211416
-0.0118527
0.0223291
-0.0113079
-0.0110292
0.000951632
-0.00824365
0.00462648
-0.0163121
0.0089896
-0.0225725
0.0116636
-0.0220308
0.013107
-0.0186957
0.013952
-0.0154782
0.0144615
-0.0133839
0.0147468
-0.0121673
0.0149056
-0.0114902
-0.011102
0.0014667
-0.00978058
0.0056604
-0.0207252
0.00897803
-0.0259913
0.00993274
-0.0228533
0.00987813
-0.0184456
0.00950659
-0.0149849
0.00897714
-0.0128264
0.00837305
-0.0115837
0.00775011
-0.0108927
-0.0104964
0.00261859
-0.0124755
0.006471
-0.0246798
0.00821933
-0.0278193
0.00751319
-0.0222131
0.00617216
-0.0170789
0.00480787
-0.0135505
0.0035019
-0.0114847
0.00229693
-0.0103854
0.00120386
-0.0098211
-0.00952938
0.00425285
-0.0167885
0.00649987
-0.0268896
0.00645944
-0.0277826
0.00437801
-0.020267
0.00206943
-0.0148578
2.60764e-05
-0.0115028
-0.00171786
-0.0097192
-0.00319128
-0.00891291
-0.00443708
-0.0085925
-0.00849985
0.00560213
-0.0224279
0.00540241
-0.0266012
0.00365126
-0.0259563
0.000602569
-0.0172837
-0.00222905
-0.0121175
-0.00451129
-0.00925244
-0.00631822
-0.00791167
-0.00777081
-0.00746455
-0.00892609
-0.00745334
-0.00762203
0.00573186
-0.0281789
0.00296585
-0.0237894
-0.000104858
-0.0227962
-0.00352583
-0.013831
-0.00630964
-0.00935902
-0.00845156
-0.00713266
-0.010073
-0.00629697
-0.0112696
-0.00627575
-0.0121239
-0.00661555
-0.00706491
0.0036129
-0.0317909
-0.000938305
-0.0192693
-0.00444241
-0.0192541
-0.00749989
-0.0106975
-0.00981832
-0.00699615
-0.0115766
-0.00535754
-0.0127889
-0.00507856
-0.0135103
-0.00555773
-0.0138778
-0.00626213
-0.00696038
-0.0010077
-0.0307501
-0.00587255
-0.0145111
-0.00870487
-0.0164751
-0.0107917
-0.00855776
-0.0124318
-0.00528077
-0.013644
-0.00409207
-0.0142496
-0.00444421
-0.0142873
-0.00551129
-0.01401
-0.00654658
-0.00739918
-0.00609307
-0.024567
-0.00961189
-0.0111669
-0.011681
-0.0145805
-0.012745
-0.00753008
-0.0137307
-0.00425146
-0.0143735
-0.00339399
-0.0142092
-0.00456874
-0.0133354
-0.00636604
-0.0122772
-0.00760421
-0.00840582
-0.00774666
-0.0166352
-0.0099042
-0.00917606
-0.0118066
-0.0129691
-0.0123233
-0.00717672
-0.0129998
-0.00361829
-0.0132563
-0.00312533
-0.0121571
-0.00564412
-0.0101109
-0.00839607
-0.00821689
-0.00949531
-0.00984368
0.0053766
-0.0217389
0.000626101
-0.00439042
-0.00463626
-0.00789734
-0.00646745
-0.00551749
-0.00771953
-0.00245993
-0.00771751
-0.00316106
-0.00550876
-0.00785776
-0.00250662
-0.011396
-0.000371488
-0.011632
0.161253
0.104589
0.156345
0.120433
0.15115
0.140785
0.145985
0.16753
0.14196
0.203742
0.141849
0.251973
0.155398
0.309602
0.192536
0.340262
0.309156
0.384451
0.170405
0.10819
0.166766
0.124063
0.163464
0.144079
0.161348
0.169636
0.162626
0.20245
0.172226
0.242357
0.201645
0.280161
0.256411
0.28545
0.262712
0.302796
0.180693
0.110727
0.17855
0.126195
0.177472
0.145147
0.178728
0.16837
0.184969
0.196196
0.200913
0.226397
0.231993
0.249058
0.27072
0.246688
0.220765
0.312638
0.191898
0.191395
0.126686
0.192568
0.143963
0.196876
0.164052
0.206747
0.186311
0.225424
0.207701
0.254343
0.220116
0.287693
0.213308
0.186836
0.321599
0.204965
0.208196
0.214877
0.157358
0.226879
0.174294
0.246082
0.188479
0.271873
0.1943
0.298616
0.186536
0.163762
0.321661
0.232167
0.245029
0.263281
0.170206
0.285348
0.172206
0.306638
0.165216
0.146309
0.324059
0.27789
0.296503
0.314079
0.147611
0.132052
0.328306
0.321165
0.333204
0.249587
0.134837
0.188329
0.0612413
0.0370999
0.151209
0.306776
0.130839
0.288828
0.0791913
0.0591103
0.266823
0.331652
0.111826
0.329454
0.081396
0.0713123
0.317249
0.334298
0.0991159
0.336939
0.0787395
0.0741079
0.334123
0.332348
0.0884077
0.337613
0.0734509
0.0719491
0.339747
0.333102
0.0793429
0.33876
0.0677708
0.0679999
0.342684
0.335816
0.0718124
0.341086
0.0624804
0.0635876
0.345475
0.339663
0.344488
0.0576361
0.0591788
0.348874
0.34874
0.352963
0.0846181
0.045056
0.0538585
0.0265478
0.0311736
0.0147984
0.0179093
0.00768859
0.0136221
0.00176822
0.0147254
-0.00430173
0.0161939
-0.00934498
0.0164365
-0.011648
-0.0109872
0.232275
0.0796805
0.200373
0.0585534
0.17254
0.0426845
0.148456
0.0317829
0.126621
0.0235907
0.105284
0.0170175
0.0843489
0.0115748
0.0658122
0.00687613
0.00163426
0.29541
0.101525
0.271931
0.0820516
0.249638
0.064995
0.229175
0.0522537
0.210381
0.0423833
0.193009
0.0343814
0.176892
0.0276811
0.161862
0.0218935
0.0167829
0.323641
0.111981
0.309761
0.0959153
0.295087
0.0796584
0.280429
0.0669025
0.266131
0.0566734
0.252327
0.0481755
0.239035
0.0409616
0.226203
0.0347121
0.0291547
0.337728
0.113965
0.331427
0.102188
0.322948
0.0881154
0.313437
0.0763964
0.303463
0.0666324
0.293286
0.0583375
0.283074
0.0511596
0.272954
0.044817
0.0391229
0.345261
0.111354
0.343982
0.103436
0.34012
0.0919515
0.334719
0.0817757
0.328392
0.0729406
0.321492
0.0652196
0.314229
0.058405
0.306713
0.0523167
0.0468033
0.350114
0.10668
0.351838
0.101679
0.351161
0.0926004
0.348835
0.0840763
0.345392
0.076362
0.34117
0.0694205
0.33639
0.0631657
0.331181
0.0575075
0.052353
0.354338
0.10118
0.35773
0.0982509
0.359101
0.0911982
0.358928
0.0842217
0.357613
0.0776529
0.355445
0.0715655
0.352627
0.0659625
0.349297
0.0608181
0.0560961
0.358711
0.362999
0.0939265
0.365645
0.0885188
0.366928
0.0829086
0.367131
0.0774227
0.366486
0.0721866
0.365166
0.0672593
0.3633
0.0626642
0.0584078
0.368204
0.371644
0.373913
0.375202
0.0761056
0.375685
0.0716786
0.375505
0.067416
0.374778
0.0633709
0.0595763
0.382541
0.383874
0.384577
0.0666902
0.384749
0.0631784
0.0598345
0.392934
0.393832
0.0593505
)
;

boundaryField
{
    inlet
    {
        type            calculated;
        value           nonuniform 0();
    }
    outlet
    {
        type            calculated;
        value           nonuniform 0();
    }
    flap
    {
        type            calculated;
        value           nonuniform List<scalar> 
33
(
0
0
-2.46519e-32
0
0
0
-2.46519e-32
9.86076e-32
-4.93038e-32
0
-1.97215e-31
0
-9.86076e-32
9.86076e-32
9.86076e-32
-2.21867e-31
-2.21867e-31
0
0
3.08149e-33
-6.16298e-33
-1.71057e-49
0
0
0
0
0
0
0
2.95823e-31
-2.95823e-31
-3.9443e-31
0
)
;
    }
    upperWall
    {
        type            calculated;
        value           nonuniform 0();
    }
    lowerWall
    {
        type            calculated;
        value           uniform 0;
    }
    frontAndBack
    {
        type            empty;
        value           nonuniform 0();
    }
    procBoundary4to1
    {
        type            processor;
        value           nonuniform List<scalar> 
30
(
0.112077
-0.203862
0.12557
0.140721
-0.223902
0.149081
0.161417
-0.261282
0.15358
0.153568
-0.306363
0.132784
0.119988
0.0653348
-0.344295
0.0531745
0.0549336
0.095398
-0.363441
0.0891303
0.0850463
0.080609
-0.380462
0.0740005
0.070321
-0.391531
0.0652659
0.0622614
-0.402405
0.0582465
)
;
    }
    procBoundary4to2
    {
        type            processor;
        value           nonuniform List<scalar> 
11
(
0.146701
0.213818
0.262971
0.299016
0.325613
0.345535
0.360969
0.37359
0.384473
0.3943
0.403495
)
;
    }
    procBoundary4to3
    {
        type            processor;
        value           nonuniform List<scalar> 
19
(
-0.117638
-0.13595
-0.141668
-0.143613
-0.144316
-0.144624
-0.144871
-0.145206
-0.14574
-0.146528
-0.147623
-0.149097
-0.150994
-0.153349
-0.155873
-0.16582
-0.174016
-0.183242
-0.193262
)
;
    }
    procBoundary4to5
    {
        type            processor;
        value           nonuniform List<scalar> 
18
(
0.0417664
0.0396581
0.0318658
0.0233659
0.0149672
0.00712986
0.000220318
-0.00548417
-0.00982291
-0.0127015
-0.0140026
-0.0135882
-0.0112825
-0.00678764
0.000849165
-0.011073
0.0157842
0.0531798
)
;
    }
}


// ************************************************************************* //
