/*--------------------------------*- C++ -*----------------------------------*\
| =========                 |                                                 |
| \\      /  F ield         | OpenFOAM: The Open Source CFD Toolbox           |
|  \\    /   O peration     | Version:  dev                                   |
|   \\  /    A nd           | Web:      www.OpenFOAM.org                      |
|    \\/     M anipulation  |                                                 |
\*---------------------------------------------------------------------------*/
FoamFile
{
    version     2.0;
    format      ascii;
    class       volVectorField;
    location    "1.38";
    object      U;
}
// * * * * * * * * * * * * * * * * * * * * * * * * * * * * * * * * * * * * * //

dimensions      [0 1 -1 0 0 0 0];

internalField   nonuniform List<vector> 
465
(
(5.1796 0 0.237989)
(4.69761 0 0.268654)
(4.1783 0 0.303356)
(3.62031 0 0.342542)
(3.02283 0 0.386658)
(2.38552 -7.90381e-19 0.436025)
(1.70841 6.3778e-19 0.490311)
(0.986978 9.61196e-19 0.544146)
(0.344472 -1.3733e-18 0.455624)
(6.13692 -1.00265e-18 0.618068)
(5.67414 5.20698e-19 0.694185)
(5.16959 0 0.777954)
(4.62015 1.43914e-18 0.869306)
(4.02229 3.1301e-19 0.967852)
(3.37096 1.39784e-18 1.07261)
(2.65701 -4.9744e-18 1.18206)
(1.84219 2.46578e-18 1.30086)
(1.05992 -1.33377e-18 1.43385)
(6.54222 0 1.00439)
(6.12695 -1.03769e-18 1.13359)
(5.67107 1.06375e-18 1.27707)
(5.16949 -2.52525e-18 1.43538)
(4.61526 4.31393e-18 1.60913)
(3.99789 -4.71828e-18 1.79958)
(3.30004 2.9756e-18 2.01031)
(2.48495 -4.16506e-18 2.24815)
(1.53595 5.218e-18 2.62476)
(6.76856 -2.39684e-19 1.34542)
(6.39558 2.02605e-18 1.52291)
(5.98658 -2.26896e-19 1.72252)
(5.53575 -2.1454e-18 1.94652)
(5.03467 2.23549e-18 2.19779)
(4.47106 2.29671e-18 2.48117)
(3.82314 -5.11294e-18 2.80873)
(3.10712 -2.83559e-19 3.1591)
(2.0236 1.25462e-18 3.804)
(6.93814 2.65906e-19 1.65784)
(6.60041 -1.69869e-18 1.87801)
(6.2326 2.54838e-19 2.12775)
(5.82949 4.19469e-18 2.41129)
(5.38354 -4.24089e-18 2.73413)
(4.88498 2.66184e-19 3.10289)
(4.30331 0 3.53908)
(3.75198 1.60768e-20 3.95404)
(2.55823 0 4.8345)
(7.09631 1.81935e-18 1.94743)
(6.78975 -3.65144e-21 2.20532)
(6.45945 3.93038e-18 2.49934)
(6.10153 3.81238e-20 2.83527)
(5.71042 -8.12225e-18 3.22061)
(5.28235 3.81175e-18 3.66094)
(4.768 -4.00284e-18 4.19008)
(4.40354 1.14924e-17 4.61951)
(3.11971 -1.57936e-19 5.67441)
(7.25975 0 2.21668)
(6.98276 -2.30813e-19 2.50778)
(6.68822 -3.77011e-18 2.84045)
(6.37392 3.80759e-18 3.22152)
(6.03596 0 3.65959)
(5.6789 0 4.15619)
(5.22459 0 4.76274)
(5.03823 0 5.17359)
(3.68098 0 6.34267)
(7.43396 -1.83188e-18 2.46635)
(7.18641 1.75317e-18 2.78663)
(6.92696 0 3.15273)
(6.65525 0 3.57219)
(6.36804 0 4.0542)
(6.07922 3.3261e-18 4.59376)
(5.67508 -1.02962e-17 5.26507)
(5.64252 7.45869e-18 5.64525)
(4.2256 4.38815e-19 6.88583)
(7.61995 1.05932e-19 2.69617)
(7.4024 0 3.04202)
(7.17806 3.36816e-18 3.43698)
(6.94824 -3.32338e-18 3.88902)
(6.70926 -4.17728e-19 4.40799)
(6.48485 2.11164e-19 4.98103)
(6.1221 7.71283e-19 5.70805)
(6.21532 -7.76598e-19 6.0631)
(4.75031 -1.23066e-18 7.35656)
(7.81676 -3.28362e-18 2.90544)
(7.62982 3.21596e-18 3.27347)
(7.44104 -1.48587e-19 3.69333)
(7.25291 2.94799e-19 4.17312)
(7.06022 4.03131e-19 4.7239)
(6.89685 0 5.32506)
(6.57059 -6.44801e-18 6.10212)
(6.7661 3.59388e-19 6.4506)
(5.26401 1.06137e-18 7.80313)
(8.02297 9.60978e-20 3.09348)
(7.86721 0 3.48027)
(7.71437 1.94132e-19 3.92115)
(7.56804 -3.842e-19 4.42447)
(7.42129 0 5.00328)
(7.31721 0 5.63065)
(7.02854 -6.45572e-18 6.45396)
(7.31197 3.92161e-18 6.82409)
(5.78628 -5.41745e-18 8.26432)
(8.23711 2.90512e-18 3.2595)
(8.11346 -5.81803e-18 3.6617)
(7.99699 2.89563e-18 4.11956)
(7.89258 -2.79535e-18 4.64213)
(7.79308 4.0778e-18 5.24527)
(7.74876 -1.25627e-18 5.89863)
(7.50681 1.22961e-18 6.76415)
(7.87436 1.18055e-18 7.19151)
(6.34642 0 8.76818)
(8.45733 -2.76698e-18 3.40249)
(8.36669 3.44828e-18 3.81649)
(8.28753 -6.6797e-19 4.28718)
(8.22631 -2.5957e-18 4.82447)
(8.17664 1.26162e-18 5.44638)
(8.19441 1.20713e-18 6.12442)
(8.0181 -2.07071e-18 7.0243)
(8.47612 -3.68163e-18 7.54878)
(6.98411 4.28021e-18 9.33459)
(8.68151 0 3.52142)
(8.62399 -3.90275e-18 3.94293)
(8.58299 2.59119e-18 4.42154)
(8.56713 -1.20216e-18 4.96784)
(8.57119 0 5.59999)
(8.65543 2.05196e-18 6.297)
(8.57326 -1.45192e-20 7.21344)
(9.13827 -1.54866e-18 7.8684)
(7.74851 1.05492e-18 9.98492)
(8.90719 -6.22996e-19 3.61603)
(8.88238 1.24002e-18 4.04019)
(8.87975 2.97949e-18 4.52064)
(8.91 -3.39853e-18 5.06752)
(8.97116 2.1883e-18 5.69732)
(9.12661 0 6.39875)
(9.17092 0 7.29679)
(9.86769 0 8.07765)
(8.70767 -2.01727e-18 10.7795)
(0.138422 -5.07492e-21 -0.146087)
(0.314815 0 -0.133421)
(0.570665 0 -0.112811)
(0.863045 -1.49678e-20 -0.0997116)
(1.18006 0 -0.0921845)
(1.50102 0 -0.0872679)
(1.80079 0 -0.0826473)
(2.06684 -1.52819e-21 -0.0774911)
(2.29807 0 -0.071821)
(2.49666 0 -0.0658457)
(0.0614073 5.10392e-21 -0.210387)
(0.182383 0 -0.221097)
(0.422715 0 -0.210785)
(0.698517 4.35683e-20 -0.205004)
(0.997788 -1.57458e-20 -0.202372)
(1.29239 -2.82764e-20 -0.198475)
(1.55665 0 -0.190642)
(1.7818 1.51817e-21 -0.17886)
(1.96807 -4.97575e-21 -0.164302)
(2.11835 6.87017e-22 -0.148084)
(0.0183544 -5.96334e-20 -0.289167)
(0.0418832 -3.53575e-20 -0.315113)
(0.243004 0 -0.319798)
(0.463157 0 -0.315357)
(0.696499 1.38147e-20 -0.309709)
(0.913178 -2.46299e-20 -0.299926)
(1.0927 2.69405e-20 -0.283432)
(1.23038 0 -0.261416)
(1.32868 9.54397e-21 -0.235554)
(1.39157 -9.73505e-21 -0.206992)
(-0.00559728 -1.9557e-20 -0.351765)
(-0.0772178 3.45865e-20 -0.374986)
(0.0873562 0 -0.397339)
(0.241909 -2.68235e-20 -0.391136)
(0.399902 -3.73705e-20 -0.37853)
(0.52804 8.29018e-20 -0.358571)
(0.617397 -2.60535e-20 -0.330131)
(0.66459 0 -0.29597)
(0.675458 4.96135e-21 -0.25827)
(0.655715 8.88615e-21 -0.21775)
(-0.0187244 1.82e-20 -0.403458)
(-0.181025 3.28087e-20 -0.409092)
(-0.05107 -5.5826e-20 -0.446187)
(0.0336872 4.35636e-21 -0.432066)
(0.109634 2.73445e-20 -0.407175)
(0.150488 -6.34331e-21 -0.373871)
(0.153145 0 -0.333835)
(0.120141 -1.51889e-20 -0.288568)
(0.0586162 -3.24814e-21 -0.2403)
(-0.0250592 5.84763e-22 -0.190387)
(-0.0218928 -3.57674e-20 -0.445894)
(-0.270416 6.07707e-20 -0.419927)
(-0.177366 0 -0.462546)
(-0.165874 -2.38852e-20 -0.432642)
(-0.173051 1.65054e-20 -0.392775)
(-0.2116 5.29216e-20 -0.346941)
(-0.281672 0 -0.297331)
(-0.374084 -5.53957e-21 -0.245662)
(-0.480653 1.0084e-20 -0.193702)
(-0.595101 0 -0.142644)
(-0.0139 5.05034e-20 -0.477281)
(-0.344029 2.78186e-20 -0.406072)
(-0.297323 0 -0.441059)
(-0.35929 0 -0.391748)
(-0.435239 -4.9515e-20 -0.339763)
(-0.535799 5.00799e-20 -0.286016)
(-0.654331 0 -0.232343)
(-0.781539 0 -0.180134)
(-0.911303 0 -0.129518)
(-1.03996 -9.76623e-21 -0.0807159)
(0.00704073 6.69059e-20 -0.493927)
(-0.401235 -1.08881e-19 -0.36433)
(-0.408064 5.12171e-20 -0.379638)
(-0.530688 -5.28469e-20 -0.314669)
(-0.6608 0 -0.254901)
(-0.804141 3.21065e-21 -0.19844)
(-0.951236 2.40534e-20 -0.14652)
(-1.09557 -1.24199e-20 -0.0981699)
(-1.23407 0 -0.0526676)
(-1.35833 9.77606e-21 -0.01234)
(0.0425443 -6.20323e-20 -0.49154)
(-0.43672 0 -0.290887)
(-0.500808 0 -0.282401)
(-0.670939 6.48333e-20 -0.207889)
(-0.840052 -1.05825e-19 -0.14576)
(-1.00785 5.06889e-20 -0.0920445)
(-1.16691 0 -0.0456317)
(-1.31045 -2.45501e-20 -0.00675316)
(-1.43664 0 0.0262487)
(-1.55034 -1.99589e-20 0.0556424)
(0.099801 2.05229e-19 -0.465694)
(-0.452508 1.07504e-21 -0.183593)
(-0.569988 -1.03555e-19 -0.153502)
(-0.773707 -1.35928e-20 -0.0759366)
(-0.963042 -8.64874e-22 -0.0157301)
(-1.13456 0 0.0272637)
(-1.2848 -1.27157e-20 0.0576291)
(-1.41772 3.86778e-20 0.0828234)
(-1.53576 1.21297e-20 0.105519)
(-1.64138 0 0.125978)
(0.181882 -2.4625e-21 -0.403699)
(-0.445787 9.29077e-20 -0.0371253)
(-0.607375 0 0.0081842)
(-0.825022 1.66006e-21 0.0781244)
(-1.01306 -7.01014e-21 0.118619)
(-1.17616 -1.42959e-20 0.14322)
(-1.31653 -1.37768e-20 0.159624)
(-1.43811 2.59398e-20 0.173031)
(-1.54459 -3.76813e-20 0.185638)
(-1.63874 -7.39012e-22 0.197068)
(0.283275 1.03534e-20 -0.29846)
(-0.412491 0 0.145704)
(-0.606385 4.9492e-20 0.178957)
(-0.821351 -6.1342e-20 0.227896)
(-1.00003 7.22248e-21 0.251523)
(-1.14977 -1.48028e-20 0.258928)
(-1.27391 2.88813e-20 0.259527)
(-1.37804 0 0.260282)
(-1.46758 0 0.263085)
(-1.5461 3.43775e-20 0.266174)
(0.416987 -1.07546e-20 -0.130075)
(-0.363616 -4.13787e-21 0.334138)
(-0.574402 1.5544e-21 0.348189)
(-0.774264 5.00368e-20 0.382086)
(-0.935474 -5.59302e-20 0.383818)
(-1.06339 3.05311e-20 0.368143)
(-1.16213 1.45238e-22 0.35015)
(-1.24058 -5.78582e-20 0.338526)
(-1.30705 2.78628e-20 0.333431)
(-1.3659 -1.18786e-20 0.330208)
(0.531908 2.59229e-20 0.241627)
(-0.284025 -1.80679e-20 0.531043)
(-0.514401 0 0.528313)
(-0.689538 1.34807e-20 0.540523)
(-0.828521 0 0.508704)
(-0.924792 1.64148e-20 0.460683)
(-0.985589 3.20311e-20 0.421184)
(-1.02783 -3.01038e-20 0.400045)
(-1.06496 1.20133e-21 0.391935)
(-1.10085 4.00625e-22 0.386017)
(0.803826 1.07561e-20 -0.335362)
(-0.309977 2.22399e-20 0.563449)
(-0.414393 -3.09235e-20 0.775121)
(-0.57836 -1.30284e-20 0.736602)
(-0.697712 -3.26684e-20 0.630078)
(-0.746671 1.5729e-20 0.524011)
(-0.749337 0 0.457084)
(-0.740952 -3.47063e-20 0.434635)
(-0.743671 0 0.43422)
(-0.756146 1.29582e-20 0.431025)
(9.1399 2.92111e-18 3.68669)
(9.14821 -5.75736e-19 4.10814)
(9.18475 0 4.58309)
(9.2614 2.01945e-18 5.11954)
(9.3815 -9.32153e-20 5.72972)
(9.60995 0 6.40868)
(9.80989 1.46918e-18 7.23213)
(10.8271 0 8.00291)
(11.9663 1.32776e-18 11.0336)
(9.37273 2.15984e-20 3.73052)
(9.41279 0 4.14308)
(9.48641 0 4.60372)
(9.60556 1.8593e-18 5.1169)
(9.77757 -4.51852e-18 5.68777)
(10.0612 -8.52777e-20 6.3083)
(10.3586 -2.1751e-18 6.992)
(11.0552 0 7.60999)
(11.8998 -9.07321e-19 8.67476)
(9.60168 1.02843e-18 3.74734)
(9.67083 9.70098e-19 4.14494)
(9.77665 -9.23678e-19 4.58273)
(9.92971 1.77678e-18 5.06122)
(10.1366 8.17272e-19 5.57793)
(10.4343 -2.63376e-18 6.11844)
(10.7505 1.02977e-18 6.65026)
(11.1651 0 7.11631)
(11.8923 4.97476e-19 7.80601)
(9.82336 -4.06902e-22 3.73708)
(9.91766 9.08722e-19 4.1143)
(10.049 8.66963e-19 4.52258)
(10.2253 -8.6003e-19 4.95915)
(10.4511 8.00746e-19 5.41646)
(10.7451 1.48011e-18 5.87955)
(11.0769 -1.17981e-18 6.31597)
(11.4465 1.20041e-19 6.7225)
(12.0994 -7.68789e-19 7.30686)
(10.1491 -8.85162e-19 4.0535)
(10.2991 8.20792e-19 4.42836)
(10.4901 -8.19243e-19 4.82059)
(10.7253 0 5.22097)
(11.0143 -4.23354e-20 5.61768)
(11.3499 7.07637e-19 5.98826)
(11.7085 0 6.32318)
(12.2317 0 6.7171)
(10.7244 -1.86763e-19 4.65508)
(10.9624 1.88278e-19 5.00361)
(11.2429 6.87896e-19 5.34192)
(11.5638 -3.09683e-19 5.65356)
(11.9012 3.19334e-19 5.92256)
(12.3363 -8.10898e-19 6.19029)
(11.4334 -5.96813e-19 5.06128)
(11.7337 3.08273e-19 5.32372)
(12.049 -3.17502e-19 5.54808)
(12.432 -2.52777e-19 5.75184)
(12.1642 3.03447e-19 5.19711)
(12.5077 0 5.36164)
(11.7399 -9.43304e-19 9.5996)
(8.33049 -2.72873e-18 7.44174)
(3.73639 1.33126e-18 5.66658)
(11.6909 7.19275e-19 6.87262)
(11.0224 -5.52749e-20 5.83168)
(10.0696 3.35537e-19 5.22293)
(12.2563 -1.61377e-18 7.51248)
(12.382 9.68606e-20 7.14491)
(12.2095 6.24441e-19 6.75673)
(12.4915 8.38154e-19 7.3873)
(12.7318 -8.17548e-20 7.29645)
(12.8037 8.07811e-20 7.11059)
(12.5459 -7.82037e-19 6.82218)
(12.8035 8.06633e-19 6.84267)
(12.9786 5.72155e-19 6.80835)
(12.5981 1.03339e-18 6.29046)
(12.8391 -7.85807e-19 6.34998)
(13.0318 6.43996e-20 6.379)
(12.6574 1.70506e-18 5.8368)
(12.8689 -8.92528e-19 5.89774)
(13.0454 7.7391e-19 5.94068)
(12.7053 -7.80703e-19 5.43085)
(12.8906 9.70795e-19 5.4834)
(13.0469 0 5.52442)
(12.9035 8.74091e-19 5.10547)
(13.0427 0 5.14223)
(-0.357039 -5.92885e-20 2.9215)
(0.459203 -8.23951e-22 1.2128)
(0.0728505 0 0.686853)
(-0.459678 2.21137e-20 0.516459)
(-0.56795 -1.10679e-20 0.408288)
(-0.535123 1.91881e-20 0.367955)
(-0.439541 -1.88748e-20 0.386497)
(-0.358492 3.8303e-20 0.438064)
(-0.328075 0 0.475179)
(8.46795 0 4.30961)
(7.21231 7.37801e-22 3.3938)
(5.68956 0 2.58366)
(4.21912 -2.15299e-20 1.89605)
(3.00349 2.30568e-20 1.31669)
(1.99011 1.28981e-20 0.861899)
(1.1504 -1.14993e-21 0.548631)
(0.558541 -3.15084e-20 0.404284)
(0.288545 0 0.383557)
(11.5374 -6.41886e-20 5.93975)
(10.6824 -2.72074e-20 5.04116)
(9.59613 3.18614e-20 4.2123)
(8.43979 2.32824e-21 3.49486)
(7.32713 -2.35768e-21 2.87424)
(6.2685 0 2.33982)
(5.26118 0 1.88226)
(4.32296 -5.26885e-21 1.49369)
(3.49056 -2.07327e-20 1.16888)
(12.6845 1.79756e-19 6.56795)
(12.34 -1.21251e-19 5.88815)
(11.7853 -3.76291e-21 5.21023)
(11.0936 0 4.58653)
(10.3332 0 4.0163)
(9.53556 0 3.49614)
(8.71894 -2.07521e-20 3.02628)
(7.9032 0 2.60535)
(7.10955 4.65921e-20 2.22961)
(13.1499 -3.80534e-19 6.56015)
(13.1428 1.99643e-19 6.1558)
(12.9725 -2.22167e-19 5.68936)
(12.6583 9.88872e-20 5.21365)
(12.2365 0 4.74594)
(11.7378 -2.59054e-20 4.29457)
(11.1844 3.48023e-20 3.86683)
(10.5952 1.046e-20 3.46674)
(9.98694 -2.48623e-20 3.09456)
(13.31 4.21456e-19 6.30399)
(13.4841 -1.24567e-20 6.09917)
(13.5548 -1.50196e-19 5.81281)
(13.5069 0 5.48293)
(13.3521 0 5.1313)
(13.1115 2.18047e-20 4.7713)
(12.8032 -7.99332e-21 4.41283)
(12.4417 -5.27296e-21 4.06249)
(12.0403 -2.2915e-20 3.72369)
(13.3379 -3.3998e-19 5.94544)
(13.5875 4.29012e-19 5.8614)
(13.7882 -5.30361e-19 5.70446)
(13.9069 1.45518e-19 5.49491)
(13.9383 -7.73905e-21 5.24974)
(13.8925 5.5229e-21 4.98166)
(13.7808 3.46921e-20 4.70032)
(13.6126 0 4.41293)
(13.3966 3.18865e-20 4.12442)
(13.3204 -1.07528e-19 5.5594)
(13.586 0 5.53977)
(13.8408 -2.41339e-19 5.46513)
(14.0478 1.84706e-19 5.34272)
(14.1927 1.48608e-19 5.18262)
(14.2773 -2.55036e-20 4.99409)
(14.3066 -8.98814e-20 4.78488)
(14.2851 8.93045e-20 4.5613)
(14.2172 8.74916e-21 4.32831)
(13.2905 0 5.18585)
(13.5455 0 5.19624)
(13.811 -4.50889e-20 5.16806)
(14.0534 -2.93469e-19 5.10181)
(14.2561 3.5941e-20 5.00231)
(14.4167 3.95748e-19 4.87521)
(14.536 -1.2017e-19 4.72576)
(14.6146 0 4.55868)
(14.6536 -1.17232e-19 4.37811)
(13.4929 0 4.85922)
(13.7487 -3.29407e-19 4.85528)
(13.9965 3.55762e-19 4.82248)
(14.2208 -2.61089e-21 4.7627)
(14.4179 0 4.67911)
(14.5868 -1.19626e-19 4.57492)
(14.726 1.18511e-19 4.45326)
(14.8344 -5.29562e-20 4.3173)
(14.1413 2.55052e-21 4.49842)
(14.3502 0 4.44412)
(14.5409 2.81388e-19 4.37222)
(14.7113 7.54376e-21 4.28479)
(14.8595 -1.81631e-19 4.18407)
(14.4493 -1.76577e-20 4.14469)
(14.6318 -6.67307e-20 4.08214)
(14.7991 -3.17016e-20 4.00804)
(14.6982 3.09354e-20 3.80946)
)
;

boundaryField
{
    inlet
    {
        type            fixedValue;
        value           nonuniform 0();
    }
    outlet
    {
        type            zeroGradient;
    }
    flap
    {
        type            movingWallVelocity;
        value           nonuniform List<vector> 
33
(
(5.26645e-17 0 6.02213e-16)
(-2.74114e-15 0 -1.33134e-14)
(-3.32229e-16 2.77556e-14 -1.02092e-15)
(0 0 0)
(-1.4995e-15 -2.77556e-14 -2.85594e-15)
(0 0 0)
(-3.00273e-14 -2.77556e-14 -4.46507e-14)
(0 0 0)
(-1.01507e-14 2.77556e-14 -1.33679e-14)
(0 0 0)
(0 0 0)
(0 0 0)
(0 -2.77556e-14 0)
(5.43416e-14 0 6.68458e-14)
(-2.21779e-14 2.33031e-31 -2.71894e-14)
(3.33822e-14 -9.46722e-32 -2.71793e-14)
(7.52255e-14 -2.77556e-14 -6.11102e-14)
(0 0 0)
(-3.6447e-16 -2.77556e-14 -4.05968e-15)
(-2.76164e-15 0 -1.33046e-14)
(-9.56521e-15 -2.77556e-14 -2.91697e-14)
(-2.1904e-15 -2.77556e-14 -5.05965e-15)
(1.68591e-14 2.77556e-14 3.20227e-14)
(-2.4625e-14 2.77556e-14 -4.05611e-14)
(3.43734e-14 2.23061e-32 5.10557e-14)
(0 0 0)
(-2.03118e-14 -2.77556e-14 -2.67388e-14)
(0 0 0)
(-5.41032e-14 -2.77556e-14 -6.79342e-14)
(-5.42331e-14 -2.77556e-14 -6.73544e-14)
(0 0 0)
(-7.64518e-14 0 -9.3989e-14)
(-1.53119e-13 0 -1.87704e-13)
)
;
    }
    upperWall
    {
        type            noSlip;
    }
    lowerWall
    {
        type            noSlip;
    }
    frontAndBack
    {
        type            empty;
    }
    procBoundary4to1
    {
        type            processor;
        value           nonuniform List<vector> 
30
(
(10.0346 2.85242e-21 3.7008)
(10.0346 2.85242e-21 3.7008)
(10.3624 8.13819e-19 3.96632)
(10.5251 -4.2391e-19 4.30635)
(10.5251 -4.2391e-19 4.30635)
(10.929 -7.33208e-19 4.47063)
(11.1646 7.04842e-19 4.77308)
(11.1646 7.04842e-19 4.77308)
(11.5911 -3.21493e-19 4.78302)
(11.871 3.29159e-19 5.00609)
(11.871 3.29159e-19 5.00609)
(12.2519 -2.6829e-19 4.86476)
(12.5624 4.96191e-20 5.00202)
(12.7385 1.99526e-18 5.06014)
(12.7385 1.99526e-18 5.06014)
(12.9075 9.38637e-19 4.7584)
(13.033 -8.60497e-19 4.79152)
(13.2568 5.58494e-19 4.83619)
(13.2568 5.58494e-19 4.83619)
(13.4375 4.67373e-19 4.53802)
(13.6767 -2.74475e-21 4.54657)
(13.9157 -2.42494e-20 4.53317)
(13.9157 -2.42494e-20 4.53317)
(14.0461 0 4.22884)
(14.2534 1.05059e-20 4.19407)
(14.2534 1.05059e-20 4.19407)
(14.3406 6.4299e-19 3.90829)
(14.5246 -3.30162e-19 3.86377)
(14.5246 -3.30162e-19 3.86377)
(14.5824 -2.63455e-19 3.60048)
)
;
    }
    procBoundary4to2
    {
        type            processor;
        value           nonuniform List<vector> 
11
(
(2.77989 9.99796e-21 0.899396)
(6.3538 -2.05966e-20 1.89458)
(9.37346 4.76092e-20 2.74895)
(11.6102 -2.67711e-20 3.39794)
(13.1411 -2.65853e-20 3.838)
(14.1076 2.54733e-20 4.08972)
(14.6546 -1.19116e-19 4.18761)
(14.9118 3.92534e-20 4.16988)
(14.9841 4.09299e-20 4.07222)
(14.9492 5.11767e-20 3.92401)
(14.8596 4.10684e-19 3.74671)
)
;
    }
    procBoundary4to3
    {
        type            processor;
        value           nonuniform List<vector> 
19
(
(5.62599 6.07744e-20 0.210958)
(6.56074 -6.85919e-20 0.54945)
(6.92083 0 0.888724)
(7.10978 1.84521e-18 1.18802)
(7.24954 -1.93401e-18 1.46374)
(7.38175 1.10898e-19 1.72086)
(7.52037 -1.0658e-19 1.96117)
(7.66947 1.04924e-19 2.18505)
(7.82956 -1.60491e-18 2.39204)
(7.99974 0 2.5814)
(8.17865 -1.85496e-19 2.75245)
(8.36479 3.41965e-18 2.90445)
(8.55649 1.03171e-18 3.03665)
(8.75196 0 3.14831)
(8.94901 -1.90112e-18 3.23937)
(9.1525 5.93994e-19 3.31052)
(9.35701 -5.43833e-19 3.35954)
(9.55976 1.26541e-20 3.38623)
(9.75805 4.92292e-19 3.39016)
)
;
    }
    procBoundary4to5
    {
        type            processor;
        value           nonuniform List<vector> 
18
(
(2.66538 -2.11273e-21 -0.0597899)
(2.23603 -4.4283e-21 -0.131031)
(1.42265 7.98242e-21 -0.176808)
(0.609726 -1.18936e-20 -0.175199)
(-0.122096 7.96387e-21 -0.140969)
(-0.712764 0 -0.0930609)
(-1.16349 8.3146e-21 -0.0356317)
(-1.46669 0 0.0220261)
(-1.65246 -1.97001e-20 0.0811914)
(-1.73543 0 0.14282)
(-1.72179 1.05398e-20 0.205258)
(-1.61509 1.08304e-20 0.266497)
(-1.4179 -9.55881e-21 0.324277)
(-1.13338 1.07265e-20 0.375932)
(-0.767793 -1.55939e-20 0.418296)
(-0.324623 0 0.474907)
(-0.324623 0 0.474907)
(0.205746 1.5383e-20 0.382927)
)
;
    }
}


// ************************************************************************* //
