/*--------------------------------*- C++ -*----------------------------------*\
| =========                 |                                                 |
| \\      /  F ield         | OpenFOAM: The Open Source CFD Toolbox           |
|  \\    /   O peration     | Version:  dev                                   |
|   \\  /    A nd           | Web:      www.OpenFOAM.org                      |
|    \\/     M anipulation  |                                                 |
\*---------------------------------------------------------------------------*/
FoamFile
{
    version     2.0;
    format      ascii;
    class       volVectorField;
    location    "3.45";
    object      cellDisplacement;
}
// * * * * * * * * * * * * * * * * * * * * * * * * * * * * * * * * * * * * * //

dimensions      [0 1 0 0 0 0 0];

internalField   nonuniform List<vector> 
2790
(
(0.00252959 0 4.3973e-07)
(0.00726779 0 1.32164e-06)
(0.0114024 0 2.25569e-06)
(0.014974 0 3.32538e-06)
(0.0180238 0 4.60264e-06)
(0.0205901 0 6.15421e-06)
(0.022708 0 8.04649e-06)
(0.0244093 0 1.0349e-05)
(0.0257223 0 1.31371e-05)
(0.0266723 0 1.6494e-05)
(0.0272814 0 2.05123e-05)
(0.0275692 0 2.52951e-05)
(0.027553 0 3.09567e-05)
(0.0272478 0 3.76224e-05)
(0.0266678 0 4.54275e-05)
(0.0258258 0 5.45149e-05)
(0.0247351 0 6.50322e-05)
(0.0234094 0 7.71262e-05)
(0.0218646 0 9.09374e-05)
(0.0201194 0 0.000106593)
(0.0181968 0 0.0001242)
(0.0161262 0 0.000143846)
(0.0139436 0 0.000165603)
(0.0116945 0 0.000189548)
(0.00943502 0 0.000215807)
(0.00723437 0 0.000244621)
(0.00517734 0 0.000276411)
(0.0033695 0 0.000311695)
(0.00194974 0 0.000350116)
(0.001136 0 0.000385544)
(0.00253289 0 1.30636e-06)
(0.00727754 0 3.92686e-06)
(0.0114186 0 6.70348e-06)
(0.0149968 0 9.88478e-06)
(0.0180537 0 1.36847e-05)
(0.0206278 0 1.83017e-05)
(0.0227546 0 2.3933e-05)
(0.024466 0 3.07851e-05)
(0.0257907 0 3.90813e-05)
(0.0267541 0 4.90682e-05)
(0.0273787 0 6.10202e-05)
(0.0276845 0 7.52429e-05)
(0.0276889 0 9.20744e-05)
(0.0274075 0 0.000111885)
(0.0268546 0 0.000135076)
(0.0260437 0 0.000162069)
(0.0249879 0 0.000193299)
(0.0237016 0 0.0002292)
(0.0222005 0 0.000270181)
(0.0205034 0 0.00031661)
(0.0186334 0 0.000368784)
(0.0166194 0 0.000426922)
(0.0144975 0 0.00049116)
(0.012313 0 0.000561577)
(0.0101225 0 0.000638261)
(0.00799677 0 0.000721376)
(0.00602366 0 0.000811134)
(0.00431449 0 0.000907173)
(0.0030144 0 0.00100565)
(0.00232746 0 0.00108813)
(0.00253944 0 2.1347e-06)
(0.00729694 0 6.41843e-06)
(0.0114506 0 1.09613e-05)
(0.015042 0 1.61711e-05)
(0.0181131 0 2.23984e-05)
(0.0207029 0 2.99677e-05)
(0.0228474 0 3.92015e-05)
(0.024579 0 5.04363e-05)
(0.0259268 0 6.4036e-05)
(0.0269169 0 8.04018e-05)
(0.0275723 0 9.99793e-05)
(0.0279136 0 0.000123264)
(0.0279588 0 0.000150806)
(0.0277244 0 0.000183203)
(0.0272253 0 0.000221105)
(0.0264755 0 0.000265193)
(0.025489 0 0.00031617)
(0.0242804 0 0.00037473)
(0.0228658 0 0.000441523)
(0.021264 0 0.000517113)
(0.0194979 0 0.000601927)
(0.017596 0 0.000696202)
(0.0155936 0 0.000799939)
(0.0135356 0 0.00091286)
(0.0114782 0 0.00103436)
(0.00949284 0 0.00116336)
(0.00766889 0 0.00129791)
(0.00611898 0 0.00143385)
(0.00498327 0 0.00156119)
(0.00443506 0 0.00165481)
(0.00254917 0 2.89996e-06)
(0.00732573 0 8.72266e-06)
(0.0114982 0 1.49059e-05)
(0.0151091 0 2.2007e-05)
(0.0182012 0 3.05042e-05)
(0.0208142 0 4.08393e-05)
(0.0229849 0 5.34502e-05)
(0.0247463 0 6.87926e-05)
(0.0261283 0 8.73586e-05)
(0.0271577 0 0.000109689)
(0.0278586 0 0.000136384)
(0.0282521 0 0.000168109)
(0.0283576 0 0.000205602)
(0.0281923 0 0.000249665)
(0.0277723 0 0.000301165)
(0.0271126 0 0.000361013)
(0.0262281 0 0.000430143)
(0.025134 0 0.000509471)
(0.0238469 0 0.000599842)
(0.0223857 0 0.000701963)
(0.0207728 0 0.000816306)
(0.0190357 0 0.000943)
(0.0172086 0 0.0010817)
(0.0153343 0 0.00123141)
(0.0134671 0 0.00139025)
(0.0116757 0 0.00155505)
(0.0100466 0 0.00172053)
(0.00868671 0 0.00187791)
(0.00772414 0 0.00201235)
(0.00730564 0 0.00209943)
(0.00256194 0 3.57853e-06)
(0.00736352 0 1.07694e-05)
(0.0115607 0 1.84201e-05)
(0.0151971 0 2.72241e-05)
(0.0183167 0 3.77752e-05)
(0.0209602 0 5.06204e-05)
(0.0231651 0 6.62996e-05)
(0.0249654 0 8.53734e-05)
(0.026392 0 0.000108445)
(0.0274727 0 0.000136174)
(0.0282326 0 0.000169293)
(0.0286942 0 0.00020861)
(0.0288779 0 0.000255019)
(0.0288024 0 0.000309492)
(0.028485 0 0.000373074)
(0.0279422 0 0.000446863)
(0.02719 0 0.000531976)
(0.0262447 0 0.000629502)
(0.0251233 0 0.00074043)
(0.0238449 0 0.00086555)
(0.0224311 0 0.00100531)
(0.0209083 0 0.00115965)
(0.0193082 0 0.00132775)
(0.0176701 0 0.00150772)
(0.0160436 0 0.00169622)
(0.0144909 0 0.00188782)
(0.0130901 0 0.00207419)
(0.0119368 0 0.00224304)
(0.0111441 0 0.00237732)
(0.0108419 0 0.00245635)
(0.00257759 0 4.14854e-06)
(0.00740981 0 1.24939e-05)
(0.0116372 0 2.13956e-05)
(0.0153048 0 3.1667e-05)
(0.018458 0 4.40024e-05)
(0.0211386 0 5.9039e-05)
(0.0233852 0 7.74027e-05)
(0.0252328 0 9.97404e-05)
(0.0267136 0 0.000126745)
(0.0278566 0 0.000159173)
(0.0286879 0 0.000197857)
(0.0292317 0 0.000243719)
(0.0295099 0 0.000297767)
(0.0295427 0 0.000361102)
(0.0293492 0 0.000434897)
(0.0289473 0 0.000520383)
(0.0283547 0 0.000618807)
(0.0275889 0 0.000731373)
(0.0266677 0 0.000859159)
(0.0256103 0 0.00100299)
(0.0244377 0 0.00116326)
(0.0231743 0 0.00133968)
(0.0218485 0 0.00153099)
(0.0204947 0 0.00173448)
(0.0191551 0 0.00194554)
(0.0178819 0 0.002157)
(0.0167403 0 0.00235853)
(0.0158108 0 0.00253612)
(0.0151916 0 0.00267252)
(0.0150045 0 0.00274973)
(0.0025959 0 4.59036e-06)
(0.00746395 0 1.38377e-05)
(0.0117266 0 2.37352e-05)
(0.0154307 0 3.51969e-05)
(0.0186231 0 4.9e-05)
(0.0213469 0 6.58544e-05)
(0.0236419 0 8.64532e-05)
(0.0255445 0 0.000111509)
(0.0270881 0 0.000141781)
(0.0283029 0 0.000178093)
(0.0292167 0 0.000221348)
(0.0298553 0 0.000272539)
(0.030242 0 0.00033275)
(0.0303992 0 0.000403155)
(0.0303477 0 0.000485005)
(0.0301074 0 0.000579602)
(0.0296978 0 0.000688258)
(0.0291379 0 0.000812229)
(0.0284467 0 0.000952624)
(0.0276437 0 0.00111027)
(0.026749 0 0.00128549)
(0.025785 0 0.00147786)
(0.0247764 0 0.00168577)
(0.0237513 0 0.00190598)
(0.0227428 0 0.00213306)
(0.0217904 0 0.00235885)
(0.0209432 0 0.00257213)
(0.0202646 0 0.00275851)
(0.019838 0 0.00290126)
(0.0197816 0 0.00298242)
(0.00261662 0 4.88695e-06)
(0.0075252 0 1.47505e-05)
(0.0118277 0 2.53552e-05)
(0.0155731 0 3.76944e-05)
(0.0188096 0 5.26089e-05)
(0.021582 0 7.08616e-05)
(0.0239315 0 9.3193e-05)
(0.0258957 0 0.000120358)
(0.0275094 0 0.000153157)
(0.0288044 0 0.000192448)
(0.02981 0 0.000239172)
(0.0305537 0 0.000294351)
(0.0310608 0 0.000359096)
(0.0313555 0 0.000434602)
(0.0314607 0 0.000522135)
(0.0313986 0 0.000623003)
(0.0311907 0 0.000738512)
(0.030858 0 0.000869902)
(0.0304211 0 0.00101825)
(0.0298998 0 0.00118434)
(0.0293136 0 0.00136849)
(0.0286831 0 0.00157017)
(0.0280291 0 0.00178768)
(0.0273732 0 0.0020176)
(0.0267391 0 0.00225417)
(0.0261515 0 0.00248891)
(0.0256411 0 0.00271037)
(0.0252516 0 0.00290425)
(0.0250503 0 0.00305386)
(0.0251486 0 0.00313929)
(0.00263946 0 5.02422e-06)
(0.00759272 0 1.51906e-05)
(0.0119392 0 2.61866e-05)
(0.0157298 0 3.90618e-05)
(0.0190149 0 5.46996e-05)
(0.0218406 0 7.3896e-05)
(0.0242496 0 9.74166e-05)
(0.026281 0 0.000126036)
(0.0279709 0 0.000160565)
(0.0293529 0 0.00020187)
(0.0304578 0 0.000250888)
(0.0313147 0 0.000308629)
(0.0319512 0 0.000376182)
(0.0323932 0 0.000454708)
(0.0326661 0 0.000545421)
(0.0327943 0 0.000649568)
(0.0328016 0 0.000768375)
(0.0327115 0 0.000902987)
(0.0325465 0 0.00105438)
(0.0323274 0 0.00122324)
(0.0320725 0 0.00140987)
(0.0318019 0 0.00161381)
(0.031533 0 0.00183345)
(0.0312809 0 0.00206558)
(0.0310622 0 0.00230458)
(0.0308857 0 0.00254207)
(0.0307608 0 0.00276662)
(0.0307072 0 0.0029636)
(0.0307696 0 0.00311541)
(0.0310437 0 0.00319971)
(0.00266411 0 4.99124e-06)
(0.00766559 0 1.51258e-05)
(0.0120594 0 2.61764e-05)
(0.0158989 0 3.92248e-05)
(0.0192361 0 5.51754e-05)
(0.0221189 0 7.4836e-05)
(0.0245915 0 9.89755e-05)
(0.0266946 0 0.000128363)
(0.0284656 0 0.000163795)
(0.0299396 0 0.000206113)
(0.0311492 0 0.000256213)
(0.0321253 0 0.000315053)
(0.0328972 0 0.000383649)
(0.0334931 0 0.00046307)
(0.0339403 0 0.00055442)
(0.0342658 0 0.00065881)
(0.0344959 0 0.000777314)
(0.0346567 0 0.000910901)
(0.0347737 0 0.00106034)
(0.0348695 0 0.00122612)
(0.0349592 0 0.00140857)
(0.0350652 0 0.00160732)
(0.0352024 0 0.00182105)
(0.035378 0 0.00204728)
(0.0356105 0 0.00228076)
(0.03589 0 0.00251365)
(0.0362027 0 0.00273468)
(0.0365371 0 0.00292834)
(0.0369035 0 0.00307482)
(0.0373665 0 0.00314982)
(0.00269025 0 4.78044e-06)
(0.00774282 0 1.45339e-05)
(0.0121868 0 2.52885e-05)
(0.0160779 0 3.81338e-05)
(0.0194701 0 5.39732e-05)
(0.022413 0 7.36052e-05)
(0.0249524 0 9.77806e-05)
(0.0271303 0 0.00012724)
(0.0289858 0 0.000162739)
(0.0305552 0 0.000205062)
(0.0318729 0 0.000255032)
(0.0329715 0 0.000313514)
(0.0338819 0 0.000381406)
(0.0346344 0 0.000459632)
(0.0352584 0 0.000549125)
(0.035783 0 0.000650793)
(0.0362369 0 0.000765487)
(0.0366492 0 0.000893932)
(0.0370491 0 0.00103656)
(0.0374518 0 0.00119365)
(0.0378846 0 0.00136524)
(0.0383698 0 0.00155123)
(0.0389218 0 0.00175041)
(0.0395472 0 0.00196156)
(0.0402563 0 0.00218058)
(0.04103 0 0.00240034)
(0.0418313 0 0.00261063)
(0.0426109 0 0.0027953)
(0.0433264 0 0.0029314)
(0.0439875 0 0.00299203)
(0.0027175 0 4.38777e-06)
(0.00782334 0 1.34031e-05)
(0.0123195 0 2.35046e-05)
(0.0162643 0 3.57648e-05)
(0.0197136 0 5.10649e-05)
(0.0227188 0 7.01738e-05)
(0.025327 0 9.38034e-05)
(0.0275818 0 0.000122644)
(0.0295235 0 0.000157385)
(0.0311901 0 0.000198729)
(0.0326173 0 0.000247395)
(0.0338391 0 0.000304117)
(0.0348882 0 0.000369634)
(0.0357965 0 0.000444681)
(0.0365952 0 0.000529961)
(0.0373152 0 0.000626126)
(0.0379874 0 0.000733738)
(0.0386429 0 0.000853247)
(0.0393105 0 0.000984356)
(0.0400061 0 0.00112732)
(0.0407685 0 0.00128201)
(0.0416196 0 0.00144795)
(0.0425774 0 0.00162417)
(0.0436571 0 0.00180997)
(0.0448439 0 0.00200398)
(0.0461317 0 0.00220045)
(0.0474632 0 0.00239219)
(0.0487503 0 0.00256484)
(0.0498788 0 0.00269304)
(0.0507637 0 0.0027433)
(0.0027455 0 3.81269e-06)
(0.00790607 0 1.17322e-05)
(0.0124559 0 2.08239e-05)
(0.0164556 0 3.21196e-05)
(0.0199633 0 4.64574e-05)
(0.0230319 0 6.4558e-05)
(0.02571 0 8.70755e-05)
(0.0280425 0 0.00011463)
(0.030071 0 0.000147824)
(0.0318347 0 0.000187255)
(0.0333705 0 0.000233511)
(0.0347139 0 0.000287167)
(0.0358989 0 0.000348771)
(0.0369586 0 0.000418828)
(0.0379257 0 0.000497771)
(0.0388325 0 0.00058594)
(0.0397111 0 0.000683542)
(0.0405935 0 0.000790622)
(0.041507 0 0.00090642)
(0.0424792 0 0.00103055)
(0.0435454 0 0.00116265)
(0.0447319 0 0.0013018)
(0.0460608 0 0.00144698)
(0.0475495 0 0.00159735)
(0.0491884 0 0.00175369)
(0.050976 0 0.00191373)
(0.0528501 0 0.00207561)
(0.0547007 0 0.00223267)
(0.0563392 0 0.00236302)
(0.0575274 0 0.00241941)
(0.00277388 0 3.05819e-06)
(0.00798986 0 9.53021e-06)
(0.0125939 0 1.72632e-05)
(0.0166492 0 2.72249e-05)
(0.0202157 0 4.01919e-05)
(0.023348 0 5.68189e-05)
(0.026096 0 7.76859e-05)
(0.0285058 0 0.000103326)
(0.0306202 0 0.000134239)
(0.0324793 0 0.000170897)
(0.0341212 0 0.000213739)
(0.0355823 0 0.000263158)
(0.0368976 0 0.000319489)
(0.0381013 0 0.000382982)
(0.0392267 0 0.000453771)
(0.040307 0 0.000531846)
(0.0413749 0 0.000617017)
(0.0424625 0 0.000708873)
(0.0435968 0 0.000806223)
(0.0448114 0 0.000907909)
(0.0461408 0 0.00101298)
(0.0476126 0 0.0011198)
(0.049251 0 0.00122676)
(0.0510742 0 0.00133259)
(0.0530945 0 0.00143759)
(0.0553047 0 0.00154308)
(0.0576614 0 0.00165371)
(0.0600712 0 0.00177797)
(0.0623187 0 0.0019157)
(0.0639838 0 0.00201109)
(0.00280223 0 2.13064e-06)
(0.00807359 0 6.81579e-06)
(0.0127318 0 1.28558e-05)
(0.0168425 0 2.11317e-05)
(0.0204675 0 3.23414e-05)
(0.023663 0 4.70592e-05)
(0.0264799 0 6.57773e-05)
(0.0289655 0 8.89287e-05)
(0.0311634 0 0.000116897)
(0.0331148 0 0.000150018)
(0.0348584 0 0.000188567)
(0.0364313 0 0.000232746)
(0.0378691 0 0.000282664)
(0.0392063 0 0.000338303)
(0.0404769 0 0.000399489)
(0.0417137 0 0.000465851)
(0.0429491 0 0.000536784)
(0.0442148 0 0.000611423)
(0.0455356 0 0.000688303)
(0.0469505 0 0.000765213)
(0.0484909 0 0.000840473)
(0.0501826 0 0.000911556)
(0.0520491 0 0.000975645)
(0.054109 0 0.00102982)
(0.0563809 0 0.00107176)
(0.0588526 0 0.00110202)
(0.0615014 0 0.00112468)
(0.0642732 0 0.00115902)
(0.0670193 0 0.00125298)
(0.069345 0 0.00142272)
(0.00118966 0 -0.000433842)
(0.00213516 0 -0.000419669)
(0.00382056 0 -0.000402648)
(0.00604197 0 -0.000387826)
(0.0086284 0 -0.00037431)
(0.0114293 0 -0.000360651)
(0.0143131 0 -0.000345951)
(0.0171694 0 -0.000329915)
(0.0199098 0 -0.000312664)
(0.0224668 0 -0.000294543)
(0.0247901 0 -0.000275959)
(0.0268458 0 -0.000257315)
(0.0286108 0 -0.000238947)
(0.03007 0 -0.000221105)
(0.031213 0 -0.000203959)
(0.0320323 0 -0.000187606)
(0.0325214 0 -0.000172081)
(0.0326732 0 -0.000157375)
(0.0324795 0 -0.000143439)
(0.0319301 0 -0.0001302)
(0.0310125 0 -0.000117565)
(0.0297114 0 -0.000105424)
(0.028009 0 -9.36527e-05)
(0.0258844 0 -8.21138e-05)
(0.0233139 0 -7.06543e-05)
(0.0202714 0 -5.91018e-05)
(0.016728 0 -4.72598e-05)
(0.0126531 0 -3.48997e-05)
(0.00801471 0 -2.17507e-05)
(0.00277735 0 -7.47783e-06)
(0.00234773 0 -0.00125191)
(0.00321999 0 -0.00122441)
(0.00482497 0 -0.00118694)
(0.00697387 0 -0.00115067)
(0.00949186 0 -0.00111453)
(0.0122242 0 -0.0010758)
(0.0150378 0 -0.00103281)
(0.0178226 0 -0.000985278)
(0.0204918 0 -0.000933872)
(0.0229797 0 -0.000879781)
(0.0252378 0 -0.000824298)
(0.0272331 0 -0.000768647)
(0.0289434 0 -0.000713835)
(0.0303538 0 -0.000660609)
(0.031454 0 -0.000609467)
(0.032236 0 -0.000560688)
(0.0326929 0 -0.000514377)
(0.0328172 0 -0.000470497)
(0.0326001 0 -0.000428906)
(0.0320308 0 -0.000389383)
(0.0310962 0 -0.00035165)
(0.0297808 0 -0.000315378)
(0.0280661 0 -0.0002802)
(0.025931 0 -0.000245705)
(0.0233515 0 -0.000211436)
(0.0203011 0 -0.00017688)
(0.0167507 0 -0.000141449)
(0.0126693 0 -0.000104461)
(0.00802454 0 -6.5106e-05)
(0.00278068 0 -2.23836e-05)
(0.00440882 0 -0.00197288)
(0.0052303 0 -0.00195819)
(0.00674117 0 -0.00192505)
(0.00878069 0 -0.00188347)
(0.0111798 0 -0.00183384)
(0.0137843 0 -0.00177478)
(0.0164625 0 -0.00170588)
(0.0191076 0 -0.00162808)
(0.0216368 0 -0.0015433)
(0.0239887 0 -0.00145392)
(0.0261182 0 -0.00136226)
(0.0279945 0 -0.00127039)
(0.0295972 0 -0.00117997)
(0.0309117 0 -0.00109223)
(0.0319275 0 -0.00100794)
(0.0326362 0 -0.00092755)
(0.0330299 0 -0.000851213)
(0.0331001 0 -0.000778856)
(0.0328367 0 -0.000710239)
(0.0322281 0 -0.000644996)
(0.0312602 0 -0.000582664)
(0.0299165 0 -0.000522707)
(0.0281777 0 -0.000464517)
(0.026022 0 -0.000407421)
(0.0234249 0 -0.000350664)
(0.020359 0 -0.000293401)
(0.0167948 0 -0.000234661)
(0.0127007 0 -0.000173316)
(0.00804365 0 -0.000108029)
(0.00278719 0 -3.71418e-05)
(0.00722826 0 -0.00262682)
(0.00803011 0 -0.00263544)
(0.00946281 0 -0.00262037)
(0.0113826 0 -0.00258414)
(0.0136301 0 -0.00252758)
(0.0160582 0 -0.00245172)
(0.0185425 0 -0.00235864)
(0.0209845 0 -0.00225153)
(0.0233093 0 -0.00213415)
(0.0254623 0 -0.00201035)
(0.0274038 0 -0.00188356)
(0.0291066 0 -0.0017567)
(0.0305523 0 -0.00163202)
(0.0317269 0 -0.00151113)
(0.03262 0 -0.00139507)
(0.0332219 0 -0.00128438)
(0.0335235 0 -0.00117924)
(0.0335146 0 -0.00107953)
(0.0331838 0 -0.000984894)
(0.0325178 0 -0.000894834)
(0.0315011 0 -0.00080871)
(0.0301159 0 -0.000725783)
(0.0283419 0 -0.00064522)
(0.026156 0 -0.000566094)
(0.0235328 0 -0.00048737)
(0.0204442 0 -0.00040788)
(0.0168597 0 -0.000326285)
(0.0127469 0 -0.000241024)
(0.0080718 0 -0.000150248)
(0.00279678 0 -5.166e-05)
(0.0107099 0 -0.00325777)
(0.011525 0 -0.00328746)
(0.012902 0 -0.00328992)
(0.0147004 0 -0.00325941)
(0.0167711 0 -0.00319616)
(0.0189801 0 -0.00310338)
(0.0212172 0 -0.00298594)
(0.0233976 0 -0.00284957)
(0.0254586 0 -0.00270008)
(0.0273552 0 -0.00254281)
(0.0290549 0 -0.00238227)
(0.030535 0 -0.00222207)
(0.0317795 0 -0.00206495)
(0.0327752 0 -0.00191281)
(0.0335112 0 -0.00176683)
(0.0339765 0 -0.00162762)
(0.0341601 0 -0.00149533)
(0.03405 0 -0.00136977)
(0.0336327 0 -0.00125049)
(0.0328929 0 -0.00113684)
(0.0318133 0 -0.00102801)
(0.0303747 0 -0.00092308)
(0.028555 0 -0.000821006)
(0.02633 0 -0.000720626)
(0.0236731 0 -0.00062064)
(0.020555 0 -0.000519574)
(0.0169442 0 -0.00041574)
(0.012807 0 -0.000307165)
(0.00810843 0 -0.000191505)
(0.00280925 0 -6.58501e-05)
(0.0148143 0 -0.00389869)
(0.0156633 0 -0.00393982)
(0.0169947 0 -0.0039492)
(0.0186621 0 -0.0039162)
(0.0205272 0 -0.00384047)
(0.0224739 0 -0.00372688)
(0.0244124 0 -0.00358278)
(0.0262771 0 -0.00341623)
(0.0280206 0 -0.00323484)
(0.0296101 0 -0.00304523)
(0.0310211 0 -0.00285267)
(0.0322363 0 -0.00266127)
(0.0332419 0 -0.00247405)
(0.0340257 0 -0.00229305)
(0.0345755 0 -0.0021195)
(0.0348789 0 -0.00195399)
(0.0349227 0 -0.00179661)
(0.0346923 0 -0.00164709)
(0.034172 0 -0.00150485)
(0.0333442 0 -0.00136911)
(0.0321896 0 -0.00123892)
(0.0306868 0 -0.00111318)
(0.0288124 0 -0.000990664)
(0.0265405 0 -0.00086999)
(0.0238429 0 -0.000749615)
(0.0206892 0 -0.000627785)
(0.0170465 0 -0.000502482)
(0.0128799 0 -0.000371343)
(0.00815281 0 -0.000231556)
(0.00282436 0 -7.96289e-05)
(0.0195279 0 -0.00456027)
(0.0204127 0 -0.00460099)
(0.0216867 0 -0.00460299)
(0.0231963 0 -0.00455528)
(0.0248158 0 -0.00445788)
(0.026452 0 -0.00431731)
(0.028041 0 -0.00414301)
(0.0295398 0 -0.00394495)
(0.030919 0 -0.00373202)
(0.0321584 0 -0.0035116)
(0.0332427 0 -0.00328933)
(0.0341589 0 -0.00306942)
(0.034896 0 -0.00285498)
(0.0354418 0 -0.00264802)
(0.0357829 0 -0.0024497)
(0.0359046 0 -0.00226053)
(0.0357911 0 -0.00208049)
(0.0354253 0 -0.0019092)
(0.0347887 0 -0.00174598)
(0.0338612 0 -0.00158992)
(0.0326213 0 -0.00143993)
(0.0310456 0 -0.00129479)
(0.0291086 0 -0.00115308)
(0.0267829 0 -0.00101324)
(0.0240386 0 -0.000873504)
(0.020844 0 -0.000731866)
(0.0171646 0 -0.000586002)
(0.012964 0 -0.000433188)
(0.00820405 0 -0.000270174)
(0.00284181 0 -9.29185e-05)
(0.0248287 0 -0.00523091)
(0.0257322 0 -0.00526143)
(0.0269149 0 -0.00524348)
(0.0282205 0 -0.00516917)
(0.0295411 0 -0.00504059)
(0.0308124 0 -0.00486653)
(0.0320013 0 -0.0046586)
(0.0330903 0 -0.00442827)
(0.0340663 0 -0.00418489)
(0.0349228 0 -0.00393598)
(0.0356522 0 -0.00368708)
(0.0362451 0 -0.00344203)
(0.0366932 0 -0.00320383)
(0.0369832 0 -0.00297432)
(0.0371 0 -0.00275448)
(0.0370262 0 -0.00254465)
(0.0367431 0 -0.0023447)
(0.0362308 0 -0.00215413)
(0.035468 0 -0.00197214)
(0.0344321 0 -0.00179774)
(0.033099 0 -0.00162972)
(0.0314432 0 -0.00146674)
(0.0294374 0 -0.00130724)
(0.0270523 0 -0.00114951)
(0.0242564 0 -0.000991582)
(0.0210163 0 -0.000831221)
(0.0172961 0 -0.000665832)
(0.0130578 0 -0.000492359)
(0.00826118 0 -0.000307148)
(0.00286127 0 -0.000105647)
(0.0306617 0 -0.00588562)
(0.0315525 0 -0.00590025)
(0.0325921 0 -0.00585394)
(0.0336302 0 -0.00574369)
(0.0345868 0 -0.00557594)
(0.0354349 0 -0.00536322)
(0.036177 0 -0.00511966)
(0.0368221 0 -0.00485797)
(0.0373667 0 -0.00458662)
(0.0378188 0 -0.00431276)
(0.0381773 0 -0.00404133)
(0.0384331 0 -0.00377515)
(0.0385816 0 -0.00351727)
(0.0386069 0 -0.00326909)
(0.0384913 0 -0.00303135)
(0.0382146 0 -0.0028042)
(0.037755 0 -0.00258735)
(0.0370896 0 -0.0023802)
(0.0361943 0 -0.00218187)
(0.035044 0 -0.00199127)
(0.0336122 0 -0.00180714)
(0.0318714 0 -0.00162803)
(0.0297921 0 -0.00145229)
(0.0273433 0 -0.00127805)
(0.024492 0 -0.00110321)
(0.0212029 0 -0.000925324)
(0.0174386 0 -0.000741555)
(0.0131593 0 -0.000548549)
(0.00832306 0 -0.000342287)
(0.00288235 0 -0.000117749)
(0.0369343 0 -0.00649724)
(0.0377719 0 -0.00649426)
(0.038601 0 -0.00641419)
(0.0392926 0 -0.00626059)
(0.0398116 0 -0.00604771)
(0.0401785 0 -0.00579354)
(0.0404362 0 -0.00551487)
(0.0406019 0 -0.00522382)
(0.0407 0 -0.0049289)
(0.0407427 0 -0.00463521)
(0.0407314 0 -0.00434682)
(0.0406585 0 -0.0040656)
(0.0405082 0 -0.00379266)
(0.040269 0 -0.00353013)
(0.0399208 0 -0.00327844)
(0.0394403 0 -0.00303753)
(0.0388025 0 -0.002807)
(0.0379818 0 -0.00258613)
(0.0369514 0 -0.002374)
(0.0356837 0 -0.00216948)
(0.0341503 0 -0.00197126)
(0.0323213 0 -0.00177783)
(0.0301656 0 -0.00158747)
(0.0276503 0 -0.00139823)
(0.0247407 0 -0.00120784)
(0.0214 0 -0.00101372)
(0.0175892 0 -0.000812806)
(0.0132667 0 -0.000601491)
(0.00838852 0 -0.000375425)
(0.00290464 0 -0.000129166)
(0.0435277 0 -0.00704806)
(0.0442604 0 -0.00702536)
(0.0447904 0 -0.00690384)
(0.04504 0 -0.0066989)
(0.0450449 0 -0.006437)
(0.0448801 0 -0.00614202)
(0.0446222 0 -0.00583247)
(0.0443016 0 -0.00551838)
(0.0439589 0 -0.00520613)
(0.0436046 0 -0.00489917)
(0.043238 0 -0.0045998)
(0.0428519 0 -0.00430968)
(0.0424219 0 -0.00402827)
(0.0419269 0 -0.00375597)
(0.0413535 0 -0.00349448)
(0.0406744 0 -0.00324356)
(0.0398619 0 -0.00300265)
(0.0388879 0 -0.00277101)
(0.0377232 0 -0.0025477)
(0.0363382 0 -0.00233159)
(0.0347024 0 -0.00212137)
(0.0327842 0 -0.0019155)
(0.0305506 0 -0.00171223)
(0.0279672 0 -0.00150952)
(0.0249978 0 -0.00130503)
(0.021604 0 -0.00109602)
(0.0177452 0 -0.000879281)
(0.0133779 0 -0.000650957)
(0.00845629 0 -0.000406419)
(0.00292772 0 -0.000139851)
(0.0503137 0 -0.00753284)
(0.0508588 0 -0.00747904)
(0.0509615 0 -0.00729915)
(0.0506587 0 -0.00703315)
(0.0500836 0 -0.00672246)
(0.0493615 0 -0.00639369)
(0.0485867 0 -0.00606245)
(0.0478097 0 -0.0057359)
(0.0470561 0 -0.00541591)
(0.0463341 0 -0.00510392)
(0.0456386 0 -0.00480066)
(0.0449568 0 -0.00450671)
(0.0442687 0 -0.00422231)
(0.0435405 0 -0.00394597)
(0.0427563 0 -0.00367892)
(0.0418897 0 -0.00342174)
(0.0409107 0 -0.00317379)
(0.0397892 0 -0.00293433)
(0.0384942 0 -0.00270247)
(0.0369946 0 -0.00247712)
(0.035258 0 -0.002257)
(0.0332512 0 -0.00204059)
(0.03094 0 -0.00182612)
(0.0282884 0 -0.00161154)
(0.0252587 0 -0.00139442)
(0.0218111 0 -0.00117194)
(0.0179035 0 -0.000940734)
(0.0134908 0 -0.000696762)
(0.00852507 0 -0.000435152)
(0.00295114 0 -0.000149761)
(0.0571429 0 -0.00794604)
(0.0573357 0 -0.00782813)
(0.0568297 0 -0.00756142)
(0.0558718 0 -0.00722923)
(0.0546911 0 -0.0068806)
(0.0534349 0 -0.00653471)
(0.0521924 0 -0.00619847)
(0.0510096 0 -0.0058732)
(0.0498974 0 -0.00555695)
(0.0488554 0 -0.00524922)
(0.0478724 0 -0.0049497)
(0.0469309 0 -0.00465842)
(0.0460086 0 -0.00437556)
(0.0450741 0 -0.00409998)
(0.0441002 0 -0.00383183)
(0.0430618 0 -0.00357212)
(0.0419284 0 -0.00332037)
(0.0406685 0 -0.00307596)
(0.0392501 0 -0.0028381)
(0.0376407 0 -0.00260581)
(0.0358068 0 -0.00237786)
(0.0337141 0 -0.0021528)
(0.0313268 0 -0.00192887)
(0.0286079 0 -0.00170401)
(0.0255185 0 -0.00147578)
(0.0220175 0 -0.00124126)
(0.0180613 0 -0.000996979)
(0.0136033 0 -0.000738763)
(0.00859354 0 -0.00046153)
(0.00297444 0 -0.000158865)
(0.0637235 0 -0.00824818)
(0.0632583 0 -0.00799616)
(0.0619611 0 -0.00762108)
(0.060329 0 -0.00724421)
(0.0586094 0 -0.00689068)
(0.0569155 0 -0.00655735)
(0.0553011 0 -0.00623899)
(0.053799 0 -0.00593152)
(0.0524037 0 -0.00563132)
(0.0511058 0 -0.00533728)
(0.0498887 0 -0.00504892)
(0.048732 0 -0.00476638)
(0.0476122 0 -0.00449006)
(0.0464999 0 -0.00421938)
(0.0453603 0 -0.00395407)
(0.0441695 0 -0.00369528)
(0.0428967 0 -0.00344277)
(0.0415102 0 -0.00319612)
(0.0399776 0 -0.00295471)
(0.0382655 0 -0.00271768)
(0.0363396 0 -0.00248391)
(0.0341648 0 -0.00225203)
(0.0317044 0 -0.00202034)
(0.0289204 0 -0.00178679)
(0.0257728 0 -0.00154893)
(0.0222195 0 -0.00130381)
(0.0182157 0 -0.00104788)
(0.0137132 0 -0.000776853)
(0.00866037 0 -0.000485484)
(0.00299714 0 -0.000167136)
(0.0691482 0 -0.00825347)
(0.0677644 0 -0.00778805)
(0.0657458 0 -0.0073762)
(0.0636498 0 -0.00704355)
(0.0616055 0 -0.00674843)
(0.0596576 0 -0.0064675)
(0.0578231 0 -0.00619168)
(0.0561171 0 -0.00591788)
(0.0545309 0 -0.00564497)
(0.0530513 0 -0.00537299)
(0.0516599 0 -0.0051023)
(0.0503364 0 -0.0048338)
(0.0490571 0 -0.00456823)
(0.0477956 0 -0.00430598)
(0.0465169 0 -0.00404706)
(0.045195 0 -0.00379225)
(0.0438001 0 -0.00354172)
(0.042301 0 -0.00329532)
(0.0406651 0 -0.00305261)
(0.0388589 0 -0.00281292)
(0.0368477 0 -0.00257524)
(0.034596 0 -0.00233831)
(0.0320665 0 -0.0021005)
(0.0292205 0 -0.00185981)
(0.0260172 0 -0.0016138)
(0.0224136 0 -0.00135951)
(0.0183638 0 -0.00109336)
(0.0138185 0 -0.000810959)
(0.00872419 0 -0.00050696)
(0.00301878 0 -0.000174556)
(0.00283059 0 1.02566e-06)
(0.00815737 0 3.57467e-06)
(0.0128699 0 7.56185e-06)
(0.017036 0 1.37919e-05)
(0.0207194 0 2.28534e-05)
(0.0239775 0 3.52276e-05)
(0.0268626 0 5.13067e-05)
(0.0294226 0 7.1413e-05)
(0.031702 0 9.58045e-05)
(0.0337425 0 0.00012467)
(0.0355833 0 0.000158118)
(0.0372617 0 0.000196154)
(0.0388137 0 0.000238655)
(0.0402736 0 0.000285343)
(0.041675 0 0.000335737)
(0.0430503 0 0.000389116)
(0.0444305 0 0.000444467)
(0.0458453 0 0.000500432)
(0.0473203 0 0.000555238)
(0.0488924 0 0.000606018)
(0.0505869 0 0.000650174)
(0.0524263 0 0.000684258)
(0.0544287 0 0.000704101)
(0.0566068 0 0.000704626)
(0.0589654 0 0.000679395)
(0.061481 0 0.000621021)
(0.06412 0 0.000513847)
(0.0668115 0 0.000325296)
(0.0694372 0 -3.01632e-05)
(0.0718343 0 -0.000749833)
(0.0028587 0 -2.71386e-07)
(0.00824045 0 -2.28556e-07)
(0.013007 0 1.34405e-06)
(0.0172284 0 5.12868e-06)
(0.0209697 0 1.1639e-05)
(0.0242899 0 2.12255e-05)
(0.0272419 0 3.41722e-05)
(0.0298744 0 5.06819e-05)
(0.0322325 0 7.08805e-05)
(0.034358 0 9.48084e-05)
(0.0362905 0 0.000122403)
(0.0380672 0 0.000153476)
(0.0397237 0 0.000187687)
(0.0412938 0 0.000224506)
(0.0428101 0 0.000263174)
(0.0443036 0 0.000302653)
(0.0458038 0 0.000341571)
(0.0473381 0 0.000378149)
(0.0489323 0 0.000410099)
(0.0506135 0 0.000434433)
(0.0524023 0 0.000447777)
(0.0543145 0 0.000445922)
(0.056359 0 0.00042369)
(0.0585353 0 0.000374505)
(0.0608293 0 0.000289625)
(0.0632059 0 0.000156505)
(0.0656079 0 -4.70575e-05)
(0.0679473 0 -0.000355995)
(0.0700709 0 -0.000823547)
(0.0718176 0 -0.00153739)
(0.00288586 0 -1.75013e-06)
(0.0083209 0 -4.56757e-06)
(0.0131399 0 -5.74028e-06)
(0.0174151 0 -4.7449e-06)
(0.0212131 0 -1.1865e-06)
(0.0245933 0 5.21255e-06)
(0.0276097 0 1.45866e-05)
(0.0303116 0 2.70177e-05)
(0.032744 0 4.24978e-05)
(0.0349491 0 6.09216e-05)
(0.0369661 0 8.20623e-05)
(0.0388319 0 0.000105551)
(0.0405813 0 0.000130845)
(0.0422472 0 0.000157194)
(0.0438607 0 0.000183599)
(0.0454508 0 0.000208763)
(0.0470446 0 0.000231032)
(0.0486669 0 0.000248329)
(0.05034 0 0.000258068)
(0.0520837 0 0.000257067)
(0.0539124 0 0.000241561)
(0.0558338 0 0.000206935)
(0.0578474 0 0.000147539)
(0.0599409 0 5.6215e-05)
(0.0620874 0 -7.63282e-05)
(0.0642503 0 -0.000264035)
(0.0663543 0 -0.000523916)
(0.068295 0 -0.00087833)
(0.0699584 0 -0.00135629)
(0.071236 0 -0.00202127)
(0.00291154 0 -3.40183e-06)
(0.00839721 0 -9.41542e-06)
(0.0132664 0 -1.36617e-05)
(0.0175932 0 -1.57676e-05)
(0.0214454 0 -1.54979e-05)
(0.0248833 0 -1.26893e-05)
(0.0279609 0 -7.27856e-06)
(0.0307279 0 6.52085e-07)
(0.0332296 0 1.09663e-05)
(0.0355078 0 2.34221e-05)
(0.0376013 0 3.76401e-05)
(0.0395462 0 5.30884e-05)
(0.0413763 0 6.90509e-05)
(0.0431231 0 8.45929e-05)
(0.0448158 0 9.85257e-05)
(0.0464812 0 0.00010936)
(0.0481433 0 0.000115257)
(0.0498237 0 0.000113964)
(0.0515402 0 0.000102756)
(0.0533068 0 7.83729e-05)
(0.0551314 0 3.69606e-05)
(0.0570148 0 -2.61095e-05)
(0.0589493 0 -0.000116411)
(0.0609162 0 -0.000241006)
(0.0628837 0 -0.000408204)
(0.0648022 0 -0.000628133)
(0.0665983 0 -0.000910527)
(0.0681957 0 -0.00127067)
(0.0695132 0 -0.00172825)
(0.0704661 0 -0.002314)
(0.00293521 0 -5.21335e-06)
(0.00846789 0 -1.47335e-05)
(0.0133843 0 -2.23534e-05)
(0.0177597 0 -2.78649e-05)
(0.0216629 0 -3.1171e-05)
(0.025155 0 -3.22674e-05)
(0.0282901 0 -3.11993e-05)
(0.0311175 0 -2.81156e-05)
(0.0336827 0 -2.33271e-05)
(0.0360268 0 -1.71897e-05)
(0.0381881 0 -1.02221e-05)
(0.0402016 0 -3.09427e-06)
(0.0420999 0 3.33733e-06)
(0.0439127 0 7.99493e-06)
(0.0456671 0 9.55862e-06)
(0.0473873 0 6.42293e-06)
(0.0490945 0 -3.34516e-06)
(0.0508064 0 -2.205e-05)
(0.0525368 0 -5.2413e-05)
(0.0542946 0 -9.762e-05)
(0.0560826 0 -0.000161371)
(0.0578963 0 -0.000247997)
(0.0597253 0 -0.000362719)
(0.0615442 0 -0.00051092)
(0.0633152 0 -0.000698547)
(0.0649931 0 -0.00093191)
(0.0665229 0 -0.00121837)
(0.0678466 0 -0.00156677)
(0.0689061 0 -0.00198694)
(0.0696437 0 -0.00248724)
(0.00295637 0 -7.16695e-06)
(0.00853151 0 -2.04698e-05)
(0.0134911 0 -3.1729e-05)
(0.0179115 0 -4.091e-05)
(0.0218621 0 -4.80625e-05)
(0.0254041 0 -5.33077e-05)
(0.028592 0 -5.68465e-05)
(0.0314748 0 -5.89256e-05)
(0.0340971 0 -5.99243e-05)
(0.0364995 0 -6.03332e-05)
(0.0387194 0 -6.07982e-05)
(0.0407908 0 -6.20947e-05)
(0.0427448 0 -6.51811e-05)
(0.0446093 0 -7.12384e-05)
(0.046409 0 -8.1656e-05)
(0.0481655 0 -9.80817e-05)
(0.049897 0 -0.00012245)
(0.051618 0 -0.000157011)
(0.0533386 0 -0.000204357)
(0.0550639 0 -0.000267452)
(0.0567935 0 -0.000349679)
(0.05852 0 -0.000454942)
(0.0602265 0 -0.000586924)
(0.0618861 0 -0.000749234)
(0.0634678 0 -0.000946308)
(0.0649337 0 -0.00118237)
(0.0662418 0 -0.00146165)
(0.06735 0 -0.00178818)
(0.0682181 0 -0.0021645)
(0.0688109 0 -0.00258822)
(0.00297453 0 -9.24021e-06)
(0.00858668 0 -2.65585e-05)
(0.0135849 0 -4.16802e-05)
(0.0180459 0 -5.47492e-05)
(0.0220395 0 -6.59639e-05)
(0.0256268 0 -7.55738e-05)
(0.0288621 0 -8.38897e-05)
(0.0317942 0 -9.12989e-05)
(0.0344669 0 -9.82624e-05)
(0.03692 0 -0.000105366)
(0.0391893 0 -0.000113294)
(0.041308 0 -0.000122948)
(0.0433055 0 -0.000135335)
(0.0452082 0 -0.000151716)
(0.0470382 0 -0.000173482)
(0.0488146 0 -0.000202254)
(0.0505529 0 -0.000239891)
(0.0522648 0 -0.000288493)
(0.0539575 0 -0.000350418)
(0.0556337 0 -0.000428287)
(0.0572913 0 -0.00052502)
(0.058918 0 -0.000643552)
(0.0604952 0 -0.000786102)
(0.0620024 0 -0.000955662)
(0.0634131 0 -0.00115497)
(0.0646972 0 -0.00138638)
(0.0658236 0 -0.00165169)
(0.0667625 0 -0.00195161)
(0.0674876 0 -0.00228453)
(0.067979 0 -0.00264437)
(0.00298925 0 -1.14061e-05)
(0.00863212 0 -3.29204e-05)
(0.0136635 0 -5.20773e-05)
(0.0181602 0 -6.91999e-05)
(0.0221918 0 -8.46342e-05)
(0.0258193 0 -9.87544e-05)
(0.0290964 0 -0.00011198)
(0.0320714 0 -0.000124793)
(0.0347873 0 -0.000137751)
(0.037283 0 -0.000151532)
(0.039593 0 -0.000166868)
(0.0417485 0 -0.000184657)