/*--------------------------------*- C++ -*----------------------------------*\
| =========                 |                                                 |
| \\      /  F ield         | OpenFOAM: The Open Source CFD Toolbox           |
|  \\    /   O peration     | Version:  dev                                   |
|   \\  /    A nd           | Web:      www.OpenFOAM.org                      |
|    \\/     M anipulation  |                                                 |
\*---------------------------------------------------------------------------*/
FoamFile
{
    version     2.0;
    format      ascii;
    class       volVectorField;
    location    "3.45";
    object      Force;
}
// * * * * * * * * * * * * * * * * * * * * * * * * * * * * * * * * * * * * * //

dimensions      [1 1 -2 0 0 0 0];

internalField   uniform (0 0 0);

boundaryField
{
    inlet
    {
        type            calculated;
        value           uniform (0 0 0);
    }
    outlet
    {
        type            calculated;
        value           uniform (0 0 0);
    }
    flap
    {
        type            calculated;
        value           nonuniform List<vector> 
33
(
(3.7389 3.12639e-19 -0.0494698)
(3.73062 -3.52202e-23 -0.0992703)
(3.72887 -1.54264e-17 -0.14403)
(3.72865 1.66324e-17 -0.180519)
(3.72017 2.50751e-18 -0.213684)
(3.69738 1.66022e-17 -0.245992)
(3.65712 1.65876e-17 -0.277485)
(3.5978 -2.4319e-18 -0.304785)
(3.51842 3.35141e-23 -0.324822)
(3.41696 -2.31784e-18 -0.335175)
(3.28967 1.63742e-17 -0.334369)
(3.12594 1.41687e-17 -0.323238)
(2.90308 -1.02364e-21 -0.301888)
(2.57126 -1.74877e-18 -0.266293)
(1.99643 4.96026e-23 -0.204806)
(0.0579161 -1.32982e-21 0.527131)
(0.0330573 -1.0191e-19 0.307525)
(0.00900527 -2.7697e-22 0.0998053)
(-0.0358091 1.57341e-17 0.000453712)
(-0.0352853 1.58435e-17 0.00077078)
(-0.0345802 -1.0726e-25 0.00105209)
(-0.0339473 -1.17084e-26 0.00126576)
(-0.0337652 1.04883e-26 0.00149649)
(-0.0344616 -1.59714e-17 0.0018128)
(-0.0364806 2.29589e-41 0.0022819)
(-0.0400751 7.34684e-40 0.00294694)
(-0.0450097 1.6094e-17 0.00378687)
(-0.0506862 1.61603e-17 0.00471731)
(-0.0566081 -1.20383e-24 0.00565104)
(-0.0632529 1.63075e-17 0.00673205)
(-0.0701005 -4.74632e-20 0.0077735)
(-0.0745473 2.45038e-23 0.00859004)
(-0.071281 1.72646e-17 0.008459)
)
;
    }
    upperWall
    {
        type            calculated;
        value           uniform (0 0 0);
    }
    lowerWall
    {
        type            calculated;
        value           uniform (0 0 0);
    }
    frontAndBack
    {
        type            empty;
    }
}


// ************************************************************************* //
