/*--------------------------------*- C++ -*----------------------------------*\
| =========                 |                                                 |
| \\      /  F ield         | OpenFOAM: The Open Source CFD Toolbox           |
|  \\    /   O peration     | Version:  dev                                   |
|   \\  /    A nd           | Web:      www.OpenFOAM.org                      |
|    \\/     M anipulation  |                                                 |
\*---------------------------------------------------------------------------*/
FoamFile
{
    version     2.0;
    format      ascii;
    class       volVectorField;
    location    "1.99";
    object      cellDisplacement;
}
// * * * * * * * * * * * * * * * * * * * * * * * * * * * * * * * * * * * * * //

dimensions      [0 1 0 0 0 0 0];

internalField   nonuniform List<vector> 
2790
(
(0.0129766 0 -7.0043e-05)
(0.036974 0 -0.000199886)
(0.0573041 0 -0.000312637)
(0.0743127 0 -0.000411467)
(0.0883748 0 -0.00049908)
(0.0998014 0 -0.000578669)
(0.108876 0 -0.000648934)
(0.115855 0 -0.000711884)
(0.120945 0 -0.000767908)
(0.124327 0 -0.000817037)
(0.126159 0 -0.000859071)
(0.126579 0 -0.000893721)
(0.125709 0 -0.000920804)
(0.123657 0 -0.000937706)
(0.120519 0 -0.000943598)
(0.11638 0 -0.000936837)
(0.111323 0 -0.000915161)
(0.105419 0 -0.000875699)
(0.0987491 0 -0.000816709)
(0.0913884 0 -0.000734093)
(0.0834148 0 -0.000623245)
(0.0749109 0 -0.000478802)
(0.065969 0 -0.000294462)
(0.0566939 0 -6.25211e-05)
(0.0472115 0 0.000226233)
(0.037684 0 0.000582748)
(0.0283432 0 0.00102083)
(0.0195886 0 0.00156058)
(0.0121548 0 0.00222081)
(0.00797509 0 0.00291522)
(0.0129935 0 -0.000210573)
(0.0370239 0 -0.000601027)
(0.0573858 0 -0.000940239)
(0.0744267 0 -0.00123771)
(0.0885267 0 -0.00150129)
(0.0999898 0 -0.00173598)
(0.109102 0 -0.00194668)
(0.116126 0 -0.00213582)
(0.121267 0 -0.00230433)
(0.124706 0 -0.0024523)
(0.126602 0 -0.00257911)
(0.127094 0 -0.00268386)
(0.126307 0 -0.00276713)
(0.124348 0 -0.00281946)
(0.121316 0 -0.00283945)
(0.1173 0 -0.00282228)
(0.112383 0 -0.00276136)
(0.106637 0 -0.00264721)
(0.100151 0 -0.00247694)
(0.0930051 0 -0.0022377)
(0.0852845 0 -0.00191629)
(0.0770816 0 -0.00149753)
(0.0685056 0 -0.000963871)
(0.0596847 0 -0.000293739)
(0.0507806 0 0.000538472)
(0.042009 0 0.00156231)
(0.0336526 0 0.00281292)
(0.0261467 0 0.00432244)
(0.0203745 0 0.00607998)
(0.0189979 0 0.00772701)
(0.013028 0 -0.000351312)
(0.037125 0 -0.00100289)
(0.0575504 0 -0.00156925)
(0.0746545 0 -0.00206618)
(0.088817 0 -0.00250657)
(0.100354 0 -0.00289733)
(0.109554 0 -0.00325019)
(0.11667 0 -0.00356743)
(0.121913 0 -0.0038507)
(0.125467 0 -0.00410024)
(0.12749 0 -0.00431495)
(0.128125 0 -0.00449265)
(0.127498 0 -0.00463012)
(0.125724 0 -0.00472275)
(0.122903 0 -0.00476422)
(0.119129 0 -0.00474647)
(0.114495 0 -0.00465987)
(0.109074 0 -0.00449241)
(0.102954 0 -0.00423076)
(0.0962366 0 -0.00385917)
(0.0890177 0 -0.00335815)
(0.0814059 0 -0.00270498)
(0.0735408 0 -0.00187525)
(0.0655847 0 -0.000838352)
(0.0577498 0 0.000440228)
(0.0503498 0 0.00199417)
(0.0438624 0 0.00384564)
(0.0389203 0 0.00598021)
(0.036325 0 0.00832423)
(0.0392397 0 0.0100503)
(0.0130793 0 -0.000491494)
(0.0372757 0 -0.00140328)
(0.0577955 0 -0.00219622)
(0.0749937 0 -0.00289235)
(0.0892546 0 -0.00351014)
(0.100904 0 -0.00406191)
(0.110228 0 -0.00455915)
(0.117481 0 -0.00500699)
(0.122876 0 -0.00540816)
(0.126598 0 -0.00576317)
(0.128812 0 -0.00607057)
(0.129662 0 -0.00632693)
(0.129275 0 -0.00652612)
(0.127775 0 -0.00666872)
(0.125268 0 -0.00674372)
(0.121852 0 -0.00674045)
(0.117624 0 -0.00664673)
(0.112678 0 -0.00644941)
(0.107107 0 -0.00612728)
(0.101025 0 -0.00566266)
(0.0945471 0 -0.00503285)
(0.0878013 0 -0.00421028)
(0.0809856 0 -0.00317335)
(0.0743095 0 -0.00189042)
(0.0680433 0 -0.000329821)
(0.0625691 0 0.00153169)
(0.0584784 0 0.00367925)
(0.0569009 0 0.0059724)
(0.0589243 0 0.00815149)
(0.0671245 0 0.00899132)
(0.0131466 0 -0.000630963)
(0.0374743 0 -0.00180184)
(0.0581188 0 -0.0028208)
(0.075441 0 -0.0037159)
(0.0898341 0 -0.00451153)
(0.101629 0 -0.00522446)
(0.111116 0 -0.00586756)
(0.118547 0 -0.00644821)
(0.124141 0 -0.00697039)
(0.128086 0 -0.00743516)
(0.13055 0 -0.00784099)
(0.13168 0 -0.0081839)
(0.131614 0 -0.00846108)
(0.130477 0 -0.00866712)
(0.12838 0 -0.00879163)
(0.125433 0 -0.00882278)
(0.12174 0 -0.00874635)
(0.117398 0 -0.008544)
(0.112538 0 -0.00820267)
(0.107285 0 -0.0076997)
(0.101784 0 -0.00701338)
(0.0961872 0 -0.0061159)
(0.0907062 0 -0.00498289)
(0.0856412 0 -0.0036)
(0.0813488 0 -0.00195668)
(0.0783893 0 -8.33963e-05)
(0.0773842 0 0.00196413)
(0.0794859 0 0.00394311)
(0.0867108 0 0.00520891)
(0.101007 0 0.00430864)
(0.0132289 0 -0.000769546)
(0.0377192 0 -0.00219814)
(0.0585175 0 -0.0034426)
(0.075992 0 -0.00453636)
(0.0905492 0 -0.00551032)
(0.102524 0 -0.00638524)
(0.112209 0 -0.00717613)
(0.11986 0 -0.00789252)
(0.125698 0 -0.00853987)
(0.129916 0 -0.00912011)
(0.132686 0 -0.00963195)
(0.134159 0 -0.01007)
(0.134486 0 -0.0104364)
(0.133791 0 -0.0107217)
(0.132197 0 -0.0109157)
(0.129824 0 -0.011007)
(0.126791 0 -0.0109816)
(0.123211 0 -0.0108227)
(0.119214 0 -0.010512)
(0.114958 0 -0.0100318)
(0.110623 0 -0.00936619)
(0.106412 0 -0.00849697)
(0.10255 0 -0.00740376)
(0.0994285 0 -0.00610005)
(0.097462 0 -0.00459969)
(0.0972703 0 -0.00297733)
(0.0999175 0 -0.00145755)
(0.106321 0 -0.000339635)
(0.118805 0 -0.000549886)
(0.139476 0 -0.00385427)
(0.0133257 0 -0.000907711)
(0.0380101 0 -0.00259359)
(0.0589885 0 -0.00406116)
(0.0766411 0 -0.0053531)
(0.0913931 0 -0.00650597)
(0.10358 0 -0.00754413)
(0.113498 0 -0.00848516)
(0.121407 0 -0.00934084)
(0.127532 0 -0.0101184)
(0.132072 0 -0.010821)
(0.135203 0 -0.0114486)
(0.13709 0 -0.0119999)
(0.137879 0 -0.0124705)
(0.137704 0 -0.0128529)
(0.136698 0 -0.0131386)
(0.134994 0 -0.0133178)
(0.132724 0 -0.0133779)
(0.130027 0 -0.0133064)
(0.127038 0 -0.0130824)
(0.123931 0 -0.0126927)
(0.120943 0 -0.0121376)
(0.118308 0 -0.0114073)
(0.116314 0 -0.0105017)
(0.115383 0 -0.00945496)
(0.116088 0 -0.00834726)
(0.119078 0 -0.00729879)
(0.125424 0 -0.00661217)
(0.136712 0 -0.00687817)
(0.154545 0 -0.00904216)
(0.181363 0 -0.0151563)
(0.0134351 0 -0.00104517)
(0.0383257 0 -0.00298647)
(0.0595121 0 -0.00467708)
(0.0773845 0 -0.00616881)
(0.0923624 0 -0.00750213)
(0.104793 0 -0.00870577)
(0.114979 0 -0.0098002)
(0.123182 0 -0.0107996)
(0.129636 0 -0.0117133)
(0.134544 0 -0.0125461)
(0.138088 0 -0.0132996)
(0.140444 0 -0.0139761)
(0.141755 0 -0.0145653)
(0.142168 0 -0.015064)
(0.141825 0 -0.0154647)
(0.140877 0 -0.0157618)
(0.139465 0 -0.0159442)
(0.137738 0 -0.0159998)
(0.135887 0 -0.0159258)
(0.134101 0 -0.0157132)
(0.132611 0 -0.015361)
(0.131725 0 -0.0148861)
(0.131792 0 -0.0143155)
(0.133283 0 -0.0137147)
(0.136829 0 -0.0132082)
(0.143296 0 -0.0130298)
(0.153702 0 -0.0135427)
(0.169831 0 -0.0155194)
(0.193239 0 -0.0200602)
(0.225702 0 -0.0291361)
(0.0135563 0 -0.00118105)
(0.0386806 0 -0.00337565)
(0.0601014 0 -0.00529029)
(0.0782168 0 -0.00698209)
(0.0934483 0 -0.00849712)
(0.106152 0 -0.00986836)
(0.116635 0 -0.0111194)
(0.125168 0 -0.0122668)
(0.131989 0 -0.0133227)
(0.137305 0 -0.0142933)
(0.141306 0 -0.0151815)
(0.144168 0 -0.0159882)
(0.146053 0 -0.0167114)
(0.147115 0 -0.0173466)
(0.1475 0 -0.0178868)
(0.147385 0 -0.0183353)
(0.146924 0 -0.018683)
(0.146289 0 -0.0189261)
(0.145673 0 -0.0190618)
(0.145323 0 -0.0191016)
(0.145456 0 -0.019045)
(0.146469 0 -0.0189447)
(0.148746 0 -0.0188508)
(0.152814 0 -0.0188668)
(0.159428 0 -0.0191906)
(0.16943 0 -0.0200973)
(0.184225 0 -0.022146)
(0.205166 0 -0.0260979)
(0.234273 0 -0.0333192)
(0.271698 0 -0.0452851)
(0.0136887 0 -0.00131514)
(0.0390706 0 -0.00376032)
(0.0607476 0 -0.00589682)
(0.0791271 0 -0.00778771)
(0.0946359 0 -0.00948457)
(0.107638 0 -0.0110247)
(0.118446 0 -0.0124346)
(0.127338 0 -0.0137336)
(0.134558 0 -0.0149375)
(0.140318 0 -0.0160534)
(0.144814 0 -0.0170861)
(0.148225 0 -0.0180362)
(0.150735 0 -0.0189105)
(0.152503 0 -0.0197049)
(0.153694 0 -0.0204187)
(0.154478 0 -0.0210517)
(0.155032 0 -0.0216029)
(0.155565 0 -0.0220816)
(0.156257 0 -0.0224832)
(0.15741 0 -0.0228423)
(0.159301 0 -0.023183)
(0.162322 0 -0.0235678)
(0.166937 0 -0.0240898)
(0.173736 0 -0.0248937)
(0.183505 0 -0.0262249)
(0.197305 0 -0.0284775)
(0.216409 0 -0.0322435)
(0.242359 0 -0.0384413)
(0.277065 0 -0.048492)
(0.318676 0 -0.0631079)
(0.0138309 0 -0.00144719)
(0.0394913 0 -0.00413964)
(0.0614442 0 -0.00649562)
(0.0801074 0 -0.00858439)
(0.0959152 0 -0.0104631)
(0.109238 0 -0.0121732)
(0.120396 0 -0.0137447)
(0.129672 0 -0.0151984)
(0.137322 0 -0.0165562)
(0.143559 0 -0.0178255)
(0.148585 0 -0.0190134)
(0.152598 0 -0.0201275)
(0.155777 0 -0.0211702)
(0.158294 0 -0.0221442)
(0.160335 0 -0.0230555)
(0.162066 0 -0.023902)
(0.16368 0 -0.0246908)
(0.165423 0 -0.0254462)
(0.167517 0 -0.0261819)
(0.170243 0 -0.0269302)
(0.173945 0 -0.0277467)
(0.179049 0 -0.028719)
(0.18607 0 -0.0299729)
(0.195685 0 -0.0317107)
(0.208718 0 -0.0342226)
(0.226355 0 -0.0379954)
(0.249816 0 -0.0436674)
(0.280962 0 -0.0523301)
(0.32099 0 -0.0652143)
(0.366016 0 -0.0821448)
(0.0139817 0 -0.00157689)
(0.0399386 0 -0.00451277)
(0.062185 0 -0.00708551)
(0.0811497 0 -0.00937066)
(0.0972759 0 -0.0114309)
(0.110941 0 -0.0133122)
(0.122468 0 -0.0150478)
(0.132162 0 -0.0166655)
(0.140272 0 -0.018184)
(0.147013 0 -0.0196143)
(0.152602 0 -0.0209681)
(0.157248 0 -0.0222581)
(0.161121 0 -0.0234823)
(0.164418 0 -0.0246528)
(0.16732 0 -0.0257751)
(0.17004 0 -0.0268658)
(0.172781 0 -0.027938)
(0.175778 0 -0.0290144)
(0.179308 0 -0.0301332)
(0.183632 0 -0.0313283)
(0.189181 0 -0.032694)
(0.196393 0 -0.0343363)
(0.205841 0 -0.0364223)
(0.218261 0 -0.0391987)
(0.234591 0 -0.0430306)
(0.255981 0 -0.0484381)
(0.284003 0 -0.0562296)
(0.320395 0 -0.0675033)
(0.365303 0 -0.0830954)
(0.413046 0 -0.101979)
(0.0141412 0 -0.00170465)
(0.0404113 0 -0.00488069)
(0.0629677 0 -0.00766804)
(0.0822509 0 -0.0101485)
(0.0987136 0 -0.0123905)
(0.112742 0 -0.0144444)
(0.124667 0 -0.0163479)
(0.134797 0 -0.0181329)
(0.14338 0 -0.0198158)
(0.150646 0 -0.0214134)
(0.156816 0 -0.0229397)
(0.162103 0 -0.0244098)
(0.166691 0 -0.0258275)
(0.170795 0 -0.0272135)
(0.17461 0 -0.028579)
(0.178344 0 -0.0299409)
(0.182227 0 -0.0313242)
(0.186479 0 -0.0327521)
(0.191432 0 -0.034288)
(0.197393 0 -0.0359904)
(0.204783 0 -0.037962)
(0.214075 0 -0.0403379)
(0.225898 0 -0.0433224)
(0.241094 0 -0.0472293)
(0.260579 0 -0.0524484)
(0.285739 0 -0.0596245)
(0.318303 0 -0.0696673)
(0.359658 0 -0.0835703)
(0.409051 0 -0.101753)
(0.458943 0 -0.122295)
(0.014308 0 -0.00183005)
(0.040905 0 -0.00524225)
(0.063785 0 -0.00824142)
(0.0834004 0 -0.0109156)
(0.100215 0 -0.0133386)
(0.114621 0 -0.0155658)
(0.126958 0 -0.0176377)
(0.137531 0 -0.0195872)
(0.146603 0 -0.0214382)
(0.154409 0 -0.0232085)
(0.161173 0 -0.0249136)
(0.167123 0 -0.0265761)
(0.17246 0 -0.0282078)
(0.177391 0 -0.029826)
(0.182128 0 -0.0314513)
(0.186872 0 -0.0331006)
(0.191867 0 -0.0348082)
(0.197405 0 -0.0366285)
(0.203774 0 -0.0386169)
(0.211329 0 -0.0408577)
(0.220508 0 -0.0434735)
(0.231809 0 -0.0466227)
(0.245953 0 -0.0505662)
(0.263703 0 -0.0556144)
(0.286177 0 -0.0622674)
(0.314886 0 -0.0712553)
(0.351368 0 -0.0834579)
(0.396873 0 -0.099835)
(0.449864 0 -0.120377)
(0.501678 0 -0.142552)
(0.0144788 0 -0.00195195)
(0.0414122 0 -0.00559441)
(0.0646257 0 -0.00880097)
(0.0845829 0 -0.0116656)
(0.10176 0 -0.0142677)
(0.116557 0 -0.0166676)
(0.129313 0 -0.0189081)
(0.140341 0 -0.0210238)
(0.149917 0 -0.0230467)
(0.158274 0 -0.0249949)
(0.165657 0 -0.0268919)
(0.172288 0 -0.0287577)
(0.178378 0 -0.0306117)
(0.184127 0 -0.0324695)
(0.189755 0 -0.0343569)
(0.195505 0 -0.0363109)
(0.20163 0 -0.0383732)
(0.208426 0 -0.0406051)
(0.216157 0 -0.0430616)
(0.225248 0 -0.045863)
(0.236132 0 -0.0491426)
(0.249338 0 -0.0530874)
(0.265569 0 -0.0579736)
(0.285626 0 -0.0641534)
(0.31076 0 -0.0722112)
(0.342208 0 -0.0828205)
(0.381385 0 -0.0968719)
(0.429253 0 -0.115272)
(0.483324 0 -0.137559)
(0.536944 0 -0.161736)
(0.0129876 0 -0.00433258)
(0.0315896 0 -0.00579553)
(0.0756832 0 -0.00779228)
(0.147102 0 -0.0100195)
(0.225215 0 -0.011422)
(0.288397 0 -0.0119448)
(0.332771 0 -0.0118609)
(0.362856 0 -0.0115756)
(0.383083 0 -0.0111021)
(0.396365 0 -0.010531)
(0.404494 0 -0.0099012)
(0.408615 0 -0.00921165)
(0.409458 0 -0.008559)
(0.407444 0 -0.00793336)
(0.402811 0 -0.00733852)
(0.395692 0 -0.0067754)
(0.386151 0 -0.00624295)
(0.374205 0 -0.00573877)
(0.35984 0 -0.0052596)
(0.343019 0 -0.00480161)
(0.323685 0 -0.00436061)
(0.301773 0 -0.0039321)
(0.277207 0 -0.00351132)
(0.249905 0 -0.00309319)
(0.219782 0 -0.0026723)
(0.186749 0 -0.00224269)
(0.15072 0 -0.0017978)
(0.111606 0 -0.00133013)
(0.0693417 0 -0.000831189)
(0.023683 0 -0.000288524)
(0.021549 0 -0.0133524)
(0.0421486 0 -0.0176584)
(0.0874552 0 -0.0235112)
(0.157846 0 -0.0296628)
(0.233171 0 -0.0336055)
(0.293814 0 -0.0350675)
(0.336562 0 -0.0349205)
(0.365624 0 -0.0339868)
(0.385159 0 -0.0326)
(0.397962 0 -0.0309301)
(0.405746 0 -0.0290873)
(0.409619 0 -0.0271318)
(0.410281 0 -0.02524)
(0.408124 0 -0.0234209)
(0.403377 0 -0.0216871)
(0.396166 0 -0.0200421)
(0.38655 0 -0.0184835)
(0.374542 0 -0.0170046)
(0.360126 0 -0.0155963)
(0.343262 0 -0.0142478)
(0.323893 0 -0.012947)
(0.301951 0 -0.0116811)
(0.27736 0 -0.010436)
(0.250037 0 -0.00919709)
(0.219896 0 -0.00794843)
(0.186848 0 -0.00667259)
(0.150803 0 -0.00535015)
(0.111673 0 -0.00395901)
(0.0693889 0 -0.00247413)
(0.023703 0 -0.000858789)
(0.0377817 0 -0.0231639)
(0.0619597 0 -0.0302345)
(0.109176 0 -0.0395836)
(0.177652 0 -0.0488428)
(0.248111 0 -0.0546455)
(0.30421 0 -0.0567624)
(0.343907 0 -0.0565849)
(0.370996 0 -0.055037)
(0.389216 0 -0.0527962)
(0.401082 0 -0.0500946)
(0.408187 0 -0.0470979)
(0.411578 0 -0.044037)
(0.411877 0 -0.041033)
(0.409438 0 -0.0381331)
(0.404466 0 -0.0353602)
(0.397074 0 -0.0327215)
(0.387309 0 -0.0302139)
(0.37518 0 -0.0278278)
(0.360663 0 -0.0255495)
(0.343716 0 -0.0233621)
(0.324278 0 -0.021247)
(0.302279 0 -0.0191836)
(0.27764 0 -0.0171499)
(0.250277 0 -0.0151223)
(0.220102 0 -0.0130753)
(0.187023 0 -0.0109806)
(0.15095 0 -0.00880683)
(0.11179 0 -0.00651801)
(0.0694712 0 -0.00407355)
(0.0237369 0 -0.00141374)
(0.0609522 0 -0.0343054)
(0.0893361 0 -0.0439801)
(0.138677 0 -0.0563362)
(0.204378 0 -0.0678838)
(0.268514 0 -0.0748007)
(0.318761 0 -0.0771839)
(0.354376 0 -0.0768063)
(0.378731 0 -0.0747143)
(0.395067 0 -0.0716622)
(0.405581 0 -0.0679748)
(0.411728 0 -0.0639546)
(0.414424 0 -0.0598924)
(0.414193 0 -0.0558941)
(0.411339 0 -0.0520231)
(0.406037 0 -0.0483106)
(0.398377 0 -0.044767)
(0.388395 0 -0.0413893)
(0.376087 0 -0.0381656)
(0.361423 0 -0.0350785)
(0.344353 0 -0.0321064)
(0.324814 0 -0.0292247)
(0.302732 0 -0.0264064)
(0.278024 0 -0.0236225)
(0.250603 0 -0.0208411)
(0.220378 0 -0.0180279)
(0.187256 0 -0.0151449)
(0.151142 0 -0.0121494)
(0.111941 0 -0.00899275)
(0.0695747 0 -0.00561987)
(0.0237782 0 -0.00194976)
(0.09003 0 -0.0470728)
(0.122783 0 -0.0592172)
(0.173956 0 -0.0740187)
(0.235877 0 -0.0868398)
(0.292832 0 -0.0941366)
(0.33652 0 -0.0964295)
(0.367356 0 -0.0955968)
(0.388405 0 -0.0928803)
(0.402415 0 -0.089034)
(0.41127 0 -0.0844612)
(0.416239 0 -0.0795819)
(0.418055 0 -0.0746407)
(0.417146 0 -0.0697674)
(0.413758 0 -0.0650366)
(0.40803 0 -0.0604865)
(0.400025 0 -0.0561299)
(0.389761 0 -0.0519639)
(0.377222 0 -0.0479752)
(0.362368 0 -0.0441436)
(0.345142 0 -0.0404437)
(0.325473 0 -0.0368461)
(0.303282 0 -0.0333185)
(0.278485 0 -0.0298252)
(0.25099 0 -0.0263277)
(0.220703 0 -0.0227835)
(0.187527 0 -0.0191457)
(0.151364 0 -0.0153615)
(0.112113 0 -0.0113706)
(0.0696903 0 -0.00710479)
(0.0238232 0 -0.0024638)
(0.124026 0 -0.0615727)
(0.160924 0 -0.0759771)
(0.213191 0 -0.0925458)
(0.270331 0 -0.105678)
(0.319625 0 -0.112625)
(0.356459 0 -0.114466)
(0.382163 0 -0.113003)
(0.399565 0 -0.109578)
(0.410943 0 -0.104918)
(0.41794 0 -0.0995846)
(0.421552 0 -0.0939481)
(0.422341 0 -0.0882454)
(0.420632 0 -0.082614)
(0.416612 0 -0.0771345)
(0.410375 0 -0.0718493)
(0.401958 0 -0.0667727)
(0.391358 0 -0.0619017)
(0.378543 0 -0.0572224)
(0.36346 0 -0.0527124)
(0.346046 0 -0.0483436)
(0.326221 0 -0.0440829)
(0.303903 0 -0.0398933)
(0.279 0 -0.035734)
(0.251417 0 -0.0315601)
(0.221057 0 -0.0273224)
(0.187818 0 -0.0229659)
(0.151599 0 -0.0184289)
(0.112293 0 -0.0136407)
(0.0698099 0 -0.0085213)
(0.0238688 0 -0.00295331)
(0.162017 0 -0.0777344)
(0.202557 0 -0.0940993)
(0.254841 0 -0.11166)
(0.306177 0 -0.124175)
(0.347608 0 -0.130151)
(0.377561 0 -0.131143)
(0.398072 0 -0.128932)
(0.411655 0 -0.124732)
(0.420296 0 -0.119329)
(0.425331 0 -0.113321)
(0.427475 0 -0.107033)
(0.427131 0 -0.100684)
(0.424533 0 -0.0944099)
(0.419802 0 -0.0882908)
(0.412992 0 -0.0823728)
(0.40411 0 -0.0766689)
(0.393128 0 -0.0711764)
(0.379998 0 -0.0658811)
(0.364657 0 -0.0607596)
(0.347028 0 -0.0557819)
(0.327027 0 -0.050912)
(0.304564 0 -0.0461092)
(0.279541 0 -0.0413286)
(0.25186 0 -0.0365199)
(0.221419 0 -0.0316281)
(0.188112 0 -0.0265913)
(0.151833 0 -0.0213399)
(0.112471 0 -0.0157941)
(0.069927 0 -0.00986359)
(0.0239128 0 -0.00341619)
(0.203183 0 -0.0953771)
(0.246663 0 -0.113308)
(0.297461 0 -0.13092)
(0.342142 0 -0.142033)
(0.375698 0 -0.146534)
(0.398943 0 -0.146381)
(0.414325 0 -0.143246)
(0.42416 0 -0.138265)
(0.43013 0 -0.13224)
(0.433178 0 -0.12566)
(0.4338 0 -0.118831)
(0.432265 0 -0.11195)
(0.428719 0 -0.105144)
(0.423224 0 -0.0984918)
(0.415796 0 -0.0920421)
(0.406408 0 -0.0858022)
(0.395011 0 -0.0797703)
(0.381538 0 -0.073933)
(0.365913 0 -0.0682667)
(0.34805 0 -0.0627401)
(0.327857 0 -0.0573154)
(0.305235 0 -0.0519492)
(0.280083 0 -0.0465929)
(0.252296 0 -0.0411923)
(0.221769 0 -0.0356872)
(0.188391 0 -0.0300101)
(0.152053 0 -0.0240848)
(0.112639 0 -0.0178237)
(0.0700366 0 -0.0111271)
(0.023953 0 -0.00385079)
(0.246831 0 -0.114267)
(0.292385 0 -0.133276)
(0.339917 0 -0.149883)
(0.377211 0 -0.158917)
(0.402969 0 -0.161555)
(0.419811 0 -0.160052)
(0.43034 0 -0.155915)
(0.436698 0 -0.150231)
(0.440115 0 -0.143661)
(0.441215 0 -0.136611)
(0.440318 0 -0.129351)
(0.437575 0 -0.122049)
(0.433055 0 -0.11482)
(0.426767 0 -0.107735)
(0.418697 0 -0.100856)
(0.40878 0 -0.0941676)
(0.396944 0 -0.0876758)
(0.383109 0 -0.0813686)
(0.367184 0 -0.0752229)
(0.349074 0 -0.0692068)
(0.328677 0 -0.0632813)
(0.305888 0 -0.0574013)
(0.2806 0 -0.0515155)
(0.252704 0 -0.0455664)
(0.222088 0 -0.0394898)
(0.18864 0 -0.0332136)
(0.152246 0 -0.0266562)
(0.11279 0 -0.0197248)
(0.0701349 0 -0.0123082)
(0.0239872 0 -0.00425571)
(0.292437 0 -0.134167)
(0.338986 0 -0.153634)
(0.381385 0 -0.168176)
(0.410461 0 -0.174464)
(0.42866 0 -0.175007)
(0.439472 0 -0.172004)
(0.445672 0 -0.16693)
(0.448895 0 -0.160626)
(0.449944 0 -0.153607)
(0.449192 0 -0.146192)
(0.446827 0 -0.138616)
(0.442897 0 -0.131003)
(0.437408 0 -0.123453)
(0.430319 0 -0.116026)
(0.421586 0 -0.108779)
(0.411133 0 -0.101726)
(0.398851 0 -0.0948507)
(0.384645 0 -0.0881447)
(0.368413 0 -0.0815853)
(0.350049 0 -0.0751403)
(0.329443 0 -0.0687702)
(0.306484 0 -0.0624285)
(0.281058 0 -0.0560622)
(0.253052 0 -0.0496114)
(0.222349 0 -0.0430087)
(0.188834 0 -0.0361785)
(0.152391 0 -0.0290354)
(0.11292 0 -0.0214861)
(0.0702318 0 -0.0134062)
(0.0240157 0 -0.00463038)
(0.339649 0 -0.154872)
(0.385578 0 -0.173883)
(0.420568 0 -0.185142)
(0.440883 0 -0.188217)
(0.451869 0 -0.186533)
(0.457454 0 -0.182154)
(0.459969 0 -0.176266)
(0.460434 0 -0.169454)
(0.459345 0 -0.162105)
(0.456876 0 -0.154432)
(0.453109 0 -0.146621)
(0.448043 0 -0.138795)
(0.441622 0 -0.13102)
(0.433767 0 -0.123354)
(0.424388 0 -0.115825)
(0.413395 0 -0.108476)
(0.400667 0 -0.10129)
(0.386092 0 -0.094255)
(0.369553 0 -0.0873463)
(0.350935 0 -0.0805323)
(0.330121 0 -0.0737732)
(0.306992 0 -0.067022)
(0.281431 0 -0.0602246)
(0.253317 0 -0.0533193)
(0.222531 0 -0.0462367)
(0.188953 0 -0.0388983)
(0.15246 0 -0.0312153)
(0.112928 0 -0.0230867)
(0.0702201 0 -0.0143969)
(0.0240182 0 -0.00496949)
(0.388198 0 -0.176182)
(0.430709 0 -0.193206)
(0.455779 0 -0.199905)
(0.467304 0 -0.199597)
(0.4721 0 -0.195893)
(0.473522 0 -0.190418)
(0.472969 0 -0.183905)
(0.471046 0 -0.176726)
(0.468034 0 -0.169148)
(0.464022 0 -0.16134)
(0.458977 0 -0.1534)
(0.452859 0 -0.145447)
(0.445567 0 -0.137538)
(0.436988 0 -0.129719)
(0.427006 0 -0.122018)
(0.4155 0 -0.114459)
(0.402342 0 -0.107037)
(0.387408 0 -0.0997382)
(0.37057 0 -0.0925411)
(0.351704 0 -0.0854142)
(0.330686 0 -0.0783182)
(0.307393 0 -0.0712063)
(0.281701 0 -0.0640239)
(0.253486 0 -0.0567086)
(0.222625 0 -0.0491897)
(0.188992 0 -0.0413867)
(0.152461 0 -0.0332086)
(0.112901 0 -0.0245514)
(0.0701858 0 -0.0152989)
(0.024002 0 -0.00527519)
(0.43742 0 -0.197645)
(0.471929 0 -0.210251)
(0.4853 0 -0.211533)
(0.489396 0 -0.208278)
(0.489443 0 -0.203016)
(0.487477 0 -0.196712)
(0.48436 0 -0.189788)
(0.480428 0 -0.182435)
(0.475775 0 -0.174777)
(0.470421 0 -0.166939)
(0.464275 0 -0.158997)
(0.457228 0 -0.151026)
(0.449152 0 -0.143078)
(0.43991 0 -0.135191)
(0.429366 0 -0.127392)
(0.417382 0 -0.119697)
(0.40382 0 -0.112106)
(0.388544 0 -0.104606)
(0.371421 0 -0.0971783)
(0.352319 0 -0.0897919)
(0.331109 0 -0.082409)
(0.307661 0 -0.0749836)
(0.281847 0 -0.0674613)
(0.253541 0 -0.0597798)
(0.222614 0 -0.0518676)
(0.188939 0 -0.0436436)
(0.152386 0 -0.0350154)
(0.112821 0 -0.0258781)
(0.0701213 0 -0.0161155)
(0.0239756 0 -0.00555109)
(0.484845 0 -0.21773)
(0.505599 0 -0.22298)
(0.509004 0 -0.219495)
(0.507367 0 -0.213959)
(0.503674 0 -0.207677)
(0.499031 0 -0.200966)
(0.493879 0 -0.193921)
(0.488344 0 -0.186595)
(0.482397 0 -0.179038)
(0.475954 0 -0.171314)
(0.468883 0 -0.163479)
(0.461042 0 -0.155589)
(0.452282 0 -0.147687)
(0.442452 0 -0.13981)
(0.431401 0 -0.131983)
(0.418982 0 -0.124219)
(0.405048 0 -0.116519)
(0.389457 0 -0.108877)
(0.37207 0 -0.101271)
(0.352749 0 -0.0936756)
(0.331361 0 -0.0860534)
(0.307771 0 -0.0783596)
(0.28185 0 -0.0705412)
(0.253465 0 -0.0625361)
(0.222487 0 -0.0542731)
(0.188785 0 -0.0456711)
(0.152227 0 -0.0366377)
(0.112679 0 -0.0270678)
(0.0700186 0 -0.0168466)
(0.0239355 0 -0.00579704)
(0.523237 0 -0.23218)
(0.531821 0 -0.229871)
(0.526926 0 -0.222683)
(0.520885 0 -0.216139)
(0.514455 0 -0.209719)
(0.507947 0 -0.203165)
(0.50139 0 -0.196373)
(0.494714 0 -0.18932)
(0.487802 0 -0.182031)
(0.48052 0 -0.174548)
(0.47271 0 -0.166921)
(0.464216 0 -0.159197)
(0.454882 0 -0.15142)
(0.444546 0 -0.143622)
(0.433053 0 -0.135828)
(0.420249 0 -0.128054)
(0.405983 0 -0.120303)
(0.390109 0 -0.112569)
(0.372484 0 -0.104836)
(0.352966 0 -0.0970781)
(0.331418 0 -0.0892613)
(0.307704 0 -0.0813425)
(0.28169 0 -0.0732698)
(0.253243 0 -0.0649825)
(0.222231 0 -0.0564103)
(0.18852 0 -0.0474727)
(0.151978 0 -0.0380781)
(0.112469 0 -0.0281226)
(0.0698726 0 -0.017493)
(0.0238795 0 -0.00601336)
(0.0146555 0 -0.00207222)
(0.0419381 0 -0.00594255)
(0.0654986 0 -0.00935547)
(0.0858109 0 -0.0124104)
(0.103365 0 -0.0151922)
(0.118572 0 -0.0177673)
(0.131763 0 -0.0201796)
(0.143273 0 -0.0224716)
(0.153376 0 -0.0246734)
(0.162308 0 -0.0268083)
(0.170324 0 -0.0289045)
(0.177638 0 -0.0309799)
(0.184468 0 -0.0330576)
(0.191045 0 -0.0351687)
(0.197597 0 -0.0373442)
(0.204354 0 -0.0396203)
(0.211583 0 -0.0420493)
(0.219577 0 -0.0446982)
(0.228659 0 -0.047652)
(0.239216 0 -0.0510272)
(0.251689 0 -0.0549748)
(0.266625 0 -0.0597049)
(0.284679 0 -0.0654977)
(0.306774 0 -0.0727795)
(0.33383 0 -0.0820456)
(0.366903 0 -0.0939508)
(0.407122 0 -0.109363)
(0.454367 0 -0.12896)
(0.50484 0 -0.152526)
(0.54988 0 -0.179278)
(0.0148384 0 -0.00219152)
(0.0424851 0 -0.00628876)
(0.066409 0 -0.00990831)
(0.0870907 0 -0.0131549)
(0.105048 0 -0.0161225)
(0.120688 0 -0.0188778)
(0.134345 0 -0.0214688)
(0.146357 0 -0.0239431)
(0.156994 0 -0.0263279)
(0.166515 0 -0.0286552)
(0.175161 0 -0.0309514)
(0.183174 0 -0.0332468)
(0.19078 0 -0.0355697)
(0.198201 0 -0.0379496)
(0.205675 0 -0.0404264)
(0.213411 0 -0.0430317)
(0.221722 0 -0.0458412)
(0.230881 0 -0.0489207)
(0.241243 0 -0.052377)
(0.253159 0 -0.0563241)
(0.267067 0 -0.0609248)
(0.283482 0 -0.0663941)
(0.303111 0 -0.0730526)
(0.326596 0 -0.0812451)
(0.35467 0 -0.0914238)
(0.388151 0 -0.104192)
(0.427267 0 -0.120093)
(0.470533 0 -0.139203)
(0.512842 0 -0.160199)
(0.545807 0 -0.179732)
(0.0150275 0 -0.00230915)
(0.0430503 0 -0.00663061)
(0.0673522 0 -0.0104556)
(0.0884327 0 -0.013896)
(0.106806 0 -0.0170505)
(0.122878 0 -0.019985)
(0.137007 0 -0.0227553)
(0.149522 0 -0.0254095)
(0.160703 0 -0.0279803)
(0.170819 0 -0.0305052)
(0.180123 0 -0.0330152)
(0.188848 0 -0.0355406)
(0.197225 0 -0.0381151)
(0.20546 0 -0.0407637)
(0.213814 0 -0.0435402)
(0.222524 0 -0.0464903)
(0.231869 0 -0.0496831)
(0.242134 0 -0.0531967)
(0.253639 0 -0.0571316)
(0.266759 0 -0.0616244)
(0.281868 0 -0.066824)
(0.299521 0 -0.0729762)
(0.320183 0 -0.0803256)
(0.344355 0 -0.0891791)
(0.372605 0 -0.0999441)
(0.40514 0 -0.112981)
(0.441313 0 -0.128424)
(0.478729 0 -0.145754)
(0.512572 0 -0.163262)
(0.537937 0 -0.178906)
(0.0152207 0 -0.00242418)
(0.0436273 0 -0.00696552)
(0.0683158 0 -0.0109929)
(0.0898018 0 -0.0146245)
(0.108596 0 -0.0179617)
(0.12511 0 -0.0210753)
(0.139716 0 -0.0240245)
(0.152743 0 -0.0268616)
(0.16449 0 -0.0296268)
(0.17522 0 -0.0323564)
(0.185175 0 -0.035083)
(0.194586 0 -0.0378351)
(0.2037 0 -0.0406561)
(0.212745 0 -0.0435831)
(0.221962 0 -0.0466654)
(0.231582 0 -0.0499529)
(0.241888 0 -0.0535209)
(0.253152 0 -0.0574501)
(0.265673 0 -0.0618412)
(0.279779 0 -0.0668206)
(0.295869 0 -0.07256)
(0.314313 0 -0.0792438)
(0.335468 0 -0.087085)
(0.359733 0 -0.0963598)
(0.387269 0 -0.107308)
(0.417763 0 -0.120047)
(0.44994 0 -0.134333)
(0.481282 0 -0.14937)
(0.508468 0 -0.16385)
(0.528783 0 -0.17666)
(0.0154136 0 -0.00253484)
(0.0442062 0 -0.00728876)
(0.0692834 0 -0.0115128)
(0.0911786 0 -0.015331)
(0.110406 0 -0.0188495)
(0.127367 0 -0.0221406)
(0.142464 0 -0.0252727)
(0.156026 0 -0.0282976)
(0.168336 0 -0.0312574)
(0.179657 0 -0.034187)
(0.190233 0 -0.037122)
(0.200335 0 -0.0401086)
(0.210177 0 -0.0431803)
(0.219989 0 -0.0463798)
(0.230002 0 -0.049756)
(0.240468 0 -0.0533714)
(0.251637 0 -0.0572942)
(0.263765 0 -0.0616056)
(0.277132 0 -0.0664064)
(0.292023 0 -0.0718134)
(0.308744 0 -0.0779707)
(0.327563 0 -0.0850286)
(0.348777 0 -0.0931822)
(0.372513 0 -0.102594)
(0.398611 0 -0.113353)
(0.426314 0 -0.125325)
(0.454219 0 -0.138102)
(0.480351 0 -0.150976)
(0.502635 0 -0.1631)
(0.51947 0 -0.173767)
(0.0156043 0 -0.00264012)
(0.0447822 0 -0.00759762)
(0.0702449 0 -0.0120106)
(0.0925577 0 -0.0160127)
(0.11223 0 -0.0197109)
(0.129658 0 -0.0231801)
(0.145245 0 -0.0264924)
(0.159318 0 -0.0296983)
(0.172169 0 -0.0328438)
(0.184071 0 -0.0359719)
(0.195281 0 -0.0391232)
(0.206051 0 -0.0423413)
(0.216562 0 -0.0456501)
(0.227089 0 -0.0491119)
(0.237844 0 -0.0527718)
(0.249067 0 -0.0566934)
(0.260978 0 -0.0609387)
(0.273817 0 -0.0655874)
(0.287825 0 -0.0707311)
(0.303256 0 -0.0764802)
(0.32028 0 -0.0829293)
(0.339149 0 -0.0902262)
(0.359967 0 -0.0984833)
(0.382659 0 -0.107768)
(0.406769 0 -0.118011)
(0.431413 0 -0.128962)
(0.455422 0 -0.140231)
(0.477387 0 -0.151276)
(0.496028 0 -0.161554)
(0.510357 0 -0.170572)
(0.0157937 0 -0.00273977)
(0.0453563 0 -0.00789102)
(0.0712231 0 -0.0124883)
(0.0939512 0 -0.0166674)
(0.114051 0 -0.0205367)
(0.131935 0 -0.0241773)
(0.147998 0 -0.0276603)
(0.162572 0 -0.0310427)
(0.175968 0 -0.0343756)
(0.188451 0 -0.0377021)
(0.200261 0 -0.0410606)
(0.211634 0 -0.0444916)
(0.222795 0 -0.0480363)
(0.233981 0 -0.0517466)
(0.2454 0 -0.0556705)
(0.257266 0 -0.0598645)
(0.269786 0 -0.0643914)
(0.283159 0 -0.0693183)
(0.297643 0 -0.0747469)
(0.313329 0 -0.0807276)
(0.330394 0 -0.087359)
(0.348967 0 -0.0947364)
(0.369002 0 -0.102903)
(0.39026 0 -0.111838)
(0.412136 0 -0.121368)
(0.433852 0 -0.131242)
(0.454529 0 -0.141143)
(0.473216 0 -0.150686)
(0.489086 0 -0.159496)
(0.501516 0 -0.167222)
(0.0159786 0 -0.00283238)
(0.0459173 0 -0.00816459)
(0.0721744 0 -0.0129341)
(0.0953076 0 -0.0172787)
(0.115836 0 -0.0213123)
(0.134165 0 -0.0251162)
(0.150706 0 -0.0287678)
(0.165792 0 -0.0323251)
(0.179713 0 -0.035838)
(0.192731 0 -0.0393491)
(0.205104 0 -0.0429038)
(0.217061 0 -0.0465426)
(0.228804 0 -0.0503034)
(0.240577 0 -0.0542416)
(0.252567 0 -0.0584009)
(0.264966 0 -0.0628326)
(0.277947 0 -0.0675896)
(0.291725 0 -0.072748)
(0.306447 0 -0.0783695)
(0.322157 0 -0.0844852)
(0.339008 0 -0.091182)
(0.356994 0 -0.0984957)
(0.375969 0 -0.106415)
(0.395547 0 -0.114833)
(0.415179 0 -0.123569)
(0.434287 0 -0.132426)
(0.452212 0 -0.141149)
(0.468299 0 -0.149456)
(0.482006 0 -0.157082)
(0.492923 0 -0.163771)
(0.0161536 0 -0.00291574)
(0.0464534 0 -0.00841266)
(0.0730818 0 -0.0133396)
(0.096618 0 -0.0178407)
(0.117579 0 -0.0220313)
(0.136361 0 -0.0259938)
(0.153364 0 -0.0298048)
(0.168914 0 -0.0335209)
(0.18334 0 -0.0372042)
(0.196886 0 -0.0408947)
(0.209779 0 -0.0446317)
(0.222246 0 -0.0484551)
(0.234514 0 -0.052413)
(0.246798 0 -0.0565542)
(0.259255 0 -0.0609135)
(0.272074 0 -0.0655431)
(0.28538 0 -0.0704799)
(0.299392 0 -0.0758031)
(0.314152 0 -0.0815331)
(0.329697 0 -0.0876975)
(0.346101 0 -0.0943463)
(0.363279 0 -0.101475)
(0.380971 0 -0.109009)
(0.398806 0 -0.116828)
(0.416385 0 -0.124795)
(0.433243 0 -0.132736)
(0.448896 0 -0.140451)
(0.462896 0 -0.147737)
(0.474881 0 -0.154402)
(0.484548 0 -0.160238)
(0.0163195 0 -0.00298933)
(0.0469648 0 -0.00863318)
(0.0739738 0 -0.0137066)
(0.0978976 0 -0.0183506)
(0.119256 0 -0.0226815)
(0.138471 0 -0.0267895)
(0.155907 0 -0.0307449)
(0.171926 0 -0.0346156)
(0.186832 0 -0.0384577)
(0.200841 0 -0.0423058)
(0.214209 0 -0.0462074)
(0.227147 0 -0.0502008)
(0.239883 0 -0.054336)
(0.252576 0 -0.0586437)
(0.265414 0 -0.0631711)
(0.278513 0 -0.0679457)
(0.292024 0 -0.0730144)
(0.306103 0 -0.078432)
(0.320734 0 -0.0841957)
(0.335928 0 -0.090319)
(0.351702 0 -0.096823)
(0.367881 0 -0.103656)
(0.384208 0 -0.110731)
(0.40041 0 -0.117954)
(0.416157 0 -0.125202)
(0.431088 0 -0.13233)
(0.444845 0 -0.13918)
(0.457146 0 -0.145617)
(0.467719 0 -0.151484)
(0.476341 0 -0.156619)
(0.0164729 0 -0.00305143)
(0.0474375 0 -0.00882051)
(0.074802 0 -0.0140209)
(0.0990896 0 -0.0187894)
(0.12084 0 -0.0232487)
(0.140475 0 -0.0274895)
(0.158341 0 -0.0315797)
(0.174792 0 -0.0355881)
(0.190126 0 -0.0395686)
(0.20458 0 -0.0435625)
(0.21837 0 -0.0476086)