/*--------------------------------*- C++ -*----------------------------------*\
| =========                 |                                                 |
| \\      /  F ield         | OpenFOAM: The Open Source CFD Toolbox           |
|  \\    /   O peration     | Version:  dev                                   |
|   \\  /    A nd           | Web:      www.OpenFOAM.org                      |
|    \\/     M anipulation  |                                                 |
\*---------------------------------------------------------------------------*/
FoamFile
{
    version     2.0;
    format      ascii;
    class       pointVectorField;
    location    "0.68";
    object      pointDisplacement;
}
// * * * * * * * * * * * * * * * * * * * * * * * * * * * * * * * * * * * * * //

dimensions      [0 1 0 0 0 0 0];

internalField   nonuniform List<vector> 
1034
(
(0.0999294 0 0)
(0.103368 0 0)
(0.105846 0 0)
(0.107449 0 0)
(0.108234 0 0)
(0.108237 0 0)
(0.107474 0 0)
(0.105947 0 0)
(0.103646 0 0)
(0.100549 0 0)
(0.0966279 0 0)
(0.0918458 0 0)
(0.0861538 0 0)
(0.0794903 0 0)
(0.0717886 0 0)
(0.0629838 0 0)
(0.0530055 0 0)
(0.0417744 0 0)
(0.0292093 0 0)
(0.0151985 0 0)
(0 0 0)
(0.100435 0 -0.00282791)
(0.103765 0 -0.00251317)
(0.106161 0 -0.00224106)
(0.107699 0 -0.00200669)
(0.108435 0 -0.00180087)
(0.108398 0 -0.0016175)
(0.107604 0 -0.00145449)
(0.106053 0 -0.00131038)
(0.103732 0 -0.00118079)
(0.100618 0 -0.00106272)
(0.0966828 0 -0.000954132)
(0.0918904 0 -0.000852959)
(0.086191 0 -0.000757238)
(0.0795214 0 -0.00066536)
(0.0718132 0 -0.000575863)
(0.0630028 0 -0.000487373)
(0.0530205 0 -0.000398188)
(0.0417855 0 -0.00030663)
(0.0292143 0 -0.000210837)
(0.0151975 0 -0.000108652)
(0 0 0)
(0.101904 0 -0.0054846)
(0.104924 0 -0.00489095)
(0.10708 0 -0.00437314)
(0.108433 0 -0.00392382)
(0.109023 0 -0.00352874)
(0.108872 0 -0.00317769)
(0.107987 0 -0.00286477)
(0.106363 0 -0.0025853)
(0.103983 0 -0.00233273)
(0.100822 0 -0.00210176)
(0.0968484 0 -0.00188776)
(0.092024 0 -0.00168782)
(0.0862982 0 -0.0014993)
(0.0796072 0 -0.00131885)
(0.0718823 0 -0.0011428)
(0.0630582 0 -0.000967707)
(0.0530641 0 -0.000790912)
(0.0418183 0 -0.000609241)
(0.0292332 0 -0.000418988)
(0.0152023 0 -0.000215849)
(0 0 0)
(0.104207 0 -0.00788128)
(0.106753 0 -0.00706382)
(0.10854 0 -0.00634266)
(0.109603 0 -0.00570893)
(0.109964 0 -0.0051494)
(0.109632 0 -0.0046512)
(0.108602 0 -0.00420503)
(0.106862 0 -0.0038031)
(0.104389 0 -0.00343776)
(0.101153 0 -0.00310222)
(0.0971177 0 -0.00279024)
(0.0922412 0 -0.00249764)
(0.0864705 0 -0.00222069)
(0.0797434 0 -0.0019548)
(0.0719921 0 -0.0016949)
(0.0631471 0 -0.00143602)
(0.0531338 0 -0.00117421)
(0.0418712 0 -0.000904873)
(0.0292689 0 -0.00062248)
(0.0152189 0 -0.000320658)
(0 0 0)
(0.107176 0 -0.00998668)
(0.10913 0 -0.00900137)
(0.11045 0 -0.0081243)
(0.111143 0 -0.00734406)
(0.11121 0 -0.00664885)
(0.110642 0 -0.00602564)
(0.109422 0 -0.00546371)
(0.107528 0 -0.0049538)
(0.10493 0 -0.00448743)
(0.101593 0 -0.00405691)
(0.0974761 0 -0.00365539)
(0.0925309 0 -0.00327718)
(0.0867027 0 -0.00291708)
(0.0799285 0 -0.00256967)
(0.0721403 0 -0.00222922)
(0.0632652 0 -0.00188984)
(0.0532256 0 -0.00154606)
(0.0419417 0 -0.00119203)
(0.0293192 0 -0.000820476)
(0.0152445 0 -0.000422811)
(0 0 0)
(0.110624 0 -0.0117908)
(0.111917 0 -0.0106919)
(0.112709 0 -0.00970417)
(0.112978 0 -0.00881562)
(0.112703 0 -0.0080149)
(0.111858 0 -0.00729045)
(0.110413 0 -0.0066318)
(0.108335 0 -0.00602947)
(0.105588 0 -0.00547476)
(0.102129 0 -0.00495969)
(0.0979109 0 -0.00447698)
(0.0928827 0 -0.00402012)
(0.0869854 0 -0.00358292)
(0.0801544 0 -0.00315928)
(0.0723207 0 -0.0027429)
(0.0634081 0 -0.00232685)
(0.0533352 0 -0.00190456)
(0.0420218 0 -0.00146912)
(0.0293732 0 -0.00101177)
(0.0152726 0 -0.000521689)
(0 0 0)
(0.114355 0 -0.0132936)
(0.114971 0 -0.0121354)
(0.11521 0 -0.0110801)
(0.115027 0 -0.0101185)
(0.114381 0 -0.00924147)
(0.113232 0 -0.00843954)
(0.111537 0 -0.00770352)
(0.109255 0 -0.00702469)
(0.106339 0 -0.00639478)
(0.102741 0 -0.00580601)
(0.0984083 0 -0.00525107)
(0.0932853 0 -0.00472306)
(0.0873093 0 -0.00421518)
(0.080413 0 -0.00372091)
(0.0725272 0 -0.00323362)
(0.0635717 0 -0.00274558)
(0.053459 0 -0.00224889)
(0.0421083 0 -0.0017355)
(0.0294284 0 -0.00119562)
(0.0153019 0 -0.000616691)
(0 0 0)
(0.118194 0 -0.0145094)
(0.118155 0 -0.0133392)
(0.117846 0 -0.0122555)
(0.117206 0 -0.0112535)
(0.11618 0 -0.0103273)
(0.114714 0 -0.00947044)
(0.112757 0 -0.00867587)
(0.110256 0 -0.00793621)
(0.107159 0 -0.00724419)
(0.10341 0 -0.00659266)
(0.0989532 0 -0.00597466)
(0.0937268 0 -0.00538333)
(0.0876645 0 -0.00481141)
(0.0806956 0 -0.00425222)
(0.0727494 0 -0.00369915)
(0.0637443 0 -0.00314401)
(0.0535898 0 -0.00257756)
(0.0422022 0 -0.00199027)
(0.0294918 0 -0.00137164)
(0.0153374 0 -0.000707731)
(0 0 0)
(0.121991 0 -0.0154657)
(0.121347 0 -0.0143208)
(0.12052 0 -0.0132414)
(0.119439 0 -0.0122269)
(0.118038 0 -0.0112754)
(0.116257 0 -0.0103842)
(0.114034 0 -0.00954856)
(0.11131 0 -0.0087629)
(0.108025 0 -0.00802134)
(0.104119 0 -0.00731774)
(0.0995299 0 -0.00664581)
(0.0941948 0 -0.00599912)
(0.0880418 0 -0.00537043)
(0.0809944 0 -0.00475257)
(0.0729807 0 -0.00413874)
(0.0639204 0 -0.00352075)
(0.0537231 0 -0.00288866)
(0.0422991 0 -0.00223181)
(0.0295548 0 -0.00153862)
(0.0153689 0 -0.000794025)
(0 0 0)
(0.125614 0 -0.016192)
(0.124436 0 -0.0151006)
(0.123141 0 -0.0140514)
(0.121653 0 -0.0130481)
(0.119899 0 -0.0120922)
(0.117813 0 -0.0111846)
(0.11533 0 -0.0103235)
(0.112384 0 -0.0095054)
(0.108911 0 -0.00872604)
(0.104846 0 -0.00798051)
(0.100122 0 -0.0072634)
(0.0946739 0 -0.00656894)
(0.0884261 0 -0.00589057)
(0.0812992 0 -0.00522059)
(0.073218 0 -0.00455148)
(0.0641016 0 -0.00387516)
(0.0538587 0 -0.00318158)
(0.042396 0 -0.00245947)
(0.0296148 0 -0.00169601)
(0.0153951 0 -0.000875209)
(0 0 0)
(0.12897 0 -0.0167234)
(0.127341 0 -0.015704)
(0.125638 0 -0.0147032)
(0.123786 0 -0.0137291)
(0.121712 0 -0.012786)
(0.119343 0 -0.0118774)
(0.116613 0 -0.0110044)
(0.113454 0 -0.0101658)
(0.109796 0 -0.00935931)
(0.105573 0 -0.00858121)
(0.100715 0 -0.00782717)
(0.0951515 0 -0.00709204)
(0.0888064 0 -0.00636994)
(0.0816003 0 -0.00565347)
(0.0734532 0 -0.00493469)
(0.0642809 0 -0.00420528)
(0.053992 0 -0.00345509)
(0.0424904 0 -0.00267236)
(0.0296742 0 -0.00184343)
(0.0154229 0 -0.000951357)
(0 0 0)
(0.132001 0 -0.0170964)
(0.130005 0 -0.0161591)
(0.127958 0 -0.015218)
(0.125791 0 -0.0142845)
(0.123431 0 -0.0133663)
(0.120806 0 -0.0124686)
(0.117849 0 -0.011595)
(0.114489 0 -0.0107464)
(0.110657 0 -0.0099221)
(0.106282 0 -0.00912001)
(0.101294 0 -0.00833676)
(0.0956175 0 -0.00756796)
(0.089177 0 -0.00680814)
(0.0818917 0 -0.00605054)
(0.073679 0 -0.00528743)
(0.0644519 0 -0.00451013)
(0.0541178 0 -0.00370831)
(0.0425785 0 -0.00286981)
(0.0297297 0 -0.00198035)
(0.0154494 0 -0.00102217)
(0 0 0)
(0.134659 0 -0.017343)
(0.132382 0 -0.0164906)
(0.130059 0 -0.0156148)
(0.127627 0 -0.0147291)
(0.125021 0 -0.0138435)
(0.122171 0 -0.0129654)
(0.119009 0 -0.0121)
(0.115466 0 -0.01125)
(0.111472 0 -0.0104163)
(0.106955 0 -0.00959789)
(0.101843 0 -0.00879256)
(0.0960596 0 -0.00799666)
(0.0895277 0 -0.00720531)
(0.0821658 0 -0.00641226)
(0.0738892 0 -0.00561003)
(0.0646093 0 -0.00478985)
(0.0542319 0 -0.00394126)
(0.0426572 0 -0.0030518)
(0.0297788 0 -0.00210671)
(0.0154728 0 -0.00108759)
(0 0 0)
(0.136921 0 -0.0174914)
(0.134442 0 -0.0167211)
(0.131908 0 -0.0159116)
(0.129265 0 -0.0150771)
(0.126455 0 -0.0142293)
(0.123413 0 -0.013377)
(0.120073 0 -0.0125265)
(0.116367 0 -0.011682)
(0.112226 0 -0.0108456)
(0.107579 0 -0.0100176)
(0.102351 0 -0.00919647)
(0.0964675 0 -0.00837947)
(0.0898495 0 -0.00756227)
(0.0824147 0 -0.0067391)
(0.0740776 0 -0.00590277)
(0.064748 0 -0.00504456)
(0.0543304 0 -0.00415394)
(0.0427235 0 -0.00321828)
(0.0298192 0 -0.00222246)
(0.0154918 0 -0.00114755)
(0 0 0)
(0.138786 0 -0.0175659)
(0.136174 0 -0.0168708)
(0.133489 0 -0.0161247)
(0.130687 0 -0.0153419)
(0.127714 0 -0.0145343)
(0.124513 0 -0.0137115)
(0.121022 0 -0.0128808)
(0.117175 0 -0.0120472)
(0.112904 0 -0.0112137)
(0.108139 0 -0.0103817)
(0.102807 0 -0.00955035)
(0.0968312 0 -0.00871764)
(0.0901337 0 -0.00787979)
(0.0826315 0 -0.00703151)
(0.0742383 0 -0.00616588)
(0.064863 0 -0.00527434)
(0.0544092 0 -0.00434637)
(0.0427743 0 -0.00336921)
(0.0298487 0 -0.00232753)
(0.0155052 0 -0.00120201)
(0 0 0)
(0.142892 0 -0.0181403)
(0.140279 0 -0.0175852)
(0.137592 0 -0.0169567)
(0.134809 0 -0.0162695)
(0.131891 0 -0.0155367)
(0.128794 0 -0.01477)
(0.125467 0 -0.013979)
(0.12185 0 -0.0131714)
(0.117883 0 -0.0123528)
(0.113499 0 -0.0115269)
(0.10863 0 -0.0106955)
(0.103203 0 -0.00985881)
(0.0971447 0 -0.00901512)
(0.0903747 0 -0.00816126)
(0.082811 0 -0.00729234)
(0.0743668 0 -0.00640179)
(0.0649505 0 -0.00548119)
(0.054465 0 -0.00452012)
(0.0428069 0 -0.00350579)
(0.0298655 0 -0.00242273)
(0.0155118 0 -0.0012514)
(0 0 0)
(0.0999294 0 0)
(0.103368 0 0)
(0.105846 0 0)
(0.107449 0 0)
(0.108234 0 0)
(0.108237 0 0)
(0.107474 0 0)
(0.105947 0 0)
(0.103646 0 0)
(0.100549 0 0)
(0.0966279 0 0)
(0.0918458 0 0)
(0.0861538 0 0)
(0.0794903 0 0)
(0.0717886 0 0)
(0.0629838 0 0)
(0.0530055 0 0)
(0.0417744 0 0)
(0.0292093 0 0)
(0.0151985 0 0)
(0 0 0)
(0.100435 0 -0.00282791)
(0.103765 0 -0.00251317)
(0.106161 0 -0.00224106)
(0.107699 0 -0.00200669)
(0.108435 0 -0.00180087)
(0.108398 0 -0.0016175)
(0.107604 0 -0.00145449)
(0.106053 0 -0.00131038)
(0.103732 0 -0.00118079)
(0.100618 0 -0.00106272)
(0.0966828 0 -0.000954132)
(0.0918904 0 -0.000852959)
(0.086191 0 -0.000757238)
(0.0795214 0 -0.00066536)
(0.0718132 0 -0.000575863)
(0.0630028 0 -0.000487373)
(0.0530205 0 -0.000398188)
(0.0417855 0 -0.00030663)
(0.0292143 0 -0.000210837)
(0.0151975 0 -0.000108652)
(0 0 0)
(0.101904 0 -0.0054846)
(0.104924 0 -0.00489095)
(0.10708 0 -0.00437314)
(0.108433 0 -0.00392382)
(0.109023 0 -0.00352874)
(0.108872 0 -0.00317769)
(0.107987 0 -0.00286477)
(0.106363 0 -0.0025853)
(0.103983 0 -0.00233273)
(0.100822 0 -0.00210176)
(0.0968484 0 -0.00188776)
(0.092024 0 -0.00168782)
(0.0862982 0 -0.0014993)
(0.0796072 0 -0.00131885)
(0.0718823 0 -0.0011428)
(0.0630582 0 -0.000967707)
(0.0530641 0 -0.000790912)
(0.0418183 0 -0.000609241)
(0.0292332 0 -0.000418988)
(0.0152023 0 -0.000215849)
(0 0 0)
(0.104207 0 -0.00788128)
(0.106753 0 -0.00706382)
(0.10854 0 -0.00634266)
(0.109603 0 -0.00570893)
(0.109964 0 -0.0051494)
(0.109632 0 -0.0046512)
(0.108602 0 -0.00420503)
(0.106862 0 -0.0038031)
(0.104389 0 -0.00343776)
(0.101153 0 -0.00310222)
(0.0971177 0 -0.00279024)
(0.0922412 0 -0.00249764)
(0.0864705 0 -0.00222069)
(0.0797434 0 -0.0019548)
(0.0719921 0 -0.0016949)
(0.0631471 0 -0.00143602)
(0.0531338 0 -0.00117421)
(0.0418712 0 -0.000904873)
(0.0292689 0 -0.00062248)
(0.0152189 0 -0.000320658)
(0 0 0)
(0.107176 0 -0.00998668)
(0.10913 0 -0.00900137)
(0.11045 0 -0.0081243)
(0.111143 0 -0.00734406)
(0.11121 0 -0.00664885)
(0.110642 0 -0.00602564)
(0.109422 0 -0.00546371)
(0.107528 0 -0.0049538)
(0.10493 0 -0.00448743)
(0.101593 0 -0.00405691)
(0.0974761 0 -0.00365539)
(0.0925309 0 -0.00327718)
(0.0867027 0 -0.00291708)
(0.0799285 0 -0.00256967)
(0.0721403 0 -0.00222922)
(0.0632652 0 -0.00188984)
(0.0532256 0 -0.00154606)
(0.0419417 0 -0.00119203)
(0.0293192 0 -0.000820476)
(0.0152445 0 -0.000422811)
(0 0 0)
(0.110624 0 -0.0117908)
(0.111917 0 -0.0106919)
(0.112709 0 -0.00970417)
(0.112978 0 -0.00881562)
(0.112703 0 -0.0080149)
(0.111858 0 -0.00729045)
(0.110413 0 -0.0066318)
(0.108335 0 -0.00602947)
(0.105588 0 -0.00547476)
(0.102129 0 -0.00495969)
(0.0979109 0 -0.00447698)
(0.0928827 0 -0.00402012)
(0.0869854 0 -0.00358292)
(0.0801544 0 -0.00315928)
(0.0723207 0 -0.0027429)
(0.0634081 0 -0.00232685)
(0.0533352 0 -0.00190456)
(0.0420218 0 -0.00146912)
(0.0293732 0 -0.00101177)
(0.0152726 0 -0.000521689)
(0 0 0)
(0.114355 0 -0.0132936)
(0.114971 0 -0.0121354)
(0.11521 0 -0.0110801)
(0.115027 0 -0.0101185)
(0.114381 0 -0.00924147)
(0.113232 0 -0.00843954)
(0.111537 0 -0.00770352)
(0.109255 0 -0.00702469)
(0.106339 0 -0.00639478)
(0.102741 0 -0.00580601)
(0.0984083 0 -0.00525107)
(0.0932853 0 -0.00472306)
(0.0873093 0 -0.00421518)
(0.080413 0 -0.00372091)
(0.0725272 0 -0.00323362)
(0.0635717 0 -0.00274558)
(0.053459 0 -0.00224889)
(0.0421083 0 -0.0017355)
(0.0294284 0 -0.00119562)
(0.0153019 0 -0.000616691)
(0 0 0)
(0.118194 0 -0.0145094)
(0.118155 0 -0.0133392)
(0.117846 0 -0.0122555)
(0.117206 0 -0.0112535)
(0.11618 0 -0.0103273)
(0.114714 0 -0.00947044)
(0.112757 0 -0.00867587)
(0.110256 0 -0.00793621)
(0.107159 0 -0.00724419)
(0.10341 0 -0.00659266)
(0.0989532 0 -0.00597466)
(0.0937268 0 -0.00538333)
(0.0876645 0 -0.00481141)
(0.0806956 0 -0.00425222)
(0.0727494 0 -0.00369915)
(0.0637443 0 -0.00314401)
(0.0535898 0 -0.00257756)
(0.0422022 0 -0.00199027)
(0.0294918 0 -0.00137164)
(0.0153374 0 -0.000707731)
(0 0 0)
(0.121991 0 -0.0154657)
(0.121347 0 -0.0143208)
(0.12052 0 -0.0132414)
(0.119439 0 -0.0122269)
(0.118038 0 -0.0112754)
(0.116257 0 -0.0103842)
(0.114034 0 -0.00954856)
(0.11131 0 -0.0087629)
(0.108025 0 -0.00802134)
(0.104119 0 -0.00731774)
(0.0995299 0 -0.00664581)
(0.0941948 0 -0.00599912)
(0.0880418 0 -0.00537043)
(0.0809944 0 -0.00475257)
(0.0729807 0 -0.00413874)
(0.0639204 0 -0.00352075)
(0.0537231 0 -0.00288866)
(0.0422991 0 -0.00223181)
(0.0295548 0 -0.00153862)
(0.0153689 0 -0.000794025)
(0 0 0)
(0.125614 0 -0.016192)
(0.124436 0 -0.0151006)
(0.123141 0 -0.0140514)
(0.121653 0 -0.0130481)
(0.119899 0 -0.0120922)
(0.117813 0 -0.0111846)
(0.11533 0 -0.0103235)
(0.112384 0 -0.0095054)
(0.108911 0 -0.00872604)
(0.104846 0 -0.00798051)
(0.100122 0 -0.0072634)
(0.0946739 0 -0.00656894)
(0.0884261 0 -0.00589057)
(0.0812992 0 -0.00522059)
(0.073218 0 -0.00455148)
(0.0641016 0 -0.00387516)
(0.0538587 0 -0.00318158)
(0.042396 0 -0.00245947)
(0.0296148 0 -0.00169601)
(0.0153951 0 -0.000875209)
(0 0 0)
(0.12897 0 -0.0167234)
(0.127341 0 -0.015704)
(0.125638 0 -0.0147032)
(0.123786 0 -0.0137291)
(0.121712 0 -0.012786)
(0.119343 0 -0.0118774)
(0.116613 0 -0.0110044)
(0.113454 0 -0.0101658)
(0.109796 0 -0.00935931)
(0.105573 0 -0.00858121)
(0.100715 0 -0.00782717)
(0.0951515 0 -0.00709204)
(0.0888064 0 -0.00636994)
(0.0816003 0 -0.00565347)
(0.0734532 0 -0.00493469)
(0.0642809 0 -0.00420528)
(0.053992 0 -0.00345509)
(0.0424904 0 -0.00267236)
(0.0296742 0 -0.00184343)
(0.0154229 0 -0.000951357)
(0 0 0)
(0.132001 0 -0.0170964)
(0.130005 0 -0.0161591)
(0.127958 0 -0.015218)
(0.125791 0 -0.0142845)
(0.123431 0 -0.0133663)
(0.120806 0 -0.0124686)
(0.117849 0 -0.011595)
(0.114489 0 -0.0107464)
(0.110657 0 -0.0099221)
(0.106282 0 -0.00912001)
(0.101294 0 -0.00833676)
(0.0956175 0 -0.00756796)
(0.089177 0 -0.00680814)
(0.0818917 0 -0.00605054)
(0.073679 0 -0.00528743)
(0.0644519 0 -0.00451013)
(0.0541178 0 -0.00370831)
(0.0425785 0 -0.00286981)
(0.0297297 0 -0.00198035)
(0.0154494 0 -0.00102217)
(0 0 0)
(0.134659 0 -0.017343)
(0.132382 0 -0.0164906)
(0.130059 0 -0.0156148)
(0.127627 0 -0.0147291)
(0.125021 0 -0.0138435)
(0.122171 0 -0.0129654)
(0.119009 0 -0.0121)
(0.115466 0 -0.01125)
(0.111472 0 -0.0104163)
(0.106955 0 -0.00959789)
(0.101843 0 -0.00879256)
(0.0960596 0 -0.00799666)
(0.0895277 0 -0.00720531)
(0.0821658 0 -0.00641226)
(0.0738892 0 -0.00561003)
(0.0646093 0 -0.00478985)
(0.0542319 0 -0.00394126)
(0.0426572 0 -0.0030518)
(0.0297788 0 -0.00210671)
(0.0154728 0 -0.00108759)
(0 0 0)
(0.136921 0 -0.0174914)
(0.134442 0 -0.0167211)
(0.131908 0 -0.0159116)
(0.129265 0 -0.0150771)
(0.126455 0 -0.0142293)
(0.123413 0 -0.013377)
(0.120073 0 -0.0125265)
(0.116367 0 -0.011682)
(0.112226 0 -0.0108456)
(0.107579 0 -0.0100176)
(0.102351 0 -0.00919647)
(0.0964675 0 -0.00837947)
(0.0898495 0 -0.00756227)
(0.0824147 0 -0.0067391)
(0.0740776 0 -0.00590277)
(0.064748 0 -0.00504456)
(0.0543304 0 -0.00415394)
(0.0427235 0 -0.00321828)
(0.0298192 0 -0.00222246)
(0.0154918 0 -0.00114755)
(0 0 0)
(0.138786 0 -0.0175659)
(0.136174 0 -0.0168708)
(0.133489 0 -0.0161247)
(0.130687 0 -0.0153419)
(0.127714 0 -0.0145343)
(0.124513 0 -0.0137115)
(0.121022 0 -0.0128808)
(0.117175 0 -0.0120472)
(0.112904 0 -0.0112137)
(0.108139 0 -0.0103817)
(0.102807 0 -0.00955035)
(0.0968312 0 -0.00871764)
(0.0901337 0 -0.00787979)
(0.0826315 0 -0.00703151)
(0.0742383 0 -0.00616588)
(0.064863 0 -0.00527434)
(0.0544092 0 -0.00434637)
(0.0427743 0 -0.00336921)
(0.0298487 0 -0.00232753)
(0.0155052 0 -0.00120201)
(0 0 0)
(0.142892 0 -0.0181403)
(0.140279 0 -0.0175852)
(0.137592 0 -0.0169567)
(0.134809 0 -0.0162695)
(0.131891 0 -0.0155367)
(0.128794 0 -0.01477)
(0.125467 0 -0.013979)
(0.12185 0 -0.0131714)
(0.117883 0 -0.0123528)
(0.113499 0 -0.0115269)
(0.10863 0 -0.0106955)
(0.103203 0 -0.00985881)
(0.0971447 0 -0.00901512)
(0.0903747 0 -0.00816126)
(0.082811 0 -0.00729234)
(0.0743668 0 -0.00640179)
(0.0649505 0 -0.00548119)
(0.054465 0 -0.00452012)
(0.0428069 0 -0.00350579)
(0.0298655 0 -0.00242273)
(0.0155118 0 -0.0012514)
(0 0 0)
(0.14404 0 -0.0180564)
(0.141434 0 -0.0175614)
(0.13872 0 -0.0169911)
(0.135881 0 -0.0163575)
(0.132886 0 -0.0156725)
(0.129699 0 -0.0149464)
(0.126273 0 -0.0141887)
(0.122555 0 -0.0134067)
(0.118487 0 -0.0126064)
(0.114006 0 -0.0117918)
(0.109046 0 -0.0109651)
(0.103536 0 -0.0101271)
(0.0974023 0 -0.00927658)
(0.0905669 0 -0.00841077)
(0.0829477 0 -0.0075252)
(0.0744578 0 -0.00661358)
(0.0650056 0 -0.00566772)
(0.0544936 0 -0.00467732)
(0.0428177 0 -0.00362963)
(0.0298666 0 -0.00250916)
(0.0155101 0 -0.00129624)
(0 0 0)
(0.144834 0 -0.0179482)
(0.14227 0 -0.0175019)
(0.139564 0 -0.0169813)
(0.136703 0 -0.0163958)
(0.133666 0 -0.0157551)
(0.130418 0 -0.0150685)
(0.12692 0 -0.0143442)
(0.123123 0 -0.0135894)
(0.118973 0 -0.0128097)
(0.114412 0 -0.0120093)
(0.109374 0 -0.0111909)
(0.103792 0 -0.0103552)
(0.097593 0 -0.00950165)
(0.0907004 0 -0.00862773)
(0.0830327 0 -0.00772931)
(0.0745036 0 -0.00680042)
(0.0650217 0 -0.0058331)
(0.0544894 0 -0.0048172)
(0.0428025 0 -0.0037401)
(0.0298491 0 -0.00258635)
(0.0154984 0 -0.0013363)
(0 0 0)
(0.140135 0 -0.0169335)
(0.137279 0 -0.0163901)
(0.134224 0 -0.0157897)
(0.130942 0 -0.0151402)
(0.127395 0 -0.0144487)
(0.123541 0 -0.0137214)
(0.119328 0 -0.0129639)
(0.114702 0 -0.0121801)
(0.109601 0 -0.0113726)
(0.103959 0 -0.0105424)
(0.0977057 0 -0.0096892)
(0.090765 0 -0.00881073)
(0.083057 0 -0.00790316)
(0.0744964 0 -0.00696078)
(0.064992 0 -0.00597585)
(0.0544469 0 -0.00493844)
(0.0427568 0 -0.00383609)
(0.0298099 0 -0.00265351)
(0.0154752 0 -0.00137115)
(0 0 0)
(0.134565 0 -0.0157811)
(0.131268 0 -0.0151658)
(0.127693 0 -0.0145055)
(0.1238 0 -0.0138057)
(0.119543 0 -0.0130711)
(0.114868 0 -0.0123054)
(0.109718 0 -0.011511)
(0.104028 0 -0.0106891)
(0.0977309 0 -0.00983919)
(0.0907521 0 -0.00895946)
(0.0830129 0 -0.00804621)
(0.0744291 0 -0.00709398)
(0.0649106 0 -0.00609526)
(0.054361 0 -0.00504036)
(0.0426767 0 -0.00391703)
(0.0297463 0 -0.00271019)
(0.015439 0 -0.00140055)
(0 0 0)
(0.131399 0 -0.0151491)
(0.127812 0 -0.0145182)
(0.123897 0 -0.0138449)
(0.11961 0 -0.0131334)
(0.114901 0 -0.0123867)
(0.109715 0 -0.0116072)
(0.10399 0 -0.0107956)
(0.0976606 0 -0.00995175)
(0.0906539 0 -0.00907373)
(0.082893 0 -0.00815808)
(0.0742953 0 -0.00719952)
(0.0647718 0 -0.00619078)
(0.0542271 0 -0.00512241)
(0.0425586 0 -0.00398242)
(0.0296556 0 -0.00275604)
(0.0153885 0 -0.00142432)
(0 0 0)
(0.123829 0 -0.0138417)
(0.119526 0 -0.0131528)
(0.114796 0 -0.0124256)
(0.109587 0 -0.011662)
(0.103839 0 -0.0108627)
(0.0974877 0 -0.0100271)
(0.0904637 0 -0.00915354)
(0.0826913 0 -0.00823854)
(0.0740894 0 -0.00727703)
(0.0645706 0 -0.00626197)
(0.0540409 0 -0.00518413)
(0.042399 0 -0.00403187)
(0.0295356 0 -0.00279074)
(0.0153224 0 -0.00144227)
(0 0 0)
(0.11455 0 -0.0124237)
(0.109329 0 -0.0116767)
(0.103568 0 -0.0108909)
(0.0972068 0 -0.0100656)
(0.0901761 0 -0.00919896)
(0.0824024 0 -0.00828748)
(0.0738066 0 -0.00732627)
(0.0643029 0 -0.00630849)
(0.053799 0 -0.0052252)
(0.0421953 0 -0.00406506)
(0.0293843 0 -0.00281407)
(0.0152398 0 -0.00145429)
(0 0 0)
(0.108939 0 -0.0116525)
(0.103176 0 -0.0108812)
(0.0968141 0 -0.0100677)
(0.0897869 0 -0.00921013)
(0.0820225 0 -0.00830491)
(0.073443 0 -0.0073471)
(0.0639652 0 -0.00633015)
(0.0534984 0 -0.00524536)
(0.0419452 0 -0.00408177)
(0.0292001 0 -0.00282586)
(0.0151398 0 -0.00146029)
(0 0 0)
(0.0963089 0 -0.0100343)
(0.0892941 0 -0.00918748)
(0.0815485 0 -0.00829084)
(0.0729961 0 -0.00733946)
(0.0635551 0 -0.00632683)
(0.0531371 0 -0.00524447)
(0.041647 0 -0.00408185)
(0.028982 0 -0.00282597)
(0.015022 0 -0.0014602)
(0 0 0)
(0.088698 0 -0.00913168)
(0.0809804 0 -0.00824578)
(0.0724646 0 -0.00730348)
(0.0630713 0 -0.00629846)
(0.0527139 0 -0.00522246)
(0.0412998 0 -0.00406522)
(0.0287293 0 -0.00281437)
(0.0148859 0 -0.00145399)
(0 0 0)
(0.0718497 0 -0.00723959)
(0.0625139 0 -0.00624522)
(0.0522286 0 -0.00517929)
(0.0409035 0 -0.00403186)
(0.028442 0 -0.00279103)
(0.0147317 0 -0.00144165)
(0 0 0)
(0.0618851 0 -0.00616751)
(0.0516827 0 -0.00511526)
(0.0404589 0 -0.00398185)
(0.0281206 0 -0.00275596)
(0.0145596 0 -0.00142322)
(0 0 0)
(0.0399682 0 -0.00391546)
(0.0277663 0 -0.0027093)
(0.0143702 0 -0.00139871)
(0 0 0)
(0.0273814 0 -0.00265126)
(0.0141646 0 -0.00136823)
(0 0 0)
(0.0139442 0 -0.00133186)
(0 0 0)
(0.14404 0 -0.0180564)
(0.141434 0 -0.0175614)
(0.13872 0 -0.0169911)
(0.135881 0 -0.0163575)
(0.132886 0 -0.0156725)
(0.129699 0 -0.0149464)
(0.126273 0 -0.0141887)
(0.122555 0 -0.0134067)
(0.118487 0 -0.0126064)
(0.114006 0 -0.0117918)
(0.109046 0 -0.0109651)
(0.103536 0 -0.0101271)
(0.0974023 0 -0.00927658)
(0.0905669 0 -0.00841077)
(0.0829477 0 -0.0075252)
(0.0744578 0 -0.00661358)
(0.0650056 0 -0.00566772)
(0.0544936 0 -0.00467732)
(0.0428177 0 -0.00362963)
(0.0298666 0 -0.00250916)
(0.0155101 0 -0.00129624)
(0 0 0)
(0.144834 0 -0.0179482)
(0.14227 0 -0.0175019)
(0.139564 0 -0.0169813)
(0.136703 0 -0.0163958)
(0.133666 0 -0.0157551)
(0.130418 0 -0.0150685)
(0.12692 0 -0.0143442)
(0.123123 0 -0.0135894)
(0.118973 0 -0.0128097)
(0.114412 0 -0.0120093)
(0.109374 0 -0.0111909)
(0.103792 0 -0.0103552)
(0.097593 0 -0.00950165)
(0.0907004 0 -0.00862773)
(0.0830327 0 -0.00772931)
(0.0745036 0 -0.00680042)
(0.0650217 0 -0.0058331)
(0.0544894 0 -0.0048172)
(0.0428025 0 -0.0037401)
(0.0298491 0 -0.00258635)
(0.0154984 0 -0.0013363)
(0 0 0)
(0.140135 0 -0.0169335)
(0.137279 0 -0.0163901)
(0.134224 0 -0.0157897)
(0.130942 0 -0.0151402)
(0.127395 0 -0.0144487)
(0.123541 0 -0.0137214)
(0.119328 0 -0.0129639)
(0.114702 0 -0.0121801)
(0.109601 0 -0.0113726)
(0.103959 0 -0.0105424)
(0.0977057 0 -0.0096892)
(0.090765 0 -0.00881073)
(0.083057 0 -0.00790316)
(0.0744964 0 -0.00696078)
(0.064992 0 -0.00597585)
(0.0544469 0 -0.00493844)
(0.0427568 0 -0.00383609)
(0.0298099 0 -0.00265351)
(0.0154752 0 -0.00137115)
(0 0 0)
(0.134565 0 -0.0157811)
(0.131268 0 -0.0151658)
(0.127693 0 -0.0145055)
(0.1238 0 -0.0138057)
(0.119543 0 -0.0130711)
(0.114868 0 -0.0123054)
(0.109718 0 -0.011511)
(0.104028 0 -0.0106891)
(0.0977309 0 -0.00983919)
(0.0907521 0 -0.00895946)
(0.0830129 0 -0.00804621)
(0.0744291 0 -0.00709398)
(0.0649106 0 -0.00609526)
(0.054361 0 -0.00504036)
(0.0426767 0 -0.00391703)
(0.0297463 0 -0.00271019)
(0.015439 0 -0.00140055)
(0 0 0)
(0.131399 0 -0.0151491)
(0.127812 0 -0.0145182)
(0.123897 0 -0.0138449)
(0.11961 0 -0.0131334)
(0.114901 0 -0.0123867)
(0.109715 0 -0.0116072)
(0.10399 0 -0.0107956)
(0.0976606 0 -0.00995175)
(0.0906539 0 -0.00907373)
(0.082893 0 -0.00815808)
(0.0742953 0 -0.00719952)
(0.0647718 0 -0.00619078)
(0.0542271 0 -0.00512241)
(0.0425586 0 -0.00398242)
(0.0296556 0 -0.00275604)
(0.0153885 0 -0.00142432)
(0 0 0)
(0.123829 0 -0.0138417)
(0.119526 0 -0.0131528)
(0.114796 0 -0.0124256)
(0.109587 0 -0.011662)
(0.103839 0 -0.0108627)
(0.0974877 0 -0.0100271)
(0.0904637 0 -0.00915354)
(0.0826913 0 -0.00823854)
(0.0740894 0 -0.00727703)
(0.0645706 0 -0.00626197)
(0.0540409 0 -0.00518413)
(0.042399 0 -0.00403187)
(0.0295356 0 -0.00279074)
(0.0153224 0 -0.00144227)
(0 0 0)
(0.11455 0 -0.0124237)
(0.109329 0 -0.0116767)
(0.103568 0 -0.0108909)
(0.0972068 0 -0.0100656)
(0.0901761 0 -0.00919896)
(0.0824024 0 -0.00828748)
(0.0738066 0 -0.00732627)
(0.0643029 0 -0.00630849)
(0.053799 0 -0.0052252)
(0.0421953 0 -0.00406506)
(0.0293843 0 -0.00281407)
(0.0152398 0 -0.00145429)
(0 0 0)
(0.108939 0 -0.0116525)
(0.103176 0 -0.0108812)
(0.0968141 0 -0.0100677)
(0.0897869 0 -0.00921013)
(0.0820225 0 -0.00830491)
(0.073443 0 -0.0073471)
(0.0639652 0 -0.00633015)
(0.0534984 0 -0.00524536)
(0.0419452 0 -0.00408177)
(0.0292001 0 -0.00282586)
(0.0151398 0 -0.00146029)
(0 0 0)
(0.0963089 0 -0.0100343)
(0.0892941 0 -0.00918748)
(0.0815485 0 -0.00829084)
(0.0729961 0 -0.00733946)
(0.0635551 0 -0.00632683)
(0.0531371 0 -0.00524447)
(0.041647 0 -0.00408185)
(0.028982 0 -0.00282597)
(0.015022 0 -0.0014602)
(0 0 0)
(0.088698 0 -0.00913168)
(0.0809804 0 -0.00824578)
(0.0724646 0 -0.00730348)
(0.0630713 0 -0.00629846)
(0.0527139 0 -0.00522246)
(0.0412998 0 -0.00406522)
(0.0287293 0 -0.00281437)
(0.0148859 0 -0.00145399)
(0 0 0)
(0.0718497 0 -0.00723959)
(0.0625139 0 -0.00624522)
(0.0522286 0 -0.00517929)
(0.0409035 0 -0.00403186)
(0.028442 0 -0.00279103)
(0.0147317 0 -0.00144165)
(0 0 0)
(0.0618851 0 -0.00616751)
(0.0516827 0 -0.00511526)
(0.0404589 0 -0.00398185)
(0.0281206 0 -0.00275596)
(0.0145596 0 -0.00142322)
(0 0 0)
(0.0399682 0 -0.00391546)
(0.0277663 0 -0.0027093)
(0.0143702 0 -0.00139871)
(0 0 0)
(0.0273814 0 -0.00265126)
(0.0141646 0 -0.00136823)
(0 0 0)
(0.0139442 0 -0.00133186)
(0 0 0)
)
;

boundaryField
{
    inlet
    {
        type            fixedValue;
        value           nonuniform 0();
    }
    outlet
    {
        type            fixedValue;
        value           uniform (0 0 0);
    }
    flap
    {
        type            fixedValue;
        value           nonuniform 0();
    }
    upperWall
    {
        type            slip;
    }
    lowerWall
    {
        type            slip;
    }
    frontAndBack
    {
        type            empty;
    }
    procBoundary5to2
    {
        type            processor;
    }
    procBoundary5to4
    {
        type            processor;
    }
}


// ************************************************************************* //
