/*--------------------------------*- C++ -*----------------------------------*\
| =========                 |                                                 |
| \\      /  F ield         | OpenFOAM: The Open Source CFD Toolbox           |
|  \\    /   O peration     | Version:  dev                                   |
|   \\  /    A nd           | Web:      www.OpenFOAM.org                      |
|    \\/     M anipulation  |                                                 |
\*---------------------------------------------------------------------------*/
FoamFile
{
    version     2.0;
    format      ascii;
    class       surfaceScalarField;
    location    "0.19";
    object      phi;
}
// * * * * * * * * * * * * * * * * * * * * * * * * * * * * * * * * * * * * * //

dimensions      [0 3 -1 0 0 0 0];

internalField   nonuniform List<scalar> 
881
(
0.198558
0.00144007
0.196779
0.00177763
0.19464
0.00213718
0.192112
0.00252639
0.189198
0.0029126
0.185903
0.00329388
0.182224
0.00367821
0.178152
0.00407161
0.173675
0.00447654
0.168781
0.00489296
0.163462
0.00531916
0.15771
0.00575225
0.151521
0.00618887
0.144896
0.0066258
0.137836
0.00706046
0.130345
0.00749095
0.12243
0.00791565
0.114098
0.00833227
0.105361
0.00873668
0.0962398
0.00912168
0.00947614
0.200113
0.00132544
0.199518
0.00237127
0.198466
0.00318734
0.196996
0.00399505
0.195107
0.00479958
0.192799
0.00560074
0.190064
0.00641247
0.186887
0.00724775
0.183249
0.00811392
0.179128
0.00901331
0.174503
0.0099443
0.169353
0.0109021
0.163663
0.0118796
0.15742
0.0128688
0.150619
0.0138619
0.143259
0.0148517
0.135343
0.0158313
0.126883
0.0167931
0.117893
0.0177268
0.108397
0.0186175
0.0194441
0.199961
0.00136246
0.199421
0.00290965
0.198433
0.00417406
0.197053
0.00537395
0.195289
0.00656162
0.19314
0.00774861
0.190598
0.00895382
0.187648
0.0101966
0.184271
0.0114902
0.180443
0.0128413
0.176137
0.0142501
0.171327
0.0157117
0.16599
0.0172169
0.160106
0.0187536
0.153659
0.0203092
0.14664
0.0218711
0.139044
0.0234271
0.130873
0.0249645
0.122133
0.0264675
0.112835
0.0279152
0.0292784
0.199878
0.00148258
0.199338
0.00344847
0.198368
0.00514249
0.19701
0.00672966
0.195282
0.00828909
0.19318
0.00984856
0.1907
0.0114329
0.187829
0.013067
0.184549
0.0147695
0.180839
0.0165514
0.176673
0.0184158
0.172027
0.0203581
0.166876
0.0223682
0.161198
0.0244313
0.154977
0.0265313
0.148196
0.0286517
0.140847
0.0307767
0.132922
0.0328899
0.124418
0.0349722
0.115335
0.0369982
0.0389337
0.199839
0.00164192
0.19929
0.00399566
0.198338
0.00609351
0.197007
0.00805862
0.195315
0.00998009
0.193261
0.0119007
0.19084
0.0138528
0.18804
0.0158662
0.184845
0.0179646
0.181233
0.0201631
0.177181
0.0224671
0.172666
0.0248732
0.167664
0.0273703
0.162154
0.0299421
0.156116
0.03257
0.149533
0.0352351
0.14239
0.0379195
0.134675
0.0406054
0.126375
0.0432722
0.11748
0.0458932
0.0484311
0.199821
0.00181895
0.19927
0.00454552
0.198338
0.00702326
0.197043
0.00935269
0.195396
0.0116252
0.193401
0.0138951
0.19105
0.0162025
0.188333
0.0185825
0.185234
0.0210633
0.181733
0.0236638
0.177808
0.026392
0.173436
0.0292454
0.168593
0.0322127
0.163259
0.0352764
0.157413
0.0384166
0.151035
0.0416134
0.144106
0.0448487
0.136607
0.0481052
0.128516
0.0513634
0.119812
0.0545976
0.0577704
0.199816
0.0020018
0.19927
0.00508988
0.198364
0.00792715
0.19711
0.0106051
0.195518
0.0132156
0.193591
0.0158213
0.191322
0.0184697
0.188703
0.0212014
0.185716
0.024049
0.182345
0.027035
0.178567
0.0301697
0.174361
0.033452
0.169703
0.0368706
0.164572
0.0404077
0.158946
0.044043
0.152803
0.047757
0.146119
0.051533
0.138868
0.0553566
0.131019
0.0592124
0.122538
0.0630787
0.0669214
0.199817
0.00218337
0.199284
0.00562136
0.198409
0.00879998
0.197203
0.0118094
0.195674
0.0147428
0.193825
0.017669
0.191652
0.0206425
0.189143
0.023709
0.186286
0.0269054
0.183064
0.0302575
0.179455
0.0337784
0.175439
0.0374682
0.170994
0.0413161
0.166097
0.0453046
0.160726
0.049414
0.154857
0.0536265
0.148462
0.0579289
0.141507
0.0623117
0.133953
0.0667665
0.125752
0.0712799
0.075826
0.199823
0.00235908
0.199308
0.00613388
0.19847
0.00963638
0.197319
0.0129595
0.195861
0.0161991
0.1941
0.019429
0.192032
0.0227096
0.189648
0.0260919
0.186936
0.0296167
0.18388
0.0333134
0.180461
0.0371972
0.17666
0.0412698
0.172455
0.0455213
0.167825
0.0499349
0.162747
0.0544924
0.157195
0.059179
0.151138
0.0639862
0.144538
0.0689122
0.137346
0.0739589
0.1295
0.0791254
0.0844
0.199832
0.00252576
0.199341
0.00662246
0.198545
0.0104312
0.197453
0.0140496
0.196073
0.0175772
0.194409
0.0210923
0.192457
0.0246607
0.19021
0.0283379
0.187657
0.0321688
0.184785
0.0361857
0.181576
0.0404063
0.178012
0.0448337
0.174074
0.0494592
0.169742
0.054267
0.164994
0.059241
0.159804
0.06437
0.154138
0.0696519
0.147957
0.0750943
0.141204
0.0807121
0.133807
0.086522
0.0925336
0.199843
0.00268117
0.19938
0.00708313
0.19863
0.0111799
0.197604
0.0150744
0.196309
0.0188707
0.194748
0.0226512
0.192922
0.0264863
0.190823
0.030436
0.188443
0.0345487
0.185769
0.0388594
0.182787
0.0433878
0.179482
0.048139
0.175836
0.0531051
0.171833
0.0582713
0.16745
0.0636239
0.162664
0.069156
0.157445
0.0748722
0.151749
0.0807907
0.145519
0.0869415
0.138679
0.0933628
0.100092
0.199856
0.00282369
0.199424
0.00751268
0.198724
0.0118784
0.197768
0.0160292
0.196563
0.0200739
0.195114
0.0240988
0.193421
0.0281784
0.19148
0.0323766
0.189283
0.036745
0.186821
0.0413211
0.184083
0.046126
0.181055
0.0511671
0.177724
0.0564369
0.174074
0.061921
0.17009
0.0676086
0.16575
0.0734964
0.161027
0.0795957
0.155883
0.0859352
0.150264
0.0925608
0.144094
0.0995332
0.106923
0.19987
0.002952
0.199472
0.00790838
0.198826
0.0125232
0.197944
0.0169098
0.196834
0.0211817
0.195503
0.025429
0.19395
0.0297299
0.192175
0.0341514
0.190171
0.038748
0.187933
0.0435593
0.185451
0.0486084
0.182715
0.0539029
0.179717
0.0594354
0.176445
0.0651929
0.172888
0.0711662
0.16903
0.077355
0.16485
0.083776
0.160319
0.0904667
0.155393
0.097487
0.150008
0.104919
0.112864
0.199885
0.00306488
0.199524
0.00826787
0.198934
0.0131111
0.19813
0.0177124
0.19712
0.0221899
0.195911
0.0266369
0.194505
0.0311347
0.192903
0.0357533
0.191101
0.0405497
0.189095
0.0455649
0.186879
0.0508241
0.184449
0.0563331
0.1818
0.0620846
0.178926
0.0680676
0.17582
0.0742727
0.172474
0.0807012
0.168878
0.0873731
0.165013
0.0943318
0.160853
0.101647
0.156356
0.109416
0.117765
0.199902
0.19958
0.19905
0.0136392
0.198327
0.0184337
0.197421
0.0230946
0.196338
0.027718
0.195084
0.032388
0.19366
0.037177
0.192065
0.0421437
0.190299
0.0473306
0.18836
0.052763
0.186247
0.0584461
0.18396
0.0643726
0.181497
0.0705309
0.17886
0.0769104
0.176049
0.0835124
0.173065
0.0903576
0.169906
0.0974914
0.166566
0.104987
0.163032
0.11295
0.121514
0.20679
0.206126
0.0190962
0.205296
0.0239232
0.204308
0.0287046
0.203169
0.0335264
0.201882
0.0384631
0.20045
0.0435747
0.198876
0.0489045
0.197162
0.0544769
0.195311
0.0602972
0.193327
0.0663571
0.191216
0.0726423
0.188987
0.07914
0.186651
0.0858494
0.18422
0.0927887
0.181711
0.100001
0.179141
0.107557
0.176533
0.115558
0.124133
0.211337
0.210605
0.0246532
0.209739
0.0295696
0.208746
0.0345188
0.207632
0.0395763
0.206403
0.044803
0.205065
0.0502421
0.203625
0.0559173
0.202089
0.0618328
0.200469
0.067978
0.198776
0.0743354
0.197028
0.0808886
0.195246
0.0876322
0.193456
0.0945791
0.191692
0.101765
0.189997
0.109253
0.188426
0.117129
0.125507
0.216061
0.215326
0.0303029
0.21449
0.0353532
0.213563
0.0405031
0.212552
0.0458134
0.211467
0.0513268
0.210319
0.0570656
0.20912
0.0630321
0.207885
0.0692129
0.206635
0.075586
0.205394
0.0821302
0.204193
0.0888336
0.203072
0.0957008
0.202081
0.102757
0.201283
0.110051
0.200762
0.117651
0.125641
0.221071
0.220404
0.0360189
0.219675
0.0412312
0.218896
0.0465923
0.218079
0.0521437
0.217238
0.0579059
0.216392
0.0638786
0.215561
0.0700445
0.21477
0.0763769
0.214053
0.0828482
0.213449
0.0894385
0.213007
0.0961427
0.212792
0.102973
0.212883
0.109961
0.213383
0.117152
0.124602
0.226484
0.225964
0.0417502
0.225428
0.0471283
0.22489
0.052681
0.22437
0.0584262
0.223888
0.0643603
0.223471
0.0704618
0.22315
0.0766987
0.222962
0.0830362
0.222955
0.0894461
0.223187
0.0959117
0.223729
0.102432
0.224669
0.10902
0.226121
0.115701
0.122503
0.232425
0.232139
0.231889
0.0529307
0.231696
0.058619
0.231585
0.064471
0.231587
0.0704609
0.231735
0.0765509
0.232072
0.0826993
0.23265
0.0888687
0.233531
0.0950318
0.234789
0.101174
0.236517
0.107293
0.238825
0.113394
0.119484
0.239062
0.239199
0.0584817
0.23946
0.0642105
0.239876
0.070045
0.240485
0.0759419
0.241333
0.0818525
0.242471
0.0877313
0.243962
0.093541
0.245882
0.0992554
0.248317
0.104858
0.251372
0.110339
0.11569
0.246859
0.247485
0.248306
0.0692245
0.24936
0.0748879
0.250693
0.0805204
0.252355
0.0860692
0.254408
0.0914885
0.256922
0.0967423
0.259977
0.101804
0.263664
0.106653
0.111268
0.256844
0.258319
0.260105
0.0787355
0.262249
0.0839258
0.264806
0.0889312
0.267841
0.0937085
0.271422
0.0982235
0.275626
0.102448
0.106357
0.269526
0.272102
0.0813504
0.275102
0.0859309
0.278581
0.0902302
0.282596
0.0942095
0.287207
0.097837
0.101085
0.281875
0.285254
0.289101
0.0863834
0.293461
0.0898504
0.298378
0.0929199
0.0955645
0.299375
0.303997
0.309129
0.0877879
0.0898943
0.319468
)
;

boundaryField
{
    inlet
    {
        type            calculated;
        value           nonuniform List<scalar> 
15
(
-0.2
-0.2
-0.2
-0.2
-0.2
-0.2
-0.2
-0.2
-0.2
-0.2
-0.2
-0.2
-0.2
-0.2
-0.2
)
;
    }
    outlet
    {
        type            calculated;
        value           nonuniform 0();
    }
    flap
    {
        type            calculated;
        value           nonuniform 0();
    }
    upperWall
    {
        type            calculated;
        value           nonuniform 0();
    }
    lowerWall
    {
        type            calculated;
        value           uniform 0;
    }
    frontAndBack
    {
        type            empty;
        value           nonuniform 0();
    }
    procBoundary3to0
    {
        type            processor;
        value           nonuniform List<scalar> 
34
(
0.00316062
0.00858869
-0.207278
0.0141249
-0.211924
0.0196816
-0.216685
0.0252762
-0.221665
0.0308954
-0.226973
0.0365068
-0.232728
0.0420525
0.0474138
-0.239021
0.0528892
-0.246395
0.0580171
0.0635847
-0.255636
0.0680162
0.0734128
-0.267327
0.0765366
-0.27892
0.0783957
0.0825516
-0.295233
0.0822408
0.0852286
-0.3142
0.08252
0.0841556
)
;
    }
    procBoundary3to1
    {
        type            processor;
        value           nonuniform List<scalar> 9(0.228219 0.241845 0.255167 0.268087 0.280538 0.29248 0.303899 0.314799 0.325206);
    }
    procBoundary3to4
    {
        type            processor;
        value           nonuniform List<scalar> 
19
(
0.0867638
0.0984296
0.103001
0.105679
0.107983
0.110473
0.113387
0.116847
0.120926
0.125674
0.13112
0.137263
0.144067
0.151455
0.159283
0.173914
0.187052
0.200627
0.214422
)
;
    }
}


// ************************************************************************* //
