/*--------------------------------*- C++ -*----------------------------------*\
| =========                 |                                                 |
| \\      /  F ield         | OpenFOAM: The Open Source CFD Toolbox           |
|  \\    /   O peration     | Version:  dev                                   |
|   \\  /    A nd           | Web:      www.OpenFOAM.org                      |
|    \\/     M anipulation  |                                                 |
\*---------------------------------------------------------------------------*/
FoamFile
{
    version     2.0;
    format      ascii;
    class       pointVectorField;
    location    "0.42";
    object      pointDisplacement;
}
// * * * * * * * * * * * * * * * * * * * * * * * * * * * * * * * * * * * * * //

dimensions      [0 1 0 0 0 0 0];

internalField   nonuniform List<vector> 
5828
(
(0 0 0)
(0.00797767 0 0)
(0.015228 0 0)
(0.0216109 0 0)
(0.027229 0 0)
(0.032171 0 0)
(0.0365139 0 0)
(0.0403245 0 0)
(0.043661 0 0)
(0.0465741 0 0)
(0.049108 0 0)
(0.0513007 0 0)
(0.0531852 0 0)
(0.0547894 0 0)
(0.0561368 0 0)
(0.0572468 0 0)
(0.0581349 0 0)
(0.0588129 0 0)
(0.0592892 0 0)
(0.0595684 0 0)
(0.0596515 0 0)
(0.0595351 0 0)
(0.05921 0 0)
(0.0586581 0 0)
(0.0578465 0 0)
(0.0567175 0 0)
(0.0551719 0 0)
(0.0530557 0 0)
(0.0502176 0 0)
(0.0475468 0 0)
(-1.22478e-09 0 0)
(0 0 0)
(0.0079755 0 0.000277338)
(0.0152244 0 0.000533513)
(0.0216061 0 0.000764188)
(0.0272234 0 0.000973106)
(0.0321649 0 0.00116288)
(0.0365075 0 0.00133519)
(0.040318 0 0.00149092)
(0.0436546 0 0.00163014)
(0.0465682 0 0.00175224)
(0.0491029 0 0.00185589)
(0.0512969 0 0.00193921)
(0.0531833 0 0.00199977)
(0.05479 0 0.00203479)
(0.0561409 0 0.00204133)
(0.0572556 0 0.00201656)
(0.0581499 0 0.00195819)
(0.058836 0 0.00186493)
(0.0593228 0 0.00173706)
(0.0596159 0 0.00157695)
(0.0597178 0 0.00138943)
(0.0596272 0 0.00118179)
(0.0593393 0 0.0009648)
(0.0588445 0 0.000750373)
(0.0581261 0 0.000548581)
(0.0571612 0 0.000366254)
(0.0559265 0 0.000201899)
(0.0544332 0 3.7945e-05)
(0.0528523 0 -0.000168909)
(0.0522462 0 -0.000464793)
(0.0877164 0 -0.00206403)
(0 0 0)
(0.00797258 0 0.000554474)
(0.0152164 0 0.00106638)
(0.0215938 0 0.00152754)
(0.0272084 0 0.00194543)
(0.032148 0 0.00232523)
(0.0364893 0 0.00267041)
(0.0402992 0 0.00298274)
(0.0436361 0 0.00326249)
(0.0465508 0 0.00350847)
(0.0490878 0 0.00371817)
(0.0512855 0 0.00388789)
(0.0531772 0 0.00401288)
(0.0547915 0 0.00408763)
(0.0561527 0 0.00410624)
(0.057281 0 0.00406301)
(0.0581933 0 0.00395313)
(0.058903 0 0.00377368)
(0.0594206 0 0.0035247)
(0.0597541 0 0.00321034)
(0.0599098 0 0.00283977)
(0.0598926 0 0.00242708)
(0.0597081 0 0.00199241)
(0.0593648 0 0.00155994)
(0.0588804 0 0.00115332)
(0.0582947 0 0.000792691)
(0.0576989 0 0.000490987)
(0.0572923 0 0.000252922)
(0.0574518 0 8.10416e-05)
(0.0587356 0 -2.04228e-05)
(0.060023 0 0.00142206)
(0 0 0)
(0.00796418 0 0.000831422)
(0.0152011 0 0.00159909)
(0.0215732 0 0.00229118)
(0.0271835 0 0.00291872)
(0.0321199 0 0.00348965)
(0.036459 0 0.00400928)
(0.0402678 0 0.00448044)
(0.0436049 0 0.00490369)
(0.0465214 0 0.00527747)
(0.0490619 0 0.00559823)
(0.0512654 0 0.00586064)
(0.0531658 0 0.00605777)
(0.0547922 0 0.00618148)
(0.0561698 0 0.00622294)
(0.0573201 0 0.00617335)
(0.0582612 0 0.00602499)
(0.0590082 0 0.00577257)
(0.0595741 0 0.00541488)
(0.0599703 0 0.00495653)
(0.0602077 0 0.00440963)
(0.0602987 0 0.00379448)
(0.0602596 0 0.00313888)
(0.0601162 0 0.00247887)
(0.0599123 0 0.00185493)
(0.0597223 0 0.00130491)
(0.0596673 0 0.000860453)
(0.0599182 0 0.000546168)
(0.0606132 0 0.000383179)
(0.0615355 0 0.000374578)
(0.0626098 0 -0.000224759)
(0 0 0)
(0.00795045 0 0.001108)
(0.0151788 0 0.00213182)
(0.0215445 0 0.00305551)
(0.027149 0 0.00389368)
(0.0320807 0 0.00465723)
(0.0364166 0 0.00535347)
(0.0402238 0 0.00598644)
(0.043561 0 0.00655719)
(0.0464796 0 0.00706399)
(0.0490247 0 0.00750252)
(0.0512358 0 0.00786604)
(0.0531474 0 0.00814567)
(0.0547896 0 0.00833082)
(0.0561888 0 0.00840969)
(0.0573677 0 0.00837021)
(0.0583461 0 0.00820124)
(0.0591413 0 0.00789415)
(0.0597687 0 0.00744499)
(0.0602428 0 0.00685686)
(0.0605787 0 0.00614246)
(0.0607945 0 0.00532611)
(0.0609134 0 0.00444342)
(0.06097 0 0.00354248)
(0.0610158 0 0.00268071)
(0.0611234 0 0.00191551)
(0.0613827 0 0.00129571)
(0.0618698 0 0.000851679)
(0.0625621 0 0.000586202)
(0.0632238 0 0.000468564)
(0.0643902 0 0.00143859)
(0 0 0)
(0.00793511 0 0.00138306)
(0.0151518 0 0.00266184)
(0.0215084 0 0.00381626)
(0.0271052 0 0.00486478)
(0.0320308 0 0.00582133)
(0.0363624 0 0.00669535)
(0.0401671 0 0.00749232)
(0.043504 0 0.00821401)
(0.0464248 0 0.00885881)
(0.048975 0 0.00942194)
(0.0511947 0 0.00989562)
(0.0531193 0 0.0102694)
(0.0547799 0 0.0105304)
(0.056204 0 0.0106643)
(0.057416 0 0.0106555)
(0.0584375 0 0.0104891)
(0.0592876 0 0.0101521)
(0.0599842 0 0.00963633)
(0.0605441 0 0.0089409)
(0.060985 0 0.00807613)
(0.061327 0 0.00706672)
(0.0615952 0 0.00595409)
(0.0618233 0 0.0047976)
(0.0620554 0 0.00367162)
(0.0623437 0 0.00265639)
(0.0627356 0 0.00182357)
(0.0632423 0 0.00121584)
(0.0637937 0 0.00082501)
(0.0642222 0 0.000590897)
(0.0641762 0 -0.00100598)
(0 0 0)
(0.00791772 0 0.00165523)
(0.01512 0 0.00318625)
(0.0214649 0 0.00456924)
(0.027052 0 0.00582662)
(0.03197 0 0.00697543)
(0.036296 0 0.00802749)
(0.0400974 0 0.00898987)
(0.0434334 0 0.00986539)
(0.046356 0 0.0106529)
(0.0489113 0 0.0113476)
(0.05114 0 0.0119411)
(0.0530782 0 0.0124219)
(0.0547583 0 0.0127754)
(0.0562091 0 0.0129849)
(0.0574563 0 0.0130318)
(0.0585234 0 0.0128971)
(0.0594313 0 0.012563)
(0.0601998 0 0.0120152)
(0.0608472 0 0.0112463)
(0.061392 0 0.0102605)
(0.0618535 0 0.00907835)
(0.0622534 0 0.00774157)
(0.0626177 0 0.00631663)
(0.062976 0 0.00489454)
(0.0633575 0 0.00358331)
(0.063778 0 0.00249102)
(0.06422 0 0.0016997)
(0.0646173 0 0.00123786)
(0.0648774 0 0.00106445)
(0.0655514 0 0.00151335)
(0 0 0)
(0.00789795 0 0.00192371)
(0.0150832 0 0.00370359)
(0.021414 0 0.00531238)
(0.0269894 0 0.00677656)
(0.0318981 0 0.00811649)
(0.0362171 0 0.00934647)
(0.040014 0 0.0104755)
(0.0433481 0 0.0115077)
(0.0462719 0 0.0124427)
(0.0488316 0 0.0132763)
(0.0510689 0 0.0140001)
(0.0530205 0 0.014602)
(0.0547199 0 0.0150665)
(0.056197 0 0.0153751)
(0.0574793 0 0.0155067)
(0.0585917 0 0.0154386)
(0.0595568 0 0.0151479)
(0.0603957 0 0.0146128)
(0.0611277 0 0.0138171)
(0.0617707 0 0.0127546)
(0.0623411 0 0.0114354)
(0.0628545 0 0.00989385)
(0.0633257 0 0.00819549)
(0.0637685 0 0.00644277)
(0.0641926 0 0.00477232)
(0.0645976 0 0.0033383)
(0.0649621 0 0.00227646)
(0.0652371 0 0.00165404)
(0.0653691 0 0.00142965)
(0.0649388 0 0.00248338)
(0 0 0)
(0.00787559 0 0.00218774)
(0.0150411 0 0.00421243)
(0.0213553 0 0.00604364)
(0.0269171 0 0.00771207)
(0.0318146 0 0.00924146)
(0.0361252 0 0.0106489)
(0.0399162 0 0.0119454)
(0.0432473 0 0.0131368)
(0.0461709 0 0.0142242)
(0.0487341 0 0.0152041)
(0.0509787 0 0.0160688)
(0.0529424 0 0.0168065)
(0.0546595 0 0.0174016)
(0.0561611 0 0.0178347)
(0.057476 0 0.0180832)
(0.0586306 0 0.0181215)
(0.0596489 0 0.0179223)
(0.0605531 0 0.0174559)
(0.0613632 0 0.0166952)
(0.0620961 0 0.0156199)
(0.0627651 0 0.014223)
(0.0633783 0 0.0125206)
(0.0639391 0 0.0105644)
(0.0644453 0 0.00845486)
(0.0648915 0 0.00634989)
(0.065272 0 0.00445621)
(0.0655814 0 0.00298552)
(0.0658112 0 0.00205777)
(0.0659429 0 0.00158903)
(0.0658265 0 -0.000246608)
(0 0 0)
(0.00785047 0 0.00244659)
(0.0149937 0 0.00471135)
(0.0212889 0 0.00676099)
(0.0268347 0 0.0086305)
(0.0317193 0 0.0103472)
(0.0360197 0 0.011931)
(0.0398033 0 0.0133953)
(0.0431298 0 0.0147481)
(0.0460519 0 0.0159921)
(0.0486168 0 0.0171253)
(0.0508668 0 0.0181413)
(0.0528404 0 0.0190294)
(0.0545723 0 0.0197748)
(0.0560949 0 0.0203586)
(0.0574379 0 0.0207577)
(0.058629 0 0.0209455)
(0.0596936 0 0.0208921)
(0.0606548 0 0.0205609)
(0.0615335 0 0.0199131)
(0.0623465 0 0.0189128)
(0.0631047 0 0.0175295)
(0.0638106 0 0.01575)
(0.0644568 0 0.0135931)
(0.0650255 0 0.0111326)
(0.0654939 0 0.00852399)
(0.0658479 0 0.00602326)
(0.0661021 0 0.00397371)
(0.0663046 0 0.00271025)
(0.0664844 0 0.00233033)
(0.0673415 0 0.00186139)
(0 0 0)
(0.00782246 0 0.00269949)
(0.0149406 0 0.0051989)
(0.0212144 0 0.00746232)
(0.0267422 0 0.00952912)
(0.0316119 0 0.0114303)
(0.0359002 0 0.0131888)
(0.0396747 0 0.0148208)
(0.0429949 0 0.0163363)
(0.0459136 0 0.0177403)
(0.0484781 0 0.0190329)
(0.0507311 0 0.0202095)
(0.0527113 0 0.0212616)
(0.0544541 0 0.0221761)
(0.0559926 0 0.0229359)
(0.0573573 0 0.0235192)
(0.0585772 0 0.0238995)
(0.0596784 0 0.024046)
(0.060685 0 0.0239194)
(0.0616195 0 0.0234752)
(0.0625 0 0.0226616)
(0.0633378 0 0.0214218)
(0.0641336 0 0.0197054)
(0.0648735 0 0.0174787)
(0.0655251 0 0.0147525)
(0.0660401 0 0.0116253)
(0.0663728 0 0.0083384)
(0.0665244 0 0.0053279)
(0.0666029 0 0.00318392)
(0.0668036 0 0.00236276)
(0.0663178 0 0.00754417)
(0 0 0)
(0.00779158 0 0.00294544)
(0.0148819 0 0.00567308)
(0.0211319 0 0.00814466)
(0.0266394 0 0.010404)
(0.0314921 0 0.0124859)
(0.0357666 0 0.0144164)
(0.0395301 0 0.0162144)
(0.042842 0 0.0178928)
(0.0457552 0 0.0194587)
(0.0483169 0 0.0209148)
(0.0505699 0 0.0222593)
(0.052553 0 0.0234862)
(0.054302 0 0.0245856)
(0.0558501 0 0.0255433)
(0.0572285 0 0.0263408)
(0.0584668 0 0.0269539)
(0.0595919 0 0.0273516)
(0.0606295 0 0.0274984)
(0.0616033 0 0.0273512)
(0.0625342 0 0.0268489)
(0.0634374 0 0.0259167)
(0.0643189 0 0.024468)
(0.0651676 0 0.0224061)
(0.0659459 0 0.0196447)
(0.0665787 0 0.0161511)
(0.0669529 0 0.0120253)
(0.0669554 0 0.00763078)
(0.0665917 0 0.00368053)
(0.0661694 0 0.00108343)
(0.0724389 0 -0.00284433)
(0 0 0)
(0.0077579 0 0.00318307)
(0.0148178 0 0.00613115)
(0.0210414 0 0.00880393)
(0.0265264 0 0.0112497)
(0.0313602 0 0.013507)
(0.0356189 0 0.0156052)
(0.0393696 0 0.0175661)
(0.0426713 0 0.0194052)
(0.0455766 0 0.0211325)
(0.0481328 0 0.0227534)
(0.0503825 0 0.0242693)
(0.0523645 0 0.0256777)
(0.0541143 0 0.0269723)
(0.0556652 0 0.0281437)
(0.0570483 0 0.029178)
(0.058293 0 0.0300569)
(0.0594271 0 0.030755)
(0.0604774 0 0.0312438)
(0.0614692 0 0.0314839)
(0.0624264 0 0.0314218)
(0.0633711 0 0.030985)
(0.0643211 0 0.0300682)
(0.0652834 0 0.0285295)
(0.066242 0 0.0261871)
(0.0671327 0 0.022834)
(0.0677999 0 0.0183037)
(0.0679591 0 0.012659)
(0.0672798 0 0.0065552)
(0.065827 0 0.00153995)
(0.0548675 0 -0.00283809)
(0 0 0)
(0.00772114 0 0.00341143)
(0.0147477 0 0.0065713)
(0.0209424 0 0.00943754)
(0.0264028 0 0.0120628)
(0.0312156 0 0.0144895)
(0.0354566 0 0.01675)
(0.0391924 0 0.0188694)
(0.0424818 0 0.0208658)
(0.045377 0 0.0227523)
(0.0479249 0 0.0245373)
(0.0501679 0 0.0262255)
(0.0521443 0 0.0278184)
(0.0538894 0 0.0293145)
(0.0554359 0 0.0307096)
(0.0568144 0 0.0319967)
(0.0580535 0 0.0331658)
(0.0591808 0 0.034203)
(0.0602229 0 0.035091)
(0.0612061 0 0.0358046)
(0.0621568 0 0.0363118)
(0.0631028 0 0.0365672)
(0.064075 0 0.0364912)
(0.0651092 0 0.0359633)
(0.0662455 0 0.0348066)
(0.0675222 0 0.0327673)
(0.0689554 0 0.0295338)
(0.0705073 0 0.0248435)
(0.0720611 0 0.0189638)
(0.073512 0 0.0130566)
(0.0642754 0 -0.00858154)
(0 0 0)
(0.00768099 0 0.00363014)
(0.0146711 0 0.00699289)
(0.0208345 0 0.0100447)
(0.0262678 0 0.0128424)
(0.0310575 0 0.0154321)
(0.0352788 0 0.0178497)
(0.0389977 0 0.0201228)
(0.0422725 0 0.0222727)
(0.0451552 0 0.0243155)
(0.047692 0 0.0262628)
(0.0499247 0 0.028123)
(0.0518912 0 0.0299018)
(0.053626 0 0.0316028)
(0.0551609 0 0.0332282)
(0.0565254 0 0.0347788)
(0.0577471 0 0.036255)
(0.0588518 0 0.0376566)
(0.0598646 0 0.0389837)
(0.0608104 0 0.0402362)
(0.0617146 0 0.0414153)
(0.0626053 0 0.0425227)
(0.0635168 0 0.0435526)
(0.0644983 0 0.0444962)
(0.0656268 0 0.0453443)
(0.0670334 0 0.0460863)
(0.0689436 0 0.0467091)
(0.0717271 0 0.0471333)
(0.0758301 0 0.0471719)
(0.081297 0 0.0465919)
(0.113282 0 0.0281451)
(0 0 0)
(0.00763674 0 0.00384089)
(0.014587 0 0.00739909)
(0.0207159 0 0.0106297)
(0.0261197 0 0.0135942)
(0.0308839 0 0.0163418)
(0.0350831 0 0.0189116)
(0.0387829 0 0.0213345)
(0.042041 0 0.0236346)
(0.0449085 0 0.0258308)
(0.0474313 0 0.0279382)
(0.0496504 0 0.0299689)
(0.0516028 0 0.0319327)
(0.0533221 0 0.0338387)
(0.054839 0 0.0356954)
(0.0561814 0 0.0375119)
(0.0573749 0 0.0392993)
(0.0584433 0 0.0410713)
(0.0594083 0 0.0428469)
(0.0602909 0 0.044652)
(0.0611114 0 0.0465231)
(0.0618904 0 0.0485099)
(0.0626498 0 0.0506871)
(0.0634176 0 0.0531701)
(0.0642311 0 0.0561316)
(0.0651412 0 0.0598237)
(0.0662115 0 0.0645572)
(0.0674923 0 0.0705694)
(0.068971 0 0.0775791)
(0.0703266 0 0.0846316)
(0.0657051 0 0.128042)
(0 0 0)
(0.00797767 0 0)
(0.015228 0 0)
(0.0216109 0 0)
(0.027229 0 0)
(0.032171 0 0)
(0.0365139 0 0)
(0.0403245 0 0)
(0.043661 0 0)
(0.0465741 0 0)
(0.049108 0 0)
(0.0513007 0 0)
(0.0531852 0 0)
(0.0547894 0 0)
(0.0561368 0 0)
(0.0572468 0 0)
(0.0581349 0 0)
(0.0588129 0 0)
(0.0592892 0 0)
(0.0595684 0 0)
(0.0596515 0 0)
(0.0595351 0 0)
(0.05921 0 0)
(0.0586581 0 0)
(0.0578465 0 0)
(0.0567175 0 0)
(0.0551719 0 0)
(0.0530557 0 0)
(0.0502176 0 0)
(0.0475468 0 0)
(0 0 0)
(0 0 0)
(0.0079755 0 0.000277338)
(0.0152244 0 0.000533513)
(0.0216061 0 0.000764188)
(0.0272234 0 0.000973106)
(0.0321649 0 0.00116288)
(0.0365075 0 0.00133519)
(0.040318 0 0.00149092)
(0.0436546 0 0.00163014)
(0.0465682 0 0.00175224)
(0.0491029 0 0.00185589)
(0.0512969 0 0.00193921)
(0.0531833 0 0.00199977)
(0.05479 0 0.00203479)
(0.0561409 0 0.00204133)
(0.0572556 0 0.00201656)
(0.0581499 0 0.00195819)
(0.058836 0 0.00186493)
(0.0593228 0 0.00173706)
(0.0596159 0 0.00157695)
(0.0597178 0 0.00138943)
(0.0596272 0 0.00118179)
(0.0593393 0 0.0009648)
(0.0588445 0 0.000750373)
(0.0581261 0 0.000548581)
(0.0571612 0 0.000366254)
(0.0559265 0 0.000201899)
(0.0544332 0 3.7945e-05)
(0.0528523 0 -0.000168909)
(0.0522462 0 -0.000464793)
(0.0877164 0 -0.00206403)
(0 0 0)
(0.00797258 0 0.000554474)
(0.0152164 0 0.00106638)
(0.0215938 0 0.00152754)
(0.0272084 0 0.00194543)
(0.032148 0 0.00232523)
(0.0364893 0 0.00267041)
(0.0402992 0 0.00298274)
(0.0436361 0 0.00326249)
(0.0465508 0 0.00350847)
(0.0490878 0 0.00371817)
(0.0512855 0 0.00388789)
(0.0531772 0 0.00401288)
(0.0547915 0 0.00408763)
(0.0561527 0 0.00410624)
(0.057281 0 0.00406301)
(0.0581933 0 0.00395313)
(0.058903 0 0.00377368)
(0.0594206 0 0.0035247)
(0.0597541 0 0.00321034)
(0.0599098 0 0.00283977)
(0.0598926 0 0.00242708)
(0.0597081 0 0.00199241)
(0.0593648 0 0.00155994)
(0.0588804 0 0.00115332)
(0.0582947 0 0.000792691)
(0.0576989 0 0.000490987)
(0.0572923 0 0.000252922)
(0.0574518 0 8.10416e-05)
(0.0587356 0 -2.04228e-05)
(0.060023 0 0.00142206)
(0 0 0)
(0.00796418 0 0.000831422)
(0.0152011 0 0.00159909)
(0.0215732 0 0.00229118)
(0.0271835 0 0.00291872)
(0.0321199 0 0.00348965)
(0.036459 0 0.00400928)
(0.0402678 0 0.00448044)
(0.0436049 0 0.00490369)
(0.0465214 0 0.00527747)
(0.0490619 0 0.00559823)
(0.0512654 0 0.00586064)
(0.0531658 0 0.00605777)
(0.0547922 0 0.00618148)
(0.0561698 0 0.00622294)
(0.0573201 0 0.00617335)
(0.0582612 0 0.00602499)
(0.0590082 0 0.00577257)
(0.0595741 0 0.00541488)
(0.0599703 0 0.00495653)
(0.0602077 0 0.00440963)
(0.0602987 0 0.00379448)
(0.0602596 0 0.00313888)
(0.0601162 0 0.00247887)
(0.0599123 0 0.00185493)
(0.0597223 0 0.00130491)
(0.0596673 0 0.000860453)
(0.0599182 0 0.000546168)
(0.0606132 0 0.000383179)
(0.0615355 0 0.000374578)
(0.0626098 0 -0.000224759)
(0 0 0)
(0.00795045 0 0.001108)
(0.0151788 0 0.00213182)
(0.0215445 0 0.00305551)
(0.027149 0 0.00389368)
(0.0320807 0 0.00465723)
(0.0364166 0 0.00535347)
(0.0402238 0 0.00598644)
(0.043561 0 0.00655719)
(0.0464796 0 0.00706399)
(0.0490247 0 0.00750252)
(0.0512358 0 0.00786604)
(0.0531474 0 0.00814567)
(0.0547896 0 0.00833082)
(0.0561888 0 0.00840969)
(0.0573677 0 0.00837021)
(0.0583461 0 0.00820124)
(0.0591413 0 0.00789415)
(0.0597687 0 0.00744499)
(0.0602428 0 0.00685686)
(0.0605787 0 0.00614246)
(0.0607945 0 0.00532611)
(0.0609134 0 0.00444342)
(0.06097 0 0.00354248)
(0.0610158 0 0.00268071)
(0.0611234 0 0.00191551)
(0.0613827 0 0.00129571)
(0.0618698 0 0.000851679)
(0.0625621 0 0.000586202)
(0.0632238 0 0.000468564)
(0.0643902 0 0.00143859)
(0 0 0)
(0.00793511 0 0.00138306)
(0.0151518 0 0.00266184)
(0.0215084 0 0.00381626)
(0.0271052 0 0.00486478)
(0.0320308 0 0.00582133)
(0.0363624 0 0.00669535)
(0.0401671 0 0.00749232)
(0.043504 0 0.00821401)
(0.0464248 0 0.00885881)
(0.048975 0 0.00942194)
(0.0511947 0 0.00989562)
(0.0531193 0 0.0102694)
(0.0547799 0 0.0105304)
(0.056204 0 0.0106643)
(0.057416 0 0.0106555)
(0.0584375 0 0.0104891)
(0.0592876 0 0.0101521)
(0.0599842 0 0.00963633)
(0.0605441 0 0.0089409)
(0.060985 0 0.00807613)
(0.061327 0 0.00706672)
(0.0615952 0 0.00595409)
(0.0618233 0 0.0047976)
(0.0620554 0 0.00367162)
(0.0623437 0 0.00265639)
(0.0627356 0 0.00182357)
(0.0632423 0 0.00121584)
(0.0637937 0 0.00082501)
(0.0642222 0 0.000590897)
(0.0641762 0 -0.00100598)
(0 0 0)
(0.00791772 0 0.00165523)
(0.01512 0 0.00318625)
(0.0214649 0 0.00456924)
(0.027052 0 0.00582662)
(0.03197 0 0.00697543)
(0.036296 0 0.00802749)
(0.0400974 0 0.00898987)
(0.0434334 0 0.00986539)
(0.046356 0 0.0106529)
(0.0489113 0 0.0113476)
(0.05114 0 0.0119411)
(0.0530782 0 0.0124219)
(0.0547583 0 0.0127754)
(0.0562091 0 0.0129849)
(0.0574563 0 0.0130318)
(0.0585234 0 0.0128971)
(0.0594313 0 0.012563)
(0.0601998 0 0.0120152)
(0.0608472 0 0.0112463)
(0.061392 0 0.0102605)
(0.0618535 0 0.00907835)
(0.0622534 0 0.00774157)
(0.0626177 0 0.00631663)
(0.062976 0 0.00489454)
(0.0633575 0 0.00358331)
(0.063778 0 0.00249102)
(0.06422 0 0.0016997)
(0.0646173 0 0.00123786)
(0.0648774 0 0.00106445)
(0.0655514 0 0.00151335)
(0 0 0)
(0.00789795 0 0.00192371)
(0.0150832 0 0.00370359)
(0.021414 0 0.00531238)
(0.0269894 0 0.00677656)
(0.0318981 0 0.00811649)
(0.0362171 0 0.00934647)
(0.040014 0 0.0104755)
(0.0433481 0 0.0115077)
(0.0462719 0 0.0124427)
(0.0488316 0 0.0132763)
(0.0510689 0 0.0140001)
(0.0530205 0 0.014602)
(0.0547199 0 0.0150665)
(0.056197 0 0.0153751)
(0.0574793 0 0.0155067)
(0.0585917 0 0.0154386)
(0.0595568 0 0.0151479)
(0.0603957 0 0.0146128)
(0.0611277 0 0.0138171)
(0.0617707 0 0.0127546)
(0.0623411 0 0.0114354)
(0.0628545 0 0.00989385)
(0.0633257 0 0.00819549)
(0.0637685 0 0.00644277)
(0.0641926 0 0.00477232)
(0.0645976 0 0.0033383)
(0.0649621 0 0.00227646)
(0.0652371 0 0.00165404)
(0.0653691 0 0.00142965)
(0.0649388 0 0.00248338)
(0 0 0)
(0.00787559 0 0.00218774)
(0.0150411 0 0.00421243)
(0.0213553 0 0.00604364)
(0.0269171 0 0.00771207)
(0.0318146 0 0.00924146)
(0.0361252 0 0.0106489)
(0.0399162 0 0.0119454)
(0.0432473 0 0.0131368)
(0.0461709 0 0.0142242)
(0.0487341 0 0.0152041)
(0.0509787 0 0.0160688)
(0.0529424 0 0.0168065)
(0.0546595 0 0.0174016)
(0.0561611 0 0.0178347)
(0.057476 0 0.0180832)
(0.0586306 0 0.0181215)
(0.0596489 0 0.0179223)
(0.0605531 0 0.0174559)
(0.0613632 0 0.0166952)
(0.0620961 0 0.0156199)
(0.0627651 0 0.014223)
(0.0633783 0 0.0125206)
(0.0639391 0 0.0105644)
(0.0644453 0 0.00845486)
(0.0648915 0 0.00634989)
(0.065272 0 0.00445621)
(0.0655814 0 0.00298552)
(0.0658112 0 0.00205777)
(0.0659429 0 0.00158903)
(0.0658265 0 -0.000246608)
(0 0 0)
(0.00785047 0 0.00244659)
(0.0149937 0 0.00471135)
(0.0212889 0 0.00676099)
(0.0268347 0 0.0086305)
(0.0317193 0 0.0103472)
(0.0360197 0 0.011931)
(0.0398033 0 0.0133953)
(0.0431298 0 0.0147481)
(0.0460519 0 0.0159921)
(0.0486168 0 0.0171253)
(0.0508668 0 0.0181413)
(0.0528404 0 0.0190294)
(0.0545723 0 0.0197748)
(0.0560949 0 0.0203586)
(0.0574379 0 0.0207577)
(0.058629 0 0.0209455)
(0.0596936 0 0.0208921)
(0.0606548 0 0.0205609)
(0.0615335 0 0.0199131)
(0.0623465 0 0.0189128)
(0.0631047 0 0.0175295)
(0.0638106 0 0.01575)
(0.0644568 0 0.0135931)
(0.0650255 0 0.0111326)
(0.0654939 0 0.00852399)
(0.0658479 0 0.00602326)
(0.0661021 0 0.00397371)
(0.0663046 0 0.00271025)
(0.0664844 0 0.00233033)
(0.0673415 0 0.00186139)
(0 0 0)
(0.00782246 0 0.00269949)
(0.0149406 0 0.0051989)
(0.0212144 0 0.00746232)
(0.0267422 0 0.00952912)
(0.0316119 0 0.0114303)
(0.0359002 0 0.0131888)
(0.0396747 0 0.0148208)
(0.0429949 0 0.0163363)
(0.0459136 0 0.0177403)
(0.0484781 0 0.0190329)
(0.0507311 0 0.0202095)
(0.0527113 0 0.0212616)
(0.0544541 0 0.0221761)
(0.0559926 0 0.0229359)
(0.0573573 0 0.0235192)
(0.0585772 0 0.0238995)
(0.0596784 0 0.024046)
(0.060685 0 0.0239194)
(0.0616195 0 0.0234752)
(0.0625 0 0.0226616)
(0.0633378 0 0.0214218)
(0.0641336 0 0.0197054)
(0.0648735 0 0.0174787)
(0.0655251 0 0.0147525)
(0.0660401 0 0.0116253)
(0.0663728 0 0.0083384)
(0.0665244 0 0.0053279)
(0.0666029 0 0.00318392)
(0.0668036 0 0.00236276)
(0.0663178 0 0.00754417)
(0 0 0)
(0.00779158 0 0.00294544)
(0.0148819 0 0.00567308)
(0.0211319 0 0.00814466)
(0.0266394 0 0.010404)
(0.0314921 0 0.0124859)
(0.0357666 0 0.0144164)
(0.0395301 0 0.0162144)
(0.042842 0 0.0178928)
(0.0457552 0 0.0194587)
(0.0483169 0 0.0209148)
(0.0505699 0 0.0222593)
(0.052553 0 0.0234862)
(0.054302 0 0.0245856)
(0.0558501 0 0.0255433)
(0.0572285 0 0.0263408)
(0.0584668 0 0.0269539)
(0.0595919 0 0.0273516)
(0.0606295 0 0.0274984)
(0.0616033 0 0.0273512)
(0.0625342 0 0.0268489)
(0.0634374 0 0.0259167)
(0.0643189 0 0.024468)
(0.0651676 0 0.0224061)
(0.0659459 0 0.0196447)
(0.0665787 0 0.0161511)
(0.0669529 0 0.0120253)
(0.0669554 0 0.00763078)
(0.0665917 0 0.00368053)
(0.0661694 0 0.00108343)
(0.0724389 0 -0.00284433)
(0 0 0)
(0.0077579 0 0.00318307)
(0.0148178 0 0.00613115)
(0.0210414 0 0.00880393)
(0.0265264 0 0.0112497)
(0.0313602 0 0.013507)
(0.0356189 0 0.0156052)
(0.0393696 0 0.0175661)
(0.0426713 0 0.0194052)
(0.0455766 0 0.0211325)
(0.0481328 0 0.0227534)
(0.0503825 0 0.0242693)
(0.0523645 0 0.0256777)
(0.0541143 0 0.0269723)
(0.0556652 0 0.0281437)
(0.0570483 0 0.029178)
(0.058293 0 0.0300569)
(0.0594271 0 0.030755)
(0.0604774 0 0.0312438)
(0.0614692 0 0.0314839)
(0.0624264 0 0.0314218)
(0.0633711 0 0.030985)
(0.0643211 0 0.0300682)
(0.0652834 0 0.0285295)
(0.066242 0 0.0261871)
(0.0671327 0 0.022834)
(0.0677999 0 0.0183037)
(0.0679591 0 0.012659)
(0.0672798 0 0.0065552)
(0.065827 0 0.00153995)
(0.0548675 0 -0.00283809)
(0 0 0)
(0.00772114 0 0.00341143)
(0.0147477 0 0.0065713)
(0.0209424 0 0.00943754)
(0.0264028 0 0.0120628)
(0.0312156 0 0.0144895)
(0.0354566 0 0.01675)
(0.0391924 0 0.0188694)
(0.0424818 0 0.0208658)
(0.045377 0 0.0227523)
(0.0479249 0 0.0245373)
(0.0501679 0 0.0262255)
(0.0521443 0 0.0278184)
(0.0538894 0 0.0293145)
(0.0554359 0 0.0307096)
(0.0568144 0 0.0319967)
(0.0580535 0 0.0331658)
(0.0591808 0 0.034203)
(0.0602229 0 0.035091)
(0.0612061 0 0.0358046)
(0.0621568 0 0.0363118)
(0.0631028 0 0.0365672)
(0.064075 0 0.0364912)
(0.0651092 0 0.0359633)
(0.0662455 0 0.0348066)
(0.0675222 0 0.0327673)
(0.0689554 0 0.0295338)
(0.0705073 0 0.0248435)
(0.0720611 0 0.0189638)
(0.073512 0 0.0130566)
(0.0642754 0 -0.00858154)
(0 0 0)
(0.00768099 0 0.00363014)
(0.0146711 0 0.00699289)
(0.0208345 0 0.0100447)
(0.0262678 0 0.0128424)
(0.0310575 0 0.0154321)
(0.0352788 0 0.0178497)
(0.0389977 0 0.0201228)
(0.0422725 0 0.0222727)
(0.0451552 0 0.0243155)
(0.047692 0 0.0262628)
(0.0499247 0 0.028123)
(0.0518912 0 0.0299018)
(0.053626 0 0.0316028)
(0.0551609 0 0.0332282)
(0.0565254 0 0.0347788)
(0.0577471 0 0.036255)
(0.0588518 0 0.0376566)
(0.0598646 0 0.0389837)
(0.0608104 0 0.0402362)
(0.0617146 0 0.0414153)
(0.0626053 0 0.0425227)
(0.0635168 0 0.0435526)
(0.0644983 0 0.0444962)
(0.0656268 0 0.0453443)
(0.0670334 0 0.0460863)
(0.0689436 0 0.0467091)
(0.0717271 0 0.0471333)
(0.0758301 0 0.0471719)
(0.081297 0 0.0465919)
(0.113282 0 0.0281451)
(0 0 0)
(0.00763674 0 0.00384089)
(0.014587 0 0.00739909)
(0.0207159 0 0.0106297)
(0.0261197 0 0.0135942)
(0.0308839 0 0.0163418)
(0.0350831 0 0.0189116)
(0.0387829 0 0.0213345)
(0.042041 0 0.0236346)
(0.0449085 0 0.0258308)
(0.0474313 0 0.0279382)
(0.0496504 0 0.0299689)
(0.0516028 0 0.0319327)
(0.0533221 0 0.0338387)
(0.054839 0 0.0356954)
(0.0561814 0 0.0375119)
(0.0573749 0 0.0392993)
(0.0584433 0 0.0410713)
(0.0594083 0 0.0428469)
(0.0602909 0 0.044652)
(0.0611114 0 0.0465231)
(0.0618904 0 0.0485099)
(0.0626498 0 0.0506871)
(0.0634176 0 0.0531701)
(0.0642311 0 0.0561316)
(0.0651412 0 0.0598237)
(0.0662115 0 0.0645572)
(0.0674923 0 0.0705694)
(0.068971 0 0.0775791)
(0.0703266 0 0.0846316)
(0.0657051 0 0.128042)
(0 0 0)
(0.0465096 0 0)
(0.0520975 0 0)
(0.0549184 0 0)
(0.0563707 0 0)
(0.0572075 0 0)
(0.0577034 0 0)
(0.0579589 0 0)
(0.0580132 0 0)
(0.0578842 0 0)
(0.0575817 0 0)
(0.0571121 0 0)
(0.0564788 0 0)
(0.0556819 0 0)
(0.0547184 0 0)
(0.0535815 0 0)
(0.0522603 0 0)
(0.0507404 0 0)
(0.0490042 0 0)
(0.0470308 0 0)
(0.0447956 0 0)
(0.0422701 0 0)
(0.0394223 0 0)
(0.0362163 0 0)
(0.0326124 0 0)
(0.0285664 0 0)
(0.0240297 0 0)
(0.0189486 0 0)
(0.0132643 0 0)
(0.00690944 0 0)
(0 0 0)
(0.0770148 0 -0.00821354)
(0.053257 0 -0.00174039)
(0.0550061 0 -0.000999114)
(0.0560832 0 -0.000419658)
(0.056875 0 -6.5841e-05)
(0.0574595 0 0.000173988)
(0.0578488 0 0.000365362)
(0.058051 0 0.000539451)
(0.0580736 0 0.000707812)
(0.057923 0 0.00087153)
(0.0576051 0 0.00102691)
(0.057124 0 0.00116879)
(0.0564823 0 0.00129235)
(0.0556794 0 0.00139392)
(0.0547118 0 0.0014713)
(0.0535722 0 0.00152348)
(0.0522496 0 0.00155)
(0.0507287 0 0.00155284)
(0.0489921 0 0.00153446)
(0.0470188 0 0.00149581)
(0.0447841 0 0.00143842)
(0.0422592 0 0.00136381)
(0.0394122 0 0.00127325)
(0.0362071 0 0.00116768)
(0.0326041 0 0.00104761)
(0.0285591 0 0.000913138)
(0.0240235 0 0.000763872)
(0.0189437 0 0.000598955)
(0.0132606 0 0.000417034)
(0.00690715 0 0.000216208)
(0 0 0)
(0.0538519 0 0.0019376)
(0.0593936 0 -0.00111822)
(0.0582621 0 -0.000734842)
(0.057795 0 -0.0002791)
(0.0578331 0 0.000120413)
(0.0580395 0 0.000470236)
(0.058224 0 0.000799025)
(0.0583025 0 0.0011253)
(0.0582423 0 0.00145339)
(0.0580323 0 0.00177716)
(0.0576702 0 0.00208563)
(0.0571563 0 0.00236702)
(0.0564903 0 0.00261124)
(0.0556701 0 0.00281105)
(0.0546906 0 0.00296227)
(0.0535437 0 0.00306337)
(0.0522167 0 0.0031145)
(0.0506932 0 0.00311859)
(0.0489556 0 0.00307938)
(0.0469829 0 0.00299972)
(0.0447496 0 0.00288291)
(0.0422268 0 0.00273202)
(0.0393823 0 0.00254958)
(0.03618 0 0.00233741)
(0.0325801 0 0.00209652)
(0.0285384 0 0.00182702)
(0.0240063 0 0.00152812)
(0.0189303 0 0.00119806)
(0.0132513 0 0.000834097)
(0.00690231 0 0.000432406)
(0 0 0)
(0.0595507 0 -3.73367e-05)
(0.0590414 0 3.38997e-05)
(0.0589189 0 3.57299e-05)
(0.0587458 0 0.000230913)
(0.0586896 0 0.000539876)
(0.0587106 0 0.000914695)
(0.058722 0 0.00133737)
(0.0586601 0 0.00179667)
(0.0584894 0 0.00227676)
(0.058193 0 0.00275691)
(0.0577642 0 0.00321507)
(0.0571997 0 0.00363134)
(0.0564963 0 0.00399013)
(0.0556493 0 0.00428099)
(0.0546515 0 0.00449837)
(0.0534928 0 0.00464096)
(0.0521589 0 0.00471103)
(0.0506322 0 0.00471134)
(0.0488941 0 0.00464572)
(0.0469228 0 0.00452005)
(0.0446922 0 0.00433963)
(0.042173 0 0.00410907)
(0.0393327 0 0.00383207)
(0.0361351 0 0.00351125)
(0.0325403 0 0.00314799)
(0.0285041 0 0.00274237)
(0.0239779 0 0.00229308)
(0.0189081 0 0.00179742)
(0.0132359 0 0.0012512)
(0.00689436 0 0.000648576)
(0 0 0)
(0.0589159 0 0.000931425)
(0.0594397 0 0.00068426)
(0.0595223 0 0.000675121)
(0.0595192 0 0.00079216)
(0.0594714 0 0.00106133)
(0.0593947 0 0.00146673)
(0.0592697 0 0.00198189)
(0.0590702 0 0.00257469)
(0.0587768 0 0.00320826)
(0.0583781 0 0.00384475)
(0.0578675 0 0.00444949)
(0.05724 0 0.00499416)
(0.0564899 0 0.00545831)
(0.0556097 0 0.00582922)
(0.0545894 0 0.00610099)
(0.0534161 0 0.00627322)
(0.0520741 0 0.00634988)
(0.0505446 0 0.00633526)
(0.0488071 0 0.00623477)
(0.0468384 0 0.00605629)
(0.0446119 0 0.00580684)
(0.042098 0 0.0054924)
(0.0392637 0 0.00511769)
(0.0360728 0 0.00468596)
(0.0324851 0 0.00419884)
(0.0284565 0 0.00365622)
(0.0239385 0 0.00305621)
(0.0188775 0 0.00239501)
(0.0132148 0 0.0016669)
(0.00688346 0 0.000863985)
(0 0 0)
(0.0591413 0 0.00129479)
(0.0601702 0 0.00119344)
(0.0602853 0 0.00120219)
(0.0603153 0 0.00132262)
(0.0602424 0 0.00161618)
(0.0600762 0 0.00209412)
(0.0598238 0 0.00272998)
(0.0594869 0 0.00347539)
(0.0590648 0 0.00427359)
(0.0585555 0 0.00506971)
(0.0579554 0 0.00581719)
(0.057259 0 0.00648077)
(0.0564581 0 0.00703688)
(0.0555423 0 0.0074724)
(0.0544983 0 0.00778252)
(0.0533105 0 0.00796872)
(0.051961 0 0.00803664)
(0.0504296 0 0.00799352)
(0.0486938 0 0.00784759)
(0.0467293 0 0.00760792)
(0.0445087 0 0.0072829)
(0.0420017 0 0.00687964)
(0.0391754 0 0.00640365)
(0.035993 0 0.00585861)
(0.0324145 0 0.00524618)
(0.0283958 0 0.00456593)
(0.0238883 0 0.00381518)
(0.0188385 0 0.00298897)
(0.0131879 0 0.00207993)
(0.00686961 0 0.00107796)
(0 0 0)
(0.0623409 0 0.00148842)
(0.0612063 0 0.00162092)
(0.0612281 0 0.00165372)
(0.0611914 0 0.00181277)
(0.0610326 0 0.00218467)
(0.060746 0 0.00279114)
(0.060351 0 0.00359498)
(0.0598688 0 0.00452639)
(0.0593136 0 0.00550734)
(0.0586914 0 0.00646725)
(0.0580013 0 0.00735052)
(0.0572365 0 0.00811834)
(0.0563863 0 0.0087473)
(0.0554367 0 0.00922647)
(0.0543712 0 0.00955412)
(0.0531713 0 0.00973484)
(0.0518167 0 0.00977712)
(0.0502854 0 0.00969107)
(0.0485534 0 0.00948736)
(0.046595 0 0.00917659)
(0.0443822 0 0.00876829)
(0.0418843 0 0.00827045)
(0.0390678 0 0.00768905)
(0.035896 0 0.00702795)
(0.0323288 0 0.00628861)
(0.0283221 0 0.00547006)
(0.0238273 0 0.0045687)
(0.0187912 0 0.00357822)
(0.0131552 0 0.00248948)
(0.00685281 0 0.0012901)
(0 0 0)
(0.0613409 0 0.00219848)
(0.0621559 0 0.00202956)
(0.0622143 0 0.00205088)
(0.0621132 0 0.00226413)
(0.0618229 0 0.00277291)
(0.0613734 0 0.00358136)
(0.0608102 0 0.00461761)
(0.0601717 0 0.00577834)
(0.0594821 0 0.00696206)
(0.0587512 0 0.00808597)
(0.0579776 0 0.009091)
(0.0571518 0 0.00994037)
(0.0562594 0 0.0106154)
(0.0552824 0 0.0111106)
(0.054201 0 0.0114295)
(0.0529938 0 0.0115811)
(0.0516382 0 0.0115775)
(0.0501102 0 0.0114314)
(0.0483848 0 0.0111559)
(0.0464352 0 0.0107629)
(0.0442325 0 0.0102627)
(0.0417457 0 0.00966388)
(0.0389411 0 0.00897256)
(0.035782 0 0.00819244)
(0.0322281 0 0.00732454)
(0.0282354 0 0.0063671)
(0.0237556 0 0.00531539)
(0.0187355 0 0.00416163)
(0.0131168 0 0.00289476)
(0.00683304 0 0.00149996)
(0 0 0)
(0.0625149 0 0.00262537)
(0.0633965 0 0.00230477)
(0.0633632 0 0.00233747)
(0.0630809 0 0.00265951)
(0.0625702 0 0.00340462)
(0.0619015 0 0.00452119)
(0.0611428 0 0.00587144)