/*--------------------------------*- C++ -*----------------------------------*\
| =========                 |                                                 |
| \\      /  F ield         | OpenFOAM: The Open Source CFD Toolbox           |
|  \\    /   O peration     | Version:  dev                                   |
|   \\  /    A nd           | Web:      www.OpenFOAM.org                      |
|    \\/     M anipulation  |                                                 |
\*---------------------------------------------------------------------------*/
FoamFile
{
    version     2.0;
    format      ascii;
    class       volVectorField;
    location    "0.26";
    object      cellDisplacement;
}
// * * * * * * * * * * * * * * * * * * * * * * * * * * * * * * * * * * * * * //

dimensions      [0 1 0 0 0 0 0];

internalField   nonuniform List<vector> 
2790
(
(0.00160308 0 2.87224e-05)
(0.00462027 0 8.31834e-05)
(0.00729215 0 0.000132179)
(0.00965582 0 0.000176544)
(0.0117447 0 0.00021692)
(0.0135882 0 0.000253756)
(0.0152119 0 0.000287329)
(0.0166384 0 0.000317825)
(0.0178854 0 0.000345991)
(0.0189703 0 0.000370126)
(0.019909 0 0.00039066)
(0.0207141 0 0.000407204)
(0.021396 0 0.000419214)
(0.0219634 0 0.000426066)
(0.0224237 0 0.000427093)
(0.0227825 0 0.000421645)
(0.0230444 0 0.000409167)
(0.0232133 0 0.000389301)
(0.0232922 0 0.000362007)
(0.0232838 0 0.000327684)
(0.0231912 0 0.000287264)
(0.0230173 0 0.000242239)
(0.0227653 0 0.000194524)
(0.0224369 0 0.000146081)
(0.0220297 0 9.79742e-05)
(0.0215308 0 4.81102e-05)
(0.0209043 0 -1.45145e-05)
(0.0200746 0 -0.000123602)
(0.0189357 0 -0.000357037)
(0.0177698 0 -0.00076219)
(0.00160243 0 8.63192e-05)
(0.0046185 0 0.000250022)
(0.00728949 0 0.000397352)
(0.00965248 0 0.000530823)
(0.0117409 0 0.00065237)
(0.0135841 0 0.000763348)
(0.0152079 0 0.000864574)
(0.0166352 0 0.000956391)
(0.0178829 0 0.00103855)
(0.0189684 0 0.00111106)
(0.0199087 0 0.00117312)
(0.0207159 0 0.00122337)
(0.0214007 0 0.00126018)
(0.021972 0 0.00128169)
(0.022437 0 0.0012859)
(0.0228018 0 0.00127087)
(0.0230711 0 0.00123488)
(0.023249 0 0.0011768)
(0.0233386 0 0.00109642)
(0.0233432 0 0.00099482)
(0.0232662 0 0.000874681)
(0.0231118 0 0.000740432)
(0.0228857 0 0.000598001)
(0.0225956 0 0.000454043)
(0.022253 0 0.000314332)
(0.0218781 0 0.000180927)
(0.0215164 0 4.76037e-05)
(0.0212915 0 -0.00010506)
(0.0215185 0 -0.000304918)
(0.0226564 0 -0.000545378)
(0.00160131 0 0.000143852)
(0.00461529 0 0.000416696)
(0.00728457 0 0.00066232)
(0.00964622 0 0.00088494)
(0.0117337 0 0.0010878)
(0.0135764 0 0.0012732)
(0.0152 0 0.0014425)
(0.016627 0 0.00159615)
(0.0178761 0 0.00173294)
(0.0189643 0 0.001855)
(0.0199079 0 0.00196002)
(0.0207194 0 0.00204577)
(0.0214099 0 0.0021096)
(0.0219884 0 0.00214846)
(0.0224628 0 0.00215904)
(0.0228393 0 0.00213803)
(0.0231231 0 0.00208248)
(0.0233185 0 0.00199028)
(0.0234292 0 0.00186075)
(0.0234587 0 0.00169529)
(0.0234113 0 0.00149796)
(0.0232924 0 0.00127588)
(0.0231106 0 0.00103914)
(0.022879 0 0.000800097)
(0.0226193 0 0.000572087)
(0.0223672 0 0.00036811)
(0.0221798 0 0.000201858)
(0.0221327 0 9.64691e-05)
(0.0222603 0 0.000104638)
(0.0223733 0 0.000278403)
(0.00159962 0 0.000200974)
(0.00461049 0 0.000582185)
(0.00727718 0 0.000925438)
(0.0096368 0 0.00123667)
(0.0117228 0 0.00152046)
(0.0135647 0 0.00178007)
(0.0151881 0 0.00201753)
(0.0166155 0 0.0022337)
(0.0178663 0 0.00242832)
(0.0189579 0 0.00260166)
(0.019906 0 0.00275167)
(0.0207236 0 0.00287551)
(0.0214222 0 0.00296963)
(0.0220113 0 0.00302988)
(0.0224991 0 0.00305166)
(0.0228925 0 0.00303029)
(0.0231972 0 0.0029614)
(0.0234178 0 0.00284164)
(0.0235586 0 0.00266941)
(0.0236235 0 0.00244585)
(0.0236171 0 0.0021757)
(0.0235456 0 0.00186819)
(0.0234184 0 0.0015372)
(0.0232501 0 0.00120096)
(0.0230638 0 0.000880625)
(0.0228923 0 0.000598159)
(0.0227765 0 0.000373524)
(0.0227481 0 0.000220212)
(0.0227909 0 0.000132929)
(0.0228188 0 6.94574e-05)
(0.00159736 0 0.000257647)
(0.00460405 0 0.000746388)
(0.00726726 0 0.00118658)
(0.00962413 0 0.0015859)
(0.0117082 0 0.00195032)
(0.0135488 0 0.0022841)
(0.0151719 0 0.00259002)
(0.0166001 0 0.00286943)
(0.0178531 0 0.00312251)
(0.0189485 0 0.00334881)
(0.019902 0 0.00354615)
(0.0207273 0 0.00371124)
(0.021436 0 0.00383978)
(0.0220383 0 0.00392664)
(0.022543 0 0.00396604)
(0.0229575 0 0.00395191)
(0.0232883 0 0.00387837)
(0.0235406 0 0.00374049)
(0.0237191 0 0.00353523)
(0.0238281 0 0.00326261)
(0.0238719 0 0.00292708)
(0.0238563 0 0.00253878)
(0.0237892 0 0.00211443)
(0.023683 0 0.00167744)
(0.0235558 0 0.0012566)
(0.0234317 0 0.000882873)
(0.0233372 0 0.000583915)
(0.0232905 0 0.0003756)
(0.0232901 0 0.000251255)
(0.0233156 0 0.000181979)
(0.00159452 0 0.000313715)
(0.00459594 0 0.000908857)
(0.00725474 0 0.00144505)
(0.0096081 0 0.00193174)
(0.0116896 0 0.0023763)
(0.0135287 0 0.0027841)
(0.0151513 0 0.00315867)
(0.0165802 0 0.00350196)
(0.0178356 0 0.0038145)
(0.0189352 0 0.00409559)
(0.0198949 0 0.00434298)
(0.0207288 0 0.00455305)
(0.0214491 0 0.00472096)
(0.0220666 0 0.00484079)
(0.0225907 0 0.00490573)
(0.0230296 0 0.0049084)
(0.0233906 0 0.00484133)
(0.0236796 0 0.00469774)
(0.0239018 0 0.00447254)
(0.0240617 0 0.00416369)
(0.0241631 0 0.00377393)
(0.0242102 0 0.00331265)
(0.0242079 0 0.00279759)
(0.0241633 0 0.00225587)
(0.0240869 0 0.00172338)
(0.0239923 0 0.00124145)
(0.0238949 0 0.000850493)
(0.0238078 0 0.000582109)
(0.0237375 0 0.000454345)
(0.0236886 0 0.000463539)
(0.00159107 0 0.000369027)
(0.0045861 0 0.00106916)
(0.00723952 0 0.00170016)
(0.00958857 0 0.00227328)
(0.0116668 0 0.00279734)
(0.0135039 0 0.00327884)
(0.0151257 0 0.00372218)
(0.0165553 0 0.00412994)
(0.017813 0 0.00450305)
(0.0189169 0 0.00484092)
(0.0198832 0 0.00514133)
(0.0207263 0 0.00540055)
(0.021459 0 0.00561342)
(0.0220928 0 0.0057735)
(0.0226378 0 0.00587318)
(0.0231032 0 0.00590395)
(0.023497 0 0.00585682)
(0.0238261 0 0.00572299)
(0.0240963 0 0.00549479)
(0.0243122 0 0.00516716)
(0.0244774 0 0.0047395)
(0.0245938 0 0.0042182)
(0.0246626 0 0.00361931)
(0.0246847 0 0.00297101)
(0.0246613 0 0.00231455)
(0.0245958 0 0.00170167)
(0.0244954 0 0.00118628)
(0.0243743 0 0.000808762)
(0.0242596 0 0.000574464)
(0.0241973 0 0.000445412)
(0.00158699 0 0.000423431)
(0.00457446 0 0.00122685)
(0.0072215 0 0.00195121)
(0.00956538 0 0.00260959)
(0.0116397 0 0.00321231)
(0.0134742 0 0.00376703)
(0.0150948 0 0.0042791)
(0.0165247 0 0.00475182)
(0.0177845 0 0.00518663)
(0.0188926 0 0.00558327)
(0.0198654 0 0.00593976)
(0.0207178 0 0.0062525)
(0.0214631 0 0.00651629)
(0.0221135 0 0.00672449)
(0.0226799 0 0.00686902)
(0.0231724 0 0.00694057)
(0.0235999 0 0.00692889)
(0.0239705 0 0.00682319)
(0.0242909 0 0.00661303)
(0.0245662 0 0.00628945)
(0.0247999 0 0.00584698)
(0.0249924 0 0.00528638)
(0.0251414 0 0.00461833)
(0.0252416 0 0.00386785)
(0.0252851 0 0.00307809)
(0.0252644 0 0.00231108)
(0.0251774 0 0.00164159)
(0.0250333 0 0.00114065)
(0.024859 0 0.00085067)
(0.0247093 0 0.000760653)
(0.00158227 0 0.000476772)
(0.00456095 0 0.00138148)
(0.00720056 0 0.00219749)
(0.00953836 0 0.00293973)
(0.011608 0 0.00362005)
(0.0134392 0 0.00424732)
(0.015058 0 0.0048279)
(0.0164878 0 0.00536589)
(0.0177493 0 0.00586341)
(0.0188611 0 0.0063207)
(0.01984 0 0.00673626)
(0.0207011 0 0.00710685)
(0.0214585 0 0.00742758)
(0.0221249 0 0.00769198)
(0.022712 0 0.00789195)
(0.0232308 0 0.00801787)
(0.0236913 0 0.00805867)
(0.0241027 0 0.00800205)
(0.0244731 0 0.00783492)
(0.0248087 0 0.00754421)
(0.0251136 0 0.00711838)
(0.0253881 0 0.00655007)
(0.0256282 0 0.00584027)
(0.0258236 0 0.00500452)
(0.0259586 0 0.00408074)
(0.0260147 0 0.0031361)
(0.025979 0 0.00226727)
(0.0258594 0 0.00158493)
(0.0257016 0 0.00117601)
(0.0255952 0 0.00104951)
(0.00157686 0 0.0005289)
(0.0045455 0 0.00153262)
(0.00717656 0 0.00243831)
(0.00950734 0 0.00326277)
(0.0115715 0 0.00401938)
(0.0133986 0 0.00471831)
(0.0150149 0 0.00536695)
(0.0164439 0 0.00597033)
(0.0177064 0 0.00653133)
(0.0188212 0 0.00705092)
(0.0198053 0 0.00752825)
(0.0206743 0 0.00796075)
(0.0214426 0 0.00834418)
(0.0221235 0 0.00867264)
(0.0227294 0 0.00893856)
(0.0232722 0 0.00913263)
(0.023763 0 0.00924372)
(0.0242124 0 0.00925883)
(0.0246297 0 0.00916304)
(0.0250232 0 0.00893974)
(0.0253987 0 0.00857126)
(0.0257585 0 0.00804061)
(0.0260992 0 0.00733499)
(0.0264094 0 0.00645266)
(0.0266679 0 0.00541439)
(0.0268444 0 0.00427891)
(0.0269084 0 0.00315673)
(0.0268507 0 0.0022045)
(0.026719 0 0.00157109)
(0.0266336 0 0.00129391)
(0.00157076 0 0.000579638)
(0.00452804 0 0.00167974)
(0.00714942 0 0.00267283)
(0.00947214 0 0.00357757)
(0.0115298 0 0.00440889)
(0.0133521 0 0.00517825)
(0.0149652 0 0.00589419)
(0.0163925 0 0.00656269)
(0.0176551 0 0.00718756)
(0.0187719 0 0.00777061)
(0.0197601 0 0.00831188)
(0.0206355 0 0.00880971)
(0.0214129 0 0.00926083)
(0.022106 0 0.00966038)
(0.0227278 0 0.0100019)
(0.023291 0 0.010277)
(0.0238075 0 0.0104756)
(0.0242892 0 0.0105852)
(0.0247472 0 0.0105905)
(0.0251918 0 0.0104731)
(0.0256321 0 0.0102108)
(0.026074 0 0.00977782)
(0.0265187 0 0.00914591)
(0.0269589 0 0.00828921)
(0.027374 0 0.00719588)
(0.0277253 0 0.00589137)
(0.0279561 0 0.00447553)
(0.0280084 0 0.00315921)
(0.0278681 0 0.00224073)
(0.0276442 0 0.00190045)
(0.00156393 0 0.000628822)
(0.00450849 0 0.00182238)
(0.00711899 0 0.00290029)
(0.0094326 0 0.00388309)
(0.0114828 0 0.00478724)
(0.0132993 0 0.00562555)
(0.0149082 0 0.00640768)
(0.016333 0 0.00714069)
(0.0175947 0 0.00782935)
(0.0187122 0 0.0084765)
(0.019703 0 0.00908321)
(0.0205831 0 0.00964895)
(0.0213672 0 0.0101717)
(0.0220695 0 0.0106482)
(0.0227035 0 0.0110733)
(0.0232821 0 0.0114408)
(0.0238181 0 0.0117423)
(0.0243242 0 0.0119674)
(0.0248131 0 0.0121027)
(0.0252974 0 0.0121307)
(0.0257894 0 0.0120286)
(0.0263006 0 0.0117662)
(0.02684 0 0.0113037)
(0.0274114 0 0.0105909)
(0.0280063 0 0.00957122)
(0.0285931 0 0.00820084)
(0.0291026 0 0.00650004)
(0.029426 0 0.00466193)
(0.0294726 0 0.00319903)
(0.0293717 0 0.00284539)
(0.00155636 0 0.000676276)
(0.0044868 0 0.00196001)
(0.0070852 0 0.00311986)
(0.00938859 0 0.00417818)
(0.0114304 0 0.00515296)
(0.0132401 0 0.00605834)
(0.0148438 0 0.00690516)
(0.016265 0 0.00770157)
(0.0175246 0 0.00845339)
(0.0186415 0 0.00916455)
(0.0196332 0 0.00983729)
(0.0205157 0 0.0104724)
(0.0213039 0 0.0110694)
(0.022012 0 0.0116266)
(0.0226536 0 0.0121413)
(0.0232418 0 0.0126094)
(0.0237897 0 0.0130258)
(0.0243105 0 0.0133833)
(0.0248176 0 0.0136726)
(0.0253253 0 0.013881)
(0.0258486 0 0.0139904)
(0.0264038 0 0.0139745)
(0.0270093 0 0.0137936)
(0.027684 0 0.0133876)
(0.0284448 0 0.0126658)
(0.0292951 0 0.0114978)
(0.0301956 0 0.00972267)
(0.0310065 0 0.00722611)
(0.031437 0 0.00418739)
(0.03116 0 0.00163629)
(0.00154797 0 0.000721882)
(0.0044628 0 0.0020923)
(0.00704783 0 0.00333106)
(0.00933985 0 0.0044622)
(0.0113721 0 0.00550525)
(0.013174 0 0.00647565)
(0.0147715 0 0.00738542)
(0.0161879 0 0.00824382)
(0.0174441 0 0.00905777)
(0.0185589 0 0.00983234)
(0.0195497 0 0.010571)
(0.0204323 0 0.011276)
(0.0212217 0 0.0119485)
(0.0219318 0 0.0125888)
(0.022576 0 0.0131965)
(0.0231675 0 0.0137707)
(0.023719 0 0.0143097)
(0.0242434 0 0.0148113)
(0.0247542 0 0.0152721)
(0.0252655 0 0.0156874)
(0.0257933 0 0.0160497)
(0.0263557 0 0.0163468)
(0.0269761 0 0.0165576)
(0.0276851 0 0.0166448)
(0.0285262 0 0.0165407)
(0.0295609 0 0.016119)
(0.0308686 0 0.01515)
(0.0325097 0 0.0132661)
(0.0343776 0 0.0101443)
(0.0358047 0 0.00601376)
(0.00153876 0 0.000765551)
(0.00443647 0 0.00221901)
(0.00700684 0 0.00353348)
(0.00928629 0 0.00473461)
(0.0113079 0 0.00584337)
(0.0131008 0 0.00687651)
(0.0146909 0 0.00784725)
(0.0161014 0 0.00876592)
(0.0173528 0 0.00964054)
(0.018464 0 0.0104773)
(0.0194519 0 0.0112811)
(0.0203323 0 0.0120554)
(0.0211198 0 0.0128032)
(0.0218281 0 0.0135269)
(0.0224702 0 0.0142286)
(0.0230585 0 0.0149105)
(0.0236052 0 0.0155749)
(0.0241222 0 0.016225)
(0.0246218 0 0.0168645)
(0.0251165 0 0.0174983)
(0.0256199 0 0.0181329)
(0.0261474 0 0.0187773)
(0.0267184 0 0.0194426)
(0.027359 0 0.020144)
(0.0281086 0 0.0209036)
(0.0290345 0 0.0217531)
(0.030263 0 0.0227371)
(0.0320333 0 0.0239001)
(0.0346853 0 0.0252067)
(0.0381456 0 0.0266626)
(0.0188263 0 -0.000182)
(0.0207989 0 -9.42534e-05)
(0.0219625 0 -2.40883e-05)
(0.0225515 0 2.30599e-05)
(0.0228299 0 5.89126e-05)
(0.0229293 0 9.07998e-05)
(0.0229055 0 0.000121927)
(0.0227857 0 0.000153151)
(0.0225861 0 0.000184091)
(0.0223187 0 0.0002138)
(0.0219927 0 0.000241177)
(0.0216147 0 0.000265225)
(0.0211893 0 0.000285179)
(0.0207183 0 0.00030056)
(0.0202016 0 0.000311159)
(0.0196366 0 0.00031699)
(0.0190191 0 0.000318231)
(0.0183428 0 0.000315164)
(0.0176002 0 0.000308121)
(0.0167818 0 0.000297441)
(0.0158772 0 0.000283444)
(0.0148744 0 0.000266413)
(0.0137605 0 0.000246663)
(0.0125172 0 0.000224958)
(0.0111275 0 0.000199469)
(0.00957601 0 0.000170929)
(0.00784133 0 0.000139304)
(0.00590007 0 0.000104342)
(0.00372623 0 6.56404e-05)
(0.00129006 0 2.26526e-05)
(0.0247523 0 -0.00020912)
(0.0235941 0 -0.000118761)
(0.0231051 0 -4.19764e-06)
(0.0230267 0 9.81926e-05)
(0.0230461 0 0.000190579)
(0.0230356 0 0.000280294)
(0.0229577 0 0.000371401)
(0.0228069 0 0.000464269)
(0.0225877 0 0.000556815)
(0.0223076 0 0.000645771)
(0.0219734 0 0.000727659)
(0.0215907 0 0.000799433)
(0.0211629 0 0.000858822)
(0.0206913 0 0.000904427)
(0.0201751 0 0.000935667)
(0.0196114 0 0.000952624)
(0.0189956 0 0.000955861)
(0.0183214 0 0.00094624)
(0.0175807 0 0.000924765)
(0.0167644 0 0.000892452)
(0.0158617 0 0.000850246)
(0.0148605 0 0.000798971)
(0.0137474 0 0.000739394)
(0.0125057 0 0.000672683)
(0.0111186 0 0.000596284)
(0.00956886 0 0.000510966)
(0.00783574 0 0.000416458)
(0.00589602 0 0.000311963)
(0.00372377 0 0.000196273)
(0.00128924 0 6.77413e-05)
(0.0237205 0 -7.11304e-05)
(0.0236952 0 1.41897e-05)
(0.0235174 0 0.000120239)
(0.0233824 0 0.000236037)
(0.023286 0 0.000361518)
(0.0231803 0 0.000497844)
(0.023034 0 0.000644136)
(0.0228352 0 0.000796766)
(0.0225827 0 0.000950048)
(0.0222801 0 0.00109744)
(0.0219314 0 0.0012327)
(0.0215402 0 0.00135065)
(0.0211085 0 0.00144758)
(0.0206362 0 0.00152133)
(0.0201214 0 0.00157109)
(0.0195607 0 0.00159714)
(0.0189485 0 0.00160052)
(0.0182783 0 0.00158271)
(0.0175418 0 0.00154541)
(0.0167295 0 0.00149031)
(0.0158306 0 0.00141896)
(0.0148329 0 0.00133266)
(0.0137228 0 0.00123245)
(0.0124844 0 0.00111906)
(0.0111009 0 0.000991434)
(0.00955442 0 0.000849413)
(0.00782439 0 0.000692249)
(0.00588774 0 0.000518539)
(0.00371866 0 0.000326243)
(0.0012875 0 0.000112602)
(0.0238284 0 0.000286472)
(0.0238451 0 0.000275124)
(0.0237718 0 0.000326564)
(0.023646 0 0.000432374)
(0.023495 0 0.000578337)
(0.0233173 0 0.000754922)
(0.0231044 0 0.000953675)
(0.0228517 0 0.00116499)
(0.0225589 0 0.00137818)
(0.022228 0 0.00158268)
(0.0218613 0 0.00176915)
(0.02146 0 0.00193036)
(0.0210242 0 0.00206138)
(0.020552 0 0.00215957)
(0.0200403 0 0.00222415)
(0.0194843 0 0.0022558)
(0.018878 0 0.00225617)
(0.0182141 0 0.00222744)
(0.0174838 0 0.00217201)
(0.0166776 0 0.00209225)
(0.0157845 0 0.00199025)
(0.0147921 0 0.00186774)
(0.0136868 0 0.00172601)
(0.0124533 0 0.00156571)
(0.0110747 0 0.00138636)
(0.00953293 0 0.00118737)
(0.00780744 0 0.000967458)
(0.00587536 0 0.000724586)
(0.003711 0 0.00045584)
(0.00128488 0 0.000157326)
(0.0240695 0 0.000488123)
(0.024066 0 0.000483117)
(0.023997 0 0.00054068)
(0.0238559 0 0.00066006)
(0.0236588 0 0.000834297)
(0.0234187 0 0.00105424)
(0.0231429 0 0.00130738)
(0.022836 0 0.00157847)
(0.0225014 0 0.00185145)
(0.0221414 0 0.00211136)
(0.0217565 0 0.00234591)
(0.0213459 0 0.00254609)
(0.0209075 0 0.00270623)
(0.0204376 0 0.00282364)
(0.0199313 0 0.00289797)
(0.0193826 0 0.00293053)
(0.0187845 0 0.00292374)
(0.0181291 0 0.00288056)
(0.0174074 0 0.0028041)
(0.0166093 0 0.00269735)
(0.0157237 0 0.00256292)
(0.0147385 0 0.00240288)
(0.0136399 0 0.00221872)
(0.0124127 0 0.00201111)
(0.0110404 0 0.00177974)
(0.00950459 0 0.00152367)
(0.00778505 0 0.00124113)
(0.00585898 0 0.000929377)
(0.00370087 0 0.000584609)
(0.00128142 0 0.00020176)
(0.0243524 0 0.000539784)
(0.0243129 0 0.000650506)
(0.0242082 0 0.000763882)
(0.0240236 0 0.000917567)
(0.0237694 0 0.00113151)
(0.023465 0 0.00140301)
(0.0231274 0 0.00171652)
(0.0227686 0 0.00205083)
(0.022395 0 0.00238409)
(0.0220088 0 0.00269716)
(0.0216093 0 0.00297524)
(0.0211931 0 0.00320833)
(0.0207558 0 0.00339074)
(0.0202916 0 0.00352039)
(0.019794 0 0.00359777)
(0.0192556 0 0.00362519)
(0.0186685 0 0.00360597)
(0.0180241 0 0.0035439)
(0.0173131 0 0.00344279)
(0.0165251 0 0.00330619)
(0.0156491 0 0.00313713)
(0.0146726 0 0.00293796)
(0.0135822 0 0.00271028)
(0.0123629 0 0.00245475)
(0.0109981 0 0.00217102)
(0.00946964 0 0.00185781)
(0.00775739 0 0.00151281)
(0.00583872 0 0.00113256)
(0.00368832 0 0.000712318)
(0.00127712 0 0.000245821)
(0.0245676 0 0.00104214)
(0.0245255 0 0.000993302)
(0.0243811 0 0.0010544)
(0.0241341 0 0.00122024)
(0.0238083 0 0.00147869)
(0.0234338 0 0.00181241)
(0.0230357 0 0.00219552)
(0.02263 0 0.00259811)
(0.0222243 0 0.00299205)
(0.0218196 0 0.00335454)
(0.0214125 0 0.00366949)
(0.0209973 0 0.00392708)
(0.0205668 0 0.0041227)
(0.0201132 0 0.00425563)
(0.0196283 0 0.00432777)
(0.0191037 0 0.00434268)
(0.0185307 0 0.00430473)
(0.0178999 0 0.00421853)
(0.0172018 0 0.00408857)
(0.016426 0 0.00391882)
(0.0155611 0 0.00371264)
(0.0145951 0 0.00347254)
(0.0135144 0 0.00320013)
(0.0123042 0 0.00289598)
(0.0109482 0 0.00255956)
(0.00942837 0 0.00218918)
(0.00772467 0 0.00178197)
(0.00581471 0 0.00133372)
(0.00367343 0 0.000838704)
(0.00127203 0 0.000289417)
(0.0248236 0 0.00113296)
(0.0247216 0 0.00120048)
(0.0244972 0 0.00133077)
(0.0241593 0 0.00155408)
(0.0237455 0 0.00188251)
(0.0232966 0 0.00229782)
(0.0228429 0 0.00276367)
(0.0224008 0 0.00324029)
(0.0219753 0 0.00369363)
(0.0215641 0 0.00409898)
(0.0211604 0 0.00444089)
(0.0207553 0 0.00471154)
(0.0203391 0 0.00490869)
(0.0199022 0 0.00503387)
(0.0194351 0 0.00509087)
(0.0189282 0 0.00508471)
(0.0183723 0 0.00502086)
(0.0177578 0 0.0049047)
(0.0170748 0 0.00474123)
(0.0163129 0 0.00453475)
(0.0154609 0 0.00428876)
(0.0145067 0 0.00400582)
(0.013437 0 0.00368742)
(0.0122372 0 0.00333395)
(0.0108912 0 0.00294454)
(0.00938108 0 0.00251706)
(0.00768712 0 0.00204803)
(0.00578712 0 0.00153241)
(0.00365631 0 0.000963474)
(0.00126617 0 0.000332448)
(0.0249358 0 0.00134554)
(0.0248119 0 0.0014846)
(0.0244978 0 0.00165674)
(0.0240478 0 0.00194268)
(0.0235359 0 0.00236433)
(0.0230172 0 0.00288525)
(0.0225222 0 0.00344889)
(0.0220622 0 0.00400328)
(0.0216361 0 0.00451045)
(0.0212356 0 0.00494702)
(0.0208496 0 0.0053013)
(0.0204661 0 0.0055697)
(0.0200733 0 0.00575377)
(0.01966 0 0.00585804)
(0.0192158 0 0.00588852)
(0.0187307 0 0.00585174)
(0.0181951 0 0.00575417)
(0.0175992 0 0.00560179)
(0.0169333 0 0.00539991)
(0.016187 0 0.00515297)
(0.0153493 0 0.00486444)
(0.0144082 0 0.00453674)
(0.0133507 0 0.00417113)
(0.0121624 0 0.00376767)
(0.0108274 0 0.00332508)
(0.00932814 0 0.00284068)
(0.007645 0 0.00231032)
(0.00575613 0 0.00172812)
(0.00363705 0 0.00108632)
(0.00125956 0 0.000374806)
(0.0249999 0 0.00210582)
(0.0247973 0 0.00197597)
(0.0243241 0 0.00205408)
(0.0237292 0 0.002401)
(0.0231208 0 0.00295484)
(0.0225538 0 0.00361487)
(0.0220471 0 0.00429081)
(0.0215993 0 0.00492015)
(0.0211991 0 0.0054671)
(0.0208312 0 0.00591543)
(0.0204802 0 0.00626123)
(0.0201313 0 0.00650753)
(0.0197715 0 0.00666083)
(0.019389 0 0.00672906)
(0.018973 0 0.00672044)
(0.0185135 0 0.00664281)
(0.0180011 0 0.00650334)
(0.0174262 0 0.00630832)
(0.0167791 0 0.00606311)
(0.0160498 0 0.00577201)
(0.0152276 0 0.00543826)
(0.0143006 0 0.00506398)
(0.0132563 0 0.00465004)
(0.0120804 0 0.00419605)
(0.0107574 0 0.00370021)
(0.00926992 0 0.00315921)
(0.00759859 0 0.00256817)
(0.00572192 0 0.00192036)
(0.00361576 0 0.00120691)
(0.00125226 0 0.000416381)
(0.0251822 0 0.00220198)
(0.0245973 0 0.00214829)
(0.0238418 0 0.00234869)
(0.0230953 0 0.00291411)
(0.0224303 0 0.00370192)
(0.0218676 0 0.00454786)
(0.0213997 0 0.00534196)
(0.0210066 0 0.00602838)
(0.0206656 0 0.00658696)
(0.0203555 0 0.00701682)
(0.0200576 0 0.00732604)
(0.0197565 0 0.00752591)
(0.0194391 0 0.0076282)
(0.0190939 0 0.00764399)
(0.0187107 0 0.00758316)
(0.0182802 0 0.00745436)
(0.0177933 0 0.00726495)
(0.017241 0 0.00702113)
(0.0166141 0 0.00672794)
(0.0159029 0 0.00638929)
(0.015097 0 0.00600795)
(0.0141851 0 0.00558552)
(0.0131547 0 0.00512237)
(0.011992 0 0.00461754)
(0.0106818 0 0.00406861)
(0.00920685 0 0.00347154)
(0.0075482 0 0.0028207)
(0.0056847 0 0.00210847)
(0.00359255 0 0.00132486)
(0.00124429 0 0.000457035)
(0.0239963 0 0.00246327)
(0.0235024 0 0.0020974)
(0.0227264 0 0.00258216)
(0.0219904 0 0.0035973)
(0.0213922 0 0.00474135)
(0.0209312 0 0.00579704)
(0.0205756 0 0.00667987)
(0.0202903 0 0.00737461)
(0.0200458 0 0.00789471)
(0.0198188 0 0.00826207)
(0.0195915 0 0.00849863)
(0.0193499 0 0.00862352)
(0.0190827 0 0.0086526)
(0.0187801 0 0.0085988)
(0.0184333 0 0.00847262)
(0.0180342 0 0.00828258)
(0.0175745 0 0.0080356)
(0.017046 0 0.00773725)
(0.0164402 0 0.00739185)
(0.0157478 0 0.0070026)
(0.0149589 0 0.00657158)
(0.0140625 0 0.00609973)
(0.0130466 0 0.00558673)
(0.0118977 0 0.00503096)
(0.0106009 0 0.00442929)
(0.0091393 0 0.00377682)
(0.00749407 0 0.00306723)
(0.0056446 0 0.00229195)
(0.0035675 0 0.00143983)
(0.00123567 0 0.000496656)
(0.0222788 0 -0.000308976)
(0.0216519 0 0.000938266)
(0.0209208 0 0.00287797)
(0.0203638 0 0.00477117)
(0.019997 0 0.00633345)
(0.0197613 0 0.00752482)
(0.0196015 0 0.00839132)
(0.0194775 0 0.00899863)
(0.019363 0 0.00940424)
(0.0192402 0 0.00965204)
(0.0190966 0 0.00977403)
(0.0189227 0 0.0097933)
(0.018711 0 0.00972668)
(0.0184543 0 0.00958671)
(0.018146 0 0.00938286)
(0.0177795 0 0.00912243)
(0.0173479 0 0.00881109)
(0.0168438 0 0.00845318)
(0.0162594 0 0.00805195)
(0.0155861 0 0.00760957)
(0.0148145 0 0.00712722)
(0.0139339 0 0.00660497)
(0.0129328 0 0.00604174)
(0.0117982 0 0.00543517)
(0.0105154 0 0.00478133)
(0.00906767 0 0.00407428)
(0.00743644 0 0.00330712)
(0.00560179 0 0.00247032)
(0.00354069 0 0.00155155)
(0.00122644 0 0.000535143)
(0.0197599 0 -0.00212029)
(0.0187524 0 0.00145077)
(0.0183317 0 0.00484312)
(0.0182578 0 0.00727444)
(0.0183355 0 0.00886832)
(0.0184478 0 0.00988993)
(0.0185507 0 0.0105243)
(0.0186237 0 0.0109006)
(0.0186578 0 0.0110978)
(0.0186489 0 0.0111643)
(0.018594 0 0.0111305)
(0.0184904 0 0.0110161)
(0.0183353 0 0.0108343)
(0.0181249 0 0.0105944)
(0.0178552 0 0.010303)
(0.0175211 0 0.00996501)
(0.0171173 0 0.00958415)
(0.0166373 0 0.00916302)
(0.0160741 0 0.00870339)
(0.0154197 0 0.00820621)
(0.0146652 0 0.00767154)
(0.0138005 0 0.0070985)
(0.0128143 0 0.00648514)
(0.0116941 0 0.00582828)
(0.0104258 0 0.00512325)
(0.00899248 0 0.00436265)
(0.00737563 0 0.00353938)
(0.00555648 0 0.00264288)
(0.00351226 0 0.00165956)
(0.00121664 0 0.00057235)
(0.0111172 0 0.00885557)
(0.0131326 0 0.0098243)
(0.01474 0 0.0111661)
(0.0158326 0 0.0121331)
(0.0165939 0 0.0126851)
(0.0171359 0 0.0129599)
(0.0175234 0 0.0130577)
(0.0177957 0 0.0130379)
(0.0179753 0 0.0129332)
(0.0180758 0 0.0127629)
(0.0181052 0 0.0125389)
(0.0180683 0 0.0122687)
(0.0179666 0 0.011957)
(0.0178001 0 0.0116072)
(0.0175668 0 0.0112213)
(0.0172636 0 0.0108011)
(0.0168862 0 0.0103473)
(0.0164292 0 0.00986072)
(0.0158864 0 0.00934127)
(0.0152503 0 0.0087885)
(0.0145124 0 0.00820124)
(0.0136633 0 0.00757759)
(0.0126919 0 0.00691464)
(0.0115862 0 0.00620838)
(0.0103328 0 0.00545368)
(0.00891388 0 0.00464198)
(0.00731151 0 0.00376402)
(0.00550857 0 0.00280963)
(0.0034821 0 0.00176385)
(0.00120621 0 0.000608255)
(0.00152863 0 0.0008079)
(0.00440748 0 0.00234184)
(0.00696151 0 0.00372945)
(0.00922697 0 0.00499849)
(0.0112365 0 0.00617103)
(0.0130192 0 0.00726518)
(0.0146007 0 0.00829529)
(0.0160039 0 0.00927277)
(0.0172491 0 0.0102067)
(0.0183549 0 0.0111045)
(0.019338 0 0.0119721)
(0.0202138 0 0.0128146)
(0.0209966 0 0.0136365)
(0.0216994 0 0.0144423)
(0.0223346 0 0.0152364)
(0.0229138 0 0.016024)
(0.0234479 0 0.0168114)
(0.0239474 0 0.0176066)
(0.0244222 0 0.0184199)
(0.0248818 0 0.0192654)
(0.0253351 0 0.0201627)
(0.0257904 0 0.0211391)
(0.0262548 0 0.0222348)
(0.0267326 0 0.0235111)
(0.0272205 0 0.025066)
(0.0276935 0 0.0270602)
(0.0280669 0 0.0297582)
(0.0281108 0 0.0335561)
(0.0273377 0 0.0388331)
(0.025036 0 0.045459)
(0.00151735 0 0.000848956)
(0.00437523 0 0.00246098)
(0.00691116 0 0.00391965)
(0.00916073 0 0.00525422)
(0.0111566 0 0.00648862)
(0.0129276 0 0.00764197)
(0.0144991 0 0.00872974)
(0.0158935 0 0.00976433)
(0.017131 0 0.0107559)
(0.0182297 0 0.0117128)
(0.0192059 0 0.0126422)
(0.0200747 0 0.0135505)
(0.0208497 0 0.0144437)
(0.0215434 0 0.0153279)
(0.0221673 0 0.0162097)
(0.0227318 0 0.0170967)
(0.0232465 0 0.0179982)
(0.0237197 0 0.0189259)
(0.0241586 0 0.0198949)
(0.0245688 0 0.0209253)
(0.0249536 0 0.0220438)
(0.0253127 0 0.0232869)
(0.02564 0 0.0247053)
(0.0259191 0 0.0263696)
(0.0261144 0 0.0283757)
(0.0261562 0 0.0308461)
(0.025919 0 0.0339077)
(0.025206 0 0.0376139)
(0.0237698 0 0.0417863)
(0.0212877 0 0.0459609)
(0.00150483 0 0.000888062)
(0.00433949 0 0.00257449)
(0.00685581 0 0.00410133)
(0.00908783 0 0.00549851)
(0.011068 0 0.00679122)
(0.0128258 0 0.00800103)
(0.0143858 0 0.00914372)
(0.01577 0 0.0102327)
(0.0169982 0 0.0112789)
(0.018088 0 0.0122917)
(0.0190555 0 0.0132793)
(0.019915 0 0.0142491)
(0.0206796 0 0.0152084)
(0.0213609 0 0.0161644)
(0.0219696 0 0.0171254)
(0.0225149 0 0.0181004)
(0.0230047 0 0.0191008)
(0.0234452 0 0.0201401)
(0.023841 0 0.0212353)
(0.0241939 0 0.0224081)
(0.0245024 0 0.0236861)
(0.0247594 0 0.025104)
(0.0249503 0 0.0267053)
(0.0250489 0 0.0285413)
(0.0250113 0 0.0306663)
(0.0247704 0 0.0331224)
(0.024232 0 0.0359059)
(0.0232806 0 0.0389138)
(0.0217843 0 0.0418874)
(0.019542 0 0.0443696)
(0.00149095 0 0.000924867)
(0.00429994 0 0.00268136)
(0.00679461 0 0.00427248)
(0.00900747 0 0.00572891)
(0.0109703 0 0.00707657)
(0.0127132 0 0.00833888)
(0.0142603 0 0.00953326)
(0.0156328 0 0.0106731)
(0.0168501 0 0.0117703)
(0.0179294 0 0.012835)
(0.0188862 0 0.0138762)
(0.0197343 0 0.014902)
(0.020486 0 0.0159206)
(0.0211524 0 0.0169401)
(0.0217428 0 0.0179695)
(0.0222654 0 0.0190188)
(0.0227266 0 0.0200996)
(0.0231307 0 0.0212257)
(0.0234801 0 0.0224135)
(0.0237737 0 0.0236828)
(0.0240067 0 0.0250565)
(0.0241686 0 0.0265608)
(0.0242417 0 0.0282235)
(0.0241994 0 0.030069)
(0.0240034 0 0.0321105)
(0.0236037 0 0.0343337)
(0.0229411 0 0.0366747)
(0.021953 0 0.0389939)
(0.0205787 0 0.0410515)
(0.0187746 0 0.0424645)
(0.00147562 0 0.000959004)
(0.00425622 0 0.0027805)
(0.00672689 0 0.00443132)
(0.00891873 0 0.0059427)
(0.0108629 0 0.00734188)
(0.0125893 0 0.00865304)
(0.0141218 0 0.00989455)
(0.0154812 0 0.0110814)
(0.0166861 0 0.0122252)
(0.0177534 0 0.013337)
(0.0186978 0 0.0144262)
(0.0195326 0 0.0155016)
(0.0202695 0 0.0165717)
(0.0209187 0 0.017645)
(0.0214887 0 0.0187306)
(0.0219864 0 0.0198385)
(0.0224171 0 0.0209796)
(0.0227838 0 0.0221665)
(0.023087 0 0.023413)
(0.0233242 0 0.0247344)
(0.023489 0 0.0261465)
(0.0235705 0 0.0276646)
(0.023552 0 0.0293)
(0.0234114 0 0.0310548)
(0.0231205 0 0.0329143)
(0.0226471 0 0.0348365)
(0.021959 0 0.03674)
(0.0210292 0 0.038493)
(0.019846 0 0.0399047)
(0.0184443 0 0.0407164)
(0.00145875 0 0.000990111)
(0.00420808 0 0.00287085)
(0.00665197 0 0.00457596)
(0.00882088 0 0.00613743)
(0.010745 0 0.00758386)
(0.0124538 0 0.00894019)
(0.0139702 0 0.0102246)
(0.0153149 0 0.0114531)
(0.016506 0 0.0126386)
(0.0175597 0 0.0137921)
(0.0184902 0 0.0149232)
(0.0193102 0 0.0160408)
(0.0200308 0 0.0171535)
(0.0206614 0 0.01827)
(0.0212097 0 0.0193988)
(0.0216818 0 0.0205491)
(0.022082 0 0.0217303)
(0.0224123 0 0.0229526)
(0.0226725 0 0.0242263)
(0.0228595 0 0.0255612)
(0.0229673 0 0.0269658)
(0.0229858 0 0.028445)
(0.0229024 0 0.0299969)
(0.0227007 0 0.0316088)
(0.0223627 0 0.0332518)
(0.0218707 0 0.0348751)
(0.0212113 0 0.0364003)
(0.0203806 0 0.0377193)
(0.0193925 0 0.0386957)
(0.0183018 0 0.0391745)
(0.00144044 0 0.00101781)
(0.00415563 0 0.0029512)
(0.00656932 0 0.004704)
(0.00871314 0 0.00631038)
(0.0106164 0 0.00779977)
(0.0123062 0 0.00919645)
(0.0138053 0 0.0105196)
(0.0151339 0 0.011785)
(0.0163097 0 0.0130062)
(0.0173484 0 0.0141948)
(0.0182639 0 0.015361)
(0.019068 0 0.0165128)
(0.0197713 0 0.0176591)
(0.0203825 0 0.0188076)
(0.0209087 0 0.0199664)
(0.0213556 0 0.021143)
(0.0217266 0 0.0223451)
(0.0220235 0 0.02358)
(0.0222459 0 0.0248539)
(0.0223911 0 0.0261716)
(0.0224541 0 0.0275348)
(0.0224274 0 0.0289407)
(0.0223023 0 0.0303786)
(0.0220686 0 0.031828)
(0.021717 0 0.0332551)
(0.0212402 0 0.0346105)
(0.020637 0 0.0358278)
(0.0199155 0 0.0368256)
(0.0190992 0 0.0375134)
(0.0182386 0 0.0378035)
(0.00142051 0 0.00104162)
(0.00409868 0 0.00302034)
(0.00648038 0 0.00481479)
(0.00859699 0 0.00646045)
(0.0104771 0 0.00798699)
(0.0121463 0 0.00941866)
(0.0136268 0 0.0107751)
(0.0149382 0 0.0120723)
(0.0160977 0 0.0133238)
(0.0171203 0 0.0145408)
(0.0180196 0 0.015734)
(0.018807 0 0.0169119)
(0.0194925 0 0.0180822)
(0.0200843 0 0.0192519)
(0.020589 0 0.0204277)
(0.0210119 0 0.0216158)
(0.0213563 0 0.0228216)
(0.0216239 0 0.0240494)
(0.0218147 0 0.025302)
(0.021927 0 0.0265797)
(0.0219574 0 0.0278791)
(0.0219013 0 0.0291922)
(0.0217536 0 0.0305038)
(0.0215097 0 0.0317905)
(0.0211661 0 0.0330192)
(0.0207232 0 0.034147)
(0.0201864 0 0.0351217)
(0.0195692 0 0.0358853)
(0.0188955 0 0.0363808)
(0.0182054 0 0.0365604)
(0.00139894 0 0.00106123)
(0.0040372 0 0.0030775)
(0.00638476 0 0.00490683)
(0.00847221 0 0.00658535)
(0.0103272 0 0.00814287)
(0.0119742 0 0.00960366)
(0.0134348 0 0.0109874)
(0.0147279 0 0.0123104)
(0.0158701 0 0.013586)
(0.016876 0 0.0148255)
(0.0177585 0 0.0160385)
(0.0185288 0 0.0172335)
(0.0191964 0 0.0184179)
(0.0197692 0 0.0195981)
(0.0202537 0 0.0207792)
(0.0206547 0 0.0219655)
(0.0209757 0 0.0231602)
(0.0212188 0 0.0243652)
(0.0213846 0 0.0255803)
(0.0214726 0 0.0268024)
(0.0214815 0 0.0280249)
(0.021409 0 0.0292369)
(0.0212535 0 0.0304216)
(0.0210142 0 0.0315559)
(0.0206922 0 0.0326105)
(0.020292 0 0.0335505)
(0.0198223 0 0.0343371)
(0.0192978 0 0.0349306)
(0.0187395 0 0.0352961)
(0.0181778 0 0.0354089)
(0.00137577 0 0.00107633)
(0.00397129 0 0.00312168)