/*--------------------------------*- C++ -*----------------------------------*\
| =========                 |                                                 |
| \\      /  F ield         | OpenFOAM: The Open Source CFD Toolbox           |
|  \\    /   O peration     | Version:  dev                                   |
|   \\  /    A nd           | Web:      www.OpenFOAM.org                      |
|    \\/     M anipulation  |                                                 |
\*---------------------------------------------------------------------------*/
FoamFile
{
    version     2.0;
    format      ascii;
    class       volScalarField;
    location    "0.26";
    object      p;
}
// * * * * * * * * * * * * * * * * * * * * * * * * * * * * * * * * * * * * * //

dimensions      [0 2 -2 0 0 0 0];

internalField   nonuniform List<scalar> 
2790
(
68.7414
68.6245
68.844
69.3838
70.1428
71.0743
72.1732
73.4414
74.877
76.4755
78.2316
80.1398
82.1923
84.3792
86.6868
89.0976
91.5892
94.1341
96.6996
99.2479
101.737
104.122
106.356
108.396
110.2
111.736
112.981
113.927
114.574
114.933
68.5528
68.5343
68.7778
69.3158
70.0715
71
72.0945
73.3568
74.7852
76.3754
78.1225
80.0208
82.0631
84.2397
86.5375
88.9395
91.4243
93.9652
96.5306
99.0839
101.584
103.986
106.245
108.316
110.157
111.734
113.023
114.013
114.7
115.124
68.3597
68.4119
68.6745
69.203
69.9463
70.8623
71.9422
73.1869
74.5948
76.1616
77.8823
79.7515
81.7622
83.9049
86.1675
88.5341
90.9847
93.4948
96.0349
98.571
101.065
103.474
105.756
107.866
109.763
111.41
112.78
113.853
114.617
115.121
68.1443
68.2293
68.5041
69.0236
69.7524
70.6523
71.713
72.9344
74.3146
75.8494
77.5338
79.3622
81.3276
83.4212
85.6314
87.9434
90.339
92.7958
95.2875
97.7832
100.248
102.645
104.933
107.071
109.017
110.734
112.186
113.347
114.182
114.752
67.8966
67.9965
68.2794
68.7914
69.5039
70.3832
71.419
72.61
73.9544
75.4479
77.0852
78.8607
80.7675
82.797
84.9382
87.1776
89.4984
91.8806
94.3008
96.7319
99.1435
101.502
103.772
105.916
107.893
109.664
111.189
112.429
113.336
113.983
67.612
67.718
68.0033
68.5054
69.1984
70.0523
71.0571
72.2113
73.5124
74.9559
76.5366
78.2484
80.0845
82.0364
84.0936
86.2433
88.4704
90.7569
93.082
95.4223
97.7518
100.042
102.262
104.378
106.355
108.153
109.73
111.041
112.025
112.789
67.2888
67.3959
67.6784
68.1676
68.8381
69.6624
70.6311
71.7424
72.9932
74.3788
75.8935
77.5311
79.2847
81.1456
83.1038
85.147
87.261
89.4297
91.6346
93.8553
96.0699
98.2546
100.384
102.43
104.363
106.148
107.744
109.106
110.168
111.09
66.9265
67.0317
67.3071
67.7802
68.4252
69.216
70.1438
71.2063
72.4001
73.72
75.1599
76.7134
78.3731
80.1301
81.9743
83.8939
85.8752
87.903
89.9605
92.0298
94.0919
96.127
98.1152
100.035
101.865
103.577
105.14
106.517
107.631
108.731
66.5256
66.6269
66.8918
67.3458
67.9622
68.7157
69.5979
70.6064
71.7369
72.984
74.341
75.8009
77.3558
78.9964
80.7123
82.4912
84.3196
86.1825
88.0637
89.9463
91.8131
93.6473
95.4327
97.1547
98.7994
100.353
101.8
103.118
104.227
105.494
66.0872
66.1831
66.4349
66.8668
67.4518
68.1646
68.9971
69.9465
71.0081
72.1758
73.4423
74.7999
76.2399
77.7524
79.326
80.9478
82.6034
84.277
85.9517
87.6101
89.2345
90.8085
92.3175
93.7507
95.1023
96.373
97.568
98.7005
99.6919
101.055
65.6128
65.7021
65.9386
66.346
66.8968
67.5658
68.3449
69.2308
70.2185
71.3008
72.4701
73.7175
75.0335
76.4071
77.8256
79.2748
80.7384
82.199
83.6372
85.0328
86.3651
87.614
88.7618
89.7958
90.7123
91.5227
92.2574
92.9829
93.656
95.0009
65.104
65.1861
65.4056
65.7861
66.3003
66.9227
67.6451
68.4638
69.3731
70.3651
71.4311
72.5616
73.7457
74.9709
76.2229
77.4854
78.74
79.9655
81.139
82.2347
83.2253
84.0821
84.7767
85.2841
85.589
85.6969
85.6513
85.5841
85.5499
86.6478
64.563
64.6371
64.8382
65.1901
65.6656
66.2391
66.902
67.6502
68.4773
69.3747
70.3327
71.3406
72.3861
73.455
74.5311
75.5955
76.6262
77.5982
78.4824
79.2456
79.8497
80.2513
80.4018
80.2481
79.7381
78.8333
77.5369
76.0013
74.4239
74.6632
63.992
64.0576
64.2392
64.561
64.996
65.5186
66.1198
66.7949
67.5369
68.3364
69.1826
70.0634
70.9653
71.8721
72.7651
73.6226
74.4186
75.123
75.6996
76.1052
76.2879
76.1837
75.7134
74.7776
73.2515
70.9848
67.8109
63.6768
58.6614
55.9219
63.3932
63.4501
63.6113
63.9017
64.2949
64.765
65.3028
65.9029
66.5576
67.2567
67.9884
68.7393
69.4941
70.2348
70.9403
71.5855
72.1404
72.5689
72.8273
72.8615
72.6034
71.965
70.8294
69.0357
66.3529
62.4367
56.7419
48.4385
35.9011
21.0741
-87.0407
-87.7331
-89.0251
-91.0463
-93.8632
-97.4928
-101.88
-106.875
-112.215
-117.51
-122.254
-125.842
-127.626
-126.989
-123.451
-116.782
-107.112
-94.9615
-81.1671
-66.7317
-52.6534
-39.7616
-28.6033
-19.4185
-11.8144
-5.52082
-1.00466
1.64284
2.65716
2.22343
-86.9885
-87.7522
-89.0893
-91.1652
-94.0524
-97.7749
-102.281
-107.422
-112.93
-118.409
-123.338
-127.099
-129.027
-128.493
-125.015
-118.364
-108.671
-96.4677
-82.5902
-68.0408
-53.8186
-40.7627
-29.4382
-20.1057
-12.3442
-5.92366
-1.34735
1.3667
2.44836
2.15963
-87.3617
-88.2823
-89.7457
-91.9562
-94.9868
-98.8696
-103.56
-108.913
-114.661
-120.4
-125.595
-129.606
-131.745
-131.357
-127.937
-121.244
-111.42
-99.0222
-84.9104
-70.1024
-55.6092
-42.2851
-30.7126
-21.1504
-13.134
-6.50843
-1.822
1.00259
2.19429
2.10595
-88.3827
-89.4338
-91.0148
-93.3789
-96.5906
-100.691
-105.642
-111.303
-117.403
-123.527
-129.117
-133.501
-135.954
-135.78
-132.434
-125.651
-115.587
-102.848
-88.3314
-73.089
-58.1586
-44.4199
-32.4751
-22.556
-14.1684
-7.2859
-2.45299
0.519128
1.86024
2.01314
-90.1211
-91.2169
-92.8709
-95.3805
-98.7918
-103.153
-108.432
-114.487
-121.043
-127.668
-133.773
-138.643
-141.504
-141.605
-138.339
-131.412
-121.011
-107.8
-92.7321
-76.9054
-61.3969
-47.1189
-34.6925
-24.2758
-15.4049
-8.24808
-3.22652
-0.0684789
1.46035
1.8855
-92.5095
-93.5481
-95.2337
-97.8766
-101.499
-106.158
-111.824
-118.357
-125.471
-132.716
-139.462
-144.936
-148.298
-148.723
-145.524
-138.382
-127.538
-113.732
-97.9801
-81.4381
-65.2312
-50.3086
-37.2988
-26.2288
-16.8071
-9.38365
-4.12842
-0.749461
1.00106
1.72056
-95.3235
-96.2257
-97.9262
-100.699
-104.546
-109.536
-115.643
-122.726
-130.492
-138.462
-145.962
-152.148
-156.091
-156.877
-153.719
-146.285
-134.907
-120.408
-103.871
-86.5184
-69.5277
-53.8794
-40.1667
-28.3293
-18.3668
-10.6571
-5.13709
-1.50879
0.492413
1.52018
-98.2004
-98.9489
-100.684
-103.6
-107.691
-113.042
-119.634
-127.326
-135.815
-144.597
-152.949
-159.94
-164.53
-165.696
-162.54
-154.74
-142.759
-127.511
-110.14
-91.9298
-74.1149
-57.6817
-43.1312
-30.4989
-20.0665
-12.0351
-6.2268
-2.32878
-0.0544037
1.28717
-100.728
-101.382
-103.2
-106.283
-110.639
-116.376
-123.48
-131.815
-141.072
-150.724
-159.995
-167.86
-173.14
-174.684
-171.487
-163.257
-150.649
-134.659
-116.476
-97.4194
-78.7802
-61.5024
-46.0478
-32.7117
-21.854
-13.4781
-7.36861
-3.18949
-0.62726
1.02527
-102.581
-103.229
-105.177
-108.451
-113.086
-119.216
-126.835
-135.814
-145.841
-156.37
-166.581
-175.353
-181.332
-183.226
-179.956
-171.272
-158.077
-141.436
-122.559
-102.722
-83.2785
-65.1131
-48.8318
-34.938
-23.658
-14.9398
-8.53088
-4.06955
-1.21366
0.738894
-103.563
-104.28
-106.38
-109.85
-114.758
-121.261
-129.363
-138.937
-149.675
-161.024
-172.129
-181.775
-188.423
-190.611
-187.279
-178.229
-164.583
-147.448
-128.033
-107.57
-87.3165
-68.3673
-51.4466
-37.064
-25.4036
-16.3711
-9.68042
-4.94696
-1.80119
0.433091
-103.62
-104.419
-106.659
-110.312
-115.464
-122.286
-130.783
-140.841
-152.156
-164.169
-176.011
-186.399
-193.626
-196.053
-192.743
-183.609
-169.786
-152.358
-132.514
-111.549
-90.6858
-71.1427
-53.7427
-38.9832
-27.019
-17.7233
-10.7843
-5.80003
-2.37771
0.113707
-102.767
-103.607
-105.954
-109.766
-115.128
-122.208
-131.005
-141.405
-153.101
-165.543
-177.876
-188.802
-196.504
-199.111
-195.817
-186.821
-173.101
-155.645
-135.619
-114.34
-93.146
-73.2722
-55.5929
-40.6037
-28.4397
-18.9522
-11.8122
-6.60863
-2.93195
-0.212656
-101.049
-101.89
-104.313
-108.249
-113.796
-121.091
-130.101
-140.692
-152.558
-165.165
-177.681
-188.817
-196.7
-199.378
-196.158
-187.448
-174.082
-156.909
-137.027
-115.778
-94.5619
-74.6364
-56.9026
-41.8548
-29.6151
-20.0219
-12.7395
-7.35645
-3.45493
-0.53954
-98.6256
-99.4666
-101.903
-105.893
-111.622
-119.106
-128.24
-138.87
-150.694
-163.191
-175.537
-186.449
-194.124
-196.74
-193.735
-185.539
-172.778
-156.153
-136.709
-115.802
-94.8658
-75.1686
-57.6149
-42.6917
-30.5112
-20.9079
-13.5489
-8.03211
-3.94082
-0.861553
62.7573
62.805
62.9448
63.2025
63.552
63.9676
64.4396
64.962
65.5266
66.122
66.7356
67.3526
67.9561
68.5262
69.0391
69.4665
69.7741
69.9204
69.8536
69.5088
68.8021
67.6215
65.8127
63.1512
59.2923
53.6645
45.2084
31.6934
5.91629
-65.3991
62.077
62.115
62.2324
62.4556
62.7595
63.1183
63.5218
63.9636
64.4347
64.923
65.4146
65.8938
66.3418
66.737
67.053
67.2586
67.3157
67.1773
66.7852
66.065
64.9203
63.221
60.7864
57.3529
52.5146
45.6048
35.4374
19.9918
-2.32633
-34.4125
61.3575
61.3855
61.4797
61.6672
61.9241
62.2244
62.5576
62.9168
63.2923
63.6714
64.0392
64.3786
64.6698
64.889
65.0082
64.9933
64.8031
64.3869
63.6815
62.6071
61.0601
58.9039
55.9527
51.9483
46.5248
39.1724
29.2348
16.0279
0.278739
-17.5411
60.6001
60.618
60.6883
60.8393
61.0481
61.2888
61.5506
61.8261
62.1051
62.3741
62.6175
62.8173
62.9523
62.9976
62.9235
62.6941
62.2662
61.587
60.5912
59.1976
57.3031
54.7761
51.4468
47.0966
41.4515
34.1916
25.0009
13.5424
-0.236084
-16.7484
59.8068
59.8143
59.8604
59.9744
60.1344
60.315
60.5048
60.6963
60.8786
61.038
61.1581
61.2201
61.2022
61.0785
60.8182
60.3848
59.7344
58.8139
57.5591
55.8913
53.7141
50.9095
47.3334
42.8137
37.1518
30.1304
21.532
11.094
-1.38569
-15.6738
58.9796
58.9767
58.9985
59.0753
59.1864
59.3067
59.4247
59.5327
59.6194
59.6708
59.6701
59.5982
59.4327
59.1474
58.7115
58.0885
57.2352
56.1004
54.6231
52.7308
50.3377
47.3429
43.6297
39.0664
33.5095
26.81
18.8305
9.45543
-1.34053
-13.1207
58.1213
58.108
58.1056
58.1452
58.2077
58.2683
58.3154
58.3412
58.3344
58.2807
58.1632
57.9628
57.6571
57.2202
56.6219
55.8267
54.7937
53.4747
51.8141
49.7477
47.2022
44.0948
40.3348
35.8254
30.4694
24.177
16.8826
8.56331
-0.751735
-10.7267
57.2348
57.2114
57.185
57.188
57.2026
57.2045
57.1824
57.1282
57.0309
56.8761
56.6473
56.3255
55.8889
55.3124
54.567
53.6194
52.4316
50.96
49.1556
46.9634
44.3231
41.1696
37.4355
33.0539
27.9639
22.1181
15.4926
8.09744
-0.0320988
-8.62952
56.3238
56.2905
56.2407
56.2079
56.1757
56.1207
56.0315
55.9004
55.7165
55.4659
55.1324
54.6977
54.1409
53.4383
52.5628
51.4838
50.1671
48.5744
46.6638
44.39
41.7051
38.5602
34.9075
30.7035
25.9136
20.5171
14.513
7.92627
0.799753
-6.64366
55.3922
55.3493
55.2769
55.2093
55.132
55.0222
54.869
54.6647
54.3991
54.0587
53.6282
53.0902
52.4251
51.611
50.6231
49.4342
48.0142
46.3306
44.3486
42.0321
39.3447
36.2511
32.7195
28.724
24.2483
19.2887
13.8579
7.98901
1.72788
-4.74436
54.4442
54.3922
54.2981
54.1974
54.077
53.9151
53.7012
53.4282
53.0864
52.6632
52.1442
51.5133
50.7525
49.8419
48.7597
47.482
45.9833
44.2365
42.214
39.8879
37.2318
34.2218
30.8383
27.0684
22.9082
18.3648
13.4584
8.22441
2.70683
-2.94929
53.4847
53.4241
53.3095
53.1773
53.0161
52.8053
52.5348
52.1981
51.7863
51.2878
50.6894
49.9764
49.1328
48.141
46.982
45.6357
44.0809
42.2959
40.2594
37.9511
35.3526
32.4492
29.2306
25.6931
21.8408
17.6871
13.2555
8.58037
3.70215
-1.26299
52.5187
52.4501
52.3163
52.1546
51.9555
51.6991
51.3764
50.9814
50.5061
49.9403
49.2718
48.4879
47.5744
46.5162
45.2973
43.901
42.3105
40.509
38.4809
36.2119
33.6907
30.9091
27.8641
24.558
20.9999
17.2065
13.2019
9.01811
4.69128
0.314528
51.5517
51.4756
51.3242
51.1352
50.901
50.6029
50.2326
49.7851
49.2533
48.6281
47.8992
47.0552
46.0843
44.9738
43.7105
42.2812
40.6729
38.8733
36.8715
34.6585
32.2281
29.5776
26.7085
23.6274
20.3462
16.8827
13.2603
9.50797
5.65746
1.78337
50.5893
50.5065
50.3389
50.1251
49.8588
49.5231
49.1101
48.6158
48.0345
47.3581
46.578
45.6847
44.6683
43.5184
42.2249
40.7775
39.1667
37.3841
35.4227
33.2776
30.9468
28.4313
25.7361
22.8698
19.846
16.6823
13.4007
10.0268
6.58815
3.1446
49.6375
49.5488
49.3667
49.1303
48.8354
48.4659
48.0153
47.4802
46.8561
46.1366
45.3143
44.3816
43.3306
42.1533
40.842
39.3893
37.7888
36.035
34.1244
32.0554
29.8289
27.4486
24.9215
22.2576
19.4707
16.5779
13.599
10.5566
7.47439
4.40038
48.7026
48.6085
48.4135
48.1572
47.8368
47.4378
46.9544
46.3844
45.7243
44.9691
44.1131
43.1503
42.0747
40.8805
39.5621
38.1148
36.5346
34.8188
32.9664
30.9782
28.8574
26.6094
24.2422
21.7668
19.1964
16.5468
13.836
11.0837
8.30999
5.55356
47.7908
47.6922
47.486
47.2121
46.8695
46.445
45.9336
45.3341
44.6444
43.8608
42.9788
41.9942
40.9028
39.7007
38.3844
36.951
35.399
33.7276
31.9379
30.0326
28.0162
25.8953
23.6786
21.3768
19.0026
16.5706
14.0966
11.5976
9.09087
6.60755
46.9087
46.8062
46.5904
46.3014
45.9398
45.4935
44.9587
44.3351
43.6217
42.816
41.915
40.9161
39.8165
38.614
37.307
35.8943
34.3761
32.7534
31.0286
29.2059
27.2906
25.2901
23.2131
21.0699
18.8726
16.6341
14.3685
12.0904
9.81453
7.56603
46.063
45.9573
45.7333
45.4316
45.0538
44.5894
44.0354
43.3925
42.6607
41.8388
40.925
39.918
38.8166
37.6199
36.3278
34.9407
33.46
31.8881
30.2286
28.4863
26.6674
24.7793
22.8307
20.8313
18.7922
16.7251
14.6422
12.5562
10.4797
8.4329
45.2604
45.1521
44.9214
44.6089
44.2178
43.7386
43.1693
42.5114
41.766
40.9328
40.0114
39.0016
37.9034
36.7172
35.4442
34.0858
32.6447
31.1241
29.5284
27.8631
26.1345
24.3502
22.5183
20.6482
18.7498
16.8335
14.9102
12.9907
11.0858
9.21194
44.5079
44.3976
44.1613
43.8399
43.4378
42.9468
42.3655
41.6965
40.9415
40.1013
39.1767
38.1682
37.0772
35.9049
34.6536
33.3257
31.9246
30.4544
28.9198
27.3267
25.6816
23.9918
22.2651
20.51
18.7357
16.9514
15.1667
13.3908
11.6331
9.907
43.8126
43.7005
43.4598
43.131
42.7201
42.2197
41.6295
40.9524
40.1912
39.3476
38.4229
37.419
36.3378
35.1817
33.9534
32.6564
31.2945
29.8723
28.3951
26.8686
25.2993
23.6944
22.0612
20.4076
18.7417
17.072
15.4066
13.7539
12.1217
10.5211
43.1817
43.0682
42.8236
42.4887
42.0705
41.563
40.9662
40.2838
39.5191
38.6746
37.7525
36.7553
35.6857
34.5466
33.3417
32.0748
30.7502
29.3728
27.948
26.4817
24.9804
23.4506
21.8994
20.334
18.7619
17.1904
15.627
14.0788
12.5528
11.058
42.6228
42.5079
42.2597
41.9194
41.4953
40.9822
40.3807
39.6949
38.9287
38.0851
37.1671
36.1777
35.1203
33.9983
32.8158
31.577
30.2867
28.9499
27.572
26.159
24.7171
23.2525
21.772
20.282
18.7895
17.3012
15.8235
14.3629
12.9253
11.5184
42.1438
42.0272
41.775
41.4295
41.0006
40.4835
39.8789
39.1913
38.4251
37.5838
36.6709
35.6898
34.6443
33.5385
32.3766
31.1633
29.9034
28.6021
27.265
25.8977
24.5064
23.0971
21.6759
20.2491
18.8229
17.4033
15.9964
14.6078
13.2428
11.9079
41.7537
41.6342
41.3762
41.0249
40.5913
40.0707
39.4637
38.7749
38.0092
37.1705
36.2627
35.2894
34.2549
33.1635
32.0196
30.8281
29.5941
28.3227
27.0194
25.69
24.3402
22.9759
21.6028
20.2268
18.8537
17.489
16.1383
14.8066
13.4988
12.2201
41.4635
41.3371
41.0712
40.7152
40.2788
39.756
39.1473
38.458
37.6931
36.857
35.9536
34.9869
33.9615
32.8817
31.7523
30.5783
29.3647
28.1169
26.8402
25.5402
24.2227
22.8932
21.5572
20.2202
18.8877
17.565
16.2571
14.9687
13.7046
12.4691
41.2894
41.1367
40.854
40.493
40.0553
39.5313
38.922
38.2329
37.4694
36.6359
35.7364
34.7751
33.7566
32.6856
31.5668
30.4053
29.2062
27.9748
26.7165
25.4368
24.1412
22.8353
21.5243
20.2135
18.9082
17.6134
16.3339
15.0741
13.8384
12.6307
41.2723
41.0675
40.76
40.3918
39.9508
39.424
38.8124
38.1223
37.3589
36.5264
35.6288
34.6705
33.6561
32.5901
31.4776
30.3235
29.133
27.9113
26.6638
25.396
24.1132
22.8209
21.5242
20.2283
18.9383
17.659
16.395
15.1508
13.9304
12.7373
-170.309
-149.234
-119.876
-56.6183
-62.334
-68.882
-36.4103
-49.0101
-59.3216
-34.8696
-46.3579
-54.844
-29.7276
-38.9684
-46.4516
-24.4546
-32.2579
-38.9467
-20.374
-27.0809
-32.8817
-16.9012
-22.6426
-27.5973
-13.7457
-18.6706
-22.9034
-10.8746
-15.1211
-18.7527
-8.26783
-11.946
-15.0766
-5.89711
-9.09628
-11.8091
-3.74021
-6.53462
-8.89787
-1.77955
-4.23091
-6.30041
0.000268152
-2.15957
-3.98123
1.61298
-0.298678
-1.91059
3.07087
1.37073
-0.0632721
4.38509
2.8653
1.58245
5.56578
4.19973
3.04541
6.62222
5.3871
4.34203
7.56263
6.4388
5.48652
8.39469
7.36516
6.49146
9.12432
8.17429
7.36687
9.75831
8.8748
8.12276
10.2986
9.47004
8.76397
10.7538
9.96987
9.30078
11.1165
10.3678
9.72844
11.4053
10.6828
10.0646
11.5918
10.8876
10.2851
11.7178
11.0266
10.4315
-95.1424
-96.9157
-99.1956
-103.016
-108.909
-116.538
-125.679
-136.172
-147.724
-159.817
-171.637
-181.953
-189.147
-191.657
-188.959
-181.396
-169.378
-153.476
-134.699
-114.406
-94.0378
-74.8426
-57.7052
-43.0945
-31.1138
-21.6005
-14.2345
-8.6323
-4.38835
-1.17514
-81.4838
-89.8474
-94.3534
-99.5433
-106.063
-113.809
-122.777
-132.898
-143.904
-155.293
-166.281
-175.749
-182.321
-184.682
-182.297
-175.335
-164.042
-148.926
-130.978
-111.542
-92.0176
-73.5992
-57.1205
-43.0182
-31.386
-22.0706
-14.7741
-9.14081
-4.78685
-1.47017
-73.5724
-84.6955
-90.6644
-96.4237
-103.291
-111.146
-119.884
-129.466
-139.697
-150.135
-160.072
-168.536
-174.412
-176.548
-174.319
-167.738
-157.01
-142.653
-125.648
-107.281
-88.8588
-71.4731
-55.8782
-42.4668
-31.3225
-22.308
-15.1562
-9.54746
-5.12901
-1.73902
-66.2293
-77.8217
-86.0753
-93.2958
-100.635
-108.431
-116.829
-125.833
-135.245
-144.661
-153.467
-160.854
-165.93
-167.629
-165.211
-158.697
-148.359
-134.758
-118.832
-101.752
-84.6728
-68.5482
-54.0332
-41.4701
-30.9351
-22.3133
-15.3759
-9.84571
-5.40848
-1.97436
-56.8618
-68.4786
-78.5868
-87.6238
-96.0664
-104.313
-112.66
-121.229
-129.914
-138.387
-146.122
-152.441
-156.503
-157.377
-154.471
-147.921
-138.026
-125.342
-110.717
-95.1579
-79.6394
-64.9623
-51.679
-40.0845
-30.2531
-22.0987
-15.4357
-10.0336
-5.62141
-2.17091
-48.0701
-58.8183
-69.4976
-79.5309
-88.8023
-97.5697
-106.08
-114.437
-122.566
-130.213
-136.94
-142.161
-145.027
-144.919
-141.664
-135.333
-126.18
-114.706
-101.639
-87.8076
-74.0087
-60.8986
-48.9385
-38.3853
-29.3186
-21.6846
-15.3437
-10.1128
-5.76601
-2.32536
-40.5299
-49.9133
-60.1423
-70.2065
-79.6191
-88.4764
-96.93
-105.005
-112.597
-119.468
-125.237
-129.373
-131.247
-130.545
-127.304
-121.545
-113.449
-103.434
-92.0952
-80.0965
-68.0748
-56.5629
-45.9471
-36.4565
-28.18
-21.0972
-15.1125
-10.0883
-5.84277
-2.43671
-33.9722
-41.9762
-51.2339
-60.668
-69.6291
-78.0915
-86.1227
-93.6817
-100.625
-106.721
-111.638
-114.939
-116.227
-115.392
-112.498
-107.547
-100.672
-92.2054
-82.6137
-72.4169
-62.1176
-52.1475
-42.8317
-34.3784
-26.8863
-20.3646
-14.7573
-9.96768
-5.8543
-2.50624
-28.2627
-35.0523
-43.1685
-51.6377
-59.7883
-67.5235
-74.8552
-81.7046
-87.9121
-93.262
-97.4829
-100.25
-101.314
-100.637
-98.2614
-94.1953
-88.5449
-81.5625
-73.6037
-65.0685
-56.3515
-47.8016
-39.6943
-32.2191
-25.4816
-19.5148
-14.2951
-9.76036
-5.80503
-2.53694
-23.3042
-29.0761
-36.0826
-43.5
-50.7046
-57.5701
-64.0788
-70.1409
-75.6026
-80.2763
-83.9501
-86.3956
-87.4403
-87.0448
-85.2288
-82.0109
-77.4788
-71.8202
-65.3012
-58.2271
-50.9067
-43.6221
-36.6062
-30.0307
-24.0033
-18.5737
-13.7431
-9.47708
-5.70078
-2.53296
-18.9776
-23.9126
-29.9341
-36.3587
-42.6357
-48.6338
-54.3245
-59.6228
-64.393
-68.4797
-71.7207
-73.9563
-75.0537
-74.9543
-73.6579
-71.1883
-67.6178
-63.0855
-57.7892
-51.9611
-45.8424
-39.6609
-33.6129
-27.8515
-22.4823
-17.5649
-13.1182
-9.12927
-5.5483
-2.49889
-15.1791
-19.4286
-24.6123
-30.1638
-35.6064
-40.817
-45.7658
-50.3792
-54.5433
-58.1321
-61.0208
-63.0938
-64.2442
-64.4013
-63.5481
-61.706
-58.9335
-55.3341
-51.0543
-46.2707
-41.1715
-35.9403
-30.7414
-25.7094
-20.9443
-16.5099
-12.4371
-8.72864
-5.35485
-2.43942
-11.8296
-15.5153
-19.9982
-24.8058
-29.5289
-34.057
-38.3637
-42.3879
-46.0358
-49.2055
-51.7993
-53.7294
-54.909
-55.2664
-54.7724
-53.4412
-51.3186
-48.4814
-45.0384
-41.1236
-36.8839
-32.4666
-28.0082
-23.6257
-19.411
-15.4284
-11.7156
-8.28675
-5.12784
-2.35907
-8.86725
-12.0861
-15.9848
-20.1667
-24.2804
-28.2294
-31.9917
-35.5177
-38.7305
-41.5473
-43.8898
-45.6882
-46.8735
-47.3783
-47.1661
-46.2441
-44.6459
-42.4281
-39.6714
-36.4774
-32.9603
-29.2381
-25.4235
-21.6169
-17.9009
-14.3378
-10.9685
-7.81476
-4.87456
-2.26211
-6.24228
-9.0721
-12.4832
-16.1404
-19.7415
-23.2029
-26.5069
-29.6138
-32.4605
-34.9787
-37.1045
-38.78
-39.9545
-40.5661
-40.5704
-39.9722
-38.7952
-37.0799
-34.8856
-32.2891
-29.3792
-26.2499
-22.9938
-19.696
-16.4299
-13.2537
-10.2093
-7.32318
-4.60206
-2.15253
-3.91409
-6.41797
-9.42098
-12.6381
-15.8085
-18.86
-21.7789
-24.5333
-27.0711
-29.3361
-31.2751
-32.8399
-33.9893
-34.6717
-34.843
-34.5009
-33.6616
-32.3536
-30.6202
-28.5192
-26.1193
-23.4951
-20.7225
-17.8731
-15.011
-12.1897
-9.45033
-6.8217
-4.31695
-2.03402
-1.849
-4.07855
-6.73898
-9.58643
-12.3949
-15.1017
-17.6966
-20.1539
-22.4308
-24.4802
-26.2576
-27.7227
-28.8401
-29.5669
-29.8644
-29.7241
-29.1553
-28.1774
-26.8218
-25.1317
-23.16
-20.966
-18.6112
-16.1557
-13.6551
-11.1575
-8.7023
-6.31912
-4.02535
-1.90997
-0.0186074
-2.01646
-4.3886
-6.92508
-9.42895
-11.8456
-14.1675
-16.3742
-18.4299
-20.2952
-21.9325
-23.3076
-24.3897
-25.1434
-25.5352
-25.5529
-25.2002
-24.4898
-23.4439
-22.0945
-20.4824
-18.6542
-16.6598
-14.5495
-12.3709
-10.1671
-7.97469
-5.82328
-3.73284
-1.7834
1.60125
-0.200371
-2.32948
-4.604
-6.85124
-9.02346
-11.1151
-13.1099
-14.9779
-16.6857
-18.2015
-19.4957
-20.5417
-21.3097
-21.7713
-21.9123
-21.732
-21.2381
-20.4459
-19.379
-18.0684
-16.551
-14.867
-13.0582
-11.1653
-9.22656
-7.27562
-5.34109
-3.44442
-1.65703
3.03131
1.39612
-0.527867
-2.58159
-4.61254
-6.57866
-8.47603
-10.2916
-12.0002
-13.5732
-14.9835
-16.2055
-17.2158
-17.9896
-18.5022
-18.7388
-18.6958
-18.377
-17.7926
-16.9597
-15.9019
-14.6479
-13.2305
-11.6842
-10.0438
-8.34281
-6.61201
-4.87858
-3.16453
-1.53321
4.28925
2.79525
1.04435
-0.823319
-2.67203
-4.46447
-6.19796
-7.862
-9.43521
-10.8931
-12.212
-13.3698
-14.3461
-15.1196
-15.6691
-15.9796
-16.0456
-15.8681
-15.4537
-14.8144
-13.9679
-12.9369
-11.7477
-10.429
-9.01046
-7.52139
-5.98972
-4.44097
-2.89709
-1.41402
5.39039
4.01599
2.41093
0.699758
-0.995703
-2.64202
-4.2375
-5.77367
-7.23221
-8.59183
-9.83196
-10.9332
-11.8772
-12.6468
-13.2228
-13.5899
-13.7421
-13.6786
-13.4029
-12.9233
-12.2531
-11.4102
-10.4156
-9.29325
-8.06841
-6.76682
-5.41366
-4.03274
-2.6455
-1.30124
6.34717
5.07369
3.59106
2.01103
0.443964
-1.07991
-2.55962
-3.9883
-5.35011
-6.62639
-7.79902
-8.8509
-9.76568
-10.5283
-11.1223
-11.5329
-11.7533
-11.7813
-11.6183
-11.27
-10.7463
-10.061
-9.23138
-8.27722
-7.22019
-6.08292
-4.88809
-3.6578
-2.41279
-1.19643
7.17111
5.98218
4.60165
3.13079
1.67057
0.248637
-1.13462
-2.47359
-3.75441
-4.96054
-6.0759
-7.08522
-7.97388
-8.72818
-9.33378
-9.77742
-10.0514
-10.1526
-10.0809
-9.84003
-9.43715
-8.8832
-8.19221
-7.38084
-6.46772
-5.47279
-4.41656
-3.31954
-2.20159
-1.10093
7.86909
6.75021
5.45385
4.07285
2.70056
1.36253
0.0587452
-1.20618
-2.41998
-3.56779
-4.63514
-5.6083
-6.474
-7.21965
-7.83259
-8.30087
-8.61653
-8.77556
-8.77697
-8.62284
-8.3185
-7.87257
-7.29662
-6.60475
-5.81314
-4.93948
-4.00243
-3.02103
-2.01427
-1.01588
8.45133
7.38927
6.1611
4.85273
3.55144
2.28117
1.04162
-0.163396
-1.32282
-2.42315
-3.45119
-4.39438
-5.24055
-5.97806
-6.59547
-7.08201
-7.42971
-7.63407
-7.69334
-7.6085
-7.38346
-7.02507
-6.54301
-5.94938
-5.25838
-4.48589
-3.64898
-2.76543
-1.85337
-0.94267
8.91603
7.8988
6.72405
5.4726
4.227
3.00993
1.82083
0.662954
-0.453591
-1.51631
-2.513
-3.43202
-4.26203
-4.99213
-5.61181
-6.11121
-6.48255
-6.72105
-6.82445
-6.79298
-6.62951
-6.33964
-5.93159
-5.41594
-4.80536
-4.11427
-3.35843
-2.55457
-1.72004
-0.881522
9.27772
8.29346
7.15846
5.94919
4.74474
3.56691
2.41502
1.29191
0.206996
-0.82797
-1.80148
-2.70257
-3.52053
-4.24497
-4.86614
-5.375
-5.76402
-6.02815
-6.16471
-6.17336
-6.05625
-5.81808
-5.46603
-5.00957
-4.46022
-3.8313
-3.13754
-2.39477
-1.61968
-0.835976
9.51798
8.5552
7.44656
6.26594
5.08941
3.93809
2.81135
1.71182
0.648455
-0.367501
-1.32499
-2.21348
-3.02253
-3.74184
-4.362
-4.87498
-5.27395
-5.5538
-5.71155
-5.74649
-5.66025
-5.4569
-5.14289
-4.72691
-4.21966
-3.63363
-2.98278
-2.28222
-1.54808
-0.802156
9.66788
8.71005
7.61406
6.44825
5.28553
4.14683
3.03189
1.94334
0.889887
-0.117451
-1.06788
-1.95117
-2.75738
-3.47702
-4.10078
-4.61964
-5.02644
-5.31643
-5.48678
-5.53669
-5.46758
-5.28319
-4.98959
-4.59505
-4.10981
-3.54586
-2.91668
-2.23672
-1.52102
-0.786497
)
;

boundaryField
{
    inlet
    {
        type            zeroGradient;
    }
    outlet
    {
        type            fixedValue;
        value           uniform 0;
    }
    flap
    {
        type            zeroGradient;
    }
    upperWall
    {
        type            zeroGradient;
    }
    lowerWall
    {
        type            zeroGradient;
    }
    frontAndBack
    {
        type            empty;
    }
}


// ************************************************************************* //
