/*--------------------------------*- C++ -*----------------------------------*\
| =========                 |                                                 |
| \\      /  F ield         | OpenFOAM: The Open Source CFD Toolbox           |
|  \\    /   O peration     | Version:  dev                                   |
|   \\  /    A nd           | Web:      www.OpenFOAM.org                      |
|    \\/     M anipulation  |                                                 |
\*---------------------------------------------------------------------------*/
FoamFile
{
    version     2.0;
    format      ascii;
    class       volScalarField;
    location    "0.26";
    object      p;
}
// * * * * * * * * * * * * * * * * * * * * * * * * * * * * * * * * * * * * * //

dimensions      [0 2 -2 0 0 0 0];

internalField   nonuniform List<scalar> 
2790
(
79.3693
79.2579
79.4969
80.0725
80.8795
81.8663
83.0253
84.3571
85.8581
87.5224
89.343
91.312
93.4201
95.6556
98.0031
100.444
102.954
105.506
108.067
110.599
113.063
115.414
117.609
119.604
121.361
122.849
124.046
124.944
125.55
125.894
79.1782
79.1647
79.4273
80.0009
80.8044
81.7879
82.9424
84.2681
85.762
87.4181
89.2298
91.1894
93.2879
95.5139
97.8526
100.286
102.791
105.34
107.902
110.441
112.916
115.286
117.505
119.53
121.324
122.852
124.092
125.033
125.679
126.092
78.9794
79.0361
79.3171
79.8807
80.6711
81.6417
82.7812
84.0889
85.562
87.1946
88.9801
90.9111
92.9787
95.1722
97.4776
99.8777
102.352
104.874
107.415
109.941
112.414
114.794
117.039
119.107
120.959
122.559
123.883
124.914
125.645
126.141
78.7552
78.844
79.1364
79.6903
80.4655
81.4193
82.5388
83.8227
85.2677
86.8681
88.6173
90.5079
92.5313
94.6772
96.9326
99.2814
101.704
104.178
106.677
109.169
111.62
113.994
116.251
118.352
120.258
121.932
123.344
124.468
125.281
125.876
78.4955
78.5986
78.8982
79.4435
80.2015
81.1339
82.2275
83.4802
84.8888
86.4475
88.1495
89.9877
91.9537
94.0375
96.2267
98.5068
100.86
103.266
105.7
108.135
110.542
112.887
115.136
117.25
119.193
120.927
122.415
123.624
124.516
125.24
78.196
78.3043
78.6052
79.1395
79.8769
80.7826
81.8442
83.059
84.4234
85.9317
87.5769
89.3519
91.2484
93.2566
95.365
97.5599
99.8251
102.142
104.49
106.845
109.181
111.47
113.68
115.779
117.731
119.497
121.037
122.31
123.252
124.025
77.8549
77.9634
78.2602
78.7803
79.4938
80.3685
81.3926
82.5632
83.8763
85.3258
86.9048
88.606
90.421
92.3404
94.3531
96.4461
98.6047
100.812
103.05
105.298
107.533
109.732
111.869
113.914
115.836
117.597
119.153
120.46
121.433
122.287
77.4719
77.5773
77.8655
78.3681
79.0545
79.894
80.8755
81.9958
83.2506
84.6334
86.1371
87.7542
89.4762
91.2937
93.1958
95.1701
97.2027
99.2782
101.38
103.49
105.591
107.661
109.679
111.623
113.464
115.17
116.697
117.999
118.972
119.88
77.0473
77.1475
77.4238
77.9054
78.5615
79.3618
80.2959
81.3603
82.5502
83.8588
85.2787
86.8019
88.4198
90.1226
91.8993
93.7377
95.6242
97.5442
99.482
101.422
103.347
105.241
107.087
108.869
110.565
112.149
113.585
114.828
115.748
116.571
76.5824
76.6758
76.9372
77.395
78.0176
78.7751
79.6573
80.6605
81.7795
83.007
84.3351
85.7553
87.2585
88.8343
90.4713
92.1568
93.8768
95.6165
97.3603
99.0925
100.798
102.461
104.07
105.612
107.075
108.446
109.7
110.813
111.679
112.7
76.0785
76.1641
76.4084
76.8395
77.4257
78.1371
78.9634
79.9007
80.9434
82.0835
83.3125
84.6214
86
87.4374
88.921
90.4372
91.9707
93.5055
95.0246
96.5105
97.9465
99.3171
100.609
101.815
102.929
103.952
104.883
105.726
106.366
107.269
75.5377
75.6144
75.8397
76.2419
76.7891
77.4513
78.2182
79.0855
80.047
81.0942
82.2177
83.4077
84.6531
85.9417
87.2595
88.5911
89.9194
91.2257
92.4898
93.6905
94.8063
95.8164
96.7026
97.4522
98.0621
98.5437
98.9222
99.2463
99.4054
99.7301
74.9618
75.029
75.2339
75.6051
76.111
76.7215
77.4259
78.2196
79.0958
80.0454
81.058
82.1228
83.2275
84.3582
85.4994
86.6332
87.7397
88.7962
89.7777
90.6566
91.4027
91.9842
92.3687
92.5268
92.4384
92.1061
91.5701
90.9518
90.3394
91.0762
74.3533
74.4104
74.5936
74.9323
75.395
75.9515
76.591
77.3082
78.0958
78.9438
79.8411
80.7756
81.7335
82.6993
83.6552
84.5806
85.4517
86.2411
86.9173
87.4437
87.7775
87.8694
87.6621
87.0905
86.0857
84.588
82.5753
80.1237
76.8919
72.6741
73.7146
73.7613
73.9219
74.2267
74.6446
75.1454
75.7179
76.3564
77.0527
77.7963
78.5749
79.3752
80.1819
80.9776
81.742
82.4513
83.0776
83.588
83.9431
84.0956
83.9875
83.5464
82.6805
81.2706
79.1596
76.1438
71.9861
66.686
61.4324
62.6651
-93.7051
-94.5838
-96.1159
-98.4169
-101.525
-105.425
-110.025
-115.133
-120.447
-125.545
-129.902
-132.914
-133.955
-132.45
-127.982
-120.393
-109.891
-97.0517
-82.7373
-67.9468
-53.6492
-40.6319
-29.4006
-20.1602
-12.5408
-6.22527
-1.60978
1.16445
2.33075
2.07427
-93.8988
-94.7166
-96.2683
-98.6163
-101.797
-105.799
-110.527
-115.788
-121.274
-126.555
-131.091
-134.265
-135.435
-134.019
-129.597
-122.014
-111.479
-98.5774
-84.1711
-69.2585
-54.8108
-41.6253
-30.2254
-20.8381
-13.062
-6.61774
-1.94262
0.896681
2.12878
2.01335
-94.5245
-95.5336
-97.1913
-99.6589
-102.975
-107.132
-112.042
-117.512
-123.231
-128.76
-133.545
-136.945
-138.299
-136.999
-132.604
-124.949
-114.259
-101.145
-86.4891
-71.3067
-56.581
-43.1238
-31.4751
-21.863
-13.8375
-7.18584
-2.40268
0.544238
1.88345
1.9626
-96.0261
-97.0909
-98.8517
-101.464
-104.953
-109.323
-114.489
-120.259
-126.318
-132.213
-137.365
-141.102
-142.728
-141.598
-137.23
-129.438
-118.472
-104.986
-89.9028
-74.2693
-59.0967
-45.221
-33.1992
-23.241
-14.8537
-7.93754
-3.01252
0.0773266
1.56156
1.87463
-98.3142
-99.3689
-101.203
-103.958
-107.645
-112.273
-117.76
-123.915
-130.413
-136.783
-142.414
-146.589
-148.567
-147.654
-143.305
-135.31
-123.957
-109.96
-94.2949
-78.0547
-62.2907
-47.8705
-35.3652
-24.9326
-16.0673
-8.8627
-3.75888
-0.489597
1.17651
1.75343
-101.179
-102.25
-104.152
-107.052
-110.955
-115.88
-121.749
-128.369
-135.406
-142.364
-148.59
-153.311
-155.719
-155.056
-150.702
-142.422
-130.57
-115.929
-99.5414
-82.5562
-66.0758
-51.0045
-37.9209
-26.8496
-17.4313
-9.95935
-4.62934
-1.14638
0.734376
1.59657
-104.547
-105.571
-107.538
-110.585
-114.718
-119.97
-126.27
-133.426
-141.089
-148.738
-155.667
-161.032
-163.936
-163.547
-159.153
-150.509
-138.059
-122.668
-105.45
-87.6151
-70.3266
-54.5203
-40.7416
-28.9097
-18.9437
-11.1905
-5.60345
-1.87891
0.24461
1.40574
-108.021
-109.093
-111.133
-114.325
-118.692
-124.291
-131.057
-138.799
-147.159
-155.583
-163.311
-169.407
-172.863
-172.753
-168.279
-159.199
-146.08
-129.876
-111.767
-93.0265
-74.8807
-58.2784
-43.6729
-31.0338
-20.5866
-12.5237
-6.65695
-2.67061
-0.282276
1.18355
-111.736
-112.612
-114.668
-117.984
-122.577
-128.524
-135.769
-144.126
-153.226
-162.485
-171.08
-177.979
-182.021
-182.172
-177.574
-168.014
-154.203
-137.181
-118.195
-98.5504
-79.5389
-62.0863
-46.5549
-33.1879
-22.3215
-13.9229
-7.76279
-3.50285
-0.834941
0.933449
-114.709
-115.713
-117.824
-121.238
-126.031
-132.306
-140.019
-148.985
-158.829
-168.94
-178.437
-186.174
-190.818
-191.179
-186.422
-176.399
-161.944
-144.176
-124.41
-103.934
-84.0734
-65.6944
-49.2961
-35.3682
-24.081
-15.345
-8.89148
-4.3557
-1.40172
0.659518
-117.458
-118.267
-120.299
-123.756
-128.705
-135.268
-143.404
-152.932
-163.472
-174.393
-184.766
-193.33
-198.569
-199.062
-194.12
-183.764
-168.844
-150.489
-130.08
-108.904
-88.1825
-68.9528
-51.8947
-37.4659
-25.7939
-16.7442
-10.012
-5.20858
-1.97099
0.366426
-120.239
-120.003
-121.808
-125.236
-130.284
-137.074
-145.556
-155.549
-166.665
-178.266
-189.392
-198.678
-204.433
-205.083
-200.045
-189.541
-174.463
-155.797
-134.865
-113.068
-91.6567
-71.7757
-54.2047
-39.3786
-27.3918
-18.0744
-11.0933
-6.04105
-2.53137
0.0595878
-119.57
-120.171
-122.054
-125.442
-130.556
-137.523
-146.266
-156.589
-168.101
-180.164
-191.823
-201.67
-207.865
-208.743
-203.732
-193.288
-178.274
-159.549
-138.342
-116.122
-94.2747
-73.9949
-56.1007
-41.0165
-28.8123
-19.2931
-12.1064
-6.83398
-3.07215
-0.254845
-120.067
-119.487
-120.926
-124.233
-129.445
-136.588
-145.533
-156.058
-167.771
-180.047
-191.96
-202.1
-208.542
-209.584
-204.742
-194.591
-179.851
-161.305
-140.143
-117.85
-95.8856
-75.4848
-57.4868
-42.3094
-30.0057
-20.3657
-13.0277
-7.57178
-3.58481
-0.570911
-119.691
-117.472
-118.343
-121.633
-127.054
-134.422
-143.531
-154.142
-165.869
-178.101
-189.925
-199.945
-206.302
-207.415
-202.915
-193.301
-179.106
-161.022
-140.21
-118.171
-96.4077
-76.1708
-58.3026
-43.2111
-30.938
-21.2678
-13.8404
-8.24358
-4.06399
-0.883839
73.0354
73.0712
73.2082
73.4775
73.8487
74.2915
74.7944
75.3511
75.9528
76.5881
77.2438
77.9052
78.5554
79.175
79.7411
80.2266
80.5992
80.8201
80.8417
80.6053
80.0365
79.038
77.4795
75.1787
71.8687
67.1347
60.2548
49.7092
30.6988
-18.2766
72.3078
72.3323
72.4445
72.6765
72.9988
73.3811
73.8113
74.2828
74.7862
75.3091
75.8373
76.3548
76.8432
77.281
77.6427
77.898
78.0103
77.9351
77.6174
76.9878
75.9572
74.4069
72.1745
69.0266
64.6096
58.3481
49.214
35.3093
14.0006
-20.2797
71.5374
71.5502
71.6367
71.8301
72.1018
72.4216
72.7771
73.1611
73.5636
73.9714
74.3693
74.7402
75.0641
75.3176
75.4729
75.4969
75.3491
74.9806
74.3302
73.321
71.8538
69.7979
66.9758
63.1396
57.9328
50.8364
41.1165
27.831
10.7486
-10.6267
70.7254
70.7263
70.7865
70.9404
71.1603
71.4163
71.6956
71.9906
72.2907
72.5819
72.8484
73.0718
73.2308
73.3006
73.2514
73.0478
72.6468
71.9962
71.0315
69.672
67.8157
65.3309
62.0462
57.7365
52.1084
44.7936
35.3745
23.3878
8.61243
-9.31201
69.8736
69.8626
69.8961
70.0098
70.1772
70.3686
70.5709
70.7762
70.9734
71.148
71.2834
71.3604
71.3568
71.2464
70.9985
70.5759
69.9347
69.0212
67.7704
66.1024
63.9186
61.0964
57.4839
52.8946
47.1045
39.8556
30.871
19.8309
6.43109
-9.20728
68.9843
68.9613
68.9681
69.0413
69.1558
69.2823
69.4077
69.5235
69.6184
69.6776
69.6839
69.6176
69.4558
69.1719
68.7344
68.106
67.2427
66.0917
64.5902
62.6626
60.2186
57.1505
53.3308
48.6116
42.8257
35.7907
27.3212
17.2367
5.3882
-7.85527
68.0601
68.0254
68.0055
68.0383
68.1002
68.1622
68.2112
68.2387
68.2331
68.1794
68.0602
67.8555
67.5424
67.0941
66.4795
65.6621
64.599
63.2402
61.5272
59.3916
56.7544
53.5247
49.6004
44.8689
39.2112
32.5079
24.6527
15.5709
5.21603
-6.07476
67.1042
67.058
67.012
67.0049
67.0147
67.0133
66.9874
66.9286
66.8253
66.6625
66.4229
66.0866
65.631
65.03
64.2533
63.2662
62.0285
60.4941
58.6104
56.3179
53.5499
50.2332
46.2894
41.6373
36.1977
29.8996
22.6906
14.5496
5.47222
-4.26262
66.1203
66.0631
65.9915
65.9454
65.9044
65.8411
65.7426
65.6004
65.4032
65.1363
64.7827
64.3231
63.7357
62.9954
62.0738
60.9384
59.5526
57.8754
55.861
53.4594
50.6166
47.2759
43.3799
38.8735
33.7077
27.845
21.2659
13.9771
5.99885
-2.43248
65.1125
65.0448
64.9487
64.8647
64.7745
64.6516
64.4834
64.2615
63.9752
63.6103
63.1505
62.5772
61.8699
61.0052
59.9568
58.6953
57.1884
55.4004
53.293
50.8254
47.9557
44.6419
40.8443
36.5278
31.6656
26.2428
20.2605
13.741
6.71834
-0.610637
64.0854
64.008
63.8884
63.7682
63.631
63.4512
63.2167
62.9197
62.55
62.0941
61.5366
60.8603
60.046
59.0725
57.916
56.5508
54.9488
53.0802
50.9138
48.4178
45.5608
42.3133
38.6497
34.5504
30.0041
25.0106
19.5835
13.7527
7.55735
1.15805
63.0441
62.9576
62.816
62.6615
62.4797
62.2463
61.9497
61.5828
61.136
60.5968
59.9511
59.183
58.2751
57.2086
55.9628
54.5153
52.8429
50.9212
48.7257
46.2326
43.4196
40.2676
36.7618
32.8939
28.663
24.0784
19.1601
13.9406
8.45917
2.84588
61.994
61.8993
61.7372
61.5507
61.3272
61.0438
60.6897
60.2585
59.7415
59.1273
58.4031
57.5548
56.567
55.4233
54.106
52.5966
50.8761
48.9255
46.7264
44.2616
41.5167
38.4804
35.1464
31.514
27.5895
23.3873
18.9302
14.2505
9.38509
4.43892
60.9411
60.8391
60.6583
60.442
60.18
59.8506
59.4441
58.9545
58.3745
57.6938
56.9013
55.9844
54.93
53.7242
52.3523
50.7995
49.0508
47.0921
44.91
42.4936
39.834
36.9266
33.7706
30.3709
26.7378
22.8885
18.8464
14.6417
10.3081
5.92978
59.8915
59.7831
59.5854
59.3421
59.0449
58.6739
58.2199
57.6784
57.0427
56.3042
55.4532
54.479
53.3708
52.1171
50.7061
49.1264
47.3668
45.4171
43.2688
40.9154
38.3529
35.5812
32.6038
29.4288
26.0689
22.542
18.871
15.0834
11.2089
7.31529
58.8518
58.738
58.5253
58.2577
57.9288
57.5205
57.0246
56.4373
55.7533
54.9655
54.0657
53.0451
51.895
50.6063
49.1701
47.5778
45.8216
43.895
41.7931
39.513
37.0546
34.4209
31.6182
28.6565
25.5495
22.315
18.9744
15.5521
12.0742
8.59519
57.8288
57.7106
57.4848
57.1957
56.8388
56.3975
55.8649
55.2382
54.5132
53.6842
52.7447
51.6879
50.5068
49.1947
47.7452
46.1524
44.4115
42.5188
40.4723
38.2722
35.921
33.4238
30.7888
28.0267
25.1517
22.1806
19.1329
16.0302
12.895
9.77113
56.8296
56.7079
56.471
56.163
55.7817
55.3119
54.7479
54.0877
53.3286
52.4662
51.4955
50.4115
49.2092
47.8839
46.4313
44.848
43.1315
41.2805
39.2955
37.1788
34.9347
32.5699
30.0934
27.5163
24.8522
22.117
19.3281
16.5043
13.6652
10.8459
55.8614
55.7371
55.491
55.1669
54.7646
54.2705
53.68
52.9921
52.2054
51.3167
50.3226
49.2196
48.0046
46.6745
45.2272
43.6612
41.9759
40.1721
38.252
36.2194
34.08
31.8413
29.5126
27.1051
24.6316
22.1065
19.5453
16.9647
14.3811
11.8231
54.9318
54.8057
54.552
54.2145
53.7944
53.2801
52.6677
51.9575
51.149
50.2405
49.2298
48.1149
46.8942
45.5665
44.1311
42.5882
40.9388
39.1853
37.3312
35.3813
33.3423
31.222
29.0298
26.7763
24.4735
22.1346
19.7733
17.4039
15.0406
12.7066
54.0482
53.9211
53.6616
53.3128
52.8781
52.3471
51.7173
50.9896
50.1646
49.2418
48.2203
47.0996
45.8791
44.5593
43.1407
41.6249
40.0143
38.3123
36.5233
34.6532
32.7087
30.698
28.6303
26.5155
24.3647
22.1898
20.0029
17.8164
15.6427
13.5004
53.2186
53.091
52.827
52.4692
52.0225
51.4783
50.8347
50.0938
49.2569
48.3246
47.2973
46.1755
44.9599
43.652
42.2536
40.7673
39.1966
37.5456
35.8196
34.0246
32.1678
30.2574
28.3018
26.3107
24.2942
22.2628
20.2274
18.1986
16.1872
14.2085
52.451
52.3234
52.056
51.6909
51.2345
50.6799
50.026
49.2754
48.4304
47.4927
46.4635
45.3442
44.1368
42.8435
41.4673
40.0115
38.4802
36.8784
35.2116
33.4862
31.7095
29.8893
28.0338
26.1518
24.2526
22.3458
20.4408
18.5471
16.674
14.834
51.7533
51.626
51.356
50.985
50.521
49.9584
49.2968
48.5396
47.6898
46.7498
45.7216
44.6076
43.4106
42.1335
40.7801
39.3543
37.8609
36.3051
34.6929
33.0308
31.3258
29.5856
27.8179
26.0309
24.2332
22.4332
20.6396
18.8606
17.1043
15.3811
51.1343
51.0073
50.7349
50.3588
49.8887
49.32
48.6531
47.8915
47.0391
46.0989
45.0737
43.9667
42.781
41.5204
40.1892
38.7919
37.3335
35.8197
34.2565
32.6503
31.0083
29.3376
27.6456
25.94
24.2285
22.5189
20.8188
19.1357
17.4767
15.8504
50.6028
50.4757
50.2004
49.8196
49.3446
48.7716
48.1011
47.3372
46.4841
45.5454
44.5246
43.4252
42.2511
41.0065
39.696
38.3245
36.8975
35.4206
33.8999
32.342
30.7537
29.1419
27.5136
25.876
24.2362
22.6014
20.9785
19.3742
17.7949
16.248
50.1688
50.0401
49.7602
49.374
48.8943
48.3177
47.6444
46.879
46.026
45.0895
44.0734
42.9815
41.8181
40.5878
39.2956
37.9465
36.5461
35.1004
33.6153
32.0973
30.5531
28.9893
27.4127
25.8298
24.2475
22.6724
21.1108
19.5688
18.0523
16.5672
49.844
49.7096
49.4228
49.0323
48.55
47.9711
47.2961
46.53
45.6777
44.7435
43.7316
42.6462
41.4919
40.2734
38.9959
37.6648
36.2858
34.8646
33.4074
31.9206
30.4107
28.884
27.3472
25.8064
24.268
22.7383
21.2233
19.7287
18.2599
16.8223
49.6459
49.486
49.183
48.7877
48.3043
47.7244
47.0487
46.2828
45.4318
44.5003
43.4923
42.4122
41.265
40.0554
38.7888
37.4707
36.1067
34.7028
33.2651
31.7998
30.3133
28.8119
27.302
25.7895
24.2806
22.7813
21.2973
19.834
18.3964
16.9894
49.6166
49.4049
49.0773
48.675
48.1883
47.6056
46.9278
46.1609
45.3101
44.3796
43.3736
42.2967
41.1536
39.9493
38.6892
37.3788
36.0238
34.6301
33.2037
31.7509
30.278
28.7911
27.2964
25.7999
24.3074
22.8249
21.3577
19.9113
18.4904
17.0994
-103.448
-148.009
-134.99
-51.9371
-64.5599
-76.8729
-33.4005
-47.399
-60.2585
-29.7129
-43.3949
-54.6004
-25.6305
-36.8409
-46.4192
-21.1614
-30.4295
-38.5984
-17.2654
-25.105
-32.0263
-13.7954
-20.4568
-26.2936
-10.5852
-16.2656
-21.2012
-7.61859
-12.4892
-16.6889
-4.89854
-9.09753
-12.6954
-2.41471
-6.05309
-9.15648
-0.152641
-3.32116
-6.01576
1.90239
-0.870952
-3.22554
3.76498
1.32508
-0.745119
5.44933
3.29148
1.46024
6.96875
5.04991
3.42016
8.33556
6.61948
5.16007
9.56107
8.01708
6.70192
10.6557
9.25767
8.06472
11.6285
10.3542
9.26474
12.4882
11.3183
10.3163
13.2413
12.1592
11.2308
13.8952
12.8863
12.0193
14.4523
13.5037
12.6874
14.9216
14.0217
13.2463
15.2959
14.4343
13.6916
15.5938
14.7605
14.041
15.7877
14.9738
14.2714
15.9181
15.1181
14.4239
-113.902
-113.262
-114.248
-117.86
-123.706
-131.354
-140.568
-151.123
-162.648
-174.551
-185.932
-195.469
-201.509
-202.692
-198.637
-189.689
-176.193
-158.764
-138.552
-117.064
-95.807
-76.0174
-58.5176
-43.6981
-31.5925
-21.9884
-14.5377
-8.84558
-4.50813
-1.19031
-92.2188
-102.303
-107.689
-113.348
-120.043
-127.934
-137.081
-147.351
-158.407
-169.682
-180.322
-189.14
-194.755
-195.973
-192.344
-184.02
-171.219
-154.536
-135.12
-114.457
-94.008
-74.9549
-58.0717
-43.7211
-31.9298
-22.4969
-15.0967
-9.36127
-4.90657
-1.48039
-79.5947
-94.9124
-102.601
-109.139
-116.462
-124.636
-133.622
-143.391
-153.714
-164.098
-173.774
-181.724
-186.83
-187.976
-184.567
-176.628
-164.381
-148.456
-129.994
-110.406
-91.0502
-73.0062
-56.9735
-43.2772
-31.9399
-22.7802
-15.5042
-9.77965
-5.25178
-1.74679
-70.608
-86.4971
-97.0047
-105.309
-113.224
-121.412
-130.118
-139.341
-148.862
-158.252
-166.859
-173.846
-178.271
-179.056
-175.461
-167.587
-155.748
-140.622
-123.292
-105.03
-87.0344
-70.2445
-55.268
-42.3886
-31.6291
-22.8351
-15.753
-10.0929
-5.53693
-1.98224
-60.1309
-75.3074
-87.9997
-98.6634
-108.05
-116.859
-125.576
-134.396
-143.217
-151.69
-159.269
-165.282
-168.689
-168.573
-164.512
-156.624
-145.279
-131.15
-115.206
-98.531
-82.1321
-66.7971
-53.0388
-41.1035
-31.0206
-22.6696
-15.843
-10.2976
-5.75746
-2.18136
-50.0288
-63.6293
-76.9192
-88.9551
-99.5939
-109.257
-118.353
-127.083
-135.416
-143.1
-149.679
-154.533
-156.753
-155.683
-151.277
-143.658
-133.148
-120.347
-106.071
-91.2112
-76.5843
-62.8369
-50.3992
-39.4892
-30.1502
-22.3001
-15.7795
-10.3937
-5.9108
-2.34049
-41.3511
-52.9773
-65.568
-77.6856
-88.6829
-98.704
-107.985
-116.617
-124.532
-131.506
-137.144
-140.869
-142.077
-140.496
-136.211
-129.292
-119.987
-108.797
-96.385
-83.4604
-70.677
-58.5614
-47.4767
-37.6232
-29.0618
-21.7489
-15.5727
-10.3846
-5.99656
-2.45816
-33.9242
-43.6589
-54.8982
-66.2076
-76.7469
-86.4713
-95.4719
-103.728
-111.111
-117.394
-122.234
-125.163
-125.85
-124.271
-120.498
-114.563
-106.663
-97.1952
-86.68
-75.6716
-64.6882
-54.1588
-44.3941
-35.582
-27.8006
-21.0417
-15.2358
-10.2766
-6.01652
-2.53497
-27.5259
-35.6483
-45.3641
-55.4357
-65.0188
-73.971
-82.2936
-89.8995
-96.6222
-102.24
-106.474
-108.985
-109.588
-108.327
-105.254
-100.4
-93.9185
-86.1143
-77.3837
-68.1549
-58.8367
-49.7801
-41.2529
-33.4321
-26.4093
-20.2048
-14.7844
-10.078
-5.97432
-2.57327
-22.0047
-28.8188
-37.1021
-45.8437
-54.2808
-62.2386
-69.6773
-76.4857
-82.4921
-87.4972
-91.2815
-93.6146
-94.3642
-93.5488
-91.2122
-87.3936
-82.2149
-75.9023
-68.7545
-61.1001
-53.262
-45.5274
-38.1274
-31.227
-24.9255
-19.2637
-14.235
-9.79884
-5.87515
-2.57654
-17.2181
-22.9884
-30.0352
-37.5431
-44.8544
-51.797
-58.3197
-64.3142
-69.6244
-74.0807
-77.5136
-79.7647
-80.7194
-80.3522
-78.6931
-75.7872
-71.7311
-66.6923
-60.8945
-54.5899
-48.0333
-41.4599
-35.0677
-29.0078
-23.3813
-18.2423
-13.6046
-9.45017
-5.72529
-2.54888
-13.0441
-17.9806
-24.0007
-30.4429
-36.7498
-42.7666
-48.4446
-53.6899
-58.3692
-62.3429
-65.4788
-67.6619
-68.7896
-68.8067
-67.7231
-65.5807
-62.4567
-58.4755
-53.8042
-48.6366
-43.1738
-37.6076
-32.1064
-26.806
-21.8045
-17.1634
-12.9099
-9.04358
-5.53168
-2.49461
-9.38722
-13.6517
-18.8302
-24.3801
-29.831
-35.0485
-39.9918
-44.5832
-48.7129
-52.2662
-55.1383
-57.2399
-58.4824
-58.7991
-58.1804
-56.658
-54.2926
-51.1769
-47.4359
-43.218
-38.6821
-33.984
-29.2656
-24.6465
-20.2193
-16.0476
-12.1674
-8.59076
-5.30159
-2.41801
-6.17244
-9.88923
-14.3778
-19.1883
-23.9228
-28.4666
-32.787
-36.8216
-40.4803
-43.6693
-46.3029
-48.309
-49.6149
-50.1523
-49.8966
-48.8687
-47.1146
-44.7027
-41.7265
-38.2996
-34.5468
-30.5942
-26.5605
-22.5498
-18.6467
-14.9141
-11.3927
-8.10319
-5.04236
-2.32326
-3.33957
-6.60533
-10.5254
-14.7238
-18.8618
-22.8422
-26.6394
-30.2037
-33.4614
-36.3349
-38.7532
-40.6543
-41.9867
-42.6846
-42.7059
-42.0676
-40.8032
-38.9623
-36.6139
-33.8448
-30.7525
-27.4389
-24.0023
-20.5323
-17.1049
-13.78
-10.6003
-7.59184
-4.76115
-2.21434
-0.839557
-3.73068
-7.17978
-10.8697
-14.511
-18.0207
-21.3792
-24.5472
-27.4639
-30.0652
-32.2917
-34.091
-35.4195
-36.223
-36.4567
-36.1254
-35.2527
-33.8743
-32.0409
-29.8183
-27.2828
-24.5157
-21.5984
-18.6072
-15.6094
-12.6606
-9.80334
-7.06699
-4.46483
-2.09504
1.36808
-1.20973
-4.2665
-7.53279
-10.7594
-13.8753
-16.8658
-19.6995
-22.3264
-24.6931
-26.7496
-28.4513
-29.76
-30.6306
-31.0229
-30.9318
-30.3716
-29.3674
-27.9562
-26.1876
-24.1206
-21.8205
-19.3538
-16.7851
-14.1733
-11.5692
-9.01384
-6.53807
-4.15988
-1.96887
3.31714
1.00276
-1.72582
-4.63788
-7.51749
-10.3033
-12.9845
-15.5359
-17.9163
-20.0808
-21.987
-23.5966
-24.8763
-25.7883
-26.2976
-26.3932
-26.0817
-25.3799
-24.3145
-22.9225
-21.2497
-19.3476
-17.2709
-15.0737
-12.8072
-10.5171
-8.2423
-6.01367
-3.85225
-1.83904
5.03612
2.94411
0.490943
-2.12416
-4.71271
-7.22142
-9.64219
-11.9551
-14.1256
-16.1159
-17.8897
-19.4142
-20.6599
-21.5954
-22.1903
-22.43
-22.3157
-21.8581
-21.0757
-19.9959
-18.6539
-17.0907
-15.3505
-13.4789
-11.5198
-9.51412
-7.49791
-5.50143
-3.54742
-1.70846
6.54917
4.64534
2.4238
0.0580409
-2.28603
-4.56175
-6.76318
-8.87431
-10.8663
-12.7067
-14.3644
-15.811
-17.0203
-17.9672
-18.6244
-18.9747
-19.0164
-18.7554
-18.2043
-17.383
-16.3184
-15.0428
-13.5923
-12.0047
-10.318
-8.56824
-6.7886
-5.00811
-3.25027
-1.57975
7.87671
6.13229
4.10569
1.94939
-0.189287
-2.26909
-4.28573
-6.22634
-8.06647
-9.77821
-11.3347
-12.711
-13.884
-14.8333
-15.5349
-15.9698
-16.1346
-16.0317
-15.6694
-15.0617
-14.2291
-13.1971
-11.9948
-10.6541
-9.20721
-7.68619
-6.12115
-4.53963
-2.96519
-1.45522
9.03626
7.42674
5.56406
3.58352
1.61719
-0.298084
-2.1593
-3.95607
-5.66745
-7.2692
-8.73794
-10.0519
-11.1905
-12.1356
-12.8668
-13.3666
-13.6285
-13.6527
-13.444
-13.0124
-12.3733
-11.5466
-10.5563
-9.42872
-8.19174
-6.8735
-5.50137
-4.10117
-2.69607
-1.3369
10.042
8.54626
6.82094
4.9874
3.16521
1.38763
-0.343342
-2.01925
-3.62193
-5.13015
-6.52339
-7.78239
-8.88894
-9.82631
-10.5773
-11.126
-11.4641
-11.5898
-11.5057
-11.2185
-10.7398
-10.0854
-9.27475
-8.32999
-7.2751
-6.13491
-4.93426
-3.69724
-2.44634
-1.2266
10.9068
9.50643
7.89555
6.18417
4.48173
2.81862
1.19606
-0.378964
-1.89056
-3.31995
-4.64888
-5.86018
-6.93746
-7.86547
-8.62914
-9.21424
-9.61165
-9.81809
-9.83439
-9.66504
-9.31863
-8.80766
-8.14809
-7.35864
-6.46005
-5.47435
-4.42411
-3.33179
-2.21906
-1.12587
11.6386
10.3173
8.80069
7.18971
5.58569
4.01669
2.4834
0.991632
-0.444557
-1.80831
-3.08321
-4.25374
-5.30504
-6.22308
-6.99439
-7.60622
-8.04926
-8.31926
-8.41569
-8.34137
-8.10267
-7.70959
-7.17536
-6.51593
-5.74945
-4.89557
-3.97491
-3.00845
-2.01698
-1.03609
12.2485
10.9915
9.55118
8.02123
6.49655
5.00348
3.5423
2.11787
0.74284
-0.567443
-1.79798
-2.93462
-3.96369
-4.87217
-5.64787
-6.27923
-6.75709
-7.07654
-7.23614
-7.23745
-7.08525
-6.78759
-6.3556
-5.80307
-5.14604
-4.40225
-3.59066
-2.73095
-1.84309
-0.958869
12.7352
11.5291
10.1486
8.68209
7.21956
5.78605
4.38149
3.01003
1.68324
0.415338
-0.779786
-1.889
-2.8996
-3.79934
-4.57701
-5.22196
-5.72527
-6.08178
-6.28943
-6.34889
-6.26378
-6.04075
-5.68934
-5.22171
-4.65224
-3.99714
-3.27402
-2.50147
-1.69874
-0.89452
13.1137
11.9453
10.6092
9.18955
7.77285
6.38322
5.02037
3.68793
2.39672
1.1601
-0.00882173
-1.09768
-2.09446
-2.98751
-3.76617
-4.42068
-4.94273
-5.32684
-5.57038
-5.67339
-5.63866
-5.47184
-5.18134
-4.77812
-4.27533
-3.68803
-3.03275
-2.3272
-1.58996
-0.846924
13.3661
12.2227
10.9162
9.52834
8.14268
6.78266
5.44798
4.14199
2.87498
1.65978
0.508936
-0.565651
-1.55237
-2.43984
-3.21733
-3.87588
-4.40838
-4.80935
-5.0758
-5.20731
-5.2061
-5.07713
-4.82803
-4.46888
-4.01198
-3.47152
-2.86325
-2.20412
-1.51222
-0.811651
13.5232
12.386
11.0938
9.72225
8.35191
7.00601
5.68458
4.39094
3.13513
1.9297
0.786959
-0.281509
-1.26448
-2.15121
-2.93193
-3.59704
-4.1382
-4.5502
-4.8303
-4.97806
-4.99544
-4.88706
-4.66014
-4.3243
-3.89134
-3.37495
-2.79035
-2.15388
-1.48249
-0.795345
)
;

boundaryField
{
    inlet
    {
        type            zeroGradient;
    }
    outlet
    {
        type            fixedValue;
        value           uniform 0;
    }
    flap
    {
        type            zeroGradient;
    }
    upperWall
    {
        type            zeroGradient;
    }
    lowerWall
    {
        type            zeroGradient;
    }
    frontAndBack
    {
        type            empty;
    }
}


// ************************************************************************* //
