/*--------------------------------*- C++ -*----------------------------------*\
| =========                 |                                                 |
| \\      /  F ield         | OpenFOAM: The Open Source CFD Toolbox           |
|  \\    /   O peration     | Version:  dev                                   |
|   \\  /    A nd           | Web:      www.OpenFOAM.org                      |
|    \\/     M anipulation  |                                                 |
\*---------------------------------------------------------------------------*/
FoamFile
{
    version     2.0;
    format      ascii;
    class       surfaceVectorField;
    location    "0.26";
    object      Uf;
}
// * * * * * * * * * * * * * * * * * * * * * * * * * * * * * * * * * * * * * //

dimensions      [0 1 -1 0 0 0 0];

internalField   nonuniform List<vector> 
5457
(
(9.91627 1.10909e-20 0.0248298)
(9.96431 2.22554e-20 0.040125)
(9.81559 0 0.032872)
(9.92073 -1.14965e-20 0.0496025)
(9.69687 -6.15306e-21 0.0395566)
(9.84685 1.17552e-20 0.060128)
(9.55856 -5.99994e-21 0.0463006)
(9.7446 -3.15334e-25 0.071966)
(9.40088 -6.69811e-21 0.0531835)
(9.62093 0 0.084265)
(9.2242 -6.42622e-21 0.0602649)
(9.47835 -1.18107e-22 0.0969559)
(9.02847 1.59918e-22 0.0676855)
(9.3165 1.05015e-22 0.110264)
(8.8133 -2.79936e-24 0.0755792)
(9.13464 2.76344e-22 0.124413)
(8.57808 -3.93747e-21 0.0840508)
(8.93213 -2.82971e-22 0.139571)
(8.32203 2.74746e-22 0.093184)
(8.70825 -7.63438e-21 0.15588)
(8.04427 3.89437e-21 0.103041)
(8.46217 3.32504e-23 0.173456)
(7.74392 3.39458e-24 0.113654)
(8.19296 -6.64961e-23 0.192373)
(7.42013 3.6451e-22 0.125018)
(7.89959 6.82102e-23 0.212648)
(7.07227 -1.50978e-23 0.137082)
(7.58114 3.09804e-22 0.234222)
(6.69996 -2.97603e-22 0.149742)
(7.23684 -2.71965e-22 0.256949)
(6.30326 -1.38722e-21 0.162839)
(6.86619 -1.25333e-21 0.280576)
(5.88274 7.14228e-23 0.176164)
(6.46911 1.3339e-21 0.304738)
(5.4396 7.47675e-21 0.189459)
(6.04601 -1.3696e-21 0.328958)
(4.97577 -4.80606e-22 0.202429)
(5.59796 -5.85174e-21 0.352646)
(4.49398 -6.25467e-21 0.214746)
(5.12671 2.47696e-20 0.375105)
(3.9978 -3.59351e-21 0.226047)
(4.63486 -6.50149e-21 0.395538)
(3.49172 7.73404e-21 0.235923)
(4.12587 -3.13183e-20 0.413034)
(2.98122 3.22333e-21 0.243899)
(3.60417 5.45387e-20 0.426553)
(2.47287 -7.59396e-21 0.24942)
(3.07521 -2.32112e-20 0.434887)
(1.97442 -4.31834e-20 0.251902)
(2.54551 6.39024e-20 0.43663)
(1.4949 -6.53436e-21 0.250926)
(2.02266 1.6018e-20 0.430192)
(1.0445 3.48159e-20 0.246565)
(1.51519 -5.12525e-20 0.413887)
(0.634575 -2.72058e-19 0.239016)
(1.03232 0 0.385768)
(0.279154 5.61842e-18 0.211128)
(0.579105 -3.04751e-19 0.341161)
(0.279942 6.15321e-18 0.221703)
(9.99485 -5.63949e-22 0.0527655)
(9.99095 -1.1149e-20 0.0426098)
(9.9536 5.53558e-22 0.0726509)
(9.97216 -7.48245e-23 0.0699449)
(9.88921 1.7747e-20 0.0901128)
(9.9268 2.18546e-22 0.0927631)
(9.80361 5.98743e-21 0.108125)
(9.85394 5.87523e-21 0.116538)
(9.69695 6.57249e-21 0.126843)
(9.75926 -1.28756e-20 0.141293)
(9.56945 6.41019e-21 0.146347)
(9.64534 6.48591e-21 0.166961)
(9.42106 2.23575e-22 0.166929)
(9.51207 8.39638e-22 0.193898)
(9.25144 -1.09736e-23 0.188897)
(9.35882 1.37224e-20 0.222528)
(9.05996 -4.06711e-21 0.212507)
(9.18501 -2.26094e-22 0.253231)
(8.84576 -7.78374e-21 0.237965)
(8.98998 3.80263e-21 0.286324)
(8.60786 -3.93537e-21 0.265424)
(8.77289 -3.98483e-21 0.322064)
(8.34519 0 0.294976)
(8.53276 -5.23916e-22 0.360653)
(8.05664 1.64775e-23 0.326621)
(8.26843 4.86737e-21 0.402199)
(7.74114 4.62565e-23 0.360247)
(7.97874 -1.11061e-21 0.446684)
(7.39781 -1.23915e-21 0.395599)
(7.66253 2.44961e-21 0.493925)
(7.026 1.50039e-21 0.43227)
(7.31877 -3.73584e-21 0.543546)
(6.62548 -1.39458e-22 0.469683)
(6.94668 8.05405e-21 0.594956)
(6.19651 -1.48229e-20 0.507092)
(6.54582 -8.27236e-21 0.647331)
(5.74001 1.97915e-20 0.543587)
(6.11622 -3.5249e-20 0.699616)
(5.25762 2.42318e-20 0.578091)
(5.65854 1.88097e-20 0.750518)
(4.75185 -3.4547e-20 0.609367)
(5.17414 -6.50546e-21 0.798506)
(4.22616 1.65043e-20 0.636005)
(4.66522 1.34261e-20 0.841797)
(3.68506 2.7169e-20 0.656414)
(4.13491 1.52198e-20 0.878341)
(3.13408 4.9269e-20 0.668833)
(3.58733 -9.03108e-20 0.905803)
(2.57979 1.23025e-19 0.671412)
(3.02757 6.39644e-20 0.921591)
(2.02949 -2.91701e-20 0.662445)
(2.46159 4.26471e-20 0.922994)
(1.49068 -8.57508e-20 0.640759)
(1.89588 -5.26719e-20 0.907533)
(0.969765 -3.75703e-20 0.605902)
(1.33706 0 0.873556)
(0.466433 9.74082e-20 0.534375)
(0.786164 -3.72218e-20 0.821506)
(0.372552 4.96927e-20 0.718162)
(9.9873 -1.05316e-20 0.0624455)
(9.98861 -2.25764e-20 0.0486883)
(9.9489 -4.08905e-22 0.0932031)
(9.96716 1.16287e-20 0.0888387)
(9.88776 -1.16115e-20 0.121971)
(9.92265 1.18253e-20 0.123692)
(9.80674 -1.32233e-20 0.151708)
(9.85264 -2.42792e-20 0.15865)
(9.70645 -1.27194e-20 0.182785)
(9.76173 6.56501e-24 0.194837)
(9.58705 8.45414e-22 0.215365)
(9.6525 -2.57467e-20 0.232428)
(9.44854 1.44984e-20 0.249847)
(9.52508 4.2448e-22 0.27187)
(9.2907 1.33339e-20 0.2867)
(9.37899 -1.4295e-20 0.313741)
(9.11303 7.68485e-21 0.326352)
(9.21377 -1.48872e-20 0.358604)
(8.91481 7.4969e-21 0.369172)
(9.02893 8.05785e-21 0.406955)
(8.69513 -5.30423e-22 0.415461)
(8.82377 0 0.459227)
(8.45291 4.41057e-21 0.465438)
(8.5974 8.20262e-21 0.515784)
(8.18694 3.66309e-21 0.519199)
(8.34875 9.69314e-21 0.576892)
(7.89595 1.33401e-21 0.576672)
(8.07664 2.30195e-21 0.642657)
(7.57867 -1.21501e-22 0.637575)
(7.77978 -5.09056e-22 0.712979)
(7.23389 2.9649e-21 0.701378)
(7.45692 -2.48319e-21 0.787501)
(6.86065 -2.72052e-22 0.76728)
(7.10684 6.60686e-23 0.865564)
(6.45828 -2.90407e-20 0.834192)
(6.72852 -1.09992e-20 0.946178)
(6.02658 -3.55302e-20 0.90073)
(6.32119 -1.63238e-22 1.028)
(5.56591 -1.21888e-20 0.965206)
(5.8845 -1.23502e-20 1.10932)
(5.07737 4.16999e-20 1.02563)
(5.41863 -5.11516e-20 1.18805)
(4.56288 1.22313e-20 1.07967)
(4.9244 1.46862e-20 1.26172)
(4.02528 -1.03443e-19 1.12471)
(4.4034 -5.65792e-20 1.32743)
(3.46834 -7.38731e-20 1.15782)
(3.85807 -4.57471e-20 1.38193)
(2.8967 -1.66639e-20 1.17592)
(3.2917 3.06796e-20 1.42162)
(2.31571 1.83678e-20 1.17604)
(2.70844 -8.15179e-20 1.44286)
(1.73104 3.38825e-20 1.15596)
(2.11314 8.45172e-20 1.44242)
(1.14806 0 1.11594)
(1.51174 0 1.41854)
(0.568877 -8.87456e-20 1.04023)
(0.901744 -8.25328e-20 1.37484)
(0.434124 -2.4081e-19 1.27499)
(9.9832 1.27114e-23 0.0755755)
(9.98739 -1.74408e-22 0.0567293)
(9.9449 2.38649e-20 0.118631)
(9.96426 -4.48843e-20 0.107686)
(9.88477 -1.29751e-21 0.159522)
(9.91969 1.01283e-24 0.154106)
(9.80501 -1.07591e-20 0.200924)
(9.85092 2.36129e-20 0.200106)
(9.70654 -1.33576e-20 0.243693)
(9.76179 -1.19061e-20 0.247402)
(9.58962 -2.58405e-20 0.288284)
(9.65475 -8.27036e-22 0.296525)
(9.4543 -2.85401e-20 0.335272)
(9.53009 4.11337e-22 0.348036)
(9.30046 -4.25118e-20 0.385305)
(9.3874 -1.30645e-20 0.40263)
(9.12777 -1.423e-20 0.439002)
(9.22633 1.25158e-20 0.461009)
(8.93571 4.61152e-22 0.496925)
(9.04648 1.58662e-20 0.52383)
(8.72354 8.83487e-21 0.559566)
(8.84731 0 0.591693)
(8.49035 1.35066e-20 0.627331)
(8.62805 -1.57292e-20 0.665127)
(8.23509 8.24225e-21 0.700491)
(8.38776 -2.65843e-21 0.74456)
(7.95659 4.23162e-22 0.779124)
(8.12536 6.64622e-23 0.830251)
(7.65358 -2.89433e-21 0.863056)
(7.83967 -2.84809e-23 0.922236)
(7.32475 -5.35274e-21 0.951808)
(7.52941 0 1.02026)
(6.96887 -1.0801e-20 1.04455)
(7.19327 -5.28915e-21 1.12373)
(6.58479 1.8015e-20 1.14005)
(6.82997 -1.61519e-20 1.23163)
(6.17164 2.28741e-20 1.23668)
(6.43832 2.31762e-20 1.34252)
(5.72886 -5.18209e-20 1.33237)
(6.01734 2.37047e-20 1.4545)
(5.25639 -7.74673e-20 1.42459)
(5.56634 -7.37644e-22 1.56513)
(4.75477 -5.49734e-20 1.51036)
(5.08503 -5.3532e-22 1.6715)
(4.22524 1.35023e-21 1.58623)
(4.57367 -5.62857e-20 1.77013)
(3.66983 5.97562e-20 1.64836)
(4.03317 -5.27271e-22 1.85701)
(3.09145 -3.5527e-20 1.69265)
(3.46521 -3.04823e-20 1.92771)
(2.49384 -1.37436e-20 1.7152)
(2.87236 -2.11728e-21 1.9776)
(1.88166 4.9628e-20 1.71296)
(2.25809 8.31733e-20 2.00239)
(1.26091 -8.33677e-20 1.68608)
(1.62817 6.93397e-20 1.99888)
(0.640048 -2.4227e-19 1.61835)
(0.973873 -1.90083e-19 1.96815)
(0.465761 -4.66166e-20 1.85965)
(9.98133 -4.56209e-20 0.0894582)
(9.98684 1.73207e-22 0.0656714)
(9.94273 -6.81739e-20 0.143381)
(9.96294 -1.69139e-22 0.126679)
(9.8836 2.52167e-20 0.195168)
(9.91856 -2.3021e-20 0.184019)
(9.80528 2.20203e-20 0.247318)
(9.85111 2.37093e-20 0.240812)
(9.70873 7.68448e-22 0.301079)
(9.76399 -7.619e-24 0.298944)
(9.59427 2.54451e-20 0.35717)
(9.65945 2.49175e-20 0.359276)
(9.46196 1.57211e-20 0.416302)
(9.53777 8.2641e-22 0.422514)
(9.31168 4.22832e-20 0.479236)
(9.39863 1.47216e-20 0.489459)
(9.14317 4.26558e-20 0.546721)
(9.24168 -1.53865e-20 0.560942)
(8.95595 1.52093e-20 0.619458)
(9.06659 9.52828e-22 0.637762)
(8.74938 -2.47589e-20 0.698088)
(8.87283 -4.79767e-22 0.72067)
(8.52265 -3.17342e-20 0.783165)
(8.65971 7.88327e-21 0.810351)
(8.27481 -1.08014e-20 0.875107)
(8.42635 -7.48652e-21 0.907385)
(8.00476 -3.86466e-22 0.974135)
(8.17173 5.42452e-21 1.01219)
(7.7113 2.86734e-21 1.08021)
(7.89471 7.50224e-21 1.12495)
(7.39314 0 1.19295)
(7.59403 -4.89811e-21 1.24556)
(7.04895 -1.07855e-20 1.31161)
(7.26835 -5.06722e-21 1.37353)
(6.67739 -1.05218e-20 1.43497)
(6.91624 -2.62204e-23 1.50795)
(6.27717 2.40147e-20 1.56133)
(6.53626 1.10247e-20 1.64742)
(5.84717 7.45648e-20 1.68846)
(6.12702 2.12457e-22 1.79)
(5.38649 7.62959e-20 1.81356)
(5.6872 7.53384e-20 1.93316)
(4.8946 -2.50149e-21 1.93323)
(5.21567 5.15241e-20 2.07375)
(4.37143 -5.76677e-20 2.04349)
(4.71162 2.56059e-20 2.20793)
(3.8176 -9.14981e-20 2.13976)
(4.17468 -8.58226e-20 2.33118)
(3.23449 3.10987e-21 2.21709)
(3.60516 1.16684e-19 2.43833)
(2.62454 9.56369e-20 2.27056)
(3.00427 1.50424e-21 2.5238)
(1.99129 1.02753e-19 2.2961)
(2.37425 4.67774e-22 2.58221)
(1.33934 -4.06961e-20 2.29344)
(1.7209 6.93721e-20 2.60937)
(0.670805 2.08365e-21 2.24082)
(1.03005 -9.87787e-20 2.60874)
(0.484693 5.25999e-20 2.53634)
(9.98056 4.56059e-20 0.10363)
(9.98663 1.73202e-22 0.0749811)
(9.94198 4.46824e-20 0.167809)
(9.96261 -4.89058e-22 0.145668)
(9.88405 -2.39321e-20 0.230162)
(9.91883 7.23794e-22 0.213323)
(9.80761 1.38294e-21 0.292974)
(9.85301 -7.15114e-20 0.280544)
(9.71347 2.44481e-20 0.357653)
(9.76829 2.55291e-20 0.349205)
(9.60198 0 0.425102)
(9.66673 -2.53186e-20 0.420401)
(9.47321 0 0.496148)
(9.5486 -8.16856e-22 0.494999)
(9.32707 -4.3315e-20 0.571661)
(9.4136 0 0.573912)
(9.16327 -5.68761e-20 0.652516)
(9.26144 -4.25791e-20 0.658088)
(8.98138 -1.47491e-20 0.739561)
(9.09176 1.49122e-20 0.748464)
(8.78078 3.2262e-20 0.833588)
(8.90408 4.55712e-24 0.845938)
(8.56068 3.19408e-20 0.935308)
(8.6977 1.57405e-20 0.951348)
(8.32017 8.90076e-21 1.0453)
(8.47177 -1.76327e-20 1.06543)
(8.05816 1.3341e-20 1.16394)
(8.22528 1.10751e-21 1.18876)
(7.77345 -4.16636e-22 1.29135)
(7.95706 -9.0386e-21 1.32169)
(7.46473 -9.97363e-21 1.42731)
(7.66584 -4.90142e-21 1.46427)
(7.13057 5.75578e-21 1.5712)
(7.35016 4.96134e-21 1.61619)
(6.76945 2.16598e-20 1.7219)
(7.00849 1.06388e-20 1.77669)
(6.3798 -1.29359e-20 1.87781)
(6.63914 1.72567e-24 1.94451)
(5.96003 1.8609e-21 2.03668)
(6.24035 -1.22538e-20 2.11783)
(5.50859 5.03309e-20 2.19567)
(5.81026 2.4831e-20 2.29418)
(5.02408 7.9392e-20 2.35119)
(5.34705 5.08247e-20 2.47041)
(4.50537 -3.9485e-21 2.49889)
(4.84895 2.6726e-20 2.64252)
(3.95182 1.25002e-19 2.63366)
(4.31448 5.46388e-20 2.80568)
(3.36355 1.13831e-19 2.74973)
(3.74268 6.22885e-20 2.95411)
(2.74181 -9.38866e-20 2.84108)
(3.13352 -1.78516e-21 3.08128)
(2.08928 -3.22323e-20 2.90219)
(2.48807 3.08367e-20 3.18051)
(1.41087 8.96552e-21 2.93111)
(1.81267 -6.56158e-20 3.24555)
(0.715415 -4.79579e-20 2.90034)
(1.08938 2.58778e-20 3.27566)
(0.509604 -7.39521e-20 3.20374)
(9.98042 -4.59318e-20 0.117832)
(9.98663 0 0.0843584)
(9.94228 -4.44256e-20 0.191832)
(9.96292 4.37273e-20 0.16444)
(9.88582 -4.77662e-20 0.264311)
(9.92016 -4.48516e-20 0.241887)
(9.81162 -4.6144e-20 0.337413)
(9.85628 -7.45229e-22 0.319114)
(9.72035 -2.48717e-20 0.412617)
(9.77434 1.53237e-21 0.397937)
(9.61236 -2.58296e-20 0.490989)
(9.67624 4.87178e-20 0.479609)
(9.48775 -8.0668e-22 0.573491)
(9.56222 -8.38002e-22 0.565149)
(9.34642 2.00556e-22 0.661114)
(9.43203 -2.69824e-20 0.655586)
(9.18812 2.9911e-20 0.754864)
(9.28538 3.0141e-20 0.751987)
(9.0124 2.94823e-20 0.855731)
(9.12194 -2.80961e-20 0.855423)
(8.81866 -1.6321e-20 0.964657)
(8.94124 -4.56349e-22 0.966938)
(8.60613 -3.42429e-20 1.08251)
(8.74259 -1.63468e-20 1.08753)
(8.37387 -2.51982e-20 1.21002)
(8.52514 -1.31996e-21 1.21808)
(8.12079 -2.13992e-20 1.34775)
(8.28787 -2.47621e-20 1.35936)
(7.84564 -1.34748e-20 1.49598)
(8.02957 -4.61846e-21 1.51189)
(7.547 1.01572e-20 1.65468)
(7.74888 0 1.67593)
(7.22334 9.91248e-21 1.82341)
(7.44427 7.61585e-21 1.85136)
(6.87291 -1.11822e-20 2.00126)
(7.11399 0 2.03764)
(6.49386 5.37211e-22 2.18678)
(6.75612 -1.10566e-20 2.23376)
(6.08414 1.11811e-20 2.37792)
(6.36851 1.1332e-20 2.43813)
(5.64159 2.56559e-20 2.57193)
(5.94878 0 2.64851)
(5.164 -2.25054e-21 2.76526)
(5.49439 1.82438e-21 2.86191)
(4.64923 8.58097e-20 2.95342)
(5.00265 -1.03581e-19 3.07444)
(4.09544 -8.07328e-21 3.13091)
(4.47092 5.9787e-20 3.28111)
(3.50151 -5.43848e-20 3.29119)
(3.8969 -1.18035e-19 3.47571)
(2.86755 1.23518e-19 3.42697)
(3.27921 2.47449e-21 3.65071)
(2.19565 -3.37936e-21 3.53081)
(2.61752 -5.80321e-20 3.79771)
(1.49079 -4.76255e-20 3.59798)
(1.91837 -6.63084e-20 3.90773)
(0.760508 -1.48199e-21 3.59108)
(1.15896 9.94129e-20 3.97701)
(0.539382 4.98451e-20 3.9256)
(9.98067 9.01912e-20 0.131852)
(9.98676 0 0.0936174)
(9.94337 4.21754e-20 0.215277)
(9.9637 4.4999e-20 0.182801)
(9.88866 2.71258e-21 0.297422)
(9.92232 -4.63562e-20 0.269567)
(9.81704 4.69438e-20 0.38039)
(9.86072 5.58277e-22 0.356341)
(9.72908 7.57004e-20 0.465709)
(9.78191 5.06476e-20 0.444905)
(9.62512 7.30818e-20 0.554574)
(9.68772 2.06008e-20 0.536614)
(9.50527 -2.73359e-20 0.64808)
(9.57837 3.21847e-21 0.632625)
(9.36945 3.6569e-21 0.747335)
(9.4536 -1.70679e-21 0.734084)
(9.21742 -2.85815e-20 0.853473)
(9.31319 5.76176e-20 0.842174)
(9.04876 -5.76852e-20 0.967621)
(9.15682 -3.02374e-20 0.958099)
(8.86288 -6.76637e-22 1.09087)
(8.98403 3.07596e-20 1.08305)
(8.65902 1.67573e-20 1.22426)
(8.79417 1.23396e-21 1.21818)
(8.43623 -1.17366e-21 1.36869)
(8.58638 -1.68327e-20 1.36456)
(8.19338 -7.73621e-21 1.5249)
(8.35963 -1.59055e-20 1.52312)
(7.92917 8.91533e-21 1.69339)
(8.1127 -9.54559e-21 1.69461)
(7.6421 -2.45455e-21 1.87433)
(7.84415 0 1.8795)
(7.33046 -2.39584e-21 2.06754)
(7.55234 2.3561e-21 2.07794)
(6.99229 0 2.27236)
(7.23533 1.00707e-20 2.28967)
(6.62538 0 2.48765)
(6.89093 2.02494e-22 2.51401)
(6.22724 0 2.71166)
(6.5166 -1.07255e-20 2.74972)
(5.79507 -2.38793e-20 2.94194)
(6.10942 -2.27762e-20 2.99498)
(5.3258 -1.00943e-19 3.17517)
(5.66608 2.43602e-20 3.24718)
(4.81618 -1.27961e-19 3.40698)
(5.18288 -1.01191e-19 3.50276)
(4.26307 -5.23949e-20 3.63166)
(4.65588 1.5271e-19 3.75688)
(3.66383 -5.99136e-20 3.84198)
(4.08118 -1.61081e-19 4.00306)
(3.01711 -1.8022e-19 4.02928)
(3.45558 -5.67935e-20 4.23288)
(2.32385 -1.21182e-19 4.18375)
(2.77676 -4.02851e-21 4.43602)
(1.58835 8.32275e-20 4.29784)
(2.05114 -6.15502e-20 4.6004)
(0.81676 1.50456e-19 4.33365)
(1.25417 5.00791e-20 4.72001)
(0.584443 -6.83656e-20 4.72768)
(9.98118 -4.46218e-20 0.145526)
(9.98697 -3.39306e-22 0.102632)
(9.94505 -4.46916e-20 0.237984)
(9.96482 -4.37265e-20 0.200585)
(9.89238 -4.79267e-20 0.329334)
(9.92514 4.44947e-20 0.296214)
(9.82369 4.89174e-21 0.421712)
(9.86613 7.37755e-22 0.392053)
(9.73944 -4.80925e-21 0.51669)
(9.79082 1.52538e-21 0.489887)
(9.64 -4.94567e-20 0.615571)
(9.70097 -5.3398e-20 0.591146)
(9.52548 2.87748e-20 0.719568)
(9.59679 4.85444e-21 0.697106)
(9.39583 5.2977e-20 0.829905)
(9.47805 -3.09505e-20 0.809023)
(9.25083 5.48658e-20 0.94784)
(9.34456 3.46133e-21 0.928199)
(9.0901 5.89434e-20 1.07464)
(9.19604 2.36171e-20 1.05596)
(8.91308 3.2309e-20 1.21155)
(9.03208 1.86791e-21 1.19366)
(8.71901 -3.25794e-20 1.35977)
(8.85204 2.89171e-21 1.34259)
(8.50696 -3.15638e-20 1.5204)
(8.6551 -9.4663e-22 1.50401)
(8.2758 -1.76479e-20 1.69437)
(8.44026 -1.50624e-20 1.67906)
(8.02419 -1.83527e-20 1.88242)
(8.20628 1.70753e-20 1.8687)
(7.75054 4.84119e-21 2.08498)
(7.95169 -3.3812e-21 2.07368)
(7.45299 1.49246e-20 2.30217)
(7.67475 9.45791e-21 2.29443)
(7.12938 1.01673e-20 2.53368)
(7.37339 5.26958e-21 2.53107)
(6.77716 -1.066e-20 2.77878)
(7.04517 2.02849e-22 2.78333)
(6.39336 -3.36912e-20 3.03618)
(6.68718 -1.02945e-20 3.05049)
(5.97451 2.61156e-20 3.30392)
(6.29595 -2.24791e-20 3.33129)
(5.51662 2.28514e-20 3.57922)
(5.86738 9.34386e-20 3.62379)
(5.01521 1.83429e-19 3.85807)
(5.39668 -9.51214e-20 3.92507)
(4.46548 4.0232e-20 4.13491)
(4.87838 9.65679e-21 4.23083)
(3.86281 -1.56778e-19 4.40206)
(4.30655 -6.82786e-21 4.53478)
(3.20362 1.21089e-19 4.64938)
(3.67543 1.07939e-19 4.82785)
(2.48689 5.54341e-20 4.864)
(2.97948 5.34786e-21 5.09768)
(1.71684 -9.30778e-20 5.03235)
(2.22268 -6.21606e-20 5.3273)
(0.911096 -1.6809e-19 5.10177)
(1.37596 1.47745e-19 5.49682)
(0.642019 -1.35456e-19 5.48451)
(9.98188 2.32668e-23 0.158728)
(9.98726 8.55986e-20 0.111312)
(9.9472 4.65603e-20 0.259808)
(9.9662 -8.68049e-20 0.217655)
(9.89686 9.2575e-20 0.359888)
(9.92849 -4.65078e-20 0.321684)
(9.8314 -2.61607e-21 0.461185)
(9.87239 4.83627e-20 0.426085)
(9.75127 -4.77353e-20 0.565322)
(9.80091 -9.44306e-20 0.532677)
(9.6568 1.63518e-21 0.673688)
(9.7158 -5.05947e-20 0.642953)
(9.54815 -5.53091e-20 0.787605)
(9.61727 5.22523e-20 0.758288)
(9.42529 -8.00212e-20 0.908409)
(9.50512 -4.99484e-21 0.880045)
(9.28805 -2.75246e-20 1.03748)
(9.37919 3.16061e-20 1.00964)
(9.13607 -3.37077e-20 1.17621)
(9.23927 -1.79358e-21 1.14851)
(8.96885 -2.75232e-20 1.32601)
(9.08499 -7.63509e-22 1.29816)
(8.78568 3.44637e-20 1.48824)
(8.91577 -1.88168e-21 1.46004)
(8.58567 1.53617e-20 1.6642)
(8.73087 3.61195e-20 1.6356)
(8.3677 2.00375e-20 1.85505)
(8.5293 4.69932e-20 1.82616)
(8.13042 3.18027e-20 2.06177)
(8.30988 5.21136e-20 2.03296)
(7.87222 1.38849e-21 2.2851)
(8.07115 -2.27549e-21 2.257)
(7.59115 -2.51818e-22 2.52551)
(7.81134 -1.44747e-20 2.49909)
(7.28486 -4.7602e-21 2.78315)
(7.52831 -4.81984e-21 2.75976)
(6.95054 4.61631e-22 3.05778)
(7.21945 8.65979e-21 3.03926)
(6.58478 8.31377e-22 3.34876)
(6.88155 1.09584e-20 3.33752)
(6.18347 4.62579e-20 3.65489)
(6.51068 2.14849e-20 3.65408)
(5.74163 -2.68961e-20 3.9742)
(6.102 6.69738e-20 3.98794)
(5.25341 -2.68921e-19 4.30355)
(5.64957 -7.10569e-20 4.33728)
(4.71202 -3.77001e-20 4.63801)
(5.14623 -1.02855e-19 4.69891)
(4.11015 2.60942e-19 4.96999)
(4.58354 1.55072e-19 5.06745)
(3.44077 -9.41039e-21 5.28822)
(3.9523 1.07602e-19 5.43401)
(2.69893 -1.13661e-19 5.57658)
(3.24208 -1.18795e-19 5.7848)
(1.88389 1.83266e-19 5.81527)
(2.45132 -1.0416e-21 6.09922)
(0.996373 1.81071e-19 5.93497)
(1.53917 1.23775e-19 6.35519)
(0.71918 1.22682e-19 6.42534)
(9.98273 -3.36148e-21 0.171354)
(9.98759 -3.10038e-23 0.119588)
(9.94973 -1.79353e-19 0.280616)
(9.96779 -8.64665e-20 0.233897)
(9.90198 -8.9515e-20 0.388933)
(9.9323 -3.49895e-21 0.345842)
(9.84006 -4.52416e-20 0.498629)
(9.87937 -8.88376e-20 0.45828)
(9.76439 -9.67375e-20 0.611381)
(9.81204 1.50759e-21 0.573083)
(9.67533 1.30167e-21 0.728657)
(9.73204 -4.70566e-20 0.691801)
(9.57304 1.01823e-19 0.851871)
(9.63958 -3.1297e-21 0.815892)
(9.45755 1.07049e-19 0.982467)
(9.53452 5.11774e-20 0.946816)
(9.32872 5.6919e-20 1.12193)
(9.41675 5.51591e-20 1.08609)
(9.18628 3.11587e-20 1.2718)
(9.28612 -1.72633e-21 1.23528)
(9.02977 2.48617e-20 1.43362)
(9.14232 6.07994e-20 1.39599)
(8.85857 2.35449e-22 1.60892)
(8.98488 5.16253e-20 1.56986)
(8.67183 6.78658e-20 1.79919)
(8.8131 7.76299e-21 1.75849)
(8.46852 7.91266e-20 2.00584)
(8.62613 3.0929e-20 1.96344)
(8.24735 1.73938e-20 2.2301)
(8.42285 -1.69999e-20 2.18616)
(8.00671 -1.82909e-20 2.47305)
(8.20189 1.1079e-21 2.42798)
(7.74465 -1.8933e-20 2.73557)
(7.96154 -1.16657e-21 2.69007)
(7.45876 8.76802e-21 3.01831)
(7.69967 -3.55713e-23 2.97345)
(7.14605 1.91909e-20 3.32169)
(7.41366 7.48999e-21 3.27896)
(6.80279 3.17706e-20 3.64588)
(7.10014 1.78445e-20 3.60732)
(6.42433 4.27433e-20 3.9907)
(6.75489 1.61801e-20 3.95908)
(6.00481 2.13253e-20 4.35539)
(6.37251 1.35016e-21 4.33453)
(5.53694 9.57818e-20 4.73828)
(5.94604 0 4.73345)
(5.01172 9.3522e-20 5.13592)
(5.46663 9.50327e-20 5.15459)
(4.41842 0 5.54191)
(4.92308 0 5.59463)
(3.74499 -5.40936e-21 5.94507)
(4.30187 0 6.04646)
(2.97964 -5.26182e-21 6.32721)
(3.58613 -1.97098e-19 6.49684)
(2.11408 -5.90511e-20 6.66422)
(2.76683 9.86413e-20 6.92277)
(1.1462 6.60565e-20 6.8773)
(1.79401 -1.62693e-19 7.29666)
(0.840766 4.31302e-19 7.49398)
(9.98369 -8.42109e-20 0.183321)
(9.98796 -1.29002e-21 0.127403)
(9.95257 9.03778e-20 0.300293)
(9.96956 1.59854e-23 0.249214)
(9.90765 -3.93202e-21 0.416332)
(9.93648 9.13803e-20 0.36857)
(9.84953 -4.09697e-20 0.533878)
(9.88697 3.973e-23 0.488499)
(9.77865 5.05383e-20 0.654667)
(9.82406 1.41037e-19 0.610935)
(9.69537 -5.09337e-20 0.780232)
(9.74949 5.51379e-20 0.73748)
(9.59989 -5.3068e-20 0.912074)
(9.66351 -5.68268e-20 0.869665)
(9.49229 -6.28092e-22 1.05173)
(9.566 3.23137e-21 1.00903)
(9.3725 -4.15635e-21 1.20079)
(9.45691 -7.93525e-21 1.15719)
(9.2403 2.86929e-20 1.36091)
(9.33618 3.35756e-21 1.31581)
(9.09534 8.746e-20 1.53376)
(9.2036 -2.88901e-20 1.48663)
(8.93708 5.86151e-20 1.72106)
(9.05877 5.81168e-20 1.6714)
(8.7648 -2.88696e-20 1.92447)
(8.90115 -5.99948e-20 1.87191)
(8.57757 -6.57279e-20 2.14562)
(8.73 -3.22643e-20 2.08991)
(8.37421 -3.30491e-20 2.38603)
(8.54435 -3.34456e-20 2.3271)
(8.15324 1.81973e-20 2.64712)
(8.34298 2.10311e-21 2.5851)
(7.91279 1.77383e-20 2.9302)
(8.12436 1.58441e-20 2.86547)
(7.65052 -1.23276e-21 3.23649)
(7.88652 3.50007e-20 3.1697)
(7.36344 6.25734e-21 3.56715)
(7.62696 -3.56881e-23 3.49932)
(7.04773 2.20452e-21 3.92332)
(7.34243 5.59306e-21 3.85591)
(6.69843 -2.54837e-20 4.30608)
(7.0287 -4.41235e-21 4.24119)
(6.30906 -2.00793e-20 4.71639)
(6.68017 -2.69202e-21 4.65708)
(5.87114 0 5.15471)
(6.2893 7.37132e-21 5.10552)
(5.37353 0 5.62028)
(5.84597 0 5.58815)
(4.80173 0 6.10965)
(5.33636 0 6.10534)
(4.13747 -1.96222e-19 6.61406)
(4.7422 0 6.65422)
(3.3594 -9.05046e-20 7.11497)
(4.0382 -1.96235e-19 7.22499)
(2.44733 -8.59375e-21 7.57929)
(3.2017 2.6083e-19 7.79362)
(1.4042 2.08082e-19 7.91341)
(2.15032 -1.19517e-19 8.3098)
(1.09728 5.70564e-19 8.54681)
(9.98474 8.29262e-20 0.194561)
(9.98837 -8.39918e-20 0.134714)
(9.95566 2.16985e-21 0.318741)
(9.97146 8.45101e-20 0.263527)
(9.91377 9.41632e-20 0.441964)
(9.94096 9.19611e-20 0.389763)
(9.85969 1.8377e-19 0.566785)
(9.89508 9.02653e-20 0.516614)
(9.79389 1.44537e-19 0.694998)
(9.83684 -2.94675e-21 0.646079)
(9.71673 4.78231e-20 0.828196)
(9.768 1.02167e-19 0.779806)
(9.62845 2.09306e-22 0.967951)
(9.68881 -3.09956e-21 0.919384)
(9.5292 -4.18937e-21 1.11588)
(9.59924 -4.72372e-20 1.06643)
(9.41898 -2.6189e-22 1.27367)
(9.4993 -7.99779e-21 1.22263)
(9.29766 -5.45771e-20 1.44307)
(9.38901 6.85556e-21 1.38974)
(9.16499 -5.70922e-20 1.62589)
(9.26826 -6.06012e-20 1.5696)
(9.02056 -6.18736e-20 1.82399)
(9.13681 -5.53381e-20 1.76411)
(8.8638 -6.30521e-20 2.03919)
(8.99424 -7.54433e-21 1.97517)
(8.69394 0 2.27335)
(8.83999 3.80919e-21 2.20473)
(8.50999 2.1281e-21 2.52823)
(8.6733 0 2.45469)
(8.31068 -8.70299e-23 2.80561)
(8.49321 6.19302e-21 2.72695)
(8.09435 3.33344e-20 3.10722)
(8.29843 -6.30743e-21 3.02344)
(7.85891 3.58021e-20 3.43486)
(8.08733 -2.94553e-20 3.34612)
(7.6016 -6.40565e-22 3.79046)
(7.85774 -3.24017e-21 3.69715)
(7.31881 -1.13372e-21 4.17623)
(7.60685 -4.16153e-20 4.07902)
(7.0057 1.84147e-20 4.59475)
(7.33083 -3.07397e-20 4.49471)
(6.65572 2.49046e-20 5.04902)
(7.02449 5.39766e-20 4.94792)
(6.25986 7.31237e-21 5.54244)
(6.68059 -3.39675e-20 5.44323)
(5.80556 0 6.07831)
(6.28882 0 5.98613)
(5.27512 0 6.65866)
(5.83413 9.27435e-21 6.58265)
(4.64368 0 7.28147)
(5.29454 -1.15349e-20 7.23796)
(3.87719 1.64784e-19 7.93496)
(4.63656 2.24878e-21 7.95261)
(2.92892 1.46398e-19 8.59658)
(3.82814 -9.39719e-21 8.71623)
(1.68998 1.82025e-19 9.13606)
(2.76937 -2.29584e-19 9.53628)
(1.68287 6.269e-19 10.2551)
(9.98586 -8.03112e-20 0.205017)
(9.9888 -1.67189e-19 0.141488)
(9.95895 1.74376e-19 0.335874)
(9.97346 1.69475e-19 0.276771)
(9.92027 8.80476e-20 0.465718)
(9.94568 8.83304e-20 0.409334)
(9.87044 -9.75616e-20 0.597217)
(9.9036 -2.80915e-21 0.54252)
(9.80995 -4.39549e-20 0.732218)
(9.85022 -9.3473e-20 0.678386)
(9.73919 4.9934e-20 0.872363)
(9.78733 9.411e-20 0.818621)
(9.65846 -5.10847e-20 1.01928)
(9.71522 3.03156e-21 0.964863)
(9.56795 -5.05317e-20 1.17466)
(9.6339 4.66622e-20 1.11878)
(9.46774 -6.76552e-22 1.34026)
(9.54348 -1.00754e-19 1.28213)
(9.35783 0 1.51792)
(9.44407 -3.34215e-21 1.45674)
(9.23809 -5.87478e-20 1.70956)
(9.33569 5.77844e-20 1.64453)
(9.10825 -4.44856e-22 1.91715)
(9.21823 -5.59622e-21 1.84749)
(8.96793 5.93918e-20 2.14267)
(9.09146 5.98264e-20 2.06766)
(8.81657 3.76317e-21 2.38814)
(8.95503 -4.79282e-20 2.30711)
(8.65343 4.13816e-21 2.65558)
(8.80846 -7.66787e-21 2.56794)
(8.47755 -1.65355e-22 2.94703)
(8.65107 -5.83828e-20 2.85227)
(8.28764 -6.93172e-20 3.26464)
(8.48198 -6.81467e-20 3.16231)
(8.08201 -6.81417e-20 3.61073)
(8.30001 -3.06228e-20 3.50044)
(7.85844 -4.46577e-20 3.98797)
(8.10361 -4.38897e-21 3.86939)
(7.61392 -7.11391e-20 4.39961)
(7.89066 -4.56519e-21 4.27242)
(7.34432 5.74177e-21 4.84976)
(7.65831 2.19655e-20 4.71368)
(7.04387 -5.86067e-21 5.34368)
(7.40257 5.2705e-23 5.19859)
(6.70429 -4.1005e-20 5.88814)
(7.11774 -4.88048e-21 5.73441)
(6.31343 9.40743e-21 6.49176)
(6.79544 3.44709e-20 6.33089)
(5.85285 -2.47962e-21 7.16488)
(6.42272 3.99223e-20 7.00115)
(5.29406 -9.25402e-21 7.91825)
(5.97879 -7.53504e-20 7.76242)
(4.59422 -1.8057e-19 8.75545)
(5.42501 6.50728e-20 8.63446)
(3.7096 -3.89305e-19 9.64623)
(4.70014 -5.95697e-20 9.61848)
(2.72599 2.46311e-19 10.358)
(3.60082 -1.91005e-19 10.5906)
(1.90418 1.53054e-18 10.9475)
(9.98703 8.67408e-20 0.21465)
(9.98926 -7.72236e-20 0.147701)
(9.96239 8.2439e-20 0.35163)
(9.97556 2.45802e-19 0.288898)
(9.92703 -3.64522e-21 0.487514)
(9.95062 -8.3089e-20 0.427219)
(9.88161 1.25073e-22 0.625067)
(9.9125 -8.62947e-20 0.566136)
(9.82662 4.69422e-20 0.766182)
(9.86419 2.922e-21 0.707759)
(9.76248 4.60924e-20 0.912542)
(9.80748 -4.46353e-20 0.853808)
(9.68955 1.01274e-19 1.06582)
(9.74271 3.08742e-21 1.00596)
(9.60809 -5.37882e-21 1.22777)
(9.66996 5.17739e-20 1.16592)
(9.51827 -1.02184e-19 1.40019)
(9.58943 -1.01135e-19 1.33548)
(9.42019 5.51771e-20 1.585)
(9.50133 -3.40337e-21 1.51655)
(9.31388 1.10138e-19 1.7842)
(9.40581 7.40622e-21 1.71109)
(9.19925 5.54528e-20 1.99984)
(9.30294 -4.48932e-20 1.92116)
(9.07612 -4.87734e-20 2.23404)
(9.19269 -3.02454e-21 2.14889)
(8.94419 -5.88561e-20 2.48894)
(9.07496 -5.82735e-20 2.39645)
(8.80304 -7.07766e-20 2.76673)
(8.94958 -7.28376e-22 2.66606)
(8.65209 -1.26449e-19 3.0697)
(8.81624 -4.47401e-21 2.95999)
(8.49053 -2.90809e-20 3.40028)
(8.67454 -4.56095e-21 3.28068)
(8.3173 3.33629e-20 3.76122)
(8.52391 1.91724e-20 3.63077)
(8.13095 3.55945e-20 4.15579)
(8.36357 1.54408e-20 4.01337)
(7.92951 8.85818e-20 4.5881)
(8.19248 -9.7741e-21 4.43232)
(7.71023 1.6161e-20 5.06353)
(8.0092 3.82934e-20 4.89256)
(7.4692 9.29965e-22 5.58933)
(7.81178 -6.80044e-20 5.40079)
(7.20068 7.0778e-20 6.17549)
(7.59744 1.59927e-19 5.96623)
(6.89592 6.54181e-20 6.83598)
(7.36222 -1.74203e-19 6.602)
(6.54081 -3.39526e-20 7.59075)
(7.1001 2.80905e-20 7.3273)
(6.11053 -4.48619e-23 8.4693)
(6.8018 -6.44469e-20 8.1717)
(5.55342 1.90917e-19 9.51768)
(6.44934 6.33211e-20 9.18637)
(4.72343 1.83541e-19 10.8232)
(6.02291 -6.26792e-21 10.4853)
(3.10007 -4.41976e-19 12.7815)
(5.51026 -8.22451e-20 12.4136)
(4.55776 2.95741e-18 16.5186)
(-0.632475 0 0.486957)
(-0.375267 -2.14425e-19 0.741818)
(-1.43187 0 0.486201)
(-1.10331 2.28446e-19 0.750864)
(-2.26922 6.92345e-21 0.482518)
(-1.94468 1.36812e-20 0.774337)
(-3.14655 7.23125e-22 0.476737)
(-2.81756 6.05346e-22 0.796679)
(-4.05338 -6.63139e-21 0.463918)
(-3.72441 -2.70732e-20 0.806956)
(-4.97425 8.54607e-21 0.442957)
(-4.65105 0 0.802233)
(-5.89005 7.10041e-21 0.413403)
(-5.58027 -1.20565e-20 0.780699)
(-6.77848 5.05456e-21 0.375048)
(-6.49144 -2.5856e-21 0.740902)
(-7.61417 6.25063e-21 0.327849)
(-7.3606 6.31762e-22 0.681644)
(-8.36902 -1.58817e-21 0.271965)
(-8.16061 -6.88921e-22 0.602092)
(-9.01277 -8.91961e-22 0.207819)
(-8.86157 -1.89921e-20 0.502023)
(-9.51407 0 0.136142)
(-9.43175 1.0775e-20 0.382141)
(-9.84199 -4.1973e-21 0.0578823)
(-9.83888 -3.5133e-21 0.24431)
(-9.9678 -4.25542e-21 -0.0259627)
(-10.052 -7.92187e-22 0.0915791)
(-9.8669 1.54524e-21 -0.114437)
(-10.0444 3.33471e-21 -0.0717969)
(-9.52246 1.3601e-21 -0.204196)
(-9.79675 7.77209e-22 -0.239394)
(-8.93352 -1.68836e-22 -0.289075)
(-9.30308 2.5148e-21 -0.399845)
(-8.1157 0 -0.363053)
(-8.57303 2.03066e-21 -0.542323)
(-7.09935 3.47877e-22 -0.421316)
(-7.63186 -2.12136e-21 -0.658267)
(-5.92662 -1.26132e-23 -0.460515)
(-6.51799 -3.5888e-22 -0.74182)
(-4.6478 -3.52043e-22 -0.47897)
(-5.27911 3.54488e-22 -0.790013)
(-3.31713 1.3201e-21 -0.476998)
(-3.96697 0 -0.802817)
(-1.98647 1.35056e-21 -0.457477)
(-2.62983 2.66632e-22 -0.784048)
(-0.694215 0 -0.423731)
(-1.30258 0 -0.743638)
(0.531002 0 -0.381405)
(0.0185691 -5.33148e-23 -0.688626)
(1.67324 0 -0.337724)
(1.18289 -5.06332e-22 -0.626996)
(2.72358 -1.07941e-24 -0.297586)
(2.28708 -2.2012e-23 -0.563111)
(3.69046 1.96962e-24 -0.263352)
(3.31369 -1.09151e-24 -0.506308)
(4.58562 1.07413e-24 -0.243028)
(4.25377 -1.44546e-24 -0.457858)
(5.3304 -2.97498e-22 -0.443334)
(-0.805441 -4.51413e-21 1.12098)
(-0.45203 -2.43856e-19 1.42592)
(-1.61669 2.44558e-19 1.15287)
(-1.20815 2.14379e-19 1.52849)
(-2.47705 7.1207e-21 1.18375)
(-2.07499 2.77129e-20 1.57843)
(-3.3738 -2.68305e-20 1.20497)
(-2.96071 -2.00608e-20 1.61485)
(-4.29468 -2.04201e-20 1.20814)
(-3.87574 -6.80417e-21 1.62815)
(-5.22464 -2.02739e-20 1.1892)
(-4.80596 7.29963e-21 1.61325)
(-6.14526 -2.16258e-20 1.14513)
(-5.73534 3.61956e-21 1.56597)
(-7.03461 -6.98008e-21 1.07343)
(-6.64411 -4.27261e-21 1.48288)
(-7.86742 -6.21213e-21 0.972212)
(-7.50881 -6.14065e-21 1.36116)