/*--------------------------------*- C++ -*----------------------------------*\
| =========                 |                                                 |
| \\      /  F ield         | OpenFOAM: The Open Source CFD Toolbox           |
|  \\    /   O peration     | Version:  dev                                   |
|   \\  /    A nd           | Web:      www.OpenFOAM.org                      |
|    \\/     M anipulation  |                                                 |
\*---------------------------------------------------------------------------*/
FoamFile
{
    version     2.0;
    format      ascii;
    class       volVectorField;
    location    "3.73";
    object      cellDisplacement;
}
// * * * * * * * * * * * * * * * * * * * * * * * * * * * * * * * * * * * * * //

dimensions      [0 1 0 0 0 0 0];

internalField   nonuniform List<vector> 
2790
(
(0.000710625 0 -2.39506e-06)
(0.00205108 0 -6.94625e-06)
(0.00324415 0 -1.10919e-05)
(0.00430765 0 -1.49311e-05)
(0.00525722 0 -1.85396e-05)
(0.00610649 0 -2.19731e-05)
(0.0068673 0 -2.52687e-05)
(0.00754996 0 -2.84461e-05)
(0.00816333 0 -3.15065e-05)
(0.00871488 0 -3.44302e-05)
(0.00921077 0 -3.71725e-05)
(0.00965573 0 -3.96578e-05)
(0.010053 0 -4.17705e-05)
(0.010404 0 -4.33435e-05)
(0.0107083 0 -4.41427e-05)
(0.0109629 0 -4.38471e-05)
(0.0111623 0 -4.2024e-05)
(0.0112972 0 -3.80987e-05)
(0.0113546 0 -3.13197e-05)
(0.0113168 0 -2.07197e-05)
(0.0111613 0 -5.07531e-06)
(0.0108608 0 1.71288e-05)
(0.0103847 0 4.77318e-05)
(0.00970136 0 8.88982e-05)
(0.00878333 0 0.000143081)
(0.00761667 0 0.00021289)
(0.00621635 0 0.000300716)
(0.00465345 0 0.000407572)
(0.00310824 0 0.000529099)
(0.00201546 0 0.000640408)
(0.000709976 0 -7.17847e-06)
(0.00204921 0 -2.08199e-05)
(0.00324119 0 -3.32472e-05)
(0.00430369 0 -4.47571e-05)
(0.00525233 0 -5.55774e-05)
(0.00610072 0 -6.58754e-05)
(0.00686073 0 -7.57641e-05)
(0.00754267 0 -8.53041e-05)
(0.00815545 0 -9.45015e-05)
(0.00870661 0 -0.000103301)
(0.00920243 0 -0.000111575)
(0.00964781 0 -0.000119105)
(0.0100462 0 -0.000125557)
(0.0103995 0 -0.000130447)
(0.0107078 0 -0.000133098)
(0.010969 0 -0.000132583)
(0.0111783 0 -0.000127653)
(0.0113283 0 -0.000116655)
(0.0114078 0 -9.74295e-05)
(0.0114018 0 -6.72078e-05)
(0.0112913 0 -2.25035e-05)
(0.0110534 0 4.09713e-05)
(0.0106629 0 0.000128361)
(0.0100945 0 0.000245602)
(0.0093284 0 0.000399164)
(0.00835932 0 0.000595382)
(0.00721205 0 0.00083876)
(0.0059675 0 0.00112759)
(0.00480682 0 0.00144163)
(0.00409876 0 0.00170494)
(0.000708639 0 -1.19402e-05)
(0.00204537 0 -3.46322e-05)
(0.00323511 0 -5.53078e-05)
(0.00429557 0 -7.44614e-05)
(0.00524231 0 -9.24731e-05)
(0.00608894 0 -0.000109624)
(0.00684731 0 -0.000126105)
(0.00752778 0 -0.000142023)
(0.00813934 0 -0.000157398)
(0.00868967 0 -0.000172149)
(0.00918526 0 -0.000186084)
(0.00963134 0 -0.000198865)
(0.0100319 0 -0.000209976)
(0.0103895 0 -0.000218669)
(0.0107052 0 -0.000223897)
(0.0109784 0 -0.00022423)
(0.0112065 0 -0.000217748)
(0.0113846 0 -0.000201918)
(0.0115054 0 -0.000173452)
(0.011559 0 -0.000128158)
(0.0115326 0 -6.08106e-05)
(0.0114115 0 3.4932e-05)
(0.0111801 0 0.000166507)
(0.0108245 0 0.000342162)
(0.0103371 0 0.00057022)
(0.00972464 0 0.000857419)
(0.00902004 0 0.00120533)
(0.0082998 0 0.00160258)
(0.00770337 0 0.00200766)
(0.00745465 0 0.00231063)
(0.000706649 0 -1.66623e-05)
(0.00203964 0 -4.83317e-05)
(0.00322604 0 -7.71926e-05)
(0.00428344 0 -0.000103936)
(0.00522734 0 -0.000129096)
(0.00607129 0 -0.000153069)
(0.00682718 0 -0.000176129)
(0.00750541 0 -0.000198437)
(0.00811505 0 -0.000220037)
(0.00866399 0 -0.000240843)
(0.009159 0 -0.000260623)
(0.00960576 0 -0.000278961)
(0.0100089 0 -0.000295212)
(0.010372 0 -0.000308445)
(0.0106975 0 -0.000317355)
(0.0109867 0 -0.000320167)
(0.0112397 0 -0.000314514)
(0.0114554 0 -0.000297288)
(0.0116314 0 -0.000264491)
(0.0117643 0 -0.000211076)
(0.0118499 0 -0.000130839)
(0.0118837 0 -1.64093e-05)
(0.0118625 0 0.000140579)
(0.0117859 0 0.000348873)
(0.01166 0 0.000616262)
(0.011501 0 0.000946898)
(0.0113413 0 0.00133622)
(0.0112327 0 0.00176168)
(0.0112399 0 0.00216684)
(0.0114178 0 0.00243635)
(0.000704028 0 -2.13248e-05)
(0.00203209 0 -6.18601e-05)
(0.00321406 0 -9.88084e-05)
(0.00426739 0 -0.000133057)
(0.00520748 0 -0.000165293)
(0.00604787 0 -0.00019603)
(0.0068004 0 -0.000225634)
(0.00747554 0 -0.000254328)
(0.00808249 0 -0.000282194)
(0.00862933 0 -0.000309165)
(0.00912316 0 -0.000335001)
(0.00957019 0 -0.000359254)
(0.00997579 0 -0.000381225)
(0.0103446 0 -0.000399892)
(0.0106807 0 -0.000413836)
(0.0109876 0 -0.000421131)
(0.0112683 0 -0.000419227)
(0.011526 0 -0.000404813)
(0.0117637 0 -0.000373673)
(0.0119852 0 -0.000320569)
(0.0121953 0 -0.00023918)
(0.0124007 0 -0.000122209)
(0.0126111 0 3.82804e-05)
(0.0128394 0 0.000249943)
(0.0131033 0 0.000518359)
(0.013424 0 0.000843799)
(0.0138234 0 0.00121578)
(0.0143132 0 0.00160477)
(0.0148682 0 0.00195137)
(0.0153821 0 0.00215641)
(0.000700799 0 -2.59058e-05)
(0.00202276 0 -7.51534e-05)
(0.00319924 0 -0.000120053)
(0.00424751 0 -0.000161684)
(0.00518286 0 -0.000200889)
(0.00601876 0 -0.000238303)
(0.00676705 0 -0.000274384)
(0.00743823 0 -0.00030943)
(0.0080416 0 -0.000343579)
(0.00858547 0 -0.000376805)
(0.00907725 0 -0.000408897)
(0.00952367 0 -0.00043943)
(0.00993088 0 -0.00046772)
(0.0103046 0 -0.000492767)
(0.0106505 0 -0.000513178)
(0.0109741 0 -0.000527083)
(0.0112816 0 -0.000532032)
(0.0115799 0 -0.000524882)
(0.0118775 0 -0.000501704)
(0.0121847 0 -0.000457712)
(0.0125151 0 -0.000387285)
(0.0128852 0 -0.000284171)
(0.0133161 0 -0.000141948)
(0.013832 0 4.49205e-05)
(0.0144586 0 0.000279187)
(0.0152174 0 0.000557724)
(0.0161134 0 0.000866907)
(0.017113 0 0.00117682)
(0.0181051 0 0.00143629)
(0.0188511 0 0.00157344)
(0.000696989 0 -3.03822e-05)
(0.00201174 0 -8.81442e-05)
(0.00318169 0 -0.000140816)
(0.00422392 0 -0.000189669)
(0.00515361 0 -0.000235697)
(0.00598412 0 -0.000279658)
(0.00672727 0 -0.000322112)
(0.00739356 0 -0.000363437)
(0.00799239 0 -0.000403845)
(0.00853224 0 -0.000443373)
(0.00902083 0 -0.000481876)
(0.00946534 0 -0.000519002)
(0.00987258 0 -0.000554154)
(0.0102493 0 -0.000586451)
(0.0106024 0 -0.00061467)
(0.0109394 0 -0.000637182)
(0.0112688 0 -0.000651887)
(0.011601 0 -0.00065615)
(0.0119485 0 -0.000646755)
(0.0123274 0 -0.00061991)
(0.0127573 0 -0.000571336)
(0.0132629 0 -0.000496533)
(0.013873 0 -0.000391261)
(0.0146197 0 -0.000252503)
(0.0155329 0 -8.00625e-05)
(0.016631 0 0.000121106)
(0.0179021 0 0.000337838)
(0.0192731 0 0.000545825)
(0.0205654 0 0.000709077)
(0.0214494 0 0.000785447)
(0.000692625 0 -3.47304e-05)
(0.0019991 0 -0.000100763)
(0.00316153 0 -0.000160986)
(0.00419679 0 -0.000216857)
(0.00511991 0 -0.000269521)
(0.00594414 0 -0.000319858)
(0.00668123 0 -0.000368532)
(0.00734169 0 -0.000416013)
(0.00793496 0 -0.000462598)
(0.00846962 0 -0.00050841)
(0.00895363 0 -0.0005534)
(0.00939452 0 -0.000597329)
(0.00979963 0 -0.000639752)
(0.0101764 0 -0.000679989)
(0.0105327 0 -0.000717098)
(0.0108775 0 -0.000749841)
(0.011221 0 -0.000776662)
(0.0115756 0 -0.000795679)
(0.0119567 0 -0.000804697)
(0.0123834 0 -0.000801278)
(0.0128795 0 -0.000782882)
(0.0134733 0 -0.000747142)
(0.0141979 0 -0.000692243)
(0.0150884 0 -0.000617602)
(0.0161757 0 -0.000524823)
(0.0174741 0 -0.000418881)
(0.0189595 0 -0.000309353)
(0.0205347 0 -0.00021092)
(0.0219825 0 -0.000141501)
(0.0229269 0 -0.000115644)
(0.000687734 0 -3.89269e-05)
(0.00198492 0 -0.000112942)
(0.00313888 0 -0.000180451)
(0.00416627 0 -0.000243094)
(0.00508196 0 -0.000302161)
(0.00589904 0 -0.000358657)
(0.0066292 0 -0.000413349)
(0.00728288 0 -0.000466806)
(0.0078695 0 -0.000519418)
(0.00839773 0 -0.000571411)
(0.00887563 0 -0.000622854)
(0.00931093 0 -0.000673655)
(0.00971128 0 -0.000723562)
(0.0100845 0 -0.000772155)
(0.0104391 0 -0.000818846)
(0.0107846 0 -0.00086288)
(0.011132 0 -0.000903362)
(0.0114945 0 -0.00093929)
(0.0118885 0 -0.00096964)
(0.0123337 0 -0.000993473)
(0.0128544 0 -0.00101011)
(0.0134789 0 -0.00101937)
(0.0142397 0 -0.00102177)
(0.0151704 0 -0.00101879)
(0.0162993 0 -0.00101305)
(0.0176379 0 -0.00100815)
(0.0191584 0 -0.00100818)
(0.0207597 0 -0.0010163)
(0.0222204 0 -0.00103219)
(0.0231621 0 -0.00104691)
(0.000682345 0 -4.29487e-05)
(0.00196927 0 -0.000124612)
(0.00311386 0 -0.000199101)
(0.00413255 0 -0.000268228)
(0.00503998 0 -0.000333425)
(0.00584911 0 -0.000395815)
(0.00657148 0 -0.000456272)
(0.00721744 0 -0.000515462)
(0.00779637 0 -0.000573875)
(0.00831689 0 -0.00063185)
(0.00878707 0 -0.000689585)
(0.00921469 0 -0.000747155)
(0.00960745 0 -0.000804523)
(0.00997327 0 -0.000861554)
(0.0103207 0 -0.000918044)
(0.0106591 0 -0.000973752)
(0.0109993 0 -0.00102846)
(0.0113543 0 -0.00108207)
(0.011739 0 -0.00113469)
(0.0121718 0 -0.00118682)
(0.0126739 0 -0.00123951)
(0.0132699 0 -0.00129451)
(0.0139871 0 -0.00135435)
(0.0148529 0 -0.00142211)
(0.0158903 0 -0.0015009)
(0.0171086 0 -0.00159246)
(0.0184854 0 -0.001695)
(0.0199373 0 -0.00180029)
(0.0212744 0 -0.00189108)
(0.0221588 0 -0.00193919)
(0.000676485 0 -4.67742e-05)
(0.00195225 0 -0.000135711)
(0.00308663 0 -0.000216834)
(0.00409582 0 -0.000292118)
(0.00499423 0 -0.000363129)
(0.00579465 0 -0.000431104)
(0.00650844 0 -0.000497019)
(0.00714582 0 -0.000561637)
(0.00771605 0 -0.000625549)
(0.00822763 0 -0.000689205)
(0.00868853 0 -0.000752939)
(0.0091064 0 -0.000816992)
(0.00948876 0 -0.000881541)
(0.0098433 0 -0.000946736)
(0.0101781 0 -0.00101274)
(0.0105019 0 -0.00107979)
(0.0108245 0 -0.0011483)
(0.0111571 0 -0.00121894)
(0.0115121 0 -0.0012928)
(0.0119041 0 -0.00137156)
(0.0123491 0 -0.00145762)
(0.0128645 0 -0.00155424)
(0.0134685 0 -0.00166539)
(0.0141788 0 -0.00179534)
(0.0150095 0 -0.00194755)
(0.0159667 0 -0.00212242)
(0.0170392 0 -0.00231361)
(0.0181784 0 -0.00250355)
(0.01926 0 -0.00266012)
(0.0200289 0 -0.00273832)
(0.00067018 0 -5.03836e-05)
(0.00193393 0 -0.000146181)
(0.00305732 0 -0.000233556)
(0.00405627 0 -0.000314634)
(0.00494497 0 -0.000391107)
(0.00573599 0 -0.000464316)
(0.00644049 0 -0.000535333)
(0.00706852 0 -0.000605015)
(0.00762913 0 -0.000674048)
(0.00813066 0 -0.000742987)
(0.00858086 0 -0.000812294)
(0.0089871 0 -0.000882363)
(0.00935654 0 -0.000953571)
(0.00969632 0 -0.00102631)
(0.0100138 0 -0.00110107)
(0.0103165 0 -0.00117847)
(0.0106125 0 -0.00125943)
(0.0109104 0 -0.0013452)
(0.0112194 0 -0.00143757)
(0.0115486 0 -0.00153899)
(0.0119075 0 -0.0016527)
(0.0123042 0 -0.00178282)
(0.0127461 0 -0.0019341)
(0.0132379 0 -0.00211149)
(0.0137815 0 -0.00231888)
(0.0143764 0 -0.00255659)
(0.0150202 0 -0.00281685)
(0.0157051 0 -0.0030772)
(0.0163971 0 -0.0032939)
(0.0169742 0 -0.00340409)
(0.000663454 0 -5.3759e-05)
(0.0019144 0 -0.000155969)
(0.00302607 0 -0.000249183)
(0.00401412 0 -0.000335662)
(0.00489249 0 -0.00041721)
(0.0056735 0 -0.000495267)
(0.00636809 0 -0.000570989)
(0.00698609 0 -0.000645317)
(0.00753632 0 -0.000719024)
(0.00802686 0 -0.00079276)
(0.00846516 0 -0.000867095)
(0.00885822 0 -0.000942557)
(0.00921266 0 -0.00101968)
(0.00953493 0 -0.00109905)
(0.00983129 0 -0.0011814)
(0.0101079 0 -0.00126762)
(0.0103709 0 -0.00135895)
(0.0106258 0 -0.00145698)
(0.0108779 0 -0.00156385)
(0.0111311 0 -0.00168234)
(0.0113876 0 -0.0018159)
(0.0116466 0 -0.00196876)
(0.0119039 0 -0.00214564)
(0.012151 0 -0.00235143)
(0.0123756 0 -0.00259025)
(0.012565 0 -0.00286356)
(0.0127149 0 -0.00316619)
(0.0128443 0 -0.00347849)
(0.0130099 0 -0.00375292)
(0.0132778 0 -0.00390437)
(0.000656328 0 -5.6885e-05)
(0.00189372 0 -0.00016503)
(0.002993 0 -0.000263644)
(0.00396956 0 -0.000355105)
(0.00483705 0 -0.000441316)
(0.00560754 0 -0.000523801)
(0.00629172 0 -0.000603794)
(0.00689914 0 -0.000682307)
(0.00743839 0 -0.000760186)
(0.00791722 0 -0.000838159)
(0.00834274 0 -0.000916881)
(0.00872147 0 -0.000996979)
(0.00905945 0 -0.0010791)
(0.0093623 0 -0.00116397)
(0.00963519 0 -0.00125244)
(0.00988277 0 -0.00134557)
(0.010109 0 -0.0014447)
(0.0103168 0 -0.00155153)
(0.0105077 0 -0.0016682)
(0.0106808 0 -0.00179734)
(0.0108323 0 -0.00194204)
(0.0109539 0 -0.00210587)
(0.0110324 0 -0.00229262)
(0.0110484 0 -0.002506)
(0.010977 0 -0.0027493)
(0.0107913 0 -0.00302472)
(0.0104721 0 -0.00333203)
(0.0100322 0 -0.00366398)
(0.00956738 0 -0.00398936)
(0.00934287 0 -0.00420832)
(0.000648818 0 -5.97481e-05)
(0.00187196 0 -0.000173324)
(0.00295824 0 -0.00027688)
(0.00392278 0 -0.000372884)
(0.00477894 0 -0.000463323)
(0.00553848 0 -0.000549795)
(0.00621185 0 -0.000633596)
(0.00680831 0 -0.000715797)
(0.00733615 0 -0.000797303)
(0.00780281 0 -0.000878896)
(0.00821499 0 -0.000961292)
(0.00857873 0 -0.00104518)
(0.00889946 0 -0.00113127)
(0.00918197 0 -0.00122034)
(0.00943037 0 -0.0013133)
(0.00964791 0 -0.00141121)
(0.00983672 0 -0.00151537)
(0.00999745 0 -0.00162734)
(0.0101287 0 -0.00174895)
(0.0102261 0 -0.00188232)
(0.010282 0 -0.0020297)
(0.0102834 0 -0.00219342)
(0.0102124 0 -0.00237547)
(0.0100447 0 -0.00257721)
(0.00975052 0 -0.00279907)
(0.00929609 0 -0.00304056)
(0.00864986 0 -0.00330148)
(0.00779846 0 -0.00358646)
(0.00678916 0 -0.00390771)
(0.00593772 0 -0.00422952)
(0.0021494 0 -0.000706862)
(0.00348218 0 -0.000632046)
(0.00530132 0 -0.000524357)
(0.00711919 0 -0.000418582)
(0.00871266 0 -0.000326084)
(0.0100055 0 -0.000249648)
(0.0109941 0 -0.000188599)
(0.0117075 0 -0.000140958)
(0.0121864 0 -0.000104411)
(0.0124721 0 -7.67488e-05)
(0.0126018 0 -5.60423e-05)
(0.0126068 0 -4.06851e-05)
(0.0125119 0 -2.93867e-05)
(0.0123362 0 -2.11348e-05)
(0.0120934 0 -1.51485e-05)
(0.011793 0 -1.08334e-05)
(0.0114406 0 -7.74232e-06)
(0.0110391 0 -5.54121e-06)
(0.0105888 0 -3.98262e-06)
(0.0100879 0 -2.88431e-06)
(0.00953268 0 -2.11277e-06)
(0.00891815 0 -1.57068e-06)
(0.00823767 0 -1.18748e-06)
(0.00748327 0 -9.12238e-07)
(0.00664555 0 -7.08366e-07)
(0.00571366 0 -5.49682e-07)
(0.0046752 0 -4.17489e-07)
(0.00351599 0 -2.98368e-07)
(0.00221992 0 -1.82481e-07)
(0.000768387 0 -6.21339e-08)
(0.0041316 0 -0.00195153)
(0.00519273 0 -0.00175736)
(0.00666783 0 -0.00147131)
(0.00816758 0 -0.001183)
(0.00949494 0 -0.000926635)
(0.0105761 0 -0.00071246)
(0.0114019 0 -0.000540095)
(0.011993 0 -0.000404829)
(0.0123818 0 -0.000300614)
(0.0126022 0 -0.000221457)
(0.0126855 0 -0.000162029)
(0.012658 0 -0.00011784)
(0.0125408 0 -8.52582e-05)
(0.0123499 0 -6.14139e-05)
(0.0120972 0 -4.40852e-05)
(0.0117904 0 -3.15745e-05)
(0.0114342 0 -2.25994e-05)
(0.0110306 0 -1.62002e-05)
(0.0105792 0 -1.16637e-05)
(0.010078 0 -8.46336e-06)
(0.00952306 0 -6.2127e-06)
(0.00890909 0 -4.62951e-06)
(0.00822937 0 -3.50875e-06)
(0.00747584 0 -2.7022e-06)
(0.00663908 0 -2.10324e-06)
(0.00570823 0 -1.63547e-06)
(0.00467085 0 -1.24427e-06)
(0.00351279 0 -8.90401e-07)
(0.00221794 0 -5.45063e-07)
(0.000767709 0 -1.8571e-07)
(0.00738736 0 -0.00279962)
(0.00810557 0 -0.0025468)
(0.00905995 0 -0.00215995)
(0.0100352 0 -0.00175619)
(0.0109042 0 -0.00138828)
(0.0116118 0 -0.0010755)
(0.0121456 0 -0.000820509)
(0.0125152 0 -0.000618393)
(0.0127396 0 -0.000461417)
(0.0128405 0 -0.000341384)
(0.0128384 0 -0.00025075)
(0.0127508 0 -0.000183023)
(0.0125921 0 -0.000132862)
(0.0123733 0 -9.60078e-05)
(0.0121021 0 -6.91289e-05)
(0.0117835 0 -4.96611e-05)
(0.0114202 0 -3.5655e-05)
(0.0110127 0 -2.56428e-05)
(0.0105595 0 -1.85281e-05)
(0.010058 0 -1.34978e-05)
(0.00950357 0 -9.95244e-06)
(0.00889074 0 -7.45244e-06)
(0.00821255 0 -5.67737e-06)
(0.0074608 0 -4.39486e-06)
(0.00662597 0 -3.43724e-06)
(0.00569719 0 -2.68409e-06)
(0.004662 0 -2.04911e-06)
(0.00350627 0 -1.47015e-06)
(0.0022139 0 -9.01566e-07)
(0.000766331 0 -3.07504e-07)
(0.0113026 0 -0.00321089)
(0.0116376 0 -0.00294038)
(0.0120066 0 -0.00252291)
(0.0123702 0 -0.00207595)
(0.0126873 0 -0.00165918)
(0.012934 0 -0.00129803)
(0.0131011 0 -0.000998939)
(0.0131886 0 -0.000758749)
(0.0132016 0 -0.000570128)
(0.0131475 0 -0.000424516)
(0.0130339 0 -0.000313645)
(0.0128676 0 -0.000230179)
(0.0126545 0 -0.000167949)
(0.0123988 0 -0.000121952)
(0.0121034 0 -8.82238e-05)
(0.0117694 0 -6.36763e-05)
(0.0113969 0 -4.59382e-05)
(0.0109844 0 -3.32082e-05)
(0.0105292 0 -2.41298e-05)
(0.0100274 0 -1.76893e-05)
(0.00947409 0 -1.31345e-05)
(0.00886312 0 -9.9105e-06)
(0.00818729 0 -7.61053e-06)
(0.00743823 0 -5.93815e-06)
(0.00660633 0 -4.67853e-06)
(0.00568064 0 -3.67676e-06)
(0.00464873 0 -2.82142e-06)
(0.00349648 0 -2.03205e-06)
(0.00220783 0 -1.24937e-06)
(0.000764258 0 -4.26722e-07)
(0.0152759 0 -0.00320848)
(0.0152278 0 -0.00295142)
(0.0150312 0 -0.00255852)
(0.0147951 0 -0.00213089)
(0.014559 0 -0.00172408)
(0.0143339 0 -0.00136467)
(0.0141189 0 -0.00106174)
(0.0139081 0 -0.000814631)
(0.0136949 0 -0.000617855)
(0.0134733 0 -0.000464045)
(0.0132382 0 -0.000345613)
(0.0129858 0 -0.000255551)
(0.0127129 0 -0.000187786)
(0.0124167 0 -0.000137283)
(0.0120947 0 -9.99719e-05)
(0.0117441 0 -7.26339e-05)
(0.0113618 0 -5.27602e-05)
(0.0109443 0 -3.84198e-05)
(0.0104873 0 -2.81422e-05)
(0.00998593 0 -2.08166e-05)
(0.0094344 0 -1.56111e-05)
(0.00882613 0 -1.19066e-05)
(0.00815357 0 -9.24562e-06)
(0.00740816 0 -7.29271e-06)
(0.00658017 0 -5.80314e-06)
(0.00565862 0 -4.59946e-06)
(0.00463107 0 -3.55343e-06)
(0.00348344 0 -2.57208e-06)
(0.00219973 0 -1.58662e-06)
(0.000761486 0 -5.42838e-07)
(0.0187931 0 -0.00284824)
(0.0184021 0 -0.00263186)
(0.0177217 0 -0.00230588)
(0.0169711 0 -0.00194635)
(0.0162533 0 -0.00159743)
(0.0156101 0 -0.00128256)
(0.0150506 0 -0.00101166)
(0.0145668 0 -0.000786393)
(0.0141439 0 -0.000603792)
(0.0137653 0 -0.000458715)
(0.0134155 0 -0.000345334)
(0.0130812 0 -0.000257935)
(0.0127512 0 -0.000191357)
(0.0124164 0 -0.00014118)
(0.0120692 0 -0.000103736)
(0.0117031 0 -7.60522e-05)
(0.0113122 0 -5.57646e-05)
(0.0108907 0 -4.10197e-05)
(0.010433 0 -3.03824e-05)
(0.00993298 0 -2.27528e-05)
(0.00938425 0 -1.72961e-05)
(0.00877967 0 -1.33836e-05)
(0.00811139 0 -1.05461e-05)
(0.00737063 0 -8.43606e-06)
(0.00654756 0 -6.79793e-06)
(0.00563118 0 -5.44507e-06)
(0.00460905 0 -4.24172e-06)
(0.00346717 0 -3.08884e-06)
(0.0021896 0 -1.9129e-06)
(0.000758015 0 -6.55773e-07)
(0.0214478 0 -0.00220492)
(0.0207959 0 -0.00205481)
(0.0197602 0 -0.00182759)
(0.0186311 0 -0.00157078)
(0.0175541 0 -0.0013142)
(0.016594 0 -0.0010757)
(0.0157687 0 -0.000864547)
(0.0150709 0 -0.000684159)
(0.0144809 0 -0.000534226)
(0.0139757 0 -0.00041232)
(0.0135324 0 -0.000315019)
(0.0131308 0 -0.000238566)
(0.0127539 0 -0.000179312)
(0.0123876 0 -0.000133958)
(0.0120202 0 -9.96442e-05)
(0.0116422 0 -7.39632e-05)
(0.0112453 0 -5.49389e-05)
(0.010822 0 -4.09788e-05)
(0.0103652 0 -3.08193e-05)
(0.00986808 0 -2.34712e-05)
(0.00932342 0 -1.81692e-05)
(0.0087237 0 -1.43279e-05)
(0.00806077 0 -1.15037e-05)
(0.0073257 0 -9.36408e-06)
(0.00650858 0 -7.66167e-06)
(0.00559838 0 -6.21411e-06)
(0.00458273 0 -4.88759e-06)
(0.00344769 0 -3.58381e-06)
(0.00217747 0 -2.22931e-06)
(0.000753849 0 -7.65939e-07)
(0.0229622 0 -0.00137709)
(0.022165 0 -0.00131047)
(0.0209333 0 -0.00120055)
(0.0195924 0 -0.00106597)
(0.0183101 0 -0.000921667)
(0.0171643 0 -0.000778857)
(0.0161792 0 -0.000645172)
(0.0153491 0 -0.000525134)
(0.0146536 0 -0.000420842)
(0.0140666 0 -0.000332644)
(0.013562 0 -0.000259766)
(0.013116 0 -0.000200735)
(0.0127083 0 -0.000153747)
(0.0123216 0 -0.000116936)
(0.0119421 0 -8.85163e-05)
(0.0115578 0 -6.68714e-05)
(0.011159 0 -5.05917e-05)
(0.0107368 0 -3.84852e-05)
(0.0102833 0 -2.95678e-05)
(0.00979085 0 -2.30426e-05)
(0.00925178 0 -1.82753e-05)
(0.00865821 0 -1.47688e-05)
(0.00800179 0 -1.21386e-05)
(0.00727347 0 -1.00912e-05)
(0.00646332 0 -8.40517e-06)
(0.00556032 0 -6.91481e-06)
(0.00455218 0 -5.49727e-06)
(0.00342508 0 -4.06139e-06)
(0.00216335 0 -2.53855e-06)
(0.000748997 0 -8.74248e-07)
(0.0232003 0 -0.000478692)
(0.0223886 0 -0.000498179)
(0.0211331 0 -0.000507919)
(0.0197602 0 -0.00049928)
(0.0184403 0 -0.000472662)
(0.0172538 0 -0.00043222)
(0.016228 0 -0.000383236)
(0.0153595 0 -0.000330722)
(0.0146298 0 -0.000278731)
(0.0140141 0 -0.000230133)
(0.0134869 0 -0.000186697)
(0.0130243 0 -0.000149233)
(0.0126055 0 -0.000117849)
(0.0122126 0 -9.22123e-05)
(0.0118307 0 -7.17262e-05)
(0.0114473 0 -5.5671e-05)
(0.0110516 0 -4.33024e-05)
(0.0106343 0 -3.3914e-05)
(0.0101868 0 -2.6871e-05)
(0.00970113 0 -2.16254e-05)
(0.00916931 0 -1.77183e-05)
(0.00858328 0 -1.47753e-05)
(0.00793457 0 -1.24973e-05)
(0.00721409 0 -1.06495e-05)
(0.00641192 0 -9.05067e-06)
(0.00551713 0 -7.56278e-06)
(0.00451751 0 -6.08163e-06)
(0.00339938 0 -4.52884e-06)
(0.0021473 0 -2.84482e-06)
(0.000743471 0 -9.82096e-07)
(0.0221646 0 0.000379711)
(0.0214642 0 0.000286106)
(0.0203527 0 0.00016974)
(0.0191251 0 6.32067e-05)
(0.0179338 0 -2.00024e-05)
(0.0168514 0 -7.68192e-05)
(0.0159038 0 -0.000109762)
(0.0150912 0 -0.000123803)
(0.0143997 0 -0.000124415)
(0.0138098 0 -0.000116505)
(0.0133002 0 -0.000103998)
(0.0128504 0 -8.97075e-05)
(0.0124417 0 -7.5475e-05)
(0.0120577 0 -6.24008e-05)
(0.0116843 0 -5.10312e-05)
(0.0113095 0 -4.15372e-05)
(0.0109225 0 -3.38541e-05)
(0.0105141 0 -2.77856e-05)
(0.0100756 0 -2.30745e-05)
(0.00959897 0 -1.94493e-05)
(0.00907618 0 -1.66513e-05)
(0.00849912 0 -1.44502e-05)
(0.00785934 0 -1.26491e-05)
(0.00714778 0 -1.1086e-05)
(0.00635459 0 -9.63045e-06)
(0.00546896 0 -8.18015e-06)
(0.00447883 0 -6.65565e-06)
(0.00337071 0 -4.99588e-06)
(0.00212937 0 -3.15367e-06)
(0.000737292 0 -1.09131e-06)
(0.0199812 0 0.00110733)
(0.0194971 0 0.000961236)
(0.018681 0 0.000762039)
(0.0177609 0 0.000562208)
(0.0168493 0 0.000388003)
(0.0160005 0 0.00024922)
(0.0152374 0 0.000146002)
(0.0145644 0 7.37064e-05)
(0.0139761 0 2.60007e-05)
(0.0134613 0 -3.40603e-06)
(0.0130063 0 -1.99778e-05)
(0.0125965 0 -2.802e-05)
(0.012218 0 -3.072e-05)
(0.0118575 0 -3.03374e-05)
(0.0115033 0 -2.83821e-05)
(0.0111446 0 -2.5804e-05)
(0.010772 0 -2.31546e-05)
(0.0103765 0 -2.07155e-05)
(0.00995007 0 -1.85947e-05)
(0.00948476 0 -1.67956e-05)
(0.00897276 0 -1.52646e-05)
(0.00840609 0 -1.39221e-05)
(0.00777642 0 -1.26814e-05)
(0.00707481 0 -1.146e-05)
(0.00629157 0 -1.0185e-05)
(0.00541602 0 -8.7944e-06)
(0.00443631 0 -7.23774e-06)
(0.00333917 0 -5.47431e-06)
(0.00210963 0 -3.47175e-06)
(0.000730485 0 -1.20404e-06)
(0.0168759 0 0.00164302)
(0.01669 0 0.00146755)
(0.0162996 0 0.00121333)
(0.015823 0 0.000949001)
(0.0153118 0 0.000711017)
(0.0147967 0 0.000513831)
(0.0142978 0 0.000359262)
(0.0138277 0 0.000243004)
(0.0133918 0 0.000158466)
(0.0129903 0 9.87925e-05)
(0.0126192 0 5.77914e-05)
(0.0122719 0 3.03572e-05)
(0.0119403 0 1.24986e-05)
(0.0116159 0 1.19734e-06)
(0.0112902 0 -5.73686e-06)
(0.0109547 0 -9.84061e-06)
(0.0106014 0 -1.21554e-05)
(0.0102227 0 -1.33616e-05)
(0.00981106 0 -1.38843e-05)
(0.0093592 0 -1.39751e-05)
(0.00885964 0 -1.37708e-05)
(0.0083047 0 -1.33363e-05)
(0.00768624 0 -1.26933e-05)
(0.00699556 0 -1.18394e-05)
(0.00622315 0 -1.07603e-05)
(0.00535856 0 -9.43674e-06)
(0.00439015 0 -7.84867e-06)
(0.00330491 0 -5.97735e-06)
(0.00208817 0 -3.80649e-06)
(0.000723081 0 -1.32273e-06)
(0.0131558 0 0.00195365)
(0.0133437 0 0.00176571)
(0.0134879 0 0.0014828)
(0.0135485 0 0.00118727)
(0.0135081 0 0.000919462)
(0.0133789 0 0.000693841)
(0.0131852 0 0.00051209)
(0.012951 0 0.000370273)
(0.0126951 0 0.000262372)
(0.0124297 0 0.000181998)
(0.0121611 0 0.000123192)
(0.0118912 0 8.08469e-05)
(0.0116186 0 5.07939e-05)
(0.0113397 0 2.97245e-05)
(0.0110497 0 1.51085e-05)
(0.0107428 0 5.06402e-06)
(0.0104131 0 -1.77388e-06)
(0.0100543 0 -6.3717e-06)
(0.00965988 0 -9.39808e-06)
(0.00922333 0 -1.13048e-05)
(0.00873766 0 -1.23899e-05)
(0.00819561 0 -1.2845e-05)
(0.00758936 0 -1.27897e-05)
(0.00691047 0 -1.22961e-05)
(0.00614971 0 -1.14056e-05)
(0.00529687 0 -1.01404e-05)
(0.00434057 0 -8.5105e-06)
(0.00326809 0 -6.51901e-06)
(0.00206509 0 -4.1657e-06)
(0.000715117 0 -1.44989e-06)
(0.0092364 0 0.00202885)
(0.00989733 0 0.00182731)
(0.0106406 0 0.00154061)
(0.011251 0 0.00125455)
(0.0116708 0 0.000997719)
(0.0119143 0 0.000777886)
(0.0120173 0 0.000595561)
(0.0120167 0 0.000448149)
(0.0119429 0 0.000331558)
(0.0118186 0 0.000241105)
(0.0116589 0 0.000172064)
(0.0114732 0 0.000120133)
(0.0112657 0 8.15763e-05)
(0.0110377 0 5.32586e-05)
(0.0107879 0 3.26571e-05)
(0.0105133 0 1.77979e-05)
(0.0102101 0 7.17467e-06)
(0.00987355 0 -3.36977e-07)
(0.00949826 0 -5.56013e-06)
(0.00907845 0 -9.08663e-06)
(0.00860785 0 -1.13352e-05)
(0.00807965 0 -1.25976e-05)
(0.00748643 0 -1.30745e-05)
(0.00682009 0 -1.29018e-05)
(0.00607168 0 -1.21701e-05)
(0.00523128 0 -1.09387e-05)
(0.00428783 0 -9.24535e-06)
(0.0032289 0 -7.11327e-06)
(0.00204052 0 -4.55718e-06)
(0.000706631 0 -1.58806e-06)
(0.0058425 0 0.00183652)
(0.00704503 0 0.00160251)
(0.00827477 0 0.00136377)
(0.00928584 0 0.00114813)
(0.0100415 0 0.00094956)
(0.0105686 0 0.000769542)
(0.0109094 0 0.000611303)
(0.0111054 0 0.000476484)
(0.0111921 0 0.000364745)
(0.0111972 0 0.000274286)
(0.011141 0 0.000202435)
(0.0110376 0 0.000146348)
(0.0108956 0 0.000103204)
(0.0107197 0 7.0429e-05)
(0.0105118 0 4.58055e-05)
(0.0102714 0 2.74975e-05)
(0.00999627 0 1.40297e-05)
(0.00968329 0 4.24674e-06)
(0.00932823 0 -2.73688e-06)
(0.00892615 0 -7.58753e-06)
(0.00847142 0 -1.07987e-05)
(0.00795777 0 -1.27309e-05)
(0.00737822 0 -1.36442e-05)
(0.00672501 0 -1.37239e-05)
(0.00598953 0 -1.31003e-05)
(0.00516218 0 -1.18633e-05)
(0.00423221 0 -1.00742e-05)
(0.00318754 0 -7.77336e-06)
(0.00201456 0 -4.98827e-06)
(0.000697667 0 -1.73961e-06)
(0.000640702 0 -6.24096e-05)
(0.00184854 0 -0.000181022)
(0.00292114 0 -0.000289094)
(0.00387293 0 -0.000389279)
(0.00471711 0 -0.000483581)
(0.00546514 0 -0.00057366)
(0.00612716 0 -0.000660864)
(0.00671216 0 -0.000746311)
(0.0072281 0 -0.000830943)
(0.00768207 0 -0.000915582)
(0.00808037 0 -0.00100097)
(0.00842855 0 -0.00108783)
(0.00873144 0 -0.00117688)
(0.00899308 0 -0.00126889)
(0.00921662 0 -0.00136473)
(0.00940413 0 -0.00146536)
(0.00955633 0 -0.00157189)
(0.00967217 0 -0.00168555)
(0.00974835 0 -0.00180768)
(0.0097787 0 -0.00193959)
(0.00975353 0 -0.00208241)
(0.00965892 0 -0.00223685)
(0.00947676 0 -0.00240266)
(0.00918467 0 -0.00257797)
(0.0087578 0 -0.00275846)
(0.00817115 0 -0.0029357)
(0.00740429 0 -0.00309265)
(0.0064576 0 -0.00319689)
(0.00535783 0 -0.00317926)
(0.00422588 0 -0.0029112)
(0.000631887 0 -6.48691e-05)
(0.00182309 0 -0.00018815)
(0.00288092 0 -0.000300394)
(0.00381935 0 -0.00040433)
(0.00465075 0 -0.000502149)
(0.00538657 0 -0.000595465)
(0.00603661 0 -0.000685673)
(0.00660957 0 -0.00077392)
(0.00711308 0 -0.000861176)
(0.00755384 0 -0.000948274)
(0.00793777 0 -0.00103597)
(0.00826996 0 -0.00112495)
(0.00855468 0 -0.00121593)
(0.00879532 0 -0.0013096)
(0.00899425 0 -0.00140671)
(0.00915267 0 -0.00150804)
(0.0092703 0 -0.00161439)
(0.00934512 0 -0.00172656)
(0.00937298 0 -0.00184523)
(0.0093472 0 -0.00197082)
(0.00925834 0 -0.00210323)
(0.00909397 0 -0.00224153)
(0.00883958 0 -0.00238339)
(0.00847832 0 -0.00252396)
(0.00799665 0 -0.00265515)
(0.00738343 0 -0.00276411)
(0.00664347 0 -0.00282922)
(0.0058088 0 -0.00281689)
(0.00494291 0 -0.0026792)
(0.00412665 0 -0.00233867)
(0.000622451 0 -6.70786e-05)
(0.00179591 0 -0.000194551)
(0.00283785 0 -0.000310587)
(0.00376205 0 -0.000417885)
(0.00458039 0 -0.000518702)
(0.00530339 0 -0.00061484)
(0.00594098 0 -0.000707597)
(0.00650152 0 -0.000798149)
(0.0069923 0 -0.000887471)
(0.00741964 0 -0.000976393)
(0.00778908 0 -0.00106564)
(0.00810533 0 -0.00115587)
(0.00837219 0 -0.00124772)
(0.00859253 0 -0.00134176)
(0.00876818 0 -0.00143858)
(0.00889977 0 -0.0015387)
(0.00898654 0 -0.00164258)
(0.00902617 0 -0.0017505)
(0.00901452 0 -0.00186251)
(0.00894559 0 -0.00197815)
(0.00881155 0 -0.00209623)
(0.00860297 0 -0.00221443)
(0.00830956 0 -0.00232904)
(0.00792349 0 -0.00243367)
(0.00744177 0 -0.0025186)
(0.00686867 0 -0.00257037)
(0.00622569 0 -0.00257096)
(0.00555039 0 -0.0024953)
(0.00489806 0 -0.00230989)
(0.0043364 0 -0.00195851)
(0.000612402 0 -6.90158e-05)
(0.001767 0 -0.000200167)
(0.00279217 0 -0.000319517)
(0.00370116 0 -0.000429803)
(0.00450574 0 -0.000533203)
(0.00521587 0 -0.000631582)
(0.00584054 0 -0.00072642)
(0.00638842 0 -0.000818755)
(0.00686635 0 -0.000909567)
(0.00728026 0 -0.000999662)
(0.0076354 0 -0.00108971)
(0.00793614 0 -0.00118032)
(0.00818592 0 -0.001272)
(0.00838728 0 -0.0013652)
(0.00854172 0 -0.0014603)
(0.00864964 0 -0.00155754)
(0.00871022 0 -0.00165702)
(0.00872137 0 -0.00175856)
(0.00867969 0 -0.00186158)
(0.00858057 0 -0.00196496)
(0.00841846 0 -0.00206671)
(0.0081872 0 -0.00216367)
(0.00788265 0 -0.00225123)
(0.00750525 0 -0.0023228)
(0.0070589 0 -0.00236935)
(0.00655614 0 -0.00237935)
(0.00602097 0 -0.00233859)
(0.00548842 0 -0.00222948)
(0.00500401 0 -0.00203019)
(0.00462571 0 -0.00171313)
(0.000601755 0 -7.066e-05)
(0.00173642 0 -0.000204937)
(0.00274397 0 -0.000327097)
(0.00363709 0 -0.000439884)
(0.00442703 0 -0.000545493)
(0.00512378 0 -0.000645663)
(0.0057357 0 -0.000741932)
(0.00627076 0 -0.00083553)
(0.00673595 0 -0.000927248)
(0.00713663 0 -0.00101787)
(0.00747791 0 -0.00110799)
(0.0077639 0 -0.00119813)
(0.00799782 0 -0.00128868)
(0.00818201 0 -0.00137996)
(0.00831786 0 -0.0014721)
(0.00840583 0 -0.0015651)
(0.00844538 0 -0.0016587)
(0.00843504 0 -0.00175233)
(0.00837256 0 -0.00184495)
(0.00825511 0 -0.00193494)
(0.00807974 0 -0.00201993)
(0.00784465 0 -0.00209633)
(0.00755037 0 -0.00215949)
(0.00720073 0 -0.00220335)
(0.00680456 0 -0.00222026)
(0.00637721 0 -0.00220119)
(0.00594137 0 -0.00213589)
(0.00552676 0 -0.00201307)
(0.00516945 0 -0.00182121)
(0.004912 0 -0.00155202)
(0.000590535 0 -7.19918e-05)
(0.00170424 0 -0.000208806)
(0.00269336 0 -0.000333242)
(0.00356998 0 -0.000448028)
(0.00434487 0 -0.000555345)
(0.00502753 0 -0.00065693)
(0.00562624 0 -0.000754129)
(0.00614873 0 -0.000848328)
(0.00660145 0 -0.000940391)
(0.00698921 0 -0.00103093)
(0.00731728 0 -0.00112042)
(0.00758959 0 -0.0012093)
(0.0078092 0 -0.00129788)
(0.00797841 0 -0.00138627)
(0.00809871 0 -0.00147445)
(0.00817081 0 -0.00156216)
(0.00819473 0 -0.00164887)
(0.00816986 0 -0.00173371)
(0.00809527 0 -0.00181533)
(0.00797005 0 -0.00189184)
(0.00779393 0 -0.00196067)
(0.00756807 0 -0.00201849)
(0.00729558 0 -0.00206089)
(0.00698313 0 -0.00208271)
(0.00664123 0 -0.00207797)
(0.00628511 0 -0.00204011)
(0.00593472 0 -0.00196238)
(0.00561406 0 -0.00183851)
(0.00535011 0 -0.00166414)
(0.00517121 0 -0.0014401)