/*--------------------------------*- C++ -*----------------------------------*\
| =========                 |                                                 |
| \\      /  F ield         | OpenFOAM: The Open Source CFD Toolbox           |
|  \\    /   O peration     | Version:  dev                                   |
|   \\  /    A nd           | Web:      www.OpenFOAM.org                      |
|    \\/     M anipulation  |                                                 |
\*---------------------------------------------------------------------------*/
FoamFile
{
    version     2.0;
    format      ascii;
    class       pointVectorField;
    location    "3.73";
    object      pointDisplacement;
}
// * * * * * * * * * * * * * * * * * * * * * * * * * * * * * * * * * * * * * //

dimensions      [0 1 0 0 0 0 0];

internalField   nonuniform List<vector> 
5828
(
(0 0 0)
(0.00138225 0 0)
(0.00264882 0 0)
(0.00377692 0 0)
(0.00478331 0 0)
(0.0056826 0 0)
(0.00648754 0 0)
(0.00720918 0 0)
(0.00785712 0 0)
(0.00843951 0 0)
(0.00896318 0 0)
(0.00943355 0 0)
(0.00985461 0 0)
(0.0102287 0 0)
(0.0105563 0 0)
(0.0108357 0 0)
(0.0110627 0 0)
(0.0112298 0 0)
(0.0113259 0 0)
(0.0113357 0 0)
(0.0112389 0 0)
(0.0110109 0 0)
(0.0106226 0 0)
(0.0100427 0 0)
(0.00924196 0 0)
(0.00819953 0 0)
(0.00691599 0 0)
(0.00543438 0 0)
(0.00388044 0 0)
(0.00256129 0 0)
(0 0 0)
(0 0 0)
(0.00138157 0 -9.3441e-06)
(0.00264757 0 -1.80344e-05)
(0.00377516 0 -2.6014e-05)
(0.00478107 0 -3.34577e-05)
(0.00567991 0 -4.04972e-05)
(0.00648443 0 -4.72257e-05)
(0.0072057 0 -5.37007e-05)
(0.00785331 0 -5.99442e-05)
(0.00843546 0 -6.59391e-05)
(0.00895901 0 -7.16236e-05)
(0.00942948 0 -7.6881e-05)
(0.00985093 0 -8.15252e-05)
(0.0102259 0 -8.52812e-05)
(0.0105551 0 -8.77586e-05)
(0.0108371 0 -8.84172e-05)
(0.0110682 0 -8.65248e-05)
(0.0112416 0 -8.11037e-05)
(0.011347 0 -7.08692e-05)
(0.0113702 0 -5.41599e-05)
(0.0112927 0 -2.88642e-05)
(0.0110916 0 7.64568e-06)
(0.0107403 0 5.85658e-05)
(0.0102106 0 0.000127666)
(0.00947662 0 0.0002192)
(0.00852163 0 0.000337632)
(0.0073508 0 0.000486918)
(0.00601209 0 0.000668607)
(0.00463387 0 0.000876386)
(0.00350692 0 0.00107888)
(0.00176814 0 0.00150861)
(0 0 0)
(0.00137964 0 -1.8661e-05)
(0.00264388 0 -3.60179e-05)
(0.00376988 0 -5.19577e-05)
(0.00477432 0 -6.68301e-05)
(0.0056718 0 -8.08991e-05)
(0.00647504 0 -9.43528e-05)
(0.00719516 0 -0.000107309)
(0.00784177 0 -0.000119816)
(0.00842316 0 -0.000131846)
(0.00894633 0 -0.000143285)
(0.009417 0 -0.000153914)
(0.00983956 0 -0.000163381)
(0.010217 0 -0.000171166)
(0.0105507 0 -0.00017653)
(0.0108402 0 -0.000178452)
(0.0110831 0 -0.00017555)
(0.0112745 0 -0.000165986)
(0.0114066 0 -0.000147351)
(0.0114685 0 -0.000116544)
(0.0114461 0 -6.96463e-05)
(0.0113221 0 -1.82254e-06)
(0.0110768 0 9.27285e-05)
(0.0106903 0 0.000220697)
(0.0101458 0 0.000389323)
(0.009437 0 0.000605572)
(0.00857856 0 0.000874227)
(0.00762434 0 0.00119354)
(0.0066939 0 0.00154482)
(0.00601524 0 0.00186618)
(0.00501453 0 0.00242138)
(0 0 0)
(0.00137642 0 -2.7919e-05)
(0.0026377 0 -5.38903e-05)
(0.00376103 0 -7.7746e-05)
(0.00476301 0 -0.000100011)
(0.00565819 0 -0.000121083)
(0.0064593 0 -0.000141248)
(0.00717745 0 -0.000160688)
(0.00782235 0 -0.000179488)
(0.0084024 0 -0.000197619)
(0.00892482 0 -0.000214936)
(0.00939563 0 -0.000231143)
(0.00981972 0 -0.000245762)
(0.0102008 0 -0.000258082)
(0.0105412 0 -0.000267095)
(0.0108421 0 -0.000271413)
(0.0111029 0 -0.000269161)
(0.0113216 0 -0.000257858)
(0.0114943 0 -0.000234271)
(0.0116151 0 -0.00019427)
(0.0116765 0 -0.000132688)
(0.0116694 0 -4.32385e-05)
(0.0115844 0 8.14554e-05)
(0.0114131 0 0.000249593)
(0.0111516 0 0.000469448)
(0.0108053 0 0.000747771)
(0.0103962 0 0.00108654)
(0.00997285 0 0.00147652)
(0.00961838 0 0.00188476)
(0.00945331 0 0.00223045)
(0.00921637 0 0.00275782)
(0 0 0)
(0.00137194 0 -3.70811e-05)
(0.00262911 0 -7.15803e-05)
(0.00374871 0 -0.000103277)
(0.00474725 0 -0.000132871)
(0.00563921 0 -0.000160895)
(0.0064373 0 -0.000187737)
(0.00715266 0 -0.000213652)
(0.00779507 0 -0.000238768)
(0.0083731 0 -0.000263077)
(0.00889421 0 -0.000286424)
(0.00936482 0 -0.000308474)
(0.00979041 0 -0.000328675)
(0.0101755 0 -0.000346203)
(0.0105239 0 -0.000359888)
(0.0108383 0 -0.000368124)
(0.0111207 0 -0.000368757)
(0.0113725 0 -0.000358951)
(0.0115942 0 -0.000335049)
(0.0117862 0 -0.000292425)
(0.0119487 0 -0.000225378)
(0.0120824 0 -0.000127107)
(0.0121895 0 1.01274e-05)
(0.0122746 0 0.000194503)
(0.012347 0 0.000433462)
(0.0124218 0 0.00073145)
(0.012522 0 0.00108581)
(0.0126772 0 0.00147977)
(0.0129131 0 0.00187133)
(0.0132266 0 0.00217788)
(0.013652 0 0.00260071)
(0 0 0)
(0.00136625 0 -4.61062e-05)
(0.00261818 0 -8.90085e-05)
(0.00373302 0 -0.000128436)
(0.00472714 0 -0.000165262)
(0.00561496 0 -0.000200158)
(0.00640913 0 -0.000233615)
(0.00712083 0 -0.000265969)
(0.00775992 0 -0.000297406)
(0.00833511 0 -0.000327957)
(0.00885414 0 -0.000357487)
(0.00932386 0 -0.000385664)
(0.00975038 0 -0.000411923)
(0.0101392 0 -0.000435414)
(0.0104953 0 -0.000454928)
(0.0108234 0 -0.000468812)
(0.0111281 0 -0.000474868)
(0.0114141 0 -0.000470232)
(0.0116869 0 -0.000451253)
(0.0119529 0 -0.000413389)
(0.0122202 0 -0.000351148)
(0.0124992 0 -0.000258158)
(0.0128034 0 -0.00012744)
(0.0131497 0 4.78936e-05)
(0.0135583 0 0.000273223)
(0.0140508 0 0.000549918)
(0.0146444 0 0.000871233)
(0.0153406 0 0.00121627)
(0.0160999 0 0.0015425)
(0.0168016 0 0.00177951)
(0.0177516 0 0.00208507)
(0 0 0)
(0.0013594 0 -5.49503e-05)
(0.002605 0 -0.000106089)
(0.00371406 0 -0.000153098)
(0.00470281 0 -0.000197023)
(0.00558555 0 -0.000238671)
(0.00637491 0 -0.000278646)
(0.00708205 0 -0.00031737)
(0.00771689 0 -0.000355101)
(0.00828831 0 -0.000391927)
(0.00880428 0 -0.000427762)
(0.00927206 0 -0.000462324)
(0.00969837 0 -0.000495096)
(0.0100896 0 -0.00052529)
(0.0104519 0 -0.00055178)
(0.0107918 0 -0.000573038)
(0.0111161 0 -0.00058705)
(0.011433 0 -0.000591236)
(0.0117519 0 -0.000582363)
(0.0120847 0 -0.000556501)
(0.0124463 0 -0.000509029)
(0.0128553 0 -0.000434785)
(0.0133345 0 -0.000328413)
(0.0139104 0 -0.000185111)
(0.014611 0 -2.00074e-06)
(0.0154602 0 0.000219632)
(0.0164662 0 0.000471065)
(0.0176007 0 0.00073203)
(0.0187646 0 0.000967157)
(0.019743 0 0.00112616)
(0.021066 0 0.00132003)
(0 0 0)
(0.00135143 0 -6.35673e-05)
(0.00258965 0 -0.000122733)
(0.00369195 0 -0.000177131)
(0.00467438 0 -0.00022798)
(0.00555115 0 -0.000276224)
(0.00633479 0 -0.000322577)
(0.00703645 0 -0.000367558)
(0.00766609 0 -0.000411506)
(0.00823268 0 -0.000454587)
(0.00874441 0 -0.000496793)
(0.00920887 0 -0.000537928)
(0.00963327 0 -0.000577583)
(0.0100247 0 -0.000615108)
(0.0103904 0 -0.000649571)
(0.0107382 0 -0.000679712)
(0.0110768 0 -0.000703904)
(0.0114168 0 -0.0007201)
(0.0117706 0 -0.000725819)
(0.0121542 0 -0.000718151)
(0.0125871 0 -0.000693833)
(0.0130935 0 -0.000649443)
(0.013702 0 -0.00058175)
(0.0144451 0 -0.000488341)
(0.0153546 0 -0.000368668)
(0.0164539 0 -0.000225565)
(0.0177422 0 -6.7207e-05)
(0.019168 0 9.09652e-05)
(0.0205897 0 0.000225712)
(0.0217314 0 0.00030939)
(0.023274 0 0.000396543)
(0 0 0)
(0.0013424 0 -7.1911e-05)
(0.00257223 0 -0.000138848)
(0.00366683 0 -0.000200403)
(0.00464205 0 -0.000257958)
(0.00551196 0 -0.000312595)
(0.006289 0 -0.000365141)
(0.00698426 0 -0.000416215)
(0.00760769 0 -0.000466246)
(0.00816833 0 -0.000515494)
(0.00867448 0 -0.000564052)
(0.00913397 0 -0.00061184)
(0.00955434 0 -0.000658603)
(0.00994318 0 -0.000703891)
(0.0103084 0 -0.000747046)
(0.0106587 0 -0.000787187)
(0.0110039 0 -0.000823204)
(0.0113559 0 -0.000853762)
(0.011729 0 -0.000877336)
(0.0121408 0 -0.000892276)
(0.012613 0 -0.000896935)
(0.0131718 0 -0.000889869)
(0.0138478 0 -0.000870118)
(0.0146745 0 -0.000837581)
(0.0156839 0 -0.000793539)
(0.0168973 0 -0.000741194)
(0.0183082 0 -0.000686109)
(0.0198539 0 -0.000636161)
(0.0213752 0 -0.000600213)
(0.0225734 0 -0.000584062)
(0.0241827 0 -0.0005867)
(0 0 0)
(0.00133236 0 -7.99355e-05)
(0.00255285 0 -0.000154346)
(0.00363884 0 -0.00022278)
(0.004606 0 -0.000286783)
(0.00546821 0 -0.000347565)
(0.0062378 0 -0.00040607)
(0.00692576 0 -0.000463016)
(0.00754198 0 -0.000518932)
(0.0080955 0 -0.000574178)
(0.00859465 0 -0.000628962)
(0.00904736 0 -0.000683348)
(0.00946133 0 -0.000737257)
(0.00984435 0 -0.00079048)
(0.0102046 0 -0.00084268)
(0.010551 0 -0.000893408)
(0.0108939 0 -0.00094214)
(0.0112452 0 -0.000988319)
(0.0116193 0 -0.00103144)
(0.0120335 0 -0.00107118)
(0.0125087 0 -0.0011075)
(0.0130696 0 -0.00114089)
(0.0137442 0 -0.00117252)
(0.0145629 0 -0.00120428)
(0.0155537 0 -0.00123874)
(0.0167346 0 -0.00127868)
(0.0180982 0 -0.001326)
(0.0195859 0 -0.00138)
(0.0210487 0 -0.00143502)
(0.0222043 0 -0.00147738)
(0.023741 0 -0.00155468)
(0 0 0)
(0.00132137 0 -8.75971e-05)
(0.00253161 0 -0.00016914)
(0.00360816 0 -0.000244138)
(0.00456644 0 -0.000314286)
(0.00542017 0 -0.000380924)
(0.0061815 0 -0.000445104)
(0.0068613 0 -0.000507646)
(0.00746935 0 -0.000569176)
(0.0080146 0 -0.000630163)
(0.00850535 0 -0.000690936)
(0.00894945 0 -0.000751708)
(0.00935457 0 -0.000812591)
(0.00972841 0 -0.000873626)
(0.010079 0 -0.000934804)
(0.0104151 0 -0.000996116)
(0.0107464 0 -0.00105761)
(0.011084 0 -0.00111947)
(0.0114408 0 -0.00118216)
(0.0118319 0 -0.0012465)
(0.0122749 0 -0.00131392)
(0.0127896 0 -0.00138651)
(0.0133977 0 -0.00146717)
(0.0141221 0 -0.00155936)
(0.0149832 0 -0.00166655)
(0.0159941 0 -0.00179093)
(0.0171504 0 -0.00193099)
(0.0184105 0 -0.00207824)
(0.019663 0 -0.00221386)
(0.0206808 0 -0.00230723)
(0.022028 0 -0.00244097)
(0 0 0)
(0.00130949 0 -9.4855e-05)
(0.00250863 0 -0.000183152)
(0.00357494 0 -0.000264358)
(0.00452361 0 -0.000340313)
(0.00536813 0 -0.000412474)
(0.00612047 0 -0.000481999)
(0.00679131 0 -0.000549803)
(0.0073903 0 -0.000616612)
(0.00792623 0 -0.000682995)
(0.00840723 0 -0.000749402)
(0.00884099 0 -0.000816191)
(0.00923493 0 -0.000883659)
(0.00959643 0 -0.000952082)
(0.00993305 0 -0.00102175)
(0.0102527 0 -0.00109306)
(0.010564 0 -0.00116654)
(0.0108763 0 -0.00124301)
(0.0111999 0 -0.00132367)
(0.0115462 0 -0.00141027)
(0.0119275 0 -0.00150527)
(0.0123565 0 -0.0016119)
(0.012846 0 -0.00173421)
(0.013408 0 -0.00187667)
(0.014052 0 -0.00204342)
(0.0147836 0 -0.00223649)
(0.0156007 0 -0.00245252)
(0.0164858 0 -0.00267796)
(0.0173853 0 -0.00288382)
(0.0181651 0 -0.00302419)
(0.0192163 0 -0.00320418)
(0 0 0)
(0.00129675 0 -0.000101672)
(0.00248401 0 -0.00019631)
(0.00353937 0 -0.000283337)
(0.00447775 0 -0.000364724)
(0.0053124 0 -0.000442039)
(0.00605509 0 -0.000516536)
(0.00671628 0 -0.00058922)
(0.00730543 0 -0.000660904)
(0.00783109 0 -0.000732256)
(0.00830119 0 -0.000803833)
(0.00872309 0 -0.000876125)
(0.00910385 0 -0.000949589)
(0.00945031 0 -0.0010247)
(0.00976925 0 -0.001102)
(0.0100675 0 -0.00118219)
(0.0103521 0 -0.00126616)
(0.01063 0 -0.00135518)
(0.0109085 0 -0.00145095)
(0.0111944 0 -0.00155574)
(0.0114938 0 -0.00167254)
(0.0118116 0 -0.00180511)
(0.0121503 0 -0.00195791)
(0.0125098 0 -0.00213576)
(0.0128865 0 -0.00234312)
(0.0132745 0 -0.00258245)
(0.0136689 0 -0.00285094)
(0.0140708 0 -0.00313484)
(0.0144888 0 -0.00340077)
(0.0149145 0 -0.00358892)
(0.0155547 0 -0.00381214)
(0 0 0)
(0.00128322 0 -0.000108016)
(0.00245787 0 -0.000208549)
(0.00350159 0 -0.000300981)
(0.00442908 0 -0.000387398)
(0.0052533 0 -0.000469467)
(0.00598577 0 -0.000548526)
(0.00663673 0 -0.000625661)
(0.00721539 0 -0.000701765)
(0.00773004 0 -0.000777586)
(0.00818829 0 -0.000853776)
(0.00859715 0 -0.000930929)
(0.00896316 0 -0.00100963)
(0.00929252 0 -0.0010905)
(0.00959109 0 -0.00117426)
(0.00986444 0 -0.00126181)
(0.0101178 0 -0.00135426)
(0.0103557 0 -0.00145309)
(0.0105821 0 -0.0015602)
(0.0107994 0 -0.00167799)
(0.011008 0 -0.00180947)
(0.0112051 0 -0.00195821)
(0.0113842 0 -0.0021283)
(0.0115339 0 -0.00232401)
(0.0116379 0 -0.00254934)
(0.011677 0 -0.00280706)
(0.0116355 0 -0.00309673)
(0.0115153 0 -0.00341028)
(0.0113629 0 -0.0037213)
(0.0112987 0 -0.00396387)
(0.0113346 0 -0.00424015)
(0 0 0)
(0.00126894 0 -0.000113858)
(0.00243029 0 -0.000219818)
(0.00346179 0 -0.000317215)
(0.00437785 0 -0.000408236)
(0.00519115 0 -0.000494631)
(0.00591295 0 -0.000577813)
(0.00655322 0 -0.000658936)
(0.00712089 0 -0.000738958)
(0.00762398 0 -0.000818693)
(0.00806972 0 -0.000898862)
(0.00846472 0 -0.000980137)
(0.00881498 0 -0.00106319)
(0.00912597 0 -0.00114872)
(0.00940261 0 -0.00123756)
(0.00964918 0 -0.00133068)
(0.0098692 0 -0.00142926)
(0.0100651 0 -0.00153479)
(0.0102377 0 -0.00164906)
(0.0103859 0 -0.00177426)
(0.0105053 0 -0.00191291)
(0.0105879 0 -0.00206783)
(0.0106205 0 -0.00224192)
(0.0105844 0 -0.0024379)
(0.010455 0 -0.00265797)
(0.0102035 0 -0.00290348)
(0.00980201 0 -0.00317476)
(0.00923776 0 -0.00347103)
(0.0085464 0 -0.00378691)
(0.00790814 0 -0.00408386)
(0.00682914 0 -0.00451141)
(0 0 0)
(0.00125373 0 -0.00011924)
(0.00240103 0 -0.000230179)
(0.00341968 0 -0.00033212)
(0.00432371 0 -0.000427342)
(0.00512558 0 -0.000517656)
(0.00583623 0 -0.000604538)
(0.00646536 0 -0.000689196)
(0.00702161 0 -0.000772637)
(0.00751266 0 -0.000855726)
(0.00794539 0 -0.000939228)
(0.00832595 0 -0.00102386)
(0.0086598 0 -0.00111033)
(0.00895172 0 -0.00119938)
(0.00920573 0 -0.00129185)
(0.00942496 0 -0.00138868)
(0.00961147 0 -0.00149099)
(0.00976586 0 -0.00160007)
(0.00988685 0 -0.00171742)
(0.00997066 0 -0.00184467)
(0.0100103 0 -0.00198355)
(0.00999465 0 -0.00213564)
(0.00990806 0 -0.00230215)
(0.00972984 0 -0.00248338)
(0.00943466 0 -0.00267824)
(0.00899414 0 -0.00288353)
(0.00838064 0 -0.00309269)
(0.00757793 0 -0.00329449)
(0.00660129 0 -0.00346775)
(0.00557814 0 -0.00355719)
(0.00227684 0 -0.00469039)
(0 0 0)
(0.00138225 0 0)
(0.00264882 0 0)
(0.00377692 0 0)
(0.00478331 0 0)
(0.0056826 0 0)
(0.00648754 0 0)
(0.00720918 0 0)
(0.00785712 0 0)
(0.00843951 0 0)
(0.00896318 0 0)
(0.00943355 0 0)
(0.00985461 0 0)
(0.0102287 0 0)
(0.0105563 0 0)
(0.0108357 0 0)
(0.0110627 0 0)
(0.0112298 0 0)
(0.0113259 0 0)
(0.0113357 0 0)
(0.0112389 0 0)
(0.0110109 0 0)
(0.0106226 0 0)
(0.0100427 0 0)
(0.00924196 0 0)
(0.00819953 0 0)
(0.00691599 0 0)
(0.00543438 0 0)
(0.00388044 0 0)
(0.00256129 0 0)
(0 0 0)
(0 0 0)
(0.00138157 0 -9.3441e-06)
(0.00264757 0 -1.80344e-05)
(0.00377516 0 -2.6014e-05)
(0.00478107 0 -3.34577e-05)
(0.00567991 0 -4.04972e-05)
(0.00648443 0 -4.72257e-05)
(0.0072057 0 -5.37007e-05)
(0.00785331 0 -5.99442e-05)
(0.00843546 0 -6.59391e-05)
(0.00895901 0 -7.16236e-05)
(0.00942948 0 -7.6881e-05)
(0.00985093 0 -8.15252e-05)
(0.0102259 0 -8.52812e-05)
(0.0105551 0 -8.77586e-05)
(0.0108371 0 -8.84172e-05)
(0.0110682 0 -8.65248e-05)
(0.0112416 0 -8.11037e-05)
(0.011347 0 -7.08692e-05)
(0.0113702 0 -5.41599e-05)
(0.0112927 0 -2.88642e-05)
(0.0110916 0 7.64568e-06)
(0.0107403 0 5.85658e-05)
(0.0102106 0 0.000127666)
(0.00947662 0 0.0002192)
(0.00852163 0 0.000337632)
(0.0073508 0 0.000486918)
(0.00601209 0 0.000668607)
(0.00463387 0 0.000876386)
(0.00350692 0 0.00107888)
(0.00176814 0 0.00150861)
(0 0 0)
(0.00137964 0 -1.8661e-05)
(0.00264388 0 -3.60179e-05)
(0.00376988 0 -5.19577e-05)
(0.00477432 0 -6.68301e-05)
(0.0056718 0 -8.08991e-05)
(0.00647504 0 -9.43528e-05)
(0.00719516 0 -0.000107309)
(0.00784177 0 -0.000119816)
(0.00842316 0 -0.000131846)
(0.00894633 0 -0.000143285)
(0.009417 0 -0.000153914)
(0.00983956 0 -0.000163381)
(0.010217 0 -0.000171166)
(0.0105507 0 -0.00017653)
(0.0108402 0 -0.000178452)
(0.0110831 0 -0.00017555)
(0.0112745 0 -0.000165986)
(0.0114066 0 -0.000147351)
(0.0114685 0 -0.000116544)
(0.0114461 0 -6.96463e-05)
(0.0113221 0 -1.82254e-06)
(0.0110768 0 9.27285e-05)
(0.0106903 0 0.000220697)
(0.0101458 0 0.000389323)
(0.009437 0 0.000605572)
(0.00857856 0 0.000874227)
(0.00762434 0 0.00119354)
(0.0066939 0 0.00154482)
(0.00601524 0 0.00186618)
(0.00501453 0 0.00242138)
(0 0 0)
(0.00137642 0 -2.7919e-05)
(0.0026377 0 -5.38903e-05)
(0.00376103 0 -7.7746e-05)
(0.00476301 0 -0.000100011)
(0.00565819 0 -0.000121083)
(0.0064593 0 -0.000141248)
(0.00717745 0 -0.000160688)
(0.00782235 0 -0.000179488)
(0.0084024 0 -0.000197619)
(0.00892482 0 -0.000214936)
(0.00939563 0 -0.000231143)
(0.00981972 0 -0.000245762)
(0.0102008 0 -0.000258082)
(0.0105412 0 -0.000267095)
(0.0108421 0 -0.000271413)
(0.0111029 0 -0.000269161)
(0.0113216 0 -0.000257858)
(0.0114943 0 -0.000234271)
(0.0116151 0 -0.00019427)
(0.0116765 0 -0.000132688)
(0.0116694 0 -4.32385e-05)
(0.0115844 0 8.14554e-05)
(0.0114131 0 0.000249593)
(0.0111516 0 0.000469448)
(0.0108053 0 0.000747771)
(0.0103962 0 0.00108654)
(0.00997285 0 0.00147652)
(0.00961838 0 0.00188476)
(0.00945331 0 0.00223045)
(0.00921637 0 0.00275782)
(0 0 0)
(0.00137194 0 -3.70811e-05)
(0.00262911 0 -7.15803e-05)
(0.00374871 0 -0.000103277)
(0.00474725 0 -0.000132871)
(0.00563921 0 -0.000160895)
(0.0064373 0 -0.000187737)
(0.00715266 0 -0.000213652)
(0.00779507 0 -0.000238768)
(0.0083731 0 -0.000263077)
(0.00889421 0 -0.000286424)
(0.00936482 0 -0.000308474)
(0.00979041 0 -0.000328675)
(0.0101755 0 -0.000346203)
(0.0105239 0 -0.000359888)
(0.0108383 0 -0.000368124)
(0.0111207 0 -0.000368757)
(0.0113725 0 -0.000358951)
(0.0115942 0 -0.000335049)
(0.0117862 0 -0.000292425)
(0.0119487 0 -0.000225378)
(0.0120824 0 -0.000127107)
(0.0121895 0 1.01274e-05)
(0.0122746 0 0.000194503)
(0.012347 0 0.000433462)
(0.0124218 0 0.00073145)
(0.012522 0 0.00108581)
(0.0126772 0 0.00147977)
(0.0129131 0 0.00187133)
(0.0132266 0 0.00217788)
(0.013652 0 0.00260071)
(0 0 0)
(0.00136625 0 -4.61062e-05)
(0.00261818 0 -8.90085e-05)
(0.00373302 0 -0.000128436)
(0.00472714 0 -0.000165262)
(0.00561496 0 -0.000200158)
(0.00640913 0 -0.000233615)
(0.00712083 0 -0.000265969)
(0.00775992 0 -0.000297406)
(0.00833511 0 -0.000327957)
(0.00885414 0 -0.000357487)
(0.00932386 0 -0.000385664)
(0.00975038 0 -0.000411923)
(0.0101392 0 -0.000435414)
(0.0104953 0 -0.000454928)
(0.0108234 0 -0.000468812)
(0.0111281 0 -0.000474868)
(0.0114141 0 -0.000470232)
(0.0116869 0 -0.000451253)
(0.0119529 0 -0.000413389)
(0.0122202 0 -0.000351148)
(0.0124992 0 -0.000258158)
(0.0128034 0 -0.00012744)
(0.0131497 0 4.78936e-05)
(0.0135583 0 0.000273223)
(0.0140508 0 0.000549918)
(0.0146444 0 0.000871233)
(0.0153406 0 0.00121627)
(0.0160999 0 0.0015425)
(0.0168016 0 0.00177951)
(0.0177516 0 0.00208507)
(0 0 0)
(0.0013594 0 -5.49503e-05)
(0.002605 0 -0.000106089)
(0.00371406 0 -0.000153098)
(0.00470281 0 -0.000197023)
(0.00558555 0 -0.000238671)
(0.00637491 0 -0.000278646)
(0.00708205 0 -0.00031737)
(0.00771689 0 -0.000355101)
(0.00828831 0 -0.000391927)
(0.00880428 0 -0.000427762)
(0.00927206 0 -0.000462324)
(0.00969837 0 -0.000495096)
(0.0100896 0 -0.00052529)
(0.0104519 0 -0.00055178)
(0.0107918 0 -0.000573038)
(0.0111161 0 -0.00058705)
(0.011433 0 -0.000591236)
(0.0117519 0 -0.000582363)
(0.0120847 0 -0.000556501)
(0.0124463 0 -0.000509029)
(0.0128553 0 -0.000434785)
(0.0133345 0 -0.000328413)
(0.0139104 0 -0.000185111)
(0.014611 0 -2.00074e-06)
(0.0154602 0 0.000219632)
(0.0164662 0 0.000471065)
(0.0176007 0 0.00073203)
(0.0187646 0 0.000967157)
(0.019743 0 0.00112616)
(0.021066 0 0.00132003)
(0 0 0)
(0.00135143 0 -6.35673e-05)
(0.00258965 0 -0.000122733)
(0.00369195 0 -0.000177131)
(0.00467438 0 -0.00022798)
(0.00555115 0 -0.000276224)
(0.00633479 0 -0.000322577)
(0.00703645 0 -0.000367558)
(0.00766609 0 -0.000411506)
(0.00823268 0 -0.000454587)
(0.00874441 0 -0.000496793)
(0.00920887 0 -0.000537928)
(0.00963327 0 -0.000577583)
(0.0100247 0 -0.000615108)
(0.0103904 0 -0.000649571)
(0.0107382 0 -0.000679712)
(0.0110768 0 -0.000703904)
(0.0114168 0 -0.0007201)
(0.0117706 0 -0.000725819)
(0.0121542 0 -0.000718151)
(0.0125871 0 -0.000693833)
(0.0130935 0 -0.000649443)
(0.013702 0 -0.00058175)
(0.0144451 0 -0.000488341)
(0.0153546 0 -0.000368668)
(0.0164539 0 -0.000225565)
(0.0177422 0 -6.7207e-05)
(0.019168 0 9.09652e-05)
(0.0205897 0 0.000225712)
(0.0217314 0 0.00030939)
(0.023274 0 0.000396543)
(0 0 0)
(0.0013424 0 -7.1911e-05)
(0.00257223 0 -0.000138848)
(0.00366683 0 -0.000200403)
(0.00464205 0 -0.000257958)
(0.00551196 0 -0.000312595)
(0.006289 0 -0.000365141)
(0.00698426 0 -0.000416215)
(0.00760769 0 -0.000466246)
(0.00816833 0 -0.000515494)
(0.00867448 0 -0.000564052)
(0.00913397 0 -0.00061184)
(0.00955434 0 -0.000658603)
(0.00994318 0 -0.000703891)
(0.0103084 0 -0.000747046)
(0.0106587 0 -0.000787187)
(0.0110039 0 -0.000823204)
(0.0113559 0 -0.000853762)
(0.011729 0 -0.000877336)
(0.0121408 0 -0.000892276)
(0.012613 0 -0.000896935)
(0.0131718 0 -0.000889869)
(0.0138478 0 -0.000870118)
(0.0146745 0 -0.000837581)
(0.0156839 0 -0.000793539)
(0.0168973 0 -0.000741194)
(0.0183082 0 -0.000686109)
(0.0198539 0 -0.000636161)
(0.0213752 0 -0.000600213)
(0.0225734 0 -0.000584062)
(0.0241827 0 -0.0005867)
(0 0 0)
(0.00133236 0 -7.99355e-05)
(0.00255285 0 -0.000154346)
(0.00363884 0 -0.00022278)
(0.004606 0 -0.000286783)
(0.00546821 0 -0.000347565)
(0.0062378 0 -0.00040607)
(0.00692576 0 -0.000463016)
(0.00754198 0 -0.000518932)
(0.0080955 0 -0.000574178)
(0.00859465 0 -0.000628962)
(0.00904736 0 -0.000683348)
(0.00946133 0 -0.000737257)
(0.00984435 0 -0.00079048)
(0.0102046 0 -0.00084268)
(0.010551 0 -0.000893408)
(0.0108939 0 -0.00094214)
(0.0112452 0 -0.000988319)
(0.0116193 0 -0.00103144)
(0.0120335 0 -0.00107118)
(0.0125087 0 -0.0011075)
(0.0130696 0 -0.00114089)
(0.0137442 0 -0.00117252)
(0.0145629 0 -0.00120428)
(0.0155537 0 -0.00123874)
(0.0167346 0 -0.00127868)
(0.0180982 0 -0.001326)
(0.0195859 0 -0.00138)
(0.0210487 0 -0.00143502)
(0.0222043 0 -0.00147738)
(0.023741 0 -0.00155468)
(0 0 0)
(0.00132137 0 -8.75971e-05)
(0.00253161 0 -0.00016914)
(0.00360816 0 -0.000244138)
(0.00456644 0 -0.000314286)
(0.00542017 0 -0.000380924)
(0.0061815 0 -0.000445104)
(0.0068613 0 -0.000507646)
(0.00746935 0 -0.000569176)
(0.0080146 0 -0.000630163)
(0.00850535 0 -0.000690936)
(0.00894945 0 -0.000751708)
(0.00935457 0 -0.000812591)
(0.00972841 0 -0.000873626)
(0.010079 0 -0.000934804)
(0.0104151 0 -0.000996116)
(0.0107464 0 -0.00105761)
(0.011084 0 -0.00111947)
(0.0114408 0 -0.00118216)
(0.0118319 0 -0.0012465)
(0.0122749 0 -0.00131392)
(0.0127896 0 -0.00138651)
(0.0133977 0 -0.00146717)
(0.0141221 0 -0.00155936)
(0.0149832 0 -0.00166655)
(0.0159941 0 -0.00179093)
(0.0171504 0 -0.00193099)
(0.0184105 0 -0.00207824)
(0.019663 0 -0.00221386)
(0.0206808 0 -0.00230723)
(0.022028 0 -0.00244097)
(0 0 0)
(0.00130949 0 -9.4855e-05)
(0.00250863 0 -0.000183152)
(0.00357494 0 -0.000264358)
(0.00452361 0 -0.000340313)
(0.00536813 0 -0.000412474)
(0.00612047 0 -0.000481999)
(0.00679131 0 -0.000549803)
(0.0073903 0 -0.000616612)
(0.00792623 0 -0.000682995)
(0.00840723 0 -0.000749402)
(0.00884099 0 -0.000816191)
(0.00923493 0 -0.000883659)
(0.00959643 0 -0.000952082)
(0.00993305 0 -0.00102175)
(0.0102527 0 -0.00109306)
(0.010564 0 -0.00116654)
(0.0108763 0 -0.00124301)
(0.0111999 0 -0.00132367)
(0.0115462 0 -0.00141027)
(0.0119275 0 -0.00150527)
(0.0123565 0 -0.0016119)
(0.012846 0 -0.00173421)
(0.013408 0 -0.00187667)
(0.014052 0 -0.00204342)
(0.0147836 0 -0.00223649)
(0.0156007 0 -0.00245252)
(0.0164858 0 -0.00267796)
(0.0173853 0 -0.00288382)
(0.0181651 0 -0.00302419)
(0.0192163 0 -0.00320418)
(0 0 0)
(0.00129675 0 -0.000101672)
(0.00248401 0 -0.00019631)
(0.00353937 0 -0.000283337)
(0.00447775 0 -0.000364724)
(0.0053124 0 -0.000442039)
(0.00605509 0 -0.000516536)
(0.00671628 0 -0.00058922)
(0.00730543 0 -0.000660904)
(0.00783109 0 -0.000732256)
(0.00830119 0 -0.000803833)
(0.00872309 0 -0.000876125)
(0.00910385 0 -0.000949589)
(0.00945031 0 -0.0010247)
(0.00976925 0 -0.001102)
(0.0100675 0 -0.00118219)
(0.0103521 0 -0.00126616)
(0.01063 0 -0.00135518)
(0.0109085 0 -0.00145095)
(0.0111944 0 -0.00155574)
(0.0114938 0 -0.00167254)
(0.0118116 0 -0.00180511)
(0.0121503 0 -0.00195791)
(0.0125098 0 -0.00213576)
(0.0128865 0 -0.00234312)
(0.0132745 0 -0.00258245)
(0.0136689 0 -0.00285094)
(0.0140708 0 -0.00313484)
(0.0144888 0 -0.00340077)
(0.0149145 0 -0.00358892)
(0.0155547 0 -0.00381214)
(0 0 0)
(0.00128322 0 -0.000108016)
(0.00245787 0 -0.000208549)
(0.00350159 0 -0.000300981)
(0.00442908 0 -0.000387398)
(0.0052533 0 -0.000469467)
(0.00598577 0 -0.000548526)
(0.00663673 0 -0.000625661)
(0.00721539 0 -0.000701765)
(0.00773004 0 -0.000777586)
(0.00818829 0 -0.000853776)
(0.00859715 0 -0.000930929)
(0.00896316 0 -0.00100963)
(0.00929252 0 -0.0010905)
(0.00959109 0 -0.00117426)
(0.00986444 0 -0.00126181)
(0.0101178 0 -0.00135426)
(0.0103557 0 -0.00145309)
(0.0105821 0 -0.0015602)
(0.0107994 0 -0.00167799)
(0.011008 0 -0.00180947)
(0.0112051 0 -0.00195821)
(0.0113842 0 -0.0021283)
(0.0115339 0 -0.00232401)
(0.0116379 0 -0.00254934)
(0.011677 0 -0.00280706)
(0.0116355 0 -0.00309673)
(0.0115153 0 -0.00341028)
(0.0113629 0 -0.0037213)
(0.0112987 0 -0.00396387)
(0.0113346 0 -0.00424015)
(0 0 0)
(0.00126894 0 -0.000113858)
(0.00243029 0 -0.000219818)
(0.00346179 0 -0.000317215)
(0.00437785 0 -0.000408236)
(0.00519115 0 -0.000494631)
(0.00591295 0 -0.000577813)
(0.00655322 0 -0.000658936)
(0.00712089 0 -0.000738958)
(0.00762398 0 -0.000818693)
(0.00806972 0 -0.000898862)
(0.00846472 0 -0.000980137)
(0.00881498 0 -0.00106319)
(0.00912597 0 -0.00114872)
(0.00940261 0 -0.00123756)
(0.00964918 0 -0.00133068)
(0.0098692 0 -0.00142926)
(0.0100651 0 -0.00153479)
(0.0102377 0 -0.00164906)
(0.0103859 0 -0.00177426)
(0.0105053 0 -0.00191291)
(0.0105879 0 -0.00206783)
(0.0106205 0 -0.00224192)
(0.0105844 0 -0.0024379)
(0.010455 0 -0.00265797)
(0.0102035 0 -0.00290348)
(0.00980201 0 -0.00317476)
(0.00923776 0 -0.00347103)
(0.0085464 0 -0.00378691)
(0.00790814 0 -0.00408386)
(0.00682914 0 -0.00451141)
(0 0 0)
(0.00125373 0 -0.00011924)
(0.00240103 0 -0.000230179)
(0.00341968 0 -0.00033212)
(0.00432371 0 -0.000427342)
(0.00512558 0 -0.000517656)
(0.00583623 0 -0.000604538)
(0.00646536 0 -0.000689196)
(0.00702161 0 -0.000772637)
(0.00751266 0 -0.000855726)
(0.00794539 0 -0.000939228)
(0.00832595 0 -0.00102386)
(0.0086598 0 -0.00111033)
(0.00895172 0 -0.00119938)
(0.00920573 0 -0.00129185)
(0.00942496 0 -0.00138868)
(0.00961147 0 -0.00149099)
(0.00976586 0 -0.00160007)
(0.00988685 0 -0.00171742)
(0.00997066 0 -0.00184467)
(0.0100103 0 -0.00198355)
(0.00999465 0 -0.00213564)
(0.00990806 0 -0.00230215)
(0.00972984 0 -0.00248338)
(0.00943466 0 -0.00267824)
(0.00899414 0 -0.00288353)
(0.00838064 0 -0.00309269)
(0.00757793 0 -0.00329449)
(0.00660129 0 -0.00346775)
(0.00557814 0 -0.00355719)
(0.00227684 0 -0.00469039)
(0 0 0)
(0.00281569 0 0)
(0.00439108 0 0)
(0.00620969 0 0)
(0.00791545 0 0)
(0.00935867 0 0)
(0.0104995 0 0)
(0.0113506 0 0)
(0.0119468 0 0)
(0.0123291 0 0)
(0.0125369 0 0)
(0.0126043 0 0)
(0.0125594 0 0)
(0.0124242 0 0)
(0.0122149 0 0)
(0.0119434 0 0)
(0.011617 0 0)
(0.0112401 0 0)
(0.0108143 0 0)
(0.0103387 0 0)
(0.00981064 0 0)
(0.00922584 0 0)
(0.00857841 0 0)
(0.00786104 0 0)
(0.00706507 0 0)
(0.00618037 0 0)
(0.00519531 0 0)
(0.00409661 0 0)
(0.00286913 0 0)
(0.00149554 0 0)
(0 0 0)
(0.00170598 0 -0.00163492)
(0.00373865 0 -0.00126216)
(0.00516012 0 -0.00109646)
(0.00681321 0 -0.000899492)
(0.00837298 0 -0.000713716)
(0.00969683 0 -0.000553811)
(0.010744 0 -0.000422775)
(0.0115239 0 -0.000318673)
(0.012067 0 -0.000237741)
(0.0124105 0 -0.000175835)
(0.0125904 0 -0.000129089)
(0.012638 0 -9.41636e-05)
(0.0125794 0 -6.83034e-05)
(0.0124348 0 -4.93064e-05)
(0.0122193 0 -3.54516e-05)
(0.0119437 0 -2.54148e-05)
(0.0116147 0 -1.81907e-05)
(0.0112364 0 -1.30233e-05)
(0.0108097 0 -9.34875e-06)
(0.0103338 0 -6.74983e-06)
(0.00980575 0 -4.91925e-06)
(0.00922116 0 -3.63212e-06)
(0.00857404 0 -2.72462e-06)
(0.00785709 0 -2.07806e-06)
(0.00706157 0 -1.60681e-06)
(0.00617736 0 -1.24944e-06)
(0.00519283 0 -9.61941e-07)
(0.00409468 0 -7.12831e-07)
(0.00286779 0 -4.79279e-07)
(0.00149482 0 -2.44067e-07)
(0 0 0)
(0.00486947 0 -0.00275505)
(0.0062044 0 -0.00226402)
(0.00725623 0 -0.00198409)
(0.00848243 0 -0.00164286)
(0.00965029 0 -0.00131373)
(0.0106466 0 -0.00102588)
(0.0114337 0 -0.000787262)
(0.0120138 0 -0.000596046)
(0.0124073 0 -0.000446379)
(0.012641 0 -0.000331267)
(0.0127417 0 -0.000243941)
(0.0127332 0 -0.000178437)
(0.0126355 0 -0.000129766)
(0.0124641 0 -9.39005e-05)
(0.0122308 0 -6.76702e-05)
(0.0119435 0 -4.86208e-05)
(0.0116073 0 -3.48788e-05)
(0.0112246 0 -2.5029e-05)
(0.0107958 0 -1.80121e-05)
(0.010319 0 -1.30408e-05)
(0.009791 0 -9.53344e-06)
(0.00920703 0 -7.06313e-06)
(0.00856091 0 -5.31802e-06)
(0.00784518 0 -4.07155e-06)
(0.00705105 0 -3.15997e-06)
(0.00616835 0 -2.46549e-06)
(0.00518541 0 -1.90365e-06)
(0.00408895 0 -1.41388e-06)
(0.00286385 0 -9.52194e-07)
(0.0014928 0 -4.85398e-07)
(0 0 0)
(0.00901936 0 -0.00338276)
(0.00960867 0 -0.00287456)
(0.0102026 0 -0.00254269)
(0.0108683 0 -0.00212895)
(0.0114994 0 -0.00172009)
(0.0120344 0 -0.00135541)
(0.0124482 0 -0.00104838)
(0.0127376 0 -0.000799249)
(0.0129113 0 -0.00060225)
(0.0129824 0 -0.000449422)
(0.0129651 0 -0.00033262)
(0.0128727 0 -0.000244434)
(0.0127163 0 -0.00017853)
(0.0125048 0 -0.000129713)
(0.0122445 0 -9.38435e-05)
(0.0119398 0 -6.76841e-05)
(0.0115927 0 -4.87413e-05)
(0.0112038 0 -3.51175e-05)
(0.0107717 0 -2.5382e-05)
(0.0102938 0 -1.84648e-05)
(0.00976611 0 -1.35711e-05)
(0.00918329 0 -1.01144e-05)
(0.0085389 0 -7.66412e-06)
(0.00782526 0 -5.90629e-06)
(0.00703346 0 -4.61303e-06)
(0.00615326 0 -3.61984e-06)
(0.00517298 0 -2.80845e-06)
(0.00407934 0 -2.09376e-06)
(0.00285725 0 -1.41387e-06)
(0.00148941 0 -7.21939e-07)
(0 0 0)
(0.0134515 0 -0.00354394)
(0.0133615 0 -0.00307785)
(0.0134762 0 -0.00274339)
(0.0135513 0 -0.00232218)
(0.0136033 0 -0.00189765)
(0.0136288 0 -0.00151161)
(0.0136222 0 -0.00118096)
(0.0135793 0 -0.000908609)
(0.0134984 0 -0.000690419)
(0.0133794 0 -0.000519199)
(0.0132233 0 -0.000387005)
(0.0130315 0 -0.000286286)
(0.0128053 0 -0.000210397)
(0.0125459 0 -0.000153766)
(0.0122536 0 -0.000111876)
(0.0119281 0 -8.11401e-05)
(0.0115683 0 -5.87624e-05)
(0.0111721 0 -4.25893e-05)
(0.0107366 0 -3.09807e-05)
(0.0102578 0 -2.26987e-05)
(0.00973082 0 -1.6816e-05)
(0.00914984 0 -1.2643e-05)
(0.008508 0 -9.67002e-06)
(0.00779735 0 -7.52306e-06)
(0.00700884 0 -5.92916e-06)
(0.00613216 0 -4.69033e-06)
(0.0051556 0 -3.66354e-06)
(0.0040659 0 -2.74549e-06)
(0.00284799 0 -1.8608e-06)