/*--------------------------------*- C++ -*----------------------------------*\
| =========                 |                                                 |
| \\      /  F ield         | OpenFOAM: The Open Source CFD Toolbox           |
|  \\    /   O peration     | Version:  dev                                   |
|   \\  /    A nd           | Web:      www.OpenFOAM.org                      |
|    \\/     M anipulation  |                                                 |
\*---------------------------------------------------------------------------*/
FoamFile
{
    version     2.0;
    format      ascii;
    class       surfaceVectorField;
    location    "1.21";
    object      Uf;
}
// * * * * * * * * * * * * * * * * * * * * * * * * * * * * * * * * * * * * * //

dimensions      [0 1 -1 0 0 0 0];

internalField   nonuniform List<vector> 
881
(
(2.17314 -3.07133e-19 0.828343)
(3.53654 0 1.13442)
(3.11025 -2.13035e-19 1.06165)
(4.50654 1.09855e-19 1.39046)
(6.21556 -6.86185e-20 1.97135)
(3.91676 4.39023e-21 1.25292)
(5.46728 1.10343e-19 1.71437)
(3.51981 -2.5377e-19 1.25053)
(4.84863 -1.10209e-19 1.55936)
(4.38234 -1.37373e-20 1.51407)
(7.2168 -7.25148e-20 2.29638)
(8.75707 4.99703e-20 2.87925)
(6.43874 -2.28519e-21 2.02137)
(7.99151 -1.9587e-20 2.56662)
(5.74634 1.36357e-19 1.8315)
(7.25328 -6.83566e-20 2.31343)
(5.18041 1.40903e-19 1.7423)
(6.57904 1.23234e-19 2.13182)
(6.0037 3.41525e-20 2.03244)
(9.56699 1.06781e-19 3.16569)
(10.7885 1.24572e-19 3.6686)
(8.84241 -8.64039e-20 2.86825)
(10.1465 -1.77846e-20 3.36799)
(8.12261 -8.63686e-20 2.61757)
(9.4803 -5.66488e-21 3.10146)
(7.43812 1.54251e-20 2.42421)
(8.81096 1.46454e-20 2.8754)
(6.82302 -1.08383e-19 2.3)
(8.165 1.67692e-21 2.69823)
(6.3052 -2.61445e-20 2.25156)
(7.57174 -1.7343e-19 2.57863)
(7.05544 1.21167e-19 2.52117)
(11.3952 0 3.88631)
(12.2915 6.73983e-20 4.27798)
(10.8141 6.48935e-20 3.61464)
(11.8147 -6.69674e-20 4.02118)
(10.2004 9.76434e-20 3.36955)
(11.2923 6.63725e-20 3.7834)
(9.57081 8.69295e-22 3.15583)
(10.7358 3.23181e-20 3.56787)
(8.94706 -6.32088e-20 2.98018)
(10.1599 -9.08187e-20 3.37878)
(8.35469 -3.05762e-20 2.85056)
(9.58349 1.41331e-19 3.22169)
(7.81864 2.90221e-20 2.77323)
(9.02858 1.24582e-21 3.10276)
(7.35573 1.30362e-19 2.7484)
(8.51664 1.32646e-19 3.0265)
(8.06265 1.04346e-19 2.99278)
(12.7303 1.97907e-21 4.42428)
(13.3411 1.38894e-19 4.69757)
(12.3152 -6.84818e-20 4.20105)
(13.0296 6.24512e-20 4.49805)
(11.8527 0 3.992)
(12.6662 -1.90031e-19 4.30789)
(11.3521 -5.89928e-20 3.79962)
(12.2575 6.15462e-20 4.12916)
(10.8253 1.12896e-19 3.62699)
(11.8114 -6.02958e-20 3.96381)
(10.2875 1.75844e-19 3.47833)
(11.3381 1.1919e-19 3.81441)
(9.75713 1.04941e-19 3.35878)
(10.8508 -1.0556e-19 3.68442)
(9.25365 1.07685e-19 3.27303)
(10.3654 1.06571e-19 3.57789)
(8.79362 1.20703e-21 3.22293)
(9.89867 -9.61023e-20 3.49832)
(9.46485 -9.06276e-20 3.44681)
(13.6529 2.0314e-19 4.77922)
(14.0323 4.42758e-21 4.94213)
(13.396 -5.65856e-20 4.61304)
(13.8669 7.06809e-20 4.80209)
(13.0891 -1.32611e-19 4.45317)
(13.6521 -7.03143e-20 4.66541)
(12.7374 6.2902e-20 4.30115)
(13.3912 6.32354e-20 4.53365)
(12.3472 -5.79989e-20 4.15836)
(13.0885 1.13404e-19 4.40781)
(11.9265 -1.64967e-19 4.02655)
(12.7492 1.02338e-19 4.28882)
(11.4858 -1.0743e-19 3.90821)
(12.38 -1.08459e-19 4.17797)
(11.0381 -9.62192e-20 3.80651)
(11.9901 4.74617e-20 4.07718)
(10.598 -1.8935e-19 3.72458)
(11.5906 -1.45378e-19 3.98889)
(10.179 -1.52175e-20 3.66417)
(11.1937 -1.33593e-19 3.91541)
(9.79146 1.13146e-19 3.62426)
(10.8113 1.5577e-19 3.85779)
(10.4522 -7.11425e-20 3.81486)
(14.2538 -1.334e-19 4.96978)
(14.4578 2.06972e-19 5.03874)
(14.1328 5.99801e-20 4.85984)
(14.4107 -1.99799e-19 4.95304)
(13.9664 1.27775e-19 4.75165)
(14.3218 1.26143e-19 4.86754)
(13.757 1.14037e-19 4.64625)
(14.1922 -1.20894e-19 4.78342)
(13.5076 2.78399e-19 4.54419)
(14.0237 6.10278e-20 4.70121)
(13.2221 1.64918e-19 4.44591)
(13.8186 -9.71867e-20 4.62105)
(12.9059 4.72773e-20 4.3521)
(13.5801 1.5065e-21 4.54298)
(12.5658 1.06604e-21 4.264)
(13.3125 -1.3847e-19 4.46734)
(12.211 -8.92248e-20 4.18331)
(13.0217 4.2874e-20 4.39491)
(11.8515 3.62048e-20 4.11184)
(12.7152 3.88822e-20 4.32687)
(11.4981 -2.7426e-20 4.05073)
(12.4017 4.08868e-20 4.26441)
(11.1597 -1.37395e-19 3.99955)
(12.0902 -7.61152e-20 4.20812)
(11.7882 3.08072e-20 4.15731)
(14.6186 1.47819e-19 5.02418)
(14.698 4.24944e-19 5.01916)
(14.6053 -1.39049e-19 4.96366)
(14.7399 -8.48407e-21 4.97841)
(14.5551 -1.23719e-19 4.90282)
(14.7497 -6.84668e-20 4.9368)
(14.4685 -1.79351e-19 4.84233)
(14.7272 -6.43451e-20 4.89518)
(14.3465 -3.21388e-19 4.78232)
(14.6728 -1.13558e-19 4.85376)
(14.1905 -2.67411e-19 4.72253)
(14.587 -2.18324e-19 4.81229)
(14.0028 -1.86353e-19 4.66264)
(14.4708 9.93571e-20 4.77018)
(13.7864 -9.93359e-20 4.60253)
(14.3257 -1.00107e-19 4.72684)
(13.5458 1.74149e-19 4.54244)
(14.1542 9.32502e-20 4.68184)
(13.2868 4.38014e-20 4.483)
(13.96 6.56926e-21 4.6351)
(13.0166 -6.42051e-21 4.42493)
(13.7477 1.06065e-19 4.58682)
(12.7424 9.45451e-20 4.36867)
(13.5233 -1.01214e-19 4.53733)
(12.4714 9.21985e-21 4.31379)
(13.2927 3.15076e-20 4.48665)
(12.2088 -1.43181e-19 4.25856)
(13.0618 -1.3335e-19 4.43415)
(12.8347 -1.11812e-19 4.37823)
(14.8207 2.74085e-19 4.97349)
(14.8175 1.8631e-19 4.91423)
(14.8868 6.55728e-20 4.9524)
(14.9217 2.66871e-19 4.90751)
(14.9258 -7.14976e-21 4.93066)
(15.0035 -6.76243e-20 4.90016)
(14.9372 4.25298e-21 4.90865)
(15.0624 6.30927e-20 4.89277)
(14.9207 -5.37112e-21 4.88622)
(15.0978 -3.28315e-21 4.88537)
(14.8765 1.51684e-19 4.86279)
(15.1094 1.06385e-19 4.87751)
(14.8049 1.92367e-19 4.83751)
(15.0969 2.95257e-19 4.86833)
(14.7067 9.36848e-20 4.80947)
(15.0603 9.26125e-20 4.85676)
(14.5834 -7.70894e-20 4.7779)
(15.0002 1.68182e-19 4.84168)
(14.4377 6.85148e-20 4.74232)
(14.9176 -8.45598e-20 4.82211)
(14.2729 1.29257e-20 4.70253)
(14.8143 2.31938e-21 4.79735)
(14.0935 -1.68056e-19 4.6585)
(14.693 -1.38184e-19 4.76693)
(13.9043 -1.11569e-19 4.6101)
(14.5572 2.30452e-20 4.73055)
(13.71 -1.01553e-19 4.55688)
(14.4106 -8.56979e-20 4.6879)
(13.5142 -7.30861e-20 4.4979)
(14.2567 -2.08e-20 4.63848)
(14.0983 -5.35841e-20 4.58162)
(14.9183 1.77066e-19 4.84683)
(14.864 7.63286e-21 4.75033)
(15.0389 1.37493e-19 4.85449)
(15.0086 2.34114e-19 4.76726)
(15.1416 1.59245e-21 4.86209)
(15.1395 -6.4378e-20 4.78433)
(15.2257 5.67832e-20 4.86985)
(15.2559 -5.64237e-20 4.80199)
(15.2904 1.09267e-19 4.8775)
(15.3572 5.63237e-20 4.82019)
(15.3352 2.49853e-19 4.88431)
(15.4426 3.00499e-21 4.83844)
(15.3594 1.97147e-19 4.88923)
(15.5115 1.98566e-19 4.85583)
(15.3626 1.67561e-19 4.89095)
(15.5631 -9.29899e-20 4.87113)
(15.3448 1.65696e-19 4.88817)
(15.5968 8.02527e-21 4.88293)
(15.3064 -1.54262e-19 4.87967)
(15.6124 1.49318e-19 4.88977)
(15.2483 -1.50147e-19 4.86446)
(15.6098 -2.2318e-19 4.89032)
(15.1722 5.49066e-20 4.84183)
(15.5895 1.28356e-19 4.88349)
(15.0805 5.14321e-20 4.81128)
(15.5527 5.36488e-20 4.86841)
(14.9757 -4.022e-21 4.77249)
(15.5008 -4.05299e-21 4.84452)
(14.8605 0 4.72525)
(15.4357 0 4.81148)
(14.7366 7.3168e-20 4.66955)
(15.3591 0 4.76923)
(14.6054 6.08109e-20 4.60588)
(15.272 -4.30299e-20 4.71813)
(15.1754 -3.57894e-21 4.65924)
(14.9531 6.12656e-20 4.66829)
(14.8691 -3.53256e-20 4.54755)
(15.1085 3.33641e-20 4.69513)
(15.0383 -9.44033e-20 4.57962)
(15.2537 -1.24175e-19 4.72274)
(15.2004 1.27487e-19 4.61255)
(15.3881 -5.93536e-20 4.75129)
(15.3549 -7.91194e-23 4.64676)
(15.5111 -5.17678e-20 4.78053)
(15.5014 -1.08207e-19 4.68225)
(15.6217 -5.4112e-20 4.80977)
(15.639 1.55303e-19 4.71861)
(15.7191 -9.35995e-20 4.83795)
(15.7673 -1.96311e-19 4.75504)
(15.8025 -2.594e-19 4.86369)
(15.8852 1.9312e-21 4.79036)
(15.871 -1.1924e-20 4.88546)
(15.9918 -1.69341e-19 4.82314)
(15.9239 8.6274e-20 4.9017)
(16.0863 1.59547e-19 4.85177)
(15.9607 5.60968e-20 4.91094)
(16.1676 -7.36801e-20 4.87468)
(15.9812 1.28461e-19 4.91195)
(16.2352 6.68528e-20 4.89036)
(15.9858 -2.36273e-21 4.90379)
(16.2884 -5.84851e-20 4.89757)
(15.975 0 4.88586)
(16.3272 0 4.89538)
(15.9499 0 4.85797)
(16.3517 -4.43548e-20 4.88327)
(15.9112 -1.18617e-19 4.82043)
(16.3622 5.82204e-20 4.86117)
(15.8598 -1.10126e-19 4.7742)
(16.3589 -3.32593e-20 4.82963)
(15.7962 5.12847e-23 4.72108)
(16.3423 4.40239e-20 4.78994)
(16.3125 -4.6783e-20 4.74425)
(14.9526 -1.93809e-19 4.45571)
(14.8523 -3.0854e-19 4.31967)
(15.1287 -2.55153e-21 4.49423)
(15.0354 3.88283e-20 4.36065)
(15.3005 2.57493e-19 4.53412)
(15.2162 1.98588e-19 4.40287)
(15.4675 -4.79576e-20 4.57562)
(15.3943 3.0315e-21 4.44679)
(15.6293 9.87483e-20 4.61858)
(15.5697 -5.50694e-20 4.49254)
(15.7854 1.67216e-20 4.66247)
(15.7419 2.13655e-19 4.53987)
(15.9349 -1.02555e-19 4.70638)
(15.9105 -1.99882e-19 4.58816)
(16.077 9.76437e-20 4.74907)
(16.0748 -7.88633e-20 4.63643)
(16.2107 0 4.78905)
(16.234 8.67125e-20 4.68342)
(16.3348 0 4.82469)
(16.3869 -1.52803e-19 4.72763)
(16.4482 -6.53822e-20 4.85437)
(16.5326 7.35786e-20 4.76747)
(16.5498 -1.22977e-19 4.87659)
(16.6696 5.71914e-20 4.80136)
(16.6386 -5.74579e-20 4.8901)
(16.7969 -1.18233e-19 4.82786)
(16.714 -4.46915e-20 4.89402)
(16.9132 5.14948e-20 4.84582)
(16.7754 1.34895e-20 4.88795)
(17.0175 -2.78639e-21 4.85447)
(16.8225 1.47946e-19 4.87206)
(17.109 2.15528e-20 4.85358)
(16.8551 1.23893e-19 4.84725)
(17.1871 7.01642e-20 4.84353)
(16.8734 -2.508e-21 4.81519)
(17.2513 2.49293e-20 4.82542)
(16.8777 -5.30292e-20 4.77836)
(17.3013 -5.76742e-21 4.80114)
(17.3388 -1.55618e-20 4.77339)
(14.9331 -7.72358e-20 4.22099)
(14.8241 -2.82116e-19 4.0754)
(15.121 2.41674e-19 4.26591)
(15.0147 2.42846e-19 4.12104)
(15.3083 -5.84458e-20 4.31242)
(15.206 3.13856e-20 4.16798)
(15.4951 -3.07289e-21 4.36084)
(15.398 -2.29969e-19 4.21672)
(15.6813 5.7157e-20 4.41121)
(15.5908 1.32778e-20 4.26748)
(15.8665 0 4.46318)
(15.7843 2.12781e-19 4.3202)
(16.0504 -1.78341e-19 4.51608)
(15.9785 -4.9085e-20 4.37447)
(16.2324 -9.373e-20 4.56892)
(16.1729 -3.57542e-19 4.42959)
(16.4116 -6.53008e-20 4.62041)
(16.3671 4.2832e-19 4.48454)
(16.587 -8.18266e-20 4.6691)
(16.5602 -8.25072e-20 4.53808)
(16.7572 1.99999e-19 4.71344)
(16.7512 7.55363e-20 4.58881)
(16.921 6.57384e-20 4.75191)
(16.9389 1.2742e-19 4.63526)
(17.0768 -9.66343e-21 4.78318)
(17.1217 -6.58845e-20 4.67605)
(17.2232 9.5802e-20 4.80618)
(17.2983 8.63171e-22 4.70996)
(17.3588 4.82107e-21 4.82031)
(17.467 4.41434e-20 4.73611)
(17.4824 -5.97126e-20 4.82552)
(17.6265 3.31326e-20 4.75407)
(17.593 -3.11329e-20 4.82242)
(17.7752 8.6882e-21 4.764)
(17.6901 2.20947e-20 4.81236)
(17.9122 -6.81069e-20 4.76672)
(17.7731 3.31927e-20 4.79741)
(18.0365 2.77859e-22 4.76373)
(17.8426 0 4.77905)
(18.148 -1.5872e-20 4.75728)
(18.2691 -9.63103e-21 4.74795)
(14.9036 3.50898e-20 3.97156)
(14.7901 6.21706e-19 3.81991)
(15.0977 3.15417e-20 4.01938)
(14.9844 -2.99616e-19 3.86745)
(15.2937 -1.39125e-19 4.06871)
(15.1812 -2.40992e-19 3.91615)
(15.4918 -2.18411e-19 4.11995)
(15.3808 6.28294e-21 3.96648)
(15.6922 1.68696e-19 4.17323)
(15.5834 1.02213e-20 4.01874)
(15.8949 1.67831e-19 4.22841)
(15.7893 1.6597e-20 4.07298)
(16.0999 -2.26669e-19 4.28506)
(15.9986 1.96441e-19 4.129)
(16.307 1.62121e-19 4.34246)
(16.2112 -3.09891e-19 4.18635)
(16.5155 4.21231e-19 4.39964)
(16.427 4.38578e-19 4.24429)
(16.7249 7.60407e-20 4.45542)
(16.6454 2.67117e-22 4.3019)
(16.9339 0 4.50848)
(16.8659 -7.17636e-20 4.35806)
(17.1414 -3.94467e-21 4.55748)
(17.0874 -6.14804e-20 4.41156)
(17.3459 -5.66223e-20 4.60117)
(17.3086 1.13552e-19 4.4612)
(17.5457 -5.32255e-20 4.63849)
(17.528 -5.56052e-20 4.50587)
(17.7391 7.34024e-20 4.66874)
(17.7442 -4.77817e-20 4.54472)
(17.9246 1.03627e-19 4.6917)
(17.9554 3.75837e-20 4.57724)
(18.1006 -2.82916e-20 4.70771)
(18.16 -4.93167e-20 4.60343)
(18.2658 -9.21225e-20 4.71776)
(18.3565 -8.40566e-20 4.62382)
(18.4193 -4.97424e-20 4.72354)
(18.5436 4.93997e-20 4.6396)
(18.5608 -2.58845e-20 4.72627)
(18.7198 3.1982e-20 4.65262)
(18.9269 -1.34839e-20 4.66377)
(14.8687 2.97799e-19 3.71177)
(14.7525 5.67624e-19 3.5561)
(15.0658 -5.80448e-19 3.76029)
(14.9483 -3.07849e-19 3.60381)
(15.2662 -9.70358e-20 3.81007)
(15.1478 -2.49312e-19 3.65242)
(15.4704 2.40713e-19 3.86151)
(15.3513 1.85765e-19 3.70235)
(15.6786 -1.46114e-19 3.91482)
(15.5592 5.80116e-20 3.75391)
(15.8911 4.21667e-20 3.96999)
(15.7718 -2.07081e-19 3.80725)
(16.1081 1.21502e-19 4.0268)
(15.9893 2.53355e-19 3.8623)
(16.3297 -4.17208e-20 4.08478)
(16.2121 -1.77663e-19 3.91881)
(16.5557 1.51652e-20 4.14326)
(16.4401 9.25621e-20 3.9763)
(16.7857 -1.50135e-19 4.20137)
(16.6733 -7.83982e-20 4.03414)
(17.0189 -1.35081e-19 4.2581)
(16.9113 -1.43592e-19 4.09151)
(17.2546 5.58335e-20 4.31238)
(17.1534 4.16366e-21 4.14752)
(17.4914 1.1786e-19 4.36318)
(17.3987 1.17166e-19 4.20121)
(17.7278 -5.03542e-20 4.40957)
(17.6461 -5.67507e-20 4.25169)
(17.9624 -8.63335e-20 4.45089)
(17.8941 -3.17513e-21 4.29825)
(18.1934 -1.18328e-19 4.48685)
(18.1414 -2.81412e-21 4.34042)
(18.4193 -1.06267e-19 4.51764)
(18.3864 -8.56565e-20 4.37812)
(18.6384 5.9084e-20 4.54398)
(18.6274 -1.44265e-20 4.41175)
(18.8496 1.3425e-19 4.56724)
(18.8633 3.07386e-20 4.44223)
(19.052 4.86308e-20 4.5885)
(19.0914 5.93078e-20 4.4711)
(19.3703 -4.5885e-21 4.49962)
(14.83 -3.51516e-20 3.44399)
(14.7123 -6.88748e-20 3.28561)
(15.0282 3.06357e-20 3.49184)
(14.9083 3.14608e-20 3.33231)
(15.2308 3.16314e-20 3.54064)
(15.1088 -2.37668e-19 3.37963)
(15.438 9.78393e-22 3.59074)
(15.3141 9.61107e-21 3.42795)
(15.6502 9.93791e-22 3.64238)
(15.5246 -9.81251e-20 3.47755)
(15.8678 0 3.69564)
(15.7405 2.09743e-19 3.52861)
(16.0912 -4.4814e-20 3.75043)
(15.9623 2.35489e-19 3.58113)
(16.3206 -4.5477e-20 3.80649)
(16.1903 -4.04467e-19 3.63499)
(16.556 0 3.86338)
(16.4247 3.33486e-19 3.68993)
(16.7974 -7.02834e-20 3.92053)
(16.6656 -1.59419e-19 3.74554)
(17.0444 -3.5502e-21 3.97723)
(16.913 1.34448e-19 3.80129)
(17.2964 6.4903e-20 4.0327)
(17.1665 -3.67922e-21 3.85655)
(17.5527 -5.86748e-20 4.08617)
(17.4255 -7.38738e-21 3.91065)
(17.8121 -9.40517e-21 4.13694)
(17.6894 -5.59845e-20 3.96296)
(18.0733 8.25528e-20 4.18446)
(17.957 -1.22448e-21 4.01292)
(18.335 3.23648e-20 4.22851)
(18.2272 3.04262e-20 4.0602)
(18.5957 7.34543e-21 4.2692)
(18.4989 -3.94494e-20 4.10475)
(18.8539 -4.44938e-20 4.30712)
(18.7706 3.78349e-20 4.1469)
(19.1085 -4.68691e-20 4.34337)
(19.0412 -1.75003e-20 4.18741)
(19.3585 8.40782e-21 4.37903)
(19.3079 -1.70929e-20 4.22757)
(19.6423 1.25298e-20 4.269)
(14.7884 -2.69129e-21 3.1697)
(14.67 7.35932e-21 3.00956)
(14.9867 -2.38127e-19 3.21589)
(14.8654 5.41756e-19 3.05431)
(15.19 -2.65505e-19 3.26275)
(15.0659 -7.59431e-19 3.09949)
(15.3985 -8.98306e-20 3.31059)
(15.2717 2.43142e-19 3.14538)
(15.6126 1.09602e-19 3.35963)
(15.4831 1.63053e-19 3.19226)
(15.8326 4.50886e-19 3.40996)
(15.7005 7.21173e-21 3.24027)
(16.0591 -1.20297e-19 3.46155)
(15.9242 1.94396e-19 3.28943)
(16.2922 -3.077e-20 3.51429)
(16.1546 -4.96589e-19 3.3397)
(16.5322 1.79992e-19 3.56794)
(16.392 5.55063e-19 3.39094)
(16.7792 4.47917e-20 3.62215)
(16.6366 -1.24901e-19 3.44296)
(17.0332 1.37166e-19 3.67646)
(16.8885 7.57725e-20 3.49542)
(17.2938 -7.77688e-20 3.73035)
(17.1476 1.24513e-19 3.54792)
(17.5606 -3.63703e-21 3.78331)
(17.4136 -3.66093e-21 3.60003)
(17.8329 -4.86838e-20 3.83485)
(17.6861 4.90321e-20 3.65132)
(18.1098 -5.53919e-20 3.88461)
(17.9645 -9.57856e-20 3.70146)
(18.3903 -4.19804e-20 3.93246)
(18.2481 3.59434e-20 3.75024)
(18.6733 -9.62951e-21 3.97853)
(18.5359 -9.93647e-20 3.79768)
(18.9577 6.65763e-20 4.02335)
(18.8271 4.21961e-20 3.84411)
(19.2426 1.32276e-20 4.06785)
(19.1208 -9.37551e-21 3.89021)
(19.527 -1.73014e-20 4.1131)
(19.4142 1.12441e-21 3.93704)
(19.7885 1.14627e-20 3.98649)
(14.7448 5.54482e-19 2.88989)
(14.6262 5.99566e-20 2.72867)
(14.9424 3.4613e-20 2.93363)
(14.8206 5.53871e-19 2.77076)
(15.1454 -2.58799e-19 2.97784)
(15.0204 -7.29828e-19 2.81311)
(15.3541 5.04301e-19 3.02277)
(15.2258 4.41607e-19 2.85597)
(15.5687 6.12446e-20 3.06861)
(15.4372 4.80824e-19 2.89958)
(15.7897 -2.59952e-19 3.11544)
(15.655 -3.68868e-19 2.94405)
(16.0174 -1.77374e-19 3.16325)
(15.8793 1.35811e-19 2.98937)
(16.2521 8.28757e-20 3.21199)
(16.1105 -3.57377e-19 3.03555)
(16.4941 2.56104e-19 3.26158)
(16.349 1.77547e-19 3.08258)
(16.7436 -9.71629e-20 3.31181)
(16.595 1.94646e-21 3.13034)
(17.0006 6.17635e-20 3.36243)
(16.8487 -3.10124e-19 3.17865)
(17.2651 2.03176e-19 3.4131)
(17.11 4.00624e-19 3.22728)
(17.5369 4.93544e-20 3.46352)
(17.3791 5.31286e-20 3.27596)
(17.8157 3.54089e-21 3.5134)
(17.6557 9.71059e-20 3.32447)
(18.1009 -4.6266e-21 3.56254)
(17.9395 -9.57986e-20 3.37261)
(18.392 -2.03376e-20 3.61091)
(18.2301 6.99145e-21 3.42031)
(18.6881 -4.88851e-20 3.65872)
(18.527 -2.9513e-20 3.46768)
(18.9887 -3.46631e-20 3.70644)
(18.8296 -1.12111e-20 3.51504)
(19.2932 -2.19505e-20 3.7549)
(19.1376 -5.10418e-20 3.56301)
(19.601 3.0607e-20 3.80511)
(19.4484 -9.47522e-21 3.61249)
(19.8497 -2.40389e-21 3.66544)
(14.6998 4.86495e-20 2.60524)
(14.5817 -2.39003e-19 2.44337)
(14.8962 -2.03071e-19 2.64592)
(14.7745 2.53551e-19 2.48222)
(15.0984 -3.60236e-20 2.68692)
(14.9732 -9.20787e-21 2.52122)
(15.3066 4.16677e-19 2.72843)
(15.1777 -2.11191e-19 2.56057)
(15.521 5.74415e-20 2.77063)
(15.3885 4.30233e-19 2.60046)
(15.742 2.66986e-20 2.81357)
(15.6059 -2.08943e-19 2.64099)
(15.9699 -3.85532e-20 2.85724)
(15.8301 1.89227e-19 2.68217)
(16.2049 -2.71351e-19 2.90166)
(16.0612 -2.75636e-19 2.72402)
(16.4474 -7.97127e-20 2.94681)
(16.2998 -1.59255e-19 2.76656)
(16.6976 -2.10263e-19 2.9926)
(16.546 2.2572e-19 2.80974)
(16.9556 2.32111e-20 3.03888)
(16.8 -4.19365e-19 2.85349)
(17.2216 2.5363e-19 3.08546)
(17.062 2.70777e-19 2.89767)
(17.4954 1.01289e-19 3.13218)
(17.3321 -2.63587e-21 2.94215)
(17.777 -1.01172e-21 3.17889)
(17.6103 -5.5165e-20 2.98681)
(18.0663 -8.58979e-20 3.22554)
(17.8965 -9.22774e-20 3.0316)
(18.3628 -1.79261e-21 3.27219)
(18.1905 4.10836e-20 3.07653)
(18.6662 8.75905e-21 3.31908)
(18.4922 6.58063e-20 3.12177)
(18.9763 -2.72435e-20 3.36665)
(18.8014 -1.31295e-21 3.16764)
(19.2928 -3.88999e-20 3.41564)
(19.1179 0 3.21469)
(19.6157 -3.94467e-20 3.46697)
(19.4397 -2.43268e-20 3.26366)
(19.8583 3.82689e-21 3.31645)
(14.6541 -3.94484e-20 2.31597)
(14.5369 -2.78745e-19 2.15387)
(14.8491 4.58243e-19 2.35311)
(14.7281 2.27042e-19 2.18898)
(15.0501 -1.84649e-19 2.39044)
(14.9252 2.08211e-19 2.22421)
(15.2573 -2.11007e-19 2.42812)
(15.1285 -6.45729e-19 2.25965)
(15.471 1.70467e-19 2.46631)
(15.3383 4.33901e-19 2.29544)
(15.6914 -5.05219e-20 2.50505)
(15.5549 -5.07859e-20 2.33171)
(15.9188 -4.43149e-20 2.54438)
(15.7783 0 2.36854)
(16.1535 -1.62988e-19 2.5843)
(16.0089 -2.21608e-21 2.40589)
(16.3957 1.46238e-19 2.62482)
(16.247 -1.60573e-19 2.44377)
(16.6458 2.44041e-20 2.6659)
(16.4928 3.08771e-19 2.48218)
(16.9038 -1.794e-19 2.70749)
(16.7465 -1.17565e-19 2.52111)
(17.1699 1.33464e-20 2.7495)
(17.0084 -1.20705e-19 2.56052)
(17.4444 -1.62078e-19 2.79186)
(17.2786 -2.7655e-20 2.60034)
(17.7271 -1.48056e-19 2.83452)
(17.5572 -5.50593e-20 2.64055)
(18.0181 3.53836e-20 2.87752)
(17.8443 -8.60546e-20 2.68115)
(18.3173 1.0994e-19 2.92097)
(18.14 1.22241e-19 2.72222)
(18.6247 5.66465e-20 2.96513)
(18.4442 -1.7985e-21 2.76396)
(18.9403 2.65604e-20 3.01041)
(18.7571 -1.14153e-20 2.80668)
(19.2641 1.53481e-20 3.05742)
(19.0787 1.96927e-20 2.85084)
(19.5964 2.34423e-20 3.10697)
(19.4075 7.49782e-21 2.89704)
(19.837 -2.2597e-21 2.94704)
(14.6085 -1.62992e-20 2.02257)
(14.4926 2.31344e-19 1.86032)
(14.8018 -2.92434e-20 2.05574)
(14.6819 -4.79554e-19 1.89131)
(15.0013 -2.46649e-19 2.08903)
(14.8774 6.52085e-21 1.92237)
(15.2072 -6.81255e-21 2.12253)
(15.0793 -2.13486e-19 1.95354)
(15.4198 2.1715e-19 2.15638)
(15.2878 4.01789e-19 1.9849)
(15.6392 0 2.19069)
(15.5032 -1.89383e-19 2.01666)
(15.8658 4.32552e-20 2.22548)
(15.7256 1.63701e-19 2.04887)
(16.0997 3.5994e-21 2.26073)
(15.9553 -1.0071e-19 2.08149)
(16.3413 -3.54327e-21 2.29645)
(16.1926 1.22797e-19 2.11451)
(16.5908 1.71867e-19 2.33266)
(16.4377 7.53861e-20 2.14798)
(16.8484 -5.72051e-20 2.36936)
(16.6909 1.36672e-19 2.18193)
(17.1143 -1.64742e-19 2.40651)
(16.9523 -1.68548e-19 2.21635)
(17.3886 8.27339e-20 2.44412)
(17.2222 5.48466e-20 2.25122)
(17.6716 9.19935e-21 2.48219)
(17.5007 -1.23954e-21 2.28656)
(17.9634 -1.11696e-21 2.52079)
(17.7881 -4.34702e-20 2.32242)
(18.264 1.00846e-20 2.56009)
(18.0846 4.29523e-20 2.35891)
(18.5737 -7.14295e-20 2.60032)
(18.3902 -2.9994e-20 2.39623)
(18.8925 -1.91179e-20 2.64184)
(18.7054 1.60001e-20 2.43466)
(19.2209 1.17555e-20 2.68516)
(19.0303 2.02103e-20 2.47458)
(19.5594 -1.43988e-20 2.73095)
(19.3637 4.66292e-21 2.51646)
(19.8001 -6.20606e-21 2.56183)
(14.5637 -2.28515e-19 1.72452)
(14.4494 2.69896e-19 1.56261)
(14.7552 -4.53643e-19 1.75335)
(14.637 -5.07309e-19 1.58913)
(14.9531 4.5368e-20 1.78224)
(14.8309 2.57529e-19 1.61568)
(15.1576 1.92796e-19 1.81122)
(15.0313 -4.30492e-19 1.64226)
(15.3688 -2.89178e-21 1.84044)
(15.2383 4.19214e-19 1.66896)
(15.587 -2.89361e-20 1.87003)
(15.4524 -1.94504e-19 1.69594)
(15.8125 2.15436e-20 1.90001)
(15.6737 1.90434e-19 1.72326)
(16.0456 1.68806e-20 1.93035)
(15.9023 -1.48599e-19 1.75091)
(16.2863 2.0485e-19 1.96107)
(16.1386 9.20931e-20 1.7789)
(16.535 3.79772e-20 1.99222)
(16.3828 1.84454e-19 1.80728)
(16.792 2.87063e-20 2.02382)
(16.6352 -1.3464e-19 1.83607)
(17.0573 5.22795e-20 2.05588)
(16.8959 1.2403e-19 1.86528)
(17.3314 -3.02169e-20 2.08841)
(17.1653 2.3601e-20 1.89494)
(17.6143 -5.44623e-20 2.12146)
(17.4436 -5.47963e-20 1.92508)
(17.9064 0 2.15513)
(17.7311 0 1.95578)
(18.2078 3.26692e-21 2.18957)
(18.0279 -1.92605e-20 1.98715)
(18.5189 5.86696e-20 2.22501)
(18.3345 -1.23681e-20 2.01938)
(18.84 5.61582e-20 2.26175)
(18.6511 4.50986e-20 2.05271)
(19.1715 1.31069e-20 2.30019)
(18.9783 3.08487e-20 2.08746)
(19.514 1.33052e-20 2.3409)
(19.3151 7.17521e-22 2.12399)
(19.7562 0 2.16369)
(14.5204 9.90196e-22 1.42298)
(14.4084 7.87737e-22 1.2604)
(14.7103 2.06156e-19 1.44717)
(14.5942 -2.27691e-19 1.2821)
(14.9066 -2.15999e-19 1.47139)
(14.7865 6.51621e-19 1.30384)
(15.1097 -2.16569e-19 1.49567)
(14.9854 -6.50357e-19 1.32562)
(15.3195 2.35781e-19 1.52009)
(15.191 3.46406e-19 1.34746)
(15.5365 2.24468e-20 1.54476)
(15.4038 -9.55021e-20 1.36944)
(15.7608 2.29875e-20 1.56972)
(15.6238 2.29352e-20 1.39166)
(15.9927 -7.65418e-20 1.59499)
(15.8513 -2.04566e-20 1.41417)
(16.2324 6.91234e-20 1.6206)
(16.0865 -9.7742e-20 1.43696)
(16.4802 1.39135e-20 1.64656)
(16.3297 9.63338e-20 1.46006)
(16.7363 -4.21643e-20 1.67291)
(16.5812 -9.09545e-20 1.48348)
(17.001 9.6725e-20 1.69967)
(16.8412 3.41953e-20 1.50726)
(17.2746 0 1.72689)
(17.11 0 1.53144)
(17.5574 0 1.75462)
(17.3879 0 1.55608)
(17.8495 -1.93789e-20 1.78297)
(17.6753 0 1.58124)
(18.1515 -3.54978e-20 1.81207)
(17.9724 -8.70578e-22 1.60703)
(18.4635 -2.75456e-20 1.84213)
(18.2796 -3.20643e-20 1.63363)
(18.7862 1.93685e-20 1.8734)
(18.5973 -2.45666e-20 1.66124)
(19.12 1.86892e-20 1.90619)
(18.9262 1.63479e-20 1.6901)
(19.4656 -1.29729e-20 1.94094)
(19.2655 -1.69866e-20 1.7205)
(19.7098 0 1.75353)
(14.48 -2.29024e-19 1.11449)
(14.3702 9.69889e-20 0.953408)
(14.6681 2.10159e-19 1.13366)
(14.5542 -3.29558e-19 0.970018)
(14.8629 2.34521e-19 1.15287)
(14.7449 5.59951e-19 0.986666)
(15.0644 -9.39854e-20 1.17214)
(14.9423 -2.0503e-19 1.00337)
(15.2729 1.57074e-20 1.19148)
(15.1466 1.00329e-19 1.0201)
(15.4886 -9.75986e-20 1.21094)
(15.358 -1.09628e-19 1.03688)
(15.7117 -2.07054e-20 1.23061)
(15.5768 0 1.05381)
(15.9424 -4.0522e-20 1.25056)
(15.8031 5.78773e-20 1.07098)
(16.1811 -7.38496e-20 1.27076)
(16.0372 -7.9009e-20 1.08838)
(16.428 -7.30611e-21 1.29124)
(16.2794 -2.0058e-20 1.10599)
(16.6833 -1.51446e-20 1.31202)
(16.5301 6.47446e-20 1.12385)
(16.9473 -6.44234e-20 1.33314)
(16.7894 -7.97803e-20 1.14199)
(17.2204 0 1.35466)
(17.0576 1.36014e-20 1.16045)
(17.5029 0 1.37663)
(17.3351 4.6155e-20 1.17928)
(17.7951 1.89046e-20 1.39916)
(17.6223 -3.48022e-20 1.19857)
(18.0973 3.28645e-21 1.42236)
(17.9195 1.92862e-20 1.2184)
(18.4102 -2.90468e-20 1.44642)
(18.2271 -1.62039e-20 1.23891)
(18.734 -2.82977e-20 1.47154)
(18.5458 -2.34249e-21 1.26029)
(19.0695 -1.94035e-20 1.49799)
(18.876 -2.6469e-20 1.28275)
(19.4173 -4.04414e-21 1.52618)
(19.2174 -5.20849e-21 1.30658)
(19.6642 4.00804e-21 1.33289)
(14.4423 3.48113e-21 0.805349)
(14.3355 5.96775e-21 0.641176)
(14.6288 9.71814e-21 0.819414)
(14.518 -1.14217e-19 0.652463)
(14.822 1.25473e-19 0.833521)
(14.7071 2.29369e-19 0.663761)
(15.0221 -1.21497e-20 0.847673)
(14.9031 -9.83492e-21 0.675088)
(15.2293 -2.38952e-20 0.861856)
(15.106 -1.08952e-19 0.686435)
(15.4437 -1.17324e-20 0.876109)
(15.3162 -5.53586e-22 0.697813)
(15.6656 7.94831e-20 0.890517)
(15.5337 5.29047e-21 0.709284)
(15.8952 2.14127e-20 0.905125)
(15.7589 1.24879e-19 0.72091)
(16.1329 -2.48715e-20 0.919926)
(15.992 -9.88003e-20 0.732698)
(16.3789 5.23065e-20 0.934919)
(16.2333 1.88379e-20 0.744635)
(16.6334 1.50832e-21 0.950128)
(16.483 4.74675e-20 0.756732)
(16.8968 -1.60442e-21 0.965594)
(16.7416 -3.10369e-20 0.769018)
(17.1694 6.03154e-20 0.981364)
(17.0092 -2.48497e-20 0.781531)
(17.4516 1.21351e-20 0.997494)
(17.2863 7.2483e-20 0.794313)
(17.7437 -3.55141e-20 1.01406)
(17.5732 -3.18717e-20 0.807421)
(18.0461 0 1.03117)
(17.8704 -1.95911e-20 0.820932)
(18.3595 1.10738e-20 1.04897)
(18.1783 -1.47075e-20 0.834954)
(18.6844 2.11559e-22 1.06764)
(18.4976 3.08582e-20 0.849631)
(19.0214 -1.23648e-20 1.08738)
(18.8288 -1.12721e-20 0.86515)
(19.3713 9.5655e-22 1.10858)
(19.172 -2.3014e-21 0.8817)
(19.6203 2.21889e-21 0.900042)
(14.4091 -1.12358e-19 0.481828)
(14.1944 -1.12897e-19 0.322714)
(14.5941 1.03768e-19 0.490214)
(14.375 0 0.32845)
(14.786 9.56993e-20 0.498606)
(14.5623 1.31407e-19 0.334173)
(14.9848 -1.07142e-19 0.507013)
(14.7564 -2.89531e-20 0.3399)
(15.1907 -8.74538e-20 0.51544)
(14.9575 -9.92321e-20 0.345635)
(15.4038 1.67548e-20 0.523917)
(15.1657 3.3007e-20 0.351386)
(15.6245 4.9306e-20 0.53249)
(15.3814 -2.08919e-20 0.357184)
(15.8531 6.25336e-21 0.541184)
(15.6048 5.90201e-20 0.363057)
(16.0898 -5.62939e-20 0.549995)
(15.8361 -5.79036e-20 0.369009)
(16.3348 1.33867e-20 0.558926)
(16.0756 -1.76926e-20 0.375035)
(16.5885 1.55738e-20 0.567991)
(16.3237 3.16294e-20 0.38114)
(16.8512 -5.50393e-20 0.577217)
(16.5806 -1.62222e-20 0.387339)
(17.1233 -1.42533e-20 0.586637)
(16.8467 -3.97022e-20 0.393653)
(17.4051 2.96357e-20 0.596291)
(17.1223 2.57563e-20 0.400105)
(17.697 -1.5605e-20 0.606234)
(17.4078 1.40625e-20 0.40673)
(17.9995 -3.47827e-20 0.616545)
(17.7037 -2.49248e-20 0.413575)
(18.3132 4.35793e-21 0.627338)
(18.0105 -1.11869e-20 0.420713)
(18.6387 1.96546e-20 0.638784)
(18.3289 2.58626e-20 0.428262)
(18.9767 -1.13026e-21 0.651142)
(18.6596 -2.66581e-21 0.43643)
(19.3278 -4.69627e-21 0.665003)
(19.0031 -1.15245e-21 0.44561)
(19.4522 -1.74266e-21 0.457317)
(14.1553 0 0.167661)
(14.338 2.54192e-20 0.170779)
(14.5274 6.97817e-21 0.173885)
(14.7238 -1.92109e-20 0.176987)
(14.9272 2.16295e-20 0.18009)
(15.1379 -4.53576e-21 0.183207)
(15.3561 -1.27543e-20 0.186352)
(15.5822 -4.39283e-21 0.189531)
(15.8163 -1.91235e-20 0.192743)
(16.0589 0 0.195987)
(16.3101 0 0.199266)
(16.5703 0 0.202589)
(16.8398 0 0.205968)
(17.119 1.01241e-20 0.209417)
(17.4084 5.42403e-21 0.212958)
(17.7085 -7.86008e-22 0.216624)
(18.0199 1.03242e-20 0.22047)
(18.3433 3.55643e-21 0.22459)
(18.6798 -2.71875e-21 0.229164)
(19.0306 0 0.234758)
)
;

boundaryField
{
    inlet
    {
        type            calculated;
        value           nonuniform 0();
    }
    outlet
    {
        type            calculated;
        value           nonuniform List<vector> 
15
(
(17.8989 0 4.76907)
(18.6902 -1.95157e-20 4.72713)
(19.2455 -6.96619e-21 4.59911)
(19.6038 -2.25472e-21 4.39737)
(19.8114 2.7254e-20 4.1367)
(19.913 -4.74597e-21 3.83153)
(19.9461 0 3.49411)
(19.9388 7.75455e-21 3.13324)
(19.9095 -1.22541e-20 2.75527)
(19.8692 0 2.36255)
(19.8248 0 1.95944)
(19.7787 0 1.54125)
(19.736 8.11842e-21 1.11997)
(19.6924 -3.44321e-21 0.672657)
(19.3991 0 0.238011)
)
;
    }
    flap
    {
        type            calculated;
        value           nonuniform 0();
    }
    upperWall
    {
        type            calculated;
        value           uniform (0 0 0);
    }
    lowerWall
    {
        type            calculated;
        value           nonuniform 0();
    }
    frontAndBack
    {
        type            empty;
        value           nonuniform 0();
    }
    procBoundary2to1
    {
        type            processor;
        value           nonuniform List<vector> 
17
(
(14.7884 2.53026e-21 4.64165)
(14.7725 -2.68891e-19 4.41798)
(14.7448 -6.53037e-19 4.17709)
(14.7114 3.45293e-20 3.92469)
(14.6748 5.60114e-19 3.66399)
(14.6358 -1.58538e-20 3.39668)
(14.5948 -3.48011e-19 3.12389)
(14.5524 3.42993e-19 2.84639)
(14.5089 -2.70932e-19 2.56468)
(14.465 -2.39632e-19 2.27891)
(14.4213 2.37194e-19 1.98946)
(14.3784 2.48822e-19 1.69572)
(14.337 1.55271e-20 1.39881)
(14.2983 -1.51451e-20 1.09534)
(14.2623 2.37808e-19 0.791301)
(14.2305 -2.32128e-19 0.473429)
(13.9792 0 0.164523)
)
;
    }
    procBoundary2to4
    {
        type            processor;
        value           nonuniform List<vector> 
11
(
(2.46837 -1.60268e-19 0.81805)
(5.26552 1.9238e-20 1.65735)
(8.03788 -6.66719e-20 2.6396)
(10.2725 1.57488e-19 3.50261)
(11.9304 7.14502e-20 4.18084)
(13.0903 6.77477e-20 4.65902)
(13.8556 7.00038e-20 4.94948)
(14.3275 -2.1771e-19 5.07964)
(14.5946 5.36466e-19 5.08302)
(14.728 3.25353e-19 4.99297)
(14.7808 2.26364e-19 4.83842)
)
;
    }
    procBoundary2to5
    {
        type            processor;
        value           nonuniform List<vector> 
34
(
(1.61502 0 0.775144)
(1.57138 -5.48405e-19 0.892832)
(2.06567 -6.12782e-19 0.945151)
(2.84676 -4.07111e-19 1.10739)
(2.70224 -3.37765e-20 1.23026)
(3.28852 -2.8205e-19 1.35089)
(4.05699 -1.36383e-19 1.56469)
(4.75899 4.12609e-21 1.75342)
(5.54511 -1.3831e-19 2.0163)
(5.19611 2.41515e-19 2.06884)
(5.89405 1.19231e-19 2.27261)
(6.62619 2.75879e-20 2.52147)
(6.27634 1.01528e-19 2.56506)
(6.96855 3.32507e-20 2.76724)
(7.67056 -7.18366e-20 2.9949)
(8.38611 8.37288e-20 3.20521)
(9.07237 1.62201e-19 3.42053)
(8.72179 5.28354e-20 3.41232)
(9.43969 6.57163e-20 3.60015)
(10.1209 1.72522e-21 3.7826)
(10.8421 -8.50324e-20 3.95562)