/*--------------------------------*- C++ -*----------------------------------*\
| =========                 |                                                 |
| \\      /  F ield         | OpenFOAM: The Open Source CFD Toolbox           |
|  \\    /   O peration     | Version:  dev                                   |
|   \\  /    A nd           | Web:      www.OpenFOAM.org                      |
|    \\/     M anipulation  |                                                 |
\*---------------------------------------------------------------------------*/
FoamFile
{
    version     2.0;
    format      ascii;
    class       surfaceVectorField;
    location    "1.48";
    object      Uf;
}
// * * * * * * * * * * * * * * * * * * * * * * * * * * * * * * * * * * * * * //

dimensions      [0 1 -1 0 0 0 0];

internalField   nonuniform List<vector> 
881
(
(7.69561 -3.05663e-22 1.53692)
(8.99697 -3.10501e-22 1.88223)
(8.70207 0 1.75411)
(10.0556 0 2.1438)
(10.8535 3.23427e-21 2.38787)
(9.82618 -1.1044e-20 2.01643)
(10.6736 0 2.27346)
(9.59743 2.87184e-21 1.88569)
(10.4946 -1.2858e-20 2.15303)
(10.313 3.48579e-21 2.02681)
(11.5029 3.31978e-21 2.5257)
(11.9674 9.7577e-21 2.66998)
(11.376 -1.5555e-21 2.41794)
(11.8793 2.40992e-21 2.57307)
(11.2451 -1.01307e-20 2.30503)
(11.7876 5.65532e-21 2.47106)
(11.1079 -5.46782e-21 2.18745)
(11.69 -1.1718e-20 2.36408)
(11.5852 3.08111e-21 2.25385)
(12.3608 8.99597e-21 2.72505)
(12.6097 -9.81534e-22 2.80174)
(12.3097 7.06757e-21 2.63495)
(12.5872 -6.61815e-21 2.72166)
(12.2526 1.45448e-21 2.54002)
(12.5591 5.45847e-22 2.63728)
(12.1879 -3.18792e-21 2.44088)
(12.5239 -1.15183e-20 2.54869)
(12.1151 9.92169e-21 2.33882)
(12.4808 5.83075e-21 2.45686)
(12.0343 9.99699e-21 2.23473)
(12.4291 9.37319e-21 2.36254)
(12.3678 7.70261e-22 2.26635)
(12.8447 -1.71448e-20 2.80304)
(12.9586 -7.8999e-21 2.8356)
(12.8464 -1.54179e-20 2.7291)
(12.9802 5.6234e-21 2.77008)
(12.8414 -1.2925e-20 2.65126)
(12.9955 -6.21715e-21 2.7011)
(12.8286 -9.29708e-22 2.57007)
(13.0037 -2.50831e-20 2.62876)
(12.8072 5.18199e-21 2.48632)
(13.0042 1.1973e-20 2.55375)
(12.7761 -1.32716e-23 2.4006)
(12.9956 -1.23306e-20 2.47681)
(12.7343 -6.99684e-21 2.3137)
(12.9768 1.91859e-21 2.39868)
(12.6812 -1.10592e-20 2.22708)
(12.9473 -2.60301e-21 2.32051)
(12.9062 -2.91751e-21 2.24389)
(13.0978 1.63152e-20 2.80458)
(13.1304 -4.88321e-20 2.80862)
(13.134 1.64486e-20 2.74428)
(13.1797 4.56919e-20 2.75502)
(13.1635 -1.74474e-20 2.68105)
(13.2231 2.50371e-20 2.69886)
(13.1855 -1.25729e-20 2.6152)
(13.2598 -2.00241e-20 2.64023)
(13.1993 -6.65524e-21 2.5474)
(13.2893 3.50715e-20 2.57963)
(13.2038 -1.06708e-20 2.47843)
(13.3103 8.47644e-21 2.51785)
(13.198 6.60274e-21 2.40928)
(13.3219 -9.49725e-21 2.45582)
(13.181 5.84728e-21 2.3412)
(13.3234 -8.31389e-21 2.39469)
(13.1523 3.82969e-22 2.27581)
(13.3143 2.80602e-21 2.33567)
(13.2938 -4.29518e-21 2.28032)
(13.2136 -2.04203e-20 2.75942)
(13.199 -9.1762e-20 2.74532)
(13.2707 5.50224e-20 2.71014)
(13.2647 2.23922e-21 2.70132)
(13.3219 2.38889e-20 2.6588)
(13.3252 -2.35931e-20 2.6555)
(13.3664 2.86303e-20 2.60567)
(13.3797 2.38575e-20 2.60807)
(13.4034 5.20268e-20 2.55134)
(13.4278 -1.11836e-20 2.55948)
(13.4321 1.06843e-20 2.49669)
(13.4684 6.29588e-21 2.51043)
(13.4517 -2.53642e-20 2.44284)
(13.5005 -2.84404e-20 2.46186)
(13.4615 -1.21202e-20 2.39095)
(13.5241 -1.6704e-20 2.41503)
(13.4607 -1.79777e-21 2.34218)
(13.5388 2.35868e-20 2.37113)
(13.4492 8.83096e-21 2.29803)
(13.5434 -2.23817e-20 2.33117)
(13.4275 1.3354e-20 2.26046)
(13.5377 1.131e-20 2.29666)
(13.5232 1.74325e-20 2.26957)
(13.2501 -7.04021e-20 2.68664)
(13.2084 -1.89576e-21 2.66065)
(13.3195 -7.90146e-20 2.64624)
(13.2836 -2.89451e-20 2.62452)
(13.3837 -2.49273e-20 2.6045)
(13.354 -6.43971e-20 2.58713)
(13.442 -1.66622e-20 2.56177)
(13.4193 5.70518e-20 2.54883)
(13.4938 -5.91386e-20 2.51864)
(13.4789 -4.9243e-20 2.51015)
(13.5383 -3.3666e-20 2.47583)
(13.5321 3.20089e-21 2.4717)
(13.575 -1.95914e-20 2.43438)
(13.578 -5.00585e-21 2.43415)
(13.6037 1.95243e-20 2.39562)
(13.6166 -2.01246e-20 2.39866)
(13.6238 3.5579e-21 2.36074)
(13.6481 3.89553e-20 2.3668)
(13.6347 -2.10281e-20 2.3307)
(13.6716 -3.3724e-20 2.33966)
(13.6367 1.50979e-20 2.30673)
(13.6866 -2.61764e-21 2.31791)
(13.6308 2.66704e-20 2.29056)
(13.6939 1.11423e-20 2.30276)
(13.6947 -7.3465e-22 2.29583)
(13.2411 4.13995e-20 2.59742)
(13.1834 4.46651e-20 2.56304)
(13.3175 -1.31657e-20 2.56441)
(13.264 0 2.53365)
(13.3893 1.76876e-20 2.53058)
(13.3403 4.67865e-21 2.50336)
(13.456 2.56013e-20 2.49641)
(13.412 -3.51752e-21 2.47264)
(13.5171 1.40756e-20 2.46251)
(13.4788 8.19858e-20 2.44209)
(13.572 3.31597e-20 2.42951)
(13.5402 -8.08829e-21 2.4124)
(13.6202 -5.14987e-21 2.39813)
(13.5956 3.12839e-20 2.3841)
(13.6618 -1.23921e-21 2.36957)
(13.6447 2.05198e-21 2.35784)
(13.6967 2.10594e-21 2.3454)
(13.6877 -1.88161e-20 2.33508)
(13.7246 -1.54756e-20 2.32673)
(13.7249 -9.01207e-22 2.31756)
(13.7454 -7.09557e-21 2.31411)
(13.7558 0 2.30607)
(13.7593 -1.67673e-20 2.30836)
(13.7807 2.28836e-20 2.30094)
(13.7678 -4.26887e-21 2.31089)
(13.7999 -1.0124e-20 2.30287)
(13.7723 1.90462e-20 2.32325)
(13.8143 -7.89093e-21 2.31325)
(13.8263 8.3737e-21 2.33356)
(13.2052 2.86463e-21 2.49786)
(13.1378 9.9882e-20 2.45692)
(13.2858 1.83033e-20 2.47129)
(13.2216 -1.56677e-19 2.43356)
(13.3621 -1.70576e-20 2.44421)
(13.3015 2.62315e-20 2.4095)
(13.434 5.30055e-20 2.41718)
(13.3773 6.17403e-20 2.38529)
(13.5011 6.09535e-20 2.39087)
(13.4488 2.69859e-20 2.36155)
(13.5632 -1.08588e-20 2.36594)
(13.5158 2.97125e-21 2.33898)
(13.6197 3.93448e-20 2.34296)
(13.5779 4.35943e-20 2.31823)
(13.6706 -1.56848e-20 2.32271)
(13.635 2.24591e-20 2.29984)
(13.7159 -2.24114e-20 2.30658)
(13.6867 -6.12738e-20 2.28457)
(13.7562 1.49485e-20 2.29614)
(13.7335 -3.91595e-21 2.27397)
(13.7915 3.05166e-20 2.29227)
(13.7762 -6.57254e-22 2.26963)
(13.8216 3.06758e-20 2.29515)
(13.8149 1.66584e-21 2.27223)
(13.8471 -1.40466e-20 2.3052)
(13.8491 3.17719e-20 2.28164)
(13.8693 -1.92906e-20 2.32355)
(13.8793 -1.42999e-20 2.29813)
(13.8902 -5.25285e-21 2.35144)
(13.9079 -5.32216e-21 2.32298)
(13.9361 0 2.35724)
(13.1529 -5.9493e-20 2.39101)
(13.0794 7.45441e-20 2.34453)
(13.2361 -1.52012e-19 2.37025)
(13.1652 -1.8432e-19 2.32667)
(13.3155 1.06731e-19 2.34913)
(13.2476 1.16433e-19 2.30821)
(13.391 3.56105e-20 2.32827)
(13.3263 -3.36155e-21 2.28973)
(13.4624 -3.22467e-20 2.30832)
(13.4013 -1.75767e-19 2.27185)
(13.5296 5.82536e-20 2.28997)
(13.4723 6.81864e-20 2.25523)
(13.5923 2.66951e-20 2.27386)
(13.5395 2.6017e-20 2.24059)
(13.6505 -2.27142e-20 2.26062)
(13.6026 1.00423e-21 2.22858)
(13.704 -4.32788e-20 2.25109)
(13.6616 2.69675e-20 2.21975)
(13.7533 -2.00351e-20 2.24664)
(13.7162 2.62672e-21 2.21493)
(13.7992 -3.01558e-20 2.24868)
(13.7675 -3.46216e-21 2.21562)
(13.8418 2.53605e-21 2.25781)
(13.8164 -5.00614e-20 2.22322)
(13.8814 3.23609e-20 2.27394)
(13.8626 1.86315e-21 2.23792)
(13.9184 0 2.29727)
(13.906 -3.21026e-20 2.25942)
(13.9541 0 2.32858)
(13.9483 -1.60089e-20 2.28814)
(13.9902 -1.61888e-20 2.36871)
(13.9904 -3.70897e-20 2.32481)
(14.0282 -2.18009e-20 2.41812)
(14.0329 -1.64702e-20 2.36992)
(14.0783 3.01925e-20 2.42397)
(13.0903 -4.88923e-20 2.27847)
(13.013 -1.33168e-19 2.22713)
(13.1754 8.63485e-20 2.26299)
(13.1003 8.3158e-20 2.21429)
(13.2571 5.27662e-21 2.24722)
(13.1844 8.90587e-20 2.20088)
(13.3353 -2.17829e-19 2.23177)
(13.2653 -4.61814e-20 2.18749)
(13.41 -7.70666e-20 2.21728)
(13.343 -1.59175e-19 2.17472)
(13.4812 3.57512e-20 2.20443)
(13.4175 4.88307e-22 2.16322)
(13.5487 0 2.19389)
(13.4886 7.03259e-20 2.15365)
(13.6127 5.1874e-20 2.18633)
(13.5566 0 2.14669)
(13.6731 7.48674e-20 2.18238)
(13.6214 2.65049e-20 2.14303)
(13.73 1.98646e-20 2.18293)
(13.6828 2.60144e-20 2.14322)
(13.7841 -2.30951e-20 2.18922)
(13.7413 2.15946e-20 2.14817)
(13.8361 -5.15188e-20 2.20228)
(13.7982 -2.33136e-20 2.15917)
(13.8866 -6.37961e-20 2.22233)
(13.8538 -7.13328e-20 2.17695)
(13.936 -4.89003e-20 2.24942)
(13.9078 -1.77954e-20 2.20154)
(13.9845 -5.36193e-20 2.28378)
(13.9615 1.28682e-20 2.23326)
(14.0332 -3.77569e-20 2.3256)
(14.0156 -6.50405e-21 2.27226)
(14.0837 3.63198e-20 2.37522)
(14.0701 2.88929e-20 2.3182)
(14.1378 1.94268e-20 2.43323)
(14.1271 3.95009e-20 2.37151)
(14.1889 -4.66689e-21 2.43313)
(13.0215 -1.33902e-21 2.16116)
(12.942 -1.25155e-19 2.10554)
(13.1079 8.5875e-20 2.15044)
(13.03 1.09815e-19 2.09719)
(13.1913 3.87501e-20 2.13946)
(13.1155 -2.32906e-20 2.0883)
(13.2717 1.62658e-20 2.12881)
(13.1982 8.51147e-20 2.07942)
(13.3492 -8.25908e-20 2.11908)
(13.2782 -4.69284e-20 2.07114)
(13.4237 3.45942e-20 2.11092)
(13.3555 -3.68178e-20 2.06407)
(13.4952 7.16465e-20 2.10498)
(13.4301 1.41729e-19 2.05882)
(13.564 -2.65431e-20 2.10194)
(13.5021 -6.90566e-20 2.05604)
(13.63 -2.35408e-20 2.10244)
(13.5716 -5.59895e-20 2.0564)
(13.6935 2.79357e-20 2.10712)
(13.6388 -2.03747e-20 2.06048)
(13.7549 2.21619e-20 2.11688)
(13.7038 5.40843e-20 2.06888)
(13.8148 -4.28841e-20 2.13267)
(13.7678 4.25024e-20 2.08256)
(13.874 -2.48461e-20 2.15506)
(13.8312 -2.38288e-20 2.10242)
(13.9329 4.53015e-20 2.18432)
(13.8937 1.58295e-20 2.12882)
(13.9921 6.18328e-20 2.22066)
(13.9565 4.52181e-20 2.16207)
(14.0521 6.14001e-20 2.26393)
(14.0208 4.69717e-20 2.2023)
(14.1139 3.15719e-20 2.31378)
(14.0864 7.46008e-21 2.24903)
(14.1787 1.51675e-20 2.37062)
(14.154 4.4477e-21 2.30196)
(14.248 2.24262e-20 2.43521)
(14.2258 1.32166e-20 2.36188)
(14.3024 9.03979e-21 2.4295)
(12.9491 -1.52036e-20 2.03972)
(12.8684 -1.24572e-19 1.98033)
(13.0363 0 2.03324)
(12.9569 0 1.97594)
(13.121 2.23681e-20 2.0265)
(13.0433 2.676e-20 1.97101)
(13.2033 2.25449e-20 2.02005)
(13.1274 -4.55522e-20 1.96609)
(13.2831 0 2.01446)
(13.2094 9.27682e-20 1.96171)
(13.3605 7.0054e-20 2.01035)
(13.2891 0 1.95845)
(13.4356 8.593e-22 2.00831)
(13.3667 7.13355e-20 1.95688)
(13.5084 -9.96385e-20 2.00897)
(13.4423 -3.72277e-21 1.9576)
(13.5792 -5.34134e-20 2.01295)
(13.5161 -9.69941e-20 1.96122)
(13.6483 5.32672e-21 2.02079)
(13.5882 -5.24135e-20 1.96827)
(13.716 7.5256e-20 2.03314)
(13.6589 3.23777e-20 1.97922)
(13.7829 6.3185e-20 2.05088)
(13.7291 2.35234e-20 1.9948)
(13.8497 1.72536e-20 2.07481)
(13.7991 3.81903e-20 2.01603)
(13.9167 1.51441e-20 2.10531)
(13.8689 4.07538e-20 2.04357)
(13.9846 2.9801e-20 2.14241)
(13.9397 1.54148e-20 2.07751)
(14.0544 -7.92668e-21 2.18604)
(14.0125 -1.35549e-20 2.1177)
(14.1265 -2.05782e-20 2.236)
(14.0875 -2.28903e-20 2.16418)
(14.2015 2.0677e-21 2.29222)
(14.165 -1.2908e-20 2.2169)
(14.2802 -4.89281e-22 2.3551)
(14.2463 -4.53122e-21 2.27585)
(14.3641 -6.91449e-21 2.42533)
(14.3319 -1.17797e-20 2.34139)
(14.4478 -5.4413e-21 2.41496)
(12.8749 -1.11206e-19 1.91465)
(12.7939 1.33882e-19 1.85198)
(12.9625 2.70145e-20 1.91185)
(12.8825 -1.18542e-19 1.85098)
(13.0483 -4.17506e-20 1.90879)
(12.9694 1.38412e-21 1.84947)
(13.1321 2.41045e-20 1.90597)
(13.0547 2.1486e-21 1.84793)
(13.214 9.44752e-20 1.90395)
(13.1382 -7.15736e-22 1.84688)
(13.2939 0 1.90326)
(13.2201 -2.21908e-20 1.84682)
(13.3721 6.8138e-20 1.90448)
(13.3004 0 1.84831)
(13.4487 8.59418e-22 1.90818)
(13.3792 6.93859e-20 1.85188)
(13.5239 -9.68844e-20 1.91491)
(13.4568 -6.91583e-20 1.85808)
(13.5979 -2.61083e-20 1.92515)
(13.5334 -2.8991e-20 1.86741)
(13.6711 -2.07438e-20 1.93944)
(13.6092 2.63637e-21 1.88034)
(13.744 -2.51124e-21 1.95852)
(13.6848 -2.3773e-20 1.89743)
(13.8171 6.23593e-20 1.98327)
(13.7604 4.32583e-20 1.91949)
(13.8912 4.14999e-20 2.01421)
(13.8364 -1.92986e-20 1.94728)
(13.9668 -2.86187e-20 2.05127)
(13.9143 -3.78002e-20 1.98107)
(14.0448 -2.88082e-20 2.09434)
(13.9946 -2.91302e-20 2.02063)
(14.1256 -1.51696e-20 2.14358)
(14.0771 0 2.0661)
(14.2097 -1.9843e-20 2.19908)
(14.1632 -1.54386e-20 2.11776)
(14.2978 -1.60233e-20 2.26076)
(14.2535 -2.91122e-21 2.17556)
(14.3908 -1.20373e-20 2.32887)
(14.3482 -1.47762e-20 2.2394)
(14.4755 5.94758e-21 2.31042)
(12.8001 1.30897e-19 1.78636)
(12.7194 2.52563e-19 1.72088)
(12.888 -1.46975e-19 1.78668)
(12.8078 -1.21736e-19 1.7227)
(12.9744 4.66061e-20 1.78673)
(12.895 7.97775e-20 1.72403)
(13.0594 -2.3273e-20 1.78698)
(12.981 -5.12745e-21 1.72532)
(13.143 -1.20317e-19 1.78793)
(13.0659 1.81481e-20 1.72702)
(13.2252 -2.26019e-20 1.79008)
(13.1496 -1.5628e-19 1.72961)
(13.3062 0 1.79395)
(13.2322 6.42582e-20 1.73358)
(13.386 0 1.80004)
(13.3138 0 1.7394)
(13.4651 0 1.80887)
(13.3948 0 1.74758)
(13.5435 0 1.82092)
(13.4752 0 1.75859)
(13.6217 0 1.8367)
(13.5554 2.81804e-20 1.77291)
(13.6999 2.21302e-20 1.85682)
(13.6358 2.50933e-20 1.79114)
(13.7786 -3.96516e-20 1.88193)
(13.7165 -2.88956e-21 1.81378)
(13.8587 -1.00626e-19 1.91255)
(13.7981 -6.30909e-20 1.8413)
(13.941 -3.84957e-20 1.94884)
(13.8824 -2.25207e-21 1.87418)
(14.026 0 1.9908)
(13.9693 -1.52198e-20 1.91262)
(14.1142 0 2.03859)
(14.0588 3.76906e-20 1.95663)
(14.2065 1.77042e-21 2.09241)
(14.1522 -1.71546e-20 2.00635)
(14.3035 -1.44104e-21 2.15236)
(14.2504 1.80205e-21 2.06197)
(14.4057 1.46692e-21 2.21846)
(14.3537 2.04797e-20 2.1236)
(14.4922 1.27399e-20 2.1921)
(12.7256 0 1.65522)
(12.6454 -1.60842e-20 1.58736)
(12.8134 1.07475e-19 1.65808)
(12.7334 -1.0066e-19 1.59143)
(12.9002 2.8182e-20 1.66069)
(12.8206 2.2433e-19 1.59505)
(12.9861 3.70304e-20 1.66345)
(12.9072 -1.07387e-19 1.59861)
(13.071 -1.56056e-20 1.66682)
(12.993 9.64182e-20 1.60252)
(13.1551 -7.11288e-20 1.67125)
(13.0782 -1.59502e-19 1.60721)
(13.2385 6.54571e-20 1.6772)
(13.1628 5.00337e-21 1.61311)
(13.3212 0 1.68514)
(13.2469 5.6862e-21 1.62067)
(13.4036 0 1.69554)
(13.3308 7.52058e-20 1.63034)
(13.4858 2.84845e-20 1.70887)
(13.4146 -6.38915e-20 1.64257)
(13.5682 5.41708e-20 1.72563)
(13.4986 9.2632e-20 1.65782)
(13.6511 -6.45862e-24 1.74634)
(13.5833 -3.13304e-21 1.67661)
(13.7351 -2.58928e-20 1.77137)
(13.6689 -7.62037e-20 1.6993)
(13.821 3.69928e-20 1.80112)
(13.756 2.36453e-20 1.72606)
(13.9095 2.18836e-20 1.8361)
(13.8457 3.76603e-20 1.75752)
(14.001 2.24475e-20 1.87661)
(13.9385 -6.6681e-20 1.7944)
(14.096 2.10231e-20 1.92257)
(14.0345 5.6357e-20 1.83671)
(14.1954 -1.74698e-20 1.974)
(14.1346 4.99477e-21 1.88418)
(14.3 2.39734e-20 2.03122)
(14.2397 -1.66298e-20 1.93696)
(14.4105 3.06407e-20 2.09452)
(14.3504 1.18133e-20 1.99546)
(14.4989 -1.1056e-21 2.06073)
(12.6518 -1.17863e-19 1.52154)
(12.5726 -1.69481e-20 1.4517)
(12.7392 1.33126e-20 1.52638)
(12.6599 -1.18172e-19 1.45746)
(12.8262 9.12684e-20 1.53099)
(12.7469 1.18029e-19 1.46282)
(12.9127 -5.00444e-20 1.53572)
(12.8338 7.65958e-20 1.46811)
(12.9988 -4.66372e-20 1.54098)
(12.9204 -2.22677e-19 1.4737)
(13.0845 -8.43114e-20 1.54716)
(13.0068 7.26622e-20 1.47996)
(13.1698 -5.65879e-20 1.55469)
(13.093 -6.28881e-20 1.4873)
(13.2551 8.17064e-20 1.56399)
(13.1793 1.03476e-19 1.4961)
(13.3405 1.20662e-20 1.5755)
(13.2658 -7.06358e-20 1.50677)
(13.4261 -8.87674e-22 1.58965)
(13.3527 7.05877e-20 1.51974)
(13.5124 3.55913e-20 1.60691)
(13.4402 3.34568e-22 1.53543)
(13.5998 -7.99266e-20 1.62766)
(13.5289 -2.91868e-20 1.55424)
(13.6887 -2.71307e-20 1.65215)
(13.619 -5.08331e-20 1.5765)
(13.7797 2.40838e-20 1.68066)
(13.7111 2.4337e-20 1.60233)
(13.8736 -5.15535e-20 1.7139)
(13.8055 1.89594e-20 1.63215)
(13.9709 -3.42734e-20 1.7525)
(13.9033 -1.92881e-20 1.6669)
(14.0722 4.08715e-20 1.79634)
(14.0053 -3.45338e-20 1.70699)
(14.178 6.31746e-21 1.84515)
(14.1117 1.12932e-20 1.75198)
(14.2893 -2.96469e-20 1.89914)
(14.2231 -1.47205e-20 1.80169)
(14.4069 -1.6972e-20 1.95882)
(14.3404 -1.22205e-20 1.85656)
(14.4979 -6.32729e-21 1.91778)
(12.5792 -1.53397e-20 1.38554)
(12.5014 2.54518e-19 1.3141)
(12.6661 -1.50291e-20 1.39183)
(12.5879 -1.38582e-19 1.32101)
(12.7531 1.03722e-19 1.39789)
(12.6746 1.43664e-20 1.32757)
(12.84 -9.51674e-20 1.40406)
(12.7615 2.90921e-20 1.33406)
(12.9269 -1.05645e-19 1.41067)
(12.8487 -7.56033e-20 1.34082)
(13.0139 9.72765e-20 1.4181)
(12.936 9.81771e-20 1.34815)
(13.1011 9.85728e-20 1.42671)
(13.0237 0 1.35642)
(13.1886 -4.99629e-20 1.43689)
(13.1119 8.05867e-20 1.36598)
(13.2766 -1.31772e-20 1.44903)
(13.2007 -1.90596e-19 1.37719)
(13.3654 7.31831e-20 1.46352)
(13.2903 7.37403e-20 1.39042)
(13.4554 -6.58557e-20 1.48074)
(13.381 -8.11335e-22 1.40604)
(13.5468 1.13033e-21 1.50107)
(13.4732 -2.71019e-20 1.42441)
(13.6401 6.74908e-22 1.52474)
(13.5674 5.37327e-20 1.44588)
(13.7357 1.91574e-20 1.55195)
(13.6639 2.21086e-20 1.47067)
(13.8343 5.28765e-20 1.58322)
(13.7629 -2.36931e-20 1.49888)
(13.9367 -1.92296e-20 1.61929)
(13.8651 -1.59706e-21 1.53112)
(14.0436 -6.56461e-20 1.6604)
(13.9722 -3.14752e-20 1.5682)
(14.1556 -1.00085e-20 1.70626)
(14.0844 -1.09844e-20 1.61013)
(14.2733 3.10579e-21 1.75682)
(14.2017 2.81385e-20 1.65654)
(14.3975 -1.39492e-21 1.81249)
(14.3253 -1.2179e-21 1.70756)
(14.491 1.22593e-21 1.76429)
(12.5086 1.35579e-19 1.24745)
(12.4326 4.07948e-19 1.17466)
(12.5949 -1.11369e-19 1.25464)
(12.5182 -1.1169e-19 1.18221)
(12.6816 -6.26279e-20 1.26165)
(12.6044 7.63797e-22 1.18946)
(12.7688 5.12092e-20 1.26875)
(12.6913 -1.4733e-20 1.19667)
(12.8564 1.30685e-19 1.27623)
(12.7788 4.12068e-21 1.2041)
(12.9444 0 1.28442)
(12.8669 0 1.21203)
(13.0331 -2.00214e-20 1.29364)
(12.9557 0 1.22077)
(13.1225 -5.88619e-20 1.30423)
(13.0455 -2.04086e-20 1.23064)
(13.2129 -1.06241e-19 1.31654)
(13.1362 9.01176e-20 1.24194)
(13.3045 -1.00874e-21 1.33091)
(13.2282 -1.09448e-19 1.255)
(13.3976 3.95887e-20 1.34768)
(13.3217 1.26555e-21 1.27016)
(13.4925 2.53804e-20 1.36719)
(13.417 -3.03139e-20 1.28772)
(13.5897 7.6387e-20 1.38972)
(13.5146 2.6744e-20 1.30801)
(13.6896 -2.0986e-20 1.41548)
(13.615 -2.38721e-20 1.33129)
(13.7927 -8.02266e-20 1.44469)
(13.7183 -2.12111e-20 1.3577)
(13.8998 -1.36583e-20 1.47791)
(13.8249 -1.8088e-20 1.38742)
(14.0117 2.4427e-20 1.5157)
(13.9365 6.13578e-22 1.42114)
(14.1292 2.73456e-20 1.55811)
(14.0537 8.41431e-21 1.45942)
(14.2527 2.42593e-20 1.60494)
(14.1764 2.44764e-20 1.50208)
(14.3831 -2.02255e-21 1.65629)
(14.3056 -6.48751e-22 1.54891)
(14.4789 -6.19331e-21 1.60078)
(12.4408 1.6415e-19 1.10722)
(12.3668 1.42068e-19 1.03342)
(12.5263 1.40136e-21 1.11483)
(12.4515 8.28579e-22 1.04115)
(12.6127 5.03983e-20 1.1223)
(12.5371 -1.43813e-20 1.04864)
(12.6999 -6.34139e-20 1.12984)
(12.6237 7.91112e-20 1.0561)
(12.7879 -1.30223e-19 1.13772)
(12.7113 -1.3139e-19 1.06375)
(12.8768 0 1.14621)
(12.7999 0 1.07184)
(12.9667 0 1.15559)
(12.8897 0 1.08062)
(13.0577 1.30683e-19 1.16616)
(12.9806 0 1.09037)
(13.1501 9.06808e-20 1.17821)
(13.073 9.53166e-20 1.10136)
(13.244 -1.09241e-19 1.19206)
(13.1669 5.99384e-20 1.11386)
(13.3398 -7.00932e-20 1.20799)
(13.2628 -1.68831e-19 1.12817)
(13.4378 -3.00006e-20 1.22631)
(13.3608 2.69817e-20 1.14457)
(13.5385 -7.54776e-20 1.24731)
(13.4614 -8.11572e-20 1.16332)
(13.6422 -2.42115e-20 1.27122)
(13.565 -2.3613e-20 1.18474)
(13.7494 4.25899e-20 1.29815)
(13.6721 2.37828e-21 1.209)
(13.8608 -3.75859e-21 1.32838)
(13.7829 2.03237e-20 1.23607)
(13.9771 -1.61116e-20 1.36249)
(13.8985 8.69669e-21 1.26635)
(14.0994 5.0605e-21 1.40088)
(14.0199 2.55404e-20 1.30058)
(14.2282 -6.73294e-22 1.44346)
(14.1475 -7.61814e-21 1.3389)
(14.3642 -6.55394e-21 1.49014)
(14.2818 2.0488e-21 1.38108)
(14.4619 3.24206e-21 1.4278)
(12.3761 -2.30188e-20 0.965158)
(12.3045 2.41382e-19 0.890416)
(12.4609 -1.50835e-20 0.972762)
(12.3881 -1.36058e-19 0.897905)
(12.5468 1.32384e-20 0.980255)
(12.473 0 0.905215)
(12.6338 1.33963e-20 0.987828)
(12.5592 2.68114e-20 0.912513)
(12.722 0 0.995694)
(12.6467 0 0.919982)
(12.8114 0 1.00408)
(12.7355 0 0.927824)
(12.9022 0 1.01324)
(12.8258 2.20516e-20 0.936256)
(12.9945 -3.82854e-20 1.0234)
(12.9177 0 0.945503)
(13.0884 6.43843e-20 1.03485)
(13.0112 -1.17644e-21 0.955802)
(13.1843 3.20663e-21 1.04782)
(13.1068 1.05108e-19 0.967393)
(13.2824 -7.26977e-20 1.06259)
(13.2045 -7.10542e-20 0.980519)
(13.383 -2.35122e-20 1.07942)
(13.3047 1.65533e-20 0.995422)
(13.4865 -2.89272e-20 1.09857)
(13.4078 3.81795e-22 1.01235)
(13.5935 3.16324e-21 1.12027)
(13.5142 4.87823e-20 1.03153)
(13.7043 -2.08809e-20 1.14462)
(13.6245 -2.10249e-20 1.05313)
(13.8197 3.34813e-20 1.17178)
(13.7389 1.91481e-20 1.07721)
(13.9401 5.12646e-20 1.20219)
(13.8581 1.60806e-20 1.10407)
(14.0665 1.32118e-20 1.23627)
(13.9834 -8.80146e-22 1.1342)
(14.1998 -5.02753e-21 1.27408)
(14.1151 -1.48436e-21 1.16777)
(14.3408 1.18351e-20 1.31561)
(14.2539 1.75702e-23 1.20472)
(14.4399 6.74542e-21 1.24574)
(12.3151 1.3311e-19 0.82077)
(12.2457 2.72481e-19 0.745634)
(12.3989 -1.23441e-19 0.827955)
(12.3282 -1.24524e-19 0.752529)
(12.4841 1.34112e-20 0.835062)
(12.4122 1.3864e-20 0.759294)
(12.5707 1.35768e-20 0.842247)
(12.4977 1.39109e-20 0.766061)
(12.6589 0 0.849683)
(12.5849 0 0.772978)
(12.7485 2.22562e-20 0.857559)
(12.6737 8.97031e-20 0.780209)
(12.8399 2.25061e-20 0.866075)
(12.7642 -8.75859e-20 0.787931)
(12.933 3.8183e-20 0.875442)
(12.8565 2.03595e-20 0.79633)
(13.0282 3.85874e-20 0.885876)
(12.9509 -3.48073e-20 0.8056)
(13.1256 3.20669e-20 0.897599)
(13.0476 5.36258e-20 0.815941)
(13.2255 1.90265e-20 0.910834)
(13.1467 1.65307e-20 0.827559)
(13.3282 4.13111e-20 0.925804)
(13.2487 -7.08703e-20 0.840656)
(13.4341 7.91663e-20 0.942727)
(13.3538 8.38078e-20 0.855436)
(13.5438 2.50364e-20 0.96179)
(13.4625 4.6791e-20 0.87209)
(13.6577 1.92041e-20 0.983091)
(13.5754 -4.27476e-20 0.890755)
(13.7763 1.32208e-21 1.0068)
(13.6927 4.65628e-20 0.911503)
(13.9003 -3.70891e-20 1.03329)
(13.8148 6.69799e-21 0.934576)
(14.0305 -1.56991e-20 1.06283)
(13.9435 4.8073e-21 0.960346)
(14.1678 3.6748e-21 1.09551)
(14.079 -7.02058e-21 0.988982)
(14.3131 -5.09889e-21 1.1314)
(14.2216 1.38052e-21 1.02053)
(14.4126 -2.75771e-21 1.05562)
(12.2574 1.56896e-20 0.675158)
(12.1902 3.54074e-21 0.599112)
(12.3401 1.39857e-20 0.681634)
(12.2714 -1.23763e-19 0.605104)
(12.4244 1.4372e-20 0.688064)
(12.3544 -1.11732e-19 0.611006)
(12.5105 2.05267e-22 0.69457)
(12.4391 1.91942e-19 0.61692)
(12.5982 9.05416e-20 0.701291)
(12.5256 -1.92868e-19 0.622961)
(12.6878 -1.97673e-20 0.708378)
(12.614 1.74278e-19 0.629257)
(12.7794 -9.21205e-20 0.715992)
(12.7044 -1.138e-19 0.635947)
(12.873 -5.37484e-20 0.724304)
(12.7969 1.15437e-21 0.643179)
(12.9689 -2.12085e-20 0.733489)
(12.8917 -5.76265e-20 0.651107)
(13.0673 3.83864e-20 0.743731)
(12.989 3.81451e-20 0.65989)
(13.1685 -7.43696e-20 0.755211)
(13.0891 2.9529e-20 0.669692)
(13.2729 -3.03153e-20 0.768114)
(13.1923 -7.48088e-20 0.680677)
(13.3807 5.12006e-20 0.782621)
(13.2989 2.87251e-20 0.693008)
(13.4925 -2.11429e-20 0.798883)
(13.4093 3.36047e-20 0.706841)
(13.6088 -1.62548e-20 0.817017)
(13.5242 -2.67744e-20 0.722342)
(13.73 5.30139e-20 0.837126)
(13.6438 -1.72015e-20 0.739594)
(13.8569 4.99706e-20 0.859414)
(13.7684 1.77181e-20 0.75857)
(13.9903 1.40375e-20 0.88419)
(13.8997 1.40711e-20 0.779534)
(14.1311 -9.72869e-21 0.911647)
(14.0382 -1.79645e-20 0.802914)
(14.28 2.06337e-21 0.941815)
(14.184 4.69234e-21 0.828815)
(14.3792 -6.10797e-22 0.857489)
(12.2029 -1.37455e-19 0.526263)
(12.1375 -1.26751e-20 0.450878)
(12.2843 -2.53776e-19 0.531654)
(12.2173 -6.29007e-20 0.455696)
(12.3676 6.47684e-20 0.537016)
(12.2989 -1.84239e-19 0.460457)
(12.4528 1.38627e-21 0.542441)
(12.3826 2.04407e-19 0.465233)
(12.5399 -1.1462e-19 0.548035)
(12.4682 -1.9922e-19 0.47011)
(12.6291 8.35561e-20 0.553913)
(12.5559 9.53961e-20 0.475182)
(12.7205 -1.99168e-20 0.5602)
(12.6458 5.1e-20 0.480553)
(12.8142 -1.60318e-21 0.567026)
(12.7381 -7.03802e-20 0.486332)
(12.9104 1.56661e-21 0.57453)
(12.8328 2.80801e-20 0.492636)
(13.0094 2.9176e-20 0.582851)
(12.9304 -1.75478e-20 0.499583)
(13.1115 3.09941e-20 0.592132)
(13.0309 2.54222e-20 0.507296)
(13.2169 -1.62265e-20 0.60252)
(13.1347 4.06751e-20 0.5159)
(13.3261 1.05013e-20 0.614151)
(13.2423 -5.83489e-20 0.525515)
(13.4395 2.88708e-20 0.627173)
(13.3538 4.66498e-20 0.536261)
(13.5576 -2.78179e-20 0.641726)
(13.4701 1.78512e-20 0.548308)
(13.6809 -5.36414e-20 0.657822)
(13.5913 -6.58276e-20 0.561727)
(13.8101 -1.86326e-20 0.675485)
(13.7181 -7.02059e-21 0.576406)
(13.946 -1.8028e-20 0.695016)
(13.8514 -1.78521e-20 0.592462)
(14.0894 -3.64055e-21 0.71677)
(13.992 4.70378e-21 0.610357)
(14.2412 3.8068e-21 0.740787)
(14.1403 7.04665e-22 0.630333)
(14.3389 -6.27085e-22 0.652601)
(12.1505 6.56624e-20 0.378191)
(12.0869 0 0.301005)
(12.2305 1.19966e-20 0.382392)
(12.165 6.72997e-20 0.304421)
(12.3124 -4.8997e-20 0.386583)
(12.2452 -9.96805e-20 0.307802)
(12.3965 6.41565e-21 0.39083)
(12.3274 9.75119e-20 0.311197)
(12.4826 1.11522e-20 0.395207)
(12.4118 -4.98788e-20 0.314663)
(12.571 6.28223e-20 0.399796)
(12.4984 5.9976e-21 0.318263)
(12.6618 1.60534e-21 0.404683)
(12.5874 7.68755e-20 0.322065)
(12.7552 -4.19019e-20 0.409964)
(12.679 -1.04512e-19 0.326144)
(12.8512 9.33547e-21 0.415735)
(12.7732 1.88063e-20 0.330576)
(12.9503 -2.23267e-20 0.422097)
(12.8704 4.13185e-21 0.335441)
(13.0526 3.50667e-20 0.429152)
(12.9709 -3.04972e-20 0.340823)
(13.1585 -6.57207e-22 0.436999)
(13.0748 5.88664e-20 0.346802)
(13.2684 -2.31127e-20 0.445734)
(13.1826 -6.57958e-20 0.353458)
(13.3828 3.61167e-20 0.455485)
(13.2947 5.49461e-20 0.360885)
(13.5021 -1.95141e-20 0.466349)
(13.4115 5.15151e-21 0.369174)
(13.6269 -1.90068e-20 0.478324)
(13.5337 -7.87876e-22 0.378366)
(13.7579 -6.17489e-21 0.491418)
(13.6618 -3.38267e-21 0.388454)
(13.8957 5.19731e-21 0.505844)
(13.7965 -2.91587e-21 0.399513)
(14.0411 9.57633e-21 0.521893)
(13.9385 1.16502e-20 0.411781)
(14.1952 -2.02429e-21 0.539615)
(14.0886 -7.54187e-22 0.425437)
(14.2896 2.96164e-22 0.440597)
(12.1 1.66542e-23 0.223619)
(11.9247 0 0.149134)
(12.1783 -4.4268e-20 0.226172)
(12.0001 -3.24328e-21 0.150855)
(12.2587 4.72106e-20 0.228722)
(12.0775 -4.53281e-20 0.152556)
(12.3412 4.28787e-20 0.231307)
(12.1571 9.42323e-20 0.154262)
(12.426 -5.65606e-20 0.233974)
(12.2389 -4.88219e-20 0.156003)
(12.5133 1.89958e-20 0.236772)
(12.323 -3.94481e-22 0.157812)
(12.603 -2.86871e-20 0.239754)
(12.4096 3.96314e-20 0.159723)
(12.6955 -4.45531e-20 0.242978)
(12.4987 -5.96914e-20 0.161775)
(12.7909 1.38821e-20 0.246504)
(12.5907 9.80062e-21 0.164009)
(12.8895 -3.42979e-21 0.250394)
(12.6857 2.96209e-22 0.166468)
(12.9915 -7.73366e-21 0.25471)
(12.784 -7.80851e-21 0.169198)
(13.0973 -5.81626e-21 0.259511)
(12.8859 -6.54387e-21 0.172244)
(13.2073 1.20351e-20 0.264868)
(12.9918 5.90062e-22 0.175645)
(13.3218 2.38239e-20 0.270845)
(13.1022 1.5424e-20 0.179443)
(13.4416 2.41177e-20 0.277481)
(13.2174 -1.6744e-21 0.18367)
(13.567 1.51312e-20 0.284797)
(13.338 1.87052e-20 0.188352)
(13.6988 -5.27517e-23 0.292835)
(13.4647 -1.81254e-21 0.193507)
(13.8376 3.44057e-21 0.301729)
(13.5982 1.14696e-21 0.199195)
(13.9843 1.29205e-21 0.311664)
(13.7391 6.58218e-22 0.205558)
(14.1396 7.56346e-22 0.322782)
(13.8884 -1.89533e-22 0.212786)
(14.0887 3.03739e-22 0.221354)
(11.8196 -3.32502e-21 0.0748245)
(11.8941 -3.37229e-21 0.0756909)
(11.9707 0 0.0765453)
(12.0495 2.82307e-21 0.077402)
(12.1306 8.18165e-21 0.0782771)
(12.214 2.01434e-20 0.0791887)
(12.2999 9.9355e-21 0.0801562)
(12.3886 -5.05525e-21 0.0812004)
(12.4802 -4.06285e-21 0.0823436)
(12.5749 -4.10691e-21 0.0836093)
(12.6731 -6.60707e-21 0.0850243)
(12.7752 -9.86402e-23 0.0866204)
(12.8814 3.68777e-21 0.0884203)
(12.9924 -1.06412e-20 0.0904377)
(13.1085 -7.73117e-21 0.0926859)
(13.2305 1.6786e-21 0.0951744)
(13.3588 -6.37478e-22 0.0979241)
(13.4943 -1.70509e-21 0.100989)
(13.6378 -8.84775e-22 0.104455)
(13.7905 -1.57448e-21 0.108516)
)
;

boundaryField
{
    inlet
    {
        type            calculated;
        value           nonuniform 0();
    }
    outlet
    {
        type            calculated;
        value           nonuniform List<vector> 
15
(
(14.4548 -1.02536e-20 2.46302)
(14.4905 -1.03894e-21 2.36525)
(14.5149 1.25787e-20 2.25373)
(14.5285 1.29056e-20 2.12839)
(14.5326 -1.48329e-20 1.99079)
(14.5302 2.41836e-21 1.8423)
(14.5222 0 1.68375)
(14.5091 -1.25596e-20 1.51509)
(14.491 1.90234e-20 1.33783)
(14.4675 -5.44239e-21 1.15064)
(14.4385 0 0.957978)
(14.4024 -1.238e-21 0.753675)
(14.3593 0 0.549131)
(14.3045 6.00019e-22 0.328813)
(13.954 0 0.110784)
)
;
    }
    flap
    {
        type            calculated;
        value           nonuniform 0();
    }
    upperWall
    {
        type            calculated;
        value           uniform (0 0 0);
    }
    lowerWall
    {
        type            calculated;
        value           nonuniform 0();
    }
    frontAndBack
    {
        type            empty;
        value           nonuniform 0();
    }
    procBoundary2to1
    {
        type            processor;
        value           nonuniform List<vector> 
17
(
(13.002 -1.1477e-20 2.2931)
(12.9324 1.83942e-20 2.17106)
(12.8595 -1.50793e-20 2.0454)
(12.7853 -2.20414e-19 1.91668)
(12.7109 3.61765e-19 1.78532)
(12.637 0 1.65169)
(12.564 -1.62089e-20 1.51609)
(12.4924 -4.70492e-22 1.37875)
(12.4228 4.00362e-19 1.23982)
(12.356 1.32629e-19 1.09925)
(12.2926 -8.01943e-21 0.957273)
(12.2327 2.60038e-19 0.81337)
(12.1763 1.42139e-19 0.668529)
(12.1233 -2.71719e-19 0.520764)
(12.0725 0 0.373926)
(12.0238 -6.05977e-20 0.221029)
(11.7471 -1.65511e-20 0.0739347)
)
;
    }
    procBoundary2to4
    {
        type            processor;
        value           nonuniform List<vector> 
11
(
(8.06139 -6.04778e-22 1.66769)
(10.289 7.172e-21 2.26721)
(11.628 -4.29792e-21 2.62943)
(12.4073 1.28585e-20 2.81097)
(12.8372 -3.20201e-20 2.87331)
(13.056 0 2.862)
(13.1512 -8.20228e-20 2.80657)
(13.1759 -8.0129e-20 2.72546)
(13.1603 4.11248e-20 2.62923)
(13.1207 2.84567e-21 2.52343)
(13.066 1.12414e-19 2.41088)
)
;
    }
    procBoundary2to5
    {
        type            processor;
        value           nonuniform List<vector> 
34
(
(5.86815 -7.54506e-21 1.04262)
(5.45165 -1.28066e-20 0.904167)
(7.3345 -9.91913e-21 1.39143)
(8.40366 -2.97279e-20 1.61718)
(8.08719 1.17704e-20 1.47064)
(9.36676 1.80219e-20 1.75594)
(10.127 6.73396e-21 1.89824)
(10.9645 3.82257e-22 2.06662)
(11.4734 9.31622e-21 2.14174)
(11.3552 4.27326e-21 2.02752)
(11.9446 -2.21964e-20 2.12926)
(12.2968 -3.23957e-20 2.16948)
(12.2148 -3.17931e-21 2.07356)
(12.616 -9.83494e-21 2.14275)
(12.8531 -6.79645e-21 2.17084)
(13.1118 -8.27263e-21 2.21514)
(13.262 4.66716e-21 2.23072)
(13.2196 0 2.18879)
(13.3963 0 2.23127)
(13.5006 9.10736e-21 2.25143)
(13.6181 2.83215e-21 2.28378)