/*--------------------------------*- C++ -*----------------------------------*\
| =========                 |                                                 |
| \\      /  F ield         | OpenFOAM: The Open Source CFD Toolbox           |
|  \\    /   O peration     | Version:  dev                                   |
|   \\  /    A nd           | Web:      www.OpenFOAM.org                      |
|    \\/     M anipulation  |                                                 |
\*---------------------------------------------------------------------------*/
FoamFile
{
    version     2.0;
    format      ascii;
    class       volVectorField;
    location    "0.19";
    object      cellDisplacement;
}
// * * * * * * * * * * * * * * * * * * * * * * * * * * * * * * * * * * * * * //

dimensions      [0 1 0 0 0 0 0];

internalField   nonuniform List<vector> 
465
(
(0.00923541 0 5.78446e-05)
(0.00942773 0 5.81616e-05)
(0.00955595 0 5.72822e-05)
(0.00962364 0 5.55966e-05)
(0.00963274 0 5.33714e-05)
(0.0095838 0 5.07896e-05)
(0.00947619 0 4.79764e-05)
(0.00930823 0 4.50157e-05)
(0.00907729 0 4.19625e-05)
(0.00877984 0 3.88498e-05)
(0.00841147 0 3.56942e-05)
(0.0079669 0 3.2499e-05)
(0.00743994 0 2.92567e-05)
(0.00682351 0 2.59497e-05)
(0.00610955 0 2.25509e-05)
(0.005289 0 1.90233e-05)
(0.00435174 0 1.53188e-05)
(0.00328653 0 1.13764e-05)
(0.00208098 0 7.11983e-06)
(0.000721352 0 2.45284e-06)
(0.00930937 0 0.000174436)
(0.00948454 0 0.000174833)
(0.00959998 0 0.000171873)
(0.00965801 0 0.000166633)
(0.00965973 0 0.00015986)
(0.00960507 0 0.000152069)
(0.00949298 0 0.000143614)
(0.00932149 0 0.000134737)
(0.00908774 0 0.000125592)
(0.00878806 0 0.000116275)
(0.00841789 0 0.000106833)
(0.00797188 0 9.72737e-05)
(0.00744377 0 8.75731e-05)
(0.00682642 0 7.76783e-05)
(0.00611173 0 6.75077e-05)
(0.0052906 0 5.69503e-05)
(0.00435288 0 4.58621e-05)
(0.00328729 0 3.40607e-05)
(0.00208144 0 2.13174e-05)
(0.00072151 0 7.34424e-06)
(0.00945028 0 0.00029363)
(0.00959352 0 0.000292579)
(0.00968493 0 0.000286634)
(0.00972467 0 0.000277318)
(0.00971227 0 0.00026571)
(0.00964662 0 0.000252568)
(0.00952589 0 0.00023842)
(0.00934756 0 0.000223628)
(0.00910836 0 0.000208427)
(0.0088043 0 0.00019296)
(0.00843063 0 0.000177295)
(0.00798179 0 0.00016144)
(0.0074514 0 0.000145351)
(0.00683223 0 0.000128939)
(0.00611608 0 0.000112066)
(0.0052938 0 9.45481e-05)
(0.00435515 0 7.61454e-05)
(0.00328883 0 5.65552e-05)
(0.00208235 0 3.5398e-05)
(0.000721819 0 1.21958e-05)
(0.00964567 0 0.000416563)
(0.00974626 0 0.000411933)
(0.00980503 0 0.000401709)
(0.00981954 0 0.000387552)
(0.00978748 0 0.000370676)
(0.00970636 0 0.00035196)
(0.00957338 0 0.000332028)
(0.00938528 0 0.000311314)
(0.00913825 0 0.000290099)
(0.00882789 0 0.000268554)
(0.00844913 0 0.000246756)
(0.00799619 0 0.000224702)
(0.00746249 0 0.000202327)
(0.00684066 0 0.000179499)
(0.00612239 0 0.000156027)
(0.00529841 0 0.000131651)
(0.00435843 0 0.000106036)
(0.00329103 0 7.87626e-05)
(0.00208363 0 4.93011e-05)
(0.000722251 0 1.69868e-05)
(0.00988022 0 0.000543367)
(0.0099322 0 0.000532908)
(0.00995289 0 0.000516993)
(0.00993741 0 0.000497134)
(0.0098816 0 0.000474494)
(0.00978157 0 0.000449944)
(0.00963345 0 0.000424123)
(0.00943316 0 0.000397477)
(0.00917629 0 0.000370301)
(0.00885797 0 0.000342767)
(0.00847275 0 0.000314944)
(0.00801457 0 0.000286814)
(0.00747665 0 0.000258278)
(0.0068514 0 0.000229164)
(0.0061304 0 0.000199221)
(0.00530425 0 0.000168115)
(0.00436254 0 0.000135421)
(0.00329377 0 0.000100598)
(0.00208523 0 6.29738e-05)
(0.000722782 0 2.16988e-05)
(0.010138 0 0.000673098)
(0.0101399 0 0.000654885)
(0.0101203 0 0.00063202)
(0.0100724 0 0.00060567)
(0.00999032 0 0.000576802)
(0.00986906 0 0.00054618)
(0.00970372 0 0.000514379)
(0.00948943 0 0.000481809)
(0.00922115 0 0.000448742)
(0.00889352 0 0.000415328)
(0.0085007 0 0.000381613)
(0.00803633 0 0.00034755)
(0.00749338 0 0.000313004)
(0.00686408 0 0.000277755)
(0.00613982 0 0.000241494)
(0.00531109 0 0.000203814)
(0.00436734 0 0.000164195)
(0.00329693 0 0.000121985)
(0.00208705 0 7.63676e-05)
(0.000723383 0 2.63152e-05)
(0.0104042 0 0.000803933)
(0.0103585 0 0.000776665)
(0.0102991 0 0.000745944)
(0.0102183 0 0.000712521)
(0.010109 0 0.000677089)
(0.00996539 0 0.000640234)
(0.0097816 0 0.000602417)
(0.00955211 0 0.000563974)
(0.00927131 0 0.00052512)
(0.00893337 0 0.000485965)
(0.00853209 0 0.000446516)
(0.00806078 0 0.000406689)
(0.00751216 0 0.000366307)
(0.00687827 0 0.000325099)
(0.00615033 0 0.000282697)
(0.00531867 0 0.00023862)
(0.00437261 0 0.000192259)
(0.00330038 0 0.000142849)
(0.00208901 0 8.9436e-05)
(0.000724029 0 3.08198e-05)
(0.0106663 0 0.000933505)
(0.0105779 0 0.000896624)
(0.0104816 0 0.000857614)
(0.0103692 0 0.000816834)
(0.0102332 0 0.000774692)
(0.010067 0 0.000731572)
(0.00986438 0 0.000687793)
(0.00961912 0 0.000643588)
(0.00932516 0 0.000599101)
(0.00897628 0 0.000554383)
(0.00856593 0 0.000509393)
(0.00808713 0 0.000464002)
(0.00753239 0 0.000417984)
(0.00689351 0 0.00037102)
(0.00616156 0 0.000322679)
(0.00532671 0 0.000272408)
(0.00437815 0 0.000219511)
(0.00330397 0 0.000163115)
(0.00209104 0 0.000102132)
(0.000724687 0 3.51964e-05)
(0.0109147 0 0.00105927)
(0.0107901 0 0.00101293)
(0.010661 0 0.000965688)
(0.0105197 0 0.000917602)
(0.0103585 0 0.000868834)
(0.0101706 0 0.000819576)
(0.00994937 0 0.00077)
(0.00968832 0 0.000720229)
(0.00938103 0 0.000670323)
(0.00902092 0 0.000620268)
(0.00860118 0 0.00056997)
(0.00811459 0 0.000519247)
(0.0075534 0 0.000467827)
(0.00690928 0 0.000415336)
(0.0061731 0 0.000361284)
(0.0053349 0 0.000305049)
(0.00438373 0 0.000245848)
(0.00330754 0 0.000182706)
(0.00209302 0 0.000114408)
(0.000725327 0 3.94289e-05)
(0.0111423 0 0.00117883)
(0.0109885 0 0.00112375)
(0.0108318 0 0.00106877)
(0.010665 0 0.00101376)
(0.010481 0 0.000958684)
(0.0102729 0 0.000903584)
(0.010034 0 0.000848499)
(0.00975766 0 0.000793447)
(0.00943725 0 0.000738407)
(0.00906598 0 0.000683297)
(0.0086368 0 0.000627965)
(0.00814229 0 0.000572182)
(0.00757454 0 0.000515623)
(0.00692504 0 0.000457865)
(0.00618453 0 0.000398358)
(0.00534291 0 0.000336413)
(0.0043891 0 0.000271168)
(0.00331091 0 0.000201548)
(0.00209486 0 0.000126218)
(0.000725914 0 4.35012e-05)
(0.011345 0 0.00129012)
(0.0111688 0 0.00122745)
(0.0109897 0 0.00116557)
(0.0108014 0 0.00110428)
(0.0105973 0 0.00104343)
(0.010371 0 0.000982948)
(0.0101159 0 0.000922763)
(0.00982518 0 0.000862807)
(0.00949225 0 0.000802986)
(0.00911015 0 0.000743155)
(0.00867172 0 0.00068311)
(0.00816939 0 0.000622572)
(0.00759512 0 0.000561171)
(0.00694025 0 0.000498432)
(0.00619542 0 0.000433752)
(0.00535041 0 0.000366379)
(0.004394 0 0.000295373)
(0.00331389 0 0.000219569)
(0.00209645 0 0.000137516)
(0.000726408 0 4.73976e-05)
(0.0115204 0 0.00139158)
(0.0113281 0 0.00132269)
(0.0111317 0 0.001255)
(0.0109259 0 0.00118829)
(0.0107049 0 0.00112237)
(0.0104627 0 0.00105709)
(0.010193 0 0.000992318)
(0.00988916 0 0.000927916)
(0.00954455 0 0.000863728)
(0.00915223 0 0.00079956)
(0.00870495 0 0.000735161)
(0.00819507 0 0.000670207)
(0.00761445 0 0.000604287)
(0.00695436 0 0.00053688)
(0.00620532 0 0.000467333)
(0.00535702 0 0.000394834)
(0.00439816 0 0.000318374)
(0.00331629 0 0.000236701)
(0.00209765 0 0.000148262)
(0.000726769 0 5.11042e-05)
(0.011668 0 0.00148213)
(0.011465 0 0.0014085)
(0.0112559 0 0.00133622)
(0.0110365 0 0.00126508)
(0.0108017 0 0.00119492)
(0.0105461 0 0.00112554)
(0.0102637 0 0.00105677)
(0.0099481 0 0.000988441)
(0.00959288 0 0.000920353)
(0.0091911 0 0.000852272)
(0.00873555 0 0.000783909)
(0.00821854 0 0.000714907)
(0.0076319 0 0.000644815)
(0.00696682 0 0.000573073)
(0.00621379 0 0.000498983)
(0.00536241 0 0.00042168)
(0.0044013 0 0.000340092)
(0.00331791 0 0.000252888)
(0.00209835 0 0.000158418)
(0.000726953 0 5.46081e-05)
(0.0117885 0 0.0015611)
(0.0115792 0 0.00148426)
(0.0113614 0 0.00140866)
(0.0111319 0 0.00133417)
(0.0108863 0 0.00126065)
(0.0106197 0 0.00118792)
(0.0103265 0 0.0011158)
(0.0100008 0 0.00104412)
(0.00963611 0 0.00097263)
(0.00922581 0 0.00090109)
(0.00876268 0 0.000829181)
(0.00823908 0 0.000756517)
(0.00764684 0 0.00068262)
(0.00697714 0 0.000606893)
(0.00622041 0 0.000528602)
(0.00536623 0 0.000446833)
(0.00440316 0 0.000360459)
(0.00331856 0 0.000268078)
(0.00209842 0 0.000167952)
(0.000726916 0 5.7898e-05)
(0.0118833 0 0.0016282)
(0.0116711 0 0.00154963)
(0.0114481 0 0.00147198)
(0.0112115 0 0.00139521)
(0.0109578 0 0.00131925)
(0.0106825 0 0.00124396)
(0.0103805 0 0.00116918)
(0.0100461 0 0.00109473)
(0.00967332 0 0.00102037)
(0.0092555 0 0.000945848)
(0.00878559 0 0.000870829)
(0.00825605 0 0.000794908)
(0.00765873 0 0.000717585)
(0.00698482 0 0.000638238)
(0.00622478 0 0.0005561)
(0.00536815 0 0.000470217)
(0.00440345 0 0.000379413)
(0.00331802 0 0.000282224)
(0.00209773 0 0.000176835)
(0.000726612 0 6.09636e-05)
(0.0121557 0 0.00176397)
(0.0119555 0 0.00168475)
(0.0117432 0 0.00160577)
(0.0115175 0 0.00152722)
(0.0112765 0 0.00144917)
(0.0110169 0 0.00137163)
(0.0107349 0 0.00129451)
(0.0104257 0 0.0012177)
(0.0100842 0 0.00114104)
(0.00970436 0 0.0010643)
(0.00927993 0 0.000987228)
(0.00880399 0 0.000909487)
(0.0082691 0 0.000830665)
(0.00766719 0 0.000750245)
(0.00698952 0 0.000667587)
(0.00622654 0 0.000581896)
(0.00536783 0 0.000492187)
(0.00440191 0 0.00039724)
(0.00331606 0 0.000295538)
(0.00209612 0 0.000185198)
(0.000725981 0 6.38502e-05)
(0.0122027 0 0.00180908)
(0.0120069 0 0.00173133)
(0.0117963 0 0.00165311)
(0.0115702 0 0.0015747)
(0.0113267 0 0.00149631)
(0.0110633 0 0.00141799)
(0.0107763 0 0.00133976)
(0.0104616 0 0.00126154)
(0.0101141 0 0.0011832)
(0.00972842 0 0.00110456)
(0.00929831 0 0.00102536)
(0.00881711 0 0.000945282)
(0.0082775 0 0.000863905)
(0.00767155 0 0.000780706)
(0.00699057 0 0.000695034)
(0.0062251 0 0.000606074)
(0.00536475 0 0.000512813)
(0.00439807 0 0.000413995)
(0.00331233 0 0.00030806)
(0.00209335 0 0.000193065)
(0.000724934 0 6.65652e-05)
(0.011831 0 0.00169159)
(0.0116059 0 0.00161419)
(0.0113617 0 0.00153625)
(0.0110961 0 0.00145789)
(0.0108058 0 0.0013792)
(0.0104869 0 0.00130016)
(0.0101349 0 0.00122069)
(0.00974441 0 0.00114063)
(0.0093096 0 0.00105975)
(0.00882397 0 0.000977733)
(0.00828038 0 0.000894174)
(0.00767101 0 0.000808549)
(0.0069873 0 0.000720197)
(0.00621989 0 0.000628292)
(0.00535843 0 0.000531799)
(0.00439154 0 0.000429437)
(0.00330653 0 0.000319606)
(0.00208922 0 0.000200318)
(0.000723403 0 6.90675e-05)
(0.0113815 0 0.00156908)
(0.0111151 0 0.00149132)
(0.0108228 0 0.00141275)
(0.0105011 0 0.00133344)
(0.0101457 0 0.00125334)
(0.00975154 0 0.00117232)
(0.00931302 0 0.00109019)
(0.00882382 0 0.00100664)
(0.00827701 0 0.000921274)
(0.00766492 0 0.000833582)
(0.00697912 0 0.000742897)
(0.00621035 0 0.000648386)
(0.0053484 0 0.000549003)
(0.00438194 0 0.000443444)
(0.00329836 0 0.000330083)
(0.00208355 0 0.000206897)
(0.00072132 0 7.13361e-05)
(0.0111202 0 0.00151832)
(0.010827 0 0.00144038)
(0.0105037 0 0.00136129)
(0.010146 0 0.00128101)
(0.00974919 0 0.00119947)
(0.00930789 0 0.0011165)
(0.00881599 0 0.00103181)
(0.00826675 0 0.000945021)
(0.00765265 0 0.000855625)
(0.00696545 0 0.000762964)
(0.006196 0 0.000666201)
(0.00533422 0 0.000564285)
(0.0043689 0 0.0004559)
(0.00328755 0 0.000339402)
(0.00207615 0 0.000212745)
(0.000718622 0 7.33504e-05)
(0.0104944 0 0.00138364)
(0.0101353 0 0.0013036)
(0.00973684 0 0.00122196)
(0.00929366 0 0.00113854)
(0.00879991 0 0.00105309)
(0.00824902 0 0.000965245)
(0.00763368 0 0.000874511)
(0.00694579 0 0.000780236)
(0.00617638 0 0.000681587)
(0.0053155 0 0.000577513)
(0.00435211 0 0.000466693)
(0.00327385 0 0.000347477)
(0.00206687 0 0.000217806)
(0.000715253 0 7.50909e-05)
(0.00971409 0 0.00123967)
(0.00926992 0 0.00115618)
(0.0087751 0 0.00107033)
(0.00822337 0 0.000981794)
(0.00760754 0 0.000890087)
(0.00691971 0 0.000794564)
(0.00615108 0 0.000694405)
(0.00529189 0 0.000588562)
(0.00433126 0 0.000475717)
(0.00325703 0 0.000354224)
(0.00205556 0 0.000222026)
(0.000711163 0 7.6539e-05)
(0.00923634 0 0.00116931)
(0.00874122 0 0.0010834)
(0.00818942 0 0.000994533)
(0.00757387 0 0.000902211)
(0.00688685 0 0.000805809)
(0.00611979 0 0.000704523)
(0.0052631 0 0.000597313)
(0.00430612 0 0.000482873)
(0.00323692 0 0.000359568)
(0.0020421 0 0.000225357)
(0.000706312 0 7.76776e-05)
(0.00814688 0 0.00100333)
(0.00753239 0 0.000910761)
(0.00684695 0 0.000813845)
(0.00608225 0 0.000711822)
(0.00522891 0 0.000603659)
(0.0042765 0 0.000488069)
(0.00321337 0 0.000363437)
(0.00202642 0 0.000227753)
(0.00070067 0 7.84908e-05)
(0.00748294 0 0.000915615)
(0.00679981 0 0.000818553)
(0.00603829 0 0.000716194)
(0.00518917 0 0.000607503)
(0.00424228 0 0.00049122)
(0.00318628 0 0.000365769)
(0.00200844 0 0.000229173)
(0.000694217 0 7.89646e-05)
(0.00598783 0 0.000717529)
(0.00514381 0 0.000608754)
(0.00420339 0 0.000492251)
(0.00315563 0 0.000366504)
(0.00198816 0 0.000229582)
(0.000686949 0 7.90866e-05)
(0.00509286 0 0.00060733)
(0.00415986 0 0.000491092)
(0.00312143 0 0.000365593)
(0.00196559 0 0.000228948)
(0.000678873 0 7.88463e-05)
(0.00308373 0 0.000362984)
(0.00194078 0 0.000227244)
(0.000670009 0 7.82347e-05)
(0.00191382 0 0.000224445)
(0.000660397 0 7.72451e-05)
(0.000650081 0 7.58698e-05)
)
;

boundaryField
{
    inlet
    {
        type            cellMotion;
        value           nonuniform 0();
    }
    outlet
    {
        type            cellMotion;
        value           uniform (0 0 0);
    }
    flap
    {
        type            cellMotion;
        value           nonuniform 0();
    }
    upperWall
    {
        type            slip;
    }
    lowerWall
    {
        type            slip;
    }
    frontAndBack
    {
        type            empty;
    }
    procBoundary5to2
    {
        type            processor;
        value           nonuniform List<vector> 
34
(
(0.0122291 0 0.00184349)
(0.0120385 0 0.00176816)
(0.0120385 0 0.00176816)
(0.0118483 0 0.0017217)
(0.0116252 0 0.00164596)
(0.0116252 0 0.00164596)
(0.0113866 0 0.00159503)
(0.0113866 0 0.00159503)
(0.0111118 0 0.00153908)
(0.0108186 0 0.00146215)
(0.0108186 0 0.00146215)
(0.0104732 0 0.00140059)
(0.0101136 0 0.00132111)
(0.0101136 0 0.00132111)
(0.00968098 0 0.00125261)
(0.00968098 0 0.00125261)
(0.00919303 0 0.00117794)
(0.00869821 0 0.00109225)
(0.00869821 0 0.00109225)
(0.00809589 0 0.00100817)
(0.00809589 0 0.00100817)
(0.00742575 0 0.000916771)
(0.00674555 0 0.000819887)
(0.00674555 0 0.000819887)
(0.00593113 0 0.00071582)
(0.00593113 0 0.00071582)
(0.00503664 0 0.000603232)
(0.0041119 0 0.000487722)
(0.0041119 0 0.000487722)
(0.00304283 0 0.000358687)
(0.00304283 0 0.000358687)
(0.00188494 0 0.00022056)
(0.00188494 0 0.00022056)
(0.000639162 0 7.41146e-05)
)
;
    }
    procBoundary5to4
    {
        type            processor;
        value           nonuniform List<vector> 
18
(
(0.00897338 0 5.57571e-05)
(0.00907077 0 0.000169117)
(0.00925468 0 0.000287636)
(0.00950632 0 0.00041336)
(0.00980319 0 0.000546467)
(0.0101229 0 0.000685339)
(0.0104456 0 0.000827059)
(0.0107561 0 0.000968085)
(0.0110432 0 0.00110487)
(0.0113003 0 0.0012343)
(0.0115238 0 0.00135391)
(0.0117128 0 0.00146194)
(0.0118681 0 0.00155725)
(0.0119918 0 0.00163921)
(0.0120862 0 0.00170762)
(0.0120862 0 0.00170762)
(0.0123436 0 0.00184307)
(0.0123836 0 0.00188586)
)
;
    }
}


// ************************************************************************* //
