/*--------------------------------*- C++ -*----------------------------------*\
| =========                 |                                                 |
| \\      /  F ield         | OpenFOAM: The Open Source CFD Toolbox           |
|  \\    /   O peration     | Version:  dev                                   |
|   \\  /    A nd           | Web:      www.OpenFOAM.org                      |
|    \\/     M anipulation  |                                                 |
\*---------------------------------------------------------------------------*/
FoamFile
{
    version     2.0;
    format      ascii;
    class       volScalarField;
    location    "1.69";
    object      p;
}
// * * * * * * * * * * * * * * * * * * * * * * * * * * * * * * * * * * * * * //

dimensions      [0 2 -2 0 0 0 0];

internalField   nonuniform List<scalar> 
2790
(
76.0728
75.9018
76.0076
76.3292
76.7769
77.3245
77.9723
78.7224
79.5744
80.5279
81.5833
82.7421
84.0063
85.3783
86.8607
88.4553
90.1635
91.9851
93.9175
95.9549
98.0867
100.296
102.559
104.841
107.096
109.265
111.276
113.038
114.445
115.35
75.9225
75.8465
75.9726
76.2923
76.7382
77.2844
77.93
78.6766
79.524
80.4719
81.5208
82.6717
83.9268
85.2883
86.7585
88.3392
90.0316
91.8355
93.7486
95.7652
97.8755
100.064
102.307
104.573
106.819
108.988
111.009
112.799
114.26
115.329
75.7858
75.7834
75.9276
76.2398
76.6774
77.2165
77.8537
78.5898
79.4245
80.3575
81.3887
82.519
83.7498
85.0827
86.5191
88.0602
89.7061
91.4557
93.3056
95.2492
97.2761
99.3702
101.508
103.659
105.779
107.813
109.689
111.312
112.54
112.988
75.6499
75.6862
75.8445
76.1507
76.5793
77.1095
77.736
78.4586
79.2768
80.19
81.1978
82.3002
83.4978
84.7915
86.1815
87.6675
89.2482
90.9206
92.6792
94.5154
96.416
98.3624
100.328
102.277
104.159
105.905
107.416
108.527
109.03
107.471
75.5057
75.5629
75.7337
76.0367
76.4561
76.9751
77.5877
78.2929
79.0899
79.9777
80.9553
82.0221
83.1779
84.4221
85.7536
87.1706
88.6697
90.2457
91.8905
93.5919
95.3329
97.09
98.8301
100.507
102.056
103.379
104.326
104.592
104.076
99.4512
75.349
75.4179
75.5971
75.8966
76.3051
76.81
77.4054
78.0894
78.8607
79.7181
80.6599
81.6847
82.791
83.9771
85.2404
86.5769
87.9813
89.4455
90.9583
92.5035
94.059
95.5943
97.0672
98.4177
99.5579
100.353
100.595
99.7849
98.2362
90.1996
75.1775
75.2529
75.4366
75.7313
76.1276
76.6161
77.1914
77.8509
78.5929
79.4155
80.3163
81.2929
82.3429
83.4632
84.6492
85.8953
87.1937
88.5333
89.8991
91.2709
92.6205
93.9096
95.0845
96.0691
96.7507
96.9535
96.4267
94.4202
91.9992
80.845
74.9903
75.069
75.2538
75.5419
75.9247
76.3947
76.9472
77.5791
78.288
79.0715
79.9265
80.8496
81.8373
82.8847
83.986
85.1333
86.3162
87.5208
88.7282
89.9132
91.0417
92.0671
92.9239
93.5192
93.7163
93.3003
92.0057
88.7813
85.6951
72.0855
74.7868
74.8669
75.05
75.3299
75.6976
76.1472
76.6743
77.2757
77.9483
78.689
79.4939
80.3588
81.2788
82.2478
83.258
84.2996
85.3595
86.4207
87.4609
88.4497
89.347
90.0981
90.6263
90.8229
90.5308
89.4991
87.4791
83.0915
79.5044
64.1802
74.5674
74.6475
74.8268
75.0966
75.4477
75.875
76.3746
76.9429
77.5762
78.2708
79.022
79.8246
80.6726
81.5584
82.4724
83.4027
84.3339
85.2461
86.113
86.9
87.5611
88.0338
88.2312
88.0311
87.2602
85.636
82.9513
77.4981
73.4756
57.0783
74.3323
74.4115
74.5853
74.8433
75.1764
75.5799
76.05
76.5828
77.1744
77.82
78.5144
79.2515
80.0239
80.8226
81.6365
82.4517
83.2505
84.0101
84.7009
85.2839
85.7081
85.9042
85.7762
85.1907
83.9623
81.7797
78.4868
72.0812
67.5567
50.54
74.0822
74.1598
74.3267
74.5716
74.8853
75.2634
75.7023
76.1978
76.7453
77.3396
77.9747
78.6436
79.3376
80.0467
80.758
81.4558
82.1202
82.7259
83.2402
83.6206
83.8118
83.738
83.2959
82.3439
80.6867
77.9852
74.1181
66.8781
61.637
44.208
73.818
73.8934
74.0524
74.2828
74.5759
74.9273
75.3335
75.7901
76.2919
76.833
77.4068
78.0055
78.6195
79.2372
79.8445
80.424
80.9537
81.4064
81.7465
81.929
81.8947
81.5621
80.8233
79.5294
77.4762
74.2981
69.8717
61.9251
55.6202
37.6194
73.5406
73.6134
73.7634
73.9784
74.2498
74.5735
74.9458
75.3621
75.8168
76.3034
76.8147
77.3419
77.8747
78.4003
78.9033
79.3649
79.7617
80.064
80.2347
80.2269
79.9775
79.4018
78.3885
76.7828
74.3723
70.7705
65.8134
57.3106
49.541
30.1707
73.251
73.3208
73.4612
73.6598
73.9087
74.2038
74.5414
74.9165
75.3231
75.7543
76.2022
76.6575
77.1089
77.5427
77.9425
78.2882
78.5549
78.7118
78.7203
78.5322
78.0817
77.2822
76.0213
74.141
71.4233
67.4756
62.0719
53.2273
43.8084
21.0494
1.46933
1.48
1.48016
1.4669
1.42809
1.35938
1.27728
1.19778
1.12691
1.06602
1.01645
0.979403
0.955519
0.94543
0.9506
0.973028
1.01279
1.06818
1.13856
1.22162
1.30821
1.38604
1.44705
1.48636
1.49597
1.46207
1.36489
1.17808
0.869176
0.409828
1.45555
1.46218
1.45899
1.44486
1.40404
1.33394
1.25169
1.17301
1.10346
1.04391
0.995652
0.959958
0.937456
0.928613
0.935024
0.959147
1.00052
1.05706
1.12999
1.21778
1.30839
1.38745
1.44943
1.49309
1.51134
1.48944
1.40639
1.23342
0.930049
0.440822
1.43416
1.43687
1.42731
1.40921
1.36387
1.29206
1.2112
1.1354
1.06913
1.0129
0.967879
0.935345
0.916087
0.91014
0.919271
0.947676
0.994
1.05258
1.12688
1.2222
1.32728
1.4209
1.4914
1.5363
1.55077
1.52348
1.43394
1.25351
0.943025
0.443787
1.40513
1.4046
1.38573
1.36103
1.31032
1.23833
1.16154
1.0913
1.03078
0.979959
0.939947
0.912446
0.899138
0.899583
0.913843
0.948098
1.00611
1.08007
1.16533
1.26222
1.36241
1.45261
1.52433
1.57078
1.5823
1.54571
1.44185
1.24703
0.922731
0.407873
1.36744
1.36528
1.3349
1.30291
1.24885
1.18023
1.11092
1.04914
0.996953
0.953514
0.920051
0.89922
0.893908
0.905443
0.933119
0.977578
1.04129
1.12185
1.21279
1.31051
1.40919
1.4974
1.56501
1.60339
1.60335
1.55114
1.42583
1.20569
0.860316
0.342652
1.32018
1.31894
1.27672
1.23948
1.18657
1.12567
1.06642
1.01437
0.971461
0.936692
0.91138
0.899166
0.902621
0.923561
0.962633
1.01958
1.09275
1.17766
1.27063
1.36807
1.46173
1.54204
1.59817
1.62189
1.60506
1.53301
1.38656
1.14188
0.777211
0.279122
1.26289
1.26625
1.21502
1.17707
1.13035
1.08023
1.03129
0.987552
0.951655
0.924713
0.908549
0.906424
0.920517
0.952186
1.00202
1.06843
1.14838
1.23853
1.33394
1.42851
1.51436
1.58227
1.62232
1.62742
1.58919
1.4943
1.32588
1.06303
0.690055
0.230392
1.19562
1.20893
1.15442
1.12143
1.0832
1.042
1.00061
0.963118
0.93325
0.913811
0.907176
0.915586
0.940545
0.982872
1.04255
1.11852
1.2072
1.30297
1.39958
1.49007
1.56662
1.61995
1.64202
1.62671
1.56562
1.44784
1.25908
0.982035
0.611752
0.196564
1.1188
1.14938
1.09716
1.07192
1.04086
1.00504
0.967335
0.933817
0.910025
0.899194
0.90307
0.922299
0.957843
1.01114
1.08233
1.16934
1.26729
1.36908
1.46707
1.55361
1.62073
1.66001
1.66477
1.62894
1.54556
1.4064
1.20015
0.913721
0.551885
0.173785
1.03407
1.08669
1.04028
1.02227
0.995643
0.962645
0.926664
0.89521
0.877135
0.876823
0.893646
0.925386
0.971993
1.03597
1.11894
1.21852
1.32779
1.43741
1.53831
1.62242
1.68201
1.70971
1.69908
1.6443
1.54027
1.38156
1.16015
0.867159
0.513788
0.160614
0.946663
1.0144
0.977089
0.965794
0.943128
0.908897
0.872324
0.844195
0.834413
0.847151
0.878805
0.923469
0.980363
1.05456
1.15048
1.26557
1.38978
1.51049
1.61701
1.70153
1.7572
1.77694
1.75389
1.68272
1.55999
1.38301
1.1472
0.847549
0.498233
0.15623
0.86357
0.921717
0.902984
0.900349
0.880426
0.843723
0.80237
0.775006
0.775828
0.80724
0.85864
0.917201
0.982261
1.06513
1.17586
1.31145
1.45632
1.59263
1.70842
1.79733
1.85347
1.86939
1.83777
1.75323
1.61351
1.41846
1.16702
0.857667
0.505069
0.160019
0.777753
0.803055
0.815271
0.828218
0.806608
0.759307
0.708894
0.682633
0.699733
0.759501
0.838304
0.910413
0.977883
1.06556
1.194
1.35846
1.53245
1.69012
1.81935
1.91642
1.97735
1.9944
1.95855
1.86358
1.70799
1.49386
1.22358
0.898928
0.533783
0.171397
0.623106
0.642572
0.716554
0.748261
0.71851
0.652231
0.587743
0.563242
0.605326
0.710286
0.829199
0.910485
0.967111
1.05162
1.20307
1.41067
1.62676
1.81225
1.95627
2.06405
2.13502
2.15898
2.12338
2.02042
1.84923
1.61381
1.31974
0.972236
0.58398
0.190017
-0.1868
0.475966
0.626397
0.689639
0.632279
0.530206
0.440447
0.411752
0.487781
0.669545
0.852256
0.928124
0.946673
1.01395
1.20027
1.47749
1.75247
1.96628
2.12304
2.24437
2.33244
2.37051
2.33961
2.22995
2.0419
1.78144
1.4574
1.07816
0.655632
0.215912
72.9445
73.011
73.141
73.3223
73.5476
73.8128
74.1143
74.4467
74.8037
75.178
75.5611
75.943
76.312
76.6533
76.9497
77.18
77.3185
77.3334
77.1855
76.8254
76.1861
75.1815
73.6996
71.5841
68.6202
64.433
58.7533
49.9365
39.419
9.55099
72.6176
72.6805
72.7992
72.9621
73.1624
73.3964
73.6602
73.9483
74.254
74.5695
74.8861
75.1933
75.4786
75.7268
75.9197
76.0357
76.0486
75.9258
75.6285
75.107
74.2948
73.1086
71.4404
69.1427
66.0175
61.7435
56.0968
47.9846
39.1456
34.0786
72.2729
72.3316
72.4385
72.5821
72.7564
72.9581
73.1831
73.4257
73.679
73.9348
74.1841
74.4161
74.6178
74.7735
74.8646
74.8693
74.7611
74.5075
74.0707
73.4018
72.437
71.0981
69.2857
66.869
63.6842
59.5013
54.2425
47.5722
40.9409
39.1636
71.9108
71.9652
72.0595
72.1831
72.3308
72.4993
72.6846
72.881
73.0811
73.2768
73.4586
73.6156
73.7346
73.7994
73.7915
73.6892
73.466
73.0906
72.5264
71.7266
70.6325
69.1731
67.2615
64.7917
61.6449
57.6867
52.9358
47.3379
41.1131
35.9991
71.5322
71.5818
71.6633
71.7663
71.8866
72.0213
72.1665
72.3161
72.4629
72.5983
72.713
72.7961
72.8339
72.8106
72.7076
72.5038
72.1734
71.6866
71.0089
70.097
68.8987
67.352
65.3861
62.9223
59.8834
56.2009
51.9044
46.9922
41.4217
36.322
71.138
71.1827
71.2508
71.3327
71.4252
71.5258
71.6307
71.7335
71.8269
71.9026
71.9512
71.9619
71.9211
71.8131
71.6201
71.3214
70.8928
70.3063
69.5302
68.5261
67.2487
65.6467
63.6664
61.2532
58.3615
54.9625
51.0864
46.7817
42.0951
37.6878
70.7293
70.7688
70.8233
70.8839
70.9482
71.0147
71.0794
71.1357
71.1763
71.1932
71.1773
71.1178
71.0017
70.8134
70.5359
70.1501
69.633
68.9592
68.1005
67.024
65.6916
64.0631
62.1
59.7675
57.0426
53.9215
50.4379
46.653
42.6241
38.6844
70.3075
70.3416
70.3823
70.4215
70.4576
70.49
70.5148
70.5253
70.5144
70.4739
70.3954
70.2687
70.081
69.8175
69.4622
68.9973
68.4021
67.6538
66.7281
65.5979
64.2326
62.6014
60.6789
58.4459
55.8948
53.0348
49.8978
46.5354
42.9967
39.4841
69.8742
69.9026
69.9293
69.9471
69.9552
69.9539
69.9395
69.9054
69.8444
69.7485
69.6099
69.4194
69.1647
68.8314
68.4052
67.8701
67.2074
66.3972
65.4195
64.2528
62.8729
61.2578
59.3928
57.2697
54.8901
52.2682
49.4332
46.4281
43.2989
40.1858
69.4311
69.4537
69.4664
69.4627
69.4433
69.4091
69.3564
69.2789
69.1695
69.0206
68.8252
68.5749
68.258
67.861
67.3711
66.7745
66.0547
65.1949
64.1791
62.9908
61.6116
60.0271
58.2307
56.2212
54.0051
51.5983
49.0275
46.3293
43.5443
40.7738
68.98
68.9968
68.9955
68.9707
68.9243
68.8578
68.7682
68.649
68.4931
68.2941
68.0454
67.7398
67.366
66.9114
66.3652
65.7158
64.9491
64.0508
63.0094
61.8122
60.4459
58.9026
57.1811
55.2843
53.2208
51.0071
48.6671
46.2317
43.7348
41.2531
68.5231
68.5339
68.5187
68.4732
68.4007
68.3031
68.178
68.019
67.8192
67.5729
67.2749
66.9184
66.493
65.9872
65.3924
64.6988
63.8943
62.9678
61.9114
60.7158
59.3719
57.8768
56.2327
54.4444
52.5217
50.4805
48.342
46.132
43.8783
41.6411
68.0627
68.0673
68.0384
67.973
67.8754
67.7478
67.5887
67.392
67.151
66.861
66.5176
66.1148
65.6432
65.0927
64.4565
63.7268
62.8931
61.9475
60.8851
59.6994
58.3849
56.9421
55.3749
53.6892
51.8953
50.0078
48.0453
46.0292
43.9825
41.9528
67.6011
67.5996
67.5573
67.4725
67.3509
67.195
67.0036
66.7715
66.4922
66.162
65.7772
65.3329
64.8206
64.2314
63.5608
62.8024
61.9473
60.9905
59.9295
58.7601
57.4797
56.0908
54.5982
53.0084
51.3314
49.5807
47.7721
45.9234
44.0535
42.2007
67.141
67.1333
67.078
66.9745
66.8303
66.6479
66.426
66.1607
65.8464
65.4796
65.0575
64.5763
64.0285
63.4067
62.7079
61.9272
61.0578
60.0968
59.0431
57.8945
56.651
55.3159
53.8943
52.3932
50.822
49.1926
47.5185
45.8148
44.0968
42.3952
66.6852
66.6712
66.6032
66.4821
66.3166
66.1095
65.8592
65.563
65.2168
64.8172
64.3619
63.8481
63.2699
62.6213
61.9001
61.1028
60.2251
59.2654
58.2235
57.099
55.8934
54.6107
53.2561
51.8364
50.3603
48.8383
47.2821
45.7042
44.1169
42.5454
66.2367
66.2162
66.136
65.9985
65.813
65.5826
65.3062
64.9819
64.6067
64.1779
63.6936
63.1515
62.5473
61.8771
61.1388
60.3302
59.4492
58.495
57.4681
56.3695
55.2019
53.9694
52.6772
51.3317
49.941
48.5142
47.0612
45.5925
44.1183
42.6588
65.7983
65.7713
65.6795
65.5268
65.3227
65.0706
64.7704
64.4207
64.0194
63.5647
63.0553
62.4891
61.8636
61.1762
60.4253
59.6101
58.7295
57.7839
56.7742
55.7025
54.5721
53.387
52.1524
50.8742
49.5598
48.2171
46.8546
45.4809
44.1045
42.7419
65.3732
65.34
65.2371
65.0701
64.8487
64.5768
64.255
63.8826
63.4582
62.9808
62.4497
61.8635
61.2207
60.5201
59.7607
58.9424
58.0653
57.1304
56.1392
55.0945
53.9997
52.859
51.6771
50.4597
49.2134
47.945
46.6617
45.3707
44.0789
42.8002
64.9648
64.9253
64.8121
64.6318
64.3945
64.1046
63.7634
63.3707
62.9261
62.4291
61.8796
61.277
60.6207
59.9102
59.1455
58.3269
57.4555
56.5328
55.5608
54.5425
53.4815
52.3817
51.2478
50.085
48.8991
47.6961
46.482
45.263
44.0447
42.8386
64.5766
64.531
64.4078
64.2153
63.9635
63.6573
63.2988
62.8884
62.4263
61.9126
61.3478
60.732
60.0652
59.3478
58.5802
57.7636
56.8995
55.9897
55.0368
54.0438
53.0143
51.9521
50.8615
49.7475
48.6151
47.4694
46.3157
45.1591
44.0045
42.8612
64.2124
64.1605
64.0279
63.824
63.5591
63.2384
62.8647
62.439
61.9619
61.4342
60.8568
60.2304
59.5558
58.8337
58.0654
57.2523
56.3964
55.5
54.5655
53.5963
52.5958
51.5677
50.5161
49.4453
48.3598
47.2642
46.163
45.0605
43.961
42.872
63.8756
63.8179
63.6762
63.4616
63.1847
62.8515
62.4647
62.0258
61.5359
60.9965
60.4089
59.7743
59.0939
58.3691
57.6015
56.793
55.9458
55.0623
54.1454
53.1982
52.224
51.2265
50.2093
49.1765
48.1321
47.08
46.0242
44.9683
43.9161
42.8737
63.5705
63.507
63.3565
63.1318
62.8444
62.5002
62.1021
61.6519
61.1514
60.6023
60.0065
59.3656
58.6813
57.9552
57.1894
56.3861
55.5476
54.6765
53.7759
52.8486
51.8981
50.9276
49.9406
48.9409
47.9319
46.9173
45.9004
44.8845
43.8727
42.8702
63.3012
63.232
63.0727
62.8385
62.5417
62.188
61.7802
61.3204
60.811
60.2541
59.6518
59.0062
58.3191
57.5928
56.8294
56.0313
55.2012
54.3416
53.4555
52.546
51.6162
50.6692
49.7083
48.7368
47.7581
46.7753
45.7913
44.8091
43.8313
42.8622
63.0725
62.9971
62.8287
62.5854
62.2805
61.9188
61.5029
61.0354
60.5189
59.9559
59.3487
58.6997
58.0111
57.2852
56.5245
55.7316
54.909
54.0597
53.1864
52.2922
51.3801
50.453
49.5141
48.5665
47.6131
46.6568
45.7003
44.7462
43.7968
42.8557
62.8899
62.8071
62.6281
62.3758
62.0634
61.6947
61.2719
60.7979
60.2756
59.7078
59.097
58.4456
57.7561
57.0311
56.2731
55.4848
54.669
53.8283
52.9659
52.0844
51.1869
50.2762
49.3552
48.4268
47.4938
46.5588
45.6242
44.6924
43.7654
42.8462
62.7608
62.6659
62.475
62.2158
61.8984
61.5246
61.0965
60.6175
60.0908
59.5194
58.9058
58.2528
57.5628
56.8387
56.083
55.2985
54.488
53.6544
52.8005
51.9292
51.0431
50.1453
49.2383
48.325
47.4079
46.4896
45.5722
44.658
43.749
42.8476
62.6972
62.5713
62.362
62.0974
61.7774
61.4005
60.9691
60.4871
59.958
59.3847
58.7698
58.1162
57.4264
56.7033
55.9496
55.1681
54.3617
53.533
52.6851
51.8207
50.9425
50.0532
49.1556
48.2523
47.3457
46.4382
45.5319
44.6289
43.731
42.8403
62.7283
62.5495
62.3173
62.0465
61.7233
61.3428
60.9081
60.4236
59.8926
59.3179
58.7022
58.0482
57.3588
56.6366
55.8844
55.1052
54.3016
53.4765
52.6327
51.773
50.9001
50.0166
49.1251
48.2283
47.3286
46.428
45.5289
44.633
43.7421
42.8579
-76.2824
-49.5621
-21.8247
27.5811
23.734
20.6125
30.0782
21.8756
17.2408
27.5767
22.557
19.572
30.8596
27.2294
24.4407
33.3444
30.2604
27.7199
34.9173
32.2937
30.1169
36.2276
33.9824
32.1072
37.341
35.3809
33.7377
38.2554
36.5208
35.0653
39.004
37.4555
36.1552
39.6177
38.2246
37.0539
40.1196
38.8574
37.7958
40.5287
39.3776
38.4088
40.8608
39.8046
38.9152
41.129
40.1543
39.333
41.3441
40.4396
39.6771
41.5151
40.6715
39.9597
41.6497
40.8587
40.191
41.7542
41.009
40.3794
41.8342
41.1288
40.5321
41.8947
41.2237
40.6556
41.9392
41.298
40.7544
41.9726
41.3568
40.8342
41.9956
41.4016
40.8968
42.0155
41.4396
40.9494
42.0266
41.4654
40.9873
42.0455
41.4959
41.0264
42.0491
41.508
41.0455
42.0793
41.5469
41.0883
3.52059
2.20045
0.752844
0.613105
0.439638
0.280018
0.163294
0.142955
0.302801
0.654935
0.948272
0.977262
0.90271
0.930648
1.1786
1.57086
1.92133
2.159
2.32243
2.46265
2.57984
2.6421
2.6206
2.50431
2.29548
2.0037
1.64055
1.21715
0.748171
0.248437
14.6481
5.1773
1.53273
1.06089
0.994143
0.727976
0.431192
0.320479
0.581351
1.01795
1.18771
1.013
0.75936
0.757733
1.16375
1.73589
2.14864
2.373
2.53022
2.70936
2.88124
2.98277
2.97523
2.85143
2.61989
2.29159
1.87837
1.39734
0.864867
0.283789
12.8612
7.11092
4.2767
3.26897
2.60598
1.89768
1.3124
1.009
0.998499
1.07394
1.04558
0.888777
0.779
1.04436
1.64423
2.18348
2.47112
2.57032
2.70041
2.95563
3.2159
3.36945
3.37593
3.24266
2.98841
2.62675
2.16878
1.62913
1.0126
0.314744
16.1386
11.9735
8.92971
6.89988
5.40433
4.19233
3.25959
2.63223
2.26297
2.0298
1.8225
1.61695
1.52088
1.66369
1.97423
2.28405
2.53717
2.82419
3.19154
3.54877
3.80207
3.89865
3.84134
3.65819
3.36893
2.97696
2.47631
1.86148
1.14026
0.325425
20.9462
17.0654
13.6256
10.8785
8.77818
7.14007
5.85564
4.8809
4.1675
3.63993
3.22442
2.8979
2.7059
2.69866
2.84678
3.06357
3.28896
3.52276
3.75581
3.95955
4.10709
4.17583
4.15092
4.01858
3.76065
3.35971
2.80811
2.11211
1.29256
0.342186
24.6205
21.1366
17.6964
14.7003
12.2885
10.3514
8.77461
7.50113
6.49126
5.69509
5.06338
4.57308
4.23385
4.05911
4.02662
4.07953
4.16859
4.27727
4.39899
4.51585
4.59542
4.60166
4.50766
4.29813
3.96433
3.49998
2.90094
2.16731
1.31011
0.292606
27.4875
24.4408
21.2067
18.2121
15.6773
13.5607
11.7764
10.2763
9.03072
8.00704
7.17131
6.50081
5.98785
5.62759
5.39985
5.26757
5.19511
5.16097
5.14924
5.13658
5.09124
4.98236
4.78761
4.49272
4.08715
3.5618
2.91124
2.13761
1.26038
0.259181
29.8374
27.1515
24.1747
21.2972
18.7618
16.5706
14.6669
13.016
11.5988
10.3951
9.38149
8.53776
7.85003
7.30671
6.8901
6.57394
6.32987
6.13413
5.96586
5.80175
5.61533
5.38091
5.07735
4.68852
4.20222
3.61033
2.91124
2.1132
1.24442
0.304597
31.7446
29.353
26.6355
23.9301
21.4715
19.2846
17.3344
15.5989
14.0683
12.7317
11.5745
10.5801
9.73405
9.02345
8.43311
7.94254
7.5281
7.16735
6.83941
6.5226
6.19392
5.83087
5.41378
4.92694
4.35913
3.70459
2.96494
2.15215
1.29681
0.409711
33.2956
31.1507
28.6747
26.1576
23.815
21.6813
19.7355
17.9655
16.3687
14.9415
13.6755
12.5585
11.5776
10.7214
9.97785
9.33
8.75746
8.24057
7.76056
7.29778
6.83194
6.34342
5.81493
5.23256
4.58663
3.87297
3.09461
2.26397
1.40833
0.541815
34.5701
32.6336
30.3736
28.04
25.8276
23.7734
21.8645
20.0954
18.4685
16.9853
15.6421
14.4305
13.3404
12.3629
11.4887
10.7035
9.99004
9.33182
8.71259
8.11504
7.52166
6.91563
6.28195
5.60853
4.88712
4.11438
3.29318
2.43388
1.5572
0.676217
35.6232
33.8642
31.7944
29.6315
27.5509
25.5886
23.736
21.9916
20.361
18.849
17.4552
16.1742
14.999
13.9237
12.9408
12.0379
11.2018
10.4193
9.67627
8.95749
8.24819
7.53416
6.80245
6.04246
5.24696
4.41279
3.54163
2.64047
1.72273
0.798506
36.4959
34.889
32.986
30.9786
29.0252
27.1589
25.3733
23.6686
22.0527
20.5322
19.1087
17.7794
16.5403
15.3881
14.3167
13.3159
12.3757
11.4858
10.6341
9.80767
8.99416
8.18153
7.35851
6.51582
5.6469
4.74818
3.81962
2.86466
1.89023
0.902994
37.2203
35.7446
33.9879
32.1206
30.2861
28.5149
26.8011
25.1455
23.5564
22.0419
20.6052
19.2455
17.9611
16.7501
15.6078
14.5268
13.4994
12.5176
11.5712
10.6496
9.74289
8.84052
7.93237
7.01041
6.06854
5.10258
4.11065
3.09303
2.05163
0.989964
37.8223
36.46
34.8317
33.0897
31.3647
29.6846
28.0435
26.4419
24.888
23.3903
21.9531
20.5771
19.2621
18.0073
16.8094
15.6634
14.5639
13.5042
12.4755
11.47
10.4802
9.4965
8.50915
7.51128
6.49731
5.46245
4.40328
3.3176
2.20371
1.06261
38.3224
37.0586
35.5428
33.9125
32.2874
30.6929
29.1227
27.5769
26.0633
24.5898
23.1614
21.7799
20.4461
19.1598
17.9195
16.7218
15.563
14.4378
13.3388
12.2599
11.1959
10.138
9.07697
8.00692
6.92251
5.81853
4.69045
3.5343
2.34602
1.12472
38.7375
37.5591
36.1421
34.611
33.0763
31.561
30.0585
28.5683
27.097
25.6525
24.2397
22.8609
21.5175
20.2104
18.9389
17.7009
16.4938
15.3137
14.1548
13.0124
11.882
10.7561
9.62701
8.48896
7.33668
6.16477
4.96805
3.74138
2.47926
1.17949
39.0815
37.9771
36.6467
35.2036
33.7502
32.3074
30.8684
29.4319
28.0036
26.5907
25.1979
23.8279
22.4825
21.1629
19.8692
18.6004
17.3546
16.1288
14.919
13.7217
12.5323
11.3451
10.1534
8.95182
7.73487
6.49732
5.23371
3.93814
2.60433
1.22918
39.3657
38.3257
37.071
35.7058
34.325
32.9481
31.5679
30.1822
28.7962
27.4159
26.046
24.689
23.347
22.0214
20.7128
19.421
18.1446
16.8815
15.6292
14.3843
13.1429
11.9005
10.6517
9.39117
8.11338
6.81346
5.48587
4.12418
2.72176
1.275
39.6
38.6158
37.4273
36.1306
34.8146
33.4969
32.1704
30.8324
29.4867
28.139
26.7933
25.4521
24.1174
22.7908
21.4732
20.1648
18.8647
17.5716
16.2836
14.9979
13.711
12.4193
11.1187
9.80381
8.46943
7.11116
5.72328
4.29897
2.8317
1.3175
39.7924
38.8563
37.7256
36.4891
35.2303
33.9658
32.688
31.3936
30.086
28.7698
27.4486
26.1247
24.8
23.4761
22.154
20.834
19.5159
18.1986
16.8809
15.5605
14.2341
12.8991
11.5521
10.1872
8.80015
7.38821
5.94478
4.46203
2.93403
1.35672
39.9499
39.0554
37.9748
36.791
35.5826
34.3651
33.1309
31.8763
30.6038
29.3174
28.0201
26.7141
25.4009
24.0822
22.7589
21.4315
20.0998
18.7633
17.4211
16.0715
14.7113
13.3385
11.9505
10.5408
9.10597
7.64453
6.14953
4.61282
3.02886
1.39316
40.0781
39.2191
38.1818
37.0437
35.8793
34.7032
33.5078
32.2888
31.0482
29.7893
28.5148
27.2263
25.9255
24.6135
23.2914
21.9596
20.618
19.2661
17.9044
16.5308
15.1417
13.7354
12.3105
10.8615
9.38488
7.87816
6.33514
4.74926
3.11463
1.42586
40.1827
39.3539
38.3537
37.255
36.1286
34.9885
33.8269
32.6395
31.4274
30.1935
28.94
27.6684
26.3798
25.0754
23.756
22.4222
21.0735
19.7098
18.3322
16.9389
15.5254
14.0904
12.633
11.1497
9.6368
8.0892
6.50237
4.87282
3.19326
1.45613
40.2663
39.4629
38.494
37.4287
36.3347
35.2254
34.093
32.9328
31.7457
30.5339
29.2992
28.0429
26.7659
25.4691
24.1533
22.8188
21.4654
20.0931
18.7025
17.292
15.8581
14.3995
12.9147
11.4017
9.85685
8.27349
6.64816
4.97966
3.2602
1.48095
40.3357
39.5529
38.6102
37.5728
36.5059
35.4224
34.3146
33.1776
32.0117
30.8189
29.6007
28.358
27.0916
25.8021
24.4902
23.156
21.7999
20.4217
19.0207
17.5956
16.1454
14.6678
13.1605
11.6219
10.0488
8.4356
6.77872
5.07612
3.32082
1.50429
40.3879
39.6215
38.6994
37.6844
36.6394
35.5767
34.4887
33.3705
32.222
31.0448
29.8401
28.6088
27.3513
26.0681
24.7597
23.4262
22.068
20.6852
19.276
17.8398
16.3765
14.8834
13.3578
11.798
10.2013
8.56326
6.88054
5.14962
3.36474
1.51889
40.436
39.6816
38.7756
37.778
36.7498
35.7031
34.6306
33.527
32.3921
31.2273
30.0334
28.8111
27.5609
26.283
24.9778
23.6453
22.2857
20.8987
19.4839
18.0404
16.5665
15.0602
13.5202
11.9444
10.3296
8.67221
6.96847
5.21459
3.40547
1.53409
40.4629
39.7154
38.8197
37.8339
36.8172
35.7813
34.719
33.6252
32.4994
31.3427
30.156
28.9399
27.6945
26.4202
25.1171
23.7854
22.4246
21.0344
19.6158
18.1675
16.6862
15.1708
13.6211
12.0344
10.4073
8.73632
7.01776
5.2478
3.42199
1.53518
40.5045
39.7551
38.8647
37.8865
36.8767
35.8468
34.7901
33.7016
32.5806
31.4282
30.2452
29.0319
27.7887
26.5157
25.2132
23.8811
22.5191
21.127
19.7057
18.2538
16.7681
15.2475
13.6917
12.098
10.4631
8.78339
7.05498
5.27325
3.43222
1.52202
)
;

boundaryField
{
    inlet
    {
        type            zeroGradient;
    }
    outlet
    {
        type            fixedValue;
        value           uniform 0;
    }
    flap
    {
        type            zeroGradient;
    }
    upperWall
    {
        type            zeroGradient;
    }
    lowerWall
    {
        type            zeroGradient;
    }
    frontAndBack
    {
        type            empty;
    }
}


// ************************************************************************* //
