/*--------------------------------*- C++ -*----------------------------------*\
| =========                 |                                                 |
| \\      /  F ield         | OpenFOAM: The Open Source CFD Toolbox           |
|  \\    /   O peration     | Version:  dev                                   |
|   \\  /    A nd           | Web:      www.OpenFOAM.org                      |
|    \\/     M anipulation  |                                                 |
\*---------------------------------------------------------------------------*/
FoamFile
{
    version     2.0;
    format      ascii;
    class       surfaceVectorField;
    location    "0.52";
    object      Uf;
}
// * * * * * * * * * * * * * * * * * * * * * * * * * * * * * * * * * * * * * //

dimensions      [0 1 -1 0 0 0 0];

internalField   nonuniform List<vector> 
879
(
(-9.48074 6.173e-21 0.361977)
(-9.10976 7.27974e-20 0.696722)
(-10.3846 1.73876e-20 0.326811)
(-10.0212 -5.80755e-20 0.651357)
(-11.2273 1.04327e-21 0.288213)
(-10.8769 1.75421e-20 0.597775)
(-11.9954 -2.69912e-20 0.246206)
(-11.6635 -2.61954e-20 0.535977)
(-12.6744 4.57742e-21 0.200805)
(-12.3669 2.95352e-20 0.465963)
(-13.2493 1.02279e-20 0.152034)
(-12.9722 -8.83478e-21 0.387848)
(-13.7048 -4.86262e-21 0.0999115)
(-13.4639 -9.86598e-21 0.30195)
(-14.0253 0 0.0443496)
(-13.8269 0 0.208792)
(-14.1957 0 -0.0150064)
(-14.0459 1.57756e-22 0.108989)
(-14.2004 0 -0.0789638)
(-14.1055 9.72992e-21 0.00300037)
(-14.0232 -4.22388e-21 -0.148946)
(-13.9899 -1.86261e-20 -0.109394)
(-13.6492 -6.32359e-21 -0.226513)
(-13.6908 1.74562e-20 -0.226725)
(-13.0631 -4.48394e-21 -0.314377)
(-13.1953 5.71999e-21 -0.348892)
(-12.2432 7.52575e-22 -0.418284)
(-12.4883 1.06409e-21 -0.479451)
(-11.1548 3.54677e-21 -0.548408)
(-11.5465 1.02106e-21 -0.625144)
(-9.74318 -9.05733e-23 -0.724361)
(-10.3268 -3.83444e-22 -0.796563)
(-7.91206 -3.58369e-22 -0.98929)
(-8.74742 2.57477e-21 -1.01529)
(-5.44158 -3.26951e-22 -1.43642)
(-6.67122 -4.95807e-23 -1.34617)
(-1.8115 3.55351e-23 -2.35646)
(-3.90221 -2.12683e-24 -1.94443)
(0.576989 5.07278e-23 -3.10484)
(-9.6284 1.06434e-20 1.00595)
(-9.03138 6.64904e-20 1.36643)
(-10.4917 -5.85923e-20 0.935053)
(-9.89263 -7.39756e-20 1.27427)
(-11.2917 -8.98778e-21 0.852001)
(-10.6989 0 1.16577)
(-12.0147 2.98209e-20 0.756729)
(-11.4369 -4.29825e-23 1.04087)
(-12.6462 1.69049e-20 0.64928)
(-12.0929 5.89579e-20 0.899533)
(-13.171 -2.88113e-20 0.52994)
(-12.6517 -1.30999e-20 0.741979)
(-13.5735 -5.13371e-21 0.399291)
(-13.0982 1.60006e-20 0.568881)
(-13.8385 1.56265e-22 0.258103)
(-13.4169 -1.04986e-20 0.381408)
(-13.9511 9.75439e-21 0.107095)
(-13.5931 -1.02269e-20 0.18104)
(-13.8976 -8.64894e-21 -0.0531214)
(-13.6114 6.03215e-20 -0.0305956)
(-13.6678 2.92171e-21 -0.220313)
(-13.4592 -2.84724e-20 -0.251256)
(-13.2528 2.98977e-20 -0.392931)
(-13.1332 2.1383e-20 -0.478301)
(-12.6412 1.15179e-20 -0.574096)
(-12.6234 -8.12644e-21 -0.712995)
(-11.8169 1.04347e-21 -0.771733)
(-11.9193 3.47704e-21 -0.961424)
(-10.755 -3.21179e-21 -1.00024)
(-11.0045 2.94297e-21 -1.23508)
(-9.41497 2.32809e-21 -1.28799)
(-9.84974 -7.06119e-22 -1.55273)
(-7.72861 2.90741e-21 -1.69903)
(-8.40374 5.7935e-22 -1.95039)
(-5.5934 -5.56542e-22 -2.36275)
(-6.58718 -1.44463e-23 -2.50984)
(-2.90565 -4.5304e-22 -3.44173)
(-4.32035 -3.73127e-23 -3.38444)
(-1.71316 7.57187e-22 -4.73235)
(-9.2752 -1.57587e-20 1.62341)
(-8.59688 0 1.99223)
(-10.0792 -1.60466e-20 1.49696)
(-9.39871 -2.0198e-22 1.85572)
(-10.8237 8.97574e-21 1.34978)
(-10.1504 1.78106e-20 1.69527)
(-11.4955 2.85852e-20 1.18181)
(-10.8393 -6.91497e-20 1.51062)
(-12.0804 3.01693e-20 0.993191)
(-11.4513 7.68521e-20 1.30153)
(-12.5635 3.14451e-20 0.784564)
(-11.9713 -9.87543e-21 1.06818)
(-12.9294 1.08871e-20 0.557266)
(-12.3836 -2.15915e-20 0.811538)
(-13.1628 -2.09835e-20 0.313305)
(-12.6728 -2.10905e-20 0.533428)
(-13.2494 3.95307e-20 0.055322)
(-12.8236 3.25967e-20 0.236449)
(-13.1772 4.11678e-20 -0.21344)
(-12.8206 -1.2389e-20 -0.0760807)
(-12.9366 -1.02797e-20 -0.49048)
(-12.6547 -1.8432e-20 -0.39983)
(-12.5209 -1.62382e-20 -0.7757)
(-12.3242 1.84469e-20 -0.730303)
(-11.9234 -1.60551e-20 -1.07318)
(-11.8228 -8.35757e-21 -1.06875)
(-11.1344 5.38143e-21 -1.39299)
(-11.1452 -7.41574e-21 -1.4228)
(-10.1389 5.48245e-21 -1.75266)
(-10.2819 1.17468e-20 -1.80692)
(-8.91318 -2.15704e-21 -2.1833)
(-9.21692 1.74468e-21 -2.24449)
(-7.42415 -2.19682e-21 -2.74615)
(-7.92678 -4.93494e-21 -2.77617)
(-5.65006 0 -3.54937)
(-6.38518 -2.21509e-21 -3.4769)
(-3.64671 6.9946e-22 -4.66866)
(-4.59807 -1.22958e-23 -4.45812)
(-2.8759 4.05361e-22 -5.7086)
(-8.70098 1.57548e-20 2.21227)
(-7.9782 0 2.57547)
(-9.45012 3.36943e-20 2.04173)
(-8.72258 -1.82911e-20 2.39904)
(-10.1461 -5.94916e-20 1.84354)
(-9.42326 3.70394e-20 2.19128)
(-10.7756 -2.3664e-20 1.61728)
(-10.0674 -1.59115e-19 1.95139)
(-11.3241 3.71697e-20 1.36274)
(-10.6406 5.13301e-20 1.67871)
(-11.7759 -6.32862e-20 1.08039)
(-11.1271 6.3007e-20 1.37322)
(-12.1146 -5.39661e-20 0.771601)
(-11.5104 -2.1112e-20 1.03608)
(-12.3246 3.1681e-20 0.438727)
(-11.7742 -1.07279e-20 0.669951)
(-12.3915 -1.88409e-20 0.0851712)
(-11.9031 4.29233e-20 0.27894)
(-12.3042 -7.20578e-20 -0.284083)
(-11.8809 -6.29025e-20 -0.131359)
(-12.0559 1.00168e-20 -0.66286)
(-11.7032 -8.75328e-21 -0.553375)
(-11.6443 2.64448e-20 -1.04863)
(-11.3714 1.879e-20 -0.980053)
(-11.0675 9.24359e-23 -1.44628)
(-10.8834 -8.25259e-21 -1.41238)
(-10.3218 -1.45245e-21 -1.86794)
(-10.2389 2.29085e-20 -1.85897)
(-9.40111 7.87465e-21 -2.33384)
(-9.43462 -5.23923e-21 -2.33591)
(-8.29667 -1.2408e-21 -2.87625)
(-8.46546 1.51502e-20 -2.86789)
(-7.00416 -4.5322e-21 -3.54803)
(-7.32952 -6.58117e-21 -3.49308)
(-5.55013 -2.24717e-21 -4.42333)
(-6.03843 9.53024e-23 -4.26964)
(-4.05507 -1.78542e-22 -5.49737)
(-4.64281 5.24664e-22 -5.25958)
(-3.43142 -6.91005e-22 -6.34713)
(-7.98114 -3.3856e-20 2.75486)
(-7.22641 -1.68639e-19 3.1165)
(-8.67636 -1.5586e-20 2.54222)
(-7.91238 1.68416e-19 2.90484)
(-9.32485 -6.08294e-20 2.29383)
(-8.56119 -1.76019e-19 2.65441)
(-9.91292 -8.85322e-20 2.00861)
(-9.15988 1.17193e-19 2.36363)
(-10.4254 7.58438e-20 1.68606)
(-9.69361 -8.82829e-20 2.03126)
(-10.8458 1.06057e-19 1.32674)
(-10.1459 6.07843e-20 1.65698)
(-11.1571 2.20986e-20 0.932906)
(-10.4995 -4.83237e-20 1.24216)
(-11.3432 0 0.508743)
(-10.7376 9.24231e-20 0.790534)
(-11.3902 0 0.0605147)
(-10.8441 4.64757e-20 0.308305)
(-11.2884 0 -0.403332)
(-10.8023 -4.57336e-20 -0.196082)
(-11.0344 0 -0.874261)
(-10.6143 -6.33411e-20 -0.7108)
(-10.6301 -1.56497e-20 -1.34884)
(-10.2837 2.1779e-20 -1.22564)
(-10.0784 1.44672e-20 -1.83192)
(-9.81346 -1.53188e-20 -1.74115)
(-9.38126 1.91971e-20 -2.33635)
(-9.20758 1.57191e-21 -2.2669)
(-8.53923 1.65387e-21 -2.88266)
(-8.46775 2.27666e-21 -2.81978)
(-7.5555 9.28581e-21 -3.50037)
(-7.59677 4.10193e-21 -3.4232)
(-6.44589 -1.31232e-21 -4.2303)
(-6.60724 -3.82319e-21 -4.10857)
(-5.26379 3.59344e-21 -5.11445)
(-5.53463 2.56908e-21 -4.91413)
(-4.14279 4.37041e-22 -6.09692)
(-4.44599 7.04859e-22 -5.86049)
(-3.5668 1.13397e-21 -6.78745)
(-7.13951 2.85749e-20 3.25788)
(-6.36093 -1.35831e-19 3.61315)
(-7.77809 1.14303e-20 3.0087)
(-6.98495 1.67184e-19 3.37104)
(-8.37642 -3.71131e-21 2.71597)
(-7.57843 -1.95377e-19 3.08272)
(-8.92065 1.19544e-19 2.37792)
(-8.12851 2.82239e-19 2.74564)
(-9.39521 -1.05979e-19 1.99354)
(-8.62023 -3.588e-20 2.35783)
(-9.78301 -9.25128e-20 1.56328)
(-9.03662 -1.86254e-19 1.91854)
(-10.0663 1.95769e-20 1.08992)
(-9.35959 5.05462e-22 1.42924)
(-10.2283 1.39345e-19 0.579144)
(-9.57149 9.24139e-20 0.894931)
(-10.2556 1.6498e-21 0.0398514)
(-9.65526 -2.69454e-20 0.324525)
(-10.1399 -1.08903e-19 -0.515436)
(-9.59351 2.61445e-20 -0.269979)
(-9.88165 -4.16917e-20 -1.0737)
(-9.39635 -2.08686e-20 -0.87116)
(-9.48795 2.28294e-20 -1.62933)
(-9.06976 -2.06034e-20 -1.46505)
(-8.96648 -2.81966e-20 -2.18754)
(-8.62193 1.83585e-20 -2.05213)
(-8.32307 -1.51001e-20 -2.76188)
(-8.06047 -2.8958e-20 -2.64349)
(-7.56293 4.50134e-21 -3.37188)
(-7.39028 1.37962e-20 -3.25664)
(-6.69685 -9.59996e-21 -4.04177)
(-6.61868 -9.51215e-21 -3.9121)
(-5.75279 0 -4.79847)
(-5.7662 0 -4.63216)
(-4.79642 1.66416e-22 -5.6574)
(-4.88124 0 -5.4354)
(-3.95108 1.34727e-21 -6.53699)
(-4.03063 6.29833e-21 -6.31338)
(-3.38751 -4.09048e-23 -7.09827)
(-6.18856 -2.19967e-21 3.7176)
(-5.39341 1.52642e-19 4.06184)
(-6.76624 -3.63343e-20 3.43662)
(-5.95075 1.10222e-19 3.79431)
(-7.31045 8.36692e-20 3.10411)
(-6.4844 0 3.47321)
(-7.80748 1.31634e-19 2.71736)
(-6.98194 -1.86565e-19 3.09493)
(-8.24158 -1.13003e-19 2.27463)
(-7.4286 3.21062e-19 2.65658)
(-8.59521 -9.64749e-20 1.77617)
(-7.80725 -3.57705e-19 2.15675)
(-8.84968 7.12162e-20 1.22546)
(-8.09898 1.68904e-19 1.59676)
(-8.98728 -7.2683e-20 0.630441)
(-8.28477 1.02763e-19 0.982893)
(-8.99496 -2.87367e-21 0.003911)
(-8.34604 -1.50293e-19 0.327627)
(-8.86602 1.14847e-19 -0.63643)
(-8.26371 4.77351e-20 -0.352675)
(-8.60546 3.06448e-22 -1.27283)
(-8.05904 6.53948e-20 -1.03334)
(-8.22589 -2.48904e-20 -1.89789)
(-7.73937 -4.23809e-20 -1.69611)
(-7.73967 1.8248e-20 -2.51782)
(-7.3186 1.80749e-20 -2.34223)
(-7.15536 0 -3.14744)
(-6.80709 0 -2.98554)
(-6.4802 0 -3.80484)
(-6.21108 -1.29778e-20 -3.64462)
(-5.72852 0 -4.50768)
(-5.53937 1.7766e-20 -4.33631)
(-4.93374 0 -5.26886)
(-4.81495 -1.91954e-20 -5.07276)
(-4.16401 6.07507e-21 -6.08355)
(-4.09184 -4.76513e-21 -5.85463)
(-3.52535 4.96897e-21 -6.86146)
(-3.42651 7.3115e-22 -6.65508)
(-2.96424 -9.6397e-22 -7.31654)
(-5.13798 2.63336e-19 4.12992)
(-4.33408 2.4557e-19 4.45823)
(-5.64975 1.47696e-19 3.82238)
(-4.81944 1.30723e-19 4.17066)
(-6.1353 -2.68541e-19 3.45547)
(-5.28827 1.65112e-19 3.82244)
(-6.5814 -5.48671e-21 3.02538)
(-5.72891 -2.26405e-19 3.40878)
(-6.97251 8.67932e-20 2.52952)
(-6.1273 4.22454e-19 2.9257)
(-7.29089 -1.00636e-19 1.96756)
(-6.4666 -2.93177e-19 2.37084)
(-7.51689 2.01104e-19 1.34343)
(-6.72717 -8.09289e-21 1.74491)
(-7.63112 2.90387e-20 0.667631)
(-6.88801 2.08077e-19 1.05504)
(-7.62015 -1.01529e-19 -0.0421756)
(-6.92795 -7.76107e-20 0.318213)
(-7.47876 -1.9246e-21 -0.761758)
(-6.82464 -7.64287e-20 -0.443689)
(-7.21746 2.31738e-20 -1.46744)
(-6.61461 2.2948e-20 -1.1963)
(-6.85537 0 -2.1502)
(-6.30534 0 -1.91671)
(-6.40915 0 -2.81866)
(-5.91647 -1.90895e-20 -2.60853)
(-5.88856 -1.28544e-20 -3.49008)
(-5.45984 3.79357e-20 -3.29024)
(-5.30062 4.97963e-21 -4.18125)
(-4.94128 3.10392e-21 -3.98236)
(-4.65994 -1.35467e-21 -4.90282)
(-4.36889 1.23407e-20 -4.69765)
(-4.00038 -2.42698e-20 -5.65443)
(-3.76405 4.01411e-21 -5.43805)
(-3.38633 -9.9181e-21 -6.41612)
(-3.18251 -4.76486e-21 -6.18858)
(-2.90697 -4.97533e-21 -7.09815)
(-2.66323 -5.26999e-21 -6.91089)
(-2.34835 2.69769e-22 -7.46398)
(-3.99794 1.09999e-19 4.49054)
(-3.19432 1.25958e-19 4.79755)
(-4.43846 1.45131e-19 4.1622)
(-3.60208 2.70636e-20 4.49576)
(-4.86048 2.11725e-19 3.76694)
(-4.00065 3.5259e-19 4.12665)
(-5.25167 1.92439e-19 3.29975)
(-4.37953 5.99583e-20 3.68425)
(-5.59715 5.39582e-20 2.75688)
(-4.72588 -1.51615e-19 3.16331)
(-5.87935 -2.05152e-19 2.13698)
(-5.02387 -4.94487e-20 2.5602)
(-6.07793 -5.1137e-21 1.44378)
(-5.25351 4.40005e-21 1.87442)
(-6.1711 1.05398e-19 0.69046)
(-5.39086 5.18108e-20 1.11291)
(-6.1436 -5.30976e-20 -0.0988577)
(-5.41112 5.31361e-20 0.297652)
(-5.99105 -5.25442e-20 -0.891313)
(-5.28686 -5.20214e-20 -0.542166)
(-5.73136 0 -1.65623)
(-5.0758 0 -1.35852)
(-5.39076 -1.89023e-20 -2.38385)
(-4.7825 0 -2.12435)
(-4.98922 1.86619e-20 -3.08719)
(-4.43136 -6.12921e-20 -2.84813)
(-4.53608 5.46029e-20 -3.78761)
(-4.03415 1.92686e-20 -3.55531)
(-4.0362 1.08591e-20 -4.50111)
(-3.59487 -6.78884e-22 -4.26926)
(-3.5024 1.78244e-20 -5.23125)
(-3.11978 3.01582e-22 -4.99835)
(-2.96606 2.34916e-20 -5.9656)
(-2.62626 3.7805e-20 -5.73462)
(-2.48404 0 -6.67234)
(-2.17017 1.42063e-20 -6.45009)
(-2.13151 0 -7.2657)
(-1.76856 8.34622e-21 -7.09815)
(-1.57845 0 -7.55463)
(-2.78068 4.19294e-20 4.79485)
(-1.98812 0 5.07482)
(-3.14418 2.28285e-19 4.45195)
(-2.3125 -1.82434e-19 4.76486)
(-3.49713 2.07392e-19 4.03507)
(-2.63472 3.66058e-19 4.38153)
(-3.82856 -2.77759e-19 3.53795)
(-2.94578 -3.54513e-20 3.91776)
(-4.12483 -2.56518e-19 2.95536)
(-3.23471 -2.99706e-19 3.3669)
(-4.36909 1.59489e-19 2.28437)
(-3.48778 -9.27911e-21 2.72366)
(-4.54091 6.14168e-20 1.52744)
(-3.68552 2.21743e-19 1.98577)
(-4.61631 3.73474e-22 0.699971)
(-3.79928 -1.67854e-19 1.15873)
(-4.57552 5.55631e-20 -0.165333)
(-3.79901 1.13313e-19 0.268126)
(-4.41449 0 -1.02373)
(-3.65609 0 -0.646318)
(-4.16138 0 -1.83677)
(-3.45393 0 -1.5168)
(-3.84843 -4.17865e-20 -2.59589)
(-3.18679 -4.61415e-20 -2.31515)
(-3.49691 -6.13472e-20 -3.32088)
(-2.88135 6.8003e-20 -3.05775)
(-3.11428 -3.60486e-20 -4.03858)
(-2.54792 1.07991e-21 -3.77886)
(-2.70174 -1.12461e-20 -4.76493)
(-2.18829 1.60223e-20 -4.50565)
(-2.26974 1.99518e-20 -5.49676)
(-1.80715 5.7261e-21 -5.24122)
(-1.84572 2.87352e-20 -6.21085)
(-1.41682 -5.76796e-21 -5.96844)
(-1.47754 2.26043e-20 -6.86534)
(-1.07203 -1.5778e-22 -6.64902)
(-1.22915 8.42794e-21 -7.37777)
(-0.768691 -1.15208e-22 -7.22901)
(-0.683666 0 -7.59878)
(-1.50175 -2.22475e-19 5.03785)
(-0.733301 4.19393e-20 5.2851)
(-1.78198 -5.44144e-20 4.68672)
(-0.968837 -2.70218e-19 4.97278)
(-2.05906 1.31097e-19 4.25529)
(-1.20817 4.27362e-19 4.58175)
(-2.32381 -5.06165e-20 3.73592)
(-1.44384 -1.96538e-19 4.10417)
(-2.56467 -5.72799e-20 3.12153)
(-1.66728 0 3.53207)
(-2.76651 4.76446e-20 2.40707)
(-1.86822 5.78731e-20 2.8582)
(-2.90951 -2.05961e-21 1.593)
(-2.02967 -3.58915e-21 2.07774)
(-2.96984 -5.88873e-20 0.695869)
(-2.11558 1.22283e-19 1.19445)
(-2.91966 5.89177e-20 -0.240667)
(-2.08037 -5.84763e-20 0.232358)
(-2.75667 0 -1.15595)
(-1.93254 -1.20976e-21 -0.751835)
(-2.52124 -4.56761e-20 -2.00448)
(-1.75901 -7.65129e-22 -1.66408)
(-2.24626 6.3823e-20 -2.78214)
(-1.53499 -4.61401e-20 -2.48267)
(-1.95118 1.31676e-19 -3.51769)
(-1.28642 6.66661e-20 -3.23341)
(-1.6413 5.2656e-20 -4.24402)
(-1.02139 3.8375e-20 -3.95949)
(-1.31423 3.30925e-20 -4.97631)
(-0.739936 -5.16539e-20 -4.69253)
(-0.97815 -2.00604e-20 -5.70507)
(-0.447783 0 -5.4295)
(-0.655961 -3.46009e-20 -6.39799)
(-0.152717 -2.48583e-20 -6.1453)
(-0.387174 -2.27496e-20 -7.0047)
(0.0950411 -9.81725e-21 -6.79323)
(-0.225363 -8.48221e-21 -7.44436)
(0.311436 -8.39929e-21 -7.31289)
(0.314076 0 -7.60558)
(-0.181408 -2.15292e-21 5.2168)
(0.547112 -1.59543e-19 5.42407)
(-0.372443 2.00204e-19 4.86338)
(0.40484 4.51063e-20 5.11442)
(-0.565991 1.11793e-19 4.42433)
(0.254429 2.00518e-19 4.72128)
(-0.754676 -1.47745e-19 3.89109)
(0.102219 -3.89865e-20 4.23648)
(-0.92954 1.14482e-19 3.25477)
(-0.0451876 -1.05615e-19 3.65129)
(-1.07892 8.95586e-21 2.50728)
(-0.181411 5.58511e-20 2.95694)
(-1.1877 1.20752e-19 1.64585)
(-0.294633 -1.18808e-19 2.14684)
(-1.23306 1.22421e-19 0.685712)
(-0.340717 4.21296e-19 1.22035)
(-1.17484 -1.20914e-19 -0.317755)
(-0.24844 -2.37086e-19 0.191423)
(-1.02441 -6.45943e-21 -1.28065)
(-0.126438 -2.65016e-21 -0.84929)
(-0.825569 -7.72878e-22 -2.15156)
(-0.00535289 -5.38933e-20 -1.78837)
(-0.603941 -4.3559e-20 -2.93655)
(0.154247 -4.94636e-20 -2.61737)
(-0.373506 -2.6235e-20 -3.67436)
(0.332385 -4.39985e-20 -3.37012)
(-0.136483 -6.54454e-20 -4.40608)
(0.523296 3.91317e-20 -4.09707)
(0.108303 -8.53671e-20 -5.14306)
(0.726826 -3.35817e-20 -4.83171)
(0.355688 -4.56612e-21 -5.86561)
(0.93741 0 -5.56726)
(0.586757 -1.16371e-22 -6.53525)
(1.14788 -9.26228e-21 -6.27111)
(0.768033 4.51945e-21 -7.09593)
(1.3148 9.00641e-21 -6.88919)
(0.857822 0 -7.46989)
(1.45588 0 -7.35761)
(1.39598 -3.06924e-21 -7.58569)
(1.15147 -1.14743e-19 5.32551)
(1.82575 -3.59614e-19 5.48877)
(1.05396 4.35904e-20 4.97609)
(1.77846 2.3217e-19 5.18593)
(0.950257 5.69759e-20 4.53682)
(1.72033 -1.32043e-19 4.79498)
(0.846741 6.76669e-21 3.99904)
(1.65718 -9.65051e-20 4.30778)
(0.750361 -1.66039e-19 3.35337)
(1.59484 -1.55929e-21 3.71553)
(0.669123 -7.08068e-20 2.58958)
(1.53774 -1.72647e-19 3.00903)
(0.615089 1.68576e-19 1.69492)
(1.49347 -4.3426e-21 2.17919)
(0.615551 6.06052e-20 0.674014)
(1.50457 1.21487e-19 1.21594)
(0.681353 -1.2221e-19 -0.388519)
(1.6268 -1.20364e-19 0.145587)
(0.785376 -5.34879e-20 -1.38198)
(1.70999 3.80041e-22 -0.916958)
(0.916909 -1.03335e-19 -2.26571)
(1.77084 5.20824e-20 -1.87036)
(1.06279 -4.99605e-20 -3.05417)
(1.85244 -5.09989e-20 -2.70545)
(1.21598 2.05491e-20 -3.79135)
(1.95022 4.37972e-20 -3.46024)
(1.3756 7.16638e-20 -4.51957)
(2.06366 2.08013e-20 -4.18886)
(1.54131 5.15663e-20 -5.25262)
(2.19291 3.32591e-20 -4.92498)
(1.71053 -4.6094e-21 -5.96886)
(2.33295 -2.11364e-20 -5.66044)
(1.86522 -1.13551e-22 -6.62027)
(2.47287 -2.00744e-20 -6.35409)
(1.97576 4.5679e-21 -7.14543)
(2.57412 6.0692e-21 -6.94608)
(2.00775 -3.03894e-21 -7.46866)
(2.65303 -1.50678e-21 -7.37082)
(2.54035 1.27766e-23 -7.54598)
(2.46756 -1.97735e-20 5.35768)
(3.0766 -1.58221e-19 5.47948)
(2.46347 6.38514e-20 5.0145)
(3.12217 2.55809e-19 5.18674)
(2.45091 -2.84169e-19 4.57703)
(3.15538 -1.73854e-19 4.80134)
(2.43578 -1.05323e-19 4.03686)
(3.18165 -2.03556e-19 4.31531)
(2.42411 -6.04067e-21 3.38468)
(3.20659 1.04036e-19 3.72003)
(2.42329 -1.13813e-19 2.60981)
(3.23435 -1.69727e-19 3.00565)
(2.44563 -5.86664e-20 1.70312)
(3.27032 1.68127e-19 2.16005)
(2.4963 -6.02381e-20 0.681228)
(3.33927 -1.16405e-19 1.17863)
(2.55359 6.82394e-22 -0.388777)
(3.45479 -5.96041e-20 0.105582)
(2.60416 1.08956e-19 -1.40574)
(3.50862 1.11628e-19 -0.950352)
(2.65765 1.03857e-19 -2.30799)
(3.517 5.303e-20 -1.90337)
(2.71809 4.19374e-20 -3.10781)
(3.52236 4.60392e-20 -2.74098)
(2.78953 4.42484e-20 -3.8526)
(3.54013 4.32822e-20 -3.50105)
(2.87504 -1.76287e-20 -4.58711)
(3.58025 -5.62823e-20 -4.23681)
(2.97397 -3.90913e-20 -5.32406)
(3.64574 -1.52988e-20 -4.97944)
(3.07925 -3.64655e-20 -6.03673)
(3.72855 -6.37256e-21 -5.71709)
(3.17151 -1.40354e-20 -6.67171)
(3.8121 1.04748e-20 -6.40198)
(3.22324 -8.68924e-23 -7.16484)
(3.85947 -1.95792e-20 -6.97043)
(3.20554 1.49537e-21 -7.4443)
(3.88549 -1.16754e-23 -7.35693)
(3.72387 3.0466e-21 -7.48835)
(3.74257 1.12272e-19 5.31806)
(4.28586 1.51812e-19 5.39887)
(3.82849 2.7201e-20 4.9839)
(4.4196 1.74183e-20 5.11889)
(3.90442 -9.11581e-20 4.55103)
(4.53974 -9.17793e-20 4.74185)
(3.97579 0 4.01129)
(4.651 9.54913e-20 4.25999)
(4.04796 -5.67437e-20 3.35562)
(4.75804 -1.93974e-19 3.66501)
(4.12609 1.04898e-19 2.57386)
(4.86379 4.01376e-20 2.94746)
(4.21218 1.12956e-19 1.6614)
(4.96964 1.17984e-19 2.09768)
(4.29364 -1.16046e-19 0.641012)
(5.07859 -4.14097e-21 1.12104)
(4.34623 5.25169e-20 -0.416331)
(5.18334 -5.95292e-20 0.06898)
(4.35835 5.73224e-20 -1.41821)
(5.20504 1.63044e-19 -0.958885)
(4.34568 -6.47311e-21 -2.31486)
(5.1657 -5.38721e-20 -1.89478)
(4.32876 4.75769e-20 -3.11824)
(5.10663 2.49222e-20 -2.72896)
(4.32584 -5.5981e-20 -3.87248)
(5.05781 -8.04419e-20 -3.49709)
(4.34732 -5.4271e-20 -4.61796)
(5.03969 -3.87075e-20 -4.24691)
(4.39211 1.72281e-20 -5.36222)
(5.05742 3.31724e-20 -5.00247)
(4.44733 4.04896e-20 -6.07303)
(5.09832 9.34043e-21 -5.74516)
(4.48989 5.03746e-21 -6.69278)
(5.13925 3.18656e-20 -6.42195)
(4.49254 -1.96725e-20 -7.15655)
(5.143 -7.27338e-21 -6.96768)
(4.43076 1.5096e-21 -7.398)
(5.12325 1.81935e-20 -7.31905)
(4.91441 -5.74732e-21 -7.41336)
(4.80654 2.14009e-19 5.43361)
(5.23182 6.181e-20 5.41369)
(4.99502 5.84539e-20 5.20731)
(5.46757 1.56596e-19 5.2439)
(5.16718 -1.01389e-19 4.88564)
(5.68443 -1.01382e-19 4.97989)
(5.32745 9.61608e-20 4.46116)
(5.88614 0 4.61473)
(5.47991 -9.54325e-20 3.92621)
(6.07602 9.84879e-20 4.14122)
(5.62776 -1.02503e-19 3.2727)
(6.25659 -1.54377e-19 3.55201)
(5.77128 4.84608e-20 2.49323)
(6.42791 5.41818e-20 2.83993)
(5.90223 -2.10266e-22 1.59011)
(6.58566 -5.44392e-20 2.00149)
(5.99771 5.53938e-20 0.594277)
(6.71873 5.54496e-20 1.052)
(6.03088 5.07245e-20 -0.427289)
(6.81092 5.01252e-20 0.0446833)
(6.00038 5.18179e-20 -1.39906)
(6.80356 -4.62102e-20 -0.939022)
(5.93067 -2.32606e-20 -2.28219)
(6.72732 9.03844e-20 -1.84853)
(5.85336 -1.04519e-19 -3.08855)
(6.62431 -6.6811e-20 -2.67787)
(5.79618 -6.34602e-20 -3.85709)
(6.53373 -1.01781e-19 -3.45899)
(5.77377 4.99658e-20 -4.61985)
(6.48228 -1.4599e-20 -4.23042)
(5.78238 2.57419e-20 -5.37554)
(6.47371 6.91953e-20 -5.00449)
(5.80255 -1.31832e-22 -6.08546)
(6.48886 3.0083e-20 -5.75343)
(5.80669 2.00406e-20 -6.68951)
(6.49813 2.45399e-21 -6.42023)
(5.76753 3.14325e-20 -7.12448)
(6.46431 2.59888e-20 -6.94081)
(5.6655 1.13562e-20 -7.33096)
(6.4013 8.27715e-22 -7.25702)
(6.14289 -2.80302e-22 -7.31633)
(5.91043 0 5.23192)
(6.17743 0 5.02545)
(6.42706 0 4.7195)
(6.85908 -5.25319e-20 4.77405)
(6.66206 0 4.30748)
(7.13007 0 4.42484)
(6.88423 4.56926e-20 3.7827)
(7.38594 8.58986e-20 3.96526)
(7.09341 -7.83541e-22 3.13914)
(7.62593 -6.08249e-20 3.38964)
(7.28479 -4.86516e-20 2.37404)
(7.84634 -4.84341e-20 2.69431)
(7.44424 0 1.4971)
(8.0379 -1.50658e-21 1.88246)
(7.54741 5.0175e-20 0.543717)
(8.18373 4.66144e-20 0.976167)
(7.57174 -4.72339e-20 -0.426484)
(8.26693 5.12195e-21 0.0263406)
(7.5203 -8.19039e-21 -1.35592)
(8.24664 -1.90532e-19 -0.904129)
(7.42132 4.87457e-20 -2.21929)
(8.15653 1.34442e-19 -1.7815)
(7.31469 -6.34262e-20 -3.02966)
(8.04169 -2.49367e-20 -2.60634)
(7.23471 -5.36694e-20 -3.81804)
(7.9459 -1.89876e-21 -3.40534)
(7.19611 3.31757e-21 -4.60348)
(7.8948 -1.94416e-20 -4.20328)
(7.1894 7.45744e-20 -5.37245)
(7.88509 -4.1148e-21 -4.99696)
(7.18808 3.33355e-20 -6.07954)
(7.88982 1.36284e-20 -5.74871)
(7.16117 7.98459e-21 -6.66432)
(7.87498 -5.28527e-21 -6.39982)
(7.08307 -4.75325e-21 -7.06805)
(7.80571 5.14823e-22 -6.89039)
(6.93959 -1.10191e-20 -7.23973)
(7.69853 -3.16075e-20 -7.16957)
(7.38622 5.7588e-21 -7.19534)
(7.58244 -5.38096e-20 4.49011)
(7.87742 8.59142e-20 4.09597)
(8.15454 -1.82407e-20 3.58871)
(8.56939 1.44232e-19 3.74124)
(8.40952 -1.09991e-19 2.96522)
(8.84982 -1.10703e-19 3.18777)
(8.6334 -2.41769e-21 2.22776)
(9.10188 -4.34253e-20 2.52066)
(8.80978 4.45404e-20 1.39169)
(9.31268 8.3626e-20 1.74831)
(8.9165 1.43544e-21 0.493297)
(9.46414 9.1874e-20 0.896376)
(8.93708 -1.37608e-19 -0.417814)
(9.542 -8.94272e-20 0.0106539)
(8.88098 -5.03585e-20 -1.30188)
(9.5246 -6.89262e-21 -0.864846)
(8.78209 6.19789e-20 -2.1466)
(9.44914 4.11929e-20 -1.71279)
(8.68429 3.73205e-20 -2.96524)
(9.36222 1.6767e-21 -2.53896)
(8.62014 3.33433e-20 -3.77752)
(9.30286 3.56682e-20 -3.36072)
(8.59636 -2.73574e-20 -4.58593)
(9.28529 2.25239e-20 -4.18489)
(8.59394 -6.67396e-20 -5.36366)
(9.2942 -5.6478e-20 -4.99177)
(8.58051 -2.55983e-20 -6.06045)
(9.2961 3.00661e-21 -5.73617)
(8.52497 -1.30135e-20 -6.61867)
(9.25703 -1.7659e-22 -6.36132)
(8.40644 -2.62587e-20 -6.98658)
(9.1483 -2.47181e-20 -6.81448)
(8.21787 -1.52464e-20 -7.12251)
(8.99182 -1.4567e-20 -7.05349)
(8.61917 0 -7.04664)
(9.28741 5.68713e-20 3.35388)
(9.56745 -4.39453e-20 2.76063)
(9.96752 -2.02347e-20 2.96145)
(9.80801 4.05227e-20 2.06242)
(10.2259 -4.42378e-20 2.3303)
(9.99205 1.31332e-19 1.27761)
(10.4398 4.5823e-20 1.60567)
(10.1017 2.52896e-21 0.440181)
(10.5912 4.41285e-20 0.813074)
(10.13 4.21318e-20 -0.41203)
(10.6726 -2.26313e-20 -0.010531)
(10.096 8.56421e-20 -1.2562)
(10.6842 4.83345e-20 -0.8401)
(10.0374 -1.94671e-20 -2.09005)
(10.662 -5.6573e-20 -1.67042)
(9.99261 -8.05773e-22 -2.92271)
(10.6446 -3.5008e-20 -2.50615)
(9.9809 2.48805e-20 -3.7583)
(10.6542 -4.03399e-21 -3.3501)
(9.99415 -5.71161e-21 -4.58167)
(10.6868 1.45189e-20 -4.19023)
(10.0039 1.37446e-20 -5.35544)
(10.716 -1.59247e-20 -4.9941)
(9.97664 2.91137e-20 -6.02864)
(10.7073 3.12173e-20 -5.71429)
(9.8861 -1.16334e-20 -6.54982)
(10.6326 -3.23407e-22 -6.29996)
(9.71962 -1.30349e-20 -6.87595)
(10.4731 8.28826e-21 -6.70737)
(9.47888 6.504e-22 -6.97491)
(10.2581 1.41959e-20 -6.90332)
(9.81731 0 -6.86556)
(10.6475 -1.99281e-20 2.53889)
(10.8794 -4.12785e-20 1.88457)
(11.0593 -4.32896e-20 1.15394)
(11.5574 -5.55035e-21 1.4639)
(11.1749 1.98157e-20 0.374296)
(11.7028 -2.03992e-20 0.724134)
(11.2321 -1.75971e-20 -0.429938)
(11.8019 7.71033e-20 -0.0530394)
(11.2568 -9.4939e-20 -1.24874)
(11.8682 -3.98578e-20 -0.857117)
(11.279 -7.31044e-20 -2.08214)
(11.9257 -2.19626e-20 -1.68454)
(11.3181 -3.88633e-20 -2.92877)
(11.9925 2.1349e-20 -2.53105)
(11.3719 -1.50149e-20 -3.77592)
(12.0681 -4.36592e-22 -3.38398)
(11.4185 4.67154e-21 -4.59502)
(12.1328 2.91668e-20 -4.21783)
(11.4265 1.13165e-21 -5.34428)
(12.1567 -2.36345e-20 -4.99493)
(11.3678 1.74958e-21 -5.97687)
(12.1114 -1.22452e-20 -5.67127)
(11.2259 1.97771e-20 -6.44976)
(11.9792 -2.22667e-21 -6.20433)
(10.9985 3.59071e-20 -6.72897)
(11.7526 -7.29101e-21 -6.55961)
(10.6963 1.37587e-20 -6.79113)
(11.4679 2.20426e-21 -6.71188)
(10.952 0 -6.64713)
(12.2208 1.78598e-20 1.0287)
(12.3459 3.60938e-20 0.28906)
(12.4485 5.73988e-20 -0.489213)
(13.1374 2.29607e-20 -0.130197)
(12.547 3.49578e-20 -1.30005)
(13.2543 -3.1696e-20 -0.928938)
(12.6508 7.41735e-20 -2.13658)
(13.3706 4.3335e-20 -1.7581)
(12.7549 6.13427e-20 -2.98471)
(13.4823 5.86879e-21 -2.60267)
(12.8404 4.43127e-20 -3.8202)
(13.5729 -5.9043e-21 -3.44042)
(12.8805 1.38352e-21 -4.60916)
(13.617 -1.76373e-21 -4.24114)
(12.849 -3.74044e-20 -5.31193)
(13.5895 -6.4219e-22 -4.96876)
(12.7283 -1.65058e-20 -5.88881)
(13.4719 -1.65455e-20 -5.58585)
(12.513 -2.9765e-20 -6.30556)
(13.2572 -1.21639e-20 -6.05845)
(12.2101 -4.19357e-20 -6.53622)
(12.9479 -2.85255e-20 -6.36011)
(11.8379 -1.18392e-20 -6.5648)
(12.585 -7.15825e-22 -6.47209)
(11.9912 4.15039e-21 -6.38722)
(13.9584 -6.76135e-20 -0.579726)
(14.0911 -2.48381e-20 -1.39051)
(14.8655 -5.50143e-21 -1.02774)
(14.2157 -2.5873e-20 -2.22159)
(14.9775 1.12826e-20 -1.8482)
(14.3135 -6.28726e-20 -3.05081)
(15.0619 -5.89352e-20 -2.67062)
(14.3611 -5.30783e-20 -3.8504)
(15.0976 -2.76291e-20 -3.47027)
(14.3357 -3.85383e-21 -4.58805)
(15.063 -2.3788e-20 -4.21826)
(14.2202 2.09745e-20 -5.2298)
(14.941 3.78561e-20 -4.88345)
(14.0071 -1.21934e-20 -5.74369)
(14.7229 1.63001e-21 -5.43546)
(13.6997 -1.07205e-20 -6.10325)
(14.4099 -1.40721e-20 -5.8478)
(13.3119 1.27944e-20 -6.28904)
(14.0111 3.49686e-20 -6.10048)
(12.8664 1.5457e-20 -6.29105)
(13.5692 1.17232e-20 -6.17982)
(12.9024 2.04257e-22 -6.0843)
(15.7675 3.1028e-20 -1.47238)
(15.8386 -2.10172e-20 -2.28115)
(15.8595 -2.38241e-20 -3.07243)
(16.551 -3.73027e-21 -2.68173)
(15.8111 2.02911e-21 -3.82012)
(16.4877 8.93145e-21 -3.42952)
(15.678 1.75627e-20 -4.49637)
(16.3436 1.12387e-20 -4.11671)
(15.4517 1.88413e-20 -5.07343)
(16.1099 2.3093e-20 -4.7175)
(15.1323 -1.33021e-22 -5.52617)
(15.7851 -1.39512e-20 -5.20766)
(14.7287 3.1366e-20 -5.83441)
(15.3759 4.79033e-22 -5.5667)
(14.2582 3.41985e-20 -5.98382)
(14.895 3.18305e-20 -5.77962)
(13.7452 -3.64649e-21 -5.96911)
(14.3843 -2.99808e-22 -5.83671)
(13.6585 -4.14671e-21 -5.74095)
(17.1914 2.87637e-20 -3.01536)
(17.0304 1.79227e-20 -3.70444)
(17.5891 3.88178e-20 -3.30276)
(16.7841 1.69457e-20 -4.31847)
(17.3411 -6.20668e-21 -3.92893)
(16.4504 -9.48624e-21 -4.83504)
(17.0084 -8.3162e-21 -4.46983)
(16.0346 -1.38181e-20 -5.2344)
(16.5945 -4.02308e-21 -4.90612)
(15.5488 3.15034e-22 -5.50118)
(16.1092 1.15124e-20 -5.22184)
(15.0113 -2.68258e-21 -5.62495)
(15.5673 -1.52023e-20 -5.40578)
(14.4466 -7.26961e-22 -5.60406)
(15.0077 6.16796e-21 -5.45119)
(14.2449 3.40682e-22 -5.36438)
(17.9075 1.50181e-20 -3.50632)
(17.572 -3.14818e-20 -4.06195)
(17.158 -2.81959e-21 -4.52531)
(17.5971 -9.3307e-21 -4.15693)
(16.6737 2.13152e-20 -4.88075)
(17.1259 6.83342e-21 -4.54802)
(16.1329 -3.81122e-21 -5.1164)
(16.5953 9.43728e-21 -4.83009)
(15.554 -6.5579e-21 -5.22471)
(16.0207 -1.85993e-20 -4.9946)
(14.9598 6.80617e-21 -5.20656)
(15.4373 -3.69899e-22 -5.03697)
(14.6633 6.49893e-22 -4.96544)
(17.5683 1.0484e-22 -4.16641)
(17.0503 -5.39101e-21 -4.48636)
(17.3967 -1.6973e-21 -4.15679)
(16.4865 -5.10079e-21 -4.69944)
(16.8529 2.40091e-21 -4.41283)
(15.8945 -1.2612e-20 -4.80008)
(16.2742 -2.10955e-22 -4.56493)
(15.2949 -7.82904e-21 -4.79061)
(15.6918 -7.57414e-21 -4.6099)
(14.9312 3.08253e-22 -4.55662)
(17.2004 6.10577e-21 -4.0743)
(16.6424 7.45163e-21 -4.27081)
(16.0623 5.09345e-21 -4.36862)
(16.3655 2.74215e-21 -4.13456)
(15.4785 0 -4.37059)
(15.8041 5.19315e-21 -4.1848)
(15.0769 -4.58429e-22 -4.14979)
(16.0986 2.79086e-21 -3.94525)
(15.5459 5.85912e-21 -3.95881)
(15.8124 6.94149e-22 -3.77333)
(15.132 -4.69641e-22 -3.75462)
(15.5326 -4.73993e-21 -3.56421)
(15.125 0 -3.37782)
)
;

boundaryField
{
    inlet
    {
        type            calculated;
        value           nonuniform 0();
    }
    outlet
    {
        type            calculated;
        value           nonuniform List<vector> 
30
(
(4.09571 0 -3.00099)
(0.188893 1.01455e-22 -4.11303)
(-1.79145 1.41289e-21 -5.317)
(-2.84198 -1.0768e-21 -6.07886)
(-3.30608 -6.66093e-22 -6.59918)
(-3.35979 2.69983e-21 -6.9652)
(-3.10902 -2.46768e-21 -7.22428)
(-2.6242 5.39569e-22 -7.40353)
(-1.95555 0 -7.51992)
(-1.14038 0 -7.5857)
(-0.206425 0 -7.61049)
(0.82714 0 -7.59925)
(1.94038 -6.13812e-21 -7.56935)
(3.10498 6.09352e-21 -7.52105)
(4.29779 0 -7.45459)
(5.49792 -1.17142e-20 -7.36962)
(6.73379 1.13819e-20 -7.26123)
(7.96901 0 -7.12733)
(9.18098 0 -6.96357)
(10.3433 0 -6.76493)
(11.4255 0 -6.52643)
(12.395 8.40135e-21 -6.24473)
(13.2215 -8.19505e-21 -5.92002)
(13.8838 0 -5.55732)
(14.3761 6.89654e-22 -5.16619)
(14.7095 6.09163e-22 -4.75898)
(14.9086 0 -4.34839)
(15.0046 -9.28062e-22 -3.94548)
(15.0279 0 -3.55844)
(15.0034 0 -3.19237)
)
;
    }
    flap
    {
        type            calculated;
        value           nonuniform 0();
    }
    upperWall
    {
        type            calculated;
        value           nonuniform 0();
    }
    lowerWall
    {
        type            calculated;
        value           uniform (0 0 0);
    }
    frontAndBack
    {
        type            empty;
        value           nonuniform 0();
    }
    procBoundary5to2
    {
        type            processor;
        value           nonuniform List<vector> 
34
(
(6.27097 1.59322e-20 5.16649)
(6.57273 -7.24087e-20 5.01917)
(7.27195 -1.26137e-19 4.77616)
(7.95578 -3.61629e-20 4.51222)
(8.26915 7.69306e-20 4.18132)
(8.98131 1.34303e-19 3.83633)
(9.68117 5.69285e-20 3.48852)
(10.3816 -2.01674e-20 3.09987)
(11.1361 -3.72438e-20 2.74231)
(11.3627 3.72219e-20 2.14334)
(12.0609 7.45825e-20 1.71775)
(12.8818 5.44116e-20 1.33632)
(13.015 -3.68547e-20 0.627055)