/*--------------------------------*- C++ -*----------------------------------*\
| =========                 |                                                 |
| \\      /  F ield         | OpenFOAM: The Open Source CFD Toolbox           |
|  \\    /   O peration     | Version:  dev                                   |
|   \\  /    A nd           | Web:      www.OpenFOAM.org                      |
|    \\/     M anipulation  |                                                 |
\*---------------------------------------------------------------------------*/
FoamFile
{
    version     2.0;
    format      ascii;
    class       volScalarField;
    location    "0.34";
    object      p;
}
// * * * * * * * * * * * * * * * * * * * * * * * * * * * * * * * * * * * * * //

dimensions      [0 2 -2 0 0 0 0];

internalField   nonuniform List<scalar> 
465
(
106.859
109.009
110.932
112.59
113.959
115.03
115.813
116.328
116.599
106.71
108.885
110.84
112.539
113.955
115.079
115.919
116.497
116.858
106.151
108.352
110.358
112.132
113.648
114.89
115.859
116.558
117.039
105.277
107.49
109.539
111.389
113.009
114.378
115.481
116.292
116.862
104.106
106.309
108.38
110.285
111.992
113.468
114.682
115.579
116.206
102.638
104.801
106.862
108.788
110.547
112.099
113.396
114.365
115.052
100.868
102.952
104.958
106.86
108.626
110.214
111.57
112.607
113.394
98.7808
100.739
102.636
104.454
106.168
107.741
109.124
110.228
111.168
96.3641
98.1367
99.8561
101.512
103.092
104.576
105.932
107.079
108.225
93.6074
95.1242
96.5787
97.9689
99.2979
100.572
101.796
102.914
104.297
90.5099
91.6889
92.7717
93.7591
94.6677
95.5344
96.4268
97.3463
98.9367
87.0849
87.8363
88.4226
88.8346
89.086
89.2334
89.4196
89.7568
91.3781
83.3655
83.599
83.5557
83.1912
82.4777
81.4373
80.2429
79.1457
80.1876
79.408
79.0465
78.252
76.9095
74.8821
72.0268
68.3211
63.8791
62.1934
75.2929
74.2896
72.6657
70.2018
66.5708
61.2572
53.4806
41.6497
28.2877
-73.9046
-74.4544
-75.5728
-77.4389
-80.1661
-83.8183
-88.4028
-93.8608
-100.058
-106.771
-73.7896
-74.4192
-75.5906
-77.5126
-80.3
-84.0215
-88.6878
-94.2425
-100.552
-107.393
-73.9907
-74.8116
-76.1533
-78.2401
-81.1765
-85.035
-89.8333
-95.523
-101.977
-108.977
-74.7486
-75.7641
-77.2801
-79.5513
-82.6636
-86.6928
-91.6639
-97.5373
-104.194
-111.422
-76.1638
-77.3184
-78.9576
-81.3865
-84.6665
-88.875
-94.0416
-100.134
-107.04
-114.551
-78.2316
-79.432
-81.1254
-83.6672
-87.0882
-91.469
-96.8416
-103.179
-110.375
-118.223
-80.8236
-81.953
-83.6327
-86.2404
-89.7712
-94.3111
-99.8928
-106.493
-114.01
-122.237
-83.6718
-84.6239
-86.245
-88.8842
-92.5008
-97.1888
-102.98
-109.855
-117.712
-126.346
-86.4021
-87.1206
-88.6779
-91.3369
-95.0297
-99.8618
-105.863
-113.016
-121.22
-130.271
-88.6172
-89.1161
-90.6445
-93.3347
-97.1094
-102.088
-108.298
-115.723
-124.264
-133.719
-89.996
-90.3494
-91.9062
-94.6538
-98.5257
-103.656
-110.067
-117.746
-126.591
-136.404
-90.3736
-90.6746
-92.3131
-95.1495
-99.1389
-104.423
-111.017
-118.905
-127.993
-138.084
-89.762
-90.0783
-91.8215
-94.7697
-98.8984
-104.341
-111.102
-119.156
-128.409
-138.67
-88.3262
-88.6757
-90.5045
-93.5629
-97.8505
-103.465
-110.381
-118.557
-127.896
-138.208
-86.3494
-86.7047
-88.5285
-91.6554
-96.1324
-101.938
-108.99
-117.234
-126.572
-136.814
71.0439
69.3874
66.9199
63.3098
58.0074
49.9929
37.1246
12.3405
-55.8968
66.7246
64.4576
61.235
56.6647
50.1027
40.4035
25.6375
4.24404
-26.4137
62.4702
59.6951
55.9087
50.7567
43.7461
34.2438
21.6073
6.55792
-10.4407
58.3834
55.2314
51.0967
45.7129
38.7707
29.9665
18.9837
5.79542
-9.99547
51.1307
46.8163
41.3977
34.6637
26.4053
16.372
4.38392
-9.3307
37.7
31.2533
23.5641
14.5222
4.11189
-7.24096
21.4351
13.379
4.35533
-5.30835
4.71574
-3.66944
-154.842
-134.435
-106.898
-47.1222
-52.4645
-59.0168
-28.1854
-40.0047
-49.7866
-27.1335
-37.9327
-45.9036
-22.6737
-31.3992
-38.4566
-18.0592
-25.4788
-31.843
-14.5893
-21.0263
-26.6056
-11.7039
-17.274
-22.0965
-13.9375
-18.1084
-83.781
-84.6669
-86.2683
-89.3035
-93.9885
-99.9851
-107.13
-115.364
-124.591
-71.0135
-78.2093
-82.0154
-86.3979
-91.732
-97.9354
-105.07
-113.159
-122.127
-63.3167
-73.5139
-78.7656
-83.7108
-89.4754
-95.9432
-103.069
-110.914
-119.471
-56.6771
-67.4714
-74.8752
-81.1851
-87.4634
-94.0187
-101.039
-108.622
-116.74
-48.3628
-59.3046
-68.5446
-76.6359
-84.0643
-91.2053
-98.3857
-105.823
-113.574
-40.6105
-50.8757
-60.8425
-70.0648
-78.4906
-86.381
-94.0159
-101.589
-109.185
-34.0356
-43.1345
-52.8936
-62.4014
-71.2487
-79.5585
-87.5235
-95.2577
-102.8
-28.3594
-36.2429
-45.2747
-54.4375
-63.1497
-71.4241
-79.375
-87.0433
-94.4109
-23.4329
-30.2214
-38.31
-46.7549
-54.9349
-62.7938
-70.3888
-77.7099
-84.6948
-25.0083
-32.126
-39.6973
-47.1317
-54.3393
-61.3422
-68.1022
-74.5327
-40.0186
-46.4812
-52.7835
-58.8762
-64.6656
-45.0022
-50.4149
-55.557
-47.4066
)
;

boundaryField
{
    inlet
    {
        type            zeroGradient;
    }
    outlet
    {
        type            fixedValue;
        value           nonuniform 0();
    }
    flap
    {
        type            zeroGradient;
    }
    upperWall
    {
        type            zeroGradient;
    }
    lowerWall
    {
        type            zeroGradient;
    }
    frontAndBack
    {
        type            empty;
    }
    procBoundary4to1
    {
        type            processor;
        value           nonuniform List<scalar> 
30
(
54.5343
54.5343
47.4111
43.0374
43.0374
34.569
28.4911
28.4911
19.8334
12.6366
12.6366
5.18329
-2.13239
-9.1039
-9.1039
-10.964
-14.5868
-19.1584
-19.1584
-20.4847
-26.7032
-33.3923
-33.3923
-33.6855
-39.4091
-39.4091
-38.0893
-42.8666
-42.8666
-40.2357
)
;
    }
    procBoundary4to2
    {
        type            processor;
        value           nonuniform List<scalar> 
11
(
-128.599
-125.261
-121.55
-116.768
-110.114
-101.413
-91.2503
-80.524
-70.0397
-60.3237
-51.6159
)
;
    }
    procBoundary4to3
    {
        type            processor;
        value           nonuniform List<scalar> 
19
(
104.53
104.365
103.801
102.94
101.805
100.401
98.7277
96.7792
94.5491
92.0351
89.2428
86.1884
82.9021
79.429
75.8286
72.1046
68.2906
64.4844
60.7649
)
;
    }
    procBoundary4to5
    {
        type            processor;
        value           nonuniform List<scalar> 
18
(
-113.684
-114.446
-116.204
-118.901
-122.348
-126.401
-130.848
-135.425
-139.833
-143.747
-146.848
-148.843
-149.606
-149.17
-147.652
-134.628
-134.628
-131.794
)
;
    }
}


// ************************************************************************* //
