/*--------------------------------*- C++ -*----------------------------------*\
| =========                 |                                                 |
| \\      /  F ield         | OpenFOAM: The Open Source CFD Toolbox           |
|  \\    /   O peration     | Version:  dev                                   |
|   \\  /    A nd           | Web:      www.OpenFOAM.org                      |
|    \\/     M anipulation  |                                                 |
\*---------------------------------------------------------------------------*/
FoamFile
{
    version     2.0;
    format      ascii;
    class       volVectorField;
    location    "0.22";
    object      Force;
}
// * * * * * * * * * * * * * * * * * * * * * * * * * * * * * * * * * * * * * //

dimensions      [1 1 -2 0 0 0 0];

internalField   uniform (0 0 0);

boundaryField
{
    inlet
    {
        type            calculated;
        value           nonuniform 0();
    }
    outlet
    {
        type            calculated;
        value           nonuniform 0();
    }
    flap
    {
        type            calculated;
        value           nonuniform List<vector> 
33
(
(2.32139 3.86698e-19 -0.0415052)
(2.31069 -9.43059e-23 -0.0726814)
(2.29622 -3.48717e-22 -0.0934638)
(2.27597 1.80137e-25 -0.0987932)
(2.2501 4.43246e-23 -0.093018)
(2.21763 -3.74908e-22 -0.079311)
(2.17711 -1.60885e-17 -0.0604842)
(2.12637 1.82866e-22 -0.0397208)
(2.06137 -1.83671e-40 -0.0205642)
(1.97616 8.39339e-20 -0.00533621)
(1.86109 1.61553e-17 0.00531498)
(1.70126 -1.91066e-23 0.0123762)
(1.46856 1.62488e-17 0.0162828)
(1.09625 -1.14794e-41 0.0164082)
(0.389968 1.63721e-17 0.0115986)
(-0.0118266 7.46645e-20 1.77261)
(-0.0144732 6.60183e-20 1.56295)
(-0.0101361 -3.96604e-23 1.25692)
(1.82531 2.02038e-39 -0.0314363)
(1.83555 1.19673e-22 -0.0579306)
(1.85411 1.61158e-17 -0.0752821)
(1.88354 1.62856e-17 -0.0813614)
(1.92383 -1.91001e-22 -0.0789743)
(1.97463 2.27219e-22 -0.0698768)
(2.03331 6.84594e-19 -0.0558826)
(2.09423 1.65754e-17 -0.0389437)
(2.15043 1.65519e-17 -0.0216443)
(2.19444 1.64137e-17 -0.00671124)
(2.22037 -1.64584e-17 0.00491519)
(2.22341 9.52765e-24 0.0134933)
(2.2008 1.61866e-17 0.0194456)
(2.15285 -1.82159e-19 0.0223565)
(2.08485 0 0.0211604)
)
;
    }
    upperWall
    {
        type            calculated;
        value           nonuniform 0();
    }
    lowerWall
    {
        type            calculated;
        value           uniform (0 0 0);
    }
    frontAndBack
    {
        type            empty;
    }
    procBoundary4to1
    {
        type            processor;
        value           uniform (0 0 0);
    }
    procBoundary4to2
    {
        type            processor;
        value           uniform (0 0 0);
    }
    procBoundary4to3
    {
        type            processor;
        value           uniform (0 0 0);
    }
    procBoundary4to5
    {
        type            processor;
        value           uniform (0 0 0);
    }
}


// ************************************************************************* //
