/*--------------------------------*- C++ -*----------------------------------*\
| =========                 |                                                 |
| \\      /  F ield         | OpenFOAM: The Open Source CFD Toolbox           |
|  \\    /   O peration     | Version:  dev                                   |
|   \\  /    A nd           | Web:      www.OpenFOAM.org                      |
|    \\/     M anipulation  |                                                 |
\*---------------------------------------------------------------------------*/
FoamFile
{
    version     2.0;
    format      ascii;
    class       volVectorField;
    location    "3.87";
    object      U;
}
// * * * * * * * * * * * * * * * * * * * * * * * * * * * * * * * * * * * * * //

dimensions      [0 1 -1 0 0 0 0];

internalField   nonuniform List<vector> 
465
(
(9.94223 8.4021e-23 0.0196388)
(9.87339 -2.83694e-21 0.0289143)
(9.77263 1.41107e-21 0.0355886)
(9.64605 1.45051e-21 0.0423128)
(9.49954 -3.74607e-22 0.0492551)
(9.3342 1.92285e-21 0.056402)
(9.14918 -3.98932e-22 0.063891)
(8.94356 4.08706e-22 0.0718878)
(8.7165 1.69782e-21 0.0805357)
(8.46701 0 0.0899644)
(8.19391 0 0.100303)
(7.89581 0 0.111683)
(7.57123 0 0.124235)
(7.2186 0 0.138085)
(6.83639 0 0.153344)
(6.42316 1.11719e-21 0.170094)
(5.97778 -1.14787e-21 0.188368)
(5.49957 -4.85821e-21 0.208118)
(4.98858 1.00281e-20 0.229184)
(4.44594 -1.05726e-20 0.251241)
(3.87419 3.29446e-20 0.27375)
(9.9978 -5.36664e-21 0.0399911)
(9.98122 3.0919e-21 0.0619302)
(9.93561 1.05536e-21 0.079004)
(9.86347 -7.21953e-22 0.0966599)
(9.76941 -1.48925e-21 0.115284)
(9.65456 2.29613e-21 0.13478)
(9.51825 3.16163e-21 0.15541)
(9.35962 0 0.177531)
(9.17784 -3.38601e-21 0.201457)
(8.97196 1.73823e-21 0.22747)
(8.74078 -1.82129e-21 0.255842)
(8.48292 3.74168e-21 0.286839)
(8.19686 -1.94689e-21 0.320705)
(7.88099 -1.01137e-21 0.35764)
(7.53367 0 0.397769)
(7.15334 0 0.441091)
(6.73866 -1.14761e-20 0.487418)
(6.28868 4.69609e-21 0.536293)
(5.80313 -2.49295e-20 0.586885)
(5.28273 6.21551e-20 0.637877)
(4.72956 -6.43497e-20 0.687339)
(9.99487 5.36656e-21 0.0434187)
(9.9753 -5.4852e-21 0.0754158)
(9.93167 -8.4392e-21 0.103503)
(9.86426 0 0.132586)
(9.77638 0 0.163372)
(9.66926 -9.18021e-21 0.195853)
(9.54256 -4.74217e-21 0.230373)
(9.3956 8.14929e-21 0.267436)
(9.22773 -3.32938e-21 0.307523)
(9.03816 -6.94146e-21 0.351093)
(8.8259 0 0.398596)
(8.58977 1.03865e-23 0.45048)
(8.32843 1.93303e-21 0.507164)
(8.04042 9.96935e-22 0.569008)
(7.72418 0 0.636256)
(7.37817 4.37763e-21 0.708964)
(7.00091 6.88207e-21 0.78689)
(6.59116 1.4323e-20 0.86936)
(6.14808 -2.92324e-20 0.955094)
(5.67158 0 1.042)
(5.1626 1.06734e-19 1.12695)
(9.99321 -3.34791e-22 0.0495083)
(9.97138 -5.81147e-21 0.0930485)
(9.92763 6.32385e-21 0.133412)
(9.86152 0 0.174189)
(9.77546 2.97571e-21 0.216617)
(9.67064 9.16977e-21 0.261086)
(9.54697 3.128e-21 0.308121)
(9.40398 3.24676e-21 0.358391)
(9.24118 -6.68191e-21 0.412564)
(9.05803 3.47141e-21 0.471283)
(8.8538 0 0.535183)
(8.62761 -3.74051e-21 0.604893)
(8.37848 -3.90749e-21 0.681019)
(8.10531 5.97382e-21 0.764099)
(7.80694 1.04471e-21 0.854544)
(7.48213 -1.07033e-21 0.952544)
(7.12966 0 1.05794)
(6.7484 0 1.17004)
(6.33737 9.70612e-21 1.28738)
(5.89599 0 1.40746)
(5.42426 0 1.52639)
(9.99244 -6.68398e-22 0.05711)
(9.96943 1.16333e-20 0.110775)
(9.92562 -1.12049e-20 0.161997)
(9.86068 0 0.21344)
(9.77645 5.91218e-21 0.266705)
(9.67393 -1.2181e-20 0.322547)
(9.5531 -1.57005e-20 0.381641)
(9.41361 3.2234e-21 0.444752)
(9.25504 6.69016e-21 0.512656)
(9.07694 -6.94245e-21 0.586109)
(8.87874 7.10428e-21 0.66586)
(8.65975 -7.37788e-21 0.752648)
(8.41921 0 0.847188)
(8.15628 3.95965e-21 0.950131)
(7.8701 -1.2953e-22 1.062)
(7.55972 1.32638e-22 1.18309)
(7.22422 -8.93174e-21 1.31333)
(6.86264 2.76984e-20 1.4521)
(6.47404 -1.90076e-20 1.59792)
(6.05757 0 1.74818)
(5.61256 0 1.89863)
(9.99211 0 0.0653593)
(9.96866 0 0.128472)
(9.92519 1.40032e-20 0.189993)
(9.86169 8.60552e-21 0.251947)
(9.77967 -8.86774e-21 0.315973)
(9.67993 -3.02135e-21 0.383045)
(9.56247 6.26118e-21 0.453961)
(9.42698 6.4753e-21 0.529567)
(9.27313 -6.62373e-21 0.610736)
(9.10051 -6.85726e-21 0.698331)
(8.90863 0 0.793204)
(8.69689 -2.87809e-23 0.896195)
(8.46464 7.56091e-21 1.00812)
(8.21119 -3.9477e-21 1.12971)
(7.93577 0 1.2616)
(7.63763 -1.06475e-21 1.40417)
(7.31591 -7.74374e-21 1.55746)
(6.96974 1.13109e-20 1.72095)
(6.59812 0 1.89328)
(6.19993 0 2.07192)
(5.77388 -2.02205e-20 2.25266)
(9.99203 9.96285e-21 0.0738383)
(9.96865 6.80299e-22 0.146037)
(9.92595 0 0.217354)
(9.86418 -1.14658e-20 0.289431)
(9.78473 -1.17487e-20 0.363837)
(9.68825 3.51589e-23 0.441698)
(9.5747 0 0.523951)
(9.44386 0 0.611539)
(9.29543 1.32119e-20 0.705429)
(9.12906 -2.13404e-23 0.80658)
(8.94428 7.02302e-21 0.915938)
(8.74058 0 1.03443)
(8.51735 0 1.16295)
(8.27393 0 1.30234)
(8.00961 0 1.45328)
(7.72361 0 1.61628)
(7.41508 4.31829e-21 1.7915)
(7.08302 -1.35335e-20 1.97858)
(6.72621 1.04116e-20 2.17637)
(6.34316 4.79718e-21 2.38261)
(5.93191 3.00136e-20 2.59345)
(9.9921 -1.06274e-20 0.0823074)
(9.96916 0 0.163291)
(9.9276 1.11103e-20 0.243924)
(9.86789 0 0.32567)
(9.79136 3.60706e-23 0.410031)
(9.69857 1.20715e-20 0.498237)
(9.58949 -6.2241e-21 0.591347)
(9.46391 6.36389e-21 0.690401)
(9.3216 6.55661e-21 0.796449)
(9.16224 -2.0309e-20 0.910538)
(8.98544 -1.39811e-20 1.0337)
(8.79069 0 1.16695)
(8.57744 0 1.31127)
(8.34504 -7.25886e-23 1.46759)
(8.09277 7.95564e-21 1.63672)
(7.81978 0 1.81926)
(7.5251 -1.28231e-20 2.01556)
(7.20753 4.59861e-23 2.22548)
(6.86552 -8.04184e-21 2.44821)
(6.49709 9.48791e-21 2.68193)
(6.09954 1.04637e-22 2.92339)
(9.99227 0 0.0906144)
(9.97004 0 0.180069)
(9.92995 -2.8116e-21 0.269557)
(9.8726 2.83902e-21 0.360497)
(9.79935 1.16971e-20 0.454352)
(9.71067 1.19777e-20 0.552418)
(9.60654 0 0.655859)
(9.4868 0 0.765802)
(9.35126 -1.96899e-20 0.883379)
(9.19966 2.02434e-20 1.00972)
(9.03165 1.39541e-20 1.14593)
(8.84678 -1.43145e-20 1.29314)
(8.64452 -2.96806e-20 1.4524)
(8.42424 2.28057e-20 1.62476)
(8.18519 0 1.81115)
(7.92646 8.13554e-21 2.01236)
(7.64694 8.48774e-21 2.22894)
(7.34519 -4.48712e-21 2.46107)
(7.01933 1.79442e-20 2.70838)
(6.66682 9.36678e-21 2.96968)
(6.28425 -9.5769e-21 3.24255)
(9.99252 0 0.0986547)
(9.97119 2.15411e-20 0.196228)
(9.93286 -3.31297e-20 0.294114)
(9.87818 0 0.393754)
(9.8085 1.74349e-20 0.496598)
(9.72432 -1.79261e-20 0.603994)
(9.6256 -1.22519e-20 0.71719)
(9.51222 -1.2602e-20 0.837395)
(9.38406 0 0.965814)
(9.24091 0 1.10365)
(9.08246 -1.387e-20 1.25211)
(8.90833 2.84576e-20 1.41238)
(8.71803 1.47379e-20 1.58564)
(8.51097 -1.52114e-20 1.77305)
(8.28639 -1.535e-22 1.9757)
(8.04335 2.40004e-20 2.19458)
(7.78062 1.6735e-20 2.43052)
(7.49658 -2.57384e-20 2.6841)
(7.18905 0 2.9555)
(6.85506 0 3.2443)
(6.49053 1.86996e-20 3.54916)
(9.99281 2.09853e-20 0.106352)
(9.97256 -2.15373e-20 0.211652)
(9.93622 2.20545e-20 0.317466)
(9.88447 2.25213e-20 0.425291)
(9.81868 -1.15989e-20 0.536586)
(9.73934 -5.95933e-21 0.652742)
(9.64644 2.44556e-20 0.775076)
(9.5399 6.25174e-21 0.904869)
(9.41966 2.58413e-20 1.04339)
(9.28556 1.01457e-22 1.19192)
(9.13737 -1.36398e-20 1.35174)
(8.97478 1.41674e-20 1.52411)
(8.79737 -4.35465e-20 1.71034)
(8.60458 1.4914e-20 1.91169)
(8.3957 -3.08726e-20 2.12945)
(8.16982 -3.18179e-20 2.36482)
(7.92566 -3.29408e-20 2.61897)
(7.66152 3.36397e-20 2.89292)
(7.37507 0 3.18751)
(7.06305 8.96991e-20 3.50323)
(6.72093 -1.80323e-20 3.84003)
(9.99314 -2.09844e-20 0.113648)
(9.97411 -2.13739e-20 0.226244)
(9.93995 0 0.339497)
(9.89137 -4.493e-20 0.454972)
(9.82973 -2.87615e-20 0.574153)
(9.75554 1.18256e-20 0.698466)
(9.66882 6.12153e-21 0.829284)
(9.56954 -1.24344e-20 0.967949)
(9.45769 8.43346e-23 1.1158)
(9.33319 -2.63894e-20 1.27416)
(9.1959 1.91537e-24 1.44438)
(9.04556 0 1.62783)
(8.88185 1.44402e-20 1.82588)
(8.70432 -2.9725e-20 2.03996)
(8.51233 1.50696e-20 2.27149)
(8.30504 9.40821e-20 2.52196)
(8.08125 -8.05644e-20 2.79285)
(7.83932 6.63747e-20 3.08569)
(7.57693 -1.02466e-19 3.40199)
(7.29082 -1.81192e-20 3.74327)
(6.97635 7.17729e-20 4.11089)
(9.99351 1.30439e-21 0.120498)
(9.97579 2.27064e-20 0.239923)
(9.94399 1.9055e-20 0.360107)
(9.89878 1.68094e-20 0.482678)
(9.84152 3.44402e-20 0.609153)
(9.77275 -5.86702e-21 0.74099)
(9.69252 -1.20346e-20 0.879606)
(9.60086 7.36628e-23 1.02639)
(9.49781 -1.26954e-20 1.18273)
(9.38338 0 1.35002)
(9.25751 1.34014e-20 1.52964)
(9.12005 1.37824e-20 1.72305)
(8.97078 0 1.9317)
(8.80937 1.45434e-20 2.15714)
(8.63533 1.49423e-20 2.40097)
(8.44795 -1.55377e-20 2.66489)
(8.24625 -1.58586e-20 2.95072)
(8.02876 6.48006e-20 3.26047)
(7.79343 3.31347e-20 3.59634)
(7.53728 0 3.96083)
(7.25607 -3.47103e-20 4.35679)
(9.9939 0 0.126865)
(9.97757 2.11882e-20 0.252625)
(9.94827 -2.17759e-20 0.379209)
(9.9066 2.21982e-20 0.508308)
(9.85393 0 0.641468)
(9.7908 0 0.780176)
(9.71732 3.99508e-24 0.925883)
(9.63356 2.46209e-20 1.08002)
(9.53966 1.26701e-20 1.244)
(9.43568 -1.29376e-20 1.41926)
(9.32167 -1.1406e-23 1.60724)
(9.1976 -2.05184e-23 1.80944)
(9.06337 0 2.02739)
(8.91881 -1.45092e-20 2.26273)
(8.76362 -1.49025e-20 2.51719)
(8.59731 1.51029e-20 2.79269)
(8.41918 -3.01859e-22 3.09134)
(8.22813 3.13689e-20 3.41553)
(8.02257 -3.29942e-20 3.7681)
(7.80019 -6.69493e-20 4.15242)
(7.55759 1.36538e-19 4.57266)
(9.99431 -1.93436e-20 0.132721)
(9.97944 -1.41716e-21 0.264297)
(9.95274 5.41212e-21 0.396731)
(9.91475 -2.77191e-20 0.531765)
(9.86681 0 0.670972)
(9.8095 0 0.81586)
(9.74297 0 0.967907)
(9.66736 0 1.12857)
(9.58286 0 1.29929)
(9.48964 -1.28102e-20 1.48152)
(9.38783 0 1.67674)
(9.27753 -1.36009e-20 1.88647)
(9.15881 0 2.11231)
(9.03166 0 2.35596)
(8.89602 2.92715e-20 2.61926)
(8.75168 1.478e-20 2.90425)
(8.59829 -1.22781e-19 3.21325)
(8.43527 9.36809e-20 3.54897)
(8.26169 -6.39196e-20 3.91469)
(8.07616 0 4.31443)
(7.87664 -3.35936e-20 4.75337)
(9.95746 0 0.412929)
(9.92333 -5.30988e-21 0.55342)
(9.88036 1.63005e-20 0.698164)
(9.82917 3.63174e-23 0.848682)
(9.76994 -1.13811e-20 1.00646)
(9.70288 1.17101e-20 1.17298)
(9.62826 1.19124e-20 1.34969)
(9.54635 -1.21299e-20 1.53804)
(9.45739 -1.25349e-20 1.73954)
(9.36163 0 1.95572)
(9.25928 -2.65107e-20 2.18818)
(9.15057 6.76648e-20 2.43868)
(9.03567 -1.32999e-22 2.70908)
(8.91472 -5.70001e-20 3.00151)
(8.78782 2.89696e-20 3.31839)
(8.65497 2.93394e-20 3.6626)
(8.51607 0 4.03763)
(8.37091 -3.03451e-20 4.44785)
(8.21912 3.07457e-20 4.89889)
(9.93232 -2.56913e-20 0.573215)
(9.89452 -5.29061e-21 0.722922)
(9.84966 -3.07097e-23 0.878436)
(9.79798 -1.09942e-20 1.04125)
(9.73976 2.25627e-20 1.21283)
(9.67533 -4.63999e-20 1.39464)
(9.60506 2.38703e-20 1.58813)
(9.52933 3.64581e-20 1.79477)
(9.44851 -1.25727e-20 2.01609)
(9.36302 2.54769e-20 2.2537)
(9.27329 1.30048e-20 2.50931)
(9.17977 -2.70252e-20 2.7848)
(9.08298 0 3.08226)
(8.98348 0 3.40412)
(8.8819 -8.51807e-20 3.75321)
(8.77902 2.91498e-20 4.133)
(8.67584 2.95486e-20 4.54775)
(8.57378 5.80118e-20 5.00295)
(9.9092 0 0.744951)
(9.87088 0 0.904808)
(9.82697 2.15065e-20 1.07193)
(9.77781 -2.20227e-20 1.24779)
(9.72382 2.24235e-20 1.4338)
(9.66547 2.29549e-20 1.63139)
(9.60323 -2.35009e-22 1.84202)
(9.53765 -1.20978e-20 2.06717)
(9.46931 1.22287e-20 2.30838)
(9.39887 -2.51549e-20 2.56732)
(9.32706 -1.99688e-22 2.84576)
(9.25476 -1.29814e-20 3.14573)
(9.18298 0 3.46947)
(9.11298 -1.34144e-20 3.81965)
(9.04634 2.77706e-20 4.19938)
(8.98514 1.3734e-20 4.61248)
(8.93229 -2.83927e-20 5.06362)
(9.89263 2.02249e-20 0.927416)
(9.85666 1.03942e-20 1.09806)
(9.81674 2.33167e-23 1.2773)
(9.77337 -3.26814e-20 1.46653)
(9.72709 0 1.66714)
(9.67852 -2.28417e-20 1.88052)
(9.62831 0 2.10806)
(9.57722 -1.19312e-20 2.35125)
(9.52613 0 2.61161)
(9.47602 0 2.8908)
(9.4281 -2.50518e-20 3.19063)
(9.38379 5.11165e-20 3.5131)
(9.34484 -3.85576e-20 3.8605)
(9.31349 5.25751e-20 4.23542)
(9.29263 -3.15872e-22 4.6409)
(9.28614 0 5.08039)
(9.8868 0 1.11931)
(9.85621 2.05825e-20 1.30101)
(9.82353 -2.10068e-20 1.49244)
(9.78939 2.1376e-20 1.69492)
(9.75449 -4.37773e-20 1.90974)
(9.71962 2.23927e-20 2.13823)
(9.68569 -1.14928e-20 2.38171)
(9.65373 1.15853e-20 2.64157)
(9.62497 2.37226e-20 2.91926)
(9.60087 -6.02479e-20 3.21633)
(9.58315 2.39149e-22 3.53444)
(9.57396 4.96594e-20 3.87538)
(9.57594 -3.73644e-20 4.2411)
(9.59246 -1.21024e-20 4.63368)
(9.62781 8.83508e-20 5.05529)
(9.89589 -1.99135e-20 1.31861)
(9.87387 2.0323e-20 1.51118)
(9.85179 -4.16293e-20 1.71435)
(9.83043 4.24858e-20 1.92931)
(9.81068 0 2.15726)
(9.79357 -1.10798e-20 2.39937)
(9.78026 -4.47867e-20 2.65683)
(9.77216 2.28086e-20 2.93086)
(9.77088 -2.3056e-20 3.22269)
(9.77837 -3.47893e-20 3.53356)
(9.79698 4.75234e-20 3.86475)
(9.82955 -2.57541e-22 4.21749)
(9.87958 0 4.59295)
(9.95135 1.21479e-20 4.99205)
(9.9137 0 1.72514)
(9.90559 0 1.93893)
(9.90056 -1.03531e-20 2.16488)
(9.89971 -1.05326e-20 2.404)
(9.90431 2.15606e-20 2.65726)
(9.91584 2.18294e-20 2.92559)
(9.93604 -2.2242e-20 3.2099)
(9.96692 -2.22336e-20 3.51101)
(10.0109 9.05266e-20 3.82966)
(10.0708 -1.02603e-19 4.16642)
(10.1499 4.03835e-20 4.52161)
(10.2524 -1.69269e-20 4.89515)
(9.97922 1.97496e-20 1.93842)
(9.98833 -9.95147e-21 2.16097)
(10.003 3.07358e-20 2.39556)
(10.0245 1.02415e-20 2.64293)
(10.0544 -2.10853e-20 2.90374)
(10.0944 -2.1203e-20 3.17854)
(10.1465 2.14016e-20 3.46777)
(10.2131 -1.07362e-20 3.77166)
(10.2967 5.39115e-21 4.0902)
(10.4005 2.71169e-20 4.42303)
(10.528 -2.74722e-20 4.76928)
(10.1023 -1.9711e-20 2.37422)
(10.1396 0 2.61417)
(10.1863 0 2.86585)
(10.2443 -1.01378e-20 3.12948)
(10.3153 -1.04071e-20 3.40513)
(10.4015 1.04817e-20 3.69262)
(10.5053 -5.26346e-21 3.99146)
(10.6293 -5.15979e-21 4.30077)
(10.7763 0 4.61915)
(10.3104 0 2.81271)
(10.3842 9.89964e-21 3.06384)
(10.4717 0 3.32465)
(10.5746 1.9752e-20 3.59464)
(10.695 -3.25144e-22 3.87296)
(10.835 -1.26166e-20 4.15837)
(10.9969 1.96283e-20 4.44917)
(10.5132 -2.83202e-20 2.98291)
(10.6146 -4.71264e-21 3.22804)
(10.7313 -1.42111e-20 3.47992)
(10.865 1.45424e-20 3.73746)
(11.0173 1.41343e-20 3.99922)
(11.1899 -1.86539e-20 4.26336)
(10.8713 -4.348e-21 3.35065)
(11.0152 4.13515e-20 3.58761)
(11.1764 3.08487e-21 3.82642)
(11.3561 -1.27849e-21 4.06524)
(11.3131 1.63366e-20 3.64274)
(11.4969 -3.48337e-20 3.85783)
)
;

boundaryField
{
    inlet
    {
        type            fixedValue;
        value           uniform (10 0 0);
    }
    outlet
    {
        type            zeroGradient;
    }
    flap
    {
        type            movingWallVelocity;
        value           nonuniform 0();
    }
    upperWall
    {
        type            noSlip;
    }
    lowerWall
    {
        type            noSlip;
    }
    frontAndBack
    {
        type            empty;
    }
    procBoundary3to0
    {
        type            processor;
        value           nonuniform List<vector> 
34
(
(9.99475 -9.68602e-23 0.138141)
(9.98142 2.63489e-21 0.275097)
(9.98142 2.63489e-21 0.275097)
(9.96241 0 0.427787)
(9.96241 0 0.427787)
(9.94165 -3.49869e-20 0.590883)
(9.94165 -3.49869e-20 0.590883)
(9.92427 0 0.763946)
(9.92427 0 0.763946)
(9.91475 9.97589e-21 0.945995)
(9.91475 9.97589e-21 0.945995)
(9.91715 9.73564e-21 1.13541)
(9.91715 9.73564e-21 1.13541)
(9.93541 0 1.32983)
(9.92392 -1.95628e-20 1.52247)
(9.92392 -1.95628e-20 1.52247)
(9.97451 -1.9292e-20 1.72708)
(9.97451 -1.9292e-20 1.72708)
(10.0506 0 1.92775)
(10.0731 -1.93314e-20 2.14558)
(10.0731 -1.93314e-20 2.14558)
(10.1968 9.45527e-21 2.34029)
(10.2484 0 2.57151)
(10.2484 0 2.57151)
(10.4255 1.87712e-20 2.74528)
(10.4255 1.87712e-20 2.74528)
(10.6305 -1.80357e-20 2.88811)
(10.7435 3.19021e-20 3.11708)
(10.7435 3.19021e-20 3.11708)
(10.9944 1.55719e-20 3.20896)
(11.1458 -2.1902e-21 3.42586)
(11.1458 -2.1902e-21 3.42586)
(11.4286 0 3.45061)
(11.6141 -2.60349e-22 3.64368)
)
;
    }
    procBoundary3to1
    {
        type            processor;
        value           nonuniform List<vector> 9((9.68754 6.35752e-20 5.50801) (10.0501 4.82344e-20 5.41533) (10.3828 -4.53013e-20 5.28636) (10.6829 0 5.12745) (10.9495 0 4.94458) (11.1829 5.25489e-22 4.74308) (11.3842 -8.72724e-21 4.52755) (11.5551 1.77893e-20 4.30183) (11.6977 -1.65754e-20 4.06909));
    }
    procBoundary3to4
    {
        type            processor;
        value           nonuniform List<vector> 
19
(
(3.27772 2.27376e-20 0.295889)
(4.14757 -2.24239e-20 0.73261)
(4.62362 2.11613e-20 1.20551)
(4.92316 -1.75059e-19 1.63853)
(5.1387 4.26715e-20 2.043)
(5.31855 -4.23125e-20 2.42911)
(5.48998 0 2.80288)
(5.66934 2.01952e-20 3.16733)
(5.86701 9.98955e-21 3.52282)
(6.0899 -3.87069e-20 3.86735)
(6.34245 3.80375e-20 4.19693)
(6.62701 -1.10776e-19 4.50592)
(6.94364 1.43698e-19 4.78743)
(7.2898 0 5.03408)
(7.66008 -3.32688e-20 5.23829)
(8.06022 1.88298e-19 5.39826)
(8.47493 2.96052e-20 5.50569)
(8.89191 1.38542e-20 5.55857)
(9.29927 -6.60647e-20 5.55784)
)
;
    }
}


// ************************************************************************* //
