/*--------------------------------*- C++ -*----------------------------------*\
| =========                 |                                                 |
| \\      /  F ield         | OpenFOAM: The Open Source CFD Toolbox           |
|  \\    /   O peration     | Version:  dev                                   |
|   \\  /    A nd           | Web:      www.OpenFOAM.org                      |
|    \\/     M anipulation  |                                                 |
\*---------------------------------------------------------------------------*/
FoamFile
{
    version     2.0;
    format      ascii;
    class       surfaceScalarField;
    location    "3.2";
    object      meshPhi;
}
// * * * * * * * * * * * * * * * * * * * * * * * * * * * * * * * * * * * * * //

dimensions      [0 3 -1 0 0 0 0];

internalField   nonuniform List<scalar> 
5457
(
-8.02559e-06
1.71833e-07
-1.36432e-05
4.71686e-07
-1.56817e-05
6.83563e-07
-1.39284e-05
7.98993e-07
-8.69493e-06
8.21784e-07
-6.43157e-07
7.60631e-07
9.34535e-06
6.2791e-07
2.02829e-05
4.39091e-07
3.11754e-05
2.12188e-07
4.11076e-05
-3.29852e-08
4.93159e-05
-2.75858e-07
5.5245e-05
-4.96589e-07
5.85843e-05
-6.77871e-07
5.92769e-05
-8.06718e-07
5.75037e-05
-8.75847e-07
5.36416e-05
-8.84276e-07
4.8203e-05
-8.37347e-07
4.17659e-05
-7.46118e-07
3.49044e-05
-6.25497e-07
2.81309e-05
-4.91701e-07
2.17035e-05
-3.61326e-07
1.58468e-05
-2.47198e-07
1.09133e-05
-1.54974e-07
7.04335e-06
-8.68189e-08
4.17991e-06
-4.20563e-08
2.20809e-06
-1.64671e-08
9.78146e-07
-4.36902e-09
3.22273e-07
-1.33694e-10
6.409e-08
6.28294e-10
1.76321e-10
-8.23792e-06
3.46051e-07
-1.40123e-05
9.50022e-07
-1.6152e-05
1.37725e-06
-1.44543e-05
1.61104e-06
-9.23379e-06
1.65912e-06
-1.1559e-06
1.53884e-06
8.89358e-06
1.27482e-06
1.99212e-05
8.97867e-07
3.09257e-05
4.43866e-07
4.09838e-05
-4.76618e-08
4.93212e-05
-5.35563e-07
5.53726e-05
-9.8e-07
5.88182e-05
-1.34609e-06
5.95945e-05
-1.60757e-06
5.78785e-05
-1.74965e-06
5.40466e-05
-1.77003e-06
4.86134e-05
-1.67899e-06
4.21613e-05
-1.49861e-06
3.52699e-05
-1.25886e-06
2.84548e-05
-9.92411e-07
2.19863e-05
-7.32077e-07
1.6078e-05
-5.02878e-07
1.10823e-05
-3.16718e-07
7.16124e-06
-1.78825e-07
4.25635e-06
-8.79941e-08
2.25239e-06
-3.57098e-08
9.99679e-07
-1.05356e-08
3.30161e-07
-1.24857e-09
6.59807e-08
8.15931e-10
2.87436e-10
-8.48e-06
5.23479e-07
-1.44455e-05
1.43745e-06
-1.67267e-05
2.08523e-06
-1.51287e-05
2.44225e-06
-9.96824e-06
2.5204e-06
-1.91133e-06
2.34564e-06
8.15563e-06
1.95464e-06
1.92376e-05
1.39324e-06
3.03309e-05
7.14833e-07
4.05084e-05
-2.17738e-08
4.89879e-05
-7.55163e-07
5.51938e-05
-1.4256e-06
5.87972e-05
-1.98056e-06
5.97237e-05
-2.38027e-06
5.81411e-05
-2.60179e-06
5.44194e-05
-2.64109e-06
4.90678e-05
-2.51346e-06
4.26667e-05
-2.25152e-06
3.57974e-05
-1.89963e-06
2.89791e-05
-1.50662e-06
2.24727e-05
-1.12012e-06
1.64836e-05
-7.75919e-07
1.13914e-05
-4.93447e-07
7.38315e-06
-2.82905e-07
4.4029e-06
-1.43112e-07
2.33758e-06
-6.1332e-08
1.0406e-06
-2.05793e-08
3.44767e-07
-4.31798e-09
6.93105e-08
2.13267e-10
2.2515e-10
-8.73295e-06
7.04695e-07
-1.49145e-05
1.93583e-06
-1.73741e-05
2.81088e-06
-1.59211e-05
3.2979e-06
-1.0873e-05
3.41321e-06
-2.89347e-06
3.19137e-06
7.13487e-06
2.68081e-06
1.822e-05
1.94197e-06
2.93615e-05
1.04518e-06
3.96356e-05
6.76959e-08
4.82555e-05
-9.09309e-07
5.46362e-05
-1.80634e-06
5.84404e-05
-2.55369e-06
5.9581e-05
-3.09833e-06
5.82103e-05
-3.40852e-06
5.46841e-05
-3.4779e-06
4.94983e-05
-3.32643e-06
4.32243e-05
-2.99625e-06
3.64394e-05
-2.54489e-06
2.9664e-05
-2.03633e-06
2.31291e-05
-1.53087e-06
1.70368e-05
-1.07299e-06
1.18193e-05
-6.91435e-07
7.69265e-06
-4.04216e-07
4.60792e-06
-2.11216e-07
2.45671e-06
-9.58466e-08
1.09717e-06
-3.59295e-08
3.64419e-07
-9.9683e-09
7.35682e-08
-1.35095e-09
-3.81785e-11
-9.04792e-06
8.90617e-07
-1.55059e-05
2.44787e-06
-1.81984e-05
3.55878e-06
-1.69398e-05
4.18455e-06
-1.20484e-05
4.34637e-06
-4.18451e-06
4.08739e-06
5.77527e-06
3.46737e-06
1.68437e-05
2.56057e-06
2.80251e-05
1.45371e-06
3.84015e-05
2.42301e-07
4.7185e-05
-9.73763e-07
5.378e-05
-2.09652e-06
5.78377e-05
-3.03981e-06
5.92566e-05
-3.73748e-06
5.81682e-05
-4.14891e-06
5.49071e-05
-4.26454e-06
4.99518e-05
-4.10701e-06
4.38602e-05
-3.72642e-06
3.72017e-05
-3.19229e-06
3.04953e-05
-2.58258e-06
2.39334e-05
-1.96757e-06
1.77148e-05
-1.39798e-06
1.23405e-05
-9.13981e-07
8.06495e-06
-5.45088e-07
4.85096e-06
-2.93684e-07
2.5967e-06
-1.39936e-07
1.16307e-06
-5.68681e-08
3.86719e-07
-1.82765e-08
7.81098e-08
-3.84841e-09
-4.83026e-10
-9.42751e-06
1.08204e-06
-1.62224e-05
2.97595e-06
-1.92022e-05
4.33285e-06
-1.81871e-05
5.10786e-06
-1.34968e-05
5.32755e-06
-5.78781e-06
5.04375e-06
4.07106e-06
4.32677e-06
1.51003e-05
3.26391e-06
2.63106e-05
1.95806e-06
3.67892e-05
5.22413e-07
4.57499e-05
-9.25878e-07
5.2591e-05
-2.27231e-06
5.69488e-05
-3.41517e-06
5.87024e-05
-4.27505e-06
5.79597e-05
-4.80241e-06
5.503e-05
-4.98334e-06
5.03684e-05
-4.84088e-06
4.4514e-05
-4.4313e-06
3.80244e-05
-3.83457e-06
3.14154e-05
-3.14111e-06
2.48332e-05
-2.42814e-06
1.84725e-05
-1.74994e-06
1.29168e-05
-1.16043e-06
8.46971e-06
-7.04822e-07
5.10877e-06
-3.89757e-07
2.74142e-06
-1.92791e-07
1.22981e-06
-8.26947e-08
4.08529e-07
-2.88001e-08
8.21565e-08
-7.07252e-09
-1.05137e-09
-9.87342e-06
1.27966e-06
-1.70659e-05
3.52202e-06
-2.03867e-05
5.13632e-06
-1.96633e-05
6.07242e-06
-1.52189e-05
6.3631e-06
-7.70589e-06
6.06855e-06
2.01577e-06
5.26897e-06
1.2978e-05
4.06504e-06
2.42024e-05
2.575e-06
3.47791e-05
9.2743e-07
4.39222e-05
-7.44567e-07
5.10292e-05
-2.31106e-06
5.57227e-05
-3.65588e-06
5.78584e-05
-4.68687e-06
5.75171e-05
-5.34487e-06
5.49795e-05
-5.61049e-06
5.06717e-05
-5.50628e-06
4.51075e-05
-5.09249e-06
3.88297e-05
-4.45655e-06
3.23482e-05
-3.69944e-06
2.57587e-05
-2.90252e-06
1.92508e-05
-2.12089e-06
1.35013e-05
-1.42449e-06
8.87172e-06
-8.78498e-07
5.35671e-06
-4.95736e-07
2.87452e-06
-2.51781e-07
1.28802e-06
-1.11701e-07
4.26155e-07
-4.06062e-08
8.48984e-08
-1.06499e-08
-1.65408e-09
-1.03874e-05
1.484e-06
-1.80382e-05
4.08763e-06
-2.17528e-05
5.97164e-06
-2.13681e-05
7.08167e-06
-1.72139e-05
7.45723e-06
-9.94e-06
7.16696e-06
-3.94452e-07
6.30176e-06
1.04694e-05
4.97542e-06
2.16858e-05
3.31912e-06
3.23482e-05
1.47489e-06
4.16723e-05
-4.09634e-07
4.90546e-05
-2.19002e-06
5.41064e-05
-3.73661e-06
5.66596e-05
-4.94544e-06
5.67651e-05
-5.74745e-06
5.46702e-05
-6.11699e-06
5.07676e-05
-6.07507e-06
4.55438e-05
-5.68359e-06
3.9522e-05
-5.03475e-06
3.32005e-05
-4.23713e-06
2.66238e-05
-3.37283e-06
1.99776e-05
-2.49583e-06
1.4037e-05
-1.69423e-06
9.22904e-06
-1.05699e-06
5.56654e-06
-6.04955e-07
2.97883e-06
-3.1239e-07
1.32851e-06
-1.41155e-07
4.36098e-07
-5.23301e-08
8.561e-08
-1.40804e-08
-2.19646e-09
-1.09714e-05
1.69549e-06
-1.91414e-05
4.67394e-06
-2.3301e-05
6.84049e-06
-2.33007e-05
8.13777e-06
-1.948e-05
8.6125e-06
-1.24881e-05
8.34297e-06
-3.15892e-06
7.43211e-06
7.57137e-06
6.00464e-06
1.87496e-05
4.20232e-06
2.94754e-05
2.17962e-06
3.89691e-05
9.74015e-08
4.6627e-05
-1.88718e-06
5.20473e-05
-3.63248e-06
5.50395e-05
-5.02321e-06
5.56225e-05
-5.98077e-06
5.40064e-05
-6.47271e-06
5.05493e-05
-6.51627e-06
4.57104e-05
-6.17293e-06
3.99881e-05
-5.53797e-06
3.38635e-05
-4.72498e-06
2.73303e-05
-3.81323e-06
2.0571e-05
-2.85313e-06
1.44609e-05
-1.9525e-06
9.49615e-06
-1.22738e-06
5.70827e-06
-7.08222e-07
3.0369e-06
-3.68585e-07
1.34287e-06
-1.67568e-07
4.35428e-07
-6.23291e-08
8.36689e-08
-1.67958e-08
-2.57371e-09
-1.1628e-05
1.91448e-06
-2.03783e-05
5.28173e-06
-2.50319e-05
7.74378e-06
-2.546e-05
9.24176e-06
-2.20143e-05
9.83106e-06
-1.53458e-05
9.60062e-06
-6.27491e-06
8.66524e-06
4.28143e-06
7.15917e-06
1.53833e-05
5.23377e-06
2.61406e-05
3.05419e-06
3.57811e-05
7.9253e-07
4.37016e-05
-1.383e-06
4.9488e-05
-3.32051e-06
5.29255e-05
-4.89421e-06
5.40013e-05
-6.01616e-06
5.28884e-05
-6.64656e-06
4.99092e-05
-6.79714e-06
4.54904e-05
-6.5268e-06
4.01042e-05
-5.93136e-06
3.42165e-05
-5.12778e-06
2.77716e-05
-4.19098e-06
2.09448e-05
-3.16542e-06
1.47078e-05
-2.17804e-06
9.62722e-06
-1.37393e-06
5.75263e-06
-7.94589e-07
3.03239e-06
-4.13376e-07
1.32361e-06
-1.87031e-07
4.21557e-07
-6.88201e-08
7.84381e-08
-1.81903e-08
-2.67306e-09
-1.23609e-05
2.14126e-06
-2.17521e-05
5.91157e-06
-2.69451e-05
8.68171e-06
-2.78425e-05
1.03935e-05
-2.4812e-05
1.11132e-05
-1.85075e-05
1.0941e-05
-9.73775e-06
1.00028e-05
6.0099e-07
8.44169e-06
1.15805e-05
6.41809e-06
2.23262e-05
4.10657e-06
3.2079e-05
1.68757e-06
4.02348e-05
-6.62098e-07
4.63694e-05
-2.78112e-06
5.02438e-05
-4.53444e-06
5.18148e-05
-5.82548e-06
5.12188e-05
-6.60663e-06
4.87409e-05
-6.88297e-06
4.47708e-05
-6.7089e-06
3.97537e-05
-6.17815e-06
3.41412e-05
-5.40853e-06
2.78396e-05
-4.47019e-06
2.1013e-05
-3.40158e-06
1.47144e-05
-2.34687e-06
9.57899e-06
-1.47934e-06
5.67252e-06
-8.52221e-07
2.95024e-06
-4.39297e-07
1.2636e-06
-1.95377e-07
3.91694e-07
-6.988e-08
6.89717e-08
-1.75791e-08
-2.35531e-09
-1.31755e-05
2.37618e-06
-2.32681e-05
6.56393e-06
-2.90401e-05
9.65391e-06
-3.04423e-05
1.15914e-05
-2.78642e-05
1.24567e-05
-2.19635e-05
1.23614e-05
-1.35386e-05
1.14426e-05
-3.46451e-06
9.85163e-06
7.34337e-06
7.75603e-06
1.80254e-05
5.33922e-06
2.7843e-05
2.78857e-06
3.61948e-05
2.86112e-07
4.26441e-05
-1.99913e-06
4.69323e-05
-3.92377e-06
4.8987e-05
-5.38349e-06
4.8909e-05
-6.3229e-06
4.69446e-05
-6.73976e-06
4.3447e-05
-6.68241e-06
3.88322e-05
-6.24039e-06
3.35339e-05
-5.52972e-06
2.74359e-05
-4.61529e-06
2.06959e-05
-3.53055e-06
1.44241e-05
-2.43476e-06
9.31281e-06
-1.52609e-06
5.44313e-06
-8.69017e-07
2.77552e-06
-4.38498e-07
1.15433e-06
-1.87967e-07
3.41504e-07
-6.31558e-08
5.33194e-08
-1.40078e-08
-1.38096e-09
-1.40801e-05
2.61974e-06
-2.49338e-05
7.23953e-06
-3.1315e-05
1.06595e-05
-3.32506e-05
1.28327e-05
-3.11573e-05
1.3857e-05
-2.56983e-05
1.38567e-05
-1.76633e-05
1.29795e-05
-7.90586e-06
1.13848e-05
2.67792e-06
9.24554e-06
1.32414e-05
6.75178e-06
2.30669e-05
4.09686e-06
3.15624e-05
1.4666e-06
3.82803e-05
-9.64737e-07
4.29451e-05
-3.04722e-06
4.5458e-05
-4.66981e-06
4.58859e-05
-5.76981e-06
4.44376e-05
-6.33738e-06
4.14304e-05
-6.41371e-06
3.72497e-05
-6.08248e-06
3.23086e-05
-5.45574e-06
2.64831e-05
-4.59298e-06
1.99302e-05
-3.52385e-06
1.37902e-05
-2.41928e-06
8.79509e-06
-1.49736e-06
5.04025e-06
-8.32672e-07
2.49015e-06
-4.02206e-07
9.82384e-07
-1.58828e-07
2.62198e-07
-4.50677e-08
2.67726e-08
-5.75569e-09
7.74256e-10
-1.50861e-05
2.87276e-06
-2.67603e-05
7.93957e-06
-3.37666e-05
1.16973e-05
-3.62562e-05
1.41129e-05
-3.46742e-05
1.53078e-05
-2.96915e-05
1.54188e-05
-2.20915e-05
1.46049e-05
-1.27057e-05
1.30329e-05
-2.40448e-06
1.08794e-05
7.98283e-06
8.33883e-06
1.77553e-05
5.60888e-06
2.63323e-05
2.87849e-06
3.32614e-05
3.25156e-07
3.82537e-05
-1.89684e-06
4.11874e-05
-3.67118e-06
4.20984e-05
-4.92874e-06
4.11607e-05
-5.65233e-06
3.86563e-05
-5.87551e-06
3.49407e-05
-5.67483e-06
3.04039e-05
-5.15666e-06
2.49281e-05
-4.37516e-06
1.86724e-05
-3.35711e-06
1.27773e-05
-2.28054e-06
7.9964e-06
-1.37718e-06
4.43738e-06
-7.3015e-07
2.06845e-06
-3.19518e-07
7.23255e-07
-9.89478e-08
1.33528e-07
-8.96038e-09
-2.272e-08
1.08817e-08
5.44582e-09
-1.60877e-05
3.10935e-06
-2.86868e-05
8.62439e-06
-3.64046e-05
1.27569e-05
-3.94555e-05
1.5437e-05
-3.84087e-05
1.6812e-05
-3.3937e-05
1.70514e-05
-2.68189e-05
1.63229e-05
-1.78633e-05
1.48001e-05
-7.90755e-06
1.26623e-05
2.24092e-06
1.01055e-05
1.18942e-05
7.33103e-06
2.04843e-05
4.53019e-06
2.75598e-05
1.88158e-06
3.28228e-05
-4.58347e-07
3.61325e-05
-2.36972e-06
3.7498e-05
-3.77821e-06
3.70611e-05
-4.65994e-06
3.50712e-05
-5.0408e-06
3.18539e-05
-4.98957e-06
2.77754e-05
-4.6055e-06
2.27334e-05
-3.93726e-06
1.68892e-05
-3.00872e-06
1.1355e-05
-1.99977e-06
6.88576e-06
-1.14881e-06
3.59968e-06
-5.45634e-07
1.46972e-06
-1.74692e-07
3.29865e-07
7.83344e-09
-9.4977e-08
6.13128e-08
-1.3874e-07
4.83033e-08
2.20781e-08
-1.72548e-07
-1.0382e-11
-9.03099e-07
-6.57123e-10
-2.94969e-06
-1.22176e-09
-7.04876e-06
-1.41725e-09
-1.37413e-05
3.05716e-09
-2.32631e-05
2.23961e-08
-3.55561e-05
7.25955e-08
-5.03522e-05
1.71939e-07
-6.72618e-05
3.37852e-07
-8.42861e-05
5.77829e-07
-9.97407e-05
8.89416e-07
-0.000114136
1.26528e-06
-0.000127689
1.68626e-06
-0.000139991
2.12504e-06
-0.00015062
2.55401e-06
-0.000159183
2.94575e-06
-0.000165334
3.27917e-06
-0.000168789
3.54077e-06
-0.000169356
3.72289e-06
-0.000166939
3.82195e-06
-0.000161536
3.83764e-06
-0.000153226
3.77263e-06
-0.000142153
3.63027e-06
-0.000128494
3.41269e-06
-0.000112433
3.11976e-06
-9.41287e-05
2.7494e-06
-7.36895e-05
2.29746e-06
-5.11549e-05
1.75818e-06
-2.64558e-05
1.12375e-06
3.93321e-07
-1.76614e-07
-1.36105e-10
-9.22927e-07
-1.3711e-09
-2.99934e-06
-2.89156e-09
-7.13044e-06
-3.4354e-09
-1.38356e-05
6.22309e-09
-2.3332e-05
4.68192e-08
-3.55574e-05
1.49838e-07
-5.02426e-05
3.51948e-07
-6.69677e-05
6.86614e-07
-8.39416e-05
1.16735e-06
-9.9423e-05
1.78853e-06
-0.000113774
2.53523e-06
-0.000127339
3.36945e-06
-0.000139682
4.23662e-06
-0.000150361
5.0789e-06
-0.000158973
5.84638e-06
-0.000165167
6.50271e-06
-0.000168655
7.01832e-06
-0.000169244
7.37827e-06
-0.000166839
7.57488e-06
-0.00016144
7.60664e-06
-0.00015313
7.47892e-06
-0.000142054
7.19819e-06
-0.000128394
6.76843e-06
-0.000112335
6.1889e-06
-9.40384e-05
5.45532e-06
-7.36121e-05
4.55925e-06
-5.10969e-05
3.48906e-06
-2.64249e-05
2.22955e-06
7.80142e-07
-1.80039e-07
-2.0311e-10
-9.38002e-07
-1.81276e-09
-3.0257e-06
-3.89301e-09
-7.13683e-06
-3.33072e-09
-1.37527e-05
1.48607e-08
-2.30718e-05
8.18095e-08
-3.5039e-05
2.43568e-07
-4.94014e-05
5.5395e-07
-6.57537e-05
1.06005e-06
-8.24906e-05
1.77895e-06
-9.78803e-05
2.70011e-06
-0.000112177
3.80092e-06
-0.000125771
5.02665e-06
-0.000138198
6.29663e-06
-0.000148995
7.52944e-06
-0.000157744
8.65588e-06
-0.000164078
9.62068e-06
-0.000167701
1.03804e-05
-0.000168413
1.09108e-05
-0.000166117
1.12019e-05
-0.000160816
1.1253e-05
-0.000152592
1.10687e-05
-0.000141595
1.06582e-05
-0.000128007
1.00269e-05
-0.000112015
9.17238e-06
-9.3783e-05
8.08825e-06
-7.34188e-05
6.76171e-06
-5.09655e-05
5.17526e-06
-2.63581e-05
3.30657e-06
1.15671e-06
-1.81466e-07
-1.89781e-10
-9.41545e-07
-1.78919e-09
-3.00952e-06
-3.27944e-09
-7.02959e-06
1.32152e-09
-1.34392e-05
3.34747e-08
-2.24284e-05
1.34508e-07
-3.39596e-05
3.64283e-07
-4.78108e-05
7.90226e-07
-6.36243e-05
1.47025e-06
-7.99389e-05
2.422e-06
-9.51227e-05
3.6281e-06
-0.000109368
5.0582e-06
-0.000123009
6.6434e-06
-0.00013556
8.28385e-06
-0.00014654
9.87972e-06
-0.000155505
1.13419e-05
-0.000162067
1.25962e-05
-0.000165921
1.35876e-05
-0.000166855
1.428e-05
-0.000164767
1.46627e-05
-0.000159656
1.47387e-05
-0.000151608
1.45097e-05
-0.000140772
1.39839e-05
-0.000127332
1.31647e-05
-0.000111475
1.20495e-05
-9.33649e-05
1.06306e-05
-7.31142e-05
8.89059e-06
-5.07666e-05
6.80651e-06
-2.62588e-05
4.34923e-06
1.52142e-06
-1.81535e-07
-9.9623e-11
-9.368e-07
-1.22252e-09
-2.96144e-06
-5.42891e-10
-6.8412e-06
1.18795e-08
-1.29729e-05
6.4735e-08
-2.15434e-05
2.09457e-07
-3.2535e-05
5.17539e-07
-4.5764e-05
1.06671e-06
-6.09222e-05
1.92275e-06
-7.67076e-05
3.10088e-06
-9.16328e-05
4.57288e-06
-0.000105821
6.30111e-06
-0.000119519
8.20827e-06
-0.000132221
1.0181e-05
-0.000143419
1.21034e-05
-0.000152641
1.38684e-05
-0.000159478
1.53869e-05
-0.000163611
1.65936e-05
-0.000164818
1.74451e-05
-0.000162993
1.79251e-05
-0.000158128
1.80327e-05
-0.000150308
1.77721e-05
-0.000139686
1.71487e-05
-0.000126442
1.61604e-05
-0.000110763
1.48031e-05
-9.28157e-05
1.30674e-05
-7.27147e-05
1.09334e-05
-5.05059e-05
8.37311e-06
-2.61289e-05
5.35124e-06
1.87205e-06
-1.7997e-07
9.01982e-11
-9.22401e-07
1.00485e-10
-2.88197e-06
5.15033e-09
-6.58556e-06
3.02429e-08
-1.23939e-05
1.11759e-07
-2.04912e-05
3.10547e-07
-3.08828e-05
7.06996e-07
-4.34284e-05
1.38617e-06
-5.78681e-05
2.4182e-06
-7.30665e-05
3.81383e-06
-8.77004e-05
5.5295e-06
-0.000101821
7.5203e-06
-0.000115572
9.7084e-06
-0.000128424
1.19699e-05
-0.000139845
1.41761e-05
-0.000149337
1.62068e-05
-0.000156468
1.79609e-05
-0.000160899
1.93638e-05
-0.000162405
2.03686e-05
-0.000160874
2.09499e-05
-0.000156293
2.10981e-05
-0.000148745
2.08164e-05
-0.000138378
2.0109e-05
-0.000125368
1.89739e-05
-0.000109903
1.74004e-05
-9.21515e-05
1.53723e-05
-7.223e-05
1.28686e-05
-5.01878e-05
9.85861e-06
-2.59701e-05
6.30182e-06
2.20472e-06
-1.76698e-07
4.05364e-10
-8.98832e-07
2.42013e-09
-2.77766e-06
1.45668e-08
-6.28485e-06
5.79963e-08
-1.17488e-05
1.76782e-07
-1.9353e-05
4.39816e-07
-2.91287e-05
9.33898e-07
-4.09795e-05
1.74836e-06
-5.4685e-05
2.95384e-06
-6.92715e-05
4.55344e-06
-8.35944e-05
6.48931e-06
-9.76324e-05
8.7101e-06
-0.000111414
1.11387e-05
-0.000124392
1.36454e-05
-0.000136014
1.6093e-05
-0.000145759
1.83517e-05
-0.000153176
2.03116e-05
-0.000157909
2.18898e-05
-0.000159725
2.30328e-05
-0.0001585
2.37091e-05
-0.000154221
2.39049e-05
-0.000146967
2.36156e-05
-0.000136881
2.28389e-05
-0.000124137
2.15748e-05
-0.000108918
1.98105e-05
-9.13902e-05
1.75204e-05
-7.16727e-05
1.46769e-05
-4.98205e-05
1.12484e-05
-2.57863e-05
7.19179e-06
2.51625e-06
-1.72042e-07
8.92842e-10
-8.68936e-07
5.96794e-09
-2.6593e-06
2.83372e-08
-5.96555e-06
9.62513e-08
-1.10886e-05
2.61073e-07
-1.82139e-05
5.9792e-07
-2.73982e-05
1.19737e-06
-3.85857e-05
2.15008e-06
-5.15863e-05
3.52452e-06
-6.55689e-05
5.31331e-06
-7.95679e-05
7.44612e-06
-9.34975e-05
9.86648e-06
-0.000107272
1.2497e-05
-0.000120332
1.52072e-05
-0.000132109
1.7855e-05
-0.000142067
2.03048e-05
-0.000149738
2.24402e-05
-0.000154755
2.41715e-05
-0.000156869
2.54375e-05
-0.000155949
2.62011e-05
-0.000151976
2.64449e-05
-0.000145023
2.61589e-05
-0.000135231
2.5332e-05
-0.000122771
2.39563e-05
-0.000107824
2.20209e-05
-9.05464e-05
1.94978e-05
-7.10541e-05
1.63481e-05
-4.9411e-05
1.25356e-05
-2.55809e-05
8.01675e-06
2.80512e-06
-1.66731e-07
1.59339e-09
-8.37245e-07
1.09772e-08
-2.54089e-06
4.71286e-08
-5.65814e-06
1.46035e-07
-1.04679e-05
3.65393e-07
-1.71585e-05
7.84471e-07
-2.58087e-05
1.49514e-06
-3.63954e-05
2.58674e-06
-4.87558e-05
4.12398e-06
-6.21778e-05
6.08872e-06
-7.58499e-05
8.39653e-06
-8.96361e-05
1.09855e-05
-0.000103353
1.3781e-05
-0.000116435
1.66552e-05
-0.000128306
1.94641e-05
-0.000138417
2.20694e-05
-0.00014629
2.43504e-05
-0.000151546
2.62122e-05
-0.000153927
2.7587e-05
-0.000153293
2.84318e-05
-0.000149617
2.87222e-05
-0.000142967
2.8444e-05
-0.000133472
2.75815e-05
-0.000121301
2.61154e-05
-0.000106637
2.40298e-05
-8.96301e-05
2.12981e-05
-7.03834e-05
1.78751e-05
-4.89664e-05
1.37157e-05
-2.53575e-05
8.77396e-06
3.07035e-06
-1.61876e-07
2.55146e-09
-8.09801e-07
1.77314e-08
-2.43928e-06
7.17435e-08
-5.39596e-06
2.08405e-07
-9.94125e-06
4.90234e-07
-1.62655e-05
9.98589e-07
-2.44638e-05
1.82462e-06
-3.45363e-05
3.05446e-06
-4.63438e-05
4.7476e-06
-5.92688e-05
6.87504e-06
-7.26198e-05
9.33681e-06
-8.62248e-05
1.20651e-05
-9.98279e-05
1.49915e-05
-0.000112864
1.7993e-05
-0.000124753
2.09266e-05
-0.000134942
2.36536e-05
-0.000142948
2.60515e-05
-0.000148385
2.80214e-05
-0.000150986
2.94903e-05
-0.000150603
3.04087e-05
-0.000147202
3.07451e-05
-0.000140842
3.04788e-05
-0.000131643
2.95897e-05
-0.000119761
2.80519e-05
-0.000105379
2.5839e-05
-8.86501e-05
2.29221e-05
-6.96681e-05
1.92561e-05
-4.84945e-05
1.47865e-05
-2.51195e-05
9.4623e-06
3.3115e-06
-1.58965e-07
3.83569e-09
-7.94191e-07
2.66677e-08
-2.37389e-06
1.03321e-07
-5.21424e-06
2.84724e-07
-9.56155e-06
6.36292e-07
-1.56055e-05
1.23974e-06
-2.34509e-05
2.18401e-06
-3.31117e-05
3.55067e-06
-4.44662e-05
5.39262e-06
-5.69651e-05
7.66932e-06
-7.00046e-05
1.02649e-05
-8.3392e-05
1.31058e-05
-9.68233e-05
1.61318e-05
-0.00010974
1.92275e-05
-0.000121566
2.22525e-05
-0.000131751
2.507e-05
-0.000139812
2.75575e-05
-0.000145361
2.96139e-05
-0.000148123
3.11615e-05
-0.000147946
3.21448e-05
-0.000144785
3.25252e-05
-0.000138692
3.22744e-05
-0.000129775
3.13666e-05
-0.000118179
2.97713e-05
-0.000104075
2.74516e-05
-8.76226e-05
2.43734e-05
-6.89166e-05
2.04919e-05
-4.80005e-05
1.57471e-05
-2.48702e-05
1.00814e-05
3.52855e-06
-1.60189e-07
5.57018e-09
-8.00579e-07
3.86056e-08
-2.36801e-06
1.43749e-07
-5.15114e-06
3.77227e-07
-9.38075e-06
8.05391e-07
-1.52416e-05
1.509e-06
-2.28416e-05
2.57382e-06
-3.21987e-05
4.07546e-06
-4.32024e-05
6.05894e-06
-5.53471e-05
8.47215e-06
-6.80862e-05
1.11824e-05
-8.1221e-05
1.4111e-05
-9.4424e-05
1.72086e-05
-0.000107148
2.03687e-05
-0.000118828
2.34551e-05
-0.000128924
2.63346e-05
-0.000136957
2.88862e-05
-0.000142542
3.10079e-05
-0.000145401
3.26187e-05
-0.000145377
3.36572e-05
-0.000142415
3.40777e-05
-0.000136555
3.38441e-05
-0.000127899
3.29243e-05
-0.00011658
3.12819e-05
-0.000102748
2.88734e-05
-8.65655e-05
2.56569e-05
-6.81349e-05
2.15856e-05
-4.74874e-05
1.65987e-05
-2.46131e-05
1.0632e-05
3.72196e-06
-1.70171e-07
8.12667e-09
-8.45531e-07
5.54059e-08
-2.45351e-06
1.96634e-07
-5.25207e-06
4.90299e-07
-9.45319e-06
1.00221e-06
-1.5231e-05
1.81089e-06
-2.26905e-05
2.99775e-06
-3.18491e-05
4.63231e-06
-4.26056e-05
6.75358e-06
-5.44635e-05
9.29405e-06
-6.69056e-05
1.2099e-05
-7.97534e-05
1.50903e-05
-9.26745e-05
1.82345e-05
-0.000105136
2.14327e-05
-0.00011659
2.45537e-05
-0.000126511
2.7469e-05
-0.000134433
3.00611e-05
-0.000139976
3.22281e-05
-0.000142865
3.38864e-05
-0.000142936
3.49693e-05
-0.000140128
3.54244e-05
-0.000134467
3.52079e-05
-0.000126044
3.42799e-05
-0.00011498
3.2598e-05
-0.000101413
3.01148e-05
-8.54948e-05
2.67807e-05
-6.73327e-05
2.2544e-05
-4.69583e-05
1.73444e-05
-2.43485e-05
1.11141e-05
3.89157e-06
-2.04605e-07
1.31545e-08
-9.63862e-07
8.21775e-08
-2.68227e-06
2.69983e-07
-5.58018e-06
6.34481e-07
-9.84524e-06
1.23954e-06
-1.56342e-05
2.15928e-06
-2.30462e-05
3.46994e-06
-3.21056e-05
5.23779e-06
-4.27272e-05
7.50117e-06
-5.4347e-05
1.0163e-05
-6.64675e-05
1.30346e-05
-7.8994e-05
1.60596e-05
-9.15825e-05
1.92287e-05
-0.000103713
2.24421e-05
-0.000114862
2.5573e-05
-0.000124527
2.85001e-05
-0.000132257
3.11106e-05
-0.000137684
3.33036e-05
-0.000140536
3.49936e-05
-0.000140646
3.61094e-05
-0.000137944
3.65921e-05
-0.000132446
3.63903e-05
-0.000124228
3.54564e-05
-0.000113398
3.37415e-05
-0.000100085
3.11936e-05
-8.44258e-05
2.77577e-05
-6.65221e-05
2.33768e-05
-4.64124e-05
1.79896e-05
-2.40727e-05
1.15296e-05
4.03747e-06
-3.50148e-07
4.03109e-08
-1.27623e-06
1.44624e-07
-3.18469e-06
3.96421e-07
-6.26018e-06
8.46524e-07
-1.06646e-05
1.55456e-06
-1.65361e-05
2.58938e-06
-2.39718e-05
4.02321e-06
-3.30167e-05
5.92338e-06
-4.35612e-05
8.31301e-06
-5.49502e-05
1.10623e-05
-6.67425e-05
1.39832e-05
-7.8925e-05
1.70394e-05
-9.11326e-05
2.02214e-05
-0.000102864
2.34287e-05
-0.000113632
2.65455e-05
-0.000122961
2.94615e-05
-0.000130422
3.20691e-05
-0.00013566
3.42697e-05
-0.000138411
3.59759e-05
-0.000138505
3.71124e-05
-0.000135866
3.76143e-05
-0.000130496
3.74231e-05
-0.000122456
3.64836e-05
-0.000111842
3.47403e-05
-9.87718e-05
3.21358e-05
-8.3363e-05
2.86104e-05
-6.57085e-05
2.4103e-05
-4.58543e-05
1.8551e-05
-2.37877e-05
1.18898e-05
4.16364e-06
-1.75135e-05
3.30617e-06
-3.16117e-05
9.22418e-06
-4.06467e-05
1.37721e-05
-4.4526e-05
1.67959e-05
-4.40117e-05
1.83888e-05
-3.99399e-05
1.87723e-05
-3.3101e-05
1.81518e-05
-2.43146e-05
1.67053e-05
-1.44084e-05
1.46146e-05
-4.19019e-06
1.2074e-05
5.63623e-06
9.28622e-06
1.44945e-05
6.44463e-06
2.19229e-05
3.7277e-06
2.76075e-05
1.29192e-06
3.13871e-05
-7.41003e-07
3.32473e-05
-2.29289e-06
3.33061e-05
-3.33404e-06
3.17909e-05
-3.88298e-06
2.90101e-05
-4.00041e-06
2.53181e-05
-3.77748e-06
2.06307e-05
-3.2573e-06
1.51121e-05
-2.45936e-06
9.85655e-06
-1.55817e-06
5.63114e-06
-7.9205e-07
2.56867e-06
-2.56541e-07
6.46628e-07
5.84274e-08
-3.03343e-07
1.93103e-07
-5.63527e-07
2.04731e-07
-4.74924e-07
1.54671e-07
1.0144e-07
-2.55029e-07
-1.85215e-05
3.48369e-06
-3.38029e-05
9.74165e-06
-4.42835e-05
1.46554e-05
-4.93951e-05
1.80861e-05
-4.9618e-05
2.00085e-05
-4.60575e-05
2.05829e-05
-3.96688e-05
2.00859e-05
-3.12612e-05
1.87412e-05
-2.16345e-05
1.6729e-05
-1.15719e-05
1.42378e-05
-1.78222e-06
1.14682e-05
7.15555e-06
8.61521e-06
1.47799e-05
5.8567e-06
2.07692e-05
3.34752e-06
2.49472e-05
1.20968e-06
2.72792e-05
-4.76066e-07
2.78596e-05
-1.67509e-06
2.68921e-05
-2.39917e-06
2.46639e-05
-2.70118e-06
2.15123e-05
-2.66424e-06
1.73801e-05
-2.32748e-06
1.24053e-05
-1.70059e-06
7.61438e-06
-9.40584e-07
3.77517e-06
-2.83006e-07
1.03073e-06
1.68806e-07
-6.38552e-07
4.19929e-07
-1.3986e-06
5.06698e-07
-1.5238e-06
4.8308e-07
-1.34398e-06
4.08547e-07
3.42889e-07
-1.1792e-06
-1.95103e-05
3.65691e-06
-3.57664e-05
1.02289e-05
-4.74885e-05
1.54253e-05
-5.41561e-05
1.91982e-05
-5.56418e-05
2.15337e-05
-5.2794e-05
2.24349e-05
-4.69048e-05
2.21145e-05
-3.89589e-05
2.08902e-05
-2.97011e-05
1.8986e-05
-1.98762e-05
1.65735e-05
-1.01993e-05
1.38507e-05
-1.25116e-06
1.10152e-05
6.51019e-06
8.24202e-06
1.27587e-05
5.6829e-06
1.73068e-05
3.4589e-06
2.01025e-05
1.65228e-06
2.12189e-05
3.01715e-07
2.0838e-05
-5.98437e-07
1.92274e-05
-1.09382e-06
1.67116e-05
-1.26114e-06
1.3281e-05
-1.1432e-06
8.96463e-06
-7.2636e-07
4.68993e-06
-1.26664e-07
1.27456e-06
4.13667e-07
-1.14768e-06
7.75336e-07
-2.59332e-06
9.62452e-07
-3.22279e-06
1.00631e-06
-3.29858e-06
9.57445e-07
-3.14188e-06
8.73028e-07
8.13469e-07
-3.07442e-06
-2.05589e-05
3.82252e-06
-3.77743e-05
1.06997e-05
-5.04527e-05
1.61531e-05
-5.84434e-05
2.01694e-05
-6.15769e-05
2.28427e-05
-6.00135e-05
2.41725e-05
-5.48316e-05
2.41859e-05
-4.74176e-05
2.31463e-05
-3.8616e-05
2.13748e-05
-2.9096e-05
1.90667e-05
-1.9605e-05
1.64149e-05
-1.07158e-05
1.36247e-05
-2.87728e-06
1.08638e-05
3.5826e-06
8.27891e-06
8.46815e-06
5.9893e-06
1.17121e-05
4.07786e-06
1.33683e-05
2.58689e-06
1.35972e-05
1.51667e-06
1.26472e-05
8.29062e-07
1.08325e-05
4.54283e-07
8.21515e-06
3.41916e-07
4.66321e-06
5.19397e-07
9.32319e-07
9.27129e-07
-2.07626e-06
1.34147e-06
-4.20815e-06
1.61656e-06
-5.48088e-06
1.74216e-06
-6.05541e-06
1.74812e-06
-6.19127e-06
1.68387e-06
-6.20536e-06
1.60385e-06
1.56605e-06
-6.3793e-06
-2.16654e-05
3.97955e-06
-3.99137e-05
1.11477e-05
-5.35316e-05
1.6855e-05
-6.25106e-05
2.1089e-05
-6.70435e-05
2.39858e-05
-6.71858e-05
2.56588e-05
-6.32981e-05
2.61186e-05
-5.6677e-05
2.54478e-05
-4.8413e-05
2.38924e-05
-3.9242e-05
2.17037e-05
-3.00108e-05
1.91406e-05
-2.12531e-05
1.64238e-05
-1.33999e-05
1.37022e-05
-6.78086e-06
1.11163e-05
-1.59653e-06
8.78301e-06
2.07128e-06
6.78554e-06
4.25719e-06
5.16991e-06
5.09863e-06
3.94267e-06
4.81807e-06
3.07495e-06
3.70378e-06
2.50969e-06
1.85985e-06
2.20326e-06
-8.62922e-07
2.16161e-06
-3.93704e-06
2.33843e-06
-6.53204e-06
2.57695e-06
-8.40704e-06
2.74642e-06
-9.55707e-06
2.80917e-06
-1.01433e-05
2.78139e-06
-1.04331e-05
2.70821e-06
-1.07228e-05
2.64003e-06
2.62853e-06
-1.12153e-05
-2.28359e-05
4.12683e-06
-4.21828e-05
1.15698e-05
-5.68269e-05
1.7521e-05
-6.67692e-05
2.19748e-05
-7.2334e-05
2.50681e-05
-7.39188e-05
2.6954e-05
-7.17144e-05
2.77489e-05
-6.64088e-05
2.75151e-05
-5.8997e-05
2.63517e-05
-5.03376e-05
2.44266e-05
-4.14253e-05
2.20087e-05
-3.28807e-05
1.9387e-05
-2.50781e-05
1.67323e-05
-1.83589e-05
1.41697e-05
-1.29219e-05
1.1816e-05
-8.8659e-06
9.75338e-06
-6.1763e-06
8.03293e-06
-4.74164e-06
6.66741e-06
-4.37438e-06
5.63812e-06
-4.83479e-06
4.90342e-06
-6.02781e-06
4.42956e-06
-7.96545e-06
4.19832e-06
-1.02655e-05
4.15086e-06
-1.23506e-05
4.18274e-06
-1.39703e-05
4.21309e-06
-1.50519e-05
4.20376e-06
-1.57076e-05
4.14678e-06
-1.61938e-05
4.0671e-06
-1.67843e-05
4.00742e-06
4.01563e-06
-1.75998e-05
-2.40746e-05
4.26302e-06
-4.45897e-05
1.19619e-05
-6.03323e-05
1.8145e-05
-7.13298e-05
2.28127e-05
-7.78959e-05
2.61091e-05
-8.05391e-05
2.81825e-05
-7.97391e-05
2.91839e-05
-7.59345e-05
2.9241e-05
-6.98802e-05
2.84838e-05
-6.22326e-05
2.70112e-05
-5.38617e-05
2.4935e-05
-4.5611e-05
2.2492e-05
-3.79231e-05
1.99242e-05
-3.11753e-05
1.74083e-05
-2.55389e-05
1.50583e-05
-2.11441e-05
1.29523e-05
-1.79944e-05
1.11502e-05
-1.60051e-05
9.66916e-06
-1.50272e-05
8.49928e-06
-1.48727e-05
7.61164e-06
-1.54432e-05
6.97157e-06
-1.66591e-05
6.54921e-06
-1.82043e-05
6.29564e-06
-1.97131e-05
6.13672e-06
-2.10314e-05
6.01978e-06
-2.20701e-05
5.92316e-06
-2.28733e-05
5.83774e-06
-2.35959e-05
5.76487e-06
-2.44658e-05
5.7201e-06
5.74058e-06
-2.5551e-05
-2.53842e-05
4.38663e-06
-4.71395e-05
1.232e-05
-6.40547e-05
1.87201e-05
-7.61825e-05
2.35939e-05
-8.38473e-05
2.70919e-05
-8.75314e-05
2.93667e-05
-8.78246e-05
3.05689e-05
-8.52642e-05
3.08397e-05
-8.06159e-05
3.03488e-05
-7.43784e-05
2.9251e-05
-6.70266e-05
2.76159e-05
-5.93493e-05
2.55401e-05
-5.19572e-05
2.32093e-05
-4.52543e-05
2.08064e-05
-3.94731e-05
1.8475e-05
-3.48059e-05
1.63449e-05
-3.12592e-05
1.44882e-05
-2.87717e-05
1.29177e-05
-2.72326e-05
1.16309e-05
-2.64955e-05
1.06093e-05
-2.64306e-05
9.81441e-06
-2.69348e-05
9.20429e-06
-2.77855e-05
8.74845e-06
-2.87382e-05
8.40976e-06
-2.97016e-05
8.15225e-06
-3.06422e-05
7.95815e-06
-3.15891e-05
7.82261e-06
-3.25863e-05
7.74389e-06
-3.37695e-05
7.72302e-06
7.77991e-06
-3.51425e-05
-2.67659e-05
4.49602e-06
-4.98347e-05
1.26392e-05
-6.79974e-05
1.9239e-05
-8.13322e-05
2.43084e-05
-9.01752e-05
2.80037e-05
-9.50104e-05
3.04815e-05
-9.64125e-05
3.18947e-05
-9.49798e-05
3.2392e-05
-9.14616e-05
3.21284e-05
-8.64667e-05
3.12678e-05
-8.0344e-05
2.99361e-05
-7.36547e-05
2.82376e-05
-6.69436e-05
2.62889e-05
-6.0543e-05
2.41797e-05
-5.47589e-05
2.19984e-05
-4.98901e-05
1.98935e-05
-4.60333e-05
1.80058e-05
-4.3123e-05
1.63756e-05
-4.10902e-05
1.49979e-05
-3.98212e-05
1.38651e-05
-3.91466e-05
1.29321e-05
-3.89534e-05
1.21466e-05
-3.91475e-05
1.1501e-05
-3.95852e-05
1.09949e-05
-4.01929e-05
1.06061e-05
-4.09596e-05
1.03148e-05
-4.19122e-05
1.01103e-05
-4.30949e-05
9.99187e-06
-4.45804e-05
9.96274e-06
1.00288e-05
-4.62506e-05
-2.82196e-05
4.58944e-06
-5.26751e-05
1.29145e-05
-7.21602e-05
1.96934e-05
-8.67788e-05
2.49451e-05
-9.68791e-05
2.88306e-05
-0.000102947
3.15097e-05
-0.000105553
3.3137e-05
-0.00010531
3.38633e-05
-0.000102879
3.38388e-05
-9.88998e-05
3.32112e-05
-9.3826e-05
3.21093e-05
-8.81846e-05
3.06686e-05
-8.23878e-05
2.90206e-05
-7.67132e-05
2.72588e-05
-7.13159e-05
2.54115e-05
-6.64473e-05
2.3506e-05
-6.23811e-05
2.16636e-05
-5.91345e-05
1.99979e-05
-5.66958e-05
1.85542e-05
-5.49636e-05
1.7334e-05
-5.37323e-05
1.62833e-05
-5.28885e-05
1.53421e-05
-5.24787e-05
1.45249e-05
-5.24453e-05