/*--------------------------------*- C++ -*----------------------------------*\
| =========                 |                                                 |
| \\      /  F ield         | OpenFOAM: The Open Source CFD Toolbox           |
|  \\    /   O peration     | Version:  dev                                   |
|   \\  /    A nd           | Web:      www.OpenFOAM.org                      |
|    \\/     M anipulation  |                                                 |
\*---------------------------------------------------------------------------*/
FoamFile
{
    version     2.0;
    format      ascii;
    class       surfaceVectorField;
    location    "4.62";
    object      Uf;
}
// * * * * * * * * * * * * * * * * * * * * * * * * * * * * * * * * * * * * * //

dimensions      [0 1 -1 0 0 0 0];

internalField   nonuniform List<vector> 
5457
(
(9.91392 -4.32488e-21 0.0231175)
(9.9626 -1.05489e-21 0.0381556)
(9.81652 0 0.0297822)
(9.92309 3.39462e-21 0.044527)
(9.70529 0 0.0352816)
(9.85728 7.02307e-21 0.0526128)
(9.57796 0 0.0409624)
(9.76608 0 0.0622948)
(9.43444 2.67177e-21 0.0468566)
(9.65636 1.01155e-20 0.072595)
(9.27481 2.58495e-21 0.0530202)
(9.53053 8.09377e-23 0.0834385)
(9.09878 7.25963e-21 0.0595949)
(9.38805 -2.72235e-20 0.095053)
(8.90573 1.02667e-21 0.0667191)
(9.22789 1.70067e-20 0.107658)
(8.69483 -5.80973e-21 0.0745139)
(9.04926 -5.90406e-21 0.121431)
(8.46511 0 0.0830982)
(8.85133 2.31781e-20 0.136543)
(8.21545 0 0.0925996)
(8.63313 2.98444e-22 0.153174)
(7.94459 0 0.103154)
(8.39349 -2.65772e-20 0.171522)
(7.65116 -1.50774e-20 0.114902)
(8.13113 0 0.191786)
(7.33372 9.48983e-22 0.127987)
(7.84464 -7.36111e-20 0.214154)
(6.99081 1.09848e-20 0.142547)
(7.53255 1.44606e-20 0.238799)
(6.62102 -3.97602e-21 0.158712)
(7.1934 5.53618e-20 0.265859)
(6.22308 0 0.176591)
(6.82578 1.66853e-20 0.295415)
(5.79596 -8.56425e-20 0.196247)
(6.42843 -1.41037e-19 0.327456)
(5.33905 -4.49591e-21 0.217682)
(6.00037 7.02745e-20 0.361827)
(4.85233 7.63756e-20 0.240802)
(5.54108 2.70489e-19 0.39818)
(4.33659 -8.75113e-20 0.265386)
(5.05066 -1.19476e-19 0.435913)
(3.79369 4.97141e-21 0.291032)
(4.5301 -8.62487e-20 0.474082)
(3.22686 8.78424e-20 0.317096)
(3.98146 8.90661e-20 0.51131)
(2.64105 -2.46994e-19 0.342612)
(3.40828 2.7632e-19 0.54567)
(2.04326 -3.91124e-20 0.366207)
(2.81588 -4.81081e-19 0.574538)
(1.44297 2.51146e-19 0.386071)
(2.21184 2.98895e-19 0.594483)
(0.851828 5.15226e-20 0.393509)
(1.60801 3.03204e-21 0.601461)
(0.280247 4.26602e-19 0.20502)
(1.00206 0 0.588844)
(-0.0649482 -1.57866e-19 -0.146609)
(0.371545 1.26294e-18 0.34985)
(0.233709 6.54896e-19 -0.0620982)
(9.99972 6.72395e-21 0.0474422)
(9.99171 2.08155e-20 0.0382742)
(9.96594 1.04695e-20 0.0633108)
(9.97943 3.39481e-21 0.0599664)
(9.91248 6.90275e-21 0.0772759)
(9.9443 7.05325e-21 0.0778924)
(9.84079 1.02864e-20 0.0921619)
(9.88425 4.386e-23 0.097366)
(9.75075 7.3561e-21 0.107996)
(9.805 -9.98117e-21 0.118134)
(9.64235 -3.01837e-20 0.124848)
(9.70909 -1.29911e-20 0.140098)
(9.51534 -1.67523e-20 0.143009)
(9.59623 -2.17936e-20 0.163634)
(9.36921 9.70473e-21 0.162782)
(9.46555 9.86368e-21 0.189151)
(9.20323 2.35481e-20 0.184434)
(9.31634 -2.93554e-21 0.217007)
(9.01651 2.31042e-20 0.208233)
(9.14792 7.08855e-20 0.247544)
(8.80798 -2.67132e-20 0.234466)
(8.9594 -4.96379e-20 0.28114)
(8.57642 -2.61632e-20 0.263431)
(8.74975 -2.65815e-20 0.318198)
(8.32048 -5.96834e-20 0.295421)
(8.51777 0 0.359124)
(8.03873 -5.87318e-20 0.330712)
(8.26216 -5.87763e-20 0.404315)
(7.72968 5.9478e-20 0.369545)
(7.9815 1.21069e-19 0.454145)
(7.39182 7.54488e-20 0.412097)
(7.67433 -5.82785e-20 0.50893)
(7.02376 -1.26781e-19 0.458436)
(7.33921 1.65787e-20 0.568883)
(6.62426 1.80116e-20 0.508459)
(6.97471 -1.5833e-19 0.634046)
(6.19242 3.48253e-19 0.561817)
(6.57961 1.90826e-19 0.704193)
(5.72786 6.9147e-20 0.617836)
(6.15294 1.5493e-19 0.778719)
(5.23089 -1.1775e-19 0.675404)
(5.69426 -1.59309e-19 0.856527)
(4.70279 0 0.73283)
(5.20372 8.22819e-20 0.935844)
(4.14611 2.80023e-19 0.787675)
(4.68228 -8.57751e-20 1.014)
(3.56504 3.53867e-20 0.836509)
(4.13207 3.66552e-19 1.08714)
(2.96599 -1.33995e-19 0.874439)
(3.5567 -3.29513e-19 1.1498)
(2.35874 4.62215e-20 0.893796)
(2.96162 7.725e-19 1.1939)
(1.75994 -5.03403e-20 0.877815)
(2.35595 -8.39556e-19 1.20566)
(1.20468 8.35982e-19 0.772385)
(1.73925 0 1.15234)
(0.594404 2.10418e-18 0.491497)
(1.11266 7.30904e-19 0.955381)
(0.632287 7.92032e-19 0.527312)
(9.99244 1.72409e-20 0.053402)
(9.98938 1.93355e-23 0.0416328)
(9.96207 1.51681e-23 0.0777787)
(9.97455 -1.80286e-20 0.0738623)
(9.91218 8.32912e-23 0.10084)
(9.94049 1.49096e-23 0.101507)
(9.84539 -2.03761e-20 0.125416)
(9.88343 4.38643e-23 0.130071)
(9.76201 -3.03836e-20 0.151708)
(9.80798 7.05931e-23 0.160342)
(9.66196 -4.75267e-21 0.179863)
(9.71676 1.34475e-22 0.192431)
(9.54505 5.34551e-21 0.210279)
(9.60976 -2.69678e-20 0.226809)
(9.41089 -2.98277e-21 0.243397)
(9.48624 5.08603e-20 0.264023)
(9.2589 4.55757e-20 0.279638)
(9.34566 -4.66272e-20 0.30458)
(9.08837 -3.79151e-21 0.319442)
(9.18746 1.0282e-19 0.348985)
(8.89839 -4.91605e-20 0.363288)
(9.01097 -1.01232e-19 0.397797)
(8.68791 0 0.411674)
(8.81535 0 0.451606)
(8.45576 0 0.465098)
(8.59967 0 0.511009)
(8.20066 1.23831e-19 0.524045)
(8.36284 0 0.576611)
(7.92122 5.46083e-22 0.588956)
(8.10373 1.07003e-19 0.649)
(7.61601 -1.16011e-19 0.660182)
(7.82106 -1.17779e-19 0.728703)
(7.28355 -1.75739e-20 0.737915)
(7.51355 -3.27765e-20 0.816125)
(6.92243 1.96321e-20 0.822083)
(7.17986 -1.27072e-22 0.911468)
(6.53135 -2.89651e-21 0.912223)
(6.81865 2.87777e-19 1.01458)
(6.10933 -7.75107e-20 1.00735)
(6.42867 -3.70917e-19 1.12478)
(5.65576 4.44229e-20 1.10576)
(6.00889 3.78247e-20 1.24075)
(5.17061 -5.77838e-21 1.20481)
(5.55855 6.52888e-19 1.36023)
(4.6546 6.16048e-21 1.30054)
(5.0771 -6.71333e-19 1.47969)
(4.10955 -5.52e-21 1.38725)
(4.5645 8.96807e-20 1.59386)
(3.53863 5.8947e-19 1.45668)
(4.02122 -9.30223e-20 1.69502)
(2.94661 -1.24833e-19 1.49636)
(3.44802 -6.43396e-19 1.77195)
(2.33791 -7.84327e-19 1.48478)
(2.84594 2.298e-18 1.80778)
(1.70559 -1.02126e-19 1.38579)
(2.20916 -1.57685e-18 1.77487)
(0.99264 -5.43089e-19 1.16857)
(1.50491 1.60847e-18 1.63909)
(0.884643 -1.93395e-18 1.35648)
(9.98801 -3.55508e-20 0.062613)
(9.98801 -1.75144e-20 0.0469525)
(9.95783 -1.77161e-20 0.0969931)
(9.97133 -9.65261e-24 0.0876779)
(9.90886 0 0.130021)
(9.93713 -1.86188e-20 0.1247)
(9.84313 2.05044e-20 0.164268)
(9.88116 0 0.16227)
(9.76136 3.05795e-20 0.200401)
(9.80721 1.00942e-20 0.201756)
(9.66358 -2.25455e-20 0.238853)
(9.71785 -1.04264e-20 0.243605)
(9.54965 1.98029e-20 0.28019)
(9.61327 3.21916e-20 0.288404)
(9.41932 5.63645e-21 0.325003)
(9.49286 1.14029e-20 0.336799)
(9.27219 1.29763e-20 0.373874)
(9.35616 2.71718e-21 0.389409)
(9.10775 2.13845e-21 0.427423)
(9.20274 5.2087e-20 0.446876)
(8.92531 -5.04942e-20 0.486314)
(9.03208 5.33703e-20 0.509909)
(8.72412 0 0.551229)
(8.84357 -1.04514e-19 0.57924)
(8.50332 0 0.622863)
(8.63651 0 0.655615)
(8.26197 -1.52078e-20 0.701915)
(8.41011 7.11415e-21 0.739808)
(7.99903 -1.47527e-20 0.789049)
(8.16353 -8.29332e-23 0.832593)
(7.71341 -3.32107e-20 0.884838)
(7.89585 0 0.934688)
(7.4039 -1.48504e-20 0.989689)
(7.60604 -2.7696e-19 1.0467)
(7.06926 2.72363e-19 1.10371)
(7.29305 5.56582e-19 1.16904)
(6.70821 -8.94617e-20 1.22654)
(6.95572 -6.23921e-20 1.30174)
(6.31949 -2.49844e-19 1.35716)
(6.59275 3.66309e-19 1.44422)
(5.90194 6.55045e-19 1.49371)
(6.20283 -1.21927e-18 1.59518)
(5.45439 -2.87776e-20 1.63312)
(5.78456 -6.98229e-19 1.75232)
(4.97573 -5.78632e-19 1.77065)
(5.3362 -1.24253e-20 1.91183)
(4.46484 0 1.8993)
(4.85565 0 2.06786)
(3.92042 -1.3292e-18 2.00909)
(4.34012 -1.75825e-19 2.21184)
(3.34009 1.79725e-18 2.08599)
(3.78564 -3.14393e-18 2.3318)
(2.71721 1.48713e-18 2.10972)
(3.1864 4.75976e-18 2.4119)
(2.0342 1.31577e-19 2.0546)
(2.53286 -1.47504e-18 2.43035)
(1.25531 2.28559e-19 1.90887)
(1.78535 1.70154e-18 2.3675)
(1.06253 -1.58508e-18 2.211)
(9.98581 1.83061e-20 0.0726413)
(9.98734 0 0.0532492)
(9.95527 -1.23922e-21 0.115661)
(9.96967 1.80198e-20 0.101664)
(9.90712 -1.83016e-20 0.15753)
(9.93543 -1.79052e-23 0.147513)
(9.84252 -1.02412e-20 0.200604)
(9.88054 1.92367e-20 0.193928)
(9.76227 -3.12568e-20 0.245917)
(9.80822 4.99307e-20 0.242416)
(9.66654 4.50236e-20 0.294169)
(9.72087 -1.0389e-19 0.293734)
(9.55521 2.34631e-20 0.34606)
(9.61879 4.28006e-20 0.348635)
(9.42803 8.33735e-21 0.402268)
(9.50143 -1.73289e-20 0.407855)
(9.28471 4.26159e-20 0.463477)
(9.36841 3.48579e-20 0.472106)
(9.12481 1.03329e-19 0.530423)
(9.21929 -3.03597e-21 0.542146)
(8.94779 -3.09461e-21 0.603888)
(9.05366 1.01576e-19 0.6188)
(8.75306 -1.02941e-19 0.684669)
(8.87107 -1.04565e-19 0.702908)
(8.54 7.22389e-21 0.773591)
(8.67095 0 0.795332)
(8.30791 2.21348e-20 0.8715)
(8.45269 3.81289e-23 0.896975)
(8.05607 1.46798e-20 0.979224)
(8.21567 2.51761e-19 1.00875)
(7.78363 -2.47923e-19 1.09752)
(7.95919 -4.9016e-19 1.13156)
(7.48972 3.06591e-19 1.22699)
(7.68246 -2.26947e-20 1.26618)
(7.17333 2.13237e-19 1.36797)
(7.38465 3.81747e-20 1.41322)
(6.83334 3.99611e-19 1.52028)
(7.0648 -3.21445e-19 1.57295)
(6.46842 -6.23903e-19 1.68309)
(6.72166 6.20667e-19 1.74504)
(6.07707 -2.56734e-18 1.85466)
(6.3537 -2.86539e-20 1.92841)
(5.6574 -6.7411e-19 2.03199)
(5.9591 -1.0702e-19 2.12101)
(5.20687 5.67016e-19 2.21026)
(5.53531 -1.35762e-18 2.3193)
(4.72191 -1.77566e-19 2.38225)
(5.07874 1.32401e-18 2.51768)
(4.19741 -2.01695e-18 2.53774)
(4.58415 -1.38317e-18 2.70782)
(3.62601 -1.25522e-19 2.66314)
(4.04421 -2.39801e-19 2.87814)
(2.99645 1.76817e-18 2.74072)
(3.44918 1.40548e-18 3.01395)
(2.29122 9.53992e-20 2.74902)
(2.78868 3.08214e-18 3.09578)
(1.49381 -1.05382e-19 2.68158)
(2.03193 -3.0402e-18 3.10194)
(1.23539 1.00089e-19 3.03848)
(9.98478 0 0.083031)
(9.9871 -3.4699e-20 0.0600015)
(9.95404 1.89273e-20 0.134104)
(9.96899 3.57713e-20 0.115744)
(9.90681 3.78533e-20 0.184553)
(9.93499 3.71688e-20 0.169901)
(9.84369 7.99328e-20 0.236431)
(9.88136 -3.83072e-20 0.224879)
(9.76539 -2.52331e-20 0.290901)
(9.81103 8.00082e-20 0.282119)
(9.6721 -1.03697e-19 0.348849)
(9.72612 -1.24048e-19 0.342615)
(9.56376 1.06635e-21 0.411091)
(9.62695 -5.40752e-20 0.407292)
(9.44014 1.00448e-20 0.478392)
(9.51311 6.64515e-20 0.476979)
(9.30099 -1.14e-20 0.551531)
(9.38422 -3.36323e-23 0.552473)
(9.1459 -3.18787e-21 0.631349)
(9.23987 9.03073e-20 0.634641)
(8.97444 -3.09171e-21 0.71873)
(9.07973 -2.1236e-21 0.724393)
(8.78612 0 0.814578)
(8.90343 -1.02907e-19 0.822665)
(8.58043 -7.18674e-21 0.919831)
(8.71048 0 0.930424)
(8.35681 2.33466e-19 1.03546)
(8.50037 -7.08388e-21 1.04867)
(8.1147 -2.63972e-19 1.16244)
(8.27256 3.11133e-21 1.17846)
(7.85344 -2.58377e-19 1.30169)
(8.0265 -2.65364e-19 1.32082)
(7.57231 -2.9038e-19 1.45401)
(7.76151 -2.52313e-19 1.47671)
(7.27048 -5.0239e-19 1.61992)
(7.47689 -1.58669e-20 1.64692)
(6.9469 -8.7889e-20 1.79956)
(7.17179 -6.59451e-21 1.83199)
(6.60017 1.2073e-18 1.99237)
(6.84493 -7.95591e-20 2.03196)
(6.22849 2.43303e-18 2.19697)
(6.49455 1.78449e-18 2.24611)
(5.82943 -8.03949e-19 2.41078)
(6.11844 1.8418e-18 2.47286)
(5.39949 -5.74464e-19 2.6295)
(5.71345 -1.85468e-18 2.70932)
(4.9335 9.33881e-20 2.84641)
(5.27499 1.32487e-18 2.95064)
(4.424 3.99018e-19 3.05185)
(4.79637 -1.2075e-18 3.18928)
(3.86099 1.30216e-18 3.23285)
(4.26831 2.95934e-18 3.41427)
(3.23204 2.72434e-18 3.37264)
(3.67916 -1.58434e-18 3.61105)
(2.52135 -4.49234e-20 3.44798)
(3.01744 4.20007e-21 3.75992)
(1.72653 -2.75931e-18 3.44927)
(2.27012 -8.37801e-20 3.8275)
(1.41517 1.02087e-19 3.8338)
(9.98445 2.19854e-21 0.0935601)
(9.98716 3.45516e-20 0.0669012)
(9.9538 5.40412e-20 0.152322)
(9.96893 4.10882e-23 0.129787)
(9.9076 -4.0266e-20 0.21099)
(9.93545 -1.83174e-20 0.191815)
(9.84627 -3.62608e-20 0.271361)
(9.88336 -3.84119e-20 0.254972)
(9.77035 -2.21554e-20 0.33466)
(9.81534 7.95294e-20 0.320644)
(9.67995 -7.32651e-20 0.401932)
(9.73326 -6.16127e-20 0.390018)
(9.57506 1.32763e-20 0.474112)
(9.63747 -5.35217e-20 0.464127)
(9.45554 5.53342e-20 0.552062)
(9.52767 7.74104e-20 0.543878)
(9.32114 1.03097e-19 0.636662)
(9.40347 2.29857e-20 0.630181)
(9.1715 8.99685e-20 0.728843)
(9.26451 9.6312e-20 0.723991)
(9.00627 -1.035e-19 0.829575)
(9.11055 1.01743e-21 0.826291)
(8.82502 -1.0141e-19 0.939858)
(8.94126 -1.02976e-19 0.938107)
(8.6273 0 1.06073)
(8.75622 2.14012e-19 1.06051)
(8.41261 -2.37428e-19 1.19328)
(8.55496 -2.23233e-19 1.19461)
(8.18045 -2.21674e-21 1.3386)
(8.33697 -2.34161e-19 1.34157)
(7.93025 -2.58977e-19 1.49777)
(8.10175 -2.38721e-19 1.50256)
(7.66136 2.50567e-20 1.67174)
(7.8487 -4.65192e-19 1.67869)
(7.37304 4.80477e-19 1.86132)
(7.57712 5.12948e-19 1.87097)
(7.06422 3.07663e-22 2.06695)
(7.28616 2.76497e-20 2.08026)
(6.73331 5.20489e-19 2.2885)
(6.97455 5.8149e-19 2.30703)
(6.3782 1.19434e-18 2.52509)
(6.64021 5.1455e-19 2.55106)
(5.99597 7.49799e-19 2.77481)
(6.28048 1.86001e-18 2.81142)
(5.58237 7.78777e-20 3.03421)
(5.8917 -1.12858e-18 3.08607)
(5.13133 0 3.2975)
(5.46857 0 3.37114)
(4.63416 1.38303e-18 3.5558)
(5.0035 -7.95697e-20 3.66013)
(4.07954 4.80138e-20 3.79636)
(4.48614 1.37342e-18 3.94265)
(3.45477 -4.29246e-18 4.00163)
(3.90378 -1.31105e-18 4.20337)
(2.74451 -4.31776e-20 4.14296)
(3.24152 -2.97174e-18 4.42129)
(1.9528 2.76951e-18 4.20189)
(2.50808 2.98029e-18 4.54712)
(1.60125 -9.83894e-20 4.6087)
(9.98453 3.18488e-20 0.104056)
(9.98733 8.88426e-21 0.0737653)
(9.95423 -7.2651e-20 0.170215)
(9.96925 -2.68347e-20 0.143676)
(9.90929 -1.67844e-20 0.236694)
(9.93666 -1.47291e-24 0.213146)
(9.85007 7.93644e-20 0.305181)
(9.88643 1.36333e-22 0.284052)
(9.77688 3.77781e-20 0.37697)
(9.82096 1.9924e-20 0.357817)
(9.68979 -4.17333e-20 0.453222)
(9.74204 -1.70121e-22 0.435732)
(9.58884 1.27069e-20 0.534953)
(9.65009 -2.11867e-20 0.51888)
(9.47395 4.42081e-20 0.623123)
(9.5448 1.11273e-20 0.608259)
(9.3449 1.73091e-20 0.718708)
(9.42583 3.75214e-23 0.704889)
(9.2014 5.86805e-21 0.822717)
(9.29289 1.00748e-19 0.8098)
(9.04314 0 0.936197)
(9.14582 -9.74117e-20 0.924046)
(8.86976 2.17229e-19 1.06025)
(8.98431 -6.32219e-21 1.04874)
(8.68085 -1.55011e-20 1.19601)
(8.80799 2.14194e-19 1.18507)
(8.47595 -2.20178e-19 1.34468)
(8.61647 -2.20025e-19 1.33424)
(8.25455 -4.7091e-19 1.50747)
(8.40923 0 1.49754)
(8.01613 -4.48616e-19 1.68563)
(8.18579 -9.36065e-19 1.67627)
(7.76004 3.55343e-20 1.8803)
(7.9456 4.773e-19 1.87173)
(7.48549 5.29987e-20 2.09254)
(7.68785 -5.57889e-21 2.08515)
(7.19141 6.15687e-19 2.32323)
(7.41162 5.49685e-19 2.31774)
(6.87607 5.75145e-19 2.57278)
(7.11569 5.54045e-19 2.57049)
(6.53695 1.1957e-18 2.84092)
(6.79772 -1.66375e-18 2.84388)
(6.17058 -4.89318e-20 3.12657)
(6.45455 1.27929e-20 3.13773)
(5.77215 -1.19692e-18 3.42729)
(6.08202 -1.24578e-18 3.45096)
(5.33489 -8.02744e-20 3.7384)
(5.67421 0 3.78087)
(4.84936 -7.90403e-20 4.05192)
(5.22279 -1.80473e-21 4.12211)
(4.30328 0 4.35496)
(4.71646 0 4.46499)
(3.68317 0 4.62838)
(4.14157 0 4.79319)
(2.97237 4.41739e-20 4.83693)
(3.47674 -2.65923e-18 5.08439)
(2.17427 4.28157e-20 4.94961)
(2.75238 2.7762e-18 5.27295)
(1.79343 -2.89685e-18 5.38576)
(9.98482 -5.05179e-20 0.114387)
(9.98738 -1.73755e-20 0.0804991)
(9.95521 4.62077e-20 0.187656)
(9.96988 -1.76714e-20 0.157258)
(9.91183 1.69485e-20 0.261532)
(9.93859 5.52067e-20 0.233753)
(9.85498 -5.8993e-20 0.337746)
(9.89043 -1.9022e-20 0.311994)
(9.78479 -1.83618e-20 0.417668)
(9.82772 1.92603e-20 0.393498)
(9.70138 2.00535e-20 0.502513)
(9.75229 -4.05362e-20 0.479561)
(9.60482 -2.22626e-20 0.593366)
(9.66457 1.05649e-19 0.571315)
(9.49506 -3.32321e-20 0.691277)
(9.56423 -2.1819e-19 0.669852)
(9.37192 8.50236e-20 0.797309)
(9.45098 1.01115e-19 0.77628)
(9.2352 -5.49145e-21 0.912545)
(9.32465 8.31873e-20 0.891694)
(9.08464 -1.02438e-19 1.03811)
(9.18511 9.72229e-20 1.01723)
(8.91992 -6.23381e-21 1.1752)
(9.03211 1.79603e-21 1.15408)
(8.74069 3.47072e-21 1.32507)
(8.86534 -2.00481e-19 1.30354)
(8.54653 3.37527e-21 1.48902)
(8.68444 2.23087e-19 1.46693)
(8.33695 -4.77962e-19 1.66842)
(8.48898 -2.21681e-19 1.64565)
(8.11143 8.47055e-21 1.86465)
(8.27848 -4.71926e-19 1.84117)
(7.86928 4.30062e-19 2.07908)
(8.05236 4.60946e-19 2.055)
(7.6096 4.97959e-19 2.31309)
(7.80978 -3.16132e-20 2.28863)
(7.33125 4.88297e-19 2.568)
(7.54974 5.23242e-19 2.54361)
(7.03248 -1.71127e-18 2.8449)
(7.27088 -2.84535e-20 2.82151)
(6.71039 -2.83339e-18 3.14434)
(6.97075 -1.66713e-18 3.12371)
(6.36101 -1.19774e-18 3.46617)
(6.64593 -1.10455e-18 3.45096)
(5.979 -3.6063e-20 3.80906)
(6.29176 -7.32658e-22 3.80321)
(5.55689 7.86429e-20 4.16966)
(5.90167 1.16134e-18 4.17912)
(5.08438 7.74461e-20 4.54106)
(5.46651 -1.10353e-18 4.57482)
(4.54785 0 4.91047)
(4.97361 0 4.98182)
(3.93186 -2.67969e-18 5.25718)
(4.40794 0 5.38336)
(3.21643 6.88211e-20 5.53983)
(3.73866 -2.6221e-18 5.75649)
(2.39868 -3.06632e-19 5.7128)
(3.01427 2.6899e-18 6.02131)
(1.99625 -2.89648e-18 6.19488)
(9.98523 1.51972e-20 0.12444)
(9.98725 1.11421e-19 0.087054)
(9.95668 -7.4196e-21 0.204501)
(9.97075 -2.65941e-20 0.170363)
(9.91512 1.79978e-20 0.285377)
(9.94112 1.8312e-20 0.253509)
(9.86084 5.98871e-20 0.36893)
(9.89519 0 0.338701)
(9.79394 -3.87118e-21 0.456593)
(9.83549 1.97885e-20 0.427549)
(9.71454 4.73768e-20 0.549602)
(9.76385 -2.75338e-22 0.521332)
(9.62276 -9.53628e-20 0.649103)
(9.68069 2.16947e-20 0.621229)
(9.51856 -7.89702e-20 0.756231)
(9.58569 -8.82903e-20 0.728412)
(9.40186 9.90277e-20 0.872121)
(9.47863 9.01318e-20 0.844057)
(9.27251 1.86146e-19 0.997924)
(9.35945 -4.77473e-23 0.969328)
(9.1303 2.00239e-19 1.13485)
(9.22803 3.87543e-19 1.10543)
(8.97499 -1.95358e-19 1.28419)
(9.08422 -1.8955e-19 1.25366)
(8.80628 2.50021e-20 1.44729)
(8.92776 -4.26085e-19 1.41537)
(8.62382 -7.88836e-21 1.6256)
(8.75837 4.27843e-19 1.59203)
(8.42717 -2.18914e-19 1.8206)
(8.57569 -2.21962e-19 1.78516)
(8.2158 -7.50046e-21 2.03389)
(8.37928 -4.54591e-19 1.99638)
(7.98901 -7.31638e-21 2.26709)
(8.16859 4.64672e-19 2.22745)
(7.74587 0 2.52188)
(7.94282 3.73225e-21 2.48016)
(7.48506 0 2.8001)
(7.70093 0 2.75645)
(7.2047 0 3.10357)
(7.44122 -1.01978e-18 3.05854)
(6.90183 6.97341e-20 3.43386)
(7.16131 1.0386e-18 3.38871)
(6.57219 1.04505e-19 3.79188)
(6.85792 2.16008e-18 3.74881)
(6.20987 1.2078e-18 4.17767)
(6.52593 -1.05329e-18 4.14007)
(5.80663 -3.75599e-20 4.58952)
(6.15815 1.16443e-18 4.56287)
(5.35099 -1.17395e-18 5.02218)
(5.74452 -1.1848e-18 5.0154)
(4.82721 0 5.46385)
(5.27049 0 5.49144)
(4.21615 3.92838e-20 5.89331)
(4.71883 -1.17053e-18 5.97524)
(3.49211 -3.4494e-21 6.2646)
(4.04636 1.20155e-18 6.44497)
(2.6408 -4.03655e-20 6.51693)
(3.31304 -4.14599e-20 6.81031)
(2.2213 0 7.07225)
(9.9857 6.7298e-20 0.134124)
(9.98707 6.8168e-20 0.0934)
(9.95851 0 0.220613)
(9.97178 -1.75775e-20 0.182856)
(9.91903 0 0.308111)
(9.94408 3.63268e-20 0.272294)
(9.86753 -3.97836e-20 0.398614)
(9.90059 -1.87527e-20 0.364065)
(9.80417 2.30653e-20 0.493597)
(9.84414 -3.91467e-20 0.459838)
(9.72908 -2.56188e-20 0.594309)
(9.77655 1.41009e-19 0.560896)
(9.64241 2.70651e-20 0.701947)
(9.69824 -4.2058e-20 0.668435)
(9.5442 8.36026e-20 0.817722)
(9.60893 -4.23927e-20 0.783701)
(9.43442 -1.03321e-20 0.942832)
(9.5085 4.39464e-20 0.907942)
(9.31298 2.07012e-19 1.07849)
(9.39696 -1.72742e-19 1.04238)
(9.17974 -1.05083e-20 1.226)
(9.27422 3.82013e-19 1.18828)
(9.03454 -4.23674e-19 1.38672)
(9.1402 -1.97869e-19 1.34702)
(8.87715 -1.16933e-20 1.56211)
(8.99477 -2.25537e-19 1.52005)
(8.7073 2.05326e-19 1.75371)
(8.83771 2.21188e-19 1.70892)
(8.52463 -4.60702e-19 1.9632)
(8.66877 -4.32848e-19 1.9153)
(8.32867 2.85707e-20 2.19235)
(8.48759 -1.28216e-20 2.14098)
(8.11878 4.70716e-19 2.44305)
(8.29371 1.40917e-20 2.38794)
(7.89404 3.69413e-21 2.71741)
(8.08646 4.68103e-19 2.65829)
(7.65303 -1.03159e-18 3.01778)
(7.86473 0 2.95451)
(7.39371 3.81011e-20 3.34673)
(7.62669 -3.26251e-20 3.27945)
(7.11326 3.14311e-18 3.70687)
(7.37029 3.48315e-20 3.63616)
(6.80745 9.77326e-19 4.10046)
(7.09246 2.10459e-18 4.02773)
(6.46997 -1.08201e-18 4.52921)
(6.78799 -1.09008e-18 4.45707)
(6.09177 0 4.99369)
(6.44928 0 4.92674)
(5.65999 0 5.49144)
(6.06547 3.30563e-20 5.43792)
(5.15602 -1.18267e-18 6.01334)
(5.62006 -1.0852e-18 5.98834)
(4.55501 2.75982e-20 6.5401)
(5.09274 -1.09736e-18 6.56613)
(3.8221 1.14707e-18 7.02427)
(4.42564 2.2233e-18 7.15402)
(2.92515 0 7.39141)
(3.6805 2.28425e-18 7.65785)
(2.49125 -5.22336e-20 8.06265)
(9.98627 -1.80843e-20 0.143362)
(9.98705 -1.44501e-19 0.0994906)
(9.96059 1.97636e-20 0.235878)
(9.97296 8.64925e-21 0.194661)
(9.92341 1.66795e-20 0.329621)
(9.94732 1.8285e-20 0.29)
(9.87493 -1.84485e-20 0.426682)
(9.90651 -1.87601e-20 0.387975)
(9.81532 8.17018e-20 0.528547)
(9.85349 0 0.49025)
(9.74481 1.21714e-19 0.636473)
(9.79022 4.04238e-20 0.598108)
(9.66358 -1.11536e-19 0.7517)
(9.71707 5.75584e-22 0.712759)
(9.57173 -8.08276e-20 0.875506)
(9.63377 -2.14436e-19 0.835515)
(9.46929 -1.21675e-19 1.00915)
(9.54034 1.76895e-19 0.967684)
(9.35626 1.01051e-20 1.15392)
(9.43686 -2.75182e-19 1.11054)
(9.23255 1.86609e-19 1.31116)
(9.32327 9.12393e-22 1.26543)
(9.09808 1.04587e-22 1.48232)
(9.19962 1.93081e-19 1.43377)
(8.95275 1.32857e-20 1.66894)
(9.06586 1.26452e-20 1.61708)
(8.79638 -4.25843e-19 1.87269)
(8.9219 2.06653e-19 1.817)
(8.62871 2.01512e-20 2.09538)
(8.76759 -6.4461e-19 2.03534)
(8.44941 -2.70513e-20 2.33897)
(8.60273 4.4315e-19 2.27404)
(8.25795 1.55887e-20 2.60566)
(8.42701 -9.08293e-19 2.53528)
(8.05345 4.5989e-19 2.89799)
(8.23988 9.36749e-19 2.82158)
(7.83452 1.00052e-18 3.21887)
(8.0402 0 3.13591)
(7.59937 -3.44486e-20 3.57158)
(7.8266 9.76995e-19 3.48163)
(7.34547 -9.9063e-19 3.95973)
(7.59755 -1.00891e-18 3.86254)
(7.06882 1.01521e-20 4.38714)
(7.35017 9.68332e-19 4.28302)
(6.76304 2.055e-21 4.85768)
(7.07978 7.80674e-23 4.74804)
(6.4187 3.3362e-20 5.37495)
(6.77893 5.74569e-20 5.26279)
(6.02181 -1.06331e-18 5.94079)
(6.43669 -1.02217e-18 5.83244)
(5.55071 -1.00026e-18 6.55175)
(6.03533 -1.02625e-18 6.46104)
(4.9732 1.16159e-18 7.19513)
(5.5517 1.10356e-20 7.14518)
(4.24059 3.36635e-18 7.82851)
(4.91224 1.12724e-18 7.87907)
(3.2926 2.04772e-18 8.3711)
(4.16904 2.22735e-18 8.57746)
(2.84925 -2.16198e-18 9.22587)
(9.98701 -1.15197e-19 0.1521)
(9.98724 -6.81571e-20 0.105254)
(9.96287 7.33734e-21 0.250231)
(9.97432 1.75458e-20 0.205757)
(9.92812 -1.77542e-20 0.349816)
(9.95076 -1.80617e-20 0.306568)
(9.88284 0 0.45302)
(9.91276 3.72129e-20 0.410331)
(9.82724 -4.06539e-20 0.561307)
(9.8634 -2.33841e-23 0.518664)
(9.76159 -8.14034e-20 0.675933)
(9.80472 -1.1952e-19 0.632818)
(9.68609 -1.05605e-19 0.798176)
(9.73699 4.0349e-20 0.754033)
(9.60093 4.91508e-20 0.929368)
(9.66001 -2.15167e-20 0.883665)
(9.50622 1.68811e-20 1.07083)
(9.57394 2.29852e-20 1.02306)
(9.402 -2.80589e-19 1.22389)
(9.47886 -9.63601e-22 1.17357)
(9.28829 9.84338e-21 1.38997)
(9.37482 -1.6548e-19 1.33657)
(9.16513 2.03314e-19 1.57056)
(9.26203 1.93281e-19 1.51352)
(9.03253 2.08651e-19 1.76726)
(9.14051 -2.09536e-19 1.70598)
(8.89043 -2.24559e-20 1.98187)
(9.01029 3.95894e-19 1.91571)
(8.73873 -2.08764e-19 2.21631)
(8.87141 2.31983e-19 2.14458)
(8.57724 -4.54259e-19 2.47273)
(8.72385 -4.261e-19 2.39468)
(8.40558 3.22865e-20 2.75364)
(8.56745 -4.49509e-19 2.6684)
(8.22301 4.67141e-19 3.06196)
(8.40177 4.58313e-19 2.96863)
(8.02853 -1.49906e-20 3.40106)
(8.22611 -2.82939e-20 3.29867)
(7.8209 -1.47138e-20 3.77485)
(8.03984 2.85816e-20 3.66221)
(7.59809 9.69594e-19 4.18795)
(7.84194 0 4.06383)
(7.35664 9.54267e-19 4.64588)
(7.63016 9.93097e-19 4.50924)
(7.09087 5.85449e-20 5.15498)
(7.40103 -2.00155e-21 5.0054)
(6.79188 -1.00527e-18 5.7225)
(7.14833 5.54551e-20 5.56038)
(6.44569 -9.84744e-19 6.35629)
(6.86264 -1.05869e-18 6.18416)
(6.02896 -4.53661e-21 7.06257)
(6.52734 1.1155e-21 6.88937)
(5.50249 2.35653e-21 7.84332)
(6.1196 -6.6018e-20 7.68716)
(4.7998 1.85892e-21 8.67586)
(5.55466 6.66274e-20 8.59548)
(3.81592 -2.2245e-18 9.50015)
(4.86803 8.85845e-19 9.56578)
(3.38249 -3.03843e-18 10.6536)
(9.98789 6.59733e-20 0.16029)
(9.98756 7.61739e-20 0.110624)
(9.96538 -8.54792e-21 0.263644)
(9.97589 -6.04751e-20 0.216112)
(9.93307 3.78455e-20 0.368641)
(9.9544 -1.25021e-19 0.321986)
(9.89112 3.66511e-20 0.477529)
(9.91928 1.11116e-19 0.431074)
(9.83976 -8.07944e-20 0.591743)
(9.87374 -3.8134e-20 0.544956)
(9.77923 4.73387e-21 0.712535)
(9.81986 -7.95632e-20 0.664881)
(9.70976 1.23568e-19 0.841202)
(9.75781 4.12397e-20 0.792099)
(9.63161 -4.70525e-20 0.979114)
(9.68745 8.42261e-20 0.927963)
(9.54494 4.76293e-21 1.12764)
(9.60903 -4.44969e-20 1.07388)
(9.44988 1.12012e-19 1.28817)
(9.52266 3.12925e-19 1.23125)
(9.34658 2.28162e-20 1.46212)
(9.42857 -3.44137e-19 1.40144)
(9.23522 -2.25136e-19 1.65103)
(9.32704 1.88377e-19 1.58594)
(9.11589 -1.48339e-20 1.85659)
(9.2182 -3.25553e-21 1.78639)
(8.98871 6.48856e-19 2.08065)
(9.10225 -1.96591e-19 2.00456)
(8.85376 7.51204e-21 2.32525)
(8.97941 6.22415e-19 2.24241)
(8.71103 -4.21688e-19 2.59271)
(8.84988 -4.00749e-19 2.50214)
(8.56032 -1.42536e-20 2.88576)
(8.71366 4.02319e-19 2.78636)
(8.40132 -4.25707e-20 3.20761)
(8.57067 -4.23346e-19 3.0981)
(8.23369 1.5832e-20 3.56191)
(8.42098 -2.89283e-22 3.44076)
(8.05682 4.30994e-20 3.95307)
(8.26462 1.50105e-20 3.81837)
(7.86947 3.04789e-20 4.38666)
(8.1012 0 4.23613)
(7.66936 2.99993e-20 4.86977)
(7.92976 3.02673e-20 4.70076)
(7.45249 -2.01727e-21 5.41109)
(7.74871 0 5.22077)
(7.21213 -1.98697e-21 6.02169)
(7.55454 -6.07611e-20 5.8068)
(6.93685 -6.19834e-20 6.71642)
(7.34176 8.98819e-19 6.47345)
(6.60589 -6.08271e-20 7.51474)
(7.09946 -1.84783e-18 7.24248)
(6.17938 0 8.4438)
(6.81407 8.89166e-19 8.14391)
(5.57805 9.67968e-19 9.53057)
(6.40941 0 9.23468)
(4.63812 -2.10499e-19 10.8364)
(5.93617 9.47045e-19 10.5596)
(4.2683 -9.24986e-19 12.5064)
(9.98889 -5.26053e-20 0.167886)
(9.98793 0 0.115558)
(9.9681 -1.78165e-19 0.276086)
(9.97758 -3.67613e-20 0.225683)
(9.93829 -4.78914e-20 0.386059)
(9.95822 -7.66806e-20 0.336232)
(9.89975 3.40345e-20 0.500125)
(9.92609 7.53935e-20 0.450163)
(9.85276 -3.75329e-20 0.619723)
(9.88446 -7.46128e-20 0.569056)
(9.79757 -4.11961e-20 0.746113)
(9.8355 -7.39579e-20 0.694191)
(9.73439 2.50024e-21 0.880586)
(9.77934 -3.08355e-21 0.826818)
(9.66351 8.49409e-20 1.02453)
(9.71586 3.19316e-21 0.968269)
(9.58517 2.68821e-19 1.17935)
(9.64533 4.36446e-20 1.11999)
(9.49962 -1.52318e-19 1.34646)
(9.56803 -2.29856e-20 1.28338)
(9.40712 -1.71643e-19 1.52728)
(9.4843 -1.82246e-19 1.45982)
(9.30792 4.08072e-19 1.72339)
(9.39444 1.92119e-19 1.65082)
(9.20228 -1.87463e-19 1.93651)
(9.29874 2.23457e-19 1.85805)
(9.09049 -2.13869e-19 2.16854)
(9.19758 -4.06874e-19 2.08328)
(8.97283 2.02767e-19 2.42158)
(9.09137 5.62669e-19 2.3285)
(8.84951 4.32805e-19 2.69809)
(8.98053 -4.3414e-19 2.59601)
(8.72074 -1.46697e-20 3.00091)
(8.86539 4.35569e-19 2.88846)
(8.58682 -3.77236e-19 3.33331)
(8.74647 -4.4315e-19 3.20883)
(8.44807 -9.75116e-22 3.6991)
(8.62452 -2.21036e-20 3.56057)
(8.30462 -2.82635e-20 4.10304)
(8.5002 -2.90798e-20 3.94791)
(8.15638 0 4.55134)
(8.37411 0 4.3763)
(8.00288 0 5.05207)
(8.24699 -4.6885e-19 4.85285)
(7.84291 -5.90317e-20 5.61557)
(8.11974 4.21641e-19 5.38676)
(7.67391 8.49175e-19 6.25579)
(7.99278 -5.97556e-20 5.98989)
(7.49094 -9.01507e-19 6.99336)
(7.86726 1.2186e-18 6.67936)
(7.28395 -8.91079e-19 7.86012)
(7.74367 -2.22888e-18 7.48209)
(7.02982 8.77968e-19 8.91155)
(7.63152 9.075e-19 8.44132)
(6.67298 0 10.2533)
(7.50927 0 9.64751)
(6.05901 2.736e-21 12.4314)
(7.70769 -1.37618e-19 11.2776)
(7.15282 2.77696e-21 15.0484)
(0.175321 9.69694e-21 -0.117893)
(0.112811 -6.34392e-22 -0.150455)
(0.39001 -1.42714e-21 -0.116395)
(0.269654 -9.49523e-21 -0.176438)
(0.590907 -9.68067e-21 -0.0970917)
(0.467874 -9.15503e-21 -0.155155)
(0.765628 0 -0.0777225)
(0.657856 4.20022e-22 -0.129565)
(0.914348 0 -0.0615588)
(0.823536 1.67041e-20 -0.107518)
(1.03945 0 -0.0482928)
(0.964067 0 -0.0890173)
(1.14355 9.12417e-22 -0.0372084)
(1.08317 0 -0.0733347)
(1.22877 9.21334e-22 -0.027548)
(1.18417 -1.29738e-22 -0.0596366)
(1.29607 1.71366e-21 -0.0186148)
(1.26899 0 -0.0468478)
(1.34556 1.76866e-21 -0.0100422)
(1.33824 -5.14699e-21 -0.0342487)
(1.37705 2.45266e-21 -0.00188257)
(1.39247 -6.7598e-21 -0.0216226)
(1.39083 1.71335e-21 0.00535514)
(1.43183 1.72334e-21 -0.00932361)
(1.38877 -1.56699e-21 0.0109124)
(1.45616 2.39642e-21 0.00155056)
(1.37421 -1.52617e-21 0.0143038)
(1.4665 -2.33323e-21 0.00999286)
(1.35137 -4.17439e-22 0.0154782)
(1.46512 -7.43971e-22 0.0154586)
(1.32498 2.87287e-23 0.0146765)
(1.45659 1.08927e-21 0.0176617)
(1.29965 -3.21541e-23 0.0123854)
(1.44606 -3.52699e-22 0.0167859)
(1.27906 3.24418e-22 0.00920301)
(1.43773 9.76158e-22 0.0135331)
(1.26557 -6.08273e-24 0.00567737)
(1.43435 -3.55115e-22 0.00883459)
(1.26032 -1.30185e-22 0.00221295)
(1.43701 -1.19243e-21 0.0035291)
(1.26338 -1.74445e-24 -0.000858983)
(1.44567 3.93473e-22 -0.00169661)
(1.27357 1.30031e-22 -0.00323175)
(1.45934 1.11479e-22 -0.00607308)
(1.2888 -1.49677e-22 -0.0047933)
(1.47654 0 -0.00906675)
(1.30707 -1.97927e-22 -0.0056895)
(1.4959 4.39854e-22 -0.010779)
(1.32694 9.25205e-23 -0.00612925)
(1.51621 2.92202e-22 -0.0115985)
(1.34742 1.28391e-22 -0.00625404)
(1.53666 -1.3364e-24 -0.011822)
(1.36785 3.0243e-25 -0.00617142)
(1.55659 -1.17403e-23 -0.0116449)
(1.38787 1.04575e-22 -0.00593927)
(1.5755 1.15627e-23 -0.0112651)
(1.40712 1.25535e-22 -0.005483)
(1.59321 -7.1787e-24 -0.010693)
(1.61256 -6.43931e-24 -0.00957621)
(0.155038 -1.98924e-20 -0.249829)
(0.0900694 -4.05265e-20 -0.306796)
(0.354117 -1.53748e-20 -0.253937)
(0.218988 2.05951e-20 -0.341151)
(0.548302 5.91403e-21 -0.219707)
(0.405679 3.39922e-22 -0.303954)
(0.722621 1.96714e-20 -0.183573)
(0.581932 3.43174e-20 -0.257877)
(0.875131 1.68725e-20 -0.152777)
(0.736801 -3.23844e-20 -0.217325)
(1.00789 0 -0.127179)
(0.870572 1.57822e-20 -0.183369)
(1.12346 -9.1368e-22 -0.105497)
(0.986497 0 -0.154843)
(1.22387 -9.23012e-22 -0.0862899)
(1.0874 8.9745e-22 -0.130135)
(1.31057 -6.83769e-21 -0.068253)
(1.17539 -1.77016e-21 -0.107501)
(1.38465 -1.36939e-20 -0.0505899)
(1.25176 -8.5995e-21 -0.0858416)
(1.44657 -7.6165e-21 -0.0330925)
(1.31781 -8.47468e-21 -0.0645137)
(1.4961 2.31991e-21 -0.0162309)
(1.37404 -1.06888e-20 -0.0434169)
(1.53247 1.69252e-21 -0.00113841)
(1.42034 9.66103e-21 -0.0233169)