/*--------------------------------*- C++ -*----------------------------------*\
| =========                 |                                                 |
| \\      /  F ield         | OpenFOAM: The Open Source CFD Toolbox           |
|  \\    /   O peration     | Version:  dev                                   |
|   \\  /    A nd           | Web:      www.OpenFOAM.org                      |
|    \\/     M anipulation  |                                                 |
\*---------------------------------------------------------------------------*/
FoamFile
{
    version     2.0;
    format      ascii;
    class       surfaceScalarField;
    location    "4.39";
    object      meshPhi;
}
// * * * * * * * * * * * * * * * * * * * * * * * * * * * * * * * * * * * * * //

dimensions      [0 3 -1 0 0 0 0];

internalField   nonuniform List<scalar> 
879
(
7.46653e-05
-8.88134e-07
8.59257e-05
-1.16464e-06
9.65572e-05
-1.45749e-06
0.00010619
-1.7486e-06
0.000114454
-2.02131e-06
0.000121017
-2.26233e-06
0.000125606
-2.45963e-06
0.000128023
-2.60573e-06
0.000128154
-2.69806e-06
0.000125973
-2.73705e-06
0.000121532
-2.72434e-06
0.000114945
-2.66247e-06
0.000106362
-2.55309e-06
9.59427e-05
-2.3963e-06
8.38322e-05
-2.19046e-06
7.01376e-05
-1.93235e-06
5.49116e-05
-1.61741e-06
3.81434e-05
-1.24006e-06
1.97405e-05
-7.93701e-07
-2.77972e-07
7.45274e-05
-1.77424e-06
8.57622e-05
-2.32181e-06
9.63985e-05
-2.90054e-06
0.000106051
-3.4772e-06
0.000114341
-4.01817e-06
0.000120925
-4.49532e-06
0.00012553
-4.8861e-06
0.000127956
-5.17566e-06
0.000128089
-5.3592e-06
0.000125905
-5.43768e-06
0.000121459
-5.41371e-06
0.000114865
-5.29235e-06
0.000106277
-5.07666e-06
9.58568e-05
-4.76648e-06
8.37502e-05
-4.35835e-06
7.00643e-05
-3.84574e-06
5.48517e-05
-3.21954e-06
3.81011e-05
-2.46862e-06
1.97187e-05
-1.57999e-06
-5.53293e-07
7.35853e-05
-2.64669e-06
8.47865e-05
-3.45117e-06
9.54353e-05
-4.29951e-06
0.000105134
-5.14697e-06
0.000113491
-5.94387e-06
0.000120149
-6.64647e-06
0.000124829
-7.22387e-06
0.000127329
-7.65543e-06
0.000127533
-7.93223e-06
0.000125414
-8.053e-06
0.000121028
-8.02212e-06
0.000114489
-7.84754e-06
0.000105953
-7.53297e-06
9.55829e-05
-7.07733e-06
8.35248e-05
-6.47503e-06
6.98858e-05
-5.71614e-06
5.47189e-05
-4.78704e-06
3.80128e-05
-3.67129e-06
1.96744e-05
-2.34985e-06
-8.22853e-07
7.18348e-05
-3.49776e-06
8.30059e-05
-4.53873e-06
9.36823e-05
-5.63405e-06
0.000103453
-6.72835e-06
0.000111912
-7.75929e-06
0.000118694
-8.67164e-06
0.000123506
-9.42595e-06
0.000126142
-9.99704e-06
0.000126483
-1.03703e-05
0.000124498
-1.05402e-05
0.000120238
-1.0511e-05
0.000113818
-1.02925e-05
0.000105393
-9.89006e-06
9.51247e-05
-9.30056e-06
8.31601e-05
-8.51595e-06
6.96062e-05
-7.52283e-06
5.45163e-05
-6.30323e-06
3.78808e-05
-4.83568e-06
1.96091e-05
-3.0956e-06
-1.08402e-06
6.95978e-05
-4.3209e-06
8.07346e-05
-5.57464e-06
9.14444e-05
-6.89074e-06
0.000101299
-8.20533e-06
0.000109881
-9.44633e-06
0.000116814
-1.05503e-05
0.000121792
-1.14694e-05
0.0001246
-1.21724e-05
0.000125113
-1.26408e-05
0.000123299
-1.28674e-05
0.000119204
-1.28518e-05
0.000112939
-1.2602e-05
0.00010466
-1.2125e-05
9.45267e-05
-1.14156e-05
8.26853e-05
-1.04631e-05
6.92428e-05
-9.25047e-06
5.42533e-05
-7.75567e-06
3.77094e-05
-5.95252e-06
1.95242e-05
-3.81142e-06
-1.33478e-06
6.70532e-05
-5.10858e-06
7.81405e-05
-6.54966e-06
8.88729e-05
-8.05869e-06
9.88081e-05
-9.5668e-06
0.000107515
-1.09943e-05
0.000114607
-1.22708e-05
0.000119768
-1.33411e-05
0.000122769
-1.41679e-05
0.000123481
-1.47292e-05
0.000121864
-1.50157e-05
0.00011796
-1.50239e-05
0.000111879
-1.47575e-05
0.000103775
-1.42206e-05
9.38047e-05
-1.34068e-05
8.21122e-05
-1.23024e-05
6.88042e-05
-1.08869e-05
5.39359e-05
-9.13438e-06
3.75026e-05
-7.01429e-06
1.94216e-05
-4.49257e-06
-1.57348e-06
6.43811e-05
-5.85414e-06
7.53978e-05
-7.45698e-06
8.61307e-05
-9.13124e-06
9.61268e-05
-1.08059e-05
0.000104945
-1.23959e-05
0.000112187
-1.38252e-05
0.000117525
-1.5033e-05
0.000120724
-1.59766e-05
0.000121644
-1.66295e-05
0.000120239
-1.69786e-05
0.000116546
-1.70184e-05
0.00011067
-1.67479e-05
0.000102763
-1.61658e-05
9.29774e-05
-1.52633e-05
8.14546e-05
-1.40238e-05
6.83005e-05
-1.24233e-05
5.35711e-05
-1.04319e-05
3.72646e-05
-8.01528e-06
1.93034e-05
-5.13541e-06
-1.79887e-06
6.17502e-05
-6.55295e-06
7.26707e-05
-8.29294e-06
8.3373e-05
-1.0106e-05
9.33978e-05
-1.19211e-05
0.000102296
-1.36499e-05
0.000109662
-1.52128e-05
0.000115159
-1.65443e-05
0.000118543
-1.75969e-05
0.000119667
-1.83394e-05
0.000118477
-1.87545e-05
0.000115002
-1.88328e-05
0.000109345
-1.85683e-05
0.00010165
-1.79545e-05
9.20648e-05
-1.69789e-05
8.07277e-05
-1.56212e-05
6.77428e-05
-1.38539e-05
5.31667e-05
-1.16433e-05
3.70004e-05
-8.95153e-06
1.91721e-05
-5.73736e-06
-2.01002e-06
5.93075e-05
-7.20335e-06
7.01036e-05
-9.05762e-06
8.07377e-05
-1.09849e-05
9.07491e-05
-1.29161e-05
9.96856e-05
-1.47616e-05
0.000107136
-1.64393e-05
0.000112759
-1.78807e-05
0.000116303
-1.90338e-05
0.000117613
-1.98629e-05
0.000116629
-2.03457e-05
0.000113372
-2.04682e-05
0.000107938
-2.02191e-05
0.000100462
-1.95859e-05
9.10878e-05
-1.85516e-05
7.99474e-05
-1.7092e-05
6.71429e-05
-1.51757e-05
5.27309e-05
-1.27656e-05
3.67154e-05
-9.8207e-06
1.90303e-05
-6.29685e-06
-2.20638e-06
5.71724e-05
-7.80742e-06
6.78147e-05
-9.75515e-06
7.83392e-05
-1.17745e-05
8.82889e-05
-1.37995e-05
9.72129e-05
-1.5741e-05
0.0001047
-1.75159e-05
0.000110405
-1.90535e-05
0.000114073
-2.02982e-05
0.000115544
-2.12096e-05
0.000114748
-2.176e-05
0.000111697
-2.1931e-05
0.000106482
-2.1705e-05
9.92271e-05
-2.1063e-05
9.00673e-05
-1.9983e-05
7.91297e-05
-1.84366e-05
6.65126e-05
-1.63884e-05
5.22722e-05
-1.37982e-05
3.64148e-05
-1.06219e-05
1.88805e-05
-6.81318e-06
-2.38768e-06
5.54347e-05
-8.37144e-06
6.58937e-05
-1.03937e-05
7.62659e-05
-1.24851e-05
8.61025e-05
-1.45839e-05
9.49591e-05
-1.66024e-05
0.000102428
-1.84579e-05
0.000108166
-2.00784e-05
0.000111914
-2.14053e-05
0.000113511
-2.23937e-05
0.000112876
-2.30106e-05
0.000110016
-2.32323e-05
0.000105009
-2.30348e-05
9.79698e-05
-2.23922e-05
8.90237e-05
-2.12775e-05
7.82903e-05
-1.96577e-05
6.58637e-05
-1.74936e-05
5.17988e-05
-1.47417e-05
3.61041e-05
-1.13554e-05
1.87255e-05
-7.28642e-06
-2.55393e-06
5.41555e-05
-8.90587e-06
6.44022e-05
-1.09851e-05
7.45802e-05
-1.31305e-05
8.42526e-05
-1.52851e-05
9.29854e-05
-1.73634e-05
0.000100379
-1.9284e-05
0.000106096
-2.09742e-05
0.000109878
-2.23734e-05
0.000111559
-2.34326e-05
0.000111054
-2.41138e-05
0.000108361
-2.43861e-05
0.000103548
-2.42194e-05
9.67143e-05
-2.35822e-05
8.79759e-05
-2.24417e-05
7.74441e-05
-2.07601e-05
6.52074e-05
-1.84946e-05
5.13187e-05
-1.55982e-05
3.57883e-05
-1.20224e-05
1.85678e-05
-7.71716e-06
-2.70531e-06
5.33701e-05
-9.42497e-06
6.33763e-05
-1.15434e-05
7.33209e-05
-1.37268e-05
8.27799e-05
-1.59212e-05
9.13341e-05
-1.80436e-05
9.85969e-05
-2.00144e-05
0.000104239
-2.17615e-05
0.000108004
-2.32224e-05
0.000109725
-2.43449e-05
0.000109315
-2.50858e-05
0.000106765
-2.54068e-05
0.000102125
-2.52715e-05
9.54818e-05
-2.46432e-05
8.69413e-05
-2.34835e-05
7.66047e-05
-2.17499e-05
6.45541e-05
-1.93956e-05
5.08394e-05
-1.63708e-05
3.54723e-05
-1.26247e-05
1.84096e-05
-8.10647e-06
-2.84216e-06
5.30891e-05
-9.94774e-06
6.28297e-05
-1.20855e-05
7.2506e-05
-1.42934e-05
8.17056e-05
-1.65136e-05
9.00286e-05
-1.86655e-05
9.7106e-05
-2.06723e-05
0.00010262
-2.24633e-05
0.000106322
-2.39746e-05
0.000108041
-2.5151e-05
0.00010769
-2.59442e-05
0.000105251
-2.63095e-05
0.00010076
-2.62041e-05
9.42909e-05
-2.55862e-05
8.59352e-05
-2.44119e-05
7.57843e-05
-2.26338e-05
6.39129e-05
-2.02017e-05
5.03674e-05
-1.70628e-05
3.51602e-05
-1.31648e-05
1.8253e-05
-8.4556e-06
-2.96488e-06
5.32958e-05
-1.04748e-05
6.27604e-05
-1.26316e-05
7.21374e-05
-1.4858e-05
8.10309e-05
-1.70919e-05
8.90709e-05
-1.9259e-05
9.59101e-05
-2.12881e-05
0.000101246
-2.311e-05
0.000104837
-2.46601e-05
0.000106515
-2.58799e-05
0.000106188
-2.67163e-05
0.000103831
-2.71191e-05
9.94649e-05
-2.70402e-05
9.31499e-05
-2.64319e-05
8.49645e-05
-2.5245e-05
7.49884e-05
-2.34277e-05
6.3288e-05
-2.0926e-05
4.99057e-05
-1.76849e-05
3.48538e-05
-1.36503e-05
1.80988e-05
-8.76938e-06
-3.07516e-06
4.66834e-05
-8.93163e-06
5.60649e-05
-1.10507e-05
6.55918e-05
-1.32286e-05
7.49834e-05
-1.54628e-05
8.38444e-05
-1.76965e-05
9.1843e-05
-1.98629e-05
9.86434e-05
-2.19001e-05
0.000103947
-2.37399e-05
0.000107515
-2.53165e-05
0.000109174
-2.65684e-05
0.000108826
-2.7438e-05
0.000106432
-2.78704e-05
0.000102003
-2.78123e-05
9.55863e-05
-2.72103e-05
8.72487e-05
-2.601e-05
7.70601e-05
-2.41554e-05
6.50803e-05
-2.15891e-05
5.1348e-05
-1.82537e-05
3.5876e-05
-1.40936e-05
1.8634e-05
-9.05557e-06
-3.17565e-06
4.93115e-05
5.87477e-05
6.82091e-05
-1.39202e-05
7.74141e-05
-1.61548e-05
8.60276e-05
-1.83641e-05
9.38034e-05
-2.05099e-05
0.000100406
-2.25406e-05
0.000105542
-2.43844e-05
0.000108982
-2.59739e-05
0.00011055
-2.72449e-05
0.000110143
-2.81357e-05
0.000107712
-2.85875e-05
0.000103254
-2.85418e-05
9.68031e-05
-2.79398e-05
8.84108e-05
-2.67226e-05
7.81354e-05
-2.48299e-05
6.60279e-05
-2.22012e-05
5.21222e-05
-1.87771e-05
3.64302e-05
-1.45005e-05
1.89256e-05
-9.31764e-06
-3.26756e-06
7.13642e-05
8.04452e-05
8.87751e-05
-1.91107e-05
9.62383e-05
-2.12291e-05
0.000102582
-2.32347e-05
0.000107489
-2.50685e-05
0.000110743
-2.66561e-05
0.000112166
-2.79312e-05
0.000111654
-2.88288e-05
0.000109146
-2.92872e-05
0.000104628
-2.92428e-05
9.81161e-05
-2.86322e-05
8.96477e-05
-2.7392e-05
7.9268e-05
-2.54583e-05
6.70181e-05
-2.27678e-05
5.29264e-05
-1.92588e-05
3.70035e-05
-1.48732e-05
1.92264e-05
-9.55696e-06
-3.35133e-06
9.20351e-05
9.92149e-05
-2.20173e-05
0.000105236
-2.40106e-05
0.000109841
-2.58169e-05
0.000112855
-2.7386e-05
0.000114074
-2.8649e-05
0.000113406
-2.95362e-05
0.00011078
-2.99862e-05
0.000106163
-2.99302e-05
9.95582e-05
-2.92999e-05
9.09864e-05
-2.80286e-05
8.04793e-05
-2.6049e-05
6.80673e-05
-2.32952e-05
5.37723e-05
-1.97037e-05
3.76033e-05
-1.52153e-05
1.954e-05
-9.77552e-06
-3.42763e-06
0.000102561
0.000108354
0.000112673
-2.66378e-05
0.00011538
-2.81916e-05
0.000116319
-2.94181e-05
0.000115443
-3.02732e-05
0.000112653
-3.06993e-05
0.000107896
-3.06169e-05
0.000101161
-2.99541e-05
9.24533e-05
-2.86416e-05
8.17905e-05
-2.66095e-05
6.91916e-05
-2.37893e-05
5.46717e-05
-2.01161e-05
3.82373e-05
-1.55298e-05
1.98702e-05
-9.97515e-06
-3.49708e-06
0.000115843
0.000118318
0.000118958
-3.02388e-05
0.000117807
-3.10566e-05
0.000114807
-3.14385e-05
0.000109862
-3.13141e-05
0.000102956
-3.06033e-05
9.40758e-05
-2.92386e-05
8.3224e-05
-2.7146e-05
7.04087e-05
-2.4255e-05
5.56375e-05
-2.04996e-05
3.89138e-05
-1.5819e-05
2.02212e-05
-1.01573e-05
-3.56016e-06
0.000121956
0.000120549
-3.18658e-05
0.00011729
-3.22184e-05
0.000112098
-3.20304e-05
0.000104975
-3.12528e-05
9.58823e-05
-2.98244e-05
8.4803e-05
-2.76627e-05
7.17367e-05
-2.46952e-05
5.6683e-05
-2.08565e-05
3.96418e-05
-1.60845e-05
2.05973e-05
-1.03228e-05
-3.61715e-06
0.00012358
0.000120109
0.000114649
-3.27541e-05
0.000107252
-3.19095e-05
9.79022e-05
-3.04018e-05
8.65512e-05
-2.81619e-05
7.31942e-05
-2.51111e-05
5.78222e-05
-2.11873e-05
4.04305e-05
-1.63268e-05
2.10032e-05
-1.04719e-05
-3.66811e-06
0.000117501
0.000109826
-3.25413e-05
0.000100168
-3.09763e-05
8.84917e-05
-2.86442e-05
7.48001e-05
-2.55004e-05
5.90696e-05
-2.14908e-05
4.12892e-05
-1.65449e-05
2.14435e-05
-1.06038e-05
-3.71274e-06
0.000112642
0.000102689
9.06538e-05
-2.90899e-05
7.65727e-05
-2.58635e-05
6.04395e-05
-2.17638e-05
4.22274e-05
-1.67366e-05
2.19229e-05
-1.07166e-05
-3.75034e-06
9.3029e-05
7.85349e-05
-2.61646e-05
6.19481e-05
-2.20055e-05
4.32536e-05
-1.68985e-05
2.24456e-05
-1.08069e-05
-3.77964e-06
8.06507e-05
6.35959e-05
4.43798e-05
-1.70133e-05
2.30152e-05
-1.08729e-05
-3.7987e-06
4.55973e-05
2.36366e-05
-1.08909e-05
-3.80654e-06
2.43001e-05
-3.78803e-06
)
;

boundaryField
{
    inlet
    {
        type            calculated;
        value           nonuniform 0();
    }
    outlet
    {
        type            calculated;
        value           uniform 0;
    }
    flap
    {
        type            calculated;
        value           nonuniform 0();
    }
    upperWall
    {
        type            calculated;
        value           nonuniform 0();
    }
    lowerWall
    {
        type            calculated;
        value           uniform 0;
    }
    frontAndBack
    {
        type            empty;
        value           nonuniform 0();
    }
    procBoundary5to2
    {
        type            processor;
        value           nonuniform List<scalar> 
34
(
-9.54303e-06
-1.17058e-05
-6.18679e-05
-1.46153e-05
-1.68944e-05
-8.37865e-05
-1.9864e-05
-9.54267e-05
-2.27718e-05
-2.48144e-05
-0.000111625
-2.74105e-05
-2.90087e-05
-0.000121437
-3.10149e-05
-0.00012507
-3.25622e-05
-3.29567e-05
-0.000123128
-3.33724e-05
-0.000120508
-3.29977e-05
-3.14569e-05
-0.000105378
-2.93896e-05
-9.55233e-05
-2.62793e-05
-2.21424e-05
-6.53321e-05
-1.70097e-05
-4.68591e-05
-1.0815e-05
-2.49785e-05
-3.73121e-06
)
;
    }
    procBoundary5to4
    {
        type            processor;
        value           nonuniform List<scalar> 
18
(
-6.27082e-05
-6.25342e-05
-6.16368e-05
-6.00105e-05
-5.79345e-05
-5.55809e-05
-5.31222e-05
-5.07195e-05
-4.85136e-05
-4.66188e-05
-4.51221e-05
-4.40846e-05
-4.35475e-05
-4.35405e-05
-4.4024e-05
8.38337e-06
-3.74259e-05
-3.99804e-05
)
;
    }
}


// ************************************************************************* //
