/*--------------------------------*- C++ -*----------------------------------*\
| =========                 |                                                 |
| \\      /  F ield         | OpenFOAM: The Open Source CFD Toolbox           |
|  \\    /   O peration     | Version:  dev                                   |
|   \\  /    A nd           | Web:      www.OpenFOAM.org                      |
|    \\/     M anipulation  |                                                 |
\*---------------------------------------------------------------------------*/
FoamFile
{
    version     2.0;
    format      ascii;
    class       surfaceScalarField;
    location    "0.97";
    object      phi;
}
// * * * * * * * * * * * * * * * * * * * * * * * * * * * * * * * * * * * * * //

dimensions      [0 3 -1 0 0 0 0];

internalField   nonuniform List<scalar> 
865
(
0.0852416
0.00961804
0.075095
0.0101536
0.064428
0.0106736
0.0532677
0.0111661
0.0416569
0.0116154
0.0296595
0.0120007
0.0173848
0.0122766
0.0052718
0.0121138
0.00527202
0.103222
0.0189822
0.093225
0.0201579
0.082575
0.0213302
0.0712544
0.0224925
0.0592381
0.0236362
0.0465024
0.0247396
0.0330521
0.0257289
0.0184911
0.0266756
0.0237634
0.110783
0.027775
0.101267
0.0296809
0.0909512
0.0316521
0.07974
0.0337094
0.0674683
0.0359125
0.0538588
0.0383522
0.0385241
0.0410655
0.0206879
0.0445127
0.0444514
0.113994
0.0362535
0.104712
0.0389695
0.0944736
0.0418973
0.0830994
0.0450892
0.070349
0.0486672
0.0558029
0.0529014
0.0389201
0.0579501
0.0199261
0.0635074
0.0643777
0.115203
0.0446944
0.105876
0.0483027
0.0954632
0.052316
0.0836917
0.0568659
0.0702726
0.0620904
0.054918
0.0682588
0.0372597
0.0756099
0.018338
0.0824298
0.0827158
0.115524
0.0532791
0.105944
0.0578893
0.0951599
0.0631051
0.0828995
0.0691311
0.0688243
0.0761693
0.0528319
0.0842536
0.0349606
0.0934824
0.0167232
0.100668
0.099439
0.115534
0.0620966
0.105622
0.0678062
0.0943683
0.0743637
0.0815657
0.0819378
0.0669713
0.0907666
0.050587
0.10064
0.0328287
0.111241
0.0154778
0.118018
0.114917
0.115555
0.0711938
0.1053
0.0780645
0.0936384
0.0860296
0.0803496
0.0952299
0.0653549
0.105763
0.0488349
0.11716
0.0314348
0.128641
0.0148802
0.134573
0.129797
0.115866
0.0805174
0.10532
0.0886141
0.0933481
0.0980037
0.0797418
0.108838
0.0645316
0.120974
0.0480974
0.133594
0.0311509
0.145587
0.0150629
0.15066
0.144859
0.116711
0.0899254
0.106027
0.099299
0.0938983
0.110134
0.0802104
0.122526
0.0650457
0.136138
0.0488541
0.149784
0.0322504
0.162189
0.0161262
0.166783
0.160985
0.118292
0.0992516
0.107697
0.109894
0.0957006
0.122129
0.0822481
0.135977
0.0674106
0.150973
0.0515645
0.165627
0.0350752
0.178675
0.0183049
0.183552
0.17929
0.120802
0.108294
0.110586
0.120107
0.0991007
0.133611
0.0862921
0.148781
0.0721788
0.165081
0.0568724
0.180928
0.0403512
0.195193
0.0223566
0.201546
0.201646
0.124424
0.11679
0.114949
0.129576
0.104428
0.144126
0.0928264
0.160376
0.0800768
0.177823
0.065876
0.195123
0.0496681
0.211398
0.0302319
0.22098
0.231878
0.129299
0.124416
0.120983
0.137883
0.111989
0.153111
0.102341
0.170013
0.0919429
0.188213
0.0802515
0.206808
0.0662162
0.225429
0.046676
0.240519
0.278554
0.135208
0.130879
0.12843
0.144649
0.121504
0.160025
0.114618
0.176887
0.1079
0.194921
0.101131
0.21357
0.0936869
0.232869
0.0810984
0.253106
0.359652
0.00765424
-0.00765498
0.0112455
-0.0035952
0.0127284
-0.00149554
0.0122045
0.00049808
0.00965184
0.00251493
0.00520102
0.00440794
-0.000806283
0.00596573
-0.00798701
0.00714314
-0.0160385
0.00801746
0.00864031
0.0018693
-0.00952507
0.00240663
-0.00413672
0.000890665
7.20122e-06
-0.00262514
0.00398753
-0.00786208
0.00771419
-0.0145226
0.0110263
-0.0223467
0.0137493
-0.0311029
0.015863
-0.0405356
0.0174174
0.0184778
-0.00183086
-0.00769506
-0.00470155
-0.00127059
-0.00892573
0.00421767
-0.0145528
0.00958836
-0.0214652
0.0145903
-0.0294251
0.0189462
-0.038222
0.0225082
-0.0476786
0.0252854
-0.0576119
0.0273199
0.0286707
-0.00462028
-0.00307573
-0.0101924
0.00429659
-0.0166139
0.0106254
-0.0239357
0.0168851
-0.0320365
0.0226576
-0.0407819
0.0276554
-0.0500584
0.0317503
-0.0597582
0.034954
-0.0697817
0.037315
0.0388703
-0.00675544
0.00367865
-0.014452
0.0119879
-0.022613
0.0187728
-0.0311698
0.0254187
-0.0400512
0.031509
-0.0492107
0.036783
-0.0586329
0.0411422
-0.0682909
0.044584
-0.0781546
0.0471529
0.0488646
-0.00835686
0.0120343
-0.0177155
0.0213414
-0.0270881
0.0281327
-0.0364215
0.0347314
-0.0457015
0.0407631
-0.0549588
0.0460129
-0.0642619
0.050419
-0.0736664
0.0539639
-0.0831963
0.0566597
0.0584947
-0.00954957
0.0215827
-0.0199989
0.0317857
-0.0300652
0.0381874
-0.0397244
0.0443728
-0.0490261
0.0500431
-0.0580862
0.0550501
-0.0670494
0.0593597
-0.0760276
0.0629206
-0.0850926
0.0657041
0.0676576
-0.0103085
0.0318899
-0.0212662
0.0427388
-0.0315075
0.0484188
-0.0410316
0.053882
-0.0499806
0.0589742
-0.0585615
0.063612
-0.06698
0.0677591
-0.0753918
0.0713138
-0.0839003
0.0741944
0.0762958
-0.0105697
0.0424584
-0.0214664
0.0536315
-0.0313236
0.0582677
-0.0402228
0.0627692
-0.0484462
0.0671831
-0.0562833
0.0714336
-0.0639803
0.0754401
-0.0717267
0.079044
-0.079627
0.0820786
0.0843844
-0.0102981
0.0527555
-0.0205078
0.0638378
-0.0293421
0.0670952
-0.0370951
0.0705125
-0.0442215
0.0742978
-0.051095
0.0782942
-0.0579624
0.0822939
-0.0649925
0.08606
-0.0722654
0.0893369
0.0919227
-0.00943574
0.0621904
-0.0181669
0.0725662
-0.0252258
0.0741489
-0.0313219
0.0766011
-0.0370621
0.0800285
-0.042838
0.0840593
-0.0488335
0.0882777
-0.0551555
0.0923694
-0.0618325
0.0960007
0.098943
-0.00773858
0.0699282
-0.0139147
0.0787401
-0.0183809
0.0786109
-0.0224442
0.0806582
-0.0267061
0.0842826
-0.031409
0.088753
-0.0365985
0.0934569
-0.0422796
0.0980391
-0.0484331
0.102142
0.105508
-0.00441056
0.0743382
-0.00666145
0.0809893
-0.00800419
0.0799502
-0.0100899
0.0827387
-0.0131019
0.0872878
-0.0169289
0.0925719
-0.021473
0.0979918
-0.0266203
0.103176
-0.0323045
0.107815
0.111644
0.00245661
0.0718811
0.00492183
0.0785225
0.0062486
0.0786203
0.00557235
0.0834103
0.00342417
0.0894299
0.000222845
0.0957658
-0.00382235
0.102028
-0.00851615
0.10786
-0.0137517
0.113039
0.117336
0.0163037
0.0555769
0.0223327
0.0724918
0.0236731
0.0772769
0.0233991
0.0836799
0.0218633
0.09096
0.0192632
0.0983589
0.0158139
0.105469
0.0116683
0.111996
0.00694501
0.117752
0.148506
0.136023
0.143521
0.149619
0.139064
0.164467
0.135615
0.180323
0.133818
0.196706
0.134434
0.212946
0.138731
0.228568
0.150481
0.241354
0.24824
0.261893
0.161115
0.139569
0.158248
0.152467
0.156591
0.166105
0.156823
0.180074
0.159845
0.193671
0.166865
0.205917
0.180019
0.21541
0.200574
0.220798
0.227834
0.22098
0.175061
0.14139
0.174325
0.15318
0.17519
0.16522
0.178231
0.177015
0.183989
0.187899
0.192755
0.197141
0.204338
0.203821
0.217109
0.208024
0.210923
0.23402
0.189798
0.190826
0.152126
0.193485
0.162538
0.198095
0.172385
0.20481
0.181169
0.213555
0.188386
0.223995
0.193375
0.236017
0.195999
0.195659
0.251279
0.207043
0.21085
0.216288
0.166926
0.22339
0.17405
0.232093
0.179672
0.24209
0.18337
0.253026
0.185059
0.184113
0.26457
0.233225
0.240504
0.248991
0.171173
0.25828
0.174072
0.267908
0.175426
0.174438
0.277579
0.264646
0.273312
0.282178
0.166553
0.165583
0.291029
0.296175
0.304521
0.161129
0.100764
0.0923333
0.0687959
0.0482263
0.0441067
0.213395
0.108349
0.193702
0.0884888
0.0746856
0.167242
0.239811
0.102557
0.234958
0.0933413
0.0867196
0.222924
0.256244
0.0975917
0.256307
0.0932787
0.0908522
0.252174
0.269387
0.0927732
0.272057
0.0906087
0.09037
0.272539
0.282318
0.0880323
0.286088
0.0868385
0.0876547
0.288803
0.295508
0.0835508
0.299535
0.0828109
0.0840487
0.30314
0.308767
0.312782
0.0787952
0.080145
0.316685
0.325944
0.329912
0.0326278
0.067055
0.0386147
0.066503
0.0425794
0.0733089
0.0441849
0.0820699
0.0438454
0.0912938
0.0420579
0.100139
0.0392199
0.108299
0.0355767
0.11563
0.12203
0.119676
0.114621
0.0918202
0.0943565
0.0781974
0.0869285
0.0723182
0.0879446
0.0696074
0.093999
0.0675146
0.102226
0.0650584
0.110748
0.0619897
0.11869
0.125697
0.189971
0.147573
0.157484
0.126842
0.131893
0.112516
0.114496
0.105338
0.104074
0.104415
0.0981173
0.108176
0.0942799
0.114577
0.091093
0.121868
0.128929
0.234017
0.165729
0.210116
0.150742
0.185712
0.136917
0.164221
0.126825
0.147565
0.121066
0.136035
0.1197
0.128576
0.122028
0.123657
0.126778
0.132598
0.265079
0.17319
0.250902
0.164917
0.23282
0.154998
0.213612
0.146029
0.195637
0.139037
0.180606
0.134724
0.169232
0.133395
0.161232
0.134768
0.138079
0.2885
0.173493
0.282355
0.171061
0.271511
0.16584
0.257631
0.159905
0.242455
0.154208
0.227659
0.149514
0.214611
0.146437
0.204092
0.145278
0.145946
0.307066
0.169567
0.306794
0.171332
0.302374
0.170258
0.294495
0.167782
0.28415
0.164549
0.272486
0.161173
0.260705
0.158211
0.249862
0.156112
0.155118
0.322854
0.163399
0.32646
0.167725
0.327007
0.169709
0.324525
0.17026
0.319389
0.169681
0.312202
0.168355
0.303743
0.166662
0.294868
0.164978
0.163605
0.337164
0.343106
0.161783
0.347113
0.1657
0.34889
0.168481
0.348399
0.170167
0.345825
0.170923
0.341543
0.170937
0.336074
0.170439
0.169658
0.357918
0.364128
0.368944
0.37212
0.166987
0.373584
0.169453
0.373415
0.1711
0.37183
0.172015
0.172316
0.39172
0.396331
0.399668
0.167756
0.401735
0.16994
0.171401
0.421157
0.426234
0.167289
)
;

boundaryField
{
    inlet
    {
        type            calculated;
        value           nonuniform 0();
    }
    outlet
    {
        type            calculated;
        value           nonuniform 0();
    }
    flap
    {
        type            calculated;
        value           nonuniform List<scalar> 
33
(
-3.08149e-33
1.2326e-32
0
-4.93038e-32
1.47911e-31
4.93038e-32
4.93038e-32
-1.28293e-49
-1.97215e-31
0
0
0
-1.97215e-31
-9.86076e-32
-9.86076e-32
-3.45127e-31
0
2.58845e-31
0
-3.54371e-32
0
-2.46519e-32
3.69779e-32
0
0
9.86076e-32
0
0
0
1.97215e-31
4.93038e-32
0
0
)
;
    }
    upperWall
    {
        type            calculated;
        value           nonuniform 0();
    }
    lowerWall
    {
        type            calculated;
        value           uniform 0;
    }
    frontAndBack
    {
        type            empty;
        value           nonuniform 0();
    }
    procBoundary4to1
    {
        type            processor;
        value           nonuniform List<scalar> 
30
(
0.141598
-0.204722
0.149779
0.158706
-0.227304
0.160983
0.166753
-0.256508
0.163021
0.165397
-0.28776
0.15813
0.157232
0.0793012
-0.321993
0.0748417
0.0761757
0.156147
-0.3507
0.154561
0.159488
0.163661
-0.38593
0.161191
0.164836
-0.415151
0.161742
0.164855
-0.446239
0.160654
)
;
    }
    procBoundary4to2
    {
        type            processor;
        value           nonuniform List<scalar> 
11
(
0.0878506
0.119979
0.15574
0.196216
0.24068
0.286372
0.330012
0.369163
0.402641
0.430338
0.452866
)
;
    }
    procBoundary4to3
    {
        type            processor;
        value           nonuniform List<scalar> 
19
(
-0.0948538
-0.112581
-0.11957
-0.122468
-0.123639
-0.124105
-0.124348
-0.124649
-0.125189
-0.126119
-0.127621
-0.129849
-0.132927
-0.136933
-0.141684
-0.153665
-0.164679
-0.176904
-0.190028
)
;
    }
    procBoundary4to5
    {
        type            processor;
        value           nonuniform List<scalar> 
18
(
-0.0247071
-0.0504007
-0.0678313
-0.0800061
-0.0881721
-0.0928479
-0.0942751
-0.0925566
-0.0877321
-0.0798191
-0.0688671
-0.0550116
-0.038453
-0.019457
0.00169553
0.122574
0.0312888
0.0583125
)
;
    }
}


// ************************************************************************* //
