/*--------------------------------*- C++ -*----------------------------------*\
| =========                 |                                                 |
| \\      /  F ield         | OpenFOAM: The Open Source CFD Toolbox           |
|  \\    /   O peration     | Version:  dev                                   |
|   \\  /    A nd           | Web:      www.OpenFOAM.org                      |
|    \\/     M anipulation  |                                                 |
\*---------------------------------------------------------------------------*/
FoamFile
{
    version     2.0;
    format      ascii;
    class       volVectorField;
    location    "1.2";
    object      cellDisplacement;
}
// * * * * * * * * * * * * * * * * * * * * * * * * * * * * * * * * * * * * * //

dimensions      [0 1 0 0 0 0 0];

internalField   nonuniform List<vector> 
465
(
(0.0144596 0 -0.00178102)
(0.0413815 0 -0.00510882)
(0.0146424 0 -0.0018856)
(0.0419249 0 -0.00541183)
(0.0655424 0 -0.00852645)
(0.0148283 0 -0.00198812)
(0.0424797 0 -0.00570963)
(0.0664645 0 -0.00900249)
(0.0872829 0 -0.0119618)
(0.0150158 0 -0.00208789)
(0.0430415 0 -0.00600025)
(0.0673978 0 -0.00946812)
(0.0886149 0 -0.012595)
(0.107176 0 -0.0154634)
(0.0152053 0 -0.00218476)
(0.0436106 0 -0.00628308)
(0.0683624 0 -0.00992499)
(0.0899841 0 -0.0132174)
(0.108956 0 -0.016243)
(0.125701 0 -0.0190694)
(0.0153944 0 -0.00227775)
(0.0441766 0 -0.0065549)
(0.0693204 0 -0.0103646)
(0.0913473 0 -0.0138164)
(0.110732 0 -0.016996)
(0.127928 0 -0.0199785)
(0.143312 0 -0.0228211)
(0.0155792 0 -0.00236531)
(0.0447278 0 -0.0068111)
(0.0702613 0 -0.010782)
(0.0927007 0 -0.0143893)
(0.112516 0 -0.0177216)
(0.130157 0 -0.0208558)
(0.145997 0 -0.0238482)
(0.160357 0 -0.0267481)
(0.173544 0 -0.0295997)
(0.0157628 0 -0.00244741)
(0.0452924 0 -0.00705464)
(0.0712033 0 -0.0111771)
(0.0940271 0 -0.0149287)
(0.114263 0 -0.0184062)
(0.132328 0 -0.0216824)
(0.148629 0 -0.0248228)
(0.163484 0 -0.0278775)
(0.177174 0 -0.0308873)
(0.189961 0 -0.0338906)
(0.0159397 0 -0.00252239)
(0.0458319 0 -0.00727707)
(0.0720989 0 -0.0115374)
(0.0953054 0 -0.0154257)
(0.115958 0 -0.019041)
(0.134454 0 -0.0224549)
(0.151196 0 -0.0257352)
(0.166502 0 -0.0289312)
(0.180668 0 -0.0320898)
(0.19395 0 -0.0352492)
(0.206566 0 -0.0384422)
(0.21876 0 -0.0417101)
(0.0161067 0 -0.00258887)
(0.0463438 0 -0.00747544)
(0.0729756 0 -0.0118645)
(0.0965484 0 -0.0158775)
(0.117579 0 -0.0196155)
(0.136477 0 -0.0231551)
(0.153645 0 -0.026565)
(0.169399 0 -0.0298968)
(0.184008 0 -0.0331923)
(0.197724 0 -0.0364896)
(0.210787 0 -0.0398286)
(0.223411 0 -0.0432445)
(0.235785 0 -0.0467716)
(0.248074 0 -0.0504413)
(0.0162605 0 -0.00264536)
(0.0468177 0 -0.00764536)
(0.0737875 0 -0.0121461)
(0.0976996 0 -0.0162674)
(0.119102 0 -0.0201181)
(0.138406 0 -0.0237752)
(0.15597 0 -0.0273019)
(0.172115 0 -0.0307501)
(0.187129 0 -0.0341676)
(0.201258 0 -0.0375923)
(0.214711 0 -0.0410579)
(0.227699 0 -0.0445994)
(0.240401 0 -0.0482485)
(0.252968 0 -0.0520335)
(0.265528 0 -0.0559799)
(0.0163988 0 -0.00269048)
(0.0472469 0 -0.00778268)
(0.0745276 0 -0.0123763)
(0.0987822 0 -0.0165939)
(0.120538 0 -0.0205426)
(0.140185 0 -0.0242955)
(0.158116 0 -0.0279233)
(0.174644 0 -0.031478)
(0.190021 0 -0.0350002)
(0.204501 0 -0.0385305)
(0.218295 0 -0.0421032)
(0.231579 0 -0.045745)
(0.244529 0 -0.0494873)
(0.257295 0 -0.0533573)
(0.269967 0 -0.0573694)
(0.282697 0 -0.0615609)
(0.295496 0 -0.0659274)
(0.0165189 0 -0.00272276)
(0.0476246 0 -0.00788332)
(0.0751789 0 -0.0125473)
(0.0997485 0 -0.0168423)
(0.121837 0 -0.0208717)
(0.141823 0 -0.0247077)
(0.160084 0 -0.0284183)
(0.17694 0 -0.0320576)
(0.192651 0 -0.0356684)
(0.207428 0 -0.0392819)
(0.221491 0 -0.0429346)
(0.235013 0 -0.0466526)
(0.248147 0 -0.0504614)
(0.261025 0 -0.0543825)
(0.273742 0 -0.0584297)
(0.2864 0 -0.062625)
(0.299 0 -0.0669583)
(0.311549 0 -0.0714244)
(0.324039 0 -0.0760141)
(0.0166193 0 -0.0027408)
(0.0479498 0 -0.00794373)
(0.0757713 0 -0.0126588)
(0.10062 0 -0.0170086)
(0.122981 0 -0.021093)
(0.143272 0 -0.0249916)
(0.161853 0 -0.0287702)
(0.178993 0 -0.0324724)
(0.194975 0 -0.0361462)
(0.210011 0 -0.0398227)
(0.224297 0 -0.043533)
(0.237991 0 -0.0472994)
(0.25123 0 -0.0511416)
(0.264163 0 -0.0550859)
(0.276843 0 -0.0591335)
(0.289316 0 -0.0632846)
(0.301608 0 -0.0675359)
(0.313731 0 -0.0718798)
(0.32567 0 -0.0763015)
(0.337382 0 -0.0807785)
(0.348801 0 -0.0852794)
(0.0166963 0 -0.0027429)
(0.0482116 0 -0.00795879)
(0.0762513 0 -0.0126962)
(0.101346 0 -0.0170762)
(0.12399 0 -0.0212004)
(0.144542 0 -0.0251374)
(0.163382 0 -0.0289568)
(0.180784 0 -0.0327031)
(0.197002 0 -0.0364182)
(0.212243 0 -0.0401324)
(0.226692 0 -0.0438729)
(0.240498 0 -0.0476596)
(0.253789 0 -0.0515086)
(0.266678 0 -0.0554355)
(0.279204 0 -0.0594351)
(0.291423 0 -0.0635082)
(0.303364 0 -0.0676491)
(0.315032 0 -0.0718466)
(0.326414 0 -0.0760834)
(0.337473 0 -0.0803362)
(0.348157 0 -0.0845756)
(0.0167464 0 -0.00272723)
(0.0484074 0 -0.0079244)
(0.0766603 0 -0.0126607)
(0.101956 0 -0.0170421)
(0.124822 0 -0.0211759)
(0.145619 0 -0.0251303)
(0.16469 0 -0.0289676)
(0.182307 0 -0.0327322)
(0.198713 0 -0.0364625)
(0.214107 0 -0.040187)
(0.228658 0 -0.0439281)
(0.242513 0 -0.0477055)
(0.25577 0 -0.0515247)
(0.268527 0 -0.0553958)
(0.280846 0 -0.0593177)
(0.292774 0 -0.0632867)
(0.304336 0 -0.0672943)
(0.315538 0 -0.0713269)
(0.326368 0 -0.0753665)
(0.3368 0 -0.0793903)
(0.016762 0 -0.00269135)
(0.0485253 0 -0.00783459)
(0.0769598 0 -0.0125391)
(0.102443 0 -0.0168967)
(0.125507 0 -0.0210138)
(0.146507 0 -0.0249573)
(0.165766 0 -0.0287849)
(0.183554 0 -0.0325403)
(0.200095 0 -0.0362565)
(0.215589 0 -0.0399633)
(0.230175 0 -0.0436733)
(0.243993 0 -0.0474036)
(0.257152 0 -0.0511615)
(0.26974 0 -0.054951)
(0.281818 0 -0.05877)
(0.29343 0 -0.0626124)
(0.304599 0 -0.0664677)
(0.315334 0 -0.0703211)
(0.325628 0 -0.0741543)
(0.335462 0 -0.0779459)
(0.0167899 0 -0.00264164)
(0.0486066 0 -0.00769273)
(0.0771522 0 -0.0123252)
(0.102808 0 -0.0166309)
(0.126042 0 -0.0207016)
(0.1472 0 -0.0246035)
(0.166601 0 -0.0283907)
(0.184515 0 -0.032108)
(0.201131 0 -0.035779)
(0.216645 0 -0.0394313)
(0.231208 0 -0.0430796)
(0.244949 0 -0.0467354)
(0.257973 0 -0.0504044)
(0.270362 0 -0.0540875)
(0.282176 0 -0.057781)
(0.293456 0 -0.061477)
(0.30423 0 -0.0651641)
(0.314507 0 -0.0688271)
(0.324285 0 -0.0724477)
(0.333552 0 -0.0760048)
(0.0167844 0 -0.00256922)
(0.0486553 0 -0.00749473)
(0.0772828 0 -0.0120195)
(0.103058 0 -0.0162349)
(0.126426 0 -0.0202271)
(0.147694 0 -0.0240544)
(0.167181 0 -0.0277683)
(0.185143 0 -0.0314098)
(0.201783 0 -0.0350045)
(0.21728 0 -0.0385736)
(0.231783 0 -0.0421308)
(0.245415 0 -0.0456846)
(0.258276 0 -0.0492386)
(0.270445 0 -0.0527917)
(0.28198 0 -0.0563387)
(0.292925 0 -0.0598709)
(0.303308 0 -0.0633763)
(0.313143 0 -0.0668399)
(0.322436 0 -0.0702447)
(0.331183 0 -0.0735718)
(0.0167985 0 -0.00248061)
(0.048682 0 -0.0072372)
(0.0773479 0 -0.0116147)
(0.103186 0 -0.0156995)
(0.126605 0 -0.0195716)
(0.147934 0 -0.0232885)
(0.167465 0 -0.0268966)
(0.185444 0 -0.0304315)
(0.202073 0 -0.0339179)
(0.217522 0 -0.0373739)
(0.231937 0 -0.0408109)
(0.245434 0 -0.0442355)
(0.258112 0 -0.0476491)
(0.270047 0 -0.0510493)
(0.281298 0 -0.0544301)
(0.29191 0 -0.057782)
(0.301914 0 -0.0610933)
(0.311329 0 -0.0643497)
(0.320167 0 -0.0675356)
(0.328434 0 -0.0706344)
(0.0167746 0 -0.00236621)
(0.0486175 0 -0.00690776)
(0.0772797 0 -0.0110958)
(0.103136 0 -0.0150113)
(0.126579 0 -0.0187268)
(0.147932 0 -0.022297)
(0.167475 0 -0.0257638)
(0.185442 0 -0.0291589)
(0.202031 0 -0.0325046)
(0.217408 0 -0.0358165)
(0.231711 0 -0.039104)
(0.245057 0 -0.0423717)
(0.257539 0 -0.0456197)
(0.269234 0 -0.0488446)
(0.280201 0 -0.0520395)
(0.290488 0 -0.0551952)
(0.300129 0 -0.0583002)
(0.309148 0 -0.0613412)
(0.317564 0 -0.0643041)
(0.325387 0 -0.0671743)
(0.0167164 0 -0.00222628)
(0.048468 0 -0.00650514)
(0.0770867 0 -0.0104599)
(0.102927 0 -0.0141643)
(0.126364 0 -0.0176842)
(0.147711 0 -0.0210697)
(0.167238 0 -0.0243586)
(0.185169 0 -0.0275788)
(0.201696 0 -0.0307502)
(0.216981 0 -0.0338859)
(0.231157 0 -0.0369936)
(0.24434 0 -0.0400762)
(0.25662 0 -0.0431328)
(0.268075 0 -0.0461593)
(0.278766 0 -0.0491486)
(0.288741 0 -0.0520915)
(0.298038 0 -0.0549772)
(0.306688 0 -0.0577936)
(0.314713 0 -0.0605279)
(0.322131 0 -0.0631673)
(0.0166321 0 -0.00206084)
(0.048248 0 -0.00602789)
(0.0767872 0 -0.00970344)
(0.102581 0 -0.0131532)
(0.125986 0 -0.0164362)
(0.147303 0 -0.0195972)
(0.16679 0 -0.0226697)
(0.184665 0 -0.0256783)
(0.201114 0 -0.0286401)
(0.216293 0 -0.0315661)
(0.230334 0 -0.0344623)
(0.243348 0 -0.0373304)
(0.255427 0 -0.0401687)
(0.266647 0 -0.0429726)
(0.277072 0 -0.0457351)
(0.286753 0 -0.0484474)
(0.295731 0 -0.0510993)
(0.30404 0 -0.05368)
(0.311707 0 -0.0561779)
(0.318756 0 -0.058582)
(0.0165283 0 -0.00186972)
(0.0479732 0 -0.0054748)
(0.0764034 0 -0.00882364)
(0.102126 0 -0.0119736)
(0.125476 0 -0.0149762)
(0.146743 0 -0.0178709)
(0.166174 0 -0.0206867)
(0.18398 0 -0.0234448)
(0.200339 0 -0.0261597)
(0.215405 0 -0.0288405)
(0.229306 0 -0.0314916)
(0.242152 0 -0.0341139)
(0.254036 0 -0.0367051)
(0.265033 0 -0.0392603)
(0.275209 0 -0.0417728)
(0.284616 0 -0.0442343)
(0.2933 0 -0.0466355)
(0.301299 0 -0.0489666)
(0.308643 0 -0.0512175)
(0.31536 0 -0.0533785)
(0.0164116 0 -0.00165275)
(0.0476607 0 -0.00484485)
(0.0759605 0 -0.0078181)
(0.101592 0 -0.0106212)
(0.124873 0 -0.0132982)
(0.146076 0 -0.0158825)
(0.16544 0 -0.018399)
(0.183167 0 -0.0208655)
(0.199431 0 -0.023294)
(0.214382 0 -0.0256916)
(0.228146 0 -0.0280616)
(0.240832 0 -0.0304042)
(0.252531 0 -0.0327165)
(0.263321 0 -0.034994)
(0.273268 0 -0.0372302)
(0.282427 0 -0.0394175)
(0.290846 0 -0.0415476)
(0.298567 0 -0.0436117)
(0.305623 0 -0.0456011)
(0.312046 0 -0.0475073)
(0.0162888 0 -0.0014098)
(0.0473297 0 -0.0041373)
(0.0754873 0 -0.00668491)
(0.101018 0 -0.00909261)
(0.124219 0 -0.0113966)
(0.145352 0 -0.0136245)
(0.164643 0 -0.0157968)
(0.182289 0 -0.0179279)
(0.19846 0 -0.0200274)
(0.2133 0 -0.0221008)
(0.226936 0 -0.0241505)
(0.239473 0 -0.0261758)
(0.251004 0 -0.0281741)
(0.261607 0 -0.0301409)
(0.27135 0 -0.0320703)
(0.28029 0 -0.0339557)
(0.288476 0 -0.0357897)
(0.295953 0 -0.0375646)
(0.302759 0 -0.0392731)
(0.308927 0 -0.0409078)
(0.0161676 0 -0.00114083)
(0.0470017 0 -0.0033517)
(0.0750169 0 -0.00542267)
(0.100446 0 -0.00738491)
(0.123567 0 -0.00926678)
(0.144628 0 -0.01109)
(0.163848 0 -0.0128704)
(0.181417 0 -0.0146193)
(0.1975 0 -0.016344)
(0.212241 0 -0.0180486)
(0.225761 0 -0.0197344)
(0.238168 0 -0.0214007)
(0.249553 0 -0.0230449)
(0.259996 0 -0.0246629)
(0.269563 0 -0.0262498)
(0.278316 0 -0.0277998)
(0.286306 0 -0.0293067)
(0.293578 0 -0.0307641)
(0.300173 0 -0.0321659)
(0.306127 0 -0.0335061)
(0.0160569 0 -0.0008459)
(0.046702 0 -0.00248798)
(0.0745874 0 -0.00403059)
(0.0999233 0 -0.00549606)
(0.122971 0 -0.00690485)
(0.143968 0 -0.00827257)
(0.163125 0 -0.00961072)
(0.180628 0 -0.0109273)
(0.196637 0 -0.0122275)
(0.211293 0 -0.0135141)
(0.224719 0 -0.0147878)
(0.237019 0 -0.0160477)
(0.248285 0 -0.0172917)
(0.258598 0 -0.0185164)
(0.268025 0 -0.019718)
(0.276628 0 -0.0208919)
(0.284461 0 -0.0220332)
(0.29157 0 -0.0231369)
(0.297998 0 -0.0241983)
(0.303782 0 -0.0252128)
(0.0159675 0 -0.000525251)
(0.0464607 0 -0.00154653)
(0.0742436 0 -0.00250862)
(0.0995067 0 -0.00342501)
(0.122498 0 -0.00430808)
(0.143445 0 -0.00516735)
(0.162555 0 -0.00600979)
(0.180007 0 -0.00684025)
(0.195961 0 -0.0076618)
(0.210555 0 -0.00847602)
(0.223911 0 -0.00928324)
(0.236134 0 -0.0100828)
(0.247315 0 -0.0108731)
(0.257534 0 -0.0116519)
(0.266861 0 -0.0124167)
(0.275358 0 -0.0131644)
(0.283078 0 -0.0138919)
(0.290072 0 -0.0145957)
(0.29638 0 -0.0152728)
(0.302045 0 -0.0159201)
(0.015914 0 -0.000179325)
(0.0463171 0 -0.000528412)
(0.0740409 0 -0.000857924)
(0.0992625 0 -0.00117239)
(0.122221 0 -0.00147597)
(0.143141 0 -0.00177189)
(0.162224 0 -0.00206249)
(0.179648 0 -0.00234941)
(0.195572 0 -0.00263366)
(0.210133 0 -0.00291577)
(0.223451 0 -0.00319581)
(0.235632 0 -0.00347351)
(0.246767 0 -0.00374831)
(0.256936 0 -0.00401942)
(0.266209 0 -0.00428587)
(0.274648 0 -0.00454658)
(0.282309 0 -0.00480041)
(0.28924 0 -0.00504617)
(0.295485 0 -0.00528272)
(0.301085 0 -0.00550894)
)
;

boundaryField
{
    inlet
    {
        type            cellMotion;
        value           uniform (0 0 0);
    }
    outlet
    {
        type            cellMotion;
        value           nonuniform 0();
    }
    flap
    {
        type            cellMotion;
        value           nonuniform 0();
    }
    upperWall
    {
        type            slip;
    }
    lowerWall
    {
        type            slip;
    }
    frontAndBack
    {
        type            empty;
    }
    procBoundary0to1
    {
        type            processor;
        value           nonuniform List<vector> 
18
(
(0.359845 0 -0.0897656)
(0.358399 0 -0.088765)
(0.346793 0 -0.0833696)
(0.346793 0 -0.0833696)
(0.344809 0 -0.0816711)
(0.342321 0 -0.0794881)
(0.339407 0 -0.0768125)
(0.336155 0 -0.0736376)
(0.332648 0 -0.0699435)
(0.328973 0 -0.0657039)
(0.32522 0 -0.0608846)
(0.321485 0 -0.0554426)
(0.317873 0 -0.049324)
(0.314496 0 -0.0424632)
(0.31148 0 -0.0347798)
(0.308965 0 -0.0261764)
(0.307106 0 -0.0165348)
(0.306081 0 -0.0057238)
)
;
    }
    procBoundary0to3
    {
        type            processor;
        value           nonuniform List<vector> 
34
(
(0.0142842 0 -0.00167631)
(0.0408594 0 -0.00480571)
(0.0646381 0 -0.00804244)
(0.0646381 0 -0.00804244)
(0.0859745 0 -0.0113179)
(0.0859745 0 -0.0113179)
(0.105416 0 -0.0146673)
(0.105416 0 -0.0146673)
(0.123471 0 -0.0181321)
(0.123471 0 -0.0181321)
(0.1406 0 -0.0217535)
(0.1406 0 -0.0217535)
(0.157176 0 -0.0255632)
(0.157176 0 -0.0255632)
(0.169835 0 -0.0282488)
(0.185819 0 -0.0324393)
(0.185819 0 -0.0324393)
(0.202091 0 -0.0369238)
(0.202091 0 -0.0369238)
(0.213791 0 -0.0400233)
(0.230726 0 -0.0450876)
(0.230726 0 -0.0450876)
(0.242641 0 -0.0486087)
(0.260422 0 -0.0542832)
(0.260422 0 -0.0542832)
(0.278219 0 -0.060121)
(0.278219 0 -0.060121)
(0.291113 0 -0.0644734)
(0.308399 0 -0.0704759)
(0.308399 0 -0.0704759)
(0.321416 0 -0.0752086)
(0.336418 0 -0.0807043)
(0.336418 0 -0.0807043)
(0.348611 0 -0.0854652)
)
;
    }
}


// ************************************************************************* //
