/*--------------------------------*- C++ -*----------------------------------*\
| =========                 |                                                 |
| \\      /  F ield         | OpenFOAM: The Open Source CFD Toolbox           |
|  \\    /   O peration     | Version:  dev                                   |
|   \\  /    A nd           | Web:      www.OpenFOAM.org                      |
|    \\/     M anipulation  |                                                 |
\*---------------------------------------------------------------------------*/
FoamFile
{
    version     2.0;
    format      ascii;
    class       volVectorField;
    location    "2.07";
    object      Force;
}
// * * * * * * * * * * * * * * * * * * * * * * * * * * * * * * * * * * * * * //

dimensions      [1 1 -2 0 0 0 0];

internalField   uniform (0 0 0);

boundaryField
{
    inlet
    {
        type            calculated;
        value           nonuniform 0();
    }
    outlet
    {
        type            calculated;
        value           nonuniform 0();
    }
    flap
    {
        type            calculated;
        value           nonuniform List<vector> 
33
(
(2.67462 -1.77586e-17 -0.262116)
(2.58788 6.57126e-18 -0.610014)
(2.40868 2.02365e-17 -0.908323)
(2.16738 7.50296e-18 -1.09472)
(1.91318 1.92771e-17 -1.18552)
(1.67907 -1.07252e-17 -1.20821)
(1.4792 -2.11589e-37 -1.18792)
(1.31627 4.03499e-21 -1.14313)
(1.18292 -3.51022e-21 -1.08373)
(1.06946 -9.40395e-38 -1.01394)
(0.966258 -1.57356e-17 -0.934793)
(0.863032 -6.521e-18 -0.843598)
(0.750232 8.6371e-18 -0.73586)
(0.617535 1.31805e-17 -0.60395)
(0.448281 0 -0.437991)
(0.536666 -2.02496e-18 0.539823)
(0.328474 -2.60127e-21 0.332771)
(0.13034 2.69129e-22 0.132705)
(0.00126419 1.08902e-17 -0.000129932)
(0.00127704 1.96814e-21 -0.000322446)
(0.00128739 1.18202e-17 -0.000513888)
(0.00127644 1.46031e-23 -0.000677704)
(0.00122899 -4.08201e-21 -0.000803716)
(0.00112204 -3.95003e-21 -0.000863885)
(0.000916835 1.40582e-17 -0.000814849)
(0.000538933 5.31176e-23 -0.000578441)
(-0.000138446 9.85661e-22 -2.15146e-05)
(-0.00127553 1.52743e-17 0.00102898)
(-0.00294507 1.55819e-17 0.00266778)
(-0.00508568 -2.38221e-23 0.00484115)
(-0.00754696 1.04235e-22 0.00748421)
(-0.00955252 -1.58388e-22 0.00990382)
(-0.0036607 2.90184e-17 0.00435155)
)
;
    }
    upperWall
    {
        type            calculated;
        value           nonuniform 0();
    }
    lowerWall
    {
        type            calculated;
        value           uniform (0 0 0);
    }
    frontAndBack
    {
        type            empty;
    }
    procBoundary4to1
    {
        type            processor;
        value           uniform (0 0 0);
    }
    procBoundary4to2
    {
        type            processor;
        value           uniform (0 0 0);
    }
    procBoundary4to3
    {
        type            processor;
        value           uniform (0 0 0);
    }
    procBoundary4to5
    {
        type            processor;
        value           uniform (0 0 0);
    }
}


// ************************************************************************* //
