/*--------------------------------*- C++ -*----------------------------------*\
| =========                 |                                                 |
| \\      /  F ield         | OpenFOAM: The Open Source CFD Toolbox           |
|  \\    /   O peration     | Version:  dev                                   |
|   \\  /    A nd           | Web:      www.OpenFOAM.org                      |
|    \\/     M anipulation  |                                                 |
\*---------------------------------------------------------------------------*/
FoamFile
{
    version     2.0;
    format      ascii;
    class       surfaceVectorField;
    location    "4.12";
    object      Uf;
}
// * * * * * * * * * * * * * * * * * * * * * * * * * * * * * * * * * * * * * //

dimensions      [0 1 -1 0 0 0 0];

internalField   nonuniform List<vector> 
5457
(
(9.91877 6.66657e-22 0.0238662)
(9.96702 4.80097e-22 0.0387668)
(9.82277 1.4567e-22 0.0313821)
(9.9264 4.96398e-22 0.0470066)
(9.71027 -6.89264e-22 0.0376537)
(9.85724 -3.39463e-22 0.0565722)
(9.57924 2.02061e-23 0.0440795)
(9.7619 -3.72918e-25 0.0676588)
(9.42949 3.55795e-22 0.0507334)
(9.64636 7.06105e-25 0.0793853)
(9.26104 -3.89678e-22 0.0576801)
(9.51233 2.97776e-21 0.0916824)
(9.07351 -7.82811e-22 0.0650714)
(9.35906 -3.05439e-21 0.104786)
(8.86616 -3.92804e-22 0.0730605)
(9.18551 -6.3689e-21 0.118937)
(8.63801 0 0.0817846)
(8.99076 6.5291e-21 0.134336)
(8.3879 0 0.0913752)
(8.7738 0 0.151172)
(8.1145 0 0.101967)
(8.53343 0 0.169634)
(7.81632 0 0.113698)
(8.26826 -1.82918e-21 0.189911)
(7.49178 -8.16214e-21 0.12671)
(7.97674 1.53284e-20 0.212183)
(7.13923 -1.67708e-21 0.141137)
(7.65725 -2.37926e-20 0.236611)
(6.75707 -2.75988e-21 0.1571)
(7.3081 2.07494e-20 0.263312)
(6.34377 4.72584e-22 0.174693)
(6.92766 -3.01214e-20 0.292337)
(5.89812 8.89734e-21 0.193955)
(6.51446 1.34887e-20 0.323622)
(5.41932 0 0.214847)
(6.06734 4.23372e-20 0.356944)
(4.90733 2.11034e-20 0.237211)
(5.58567 -3.38754e-20 0.391848)
(4.3631 -1.10028e-21 0.260726)
(5.06961 1.57543e-20 0.427575)
(3.78896 -1.54926e-20 0.28485)
(4.52048 -2.14736e-20 0.462972)
(3.18903 5.56658e-21 0.308755)
(3.9411 1.86894e-22 0.496414)
(2.56966 -6.19325e-21 0.331257)
(3.33626 -9.27376e-20 0.525721)
(1.93983 3.86903e-22 0.350783)
(2.71322 2.03684e-19 0.548134)
(1.31128 6.28363e-21 0.365975)
(2.08229 -1.99017e-19 0.56051)
(0.696502 -6.88196e-21 0.377982)
(1.45788 1.03022e-19 0.56133)
(0.0911925 5.68221e-20 0.151354)
(0.859065 -2.45444e-22 0.564352)
(-0.245069 5.07776e-22 -0.208202)
(0.191571 5.57611e-20 0.319104)
(-0.30294 7.7152e-20 -0.365138)
(0.0238554 -5.69774e-20 0.0554624)
(-0.00491739 1.01613e-19 -0.300174)
(9.99779 3.1762e-22 0.0497537)
(9.99381 -3.2197e-22 0.0398234)
(9.96165 0 0.0679953)
(9.97821 0 0.064703)
(9.90394 3.53521e-22 0.0841645)
(9.93787 0 0.0855935)
(9.8261 -1.99448e-23 0.101176)
(9.87225 3.48919e-22 0.107854)
(9.72789 2.66204e-21 0.119164)
(9.78604 -3.59541e-22 0.131455)
(9.60912 2.32031e-22 0.138218)
(9.68105 1.04006e-20 0.156329)
(9.46941 -8.6839e-21 0.158648)
(9.55677 -8.76176e-21 0.182854)
(9.30809 7.2376e-22 0.180789)
(9.41231 -7.54952e-21 0.21148)
(9.12421 6.44419e-21 0.204942)
(9.24684 2.13075e-20 0.242613)
(8.91666 0 0.231396)
(9.05946 -1.34763e-20 0.276636)
(8.68411 -1.85297e-21 0.260433)
(8.84908 0 0.313935)
(8.42509 1.37223e-20 0.292334)
(8.61443 -3.66758e-24 0.354899)
(8.13801 -8.09335e-22 0.327357)
(8.35405 1.9108e-20 0.399906)
(7.82116 -7.83352e-22 0.365718)
(8.06638 -4.74249e-20 0.449299)
(7.47284 -7.25697e-21 0.407552)
(7.74978 5.11829e-20 0.503348)
(7.09142 -1.65493e-20 0.45286)
(7.40258 -1.70817e-20 0.562191)
(6.67545 4.73033e-20 0.501447)
(7.02319 1.61918e-23 0.625758)
(6.22392 7.54426e-21 0.552825)
(6.61022 2.84677e-20 0.693664)
(5.73641 -3.85883e-20 0.606109)
(6.16267 -4.83396e-20 0.765071)
(5.21349 -5.01697e-21 0.659895)
(5.68017 -2.76365e-23 0.83853)
(4.65706 -5.61044e-21 0.712125)
(5.16329 0 0.91179)
(4.07085 -9.93688e-20 0.759942)
(4.61397 -5.54082e-21 0.981599)
(3.46096 1.20522e-19 0.799548)
(4.03602 -9.27484e-20 1.04348)
(2.83663 -1.45427e-22 0.826018)
(3.43575 1.9809e-19 1.09147)
(2.21159 -9.94268e-20 0.832793)
(2.82289 -2.14314e-20 1.11771)
(1.60963 1.08634e-19 0.80915)
(2.21321 -9.92088e-20 1.11043)
(1.09509 -3.53213e-22 0.697472)
(1.62256 6.66734e-21 1.04329)
(0.566741 -6.81622e-21 0.464474)
(1.073 -2.23881e-19 0.819848)
(0.117438 -2.96134e-20 -0.0152737)
(0.582205 6.59979e-21 0.48514)
(0.265121 2.17673e-19 -0.182173)
(9.99034 -6.36019e-22 0.0574007)
(9.99148 6.40247e-22 0.0444359)
(9.95719 0 0.085442)
(9.97325 1.31617e-21 0.080937)
(9.90287 0 0.112068)
(9.9338 0 0.11291)
(9.82979 0 0.140139)
(9.87107 -1.38977e-21 0.145591)
(9.73816 7.52023e-21 0.169997)
(9.7887 0 0.180033)
(9.62779 1.15054e-21 0.201816)
(9.68851 5.94425e-21 0.216405)
(9.49837 -7.61157e-21 0.236021)
(9.57028 -7.61493e-21 0.255176)
(9.34938 1.3413e-20 0.273107)
(9.43328 1.26567e-20 0.29695)
(9.18009 9.30015e-22 0.313549)
(9.27689 -3.07887e-21 0.342309)
(8.98956 -1.33016e-20 0.357816)
(9.10039 -3.27997e-21 0.391816)
(8.77668 1.84685e-21 0.406383)
(8.90293 -1.39043e-20 0.446039)
(8.54018 5.62742e-21 0.459724)
(8.68348 3.10005e-20 0.505556)
(8.27864 -2.83708e-20 0.518287)
(8.44088 -2.61469e-20 0.570938)
(7.99054 5.80175e-21 0.582462)
(8.17383 -2.18908e-22 0.64272)
(7.67425 4.04617e-20 0.652518)
(7.88095 7.7883e-20 0.721351)
(7.32814 -2.90395e-22 0.728524)
(7.56079 -3.2217e-21 0.807118)
(6.95063 -1.84213e-20 0.810232)
(7.21189 -7.42704e-20 0.900038)
(6.54037 -2.83041e-20 0.896931)
(6.83284 4.43884e-21 0.999706)
(6.09638 -9.16005e-21 0.987259)
(6.42242 7.1809e-20 1.1051)
(5.61838 4.96635e-21 1.07897)
(5.97974 -2.33339e-19 1.21434)
(5.10708 0 1.16871)
(5.50452 1.6396e-19 1.32437)
(4.56469 0 1.25167)
(4.99737 -1.70624e-19 1.43065)
(3.99551 -1.1952e-20 1.32129)
(4.46029 0 1.52673)
(3.40681 1.74663e-19 1.36865)
(3.89716 -1.97923e-19 1.60367)
(2.81014 -2.21761e-20 1.38119)
(3.31435 3.9972e-19 1.6491)
(2.22273 -2.0002e-19 1.33854)
(2.72184 -4.02095e-19 1.64504)
(1.66229 -2.19212e-19 1.19764)
(2.12954 2.05913e-19 1.56289)
(1.0972 -2.0702e-19 0.924734)
(1.5459 -2.16963e-19 1.35188)
(0.56148 2.46004e-19 0.45083)
(0.95049 4.36761e-19 0.994)
(0.512159 -2.15342e-19 0.36482)
(9.98617 2.60119e-21 0.0684559)
(9.99023 1.28257e-21 0.0510355)
(9.95307 1.29877e-21 0.107715)
(9.97024 -2.63186e-21 0.0971517)
(9.8997 -1.40812e-21 0.145603)
(9.93065 2.69669e-21 0.139753)
(9.82781 -1.37151e-21 0.184655)
(9.86907 -9.91406e-25 0.182718)
(9.73796 -1.49731e-21 0.225685)
(9.78839 0 0.227672)
(9.63009 -3.0014e-21 0.269151)
(9.69033 1.0346e-20 0.275132)
(9.50395 1.29175e-20 0.31565)
(9.57482 -1.05987e-20 0.325672)
(9.35919 -4.04448e-21 0.36585)
(9.44131 1.62363e-21 0.380003)
(9.19529 -7.29597e-21 0.420413)
(9.28926 -1.68821e-21 0.438845)
(9.01155 -4.02315e-21 0.479992)
(9.11814 1.35595e-20 0.502907)
(8.80716 1.58313e-20 0.545251)
(8.92729 -1.39055e-20 0.572899)
(8.58117 -1.51401e-21 0.616856)
(8.71594 2.5584e-20 0.649548)
(8.33253 2.34204e-21 0.695451)
(8.48321 -4.11308e-20 0.733575)
(8.06011 7.28772e-20 0.781621)
(8.22812 3.92161e-20 0.825671)
(7.76266 3.31797e-20 0.875819)
(7.94965 4.12309e-20 0.92644)
(7.4389 -7.80788e-20 0.978271)
(7.64669 9.03264e-22 1.03632)
(7.08753 -5.04104e-20 1.08883)
(7.31812 -6.98409e-20 1.15546)
(6.70727 1.0541e-19 1.20678)
(6.96276 9.21934e-21 1.28353)
(6.297 -1.56176e-19 1.33058)
(6.57945 2.3767e-19 1.41952)
(5.85589 -6.96067e-20 1.45758)
(6.16712 -4.13243e-19 1.56138)
(5.38366 -1.08744e-20 1.5836)
(5.72488 1.64006e-19 1.7057)
(4.88086 -1.68525e-19 1.70253)
(5.25219 -1.91687e-19 1.84718)
(4.34937 -1.88406e-19 1.80577)
(4.74915 1.76261e-19 1.97816)
(3.79276 3.39131e-20 1.88149)
(4.21673 -7.10348e-19 2.0879)
(3.21662 1.093e-20 1.91342)
(3.65697 5.56347e-19 2.16176)
(2.62742 1.08853e-20 1.8782)
(3.07307 -5.92806e-19 2.18015)
(2.0282 2.03777e-19 1.74062)
(2.46733 6.10738e-19 2.11663)
(1.40776 4.34055e-19 1.47239)
(1.84083 0 1.93357)
(0.757904 -1.99702e-20 1.04305)
(1.16241 4.36632e-19 1.61034)
(0.607238 -4.62914e-19 1.08398)
(9.98422 -4.00098e-21 0.080316)
(9.98964 -2.56471e-21 0.0585666)
(9.95073 -1.15474e-21 0.12939)
(9.96879 -1.06983e-23 0.113556)
(9.89824 4.06841e-21 0.17734)
(9.92927 6.61427e-24 0.166156)
(9.82767 1.37066e-21 0.226472)
(9.86888 6.93899e-21 0.219167)
(9.73963 1.19791e-20 0.277975)
(9.79007 -7.10834e-21 0.274362)
(9.63412 2.47007e-21 0.332564)
(9.69436 1.32907e-20 0.332578)
(9.51095 -2.1734e-20 0.390961)
(9.58174 -7.56852e-21 0.394524)
(9.3698 3.93634e-21 0.453935)
(9.45172 -1.57337e-20 0.461001)
(9.21024 1.93668e-20 0.522261)
(9.30385 1.61717e-20 0.532843)
(9.03171 3.31835e-21 0.596709)
(9.13767 3.36199e-21 0.610872)
(8.83356 -3.64284e-21 0.678057)
(8.95264 -3.44918e-21 0.695916)
(8.61506 -1.48971e-20 0.767086)
(8.74813 7.1334e-21 0.788811)
(8.3754 -3.21983e-21 0.864565)
(8.52342 5.59514e-20 0.890393)
(8.11373 7.60029e-21 0.971203)
(8.27776 -6.11519e-20 1.00147)
(7.82915 8.459e-21 1.08759)
(8.01035 -8.04316e-21 1.12275)
(7.5207 8.28229e-21 1.21407)
(7.72034 -5.8308e-20 1.25481)
(7.18738 -9.18456e-21 1.35063)
(7.40684 5.97804e-20 1.39791)
(6.82813 1.44407e-19 1.49664)
(7.0689 -9.07006e-21 1.55187)
(6.44186 -2.73628e-20 1.65061)
(6.70545 1.51456e-19 1.71579)
(6.02749 -1.72629e-19 1.80978)
(6.31534 -1.55536e-19 1.88771)
(5.58396 -2.12817e-20 1.96967)
(5.89723 -1.80684e-19 2.06421)
(5.11041 1.57715e-19 2.12358)
(5.44968 3.12829e-19 2.23986)
(4.60629 -3.56275e-19 2.26192)
(4.97111 1.79923e-19 2.40666)
(4.07147 -1.73505e-19 2.37158)
(4.45988 -9.0212e-19 2.55334)
(3.50601 -6.06925e-20 2.43509)
(3.91419 3.64041e-19 2.66477)
(2.90935 2.10465e-20 2.42976)
(3.33208 -3.93022e-19 2.72148)
(2.27815 4.00573e-19 2.3264)
(2.71018 4.04877e-19 2.69912)
(1.60142 6.90475e-21 2.10068)
(2.04612 0 2.56727)
(0.863353 6.75214e-21 1.72321)
(1.30108 -4.24093e-19 2.31013)
(0.656868 4.53022e-19 1.87557)
(9.98337 1.47064e-21 0.0925071)
(9.98939 -1.28497e-21 0.0665021)
(9.94977 1.15217e-21 0.150799)
(9.96831 3.93635e-21 0.130017)
(9.89835 2.96853e-21 0.208486)
(9.92925 -2.69035e-21 0.192029)
(9.82949 -1.72095e-21 0.267612)
(9.8703 5.55036e-21 0.254737)
(9.74368 -5.53031e-21 0.329509)
(9.7937 -5.68691e-21 0.319874)
(9.641 2.97452e-21 0.395062)
(9.70078 1.49177e-24 0.388499)
(9.52126 -1.67333e-21 0.465095)
(9.59154 7.58534e-21 0.461468)
(9.38419 -3.08065e-21 0.540468)
(9.46555 -1.24043e-20 0.539675)
(9.22941 0 0.622056)
(9.32242 -2.58235e-20 0.624046)
(9.05644 -3.49385e-21 0.710737)
(9.16175 -2.52741e-22 0.715506)
(8.86472 7.46297e-21 0.807394)
(8.98306 4.80956e-20 0.81498)
(8.65363 7.86129e-20 0.912914)
(8.78581 -1.75856e-20 0.923402)
(8.42249 -3.4733e-21 1.02817)
(8.56937 6.15238e-22 1.0417)
(8.17061 -7.61207e-20 1.15397)
(8.33309 -6.96203e-20 1.17077)
(7.89724 -7.54587e-20 1.29101)
(8.07628 5.48203e-20 1.31143)
(7.60161 -5.34329e-21 1.43978)
(7.79821 -6.67166e-20 1.46435)
(7.28287 5.90298e-20 1.60037)
(7.49808 2.05022e-19 1.62993)
(6.94007 0 1.77233)
(7.17499 -1.40004e-19 1.80816)
(6.5721 1.95731e-20 1.95432)
(6.82788 0 1.99832)
(6.1776 -1.63899e-19 2.14376)
(6.45541 3.81623e-20 2.19873)
(5.75491 1.59438e-19 2.33632)
(6.05585 -1.61038e-19 2.40628)
(5.30197 3.3377e-19 2.52536)
(5.62694 6.81653e-19 2.61592)
(4.81623 -3.78615e-19 2.70131)
(5.16575 -6.70958e-19 2.82001)
(4.29457 -3.49791e-19 2.85102)
(4.66853 -5.17646e-20 3.00774)
(3.73312 2.29802e-20 2.95737)
(4.1306 -3.40639e-19 3.16451)
(3.12687 0 2.99904)
(3.54639 2.02723e-20 3.2717)
(2.46873 0 2.9505)
(2.90872 7.79626e-19 3.30669)
(1.74814 -4.35274e-19 2.78982)
(2.21442 -8.09567e-19 3.24256)
(0.954286 1.26696e-20 2.48543)
(1.42067 4.10199e-19 3.0636)
(0.707979 2.79975e-21 2.71244)
(9.98314 1.24825e-21 0.104781)
(9.98935 1.27775e-21 0.0745477)
(9.94984 -1.11016e-24 0.17188)
(9.96845 -1.30728e-21 0.146336)
(9.89969 0 0.238888)
(9.93024 0 0.217262)
(9.83287 1.44042e-21 0.307652)
(9.87302 0 0.289264)
(9.74972 -8.04707e-23 0.379557)
(9.79895 -7.10256e-21 0.363988)
(9.65033 4.71158e-21 0.455636)
(9.70925 -1.53348e-21 0.442635)
(9.53458 -3.40888e-21 0.536829)
(9.60389 2.10552e-20 0.526199)
(9.40222 -3.53226e-20 0.624092)
(9.48252 -9.2844e-21 0.615666)
(9.25291 -2.57441e-20 0.718397)
(9.34479 3.03277e-21 0.712049)
(9.08624 5.19639e-20 0.820717)
(9.19035 -1.27609e-23 0.816363)
(8.9017 2.22068e-20 0.932028)
(9.01879 3.12405e-20 0.929625)
(8.69874 -9.53623e-20 1.05331)
(8.8296 -2.83609e-20 1.05286)
(8.47677 -6.64426e-20 1.18551)
(8.62224 -5.9248e-20 1.18707)
(8.23514 6.29073e-20 1.32955)
(8.3961 -6.89541e-20 1.33327)
(7.97316 6.2036e-20 1.48621)
(8.15054 1.24986e-19 1.49235)
(7.6901 1.47079e-19 1.6561)
(7.88483 0 1.66512)
(7.38512 1.70229e-21 1.83949)
(7.59816 1.4527e-19 1.85212)
(7.05721 -1.38273e-19 2.03612)
(7.28957 -2.9686e-19 2.05353)
(6.7051 1.90679e-20 2.24496)
(6.95785 -1.63119e-21 2.26895)
(6.32711 3.85718e-20 2.4638)
(6.60138 -1.51035e-19 2.4971)
(5.92096 3.71526e-19 2.68883)
(6.21798 3.25949e-19 2.73542)
(5.48356 -3.39344e-19 2.91403)
(5.80464 3.47838e-19 2.9796)
(5.01079 -3.36441e-19 3.13056)
(5.35729 -6.95365e-19 3.22294)
(4.49732 -4.60161e-20 3.32613)
(4.8705 -1.61866e-20 3.4557)
(3.9365 -3.39273e-19 3.48458)
(4.33743 3.42631e-19 3.66445)
(3.32045 8.08533e-19 3.58586)
(3.74992 -7.34942e-19 3.8317)
(2.64012 -4.59601e-20 3.60604)
(3.09806 1.15814e-18 3.9359)
(1.88626 4.96265e-20 3.52277)
(2.37883 -8.09713e-19 3.95053)
(1.05315 3.90641e-19 3.29984)
(1.54852 8.53902e-19 3.85583)
(0.773655 -4.56733e-19 3.58648)
(9.98329 -1.32292e-21 0.116936)
(9.98942 -1.26771e-21 0.0825233)
(9.95065 -1.28884e-21 0.192478)
(9.96903 -7.93316e-24 0.16233)
(9.90204 0 0.268372)
(9.93201 1.33189e-21 0.241728)
(9.83755 -8.6364e-21 0.346369)
(9.87681 0 0.322591)
(9.75744 -8.48191e-21 0.427879)
(9.80559 -1.13479e-20 0.406497)
(9.66182 1.51075e-20 0.514052)
(9.7195 -6.88892e-23 0.494736)
(9.55059 1.47835e-20 0.605936)
(9.61852 1.79589e-20 0.58842)
(9.42355 2.9233e-20 0.704577)
(9.50232 2.1652e-20 0.688626)
(9.28041 2.87308e-20 0.811031)
(9.37062 2.58829e-20 0.796446)
(9.1208 -2.03393e-20 0.926359)
(9.22312 -5.21957e-20 0.91298)
(8.94429 -2.00956e-20 1.05162)
(9.05946 6.6285e-21 1.03933)
(8.75036 7.36873e-21 1.18789)
(8.87922 -7.05048e-21 1.17661)
(8.53848 -6.18882e-20 1.33621)
(8.68187 7.31533e-21 1.32591)
(8.30802 -4.46271e-21 1.49758)
(8.46686 -1.20804e-19 1.48834)
(8.05832 6.13727e-20 1.67292)
(8.23355 2.47749e-19 1.66492)
(7.78858 0 1.86298)
(7.98121 -1.42893e-19 1.85659)
(7.4979 -1.5879e-19 2.06823)
(7.70896 0 2.06408)
(7.18509 -1.56616e-19 2.2887)
(7.41571 -1.2275e-19 2.28785)
(6.84863 -1.73705e-19 2.52374)
(7.10002 1.58932e-20 2.52786)
(6.48643 1.42088e-19 2.77174)
(6.75995 -1.88057e-19 2.78338)
(6.0956 3.02544e-19 3.02967)
(6.39283 3.06382e-19 3.05262)
(5.67211 -2.07088e-20 3.29253)
(5.99494 0 3.3323)
(5.21057 -3.66961e-19 3.55272)
(5.56118 1.96928e-20 3.61704)
(4.70388 3.76866e-19 3.79934)
(5.08475 1.17219e-20 3.89865)
(4.1433 -6.58254e-20 4.01758)
(4.55693 7.09766e-19 4.16534)
(3.51877 -3.64104e-19 4.18834)
(3.9674 -1.13146e-18 4.40089)
(2.81979 3.74075e-19 4.28773)
(3.30365 1.13939e-18 4.58423)
(2.03751 1.28075e-20 4.29016)
(2.56199 -7.60792e-19 4.68741)
(1.16947 5.88225e-21 4.15226)
(1.70021 2.31656e-22 4.68334)
(0.859736 6.50145e-21 4.49757)
(9.98369 6.35395e-23 0.128818)
(9.98958 2.52609e-21 0.0903088)
(9.95203 2.63066e-21 0.212449)
(9.96994 5.80087e-25 0.177847)
(9.90521 1.31442e-21 0.296797)
(9.93438 3.99833e-21 0.265297)
(9.84335 -2.85962e-21 0.383594)
(9.88149 -8.17578e-21 0.354568)
(9.76665 -2.78591e-21 0.47427)
(9.81343 8.42862e-21 0.447209)
(9.67521 3.01972e-21 0.570063)
(9.73133 -1.15168e-20 0.544568)
(9.569 2.48753e-20 0.672119)
(9.63516 3.71681e-24 0.647852)
(9.44785 1.83544e-20 0.781564)
(9.52464 5.2347e-20 0.758225)
(9.31153 -5.60535e-20 0.899534)
(9.39956 -2.81227e-20 0.876854)
(9.15972 -2.44805e-20 1.02717)
(9.25967 -5.24439e-20 1.00491)
(8.99205 1.95061e-20 1.16563)
(9.10467 2.02611e-20 1.14359)
(8.80807 -6.92177e-21 1.31605)
(8.9342 -7.01111e-21 1.29408)
(8.60726 -5.32193e-20 1.47958)
(8.7478 -5.74622e-20 1.45757)
(8.38905 1.36021e-19 1.65736)
(8.54494 6.19647e-21 1.63528)
(8.15275 3.86475e-20 1.85042)
(8.32503 3.08169e-19 1.82836)
(7.89754 -1.41144e-19 2.05971)
(8.0873 -2.3674e-19 2.03791)
(7.62237 3.45416e-20 2.28595)
(7.83083 0 2.26493)
(7.3259 5.1446e-20 2.52953)
(7.55439 6.00562e-22 2.51017)
(7.00631 -1.01198e-21 2.79033)
(7.25634 1.20763e-22 2.77409)
(6.66108 -1.78858e-20 3.06746)
(6.93444 -1.78481e-20 3.05663)
(6.28672 0 3.35891)
(6.58556 0 3.35693)
(5.87839 4.06639e-20 3.66102)
(6.20533 0 3.67301)
(5.42951 3.98515e-19 3.96784)
(5.78774 3.98275e-20 4.00114)
(4.93147 3.52997e-19 4.2703)
(5.32472 3.54678e-19 4.33513)
(4.37354 -3.77711e-19 4.55525)
(4.80575 2.31841e-20 4.6653)
(3.74336 3.98649e-19 4.8045)
(4.21814 -3.54424e-19 4.97714)
(3.02827 -1.44093e-20 4.99329)
(3.54609 7.38958e-19 5.24997)
(2.21799 -7.65121e-19 5.09059)
(2.78284 -7.60909e-19 5.45352)
(1.31116 9.59384e-22 5.04285)
(1.88878 -7.74153e-19 5.55043)
(0.971535 7.83113e-19 5.45353)
(9.98427 2.43075e-21 0.140309)
(9.98979 1.26828e-21 0.0978191)
(9.95384 1.42129e-21 0.231662)
(9.97108 -9.32539e-24 0.192763)
(9.90906 -5.64703e-21 0.324024)
(9.93725 1.14792e-23 0.287843)
(9.8501 3.32978e-21 0.41916)
(9.88693 2.68726e-21 0.385055)
(9.77714 -5.62343e-22 0.518523)
(9.82232 1.40393e-20 0.485947)
(9.6903 -1.43841e-20 0.62342)
(9.74454 -1.15179e-20 0.591914)
(9.58956 2.81501e-20 0.735078)
(9.65359 -2.97741e-21 0.704239)
(9.47484 4.83253e-21 0.854701)
(9.54923 5.20583e-20 0.824162)
(9.34593 -2.48239e-20 0.983497)
(9.4313 -5.32416e-20 0.952919)
(9.2026 -6.77441e-21 1.12268)
(9.29962 0 1.09176)
(9.04454 -6.605e-21 1.27349)
(9.15397 -1.55869e-23 1.24193)
(8.87135 -5.81915e-20 1.43716)
(8.99405 5.50974e-20 1.40472)
(8.68259 2.73764e-21 1.61495)
(8.81947 -1.13804e-19 1.58142)
(8.47772 1.82108e-19 1.80809)
(8.62978 6.60354e-20 1.77334)
(8.25605 2.6103e-20 2.01782)
(8.4244 1.74247e-21 1.9818)
(8.01675 -9.26661e-20 2.24528)
(8.20261 6.3263e-21 2.20809)
(7.75869 -3.3939e-20 2.49151)
(7.96346 -1.28352e-19 2.45348)
(7.48039 -5.07457e-20 2.75734)
(7.70567 1.30481e-19 2.71913)
(7.17979 -1.69407e-20 3.04328)
(7.42747 -1.53524e-19 3.00602)
(6.85403 2.54985e-22 3.34932)
(7.1264 -1.40535e-19 3.31488)
(6.49911 0 3.67466)
(6.79902 3.03764e-19 3.64597)
(6.10947 -3.72789e-22 4.01727)
(6.44047 2.95892e-19 3.9988)
(5.6775 -3.64032e-22 4.37326)
(6.04401 -1.78644e-20 4.37167)
(5.19306 2.07593e-20 4.73591)
(5.60039 1.45227e-21 4.76091)
(4.64323 4.21947e-20 5.09437)
(5.09724 -3.18816e-19 5.15968)
(4.01256 -1.26472e-21 5.4318)
(4.51897 6.80036e-19 5.55611)
(3.28444 -2.21372e-20 5.72259)
(3.84512 -6.77307e-19 5.93079)
(2.44404 -7.70308e-19 5.92883)
(3.06183 0 6.25154)
(1.48732 1.66918e-20 5.98247)
(2.13012 -2.76135e-20 6.4685)
(1.11694 -6.55129e-21 6.47374)
(9.98498 -1.18819e-21 0.151315)
(9.99005 -2.52587e-21 0.10499)
(9.95599 -1.41911e-21 0.249999)
(9.97241 -6.42873e-21 0.206974)
(9.91349 8.38063e-21 0.349925)
(9.94053 -9.26718e-21 0.309249)
(9.85768 1.35454e-20 0.452915)
(9.89301 1.89605e-20 0.413918)
(9.78877 2.75085e-21 0.560451)
(9.83211 2.30319e-24 0.522551)
(9.70687 0 0.673896)
(9.75897 -2.84907e-21 0.636578)
(9.61203 2.16388e-20 0.794547)
(9.67359 0 0.757347)
(9.5042 -7.36428e-21 0.923675)
(9.57581 1.83534e-20 0.886163)
(9.38326 -2.77402e-20 1.06255)
(9.46551 -2.49811e-20 1.02432)
(9.24903 6.758e-21 1.21247)
(9.3426 -5.77733e-20 1.17313)
(9.10127 6.23858e-20 1.37473)
(9.20692 5.92162e-20 1.33391)
(8.93968 -2.60903e-21 1.55066)
(9.05825 6.187e-20 1.50803)
(8.76387 -4.82863e-20 1.74162)
(8.89631 -5.63418e-20 1.69685)
(8.57339 -1.15165e-19 1.94898)
(8.72071 7.18887e-21 1.90182)
(8.36759 -1.80052e-20 2.17416)
(8.53098 -1.20861e-19 2.12439)
(8.14566 -3.0974e-20 2.41855)
(8.32645 1.07879e-19 2.36609)
(7.90649 3.91278e-20 2.68353)
(8.10623 -1.28403e-19 2.62846)
(7.64853 2.4307e-20 2.97043)
(7.86908 2.77398e-19 2.91308)
(7.36963 -2.7712e-19 3.28046)
(7.61324 -2.51956e-19 3.22155)
(7.06673 1.68113e-19 3.61462)
(7.33622 -1.23698e-19 3.55544)
(6.73553 5.99753e-19 3.97351)
(7.03448 2.69017e-19 3.91623)
(6.36999 2.74926e-19 4.35703)
(6.70299 8.86263e-19 4.30517)
(5.96165 -1.57776e-20 4.76377)
(6.33457 -3.10083e-19 4.7229)
(5.49896 -3.42045e-19 5.19016)
(5.91916 1.45332e-21 5.1689)
(4.96647 3.30919e-19 5.62871)
(5.44266 -3.39599e-19 5.64028)
(4.34449 -1.28203e-20 6.06548)
(4.88611 1.28441e-18 6.12961)
(3.60963 -6.47113e-19 6.47554)
(4.22279 -6.76901e-19 6.62128)
(2.7372 7.42643e-19 6.81441)
(3.42618 -6.57103e-19 7.08411)
(1.71215 -5.49633e-20 6.99397)
(2.45023 7.2313e-19 7.45647)
(1.31161 -7.42445e-19 7.59811)
(9.98579 -7.8168e-21 0.161761)
(9.99035 -2.50198e-21 0.111773)
(9.95842 -1.43046e-20 0.267361)
(9.9739 1.24795e-21 0.220396)
(9.9184 1.667e-21 0.374383)
(9.94413 -3.69359e-23 0.329412)
(9.86598 5.17031e-21 0.484718)
(9.89963 -1.61332e-20 0.441038)
(9.80138 -5.63468e-21 0.599883)
(9.84268 8.25365e-21 0.556875)
(9.72475 -2.81251e-21 0.721287)
(9.77444 -2.83517e-21 0.678387)
(9.63617 -3.05126e-21 0.850285)
(9.69497 2.91016e-21 0.80697)
(9.53566 1.83321e-22 0.988206)
(9.60413 -2.40729e-20 0.943983)
(9.42316 -5.54314e-20 1.13638)
(9.50188 4.94092e-20 1.09077)
(9.29857 -3.85308e-21 1.29615)
(9.3882 -7.67221e-20 1.2487)
(9.16174 5.87354e-20 1.46889)
(9.26304 5.2552e-20 1.41915)
(9.01247 6.67727e-21 1.65601)
(9.12626 1.69877e-23 1.60353)
(8.85046 -6.90867e-23 1.85897)
(8.97767 -6.87646e-21 1.80332)
(8.67534 -6.74076e-23 2.07927)
(8.81703 -1.42052e-22 2.02004)
(8.48659 7.76676e-21 2.3185)
(8.64396 0 2.25532)
(8.28349 7.58085e-21 2.57832)
(8.45793 7.67475e-21 2.51087)
(8.06501 1.14703e-19 2.86048)
(8.2582 0 2.78852)
(7.82971 -5.07789e-21 3.1668)
(8.04369 2.4026e-19 3.09028)
(7.57549 -9.7074e-20 3.49927)
(7.81281 -1.31576e-19 3.41835)
(7.29938 -1.8359e-20 3.85993)
(7.56329 -1.15371e-19 3.77517)
(6.99709 5.6266e-19 4.25092)
(7.29182 -1.77674e-20 4.1635)
(6.66248 2.87771e-19 4.6743)
(6.99361 8.67537e-19 4.58638)
(6.28673 -2.89332e-19 5.13168)
(6.66168 -8.57887e-19 5.04713)
(5.85727 0 5.62353)
(6.28585 2.87785e-19 5.54901)
(5.35628 6.33083e-19 6.14756)
(5.85109 0 6.09443)
(4.75888 5.95471e-19 6.69576)
(5.33558 1.86861e-20 6.68318)
(4.0316 -6.88459e-19 7.24839)
(4.70561 5.80213e-19 7.30844)
(3.13156 -6.59797e-19 7.75934)
(3.91621 -6.57426e-19 7.94809)
(2.01544 2.43184e-20 8.11707)
(2.89834 -6.07394e-19 8.5383)
(1.59131 6.8319e-19 8.89841)
(9.98669 6.63378e-21 0.171588)
(9.99067 -2.50222e-21 0.118128)
(9.96108 1.55e-20 0.283662)
(9.9755 8.96643e-21 0.232958)
(9.92371 -1.80486e-20 0.397292)
(9.948 1.70292e-20 0.348245)
(9.87488 -1.2741e-20 0.514445)
(9.9067 -4.43184e-20 0.466311)
(9.81483 1.09101e-20 0.63667)
(9.8539 2.2019e-20 0.588795)
(9.74374 2.96136e-21 0.765415)
(9.7908 2.82886e-20 0.717188)
(9.66175 -1.8458e-20 0.902081)
(9.7175 -4.34962e-20 0.852927)
(9.56892 2.60844e-20 1.04804)
(9.63392 -2.11826e-20 0.997412)
(9.46528 2.65347e-20 1.20468)
(9.54008 7.37888e-20 1.15203)
(9.35081 -1.87045e-20 1.37337)
(9.43605 -6.62805e-20 1.31818)
(9.22546 -6.82791e-21 1.55557)
(9.32186 5.1568e-20 1.49729)
(9.08913 -1.36229e-20 1.75273)
(9.19749 -6.74463e-21 1.69083)
(8.94165 -6.86503e-21 1.9664)
(9.06289 -1.87947e-23 1.90033)
(8.78278 -7.04082e-23 2.19822)
(8.91793 4.91244e-20 2.12742)
(8.61215 0 2.44994)
(8.76241 -6.45551e-20 2.37383)
(8.42922 0 2.72344)
(8.596 -1.18413e-19 2.64145)
(8.23316 1.28419e-19 3.02081)
(8.41817 1.20767e-19 2.9324)
(8.02277 1.09638e-19 3.3444)
(8.22814 1.2694e-19 3.24903)
(7.79626 -1.49526e-19 3.69688)
(8.02469 -1.42657e-19 3.59409)
(7.55103 -1.13708e-19 4.08137)
(7.80602 -3.32131e-21 3.97083)
(7.28325 2.97209e-19 4.50154)
(7.56945 1.716e-20 4.38317)
(6.98729 -2.97273e-19 4.9617)
(7.31101 5.28073e-19 4.83595)
(6.65482 -2.683e-19 5.46686)
(7.02477 -5.66677e-19 5.33515)
(6.27334 2.84657e-19 6.02248)
(6.70172 1.19698e-20 5.88816)
(5.8239 -6.1442e-19 6.63369)
(6.32787 0 6.50394)
(5.27728 9.15367e-21 7.30317)
(5.88114 -5.89809e-19 7.19263)
(4.58809 5.94722e-19 8.02588)
(5.32395 3.37272e-19 7.96383)
(3.6852 -6.04592e-19 8.77069)
(4.59236 2.95185e-19 8.82106)
(2.46428 7.96519e-20 9.41713)
(3.57336 -7.8443e-20 9.73089)
(2.04257 1.00457e-19 10.5052)
(9.98765 0 0.180745)
(9.99101 -1.23676e-21 0.124026)
(9.96391 1.05922e-20 0.298828)
(9.9772 0 0.244603)
(9.92934 -1.00212e-20 0.418565)
(9.95208 9.15218e-21 0.36567)
(9.88428 -8.71123e-21 0.54199)
(9.91414 -1.87524e-20 0.489645)
(9.82898 3.94794e-20 0.670686)
(9.86567 1.23438e-20 0.618201)
(9.76367 -1.90918e-20 0.806133)
(9.80791 4.79497e-20 0.752854)
(9.68852 -4.59406e-20 0.949763)
(9.741 -6.94199e-20 0.895068)
(9.60368 2.77175e-20 1.10299)
(9.66493 2.82748e-21 1.04627)
(9.50925 -2.07901e-20 1.26722)
(9.57979 2.74942e-20 1.20789)
(9.40529 5.44982e-21 1.44388)
(9.48573 -3.58311e-21 1.38133)
(9.29187 5.09332e-20 1.63444)
(9.38289 5.18414e-20 1.56806)
(9.169 6.9424e-21 1.84043)
(9.27138 -5.89593e-20 1.76958)
(9.03667 5.65799e-20 2.06346)
(9.15125 -4.04999e-20 1.98748)
(8.89479 -1.66967e-20 2.30526)
(9.02257 4.20665e-20 2.22343)
(8.74321 -1.83643e-19 2.5677)
(8.88533 -8.76924e-22 2.47927)
(8.58161 5.08396e-21 2.85287)
(8.73943 5.09888e-21 2.75701)
(8.40949 1.19368e-19 3.16315)
(8.58468 2.21196e-21 3.05896)
(8.22604 -1.28426e-19 3.5013)
(8.42068 0 3.38778)
(8.03 5.1297e-21 3.87059)
(8.24676 -1.19304e-19 3.74661)
(7.81949 1.27852e-19 4.27507)
(8.06184 1.37145e-19 4.13933)
(7.59165 2.53817e-19 4.71975)
(7.86428 -7.91111e-21 4.5708)
(7.34214 2.47652e-19 5.21108)
(7.65154 2.43049e-19 5.04729)
(7.06436 -2.79463e-19 5.75735)
(7.41974 -2.61534e-19 5.57706)
(6.74788 -2.73037e-19 6.36941)
(7.16284 -1.57734e-20 6.17126)
(6.37578 1.7984e-20 7.06147)
(6.87101 -2.00545e-21 6.84534)
(5.91926 -2.50382e-19 7.85199)
(6.52787 -2.37124e-19 7.62135)
(5.32649 3.76234e-20 8.76502)
(6.10324 2.32125e-19 8.53215)
(4.49677 8.15768e-19 9.82465)
(5.53499 2.42472e-20 9.63073)
(3.21774 -9.37412e-20 11.003)
(4.68404 7.16187e-19 10.9951)
(2.88395 -6.96124e-19 12.6756)
(9.98866 -1.2209e-21 0.189194)
(9.99137 -3.59141e-21 0.129442)
(9.96689 -1.31954e-21 0.312799)
(9.97897 5.96331e-21 0.255286)
(9.93525 6.76567e-23 0.438118)
(9.95634 1.3342e-20 0.381627)
(9.89409 2.69917e-21 0.567248)
(9.92187 -9.89851e-21 0.510967)
(9.84371 2.12734e-20 0.701798)
(9.87787 1.03918e-20 0.645006)
(9.78437 -3.88074e-21 0.843271)
(9.82562 2.93232e-20 0.78528)
(9.71629 -1.97319e-20 0.993124)
(9.76532 -4.77432e-20 0.93327)
(9.63968 2.90966e-21 1.15279)
(9.69699 2.24532e-20 1.09043)
(9.55473 4.4315e-20 1.3237)
(9.62082 9.50274e-23 1.25818)
(9.46159 4.35097e-20 1.50731)
(9.53706 2.13077e-20 1.43796)
(9.36045 -5.94069e-20 1.7051)
(9.44593 2.68822e-22 1.63124)
(9.25145 -1.06187e-19 1.91863)
(9.34767 -5.39052e-20 1.83954)
(9.13473 -5.40591e-20 2.14955)
(9.24251 -5.77216e-20 2.06446)
(9.01042 5.73633e-20 2.39965)
(9.13068 -5.24777e-20 2.3077)
(8.87859 1.87983e-19 2.67089)
(9.01241 1.18482e-20 2.57115)
(8.73924 2.22303e-21 2.9655)
(8.88789 1.25534e-19 2.85691)
(8.59225 -1.17227e-19 3.28603)
(8.75728 -1.0682e-20 3.16736)
(8.43734 7.75829e-21 3.63554)
(8.62069 -1.15929e-19 3.50532)
(8.27401 1.54713e-20 4.01772)
(8.47811 2.25864e-19 3.8742)
(8.10135 -2.89921e-22 4.43724)
(8.32941 -2.31723e-19 4.2782)
(7.91796 -1.59144e-20 4.90009)
(8.17427 9.29787e-23 4.72271)
(7.72162 -2.71139e-19 5.41422)
(8.01211 -1.1793e-19 5.21479)
(7.50884 4.33907e-21 5.99046)
(7.84203 -2.65284e-19 5.764)
(7.27391 2.55525e-19 6.64403)
(7.66261 2.69127e-19 6.38367)
(7.0071 -2.59694e-19 7.39726)
(7.47175 1.15319e-19 7.09328)
(6.69051 2.46012e-19 8.28502)
(7.26657 -3.76662e-19 7.92303)
(6.2877 2.24503e-19 9.36858)
(7.04429 4.01897e-19 8.92431)
(5.71159 -6.44632e-20 10.7785)
(6.80905 -1.65807e-19 10.2013)
(4.68597 -3.94488e-20 13.0336)
(6.73436 2.20194e-19 12.0297)
(5.91082 -4.35017e-19 15.9777)
(0.244793 5.95564e-22 -0.159012)
(0.127036 -4.21052e-21 -0.23543)
(0.485095 -1.55017e-21 -0.138705)
(0.347491 4.56619e-21 -0.225012)
(0.691043 8.3214e-23 -0.110095)
(0.558099 0 -0.187242)
(0.859842 8.54968e-23 -0.0834369)
(0.744742 -3.19339e-23 -0.149304)
(0.99397 0 -0.0603627)
(0.899092 -1.56582e-22 -0.115593)
(1.09607 0 -0.0405679)
(1.02215 0 -0.0858457)
(1.16837 -6.60482e-23 -0.0236369)
(1.11731 -2.07681e-21 -0.0593653)
(1.21306 -6.75686e-23 -0.00943925)
(1.18734 2.17424e-21 -0.0358618)
(1.23287 -1.19856e-22 0.00184279)
(1.23429 1.75144e-21 -0.0155434)
(1.23176 -5.76204e-22 0.00990522)
(1.26031 -3.86592e-21 0.000881618)
(1.21498 -4.29983e-23 0.0147102)
(1.26788 -3.2478e-21 0.012656)
(1.18832 4.53825e-22 0.0166744)
(1.26074 1.1237e-21 0.0196711)
(1.15709 -1.97515e-22 0.0165193)
(1.24506 8.37815e-22 0.0225729)
(1.12547 -1.07978e-22 0.0149918)
(1.22589 -8.17073e-22 0.0223773)
(1.09641 1.00185e-22 0.0126661)
(1.20678 -5.61089e-22 0.0201509)
(1.07175 -8.48554e-23 0.00995793)
(1.19008 3.84124e-22 0.0167413)
(1.0525 -9.62851e-24 0.0071829)
(1.17715 3.5101e-22 0.0128038)
(1.03894 7.62883e-23 0.00457911)
(1.1685 3.89509e-22 0.00883921)
(1.03078 -6.94394e-23 0.00227902)
(1.16395 -3.82246e-22 0.00521454)
(1.02749 -9.81175e-23 0.000258242)
(1.16276 6.1558e-25 0.00207507)
(1.02874 -2.72797e-23 -0.00158729)
(1.16405 2.12443e-22 -0.000739902)
(1.0344 2.80772e-23 -0.00328308)
(1.16722 -1.13185e-22 -0.00336164)
(1.04434 6.79308e-23 -0.00474777)
(1.17218 2.57737e-23 -0.00579109)
(1.05828 8.62446e-23 -0.00586285)
(1.17916 3.96248e-23 -0.00795614)
(1.07556 3.62428e-23 -0.00660111)
(1.18819 4.08678e-23 -0.00965764)
(1.09538 -3.04268e-23 -0.00717502)
(1.19893 7.63403e-23 -0.0108536)
(1.11758 -2.44146e-23 -0.00801065)
(1.21091 -1.5509e-23 -0.0119075)
(1.14316 -9.72131e-24 -0.00931369)
(1.22416 -1.11683e-23 -0.0134341)
(1.17298 -8.14074e-24 -0.0102822)
(1.23985 -1.80707e-23 -0.0153365)
(1.2641 -6.48082e-24 -0.0149561)
(0.214185 3.2834e-23 -0.349611)
(0.0864792 -1.22558e-20 -0.446992)
(0.433666 6.18533e-21 -0.315024)
(0.294697 1.76962e-20 -0.430384)
(0.627341 -8.31415e-23 -0.25891)
(0.47789 -5.61697e-21 -0.36289)
(0.791731 -2.39945e-22 -0.205447)
(0.642326 -8.43148e-23 -0.294293)
(0.929497 -1.58535e-22 -0.158563)
(0.782485 1.80351e-23 -0.233991)
(1.04337 -2.0519e-21 -0.117521)
(0.899771 0 -0.181339)
(1.13539 1.07643e-22 -0.0813139)
(0.996876 -2.50612e-21 -0.134745)
(1.20716 3.98889e-21 -0.0494882)
(1.0758 -1.69765e-21 -0.0933522)
(1.25991 -1.88192e-21 -0.0221487)
(1.13797 2.37033e-21 -0.0568842)