/*--------------------------------*- C++ -*----------------------------------*\
| =========                 |                                                 |
| \\      /  F ield         | OpenFOAM: The Open Source CFD Toolbox           |
|  \\    /   O peration     | Version:  dev                                   |
|   \\  /    A nd           | Web:      www.OpenFOAM.org                      |
|    \\/     M anipulation  |                                                 |
\*---------------------------------------------------------------------------*/
FoamFile
{
    version     2.0;
    format      ascii;
    class       volScalarField;
    location    "2.06";
    object      p;
}
// * * * * * * * * * * * * * * * * * * * * * * * * * * * * * * * * * * * * * //

dimensions      [0 2 -2 0 0 0 0];

internalField   nonuniform List<scalar> 
2790
(
80.8132
80.6518
80.774
81.1174
81.5911
82.1668
82.8446
83.6265
84.5124
85.5022
86.5968
87.7977
89.1067
90.5254
92.0551
93.6966
95.4497
97.3126
99.2815
101.349
103.505
105.733
108.007
110.297
112.558
114.734
116.756
118.54
119.986
120.943
80.6623
80.5955
80.7378
81.0794
81.5511
82.1256
82.8011
83.5794
84.4608
85.4451
86.5332
87.7264
89.0265
90.435
91.9531
93.5815
95.3198
97.1664
99.1175
101.167
103.303
105.511
107.769
110.045
112.299
114.477
116.511
118.32
119.803
120.848
80.5232
80.5301
80.6902
81.0241
81.4876
82.0549
82.722
83.4898
84.3585
85.328
86.3987
87.5717
88.848
90.2287
91.7145
93.3051
94.9995
96.7951
98.6873
100.669
102.728
104.849
107.01
109.18
111.317
113.368
115.259
116.888
118.094
118.318
80.3834
80.4292
80.6034
80.9313
81.3857
81.944
82.6003
83.3546
84.2069
85.1567
86.2041
87.3496
88.5936
89.9364
91.3776
92.9157
94.5484
96.2715
98.0787
99.9606
101.904
103.89
105.893
107.878
109.797
111.582
113.129
114.259
114.767
112.979
80.234
80.3009
80.4876
80.8122
81.2573
81.8044
82.4468
83.1837
84.0147
84.9392
85.9568
87.0673
88.2703
89.5651
90.95
92.4224
93.9779
95.6106
97.3116
99.0688
100.866
102.679
104.477
106.217
107.836
109.24
110.281
110.652
110.288
105.908
80.0708
80.1496
80.3449
80.6659
81.1
81.6328
82.2578
82.9734
83.7788
84.6731
85.6551
86.7241
87.8787
89.117
90.4362
91.8318
93.2977
94.8256
96.4037
98.0166
99.6434
101.255
102.813
104.261
105.519
106.461
106.896
106.362
105.187
98.3529
79.8916
79.977
80.1769
80.493
80.9148
81.4311
82.0359
82.7269
83.5029
84.3623
85.3036
86.3251
87.4245
88.5987
89.8434
91.1525
92.5178
93.9285
95.3698
96.8225
98.2607
99.6492
100.94
102.064
102.921
103.356
103.152
101.666
99.8397
91.0869
79.6952
79.7842
79.9853
80.2948
80.7029
81.2006
81.7824
82.4457
83.1885
84.0089
84.9046
85.8731
86.9111
88.0144
89.177
90.3912
91.6466
92.9297
94.2229
95.5029
96.7384
97.8874
98.8926
99.6726
100.109
100.02
99.1889
96.7712
94.4472
84.3754
79.4815
79.572
79.7715
80.0727
80.4656
80.9426
81.499
82.1316
82.8379
83.6153
84.4611
85.3718
86.343
87.3694
88.4434
89.5554
90.6932
91.8406
92.9767
94.0742
95.0967
95.9956
96.7046
97.1306
97.1406
96.5272
95.099
91.8054
89.0782
78.1452
79.2503
79.3411
79.5369
79.828
80.2041
80.6587
81.1873
81.7864
82.4532
83.1844
83.9764
84.825
85.7249
86.6692
87.6493
88.6535
89.6675
90.6727
91.6449
92.553
93.3557
93.9983
94.4061
94.4755
94.0614
92.9332
90.9368
86.8243
83.7043
72.1381
79.0024
79.0924
79.2828
79.562
79.9199
80.3503
80.8491
81.4125
82.037
82.719
83.454
84.237
85.0617
85.92
86.8017
87.6936
88.5792
89.4375
90.2414
90.9561
91.5355
91.9192
92.0252
91.7401
90.9082
89.2755
86.7263
81.8354
78.2301
66.0007
78.7381
78.8267
79.0104
79.2763
79.6144
80.0192
80.4863
81.012
81.5921
82.2223
82.8976
83.6122
84.3585
85.1276
85.9076
86.684
87.4383
88.1469
88.7802
89.2999
89.6558
89.7819
89.5893
88.9552
87.7133
85.5848
82.4765
76.8216
72.5175
59.3295
78.4585
78.5452
78.721
78.9723
79.2894
79.6671
80.1011
80.5872
81.121
81.6975
82.3109
82.9547
83.6205
84.298
84.9744
85.6334
86.2546
86.8126
87.2752
87.6009
87.7358
87.6089
87.1245
86.1506
84.5088
81.8925
78.1975
71.768
66.4111
51.6679
78.1644
78.2488
78.4158
78.6514
78.9465
79.2958
79.6954
80.1406
80.6265
81.1476
81.6976
82.2689
82.8527
83.4374
84.009
84.5498
85.0379
85.4462
85.74
85.875
85.7941
85.422
84.6567
83.3567
81.3301
78.2399
73.9283
66.7067
59.8009
42.422
77.857
77.9386
78.0961
78.3151
78.5871
78.9073
79.2714
79.6746
80.1115
80.5761
81.0616
81.5597
82.0607
82.5521
83.0189
83.4422
83.7989
84.06
84.1891
84.1396
83.8515
83.2459
82.2158
80.6114
78.2269
74.6997
69.7886
61.8325
52.9362
30.6733
-0.164727
-0.163899
-0.190283
-0.276909
-0.43671
-0.635554
-0.833337
-1.01233
-1.16861
-1.30254
-1.41441
-1.50265
-1.56467
-1.59885
-1.60354
-1.57465
-1.50773
-1.40433
-1.27118
-1.11235
-0.927488
-0.7179
-0.492143
-0.265192
-0.0527747
0.129388
0.261777
0.322793
0.294368
0.164473
-0.166851
-0.168153
-0.198871
-0.289349
-0.45095
-0.64894
-0.844949
-1.02257
-1.17819
-1.31207
-1.42435
-1.51319
-1.57568
-1.61055
-1.61683
-1.58941
-1.5216
-1.41582
-1.28192
-1.12387
-0.938167
-0.724267
-0.491731
-0.258011
-0.0388421
0.152264
0.293088
0.357515
0.326133
0.174063
-0.169417
-0.172967
-0.211131
-0.309426
-0.475102
-0.672112
-0.865442
-1.0409
-1.1954
-1.32917
-1.44203
-1.53157
-1.59436
-1.63001
-1.63888
-1.61392
-1.54397
-1.43352
-1.29851
-1.14392
-0.958227
-0.73549
-0.489543
-0.244452
-0.0217828
0.170576
0.31147
0.366755
0.31997
0.150894
-0.171331
-0.17676
-0.224871
-0.334292
-0.505595
-0.701544
-0.891767
-1.06482
-1.21799
-1.35162
-1.46522
-1.55561
-1.61845
-1.6547
-1.66706
-1.64495
-1.57023
-1.44982
-1.31127
-1.16152
-0.981116
-0.758985
-0.510124
-0.260426
-0.0322964
0.157759
0.28978
0.339117
0.284187
0.116265
-0.171376
-0.177694
-0.237904
-0.360904
-0.538469
-0.733389
-0.920595
-1.09157
-1.24355
-1.37723
-1.49197
-1.58267
-1.6431
-1.67561
-1.69142
-1.68172
-1.61679
-1.49259
-1.33982
-1.1769
-0.993204
-0.777348
-0.53818
-0.296985
-0.0754701
0.104971
0.225425
0.267099
0.21208
0.0760952
-0.16767
-0.173095
-0.247441
-0.38548
-0.569285
-0.763632
-0.948428
-1.11818
-1.26919
-1.40102
-1.51767
-1.61624
-1.68501
-1.71842
-1.72501
-1.70483
-1.64157
-1.52848
-1.38106
-1.21428
-1.02722
-0.815878
-0.587496
-0.359002
-0.150224
0.0184494
0.129873
0.167113
0.123226
0.0375299
-0.15738
-0.159436
-0.249914
-0.40339
-0.593346
-0.789195
-0.973406
-1.14364
-1.30218
-1.44167
-1.55876
-1.65359
-1.72205
-1.7597
-1.76738
-1.74278
-1.67779
-1.57052
-1.43038
-1.26679
-1.08183
-0.876599
-0.659058
-0.444098
-0.249429
-0.0914007
0.0147161
0.0538832
0.0311096
0.00156325
-0.135586
-0.132406
-0.241378
-0.412159
-0.61159
-0.812833
-1.00706
-1.18495
-1.34448
-1.48668
-1.60823
-1.70574
-1.77516
-1.81379
-1.82125
-1.79499
-1.73043
-1.6277
-1.49346
-1.33453
-1.15435
-0.956691
-0.75006
-0.547918
-0.365583
-0.215533
-0.111016
-0.0638949
-0.0589215
-0.0318828
-0.0938913
-0.0891374
-0.223023
-0.417733
-0.63469
-0.850602
-1.05187
-1.23684
-1.40339
-1.55042
-1.67552
-1.7754
-1.84616
-1.88515
-1.89146
-1.8636
-1.79974
-1.70093
-1.57189
-1.41786
-1.24308
-1.05281
-0.855785
-0.664135
-0.490928
-0.346084
-0.240297
-0.180919
-0.144751
-0.0629499
-0.0217895
-0.0323671
-0.204229
-0.433102
-0.673282
-0.903533
-1.11734
-1.31153
-1.48488
-1.63656
-1.76469
-1.86618
-1.93737
-1.97563
-1.98002
-1.95027
-1.88648
-1.79028
-1.66506
-1.51494
-1.34446
-1.15977
-0.969708
-0.785353
-0.618022
-0.476455
-0.367961
-0.294328
-0.225847
-0.0919685
0.0855838
0.0307454
-0.199218
-0.467587
-0.735038
-0.985488
-1.21322
-1.416
-1.59399
-1.74812
-1.87781
-1.98004
-2.05066
-2.08676
-2.0879
-2.05527
-1.99041
-1.89508
-1.77157
-1.62302
-1.45409
-1.27157
-1.08464
-0.903883
-0.739578
-0.60019
-0.489764
-0.402797
-0.302691
-0.119558
0.222789
0.0854123
-0.220644
-0.537926
-0.838275
-1.11013
-1.34897
-1.55543
-1.73327
-1.88636
-2.01558
-2.11757
-2.18666
-2.21903
-2.21502
-2.1778
-2.1103
-2.01389
-1.88945
-1.73907
-1.56741
-1.38207
-1.19314
-1.01174
-0.848316
-0.710983
-0.60199
-0.506125
-0.376803
-0.146696
0.381693
0.101568
-0.296663
-0.668436
-1.00279
-1.29074
-1.53171
-1.73226
-1.90217
-2.04949
-2.17639
-2.27785
-2.345
-2.37198
-2.36029
-2.31621
-2.24436
-2.14502
-2.01679
-1.86031
-1.68028
-1.48557
-1.28798
-1.10054
-0.935544
-0.802186
-0.70007
-0.604269
-0.450771
-0.174819
0.516155
0.032287
-0.464312
-0.891835
-1.25184
-1.54011
-1.76532
-1.94437
-2.09548
-2.23162
-2.35544
-2.45807
-2.52452
-2.54479
-2.52207
-2.46822
-2.39063
-2.28707
-2.15223
-1.98463
-1.78924
-1.57685
-1.36201
-1.16102
-0.990146
-0.862036
-0.77629
-0.695603
-0.528095
-0.20665
0.137842
-0.177932
-0.780205
-1.24074
-1.60117
-1.8587
-2.0389
-2.17491
-2.29516
-2.41711
-2.54186
-2.65301
-2.7244
-2.73776
-2.69916
-2.6319
-2.54821
-2.44044
-2.29668
-2.11251
-1.8936
-1.65369
-1.41112
-1.18676
-1.00285
-0.878704
-0.818481
-0.778129
-0.622935
-0.250433
77.5311
77.6097
77.7569
77.9582
78.206
78.4956
78.8228
79.1824
79.5685
79.9749
80.3941
80.8172
81.2337
81.6304
81.9913
82.2966
82.5218
82.6369
82.6038
82.3741
81.886
81.0581
79.7803
77.8975
75.1961
71.3103
65.9269
57.5249
46.8901
14.8991
77.183
77.2582
77.3942
77.5767
77.7988
78.0563
78.3449
78.659
78.9925
79.3386
79.6894
80.0355
80.3657
80.6661
80.9201
81.1069
81.2013
81.1723
80.9809
80.5778
79.9006
78.8675
77.3687
75.2516
72.3116
68.2204
62.6912
54.6264
45.3348
38.1844
76.8154
76.8867
77.0108
77.1735
77.3688
77.5931
77.8417
78.109
78.3885
78.6729
78.9541
79.2223
79.4655
79.6695
79.817
79.8868
79.853
79.6845
79.342
78.7764
77.9261
76.7123
75.0303
72.7415
69.6724
65.5805
60.3387
53.6046
46.6343
43.5439
76.4287
76.4959
76.6073
76.7493
76.917
77.1069
77.3147
77.5341
77.7586
77.9806
78.1916
78.3815
78.538
78.6463
78.6891
78.6446
78.4873
78.186
77.7022
76.9879
75.9851
74.6207
72.8008
70.411
67.324
63.3944
58.6072
52.8896
46.3571
40.3499
76.0236
76.0864
76.1847
76.3052
76.4443
76.5992
76.7654
76.9364
77.1053
77.2644
77.4052
77.5173
77.5881
77.6027
77.5435
77.389
77.1144
76.6893
76.0761
75.2303
74.0991
72.6177
70.7072
68.2823
65.2594
61.5587
57.1806
52.0911
46.1878
40.4093
75.6013
75.6593
75.744
75.8425
75.9524
76.0716
76.1957
76.3179
76.4311
76.5276
76.5988
76.6341
76.6212
76.5448
76.3875
76.1286
75.7446
75.206
74.4776
73.5194
72.2856
70.7208
68.7633
66.3551
63.4447
59.9906
55.9975
51.485
46.4665
41.533
75.1628
75.2159
75.2865
75.3624
75.4428
75.5261
75.6077
75.6811
75.7389
75.7736
75.7763
75.7368
75.6427
75.4789
75.2285
74.8722
74.3878
73.7475
72.9192
71.8686
70.5576
68.9404
66.9726
64.6181
61.8472
58.6428
55.0196
51.0192
46.6805
42.3142
74.7095
74.7573
74.8137
74.8668
74.9174
74.9647
75.0039
75.0288
75.032
75.006
74.9421
74.8303
74.6583
74.4117
74.0743
73.6283
73.0535
72.3241
71.4117
70.2887
68.9239
67.2814
65.3322
63.0558
60.4369
57.4727
54.1828
50.6072
46.7844
42.9113
74.243
74.2854
74.3272
74.3573
74.3783
74.3897
74.3871
74.3641
74.3138
74.2287
74.1005
73.9194
73.6736
73.3497
72.9321
72.4048
71.7501
70.9445
69.9642
68.7876
67.3896
65.7445
63.8351
61.6508
59.1857
56.4454
53.4512
50.2395
46.8508
43.426
73.7651
73.8018
73.829
73.8362
73.8277
73.8038
73.7599
73.6903
73.588
73.4457
73.2561
73.0094
72.6945
72.2993
71.8088
71.209
70.4851
69.6166
68.5835
67.3697
65.9567
64.3271
62.4715
60.3858
58.0708
55.5367
52.8054
49.9099
46.888
43.8438
73.2777
73.3086
73.3212
73.3057
73.2682
73.2096
73.1256
73.0106
72.8582
72.6615
72.4135
72.1052
71.7267
71.2663
70.7105
70.0475
69.2651
68.3459
67.274
66.0377
64.6248
63.0239
61.2305
59.2453
57.0736
54.728
52.2293
49.6066
46.8931
44.1681
72.7831
72.8081
72.8061
72.7684
72.7024
72.6101
72.4872
72.3285
72.1284
71.8803
71.5774
71.2121
70.7751
70.2559
69.6429
68.926
68.095
67.1367
66.0388
64.7929
63.3915
61.8279
60.1012
58.2155
56.1787
54.0037
51.7101
49.3229
46.8703
44.4145
72.2838
72.3027
72.2864
72.2268
72.1333
72.0082
71.848
71.6479
71.4026
71.1061
70.7522
70.3347
69.8448
69.2734
68.6112
67.8492
66.9794
65.9924
64.8792
63.634
62.2525
60.7319
59.0739
57.2844
55.3727
53.3515
51.2385
49.055
46.8246
44.5965
71.7823
71.7951
71.7646
71.6839
71.5638
71.4073
71.2116
70.9724
70.6846
70.3432
69.9427
69.4775
68.9405
68.3236
67.6194
66.8207
65.9214
64.915
63.7952
62.5584
61.2029
59.7287
58.1393
56.4414
54.6447
52.7615
50.8073
48.8003
46.7599
44.7253
71.2814
71.2883
71.244
71.1425
70.997
70.8108
70.5817
70.3058
69.9784
69.5956
69.1528
68.645
68.0664
67.4106
66.6715
65.8438
64.9231
63.9049
62.7854
61.563
60.2377
58.8116
57.289
55.6772
53.9856
52.2258
50.4112
48.5573
46.68
44.8107
70.7843
70.7852
70.7275
70.606
70.4362
70.2221
69.9616
69.6518
69.288
68.8674
68.3866
67.8413
67.2267
66.538
65.7706
64.9207
63.9853
62.9617
61.8481
60.6445
59.3521
57.9741
56.5156
54.9838
53.3878
51.7381
50.0463
48.3253
46.5884
44.861
70.2944
70.2891
70.2183
70.0775
69.8851
69.6449
69.3552
69.0139
68.6172
68.1627
67.6482
67.0701
66.4249
65.709
64.9191
64.0528
63.1084
62.0847
60.9813
59.7994
58.5411
57.2102
55.8123
54.3545
52.845
51.2932
49.7093
48.104
46.4884
44.883
69.8152
69.8031
69.7192
69.5607
69.3472
69.0831
68.7664
68.3962
67.9699
67.4854
66.9413
66.335
65.664
64.9259
64.1187
63.2411
62.2925
61.2727
60.1827
59.0243
57.8003
56.5148
55.1737
53.7835
52.3519
50.8871
49.3979
47.8934
46.3828
44.8828
69.3505
69.3308
69.2339
69.0592
68.8265
68.5403
68.1991
67.8029
67.35
66.839
66.2692
65.639
64.9467
64.191
63.371
62.4863
61.5371
60.5245
59.4499
58.3158
57.1254
55.8832
54.5947
53.2661
51.9043
50.5166
49.1106
47.6939
46.2743
44.8655
68.9035
68.8757
68.7664
68.5773
68.3268
68.0202
67.6571
67.2376
66.7611
66.2271
65.6353
64.985
64.2754
63.5061
62.6771
61.7887
60.842
59.8386
58.7807
57.671
56.5131
55.3114
54.0712
52.7984
51.499
50.1794
48.8462
47.5061
46.1654
44.8354
68.4774
68.442
68.3213
68.119
67.8521
67.5269
67.1441
66.704
66.2069
65.6531
65.0427
64.3758
63.6524
62.873
62.038
61.1487
60.2066
59.2139
58.1731
57.0874
55.9602
54.7961
53.5999
52.3771
51.1331
49.8735
48.6041
47.3305
46.0582
44.7964
68.0763
68.034
67.9027
67.6879
67.406
67.0643
66.664
66.206
65.6911
65.1203
64.4944
63.814
63.0799
62.2931
61.4548
60.5666
59.6306
58.6493
57.6257
56.5628
55.4644
54.3346
53.1782
52
50.8049
49.5979
48.3841
47.1682
45.955
44.7521
67.7043
67.6558
67.5147
67.2882
66.9928
66.6364
66.2208
65.7472
65.2171
64.632
63.9933
63.3021
62.5599
61.768
60.9282
60.0427
59.1137
58.1441
57.1369
56.0955
55.0234
53.9247
52.8038
51.665
50.5128
49.3517
48.186
47.02
45.8576
44.7053
67.3663
67.3118
67.1615
66.9241
66.6166
66.2473
65.8183
65.3314
64.7885
64.1917
63.5425
62.843
62.0947
61.2996
60.4599
59.5779
58.6564
57.6982
56.7066
55.6849
54.6366
53.5655
52.4758
51.3716
50.2567
49.1351
48.0109
46.8875
45.7687
44.6595
67.067
67.0067
66.8475
66.5998
66.2815
65.901
65.4606
64.9624
64.4088
63.8021
63.1447
62.4386
61.6859
60.889
60.0503
59.1724
58.2582
57.3108
56.3334
55.3294
54.3021
53.2552
52.1926
51.118
50.035
48.9472
47.858
46.7707
45.6885
44.6156
66.8117
66.7454
66.5769
66.3196
65.9919
65.6019
65.1521
64.6447
64.0825
63.4682
62.8043
62.0934
61.3378
60.5401
59.703
58.8293
57.9221
56.9845
56.0197
55.031
54.0218
52.9956
51.956
50.9064
49.8502
48.7906
47.7308
46.6736
45.6219
44.5794
66.6068
66.533
66.354
66.0871
65.751
65.3529
64.895
64.3799
63.8107
63.1903
62.5216
61.8071
61.0496
60.2519
59.4167
58.547
57.6461
56.7169
55.7628
54.787
53.7928
52.7836
51.7628
50.7336
49.699
48.6621
47.6257
46.5926
45.5651
44.5463
66.4601
66.3742
66.1833
65.9091
65.5673
65.1632
64.6992
64.1782
63.6037
62.9788
62.3065
61.5895
60.8308
60.0332
59.1998
58.3336
57.4377
56.5154
55.5698
54.6043
53.622
52.6262
51.6202
50.6069
49.5892
48.5701
47.5521
46.5378
45.5296
44.53
66.3841
66.2672
66.058
65.7781
65.4333
65.0255
64.5575
64.033
63.4555
62.8281
62.1539
61.4358
60.6768
59.8798
59.048
58.1845
57.2924
56.375
55.4355
54.4771
53.5029
52.5162
51.5201
50.5174
49.511
48.5035
47.4976
46.4955
45.4995
44.5117
66.4086
66.2387
66.0067
65.7206
65.3724
64.9608
64.4893
63.962
63.3823
62.7533
62.0781
61.3595
60.6005
59.8043
58.974
58.1126
57.2234
56.3094
55.3741
54.4204
53.4516
52.4708
51.481
50.485
49.4856
48.4853
47.4867
46.492
45.5033
44.5223
-74.9909
-46.6299
-18.6008
29.9049
26.3019
22.4285
33.4982
24.6687
19.0503
30.8081
24.9358
21.2149
33.9958
29.6991
26.3683
36.4659
32.865
29.8923
37.9786
34.9428
32.4213
39.1996
36.6263
34.4768
40.2119
37.9877
36.1221
41.0197
39.0685
37.4285
41.6613
39.9317
38.4752
42.1703
40.6232
39.3175
42.5712
41.176
39.9961
42.8843
41.6169
40.5428
43.1258
41.9668
40.9827
43.3093
42.2427
41.3353
43.4456
42.4582
41.6167
43.5437
42.6245
41.8398
43.6111
42.7508
42.0151
43.6543
42.8448
42.1515
43.6786
42.9131
42.2563
43.689
42.9614
42.3362
43.6889
42.9939
42.3959
43.6834
43.0162
42.4411
43.673
43.0293
42.4738
43.6651
43.0408
42.5012
43.6539
43.0452
42.5188
43.6557
43.0588
42.5418
43.6485
43.0601
42.5503
43.6717
43.0921
42.5865
4.81832
0.64178
-1.44598
-1.88456
-2.19638
-2.33545
-2.39919
-2.44657
-2.5136
-2.61679
-2.7487
-2.8774
-2.95739
-2.95678
-2.88983
-2.80305
-2.71521
-2.6053
-2.4506
-2.24375
-1.99209
-1.7135
-1.43093
-1.17017
-0.960712
-0.832119
-0.799296
-0.824692
-0.745456
-0.330749
13.734
2.34863
-1.37265
-1.81375
-1.90836
-2.05497
-2.2022
-2.34041
-2.49432
-2.67903
-2.88198
-3.06399
-3.17116
-3.16829
-3.0866
-2.99436
-2.91091
-2.80006
-2.63027
-2.39337
-2.09954
-1.77108
-1.43487
-1.12118
-0.868526
-0.722113
-0.715499
-0.823039
-0.860702
-0.417905
12.8011
5.40775
1.92908
0.603337
-0.253196
-0.998745
-1.57649
-1.9958
-2.32302
-2.60976
-2.87248
-3.09634
-3.24609
-3.29604
-3.26102
-3.18013
-3.07882
-2.94559
-2.75293
-2.48711
-2.15521
-1.77899
-1.38735
-1.01802
-0.723756
-0.568068
-0.602927
-0.810223
-0.92161
-0.404743
16.7405
11.3848
7.43937
4.7971
2.89931
1.4389
0.323309
-0.520431
-1.17791
-1.7149
-2.16329
-2.52507
-2.78582
-2.93631
-2.98904
-2.97234
-2.90858
-2.79427
-2.61022
-2.34731
-2.01601
-1.64141
-1.25761
-0.907024
-0.643161
-0.528445
-0.616024
-0.823782
-0.788507
-0.224652
22.1486
17.3615
13.007
9.51743
6.86968
4.8264
3.21438
1.93057
0.897069
0.0528346
-0.640537
-1.19918
-1.62633
-1.92589
-2.11215
-2.20716
-2.22764
-2.17524
-2.0436
-1.83367
-1.56056
-1.25125
-0.940751
-0.67098
-0.48978
-0.440836
-0.528839
-0.606531
-0.459251
-0.048369
26.2474
22.0708
17.8177
14.0743
11.0537
8.62326
6.62745
4.97411
3.60299
2.46375
1.51757
0.740292
0.117956
-0.361035
-0.711656
-0.951723
-1.09607
-1.1525
-1.12519
-1.02249
-0.86163
-0.668506
-0.475085
-0.31663
-0.226989
-0.226345
-0.273777
-0.280428
-0.170887
0.0418199
29.3769
25.7972
21.8795
18.2009
15.0656
12.4306
10.188
8.27056
6.63653
5.24806
4.07159
3.08221
2.26205
1.59607
1.06898
0.664843
0.369052
0.169983
0.057498
0.019148
0.0374075
0.0892429
0.147913
0.186655
0.184931
0.13983
0.0827853
0.050186
0.0645938
0.103439
31.8797
28.768
25.2246
21.7504
18.6617
15.9697
13.6078
11.533
9.71999
8.14387
6.77947
5.6056
4.60491
3.76196
3.06197
2.49022
2.03257
1.67604
1.4081
1.21458
1.07846
0.979843
0.897408
0.811649
0.709879
0.593219
0.47561
0.36608
0.267008
0.155033
33.8601
31.115
27.9266
24.711
21.7606
19.1122
16.7277
14.583
12.6663
10.9639
9.45999
8.13869
6.98538
5.98624
5.12815
4.39801
3.78262
3.26906
2.84443
2.49474
2.2043
1.95606
1.73287
1.51992
1.30781
1.09575
0.886102
0.675198
0.456561
0.210615
35.4309
32.9832
30.1114
27.1595
24.3865
21.8377
19.4925
17.3396
15.3771
13.6004
12.0014
10.57
9.29488
8.1649
7.16937
6.29721
5.5367
4.87584
4.30244
3.80358
3.36543
2.97349
2.61348
2.27309
1.94373
1.62166
1.30326
0.97991
0.641654
0.273398
36.6917
34.4896
31.8913
29.1851
26.5974
24.1739
21.9033
19.7824
17.8155
16.0046
14.3473
12.8388
11.4709
10.2355
9.12486
8.12994
7.24079
6.44695
5.73748
5.10089
4.52512
3.99783
3.5069
3.04144
2.59281
2.15487
1.72129
1.28223
0.826898
0.343451
37.7108
35.7144
33.3505
30.8648
28.4557
26.1659
23.9884
21.9242
19.981
18.1647
16.4779
14.9191
13.4835
12.1664
10.9624
9.86418
8.86387
7.9528
7.12159
6.36027
5.65842
5.00543
4.3908
3.80472
3.23853
2.68471
2.13571
1.58186
1.01271
0.418343
38.5375
36.7155
34.5531
32.2627
30.0194
27.8618
25.7848
23.791
21.8896
20.0888
18.3939
16.8062
15.3244
13.9463
12.6682
11.4849
10.3902
9.37749
8.43886
7.5659
6.74969
5.98111
5.25098
4.55034
3.87075
3.20422
2.54278
1.87725
1.19781
0.495539
39.2097
37.5366
35.5484
33.4302
31.3381
29.3062
27.3302
25.413
23.5643
21.7932
20.1061
18.5067
16.9962
15.5742
14.2387
12.9865
11.813
10.7131
9.68077
8.70877
7.78961
6.91555
6.07855
5.27044
4.48316
3.70877
2.93936
2.16625
1.38028
0.572934
39.7565
38.2115
36.3741
34.4076
32.4517
30.537
28.6589
26.8199
25.0295
23.2969
21.6291
20.0311
18.5058
17.0541
15.6757
14.3686
13.1302
11.9567
10.8434
9.78423
8.77299
7.80327
6.86809
5.96004
5.07157
4.1951
3.32294
2.44686
1.55835
0.649056
40.2009
38.7666
37.0601
35.2269
33.3931
31.5859
29.8004
28.0382
26.3083
24.6195
22.9788
21.3919
19.8626
18.3931
16.9839
15.6343
14.3429
13.1077
11.9252
10.7899
9.69683
8.64096
7.6162
6.61584
5.633
4.66062
3.69128
2.71722
1.73053
0.722897
40.5612
39.2227
37.6303
35.9142
34.1892
32.4798
30.7804
29.092
27.4224
25.7798
24.1713
22.6023
21.0774
19.5991
18.1691
16.7875
15.4536
14.1675
12.9264
11.7249
10.5592
9.42612
8.32024
7.2353
6.16512
5.1032
4.04256
2.97593
1.89576
0.793835
40.8524
39.597
38.1039
36.4908
34.8626
33.2413
31.6212
30.0021
28.391
26.7953
25.2214
23.675
22.1602
20.6804
19.238
17.8331
16.4658
15.1378
13.8473
12.5887
11.3596
10.158
8.97892
7.81687
6.66631
5.52135
4.37547
3.22181
2.05316
0.861515
41.0867
39.9034
38.4969
36.9741
35.4316
33.8894
32.3414
30.7868
29.2312
27.6814
26.1432
24.622
23.1216
21.6458
20.1972
18.7763
17.3838
16.0218
14.6891
13.3819
12.0981
10.8359
9.59118
8.35922
7.13516
5.91364
4.68864
3.45367
2.20188
0.925532
41.2741
40.1534
38.8224
37.3787
35.9119
34.4403
32.9575
31.4619
29.9582
28.4523
26.9497
25.4548
23.9717
22.5037
21.0537
19.6226
18.2115
16.8223
15.4545
14.1058
12.7747
11.4593
10.1562
8.86148
7.57077
6.27926
4.98134
3.67093
2.34154
0.985751
41.4231
40.3566
39.0912
37.7168
36.3166
34.9076
33.4831
32.041
30.5851
29.1206
27.6522
26.1839
24.7194
23.262
21.8143
20.3773
18.9526
17.5422
16.1459
14.7622
13.3904
12.0287
10.674
9.32298
7.97201
6.61685
5.25223
3.87235
2.47118
1.04163
41.5409
40.5214
39.313
37.9988
36.6569
35.3031
33.9305
32.5365
31.1241
29.6978
28.2616
26.8192
25.3737
23.9283
22.4855
21.0462
19.6124
18.186
16.7666
15.3533
13.9463
12.5444
11.1445
9.74366
8.33891
6.92645
5.50133
4.05797
2.59091
1.09334
41.6334
40.6542
39.4949
38.2328
36.9417
35.6361
34.3093
32.958
31.5846
30.1931
28.7869
27.369
25.9424
24.5096
23.0728
21.6339
20.1947
18.7557
17.317
15.8792
14.4426
13.0058
11.5666
10.1221
8.66985
7.2062
5.72658
4.22586
2.69913
1.13982
41.7064
40.7616
39.6444
38.4272
37.1797
35.916
34.6289
33.315
31.9762
30.6158
29.2367
27.8417
26.433
25.0127
23.5828
22.1459
20.7035
19.2551
17.8013
16.3437
14.8822
13.4156
11.9423
10.4601
8.96622
7.45737
5.9293
4.37753
2.79739
1.18237
41.7627
40.8469
39.7653
38.586
37.3757
36.1475
34.8946
33.6129
32.304
30.9707
29.6155
28.2408
26.8483
25.44
24.0176
22.5838
21.1395
19.6844
18.2193
16.7455
15.263
13.7711
12.2686
10.7537
9.2239
7.67579
6.10543
4.50895
2.88203
1.21848
41.8092
40.9174
39.8653
38.7177
37.5383
36.3399
35.1156
33.8611
32.5776
31.2675
29.933
28.5759
27.1979
25.8005
24.3853
22.9548
21.5099
20.0498
18.5757
17.089
15.5897
14.077
12.55
11.0077
9.44767
7.86637
6.25977
4.62476
2.95736
1.25125
41.843
40.9705
39.942
38.8197
37.6652
36.4908
35.2896
34.0572
32.7943
31.5032
30.1858
28.8434
27.4776
26.0893
24.6801
23.2526
21.8077
20.344
18.8627
17.3659
15.8533
14.3239
12.777
11.212
9.62722
8.01875
6.3825
4.71584
3.01536
1.27529
41.8767
41.0189
40.0086
38.9057
37.7703
36.6143
35.4308
34.2154
32.9685
31.692
30.3878
29.0568
27.7004
26.3195
24.9156
23.4907
22.0455
20.5793
19.0932
17.5886
16.0655
14.5232
12.9606
11.3775
9.77294
8.14298
6.48334
4.79117
3.06369
1.29535
41.8943
41.0457
40.0475
38.958
37.8356
36.692
35.5206
34.3166
33.0805
31.814
30.5187
29.1955
27.8456
26.4699
25.0698
23.6467
22.2011
20.7334
19.2445
17.7348
16.2046
14.6536
13.0804
11.4849
9.86771
8.2248
6.54922
4.83854
3.09156
1.3031
41.9298
41.08
40.0877
39.0062
37.8912
36.7543
35.5891
34.3911
33.1605
31.899
30.6081
29.2886
27.9416
26.5679
25.169
23.7458
22.2991
20.8297
19.3383
17.825
16.2901
14.7334
13.1528
11.5476
9.92174
8.27149
6.58592
4.86293
3.10188
1.29254
)
;

boundaryField
{
    inlet
    {
        type            zeroGradient;
    }
    outlet
    {
        type            fixedValue;
        value           uniform 0;
    }
    flap
    {
        type            zeroGradient;
    }
    upperWall
    {
        type            zeroGradient;
    }
    lowerWall
    {
        type            zeroGradient;
    }
    frontAndBack
    {
        type            empty;
    }
}


// ************************************************************************* //
