/*--------------------------------*- C++ -*----------------------------------*\
| =========                 |                                                 |
| \\      /  F ield         | OpenFOAM: The Open Source CFD Toolbox           |
|  \\    /   O peration     | Version:  dev                                   |
|   \\  /    A nd           | Web:      www.OpenFOAM.org                      |
|    \\/     M anipulation  |                                                 |
\*---------------------------------------------------------------------------*/
FoamFile
{
    version     2.0;
    format      ascii;
    class       pointVectorField;
    location    "4.62";
    object      pointDisplacement;
}
// * * * * * * * * * * * * * * * * * * * * * * * * * * * * * * * * * * * * * //

dimensions      [0 1 0 0 0 0 0];

internalField   nonuniform List<vector> 
1028
(
(0.161558 0 -0.0107634)
(0.167337 0 -0.011528)
(0.163996 0 -0.0114142)
(0.169444 0 -0.0121889)
(0.174827 0 -0.0130218)
(0.180045 0 -0.0139135)
(0.165737 0 -0.011965)
(0.170832 0 -0.0127365)
(0.17578 0 -0.0135538)
(0.18049 0 -0.0144139)
(0.184855 0 -0.0153118)
(0.188768 0 -0.0162418)
(0.166876 0 -0.0124198)
(0.171615 0 -0.0131772)
(0.176145 0 -0.0139675)
(0.180388 0 -0.0147863)
(0.184265 0 -0.0156285)
(0.187699 0 -0.016488)
(0.19062 0 -0.0173582)
(0.192977 0 -0.0182312)
(0.167496 0 -0.0127819)
(0.171887 0 -0.0135166)
(0.176027 0 -0.0142726)
(0.179856 0 -0.0150459)
(0.183316 0 -0.015831)
(0.186352 0 -0.0166218)
(0.188918 0 -0.017411)
(0.190983 0 -0.0181901)
(0.192529 0 -0.0189482)
(0.19347 0 -0.0195872)
(0.167663 0 -0.013055)
(0.171728 0 -0.0137613)
(0.175515 0 -0.0144795)
(0.178983 0 -0.0152058)
(0.182088 0 -0.0159348)
(0.184792 0 -0.0166602)
(0.187068 0 -0.0173751)
(0.188896 0 -0.0180715)
(0.190271 0 -0.0187399)
(0.191118 0 -0.0192969)
(0.167441 0 -0.0132434)
(0.171206 0 -0.0139179)
(0.174679 0 -0.0145969)
(0.177831 0 -0.0152765)
(0.180634 0 -0.0159514)
(0.183061 0 -0.016616)
(0.185095 0 -0.0172637)
(0.186729 0 -0.0178877)
(0.187963 0 -0.0184801)
(0.188731 0 -0.0189694)
(0.166879 0 -0.0133506)
(0.170374 0 -0.0139919)
(0.17357 0 -0.0146316)
(0.17645 0 -0.0152658)
(0.178994 0 -0.0158897)
(0.181187 0 -0.0164982)
(0.18302 0 -0.0170856)
(0.184491 0 -0.0176461)
(0.185605 0 -0.0181737)
(0.186304 0 -0.0186064)
(0.166027 0 -0.0133805)
(0.169279 0 -0.0139882)
(0.172233 0 -0.0145893)
(0.174876 0 -0.0151801)
(0.177198 0 -0.0157562)
(0.179191 0 -0.0163133)
(0.180853 0 -0.0168467)
(0.182186 0 -0.0173516)
(0.183197 0 -0.0178233)
(0.183835 0 -0.0182079)
(0.164928 0 -0.0133368)
(0.167962 0 -0.0139108)
(0.170701 0 -0.0144743)
(0.173138 0 -0.0150237)
(0.175269 0 -0.0155555)
(0.177091 0 -0.0160657)
(0.178605 0 -0.0165506)
(0.179819 0 -0.0170064)
(0.18074 0 -0.0174296)
(0.181322 0 -0.0177728)
(0.163615 0 -0.0132217)
(0.166455 0 -0.0137624)
(0.169004 0 -0.0142895)
(0.171261 0 -0.0147999)
(0.173225 0 -0.0152904)
(0.174898 0 -0.0157578)
(0.176286 0 -0.0161992)
(0.177395 0 -0.0166115)
(0.178236 0 -0.0169921)
(0.178768 0 -0.0172993)
(0.159166 0 -0.0125153)
(0.162119 0 -0.0130364)
(0.164785 0 -0.0135445)
(0.167167 0 -0.0140367)
(0.169265 0 -0.0145102)
(0.171084 0 -0.0149625)
(0.172628 0 -0.0153908)
(0.173904 0 -0.0157929)
(0.174922 0 -0.0161664)
(0.175691 0 -0.0165094)
(0.176175 0 -0.0167851)
(0.157671 0 -0.0122902)
(0.160467 0 -0.0127816)
(0.162979 0 -0.0132579)
(0.165212 0 -0.0137166)
(0.16717 0 -0.0141554)
(0.168861 0 -0.0145721)
(0.170292 0 -0.0149646)
(0.17147 0 -0.015331)
(0.172406 0 -0.0156697)
(0.173111 0 -0.0159791)
(0.173552 0 -0.0162269)
(0.156031 0 -0.0119948)
(0.158686 0 -0.0124568)
(0.16106 0 -0.0129022)
(0.163161 0 -0.0133288)
(0.164996 0 -0.0137348)
(0.166574 0 -0.0141183)
(0.167904 0 -0.0144778)
(0.168996 0 -0.0148117)
(0.169859 0 -0.0151188)
(0.170505 0 -0.0153981)
(0.170906 0 -0.0156209)
(0.154274 0 -0.0116282)
(0.156801 0 -0.012061)
(0.159052 0 -0.0124762)
(0.161036 0 -0.0128721)
(0.162762 0 -0.013247)
(0.164241 0 -0.0135995)
(0.165482 0 -0.0139282)
(0.166496 0 -0.0142322)
(0.167294 0 -0.0145105)
(0.167886 0 -0.0147626)
(0.168249 0 -0.0149627)
(0.152426 0 -0.0111885)
(0.15484 0 -0.0115923)
(0.156982 0 -0.0119781)
(0.158861 0 -0.0123442)
(0.160491 0 -0.0126894)
(0.161881 0 -0.0130126)
(0.163043 0 -0.0133127)
(0.163987 0 -0.0135889)
(0.164725 0 -0.0138408)
(0.165269 0 -0.0140678)
(0.165596 0 -0.0142473)
(0.150518 0 -0.010673)
(0.152831 0 -0.0110479)
(0.154874 0 -0.0114046)
(0.156661 0 -0.0117419)
(0.158205 0 -0.0120586)
(0.159516 0 -0.0123538)
(0.160607 0 -0.0126269)
(0.161489 0 -0.0128773)
(0.162174 0 -0.0131045)
(0.162672 0 -0.0133085)
(0.162967 0 -0.013469)
(0.148581 0 -0.0100782)
(0.150802 0 -0.010424)
(0.152759 0 -0.0107519)
(0.154464 0 -0.0110608)
(0.15593 0 -0.0113498)
(0.157172 0 -0.0116182)
(0.1582 0 -0.0118656)
(0.159026 0 -0.0120915)
(0.159663 0 -0.0122957)
(0.16012 0 -0.0124782)
(0.160384 0 -0.0126213)
(0.146646 0 -0.0093995)
(0.148787 0 -0.00971572)
(0.150666 0 -0.0100147)
(0.152298 0 -0.0102954)
(0.153698 0 -0.0105572)
(0.154877 0 -0.0107996)
(0.155849 0 -0.0110222)
(0.156626 0 -0.0112247)
(0.157219 0 -0.0114071)
(0.157639 0 -0.0115695)
(0.157876 0 -0.0116963)
(0.144751 0 -0.00863121)
(0.14682 0 -0.0089171)
(0.148631 0 -0.00918668)
(0.1502 0 -0.00943909)
(0.151539 0 -0.00967382)
(0.152664 0 -0.00989047)
(0.153587 0 -0.0100888)
(0.154319 0 -0.0102686)
(0.154874 0 -0.01043)
(0.155261 0 -0.0105731)
(0.155473 0 -0.0106845)
(0.142934 0 -0.00776643)
(0.144941 0 -0.00802075)
(0.146693 0 -0.00826002)
(0.148205 0 -0.00848351)
(0.149493 0 -0.0086908)
(0.15057 0 -0.00888161)
(0.15145 0 -0.00905578)
(0.152144 0 -0.00921324)
(0.152664 0 -0.0093541)
(0.153021 0 -0.00947851)
(0.153211 0 -0.00957498)
(0.14124 0 -0.00679681)
(0.143193 0 -0.00701778)
(0.144894 0 -0.0072253)
(0.146358 0 -0.00741872)
(0.147602 0 -0.00759773)
(0.148638 0 -0.00776212)
(0.14948 0 -0.00791178)
(0.15014 0 -0.00804672)
(0.150631 0 -0.00816705)
(0.150962 0 -0.00827295)
(0.151132 0 -0.00835478)
(0.139716 0 -0.00571235)
(0.141624 0 -0.00589754)
(0.143283 0 -0.00607119)
(0.144707 0 -0.00623278)
(0.145913 0 -0.00638206)
(0.146915 0 -0.00651886)
(0.147726 0 -0.00664313)
(0.148358 0 -0.0067549)
(0.148824 0 -0.00685427)
(0.149133 0 -0.00694144)
(0.149286 0 -0.00700857)
(0.138417 0 -0.00450114)
(0.140289 0 -0.00464729)
(0.141914 0 -0.00478418)
(0.143306 0 -0.00491141)
(0.144482 0 -0.00502876)
(0.145456 0 -0.00513614)
(0.146242 0 -0.00523349)
(0.146852 0 -0.00532085)
(0.147297 0 -0.00539832)
(0.147588 0 -0.00546607)
(0.147727 0 -0.00551808)
(0.137403 0 -0.00314908)
(0.139248 0 -0.00325191)
(0.140848 0 -0.00334816)
(0.142217 0 -0.00343753)
(0.143371 0 -0.00351988)
(0.144324 0 -0.00359513)
(0.145091 0 -0.00366325)
(0.145684 0 -0.00372427)
(0.146113 0 -0.00377826)
(0.146391 0 -0.00382533)
(0.146519 0 -0.00386139)
(0.136742 0 -0.00163963)
(0.138571 0 -0.00169356)
(0.140154 0 -0.00174404)
(0.141508 0 -0.00179088)
(0.142648 0 -0.00183401)
(0.143589 0 -0.00187339)
(0.144344 0 -0.001909)
(0.144926 0 -0.00194086)
(0.145346 0 -0.001969)
(0.145615 0 -0.00199348)
(0.145737 0 -0.00201221)
(0.136509 0 0)
(0.138331 0 0)
(0.13991 0 0)
(0.141259 0 0)
(0.142394 0 0)
(0.14333 0 0)
(0.144081 0 0)
(0.144659 0 0)
(0.145076 0 0)
(0.145342 0 0)
(0.145461 0 0)
(0.161558 0 -0.0107634)
(0.167337 0 -0.011528)
(0.163996 0 -0.0114142)
(0.169444 0 -0.0121889)
(0.174827 0 -0.0130218)
(0.180045 0 -0.0139135)
(0.165737 0 -0.011965)
(0.170832 0 -0.0127365)
(0.17578 0 -0.0135538)
(0.18049 0 -0.0144139)
(0.184855 0 -0.0153118)
(0.188768 0 -0.0162418)
(0.166876 0 -0.0124198)
(0.171615 0 -0.0131772)
(0.176145 0 -0.0139675)
(0.180388 0 -0.0147863)
(0.184265 0 -0.0156285)
(0.187699 0 -0.016488)
(0.19062 0 -0.0173582)
(0.192977 0 -0.0182312)
(0.167496 0 -0.0127819)
(0.171887 0 -0.0135166)
(0.176027 0 -0.0142726)
(0.179856 0 -0.0150459)
(0.183316 0 -0.015831)
(0.186352 0 -0.0166218)
(0.188918 0 -0.017411)
(0.190983 0 -0.0181901)
(0.192529 0 -0.0189482)
(0.19347 0 -0.0195872)
(0.167663 0 -0.013055)
(0.171728 0 -0.0137613)
(0.175515 0 -0.0144795)
(0.178983 0 -0.0152058)
(0.182088 0 -0.0159348)
(0.184792 0 -0.0166602)
(0.187068 0 -0.0173751)
(0.188896 0 -0.0180715)
(0.190271 0 -0.0187399)
(0.191118 0 -0.0192969)
(0.167441 0 -0.0132434)
(0.171206 0 -0.0139179)
(0.174679 0 -0.0145969)
(0.177831 0 -0.0152765)
(0.180634 0 -0.0159514)
(0.183061 0 -0.016616)
(0.185095 0 -0.0172637)
(0.186729 0 -0.0178877)
(0.187963 0 -0.0184801)
(0.188731 0 -0.0189694)
(0.166879 0 -0.0133506)
(0.170374 0 -0.0139919)
(0.17357 0 -0.0146316)
(0.17645 0 -0.0152658)
(0.178994 0 -0.0158897)
(0.181187 0 -0.0164982)
(0.18302 0 -0.0170856)
(0.184491 0 -0.0176461)
(0.185605 0 -0.0181737)
(0.186304 0 -0.0186064)
(0.166027 0 -0.0133805)
(0.169279 0 -0.0139882)
(0.172233 0 -0.0145893)
(0.174876 0 -0.0151801)
(0.177198 0 -0.0157562)
(0.179191 0 -0.0163133)
(0.180853 0 -0.0168467)
(0.182186 0 -0.0173516)
(0.183197 0 -0.0178233)
(0.183835 0 -0.0182079)
(0.164928 0 -0.0133368)
(0.167962 0 -0.0139108)
(0.170701 0 -0.0144743)
(0.173138 0 -0.0150237)
(0.175269 0 -0.0155555)
(0.177091 0 -0.0160657)
(0.178605 0 -0.0165506)
(0.179819 0 -0.0170064)
(0.18074 0 -0.0174296)
(0.181322 0 -0.0177728)
(0.163615 0 -0.0132217)
(0.166455 0 -0.0137624)
(0.169004 0 -0.0142895)
(0.171261 0 -0.0147999)
(0.173225 0 -0.0152904)
(0.174898 0 -0.0157578)
(0.176286 0 -0.0161992)
(0.177395 0 -0.0166115)
(0.178236 0 -0.0169921)
(0.178768 0 -0.0172993)
(0.159166 0 -0.0125153)
(0.162119 0 -0.0130364)
(0.164785 0 -0.0135445)
(0.167167 0 -0.0140367)
(0.169265 0 -0.0145102)
(0.171084 0 -0.0149625)
(0.172628 0 -0.0153908)
(0.173904 0 -0.0157929)
(0.174922 0 -0.0161664)
(0.175691 0 -0.0165094)
(0.176175 0 -0.0167851)
(0.157671 0 -0.0122902)
(0.160467 0 -0.0127816)
(0.162979 0 -0.0132579)
(0.165212 0 -0.0137166)
(0.16717 0 -0.0141554)
(0.168861 0 -0.0145721)
(0.170292 0 -0.0149646)
(0.17147 0 -0.015331)
(0.172406 0 -0.0156697)
(0.173111 0 -0.0159791)
(0.173552 0 -0.0162269)
(0.156031 0 -0.0119948)
(0.158686 0 -0.0124568)
(0.16106 0 -0.0129022)
(0.163161 0 -0.0133288)
(0.164996 0 -0.0137348)
(0.166574 0 -0.0141183)
(0.167904 0 -0.0144778)
(0.168996 0 -0.0148117)
(0.169859 0 -0.0151188)
(0.170505 0 -0.0153981)
(0.170906 0 -0.0156209)
(0.154274 0 -0.0116282)
(0.156801 0 -0.012061)
(0.159052 0 -0.0124762)
(0.161036 0 -0.0128721)
(0.162762 0 -0.013247)
(0.164241 0 -0.0135995)
(0.165482 0 -0.0139282)
(0.166496 0 -0.0142322)
(0.167294 0 -0.0145105)
(0.167886 0 -0.0147626)
(0.168249 0 -0.0149627)
(0.152426 0 -0.0111885)
(0.15484 0 -0.0115923)
(0.156982 0 -0.0119781)
(0.158861 0 -0.0123442)
(0.160491 0 -0.0126894)
(0.161881 0 -0.0130126)
(0.163043 0 -0.0133127)
(0.163987 0 -0.0135889)
(0.164725 0 -0.0138408)
(0.165269 0 -0.0140678)
(0.165596 0 -0.0142473)
(0.150518 0 -0.010673)
(0.152831 0 -0.0110479)
(0.154874 0 -0.0114046)
(0.156661 0 -0.0117419)
(0.158205 0 -0.0120586)
(0.159516 0 -0.0123538)
(0.160607 0 -0.0126269)
(0.161489 0 -0.0128773)
(0.162174 0 -0.0131045)
(0.162672 0 -0.0133085)
(0.162967 0 -0.013469)
(0.148581 0 -0.0100782)
(0.150802 0 -0.010424)
(0.152759 0 -0.0107519)
(0.154464 0 -0.0110608)
(0.15593 0 -0.0113498)
(0.157172 0 -0.0116182)
(0.1582 0 -0.0118656)
(0.159026 0 -0.0120915)
(0.159663 0 -0.0122957)
(0.16012 0 -0.0124782)
(0.160384 0 -0.0126213)
(0.146646 0 -0.0093995)
(0.148787 0 -0.00971572)
(0.150666 0 -0.0100147)
(0.152298 0 -0.0102954)
(0.153698 0 -0.0105572)
(0.154877 0 -0.0107996)
(0.155849 0 -0.0110222)
(0.156626 0 -0.0112247)
(0.157219 0 -0.0114071)
(0.157639 0 -0.0115695)
(0.157876 0 -0.0116963)
(0.144751 0 -0.00863121)
(0.14682 0 -0.0089171)
(0.148631 0 -0.00918668)
(0.1502 0 -0.00943909)
(0.151539 0 -0.00967382)
(0.152664 0 -0.00989047)
(0.153587 0 -0.0100888)
(0.154319 0 -0.0102686)
(0.154874 0 -0.01043)
(0.155261 0 -0.0105731)
(0.155473 0 -0.0106845)
(0.142934 0 -0.00776643)
(0.144941 0 -0.00802075)
(0.146693 0 -0.00826002)
(0.148205 0 -0.00848351)
(0.149493 0 -0.0086908)
(0.15057 0 -0.00888161)
(0.15145 0 -0.00905578)
(0.152144 0 -0.00921324)
(0.152664 0 -0.0093541)
(0.153021 0 -0.00947851)
(0.153211 0 -0.00957498)
(0.14124 0 -0.00679681)
(0.143193 0 -0.00701778)
(0.144894 0 -0.0072253)
(0.146358 0 -0.00741872)
(0.147602 0 -0.00759773)
(0.148638 0 -0.00776212)
(0.14948 0 -0.00791178)
(0.15014 0 -0.00804672)
(0.150631 0 -0.00816705)
(0.150962 0 -0.00827295)
(0.151132 0 -0.00835478)
(0.139716 0 -0.00571235)
(0.141624 0 -0.00589754)
(0.143283 0 -0.00607119)
(0.144707 0 -0.00623278)
(0.145913 0 -0.00638206)
(0.146915 0 -0.00651886)
(0.147726 0 -0.00664313)
(0.148358 0 -0.0067549)
(0.148824 0 -0.00685427)
(0.149133 0 -0.00694144)
(0.149286 0 -0.00700857)
(0.138417 0 -0.00450114)
(0.140289 0 -0.00464729)
(0.141914 0 -0.00478418)
(0.143306 0 -0.00491141)
(0.144482 0 -0.00502876)
(0.145456 0 -0.00513614)
(0.146242 0 -0.00523349)
(0.146852 0 -0.00532085)
(0.147297 0 -0.00539832)
(0.147588 0 -0.00546607)
(0.147727 0 -0.00551808)
(0.137403 0 -0.00314908)
(0.139248 0 -0.00325191)
(0.140848 0 -0.00334816)
(0.142217 0 -0.00343753)
(0.143371 0 -0.00351988)
(0.144324 0 -0.00359513)
(0.145091 0 -0.00366325)
(0.145684 0 -0.00372427)
(0.146113 0 -0.00377826)
(0.146391 0 -0.00382533)
(0.146519 0 -0.00386139)
(0.136742 0 -0.00163963)
(0.138571 0 -0.00169356)
(0.140154 0 -0.00174404)
(0.141508 0 -0.00179088)
(0.142648 0 -0.00183401)
(0.143589 0 -0.00187339)
(0.144344 0 -0.001909)
(0.144926 0 -0.00194086)
(0.145346 0 -0.001969)
(0.145615 0 -0.00199348)
(0.145737 0 -0.00201221)
(0.136509 0 0)
(0.138331 0 0)
(0.13991 0 0)
(0.141259 0 0)
(0.142394 0 0)
(0.14333 0 0)
(0.144081 0 0)
(0.144659 0 0)
(0.145076 0 0)
(0.145342 0 0)
(0.145461 0 0)
(0.193899 0 -0.0200184)
(0.191514 0 -0.0196698)
(0.191724 0 -0.0199558)
(0.191852 0 -0.0202968)
(0.189098 0 -0.0192951)
(0.189297 0 -0.0195442)
(0.189429 0 -0.0198408)
(0.186642 0 -0.0188931)
(0.186829 0 -0.0191118)
(0.18696 0 -0.0193718)
(0.184146 0 -0.0184617)
(0.18432 0 -0.018655)
(0.184445 0 -0.0188845)
(0.181607 0 -0.0179984)
(0.181767 0 -0.01817)
(0.181885 0 -0.0183736)
(0.179027 0 -0.0175005)
(0.179173 0 -0.0176532)
(0.179279 0 -0.0178342)
(0.17641 0 -0.016965)
(0.176542 0 -0.0171013)
(0.176636 0 -0.0172627)
(0.173764 0 -0.0163881)
(0.173882 0 -0.0165101)
(0.173963 0 -0.0166543)
(0.171096 0 -0.0157653)
(0.171199 0 -0.0158745)
(0.171267 0 -0.0160034)
(0.168417 0 -0.0150919)
(0.168507 0 -0.0151896)
(0.168559 0 -0.0153049)
(0.165744 0 -0.0143628)
(0.165819 0 -0.0144501)
(0.165859 0 -0.0145531)
(0.163095 0 -0.013572)
(0.163157 0 -0.0136498)
(0.163183 0 -0.0137414)
(0.160495 0 -0.0127127)
(0.160545 0 -0.0127817)
(0.160558 0 -0.0128629)
(0.15797 0 -0.011777)
(0.158008 0 -0.0118378)
(0.158009 0 -0.0119091)
(0.155552 0 -0.0107551)
(0.155579 0 -0.0108081)
(0.155568 0 -0.0108702)
(0.153276 0 -0.00963583)
(0.153294 0 -0.00968148)
(0.153272 0 -0.00973475)
(0.151185 0 -0.00840617)
(0.151194 0 -0.00844465)
(0.151163 0 -0.0084894)
(0.149328 0 -0.00705055)
(0.149329 0 -0.00708191)
(0.14929 0 -0.00711828)
(0.147761 0 -0.00555046)
(0.147756 0 -0.00557461)
(0.147709 0 -0.0056025)
(0.146547 0 -0.00388373)
(0.146537 0 -0.00390035)
(0.146485 0 -0.00391948)
(0.14576 0 -0.00202377)
(0.145747 0 -0.00203234)
(0.145691 0 -0.00204216)
(0.145483 0 0)
(0.145468 0 0)
(0.145412 0 0)
(0.193899 0 -0.0200184)
(0.191514 0 -0.0196698)
(0.191724 0 -0.0199558)
(0.191852 0 -0.0202968)
(0.189098 0 -0.0192951)
(0.189297 0 -0.0195442)
(0.189429 0 -0.0198408)
(0.186642 0 -0.0188931)
(0.186829 0 -0.0191118)
(0.18696 0 -0.0193718)
(0.184146 0 -0.0184617)
(0.18432 0 -0.018655)
(0.184445 0 -0.0188845)
(0.181607 0 -0.0179984)
(0.181767 0 -0.01817)
(0.181885 0 -0.0183736)
(0.179027 0 -0.0175005)
(0.179173 0 -0.0176532)
(0.179279 0 -0.0178342)
(0.17641 0 -0.016965)
(0.176542 0 -0.0171013)
(0.176636 0 -0.0172627)
(0.173764 0 -0.0163881)
(0.173882 0 -0.0165101)
(0.173963 0 -0.0166543)
(0.171096 0 -0.0157653)
(0.171199 0 -0.0158745)
(0.171267 0 -0.0160034)
(0.168417 0 -0.0150919)
(0.168507 0 -0.0151896)
(0.168559 0 -0.0153049)
(0.165744 0 -0.0143628)
(0.165819 0 -0.0144501)
(0.165859 0 -0.0145531)
(0.163095 0 -0.013572)
(0.163157 0 -0.0136498)
(0.163183 0 -0.0137414)
(0.160495 0 -0.0127127)
(0.160545 0 -0.0127817)
(0.160558 0 -0.0128629)
(0.15797 0 -0.011777)
(0.158008 0 -0.0118378)
(0.158009 0 -0.0119091)
(0.155552 0 -0.0107551)
(0.155579 0 -0.0108081)
(0.155568 0 -0.0108702)
(0.153276 0 -0.00963583)
(0.153294 0 -0.00968148)
(0.153272 0 -0.00973475)
(0.151185 0 -0.00840617)
(0.151194 0 -0.00844465)
(0.151163 0 -0.0084894)
(0.149328 0 -0.00705055)
(0.149329 0 -0.00708191)
(0.14929 0 -0.00711828)
(0.147761 0 -0.00555046)
(0.147756 0 -0.00557461)
(0.147709 0 -0.0056025)
(0.146547 0 -0.00388373)
(0.146537 0 -0.00390035)
(0.146485 0 -0.00391948)
(0.14576 0 -0.00202377)
(0.145747 0 -0.00203234)
(0.145691 0 -0.00204216)
(0.145483 0 0)
(0.145468 0 0)
(0.145412 0 0)
(0.191773 0 -0.0207454)
(0.189385 0 -0.0202312)
(0.18901 0 -0.0206264)
(0.188286 0 -0.0209533)
(0.187217 0 -0.0211997)
(0.186938 0 -0.0197141)
(0.18662 0 -0.0200618)
(0.185983 0 -0.0203522)
(0.185025 0 -0.0205747)
(0.183745 0 -0.0207228)
(0.182147 0 -0.0207921)
(0.184435 0 -0.0191862)
(0.184157 0 -0.019493)
(0.183586 0 -0.0197508)
(0.182715 0 -0.0199502)
(0.181541 0 -0.0200851)
(0.180059 0 -0.0201508)
(0.178268 0 -0.0201441)
(0.176166 0 -0.0200632)
(0.181879 0 -0.0186409)
(0.181627 0 -0.0189123)
(0.181105 0 -0.0191407)
(0.180304 0 -0.0193184)
(0.179214 0 -0.0194395)
(0.17783 0 -0.0194995)
(0.176145 0 -0.0194947)
(0.174153 0 -0.0194226)
(0.17185 0 -0.019282)
(0.179272 0 -0.0180718)
(0.179038 0 -0.0183125)
(0.178553 0 -0.0185148)
(0.177804 0 -0.0186722)
(0.176783 0 -0.0187797)
(0.175479 0 -0.0188326)
(0.173884 0 -0.0188274)
(0.171988 0 -0.018761)
(0.169783 0 -0.0186319)
(0.176624 0 -0.0174741)
(0.176399 0 -0.0176876)
(0.175939 0 -0.0178665)
(0.175231 0 -0.0180053)
(0.174264 0 -0.0180994)
(0.173025 0 -0.0181447)
(0.171504 0 -0.0181374)
(0.16969 0 -0.0180745)
(0.167571 0 -0.017954)
(0.173942 0 -0.0168425)
(0.17372 0 -0.0170318)
(0.173277 0 -0.0171896)
(0.172599 0 -0.0173113)
(0.171674 0 -0.0173928)
(0.170488 0 -0.0174301)
(0.169028 0 -0.0174197)
(0.167283 0 -0.0173587)
(0.165238 0 -0.0172447)
(0.171234 0 -0.0161712)
(0.171012 0 -0.0163389)
(0.170579 0 -0.0164778)
(0.169923 0 -0.0165839)
(0.16903 0 -0.0166535)
(0.167886 0 -0.0166831)
(0.166478 0 -0.0166692)
(0.16479 0 -0.0166089)
(0.16281 0 -0.0165001)
(0.168515 0 -0.0154544)
(0.168288 0 -0.0156028)
(0.167862 0 -0.0157247)
(0.167221 0 -0.0158166)
(0.166353 0 -0.0158753)
(0.165242 0 -0.0158975)
(0.163875 0 -0.01588)
(0.162236 0 -0.0158199)
(0.16031 0 -0.0157153)
(0.165801 0 -0.014686)
(0.165568 0 -0.014817)
(0.165143 0 -0.0149236)
(0.164512 0 -0.0150027)
(0.163662 0 -0.0150514)
(0.162578 0 -0.0150667)
(0.161244 0 -0.0150457)
(0.159645 0 -0.0149858)
(0.157766 0 -0.0148848)
(0.163113 0 -0.0138593)
(0.162871 0 -0.0139745)
(0.162444 0 -0.0140673)
(0.16182 0 -0.0141348)
(0.160982 0 -0.0141745)
(0.159918 0 -0.0141837)
(0.158612 0 -0.0141596)
(0.157046 0 -0.0140998)
(0.155206 0 -0.0140024)
(0.160473 0 -0.0129668)
(0.160222 0 -0.0130676)
(0.159791 0 -0.0131478)
(0.159169 0 -0.013205)
(0.15834 0 -0.0132366)
(0.157291 0 -0.0132403)
(0.156006 0 -0.0132137)
(0.154467 0 -0.0131545)
(0.152661 0 -0.0130609)
(0.157911 0 -0.0120001)
(0.157648 0 -0.0120876)
(0.157212 0 -0.0121563)
(0.156589 0 -0.012204)
(0.155766 0 -0.0122285)
(0.154728 0 -0.0122276)
(0.153459 0 -0.0121992)
(0.151943 0 -0.0121411)
(0.150164 0 -0.0120519)
(0.155456 0 -0.0109491)
(0.155182 0 -0.0110243)
(0.154739 0 -0.0110825)
(0.154115 0 -0.0111217)
(0.153295 0 -0.01114)
(0.152264 0 -0.0111354)
(0.151008 0 -0.011106)
(0.14951 0 -0.0110499)
(0.147753 0 -0.0109657)
(0.153147 0 -0.00980219)
(0.152862 0 -0.00986594)
(0.152412 0 -0.00991444)
(0.151784 0 -0.00994602)
(0.150965 0 -0.00995898)
(0.14994 0 -0.00995161)
(0.148693 0 -0.0099222)
(0.147208 0 -0.0098691)
(0.14547 0 -0.00979111)
(0.151026 0 -0.00854585)
(0.15073 0 -0.0085987)
(0.150273 0 -0.00863822)
(0.149641 0 -0.008663)
(0.148821 0 -0.00867155)
(0.147799 0 -0.00866241)
(0.14656 0 -0.00863413)
(0.145086 0 -0.00858526)
(0.143363 0 -0.00851481)
(0.149143 0 -0.00716396)
(0.148837 0 -0.00720633)
(0.148373 0 -0.00723746)
(0.147736 0 -0.00725616)
(0.146915 0 -0.00726121)
(0.145895 0 -0.0072514)
(0.14466 0 -0.00722551)
(0.143194 0 -0.00718235)
(0.141483 0 -0.00712112)
(0.147553 0 -0.00563743)
(0.147239 0 -0.00566952)
(0.146768 0 -0.00569268)
(0.146128 0 -0.00570596)
(0.145305 0 -0.00570842)
(0.144285 0 -0.0056991)
(0.143053 0 -0.00567705)
(0.141593 0 -0.00564134)
(0.139891 0 -0.00559137)
(0.146322 0 -0.00394337)
(0.146002 0 -0.00396514)
(0.145526 0 -0.00398058)
(0.144882 0 -0.00398902)
(0.144057 0 -0.0039898)
(0.143037 0 -0.00398224)
(0.141807 0 -0.0039657)
(0.140351 0 -0.00393952)
(0.138654 0 -0.00390329)
(0.145524 0 -0.00205442)
(0.145199 0 -0.00206552)
(0.14472 0 -0.00207328)
(0.144073 0 -0.00207735)
(0.143247 0 -0.00207738)
(0.142227 0 -0.00207301)
(0.140997 0 -0.00206391)
(0.139543 0 -0.00204975)
(0.13785 0 -0.0020303)
(0.145243 0 0)
(0.144916 0 0)
(0.144436 0 0)
(0.143788 0 0)
(0.142961 0 0)
(0.141941 0 0)
(0.140712 0 0)
(0.139258 0 0)
(0.137566 0 0)
(0.191773 0 -0.0207454)
(0.189385 0 -0.0202312)
(0.18901 0 -0.0206264)
(0.188286 0 -0.0209533)
(0.187217 0 -0.0211997)
(0.186938 0 -0.0197141)
(0.18662 0 -0.0200618)
(0.185983 0 -0.0203522)
(0.185025 0 -0.0205747)
(0.183745 0 -0.0207228)
(0.182147 0 -0.0207921)
(0.184435 0 -0.0191862)
(0.184157 0 -0.019493)
(0.183586 0 -0.0197508)
(0.182715 0 -0.0199502)
(0.181541 0 -0.0200851)
(0.180059 0 -0.0201508)
(0.178268 0 -0.0201441)
(0.176166 0 -0.0200632)
(0.181879 0 -0.0186409)
(0.181627 0 -0.0189123)
(0.181105 0 -0.0191407)
(0.180304 0 -0.0193184)
(0.179214 0 -0.0194395)
(0.17783 0 -0.0194995)
(0.176145 0 -0.0194947)
(0.174153 0 -0.0194226)
(0.17185 0 -0.019282)
(0.179272 0 -0.0180718)
(0.179038 0 -0.0183125)
(0.178553 0 -0.0185148)
(0.177804 0 -0.0186722)
(0.176783 0 -0.0187797)
(0.175479 0 -0.0188326)
(0.173884 0 -0.0188274)
(0.171988 0 -0.018761)
(0.169783 0 -0.0186319)
(0.176624 0 -0.0174741)
(0.176399 0 -0.0176876)
(0.175939 0 -0.0178665)
(0.175231 0 -0.0180053)
(0.174264 0 -0.0180994)
(0.173025 0 -0.0181447)
(0.171504 0 -0.0181374)
(0.16969 0 -0.0180745)
(0.167571 0 -0.017954)
(0.173942 0 -0.0168425)
(0.17372 0 -0.0170318)
(0.173277 0 -0.0171896)
(0.172599 0 -0.0173113)
(0.171674 0 -0.0173928)
(0.170488 0 -0.0174301)
(0.169028 0 -0.0174197)
(0.167283 0 -0.0173587)
(0.165238 0 -0.0172447)
(0.171234 0 -0.0161712)
(0.171012 0 -0.0163389)
(0.170579 0 -0.0164778)
(0.169923 0 -0.0165839)
(0.16903 0 -0.0166535)
(0.167886 0 -0.0166831)
(0.166478 0 -0.0166692)
(0.16479 0 -0.0166089)
(0.16281 0 -0.0165001)
(0.168515 0 -0.0154544)
(0.168288 0 -0.0156028)
(0.167862 0 -0.0157247)
(0.167221 0 -0.0158166)
(0.166353 0 -0.0158753)
(0.165242 0 -0.0158975)
(0.163875 0 -0.01588)
(0.162236 0 -0.0158199)
(0.16031 0 -0.0157153)
(0.165801 0 -0.014686)
(0.165568 0 -0.014817)
(0.165143 0 -0.0149236)
(0.164512 0 -0.0150027)
(0.163662 0 -0.0150514)
(0.162578 0 -0.0150667)
(0.161244 0 -0.0150457)
(0.159645 0 -0.0149858)
(0.157766 0 -0.0148848)
(0.163113 0 -0.0138593)
(0.162871 0 -0.0139745)
(0.162444 0 -0.0140673)
(0.16182 0 -0.0141348)
(0.160982 0 -0.0141745)
(0.159918 0 -0.0141837)
(0.158612 0 -0.0141596)
(0.157046 0 -0.0140998)
(0.155206 0 -0.0140024)
(0.160473 0 -0.0129668)
(0.160222 0 -0.0130676)
(0.159791 0 -0.0131478)
(0.159169 0 -0.013205)
(0.15834 0 -0.0132366)
(0.157291 0 -0.0132403)
(0.156006 0 -0.0132137)
(0.154467 0 -0.0131545)
(0.152661 0 -0.0130609)
(0.157911 0 -0.0120001)
(0.157648 0 -0.0120876)
(0.157212 0 -0.0121563)
(0.156589 0 -0.012204)
(0.155766 0 -0.0122285)
(0.154728 0 -0.0122276)
(0.153459 0 -0.0121992)
(0.151943 0 -0.0121411)
(0.150164 0 -0.0120519)
(0.155456 0 -0.0109491)
(0.155182 0 -0.0110243)
(0.154739 0 -0.0110825)
(0.154115 0 -0.0111217)
(0.153295 0 -0.01114)
(0.152264 0 -0.0111354)
(0.151008 0 -0.011106)
(0.14951 0 -0.0110499)
(0.147753 0 -0.0109657)
(0.153147 0 -0.00980219)
(0.152862 0 -0.00986594)
(0.152412 0 -0.00991444)
(0.151784 0 -0.00994602)
(0.150965 0 -0.00995898)
(0.14994 0 -0.00995161)
(0.148693 0 -0.0099222)
(0.147208 0 -0.0098691)
(0.14547 0 -0.00979111)
(0.151026 0 -0.00854585)
(0.15073 0 -0.0085987)
(0.150273 0 -0.00863822)
(0.149641 0 -0.008663)
(0.148821 0 -0.00867155)
(0.147799 0 -0.00866241)
(0.14656 0 -0.00863413)
(0.145086 0 -0.00858526)
(0.143363 0 -0.00851481)
(0.149143 0 -0.00716396)
(0.148837 0 -0.00720633)
(0.148373 0 -0.00723746)
(0.147736 0 -0.00725616)
(0.146915 0 -0.00726121)
(0.145895 0 -0.0072514)
(0.14466 0 -0.00722551)
(0.143194 0 -0.00718235)
(0.141483 0 -0.00712112)
(0.147553 0 -0.00563743)
(0.147239 0 -0.00566952)
(0.146768 0 -0.00569268)
(0.146128 0 -0.00570596)
(0.145305 0 -0.00570842)
(0.144285 0 -0.0056991)
(0.143053 0 -0.00567705)
(0.141593 0 -0.00564134)
(0.139891 0 -0.00559137)
(0.146322 0 -0.00394337)
(0.146002 0 -0.00396514)
(0.145526 0 -0.00398058)
(0.144882 0 -0.00398902)
(0.144057 0 -0.0039898)
(0.143037 0 -0.00398224)
(0.141807 0 -0.0039657)
(0.140351 0 -0.00393952)
(0.138654 0 -0.00390329)
(0.145524 0 -0.00205442)
(0.145199 0 -0.00206552)
(0.14472 0 -0.00207328)
(0.144073 0 -0.00207735)
(0.143247 0 -0.00207738)
(0.142227 0 -0.00207301)
(0.140997 0 -0.00206391)
(0.139543 0 -0.00204975)
(0.13785 0 -0.0020303)
(0.145243 0 0)
(0.144916 0 0)
(0.144436 0 0)
(0.143788 0 0)
(0.142961 0 0)
(0.141941 0 0)
(0.140712 0 0)
(0.139258 0 0)
(0.137566 0 0)
)
;

boundaryField
{
    inlet
    {
        type            fixedValue;
        value           nonuniform 0();
    }
    outlet
    {
        type            fixedValue;
        value           nonuniform 0();
    }
    flap
    {
        type            fixedValue;
        value           nonuniform 0();
    }
    upperWall
    {
        type            slip;
    }
    lowerWall
    {
        type            slip;
    }
    frontAndBack
    {
        type            empty;
    }
    procBoundary1to0
    {
        type            processor;
    }
    procBoundary1to2
    {
        type            processor;
    }
    procBoundary1to3
    {
        type            processor;
    }
    procBoundary1to4
    {
        type            processor;
    }
}


// ************************************************************************* //
