/*--------------------------------*- C++ -*----------------------------------*\
| =========                 |                                                 |
| \\      /  F ield         | OpenFOAM: The Open Source CFD Toolbox           |
|  \\    /   O peration     | Version:  dev                                   |
|   \\  /    A nd           | Web:      www.OpenFOAM.org                      |
|    \\/     M anipulation  |                                                 |
\*---------------------------------------------------------------------------*/
FoamFile
{
    version     2.0;
    format      ascii;
    class       surfaceVectorField;
    location    "2.96";
    object      Uf;
}
// * * * * * * * * * * * * * * * * * * * * * * * * * * * * * * * * * * * * * //

dimensions      [0 1 -1 0 0 0 0];

internalField   nonuniform List<vector> 
881
(
(9.91074 -8.44812e-21 0.0239385)
(9.97409 1.50871e-20 0.0391343)
(9.80783 4.68549e-21 0.0311736)
(9.9261 1.10646e-20 0.0465691)
(9.68909 4.52031e-21 0.0371539)
(9.84708 -9.18221e-21 0.0556531)
(9.55279 0 0.0432167)
(9.74671 -9.56719e-21 0.0661495)
(9.39936 5.28681e-21 0.0493696)
(9.62897 9.89157e-21 0.0770533)
(9.22951 -3.57245e-22 0.0556528)
(9.49409 5.19756e-21 0.0882341)
(9.04347 -8.13833e-21 0.0622197)
(9.34182 -5.37255e-21 0.099929)
(8.84101 -2.76237e-21 0.0692234)
(9.17208 -1.39448e-23 0.112402)
(8.62163 0 0.0767867)
(8.98462 2.92358e-20 0.125848)
(8.38466 -8.10983e-22 0.0850188)
(8.77893 2.59093e-22 0.140435)
(8.12929 -7.85121e-22 0.0940283)
(8.5543 -2.52152e-20 0.156322)
(7.85462 0 0.103931)
(8.3099 0 0.173671)
(7.55962 0 0.114855)
(8.04477 -5.74064e-20 0.192659)
(7.24317 3.1313e-20 0.126933)
(7.75785 -7.73078e-22 0.21347)
(6.90411 -2.01226e-21 0.1403)
(7.44798 9.09193e-20 0.236276)
(6.54128 -3.13385e-20 0.155094)
(7.11397 -1.59417e-19 0.261233)
(6.15352 8.94406e-21 0.171437)
(6.75469 2.65271e-19 0.288477)
(5.73986 8.66812e-21 0.189412)
(6.36901 -1.37729e-19 0.318056)
(5.2996 5.95758e-20 0.209056)
(5.95583 1.28359e-19 0.349882)
(4.83253 5.90588e-20 0.230347)
(5.51461 -7.36795e-20 0.383749)
(5.04524 1.10054e-21 0.419255)
(9.99847 3.44613e-20 0.0495871)
(10.0038 6.46283e-21 0.0397958)
(9.96049 -3.16255e-21 0.0670599)
(9.98377 6.65975e-21 0.0637453)
(9.90068 -2.32704e-20 0.0823634)
(9.93626 -9.19765e-21 0.0836748)
(9.82109 6.67171e-22 0.0982914)
(9.86785 -1.91196e-20 0.10477)
(9.72213 9.72178e-21 0.11482)
(9.78136 3.96264e-20 0.126742)
(9.60438 0 0.131983)
(9.67714 -2.0519e-20 0.149396)
(9.4681 2.84176e-21 0.150109)
(9.55518 0 0.173125)
(9.31315 3.24683e-20 0.169543)
(9.41551 2.79528e-21 0.198421)
(9.13914 2.90109e-20 0.190566)
(9.25795 2.34306e-20 0.225668)
(8.94549 -2.45699e-20 0.213426)
(9.08209 -5.44359e-20 0.255204)
(8.73147 -2.40241e-20 0.238367)
(8.88734 2.57657e-20 0.287355)
(8.4962 -5.83302e-20 0.265649)
(8.67297 0 0.322457)
(8.23868 -5.72706e-20 0.295546)
(8.4381 -5.56953e-20 0.360884)
(7.9578 6.02949e-20 0.328326)
(8.18171 1.14858e-19 0.403023)
(7.65236 -7.04522e-20 0.364237)
(7.90269 -5.91312e-20 0.449229)
(7.32118 1.43855e-19 0.4035)
(7.59985 -1.27604e-19 0.499831)
(6.96307 1.12339e-19 0.446272)
(7.27204 2.65341e-19 0.555126)
(6.57686 -1.39679e-20 0.492561)
(6.91807 -3.88923e-19 0.615305)
(6.1616 -7.63406e-21 0.54217)
(6.5367 1.42377e-19 0.6803)
(5.71676 -1.30207e-19 0.594666)
(6.12695 2.03351e-19 0.749743)
(5.68824 3.9108e-20 0.822928)
(9.99124 -2.13522e-20 0.0566284)
(10.0015 -5.13105e-20 0.043641)
(9.957 3.45116e-22 0.0836614)
(9.97901 -2.20621e-20 0.0792557)
(9.90116 -5.20789e-21 0.108961)
(9.93276 1.37718e-20 0.109875)
(9.82693 2.08732e-20 0.135285)
(9.86756 -3.80418e-20 0.140825)
(9.73518 8.34167e-21 0.162758)
(9.78526 4.94736e-20 0.172861)
(9.62637 -2.01732e-20 0.191476)
(9.68619 -6.16359e-20 0.20597)
(9.50073 0 0.221897)
(9.5705 2.12713e-20 0.240665)
(9.35822 -5.90249e-21 0.254524)
(9.43836 1.10944e-20 0.277604)
(9.19856 -6.13036e-20 0.289794)
(9.28971 -5.80768e-21 0.31733)
(9.02129 -2.79415e-21 0.328108)
(9.12426 -9.71112e-20 0.360338)
(8.82583 4.9386e-20 0.369871)
(8.94162 1.06404e-19 0.407106)
(8.61145 1.74694e-21 0.415525)
(8.74125 -1.63346e-21 0.458126)
(8.37726 1.19174e-19 0.465548)
(8.52243 1.1165e-19 0.513977)
(8.12221 -7.31381e-21 0.520401)
(8.28438 -1.1239e-19 0.575254)
(7.84522 -1.17389e-19 0.580513)
(8.0261 -1.0203e-21 0.642492)
(7.54509 0 0.646286)
(7.7466 -2.50371e-19 0.716214)
(7.22064 -2.46089e-19 0.718037)
(7.44482 -3.58572e-21 0.796906)
(6.87064 -2.24751e-19 0.795884)
(7.11965 -6.98836e-21 0.884934)
(6.49385 3.54062e-19 0.879621)
(6.76991 2.99197e-19 0.980399)
(6.0892 3.70366e-19 0.968645)
(6.3944 4.17242e-20 1.08298)
(5.99204 4.09417e-22 1.19187)
(9.98677 -5.15397e-20 0.0668853)
(10.0002 -4.30236e-21 0.049444)
(9.95282 -7.98216e-21 0.104959)
(9.97586 3.95897e-20 0.0946447)
(9.89795 -1.99871e-20 0.141081)
(9.92944 9.17717e-21 0.135628)
(9.82493 -7.91251e-21 0.177708)
(9.86539 -9.51498e-21 0.176317)
(9.73504 -2.24225e-20 0.215438)
(9.78485 -1.96462e-20 0.218068)
(9.62878 -1.8785e-20 0.254667)
(9.68796 2.04279e-20 0.261248)
(9.50637 3.22001e-20 0.296042)
(9.57493 -2.11167e-20 0.306505)
(9.36788 1.09138e-20 0.340234)
(9.44609 -4.44143e-20 0.354595)
(9.21321 -4.30991e-20 0.387844)
(9.30145 4.58315e-20 0.406185)
(9.0421 1.54046e-20 0.439433)
(9.14083 -4.24195e-20 0.461892)
(8.8542 5.36588e-20 0.495563)
(8.96407 4.99796e-20 0.522312)
(8.64903 1.10082e-19 0.556859)
(8.77078 -1.04631e-19 0.588077)
(8.42595 -1.23478e-19 0.624012)
(8.56043 2.17764e-19 0.65994)
(8.18419 -1.04423e-19 0.697686)
(8.33252 -4.55726e-19 0.738691)
(7.9229 -1.37842e-19 0.778496)
(8.08627 3.52665e-19 0.825025)
(7.64117 -2.50326e-19 0.86705)
(7.8209 -2.50522e-19 0.919625)
(7.33801 2.35411e-19 0.963873)
(7.53566 -3.58804e-21 1.02318)
(7.01238 5.21622e-19 1.06929)
(7.22959 2.35608e-19 1.13623)
(6.66316 -1.68859e-20 1.18328)
(6.9017 2.85472e-19 1.25909)
(6.28912 -3.2905e-19 1.30534)
(6.55089 2.54827e-19 1.39165)
(6.17579 -6.40446e-19 1.53324)
(9.98461 8.75406e-20 0.0779467)
(9.99974 3.41404e-20 0.0561963)
(9.95031 5.62011e-20 0.125705)
(9.97427 -1.74217e-20 0.11019)
(9.89629 1.93182e-20 0.171516)
(9.92774 0 0.160999)
(9.82454 -2.14271e-20 0.21756)
(9.86492 1.89835e-20 0.211203)
(9.73647 2.3892e-20 0.264863)
(9.78632 -3.93547e-20 0.262385)
(9.63254 1.74048e-20 0.314128)
(9.69173 6.15691e-20 0.315344)
(9.51292 -9.81367e-20 0.36613)
(9.58143 -2.12517e-20 0.37088)
(9.37772 -8.01269e-21 0.421626)
(9.45581 -5.55315e-20 0.429808)
(9.2269 4.51008e-20 0.481308)
(9.31491 1.37864e-19 0.492882)
(9.06036 -6.34763e-21 0.545833)
(9.15866 -9.4824e-20 0.560815)
(8.87787 -1.10797e-19 0.615874)
(8.98702 -6.24967e-21 0.634303)
(8.67908 8.10008e-21 0.692192)
(8.79964 -1.03053e-19 0.714116)
(8.46354 -1.25001e-19 0.775635)
(8.5961 1.07848e-19 0.801141)
(8.2307 1.38661e-20 0.867026)
(8.37608 -2.40763e-21 0.896316)
(7.97992 2.30846e-19 0.967122)
(8.13903 2.66132e-21 1.0005)
(7.71055 0 1.07668)
(7.88428 0 1.11448)
(7.42184 0 1.19643)
(7.61127 0 1.23913)
(7.11293 0 1.3269)
(7.31926 5.30596e-19 1.37522)
(6.78284 5.56992e-19 1.46827)
(7.00738 -5.45296e-19 1.52327)
(6.43035 -6.79011e-20 1.62031)
(6.67462 5.49478e-19 1.68342)
(6.31944 -6.02268e-19 1.85532)
(9.98361 -7.16802e-20 0.089356)
(9.99963 4.25731e-21 0.0633888)
(9.94911 -7.33194e-20 0.146212)
(9.97363 -4.61812e-21 0.125837)
(9.89611 0 0.201404)
(9.92737 -1.81989e-20 0.1859)
(9.82611 4.12389e-23 0.256776)
(9.86609 5.6592e-20 0.245264)
(9.74027 3.98453e-23 0.313595)
(9.78976 -1.94018e-20 0.305607)
(9.63904 2.15104e-20 0.372801)
(9.69785 -4.07401e-20 0.368067)
(9.52261 2.08094e-20 0.435263)
(9.59071 6.31237e-20 0.433585)
(9.39109 9.35248e-20 0.501793)
(9.46877 -2.18632e-20 0.503027)
(9.24454 -5.82948e-21 0.573156)
(9.3321 2.33235e-20 0.577203)
(9.08292 -9.33481e-20 0.650107)
(9.18078 -1.2476e-20 0.656905)
(8.90606 0 0.733443)
(9.01478 0 0.742957)
(8.71364 0 0.824052)
(8.83375 6.37995e-21 0.836266)
(8.5053 2.28812e-19 0.922903)
(8.63732 2.108e-19 0.937813)
(8.28066 -1.3423e-20 1.03097)
(8.42523 6.96119e-21 1.04864)
(8.03921 -2.28485e-19 1.14915)
(8.19714 -2.32045e-19 1.16976)
(7.7804 0 1.27834)
(7.95243 4.67418e-19 1.30211)
(7.50364 5.38482e-19 1.41945)
(7.69053 -9.9718e-19 1.44668)
(7.2082 -2.94671e-20 1.57323)
(7.41091 1.07855e-18 1.60447)
(6.89315 -5.3814e-19 1.74016)
(7.11274 -4.29156e-21 1.77626)
(6.55722 0 1.92027)
(6.79501 -5.55638e-19 1.96254)
(6.45599 0 2.16331)
(9.98325 7.12189e-20 0.100895)
(9.99967 6.75499e-20 0.070739)
(9.94894 5.02713e-20 0.16645)
(9.97365 3.5121e-20 0.141403)
(9.89723 3.97442e-20 0.23061)
(9.92813 -1.8204e-20 0.210215)
(9.82929 3.57974e-20 0.294971)
(9.86863 5.66086e-20 0.278341)
(9.74607 -6.05547e-20 0.360986)
(9.79483 -5.83419e-20 0.347547)
(9.64796 2.60797e-21 0.429786)
(9.70602 -8.11029e-20 0.419208)
(9.53518 1.9062e-20 0.502323)
(9.60249 4.35182e-23 0.494374)
(9.40791 -9.13717e-20 0.57946)
(9.48474 -2.17951e-20 0.573951)
(9.26627 1.60889e-20 0.66203)
(9.35295 -5.93633e-22 0.658781)
(9.11029 8.11309e-20 0.750899)
(9.20725 6.95257e-22 0.74975)
(8.93979 6.48039e-21 0.847004)
(9.04761 0 0.847837)
(8.75447 2.20368e-19 0.951344)
(8.87368 1.26689e-20 0.954082)
(8.55402 -1.41366e-20 1.06497)
(8.68517 2.14275e-19 1.06954)
(8.33811 -2.15377e-19 1.18896)
(8.48181 -2.22131e-19 1.19532)
(8.10635 4.74448e-19 1.32439)
(8.26337 3.53926e-21 1.3326)
(7.85819 -5.50655e-19 1.47228)
(8.02926 7.7764e-21 1.48249)
(7.59308 -4.28929e-19 1.63369)
(7.77883 -4.95687e-19 1.64608)
(7.31036 1.08962e-18 1.80967)
(7.51167 5.1617e-19 1.82458)
(7.00908 -2.78355e-20 2.00101)
(7.22695 1.22653e-20 2.01911)
(6.68788 -5.49128e-19 2.20815)
(6.92355 -4.73564e-20 2.2306)
(6.5997 1.13555e-18 2.4595)
(9.98329 3.09147e-20 0.112367)
(9.9998 -8.33691e-21 0.0780729)
(9.94963 -3.43269e-20 0.186262)
(9.97411 -2.62729e-20 0.156687)
(9.89945 0 0.258966)
(9.9298 -1.80622e-20 0.233827)
(9.83382 -3.95696e-20 0.331942)
(9.87234 1.86614e-20 0.310322)
(9.75356 -7.92788e-20 0.406818)
(9.80131 -7.93089e-23 0.388027)
(9.65901 -8.23277e-20 0.484875)
(9.71595 -9.56827e-23 0.468543)
(9.55039 -4.11882e-20 0.567114)
(9.61647 -2.10691e-20 0.552984)
(9.42795 6.93596e-20 0.654424)
(9.50345 1.08604e-19 0.642254)
(9.2919 -1.59501e-20 0.747708)
(9.37717 -8.89675e-20 0.737236)
(9.14228 -8.0515e-20 0.847966)
(9.23777 -1.22655e-20 0.838935)
(8.9789 6.38323e-21 0.956278)
(9.08519 -2.41018e-20 0.948491)
(8.80152 9.54455e-21 1.07374)
(8.91915 -6.28546e-21 1.06705)
(8.60985 -2.17642e-22 1.20146)
(8.73942 -9.66635e-21 1.19574)
(8.40362 2.21153e-22 1.34066)
(8.54576 -1.72884e-21 1.33574)
(8.18244 -4.63451e-19 1.49256)
(8.33792 2.92623e-23 1.48841)
(7.94577 5.5568e-20 1.65832)
(8.11544 -4.60764e-19 1.65504)
(7.69302 4.63995e-19 1.83917)
(7.87758 9.72276e-19 1.83683)
(7.42355 -5.68893e-19 2.03643)
(7.62381 -5.12223e-19 2.03519)
(7.13636 -8.69518e-21 2.25132)
(7.35336 -5.31036e-19 2.25161)
(6.82998 1.65332e-18 2.48481)
(7.06498 5.43492e-19 2.48752)
(6.75701 2.24115e-18 2.74403)
(9.98357 -6.59046e-20 0.123618)
(9.99999 -1.51349e-19 0.0852833)
(9.95089 -9.85608e-21 0.205494)
(9.97483 -3.4485e-20 0.17154)
(9.90257 1.265e-21 0.286345)
(9.93213 3.57021e-20 0.256584)
(9.83954 5.78419e-20 0.367564)
(9.87708 1.86683e-20 0.341067)
(9.76254 7.91287e-20 0.45093)
(9.80906 1.16015e-19 0.426905)
(9.6719 6.08455e-20 0.537857)
(9.72742 -7.97915e-20 0.515886)
(9.56792 1.30856e-19 0.629362)
(9.63241 6.21799e-20 0.609162)
(9.45089 -5.2894e-20 0.726347)
(9.52468 6.57252e-20 0.707622)
(9.32106 -8.41421e-20 0.829804)
(9.40452 -1.79611e-19 0.812214)
(9.17844 4.40281e-20 0.940875)
(9.27204 9.27377e-20 0.924074)
(9.02292 -3.65188e-20 1.06077)
(9.12719 -1.92432e-19 1.04448)
(8.85429 -2.55612e-20 1.19065)
(8.96978 -1.4381e-20 1.17466)
(8.67233 -1.10715e-20 1.33173)
(8.79969 4.24046e-19 1.31583)
(8.47677 -1.89457e-21 1.48534)
(8.61665 -2.10327e-19 1.46926)
(8.26729 -3.46752e-21 1.65288)
(8.42041 4.46669e-19 1.63643)
(8.04335 4.7542e-19 1.83571)
(8.21068 -4.57849e-19 1.81889)
(7.80425 -2.31875e-20 2.03519)
(7.98679 -2.92897e-21 2.01803)
(7.54927 -4.74805e-19 2.2529)
(7.74791 -1.11087e-20 2.23539)
(7.27737 3.38855e-20 2.49053)
(7.49323 1.01058e-18 2.47285)
(6.98708 1.14982e-18 2.7497)
(7.22147 -9.8221e-19 2.73234)
(6.93107 2.17604e-18 3.01581)
(9.984 -1.18158e-19 0.134537)
(10.0002 -6.68704e-20 0.092307)
(9.95257 1.24025e-20 0.223998)
(9.97581 1.7282e-20 0.185833)
(9.90647 5.28349e-20 0.31259)
(9.935 -1.78179e-20 0.27832)
(9.84635 7.85126e-20 0.401692)
(9.88269 3.71098e-20 0.370425)
(9.77285 -4.62148e-20 0.493168)
(9.81791 4.87628e-22 0.464058)
(9.68647 -7.61708e-20 0.588515)
(9.74027 -1.20135e-19 0.561063)
(9.58761 -2.92426e-21 0.688776)
(9.65018 1.65157e-19 0.662644)
(9.47659 -6.48804e-20 0.794889)
(9.54827 4.12484e-22 0.769734)
(9.35358 1.5222e-21 0.907949)
(9.43481 6.69651e-20 0.883368)
(9.21862 -1.4811e-19 1.02922)
(9.30985 -1.36343e-19 1.0048)
(9.07163 -1.67762e-19 1.16)
(9.17335 -1.68465e-19 1.13539)
(8.91252 4.41726e-19 1.30156)
(9.0253 -1.79716e-21 1.27644)
(8.74112 2.1609e-19 1.45518)
(8.86562 3.99517e-19 1.42926)
(8.55717 2.47367e-19 1.62231)
(8.6941 -2.12293e-19 1.59524)
(8.36041 -1.94793e-20 1.80452)
(8.51048 8.12265e-21 1.77595)
(8.15046 -9.31326e-19 2.00343)
(8.31458 -8.87442e-21 1.97313)
(7.92658 8.58987e-21 2.22062)
(8.10597 -4.7519e-19 2.18851)
(7.68782 1.48824e-18 2.4579)
(7.88366 4.70894e-19 2.42389)
(7.43309 -2.63075e-20 2.71739)
(7.64668 1.01272e-18 2.6814)
(7.16091 7.56287e-20 3.0014)
(7.39382 -2.04572e-18 2.96348)
(7.12342 2.10193e-18 3.27292)
(9.98459 6.99853e-20 0.145032)
(10.0006 8.80365e-21 0.0990725)
(9.95466 -1.3515e-20 0.241648)
(9.97706 6.04926e-20 0.199453)
(9.911 -3.25911e-20 0.337567)
(9.93828 -1.78264e-19 0.298931)
(9.85402 -4.15924e-20 0.434195)
(9.88888 1.10822e-19 0.398287)
(9.78432 -7.54634e-20 0.533372)
(9.82764 -7.67612e-20 0.499341)
(9.70258 1.25886e-19 0.636626)
(9.75436 0 0.603876)
(9.60932 1.6591e-19 0.745064)
(9.66958 2.05917e-19 0.713182)
(9.50483 1.33349e-19 0.85972)
(9.57394 -1.25946e-19 0.8283)
(9.38922 -7.4001e-20 0.981791)
(9.46767 1.76658e-19 0.95038)
(9.2625 -1.5721e-19 1.11262)
(9.35075 -2.27517e-19 1.08076)
(9.12471 0 1.25356)
(9.22325 0 1.22083)
(8.97586 -3.85592e-20 1.40597)
(9.08524 -1.94517e-19 1.37194)
(8.81584 -3.75055e-20 1.57124)
(8.93673 3.87512e-19 1.5355)
(8.64445 -4.48894e-19 1.75093)
(8.77759 -2.31636e-19 1.71305)
(8.46148 1.81799e-20 1.94672)
(8.60766 -8.45142e-19 1.90625)
(8.26666 4.42736e-19 2.16049)
(8.42675 9.1576e-19 2.11693)
(8.05942 -1.79651e-21 2.39418)
(8.2346 -1.81943e-21 2.34719)
(7.83875 0 2.6499)
(8.03044 0 2.59924)
(7.60346 -1.03937e-18 2.93012)
(7.81328 1.48073e-20 2.87547)
(7.35206 1.96031e-20 3.23778)
(7.58193 -1.04441e-18 3.17876)
(7.3346 1.032e-18 3.5127)
(9.98536 2.21136e-22 0.155022)
(10.001 1.32667e-19 0.105499)
(9.95705 -1.08581e-19 0.258364)
(9.97856 -6.81964e-20 0.212349)
(9.91593 -2.97696e-20 0.361187)
(9.94181 -3.57733e-20 0.318373)
(9.86229 7.24241e-20 0.464942)
(9.89546 1.10433e-19 0.424553)
(9.79673 -5.85858e-24 0.571364)
(9.83808 -7.58493e-20 0.532581)
(9.72002 8.33436e-20 0.681971)
(9.7695 0 0.644127)
(9.63273 -9.12482e-20 0.797982)
(9.69039 4.11483e-20 0.760571)
(9.53517 -7.80769e-20 0.920565)
(9.60137 -1.27538e-19 0.883096)
(9.42742 1.71037e-20 1.05101)
(9.50265 8.73626e-20 1.01299)
(9.30951 -6.69151e-20 1.19071)
(9.39424 -6.76426e-20 1.15163)
(9.18157 -1.97384e-19 1.34102)
(9.27631 0 1.3004)
(9.04368 2.39656e-19 1.50338)
(9.149 -1.94739e-19 1.4607)
(8.89585 1.85355e-19 1.67931)
(9.01236 4.50663e-19 1.63403)
(8.73798 -6.3606e-19 1.87047)
(8.86644 -6.1482e-19 1.82205)
(8.56993 7.40061e-20 2.07866)
(8.71119 -4.3165e-19 2.02652)
(8.39148 4.60217e-19 2.30594)
(8.54647 8.68627e-19 2.24942)
(8.20222 0 2.55463)
(8.37202 -4.1657e-19 2.49306)
(8.00141 1.49793e-20 2.82722)
(8.18754 9.07713e-19 2.76005)
(7.78796 3.37048e-22 3.12656)
(7.9923 4.96846e-19 3.05312)
(7.56042 -1.40837e-20 3.45614)
(7.78517 -9.45794e-19 3.37564)
(7.56444 -9.36727e-19 3.73188)
(9.98625 6.09442e-20 0.164451)
(10.0015 7.47111e-20 0.111535)
(9.95966 5.20987e-21 0.274107)
(9.98027 4.22181e-20 0.224476)
(9.92114 1.07032e-19 0.383388)
(9.94558 1.94003e-19 0.336612)
(9.87106 -4.1076e-20 0.493798)
(9.90238 1.09527e-19 0.449122)
(9.80996 -7.46153e-20 0.606958)
(9.84913 -1.13494e-19 0.563615)
(9.73861 -4.157e-20 0.724361)
(9.78558 -7.8091e-20 0.681641)
(9.65762 2.23481e-21 0.847343)
(9.71246 -9.45885e-22 0.80464)
(9.5673 4.1236e-20 0.977216)
(9.63033 8.36165e-20 0.93395)
(9.46776 2.88432e-22 1.11535)
(9.53943 1.72416e-19 1.07098)
(9.35914 2.80161e-22 1.26314)
(9.43991 -1.32173e-19 1.21712)
(9.24163 0 1.42197)
(9.33205 0 1.37375)
(9.11536 2.49128e-20 1.59332)
(9.21601 0 1.54229)
(8.98047 -3.63867e-19 1.77883)
(9.0919 -1.46561e-19 1.72435)
(8.83699 -4.08256e-19 1.98024)
(8.95994 -1.83832e-19 1.92164)
(8.68489 3.78445e-19 2.1995)
(8.82022 -8.04559e-20 2.13605)
(8.52401 -2.33422e-20 2.43881)
(8.67267 3.50785e-19 2.36969)
(8.35416 5.05382e-19 2.70076)
(8.51724 -4.98427e-19 2.62504)
(8.17501 1.38771e-18 2.98821)
(8.35403 5.21089e-19 2.90488)
(7.9858 -4.61727e-19 3.30443)
(8.18268 9.0582e-19 3.21239)
(7.78529 -1.87104e-18 3.65348)
(8.00237 -9.3414e-19 3.55144)
(7.8118 -9.69061e-19 3.92688)
(9.98722 5.55326e-20 0.173271)
(10.002 -4.95984e-20 0.11715)
(9.96249 2.3372e-19 0.288828)
(9.98212 5.12054e-20 0.235765)
(9.92668 1.95024e-19 0.404097)
(9.9496 3.55008e-20 0.353591)
(9.88031 3.3315e-20 0.520637)
(9.90967 2.65075e-22 0.471913)
(9.82392 -1.164e-19 0.63999)
(9.86076 -1.8732e-19 0.592315)
(9.75824 -3.62431e-20 0.763628)
(9.80248 7.62506e-20 0.716258)
(9.68381 8.17712e-20 0.892986)
(9.7356 4.00183e-20 0.845239)
(9.60098 2.16189e-19 1.02949)
(9.66058 4.17555e-20 0.980718)
(9.50997 3.55473e-20 1.17457)
(9.57774 3.43274e-19 1.12417)
(9.41102 -1.30655e-19 1.32961)
(9.48744 -3.51487e-19 1.27699)
(9.3044 0 1.49603)
(9.39002 0 1.44056)
(9.19034 -1.73535e-19 1.67534)
(9.2857 0 1.61636)
(9.06903 3.3078e-20 1.86926)
(9.17465 -1.71841e-19 1.80601)
(8.94065 1.45475e-19 2.07962)
(9.05724 1.99891e-19 2.01131)
(8.80531 -1.03763e-19 2.30845)
(8.93368 4.98163e-20 2.23423)
(8.66309 -1.33916e-19 2.5581)
(8.80412 -4.78006e-22 2.47695)
(8.5141 -4.73382e-19 2.83131)
(8.66895 2.47297e-20 2.74201)
(8.35836 4.11602e-20 3.13119)
(8.52849 -4.44008e-19 3.03234)
(8.19557 4.19413e-19 3.46142)
(8.3827 4.78141e-19 3.35144)
(8.02501 -2.97434e-20 3.8266)
(8.23147 4.46019e-19 3.7036)
(8.07424 -4.81154e-19 4.09414)
(9.98824 -5.21044e-20 0.181439)
(9.96548 -1.47363e-19 0.302466)
(9.93254 -1.59964e-19 0.423245)
(9.95383 -1.71351e-19 0.369241)
(9.89002 -2.23601e-19 0.54537)
(9.91734 -1.41823e-19 0.492857)
(9.83853 9.65169e-21 0.670342)
(9.87296 -1.17232e-20 0.618597)
(9.7787 1.52004e-19 0.799635)
(9.82014 -1.3297e-19 0.747876)
(9.71105 0 0.934763)
(9.75969 1.49495e-19 0.88226)
(9.63594 1.73315e-19 1.07722)
(9.69203 -1.54926e-19 1.02328)
(9.55371 -5.37911e-20 1.22845)
(9.61755 4.92845e-19 1.17242)
(9.46474 -2.15939e-19 1.38985)
(9.53683 -3.45853e-19 1.33108)
(9.36938 0 1.56286)
(9.45023 0 1.50065)
(9.26792 -4.52447e-22 1.74905)
(9.35802 -4.32562e-20 1.68265)
(9.16065 -4.41058e-22 1.95015)
(9.26051 -4.5332e-20 1.87875)
(9.04788 1.02333e-19 2.16805)
(9.15816 -4.55415e-20 2.09076)
(8.92996 1.52702e-19 2.40484)
(9.05141 4.3182e-19 2.32064)
(8.80733 1.58649e-19 2.66292)
(8.94077 -3.77608e-19 2.57058)
(8.6804 4.98489e-20 2.94509)
(8.82696 5.87017e-20 2.84313)
(8.54952 1.10766e-21 3.25461)
(8.71048 -5.55665e-20 3.14135)
(8.41492 5.04538e-19 3.59548)
(8.59181 -4.00046e-19 3.46888)
(8.27672 -1.15446e-20 3.97266)
(8.47164 8.65725e-19 3.83018)
(8.35047 -1.28479e-18 4.23078)
(9.93882 -1.52558e-19 0.441097)
(9.90045 7.79652e-20 0.568362)
(9.92561 -3.64146e-20 0.512525)
(9.85413 -1.59512e-19 0.698495)
(9.88608 1.11089e-19 0.643196)
(9.80045 -1.36602e-19 0.832975)
(9.83906 -2.99565e-19 0.77741)
(9.73995 -1.02445e-20 0.973371)
(9.78536 1.53949e-19 0.916745)
(9.67303 1.74124e-19 1.1212)
(9.72552 -3.10815e-19 1.06279)
(9.60015 1.93621e-19 1.27791)
(9.66001 3.28488e-19 1.21701)
(9.52178 -1.23322e-19 1.44489)
(9.5895 7.2511e-20 1.38078)
(9.43833 -4.47021e-20 1.62362)
(9.51438 -1.64484e-19 1.55554)
(9.35019 -8.98921e-20 1.81569)
(9.43497 3.34919e-19 1.74283)
(9.25777 -9.22176e-20 2.02284)
(9.35175 -1.75988e-19 1.94432)
(9.1616 2.93342e-19 2.24693)
(9.26541 -2.47714e-21 2.16176)
(9.06236 -1.12328e-19 2.49004)
(9.17664 3.39617e-19 2.39702)
(8.96075 -4.85674e-19 2.75456)
(9.08625 -3.98524e-19 2.65226)
(8.8575 -4.98174e-20 3.04328)
(8.99514 -5.09683e-20 2.93004)
(8.75337 -4.69318e-19 3.35954)
(8.90421 3.82506e-19 3.23339)
(8.64931 -3.97965e-20 3.70739)
(8.81461 -9.55305e-19 3.56588)
(8.54641 -4.31832e-19 4.09183)
(8.7278 5.2091e-19 3.93179)
(8.64555 -8.51483e-19 4.33653)
(9.91144 -1.85215e-21 0.589535)
(9.8705 -3.40532e-20 0.724332)
(9.89979 -2.1751e-21 0.66554)
(9.8232 -2.84576e-22 0.863474)
(9.85876 -9.46431e-23 0.804172)
(9.7701 -1.55419e-19 1.00854)
(9.81202 7.02713e-20 0.947881)
(9.71174 -1.51211e-19 1.16105)
(9.76025 -1.54681e-19 1.09827)
(9.64863 2.03836e-19 1.32245)
(9.70403 -6.00372e-22 1.25679)
(9.58127 3.00383e-20 1.49413)
(9.64405 3.19806e-19 1.42485)
(9.51013 2.24958e-19 1.67758)
(9.58071 -3.26705e-19 1.60388)
(9.43571 2.4673e-19 1.8744)
(9.5144 1.86299e-19 1.7954)
(9.35867 -8.40532e-20 2.08624)
(9.44588 -5.00397e-20 2.001)
(9.27979 4.4603e-20 2.31491)
(9.37605 4.56992e-20 2.22231)
(9.19995 4.7694e-20 2.5624)
(9.30579 -3.47544e-19 2.46113)
(9.12008 4.66782e-20 2.83101)
(9.23607 3.13881e-19 2.71955)
(9.04125 3.91386e-19 3.12348)
(9.16807 -8.92666e-20 3.00004)
(8.9648 -1.10485e-19 3.44303)
(9.10316 3.92552e-19 3.30538)
(8.89238 -3.87356e-19 3.79345)
(9.04315 -4.03712e-19 3.63886)
(8.82611 9.7314e-20 4.17944)
(8.99018 5.27604e-21 4.00432)
(8.94722 0 4.40651)
(9.8876 3.2637e-20 0.747586)
(9.84687 7.24014e-20 0.890824)
(9.87925 6.61814e-20 0.827882)
(9.80143 7.04347e-20 1.03991)
(9.8397 7.23867e-20 0.975319)
(9.7519 0 1.19637)
(9.79622 1.41013e-19 1.12931)
(9.69883 1.1877e-19 1.36164)
(9.74951 -2.16733e-19 1.29132)
(9.64276 -4.65618e-20 1.53713)
(9.70023 -3.02971e-20 1.46276)
(9.58423 -3.66199e-19 1.72429)
(9.64888 6.6257e-20 1.64506)
(9.52393 -1.18052e-19 1.92464)
(9.596 -1.68845e-19 1.83963)
(9.46273 8.30096e-20 2.13973)
(9.54253 -3.46948e-20 2.0479)
(9.40157 -3.56098e-19 2.37125)
(9.48954 2.44446e-19 2.27142)
(9.34148 -7.61103e-20 2.62108)
(9.43799 -3.56532e-19 2.51192)
(9.28365 1.75344e-19 2.89141)
(9.38907 2.74361e-19 2.77133)
(9.22956 -8.95257e-20 3.18472)
(9.34427 -4.77376e-21 3.05181)
(9.18106 9.53438e-20 3.50392)
(9.30542 0 3.35584)
(9.14042 -2.54298e-21 3.8523)
(9.27476 -2.54497e-19 3.6862)
(9.11059 -9.44093e-20 4.23384)
(9.25504 3.46039e-19 4.04604)
(9.24999 3.51404e-19 4.43907)
(9.87143 6.61637e-20 0.914626)
(9.83385 1.44905e-19 1.06702)
(9.86834 6.59607e-20 0.998722)
(9.7933 -8.18216e-20 1.22662)
(9.83334 1.4456e-19 1.15556)
(9.75039 -3.69293e-19 1.39487)
(9.79624 -1.51965e-19 1.32021)
(9.70575 8.54564e-20 1.57317)
(9.75776 -3.67681e-19 1.49407)
(9.66006 2.6854e-19 1.7629)
(9.71851 4.54292e-19 1.67851)
(9.61415 -8.35498e-20 1.96543)
(9.67923 4.04064e-20 1.87482)
(9.56899 1.30516e-19 2.18219)
(9.64094 -2.00177e-19 2.08429)
(9.52564 2.4474e-19 2.41476)
(9.60475 1.71733e-19 2.30837)
(9.48531 1.33487e-21 2.66486)
(9.57178 -3.98453e-19 2.54862)
(9.44947 9.01262e-20 2.93441)
(9.54344 8.41269e-20 2.80672)
(9.41993 8.69871e-20 3.22558)
(9.5215 3.37111e-19 3.08449)
(9.39889 -3.58206e-19 3.54073)
(9.50802 -3.31436e-19 3.38394)
(9.38909 1.00263e-19 3.88254)
(9.50559 3.10972e-19 3.70727)
(9.394 8.03315e-19 4.25397)
(9.51732 3.64614e-19 4.0568)
(9.54725 -1.45741e-19 4.43503)
(9.86728 6.58017e-20 1.08953)
(9.83585 7.21213e-20 1.25146)
(9.87137 6.57554e-20 1.17666)
(9.80319 -1.50622e-19 1.42176)
(9.844 7.1991e-20 1.34308)
(9.77006 1.10141e-20 1.6018)
(9.81637 -1.50884e-19 1.51835)
(9.73727 2.20366e-19 1.79285)
(9.78925 2.25778e-19 1.70376)
(9.70574 -7.90131e-20 1.99614)
(9.76351 7.21613e-20 1.90048)
(9.67649 -1.58297e-19 2.21299)
(9.74021 -8.02277e-20 2.10969)
(9.65072 -4.87294e-19 2.4448)
(9.72051 -6.13267e-21 2.33266)
(9.62982 -3.14793e-19 2.69306)
(9.70569 -2.54504e-19 2.57074)
(9.61545 3.36361e-19 2.95937)
(9.69735 6.20663e-21 2.82529)
(9.60962 -9.05626e-20 3.24544)
(9.69736 4.12011e-19 3.09776)
(9.61477 3.52695e-19 3.55312)
(9.70796 -4.98186e-19 3.38966)
(9.63385 5.81519e-19 3.88427)
(9.73183 6.88967e-19 3.70253)
(9.67054 -6.06109e-19 4.24084)
(9.77225 7.00804e-20 4.03784)
(9.8332 -5.18846e-19 4.39692)
(9.87918 6.56348e-20 1.27052)
(9.85686 7.14014e-20 1.44193)
(9.83524 6.94951e-20 1.62261)
(9.8755 4.85058e-21 1.53522)
(9.81524 7.38957e-20 1.81373)
(9.86041 -6.79459e-20 1.72044)
(9.79784 7.11112e-20 2.0164)
(9.84798 1.43092e-19 1.91629)
(9.78417 7.58039e-20 2.23178)
(9.83929 -2.86328e-19 2.12379)
(9.77549 2.32833e-19 2.46104)
(9.83558 7.68881e-20 2.34404)
(9.77334 7.39832e-20 2.70543)
(9.83824 1.58452e-19 2.57809)
(9.77946 8.24923e-20 2.96616)
(9.84891 -6.37945e-21 2.82702)
(9.79597 -4.23176e-21 3.2445)
(9.86953 1.60805e-19 3.09186)
(9.82537 -1.57172e-19 3.54169)
(9.90236 -3.15059e-19 3.37363)
(9.87065 1.66658e-19 3.85887)
(9.95008 7.75091e-20 3.67322)
(9.93538 1.61845e-19 4.19697)
(10.0158 1.65614e-19 3.99132)
(10.1033 0 4.32824)
(9.9005 -1.36123e-19 1.63528)
(9.89306 3.10963e-21 1.82526)
(9.93119 -1.35011e-19 1.72831)
(9.88944 -2.23208e-19 2.02596)
(9.93169 7.12869e-20 1.92203)
(9.89081 -2.85478e-19 2.23835)
(9.9371 -2.2444e-19 2.12645)
(9.89852 5.47558e-22 2.4634)
(9.94867 -6.85915e-20 2.34242)
(9.91412 7.62797e-20 2.70202)
(9.96784 7.0789e-20 2.57076)
(9.93941 7.37142e-20 2.9551)
(9.99626 1.47163e-19 2.81222)
(9.97647 -1.56822e-19 3.22343)
(10.0358 7.22638e-20 3.06745)
(10.0278 -7.54396e-20 3.50771)
(10.0887 -1.56614e-19 3.33698)
(10.0961 7.58428e-20 3.80838)
(10.1574 3.65982e-21 3.62114)
(10.1848 0 4.12555)
(10.2449 -7.25963e-20 3.91994)
(10.3543 -7.23837e-20 4.23293)
(9.96987 -6.51655e-20 1.82724)
(9.97951 7.00481e-20 2.02469)
(9.99522 -2.31717e-21 2.23269)
(10.0325 1.35879e-19 2.11765)
(10.0184 3.17355e-21 2.45198)
(10.0585 -7.12044e-20 2.32795)
(10.0505 1.43186e-19 2.68319)
(10.093 -6.39315e-20 2.54909)
(10.0933 1.45738e-19 2.92684)
(10.1377 7.16352e-20 2.78152)
(10.1489 7.29999e-20 3.18333)
(10.1943 1.43521e-19 3.02552)
(10.2194 -7.57518e-20 3.45285)
(10.2649 -6.93657e-20 3.28121)
(10.3075 -1.48367e-19 3.73528)
(10.3517 -7.46803e-20 3.54843)
(10.416 -1.46757e-19 4.03008)
(10.4572 -7.29639e-20 3.82669)
(10.5841 -3.37968e-21 4.11495)
(10.0963 6.54332e-20 2.21496)
(10.1337 -1.40037e-19 2.42714)
(10.181 -1.37317e-19 2.64952)
(10.2125 -2.69285e-19 2.51363)
(10.2396 6.934e-20 2.88232)
(10.2718 -1.40705e-21 2.73574)
(10.3114 -2.25659e-21 3.12558)
(10.3434 3.31677e-21 2.96728)
(10.3985 -6.83637e-20 3.37907)
(10.4292 -1.37608e-19 3.20801)
(10.5029 2.59545e-21 3.64223)
(10.5311 1.36824e-19 3.45743)
(10.6272 7.38035e-20 3.91406)
(10.6512 1.47108e-21 3.71461)
(10.7915 7.24896e-20 3.97816)
(10.3042 -1.30124e-19 2.60181)
(10.3768 -6.90767e-20 2.82267)
(10.3973 -6.32286e-20 2.67591)
(10.4626 -1.35326e-19 3.05173)
(10.482 -6.88159e-20 2.89412)
(10.5635 7.23876e-20 3.28844)
(10.5806 -6.81646e-20 3.11923)
(10.6812 1.35673e-19 3.53194)
(10.6947 1.31011e-19 3.35045)
(10.8177 0 3.78091)
(10.8261 7.22374e-20 3.58663)
(10.9763 -3.18776e-20 3.82615)
(10.5038 -6.29491e-20 2.74916)
(10.6015 0 2.96344)
(10.7136 -8.20062e-21 3.18308)
(10.7181 -6.13879e-20 3.0167)
(10.8417 6.602e-20 3.40701)
(10.842 -8.198e-21 3.2298)
(10.9872 3.95156e-20 3.63375)
(10.9818 1.13093e-20 3.44551)
(11.1387 -3.26491e-20 3.66212)
(10.8484 -6.13573e-20 3.06501)
(10.9844 -6.42888e-20 3.26986)
(11.136 -6.26643e-20 3.4754)
(11.1185 -5.05956e-21 3.29368)
(11.2796 -1.19378e-19 3.48881)
(11.2649 -6.32229e-20 3.30825)
)
;

boundaryField
{
    inlet
    {
        type            calculated;
        value           uniform (10 0 0);
    }
    outlet
    {
        type            calculated;
        value           nonuniform 0();
    }
    flap
    {
        type            calculated;
        value           nonuniform 0();
    }
    upperWall
    {
        type            calculated;
        value           nonuniform 0();
    }
    lowerWall
    {
        type            calculated;
        value           uniform (0 0 0);
    }
    frontAndBack
    {
        type            empty;
        value           nonuniform 0();
    }
    procBoundary3to0
    {
        type            processor;
        value           nonuniform List<vector> 
34
(
(10.0025 1.60624e-20 0.122317)
(9.98408 -2.085e-20 0.246173)
(9.9687 -4.54531e-20 0.3152)
(9.95844 -1.49066e-19 0.384003)
(9.9455 -2.94951e-20 0.457611)
(9.93436 2.08992e-21 0.530458)
(9.92302 1.72707e-21 0.608651)
(9.91411 1.62898e-19 0.685427)
(9.90538 1.96933e-19 0.767942)
(9.90049 6.80233e-20 0.848246)
(9.89682 6.78064e-20 0.934567)
(9.89774 1.31675e-19 1.01775)
(9.90139 1.31449e-19 1.1071)
(9.90989 4.049e-21 1.19227)
(9.89228 6.5195e-20 1.35955)
(9.91072 -3.11255e-21 1.45504)
(9.93447 -4.00001e-21 1.5444)
(9.96512 -3.01641e-21 1.63956)
(10.0008 -3.46703e-21 1.72718)
(10.0137 2.96944e-22 1.91761)
(10.0671 6.76673e-20 2.01261)
(10.1246 3.81665e-21 2.09754)
(10.1639 6.34602e-20 2.30096)
(10.2434 -6.88215e-20 2.38939)
(10.3251 -2.59221e-19 2.4651)
(10.4193 -1.90754e-19 2.541)
(10.5133 -1.86604e-19 2.60316)
(10.609 -6.2025e-20 2.80751)
(10.7273 -1.24921e-19 2.86238)
(10.8415 -1.37713e-19 2.90225)
(10.9727 1.50586e-20 3.09759)
(11.1093 7.57206e-20 3.12267)
(11.2369 6.06215e-20 3.13328)
(11.4001 -1.22267e-19 3.30848)
)
;
    }
    procBoundary3to1
    {
        type            processor;
        value           nonuniform List<vector> 9((9.72943 -8.50553e-19 4.62474) (10.0239 8.07008e-20 4.55665) (10.2976 -7.91053e-20 4.45888) (10.548 -1.82972e-19 4.33619) (10.7739 2.13634e-19 4.19304) (10.9748 -1.3973e-21 4.03357) (11.1513 -1.96888e-19 3.86143) (11.3042 1.89179e-19 3.67977) (11.4349 -2.42517e-19 3.49116));
    }
    procBoundary3to4
    {
        type            processor;
        value           nonuniform List<vector> 
19
(
(4.339 8.7015e-20 0.253155)
(5.24228 -7.1863e-19 0.649262)
(5.65589 1.62966e-19 1.06181)
(5.88897 -1.19853e-19 1.43434)
(6.05396 -5.94077e-19 1.78218)
(6.19872 -1.17625e-18 2.11311)
(6.34479 -7.63017e-20 2.43103)
(6.50221 2.29976e-18 2.73732)
(6.67598 2.19811e-18 3.03155)
(6.86886 2.19927e-18 3.312)