/*--------------------------------*- C++ -*----------------------------------*\
| =========                 |                                                 |
| \\      /  F ield         | OpenFOAM: The Open Source CFD Toolbox           |
|  \\    /   O peration     | Version:  dev                                   |
|   \\  /    A nd           | Web:      www.OpenFOAM.org                      |
|    \\/     M anipulation  |                                                 |
\*---------------------------------------------------------------------------*/
FoamFile
{
    version     2.0;
    format      ascii;
    class       surfaceScalarField;
    location    "1.39";
    object      meshPhi;
}
// * * * * * * * * * * * * * * * * * * * * * * * * * * * * * * * * * * * * * //

dimensions      [0 3 -1 0 0 0 0];

internalField   nonuniform List<scalar> 
5457
(
-4.61861e-05
2.14148e-06
-8.42625e-05
5.90654e-06
-0.000112399
8.74504e-06
-0.000131269
1.07356e-05
-0.000141554
1.20084e-05
-0.000144051
1.26674e-05
-0.000139767
1.28037e-05
-0.000129939
1.25064e-05
-0.000115982
1.18663e-05
-9.9378e-05
1.0976e-05
-8.15436e-05
9.91202e-06
-6.37329e-05
8.74792e-06
-4.69742e-05
7.55601e-06
-3.20248e-05
6.39157e-06
-1.93627e-05
5.29627e-06
-9.20462e-06
4.29889e-06
-1.54143e-06
3.41606e-06
3.81202e-06
2.65411e-06
7.15821e-06
2.01177e-06
8.87747e-06
1.48336e-06
8.97327e-06
1.07055e-06
7.79388e-06
7.61456e-07
6.20167e-06
5.14882e-07
4.51885e-06
3.22289e-07
2.78791e-06
2.28085e-07
1.22809e-06
2.45927e-07
2.6708e-07
2.85619e-07
3.46271e-08
2.28075e-07
7.58681e-08
9.79976e-08
1.30287e-08
-4.62888e-05
4.2933e-06
-8.44858e-05
1.18432e-05
-0.000112776
1.75391e-05
-0.000131812
2.15336e-05
-0.000142253
2.4083e-05
-0.000144871
2.54072e-05
-0.000140662
2.56926e-05
-0.000130853
2.51072e-05
-0.000116869
2.38295e-05
-0.000100197
2.20409e-05
-8.22619e-05
1.99062e-05
-6.43289e-05
1.75774e-05
-4.74404e-05
1.51924e-05
-3.2364e-05
1.28609e-05
-1.95863e-05
1.06668e-05
-9.33001e-06
8.66787e-06
-1.58797e-06
6.89751e-06
3.82577e-06
5.36816e-06
7.21256e-06
4.07795e-06
8.93679e-06
3.01814e-06
9.01748e-06
2.20072e-06
7.83392e-06
1.59983e-06
6.34516e-06
1.09215e-06
4.9091e-06
6.12533e-07
3.31392e-06
2.79978e-07
1.47839e-06
2.61511e-07
1.10834e-08
4.77127e-07
-3.42227e-07
5.49744e-07
-1.97885e-08
3.17395e-07
6.18447e-08
-4.63798e-05
6.44387e-06
-8.4701e-05
1.77787e-05
-0.000113155
2.63388e-05
-0.000132381
3.23564e-05
-0.000143021
3.62159e-05
-0.000145821
3.82385e-05
-0.000141755
3.86986e-05
-0.000132042
3.78481e-05
-0.000118101
3.59485e-05
-0.000101424
3.32646e-05
-8.34338e-05
3.00618e-05
-6.54077e-05
2.65756e-05
-4.83988e-05
2.30018e-05
-3.3185e-05
1.95038e-05
-2.0264e-05
1.62075e-05
-9.86805e-06
1.32012e-05
-1.99467e-06
1.05348e-05
3.54243e-06
8.22551e-06
7.0404e-06
6.27134e-06
8.83943e-06
4.66623e-06
8.88943e-06
3.45544e-06
7.61006e-06
2.61911e-06
6.22971e-06
1.90092e-06
5.31204e-06
1.04775e-06
4.34232e-06
1.74487e-07
2.44528e-06
-2.11886e-07
3.22322e-08
1.94795e-07
-9.81756e-07
7.8024e-07
-3.27005e-07
7.0576e-07
1.97773e-07
-4.64476e-05
8.58159e-06
-8.48752e-05
2.36824e-05
-0.000113488
3.51023e-05
-0.000132921
4.31575e-05
-0.000143796
4.83594e-05
-0.000146838
5.11181e-05
-0.000142993
5.17884e-05
-0.000133462
5.07089e-05
-0.000119648
4.82257e-05
-0.000103037
4.4689e-05
-8.50557e-05
4.04512e-05
-6.69844e-05
3.58263e-05
-4.98812e-05
3.10749e-05
-3.45335e-05
2.64142e-05
-2.14513e-05
2.20132e-05
-1.08811e-05
1.79926e-05
-2.82848e-06
1.44201e-05
2.89713e-06
1.13134e-05
6.59275e-06
8.66591e-06
8.56178e-06
6.47788e-06
8.58123e-06
4.85866e-06
7.0128e-06
3.8635e-06
5.42036e-06
3.13648e-06
4.96016e-06
2.07727e-06
5.29157e-06
4.50206e-07
4.38719e-06
-9.98307e-07
1.19867e-06
-9.74945e-07
-1.41118e-06
3.61954e-07
-9.41717e-07
1.07818e-06
4.44257e-07
-4.65118e-05
1.07023e-05
-8.506e-05
2.95446e-05
-0.000113867
4.38189e-05
-0.000133562
5.39242e-05
-0.000144744
6.04939e-05
-0.000148103
6.40253e-05
-0.000144557
6.49512e-05
-0.000135283
6.36912e-05
-0.00012166
6.06755e-05
-0.000105163
5.634e-05
-8.72198e-05
5.11121e-05
-6.91141e-05
4.5379e-05
-5.19099e-05
3.9471e-05
-3.64035e-05
3.36587e-05
-2.31212e-05
2.81547e-05
-1.23322e-05
2.31173e-05
-4.05609e-06
1.86352e-05
1.90593e-06
1.47249e-05
5.87348e-06
1.13604e-05
8.12917e-06
8.52874e-06
8.25812e-06
6.40072e-06
6.33424e-06
5.20268e-06
3.94816e-06
4.70162e-06
3.12169e-06
4.00746e-06
4.75646e-06
2.04674e-06
6.34234e-06
-9.77607e-07
3.87986e-06
-2.65518e-06
-8.33016e-07
-1.2166e-06
-1.74468e-06
9.32278e-07
7.07404e-07
-4.65697e-05
1.28017e-05
-8.52515e-05
3.53544e-05
-0.000114288
5.24762e-05
-0.000134298
6.46473e-05
-0.000145853
7.26177e-05
-0.000149604
7.6969e-05
-0.000146433
7.82071e-05
-0.000137488
7.68276e-05
-0.000124124
7.33397e-05
-0.000107795
6.82596e-05
-8.99268e-05
6.20898e-05
-7.18046e-05
5.52904e-05
-5.4501e-05
4.82588e-05
-3.88208e-05
4.13191e-05
-2.53067e-05
3.47256e-05
-1.42597e-05
2.86723e-05
-5.72743e-06
2.32771e-05
4.90008e-07
1.85667e-05
4.75963e-06
1.44847e-05
7.41965e-06
1.09589e-05
8.01348e-06
8.13182e-06
6.12345e-06
6.41325e-06
2.66476e-06
6.03675e-06
1.14479e-07
6.32219e-06
1.54353e-06
5.29957e-06
6.09261e-06
1.39592e-06
6.96721e-06
-3.17597e-06
1.3549e-06
-3.58932e-06
-2.26583e-06
-2.95428e-07
7.27698e-07
-4.66184e-05
1.48802e-05
-8.54424e-05
4.1115e-05
-0.000114738
6.10822e-05
-0.000135114
7.53421e-05
-0.000147105
8.47568e-05
-0.000151322
8.99866e-05
-0.000148605
9.16057e-05
-0.000140065
9.01795e-05
-0.000127028
8.62909e-05
-0.000110928
8.05316e-05
-9.3179e-05
7.34778e-05
-7.50686e-05
6.56605e-05
-5.76763e-05
5.75413e-05
-4.18183e-05
4.95003e-05
-2.8052e-05
4.18322e-05
-1.67119e-05
3.47612e-05
-7.89221e-06
2.84438e-05
-1.41766e-06
2.29344e-05
3.11744e-06
1.81631e-05
6.19861e-06
1.39647e-05
7.65264e-06
1.02847e-05
6.64197e-06
7.53822e-06
2.75854e-06
6.58868e-06
-2.25536e-06
7.70973e-06
-3.60244e-06
8.93347e-06
1.88865e-06
6.42147e-06
7.9084e-06
-4.31668e-07
4.77552e-06
-5.03366e-06
-1.73694e-06
-2.63431e-06
1.6695e-07
-4.66566e-05
1.6938e-05
-8.56285e-05
4.68271e-05
-0.000115212
6.96405e-05
-0.000136
8.60182e-05
-0.000148491
9.69285e-05
-0.000153248
0.000103105
-0.000151065
0.000105184
-0.00014301
0.000103794
-0.000130377
9.95871e-05
-0.000114571
9.32249e-05
-9.69943e-05
8.5354e-05
-7.89332e-05
7.65749e-05
-6.14695e-05
6.74096e-05
-4.54333e-05
5.82904e-05
-3.1399e-05
4.95536e-05
-1.97319e-05
4.14595e-05
-1.05879e-05
3.42093e-05
-3.85593e-06
2.79015e-05
8.63113e-07
2.24863e-05
4.22733e-06
1.77227e-05
6.63811e-06
1.3243e-05
7.27476e-06
9.15636e-06
4.47067e-06
6.65013e-06
-1.9741e-06
7.28398e-06
-7.73553e-06
1.06134e-05
-5.36199e-06
1.19618e-05
4.46466e-06
5.9967e-06
7.72191e-06
-3.29045e-06
4.20885e-07
-5.0235e-06
-1.07496e-06
-4.6681e-05
1.89636e-05
-8.58054e-05
5.24604e-05
-0.000115704
7.81083e-05
-0.000136952
9.66257e-05
-0.000150005
0.000109081
-0.000155375
0.000116274
-0.000153805
0.000118897
-0.000146318
0.000117637
-0.000134166
0.000113206
-0.000118724
0.000106332
-0.00010138
9.77273e-05
-8.34155e-05
8.806e-05
-6.59114e-05
7.79096e-05
-4.97112e-05
6.77571e-05
-3.54084e-05
5.79829e-05
-2.33875e-05
4.88769e-05
-1.38654e-05
4.06746e-05
-6.83641e-06
3.35391e-05
-1.97768e-06
2.74846e-05
1.45558e-06
2.22735e-05
4.43064e-06
1.7293e-05
6.70367e-06
1.21225e-05
6.33502e-06
7.5762e-06
1.0534e-06
5.91315e-06
-7.88995e-06
9.1208e-06
-1.17848e-05
1.45397e-05
-2.80797e-06
1.33995e-05
8.03351e-06
2.36855e-06
3.59692e-06
-5.43592e-06
-2.38739e-06
-4.66844e-05
2.09461e-05
-8.59622e-05
5.79854e-05
-0.0001162
8.64437e-05
-0.00013795
0.000107115
-0.000151622
0.000121161
-0.000157675
0.000129442
-0.000156796
0.0001327
-0.000149957
0.00013167
-0.000138367
0.000127124
-0.000123367
0.000119844
-0.000106323
0.000110605
-8.85163e-05
0.000100143
-7.10269e-05
8.90961e-05
-5.47046e-05
7.79874e-05
-4.01598e-05
6.7235e-05
-2.77811e-05
5.71475e-05
-1.78218e-05
4.79764e-05
-1.03906e-05
3.99456e-05
-5.3225e-06
3.31767e-05
-1.95332e-06
2.75415e-05
9.11329e-07
2.24134e-05
3.87559e-06
1.69239e-05
6.04706e-06
1.08933e-05
4.34739e-06
6.02398e-06
-3.89737e-06
6.03346e-06
-1.31978e-05
1.23864e-05
-9.93045e-06
1.73547e-05
4.86716e-06
9.72324e-06
5.60129e-06
-2.33188e-06
-2.64643e-06
-4.66602e-05
2.28801e-05
-8.60881e-05
6.33885e-05
-0.000116685
9.46274e-05
-0.000138973
0.000117464
-0.000153316
0.000133147
-0.000160113
0.00014259
-0.000159998
0.000146576
-0.000153889
0.000145886
-0.000142949
0.000141343
-0.000128477
0.000133787
-0.000111816
0.00012404
-9.42417e-05
0.000112893
-7.68407e-05
0.000101046
-6.04592e-05
8.90684e-05
-4.57163e-05
7.74011e-05
-3.30061e-05
6.63748e-05
-2.25907e-05
5.62524e-05
-1.46537e-05
4.72838e-05
-9.20711e-06
3.9683e-05
-5.82355e-06
3.34938e-05
-3.5694e-06
2.83619e-05
-1.18516e-06
2.33288e-05
2.25703e-06
1.71111e-05
4.65621e-06
9.80921e-06
1.04975e-06
4.93476e-06
-8.75098e-06
7.52267e-06
-1.24116e-05
1.54768e-05
-6.29164e-07
1.52134e-05
4.03138e-06
4.21047e-06
-9.77991e-07
-4.66033e-05
2.4761e-05
-8.61757e-05
6.8657e-05
-0.000117149
0.000102641
-0.000140008
0.000127649
-0.000155064
0.000145011
-0.000162664
0.000155689
-0.000163382
0.000160508
-0.000158084
0.000160288
-0.000147884
0.000155884
-0.000134039
0.000148185
-0.000117856
0.000138067
-0.000100596
0.000126352
-8.3358e-05
0.000113799
-6.69932e-05
0.000101034
-5.21297e-05
8.85384e-05
-3.91678e-05
7.66667e-05
-2.83486e-05
6.5671e-05
-1.98717e-05
5.57856e-05
-1.38668e-05
4.7258e-05
-1.02136e-05
4.03026e-05
-8.59113e-06
3.50064e-05
-7.55003e-06
3.07089e-05
-4.5389e-06
2.54693e-05
3.83331e-07
1.76409e-05
2.704e-06
8.81136e-06
-2.29498e-06
4.82395e-06
-9.93631e-06
1.04269e-05
-7.16915e-06
1.76654e-05
-2.02737e-06
1.31976e-05
2.97051e-06
-4.65103e-05
2.65904e-05
-8.62204e-05
7.37943e-05
-0.000117586
0.000110486
-0.000141041
0.000137669
-0.000156848
0.00015675
-0.000165301
0.000168734
-0.000166921
0.000174491
-0.000162514
0.00017487
-0.000153138
0.000170738
-0.000140013
0.000163021
-0.000124407
0.000152648
-0.000107557
0.000140486
-9.05695e-05
0.000127345
-7.43207e-05
0.000113911
-5.94508e-05
0.000100711
-4.63636e-05
8.81246e-05
-3.52607e-05
7.6382e-05
-2.63105e-05
6.56785e-05
-1.9693e-05
5.62464e-05
-1.5534e-05
4.83926e-05
-1.41447e-05
4.26019e-05
-1.43367e-05
3.873e-05
-1.28143e-05
3.48459e-05
-7.77652e-06
2.82778e-05
-1.52361e-06
1.83195e-05
-1.51992e-07
8.94522e-06
-7.66734e-06
8.72991e-06
-1.48186e-05
1.94661e-05
-1.13157e-05
2.3343e-05
8.97769e-06
-4.63808e-05
2.83709e-05
-8.62219e-05
7.88058e-05
-0.000117996
0.000118164
-0.000142068
0.000147517
-0.000158651
0.000168348
-0.000167996
0.000181701
-0.000170573
0.000188476
-0.000167127
0.000189547
-0.000158659
0.000185809
-0.000146339
0.000178209
-0.000131411
0.000167717
-0.000115087
0.000155259
-9.84659e-05
0.000141684
-8.24502e-05
0.000127725
-6.76952e-05
0.000113956
-5.46153e-05
0.000100783
-4.34064e-05
8.84559e-05
-3.41799e-05
7.7128e-05
-2.70888e-05
6.69665e-05
-2.23815e-05
5.82765e-05
-2.07583e-05
5.1757e-05
-2.15086e-05
4.77448e-05
-2.15637e-05
4.4851e-05
-1.82651e-05
4.0403e-05
-1.17026e-05
3.22442e-05
-6.77886e-06
2.1566e-05
-1.18825e-05
1.6133e-05
-2.37191e-05
2.43519e-05
-1.99358e-05
3.33388e-05
1.66863e-05
-4.62395e-05
3.00485e-05
-8.61937e-05
8.36132e-05
-0.000118379
0.00012567
-0.000143084
0.000157228
-0.000160459
0.000179832
-0.000170721
0.000194609
-0.000174297
0.000202482
-0.00017188
0.00020435
-0.00016441
0.000201136
-0.000153008
0.000193816
-0.000138879
0.000183382
-0.000123218
0.000170801
-0.000107097
0.000156951
-9.14293e-05
0.000142596
-7.69166e-05
0.000128379
-6.40086e-05
0.000114769
-5.29133e-05
0.00010205
-4.3684e-05
9.03346e-05
-3.64149e-05
7.97296e-05
-3.13775e-05
7.0483e-05
-2.93183e-05
6.32739e-05
-2.99856e-05
5.87405e-05
-3.11716e-05
5.62586e-05
-3.03695e-05
5.38942e-05
-2.64352e-05
4.9188e-05
-2.21697e-05
4.11763e-05
-2.48586e-05
3.39826e-05
-3.33762e-05
3.57343e-05
-2.23049e-05
4.6228e-05
3.08298e-05
3.32111e-06
-1.86673e-06
0.000129551
-1.17099e-05
0.000442077
-7.06092e-06
0.000495087
5.10512e-05
0.000280408
7.06607e-05
0.000125381
2.37209e-05
5.99229e-05
-2.56213e-05
3.47564e-05
-4.06557e-05
2.65162e-05
-2.83482e-05
2.71935e-05
-7.00004e-06
3.30624e-05
8.53881e-06
4.19223e-05
1.42416e-05
5.22033e-05
1.39874e-05
6.30358e-05
1.20624e-05
7.38302e-05
1.06089e-05
8.4089e-05
1.0258e-05
9.33015e-05
1.07401e-05
0.000100966
1.14951e-05
0.000106625
1.20896e-05
0.000109874
1.23578e-05
0.000110432
1.22789e-05
0.00010815
1.18951e-05
0.00010299
1.12586e-05
9.50069e-05
1.04267e-05
8.43508e-05
9.41994e-06
7.12709e-05
8.23369e-06
5.60773e-05
6.84783e-06
3.90509e-05
5.23298e-06
2.03666e-05
3.33961e-06
1.16849e-06
7.49378e-06
-3.96117e-06
0.000151386
-2.81192e-05
0.000450241
-3.53216e-05
0.000463402
5.99803e-05
0.000253213
0.00012045
0.000115832
5.9094e-05
5.8979e-05
-2.56312e-05
3.59803e-05
-5.96217e-05
2.74251e-05
-4.47069e-05
2.74184e-05
-1.02896e-05
3.30168e-05
1.63993e-05
4.19519e-05
2.65412e-05
5.24436e-05
2.63792e-05
6.34941e-05
2.33437e-05
7.44507e-05
2.10585e-05
8.48077e-05
2.06259e-05
9.40878e-05
2.15755e-05
0.00010178
2.29744e-05
0.000107416
2.40595e-05
0.000110619
2.45102e-05
0.000111132
2.4279e-05
0.000108792
2.34825e-05
0.000103543
2.22285e-05
9.5458e-05
2.05806e-05
8.46937e-05
1.85845e-05
7.15003e-05
1.62331e-05
5.61957e-05
1.34887e-05
3.90778e-05
1.02956e-05
2.03404e-05
6.56028e-06
2.29223e-06
1.6273e-05
-6.96187e-06
0.000188246
-5.01589e-05
0.00044576
-8.91124e-05
0.000389611
9.08022e-06
0.000194895
0.000125708
9.27465e-05
9.5972e-05
5.44154e-05
2.94625e-06
3.71631e-05
-5.13089e-05
2.87268e-05
-4.70474e-05
2.74543e-05
-1.14122e-05
3.24004e-05
2.08009e-05
4.14013e-05
3.4853e-05
5.22191e-05
3.63113e-05
6.36322e-05
3.37211e-05
7.48832e-05
3.14944e-05
8.5417e-05
3.12462e-05
9.47815e-05
3.25429e-05
0.000102497
3.4339e-05
0.000108093
3.57257e-05
0.000111221
3.62385e-05
0.000111633
3.58164e-05
0.000109189
3.45977e-05
0.00010385
3.27276e-05
9.5678e-05
3.02855e-05
8.48283e-05
2.73246e-05
7.15536e-05
2.38385e-05
5.61796e-05
1.97775e-05
3.90182e-05
1.50666e-05
2.02773e-05
9.57824e-06
3.34049e-06
3.08297e-05
-1.10653e-05
0.000227887
-7.0622e-05
0.000417564
-0.000141904
0.000294655
-6.91939e-05
0.000123224
8.36197e-05
5.94886e-05
0.0001114
4.41869e-05
4.21813e-05
3.64808e-05
-2.29283e-05
2.98846e-05
-3.69839e-05
2.75483e-05
-1.08995e-05
3.15871e-05
2.09607e-05
4.04611e-05
3.84915e-05
5.15372e-05
4.34192e-05
6.33436e-05
4.30287e-05
7.49405e-05
4.1847e-05
8.56981e-05
4.20523e-05
9.5127e-05
4.35986e-05
0.000102822
4.55332e-05
0.000108374
4.69745e-05
0.000111439
4.74097e-05
0.000111769
4.67494e-05
0.000109243
4.51042e-05
0.000103839
4.26204e-05
9.56158e-05
3.94014e-05
8.4725e-05
3.55025e-05
7.14225e-05
3.09192e-05
5.60382e-05
2.55964e-05
3.8888e-05
1.94494e-05
2.01844e-05
1.2329e-05
4.29032e-06
4.97238e-05
-1.52555e-05
0.000248522
-7.93779e-05
0.000356282
-0.000160498
0.000204229
-0.000122084
6.27158e-05
2.10513e-05
2.59487e-05
9.59389e-05
2.91763e-05
7.17589e-05
3.26493e-05
1.31772e-05
3.03224e-05
-1.70896e-05
2.81122e-05
-6.82416e-06
3.13269e-05
1.91289e-05
3.97511e-05
3.86294e-05
5.08175e-05
4.793e-05
6.28816e-05
5.10279e-05
7.47511e-05
5.18014e-05
8.57004e-05
5.27987e-05
9.52199e-05
5.45531e-05
0.000102917
5.64449e-05
0.000108436
5.77362e-05
0.000111453
5.79572e-05
0.000111734
5.69819e-05
0.000109159
5.48827e-05
0.000103708
5.17893e-05
9.5446e-05
4.78086e-05
8.45284e-05
4.30002e-05
7.1216e-05
3.73649e-05
5.58426e-05
3.08493e-05
3.87245e-05
2.33682e-05
2.00744e-05
1.47629e-05
5.12421e-06
6.72979e-05
-1.80357e-05
0.000230716
-7.17063e-05
0.00026332
-0.000135629
0.000130563
-0.000127165
2.62928e-05
-2.9991e-05
1.07009e-06
6.18128e-05
1.25661e-05
8.26344e-05
2.54876e-05
4.53359e-05
2.92961e-05
8.10002e-06
2.89903e-05
2.26046e-06
3.1916e-05
1.84629e-05
3.96332e-05
3.75192e-05
5.03022e-05
5.07423e-05
6.23339e-05
5.7728e-05
7.43465e-05
6.09877e-05
8.54468e-05
6.31001e-05
9.50789e-05
6.51058e-05
0.000102824
6.6866e-05
0.000108335
6.78879e-05
0.000111317
6.77879e-05
0.000111557
6.6426e-05
0.000108942
6.38371e-05
0.000103455
6.01257e-05
9.51645e-05
5.53942e-05
8.42304e-05
4.97075e-05
7.09202e-05
4.30757e-05
5.55747e-05
3.54525e-05
3.85107e-05
2.67596e-05
1.99388e-05
1.68406e-05
5.8288e-06
7.5042e-05
-1.74674e-05
0.000175875
-5.20551e-05
0.000161459
-8.77785e-05
7.78604e-05
-9.90157e-05
1.16959e-05
-5.37198e-05
-1.20383e-05
2.78501e-05
-2.22312e-06
7.72137e-05
1.58092e-05
6.65582e-05
2.61486e-05
3.32236e-05
2.95622e-05
1.60243e-05
3.31708e-05
2.1436e-05
4.01742e-05
3.75921e-05
5.01527e-05
5.31267e-05
6.18691e-05
6.34106e-05
7.38585e-05
6.91766e-05
8.50535e-05
7.25875e-05
9.47797e-05
7.49639e-05
0.000102577
7.66016e-05
0.000108094
7.73019e-05
0.000111054
7.68091e-05
0.00011126
7.49984e-05
0.000108612
7.18792e-05
0.000103098
6.75337e-05
9.47871e-05
6.20595e-05
8.3844e-05
5.55295e-05
7.05444e-05
4.79668e-05
5.52389e-05
3.93368e-05
3.82477e-05
2.95739e-05
1.97774e-05
1.85331e-05
6.39479e-06
6.62938e-05
-1.2667e-05
0.000109029
-3.10053e-05
8.03344e-05
-4.8084e-05
4.47311e-05
-6.64265e-05
8.89189e-06
-5.51325e-05
-1.58086e-05
4.66965e-06
-1.30773e-05
6.32435e-05
5.14674e-06
7.54147e-05
2.07571e-05
5.36474e-05
2.90497e-05
3.22895e-05
3.4472e-05
2.88764e-05
4.11216e-05
4.06092e-05
5.04046e-05
5.63381e-05
6.16449e-05
6.86097e-05
7.34409e-05
7.6406e-05
8.46203e-05
8.10767e-05
9.43905e-05
8.3907e-05
0.000102224
8.54756e-05
0.000107748
8.58509e-05
0.000110691
8.49241e-05
0.000110869
8.26139e-05
0.000108192
7.89245e-05
0.000102655
7.39268e-05
9.43311e-05
6.77191e-05
8.33856e-05
6.0387e-05
7.01035e-05
5.19701e-05
5.48477e-05
4.24493e-05
3.79441e-05
3.17753e-05
1.9595e-05
1.98213e-05
6.81665e-06
4.40855e-05
-5.32583e-06
5.81251e-05
-1.61971e-05
3.77316e-05
-3.28963e-05
2.95583e-05
-5.14528e-05
1.05133e-05
-5.11678e-05
-1.44204e-05
-8.91334e-06
-1.94445e-05
4.69988e-05
-4.69599e-06
7.40033e-05
1.37759e-05
6.65935e-05
2.69395e-05
4.79761e-05
3.50571e-05
3.98045e-05
4.20258e-05
4.7093e-05
5.09114e-05
6.12409e-05
6.16812e-05
7.39553e-05
7.31814e-05
8.29381e-05
8.42416e-05
8.85746e-05
9.39877e-05
9.18293e-05
0.000101823
9.33612e-05
0.00010734
9.34214e-05
0.000110261
9.20365e-05
0.000110409
8.91867e-05
0.000107705
8.48924e-05
0.000102148
7.92284e-05
9.3815e-05
7.23026e-05
8.28728e-05
6.42189e-05
6.96147e-05
5.50371e-05
5.44167e-05
4.47555e-05
3.7612e-05
3.33435e-05
1.93985e-05
2.06969e-05
7.09272e-06
1.60452e-05
4.31356e-06
3.25681e-05
-4.43196e-06
3.3291e-05
-3.7079e-05
3.28222e-05
-5.92587e-05
1.63863e-05
-5.69066e-05
-9.59862e-06
-2.16573e-05
-2.11613e-05
2.94533e-05
-1.19065e-05
6.48033e-05
6.60687e-06
7.11214e-05
2.33964e-05
6.02171e-05
3.44349e-05
5.2056e-05
4.24206e-05
5.62928e-05
5.13992e-05
6.79954e-05
6.18898e-05
7.98752e-05
7.31e-05
8.91023e-05
8.39789e-05
9.52237e-05
9.36368e-05
9.87338e-05
0.000101429
0.000100192
0.000106914
9.99257e-05
0.000109799
9.80584e-05
0.000109911
9.46355e-05
0.000107175
8.97095e-05
0.000101598
8.33742e-05
9.32569e-05
7.57569e-05
8.23218e-05
6.69848e-05
6.9093e-05
5.71405e-05
5.39594e-05
4.62411e-05
3.72623e-05
3.42748e-05
1.91941e-05
2.11627e-05
7.22525e-06
-1.77236e-05
1.91095e-05
2.11402e-05
1.66735e-05
5.29106e-05
-4.17437e-05
5.39206e-05
-7.89929e-05
3.11847e-05
-7.59429e-05
8.15276e-07
-4.09156e-05
-1.71163e-05
8.46382e-06
-1.45904e-05
4.9292e-05
1.18413e-06
6.75635e-05
1.93384e-05
6.71252e-05
3.26533e-05
6.31927e-05
4.20662e-05
6.65849e-05
5.16248e-05
7.60022e-05
6.21306e-05
8.63904e-05
7.31565e-05
9.51063e-05
8.38513e-05
0.000101188
9.33802e-05
0.000104683
0.000101088
0.000105952
0.000106509
0.000105305
0.000109338
0.000102917
0.000109401
9.88902e-05
0.000106626
9.33155e-05
0.000101024
8.63167e-05
9.26742e-05
7.80485e-05
8.17476e-05
6.86656e-05
6.8551e-05
5.82749e-05
5.34862e-05
4.69118e-05
3.6903e-05
3.45821e-05
1.8987e-05
2.12321e-05
7.22018e-06
-6.6545e-05
4.4069e-05
-7.63561e-07
6.4155e-05
7.30284e-05
-2.10467e-05
8.44659e-05
-8.63798e-05
5.61837e-05
-9.44805e-05
1.91643e-05
-6.24218e-05
-5.94567e-06
-1.4174e-05
-1.11668e-05
3.02603e-05
-6.01459e-07
5.8099e-05
1.61294e-05
6.86126e-05
3.03354e-05
7.1495e-05
4.11193e-05
7.61825e-05
5.15241e-05
8.42078e-05
6.23059e-05
9.31214e-05
7.32943e-05
0.00010093
8.38494e-05
0.000106548
9.32377e-05
0.000109731
0.00010083
0.000110642
0.000106157
0.000109522
0.000108908
0.00010656
0.000108905
0.000101898
0.00010608
9.56679e-05
0.000100445
8.80283e-05
9.20822e-05
7.91658e-05
8.11629e-05
6.92645e-05
6.79992e-05
5.84559e-05
5.30056e-05
4.67917e-05
3.65401e-05
3.42922e-05
1.87806e-05
2.09275e-05
7.08655e-06
-0.000150042
8.71981e-05
-6.80674e-05
0.000158836
5.7775e-05
5.61509e-05
9.94607e-05
-4.56235e-05
7.8905e-05
-8.20239e-05
4.04611e-05
-6.66213e-05
1.02021e-05
-2.72511e-05
-2.20318e-06
1.52518e-05
1.88725e-06
4.80308e-05
1.48837e-05
6.71361e-05
2.84084e-05
7.68771e-05
4.00688e-05
8.39949e-05
5.12588e-05
9.16558e-05
6.24274e-05
9.95235e-05
7.34902e-05
0.000106364
8.39617e-05
0.000111266
9.32165e-05
0.000113886
0.000100675
0.000114257
0.000105884
0.00011255
0.000108533
0.000108951
0.000108445
0.000103626
0.000105554
9.67462e-05
9.98763e-05
8.85044e-05
9.1494e-05
7.91204e-05
8.05786e-05
6.88072e-05
6.74466e-05
5.77189e-05
5.25243e-05
4.59208e-05
3.61784e-05
3.34437e-05
1.85772e-05
2.02782e-05
6.83562e-06
-0.000256514
0.000129761
-0.000210008
0.000279311
-3.12783e-05
0.000194314
6.28482e-05
5.92051e-05
7.37945e-05
-1.74105e-05
4.96572e-05
-3.48967e-05
2.29671e-05
-1.73559e-05
7.90427e-06
1.37911e-05
6.87013e-06
4.43808e-05
1.55832e-05
6.70813e-05
2.75399e-05
8.09991e-05
3.94377e-05
9.00865e-05
5.11136e-05
9.79445e-05
6.26105e-05
0.000105189
7.37778e-05
0.000111154
8.41979e-05
0.000115221
9.3327e-05
0.000117096
0.000100639
0.000116767
0.000105707
0.000114365
0.00010823
0.000110067
0.000108036
0.000104062
0.000105063
9.65522e-05
9.93299e-05
8.77636e-05
9.09196e-05
7.79464e-05
8.00034e-05
6.73397e-05
6.69009e-05
5.61168e-05
5.20489e-05
4.43527e-05
3.58229e-05
3.20839e-05
1.83798e-05
1.93178e-05
6.47981e-06
-0.000304354
0.000122297
-0.000318517
0.000247265
-0.000139864
0.000219647
-1.38614e-05
0.000126284
3.41243e-05
5.04994e-05
3.65015e-05
1.41667e-05
2.38323e-05
1.0979e-05
1.32467e-05
2.70206e-05
1.09258e-05
5.01348e-05
1.70075e-05
7.11125e-05
2.77108e-05
8.54808e-05
3.9425e-05
9.52334e-05
5.1261e-05
0.000103277
6.2932e-05
0.000110034
7.41568e-05
0.000115163
8.45166e-05
0.000118315
9.35127e-05
0.000119308
0.000100663
0.000118145
0.000105569
0.00011495
0.000107946
0.000109901
0.000107629
0.000103207
0.000104562
9.50983e-05
9.87667e-05
8.58308e-05
9.03267e-05
7.56801e-05
7.94123e-05
6.49068e-05
6.63447e-05
5.36981e-05
5.15695e-05
4.21344e-05
3.54692e-05
3.02531e-05
1.81872e-05
1.80746e-05
6.02893e-06
-4.78823e-05
3.15716e-05
-8.94483e-05
8.80531e-05
-0.000123289
0.000132861
-0.000149629
0.000166838
-0.000168509
0.000191337
-0.000180137
0.000207601
-0.000184925
0.000216671
-0.000183546
0.000219477
-0.000176918
0.000216964
-0.000166139
0.000210104
-0.000152414
0.000199905
-0.000136952
0.000187358
-0.000120855
0.000173378
-0.000105077
0.000158781
-9.03956e-05
0.000144268
-7.73315e-05
0.000130375
-6.61213e-05
0.000117429
-5.68182e-05
0.000105564
-4.94888e-05
9.48694e-05
-4.43407e-05
8.5487e-05
-4.19529e-05
7.79475e-05
-4.23524e-05
7.29559e-05
-4.42983e-05
7.05501e-05
-4.59297e-05
6.98224e-05
-4.56903e-05
6.87377e-05
-4.4434e-05
6.50951e-05
-4.58105e-05
5.94208e-05
-4.72774e-05
5.78309e-05
-2.15157e-05
7.20475e-05
8.55306e-05
2.8259e-05
-4.88967e-05
3.2974e-05
-9.14881e-05
9.20738e-05
-0.000126542
0.000139399
-0.000154307
0.000175966
-0.000174584
0.000202761
-0.000187523
0.000220722
-0.000193587
0.000231085
-0.000193432
0.000234975
-0.000187912
0.000233335
-0.000178077
0.000227093
-0.000165125
0.000217276
-0.000150264
0.000204926
-0.000134616
0.000191
-0.000119155
0.000176354
-0.000104682
0.000161711
-9.17981e-05
0.000147672
-8.08312e-05
0.000134659
-7.18798e-05
0.000122877
-6.49993e-05
0.000112419
-6.03489e-05
0.000103383
-5.82206e-05
9.6125e-05
-5.86022e-05
9.11359e-05
-6.111e-05
8.88502e-05
-6.46751e-05
8.92938e-05
-6.7633e-05
9.10072e-05
-6.91619e-05
9.11052e-05
-6.97129e-05
8.79109e-05
-6.4966e-05
8.67449e-05
-2.81184e-05
9.75634e-05
0.000102202
2.75104e-05
-4.98575e-05
3.42682e-05
-9.34189e-05
9.57488e-05
-0.000129597
0.000145207
-0.000158867
0.000184066
-0.000180841
0.000213485
-0.00019528
0.000233746
-0.000202699
0.000245663
-0.000203902
0.000250735
-0.000199634
0.000250112
-0.00019088
0.000244633
-0.000178877
0.000235366
-0.000164816
0.000223414
-0.000149813
0.000209745
-0.000134843
0.000195226
-0.00012075
0.000180622
-0.000108225
0.000166605
-9.76969e-05
0.000153687
-8.93448e-05
0.000142179
-8.32641e-05
0.000132223
-7.96516e-05
0.000123968
-7.85354e-05
0.000117662
-7.94217e-05
0.000113346
-8.2446e-05
0.000111435
-8.72157e-05
0.000112633
-9.18533e-05
0.000115923
-9.43462e-05
0.000118059
-9.34942e-05
0.000116411
-8.41109e-05
0.000113956
-4.90217e-05
0.000112085
9.51257e-05
-8.2452e-06
-5.07352e-05
3.54407e-05
-9.5206e-05
9.91049e-05
-0.000132362
0.000150463
-0.000162946
0.000191104
-0.000186803
0.000222748
-0.000203218
0.000245764
-0.000212233
0.000260024
-0.000214923
0.000266632
-0.000212075
0.000267189
-0.00020454
0.000262647
-0.00019366
0.000254097
-0.000180585
0.00024274
-0.000166396
0.000229508
-0.000152101
0.000215291
-0.000138594
0.000200921
-0.000126608
0.000187096
-0.000116676
0.000174416
-0.000109112
0.000163325
-0.000104071
0.000154031
-0.000101834
0.00014678
-0.000102237
0.000141721
-0.000104228
0.000138581
-0.000107943
0.000137586
-0.00011311
0.000139343
-0.000117784
0.000143045
-0.000119416
0.000145652
-0.000116125
0.000144179
-0.00010381
0.000138699
-7.75308e-05
0.000127
0.000104925
-5.62656e-05
-5.15164e-05
3.64734e-05
-9.68122e-05
0.000102071
-0.000134837
0.000155145
-0.000166443
0.000197306
-0.000191876
0.0002305
-0.000210589
0.000255758
-0.00022188
0.000272976
-0.000226502
0.000282241
-0.000225248
0.000284542
-0.000218993
0.000281036
-0.00020937
0.000273291
-0.000197448
0.000262697
-0.000184259
0.0002501
-0.00017084
0.000236393
-0.000158079
0.000222416
-0.000146775
0.000208921
-0.000137579
0.00019662
-0.000130878
0.000186007
-0.00012693
0.000177396
-0.000126075
0.000171119
-0.000127752
0.000167046
-0.00013095
0.000164791
-0.00013565
0.00016474
-0.000140976
0.000167281
-0.000144933
0.000171378
-0.000144702
0.000173828
-0.000138515
0.000171523
-0.000124673
0.00016357
-0.00010495
0.000149225
0.000130424
-8.91478e-05
-5.2166e-05
3.73295e-05
-9.81661e-05
0.000104549
-0.00013697
0.000159107
-0.000169459
0.000202654
-0.000196022
0.000237137
-0.00021662
0.000263822
-0.000230574
0.000283288
-0.00023785
0.000295561
-0.00023877
0.000300719
-0.000234098
0.000299252
-0.000225838
0.000292726
-0.000215261
0.000283064
-0.000203239
0.0002713
-0.000190834
0.000258251
-0.000178927
0.000244798
-0.000168432
0.000231768
-0.000160022
0.000219913
-0.000154154
0.000209775
-0.000151194
0.000201795
-0.000151401
0.000196287
-0.000153679
0.000192842
-0.000157232
0.000190825
-0.000162306
0.000190776
-0.00016787
0.000193438
-0.000171509
0.000197878
-0.000169869
0.000200676
-0.000161602
0.00019833
-0.000146975
0.000189686
-0.00012941
0.000175889
0.00015995
-0.00011353
-5.26434e-05
3.79845e-05
-9.92071e-05
0.000106476
-0.000138678
0.000162263
-0.000171984
0.000207029
-0.000199507
0.000242728
-0.000221352
0.00027057
-0.000237366
0.000291351
-0.000247281
0.000305513
-0.000251209
0.000313492
-0.000249246
0.000315435
-0.000242927
0.000311692
-0.00023384
0.000303627
-0.000223038
0.000292787
-0.000211763
0.000280508
-0.000200785
0.000267705
-0.000191122
0.000255178
-0.000183462
0.000243774
-0.000178343
0.000234103
-0.00017612
0.000226613
-0.000176929
0.000221582
-0.000179263
0.000218431
-0.000182147
0.000216234
-0.000186216
0.000215419
-0.000190974
0.000216838
-0.000194022
0.000219902
-0.000192133
0.00022224
-0.000183906
0.000221002
-0.000169776
0.000214218
-0.00015298
0.000202475
0.000187858
-0.000137194
-5.29187e-05
3.84259e-05
-9.98882e-05
0.000107821
-0.000139905
0.000164566
-0.000173913
0.000210343
-0.000202308
0.000247096
-0.00022517
0.000276032
-0.000242539
0.000297937
-0.000254356
0.000313359
-0.00026109
0.000323064
-0.000262639
0.00032774
-0.000259376
0.000327456
-0.000252471
0.000322454
-0.000243359
0.000313829
-0.000233276
0.000302858
-0.000223123
0.000290649
-0.000214238
0.000278558
-0.000207266
0.000267623
-0.000202697
0.000258339
-0.000200858
0.000251116
-0.000201796
0.000246226
-0.000203703
0.000242948
-0.00020531
0.000240138
-0.000207449
0.000238116
-0.000209975
0.000237662
-0.000211044
0.000238222
-0.000208641
0.000238363
-0.00020154
0.000236569
-0.000189584
0.000231524
-0.000174871
0.000223022
0.000211144
-0.000161001
-5.29678e-05
3.86399e-05
-0.000100151
0.000108541
-0.000140552
0.000165932
-0.00017511
0.000212457
-0.000204244
0.00025006
-0.000228068
0.000279962
-0.000246616
0.000302961
-0.000259932
0.000319647
-0.000268532
0.000330669
-0.000272802
0.000336819
-0.000272769
0.000338656
-0.000269071
0.000336649
-0.000262777
0.000331395
-0.000254531
0.000323267
-0.000245365
0.000312754
-0.00023712
0.000301347
-0.000230687
0.000290777
-0.000226368
0.000281737
-0.000224519
0.000274522
-0.000225088
0.000269408
-0.000226057
0.000265571
-0.000225973
0.000261713
-0.000225851
0.000258103
-0.000225674
0.00025555
-0.00022406
0.000253609
-0.000219974
0.000251191
-0.000212853
0.000247379
-0.000202781
0.000241862
-0.000190788
0.000234735
0.000224852
-0.000179683
-5.27565e-05
3.86053e-05
-9.99203e-05
0.000108567
-0.000140504
0.000166246
-0.000175447
0.000213249
-0.000205201
0.00025151
-0.000229881
0.000282236
-0.000249516
0.000306215
-0.000264196
0.000324048
-0.000274262
0.000336341
-0.000280261
0.000343776
-0.000282492
0.000346972
-0.000281701
0.000346695
-0.000278531
0.000343748
-0.000273338
0.000338712
-0.000266345
0.000331526
-0.000259037
0.000322352
-0.000252931
0.000312585
-0.0002485
0.000303558
-0.000246233
0.000296052
-0.000245933
0.000290348
-0.000245521
0.000285544
-0.000243466
0.000280291
-0.000240922
0.000274825
-0.000238044
0.000270038
-0.000233854
0.000265653
-0.000227753
0.000260931
-0.000219578
0.000255357
-0.000209683
0.000248702
-0.000198715
0.000240931
0.000230663
-0.000188596
-5.22477e-05
3.83072e-05
-9.9135e-05
0.00010786
-0.000139697
0.000165471
-0.000174847
0.000212672
-0.000205036
0.000251345
-0.000230396
0.000282687
-0.000250954
0.000307467