/*--------------------------------*- C++ -*----------------------------------*\
| =========                 |                                                 |
| \\      /  F ield         | OpenFOAM: The Open Source CFD Toolbox           |
|  \\    /   O peration     | Version:  dev                                   |
|   \\  /    A nd           | Web:      www.OpenFOAM.org                      |
|    \\/     M anipulation  |                                                 |
\*---------------------------------------------------------------------------*/
FoamFile
{
    version     2.0;
    format      ascii;
    class       surfaceVectorField;
    location    "1.39";
    object      Uf;
}
// * * * * * * * * * * * * * * * * * * * * * * * * * * * * * * * * * * * * * //

dimensions      [0 1 -1 0 0 0 0];

internalField   nonuniform List<vector> 
5457
(
(9.91266 2.23694e-20 0.0215277)
(9.96818 -3.23168e-22 0.0363064)
(9.82011 0 0.0268166)
(9.93073 -2.96012e-21 0.0397586)
(9.71903 -1.3263e-20 0.0309376)
(9.87079 3.09035e-21 0.0451719)
(9.60686 -1.27172e-20 0.0351915)
(9.79321 -8.35991e-24 0.0521361)
(9.48354 0 0.0395582)
(9.70305 4.07292e-20 0.0595723)
(9.34927 0 0.0440709)
(9.60145 1.42399e-20 0.0673641)
(9.20387 0 0.0488584)
(9.48794 0 0.0757169)
(9.04684 0 0.0540469)
(9.36188 0 0.084835)
(8.87749 -8.83356e-21 0.0597466)
(9.22269 3.28465e-20 0.0948871)
(8.69493 6.54169e-22 0.0660668)
(9.06968 -2.56181e-20 0.106038)
(8.49814 2.34752e-20 0.0731265)
(8.90199 8.99268e-21 0.118465)
(8.28594 -6.07239e-21 0.0810589)
(8.71856 2.8502e-20 0.132374)
(8.05699 -4.23318e-20 0.0900138)
(8.5182 -1.98251e-20 0.147992)
(7.8098 -4.62559e-22 0.100161)
(8.29952 -2.11658e-20 0.165575)
(7.5427 2.37944e-20 0.111693)
(8.06099 2.05312e-20 0.185406)
(7.25387 -3.36251e-21 0.12483)
(7.80089 5.76784e-21 0.207803)
(6.94133 7.07958e-21 0.139819)
(7.51733 1.19409e-20 0.233112)
(6.60296 1.26497e-20 0.156938)
(7.20828 2.17744e-19 0.261704)
(6.23654 -1.4503e-20 0.176492)
(6.87153 -2.11598e-19 0.293961)
(5.83978 -4.45572e-20 0.198813)
(6.50474 -2.27022e-19 0.330265)
(5.41038 -6.16456e-20 0.224254)
(6.1055 5.30143e-19 0.370968)
(4.94614 -3.11161e-20 0.253185)
(5.67134 3.0634e-19 0.416344)
(4.4451 1.42291e-19 0.286003)
(5.19979 -6.47562e-20 0.466538)
(3.90559 -8.01629e-20 0.323148)
(4.68852 2.07981e-19 0.52151)
(3.32638 -2.14253e-19 0.36509)
(4.13522 -2.88826e-19 0.58094)
(2.70685 7.84372e-20 0.41224)
(3.53766 1.46347e-19 0.644007)
(2.04692 7.75571e-20 0.464623)
(2.89313 6.06276e-21 0.708763)
(1.34775 6.2909e-19 0.519374)
(2.19706 1.536e-19 0.770121)
(0.60938 -5.89043e-20 0.507047)
(1.42752 6.31308e-19 0.813027)
(0.720381 1.336e-18 0.695444)
(10.0053 -2.53718e-20 0.0423687)
(9.99965 -2.27981e-20 0.0340811)
(9.98034 2.69972e-22 0.0541585)
(9.99174 -8.8724e-21 0.0504137)
(9.94037 1.62567e-20 0.0640205)
(9.96452 9.26193e-21 0.0629713)
(9.88677 5.42615e-20 0.0746958)
(9.91978 1.29571e-20 0.0769809)
(9.81949 5.44247e-20 0.086087)
(9.86146 2.03962e-22 0.0919993)
(9.73866 1.39596e-20 0.098204)
(9.79086 -2.822e-20 0.107841)
(9.64421 0 0.11131)
(9.70774 1.56116e-22 0.124832)
(9.53577 3.34707e-20 0.125689)
(9.61159 -3.11247e-20 0.143353)
(9.41277 1.4944e-20 0.141597)
(9.50192 6.52464e-20 0.16374)
(9.27446 -1.66358e-20 0.159293)
(9.37816 -1.02649e-19 0.186321)
(9.11992 1.43774e-20 0.179065)
(9.23956 7.10835e-20 0.211455)
(8.94809 1.38687e-20 0.201237)
(9.08522 2.34518e-20 0.239553)
(8.7577 1.32149e-21 0.226174)
(8.91405 0 0.271076)
(8.54734 5.8403e-22 0.254282)
(8.72481 1.29862e-21 0.306544)
(8.3154 2.23886e-21 0.286017)
(8.51609 6.7837e-22 0.346538)
(8.06008 2.11922e-20 0.321883)
(8.28632 -1.86299e-19 0.391713)
(7.77942 2.2604e-19 0.362431)
(8.03373 1.95569e-19 0.442795)
(7.47126 -1.37078e-20 0.408247)
(7.75635 3.94685e-19 0.500574)
(7.13326 -4.24227e-19 0.459936)
(7.45203 -3.94245e-19 0.56589)
(6.76292 3.59866e-19 0.518098)
(7.1184 -2.12588e-19 0.639613)
(6.35761 8.95569e-19 0.583274)
(6.75289 3.31092e-20 0.722602)
(5.91455 2.67692e-19 0.655892)
(6.35263 -2.05447e-19 0.815634)
(5.43089 4.72859e-21 0.73622)
(5.91451 5.12987e-19 0.919333)
(4.90365 -4.15257e-21 0.824327)
(5.43506 -5.25932e-19 1.03409)
(4.32941 7.81718e-20 0.920038)
(4.9101 2.06669e-19 1.16)
(3.704 6.90391e-20 1.02272)
(4.33431 1.15028e-18 1.29675)
(3.02076 7.79915e-20 1.13118)
(3.69985 -1.52883e-18 1.44344)
(2.26552 1.54764e-19 1.24594)
(2.99352 -2.38574e-18 1.59857)
(1.39392 2.06473e-18 1.38799)
(2.17752 2.50066e-18 1.76568)
(1.31168 3.21431e-18 1.97785)
(9.99833 -6.0271e-21 0.0446876)
(9.99745 2.835e-21 0.0347902)
(9.97734 5.51359e-22 0.0625186)
(9.98709 -8.85901e-21 0.0594683)
(9.94116 6.04034e-21 0.0788308)
(9.96105 6.17248e-21 0.0791978)
(9.89258 -4.14035e-20 0.0964228)
(9.9193 1.29379e-20 0.09964)
(9.83187 -8.30991e-20 0.115339)
(9.8647 -2.69888e-20 0.121419)
(9.75901 -4.14932e-20 0.135625)
(9.79855 -4.24943e-20 0.144502)
(9.67391 -3.16015e-20 0.157631)
(9.7208 5.95001e-20 0.169272)
(9.57629 2.49742e-21 0.181768)
(9.63106 -9.29815e-20 0.196236)
(9.46567 -5.54951e-20 0.208436)
(9.52891 3.24045e-20 0.225873)
(9.34143 -1.16881e-20 0.238051)
(9.41391 -8.57173e-20 0.258656)
(9.2028 7.93182e-20 0.271082)
(9.28544 7.11044e-20 0.295104)
(9.04886 9.17447e-21 0.308063)
(9.14278 -9.32098e-21 0.335807)
(8.87854 0 0.349598)
(8.98506 0 0.381436)
(8.69061 1.37864e-21 0.396367)
(8.81125 0 0.432745)
(8.48367 -1.91063e-19 0.449137)
(8.62022 1.74495e-19 0.490584)
(8.25616 -5.33759e-21 0.508769)
(8.41066 -5.49645e-19 0.555923)
(8.0063 3.67672e-19 0.576216)
(8.18112 3.53286e-19 0.629853)
(7.73213 1.19511e-21 0.65251)
(7.92995 1.89936e-19 0.713586)
(7.43142 -1.79749e-19 0.73875)
(7.6553 2.1061e-19 0.808446)
(7.10173 -5.34738e-19 0.836076)
(7.35509 -4.86142e-19 0.915862)
(6.74023 -1.07033e-18 0.945621)
(7.02694 -5.26462e-19 1.03735)
(6.34371 4.93113e-20 1.06842)
(6.668 -5.42597e-19 1.17445)
(5.90844 -2.90354e-20 1.20535)
(6.27487 1.57877e-18 1.32868)
(5.42989 -3.07949e-19 1.3571)
(5.84338 -1.48898e-18 1.50147)
(4.90203 1.28455e-18 1.52431)
(5.36803 1.21782e-18 1.69431)
(4.31609 -4.50653e-19 1.70806)
(4.84108 -3.66965e-19 1.90908)
(3.65776 -3.97644e-18 1.91104)
(4.25103 1.09762e-18 2.14899)
(2.89938 -1.43719e-19 2.13892)
(3.57826 -4.77067e-18 2.42225)
(2.01082 3.71809e-18 2.45607)
(2.81308 2.29034e-19 2.7318)
(1.79298 2.80327e-18 3.26485)
(9.99368 -2.55647e-22 0.0500931)
(9.99608 2.83567e-21 0.0374308)
(9.97289 -2.88193e-21 0.0755718)
(9.98366 -9.6917e-20 0.0684461)
(9.93744 1.32147e-20 0.0992879)
(9.95728 -9.82924e-20 0.0951198)
(9.88972 2.65211e-20 0.123876)
(9.9164 -1.2861e-20 0.121922)
(9.83039 1.32853e-20 0.149875)
(9.86306 1.34e-20 0.150207)
(9.75946 6.04942e-20 0.177572)
(9.79846 2.8081e-20 0.180245)
(9.67684 -4.85716e-21 0.207452)
(9.72268 5.90207e-20 0.212481)
(9.58234 -6.06753e-20 0.240068)
(9.63544 6.15346e-20 0.247505)
(9.47562 0 0.27597)
(9.53639 -1.29115e-19 0.285915)
(9.3562 0 0.315729)
(9.42517 6.7197e-20 0.328306)
(9.22351 -1.89936e-20 0.359982)
(9.30133 0 0.375325)
(9.07683 -1.83307e-20 0.409452)
(9.16429 -1.49214e-19 0.427714)
(8.91536 0 0.464953)
(9.01339 1.34721e-19 0.486316)
(8.73814 1.76139e-19 0.527402)
(8.84784 0 0.552069)
(8.54412 -1.96427e-19 0.597846)
(8.66677 1.73215e-19 0.626043)
(8.33211 -1.75832e-19 0.677472)
(8.46923 -3.66152e-19 0.709464)
(8.10077 1.72885e-19 0.767618)
(8.25413 1.75854e-19 0.803733)
(7.84857 3.9952e-19 0.869768)
(8.02027 -2.43315e-20 0.91043)
(7.57376 -1.06126e-19 0.985554)
(7.76624 -1.91216e-20 1.03132)
(7.27433 -4.78901e-19 1.11675)
(7.49047 -7.99413e-21 1.16837)
(6.94786 0 1.26527)
(7.19111 0 1.32378)
(6.59129 1.01435e-18 1.43313)
(6.86579 -9.38323e-19 1.49998)
(6.20082 8.67149e-20 1.62238)
(6.51151 2.93607e-18 1.69959)
(5.77136 6.21611e-20 1.83527)
(6.12424 -3.02567e-18 1.92554)
(5.29576 -4.30579e-19 2.07446)
(5.69846 1.96601e-18 2.18129)
(4.76341 1.17065e-18 2.34398)
(5.22616 -2.95459e-18 2.47139)
(4.15839 3.31378e-19 2.65242)
(4.69634 4.65219e-18 2.80264)
(3.44863 -4.46079e-18 3.00444)
(4.08261 -2.2313e-18 3.19286)
(2.66354 -2.12332e-19 3.47451)
(3.45198 -2.34321e-18 3.59779)
(2.30853 1.818e-18 4.38955)
(9.99125 -9.58054e-20 0.0563724)
(9.99533 9.5707e-20 0.0410805)
(9.96998 -1.92385e-19 0.0882264)
(9.98171 8.7682e-20 0.0776385)
(9.9351 -1.22575e-19 0.118286)
(9.9551 -1.54658e-22 0.110793)
(9.88821 -2.54532e-20 0.149036)
(9.91502 -9.52457e-23 0.143832)
(9.83008 2.8502e-20 0.18147)
(9.86295 -2.69207e-20 0.178438)
(9.76077 2.72086e-20 0.216109)
(9.79994 -8.42879e-20 0.215207)
(9.68019 1.25502e-19 0.253529)
(9.72612 -6.10229e-22 0.254673)
(9.58817 -1.04956e-20 0.294368)
(9.64126 1.2345e-19 0.297493)
(9.48443 -5.82897e-20 0.339273)
(9.54508 -1.29185e-19 0.344361)
(9.36861 6.60052e-20 0.388923)
(9.43728 6.72358e-20 0.395975)
(9.24023 -1.32899e-19 0.444075)
(9.31749 3.50317e-20 0.453088)
(9.09875 8.88119e-21 0.505591)
(9.18526 -1.49029e-19 0.516572)
(8.94352 1.32449e-19 0.574438)
(9.04005 1.85402e-20 0.58741)
(8.77383 0 0.651702)
(8.88127 1.59723e-19 0.666688)
(8.58891 -5.64417e-21 0.738635)
(8.70827 -1.04779e-20 0.755646)
(8.38789 -5.38771e-21 0.836671)
(8.52035 -3.54479e-19 0.855714)
(8.16982 -2.46458e-20 0.947449)
(8.31676 3.76853e-19 0.968537)
(7.93363 -4.42671e-19 1.07282)
(8.09666 -3.8763e-19 1.09599)
(7.67807 7.82818e-20 1.21488)
(7.85911 7.95127e-19 1.24023)
(7.40171 4.71229e-19 1.37596)
(7.60303 -3.53416e-19 1.40366)
(7.10276 -9.4975e-19 1.55876)
(7.32715 5.41545e-20 1.58911)
(6.77884 1.02671e-18 1.7663)
(7.02983 -8.24747e-19 1.79983)
(6.42677 -2.29825e-19 2.00198)
(6.70888 2.04789e-18 2.0396)
(6.042 -1.08545e-18 2.26982)
(6.36118 -4.06954e-18 2.31283)
(5.61806 -5.75557e-19 2.57482)
(5.98227 3.11664e-18 2.62491)
(5.1455 5.03914e-19 2.92339)
(5.56555 -3.86125e-18 2.98269)
(4.61293 2.14447e-18 3.32729)
(5.10449 6.15636e-18 3.39342)
(3.98375 -1.36568e-19 3.78269)
(4.55877 -1.98044e-18 3.88532)
(3.34177 1.76361e-19 4.34866)
(4.10756 -4.14586e-18 4.32848)
(2.86317 4.64807e-18 5.31488)
(9.98994 2.79042e-19 0.06307)
(9.99489 1.85748e-22 0.045276)
(9.96831 2.78052e-19 0.100734)
(9.98067 9.40273e-20 0.086988)
(9.93417 1.22361e-19 0.136925)
(9.95418 9.8196e-20 0.126146)
(9.88842 -2.11564e-21 0.173869)
(9.91506 1.27809e-19 0.165229)
(9.83177 -1.40881e-19 0.212778)
(9.8645 -8.0377e-20 0.20598)
(9.76435 -1.10467e-19 0.254343)
(9.80336 -8.10224e-22 0.249254)
(9.6861 -2.71378e-22 0.299209)
(9.73182 -2.76702e-22 0.295698)
(9.59687 0 0.348084)
(9.6497 0 0.346037)
(9.49643 0 0.401702)
(9.55677 -1.91829e-19 0.401046)
(9.38448 3.56671e-20 0.460836)
(9.4528 -6.78587e-20 0.46151)
(9.26064 1.57095e-20 0.526352)
(9.33748 1.03984e-19 0.528274)
(9.12448 -1.36388e-19 0.599243)
(9.21043 -1.84065e-20 0.602322)
(8.97547 4.81673e-20 0.68061)
(9.07125 1.7067e-19 0.684758)
(8.8131 1.46482e-19 0.771683)
(8.9195 1.63889e-19 0.776786)
(8.63679 -3.64959e-19 0.873879)
(8.7547 -6.8483e-19 0.879783)
(8.44594 3.9194e-20 0.988833)
(8.57635 -1.55905e-20 0.995344)
(8.23991 2.24441e-21 1.11842)
(8.38396 7.3855e-19 1.1253)
(8.01799 8.66903e-19 1.26479)
(8.177 -7.38199e-19 1.27178)
(7.77939 3.48951e-19 1.43044)
(7.9549 1.20781e-18 1.43722)
(7.52321 -7.65588e-19 1.61819)
(7.71705 -8.31181e-19 1.62445)
(7.24831 1.67161e-19 1.83138)
(7.46272 6.98519e-22 1.83678)
(6.95315 2.28566e-19 2.07398)
(7.19098 9.39602e-19 2.07816)
(6.6356 -1.84232e-18 2.35061)
(6.90061 -1.80874e-18 2.35333)
(6.29251 1.57286e-19 2.66676)
(6.58981 -9.00649e-19 2.66796)
(5.91922 -1.79004e-19 3.02919)
(6.25582 1.84916e-18 3.02883)
(5.50869 1.6996e-18 3.44538)
(5.89385 -2.26081e-18 3.4443)
(5.0566 2.12393e-18 3.92728)
(5.50463 4.00948e-18 3.91882)
(4.51874 -5.90175e-18 4.45818)
(5.02387 -1.97423e-18 4.49496)
(4.00811 2.40264e-18 5.06523)
(4.75965 -7.16888e-18 4.9329)
(3.43213 8.28746e-18 6.05528)
(9.98927 -1.83108e-19 0.0699973)
(9.99467 -9.5605e-20 0.0497489)
(9.96758 -8.58077e-20 0.1131)
(9.98027 9.81749e-20 0.0963694)
(9.93433 1.04264e-19 0.155132)
(9.95418 0 0.141114)
(9.88997 4.52975e-20 0.198066)
(9.91621 1.01868e-19 0.185998)
(9.83509 6.13329e-20 0.243205)
(9.86737 -2.13194e-19 0.232694)
(9.76988 1.09496e-19 0.291387)
(9.8084 1.67096e-19 0.282229)
(9.69432 0 0.343355)
(9.73947 5.82802e-20 0.335371)
(9.60831 -1.95421e-19 0.399891)
(9.66047 -6.03964e-20 0.392916)
(9.51165 -2.57485e-19 0.461814)
(9.57123 -1.28539e-19 0.455708)
(9.40412 3.53395e-21 0.529982)
(9.47162 6.52638e-20 0.524609)
(9.28541 6.77706e-20 0.605359)
(9.36134 -1.72523e-19 0.600551)
(9.15515 2.91986e-19 0.689041)
(9.24006 -1.58324e-21 0.684615)
(9.01299 2.86475e-19 0.782236)
(9.10756 4.36795e-19 0.777998)
(8.85853 -6.81517e-19 0.886289)
(8.96351 4.05117e-21 0.882)
(8.69139 -3.25214e-19 1.00276)
(8.80758 -3.25233e-19 0.998116)
(8.51116 6.95816e-19 1.13343)
(8.63946 3.70106e-19 1.12808)
(8.31747 -2.36416e-20 1.28038)
(8.45887 -3.34687e-19 1.27388)
(8.10991 -3.69679e-19 1.446)
(8.26554 -7.07942e-21 1.43783)
(7.88807 0 1.63309)
(8.05922 1.19212e-20 1.62261)
(7.65153 -5.40079e-20 1.84488)
(7.8397 -2.47008e-20 1.83138)
(7.39975 7.82681e-19 2.08524)
(7.60678 -8.81203e-19 2.06786)
(7.13205 -1.11623e-18 2.35881)
(7.36018 7.81814e-19 2.33651)
(6.84746 -8.71722e-19 2.67123)
(7.09958 -4.53602e-18 2.64277)
(6.54449 7.98717e-19 3.0291)
(6.8245 2.69329e-18 2.99325)
(6.22072 -2.36488e-19 3.44013)
(6.53423 -1.35474e-19 3.39567)
(5.87145 -2.25029e-22 3.91135)
(6.22518 2.76107e-20 3.8591)
(5.49876 -1.46367e-20 4.45364)
(5.90685 -5.37411e-24 4.38241)
(5.04939 -3.13568e-18 5.03721)
(5.48236 -1.45914e-20 5.02802)
(4.63748 3.10506e-18 5.64955)
(5.38915 3.49754e-19 5.43719)
(3.99338 2.39147e-19 6.64915)
(9.98904 1.89558e-19 0.0769922)
(9.99462 -1.66871e-19 0.054315)
(9.96757 1.81916e-19 0.125234)
(9.98032 -1.11671e-20 0.105665)
(9.93533 -2.61837e-22 0.172792)
(9.95487 -2.42683e-20 0.155645)
(9.89256 -1.63115e-19 0.221467)
(9.91823 -7.64033e-20 0.206049)
(9.83972 -9.99179e-20 0.272589)
(9.87132 5.1947e-20 0.258452)
(9.77703 1.13783e-19 0.327115)
(9.81478 1.12622e-23 0.313982)
(9.70452 -4.36542e-21 0.385877)
(9.74878 1.15817e-19 0.373518)
(9.62212 5.28681e-21 0.449728)
(9.67325 -6.04475e-20 0.437921)
(9.52973 1.97916e-19 0.519558)
(9.5881 -6.27004e-20 0.50809)
(9.42717 -1.1494e-19 0.596307)
(9.4933 3.29426e-19 0.584966)
(9.31417 -2.39126e-19 0.681023)
(9.38859 -2.41766e-19 0.66958)
(9.19046 1.5051e-19 0.774878)
(9.27369 -1.58493e-21 0.763078)
(9.05583 1.47167e-19 0.879165)
(9.14853 1.49664e-19 0.866707)
(8.91004 3.55407e-19 0.995333)
(9.01289 -3.85091e-20 0.981859)
(8.75286 3.81563e-19 1.12505)
(8.86661 3.10075e-19 1.11014)
(8.58406 -6.71066e-19 1.27026)
(8.70952 5.68983e-20 1.2534)
(8.40347 -3.14406e-19 1.43318)
(8.54154 -7.08224e-19 1.41376)
(8.211 3.75378e-19 1.61638)
(8.36266 1.0715e-18 1.59366)
(8.00657 -1.32145e-20 1.82289)
(8.17292 8.40236e-21 1.79599)
(7.79016 -8.61007e-19 2.05631)
(7.97248 -7.69289e-19 2.02415)
(7.56183 -8.68068e-19 2.32089)
(7.76159 -8.26479e-19 2.28221)
(7.32164 -2.67136e-18 2.62177)
(7.54061 -4.49155e-20 2.57501)
(7.0697 -9.49372e-19 2.96521)
(7.30999 -4.28936e-18 2.90846)
(6.80612 1.75479e-18 3.35864)
(7.07025 5.02974e-18 3.28972)
(6.53055 1.27554e-19 3.81027)
(6.8228 -1.58159e-18 3.72713)
(6.23978 2.80795e-20 4.32545)
(6.56433 2.07133e-19 4.23039)
(5.94025 2.22974e-22 4.91379)
(6.31382 2.18546e-22 4.7908)
(5.57048 3.43204e-18 5.5353)
(5.93622 0 5.49466)
(5.22245 -2.64902e-18 6.14033)
(5.98773 3.11542e-18 5.87055)
(4.53686 -3.6609e-18 7.14486)
(9.98911 -3.6479e-19 0.0839249)
(9.99468 2.18516e-20 0.0588542)
(9.9681 -2.1774e-19 0.137051)
(9.98072 -4.16106e-19 0.114764)
(9.93702 -1.01527e-19 0.189834)
(9.95612 -2.04151e-22 0.169672)
(9.89602 1.41358e-19 0.243978)
(9.92098 -2.2727e-19 0.225301)
(9.84547 1.50976e-19 0.300815)
(9.8762 2.63891e-19 0.28314)
(9.78558 4.23186e-21 0.361388)
(9.82234 -1.10566e-19 0.344377)
(9.71642 5.64513e-20 0.426611)
(9.75956 1.14646e-19 0.409981)
(9.63798 -1.28519e-19 0.497387)
(9.68783 0 0.480875)
(9.55022 7.56612e-20 0.574665)
(9.60715 -2.51385e-19 0.557988)
(9.45307 1.92875e-19 0.659479)
(9.51754 4.55941e-19 0.642334)
(9.34632 0 0.752957)
(9.41881 1.37074e-19 0.735055)
(9.2298 0 0.856319)
(9.31085 -2.80162e-19 0.83734)
(9.10339 -3.91357e-20 0.970916)
(9.19364 0 0.950464)
(8.96701 -7.86525e-20 1.0983)
(9.06709 -3.06501e-19 1.0759)
(8.82056 -1.85637e-20 1.24023)
(8.93114 3.14411e-19 1.21536)
(8.66401 9.27889e-21 1.39874)
(8.78584 5.98951e-19 1.37076)
(8.49741 7.01998e-19 1.57618)
(8.6313 3.8419e-20 1.54432)
(8.32091 6.92679e-19 1.77528)
(8.46771 2.53567e-20 1.73862)
(8.13478 -7.54958e-19 1.99926)
(8.29544 -3.52561e-21 1.95668)
(7.93938 -7.36432e-19 2.25198)
(8.11495 -7.45369e-19 2.20212)
(7.73531 1.53108e-21 2.53798)
(7.92696 2.8225e-23 2.47923)
(7.52327 -1.68498e-18 2.86277)
(7.73239 1.5715e-18 2.79319)
(7.30421 1.69681e-18 3.23298)
(7.53233 -4.85034e-18 3.15024)
(7.07951 1.71728e-18 3.65653)
(7.32818 4.8751e-18 3.55788)
(6.85068 -1.51402e-18 4.14194)
(7.12276 -1.6794e-18 4.02458)
(6.615 1.81939e-19 4.69301)
(6.91232 -1.57044e-18 4.5613)
(6.38076 0 5.31797)
(6.72616 1.52342e-18 5.15126)
(6.08081 -3.73369e-19 5.97059)
(6.38863 0 5.90579)
(5.76929 -3.48499e-19 6.57526)
(6.5581 -3.80773e-19 6.25946)
(5.06437 0 7.58945)
(9.98937 -3.79899e-20 0.0906963)
(9.99482 1.88908e-19 0.0632853)
(9.96906 -1.8951e-19 0.148468)
(9.98136 -3.50978e-20 0.123572)
(9.9393 -1.30716e-19 0.20618)
(9.95781 2.15625e-19 0.183123)
(9.90025 -9.48681e-20 0.265504)
(9.92435 -5.08275e-20 0.243672)
(9.85221 -5.03578e-21 0.327764)
(9.88189 -1.55224e-22 0.30665)
(9.79539 4.16235e-21 0.394066)
(9.83095 -5.48255e-20 0.373278)
(9.72991 5.60839e-20 0.465388)
(9.77169 1.13938e-19 0.4446)
(9.65578 -1.27365e-19 0.542678)
(9.70411 0 0.521586)
(9.57304 1.41276e-19 0.626934)
(9.62831 -2.13566e-21 0.6052)
(9.48167 3.94853e-19 0.719262)
(9.54427 2.59916e-19 0.696511)
(9.3816 -1.49968e-19 0.820865)
(9.45189 1.37249e-19 0.796725)
(9.27279 -2.75918e-19 0.933004)
(9.35131 -4.90446e-19 0.907083)
(9.15521 -2.7221e-19 1.05707)
(9.24255 2.87347e-19 1.02891)
(9.02886 9.5568e-20 1.1947)
(9.12561 -2.6836e-19 1.16373)
(8.89382 9.36647e-19 1.34773)
(9.00059 1.20243e-19 1.31331)
(8.75027 6.21874e-19 1.51826)
(8.86773 2.93503e-19 1.47964)
(8.59844 -6.37882e-19 1.70874)
(8.72732 1.60762e-21 1.66502)
(8.43875 -6.71857e-19 1.92202)
(8.57978 3.22086e-21 1.87209)
(8.27179 0 2.16147)
(8.42574 -6.21009e-19 2.10401)
(8.0983 -1.52639e-21 2.43114)
(8.26602 8.11121e-19 2.36454)
(7.91935 1.57963e-18 2.7358)
(8.10177 -7.42199e-19 2.65816)
(7.73625 -1.60881e-18 3.08127)
(7.93437 1.57365e-18 2.9903)
(7.55069 -1.68283e-18 3.47449)
(7.76555 -1.66567e-18 3.3675)
(7.3647 1.50833e-18 3.92354)
(7.59764 8.5483e-20 3.79763)
(7.18114 -1.73117e-18 4.43713)
(7.43395 1.11342e-18 4.28897)
(6.99744 -3.22482e-19 5.01888)
(7.26969 -3.20921e-18 4.85434)
(6.82155 1.55119e-18 5.67595)
(7.14497 3.55484e-18 5.47001)
(6.58471 0 6.35989)
(6.84546 -3.86096e-18 6.27047)
(6.29451 0 6.98607)
(7.11205 6.02627e-18 6.62506)
(5.58865 -2.47968e-18 8.02485)
(9.98977 1.87459e-19 0.0972299)
(9.99501 -1.09865e-20 0.0675512)
(9.97033 3.7567e-19 0.159407)
(9.98218 2.18229e-19 0.132012)
(9.94205 2.90082e-19 0.221756)
(9.95985 -4.71523e-20 0.195928)
(9.90512 4.49739e-20 0.285951)
(9.92824 3.74005e-19 0.261085)
(9.85981 -5.10363e-20 0.353315)
(9.88826 -1.56294e-19 0.32888)
(9.80634 5.81559e-20 0.424996)
(9.84045 5.37866e-20 0.400556)
(9.74485 5.57789e-20 0.502025)
(9.78496 5.62669e-20 0.477212)
(9.67543 1.25307e-19 0.585393)
(9.72184 -1.17856e-19 0.559851)
(9.59813 1.21052e-19 0.676144)
(9.65126 1.22474e-19 0.649493)
(9.51294 0 0.775426)
(9.57317 1.27536e-19 0.747263)
(9.41994 -2.13401e-19 0.884477)
(9.48757 -1.31477e-19 0.854363)
(9.31923 8.50686e-20 1.00461)
(9.39475 -3.81946e-21 0.972063)
(9.21091 2.83344e-19 1.13727)
(9.29483 -2.80665e-19 1.10175)
(9.09509 -2.38347e-19 1.28414)
(9.18793 2.93247e-19 1.24501)
(8.97203 -5.22047e-19 1.4471)
(9.07434 -3.11859e-19 1.40362)
(8.84207 -3.31718e-19 1.62833)
(8.95442 -3.64552e-19 1.57962)
(8.70567 6.43191e-19 1.83032)
(8.82872 -4.79132e-20 1.77536)
(8.56349 4.92006e-20 2.05601)
(8.69785 1.35418e-18 1.99353)
(8.41642 2.00683e-19 2.30886)
(8.56267 -1.30581e-18 2.23737)
(8.26558 6.03648e-20 2.59308)
(8.42437 7.24743e-19 2.51075)
(8.1125 -7.41019e-19 2.91361)
(8.28449 6.78363e-19 2.81827)
(7.95902 1.51386e-18 3.27653)
(8.14492 6.90128e-22 3.16556)
(7.80757 1.09109e-19 3.68918)
(8.00798 4.55914e-18 3.55943)
(7.66074 -3.21732e-19 4.15974)
(7.87682 -2.84754e-18 4.00821)
(7.52184 -3.12396e-19 4.6973)
(7.75527 2.84656e-18 4.52024)
(7.38862 5.1527e-19 5.3064)
(7.63732 -2.8143e-18 5.11037)
(7.26675 -1.8762e-18 5.99467)
(7.57261 2.0019e-18 5.75038)
(7.09212 1.1239e-18 6.71541)
(7.31566 -6.71086e-18 6.59301)
(6.82287 8.71717e-19 7.39721)
(7.66809 7.14901e-18 6.98128)
(6.133 -1.01937e-18 8.4848)
(9.99027 2.42161e-20 0.103467)
(9.99524 -1.09936e-20 0.0716106)
(9.97185 -2.1054e-19 0.1698)
(9.98314 5.70026e-20 0.14002)
(9.9452 4.54336e-20 0.236489)
(9.96216 -2.62671e-19 0.208024)
(9.91053 1.62189e-19 0.305233)
(9.93254 7.55037e-20 0.277471)
(9.86812 -4.74238e-20 0.377355)
(9.89521 -1.55731e-19 0.349745)
(9.8182 5.19722e-20 0.454038)
(9.85068 -5.7008e-22 0.426103)
(9.76095 -1.20585e-19 0.53635)
(9.79916 -5.56975e-22 0.507689)
(9.69649 -1.1663e-19 0.625324)
(9.74073 -2.34051e-19 0.595533)
(9.62492 1.29042e-19 0.722054)
(9.67556 3.96043e-23 0.690703)
(9.54632 -8.10575e-21 0.827712)
(9.60369 -1.22614e-19 0.794366)
(9.4608 8.02758e-20 0.943543)
(9.52526 -1.31683e-19 0.907723)
(9.36858 -3.73831e-19 1.07089)
(9.44057 7.22533e-20 1.03204)
(9.26989 -2.63384e-19 1.21125)
(9.34983 -4.30309e-19 1.16876)
(9.16503 2.11909e-19 1.36632)
(9.25335 2.93817e-19 1.31948)
(9.05439 -1.5495e-19 1.53802)
(9.15156 4.48303e-19 1.48598)
(8.93852 -7.73986e-20 1.72855)
(9.045 3.17071e-21 1.67033)
(8.81809 6.77291e-19 1.94046)
(8.93447 -4.73427e-19 1.87492)
(8.69397 -2.46216e-20 2.1767)
(8.82079 6.71246e-19 2.10248)
(8.56734 -7.68123e-19 2.44084)
(8.70494 -1.43208e-18 2.35625)
(8.4397 1.34223e-18 2.73714)
(8.58851 5.83926e-19 2.64015)
(8.31302 1.42509e-18 3.07072)
(8.47345 1.59358e-18 2.9589)
(8.18973 3.04131e-18 3.4478)
(8.36219 1.36371e-18 3.31822)
(8.07282 1.64765e-18 3.8761)
(8.25772 1.52008e-18 3.72515)
(7.96564 2.74406e-19 4.36413)
(8.16369 -2.75703e-18 4.18846)
(7.87198 4.21536e-19 4.92216)
(8.08516 1.76687e-18 4.71703)
(7.79045 -1.40808e-18 5.55589)
(8.01563 -1.09145e-19 5.32756)
(7.72258 -2.83277e-18 6.27607)
(8.01175 -1.73929e-18 5.99146)
(7.61764 -2.6464e-18 7.04217)
(7.8107 -1.22582e-18 6.87083)
(7.38602 2.61233e-18 7.825)
(8.24864 -1.59629e-18 7.33233)
(6.73126 2.12062e-18 8.99245)
(9.99084 2.3167e-20 0.10936)
(9.9955 -1.73435e-19 0.0754317)
(9.97357 -1.98541e-21 0.179589)
(9.98421 2.2738e-20 0.147544)
(9.94867 -2.2568e-19 0.250319)
(9.96471 -7.08926e-20 0.219353)
(9.91639 -2.47205e-19 0.32328)
(9.9372 -1.0014e-19 0.292771)
(9.87702 -1.05897e-19 0.399801)
(9.90264 -1.02891e-19 0.369175)
(9.83082 -5.31282e-20 0.481093)
(9.86155 -5.41531e-20 0.449839)
(9.77797 -1.18176e-19 0.568257)
(9.81415 0 0.535942)
(9.71864 -1.13356e-19 0.662357)
(9.76058 1.14284e-19 0.628543)
(9.653 -2.53857e-19 0.76452)
(9.70099 1.20787e-19 0.728722)
(9.58123 -2.46567e-19 0.875944)
(9.63555 -1.26216e-19 0.837676)
(9.50352 -1.36683e-19 0.99787)
(9.56452 1.28074e-19 0.956622)
(9.42013 8.67303e-21 1.13164)
(9.48822 -1.15069e-21 1.08682)
(9.33143 1.37433e-19 1.27878)
(9.40696 -1.37717e-19 1.2297)
(9.23785 5.32375e-19 1.44099)
(9.32118 5.67589e-19 1.38688)
(9.13997 6.0266e-19 1.62017)
(9.23148 -2.78111e-19 1.56013)
(9.03856 -3.97501e-19 1.81857)
(9.13851 1.28347e-18 1.75148)
(8.93454 -4.695e-19 2.03876)
(9.04345 -1.09142e-18 1.96335)
(8.82893 -7.53877e-19 2.28369)
(8.94726 -1.56124e-19 2.19852)
(8.7231 -6.76165e-20 2.55691)
(8.85107 -7.49201e-19 2.46022)
(8.61898 8.40109e-19 2.86273)
(8.75681 6.74686e-19 2.75226)
(8.51906 1.53575e-18 3.20634)
(8.66684 3.93744e-21 3.07935)
(8.42635 -1.60052e-19 3.59416)
(8.58415 1.36908e-18 3.44735)
(8.3445 -2.86755e-18 4.03407)
(8.51252 -1.54298e-18 3.86345)
(8.27768 -1.32308e-18 4.53521)
(8.45616 -1.33186e-18 4.33672)
(8.23058 1.26404e-18 5.10919)
(8.42189 1.21217e-18 4.87661)
(8.20432 -4.06034e-19 5.76339)
(8.40405 1.03376e-19 5.50099)
(8.19593 1.92171e-20 6.51497)
(8.46404 -1.71611e-18 6.1863)
(8.17833 -1.08462e-18 7.33414)
(8.34213 1.63944e-18 7.09128)
(8.02222 1.60728e-19 8.27491)
(8.8765 -9.9996e-19 7.66637)
(7.42661 -7.17015e-19 9.55966)
(9.99148 -1.7016e-19 0.114872)
(9.99577 -3.56084e-19 0.0789896)
(9.97546 -4.8223e-20 0.188726)
(9.98537 1.90293e-19 0.154541)
(9.95242 5.41377e-20 0.263191)
(9.96745 -4.72292e-20 0.229865)
(9.92265 4.42879e-20 0.340033)
(9.94219 9.84198e-20 0.30693)
(9.88646 -5.01866e-20 0.420586)
(9.91052 -5.11795e-20 0.387109)
(9.84411 0 0.506088)
(9.873 -1.06024e-19 0.471695)
(9.79582 2.3465e-19 0.597668)
(9.82986 2.19319e-19 0.561897)
(9.74179 3.48841e-19 0.696402)
(9.78132 1.90475e-21 0.658785)
(9.68228 2.44741e-19 0.803431)
(9.7275 2.38908e-19 0.763445)
(9.61751 2.52834e-19 0.919966)
(9.66864 2.48305e-19 0.877091)
(9.54778 2.61982e-19 1.04725)
(9.60515 -2.51987e-19 1.00094)
(9.47344 -1.49522e-19 1.18662)
(9.53738 3.96691e-19 1.13624)
(9.39495 3.01722e-19 1.33959)
(9.46578 -4.12123e-19 1.28442)
(9.31289 -2.53794e-19 1.50785)
(9.39087 7.08841e-19 1.44705)
(9.22796 4.1987e-19 1.69326)
(9.31342 -1.09189e-18 1.6259)
(9.14117 5.68366e-19 1.89802)
(9.23425 1.64721e-18 1.82289)
(9.05371 -7.69845e-19 2.12477)
(9.15463 -1.51739e-18 2.04041)
(8.9668 -1.55264e-19 2.37648)
(9.07583 6.08868e-19 2.28139)
(8.88201 0 2.65658)
(8.99943 -6.19365e-19 2.54895)
(8.80164 -1.65687e-19 2.96924)
(8.92749 0 2.84666)
(8.72862 -1.65252e-19 3.3197)
(8.86267 -7.88914e-19 3.17915)
(8.66662 0 3.71445)
(8.80857 -9.30049e-19 3.5522)
(8.6202 0 4.16146)
(8.76968 0 3.973)
(8.59457 1.1727e-18 4.67045)
(8.75133 -5.80463e-19 4.45075)
(8.59597 6.55572e-20 5.25359)
(8.76236 2.29116e-18 4.99489)
(8.62983 -1.17807e-18 5.92052)
(8.79947 -3.25127e-18 5.62297)
(8.69176 0 6.69631)
(8.92726 9.88509e-19 6.32044)
(8.78855 1.72043e-18 7.56701)
(8.9149 0 7.22761)
(8.77418 1.2713e-19 8.73748)
(9.56786 8.63507e-19 7.94207)
(8.27382 -1.45957e-18 10.1904)
(9.99216 1.49649e-20 0.11997)
(9.99606 -4.99763e-19 0.0822671)
(9.97748 1.8629e-19 0.197162)
(9.98658 1.83479e-19 0.160975)
(9.95641 0 0.275051)
(9.97032 -1.75428e-19 0.239515)
(9.92928 0 0.355433)
(9.94741 0 0.319895)
(9.89639 -1.08072e-19 0.439649)
(9.91874 2.37964e-19 0.403491)
(9.85802 1.19229e-19 0.528956)
(9.88488 -1.57617e-19 0.491613)
(9.81445 -1.72893e-20 0.624503)
(9.84612 1.20557e-19 0.58548)
(9.76592 -1.04451e-19 0.727374)
(9.80276 -1.27143e-19 0.686175)
(9.71267 2.42672e-19 0.83871)
(9.75485 1.21955e-19 0.794803)
(9.65502 -2.64399e-19 0.959721)
(9.70271 -1.0309e-19 0.912559)
(9.59337 -1.08191e-19 1.09164)
(9.6469 -2.70117e-19 1.04063)
(9.5282 1.23408e-19 1.2358)
(9.58784 1.45365e-19 1.18027)
(9.46004 9.43776e-21 1.39368)
(9.52605 1.13254e-19 1.33287)
(9.38961 -1.50461e-19 1.56692)
(9.46218 1.3203e-20 1.49997)
(9.31776 1.64809e-19 1.75733)
(9.39718 3.69769e-19 1.68326)
(9.24559 -4.68953e-19 1.96703)
(9.3321 7.24149e-19 1.8846)
(9.17448 -1.20228e-19 2.19863)
(9.26794 -6.42244e-19 2.1063)
(9.10606 1.38881e-19 2.45516)
(9.20631 7.82758e-19 2.35126)
(9.04227 -6.17791e-19 2.73989)
(9.14961 -1.1998e-18 2.62252)
(8.98562 -6.25826e-19 3.05673)
(9.09984 2.85278e-19 2.92341)
(8.93936 -1.55955e-18 3.41077)
(9.06008 -9.26862e-19 3.25835)
(8.90784 -9.3642e-19 3.80825)
(9.03444 -6.69312e-19 3.63274)
(8.89663 -5.77718e-19 4.25711)
(9.0279 5.38044e-19 4.05338)
(8.91243 5.02161e-19 4.76704)
(9.04747 -5.91594e-20 4.52904)
(8.96364 -9.40315e-19 5.3493)
(9.10375 1.13133e-18 5.06813)
(9.06167 -1.20375e-18 6.01535)
(9.19736 -3.0498e-18 5.68552)
(9.20653 1.00131e-18 6.79403)
(9.3944 2.39181e-19 6.37482)
(9.44692 -8.01137e-19 7.69132)
(9.51855 7.67395e-19 7.23968)
(9.69396 -8.10034e-19 9.18558)
(10.3824 -2.47076e-19 8.02729)
(10.3542 -3.18468e-19 10.7372)
(0.194284 6.87982e-21 -0.135359)
(0.098341 -1.47933e-20 -0.140984)
(0.42906 3.89473e-21 -0.122119)
(0.244393 -6.47675e-21 -0.143355)
(0.701538 -7.93359e-21 -0.10484)
(0.489844 2.32827e-20 -0.133235)
(1.00915 -8.11837e-21 -0.094316)
(0.771746 -6.26728e-21 -0.128699)
(1.3315 -3.64337e-21 -0.0881865)
(1.07872 -7.07266e-21 -0.127115)
(1.64162 -1.06455e-21 -0.0835617)
(1.3861 1.37568e-21 -0.125425)
(1.92217 6.44704e-23 -0.0787973)
(1.66808 -2.04581e-22 -0.121267)
(2.16801 0 -0.0734521)
(1.91363 -2.3804e-21 -0.114314)
(2.38015 0 -0.0676527)
(2.12203 1.59635e-21 -0.105444)
(2.56123 0 -0.0616226)
(2.2958 -8.75457e-22 -0.0953343)
(2.71403 0 -0.0555917)
(2.43838 -1.5706e-21 -0.0845095)
(2.84124 0 -0.049859)
(2.5526 0 -0.0734682)
(2.94578 -4.56504e-23 -0.0447404)
(2.64103 1.55799e-22 -0.0627832)
(3.03068 -6.21681e-23 -0.0404031)
(2.70635 1.03886e-22 -0.0528756)
(3.09851 2.7605e-22 -0.0369232)
(2.75067 -1.24362e-23 -0.04385)
(3.15181 3.08766e-22 -0.0343906)
(2.77565 -1.42391e-22 -0.0358808)
(3.19334 5.18906e-22 -0.0326783)
(2.78368 0 -0.0291896)
(3.22504 5.22486e-22 -0.0313169)
(2.77747 -1.27605e-21 -0.0235071)
(3.24843 -8.89071e-22 -0.0297564)
(2.7605 -2.01472e-22 -0.0186141)
(3.26557 -8.95293e-22 -0.0276583)
(2.73836 -4.47825e-23 -0.0149117)
(3.2794 1.27048e-21 -0.0251582)
(2.71786 0 -0.0129843)
(3.29367 1.27887e-21 -0.0229566)
(2.70492 4.76589e-22 -0.013411)
(3.3133 0 -0.0219193)
(2.7045 0 -0.017046)
(3.34412 1.64495e-21 -0.0225823)
(2.72093 0 -0.0245709)
(3.39243 1.65452e-21 -0.025232)
(2.75927 2.15268e-21 -0.0364217)
(3.46557 1.55598e-21 -0.0304608)
(2.82554 -3.15912e-21 -0.053413)
(3.57266 1.59217e-21 -0.0396147)
(2.9269 4.00767e-21 -0.0769301)
(3.72531 -1.05451e-21 -0.0546305)
(3.0714 -4.85979e-23 -0.108867)
(3.93736 -1.02762e-21 -0.0770133)
(3.26803 1.68512e-21 -0.151227)
(3.59478 -1.31603e-23 -0.203531)
(0.0990561 -2.8433e-20 -0.207346)
(0.0393988 -5.04256e-20 -0.238032)
(0.292937 1.37811e-20 -0.213751)
(0.110015 -2.65237e-20 -0.257474)
(0.549418 2.18019e-20 -0.204844)
(0.329536 4.62572e-20 -0.254076)
(0.843029 -1.27089e-20 -0.20094)
(0.577068 -6.62155e-22 -0.249004)
(1.14491 -6.32106e-21 -0.197954)
(0.844261 9.69298e-22 -0.245676)
(1.42537 9.33367e-22 -0.192224)
(1.10156 -1.00751e-20 -0.240054)
(1.66905 -2.65422e-21 -0.182539)
(1.32545 -3.67615e-21 -0.22913)
(1.87355 -3.22525e-23 -0.169492)
(1.50871 2.53919e-21 -0.213324)
(2.04088 6.86961e-22 -0.154201)
(1.65236 1.61956e-21 -0.194043)