/*--------------------------------*- C++ -*----------------------------------*\
| =========                 |                                                 |
| \\      /  F ield         | OpenFOAM: The Open Source CFD Toolbox           |
|  \\    /   O peration     | Version:  dev                                   |
|   \\  /    A nd           | Web:      www.OpenFOAM.org                      |
|    \\/     M anipulation  |                                                 |
\*---------------------------------------------------------------------------*/
FoamFile
{
    version     2.0;
    format      ascii;
    class       volScalarField;
    location    "4.46";
    object      p;
}
// * * * * * * * * * * * * * * * * * * * * * * * * * * * * * * * * * * * * * //

dimensions      [0 2 -2 0 0 0 0];

internalField   nonuniform List<scalar> 
465
(
129.944
129.982
129.332
129.36
129.468
128.684
128.702
128.787
128.983
128.001
128.009
128.07
128.232
128.462
127.285
127.282
127.32
127.445
127.629
127.837
126.537
126.524
126.537
126.626
126.762
126.912
127.063
125.759
125.736
125.724
125.777
125.865
125.957
126.039
126.105
126.143
124.955
124.921
124.885
124.901
124.942
124.977
124.991
124.979
124.93
124.83
124.127
124.082
124.022
124.002
123.997
123.975
123.923
123.835
123.701
123.508
123.241
122.881
123.279
123.223
123.14
123.084
123.034
122.957
122.841
122.68
122.466
122.184
121.821
121.359
120.782
120.069
122.413
122.348
122.241
122.151
122.057
121.927
121.75
121.52
121.229
120.864
120.412
119.858
119.185
118.374
117.407
121.535
121.46
121.331
121.208
121.072
120.892
120.656
120.361
119.998
119.556
119.023
118.385
117.626
116.731
115.683
114.464
113.055
120.648
120.564
120.414
120.26
120.084
119.856
119.566
119.21
118.781
118.269
117.662
116.948
116.115
115.148
114.032
112.754
111.298
109.651
107.799
119.758
119.665
119.496
119.312
119.098
118.826
118.485
118.073
117.583
117.007
116.335
115.556
114.658
113.63
112.46
111.137
109.649
107.985
106.137
104.097
101.862
118.869
118.768
118.581
118.369
118.121
117.807
117.42
116.957
116.412
115.78
115.049
114.213
113.261
112.183
110.971
109.615
108.107
106.439
104.606
102.604
100.431
117.987
117.879
117.675
117.438
117.157
116.806
116.376
115.867
115.274
114.591
113.811
112.926
111.929
110.812
109.568
108.19
106.672
105.01
103.2
101.242
117.119
117.004
116.784
116.524
116.213
115.828
115.361
114.81
114.175
113.448
112.625
111.7
110.667
109.519
108.252
106.861
105.343
103.694
101.913
100.002
116.268
116.147
115.914
115.633
115.296
114.88
114.379
113.793
113.12
112.356
111.497
110.539
109.477
108.307
107.025
105.629
104.116
102.486
100.739
98.8774
115.443
115.317
115.071
114.771
114.41
113.968
113.437
112.819
112.114
111.32
110.432
109.447
108.363
107.177
105.887
104.491
102.989
101.382
99.6707
97.8589
114.649
114.518
114.261
113.944
113.563
113.097
112.541
111.896
111.165
110.344
109.432
108.427
107.327
106.131
104.838
103.447
101.96
100.378
98.7034
96.9403
113.893
113.758
113.491
113.16
112.761
112.274
111.696
111.029
110.275
109.433
108.503
107.482
106.371
105.169
103.877
102.496
101.026
99.4701
97.832
96.1155
113.181
113.043
112.768
112.424
112.01
111.505
110.909
110.223
109.451
108.592
107.647
106.615
105.498
104.294
103.006
101.636
100.184
98.6554
97.0524
95.3799
112.522
112.38
112.099
111.744
111.315
110.797
110.185
109.484
108.697
107.825
106.869
105.83
104.708
103.506
102.224
100.866
99.4339
97.9309
96.3611
94.7292
111.922
111.777
111.489
111.125
110.685
110.154
109.529
108.816
108.017
107.136
106.172
105.128
104.006
102.806
101.533
100.188
98.7739
97.2954
95.7563
94.1611
111.389
111.242
110.948
110.575
110.125
109.584
108.949
108.225
107.418
106.529
105.56
104.514
103.391
102.196
100.931
99.5987
98.2026
96.7467
95.2351
93.6726
110.931
110.781
110.481
110.1
109.642
109.092
108.449
107.719
106.905
106.01
105.038
103.991
102.87
101.68
100.423
99.1029
97.7228
96.2869
94.7994
93.265
110.557
110.404
110.096
109.707
109.241
108.684
108.035
107.298
106.479
105.581
104.607
103.56
102.442
101.257
100.007
98.6977
97.3314
95.9125
94.4453
92.9343
110.28
110.118
109.801
109.405
108.934
108.373
107.718
106.977
106.155
105.254
104.279
103.232
102.117
100.936
99.6933
98.3926
97.0376
95.6324
94.1813
92.6889
110.114
109.924
109.59
109.188
108.715
108.15
107.493
106.749
105.925
105.024
104.049
103.003
101.89
100.713
99.4753
98.1811
96.8342
95.4387
93.9988
92.519
110.098
109.856
109.497
109.089
108.611
108.043
107.382
106.637
105.811
104.91
103.935
102.891
101.779
100.605
99.3713
98.0819
96.7408
95.3521
93.9199
92.4487
)
;

boundaryField
{
    inlet
    {
        type            zeroGradient;
    }
    outlet
    {
        type            fixedValue;
        value           nonuniform 0();
    }
    flap
    {
        type            zeroGradient;
    }
    upperWall
    {
        type            zeroGradient;
    }
    lowerWall
    {
        type            zeroGradient;
    }
    frontAndBack
    {
        type            empty;
    }
    procBoundary0to1
    {
        type            processor;
        value           nonuniform List<scalar> 
18
(
99.4297
98.0905
99.1357
99.1357
97.9638
96.9053
95.9511
95.0936
94.3261
93.6432
93.0405
92.5153
92.0643
91.6888
91.3845
91.1599
91.0042
90.9433
)
;
    }
    procBoundary0to3
    {
        type            processor;
        value           nonuniform List<scalar> 
34
(
130.516
130.562
130.111
130.111
129.698
129.698
129.26
129.26
128.728
128.728
128.056
128.056
127.207
127.207
127.335
126.141
126.141
124.664
124.664
124.414
122.41
122.41
121.807
119.198
119.198
116.263
116.263
114.918
111.44
111.44
109.598
105.732
105.732
103.44
)
;
    }
}


// ************************************************************************* //
