/*--------------------------------*- C++ -*----------------------------------*\
| =========                 |                                                 |
| \\      /  F ield         | OpenFOAM: The Open Source CFD Toolbox           |
|  \\    /   O peration     | Version:  dev                                   |
|   \\  /    A nd           | Web:      www.OpenFOAM.org                      |
|    \\/     M anipulation  |                                                 |
\*---------------------------------------------------------------------------*/
FoamFile
{
    version     2.0;
    format      ascii;
    class       surfaceScalarField;
    location    "3.19";
    object      meshPhi;
}
// * * * * * * * * * * * * * * * * * * * * * * * * * * * * * * * * * * * * * //

dimensions      [0 3 -1 0 0 0 0];

internalField   nonuniform List<scalar> 
5457
(
-8.16271e-06
1.75028e-07
-1.38248e-05
4.80115e-07
-1.57707e-05
6.94831e-07
-1.37862e-05
8.10524e-07
-8.2074e-06
8.31269e-07
2.63184e-07
7.66237e-07
1.06959e-05
6.28412e-07
2.20527e-05
4.34019e-07
3.3292e-05
2.01921e-07
4.34599e-05
-4.72844e-08
5.17689e-05
-2.92497e-07
5.76565e-05
-5.13724e-07
6.08203e-05
-6.9389e-07
6.12264e-05
-8.20533e-07
5.90896e-05
-8.8695e-07
5.48272e-05
-8.92878e-07
4.89926e-05
-8.44584e-07
4.2199e-05
-7.53653e-07
3.50454e-05
-6.34859e-07
2.80565e-05
-5.03871e-07
2.15134e-05
-3.76101e-07
1.56318e-05
-2.63281e-07
1.07193e-05
-1.70953e-07
6.89158e-06
-1.01362e-07
4.07634e-06
-5.39278e-08
2.14766e-06
-2.49573e-08
9.4952e-07
-9.49741e-09
3.1241e-07
-2.58802e-09
6.20464e-08
-2.1195e-10
2.13845e-11
-8.38492e-06
3.52519e-07
-1.42107e-05
9.67088e-07
-1.62616e-05
1.40009e-06
-1.43338e-05
1.63446e-06
-8.76703e-06
1.67848e-06
-2.67416e-07
1.55044e-06
1.0231e-05
1.27618e-06
2.16841e-05
8.87963e-07
3.30423e-05
4.23408e-07
4.33423e-05
-7.63578e-08
5.17856e-05
-5.69084e-07
5.77996e-05
-1.01462e-06
6.10723e-05
-1.37858e-06
6.15626e-05
-1.63579e-06
5.94818e-05
-1.7725e-06
5.52469e-05
-1.78774e-06
4.94141e-05
-1.69385e-06
4.2602e-05
-1.51403e-06
3.54155e-05
-1.2779e-06
2.83833e-05
-1.01703e-06
2.17971e-05
-7.61865e-07
1.58631e-05
-5.35265e-07
1.08896e-05
-3.48842e-07
7.01121e-06
-2.07971e-07
4.15452e-06
-1.11687e-07
2.19333e-06
-5.25667e-08
9.71894e-07
-2.0652e-08
3.20661e-07
-6.04965e-09
6.40361e-08
-8.07023e-10
-1.09571e-11
-8.6393e-06
5.33305e-07
-1.46656e-05
1.4634e-06
-1.68643e-05
2.11999e-06
-1.50399e-05
2.47802e-06
-9.53466e-06
2.5502e-06
-1.05575e-06
2.3639e-06
9.46271e-06
1.95752e-06
2.09753e-05
1.37907e-06
3.24294e-05
6.84539e-07
4.28556e-05
-6.47812e-08
5.14473e-05
-8.05742e-07
5.76234e-05
-1.47815e-06
6.10612e-05
-2.0302e-06
6.17079e-05
-2.42352e-06
5.97652e-05
-2.63686e-06
5.56427e-05
-2.66861e-06
4.98918e-05
-2.53686e-06
4.31303e-05
-2.27564e-06
3.59643e-05
-1.92892e-06
2.89261e-05
-1.5439e-06
2.22986e-05
-1.16482e-06
1.6282e-05
-8.24276e-07
1.12109e-05
-5.41204e-07
7.24339e-06
-3.26028e-07
4.30886e-06
-1.77992e-07
2.2836e-06
-8.59973e-08
1.01548e-06
-3.52622e-08
3.36295e-07
-1.12122e-08
6.7622e-08
-2.0819e-09
-1.92019e-10
-8.90606e-06
7.17964e-07
-1.51599e-05
1.97089e-06
-1.75455e-05
2.85796e-06
-1.58724e-05
3.34656e-06
-1.04842e-05
3.45416e-06
-2.08587e-06
3.21722e-06
8.39343e-06
2.68627e-06
1.99124e-05
1.92452e-06
3.14217e-05
1.00576e-06
4.19519e-05
1.07518e-08
5.06909e-05
-9.7677e-07
5.70525e-05
-1.87699e-06
6.0704e-05
-2.62116e-06
6.15774e-05
-3.15735e-06
5.9858e-05
-3.45653e-06
5.59397e-05
-3.51636e-06
5.03612e-05
-3.35972e-06
4.37308e-05
-3.03016e-06
3.66503e-05
-2.58496e-06
2.96525e-05
-2.08614e-06
2.29921e-05
-1.58973e-06
1.68679e-05
-1.13614e-06
1.16666e-05
-7.53393e-07
7.57468e-06
-4.59815e-07
4.52954e-06
-2.55922e-07
2.41264e-06
-1.27261e-07
1.07715e-06
-5.44858e-08
3.57835e-07
-1.85872e-08
7.23303e-08
-4.17606e-09
-5.4349e-10
-9.23825e-06
9.07426e-07
-1.57829e-05
2.49233e-06
-1.84129e-05
3.61863e-06
-1.69426e-05
4.24676e-06
-1.17177e-05
4.39937e-06
-3.44073e-06
4.12205e-06
6.96774e-06
3.47687e-06
1.84732e-05
2.54122e-06
3.00298e-05
1.40649e-06
4.06723e-05
1.72627e-07
4.95856e-05
-1.05752e-06
5.61756e-05
-2.18556e-06
6.00984e-05
-3.12611e-06
6.12678e-05
-3.81405e-06
5.98472e-05
-4.21232e-06
5.6209e-05
-4.31629e-06
5.08736e-05
-4.15206e-06
4.44345e-05
-3.77146e-06
3.74843e-05
-3.24371e-06
3.05542e-05
-2.64455e-06
2.38609e-05
-2.03938e-06
1.76021e-05
-1.47415e-06
1.22341e-05
-9.88104e-07
7.98196e-06
-6.11098e-07
4.79663e-06
-3.46356e-07
2.56748e-06
-1.76662e-07
1.15072e-06
-7.83904e-08
3.82961e-07
-2.81778e-08
7.75178e-08
-7.05001e-09
-1.04568e-09
-9.63822e-06
1.1025e-06
-1.65372e-05
3.03013e-06
-1.94682e-05
4.40601e-06
-1.82518e-05
5.18435e-06
-1.32364e-05
5.3936e-06
-5.12182e-06
5.08812e-06
5.18108e-06
4.34105e-06
1.66492e-05
3.24392e-06
2.82408e-05
1.90479e-06
3.89963e-05
4.41752e-07
4.81044e-05
-1.02497e-06
5.49601e-05
-2.3799e-06
5.92045e-05
-3.52134e-06
6.07321e-05
-4.37118e-06
5.96807e-05
-4.88383e-06
5.63962e-05
-5.05072e-06
5.13739e-05
-4.89955e-06
4.51871e-05
-4.48879e-06
3.84144e-05
-3.89779e-06
3.15823e-05
-3.21454e-06
2.4861e-05
-2.51119e-06
1.84461e-05
-1.83681e-06
1.28799e-05
-1.24415e-06
8.438e-06
-7.78738e-07
5.08857e-06
-4.48238e-07
2.7324e-06
-2.33203e-07
1.22758e-06
-1.0616e-07
4.08465e-07
-3.949e-08
8.23717e-08
-1.04871e-08
-1.64136e-09
-1.01073e-05
1.30387e-06
-1.74237e-05
3.58626e-06
-2.07117e-05
5.22337e-06
-1.97991e-05
6.16398e-06
-1.50394e-05
6.44275e-06
-7.12934e-06
6.12264e-06
3.03042e-06
5.2883e-06
1.44312e-05
4.0456e-06
2.60413e-05
2.51745e-06
3.69047e-05
8.37659e-07
4.62167e-05
-8.57395e-07
5.33656e-05
-2.43639e-06
5.79732e-05
-3.78183e-06
5.99127e-05
-4.80275e-06
5.9294e-05
-5.44475e-06
5.64308e-05
-5.69433e-06
5.17879e-05
-5.57899e-06
4.59139e-05
-5.16186e-06
3.93682e-05
-4.53045e-06
3.26674e-05
-3.78277e-06
2.59287e-05
-2.99443e-06
1.93453e-05
-2.21549e-06
1.35596e-05
-1.51468e-06
8.90913e-06
-9.57437e-07
5.38171e-06
-5.57662e-07
2.89139e-06
-2.94186e-07
1.29814e-06
-1.36083e-07
4.30406e-07
-5.15898e-08
8.60173e-08
-1.41135e-08
-2.24329e-09
-1.06468e-05
1.5121e-06
-1.84437e-05
4.1623e-06
-2.21433e-05
6.07321e-06
-2.15838e-05
7.18917e-06
-1.71259e-05
7.55124e-06
-9.46414e-06
7.23202e-06
5.13855e-07
6.32848e-06
1.18148e-05
4.95901e-06
2.34195e-05
3.25964e-06
3.43782e-05
1.37833e-06
4.38925e-05
-5.33691e-07
5.13495e-05
-2.33035e-06
5.63517e-05
-3.88019e-06
5.87459e-05
-5.07987e-06
5.86119e-05
-5.8654e-06
5.62275e-05
-6.21733e-06
5.20226e-05
-6.16137e-06
4.65167e-05
-5.76311e-06
4.02472e-05
-5.11623e-06
3.37164e-05
-4.32672e-06
2.69799e-05
-3.47015e-06
2.0228e-05
-2.59467e-06
1.42157e-05
-1.78739e-06
9.35208e-06
-1.13781e-06
5.64654e-06
-6.67846e-07
3.02645e-06
-3.55077e-07
1.35268e-06
-1.6545e-07
4.4502e-07
-6.3145e-08
8.76599e-08
-1.74443e-08
-2.76028e-09
-1.12584e-05
1.7276e-06
-1.95983e-05
4.75942e-06
-2.37628e-05
6.95726e-06
-2.36048e-05
8.26233e-06
-1.94941e-05
8.72315e-06
-1.21247e-05
8.4227e-06
-2.36963e-06
7.47017e-06
8.79643e-06
5.99466e-06
2.03647e-05
4.14392e-06
3.13963e-05
2.07937e-06
4.11016e-05
-3.46019e-08
4.88672e-05
-2.03922e-06
5.42806e-05
-3.7909e-06
5.7159e-05
-5.1746e-06
5.75486e-05
-6.11616e-06
5.56888e-05
-6.58911e-06
5.1971e-05
-6.61576e-06
4.68801e-05
-6.26182e-06
4.09305e-05
-5.62454e-06
3.46113e-05
-4.81646e-06
2.79101e-05
-3.9111e-06
2.10077e-05
-2.95191e-06
1.47801e-05
-2.04481e-06
9.71717e-06
-1.30677e-06
5.84979e-06
-7.69558e-07
3.11799e-06
-4.09872e-07
1.38182e-06
-1.90824e-07
4.49059e-07
-7.25505e-08
8.6604e-08
-1.99267e-08
-3.08994e-09
-1.19442e-05
1.95074e-06
-2.08895e-05
5.37845e-06
-2.55694e-05
7.8765e-06
-2.58592e-05
9.38467e-06
-2.21404e-05
9.96073e-06
-1.5107e-05
9.69836e-06
-5.61872e-06
8.71824e-06
5.37156e-06
7.15943e-06
1.68666e-05
5.17999e-06
2.79384e-05
2.95372e-06
3.78117e-05
6.56339e-07
4.58732e-05
-1.54338e-06
5.16964e-05
-3.49083e-06
5.5072e-05
-5.05995e-06
5.60095e-05
-6.16677e-06
5.47078e-05
-6.77704e-06
5.15163e-05
-6.90801e-06
4.68816e-05
-6.62328e-06
4.12912e-05
-6.02104e-06
3.52213e-05
-5.21792e-06
2.85977e-05
-4.28461e-06
2.1586e-05
-3.25901e-06
1.51787e-05
-2.26509e-06
9.95184e-06
-1.44843e-06
5.95761e-06
-8.5183e-07
3.14698e-06
-4.51609e-07
1.37683e-06
-2.08332e-07
4.39543e-07
-7.80479e-08
8.21416e-08
-2.09631e-08
-3.11993e-09
-1.27077e-05
2.18183e-06
-2.23202e-05
6.01997e-06
-2.75617e-05
8.83118e-06
-2.83414e-05
1.0556e-05
-2.50571e-05
1.12636e-05
-1.84037e-05
1.10591e-05
-9.2281e-06
1.0074e-05
1.53842e-06
8.45688e-06
1.29154e-05
6.37452e-06
2.39864e-05
4.01102e-06
3.39923e-05
1.55186e-06
4.23237e-05
-8.25985e-07
4.85401e-05
-2.95867e-06
5.24082e-05
-4.71018e-06
5.39012e-05
-5.98718e-06
5.31761e-05
-6.74728e-06
5.05383e-05
-7.00136e-06
4.63943e-05
-6.809e-06
4.12002e-05
-6.26702e-06
3.54153e-05
-5.49354e-06
2.89174e-05
-4.5553e-06
2.18599e-05
-3.48509e-06
1.53363e-05
-2.42415e-06
1.00046e-05
-1.54536e-06
5.93777e-06
-9.0274e-07
3.09566e-06
-4.72775e-07
1.32943e-06
-2.13786e-07
4.13351e-07
-7.76988e-08
7.32802e-08
-1.98576e-08
-2.70677e-09
-1.35542e-05
2.42122e-06
-2.38949e-05
6.68451e-06
-2.97379e-05
9.82091e-06
-3.10438e-05
1.17747e-05
-2.8233e-05
1.26295e-05
-2.20022e-05
1.25022e-05
-1.31871e-05
1.15354e-05
-2.6975e-06
9.88645e-06
8.50841e-06
7.72935e-06
1.95296e-05
5.25614e-06
2.96224e-05
2.6601e-06
3.81833e-05
1.25115e-07
4.4761e-05
-2.17741e-06
4.90996e-05
-4.10305e-06
5.11379e-05
-5.55002e-06
5.09915e-05
-6.46775e-06
4.89215e-05
-6.85988e-06
4.52926e-05
-6.78039e-06
4.05283e-05
-6.32268e-06
3.50664e-05
-5.60399e-06
2.87522e-05
-4.68658e-06
2.17343e-05
-3.59901e-06
1.51838e-05
-2.49768e-06
9.82851e-06
-1.57977e-06
5.76066e-06
-9.09924e-07
2.94679e-06
-4.65313e-07
1.23031e-06
-2.02396e-07
3.65974e-07
-6.90561e-08
5.80676e-08
-1.56062e-08
-1.59662e-09
-1.44923e-05
2.66946e-06
-2.56214e-05
7.37283e-06
-3.20957e-05
1.08449e-05
-3.39568e-05
1.30379e-05
-3.1653e-05
1.4054e-05
-2.58853e-05
1.40225e-05
-1.74792e-05
1.30973e-05
-7.32198e-06
1.14436e-05
3.65398e-06
9.24134e-06
1.45683e-05
6.68815e-06
2.46924e-05
3.98341e-06
3.34291e-05
1.31641e-06
4.03203e-05
-1.1357e-06
4.50905e-05
-3.2219e-06
4.76468e-05
-4.83308e-06
4.80653e-05
-5.91095e-06
4.65636e-05
-6.45157e-06
4.34653e-05
-6.50216e-06
3.91599e-05
-6.15098e-06
3.4062e-05
-5.51226e-06
2.80022e-05
-4.6438e-06
2.11295e-05
-3.57118e-06
1.46625e-05
-2.46245e-06
9.38254e-06
-1.53419e-06
5.39829e-06
-8.60533e-07
2.68084e-06
-4.19995e-07
1.06574e-06
-1.67837e-07
2.8869e-07
-4.83064e-08
3.18561e-08
-6.36049e-09
7.74161e-10
-1.55337e-05
2.92741e-06
-2.75108e-05
8.08624e-06
-3.46311e-05
1.19019e-05
-3.70678e-05
1.43412e-05
-3.52984e-05
1.55305e-05
-3.00304e-05
1.5612e-05
-2.20811e-05
1.47508e-05
-1.23136e-05
1.31199e-05
-1.62944e-06
1.09028e-05
9.11477e-06
8.30081e-06
1.92049e-05
5.51803e-06
2.80524e-05
2.74772e-06
3.51957e-05
1.70689e-07
4.03435e-05
-2.05735e-06
4.33753e-05
-3.82149e-06
4.43305e-05
-5.05661e-06
4.33862e-05
-5.75134e-06
4.08262e-05
-5.94553e-06
3.70064e-05
-5.72104e-06
3.23174e-05
-5.18724e-06
2.65932e-05
-4.39776e-06
1.99857e-05
-3.37615e-06
1.37274e-05
-2.29761e-06
8.63205e-06
-1.39178e-06
4.82192e-06
-7.40702e-07
2.27162e-06
-3.25141e-07
8.11471e-07
-1.00423e-07
1.61569e-07
-8.27467e-09
-1.73004e-08
1.19041e-08
5.85704e-09
-1.65676e-05
3.1684e-06
-2.94992e-05
8.78384e-06
-3.73538e-05
1.29812e-05
-4.03728e-05
1.56896e-05
-3.91624e-05
1.7062e-05
-3.44304e-05
1.72743e-05
-2.69872e-05
1.65002e-05
-1.76701e-05
1.49196e-05
-7.34362e-06
1.27185e-05
3.16228e-06
1.00997e-05
1.3146e-05
7.27084e-06
2.203e-05
4.42809e-06
2.9354e-05
1.75376e-06
3.48151e-05
-5.93917e-07
3.82695e-05
-2.49602e-06
3.97246e-05
-3.88182e-06
3.93203e-05
-4.73309e-06
3.73036e-05
-5.08221e-06
3.39984e-05
-5.00375e-06
2.97711e-05
-4.60078e-06
2.44728e-05
-3.92261e-06
1.82596e-05
-2.99102e-06
1.23423e-05
-1.98309e-06
7.54337e-06
-1.13451e-06
3.99602e-06
-5.33288e-07
1.67877e-06
-1.63689e-07
4.21016e-07
1.72906e-08
-6.54502e-08
6.84011e-08
-1.32935e-07
5.25995e-08
2.35365e-08
-1.72863e-07
4.38516e-11
-9.05505e-07
-2.94158e-10
-2.96132e-06
1.86718e-10
-7.08025e-06
2.18765e-09
-1.37978e-05
9.96931e-09
-2.33355e-05
3.29997e-08
-3.56181e-05
8.57925e-08
-5.03618e-05
1.84586e-07
-6.71649e-05
3.45173e-07
-8.4014e-05
5.75212e-07
-9.92151e-05
8.73991e-07
-0.000113277
1.23467e-06
-0.00012642
1.63978e-06
-0.000138258
2.06224e-06
-0.000148395
2.47528e-06
-0.00015645
2.85332e-06
-0.000162088
3.17261e-06
-0.000165045
3.41817e-06
-0.00016515
3.58104e-06
-0.000162335
3.65803e-06
-0.000156627
3.65065e-06
-0.000148139
3.56345e-06
-0.000137047
3.40195e-06
-0.000123553
3.17118e-06
-0.000107856
2.87434e-06
-9.01199e-05
2.51248e-06
-7.04456e-05
2.08411e-06
-4.88554e-05
1.5852e-06
-2.5254e-05
1.0085e-06
3.52011e-07
-1.77062e-07
-1.90803e-11
-9.25978e-07
-6.24739e-10
-3.01232e-06
-1.66628e-11
-7.16335e-06
3.85922e-09
-1.3892e-05
2.01418e-08
-2.3401e-05
6.80443e-08
-3.5612e-05
1.75993e-07
-5.0241e-05
3.7688e-07
-6.68557e-05
7.01056e-07
-8.36523e-05
1.16235e-06
-9.88803e-05
1.75836e-06
-0.000112901
2.47652e-06
-0.000126058
3.27804e-06
-0.000137937
4.10975e-06
-0.000148125
4.92274e-06
-0.00015623
5.6657e-06
-0.000161913
6.2947e-06
-0.000164905
6.7788e-06
-0.000165034
7.10045e-06
-0.000162232
7.25109e-06
-0.000156528
7.23504e-06
-0.000148039
7.06326e-06
-0.000136944
6.74466e-06
-0.00012345
6.28888e-06
-0.000107757
5.70182e-06
-9.00295e-05
4.98535e-06
-7.03706e-05
4.13629e-06
-4.88043e-05
3.14671e-06
-2.52311e-05
2.00229e-06
6.99017e-07
-1.80638e-07
-1.68464e-11
-9.41735e-07
-6.54148e-10
-3.03964e-06
4.94692e-10
-7.16892e-06
7.66283e-09
-1.38033e-05
3.56608e-08
-2.31277e-05
1.13181e-07
-3.50726e-05
2.81828e-07
-4.93716e-05
5.90356e-07
-6.5607e-05
1.08155e-06
-8.21634e-05
1.77291e-06
-9.72973e-05
2.65757e-06
-0.000111261
3.71711e-06
-0.000124453
4.89673e-06
-0.000136431
6.11893e-06
-0.00014675
7.30946e-06
-0.000154999
8.39578e-06
-0.000160828
9.31888e-06
-0.000163959
1.00307e-05
-0.000164214
1.05059e-05
-0.000161523
1.07345e-05
-0.00015592
1.07181e-05
-0.000147521
1.04687e-05
-0.000136505
1.00014e-05
-0.000123082
9.33069e-06
-0.000107456
8.46411e-06
-8.97917e-05
7.40406e-06
-7.0193e-05
6.14536e-06
-4.86873e-05
4.67622e-06
-2.51747e-05
2.97578e-06
1.03891e-06
-1.82179e-07
6.69182e-11
-9.45758e-07
-1.96023e-10
-3.02325e-06
2.61426e-09
-7.0572e-06
1.58562e-08
-1.34769e-05
6.06033e-08
-2.24612e-05
1.74964e-07
-3.39599e-05
4.13444e-07
-4.7738e-05
8.37294e-07
-6.34264e-05
1.49929e-06
-7.9558e-05
2.41783e-06
-9.44893e-05
3.57928e-06
-0.000108405
4.95605e-06
-0.000121656
6.48248e-06
-0.000133778
8.06396e-06
-0.000144297
9.60314e-06
-0.000152774
1.10086e-05
-0.00015884
1.22058e-05
-0.000162207
1.31349e-05
-0.000162686
1.37613e-05
-0.000160207
1.40733e-05
-0.000154802
1.40674e-05
-0.000146582
1.37529e-05
-0.00013573
1.31515e-05
-0.000122454
1.22791e-05
-0.000106959
1.11465e-05
-8.94115e-05
9.75678e-06
-6.99163e-05
8.10206e-06
-4.85028e-05
6.16692e-06
-2.50791e-05
3.92457e-06
1.37003e-06
-1.82312e-07
2.26304e-10
-9.41183e-07
8.08812e-10
-2.97367e-06
6.78085e-09
-6.86131e-06
2.96168e-08
-1.29935e-05
9.73522e-08
-2.15478e-05
2.57762e-07
-3.24952e-05
5.76305e-07
-4.56407e-05
1.12378e-06
-6.06632e-05
1.96004e-06
-7.62614e-05
3.10148e-06
-9.09438e-05
4.52359e-06
-0.00010482
6.18827e-06
-0.000118146
8.02408e-06
-0.000130436
9.92508e-06
-0.000141189
1.17767e-05
-0.00014994
1.3471e-05
-0.000156293
1.49175e-05
-0.000159949
1.60496e-05
-0.000160714
1.68223e-05
-0.000158506
1.72158e-05
-0.000153352
1.72268e-05
-0.000145364
1.68643e-05
-0.000134724
1.61481e-05
-0.000121639
1.50946e-05
-0.000106315
1.37169e-05
-8.89204e-05
1.20164e-05
-6.95591e-05
9.98443e-06
-4.82644e-05
7.60287e-06
-2.4955e-05
4.83932e-06
1.68938e-06
-1.80719e-07
4.81843e-10
-9.26345e-07
2.54898e-09
-2.89116e-06
1.37611e-08
-6.59605e-06
5.07549e-08
-1.2395e-05
1.49029e-07
-2.04646e-05
3.65526e-07
-3.08002e-05
7.74176e-07
-4.32533e-05
1.45292e-06
-5.75472e-05
2.4651e-06
-7.25473e-05
3.8211e-06
-8.69418e-05
5.48247e-06
-0.000100769
7.40476e-06
-0.00011417
9.51448e-06
-0.000126631
1.16949e-05
-0.000137627
1.38193e-05
-0.000146667
1.5767e-05
-0.000153334
1.74355e-05
-0.000157311
1.87487e-05
-0.000158395
1.96541e-05
-0.000156493
2.01253e-05
-0.000151627
2.01599e-05
-0.000143912
1.97644e-05
-0.000133521
1.89509e-05
-0.000120662
1.77398e-05
-0.000105546
1.61435e-05
-8.83339e-05
1.41584e-05
-6.91323e-05
1.17738e-05
-4.79819e-05
8.9701e-06
-2.48117e-05
5.71134e-06
1.99401e-06
-1.77307e-07
8.57102e-10
-9.01687e-07
5.24539e-09
-2.78253e-06
2.42892e-08
-6.28451e-06
8.08392e-08
-1.17296e-05
2.17923e-07
-1.92948e-05
5.00369e-07
-2.90033e-05
1.00839e-06
-4.07531e-05
1.82411e-06
-5.43056e-05
3.01128e-06
-6.86844e-05
4.57066e-06
-8.27668e-05
6.4503e-06
-9.65252e-05
8.60174e-06
-0.000109978
1.09491e-05
-0.000122587
1.33688e-05
-0.000133806
1.57262e-05
-0.000143124
1.78916e-05
-0.000150101
1.97532e-05
-0.000154404
2.12253e-05
-0.000155816
2.22498e-05
-0.000154236
2.27961e-05
-0.000149682
2.2858e-05
-0.000142264
2.24398e-05
-0.000132149
2.15474e-05
-0.000119547
2.01986e-05
-0.000104667
1.84066e-05
-8.76651e-05
1.61659e-05
-6.86463e-05
1.34585e-05
-4.76606e-05
1.02608e-05
-2.465e-05
6.53562e-06
2.28215e-06
-1.7241e-07
1.39904e-09
-8.70245e-07
9.12293e-09
-2.65906e-06
3.90058e-08
-5.9539e-06
1.21026e-07
-1.10495e-05
3.05394e-07
-1.81257e-05
6.63139e-07
-2.72321e-05
1.27832e-06
-3.8308e-05
2.23431e-06
-5.11496e-05
3.59319e-06
-6.49254e-05
5.34515e-06
-7.86885e-05
7.42358e-06
-9.23502e-05
9.77473e-06
-0.000105815
1.23228e-05
-0.000118528
1.49424e-05
-0.000129926
1.74939e-05
-0.00013948
1.98416e-05
-0.000146736
2.18672e-05
-0.000151343
2.34781e-05
-0.00015307
2.46104e-05
-0.000151812
2.52283e-05
-0.000147578
2.53199e-05
-0.000140468
2.48872e-05
-0.000130644
2.3934e-05
-0.000118315
2.24683e-05
-0.00010369
2.05013e-05
-8.69225e-05
1.80299e-05
-6.81094e-05
1.50297e-05
-4.73065e-05
1.14691e-05
-2.44721e-05
7.30849e-06
2.55248e-06
-1.66782e-07
2.1496e-09
-8.36752e-07
1.44253e-08
-2.53529e-06
5.86193e-08
-5.6355e-06
1.72442e-07
-1.04105e-05
4.12399e-07
-1.70434e-05
8.53769e-07
-2.56071e-05
1.58216e-06
-3.60729e-05
2.6799e-06
-4.82696e-05
4.20561e-06
-6.149e-05
6.13879e-06
-7.4936e-05
8.39645e-06
-8.84672e-05
1.09183e-05
-0.000101893
1.36322e-05
-0.00011465
1.64144e-05
-0.000126164
1.91229e-05
-0.000135895
2.16192e-05
-0.000143375
2.37809e-05
-0.000148242
2.55102e-05
-0.000150255
2.67382e-05
-0.000149298
2.74234e-05
-0.000145373
2.75481e-05
-0.000138571
2.71093e-05
-0.000129046
2.61096e-05
-0.000116997
2.4548e-05
-0.000102633
2.24284e-05
-8.61141e-05
1.97489e-05
-6.75284e-05
1.64832e-05
-4.69264e-05
1.2591e-05
-2.42807e-05
8.02764e-06
2.80415e-06
-1.61565e-07
3.15854e-09
-8.07451e-07
2.14657e-08
-2.42857e-06
8.40083e-08
-5.36354e-06
2.3631e-07
-9.86842e-06
5.39711e-07
-1.61288e-05
1.07179e-06
-2.42347e-05
1.91782e-06
-3.41814e-05
3.15729e-06
-4.58238e-05
4.84394e-06
-5.85527e-05
6.94601e-06
-7.16888e-05
9.36337e-06
-8.50535e-05
1.20289e-05
-9.83835e-05
1.48765e-05
-0.000111114
1.77869e-05
-0.000122669
2.06183e-05
-0.000132501
2.32316e-05
-0.000140138
2.55026e-05
-0.000145206
2.73304e-05
-0.000147457
2.86415e-05
-0.000146767
2.93888e-05
-0.000143126
2.95484e-05
-0.000136619
2.91117e-05
-0.000127391
2.80767e-05
-0.000115625
2.64373e-05
-0.000101523
2.4188e-05
-8.52557e-05
2.13234e-05
-6.69119e-05
1.78174e-05
-4.65249e-05
1.36235e-05
-2.40785e-05
8.69131e-06
3.03663e-06
-1.58291e-07
4.50495e-09
-7.90139e-07
3.07315e-08
-2.35884e-06
1.16428e-07
-5.17412e-06
3.14216e-07
-9.47738e-06
6.88407e-07
-1.5454e-05
1.31719e-06
-2.32043e-05
2.28407e-06
-3.27381e-05
3.66438e-06
-4.39297e-05
5.50554e-06
-5.62396e-05
7.76382e-06
-6.9076e-05
1.03219e-05
-8.22381e-05
1.3106e-05
-9.54138e-05
1.60582e-05
-0.000108045
1.90655e-05
-0.000119558
2.19885e-05
-0.000129408
2.46897e-05
-0.000137121
2.7045e-05
-0.000142321
2.8952e-05
-0.000144753
3.03331e-05
-0.000144282
3.11365e-05
-0.000140892
3.13313e-05
-0.000134656
3.09024e-05
-0.00012571
2.98421e-05
-0.000114223
2.81403e-05
-0.000100383
2.57822e-05
-8.43663e-05
2.27554e-05
-6.6266e-05
1.90334e-05
-4.61039e-05
1.45667e-05
-2.38679e-05
9.2991e-06
3.2498e-06
-1.59207e-07
6.33273e-09
-7.95207e-07
4.31229e-08
-2.34986e-06
1.57942e-07
-5.10604e-06
4.08732e-07
-9.29002e-06
8.60819e-07
-1.50826e-05
1.59169e-06
-2.25877e-05
2.6821e-06
-3.18199e-05
4.20184e-06
-4.26661e-05
6.19073e-06
-5.46309e-05
8.59303e-06
-6.71791e-05
1.12735e-05
-8.01036e-05
1.41525e-05
-9.3068e-05
1.71825e-05
-0.000105525
2.02587e-05
-0.000116913
2.32451e-05
-0.000126694
2.60076e-05
-0.0001344
2.84241e-05
-0.000139656
3.03914e-05
-0.000142203
3.18296e-05
-0.0001419
3.26816e-05
-0.000138718
3.29103e-05
-0.00013272
3.24933e-05
-0.000124034
3.14161e-05
-0.000112815
2.96636e-05
-9.92322e-05
2.72142e-05
-8.3459e-05
2.40472e-05
-6.55984e-05
2.01332e-05
-4.56696e-05
1.54222e-05
-2.36527e-05
9.85175e-06
3.44398e-06
-1.69016e-07
9.05428e-09
-8.39434e-07
6.06446e-08
-2.43385e-06
2.12462e-07
-5.20505e-06
5.2475e-07
-9.36085e-06
1.06232e-06
-1.50716e-05
1.90063e-06
-2.2439e-05
3.11644e-06
-3.14777e-05
4.77394e-06
-4.20846e-05
6.90724e-06
-5.37734e-05
9.44469e-06
-6.60377e-05
1.2228e-05
-7.869e-05
1.51776e-05
-9.13889e-05
1.82613e-05
-0.000103601
2.13814e-05
-0.000114781
2.44058e-05
-0.000124408
2.72054e-05
-0.000132022
2.96613e-05
-0.000137256
3.16712e-05
-0.000139849
3.31532e-05
-0.000139656
3.40457e-05
-0.000136638
3.43053e-05
-0.000130844
3.3902e-05
-0.000122389
3.28139e-05
-0.000111417
3.10192e-05
-9.8082e-05
2.84925e-05
-8.25467e-05
2.52045e-05
-6.49203e-05
2.11204e-05
-4.52269e-05
1.61901e-05
-2.34335e-05
1.03483e-05
3.61869e-06
-2.03478e-07
1.44113e-08
-9.57734e-07
8.87492e-08
-2.66273e-06
2.88612e-07
-5.53421e-06
6.73702e-07
-9.75589e-06
1.30677e-06
-1.54811e-05
2.25898e-06
-2.2806e-05
3.60232e-06
-3.17524e-05
5.39828e-06
-4.22337e-05
7.68079e-06
-5.36971e-05
1.03479e-05
-6.56543e-05
1.32058e-05
-7.8e-05
1.6197e-05
-9.03822e-05
1.93135e-05
-0.000102281
2.24551e-05
-0.000113174
2.54942e-05
-0.000122563
2.83082e-05
-0.000130004
3.07831e-05
-0.00013514
3.28185e-05
-0.000137712
3.43309e-05
-0.000137572
3.52548e-05
-0.000134671
3.55406e-05
-0.000129044
3.51509e-05
-0.000120792
3.40557e-05
-0.000110044
3.22264e-05
-9.69466e-05
2.96323e-05
-8.16439e-05
2.62379e-05
-6.42418e-05
2.20023e-05
-4.47738e-05
1.68742e-05
-2.32063e-05
1.07892e-05
3.77364e-06
-3.49361e-07
4.2532e-08
-1.27078e-06
1.54741e-07
-3.16681e-06
4.21063e-07
-6.21796e-06
8.94472e-07
-1.05824e-05
1.63335e-06
-1.63952e-05
2.70376e-06
-2.37506e-05
4.17415e-06
-3.26911e-05
6.10783e-06
-4.31061e-05
8.52379e-06
-5.43536e-05
1.12861e-05
-6.5998e-05
1.42011e-05
-7.8014e-05
1.72318e-05
-9.00307e-05
2.03692e-05
-0.000101547
2.35117e-05
-0.000112076
2.65421e-05
-0.000121147
2.93486e-05
-0.000128337
3.1823e-05
-0.000133302
3.38671e-05
-0.00013579
3.53966e-05
-0.000135647
3.63419e-05
-0.000132818
3.66479e-05
-0.000127324
3.62698e-05
-0.000119248
3.51694e-05
-0.000108707
3.3311e-05
-9.58335e-05
3.06575e-05
-8.07549e-05
2.71679e-05
-6.35677e-05
2.27963e-05
-4.43143e-05
1.74896e-05
-2.29729e-05
1.11848e-05
3.91235e-06
-1.80307e-05
3.3684e-06
-3.25055e-05
9.39388e-06
-4.17172e-05
1.40147e-05
-4.55891e-05
1.70737e-05
-4.49301e-05
1.86683e-05
-4.06155e-05
1.90277e-05
-3.34664e-05
1.83641e-05
-2.43288e-05
1.6862e-05
-1.4054e-05
1.47095e-05
-3.46983e-06
1.21076e-05
6.70583e-06
9.26527e-06
1.58862e-05
6.38107e-06
2.35998e-05
3.63744e-06
2.95246e-05
1.19295e-06
3.34926e-05
-8.31252e-07
3.54829e-05
-2.36019e-06
3.56072e-05
-3.36957e-06
3.40873e-05
-3.88444e-06
3.12285e-05
-3.97164e-06
2.73864e-05
-3.72683e-06
2.2434e-05
-3.19499e-06
1.65321e-05
-2.39493e-06
1.08775e-05
-1.49844e-06
6.3101e-06
-7.40367e-07
2.97816e-06
-2.1369e-07
8.63921e-07
9.27653e-08
-2.06901e-07
2.19358e-07
-5.3097e-07
2.23338e-07
-4.68362e-07
1.66621e-07
1.08745e-07
-2.55121e-07
-1.90557e-05
3.54859e-06
-3.47442e-05
9.91945e-06
-4.54484e-05
1.4913e-05
-5.05943e-05
1.83875e-05
-5.07e-05
2.03187e-05
-4.692e-05
2.08734e-05
-4.02436e-05
2.03367e-05
-3.15039e-05
1.89395e-05
-2.15208e-05
1.68682e-05
-1.10947e-05
1.43178e-05
-9.48339e-07
1.14947e-05
8.32815e-06
8.59972e-06
1.62624e-05
5.81461e-06
2.25221e-05
3.29654e-06
2.69207e-05
1.16732e-06
2.94129e-05
-4.95138e-07
3.00836e-05
-1.66133e-06
2.91288e-05
-2.34941e-06
2.68326e-05
-2.61858e-06
2.3535e-05
-2.55685e-06
1.91445e-05
-2.20658e-06
1.37961e-05
-1.57853e-06
8.614e-06
-8.27172e-07
4.44022e-06
-1.83591e-07
1.43323e-06
2.52304e-07
-4.23012e-07
4.87567e-07
-1.30126e-06
5.59531e-07
-1.49046e-06
5.22754e-07
-1.3387e-06
4.37447e-07
3.64476e-07
-1.18279e-06
-2.00571e-05
3.72451e-06
-3.6739e-05
1.04143e-05
-4.8722e-05
1.56957e-05
-5.54776e-05
1.95196e-05
-5.68918e-05
2.18733e-05
-5.38545e-05
2.27623e-05
-4.77023e-05
2.24071e-05
-3.94474e-05
2.11342e-05
-2.98504e-05
1.91745e-05
-1.96704e-05
1.6706e-05
-9.63651e-06
1.39321e-05
-3.41477e-07
1.10563e-05
7.74489e-06
8.25762e-06
1.42838e-05
5.69019e-06
1.90744e-05
3.47512e-06
2.2051e-05
1.69218e-06
2.32753e-05
3.75268e-07
2.29205e-05
-4.8738e-07
2.12525e-05
-9.47638e-07
1.8601e-05
-1.08722e-06
1.49336e-05
-9.53061e-07
1.02712e-05
-5.34963e-07
5.62771e-06
5.25724e-08
1.89788e-06
5.73393e-07
-7.70815e-07
9.12797e-07
-2.39225e-06
1.07741e-06
-3.13411e-06
1.10031e-06
-3.2728e-06
1.03313e-06
-3.14614e-06
9.34143e-07
8.64876e-07
-3.09033e-06
-2.11186e-05
3.89281e-06
-3.87751e-05
1.08929e-05
-5.17383e-05
1.64359e-05
-5.98612e-05
2.05084e-05
-6.29818e-05
2.32078e-05
-6.12777e-05
2.45356e-05
-5.58645e-05
2.45222e-05
-4.81679e-05
2.34394e-05
-3.9049e-05
2.16172e-05
-2.91875e-05
1.92569e-05
-1.93465e-05
1.65575e-05
-1.01107e-05
1.37297e-05
-1.94176e-06
1.09452e-05
4.81816e-06
8.3533e-06
9.95793e-06
6.07328e-06
1.3395e-05
4.18592e-06
1.51704e-05
2.72914e-06
1.54366e-05
1.69746e-06
1.44413e-05
1.04679e-06
1.25072e-05
7.02481e-07
9.68837e-06
6.0943e-07
5.83436e-06
7.90112e-07
1.76829e-06
1.18509e-06
-1.52687e-06
1.57651e-06
-3.88286e-06
1.82429e-06
-5.31563e-06
1.92215e-06
-5.9938e-06
1.90226e-06
-6.18993e-06
1.81559e-06
-6.23566e-06
1.71803e-06
1.66868e-06
-6.4244e-06
-2.22381e-05
4.05253e-06
-4.09437e-05
1.13488e-05
-5.48672e-05
1.71506e-05
-6.40084e-05
2.14457e-05
-6.85776e-05
2.43742e-05
-6.86407e-05
2.60538e-05
-6.45724e-05
2.64974e-05
-5.77047e-05
2.57922e-05
-4.91497e-05
2.41923e-05
-3.96547e-05
2.19562e-05
-3.0087e-05
1.93496e-05
-2.09913e-05
1.65986e-05
-1.28112e-05
1.38562e-05
-5.89177e-06
1.12648e-05
-4.50089e-07
8.94206e-06
3.41592e-06
6.96899e-06
5.72792e-06
5.38773e-06
6.61615e-06
4.19952e-06
6.30387e-06
3.36987e-06
5.0894e-06
2.83694e-06
3.08069e-06
2.55145e-06
1.11262e-07
2.51458e-06
-3.24821e-06
2.68132e-06
-6.09472e-06
2.89925e-06
-8.16719e-06
3.04147e-06
-9.45793e-06
3.07429e-06
-1.01362e-05
3.01764e-06
-1.04819e-05
2.91972e-06
-1.08036e-05
2.83255e-06
2.80864e-06
-1.13134e-05
-2.34221e-05
4.20248e-06
-4.32427e-05
1.17787e-05
-5.82139e-05
1.78295e-05
-6.83451e-05
2.23495e-05
-7.39805e-05
2.548e-05
-7.55374e-05
2.73787e-05
-7.32141e-05
2.81661e-05
-6.7715e-05
2.79084e-05
-6.0051e-05
2.67095e-05
-5.1093e-05
2.4744e-05
-4.18631e-05
2.22876e-05
-3.29964e-05
1.96358e-05
-2.48777e-05
1.69634e-05
-1.78655e-05
1.43974e-05
-1.21746e-05
1.20552e-05
-7.9205e-06
1.00171e-05
-5.10091e-06
8.33087e-06
-3.61063e-06
7.0043e-06
-3.26066e-06
6.01352e-06
-3.80176e-06
5.31223e-06
-5.1293e-06
4.86025e-06
-7.25734e-06
4.6345e-06
-9.77854e-06
4.57918e-06
-1.20688e-05
4.5952e-06
-1.38547e-05
4.60428e-06
-1.50561e-05
4.57004e-06
-1.57906e-05
4.48715e-06
-1.63258e-05
4.38374e-06
-1.69462e-05
4.30537e-06
4.30173e-06
-1.77798e-05
-2.46747e-05
4.34132e-06
-4.56805e-05
1.21787e-05
-6.17717e-05
1.84663e-05
-7.29847e-05
2.32056e-05
-7.96516e-05
2.65449e-05
-8.23025e-05
2.8637e-05
-8.14332e-05
2.96377e-05
-7.7491e-05
2.96791e-05
-7.12412e-05
2.8896e-05
-6.33418e-05
2.73924e-05
-5.46838e-05
2.52853e-05
-4.61327e-05
2.28171e-05
-3.81448e-05
2.02348e-05
-3.11169e-05
1.77178e-05
-2.52343e-05
1.53803e-05
-2.06446e-05
1.32989e-05
-1.73626e-05
1.15304e-05
-1.53088e-05
1.00877e-05
-1.43327e-05
8.95623e-06
-1.4238e-05
8.10273e-06
-1.4912e-05
7.48606e-06
-1.62659e-05
7.07095e-06
-1.7969e-05
6.81162e-06
-1.96298e-05
6.64041e-06
-2.10774e-05
6.50809e-06
-2.22141e-05
6.39479e-06
-2.30841e-05
6.29305e-06
-2.38483e-05
6.20513e-06
-2.47439e-05
6.14782e-06
6.15992e-06
-2.58453e-05
-2.59987e-05
4.46751e-06
-4.82618e-05
1.25443e-05
-6.55471e-05
1.90541e-05
-7.79165e-05
2.40048e-05
-8.57118e-05
2.75514e-05
-8.94348e-05
2.98511e-05
-8.9694e-05
3.10593e-05
-8.70383e-05
3.13216e-05
-8.22481e-05
3.08129e-05
-7.58211e-05
2.96928e-05
-6.82345e-05
2.8035e-05
-6.02929e-05
2.59404e-05
-5.26268e-05
2.35994e-05
-4.56601e-05
2.11979e-05
-3.96413e-05
1.888e-05
-3.47839e-05
1.67744e-05
-3.11031e-05
1.49505e-05
-2.85418e-05
1.34173e-05
-2.69876e-05
1.21682e-05
-2.62872e-05
1.11812e-05
-2.62909e-05
1.04112e-05
-2.68826e-05
9.81093e-06
-2.78348e-05
9.35296e-06
-2.88891e-05
9.00657e-06
-2.99428e-05
8.73879e-06
-3.09565e-05
8.53422e-06
-3.19574e-05
8.39058e-06
-3.29905e-05
8.30737e-06
-3.41963e-05
8.28594e-06
8.34658e-06
-3.55845e-05
-2.73952e-05
4.57937e-06
-5.0989e-05
1.28708e-05
-6.95428e-05
1.95852e-05
-8.31445e-05
2.47369e-05
-9.21467e-05
2.84865e-05
-9.70518e-05
3.09955e-05
-9.84515e-05
3.24212e-05
-9.69574e-05
3.29172e-05
-9.33347e-05
3.26431e-05
-8.81997e-05
3.17674e-05
-8.18994e-05
3.04202e-05
-7.50006e-05
2.87096e-05
-6.80621e-05
2.67557e-05
-6.14269e-05
2.46508e-05
-5.54179e-05
2.24844e-05
-5.03628e-05
2.04038e-05
-4.63704e-05
1.85478e-05
-4.33762e-05
1.69535e-05
-4.13106e-05
1.56125e-05
-4.00536e-05
1.4514e-05
-3.94127e-05
1.36072e-05
-3.92595e-05
1.28343e-05
-3.95044e-05
1.21906e-05
-3.9999e-05
1.1682e-05
-4.06606e-05
1.12888e-05
-4.14735e-05
1.09928e-05
-4.24627e-05
1.07856e-05
-4.36729e-05
1.06682e-05
-4.51785e-05
1.06459e-05
1.07237e-05
-4.6864e-05
-2.88638e-05
4.67508e-06
-5.38614e-05
1.3153e-05
-7.37581e-05
2.00513e-05
-8.86678e-05
2.53903e-05
-9.89548e-05
2.93357e-05
-0.000105122
3.2052e-05
-0.000107757
3.36986e-05
-0.000107484
3.44305e-05
-0.00010498
3.44025e-05
-0.000100893
3.37666e-05
-9.56824e-05
3.26555e-05
-8.98821e-05
3.12083e-05
-8.39122e-05
2.95597e-05
-7.80536e-05
2.78052e-05
-7.24648e-05
2.59743e-05
-6.74203e-05
2.40933e-05
-6.32168e-05
2.22814e-05
-5.98752e-05
2.06497e-05
-5.73857e-05
1.92411e-05
-5.56405e-05
1.80543e-05
-5.44098e-05
1.70302e-05
-5.35639e-05
1.61039e-05
-5.31613e-05
1.52925e-05
-5.3146e-05