/*--------------------------------*- C++ -*----------------------------------*\
| =========                 |                                                 |
| \\      /  F ield         | OpenFOAM: The Open Source CFD Toolbox           |
|  \\    /   O peration     | Version:  dev                                   |
|   \\  /    A nd           | Web:      www.OpenFOAM.org                      |
|    \\/     M anipulation  |                                                 |
\*---------------------------------------------------------------------------*/
FoamFile
{
    version     2.0;
    format      ascii;
    class       volVectorField;
    location    "3.19";
    object      U;
}
// * * * * * * * * * * * * * * * * * * * * * * * * * * * * * * * * * * * * * //

dimensions      [0 1 -1 0 0 0 0];

internalField   nonuniform List<vector> 
2790
(
(9.94607 0 0.0196081)
(9.87053 -4.89029e-21 0.0284715)
(9.76222 2.52639e-21 0.0347624)
(9.63277 0 0.0411054)
(9.48626 0 0.0476158)
(9.32239 0 0.0542697)
(9.14054 0 0.0611988)
(8.94037 0 0.0685567)
(8.72148 1.26528e-20 0.0764745)
(8.48324 -1.38511e-20 0.0850725)
(8.22479 1.37233e-20 0.0944685)
(7.9451 -1.76913e-20 0.104779)
(7.64309 0 0.116125)
(7.31757 0 0.128627)
(6.96737 -3.25932e-20 0.14241)
(6.59134 2.51518e-20 0.157582)
(6.18841 -8.01424e-20 0.17423)
(5.75777 -1.04209e-21 0.192396)
(5.29896 7.69892e-20 0.212053)
(4.8121 -2.027e-20 0.233067)
(4.2981 0 0.255175)
(3.75893 -4.43202e-20 0.277926)
(3.19784 0 0.300596)
(2.61984 0 0.322056)
(2.03206 2.01016e-19 0.340537)
(1.4443 -6.22589e-19 0.353082)
(0.869737 8.54572e-19 0.353983)
(0.326311 -4.3713e-19 0.324513)
(-0.234271 0 0.0486807)
(-0.114824 8.03461e-19 -0.31513)
(10.006 0 0.039569)
(9.98675 4.88489e-21 0.0604005)
(9.93712 2.5432e-21 0.0763796)
(9.86501 4.78813e-23 0.0929228)
(9.7733 -1.07704e-20 0.110304)
(9.66184 0 0.128407)
(9.53021 2.33025e-20 0.147481)
(9.37816 -2.54912e-20 0.167859)
(9.20535 0 0.189829)
(9.0112 5.15124e-20 0.213663)
(8.79488 -5.3857e-20 0.23962)
(8.55542 3.52589e-21 0.267953)
(8.29173 7.34077e-21 0.29891)
(8.00259 0 0.332718)
(7.6868 0 0.369576)
(7.34315 1.42994e-19 0.409628)
(6.97045 -1.29987e-19 0.452914)
(6.5677 3.64475e-20 0.499305)
(6.1342 0 0.548435)
(5.66973 -3.01259e-19 0.599601)
(5.17477 3.31234e-19 0.651671)
(4.65078 -3.06522e-19 0.702966)
(4.10046 3.60913e-19 0.751068)
(3.52819 9.42813e-20 0.792555)
(2.94052 0 0.822572)
(2.34698 8.13802e-19 0.833895)
(1.76137 -7.3009e-19 0.814503)
(1.20058 1.07085e-19 0.739449)
(0.66587 1.74688e-18 0.544138)
(0.418433 -1.93719e-18 0.120383)
(10.0031 0 0.0421675)
(9.98111 -9.76793e-21 0.0725904)
(9.93384 1.51004e-20 0.0989754)
(9.86681 -2.08851e-20 0.126243)
(9.78161 -1.21667e-22 0.154994)
(9.67817 2.22603e-20 0.185192)
(9.55634 0 0.217156)
(9.41603 1.50176e-21 0.251342)
(9.25702 1.9465e-22 0.288197)
(9.07884 4.8569e-21 0.328157)
(8.88083 0 0.371652)
(8.66217 7.00402e-21 0.419106)
(8.42189 -2.18972e-20 0.470952)
(8.15887 1.226e-19 0.527587)
(7.87199 -1.26164e-19 0.589351)
(7.56007 -2.66835e-19 0.656531)
(7.22189 3.09174e-19 0.729264)
(6.85625 -3.61387e-20 0.807422)
(6.46213 -2.65877e-19 0.890496)
(6.03873 3.12508e-19 0.97745)
(5.5857 0 1.06654)
(5.1033 -7.73604e-19 1.15512)
(4.59264 7.08693e-19 1.2393)
(4.05595 -9.27691e-20 1.31357)
(3.49687 0 1.37011)
(2.92051 1.59491e-18 1.39769)
(2.33291 -1.73766e-18 1.37951)
(1.74012 1.04844e-19 1.28806)
(1.11116 0 1.08606)
(0.642695 2.25895e-19 0.720994)
(10.0013 -4.73568e-21 0.0472881)
(9.97701 -4.88514e-21 0.0888745)
(9.92967 1.0044e-20 0.126997)
(9.864 -1.03876e-20 0.165264)
(9.78062 0 0.204889)
(9.67945 4.4705e-20 0.246238)
(9.56055 -4.59994e-20 0.289793)
(9.42403 -4.80936e-20 0.336155)
(9.26983 4.91785e-20 0.385949)
(9.09769 -1.07006e-19 0.439793)
(8.90719 1.06727e-19 0.498287)
(8.69771 -1.19245e-19 0.562036)
(8.46857 1.29982e-19 0.631659)
(8.21901 0 0.707739)
(7.94816 0 0.790781)
(7.65508 -2.64382e-19 0.881247)
(7.33885 2.71776e-19 0.979453)
(6.99845 0 1.08539)
(6.63285 5.61824e-19 1.19862)
(6.24107 -6.16273e-19 1.31803)
(5.8222 -6.5017e-19 1.44168)
(5.37549 -5.00601e-19 1.56643)
(4.90042 1.23198e-18 1.68762)
(4.3967 -1.26457e-18 1.79853)
(3.86427 -1.8757e-19 1.88975)
(3.30276 1.7566e-18 1.94827)
(2.70986 -3.21215e-18 1.95649)
(2.08308 1.64646e-18 1.89058)
(1.37518 3.38944e-18 1.73152)
(0.757747 -3.55735e-18 1.43305)
(10.0005 1.41497e-20 0.0539406)
(9.97489 1.45895e-20 0.105248)
(9.92749 -1.0022e-20 0.15373)
(9.86302 1.03783e-20 0.201997)
(9.78141 1.07154e-20 0.251713)
(9.68242 0 0.303642)
(9.56615 0 0.358376)
(9.43284 -9.58092e-20 0.416577)
(9.28256 9.93899e-20 0.478982)
(9.11515 0 0.546344)
(8.93024 -6.65695e-21 0.619388)
(8.72732 1.38348e-20 0.698822)
(8.50592 -1.43835e-20 0.785377)
(8.26559 0 0.879762)
(8.00564 0 0.982625)
(7.72537 -3.24031e-20 1.09456)
(7.4241 4.43546e-19 1.21602)
(7.10104 -5.60032e-19 1.34714)
(6.75531 -5.1755e-19 1.48763)
(6.38591 -7.65617e-21 1.63652)
(5.99162 5.52387e-19 1.79192)
(5.57097 -8.28357e-20 1.95072)
(5.12214 1.72047e-19 2.10812)
(4.64274 -1.78433e-19 2.25718)
(4.12954 1.84769e-19 2.38828)
(3.578 3.05487e-18 2.48864)
(2.98048 -3.13209e-18 2.54207)
(2.33174 3.03863e-18 2.52874)
(1.58002 -3.30992e-18 2.43886)
(0.862937 3.49499e-18 2.22756)
(10.0002 9.39264e-21 0.061282)
(9.97399 -9.6897e-21 0.121586)
(9.92691 -1.99976e-20 0.179896)
(9.86386 0 0.238052)
(9.78437 -1.07027e-20 0.297839)
(9.68795 1.10499e-20 0.36027)
(9.57478 -9.20079e-20 0.426001)
(9.44519 9.46021e-20 0.495724)
(9.29937 9.81509e-20 0.570303)
(9.1371 -1.00077e-19 0.650659)
(8.95803 6.63692e-21 0.737635)
(8.76171 -1.37868e-20 0.832008)
(8.54783 6.36423e-23 0.93458)
(8.31607 -2.96397e-20 1.04618)
(8.06589 0 1.16762)
(7.7967 3.2213e-20 1.29961)
(7.50793 6.04917e-19 1.44272)
(7.19889 7.61487e-20 1.59726)
(6.86875 -7.18647e-19 1.76313)
(6.51645 -7.47152e-20 1.9396)
(6.14051 1.33251e-18 2.1251)
(5.73895 1.28697e-18 2.31684)
(5.30901 0 2.51048)
(4.84678 -1.22325e-18 2.69958)
(4.34686 1.60978e-18 2.87524)
(3.80216 -1.94425e-21 3.02571)
(3.20233 0 3.13642)
(2.54235 0 3.18891)
(1.77285 3.24525e-18 3.17349)
(0.978621 -3.4072e-18 3.04738)
(10.0001 -1.88175e-20 0.0688954)
(9.97388 0 0.137813)
(9.92753 3.99154e-20 0.205473)
(9.86617 0 0.273194)
(9.78906 0 0.34274)
(9.69564 -2.93912e-23 0.415283)
(9.58618 0 0.491539)
(9.46103 -5.89555e-21 0.572275)
(9.32033 0 0.658528)
(9.16384 2.02389e-19 0.751382)
(8.99127 -2.09522e-19 0.851753)
(8.80229 2.19618e-19 0.960448)
(8.59666 -2.11299e-19 1.07833)
(8.37409 -4.43972e-19 1.20636)
(8.1341 4.85989e-19 1.34548)
(7.87613 -5.10608e-19 1.49655)
(7.59962 4.58322e-19 1.66026)
(7.30387 -6.19093e-19 1.83712)
(6.98798 7.06547e-19 2.02726)
(6.65072 1.47243e-19 2.23032)
(6.2903 0 2.44514)
(5.9043 0 2.66956)
(5.48925 -1.62682e-19 2.90006)
(5.04022 -1.70245e-19 3.13121)
(4.55046 -3.49566e-19 3.35526)
(4.01137 2.53744e-18 3.56161)
(3.41119 -5.77075e-18 3.73663)
(2.74538 3.15348e-18 3.86108)
(1.97152 3.10639e-18 3.91896)
(1.10864 -3.21154e-18 3.86918)
(10.0002 3.74319e-20 0.0765393)
(9.97432 0 0.15377)
(9.92905 1.99415e-20 0.230331)
(9.86965 -4.10099e-20 0.307236)
(9.79523 0 0.386178)
(9.70531 -1.09872e-20 0.468403)
(9.60018 0 0.554706)
(9.48007 8.85054e-20 0.645985)
(9.34505 -9.08481e-20 0.743457)
(9.19498 0 0.848304)
(9.02968 0 0.96146)
(8.84897 -2.31129e-19 1.08378)
(8.65258 2.37325e-19 1.21622)
(8.44016 4.68099e-19 1.35989)
(8.21127 -4.80136e-19 1.51587)
(7.96538 0 1.68514)
(7.70187 6.5129e-20 1.86857)
(7.41997 1.08176e-18 2.06689)
(7.11864 -2.22975e-18 2.28056)
(6.79643 1.07546e-18 2.50965)
(6.45125 -7.41659e-20 2.75359)
(6.08014 -1.24039e-18 3.01097)
(5.67906 1.42976e-18 3.27931)
(5.24232 0 3.5545)
(4.76222 2.89544e-18 3.83017)
(4.22912 -5.41907e-18 4.09683)
(3.63009 2.69257e-18 4.34115)
(2.95974 2.87985e-18 4.54215)
(2.18547 -3.04809e-18 4.674)
(1.25418 -1.01246e-19 4.69564)
(10.0004 -7.47071e-20 0.0840624)
(9.97512 -3.83621e-20 0.169307)
(9.93127 0 0.254346)
(9.87412 -2.04277e-20 0.340027)
(9.80275 0 0.427942)
(9.71683 1.09419e-19 0.519365)
(9.61653 5.83617e-22 0.615219)
(9.50192 -8.13907e-20 0.716573)
(9.37308 -2.00135e-19 0.824763)
(9.2301 2.0236e-19 0.940998)
(9.07296 2.1131e-19 1.06622)
(8.90143 8.78917e-21 1.20137)
(8.71525 -6.81375e-19 1.34759)
(8.51401 4.86351e-19 1.50609)
(8.29731 0 1.67808)
(8.06463 5.26416e-19 1.86467)
(7.81531 -1.02084e-18 2.06695)
(7.54848 5.25336e-19 2.28591)
(7.26295 -6.86108e-20 2.52241)
(6.95707 7.00584e-20 2.77707)
(6.6285 7.32737e-20 3.05004)
(6.27377 0 3.34083)
(5.8882 0 3.64813)
(5.46545 -7.89609e-20 3.96935)
(4.99696 -8.11909e-20 4.29974)
(4.47197 0 4.63106)
(3.87603 0 4.95017)
(3.20064 2.86146e-18 5.2343)
(2.42428 -2.89045e-18 5.44635)
(1.4186 0 5.54335)
(10.0007 7.44351e-20 0.0913645)
(9.97621 7.65403e-20 0.184296)
(9.93402 -3.95476e-20 0.277391)
(9.87943 2.04047e-20 0.371404)
(9.81149 -2.09936e-20 0.46781)
(9.72998 -2.17629e-20 0.567921)
(9.63492 0 0.672837)
(9.52622 1.86273e-19 0.78377)
(9.40412 -1.91207e-19 0.902086)
(9.26899 -3.10838e-21 1.02899)
(9.12081 -3.01596e-21 1.16548)
(8.95925 6.65417e-21 1.31265)
(8.7841 0 1.4718)
(8.59504 4.27835e-19 1.64425)
(8.39165 -9.68425e-19 1.83129)
(8.17345 -6.52816e-20 2.03422)
(7.93975 -5.08533e-19 2.25436)
(7.68963 1.03067e-18 2.49303)
(7.42176 0 2.75153)
(7.13435 -6.9281e-20 3.03109)
(6.82485 7.03324e-20 3.33273)
(6.48946 1.17095e-18 3.65709)
(6.12292 -1.19513e-18 4.00423)
(5.71821 1.53818e-19 4.37332)
(5.26579 7.97806e-20 4.76157)
(4.7534 0 5.16255)
(4.16428 -4.09795e-20 5.5639)
(3.48397 -2.73538e-18 5.94202)
(2.70157 2.81295e-18 6.24833)
(1.60949 0 6.43677)
(10.001 -3.71317e-20 0.0983751)
(9.9775 -1.92071e-20 0.198631)
(9.93721 -1.96106e-20 0.299342)
(9.88546 4.06228e-20 0.401207)
(9.82131 7.83653e-23 0.505595)
(9.74454 -8.66541e-20 0.613872)
(9.65506 8.89962e-20 0.727337)
(9.55273 2.29837e-20 0.847291)
(9.43797 1.18688e-20 0.975056)
(9.31133 -1.91379e-19 1.11184)
(9.17275 4.09585e-19 1.25878)
(9.02184 -2.07542e-19 1.41713)
(8.85853 0 1.58829)
(8.68256 -4.50037e-19 1.77366)
(8.49359 5.04017e-19 1.97466)
(8.29116 2.99776e-20 2.19278)
(8.07462 0 2.42961)
(7.84304 -3.14895e-20 2.68681)
(7.59508 0 2.96615)
(7.32885 0 3.26954)
(7.04171 -6.94575e-20 3.59898)
(6.72975 1.13364e-18 3.95641)
(6.38735 -1.15542e-18 4.34356)
(6.00692 -1.48049e-19 4.76167)
(5.57786 0 5.2106)
(5.08595 0 5.68684)
(4.51115 4.01751e-20 6.18043)
(3.82946 -2.59143e-18 6.66932)
(3.03815 2.65208e-18 7.09474)
(1.84103 1.06019e-20 7.40834)
(10.0014 -1.84701e-20 0.105041)
(9.97896 -5.70484e-20 0.212226)
(9.94073 7.82856e-20 0.320086)
(9.89211 0 0.42929)
(9.83208 2.08541e-20 0.541136)
(9.7603 0 0.657048)
(9.67669 -2.21103e-20 0.7785)
(9.58119 1.60642e-19 0.906843)
(9.47432 -2.00139e-19 1.04333)
(9.35673 -6.11111e-21 1.1892)
(9.22826 -3.15466e-21 1.34575)
(9.08864 4.18532e-19 1.51437)
(8.93789 -4.26848e-19 1.69651)
(8.77589 4.43568e-19 1.89367)
(8.60236 -1.07934e-20 2.10739)
(8.41694 -4.67268e-19 2.33936)
(8.21907 0 2.59142)
(8.0079 3.12174e-20 2.86562)
(7.78222 0 3.16421)
(7.5402 0 3.4898)
(7.2793 3.31262e-20 3.84539)
(6.99572 0 4.23436)
(6.68395 0 4.66035)
(6.33615 7.19538e-20 5.12721)
(5.94097 0 5.63832)
(5.48216 0 6.19492)
(4.93569 -2.3796e-18 6.79261)
(4.26417 2.83164e-20 7.41591)
(3.46762 2.48601e-18 8.00129)
(2.13949 -5.51974e-21 8.50466)
(10.0018 0 0.111319)
(9.98058 3.7821e-20 0.225006)
(9.94456 -3.88997e-20 0.339524)
(9.89927 -4.03701e-20 0.455526)
(9.84365 4.13449e-20 0.574294)
(9.77708 0 0.697297)
(9.69962 2.20662e-20 0.826127)
(9.61134 -1.59504e-19 0.962164)
(9.51283 1.8677e-19 1.10661)
(9.40471 -1.20324e-20 1.26076)
(9.28684 0 1.42605)
(9.15906 -3.21941e-21 1.60394)
(9.02154 -4.2111e-19 1.79595)
(8.87427 4.34007e-19 2.00364)
(8.71711 0 2.22869)
(8.54983 0 2.47297)
(8.37203 -7.34434e-21 2.73855)
(8.18308 9.73168e-19 3.02783)
(7.98198 -9.91793e-19 3.34354)
(7.76723 1.57429e-20 3.68895)
(7.53665 -3.27383e-20 4.06805)
(7.28695 0 4.48563)
(7.01324 0 4.94738)
(6.70827 0 5.46017)
(6.36092 0 6.0319)
(5.95399 1.69696e-20 6.67082)
(5.46026 -2.21854e-18 7.38305)
(4.82655 4.49033e-18 8.16952)
(4.04736 -4.54714e-18 8.97925)
(2.55688 2.34998e-18 9.80448)
(10.0023 0 0.117172)
(9.98232 0 0.236906)
(9.94865 0 0.357572)
(9.90688 -4.00135e-20 0.479813)
(9.85586 1.86407e-22 0.604949)
(9.79472 1.27329e-19 0.734478)
(9.72364 -1.09042e-19 0.870044)
(9.64291 -2.0326e-19 1.01305)
(9.55312 3.48268e-19 1.16467)
(9.45484 -1.54954e-19 1.32627)
(9.34795 -1.22667e-20 1.49937)
(9.23251 -4.06866e-19 1.68549)
(9.10879 7.21082e-21 1.88618)
(8.97691 8.64832e-19 2.10305)
(8.8369 -4.39535e-19 2.3379)
(8.68873 -4.53482e-19 2.59274)
(8.53222 4.69792e-19 2.86986)
(8.36705 0 3.1719)
(8.19262 0 3.50204)
(8.00796 -1.5589e-20 3.86409)
(7.81157 -1.00504e-18 4.26287)
(7.60117 0 4.70442)
(7.37325 -1.02819e-18 5.19634)
(7.12232 1.04284e-18 5.74849)
(6.83952 -6.39325e-20 6.37374)
(6.50988 -2.07646e-18 7.08907)
(6.1079 2.09274e-18 7.91633)
(5.56972 6.11904e-20 8.88791)
(4.88191 3.30682e-20 10.0099)
(3.20597 2.00526e-18 11.467)
(10.0028 0 0.122569)
(9.98416 -3.74466e-20 0.24787)
(9.95299 4.59183e-23 0.374161)
(9.91486 3.9617e-20 0.502077)
(9.86853 4.09984e-20 0.632998)
(9.81301 -1.26679e-19 0.768452)
(9.74855 6.51066e-20 0.910077)
(9.67561 2.22756e-20 1.05928)
(9.59482 2.3078e-20 1.21727)
(9.50662 -2.37611e-20 1.38544)
(9.41104 1.22265e-20 1.56538)
(9.30832 -3.76836e-19 1.75862)
(9.19885 -1.50143e-20 1.96671)
(9.08287 -8.68525e-21 2.19132)
(8.96063 8.5352e-19 2.43432)
(8.8323 -4.43166e-19 2.69782)
(8.69804 4.40806e-19 2.98423)
(8.55789 4.65286e-19 3.29641)
(8.41179 -1.87568e-18 3.63777)
(8.25948 9.61184e-19 4.01252)
(8.10048 -3.01164e-20 4.42601)
(7.93397 0 4.88513)
(7.75862 9.24464e-19 5.39881)
(7.57216 -7.49795e-20 5.97912)
(7.37077 -9.33431e-19 6.64292)
(7.14737 -1.18864e-19 7.41482)
(6.89036 1.15087e-19 8.33261)
(6.55211 -5.97733e-20 9.46674)
(6.16727 -9.84056e-20 10.9352)
(4.32299 -1.45248e-18 13.843)
(0.0627485 2.67811e-20 -0.0507211)
(0.207989 -2.71575e-23 -0.0917887)
(0.383282 4.0691e-22 -0.0904199)
(0.547777 0 -0.07173)
(0.679505 0 -0.0491646)
(0.770131 -1.04462e-20 -0.0281476)
(0.820804 5.32397e-21 -0.0108605)
(0.838146 4.8167e-21 0.00172704)
(0.83159 0 0.00943687)
(0.81034 -5.17467e-21 0.0131458)
(0.78172 -4.06045e-21 0.013971)
(0.751103 -9.37805e-22 0.0129308)
(0.722078 0 0.0109538)
(0.696428 0 0.00885106)
(0.674161 -1.54254e-21 0.00726314)
(0.6538 3.65588e-23 0.00658581)
(0.63313 7.00873e-22 0.00682559)
(0.610407 6.36061e-22 0.00749986)
(0.585496 -2.86798e-22 0.00784703)
(0.560405 2.81834e-22 0.00710518)
(0.539 -2.60518e-22 0.00486665)
(0.525528 -2.37168e-22 0.00145007)
(0.523065 9.6704e-23 -0.00240611)
(0.533099 2.6425e-22 -0.00639043)
(0.55616 7.11812e-23 -0.0108745)
(0.593016 -6.9931e-23 -0.0159695)
(0.645216 2.25353e-22 -0.0209345)
(0.713057 -2.17358e-23 -0.0255512)
(0.795822 9.14102e-23 -0.030042)
(0.911929 0 -0.0333649)
(0.0746183 2.18939e-22 -0.168719)
(0.221631 5.56348e-20 -0.233314)
(0.387569 -4.06306e-22 -0.224395)
(0.540768 0 -0.182079)
(0.665886 1.41417e-21 -0.131648)
(0.757972 0 -0.0842619)
(0.818517 1.24645e-21 -0.0445607)
(0.852816 -2.35096e-21 -0.0139439)
(0.865116 1.09466e-20 0.00760091)
(0.860245 -7.53199e-21 0.0209132)
(0.844902 0 0.0274435)
(0.823915 -6.4046e-21 0.028937)
(0.800737 1.41414e-20 0.0272508)
(0.777309 -3.55462e-21 0.0242751)
(0.754054 6.30586e-22 0.0217984)
(0.729944 -1.46063e-22 0.0211484)
(0.703065 -1.47135e-21 0.0225956)
(0.671913 -1.94219e-21 0.0248245)
(0.636845 0 0.0256789)
(0.600614 1.09386e-21 0.0234331)
(0.567909 5.01815e-22 0.0176059)
(0.543252 0 0.0094377)
(0.527973 -4.31782e-22 0.00112135)
(0.519551 -1.07785e-21 -0.00597175)
(0.514411 3.31553e-22 -0.0124679)
(0.509585 0 -0.0197868)
(0.510853 -6.1078e-22 -0.0298478)
(0.529635 3.02747e-23 -0.0441513)
(0.56873 -1.13487e-22 -0.0616764)
(0.638476 5.56154e-23 -0.0757329)
(0.0575025 8.93518e-22 -0.318938)
(0.204478 -5.53983e-20 -0.374795)
(0.34966 1.03085e-19 -0.346714)
(0.474705 -4.83393e-20 -0.280088)
(0.571613 -4.58191e-20 -0.203959)
(0.639768 1.70531e-21 -0.132962)
(0.681847 2.85187e-21 -0.074243)
(0.703055 4.08777e-20 -0.0291113)
(0.706945 -2.23256e-21 0.00391243)
(0.697286 0 0.0259343)
(0.678799 0 0.0380706)
(0.654274 -7.3565e-21 0.0426137)
(0.62531 5.47063e-21 0.0421767)
(0.592849 -1.66259e-21 0.0394455)
(0.557208 1.56009e-21 0.0372086)
(0.517615 0 0.0378141)
(0.472211 0 0.0422162)
(0.418969 0 0.0491192)
(0.358208 0 0.0551675)
(0.291976 4.94131e-25 0.0562517)
(0.222812 9.73168e-22 0.0500275)
(0.155554 -9.56713e-22 0.0380753)
(0.100252 8.22737e-22 0.0242221)
(0.0660812 -3.39789e-22 0.0105664)
(0.0545814 3.3389e-22 -0.00412893)
(0.0592385 0 -0.0227765)
(0.0753676 4.08837e-22 -0.0455719)
(0.10216 0 -0.0695223)
(0.129922 0 -0.0917804)
(0.14898 -6.35025e-23 -0.110548)
(0.00387541 1.15065e-19 -0.475108)
(0.156492 -2.18233e-19 -0.50612)
(0.279596 1.04262e-19 -0.445791)
(0.373665 -7.56153e-22 -0.351964)
(0.438453 4.44351e-20 -0.252805)
(0.477827 -4.61123e-20 -0.162809)
(0.495532 -2.51355e-21 -0.0891109)
(0.494475 0 -0.0319977)
(0.472306 4.47421e-21 0.0104423)
(0.440323 -1.65879e-20 0.0388204)
(0.40144 -2.03034e-20 0.0555811)
(0.355693 1.47618e-20 0.0645579)
(0.300337 -9.19736e-21 0.069396)
(0.234034 8.19893e-21 0.0729331)
(0.157631 -7.9867e-21 0.0768477)
(0.0743643 -5.72149e-21 0.0827928)
(-0.00727609 2.88833e-21 0.0915627)
(-0.0793427 0 0.100342)
(-0.143173 0 0.10418)
(-0.200191 -3.2933e-21 0.0991461)
(-0.249392 0 0.0845163)
(-0.287868 0 0.0623595)
(-0.312767 -8.2388e-22 0.0363073)
(-0.324188 0 0.0101336)
(-0.324587 2.86695e-22 -0.0139555)
(-0.318617 7.46301e-22 -0.0363418)
(-0.3115 8.08164e-22 -0.0580401)
(-0.30565 -5.82208e-22 -0.0788049)
(-0.304644 3.50939e-22 -0.0988121)
(-0.308048 0 -0.11722)
(-0.0705984 0 -0.61256)
(0.0802539 0 -0.615841)
(0.173408 0 -0.516332)
(0.228511 1.52084e-21 -0.393866)
(0.254188 8.94947e-20 -0.273882)
(0.25701 -4.01232e-20 -0.167684)
(0.241291 -4.38743e-20 -0.0814057)
(0.189296 3.75252e-20 -0.00427333)
(0.124152 -4.58865e-20 0.0515383)
(0.0538195 -4.25948e-21 0.0833726)
(-0.0196225 -1.57318e-20 0.101787)
(-0.0953158 1.92268e-20 0.114624)
(-0.173839 -3.55862e-21 0.124488)
(-0.25371 1.63458e-20 0.131144)
(-0.333565 -1.27792e-20 0.134876)
(-0.408785 5.68581e-21 0.137102)
(-0.475722 -5.56652e-21 0.138749)
(-0.531632 0 0.138743)
(-0.576252 -2.35068e-21 0.13411)
(-0.610562 7.21884e-24 0.121657)
(-0.635936 2.00732e-21 0.100432)
(-0.653872 -3.58025e-21 0.0724589)
(-0.666035 2.54323e-21 0.0418052)
(-0.674088 -6.75677e-22 0.0125828)
(-0.678316 -5.68913e-22 -0.0132771)
(-0.680253 -6.66628e-24 -0.036565)
(-0.683524 -8.77353e-24 -0.0580989)
(-0.690041 5.8055e-22 -0.0778854)
(-0.700257 -3.64386e-22 -0.0973572)
(-0.709269 1.42508e-23 -0.115)
(-0.150797 1.16072e-19 -0.715283)
(-0.0180969 -1.1193e-19 -0.686364)
(0.0314624 0 -0.541725)
(0.034262 9.51829e-20 -0.387874)
(0.00813425 -3.54004e-21 -0.24474)
(-0.0476214 -1.77727e-19 -0.106656)
(-0.151226 1.26852e-19 0.00075343)
(-0.235185 -3.94589e-20 0.069397)
(-0.310468 4.53433e-21 0.112471)
(-0.387967 4.26665e-21 0.140133)
(-0.4661 4.01292e-21 0.158296)
(-0.542599 1.09535e-20 0.170525)
(-0.615798 -1.44402e-20 0.178078)
(-0.684753 6.31342e-21 0.181076)
(-0.748996 -3.67576e-21 0.180118)
(-0.807023 -1.47314e-20 0.17654)
(-0.856951 7.96307e-21 0.171295)
(-0.897367 -2.63187e-22 0.163782)
(-0.928147 -2.46278e-21 0.151953)
(-0.950691 4.33551e-21 0.133623)
(-0.967501 -7.64778e-23 0.108358)
(-0.981021 -6.84625e-23 0.0780852)
(-0.992771 0 0.0461487)
(-1.00325 6.70773e-22 0.0157596)
(-1.01157 6.0754e-24 -0.0111122)
(-1.01871 -6.89873e-24 -0.0343215)
(-1.0286 -1.24159e-21 -0.0546532)
(-1.04307 0 -0.0730356)
(-1.06021 3.24574e-22 -0.0915014)
(-1.07182 0 -0.107809)
(-0.228807 1.18885e-19 -0.765949)
(-0.133307 -1.16354e-19 -0.692153)
(-0.144185 -1.33103e-23 -0.492339)
(-0.211102 -1.60368e-21 -0.302604)
(-0.31291 -3.00747e-21 -0.138443)
(-0.437835 -8.72364e-20 -0.00759407)
(-0.534298 8.53344e-20 0.0761507)
(-0.61869 0 0.131749)
(-0.699758 4.56342e-21 0.170468)
(-0.776706 0 0.195885)
(-0.849535 3.52688e-20 0.21112)
(-0.917271 -3.06574e-20 0.219262)
(-0.979287 -1.71907e-20 0.222059)
(-1.03558 1.67247e-20 0.220248)
(-1.08653 2.8692e-23 0.214566)
(-1.13205 2.87476e-21 0.206083)
(-1.17146 0 0.195522)
(-1.2041 4.85351e-21 0.182472)
(-1.23007 -2.54722e-22 0.165557)
(-1.25058 -8.72182e-21 0.14343)
(-1.26764 0 0.115953)
(-1.28295 -1.79517e-21 0.0846214)
(-1.29722 -1.53253e-21 0.0520299)
(-1.31059 1.506e-21 0.0210087)
(-1.32287 0 -0.00625148)
(-1.33457 0 -0.0289587)
(-1.35025 0 -0.0478326)
(-1.37141 1.08762e-22 -0.0646309)
(-1.39418 2.13548e-22 -0.0818375)
(-1.40769 -2.61986e-23 -0.0968055)
(-0.299878 -5.01397e-22 -0.740541)
(-0.261421 1.80186e-21 -0.606038)
(-0.343811 -1.09193e-19 -0.372249)
(-0.478748 1.08395e-19 -0.172328)
(-0.627993 6.12789e-21 -0.0163466)
(-0.746475 8.89953e-20 0.0856088)
(-0.847251 -8.70083e-20 0.153209)
(-0.939752 0 0.199603)
(-1.02262 2.66463e-20 0.230533)
(-1.09686 -3.5055e-20 0.249199)
(-1.16353 -3.11813e-20 0.258478)
(-1.22322 3.05128e-20 0.261031)
(-1.27667 3.49178e-21 0.258636)
(-1.32477 -3.22587e-21 0.252275)
(-1.36844 1.48913e-20 0.242694)
(-1.40814 -1.161e-20 0.23061)
(-1.4437 -5.15213e-21 0.216371)
(-1.47477 2.60822e-21 0.199566)
(-1.50136 0 0.179207)
(-1.52425 2.13523e-21 0.154441)
(-1.54462 0 0.125334)
(-1.56364 3.56462e-21 0.0931211)
(-1.58181 -1.51642e-21 0.0599587)
(-1.59922 8.32673e-22 0.0283821)
(-1.61608 1.8409e-21 0.000867243)
(-1.63252 0 -0.021084)
(-1.65323 0 -0.0381657)
(-1.68021 0 -0.0531024)
(-1.708 -3.23512e-23 -0.0688761)
(-1.72314 0 -0.0826946)
(-0.367049 5.02703e-22 -0.62797)
(-0.389058 0 -0.447169)
(-0.531457 -1.14066e-19 -0.201947)
(-0.715185 1.08175e-19 -0.00892398)
(-0.866846 -3.11964e-21 0.109723)
(-0.995575 -5.87406e-21 0.187025)
(-1.10849 0 0.23842)
(-1.20586 -4.97169e-21 0.271234)
(-1.28919 4.60373e-21 0.29051)
(-1.36088 -3.32954e-20 0.299776)
(-1.42327 -6.75158e-20 0.301684)
(-1.47822 5.91206e-20 0.298333)
(-1.52731 -3.48243e-20 0.291173)
(-1.57193 1.63818e-20 0.281068)
(-1.61319 1.16832e-20 0.268546)
(-1.65169 -2.2345e-20 0.253902)
(-1.68743 5.60178e-21 0.237083)
(-1.72009 7.42388e-21 0.217574)
(-1.74964 0 0.194655)
(-1.77648 6.13944e-21 0.167843)
(-1.80131 -4.04067e-21 0.137339)
(-1.82492 -3.5977e-21 0.104228)
(-1.84784 -1.498e-21 0.0704342)
(-1.87017 1.47187e-21 0.0384245)
(-1.89217 -3.00931e-21 0.0107589)
(-1.91457 -9.67765e-22 -0.0105358)
(-1.94016 4.25466e-22 -0.0258118)
(-1.97269 9.99721e-23 -0.0385769)
(-2.00525 -1.32632e-22 -0.0527409)
(-2.02197 0 -0.0656039)
(-0.428655 0 -0.43747)
(-0.503496 1.27042e-19 -0.224376)
(-0.697603 -2.4272e-19 0.0253779)
(-0.894837 2.30067e-19 0.162318)
(-1.06554 -1.07481e-19 0.246345)
(-1.21026 5.90917e-21 0.2986)
(-1.33119 7.9059e-20 0.328939)
(-1.43133 -7.7585e-20 0.344314)
(-1.51438 4.56955e-21 0.349772)
(-1.58422 -8.42348e-21 0.348612)
(-1.64434 -2.28514e-20 0.342848)
(-1.69732 2.99651e-20 0.333841)
(-1.74508 -6.83532e-21 0.322516)
(-1.78917 1.23276e-20 0.309384)
(-1.83074 -1.20696e-20 0.294579)
(-1.87038 -1.07094e-20 0.277969)
(-1.90816 5.50249e-21 0.25917)
(-1.94389 4.89256e-21 0.237611)
(-1.97751 0 0.212722)
(-2.00922 1.91887e-21 0.184238)
(-2.03945 -2.00726e-21 0.152491)
(-2.06873 0 0.118542)
(-2.0976 0 0.084202)
(-2.12616 0 0.051883)
(-2.1544 2.35651e-21 0.0241626)
(-2.18344 -1.9084e-21 0.00320283)
(-2.21542 -3.07747e-22 -0.0108107)
(-2.25215 3.02581e-22 -0.0214234)
(-2.28825 -5.70417e-22 -0.0335671)
(-2.30654 1.86696e-22 -0.0454551)
(-0.482038 0 -0.161228)
(-0.605404 1.05572e-21 0.110592)
(-0.822899 -1.25921e-19 0.261832)
(-1.05572 1.59909e-20 0.350262)
(-1.24823 1.10492e-19 0.396458)
(-1.4037 -9.28818e-20 0.417055)
(-1.52846 9.62293e-20 0.421858)
(-1.62863 4.35492e-20 0.41732)
(-1.71007 -1.58931e-20 0.407997)
(-1.77802 -2.61509e-20 0.396389)
(-1.83674 -1.61019e-22 0.383357)
(-1.88908 -7.08226e-21 0.369204)
(-1.93687 -1.29889e-20 0.354185)
(-1.98164 -5.49273e-21 0.338449)
(-2.02456 1.75177e-20 0.321801)
(-2.06633 0 0.303704)
(-2.10711 0 0.283461)
(-2.1468 0 0.260396)
(-2.18528 -4.29474e-21 0.234027)
(-2.22264 0 0.204237)
(-2.25912 3.68646e-21 0.171455)
(-2.29504 0 0.136765)
(-2.33079 3.04441e-21 0.101921)
(-2.36645 -3.95671e-21 0.0692697)
(-2.40178 -1.0616e-21 0.0414154)
(-2.43784 1.4848e-21 0.0205351)
(-2.47768 1.83838e-21 0.0071347)
(-2.52228 0 -0.00179276)
(-2.56239 0 -0.0116923)
(-2.5808 -1.64818e-22 -0.0221459)
(-0.497014 -6.55281e-22 0.291469)
(-0.6654 1.4098e-19 0.448938)
(-0.95454 -1.38599e-19 0.531188)
(-1.22261 -1.48625e-20 0.558138)
(-1.42847 -6.62284e-21 0.55431)
(-1.58654 5.9194e-21 0.537164)
(-1.70917 0 0.513635)
(-1.8052 -9.78796e-21 0.488143)
(-1.88241 -1.69032e-20 0.464209)
(-1.94722 7.40201e-20 0.442986)
(-2.00417 5.3056e-20 0.423571)
(-2.05589 -2.1727e-20 0.404856)
(-2.1038 0 0.386583)
(-2.14934 1.20706e-20 0.368695)
(-2.19382 -5.69429e-21 0.350714)
(-2.23811 0 0.331685)
(-2.28245 4.8096e-21 0.31056)
(-2.32672 0 0.286528)
(-2.37073 1.60708e-22 0.259155)
(-2.41448 4.11114e-21 0.228435)
(-2.45807 -1.68797e-21 0.194872)
(-2.50168 -1.5761e-21 0.15958)
(-2.54551 -4.47337e-21 0.124302)
(-2.58949 2.6917e-21 0.0913541)
(-2.63324 1.07294e-21 0.0633886)
(-2.6776 0 0.0426684)
(-2.72581 -1.42285e-21 0.0297647)
(-2.77919 -8.67228e-23 0.0220678)
(-2.82762 8.53044e-23 0.0145144)
(-2.85042 0 0.00620255)
(-0.506858 6.55174e-22 0.798909)
(-0.753772 1.44948e-19 0.856693)
(-1.12775 -1.51299e-19 0.834535)
(-1.4144 -1.06118e-19 0.77536)
(-1.6163 1.17791e-19 0.709385)
(-1.76406 -5.94355e-21 0.651611)
(-1.87628 0 0.599552)
(-1.96238 4.8474e-21 0.553497)
(-2.03106 -8.84579e-21 0.516305)
(-2.09009 -4.19847e-21 0.48739)
(-2.14401 -3.03028e-20 0.463096)
(-2.19433 -1.3267e-20 0.44066)
(-2.24162 1.91602e-20 0.41959)
(-2.28719 1.12626e-20 0.400063)
(-2.33274 -1.11988e-20 0.381437)
(-2.37935 -4.99664e-21 0.362214)
(-2.42724 -4.80837e-21 0.340883)
(-2.47614 0 0.316468)
(-2.52574 0 0.288599)
(-2.57598 -1.55316e-22 0.257391)
(-2.62692 -3.65905e-21 0.223411)
(-2.67864 4.96054e-21 0.187761)
(-2.73111 1.54321e-21 0.152139)
(-2.78393 2.03021e-21 0.118816)
(-2.83631 6.07251e-22 0.0904557)
(-2.88855 -1.86237e-21 0.0694293)
(-2.94352 1.5454e-21 0.056574)
(-3.00282 -1.42162e-22 0.0498155)
(-3.05613 4.38977e-22 0.0444345)
(-3.08093 -1.78502e-23 0.0383058)
(-0.572391 -2.36138e-20 1.44413)
(-0.933933 0 1.34279)
(-1.37431 -1.16108e-19 1.16587)
(-1.64623 6.76644e-20 0.984564)
(-1.8152 5.92547e-20 0.842861)
(-1.93357 0 0.749657)
(-2.02554 0 0.67373)
(-2.0946 0 0.608839)
(-2.14851 0 0.560839)
(-2.19779 -7.66509e-21 0.527853)
(-2.2468 -3.45837e-21 0.50122)
(-2.29434 0 0.476012)
(-2.33924 -1.2176e-20 0.452476)
(-2.38286 -5.77e-21 0.431904)
(-2.42766 5.17566e-21 0.413592)
(-2.47509 4.99759e-21 0.39514)
(-2.5251 0 0.374358)
(-2.57703 0 0.350123)
(-2.6304 0 0.322231)
(-2.68511 0 0.290978)
(-2.74131 1.67869e-21 0.256971)
(-2.79906 -4.87563e-21 0.221227)
(-2.85819 0 0.185326)
(-2.91805 0 0.151474)
(-2.97757 -5.18553e-22 0.122322)
(-3.03655 2.7801e-21 0.100372)
(-3.09741 -5.40556e-22 0.0869711)
(-3.16193 -7.43983e-22 0.0809788)
(-3.21979 -4.03855e-22 0.0781007)
(-3.24718 -1.69152e-23 0.0746675)
(-0.6919 -1.28604e-19 2.33264)
(-1.21709 0 1.93548)
(-1.72314 -5.57487e-20 1.51658)
(-1.93237 1.13513e-20 1.13687)
(-2.01785 4.24427e-20 0.914388)
(-2.07766 -3.97951e-20 0.820787)
(-2.14278 3.88485e-20 0.734404)
(-2.18859 0 0.64983)
(-2.21933 0 0.592518)
(-2.25362 7.30769e-21 0.561889)
(-2.29605 3.46116e-21 0.536818)
(-2.33928 0 0.509503)
(-2.3788 5.97641e-21 0.483201)
(-2.41668 -1.60005e-20 0.462089)
(-2.45724 5.23739e-21 0.445364)
(-2.50242 0 0.42883)
(-2.55147 0 0.409266)
(-2.60297 4.02157e-21 0.385555)
(-2.65619 0 0.357923)
(-2.71122 -1.75596e-21 0.327)
(-2.76855 3.39605e-21 0.293445)
(-2.82856 1.60377e-21 0.258116)
(-2.89124 0 0.222407)
(-2.95601 6.08393e-22 0.188398)
(-3.02163 -7.84665e-23 0.158641)
(-3.0873 -1.97666e-21 0.135616)
(-3.1547 -3.84004e-22 0.121138)
(-3.22539 1.78408e-21 0.115252)
(-3.28894 -8.15166e-24 0.114372)
(-3.31962 8.22093e-24 0.113089)
(10.0033 1.74515e-20 0.127571)
(9.98614 5.36106e-20 0.25803)
(9.95763 3.70097e-20 0.38952)
(9.92333 -3.81204e-20 0.522661)
(9.8819 -3.9384e-20 0.658895)
(9.83231 -2.67317e-22 0.799776)
(9.77486 8.30987e-20 0.946902)
(9.71016 -2.14194e-20 1.10168)
(9.6388 -2.18872e-20 1.26536)
(9.5612 -2.03609e-19 1.43937)
(9.47757 2.08429e-19 1.62528)
(9.38832 -4.76807e-20 1.82463)
(9.29392 3.92255e-19 2.03897)
(9.19481 -4.00553e-19 2.26998)
(9.09142 3.84493e-20 2.51956)
(8.98422 -4.20772e-19 2.78985)
(8.87371 4.42184e-19 3.08331)
(8.76039 -8.7453e-19 3.40285)
(8.64484 8.75337e-19 3.75199)
(8.52769 -2.78838e-20 4.13503)
(8.4097 9.36911e-19 4.55748)
(8.2919 8.33432e-21 5.0264)
(8.17575 7.09517e-20 5.551)
(8.06346 1.77366e-18 6.14389)
(7.95875 -2.6794e-20 6.8228)
(7.86854 -6.77312e-19 7.61402)
(7.81196 -9.1785e-19 8.55863)
(7.82046 1.1779e-18 9.73012)
(8.44899 -2.72026e-20 11.1913)
(8.82109 -3.60044e-19 14.0166)
(10.0038 -8.45402e-20 0.132181)
(9.98823 -1.75444e-20 0.267377)
(9.96253 -1.07335e-19 0.403625)
(9.93223 0 0.541518)
(9.89588 -3.80895e-20 0.682545)
(9.85245 0 0.828269)
(9.80229 2.54045e-22 0.980246)
(9.7461 -2.06887e-19 1.13988)
(9.68445 2.07179e-20 1.30847)
(9.6178 1.74517e-19 1.48744)
(9.54652 -2.0214e-19 1.67832)
(9.47115 1.83846e-19 1.8826)
(9.39229 0 2.10183)
(9.31056 0 2.33768)
(9.22662 -2.48292e-20 2.592)
(9.14122 -2.50042e-20 2.86689)
(9.05523 -2.54632e-20 3.16474)
(8.96966 0 3.48839)
(8.88573 -5.24445e-20 3.84121)
(8.805 2.70773e-20 4.2273)
(8.72952 0 4.65178)
(8.66214 -9.13614e-19 5.12107)
(8.60708 8.7144e-19 5.64339)
(8.57075 2.14421e-19 6.22945)
(8.56382 0 6.89338)
(8.60486 -1.04386e-19 7.65369)
(8.73269 -3.6408e-19 8.53293)
(8.95807 2.07611e-19 9.55883)
(9.59725 1.61417e-19 10.6826)
(10.1362 0 11.8959)
(10.0044 6.59452e-20 0.136317)
(9.99041 3.35867e-20 0.275757)
(9.96764 1.04533e-19 0.416262)
(9.9415 -7.16932e-20 0.558394)
(9.91041 -3.65713e-20 0.703659)
(9.87335 -7.56849e-20 0.853613)
(9.83071 1.56273e-19 1.00978)
(9.78324 -1.19697e-19 1.17355)
(9.73155 4.09397e-20 1.34624)
(9.67613 1.90175e-19 1.52925)
(9.6175 4.35378e-20 1.72404)
(9.55633 -1.10722e-19 1.93206)
(9.49332 3.18275e-19 2.15479)
(9.42928 -7.19235e-19 2.39383)
(9.3651 4.25826e-19 2.65097)
(9.30181 2.43253e-20 2.92815)
(9.24063 7.34878e-20 3.22762)
(9.18305 -3.98085e-19 3.55196)
(9.13091 4.55651e-19 3.90418)
(9.08655 0 4.28785)
(9.05309 5.05794e-20 4.70725)