/*--------------------------------*- C++ -*----------------------------------*\
| =========                 |                                                 |
| \\      /  F ield         | OpenFOAM: The Open Source CFD Toolbox           |
|  \\    /   O peration     | Version:  dev                                   |
|   \\  /    A nd           | Web:      www.OpenFOAM.org                      |
|    \\/     M anipulation  |                                                 |
\*---------------------------------------------------------------------------*/
FoamFile
{
    version     2.0;
    format      ascii;
    class       volVectorField;
    location    "0.04";
    object      Force;
}
// * * * * * * * * * * * * * * * * * * * * * * * * * * * * * * * * * * * * * //

dimensions      [1 1 -2 0 0 0 0];

internalField   uniform (0 0 0);

boundaryField
{
    inlet
    {
        type            calculated;
        value           uniform (0 0 0);
    }
    outlet
    {
        type            calculated;
        value           uniform (0 0 0);
    }
    flap
    {
        type            calculated;
        value           nonuniform List<vector> 
33
(
(2.5596 6.35489e-24 -0.0528263)
(2.56222 1.08364e-19 0.0171241)
(2.55234 1.63279e-17 -0.00103527)
(2.53718 -4.14167e-25 0.00101807)
(2.51501 3.80195e-25 0.00207694)
(2.48291 1.63088e-17 0.00183675)
(2.44047 -1.6308e-17 0.00313005)
(2.38484 6.30799e-21 0.0036072)
(2.31066 -3.16816e-24 0.00342742)
(2.21227 -1.17039e-20 0.00528471)
(2.07769 1.09919e-20 0.00615854)
(1.88435 1.62877e-17 0.00654582)
(1.59079 1.04808e-23 0.00919466)
(1.07986 -6.55187e-23 0.0105833)
(0.0332993 9.7731e-23 0.0101936)
(-0.443439 1.98163e-22 3.80803)
(0.0530568 7.34684e-40 3.73897)
(0.421115 -2.00206e-18 3.02988)
(1.68016 1.9641e-24 -0.0183658)
(1.70098 1.51221e-24 0.00580438)
(1.74043 4.9705e-25 -0.00193051)
(1.80184 -2.59006e-25 -0.000386671)
(1.88604 2.59018e-25 -0.0014188)
(1.99686 1.63084e-17 -0.00218478)
(2.13761 -1.13126e-20 -0.000775643)
(2.31477 1.36999e-25 -0.00310302)
(2.54157 1.63573e-17 -0.00388861)
(2.83905 -1.62975e-17 -0.00205988)
(3.23499 1.62894e-17 -0.00955048)
(3.74183 -5.65794e-24 -0.0144295)
(4.29276 1.62962e-17 -0.0104786)
(4.7025 1.64506e-17 -0.105568)
(4.8541 1.81182e-17 0.187257)
)
;
    }
    upperWall
    {
        type            calculated;
        value           uniform (0 0 0);
    }
    lowerWall
    {
        type            calculated;
        value           uniform (0 0 0);
    }
    frontAndBack
    {
        type            empty;
    }
}


// ************************************************************************* //
