/*--------------------------------*- C++ -*----------------------------------*\
| =========                 |                                                 |
| \\      /  F ield         | OpenFOAM: The Open Source CFD Toolbox           |
|  \\    /   O peration     | Version:  dev                                   |
|   \\  /    A nd           | Web:      www.OpenFOAM.org                      |
|    \\/     M anipulation  |                                                 |
\*---------------------------------------------------------------------------*/
FoamFile
{
    version     2.0;
    format      ascii;
    class       surfaceScalarField;
    location    "0.04";
    object      meshPhi;
}
// * * * * * * * * * * * * * * * * * * * * * * * * * * * * * * * * * * * * * //

dimensions      [0 3 -1 0 0 0 0];

internalField   nonuniform List<scalar> 
5457
(
2.45281e-08
3.93615e-09
4.60984e-08
1.11006e-08
6.36138e-08
1.6937e-08
7.69582e-08
2.13657e-08
8.62287e-08
2.44655e-08
9.16824e-08
2.63418e-08
9.3696e-08
2.7113e-08
9.27276e-08
2.69023e-08
8.92835e-08
2.58328e-08
8.3888e-08
2.40265e-08
7.70582e-08
2.16058e-08
6.92828e-08
1.86982e-08
6.10052e-08
1.544e-08
5.2612e-08
1.19815e-08
4.44253e-08
8.48682e-09
3.66997e-08
5.12984e-09
2.96225e-08
2.08379e-09
2.3318e-08
-4.94871e-10
1.78531e-08
-2.48568e-09
1.32455e-08
-3.8228e-09
9.4973e-09
-4.42194e-09
6.55629e-09
-4.28079e-09
4.31162e-09
-3.65092e-09
2.66185e-09
-2.82115e-09
1.51081e-09
-1.96576e-09
7.61911e-10
-1.21011e-09
3.21453e-10
-6.34381e-10
1.01095e-10
-2.65458e-10
1.95979e-11
-7.97344e-11
-1.33963e-11
2.46862e-08
7.8857e-09
4.63888e-08
2.22376e-08
6.40096e-08
3.39274e-08
7.74375e-08
4.27988e-08
8.67704e-08
4.90116e-08
9.22671e-08
5.27775e-08
9.43055e-08
5.43343e-08
9.33456e-08
5.3928e-08
8.98955e-08
5.18044e-08
8.44815e-08
4.82064e-08
7.76228e-08
4.33771e-08
6.98102e-08
3.75686e-08
6.14893e-08
3.10518e-08
5.30487e-08
2.41245e-08
4.48124e-08
1.71142e-08
3.70364e-08
1.03692e-08
2.99097e-08
4.23816e-09
2.35577e-08
-9.61983e-10
1.80487e-08
-4.98478e-09
1.34016e-08
-7.69167e-09
9.61642e-09
-8.91386e-09
6.64281e-09
-8.64277e-09
4.37256e-09
-7.37359e-09
2.70187e-09
-5.69461e-09
1.53485e-09
-3.96593e-09
7.74685e-10
-2.43962e-09
3.27107e-10
-1.27757e-09
1.02955e-10
-5.33814e-10
1.99762e-11
-1.60031e-10
-2.68109e-11
2.4922e-08
1.18453e-08
4.68284e-08
3.34015e-08
6.46186e-08
5.09579e-08
7.81851e-08
6.42848e-08
8.76278e-08
7.36255e-08
9.32068e-08
7.92998e-08
9.53018e-08
8.16649e-08
9.43744e-08
8.10899e-08
9.09343e-08
7.7942e-08
8.551e-08
7.25827e-08
7.86225e-08
6.53731e-08
7.07651e-08
5.66864e-08
6.23857e-08
4.6924e-08
5.38756e-08
3.65283e-08
4.55613e-08
2.59874e-08
3.77019e-08
1.58235e-08
3.04888e-08
6.56232e-09
2.40502e-08
-1.31442e-09
1.84568e-08
-7.42822e-09
1.37303e-08
-1.15603e-08
9.87066e-09
-1.34496e-08
6.83062e-09
-1.30702e-08
4.50472e-09
-1.1158e-08
2.78863e-09
-8.61535e-09
1.58686e-09
-5.99879e-09
8.02176e-10
-3.68872e-09
3.39159e-10
-1.93043e-09
1.06854e-10
-8.05826e-10
2.07479e-11
-2.41269e-10
-4.03545e-11
2.52265e-08
1.58099e-08
4.74034e-08
4.45797e-08
6.54235e-08
6.80112e-08
7.91817e-08
8.58049e-08
8.87801e-08
9.82903e-08
9.44808e-08
1.05897e-07
9.6665e-08
1.09102e-07
9.57959e-08
1.08397e-07
9.23847e-08
1.04269e-07
8.69613e-08
9.71958e-08
8.00487e-08
8.76523e-08
7.21423e-08
7.61288e-08
6.36928e-08
6.31519e-08
5.50942e-08
4.93038e-08
4.66768e-08
3.52293e-08
3.87029e-08
2.16222e-08
3.13682e-08
9.18597e-09
2.48046e-08
-1.42993e-09
1.90871e-08
-9.70899e-09
1.42407e-08
-1.53451e-08
1.02686e-08
-1.79686e-08
7.12696e-09
-1.75169e-08
4.7136e-09
-1.49707e-08
2.92601e-09
-1.15633e-08
1.66933e-09
-8.05416e-09
8.45794e-10
-4.95359e-09
3.58281e-10
-2.59236e-09
1.13047e-10
-1.08188e-09
2.19792e-11
-3.2378e-10
-5.4133e-11
2.56217e-08
1.97792e-08
4.81521e-08
5.57712e-08
6.64738e-08
8.50876e-08
8.04843e-08
1.07362e-07
9.02886e-08
1.23013e-07
9.61514e-08
1.32583e-07
9.8456e-08
1.3667e-07
9.76675e-08
1.35886e-07
9.42987e-08
1.30838e-07
8.88814e-08
1.22116e-07
8.19409e-08
1.10304e-07
7.3975e-08
9.60044e-08
6.54375e-08
7.98625e-08
5.67264e-08
6.25939e-08
4.81759e-08
4.49945e-08
4.00532e-08
2.7926e-08
3.25588e-08
1.22685e-08
2.58301e-08
-1.15795e-09
1.99472e-08
-1.16927e-08
1.49405e-08
-1.89335e-08
1.0817e-08
-2.23823e-08
7.53721e-09
-2.19173e-08
5.00395e-09
-1.87669e-08
3.11777e-09
-1.4511e-08
1.78491e-09
-1.01175e-08
9.07173e-10
-6.22788e-09
3.85291e-10
-3.26123e-09
1.21823e-10
-1.36152e-09
2.37273e-11
-4.0754e-10
-6.81383e-11
2.61078e-08
2.37525e-08
4.90742e-08
6.69746e-08
6.77686e-08
1.02185e-07
8.20916e-08
1.28955e-07
9.21519e-08
1.47797e-07
9.82173e-08
1.59367e-07
1.00674e-07
1.64386e-07
9.99893e-08
1.63589e-07
9.66778e-08
1.57696e-07
9.12734e-08
1.47408e-07
8.43036e-08
1.33414e-07
7.62694e-08
1.16421e-07
6.76281e-08
9.71868e-08
5.87819e-08
7.65514e-08
5.00701e-08
5.54549e-08
4.17655e-08
3.4921e-08
3.40747e-08
1.6004e-08
2.71413e-08
-3.04579e-10
2.10521e-08
-1.31942e-08
1.58439e-08
-2.2157e-08
1.15289e-08
-2.65462e-08
8.07291e-09
-2.61574e-08
5.38531e-09
-2.24644e-08
3.37118e-09
-1.74044e-08
1.93861e-09
-1.21571e-08
9.89273e-10
-7.49513e-09
4.21615e-10
-3.92985e-09
1.33679e-10
-1.64225e-09
2.60958e-11
-4.91916e-10
-8.22782e-11
2.66848e-08
2.7729e-08
5.01693e-08
7.81875e-08
6.93068e-08
1.193e-07
8.40018e-08
1.50579e-07
9.43678e-08
1.72638e-07
1.00677e-07
1.86251e-07
1.03318e-07
1.92262e-07
1.02761e-07
1.91527e-07
9.95233e-08
1.84881e-07
9.41402e-08
1.7313e-07
8.71422e-08
1.57063e-07
7.90332e-08
1.37485e-07
7.02745e-08
1.15257e-07
6.12732e-08
9.13366e-08
5.23741e-08
6.67977e-08
4.38563e-08
4.28181e-08
3.59336e-08
2.06206e-08
2.8757e-08
1.36761e-09
2.24208e-08
-1.39767e-08
1.69697e-08
-2.47897e-08
1.24219e-08
-3.02581e-08
8.74966e-09
-3.00726e-08
5.8708e-09
-2.59425e-08
3.69642e-09
-2.01632e-08
2.13752e-09
-1.41243e-08
1.09641e-09
-8.72961e-09
4.69385e-10
-4.58665e-09
1.49376e-10
-1.91992e-09
2.92544e-11
-5.75852e-10
-9.64272e-11
2.73528e-08
3.17078e-08
5.14368e-08
8.94064e-08
7.10867e-08
1.36426e-07
8.62125e-08
1.72226e-07
9.69335e-08
1.97527e-07
1.03527e-07
2.13228e-07
1.06386e-07
2.20297e-07
1.05982e-07
2.19712e-07
1.02836e-07
2.12419e-07
9.74853e-08
1.99327e-07
9.04624e-08
1.81319e-07
8.22748e-08
1.59292e-07
7.33881e-08
1.34202e-07
6.42143e-08
1.07112e-07
5.51045e-08
7.92191e-08
4.6345e-08
5.18456e-08
3.81569e-08
2.63741e-08
3.06999e-08
4.13324e-09
2.40769e-08
-1.37579e-08
1.83414e-08
-2.65543e-08
1.35185e-08
-3.32638e-08
9.58797e-09
-3.34529e-08
6.47799e-09
-2.90459e-08
4.10747e-09
-2.26829e-08
2.39172e-09
-1.59562e-08
1.23488e-09
-9.89814e-09
5.31791e-10
-5.21698e-09
1.70081e-10
-2.18947e-09
3.34611e-11
-6.5812e-10
-1.10397e-10
2.81118e-08
3.56879e-08
5.2876e-08
1.00627e-07
7.31065e-08
1.53552e-07
8.87205e-08
1.9388e-07
9.98451e-08
2.22448e-07
1.06764e-07
2.40281e-07
1.09874e-07
2.4848e-07
1.09651e-07
2.48142e-07
1.06617e-07
2.40323e-07
1.01311e-07
2.26031e-07
9.42701e-08
2.06238e-07
8.60035e-08
1.81927e-07
7.69814e-08
1.54139e-07
6.76214e-08
1.24032e-07
5.8281e-08
9.29154e-08
4.92539e-08
6.22398e-08
4.07699e-08
3.35364e-08
3.29974e-08
8.29179e-09
2.60491e-08
-1.22227e-08
1.99881e-08
-2.71351e-08
1.4847e-08
-3.52684e-08
1.06142e-08
-3.60517e-08
7.23018e-09
-3.15917e-08
4.62347e-09
-2.48415e-08
2.71548e-09
-1.758e-08
1.41396e-09
-1.09633e-08
6.13751e-10
-5.80531e-09
1.97679e-10
-2.44616e-09
3.91596e-11
-7.37852e-10
-1.24132e-10
2.89621e-08
3.96685e-08
5.44864e-08
1.11845e-07
7.53639e-08
1.70668e-07
9.1522e-08
2.15522e-07
1.03098e-07
2.47372e-07
1.10383e-07
2.67384e-07
1.13779e-07
2.76787e-07
1.13765e-07
2.76801e-07
1.10865e-07
2.6859e-07
1.05621e-07
2.53255e-07
9.85711e-08
2.31857e-07
9.02286e-08
2.05455e-07
8.10679e-08
1.75168e-07
7.15119e-08
1.42239e-07
6.1925e-08
1.08071e-07
5.26086e-08
7.42301e-08
4.38014e-08
4.23797e-08
3.56814e-08
1.41506e-08
2.83714e-08
-9.04112e-09
2.1945e-08
-2.61954e-08
1.64426e-08
-3.59534e-08
1.18621e-08
-3.76004e-08
8.15794e-09
-3.33796e-08
5.27047e-09
-2.65055e-08
3.12909e-09
-1.89177e-08
1.64752e-09
-1.18876e-08
7.23028e-10
-6.33822e-09
2.35329e-10
-2.6874e-09
4.7149e-11
-8.15353e-10
-1.37936e-10
2.99044e-08
4.36502e-08
5.62679e-08
1.23058e-07
7.78562e-08
1.87759e-07
9.46122e-08
2.37123e-07
1.06686e-07
2.72265e-07
1.14377e-07
2.94495e-07
1.18094e-07
3.05178e-07
1.1832e-07
3.05654e-07
1.15579e-07
2.97194e-07
1.10416e-07
2.80993e-07
1.0337e-07
2.58189e-07
9.49595e-08
2.29916e-07
8.56614e-08
1.97364e-07
7.59045e-08
1.61845e-07
6.60599e-08
1.24844e-07
5.64372e-08
8.80236e-08
4.72839e-08
5.3158e-08
3.87882e-08
2.20046e-08
3.10833e-08
-3.88903e-09
2.42537e-08
-2.33985e-08
1.83479e-08
-3.49956e-08
1.33735e-08
-3.7823e-08
9.30094e-09
-3.42027e-08
6.0838e-09
-2.75379e-08
3.66152e-09
-1.98919e-08
1.95658e-09
-1.26372e-08
8.72242e-10
-6.80781e-09
2.88571e-10
-2.91541e-09
5.89644e-11
-8.93544e-10
-1.52737e-10
3.09406e-08
4.76354e-08
5.82212e-08
1.34267e-07
8.05806e-08
2.04812e-07
9.7985e-08
2.58651e-07
1.10601e-07
2.97079e-07
1.18738e-07
3.2156e-07
1.22812e-07
3.33597e-07
1.23309e-07
3.34649e-07
1.20755e-07
3.26093e-07
1.15695e-07
3.0921e-07
1.08672e-07
2.85218e-07
1.00205e-07
2.5532e-07
9.07758e-08
2.20764e-07
8.08184e-08
1.82926e-07
7.07106e-08
1.43356e-07
6.07698e-08
1.03789e-07
5.12531e-08
6.60886e-08
4.23584e-08
3.21155e-08
3.42299e-08
3.52969e-09
2.69632e-08
-1.84297e-08
2.06141e-08
-3.20872e-08
1.52006e-08
-3.64519e-08
1.07101e-08
-3.38571e-08
7.111e-09
-2.7803e-08
4.35417e-09
-2.04278e-08
2.37353e-09
-1.31852e-08
1.08266e-09
-7.21591e-09
3.6782e-10
-3.14142e-09
7.79025e-11
-9.8087e-10
-1.71179e-10
3.20739e-08
5.16305e-08
6.03487e-08
1.45478e-07
8.35337e-08
2.21812e-07
1.01633e-07
2.80066e-07
1.14833e-07
3.21757e-07
1.23456e-07
3.4851e-07
1.27924e-07
3.61969e-07
1.28725e-07
3.63712e-07
1.26388e-07
3.55216e-07
1.21458e-07
3.37847e-07
1.14479e-07
3.12899e-07
1.05973e-07
2.81636e-07
9.64243e-08
2.45366e-07
8.62728e-08
2.05513e-07
7.59023e-08
1.63674e-07
6.56384e-08
1.21639e-07
5.5747e-08
8.13344e-08
4.64365e-08
4.46929e-08
3.78615e-08
1.34634e-08
3.01289e-08
-1.10157e-08
2.33013e-08
-2.69524e-08
1.74063e-08
-3.32396e-08
1.24497e-08
-3.2147e-08
8.41516e-09
-2.71663e-08
5.26577e-09
-2.04527e-08
2.94845e-09
-1.35117e-08
1.39107e-09
-7.57795e-09
4.93727e-10
-3.39274e-09
1.11609e-10
-1.09747e-09
-1.99998e-10
3.33106e-08
5.56485e-08
6.26554e-08
1.56715e-07
8.67114e-08
2.3875e-07
1.05548e-07
3.0132e-07
1.19372e-07
3.46229e-07
1.28517e-07
3.75262e-07
1.33415e-07
3.90202e-07
1.34556e-07
3.92749e-07
1.3247e-07
3.84471e-07
1.277e-07
3.66817e-07
1.20792e-07
3.41151e-07
1.12268e-07
3.08799e-07
1.02619e-07
2.71121e-07
9.22859e-08
2.2958e-07
8.16604e-08
1.85808e-07
7.10754e-08
1.41625e-07
6.08058e-08
9.89897e-08
5.10699e-08
5.98783e-08
4.20331e-08
2.60966e-08
3.38131e-08
-9.40028e-10
2.64781e-08
-1.93615e-08
2.0065e-08
-2.79668e-08
1.45985e-08
-2.88854e-08
1.0078e-08
-2.54885e-08
6.47798e-09
-1.98851e-08
3.75815e-09
-1.35965e-08
1.86204e-09
-7.92491e-09
7.09495e-10
-3.72503e-09
1.79255e-10
-1.29009e-09
-2.56265e-10
3.45922e-08
5.94042e-08
6.51144e-08
1.67564e-07
9.01307e-08
2.5559e-07
1.09739e-07
3.22574e-07
1.24225e-07
3.70638e-07
1.33933e-07
4.01962e-07
1.393e-07
4.18449e-07
1.40821e-07
4.21916e-07
1.39023e-07
4.14022e-07
1.34448e-07
3.96285e-07
1.27642e-07
3.70139e-07
1.1913e-07
3.36976e-07
1.09404e-07
2.982e-07
9.89097e-08
2.55307e-07
8.80437e-08
2.0995e-07
7.71465e-08
1.63956e-07
6.6502e-08
1.1929e-07
5.63385e-08
7.7935e-08
4.68318e-08
4.17182e-08
3.81104e-08
1.21022e-08
3.02466e-08
-9.00961e-09
2.32855e-08
-2.03452e-08
1.72721e-08
-2.38175e-08
1.22218e-08
-2.25669e-08
8.11955e-09
-1.85938e-08
4.93588e-09
-1.33978e-08
2.62883e-09
-8.31534e-09
1.1354e-09
-4.28603e-09
3.6317e-10
-1.73768e-09
-4.25166e-10
3.70051e-11
2.45166e-12
1.89694e-10
1.57438e-11
5.98406e-10
5.7633e-11
1.40331e-09
1.55573e-10
2.74503e-09
3.4548e-10
4.75736e-09
6.72526e-10
7.55944e-09
1.18847e-09
1.1248e-08
1.94586e-09
1.58908e-08
2.98996e-09
2.13999e-08
4.33826e-09
2.76826e-08
5.98164e-09
3.47507e-08
7.90691e-09
4.25268e-08
1.00821e-08
5.08492e-08
1.24481e-08
5.95068e-08
1.49335e-08
6.8241e-08
1.74601e-08
7.67495e-08
1.99461e-08
8.46908e-08
2.23079e-08
9.16908e-08
2.44588e-08
9.73506e-08
2.63071e-08
1.01256e-07
2.77543e-08
1.02989e-07
2.86942e-08
1.02138e-07
2.90127e-08
9.83179e-08
2.85898e-08
9.11822e-08
2.73022e-08
8.04454e-08
2.50267e-08
6.59053e-08
2.16446e-08
4.74688e-08
1.70455e-08
2.51797e-08
1.11321e-08
3.94259e-09
3.7478e-11
4.91196e-12
1.92082e-10
3.14834e-11
6.05707e-10
1.1546e-10
1.41981e-09
3.12214e-10
2.77606e-09
6.94414e-10
4.80888e-09
1.3534e-09
7.63751e-09
2.39357e-09
1.13579e-08
3.92039e-09
1.60345e-08
6.02384e-09
2.15899e-08
8.73786e-09
2.79242e-08
1.20422e-08
3.5038e-08
1.59073e-08
4.28617e-08
2.02679e-08
5.12313e-08
2.50058e-08
5.99336e-08
2.99781e-08
6.87087e-08
3.50284e-08
7.72525e-08
3.99945e-08
8.52222e-08
4.47099e-08
9.22423e-08
4.90019e-08
9.79129e-08
5.26881e-08
1.01819e-07
5.5572e-08
1.0354e-07
5.74412e-08
1.02667e-07
5.80681e-08
9.88106e-08
5.72126e-08
9.16257e-08
5.46283e-08
8.08258e-08
5.00692e-08
6.62084e-08
4.32979e-08
4.76803e-08
3.40937e-08
2.52868e-08
2.22628e-08
7.8837e-09
3.82988e-11
7.40977e-12
1.96191e-10
4.75615e-11
6.18282e-10
1.74699e-10
1.44827e-09
4.73101e-10
2.82952e-09
1.05354e-09
4.89744e-09
2.05497e-09
7.77135e-09
3.63556e-09
1.15464e-08
5.95394e-09
1.62849e-08
9.14374e-09
2.19144e-08
1.32527e-08
2.83281e-08
1.82447e-08
3.55193e-08
2.40697e-08
4.34216e-08
3.0628e-08
5.1868e-08
3.77416e-08
6.06426e-08
4.51962e-08
6.94829e-08
5.27586e-08
7.80825e-08
6.01874e-08
8.60964e-08
6.72348e-08
9.31471e-08
7.36442e-08
9.88328e-08
7.91435e-08
1.02737e-07
8.34396e-08
1.04438e-07
8.6215e-08
1.03525e-07
8.71291e-08
9.96095e-08
8.58231e-08
9.23439e-08
8.19282e-08
8.14418e-08
7.50763e-08
6.67003e-08
6.49118e-08
4.80262e-08
5.11047e-08
2.54661e-08
3.33654e-08
1.18138e-08
3.94705e-11
1.00104e-11
2.02054e-10
6.43489e-11
6.36259e-10
2.36648e-10
1.48898e-09
6.41544e-10
2.90591e-09
1.42972e-09
5.02364e-09
2.78963e-09
7.96156e-09
4.93453e-09
1.18138e-08
8.07638e-09
1.66416e-08
1.23912e-08
2.23706e-08
1.79358e-08
2.88901e-08
2.4651e-08
3.61894e-08
3.24614e-08
4.41998e-08
4.12312e-08
5.27508e-08
5.07226e-08
6.16235e-08
6.06497e-08
7.05517e-08
7.0704e-08
7.9226e-08
8.05669e-08
8.72986e-08
8.99121e-08
9.43892e-08
9.84014e-08
1.00094e-07
1.05675e-07
1.03994e-07
1.11345e-07
1.05666e-07
1.14992e-07
1.04698e-07
1.16162e-07
1.007e-07
1.14379e-07
9.33243e-08
1.09155e-07
8.22833e-08
1e-07
6.73736e-08
8.64424e-08
4.8502e-08
6.80427e-08
2.57152e-08
4.44164e-08
1.57249e-08
4.10943e-11
1.27649e-11
2.10176e-10
8.21306e-11
6.61141e-10
3.02341e-10
1.54518e-09
8.20314e-10
3.01101e-09
1.82903e-09
5.19663e-09
3.5689e-09
8.22122e-09
6.30995e-09
1.21774e-08
1.03177e-08
1.7124e-08
1.58086e-08
2.29839e-08
2.28426e-08
2.96428e-08
3.13274e-08
3.7085e-08
4.11561e-08
4.52374e-08
5.21554e-08
5.39253e-08
6.40268e-08
6.29255e-08
7.64131e-08
7.19678e-08
8.89323e-08
8.07387e-08
1.01192e-07
8.88865e-08
1.12789e-07
9.6028e-08
1.23309e-07
1.01756e-07
1.32306e-07
1.05649e-07
1.393e-07
1.07283e-07
1.43771e-07
1.06241e-07
1.45155e-07
1.02135e-07
1.42863e-07
9.46142e-08
1.36286e-07
8.33908e-08
1.24816e-07
6.82606e-08
1.07864e-07
4.91297e-08
8.48863e-08
2.60444e-08
5.54016e-08
1.96119e-08
4.3289e-11
1.57095e-11
2.2112e-10
1.01173e-10
6.94526e-10
3.72793e-10
1.62021e-09
1.01224e-09
3.15046e-09
2.25785e-09
5.42469e-09
4.40503e-09
8.56136e-09
7.78268e-09
1.26507e-08
1.27099e-08
1.77479e-08
1.94408e-08
2.37722e-08
2.80305e-08
3.0605e-08
3.83419e-08
3.82247e-08
5.02286e-08
4.65526e-08
6.34781e-08
5.54087e-08
7.77307e-08
6.45647e-08
9.25585e-08
7.37453e-08
1.07508e-07
8.26326e-08
1.22117e-07
9.08704e-08
1.35911e-07
9.80714e-08
1.48399e-07
1.03825e-07
1.59056e-07
1.07707e-07
1.67312e-07
1.09289e-07
1.72549e-07
1.08155e-07
1.74097e-07
1.03913e-07
1.71254e-07
9.62118e-08
1.63294e-07
8.47621e-08
1.49494e-07
6.93589e-08
1.2915e-07
4.99072e-08
1.01612e-07
2.64523e-08
6.63053e-08
2.34692e-08
4.62355e-11
1.88775e-11
2.3572e-10
1.21736e-10
7.38764e-10
4.49063e-10
1.71883e-09
1.22039e-09
3.33219e-09
2.72323e-09
5.71924e-09
5.31172e-09
8.99688e-09
9.37592e-09
1.32517e-08
1.5288e-08
1.8534e-08
2.33361e-08
2.47582e-08
3.35608e-08
3.18003e-08
4.57653e-08
3.96322e-08
5.9755e-08
4.81682e-08
7.52769e-08
5.72224e-08
9.19093e-08
6.65604e-08
1.09155e-07
7.59017e-08
1.26493e-07
8.49225e-08
1.43392e-07
9.32621e-08
1.59315e-07
1.00529e-07
1.73698e-07
1.06307e-07
1.85939e-07
1.1017e-07
1.95384e-07
1.11688e-07
2.01318e-07
1.1044e-07
2.0297e-07
1.06033e-07
1.99527e-07
9.81147e-08
1.90151e-07
8.63944e-08
1.74003e-07
7.06657e-08
1.5027e-07
5.08322e-08
1.18195e-07
2.69377e-08
7.71103e-08
2.72905e-08
5.02196e-11
2.23085e-11
2.55253e-10
1.441e-10
7.97324e-10
5.32364e-10
1.8479e-09
1.44838e-09
3.56722e-09
3.23363e-09
6.09579e-09
6.30537e-09
9.54751e-09
1.11171e-08
1.40039e-08
1.80927e-08
1.95087e-08
2.75491e-08
2.597e-08
3.95002e-08
3.32576e-08
5.36728e-08
4.13359e-08
6.98143e-08
5.01115e-08
8.76294e-08
5.93917e-08
1.06636e-07
6.89358e-08
1.26268e-07
7.84568e-08
1.45941e-07
8.76254e-08
1.65064e-07
9.60753e-08
1.83035e-07
1.0341e-07
1.99227e-07
1.0921e-07
2.12966e-07
1.13044e-07
2.23513e-07
1.1448e-07
2.30065e-07
1.13095e-07
2.31752e-07
1.08493e-07
2.27653e-07
1.0032e-07
2.16822e-07
8.82839e-08
1.98308e-07
7.21772e-08
1.7119e-07
5.19018e-08
1.34607e-07
2.74987e-08
8.77975e-08
3.10691e-08
5.57108e-11
2.60286e-11
2.81721e-10
1.68578e-10
8.7546e-10
6.24224e-10
2.01738e-09
1.701e-09
3.87096e-09
3.8002e-09
6.57518e-09
7.40711e-09
1.0239e-08
1.30404e-08
1.49369e-08
2.11732e-08
2.07047e-08
3.21437e-08
2.7442e-08
4.5924e-08
3.50115e-08
6.21462e-08
4.33694e-08
8.04889e-08
5.24142e-08
1.00614e-07
6.1946e-08
1.21981e-07
7.17168e-08
1.4396e-07
8.14333e-08
1.65905e-07
9.076e-08
1.8717e-07
9.93247e-08
2.07098e-07
1.06726e-07
2.25001e-07
1.1254e-07
2.40136e-07
1.16333e-07
2.5169e-07
1.17667e-07
2.58771e-07
1.16118e-07
2.60414e-07
1.11289e-07
2.55597e-07
1.02822e-07
2.43267e-07
9.04258e-08
2.22368e-07
7.38892e-08
1.91872e-07
5.31122e-08
1.50816e-07
2.81334e-08
9.8346e-08
3.47974e-08
6.3538e-11
3.00264e-11
3.18435e-10
1.95553e-10
9.81352e-10
7.26871e-10
2.24194e-09
1.9853e-09
4.26505e-09
4.43896e-09
7.18544e-09
8.64614e-09
1.11047e-08
1.51913e-08
1.60881e-08
2.45921e-08
2.21618e-08
3.71975e-08
2.92152e-08
5.29205e-08
3.71023e-08
7.12768e-08
4.57714e-08
9.18667e-08
5.51123e-08
1.14312e-07
6.49176e-08
1.38016e-07
7.49322e-08
1.62287e-07
8.48556e-08
1.86428e-07
9.43461e-08
2.09742e-07
1.03026e-07
2.31522e-07
1.10488e-07
2.51024e-07
1.16306e-07
2.67445e-07
1.20039e-07
2.79897e-07
1.21248e-07
2.87406e-07
1.19508e-07
2.88919e-07
1.14417e-07
2.83315e-07
1.05617e-07
2.69442e-07
9.28145e-08
2.46138e-07
7.57962e-08
2.12274e-07
5.44595e-08
1.66788e-07
2.88395e-08
1.08732e-07
3.8467e-08
7.53125e-11
3.42406e-11
3.71208e-10
2.25524e-10
1.12824e-09
8.43949e-10
2.54372e-09
2.31268e-09
4.78007e-09
5.17469e-09
7.96412e-09
1.00652e-08
1.21872e-08
1.76325e-08
1.75038e-08
2.84312e-08
2.39283e-08
4.28084e-08
3.13378e-08
6.05956e-08
3.95764e-08
8.11685e-08
4.85851e-08
1.04042e-07
5.82456e-08
1.28803e-07
6.83423e-08
1.54806e-07
7.86127e-08
1.81302e-07
8.87495e-08
2.07546e-07
9.84046e-08
2.328e-07
1.07195e-07
2.56313e-07
1.14708e-07
2.77292e-07
1.20512e-07
2.94873e-07
1.24164e-07
3.08104e-07
1.25223e-07
3.15933e-07
1.2326e-07
3.17221e-07
1.17871e-07
3.10757e-07
1.08698e-07
2.95291e-07
9.54428e-08
2.69564e-07
7.78916e-08
2.32348e-07
5.59384e-08
1.82484e-07
2.96141e-08
1.1893e-07
4.20683e-08
9.44423e-11
3.83475e-11
4.50869e-10
2.59156e-10
1.33833e-09
9.82038e-10
2.95656e-09
2.70306e-09
5.45938e-09
6.04769e-09
8.96125e-09
1.17287e-08
1.35408e-08
2.04524e-08
1.92404e-08
3.27999e-08
2.60617e-08
4.91018e-08
3.38658e-08
6.90797e-08
4.24859e-08
9.19403e-08
5.18584e-08
1.17115e-07
6.18571e-08
1.44171e-07
7.22578e-08
1.72415e-07
8.27907e-08
2.01049e-07
9.31415e-08
2.29287e-07
1.02956e-07
2.56357e-07
1.11846e-07
2.81469e-07
1.19394e-07
3.03786e-07
1.25164e-07
3.22393e-07
1.28711e-07
3.36273e-07
1.29589e-07
3.44303e-07
1.27369e-07
3.45265e-07
1.21644e-07
3.37862e-07
1.12055e-07
3.20753e-07
9.8302e-08
2.92587e-07
8.01678e-08
2.5204e-07
5.75431e-08
1.97858e-07
3.0454e-08
1.28909e-07
4.55909e-08
1.28836e-10
4.13399e-11
5.78897e-10
2.97496e-10
1.64996e-09
1.15433e-09
3.53268e-09
3.1931e-09
6.36417e-09
7.12557e-09
1.02426e-08
1.37357e-08
1.52329e-08
2.37759e-08
2.13658e-08
3.78425e-08
2.86301e-08
5.62389e-08
3.68633e-08
7.85347e-08
4.58881e-08
1.03728e-07
5.56429e-08
1.31191e-07
6.59925e-08
1.60498e-07
7.67036e-08
1.90906e-07
8.74989e-08
2.21567e-07
9.8058e-08
2.51669e-07
1.08021e-07
2.80411e-07
1.16993e-07
3.06973e-07
1.24554e-07
3.30479e-07
1.30265e-07
3.49962e-07
1.33676e-07
3.64351e-07
1.34341e-07
3.72455e-07
1.31826e-07
3.72982e-07
1.25726e-07
3.64558e-07
1.15679e-07
3.45756e-07
1.01382e-07
3.15137e-07
8.26155e-08
2.71287e-07
5.92667e-08
2.12862e-07
3.13554e-08
1.38637e-07
4.9023e-08
1.98427e-10
4.0803e-11
8.00403e-10
3.43592e-10
2.13058e-09
1.39036e-09
4.35215e-09
3.8534e-09
7.57926e-09
8.52347e-09
1.18927e-08
1.6238e-08
1.73451e-08
2.77768e-08
2.39587e-08
4.37436e-08
3.17136e-08
6.44261e-08
4.04034e-08
8.9167e-08
4.9843e-08
1.16678e-07
5.99925e-08
1.46368e-07
7.06995e-08
1.77865e-07
8.17198e-08
2.10333e-07
9.277e-08
2.42884e-07
1.03524e-07
2.74695e-07
1.13617e-07
3.04948e-07
1.22649e-07
3.32795e-07
1.30196e-07
3.57324e-07
1.35816e-07
3.77524e-07
1.39056e-07
3.9227e-07
1.3947e-07
4.00313e-07
1.36622e-07
4.00293e-07
1.30106e-07
3.90762e-07
1.19556e-07
3.70217e-07
1.0467e-07
3.37136e-07
8.52241e-08
2.90021e-07
6.11009e-08
2.2744e-07
3.23138e-08
1.48078e-07
5.23513e-08
3.88543e-10
2.08095e-11
1.24087e-09
4.05624e-10
2.91921e-09
1.77991e-09
5.55351e-09
4.8531e-09
9.23766e-09
1.04792e-08
1.40365e-08
1.95217e-08
1.99938e-08
3.27639e-08
2.71294e-08
5.08167e-08
3.54038e-08
7.38522e-08
4.45655e-08
1.01e-07
5.4436e-08
1.30892e-07
6.49919e-08
1.629e-07
7.60574e-08
1.96555e-07
8.73776e-08
2.30965e-07
9.86675e-08
2.65246e-07
1.09596e-07
2.98596e-07
1.19794e-07
3.30187e-07
1.28856e-07
3.59145e-07
1.36354e-07
3.84524e-07
1.41845e-07
4.05271e-07
1.44875e-07
4.20214e-07
1.44995e-07
4.2805e-07
1.4177e-07
4.27357e-07
1.34791e-07
4.16621e-07
1.23693e-07
3.94267e-07
1.08169e-07
3.58698e-07
8.79949e-08
3.08335e-07
6.30461e-08
2.41661e-07
3.33291e-08
1.57274e-07
5.55912e-08
3.71705e-08
6.26356e-08
7.01719e-08
1.77255e-07
9.73681e-08
2.71664e-07
1.18652e-07
3.43896e-07
1.3442e-07
3.95413e-07
1.45132e-07
4.29032e-07
1.51241e-07
4.47154e-07
1.53265e-07
4.51682e-07
1.51746e-07
4.44358e-07
1.47244e-07
4.26755e-07
1.40325e-07
4.00375e-07
1.31537e-07
3.6668e-07
1.2139e-07
3.27119e-07
1.10354e-07
2.83211e-07
9.88437e-08
2.36615e-07
8.72209e-08
1.8915e-07
7.57894e-08
1.42753e-07
6.47966e-08
9.93826e-08
5.44364e-08
6.08473e-08
4.48533e-08
2.86232e-08
3.61248e-08
4.59308e-09
2.83048e-08
-9.92411e-09
2.14637e-08
-1.65354e-08
1.56356e-08
-1.80428e-08
1.08162e-08
-1.62907e-08
6.98326e-09
-1.27249e-08
4.10292e-09
-8.68141e-09
2.12349e-09
-5.15717e-09
9.61882e-10
-2.68274e-09
-1.35081e-09
3.9657e-10
3.92747e-08
6.55831e-08
7.43494e-08
1.85807e-07
1.03626e-07
2.85921e-07
1.26698e-07
3.64086e-07
1.43746e-07
4.20293e-07
1.5541e-07
4.56634e-07
1.62277e-07
4.76433e-07
1.64871e-07
4.82186e-07
1.63733e-07
4.75649e-07
1.5943e-07
4.58419e-07
1.52548e-07
4.32071e-07
1.43646e-07
3.98146e-07
1.3325e-07
3.58133e-07
1.21841e-07
3.13567e-07
1.09851e-07
2.66101e-07
9.76578e-08
2.17522e-07
8.55822e-08
1.69721e-07
7.38886e-08
1.24593e-07
6.27876e-08
8.38922e-08
5.24401e-08
4.90678e-08
4.29251e-08
2.19074e-08
3.43013e-08
3.76947e-09
2.66699e-08
-6.52307e-09
2.00876e-08
-1.13536e-08
1.45604e-08
-1.23956e-08
1.00762e-08
-1.10245e-08
6.6046e-09
-8.55345e-09
4.10526e-09
-6.00755e-09
2.50348e-09
-4.00929e-09
-2.8263e-09
1.75145e-09
4.14914e-08
6.84276e-08
7.86185e-08
1.93843e-07
1.09933e-07
2.98559e-07
1.35106e-07
3.81788e-07
1.539e-07
4.43639e-07
1.66731e-07
4.84278e-07
1.74441e-07
5.06293e-07
1.77709e-07
5.13386e-07
1.77049e-07
5.07891e-07
1.73021e-07
4.91293e-07
1.66244e-07
4.65252e-07
1.57291e-07
4.31421e-07
1.46696e-07
3.91315e-07
1.34957e-07
3.46471e-07
1.2252e-07
2.98525e-07
1.0978e-07
2.49224e-07
9.70757e-08
2.00389e-07
8.46897e-08
1.53827e-07
7.28515e-08
1.11199e-07
6.17422e-08
7.38729e-08
5.14443e-08
4.34084e-08
4.20006e-08
2.12505e-08
3.35493e-08
6.86678e-09
2.61907e-08
-1.70941e-09
1.99339e-08
-6.01095e-09
1.4782e-08
-7.32308e-09
1.07145e-08
-6.93301e-09
7.70043e-09
-5.86363e-09
5.69167e-09
-4.82374e-09
-4.21422e-09
4.70983e-09
4.38729e-08
7.1131e-08
8.31642e-08
2.0154e-07
1.16428e-07
3.10459e-07
1.43618e-07
3.97456e-07
1.64531e-07
4.6396e-07
1.79068e-07
5.10109e-07
1.87856e-07
5.36219e-07
1.91912e-07
5.45369e-07
1.91847e-07
5.41167e-07
1.88181e-07
5.2547e-07
1.81597e-07
4.99999e-07
1.72674e-07
4.66604e-07
1.61954e-07
4.2678e-07
1.49947e-07
3.82051e-07
1.37117e-07
3.34034e-07
1.23876e-07
2.84426e-07
1.10582e-07
2.34972e-07
9.75362e-08
1.87372e-07
8.49886e-08
1.43172e-07
7.31433e-08
1.03614e-07
6.20941e-08
6.98903e-08
5.18559e-08
4.34138e-08
4.25868e-08
2.44518e-08
3.44465e-08
1.17643e-08
2.74667e-08
3.98219e-09
2.16656e-08
-2.81173e-10
1.70374e-08
-2.29969e-09
1.35674e-08
-3.05269e-09
1.12343e-08
-3.32704e-09
-3.57881e-09
1.00958e-08
4.64276e-08
7.36865e-08
8.80607e-08
2.08835e-07
1.23382e-07
3.21846e-07
1.5244e-07
4.12225e-07
1.75357e-07
4.81894e-07
1.92032e-07
5.32445e-07
2.02495e-07
5.64041e-07
2.07658e-07
5.77554e-07
2.08324e-07
5.75684e-07
2.05098e-07
5.61049e-07
1.98817e-07
5.36352e-07
1.90032e-07
5.03766e-07
1.79282e-07
4.64617e-07
1.67095e-07
4.20402e-07
1.5395e-07
3.72725e-07
1.4028e-07
3.23237e-07
1.26462e-07
2.73612e-07
1.12818e-07
2.25446e-07
9.96144e-08
1.80174e-07
8.70744e-08
1.38951e-07
7.52922e-08
1.02723e-07
6.43009e-08
7.24145e-08
5.42798e-08
4.8452e-08
4.54091e-08
3.0809e-08
3.7756e-08
1.8983e-08
3.13572e-08
1.16079e-08
2.62328e-08
7.20485e-09
2.23876e-08
4.58937e-09
1.98105e-08
2.93418e-09
1.81462e-09
1.85652e-08
4.9172e-08
7.60854e-08
9.33302e-08
2.15702e-07
1.30899e-07
3.32619e-07
1.61927e-07
4.26356e-07
1.86645e-07
4.98809e-07
2.05303e-07
5.52066e-07
2.1787e-07
5.87697e-07
2.24736e-07
6.06463e-07
2.26556e-07
6.09279e-07
2.24008e-07
5.97644e-07
2.18145e-07
5.74478e-07
2.09642e-07
5.4302e-07
1.98982e-07
5.04955e-07
1.8673e-07
4.61637e-07
1.73371e-07
4.14693e-07
1.59369e-07
3.65728e-07
1.4512e-07
3.16377e-07
1.30963e-07
2.68137e-07
1.17185e-07
2.22349e-07
1.04021e-07
1.80129e-07
9.15356e-08
1.42244e-07
7.98144e-08
1.09074e-07
6.91182e-08
8.10195e-08
5.96291e-08
5.86892e-08
5.14177e-08
4.21314e-08
4.45283e-08
3.07533e-08
3.90031e-08
2.35902e-08
3.48619e-08
1.92445e-08
3.21063e-08
1.65478e-08
1.48697e-08
3.07951e-08
5.21229e-08
7.8317e-08
9.90064e-08
2.22111e-07
1.39017e-07
3.42731e-07
1.7222e-07
4.39716e-07
1.98837e-07
5.15016e-07
2.19228e-07
5.70644e-07
2.33704e-07
6.08645e-07
2.42513e-07
6.30728e-07
2.4614e-07
6.38419e-07
2.44964e-07
6.3245e-07
2.3988e-07
6.1365e-07
2.31823e-07
5.84563e-07
2.21387e-07
5.47893e-07
2.09218e-07
5.0582e-07
1.95767e-07
4.59969e-07
1.81554e-07
4.1187e-07
1.66992e-07
3.63214e-07
1.52436e-07
3.15376e-07
1.38191e-07
2.69603e-07
1.24514e-07
2.26971e-07
1.11426e-07
1.87958e-07
9.90373e-08
1.52628e-07
8.77195e-08
1.21721e-07
7.77009e-08
9.61269e-08
6.90529e-08
7.58781e-08
6.18184e-08
6.07112e-08
5.60327e-08
5.01684e-08
5.17094e-08
4.34862e-08
4.88534e-08
3.9754e-08
3.79155e-08
4.752e-08
5.52991e-08
8.03707e-08
1.05127e-07
2.28032e-07
1.47792e-07
3.52139e-07
1.83378e-07
4.52252e-07
2.1212e-07
5.30377e-07
2.34366e-07
5.88584e-07
2.50559e-07
6.28922e-07
2.61103e-07
6.53292e-07
2.66633e-07
6.63889e-07
2.67417e-07
6.62481e-07
2.63843e-07
6.49558e-07
2.56725e-07
6.25736e-07
2.46857e-07
5.92824e-07
2.34937e-07
5.5303e-07
2.21518e-07
5.08424e-07
2.07252e-07
4.61422e-07
1.92533e-07
4.13884e-07
1.77726e-07
3.66925e-07
1.63161e-07
3.21696e-07
1.49118e-07
2.79238e-07
1.35583e-07
2.39743e-07
1.22655e-07
2.02924e-07
1.10813e-07
1.6978e-07
1.0035e-07
1.41797e-07
9.13505e-08
1.19309e-07
8.38748e-08
1.0186e-07
7.79559e-08
8.88841e-08
7.35914e-08
8.0028e-08
7.07619e-08
7.48851e-08
7.25937e-08
6.95165e-08
5.87205e-08
8.22318e-08
1.11731e-07
2.33425e-07
1.57284e-07
3.60776e-07
1.95482e-07
4.6388e-07
2.26581e-07
5.44792e-07
2.50945e-07
6.05629e-07
2.69024e-07
6.48489e-07
2.81305e-07
6.75398e-07
2.88472e-07
6.8839e-07
2.91051e-07
6.89531e-07
2.8933e-07
6.80333e-07
2.83845e-07
6.61797e-07
2.75273e-07
6.34994e-07
2.64124e-07
6.00586e-07
2.51027e-07
5.59404e-07
2.36878e-07
5.14184e-07
2.22214e-07
4.68055e-07
2.07351e-07
4.22437e-07
1.9266e-07
3.78236e-07
1.78443e-07
3.36498e-07
1.64636e-07
2.97131e-07
1.51324e-07
2.59513e-07
1.39102e-07
2.24894e-07
1.28326e-07
1.95271e-07
1.1909e-07
1.71173e-07
1.11464e-07
1.52261e-07
1.05486e-07
1.38103e-07
1.01165e-07
1.28202e-07
9.8471e-08
1.22088e-07
1.19202e-07
9.74207e-08
6.24032e-08
8.38762e-08
1.18853e-07
2.38219e-07
1.67544e-07
3.68534e-07
2.08603e-07
4.74452e-07
2.42307e-07
5.58078e-07
2.69041e-07
6.21567e-07
2.89272e-07
6.67057e-07
3.0353e-07
6.96628e-07
3.12426e-07
7.12308e-07
3.16596e-07
7.16024e-07
3.16515e-07
7.09399e-07
3.12796e-07
6.94139e-07
3.05982e-07
6.71902e-07
2.96456e-07
6.43673e-07
2.84499e-07
6.09233e-07
2.70908e-07
5.68958e-07
2.56546e-07
5.25505e-07
2.41849e-07
4.81516e-07
2.27274e-07
4.38696e-07
2.13103e-07
3.98109e-07
1.99225e-07
3.59346e-07
1.85697e-07
3.21539e-07
1.73256e-07
2.86145e-07
1.62329e-07
2.55596e-07
1.53013e-07
2.30575e-07
1.45371e-07
2.10785e-07
1.39439e-07
1.95841e-07
1.35228e-07
1.85317e-07
1.32711e-07
1.78777e-07
1.75537e-07
1.31849e-07
6.63588e-08
8.52753e-08
1.26516e-07
2.42331e-07
1.78608e-07
3.75279e-07
2.22791e-07
4.83794e-07
2.59366e-07
5.70018e-07
2.88738e-07
6.36136e-07
3.11395e-07
6.84311e-07
3.27885e-07
7.16643e-07
3.38813e-07
7.35154e-07
3.44794e-07
7.41744e-07
3.46402e-07
7.38142e-07
3.44326e-07
7.26012e-07
3.39158e-07
7.0691e-07
3.31483e-07
6.82518e-07
3.21441e-07
6.53817e-07
3.09342e-07
6.20633e-07
2.95924e-07
5.83282e-07
2.81824e-07
5.43284e-07
2.67608e-07
5.02664e-07
2.53701e-07
4.63295e-07
2.39968e-07
4.2536e-07
2.26401e-07
3.87802e-07
2.13919e-07
3.52183e-07
2.03025e-07
3.21315e-07
1.93804e-07
2.95947e-07
1.86313e-07
2.75765e-07
1.80577e-07
2.60398e-07
1.76594e-07
2.49441e-07
1.74328e-07
2.42469e-07
2.38708e-07
1.73684e-07
7.05982e-08