/*--------------------------------*- C++ -*----------------------------------*\
| =========                 |                                                 |
| \\      /  F ield         | OpenFOAM: The Open Source CFD Toolbox           |
|  \\    /   O peration     | Version:  dev                                   |
|   \\  /    A nd           | Web:      www.OpenFOAM.org                      |
|    \\/     M anipulation  |                                                 |
\*---------------------------------------------------------------------------*/
FoamFile
{
    version     2.0;
    format      ascii;
    class       volScalarField;
    location    "0.04";
    object      p;
}
// * * * * * * * * * * * * * * * * * * * * * * * * * * * * * * * * * * * * * //

dimensions      [0 2 -2 0 0 0 0];

internalField   nonuniform List<scalar> 
2790
(
76.3315
76.2272
76.4578
76.9787
77.6898
78.5543
79.5725
80.7492
82.0858
83.5833
85.2439
87.0694
89.0609
91.2172
93.5347
96.0062
98.62
101.359
104.199
107.107
110.046
112.964
115.807
118.51
121.008
123.233
125.122
126.624
127.701
128.34
76.1439
76.14
76.3966
76.9176
77.6273
78.49
79.5047
80.676
82.0057
83.4953
85.1469
86.9626
88.9433
91.0884
93.3943
95.8543
98.4572
101.186
104.018
106.922
109.86
112.782
115.633
118.35
120.865
123.11
125.02
126.54
127.629
128.286
75.9525
76.0179
76.2928
76.8053
77.5051
78.3588
79.3625
80.5202
81.834
83.3051
84.9358
86.7281
88.683
90.7998
93.0753
95.5033
98.0732
100.769
103.57
106.445
109.358
112.262
115.104
117.821
120.345
122.608
124.543
126.091
127.207
127.898
75.739
75.8368
76.125
76.6311
77.3195
78.1601
79.1475
80.2849
81.5745
83.0177
84.6165
86.3729
88.2878
90.3606
92.5884
94.9654
97.4818
100.123
102.869
105.693
108.559
111.424
114.237
116.937
119.459
121.733
123.69
125.267
126.411
127.141
75.4935
75.6062
75.9032
76.4026
77.076
77.8978
78.8623
79.9722
81.2293
82.635
84.1911
85.8992
87.7602
89.7732
91.9357
94.2423
96.6841
99.248
101.916
104.662
107.456
110.257
113.018
115.682
118.186
120.46
122.435
124.042
125.218
125.994
75.2114
75.3304
75.6301
76.1201
76.7751
77.573
78.5088
79.5842
80.8009
82.16
83.6628
85.3105
87.1037
89.0415
91.1211
93.3376
95.6829
98.1451
100.708
103.349
106.04
108.747
111.425
114.024
116.484
118.74
120.72
122.354
123.566
124.398
74.8909
75.0113
75.3085
75.7858
76.4189
77.1883
78.0896
79.1241
80.2927
81.5963
83.0356
84.6113
86.3234
88.1706
90.1499
92.2565
94.4826
96.8176
99.2465
101.75
104.304
106.877
109.432
111.925
114.303
116.506
118.467
120.114
121.36
122.259
74.5317
74.6505
74.9408
75.402
76.0097
76.7463
77.6078
78.5951
79.7085
80.9483
82.3145
83.8071
85.4254
87.1671
89.0291
91.0059
93.09
95.271
97.5352
99.8653
102.24
104.632
107.011
109.34
111.576
113.669
115.563
117.191
118.457
119.438
74.1342
74.2494
74.5295
74.9713
75.5503
76.25
77.0668
78.0012
79.0528
80.221
81.5052
82.9044
84.4166
86.0391
87.7672
89.5949
91.514
93.5136
95.5803
97.6973
99.8447
101.999
104.134
106.22
108.226
110.117
111.855
113.395
114.641
115.716
73.6997
73.8098
74.0769
74.4963
75.0435
75.7027
76.4704
77.3466
78.3303
79.42
80.6141
81.9104
83.3057
84.7957
86.3746
88.0349
89.7666
91.5577
93.3931
95.2548
97.1222
98.9717
100.778
102.517
104.166
105.708
107.135
108.447
109.577
110.743
73.2296
73.3337
73.5856
73.98
74.4925
75.1079
75.8226
76.636
77.5465
78.5516
79.6484
80.8333
82.1019
83.4479
84.8637
86.3396
87.8632
89.4196
90.9905
92.5542
94.0852
95.555
96.9335
98.1919
99.3088
100.28
101.13
101.935
102.721
103.928
72.726
72.8231
73.0582
73.4253
73.9006
74.4693
75.1276
75.8745
76.7072
77.6223
78.6157
79.6822
80.8156
82.0078
83.2485
84.5253
85.8225
87.1209
88.3968
89.6214
90.7603
91.7728
92.613
93.2327
93.5899
93.6664
93.5005
93.2567
93.1568
94.1762
72.1908
72.2804
72.4973
72.8353
73.2714
73.7909
74.3901
75.0671
75.8183
76.6392
77.5242
78.4667
79.4583
80.4886
81.5448
82.6108
83.6668
84.688
85.6433
86.4939
87.191
87.6735
87.8659
87.6771
87.0049
85.7536
83.8845
81.5673
79.2755
79.2313
71.6265
71.7081
71.9057
72.2132
72.6083
73.0769
73.6148
74.2193
74.8862
75.6096
76.3826
77.1968
78.0418
78.9047
79.7696
80.6168
81.4213
82.152
82.7689
83.2204
83.4392
83.336
82.7909
81.6418
79.6705
76.5912
72.0643
65.8616
58.2107
53.5904
71.0356
71.1088
71.2863
71.5621
71.915
72.3313
72.8062
73.3366
73.9172
74.541
75.1996
75.883
76.5785
77.2709
77.9411
78.5653
79.1136
79.5478
79.8185
79.8602
79.5847
78.8703
77.5432
75.349
71.9001
66.5859
58.4013
45.6899
25.4865
0.0140509
-85.472
-84.4314
-82.3183
-79.1387
-74.96
-69.9237
-64.2407
-58.1687
-51.9777
-45.9147
-40.1774
-34.9014
-30.1608
-25.9771
-22.3328
-19.1852
-16.4786
-14.1529
-12.1497
-10.4155
-8.90298
-7.57175
-6.38756
-5.32159
-4.34957
-3.45078
-2.60718
-1.80266
-1.02238
-0.252055
-86.4601
-85.3957
-83.2316
-79.9739
-75.694
-70.5405
-64.7353
-58.5472
-52.2546
-46.1085
-40.3073
-34.9846
-30.2116
-26.0061
-22.3476
-19.1911
-16.479
-14.1499
-12.1447
-10.4092
-8.89609
-7.56467
-6.38062
-5.31508
-4.34374
-3.44586
-2.60341
-1.80024
-1.02137
-0.251298
-88.4578
-87.3414
-85.0704
-81.6472
-77.1487
-71.7374
-65.6605
-59.2144
-52.6979
-46.3729
-40.4394
-35.0266
-30.1972
-25.9603
-22.2873
-19.1267
-16.4164
-14.0921
-12.0927
-10.3633
-8.85589
-7.52971
-6.35046
-5.28937
-4.32224
-3.42843
-2.59003
-1.79096
-1.01625
-0.24998
-91.5194
-90.3234
-87.8896
-84.2235
-79.3913
-73.5747
-67.066
-60.2096
-53.3395
-46.7353
-40.5993
-35.0517
-30.1412
-25.862
-22.1722
-19.0101
-16.3065
-13.9926
-12.0046
-10.2862
-8.78892
-7.47187
-6.30083
-5.24722
-4.28705
-3.3999
-2.56803
-1.77552
-1.00755
-0.248133
-95.7471
-94.4543
-91.7997
-87.7996
-82.5326
-76.1558
-69.0224
-61.5748
-54.1994
-47.2017
-40.7852
-35.0552
-30.0385
-25.7067
-21.9986
-18.8385
-16.147
-13.8495
-11.8788
-10.1767
-8.6943
-7.39049
-6.23126
-5.18833
-4.23802
-3.36021
-2.53741
-1.75399
-0.995351
-0.245656
-101.275
-99.9305
-97.0266
-92.5897
-86.7306
-79.6525
-71.6607
-63.3845
-55.3137
-47.7853
-40.9995
-35.0362
-29.8881
-25.4945
-21.768
-18.6137
-15.9402
-13.6651
-11.7172
-10.0366
-8.57337
-7.28664
-6.14261
-5.11339
-4.17569
-3.30977
-2.49852
-1.72661
-0.979815
-0.242562
-108.295
-107.042
-103.969
-99.0345
-92.3411
-84.2952
-75.2051
-65.765
-56.7376
-48.5042
-41.2442
-34.9919
-29.6877
-25.2248
-21.4811
-18.3377
-15.6882
-13.4414
-11.5217
-9.86718
-8.42736
-7.16131
-6.03566
-5.023
-4.10055
-3.24901
-2.45168
-1.69365
-0.961113
-0.238886
-117.169
-116.289
-113.321
-107.898
-100.089
-90.553
-79.9262
-68.9131
-58.5474
-49.3799
-41.52
-34.918
-29.4342
-24.8974
-21.1397
-18.0131
-15.3937
-13.181
-11.2946
-9.67047
-8.25775
-7.01567
-5.91135
-4.91795
-4.01323
-3.17842
-2.3973
-1.65541
-0.93943
-0.234672
-128.502
-128.533
-126.208
-120.446
-111.066
-99.2433
-86.2438
-73.0174
-60.8143
-50.4248
-41.8203
-34.8067
-29.1237
-24.5118
-20.7458
-17.6429
-15.0601
-12.8869
-11.0383
-9.44843
-8.06616
-6.85102
-5.77071
-4.79905
-3.9144
-3.09855
-2.3358
-1.6122
-0.914962
-0.229969
-143.366
-145.206
-144.276
-138.292
-126.594
-111.24
-94.5758
-78.1676
-63.5516
-51.6187
-42.1221
-34.6434
-28.7503
-24.0682
-20.3022
-17.231
-14.6911
-12.5624
-10.7554
-9.20318
-7.85424
-6.66866
-5.61481
-4.66717
-3.80476
-3.00998
-2.26765
-1.56437
-0.887913
-0.224826
-163.167
-167.852
-169.148
-162.741
-147.397
-126.838
-104.928
-84.1893
-66.6262
-52.8708
-42.3722
-34.4029
-28.3058
-23.5666
-19.8125
-16.7815
-14.2906
-12.2106
-10.4487
-8.93676
-7.62364
-6.46992
-5.4447
-4.52318
-3.68505
-2.91329
-2.19331
-1.51225
-0.858489
-0.219284
-188.231
-196.52
-200.408
-192.922
-172.318
-144.893
-116.41
-90.5014
-69.672
-53.9832
-42.4765
-34.0473
-27.7788
-23.0069
-19.2801
-16.2985
-13.8621
-11.8344
-10.1203
-8.65103
-7.37583
-6.25602
-5.26141
-4.36795
-3.55597
-2.80907
-2.11324
-1.45618
-0.826889
-0.213378
-215.041
-226.895
-232.727
-223.777
-197.55
-162.369
-126.853
-95.9912
-72.0544
-54.6453
-42.3031
-33.5285
-27.1564
-22.3884
-18.7078
-15.7853
-13.4084
-11.4362
-9.77204
-8.34741
-7.11203
-6.02798
-5.06583
-4.20223
-3.41818
-2.69789
-2.0279
-1.39651
-0.793312
-0.207143
-234.8
-250.837
-259.03
-248.108
-216.148
-174.421
-133.393
-98.9509
-72.9427
-54.4899
-41.7067
-32.7963
-26.4243
-21.7091
-18.0969
-15.2436
-12.9312
-11.0173
-9.40521
-8.02701
-6.8332
-5.78666
-4.85871
-4.0267
-3.27227
-2.58021
-1.93766
-1.33349
-0.757902
-0.200578
-238.297
-262.3
-274.396
-259.509
-221.753
-176.22
-133.205
-97.9024
-71.6387
-53.2179
-40.5686
-31.8058
-25.5659
-20.9628
-17.4456
-14.6736
-12.4316
-10.5793
-9.02154
-7.69163
-6.54108
-5.53366
-4.64148
-3.84259
-3.11926
-2.4569
-1.8432
-1.26761
-0.720936
-0.193751
70.4089
70.4734
70.6299
70.8727
71.1819
71.5439
71.9538
72.4076
72.8991
73.4203
73.9614
74.5104
75.053
75.571
76.0425
76.4398
76.7279
76.8618
76.7829
76.4124
75.6423
74.3193
72.218
68.9913
64.0739
56.4784
44.2952
23.2735
-20.2486
-152.461
69.7394
69.7948
69.9293
70.1378
70.4015
70.7072
71.0497
71.4243
71.8239
72.2394
72.6596
73.0711
73.4573
73.798
74.0683
74.2369
74.2643
74.1
73.6775
72.9076
71.6677
69.7831
66.996
62.9081
56.8693
47.7465
33.4096
9.88663
-27.243
-85.1805
69.0326
69.0786
69.1905
69.3636
69.5805
69.8287
70.1024
70.3962
70.7024
71.0109
71.3092
71.5824
71.8123
71.9767
72.0482
71.9929
71.768
71.3189
70.5746
69.4405
67.7888
65.4406
62.1405
57.5123
50.9912
41.7323
28.5429
9.95331
-14.0587
-43.2668
68.2901
68.3264
68.4153
68.5524
68.7219
68.9118
69.116
69.3285
69.5409
69.7423
69.9191
70.0554
70.1315
70.1237
70.003
69.7338
69.2715
68.56
67.5274
66.0803
64.0955
61.4082
57.7962
52.9594
46.5007
37.9229
26.6729
12.1267
-6.23123
-28.9116
67.5138
67.5405
67.6061
67.707
67.8288
67.9602
68.0949
68.2264
68.3457
68.4412
68.4987
68.5013
68.4284
68.2557
67.9531
67.4847
66.8058
65.8613
64.5824
62.882
60.6502
57.747
53.9964
49.1804
43.0389
35.2774
25.5867
13.6298
-0.895315
-17.5174
66.7063
66.7233
66.7656
66.8303
66.9047
66.9782
67.0441
67.0958
67.1237
67.1158
67.0576
66.9317
66.7171
66.3893
65.9185
65.2692
64.3988
63.2553
61.7759
59.884
57.4869
54.4731
50.7115
46.0517
40.33
33.3796
25.0546
15.2667
4.05218
-8.02042
65.8703
65.8777
65.897
65.926
65.9537
65.9702
65.9689
65.9427
65.8819
65.7746
65.6059
65.3583
65.0113
64.5406
63.9176
63.1087
62.0744
60.7678
59.1341
57.1091
54.6186
51.5786
47.8969
43.4769
38.2258
32.0673
24.9633
16.9423
8.12001
-1.12271
65.009
65.007
65.0038
64.998
64.9801
64.9413
64.8749
64.7736
64.6281
64.4262
64.1534
63.7926
63.324
62.7244
61.9672
61.0215
59.8519
58.4179
56.6737
54.5677
52.0438
49.0422
45.5028
41.3697
36.5992
31.1699
25.0962
18.4427
11.3315
4.03718
64.1262
64.1151
64.0901
64.0505
63.9887
63.8967
63.768
63.5954
63.3697
63.0791
62.7098
62.2455
61.6674
60.9541
60.0815
59.0221
57.7456
56.218
54.4026
52.2602
49.7505
46.8341
43.4754
39.6475
35.3376
30.5544
25.3357
19.7558
13.9298
8.0603
63.2258
63.2059
63.1601
63.0882
62.9845
62.8419
62.6543
62.4147
62.1142
61.7419
61.2845
60.7271
60.0524
59.2412
58.2722
57.1219
55.765
54.1744
52.322
50.1795
47.7201
44.9202
41.7624
38.2388
34.3555
30.1365
25.6282
20.9029
16.0591
11.2439
62.3121
62.284
62.2184
62.116
61.9727
61.7827
61.5401
61.2383
60.8691
60.4224
59.886
59.2465
58.4884
57.595
56.5481
55.3284
53.9154
52.2886
50.4276
48.3135
45.9301
43.2658
40.3157
37.0843
33.5879
29.8571
25.9388
21.8971
17.8121
13.7905
61.3899
61.354
61.2699
61.1389
60.9588
60.7247
60.4315
60.0729
59.6414
59.1281
58.5222
57.8117
56.9833
56.023
54.9158
53.6461
52.1986
50.5583
48.7115
46.6469
44.3565
41.8374
39.093
36.1349
32.9843
29.6731
26.2447
22.7531
19.262
15.849
60.464
60.421
60.3197
60.1624
59.9483
59.674
59.3347
58.9248
58.4379
57.866
57.1999
56.4295
55.5436
54.5308
53.3792
52.0771
50.6134
48.9781
47.163
45.1628
42.9756
40.6042
38.0573
35.3502
32.5055
29.5536
26.5325
23.4869
20.4663
17.5276
59.5398
59.4902
59.3733
59.1919
58.947
58.6363
58.2557
57.8003
57.2647
56.6422
55.9253
55.1056
54.1741
53.122
51.9404
50.6209
49.1562
47.5406
45.7701
43.8439
41.7645
39.5385
37.1773
34.6976
32.1216
29.4767
26.7953
24.1135
21.4699
18.9062
58.6227
58.5671
58.4361
58.233
57.9605
57.6173
57.2003
56.7052
56.1276
55.4625
54.7036
53.8445
52.8785
51.7989
50.5997
49.2755
47.8221
46.2371
44.5202
42.6735
40.7024
38.6159
36.4265
34.1509
31.8097
29.427
27.0298
24.647
22.3086
20.0454
57.7181
57.6573
57.5137
57.2914
56.9944
56.6229
56.1742
55.645
55.0321
54.3316
53.5392
52.6499
51.6592
50.5625
49.3563
48.0376
46.605
45.0586
43.4006
41.6355
39.7704
37.8152
35.7829
33.6893
31.5527
29.3939
27.2353
25.0999
23.011
20.9916
56.832
56.7666
56.612
56.3728
56.0546
55.6585
55.1828
54.625
53.9829
53.2541
52.4356
51.5244
50.5176
49.4127
48.2081
46.9031
45.4983
43.9958
42.3996
40.7156
38.9519
37.1188
35.2287
33.2962
31.3375
29.3702
27.4126
25.4833
23.6
21.7804
55.9701
55.9007
55.7366
55.4829
55.1465
54.7296
54.2312
53.6499
52.9844
52.2336
51.396
50.4701
49.4546
48.3488
47.1527
45.8675
44.4953
43.0397
41.5059
39.9006
38.2324
36.5114
34.7492
32.9589
31.1547
29.3512
27.5637
25.8067
24.0944
22.4399
55.1385
55.0657
54.8935
54.6275
54.2757
53.8415
53.3246
52.7244
52.0407
51.2736
50.4228
49.4883
48.4703
47.3694
46.1872
44.926
43.5894
42.1819
40.7094
39.1792
37.5997
35.9806
34.3326
32.6674
30.997
29.334
27.6906
26.0786
24.5091
22.9924
54.3431
54.2674
54.0885
53.8122
53.4477
52.9994
52.4678
51.8528
51.1555
50.377
49.5182
48.5802
47.5646
46.4731
45.3085
44.0742
42.7745
41.4148
40.0014
38.5415
37.0435
35.5163
33.9697
32.414
30.8595
29.3168
27.7958
26.3062
24.8568
23.4554
53.5901
53.5121
53.3275
53.0428
52.668
52.2084
51.6652
51.0393
50.3324
49.5466
48.6839
47.7466
46.7371
45.6583
44.5138
43.3077
42.0451
40.7318
39.3741
37.9792
36.5552
35.1102
33.6531
32.1929
30.7386
29.2988
27.882
26.4959
25.1475
23.8431
52.8857
52.8057
52.6166
52.325
51.9419
51.4735
50.9216
50.2878
49.5746
48.7849
47.9218
46.9883
45.9876
44.9236
43.8004
42.6229
41.3964
40.1269
38.8209
37.4854
36.1278
34.7557
33.3771
31.9998
30.6316
29.2798
27.9514
26.6529
25.3898
24.167
52.2363
52.1547
51.9617
51.6645
51.2748
50.7997
50.2415
49.6023
48.8855
48.0946
47.2335
46.306
45.3159
44.2677
43.1662
42.0165
40.8243
39.5956
38.3368
37.0545
35.7559
34.4478
33.1374
31.8316
30.537
29.2601
28.0066
26.7819
25.5905
24.4365
51.6483
51.5652
51.369
51.067
50.6721
50.1919
49.6293
48.9868
48.2684
47.4783
46.621
45.7007
44.7221
43.69
42.6095
41.4861
40.3256
39.1339
37.9173
36.6822
35.4351
34.1825
32.9307
31.686
30.454
29.2403
28.0498
26.8869
25.7556
24.659
51.1285
51.044
50.8445
50.5384
50.1393
49.6552
49.0896
48.4454
47.7268
46.9388
46.0862
45.1739
44.2068
43.1902
42.1293
41.03
39.8979
38.739
37.5594
36.3652
35.1624
33.9571
32.755
31.5616
30.382
29.221
28.0828
26.9713
25.8897
24.8406
50.6841
50.5978
50.3947
50.0844
49.6817
49.1948
48.6272
47.9822
47.2644
46.4792
45.6318
44.7273
43.7711
42.7686
41.7254
40.6472
39.5398
38.4091
37.261
36.1013
34.9357
33.7698
32.6088
31.4576
30.321
29.2031
28.1077
27.038
25.9968
24.9864
50.3235
50.2342
50.0256
49.7106
49.3047
48.8156
48.2468
47.6017
46.8852
46.1029
45.2604
44.3631
43.4165
42.4263
41.3981
40.3377
39.2509
38.1435
37.0211
35.8894
34.7538
33.6195
32.4913
31.3739
30.2714
29.1877
28.1259
27.0892
26.0799
25.1
50.0565
49.9602
49.7436
49.4238
49.0151
48.5242
47.9543
47.3091
46.5939
45.8142
44.9759
44.0846
43.1458
42.1653
41.149
40.1026
39.0318
37.9423
36.8397
35.7294
34.6166
33.5062
32.4028
31.3107
30.2338
29.1756
28.1391
27.127
26.1414
25.1843
49.8989
49.7778
49.5464
49.2235
48.8146
48.3233
47.7532
47.1085
46.3945
45.617
44.7819
43.8949
42.9617
41.9882
40.9801
39.9433
38.8835
37.8063
36.7172
35.6215
34.5241
33.4299
32.3432
31.2682
30.2085
29.1674
28.1478
27.1521
26.1825
25.2405
49.8891
49.7151
49.4587
49.1293
48.7183
48.2252
47.654
47.0091
46.2957
45.5193
44.6859
43.8011
42.8709
41.901
40.8972
39.8654
38.8112
37.7403
36.658
35.5696
34.48
33.3938
32.3155
31.249
30.1979
29.1653
28.1541
27.1666
26.2049
25.2704
-377.627
-354.665
-282.76
-139.002
-156.31
-162.366
-82.2292
-110.345
-130.163
-58.0699
-77.6461
-90.7542
-35.5865
-47.7766
-56.5845
-20.1606
-28.539
-34.9472
-9.93485
-15.9459
-20.6405
-2.56415
-7.01436
-10.5679
2.95675
-0.463522
-3.25658
7.17934
4.46786
2.20915
10.4736
8.26879
6.39828
13.0853
11.2528
9.67178
15.1824
13.6302
12.2703
16.8841
15.5474
14.3601
18.2771
17.1092
16.059
19.4256
18.3921
17.4524
20.378
19.4528
18.6035
21.1712
20.3343
19.5597
21.8338
21.0697
20.3573
22.3882
21.6845
21.0242
22.8522
22.1988
21.5824
23.2399
22.6284
22.0491
23.5626
22.9862
22.438
23.8294
23.2822
22.7601
24.0476
23.5244
23.024
24.223
23.7192
23.2363
24.3598
23.8712
23.4022
24.4613
23.9842
23.5255
24.5291
24.0596
23.6079
24.5651
24.0995
23.6513
-213.06
-253.867
-272.866
-252.087
-210.284
-165.329
-124.883
-92.1698
-67.8443
-50.6899
-38.8103
-30.504
-24.5418
-20.1194
-16.7307
-14.0573
-11.8956
-10.1112
-8.61226
-7.33417
-6.22987
-5.26422
-4.41023
-3.6467
-2.9566
-2.32594
-1.74301
-1.19785
-0.681863
-0.186525
-181.125
-222.532
-233.479
-211.742
-176.921
-141.036
-108.703
-82.0605
-61.7134
-46.9312
-36.3926
-28.8337
-23.2987
-19.1363
-15.9196
-13.3704
-11.3049
-9.59903
-8.16655
-6.94609
-5.89275
-4.97285
-4.16053
-3.4355
-2.78148
-2.18517
-1.63549
-1.12309
-0.640014
-0.178654
-150.417
-168.908
-171.305
-158.077
-136.638
-112.755
-89.9384
-70.2343
-54.4605
-42.4461
-33.5027
-26.8535
-21.8491
-18.0121
-15.009
-12.6106
-10.6588
-9.04323
-7.6856
-6.52904
-5.53155
-4.66141
-3.89416
-3.21059
-2.59531
-2.03576
-1.52156
-1.04401
-0.595785
-0.17021
-103.77
-113.326
-117.006
-112.955
-102.126
-87.66
-72.5764
-58.7542
-47.0545
-37.6477
-30.2986
-24.6132
-20.2009
-16.7408
-13.9899
-11.7697
-9.95077
-8.4392
-7.16619
-6.08083
-5.14483
-4.32895
-3.61051
-2.97161
-2.39788
-1.87761
-1.40118
-0.960569
-0.549128
-0.161096
-66.5333
-74.8015
-80.2128
-80.5538
-75.5508
-67.1853
-57.6253
-48.2763
-39.8781
-32.739
-26.8798
-22.1572
-18.3706
-15.3263
-12.8609
-10.8447
-9.17787
-7.78435
-6.60643
-5.60014
-4.73171
-3.97496
-3.30933
-2.71846
-2.18919
-1.71078
-1.27442
-0.872828
-0.500053
-0.151248
-42.481
-49.4261
-54.6651
-56.6696
-54.9954
-50.6712
-45.002
-38.9521
-33.1301
-27.8827
-23.3547
-19.5489
-16.3919
-13.7844
-11.6284
-9.8375
-8.33999
-7.07798
-6.0055
-5.0863
-4.29176
-3.59918
-2.99049
-2.45112
-1.96928
-1.53532
-1.14133
-0.780823
-0.448553
-0.14058
-26.3135
-31.9492
-36.6481
-39.3635
-39.5736
-37.7314
-34.6066
-30.8586
-26.9609
-23.228
-19.8394
-16.8675
-14.3139
-12.1438
-10.3082
-8.75638
-7.44129
-6.32206
-5.36434
-4.53977
-3.82521
-3.20179
-2.65415
-2.16976
-1.73832
-1.3514
-1.00205
-0.684624
-0.394629
-0.129011
-14.9909
-19.652
-23.7884
-26.6641
-27.8163
-27.431
-25.9571
-23.8217
-21.3629
-18.8328
-16.4026
-14.1706
-12.1787
-10.4327
-8.91843
-7.61249
-6.48851
-5.52066
-4.6854
-3.96209
-3.33308
-2.7835
-2.30087
-1.87479
-1.49664
-1.15925
-0.856737
-0.584327
-0.338296
-0.116458
-6.81828
-10.7364
-14.3439
-17.1305
-18.732
-19.2056
-18.8001
-17.7792
-16.3728
-14.7717
-13.1224
-11.5245
-10.0365
-8.68671
-7.48307
-6.42164
-5.49189
-4.68037
-3.97296
-3.35606
-2.81729
-2.34564
-1.93158
-1.56694
-1.24477
-0.959276
-0.705663
-0.480081
-0.279589
-0.102847
-0.731832
-4.07566
-7.23202
-9.84327
-11.6315
-12.5943
-12.8648
-12.6008
-11.9533
-11.0598
-10.0362
-8.97094
-7.9249
-6.93601
-6.02493
-5.20034
-4.46309
-3.80932
-3.23265
-2.72562
-2.28057
-1.89018
-1.54772
-1.24722
-0.983456
-0.752001
-0.549184
-0.372091
-0.21858
-0.0881225
3.917
1.01998
-1.76318
-4.17657
-6.00988
-7.23783
-7.92845
-8.17285
-8.06643
-7.70405
-7.17282
-6.54551
-5.87789
-5.20966
-4.56712
-3.96619
-3.41513
-2.91698
-2.47133
-2.0757
-1.72651
-1.41971
-1.15118
-0.917027
-0.713705
-0.53814
-0.387776
-0.260635
-0.155373
-0.0722417
7.53987
4.99642
2.52087
0.30049
-1.50446
-2.8631
-3.80751
-4.38778
-4.66176
-4.69254
-4.54298
-4.26982
-3.92027
-3.53125
-3.13008
-2.73586
-2.36114
-2.01342
-1.69658
-1.41197
-1.15933
-0.937377
-0.744301
-0.578097
-0.436792
-0.318602
-0.222054
-0.146088
-0.0901429
-0.0551999
10.4102
8.15102
5.93053
3.88835
2.14754
0.738224
-0.352358
-1.14979
-1.68736
-2.00544
-2.14775
-2.15667
-2.07008
-1.91985
-1.73155
-1.52477
-1.31385
-1.10886
-0.916441
-0.740682
-0.583824
-0.446831
-0.329837
-0.232497
-0.154242
-0.0944842
-0.0527714
-0.0289146
-0.0231083
-0.0370209
12.7156
10.6881
8.68093
6.79945
5.13822
3.72516
2.55759
1.62416
0.907198
0.382052
0.0194509
-0.211124
-0.338781
-0.389641
-0.386045
-0.346336
-0.285018
-0.213174
-0.138984
-0.0682862
-0.00509576
0.0479321
0.0891128
0.117409
0.13217
0.132919
0.119177
0.0903182
0.0454361
-0.017766
14.5886
12.7527
10.9249
9.1859
7.60914
6.21934
5.01894
4.00469
3.16856
2.49654
1.96984
1.56728
1.26733
1.04947
0.895122
0.788123
0.714909
0.664438
0.627963
0.598717
0.571565
0.542675
0.509202
0.469015
0.420454
0.362128
0.292741
0.210932
0.115132
0.00247442
16.1246
14.4491
12.7731
11.1595
9.66614
8.31437
7.10898
6.05116
5.1387
4.36455
3.71734
3.183
2.74616
2.39132
2.10364
1.86952
1.67697
1.51568
1.37704
1.254
1.14085
1.03303
0.926899
0.81952
0.708442
0.59152
0.466756
0.332147
0.185537
0.0235577
17.394
15.8538
14.307
12.8035
11.3894
10.0829
8.8897
7.81318
6.85455
6.01123
5.27698
4.64294
4.09861
3.63269
3.23376
2.89084
2.59375
2.33333
2.10157
1.8916
1.69758
1.51461
1.33858
1.16599
0.993808
0.81931
0.639927
0.453105
0.256163
0.0453037
18.4491
17.0241
15.5879
14.1809
12.8404
11.5817
10.4108
9.3319
8.34818
7.4598
6.66397
5.95557
5.32779
4.77276
4.282
3.84695
3.45929
3.11122
2.79559
2.50601
2.23685
1.98317
1.74062
1.50542
1.27413
1.04361
0.810838
0.572817
0.326428
0.0674962
19.3301
18.0034
16.6623
15.3398
14.0665
12.8555
11.7123
10.6415
9.6472
8.73117
7.89292
7.12993
6.43815
5.81237
5.24657
4.73431
4.26902
3.84426
3.45391
3.09226
2.75407
2.43458
2.12947
1.83481
1.54695
1.26247
0.978023
0.690261
0.395702
0.0898775
20.0676
18.8253
17.5661
16.3175
15.105
13.9397
12.8265
11.7703
10.7751
9.8439
8.9775
8.17522
7.43499
6.75363
6.12709
5.55072
5.01952
4.52836
4.07214
3.64592
3.24501
2.86497
2.50166
2.15116
1.80977
1.47387
1.13993
0.804341
0.463324
0.112173
20.6858
19.516
18.3274
17.1432
15.9851
14.8624
13.7798
12.7416
11.752
10.8142
9.93016
9.10026
8.32387
7.5993
6.92406
6.29496
5.70834
5.16024
4.64655
4.16312
3.70585
3.27074
2.85391
2.45159
2.0601
1.67579
1.29499
0.91391
0.528567
0.134074
21.2036
20.0959
18.968
17.8398
16.7299
15.6465
14.5934
13.5747
12.5945
11.6561
10.762
9.9133
9.11035
8.35259
7.63867
6.96658
6.33379
5.73734
5.17404
4.64047
4.13316
3.64855
3.18311
2.7333
2.29554
1.8662
1.44158
1.01779
0.590694
0.155267
21.6358
20.5814
19.5055
18.4256
17.358
16.3098
15.2844
14.2854
13.3167
12.3816
11.4827
10.6217
9.79965
9.01668
8.27235
7.56557
6.8947
6.25765
5.65199
5.07501
4.52379
3.99529
3.48632
2.99358
2.51369
2.04311
1.57813
1.11483
0.648952
0.175414
21.9944
20.9851
19.9534
18.9148
17.884
16.867
15.8668
14.8867
13.9302
13.0006
12.1005
11.232
10.3965
9.59464
8.82668
8.0922
7.39027
6.7195
6.07814
5.46407
4.87493
4.30808
3.76072
3.22985
2.71225
2.20452
1.70301
1.20378
0.70255
0.194176
22.2887
21.3171
20.3226
19.3189
18.3195
17.3295
16.3517
15.3888
14.4443
13.5212
12.6223
11.7496
10.9048
10.089
9.30293
8.54662
7.81972
7.12141
6.45045
5.80526
5.18393
4.58424
4.00371
3.43962
2.88897
2.3485
1.81464
1.2835
0.750736
0.211218
22.5259
21.5854
20.6214
19.6466
18.6733
17.7061
16.7474
15.7997
14.8662
13.9499
13.0533
12.1786
11.3277
10.5019
9.70211
8.92891
8.1823
7.4619
6.76693
6.0962
5.4482
4.82107
4.21264
3.62041
3.04161
2.47311
1.91144
1.35275
0.792712
0.226192
22.7116
21.7958
20.856
19.9043
18.9519
18.0032
17.0603
16.1253
15.2014
14.2912
13.3974
12.5221
11.6672
10.8343
10.0245
9.23857
8.47687
7.73934
7.02552
6.33456
5.66525
5.01603
4.38498
3.76985
3.168
2.57646
1.99185
1.41037
0.827712
0.238774
22.8496
21.9524
21.0308
20.0964
19.1599
18.2253
17.2944
16.3694
15.4531
14.548
13.6568
12.7815
11.9242
11.0865
10.2696
9.47451
8.7018
7.95162
7.22378
6.51766
5.83231
5.16636
4.51809
3.88542
3.26587
2.65658
2.05425
1.45513
0.854954
0.248637
22.942
22.0572
21.1479
20.2253
19.2996
18.3747
17.452
16.5339
15.6228
14.7214
13.8321
12.9571
12.0983
11.2575
10.4361
9.63499
8.85498
8.09638
7.35913
6.64281
5.94658
5.26926
4.60927
3.96463
3.33298
2.71153
2.09704
1.48581
0.873606
0.255435
22.99
22.1112
21.208
20.2912
19.3708
18.4505
17.532
16.6172
15.7087
14.8091
13.9208
13.0458
12.1863
11.3439
10.5201
9.71596
8.93224
8.16936
7.42735
6.70586
6.00416
5.32112
4.65523
4.00458
3.36684
2.73927
2.11867
1.50134
0.88309
0.259023
)
;

boundaryField
{
    inlet
    {
        type            zeroGradient;
    }
    outlet
    {
        type            fixedValue;
        value           uniform 0;
    }
    flap
    {
        type            zeroGradient;
    }
    upperWall
    {
        type            zeroGradient;
    }
    lowerWall
    {
        type            zeroGradient;
    }
    frontAndBack
    {
        type            empty;
    }
}


// ************************************************************************* //
