/*--------------------------------*- C++ -*----------------------------------*\
| =========                 |                                                 |
| \\      /  F ield         | OpenFOAM: The Open Source CFD Toolbox           |
|  \\    /   O peration     | Version:  dev                                   |
|   \\  /    A nd           | Web:      www.OpenFOAM.org                      |
|    \\/     M anipulation  |                                                 |
\*---------------------------------------------------------------------------*/
FoamFile
{
    version     2.0;
    format      ascii;
    class       surfaceScalarField;
    location    "0.04";
    object      phi;
}
// * * * * * * * * * * * * * * * * * * * * * * * * * * * * * * * * * * * * * //

dimensions      [0 3 -1 0 0 0 0];

internalField   nonuniform List<scalar> 
5457
(
0.198462
0.00153754
0.19657
0.00189223
0.19431
0.00226058
0.191718
0.00259168
0.188885
0.00283315
0.185877
0.00300791
0.182716
0.00316098
0.179389
0.00332646
0.175866
0.00352296
0.172107
0.00375898
0.168069
0.00403799
0.163708
0.00436146
0.158978
0.00473013
0.153833
0.00514433
0.148229
0.00560389
0.142122
0.00610776
0.135468
0.00665354
0.128231
0.00723702
0.12038
0.00785165
0.111892
0.00848798
0.102758
0.00913331
0.0929868
0.00977148
0.0826039
0.0103829
0.0716587
0.0109452
0.0602246
0.0114341
0.0483992
0.0118255
0.036302
0.0120971
0.0240708
0.0122312
0.011854
0.0122168
0.011854
0.199834
0.00170316
0.198787
0.00293951
0.197068
0.00397959
0.19481
0.00484947
0.192158
0.00548507
0.189232
0.00593435
0.186095
0.00629748
0.182764
0.00665792
0.179221
0.00706542
0.175436
0.0075447
0.171367
0.00810691
0.166971
0.00875705
0.162204
0.00949764
0.157018
0.0103299
0.151368
0.0112541
0.145207
0.0122683
0.138492
0.0133685
0.131183
0.0145466
0.123244
0.0157901
0.114651
0.0170808
0.105391
0.0183937
0.095466
0.0196966
0.0848987
0.0209502
0.0737349
0.0221089
0.0620461
0.0231229
0.0499298
0.0239418
0.0375081
0.0245189
0.0249221
0.0248172
0.0123221
0.0248169
0.0241761
0.199705
0.00199852
0.198723
0.00392072
0.197067
0.00563562
0.194872
0.00704445
0.192282
0.00807528
0.189412
0.00880413
0.186328
0.00938127
0.183049
0.0099374
0.179561
0.0105537
0.175833
0.011272
0.171828
0.0121117
0.167504
0.0130818
0.162814
0.014187
0.157714
0.0154301
0.152156
0.0168119
0.146094
0.0183308
0.139481
0.0199818
0.132273
0.0217544
0.124432
0.0236314
0.115925
0.0255873
0.106732
0.0275865
0.0968468
0.029582
0.0862816
0.0315155
0.0750727
0.0333178
0.0632839
0.0349117
0.0510088
0.0362168
0.0383711
0.0371566
0.025521
0.0376672
0.0126253
0.0377125
0.0368014
0.199635
0.00236301
0.19867
0.00488652
0.197054
0.00725088
0.194908
0.00919066
0.192374
0.010609
0.189565
0.0116131
0.186545
0.0124019
0.183331
0.0131508
0.179913
0.0139716
0.176263
0.0149227
0.172343
0.016032
0.168111
0.0173129
0.163526
0.0187727
0.15854
0.0204161
0.153106
0.0222454
0.147177
0.0242601
0.140703
0.0264553
0.133638
0.0288198
0.125936
0.0313336
0.117557
0.0339662
0.10847
0.0366736
0.0986552
0.0393964
0.088112
0.0420587
0.076862
0.0445678
0.0649564
0.0468174
0.0524811
0.0486921
0.03956
0.0500776
0.0263545
0.0508728
0.0130521
0.0510149
0.0498535
0.199605
0.00275846
0.198646
0.00584483
0.197072
0.00882511
0.194981
0.0112814
0.192512
0.0130776
0.189776
0.0143498
0.186833
0.0153447
0.183703
0.0162808
0.180376
0.0172988
0.176825
0.0184738
0.173015
0.019842
0.168906
0.0214215
0.164456
0.0232225
0.15962
0.025252
0.154351
0.0275149
0.148598
0.0300126
0.142312
0.0327421
0.135438
0.0356932
0.127926
0.0388459
0.119725
0.0421676
0.110789
0.0456092
0.101083
0.0491023
0.0905859
0.0525559
0.0792982
0.0558555
0.0672521
0.0588635
0.0545196
0.0614246
0.0412209
0.0633763
0.0275285
0.0645652
0.0136575
0.0648858
0.063511
0.199594
0.00316489
0.198648
0.0067906
0.197118
0.0103552
0.19509
0.0133093
0.192696
0.0154713
0.190044
0.0170021
0.187193
0.0181951
0.184164
0.0193101
0.180947
0.0205157
0.177518
0.0219028
0.173844
0.0235162
0.169887
0.0253786
0.165606
0.0275035
0.160957
0.0299009
0.155893
0.0325787
0.150364
0.0355419
0.144315
0.0387908
0.137689
0.0423188
0.130426
0.0461089
0.122464
0.0501302
0.113739
0.0543333
0.104196
0.0586454
0.0937868
0.0629655
0.0824823
0.06716
0.070285
0.0710608
0.0572424
0.0744672
0.0434624
0.0771563
0.0291264
0.0789012
0.0144853
0.0795269
0.0779964
0.199594
0.0035707
0.198669
0.00771597
0.197188
0.0118361
0.195231
0.0152666
0.192922
0.0177798
0.190366
0.0195579
0.187622
0.0209389
0.18471
0.0222223
0.181622
0.0236034
0.178337
0.0251884
0.174823
0.0270303
0.171045
0.0291564
0.166964
0.0315839
0.162539
0.0343263
0.157722
0.0373954
0.152464
0.0408006
0.146707
0.0445477
0.140389
0.0486362
0.133443
0.0530556
0.125792
0.0577814
0.117355
0.0627699
0.10805
0.0679509
0.0977942
0.0732208
0.0865202
0.078434
0.0741854
0.0833956
0.0607952
0.0878574
0.0464288
0.0915226
0.0312673
0.0940628
0.0156046
0.0951896
0.093601
0.199602
0.00396845
0.198705
0.00861319
0.19728
0.0132615
0.195401
0.0171455
0.193187
0.0199932
0.19074
0.0220055
0.188116
0.0235626
0.185336
0.025002
0.182395
0.0265443
0.179273
0.0283104
0.175942
0.0303612
0.17237
0.0327286
0.168521
0.0354334
0.164354
0.0384931
0.159826
0.0419238
0.154885
0.0457408
0.149476
0.049957
0.143532
0.0545804
0.136977
0.0596109
0.129722
0.065036
0.121667
0.0708245
0.1127
0.0769184
0.102698
0.0832227
0.0915401
0.089592
0.0791202
0.0958155
0.0653756
0.101602
0.0503267
0.106572
0.0341303
0.110259
0.0171203
0.1122
0.110721
0.199615
0.00435301
0.198753
0.00947545
0.19739
0.0146247
0.195597
0.018938
0.193489
0.0221019
0.19116
0.0243338
0.188669
0.0260536
0.186036
0.0276349
0.183258
0.0293223
0.180318
0.0312505
0.177192
0.0334877
0.17385
0.0360706
0.17026
0.0390235
0.166385
0.0423676
0.162185
0.0461242
0.15761
0.0503152
0.152606
0.0549617
0.147103
0.0600829
0.141021
0.0656927
0.134261
0.0717959
0.126704
0.0783822
0.118205
0.0854173
0.108598
0.09283
0.0976948
0.100495
0.0853032
0.108207
0.0712539
0.115651
0.055457
0.122368
0.0379916
0.127725
0.0192054
0.130986
0.129927
0.199632
0.0047206
0.198811
0.0102969
0.197516
0.0159192
0.195818
0.0206366
0.193823
0.0240969
0.191624
0.0265325
0.189277
0.0284005
0.186804
0.030108
0.184203
0.0319227
0.181462
0.0339919
0.178559
0.0363909
0.175469
0.0391604
0.172164
0.042328
0.168613
0.0459189
0.164778
0.0499594
0.160615
0.054478
0.156071
0.0595055
0.151081
0.0650735
0.14556
0.071213
0.139405
0.0779514
0.13248
0.0853072
0.124615
0.0932825
0.115595
0.10185
0.105159
0.110931
0.0930009
0.120365
0.0787963
0.129856
0.0622626
0.138902
0.0432917
0.146696
0.0221559
0.152122
0.152083
0.199652
0.00506831
0.198877
0.0110725
0.197657
0.0171391
0.196059
0.0222343
0.194186
0.0259701
0.192126
0.0285926
0.189933
0.030593
0.187631
0.0324102
0.185221
0.0343329
0.182692
0.0365204
0.180029
0.0390542
0.177211
0.0419785
0.174215
0.0453241
0.171014
0.0491194
0.167578
0.0533953
0.163869
0.058187
0.15984
0.0635344
0.155431
0.0694827
0.150562
0.0760816
0.14513
0.0833841
0.138992
0.0914449
0.13196
0.100314
0.12378
0.11003
0.114115
0.120596
0.10253
0.13195
0.0884889
0.143897
0.0713976
0.155993
0.050755
0.167338
0.0265063
0.17637
0.178589
0.199674
0.00539387
0.198949
0.0117983
0.197809
0.0182789
0.196318
0.0237249
0.194574
0.0277144
0.19266
0.030506
0.190631
0.0326224
0.188509
0.0345317
0.1863
0.0365421
0.183997
0.0388238
0.181587
0.0414637
0.179057
0.044509
0.176388
0.0479927
0.173562
0.0519458
0.170554
0.0564029
0.167336
0.0614048
0.163871
0.067
0.160108
0.0732459
0.155979
0.0802104
0.151389
0.0879737
0.146205
0.0966292
0.140235
0.106284
0.133206
0.117059
0.124725
0.129077
0.114233
0.142441
0.100948
0.157182
0.0838216
0.17312
0.0616111
0.189549
0.0333153
0.204666
0.211904
0.199698
0.00569549
0.199026
0.0124707
0.197971
0.0193342
0.196592
0.0251029
0.194983
0.0293237
0.193223
0.032266
0.191364
0.0344813
0.189431
0.0364645
0.187432
0.0385416
0.185363
0.0408925
0.183218
0.0436086
0.180988
0.0467394
0.178661
0.0503191
0.176227
0.0543801
0.17367
0.0589595
0.170973
0.0641019
0.168111
0.0698621
0.16505
0.0763075
0.161739
0.0835213
0.158105
0.0916072
0.154039
0.100695
0.149373
0.11095
0.143851
0.122581
0.137075
0.135853
0.128417
0.151099
0.116885
0.168715
0.100894
0.18911
0.0780001
0.212443
0.0448665
0.2378
0.256771
0.199724
0.0059718
0.199107
0.0130872
0.19814
0.0203012
0.196879
0.026364
0.19541
0.030793
0.193808
0.0338672
0.192126
0.0361641
0.190387
0.0382028
0.188604
0.0403252
0.186777
0.0427197
0.184904
0.0454816
0.182982
0.0486613
0.181007
0.0522934
0.178977
0.0564104
0.176887
0.0610498
0.174731
0.066258
0.1725
0.0720926
0.170181
0.0786268
0.167749
0.0859534
0.165164
0.0941922
0.162359
0.1035
0.159225
0.114085
0.155573
0.126233
0.151086
0.14034
0.145207
0.156978
0.13693
0.176992
0.124352
0.201689
0.103651
0.233143
0.0667246
0.274726
0.323495
0.19975
0.00622176
0.199192
0.0136455
0.198316
0.021177
0.197175
0.0275047
0.19585
0.0321185
0.194411
0.0353056
0.192909
0.0376667
0.191369
0.0397424
0.189805
0.0418888
0.188223
0.0443016
0.186626
0.0470786
0.185017
0.0502707
0.183399
0.0539113
0.181778
0.0580315
0.18016
0.0626675
0.178554
0.0678641
0.176969
0.0736782
0.175413
0.080183
0.173893
0.0874728
0.172414
0.0956716
0.170968
0.104945
0.169534
0.11552
0.16805
0.127716
0.166392
0.141999
0.164291
0.159079
0.161172
0.180111
0.155714
0.207147
0.144448
0.244409
0.115016
0.304158
0.438511
0.00115344
-0.00115344
0.0029209
-0.00176747
0.00557647
-0.00265557
0.00946524
-0.00388876
0.0148154
-0.00535013
0.0216888
-0.00687344
0.0299783
-0.00828948
0.0394408
-0.00946252
0.0497503
-0.0103096
0.0605523
-0.010802
0.0715074
-0.0109551
0.0823212
-0.0108138
0.0927588
-0.0104376
0.102648
-0.00988956
0.111877
-0.00922828
0.12038
-0.00850366
0.128135
-0.00775516
0.135147
-0.00701198
0.141442
-0.00629418
0.147056
-0.00561431
0.152035
-0.00497907
0.156426
-0.00439082
0.160274
-0.00384884
0.163625
-0.0033503
0.166516
-0.00289096
0.168981
-0.00246569
0.17105
-0.00206874
0.172744
-0.00169399
0.17408
-0.00133541
-0.000993257
0.000883851
-0.00203729
0.00241703
-0.00330065
0.00493145
-0.00516998
0.00881212
-0.00776944
0.0142959
-0.010834
0.0214258
-0.0140033
0.0300547
-0.0169184
0.0398944
-0.0193023
0.0505804
-0.0209955
0.0617313
-0.0219529
0.0729939
-0.0222177
0.0840693
-0.0218892
0.094725
-0.0210933
0.104795
-0.0199595
0.114173
-0.0186063
0.122802
-0.0171331
0.130665
-0.0156179
0.137771
-0.0141177
0.144148
-0.0126715
0.149837
-0.0113034
0.154884
-0.010026
0.159337
-0.00884352
0.163242
-0.0077542
0.166644
-0.00675216
0.169582
-0.00582883
0.17209
-0.00497385
0.174197
-0.00417568
0.175925
-0.00342192
0.177289
-0.00269961
-0.00199776
5.28075e-05
-0.0020901
0.000863849
-0.00411169
0.00286329
-0.00716942
0.00651545
-0.0114216
0.0120711
-0.0163897
0.0195257
-0.0214579
0.0286394
-0.0260321
0.0390231
-0.029686
0.0502301
-0.0322025
0.061826
-0.0335489
0.0734325
-0.0338243
0.0847474
-0.0332041
0.0955481
-0.0318941
0.105686
-0.0300973
0.115074
-0.0279939
0.123672
-0.0257318
0.131479
-0.0234244
0.138514
-0.0211535
0.144816
-0.0189736
0.150431
-0.0169177
0.155407
-0.0150023
0.159795
-0.0132319
0.163644
-0.0116024
0.166996
-0.0101044
0.169891
-0.00872432
0.172364
-0.0074465
0.174442
-0.00625344
0.176146
-0.00512638
0.177492
-0.00404532
-0.00299052
-0.00134015
-0.000749948
-0.00171389
-0.00373795
-0.000548752
-0.00833456
0.00275456
-0.0147249
0.00847319
-0.0221083
0.0165076
-0.0294923
0.026443
-0.0359674
0.0377165
-0.0409596
0.0497504
-0.0442364
0.0620339
-0.0458324
0.074158
-0.0459484
0.0858225
-0.0448686
0.0968264
-0.042898
0.107051
-0.0403216
0.116439
-0.0373822
0.12498
-0.0342731
0.132694
-0.0311381
0.139619
-0.0280782
0.145804
-0.0251588
0.151304
-0.0224174
0.156172
-0.0198712
0.160463
-0.0175227
0.164225
-0.0153644
0.167502
-0.0133817
0.170334
-0.011556
0.172753
-0.00986568
0.174787
-0.00828729
0.176456
-0.00679569
0.177775
-0.00536398
-0.00396476
-0.00348585
0.0027359
-0.00564753
-0.00157627
-0.00572218
-0.00825991
-0.00288267
-0.0175644
0.00316529
-0.0281562
0.0121727
-0.0384997
0.0233985
-0.0471933
0.0360022
-0.0535632
0.0492224
-0.0574566
0.0624563
-0.0590662
0.0752701
-0.0587622
0.0873815
-0.05698
0.0986294
-0.054146
0.108942
-0.050634
0.118307
-0.0467479
0.126754
-0.0427193
0.13433
-0.0387146
0.141098
-0.0348458
0.147121
-0.0311822
0.152464
-0.0277607
0.157188
-0.0245951
0.161348
-0.021683
0.164995
-0.0190113
0.168173
-0.0165596
0.17092
-0.0143031
0.173269
-0.0122141
0.175245
-0.0102632
0.176868
-0.0084187
0.178151
-0.00664725
-0.00491432
-0.00667266
0.00940856
-0.0114495
0.00320052
-0.0132833
-0.00642611
-0.011029
-0.0198187
-0.00431768
-0.0348676
0.00626709
-0.0490845
0.0194564
-0.0603826
0.0339572
-0.068064
0.0487847
-0.0722841
0.0632465
-0.0735281
0.0769091
-0.0724247
0.0895386
-0.0696095
0.101042
-0.0656495
0.111417
-0.0610094
0.120715
-0.0560456
0.129012
-0.0510164
0.136396
-0.046098
0.142952
-0.0414027
0.148765
-0.0369947
0.153908
-0.0329037
0.158448
-0.0291354
0.162445
-0.0256794
0.165948
-0.0225148
0.169002
-0.019614
0.171645
-0.0169455
0.173906
-0.0144752
0.17581
-0.0121675
0.177376
-0.00998471
0.178616
-0.00788705
-0.00583341
-0.0112957
0.0207043
-0.0198236
0.0117283
-0.0240483
-0.00220141
-0.0224302
-0.0214367
-0.0144592
-0.0428386
-0.00138717
-0.0621565
0.0146981
-0.0764679
0.0317852
-0.0851512
0.0486816
-0.0891806
0.0646384
-0.0894848
0.0792717
-0.087058
0.0924444
-0.0827823
0.104171
-0.0773762
0.114547
-0.0713857
0.123704
-0.065202
0.131778
-0.0590902
0.138899
-0.0532191
0.145183
-0.0476869
0.15073
-0.0425423
0.155627
-0.0378002
0.159944
-0.033453
0.163744
-0.0294788
0.167076
-0.025847
0.169984
-0.0225216
0.172502
-0.0194638
0.17466
-0.0166331
0.17648
-0.0139874
0.177979
-0.0114836
0.179167
-0.00907565
-0.00671649
-0.0177762
0.0384805
-0.0314289
0.025381
-0.038661
0.00503069
-0.0374132
-0.0226845
-0.0271911
-0.0530607
-0.0104004
-0.0789472
0.00959808
-0.0964663
0.029983
-0.105536
0.0493549
-0.108552
0.066991
-0.107121
0.0826297
-0.102697
0.096292
-0.0964447
0.108145
-0.0892288
0.11841
-0.0816516
0.127317
-0.0741084
0.13507
-0.066843
0.141844
-0.0599937
0.147785
-0.0536278
0.153009
-0.0477666
0.157611
-0.042402
0.161666
-0.0375081
0.165236
-0.0330486
0.16837
-0.028981
0.171109
-0.0252604
0.173485
-0.02184
0.175525
-0.0186728
0.177248
-0.015711
0.17867
-0.0129058
0.179801
-0.0102058
-0.00755842
-0.026263
0.0647435
-0.0461848
0.0453028
-0.056418
0.0152639
-0.0544283
-0.0246742
-0.0405916
-0.0668973
-0.0189984
-0.100541
0.00556496
-0.12103
0.0296224
-0.129594
0.0515849
-0.130515
0.0708529
-0.126389
0.087355
-0.119199
0.101322
-0.110411
0.113109
-0.101016
0.123089
-0.0916313
0.131594
-0.0826141
0.138902
-0.0741508
0.145231
-0.0663224
0.15075
-0.0591467
0.155588
-0.0526053
0.159846
-0.0466599
0.1636
-0.0412617
0.166908
-0.0363572
0.169819
-0.0318915
0.172368
-0.0278095
0.174585
-0.0240571
0.176493
-0.0205808
0.178109
-0.0173272
0.179446
-0.0142427
0.180511
-0.0112709
-0.00835443
-0.0355781
0.100322
-0.0612578
0.0709826
-0.0729962
0.0270022
-0.0682824
-0.0293879
-0.0496611
-0.0855187
-0.0231835
-0.127018
0.00544046
-0.149654
0.0325853
-0.156738
0.0566044
-0.154534
0.0770114
-0.146796
0.0939326
-0.13612
0.107819
-0.124298
0.119221
-0.112418
0.128659
-0.101069
0.136566
-0.090521
0.143278
-0.0808633
0.149048
-0.0720923
0.15406
-0.0641588
0.158449
-0.0569945
0.162314
-0.0505251
0.165729
-0.0446759
0.168747
-0.0393752
0.17141
-0.0345549
0.173751
-0.0301504
0.175794
-0.0261
0.177558
-0.0223447
0.179057
-0.0188262
0.1803
-0.0154864
0.181294
-0.012265
-0.00910019
-0.0417844
0.142106
-0.0696294
0.0988275
-0.0796622
0.037035
-0.0702284
-0.0388217
-0.0468983
-0.108849
-0.017337
-0.156579
0.0130892
-0.18008
0.0413961
-0.185045
0.0660162
-0.179154
0.0864414
-0.167221
0.102925
-0.152603
0.116086
-0.137459
0.126628
-0.12296
0.13518
-0.109622
0.142242
-0.0975833
0.148185
-0.0868061
0.153273
-0.0771798
0.15769
-0.0685761
0.161566
-0.0608709
0.164992
-0.053951
0.168032
-0.0477159
0.170733
-0.0420759
0.173129
-0.0369505
0.175245
-0.0322663
0.1771
-0.0279555
0.178709
-0.0239539
0.180082
-0.0201994
0.181226
-0.0166302
0.182144
-0.0131828
-0.00979184
-0.0393582
0.181464
-0.0626828
0.122152
-0.066241
0.0405932
-0.0511764
-0.0538863
-0.025362
-0.134663
0.00342315
-0.185365
0.0320309
-0.208688
0.0585571
-0.211571
0.0814263
-0.202023
0.100088
-0.185882
0.114837
-0.167353
0.126363
-0.148984
0.13542
-0.132017
0.142665
-0.116867
0.148601
-0.103519
0.153586
-0.0917916
0.157866
-0.0814592
0.161603
-0.0723133
0.164907
-0.0641752
0.167852
-0.0568959
0.170488
-0.0503514
0.172848
-0.0444367
0.174959
-0.0390609
0.176836
-0.0341438
0.178493
-0.0296127
0.179939
-0.0253996
0.181179
-0.0214397
0.182217
-0.0176684
0.183055
-0.0140198
-0.0104261
-0.0259846
0.207449
-0.0341085
0.130276
-0.0254588
0.0319435
-0.0056158
-0.0737292
0.0176147
-0.157894
0.0412571
-0.209007
0.0643837
-0.231814
0.0856903
-0.232878
0.103846
-0.220179
0.11848
-0.200516
0.129889
-0.178763
0.138693
-0.157788
0.145557
-0.138881
0.151042
-0.122352
0.155566
-0.108044
0.159414
-0.095639
0.16277
-0.084815
0.165751
-0.0752951
0.168433
-0.0668573
0.170863
-0.0593252
0.173069
-0.0525578
0.175072
-0.0464393
0.176883
-0.0408723
0.178511
-0.0357721
0.179962
-0.0310629
0.181237
-0.026675
0.182339
-0.0225415
0.183267
-0.0185965
0.18402
-0.0147725
-0.0110002
0.0053786
0.20207
0.0240004
0.111654
0.0448665
0.0110773
0.0634787
-0.0923415
0.0800514
-0.174466
0.0958786
-0.224834
0.110141
-0.246077
0.122593
-0.24533
0.132974
-0.23056
0.141267
-0.20881
0.147729
-0.185225
0.152764
-0.162823
0.156782
-0.142899
0.160115
-0.125685
0.162992
-0.110921
0.16556
-0.0982073
0.167906
-0.0871607
0.170078
-0.0774671
0.172102
-0.0688815
0.173992
-0.0612146
0.175751
-0.0543177
0.177383
-0.0480711
0.178886
-0.0423749
0.180257
-0.0371433
0.181494
-0.0323
0.182594
-0.0277748
0.183553
-0.0235005
0.184367
-0.019411
0.185033
-0.0154381
-0.0115119
0.0586015
0.143469
0.102281
0.067975
0.128672
-0.0153139
0.147166
-0.110836
0.158022
-0.185322
0.163333
-0.230146
0.165511
-0.248254
0.166283
-0.246102
0.166589
-0.230866
0.16685
-0.209071
0.167235
-0.18561
0.167808
-0.163396
0.168581
-0.143672
0.169539
-0.126643
0.17065
-0.112031
0.171873
-0.0994309
0.173172
-0.0884597
0.174512
-0.0788074
0.175865
-0.0702339
0.177205
-0.0625544
0.178511
-0.0556239
0.179766
-0.049326
0.180954
-0.0435636
0.182064
-0.038253
0.183084
-0.0333198
0.184004
-0.0286952
0.184817
-0.0243134
0.185515
-0.0201088
0.186091
-0.0160139
-0.0119591
0.207429
0.00645262
0.206912
0.014162
0.206102
0.0219873
0.205048
0.0285584
0.203828
0.0333388
0.202511
0.0366229
0.201145
0.0390321
0.199761
0.0411267
0.198374
0.0432756
0.196995
0.0456805
0.195632
0.0484412
0.194295
0.0516076
0.192996
0.0552107
0.191749
0.0592786
0.190573
0.0638434
0.189492
0.0689454
0.188534
0.0746361
0.187735
0.0809818
0.187139
0.0880688
0.186801
0.0960101
0.186789
0.104957
0.187193
0.115116
0.188134
0.126775
0.189782
0.14035
0.192399
0.156461
0.196444
0.176066
0.202908
0.200682
0.215088
0.232229
0.251701
0.267546
0.288627
0.401585
0.212477
0.00665844
0.212015
0.0146237
0.211291
0.0227118
0.21035
0.0294987
0.209266
0.0344235
0.208103
0.0377858
0.206909
0.0402255
0.205716
0.04232
0.204542
0.044449
0.203404
0.0468194
0.202313
0.0495314
0.201288
0.0526332
0.200346
0.0561521
0.199513
0.0601113
0.19882
0.0645367
0.198305
0.0694606
0.198017
0.0749243
0.198018
0.080981
0.198388
0.0876986
0.199233
0.0951644
0.200699
0.103492
0.202988
0.112827
0.206401
0.123362
0.211413
0.135339
0.218823
0.14905
0.230128
0.164762
0.248355
0.182455
0.279121
0.201463
0.326169
0.220498
0.237263
0.377532
0.217649
0.00683681
0.217247
0.0150253
0.216617
0.0233425
0.2158
0.0303157
0.214862
0.0353609
0.213866
0.038782
0.212858
0.041234
0.211869
0.0433089
0.210922
0.0453956
0.210037
0.0477046
0.209232
0.050336
0.208531
0.0533349
0.207959
0.0567239
0.20755
0.0605197
0.207347
0.0647398
0.207402
0.0694059
0.207781
0.0745455
0.208569
0.0801928
0.209877
0.0863901
0.211853
0.0931882
0.214698
0.100647
0.218694
0.108831
0.224249
0.117807
0.231973
0.127615
0.242791
0.138231
0.258075
0.149478
0.279616
0.160915
0.309254
0.171825
0.348027
0.181725
0.186079
0.399211
0.222948
0.00698558
0.222611
0.0153622
0.222081
0.0238722
0.221397
0.0309998
0.220618
0.0361404
0.2198
0.0395999
0.218988
0.0420458
0.218215
0.0440819
0.217506
0.0461043
0.216885
0.048326
0.216375
0.0508459
0.216004
0.0537053
0.215807
0.0569213
0.215824
0.0605027
0.216106
0.0644575
0.216717
0.0687947
0.217737
0.0735255
0.219268
0.0786626
0.221439
0.0842191
0.224421
0.0902058
0.228441
0.0966268
0.233802
0.10347
0.240917
0.110692
0.250342
0.118191
0.262804
0.125769
0.2792
0.133082
0.300544
0.139571
0.32807
0.144298
0.363816
0.145979
0.141176
0.40872
0.228376
0.00710283
0.228108
0.01563
0.227686
0.0242942
0.227143
0.0315428
0.226531
0.0367523
0.225901
0.0402296
0.225296
0.0426512
0.224748
0.0446299
0.224285
0.046567
0.223934
0.0486769
0.223724
0.0510565
0.223686
0.0537431
0.22386
0.0567472
0.224293
0.0600695
0.225043
0.0637075
0.226181
0.0676571
0.227794
0.0719125
0.229991
0.076465
0.232911
0.0812996
0.236725
0.086391
0.241656
0.0916962
0.247982
0.0971442
0.256053
0.10262
0.266301
0.107943
0.279234
0.112837
0.295428
0.116888
0.315505
0.119494
0.340056
0.119747
0.369514
0.116521
0.108329
0.40236
0.233936
0.00718687
0.233741
0.015825
0.233433
0.0246029
0.233038
0.0319373
0.232602
0.0371887
0.232168
0.0406629
0.231777
0.0430424
0.231461
0.0449461
0.231249
0.0467787
0.231171
0.0487546
0.231259
0.0509686
0.231549
0.0534531
0.232084
0.0562124
0.232914
0.059239
0.234102
0.0625198
0.235721
0.0660383
0.23786
0.0697732
0.240629
0.0736965
0.244158
0.0777699
0.24861
0.0819398
0.254176
0.0861303
0.261086
0.0902338
0.269608
0.094098
0.280041
0.0975104
0.292699
0.100179
0.307879
0.101708
0.325789
0.101584
0.346381
0.0991541
0.369213
0.0936898
0.0845408
0.393001
0.239632
0.00723634
0.239513
0.0159442
0.239322
0.0247934
0.239082
0.0321773
0.238828
0.0374429
0.238597
0.0408933
0.238426
0.043214
0.238345
0.0450267
0.238386
0.0467376
0.23858
0.0485606
0.238961
0.0505875
0.239568
0.0528463
0.240445
0.0553351
0.241646
0.0580385
0.243231
0.0609345
0.245274
0.0639953
0.247861
0.0671867
0.251091
0.0704657
0.255084
0.073777
0.259975
0.0770486
0.26592
0.0801859
0.273089
0.083065
0.281663
0.085524
0.291818
0.0873549
0.303702
0.0882949
0.317388
0.0880219
0.332813
0.0861593
0.349678
0.0822895
0.367371
0.0759966
0.0670269
0.384885
0.245465
0.00725018
0.245424
0.0159851
0.245356
0.024862
0.245275
0.0322581
0.245208
0.0375099
0.245185
0.0409166
0.245236
0.0431627
0.245392
0.0448704
0.245684
0.0464454
0.246145
0.0481001
0.246809
0.0499235
0.247716
0.051939
0.248912
0.0541394
0.250447
0.0565027
0.252383
0.0589992
0.254786
0.0615925
0.257733
0.0642387
0.261314
0.0668847
0.265626
0.0694651
0.270776
0.071899
0.276876
0.0740857
0.28404
0.0759012
0.29237
0.077194
0.301942
0.0777827
0.312781
0.0774555
0.324828
0.0759756
0.337894
0.0730931
0.351615
0.0685683
0.365404
0.0622078
0.0539769
0.378454
0.25144
0.00722767
0.251479
0.0159459
0.251535
0.0248059
0.251616
0.0321765
0.251739
0.0373868
0.251925
0.0407305
0.2522
0.0428881
0.252591
0.044479
0.25313
0.045907
0.253848
0.0473822
0.25478
0.0489906
0.255967
0.050752
0.257452
0.0526545
0.259284
0.0546711
0.261517
0.0567663
0.264212
0.0588977
0.267435
0.0610156
0.271258
0.0630617
0.275756
0.0649666
0.281007
0.0666484
0.287082
0.0680104
0.294044
0.0689395
0.301932
0.0693057
0.310751
0.0689637
0.32045
0.0677569
0.330899
0.0655258
0.34187
0.0621221
0.353009
0.0574296
0.363825
0.0513918
0.0440719
0.37373
0.257558
0.00716842
0.257678
0.0158258
0.25786
0.0246237
0.258106
0.031931
0.25842
0.0370725
0.258815
0.040335
0.259312
0.0423918
0.259934
0.0438569
0.26071
0.0451303
0.261673
0.0464192
0.262857
0.0478067
0.2643
0.0493097
0.266041
0.050913
0.268126
0.052586
0.270603
0.0542897
0.273522
0.0559785
0.276937
0.0576001
0.280904
0.0590953
0.285474
0.0603961
0.290697
0.0614257
0.29661
0.0620974
0.303234
0.0623151
0.310565
0.0619751
0.318559
0.0609693
0.327126
0.0591906
0.336109
0.0565421
0.345283
0.0529486
0.35434
0.0483719
0.362905
0.0428271
0.0364121
0.370565
0.263823
0.00707245
0.264025
0.0156246
0.264333
0.0243152
0.264743
0.0315214
0.265248
0.0365675
0.265851
0.039732
0.266564
0.041678
0.26741
0.0430111
0.268414
0.0441259
0.269608
0.045226
0.271022
0.0463922
0.272692
0.0476392
0.274656
0.0489496
0.276951
0.050291
0.279618
0.0516229
0.282697
0.0528988
0.28623
0.0540672
0.290254
0.0550712
0.294802
0.0558482
0.299898
0.0563299
0.305552
0.0564432
0.311756
0.0561113
0.318474
0.0552566
0.325639
0.0538042
0.333142
0.0516877
0.340828
0.0488561
0.348494
0.0452825
0.355893
0.0409733
0.362743
0.0359765
0.0303953
0.36876
0.270239
0.00694006
0.270521
0.0153428
0.270955
0.0238813
0.271527
0.0309492
0.27222
0.0358743
0.273026
0.0389258
0.273951
0.0407531
0.275011
0.0419508
0.276231
0.0429065
0.277637
0.0438199
0.27926
0.0447695
0.28113
0.0457687
0.28328
0.0467993
0.285743
0.0478285
0.28855
0.048816
0.291732
0.0497168
0.295316
0.0504824
0.299327
0.0510606
0.303779
0.0513964
0.308676
0.0514322
0.31401
0.0511095
0.319751
0.0503703
0.325847
0.0491602
0.33222
0.0474316
0.338759
0.0451488
0.345323
0.0422922
0.351741
0.0388644
0.357819
0.0348947
0.363353
0.0304427
0.0256035
0.368145
0.276809
0.00677206
0.27717
0.0149819
0.277727
0.023324
0.278459
0.0302174
0.279335
0.0349973
0.280339
0.0379222
0.281467
0.0396252
0.282731
0.0406871
0.28415
0.0414867
0.285751
0.0422195
0.287558
0.0429619
0.2896
0.0437269
0.291903
0.0444963
0.294493
0.0452385
0.297394
0.0459148
0.300628
0.0464834
0.30421
0.0469003
0.308151
0.0471196
0.312452
0.0470948
0.317105
0.0467798
0.322085
0.0461298
0.327351
0.0451036
0.332845
0.0436661
0.338486
0.0417908
0.344171
0.0394632
0.349779
0.0366842
0.355171
0.0334726
0.360198
0.0298676
0.364712
0.0259288
0.0217387
0.368577
0.283535
0.00656941
0.283973
0.014544
0.28465
0.0226465
0.285537
0.0293306
0.286592
0.0339423
0.287785
0.0367289
0.289106
0.0383043
0.290561
0.0392325
0.292165
0.0398822
0.293941
0.040444
0.29591
0.0409928
0.298095
0.0415413
0.300519
0.0420727
0.3032
0.0425572
0.306156
0.0429593
0.309398
0.0432413
0.312934
0.0433644
0.316763
0.0432899
0.320878
0.0429801
0.325258
0.0423995
0.329873
0.0415156
0.334675
0.0403014
0.339604
0.0387366
0.344585
0.0368099
0.349527
0.0345212
0.354328
0.0318831
0.358878
0.0289223
0.363066
0.02568
0.366784
0.022211
0.0185842
0.369938
0.290423
0.00633312
0.290935
0.0140313
0.291729
0.0218528
0.292765
0.0282942
0.293991
0.0327166
0.295365
0.0353551
0.296867
0.0368014
0.298499
0.0376005
0.300272
0.0381095
0.302203
0.0385132
0.304311
0.038885
0.306614
0.0392382
0.309128
0.0395579
0.311869
0.039817
0.314844
0.0399836
0.318061
0.0400248
0.321517
0.0399076
0.325207
0.0396006
0.329113
0.0390741
0.33321
0.0383021
0.337463
0.0372626
0.341825
0.0359396
0.346238
0.0343237
0.350633
0.0324142
0.354935
0.0302197
0.359059
0.0277589
0.362921
0.0250609
0.366435
0.022165
0.369527
0.0191192
0.0159798
0.372132
0.297474
0.00606502
0.298058
0.0134473
0.298963
0.0209479
0.300142
0.0271149
0.30153
0.0313283
0.303075
0.0338105
0.304748
0.0351283
0.306543
0.0358052
0.308467
0.0361849
0.310534
0.0364461
0.312759
0.0366603
0.315156
0.0368418
0.317736
0.0369779
0.320508
0.0370448
0.323476
0.037015
0.326641
0.0368602
0.329995
0.0365533
0.333526
0.0360695
0.337214
0.0353866
0.341029
0.0344864
0.344937
0.0333554
0.348891
0.0319856
0.352839
0.0303756
0.356722
0.0285311
0.360476
0.0264656
0.364034
0.0242002
0.367332
0.0217635
0.370306
0.0191909
0.372902
0.0165229
0.013805
0.375077
0.304693
0.00576659
0.305345
0.0127955
0.306356
0.0199373
0.30767
0.0258
0.309212
0.0297867
0.310916
0.0321062
0.312747
0.0332978
0.314691
0.0338612
0.316751
0.0341248
0.318936
0.0342606
0.321258
0.0343382
0.323727
0.0343729
0.32635
0.0343546
0.329132
0.034263
0.332072
0.0340748
0.335166
0.0337664
0.338403
0.0333164
0.341767
0.0327056
0.345235
0.0319183
0.348779
0.0309426
0.352363
0.0297713
0.355946
0.0284024
0.359482
0.0268396
0.362921
0.0250924
0.36621
0.0231764
0.369297
0.0211128
0.372133
0.018928
0.374671
0.0166527
0.376873
0.0143206
0.0119682
0.37871
0.312085
0.00543967
0.312801
0.0120798
0.313911
0.018827
0.315353
0.0243576
0.317039
0.0281015
0.318891
0.0302533
0.320867
0.0313225
0.322946
0.0317822
0.325126
0.0319444
0.327413
0.0319732
0.329815
0.0319362
0.332338
0.0318498
0.334986
0.0317063
0.33776
0.031489
0.340657
0.0311786
0.343667
0.030756
0.346779
0.0302047
0.349974
0.0295104
0.35323
0.0286626
0.356518
0.0276545
0.359806
0.0264834
0.363057
0.0251514
0.366231
0.0236652
0.369287
0.0220361
0.372183
0.0202801
0.374879
0.0184172
0.377336
0.0164708
0.379522
0.0144669
0.381409
0.0124332
0.0103987
0.382979
0.319653
0.00508609
0.320429
0.0113039
0.321633
0.017623
0.323194
0.0227957
0.325014
0.0262823
0.327004
0.0282629
0.329112
0.0292147
0.331312
0.0295818
0.333598
0.0296582
0.335972
0.0295992
0.338438
0.0294701
0.341
0.0292879
0.343659
0.0290475
0.346412
0.0287356
0.349254
0.0283365
0.352175
0.0278354
0.35516
0.0272197
0.358191
0.0264794
0.361246
0.0256079
0.364298
0.0246022
0.367319
0.0234628
0.370276
0.0221943
0.373136
0.0208049
0.375865
0.0193066
0.378431
0.0177145
0.380802
0.0160466
0.382949
0.0143234
0.38485
0.0125664
0.386485
0.0107981
0.00904132
0.387842
0.327402
0.00470752
0.328234
0.0104719
0.329525
0.0163316
0.331198
0.0211226
0.333141
0.0243392
0.335258
0.0261463
0.337486
0.0269864
0.339795
0.0272726
0.342174
0.0272791
0.344621
0.0271517
0.347139
0.0269525
0.349728
0.0266991
0.352386
0.0263889
0.355111
0.0260113
0.357893
0.0255542
0.360722
0.0250063
0.363583
0.0243583
0.366459
0.0236037
0.369328
0.0227389
0.372167
0.0217633
0.37495
0.0206797
0.37765
0.019494
0.38024
0.018215
0.382692
0.0168542
0.384981
0.0154256
0.387083
0.0139449
0.388977
0.0124293
0.390646
0.0108967
0.392079
0.00936513
0.00785254
0.393268
0.335335
0.00430574
0.33622
0.00958748
0.337592
0.0149589
0.339368
0.0193465
0.341426
0.0222817
0.343658
0.0239138
0.345996
0.0246486
0.348403
0.0248657
0.350864
0.0248183
0.353374
0.0246413
0.355933
0.0243935
0.35854
0.0240925
0.361191
0.0237376
0.363881
0.023321
0.366602
0.0228335
0.369342
0.0222666
0.372086
0.021614
0.374818
0.0208716
0.377519
0.020038
0.380167
0.0191145
0.382742
0.018105
0.38522
0.0170159
0.387579
0.0158558
0.389798
0.0146355
0.391856
0.0133673
0.393737
0.0120647
0.395424
0.010742
0.396907
0.00941376
0.398178
0.0080943