/*--------------------------------*- C++ -*----------------------------------*\
| =========                 |                                                 |
| \\      /  F ield         | OpenFOAM: The Open Source CFD Toolbox           |
|  \\    /   O peration     | Version:  dev                                   |
|   \\  /    A nd           | Web:      www.OpenFOAM.org                      |
|    \\/     M anipulation  |                                                 |
\*---------------------------------------------------------------------------*/
FoamFile
{
    version     2.0;
    format      ascii;
    class       pointVectorField;
    location    "0.04";
    object      pointDisplacement;
}
// * * * * * * * * * * * * * * * * * * * * * * * * * * * * * * * * * * * * * //

dimensions      [0 1 0 0 0 0 0];

internalField   nonuniform List<vector> 
5828
(
(0 0 0)
(3.97908e-05 0 0)
(7.6102e-05 0 0)
(0.000108138 0 0)
(0.000136267 0 0)
(0.000160826 0 0)
(0.000182122 0 0)
(0.000200432 0 0)
(0.000216005 0 0)
(0.000229066 0 0)
(0.000239816 0 0)
(0.000248436 0 0)
(0.000255087 0 0)
(0.000259914 0 0)
(0.000263048 0 0)
(0.000264611 0 0)
(0.000264713 0 0)
(0.000263463 0 0)
(0.000260966 0 0)
(0.000257325 0 0)
(0.000252646 0 0)
(0.000247032 0 0)
(0.000240572 0 0)
(0.000233322 0 0)
(0.000225259 0 0)
(0.000216204 0 0)
(0.000205678 0 0)
(0.000192708 0 0)
(0.000175852 0 0)
(0.000155523 0 0)
(0 0 0)
(0 0 0)
(3.97968e-05 0 1.44178e-06)
(7.61157e-05 0 2.77517e-06)
(0.00010816 0 3.98407e-06)
(0.000136298 0 5.08961e-06)
(0.000160868 0 6.10767e-06)
(0.000182176 0 7.04954e-06)
(0.000200501 0 7.92231e-06)
(0.000216091 0 8.72919e-06)
(0.000229172 0 9.46961e-06)
(0.000239946 0 1.01393e-05)
(0.000248594 0 1.07304e-05)
(0.000255277 0 1.12311e-05)
(0.00026014 0 1.16263e-05)
(0.000263317 0 1.18975e-05)
(0.000264928 0 1.20236e-05)
(0.000265085 0 1.19823e-05)
(0.000263898 0 1.1752e-05)
(0.000261471 0 1.13153e-05)
(0.000257912 0 1.06631e-05)
(0.000253331 0 9.80055e-06)
(0.000247838 0 8.75363e-06)
(0.000241541 0 7.57683e-06)
(0.000234535 0 6.3603e-06)
(0.00022688 0 5.23747e-06)
(0.000218575 0 4.39669e-06)
(0.000209546 0 4.10589e-06)
(0.000199716 0 4.76125e-06)
(0.000189387 0 6.90491e-06)
(0.000180376 0 1.06826e-05)
(0.000218196 0 4.09583e-05)
(0 0 0)
(3.98193e-05 0 2.87953e-06)
(7.61609e-05 0 5.54269e-06)
(0.000108229 0 7.95746e-06)
(0.000136395 0 1.01661e-05)
(0.000160996 0 1.22006e-05)
(0.000182341 0 1.40835e-05)
(0.000200709 0 1.58292e-05)
(0.00021635 0 1.74446e-05)
(0.000229491 0 1.89288e-05)
(0.000240335 0 2.02738e-05)
(0.000249065 0 2.14642e-05)
(0.000255842 0 2.24776e-05)
(0.000260815 0 2.3284e-05)
(0.000264118 0 2.38474e-05)
(0.000265872 0 2.4126e-05)
(0.000266192 0 2.40754e-05)
(0.00026519 0 2.3652e-05)
(0.000262973 0 2.28188e-05)
(0.000259654 0 2.15543e-05)
(0.000255352 0 1.9863e-05)
(0.000250201 0 1.7788e-05)
(0.00024435 0 1.54247e-05)
(0.000237977 0 1.29324e-05)
(0.000231307 0 1.05396e-05)
(0.000224661 0 8.54057e-06)
(0.000218569 0 7.27388e-06)
(0.000214003 0 7.06312e-06)
(0.000212659 0 8.04566e-06)
(0.00021609 0 9.72837e-06)
(0.000244023 0 3.81082e-06)
(0 0 0)
(3.98564e-05 0 4.30912e-06)
(7.62355e-05 0 8.29474e-06)
(0.000108344 0 1.19092e-05)
(0.000136554 0 1.5216e-05)
(0.000161207 0 1.82633e-05)
(0.000182612 0 2.10853e-05)
(0.000201051 0 2.37043e-05)
(0.000216776 0 2.6131e-05)
(0.000230016 0 2.83652e-05)
(0.000240975 0 3.0396e-05)
(0.000249838 0 3.2202e-05)
(0.000256771 0 3.37508e-05)
(0.000261923 0 3.49997e-05)
(0.000265431 0 3.58962e-05)
(0.00026742 0 3.63792e-05)
(0.000268007 0 3.63826e-05)
(0.000267304 0 3.58397e-05)
(0.000265426 0 3.46916e-05)
(0.00026249 0 3.2898e-05)
(0.000258625 0 3.04523e-05)
(0.000253985 0 2.73992e-05)
(0.000248758 0 2.38536e-05)
(0.000243194 0 2.00149e-05)
(0.000237634 0 1.61688e-05)
(0.000232573 0 1.26633e-05)
(0.000228714 0 9.84059e-06)
(0.000226976 0 7.90057e-06)
(0.000228148 0 6.70405e-06)
(0.000231565 0 5.74157e-06)
(0.000231957 0 1.21675e-06)
(0 0 0)
(3.99072e-05 0 5.72642e-06)
(7.63375e-05 0 1.10234e-05)
(0.0001085 0 1.58282e-05)
(0.000136772 0 2.02256e-05)
(0.000161495 0 2.42801e-05)
(0.000182983 0 2.80381e-05)
(0.000201519 0 3.15302e-05)
(0.000217359 0 3.47718e-05)
(0.000230734 0 3.77645e-05)
(0.00024185 0 4.04959e-05)
(0.000250896 0 4.294e-05)
(0.000258041 0 4.50568e-05)
(0.000263438 0 4.67929e-05)
(0.000267226 0 4.80814e-05)
(0.000269534 0 4.88443e-05)
(0.000270483 0 4.89947e-05)
(0.000270187 0 4.84428e-05)
(0.000268763 0 4.71043e-05)
(0.000266333 0 4.49131e-05)
(0.000263029 0 4.18389e-05)
(0.000259015 0 3.7909e-05)
(0.000254494 0 3.32322e-05)
(0.000249735 0 2.80196e-05)
(0.000245104 0 2.25918e-05)
(0.000241085 0 1.73559e-05)
(0.000238263 0 1.27355e-05)
(0.000237185 0 9.05014e-06)
(0.000237973 0 6.40141e-06)
(0.000239696 0 4.74897e-06)
(0.000244064 0 5.20788e-06)
(0 0 0)
(3.99703e-05 0 7.12724e-06)
(7.64644e-05 0 1.37208e-05)
(0.000108695 0 1.97032e-05)
(0.000137043 0 2.51808e-05)
(0.000161854 0 3.02347e-05)
(0.000183446 0 3.4924e-05)
(0.000202104 0 3.92882e-05)
(0.000218087 0 4.33487e-05)
(0.000231629 0 4.71098e-05)
(0.000242942 0 5.05595e-05)
(0.000252216 0 5.36694e-05)
(0.000259625 0 5.63945e-05)
(0.000265325 0 5.86733e-05)
(0.000269461 0 6.04284e-05)
(0.000272165 0 6.15672e-05)
(0.000273561 0 6.19848e-05)
(0.000273766 0 6.15691e-05)
(0.000272898 0 6.02087e-05)
(0.000271077 0 5.78053e-05)
(0.000268435 0 5.42926e-05)
(0.000265124 0 4.96597e-05)
(0.000261332 0 4.39818e-05)
(0.000257303 0 3.74511e-05)
(0.000253344 0 3.04009e-05)
(0.000249832 0 2.33063e-05)
(0.000247161 0 1.67423e-05)
(0.000245612 0 1.12824e-05)
(0.000245141 0 7.35388e-06)
(0.00024526 0 5.12107e-06)
(0.000247734 0 1.66579e-06)
(0 0 0)
(4.00442e-05 0 8.50735e-06)
(7.66129e-05 0 1.63787e-05)
(0.000108923 0 2.35227e-05)
(0.000137361 0 3.00671e-05)
(0.000162276 0 3.61103e-05)
(0.00018399 0 4.17242e-05)
(0.000202791 0 4.69583e-05)
(0.000218943 0 5.18407e-05)
(0.000232683 0 5.63805e-05)
(0.000244226 0 6.05678e-05)
(0.000253767 0 6.43743e-05)
(0.000261485 0 6.77529e-05)
(0.000267541 0 7.06381e-05)
(0.000272084 0 7.29454e-05)
(0.00027525 0 7.45723e-05)
(0.000277167 0 7.54002e-05)
(0.000277954 0 7.52974e-05)
(0.00027773 0 7.4126e-05)
(0.000276609 0 7.17528e-05)
(0.000274711 0 6.80651e-05)
(0.000272167 0 6.29957e-05)
(0.000269128 0 5.65568e-05)
(0.000265773 0 4.8883e-05)
(0.000262314 0 4.02799e-05)
(0.000258992 0 3.12654e-05)
(0.000256045 0 2.25789e-05)
(0.000253636 0 1.51155e-05)
(0.00025178 0 9.73398e-06)
(0.000250382 0 6.89682e-06)
(0.000242897 0 5.50161e-06)
(0 0 0)
(4.0127e-05 0 9.86246e-06)
(7.67795e-05 0 1.89891e-05)
(0.00010918 0 2.72749e-05)
(0.000137718 0 3.48699e-05)
(0.000162751 0 4.18892e-05)
(0.000184603 0 4.84188e-05)
(0.000203566 0 5.45183e-05)
(0.000219908 0 6.02244e-05)
(0.000233871 0 6.55522e-05)
(0.000245673 0 7.0496e-05)
(0.000255516 0 7.50305e-05)
(0.000263581 0 7.911e-05)
(0.000270036 0 8.26688e-05)
(0.000275034 0 8.56205e-05)
(0.000278717 0 8.78584e-05)
(0.000281216 0 8.92555e-05)
(0.000282654 0 8.96669e-05)
(0.000283146 0 8.8933e-05)
(0.000282802 0 8.68868e-05)
(0.000281727 0 8.33663e-05)
(0.000280022 0 7.82348e-05)
(0.00027779 0 7.14145e-05)
(0.000275132 0 6.29366e-05)
(0.000272154 0 5.3013e-05)
(0.000268968 0 4.21243e-05)
(0.000265704 0 3.11027e-05)
(0.00026254 0 2.11443e-05)
(0.000259772 0 1.36256e-05)
(0.000257885 0 9.55386e-06)
(0.000258684 0 9.81382e-06)
(0 0 0)
(4.02165e-05 0 1.11882e-05)
(7.69598e-05 0 2.15434e-05)
(0.000109457 0 3.0948e-05)
(0.000138106 0 3.95737e-05)
(0.000163268 0 4.75532e-05)
(0.000185271 0 5.49863e-05)
(0.000204412 0 6.19445e-05)
(0.000220962 0 6.84734e-05)
(0.000235168 0 7.45959e-05)
(0.000247254 0 8.03131e-05)
(0.000257424 0 8.56051e-05)
(0.000265866 0 9.04313e-05)
(0.000272753 0 9.47303e-05)
(0.000278244 0 9.84193e-05)
(0.000282486 0 0.000101394)
(0.000285615 0 0.000103527)
(0.000287755 0 0.000104668)
(0.000289024 0 0.000104646)
(0.000289524 0 0.000103269)
(0.000289347 0 0.000100331)
(0.000288568 0 9.56257e-05)
(0.000287242 0 8.8968e-05)
(0.000285399 0 8.0244e-05)
(0.000283044 0 6.94897e-05)
(0.000280166 0 5.70177e-05)
(0.000276781 0 4.35861e-05)
(0.000273029 0 3.0549e-05)
(0.00026934 0 1.98081e-05)
(0.000266576 0 1.32318e-05)
(0.000266213 0 6.7768e-06)
(0 0 0)
(4.03103e-05 0 1.24803e-05)
(7.71492e-05 0 2.40332e-05)
(0.00010975 0 3.45297e-05)
(0.000138516 0 4.41628e-05)
(0.000163815 0 5.3083e-05)
(0.000185978 0 6.14046e-05)
(0.000205309 0 6.92109e-05)
(0.000222081 0 7.65583e-05)
(0.000236546 0 8.34788e-05)
(0.000248932 0 8.9982e-05)
(0.000259449 0 9.60564e-05)
(0.00026829 0 0.00010167)
(0.000275633 0 0.00010677)
(0.000281642 0 0.000111283)
(0.000286471 0 0.000115114)
(0.00029026 0 0.000118145)
(0.00029314 0 0.000120232)
(0.000295227 0 0.000121206)
(0.000296624 0 0.000120866)
(0.000297414 0 0.000118982)
(0.000297656 0 0.00011529)
(0.000297372 0 0.000109509)
(0.000296542 0 0.000101362)
(0.000295094 0 9.06419e-05)
(0.000292908 0 7.73463e-05)
(0.000289862 0 6.19135e-05)
(0.000285944 0 4.55761e-05)
(0.000281469 0 3.06958e-05)
(0.000277431 0 2.05627e-05)
(0.000266386 0 1.26554e-05)
(0 0 0)
(4.04058e-05 0 1.37342e-05)
(7.73425e-05 0 2.64501e-05)
(0.00011005 0 3.80076e-05)
(0.000138938 0 4.86212e-05)
(0.000164379 0 5.84591e-05)
(0.00018671 0 6.76501e-05)
(0.000206238 0 7.62904e-05)
(0.000223241 0 8.44474e-05)
(0.000237975 0 9.21639e-05)
(0.000250673 0 9.94598e-05)
(0.000261548 0 0.000106334)
(0.0002708 0 0.000112767)
(0.000278611 0 0.000118719)
(0.000285152 0 0.00012413)
(0.000290581 0 0.000128923)
(0.000295046 0 0.000132997)
(0.000298681 0 0.00013623)
(0.000301609 0 0.000138468)
(0.000303935 0 0.000139528)
(0.000305744 0 0.000139183)
(0.000307091 0 0.000137154)
(0.000307993 0 0.0001331)
(0.000308412 0 0.000126616)
(0.000308241 0 0.000117252)
(0.000307302 0 0.000104595)
(0.000305362 0 8.84962e-05)
(0.000302233 0 6.95582e-05)
(0.000298048 0 5.00035e-05)
(0.000293866 0 3.46065e-05)
(0.000289277 0 2.12688e-05)
(0 0 0)
(4.05002e-05 0 1.49455e-05)
(7.75343e-05 0 2.87854e-05)
(0.000110348 0 4.13693e-05)
(0.00013936 0 5.29328e-05)
(0.000164946 0 6.36614e-05)
(0.000187448 0 7.36988e-05)
(0.000207178 0 8.31541e-05)
(0.000224417 0 9.21068e-05)
(0.000239425 0 0.000100611)
(0.000252439 0 0.000108699)
(0.000263677 0 0.000116382)
(0.000273342 0 0.000123654)
(0.000281623 0 0.000130492)
(0.000288696 0 0.000136857)
(0.000294724 0 0.000142692)
(0.00029986 0 0.000147926)
(0.000304247 0 0.000152465)
(0.000308013 0 0.000156197)
(0.000311273 0 0.000158975)
(0.00031412 0 0.000160617)
(0.000316623 0 0.00016088)
(0.000318816 0 0.000159443)
(0.000320683 0 0.000155874)
(0.000322146 0 0.000149593)
(0.000323044 0 0.000139858)
(0.000323122 0 0.000125848)
(0.000322045 0 0.00010704)
(0.000319556 0 8.43433e-05)
(0.000316132 0 6.2753e-05)
(0.0003086 0 2.70424e-05)
(0 0 0)
(4.05907e-05 0 1.61099e-05)
(7.7719e-05 0 3.10306e-05)
(0.000110638 0 4.46024e-05)
(0.000139772 0 5.70813e-05)
(0.000165502 0 6.86697e-05)
(0.000188177 0 7.95261e-05)
(0.000208108 0 8.97726e-05)
(0.000225584 0 9.95011e-05)
(0.000240865 0 0.000108778)
(0.000254193 0 0.000117647)
(0.000265791 0 0.000126136)
(0.000275865 0 0.000134253)
(0.000284607 0 0.000141994)
(0.000292198 0 0.000149342)
(0.000298808 0 0.000156269)
(0.000304594 0 0.000162735)
(0.000309706 0 0.00016869)
(0.00031428 0 0.000174072)
(0.000318442 0 0.000178798)
(0.000322301 0 0.000182764)
(0.000325948 0 0.000185824)
(0.000329452 0 0.000187772)
(0.000332853 0 0.000188298)
(0.00033615 0 0.00018693)
(0.000339295 0 0.000182937)
(0.000342163 0 0.000175232)
(0.000344495 0 0.000162396)
(0.000345837 0 0.000143395)
(0.000345694 0 0.000120999)
(0.000331275 0 6.16343e-05)
(0 0 0)
(4.06741e-05 0 1.72229e-05)
(7.78907e-05 0 3.31774e-05)
(0.00011091 0 4.76948e-05)
(0.000140162 0 6.10506e-05)
(0.000166034 0 7.34639e-05)
(0.000188877 0 8.51074e-05)
(0.000209007 0 9.61161e-05)
(0.000226715 0 0.000106594)
(0.000242265 0 0.00011662)
(0.0002559 0 0.000126252)
(0.000267847 0 0.000135531)
(0.000278316 0 0.000144481)
(0.000287501 0 0.00015312)
(0.000295587 0 0.000161453)
(0.000302746 0 0.000169482)
(0.000309143 0 0.000177203)
(0.000314931 0 0.000184614)
(0.000320255 0 0.00019171)
(0.000325249 0 0.000198486)
(0.000330039 0 0.00020494)
(0.000334742 0 0.000211063)
(0.000339462 0 0.000216838)
(0.000344298 0 0.000222216)
(0.000349345 0 0.000227088)
(0.000354701 0 0.000231213)
(0.00036047 0 0.000234092)
(0.000366738 0 0.000234766)
(0.000373453 0 0.000231709)
(0.000379836 0 0.000224169)
(0.000395292 0 0.00016706)
(0 0 0)
(4.07474e-05 0 1.82804e-05)
(7.80434e-05 0 3.52175e-05)
(0.000111155 0 5.06343e-05)
(0.00014052 0 6.4825e-05)
(0.000166528 0 7.80242e-05)
(0.000189533 0 9.04183e-05)
(0.000209855 0 0.000102155)
(0.000227787 0 0.00011335)
(0.000243595 0 0.000124095)
(0.000257525 0 0.000134459)
(0.000269805 0 0.000144499)
(0.000280647 0 0.000154255)
(0.000290247 0 0.000163763)
(0.000298793 0 0.000173052)
(0.000306459 0 0.000182153)
(0.000313411 0 0.000191098)
(0.000319806 0 0.000199927)
(0.000325794 0 0.000208695)
(0.000331516 0 0.000217473)
(0.000337107 0 0.000226361)
(0.000342699 0 0.000235492)
(0.000348421 0 0.000245049)
(0.000354406 0 0.000255283)
(0.0003608 0 0.000266538)
(0.000367769 0 0.000279282)
(0.000375502 0 0.000294137)
(0.000384168 0 0.000311807)
(0.000393705 0 0.000332582)
(0.000402881 0 0.000354019)
(0.000439607 0 0.000403292)
(0 0 0)
(4.0808e-05 0 1.92878e-05)
(7.81723e-05 0 3.71606e-05)
(0.000111368 0 5.34345e-05)
(0.000140836 0 6.84216e-05)
(0.000166972 0 8.23706e-05)
(0.000190133 0 9.54811e-05)
(0.000210639 0 0.000107912)
(0.000228785 0 0.000119792)
(0.000244839 0 0.000131223)
(0.00025905 0 0.000142287)
(0.000271644 0 0.000153052)
(0.000282834 0 0.000163577)
(0.000292819 0 0.000173912)
(0.000301785 0 0.00018411)
(0.000309907 0 0.000194223)
(0.000317352 0 0.000204317)
(0.000324276 0 0.000214469)
(0.000330829 0 0.000224781)
(0.000337152 0 0.000235386)
(0.000343383 0 0.000246463)
(0.000349654 0 0.000258253)
(0.000356095 0 0.000271083)
(0.000362834 0 0.000285407)
(0.000370001 0 0.000301857)
(0.000377711 0 0.000321323)
(0.000386028 0 0.000345034)
(0.000394853 0 0.00037458)
(0.000403663 0 0.00041148)
(0.000410959 0 0.000454175)
(0.000395976 0 0.000600232)
(0 0 0)
(3.97908e-05 0 0)
(7.6102e-05 0 0)
(0.000108138 0 0)
(0.000136267 0 0)
(0.000160826 0 0)
(0.000182122 0 0)
(0.000200432 0 0)
(0.000216005 0 0)
(0.000229066 0 0)
(0.000239816 0 0)
(0.000248436 0 0)
(0.000255087 0 0)
(0.000259914 0 0)
(0.000263048 0 0)
(0.000264611 0 0)
(0.000264713 0 0)
(0.000263463 0 0)
(0.000260966 0 0)
(0.000257325 0 0)
(0.000252646 0 0)
(0.000247032 0 0)
(0.000240572 0 0)
(0.000233322 0 0)
(0.000225259 0 0)
(0.000216204 0 0)
(0.000205678 0 0)
(0.000192708 0 0)
(0.000175852 0 0)
(0.000155523 0 0)
(0 0 0)
(0 0 0)
(3.97968e-05 0 1.44178e-06)
(7.61157e-05 0 2.77517e-06)
(0.00010816 0 3.98407e-06)
(0.000136298 0 5.08961e-06)
(0.000160868 0 6.10767e-06)
(0.000182176 0 7.04954e-06)
(0.000200501 0 7.92231e-06)
(0.000216091 0 8.72919e-06)
(0.000229172 0 9.46961e-06)
(0.000239946 0 1.01393e-05)
(0.000248594 0 1.07304e-05)
(0.000255277 0 1.12311e-05)
(0.00026014 0 1.16263e-05)
(0.000263317 0 1.18975e-05)
(0.000264928 0 1.20236e-05)
(0.000265085 0 1.19823e-05)
(0.000263898 0 1.1752e-05)
(0.000261471 0 1.13153e-05)
(0.000257912 0 1.06631e-05)
(0.000253331 0 9.80055e-06)
(0.000247838 0 8.75363e-06)
(0.000241541 0 7.57683e-06)
(0.000234535 0 6.3603e-06)
(0.00022688 0 5.23747e-06)
(0.000218575 0 4.39669e-06)
(0.000209546 0 4.10589e-06)
(0.000199716 0 4.76125e-06)
(0.000189387 0 6.90491e-06)
(0.000180376 0 1.06826e-05)
(0.000218196 0 4.09583e-05)
(0 0 0)
(3.98193e-05 0 2.87953e-06)
(7.61609e-05 0 5.54269e-06)
(0.000108229 0 7.95746e-06)
(0.000136395 0 1.01661e-05)
(0.000160996 0 1.22006e-05)
(0.000182341 0 1.40835e-05)
(0.000200709 0 1.58292e-05)
(0.00021635 0 1.74446e-05)
(0.000229491 0 1.89288e-05)
(0.000240335 0 2.02738e-05)
(0.000249065 0 2.14642e-05)
(0.000255842 0 2.24776e-05)
(0.000260815 0 2.3284e-05)
(0.000264118 0 2.38474e-05)
(0.000265872 0 2.4126e-05)
(0.000266192 0 2.40754e-05)
(0.00026519 0 2.3652e-05)
(0.000262973 0 2.28188e-05)
(0.000259654 0 2.15543e-05)
(0.000255352 0 1.9863e-05)
(0.000250201 0 1.7788e-05)
(0.00024435 0 1.54247e-05)
(0.000237977 0 1.29324e-05)
(0.000231307 0 1.05396e-05)
(0.000224661 0 8.54057e-06)
(0.000218569 0 7.27388e-06)
(0.000214003 0 7.06312e-06)
(0.000212659 0 8.04566e-06)
(0.00021609 0 9.72837e-06)
(0.000244023 0 3.81082e-06)
(0 0 0)
(3.98564e-05 0 4.30912e-06)
(7.62355e-05 0 8.29474e-06)
(0.000108344 0 1.19092e-05)
(0.000136554 0 1.5216e-05)
(0.000161207 0 1.82633e-05)
(0.000182612 0 2.10853e-05)
(0.000201051 0 2.37043e-05)
(0.000216776 0 2.6131e-05)
(0.000230016 0 2.83652e-05)
(0.000240975 0 3.0396e-05)
(0.000249838 0 3.2202e-05)
(0.000256771 0 3.37508e-05)
(0.000261923 0 3.49997e-05)
(0.000265431 0 3.58962e-05)
(0.00026742 0 3.63792e-05)
(0.000268007 0 3.63826e-05)
(0.000267304 0 3.58397e-05)
(0.000265426 0 3.46916e-05)
(0.00026249 0 3.2898e-05)
(0.000258625 0 3.04523e-05)
(0.000253985 0 2.73992e-05)
(0.000248758 0 2.38536e-05)
(0.000243194 0 2.00149e-05)
(0.000237634 0 1.61688e-05)
(0.000232573 0 1.26633e-05)
(0.000228714 0 9.84059e-06)
(0.000226976 0 7.90057e-06)
(0.000228148 0 6.70405e-06)
(0.000231565 0 5.74157e-06)
(0.000231957 0 1.21675e-06)
(0 0 0)
(3.99072e-05 0 5.72642e-06)
(7.63375e-05 0 1.10234e-05)
(0.0001085 0 1.58282e-05)
(0.000136772 0 2.02256e-05)
(0.000161495 0 2.42801e-05)
(0.000182983 0 2.80381e-05)
(0.000201519 0 3.15302e-05)
(0.000217359 0 3.47718e-05)
(0.000230734 0 3.77645e-05)
(0.00024185 0 4.04959e-05)
(0.000250896 0 4.294e-05)
(0.000258041 0 4.50568e-05)
(0.000263438 0 4.67929e-05)
(0.000267226 0 4.80814e-05)
(0.000269534 0 4.88443e-05)
(0.000270483 0 4.89947e-05)
(0.000270187 0 4.84428e-05)
(0.000268763 0 4.71043e-05)
(0.000266333 0 4.49131e-05)
(0.000263029 0 4.18389e-05)
(0.000259015 0 3.7909e-05)
(0.000254494 0 3.32322e-05)
(0.000249735 0 2.80196e-05)
(0.000245104 0 2.25918e-05)
(0.000241085 0 1.73559e-05)
(0.000238263 0 1.27355e-05)
(0.000237185 0 9.05014e-06)
(0.000237973 0 6.40141e-06)
(0.000239696 0 4.74897e-06)
(0.000244064 0 5.20788e-06)
(0 0 0)
(3.99703e-05 0 7.12724e-06)
(7.64644e-05 0 1.37208e-05)
(0.000108695 0 1.97032e-05)
(0.000137043 0 2.51808e-05)
(0.000161854 0 3.02347e-05)
(0.000183446 0 3.4924e-05)
(0.000202104 0 3.92882e-05)
(0.000218087 0 4.33487e-05)
(0.000231629 0 4.71098e-05)
(0.000242942 0 5.05595e-05)
(0.000252216 0 5.36694e-05)
(0.000259625 0 5.63945e-05)
(0.000265325 0 5.86733e-05)
(0.000269461 0 6.04284e-05)
(0.000272165 0 6.15672e-05)
(0.000273561 0 6.19848e-05)
(0.000273766 0 6.15691e-05)
(0.000272898 0 6.02087e-05)
(0.000271077 0 5.78053e-05)
(0.000268435 0 5.42926e-05)
(0.000265124 0 4.96597e-05)
(0.000261332 0 4.39818e-05)
(0.000257303 0 3.74511e-05)
(0.000253344 0 3.04009e-05)
(0.000249832 0 2.33063e-05)
(0.000247161 0 1.67423e-05)
(0.000245612 0 1.12824e-05)
(0.000245141 0 7.35388e-06)
(0.00024526 0 5.12107e-06)
(0.000247734 0 1.66579e-06)
(0 0 0)
(4.00442e-05 0 8.50735e-06)
(7.66129e-05 0 1.63787e-05)
(0.000108923 0 2.35227e-05)
(0.000137361 0 3.00671e-05)
(0.000162276 0 3.61103e-05)
(0.00018399 0 4.17242e-05)
(0.000202791 0 4.69583e-05)
(0.000218943 0 5.18407e-05)
(0.000232683 0 5.63805e-05)
(0.000244226 0 6.05678e-05)
(0.000253767 0 6.43743e-05)
(0.000261485 0 6.77529e-05)
(0.000267541 0 7.06381e-05)
(0.000272084 0 7.29454e-05)
(0.00027525 0 7.45723e-05)
(0.000277167 0 7.54002e-05)
(0.000277954 0 7.52974e-05)
(0.00027773 0 7.4126e-05)
(0.000276609 0 7.17528e-05)
(0.000274711 0 6.80651e-05)
(0.000272167 0 6.29957e-05)
(0.000269128 0 5.65568e-05)
(0.000265773 0 4.8883e-05)
(0.000262314 0 4.02799e-05)
(0.000258992 0 3.12654e-05)
(0.000256045 0 2.25789e-05)
(0.000253636 0 1.51155e-05)
(0.00025178 0 9.73398e-06)
(0.000250382 0 6.89682e-06)
(0.000242897 0 5.50161e-06)
(0 0 0)
(4.0127e-05 0 9.86246e-06)
(7.67795e-05 0 1.89891e-05)
(0.00010918 0 2.72749e-05)
(0.000137718 0 3.48699e-05)
(0.000162751 0 4.18892e-05)
(0.000184603 0 4.84188e-05)
(0.000203566 0 5.45183e-05)
(0.000219908 0 6.02244e-05)
(0.000233871 0 6.55522e-05)
(0.000245673 0 7.0496e-05)
(0.000255516 0 7.50305e-05)
(0.000263581 0 7.911e-05)
(0.000270036 0 8.26688e-05)
(0.000275034 0 8.56205e-05)
(0.000278717 0 8.78584e-05)
(0.000281216 0 8.92555e-05)
(0.000282654 0 8.96669e-05)
(0.000283146 0 8.8933e-05)
(0.000282802 0 8.68868e-05)
(0.000281727 0 8.33663e-05)
(0.000280022 0 7.82348e-05)
(0.00027779 0 7.14145e-05)
(0.000275132 0 6.29366e-05)
(0.000272154 0 5.3013e-05)
(0.000268968 0 4.21243e-05)
(0.000265704 0 3.11027e-05)
(0.00026254 0 2.11443e-05)
(0.000259772 0 1.36256e-05)
(0.000257885 0 9.55386e-06)
(0.000258684 0 9.81382e-06)
(0 0 0)
(4.02165e-05 0 1.11882e-05)
(7.69598e-05 0 2.15434e-05)
(0.000109457 0 3.0948e-05)
(0.000138106 0 3.95737e-05)
(0.000163268 0 4.75532e-05)
(0.000185271 0 5.49863e-05)
(0.000204412 0 6.19445e-05)
(0.000220962 0 6.84734e-05)
(0.000235168 0 7.45959e-05)
(0.000247254 0 8.03131e-05)
(0.000257424 0 8.56051e-05)
(0.000265866 0 9.04313e-05)
(0.000272753 0 9.47303e-05)
(0.000278244 0 9.84193e-05)
(0.000282486 0 0.000101394)
(0.000285615 0 0.000103527)
(0.000287755 0 0.000104668)
(0.000289024 0 0.000104646)
(0.000289524 0 0.000103269)
(0.000289347 0 0.000100331)
(0.000288568 0 9.56257e-05)
(0.000287242 0 8.8968e-05)
(0.000285399 0 8.0244e-05)
(0.000283044 0 6.94897e-05)
(0.000280166 0 5.70177e-05)
(0.000276781 0 4.35861e-05)
(0.000273029 0 3.0549e-05)
(0.00026934 0 1.98081e-05)
(0.000266576 0 1.32318e-05)
(0.000266213 0 6.7768e-06)
(0 0 0)
(4.03103e-05 0 1.24803e-05)
(7.71492e-05 0 2.40332e-05)
(0.00010975 0 3.45297e-05)
(0.000138516 0 4.41628e-05)
(0.000163815 0 5.3083e-05)
(0.000185978 0 6.14046e-05)
(0.000205309 0 6.92109e-05)
(0.000222081 0 7.65583e-05)
(0.000236546 0 8.34788e-05)
(0.000248932 0 8.9982e-05)
(0.000259449 0 9.60564e-05)
(0.00026829 0 0.00010167)
(0.000275633 0 0.00010677)
(0.000281642 0 0.000111283)
(0.000286471 0 0.000115114)
(0.00029026 0 0.000118145)
(0.00029314 0 0.000120232)
(0.000295227 0 0.000121206)
(0.000296624 0 0.000120866)
(0.000297414 0 0.000118982)
(0.000297656 0 0.00011529)
(0.000297372 0 0.000109509)
(0.000296542 0 0.000101362)
(0.000295094 0 9.06419e-05)
(0.000292908 0 7.73463e-05)
(0.000289862 0 6.19135e-05)
(0.000285944 0 4.55761e-05)
(0.000281469 0 3.06958e-05)
(0.000277431 0 2.05627e-05)
(0.000266386 0 1.26554e-05)
(0 0 0)
(4.04058e-05 0 1.37342e-05)
(7.73425e-05 0 2.64501e-05)
(0.00011005 0 3.80076e-05)
(0.000138938 0 4.86212e-05)
(0.000164379 0 5.84591e-05)
(0.00018671 0 6.76501e-05)
(0.000206238 0 7.62904e-05)
(0.000223241 0 8.44474e-05)
(0.000237975 0 9.21639e-05)
(0.000250673 0 9.94598e-05)
(0.000261548 0 0.000106334)
(0.0002708 0 0.000112767)
(0.000278611 0 0.000118719)
(0.000285152 0 0.00012413)
(0.000290581 0 0.000128923)
(0.000295046 0 0.000132997)
(0.000298681 0 0.00013623)
(0.000301609 0 0.000138468)
(0.000303935 0 0.000139528)
(0.000305744 0 0.000139183)
(0.000307091 0 0.000137154)
(0.000307993 0 0.0001331)
(0.000308412 0 0.000126616)
(0.000308241 0 0.000117252)
(0.000307302 0 0.000104595)
(0.000305362 0 8.84962e-05)
(0.000302233 0 6.95582e-05)
(0.000298048 0 5.00035e-05)
(0.000293866 0 3.46065e-05)
(0.000289277 0 2.12688e-05)
(0 0 0)
(4.05002e-05 0 1.49455e-05)
(7.75343e-05 0 2.87854e-05)
(0.000110348 0 4.13693e-05)
(0.00013936 0 5.29328e-05)
(0.000164946 0 6.36614e-05)
(0.000187448 0 7.36988e-05)
(0.000207178 0 8.31541e-05)
(0.000224417 0 9.21068e-05)
(0.000239425 0 0.000100611)
(0.000252439 0 0.000108699)
(0.000263677 0 0.000116382)
(0.000273342 0 0.000123654)
(0.000281623 0 0.000130492)
(0.000288696 0 0.000136857)
(0.000294724 0 0.000142692)
(0.00029986 0 0.000147926)
(0.000304247 0 0.000152465)
(0.000308013 0 0.000156197)
(0.000311273 0 0.000158975)
(0.00031412 0 0.000160617)
(0.000316623 0 0.00016088)
(0.000318816 0 0.000159443)
(0.000320683 0 0.000155874)
(0.000322146 0 0.000149593)
(0.000323044 0 0.000139858)
(0.000323122 0 0.000125848)
(0.000322045 0 0.00010704)
(0.000319556 0 8.43433e-05)
(0.000316132 0 6.2753e-05)
(0.0003086 0 2.70424e-05)
(0 0 0)
(4.05907e-05 0 1.61099e-05)
(7.7719e-05 0 3.10306e-05)
(0.000110638 0 4.46024e-05)
(0.000139772 0 5.70813e-05)
(0.000165502 0 6.86697e-05)
(0.000188177 0 7.95261e-05)
(0.000208108 0 8.97726e-05)
(0.000225584 0 9.95011e-05)
(0.000240865 0 0.000108778)
(0.000254193 0 0.000117647)
(0.000265791 0 0.000126136)
(0.000275865 0 0.000134253)
(0.000284607 0 0.000141994)
(0.000292198 0 0.000149342)
(0.000298808 0 0.000156269)
(0.000304594 0 0.000162735)
(0.000309706 0 0.00016869)
(0.00031428 0 0.000174072)
(0.000318442 0 0.000178798)
(0.000322301 0 0.000182764)
(0.000325948 0 0.000185824)
(0.000329452 0 0.000187772)
(0.000332853 0 0.000188298)
(0.00033615 0 0.00018693)
(0.000339295 0 0.000182937)
(0.000342163 0 0.000175232)
(0.000344495 0 0.000162396)
(0.000345837 0 0.000143395)
(0.000345694 0 0.000120999)
(0.000331275 0 6.16343e-05)
(0 0 0)
(4.06741e-05 0 1.72229e-05)
(7.78907e-05 0 3.31774e-05)
(0.00011091 0 4.76948e-05)
(0.000140162 0 6.10506e-05)
(0.000166034 0 7.34639e-05)
(0.000188877 0 8.51074e-05)
(0.000209007 0 9.61161e-05)
(0.000226715 0 0.000106594)
(0.000242265 0 0.00011662)
(0.0002559 0 0.000126252)
(0.000267847 0 0.000135531)
(0.000278316 0 0.000144481)
(0.000287501 0 0.00015312)
(0.000295587 0 0.000161453)
(0.000302746 0 0.000169482)
(0.000309143 0 0.000177203)
(0.000314931 0 0.000184614)
(0.000320255 0 0.00019171)
(0.000325249 0 0.000198486)
(0.000330039 0 0.00020494)
(0.000334742 0 0.000211063)
(0.000339462 0 0.000216838)
(0.000344298 0 0.000222216)
(0.000349345 0 0.000227088)
(0.000354701 0 0.000231213)
(0.00036047 0 0.000234092)
(0.000366738 0 0.000234766)
(0.000373453 0 0.000231709)
(0.000379836 0 0.000224169)
(0.000395292 0 0.00016706)
(0 0 0)
(4.07474e-05 0 1.82804e-05)
(7.80434e-05 0 3.52175e-05)
(0.000111155 0 5.06343e-05)
(0.00014052 0 6.4825e-05)
(0.000166528 0 7.80242e-05)
(0.000189533 0 9.04183e-05)
(0.000209855 0 0.000102155)
(0.000227787 0 0.00011335)
(0.000243595 0 0.000124095)
(0.000257525 0 0.000134459)
(0.000269805 0 0.000144499)
(0.000280647 0 0.000154255)
(0.000290247 0 0.000163763)
(0.000298793 0 0.000173052)
(0.000306459 0 0.000182153)
(0.000313411 0 0.000191098)
(0.000319806 0 0.000199927)
(0.000325794 0 0.000208695)
(0.000331516 0 0.000217473)
(0.000337107 0 0.000226361)
(0.000342699 0 0.000235492)
(0.000348421 0 0.000245049)
(0.000354406 0 0.000255283)
(0.0003608 0 0.000266538)
(0.000367769 0 0.000279282)
(0.000375502 0 0.000294137)
(0.000384168 0 0.000311807)
(0.000393705 0 0.000332582)
(0.000402881 0 0.000354019)
(0.000439607 0 0.000403292)
(0 0 0)
(4.0808e-05 0 1.92878e-05)
(7.81723e-05 0 3.71606e-05)
(0.000111368 0 5.34345e-05)
(0.000140836 0 6.84216e-05)
(0.000166972 0 8.23706e-05)
(0.000190133 0 9.54811e-05)
(0.000210639 0 0.000107912)
(0.000228785 0 0.000119792)
(0.000244839 0 0.000131223)
(0.00025905 0 0.000142287)
(0.000271644 0 0.000153052)
(0.000282834 0 0.000163577)
(0.000292819 0 0.000173912)
(0.000301785 0 0.00018411)
(0.000309907 0 0.000194223)
(0.000317352 0 0.000204317)
(0.000324276 0 0.000214469)
(0.000330829 0 0.000224781)
(0.000337152 0 0.000235386)
(0.000343383 0 0.000246463)
(0.000349654 0 0.000258253)
(0.000356095 0 0.000271083)
(0.000362834 0 0.000285407)
(0.000370001 0 0.000301857)
(0.000377711 0 0.000321323)
(0.000386028 0 0.000345034)
(0.000394853 0 0.00037458)
(0.000403663 0 0.00041148)
(0.000410959 0 0.000454175)
(0.000395976 0 0.000600232)
(0 0 0)
(0.00013717 0 0)
(0.00015652 0 0)
(0.000173413 0 0)
(0.000187313 0 0)
(0.000199339 0 0)
(0.00021021 0 0)
(0.000220221 0 0)
(0.000229423 0 0)
(0.000237753 0 0)
(0.000245105 0 0)
(0.000251359 0 0)
(0.000256403 0 0)
(0.000260129 0 0)
(0.00026244 0 0)
(0.000263241 0 0)
(0.000262437 0 0)
(0.000259929 0 0)
(0.000255607 0 0)
(0.000249352 0 0)
(0.000241028 0 0)
(0.000230481 0 0)
(0.00021754 0 0)
(0.000202007 0 0)
(0.000183665 0 0)
(0.000162266 0 0)
(0.000137538 0 0)
(0.000109175 0 0)
(7.68453e-05 0 0)
(4.01833e-05 0 0)
(0 0 0)
(0.000189632 0 -4.51454e-05)
(0.000159676 0 -1.21579e-05)
(0.000169017 0 -7.41469e-06)
(0.00018011 0 -3.95239e-06)
(0.000191201 0 -1.56544e-06)
(0.000201874 0 3.1054e-07)
(0.000212049 0 1.98603e-06)
(0.000221664 0 3.56858e-06)
(0.000230612 0 5.06118e-06)
(0.00023876 0 6.427e-06)
(0.000245966 0 7.62414e-06)
(0.000252098 0 8.62139e-06)
(0.000257036 0 9.40284e-06)
(0.00026067 0 9.96711e-06)
(0.000262899 0 1.03239e-05)
(0.00026363 0 1.049e-05)
(0.000262764 0 1.04859e-05)
(0.000260202 0 1.03331e-05)
(0.000255835 0 1.00519e-05)
(0.00024954 0 9.66047e-06)
(0.000241183 0 9.17404e-06)
(0.000230608 0 8.60452e-06)
(0.000217642 0 7.96038e-06)
(0.000202089 0 7.24663e-06)
(0.000183729 0 6.46481e-06)
(0.000162316 0 5.6129e-06)
(0.000137575 0 4.68525e-06)
(0.000109202 0 3.67232e-06)
(7.68619e-05 0 2.56036e-06)
(4.01906e-05 0 1.33089e-06)
(0 0 0)
(0.000216903 0 -7.17813e-06)
(0.000193099 0 -1.12187e-05)
(0.000191228 0 -8.15075e-06)
(0.000194234 0 -4.83227e-06)
(0.00020057 0 -1.66479e-06)
(0.000208559 0 1.42651e-06)
(0.000217174 0 4.51392e-06)
(0.000225813 0 7.56977e-06)
(0.000234088 0 1.04987e-05)
(0.000241724 0 1.31875e-05)
(0.000248514 0 1.55392e-05)
(0.00025429 0 1.74892e-05)
(0.000258917 0 1.90076e-05)
(0.000262277 0 2.00939e-05)
(0.000264267 0 2.07694e-05)
(0.000264787 0 2.10689e-05)
(0.000263738 0 2.10336e-05)
(0.000261018 0 2.07062e-05)
(0.000256514 0 2.0127e-05)
(0.000250103 0 1.93315e-05)
(0.000241645 0 1.83494e-05)
(0.000230985 0 1.7204e-05)
(0.000217948 0 1.59117e-05)
(0.000202334 0 1.44819e-05)
(0.000183923 0 1.29174e-05)
(0.000162467 0 1.12138e-05)
(0.000137689 0 9.35965e-06)
(0.000109284 0 7.33567e-06)
(7.69155e-05 0 5.11424e-06)
(4.02174e-05 0 2.65836e-06)
(0 0 0)
(0.000210232 0 -1.56025e-06)
(0.00020946 0 -5.99028e-06)
(0.000207415 0 -5.42812e-06)
(0.000208073 0 -3.37751e-06)
(0.000211805 0 -2.22894e-07)
(0.000217699 0 3.65602e-06)
(0.000224765 0 7.95187e-06)
(0.000232247 0 1.23784e-05)
(0.000239616 0 1.66709e-05)
(0.000246505 0 2.06087e-05)
(0.000252651 0 2.40321e-05)
(0.000257863 0 2.68458e-05)
(0.000261989 0 2.90114e-05)
(0.000264906 0 3.05352e-05)
(0.000266504 0 3.14537e-05)
(0.000266681 0 3.18218e-05)
(0.000265334 0 3.17019e-05)
(0.000262355 0 3.11572e-05)
(0.000257628 0 3.02468e-05)
(0.000251025 0 2.90224e-05)