/*--------------------------------*- C++ -*----------------------------------*\
| =========                 |                                                 |
| \\      /  F ield         | OpenFOAM: The Open Source CFD Toolbox           |
|  \\    /   O peration     | Version:  dev                                   |
|   \\  /    A nd           | Web:      www.OpenFOAM.org                      |
|    \\/     M anipulation  |                                                 |
\*---------------------------------------------------------------------------*/
FoamFile
{
    version     2.0;
    format      ascii;
    class       volVectorField;
    location    "0.04";
    object      U;
}
// * * * * * * * * * * * * * * * * * * * * * * * * * * * * * * * * * * * * * //

dimensions      [0 1 -1 0 0 0 0];

internalField   nonuniform List<vector> 
2790
(
(9.94488 0 0.0188757)
(9.87917 -1.76366e-22 0.0271732)
(9.77998 0 0.0322593)
(9.6556 0 0.0363617)
(9.51727 -1.9264e-22 0.0396202)
(9.37041 -3.13677e-24 0.0423935)
(9.2162 3.2108e-24 0.0452418)
(9.05424 -1.07364e-22 0.0485868)
(8.88335 -1.11731e-22 0.0526619)
(8.70176 1.47141e-23 0.0575923)
(8.50736 -3.04459e-23 0.0634627)
(8.29796 7.93713e-23 0.0703504)
(8.07132 -3.37596e-23 0.0783371)
(7.82517 6.95638e-23 0.08751)
(7.55725 0 0.0979578)
(7.26531 9.66772e-24 0.109763)
(6.94719 -4.07359e-23 0.122993)
(6.60089 -1.29144e-24 0.137687)
(6.22466 8.94928e-23 0.153843)
(5.81715 -1.91335e-22 0.171399)
(5.37756 -3.04402e-22 0.190213)
(4.90576 -1.05296e-22 0.210047)
(4.40253 0 0.230548)
(3.86968 -2.68542e-24 0.251235)
(3.31016 2.46618e-22 0.2715)
(2.72813 9.88769e-22 0.290622)
(2.12891 -1.08705e-21 0.307799)
(1.51886 0 0.322199)
(0.90479 0 0.333087)
(0.343724 -9.88763e-21 0.335606)
(9.99688 1.34559e-24 0.0397738)
(9.9721 1.74826e-22 0.0637014)
(9.90612 0 0.0828349)
(9.8039 5.84318e-24 0.0996188)
(9.67799 1.8628e-22 0.113154)
(9.53704 1.98685e-22 0.124075)
(9.38503 -2.05961e-22 0.134116)
(9.22333 3.21001e-22 0.144832)
(9.05171 3.33984e-22 0.157218)
(8.8689 2.31935e-22 0.171845)
(8.67304 -6.12618e-23 0.189061)
(8.46201 -1.27288e-22 0.209121)
(8.23358 6.72005e-23 0.232249)
(7.98547 -3.41475e-23 0.258656)
(7.71536 0 0.288537)
(7.42095 -2.52228e-26 0.322047)
(7.09999 4.05484e-23 0.359275)
(6.75035 8.77454e-23 0.400208)
(6.37016 -1.77711e-22 0.44469)
(5.95787 1.90214e-22 0.492374)
(5.51249 -6.0589e-22 0.542678)
(5.03368 0 0.594747)
(4.522 4.44915e-22 0.647427)
(3.97906 2.45762e-22 0.699272)
(3.40769 -1.46984e-21 0.748588)
(2.81201 6.47891e-23 0.793525)
(2.19741 -6.76683e-23 0.832219)
(1.57043 0 0.862966)
(0.936744 -9.75408e-21 0.88444)
(0.354529 2.07862e-20 0.882157)
(9.99424 -2.6855e-24 0.0455636)
(9.96718 7.10456e-22 0.0858346)
(9.90361 3.54683e-22 0.123362)
(9.80524 -3.70953e-22 0.156461)
(9.68276 -3.94956e-22 0.182884)
(9.54474 -2.11074e-22 0.203709)
(9.3954 -2.0512e-22 0.222005)
(9.23627 -1.60218e-22 0.240685)
(9.06728 -2.4972e-22 0.261717)
(8.88726 -4.62408e-22 0.286264)
(8.69445 0 0.315027)
(8.48678 -1.25469e-22 0.348496)
(8.26206 0 0.387085)
(8.01803 -2.07494e-22 0.431173)
(7.75237 0 0.48111)
(7.46272 -9.56926e-24 0.537187)
(7.14676 3.26113e-22 0.599589)
(6.80222 -8.46644e-22 0.66834)
(6.42703 -3.5606e-24 0.743227)
(6.01937 3.75095e-22 0.823721)
(5.57789 1.20231e-21 0.908895)
(5.10184 -8.33714e-22 0.997344)
(4.59129 4.36489e-22 1.08713)
(4.04737 1.38944e-21 1.17576)
(3.47245 4.88682e-22 1.26026)
(2.87037 -5.09761e-22 1.3373)
(2.24644 -4.66646e-22 1.40345)
(1.60746 -2.78703e-22 1.45553)
(0.958318 5.81922e-22 1.49122)
(0.362085 -3.63031e-21 1.48871)
(9.99278 0 0.0536835)
(9.96409 -7.01981e-22 0.110513)
(9.9014 -3.601e-22 0.165915)
(9.80552 3.82278e-22 0.214171)
(9.68592 3.46634e-22 0.25239)
(9.55086 4.19024e-22 0.282401)
(9.40461 4.09947e-22 0.308525)
(9.24869 0 0.334877)
(9.0831 0 0.364297)
(8.90674 2.30479e-22 0.398486)
(8.71793 4.78807e-22 0.438478)
(8.5147 3.78041e-22 0.484992)
(8.29489 -1.29772e-22 0.538631)
(8.05629 1.37775e-22 0.599954)
(7.79657 -1.43684e-22 0.669484)
(7.51336 3.06966e-22 0.747674)
(7.20423 8.42544e-24 0.83485)
(6.86677 -1.62669e-22 0.931126)
(6.49865 2.83631e-24 1.03631)
(6.09773 -1.11301e-21 1.1498)
(5.66218 7.93823e-22 1.27042)
(5.19067 2.47868e-21 1.39635)
(4.6826 -2.6094e-21 1.52497)
(4.13837 -1.38706e-23 1.65283)
(3.55967 -9.54959e-22 1.77567)
(2.94978 1.50702e-21 1.8886)
(2.31378 5.2885e-22 1.9864)
(1.65883 2.76097e-22 2.06406)
(0.98906 -5.728e-22 2.11781)
(0.373706 -1.48245e-22 2.11799)
(9.99212 0 0.0630705)
(9.96268 1.09401e-23 0.134888)
(9.90088 5.89395e-26 0.206987)
(9.80748 7.24822e-22 0.269953)
(9.69108 -2.39095e-23 0.319836)
(9.55953 4.1551e-22 0.359006)
(9.41702 -8.12981e-22 0.392924)
(9.26512 -5.32569e-23 0.426848)
(9.10385 5.44911e-23 0.46447)
(8.93222 0 0.508035)
(8.74864 -2.69963e-24 0.558915)
(8.55119 -6.21751e-22 0.618067)
(8.33783 -3.93646e-22 0.686296)
(8.10636 2.6934e-22 0.764354)
(7.85448 1.43245e-22 0.85296)
(7.57979 3.03489e-22 0.952766)
(7.27975 -3.10727e-22 1.06428)
(6.95179 0 1.18779)
(6.59328 6.95419e-22 1.32321)
(6.20164 7.50326e-22 1.46997)
(5.77445 -1.54159e-21 1.62679)
(5.30962 -8.0083e-22 1.79157)
(4.80563 1.69421e-21 1.96113)
(4.26186 0 2.13115)
(3.67896 -9.54871e-22 2.29609)
(3.05932 9.63691e-22 2.4493)
(2.40752 0 2.58345)
(1.73102 0 2.69116)
(1.03309 -8.45582e-22 2.76653)
(0.3908 1.90093e-21 2.77108)
(9.99187 -1.35757e-21 0.0729705)
(9.96235 0 0.158932)
(9.90175 0 0.246969)
(9.81104 -7.12685e-22 0.324239)
(9.69823 2.24161e-25 0.385476)
(9.57074 -8.08529e-22 0.433516)
(9.43264 7.60982e-22 0.474958)
(9.28555 5.21571e-23 0.516174)
(9.12954 8.69852e-22 0.561671)
(8.9637 0 0.614222)
(8.78653 -4.7428e-22 0.675526)
(8.59623 4.94901e-22 0.74678)
(8.39084 -1.9283e-24 0.828993)
(8.16824 -6.07833e-24 0.923127)
(7.92616 -6.65021e-24 1.03012)
(7.66217 8.91002e-22 1.15087)
(7.37367 -6.12818e-22 1.28613)
(7.05788 0 1.43642)
(6.71186 3.49101e-22 1.60192)
(6.33252 7.42088e-22 1.78221)
(5.91676 1.92284e-23 1.97612)
(5.46152 1.60836e-21 2.18146)
(4.9641 -5.0193e-21 2.39471)
(4.42246 -3.60712e-24 2.61081)
(3.83574 0 2.82299)
(3.20491 -3.85328e-21 3.0227)
(2.53352 -3.0151e-23 3.20004)
(1.82911 2.09335e-21 3.34441)
(1.09385 0 3.44677)
(0.414839 8.58396e-22 3.45868)
(9.99186 1.35738e-21 0.0829951)
(9.96274 0 0.182531)
(9.90373 1.43976e-21 0.285765)
(9.81603 1.67521e-25 0.376783)
(9.70722 -7.74495e-22 0.448958)
(9.58433 -4.89014e-23 0.505521)
(9.45132 1.00653e-22 0.554169)
(9.30981 -1.56839e-22 0.602337)
(9.15993 -7.61078e-22 0.655313)
(9.00087 -1.13495e-22 0.71637)
(8.83126 1.04871e-21 0.787527)
(8.64942 4.85788e-22 0.870218)
(8.45349 0 0.965662)
(8.24145 5.29038e-22 1.07504)
(8.0111 2.81491e-22 1.19954)
(7.76004 -8.77426e-22 1.34033)
(7.48559 6.03008e-22 1.49848)
(7.18483 -4.89064e-22 1.67488)
(6.85449 6.62677e-22 1.87004)
(6.49097 0 2.08393)
(6.09037 7.31223e-22 2.31573)
(5.64854 -1.5687e-21 2.56342)
(5.1613 1.60738e-21 2.82349)
(4.62476 1.72134e-21 3.09045)
(4.03593 0 3.35645)
(3.39355 1.88973e-21 3.61101)
(2.69924 -3.90602e-21 3.84114)
(1.96 1.1004e-23 4.03194)
(1.17643 -2.14109e-21 4.16955)
(0.448193 1.93416e-21 4.19327)
(9.99201 0 0.0929113)
(9.96365 1.07908e-23 0.205504)
(9.90662 3.78596e-24 0.323216)
(9.82229 -2.26295e-23 0.427366)
(9.71792 7.50364e-22 0.510008)
(9.60017 0 0.574699)
(9.47288 -5.02522e-23 0.630172)
(9.33766 1.55562e-22 0.684882)
(9.19474 1.58423e-24 0.744858)
(9.0434 -2.22929e-22 0.813848)
(8.88241 -1.50439e-21 0.894182)
(8.71025 -1.43996e-21 0.987517)
(8.52519 4.94532e-24 1.09529)
(8.32535 -5.31239e-22 1.2189)
(8.10863 8.14979e-22 1.3598)
(7.8727 -5.79127e-22 1.51947)
(7.61489 5.92103e-22 1.69938)
(7.33216 -1.57895e-22 1.90084)
(7.02098 -6.63757e-22 2.12489)
(6.67727 -4.63131e-25 2.37211)
(6.29634 7.28904e-22 2.64227)
(5.87283 1.48911e-21 2.93396)
(5.40084 0 3.24412)
(4.87417 -4.06042e-23 3.56734)
(4.2869 1.70986e-21 3.89516)
(3.63443 1.82128e-21 4.21535)
(2.91499 -1.8622e-21 4.51145)
(2.13368 5.89405e-21 4.76294)
(1.28805 0 4.94865)
(0.49406 1.05632e-21 4.99156)
(9.99225 1.34174e-21 0.102565)
(9.96495 5.37869e-24 0.227674)
(9.91026 -1.41958e-21 0.359149)
(9.82967 2.26401e-23 0.47578)
(9.73016 -1.45781e-21 0.568361)
(9.61807 -4.77046e-23 0.640731)
(9.49709 0 0.702597)
(9.36884 0 0.763376)
(9.23363 7.38965e-22 0.829803)
(9.09088 1.09435e-22 0.906072)
(8.9395 1.15153e-21 0.994801)
(8.77814 -2.25245e-22 1.09786)
(8.60527 0 1.2169)
(8.41916 -7.80619e-22 1.35354)
(8.21789 -1.35386e-21 1.50951)
(7.99925 -5.68527e-22 1.68663)
(7.76066 1.17294e-21 1.88679)
(7.49907 -6.05712e-22 2.11185)
(7.2108 0 2.36353)
(6.89139 -6.75321e-22 2.64321)
(6.53543 1.38038e-21 2.95162)
(6.13639 -7.17729e-22 3.28845)
(5.68651 0 3.6517)
(5.17686 -1.61121e-21 4.03685)
(4.59775 0 4.4357)
(3.9397 0 4.835)
(3.19532 0 5.21493)
(2.3652 1.76869e-21 5.548)
(1.44074 0 5.80222)
(0.558325 -1.0427e-21 5.87767)
(9.99258 -1.33632e-21 0.111847)
(9.96654 1.35773e-21 0.248886)
(9.91451 1.36901e-21 0.393395)
(9.83804 2.23312e-23 0.521818)
(9.74381 2.99601e-21 0.623768)
(9.63784 -4.73254e-23 0.703324)
(9.52371 -1.56407e-21 0.771101)
(9.40304 -1.02174e-22 0.837427)
(9.27622 -7.40322e-22 0.90969)
(9.14283 1.09781e-22 0.992506)
(9.00195 -1.01115e-21 1.08876)
(8.85243 2.48685e-22 1.20052)
(8.69293 -2.42009e-22 1.32961)
(8.52197 7.50967e-22 1.47788)
(8.33784 8.04039e-22 1.64734)
(8.13855 -5.34734e-22 1.84015)
(7.92171 -1.18539e-23 2.05867)
(7.68438 5.90959e-22 2.30536)
(7.42293 0 2.58274)
(7.13271 0 2.89322)
(6.80783 3.31756e-22 3.23885)
(6.44076 1.40159e-21 3.62094)
(6.02196 0 4.03938)
(5.53957 0 4.49169)
(4.97932 3.17686e-21 4.97141)
(4.32512 -6.44564e-21 5.46591)
(3.5607 0 5.9533)
(2.67752 -6.20776e-23 6.39857)
(1.65448 -3.67708e-21 6.75436)
(0.651599 3.87098e-21 6.88581)
(9.99295 0 0.120675)
(9.96837 -1.35733e-21 0.269005)
(9.91929 -1.3902e-21 0.425792)
(9.84727 0 0.565287)
(9.75869 -1.12224e-23 0.675997)
(9.65929 -1.54847e-21 0.762209)
(9.55248 3.15931e-21 0.835379)
(9.43992 1.7005e-21 0.90668)
(9.3221 -1.03315e-22 0.984114)
(9.19875 9.64011e-22 1.07268)
(9.06914 7.86628e-22 1.17549)
(8.93234 9.31155e-22 1.29481)
(8.78727 0 1.43261)
(8.63271 -1.00462e-21 1.59095)
(8.46724 1.54739e-21 1.77207)
(8.28918 5.42945e-22 1.97849)
(8.09645 -1.12827e-21 2.21302)
(7.88644 1.14813e-21 2.47877)
(7.65574 0 2.77913)
(7.39986 3.0777e-22 3.11771)
(7.11279 -2.89735e-22 3.49819)
(6.78646 6.69881e-22 3.92405)
(6.40999 1.89222e-23 4.398)
(5.9688 -2.8307e-21 4.92106)
(5.44376 -4.42712e-21 5.49078)
(4.81051 9.27774e-21 6.09826)
(4.03975 -3.15209e-21 6.72311)
(3.10606 0 7.32514)
(1.96257 0 7.83792)
(0.79281 -6.80631e-21 8.07111)
(9.99338 0 0.128986)
(9.97039 0 0.287918)
(9.9245 0 0.456195)
(9.85724 -2.21148e-23 0.606014)
(9.77465 -2.87755e-21 0.724841)
(9.68218 1.49975e-21 0.817148)
(9.58312 -3.07921e-21 0.89516)
(9.47914 -1.59755e-21 0.970831)
(9.37083 0 1.05272)
(9.25807 8.33464e-22 1.14618)
(9.14038 8.72824e-22 1.25453)
(9.01704 0 1.38017)
(8.88727 6.97442e-22 1.52521)
(8.75016 -7.2547e-22 1.69188)
(8.60464 -5.12195e-22 1.88261)
(8.44945 7.98968e-24 2.10023)
(8.28295 -1.08746e-21 2.34799)
(8.10303 5.31579e-22 2.62959)
(7.90683 5.78494e-22 2.94931)
(7.69039 2.85714e-22 3.31203)
(7.44817 -3.95685e-23 3.72326)
(7.17229 0 4.18906)
(6.85148 0 4.71587)
(6.46952 2.74073e-21 5.30983)
(6.00313 2.14344e-21 5.97545)
(5.41928 -2.81982e-21 6.7125)
(4.67164 -1.36402e-21 7.5098)
(3.70676 0 8.33145)
(2.4261 0 9.09643)
(1.02158 6.6599e-21 9.53018)
(9.99383 0 0.136729)
(9.97256 0 0.305531)
(9.93007 1.35829e-21 0.484477)
(9.86781 1.39258e-21 0.643843)
(9.79151 1.26709e-23 0.77012)
(9.70629 4.63912e-23 0.867936)
(9.61534 1.48332e-21 0.950215)
(9.52031 9.86777e-23 1.02962)
(9.42191 -1.00844e-22 1.11523)
(9.32022 -1.68547e-21 1.21269)
(9.21494 -2.37173e-21 1.32549)
(9.10565 6.65058e-22 1.45614)
(8.99185 -9.33022e-22 1.60686)
(8.87299 1.84395e-23 1.77996)
(8.74843 0 1.97806)
(8.61739 4.95677e-22 2.20419)
(8.47883 5.24938e-22 2.46195)
(8.33133 -1.10605e-21 2.75556)
(8.17289 5.64793e-22 3.0901)
(8.00056 -2.29872e-21 3.47161)
(7.80995 0 3.9074)
(7.59445 -1.21652e-21 4.40631)
(7.34395 1.23768e-21 4.979)
(7.04278 6.07066e-22 5.63812)
(6.66635 6.58299e-22 6.39816)
(6.17564 -2.21397e-21 7.27406)
(5.50712 3.82322e-21 8.27675)
(4.568 -2.75789e-21 9.3986)
(3.16216 1.45088e-21 10.5787)
(1.4267 -8.68533e-21 11.4479)
(9.99432 -2.57794e-21 0.143865)
(9.97485 0 0.321766)
(9.93592 -1.35773e-21 0.510532)
(9.87888 -1.39179e-21 0.678647)
(9.8091 1.32889e-23 0.811689)
(9.7314 -1.50136e-21 0.914411)
(9.64882 -1.40348e-21 1.00037)
(9.56304 -1.59057e-21 1.08286)
(9.47488 1.00464e-22 1.17142)
(9.38456 -1.74102e-21 1.27195)
(9.29206 1.92938e-21 1.38809)
(9.1972 -1.10442e-21 1.52241)
(9.09982 2.02483e-21 1.67716)
(8.99976 -2.13633e-22 1.85471)
(8.89682 4.85314e-22 2.05776)
(8.7908 -2.00269e-21 2.28948)
(8.68135 1.02472e-21 2.55365)
(8.56795 -1.05362e-21 2.85488)
(8.44973 5.3886e-22 3.19879)
(8.32519 1.12911e-21 3.59234)
(8.19189 -1.10361e-21 4.04434)
(8.04571 0 4.56603)
(7.87976 -2.27123e-21 5.1721)
(7.68236 5.66249e-22 5.88198)
(7.43326 -1.12499e-21 6.72185)
(7.09633 8.43817e-22 7.72734)
(6.60263 7.20394e-23 8.94707)
(5.82539 2.76063e-22 10.4444)
(4.40984 2.75068e-21 12.2946)
(2.22516 6.57746e-21 14.2629)
(9.99482 2.57771e-21 0.150364)
(9.97723 -2.60963e-21 0.336561)
(9.94198 0 0.534263)
(9.89033 -1.36613e-21 0.710298)
(9.82725 1.41512e-21 0.849391)
(9.75727 1.51848e-23 0.956397)
(9.68327 1.54299e-21 1.04542)
(9.60695 -2.89549e-23 1.13034)
(9.52921 0 1.22108)
(9.45048 1.53436e-21 1.32375)
(9.37094 1.76464e-21 1.44209)
(9.29073 0 1.57869)
(9.20998 -1.7937e-21 1.7358)
(9.12894 6.94715e-22 1.91578)
(9.04791 2.34306e-22 2.12129)
(8.96728 0 2.35553)
(8.88748 0 2.62233)
(8.80899 -1.00036e-21 2.9264)
(8.73228 0 3.2736)
(8.65771 -5.2809e-22 3.67137)
(8.58535 1.63492e-21 4.12932)
(8.51475 -2.09739e-21 4.6602)
(8.44437 1.11315e-21 5.28139)
(8.37053 1.0358e-21 6.01737)
(8.28533 -1.04799e-21 6.90403)
(8.172 8.9805e-22 7.99664)
(7.99168 -9.04635e-22 9.38646)
(7.65978 0 11.2412)
(6.73102 1.86526e-22 13.9724)
(4.05024 1.73201e-20 19.0918)
(0.0501252 0 -0.0474717)
(0.105195 -8.02868e-22 -0.0604411)
(0.214978 7.62617e-22 -0.0796727)
(0.378952 6.9145e-22 -0.105965)
(0.609543 -6.72754e-22 -0.136127)
(0.914554 2.98003e-22 -0.166175)
(1.29324 -1.39625e-22 -0.192373)
(1.73704 -1.22605e-22 -0.212001)
(2.2318 6.09143e-24 -0.223692)
(2.76044 9.24731e-23 -0.22736)
(3.3055 -7.3796e-23 -0.22387)
(3.85094 0 -0.214632)
(4.38336 2.43344e-23 -0.201248)
(4.89245 -4.55679e-23 -0.185249)
(5.37101 0 -0.167949)
(5.81462 0 -0.150376)
(6.22113 1.23721e-23 -0.133271)
(6.59012 -5.81181e-24 -0.117119)
(6.92241 0 -0.102203)
(7.21966 9.25419e-24 -0.0886481)
(7.48397 9.37671e-24 -0.076469)
(7.71768 1.18173e-23 -0.06561)
(7.92314 4.91547e-25 -0.0559708)
(8.10263 -7.45006e-24 -0.0474282)
(8.25823 5.56465e-24 -0.039849)
(8.39178 0 -0.0330992)
(8.50485 4.21999e-26 -0.0270487)
(8.5987 -4.12419e-26 -0.0215739)
(8.67429 0 -0.0165604)
(8.74241 -5.74484e-25 -0.0120069)
(0.0419005 6.6623e-21 -0.0792834)
(0.0845718 -5.28424e-21 -0.122009)
(0.185062 -1.14869e-21 -0.182429)
(0.344832 0 -0.263838)
(0.57834 -6.36496e-22 -0.356523)
(0.893238 2.08084e-23 -0.448481)
(1.28724 2.64519e-22 -0.528698)
(1.74949 0 -0.589411)
(2.26361 -1.00679e-22 -0.626914)
(2.8108 -1.62205e-22 -0.641164)
(3.37252 -2.31333e-22 -0.634729)
(3.9323 0 -0.611634)
(4.47672 0 -0.576381)
(4.99573 6.23105e-23 -0.533261)
(5.48247 -4.85702e-23 -0.485952)
(5.9329 0 -0.437358)
(6.34517 6.3564e-24 -0.389601)
(6.71913 0 -0.344109)
(7.05581 0 -0.301745)
(7.35697 7.44783e-24 -0.262939)
(7.62483 -1.24908e-23 -0.227809)
(7.86176 -7.98075e-24 -0.196261)
(8.07018 -3.7662e-25 -0.168069)
(8.25237 -9.61616e-24 -0.142927)
(8.41042 6.91339e-24 -0.120493)
(8.5462 -6.08657e-25 -0.100408)
(8.66128 0 -0.0823179)
(8.75694 0 -0.0658768)
(8.83409 0 -0.0507618)
(8.90352 -5.6906e-25 -0.0367666)
(0.0197799 -3.39181e-21 -0.103319)
(0.0232817 2.91314e-21 -0.179161)
(0.0929275 3.86914e-22 -0.288671)
(0.233437 3.70739e-22 -0.435594)
(0.462827 0 -0.601456)
(0.788015 9.11434e-22 -0.76417)
(1.203 -5.1019e-22 -0.903913)
(1.6918 2.18819e-23 -1.00755)
(2.23325 0 -1.06957)
(2.80506 -3.23839e-22 -1.09093)
(3.38674 -1.68369e-22 -1.07685)
(3.96116 1.14859e-22 -1.03478)
(4.5151 -2.14999e-22 -0.972682)
(5.03927 3.72888e-23 -0.897946)
(5.52777 -6.93197e-23 -0.816776)
(5.9775 -2.43678e-23 -0.733987)
(6.38745 -8.79981e-24 -0.653044)
(6.75815 2.29776e-23 -0.576239)
(7.09112 -3.53937e-23 -0.504926)
(7.38848 -1.48931e-23 -0.439747)
(7.65267 -1.89662e-23 -0.380842)
(7.88621 -5.60828e-24 -0.328012)
(8.09159 1.94634e-24 -0.280846)
(8.27111 -1.55708e-23 -0.238815)
(8.42687 -3.30293e-23 -0.20133)
(8.56071 0 -0.167785)
(8.67418 1.29115e-23 -0.137581)
(8.76852 -3.27058e-25 -0.110133)
(8.84463 9.41018e-24 -0.0848824)
(8.91318 -1.10526e-24 -0.061335)
(-0.0167917 -4.40668e-21 -0.073938)
(-0.0783102 1.71686e-21 -0.190725)
(-0.0592879 0 -0.362536)
(0.0505566 -3.70668e-22 -0.592525)
(0.275311 0 -0.848409)
(0.619978 -1.79154e-21 -1.09564)
(1.07134 2.1795e-21 -1.30293)
(1.60418 3.62141e-22 -1.45161)
(2.18945 -8.67311e-22 -1.53592)
(2.79964 0 -1.55967)
(3.41162 -2.92659e-22 -1.53239)
(4.00764 -2.28122e-22 -1.46602)
(4.57519 3.24618e-22 -1.37262)
(5.10632 2.09738e-25 -1.26289)
(5.59672 1.78294e-23 -1.14556)
(6.04478 -3.75296e-24 -1.02718)
(6.45078 0 -0.91237)
(6.81623 -1.95092e-23 -0.804075)
(7.14339 5.433e-23 -0.703962)
(7.43489 0 -0.612755)
(7.69349 2.4649e-23 -0.530513)
(7.92189 0 -0.456867)
(8.12267 -3.34334e-23 -0.391183)
(8.29816 2.59184e-23 -0.332682)
(8.45047 2.34642e-23 -0.280521)
(8.58139 -1.68445e-23 -0.233843)
(8.69244 -1.22345e-23 -0.191806)
(8.78482 -3.24033e-25 -0.153592)
(8.85937 -9.42811e-24 -0.118409)
(8.92659 4.5191e-24 -0.0855194)
(-0.0733186 1.85491e-21 0.0408706)
(-0.234273 -1.87054e-21 -0.130637)
(-0.290871 1.70726e-21 -0.386157)
(-0.22643 0 -0.728261)
(-0.00372396 0 -1.10471)
(0.375866 1.30478e-21 -1.45773)
(0.886044 0 -1.74436)
(1.48617 0 -1.94034)
(2.13539 8.30336e-22 -2.04248)
(2.79941 0 -2.06081)
(3.45237 5.82586e-22 -2.01158)
(4.07652 -4.6957e-22 -1.9128)
(4.66093 2.20216e-22 -1.78138)
(5.19993 3.02168e-25 -1.63157)
(5.69155 -1.77333e-23 -1.47449)
(6.13632 0 -1.31824)
(6.53625 0 -1.16825)
(6.89415 0 -1.02786)
(7.21321 -3.44352e-23 -0.898817)
(7.49668 -1.34672e-23 -0.781744)
(7.7477 1.94278e-24 -0.676499)
(7.9692 5.09489e-23 -0.582449)
(8.16384 6.63258e-23 -0.498683)
(8.33398 -2.98922e-23 -0.424137)
(8.4817 4.58381e-23 -0.357698)
(8.60875 1.68263e-23 -0.298248)
(8.7166 -6.5425e-25 -0.244702)
(8.80639 6.39819e-25 -0.196009)
(8.87891 9.24166e-24 -0.151153)
(8.94437 -2.29317e-24 -0.109174)
(-0.159345 1.87986e-21 0.286251)
(-0.466651 -1.77914e-21 0.0363607)
(-0.631517 0 -0.3357)
(-0.630309 0 -0.834953)
(-0.405569 0 -1.37619)
(0.0386068 -1.30001e-21 -1.8722)
(0.640878 -1.18324e-21 -2.25106)
(1.33928 9.24195e-22 -2.49398)
(2.07708 -1.71836e-21 -2.60474)
(2.81205 6.48389e-22 -2.6048)
(3.51653 3.39931e-22 -2.52058)
(4.17422 2.41563e-22 -2.37801)
(4.77729 0 -2.19959)
(5.32361 2.38236e-22 -2.00318)
(5.81457 -1.51088e-22 -1.80201)
(6.25349 0 -1.60524)
(6.64455 4.81716e-23 -1.41868)
(6.99213 -4.03405e-23 -1.24567)
(7.30051 2.65007e-24 -1.08774)
(7.57363 8.75607e-23 -0.945184)
(7.81502 0 -0.817485)
(8.02782 -3.07629e-23 -0.703652)
(8.21478 2.29194e-23 -0.602427)
(8.37827 7.94788e-23 -0.51243)
(8.52031 -8.48592e-23 -0.432253)
(8.64258 -3.17106e-23 -0.360515)
(8.74648 -8.84249e-25 -0.295888)
(8.83308 -1.62704e-23 -0.237094)
(8.90309 -9.23542e-24 -0.182905)
(8.9664 4.37829e-26 -0.132151)
(-0.289819 -2.02412e-21 0.726705)
(-0.808831 -1.4911e-21 0.361654)
(-1.12071 9.86779e-22 -0.180128)
(-1.20367 1.81526e-21 -0.905648)
(-0.959799 1.5026e-21 -1.68183)
(-0.412978 -2.90895e-21 -2.36701)
(0.338099 1.28947e-21 -2.85828)
(1.17163 -8.97447e-22 -3.13915)
(2.02629 9.15123e-22 -3.2412)
(2.84981 0 -3.20291)
(3.61495 0 -3.0652)
(4.30941 0 -2.86376)
(4.93063 0 -2.62708)
(5.48169 -1.72876e-22 -2.37633)
(5.96846 1.48446e-22 -2.12616)
(6.39777 0 -1.88606)
(6.77634 -8.28012e-25 -1.66164)
(7.11033 4.01843e-23 -1.45569)
(7.40514 0 -1.26915)
(7.6654 -6.94187e-23 -1.10171)
(7.89503 1.26962e-23 -0.952317)
(8.09735 0 -0.819511)
(8.27512 -1.28028e-22 -0.701617)
(8.43069 1.94941e-24 -0.596901)
(8.56599 3.67901e-23 -0.503648)
(8.68261 3.48632e-23 -0.42021)
(8.78185 0 -0.345019)
(8.86468 1.60602e-23 -0.276582)
(8.93175 1.93532e-25 -0.213468)
(8.99251 -4.30909e-24 -0.154313)
(-0.488275 0 1.44858)
(-1.29776 6.13793e-22 0.909531)
(-1.7951 -9.80261e-22 0.112923)
(-1.97286 -1.79534e-21 -0.941249)
(-1.67014 3.19601e-21 -2.05791)
(-0.9647 -1.68423e-21 -2.99301)
(-0.00081718 -2.54597e-21 -3.61128)
(1.0098 2.00727e-21 -3.90848)
(2.0064 -1.44436e-22 -3.97152)
(2.93257 -7.73745e-22 -3.8653)
(3.76321 0 -3.64918)
(4.49348 0 -3.36992)
(5.12875 0 -3.06172)
(5.67914 1.28588e-22 -2.74802)
(6.15613 -1.785e-22 -2.44379)
(6.57062 1.58228e-22 -2.15781)
(6.93216 -5.59235e-23 -1.89457)
(7.2487 0 -1.65574)
(7.52674 6.45345e-23 -1.44123)
(7.77151 0 -1.24983)
(7.98721 9.03208e-23 -1.07979)
(8.17725 8.38295e-23 -0.929044)
(8.34436 1.16599e-22 -0.795455)
(8.49079 -1.01886e-22 -0.676904)
(8.61835 4.02021e-23 -0.571363)
(8.72851 1.73194e-24 -0.476916)
(8.82241 -1.69456e-24 -0.391767)
(8.90095 0 -0.314218)
(8.96466 0 -0.242651)
(9.02252 4.30696e-24 -0.175527)
(-0.783954 0 2.54759)
(-1.94422 -1.10693e-21 1.74277)
(-2.64808 0 0.56079)
(-2.87293 0 -0.979654)
(-2.44074 3.4651e-21 -2.57308)
(-1.51377 -3.76487e-21 -3.82)
(-0.300485 -1.60172e-21 -4.55701)
(0.915625 0 -4.83204)
(2.06225 0 -4.81027)
(3.09235 0 -4.59683)
(3.9835 0 -4.27163)
(4.74115 0 -3.89261)
(5.38089 5.93165e-24 -3.49851)
(5.92135 1.45266e-22 -3.11327)
(6.38039 -1.09264e-22 -2.75045)
(6.77324 -5.47338e-23 -2.4167)
(7.11222 -9.15208e-23 -2.11441)
(7.40692 3.52263e-23 -1.84339)
(7.66472 -9.88037e-23 -1.60205)
(7.89125 0 -1.38804)
(8.09085 -2.22608e-24 -1.1987)
(8.26686 -7.49147e-23 -1.0313)
(8.42192 -8.56131e-24 -0.883179)
(8.55807 5.71305e-23 -0.751832)
(8.67697 -4.01496e-23 -0.634912)
(8.7799 0 -0.530248)
(8.86786 4.40547e-23 -0.435827)
(8.94161 3.1116e-23 -0.349769)
(9.00159 -3.68e-25 -0.270283)
(9.0562 0 -0.195672)
(-1.17342 1.07845e-20 4.09458)
(-2.64866 -5.09659e-21 2.86539)
(-3.50415 0 1.09696)
(-3.64439 4.48187e-21 -1.13313)
(-2.99808 -8.13751e-21 -3.31885)
(-1.82743 1.02798e-20 -4.89713)
(-0.390617 -1.63198e-21 -5.71461)
(0.99838 0 -5.91226)
(2.26845 0 -5.75304)
(3.37726 3.65033e-22 -5.3892)
(4.30598 -6.66994e-22 -4.92255)
(5.0706 5.10958e-22 -4.42181)
(5.69739 -5.88044e-24 -3.9284)
(6.21373 0 -3.46448)
(6.64363 0 -3.04005)
(7.00628 0 -2.65804)
(7.31623 4.08065e-23 -2.31759)
(7.58425 1.05234e-22 -2.01595)
(7.81816 1.50414e-22 -1.7496)
(8.02369 -5.20832e-23 -1.5148)
(8.20507 -1.3938e-22 -1.30787)
(8.36541 -8.89203e-23 -1.12536)
(8.5071 6.39283e-24 -0.964077)
(8.63194 -5.02288e-23 -0.821123)
(8.74133 2.68148e-24 -0.693851)
(8.83636 0 -0.579853)
(8.91784 -1.38064e-24 -0.476925)
(8.98636 -5.89472e-23 -0.38302)
(9.04226 -2.75597e-25 -0.296201)
(9.09333 -7.95474e-26 -0.214636)
(-1.53565 -5.23545e-21 5.99972)
(-3.12208 6.49853e-21 4.11083)
(-3.95099 -1.16499e-20 1.5162)
(-3.81122 0 -1.55105)
(-2.92119 0 -4.33558)
(-1.5774 2.10313e-21 -6.19049)
(-0.0387015 -1.50534e-21 -7.02417)
(1.40737 -4.65231e-22 -7.09649)
(2.72426 -2.60148e-22 -6.76057)
(3.84875 4.63842e-22 -6.21157)
(4.76687 7.82782e-22 -5.57757)
(5.50193 -1.1255e-22 -4.93853)
(6.08852 -9.03648e-23 -4.33695)
(6.56079 -1.47146e-22 -3.79092)
(6.9472 -7.62958e-24 -3.3048)
(7.26945 -1.11284e-22 -2.87624)
(7.54317 0 -2.50012)
(7.77938 -2.8508e-22 -2.17056)
(7.98574 -9.35902e-23 -1.88181)
(8.16761 -2.72022e-23 -1.6286)
(8.32878 8.50279e-23 -1.40618)
(8.47196 1.47193e-22 -1.21038)
(8.59912 -6.61333e-23 -1.0375)
(8.71173 1.39173e-22 -0.884276)
(8.81089 0 -0.747786)
(8.89742 0 -0.625423)
(8.97194 -8.4892e-23 -0.514817)
(9.03486 2.9512e-23 -0.413784)
(9.08638 -3.44788e-25 -0.320267)
(9.13363 0 -0.232317)
(-1.65452 -1.29113e-20 7.90367)
(-2.99607 -1.34105e-20 5.14878)
(-3.4641 -6.88275e-22 1.58041)
(-2.84949 -4.69119e-22 -2.29264)
(-1.81324 -5.81378e-21 -5.55085)
(-0.472669 -2.0848e-21 -7.55867)
(0.94739 1.53327e-21 -8.33733)
(2.29696 -2.09984e-21 -8.27587)
(3.53009 4.71931e-22 -7.75238)
(4.56806 0 -7.00523)
(5.40031 -1.4045e-22 -6.19457)
(6.05225 -7.15426e-23 -5.41312)
(6.56153 3.225e-22 -4.70365)
(6.9645 3.15104e-22 -4.07862)
(7.29053 2.50729e-22 -3.53529)
(7.56111 9.12554e-23 -3.06498)
(7.79108 -8.95439e-23 -2.65776)
(7.9904 1.07944e-22 -2.30435)
(8.16574 3.13462e-23 -1.99672)
(8.32151 2.24316e-23 -1.72805)
(8.46072 5.74309e-23 -1.49264)
(8.58544 -1.42056e-22 -1.28564)
(8.69709 7.58173e-24 -1.1029)
(8.79671 -8.90679e-23 -0.940862)
(8.88503 -4.51197e-24 -0.796383)
(8.96258 1.96816e-24 -0.666693)
(9.02975 4.1121e-23 -0.549296)
(9.08674 5.29374e-25 -0.441901)
(9.13364 3.79403e-26 -0.342357)
(9.17686 -7.67087e-24 -0.248629)
(-1.42209 3.03098e-20 9.3597)
(-2.09342 1.09984e-20 5.84525)
(-1.54854 7.64371e-21 1.38244)
(-0.468841 -7.78833e-21 -3.18797)
(0.52002 0 -6.80608)
(1.56961 -4.33653e-21 -8.75268)
(2.68331 4.14598e-21 -9.47441)
(3.77021 1.16677e-21 -9.30579)
(4.75183 -1.13916e-21 -8.61402)
(5.57268 -6.44778e-22 -7.68641)
(6.22378 -4.95732e-22 -6.71534)
(6.72708 -2.17248e-22 -5.80659)
(7.1158 0 -5.0031)
(7.42171 -1.41341e-22 -4.31131)
(7.6698 -2.25356e-22 -3.72118)
(7.87763 8.79078e-23 -3.21771)
(8.05681 6.93e-23 -2.78632)
(8.21472 -1.30214e-22 -2.4146)
(8.35602 -1.09109e-22 -2.0925)
(8.48367 0 -1.81194)
(8.5995 -7.02529e-23 -1.56639)
(8.70471 6.44795e-23 -1.35051)
(8.80009 -7.29154e-24 -1.15982)
(8.88611 0 -0.990535)
(8.96312 -1.92921e-24 -0.839374)
(9.03132 1.88931e-24 -0.703455)
(9.09081 -3.83308e-23 -0.580198)
(9.14164 2.5837e-23 -0.467241)
(9.18371 3.64644e-26 -0.362373)
(9.2227 7.59407e-24 -0.263498)
(-0.877458 -3.02749e-20 10.3253)
(0.183799 1.30243e-20 5.51093)
(2.02751 -9.07408e-21 0.65518)
(3.09168 -5.55064e-24 -3.9995)
(3.80765 2.96541e-21 -7.54225)
(4.50915 -3.1075e-21 -9.58023)
(5.18869 -5.21349e-22 -10.2824)
(5.81902 -1.40032e-21 -10.0293)
(6.37896 1.13838e-21 -9.21543)
(6.84746 0 -8.15889)
(7.22016 0 -7.07401)
(7.50996 -5.99556e-22 -6.0763)
(7.73722 -1.4024e-22 -5.20874)
(7.92122 1.23256e-22 -4.47288)
(8.07654 1.02801e-22 -3.8528)
(8.21279 0 -3.32859)
(8.33583 -1.90331e-22 -2.88222)
(8.44901 3.95967e-23 -2.49906)
(8.55415 2.13379e-22 -2.1677)
(8.65223 0 -1.87926)
(8.74369 0 -1.62673)
(8.82868 7.1288e-24 -1.40447)
(8.90722 -1.28185e-23 -1.20786)
(8.97922 5.71423e-24 -1.03299)
(9.04457 -6.43544e-23 -0.876515)
(9.10312 0 -0.735511)
(9.15472 7.48148e-23 -0.607363)
(9.19918 -5.02634e-23 -0.48968)
(9.23627 2.72723e-23 -0.38022)
(9.27088 -3.41845e-26 -0.276852)
(0.544308 2.11347e-21 8.43127)
(3.65462 2.13732e-21 3.91103)
(6.1674 2.3109e-20 -0.341624)
(7.34254 1.15605e-20 -4.74129)
(7.87683 -5.98654e-22 -8.11686)
(8.14814 4.36238e-21 -10.0196)
(8.25238 3.44164e-21 -10.6276)
(8.27618 2.31298e-21 -10.3087)
(8.28457 -2.00241e-21 -9.44036)
(8.29985 0 -8.33617)
(8.32379 0 -7.21228)
(8.35549 4.0713e-22 -6.1859)
(8.39505 1.7882e-22 -5.29919)
(8.4425 -1.09524e-22 -4.55125)
(8.49711 0 -3.92348)
(8.5575 -1.3103e-22 -3.394)
(8.62204 -6.01255e-24 -2.9435)
(8.68912 9.13077e-23 -2.55668)
(8.75727 -8.06333e-23 -2.22176)
(8.82522 -2.32337e-23 -1.92972)
(8.89188 0 -1.6735)
(8.95633 -6.80325e-24 -1.44747)
(9.01775 1.10795e-24 -1.24699)
(9.07549 5.44967e-24 -1.06821)
(9.12897 1.23675e-22 -0.907799)
(9.17768 1.71937e-24 -0.762856)
(9.2212 -3.64868e-23 -0.630783)
(9.25913 7.12105e-23 -0.509201)
(9.2911 -2.73398e-23 -0.395874)
(9.32119 -3.26046e-26 -0.28867)
(9.99535 2.43906e-21 0.156311)
(9.97972 -2.33918e-23 0.350134)
(9.94833 -2.5548e-21 0.556053)
(9.90231 -1.27903e-21 0.739337)
(9.84625 0 0.883896)
(9.78433 2.75594e-21 0.994652)
(9.71927 4.43918e-23 1.08621)
(9.65277 1.32875e-21 1.17294)
(9.58585 1.67379e-21 1.2651)
(9.51912 -1.62425e-21 1.36901)
(9.45298 -1.59835e-21 1.48845)
(9.38785 -1.61452e-21 1.62597)
(9.32422 0 1.78378)
(9.26273 1.70182e-21 1.96413)
(9.20419 1.523e-21 2.16956)
(9.14962 2.01116e-21 2.40314)
(9.10028 0 2.66856)
(9.05772 -1.36716e-21 2.97035)
(9.02389 4.8082e-22 3.3142)
(9.00119 4.84008e-22 3.70736)
(8.99266 -6.78517e-24 4.15931)
(9.00227 2.50634e-21 4.68273)
(9.03536 0 5.29519)
(9.09953 -8.96898e-22 6.02189)
(9.20657 1.72653e-21 6.90069)
(9.37754 -3.34423e-21 7.99174)
(9.65764 -3.46205e-22 9.39709)
(10.2254 -8.88766e-24 11.2978)
(11.9019 8.7209e-24 14.0042)
(13.6113 -9.02492e-21 18.6486)
(9.99589 -2.38028e-21 0.161708)
(9.98232 -3.00742e-23 0.36246)
(9.95494 -2.47958e-21 0.575824)
(9.91478 2.55278e-21 0.765621)
(9.86598 1.27839e-21 0.914997)
(9.81237 -1.33733e-21 1.02892)
(9.75651 4.27596e-23 1.1224)
(9.7001 -1.43528e-21 1.21028)
(9.64423 -1.45068e-21 1.30308)
(9.58968 2.46589e-23 1.40726)
(9.53709 -1.50514e-21 1.5266)
(9.48714 1.57511e-21 1.66361)
(9.44066 0 1.82034)
(9.39866 -2.45307e-22 1.99886)
(9.36245 -1.49184e-21 2.20153)
(9.33364 -1.7409e-21 2.43109)
(9.31428 -1.71924e-21 2.69087)
(9.30696 5.09264e-22 2.98495)
(9.315 -3.64556e-24 3.31835)
(9.34277 -9.02925e-22 3.69744)
(9.39611 4.55503e-22 4.13039)
(9.48313 0 4.62795)
(9.61562 0 5.20455)
(9.81161 1.57988e-21 5.88005)
(10.1006 0 6.6823)
(10.5352 3.0467e-21 7.6505)
(11.2082 -3.41323e-22 8.83795)
(12.2498 7.11605e-23 10.3062)
(14.1411 0 11.9883)
(16.4024 -4.65278e-21 13.2698)
(9.99646 0 0.166462)
(9.985 -2.34995e-21 0.373355)
(9.96177 2.37459e-21 0.593315)
(9.92763 0 0.788836)
(9.88629 -1.25782e-21 0.94235)
(9.8412 -2.00634e-23 1.05883)
(9.79474 -2.06617e-23 1.15364)
(9.74858 6.21092e-23 1.24198)
(9.70389 8.66398e-23 1.33464)
(9.66161 -1.52408e-22 1.43811)
(9.62258 3.0002e-21 1.55618)
(9.58774 -9.33199e-23 1.69123)
(9.55819 2.86215e-22 1.84512)
(9.53531 -1.77521e-21 2.01967)
(9.52082 -1.99023e-22 2.21691)
(9.51686 3.96907e-25 2.43916)
(9.52613 1.88295e-21 2.68917)
(9.55209 1.70014e-21 2.97026)
(9.59917 1.64303e-21 3.28638)
(9.67323 0 3.64239)
(9.78213 1.62079e-21 4.04419)
(9.93674 3.97488e-22 4.499)
(10.1525 -4.02762e-22 5.01558)
(10.4521 -1.53946e-21 5.60413)
(10.8691 0 6.27531)
(11.4535 0 7.03641)
(12.2768 -7.18704e-22 7.88021)
(13.3926 -8.97265e-25 8.76592)
(14.9876 -1.07624e-23 9.59048)
(17.3043 -1.17647e-21 9.95308)
(9.99704 0 0.170514)
(9.98774 0 0.382675)
(9.96873 -2.31841e-21 0.608291)
(9.94074 0 0.808664)
(9.90699 2.39569e-21 0.965568)
(9.87055 0 1.08395)