/*--------------------------------*- C++ -*----------------------------------*\
| =========                 |                                                 |
| \\      /  F ield         | OpenFOAM: The Open Source CFD Toolbox           |
|  \\    /   O peration     | Version:  dev                                   |
|   \\  /    A nd           | Web:      www.OpenFOAM.org                      |
|    \\/     M anipulation  |                                                 |
\*---------------------------------------------------------------------------*/
FoamFile
{
    version     2.0;
    format      ascii;
    class       surfaceVectorField;
    location    "0.93";
    object      Uf;
}
// * * * * * * * * * * * * * * * * * * * * * * * * * * * * * * * * * * * * * //

dimensions      [0 1 -1 0 0 0 0];

internalField   nonuniform List<vector> 
882
(
(9.74855 -2.40863e-19 4.65014)
(9.92353 -3.70429e-21 4.82672)
(10.0005 -4.32833e-19 4.59678)
(10.0275 0 5.22472)
(10.1003 -2.12338e-19 4.97332)
(10.2264 -2.11366e-19 5.36307)
(10.1789 -6.47447e-19 4.74701)
(10.2384 -2.31865e-19 4.51868)
(10.3014 -4.29049e-19 5.11598)
(10.3558 -9.64334e-21 4.86904)
(10.4504 -4.26542e-19 5.4936)
(10.4974 -9.22817e-21 5.22791)
(10.6282 -6.40271e-19 5.87525)
(10.665 -1.09985e-19 5.59153)
(10.8598 8.01067e-20 5.95496)
(10.4174 4.21834e-19 4.64421)
(10.4609 1.55361e-20 4.41898)
(10.5546 4.2094e-19 4.98496)
(10.5925 2.13386e-19 4.74365)
(10.7154 3.15397e-19 5.33035)
(10.7458 2.12659e-19 5.07326)
(10.9012 6.28686e-19 5.67622)
(10.9221 1.07895e-19 5.40433)
(11.1119 2.99235e-19 6.0177)
(11.1215 3.23601e-19 5.7327)
(11.3469 4.59945e-21 6.34926)
(11.3438 -2.07877e-19 6.05392)
(11.5879 1.2012e-20 6.36302)
(10.6385 -1.98183e-19 4.52166)
(10.6672 -2.0046e-19 4.30056)
(10.7869 0 4.83549)
(10.81 -1.43846e-19 4.60048)
(10.9564 0 5.15104)
(10.9722 -4.86404e-20 4.90266)
(11.1473 -2.04156e-19 5.46472)
(11.1543 0 5.204)
(11.3593 -1.98047e-19 5.7726)
(11.3563 -3.94082e-19 5.50108)
(11.5913 -1.9894e-19 6.07064)
(11.5773 1.89589e-19 5.79033)
(11.8413 3.9368e-19 6.35464)
(11.8162 -3.80528e-19 6.06818)
(12.1059 5.55823e-19 6.622)
(12.0674 1.14425e-18 6.33081)
(12.3616 -2.90934e-20 6.57798)
(12.3854 7.77116e-20 6.8312)
(10.8416 -1.44745e-19 4.38225)
(10.857 1.90276e-19 4.16595)
(10.9986 -1.93534e-19 4.67067)
(11.0083 1.3299e-19 4.44226)
(11.1742 -4.85442e-20 4.95871)
(11.177 -3.29655e-19 4.71887)
(11.3682 -1.95614e-19 5.24337)
(11.363 0 4.9931)
(11.58 4.96573e-21 5.52152)
(11.5659 1.7577e-19 5.26213)
(11.8085 1.21145e-21 5.79006)
(11.7848 1.8594e-19 5.52318)
(12.0518 3.9651e-19 6.04598)
(12.0184 -5.59979e-19 5.77361)
(12.3072 5.49508e-19 6.28692)
(12.2623 5.74661e-19 6.01071)
(12.5449 -1.39852e-20 6.23385)
(12.5743 -9.34545e-19 6.47594)
(11.0268 4.75044e-19 4.22844)
(11.0301 1.30106e-20 4.01733)
(11.1903 -6.89737e-21 4.49299)
(11.1879 2.8731e-19 4.27131)
(11.3699 -2.79246e-19 4.75572)
(11.3611 -1.04556e-19 4.52415)
(11.5655 3.80849e-19 5.01414)
(11.5493 -9.59511e-22 4.77363)
(11.7761 3.61217e-19 5.26575)
(11.7519 1.7443e-20 5.01744)
(12.0006 -3.91765e-19 5.50818)
(11.968 -8.4497e-21 5.25339)
(12.2374 -3.71635e-19 5.7392)
(12.1964 -3.82093e-19 5.47948)
(12.4844 0 5.95695)
(12.4333 8.87628e-20 5.69374)
(12.7056 3.48104e-19 5.89564)
(12.7408 -8.31623e-19 6.12832)
(11.1944 -1.79047e-19 4.06228)
(11.1867 1.65561e-19 3.8566)
(11.3624 1.86866e-19 4.30451)
(11.3493 -1.74185e-19 4.08955)
(11.5446 1.80781e-19 4.54395)
(11.5253 1.86556e-19 4.32037)
(11.7404 -3.72901e-19 4.77857)
(11.7144 -1.72032e-19 4.54719)
(11.949 -3.61198e-19 5.00635)
(11.9159 1.5989e-19 4.76818)
(12.1693 0 5.22545)
(12.1287 0 4.98157)
(12.3999 9.121e-20 5.43423)
(12.3518 0 5.18584)
(12.639 4.46562e-19 5.6312)
(12.5821 3.80936e-21 5.37952)
(12.8448 3.13348e-19 5.56229)
(12.886 2.66541e-19 5.78666)
(11.3448 1.70192e-19 3.88554)
(11.3271 1.87771e-19 3.6854)
(11.5159 -1.73888e-19 4.10696)
(11.493 1.60607e-19 3.89861)
(11.6993 -1.75426e-19 4.32496)
(11.6707 -1.71686e-19 4.109)
(11.8944 3.74508e-19 4.53787)
(11.8597 -5.12553e-19 4.31505)
(12.1005 5.2945e-19 4.74409)
(12.0593 1.31018e-18 4.51525)
(12.3164 0 4.94218)
(12.2685 -3.44171e-19 4.70823)
(12.5408 -8.94577e-20 5.13087)
(12.4863 8.46028e-20 4.89278)
(12.7725 -1.3103e-19 5.30903)
(12.71 2.44799e-19 5.0678)
(12.9639 -3.01434e-19 5.23316)
(13.0107 -8.22015e-19 5.44997)
(11.4786 1.77952e-19 3.69973)
(11.4519 -1.743e-19 3.50516)
(11.6515 1.62423e-19 3.90175)
(11.6199 3.47373e-19 3.69985)
(11.8351 -5.17677e-19 4.09996)
(11.7982 1.51554e-19 3.89129)
(12.0288 4.50009e-19 4.293)
(11.9863 -9.2513e-19 4.07821)
(12.2319 4.11101e-19 4.47959)
(12.1834 1.03627e-18 4.25941)
(12.4432 -2.56321e-19 4.6586)
(12.3887 -2.49241e-20 4.43379)
(12.6617 4.27336e-19 4.82905)
(12.6013 -3.30571e-19 4.60041)
(12.8862 7.28109e-20 4.99004)
(12.8187 3.42013e-19 4.75839)
(13.0641 -6.28781e-19 4.90781)
(13.1162 -2.20279e-19 5.11764)
(11.5965 0 3.50615)
(11.5618 0 3.31713)
(11.7702 3.35927e-19 3.69007)
(11.7309 -7.95227e-20 3.49445)
(11.9532 -2.6788e-19 3.86997)
(11.909 3.35361e-19 3.66826)
(12.145 -3.20278e-19 4.04476)
(12.0955 -9.92821e-19 3.83753)
(12.3446 5.86922e-19 4.21339)
(12.2897 5.82471e-19 4.00128)
(12.5512 -1.01677e-19 4.37498)
(12.4909 3.35441e-19 4.15863)
(12.7639 -4.16115e-19 4.52875)
(12.6981 -6.65428e-19 4.30883)
(12.9815 -3.75502e-19 4.674)
(12.9094 6.4248e-19 4.4512)
(13.1467 -6.98811e-19 4.58594)
(13.2036 1.32993e-18 4.78931)
(11.5344 1.75736e-21 3.13583)
(11.4967 7.98742e-20 2.95872)
(11.6994 -8.15865e-20 3.30593)
(11.6576 2.32132e-19 3.12241)
(11.8731 -7.93886e-20 3.47293)
(11.8268 -3.59032e-21 3.28341)
(12.0548 -4.09792e-19 3.63586)
(12.004 3.08812e-19 3.4408)
(12.2441 -6.48736e-20 3.7938)
(12.1884 -1.03384e-18 3.59372)
(12.44 3.24361e-19 3.94593)
(12.3795 5.70977e-19 3.74137)
(12.6419 -2.44437e-19 4.09153)
(12.5763 0 3.88305)
(12.8487 4.22271e-19 4.22999)
(12.7783 -3.22514e-19 4.01817)
(13.0597 3.10952e-19 4.36076)
(12.9835 6.58097e-19 4.14619)
(13.2131 -3.32577e-19 4.26738)
(13.2744 -2.16412e-19 4.46471)
(11.6227 3.16143e-19 2.94565)
(11.5785 -1.4034e-19 2.77342)
(11.7881 3.11729e-19 3.10005)
(11.74 4.64209e-19 2.92193)
(11.9611 3.94659e-19 3.25122)
(11.9088 -2.18991e-19 3.06759)
(12.1411 -3.32884e-19 3.39835)
(12.0845 6.21377e-19 3.20964)
(12.3274 -3.7935e-19 3.54069)
(12.2664 -6.40069e-19 3.34737)
(12.5195 2.37511e-19 3.67759)
(12.454 3.20216e-19 3.48012)
(12.7165 -8.07136e-20 3.80846)
(12.6464 0 3.60734)
(12.9177 -7.84621e-20 3.93282)
(12.8431 -8.05522e-20 3.72854)
(13.1222 0 4.05023)
(13.0424 -3.80724e-20 3.84331)
(13.2646 0 3.95198)
(13.3297 7.43581e-19 4.14365)
(11.6986 1.20196e-20 2.74974)
(11.6487 -2.25887e-19 2.58237)
(11.8637 -8.06036e-20 2.88932)
(11.81 2.31922e-19 2.71649)
(12.0354 1.45979e-20 3.02564)
(11.9778 -5.9651e-19 2.84771)
(12.2131 3.04485e-19 3.15804)
(12.1516 9.00587e-19 2.9754)
(12.3963 7.84416e-20 3.2859)
(12.3307 -7.8551e-20 3.09897)
(12.5844 7.62901e-20 3.40869)
(12.5146 -2.20565e-19 3.21789)
(12.7765 0 3.52594)
(12.7026 3.31248e-19 3.33171)
(12.9721 -3.90793e-20 3.63727)
(12.894 -3.37361e-19 3.44004)
(13.1703 -3.79669e-20 3.74232)
(13.0876 -3.3345e-19 3.54255)
(13.3026 3.0097e-19 3.63961)
(13.3709 -7.04032e-19 3.82598)
(11.7628 0 2.54886)
(11.7079 -6.98708e-20 2.38628)
(11.927 -2.97917e-19 2.67443)
(11.8686 0 2.50676)
(12.097 3.13559e-19 2.79681)
(12.0349 -3.6837e-19 2.62437)
(12.2722 5.06556e-19 2.91543)
(12.2064 6.02616e-19 2.73859)
(12.4521 -3.85138e-19 3.0298)
(12.3825 3.48035e-19 2.84893)
(12.636 4.16041e-20 3.13948)
(12.5626 -8.82884e-19 2.95496)
(12.8233 -1.55873e-20 3.2441)
(12.7462 5.94924e-19 3.05632)
(13.0134 -6.38967e-19 3.34335)
(12.9325 -5.60294e-19 3.1527)
(13.2056 1.17857e-20 3.43695)
(13.1205 -2.59751e-19 3.24384)
(13.3286 8.89082e-19 3.33013)
(13.3996 1.57269e-19 3.51154)
(11.8163 -6.97806e-20 2.34365)
(11.7571 2.674e-19 2.18579)
(11.9792 -7.27099e-20 2.45597)
(11.9167 -6.17489e-19 2.29331)
(12.1472 -7.07535e-20 2.56521)
(12.0812 2.75124e-19 2.39805)
(12.3196 4.39793e-19 2.67092)
(12.2503 0 2.49959)
(12.496 -1.63896e-19 2.77268)
(12.4232 6.46327e-19 2.59753)
(12.6758 -3.1351e-19 2.87014)
(12.5995 -8.73951e-19 2.69152)
(12.8584 3.48329e-20 2.96301)
(12.7786 2.61836e-19 2.78127)
(13.0431 -1.71087e-19 3.05104)
(12.96 -5.35157e-19 2.86652)
(13.2295 6.34765e-19 3.134)
(13.1426 3.2858e-19 2.94708)
(13.3441 8.75381e-19 3.02335)
(13.4172 -2.7279e-19 3.20016)
(11.86 -2.95033e-19 2.13465)
(11.7972 3.4752e-19 1.98139)
(12.0213 -2.59823e-19 2.23439)
(11.9554 -8.31089e-19 2.07657)
(12.187 3.47293e-19 2.33123)
(12.1179 8.94082e-19 2.16912)
(12.3566 2.1257e-19 2.42479)
(12.2843 -2.72538e-19 2.2587)
(12.5295 -8.36106e-20 2.51473)
(12.454 2.12298e-19 2.34498)
(12.7051 -2.82602e-19 2.60077)
(12.6265 -2.90071e-19 2.42767)
(12.883 -3.23533e-19 2.68266)
(12.8013 0 2.50654)
(13.0627 -2.15777e-20 2.76023)
(12.9779 -5.61574e-19 2.5814)
(13.2435 5.72823e-19 2.83329)
(13.1553 5.71132e-19 2.65209)
(13.3507 1.37342e-20 2.71901)
(13.4252 -4.57211e-19 2.89159)
(11.895 -2.03346e-19 1.92227)
(11.8292 2.5586e-19 1.77348)
(12.0545 3.53854e-19 2.01006)
(11.9858 -4.64484e-19 1.85687)
(12.2178 2.57262e-19 2.09516)
(12.1461 8.10825e-19 1.93783)
(12.3843 -2.7219e-19 2.17725)
(12.3098 -8.059e-19 2.01608)
(12.5537 0 2.25606)
(12.4763 2.66831e-19 2.09134)
(12.7254 0 2.33138)
(12.6451 0 2.1634)
(12.8988 -2.44756e-19 2.403)
(12.8157 0 2.23206)
(13.0736 4.76733e-20 2.47078)
(12.9878 -2.78071e-19 2.29718)
(13.2491 -2.98055e-21 2.53458)
(13.1603 5.35347e-19 2.35862)
(13.3499 -8.36639e-19 2.41678)
(13.4252 4.36243e-19 2.58553)
(11.9222 -1.26576e-20 1.70678)
(11.8539 2.62332e-19 1.56234)
(12.0798 5.46743e-21 1.78316)
(12.0087 1.44531e-20 1.63443)
(12.2406 -2.81004e-19 1.85708)
(12.1669 2.62702e-19 1.70433)
(12.4042 -2.52041e-19 1.92831)
(12.3278 -1.05239e-18 1.7718)
(12.5701 2.66519e-19 1.99661)
(12.4912 5.65556e-19 1.83662)
(12.7379 0 2.06181)
(12.6565 2.57224e-19 1.89861)
(12.9071 -3.44955e-20 2.12377)
(12.8232 -5.2097e-19 1.95763)
(13.0773 2.22953e-19 2.18235)
(12.9909 2.456e-19 2.01356)
(13.2479 -3.18648e-19 2.23747)
(13.159 2.72688e-19 2.06629)
(13.3431 -5.53836e-19 2.11622)
(13.4187 2.72648e-19 2.2815)
(11.9427 2.89893e-19 1.4885)
(11.8724 0 1.34812)
(12.0981 2.78501e-19 1.55393)
(12.0254 2.58818e-19 1.40935)
(12.2565 -5.29638e-19 1.61719)
(12.1813 -3.63941e-21 1.46863)
(12.4172 -2.12327e-19 1.67807)
(12.3396 -5.25616e-19 1.52579)
(12.5799 5.55696e-19 1.73639)
(12.5 2.67964e-19 1.58065)
(12.7441 -2.77787e-19 1.79201)
(12.6619 1.31451e-20 1.63307)
(12.9093 -2.32971e-19 1.84482)
(12.825 -2.78384e-19 1.68294)
(13.0752 2.96642e-19 1.89473)
(12.9888 2.71249e-19 1.73016)
(13.2413 3.33344e-20 1.94166)
(13.1527 2.70663e-19 1.77466)
(13.3319 -2.42236e-19 1.8168)
(13.4073 1.09753e-20 1.97918)
(11.9573 -3.1624e-20 1.26716)
(11.8854 0 1.13089)
(12.1107 -3.07774e-20 1.32206)
(12.0366 -3.15976e-20 1.18159)
(12.2667 0 1.37507)
(12.1904 -2.39646e-19 1.23064)
(12.4247 -3.22949e-20 1.42604)
(12.3462 2.44776e-19 1.27788)
(12.5843 -2.88721e-19 1.47482)
(12.5038 -3.227e-20 1.32318)
(12.7451 1.22528e-20 1.52131)
(12.6627 -2.41729e-19 1.36643)
(12.9067 2.39275e-19 1.56541)
(12.8224 2.4703e-19 1.40755)
(13.0686 2.44593e-19 1.60706)
(12.9826 -8.5042e-22 1.44646)
(13.2306 -9.9224e-21 1.6462)
(13.1427 2.60363e-19 1.48311)
(13.3175 -2.65844e-19 1.5178)
(13.3923 -1.72535e-19 1.67751)
(11.9668 0 1.04346)
(11.8939 2.29656e-19 0.910598)
(12.1184 -2.46028e-19 1.08815)
(12.0433 -2.34647e-19 0.951049)
(12.2721 1.18337e-20 1.13125)
(12.1951 -4.93974e-19 0.990145)
(12.4275 2.44585e-19 1.17267)
(12.3487 2.39666e-19 1.02777)
(12.5843 1.57761e-20 1.21228)
(12.5037 4.76783e-19 1.06383)
(12.7421 -5.06221e-22 1.25001)
(12.6598 -2.40909e-19 1.09824)
(12.9004 4.99012e-22 1.28578)
(12.8165 -7.54485e-22 1.13093)
(13.0588 1.55146e-20 1.31956)
(12.9736 2.41231e-19 1.16185)
(13.2171 0 1.35129)
(13.1304 3.63991e-21 1.19097)
(13.3013 -2.46529e-19 1.21856)
(13.3749 0 1.37671)
(11.9724 -1.14185e-20 0.815754)
(11.8985 2.3565e-19 0.687066)
(12.1221 -4.89231e-19 0.850449)
(12.0464 -2.40786e-19 0.717452)
(12.2737 -2.59729e-19 0.883891)
(12.1963 -3.39719e-19 0.746801)
(12.4269 4.78073e-19 0.915989)
(12.3478 -1.01483e-20 0.775027)
(12.5813 2.12964e-19 0.946667)
(12.5006 6.06322e-19 0.80206)
(12.7363 -2.41031e-19 0.97586)
(12.6543 -2.63436e-19 0.82784)
(12.8918 2.4642e-19 1.00352)
(12.8084 8.14816e-21 0.852318)
(13.0472 2.28911e-19 1.02961)
(12.9627 2.31258e-19 0.875456)
(13.2024 -2.4712e-19 1.05411)
(13.1166 -1.10991e-20 0.897224)
(13.2843 -2.49336e-19 0.917822)
(13.3569 -1.59679e-19 1.07372)
(11.9745 0 0.586742)
(11.9001 1.10358e-19 0.460077)
(12.1225 -8.73805e-20 0.611654)
(12.0465 1.16856e-19 0.480499)
(12.2723 -8.33808e-20 0.635665)
(12.1947 -2.13635e-19 0.500211)
(12.4235 1.2177e-19 0.658709)
(12.3445 -1.02913e-19 0.519161)
(12.5756 1.16949e-19 0.680735)
(12.4954 2.27053e-19 0.537301)
(12.7283 -7.54248e-21 0.701698)
(12.647 0 0.554595)
(12.8813 -7.34238e-21 0.721565)
(12.799 3.21737e-21 0.571015)
(13.0341 -1.52427e-20 0.740314)
(12.951 0 0.586543)
(13.1865 -1.10097e-20 0.757932)
(13.1027 -7.99062e-21 0.601172)
(13.2677 1.15312e-19 0.615066)
(13.3381 2.4773e-21 0.772055)
(11.974 2.30323e-19 0.350339)
(11.8069 1.66883e-19 0.229386)
(12.1206 -1.28679e-20 0.365339)
(11.9505 8.59505e-20 0.239824)
(12.2689 -2.33663e-19 0.379769)
(12.096 -1.02504e-19 0.24989)
(12.4184 5.2558e-21 0.393595)
(12.2431 -1.28193e-19 0.259557)
(12.5688 1.06916e-19 0.406788)
(12.3913 1.16684e-19 0.268802)
(12.7197 1.10397e-20 0.419325)
(12.5402 2.76686e-20 0.277606)
(12.8707 1.07472e-20 0.431192)
(12.6896 -2.07119e-20 0.285956)
(13.0216 7.4344e-21 0.44238)
(12.8389 0 0.293838)
(13.172 1.21777e-19 0.452893)
(12.9881 7.43168e-21 0.301242)
(13.1502 1.14481e-19 0.308263)
(13.3217 -2.03462e-19 0.461289)
(11.7828 1.86883e-20 0.117529)
(11.9253 -6.14822e-21 0.12301)
(12.0695 5.72264e-21 0.128288)
(12.2153 -1.36855e-20 0.133348)
(12.362 3.53305e-20 0.138177)
(12.5094 -4.9502e-21 0.142765)
(12.657 -3.17434e-20 0.147103)
(12.8046 0 0.151181)
(12.9518 0 0.155001)
(13.0984 1.32655e-19 0.158004)
(12.5299 -6.12468e-19 6.69348)
(12.7091 -6.44733e-19 6.56422)
(12.7056 -1.30941e-18 6.33857)
(12.8456 7.79358e-20 6.66528)
(12.8577 6.17162e-19 6.43768)
(12.9864 3.895e-20 6.53335)
(12.9842 5.15265e-20 6.7773)
(12.8701 -2.61845e-20 6.20872)
(12.8597 -6.00776e-19 5.99072)
(13.0008 5.83906e-19 6.30109)
(13.0055 5.80432e-19 6.0811)
(13.1291 -1.20309e-18 6.16852)
(13.1337 -2.89435e-23 6.40511)
(13.0102 1.28326e-20 5.85983)
(12.993 -5.57252e-19 5.64863)
(13.1359 -1.22881e-18 5.94405)
(13.1332 5.75232e-19 5.7309)
(13.2522 -1.23198e-18 5.81054)
(13.2635 -1.41065e-18 6.03946)
(13.1304 9.86647e-21 5.51644)
(13.1066 -6.34418e-19 5.31144)
(13.2513 5.93159e-19 5.59305)
(13.2417 6.00349e-19 5.38617)
(13.3563 -5.70809e-19 5.45853)
(13.3742 0 5.68)
(13.2316 -3.61929e-20 5.1779)
(13.2016 1.12135e-18 4.97864)
(13.3481 -5.77763e-19 5.2474)
(13.3319 -5.40955e-19 5.04634)
(13.4424 -5.84572e-19 5.11188)
(13.4665 -5.3802e-19 5.32628)
(13.315 6.15728e-19 4.8438)
(13.2793 1.18606e-18 4.64988)
(13.4274 -5.47433e-19 4.90666)
(13.405 -5.71019e-19 4.71105)
(13.5117 1.66756e-20 4.77021)
(13.5415 2.35006e-23 4.97795)
(13.3818 -1.71799e-20 4.51383)
(13.341 5.47612e-19 4.32493)
(13.4903 -2.789e-22 4.5705)
(13.4622 -5.65488e-19 4.38001)
(13.5652 5.17804e-19 4.43323)
(13.6003 -2.00658e-19 4.6347)
(13.4334 -6.25553e-21 4.18779)
(13.388 4.25467e-20 4.0036)
(13.538 -4.7868e-20 4.2387)
(13.505 -1.04298e-20 4.05301)
(13.6045 5.28887e-19 4.10071)
(13.6441 4.83219e-19 4.29627)
(13.4711 3.83621e-20 3.86549)
(13.4218 -5.62928e-19 3.68573)
(13.5721 5.73919e-19 3.91103)
(13.5347 5.48974e-19 3.72987)
(13.6307 7.85336e-22 3.77242)
(13.6744 2.15515e-20 3.96246)
(13.4963 -4.81344e-20 3.54675)
(13.4437 -5.17417e-19 3.37113)
(13.5938 -3.16236e-20 3.58731)
(13.5528 -1.61342e-20 3.41037)
(13.6455 -7.05355e-22 3.44815)
(13.6925 1.52943e-19 3.63303)
(13.5106 -4.89673e-19 3.23137)
(13.4554 -9.69963e-19 3.05959)
(13.6048 1.53621e-20 3.26729)
(13.5608 0 3.09426)
(13.6504 1.55465e-20 3.1276)
(13.7001 3.20514e-20 3.30772)
(13.5155 -4.7808e-19 2.91907)
(13.4583 -3.05676e-20 2.75081)
(13.6066 0 2.95067)
(13.5603 -4.66019e-19 2.78122)
(13.647 9.33513e-19 2.81042)
(13.6986 1.77577e-19 2.98618)
(13.5126 -1.35115e-20 2.60953)
(13.4541 9.38226e-19 2.44442)
(13.6008 4.7394e-19 2.6371)
(13.5528 -1.55151e-20 2.47083)
(13.6368 4.95346e-19 2.49617)
(13.6898 1.098e-18 2.66803)
(13.5035 9.46445e-19 2.30223)
(13.4442 4.84379e-19 2.13995)
(13.5889 1.70932e-22 2.32602)
(13.54 4.66984e-19 2.16261)
(13.6215 -4.73304e-19 2.18432)
(13.6751 -6.37544e-19 2.35267)
(13.4896 -7.08394e-21 1.99683)
(13.4301 0 1.8368)
(13.5725 -7.06934e-21 2.01706)
(13.5232 -3.75923e-21 1.8559)
(13.6024 0 1.87418)
(13.6562 5.22731e-21 2.03969)
(13.4724 3.45229e-21 1.69222)
(13.4132 0 1.53433)
(13.553 3.44543e-21 1.70907)
(13.5038 -4.2341e-19 1.55006)
(13.581 6.92233e-21 1.56509)
(13.6344 0 1.72789)
(13.453 -4.33002e-19 1.38864)
(13.3948 3.27857e-21 1.23156)
(13.5317 -4.25127e-19 1.40229)
(13.4834 -2.46859e-20 1.24404)
(13.5587 -4.06034e-19 1.25593)
(13.6111 1.68649e-19 1.41751)
(13.4333 4.22632e-19 1.08291)
(13.3758 3.36571e-21 0.927793)
(13.5103 -3.52517e-22 1.09341)
(13.4626 4.22756e-19 0.937122)
(13.5366 -4.27209e-19 0.946036)
(13.5878 -4.07056e-19 1.10512)
(13.4132 -1.60774e-21 0.778668)
(13.3577 -2.03809e-19 0.621308)
(13.4888 -4.78306e-21 0.786202)
(13.443 1.96617e-19 0.627494)
(13.5157 -5.60486e-21 0.633333)
(13.5651 -4.26426e-21 0.794582)
(13.3954 -5.2063e-21 0.465154)
(13.2387 -1.11771e-19 0.312021)
(13.4698 1.98349e-19 0.469524)
(13.3225 2.02631e-19 0.315041)
(13.394 -9.81813e-20 0.317972)
(13.5447 -7.72734e-20 0.474407)
(13.1709 9.74285e-20 0.159345)
(13.244 -9.80159e-20 0.160859)
(13.3176 -1.30149e-19 0.162607)
(13.2227 0 6.71664)
(13.4127 -2.70319e-19 6.60559)
(13.3565 3.30701e-19 6.33914)
(13.7016 3.23301e-20 6.76234)
(13.6095 -1.09077e-20 6.50068)
(13.9908 3.2683e-19 6.89557)
(13.8985 -2.37043e-19 6.64648)
(14.1945 2.81641e-19 6.77087)
(13.5327 6.03538e-19 6.22648)
(13.471 3.38709e-19 5.96708)
(13.816 -2.81716e-19 6.37866)
(13.7158 3.47483e-19 6.1185)
(14.1081 -2.9245e-19 6.51591)
(13.9995 -5.60836e-19 6.26025)
(14.4035 2.69272e-19 6.6345)
(14.2978 2.87235e-19 6.38796)
(14.6963 2.3514e-19 6.73083)
(14.5973 2.56338e-19 6.49812)
(14.894 2.28136e-19 6.58748)
(13.6334 7.61975e-20 5.85168)
(13.567 3.55962e-19 5.60105)
(13.9078 7.77336e-20 5.99404)
(13.8028 -2.52888e-19 5.74025)
(14.1945 1.72119e-20 6.12622)
(14.0776 2.52676e-19 5.87287)
(14.4907 2.74596e-19 6.24558)
(14.3702 -1.59771e-20 5.99561)
(14.793 2.49933e-19 6.34932)
(14.6697 5.00674e-19 6.1059)
(15.097 -4.5675e-19 6.43426)
(14.974 -2.53501e-19 6.20112)
(15.3983 -2.40174e-19 6.49725)
(15.2811 -4.54037e-19 6.27838)
(15.5875 2.03929e-19 6.33476)
(13.7159 3.21822e-20 5.48252)
(13.6455 3.64586e-19 5.24101)
(13.9804 -8.22311e-20 5.61322)
(13.8723 -3.38783e-19 5.36767)
(14.2581 2.24412e-19 5.73622)
(14.1369 5.31886e-19 5.48931)
(14.5479 2.04709e-19 5.84971)
(14.4202 -2.85722e-19 5.60332)
(14.848 1.20922e-21 5.95171)
(14.7128 4.86923e-19 5.70781)
(15.156 -2.46411e-19 6.03973)
(15.0138 -4.85684e-19 5.80089)
(15.4688 -1.29595e-20 6.111)
(15.323 0 5.88027)
(15.783 -1.3197e-20 6.16276)
(15.6378 -1.34561e-20 5.94339)
(15.9552 1.84058e-19 5.98773)
(13.7815 -3.28744e-23 5.11935)
(13.7074 -3.33849e-19 4.88674)
(14.0359 2.73989e-19 5.2381)
(13.9255 5.7299e-19 5.00124)
(14.3034 2.52553e-20 5.35052)
(14.1798 -1.44429e-20 5.11161)
(14.5836 -1.31366e-20 5.45525)
(14.4524 -5.11965e-19 5.21561)
(14.8756 9.17887e-21 5.55085)
(14.735 4.90761e-19 5.31176)
(15.1782 -2.43624e-19 5.63551)
(15.0274 -1.88903e-20 5.39866)
(15.4897 -2.15588e-22 5.70707)
(15.3301 -2.94631e-21 5.47462)
(15.8079 1.84453e-19 5.76322)
(15.642 -1.03909e-20 5.53763)
(15.9608 -5.68109e-21 5.58554)
(13.8313 2.28934e-19 4.7621)
(13.754 -6.38585e-19 4.53797)
(14.0758 2.88434e-19 4.8693)
(13.9637 5.87057e-19 4.64098)
(14.3329 -5.55669e-19 4.97102)
(14.2078 -2.84819e-19 4.74044)
(14.6022 -1.71373e-20 5.06611)
(14.4696 -1.02534e-20 4.83435)
(14.8836 4.73165e-19 5.15348)
(14.7412 9.74439e-21 4.92145)
(15.1764 2.27484e-19 5.23175)
(15.0226 8.09422e-21 5.00063)
(15.4797 -1.32989e-20 5.2993)
(15.3149 2.09563e-19 5.07061)
(15.7922 -2.05512e-19 5.35429)
(15.6176 2.09465e-21 5.12984)
(15.9294 -2.72353e-20 5.17662)
(13.8666 -3.03248e-19 4.41058)
(13.7865 -3.03893e-19 4.19447)
(14.1016 1.6782e-20 4.50687)
(13.9881 -2.71788e-19 4.28673)
(14.3483 2.68059e-19 4.59829)
(14.2224 2.83657e-19 4.37587)
(14.6068 1.6908e-20 4.68386)
(14.4737 2.56448e-19 4.4601)
(14.8768 -4.66856e-19 4.76265)
(14.7342 -2.47584e-19 4.53828)
(15.1581 -1.47013e-20 4.83353)
(15.004 -4.4931e-19 4.60951)
(15.45 2.29799e-19 4.89523)
(15.2845 6.4258e-19 4.67272)
(15.7519 1.85375e-19 4.94633)
(15.5755 -1.91406e-19 4.72667)
(15.876 3.712e-19 4.77002)
(13.8886 -2.72355e-19 4.06457)
(13.8063 2.60436e-19 3.85599)
(14.1145 -9.00345e-21 4.15065)
(14.0003 -5.50885e-19 3.93823)
(14.3514 2.72385e-19 4.23239)
(14.2252 7.81462e-19 4.01773)
(14.5992 -3.72809e-21 4.3089)
(14.4663 -4.98539e-19 4.09286)
(14.8579 -2.25165e-19 4.37938)
(14.716 -1.67053e-22 4.16261)
(15.1273 2.00318e-19 4.44288)
(14.9745 -2.26233e-19 4.22618)
(15.407 2.29086e-19 4.49832)
(15.243 2.29556e-19 4.28266)
(15.6965 -1.32672e-20 4.54454)
(15.5215 -7.45326e-21 4.33101)
(15.8095 3.70107e-19 4.37014)
(13.8989 -3.06977e-21 3.72381)
(13.815 2.8407e-19 3.52224)
(14.1161 2.31187e-19 3.80039)
(14.0016 -2.62648e-19 3.59518)
(14.3435 1.74255e-20 3.87309)
(14.2178 5.20994e-19 3.66573)
(14.5812 -5.05936e-19 3.94113)
(14.4492 -5.10962e-19 3.73238)
(14.8291 3.72219e-21 4.00381)
(14.6886 1.4092e-22 3.79425)
(15.087 -2.06349e-19 4.06031)
(14.9362 0 3.85063)
(15.3545 -7.72559e-21 4.10967)
(15.1932 -2.17404e-19 3.90075)
(15.6314 3.77263e-19 4.15091)
(15.4596 2.06993e-19 3.94368)
(15.7349 1.86133e-19 3.97854)
(13.8991 3.40867e-20 3.38798)
(13.8141 2.83593e-19 3.19291)
(14.108 1.68617e-20 3.45573)
(13.9939 -7.86873e-19 3.25721)
(14.3266 0 3.52005)
(14.2017 5.00862e-19 3.31942)
(14.5547 -3.60124e-21 3.58022)
(14.424 7.39262e-21 3.3782)
(14.7923 -3.67163e-21 3.63563)
(14.6538 -4.44358e-19 3.43274)
(15.0392 -6.50112e-21 3.68558)
(14.8911 4.35757e-19 3.48244)
(15.2952 -6.6269e-21 3.72924)
(15.1372 -2.94412e-22 3.52662)
(15.56 1.14979e-20 3.76577)
(15.3922 0 3.56451)
(15.6555 1.17526e-20 3.59536)
(13.8906 -5.30178e-19 3.05668)
(13.8052 1.61353e-20 2.86757)
(14.0919 -3.1728e-19 3.11623)
(13.9786 -8.0813e-19 2.92384)
(14.3021 5.19563e-19 3.17275)
(14.1786 5.13438e-19 2.97831)
(14.5212 -4.34281e-19 3.2256)
(14.3924 -4.56998e-19 3.02977)
(14.7492 -1.38593e-20 3.27427)
(14.6133 -3.17841e-21 3.0775)
(14.9859 4.51892e-19 3.31814)
(14.8412 8.60313e-19 3.12098)
(15.2312 6.4903e-21 3.35651)
(15.0772 -8.01504e-19 3.15965)
(15.4846 0 3.38868)
(15.3215 3.87002e-19 3.19288)
(15.5736 0 3.22001)
(13.8753 -2.46606e-19 2.72945)
(13.79 -2.79037e-19 2.54571)
(14.0694 1.61588e-20 2.78136)
(13.9574 2.60742e-19 2.5945)
(14.2719 -4.65737e-19 2.83063)
(14.1503 -2.3981e-19 2.64175)
(14.4827 -2.4998e-20 2.87669)
(14.3564 -4.76323e-19 2.68638)
(14.7018 8.73398e-19 2.91909)
(14.569 2.45976e-19 2.72777)
(14.9291 -3.8725e-19 2.95732)
(14.7882 1.04343e-18 2.76549)
(15.1644 -4.37981e-19 2.9908)
(15.0149 -1.22253e-18 2.79906)
(15.4074 3.95665e-19 3.01894)
(15.2494 5.80858e-19 2.82796)
(15.4914 -6.44787e-21 2.85162)
(13.8546 2.28684e-19 2.40559)
(13.7699 -8.60016e-21 2.22671)
(14.0422 8.62321e-21 2.45036)
(13.932 2.50762e-19 2.26848)
(14.2376 -2.45289e-19 2.49285)
(14.1183 -2.45913e-19 2.30896)
(14.4408 -2.14537e-19 2.53257)
(14.3173 -3.47422e-21 2.3472)
(14.6519 4.02082e-19 2.56914)
(14.5225 -2.19434e-19 2.38267)
(14.8707 2.38436e-19 2.60214)
(14.7337 6.35188e-19 2.41502)
(15.0969 -2.18362e-19 2.63109)
(14.9521 -3.98018e-19 2.44385)
(15.3304 1.81639e-19 2.65547)
(15.1778 7.72827e-21 2.4687)
(15.4106 1.71033e-19 2.48911)
(13.8302 8.01673e-21 2.08463)
(13.7466 8.03557e-21 1.90987)
(14.0117 0 2.12269)
(13.9038 2.33808e-19 1.94504)
(14.2007 -3.48309e-21 2.1588)
(14.0842 -2.32839e-19 1.97913)
(14.3971 -3.55392e-21 2.19257)
(14.2768 -2.1677e-19 2.01136)
(14.6009 0 2.22369)
(14.4753 2.10805e-19 2.04126)
(14.812 6.07149e-21 2.2518)
(14.6794 1.55546e-21 2.06855)
(15.0301 -1.75328e-19 2.2765)
(14.8903 6.2228e-21 2.0929)
(15.2551 -6.87353e-21 2.29734)
(15.1082 -3.63447e-19 2.11393)
(15.3329 3.67476e-19 2.13126)
(13.8035 2.34367e-19 1.7653)
(13.7215 2.40976e-19 1.59437)
(13.9797 4.81659e-21 1.797)
(13.8743 2.39864e-19 1.62328)
(14.1629 -4.52001e-19 1.82709)
(14.0495 -1.59958e-20 1.65133)
(14.3532 -6.61095e-21 1.85524)
(14.2364 -2.23689e-19 1.67784)
(14.5505 2.17228e-19 1.88119)
(14.429 1.00278e-20 1.70246)
(14.7547 1.60669e-21 1.90466)
(14.6269 7.52742e-23 1.72493)
(14.9656 -1.78302e-19 1.92529)
(14.8313 -5.78881e-21 1.74501)
(15.1831 4.00202e-21 1.94275)
(15.0424 -1.82411e-19 1.76237)
(15.2599 1.79558e-19 1.77672)
(13.7759 2.46644e-19 1.44777)
(13.696 4.78872e-19 1.2792)
(13.9474 2.23462e-19 1.47345)
(13.845 -2.27119e-19 1.30212)
(14.1256 2.2226e-19 1.49782)
(14.0157 2.28721e-19 1.32438)
(14.3106 -2.12036e-19 1.52063)
(14.1978 -3.45606e-21 1.34543)
(14.5022 -2.12567e-19 1.54166)
(14.3853 -4.08452e-19 1.36497)
(14.7005 -7.37811e-21 1.5607)
(14.5779 1.90201e-21 1.38282)
(14.9053 -5.93896e-21 1.57747)
(14.7767 1.78632e-19 1.39877)
(15.1163 -1.05405e-20 1.59169)
(14.9819 0 1.4126)
(15.1934 1.51655e-19 1.42405)
(13.7489 1.17301e-20 1.12845)
(13.6711 2.3773e-19 0.963225)
(13.9165 -2.32485e-19 1.14827)
(13.8169 -2.33149e-19 0.980366)
(14.0904 1.62905e-21 1.16709)
(13.9839 2.09443e-19 0.997002)
(14.2709 -1.95698e-19 1.18469)
(14.162 -4.05431e-19 1.01274)
(14.4578 -1.98028e-19 1.20092)
(14.3453 1.87405e-19 1.02736)
(14.6511 1.88643e-19 1.21562)
(14.5335 -3.6772e-19 1.04071)
(14.8507 1.88881e-19 1.22857)
(14.7277 1.94385e-19 1.05265)
(15.0563 1.62959e-19 1.23957)
(14.9282 3.42402e-19 1.06301)
(15.1347 -2.58641e-21 1.0716)
(13.7232 0 0.811273)
(13.648 -1.11969e-19 0.645061)
(13.8875 2.1005e-19 0.825506)
(13.7914 0 0.656491)
(14.0581 -1.94682e-19 0.839022)
(13.9554 2.15091e-19 0.667665)
(14.2349 -2.59953e-20 0.851667)
(14.1302 -4.16917e-19 0.678208)
(14.418 2.62923e-20 0.86334)
(14.3102 4.93862e-19 0.687983)
(14.6073 -3.75162e-19 0.873917)
(14.495 -4.74157e-19 0.696911)
(14.8026 3.48547e-19 0.88325)
(14.6855 5.02303e-21 0.704893)
(15.004 1.80477e-19 0.891197)
(14.8822 3.49026e-19 0.711814)
(15.0849 -1.68939e-19 0.717566)
(13.7005 -1.14668e-19 0.484261)
(13.524 -1.14976e-19 0.323241)
(13.8623 0 0.492748)
(13.6648 0 0.329221)
(14.0301 1.16581e-21 0.500779)
(13.8258 5.00745e-20 0.334885)
(14.2041 9.54227e-20 0.508256)
(13.9976 -4.83022e-20 0.340184)
(14.3843 3.03654e-21 0.515134)
(14.1744 9.64508e-20 0.345102)
(14.5705 -9.50778e-20 0.521346)
(14.3559 -9.46693e-20 0.349596)
(14.7627 -2.60186e-21 0.526805)
(14.5431 4.20749e-20 0.353605)
(14.9608 2.30059e-21 0.531428)
(14.7364 -8.40724e-20 0.357071)
(14.9355 8.26093e-20 0.35995)
(13.4701 0 0.166249)
(13.6286 5.02126e-20 0.169438)
(13.7932 1.43733e-21 0.172451)
(13.9638 -5.06661e-20 0.175253)
(14.1405 6.98801e-22 0.17784)
(14.3231 4.29163e-20 0.180187)
(14.5116 -3.86096e-20 0.182265)
(14.7059 -5.51112e-21 0.184042)
)
;

boundaryField
{
    inlet
    {
        type            calculated;
        value           nonuniform 0();
    }
    outlet
    {
        type            calculated;
        value           nonuniform 0();
    }
    flap
    {
        type            calculated;
        value           nonuniform 0();
    }
    upperWall
    {
        type            calculated;
        value           uniform (0 0 0);
    }
    lowerWall
    {
        type            calculated;
        value           nonuniform 0();
    }
    frontAndBack
    {
        type            empty;
        value           nonuniform 0();
    }
    procBoundary1to0
    {
        type            processor;
        value           nonuniform List<vector> 
18
(
(11.3169 -1.74481e-19 3.49529)
(11.4326 -1.61702e-19 3.31939)
(11.4022 -1.64117e-19 3.13741)
(11.3784 1.47491e-21 2.96363)
(11.4654 2.32877e-19 2.78888)
(11.5406 6.85783e-20 2.60762)
(11.6049 0 2.42068)
(11.6589 -7.16954e-20 2.22875)
(11.7036 3.47912e-19 2.0324)
(11.7398 6.53784e-20 1.83213)
(11.7685 2.62243e-19 1.62823)
(11.7905 -6.2174e-20 1.42111)
(11.8067 2.42763e-19 1.21056)
(11.8179 2.93225e-20 0.997348)
(11.825 2.07145e-19 0.779913)
(11.8286 0 0.561001)
(11.8294 1.18823e-19 0.334812)
(11.6427 7.47993e-20 0.111864)
)
;
    }
    procBoundary1to2
    {
        type            processor;
        value           nonuniform List<vector> 
17
(
(16.0948 0 6.19241)
(16.13 3.69325e-19 5.80155)
(16.112 -3.91952e-19 5.39477)
(16.0626 3.7866e-19 4.98528)
(15.9951 4.01634e-19 4.58031)
(15.917 5.02557e-19 4.18303)
(15.833 1.17164e-20 3.79434)
(15.7457 0 3.41395)
(15.6576 0 3.04113)
(15.5707 -6.63765e-21 2.67478)
(15.4866 1.71265e-19 2.31393)
(15.4069 1.89405e-19 1.95671)
(15.3335 -1.0792e-20 1.6031)
(15.2679 1.81474e-19 1.2484)
(15.2111 -3.1991e-19 0.897614)
(15.1645 2.70428e-21 0.535142)
(14.9057 1.14613e-19 0.185494)
)
;
    }
    procBoundary1to3
    {
        type            processor;
        value           nonuniform List<vector> 9((9.59811 -4.68044e-19 4.47592) (9.84496 -2.65191e-22 4.44585) (10.0803 -8.57558e-21 4.39004) (10.3025 4.76622e-21 4.31138) (10.5101 -2.02862e-19 4.2126) (10.7026 -9.3977e-20 4.0962) (10.8796 3.76839e-19 3.96444) (11.0408 -3.6159e-19 3.81925) (11.1865 3.58128e-19 3.66236));
    }
    procBoundary1to4
    {
        type            processor;
        value           nonuniform List<vector> 
30
(
(9.48457 1.63592e-20 4.67546)
(9.6528 -9.47093e-19 4.87954)
(9.82684 -7.17324e-19 5.05261)
(9.93298 0 5.47418)
(10.1606 -1.10573e-19 5.63671)
(10.3819 -3.20603e-19 5.76218)
(10.5687 -5.26893e-19 6.16508)
(10.8359 -6.29848e-19 6.25513)
(11.0821 -4.13754e-19 6.31262)
(11.3312 4.09062e-19 6.65746)
(11.6036 -4.48862e-21 6.66495)
(11.8464 3.66793e-19 6.65457)
(12.1542 -1.50755e-20 6.92998)
(12.3318 8.227e-19 7.05754)
(12.5267 7.20383e-19 6.92814)
(12.6891 6.99614e-19 6.80206)
(12.8238 3.8078e-20 6.90623)
(13.0684 4.3392e-19 7.09671)
(13.2711 2.47363e-19 6.98518)
(13.4812 -1.69665e-20 6.88219)
(13.7668 3.41811e-19 7.02088)