/*--------------------------------*- C++ -*----------------------------------*\
| =========                 |                                                 |
| \\      /  F ield         | OpenFOAM: The Open Source CFD Toolbox           |
|  \\    /   O peration     | Version:  dev                                   |
|   \\  /    A nd           | Web:      www.OpenFOAM.org                      |
|    \\/     M anipulation  |                                                 |
\*---------------------------------------------------------------------------*/
FoamFile
{
    version     2.0;
    format      ascii;
    class       surfaceScalarField;
    location    "0.4";
    object      phi;
}
// * * * * * * * * * * * * * * * * * * * * * * * * * * * * * * * * * * * * * //

dimensions      [0 3 -1 0 0 0 0];

internalField   nonuniform List<scalar> 
865
(
0.0593057
0.0115674
0.0477535
0.0115515
0.0364915
0.0112614
0.0258691
0.0106221
0.0163089
0.00955997
0.00827814
0.00803065
0.00222565
0.00605244
-0.00124088
0.00346651
-0.00124089
0.0766839
0.0230088
0.0651102
0.0231244
0.0536172
0.0227539
0.0424469
0.021792
0.0318574
0.0201493
0.0221088
0.0177791
0.0134617
0.0146994
0.00609942
0.0108288
0.00485853
0.0858095
0.0338845
0.0746352
0.0342979
0.0633007
0.0340879
0.0519557
0.0331366
0.0407556
0.0313492
0.029867
0.0286675
0.0194917
0.0250747
0.0097418
0.0205787
0.0146003
0.0912423
0.0443009
0.0804009
0.0451386
0.0692134
0.0452748
0.0577694
0.0445802
0.0461696
0.0429487
0.0345291
0.040308
0.0229639
0.0366397
0.0114537
0.032089
0.026054
0.0950125
0.0544338
0.08436
0.0557903
0.0732294
0.0564048
0.0616771
0.0561322
0.0497743
0.0548513
0.0376021
0.05248
0.025237
0.0490048
0.0126899
0.0446361
0.0387439
0.0982018
0.0644169
0.0876126
0.0663786
0.0764377
0.0675791
0.0647166
0.0678528
0.0525069
0.0670606
0.0398719
0.0651149
0.0268621
0.0620144
0.0134969
0.0580012
0.0522408
0.10142
0.0743154
0.0908178
0.0769796
0.0795161
0.0788801
0.0675451
0.0798233
0.0549605
0.0796448
0.041828
0.0782472
0.0282109
0.0756315
0.0141078
0.0721042
0.0663486
0.10505
0.084126
0.0944168
0.0876119
0.0829405
0.0903556
0.0706409
0.0921224
0.0575796
0.0927057
0.0438433
0.0919833
0.0295329
0.0899417
0.0148268
0.0868103
0.0811754
0.109361
0.0937765
0.0987465
0.0982255
0.0871029
0.101998
0.0744226
0.104802
0.0607768
0.106351
0.046308
0.106452
0.0312036
0.105046
0.0158292
0.102185
0.0970046
0.114559
0.103119
0.104105
0.108679
0.0923927
0.113709
0.0793419
0.117852
0.0649977
0.120695
0.04956
0.121889
0.0332731
0.121333
0.0160485
0.119409
0.113053
0.120754
0.111928
0.11072
0.118712
0.099195
0.125233
0.0859443
0.131102
0.0708843
0.135754
0.0542444
0.138529
0.0366225
0.138954
0.0194653
0.136566
0.132518
0.128005
0.119909
0.118792
0.127923
0.107946
0.136078
0.0949766
0.14407
0.0794439
0.151286
0.0612959
0.156676
0.0410039
0.159246
0.0167538
0.160816
0.149272
0.136428
0.126701
0.128606
0.135743
0.119313
0.145369
0.107842
0.15554
0.0931014
0.166026
0.0736938
0.176083
0.0487265
0.184213
0.0194012
0.190141
0.168673
0.145843
0.131998
0.139957
0.141628
0.133234
0.15209
0.125182
0.163591
0.114784
0.176422
0.100219
0.190646
0.0802346
0.204197
0.0627606
0.207615
0.231434
0.155469
0.135796
0.151518
0.145578
0.147418
0.156188
0.143103
0.167904
0.138262
0.181262
0.131312
0.197595
0.114986
0.220522
0.0645159
0.258085
0.295949
-0.0110636
0.0110636
-0.0282166
0.0171529
-0.0469274
0.0187108
-0.0667896
0.0198622
-0.0873398
0.0205502
-0.108217
0.0208767
-0.129117
0.0209006
-0.149757
0.0206394
-0.169844
0.0200869
0.0192229
-0.0193256
0.0303892
-0.0357772
0.0336045
-0.0540872
0.0370208
-0.0736139
0.0393889
-0.0938545
0.0407907
-0.114422
0.0414439
-0.134994
0.0414731
-0.155278
0.0409225
-0.174975
0.0397841
0.0380178
-0.0178764
0.0482656
-0.0370136
0.0527417
-0.0559969
0.0560041
-0.0752436
0.0586356
-0.0947951
0.0603421
-0.11451
0.0611589
-0.134174
0.0611368
-0.153542
0.0602906
-0.172345
0.058586
0.0559551
-0.0180184
0.066284
-0.036469
0.0711924
-0.0550579
0.074593
-0.0736785
0.0772561
-0.092357
0.0790206
-0.11106
0.079862
-0.129672
0.079749
-0.148014
0.0786321
-0.165854
0.0764257
0.0730158
-0.0172671
0.0835511
-0.0347707
0.0886959
-0.0523457
0.092168
-0.0699118
0.0948223
-0.08746
0.0965688
-0.104983
0.0973846
-0.122413
0.0971793
-0.139615
0.0958341
-0.156389
0.0931993
0.0891004
-0.0157548
0.0993059
-0.0321641
0.105105
-0.0483405
0.108344
-0.0644718
0.110954
-0.0805855
0.112683
-0.0966885
0.113488
-0.112735
0.113225
-0.128611
0.111711
-0.144139
0.108727
0.104034
-0.0146255
0.113931
-0.0288608
0.119341
-0.0432594
0.122743
-0.0576196
0.125314
-0.0719867
0.12705
-0.0863909
0.127892
-0.100799
0.127633
-0.115111
0.126024
-0.129167
0.122783
0.117605
-0.0125223
0.126454
-0.0250206
0.131839
-0.0372858
0.135008
-0.0495147
0.137543
-0.061814
0.139349
-0.0742208
0.140299
-0.0867064
0.140119
-0.0991853
0.138503
-0.111515
0.135112
0.12958
-0.00989699
0.136351
-0.0204868
0.142429
-0.0303731
0.144895
-0.0402068
0.147377
-0.0501575
0.1493
-0.060279
0.150421
-0.0705557
0.150396
-0.0809232
0.148871
-0.0912651
0.145454
0.139721
-0.00813539
0.144486
-0.0153079
0.149601
-0.0225397
0.152127
-0.0297552
0.154592
-0.0371058
0.156651
-0.0446763
0.157992
-0.0524786
0.158199
-0.0604771
0.15687
-0.0685861
0.153564
0.147798
-0.0052429
0.149729
-0.00974212
0.154101
-0.0139732
0.156358
-0.0182506
0.15887
-0.0227445
0.161146
-0.0275368
0.162785
-0.0326553
0.163318
-0.0380846
0.1623
-0.0437614
0.159241
0.153609
0.000584757
0.149144
-0.00282404
0.157509
-0.00424493
0.157779
-0.00554479
0.16017
-0.00708977
0.162691
-0.00901124
0.164707
-0.0113614
0.165669
-0.0141302
0.165069
-0.0172605
0.162372
0.157005
0.000926675
0.148218
0.00506516
0.153371
0.00687064
0.155974
0.00845957
0.158582
0.00974478
0.161407
0.0105765
0.163876
0.0109007
0.165346
0.0107398
0.165231
0.0101553
0.162957
0.157923
0.0147264
0.133491
0.0155772
0.152521
0.0193275
0.152224
0.0234839
0.154426
0.0273173
0.157574
0.0306413
0.160553
0.0334273
0.162561
0.0357101
0.162949
0.0375536
0.161114
0.156435
-0.00402251
0.137514
0.0162805
0.132218
0.0283063
0.140199
0.0371044
0.145629
0.0441531
0.150527
0.0501347
0.154573
0.0553635
0.157333
0.0599995
0.158314
0.0641579
0.156956
0.170653
0.138488
0.168001
0.148229
0.165417
0.15877
0.162906
0.170413
0.160467
0.183699
0.158373
0.199687
0.15847
0.220423
0.171096
0.245458
0.262003
0.205041
0.184142
0.140086
0.182697
0.149672
0.181426
0.16004
0.180367
0.17147
0.179681
0.184384
0.180081
0.199285
0.183872
0.21663
0.193428
0.235901
0.255762
0.199668
0.198116
0.140554
0.19797
0.149817
0.198243
0.159764
0.19912
0.170591
0.200965
0.182537
0.204422
0.195826
0.210399
0.210651
0.218755
0.227544
0.247058
0.227458
0.212453
0.213607
0.148661
0.215397
0.157971
0.218046
0.167939
0.22188
0.178701
0.227318
0.190386
0.234908
0.203059
0.245328
0.217123
0.232325
0.26006
0.229308
0.23245
0.236588
0.163798
0.24202
0.173267
0.249138
0.183265
0.258479
0.193717
0.270874
0.204726
0.216097
0.287102
0.254571
0.261309
0.269733
0.174838
0.28023
0.183217
0.29334
0.191614
0.199924
0.309512
0.288761
0.299843
0.313078
0.178377
0.184202
0.328798
0.330576
0.345594
0.0979176
0.107123
-0.00562694
0.103545
0.0572815
-0.0629083
0.186123
0.120668
0.170061
0.119607
0.10314
0.124202
0.227281
0.120845
0.225486
0.121402
0.115644
0.212982
0.26504
0.115864
0.268574
0.117868
0.116807
0.26741
0.294354
0.108612
0.301122
0.111099
0.112245
0.305684
0.317595
0.100528
0.325835
0.102859
0.104752
0.333327
0.336913
0.0924117
0.345436
0.0943359
0.0962386
0.353947
0.353367
0.361584
0.0861176
0.0877434
0.370077
0.375261
0.383281
-0.0217613
0.0963675
0.00984828
0.100609
0.033458
0.11659
0.0492765
0.129811
0.0610967
0.138707
0.0707298
0.144941
0.0790176
0.149047
0.0864083
0.150925
0.150207
0.0706653
0.149904
0.0481469
0.123128
0.0509608
0.113777
0.0639261
0.116847
0.077767
0.124868
0.0901779
0.132531
0.101206
0.138019
0.111195
0.140937
0.140994
0.171831
0.191055
0.134219
0.16074
0.110163
0.137834
0.101608
0.125404
0.104527
0.121949
0.113309
0.12375
0.124167
0.127163
0.135384
0.12972
0.130035
0.247565
0.210901
0.219864
0.188441
0.191959
0.165739
0.169974
0.147389
0.157228
0.134696
0.15361
0.127368
0.156873
0.1239
0.164362
0.122232
0.120391
0.301778
0.214806
0.288376
0.201843
0.269261
0.184854
0.248751
0.167899
0.230694
0.152753
0.217718
0.140343
0.21085
0.130768
0.209717
0.123365
0.117002
0.340121
0.20801
0.338921
0.203041
0.331052
0.192722
0.318887
0.180062
0.304996
0.166643
0.291788
0.153551
0.281114
0.141441
0.274044
0.130433
0.12016
0.366837
0.195118
0.374296
0.195579
0.376127
0.190889
0.373281
0.182907
0.367152
0.17277
0.35931
0.161391
0.351288
0.149461
0.344343
0.137377
0.125184
0.385602
0.179589
0.398206
0.182972
0.40694
0.182153
0.41181
0.178033
0.413344
0.171234
0.412352
0.16238
0.409813
0.151996
0.406724
0.140463
0.127987
0.399278
0.414208
0.168038
0.42699
0.169367
0.437136
0.167882
0.444598
0.163768
0.449637
0.157338
0.452724
0.148905
0.454472
0.138711
0.126953
0.425189
0.439686
0.452715
0.463929
0.152548
0.473239
0.148022
0.48075
0.141388
0.486704
0.132751
0.122211
0.474861
0.486561
0.496842
0.1311
0.505681
0.123904
0.114719
0.504626
0.514964
0.105653
)
;

boundaryField
{
    inlet
    {
        type            calculated;
        value           nonuniform 0();
    }
    outlet
    {
        type            calculated;
        value           nonuniform 0();
    }
    flap
    {
        type            calculated;
        value           nonuniform List<scalar> 
33
(
-2.46519e-32
-1.2326e-32
-7.14129e-51
7.52342e-50
9.24446e-33
0
0
-1.12231e-32
0
2.46519e-32
4.93038e-32
-4.93038e-32
2.46519e-32
0
-3.9443e-31
0
-4.93038e-32
0
1.2326e-32
3.08149e-32
2.23408e-32
0
2.92802e-32
0
1.0323e-31
2.51213e-32
1.33852e-32
0
0
7.39557e-32
-9.86076e-32
9.37176e-32
-3.9443e-31
)
;
    }
    upperWall
    {
        type            calculated;
        value           nonuniform 0();
    }
    lowerWall
    {
        type            calculated;
        value           uniform 0;
    }
    frontAndBack
    {
        type            empty;
        value           nonuniform 0();
    }
    procBoundary4to1
    {
        type            processor;
        value           nonuniform List<scalar> 
30
(
0.13989
-0.226945
0.146296
0.154826
-0.249178
0.158402
0.166525
-0.279496
0.16557
0.172133
-0.317508
0.165306
0.169183
0.0846372
-0.367573
0.0784278
0.0797208
0.163587
-0.409828
0.152671
0.154865
0.154849
-0.461869
0.13955
0.136316
-0.493114
0.11958
0.113558
-0.518159
0.0960489
)
;
    }
    procBoundary4to2
    {
        type            processor;
        value           nonuniform List<scalar> 
11
(
0.146343
0.174006
0.213105
0.270883
0.339316
0.403917
0.455501
0.491439
0.513166
0.524022
0.527754
)
;
    }
    procBoundary4to3
    {
        type            processor;
        value           nonuniform List<scalar> 
19
(
-0.070874
-0.0881263
-0.0966862
-0.10166
-0.105146
-0.108186
-0.111319
-0.114862
-0.119013
-0.123903
-0.129564
-0.135987
-0.143221
-0.151141
-0.15927
-0.173346
-0.185742
-0.198586
-0.211791
)
;
    }
    procBoundary4to5
    {
        type            processor;
        value           nonuniform List<scalar> 
18
(
-0.189068
-0.193771
-0.190282
-0.182915
-0.172474
-0.159074
-0.142738
-0.12349
-0.101406
-0.0766632
-0.0495723
-0.0206555
0.00923731
0.0390414
0.0679397
0.152653
0.0931586
0.120409
)
;
    }
}


// ************************************************************************* //
