/*--------------------------------*- C++ -*----------------------------------*\
| =========                 |                                                 |
| \\      /  F ield         | OpenFOAM: The Open Source CFD Toolbox           |
|  \\    /   O peration     | Version:  dev                                   |
|   \\  /    A nd           | Web:      www.OpenFOAM.org                      |
|    \\/     M anipulation  |                                                 |
\*---------------------------------------------------------------------------*/
FoamFile
{
    version     2.0;
    format      ascii;
    class       pointVectorField;
    location    "1.54";
    object      pointDisplacement;
}
// * * * * * * * * * * * * * * * * * * * * * * * * * * * * * * * * * * * * * //

dimensions      [0 1 0 0 0 0 0];

internalField   nonuniform List<vector> 
5828
(
(0 0 0)
(0.0256864 0 0)
(0.0484259 0 0)
(0.0675559 0 0)
(0.0834524 0 0)
(0.0964936 0 0)
(0.107004 0 0)
(0.115249 0 0)
(0.121459 0 0)
(0.125839 0 0)
(0.128565 0 0)
(0.12979 0 0)
(0.129645 0 0)
(0.128249 0 0)
(0.125704 0 0)
(0.122103 0 0)
(0.11753 0 0)
(0.112062 0 0)
(0.105769 0 0)
(0.0987212 0 0)
(0.0909855 0 0)
(0.082637 0 0)
(0.0737591 0 0)
(0.0644436 0 0)
(0.0547983 0 0)
(0.0449598 0 0)
(0.0351199 0 0)
(0.0255939 0 0)
(0.016991 0 0)
(0.0108169 0 0)
(1.49984e-09 0 0)
(0 0 0)
(0.0257038 0 -0.000359907)
(0.0484594 0 -0.0006818)
(0.0676058 0 -0.000962018)
(0.0835174 0 -0.00120861)
(0.0965751 0 -0.00142792)
(0.107105 0 -0.00162477)
(0.115371 0 -0.00180316)
(0.121605 0 -0.00196357)
(0.126011 0 -0.00210562)
(0.128767 0 -0.00223042)
(0.130025 0 -0.00233737)
(0.129919 0 -0.00242516)
(0.128566 0 -0.00249178)
(0.12607 0 -0.00253449)
(0.122527 0 -0.00254969)
(0.118019 0 -0.00253287)
(0.112627 0 -0.00247854)
(0.106424 0 -0.00237986)
(0.0994813 0 -0.00222832)
(0.0918693 0 -0.00201306)
(0.0836679 0 -0.00172331)
(0.0749706 0 -0.00134578)
(0.0658803 0 -0.000862185)
(0.0565233 0 -0.000251597)
(0.0470637 0 0.000510297)
(0.0377293 0 0.00145138)
(0.028863 0 0.00260344)
(0.0211035 0 0.00398824)
(0.0162756 0 0.00546299)
(0.00752632 0 0.00784638)
(0 0 0)
(0.0257523 0 -0.000720905)
(0.0485542 0 -0.00136573)
(0.0677468 0 -0.00192597)
(0.0837082 0 -0.00241886)
(0.0968198 0 -0.00285825)
(0.107408 0 -0.00325267)
(0.11574 0 -0.0036086)
(0.122043 0 -0.00392862)
(0.126526 0 -0.00421375)
(0.12937 0 -0.00446508)
(0.130728 0 -0.00468132)
(0.130735 0 -0.00485992)
(0.129511 0 -0.00499711)
(0.127163 0 -0.00508767)
(0.123788 0 -0.00512471)
(0.119476 0 -0.00509967)
(0.11431 0 -0.0050022)
(0.108373 0 -0.00481958)
(0.101746 0 -0.00453611)
(0.0945062 0 -0.00413201)
(0.0867446 0 -0.00358537)
(0.0785785 0 -0.00287109)
(0.0701444 0 -0.00195758)
(0.0616141 0 -0.000808549)
(0.0532216 0 0.000616933)
(0.0453154 0 0.00235888)
(0.0384191 0 0.00444225)
(0.0332934 0 0.00685379)
(0.0322829 0 0.00914704)
(0.0265151 0 0.0130555)
(0 0 0)
(0.0258331 0 -0.00108162)
(0.0487097 0 -0.00204939)
(0.0679776 0 -0.00289101)
(0.0840233 0 -0.00363229)
(0.0972255 0 -0.00429351)
(0.10791 0 -0.00488714)
(0.116346 0 -0.0054208)
(0.122765 0 -0.00590113)
(0.12738 0 -0.00633244)
(0.130371 0 -0.00671438)
(0.131895 0 -0.00704506)
(0.13209 0 -0.00732096)
(0.131079 0 -0.00753697)
(0.128975 0 -0.00768589)
(0.12588 0 -0.00775809)
(0.121889 0 -0.00774168)
(0.117097 0 -0.00762267)
(0.111595 0 -0.007384)
(0.10548 0 -0.00700471)
(0.0988503 0 -0.00645977)
(0.0918146 0 -0.00571815)
(0.0845188 0 -0.00474612)
(0.0771479 0 -0.0035077)
(0.0699483 0 -0.00196446)
(0.0632498 0 -7.48283e-05)
(0.0575458 0 0.00219029)
(0.0536542 0 0.0047949)
(0.0527995 0 0.00757134)
(0.057829 0 0.0095438)
(0.0566001 0 0.0140126)
(0 0 0)
(0.0259456 0 -0.00144079)
(0.048929 0 -0.00273058)
(0.0683036 0 -0.00385407)
(0.0844637 0 -0.00484497)
(0.0977886 0 -0.0057292)
(0.108604 0 -0.00652387)
(0.117185 0 -0.00723962)
(0.123769 0 -0.00788588)
(0.128566 0 -0.00846851)
(0.131762 0 -0.00898725)
(0.133516 0 -0.00944002)
(0.13397 0 -0.00982267)
(0.133255 0 -0.0101294)
(0.131488 0 -0.0103518)
(0.128778 0 -0.0104782)
(0.12523 0 -0.0104942)
(0.120949 0 -0.0103841)
(0.116043 0 -0.0101285)
(0.110624 0 -0.00970314)
(0.104814 0 -0.00908034)
(0.0987632 0 -0.00822884)
(0.092657 0 -0.00711557)
(0.0867303 0 -0.00570602)
(0.0813153 0 -0.00397288)
(0.07687 0 -0.00190137)
(0.0740719 0 0.000482262)
(0.0739989 0 0.00303758)
(0.078466 0 0.00532908)
(0.0914172 0 0.00553331)
(0.0960914 0 0.00929088)
(0 0 0)
(0.0260888 0 -0.00179805)
(0.0492095 0 -0.00340858)
(0.0687205 0 -0.00481309)
(0.0850242 0 -0.00605335)
(0.0985031 0 -0.00716131)
(0.109486 0 -0.0081588)
(0.118251 0 -0.00906092)
(0.125042 0 -0.00987874)
(0.130072 0 -0.0106184)
(0.133526 0 -0.0112811)
(0.13557 0 -0.0118651)
(0.136352 0 -0.0123659)
(0.136008 0 -0.012778)
(0.134666 0 -0.0130931)
(0.132441 0 -0.013298)
(0.129448 0 -0.0133767)
(0.125806 0 -0.0133143)
(0.121646 0 -0.013093)
(0.1171 0 -0.0126878)
(0.112317 0 -0.0120719)
(0.107483 0 -0.0112187)
(0.102839 0 -0.010105)
(0.0986828 0 -0.00871051)
(0.0954423 0 -0.00703771)
(0.0937155 0 -0.00512341)
(0.0943823 0 -0.00308619)
(0.0988965 0 -0.00126401)
(0.109463 0 -0.000403227)
(0.131732 0 -0.00353757)
(0.143075 0 -0.00174823)
(0 0 0)
(0.0262612 0 -0.00215295)
(0.0495484 0 -0.00408268)
(0.0692239 0 -0.00576733)
(0.0856994 0 -0.00725684)
(0.0993627 0 -0.00858952)
(0.110546 0 -0.00979178)
(0.119534 0 -0.010883)
(0.126573 0 -0.0118765)
(0.131879 0 -0.0127795)
(0.135642 0 -0.0135944)
(0.138034 0 -0.0143204)
(0.139206 0 -0.0149527)
(0.139306 0 -0.0154877)
(0.138469 0 -0.0159185)
(0.136823 0 -0.016232)
(0.134494 0 -0.0164131)
(0.131616 0 -0.0164479)
(0.128338 0 -0.0163203)
(0.124821 0 -0.0160105)
(0.121247 0 -0.0154994)
(0.117838 0 -0.0147682)
(0.114885 0 -0.0138107)
(0.112777 0 -0.0126401)
(0.11204 0 -0.0113037)
(0.113422 0 -0.00991835)
(0.11801 0 -0.00873091)
(0.127649 0 -0.00833108)
(0.145151 0 -0.00991564)
(0.177914 0 -0.0179977)
(0.195719 0 -0.019202)
(0 0 0)
(0.0264615 0 -0.00250502)
(0.0499427 0 -0.00475211)
(0.0698091 0 -0.00671591)
(0.0864832 0 -0.00845463)
(0.10036 0 -0.0100132)
(0.111775 0 -0.0114223)
(0.121022 0 -0.012706)
(0.128348 0 -0.0138805)
(0.133973 0 -0.0149539)
(0.138093 0 -0.0159309)
(0.140885 0 -0.0168118)
(0.142511 0 -0.017594)
(0.143124 0 -0.0182746)
(0.142868 0 -0.0188474)
(0.141885 0 -0.0193021)
(0.140319 0 -0.0196289)
(0.138315 0 -0.0198134)
(0.136035 0 -0.0198415)
(0.133673 0 -0.0197049)
(0.13145 0 -0.0193971)
(0.129636 0 -0.0189184)
(0.128581 0 -0.0182888)
(0.128757 0 -0.0175631)
(0.130776 0 -0.0168445)
(0.135555 0 -0.0163565)
(0.144485 0 -0.0165381)
(0.159755 0 -0.0182734)
(0.185289 0 -0.0234683)
(0.229268 0 -0.0379168)
(0.252267 0 -0.0426478)
(0 0 0)
(0.0266886 0 -0.00285456)
(0.0503899 0 -0.00541667)
(0.0704708 0 -0.00765784)
(0.0873687 0 -0.00964562)
(0.101486 0 -0.0114316)
(0.113165 0 -0.0130518)
(0.122706 0 -0.0145338)
(0.130357 0 -0.0158956)
(0.136341 0 -0.0171478)
(0.140862 0 -0.0182974)
(0.144105 0 -0.0193476)
(0.146243 0 -0.0202996)
(0.147432 0 -0.0211495)
(0.147823 0 -0.0218907)
(0.147573 0 -0.0225187)
(0.146843 0 -0.0230286)
(0.145795 0 -0.0234115)
(0.144612 0 -0.0236608)
(0.14352 0 -0.0237819)
(0.142777 0 -0.0237854)
(0.142698 0 -0.0236936)
(0.143689 0 -0.0235583)
(0.146304 0 -0.0234868)
(0.151272 0 -0.0236607)
(0.159675 0 -0.024424)
(0.173207 0 -0.0264368)
(0.194653 0 -0.0310023)
(0.229082 0 -0.0408729)
(0.283823 0 -0.0624308)
(0.311297 0 -0.0710986)
(0 0 0)
(0.026936 0 -0.00320126)
(0.0508778 0 -0.00607574)
(0.0712001 0 -0.00859324)
(0.0883506 0 -0.0108309)
(0.102739 0 -0.0128466)
(0.114714 0 -0.0146831)
(0.124578 0 -0.0163696)
(0.132586 0 -0.0179251)
(0.138966 0 -0.0193644)
(0.143929 0 -0.0206976)
(0.147667 0 -0.0219303)
(0.150359 0 -0.0230665)
(0.152171 0 -0.0241042)
(0.153264 0 -0.0250397)
(0.153808 0 -0.0258741)
(0.153976 0 -0.0266068)
(0.153957 0 -0.0272405)
(0.153961 0 -0.0277822)
(0.154236 0 -0.0282487)
(0.155077 0 -0.0286698)
(0.15683 0 -0.0290912)
(0.159968 0 -0.0296075)
(0.165128 0 -0.0303851)
(0.173155 0 -0.0316938)
(0.185317 0 -0.03402)
(0.203602 0 -0.0382545)
(0.231401 0 -0.0461474)
(0.274495 0 -0.0612271)
(0.338731 0 -0.089932)
(0.371873 0 -0.103528)
(0 0 0)
(0.0272007 0 -0.0035436)
(0.0514021 0 -0.00672824)
(0.071992 0 -0.00952222)
(0.0894225 0 -0.0120108)
(0.104108 0 -0.0142583)
(0.116405 0 -0.0163124)
(0.126618 0 -0.0182056)
(0.13501 0 -0.0199602)
(0.141817 0 -0.0215945)
(0.147256 0 -0.0231215)
(0.151525 0 -0.0245497)
(0.154808 0 -0.0258846)
(0.157284 0 -0.0271294)
(0.159125 0 -0.0282862)
(0.160516 0 -0.029362)
(0.161647 0 -0.0303649)
(0.162723 0 -0.031306)
(0.163982 0 -0.0322064)
(0.165688 0 -0.0330954)
(0.168162 0 -0.0340235)
(0.171812 0 -0.0350748)
(0.177177 0 -0.036392)
(0.184934 0 -0.0381892)
(0.196051 0 -0.0408343)
(0.211998 0 -0.0449689)
(0.235026 0 -0.051711)
(0.26898 0 -0.0632229)
(0.320142 0 -0.0837431)
(0.392885 0 -0.119421)
(0.433354 0 -0.139092)
(0 0 0)
(0.0274844 0 -0.00388057)
(0.0519658 0 -0.00737216)
(0.0728419 0 -0.010441)
(0.0905719 0 -0.0131798)
(0.105576 0 -0.0156594)
(0.118215 0 -0.0179318)
(0.1288 0 -0.0200338)
(0.137601 0 -0.0219926)
(0.144862 0 -0.0238292)
(0.150807 0 -0.0255601)
(0.155638 0 -0.0271972)
(0.159548 0 -0.028748)
(0.162725 0 -0.0302225)
(0.165359 0 -0.0316305)
(0.167644 0 -0.032984)
(0.169786 0 -0.0343003)
(0.172 0 -0.0355969)
(0.174536 0 -0.0369061)
(0.177699 0 -0.0382827)
(0.181847 0 -0.0398045)
(0.187433 0 -0.0415908)
(0.195026 0 -0.0438206)
(0.205366 0 -0.0467718)
(0.219561 0 -0.0509184)
(0.239231 0 -0.057042)
(0.26688 0 -0.0664927)
(0.30681 0 -0.0818552)
(0.365733 0 -0.108011)
(0.446176 0 -0.15032)
(0.495246 0 -0.176952)
(0 0 0)
(0.0277844 0 -0.00421134)
(0.052562 0 -0.008005)
(0.0737401 0 -0.0113452)
(0.0917865 0 -0.0143326)
(0.107128 0 -0.0170443)
(0.120128 0 -0.0195366)
(0.131105 0 -0.0218508)
(0.140339 0 -0.0240189)
(0.148077 0 -0.0260648)
(0.154552 0 -0.0280095)
(0.159974 0 -0.0298691)
(0.164541 0 -0.031655)
(0.168455 0 -0.0333828)
(0.171917 0 -0.0350695)
(0.175124 0 -0.0367312)
(0.178293 0 -0.0383906)
(0.181656 0 -0.040079)
(0.18549 0 -0.0418477)
(0.190132 0 -0.0437749)
(0.195965 0 -0.0459624)
(0.203459 0 -0.048556)
(0.213227 0 -0.0517803)
(0.226107 0 -0.0559896)
(0.243292 0 -0.0617471)
(0.26654 0 -0.0699712)
(0.298629 0 -0.0822533)
(0.344336 0 -0.101609)
(0.410782 0 -0.133494)
(0.498018 0 -0.181841)
(0.557144 0 -0.216264)
(0 0 0)
(0.0280977 0 -0.00453506)
(0.053185 0 -0.00862522)
(0.0746785 0 -0.0122329)
(0.0930565 0 -0.0154668)
(0.108751 0 -0.0184102)
(0.122129 0 -0.0211238)
(0.133517 0 -0.023653)
(0.143201 0 -0.0260353)
(0.151441 0 -0.0282995)
(0.15847 0 -0.0304695)
(0.164506 0 -0.0325646)
(0.169757 0 -0.0346029)
(0.174428 0 -0.0366028)
(0.178725 0 -0.0385846)
(0.182862 0 -0.0405743)
(0.187062 0 -0.0426035)
(0.191585 0 -0.0447218)
(0.196739 0 -0.0470013)
(0.20285 0 -0.0495268)
(0.210316 0 -0.0524206)
(0.219659 0 -0.0558721)
(0.231547 0 -0.0601571)
(0.246856 0 -0.0656822)
(0.266852 0 -0.0730922)
(0.293426 0 -0.0834401)
(0.329606 0 -0.0985443)
(0.380626 0 -0.121828)
(0.454069 0 -0.159258)
(0.547125 0 -0.212857)
(0.618858 0 -0.256323)
(0 0 0)
(0.0284215 0 -0.00485087)
(0.0538294 0 -0.00923123)
(0.0756494 0 -0.0131018)
(0.0943723 0 -0.0165797)
(0.110434 0 -0.0197541)
(0.124205 0 -0.0226898)
(0.13602 0 -0.0254382)
(0.146177 0 -0.0280413)
(0.154938 0 -0.0305329)
(0.162539 0 -0.0329378)
(0.169201 0 -0.0352773)
(0.175142 0 -0.0375767)
(0.180572 0 -0.0398585)
(0.185703 0 -0.0421484)
(0.190768 0 -0.0444854)
(0.196009 0 -0.0469147)
(0.2017 0 -0.0494981)
(0.208143 0 -0.0523142)
(0.215667 0 -0.05546)
(0.224712 0 -0.0590929)
(0.235839 0 -0.0634402)
(0.249723 0 -0.0688067)
(0.267285 0 -0.0756546)
(0.28984 0 -0.0846967)
(0.319362 0 -0.0970915)
(0.359078 0 -0.114854)
(0.414541 0 -0.14172)
(0.49341 0 -0.183837)
(0.591073 0 -0.241686)
(0.680355 0 -0.296669)
(0 0 0)
(0.0287569 0 -0.00516076)
(0.0544962 0 -0.00982684)
(0.076656 0 -0.0139585)
(0.0957406 0 -0.0176808)
(0.112186 0 -0.0210876)
(0.126368 0 -0.0242486)
(0.138631 0 -0.0272222)
(0.149278 0 -0.0300528)
(0.158571 0 -0.0327758)
(0.166753 0 -0.0354204)
(0.174049 0 -0.0380124)
(0.180686 0 -0.0405821)
(0.186879 0 -0.043158)
(0.192857 0 -0.0457764)
(0.198863 0 -0.0484856)
(0.205147 0 -0.0513399)
(0.211979 0 -0.0544062)
(0.219658 0 -0.0577705)
(0.228551 0 -0.0615605)
(0.239126 0 -0.0659617)
(0.251926 0 -0.0712117)
(0.267642 0 -0.0776482)
(0.287237 0 -0.0857854)
(0.312031 0 -0.0963811)
(0.344017 0 -0.110658)
(0.386432 0 -0.130718)
(0.444742 0 -0.160372)
(0.525817 0 -0.205404)
(0.625298 0 -0.266028)
(0.741837 0 -0.337212)
(0 0 0)
(0.0256864 0 0)
(0.0484259 0 0)
(0.0675559 0 0)
(0.0834524 0 0)
(0.0964936 0 0)
(0.107004 0 0)
(0.115249 0 0)
(0.121459 0 0)
(0.125839 0 0)
(0.128565 0 0)
(0.12979 0 0)
(0.129645 0 0)
(0.128249 0 0)
(0.125704 0 0)
(0.122103 0 0)
(0.11753 0 0)
(0.112062 0 0)
(0.105769 0 0)
(0.0987212 0 0)
(0.0909855 0 0)
(0.082637 0 0)
(0.0737591 0 0)
(0.0644436 0 0)
(0.0547983 0 0)
(0.0449598 0 0)
(0.0351199 0 0)
(0.0255939 0 0)
(0.016991 0 0)
(0.0108169 0 0)
(1.05067e-09 0 0)
(0 0 0)
(0.0257038 0 -0.000359907)
(0.0484594 0 -0.0006818)
(0.0676058 0 -0.000962018)
(0.0835174 0 -0.00120861)
(0.0965751 0 -0.00142792)
(0.107105 0 -0.00162477)
(0.115371 0 -0.00180316)
(0.121605 0 -0.00196357)
(0.126011 0 -0.00210562)
(0.128767 0 -0.00223042)
(0.130025 0 -0.00233737)
(0.129919 0 -0.00242516)
(0.128566 0 -0.00249178)
(0.12607 0 -0.00253449)
(0.122527 0 -0.00254969)
(0.118019 0 -0.00253287)
(0.112627 0 -0.00247854)
(0.106424 0 -0.00237986)
(0.0994813 0 -0.00222832)
(0.0918693 0 -0.00201306)
(0.0836679 0 -0.00172331)
(0.0749706 0 -0.00134578)
(0.0658803 0 -0.000862185)
(0.0565233 0 -0.000251597)
(0.0470637 0 0.000510297)
(0.0377293 0 0.00145138)
(0.028863 0 0.00260344)
(0.0211035 0 0.00398824)
(0.0162756 0 0.00546299)
(0.00752632 0 0.00784638)
(0 0 0)
(0.0257523 0 -0.000720905)
(0.0485542 0 -0.00136573)
(0.0677468 0 -0.00192597)
(0.0837082 0 -0.00241886)
(0.0968198 0 -0.00285825)
(0.107408 0 -0.00325267)
(0.11574 0 -0.0036086)
(0.122043 0 -0.00392862)
(0.126526 0 -0.00421375)
(0.12937 0 -0.00446508)
(0.130728 0 -0.00468132)
(0.130735 0 -0.00485992)
(0.129511 0 -0.00499711)
(0.127163 0 -0.00508767)
(0.123788 0 -0.00512471)
(0.119476 0 -0.00509967)
(0.11431 0 -0.0050022)
(0.108373 0 -0.00481958)
(0.101746 0 -0.00453611)
(0.0945062 0 -0.00413201)
(0.0867446 0 -0.00358537)
(0.0785785 0 -0.00287109)
(0.0701444 0 -0.00195758)
(0.0616141 0 -0.000808549)
(0.0532216 0 0.000616933)
(0.0453154 0 0.00235888)
(0.0384191 0 0.00444225)
(0.0332934 0 0.00685379)
(0.0322829 0 0.00914704)
(0.0265151 0 0.0130555)
(0 0 0)
(0.0258331 0 -0.00108162)
(0.0487097 0 -0.00204939)
(0.0679776 0 -0.00289101)
(0.0840233 0 -0.00363229)
(0.0972255 0 -0.00429351)
(0.10791 0 -0.00488714)
(0.116346 0 -0.0054208)
(0.122765 0 -0.00590113)
(0.12738 0 -0.00633244)
(0.130371 0 -0.00671438)
(0.131895 0 -0.00704506)
(0.13209 0 -0.00732096)
(0.131079 0 -0.00753697)
(0.128975 0 -0.00768589)
(0.12588 0 -0.00775809)
(0.121889 0 -0.00774168)
(0.117097 0 -0.00762267)
(0.111595 0 -0.007384)
(0.10548 0 -0.00700471)
(0.0988503 0 -0.00645977)
(0.0918146 0 -0.00571815)
(0.0845188 0 -0.00474612)
(0.0771479 0 -0.0035077)
(0.0699483 0 -0.00196446)
(0.0632498 0 -7.48283e-05)
(0.0575458 0 0.00219029)
(0.0536542 0 0.0047949)
(0.0527995 0 0.00757134)
(0.057829 0 0.0095438)
(0.0566001 0 0.0140126)
(0 0 0)
(0.0259456 0 -0.00144079)
(0.048929 0 -0.00273058)
(0.0683036 0 -0.00385407)
(0.0844637 0 -0.00484497)
(0.0977886 0 -0.0057292)
(0.108604 0 -0.00652387)
(0.117185 0 -0.00723962)
(0.123769 0 -0.00788588)
(0.128566 0 -0.00846851)
(0.131762 0 -0.00898725)
(0.133516 0 -0.00944002)
(0.13397 0 -0.00982267)
(0.133255 0 -0.0101294)
(0.131488 0 -0.0103518)
(0.128778 0 -0.0104782)
(0.12523 0 -0.0104942)
(0.120949 0 -0.0103841)
(0.116043 0 -0.0101285)
(0.110624 0 -0.00970314)
(0.104814 0 -0.00908034)
(0.0987632 0 -0.00822884)
(0.092657 0 -0.00711557)
(0.0867303 0 -0.00570602)
(0.0813153 0 -0.00397288)
(0.07687 0 -0.00190137)
(0.0740719 0 0.000482262)
(0.0739989 0 0.00303758)
(0.078466 0 0.00532908)
(0.0914172 0 0.00553331)
(0.0960914 0 0.00929088)
(0 0 0)
(0.0260888 0 -0.00179805)
(0.0492095 0 -0.00340858)
(0.0687205 0 -0.00481309)
(0.0850242 0 -0.00605335)
(0.0985031 0 -0.00716131)
(0.109486 0 -0.0081588)
(0.118251 0 -0.00906092)
(0.125042 0 -0.00987874)
(0.130072 0 -0.0106184)
(0.133526 0 -0.0112811)
(0.13557 0 -0.0118651)
(0.136352 0 -0.0123659)
(0.136008 0 -0.012778)
(0.134666 0 -0.0130931)
(0.132441 0 -0.013298)
(0.129448 0 -0.0133767)
(0.125806 0 -0.0133143)
(0.121646 0 -0.013093)
(0.1171 0 -0.0126878)
(0.112317 0 -0.0120719)
(0.107483 0 -0.0112187)
(0.102839 0 -0.010105)
(0.0986828 0 -0.00871051)
(0.0954423 0 -0.00703771)
(0.0937155 0 -0.00512341)
(0.0943823 0 -0.00308619)
(0.0988965 0 -0.00126401)
(0.109463 0 -0.000403227)
(0.131732 0 -0.00353757)
(0.143075 0 -0.00174823)
(0 0 0)
(0.0262612 0 -0.00215295)
(0.0495484 0 -0.00408268)
(0.0692239 0 -0.00576733)
(0.0856994 0 -0.00725684)
(0.0993627 0 -0.00858952)
(0.110546 0 -0.00979178)
(0.119534 0 -0.010883)
(0.126573 0 -0.0118765)
(0.131879 0 -0.0127795)
(0.135642 0 -0.0135944)
(0.138034 0 -0.0143204)
(0.139206 0 -0.0149527)
(0.139306 0 -0.0154877)
(0.138469 0 -0.0159185)
(0.136823 0 -0.016232)
(0.134494 0 -0.0164131)
(0.131616 0 -0.0164479)
(0.128338 0 -0.0163203)
(0.124821 0 -0.0160105)
(0.121247 0 -0.0154994)
(0.117838 0 -0.0147682)
(0.114885 0 -0.0138107)
(0.112777 0 -0.0126401)
(0.11204 0 -0.0113037)
(0.113422 0 -0.00991835)
(0.11801 0 -0.00873091)
(0.127649 0 -0.00833108)
(0.145151 0 -0.00991564)
(0.177914 0 -0.0179977)
(0.195719 0 -0.019202)
(0 0 0)
(0.0264615 0 -0.00250502)
(0.0499427 0 -0.00475211)
(0.0698091 0 -0.00671591)
(0.0864832 0 -0.00845463)
(0.10036 0 -0.0100132)
(0.111775 0 -0.0114223)
(0.121022 0 -0.012706)
(0.128348 0 -0.0138805)
(0.133973 0 -0.0149539)
(0.138093 0 -0.0159309)
(0.140885 0 -0.0168118)
(0.142511 0 -0.017594)
(0.143124 0 -0.0182746)
(0.142868 0 -0.0188474)
(0.141885 0 -0.0193021)
(0.140319 0 -0.0196289)
(0.138315 0 -0.0198134)
(0.136035 0 -0.0198415)
(0.133673 0 -0.0197049)
(0.13145 0 -0.0193971)
(0.129636 0 -0.0189184)
(0.128581 0 -0.0182888)
(0.128757 0 -0.0175631)
(0.130776 0 -0.0168445)
(0.135555 0 -0.0163565)
(0.144485 0 -0.0165381)
(0.159755 0 -0.0182734)
(0.185289 0 -0.0234683)
(0.229268 0 -0.0379168)
(0.252267 0 -0.0426478)
(0 0 0)
(0.0266886 0 -0.00285456)
(0.0503899 0 -0.00541667)
(0.0704708 0 -0.00765784)
(0.0873687 0 -0.00964562)
(0.101486 0 -0.0114316)
(0.113165 0 -0.0130518)
(0.122706 0 -0.0145338)
(0.130357 0 -0.0158956)
(0.136341 0 -0.0171478)
(0.140862 0 -0.0182974)
(0.144105 0 -0.0193476)
(0.146243 0 -0.0202996)
(0.147432 0 -0.0211495)
(0.147823 0 -0.0218907)
(0.147573 0 -0.0225187)
(0.146843 0 -0.0230286)
(0.145795 0 -0.0234115)
(0.144612 0 -0.0236608)
(0.14352 0 -0.0237819)
(0.142777 0 -0.0237854)
(0.142698 0 -0.0236936)
(0.143689 0 -0.0235583)
(0.146304 0 -0.0234868)
(0.151272 0 -0.0236607)
(0.159675 0 -0.024424)
(0.173207 0 -0.0264368)
(0.194653 0 -0.0310023)
(0.229082 0 -0.0408729)
(0.283823 0 -0.0624308)
(0.311297 0 -0.0710986)
(0 0 0)
(0.026936 0 -0.00320126)
(0.0508778 0 -0.00607574)
(0.0712001 0 -0.00859324)
(0.0883506 0 -0.0108309)
(0.102739 0 -0.0128466)
(0.114714 0 -0.0146831)
(0.124578 0 -0.0163696)
(0.132586 0 -0.0179251)
(0.138966 0 -0.0193644)
(0.143929 0 -0.0206976)
(0.147667 0 -0.0219303)
(0.150359 0 -0.0230665)
(0.152171 0 -0.0241042)
(0.153264 0 -0.0250397)
(0.153808 0 -0.0258741)
(0.153976 0 -0.0266068)
(0.153957 0 -0.0272405)
(0.153961 0 -0.0277822)
(0.154236 0 -0.0282487)
(0.155077 0 -0.0286698)
(0.15683 0 -0.0290912)
(0.159968 0 -0.0296075)
(0.165128 0 -0.0303851)
(0.173155 0 -0.0316938)
(0.185317 0 -0.03402)
(0.203602 0 -0.0382545)
(0.231401 0 -0.0461474)
(0.274495 0 -0.0612271)
(0.338731 0 -0.089932)
(0.371873 0 -0.103528)
(0 0 0)
(0.0272007 0 -0.0035436)
(0.0514021 0 -0.00672824)
(0.071992 0 -0.00952222)
(0.0894225 0 -0.0120108)
(0.104108 0 -0.0142583)
(0.116405 0 -0.0163124)
(0.126618 0 -0.0182056)
(0.13501 0 -0.0199602)
(0.141817 0 -0.0215945)
(0.147256 0 -0.0231215)
(0.151525 0 -0.0245497)
(0.154808 0 -0.0258846)
(0.157284 0 -0.0271294)
(0.159125 0 -0.0282862)
(0.160516 0 -0.029362)
(0.161647 0 -0.0303649)
(0.162723 0 -0.031306)
(0.163982 0 -0.0322064)
(0.165688 0 -0.0330954)
(0.168162 0 -0.0340235)
(0.171812 0 -0.0350748)
(0.177177 0 -0.036392)
(0.184934 0 -0.0381892)
(0.196051 0 -0.0408343)
(0.211998 0 -0.0449689)
(0.235026 0 -0.051711)
(0.26898 0 -0.0632229)
(0.320142 0 -0.0837431)
(0.392885 0 -0.119421)
(0.433354 0 -0.139092)
(0 0 0)
(0.0274844 0 -0.00388057)
(0.0519658 0 -0.00737216)
(0.0728419 0 -0.010441)
(0.0905719 0 -0.0131798)
(0.105576 0 -0.0156594)
(0.118215 0 -0.0179318)
(0.1288 0 -0.0200338)
(0.137601 0 -0.0219926)
(0.144862 0 -0.0238292)
(0.150807 0 -0.0255601)
(0.155638 0 -0.0271972)
(0.159548 0 -0.028748)
(0.162725 0 -0.0302225)
(0.165359 0 -0.0316305)
(0.167644 0 -0.032984)
(0.169786 0 -0.0343003)
(0.172 0 -0.0355969)
(0.174536 0 -0.0369061)
(0.177699 0 -0.0382827)
(0.181847 0 -0.0398045)
(0.187433 0 -0.0415908)
(0.195026 0 -0.0438206)
(0.205366 0 -0.0467718)
(0.219561 0 -0.0509184)
(0.239231 0 -0.057042)
(0.26688 0 -0.0664927)
(0.30681 0 -0.0818552)
(0.365733 0 -0.108011)
(0.446176 0 -0.15032)
(0.495246 0 -0.176952)
(0 0 0)
(0.0277844 0 -0.00421134)
(0.052562 0 -0.008005)
(0.0737401 0 -0.0113452)
(0.0917865 0 -0.0143326)
(0.107128 0 -0.0170443)
(0.120128 0 -0.0195366)
(0.131105 0 -0.0218508)
(0.140339 0 -0.0240189)
(0.148077 0 -0.0260648)
(0.154552 0 -0.0280095)
(0.159974 0 -0.0298691)
(0.164541 0 -0.031655)
(0.168455 0 -0.0333828)
(0.171917 0 -0.0350695)
(0.175124 0 -0.0367312)
(0.178293 0 -0.0383906)
(0.181656 0 -0.040079)
(0.18549 0 -0.0418477)
(0.190132 0 -0.0437749)
(0.195965 0 -0.0459624)
(0.203459 0 -0.048556)
(0.213227 0 -0.0517803)
(0.226107 0 -0.0559896)
(0.243292 0 -0.0617471)
(0.26654 0 -0.0699712)
(0.298629 0 -0.0822533)
(0.344336 0 -0.101609)
(0.410782 0 -0.133494)
(0.498018 0 -0.181841)
(0.557144 0 -0.216264)
(0 0 0)
(0.0280977 0 -0.00453506)
(0.053185 0 -0.00862522)
(0.0746785 0 -0.0122329)
(0.0930565 0 -0.0154668)
(0.108751 0 -0.0184102)
(0.122129 0 -0.0211238)
(0.133517 0 -0.023653)
(0.143201 0 -0.0260353)
(0.151441 0 -0.0282995)
(0.15847 0 -0.0304695)
(0.164506 0 -0.0325646)
(0.169757 0 -0.0346029)
(0.174428 0 -0.0366028)
(0.178725 0 -0.0385846)
(0.182862 0 -0.0405743)
(0.187062 0 -0.0426035)
(0.191585 0 -0.0447218)
(0.196739 0 -0.0470013)
(0.20285 0 -0.0495268)
(0.210316 0 -0.0524206)
(0.219659 0 -0.0558721)
(0.231547 0 -0.0601571)
(0.246856 0 -0.0656822)
(0.266852 0 -0.0730922)
(0.293426 0 -0.0834401)
(0.329606 0 -0.0985443)
(0.380626 0 -0.121828)
(0.454069 0 -0.159258)
(0.547125 0 -0.212857)
(0.618858 0 -0.256323)
(0 0 0)
(0.0284215 0 -0.00485087)
(0.0538294 0 -0.00923123)
(0.0756494 0 -0.0131018)
(0.0943723 0 -0.0165797)
(0.110434 0 -0.0197541)
(0.124205 0 -0.0226898)
(0.13602 0 -0.0254382)
(0.146177 0 -0.0280413)
(0.154938 0 -0.0305329)
(0.162539 0 -0.0329378)
(0.169201 0 -0.0352773)
(0.175142 0 -0.0375767)
(0.180572 0 -0.0398585)
(0.185703 0 -0.0421484)
(0.190768 0 -0.0444854)
(0.196009 0 -0.0469147)
(0.2017 0 -0.0494981)
(0.208143 0 -0.0523142)
(0.215667 0 -0.05546)
(0.224712 0 -0.0590929)
(0.235839 0 -0.0634402)
(0.249723 0 -0.0688067)
(0.267285 0 -0.0756546)
(0.28984 0 -0.0846967)
(0.319362 0 -0.0970915)
(0.359078 0 -0.114854)
(0.414541 0 -0.14172)
(0.49341 0 -0.183837)
(0.591073 0 -0.241686)
(0.680355 0 -0.296669)
(0 0 0)
(0.0287569 0 -0.00516076)
(0.0544962 0 -0.00982684)
(0.076656 0 -0.0139585)
(0.0957406 0 -0.0176808)
(0.112186 0 -0.0210876)
(0.126368 0 -0.0242486)
(0.138631 0 -0.0272222)
(0.149278 0 -0.0300528)
(0.158571 0 -0.0327758)
(0.166753 0 -0.0354204)
(0.174049 0 -0.0380124)
(0.180686 0 -0.0405821)
(0.186879 0 -0.043158)
(0.192857 0 -0.0457764)
(0.198863 0 -0.0484856)
(0.205147 0 -0.0513399)
(0.211979 0 -0.0544062)
(0.219658 0 -0.0577705)
(0.228551 0 -0.0615605)
(0.239126 0 -0.0659617)
(0.251926 0 -0.0712117)
(0.267642 0 -0.0776482)
(0.287237 0 -0.0857854)
(0.312031 0 -0.0963811)
(0.344017 0 -0.110658)
(0.386432 0 -0.130718)
(0.444742 0 -0.160372)
(0.525817 0 -0.205404)
(0.625298 0 -0.266028)
(0.741837 0 -0.337212)
(1.18931e-09 0 0)
(0.0396706 0 0)
(0.132978 0 0)
(0.303902 0 0)
(0.438223 0 0)
(0.504087 0 0)
(0.536518 0 0)
(0.554581 0 0)
(0.565004 0 0)
(0.570293 0 0)
(0.571625 0 0)
(0.569637 0 0)
(0.564699 0 0)
(0.557034 0 0)
(0.546751 0 0)
(0.533892 0 0)
(0.518463 0 0)
(0.500439 0 0)
(0.479779 0 0)
(0.456423 0 0)
(0.430304 0 0)
(0.401347 0 0)
(0.369473 0 0)
(0.3346 0 0)
(0.296641 0 0)
(0.255512 0 0)
(0.211126 0 0)
(0.1634 0 0)
(0.112261 0 0)
(0.0575325 0 0)
(0 0 0)
(0.00555722 0 -0.00938897)
(0.0457943 0 -0.0148396)
(0.141416 0 -0.0262217)
(0.310096 0 -0.0371785)
(0.440605 0 -0.0403185)
(0.505227 0 -0.0398325)
(0.537248 0 -0.0380051)
(0.555126 0 -0.0358647)
(0.565438 0 -0.0337474)
(0.57065 0 -0.0317147)
(0.571924 0 -0.0297744)
(0.569888 0 -0.0279026)
(0.564912 0 -0.0260377)
(0.557214 0 -0.0242278)
(0.546902 0 -0.0225274)
(0.534019 0 -0.0209166)
(0.51857 0 -0.0193902)
(0.500529 0 -0.01794)
(0.479855 0 -0.0165564)
(0.456487 0 -0.0152285)
(0.430359 0 -0.0139442)
(0.401395 0 -0.0126906)
(0.369515 0 -0.011454)
(0.334637 0 -0.0102194)
(0.296676 0 -0.00897093)
(0.255545 0 -0.00769074)
(0.21116 0 -0.00635885)
(0.163433 0 -0.00495215)
(0.112295 0 -0.00344387)
(0.0575643 0 -0.00179775)
(0 0 0)
(0.020479 0 -0.0198638)
(0.0636818 0 -0.0312823)
(0.163842 0 -0.0532305)
(0.326172 0 -0.0730969)
(0.447825 0 -0.0787906)
(0.508787 0 -0.077926)
(0.539515 0 -0.074587)
(0.556806 0 -0.0705508)
(0.566767 0 -0.0664724)
(0.571733 0 -0.0625111)
(0.572816 0 -0.0587023)
(0.570629 0 -0.054987)
(0.56553 0 -0.0513243)
(0.557729 0 -0.0478069)
(0.547329 0 -0.0444764)
(0.534372 0 -0.0413182)
(0.51886 0 -0.0383222)
(0.500767 0 -0.0354731)
(0.480048 0 -0.0327519)
(0.456644 0 -0.0301373)
(0.430486 0 -0.0276058)
(0.401498 0 -0.0251321)
(0.3696 0 -0.0226892)
(0.334708 0 -0.0202481)
(0.296736 0 -0.0177773)
(0.255598 0 -0.0152419)
(0.211207 0 -0.0126027)
(0.163476 0 -0.00981424)
(0.112331 0 -0.00682407)
(0.0575883 0 -0.00356132)
(0 0 0)
(0.0444901 0 -0.0329498)
(0.0922356 0 -0.0506928)
(0.197699 0 -0.0819368)
(0.349666 0 -0.107778)
(0.458948 0 -0.115073)
(0.514596 0 -0.113872)
(0.543305 0 -0.109304)
(0.559632 0 -0.103654)
(0.568999 0 -0.0978021)
(0.573542 0 -0.09205)
(0.574298 0 -0.0864385)
(0.571849 0 -0.0809387)
(0.566539 0 -0.075592)
(0.558561 0 -0.0704729)
(0.548013 0 -0.0656062)
(0.534932 0 -0.060986)
(0.519315 0 -0.0565981)
(0.501135 0 -0.0524201)
(0.480343 0 -0.0484246)
(0.456878 0 -0.0445803)
(0.430671 0 -0.040853)
(0.401643 0 -0.0372058)
(0.369715 0 -0.0335994)
(0.3348 0 -0.0299914)
(0.296812 0 -0.0263356)
(0.255662 0 -0.0225811)
(0.211264 0 -0.0186704)
(0.163526 0 -0.0145373)
(0.112374 0 -0.0101053)
(0.057617 0 -0.0052714)
(0 0 0)
(0.0765456 0 -0.049536)
(0.12984 0 -0.0738113)
(0.239363 0 -0.11265)
(0.377865 0 -0.141599)
(0.473079 0 -0.149435)
(0.522432 0 -0.147772)
(0.548567 0 -0.142125)
(0.563594 0 -0.135073)
(0.572129 0 -0.127624)
(0.576065 0 -0.120197)
(0.576347 0 -0.112857)
(0.573523 0 -0.105675)
(0.567911 0 -0.098755)
(0.559683 0 -0.0921317)
(0.548927 0 -0.0858272)
(0.53567 0 -0.0798362)
(0.519907 0 -0.0741394)
(0.501604 0 -0.0687081)
(0.480711 0 -0.0635065)
(0.457163 0 -0.0584942)
(0.430888 0 -0.0536269)
(0.401807 0 -0.0488572)
(0.369836 0 -0.044134)
(0.334891 0 -0.0394026)
(0.296881 0 -0.0346034)
(0.255717 0 -0.0296703)
(0.21131 0 -0.024529)
(0.163567 0 -0.0190941)
(0.112408 0 -0.0132673)
(0.0576401 0 -0.00691665)
(0 0 0)
(0.115577 0 -0.0702068)
(0.174151 0 -0.100486)
(0.285388 0 -0.144964)
(0.408566 0 -0.174587)
(0.4894 0 -0.181957)
(0.532029 0 -0.179574)
(0.555208 0 -0.172945)
(0.568645 0 -0.164652)
(0.576116 0 -0.155757)
(0.579256 0 -0.14674)
(0.578922 0 -0.137791)
(0.575613 0 -0.129075)
(0.569609 0 -0.120695)
(0.561059 0 -0.112679)
(0.550034 0 -0.105044)
(0.536554 0 -0.0977814)
(0.520604 0 -0.0908666)
(0.502146 0 -0.084264)
(0.481124 0 -0.0779306)
(0.457471 0 -0.0718173)
(0.431111 0 -0.0658708)
(0.401963 0 -0.0600339)
(0.369942 0 -0.0542451)
(0.334959 0 -0.0484383)
(0.296923 0 -0.0425414)
(0.255744 0 -0.0364747)
(0.211329 0 -0.0301487)
(0.163583 0 -0.0234605)
(0.112423 0 -0.0162926)
(0.0576513 0 -0.00848744)
(0 0 0)
(0.160457 0 -0.0951308)
(0.222789 0 -0.13003)
(0.333116 0 -0.178144)
(0.440245 0 -0.206569)
(0.507251 0 -0.212649)
(0.543112 0 -0.209235)
(0.563097 0 -0.201651)
(0.574691 0 -0.192224)
(0.580877 0 -0.18199)
(0.583046 0 -0.171503)
(0.581965 0 -0.161111)
(0.578066 0 -0.151014)
(0.571584 0 -0.141306)
(0.562641 0 -0.132022)
(0.551292 0 -0.123172)
(0.537542 0 -0.114744)
(0.521369 0 -0.106709)
(0.502725 0 -0.099023)
(0.48155 0 -0.0916372)
(0.457772 0 -0.0844948)
(0.431313 0 -0.0775344)
(0.402087 0 -0.0706899)
(0.370007 0 -0.0638905)
(0.334982 0 -0.05706)
(0.296919 0 -0.0501151)
(0.255725 0 -0.042964)
(0.211304 0 -0.0355035)
(0.163561 0 -0.0276157)
(0.112408 0 -0.0191661)
(0.0576453 0 -0.00997574)
(0 0 0)
(0.21009 0 -0.124007)
(0.274162 0 -0.161802)
(0.380841 0 -0.211426)
(0.471948 0 -0.237229)
(0.52609 0 -0.241406)
(0.555393 0 -0.236708)
(0.572058 0 -0.228139)
(0.581592 0 -0.217621)
(0.586294 0 -0.206146)
(0.587344 0 -0.19437)
(0.585398 0 -0.182711)
(0.580811 0 -0.171385)
(0.573772 0 -0.160494)
(0.564374 0 -0.150075)
(0.55265 0 -0.140136)
(0.53859 0 -0.130657)
(0.522159 0 -0.121604)
(0.503303 0 -0.112929)
(0.481955 0 -0.104575)
(0.458036 0 -0.0964792)
(0.431465 0 -0.0885738)
(0.402153 0 -0.0807848)
(0.370008 0 -0.0730334)
(0.334938 0 -0.0652343)
(0.296848 0 -0.0572948)
(0.255642 0 -0.0491122)
(0.211222 0 -0.0405716)
(0.163489 0 -0.0315422)
(0.112356 0 -0.0218758)
(0.0576173 0 -0.0113751)
(0 0 0)
(0.263355 0 -0.156299)
(0.32737 0 -0.195351)
(0.427732 0 -0.24429)
(0.503079 0 -0.266234)
(0.545438 0 -0.26803)
(0.568579 0 -0.261911)
(0.581865 0 -0.25229)
(0.589157 0 -0.240697)
(0.59222 0 -0.228103)
(0.592032 0 -0.215225)
(0.589119 0 -0.202477)
(0.583761 0 -0.190091)
(0.576099 0 -0.178176)
(0.566193 0 -0.166769)
(0.55405 0 -0.155872)
(0.539645 0 -0.145463)
(0.52293 0 -0.135501)
(0.503841 0 -0.125933)
(0.482302 0 -0.116699)
(0.45823 0 -0.10773)
(0.431538 0 -0.0989519)
(0.402133 0 -0.0902846)
(0.369922 0 -0.0816426)
(0.334807 0 -0.0729333)
(0.296692 0 -0.0640555)