/*--------------------------------*- C++ -*----------------------------------*\
| =========                 |                                                 |
| \\      /  F ield         | OpenFOAM: The Open Source CFD Toolbox           |
|  \\    /   O peration     | Version:  dev                                   |
|   \\  /    A nd           | Web:      www.OpenFOAM.org                      |
|    \\/     M anipulation  |                                                 |
\*---------------------------------------------------------------------------*/
FoamFile
{
    version     2.0;
    format      ascii;
    class       surfaceScalarField;
    location    "4.95";
    object      meshPhi;
}
// * * * * * * * * * * * * * * * * * * * * * * * * * * * * * * * * * * * * * //

dimensions      [0 3 -1 0 0 0 0];

internalField   nonuniform List<scalar> 
882
(
3.08077e-05
-7.32275e-05
3.19308e-05
-5.38274e-05
2.56274e-05
1.93969e-05
-6.92662e-05
3.20054e-05
-4.93472e-05
2.52617e-05
-2.94124e-05
1.87617e-05
-1.03407e-05
1.28037e-05
7.42605e-06
-6.21274e-05
3.09855e-05
-4.18218e-05
2.4041e-05
-2.18767e-05
1.73749e-05
-2.85783e-06
1.12787e-05
1.46265e-05
5.80206e-06
3.00374e-05
9.88992e-07
-3.16489e-06
-5.1685e-05
2.87843e-05
-3.15342e-05
2.18262e-05
-1.17388e-05
1.5143e-05
7.19026e-06
9.02507e-06
2.47614e-05
3.50791e-06
4.06815e-05
-1.39508e-06
5.48831e-05
-5.71261e-06
6.75373e-05
-9.51195e-06
-1.28462e-05
7.79044e-05
-3.75526e-05
2.53229e-05
-1.79485e-05
1.85065e-05
1.37072e-06
1.19471e-05
1.99311e-05
5.92835e-06
3.73583e-05
4.74132e-07
5.34615e-05
-4.42427e-06
6.82786e-05
-8.80318e-06
8.19542e-05
-1.27152e-05
-1.61536e-05
9.33225e-05
-1.93539e-05
2.05427e-05
-6.02982e-07
1.39964e-05
1.79365e-05
7.69773e-06
3.58647e-05
1.89937e-06
5.29165e-05
-3.39029e-06
6.89586e-05
-8.1868e-06
8.39908e-05
-1.25213e-05
9.80824e-05
-1.64328e-05
-1.98854e-05
0.000109837
3.21234e-06
1.44307e-05
2.08693e-05
8.25553e-06
3.84009e-05
2.33643e-06
5.5511e-05
-3.13985e-06
7.19982e-05
-8.17441e-06
8.77465e-05
-1.27791e-05
0.00010273
-1.69763e-05
0.000116965
-2.07926e-05
-2.41722e-05
0.000128953
3.03466e-05
6.94592e-06
4.67557e-05
1.27012e-06
6.3165e-05
-4.16594e-06
7.93519e-05
-9.23754e-06
9.5145e-05
-1.39422e-05
0.000110435
-1.82831e-05
0.000125176
-2.22712e-05
0.000139348
-2.59213e-05
-2.91634e-05
0.000151388
6.21849e-05
-1.90641e-06
7.72744e-05
-6.91211e-06
9.25363e-05
-1.17756e-05
0.000107768
-1.6381e-05
0.00012281
-2.0704e-05
0.000137553
-2.47326e-05
0.000151934
-2.84648e-05
0.000165911
-3.19035e-05
-3.49674e-05
0.000177879
9.86775e-05
-1.17815e-05
0.000112495
-1.60856e-05
0.00012667
-2.03507e-05
0.000140991
-2.44673e-05
0.000155298
-2.83867e-05
0.000169479
-3.20805e-05
0.000183457
-3.55337e-05
0.000197171
-3.87382e-05
-4.16024e-05
0.000208996
0.000127556
-1.87023e-05
0.000139551
-2.22484e-05
0.000152305
-2.59332e-05
0.000165547
-2.9644e-05
0.000179072
-3.32915e-05
0.000192724
-3.68153e-05
0.000206387
-4.01753e-05
0.000219976
-4.33459e-05
0.000233414
-4.63094e-05
-4.89649e-05
0.000245065
0.000173319
-2.99422e-05
0.000184514
-3.2958e-05
0.000196472
-3.6102e-05
0.000208987
-3.93284e-05
0.000221878
-4.25523e-05
0.000234996
-4.57097e-05
0.000248225
-4.87539e-05
0.000261474
-5.16515e-05
0.000274654
-5.4377e-05
-5.68217e-05
0.000286123
0.000222604
-4.09e-05
0.000233244
-4.3488e-05
0.000244655
-4.61884e-05
0.00025666
-4.90067e-05
0.000269093
-5.18635e-05
0.000281817
-5.46944e-05
0.000294715
-5.74497e-05
0.000307689
-6.00905e-05
0.000320641
-6.25855e-05
-6.482e-05
0.000331928
0.000274944
-5.11339e-05
0.000285288
-5.33905e-05
0.00029639
-5.57378e-05
0.000308091
-5.8222e-05
0.000320241
-6.0769e-05
0.000332708
-6.33159e-05
0.000345374
-6.58112e-05
0.000358138
-6.82132e-05
0.000370891
-7.04859e-05
-7.2512e-05
0.000381995
0.000329789
-6.0176e-05
0.00034008
-6.21857e-05
0.000351089
-6.42596e-05
0.000362676
-6.64757e-05
0.0003747
-6.87646e-05
0.000387031
-7.10658e-05
0.000399554
-7.33277e-05
0.00041216
-7.55067e-05
0.000424734
-7.75646e-05
-7.93843e-05
0.000435647
0.000386506
-6.75511e-05
0.000396959
-6.93819e-05
0.000408066
-7.12471e-05
0.0004197
-7.32481e-05
0.000431728
-7.53207e-05
0.000444025
-7.74067e-05
0.000456473
-7.94559e-05
0.000468958
-8.14242e-05
0.00048136
-8.32722e-05
-8.48875e-05
0.000492067
0.000444387
-7.27951e-05
0.000455182
-7.44945e-05
0.000466543
-7.61976e-05
0.000478356
-7.80213e-05
0.000490493
-7.99062e-05
0.000502831
-8.17975e-05
0.000515251
-8.36467e-05
0.000527636
-8.54109e-05
0.000539861
-8.70509e-05
-8.84627e-05
0.000550342
0.000502653
-7.5471e-05
0.000513934
-7.70646e-05
0.000525674
-7.86327e-05
0.000537766
-8.02999e-05
0.000550088
-8.20116e-05
0.00056252
-8.37167e-05
0.000574941
-8.53694e-05
0.000587232
-8.69288e-05
0.000599266
-8.83576e-05
-8.95641e-05
0.000609497
0.000560461
-7.51859e-05
0.000572337
-7.66775e-05
0.000584547
-7.81178e-05
0.000596991
-7.9632e-05
0.000609551
-8.11703e-05
0.000622108
-8.26854e-05
0.000634543
-8.41349e-05
0.000646737
-8.54805e-05
0.000658562
-8.6688e-05
-8.76815e-05
0.00066852
0.000616906
-7.16068e-05
0.000629453
-7.29795e-05
0.000642196
-7.42809e-05
0.000655039
-7.56297e-05
0.000667869
-7.69809e-05
0.000680568
-7.82912e-05
0.00069302
-7.95214e-05
0.000705107
-8.06365e-05
0.000716705
-8.16054e-05
-8.23715e-05
0.000726369
0.00067101
-6.4479e-05
0.000684274
-6.56978e-05
0.000697587
-6.68331e-05
0.000710859
-6.79909e-05
0.000723977
-6.91311e-05
0.000736828
-7.02143e-05
0.000749296
-7.12046e-05
0.000761267
-7.207e-05
0.000772623
-7.27823e-05
-7.33054e-05
0.000781981
0.000721705
-5.36449e-05
0.000735705
-5.46597e-05
0.000749609
-5.55893e-05
0.000763327
-5.65216e-05
0.000776747
-5.74217e-05
0.000789759
-5.82552e-05
0.000802248
-5.89897e-05
0.000814105
-5.95961e-05
0.000825218
-6.00491e-05
-6.0331e-05
0.00083427
0.000767797
-3.90673e-05
0.00078253
-3.98156e-05
0.000797029
-4.04903e-05
0.000811206
-4.11566e-05
0.00082495
-4.17871e-05
0.000838147
-4.23544e-05
0.000850685
-4.28319e-05
0.000862458
-4.31952e-05
0.000873359
-4.34228e-05
-4.35098e-05
0.000882135
0.000807903
-2.0867e-05
0.000823325
-2.12748e-05
0.000838413
-2.16368e-05
0.000853069
-2.19903e-05
0.000867177
-2.23195e-05
0.000880619
-2.26083e-05
0.000893282
-2.28409e-05
0.000905056
-2.30023e-05
0.000915843
-2.30789e-05
-2.30706e-05
0.000924433
0.000839502
0.000855493
0.000871102
0.000886216
0.00090071
0.000914459
0.000927344
0.000939255
0.000950091
0.000958661
-7.30489e-06
0.000100825
-9.01853e-06
0.000105857
-1.01382e-05
-1.08145e-05
0.000111093
0.000117787
-1.09011e-05
0.000123582
-1.20649e-05
-1.28227e-05
0.000129951
0.000137142
-1.30254e-05
0.000143277
-1.42118e-05
-1.5024e-05
0.000150289
0.000159689
-1.54732e-05
0.000166011
-1.66631e-05
-1.74961e-05
0.000173417
0.00018618
-1.83076e-05
0.000192533
-1.94873e-05
-2.03087e-05
0.000200039
0.000217219
-2.15449e-05
0.000223467
-2.27054e-05
-2.3487e-05
0.0002308
0.000253159
-2.51383e-05
0.000259192
-2.62739e-05
-2.69938e-05
0.000266115
0.000294054
-2.89738e-05
0.000299791
-3.00811e-05
-3.07241e-05
0.000306121
0.000339671
-3.2877e-05
0.000345058
-3.39532e-05
-3.45111e-05
0.000350669
0.000389531
-3.66256e-05
0.000394533
-3.76679e-05
-3.81379e-05
0.000399352
0.000442958
-3.99647e-05
0.000447558
-4.09695e-05
-4.13533e-05
0.000451558
0.000499134
-4.26221e-05
0.000503327
-4.35839e-05
-4.38857e-05
0.000506513
0.000557146
-4.43206e-05
0.000560938
-4.52311e-05
-4.54561e-05
0.000563341
0.000616023
-4.4789e-05
0.000619424
-4.5636e-05
-4.57891e-05
0.000621092
0.000674754
-4.3773e-05
0.000677782
-4.45393e-05
-4.46247e-05
0.000678775
0.000732305
-4.10509e-05
0.000734983
-4.17148e-05
-4.17373e-05
0.00073537
0.000787618
-3.6461e-05
0.000789974
-3.69988e-05
-3.69672e-05
0.000789838
0.000839617
-2.99375e-05
0.000841691
-3.03307e-05
-3.02622e-05
0.00084113
0.000887225
-2.15338e-05
0.000889075
-2.17791e-05
-2.1702e-05
0.000888205
0.000929346
-1.13911e-05
0.000931058
-1.15035e-05
-1.14519e-05
0.000930015
0.000963524
0.000965199
0.000964093
-2.47537e-05
0.00013859
-2.91178e-05
0.000148789
-3.27878e-05
0.000159971
-3.71981e-05
-4.20761e-05
0.000160009
-3.37712e-05
0.000171515
-3.77758e-05
0.000183803
-4.25077e-05
0.000197034
-4.76914e-05
0.000211178
-5.34028e-05
-5.96292e-05
0.000183731
-3.88786e-05
0.000195883
-4.30997e-05
0.000208665
-4.80356e-05
0.000222249
-5.3369e-05
0.000236692
-5.91385e-05
0.000251905
-6.53928e-05
0.000267694
-7.21601e-05
-7.9337e-05
0.000210532
-4.45761e-05
0.000222879
-4.88855e-05
0.000235766
-5.3892e-05
0.000249239
-5.92602e-05
0.000263323
-6.50107e-05
0.000278088
-7.11645e-05
0.000293377
-7.77156e-05
0.000308792
-8.46408e-05
-9.15916e-05
0.000241045
-5.09223e-05
0.000253119
-5.51997e-05
0.00026568
-6.01522e-05
0.000278709
-6.54409e-05
0.000292199
-7.10713e-05
0.000306121
-7.70489e-05
0.000320322
-8.33598e-05
0.000334654
-8.99767e-05
-9.66097e-05
0.000275727
-5.7859e-05
0.0002871
-6.20043e-05
0.000298932
-6.67965e-05
0.00031116
-7.19047e-05
0.000323742
-7.73228e-05
0.000336605
-8.30461e-05
0.000349616
-8.90572e-05
0.000362628
-9.53354e-05
-0.000101605
0.000314793
-6.51969e-05
0.000325103
-6.91368e-05
0.000335855
-7.36878e-05
0.000346954
-7.85354e-05
0.000358332
-8.36665e-05
0.000369893
-8.90716e-05
0.000381525
-9.47315e-05
0.000393079
-0.000100623
-0.000106467
0.000358179
-7.26211e-05
0.000367155
-7.63096e-05
0.00037655
-8.05654e-05
0.000386244
-8.5096e-05
0.000396161
-8.98844e-05
0.000406193
-9.49198e-05
0.000416237
-0.000100184
0.00042612
-0.000105643
-0.000111007
0.000405567
-7.97124e-05
0.000413028
-8.31264e-05
0.000420865
-8.7057e-05
0.000428948
-9.12359e-05
0.000437193
-9.56445e-05
0.000445495
-0.000100272
0.000453735
-0.000105101
0.000461737
-0.000110097
-0.000114956
0.000456417
-8.59747e-05
0.000462266
-8.91065e-05
0.000468426
-9.26992e-05
0.000474757
-9.65096e-05
0.000481178
-0.000100519
0.000487587
-0.000104718
0.000493856
-0.00010909
0.000499824
-0.000113609
-0.000117954
0.000510019
-9.08638e-05
0.000514231
-9.37116e-05
0.000518664
-9.69628e-05
0.000523173
-0.000100398
0.000527685
-0.000104001
0.0005321
-0.000107765
0.000536297
-0.000111679
0.000540132
-0.000115719
-0.000119552
0.00056554
-9.38129e-05
0.000568148
-9.63723e-05
0.000570867
-9.92775e-05
0.000573549
-0.000102334
0.000576127
-0.000105528
0.000578514
-0.000108859
0.000580598
-0.000112318
0.000582245
-0.000115889
-0.00011923
0.000622064
-9.4257e-05
0.000623147
-9.6514e-05
0.000624214
-9.90607e-05
0.000625118
-0.000101729
0.000625801
-0.000104509
0.000626184
-0.000107407
0.000626166
-0.000110421
0.000625629
-0.000113539
-0.000116417
0.000678624
-9.16611e-05
0.000678293
-9.35909e-05
0.000677815
-9.57558e-05
0.000677039
-9.80164e-05
0.000675918
-0.000100372
0.000674379
-0.000102834
0.000672327
-0.000105406
0.000669665
-0.000108086
-0.000110537
0.00073422
-8.55646e-05
0.000732618
-8.7139e-05
0.000730738
-8.88944e-05
0.00072843
-9.07245e-05
0.000725652
-9.26389e-05
0.000722337
-9.46569e-05
0.000718393
-9.67851e-05
0.000713724
-9.90223e-05
-0.000101064
0.000787834
-7.56516e-05
0.000785135
-7.68547e-05
0.000782035
-7.81843e-05
0.000778387
-7.957e-05
0.00077415
-8.10336e-05
0.000769258
-8.25997e-05
0.000763631
-8.42861e-05
0.000757151
-8.60597e-05
-8.7683e-05
0.000838444
-6.18353e-05
0.000834855
-6.26795e-05
0.00083076
-6.35977e-05
0.000826009
-6.4554e-05
0.000820564
-6.55803e-05
0.00081435
-6.67016e-05
0.000807274
-6.79328e-05
0.000799227
-6.92331e-05
-7.04405e-05
0.000885032
-4.42927e-05
0.00088079
-4.48186e-05
0.000875948
-4.53754e-05
0.000870359
-4.59535e-05
0.000863987
-4.65875e-05
0.000856748
-4.72995e-05
0.000848514
-4.80768e-05
0.000839189
-4.89056e-05
-4.97087e-05
0.000926553
-2.33558e-05
0.000921887
-2.36061e-05
0.000916539
-2.38631e-05
0.000910366
-2.4129e-05
0.000903323
-2.44273e-05
0.000895324
-2.47711e-05
0.000886248
-2.5144e-05
0.000875984
-2.55403e-05
-2.59395e-05
0.000960485
0.000955573
0.000949922
0.000943387
0.000935917
0.000927424
0.000917798
0.000906925
)
;

boundaryField
{
    inlet
    {
        type            calculated;
        value           nonuniform 0();
    }
    outlet
    {
        type            calculated;
        value           nonuniform 0();
    }
    flap
    {
        type            calculated;
        value           nonuniform 0();
    }
    upperWall
    {
        type            calculated;
        value           nonuniform List<scalar> 
22
(
0
0
0
0
0
0
0
0
0
0
0
0
0
0
0
0
0
0
0
-6.79381e-15
0
0
)
;
    }
    lowerWall
    {
        type            calculated;
        value           nonuniform 0();
    }
    frontAndBack
    {
        type            empty;
        value           nonuniform 0();
    }
    procBoundary1to0
    {
        type            processor;
        value           nonuniform List<scalar> 
18
(
-4.77682e-05
-8.5582e-05
7.63678e-06
-0.000116356
-0.000162764
-0.00021242
-0.000264867
-0.000319574
-0.000375937
-0.000433279
-0.00049086
-0.000547874
-0.000603451
-0.000656646
-0.000706421
-0.000751609
-0.000790854
-0.000821738
)
;
    }
    procBoundary1to2
    {
        type            processor;
        value           nonuniform List<scalar> 
17
(
0.000322413
0.000347493
0.000374218
0.000403127
0.000434371
0.000467996
0.000503936
0.000541973
0.000581748
0.000622786
0.000664535
0.00070641
0.000747814
0.000788104
0.000826549
0.000862138
0.000892267
)
;
    }
    procBoundary1to3
    {
        type            processor;
        value           nonuniform List<scalar> 9(8.82992e-05 8.97827e-05 8.71083e-05 8.06877e-05 7.02953e-05 5.57452e-05 3.68368e-05 1.34018e-05 -1.47227e-05);
    }
    procBoundary1to4
    {
        type            processor;
        value           nonuniform List<scalar> 
30
(
-2.82189e-05
-7.29333e-05
-2.49428e-05
-1.88533e-05
-3.38177e-05
-1.35017e-05
-8.13059e-06
6.8407e-06
-2.71445e-06
1.22636e-06
4.30625e-05
6.69974e-06
9.69287e-06
5.55608e-06
8.44635e-05
8.31567e-06
8.82414e-06
2.02355e-05
0.000118023
2.78882e-05
3.17064e-05
3.59861e-05
0.000172141
4.74301e-05
5.32291e-05
0.000226004
6.63083e-05
7.3356e-05
0.000283526
8.64339e-05
)
;
    }
}


// ************************************************************************* //
