/*--------------------------------*- C++ -*----------------------------------*\
| =========                 |                                                 |
| \\      /  F ield         | OpenFOAM: The Open Source CFD Toolbox           |
|  \\    /   O peration     | Version:  dev                                   |
|   \\  /    A nd           | Web:      www.OpenFOAM.org                      |
|    \\/     M anipulation  |                                                 |
\*---------------------------------------------------------------------------*/
FoamFile
{
    version     2.0;
    format      ascii;
    class       volVectorField;
    location    "3.06";
    object      U;
}
// * * * * * * * * * * * * * * * * * * * * * * * * * * * * * * * * * * * * * //

dimensions      [0 1 -1 0 0 0 0];

internalField   nonuniform List<vector> 
465
(
(3.91961 1.7787e-19 0.27063)
(3.3768 -1.83661e-19 0.294066)
(2.8153 3.86774e-19 0.317115)
(2.24085 3.17686e-21 0.338378)
(1.66156 -4.12868e-19 0.355472)
(1.08848 0 0.363867)
(0.540697 8.71643e-19 0.350924)
(-0.0136764 -1.75266e-18 0.213836)
(-0.195672 9.17963e-19 -0.288444)
(4.82104 0 0.688325)
(4.29003 0 0.739815)
(3.73533 0 0.786947)
(3.16181 0 0.825582)
(2.57657 0 0.849399)
(1.98968 0 0.847951)
(1.41688 0 0.800365)
(0.832658 0 0.659954)
(0.573249 0 0.350858)
(5.26343 1.78147e-19 1.12951)
(4.77202 7.21713e-19 1.21904)
(4.25341 1.44631e-20 1.3025)
(3.70958 -1.71533e-18 1.37341)
(3.14319 0 1.4222)
(2.55646 -3.46938e-18 1.43445)
(1.95208 6.66359e-18 1.38717)
(1.28212 -6.75968e-18 1.25343)
(0.768988 3.12736e-18 0.984149)
(5.52301 -3.34691e-19 1.52989)
(5.06643 0 1.65748)
(4.58079 0 1.77982)
(4.06479 1.87622e-19 1.88945)
(3.51602 -3.48712e-18 1.97573)
(2.9293 3.37058e-18 2.02404)
(2.29937 4.06053e-19 2.01426)
(1.57052 0 1.9342)
(0.912066 4.39531e-19 1.74817)
(5.70746 3.28226e-19 1.90402)
(5.27648 -1.37065e-18 2.0683)
(4.81517 4.42065e-18 2.2299)
(4.31973 -2.90816e-18 2.38157)
(3.78423 7.52835e-19 2.5132)
(3.19928 0 2.61168)
(2.55797 -3.98359e-19 2.65947)
(1.80871 -3.24175e-18 2.64819)
(1.05596 3.4254e-18 2.55091)
(5.86603 -3.21143e-19 2.26031)
(5.45371 2.67697e-18 2.4608)
(5.00999 -1.46822e-19 2.66261)
(4.52924 2.44305e-20 2.85916)
(4.00384 -3.10332e-18 3.04148)
(3.42252 0 3.19756)
(2.77888 -3.28428e-18 3.31013)
(2.0317 3.14566e-18 3.36488)
(1.20817 -1.03501e-19 3.34011)
(6.02283 1.57578e-19 2.60334)
(5.62535 0 2.8401)
(5.19548 -2.69069e-18 3.08329)
(4.7263 -1.93759e-19 3.32711)
(4.20927 -1.98764e-19 3.56352)
(3.63233 5.8286e-18 3.78077)
(2.98879 -2.70078e-18 3.96018)
(2.2506 6.13194e-18 4.07639)
(1.36659 -6.37369e-18 4.10731)
(6.19043 2.45443e-18 2.93519)
(5.80672 -2.3525e-18 3.20861)
(5.38958 -2.60709e-18 3.49439)
(4.93124 2.66334e-18 3.78771)
(4.42217 0 4.08109)
(3.84966 -8.70896e-20 4.36239)
(3.20487 -6.86381e-20 4.61104)
(2.47301 -5.88459e-18 4.78936)
(1.53049 6.26691e-18 4.86886)
(6.37561 2.3633e-18 3.25572)
(6.00701 -7.80633e-20 3.56647)
(5.60388 -2.59579e-18 3.8962)
(5.15775 2.64977e-18 4.24139)
(4.65788 0 4.59521)
(4.09035 1.06291e-19 4.94507)
(3.442 5.53375e-18 5.26875)
(2.70949 -5.57524e-18 5.51711)
(1.70357 0 5.65062)
(6.5823 7.13092e-20 3.56312)
(6.23208 -7.43965e-20 3.91179)
(5.84656 7.62689e-20 4.28687)
(5.41639 -2.40115e-18 4.68656)
(4.92931 2.52666e-18 5.10538)
(4.36932 -2.04804e-20 5.53104)
(3.71652 0 5.94066)
(2.97568 -1.73378e-19 6.27533)
(1.89476 -5.85679e-18 6.48217)
(6.81282 -8.74213e-20 3.85423)
(6.48585 1.76024e-20 4.24087)
(6.12372 0 4.66225)
(5.71614 2.37044e-18 5.11901)
(5.24897 -2.41437e-18 5.60827)
(4.70304 0 6.11991)
(4.04901 0 6.63274)
(3.29468 5.33047e-18 7.08086)
(2.11991 -5.31362e-18 7.39922)
(7.06823 -2.13739e-18 4.12479)
(6.77069 2.20495e-18 4.54829)
(6.43989 2.26063e-18 5.01572)
(6.0649 -4.13234e-21 5.53104)
(5.62964 -2.36674e-18 6.09585)
(5.11104 0 6.70562)
(4.46745 2.21546e-18 7.34595)
(3.70277 -2.59912e-18 7.95031)
(2.40756 -8.1427e-20 8.4519)
(7.34831 -4.15061e-18 4.36967)
(7.08734 -9.58974e-20 4.82714)
(6.79768 2.09839e-18 5.33797)
(6.46877 -1.32015e-19 5.91045)
(6.08363 6.89126e-20 6.55295)
(5.61616 -2.29319e-18 7.27158)
(5.01101 4.52958e-18 8.06857)
(4.26077 -2.25204e-18 8.89399)
(2.81325 2.28195e-18 9.72141)
(7.65119 -1.00176e-18 4.58323)
(7.43425 2.07965e-18 5.0693)
(7.1966 -1.68381e-20 5.61724)
(6.92997 -1.91926e-18 6.2401)
(6.61974 -2.01153e-18 6.95475)
(6.24169 4.04001e-18 7.78301)
(5.73247 -2.03124e-18 8.7583)
(5.07567 0 9.88936)
(3.45325 0 11.3613)
(7.97282 8.48755e-19 4.76001)
(7.80654 -9.65906e-19 5.26658)
(7.63106 8.57362e-19 5.84081)
(7.44308 0 6.49955)
(7.23595 -1.87322e-18 7.2671)
(6.9992 2.06147e-19 8.18087)
(6.68768 1.84504e-18 9.3111)
(6.33737 0 10.7736)
(4.55973 1.50401e-18 13.6954)
(0.0448244 0 -0.0361359)
(0.16271 1.14838e-21 -0.0784924)
(0.327905 2.67858e-22 -0.0812632)
(0.488699 1.00594e-21 -0.0647641)
(0.617738 0 -0.0430373)
(0.703302 -1.80112e-21 -0.022456)
(0.745873 -1.71427e-21 -0.0059366)
(0.75369 0 0.00528877)
(0.738106 3.12686e-21 0.011713)
(0.708957 -2.98684e-21 0.0145736)
(0.0553882 7.99295e-20 -0.116576)
(0.168943 -1.44965e-19 -0.201274)
(0.325286 6.85818e-20 -0.205974)
(0.47668 -1.00684e-21 -0.169455)
(0.601826 3.795e-21 -0.120533)
(0.691948 1.80532e-21 -0.0731276)
(0.747343 1.71823e-21 -0.0334386)
(0.773053 3.27361e-21 -0.00337145)
(0.772855 3.12256e-21 0.0171239)
(0.75588 -2.98268e-21 0.0291661)
(0.0513881 -4.73137e-21 -0.22794)
(0.156696 2.07555e-24 -0.321312)
(0.291448 0 -0.317196)
(0.413656 -1.27045e-19 -0.259843)
(0.509516 1.19855e-19 -0.185865)
(0.574921 5.69718e-20 -0.114926)
(0.611594 -1.10311e-19 -0.0560596)
(0.623664 4.36555e-20 -0.0104682)
(0.614529 -6.29004e-21 0.0224508)
(0.591784 1.1995e-20 0.0427719)
(0.0190651 -5.97767e-22 -0.36148)
(0.121778 -1.46455e-19 -0.433752)
(0.236376 1.38097e-19 -0.405279)
(0.326946 0 -0.323699)
(0.388706 -1.24648e-19 -0.227271)
(0.423054 2.33221e-19 -0.137073)
(0.4323 -1.12953e-19 -0.0621822)
(0.413515 -4.55799e-20 -0.00365778)
(0.377445 5.77998e-20 0.0385917)
(0.331044 -7.39287e-24 0.0651795)
(-0.0413892 -1.52741e-19 -0.495866)
(0.0591289 1.46289e-19 -0.533178)
(0.149951 -6.72086e-23 -0.468294)
(0.202943 -1.28796e-19 -0.35857)
(0.224481 1.29789e-19 -0.240154)
(0.219083 7.40211e-21 -0.132767)
(0.180428 -1.10882e-19 -0.0394785)
(0.107389 1.02468e-19 0.0399556)
(0.0244687 -6.39641e-21 0.0906527)
(-0.0638626 -5.39036e-20 0.119201)
(-0.115525 0 -0.609613)
(-0.0282271 0 -0.604596)
(0.0272426 0 -0.492576)
(0.029568 0 -0.347096)
(-0.00308246 -7.96326e-21 -0.197754)
(-0.0904794 -1.50753e-20 -0.0513766)
(-0.211105 1.12379e-19 0.0554854)
(-0.308044 -1.03476e-19 0.120256)
(-0.407385 -5.04953e-20 0.162153)
(-0.507482 4.96002e-20 0.189675)
(-0.19242 0 -0.680769)
(-0.135861 2.96222e-19 -0.621151)
(-0.134704 -4.30239e-19 -0.443605)
(-0.20671 1.38111e-19 -0.246659)
(-0.330997 8.04149e-21 -0.07034)
(-0.475486 1.53345e-20 0.0637051)
(-0.585929 0 0.144289)
(-0.695495 0 0.199477)
(-0.800629 0 0.237249)
(-0.900973 0 0.261602)
(-0.266402 3.26932e-19 -0.680394)
(-0.259873 -3.08216e-19 -0.545719)
(-0.335124 -1.1736e-21 -0.309906)
(-0.484276 -1.38208e-19 -0.0936883)
(-0.654243 2.57242e-19 0.0730327)
(-0.783743 -1.35275e-19 0.171691)
(-0.907813 0 0.238701)
(-1.02263 -1.2205e-19 0.284059)
(-1.12767 4.21723e-20 0.31306)
(-1.22309 1.41622e-20 0.329664)
(-0.338518 -3.41276e-19 -0.584654)
(-0.392323 3.22188e-19 -0.385823)
(-0.536067 1.18259e-21 -0.120309)
(-0.734326 0 0.0925677)
(-0.893503 1.70314e-20 0.210142)
(-1.04213 8.00244e-21 0.288785)
(-1.17538 1.1646e-19 0.339846)
(-1.29276 -5.04676e-21 0.370913)
(-1.39558 -4.25664e-20 0.387345)
(-1.48552 -7.43695e-20 0.393382)
(-0.408162 -3.63344e-19 -0.396252)
(-0.515627 0 -0.150073)
(-0.712245 -1.56874e-19 0.128043)
(-0.913761 7.34863e-21 0.271857)
(-1.09984 1.34741e-19 0.362057)
(-1.26215 -2.42704e-20 0.415778)
(-1.40101 -1.49903e-20 0.445002)
(-1.51868 -9.51595e-20 0.457626)
(-1.6183 1.0674e-19 0.459048)
(-1.70343 1.22197e-20 0.453344)
(-0.470968 3.86123e-19 -0.091077)
(-0.616396 -1.74041e-19 0.197366)
(-0.836496 1.70953e-19 0.370485)
(-1.07938 1.49654e-19 0.4746)
(-1.28646 -2.84594e-19 0.52653)
(-1.45697 1.67544e-19 0.547671)
(-1.59697 -8.71975e-20 0.55058)
(-1.71205 5.9345e-21 0.542369)
(-1.80734 1.18922e-19 0.527766)
(-1.88779 -4.7179e-20 0.510265)
(-0.494552 0 0.380545)
(-0.673972 1.80699e-19 0.545567)
(-0.970039 -1.67497e-19 0.653553)
(-1.24875 0 0.695766)
(-1.46715 1.38006e-19 0.696236)
(-1.63694 -1.51402e-19 0.678438)
(-1.77154 1.0092e-19 0.652664)
(-1.87998 -1.13208e-19 0.623035)
(-1.96869 -1.28525e-20 0.592657)
(-2.04334 -4.64283e-20 0.564157)
(-0.517331 7.08075e-21 0.939118)
(-0.763466 1.8531e-19 0.967562)
(-1.14425 -2.05038e-19 0.96716)
(-1.44022 1.50239e-19 0.923332)
(-1.65189 5.77033e-21 0.859786)
(-1.80668 -1.32644e-19 0.799977)
(-1.92685 5.65626e-20 0.746478)
(-2.02321 -6.83141e-20 0.696812)
(-2.10166 0 0.651947)
(-2.16793 0 0.614024)
(-0.585856 2.43884e-19 1.59828)
(-0.942384 -2.10642e-19 1.45607)
(-1.38679 1.08307e-20 1.3029)
(-1.66599 7.2274e-20 1.14135)
(-1.84295 -8.79973e-20 0.999203)
(-1.96198 0 0.9004)
(-2.05669 0 0.825971)
(-2.13501 1.3143e-20 0.759997)
(-2.19822 0 0.702656)
(-2.25175 4.40294e-20 0.657688)
(-0.634604 -2.59602e-19 2.43199)
(-1.1675 2.04932e-19 2.02378)
(-1.69982 6.51453e-20 1.65889)
(-1.92479 -6.47316e-20 1.31574)
(-2.02691 6.05585e-20 1.07783)
(-2.08078 -5.92221e-20 0.963967)
(-2.14137 -5.12406e-20 0.887452)
(-2.19918 -9.66727e-21 0.809965)
(-2.24208 2.42277e-20 0.740575)
(-2.27673 4.32101e-20 0.691277)
(8.31977 1.13995e-19 4.8985)
(8.21072 -8.93879e-19 5.41505)
(8.10693 1.01781e-18 6.00043)
(8.01251 -8.70151e-19 6.67221)
(7.93461 8.79724e-19 7.45628)
(7.89265 -7.94077e-19 8.39304)
(7.91854 1.32984e-18 9.55518)
(8.56313 -4.02736e-19 11.0016)
(9.01626 6.66774e-20 13.8616)
(8.67962 0 4.99158)
(8.62975 0 5.50521)
(8.59957 2.06485e-19 6.08279)
(8.59986 0 6.73824)
(8.64923 0 7.48977)
(8.78639 0 8.35937)
(9.02303 1.79338e-19 9.37425)
(9.66578 -3.06963e-19 10.484)
(10.2432 -1.87896e-19 11.7046)
(9.04272 9.9239e-20 5.03747)
(9.04913 -9.87413e-19 5.53551)
(9.08605 2.10594e-19 6.08759)
(9.16639 1.58845e-20 6.7013)
(9.30812 5.64882e-19 7.38328)
(9.54121 -8.40695e-20 8.1339)
(9.85327 8.52317e-20 8.94056)
(10.3563 0 9.77294)
(11.0522 1.24837e-19 10.6217)
(9.39928 9.15364e-20 5.03667)
(9.45527 1.92235e-19 5.50906)
(9.54764 1.83716e-19 6.02344)
(9.68798 1.79245e-19 6.58192)
(9.88978 -9.41308e-20 7.1838)
(10.1738 -6.62827e-20 7.8228)
(10.5407 -2.02639e-20 8.48396)
(11.0365 0 9.17279)
(11.8139 -1.22776e-19 9.90582)
(9.83847 1.77194e-19 5.43312)
(9.9743 -1.79651e-19 5.90386)
(10.1583 -1.75488e-19 6.40391)
(10.401 0 6.92958)
(10.7178 7.60923e-20 7.47416)
(11.1181 -8.36997e-20 8.0242)
(11.6116 1.09163e-19 8.57506)
(12.3298 -3.76649e-19 9.12077)
(10.5759 1.00088e-20 6.18404)
(10.8442 -8.71221e-20 6.63882)
(11.1761 -6.76879e-20 7.09788)
(11.5789 2.92554e-19 7.54744)
(12.0471 2.48693e-19 7.97334)
(12.6796 -7.47585e-20 8.36761)
(11.5536 0 6.70823)
(11.9424 0 7.07393)
(12.3793 0 7.40833)
(12.9402 -5.91339e-20 7.70615)
(12.6359 0 6.88683)
(13.1353 -1.63786e-19 7.11806)
(9.94672 0 12.1877)
(6.34894 -1.04337e-19 9.9046)
(-0.165541 5.52792e-20 6.53976)
(10.5287 0 10.209)
(9.79743 7.6787e-20 9.00549)
(8.31065 1.00595e-19 7.74215)
(11.5155 0 10.3982)
(11.6921 1.96554e-19 9.96315)
(11.4842 -4.85462e-19 9.29991)
(12.3033 -3.59358e-19 10.0381)
(12.6459 3.16718e-19 9.95772)
(12.7806 0 9.66802)
(12.7619 4.32255e-20 9.27278)
(13.1302 -2.95404e-19 9.3164)
(13.3888 2.58578e-19 9.24791)
(13.0564 -3.51421e-19 8.50339)
(13.4077 3.72374e-19 8.58674)
(13.6921 3.58418e-20 8.61324)
(13.2698 0 7.81856)
(13.5841 -2.10259e-20 7.90141)
(13.8483 3.29549e-19 7.95294)
(13.4237 3.90689e-19 7.20652)
(13.6992 3.43823e-19 7.27523)
(13.9327 -3.6278e-19 7.32482)
(13.7743 0 6.71011)
(13.9794 -3.33657e-19 6.75187)
(-3.00952 2.00078e-20 2.90071)
(-1.29705 0 1.95568)
(-1.90406 8.23271e-21 1.4857)
(-2.11208 -7.59695e-21 1.14302)
(-2.09734 0 1.01994)
(-2.07333 2.45819e-20 1.01281)
(-2.12447 -2.40147e-20 0.958456)
(-2.17915 3.30671e-20 0.853356)
(-2.20074 -2.11985e-20 0.759111)
(6.24303 -5.73036e-20 5.78573)
(4.56879 -1.07716e-20 4.21034)
(2.6084 -1.33327e-23 2.96966)
(0.974525 -1.35911e-20 1.97216)
(-0.617445 1.03077e-20 1.15378)
(-1.41567 0 0.920481)
(-1.76408 0 0.830442)
(-1.91685 0 0.741971)
(-1.94538 1.9255e-20 0.698277)
(10.59 1.55411e-19 7.70753)
(9.29464 -2.46654e-20 6.19039)
(7.69097 -1.95178e-21 4.91485)
(6.1209 1.98139e-21 3.87019)
(4.63422 2.8946e-21 2.99952)
(3.25877 0 2.29504)
(2.02499 0 1.7253)
(0.946094 -1.45294e-20 1.27498)
(-0.0168841 6.14526e-22 0.935012)
(12.6026 4.52233e-20 8.60959)
(11.9982 -4.56032e-20 7.40089)
(11.0641 -5.06223e-21 6.28162)
(9.97775 -1.37436e-20 5.29526)
(8.82717 2.16175e-21 4.42453)
(7.64914 -5.55468e-21 3.67047)
(6.48759 2.44171e-21 3.0304)
(5.37454 -1.35558e-20 2.49686)
(4.324 8.95693e-21 2.05278)
(13.6078 3.55379e-20 8.70356)
(13.5003 4.38321e-20 7.90635)
(13.1147 -6.12631e-20 7.05287)
(12.5202 3.31072e-20 6.22327)
(11.7828 0 5.44284)
(10.9509 0 4.73061)
(10.0653 2.8831e-21 4.09501)
(9.15814 -3.47957e-21 3.53596)
(8.25209 5.86877e-21 3.04665)
(14.0842 1.02024e-19 8.39079)
(14.2739 -1.01997e-19 7.92969)
(14.2691 -7.02464e-20 7.34668)
(14.069 3.22351e-20 6.71574)
(13.7055 1.78021e-20 6.07674)
(13.2176 -1.3385e-20 5.45676)
(12.6399 -2.86293e-21 4.87323)
(12.0006 4.15229e-21 4.33533)
(11.3228 -6.37365e-21 3.84606)
(14.2801 1.92161e-20 7.89351)
(14.615 -1.82773e-19 7.6571)
(14.8412 2.61006e-20 7.29364)
(14.917 1.04363e-20 6.85098)
(14.8446 -4.17695e-21 6.36465)
(14.6473 1.11091e-21 5.86191)
(14.3492 2.72639e-21 5.3633)
(13.9719 -4.84698e-21 4.88286)
(13.534 1.19952e-20 4.42907)
(14.3435 -4.19416e-20 7.33429)
(14.7249 -3.991e-20 7.22896)
(15.0648 0 7.01937)
(15.3065 0 6.72822)
(15.4332 0 6.37952)
(15.4532 -1.07256e-21 5.99497)
(15.3796 -2.99457e-20 5.59301)
(15.2254 2.96023e-20 5.18815)
(15.0033 5.67502e-21 4.79096)
(14.3503 1.90879e-19 6.78395)
(14.7252 6.02067e-20 6.74522)
(15.1013 0 6.63042)
(15.4233 0 6.44639)
(15.6664 9.90577e-20 6.20616)
(15.8292 -1.00603e-19 5.92397)
(15.916 -3.5646e-20 5.61352)
(15.932 4.03747e-20 5.28699)
(15.8839 0 4.95453)
(14.68 -2.06649e-20 6.2619)
(15.0499 1.24558e-19 6.19979)
(15.3957 -2.68051e-19 6.08411)
(15.6929 1.32029e-19 5.92071)
(15.9354 6.37437e-21 5.71765)
(16.1225 -4.31431e-20 5.48375)
(16.2541 7.62624e-20 5.22785)
(16.332 -3.1484e-20 4.95818)
(15.6139 -1.40396e-19 5.5807)
(15.8906 3.46796e-22 5.43402)
(16.1302 4.66672e-22 5.25865)
(16.3301 -8.8709e-20 5.0604)
(16.4891 7.74044e-20 4.84524)
(16.0325 2.15612e-19 4.98188)
(16.2654 -9.82101e-20 4.82761)
(16.4692 7.61674e-20 4.65627)
(16.3545 5.5286e-21 4.42368)
)
;

boundaryField
{
    inlet
    {
        type            fixedValue;
        value           nonuniform 0();
    }
    outlet
    {
        type            zeroGradient;
    }
    flap
    {
        type            movingWallVelocity;
        value           nonuniform List<vector> 
33
(
(-3.64764e-16 0 -7.2688e-15)
(-1.49003e-15 0 -1.37159e-14)
(0 0 0)
(-5.2317e-15 0 -2.60051e-14)
(0 0 0)
(-9.76237e-17 -2.77556e-14 -3.99775e-16)
(0 0 0)
(0 0 0)
(-2.59844e-14 0 -1.04565e-13)
(0 0 0)
(1.47347e-15 0 6.22301e-15)
(0 0 0)
(-2.45661e-14 1.48823e-32 -1.08605e-13)
(-1.31614e-15 0 -5.89898e-15)
(-1.31528e-15 -2.77556e-14 -5.89715e-15)
(2.3736e-14 0 -5.33056e-15)
(-3.16191e-15 0 6.96062e-16)
(-2.64888e-15 7.76054e-32 5.95822e-16)
(0 0 0)
(-1.58172e-15 -2.77556e-14 -1.44636e-14)
(-4.39808e-15 0 -2.70402e-14)
(0 -2.77556e-14 0)
(0 0 0)
(0 0 0)
(-8.24964e-16 -2.77556e-14 -3.28148e-15)
(-1.31542e-14 0 -5.21961e-14)
(-1.61537e-15 0 -6.49816e-15)
(-7.27598e-32 -2.77556e-14 1.76866e-32)
(0 0 0)
(-1.40574e-15 0 -6.08614e-15)
(-2.39001e-14 2.77556e-14 -1.05614e-13)
(-2.36096e-14 0 -1.05751e-13)
(0 0 0)
)
;
    }
    upperWall
    {
        type            noSlip;
    }
    lowerWall
    {
        type            noSlip;
    }
    frontAndBack
    {
        type            empty;
    }
    procBoundary4to1
    {
        type            processor;
        value           nonuniform List<vector> 
30
(
(9.74113 3.62603e-19 4.99285)
(9.74113 3.62603e-19 4.99285)
(10.1928 3.41975e-19 5.31614)
(10.3614 0 5.74138)
(10.3614 0 5.74138)
(10.9403 0 5.93438)
(11.2208 1.53835e-19 6.32446)
(11.2208 1.53835e-19 6.32446)
(11.8623 -2.14124e-19 6.31957)
(12.2312 0 6.61906)
(12.2312 0 6.61906)
(12.8323 -6.20715e-20 6.40262)
(13.2782 0 6.58513)
(13.5322 0 6.655)
(13.5322 0 6.655)
(13.8213 -2.2912e-20 6.20008)
(14.0027 2.12838e-20 6.23461)
(14.3329 0 6.27069)
(14.3329 0 6.27069)
(14.6181 2.14286e-20 5.80255)
(14.9638 2.0315e-20 5.76821)
(15.3028 -1.3539e-19 5.69352)
(15.3028 -1.3539e-19 5.69352)
(15.4901 0 5.22321)
(15.773 1.18516e-19 5.11496)
(15.773 1.18516e-19 5.11496)
(15.888 -4.61119e-22 4.68303)
(16.1312 0 4.5613)
(16.1312 0 4.5613)
(16.1972 1.03337e-19 4.16975)
)
;
    }
    procBoundary4to2
    {
        type            processor;
        value           nonuniform List<vector> 
11
(
(-0.794653 -9.04305e-21 0.746058)
(3.3432 -7.96341e-21 1.67887)
(7.36228 0 2.61814)
(10.6243 6.62296e-21 3.40493)
(13.052 -4.25258e-21 4.00642)
(14.726 1.05013e-20 4.40874)
(15.7794 1.14146e-20 4.62419)
(16.3597 0 4.68201)
(16.6075 -4.13769e-20 4.61895)
(16.6425 8.93481e-20 4.4721)
(16.556 0 4.27326)
)
;
    }
    procBoundary4to3
    {
        type            processor;
        value           nonuniform List<vector> 
19
(
(4.43981 -1.67976e-19 0.247677)
(5.32518 3.38415e-19 0.635306)
(5.72651 -5.76236e-19 1.03836)
(5.95157 -2.40823e-19 1.40229)
(6.11097 1.58438e-19 1.74236)
(6.2512 1.2312e-18 2.06602)
(6.39305 0 2.37706)
(6.54628 -1.3233e-18 2.67696)
(6.71572 1.31229e-18 2.96537)
(6.90384 6.94564e-20 3.24062)
(7.11183 -6.84682e-20 3.50009)
(7.33991 8.15759e-21 3.74046)
(7.58738 -2.05131e-18 3.95795)
(7.85242 -6.11869e-20 4.1486)
(8.13172 1.1368e-18 4.30867)
(8.43159 -1.13146e-19 4.43802)
(8.7426 8.50723e-19 4.53116)
(9.05805 9.93462e-20 4.58638)
(9.37083 -4.81011e-19 4.60298)
)
;
    }
    procBoundary4to5
    {
        type            processor;
        value           nonuniform List<vector> 
18
(
(0.673539 0 0.0149948)
(0.729301 0 0.0345963)
(0.560233 -1.67489e-20 0.0530339)
(0.276366 -1.14954e-20 0.0804547)
(-0.156623 -4.1254e-20 0.137868)
(-0.608884 4.52914e-20 0.208901)
(-0.996187 -1.15021e-20 0.276696)
(-1.3095 -8.06139e-20 0.337569)
(-1.5646 -1.14166e-20 0.392587)
(-1.77727 1.1458e-20 0.44365)
(-1.95751 0 0.492222)
(-2.10869 -3.43971e-20 0.538845)
(-2.22727 -6.42505e-20 0.583121)
(-2.30201 5.36847e-20 0.623794)
(-2.31368 2.07293e-20 0.658563)
(-2.20924 -9.87818e-21 0.70861)
(-2.20924 -9.87818e-21 0.70861)
(-1.94442 1.09245e-22 0.708658)
)
;
    }
}


// ************************************************************************* //
