/*--------------------------------*- C++ -*----------------------------------*\
| =========                 |                                                 |
| \\      /  F ield         | OpenFOAM: The Open Source CFD Toolbox           |
|  \\    /   O peration     | Version:  dev                                   |
|   \\  /    A nd           | Web:      www.OpenFOAM.org                      |
|    \\/     M anipulation  |                                                 |
\*---------------------------------------------------------------------------*/
FoamFile
{
    version     2.0;
    format      ascii;
    class       volScalarField;
    location    "2.71";
    object      p;
}
// * * * * * * * * * * * * * * * * * * * * * * * * * * * * * * * * * * * * * //

dimensions      [0 2 -2 0 0 0 0];

internalField   nonuniform List<scalar> 
2790
(
109.01
108.891
109.104
109.56
110.167
110.906
111.777
112.78
113.911
115.167
116.545
118.042
119.656
121.382
123.217
125.154
127.184
129.296
131.474
133.699
135.944
138.178
140.361
142.446
144.38
146.103
147.556
148.68
149.429
149.792
108.847
108.824
109.058
109.511
110.116
110.853
111.721
112.719
113.845
115.094
116.464
117.953
119.557
121.274
123.097
125.022
127.039
129.138
131.305
133.519
135.757
137.987
140.172
142.267
144.219
145.971
147.465
148.645
149.478
150.081
108.689
108.739
108.991
109.435
110.03
110.757
111.614
112.6
113.71
114.941
116.29
117.754
119.331
121.017
122.805
124.69
126.664
128.715
130.829
132.988
135.169
137.343
139.476
141.527
143.451
145.197
146.719
147.979
148.947
149.713
108.522
108.609
108.874
109.311
109.894
110.61
111.453
112.421
113.51
114.717
116.038
117.47
119.009
120.651
122.39
124.219
126.13
128.11
130.145
132.218
134.307
136.385
138.42
140.375
142.211
143.884
145.35
146.564
147.44
147.853
108.337
108.444
108.72
109.151
109.722
110.423
111.248
112.194
113.256
114.431
115.716
117.106
118.597
120.184
121.861
123.62
125.45
127.341
129.276
131.239
133.208
135.156
137.054
138.867
140.556
142.073
143.364
144.348
144.888
144.454
108.13
108.247
108.53
108.955
109.512
110.194
110.996
111.915
112.945
114.082
115.323
116.664
118.098
119.621
121.224
122.899
124.636
126.421
128.24
130.072
131.896
133.687
135.411
137.035
138.513
139.79
140.786
141.374
141.442
139.886
107.899
108.021
108.306
108.723
109.263
109.923
110.7
111.587
112.579
113.674
114.865
116.148
117.517
118.966
120.486
122.067
123.697
125.363
127.047
128.731
130.389
131.994
133.512
134.902
136.111
137.07
137.676
137.745
137.293
134.526
107.642
107.766
108.05
108.457
108.978
109.614
110.361
111.212
112.163
113.208
114.343
115.562
116.859
118.225
119.652
121.128
122.64
124.173
125.709
127.226
128.698
130.092
131.371
132.487
133.376
133.95
134.094
133.557
132.581
128.612
107.361
107.485
107.764
108.159
108.659
109.268
109.981
110.793
111.697
112.689
113.762
114.911
116.127
117.403
118.728
120.09
121.473
122.862
124.235
125.569
126.834
127.994
129.004
129.807
130.328
130.462
130.087
128.875
127.371
122.231
107.054
107.177
107.449
107.829
108.308
108.886
109.563
110.332
111.186
112.119
113.126
114.198
115.329
116.507
117.722
118.96
120.205
121.438
122.636
123.771
124.81
125.713
126.425
126.88
126.99
126.631
125.681
123.727
121.661
115.352
106.723
106.844
107.108
107.472
107.925
108.472
109.11
109.832
110.632
111.503
112.438
113.429
114.468
115.543
116.642
117.749
118.846
119.913
120.923
121.846
122.643
123.266
123.655
123.728
123.383
122.477
120.888
118.105
115.375
107.816
106.369
106.488
106.742
107.087
107.513
108.026
108.622
109.296
110.038
110.843
111.703
112.609
113.551
114.517
115.494
116.463
117.406
118.298
119.11
119.809
120.349
120.675
120.715
120.375
119.534
118.02
115.705
111.965
108.354
99.2697
105.993
106.109
106.352
106.677
107.075
107.552
108.105
108.726
109.409
110.145
110.926
111.743
112.584
113.438
114.287
115.114
115.896
116.606
117.214
117.679
117.95
117.964
117.635
116.855
115.477
113.289
110.132
105.247
100.345
89.0424
105.597
105.709
105.94
106.243
106.612
107.051
107.558
108.127
108.747
109.412
110.112
110.836
111.575
112.312
113.03
113.711
114.328
114.852
115.25
115.475
115.471
115.163
114.455
113.217
111.271
108.351
104.22
97.9381
91.0398
75.9255
105.182
105.29
105.509
105.789
106.126
106.527
106.987
107.5
108.057
108.648
109.265
109.896
110.528
111.147
111.733
112.265
112.715
113.052
113.238
113.222
112.941
112.312
111.226
109.529
107.011
103.342
98.1574
90.2678
80.4413
57.6993
0.639492
0.622168
0.552641
0.404808
0.183956
-0.0780055
-0.347522
-0.604893
-0.841933
-1.05497
-1.24171
-1.40026
-1.52871
-1.62514
-1.68881
-1.72119
-1.72439
-1.69821
-1.6402
-1.54959
-1.42979
-1.28757
-1.12937
-0.958995
-0.780228
-0.599332
-0.423606
-0.261161
-0.122265
-0.01709
0.64661
0.625389
0.547441
0.392852
0.168425
-0.0944141
-0.363121
-0.619315
-0.855527
-1.06815
-1.25476
-1.41343
-1.54224
-1.63869
-1.70151
-1.73293
-1.73631
-1.71114
-1.65322
-1.56089
-1.43808
-1.29295
-1.13294
-0.961275
-0.780779
-0.598317
-0.421719
-0.259024
-0.121283
-0.021641
0.665207
0.639551
0.548083
0.380287
0.147221
-0.119311
-0.388731
-0.645097
-0.881482
-1.09422
-1.281
-1.44016
-1.56995
-1.66646
-1.72714
-1.75635
-1.76033
-1.73753
-1.67955
-1.58341
-1.45492
-1.30456
-1.1419
-0.970902
-0.791442
-0.608662
-0.431737
-0.268217
-0.129827
-0.0317379
0.699941
0.669291
0.559748
0.373094
0.126656
-0.146853
-0.419828
-0.679096
-0.918147
-1.1328
-1.32093
-1.48133
-1.61272
-1.70902
-1.76589
-1.79096
-1.7946
-1.77465
-1.71902
-1.62213
-1.49092
-1.33759
-1.17219
-0.998998
-0.818683
-0.635977
-0.458272
-0.29317
-0.153154
-0.0468269
0.756192
0.718731
0.586845
0.376769
0.113031
-0.171317
-0.452343
-0.718875
-0.964294
-1.184
-1.37525
-1.53884
-1.67362
-1.77162
-1.82766
-1.84942
-1.84804
-1.82339
-1.76576
-1.66981
-1.54069
-1.38899
-1.22383
-1.04982
-0.869203
-0.685642
-0.505259
-0.337045
-0.19083
-0.0639189
0.841879
0.793742
0.636362
0.399829
0.116265
-0.185855
-0.485644
-0.767816
-1.02585
-1.25566
-1.45338
-1.61941
-1.75362
-1.85065
-1.90688
-1.92809
-1.92296
-1.89253
-1.83103
-1.7351
-1.60856
-1.45958
-1.29579
-1.12175
-0.939964
-0.753577
-0.569034
-0.395416
-0.237467
-0.0823122
0.969856
0.907038
0.722872
0.456278
0.137784
-0.199583
-0.528626
-0.832982
-1.10883
-1.35171
-1.55802
-1.72763
-1.86077
-1.95489
-2.00907
-2.02833
-2.01915
-1.98303
-1.91725
-1.82044
-1.69576
-1.54934
-1.38711
-1.21293
-1.0295
-0.839107
-0.648375
-0.466244
-0.291047
-0.102046
1.15847
1.07879
0.858073
0.538253
0.161951
-0.225623
-0.593115
-0.928252
-1.22573
-1.48208
-1.69572
-1.86745
-1.99818
-2.08767
-2.13727
-2.15188
-2.13686
-2.09436
-2.02384
-1.92541
-1.80179
-1.65748
-1.4967
-1.32232
-1.13658
-0.941039
-0.742255
-0.548108
-0.350528
-0.123216
1.42687
1.32097
1.02972
0.622326
0.165073
-0.284873
-0.699807
-1.06859
-1.38719
-1.65477
-1.87248
-2.04272
-2.16792
-2.25003
-2.29208
-2.29912
-2.27617
-2.22611
-2.15003
-2.04913
-1.9258
-1.78319
-1.6239
-1.44936
-1.26058
-1.05898
-0.850386
-0.640499
-0.41568
-0.145925
1.79328
1.62684
1.21043
0.674214
0.11715
-0.405322
-0.869473
-1.26853
-1.60301
-1.87614
-2.09231
-2.2561
-2.3716
-2.44262
-2.47356
-2.46982
-2.43653
-2.37735
-2.29461
-2.19031
-2.06665
-1.92562
-1.76814
-1.59374
-1.40156
-1.19325
-0.973101
-0.743486
-0.486651
-0.170335
2.28837
1.97198
1.35094
0.649722
-0.0209721
-0.616
-1.12204
-1.54126
-1.88135
-2.15094
-2.35797
-2.50902
-2.60969
-2.6652
-2.68102
-2.663
-2.61666
-2.54643
-2.4557
-2.34713
-2.22279
-2.08367
-1.92893
-1.7558
-1.56105
-1.34456
-1.11024
-0.85757
-0.563949
-0.196681
2.92596
2.29513
1.38048
0.490011
-0.292469
-0.946013
-1.47558
-1.89693
-2.22729
-2.4813
-2.66989
-2.80106
-2.88122
-2.91638
-2.91278
-2.87681
-2.81451
-2.73113
-2.63097
-2.51738
-2.39241
-2.25613
-2.10583
-1.93598
-1.74008
-1.51508
-1.26373
-0.98375
-0.648435
-0.22516
3.64313
2.45067
1.19337
0.121155
-0.744956
-1.42283
-1.94369
-2.34045
-2.64101
-2.86543
-3.02578
-3.12975
-3.1835
-3.19326
-3.16581
-3.10814
-3.02691
-2.92819
-2.81718
-2.698
-2.5729
-2.44112
-2.29792
-2.13458
-1.94036
-1.70758
-1.43562
-1.12189
-0.739314
-0.255846
4.21192
2.23494
0.657794
-0.542728
-1.42617
-2.06679
-2.53043
-2.86796
-3.11584
-3.29681
-3.42
-3.49011
-3.51182
-3.49113
-3.43536
-3.35225
-3.24923
-3.13308
-3.00995
-2.88491
-2.76067
-2.63578
-2.50326
-2.35056
-2.16173
-1.92263
-1.62674
-1.27042
-0.832736
-0.288576
3.75266
1.40051
-0.398386
-1.59846
-2.36905
-2.87742
-3.22205
-3.46216
-3.63508
-3.76253
-3.84277
-3.87406
-3.85871
-3.80254
-3.71384
-3.60154
-3.47391
-3.3384
-3.20194
-3.07072
-2.94835
-2.83292
-2.71508
-2.57793
-2.39917
-2.15653
-1.83504
-1.42914
-0.929481
-0.323598
104.741
104.845
105.05
105.306
105.611
105.971
106.382
106.838
107.328
107.844
108.374
108.908
109.432
109.929
110.379
110.759
111.039
111.187
111.158
110.9
110.343
109.396
107.939
105.801
102.743
98.3854
92.2345
82.8695
69.673
29.5673
104.269
104.369
104.559
104.79
105.06
105.377
105.737
106.133
106.555
106.991
107.432
107.866
108.278
108.65
108.961
109.186
109.294
109.25
109.008
108.51
107.685
106.436
104.637
102.112
98.6196
93.7838
87.1286
77.4457
65.3141
51.9556
103.771
103.865
104.039
104.243
104.479
104.751
105.058
105.392
105.742
106.098
106.447
106.779
107.077
107.322
107.493
107.563
107.501
107.268
106.819
106.093
105.018
103.498
101.411
98.5941
94.8371
89.8587
83.4238
75.1379
65.9981
58.8742
103.246
103.334
103.491
103.668
103.867
104.093
104.346
104.617
104.894
105.167
105.424
105.653
105.836
105.954
105.986
105.904
105.675
105.262
104.616
103.68
102.384
100.637
98.3315
95.3331
91.4858
86.6214
80.6548
73.4391
64.9693
55.8917
102.695
102.777
102.917
103.066
103.226
103.407
103.604
103.81
104.014
104.204
104.367
104.493
104.562
104.556
104.452
104.222
103.834
103.25
102.424
101.303
99.82
97.8976
95.4459
92.3634
88.5427
83.8805
78.3107
71.7218
63.9528
55.6431
102.12
102.196
102.317
102.437
102.56
102.693
102.834
102.976
103.106
103.212
103.283
103.307
103.264
103.136
102.901
102.53
101.993
101.253
100.268
98.9889
97.3573
95.3093
92.7751
89.6802
85.9517
81.5237
76.3523
70.4099
63.6875
56.7053
101.522
101.591
101.695
101.785
101.869
101.955
102.039
102.116
102.173
102.197
102.176
102.101
101.949
101.704
101.344
100.842
100.169
99.2903
98.1682
96.76
95.0172
92.8891
90.3231
87.2667
83.673
79.507
74.756
69.4384
63.5837
57.5045
100.903
100.966
101.051
101.112
101.157
101.195
101.224
101.236
101.221
101.163
101.054
100.882
100.626
100.27
99.7943
99.1722
98.3765
97.3773
96.1418
94.6335
92.8135
90.6432
88.0846
85.103
81.6717
77.7776
73.4259
68.6452
63.4689
58.1153
100.266
100.322
100.388
100.42
100.426
100.416
100.39
100.34
100.254
100.118
99.9233
99.6584
99.3043
98.8451
98.2622
97.5318
96.6293
95.5288
94.2025
92.6205
90.7527
88.5711
86.0496
83.1672
79.9119
76.2837
72.297
67.9837
63.3829
58.6634
99.6123
99.6608
99.709
99.7114
99.679
99.6233
99.5436
99.4324
99.2768
99.0653
98.7898
98.4375
97.9917
97.4377
96.7583
95.9326
94.9391
93.7558
92.3597
90.7273
88.8366
86.6681
84.205
81.4366
78.3613
74.9867
71.3319
67.4299
63.3204
59.134
98.9449
98.9866
99.0169
98.9903
98.9199
98.8194
98.688
98.5172
98.2954
98.0126
97.6604
97.2267
96.6969
96.0573
95.2923
94.3842
93.3148
92.0659
90.6192
88.9568
87.0636
84.9267
82.5364
79.8899
76.9921
73.8549
70.4991
66.956
63.2622
59.5199
98.2668
98.302
98.3147
98.2597
98.1527
98.009
97.8275
97.5997
97.3153
96.9655
96.5419
96.0334
95.4275
94.7117
93.8724
92.8946
91.7636
90.4649
88.9842
87.3089
85.4291
83.3371
81.0289
78.507
75.7799
72.8614
69.7725
66.5415
63.2006
59.8312
97.5814
97.6101
97.606
97.5236
97.3814
97.1962
96.9669
96.6852
96.3423
95.9301
95.4407
94.8644
94.1905
93.408
92.5053
91.4701
90.2909
88.9564
87.4559
85.7812
83.9269
81.8892
79.6682
77.2695
74.7034
71.9844
69.1327
66.1731
63.1334
60.0787
96.8922
96.9149
96.8945
96.786
96.6102
96.3856
96.1112
95.7792
95.3818
94.9122
94.3631
93.7262
92.9924
92.1524
91.1966
90.1154
88.8999
87.5419
86.0335
84.3702
82.5502
80.5727
78.4403
76.1605
73.7444
71.2063
68.5647
65.8413
63.0594
60.2717
96.2034
96.22
96.1842
96.0509
95.8435
95.5818
95.2653
94.8866
94.4393
93.9176
93.3149
92.6244
91.8386
90.9501
89.9509
88.8339
87.5925
86.2211
84.7148
83.0716
81.2919
79.3774
77.3326
75.1657
72.8878
70.5128
68.057
65.5392
62.9789
60.4189
95.519
95.5299
95.4794
95.3229
95.0858
94.7897
94.4342
94.0127
93.5201
92.9516
92.3015
91.5642
90.7342
89.8054
88.7716
87.6278
86.3695
84.9933
83.4968
81.88
80.1445
78.2938
76.3336
74.2725
72.1213
69.8925
67.6007
65.262
62.8929
60.528
94.8435
94.8488
94.7845
94.6065
94.342
94.0141
93.6229
93.1626
92.6294
92.0196
91.3279
90.5503
89.6832
88.7217
87.6612
86.4985
85.231
83.8571
82.3763
80.7898
79.1004
77.3127
75.4332
73.4703
71.4341
69.3361
67.189
65.0066
62.8027
60.6057
94.1817
94.1815
94.1044
93.9065
93.6169
93.2601
92.8367
92.3414
91.772
91.1261
90.3987
89.587
88.6893
87.7019
86.6216
85.4468
84.1765
82.8103
81.3492
79.7955
78.1528
76.4262
74.6225
72.7499
70.8178
68.8363
66.8167
64.7707
62.7099
60.6578
93.5384
93.5329
93.4439
93.2278
92.9155
92.5326
92.0804
91.5541
90.953
90.2755
89.5177
88.6781
87.7557
86.7484
85.6543
84.4731
83.2048
81.8503
80.4118
78.8921
77.2954
75.627
73.8939
72.1038
70.2653
68.3874
66.48
64.553
62.6164
60.6895
92.9188
92.9081
92.8082
92.5758
92.243
91.8365
91.3586
90.8057
90.1772
89.4724
88.6893
87.827
86.8852
85.8631
84.7603
83.577
82.3146
80.9748
79.5603
78.0748
76.5225
74.909
73.2409
71.5256
69.7709
67.9848
66.1759
64.3528
62.524
60.7054
92.3281
92.3125
92.2025
91.9556
91.6044
91.1769
90.6766
90.1008
89.4491
88.7214
87.9173
87.0368
86.0802
85.0478
83.9402
82.7585
81.5047
80.1814
78.7917
77.3396
75.8295
74.2669
72.6581
71.0102
69.3301
67.625
65.9024
64.1698
62.4344
60.7094
91.7719
91.7516
91.6324
91.3724
91.0051
90.5593
90.0397
89.4442
88.7727
88.0261
87.2051
86.3103
85.3429
84.3039
83.1947
82.0173
80.774
79.4681
78.1031
76.683
75.2123
73.6964
72.1413
70.5535
68.9395
67.3055
65.6583
64.0042
62.3496
60.7055
91.2559
91.2311
91.1035
90.8319
90.4505
89.9889
89.4527
88.8405
88.1527
87.3907
86.5562
85.6506
84.6756
83.6329
82.5246
81.3532
80.1216
78.8332
77.4919
76.1019
74.6674
73.1937
71.6867
70.1522
68.5961
67.0242
65.4422
63.856
62.2709
60.6961
90.7863
90.757
90.6216
90.3395
89.9458
89.4707
88.9206
88.2945
87.5933
86.8191
85.9742
85.0607
84.0808
83.0367
81.9311
80.7668
79.5472
78.276
76.957
75.5946
74.1929
72.757
71.2923
69.8044
68.2987
66.7804
65.2547
63.7265
62.2009
60.6852
90.3693
90.3357
90.1926
89.901
89.4965
89.0101
88.4483
87.8108
87.0987
86.3149
85.4621
84.543
83.5601
82.5162
81.4144
80.2577
79.0499
77.7947
76.4962
75.1585
73.7858
72.3828
70.9549
69.5072
68.0447
66.572
65.0938
63.6148
62.1391
60.6731
90.0119
89.9735
89.8224
89.5218
89.1083
88.6126
88.0416
87.395
86.6747
85.8836
85.0252
84.1024
83.1182
82.0757
80.9781
79.8291
78.6322
77.3916
76.1112
74.7951
73.4475
72.0728
70.6761
69.2623
67.8359
66.4014
64.963
63.5248
62.0908
60.6662
89.7219
89.6773
89.5168
89.2073
88.7858
88.2822
87.7034
87.0495
86.3226
85.5262
84.6638
83.7387
82.7542
81.7136
80.6205
79.4785
78.2914
77.0633
75.7983
74.5004
73.1735
71.822
70.4509
69.0646
67.6675
66.2637
64.8571
63.4515
62.0504
60.6582
89.5089
89.4535
89.282
88.9658
88.5391
88.0299
87.4452
86.7859
86.0543
85.2541
84.389
83.4627
82.4784
81.4399
80.3507
79.2147
78.0357
76.8179
75.5653
74.2819
72.9715
71.6384
70.2872
68.9225
67.5483
66.1685
64.7867
63.4065
62.0314
60.6651
89.3874
89.3019
89.1122
88.7906
88.3611
87.8485
87.2602
86.5978
85.8637
85.0617
84.1955
83.2689
82.2856
81.249
80.1631
79.0317
77.8587
76.6482
75.4043
74.131
72.832
71.5114
70.1738
68.8236
67.4647
66.1007
64.7353
63.3718
62.0135
60.6633
89.3909
89.2522
89.0391
88.7111
88.2781
87.7618
87.1702
86.5053
85.7695
84.9664
84.0998
83.1735
82.1912
81.1564
80.0731
78.9451
77.7764
76.571
75.333
74.0663
72.7746
71.462
70.1329
68.7917
67.4421
66.0877
64.7321
63.3785
62.0299
60.689
-68.9216
-40.6135
-13.5133
39.7735
35.8533
29.2691
46.6187
36.4132
28.1587
43.4837
35.5336
29.8285
46.6505
40.633
35.7855
49.5801
44.5789
40.338
51.4492
47.2241
43.6332
52.9403
49.3595
46.3158
54.1978
51.1157
48.494
55.2258
52.533
50.2428
56.0611
53.6815
51.6576
56.7415
54.6179
52.8107
57.2951
55.3832
53.7548
57.7444
56.0096
54.5305
58.1081
56.5228
55.1695
58.4014
56.9431
55.6968
58.6366
57.287
56.132
58.8242
57.5679
56.4913
58.9726
57.7968
56.7877
59.0893
57.9829
57.032
59.1803
58.1338
57.2331
59.2512
58.2563
57.3988
59.3059
58.3552
57.5347
59.3498
58.4367
57.6476
59.3832
58.5017
57.7391
59.4145
58.5589
57.8178
59.4358
58.6009
57.8776
59.4667
58.6472
57.9364
59.4791
58.6704
57.9693
59.5201
58.7219
58.0259
5.6391
-0.0544633
-2.42241
-3.24213
-3.63406
-3.85507
-3.99925
-4.09892
-4.17693
-4.25161
-4.28873
-4.27823
-4.22079
-4.12321
-3.99596
-3.85001
-3.69459
-3.53738
-3.38589
-3.24788
-3.12864
-3.02615
-2.9284
-2.81319
-2.6508
-2.40957
-2.06404
-1.60479
-1.03756
-0.361501
14.2842
0.422356
-2.96991
-3.44158
-3.81844
-4.18165
-4.42647
-4.56201
-4.67468
-4.76309
-4.7682
-4.71058
-4.60129
-4.45233
-4.27827
-4.09265
-3.9051
-3.7226
-3.55287
-3.40589
-3.28957
-3.20197
-3.12855
-3.04189
-2.90413
-2.67247
-2.30798
-1.79322
-1.15191
-0.402609
16.7751
5.49596
0.796783
-1.26188
-2.72152
-3.74138
-4.34054
-4.67373
-4.88079
-4.98284
-4.9958
-4.94267
-4.83206
-4.67417
-4.48494
-4.28041
-4.07266
-3.8712
-3.68658
-3.53329
-3.42203
-3.35121
-3.30537
-3.25264
-3.14651
-2.93232
-2.55802
-1.99304
-1.26745
-0.446521
22.2123
13.5185
7.57512
3.62411
0.783289
-1.25606
-2.64262
-3.55524
-4.15473
-4.5307
-4.73895
-4.81795
-4.79273
-4.68565
-4.52135
-4.3249
-4.11791
-3.91742
-3.73818
-3.59519
-3.49974
-3.45251
-3.43737
-3.4183
-3.34127
-3.14153
-2.75854
-2.15919
-1.36243
-0.481936
29.232
21.6634
15.0558
9.86861
5.95249
3.00639
0.810029
-0.810223
-1.99657
-2.84721
-3.43095
-3.80377
-4.01039
-4.08708
-4.06693
-3.9825
-3.86294
-3.73233
-3.61106
-3.51706
-3.46291
-3.4497
-3.46109
-3.46023
-3.39189
-3.19151
-2.80312
-2.20205
-1.41236
-0.542824
34.8357
28.36
21.8927
16.277
11.7685
8.18788
5.33847
3.08673
1.32827
-0.0260564
-1.05084
-1.80654
-2.34112
-2.69656
-2.91384
-3.03175
-3.08426
-3.09969
-3.10219
-3.11155
-3.14027
-3.18877
-3.24091
-3.26221
-3.20284
-3.00686
-2.62981
-2.05886
-1.32626
-0.547332
39.1176
33.6724
27.749
22.2237
17.5286
13.6096
10.3337
7.61348
5.38202
3.57273
2.12265
0.976752
0.0866573
-0.592153
-1.10111
-1.47796
-1.75703
-1.96941
-2.14167
-2.29434
-2.43949
-2.5775
-2.69426
-2.76075
-2.73685
-2.58018
-2.26082
-1.77714
-1.16401
-0.530976
42.5296
37.8888
32.5927
27.4078
22.7998
18.7927
15.3095
12.3021
9.73627
7.57148
5.76237
4.26448
3.03587
2.03684
1.22959
0.57823
0.0491592
-0.38768
-0.757566
-1.08005
-1.36684
-1.61944
-1.82774
-1.97042
-2.01863
-1.94373
-1.72823
-1.37785
-0.927381
-0.471299
45.2405
41.2137
36.5097
31.7577
27.3896
23.465
19.9445
16.8082
14.046
11.639
9.55997
7.77762
6.25996
4.97474
3.88982
2.97385
2.19718
1.53291
0.957977
0.454256
0.0101537
-0.377724
-0.703775
-0.954094
-1.11002
-1.1544
-1.07967
-0.896038
-0.634871
-0.37176
47.3977
43.8533
39.6682
35.3527
31.2855
27.5367
24.0887
20.9382
18.0905
15.543
13.2827
11.291
9.54603
8.02371
6.69903
5.54669
4.54206
3.66215
2.88684
2.19993
1.5904
1.05341
0.590506
0.208894
-0.0812853
-0.271725
-0.361673
-0.363252
-0.303268
-0.240657
49.1365
45.9801
42.234
38.318
34.5586
31.0248
27.7091
24.6169
21.7621
19.1524
16.7854
14.6524
12.7403
11.0331
9.51266
8.15983
6.95521
5.88018
4.91794
4.05447
3.2795
2.58717
1.97597
1.44799
1.00695
0.65485
0.388096
0.194015
0.0498476
-0.089638
50.5529
47.714
44.3363
40.7716
37.3025
33.9914
30.8351
27.8421
25.0305
22.4135
19.9961
17.7768
15.7496
13.9049
12.2309
10.7139
9.3397
8.09371
6.96249
5.93427
4.99973
4.15246
3.38891
2.70772
2.10828
1.58835
1.14161
0.755414
0.410254
0.0712211
51.7146
49.1398
46.0725
42.8127
39.6071
36.5108
33.5213
30.6477
27.9089
25.321
22.8933
20.6293
18.5281
16.5856
14.7948
13.1469
11.632
10.2393
8.95847
7.77988
6.69537
5.69849
4.78449
3.94983
3.19115
2.50364
1.87938
1.30601
0.766388
0.233142
52.6725
50.3201
47.516
44.52
41.5497
38.6531
35.8272
33.0801
30.4301
27.8943
25.4839
23.2053
21.0618
19.053
17.1759
15.4256
13.7957
12.2789
10.8674
9.55373
8.33089
7.19281
6.13423
5.15037
4.23624
3.38556
2.58967
1.83662
1.11098
0.390627
53.4654
51.3019
48.7225
45.9549
43.1929
40.4787
37.8078
35.1867
32.6328
30.1624
27.7874
25.5159
23.3537
21.3032
19.3644
17.5356
15.8131
14.1924
12.6681
11.2344
9.88577
8.61662
7.4217
6.2957
5.2328
4.226
3.26635
2.34239
1.44
0.540745
54.1236
52.1215
49.7349
47.1655
44.5874
42.0377
39.5107
37.0112
34.5546
32.1562
29.8278
27.5785
25.4151
23.342
21.3614
19.4737
17.6778
15.971
14.3501
12.8109
11.3491
9.95987
8.63821
7.37877
6.17547
5.02105
3.90662
2.8212
1.75168
0.68239
54.6709
52.8072
50.5868
48.1895
45.7732
43.3709
40.9759
38.5911
36.2297
33.9056
31.6303
29.4132
27.2614
25.18
23.1732
21.2428
19.3894
17.6122
15.9094
14.2784
12.7157
11.2176
9.77946
8.39619
7.06178
5.76906
4.50937
3.27228
2.04546
0.815409
55.1263
53.3819
51.3049
49.0574
46.7835
44.5125
42.2372
39.9587
37.6882
35.4377
33.2186
31.0399
28.9083
26.8295
24.8085
22.8485
20.9512
19.117
17.3455
15.6351
13.9835
12.3876
10.8435
9.34643
7.8907
6.46942
5.07432
3.69548
2.3213
0.940005
55.5054
53.8639
51.9111
49.794
47.6449
45.4906
43.3229
41.1419
38.9564
36.7771
34.6146
32.4774
30.3717
28.3032
26.2774
24.2982
22.3681
20.4885
18.6598
16.8815
15.1521
13.4692
11.8295
10.2288
8.66171
7.12183
5.6013
4.09073
2.57918
1.05632
55.8211
54.2684
52.4231
50.4193
48.3795
46.3283
44.257
42.1643
40.0573
37.9453
35.838
33.7433
31.6668
29.6139
27.59
25.5997
23.6459
21.7306
19.855
18.0191
16.2222
14.4626
12.7374
11.0431
9.37466
7.72619
6.09027
4.45805
2.81918
1.16449
56.0836
54.6076
52.8553
50.95
49.0058
47.0452
45.0594
43.046
41.0104
38.961
36.9064
34.8534
32.8072
30.7732
28.7565
26.7613
24.791
22.8482
20.9343
19.05
17.195
15.3681
13.5672
11.7891
10.0292
8.28207
6.5408
4.79702
3.04093
1.2643
56.3022
54.8922
53.2202
51.4002
49.539
47.6577
45.7473
43.8043
41.8331
39.8411
37.8356
35.8222
33.8064
31.7932
29.7867
27.791
25.8099
23.8462
21.9015
19.9768
18.0723
16.1872
14.3198
12.4672
10.6255
8.78959
6.95297
5.10774
3.2446
1.35596
56.4836
55.1302
53.5272
51.7806
49.9912
48.1788
46.3342
44.4532
42.5395
40.5993
38.6384
36.662
34.6755
32.6833
30.6886
28.6955
26.708
24.7288
22.7595
20.8015
18.8551
16.92
14.9947
13.0767
11.1626
9.24751
7.32543
5.38888
3.42898
1.43863
56.6349
55.3299
53.7858
52.1019
50.3739
48.6208
46.833
45.006
43.1427
41.2481
39.3271
37.3846
35.4254
33.4533
31.4715
29.4834
27.4926
25.5019
23.5133
21.528
19.5466
17.5689
15.5938
13.6191
11.6416
9.65685
7.65918
5.64146
3.59516
1.51327
56.7592
55.495
54.0005
52.3695
50.6935
48.9905
47.2512
45.4705
43.6504
41.7953
39.9094
37.9971
36.0622
34.1087
32.1397
30.1575
28.1654
26.1665
24.1627
22.1553
20.1449
18.1315
16.1142
14.0909
12.0589
10.0138
7.95032
5.86167
3.73967
1.57746
56.8644
55.634
54.1806
52.5933
50.9603
49.299
47.6002
45.8582
44.0746
42.253
40.3973
38.5108
36.5971
34.6602
32.7028
30.7265
28.7345
26.7299
24.7146
22.6896
20.6557
18.6129
16.5605
14.4966
12.4185
10.3224
8.2029
6.0536
3.86653
1.63434
56.9466
55.7436
54.323
52.7707
51.172
49.5442
47.8779
46.167
44.4127
42.6184
40.7872
38.922
37.0262
35.1032
33.1554
31.1848
29.1939
27.1853
25.161
23.1222
21.0697
19.0034
16.9227
14.8258
12.7103
10.5723
8.40679
6.20756
3.967
1.67788
57.0208
55.8386
54.4433
52.9176
51.345
49.7426
48.101
46.4138
44.6819
42.9085
41.0961
39.2475
37.3656
35.4533
33.5131
31.5472
29.5575
27.5461
25.515
23.4659
21.3991
19.3148
17.2122
15.0898
12.9451
10.7743
8.57269
6.33396
4.05069
1.71495
57.0667
55.8984
54.52
53.0125
51.4578
49.8726
48.2476
46.5765
44.86
43.1007
41.3012
39.4639
37.5915
35.6866
33.7517
31.7891
29.8002
27.787
25.7516
23.6954
21.6191
19.5226
17.4051
15.2652
13.1004
10.907
8.68018
6.41365
4.10028
1.7329
57.1234
55.9557
54.5859
53.0892
51.5444
49.9684
48.3523
46.6896
44.9809
43.2288
41.4355
39.6036
37.7356
35.8339
33.9012
31.9394
29.9502
27.9351
25.8964
23.8357
21.7534
19.6495
17.5232
15.3732
13.1968
10.9903
8.74858
6.46476
4.12984
1.73086
)
;

boundaryField
{
    inlet
    {
        type            zeroGradient;
    }
    outlet
    {
        type            fixedValue;
        value           uniform 0;
    }
    flap
    {
        type            zeroGradient;
    }
    upperWall
    {
        type            zeroGradient;
    }
    lowerWall
    {
        type            zeroGradient;
    }
    frontAndBack
    {
        type            empty;
    }
}


// ************************************************************************* //
