/*--------------------------------*- C++ -*----------------------------------*\
| =========                 |                                                 |
| \\      /  F ield         | OpenFOAM: The Open Source CFD Toolbox           |
|  \\    /   O peration     | Version:  dev                                   |
|   \\  /    A nd           | Web:      www.OpenFOAM.org                      |
|    \\/     M anipulation  |                                                 |
\*---------------------------------------------------------------------------*/
FoamFile
{
    version     2.0;
    format      ascii;
    class       surfaceVectorField;
    location    "3.38";
    object      Uf;
}
// * * * * * * * * * * * * * * * * * * * * * * * * * * * * * * * * * * * * * //

dimensions      [0 1 -1 0 0 0 0];

internalField   nonuniform List<vector> 
879
(
(0.848028 -3.5721e-22 0.0144327)
(0.898815 7.71457e-22 0.0198685)
(0.8195 1.26733e-22 0.0132722)
(0.877718 -1.11729e-21 0.0206704)
(0.792966 2.93865e-22 0.0109247)
(0.8556 5.21963e-22 0.0188817)
(0.770665 -2.47602e-22 0.00818337)
(0.835147 4.60334e-22 0.0155878)
(0.753244 -1.34383e-22 0.00575628)
(0.81775 -6.13714e-22 0.0119625)
(0.739762 5.53566e-23 0.00409988)
(0.80327 1.35256e-22 0.00909454)
(0.728332 2.55964e-22 0.0032417)
(0.790237 -6.96698e-23 0.00757182)
(0.7174 5.92012e-24 0.00277764)
(0.776798 -1.12467e-24 0.00710695)
(0.706959 -8.3006e-23 0.00213071)
(0.762088 -1.67956e-22 0.00666052)
(0.698775 -4.89206e-23 0.000892969)
(0.747133 -4.865e-23 0.00512303)
(0.695459 -4.35488e-23 -0.000973579)
(0.734587 4.92524e-23 0.00204169)
(0.698976 1.8893e-25 -0.0031786)
(0.727437 -2.01585e-23 -0.00210514)
(0.709592 1.99539e-23 -0.00544762)
(0.726731 5.54371e-23 -0.00625352)
(0.726769 -1.39573e-23 -0.00784081)
(0.731546 -3.49751e-23 -0.00993495)
(0.750834 -3.74649e-23 -0.0106461)
(0.74112 -3.1931e-23 -0.0136613)
(0.783206 -5.13444e-24 -0.0140488)
(0.754879 7.43799e-24 -0.0180383)
(0.825818 5.12844e-24 -0.0179249)
(0.773951 6.06354e-23 -0.0233061)
(0.880688 -1.36728e-23 -0.0218193)
(0.802161 -1.98716e-23 -0.0294604)
(0.948761 8.56637e-24 -0.0247402)
(0.843248 -2.43971e-24 -0.0358825)
(0.912834 -3.28283e-24 -0.0388332)
(0.927173 9.12604e-23 0.0254837)
(0.852045 7.71215e-22 0.0271593)
(0.91286 -7.63834e-22 0.0261308)
(0.838766 -7.56454e-22 0.0309911)
(0.897097 6.99129e-22 0.0236172)
(0.822351 0 0.0300244)
(0.881816 1.27912e-22 0.0195456)
(0.804528 7.05811e-22 0.0261857)
(0.867652 -3.5132e-22 0.0155776)
(0.786215 -1.34554e-21 0.0216041)
(0.853785 1.04588e-23 0.0129873)
(0.767244 3.00483e-22 0.0183661)
(0.838499 -3.27626e-22 0.0120216)
(0.746326 2.6574e-22 0.0176135)
(0.820587 -1.70228e-22 0.0116699)
(0.721669 -5.99244e-23 0.0186626)
(0.800656 -1.33818e-22 0.010306)
(0.692314 -1.20885e-24 0.0192761)
(0.781263 3.04352e-23 0.00683425)
(0.659208 -6.14744e-23 0.0171544)
(0.765728 7.4109e-23 0.00150188)
(0.624882 9.59118e-25 0.0114707)
(0.755725 3.53255e-23 -0.00421436)
(0.592477 8.13289e-23 0.00381016)
(0.749886 -6.0761e-24 -0.00896697)
(0.565938 -4.40781e-23 -0.00291482)
(0.746382 -4.72052e-23 -0.0126652)
(0.549317 -1.0111e-22 -0.00801712)
(0.744359 3.17982e-23 -0.0160159)
(0.539968 7.06093e-23 -0.0126274)
(0.743917 6.80606e-23 -0.0201827)
(0.536962 4.47405e-23 -0.0179114)
(0.748027 3.55443e-23 -0.0267816)
(0.540029 -2.89364e-23 -0.0256799)
(0.762484 1.75419e-23 -0.0367219)
(0.551337 1.68204e-23 -0.0373548)
(0.793428 -6.24724e-24 -0.0477136)
(0.571916 -2.01509e-23 -0.0523331)
(0.607424 8.88884e-24 -0.0655563)
(0.762216 0 0.0312846)
(0.634615 -3.2197e-21 0.0346582)
(0.747254 0 0.0342979)
(0.613294 1.79764e-21 0.0416209)
(0.729069 0 0.0325025)
(0.587364 -1.06334e-21 0.0426773)
(0.708559 -7.24734e-22 0.0281616)
(0.556252 1.25059e-21 0.0401949)
(0.685933 -7.07761e-22 0.023832)
(0.519634 -2.12219e-21 0.0367991)
(0.660282 5.79646e-22 0.0217447)
(0.477912 3.06983e-22 0.0353228)
(0.629663 5.36609e-22 0.0227214)
(0.432933 5.31326e-22 0.0375468)
(0.592358 1.09973e-22 0.0256406)
(0.387141 0 0.0425626)
(0.548525 6.14419e-23 0.0280411)
(0.34121 -3.21791e-22 0.0468777)
(0.500242 -9.83642e-23 0.0275137)
(0.295158 3.73146e-22 0.0470057)
(0.450553 3.29684e-23 0.0231427)
(0.250419 5.00838e-23 0.0416125)
(0.404231 -1.67984e-23 0.0160793)
(0.209601 -8.17483e-23 0.0313554)
(0.367792 -1.46023e-22 0.00835789)
(0.177167 1.55791e-22 0.0182843)
(0.343798 1.50177e-23 0.000677979)
(0.158006 -8.28133e-24 0.00558481)
(0.331493 8.6245e-23 -0.00825456)
(0.148777 3.649e-23 -0.00591799)
(0.330947 -4.97222e-23 -0.0200075)
(0.146945 -4.31906e-24 -0.0178832)
(0.340596 -5.90735e-23 -0.0349682)
(0.15079 -5.85061e-23 -0.0312363)
(0.357501 -1.7155e-23 -0.0523662)
(0.159017 5.60561e-24 -0.046719)
(0.379911 -5.31538e-24 -0.0707701)
(0.168518 -3.82911e-23 -0.064454)
(0.176839 -4.09997e-23 -0.0837681)
(0.483979 -1.47084e-21 0.0416429)
(0.298778 -1.54934e-22 0.053979)
(0.45231 8.95517e-22 0.0480014)
(0.256677 -1.1936e-21 0.0642101)
(0.413676 1.64534e-22 0.0499544)
(0.210449 -1.40333e-21 0.0696944)
(0.366862 1.39679e-24 0.0501768)
(0.159892 1.25009e-21 0.0723895)
(0.312222 -1.11309e-21 0.051026)
(0.104435 -1.34104e-21 0.0737665)
(0.252163 2.80134e-22 0.0542468)
(0.0464013 -3.10847e-22 0.0752708)
(0.191194 0 0.0597911)
(-0.00987592 5.01416e-22 0.0773639)
(0.134031 -4.28522e-22 0.0650848)
(-0.0598863 -4.91085e-22 0.0791638)
(0.0835756 -2.71007e-22 0.0663245)
(-0.102022 -6.53618e-22 0.0785102)
(0.0412381 5.22073e-22 0.0610484)
(-0.136777 4.24339e-22 0.072965)
(0.00819846 -6.60839e-23 0.0493776)
(-0.16424 9.44215e-23 0.061391)
(-0.0148939 1.23812e-22 0.033461)
(-0.184245 -1.70058e-22 0.0448)
(-0.0288994 3.03553e-22 0.0164423)
(-0.197306 6.56649e-25 0.0261412)
(-0.035358 1.09571e-23 0.000654786)
(-0.204416 6.63409e-23 0.00894639)
(-0.0363862 -5.71493e-23 -0.0137214)
(-0.206924 -1.66147e-22 -0.00569269)
(-0.0348172 0 -0.0275762)
(-0.208548 0 -0.0191117)
(-0.033028 5.55119e-24 -0.041918)
(-0.210737 -1.57276e-23 -0.0325775)
(-0.032238 -1.34978e-23 -0.058316)
(-0.214722 3.17295e-23 -0.047528)
(-0.0303388 -4.50004e-23 -0.0786341)
(-0.221497 1.1746e-23 -0.0658753)
(-0.229856 -3.05415e-24 -0.0880312)
(0.0692674 6.75716e-22 0.0773525)
(-0.123571 6.48524e-21 0.0925998)
(0.0135761 -3.3741e-21 0.0864658)
(-0.177462 -6.35166e-21 0.104191)
(-0.0444273 -3.4683e-22 0.0917159)
(-0.231897 2.29435e-21 0.110448)
(-0.103071 2.7859e-24 0.0944427)
(-0.285653 -1.35252e-21 0.112767)
(-0.16043 -5.45007e-22 0.0957598)
(-0.338171 -2.33863e-21 0.112489)
(-0.21374 -6.26415e-23 0.0963676)
(-0.386757 8.37747e-22 0.110548)
(-0.260356 3.67362e-23 0.0959929)
(-0.428694 5.01294e-22 0.107566)
(-0.298307 -7.14559e-22 0.0932637)
(-0.462267 -9.5168e-22 0.103185)
(-0.326666 -2.23019e-22 0.0863597)
(-0.487129 8.68406e-22 0.0959777)
(-0.345825 0 0.0741327)
(-0.504126 -2.16465e-22 0.0843645)
(-0.357473 -6.92314e-24 0.0570797)
(-0.514939 1.84049e-22 0.0679896)
(-0.364345 -2.75652e-22 0.037509)
(-0.521894 3.27349e-22 0.0484284)
(-0.369323 -2.36152e-22 0.0185427)
(-0.527369 -3.89757e-22 0.0286114)
(-0.373913 -1.08469e-22 0.00207792)
(-0.532696 -1.19168e-22 0.0111644)
(-0.37875 -1.10626e-22 -0.0121703)
(-0.53769 1.27885e-22 -0.00337029)
(-0.384885 -1.55738e-23 -0.0253803)
(-0.545101 0 -0.0161171)
(-0.393266 8.2501e-24 -0.0390801)
(-0.555297 5.1768e-23 -0.0284313)
(-0.403413 3.95716e-23 -0.0557524)
(-0.568789 7.40512e-23 -0.0425436)
(-0.412594 3.40826e-23 -0.0759404)
(-0.584553 -7.80128e-24 -0.0615351)
(-0.596923 3.1599e-23 -0.0832683)
(-0.37242 5.72065e-22 0.119026)
(-0.534474 9.62772e-21 0.131262)
(-0.424178 -7.59617e-22 0.127285)
(-0.583843 -6.2759e-21 0.141341)
(-0.474104 1.55882e-21 0.130656)
(-0.630326 5.23288e-21 0.145437)
(-0.521062 -3.63038e-21 0.130314)
(-0.673594 -3.58684e-21 0.144942)
(-0.563676 -9.72299e-22 0.127327)
(-0.713007 -2.05313e-21 0.141046)
(-0.600625 1.41069e-21 0.122452)
(-0.747429 2.71355e-21 0.134747)
(-0.630603 -4.55949e-22 0.115842)
(-0.775694 -1.02891e-21 0.126708)
(-0.6527 5.61307e-22 0.10686)
(-0.797 -4.60591e-22 0.116857)
(-0.66703 9.76274e-22 0.0944881)
(-0.811448 1.09785e-21 0.104452)
(-0.675128 -3.64589e-23 0.0782682)
(-0.820286 -4.2175e-22 0.0887938)
(-0.679627 5.09793e-22 0.0590878)
(-0.82569 -5.36525e-22 0.0701483)
(-0.683316 1.47885e-22 0.0390881)
(-0.830121 5.14176e-22 0.0500855)
(-0.688084 -2.75458e-22 0.0206112)
(-0.835498 -1.45848e-22 0.0309005)
(-0.694554 1.40311e-22 0.00495432)
(-0.842575 3.45038e-24 0.0144147)
(-0.703423 2.28334e-22 -0.00811309)
(-0.851213 1.23398e-22 0.00118694)
(-0.715463 6.68337e-23 -0.0198632)
(-0.863165 8.3124e-23 -0.00988505)
(-0.730498 1.1561e-22 -0.0324557)
(-0.879474 -6.82861e-24 -0.0207004)
(-0.747065 1.82048e-23 -0.0489176)
(-0.899556 -6.05497e-24 -0.0341698)
(-0.763497 -2.84267e-24 -0.0687684)
(-0.920738 2.72346e-24 -0.0534311)
(-0.934447 9.89255e-24 -0.0736641)
(-0.74736 3.64797e-21 0.154533)
(-0.879752 6.19024e-21 0.1664)
(-0.790947 -4.02529e-22 0.159843)
(-0.922939 -3.28808e-21 0.172612)
(-0.830417 5.71914e-22 0.159792)
(-0.961377 2.59525e-21 0.172983)
(-0.865611 -1.96994e-21 0.155663)
(-0.995475 -4.91072e-21 0.168867)
(-0.896254 1.59727e-21 0.148524)
(-1.02542 2.33197e-21 0.161346)
(-0.921951 3.07339e-22 0.139167)
(-1.05105 1.04897e-21 0.151315)
(-0.942194 -1.0394e-21 0.127914)
(-1.07192 -1.98901e-21 0.139355)
(-0.956738 0 0.114558)
(-1.08774 7.13848e-22 0.125571)
(-0.966127 -1.98938e-22 0.0987143)
(-1.09885 4.1269e-22 0.109723)
(-0.971889 -9.09596e-22 0.0804572)
(-1.10642 -7.89682e-22 0.0917127)
(-0.976165 -5.32577e-22 0.0607673)
(-1.11226 -1.5859e-22 0.0721239)
(-0.981007 2.22908e-22 0.0413872)
(-1.11829 3.44604e-22 0.0523926)
(-0.987856 1.31556e-22 0.0241127)
(-1.12601 1.94332e-23 0.0343759)
(-0.997537 2.21461e-23 0.00997377)
(-1.13612 -5.43682e-24 0.0194835)
(-1.01042 -2.14149e-23 -0.00131185)
(-1.14887 5.88827e-24 0.00798455)
(-1.02704 1.72445e-23 -0.0113293)
(-1.16487 -7.38806e-24 -0.00114218)
(-1.04706 -1.15367e-22 -0.0228568)
(-1.18566 -6.7349e-23 -0.0102831)
(-1.06868 -2.06063e-23 -0.0390091)
(-1.21094 -4.78249e-23 -0.0231314)
(-1.09111 1.05337e-23 -0.0581867)
(-1.23628 -1.51146e-23 -0.0422149)
(-1.25086 -3.42169e-24 -0.0610621)
(-1.05645 -3.4989e-22 0.185349)
(-1.16653 -3.48826e-21 0.19851)
(-1.09411 -3.52162e-22 0.186232)
(-1.20588 2.67616e-21 0.199582)
(-1.12686 -2.64817e-21 0.182282)
(-1.23971 -1.99797e-21 0.195732)
(-1.15536 -7.62066e-22 0.174629)
(-1.26909 -9.47604e-22 0.188091)
(-1.17998 1.79894e-21 0.164156)
(-1.29476 -1.01769e-21 0.177487)
(-1.20078 -1.21923e-21 0.151504)
(-1.31699 7.87834e-22 0.164551)
(-1.21761 -2.93531e-22 0.137005)
(-1.33567 -7.23422e-22 0.149708)
(-1.23049 1.12956e-21 0.120713)
(-1.35077 1.16324e-21 0.133163)
(-1.23998 -1.35807e-22 0.102663)
(-1.36262 4.12618e-22 0.115021)
(-1.2473 -6.53393e-23 0.0832672)
(-1.37221 -6.04944e-22 0.0955739)
(-1.25412 7.12229e-22 0.0635789)
(-1.38098 1.89431e-22 0.075633)
(-1.26211 1.63308e-22 0.045153)
(-1.39047 -3.19311e-24 0.056565)
(-1.27251 -1.16946e-22 0.029448)
(-1.40193 1.84398e-23 0.0399232)
(-1.28606 -2.21169e-23 0.0171194)
(-1.416 -1.11243e-22 0.026762)
(-1.303 2.13678e-23 0.00767264)
(-1.43287 2.89985e-22 0.01706)
(-1.3233 -8.37615e-23 -0.000656406)
(-1.45305 6.58774e-23 0.00961934)
(-1.34684 0 -0.0110155)
(-1.47765 -1.09354e-22 0.00202103)
(-1.3728 -4.26468e-23 -0.0265331)
(-1.50674 -6.17493e-23 -0.00979761)
(-1.40051 -4.81421e-23 -0.0448847)
(-1.53525 -2.68238e-24 -0.0282519)
(-1.55057 1.12966e-23 -0.0460462)
(-1.31694 -5.37571e-22 0.213549)
(-1.41111 -6.33457e-21 0.229393)
(-1.35216 1.27681e-21 0.209562)
(-1.4493 5.80514e-21 0.224779)
(-1.38234 -3.1014e-22 0.201807)
(-1.48176 -5.02329e-21 0.216654)
(-1.40862 -1.19594e-21 0.191093)
(-1.50997 5.21988e-21 0.205775)
(-1.4317 -2.07173e-21 0.177965)
(-1.53499 -3.05732e-21 0.192575)
(-1.45182 1.29938e-21 0.162806)
(-1.55728 1.05377e-21 0.177322)
(-1.46897 6.81611e-22 0.145898)
(-1.57691 -9.11887e-22 0.160264)
(-1.48328 4.5189e-22 0.127486)
(-1.59395 1.11635e-21 0.141673)
(-1.49527 -1.31977e-23 0.10793)
(-1.60877 -7.8347e-22 0.121905)
(-1.506 -3.67757e-22 0.0879136)
(-1.62219 9.44172e-22 0.101554)
(-1.51684 -5.20557e-22 0.0685537)
(-1.63539 -1.95484e-22 0.0815944)
(-1.52914 -1.48176e-22 0.0512258)
(-1.64965 -1.57334e-22 0.0633257)
(-1.54394 4.72311e-23 0.0370992)
(-1.66594 1.08815e-23 0.0480497)
(-1.5618 1.96839e-22 0.026557)
(-1.68461 2.33936e-23 0.0365244)
(-1.58291 3.36706e-22 0.0188391)
(-1.70567 -7.93686e-23 0.0284846)
(-1.60703 4.20077e-23 0.0119651)
(-1.72961 -3.30588e-24 0.0224872)
(-1.63352 -1.71561e-22 0.00272213)
(-1.75781 -1.49436e-23 0.0159139)
(-1.66256 -6.39371e-23 -0.0118343)
(-1.79025 -2.82402e-23 0.00516147)
(-1.69482 2.21223e-23 -0.0291471)
(-1.82079 4.56093e-23 -0.0119231)
(-1.83617 -1.93225e-23 -0.0286725)
(-1.54438 -3.65078e-22 0.2413)
(-1.62657 -7.82355e-21 0.260431)
(-1.57954 -1.92699e-22 0.232309)
(-1.6651 4.81288e-21 0.249955)
(-1.60977 2.61562e-22 0.220897)
(-1.69795 -1.30111e-21 0.237646)
(-1.63649 3.5322e-21 0.207442)
(-1.72695 6.78347e-22 0.223818)
(-1.66058 0 0.192075)
(-1.75333 0 0.208404)
(-1.68238 -1.13463e-21 0.174899)
(-1.77766 9.38491e-22 0.191271)
(-1.70199 -5.22291e-22 0.156137)
(-1.80009 -1.18631e-21 0.172483)
(-1.71962 -9.69706e-23 0.136173)
(-1.82073 -1.4211e-21 0.152367)
(-1.7358 1.3829e-22 0.115605)
(-1.84001 4.02644e-22 0.131475)
(-1.75141 1.12947e-21 0.0953126)
(-1.85864 6.09766e-22 0.110608)
(-1.76757 1.67327e-22 0.0764399)
(-1.87758 3.37404e-22 0.0908363)
(-1.78532 0 0.0602011)
(-1.89778 0 0.0733688)
(-1.80532 1.10585e-23 0.047492)
(-1.91988 0 0.0592516)
(-1.82781 -2.44073e-22 0.038435)
(-1.94393 -9.708e-23 0.0489628)
(-1.85272 -4.14124e-22 0.0320693)
(-1.96961 -1.8105e-22 0.0420568)
(-1.87988 -6.29138e-23 0.0262851)
(-1.99733 -2.0191e-23 0.0370333)
(-1.9092 1.67741e-22 0.0180031)
(-2.02897 1.76577e-22 0.0313302)
(-1.94104 1.11064e-22 0.00461095)
(-2.06522 8.96816e-23 0.0215941)
(-1.97678 4.83489e-24 -0.0113938)
(-2.09851 1.28711e-23 0.00620397)
(-2.11414 -8.1308e-24 -0.00886557)
(-1.74814 -3.25533e-21 0.269601)
(-1.82003 -5.66592e-21 0.292062)
(-1.78413 3.77301e-21 0.255625)
(-1.85909 2.66463e-21 0.275786)
(-1.81548 -9.08851e-22 0.240765)
(-1.8928 2.30972e-21 0.259533)
(-1.84393 -2.84468e-21 0.224913)
(-1.92333 -2.81226e-21 0.243167)
(-1.87045 9.27829e-22 0.207712)
(-1.95214 9.53103e-22 0.226008)
(-1.89541 9.37642e-22 0.188951)
(-1.97977 -4.37639e-22 0.207441)
(-1.9189 -2.08188e-21 0.168789)
(-2.00631 -3.92711e-23 0.187352)
(-1.94117 -9.61609e-22 0.147732)
(-2.03183 -1.28082e-21 0.166148)
(-1.96276 8.56551e-22 0.126545)
(-2.05673 7.59472e-22 0.14456)
(-1.98444 -1.67794e-22 0.106209)
(-2.08169 -7.02976e-22 0.123504)
(-2.007 1.75089e-22 0.0878434)
(-2.10742 4.70881e-22 0.104052)
(-2.03117 0 0.0724871)
(-2.13451 -3.17274e-23 0.0873078)
(-2.05728 -1.07142e-22 0.0607731)
(-2.16321 -2.26604e-23 0.0740868)
(-2.08529 -2.89788e-23 0.0526118)
(-2.19332 1.85576e-24 0.0646062)
(-2.11487 2.10186e-22 0.0469869)
(-2.22431 2.42743e-22 0.0582853)
(-2.14586 2.17354e-22 0.0419019)
(-2.25661 5.0406e-23 0.0537034)
(-2.17861 1.4702e-22 0.0345723)
(-2.29242 -1.63114e-23 0.048608)
(-2.21443 6.01449e-23 0.0227895)
(-2.33286 6.70118e-23 0.0401457)
(-2.25524 1.21566e-22 0.00878139)
(-2.36996 7.9212e-24 0.0269786)
(-2.38705 5.53155e-24 0.0141691)
(-1.9318 -7.74261e-23 0.29856)
(-1.9928 -6.86444e-22 0.323953)
(-1.96838 1.20058e-21 0.279835)
(-2.0316 8.9121e-23 0.302148)
(-2.00094 5.81829e-22 0.261951)
(-2.06561 2.11206e-21 0.28242)
(-2.0316 9.41956e-22 0.244262)
(-2.09756 -1.98791e-21 0.264237)
(-2.06146 -3.69825e-22 0.225775)
(-2.12918 9.52888e-22 0.246074)
(-2.0907 -1.39121e-21 0.205901)
(-2.16084 -9.24765e-22 0.226667)
(-2.11927 7.96266e-22 0.184761)
(-2.19229 -8.02113e-22 0.205724)
(-2.14732 4.13585e-22 0.163018)
(-2.22341 1.23824e-21 0.183814)
(-2.17538 -7.80892e-22 0.141585)
(-2.2545 6.42704e-22 0.161887)
(-2.2041 -6.65863e-23 0.121462)
(-2.28612 -6.99748e-22 0.140909)
(-2.23397 2.39172e-22 0.103679)
(-2.31877 5.90939e-22 0.121841)
(-2.26528 -9.64518e-23 0.0890996)
(-2.3526 -3.1726e-23 0.105626)
(-2.29806 8.96086e-23 0.07813)
(-2.38739 -2.54006e-22 0.092919)
(-2.33206 2.71122e-22 0.0705026)
(-2.42266 2.93619e-22 0.0837781)
(-2.36694 1.10107e-22 0.0652088)
(-2.45788 3.02367e-22 0.0775671)
(-2.40258 -1.85177e-22 0.0605129)
(-2.4936 -2.00888e-22 0.073014)
(-2.43958 -2.28962e-23 0.0540836)
(-2.53237 -5.11431e-23 0.0682525)
(-2.47948 1.08335e-22 0.0440905)
(-2.57551 2.16372e-23 0.0609291)
(-2.5243 6.80989e-24 0.0323489)
(-2.61478 6.39525e-24 0.0499147)
(-2.63288 -1.55534e-23 0.0395878)
(-2.09351 -5.29053e-22 0.327681)
(-2.14014 -1.63448e-21 0.355283)
(-2.12953 9.7617e-22 0.304633)
(-2.17692 1.63484e-21 0.328246)
(-2.16241 -3.22646e-22 0.284458)
(-2.20938 2.51396e-21 0.30574)
(-2.19502 -2.011e-21 0.265861)
(-2.24142 -1.98758e-21 0.286917)
(-2.22845 4.38568e-22 0.246903)
(-2.27517 0 0.268857)
(-2.26242 -3.44209e-22 0.22649)
(-2.31045 8.30529e-22 0.249332)
(-2.29643 -4.22267e-22 0.204766)
(-2.34628 -8.02029e-22 0.227927)
(-2.33042 1.47591e-21 0.182638)
(-2.38218 7.81061e-22 0.205546)
(-2.36479 7.38758e-22 0.161169)
(-2.41839 1.04143e-21 0.183434)
(-2.40003 -5.60033e-23 0.141295)
(-2.45539 -3.4252e-22 0.162573)
(-2.43628 2.96441e-22 0.123856)
(-2.4935 -9.24367e-24 0.143702)
(-2.47331 -2.29002e-22 0.109546)
(-2.53251 2.34177e-22 0.127536)
(-2.51077 -5.5729e-23 0.0986672)
(-2.57173 -4.60781e-22 0.114644)
(-2.54829 3.2229e-22 0.0909138)
(-2.61044 -2.43952e-22 0.105104)
(-2.58561 2.7775e-23 0.0853598)
(-2.64806 1.37215e-22 0.0983526)
(-2.62284 -6.53841e-23 0.08055)
(-2.68527 -1.7471e-22 0.093318)
(-2.66079 1.42542e-22 0.0746372)
(-2.7249 -1.77643e-23 0.088537)
(-2.70146 1.28206e-23 0.0662015)
(-2.76867 1.26979e-23 0.0822506)
(-2.7473 -3.4852e-25 0.0566105)
(-2.80854 0 0.0735275)
(-2.82693 -6.20415e-24 0.0653923)
(-2.22486 1.21298e-22 0.35597)
(-2.25079 -1.70229e-22 0.384799)
(-2.25774 3.11834e-21 0.328986)
(-2.28259 2.24442e-21 0.352205)
(-2.28835 9.60023e-22 0.307591)
(-2.30966 2.55994e-24 0.327655)
(-2.32111 0 0.289495)
(-2.33867 1.62261e-21 0.310009)
(-2.35687 3.82333e-22 0.271118)
(-2.37246 -1.9157e-21 0.29359)
(-2.39429 3.91279e-22 0.250682)
(-2.40948 3.80041e-22 0.274654)
(-2.43206 3.5188e-22 0.22855)
(-2.44745 0 0.252928)
(-2.46992 3.4422e-22 0.206086)
(-2.48543 -2.45332e-23 0.230076)
(-2.50837 -1.59902e-23 0.184554)
(-2.52393 -3.78867e-22 0.20785)
(-2.5479 -2.89873e-22 0.164753)
(-2.56377 0 0.187181)
(-2.58844 -6.44666e-23 0.147258)
(-2.60522 -2.93031e-22 0.16844)
(-2.62941 -3.8945e-23 0.132612)
(-2.64774 2.34173e-22 0.152043)
(-2.67012 -6.51624e-22 0.12114)
(-2.6903 -3.62243e-23 0.138503)
(-2.71005 -4.3978e-22 0.112652)
(-2.73178 -3.27487e-22 0.12803)
(-2.74894 -2.81361e-23 0.106398)
(-2.7714 6.33677e-23 0.120225)
(-2.78693 -1.23799e-22 0.101246)
(-2.80973 -4.10059e-23 0.114241)
(-2.82513 -6.65988e-23 0.0958889)
(-2.84976 -8.99719e-23 0.109148)
(-2.86606 0 0.0892634)
(-2.89381 7.29014e-24 0.103921)
(-2.91233 -5.79153e-24 0.0820297)
(-2.93421 6.83459e-25 0.0975872)
(-2.95307 -3.40972e-23 0.0922569)
(-2.3111 1.54307e-21 0.381204)
(-2.30808 1.33309e-21 0.411206)
(-2.33626 -8.15037e-22 0.349993)
(-2.33097 4.40013e-22 0.370561)
(-2.35946 7.45513e-22 0.328749)
(-2.34621 -1.20195e-21 0.344418)
(-2.38889 -3.49601e-22 0.313267)
(-2.36744 1.65311e-21 0.331094)
(-2.42451 -1.90836e-21 0.296758)
(-2.39887 -1.59788e-21 0.318609)
(-2.46272 7.40719e-24 0.276605)
(-2.43569 3.46727e-22 0.300873)
(-2.50101 -3.51834e-22 0.253972)
(-2.47325 -3.02366e-22 0.278608)
(-2.53921 -6.92386e-22 0.23117)
(-2.51042 -3.57475e-22 0.255155)
(-2.57854 -3.39997e-22 0.209769)
(-2.5487 -6.42476e-22 0.233145)
(-2.61988 0 0.190264)
(-2.58987 -2.72828e-22 0.213246)
(-2.66303 0 0.172795)
(-2.63423 -2.33858e-22 0.195088)
(-2.70697 1.91091e-22 0.157698)
(-2.68068 1.96467e-23 0.178636)
(-2.75058 2.89567e-22 0.14534)
(-2.72746 9.23795e-24 0.164347)
(-2.79293 1.61694e-22 0.135708)
(-2.7728 -9.33239e-23 0.15262)
(-2.83354 8.70935e-23 0.128287)
(-2.81537 1.72344e-22 0.143321)
(-2.87246 -1.41425e-24 0.122365)
(-2.85545 -1.155e-23 0.135928)
(-2.9109 5.71341e-23 0.117276)
(-2.89613 -9.19243e-24 0.130145)
(-2.9519 8.03693e-24 0.112284)
(-2.94042 7.42668e-24 0.125889)
(-2.99848 -5.58221e-23 0.107138)
(-2.98145 -2.30802e-25 0.122084)
(-3.001 6.19281e-24 0.120276)
(-2.30316 1.58238e-21 0.4454)
(-2.24636 1.65069e-21 0.482407)
(-2.33438 2.33457e-22 0.403267)
(-2.2905 -9.21802e-22 0.435896)
(-2.34489 1.89189e-22 0.364704)
(-2.30179 1.52515e-21 0.378263)
(-2.35221 -2.20229e-22 0.345207)
(-2.2941 -1.7338e-21 0.349957)
(-2.37468 3.4951e-22 0.336135)
(-2.30096 5.92219e-22 0.348255)
(-2.40889 6.95877e-22 0.323247)
(-2.32949 3.57981e-22 0.344046)
(-2.44636 4.13787e-23 0.303288)
(-2.36581 8.34954e-23 0.328)
(-2.48296 -3.06547e-22 0.279726)
(-2.40103 1.83263e-23 0.304489)
(-2.51942 -2.81159e-22 0.256729)
(-2.43474 5.73935e-23 0.280393)
(-2.55862 -5.83969e-22 0.236223)
(-2.4711 -2.63412e-23 0.259728)
(-2.60233 -5.16822e-22 0.217901)
(-2.5139 2.78718e-22 0.242261)
(-2.64984 -1.62196e-22 0.201035)
(-2.56346 -4.62235e-22 0.225947)
(-2.69914 -1.63837e-22 0.185629)
(-2.61728 4.54128e-22 0.20997)
(-2.74806 -3.80145e-22 0.172143)
(-2.67205 -1.88266e-22 0.194794)
(-2.79494 -9.44794e-23 0.16086)
(-2.72469 -1.19981e-23 0.181194)
(-2.83884 1.14535e-22 0.151658)
(-2.77293 5.39233e-23 0.169547)
(-2.87967 -2.45511e-24 0.144356)
(-2.81645 -2.96878e-23 0.159849)
(-2.91865 1.5724e-23 0.139085)
(-2.85835 -2.2019e-23 0.152545)
(-2.95943 -9.35659e-25 0.135663)
(-2.9027 2.09583e-24 0.148887)
(-3.00693 5.79601e-23 0.132812)
(-2.94434 -5.72604e-23 0.148354)
(-2.96479 9.58824e-25 0.149757)
(-2.23014 -3.95885e-22 0.509006)
(-2.27333 -1.0968e-21 0.426443)
(-2.26015 9.82843e-22 0.3593)
(-2.15661 8.83136e-22 0.366812)
(-2.23493 2.50808e-23 0.345441)
(-2.10891 -1.38142e-21 0.330256)
(-2.24872 6.06589e-22 0.353605)
(-2.09816 7.20521e-22 0.359863)
(-2.28388 -2.62639e-22 0.348527)
(-2.13191 -1.00116e-22 0.371437)
(-2.32043 2.90623e-23 0.328972)
(-2.171 -3.21641e-22 0.355608)
(-2.35285 3.12559e-22 0.30441)
(-2.20099 8.18573e-22 0.32845)
(-2.38489 2.67365e-22 0.282392)
(-2.22573 -2.54613e-22 0.303618)
(-2.42322 8.21813e-22 0.265009)
(-2.2557 1.22885e-23 0.28687)
(-2.47132 3.22892e-22 0.249997)
(-2.29904 4.92198e-22 0.275462)
(-2.52718 2.73219e-22 0.23489)
(-2.3561 -4.65163e-22 0.263571)
(-2.58663 4.3204e-22 0.219317)
(-2.42174 6.19679e-22 0.249108)
(-2.64561 1.80237e-22 0.204121)
(-2.49003 -6.33493e-23 0.232794)
(-2.70098 1.29411e-22 0.190234)
(-2.55562 2.46356e-22 0.216152)
(-2.75098 -5.178e-23 0.1782)
(-2.61438 -5.18713e-23 0.200514)
(-2.79531 -4.15201e-23 0.168549)
(-2.66471 0 0.186823)
(-2.83523 -4.02516e-23 0.162475)
(-2.70928 -4.64695e-23 0.176434)
(-2.87498 4.1701e-24 0.16095)
(-2.75346 2.1451e-23 0.172261)
(-2.92293 -5.75678e-23 0.161779)
(-2.7952 2.95073e-24 0.175961)
(-2.81674 -2.689e-23 0.180996)
(-2.02666 -2.72006e-22 0.281086)
(-1.94176 1.13889e-22 0.345426)
(-1.96609 1.65388e-23 0.396732)
(-1.60134 -5.09732e-22 0.381649)
(-2.01601 1.54709e-22 0.393926)
(-1.73228 1.22572e-21 0.411711)
(-2.05241 7.77046e-22 0.362851)
(-1.80109 3.7078e-22 0.384259)
(-2.07409 4.6131e-22 0.329734)
(-1.82576 -1.65439e-21 0.345525)
(-2.09342 -5.4632e-22 0.30742)
(-1.83131 -3.07126e-22 0.318786)
(-2.1253 -2.97641e-22 0.296198)
(-1.84297 -1.60799e-22 0.310795)
(-2.17712 -3.76017e-22 0.28824)
(-1.87805 2.28064e-22 0.312789)
(-2.2443 -5.69799e-23 0.277181)
(-1.93722 -4.81276e-22 0.310535)
(-2.31922 1.27926e-22 0.262186)
(-2.0117 8.22978e-23 0.300199)
(-2.39482 2.94898e-23 0.244792)
(-2.09384 1.21887e-22 0.283247)
(-2.46526 6.34331e-23 0.226811)
(-2.17703 8.58324e-24 0.262259)
(-2.52677 0 0.209831)
(-2.25439 -4.3566e-23 0.240096)
(-2.57823 1.25806e-23 0.195664)
(-2.32048 4.33397e-24 0.219476)
(-2.62082 3.21783e-23 0.187154)
(-2.37478 -2.18383e-23 0.203172)
(-2.65881 1.30283e-22 0.18724)
(-2.42257 -2.41889e-23 0.195854)
(-2.70461 8.58433e-23 0.193555)
(-2.46594 3.36026e-23 0.203721)
(-2.49002 2.38847e-23 0.216766)
(-1.34783 -1.64061e-23 0.338647)
(-1.52004 2.08002e-22 0.324861)
(0.247533 -9.69877e-23 0.55573)
(-1.57882 -1.389e-22 0.306937)
(-0.138283 -6.22913e-22 0.435388)
(-1.58405 -1.2252e-21 0.299724)
(-0.452311 -1.38995e-21 0.35388)
(-1.57486 -5.16327e-23 0.308499)
(-0.704395 -1.23279e-21 0.315602)
(-1.58367 2.29531e-22 0.326738)
(-0.91652 6.44391e-24 0.320278)
(-1.62659 -1.99415e-22 0.339348)
(-1.06381 -2.64361e-22 0.346023)
(-1.69411 -4.25923e-22 0.337925)
(-1.1758 -7.06065e-24 0.360013)
(-1.77645 -7.17205e-25 0.324101)
(-1.27216 -1.87963e-22 0.358664)
(-1.86705 9.82435e-23 0.301566)
(-1.36283 -5.65996e-22 0.346013)
(-1.95869 -9.98284e-23 0.274329)
(-1.45291 -1.28537e-22 0.324468)
(-2.04326 -5.41619e-23 0.247213)
(-1.54273 2.61168e-22 0.296578)
(-2.11455 5.61076e-24 0.225015)
(-1.63032 1.0461e-22 0.266565)
(-2.17057 -1.77517e-23 0.212007)
(-1.71302 -2.9584e-24 0.239997)
(-2.2132 -1.29449e-22 0.212768)
(-1.78882 -2.29147e-23 0.223971)
(-2.25462 -8.60381e-23 0.227143)
(-1.85294 3.69086e-22 0.230723)
(-1.8931 2.6885e-23 0.261653)
(1.65951 -4.09674e-22 0.706086)
(1.0108 7.97724e-23 0.544057)
(0.445123 6.45726e-22 0.429271)
(2.58225 8.04998e-22 0.805028)
(-0.0232801 8.67902e-22 0.36431)
(1.99612 1.69086e-22 0.681674)
(-0.369279 8.18337e-23 0.34282)
(1.47561 -6.4366e-22 0.586172)
(-0.59312 -3.19604e-23 0.345689)
(1.06295 -1.91356e-22 0.516251)
(-0.737972 2.40849e-22 0.352387)
(0.730551 2.41115e-22 0.469568)
(-0.843761 -1.28724e-22 0.354168)
(0.454758 0 0.438133)
(-0.935029 -2.0385e-22 0.347974)
(0.221265 -1.82574e-22 0.413562)
(-1.02457 -4.06361e-23 0.33277)
(0.0176555 -1.50739e-22 0.389263)
(-1.119 1.99721e-23 0.309121)
(-0.166638 3.40065e-23 0.363149)
(-1.2205 -3.16861e-23 0.280341)
(-0.337951 -1.01826e-22 0.336306)
(-1.32421 -7.80603e-24 0.255503)
(-0.4958 5.15689e-23 0.309788)
(-1.41573 7.20816e-23 0.24979)
(-0.635686 -9.09373e-24 0.284974)
(-1.46756 5.75691e-23 0.273585)
(-0.741989 4.59912e-24 0.266736)
(-0.914543 0 0.326099)
(4.17796 3.31862e-22 0.998593)
(3.54553 -1.34611e-22 0.854852)
(2.96104 -3.77368e-23 0.735453)
(5.01885 4.02302e-22 1.04404)
(2.43093 -4.46745e-23 0.639531)
(4.45329 7.25563e-22 0.923256)
(1.96178 0 0.566205)
(3.93036 -3.2193e-22 0.822885)
(1.55437 -5.09627e-23 0.510635)
(3.45387 -8.64056e-23 0.739381)
(1.2037 1.24237e-22 0.465889)
(3.02508 -1.37275e-22 0.66841)
(0.900578 1.23145e-22 0.42639)
(2.64043 2.18355e-22 0.605963)
(0.63622 4.22054e-23 0.390093)
(2.29318 -1.91002e-24 0.549223)
(0.40547 9.9013e-23 0.356848)
(1.97791 3.74624e-22 0.496466)
(0.205443 1.27938e-23 0.326093)
(1.69239 2.03409e-22 0.447017)
(0.031387 -5.87731e-23 0.300401)
(1.4336 -8.91854e-24 0.403255)
(-0.121598 -5.42585e-23 0.352207)
(1.21846 4.88791e-22 0.369954)
(0.845082 -1.04519e-22 0.456788)
(6.56169 5.2406e-22 1.21822)
(6.00249 -2.00558e-22 1.08732)
(7.86544 5.68087e-22 1.36222)
(5.47207 -4.15885e-22 0.974433)
(7.34579 -9.95697e-23 1.23115)
(4.97342 -1.4185e-22 0.87629)
(6.84866 -1.47468e-22 1.11593)
(4.50807 8.06512e-24 0.789724)
(6.37639 3.21728e-22 1.01339)
(4.07569 9.52608e-23 0.712243)
(5.92987 -1.93675e-22 0.920867)
(3.67439 -3.27356e-23 0.64207)
(5.50828 -1.95632e-24 0.836575)
(3.30097 -6.90491e-23 0.578224)
(5.1096 -2.45059e-23 0.759574)
(2.9505 -5.38491e-23 0.521816)
(4.73087 -4.55826e-23 0.690134)
(2.61621 4.74916e-23 0.47967)
(4.36664 -3.40023e-24 0.631614)
(2.27655 -5.27825e-23 0.492783)
(4.0283 5.19966e-23 0.597879)
(3.55577 -9.07766e-22 0.642249)
(9.25366 5.61876e-22 1.50867)
(8.76803 4.7202e-23 1.37316)
(8.2979 1.66101e-22 1.25176)
(9.92444 -6.93701e-22 1.47895)
(7.84447 1.34087e-22 1.14196)
(9.49526 2.11413e-22 1.35702)
(7.40805 -9.2001e-23 1.04197)
(9.07811 -1.35203e-22 1.24567)
(6.98798 0 0.950834)
(8.67279 1.02982e-23 1.1438)
(6.58228 0 0.868779)
(8.27819 0 1.05132)
(6.18712 0 0.798299)
(7.89221 4.24958e-25 0.969706)
(5.79656 0 0.747419)
(7.51155 -4.1867e-25 0.903527)
(5.40793 9.96522e-23 0.736041)
(7.14182 8.75013e-23 0.864297)
(6.66758 1.03209e-22 0.869228)
(11.1614 -6.62461e-22 1.58967)
(10.7692 -5.88381e-23 1.46562)
(12.1235 -1.45181e-23 1.661)
(10.3835 -3.26302e-23 1.35204)
(11.7723 -6.37639e-23 1.53922)
(10.0036 1.05304e-23 1.24864)
(11.4239 2.99085e-23 1.4278)
(9.62811 4.25755e-25 1.15639)
(11.0776 0 1.32723)
(9.25473 -2.76522e-24 1.07833)
(10.7322 3.46817e-24 1.23949)
(8.88183 8.72716e-23 1.02092)
(10.3863 -5.79367e-23 1.16867)
(8.5152 5.10603e-23 0.99267)
(10.0454 5.94857e-23 1.12129)
(9.61735 1.34581e-24 1.10035)
(13.1594 -2.0843e-23 1.741)
(12.8462 -3.18408e-25 1.62091)
(12.5319 1.97975e-23 1.51187)
(13.6584 5.66991e-22 1.66818)
(12.2155 3.03856e-24 1.41518)
(13.3793 0 1.56494)
(11.8963 -4.97652e-23 1.33355)
(13.0961 -1.42693e-23 1.47523)
(11.5752 -2.04266e-22 1.27108)
(12.809 7.17641e-24 1.40204)
(11.2582 -1.31641e-22 1.2301)
(12.523 -8.85382e-23 1.34845)
(12.1616 0 1.31269)
(14.5325 5.59525e-22 1.72682)
(14.2868 -1.74081e-23 1.62989)
(15.1681 0 1.7538)
(14.0353 5.08404e-23 1.54778)
(14.9549 -1.77981e-23 1.66531)
(13.7794 1.3429e-22 1.48276)
(14.7351 7.72605e-23 1.59227)
(13.5233 3.69899e-23 1.43455)
(14.5133 2.28966e-22 1.53602)
(14.2272 -2.44193e-24 1.49357)
(15.8564 0 1.7938)
(15.6752 0 1.71387)
(15.4874 1.92339e-22 1.64928)
(16.1848 0 1.73516)
(15.2957 3.80441e-22 1.599)
(16.0276 8.47542e-23 1.67971)
(15.8187 -8.04149e-24 1.63644)
(16.7387 -1.77872e-22 1.76902)
(16.6094 -3.16362e-22 1.72068)
(17.1152 -1.66986e-22 1.77905)
(16.98 -2.02404e-23 1.73893)
(17.5255 -7.59077e-23 1.80002)
(17.7762 1.96598e-22 1.80176)
)
;

boundaryField
{
    inlet
    {
        type            calculated;
        value           nonuniform 0();
    }
    outlet
    {
        type            calculated;
        value           nonuniform List<vector> 
30
(
(1.02391 6.07993e-24 -0.0257914)
(0.844849 -6.84913e-24 -0.0529344)
(0.414498 2.46262e-23 -0.0801224)
(-0.022967 -4.72675e-23 -0.0901259)
(-0.422823 2.25729e-23 -0.0867856)
(-0.7832 4.06243e-23 -0.0791115)
(-1.1167 -3.57802e-23 -0.0678761)
(-1.43086 2.89329e-23 -0.0539782)
(-1.72979 -2.5251e-23 -0.0376837)
(-2.01652 -1.33948e-23 -0.0192935)
(-2.30128 1.03595e-23 0.00186232)
(-2.57486 7.04245e-25 0.0265573)
(-2.79833 -7.0428e-25 0.0519083)
(-2.96498 -1.17033e-23 0.0784685)
(-3.0528 1.03325e-23 0.104524)
(-3.06133 1.8951e-24 0.131254)
(-2.97838 0 0.162176)
(-2.76539 -5.44279e-23 0.197402)