/*--------------------------------*- C++ -*----------------------------------*\
| =========                 |                                                 |
| \\      /  F ield         | OpenFOAM: The Open Source CFD Toolbox           |
|  \\    /   O peration     | Version:  dev                                   |
|   \\  /    A nd           | Web:      www.OpenFOAM.org                      |
|    \\/     M anipulation  |                                                 |
\*---------------------------------------------------------------------------*/
FoamFile
{
    version     2.0;
    format      ascii;
    class       volScalarField;
    location    "0.9";
    object      p;
}
// * * * * * * * * * * * * * * * * * * * * * * * * * * * * * * * * * * * * * //

dimensions      [0 2 -2 0 0 0 0];

internalField   nonuniform List<scalar> 
465
(
207.206
209.332
211.305
213.073
214.579
215.773
216.615
217.078
217.271
207.031
209.165
211.154
212.944
214.48
215.708
216.587
217.09
217.48
206.392
208.488
210.453
212.237
213.794
215.083
216.09
216.83
217.54
205.431
207.45
209.348
211.084
212.622
213.933
215.011
215.834
216.508
204.196
206.101
207.891
209.531
210.985
212.223
213.213
213.874
214.089
202.713
204.471
206.11
207.594
208.883
209.929
210.662
210.982
210.422
201.001
202.578
204.02
205.288
206.329
207.075
207.411
207.296
205.783
199.072
200.434
201.636
202.628
203.348
203.708
203.539
202.952
200.424
196.935
198.049
198.969
199.634
199.967
199.872
199.114
198.041
194.508
194.601
195.436
196.034
196.323
196.21
195.597
194.176
192.592
188.084
192.086
192.612
192.85
192.715
192.096
190.897
188.728
186.558
181.05
189.409
189.598
189.439
188.833
187.643
185.773
182.735
179.794
173.074
186.593
186.422
185.835
184.711
182.881
180.227
176.137
172.048
163.507
183.669
183.123
182.085
180.408
177.874
174.3
168.904
162.998
151.147
180.678
179.752
178.26
176.021
172.755
168.168
161.23
152.565
133.654
95.7951
95.5708
95.0792
94.1712
92.7139
90.621
87.835
84.3488
80.1977
75.4467
95.9775
95.7539
95.2471
94.306
92.8104
90.674
87.8458
84.3214
80.1364
75.3545
96.3305
96.0892
95.5208
94.49
92.8907
90.6467
87.7198
84.1124
79.8606
75.0249
96.7816
96.492
95.8157
94.6414
92.8841
90.4841
87.417
83.6906
79.34
74.4207
97.2228
96.8463
96.0255
94.6703
92.7219
90.1404
86.9134
83.0519
78.5883
73.5725
97.5515
97.0473
96.0532
94.4962
92.3454
89.5776
86.188
82.1882
77.6061
72.4848
97.691
97.0177
95.833
94.07
91.7247
88.7829
85.2419
81.1105
76.4113
71.1811
97.5802
96.7064
95.3331
93.3791
90.8634
87.7722
84.0996
79.8498
75.0393
69.7004
97.1721
96.0897
94.556
92.4452
89.7965
86.5875
82.8072
78.4542
73.5406
68.0951
96.4397
95.1786
93.5411
91.3237
88.5875
85.2953
81.4311
76.9893
71.9794
66.4289
95.3896
94.0278
92.3697
90.1058
87.3291
83.9849
80.0554
75.5335
70.4293
64.7713
94.0769
92.7464
91.1692
88.919
86.1407
82.7638
78.7751
74.1705
68.9653
63.193
92.6096
91.5054
90.1198
87.9248
85.1611
81.7468
77.6837
72.9783
67.6566
61.7602
91.1333
90.5443
89.4631
87.314
84.5213
81.0266
76.8473
72.0108
66.5563
60.5321
89.6907
90.3161
89.4784
87.292
84.3505
80.6767
76.31
71.2988
65.6868
59.5204
177.603
176.306
174.374
171.599
167.655
162.123
153.733
141.787
105.753
174.466
172.824
170.504
167.296
162.881
156.858
148.173
137.449
126.015
171.331
169.396
166.781
163.309
158.755
152.958
145.648
137.925
132.613
168.253
166.091
163.286
159.714
155.254
149.877
143.533
136.374
129.055
162.951
160.044
156.47
152.157
147.082
141.196
134.439
127.355
153.514
149.36
144.568
139.141
133.118
126.943
142.348
137.369
131.954
126.368
130.782
125.646
19.8668
44.4295
69.1285
117.129
115.265
111.66
124.502
117.793
112.697
119.954
114.502
110.917
120.465
116.104
112.658
121.212
117.317
113.944
121.174
117.616
114.482
120.908
117.665
114.794
117.62
114.982
90.9762
91.5228
90.0628
87.8753
84.6829
80.6985
76.0623
70.8327
65.0439
104.497
97.3632
93.4014
89.735
85.6048
81.0468
76.0521
70.5784
64.6129
105.831
98.8795
94.8157
90.8822
86.3303
81.3714
76.0889
70.4225
64.3269
105.81
99.6158
95.13
90.9139
86.3053
81.3131
75.9697
70.242
64.1068
107.549
101.377
96.1034
91.1956
86.2533
81.1384
75.7621
70.0423
63.9401
109.137
103.207
97.4776
91.9922
86.6347
81.2594
75.743
69.9835
63.9155
110.181
104.69
98.8794
93.1059
87.4622
81.8464
76.1492
70.2893
64.2066
110.936
105.891
100.221
94.4002
88.6414
82.8905
77.063
71.1058
64.9817
111.484
106.85
101.445
95.751
90.0355
84.2804
78.4235
72.4344
66.2981
107.589
102.506
97.0502
91.5016
85.8638
80.0897
74.1634
68.0861
92.9322
87.502
81.9059
76.135
70.1997
83.7403
78.1957
72.4743
74.7654
)
;

boundaryField
{
    inlet
    {
        type            zeroGradient;
    }
    outlet
    {
        type            fixedValue;
        value           nonuniform 0();
    }
    flap
    {
        type            zeroGradient;
    }
    upperWall
    {
        type            zeroGradient;
    }
    lowerWall
    {
        type            zeroGradient;
    }
    frontAndBack
    {
        type            empty;
    }
    procBoundary4to1
    {
        type            processor;
        value           nonuniform List<scalar> 
30
(
165.273
165.273
159.994
157.043
157.043
150.815
146.841
146.841
140.348
135.743
135.743
129.659
124.936
120.596
120.596
117.483
115.048
111.849
111.849
108.148
103.399
98.2358
98.2358
94.2634
89.094
89.094
85.5005
80.2247
80.2247
76.9672
)
;
    }
    procBoundary4to2
    {
        type            processor;
        value           nonuniform List<scalar> 
11
(
57.7998
57.5675
57.4563
57.5143
57.8642
58.6628
60.0036
61.8613
64.1131
66.5934
69.1406
)
;
    }
    procBoundary4to3
    {
        type            processor;
        value           nonuniform List<scalar> 
19
(
204.982
204.804
204.21
203.333
202.211
200.869
199.326
197.591
195.673
193.585
191.338
188.951
186.443
183.839
181.17
178.416
175.585
172.728
169.884
)
;
    }
    procBoundary4to5
    {
        type            processor;
        value           nonuniform List<scalar> 
18
(
70.1808
70.0585
69.684
69.0058
68.0713
66.8845
65.4743
63.8833
62.1656
60.3843
58.6075
56.9047
55.3429
53.9824
52.844
58.7328
58.7328
58.1715
)
;
    }
}


// ************************************************************************* //
