/*--------------------------------*- C++ -*----------------------------------*\
| =========                 |                                                 |
| \\      /  F ield         | OpenFOAM: The Open Source CFD Toolbox           |
|  \\    /   O peration     | Version:  dev                                   |
|   \\  /    A nd           | Web:      www.OpenFOAM.org                      |
|    \\/     M anipulation  |                                                 |
\*---------------------------------------------------------------------------*/
FoamFile
{
    version     2.0;
    format      ascii;
    class       volVectorField;
    location    "3.34";
    object      U;
}
// * * * * * * * * * * * * * * * * * * * * * * * * * * * * * * * * * * * * * //

dimensions      [0 1 -1 0 0 0 0];

internalField   nonuniform List<vector> 
2790
(
(9.94652 3.05773e-22 0.0196474)
(9.8725 0 0.0286891)
(9.76558 0 0.0351356)
(9.63676 0 0.0416275)
(9.49022 0 0.0482961)
(9.32579 0 0.0551162)
(9.14282 -1.47922e-21 0.0622229)
(8.94087 1.53372e-21 0.0697783)
(8.71946 0 0.0779197)
(8.47786 0 0.0867696)
(8.21513 0 0.0964496)
(7.93015 0 0.107084)
(7.62172 -1.50313e-20 0.118801)
(7.28855 7.68656e-21 0.131725)
(6.92933 0 0.145977)
(6.5428 8.48077e-21 0.161658)
(6.12785 2.68637e-20 0.178842)
(5.68363 -3.68118e-20 0.197546)
(5.20977 0 0.217706)
(4.70652 0 0.239139)
(4.17509 -2.11631e-20 0.261496)
(3.61791 0 0.284208)
(3.03897 9.2672e-20 0.306394)
(2.44422 -1.67947e-19 0.326728)
(1.84205 9.9321e-20 0.343177)
(1.24358 0 0.352468)
(0.66827 0 0.348061)
(0.0885943 -2.73114e-20 0.280776)
(-0.390995 -2.77882e-20 -0.130982)
(-0.0506314 5.14357e-19 -0.324145)
(10.0049 -3.0565e-22 0.0397771)
(9.98581 -5.02187e-21 0.0610895)
(9.93639 -1.64173e-23 0.0775145)
(9.86394 5.31923e-21 0.0944914)
(9.77142 -1.24205e-20 0.112328)
(9.65876 -7.85583e-23 0.130902)
(9.5255 3.68782e-20 0.150476)
(9.3713 -5.03738e-20 0.171401)
(9.19569 3.1533e-20 0.193983)
(8.99798 6.5681e-21 0.218496)
(8.77726 -5.49737e-20 0.245204)
(8.53243 1.066e-19 0.274371)
(8.26228 -5.14082e-20 0.306254)
(7.9655 -5.43641e-20 0.341083)
(7.64073 6.3836e-20 0.379042)
(7.28661 -8.38554e-21 0.420234)
(6.90187 -1.3226e-19 0.464631)
(6.48547 1.63397e-19 0.512015)
(6.03674 0 0.561882)
(5.5556 3.97946e-20 0.613344)
(5.04282 -3.1418e-19 0.665015)
(4.50034 -3.45182e-19 0.714877)
(3.93164 0 0.760103)
(3.34226 -2.35351e-20 0.796797)
(2.74044 0 0.819561)
(2.1382 -5.05062e-20 0.820519)
(1.55528 5.2129e-20 0.786281)
(0.997468 -8.85154e-19 0.68255)
(0.532748 9.61898e-19 0.445904)
(0.265805 5.71759e-20 -0.104046)
(10.002 -2.441e-21 0.042663)
(9.98002 -3.76409e-21 0.0737635)
(9.93281 6.44311e-21 0.100839)
(9.86531 0 0.128809)
(9.77917 -2.06758e-20 0.158299)
(9.67442 1.9811e-20 0.189265)
(9.55089 0 0.222045)
(9.40838 0 0.257136)
(9.24657 -6.33578e-20 0.295008)
(9.06491 4.55627e-20 0.3361)
(8.86264 -1.35836e-20 0.380852)
(8.63882 -4.98237e-20 0.429706)
(8.39239 5.10936e-20 0.483098)
(8.12218 -1.52821e-20 0.541435)
(7.82691 -1.5916e-20 0.605059)
(7.50525 1.67051e-19 0.674187)
(7.15587 -1.37641e-19 0.748841)
(6.77751 -3.09273e-19 0.828744)
(6.36911 6.03168e-19 0.913171)
(5.92996 -3.91021e-19 1.00076)
(5.45989 0 1.08934)
(4.95956 0 1.17567)
(4.43081 0 1.25512)
(3.87701 0 1.32127)
(3.30359 -7.69551e-19 1.3652)
(2.7183 8.41063e-19 1.37424)
(2.13231 -5.1283e-20 1.32902)
(1.55068 5.27932e-20 1.19497)
(0.969634 -1.08501e-19 0.932355)
(0.556763 -9.65122e-19 0.492522)
(10.0003 -6.09107e-21 0.0481368)
(9.97598 6.25082e-21 0.0905773)
(9.92868 -1.16116e-20 0.129619)
(9.86253 1.06032e-20 0.168862)
(9.77823 -2.73922e-21 0.209504)
(9.67577 2.55805e-20 0.251895)
(9.55524 -1.75026e-20 0.296555)
(9.41662 0 0.344146)
(9.25976 6.29234e-21 0.395321)
(9.08428 5.24466e-20 0.450701)
(8.88966 -4.0301e-20 0.510903)
(8.67525 0 0.576549)
(8.44028 0 0.648257)
(8.1839 1.67979e-19 0.72662)
(7.90517 -1.09882e-19 0.812167)
(7.60306 2.32362e-19 0.905287)
(7.2765 3.78185e-21 1.00614)
(6.92441 -2.8398e-19 1.11456)
(6.54571 -3.71203e-20 1.22982)
(6.13941 -3.84355e-20 1.35041)
(5.70468 8.04901e-20 1.47379)
(5.24104 0 1.59601)
(4.74852 -7.02635e-19 1.71136)
(4.22781 7.22433e-19 1.8118)
(3.68034 -8.49473e-19 1.88627)
(3.10795 7.7672e-19 1.91966)
(2.51231 1.0044e-19 1.89144)
(1.89193 0 1.7722)
(1.21412 1.07056e-19 1.53799)
(0.646764 -1.12216e-19 1.14123)
(9.99948 -3.64813e-21 0.0551366)
(9.97393 -6.25478e-21 0.107476)
(9.92656 -1.03341e-20 0.157084)
(9.86161 2.11574e-20 0.206581)
(9.77914 -2.19366e-20 0.257572)
(9.67895 2.25284e-20 0.310785)
(9.5612 4.10696e-20 0.366884)
(9.42599 -5.4198e-20 0.426628)
(9.27321 -1.2502e-20 0.490781)
(9.10258 0 0.560082)
(8.91372 0 0.635259)
(8.70612 1.39457e-20 0.717046)
(8.47923 2.89636e-20 0.806176)
(8.23241 -3.02223e-20 0.903364)
(7.96501 3.12805e-20 1.00927)
(7.67626 0 1.12444)
(7.36533 -3.38297e-20 1.24915)
(7.03137 5.68757e-19 1.38337)
(6.6735 4.45465e-20 1.52649)
(6.29061 -5.30918e-19 1.67708)
(5.8815 -7.9759e-20 1.83259)
(5.44481 -6.6464e-19 1.98891)
(4.97906 1.45813e-18 2.13997)
(4.48253 -7.0883e-19 2.27723)
(3.95306 1.57543e-18 2.38903)
(3.38761 -1.52332e-18 2.4602)
(2.7814 -6.69926e-22 2.47185)
(2.12982 1.63826e-18 2.40034)
(1.38775 -1.78809e-18 2.23181)
(0.718991 1.93557e-18 1.91443)
(9.99915 1.21126e-21 0.0628122)
(9.97307 9.97564e-21 0.124341)
(9.92603 -3.07904e-20 0.18397)
(9.86254 4.22903e-20 0.243591)
(9.78228 -2.44722e-20 0.304882)
(9.68483 4.51937e-20 0.3688)
(9.57037 -4.63868e-20 0.436131)
(9.43907 6.02575e-21 0.507718)
(9.29086 1.12628e-19 0.584426)
(9.12552 -1.02766e-19 0.667103)
(8.9427 -1.07616e-19 0.756584)
(8.74202 6.88214e-20 0.853705)
(8.523 2.02933e-19 0.959303)
(8.28514 -4.78508e-19 1.0742)
(8.0279 2.15807e-19 1.19918)
(7.75069 0 1.33491)
(7.45277 3.36307e-20 1.48182)
(7.1334 -6.94016e-20 1.63997)
(6.79177 5.10774e-19 1.80899)
(6.42672 -5.98034e-19 1.98769)
(6.03673 -7.77253e-20 2.17377)
(5.61978 0 2.36341)
(5.17318 -8.44975e-20 2.55086)
(4.69336 -8.67269e-20 2.72792)
(4.17556 -8.98489e-20 2.88353)
(3.6135 1.50234e-18 3.0035)
(2.99871 -3.28969e-18 3.07104)
(2.32645 3.2006e-18 3.06584)
(1.54705 1.10835e-19 2.9775)
(0.800842 -1.83991e-18 2.74967)
(9.99909 -1.2107e-21 0.0707472)
(9.973 1.24288e-21 0.141089)
(9.92669 0 0.210243)
(9.86496 2.63057e-21 0.279623)
(9.78727 1.08646e-20 0.350854)
(9.69303 0 0.425059)
(9.58241 0 0.503161)
(9.45564 -8.42698e-20 0.586104)
(9.31269 9.87162e-20 0.674855)
(9.15337 0 0.77036)
(8.97739 1.06849e-19 0.873552)
(8.78438 -8.19811e-20 0.985358)
(8.57395 2.8468e-20 1.1067)
(8.34565 2.95177e-20 1.23851)
(8.09897 2.47264e-19 1.38165)
(7.8334 -2.53513e-19 1.53693)
(7.54827 6.58865e-20 1.70493)
(7.24276 6.8927e-20 1.88588)
(6.91592 6.44807e-19 2.07964)
(6.56644 -5.87687e-19 2.28541)
(6.1925 7.69964e-20 2.50139)
(5.79152 0 2.72439)
(5.35986 8.17498e-20 2.94944)
(4.89261 1.4552e-18 3.16937)
(4.38329 -1.31651e-18 3.3743)
(3.8236 0 3.55131)
(3.20281 -1.42035e-18 3.68508)
(2.51704 -8.80358e-21 3.75626)
(1.71734 4.78579e-18 3.75253)
(0.901404 5.62571e-21 3.61402)
(9.99919 6.02049e-22 0.0787008)
(9.97346 0 0.157552)
(9.92826 0 0.235754)
(9.8686 -2.6281e-21 0.314462)
(9.79383 -1.08224e-20 0.395233)
(9.70325 0 0.479306)
(9.597 0 0.567729)
(9.47536 -1.19336e-20 0.661545)
(9.33836 -1.22892e-20 0.761813)
(9.18582 1.02405e-19 0.869577)
(9.01747 -1.04991e-19 0.985856)
(8.833 2.1958e-19 1.11166)
(8.6321 -2.59495e-20 1.24799)
(8.41434 -2.68115e-20 1.39587)
(8.17925 -2.41532e-19 1.5563)
(7.92627 4.4362e-19 1.7302)
(7.65476 -1.10876e-18 1.91836)
(7.36376 1.08092e-18 2.12127)
(7.05205 -1.11964e-18 2.33906)
(6.71813 5.7657e-19 2.5714)
(6.3598 7.4523e-20 2.81715)
(5.97395 1.24784e-18 3.07401)
(5.55622 -6.89078e-20 3.33815)
(5.10069 -1.32222e-18 3.60377)
(4.59961 1.37832e-18 3.86256)
(4.04332 -2.83832e-18 4.10295)
(3.41924 -1.48033e-18 4.31036)
(2.72359 3.02133e-18 4.46496)
(1.91238 3.12957e-18 4.54854)
(1.02506 -3.37578e-18 4.49891)
(9.99941 -6.01714e-22 0.0865194)
(9.97432 -6.15779e-22 0.173568)
(9.93055 -1.90776e-20 0.260366)
(9.87326 2.08797e-20 0.347945)
(9.80176 5.39692e-21 0.437821)
(9.71524 0 0.531306)
(9.61386 0 0.629554)
(9.49792 0 0.733702)
(9.36749 -9.82399e-20 0.844905)
(9.22242 -1.15115e-19 0.964301)
(9.06245 1.82232e-19 1.09298)
(8.88742 -2.69663e-20 1.232)
(8.69705 2.25075e-19 1.38247)
(8.49095 -2.59392e-19 1.54554)
(8.26865 0 1.72233)
(8.02954 6.22923e-20 1.91393)
(7.7729 -4.52314e-19 2.12135)
(7.49769 -5.53883e-21 2.3454)
(7.20251 4.78102e-19 2.5866)
(6.88555 0 2.84516)
(6.54426 1.10428e-18 3.12072)
(6.17504 7.50753e-20 3.41207)
(5.77289 7.74339e-20 3.71676)
(5.33104 0 4.03066)
(4.84065 0 4.34732)
(4.29074 2.66881e-18 4.65674)
(3.66667 -2.91281e-18 4.9448)
(2.96262 -9.01517e-20 5.19049)
(2.14299 0 5.36697)
(1.17615 9.98138e-20 5.4102)
(9.99971 0 0.0940977)
(9.97546 -1.87639e-20 0.189001)
(9.93341 1.89382e-20 0.283946)
(9.87879 2.59875e-21 0.37992)
(9.81087 0 0.478424)
(9.7288 5.51749e-21 0.580823)
(9.63274 -9.15395e-20 0.688353)
(9.52301 1.10884e-20 0.802248)
(9.39969 1.09025e-19 0.923763)
(9.26267 1.25802e-20 1.0541)
(9.11187 1.56518e-22 1.19439)
(8.9472 1.78191e-22 1.34577)
(8.76836 2.22539e-19 1.50946)
(8.575 -1.99092e-19 1.68673)
(8.36666 2.94284e-20 1.87887)
(8.14274 0 2.08714)
(7.90245 -6.34283e-20 2.31281)
(7.64471 0 2.55705)
(7.36802 6.07942e-19 2.82086)
(7.07033 -1.66648e-18 3.10507)
(6.7488 1.20966e-18 3.41025)
(6.39944 1.10788e-18 3.73641)
(6.01669 -1.20967e-18 4.08276)
(5.59302 7.713e-20 4.44714)
(5.11839 0 4.82535)
(4.58023 2.04354e-21 5.20959)
(3.9611 8.60151e-20 5.58655)
(3.25006 8.86545e-20 5.93437)
(2.42148 4.42255e-20 6.2156)
(1.36118 4.61378e-20 6.36355)
(10.0001 0 0.101359)
(9.97684 -1.99125e-20 0.203735)
(9.93673 2.01198e-20 0.306368)
(9.88505 -9.55043e-24 0.410243)
(9.82101 3.74726e-20 0.516864)
(9.74374 -4.93955e-20 0.62764)
(9.65339 0 0.743879)
(9.55029 -1.17173e-20 0.866908)
(9.43455 9.683e-20 0.998062)
(9.30622 -2.86665e-19 1.13857)
(9.16537 2.3046e-19 1.28959)
(9.01186 2.66041e-20 1.45238)
(8.84542 2.19887e-19 1.62828)
(8.66577 2.57043e-19 1.8187)
(8.47252 -4.64536e-19 2.02505)
(8.26509 0 2.24881)
(8.04273 0 2.49152)
(7.80436 -6.34505e-20 2.75474)
(7.54846 0 3.03998)
(7.27293 0 3.3488)
(6.97477 -7.01426e-20 3.6828)
(6.64977 7.07375e-20 4.04339)
(6.29201 -7.40512e-20 4.43166)
(5.89332 -1.50242e-19 4.84787)
(5.44245 7.59485e-20 5.29075)
(4.9247 8.00202e-20 5.75574)
(4.31905 -7.94293e-20 6.23207)
(3.6051 8.12684e-20 6.6988)
(2.76572 -1.80655e-21 7.10723)
(1.59161 -4.53495e-20 7.38641)
(10.0005 -1.18564e-21 0.108245)
(9.97839 1.9521e-20 0.217675)
(9.94044 -2.01865e-20 0.32752)
(9.89193 3.87573e-20 0.438782)
(9.83203 -3.70751e-20 0.552982)
(9.75986 8.76985e-20 0.671569)
(9.67556 -8.98796e-20 0.795918)
(9.57944 9.31551e-20 0.927433)
(9.47176 -9.54188e-20 1.06748)
(9.35278 -2.1046e-19 1.2173)
(9.22251 1.77428e-19 1.37812)
(9.08081 0 1.55133)
(8.92752 2.44063e-19 1.73838)
(8.76248 1.97565e-19 1.94077)
(8.58536 -4.57833e-19 2.16006)
(8.39569 -5.04191e-19 2.39793)
(8.19278 4.84952e-19 2.65619)
(7.97571 5.03093e-19 2.9368)
(7.74308 -5.12528e-19 3.2418)
(7.49288 0 3.57353)
(7.22223 0 3.93467)
(6.927 -1.38355e-19 4.32817)
(6.60126 0 4.75722)
(6.23658 1.44319e-19 5.22502)
(5.8208 -7.46785e-20 5.73416)
(5.33694 0 6.28513)
(4.75965 7.78121e-20 6.87302)
(4.05432 -7.95352e-20 7.4827)
(3.20617 -2.56989e-18 8.05834)
(1.89037 2.61212e-18 8.52597)
(10.0009 -5.92076e-21 0.11471)
(9.98008 2.91312e-20 0.230742)
(9.94445 2.01921e-20 0.347307)
(9.89932 -4.22768e-20 0.465423)
(9.84378 3.96921e-20 0.586642)
(9.77697 -4.33826e-20 0.712451)
(9.699 9.53302e-20 0.844287)
(9.6102 -8.04438e-20 0.983586)
(9.51109 -1.07069e-19 1.13171)
(9.40195 2.93724e-19 1.28994)
(9.28271 1.40722e-20 1.4596)
(9.15336 -4.1494e-19 1.6422)
(9.0139 1.86042e-19 1.83925)
(8.86424 -4.41174e-19 2.05231)
(8.70419 4.22289e-19 2.28311)
(8.5334 -4.08274e-19 2.53351)
(8.35137 4.76007e-19 2.80555)
(8.15745 -4.29527e-19 3.10154)
(7.95052 5.00836e-19 3.42407)
(7.72889 0 3.77619)
(7.49009 -9.85939e-19 4.16169)
(7.23049 -1.00214e-18 4.58504)
(6.94475 0 5.05167)
(6.62498 1.03349e-18 5.56811)
(6.25921 2.73698e-20 6.14188)
(5.82914 -1.13619e-18 6.78085)
(5.30565 0 7.49112)
(4.63672 -2.24341e-18 8.27369)
(3.7989 4.63994e-18 9.08361)
(2.30696 -2.28701e-18 9.86892)
(10.0014 -1.17812e-20 0.120718)
(9.9819 -7.27413e-21 0.242874)
(9.94871 1.98375e-20 0.365646)
(9.90712 4.21797e-20 0.490069)
(9.85614 -3.92979e-20 0.617726)
(9.7949 -2.69285e-21 0.750151)
(9.72349 -5.57048e-21 0.888816)
(9.64237 -1.14674e-20 1.03515)
(9.55221 7.62593e-23 1.1905)
(9.45324 0 1.35623)
(9.34539 2.00059e-19 1.53377)
(9.22885 -2.17212e-19 1.72466)
(9.10375 2.62298e-20 1.93046)
(8.97009 2.69435e-20 2.15282)
(8.82788 0 2.39356)
(8.67694 4.29177e-19 2.65469)
(8.51705 -4.37992e-19 2.93844)
(8.34796 2.97222e-20 3.2474)
(8.16894 3.03564e-20 3.5846)
(7.97883 0 3.95377)
(7.77594 -6.4322e-20 4.3596)
(7.55767 -3.1916e-20 4.80792)
(7.32008 3.22597e-20 5.30626)
(7.05713 -1.05136e-18 5.86443)
(6.75909 1.03356e-18 6.49537)
(6.40974 1.61765e-20 7.21625)
(5.98108 1.03826e-18 8.0498)
(5.4085 -1.09174e-18 9.02942)
(4.65283 0 10.1693)
(2.95553 -2.05437e-18 11.5947)
(10.0019 4.67566e-21 0.12624)
(9.9838 -2.16481e-20 0.254019)
(9.95317 1.97357e-20 0.382471)
(9.91525 0 0.512639)
(9.86896 0 0.646133)
(9.81345 8.86956e-20 0.784529)
(9.74883 -1.7654e-19 0.929314)
(9.67569 9.05617e-20 1.08188)
(9.59474 1.17046e-20 1.2436)
(9.50613 -1.92401e-19 1.41591)
(9.40997 2.09112e-19 1.60031)
(9.30658 2.15904e-19 1.79833)
(9.19618 -2.20769e-19 2.01156)
(9.07899 -2.68385e-20 2.24172)
(8.95517 -4.11718e-19 2.49069)
(8.82484 8.97165e-19 2.76056)
(8.68817 -4.87069e-19 3.05368)
(8.54527 4.39721e-19 3.37283)
(8.39589 -5.07869e-19 3.72137)
(8.23964 -4.86044e-19 4.10346)
(8.07595 5.09315e-19 4.5244)
(7.90375 1.6209e-20 4.99098)
(7.72138 -1.0247e-18 5.51219)
(7.52618 1.01554e-18 6.10033)
(7.31367 -9.76831e-19 6.77271)
(7.07582 9.88994e-19 7.55483)
(6.79882 9.40628e-19 8.48661)
(6.43456 -1.00972e-18 9.64209)
(5.98379 -9.87579e-20 11.1569)
(4.08885 1.26966e-19 14.1008)
(0.0900804 -2.59607e-22 -0.0755823)
(0.264153 0 -0.103925)
(0.445167 0 -0.0958373)
(0.607221 0 -0.0750602)
(0.73478 0 -0.0523172)
(0.823475 4.45817e-23 -0.0315886)
(0.875749 0 -0.0143299)
(0.897345 1.50429e-22 -0.001095)
(0.895678 1.39255e-22 0.00778313)
(0.8786 -1.01104e-21 0.0126784)
(0.852877 -9.92434e-22 0.01443)
(0.82387 2.24714e-22 0.0138837)
(0.795639 2.09384e-22 0.0118719)
(0.770929 1.9486e-22 0.00921854)
(0.750928 0 0.00669734)
(0.735137 0 0.00490045)
(0.721783 -1.54953e-22 0.00403207)
(0.708889 -1.42774e-22 0.00378818)
(0.6956 -1.26678e-22 0.0035283)
(0.682969 4.43061e-24 0.0026588)
(0.673642 1.08683e-22 0.000927456)
(0.670605 0 -0.00146245)
(0.675761 0 -0.00404403)
(0.689234 0 -0.00665655)
(0.710782 6.33368e-23 -0.00954916)
(0.740802 0 -0.0130158)
(0.780876 4.14328e-23 -0.0170053)
(0.832984 0 -0.0211569)
(0.898042 8.48817e-25 -0.0249749)
(0.993279 -8.31051e-25 -0.0272106)
(0.0925896 1.68139e-20 -0.241074)
(0.277005 -1.23292e-22 -0.266107)
(0.450307 -1.44185e-20 -0.236009)
(0.602323 1.38898e-20 -0.186507)
(0.723636 0 -0.13492)
(0.812957 -5.46451e-21 -0.0883418)
(0.87333 5.38032e-21 -0.0496375)
(0.909985 -1.50572e-22 -0.0194632)
(0.928267 -4.47266e-21 0.00248065)
(0.93049 4.50683e-21 0.0167217)
(0.922284 0 0.0244027)
(0.908053 -2.24705e-22 0.0268312)
(0.891146 1.00326e-21 0.0254567)
(0.873959 -1.79502e-21 0.0218734)
(0.857673 0 0.0178445)
(0.841989 0 0.014982)
(0.82537 1.54865e-22 0.0140491)
(0.806099 1.42693e-22 0.0143862)
(0.783774 0 0.014206)
(0.760164 1.19782e-22 0.011823)
(0.738767 9.95523e-23 0.0067932)
(0.723209 -8.95425e-24 0.000279323)
(0.714182 0 -0.00568614)
(0.709207 -6.96782e-23 -0.0103165)
(0.707125 -5.33977e-23 -0.0142183)
(0.706046 1.6165e-22 -0.0182269)
(0.707099 2.29612e-23 -0.0240193)
(0.716833 1.78545e-23 -0.0333218)
(0.741282 0 -0.046023)
(0.794684 0 -0.0571318)
(0.0523451 1.62545e-20 -0.426183)
(0.246328 -3.10825e-20 -0.431213)
(0.396957 2.9239e-20 -0.370433)
(0.522505 -6.82438e-22 -0.291067)
(0.618702 -1.26297e-20 -0.211997)
(0.687056 8.59901e-23 -0.14144)
(0.731129 1.00402e-20 -0.0835732)
(0.756269 -9.83137e-21 -0.0392)
(0.767605 8.63462e-21 -0.00664562)
(0.76683 -8.72452e-21 0.015957)
(0.757396 0 0.0294498)
(0.742358 -3.49822e-21 0.0352447)
(0.723393 4.26915e-21 0.0353226)
(0.701497 3.03265e-21 0.0318541)
(0.677174 -4.38309e-21 0.0274491)
(0.650071 1.38056e-21 0.0247981)
(0.618846 3.09083e-22 0.0254888)
(0.581587 -2.84921e-22 0.0290265)
(0.537254 0 0.0330051)
(0.486809 4.6326e-22 0.0343585)
(0.432559 -6.729e-22 0.031017)
(0.377888 -1.95902e-22 0.0233959)
(0.330652 0 0.0141458)
(0.301593 0 0.00530141)
(0.285927 0 -0.00381824)
(0.283215 -5.75335e-23 -0.015407)
(0.291117 -9.30578e-23 -0.0304139)
(0.308426 -3.54723e-23 -0.0481654)
(0.330116 0 -0.0671954)
(0.352019 0 -0.0860491)
(-0.0132603 -3.22332e-20 -0.588769)
(0.186235 3.13797e-20 -0.575046)
(0.305111 -2.25784e-22 -0.478744)
(0.398052 0 -0.369724)
(0.464091 -1.19275e-23 -0.266803)
(0.507213 -2.18046e-20 -0.176957)
(0.530485 3.11417e-20 -0.104497)
(0.539233 -9.77956e-21 -0.0488032)
(0.532619 0 -0.00787592)
(0.512644 -8.02831e-21 0.0214258)
(0.485892 -7.87423e-21 0.0395543)
(0.454064 0 0.0488979)
(0.415851 4.14263e-22 0.0527605)
(0.369049 3.03485e-21 0.053948)
(0.312855 -8.82758e-22 0.0549238)
(0.248749 -3.4333e-21 0.0578714)
(0.182377 8.9275e-22 0.0637773)
(0.120752 -3.23934e-22 0.0709379)
(0.065988 0 0.0750885)
(0.0173787 0 0.0723984)
(-0.0239054 6.55823e-22 0.0620009)
(-0.0555758 0 0.0456325)
(-0.0760696 0 0.0263168)
(-0.0854547 -1.57172e-22 0.00766969)
(-0.0865163 -1.36101e-22 -0.00889647)
(-0.0837663 0 -0.0242365)
(-0.0801824 0 -0.0392063)
(-0.0775195 0 -0.0548966)
(-0.0781115 -6.50574e-23 -0.0732026)
(-0.0827543 -6.11961e-24 -0.0952727)
(-0.0852029 -3.21985e-20 -0.71413)
(0.104671 1.19282e-21 -0.683763)
(0.178811 2.91902e-20 -0.551294)
(0.229167 2.06746e-22 -0.415877)
(0.256322 0 -0.294214)
(0.266648 2.16365e-20 -0.188906)
(0.260859 -2.11864e-20 -0.106818)
(0.242042 -1.8563e-20 -0.0387006)
(0.189406 2.68287e-20 0.0198685)
(0.136439 -1.65052e-20 0.0562932)
(0.0810271 -8.84534e-21 0.0761889)
(0.0221222 0 0.0880198)
(-0.0386474 -7.35803e-21 0.0955592)
(-0.100994 9.41531e-21 0.100134)
(-0.16432 -2.96134e-21 0.102702)
(-0.22472 -1.92473e-21 0.10431)
(-0.278409 2.54214e-21 0.105316)
(-0.323052 -1.67113e-21 0.104654)
(-0.35804 1.56995e-21 0.10018)
(-0.383899 -2.38791e-21 0.0898571)
(-0.401638 4.6791e-22 0.0731889)
(-0.412975 3.67962e-22 0.0518981)
(-0.420276 -3.60899e-22 0.0294379)
(-0.425403 2.95161e-22 0.00925516)
(-0.428664 -2.42378e-22 -0.00782812)
(-0.432592 -9.01411e-23 -0.0229669)
(-0.438491 2.41343e-22 -0.0371386)
(-0.447633 -1.09621e-22 -0.0521988)
(-0.45983 1.42619e-22 -0.0711189)
(-0.47075 -4.85396e-23 -0.0921946)
(-0.15524 -3.32924e-20 -0.794401)
(0.00597499 3.04701e-20 -0.741281)
(0.0227625 -1.38459e-21 -0.571705)
(0.0189763 -2.76783e-20 -0.412352)
(-0.00438596 0 -0.27373)
(-0.0417458 -2.19864e-20 -0.14589)
(-0.106479 2.15189e-20 -0.0462566)
(-0.19233 1.86958e-20 0.0285983)
(-0.24681 -1.82871e-20 0.0740085)
(-0.304575 0 0.10242)
(-0.362281 9.58563e-22 0.120545)
(-0.41899 7.82144e-21 0.131925)
(-0.473974 -5.97017e-21 0.138087)
(-0.526572 -6.7524e-21 0.140085)
(-0.57576 9.35744e-21 0.138912)
(-0.619766 -2.71867e-21 0.135516)
(-0.656852 -2.36838e-21 0.130425)
(-0.685767 2.32082e-21 0.123187)
(-0.70634 1.51832e-21 0.112467)
(-0.719738 -9.73778e-22 0.0970244)
(-0.728186 3.93087e-22 0.0769497)
(-0.734299 -8.01082e-22 0.054141)
(-0.740145 -3.29146e-22 0.0315405)
(-0.746471 0 0.0116196)
(-0.752756 4.59426e-22 -0.00492298)
(-0.761938 -2.13393e-22 -0.0188405)
(-0.774629 -2.9707e-22 -0.0314301)
(-0.791355 1.09361e-22 -0.0454912)
(-0.809992 -1.83066e-22 -0.0645063)
(-0.822878 4.28819e-23 -0.0846443)
(-0.219538 0 -0.817571)
(-0.107264 -3.15028e-20 -0.726774)
(-0.156699 3.06269e-20 -0.519931)
(-0.22557 0 -0.339226)
(-0.312659 2.41467e-20 -0.188029)
(-0.407042 -4.64908e-20 -0.0683164)
(-0.502908 2.19823e-20 0.0208797)
(-0.568125 -1.2209e-21 0.0780902)
(-0.629897 1.84408e-20 0.117183)
(-0.687679 -1.6949e-20 0.143754)
(-0.741293 0 0.160007)
(-0.790686 -8.8467e-22 0.16859)
(-0.835852 -1.0127e-23 0.171387)
(-0.876849 7.63174e-22 0.1697)
(-0.913594 0 0.164558)
(-0.945663 -2.53273e-21 0.156847)
(-0.972348 2.48129e-21 0.147077)
(-0.993062 2.15012e-21 0.135049)
(-1.00798 -3.09097e-21 0.120031)
(-1.01827 1.89233e-21 0.101483)
(-1.02582 -7.90128e-22 0.0798517)
(-1.03257 8.05205e-23 0.0568082)
(-1.03993 1.01787e-21 0.0347199)
(-1.04855 -1.55913e-23 0.015654)
(-1.05851 -2.49667e-22 0.000497677)
(-1.07213 2.74265e-22 -0.0115956)
(-1.0904 2.24137e-22 -0.0225505)
(-1.11307 1.83148e-22 -0.0357681)
(-1.13645 2.229e-22 -0.0545449)
(-1.1505 2.69426e-23 -0.07349)
(-0.275973 0 -0.766993)
(-0.231968 0 -0.631723)
(-0.343218 -6.08496e-20 -0.409626)
(-0.470675 5.98822e-20 -0.228246)
(-0.597732 -2.42508e-20 -0.0876831)
(-0.71808 2.49318e-20 0.0185755)
(-0.804969 0 0.0866457)
(-0.880514 1.22336e-21 0.133001)
(-0.946434 -1.11855e-21 0.164573)
(-1.00359 -2.04392e-21 0.184618)
(-1.05335 -5.46214e-21 0.195405)
(-1.09682 7.17837e-21 0.199238)
(-1.13502 7.85184e-22 0.19788)
(-1.16883 0 0.192547)
(-1.19887 0 0.184116)
(-1.22534 -1.26849e-21 0.173228)
(-1.24804 3.46966e-21 0.160197)
(-1.26666 -2.25104e-21 0.144914)
(-1.28141 1.92757e-21 0.127036)
(-1.29312 -3.24552e-21 0.106467)
(-1.30311 1.19005e-21 0.0838661)
(-1.31282 -7.61544e-22 0.0608393)
(-1.32341 -1.19364e-21 0.0394816)
(-1.33556 3.25346e-22 0.021644)
(-1.34967 4.21589e-22 0.00806505)
(-1.36675 -6.87455e-22 -0.00212403)
(-1.38939 0 -0.0113058)
(-1.41709 -1.82806e-22 -0.0235164)
(-1.4444 -1.83529e-22 -0.0417443)
(-1.45935 -3.14555e-23 -0.0596106)
(-0.331138 0 -0.642122)
(-0.348926 6.9962e-20 -0.475477)
(-0.510946 -4.68212e-21 -0.253969)
(-0.683218 -6.46675e-20 -0.0850019)
(-0.840171 5.21223e-20 0.0373722)
(-0.958007 -5.17465e-20 0.111085)
(-1.05746 -1.98638e-20 0.160374)
(-1.14055 2.07676e-20 0.192966)
(-1.20942 0 0.213342)
(-1.26663 1.98717e-20 0.224344)
(-1.31457 -9.11891e-21 0.228123)
(-1.35524 4.12754e-22 0.226544)
(-1.39039 6.48795e-21 0.22102)
(-1.42146 -5.7016e-21 0.212476)
(-1.44943 4.24113e-21 0.201457)
(-1.47474 1.26783e-21 0.188234)
(-1.4974 -3.41972e-21 0.172865)
(-1.51724 2.2025e-21 0.15525)
(-1.53444 0 0.13532)
(-1.54956 5.00146e-23 0.113314)
(-1.56359 1.60543e-21 0.0900956)
(-1.57763 -6.52509e-22 0.067208)
(-1.59264 1.83269e-21 0.0465758)
(-1.60918 5.13995e-22 0.0299036)
(-1.62755 -4.20731e-22 0.0178455)
(-1.64881 -1.14223e-22 0.00943906)
(-1.67501 1.36944e-22 0.00191371)
(-1.70629 2.78868e-23 -0.00907226)
(-1.73693 -7.1133e-24 -0.0263286)
(-1.75267 0 -0.0432461)
(-0.383902 8.56708e-20 -0.452631)
(-0.456501 1.19026e-21 -0.263307)
(-0.665935 -6.92268e-20 -0.0476206)
(-0.870948 1.30269e-19 0.0901128)
(-1.03229 -6.02609e-20 0.16527)
(-1.16656 0 0.212534)
(-1.27599 -4.18622e-21 0.240739)
(-1.36419 1.66306e-20 0.256248)
(-1.43527 -2.08628e-20 0.263188)
(-1.49307 -2.02884e-21 0.263961)
(-1.54078 0 0.260124)
(-1.5809 6.51731e-21 0.252957)
(-1.61557 -6.41617e-21 0.243426)
(-1.64659 -5.55978e-21 0.232041)
(-1.67514 8.07943e-21 0.218894)
(-1.70178 2.37755e-21 0.203841)
(-1.72661 -2.32736e-21 0.186703)
(-1.74956 1.02196e-21 0.167385)
(-1.77081 -2.75255e-21 0.145988)
(-1.79081 2.62345e-21 0.122982)
(-1.81031 -7.75193e-22 0.0993711)
(-1.83011 0 0.0766785)
(-1.85084 -1.10487e-21 0.0566855)
(-1.87271 9.67046e-22 0.0409304)
(-1.89575 3.63158e-22 0.030004)
(-1.92081 1.79664e-22 0.0228927)
(-1.95019 -2.77867e-23 0.0167033)
(-1.98473 -4.07581e-23 0.00707963)
(-2.01665 5.79591e-23 -0.00878141)
(-2.03259 4.14715e-24 -0.024572)
(-0.435091 1.83826e-19 -0.20506)
(-0.566322 -8.78258e-20 0.0460954)
(-0.802155 0 0.193405)
(-1.02854 0 0.268289)
(-1.21245 0 0.306404)
(-1.359 2.10719e-20 0.322403)
(-1.47425 -2.35893e-21 0.325314)
(-1.5646 -3.70846e-20 0.321264)
(-1.63624 2.27114e-20 0.313698)
(-1.69419 1.92006e-21 0.303901)
(-1.74203 6.88777e-21 0.292332)
(-1.78238 -6.72865e-21 0.279581)
(-1.81753 -5.88045e-21 0.26624)
(-1.8496 5.6946e-21 0.252406)
(-1.87998 -2.55863e-21 0.237616)
(-1.90933 -2.30504e-21 0.22124)
(-1.93777 -9.41628e-22 0.202843)
(-1.96523 1.05621e-21 0.182326)
(-1.99182 9.30574e-22 0.159931)
(-2.0179 -1.62101e-21 0.136283)
(-2.04399 1.47581e-21 0.112456)
(-2.07062 1.19719e-21 0.0899137)
(-2.09813 -5.50798e-22 0.0702887)
(-2.12635 2.62181e-23 0.0549682)
(-2.15504 -3.33185e-23 0.0444852)
(-2.18485 0 0.0379276)
(-2.21824 2.89601e-23 0.0326078)
(-2.25655 9.64842e-23 0.0244192)
(-2.29196 -1.77195e-23 0.0107295)
(-2.30781 -4.6129e-24 -0.00323058)
(-0.457284 9.83173e-20 0.24176)
(-0.642044 -8.57631e-21 0.383119)
(-0.936665 -8.69309e-20 0.451734)
(-1.19626 0 0.467988)
(-1.39523 -3.60409e-21 0.457458)
(-1.54651 3.17987e-21 0.435908)
(-1.66148 2.76378e-21 0.410328)
(-1.74943 -2.31001e-21 0.385478)
(-1.8186 1.60329e-20 0.363474)
(-1.87506 -1.22418e-20 0.343632)
(-1.92228 -6.60238e-21 0.324709)
(-1.96246 7.9632e-21 0.306617)
(-1.99798 4.13049e-21 0.28984)
(-2.03125 -5.47026e-21 0.274139)
(-2.06399 1.25723e-21 0.258383)
(-2.09692 0 0.241323)
(-2.13008 2.10859e-21 0.222224)
(-2.16325 -2.81448e-21 0.200995)
(-2.19642 3.50925e-21 0.178026)
(-2.22981 -8.80733e-22 0.15406)
(-2.26366 -3.82164e-23 0.130188)
(-2.29813 -6.09878e-22 0.107805)
(-2.33319 -5.11778e-22 0.0884036)
(-2.36839 1.79139e-22 0.0732234)
(-2.40316 -5.04169e-22 0.0627462)
(-2.4382 0 0.0562182)
(-2.47641 1.90428e-22 0.0513895)
(-2.51947 -9.79258e-23 0.0446884)
(-2.5591 -8.72141e-24 0.0335529)
(-2.57745 6.49267e-24 0.0219921)
(-0.471775 0 0.711716)
(-0.736413 8.85963e-20 0.777774)
(-1.11191 -8.94065e-20 0.747471)
(-1.39265 0 0.67984)
(-1.59113 3.61679e-21 0.608447)
(-1.73497 -2.8608e-21 0.545756)
(-1.84102 2.19769e-20 0.4906)
(-1.92008 3.7995e-22 0.4451)
(-1.98227 -1.64831e-21 0.410199)
(-2.03466 -6.15433e-21 0.382042)
(-2.0798 8.21172e-21 0.356699)
(-2.11864 2.80626e-21 0.333644)
(-2.15342 -5.61305e-21 0.313967)
(-2.18722 0 0.297313)
(-2.22221 -2.30065e-21 0.281604)
(-2.25899 -9.50491e-22 0.264725)
(-2.29726 3.99999e-21 0.245594)
(-2.33656 -1.87738e-21 0.224171)
(-2.37665 0 0.201021)
(-2.41752 -1.47051e-21 0.176955)
(-2.45902 -5.65131e-25 0.15299)
(-2.50079 -8.81118e-23 0.130407)
(-2.54219 -4.94575e-22 0.110612)
(-2.58245 -4.9227e-22 0.0948014)
(-2.62082 -2.1204e-22 0.0835398)
(-2.65802 1.15244e-22 0.0763648)
(-2.69754 9.99677e-23 0.0715427)
(-2.74171 -2.43751e-23 0.0660901)
(-2.78212 4.94018e-23 0.057477)
(-2.80063 0 0.0482866)
(-0.552065 0 1.33771)
(-0.919235 5.51302e-21 1.26184)
(-1.36374 9.26493e-21 1.07695)
(-1.63499 -2.53526e-20 0.886795)
(-1.80506 2.82736e-20 0.740922)
(-1.92306 2.8637e-21 0.641146)
(-2.00942 -4.63095e-21 0.559601)
(-2.07109 0 0.495068)
(-2.12008 -3.60689e-21 0.450658)
(-2.16519 -6.28974e-21 0.417709)
(-2.20641 -7.68175e-21 0.387409)
(-2.24172 1.42487e-21 0.35958)
(-2.27315 6.27166e-21 0.337611)
(-2.30529 -4.91392e-21 0.32143)
(-2.34109 -2.18982e-21 0.307225)
(-2.38057 4.22645e-21 0.291525)
(-2.42259 -9.8866e-22 0.272941)
(-2.46628 -7.94852e-22 0.251684)
(-2.5113 1.66445e-21 0.228578)
(-2.55756 0 0.204456)
(-2.60468 6.48709e-22 0.180151)
(-2.65183 6.96178e-23 0.156791)
(-2.69789 0 0.135789)
(-2.74174 3.33255e-22 0.118473)
(-2.78251 2.49706e-22 0.105643)
(-2.82092 0 0.0972673)
(-2.86078 -9.98429e-23 0.0922531)
(-2.90501 2.18033e-23 0.0882618)
(-2.94584 -4.93409e-23 0.0826566)
(-2.96473 3.82341e-23 0.0761507)
(-0.750364 -2.76313e-20 2.19146)
(-1.23488 4.17719e-20 1.87167)
(-1.73596 -4.32165e-21 1.43225)
(-1.94418 -2.19168e-21 1.03606)
(-2.03253 -2.48268e-21 0.815261)
(-2.09606 -8.73458e-21 0.713761)
(-2.15423 1.06982e-20 0.615645)
(-2.18957 0 0.529459)
(-2.21693 -4.4767e-21 0.479708)
(-2.25151 4.03468e-22 0.448679)
(-2.28751 -5.49658e-21 0.415281)
(-2.31599 0 0.381813)
(-2.3392 -1.24161e-21 0.357837)
(-2.36551 1.09659e-21 0.34432)
(-2.39917 -2.0743e-21 0.333641)
(-2.43878 1.01034e-21 0.320099)
(-2.48162 8.94912e-22 0.302342)
(-2.52626 0 0.281371)
(-2.57267 -7.16111e-22 0.258545)
(-2.62118 6.08084e-23 0.234671)
(-2.6715 -7.00663e-23 0.210204)
(-2.72243 -4.51027e-22 0.185975)
(-2.77229 3.24851e-22 0.16341)
(-2.81942 1.11041e-22 0.144061)
(-2.86257 4.49626e-23 0.129054)
(-2.90226 0 0.118835)
(-2.94227 0 0.113078)
(-2.98638 -6.11966e-24 0.110339)
(-3.02761 -1.13678e-22 0.107765)
(-3.04702 -8.9228e-23 0.10373)
(10.0024 4.50064e-21 0.131343)
(9.98582 1.8435e-20 0.264321)
(9.95789 -1.42651e-20 0.398019)
(9.92382 3.88524e-20 0.533475)
(9.88247 8.00574e-20 0.672322)
(9.83296 -8.20153e-20 0.816157)
(9.77552 2.62961e-21 0.966464)
(9.71082 5.4032e-21 1.12462)
(9.63949 1.78657e-19 1.29201)
(9.56174 -3.66252e-19 1.47013)
(9.47788 3.87768e-19 1.66049)
(9.3883 8.35573e-22 1.8646)
(9.2934 -2.09958e-19 2.08406)
(9.19356 2.03229e-19 2.32062)
(9.08922 -2.33469e-19 2.57616)
(8.98084 -4.25289e-19 2.85277)
(8.86899 -1.41497e-20 3.15288)
(8.75413 4.42012e-19 3.47935)
(8.63663 0 3.83565)
(8.5171 0 4.22609)
(8.39628 -1.46068e-20 4.65614)
(8.27503 1.47437e-20 5.13283)
(8.15467 9.18044e-19 5.6656)
(8.03724 -9.10049e-19 6.26738)
(7.92629 1.34114e-20 6.95659)
(7.82864 0 7.76082)
(7.76327 0 8.72384)
(7.76874 5.2144e-20 9.92311)
(8.396 3.31472e-19 11.4354)
(8.74577 -3.46037e-19 14.2769)
(10.003 8.72521e-21 0.136034)
(9.98794 -8.93873e-21 0.27378)
(9.96285 4.13902e-20 0.412269)
(9.93281 3.77126e-20 0.552524)
(9.89661 2.41629e-21 0.696182)
(9.85334 0 0.844847)
(9.80334 -8.32337e-20 0.999991)
(9.74733 8.12138e-20 1.16299)
(9.68587 -1.7281e-19 1.33525)
(9.61931 1.712e-19 1.51826)
(9.54809 -1.14015e-20 1.71352)
(9.47274 0 1.92251)
(9.39377 0 2.14682)
(9.31182 0 2.38813)
(9.22755 -3.9942e-19 2.64827)
(9.14177 -4.49289e-22 2.92931)
(9.05543 4.28274e-19 3.23364)
(8.96939 0 3.56406)
(8.88476 4.27851e-19 3.9239)
(8.80315 -5.83998e-21 4.31728)
(8.72659 -4.39153e-19 4.74927)
(8.65791 0 5.22637)
(8.6013 0 5.75697)
(8.56329 -2.7693e-20 6.35214)
(8.55479 -4.43943e-19 7.02661)
(8.59511 2.3484e-20 7.79993)
(8.72397 2.18213e-19 8.69635)
(8.9573 3.44798e-19 9.74512)
(9.61446 -1.60803e-19 10.8982)
(10.1591 -1.23994e-22 12.1091)
(10.0035 -8.47057e-21 0.140232)
(9.99014 2.60529e-20 0.282238)
(9.96801 1.78779e-20 0.425002)
(9.94216 6.79329e-23 0.569518)
(9.91128 3.5211e-20 0.717415)
(9.87446 0 0.870277)
(9.83212 -7.99884e-20 1.02957)
(9.78499 7.86625e-20 1.19666)
(9.73364 0 1.37297)
(9.67854 8.03122e-21 1.55993)