/*--------------------------------*- C++ -*----------------------------------*\
| =========                 |                                                 |
| \\      /  F ield         | OpenFOAM: The Open Source CFD Toolbox           |
|  \\    /   O peration     | Version:  dev                                   |
|   \\  /    A nd           | Web:      www.OpenFOAM.org                      |
|    \\/     M anipulation  |                                                 |
\*---------------------------------------------------------------------------*/
FoamFile
{
    version     2.0;
    format      ascii;
    class       volScalarField;
    location    "3.1";
    object      p;
}
// * * * * * * * * * * * * * * * * * * * * * * * * * * * * * * * * * * * * * //

dimensions      [0 2 -2 0 0 0 0];

internalField   nonuniform List<scalar> 
465
(
140.215
140.156
140.464
141.024
141.751
142.634
143.674
144.867
146.206
147.684
149.297
151.039
152.902
154.877
156.953
159.114
161.343
163.616
165.906
168.177
170.392
140.038
140.076
140.407
140.964
141.688
142.569
143.605
144.793
146.125
147.596
149.201
150.934
152.787
154.752
156.818
158.969
161.189
163.455
165.739
168.01
170.228
139.859
139.97
140.318
140.866
141.578
142.447
143.471
144.642
145.956
147.406
148.987
150.692
152.515
154.447
156.476
158.589
160.768
162.992
165.236
167.469
169.655
139.663
139.809
140.17
140.709
141.408
142.262
143.269
144.42
145.708
147.129
148.677
150.345
152.126
154.011
155.988
158.044
160.162
162.322
164.501
166.67
168.797
139.44
139.603
139.974
140.506
141.19
142.026
143.01
144.134
145.391
146.775
148.281
149.901
151.628
153.453
155.364
157.348
159.388
161.466
163.56
165.644
167.691
139.185
139.358
139.733
140.256
140.922
141.735
142.692
143.784
145.003
146.342
147.797
149.361
151.024
152.778
154.61
156.509
158.457
160.437
162.429
164.409
166.354
138.898
139.074
139.448
139.961
140.607
141.393
142.318
143.372
144.547
145.835
147.232
148.73
150.32
151.992
153.735
155.535
157.377
159.244
161.117
162.974
164.795
138.576
138.753
139.123
139.622
140.245
141.002
141.89
142.902
144.026
145.257
146.588
148.012
149.52
151.1
152.742
154.432
156.154
157.893
159.629
161.343
163.015
138.222
138.397
138.76
139.242
139.839
140.562
141.411
142.375
143.444
144.611
145.87
147.212
148.629
150.108
151.638
153.206
154.795
156.389
157.969
159.517
161.012
137.834
138.006
138.36
138.823
139.391
140.078
140.883
141.795
142.804
143.901
145.082
146.336
147.653
149.022
150.43
151.863
153.305
154.738
156.143
157.5
158.789
137.415
137.583
137.925
138.366
138.904
139.552
140.31
141.166
142.109
143.133
144.229
145.388
146.599
147.849
149.126
150.413
151.695
152.95
154.16
155.301
156.349
136.966
137.129
137.457
137.875
138.379
138.986
139.694
140.491
141.365
142.31
143.316
144.375
145.473
146.597
147.734
148.865
149.973
151.036
152.03
152.93
153.704
136.488
136.646
136.958
137.351
137.821
138.384
139.039
139.773
140.575
141.437
142.35
143.303
144.283
145.275
146.263
147.23
148.153
149.009
149.771
150.405
150.875
135.984
136.136
136.432
136.797
137.231
137.748
138.348
139.017
139.745
140.521
141.337
142.18
143.036
143.891
144.725
145.519
146.25
146.888
147.402
147.753
147.892
135.455
135.6
135.879
136.216
136.612
137.082
137.625
138.227
138.877
139.566
140.281
141.012
141.742
142.455
143.131
143.748
144.279
144.692
144.95
145.006
144.8
135.291
135.599
135.954
136.376
136.859
137.392
137.962
138.558
139.171
139.784
140.384
140.95
141.463
141.897
142.222
142.403
142.397
142.149
141.588
134.938
135.252
135.622
136.043
136.503
136.989
137.49
137.995
138.488
138.952
139.367
139.711
139.957
140.072
140.017
139.744
139.191
138.28
134.51
134.826
135.183
135.568
135.968
136.371
136.765
137.135
137.46
137.723
137.896
137.953
137.858
137.569
137.035
136.19
134.952
133.99
134.281
134.59
134.902
135.206
135.488
135.732
135.92
136.028
136.033
135.903
135.603
135.089
134.308
133.195
131.667
133.342
133.573
133.796
134
134.17
134.29
134.339
134.297
134.136
133.826
133.331
132.606
131.601
130.251
128.48
132.521
132.655
132.759
132.818
132.815
132.73
132.541
132.222
131.741
131.064
130.148
128.944
127.394
125.429
131.491
131.441
131.318
131.103
130.774
130.305
129.667
128.824
127.739
126.365
124.652
122.54
130.046
129.809
129.47
129.01
128.402
127.619
126.63
125.399
123.885
122.045
119.832
127.842
127.26
126.526
125.615
124.498
123.145
121.52
119.588
117.311
124.689
123.667
122.443
120.99
119.282
117.287
114.979
121.786
120.473
118.944
117.176
115.146
112.834
117.013
115.206
113.162
110.867
111.331
109.069
)
;

boundaryField
{
    inlet
    {
        type            zeroGradient;
    }
    outlet
    {
        type            fixedValue;
        value           nonuniform 0();
    }
    flap
    {
        type            zeroGradient;
    }
    upperWall
    {
        type            zeroGradient;
    }
    lowerWall
    {
        type            zeroGradient;
    }
    frontAndBack
    {
        type            empty;
    }
    procBoundary3to0
    {
        type            processor;
        value           nonuniform List<scalar> 
34
(
134.893
135.031
135.031
134.662
134.662
134.239
134.239
133.73
133.73
133.118
133.118
132.368
132.368
131.439
131.485
131.485
130.202
130.202
128.642
128.296
128.296
126.229
125.536
125.536
122.904
122.904
119.982
118.599
118.599
115.199
113.371
113.371
109.648
107.43
)
;
    }
    procBoundary3to1
    {
        type            processor;
        value           nonuniform List<scalar> 9(126.196 122.97 119.966 117.193 114.65 112.33 110.221 108.309 106.579);
    }
    procBoundary3to4
    {
        type            processor;
        value           nonuniform List<scalar> 
19
(
172.505
172.35
171.755
170.848
169.67
168.238
166.558
164.625
162.436
159.987
157.278
154.32
151.136
147.762
144.257
140.625
136.909
133.214
129.623
)
;
    }
}


// ************************************************************************* //
