/*--------------------------------*- C++ -*----------------------------------*\
| =========                 |                                                 |
| \\      /  F ield         | OpenFOAM: The Open Source CFD Toolbox           |
|  \\    /   O peration     | Version:  dev                                   |
|   \\  /    A nd           | Web:      www.OpenFOAM.org                      |
|    \\/     M anipulation  |                                                 |
\*---------------------------------------------------------------------------*/
FoamFile
{
    version     2.0;
    format      ascii;
    class       volVectorField;
    location    "4.47";
    object      Force;
}
// * * * * * * * * * * * * * * * * * * * * * * * * * * * * * * * * * * * * * //

dimensions      [1 1 -2 0 0 0 0];

internalField   uniform (0 0 0);

boundaryField
{
    inlet
    {
        type            calculated;
        value           nonuniform 0();
    }
    outlet
    {
        type            calculated;
        value           nonuniform 0();
    }
    flap
    {
        type            calculated;
        value           nonuniform List<vector> 
33
(
(3.69253 1.81721e-17 -0.158377)
(3.65328 2.40043e-18 -0.333248)
(3.61031 2.22441e-17 -0.480141)
(3.56449 -4.81121e-18 -0.574971)
(3.51418 -2.26065e-21 -0.626237)
(3.45897 -2.317e-21 -0.642498)
(3.39945 -3.24568e-23 -0.633729)
(3.33522 1.61911e-17 -0.608874)
(3.2611 -2.35099e-38 -0.574695)
(3.1706 2.04479e-17 -0.535357)
(3.05531 4.2147e-18 -0.492482)
(2.90171 -3.99513e-18 -0.447099)
(2.6852 0 -0.398528)
(2.3532 3.22435e-18 -0.339825)
(1.77165 2.42537e-22 -0.253028)
(0.107966 -4.8448e-19 0.713679)
(0.0701125 -2.64308e-22 0.483215)
(0.030967 1.80766e-22 0.217408)
(-0.0197677 -7.07635e-21 0.000838565)
(-0.018842 1.47737e-17 0.00158565)
(-0.0172943 1.51847e-17 0.00207913)
(-0.0152658 1.61262e-24 0.00214898)
(-0.0129635 -1.81222e-20 0.00191296)
(-0.0106666 1.48487e-20 0.00151254)
(-0.00862926 -1.62936e-17 0.00108537)
(-0.00697931 -3.21839e-23 0.000718907)
(-0.00574212 1.64829e-17 0.000451559)
(-0.00485735 1.65132e-17 0.000287293)
(-0.00406762 2.38671e-25 0.000181857)
(-0.0027819 4.45835e-23 4.54387e-05)
(0.000469806 7.42348e-22 -0.000323973)
(0.00815513 -2.72353e-25 -0.00116722)
(0.0272967 3.80107e-20 -0.00383036)
)
;
    }
    upperWall
    {
        type            calculated;
        value           nonuniform 0();
    }
    lowerWall
    {
        type            calculated;
        value           uniform (0 0 0);
    }
    frontAndBack
    {
        type            empty;
    }
    procBoundary4to1
    {
        type            processor;
        value           uniform (0 0 0);
    }
    procBoundary4to2
    {
        type            processor;
        value           uniform (0 0 0);
    }
    procBoundary4to3
    {
        type            processor;
        value           uniform (0 0 0);
    }
    procBoundary4to5
    {
        type            processor;
        value           uniform (0 0 0);
    }
}


// ************************************************************************* //
