/*--------------------------------*- C++ -*----------------------------------*\
| =========                 |                                                 |
| \\      /  F ield         | OpenFOAM: The Open Source CFD Toolbox           |
|  \\    /   O peration     | Version:  dev                                   |
|   \\  /    A nd           | Web:      www.OpenFOAM.org                      |
|    \\/     M anipulation  |                                                 |
\*---------------------------------------------------------------------------*/
FoamFile
{
    version     2.0;
    format      ascii;
    class       pointVectorField;
    location    "0.21";
    object      pointDisplacement;
}
// * * * * * * * * * * * * * * * * * * * * * * * * * * * * * * * * * * * * * //

dimensions      [0 1 0 0 0 0 0];

internalField   nonuniform List<vector> 
5828
(
(0 0 0)
(0.00160487 0 0)
(0.0030675 0 0)
(0.00435562 0 0)
(0.00548461 0 0)
(0.0064684 0 0)
(0.00731948 0 0)
(0.0080489 0 0)
(0.00866639 0 0)
(0.00918042 0 0)
(0.00959823 0 0)
(0.00992594 0 0)
(0.0101685 0 0)
(0.0103298 0 0)
(0.0104125 0 0)
(0.0104183 0 0)
(0.0103474 0 0)
(0.0101991 0 0)
(0.00997113 0 0)
(0.00965999 0 0)
(0.00926084 0 0)
(0.00876761 0 0)
(0.00817356 0 0)
(0.00747214 0 0)
(0.00665865 0 0)
(0.00573352 0 0)
(0.00470826 0 0)
(0.00361683 0 0)
(0.00253886 0 0)
(0.00165776 0 0)
(0 0 0)
(0 0 0)
(0.00160507 0 2.82816e-06)
(0.00306799 0 5.48049e-06)
(0.00435646 0 7.95942e-06)
(0.00548584 0 1.0339e-05)
(0.00647012 0 1.26847e-05)
(0.00732179 0 1.50579e-05)
(0.00805194 0 1.75199e-05)
(0.00867033 0 2.01356e-05)
(0.00918546 0 2.29771e-05)
(0.00960463 0 2.61289e-05)
(0.00993402 0 2.96929e-05)
(0.0101787 0 3.3795e-05)
(0.0103425 0 3.85944e-05)
(0.0104285 0 4.4294e-05)
(0.0104383 0 5.11559e-05)
(0.0103726 0 5.95197e-05)
(0.0102308 0 6.98275e-05)
(0.0100112 0 8.26557e-05)
(0.00971069 0 9.87541e-05)
(0.00932527 0 0.000119096)
(0.0088498 0 0.000144933)
(0.00827872 0 0.000177861)
(0.00760709 0 0.000219874)
(0.00683224 0 0.000273391)
(0.00595714 0 0.000341183)
(0.0049965 0 0.000426035)
(0.00398791 0 0.000529644)
(0.00301328 0 0.000649238)
(0.00224585 0 0.000766838)
(0.00114965 0 0.00103162)
(0 0 0)
(0.00160588 0 5.64043e-06)
(0.00306967 0 1.09295e-05)
(0.00435911 0 1.58713e-05)
(0.00548967 0 2.06127e-05)
(0.00647537 0 2.52835e-05)
(0.00732878 0 3.00049e-05)
(0.00806107 0 3.48975e-05)
(0.0086821 0 4.00881e-05)
(0.00920047 0 4.5718e-05)
(0.00962366 0 5.1951e-05)
(0.009958 0 5.8984e-05)
(0.0102088 0 6.70595e-05)
(0.0103803 0 7.64819e-05)
(0.0104758 0 8.76383e-05)
(0.0104975 0 0.000101025)
(0.0104469 0 0.000117281)
(0.0103242 0 0.000137236)
(0.0101289 0 0.000161959)
(0.00985948 0 0.000192832)
(0.00951391 0 0.000231629)
(0.0090897 0 0.000280603)
(0.00858468 0 0.00034257)
(0.00799813 0 0.000420958)
(0.00733267 0 0.00051975)
(0.00659749 0 0.000643159)
(0.00581395 0 0.000794671)
(0.00502464 0 0.000974547)
(0.00430764 0 0.00117355)
(0.00379807 0 0.00135711)
(0.00314149 0 0.00168177)
(0 0 0)
(0.00160723 0 8.41989e-06)
(0.00307244 0 1.63135e-05)
(0.00436351 0 2.36853e-05)
(0.00549598 0 3.07524e-05)
(0.00648401 0 3.77064e-05)
(0.00734026 0 4.47252e-05)
(0.00807604 0 5.19849e-05)
(0.00870137 0 5.96694e-05)
(0.00922503 0 6.7982e-05)
(0.00965473 0 7.71564e-05)
(0.0099971 0 8.74715e-05)
(0.0102578 0 9.9268e-05)
(0.0104416 0 0.00011297)
(0.0105525 0 0.000129111)
(0.0105934 0 0.000148372)
(0.0105668 0 0.000171618)
(0.0104745 0 0.000199957)
(0.0103175 0 0.000234807)
(0.0100969 0 0.000277965)
(0.0098134 0 0.000331698)
(0.00946841 0 0.00039882)
(0.00906447 0 0.000482739)
(0.00860658 0 0.000587409)
(0.00810394 0 0.000717085)
(0.00757257 0 0.000875618)
(0.00703894 0 0.00106481)
(0.00654434 0 0.00128087)
(0.00614776 0 0.00150719)
(0.00592286 0 0.00170045)
(0.00569932 0 0.00199226)
(0 0 0)
(0.00160907 0 1.11493e-05)
(0.00307625 0 2.15984e-05)
(0.00436953 0 3.13499e-05)
(0.00550462 0 4.0688e-05)
(0.0064958 0 4.9862e-05)
(0.00735593 0 5.91024e-05)
(0.00809647 0 6.86351e-05)
(0.00872762 0 7.8694e-05)
(0.00925845 0 8.95344e-05)
(0.00969694 0 0.000101447)
(0.0100501 0 0.000114774)
(0.0103242 0 0.00012993)
(0.0105244 0 0.000147423)
(0.0106556 0 0.000167884)
(0.0107218 0 0.000192108)
(0.0107268 0 0.00022109)
(0.0106738 0 0.000256083)
(0.0105664 0 0.000298656)
(0.010408 0 0.000350757)
(0.010203 0 0.000414773)
(0.00995686 0 0.00049356)
(0.00967718 0 0.000590408)
(0.00937473 0 0.000708859)
(0.00906463 0 0.000852247)
(0.0087677 0 0.00102269)
(0.00851127 0 0.00121909)
(0.0083278 0 0.00143358)
(0.00824756 0 0.00164552)
(0.0082797 0 0.00181318)
(0.00841075 0 0.00203611)
(0 0 0)
(0.00161138 0 1.38116e-05)
(0.00308099 0 2.67506e-05)
(0.00437702 0 3.8815e-05)
(0.00551535 0 5.03513e-05)
(0.00651046 0 6.16622e-05)
(0.00737538 0 7.3025e-05)
(0.00812179 0 8.47087e-05)
(0.00876014 0 9.69881e-05)
(0.00929977 0 0.000110159)
(0.00974903 0 0.000124553)
(0.0101154 0 0.000140555)
(0.0104056 0 0.000158622)
(0.0106256 0 0.000179305)
(0.0107811 0 0.00020328)
(0.0108774 0 0.000231376)
(0.0109194 0 0.000264611)
(0.0109124 0 0.000304237)
(0.0108619 0 0.000351775)
(0.0107742 0 0.00040905)
(0.0106569 0 0.000478204)
(0.0105194 0 0.000561658)
(0.0103736 0 0.000661981)
(0.0102348 0 0.000781583)
(0.010122 0 0.000922124)
(0.0100574 0 0.00108343)
(0.0100646 0 0.0012617)
(0.0101623 0 0.00144679)
(0.01035 0 0.00161877)
(0.0105818 0 0.00174491)
(0.0109731 0 0.00189933)
(0 0 0)
(0.00161409 0 1.63907e-05)
(0.00308655 0 3.17381e-05)
(0.00438577 0 4.60326e-05)
(0.00552789 0 5.9678e-05)
(0.00652758 0 7.30244e-05)
(0.00739809 0 8.63899e-05)
(0.00815133 0 0.000100078)
(0.00879802 0 0.000114396)
(0.00934781 0 0.000129667)
(0.00980944 0 0.000146245)
(0.0101908 0 0.000164536)
(0.0104993 0 0.000185007)
(0.0107417 0 0.000208213)
(0.0109244 0 0.000234815)
(0.0110538 0 0.000265602)
(0.0111363 0 0.000301515)
(0.0111787 0 0.000343668)
(0.0111886 0 0.000393356)
(0.0111746 0 0.000452054)
(0.0111469 0 0.000521369)
(0.011118 0 0.000602938)
(0.0111026 0 0.000698221)
(0.0111185 0 0.000808127)
(0.0111857 0 0.000932417)
(0.0113245 0 0.0010688)
(0.0115514 0 0.0012117)
(0.0118696 0 0.00135092)
(0.0122522 0 0.00147074)
(0.0126151 0 0.00155076)
(0.0131655 0 0.00164061)
(0 0 0)
(0.00161711 0 1.88713e-05)
(0.00309275 0 3.65311e-05)
(0.00439555 0 5.29587e-05)
(0.00554189 0 6.8609e-05)
(0.0065467 0 8.3874e-05)
(0.00742344 0 9.91052e-05)
(0.00818428 0 0.000114634)
(0.00884021 0 0.000130787)
(0.00940121 0 0.000147903)
(0.0098764 0 0.000166343)
(0.0102742 0 0.000186508)
(0.0106025 0 0.00020885)
(0.0108687 0 0.000233887)
(0.0110801 0 0.000262215)
(0.0112441 0 0.000294519)
(0.0113683 0 0.000331577)
(0.0114608 0 0.00037426)
(0.0115307 0 0.00042351)
(0.0115883 0 0.000480293)
(0.0116457 0 0.000545511)
(0.0117167 0 0.000619846)
(0.0118173 0 0.00070352)
(0.0119654 0 0.000795922)
(0.0121792 0 0.00089513)
(0.0124744 0 0.000997329)
(0.0128588 0 0.0010963)
(0.0133216 0 0.00118339)
(0.0138177 0 0.00124861)
(0.0142433 0 0.00128395)
(0.0148595 0 0.00130921)
(0 0 0)
(0.00162037 0 2.12398e-05)
(0.00309942 0 4.11029e-05)
(0.00440606 0 5.95539e-05)
(0.00555696 0 7.70927e-05)
(0.00656729 0 9.41465e-05)
(0.00745074 0 0.000111094)
(0.00821974 0 0.000128285)
(0.00888555 0 0.000146057)
(0.00945847 0 0.000164751)
(0.009948 0 0.00018472)
(0.010363 0 0.00020634)
(0.0107118 0 0.000230023)
(0.0110024 0 0.000256218)
(0.011243 0 0.000285417)
(0.0114416 0 0.000318151)
(0.0116066 0 0.000354982)
(0.0117473 0 0.000396471)
(0.0118735 0 0.000443135)
(0.0119966 0 0.00049537)
(0.012129 0 0.000553328)
(0.012285 0 0.000616746)
(0.0124797 0 0.000684709)
(0.0127289 0 0.000755353)
(0.0130471 0 0.000825567)
(0.0134438 0 0.000890796)
(0.0139176 0 0.000945174)
(0.0144476 0 0.000982447)
(0.0149792 0 0.00099835)
(0.0154072 0 0.000995304)
(0.0159985 0 0.000964818)
(0 0 0)
(0.00162374 0 2.34844e-05)
(0.00310634 0 4.54304e-05)
(0.00441699 0 6.57846e-05)
(0.00557266 0 8.50855e-05)
(0.00658876 0 0.000103789)
(0.00747924 0 0.000122294)
(0.00825674 0 0.000140962)
(0.00893282 0 0.000160132)
(0.00951804 0 0.000180136)
(0.0100222 0 0.000201304)
(0.0104546 0 0.000223976)
(0.010824 0 0.000248499)
(0.0111389 0 0.000275235)
(0.0114079 0 0.000304544)
(0.0116396 0 0.000336779)
(0.0118431 0 0.000372255)
(0.0120278 0 0.000411204)
(0.0122042 0 0.000453712)
(0.0123834 0 0.000499625)
(0.0125777 0 0.000548418)
(0.0127999 0 0.000599036)
(0.0130631 0 0.0006497)
(0.0133795 0 0.000697728)
(0.0137582 0 0.000739446)
(0.0142021 0 0.000770334)
(0.0147025 0 0.000785642)
(0.0152319 0 0.000781876)
(0.0157351 0 0.000759675)
(0.0161188 0 0.000728851)
(0.0166144 0 0.000659835)
(0 0 0)
(0.00162712 0 2.55951e-05)
(0.00311329 0 4.94947e-05)
(0.004428 0 7.16237e-05)
(0.00558851 0 9.2553e-05)
(0.0066105 0 0.000112762)
(0.00750814 0 0.000132662)
(0.0082943 0 0.000152619)
(0.00898075 0 0.000172967)
(0.00957833 0 0.000194021)
(0.0100971 0 0.000216077)
(0.0105467 0 0.000239426)
(0.0109361 0 0.000264343)
(0.0112743 0 0.000291085)
(0.0115701 0 0.000319875)
(0.0118324 0 0.000350877)
(0.0120704 0 0.000384164)
(0.0122937 0 0.000419658)
(0.0125124 0 0.000457061)
(0.0127371 0 0.000495758)
(0.0129784 0 0.000534702)
(0.0132472 0 0.00057229)
(0.0135532 0 0.000606239)
(0.0139043 0 0.000633538)
(0.014304 0 0.000650557)
(0.0147491 0 0.000653444)
(0.0152253 0 0.000639045)
(0.0157037 0 0.000606597)
(0.0161349 0 0.000560508)
(0.0164464 0 0.000514661)
(0.0168139 0 0.00043185)
(0 0 0)
(0.00163038 0 2.75641e-05)
(0.00312002 0 5.32807e-05)
(0.00443872 0 7.70503e-05)
(0.00560403 0 9.94699e-05)
(0.00663188 0 0.000121036)
(0.00753665 0 0.000142168)
(0.00833141 0 0.000163231)
(0.00902811 0 0.000184547)
(0.00963782 0 0.000206405)
(0.0101708 0 0.000229066)
(0.0106369 0 0.000252763)
(0.0110453 0 0.000277693)
(0.0114052 0 0.000304008)
(0.0117254 0 0.000331795)
(0.012015 0 0.000361046)
(0.012283 0 0.000391614)
(0.0125386 0 0.000423164)
(0.0127911 0 0.000455096)
(0.0130498 0 0.000486469)
(0.0133237 0 0.000515912)
(0.0136206 0 0.000541548)
(0.0139468 0 0.000560958)
(0.0143054 0 0.000571248)
(0.0146948 0 0.000569293)
(0.0151069 0 0.000552305)
(0.0155247 0 0.00051884)
(0.015921 0 0.000470451)
(0.0162575 0 0.000414011)
(0.0164864 0 0.000364613)
(0.0167275 0 0.000288508)
(0 0 0)
(0.00163339 0 2.93857e-05)
(0.00312628 0 5.67779e-05)
(0.00444878 0 8.20499e-05)
(0.00561874 0 0.000105819)
(0.00665229 0 0.000128595)
(0.00756399 0 0.000150799)
(0.0083671 0 0.000172792)
(0.00907372 0 0.000194878)
(0.00969506 0 0.000217319)
(0.0102416 0 0.000240335)
(0.0107231 0 0.000264101)
(0.011149 0 0.000288738)
(0.0115285 0 0.000314301)
(0.0118704 0 0.000340754)
(0.0121836 0 0.000367941)
(0.0124765 0 0.000395545)
(0.0127578 0 0.000423038)
(0.0130357 0 0.000449625)
(0.0133179 0 0.000474187)
(0.0136112 0 0.000495226)
(0.0139207 0 0.000510856)
(0.0142489 0 0.000518833)
(0.014595 0 0.000516706)
(0.0149532 0 0.000502147)
(0.0153119 0 0.000473529)
(0.0156533 0 0.000430866)
(0.0159542 0 0.000377188)
(0.0161894 0 0.000320313)
(0.0163365 0 0.000274494)
(0.0164761 0 0.000216263)
(0 0 0)
(0.00163602 0 3.1056e-05)
(0.00313182 0 5.9979e-05)
(0.00445782 0 8.66135e-05)
(0.00563214 0 0.000111593)
(0.00667109 0 0.000135433)
(0.00758941 0 0.000158556)
(0.00840045 0 0.000181312)
(0.00911646 0 0.000203988)
(0.00974872 0 0.000226817)
(0.0103078 0 0.000249976)
(0.0108034 0 0.000273587)
(0.0112452 0 0.000297702)
(0.011642 0 0.000322291)
(0.0120025 0 0.000347219)
(0.0123352 0 0.000372218)
(0.012648 0 0.00039685)
(0.0129487 0 0.000420475)
(0.0132443 0 0.000442206)
(0.0135407 0 0.000460883)
(0.0138427 0 0.000475063)
(0.0141528 0 0.000483055)
(0.0144705 0 0.00048301)
(0.0147918 0 0.000473126)
(0.015108 0 0.000451976)
(0.0154059 0 0.000419008)
(0.0156678 0 0.00037522)
(0.0158749 0 0.000324044)
(0.0160128 0 0.000272486)
(0.0160811 0 0.000232455)
(0.0161306 0 0.000186555)
(0 0 0)
(0.00163814 0 3.25729e-05)
(0.00313638 0 6.28807e-05)
(0.00446548 0 9.07375e-05)
(0.00564376 0 0.000116789)
(0.00668771 0 0.000141553)
(0.00761218 0 0.00016545)
(0.00843061 0 0.000188817)
(0.00915532 0 0.000211922)
(0.00979761 0 0.00023497)
(0.010368 0 0.0002581)
(0.0108764 0 0.000281385)
(0.011332 0 0.00030482)
(0.0117436 0 0.000328308)
(0.0121196 0 0.000351642)
(0.0124679 0 0.000374478)
(0.0127959 0 0.000396316)
(0.0131102 0 0.000416472)
(0.0134167 0 0.000434062)
(0.0137198 0 0.000448001)
(0.0140224 0 0.000457029)
(0.0143248 0 0.000459785)
(0.0146247 0 0.000454942)
(0.0149159 0 0.00044142)
(0.0151885 0 0.000418688)
(0.0154291 0 0.000387131)
(0.0156215 0 0.000348399)
(0.0157504 0 0.000305606)
(0.0158072 0 0.000263345)
(0.0158032 0 0.000228824)
(0.0157263 0 0.000187091)
(0 0 0)
(0.00163964 0 3.39427e-05)
(0.00313976 0 6.55022e-05)
(0.00447144 0 9.44554e-05)
(0.00565322 0 0.000121451)
(0.0067017 0 0.000147013)
(0.0076318 0 0.000171553)
(0.00845702 0 0.000195397)
(0.00918967 0 0.000218793)
(0.00984107 0 0.00024192)
(0.0104217 0 0.000264885)
(0.0109412 0 0.000287719)
(0.0114087 0 0.000310373)
(0.0118328 0 0.000332701)
(0.0122213 0 0.000354451)
(0.0125817 0 0.000375245)
(0.0129205 0 0.000394564)
(0.0132436 0 0.000411746)
(0.0135555 0 0.00042598)
(0.0138596 0 0.000436336)
(0.014157 0 0.000441819)
(0.014447 0 0.000441464)
(0.0147257 0 0.000434491)
(0.0149866 0 0.000420518)
(0.01522 0 0.000399828)
(0.0154139 0 0.000373658)
(0.0155554 0 0.000344444)
(0.0156333 0 0.000315956)
(0.0156429 0 0.000293261)
(0.0155959 0 0.000283678)
(0.0153097 0 0.000199341)
(0 0 0)
(0.00160487 0 0)
(0.0030675 0 0)
(0.00435562 0 0)
(0.00548461 0 0)
(0.0064684 0 0)
(0.00731948 0 0)
(0.0080489 0 0)
(0.00866639 0 0)
(0.00918042 0 0)
(0.00959823 0 0)
(0.00992594 0 0)
(0.0101685 0 0)
(0.0103298 0 0)
(0.0104125 0 0)
(0.0104183 0 0)
(0.0103474 0 0)
(0.0101991 0 0)
(0.00997113 0 0)
(0.00965999 0 0)
(0.00926084 0 0)
(0.00876761 0 0)
(0.00817356 0 0)
(0.00747214 0 0)
(0.00665865 0 0)
(0.00573352 0 0)
(0.00470826 0 0)
(0.00361683 0 0)
(0.00253886 0 0)
(0.00165776 0 0)
(0 0 0)
(0 0 0)
(0.00160507 0 2.82816e-06)
(0.00306799 0 5.48049e-06)
(0.00435646 0 7.95942e-06)
(0.00548584 0 1.0339e-05)
(0.00647012 0 1.26847e-05)
(0.00732179 0 1.50579e-05)
(0.00805194 0 1.75199e-05)
(0.00867033 0 2.01356e-05)
(0.00918546 0 2.29771e-05)
(0.00960463 0 2.61289e-05)
(0.00993402 0 2.96929e-05)
(0.0101787 0 3.3795e-05)
(0.0103425 0 3.85944e-05)
(0.0104285 0 4.4294e-05)
(0.0104383 0 5.11559e-05)
(0.0103726 0 5.95197e-05)
(0.0102308 0 6.98275e-05)
(0.0100112 0 8.26557e-05)
(0.00971069 0 9.87541e-05)
(0.00932527 0 0.000119096)
(0.0088498 0 0.000144933)
(0.00827872 0 0.000177861)
(0.00760709 0 0.000219874)
(0.00683224 0 0.000273391)
(0.00595714 0 0.000341183)
(0.0049965 0 0.000426035)
(0.00398791 0 0.000529644)
(0.00301328 0 0.000649238)
(0.00224585 0 0.000766838)
(0.00114965 0 0.00103162)
(0 0 0)
(0.00160588 0 5.64043e-06)
(0.00306967 0 1.09295e-05)
(0.00435911 0 1.58713e-05)
(0.00548967 0 2.06127e-05)
(0.00647537 0 2.52835e-05)
(0.00732878 0 3.00049e-05)
(0.00806107 0 3.48975e-05)
(0.0086821 0 4.00881e-05)
(0.00920047 0 4.5718e-05)
(0.00962366 0 5.1951e-05)
(0.009958 0 5.8984e-05)
(0.0102088 0 6.70595e-05)
(0.0103803 0 7.64819e-05)
(0.0104758 0 8.76383e-05)
(0.0104975 0 0.000101025)
(0.0104469 0 0.000117281)
(0.0103242 0 0.000137236)
(0.0101289 0 0.000161959)
(0.00985948 0 0.000192832)
(0.00951391 0 0.000231629)
(0.0090897 0 0.000280603)
(0.00858468 0 0.00034257)
(0.00799813 0 0.000420958)
(0.00733267 0 0.00051975)
(0.00659749 0 0.000643159)
(0.00581395 0 0.000794671)
(0.00502464 0 0.000974547)
(0.00430764 0 0.00117355)
(0.00379807 0 0.00135711)
(0.00314149 0 0.00168177)
(0 0 0)
(0.00160723 0 8.41989e-06)
(0.00307244 0 1.63135e-05)
(0.00436351 0 2.36853e-05)
(0.00549598 0 3.07524e-05)
(0.00648401 0 3.77064e-05)
(0.00734026 0 4.47252e-05)
(0.00807604 0 5.19849e-05)
(0.00870137 0 5.96694e-05)
(0.00922503 0 6.7982e-05)
(0.00965473 0 7.71564e-05)
(0.0099971 0 8.74715e-05)
(0.0102578 0 9.9268e-05)
(0.0104416 0 0.00011297)
(0.0105525 0 0.000129111)
(0.0105934 0 0.000148372)
(0.0105668 0 0.000171618)
(0.0104745 0 0.000199957)
(0.0103175 0 0.000234807)
(0.0100969 0 0.000277965)
(0.0098134 0 0.000331698)
(0.00946841 0 0.00039882)
(0.00906447 0 0.000482739)
(0.00860658 0 0.000587409)
(0.00810394 0 0.000717085)
(0.00757257 0 0.000875618)
(0.00703894 0 0.00106481)
(0.00654434 0 0.00128087)
(0.00614776 0 0.00150719)
(0.00592286 0 0.00170045)
(0.00569932 0 0.00199226)
(0 0 0)
(0.00160907 0 1.11493e-05)
(0.00307625 0 2.15984e-05)
(0.00436953 0 3.13499e-05)
(0.00550462 0 4.0688e-05)
(0.0064958 0 4.9862e-05)
(0.00735593 0 5.91024e-05)
(0.00809647 0 6.86351e-05)
(0.00872762 0 7.8694e-05)
(0.00925845 0 8.95344e-05)
(0.00969694 0 0.000101447)
(0.0100501 0 0.000114774)
(0.0103242 0 0.00012993)
(0.0105244 0 0.000147423)
(0.0106556 0 0.000167884)
(0.0107218 0 0.000192108)
(0.0107268 0 0.00022109)
(0.0106738 0 0.000256083)
(0.0105664 0 0.000298656)
(0.010408 0 0.000350757)
(0.010203 0 0.000414773)
(0.00995686 0 0.00049356)
(0.00967718 0 0.000590408)
(0.00937473 0 0.000708859)
(0.00906463 0 0.000852247)
(0.0087677 0 0.00102269)
(0.00851127 0 0.00121909)
(0.0083278 0 0.00143358)
(0.00824756 0 0.00164552)
(0.0082797 0 0.00181318)
(0.00841075 0 0.00203611)
(0 0 0)
(0.00161138 0 1.38116e-05)
(0.00308099 0 2.67506e-05)
(0.00437702 0 3.8815e-05)
(0.00551535 0 5.03513e-05)
(0.00651046 0 6.16622e-05)
(0.00737538 0 7.3025e-05)
(0.00812179 0 8.47087e-05)
(0.00876014 0 9.69881e-05)
(0.00929977 0 0.000110159)
(0.00974903 0 0.000124553)
(0.0101154 0 0.000140555)
(0.0104056 0 0.000158622)
(0.0106256 0 0.000179305)
(0.0107811 0 0.00020328)
(0.0108774 0 0.000231376)
(0.0109194 0 0.000264611)
(0.0109124 0 0.000304237)
(0.0108619 0 0.000351775)
(0.0107742 0 0.00040905)
(0.0106569 0 0.000478204)
(0.0105194 0 0.000561658)
(0.0103736 0 0.000661981)
(0.0102348 0 0.000781583)
(0.010122 0 0.000922124)
(0.0100574 0 0.00108343)
(0.0100646 0 0.0012617)
(0.0101623 0 0.00144679)
(0.01035 0 0.00161877)
(0.0105818 0 0.00174491)
(0.0109731 0 0.00189933)
(0 0 0)
(0.00161409 0 1.63907e-05)
(0.00308655 0 3.17381e-05)
(0.00438577 0 4.60326e-05)
(0.00552789 0 5.9678e-05)
(0.00652758 0 7.30244e-05)
(0.00739809 0 8.63899e-05)
(0.00815133 0 0.000100078)
(0.00879802 0 0.000114396)
(0.00934781 0 0.000129667)
(0.00980944 0 0.000146245)
(0.0101908 0 0.000164536)
(0.0104993 0 0.000185007)
(0.0107417 0 0.000208213)
(0.0109244 0 0.000234815)
(0.0110538 0 0.000265602)
(0.0111363 0 0.000301515)
(0.0111787 0 0.000343668)
(0.0111886 0 0.000393356)
(0.0111746 0 0.000452054)
(0.0111469 0 0.000521369)
(0.011118 0 0.000602938)
(0.0111026 0 0.000698221)
(0.0111185 0 0.000808127)
(0.0111857 0 0.000932417)
(0.0113245 0 0.0010688)
(0.0115514 0 0.0012117)
(0.0118696 0 0.00135092)
(0.0122522 0 0.00147074)
(0.0126151 0 0.00155076)
(0.0131655 0 0.00164061)
(0 0 0)
(0.00161711 0 1.88713e-05)
(0.00309275 0 3.65311e-05)
(0.00439555 0 5.29587e-05)
(0.00554189 0 6.8609e-05)
(0.0065467 0 8.3874e-05)
(0.00742344 0 9.91052e-05)
(0.00818428 0 0.000114634)
(0.00884021 0 0.000130787)
(0.00940121 0 0.000147903)
(0.0098764 0 0.000166343)
(0.0102742 0 0.000186508)
(0.0106025 0 0.00020885)
(0.0108687 0 0.000233887)
(0.0110801 0 0.000262215)
(0.0112441 0 0.000294519)
(0.0113683 0 0.000331577)
(0.0114608 0 0.00037426)
(0.0115307 0 0.00042351)
(0.0115883 0 0.000480293)
(0.0116457 0 0.000545511)
(0.0117167 0 0.000619846)
(0.0118173 0 0.00070352)
(0.0119654 0 0.000795922)
(0.0121792 0 0.00089513)
(0.0124744 0 0.000997329)
(0.0128588 0 0.0010963)
(0.0133216 0 0.00118339)
(0.0138177 0 0.00124861)
(0.0142433 0 0.00128395)
(0.0148595 0 0.00130921)
(0 0 0)
(0.00162037 0 2.12398e-05)
(0.00309942 0 4.11029e-05)
(0.00440606 0 5.95539e-05)
(0.00555696 0 7.70927e-05)
(0.00656729 0 9.41465e-05)
(0.00745074 0 0.000111094)
(0.00821974 0 0.000128285)
(0.00888555 0 0.000146057)
(0.00945847 0 0.000164751)
(0.009948 0 0.00018472)
(0.010363 0 0.00020634)
(0.0107118 0 0.000230023)
(0.0110024 0 0.000256218)
(0.011243 0 0.000285417)
(0.0114416 0 0.000318151)
(0.0116066 0 0.000354982)
(0.0117473 0 0.000396471)
(0.0118735 0 0.000443135)
(0.0119966 0 0.00049537)
(0.012129 0 0.000553328)
(0.012285 0 0.000616746)
(0.0124797 0 0.000684709)
(0.0127289 0 0.000755353)
(0.0130471 0 0.000825567)
(0.0134438 0 0.000890796)
(0.0139176 0 0.000945174)
(0.0144476 0 0.000982447)
(0.0149792 0 0.00099835)
(0.0154072 0 0.000995304)
(0.0159985 0 0.000964818)
(0 0 0)
(0.00162374 0 2.34844e-05)
(0.00310634 0 4.54304e-05)
(0.00441699 0 6.57846e-05)
(0.00557266 0 8.50855e-05)
(0.00658876 0 0.000103789)
(0.00747924 0 0.000122294)
(0.00825674 0 0.000140962)
(0.00893282 0 0.000160132)
(0.00951804 0 0.000180136)
(0.0100222 0 0.000201304)
(0.0104546 0 0.000223976)
(0.010824 0 0.000248499)
(0.0111389 0 0.000275235)
(0.0114079 0 0.000304544)
(0.0116396 0 0.000336779)
(0.0118431 0 0.000372255)
(0.0120278 0 0.000411204)
(0.0122042 0 0.000453712)
(0.0123834 0 0.000499625)
(0.0125777 0 0.000548418)
(0.0127999 0 0.000599036)
(0.0130631 0 0.0006497)
(0.0133795 0 0.000697728)
(0.0137582 0 0.000739446)
(0.0142021 0 0.000770334)
(0.0147025 0 0.000785642)
(0.0152319 0 0.000781876)
(0.0157351 0 0.000759675)
(0.0161188 0 0.000728851)
(0.0166144 0 0.000659835)
(0 0 0)
(0.00162712 0 2.55951e-05)
(0.00311329 0 4.94947e-05)
(0.004428 0 7.16237e-05)
(0.00558851 0 9.2553e-05)
(0.0066105 0 0.000112762)
(0.00750814 0 0.000132662)
(0.0082943 0 0.000152619)
(0.00898075 0 0.000172967)
(0.00957833 0 0.000194021)
(0.0100971 0 0.000216077)
(0.0105467 0 0.000239426)
(0.0109361 0 0.000264343)
(0.0112743 0 0.000291085)
(0.0115701 0 0.000319875)
(0.0118324 0 0.000350877)
(0.0120704 0 0.000384164)
(0.0122937 0 0.000419658)
(0.0125124 0 0.000457061)
(0.0127371 0 0.000495758)
(0.0129784 0 0.000534702)
(0.0132472 0 0.00057229)
(0.0135532 0 0.000606239)
(0.0139043 0 0.000633538)
(0.014304 0 0.000650557)
(0.0147491 0 0.000653444)
(0.0152253 0 0.000639045)
(0.0157037 0 0.000606597)
(0.0161349 0 0.000560508)
(0.0164464 0 0.000514661)
(0.0168139 0 0.00043185)
(0 0 0)
(0.00163038 0 2.75641e-05)
(0.00312002 0 5.32807e-05)
(0.00443872 0 7.70503e-05)
(0.00560403 0 9.94699e-05)
(0.00663188 0 0.000121036)
(0.00753665 0 0.000142168)
(0.00833141 0 0.000163231)
(0.00902811 0 0.000184547)
(0.00963782 0 0.000206405)
(0.0101708 0 0.000229066)
(0.0106369 0 0.000252763)
(0.0110453 0 0.000277693)
(0.0114052 0 0.000304008)
(0.0117254 0 0.000331795)
(0.012015 0 0.000361046)
(0.012283 0 0.000391614)
(0.0125386 0 0.000423164)
(0.0127911 0 0.000455096)
(0.0130498 0 0.000486469)
(0.0133237 0 0.000515912)
(0.0136206 0 0.000541548)
(0.0139468 0 0.000560958)
(0.0143054 0 0.000571248)
(0.0146948 0 0.000569293)
(0.0151069 0 0.000552305)
(0.0155247 0 0.00051884)
(0.015921 0 0.000470451)
(0.0162575 0 0.000414011)
(0.0164864 0 0.000364613)
(0.0167275 0 0.000288508)
(0 0 0)
(0.00163339 0 2.93857e-05)
(0.00312628 0 5.67779e-05)
(0.00444878 0 8.20499e-05)
(0.00561874 0 0.000105819)
(0.00665229 0 0.000128595)
(0.00756399 0 0.000150799)
(0.0083671 0 0.000172792)
(0.00907372 0 0.000194878)
(0.00969506 0 0.000217319)
(0.0102416 0 0.000240335)
(0.0107231 0 0.000264101)
(0.011149 0 0.000288738)
(0.0115285 0 0.000314301)
(0.0118704 0 0.000340754)
(0.0121836 0 0.000367941)
(0.0124765 0 0.000395545)
(0.0127578 0 0.000423038)
(0.0130357 0 0.000449625)
(0.0133179 0 0.000474187)
(0.0136112 0 0.000495226)
(0.0139207 0 0.000510856)
(0.0142489 0 0.000518833)
(0.014595 0 0.000516706)
(0.0149532 0 0.000502147)
(0.0153119 0 0.000473529)
(0.0156533 0 0.000430866)
(0.0159542 0 0.000377188)
(0.0161894 0 0.000320313)
(0.0163365 0 0.000274494)
(0.0164761 0 0.000216263)
(0 0 0)
(0.00163602 0 3.1056e-05)
(0.00313182 0 5.9979e-05)
(0.00445782 0 8.66135e-05)
(0.00563214 0 0.000111593)
(0.00667109 0 0.000135433)
(0.00758941 0 0.000158556)
(0.00840045 0 0.000181312)
(0.00911646 0 0.000203988)
(0.00974872 0 0.000226817)
(0.0103078 0 0.000249976)
(0.0108034 0 0.000273587)
(0.0112452 0 0.000297702)
(0.011642 0 0.000322291)
(0.0120025 0 0.000347219)
(0.0123352 0 0.000372218)
(0.012648 0 0.00039685)
(0.0129487 0 0.000420475)
(0.0132443 0 0.000442206)
(0.0135407 0 0.000460883)
(0.0138427 0 0.000475063)
(0.0141528 0 0.000483055)
(0.0144705 0 0.00048301)
(0.0147918 0 0.000473126)
(0.015108 0 0.000451976)
(0.0154059 0 0.000419008)
(0.0156678 0 0.00037522)
(0.0158749 0 0.000324044)
(0.0160128 0 0.000272486)
(0.0160811 0 0.000232455)
(0.0161306 0 0.000186555)
(0 0 0)
(0.00163814 0 3.25729e-05)
(0.00313638 0 6.28807e-05)
(0.00446548 0 9.07375e-05)
(0.00564376 0 0.000116789)
(0.00668771 0 0.000141553)
(0.00761218 0 0.00016545)
(0.00843061 0 0.000188817)
(0.00915532 0 0.000211922)
(0.00979761 0 0.00023497)
(0.010368 0 0.0002581)
(0.0108764 0 0.000281385)
(0.011332 0 0.00030482)
(0.0117436 0 0.000328308)
(0.0121196 0 0.000351642)
(0.0124679 0 0.000374478)
(0.0127959 0 0.000396316)
(0.0131102 0 0.000416472)
(0.0134167 0 0.000434062)
(0.0137198 0 0.000448001)
(0.0140224 0 0.000457029)
(0.0143248 0 0.000459785)
(0.0146247 0 0.000454942)
(0.0149159 0 0.00044142)
(0.0151885 0 0.000418688)
(0.0154291 0 0.000387131)
(0.0156215 0 0.000348399)
(0.0157504 0 0.000305606)
(0.0158072 0 0.000263345)
(0.0158032 0 0.000228824)
(0.0157263 0 0.000187091)
(0 0 0)
(0.00163964 0 3.39427e-05)
(0.00313976 0 6.55022e-05)
(0.00447144 0 9.44554e-05)
(0.00565322 0 0.000121451)
(0.0067017 0 0.000147013)
(0.0076318 0 0.000171553)
(0.00845702 0 0.000195397)
(0.00918967 0 0.000218793)
(0.00984107 0 0.00024192)
(0.0104217 0 0.000264885)
(0.0109412 0 0.000287719)
(0.0114087 0 0.000310373)
(0.0118328 0 0.000332701)
(0.0122213 0 0.000354451)
(0.0125817 0 0.000375245)
(0.0129205 0 0.000394564)
(0.0132436 0 0.000411746)
(0.0135555 0 0.00042598)
(0.0138596 0 0.000436336)
(0.014157 0 0.000441819)
(0.014447 0 0.000441464)
(0.0147257 0 0.000434491)
(0.0149866 0 0.000420518)
(0.01522 0 0.000399828)
(0.0154139 0 0.000373658)
(0.0155554 0 0.000344444)
(0.0156333 0 0.000315956)
(0.0156429 0 0.000293261)
(0.0155959 0 0.000283678)
(0.0153097 0 0.000199341)
(0 0 0)
(0.0017216 0 0)
(0.00269886 0 0)
(0.00388011 0 0)
(0.00506395 0 0)
(0.00615933 0 0)
(0.00713054 0 0)
(0.00796889 0 0)
(0.00867823 0 0)
(0.00926744 0 0)
(0.00974677 0 0)
(0.0101258 0 0)
(0.0104126 0 0)
(0.0106135 0 0)
(0.0107332 0 0)
(0.0107746 0 0)
(0.010739 0 0)
(0.0106265 0 0)
(0.0104357 0 0)
(0.010164 0 0)
(0.00980767 0 0)
(0.00936189 0 0)
(0.00882062 0 0)
(0.00817676 0 0)
(0.00742204 0 0)
(0.00654706 0 0)
(0.00554118 0 0)
(0.00439256 0 0)
(0.00308809 0 0)
(0.00161332 0 0)
(0 0 0)
(0.00107267 0 -0.000917995)
(0.00229673 0 -0.000678969)
(0.00317663 0 -0.000577249)
(0.00425961 0 -0.000464466)
(0.00536006 0 -0.000362782)
(0.00638848 0 -0.000278018)
(0.00730725 0 -0.000210059)
(0.00810508 0 -0.000156777)
(0.00878332 0 -0.000115582)
(0.00934874 0 -8.40351e-05)
(0.00980988 0 -6.00424e-05)
(0.010175 0 -4.18974e-05)
(0.0104511 0 -2.8246e-05)
(0.0106438 0 -1.80324e-05)
(0.010757 0 -1.04419e-05)
(0.0107934 0 -4.85089e-06)
(0.0107539 0 -7.84216e-07)
(0.0106383 0 2.11874e-06)
(0.010445 0 4.13095e-06)
(0.0101714 0 5.45844e-06)
(0.00981351 0 6.2562e-06)
(0.00936648 0 6.64022e-06)
(0.00882421 0 6.69663e-06)
(0.00817953 0 6.48855e-06)
(0.00742417 0 6.0612e-06)
(0.00654866 0 5.44572e-06)
(0.00554235 0 4.66204e-06)
(0.00439337 0 3.72098e-06)
(0.00308859 0 2.626e-06)
(0.00161354 0 1.37452e-06)
(0 0 0)
(0.00304638 0 -0.00149341)
(0.00382727 0 -0.00119572)
(0.00448045 0 -0.00103083)
(0.00531535 0 -0.000840611)
(0.00619462 0 -0.000663727)
(0.0070403 0 -0.000513001)
(0.00781343 0 -0.000390208)
(0.00849736 0 -0.000292756)
(0.00908743 0 -0.000216689)
(0.00958495 0 -0.000157981)
(0.00999386 0 -0.000113044)
(0.0103188 0 -7.88759e-05)
(0.0105639 0 -5.30526e-05)
(0.0107326 0 -3.36589e-05)
(0.0108271 0 -1.92013e-05)
(0.0108489 0 -8.52655e-06)
(0.0107979 0 -7.4944e-07)
(0.0106733 0 4.80602e-06)
(0.0104728 0 8.65427e-06)
(0.0101934 0 1.11854e-05)
(0.00983097 0 1.26939e-05)
(0.00938024 0 1.34011e-05)
(0.00883499 0 1.34716e-05)
(0.00818793 0 1.30263e-05)
(0.00743063 0 1.21519e-05)
(0.00655355 0 1.09079e-05)
(0.00554598 0 9.33234e-06)
(0.00439595 0 7.44544e-06)
(0.00309027 0 5.25305e-06)
(0.00161438 0 2.74916e-06)
(0 0 0)
(0.00558517 0 -0.00176529)
(0.00593614 0 -0.00147901)
(0.00632593 0 -0.00129531)
(0.00684701 0 -0.00107423)
(0.00742936 0 -0.000860869)
(0.00801974 0 -0.000673675)
(0.00858363 0 -0.000517635)
(0.00910053 0 -0.000391503)
(0.00955922 0 -0.000291562)
(0.00995424 0 -0.000213462)
(0.0102835 0 -0.000153053)
(0.0105465 0 -0.000106712)
(0.0107435 0 -7.14268e-05)
(0.0108746 0 -4.47613e-05)
(0.0109398 0 -2.47814e-05)
(0.0109384 0 -9.97147e-06)
(0.0108692 0 8.46358e-07)
(0.01073 0 8.5812e-06)
(0.010518 0 1.39312e-05)
(0.0102294 0 1.74299e-05)
(0.00985946 0 1.94828e-05)
(0.00940274 0 2.03963e-05)
(0.00885266 0 2.03994e-05)
(0.00820168 0 1.96605e-05)
(0.00744122 0 1.83006e-05)
(0.00656159 0 1.64028e-05)
(0.00555193 0 1.40192e-05)
(0.00440018 0 1.1177e-05)
(0.00309302 0 7.88237e-06)
(0.00161576 0 4.1242e-06)
(0 0 0)
(0.00828729 0 -0.00177342)
(0.00828091 0 -0.00153493)
(0.008416 0 -0.00136424)
(0.00862096 0 -0.00115164)
(0.00889027 0 -0.000938746)
(0.0092008 0 -0.000745771)
(0.00952794 0 -0.000580376)
(0.00985086 0 -0.000443503)
(0.0101536 0 -0.000332874)
(0.0104247 0 -0.000244948)
(0.0106561 0 -0.000175953)
(0.010842 0 -0.000122373)
(0.0109783 0 -8.11505e-05)
(0.0110615 0 -4.97263e-05)
(0.0110889 0 -2.60151e-05)
(0.0110575 0 -8.34561e-06)
(0.0109644 0 4.60451e-06)
(0.0108061 0 1.3872e-05)
(0.0105787 0 2.02636e-05)
(0.0102778 0 2.44028e-05)
(0.00989793 0 2.67684e-05)
(0.00943316 0 2.77245e-05)
(0.00887656 0 2.75452e-05)
(0.0082203 0 2.64329e-05)
(0.00745556 0 2.45331e-05)
(0.00657246 0 2.19452e-05)
(0.00555997 0 1.87305e-05)
(0.00440588 0 1.49193e-05)
(0.00309672 0 1.05152e-05)
(0.0016176 0 5.49993e-06)
(0 0 0)
(0.010858 0 -0.00157734)
(0.0105753 0 -0.00140226)
(0.0104929 0 -0.00126495)
(0.0104218 0 -0.00108825)
(0.0104072 0 -0.000904189)
(0.010454 0 -0.000730975)
(0.0105502 0 -0.000577469)
(0.0106779 0 -0.000446675)
(0.0108195 0 -0.000338261)
(0.0109594 0 -0.000250208)
(0.011085 0 -0.000179815)
(0.011186 0 -0.000124274)
(0.0112543 0 -8.09634e-05)
(0.0112832 0 -4.75759e-05)
(0.011267 0 -2.21564e-05)
(0.0112007 0 -3.08836e-06)
(0.0110794 0 1.0941e-05)
(0.0108985 0 2.09832e-05)
(0.0106528 0 2.7872e-05)
(0.010337 0 3.22616e-05)
(0.00994509 0 3.46609e-05)
(0.00947051 0 3.54613e-05)
(0.00890593 0 3.49596e-05)