/*--------------------------------*- C++ -*----------------------------------*\
| =========                 |                                                 |
| \\      /  F ield         | OpenFOAM: The Open Source CFD Toolbox           |
|  \\    /   O peration     | Version:  dev                                   |
|   \\  /    A nd           | Web:      www.OpenFOAM.org                      |
|    \\/     M anipulation  |                                                 |
\*---------------------------------------------------------------------------*/
FoamFile
{
    version     2.0;
    format      ascii;
    class       volVectorField;
    location    "0.36";
    object      U;
}
// * * * * * * * * * * * * * * * * * * * * * * * * * * * * * * * * * * * * * //

dimensions      [0 1 -1 0 0 0 0];

internalField   nonuniform List<vector> 
465
(
(9.84905 0 5.31081)
(10.2066 0 5.19709)
(10.3653 0 5.64267)
(10.5683 0 6.11181)
(10.5325 -3.93786e-21 5.0467)
(10.7219 4.59065e-21 5.44884)
(10.9537 -1.42577e-20 5.86508)
(11.2343 1.7993e-20 6.29076)
(11.5702 0 6.71901)
(10.8243 0 4.86629)
(11.0356 1.8273e-20 5.22533)
(11.286 -1.45841e-20 5.5909)
(11.5797 1.12169e-20 5.95797)
(11.9208 -2.22688e-21 6.31992)
(12.3119 -9.27836e-21 6.6685)
(12.7547 -3.97321e-21 6.99368)
(11.0807 1.1171e-21 4.66217)
(11.3065 1.447e-20 4.97977)
(11.5673 1.18357e-20 5.29813)
(11.8658 -2.22746e-20 5.61241)
(12.2041 8.53159e-22 5.9167)
(12.5831 9.43938e-21 6.20413)
(13.0028 0 6.46699)
(13.4558 -2.46412e-21 6.69724)
(13.999 2.52546e-21 6.88869)
(11.3018 0 4.44005)
(11.5359 0 4.71874)
(11.8007 -1.08953e-20 4.99396)
(12.0978 9.81198e-21 5.26133)
(12.4278 1.12773e-21 5.51577)
(12.7906 -1.36131e-20 5.75167)
(13.1852 1.14179e-20 5.96308)
(13.6047 -3.34485e-22 6.14391)
(14.0988 2.21708e-21 6.29027)
(11.4886 1.31859e-20 4.20498)
(11.726 -1.95489e-20 4.44775)
(11.9898 2.28097e-20 4.68409)
(12.2808 1.23e-21 4.91016)
(12.5988 0 5.12173)
(12.943 8.40054e-22 5.31428)
(13.3117 1.21403e-21 5.48329)
(13.6989 0 5.62427)
(14.1483 1.09763e-22 5.73472)
(11.6428 2.45628e-20 3.9613)
(11.8794 1.80585e-20 4.17138)
(12.1385 -2.4019e-21 4.37305)
(12.4202 -1.91523e-20 4.56307)
(12.7237 0 4.73796)
(13.0479 0 4.8942)
(13.3908 -5.94306e-22 5.02834)
(13.7473 -1.99896e-22 5.13712)
(14.1559 -6.84037e-23 5.21892)
(11.7664 2.11628e-20 3.71272)
(11.9992 -2.02747e-20 3.89335)
(12.2508 0 4.06441)
(12.5209 1.45432e-20 4.22317)
(12.8085 -2.60183e-21 4.36686)
(13.1122 -2.33781e-20 4.49274)
(13.43 1.0847e-20 4.59823)
(13.7575 1.96157e-22 4.68097)
(14.1289 1.19452e-22 4.73995)
(11.8621 -1.85884e-20 3.4623)
(12.0886 6.09244e-22 3.61669)
(12.3308 3.64746e-20 3.76091)
(12.5879 -1.69464e-20 3.89274)
(12.8588 0 4.01)
(13.142 -7.38019e-22 4.11059)
(13.4357 0 4.1926)
(13.7361 0 4.25434)
(14.0734 -2.38158e-21 4.29523)
(11.9325 -4.50352e-23 3.21259)
(12.1511 0 3.34376)
(12.3825 1.37298e-20 3.46461)
(12.6258 -2.83572e-20 3.57339)
(12.8798 2.66837e-20 3.66837)
(13.143 -1.25072e-20 3.74797)
(13.4137 -2.94582e-22 3.81081)
(13.6888 5.88698e-21 3.85571)
(13.9952 -6.126e-21 3.88237)
(11.782 2.01345e-20 2.84613)
(11.9806 1.76667e-20 2.9656)
(12.1901 -1.90972e-20 3.07638)
(12.4099 -1.40785e-20 3.17703)
(12.6391 1.44474e-20 3.26616)
(12.8763 0 3.34246)
(13.1203 0 3.40475)
(13.3694 2.88867e-22 3.45205)
(13.621 0 3.48353)
(13.8992 0 3.49914)
(11.8183 -1.13743e-21 2.62132)
(12.0091 1.46202e-20 2.72289)
(12.2089 -1.60841e-20 2.81589)
(12.4168 1.44455e-20 2.89919)
(12.6318 -2.4849e-21 2.97169)
(12.8527 -1.70354e-21 3.03241)
(13.0784 -2.22394e-20 3.08051)
(13.3074 1.02408e-20 3.11529)
(13.5374 -6.66133e-21 3.13622)
(13.7899 6.78023e-21 3.14338)
(11.8386 3.35664e-21 2.39979)
(12.0211 1.83187e-20 2.48563)
(12.2108 -9.69366e-22 2.56323)
(12.4067 -1.38779e-20 2.63169)
(12.6079 1.49828e-20 2.6902)
(12.8133 0 2.73804)
(13.0217 3.36477e-22 2.77459)
(13.232 0 2.7994)
(13.4422 -6.97579e-21 2.81215)
(13.6717 7.10234e-21 2.81299)
(11.8454 -1.05885e-21 2.18251)
(12.0194 1.4327e-20 2.25461)
(12.1989 -1.37257e-20 2.31894)
(12.383 0 2.37482)
(12.571 -4.03319e-22 2.42164)
(12.7617 1.14911e-20 2.45888)
(12.9542 -1.16627e-20 2.48613)
(13.1473 0 2.5031)
(13.3395 1.44857e-20 2.50963)
(13.5481 -2.60309e-20 2.50593)
(11.8413 3.18982e-20 1.97014)
(12.0067 -1.4783e-20 2.0303)
(12.1762 -9.09774e-22 2.08327)
(12.3491 -4.20027e-22 2.12853)
(12.5245 2.4289e-20 2.16565)
(12.7015 -2.50706e-20 2.19426)
(12.8793 -1.929e-20 2.21411)
(13.0567 1.99852e-20 2.22504)
(13.2327 0 2.22697)
(13.4226 -1.04753e-22 2.22016)
(11.8287 1.57499e-20 1.76303)
(11.9856 0 1.81288)
(12.1455 -2.66843e-20 1.85617)
(12.3077 2.76141e-20 1.89253)
(12.4715 2.28969e-20 1.92166)
(12.6359 -2.33711e-20 1.94332)
(12.8002 -1.945e-20 1.95736)
(12.9636 1.98198e-20 1.96371)
(13.1249 -1.3095e-22 1.96238)
(13.2983 0 1.95363)
(11.8097 -8.81448e-22 1.56133)
(11.9585 1.26661e-20 1.60229)
(12.1095 -2.72996e-20 1.63738)
(12.2618 -3.93814e-22 1.66634)
(12.4148 -2.27063e-20 1.68894)
(12.5678 2.31484e-20 1.70506)
(12.72 -3.19326e-22 1.71463)
(12.8707 0 1.71763)
(13.019 1.28298e-22 1.71412)
(13.1778 -1.35154e-20 1.70437)
(11.7865 1.41472e-20 1.36481)
(11.9278 -1.39825e-20 1.39815)
(12.0705 -2.53797e-20 1.42631)
(12.2138 2.62336e-20 1.44912)
(12.3571 2.29e-20 1.46645)
(12.4997 -2.26096e-20 1.47822)
(12.6412 1.93908e-20 1.48441)
(12.7807 -1.94471e-20 1.48506)
(12.9176 0 1.48026)
(13.0637 -1.37594e-20 1.47026)
(11.7612 2.68139e-20 1.17332)
(11.8956 -1.34996e-20 1.20013)
(12.0307 -1.25018e-20 1.22247)
(12.1659 1.14334e-22 1.24021)
(12.3005 3.304e-20 1.2533)
(12.4341 -2.19344e-20 1.2617)
(12.5661 0 1.26544)
(12.6958 0 1.26456)
(12.8228 -1.32428e-22 1.25918)
(12.9579 -1.4063e-20 1.24953)
(11.7355 -2.63312e-20 0.985859)
(11.8638 1.30586e-20 1.00706)
(11.9922 -1.13834e-20 1.02449)
(12.1202 2.31983e-20 1.03808)
(12.2473 -1.14188e-20 1.04779)
(12.373 -1.62269e-22 1.05364)
(12.4968 9.16242e-21 1.05565)
(12.6182 -9.63995e-21 1.0539)
(12.7368 1.95637e-22 1.0485)
(12.8625 6.06246e-23 1.03964)
(11.7111 -1.34939e-20 0.802621)
(11.834 3.83241e-22 0.818979)
(11.9567 0 0.832261)
(12.0787 1.12725e-20 0.842429)
(12.1994 -2.15018e-20 0.849476)
(12.3184 6.24624e-22 0.853422)
(12.4353 1.01302e-20 0.854315)
(12.5497 1.39429e-22 0.852227)
(12.6612 -6.45875e-23 0.847253)
(12.7791 7.09626e-21 0.839572)
(11.6898 1.0469e-21 0.620868)
(11.8083 1.20983e-20 0.633019)
(11.9262 -1.1144e-20 0.642776)
(12.0431 1.15404e-20 0.650122)
(12.1586 1.64132e-22 0.655063)
(12.2721 1.55756e-22 0.657625)
(12.3835 7.37554e-23 0.657855)
(12.4922 8.47255e-21 0.655816)
(12.598 -1.65239e-20 0.651588)
(12.7096 8.12824e-21 0.645313)
(11.6728 -1.17117e-20 0.442702)
(11.7878 1.15873e-20 0.451108)
(11.902 1.08654e-20 0.457805)
(12.015 -1.1253e-20 0.462787)
(12.1264 -1.60523e-22 0.466064)
(12.2357 0 0.467661)
(12.3427 2.36316e-25 0.467616)
(12.447 8.35963e-21 0.465978)
(12.5484 -8.55632e-21 0.462807)
(12.6551 -7.28166e-21 0.458208)
(11.6616 6.00716e-21 0.261455)
(11.774 1.77395e-22 0.266447)
(11.8855 5.30061e-21 0.270396)
(11.9957 -3.26632e-22 0.273304)
(12.1041 -5.14432e-21 0.275181)
(12.2105 -4.61227e-21 0.276047)
(12.3144 4.66884e-21 0.27593)
(12.4157 4.07674e-21 0.274865)
(12.514 -4.16003e-21 0.272896)
(12.6174 5.83912e-23 0.270101)
(11.4641 2.93671e-21 0.0844323)
(11.5702 -2.69545e-21 0.0862787)
(11.6756 5.34609e-21 0.0877657)
(11.7798 -2.64829e-21 0.0888926)
(11.8824 2.3409e-21 0.0896625)
(11.9831 -2.42725e-21 0.0900817)
(12.0815 -3.47692e-23 0.0901597)
(12.1774 3.28435e-23 0.0899091)
(12.2704 0 0.0893432)
(12.3683 0 0.0884986)
(14.308 -1.2711e-20 6.95825)
(14.3776 -3.92502e-21 6.34207)
(14.6446 2.95436e-22 6.38113)
(14.8718 -1.81892e-20 6.40875)
(14.4002 6.13967e-21 5.77217)
(14.641 -1.65888e-20 5.79875)
(14.8456 2.44173e-20 5.8157)
(14.3837 3.36736e-21 5.24489)
(14.6009 -3.38663e-21 5.26146)
(14.7852 -1.39616e-22 5.26976)
(14.3348 9.66463e-22 4.75682)
(14.5309 3.31788e-21 4.76553)
(14.697 -4.13348e-21 4.7671)
(14.2597 4.16879e-21 4.30497)
(14.4367 -1.21753e-23 4.3076)
(14.5866 -3.38615e-23 4.30406)
(14.1637 -2.9953e-21 3.88659)
(14.3235 2.9771e-21 3.88464)
(14.4587 0 3.87733)
(14.0516 0 3.49918)
(14.1959 -6.7429e-24 3.49386)
(14.3179 -5.89507e-22 3.4839)
(13.9279 6.02615e-21 3.14034)
(14.0583 -5.97416e-21 3.13266)
(14.1685 1.56061e-23 3.12097)
(13.7966 -7.2805e-21 2.80779)
(13.9146 1.6868e-21 2.79858)
(14.0141 5.49871e-21 2.78591)
(13.6614 3.2609e-21 2.49931)
(13.7682 1.65862e-20 2.48923)
(13.8583 1.09711e-20 2.47619)
(13.5255 0 2.21272)
(13.6224 -3.07343e-23 2.20232)
(13.7041 1.33376e-20 2.18939)
(13.392 1.98431e-20 1.94585)
(13.4802 -1.98878e-20 1.93556)
(13.5544 -1.53273e-20 1.92313)
(13.2635 4.4444e-20 1.69665)
(13.3439 -2.09758e-21 1.68681)
(13.4117 -1.87811e-20 1.67517)
(13.1423 2.4136e-20 1.4629)
(13.2161 -1.97103e-23 1.45376)
(13.2782 -3.56684e-23 1.44313)
(13.0304 4.74612e-20 1.24277)
(13.0985 -2.27175e-20 1.23454)
(13.1557 0 1.22508)
(12.9299 -2.40069e-23 1.03365)
(12.9931 -2.13282e-23 1.02647)
(13.0463 0 1.0183)
(12.8422 -1.26134e-20 0.834503)
(12.9014 0 0.8285)
(12.9512 0 0.821709)
(12.7694 1.18885e-20 0.641241)
(12.8253 -1.18531e-20 0.636461)
(12.8723 0 0.63109)
(12.7123 1.2607e-20 0.455249)
(12.7658 -2.22102e-23 0.451786)
(12.8108 0 0.447906)
(12.6727 0 0.268241)
(12.7244 0 0.266023)
(12.7678 -5.30876e-24 0.263544)
(12.4207 0 0.0878632)
(12.4696 -2.76133e-21 0.0870665)
(12.5107 1.41345e-22 0.0861791)
(15.2906 -4.41439e-21 6.4297)
(15.2233 -7.93812e-21 5.8243)
(15.6347 -2.33961e-22 5.79209)
(16.0959 3.0117e-22 5.70578)
(16.561 0 5.55933)
(15.1246 8.99328e-21 5.26555)
(15.4954 -8.91786e-21 5.2296)
(15.9161 0 5.15068)
(16.3486 1.93297e-20 5.02251)
(16.7713 3.83135e-21 4.84249)
(17.1779 -4.8691e-20 4.60907)
(15.0018 -6.86205e-21 4.75221)
(15.3341 6.74529e-21 4.71113)
(15.712 -1.53892e-22 4.63458)
(16.1037 1.60573e-20 4.51686)
(16.4909 3.26893e-21 4.35523)
(16.8681 -1.84997e-20 4.14757)
(17.2315 -2.44327e-20 3.89207)
(17.5755 2.42212e-20 3.58752)
(14.8604 1.14243e-22 4.28111)
(15.1575 -1.07126e-22 4.23591)
(15.4951 1.51353e-22 4.16072)
(15.8458 1.98435e-23 4.05064)
(16.1936 1.53842e-20 3.90311)
(16.5341 -1.50507e-20 3.71612)
(16.864 0 3.48782)
(17.178 2.16142e-20 3.21685)
(17.4697 -4.60525e-20 2.90267)
(14.7047 -4.34183e-23 3.84872)
(14.9705 0 3.80101)
(15.2715 -8.47719e-23 3.7277)
(15.5841 7.76633e-23 3.62458)
(15.8942 4.85667e-23 3.48944)
(16.1979 0 3.32053)
(16.4925 0 3.11621)
(16.7734 1.87135e-20 2.87526)
(17.0348 -1.80599e-20 2.59715)
(14.5392 3.39159e-22 3.45168)
(14.777 0 3.40302)
(15.0455 5.4663e-23 3.33244)
(15.3239 0 3.23636)
(15.5996 9.74394e-21 3.11292)
(15.8692 -9.54186e-21 2.96064)
(16.1307 1.34489e-20 2.77814)
(16.3799 1.72303e-21 2.56441)
(16.6119 -1.48126e-20 2.31901)
(14.3676 -2.1076e-22 3.08683)
(14.5806 2.06237e-22 3.03854)
(14.8203 2.8135e-23 2.97152)
(15.0683 5.74629e-21 2.88271)
(15.3135 1.92178e-21 2.77056)
(15.5529 1.85159e-21 2.63386)
(15.7846 1.84702e-21 2.47149)
(16.0053 -1.02272e-20 2.2826)
(16.2108 -1.83286e-22 2.06685)
(14.1934 3.21967e-23 2.75121)
(14.3845 5.48843e-24 2.70437)
(14.5988 2.32017e-21 2.64155)
(14.8201 -2.29218e-21 2.56018)
(15.0385 3.9675e-24 2.45897)
(15.2512 -7.12679e-21 2.33694)
(15.4569 6.91355e-21 2.19317)
(15.6527 -1.00194e-20 2.02697)
(15.8349 2.09017e-20 1.83808)
(14.0201 -6.33033e-21 2.44202)
(14.1917 -1.82548e-23 2.39747)
(14.3838 0 2.33934)
(14.5817 -4.75976e-24 2.26546)
(14.7766 -7.98949e-21 2.17479)
(14.9662 7.82172e-21 2.06653)
(15.1492 4.07758e-23 1.93994)
(15.3233 0 1.79447)
(15.4855 0 1.62987)
(13.8504 -7.65068e-21 2.15659)
(14.005 2.83887e-21 2.11497)
(14.1776 -2.7671e-21 2.06184)
(14.3551 -4.72012e-24 1.99543)
(14.5296 5.23292e-21 1.91486)
(14.6991 -5.12573e-21 1.8195)
(14.8626 -1.05624e-23 1.70875)
(15.0182 1.21932e-20 1.58216)
(15.1631 -1.18776e-20 1.43952)
(13.6871 1.54932e-20 1.89235)
(13.8268 -2.18636e-21 1.85411)
(13.9824 -2.39189e-21 1.80619)
(14.1423 -1.33384e-21 1.74711)
(14.2992 2.36926e-21 1.67616)
(14.4514 -2.84351e-21 1.59285)
(14.5981 -2.88909e-23 1.49668)
(14.7378 9.09508e-21 1.38729)
(14.8681 -1.99405e-20 1.26449)
(13.5325 0 1.64689)
(13.6593 2.38574e-23 1.61235)
(13.8002 0 1.56972)
(13.9448 4.32005e-24 1.51778)
(14.0866 -1.23245e-24 1.45596)
(14.2241 2.98754e-21 1.38388)
(14.3565 -2.94448e-21 1.30112)
(14.4827 6.65363e-21 1.2074)
(14.6006 1.77485e-21 1.10253)
(13.3886 0 1.41769)
(13.5044 3.21575e-23 1.38705)
(13.6327 0 1.34972)
(13.7643 -2.63841e-21 1.30469)
(13.8932 2.58424e-21 1.25151)
(14.0181 0 1.18987)
(14.1386 1.70163e-23 1.11945)
(14.2534 -4.56529e-21 1.04)
(14.361 4.4975e-21 0.95137)
(13.2574 4.14817e-23 1.20274)
(13.3637 -1.40414e-23 1.17612)
(13.4814 -5.72639e-21 1.14403)
(13.602 5.62e-21 1.10565)
(13.7201 1.98115e-21 1.06063)
(13.8344 -2.18394e-21 1.00873)
(13.9448 1.62591e-21 0.949678)
(14.0501 -1.37259e-21 0.883275)
(14.1491 3.47684e-23 0.809389)
(13.1405 -4.06222e-23 0.999192)
(13.2389 4.17966e-21 0.976646)
(13.3477 -4.09812e-21 0.949699)
(13.4591 0 0.917708)
(13.5681 0 0.880394)
(13.6738 7.08966e-22 0.837564)
(13.7758 -6.93282e-22 0.789017)
(13.8734 -1.03646e-23 0.734576)
(13.9653 0 0.674128)
(13.0394 0 0.805955)
(13.1312 -1.81235e-23 0.787504)
(13.2327 3.5758e-21 0.765609)
(13.3366 -3.5096e-21 0.739772)
(13.4383 0 0.709775)
(13.5369 0 0.675472)
(13.6322 -4.52924e-22 0.636707)
(13.7235 4.48254e-22 0.593334)
(13.8098 8.46746e-22 0.545259)
(12.9556 -5.34667e-21 0.618728)
(13.0423 5.24926e-21 0.604346)
(13.1379 0 0.58738)
(13.2358 9.78229e-26 0.567454)
(13.3317 0 0.544409)
(13.4247 0 0.518135)
(13.5147 8.33293e-22 0.488514)
(13.6011 -6.31484e-22 0.455433)
(13.6829 2.01243e-22 0.418812)
(12.8904 -2.20323e-23 0.439011)
(12.9731 -3.11268e-25 0.428741)
(13.0644 3.94131e-21 0.416676)
(13.1578 -3.86022e-21 0.40254)
(13.2493 2.45895e-21 0.386225)
(13.3381 -2.40573e-21 0.367662)
(13.424 1.11706e-21 0.346766)
(13.5067 -1.08573e-21 0.323455)
(13.5853 0 0.297668)
(12.8448 0 0.258013)
(12.9248 -2.36319e-21 0.251837)
(13.0129 2.31921e-21 0.244614)
(13.1031 0 0.236128)
(13.1915 -2.73337e-24 0.226328)
(13.2773 9.55289e-22 0.215187)
(13.3604 -2.90377e-22 0.202657)
(13.4404 -6.28369e-22 0.188684)
(13.5166 0 0.173229)
(12.5833 1.49268e-21 0.0843015)
(12.6585 -1.17485e-21 0.0823101)
(12.7413 1.1554e-21 0.0799642)
(12.8261 -8.23426e-22 0.0771643)
(12.909 8.06448e-22 0.0738984)
(12.9893 0 0.0701599)
(13.0669 -3.10725e-24 0.0659291)
(13.1413 -3.91582e-24 0.061183)
(13.2117 0 0.0559026)
)
;

boundaryField
{
    inlet
    {
        type            fixedValue;
        value           nonuniform 0();
    }
    outlet
    {
        type            zeroGradient;
    }
    flap
    {
        type            movingWallVelocity;
        value           nonuniform 0();
    }
    upperWall
    {
        type            noSlip;
    }
    lowerWall
    {
        type            noSlip;
    }
    frontAndBack
    {
        type            empty;
    }
    procBoundary1to0
    {
        type            processor;
        value           nonuniform List<vector> 
18
(
(11.6516 0 3.2999)
(11.7273 0 3.07288)
(11.7273 0 3.07288)
(11.595 1.97615e-20 2.7194)
(11.6369 -1.18857e-21 2.51236)
(11.6638 1.89201e-20 2.30666)
(11.6777 0 2.10339)
(11.6809 3.32236e-20 1.90336)
(11.6755 1.54438e-20 1.70707)
(11.6636 -1.57614e-20 1.51481)
(11.6472 -1.50201e-20 1.32652)
(11.628 -2.91514e-22 1.1422)
(11.6079 -1.24099e-20 0.960993)
(11.5885 -1.32489e-20 0.783253)
(11.5712 1.28431e-20 0.606363)
(11.5576 -3.8891e-22 0.432607)
(11.5487 6.17943e-21 0.255429)
(11.3577 -1.42483e-22 0.0822306)
)
;
    }
    procBoundary1to2
    {
        type            processor;
        value           nonuniform List<vector> 
17
(
(17.7323 -2.53213e-20 2.5457)
(17.2704 2.1712e-20 2.28226)
(16.8212 5.8689e-22 2.04227)
(16.3963 -1.47908e-20 1.82453)
(15.9995 1.08425e-20 1.62672)
(15.6322 2.63978e-22 1.44633)
(15.2945 7.44167e-21 1.28097)
(14.9866 4.19176e-23 1.12838)
(14.7083 8.32776e-21 0.986587)
(14.4595 0 0.853578)
(14.2402 0 0.728011)
(14.0503 2.01729e-21 0.607647)
(13.8899 2.2732e-21 0.492445)
(13.7592 3.88809e-22 0.378616)
(13.6587 1.80901e-24 0.269371)
(13.5879 -1.83065e-22 0.156268)
(13.2772 0 0.0500754)
)
;
    }
    procBoundary1to3
    {
        type            processor;
        value           nonuniform List<vector> 9((9.7656 1.62661e-20 4.85776) (10.0844 -2.59125e-21 4.77672) (10.3794 -4.45492e-21 4.66159) (10.6475 1.30137e-20 4.51738) (10.8867 -4.21805e-21 4.34911) (11.0964 -3.71685e-21 4.16155) (11.2767 1.29611e-20 3.95913) (11.4283 3.70515e-20 3.7458) (11.5526 0 3.52505));
    }
    procBoundary1to4
    {
        type            processor;
        value           nonuniform List<vector> 
30
(
(9.4644 1.1204e-20 5.38098)
(9.96737 0 5.79833)
(9.96737 0 5.79833)
(10.1299 0 6.3208)
(10.8247 1.16269e-20 6.60096)
(10.8247 1.16269e-20 6.60096)
(11.1439 0 7.10402)
(11.9674 0 7.14046)
(11.9674 0 7.14046)
(12.4296 -7.19165e-22 7.54194)
(13.2416 -4.04108e-21 7.28502)
(13.2416 -4.04108e-21 7.28502)
(13.8388 -9.8286e-23 7.53256)
(14.1814 2.07665e-22 7.62362)
(14.604 5.99356e-21 7.01239)
(14.604 5.99356e-21 7.01239)
(14.8559 5.16961e-21 7.05216)
(15.3149 -3.27995e-20 7.07719)
(15.7395 -1.48859e-20 6.39341)
(15.7395 -1.48859e-20 6.39341)
(16.2287 3.06102e-22 6.28601)
(16.7027 0 6.10459)
(17.0046 -1.83865e-22 5.35164)
(17.0046 -1.83865e-22 5.35164)
(17.4204 0 5.0831)
(17.5647 -9.90719e-23 4.32113)
(17.5647 -9.90719e-23 4.32113)
(17.9264 2.57145e-22 3.97828)
(17.8935 2.89627e-20 3.23356)
(17.8935 2.89627e-20 3.23356)
)
;
    }
}


// ************************************************************************* //
