/*--------------------------------*- C++ -*----------------------------------*\
| =========                 |                                                 |
| \\      /  F ield         | OpenFOAM: The Open Source CFD Toolbox           |
|  \\    /   O peration     | Version:  dev                                   |
|   \\  /    A nd           | Web:      www.OpenFOAM.org                      |
|    \\/     M anipulation  |                                                 |
\*---------------------------------------------------------------------------*/
FoamFile
{
    version     2.0;
    format      ascii;
    class       volVectorField;
    location    "0.61";
    object      U;
}
// * * * * * * * * * * * * * * * * * * * * * * * * * * * * * * * * * * * * * //

dimensions      [0 1 -1 0 0 0 0];

internalField   nonuniform List<vector> 
2790
(
(9.93259 0 0.0192131)
(9.86523 0 0.027427)
(9.76997 0 0.0331184)
(9.64891 0 0.0389318)
(9.50967 0 0.0449805)
(9.35474 3.46435e-21 0.0512451)
(9.1834 -9.55025e-21 0.0578578)
(8.99453 1.49418e-20 0.0649751)
(8.78721 -2.07261e-20 0.0727336)
(8.56053 1.07411e-20 0.0812559)
(8.31342 0 0.090664)
(8.04463 0 0.10109)
(7.7528 0 0.112675)
(7.43647 3.25687e-20 0.125562)
(7.09415 -6.31796e-21 0.139889)
(6.72436 -3.5337e-20 0.155786)
(6.32578 1.49307e-20 0.173359)
(5.89729 -6.3309e-20 0.192669)
(5.4382 1.31816e-19 0.213704)
(4.94841 -6.86249e-20 0.236354)
(4.42868 -1.46357e-19 0.26036)
(3.88089 -1.51118e-19 0.285269)
(3.30834 -1.6033e-19 0.310356)
(2.71608 1.23829e-19 0.334489)
(2.11128 4.3296e-20 0.355778)
(1.50349 -4.48955e-20 0.370295)
(0.904658 -4.63715e-19 0.366586)
(0.330119 3.78814e-19 0.305602)
(-0.155609 9.59943e-20 0.0589992)
(-0.0458882 -6.9751e-19 -0.170641)
(9.9922 0 0.0386246)
(9.98064 7.94014e-21 0.057673)
(9.94333 1.23244e-20 0.0719784)
(9.87886 -1.6996e-20 0.0870714)
(9.79373 4.37738e-21 0.103202)
(9.69052 1.14322e-21 0.120251)
(9.56875 0 0.138468)
(9.42742 2.11234e-20 0.158194)
(9.26568 -2.0314e-20 0.179734)
(9.0827 -1.34072e-21 0.20336)
(8.87746 -2.79819e-21 0.229339)
(8.64876 5.30259e-20 0.257958)
(8.39525 -4.85771e-20 0.28951)
(8.11548 -6.40597e-21 0.324275)
(7.80792 6.70926e-21 0.362489)
(7.47103 7.03154e-21 0.404326)
(7.10335 1.46811e-20 0.449852)
(6.70357 -3.0862e-20 0.498952)
(6.27074 0 0.551252)
(5.80441 -2.74363e-19 0.606031)
(5.30491 5.34805e-19 0.6621)
(4.77361 3.7094e-19 0.717663)
(4.2133 0 0.770151)
(3.62858 1.22028e-19 0.815955)
(3.02652 6.3831e-19 0.849887)
(2.41739 -6.55854e-19 0.863803)
(1.81536 -6.35245e-19 0.842581)
(1.23431 7.41403e-19 0.75465)
(0.703511 -1.60818e-18 0.549596)
(0.362873 3.06415e-18 0.129278)
(9.98929 0 0.0408902)
(9.97491 -1.58649e-20 0.0684901)
(9.93972 -4.07358e-21 0.0921238)
(9.87993 1.31961e-23 0.116995)
(9.80079 2.2049e-20 0.143664)
(9.70501 1.55072e-22 0.17208)
(9.59239 -1.88701e-20 0.202569)
(9.46207 -1.99285e-24 0.235611)
(9.31337 -1.60421e-22 0.271677)
(9.14561 1.33738e-21 0.311205)
(8.95797 9.2644e-20 0.354637)
(8.74941 -9.82803e-20 0.402451)
(8.51878 0 0.455148)
(8.26481 0 0.513209)
(7.9861 2.01378e-19 0.577066)
(7.68118 -2.20939e-19 0.647057)
(7.34858 -2.92101e-20 0.723364)
(6.98685 6.10711e-20 0.805887)
(6.5947 5.16354e-19 0.894115)
(6.1711 -1.00548e-18 0.986982)
(5.71551 2.63746e-20 1.08265)
(5.22808 -6.5582e-19 1.17825)
(4.70993 -6.16428e-19 1.26958)
(4.16349 7.13545e-19 1.35069)
(3.5928 0 1.41305)
(3.00345 0 1.44421)
(2.40169 -1.76924e-19 1.42495)
(1.78955 1.45945e-18 1.32499)
(1.14965 -1.48603e-18 1.11379)
(0.625836 2.74333e-18 0.764744)
(9.98748 1.53775e-20 0.0456588)
(9.97077 7.9241e-21 0.0833938)
(9.93542 8.18288e-21 0.117727)
(9.87678 -8.46752e-21 0.152723)
(9.79921 -8.76041e-21 0.189519)
(9.70542 -3.65569e-20 0.228442)
(9.59542 4.23435e-20 0.269995)
(9.46852 -3.68096e-21 0.314814)
(9.32419 -8.22606e-20 0.363545)
(9.16197 -3.7462e-21 0.416791)
(8.98125 8.81597e-20 0.475169)
(8.7813 0 0.539349)
(8.56127 0 0.610024)
(8.32022 2.03529e-19 0.687879)
(8.05715 -1.96115e-19 0.773552)
(7.77093 0 0.867587)
(7.46043 -2.87576e-20 0.970366)
(7.12445 -5.17135e-19 1.08195)
(6.76173 1.01e-18 1.20189)
(6.37107 -5.89942e-19 1.32909)
(5.95139 5.55895e-19 1.46147)
(5.50178 1.65996e-18 1.5956)
(5.02165 -2.40108e-18 1.72637)
(4.5108 1.08531e-18 1.84642)
(3.96926 0 1.94543)
(3.39668 0 2.009)
(2.79102 1.56634e-18 2.01775)
(2.14642 -1.42373e-18 1.94627)
(1.42802 0 1.77796)
(0.773769 1.93646e-19 1.49674)
(9.98656 -1.53709e-20 0.0519595)
(9.96854 1.58178e-20 0.0984275)
(9.93302 -1.62953e-20 0.142127)
(9.87534 0 0.186279)
(9.79928 1.90534e-23 0.232429)
(9.7074 9.05556e-21 0.281276)
(9.59981 -4.71161e-21 0.333479)
(9.47582 -7.86691e-20 0.38977)
(9.33499 -9.38915e-22 0.450878)
(9.17701 1.72064e-19 0.517509)
(9.00138 -2.65273e-19 0.590404)
(8.80752 1.94085e-19 0.670357)
(8.59476 -1.81286e-19 0.758183)
(8.36244 4.00339e-19 0.854689)
(8.10985 -2.07326e-19 0.960657)
(7.83615 -2.71841e-20 1.07678)
(7.54053 2.85757e-20 1.20361)
(7.22215 0 1.34139)
(6.87989 -6.18975e-20 1.48987)
(6.51256 0 1.64805)
(6.11881 -1.09119e-18 1.81394)
(5.69702 -1.19032e-18 1.98407)
(5.24523 0 2.15309)
(4.761 1.22808e-18 2.31334)
(4.241 -1.26001e-18 2.45418)
(3.68038 2.63463e-18 2.56139)
(3.07171 -5.41925e-18 2.61723)
(2.40656 2.60823e-18 2.60071)
(1.648 0 2.50049)
(0.906914 1.89545e-19 2.30849)
(9.98608 0 0.0589744)
(9.96746 0 0.113495)
(9.93209 -1.62448e-20 0.166069)
(9.87558 0 0.219299)
(9.80136 2.28788e-23 0.274789)
(9.7118 -8.16133e-20 0.333478)
(9.60702 1.49995e-19 0.396183)
(9.48634 -1.5332e-19 0.463704)
(9.34942 -9.078e-22 0.536818)
(9.19604 8.36665e-20 0.616333)
(9.02574 -5.46052e-21 0.703124)
(8.83801 -1.9514e-19 0.798104)
(8.63231 3.56476e-19 0.902175)
(8.40809 -1.96702e-19 1.01624)
(8.16483 4.1644e-19 1.14122)
(7.90183 -4.27513e-19 1.27794)
(7.61844 0 1.42707)
(7.31405 4.72558e-19 1.58908)
(6.98767 5.00719e-19 1.76394)
(6.63806 -2.03796e-18 1.95094)
(6.26371 1.18536e-18 2.14834)
(5.86243 1.56178e-21 2.35302)
(5.43123 -1.29673e-18 2.56001)
(4.9661 1.03554e-18 2.7621)
(4.46148 0 2.94935)
(3.90978 1.58414e-19 3.10852)
(3.30078 0 3.22329)
(2.62569 1.70717e-19 3.27436)
(1.85518 0 3.24703)
(1.04908 -2.94583e-18 3.14392)
(9.98585 -7.63534e-21 0.0663044)
(9.96712 -2.35102e-20 0.128543)
(9.93225 1.62307e-20 0.189545)
(9.87717 5.0359e-20 0.251537)
(9.80515 8.91781e-21 0.316054)
(9.71828 -1.08074e-19 0.384219)
(9.61668 6.49836e-20 0.457028)
(9.49983 7.78234e-20 0.535349)
(9.36746 -7.7483e-20 0.619995)
(9.21934 -6.51147e-22 0.711881)
(9.05504 -1.69466e-19 0.812018)
(8.87411 1.79646e-19 0.921415)
(8.67614 1.17946e-20 1.04104)
(8.4606 2.43991e-20 1.17189)
(8.22697 0 1.31498)
(7.97472 2.66633e-20 1.47128)
(7.70319 -4.45923e-19 1.64159)
(7.41173 -4.71081e-19 1.82656)
(7.09949 1.01258e-18 2.02648)
(6.76523 0 2.24099)
(6.40715 -1.17464e-18 2.46884)
(6.02256 -9.34511e-19 2.70754)
(5.60766 1.40536e-19 2.95285)
(5.15734 2.13631e-21 3.19853)
(4.6647 1.48403e-19 3.43577)
(4.12063 -2.46909e-21 3.65243)
(3.51356 0 3.83277)
(2.83401 0 3.95707)
(2.06685 1.67488e-19 4.00027)
(1.20512 0 3.97624)
(9.98576 3.03691e-20 0.0737233)
(9.96726 3.13327e-20 0.143431)
(9.93324 0 0.212425)
(9.87992 -1.67172e-20 0.282791)
(9.81039 1.72431e-20 0.356009)
(9.7265 0 0.433321)
(9.6285 9.28976e-21 0.515847)
(9.51605 9.59387e-21 0.60452)
(9.38887 1.58059e-19 0.700214)
(9.24665 -1.64274e-19 0.803952)
(9.08902 1.70643e-19 0.916852)
(8.91568 -3.58112e-19 1.04)
(8.72628 1.84922e-19 1.17446)
(8.52029 3.41343e-19 1.32131)
(8.29713 -4.2477e-19 1.48168)
(8.0564 -4.21458e-19 1.65668)
(7.79741 -6.09712e-21 1.84726)
(7.51931 5.05203e-19 2.05426)
(7.22128 0 2.27829)
(6.90197 6.05173e-20 2.51946)
(6.55935 -1.14322e-18 2.77722)
(6.19045 -9.11678e-19 3.04994)
(5.79066 1.34378e-19 3.33433)
(5.35397 1.41277e-19 3.6253)
(4.8726 -2.47174e-18 3.91546)
(4.33637 2.08061e-18 4.19361)
(3.73281 0 4.44389)
(3.04978 7.83501e-20 4.64531)
(2.29073 -1.44855e-19 4.75816)
(1.37515 -4.23902e-20 4.80443)
(9.98577 -2.27692e-20 0.0810868)
(9.96777 2.33166e-20 0.158016)
(9.93493 0 0.234585)
(9.88364 1.65828e-20 0.312928)
(9.8168 -8.6208e-20 0.39451)
(9.73622 7.09389e-20 0.480606)
(9.64228 0 0.572397)
(9.53478 -9.57295e-21 0.670908)
(9.41334 4.93798e-21 0.77712)
(9.27758 0 0.892149)
(9.12732 2.67387e-21 1.01717)
(8.96235 0 1.15335)
(8.78232 -1.14447e-20 1.30185)
(8.58674 -3.60383e-19 1.46388)
(8.3751 4.18829e-19 1.64067)
(8.14694 2.55805e-20 1.83345)
(7.90159 -5.30614e-20 2.0434)
(7.63811 -5.56941e-20 2.2716)
(7.3555 0 2.51898)
(7.05216 -1.18814e-19 2.78618)
(6.72583 1.23923e-19 3.07343)
(6.37354 -1.28169e-19 3.38025)
(5.99008 -2.24192e-18 3.70453)
(5.56844 4.46235e-18 4.04252)
(5.10008 -2.15193e-18 4.38835)
(4.57362 7.42644e-20 4.73189)
(3.97538 0 5.05689)
(3.28748 2.32185e-18 5.34108)
(2.53368 -2.52836e-18 5.52863)
(1.56008 -2.59382e-18 5.64353)
(9.98587 -3.01098e-20 0.088286)
(9.96861 -4.66025e-20 0.172169)
(9.93721 -1.6082e-20 0.255918)
(9.88807 8.25809e-20 0.341837)
(9.8242 -3.40995e-20 0.431407)
(9.74732 -1.76439e-20 0.525861)
(9.65787 -7.35364e-20 0.626411)
(9.55577 7.55356e-20 0.734221)
(9.44051 -1.62869e-19 0.850395)
(9.31178 1.67169e-19 0.976097)
(9.16957 0 1.11254)
(9.01369 3.46715e-19 1.26096)
(8.84382 -3.49598e-19 1.42266)
(8.65955 0 1.59895)
(8.46044 3.92527e-19 1.79118)
(8.24602 -4.0213e-19 2.00073)
(8.01561 5.2646e-20 2.22903)
(7.76828 0 2.47744)
(7.50284 -9.00999e-19 2.74731)
(7.21749 1.9092e-18 3.03987)
(6.90975 -9.50059e-19 3.35612)
(6.57651 -6.08688e-20 3.69679)
(6.21231 0 4.06141)
(5.80944 -1.31585e-19 4.44791)
(5.35829 -2.27706e-18 4.85219)
(4.8458 1.27554e-19 5.26573)
(4.25641 2.28389e-18 5.67249)
(3.56251 4.56273e-20 6.04955)
(2.80657 -2.3769e-18 6.32584)
(1.76446 2.50956e-18 6.51959)
(9.98602 1.19887e-22 0.0952315)
(9.96974 1.53548e-20 0.18578)
(9.93994 -4.77689e-20 0.276348)
(9.8931 -3.30968e-20 0.369422)
(9.83247 -2.74278e-24 0.466533)
(9.75968 3.51411e-20 0.568876)
(9.6751 5.48701e-20 0.677668)
(9.57871 -7.4957e-20 0.79422)
(9.47004 0 0.919752)
(9.34892 -5.05719e-21 1.05544)
(9.21537 0 1.20253)
(9.06926 5.42615e-21 1.36237)
(8.91031 0 1.53634)
(8.73824 0 1.72587)
(8.55267 0 1.93244)
(8.35315 -2.49404e-20 2.15761)
(8.13907 0 2.40303)
(7.90953 0 2.67042)
(7.66329 9.0431e-19 2.96161)
(7.39852 -8.95139e-19 3.27845)
(7.11264 -8.71444e-19 3.62281)
(6.80219 -8.27772e-19 3.99659)
(6.46177 -1.89332e-18 4.40124)
(6.08347 3.95739e-18 4.837)
(5.65645 -1.97171e-18 5.30213)
(5.16541 -3.42353e-20 5.79092)
(4.59203 2.0956e-18 6.28931)
(3.89487 -1.43282e-20 6.77587)
(3.12894 -4.48919e-18 7.16796)
(1.99984 2.35994e-18 7.47032)
(9.98623 -4.46294e-20 0.101859)
(9.97103 -1.54266e-20 0.198761)
(9.94307 1.23635e-23 0.295791)
(9.89872 3.26358e-20 0.39558)
(9.84151 1.016e-19 0.499738)
(9.77313 3.34628e-22 0.609468)
(9.69375 -7.18256e-20 0.725982)
(9.60336 -1.85933e-20 0.850694)
(9.50171 -1.92231e-20 0.984921)
(9.3887 0 1.12985)
(9.26435 0 1.28678)
(9.12859 2.65493e-21 1.45712)
(8.98128 0 1.64235)
(8.82222 0 1.84402)
(8.65115 -1.17011e-20 2.06371)
(8.46769 -4.02835e-19 2.30315)
(8.27134 3.99115e-19 2.56424)
(8.0613 -8.29601e-19 2.84907)
(7.83642 8.19335e-19 3.15992)
(7.59503 9.02515e-19 3.49935)
(7.33477 -1.8451e-18 3.87017)
(7.05189 -9.70649e-19 4.27543)
(6.74127 -1.92969e-18 4.71862)
(6.3954 1.93253e-18 5.20291)
(6.00256 0 5.72996)
(5.54518 -3.50917e-20 6.29876)
(5.00149 2.00448e-18 6.90076)
(4.31283 -4.06349e-18 7.52111)
(3.5357 5.50378e-20 8.07427)
(2.29124 2.17777e-18 8.55005)
(9.98646 1.18878e-19 0.108127)
(9.97244 0 0.211037)
(9.94651 3.15415e-20 0.314151)
(9.90487 -6.48481e-20 0.420217)
(9.85123 0 0.530906)
(9.78751 5.21449e-20 0.647484)
(9.71361 -5.34248e-20 0.771181)
(9.62951 -1.29925e-19 0.903443)
(9.53527 1.71449e-19 1.04565)
(9.43078 1.48734e-19 1.19903)
(9.31609 -3.16105e-19 1.36493)
(9.19123 -1.733e-19 1.54481)
(9.05618 6.95569e-19 1.74022)
(8.91089 -3.56526e-19 1.95279)
(8.7552 1.1632e-20 2.18422)
(8.58888 6.079e-21 2.43641)
(8.41156 6.07528e-21 2.71148)
(8.22269 8.08123e-19 3.01184)
(8.02135 -1.6518e-18 3.34021)
(7.80619 1.66416e-18 3.69978)
(7.5754 -8.68691e-19 4.09436)
(7.3254 -8.80216e-19 4.52815)
(7.05173 9.00759e-19 5.00663)
(6.74802 0 5.53623)
(6.40279 0 6.12315)
(5.9975 1.83339e-18 6.77357)
(5.50773 -1.87937e-18 7.48972)
(4.85699 -2.78754e-20 8.27365)
(4.08862 -5.83967e-20 9.05783)
(2.69123 0 9.84514)
(9.9867 -2.84978e-22 0.114006)
(9.97395 -3.03964e-20 0.222543)
(9.9502 -7.29644e-23 0.331341)
(9.91145 6.46033e-20 0.443241)
(9.86158 0 0.559938)
(9.80268 0 0.682804)
(9.73446 -1.42444e-19 0.813115)
(9.65698 1.27866e-19 0.952283)
(9.57046 0 1.10172)
(9.47482 -1.46925e-19 1.26273)
(9.37019 1.50371e-19 1.4367)
(9.25671 0 1.62509)
(9.13447 3.5443e-19 1.8295)
(9.00358 -3.52056e-19 2.05164)
(8.86404 -3.58629e-19 2.29333)
(8.7158 3.77611e-19 2.55656)
(8.5587 -3.06557e-21 2.84365)
(8.39249 3.03695e-21 3.15725)
(8.2167 8.03984e-19 3.50045)
(8.03047 2.00451e-21 3.87697)
(7.83273 -8.26145e-19 4.29142)
(7.62081 2.60246e-20 4.74912)
(7.39169 -6.782e-21 5.25722)
(7.14094 5.26753e-20 5.82523)
(6.85953 -1.70607e-18 6.46444)
(6.53146 1.67822e-18 7.18996)
(6.13471 0 8.02047)
(5.58316 7.64897e-20 8.98998)
(4.89967 2.70155e-20 10.0971)
(3.31462 0 11.5195)
(9.98696 -1.49939e-20 0.119472)
(9.97553 1.50918e-20 0.233232)
(9.95405 0 0.347284)
(9.91841 6.42636e-20 0.464549)
(9.8725 -1.65319e-19 0.586732)
(9.81849 -3.30131e-22 0.715309)
(9.75615 -7.09703e-20 0.851612)
(9.68559 1.62998e-19 0.996999)
(9.60703 0 1.1529)
(9.52053 -1.54855e-19 1.32069)
(9.42631 1.58509e-19 1.50175)
(9.32459 3.28685e-19 1.69755)
(9.21562 2.12234e-21 1.90973)
(9.09963 -7.03982e-19 2.14003)
(8.97685 -7.72598e-21 2.39034)
(8.84742 9.37785e-21 2.66275)
(8.71149 3.70118e-19 2.95967)
(8.5692 -3.01479e-21 3.28389)
(8.42055 0 3.63874)
(8.26549 7.92379e-19 4.02831)
(8.10375 -8.04304e-19 4.45765)
(7.93433 -8.88956e-19 4.93284)
(7.75648 0 5.4622)
(7.56875 -5.19988e-20 6.05725)
(7.36747 -8.95255e-19 6.73337)
(7.14513 1.6342e-18 7.51337)
(6.89465 -4.38582e-20 8.43252)
(6.55143 -8.03878e-19 9.56268)
(6.17591 6.06727e-19 11.0253)
(4.40368 4.61222e-19 13.9303)
(0.0527528 0 0.1375)
(-0.472974 3.29081e-20 0.390381)
(-1.27303 -3.13172e-20 0.474573)
(-2.19223 7.7338e-22 0.505471)
(-3.19884 1.40007e-20 0.512142)
(-4.25846 -1.35151e-20 0.5046)
(-5.34248 0 0.487203)
(-6.42745 0 0.462454)
(-7.49449 0 0.432054)
(-8.52825 0 0.397203)
(-9.51586 6.49784e-21 0.358738)
(-10.4462 0 0.31726)
(-11.3092 0 0.273203)
(-12.0952 0 0.226842)
(-12.7942 0 0.178322)
(-13.3955 1.43107e-20 0.127698)
(-13.888 -1.40409e-20 0.074945)
(-14.2598 0 0.0199304)
(-14.4985 0 -0.0376939)
(-14.5905 0 -0.0988081)
(-14.519 1.46533e-20 -0.165292)
(-14.2657 6.40464e-21 -0.240945)
(-13.8104 8.56765e-21 -0.328033)
(-13.1296 -5.00882e-22 -0.430537)
(-12.1922 5.75021e-21 -0.555351)
(-10.945 0 -0.713656)
(-9.28364 0 -0.927687)
(-7.02966 0 -1.24968)
(-3.96784 0 -1.78152)
(0.810447 0 -2.71902)
(-0.277843 -2.91077e-19 0.550621)
(-0.839318 1.37414e-19 0.873133)
(-1.63306 -4.51083e-22 1.03997)
(-2.52643 -7.62398e-22 1.13399)
(-3.49954 0 1.18325)
(-4.52075 0 1.20146)
(-5.56385 0 1.19619)
(-6.60737 -3.5078e-21 1.17245)
(-7.63391 0 1.13394)
(-8.62916 9.93474e-21 1.08327)
(-9.58089 6.88373e-21 1.02224)
(-10.4784 -8.96004e-20 0.952079)
(-11.312 -1.42479e-20 0.873553)
(-12.0717 1.32527e-19 0.786925)
(-12.7474 -4.76757e-20 0.692098)
(-13.3285 -2.8006e-20 0.588757)
(-13.8033 0 0.476484)
(-14.1601 1.78074e-22 0.354874)
(-14.3866 -6.17645e-20 0.223459)
(-14.4698 3.07059e-20 0.0811884)
(-14.3937 -4.4508e-20 -0.0743705)
(-14.1509 4.08098e-20 -0.241834)
(-13.7261 -1.35908e-20 -0.422219)
(-13.1012 1.91686e-20 -0.620958)
(-12.2538 -1.70757e-20 -0.847607)
(-11.1475 2.10782e-21 -1.11673)
(-9.71496 -8.44156e-21 -1.45723)
(-7.85123 0 -1.93833)
(-5.49907 -3.12433e-21 -2.67149)
(-3.09439 0 -3.60458)
(-0.321059 1.46814e-19 1.12667)
(-0.921186 -1.23767e-19 1.51513)
(-1.71809 1.1742e-19 1.74129)
(-2.57774 -1.27564e-21 1.87819)
(-3.49661 -1.63547e-21 1.9509)
(-4.45124 -4.70041e-21 1.97527)
(-5.42148 4.56492e-21 1.96149)
(-6.39014 5.13906e-20 1.91692)
(-7.34304 -4.25432e-20 1.84703)
(-8.26821 -1.06286e-19 1.75573)
(-9.15501 -1.32894e-20 1.64575)
(-9.99421 3.41066e-20 1.519)
(-10.7771 -8.79175e-20 1.37665)
(-11.4946 -1.33407e-20 1.21918)
(-12.1369 7.12388e-20 1.04669)
(-12.6935 1.74783e-19 0.85916)
(-13.1531 -1.15954e-19 0.656692)
(-13.5037 3.10273e-20 0.439789)
(-13.7334 3.22887e-20 0.209473)
(-13.8296 0 -0.0330003)
(-13.7772 6.07756e-20 -0.286779)
(-13.5708 -9.27749e-22 -0.556464)
(-13.2001 -2.64448e-20 -0.845153)
(-12.6534 -2.10595e-20 -1.15889)
(-11.9169 0 -1.50846)
(-10.9695 0 -1.90906)
(-9.77589 1.5288e-20 -2.38565)
(-8.28984 -1.10545e-21 -2.98829)
(-6.54015 3.05516e-21 -3.78164)
(-5.0222 0 -4.66782)
(-0.255659 -5.06095e-22 1.79438)
(-0.84289 -2.21012e-19 2.20266)
(-1.63478 2.12848e-19 2.44542)
(-2.45361 1.2291e-19 2.59616)
(-3.31085 -1.15571e-19 2.67447)
(-4.19054 6.59198e-24 2.69537)
(-5.07948 0 2.66999)
(-5.9657 -1.07387e-19 2.60692)
(-6.83898 1.00688e-19 2.51278)
(-7.68999 0 2.39225)
(-8.50989 0 2.24867)
(-9.29081 -5.44381e-20 2.08447)
(-10.0247 4.34743e-20 1.90089)
(-10.7025 -1.03471e-19 1.69817)
(-11.3144 1.83259e-19 1.476)
(-11.8492 -2.89092e-20 1.23373)
(-12.2949 -1.28222e-19 0.970539)
(-12.6389 1.26299e-19 0.685852)
(-12.869 -3.24998e-20 0.379571)
(-12.9731 1.79307e-21 0.0521088)
(-12.9374 1.58228e-19 -0.29605)
(-12.7601 -4.02651e-22 -0.662778)
(-12.4371 0 -1.04973)
(-11.9629 -4.67025e-20 -1.46402)
(-11.3316 3.01868e-20 -1.91828)
(-10.5343 7.95671e-21 -2.42925)
(-9.55779 -2.70409e-20 -3.01826)
(-8.39082 0 -3.71429)
(-7.0915 -1.84126e-21 -4.5355)
(-6.05699 0 -5.34564)
(-0.134381 2.45909e-19 2.49741)
(-0.672868 -6.42713e-21 2.89624)
(-1.44416 -2.84183e-22 3.12772)
(-2.21032 1.45131e-21 3.27218)
(-2.99937 9.57333e-22 3.34386)
(-3.8003 6.04173e-20 3.35531)
(-4.60595 -5.23148e-20 3.31681)
(-5.40902 0 3.23666)
(-6.2029 0 3.1213)
(-6.98039 0 2.97499)
(-7.73421 -1.41019e-19 2.80068)
(-8.45746 3.03517e-19 2.60044)
(-9.1419 -6.10052e-20 2.37483)
(-9.77824 -2.50899e-20 2.12344)
(-10.3561 -2.68227e-19 1.84548)
(-10.8639 -1.27164e-19 1.54008)
(-11.2889 5.89865e-20 1.20679)
(-11.6185 6.83402e-20 0.846117)
(-11.8407 -1.3534e-19 0.45991)
(-11.9446 4.92195e-22 0.0513712)
(-11.9178 -6.68481e-20 -0.375774)
(-11.7622 -1.23187e-19 -0.820595)
(-11.4789 0 -1.28422)
(-11.0687 2.46631e-20 -1.7734)
(-10.5333 -1.65465e-20 -2.30122)
(-9.8733 -3.86772e-20 -2.88469)
(-9.08959 4.81915e-20 -3.54083)
(-8.1896 0 -4.28104)
(-7.23293 2.03669e-21 -5.08863)
(-6.50902 -2.14901e-22 -5.80766)
(0.0200445 -3.61674e-22 3.19685)
(-0.446223 5.1773e-21 3.57027)
(-1.18217 -9.9598e-20 3.77574)
(-1.88284 1.34712e-19 3.9019)
(-2.5966 -4.0862e-20 3.95909)
(-3.31501 1.31458e-21 3.95737)
(-4.03567 -2.03762e-19 3.90543)
(-4.75491 6.15907e-20 3.81041)
(-5.46882 1.42938e-19 3.6778)
(-6.17193 -2.79847e-19 3.51082)
(-6.85831 -2.45629e-19 3.31188)
(-7.52171 -1.39191e-19 3.08248)
(-8.15382 1.74065e-20 2.82245)
(-8.74527 2.53276e-19 2.53091)
(-9.28547 -6.06447e-20 2.20668)
(-9.76254 -6.54783e-20 1.84858)
(-10.1636 2.06375e-19 1.456)
(-10.4756 3.68741e-21 1.0295)
(-10.6865 0 0.571463)
(-10.7854 0 0.0863964)
(-10.7615 7.0423e-20 -0.419495)
(-10.6209 0 -0.94007)
(-10.3696 -5.9896e-20 -1.47373)
(-10.0147 -2.37878e-20 -2.02671)
(-9.56448 -4.04843e-20 -2.61262)
(-9.02678 5.12416e-20 -3.24849)
(-8.41091 -2.26667e-20 -3.94727)
(-7.73255 -2.75948e-21 -4.70686)
(-7.04125 -5.41356e-21 -5.48645)
(-6.53746 0 -6.12462)
(0.193415 3.55141e-22 3.86566)
(-0.184884 -2.23591e-21 4.20287)
(-0.871935 -1.23006e-23 4.37445)
(-1.49422 9.11649e-21 4.47599)
(-2.12503 -7.64254e-21 4.51478)
(-2.75612 0 4.49868)
(-3.38897 1.38681e-20 4.43435)
(-4.02249 -3.61813e-20 4.32723)
(-4.65462 2.57441e-20 4.18119)
(-5.28147 3.05107e-19 3.99819)
(-5.8982 -2.06674e-20 3.77967)
(-6.4989 -5.97661e-20 3.52611)
(-7.07559 3.23554e-19 3.2364)
(-7.61905 5.81924e-20 2.90892)
(-8.11868 6.11924e-20 2.54189)
(-8.56247 6.60906e-20 2.13379)
(-8.93728 0 1.68393)
(-9.2296 7.76932e-20 1.19344)
(-9.42686 2.83565e-21 0.666255)
(-9.51796 -2.99353e-19 0.109688)
(-9.49292 4.08127e-21 -0.466285)
(-9.36262 -6.53811e-20 -1.05184)
(-9.13732 1.83182e-19 -1.64225)
(-8.83027 -1.69452e-21 -2.24292)
(-8.45543 6.56667e-20 -2.86832)
(-8.02527 -4.21146e-21 -3.53586)
(-7.55382 1.30537e-20 -4.2558)
(-7.05916 0 -5.01701)
(-6.57743 2.91698e-20 -5.76409)
(-6.24248 0 -6.33676)
(0.374352 4.07475e-24 4.48147)
(0.0947209 0 4.77484)
(-0.529807 1.66124e-24 4.90861)
(-1.06036 -6.01154e-20 4.98321)
(-1.59998 1.88369e-19 5.00328)
(-2.13796 -3.36327e-19 4.97416)
(-2.67906 4.89372e-19 4.90008)
(-3.22393 -7.44978e-20 4.78435)
(-3.7717 -2.19288e-19 4.62897)
(-4.31971 -3.5394e-20 4.43461)
(-4.864 -3.92635e-20 4.20149)
(-5.39897 0 3.92882)
(-5.91715 -5.78853e-20 3.61459)
(-6.40971 6.40844e-20 3.25645)
(-6.86637 0 2.85201)
(-7.27534 0 2.39934)
(-7.62336 0 1.8976)
(-7.89624 0 1.34817)
(-8.08014 0 0.756291)
(-8.16278 0 0.132256)
(-8.13401 -7.74808e-20 -0.509471)
(-8.01061 1.38898e-19 -1.15335)
(-7.8065 -7.15312e-20 -1.79032)
(-7.54089 -1.16742e-19 -2.4252)
(-7.23231 0 -3.0743)
(-6.89584 0 -3.75649)
(-6.54719 -9.27977e-20 -4.48086)
(-6.20412 -4.41371e-20 -5.23129)
(-5.88985 -2.11196e-20 -5.94603)
(-5.69392 7.97753e-21 -6.46814)
(0.553498 0 5.02231)
(0.379921 0 5.26827)
(-0.167743 -1.66618e-24 5.3638)
(-0.592734 0 5.41247)
(-1.0326 0 5.41665)
(-1.47099 -2.61475e-19 5.37815)
(-1.9158 2.75801e-19 5.29843)
(-2.36857 -2.23727e-19 5.17848)
(-2.8291 2.18805e-19 5.01832)
(-3.29543 3.58473e-20 4.81743)
(-3.76425 7.03238e-19 4.57478)
(-4.23034 -2.70604e-19 4.28824)
(-4.68689 1.11767e-19 3.955)
(-5.12574 -2.62748e-19 3.57192)
(-5.53728 2.6321e-19 3.13593)
(-5.91031 3.07756e-19 2.64448)
(-6.23176 -4.64336e-19 2.09626)
(-6.48653 3.24149e-19 1.49248)
(-6.65878 -1.63503e-19 0.839431)
(-6.73383 0 0.151055)
(-6.7 7.848e-20 -0.552228)
(-6.58162 7.57631e-20 -1.24782)
(-6.39594 1.31973e-19 -1.9214)
(-6.16744 5.95671e-20 -2.57783)
(-5.91777 0 -3.2367)
(-5.66284 -1.07067e-19 -3.91956)
(-5.41763 8.28282e-20 -4.63551)
(-5.1988 9.74592e-20 -5.3662)
(-5.01755 -4.53827e-21 -6.04968)
(-4.94336 -1.73932e-20 -6.53406)
(0.723828 0 5.46529)
(0.661639 0 5.66549)
(0.205734 0 5.72621)
(-0.0996663 -4.60624e-21 5.7533)
(-0.431425 -1.31269e-20 5.74707)
(-0.763773 0 5.70481)
(-1.10781 -2.04548e-20 5.62492)
(-1.46517 0 5.50602)
(-1.83573 3.00125e-19 5.34614)
(-2.21767 -5.63976e-19 5.14374)
(-2.60802 5.03701e-19 4.89672)
(-3.00198 -5.04167e-19 4.60173)
(-3.39348 -1.22865e-19 4.25522)
(-3.77529 -1.31057e-19 3.85337)
(-4.13889 3.03022e-19 3.39234)
(-4.47422 -2.98334e-19 2.86873)
(-4.76896 0 2.28034)
(-5.00728 -1.72263e-19 1.62759)
(-5.17025 0 0.916983)
(-5.23937 -1.71852e-19 0.166645)
(-5.19974 -7.24283e-22 -0.594798)
(-5.08718 -2.34289e-19 -1.336)
(-4.92049 1.43877e-19 -2.03677)
(-4.72787 -6.47481e-20 -2.70339)
(-4.53226 7.80133e-20 -3.36036)
(-4.34878 4.34885e-20 -4.03308)
(-4.19005 9.25116e-20 -4.73153)
(-4.07228 -4.87904e-20 -5.43624)
(-3.99332 -3.09003e-20 -6.08836)
(-4.03035 9.42203e-21 -6.5449)
(0.881044 -1.55183e-22 5.78766)
(0.93451 1.02564e-19 5.94926)
(0.584668 -1.01351e-19 5.98249)
(0.413045 -1.98906e-19 5.9959)
(0.19659 2.13137e-19 5.98712)
(-0.0240206 0 5.94856)
(-0.263759 4.19641e-19 5.87518)
(-0.523096 -7.69266e-19 5.7634)
(-0.801675 1.72494e-20 5.60925)
(-1.09711 1.43497e-19 5.41045)
(-1.4063 -9.7686e-20 5.16424)
(-1.72482 0 4.86618)
(-2.0473 1.24651e-19 4.51226)
(-2.36755 0 4.09814)
(-2.6785 0 3.61921)
(-2.97192 0 3.07103)
(-3.23729 1.72289e-19 2.44976)
(-3.45879 1.73924e-19 1.75428)
(-3.61329 5.40875e-19 0.99003)
(-3.67693 -1.79588e-19 0.179613)
(-3.63154 3.45844e-19 -0.636511)
(-3.53176 7.48946e-20 -1.41686)
(-3.39081 -2.21846e-19 -2.13582)
(-3.23757 0 -2.80282)
(-3.09436 -1.38546e-19 -3.4488)
(-2.97472 2.57531e-20 -4.10393)
(-2.88783 -7.32728e-20 -4.77944)
(-2.85152 -5.44005e-21 -5.45486)
(-2.84646 2.14477e-21 -6.07373)
(-2.98579 1.35373e-21 -6.50865)
(1.02328 -7.30675e-22 5.9693)
(1.19659 -1.64115e-21 6.10427)
(0.964373 -1.79564e-19 6.11981)
(0.941518 -7.46588e-20 6.13126)
(0.845321 2.16751e-19 6.13106)
(0.740554 0 6.10561)
(0.606816 -2.15543e-19 6.04671)
(0.446701 2.99681e-19 5.94878)
(0.261051 -7.63743e-20 5.80621)
(0.0531762 8.95926e-20 5.61589)
(-0.172994 4.51673e-19 5.37496)
(-0.413156 -4.42113e-19 5.07851)
(-0.66244 0 4.72211)
(-0.915515 1.58522e-19 4.30118)
(-1.16668 -2.99333e-19 3.81064)
(-1.41001 1.68733e-19 3.24495)
(-1.63814 -3.52619e-19 2.59874)
(-1.83705 -1.81473e-19 1.8683)
(-1.97712 2.84369e-21 1.05619)
(-2.02709 -1.87786e-19 0.188185)
(-1.9832 9.04643e-20 -0.679146)
(-1.91376 8.01931e-20 -1.48923)
(-1.81364 0 -2.21688)
(-1.7093 -1.36433e-19 -2.87593)
(-1.62074 1.45841e-19 -3.50451)
(-1.56003 -2.66586e-20 -4.1379)
(-1.5328 8.51132e-21 -4.7884)
(-1.56086 4.89598e-20 -5.43451)
(-1.60544 3.1888e-20 -6.01816)
(-1.83333 1.33967e-20 -6.43294)
(1.15507 5.05513e-21 5.99734)
(1.43844 2.06627e-21 6.11402)
(1.35336 -1.99695e-19 6.12754)
(1.47813 4.53675e-19 6.15153)
(1.50803 -2.35189e-19 6.17287)
(1.51751 -2.28078e-19 6.17044)
(1.4892 2.00269e-19 6.13442)
(1.42767 0 6.05737)
(1.3352 -3.517e-19 5.93305)
(1.21572 7.49869e-19 5.75723)
(1.07407 0 5.52702)
(0.914829 0 5.23795)
(0.742687 1.3539e-19 4.88551)
(0.56247 1.47187e-19 4.4652)
(0.379101 1.61197e-19 3.97222)
(0.197353 3.57094e-19 3.40105)
(0.019697 -3.5296e-19 2.74182)
(-0.147606 -1.88746e-19 1.98886)
(-0.260137 -1.9105e-19 1.13418)
(-0.262288 4.14945e-22 0.192422)
(-0.251522 -8.76705e-20 -0.714002)
(-0.234874 1.76128e-19 -1.54152)
(-0.195679 8.06524e-20 -2.27085)
(-0.15404 1.38245e-19 -2.91793)
(-0.125824 -1.48098e-19 -3.52738)
(-0.121642 4.36844e-21 -4.13902)
(-0.145105 1.12236e-19 -4.76589)
(-0.221258 -6.64905e-20 -5.3854)
(-0.300041 0 -5.93429)
(-0.589266 -1.19959e-20 -6.325)
(1.28337 -2.17064e-20 5.85908)
(1.66227 -8.66355e-21 5.95653)
(1.75905 0 5.99608)
(2.02257 2.80524e-20 6.05182)
(2.17972 1.85667e-19 6.10979)
(2.29793 -1.40381e-19 6.14217)
(2.37063 0 6.13782)
(2.40348 -3.0241e-19 6.08815)
(2.40097 2.54679e-19 5.987)
(2.3678 0 5.8297)
(2.3093 -2.30197e-19 5.61324)
(2.23069 -3.14204e-20 5.33396)
(2.13672 -1.64535e-19 4.98752)
(2.0321 5.87176e-19 4.56958)
(1.92156 -4.62705e-19 4.07559)
(1.80998 1.66271e-23 3.50029)
(1.70023 8.08156e-23 2.83695)
(1.5935 1.3601e-22 2.07837)
(1.52705 -1.9127e-19 1.21849)
(1.53364 1.90129e-19 0.280416)
(1.5169 8.96632e-20 -0.669984)
(1.4803 -4.26588e-19 -1.52806)
(1.44639 0 -2.26763)
(1.41439 3.27439e-20 -2.91328)
(1.3765 -3.18998e-20 -3.51262)
(1.32565 1.01243e-19 -4.10896)
(1.25725 -8.03423e-20 -4.71631)
(1.14996 0 -5.31105)
(1.03954 -1.53764e-21 -5.82756)
(0.736307 1.50485e-21 -6.18743)
(1.42006 9.11256e-20 5.50528)
(1.87142 -5.64453e-20 5.60946)
(2.18186 0 5.73036)
(2.57417 -1.40955e-19 5.83788)
(2.85365 1.05674e-19 5.9449)
(3.0732 2.24152e-20 6.02354)
(3.23946 -2.52119e-19 6.0595)
(3.36026 2.45614e-19 6.04368)
(3.44243 4.01283e-20 5.97052)
(3.49167 0 5.83592)
(3.51347 0 5.63691)
(3.51323 1.94525e-19 5.37035)
(3.49589 3.02073e-20 5.03268)
(3.46613 -2.74672e-19 4.61981)
(3.42853 1.5573e-19 4.12739)
(3.38777 -1.67389e-19 3.55043)
(3.34732 1.7639e-19 2.88253)
(3.30829 1.83195e-19 2.11644)
(3.28846 0 1.25095)
(3.29538 0 0.311724)
(3.25915 0 -0.62778)
(3.1791 1.67426e-19 -1.48119)
(3.07908 -1.51655e-19 -2.22041)
(2.97499 1.03404e-19 -2.86527)
(2.87227 5.92107e-20 -3.46102)
(2.77074 -1.50035e-19 -4.05053)
(2.66586 -5.7778e-20 -4.64722)
(2.53737 0 -5.2246)
(2.40633 7.69191e-22 -5.71635)
(2.10625 -7.53284e-22 -6.04675)
(9.98723 1.12513e-19 0.124597)
(9.97718 2.89159e-20 0.243253)
(9.9581 5.95509e-20 0.362208)
(9.92578 -3.06391e-20 0.484462)
(9.88404 -3.16595e-20 0.611736)
(9.83509 3.25875e-20 0.745572)
(9.77896 1.34769e-19 0.887343)
(9.7157 -1.03689e-19 1.03838)
(9.64554 1.43114e-19 1.2001)
(9.56873 -1.46548e-19 1.37393)
(9.48557 -1.88065e-20 1.56124)
(9.39634 0 1.76349)
(9.30146 3.10554e-19 1.98231)
(9.20134 -3.17048e-19 2.21947)
(9.0964 0 2.47686)
(8.98706 -1.08569e-20 2.75661)
(8.87383 -2.17977e-20 3.06114)
(8.75729 -2.22037e-20 3.39327)
(8.63802 2.25554e-20 3.75638)
(8.51687 7.38658e-19 4.15467)
(8.39464 -7.49423e-19 4.59317)
(8.2724 4.77666e-20 5.07808)
(8.15222 0 5.61793)
(8.03668 -9.1259e-20 6.22449)
(7.92989 8.11905e-19 6.91393)
(7.8389 -3.85463e-20 7.71045)
(7.78831 -1.41141e-18 8.65223)
(7.8028 9.16397e-19 9.8107)
(8.47203 -4.32194e-19 11.2508)
(9.01749 1.49275e-19 14.0438)
(9.98753 -1.09145e-19 0.129391)
(9.97895 0 0.252617)
(9.96241 0 0.376107)
(9.93357 2.9027e-22 0.502947)
(9.89621 -6.11848e-20 0.634881)
(9.85258 3.16803e-20 0.773465)
(9.80289 1.30336e-19 0.920099)
(9.74721 -1.67218e-19 1.07611)
(9.68578 3.42884e-20 1.2429)
(9.61901 0 1.42189)
(9.5473 1.83152e-20 1.61445)
(9.47102 0 1.82201)
(9.39073 1.90692e-20 2.04617)
(9.30707 -3.1537e-19 2.28865)
(9.22063 3.41641e-19 2.55132)
(9.13214 2.03917e-20 2.83623)
(9.04249 3.56846e-19 3.14575)
(8.9527 -3.19901e-19 3.48259)
(8.864 -2.19083e-20 3.84995)
(8.77813 -6.97413e-19 4.25178)
(8.69707 7.50838e-19 4.69261)
(8.6238 -6.99474e-19 5.17799)
(8.56292 6.22331e-19 5.71538)
(8.52088 8.86035e-20 6.31451)
(8.5085 3.28633e-19 6.98781)
(8.54429 -3.32297e-19 7.7511)
(8.67091 7.84124e-20 8.62287)
(8.89532 0 9.62337)
(9.54296 -1.07253e-19 10.6941)
(10.1426 -2.65148e-20 11.7648)
(9.98784 5.30852e-20 0.133772)
(9.98082 0 0.261175)
(9.96693 2.8004e-20 0.388782)
(9.9417 -2.91797e-20 0.519762)
(9.9089 2.95618e-20 0.655876)
(9.87085 3.04284e-20 0.798671)
(9.82786 -3.13062e-20 0.94955)
(9.78001 1.29622e-19 1.10984)
(9.72761 -3.28923e-20 1.28092)
(9.67116 -1.36407e-19 1.46416)
(9.61118 1.40587e-19 1.66094)
(9.5482 -1.79436e-19 1.87263)
(9.48291 -1.85644e-20 2.10074)
(9.4161 0 2.34692)
(9.34859 -3.27935e-19 2.61294)
(9.2814 2.94485e-19 2.90075)
(9.21578 0 3.21249)
(9.1532 -2.83853e-19 3.55063)
(9.09548 6.97123e-19 3.91802)
(9.04508 -2.91525e-19 4.31799)
(9.00506 -4.21908e-20 4.7542)
(8.97969 -3.27879e-19 5.23092)
(8.97506 4.96612e-19 5.75348)
(8.99955 0 6.32807)
(9.06569 3.03447e-19 6.96075)
(9.19038 -3.07161e-19 7.65563)
(9.40416 0 8.40918)
(9.68706 1.07167e-19 9.20082)
(10.1563 2.34193e-20 9.98937)
(10.7684 1.77483e-19 10.706)
(9.98817 -6.39568e-20 0.13769)
(9.98276 3.95183e-20 0.268825)
(9.97163 -2.71008e-20 0.400084)
(9.95014 -5.60111e-20 0.534697)
(9.92207 2.88324e-20 0.674434)
(9.88981 -2.96731e-20 0.820823)
(9.85374 3.05241e-20 0.975261)
(9.81394 -9.40552e-20 1.13907)
(9.77081 -3.23131e-20 1.31356)