/*--------------------------------*- C++ -*----------------------------------*\
| =========                 |                                                 |
| \\      /  F ield         | OpenFOAM: The Open Source CFD Toolbox           |
|  \\    /   O peration     | Version:  dev                                   |
|   \\  /    A nd           | Web:      www.OpenFOAM.org                      |
|    \\/     M anipulation  |                                                 |
\*---------------------------------------------------------------------------*/
FoamFile
{
    version     2.0;
    format      ascii;
    class       volVectorField;
    location    "4.24";
    object      U;
}
// * * * * * * * * * * * * * * * * * * * * * * * * * * * * * * * * * * * * * //

dimensions      [0 1 -1 0 0 0 0];

internalField   nonuniform List<vector> 
465
(
(3.62065 0 0.293179)
(3.02158 0 0.317594)
(2.40447 9.70326e-20 0.340576)
(1.77795 -1.00048e-19 0.36068)
(1.15155 0 0.377372)
(0.552999 2.68638e-20 0.395513)
(-0.257064 0 0.0403739)
(-0.282149 2.2447e-19 -0.312962)
(-0.0802219 -2.30643e-19 -0.378763)
(4.49893 1.32097e-19 0.732107)
(3.91117 1.39464e-19 0.780139)
(3.30099 -3.29834e-19 0.819309)
(2.67794 -3.94743e-19 0.844435)
(2.05719 3.55586e-19 0.848455)
(1.46027 -2.62989e-20 0.81924)
(0.890231 0 0.662909)
(0.453666 -4.45749e-19 0.397502)
(0.105469 4.03048e-19 -0.298323)
(4.96258 8.58761e-20 1.20315)
(4.41737 4.48036e-20 1.28678)
(3.84597 -4.65793e-20 1.35588)
(3.25558 0 1.40083)
(2.65749 -7.51565e-19 1.40764)
(2.06624 8.24607e-19 1.35268)
(1.48693 0 1.1768)
(0.913126 0 0.862415)
(0.53033 1.1477e-19 0.323748)
(5.24967 -4.23857e-20 1.63193)
(4.74336 7.06927e-19 1.75259)
(4.20798 -8.17941e-19 1.85613)
(3.64644 0 1.92983)
(3.06307 0 1.95587)
(2.46227 0 1.90822)
(1.84328 0 1.7439)
(1.1756 5.41846e-20 1.44431)
(0.649459 -1.81972e-18 0.96115)
(5.45734 5.78129e-19 2.03125)
(4.97977 0 2.18842)
(4.47042 8.99405e-20 2.32874)
(3.92813 0 2.43828)
(3.35143 -9.58995e-20 2.49849)
(2.73745 0 2.48527)
(2.0818 0 2.366)
(1.34416 -5.35224e-20 2.12385)
(0.720686 -1.85059e-18 1.71255)
(5.63384 7.30809e-19 2.4109)
(5.17647 6.80756e-19 2.60518)
(4.68457 -6.9884e-19 2.78553)
(4.15388 0 2.93824)
(3.579 9.35028e-22 3.04553)
(2.95258 0 3.08558)
(2.26914 0 3.03122)
(1.4849 0 2.86654)
(0.790749 -1.81624e-18 2.54036)
(5.80488 -7.94415e-20 2.77642)
(5.36281 0 3.00918)
(4.8834 0 3.23306)
(4.36018 -1.34027e-18 3.4354)
(3.78518 3.13035e-18 3.59968)
(3.14829 -1.42592e-18 3.70561)
(2.44415 1.58646e-18 3.72808)
(1.62973 -1.6348e-18 3.64875)
(0.874785 7.21492e-22 3.41021)
(5.98502 7.8471e-19 3.13034)
(5.55677 -7.2409e-19 3.40329)
(5.08849 1.34466e-18 3.67412)
(4.57198 -1.38034e-18 3.9316)
(3.99737 -1.52877e-18 4.16062)
(3.35242 2.87363e-18 4.34181)
(2.63138 9.07686e-21 4.44989)
(1.79527 -1.58816e-18 4.46058)
(0.978904 5.26196e-20 4.30978)
(6.18301 5.30375e-19 3.47262)
(5.76996 -1.18581e-18 3.7875)
(5.31451 1.21494e-18 4.1084)
(4.807 -1.43285e-18 4.42604)
(4.23561 2.77497e-18 4.72678)
(3.58572 -1.42997e-18 4.99191)
(2.84927 1.48777e-18 5.19494)
(1.99366 -1.48609e-18 5.30262)
(1.10775 4.96054e-20 5.24238)
(6.40424 0 3.80121)
(6.01026 0 4.15935)
(5.57215 1.64823e-21 4.53299)
(5.07886 -8.00673e-20 4.91533)
(4.51623 8.23813e-20 5.29495)
(3.86632 0 5.65403)
(3.11544 4.37343e-20 5.96485)
(2.23774 -1.47721e-21 6.18301)
(1.26737 -1.64512e-21 6.22262)
(6.65183 -1.73129e-18 4.1123)
(6.28293 1.1807e-18 4.51421)
(5.86945 7.67967e-20 4.94232)
(5.39884 7.8885e-20 5.39322)
(4.85424 -1.3611e-18 5.85904)
(4.213 1.3123e-18 6.32453)
(3.45119 -8.42868e-20 6.76238)
(2.54582 -4.43733e-20 7.11667)
(1.46816 -4.64021e-20 7.28025)
(6.92713 0 4.40074)
(6.59092 7.05319e-20 4.84537)
(6.21191 -7.19169e-20 5.328)
(5.77634 0 5.84966)
(5.26451 0 6.40827)
(4.64793 0 6.99476)
(3.88682 4.04923e-20 7.58746)
(2.95069 -2.55477e-18 8.1243)
(1.73243 2.71026e-18 8.47018)
(7.22966 3.33807e-20 4.66047)
(6.93478 -6.97057e-20 5.1445)
(6.60225 1.15256e-18 5.67869)
(6.21823 -1.1362e-18 6.26973)
(5.76137 -3.50106e-20 6.92408)
(5.19787 -3.51534e-20 7.64496)
(4.46804 3.52044e-20 8.42812)
(3.51583 -2.39108e-18 9.22616)
(2.11129 2.41399e-18 9.89428)
(7.55685 -5.88021e-19 4.88508)
(7.31213 0 5.40221)
(7.03917 -1.02912e-18 5.9806)
(6.72655 1.07998e-18 6.63314)
(6.3551 3.43969e-20 7.37704)
(5.89145 -1.01796e-18 8.23475)
(5.26144 2.07434e-18 9.23864)
(4.36805 -1.06231e-18 10.4121)
(2.72691 3.41675e-20 11.7627)
(7.9037 -4.70754e-19 5.06836)
(7.71679 5.10455e-19 5.60911)
(7.51541 -7.82405e-21 6.21895)
(7.29409 0 6.91586)
(7.04297 0 7.72674)
(6.74461 -9.6378e-19 8.69436)
(6.34564 1.85514e-18 9.89896)
(5.76813 -2.03603e-19 11.5109)
(3.86976 -7.89145e-19 14.5454)
(0.146239 5.19485e-21 -0.16187)
(0.352602 -5.96711e-23 -0.151484)
(0.565567 -4.83104e-21 -0.12436)
(0.75773 -1.39289e-22 -0.097736)
(0.917326 -4.1546e-21 -0.0747349)
(1.04488 4.04566e-21 -0.0550746)
(1.14386 0 -0.0380444)
(1.21675 2.23551e-22 -0.0231594)
(1.26507 -2.14498e-22 -0.0102693)
(1.29034 -2.0699e-22 0.000407047)
(0.108398 -6.31014e-22 -0.338205)
(0.312893 -9.80539e-21 -0.329203)
(0.511696 9.46497e-21 -0.279495)
(0.693118 9.11033e-21 -0.228356)
(0.849373 -8.19486e-21 -0.183685)
(0.981568 -7.51372e-21 -0.145103)
(1.09289 1.90598e-22 -0.11106)
(1.18565 6.54842e-21 -0.0804573)
(1.26124 -2.1161e-22 -0.0527739)
(1.32035 -2.6701e-21 -0.028183)
(0.073855 -1.92817e-20 -0.522545)
(0.249081 7.41673e-23 -0.510404)
(0.409868 -1.40806e-22 -0.438496)
(0.558363 -1.73119e-20 -0.364395)
(0.687682 1.90839e-22 -0.299785)
(0.799491 1.54722e-20 -0.243975)
(0.896481 -4.58307e-22 -0.194674)
(0.980377 4.44636e-22 -0.150314)
(1.05229 -4.20573e-22 -0.110064)
(1.11309 5.33294e-21 -0.0738467)
(0.0448344 -3.86044e-20 -0.674912)
(0.181446 -1.86025e-20 -0.650952)
(0.29792 3.57293e-20 -0.556793)
(0.409082 -1.70706e-20 -0.464407)
(0.505445 0 -0.385524)
(0.590013 0 -0.318089)
(0.665186 1.58621e-20 -0.258978)
(0.732265 -2.15074e-22 -0.206126)
(0.792098 -1.28156e-20 -0.158345)
(0.845524 8.25716e-22 -0.115082)
(0.0183778 3.75157e-20 -0.793182)
(0.110299 -3.6063e-20 -0.750732)
(0.179797 3.4923e-20 -0.635987)
(0.252494 3.24418e-20 -0.530967)
(0.312482 -3.18726e-20 -0.443074)
(0.365054 0 -0.368614)
(0.412417 -9.12939e-22 -0.303837)
(0.455713 -1.39443e-20 -0.246301)
(0.495364 1.45011e-20 -0.1951)
(0.533353 1.31968e-20 -0.149513)
(-0.00495971 0 -0.874938)
(0.0369717 0 -0.808079)
(0.060114 0 -0.674779)
(0.0946457 2.56708e-22 -0.561309)
(0.116893 3.09911e-20 -0.467492)
(0.134874 -3.12256e-20 -0.388637)
(0.150399 0 -0.320654)
(0.16462 0 -0.260398)
(0.176948 8.58905e-22 -0.206466)
(0.190401 0 -0.158688)
(-0.0238298 0 -0.91683)
(-0.0380601 0 -0.82136)
(-0.0566997 -3.34001e-20 -0.674706)
(-0.0601137 9.89395e-22 -0.556288)
(-0.0741282 3.13604e-20 -0.459867)
(-0.0895762 -2.99307e-20 -0.380181)
(-0.104936 2.74585e-20 -0.313047)
(-0.118091 0 -0.255559)
(-0.126592 -3.45699e-21 -0.205939)
(-0.128632 0 -0.163012)
(-0.0410919 0 -0.915884)
(-0.112735 0 -0.790582)
(-0.168373 -3.32456e-20 -0.638857)
(-0.210096 4.10245e-22 -0.520862)
(-0.256693 3.1324e-20 -0.426577)
(-0.300095 3.10109e-20 -0.351136)
(-0.338164 -2.75835e-20 -0.289724)
(-0.367756 0 -0.239323)
(-0.387932 -1.75182e-23 -0.197015)
(-0.399411 -1.19708e-20 -0.16072)
(-0.0593525 -1.39932e-22 -0.871255)
(-0.185569 0 -0.72211)
(-0.277886 3.32947e-20 -0.569501)
(-0.357024 -8.73807e-22 -0.45547)
(-0.433532 -3.24388e-20 -0.368534)
(-0.499877 0 -0.303007)
(-0.553236 0 -0.253159)
(-0.594226 -3.07494e-20 -0.213439)
(-0.62356 4.42206e-20 -0.180528)
(-0.642177 -1.38325e-20 -0.152483)
(-0.0796299 1.40231e-22 -0.784365)
(-0.261801 0 -0.611233)
(-0.393592 0 -0.462264)
(-0.510445 -3.13646e-20 -0.358804)
(-0.61275 3.4624e-20 -0.289404)
(-0.696913 0 -0.241404)
(-0.763729 -2.99831e-20 -0.206554)
(-0.814644 2.92783e-20 -0.179818)
(-0.851547 -1.80871e-21 -0.157976)
(-0.876462 -3.52836e-21 -0.139126)
(-0.102358 0 -0.649558)
(-0.34756 0 -0.444831)
(-0.52523 3.35358e-20 -0.313066)
(-0.677366 -3.38481e-20 -0.237564)
(-0.80375 3.16947e-20 -0.193409)
(-0.904364 -2.90381e-20 -0.167516)
(-0.982126 0 -0.151461)
(-1.04062 3.71591e-21 -0.14015)
(-1.0833 1.81283e-21 -0.130676)
(-1.11318 1.78046e-21 -0.121575)
(-0.12656 7.38281e-20 -0.437707)
(-0.447726 0 -0.231208)
(-0.684081 0 -0.134659)
(-0.871809 0 -0.0939825)
(-1.01884 -1.98697e-21 -0.0828568)
(-1.13069 -5.02252e-24 -0.0849335)
(-1.2145 0 -0.0910025)
(-1.27666 -1.87243e-21 -0.0967469)
(-1.32194 1.86493e-21 -0.100375)
(-1.35418 0 -0.101244)
(-0.186288 7.02594e-20 -0.113788)
(-0.628302 0 0.107589)
(-0.933093 0 0.113967)
(-1.13689 0 0.0767507)
(-1.2805 -1.93224e-21 0.0347372)
(-1.383 3.12603e-20 -0.00250846)
(-1.45876 -2.8573e-20 -0.0317145)
(-1.51717 -1.72202e-20 -0.0536493)
(-1.55996 1.3062e-20 -0.0700967)
(-1.59046 1.49246e-20 -0.0806899)
(-0.28364 -6.67088e-20 0.454854)
(-0.8226 0 0.517558)
(-1.19507 -3.02582e-20 0.374204)
(-1.40764 2.95881e-20 0.22924)
(-1.54397 1.93158e-21 0.137234)
(-1.63629 -1.93123e-21 0.0706307)
(-1.70095 -1.9237e-21 0.0205202)
(-1.7473 -1.40696e-23 -0.0160146)
(-1.78227 1.53291e-20 -0.0438515)
(-1.8068 -1.49476e-20 -0.0632495)
(-0.481654 3.60234e-20 1.31719)
(-1.11225 2.35028e-20 1.14764)
(-1.56634 -1.19392e-21 0.650868)
(-1.73014 -1.7187e-21 0.32361)
(-1.80574 1.51764e-20 0.222812)
(-1.86886 -1.29443e-20 0.136939)
(-1.91447 0 0.0559608)
(-1.94822 1.92137e-21 0.00940125)
(-1.97235 -1.55244e-20 -0.0243723)
(-1.98733 1.51383e-20 -0.0509339)
(8.27596 -4.72123e-19 5.20877)
(8.15394 0 5.76095)
(8.03476 -4.63577e-19 6.38451)
(7.92205 9.24916e-19 7.09878)
(7.8231 -4.60496e-19 7.93323)
(7.75849 1.4006e-20 8.9355)
(7.78198 -4.69681e-20 10.1903)
(8.43326 2.00848e-19 11.8026)
(8.88318 -2.95085e-20 14.7035)
(8.65983 0 5.29924)
(8.60425 0 5.84825)
(8.56853 -1.99422e-20 6.46377)
(8.56456 -4.19744e-19 7.16106)
(8.61377 4.75039e-19 7.96057)
(8.75938 -4.73472e-20 8.88794)
(9.03037 1.30189e-19 9.97281)
(9.7461 -7.1342e-20 11.1638)
(10.3821 -1.8448e-19 12.3249)
(9.04444 1.6533e-20 5.33854)
(9.05121 1.8507e-19 5.87039)
(9.09029 9.40442e-22 6.45805)
(9.17606 1.95174e-19 7.10949)
(9.32917 -2.467e-19 7.83152)
(9.58276 9.02967e-20 8.62395)
(9.93131 -8.28353e-20 9.47144)
(10.5062 1.40083e-19 10.3316)
(11.2534 1.06211e-19 11.0905)
(9.41932 -1.25998e-20 5.32803)
(9.48021 2.1893e-19 5.83188)
(9.57994 -1.71957e-19 6.37857)
(9.73118 -4.52639e-20 6.96986)
(9.94913 1.36118e-19 7.60419)
(10.2564 -4.54157e-20 8.2735)
(10.6542 -7.65094e-20 8.95982)
(11.202 -8.18414e-22 9.66013)
(12.0081 0 10.3265)
(9.88152 0 5.74135)
(10.0279 0 6.24108)
(10.2257 -8.84084e-20 6.76962)
(10.4862 4.3786e-20 7.32234)
(10.8257 -2.47237e-21 7.8909)
(11.2521 3.61543e-20 8.45948)
(11.7817 -6.66254e-20 9.02028)
(12.5205 0 9.53417)
(10.6602 4.15895e-20 6.52715)
(10.9466 -3.91183e-20 7.00529)
(11.2997 3.96576e-20 7.48491)
(11.7255 0 7.95065)
(12.2208 -1.21624e-19 8.38793)
(12.8727 1.23283e-19 8.77359)
(11.6867 -5.17264e-21 7.06847)
(12.0965 6.01009e-20 7.44959)
(12.5555 -1.01845e-19 7.79645)
(13.1357 -1.07599e-19 8.09756)
(12.8133 2.8257e-19 7.2507)
(13.3323 -1.27594e-20 7.4911)
(10.2153 -4.64674e-19 12.7781)
(6.6183 -3.2933e-19 10.079)
(0.0459597 -9.13898e-20 6.21841)
(10.8505 7.01958e-20 10.6892)
(10.1741 0 9.20448)
(8.65035 0 7.68609)
(11.7746 7.22497e-20 10.7546)
(11.96 -1.41321e-19 10.1575)
(11.699 1.03824e-19 9.32717)
(12.5094 1.41608e-19 10.387)
(12.8399 -1.4181e-19 10.2135)
(12.933 -2.41786e-20 9.82125)
(12.9554 1.76714e-19 9.65031)
(13.3126 -1.54685e-19 9.6462)
(13.5462 0 9.5211)
(13.2537 -2.11526e-20 8.89423)
(13.6012 0 8.9562)
(13.8745 -1.84388e-20 8.95527)
(13.4721 1.88393e-19 8.20566)
(13.7893 0 8.28149)
(14.0523 1.80604e-20 8.32301)
(13.6295 -3.68843e-19 7.5807)
(13.9119 1.77445e-19 7.64962)
(14.1498 0 7.69835)
(13.9901 -3.5143e-19 7.06964)
(14.2021 1.5949e-19 7.11454)
(-3.26679 4.1259e-20 0.713545)
(-1.74892 0 0.737185)
(-2.24224 1.05787e-20 0.301523)
(-2.12948 -8.0585e-21 0.288186)
(-2.02013 0 0.360027)
(-2.08068 -1.80231e-21 0.190584)
(-2.10282 0 0.0363938)
(-2.10404 0 0.025501)
(-2.11722 -1.51361e-20 0.00426705)
(6.63576 1.00614e-20 5.22511)
(4.20292 1.0218e-22 3.36916)
(1.94205 4.60394e-21 1.91854)
(-1.1834 -4.26103e-21 0.272132)
(-2.00961 -6.29162e-21 0.00835262)
(-2.27517 7.13266e-21 -0.151787)
(-2.17516 -7.72298e-21 -0.0313124)
(-2.14437 1.59894e-20 0.137916)
(-2.19507 -7.3221e-21 0.0501098)
(10.6895 -5.44952e-20 7.40343)
(9.00644 0 5.68742)
(7.11694 5.20623e-21 4.29195)
(5.18399 -1.16269e-21 3.08885)
(3.39423 3.88919e-21 2.11095)
(1.9836 -4.57413e-21 1.2802)
(-0.937567 8.51012e-21 0.145593)
(-1.83612 -1.59651e-20 -0.0870531)
(-2.13457 6.61373e-21 -0.264144)
(12.6359 0 8.53426)
(11.8019 0 7.16045)
(10.6247 -3.73259e-21 5.91067)
(9.27616 7.7291e-22 4.7711)
(7.82847 -3.36421e-21 3.77717)
(6.42596 2.50514e-21 2.97008)
(4.91455 -2.96173e-22 2.25819)
(3.51133 4.91123e-22 1.63323)
(2.42219 8.5102e-21 1.07029)
(13.6775 0 8.82676)
(13.4141 -2.46318e-20 7.88598)
(12.8315 -2.30329e-20 6.89864)
(12.0184 1.87084e-20 5.9326)
(11.041 -5.08643e-21 5.03875)
(9.97939 -1.76201e-22 4.25342)
(8.85316 2.78779e-22 3.531)
(7.6804 -4.50148e-22 2.86748)
(6.53312 -4.20739e-21 2.31135)
(14.2142 1.83061e-20 8.64444)
(14.3008 6.30763e-20 8.07685)
(14.1503 -2.70957e-20 7.38221)
(13.7772 0 6.63767)
(13.218 5.65631e-21 5.89261)
(12.5219 -5.63322e-21 5.18132)
(11.7265 -6.22436e-24 4.50587)
(10.8563 -3.23555e-21 3.87907)
(9.94482 5.52704e-21 3.32974)
(14.4615 -1.79171e-20 8.22096)
(14.7375 -1.46168e-20 7.91864)
(14.8681 -2.65262e-21 7.47538)
(14.8185 0 6.94484)
(14.595 0 6.36836)
(14.2261 0 5.77897)
(13.7415 0 5.19621)
(13.1639 -2.3389e-23 4.63564)
(12.5149 2.56231e-22 4.11332)
(14.5579 0 7.69476)
(14.9139 0 7.55716)
(15.2016 1.39286e-20 7.29925)
(15.364 1.6351e-20 6.94798)
(15.3857 -1.71051e-20 6.53165)
(15.2778 0 6.07648)
(15.0571 0 5.60294)
(14.7383 2.75237e-21 5.12704)
(14.3365 -1.56453e-21 4.6627)
(14.5811 0 7.14959)
(14.9526 0 7.10168)
(15.309 0 6.96439)
(15.5907 1.43146e-20 6.74614)
(15.7715 -5.58927e-21 6.46225)
(15.8504 5.66189e-21 6.12972)
(15.8328 0 5.76444)
(15.7254 -1.04151e-21 5.38054)
(15.5365 -5.93256e-21 4.99063)
(14.9248 7.85023e-20 6.62058)
(15.2957 -7.90618e-21 6.55363)
(15.6297 -6.70456e-21 6.424)
(15.8988 -1.10872e-19 6.23803)
(16.0959 6.80961e-20 6.00488)
(16.2194 -4.15911e-20 5.73477)
(16.2695 2.01487e-20 5.43813)
(16.2483 7.25411e-21 5.12504)
(15.8766 5.58508e-20 5.92433)
(16.1371 0 5.76442)
(16.3468 0 5.56994)
(16.5022 1.94521e-20 5.34752)
(16.6012 -1.91129e-20 5.10427)
(16.3174 0 5.32004)
(16.5343 0 5.15554)
(16.7104 -1.34646e-21 4.97012)
(16.6688 2.81723e-20 4.76125)
)
;

boundaryField
{
    inlet
    {
        type            fixedValue;
        value           nonuniform 0();
    }
    outlet
    {
        type            zeroGradient;
    }
    flap
    {
        type            movingWallVelocity;
        value           nonuniform List<vector> 
33
(
(1.33651e-18 0 9.62919e-17)
(-4.00912e-16 0 -1.38662e-14)
(-1.21402e-15 -2.77556e-14 -2.77024e-14)
(-1.86072e-32 2.77556e-14 1.0456e-33)
(-3.08216e-17 4.65384e-33 -4.6143e-16)
(0 0 0)
(-4.70502e-15 0 -5.48094e-14)
(0 -2.77556e-14 0)
(0 0 0)
(-1.23326e-14 0 -1.09635e-13)
(-7.5387e-19 0 -6.34815e-18)
(0 -2.77556e-14 0)
(1.36815e-14 0 1.0931e-13)
(0 0 0)
(0 0 0)
(-6.8308e-15 5.86698e-34 8.59291e-16)
(1.38196e-14 -2.77556e-14 -1.74772e-15)
(1.09794e-16 -2.77556e-14 -1.38345e-17)
(-1.21069e-18 -2.77556e-14 -9.16482e-17)
(-4.0296e-16 0 -1.38661e-14)
(0 0 0)
(-2.18707e-17 -4.73386e-33 -3.88947e-16)
(3.0885e-17 -4.72619e-33 4.61902e-16)
(0 0 0)
(-4.83395e-15 0 -5.62878e-14)
(0 2.77556e-14 0)
(0 0 0)
(-1.23349e-14 -2.77556e-14 -1.09635e-13)
(0 0 0)
(-1.36507e-14 3.10784e-34 -1.1105e-13)
(1.36786e-14 1.87057e-32 1.09311e-13)
(-1.37577e-14 -2.77556e-14 -1.0929e-13)
(-2.80116e-14 -3.49784e-34 -2.22012e-13)
)
;
    }
    upperWall
    {
        type            noSlip;
    }
    lowerWall
    {
        type            noSlip;
    }
    frontAndBack
    {
        type            empty;
    }
    procBoundary4to1
    {
        type            processor;
        value           nonuniform List<vector> 
30
(
(9.7761 -2.32396e-20 5.27221)
(9.7761 -2.32396e-20 5.27221)
(10.2496 0 5.6082)
(10.4307 -4.40326e-20 6.05943)
(10.4307 -4.40326e-20 6.05943)
(11.036 3.91058e-20 6.25523)
(11.3342 -1.14585e-19 6.66613)
(11.3342 -1.14585e-19 6.66613)
(12.0008 -1.04343e-19 6.65507)
(12.389 6.95951e-20 6.96969)
(12.389 6.95951e-20 6.96969)
(13.0095 3.07792e-20 6.74345)
(13.4753 1.09975e-19 6.93779)
(13.739 -3.61509e-19 7.01121)
(13.739 -3.61509e-19 7.01121)
(14.0365 1.12891e-20 6.54003)
(14.2257 -1.07882e-20 6.57921)
(14.569 0 6.62538)
(14.569 0 6.62538)
(14.867 1.09632e-20 6.14865)
(15.2251 9.90487e-21 6.11945)
(15.5698 8.16549e-21 6.04407)
(15.5698 8.16549e-21 6.04407)
(15.7778 -6.95905e-20 5.56872)
(16.0637 1.22674e-19 5.45903)
(16.0637 1.22674e-19 5.45903)
(16.2036 2.84643e-22 5.02406)
(16.4499 4.76799e-20 4.90205)
(16.4499 4.76799e-20 4.90205)
(16.5439 -1.25772e-22 4.50862)
)
;
    }
    procBoundary4to2
    {
        type            processor;
        value           nonuniform List<vector> 
11
(
(-2.04548 -2.12687e-21 -0.230078)
(0.43101 1.84667e-20 0.337981)
(5.33562 -3.13844e-21 1.8536)
(9.01079 -1.84086e-21 2.84608)
(11.8157 -9.47879e-22 3.62903)
(13.8679 2.04714e-21 4.21728)
(15.2762 -5.85543e-21 4.60401)
(16.1604 7.14426e-21 4.80414)
(16.6443 0 4.84712)
(16.8436 9.37466e-24 4.76877)
(16.8572 -2.01985e-21 4.60501)
)
;
    }
    procBoundary4to3
    {
        type            processor;
        value           nonuniform List<vector> 
19
(
(4.19535 0 0.2685)
(5.05807 -2.08886e-20 0.6792)
(5.47729 2.06488e-20 1.11199)
(5.72535 3.22793e-19 1.50332)
(5.9043 6.43577e-19 1.86737)
(6.06001 6.32444e-19 2.21274)
(6.2146 -6.95654e-20 2.54398)
(6.37947 1.50986e-19 2.86304)
(6.5609 4.45851e-19 3.16974)
(6.76229 -5.72644e-19 3.46228)
(6.98524 7.07504e-20 3.73761)
(7.23012 5.44306e-19 3.99185)
(7.49597 4.96371e-19 4.2206)
(7.78037 -1.02722e-18 4.41942)
(8.07937 3.15319e-20 4.58408)
(8.39874 -4.57681e-19 4.71456)
(8.72823 -7.00131e-21 4.8054)
(9.06038 2.01745e-19 4.85521)
(9.38762 2.18926e-19 4.86389)
)
;
    }
    procBoundary4to5
    {
        type            processor;
        value           nonuniform List<vector> 
18
(
(1.29536 1.5435e-23 0.00833179)
(1.36334 3.73738e-22 -0.00740675)
(1.16327 6.03393e-21 -0.0424267)
(0.892542 0 -0.0771905)
(0.569216 1.13094e-20 -0.109122)
(0.205554 -1.14405e-20 -0.116949)
(-0.124792 0 -0.125785)
(-0.402408 -1.50856e-20 -0.129486)
(-0.651213 -2.64914e-23 -0.128296)
(-0.891309 1.71959e-21 -0.122397)
(-1.13279 0 -0.112478)
(-1.37637 0 -0.0997057)
(-1.61197 2.92918e-20 -0.0861478)
(-1.8243 1.87881e-21 -0.0741732)
(-1.99784 -1.8781e-21 -0.0652275)
(-2.12194 -1.28858e-20 -0.0433557)
(-2.12194 -1.28858e-20 -0.0433557)
(-2.20592 -1.8305e-21 -0.0979244)
)
;
    }
}


// ************************************************************************* //
