/*--------------------------------*- C++ -*----------------------------------*\
| =========                 |                                                 |
| \\      /  F ield         | OpenFOAM: The Open Source CFD Toolbox           |
|  \\    /   O peration     | Version:  dev                                   |
|   \\  /    A nd           | Web:      www.OpenFOAM.org                      |
|    \\/     M anipulation  |                                                 |
\*---------------------------------------------------------------------------*/
FoamFile
{
    version     2.0;
    format      ascii;
    class       surfaceScalarField;
    location    "3.84";
    object      phi;
}
// * * * * * * * * * * * * * * * * * * * * * * * * * * * * * * * * * * * * * //

dimensions      [0 3 -1 0 0 0 0];

internalField   nonuniform List<scalar> 
881
(
0.198343
0.00165343
0.19636
0.00197999
0.194018
0.00233824
0.191281
0.00273517
0.188144
0.00313455
0.184609
0.00353272
0.180669
0.00393743
0.176312
0.00435584
0.171517
0.00479295
0.166263
0.00525258
0.160525
0.00573793
0.154272
0.00625157
0.147477
0.00679516
0.140108
0.00736907
0.132136
0.00797181
0.123538
0.00859931
0.114295
0.009244
0.104402
0.00989371
0.0938732
0.0105305
0.082745
0.0111297
0.0116585
0.199896
0.00175389
0.199096
0.00277666
0.19784
0.00359076
0.196159
0.00441366
0.194048
0.00524298
0.191505
0.00607417
0.188521
0.006919
0.185085
0.00779063
0.181177
0.00869907
0.176776
0.00965224
0.171856
0.0106568
0.166389
0.0117183
0.160343
0.0128406
0.153687
0.014025
0.14639
0.0152694
0.138423
0.0165666
0.129765
0.0179029
0.120405
0.0192553
0.110348
0.0205895
0.0996216
0.0218572
0.022994
0.199748
0.0020026
0.199008
0.00351286
0.197823
0.00477251
0.196242
0.00599276
0.194268
0.00721401
0.191899
0.00844043
0.18913
0.0096861
0.185951
0.0109684
0.182347
0.0123018
0.178299
0.0136984
0.173787
0.0151683
0.168784
0.0167202
0.163264
0.0183606
0.157196
0.0200928
0.150551
0.0219156
0.143296
0.0238214
0.135407
0.0257931
0.126862
0.0278018
0.117651
0.029802
0.107781
0.0317285
0.0334919
0.199666
0.00233282
0.198928
0.00424749
0.197764
0.00593334
0.196209
0.0075452
0.194275
0.00914576
0.191961
0.0107522
0.189263
0.0123818
0.186175
0.0140545
0.182687
0.0157885
0.178785
0.0175991
0.174453
0.0194991
0.169673
0.0214998
0.164423
0.0236098
0.158682
0.0258344
0.152424
0.0281737
0.145625
0.0306208
0.138261
0.0331587
0.130308
0.0357561
0.121748
0.0383632
0.112572
0.040906
0.0432807
0.199629
0.00270003
0.198885
0.00498825
0.197741
0.00707415
0.196216
0.00906788
0.194321
0.0110375
0.192059
0.0130119
0.189427
0.0150127
0.186417
0.0170624
0.183022
0.0191815
0.179232
0.0213879
0.175034
0.0236968
0.170412
0.026121
0.165351
0.0286707
0.159833
0.0313524
0.153839
0.0341677
0.14735
0.0371107
0.140344
0.0401653
0.1328
0.0433014
0.124696
0.0464693
0.116009
0.049594
0.0525675
0.199614
0.00308203
0.19887
0.00572885
0.197751
0.00819066
0.196263
0.0105523
0.194419
0.0128795
0.192219
0.0152095
0.189661
0.0175686
0.18674
0.0199815
0.183449
0.0224712
0.179778
0.0250576
0.175716
0.0277577
0.171251
0.0305859
0.166367
0.0335536
0.161051
0.0366684
0.155286
0.0399332
0.149054
0.0433434
0.142336
0.0468851
0.135107
0.0505309
0.127343
0.0542349
0.119012
0.0579266
0.0615027
0.199612
0.00346638
0.198877
0.00646055
0.197787
0.00927775
0.196345
0.0119912
0.194559
0.0146627
0.192432
0.0173345
0.189961
0.0200372
0.187142
0.0227983
0.18397
0.0256427
0.180434
0.0285922
0.176525
0.0316657
0.172231
0.0348789
0.16754
0.0382448
0.162436
0.0417724
0.156903
0.0454659
0.150924
0.0493232
0.144477
0.0533332
0.137536
0.0574731
0.130069
0.0617035
0.122035
0.0659624
0.0701575
0.199617
0.00384535
0.198899
0.00717543
0.197844
0.0103298
0.196454
0.0133779
0.194736
0.0163785
0.192691
0.0193766
0.19032
0.0224069
0.187617
0.0254994
0.184577
0.0286808
0.181193
0.0319749
0.177456
0.0354023
0.173354
0.0389804
0.168874
0.0427239
0.164003
0.0466435
0.158724
0.0507458
0.153016
0.0550317
0.146856
0.0594944
0.140213
0.0641172
0.133049
0.0688695
0.125312
0.0737012
0.0785355
0.199628
0.00421374
0.198933
0.00786687
0.197918
0.0113409
0.196588
0.0147058
0.194945
0.0180187
0.192993
0.0213264
0.190731
0.0246668
0.188156
0.0280721
0.185264
0.0315712
0.182048
0.0351896
0.1785
0.0389495
0.17461
0.0428704
0.170365
0.0469686
0.165751
0.0512574
0.160751
0.0557462
0.155343
0.0604399
0.149502
0.0653372
0.143191
0.0704291
0.136366
0.0756958
0.128967
0.0811019
0.0865898
0.199642
0.00456779
0.198976
0.00852943
0.198008
0.0123057
0.196742
0.015969
0.195182
0.0195761
0.193331
0.0231752
0.191189
0.0268067
0.188754
0.030505
0.186023
0.0343009
0.18299
0.0382214
0.179648
0.0422906
0.175988
0.0465297
0.171999
0.0509573
0.167667
0.0555892
0.162976
0.0604384
0.157902
0.0655143
0.152418
0.0708223
0.146486
0.0763623
0.140057
0.0821266
0.133064
0.088097
0.0942386
0.199659
0.00490465
0.199026
0.00915862
0.19811
0.0132191
0.196914
0.0171618
0.195443
0.021044
0.193701
0.0249152
0.191688
0.0288176
0.189403
0.0327877
0.186845
0.0368579
0.184008
0.0410568
0.180888
0.04541
0.177476
0.0499406
0.173764
0.0546694
0.169739
0.0596149
0.165384
0.0647938
0.160678
0.0702206
0.155594
0.0759075
0.150094
0.0818642
0.144126
0.0880963
0.137621
0.094604
0.101378
0.199679
0.00522211
0.199083
0.00975076
0.198222
0.0140767
0.197101
0.0182793
0.195726
0.0224167
0.194099
0.0265395
0.192223
0.0306916
0.190098
0.0349112
0.187722
0.0392319
0.185094
0.0436839
0.182209
0.0482941
0.179062
0.0530873
0.175645
0.0580863
0.171947
0.0633123
0.167956
0.0687855
0.163652
0.0745254
0.15901
0.0805511
0.153994
0.0868817
0.148556
0.0935363
0.142627
0.100534
0.107893
0.1997
0.0055184
0.199144
0.0103028
0.198342
0.0148749
0.197301
0.0193171
0.196026
0.023689
0.194521
0.0280423
0.192789
0.032422
0.190831
0.0368677
0.188647
0.0414141
0.186237
0.0460925
0.183599
0.0509312
0.18073
0.0559561
0.177624
0.0611918
0.174275
0.0666619
0.170671
0.0723897
0.166798
0.0783989
0.162636
0.0847148
0.158154
0.0913651
0.153311
0.0983813
0.148047
0.1058
0.113665
0.199722
0.00579213
0.199209
0.0108124
0.19847
0.0156104
0.197512
0.0202717
0.196342
0.0248569
0.194963
0.0294187
0.19338
0.0340031
0.191595
0.0386507
0.18961
0.0433972
0.187427
0.0482745
0.185046
0.0533118
0.182465
0.058536
0.179684
0.0639729
0.176698
0.0696479
0.173502
0.0755866
0.170086
0.0818161
0.166435
0.0883664
0.16253
0.095272
0.158339
0.102574
0.153816
0.110324
0.118588
0.199746
0.199276
0.198602
0.016281
0.197731
0.0211401
0.196668
0.025917
0.195419
0.0306649
0.193989
0.0354307
0.192383
0.0402555
0.190603
0.0451757
0.188653
0.0502235
0.186535
0.0554286
0.184252
0.0608185
0.181805
0.0664197
0.179195
0.0722582
0.176421
0.0783613
0.17348
0.0847579
0.170367
0.091481
0.167072
0.0985691
0.163578
0.10607
0.159861
0.114043
0.122569
0.206354
0.205543
0.0219479
0.204557
0.0269002
0.203402
0.031817
0.202085
0.0367456
0.200611
0.0417275
0.198987
0.0467991
0.197216
0.0519929
0.195305
0.0573385
0.19326
0.0628635
0.191085
0.0685942
0.188787
0.0745568
0.18637
0.0807786
0.18384
0.0872891
0.181201
0.0941216
0.178456
0.101316
0.175607
0.10892
0.172655
0.116997
0.12563
0.21077
0.209885
0.0277825
0.208853
0.0328467
0.207681
0.0379154
0.206376
0.0430299
0.204947
0.0482265
0.203402
0.0535374
0.201748
0.0589915
0.199995
0.0646158
0.198153
0.070436
0.196233
0.0764772
0.194247
0.0827656
0.192208
0.0893291
0.190132
0.0961991
0.188037
0.103412
0.185945
0.111014
0.183884
0.11906
0.127622
0.215365
0.214466
0.0337431
0.213452
0.0389275
0.212331
0.0441487
0.211114
0.0494422
0.209811
0.0548394
0.208433
0.0603683
0.206994
0.0660545
0.205508
0.0719221
0.203991
0.0779943
0.202463
0.0842946
0.200945
0.0908478
0.199465
0.0976808
0.198054
0.104824
0.196755
0.112315
0.195623
0.120194
0.128516
0.220243
0.219398
0.03977
0.218474
0.0450705
0.217484
0.0504315
0.216439
0.0558831
0.215354
0.0614518
0.214247
0.0671613
0.213136
0.0730332
0.212043
0.0790879
0.210993
0.0853452
0.210016
0.0918249
0.209151
0.0985477
0.208441
0.105536
0.207944
0.112813
0.207733
0.120406
0.128343
0.225518
0.224803
0.0457835
0.224052
0.0511816
0.223279
0.0566547
0.222502
0.0622277
0.221741
0.0679215
0.221019
0.0737549
0.220363
0.0797444
0.219804
0.0859052
0.219378
0.0922513
0.219131
0.0987958
0.219117
0.105551
0.219404
0.112528
0.220077
0.119736
0.12718
0.231314
0.230812
0.230322
0.0571436
0.229863
0.0626852
0.229459
0.068325
0.229136
0.074078
0.228924
0.0799567
0.228858
0.0859711
0.228982
0.0921288
0.229344
0.0984349
0.230004
0.104892
0.231036
0.111498
0.232526
0.118247
0.125125
0.237557
0.237424
0.0628175
0.237382
0.0683662
0.237461
0.0739994
0.237693
0.0797251
0.238116
0.085548
0.238776
0.0914695
0.239725
0.0974871
0.241024
0.103594
0.242746
0.109778
0.244975
0.116019
0.12229
0.245169
0.24549
0.245967
0.0735215
0.246636
0.0790565
0.247535
0.0846491
0.248711
0.0902948
0.250214
0.0959845
0.252105
0.101704
0.254453
0.107432
0.257333
0.11314
0.118791
0.254629
0.255721
0.257076
0.0832944
0.258738
0.0886335
0.260756
0.093967
0.263186
0.0992749
0.266088
0.104531
0.269529
0.1097
0.114741
0.2667
0.268814
0.0865202
0.271302
0.09148
0.274212
0.0963653
0.277597
0.101146
0.281511
0.105787
0.110243
0.278901
0.28181
0.285142
0.0930338
0.288939
0.0973496
0.293244
0.101483
0.105391
0.295943
0.300086
0.304707
0.0968627
0.100268
0.315893
)
;

boundaryField
{
    inlet
    {
        type            calculated;
        value           nonuniform List<scalar> 
15
(
-0.2
-0.2
-0.2
-0.2
-0.2
-0.2
-0.2
-0.2
-0.2
-0.2
-0.2
-0.2
-0.2
-0.2
-0.2
)
;
    }
    outlet
    {
        type            calculated;
        value           nonuniform 0();
    }
    flap
    {
        type            calculated;
        value           nonuniform 0();
    }
    upperWall
    {
        type            calculated;
        value           nonuniform 0();
    }
    lowerWall
    {
        type            calculated;
        value           uniform 0;
    }
    frontAndBack
    {
        type            empty;
        value           nonuniform 0();
    }
    procBoundary3to0
    {
        type            processor;
        value           nonuniform List<scalar> 
34
(
0.00604239
0.0112778
-0.206983
0.0169062
-0.211501
0.0226753
-0.21614
0.0285545
-0.220998
0.0344957
-0.226183
0.0404322
-0.23181
0.0462778
0.0516818
-0.237757
0.0573419
-0.244974
0.0626216
0.0680445
-0.25376
0.0726526
0.0779643
-0.264916
0.0815098
-0.276374
0.0839936
0.0885715
-0.292248
0.0893385
0.0932071
-0.311024
0.0919937
0.0949417
)
;
    }
    procBoundary3to1
    {
        type            processor;
        value           nonuniform List<scalar> 9(0.221242 0.234583 0.247811 0.260833 0.273581 0.28601 0.298096 0.309831 0.32122);
    }
    procBoundary3to4
    {
        type            processor;
        value           nonuniform List<scalar> 
19
(
0.071088
0.0882876
0.0972848
0.102785
0.106724
0.110079
0.113382
0.116935
0.120915
0.125417
0.130483
0.136115
0.142276
0.148896
0.155882
0.169596
0.181894
0.19473
0.207908
)
;
    }
}


// ************************************************************************* //
