/*--------------------------------*- C++ -*----------------------------------*\
| =========                 |                                                 |
| \\      /  F ield         | OpenFOAM: The Open Source CFD Toolbox           |
|  \\    /   O peration     | Version:  dev                                   |
|   \\  /    A nd           | Web:      www.OpenFOAM.org                      |
|    \\/     M anipulation  |                                                 |
\*---------------------------------------------------------------------------*/
FoamFile
{
    version     2.0;
    format      ascii;
    class       volVectorField;
    location    "1.95";
    object      Force;
}
// * * * * * * * * * * * * * * * * * * * * * * * * * * * * * * * * * * * * * //

dimensions      [1 1 -2 0 0 0 0];

internalField   uniform (0 0 0);

boundaryField
{
    inlet
    {
        type            calculated;
        value           uniform (0 0 0);
    }
    outlet
    {
        type            calculated;
        value           uniform (0 0 0);
    }
    flap
    {
        type            calculated;
        value           nonuniform List<vector> 
33
(
(2.53173 -3.11653e-18 -0.243662)
(2.45294 -2.04642e-17 -0.560515)
(2.28564 -1.43123e-21 -0.834424)
(2.05261 4.6494e-21 -1.00669)
(1.79695 -4.70198e-38 -1.09012)
(1.55093 0 -1.10775)
(1.33171 0 -1.08197)
(1.14642 1.7865e-17 -1.03031)
(0.992666 7.31089e-18 -0.963806)
(0.864542 -1.66858e-17 -0.888112)
(0.754866 7.47336e-23 -0.805511)
(0.654143 -1.48214e-24 -0.714174)
(0.552394 4.70198e-38 -0.609688)
(0.438908 8.37123e-22 -0.484509)
(0.299083 2.40814e-18 -0.32936)
(0.611656 5.87747e-39 0.543593)
(0.392096 1.02856e-38 0.348844)
(0.177073 5.87747e-39 0.158512)
(0.0446792 -3.67342e-40 -0.00440425)
(0.0444228 1.14195e-17 -0.0102917)
(0.0436665 1.18883e-17 -0.016161)
(0.0425197 1.23514e-17 -0.0210574)
(0.0411687 -1.46937e-39 -0.025219)
(0.0397812 1.40097e-19 -0.0287028)
(0.0384794 6.32225e-23 -0.0315908)
(0.0372912 1.40368e-17 -0.03391)
(0.0362278 -7.71418e-39 -0.0356469)
(0.0352271 2.8025e-19 -0.0367415)
(0.034187 -5.53567e-23 -0.0371143)
(0.0332065 -2.70989e-19 -0.0369387)
(0.032371 -3.903e-22 -0.0364292)
(0.0323206 -1.99953e-17 -0.0359326)
(0.0389982 5.24577e-22 -0.0436372)
)
;
    }
    upperWall
    {
        type            calculated;
        value           uniform (0 0 0);
    }
    lowerWall
    {
        type            calculated;
        value           uniform (0 0 0);
    }
    frontAndBack
    {
        type            empty;
    }
}


// ************************************************************************* //
