/*--------------------------------*- C++ -*----------------------------------*\
| =========                 |                                                 |
| \\      /  F ield         | OpenFOAM: The Open Source CFD Toolbox           |
|  \\    /   O peration     | Version:  dev                                   |
|   \\  /    A nd           | Web:      www.OpenFOAM.org                      |
|    \\/     M anipulation  |                                                 |
\*---------------------------------------------------------------------------*/
FoamFile
{
    version     2.0;
    format      ascii;
    class       volVectorField;
    location    "1.59";
    object      U;
}
// * * * * * * * * * * * * * * * * * * * * * * * * * * * * * * * * * * * * * //

dimensions      [0 1 -1 0 0 0 0];

internalField   nonuniform List<vector> 
2790
(
(9.93691 0 0.0179357)
(9.86982 -2.65918e-21 0.0242586)
(9.78043 2.77941e-21 0.0280654)
(9.67597 0 0.0319664)
(9.56172 0 0.0359825)
(9.4385 -6.43346e-21 0.0400604)
(9.30562 2.01903e-20 0.0443177)
(9.16241 1.37363e-22 0.0488906)
(9.00824 -2.94889e-20 0.0538889)
(8.84238 1.56157e-20 0.059416)
(8.66391 -4.08642e-20 0.0655839)
(8.47175 3.40148e-20 0.0725183)
(8.26459 0 0.0803641)
(8.04097 -2.36481e-21 0.0892909)
(7.79924 -4.0192e-20 0.0994966)
(7.53753 -3.7841e-20 0.111208)
(7.25373 8.76194e-20 0.124688)
(6.94554 0 0.140237)
(6.61044 -2.45334e-20 0.158201)
(6.24569 1.04633e-19 0.178974)
(5.84839 1.12542e-19 0.203001)
(5.41554 -6.21745e-20 0.230777)
(4.94408 2.39252e-19 0.262862)
(4.431 -1.26693e-19 0.299898)
(3.87343 5.35819e-19 0.342645)
(3.26869 -4.09795e-19 0.391981)
(2.61421 -1.42749e-19 0.448876)
(1.90758 0 0.514104)
(1.13645 -1.17119e-18 0.586861)
(0.491265 1.25489e-18 0.573963)
(10.0026 2.55067e-21 0.0343431)
(9.99709 -7.96151e-21 0.0478188)
(9.97074 5.54575e-21 0.0565059)
(9.92721 -1.16617e-20 0.0659182)
(9.87081 1.2149e-20 0.0760917)
(9.80257 0 0.0868197)
(9.72212 0 0.0983218)
(9.62895 -2.81815e-20 0.110894)
(9.52256 4.39451e-20 0.124788)
(9.40234 0 0.140252)
(9.26751 -8.08879e-21 0.157564)
(9.11705 6.84e-20 0.177037)
(8.94976 -7.08187e-20 0.199026)
(8.76429 -2.3353e-21 0.223946)
(8.55905 1.61412e-19 0.25228)
(8.33226 -2.27964e-21 0.284578)
(8.08187 -1.72893e-19 0.321461)
(7.80558 -4.16666e-19 0.363625)
(7.50081 4.07107e-19 0.411836)
(7.16471 -5.07408e-20 0.466922)
(6.79412 0 0.529746)
(6.38561 -5.10844e-19 0.601173)
(5.9354 4.67921e-19 0.682026)
(5.43937 -1.22656e-19 0.773053)
(4.89279 1.04378e-18 0.874925)
(4.28998 -9.31972e-19 0.988204)
(3.62311 2.37313e-18 1.11327)
(2.87936 -2.24785e-18 1.25112)
(2.01146 0 1.41333)
(1.1715 -6.08268e-19 1.62573)
(9.99998 -5.09202e-21 0.0331661)
(9.99216 -5.30665e-21 0.0519418)
(9.96848 1.1075e-20 0.0664053)
(9.92992 0 0.0818721)
(9.87952 -9.72182e-20 0.0986629)
(9.81835 0 0.116583)
(9.74624 0 0.135901)
(9.66277 3.33589e-22 0.157024)
(9.56752 -5.83043e-20 0.180334)
(9.45997 0 0.206233)
(9.33945 0 0.235173)
(9.20511 -3.37427e-20 0.267663)
(9.05593 0 0.304285)
(8.89074 -1.45458e-19 0.34572)
(8.70819 1.52749e-19 0.392769)
(8.50676 -3.21372e-19 0.446352)
(8.28465 3.42487e-19 0.507521)
(8.03986 9.07389e-20 0.577472)
(7.77007 0 0.657545)
(7.47264 5.02571e-20 0.749225)
(7.14454 9.55674e-19 0.854135)
(6.78224 1.2054e-18 0.973993)
(6.3816 1.1643e-18 1.11057)
(5.93759 -7.14449e-19 1.2657)
(5.44376 0 1.44133)
(4.89132 -2.35873e-18 1.63997)
(4.26723 2.12032e-18 1.86566)
(3.55081 3.82922e-18 2.12689)
(2.7016 -4.55431e-18 2.43748)
(1.68258 1.17465e-18 2.94946)
(9.99807 0 0.0342081)
(9.98773 -1.58402e-19 0.0599798)
(9.96382 -7.73221e-20 0.0817251)
(9.92627 -2.31219e-20 0.103721)
(9.87713 9.70931e-20 0.126928)
(9.81748 0 0.151483)
(9.74735 1.06306e-19 0.177786)
(9.66647 5.57626e-20 0.206375)
(9.57449 0 0.237782)
(9.47101 6.10775e-20 0.272565)
(9.35553 -6.40026e-20 0.311343)
(9.22736 3.04301e-19 0.354799)
(9.08571 -3.15146e-19 0.40371)
(8.92968 0 0.458984)
(8.75825 -3.12818e-19 0.52169)
(8.57026 3.12841e-19 0.593077)
(8.36436 0 0.674584)
(8.13903 -4.49603e-20 0.767876)
(7.89251 0 0.874854)
(7.62276 0 0.997676)
(7.32732 7.31092e-19 1.13881)
(7.00326 6.39774e-19 1.30104)
(6.64688 -2.26939e-19 1.48751)
(6.2534 0 1.70187)
(5.81626 0 1.9485)
(5.32609 0 2.23327)
(4.76949 3.59961e-18 2.56541)
(4.12149 -4.07508e-18 2.96566)
(3.41306 2.55868e-19 3.41106)
(2.24423 -5.00708e-18 4.27102)
(9.99708 0 0.0368392)
(9.98514 2.85223e-22 0.0682452)
(9.96083 2.64733e-19 0.0960548)
(9.92398 -1.84659e-19 0.123679)
(9.87595 0 0.152576)
(9.81764 0 0.183226)
(9.74919 3.74426e-22 0.216128)
(9.6704 -2.21337e-19 0.25189)
(9.58099 0 0.291149)
(9.48063 -1.70617e-22 0.334581)
(9.3689 2.01001e-22 0.382927)
(9.24528 -6.66119e-20 0.436998)
(9.10912 3.50298e-20 0.497711)
(8.95971 2.9537e-19 0.566141)
(8.7963 -6.14707e-19 0.643549)
(8.61803 3.19593e-19 0.731419)
(8.42396 6.80749e-19 0.83149)
(8.21304 -7.01443e-19 0.945793)
(7.98406 -9.21289e-20 1.07669)
(7.73567 0 1.22689)
(7.46623 0 1.39961)
(7.17366 -2.09519e-19 1.59866)
(6.85532 1.98741e-18 1.82853)
(6.50762 2.74328e-20 2.09475)
(6.1256 -1.39694e-18 2.40434)
(5.70201 -3.84691e-18 2.76675)
(5.22849 4.34168e-18 3.19416)
(4.66894 2.52718e-19 3.72291)
(4.18982 0 4.23685)
(2.8903 -8.13953e-18 5.42872)
(9.99657 0 0.0402675)
(9.9837 3.36268e-19 0.0765993)
(9.95923 -1.32066e-19 0.110045)
(9.92317 2.7626e-19 0.143298)
(9.87647 -1.92855e-19 0.177962)
(9.8198 -5.09753e-20 0.214741)
(9.75334 -2.44319e-22 0.254207)
(9.67697 2.21525e-19 0.297025)
(9.59043 -1.15013e-19 0.343919)
(9.49347 -3.03743e-19 0.395674)
(9.38574 3.15058e-19 0.453135)
(9.26686 3.32946e-19 0.517222)
(9.13632 7.27765e-20 0.588987)
(8.99359 -2.88322e-19 0.66966)
(8.83807 6.3109e-19 0.76066)
(8.66916 9.53132e-21 0.863649)
(8.48625 -6.60318e-19 0.980584)
(8.28868 -4.32669e-20 1.11378)
(8.07577 9.35032e-22 1.26595)
(7.84678 -1.52906e-18 1.44031)
(7.60086 -2.20634e-19 1.64066)
(7.33696 -1.62609e-18 1.87165)
(7.05374 -3.80921e-21 2.13896)
(6.74941 0 2.44967)
(6.42153 -6.74421e-19 2.81282)
(6.0663 0 3.24058)
(5.68529 0 3.74422)
(5.21625 -3.29579e-18 4.38257)
(5.00789 9.90614e-18 4.88926)
(3.5965 -7.56042e-18 6.35866)
(9.99634 3.31646e-19 0.0441059)
(9.98302 -1.99156e-19 0.0850441)
(9.95865 -1.53265e-19 0.123764)
(9.92352 -4.11227e-22 0.162442)
(9.87831 1.92202e-19 0.202663)
(9.82352 0 0.245292)
(9.75935 1.05149e-19 0.291001)
(9.68575 0 0.340527)
(9.60252 2.30801e-19 0.394681)
(9.50941 -1.19134e-19 0.454337)
(9.40623 -2.52524e-19 0.520436)
(9.29265 1.95563e-19 0.59398)
(9.16831 -6.21267e-19 0.676129)
(9.03285 5.70238e-19 0.768244)
(8.88587 -5.61492e-20 0.871881)
(8.72698 1.9499e-20 0.988836)
(8.55582 -6.59158e-19 1.12123)
(8.3721 -6.54763e-19 1.27157)
(8.17557 1.50209e-18 1.44284)
(7.96605 1.49086e-18 1.63862)
(7.74345 -1.42822e-18 1.86316)
(7.50774 2.00466e-19 2.12171)
(7.25897 -4.09453e-19 2.42079)
(6.99734 0 2.7686)
(6.72333 2.16014e-19 3.1754)
(6.43625 1.05128e-19 3.65498)
(6.15143 0 4.21308)
(5.76528 -3.20755e-18 4.94118)
(5.82999 3.07615e-18 5.38039)
(4.32577 0 7.05936)
(9.99628 -3.21087e-19 0.0481308)
(9.98285 0 0.093481)
(9.95886 4.41734e-20 0.13714)
(9.92481 -3.65203e-19 0.180986)
(9.88126 1.43153e-19 0.226534)
(9.82862 0 0.274758)
(9.76708 0 0.326429)
(9.6966 1.10282e-19 0.382357)
(9.61708 -2.27026e-19 0.443426)
(9.52827 1.20093e-19 0.510577)
(9.43011 -2.47548e-19 0.584815)
(9.32247 1.94671e-19 0.667226)
(9.20499 -6.76098e-20 0.759062)
(9.07749 0 0.861782)
(8.93978 3.70824e-20 0.977041)
(8.79168 -6.39886e-19 1.10675)
(8.6331 6.38201e-19 1.25315)
(8.46407 -1.34343e-18 1.41888)
(8.28473 2.80069e-18 1.60712)
(8.09543 -1.43193e-18 1.82167)
(7.8968 1.57019e-21 2.06711)
(7.68976 -1.54241e-18 2.34904)
(7.47567 1.86235e-18 2.67451)
(7.25664 0 3.05229)
(7.03604 4.96217e-20 3.49308)
(6.81522 -3.28986e-18 4.0116)
(6.62572 2.94947e-18 4.60354)
(6.31146 -5.79171e-18 5.40249)
(6.62467 5.53288e-18 5.74014)
(5.04704 -3.3984e-19 7.56197)
(9.99634 0 0.0522013)
(9.98304 -3.31833e-19 0.101802)
(9.95967 1.30535e-19 0.150103)
(9.92689 2.27457e-19 0.198844)
(9.88523 -1.90356e-19 0.249467)
(9.83499 -1.98287e-19 0.303011)
(9.77636 0 0.360334)
(9.70937 1.08536e-19 0.422316)
(9.63395 -1.14401e-19 0.489911)
(9.54991 3.52783e-19 0.56411)
(9.4573 1.24811e-19 0.645942)
(9.35607 -9.01281e-19 0.736572)
(9.24602 6.00262e-19 0.83735)
(9.12711 0 0.949798)
(8.99933 0 1.07564)
(8.86273 7.53082e-20 1.21684)
(8.71748 -1.26642e-18 1.37573)
(8.56393 1.25616e-18 1.55508)
(8.40261 -2.13006e-20 1.75813)
(8.23436 1.40456e-18 1.98884)
(8.06044 -1.34318e-18 2.25196)
(7.88265 0 2.55328)
(7.70352 -9.51834e-20 2.90002)
(7.52684 -2.99112e-18 3.30111)
(7.35859 -1.2364e-19 3.76699)
(7.20073 2.63366e-18 4.31326)
(7.10247 8.83207e-19 4.92206)
(6.84971 -1.28144e-18 5.77439)
(7.37189 2.07593e-18 6.00373)
(5.73996 -4.52734e-18 7.91135)
(9.99647 0 0.0562235)
(9.98351 6.61425e-19 0.109909)
(9.96096 3.45466e-19 0.162581)
(9.92963 -2.70533e-19 0.215933)
(9.89003 -9.42934e-20 0.271353)
(9.84242 1.97728e-19 0.329922)
(9.78695 0 0.392566)
(9.72373 2.15873e-19 0.460225)
(9.65272 -3.35792e-19 0.533914)
(9.57389 1.17707e-19 0.61467)
(9.48733 -1.20426e-19 0.703542)
(9.39296 0 0.801736)
(9.2908 0 0.910671)
(9.18101 -1.36939e-19 1.03191)
(9.06374 5.74998e-19 1.16721)
(8.93926 -6.65415e-19 1.3186)
(8.80799 0 1.48845)
(8.67057 -1.24107e-18 1.67958)
(8.52793 1.39206e-18 1.89529)
(8.38135 1.36182e-18 2.13956)
(8.23268 -1.38464e-18 2.41719)
(8.08448 0 2.73403)
(7.94031 0 3.09717)
(7.8053 -2.91287e-18 3.5154)
(7.68772 2.94876e-18 3.99847)
(7.58862 1.02928e-18 4.56314)
(7.57511 -2.58256e-18 5.17661)
(7.37673 -9.65824e-19 6.06638)
(8.06464 2.79452e-18 6.20506)
(6.39668 4.25754e-18 8.15656)
(9.99666 -1.97795e-20 0.0601313)
(9.98417 -6.37529e-19 0.11772)
(9.96263 -3.87809e-19 0.174501)
(9.93293 4.05217e-19 0.232178)
(9.89555 9.41779e-20 0.292105)
(9.85074 5.5036e-22 0.355387)
(9.79865 -3.07201e-19 0.423007)
(9.73942 2.1386e-19 0.495956)
(9.67302 -2.21405e-19 0.575276)
(9.59965 -2.30754e-19 0.662034)
(9.51949 4.8403e-19 0.757332)
(9.43244 -8.77844e-19 0.862409)
(9.33867 6.48466e-19 0.978689)
(9.23849 1.20072e-21 1.10775)
(9.13223 -4.24543e-19 1.25139)
(9.02036 7.23653e-19 1.41164)
(8.90355 1.35817e-18 1.59091)
(8.78273 -2.48335e-18 1.79198)
(8.65919 1.19258e-18 2.01814)
(8.53465 0 2.27335)
(8.41147 0 2.56238)
(8.29289 0 2.89094)
(8.18333 2.72078e-18 3.26591)
(8.08891 -2.72242e-18 3.6957)
(8.0197 0 4.18924)
(7.9751 -2.79797e-20 4.76451)
(8.03805 -6.11868e-19 5.37546)
(7.89153 4.0999e-18 6.28759)
(8.7068 -3.92379e-18 6.37283)
(7.02224 3.7915e-18 8.34579)
(9.9969 -1.96756e-20 0.063877)
(9.98499 6.74985e-19 0.125169)
(9.9646 3.41635e-19 0.185798)
(9.93668 0 0.247508)
(9.90168 3.72516e-19 0.311637)
(9.85984 0 0.379306)
(9.81132 2.0244e-19 0.451542)
(9.75629 2.11882e-19 0.529378)
(9.69481 -2.20863e-19 0.613855)
(9.62716 4.57654e-19 0.706045)
(9.55361 0 0.807115)
(9.47417 -6.20603e-19 0.918345)
(9.38914 -1.33128e-19 1.04114)
(9.29892 7.95734e-19 1.17706)
(9.20403 4.14662e-19 1.32789)
(9.10511 -8.51526e-19 1.49568)
(9.00307 -2.93537e-19 1.68278)
(8.89913 0 1.89192)
(8.79488 1.24156e-18 2.12634)
(8.69245 -2.3719e-18 2.38991)
(8.59467 -1.60302e-18 2.68727)
(8.50536 -6.53421e-21 3.02392)
(8.42969 -2.5942e-18 3.4064)
(8.37439 6.28025e-19 3.84276)
(8.35107 2.43949e-18 4.34111)
(8.35726 -2.98155e-18 4.92026)
(8.48756 0 5.52619)
(8.39581 0 6.44407)
(9.30754 0 6.52797)
(7.634 0 8.52266)
(9.99717 0 0.0674241)
(9.98594 3.95703e-20 0.1322)
(9.96682 -7.22844e-19 0.196414)
(9.9408 -8.89974e-20 0.261861)
(9.90831 -2.78905e-19 0.329877)
(9.86958 -3.85487e-19 0.401593)
(9.82482 -2.0168e-19 0.478066)
(9.77421 -2.08844e-19 0.560354)
(9.71793 -2.18519e-19 0.6495)
(9.65626 -9.66609e-24 0.746579)
(9.58948 -4.71645e-19 0.85279)
(9.51784 9.74883e-19 0.96943)
(9.44174 -1.01003e-18 1.09787)
(9.36169 3.8933e-19 1.23965)
(9.27838 2.68374e-19 1.39653)
(9.19261 -1.36536e-19 1.57051)
(9.10549 1.44067e-19 1.76388)
(9.01848 1.1764e-18 1.97928)
(8.93346 -8.99733e-19 2.21981)
(8.85292 -1.53913e-19 2.48921)
(8.78011 3.11463e-19 2.79192)
(8.71935 1.8507e-18 3.13311)
(8.67638 -2.46116e-18 3.51898)
(8.65847 -6.09404e-19 3.95726)
(8.67844 0 4.45525)
(8.73262 3.14349e-18 5.03211)
(8.92192 -3.89192e-18 5.63358)
(8.89474 -3.15478e-18 6.53564)
(9.87462 2.96884e-19 6.68316)
(8.27598 0 8.71825)
(9.99746 0 0.0707449)
(9.98697 -3.64553e-19 0.138769)
(9.96924 3.80926e-19 0.206297)
(9.94523 -2.63796e-19 0.275182)
(9.91537 2.75324e-19 0.346761)
(9.87988 1.92039e-19 0.42217)
(9.839 1.98977e-19 0.502484)
(9.79297 2.07946e-19 0.588775)
(9.74203 0 0.682092)
(9.68648 2.24329e-19 0.783509)
(9.62666 -2.30939e-19 0.894221)
(9.56298 0 1.01551)
(9.49593 7.45393e-19 1.14872)
(9.42616 -5.1122e-19 1.29534)
(9.35449 -1.32599e-18 1.45711)
(9.28191 2.44775e-18 1.63595)
(9.20967 -1.11246e-18 1.83406)
(9.13945 0 2.05392)
(9.07339 8.67652e-19 2.29847)
(9.01422 -1.46522e-18 2.57123)
(8.96565 5.83906e-19 2.87638)
(8.93234 5.96218e-19 3.2187)
(8.92049 2.29802e-18 3.604)
(8.93791 -2.27156e-18 4.03959)
(8.99833 0 4.5322)
(9.09864 -1.00771e-18 5.10014)
(9.34014 1.80217e-18 5.69645)
(9.39423 -4.18964e-18 6.55508)
(10.4131 5.02869e-18 6.8272)
(9.01695 -3.15574e-18 8.95214)
(9.99777 -1.93373e-20 0.0738173)
(9.98808 6.61812e-19 0.144838)
(9.97182 3.35215e-19 0.215407)
(9.94992 -8.62902e-20 0.287429)
(9.92279 1.81001e-19 0.362246)
(9.89066 -4.741e-19 0.440991)
(9.85377 1.98166e-19 0.52475)
(9.81243 -4.08427e-19 0.614603)
(9.76692 -4.26196e-19 0.711597)
(9.71759 6.63283e-19 0.816799)
(9.66484 -2.26533e-19 0.931375)
(9.60919 0 1.05657)
(9.55125 -2.33133e-21 1.19371)
(9.49175 -2.50281e-19 1.34423)
(9.43163 0 1.50979)
(9.37209 -2.63756e-19 1.69222)
(9.31455 0 1.89359)
(9.26082 -1.10695e-18 2.11622)
(9.21318 1.12242e-18 2.36281)
(9.17461 2.85856e-19 2.63662)
(9.14925 -5.7295e-19 2.94149)
(9.14196 0 3.2817)
(9.15916 0 3.66252)
(9.20937 0 4.09074)
(9.30699 1.94079e-18 4.5724)
(9.45138 -1.86309e-18 5.12266)
(9.73816 -1.49097e-18 5.70652)
(9.89056 4.12492e-18 6.49111)
(10.9211 0 6.90052)
(9.89776 0 9.24645)
(0.0904291 2.48766e-20 -0.0932614)
(0.210768 -6.94619e-20 -0.0933348)
(0.412635 3.87387e-20 -0.07697)
(0.659879 -1.75746e-20 -0.0666648)
(0.953761 -1.81626e-20 -0.0624895)
(1.26135 0 -0.0611727)
(1.54441 -1.12888e-20 -0.0598853)
(1.79093 3.0375e-20 -0.0576496)
(2.00493 -6.25828e-21 -0.0544661)
(2.19032 -1.21433e-20 -0.050744)
(2.35164 -1.17517e-20 -0.0465847)
(2.49124 -2.76861e-21 -0.0420312)
(2.61038 2.72312e-21 -0.0370864)
(2.70964 0 -0.0318865)
(2.78984 1.07832e-20 -0.0267197)
(2.85212 -1.15936e-21 -0.0216349)
(2.89751 0 -0.0168221)
(2.92764 0 -0.0130255)
(2.94544 7.91488e-21 -0.0100632)
(2.9536 0 -0.00744176)
(2.95393 0 -0.00627887)
(2.94897 0 -0.00780993)
(2.94232 0 -0.0115341)
(2.93788 6.16024e-21 -0.016313)
(2.94022 -1.70519e-22 -0.0218296)
(2.95511 1.68127e-22 -0.0283549)
(2.9898 -4.51586e-21 -0.0360387)
(3.05277 0 -0.0452547)
(3.1535 2.56132e-21 -0.0567272)
(3.34038 0 -0.0696699)
(0.043448 9.94482e-20 -0.130402)
(0.120582 9.05161e-20 -0.160368)
(0.328519 0 -0.15364)
(0.589898 0 -0.150707)
(0.897015 3.64992e-20 -0.15328)
(1.20609 0 -0.155404)
(1.4805 2.21868e-20 -0.153744)
(1.7114 -1.23262e-20 -0.148347)
(1.90561 2.38008e-20 -0.140326)
(2.06863 -3.60478e-20 -0.13068)
(2.20566 1.1592e-20 -0.119956)
(2.32067 -1.08966e-20 -0.108246)
(2.41596 1.07386e-20 -0.0954724)
(2.49236 0 -0.0817519)
(2.55006 -3.32782e-20 -0.0680347)
(2.59003 1.41188e-22 -0.0541894)
(2.61254 -1.28921e-20 -0.0396)
(2.61632 -1.85608e-20 -0.0276635)
(2.60373 -5.9064e-21 -0.020096)
(2.57773 -1.86485e-21 -0.0123965)
(2.53193 1.46142e-20 -0.00151226)
(2.46034 1.64983e-20 0.00987575)
(2.37547 -8.38104e-22 0.0173465)
(2.29207 -1.86506e-20 0.0192151)
(2.21997 0 0.0149554)
(2.16218 -6.19655e-22 0.00327222)
(2.12975 -4.30681e-21 -0.0190677)
(2.14049 2.58548e-22 -0.0569614)
(2.21386 -2.58276e-21 -0.114914)
(2.40883 2.28292e-21 -0.190078)
(0.0139161 4.92423e-20 -0.176938)
(0.0195817 8.73546e-20 -0.230933)
(0.208925 -4.12882e-22 -0.241111)
(0.437445 -1.39437e-19 -0.242153)
(0.700899 -7.23147e-20 -0.246754)
(0.954555 8.1589e-20 -0.249031)
(1.16735 5.51872e-21 -0.244892)
(1.33633 -2.34642e-20 -0.235193)
(1.46788 0 -0.221774)
(1.56855 4.65489e-20 -0.205975)
(1.64353 0 -0.188729)
(1.69708 -1.07629e-20 -0.17006)
(1.73104 1.06324e-20 -0.149628)
(1.74584 9.8158e-21 -0.126623)
(1.7395 1.87146e-20 -0.103017)
(1.71208 -9.2137e-21 -0.0809104)
(1.66901 2.15935e-20 -0.0550359)
(1.58591 8.27914e-21 -0.0221158)
(1.44738 2.41338e-20 0.0102141)
(1.29581 -1.94181e-20 0.036668)
(1.16507 -1.47077e-20 0.0579309)
(1.06096 -1.57779e-20 0.0705192)
(0.976014 1.51635e-20 0.070406)
(0.915027 1.10761e-20 0.0570119)
(0.885689 1.32852e-20 0.0319919)
(0.890761 0 -0.00807132)
(0.945417 9.30981e-21 -0.069524)
(1.05442 -2.0329e-22 -0.156415)
(1.22375 1.06821e-20 -0.270988)
(1.47542 -2.30034e-21 -0.415151)
(-0.00200899 2.44946e-19 -0.216235)
(-0.0620681 1.67633e-19 -0.280747)
(0.10685 -1.46537e-19 -0.311767)
(0.293297 0 -0.315439)
(0.500162 0 -0.31976)
(0.684888 0 -0.318625)
(0.825042 8.19441e-20 -0.309118)
(0.921886 -1.79491e-21 -0.293189)
(0.982675 -1.20598e-21 -0.273077)
(1.01427 -4.68983e-20 -0.250239)
(1.02162 0 -0.225344)
(1.00779 0 -0.198272)
(0.973998 0 -0.16877)
(0.921865 -9.85382e-21 -0.134414)
(0.847856 -2.89241e-20 -0.0924857)
(0.716585 3.71207e-20 -0.0445767)
(0.55605 0 0.00560773)
(0.436674 0 0.0517227)
(0.335277 -1.62144e-20 0.0835515)
(0.238627 5.10259e-20 0.0986814)
(0.157353 -3.8089e-21 0.10228)
(0.0965269 -2.69957e-20 0.0962274)
(0.0595908 -1.36146e-20 0.0772415)
(0.0515332 -8.87106e-23 0.0429422)
(0.0702789 -3.69635e-20 -0.00843634)
(0.135124 0 -0.0821419)
(0.239975 0 -0.178454)
(0.38053 0 -0.299906)
(0.558586 -4.12424e-22 -0.443527)
(0.729079 -3.96149e-21 -0.628715)
(-0.0110228 -3.89968e-19 -0.255008)
(-0.132146 1.60894e-19 -0.31677)
(0.01577 -1.44214e-19 -0.36754)
(0.154066 0 -0.369922)
(0.295317 -7.52879e-20 -0.369174)
(0.403813 1.88214e-19 -0.360497)
(0.466115 0 -0.343107)
(0.488221 -6.82569e-22 -0.319837)
(0.47813 -4.71581e-20 -0.293052)
(0.443012 0 -0.263508)
(0.386547 -2.22265e-20 -0.23034)
(0.310745 4.36418e-20 -0.191786)
(0.213198 3.49931e-22 -0.146359)
(0.0836261 4.15368e-20 -0.0935585)
(-0.0444001 5.84233e-20 -0.0386956)
(-0.15166 -2.78231e-20 0.0086872)
(-0.243517 -4.53168e-20 0.0459779)
(-0.323655 8.46266e-21 0.0767881)
(-0.394555 -8.33011e-21 0.0998983)
(-0.452922 -3.12823e-20 0.109502)
(-0.495048 3.39342e-20 0.104335)
(-0.517814 2.48345e-20 0.0853217)
(-0.518787 1.64418e-21 0.0512332)
(-0.495967 -1.62559e-21 0.000314131)
(-0.450183 2.48006e-20 -0.0709111)
(-0.376366 1.9189e-20 -0.163984)
(-0.278675 0 -0.279679)
(-0.158903 0 -0.417963)
(-0.0300473 -1.00417e-20 -0.575995)
(0.0357857 3.87364e-21 -0.771908)
(-0.0144522 2.90564e-19 -0.297264)
(-0.196226 -1.55492e-19 -0.341748)
(-0.0708553 1.43121e-19 -0.406122)
(0.0108282 -1.44023e-19 -0.400131)
(0.0809002 1.55225e-19 -0.388255)
(0.109721 -1.93519e-19 -0.369248)
(0.0956134 0 -0.343008)
(0.0480576 -4.66485e-20 -0.312337)
(-0.0258134 0 -0.278561)
(-0.116777 -9.29881e-20 -0.242222)
(-0.2199 0 -0.201402)
(-0.331403 0 -0.155365)
(-0.443724 -1.27731e-19 -0.106442)
(-0.549057 -4.0451e-20 -0.0583095)
(-0.639348 -3.98525e-20 -0.0127401)
(-0.715226 0 0.0285614)
(-0.78508 8.13171e-20 0.0634748)
(-0.844759 -8.78202e-21 0.090728)
(-0.891907 4.16751e-20 0.107466)
(-0.924712 -8.04534e-21 0.109524)
(-0.94196 -6.01659e-20 0.0953816)
(-0.942631 0 0.0652234)
(-0.926228 0 0.018369)
(-0.89364 1.49043e-21 -0.0466504)
(-0.842912 -1.47215e-21 -0.132307)
(-0.77733 -2.04102e-20 -0.240226)
(-0.700165 -4.78783e-22 -0.369431)
(-0.619771 4.72562e-22 -0.516665)
(-0.561603 0 -0.673393)
(-0.554779 0 -0.81247)
(-0.0122839 -3.82626e-19 -0.343487)
(-0.257593 3.01781e-19 -0.355129)
(-0.157962 0 -0.421669)
(-0.142004 1.55976e-21 -0.398825)
(-0.145794 8.20469e-20 -0.373216)
(-0.193652 0 -0.342111)
(-0.273391 0 -0.30895)
(-0.371756 1.40569e-19 -0.275007)
(-0.479759 -9.45775e-20 -0.240264)
(-0.591328 9.22189e-20 -0.203499)
(-0.7013 0 -0.163622)
(-0.804662 1.33004e-19 -0.120759)
(-0.898586 1.06981e-19 -0.0761923)
(-0.978304 -6.3065e-20 -0.0323865)
(-1.04714 3.9309e-20 0.00912966)
(-1.10894 -9.45005e-21 0.0468304)
(-1.16211 4.76912e-20 0.0779236)
(-1.20453 -2.69934e-20 0.0995062)
(-1.23461 -4.17023e-20 0.108692)
(-1.25171 0 0.10261)
(-1.25584 2.99693e-20 0.0800646)
(-1.24725 -3.42364e-21 0.0409846)
(-1.22661 3.38758e-21 -0.015072)
(-1.19575 0 -0.0894128)
(-1.1538 -2.12075e-20 -0.183301)
(-1.10553 0 -0.297508)
(-1.05487 4.40819e-22 -0.430061)
(-1.01255 -2.38078e-20 -0.575119)
(-0.997851 3.06367e-22 -0.719675)
(-1.01047 0 -0.829869)
(-0.00449972 -3.78159e-19 -0.391813)
(-0.316153 2.93938e-19 -0.353464)
(-0.250615 -1.44435e-19 -0.406982)
(-0.303405 -7.8299e-20 -0.362492)
(-0.377301 0 -0.323802)
(-0.481193 0 -0.286513)
(-0.599868 0 -0.252517)
(-0.72126 4.70465e-20 -0.221097)
(-0.83813 -1.89289e-19 -0.190406)
(-0.946598 1.87935e-19 -0.158488)
(-1.04461 0 -0.123874)
(-1.13155 -8.83401e-20 -0.0864339)
(-1.20464 -6.42055e-20 -0.0476317)
(-1.2685 4.0882e-20 -0.00849487)
(-1.32488 -6.21359e-20 0.0292185)
(-1.3731 9.88149e-20 0.0627259)
(-1.41236 -9.28256e-20 0.0887211)
(-1.44182 2.65127e-20 0.104184)
(-1.46081 7.73823e-20 0.106426)
(-1.46933 0 0.0933047)
(-1.46799 0 0.0639206)
(-1.45765 0 0.0181945)
(-1.43958 0 -0.0441058)
(-1.41546 0 -0.123885)
(-1.38655 -1.90822e-20 -0.221811)
(-1.35644 0 -0.337887)
(-1.32977 0 -0.469627)
(-1.31652 2.29573e-20 -0.609507)
(-1.32792 -1.20732e-20 -0.74088)
(-1.35013 0 -0.829905)
(0.010272 -3.73386e-19 -0.44015)
(-0.371589 5.79712e-19 -0.328669)
(-0.350326 -2.99642e-19 -0.356442)
(-0.463431 8.33954e-20 -0.29458)
(-0.587773 2.80169e-21 -0.248433)
(-0.724325 0 -0.210957)
(-0.858688 0 -0.182223)
(-0.982636 -4.82074e-20 -0.158693)
(-1.09262 -4.92599e-22 -0.136403)
(-1.1883 -4.65835e-20 -0.112317)
(-1.2698 4.65475e-20 -0.084892)
(-1.33811 -4.51623e-20 -0.0540146)
(-1.39765 4.45188e-20 -0.0202492)
(-1.44947 0 0.0146286)
(-1.4935 8.18069e-20 0.0480367)
(-1.52954 -7.87524e-20 0.0768758)
(-1.55754 -8.73839e-20 0.0978356)
(-1.57765 -6.47441e-20 0.107882)
(-1.58982 -6.8156e-20 0.104478)
(-1.5943 -3.91629e-21 0.0858952)
(-1.59188 2.55428e-22 0.0514782)
(-1.58366 3.58223e-21 0.00124082)
(-1.57114 0 -0.0648187)
(-1.55592 -4.38121e-20 -0.147078)
(-1.54019 3.88245e-20 -0.245917)
(-1.52678 1.11471e-21 -0.361049)
(-1.52033 -3.57215e-22 -0.489666)
(-1.52911 3.53204e-22 -0.623217)
(-1.55755 2.22452e-20 -0.742981)
(-1.58534 0 -0.817769)
(0.0345886 -3.6843e-19 -0.486001)
(-0.424865 -1.88935e-21 -0.269029)
(-0.448686 3.16802e-19 -0.273351)
(-0.60487 1.75351e-19 -0.201496)
(-0.758144 1.61977e-19 -0.155211)
(-0.906476 -9.6627e-20 -0.124194)
(-1.04015 -4.87498e-20 -0.105401)
(-1.15462 9.777e-20 -0.0934538)
(-1.2494 -1.22637e-21 -0.0824851)
(-1.32719 -2.40387e-19 -0.068017)
(-1.39222 -1.00761e-22 -0.0479717)
(-1.44724 -4.64111e-20 -0.0224674)
(-1.49398 -9.21912e-20 0.00675909)
(-1.53328 0 0.0372399)
(-1.56556 8.71137e-20 0.0662498)
(-1.59114 0 0.0907187)
(-1.61048 7.73415e-20 0.107377)
(-1.6241 6.43846e-20 0.113141)
(-1.6324 8.98689e-21 0.105528)
(-1.63578 6.57735e-20 0.0830418)
(-1.63497 0 0.045234)
(-1.63102 3.24238e-21 -0.00770902)
(-1.62548 4.36266e-20 -0.0754932)
(-1.61994 4.37857e-20 -0.158004)
(-1.61661 1.23257e-21 -0.255457)
(-1.61813 0 -0.367673)
(-1.62848 -2.25551e-20 -0.491796)
(-1.65394 1.56546e-22 -0.618841)
(-1.69418 -1.01854e-20 -0.729446)
(-1.72557 2.49607e-21 -0.795136)
(0.0680926 -1.77767e-19 -0.515446)
(-0.475467 1.47345e-19 -0.171887)
(-0.532696 0 -0.165643)
(-0.712835 2.8896e-21 -0.0911621)
(-0.875253 -2.41742e-20 -0.0490974)
(-1.01943 1.48955e-19 -0.030317)
(-1.14043 5.06557e-20 -0.0277349)
(-1.23842 8.40563e-22 -0.0312954)
(-1.316 -3.40512e-22 -0.0324917)
(-1.37717 9.62537e-20 -0.0265622)
(-1.42669 0 -0.012468)
(-1.46751 -9.64652e-20 0.00826314)
(-1.50082 9.14448e-20 0.0331006)
(-1.52752 -9.26098e-20 0.0594358)
(-1.54855 -1.54568e-19 0.0846148)
(-1.56489 -4.23181e-20 0.105622)
(-1.57745 -7.17959e-20 0.119145)
(-1.58694 9.7784e-21 0.122)
(-1.59388 0 0.111688)
(-1.59865 -6.54224e-20 0.0868159)
(-1.60177 0 0.0470968)
(-1.60404 0 -0.00705065)
(-1.60672 -4.6681e-20 -0.0749857)
(-1.61141 3.9444e-20 -0.156197)
(-1.61961 -5.84985e-22 -0.250696)
(-1.63422 2.64917e-20 -0.358642)
(-1.6584 4.21867e-20 -0.477508)
(-1.69676 0 -0.598463)
(-1.74562 0 -0.702376)
(-1.77966 -2.49714e-21 -0.762664)
(0.0929557 -1.80721e-19 -0.4947)
(-0.499657 4.58676e-19 -0.0532852)
(-0.591469 -1.78864e-19 -0.0390811)
(-0.773087 -3.05286e-21 0.0338851)
(-0.926644 2.95659e-22 0.0603487)
(-1.05925 -1.50857e-19 0.0604656)
(-1.16641 -1.01041e-19 0.0453539)
(-1.24718 1.99299e-19 0.0261684)
(-1.30486 -1.48757e-19 0.0127612)
(-1.3459 4.92348e-20 0.0107967)
(-1.37687 -4.93745e-20 0.0202101)
(-1.4015 2.92327e-19 0.0373001)
(-1.42062 -1.45749e-19 0.0584948)
(-1.4347 9.20056e-20 0.0813982)
(-1.44493 1.82438e-19 0.103807)
(-1.45296 -8.96411e-20 0.122803)
(-1.46026 7.18286e-20 0.134852)
(-1.46776 1.00839e-20 0.136519)
(-1.47592 0 0.125186)
(-1.48489 -4.00398e-21 0.0994575)
(-1.49478 6.6682e-20 0.0591627)
(-1.50587 -1.77444e-21 0.00497311)
(-1.51883 0 -0.0621092)
(-1.53485 -4.01124e-20 -0.14129)
(-1.55413 -3.12139e-20 -0.232073)
(-1.58 -2.64378e-20 -0.334929)
(-1.61526 -1.98096e-20 -0.448113)
(-1.66355 0 -0.563525)
(-1.71915 0 -0.662915)
(-1.75557 0 -0.72068)
(0.135215 3.701e-19 -0.38081)
(-0.488789 -2.85221e-19 0.0855726)
(-0.608874 -3.56151e-19 0.101478)
(-0.775691 3.97033e-19 0.158302)
(-0.919589 -1.98598e-19 0.170391)
(-1.04145 -5.00171e-20 0.151129)
(-1.13185 1.00268e-19 0.113938)
(-1.18888 0 0.0748148)
(-1.21888 1.02343e-19 0.0478717)
(-1.23333 5.11026e-20 0.0400045)
(-1.24204 -5.29056e-20 0.0478811)
(-1.24863 -1.23802e-19 0.0636729)
(-1.25248 1.22007e-19 0.0825726)
(-1.25322 -9.94168e-20 0.103208)
(-1.25245 -1.16015e-19 0.124473)
(-1.25276 1.12298e-19 0.143577)
(-1.25622 -8.86571e-20 0.156461)
(-1.26388 0 0.159175)
(-1.27602 0 0.148828)
(-1.29249 0 0.123933)
(-1.3129 -5.8915e-20 0.0843483)
(-1.33672 5.19384e-20 0.0309272)
(-1.36353 3.27758e-22 -0.035029)
(-1.39304 -3.25201e-22 -0.112309)
(-1.42514 3.12613e-20 -0.199873)
(-1.46112 -2.20226e-20 -0.297737)
(-1.50505 1.51269e-20 -0.405155)
(-1.56033 0 -0.515365)
(-1.62117 1.1918e-23 -0.611789)
(-1.66019 -1.19589e-23 -0.669392)
(0.190889 0 -0.160867)
(-0.432584 -6.46491e-20 0.219302)
(-0.576713 2.21294e-19 0.236689)
(-0.728116 -9.48054e-20 0.287614)
(-0.866882 -9.80261e-20 0.285226)
(-0.978455 4.97269e-20 0.238733)
(-1.04618 -9.96088e-20 0.170562)
(-1.06873 -5.1532e-20 0.105298)
(-1.05871 1.15445e-21 0.0640604)
(-1.03723 -1.57936e-19 0.0556414)
(-1.01967 1.02653e-19 0.0685314)
(-1.0071 2.60414e-20 0.0865365)
(-0.994223 -1.30772e-19 0.104552)
(-0.979238 1.77455e-19 0.124412)
(-0.965254 1.2639e-20 0.147074)
(-0.956751 3.78417e-22 0.169516)
(-0.956606 9.99005e-20 0.186463)
(-0.965748 -8.6522e-20 0.193116)
(-0.984107 4.65238e-21 0.186292)
(-1.01124 -7.62097e-20 0.164382)
(-1.04635 -6.31011e-20 0.127118)
(-1.08808 -5.34859e-20 0.0752742)
(-1.13444 -9.62144e-23 0.0102155)
(-1.183 5.09262e-22 -0.0664033)
(-1.23258 -5.05115e-22 -0.152973)
(-1.27994 2.17495e-20 -0.247633)
(-1.33153 -1.49701e-20 -0.350121)
(-1.39126 -8.92773e-23 -0.455483)
(-1.45591 2.74895e-21 -0.549701)
(-1.49845 0 -0.608958)
(0.594899 -2.33102e-19 -1.05245)
(-0.489832 1.61213e-19 -0.0368358)
(-0.480058 -4.70914e-20 0.422634)
(-0.634259 -9.78276e-20 0.49277)
(-0.783647 2.4318e-19 0.454129)
(-0.888489 -9.64074e-20 0.345109)
(-0.924412 -1.4798e-21 0.215142)
(-0.894707 4.99028e-20 0.103902)
(-0.824008 0 0.0458755)
(-0.753749 1.0608e-19 0.0501901)
(-0.708599 -2.72685e-20 0.0810801)
(-0.678571 2.68654e-20 0.104752)
(-0.646773 -4.61873e-21 0.121455)
(-0.610256 -2.11742e-19 0.141613)
(-0.576648 1.27776e-20 0.169429)
(-0.554367 -1.26244e-20 0.20014)
(-0.547342 0 0.225717)
(-0.555935 8.64234e-20 0.240224)
(-0.579556 0 0.240579)
(-0.617694 1.45356e-19 0.225203)
(-0.669634 6.37898e-20 0.193321)
(-0.733699 -5.61434e-20 0.14499)
(-0.806406 7.73698e-22 0.0810556)
(-0.882725 -9.73396e-22 0.0032866)
(-0.957975 9.66293e-22 -0.0858616)
(-1.02571 0 -0.182014)
(-1.08877 0 -0.282718)
(-1.15368 0 -0.384531)
(-1.22153 -7.2738e-22 -0.47647)
(-1.27022 0 -0.538044)
(9.99809 0 0.0766804)
(9.98926 6.55125e-19 0.150489)
(9.97455 -3.62336e-19 0.223872)
(9.95489 8.52169e-20 0.298783)
(9.93063 -3.49841e-19 0.376563)
(9.90199 3.63959e-19 0.458336)
(9.86927 0 0.545193)
(9.83281 3.92608e-19 0.638217)
(9.79296 4.06695e-19 0.738445)
(9.75009 -6.0679e-22 0.846929)
(9.70469 2.19112e-19 0.964793)
(9.65737 -8.96679e-19 1.09323)
(9.60883 2.28822e-19 1.23353)
(9.55988 2.68781e-21 1.38706)
(9.51159 9.76913e-19 1.55535)
(9.46529 -1.74478e-18 1.74011)
(9.42264 1.01738e-18 1.94333)
(9.38556 5.20733e-19 2.1671)
(9.35636 -1.04621e-18 2.41384)
(9.33817 0 2.68645)
(9.33553 -5.16946e-19 2.9883)
(9.35336 1.01831e-18 3.32314)
(9.39824 -1.9812e-18 3.69556)
(9.47928 6.29913e-20 4.11133)
(9.61116 1.82935e-18 4.57499)
(9.79656 -1.5894e-18 5.09645)
(10.1199 0 5.65236)
(10.3809 2.27105e-18 6.33029)
(11.5216 1.83936e-18 6.77706)
(12.6946 0 9.47734)
(9.99844 0 0.0793313)
(9.99051 0 0.155712)
(9.97746 0 0.23167)
(9.96016 3.25509e-19 0.309206)
(9.93892 -1.6925e-19 0.389665)
(9.91393 -1.74912e-19 0.47415)
(9.88552 0 0.563744)
(9.85409 0 0.659529)
(9.82003 -2.24851e-21 0.762531)
(9.78377 -4.87861e-21 0.873763)
(9.74589 2.10833e-19 0.994296)
(9.70704 4.28593e-19 1.12527)
(9.66798 -4.43803e-19 1.2679)
(9.62963 6.82948e-19 1.42348)
(9.59314 -4.69512e-19 1.59339)
(9.5599 9.50266e-19 1.77918)
(9.53182 0 1.9827)
(9.51096 9.79879e-19 2.20584)
(9.49961 -1.47235e-18 2.45072)
(9.50114 5.0222e-19 2.71977)
(9.51987 3.41038e-18 3.01573)
(9.56078 -9.40573e-19 3.34175)
(9.63086 1.88446e-18 3.70156)
(9.7391 -8.73397e-19 4.09909)
(9.89944 0 4.53677)
(10.1166 1.52291e-18 5.01815)
(10.4575 0 5.52435)
(10.7752 -5.52804e-19 6.06801)
(11.493 5.16997e-19 6.44074)
(12.2455 -8.95319e-19 7.24996)
(9.9988 5.72982e-19 0.0817258)
(9.99183 -6.31425e-19 0.160428)
(9.98049 -3.78395e-20 0.238689)
(9.96563 3.92256e-19 0.318551)
(9.94752 3.26203e-19 0.401378)
(9.9263 6.79433e-19 0.488245)
(9.90233 -1.76465e-19 0.580208)
(9.87604 1.29869e-21 0.678334)
(9.84789 -1.89146e-19 0.783625)
(9.81835 -1.16837e-18 0.897043)
(9.78806 4.03589e-19 1.0196)
(9.75774 -4.17933e-21 1.15238)
(9.72817 2.79563e-21 1.29654)