/*--------------------------------*- C++ -*----------------------------------*\
| =========                 |                                                 |
| \\      /  F ield         | OpenFOAM: The Open Source CFD Toolbox           |
|  \\    /   O peration     | Version:  dev                                   |
|   \\  /    A nd           | Web:      www.OpenFOAM.org                      |
|    \\/     M anipulation  |                                                 |
\*---------------------------------------------------------------------------*/
FoamFile
{
    version     2.0;
    format      ascii;
    class       volVectorField;
    location    "1.36";
    object      cellDisplacement;
}
// * * * * * * * * * * * * * * * * * * * * * * * * * * * * * * * * * * * * * //

dimensions      [0 1 0 0 0 0 0];

internalField   nonuniform List<vector> 
465
(
(0.473242 0 -0.0119869)
(0.474167 0 -0.0111824)
(0.472056 0 -0.0104075)
(0.467188 0 -0.00966864)
(0.459722 0 -0.00896714)
(0.449741 0 -0.0083034)
(0.437276 0 -0.00767385)
(0.422322 0 -0.00707714)
(0.404848 0 -0.00650538)
(0.384801 0 -0.00595503)
(0.362118 0 -0.00542251)
(0.336737 0 -0.00490627)
(0.30858 0 -0.00439327)
(0.277551 0 -0.00387975)
(0.243562 0 -0.00335991)
(0.206524 0 -0.00282663)
(0.166348 0 -0.00227161)
(0.122948 0 -0.00168522)
(0.0762608 0 -0.00105641)
(0.0260071 0 -0.000368416)
(0.47414 0 -0.0353835)
(0.474906 0 -0.0330376)
(0.472669 0 -0.0307744)
(0.467699 0 -0.0286132)
(0.46015 0 -0.0265576)
(0.450099 0 -0.0246102)
(0.437576 0 -0.022759)
(0.422575 0 -0.0210036)
(0.405063 0 -0.0193172)
(0.384983 0 -0.0176915)
(0.362267 0 -0.016116)
(0.336865 0 -0.0145916)
(0.308694 0 -0.0130698)
(0.277651 0 -0.011545)
(0.24365 0 -0.0100003)
(0.206601 0 -0.0084145)
(0.166415 0 -0.00676305)
(0.123004 0 -0.00501742)
(0.076302 0 -0.00314503)
(0.0260269 0 -0.00109662)
(0.475915 0 -0.0576128)
(0.476361 0 -0.0538563)
(0.473871 0 -0.0502252)
(0.468697 0 -0.0467515)
(0.460979 0 -0.0434379)
(0.450791 0 -0.0402949)
(0.438151 0 -0.0372962)
(0.423057 0 -0.0344566)
(0.405471 0 -0.031713)
(0.385325 0 -0.0290623)
(0.362541 0 -0.0264842)
(0.337092 0 -0.0239609)
(0.3089 0 -0.0214662)
(0.277829 0 -0.018967)
(0.243804 0 -0.0164333)
(0.206734 0 -0.0138299)
(0.166529 0 -0.0111166)
(0.123098 0 -0.00824715)
(0.0763706 0 -0.00516871)
(0.0260576 0 -0.00180148)
(0.47853 0 -0.0786182)
(0.478495 0 -0.0735782)
(0.475625 0 -0.0686984)
(0.470145 0 -0.0640237)
(0.462176 0 -0.0595482)
(0.451783 0 -0.0553058)
(0.438968 0 -0.0512297)
(0.423731 0 -0.0473299)
(0.406038 0 -0.0435862)
(0.3858 0 -0.039966)
(0.362955 0 -0.0364401)
(0.337441 0 -0.0329652)
(0.30918 0 -0.0295384)
(0.278064 0 -0.0261063)
(0.244001 0 -0.0226237)
(0.206901 0 -0.019042)
(0.166668 0 -0.0153065)
(0.123209 0 -0.0113542)
(0.0764487 0 -0.00711398)
(0.0260899 0 -0.00247792)
(0.481912 0 -0.0983054)
(0.481247 0 -0.0921134)
(0.477877 0 -0.0861118)
(0.471998 0 -0.0803603)
(0.463695 0 -0.0748178)
(0.45303 0 -0.0695165)
(0.440008 0 -0.0644441)
(0.42459 0 -0.0595564)
(0.406738 0 -0.0548746)
(0.386378 0 -0.0503468)
(0.363437 0 -0.0459326)
(0.337842 0 -0.0415888)
(0.309507 0 -0.0372824)
(0.278332 0 -0.0329612)
(0.244224 0 -0.0285704)
(0.207085 0 -0.0240496)
(0.16682 0 -0.0193311)
(0.123328 0 -0.0143371)
(0.0765305 0 -0.00897949)
(0.0261234 0 -0.00312538)
(0.485965 0 -0.116603)
(0.484535 0 -0.109392)
(0.480558 0 -0.1024)
(0.474183 0 -0.0956338)
(0.465493 0 -0.0891282)
(0.454501 0 -0.0828603)
(0.44121 0 -0.0768731)
(0.425573 0 -0.0711184)
(0.407537 0 -0.0655787)
(0.387028 0 -0.0602099)
(0.363967 0 -0.0549667)
(0.338273 0 -0.0498011)
(0.309853 0 -0.0446652)
(0.278612 0 -0.0395016)
(0.24445 0 -0.0342465)
(0.207269 0 -0.0288296)
(0.166966 0 -0.0231714)
(0.12344 0 -0.017181)
(0.0766065 0 -0.0107557)
(0.0261541 0 -0.0037403)
(0.490567 0 -0.133464)
(0.48826 0 -0.125362)
(0.483579 0 -0.117453)
(0.476639 0 -0.109781)
(0.467491 0 -0.10241)
(0.456129 0 -0.0953235)
(0.44253 0 -0.088524)
(0.426641 0 -0.0819792)
(0.408395 0 -0.0756585)
(0.387714 0 -0.0695176)
(0.364515 0 -0.063507)
(0.338706 0 -0.0575734)
(0.310195 0 -0.05166)
(0.278879 0 -0.0457026)
(0.244659 0 -0.03963)
(0.207432 0 -0.0333628)
(0.167093 0 -0.0268116)
(0.123534 0 -0.0198739)
(0.0766686 0 -0.0124347)
(0.0261786 0 -0.00431984)
(0.495552 0 -0.148779)
(0.492289 0 -0.139917)
(0.486836 0 -0.131212)
(0.479279 0 -0.122793)
(0.469627 0 -0.114682)
(0.457855 0 -0.106874)
(0.443916 0 -0.0993591)
(0.427747 0 -0.092108)
(0.409271 0 -0.0850842)
(0.388401 0 -0.0782413)
(0.365048 0 -0.0715265)
(0.339116 0 -0.0648819)
(0.310504 0 -0.0582445)
(0.279111 0 -0.051544)
(0.244831 0 -0.0447027)
(0.207558 0 -0.0376336)
(0.167185 0 -0.0302387)
(0.123599 0 -0.022406)
(0.0767096 0 -0.0140104)
(0.0261943 0 -0.00486188)
(0.50075 0 -0.162508)
(0.496477 0 -0.152998)
(0.490222 0 -0.143681)
(0.482012 0 -0.134644)
(0.471825 0 -0.125913)
(0.459613 0 -0.117487)
(0.445312 0 -0.109354)
(0.428844 0 -0.101482)
(0.410122 0 -0.0938335)
(0.389052 0 -0.0863594)
(0.365536 0 -0.0790046)
(0.339473 0 -0.0717077)
(0.310758 0 -0.0644011)
(0.279285 0 -0.0570097)
(0.244946 0 -0.0494503)
(0.207631 0 -0.0416296)
(0.167228 0 -0.0334428)
(0.123624 0 -0.0247699)
(0.076723 0 -0.0154781)
(0.0261991 0 -0.00536486)
(0.505995 0 -0.174658)
(0.500702 0 -0.164653)
(0.493625 0 -0.154853)
(0.484743 0 -0.145322)
(0.474004 0 -0.136088)
(0.461338 0 -0.12715)
(0.446662 0 -0.118493)
(0.429884 0 -0.110087)
(0.410907 0 -0.101891)
(0.389629 0 -0.0938569)
(0.365945 0 -0.0859266)
(0.339749 0 -0.0780369)
(0.31093 0 -0.0701169)
(0.27938 0 -0.0620879)
(0.244985 0 -0.0538622)
(0.207634 0 -0.0453419)
(0.167212 0 -0.0364165)
(0.123601 0 -0.0269603)
(0.0767033 0 -0.0168348)
(0.0261908 0 -0.00582781)
(0.511112 0 -0.185234)
(0.504818 0 -0.174883)
(0.496926 0 -0.16473)
(0.487375 0 -0.15483)
(0.476084 0 -0.145207)
(0.462961 0 -0.13586)
(0.447907 0 -0.126773)
(0.430817 0 -0.117916)
(0.411583 0 -0.10925)
(0.390096 0 -0.100725)
(0.366245 0 -0.0922836)
(0.339917 0 -0.0838607)
(0.310998 0 -0.0753834)
(0.279375 0 -0.0667704)
(0.244932 0 -0.0579312)
(0.207554 0 -0.0487642)
(0.167123 0 -0.0391551)
(0.123521 0 -0.028974)
(0.0766452 0 -0.0180787)
(0.0261679 0 -0.00625029)
(0.515933 0 -0.194259)
(0.508688 0 -0.183705)
(0.500014 0 -0.173332)
(0.489816 0 -0.163183)
(0.477987 0 -0.153279)
(0.464418 0 -0.143622)
(0.448992 0 -0.134195)
(0.431595 0 -0.12497)
(0.41211 0 -0.115908)
(0.390419 0 -0.106961)
(0.366405 0 -0.098072)
(0.339951 0 -0.0891748)
(0.310939 0 -0.0801961)
(0.279252 0 -0.0710532)
(0.244771 0 -0.0616536)
(0.207378 0 -0.0518935)
(0.166953 0 -0.0416562)
(0.123376 0 -0.0308094)
(0.0765447 0 -0.0192091)
(0.026129 0 -0.00663232)
(0.5203 0 -0.201776)
(0.51218 0 -0.191159)
(0.50278 0 -0.18069)
(0.491975 0 -0.170406)
(0.479639 0 -0.160327)
(0.465644 0 -0.150453)
(0.449865 0 -0.140772)
(0.432174 0 -0.131257)
(0.412449 0 -0.121872)
(0.390564 0 -0.112569)
(0.366398 0 -0.103293)
(0.339828 0 -0.0939796)
(0.310733 0 -0.0845547)
(0.278993 0 -0.0749355)
(0.244486 0 -0.0650287)
(0.207093 0 -0.0547294)
(0.166693 0 -0.0439199)
(0.123162 0 -0.032467)
(0.0763982 0 -0.0202267)
(0.026073 0 -0.00697429)
(0.524074 0 -0.207844)
(0.515181 0 -0.197299)
(0.505128 0 -0.186852)
(0.493772 0 -0.176539)
(0.48097 0 -0.16638)
(0.466583 0 -0.156378)
(0.450475 0 -0.146523)
(0.432512 0 -0.136792)
(0.412564 0 -0.127151)
(0.390501 0 -0.117556)
(0.366197 0 -0.107953)
(0.339525 0 -0.0982794)
(0.310361 0 -0.0884625)
(0.278583 0 -0.0784198)
(0.244067 0 -0.0680584)
(0.206691 0 -0.0572736)
(0.166334 0 -0.0459478)
(0.122872 0 -0.0339484)
(0.0762027 0 -0.0211329)
(0.0259992 0 -0.00727698)
(0.52714 0 -0.212544)
(0.517591 0 -0.20219)
(0.506975 0 -0.191873)
(0.495135 0 -0.181628)
(0.48192 0 -0.171477)
(0.467183 0 -0.161427)
(0.45078 0 -0.151472)
(0.432573 0 -0.141593)
(0.412425 0 -0.131761)
(0.390204 0 -0.121934)
(0.36578 0 -0.112061)
(0.339023 0 -0.102082)
(0.309808 0 -0.0919253)
(0.278009 0 -0.0815111)
(0.243502 0 -0.0707472)
(0.206163 0 -0.0595301)
(0.165872 0 -0.0477435)
(0.122503 0 -0.0352566)
(0.0759555 0 -0.0219299)
(0.0259062 0 -0.00754124)
(0.538713 0 -0.226004)
(0.529463 0 -0.216048)
(0.519375 0 -0.205997)
(0.508284 0 -0.195906)
(0.496029 0 -0.185814)
(0.482454 0 -0.17575)
(0.467408 0 -0.165724)
(0.450744 0 -0.155735)
(0.43232 0 -0.14577)
(0.411997 0 -0.135802)
(0.38964 0 -0.125795)
(0.365116 0 -0.115701)
(0.338294 0 -0.105463)
(0.309046 0 -0.0950128)
(0.277246 0 -0.0842711)
(0.242769 0 -0.0731485)
(0.205492 0 -0.0615438)
(0.165291 0 -0.0493431)
(0.122044 0 -0.0364185)
(0.0756511 0 -0.0226345)
(0.0257935 0 -0.00777323)
(0.540632 0 -0.227867)
(0.530934 0 -0.218409)
(0.520432 0 -0.20876)
(0.508963 0 -0.198984)
(0.496368 0 -0.189128)
(0.482493 0 -0.179224)
(0.467186 0 -0.169291)
(0.450301 0 -0.159332)
(0.431693 0 -0.149339)
(0.411224 0 -0.13929)
(0.388756 0 -0.129154)
(0.364155 0 -0.118888)
(0.337291 0 -0.108436)
(0.308034 0 -0.0977351)
(0.276258 0 -0.0867086)
(0.241837 0 -0.0752702)
(0.204647 0 -0.0633214)
(0.164568 0 -0.0507519)
(0.121478 0 -0.0374379)
(0.0752786 0 -0.0232493)
(0.0256564 0 -0.00797365)
(0.520659 0 -0.210489)
(0.508918 0 -0.201102)
(0.496069 0 -0.19155)
(0.481963 0 -0.181873)
(0.466453 0 -0.172094)
(0.449394 0 -0.162224)
(0.430643 0 -0.152259)
(0.410063 0 -0.142183)
(0.387516 0 -0.131969)
(0.362869 0 -0.121579)
(0.335991 0 -0.110962)
(0.306753 0 -0.100057)
(0.275028 0 -0.0887918)
(0.240692 0 -0.0770843)
(0.203622 0 -0.0648397)
(0.163698 0 -0.0519519)
(0.120801 0 -0.0383022)
(0.0748357 0 -0.0237668)
(0.0254947 0 -0.00814029)
(0.495067 0 -0.193104)
(0.480804 0 -0.183708)
(0.465153 0 -0.174138)
(0.447973 0 -0.164409)
(0.429125 0 -0.154524)
(0.408473 0 -0.144472)
(0.385884 0 -0.134229)
(0.361224 0 -0.123763)
(0.334364 0 -0.113027)
(0.305176 0 -0.101965)
(0.273535 0 -0.0905096)
(0.239316 0 -0.0785813)
(0.202401 0 -0.0660907)
(0.162669 0 -0.0529369)
(0.120006 0 -0.0390073)
(0.0743184 0 -0.0241849)
(0.0253071 0 -0.00827263)
(0.478966 0 -0.184749)
(0.463238 0 -0.175434)
(0.445993 0 -0.165894)
(0.427097 0 -0.156135)
(0.406419 0 -0.146152)
(0.383827 0 -0.135928)
(0.359191 0 -0.125432)
(0.332385 0 -0.114625)
(0.303283 0 -0.103453)
(0.27176 0 -0.0918539)
(0.237696 0 -0.079754)
(0.200972 0 -0.0670686)
(0.161473 0 -0.0537027)
(0.119086 0 -0.0395502)
(0.0737231 0 -0.0245021)
(0.0250929 0 -0.0083704)
(0.443418 0 -0.166688)
(0.424525 0 -0.157097)
(0.403867 0 -0.147226)
(0.381316 0 -0.137063)
(0.356746 0 -0.126583)
(0.330032 0 -0.115749)
(0.301053 0 -0.104513)
(0.269687 0 -0.0928193)
(0.235816 0 -0.0805975)
(0.199325 0 -0.0677694)
(0.160101 0 -0.0542463)
(0.118037 0 -0.0399293)
(0.0730473 0 -0.0247177)
(0.0248512 0 -0.00843358)
(0.400795 0 -0.1477)
(0.378329 0 -0.137638)
(0.353867 0 -0.127215)
(0.327287 0 -0.116398)
(0.298472 0 -0.105145)
(0.267304 0 -0.0934031)
(0.233668 0 -0.0811095)
(0.197452 0 -0.0681912)
(0.158549 0 -0.0545664)
(0.116855 0 -0.040144)
(0.072289 0 -0.0248316)
(0.0245818 0 -0.00846232)
(0.374852 0 -0.137658)
(0.35054 0 -0.127331)
(0.324139 0 -0.116574)
(0.29553 0 -0.105348)
(0.264602 0 -0.0936055)
(0.231244 0 -0.0812897)
(0.195348 0 -0.0683339)
(0.156813 0 -0.0546633)
(0.115537 0 -0.0401947)
(0.0714477 0 -0.0248445)
(0.0242846 0 -0.00845702)
(0.320579 0 -0.116282)
(0.292221 0 -0.105125)
(0.261577 0 -0.0934287)
(0.228541 0 -0.08114)
(0.193012 0 -0.0681991)
(0.154891 0 -0.0545384)
(0.114085 0 -0.0400828)
(0.0705235 0 -0.0247574)
(0.0239599 0 -0.00841819)
(0.288545 0 -0.104484)
(0.258229 0 -0.0928776)
(0.225561 0 -0.0806642)
(0.190445 0 -0.06779)
(0.152787 0 -0.0541944)
(0.112499 0 -0.0398105)
(0.0695178 0 -0.024572)
(0.0236085 0 -0.00834651)
(0.222309 0 -0.0798677)
(0.187651 0 -0.0671111)
(0.150503 0 -0.0536351)
(0.110784 0 -0.0393807)
(0.0684335 0 -0.0242902)
(0.0232313 0 -0.00824275)
(0.184641 0 -0.0661676)
(0.148049 0 -0.0528648)
(0.108945 0 -0.0387968)
(0.0672742 0 -0.0239141)
(0.0228299 0 -0.00810774)
(0.10699 0 -0.0380624)
(0.0660453 0 -0.0234464)
(0.0224061 0 -0.00794235)
(0.0647528 0 -0.0228892)
(0.021962 0 -0.00774742)
(0.0215004 0 -0.00752371)
)
;

boundaryField
{
    inlet
    {
        type            cellMotion;
        value           nonuniform 0();
    }
    outlet
    {
        type            cellMotion;
        value           uniform (0 0 0);
    }
    flap
    {
        type            cellMotion;
        value           nonuniform 0();
    }
    upperWall
    {
        type            slip;
    }
    lowerWall
    {
        type            slip;
    }
    frontAndBack
    {
        type            empty;
    }
    procBoundary5to2
    {
        type            processor;
        value           nonuniform List<vector> 
34
(
(0.541419 0 -0.228532)
(0.531443 0 -0.219656)
(0.531443 0 -0.219656)
(0.519987 0 -0.211236)
(0.508081 0 -0.202295)
(0.508081 0 -0.202295)
(0.49331 0 -0.193818)
(0.49331 0 -0.193818)
(0.476412 0 -0.185022)
(0.460671 0 -0.176)
(0.460671 0 -0.176)
(0.440226 0 -0.166806)
(0.421387 0 -0.157419)
(0.421387 0 -0.157419)
(0.397188 0 -0.147581)
(0.397188 0 -0.147581)
(0.370879 0 -0.137132)
(0.346762 0 -0.12694)
(0.346762 0 -0.12694)
(0.316612 0 -0.115529)
(0.316612 0 -0.115529)
(0.284512 0 -0.103431)
(0.254566 0 -0.0919584)
(0.254566 0 -0.0919584)
(0.218797 0 -0.0787569)
(0.218797 0 -0.0787569)
(0.181427 0 -0.0649659)
(0.145434 0 -0.0518883)
(0.145434 0 -0.0518883)
(0.104929 0 -0.0371815)
(0.104929 0 -0.0371815)
(0.0634052 0 -0.022245)
(0.0634052 0 -0.022245)
(0.0210244 0 -0.00727196)
)
;
    }
    procBoundary5to4
    {
        type            processor;
        value           nonuniform List<vector> 
18
(
(0.468802 0 -0.0128078)
(0.469907 0 -0.037773)
(0.472101 0 -0.0614304)
(0.47534 0 -0.0837306)
(0.479536 0 -0.104575)
(0.484567 0 -0.123888)
(0.490276 0 -0.141615)
(0.496486 0 -0.157719)
(0.502966 0 -0.172116)
(0.509487 0 -0.184769)
(0.515843 0 -0.195695)
(0.52183 0 -0.204918)
(0.527255 0 -0.212476)
(0.531951 0 -0.218434)
(0.535782 0 -0.222881)
(0.535782 0 -0.222881)
(0.547297 0 -0.235797)
(0.549688 0 -0.237057)
)
;
    }
}


// ************************************************************************* //
