/*--------------------------------*- C++ -*----------------------------------*\
| =========                 |                                                 |
| \\      /  F ield         | OpenFOAM: The Open Source CFD Toolbox           |
|  \\    /   O peration     | Version:  dev                                   |
|   \\  /    A nd           | Web:      www.OpenFOAM.org                      |
|    \\/     M anipulation  |                                                 |
\*---------------------------------------------------------------------------*/
FoamFile
{
    version     2.0;
    format      ascii;
    class       surfaceScalarField;
    location    "2.92";
    object      meshPhi;
}
// * * * * * * * * * * * * * * * * * * * * * * * * * * * * * * * * * * * * * //

dimensions      [0 3 -1 0 0 0 0];

internalField   nonuniform List<scalar> 
882
(
-1.98322e-05
3.95285e-05
-1.904e-05
2.56256e-05
-1.46889e-05
-1.05369e-05
3.18814e-05
-1.75922e-05
1.86483e-05
-1.3429e-05
6.37828e-06
-9.49476e-06
-4.43209e-06
-6.04545e-06
-3.1012e-06
2.18729e-05
-1.5443e-05
9.29112e-06
-1.15971e-05
-2.37403e-06
-7.94363e-06
-1.28383e-05
-4.70228e-06
-2.19697e-05
-1.89616e-06
-2.97937e-05
4.89519e-07
2.50148e-06
9.35159e-06
-1.25455e-05
-2.38845e-06
-9.10024e-06
-1.34106e-05
-5.79532e-06
-2.34985e-05
-2.8195e-06
-3.2585e-05
-1.93752e-07
-4.07395e-05
2.09149e-06
-4.81204e-05
4.07153e-06
-5.49758e-05
5.79782e-06
7.29641e-06
-6.09289e-05
-5.9437e-06
-8.87109e-06
-1.67383e-05
-5.87602e-06
-2.70416e-05
-2.96572e-06
-3.66833e-05
-2.97688e-07
-4.56079e-05
2.10498e-06
-5.38658e-05
4.2443e-06
-6.16262e-05
6.1425e-06
-6.90834e-05
7.83412e-06
9.32489e-06
-7.55851e-05
-2.42717e-05
-4.41907e-06
-3.40788e-05
-1.89497e-06
-4.36203e-05
5.96847e-07
-5.27545e-05
2.93106e-06
-6.14297e-05
5.08084e-06
-6.96769e-05
7.04005e-06
-7.75981e-05
8.81903e-06
-8.53217e-05
1.04384e-05
1.18889e-05
-9.20515e-05
-4.58592e-05
7.71995e-07
-5.46892e-05
2.82894e-06
-6.34673e-05
4.90087e-06
-7.20672e-05
6.89391e-06
-8.04335e-05
8.77692e-06
-8.85741e-05
1.05361e-05
-9.65465e-05
1.21717e-05
-0.00010443
1.36927e-05
1.5077e-05
-0.000111352
-7.08661e-05
6.61011e-06
-7.87871e-05
8.23007e-06
-8.6848e-05
9.903e-06
-9.49294e-05
1.15662e-05
-0.000102969
1.31847e-05
-0.000110955
1.47382e-05
-0.000118913
1.62184e-05
-0.000126885
1.76248e-05
1.89245e-05
-0.000133939
-9.93792e-05
1.2984e-05
-0.000106514
1.41947e-05
-0.000113952
1.55047e-05
-0.000121574
1.68653e-05
-0.000129312
1.82357e-05
-0.000137137
1.95899e-05
-0.000145052
2.09129e-05
-0.00015307
2.21966e-05
2.33986e-05
-0.000160214
-0.000131387
1.9663e-05
-0.000137925
2.05378e-05
-0.000144879
2.1549e-05
-0.000152137
2.26501e-05
-0.000159631
2.38001e-05
-0.000167322
2.49705e-05
-0.000175193
2.61416e-05
-0.000183236
2.72999e-05
2.8395e-05
-0.000190437
-0.000161177
2.58902e-05
-0.000166828
2.64181e-05
-0.000172999
2.70557e-05
-0.000179635
2.78392e-05
-0.00018665
2.87299e-05
-0.000193979
2.96928e-05
-0.000201579
3.06997e-05
-0.000209421
3.17286e-05
-0.00021748
3.2762e-05
3.37435e-05
-0.00022471
-0.000200223
3.27389e-05
-0.000205679
3.30894e-05
-0.000211671
3.35445e-05
-0.000218144
3.41515e-05
-0.000225034
3.4875e-05
-0.000232283
3.5683e-05
-0.000239844
3.65477e-05
-0.000247679
3.74458e-05
-0.000255746
3.83569e-05
3.92205e-05
-0.000262981
-0.000242431
3.91978e-05
-0.000247834
3.94294e-05
-0.000253785
3.97519e-05
-0.000260226
4.02273e-05
-0.000267099
4.08218e-05
-0.000274348
4.15042e-05
-0.000281921
4.22472e-05
-0.000289768
4.30264e-05
-0.000297839
4.38196e-05
4.45639e-05
-0.000305053
-0.000287516
4.49975e-05
-0.000293016
4.5163e-05
-0.000299059
4.54e-05
-0.000305587
4.57841e-05
-0.000312541
4.62826e-05
-0.000319861
4.68655e-05
-0.000327489
4.75054e-05
-0.000335369
4.81777e-05
-0.000343437
4.88592e-05
4.94864e-05
-0.000350608
-0.000335079
4.98655e-05
-0.000340828
5.00081e-05
-0.000347093
5.01997e-05
-0.000353817
5.05263e-05
-0.000360937
5.09569e-05
-0.000368391
5.14625e-05
-0.000376113
5.20164e-05
-0.000384041
5.25939e-05
-0.000392102
5.31716e-05
5.36873e-05
-0.000399209
-0.000384632
5.35319e-05
-0.000390771
5.36839e-05
-0.000397377
5.38612e-05
-0.000404394
5.4157e-05
-0.000411757
5.45422e-05
-0.000419398
5.4989e-05
-0.00042725
5.54718e-05
-0.00043524
5.59667e-05
-0.00044329
5.64511e-05
5.68654e-05
-0.000450319
-0.000435593
5.57372e-05
-0.000442246
5.59193e-05
-0.000449297
5.61041e-05
-0.000456691
5.63879e-05
-0.000464362
5.67439e-05
-0.000472239
5.71461e-05
-0.000480249
5.75706e-05
-0.000488317
5.79952e-05
-0.000496362
5.83992e-05
5.87279e-05
-0.000503314
-0.000487283
5.62397e-05
-0.000494553
5.64614e-05
-0.000502137
5.66656e-05
-0.000509979
5.69483e-05
-0.000518011
5.72852e-05
-0.000526164
5.76525e-05
-0.000534361
5.80284e-05
-0.000542527
5.83936e-05
-0.000550583
5.87311e-05
5.89941e-05
-0.00055748
-0.00053893
5.48239e-05
-0.000546898
5.50838e-05
-0.000555081
5.53099e-05
-0.000563425
5.55946e-05
-0.000571862
5.59158e-05
-0.000580321
5.62523e-05
-0.000588729
5.65847e-05
-0.000597015
5.68963e-05
-0.000605113
5.71748e-05
5.7384e-05
-0.000612006
-0.000589666
5.13086e-05
-0.000598386
5.15955e-05
-0.000607214
5.18372e-05
-0.000616097
5.21192e-05
-0.000624967
5.2422e-05
-0.000633753
5.27262e-05
-0.000642384
5.3014e-05
-0.000650798
5.32688e-05
-0.000658947
5.34764e-05
5.36033e-05
-0.000665858
-0.000638517
4.55557e-05
-0.000648016
4.58495e-05
-0.000657512
4.60929e-05
-0.000666952
4.63611e-05
-0.000676268
4.66374e-05
-0.000685389
4.69049e-05
-0.00069424
4.71465e-05
-0.000702756
4.73444e-05
-0.000710886
4.74779e-05
4.75081e-05
-0.000717683
-0.00068439
3.74809e-05
-0.000694664
3.7754e-05
-0.000704825
3.79782e-05
-0.000714823
3.82157e-05
-0.000724589
3.84532e-05
-0.000734046
3.86773e-05
-0.000743117
3.88739e-05
-0.00075172
3.90281e-05
-0.000759778
3.91213e-05
3.91203e-05
-0.000766332
-0.000726049
2.70656e-05
-0.000737055
2.72843e-05
-0.000747851
2.74625e-05
-0.000758388
2.76466e-05
-0.000768595
2.78274e-05
-0.000778395
2.79954e-05
-0.000787706
2.81414e-05
-0.000796439
2.82562e-05
-0.000804501
2.83294e-05
2.83415e-05
-0.000810934
-0.000762079
1.43754e-05
-0.000773717
1.45015e-05
-0.000785078
1.4603e-05
-0.000796109
1.47064e-05
-0.000806736
1.48069e-05
-0.000816879
1.48995e-05
-0.000826453
1.49796e-05
-0.000835369
1.50428e-05
-0.000843536
1.50845e-05
1.50954e-05
-0.000850005
-0.000790572
-0.000802678
-0.000814485
-0.000825923
-0.000836914
-0.000847371
-0.000857207
-0.000866332
-0.000874654
-0.000881219
4.0618e-06
-8.00526e-05
5.0775e-06
-8.31645e-05
5.61084e-06
6.0002e-06
-8.66129e-05
-9.67608e-05
6.34625e-06
-0.00010028
6.89711e-06
7.30797e-06
-0.000104318
-0.000116222
7.91586e-06
-0.000119915
8.47595e-06
8.89149e-06
-0.000124238
-0.000138926
9.80586e-06
-0.000142717
1.03681e-05
1.07712e-05
-0.000147174
-0.00016527
1.20015e-05
-0.000169077
1.25602e-05
1.29365e-05
-0.000173499
-0.000195521
1.44519e-05
-0.000199268
1.50027e-05
1.53412e-05
-0.000203502
-0.000229784
1.7073e-05
-0.000233406
1.76124e-05
1.79061e-05
-0.000237317
-0.000268007
1.97548e-05
-0.000271449
2.028e-05
2.05257e-05
-0.000274932
-0.00031
2.23682e-05
-0.000313219
2.28774e-05
2.30752e-05
-0.000316198
-0.000355448
2.4772e-05
-0.000358416
2.52638e-05
2.54168e-05
-0.00036084
-0.000403921
2.68183e-05
-0.000406616
2.72916e-05
2.74047e-05
-0.000408458
-0.000454888
2.83602e-05
-0.000457304
2.8815e-05
2.88984e-05
-0.000458567
-0.000507742
2.92557e-05
-0.000509906
2.96955e-05
2.97689e-05
-0.000510669
-0.000561804
2.9369e-05
-0.000563797
2.9801e-05
2.98949e-05
-0.000564262
-0.000616303
2.85563e-05
-0.000618271
2.89766e-05
2.91032e-05
-0.000618808
-0.000670166
2.66388e-05
-0.000672182
2.69852e-05
2.7022e-05
-0.000672994
-0.000721807
2.35539e-05
-0.000723523
2.37756e-05
2.36206e-05
-0.000723726
-0.000770073
1.93789e-05
-0.000771116
1.95376e-05
1.93555e-05
-0.000769703
-0.000814446
1.40512e-05
-0.000815067
1.41884e-05
1.41105e-05
-0.000812628
-0.000853499
7.48767e-06
-0.000854052
7.56854e-06
7.54737e-06
-0.000851447
-0.000884751
-0.000885306
-0.000882654
1.38013e-05
-0.000110145
1.65545e-05
-0.000117453
1.87574e-05
-0.000125812
2.14292e-05
2.44218e-05
-0.000130536
1.98013e-05
-0.000138418
2.20913e-05
-0.000147247
2.48389e-05
-0.00015712
2.78995e-05
-0.000167982
3.13124e-05
3.50728e-05
-0.000153636
2.35911e-05
-0.00016167
2.59005e-05
-0.000170564
2.86571e-05
-0.000180425
3.17028e-05
-0.000191243
3.50589e-05
-0.0002029
3.87409e-05
-0.000215257
4.27546e-05
4.70537e-05
-0.000179875
2.79105e-05
-0.000187784
3.01796e-05
-0.000196485
3.28803e-05
-0.000205999
3.58495e-05
-0.000216299
3.9099e-05
-0.000227381
4.26364e-05
-0.000239132
4.64527e-05
-0.000251278
5.0531e-05
5.46922e-05
-0.000209544
3.26777e-05
-0.000217047
3.48595e-05
-0.000225273
3.74507e-05
-0.0002342
4.02917e-05
-0.000243807
4.33886e-05
-0.000254037
4.67463e-05
-0.000264759
5.03524e-05
-0.000275856
5.41847e-05
5.8084e-05
-0.000242807
3.77463e-05
-0.000249648
3.98098e-05
-0.000257144
4.22546e-05
-0.000265256
4.49311e-05
-0.000273964
4.78421e-05
-0.000283184
5.09897e-05
-0.000292787
5.43604e-05
-0.00030264
5.79325e-05
6.15476e-05
-0.00027969
4.29143e-05
-0.000285657
4.48438e-05
-0.000292216
4.71232e-05
-0.000299315
4.96135e-05
-0.000306928
5.23147e-05
-0.000314957
5.5229e-05
-0.000323279
5.83433e-05
-0.000331767
6.1638e-05
6.49478e-05
-0.000320095
4.79408e-05
-0.000325026
4.97328e-05
-0.000330482
5.18392e-05
-0.000336392
5.41322e-05
-0.00034273
5.66098e-05
-0.000349398
5.92759e-05
-0.000356278
6.21197e-05
-0.00036325
6.51234e-05
6.81134e-05
-0.0003638
5.25566e-05
-0.000367581
5.42169e-05
-0.000371794
5.61504e-05
-0.000376372
5.8244e-05
-0.000381285
6.04932e-05
-0.000386443
6.29037e-05
-0.000391737
6.54683e-05
-0.000397051
6.81728e-05
7.08354e-05
-0.000410432
5.64727e-05
-0.000412995
5.80178e-05
-0.000415884
5.97944e-05
-0.000419036
6.17001e-05
-0.000422408
6.37238e-05
-0.000425926
6.58711e-05
-0.000429508
6.81463e-05
-0.000433046
7.05429e-05
7.28741e-05
-0.000459558
5.94189e-05
-0.0004609
6.08903e-05
-0.000462458
6.25625e-05
-0.000464136
6.43257e-05
-0.000465861
6.61384e-05
-0.000467604
6.79959e-05
-0.000469355
6.99379e-05
-0.000471017
7.1993e-05
7.39762e-05
-0.000510813
6.11767e-05
-0.000511098
6.2698e-05
-0.000511483
6.44485e-05
-0.000511741
6.62722e-05
-0.000511635
6.79674e-05
-0.000511296
6.9422e-05
-0.000511003
7.08231e-05
-0.000510667
7.23752e-05
7.39185e-05
-0.000564
6.15738e-05
-0.000563927
6.34712e-05
-0.000564049
6.59382e-05
-0.000563703
6.88203e-05
-0.000561148
7.10117e-05
-0.000557295
7.15429e-05
-0.000554256
7.14497e-05
-0.000551652
7.18636e-05
7.26102e-05
-0.000619108
6.02104e-05
-0.000620658
6.29105e-05
-0.000624206
6.76133e-05
-0.000629613
7.62963e-05
-0.000621479
8.28108e-05
-0.00060545
7.9189e-05
-0.000597895
7.28937e-05
-0.000592947
7.05081e-05
6.98631e-05
-0.000674594
5.55501e-05
-0.000679937
5.74297e-05
-0.000692732
6.09259e-05
-0.000697287
6.79676e-05
-0.000662401
7.32819e-05
-0.000632191
7.02055e-05
-0.000632254
6.54997e-05
-0.000630486
6.42269e-05
6.40058e-05
-0.000724312
4.75464e-05
-0.000728536
4.6734e-05
-0.000740495
4.4241e-05
-0.000721699
3.76634e-05
-0.000661996
3.28655e-05
-0.000642148
3.84619e-05
-0.000659457
4.72304e-05
-0.000664733
5.1987e-05
5.44367e-05
-0.000766393
3.86497e-05
-0.000762669
3.72439e-05
-0.000758302
3.36576e-05
-0.000725536
2.55106e-05
-0.000685616
1.97315e-05
-0.000685937
2.56757e-05
-0.000699526
3.51925e-05
-0.000702919
4.05353e-05
4.35072e-05
-0.000806958
2.84733e-05
-0.000798903
2.81948e-05
-0.000787172
2.73683e-05
-0.000766061
2.59084e-05
-0.000751491
2.49744e-05
-0.000750412
2.59521e-05
-0.000748274
2.80673e-05
-0.000743577
3.00249e-05
3.14771e-05
-0.000845609
1.53345e-05
-0.000837943
1.54083e-05
-0.000828875
1.5367e-05
-0.000817929
1.52039e-05
-0.000807237
1.51044e-05
-0.00079813
1.53053e-05
-0.000789162
1.5777e-05
-0.000779529
1.63389e-05
1.68379e-05
-0.000876752
-0.000869175
-0.000860714
-0.000851208
-0.000841002
-0.000830434
-0.000819435
-0.000807838
)
;

boundaryField
{
    inlet
    {
        type            calculated;
        value           nonuniform 0();
    }
    outlet
    {
        type            calculated;
        value           nonuniform 0();
    }
    flap
    {
        type            calculated;
        value           nonuniform 0();
    }
    upperWall
    {
        type            calculated;
        value           nonuniform List<scalar> 
22
(
0
0
0
0
0
0
0
0
0
0
0
-2.95977e-15
0
-6.02569e-15
0
0
0
0
0
0
0
0
)
;
    }
    lowerWall
    {
        type            calculated;
        value           nonuniform 0();
    }
    frontAndBack
    {
        type            empty;
        value           nonuniform 0();
    }
    procBoundary1to0
    {
        type            processor;
        value           nonuniform List<scalar> 
18
(
9.26498e-05
0.000125322
-1.88813e-05
0.000155599
0.000194897
0.000237105
0.000281993
0.00032918
0.000378197
0.000428483
0.000479388
0.000530167
0.000579979
0.000627885
0.000672828
0.000713609
0.00074886
0.000776753
)
;
    }
    procBoundary1to2
    {
        type            processor;
        value           nonuniform List<scalar> 
17
(
-0.000262302
-0.00028601
-0.00031157
-0.000339261
-0.000369127
-0.000401155
-0.000435252
-0.000471223
-0.000508783
-0.000547554
-0.000586862
-0.000625003
-0.000661569
-0.000698341
-0.000734469
-0.000766936
-0.000793518
)
;
    }
    procBoundary1to3
    {
        type            processor;
        value           nonuniform List<scalar> 9(-5.76657e-05 -5.25817e-05 -4.46463e-05 -3.41125e-05 -2.07966e-05 -4.55622e-06 1.47755e-05 3.73677e-05 6.33124e-05);
    }
    procBoundary1to4
    {
        type            processor;
        value           nonuniform List<scalar> 
30
(
1.96392e-05
4.42633e-05
1.52951e-05
1.08722e-05
1.27367e-05
6.87019e-06
3.78292e-06
-1.34438e-05
6.48986e-07
-1.34709e-06
-3.64349e-05
-4.20293e-06
-5.64392e-06
-3.21157e-06
-6.4908e-05
-4.56012e-06
-4.89961e-06
-1.13858e-05
-9.15578e-05
-1.58182e-05
-1.82908e-05
-2.10823e-05
-0.000135199
-2.7752e-05
-3.14136e-05
-0.00017962
-3.91499e-05
-4.35008e-05
-0.00022795
-5.13993e-05
)
;
    }
}


// ************************************************************************* //
