/*--------------------------------*- C++ -*----------------------------------*\
| =========                 |                                                 |
| \\      /  F ield         | OpenFOAM: The Open Source CFD Toolbox           |
|  \\    /   O peration     | Version:  dev                                   |
|   \\  /    A nd           | Web:      www.OpenFOAM.org                      |
|    \\/     M anipulation  |                                                 |
\*---------------------------------------------------------------------------*/
FoamFile
{
    version     2.0;
    format      ascii;
    class       surfaceVectorField;
    location    "2.92";
    object      Uf;
}
// * * * * * * * * * * * * * * * * * * * * * * * * * * * * * * * * * * * * * //

dimensions      [0 1 -1 0 0 0 0];

internalField   nonuniform List<vector> 
882
(
(9.93329 0 4.69449)
(10.1524 1.53536e-19 4.8482)
(10.2239 -7.26486e-20 4.59777)
(10.3063 -5.31046e-21 5.24364)
(10.3698 1.53648e-19 4.96513)
(10.5523 -1.47152e-19 5.34799)
(10.443 -7.26659e-20 4.71836)
(10.4903 -3.34765e-21 4.47386)
(10.618 8.97091e-21 5.07366)
(10.6552 8.54218e-21 4.80556)
(10.8312 7.03527e-20 5.43842)
(10.8539 -6.73368e-20 5.14553)
(11.0877 5.98847e-20 5.80761)
(11.0905 1.2537e-19 5.48959)
(11.3691 -2.57067e-19 5.83195)
(10.7049 7.98557e-20 4.5643)
(10.7308 3.88334e-20 4.32789)
(10.8941 -6.96704e-20 4.881)
(10.9088 5.82493e-20 4.62513)
(11.1171 -1.07626e-20 5.20056)
(11.117 4.76921e-21 4.92507)
(11.3771 -2.00202e-19 5.51793)
(11.3578 6.322e-20 5.22348)
(11.6763 -1.8788e-19 5.82666)
(11.6336 -2.641e-19 5.51502)
(12.0162 6.63224e-20 6.11877)
(11.9453 1.16701e-20 5.79321)
(12.2935 1.77498e-19 6.05033)
(10.9375 1.67402e-20 4.39149)
(10.9448 2.9026e-20 4.16452)
(11.1352 1.34512e-19 4.67212)
(11.131 -1.38131e-20 4.42936)
(11.3621 8.06045e-20 4.95091)
(11.3435 1.47398e-19 4.69285)
(11.6198 -2.91232e-21 5.22323)
(11.5836 -2.21579e-21 4.95102)
(11.9092 -5.87129e-20 5.48354)
(11.8521 -5.87127e-20 5.19918)
(12.2302 1.26188e-19 5.72547)
(12.1491 1.20681e-19 5.43196)
(12.581 1.76785e-19 5.94189)
(12.4735 1.25011e-19 5.64344)
(12.9577 5.35388e-20 6.1266)
(12.819 5.41901e-20 5.82701)
(13.2264 2.77169e-19 5.97969)
(13.3567 3.52254e-20 6.25416)
(11.1415 -2.40923e-21 4.20466)
(11.1327 -5.82104e-20 3.98785)
(11.3431 -4.63614e-22 4.45232)
(11.3232 -6.43078e-20 4.22283)
(11.5695 6.22801e-20 4.69498)
(11.5361 2.4359e-19 4.45364)
(11.8213 -5.94195e-20 4.92858)
(11.7719 -1.21411e-19 4.67676)
(12.0983 1.25468e-19 5.14852)
(12.0307 -1.18005e-19 4.88825)
(12.3994 1.19477e-19 5.34986)
(12.3115 1.46257e-20 5.08381)
(12.7223 -9.20362e-22 5.52733)
(12.6128 5.49648e-20 5.25902)
(13.0633 2.84236e-19 5.67637)
(12.9291 1.82137e-19 5.40924)
(13.2946 1.89616e-19 5.53241)
(13.4183 -7.99395e-19 5.77852)
(11.3179 -1.21718e-19 4.00778)
(11.2957 -1.86991e-19 3.80136)
(11.5201 1.85983e-19 4.22575)
(11.4872 -5.59158e-20 4.00921)
(11.743 5.47266e-20 4.43672)
(11.6977 3.5862e-19 4.21107)
(11.9865 -1.81484e-19 4.63726)
(11.927 -1.28509e-19 4.40392)
(12.2498 -2.31257e-19 4.8237)
(12.1746 -2.8611e-19 4.58455)
(12.5313 -5.14093e-20 4.99225)
(12.4391 2.11842e-20 4.74963)
(12.8286 2.42832e-19 5.13915)
(12.7187 -2.30917e-19 4.89591)
(13.1384 9.22595e-20 5.26123)
(13.0087 3.69802e-19 5.02018)
(13.3388 -2.35648e-19 5.12121)
(13.4569 -4.75247e-20 5.34467)
(11.4685 -1.19489e-19 3.80406)
(11.435 -4.81261e-21 3.60792)
(11.6688 1.21389e-19 3.99556)
(11.6254 -6.08713e-20 3.79138)
(11.8862 1.70026e-19 4.17894)
(11.8315 1.20336e-19 3.96777)
(12.12 -2.35986e-19 4.3514)
(12.0529 -4.29676e-21 4.13459)
(12.3693 -2.68438e-20 4.51004)
(12.2886 -2.5855e-19 4.2893)
(12.6322 -1.63234e-19 4.65205)
(12.5372 2.51685e-19 4.42936)
(12.9064 -9.86908e-20 4.77478)
(12.7969 -3.2878e-19 4.55241)
(13.1891 3.88646e-20 4.87609)
(13.0636 4.62995e-20 4.65627)
(13.3637 4.17563e-21 4.74035)
(13.4769 -1.11401e-19 4.94534)
(11.5954 5.50745e-20 3.59605)
(11.5525 1.14605e-19 3.40983)
(11.7919 -6.17199e-20 3.76412)
(11.74 1.62057e-19 3.57152)
(12.0025 -5.8389e-20 3.92358)
(11.9405 -2.25447e-19 3.72562)
(12.2261 -2.79662e-20 4.07219)
(12.1532 0 3.87011)
(12.4615 2.79657e-20 4.20772)
(12.3771 -2.7666e-20 4.00301)
(12.7071 8.06339e-20 4.32812)
(12.6107 2.8811e-20 4.12242)
(12.9607 -1.7866e-19 4.43153)
(12.8522 2.53225e-19 4.22667)
(13.2198 5.08322e-21 4.51656)
(13.0984 -6.05262e-19 4.31428)
(13.3727 5.99522e-19 4.38512)
(13.4817 -3.06592e-19 4.5748)
(11.7006 2.24251e-19 3.38572)
(11.6501 2.54675e-21 3.20892)
(11.8922 -6.20786e-21 3.53314)
(11.8335 1.15024e-19 3.35127)
(12.0952 -1.65283e-19 3.6719)
(12.0276 -2.73559e-19 3.48591)
(12.3084 2.72617e-22 3.80023)
(12.2313 1.321e-19 3.61123)
(12.5306 -2.66647e-20 3.91647)
(12.4436 2.61934e-20 3.72572)
(12.7603 2.06032e-19 4.01913)
(12.6632 1.72929e-19 3.82799)
(12.9955 -1.85983e-19 4.10693)
(12.8884 2.78281e-21 3.91686)
(13.2341 -3.29881e-21 4.17898)
(13.1164 -2.42663e-19 3.99136)
(13.3688 3.91306e-19 4.05164)
(13.474 -1.92407e-19 4.22852)
(11.7863 -1.09155e-19 3.17454)
(11.7296 -1.08336e-19 3.00656)
(11.9723 -1.59416e-19 3.3038)
(11.9082 -2.39786e-21 3.13178)
(12.1673 3.1737e-20 3.42464)
(12.0954 -1.06489e-19 3.24943)
(12.3704 1.58469e-19 3.5357)
(12.2902 1.35069e-19 3.35828)
(12.5802 2.30911e-19 3.63575)
(12.4916 2.24006e-19 3.45717)
(12.7953 -3.56281e-20 3.72371)
(12.6982 3.14886e-21 3.5451)
(13.0142 -5.62313e-20 3.79874)
(12.9088 -2.34512e-19 3.62126)
(13.235 1.62743e-19 3.86028)
(13.1208 1.95998e-19 3.68504)
(13.3541 -2.08946e-20 3.73674)
(13.456 -4.51781e-19 3.90279)
(11.6825 -1.56782e-19 2.84333)
(11.6269 -1.54751e-19 2.68742)
(11.8546 1.17263e-21 2.96355)
(11.7929 4.77865e-20 2.80374)
(12.0346 5.1687e-20 3.07687)
(11.9664 5.30265e-20 2.91381)
(12.2217 -2.51862e-22 3.18218)
(12.1466 -1.95508e-19 3.01663)
(12.4149 2.02322e-19 3.27848)
(12.3328 1.74607e-19 3.11127)
(12.6132 -9.713e-21 3.36483)
(12.5238 3.70086e-19 3.19687)
(12.8152 -2.0113e-19 3.44052)
(12.7187 -4.02525e-19 3.27272)
(13.0195 2.46816e-20 3.50498)
(12.916 0 3.33828)
(13.2248 1.18499e-20 3.55787)
(13.114 2.46388e-20 3.39316)
(13.3307 -5.21181e-22 3.43778)
(13.4295 -4.35074e-19 3.5946)
(11.7401 5.50976e-20 2.64756)
(11.68 4.60044e-20 2.49851)
(11.9076 1.00913e-19 2.75347)
(11.842 5.69367e-21 2.60118)
(12.0814 -2.00559e-19 2.85277)
(12.0101 0 2.69783)
(12.2608 -1.58134e-20 2.9446)
(12.1835 -1.04813e-20 2.78768)
(12.4448 3.46768e-19 3.02821)
(12.3614 -1.46502e-20 2.87002)
(12.6324 -3.37034e-20 3.10293)
(12.5429 1.9575e-19 2.94423)
(12.8226 -1.95806e-19 3.16827)
(12.727 -2.00913e-19 3.00982)
(13.014 0 3.22387)
(12.9126 0 3.06644)
(13.2056 1.19019e-20 3.26956)
(13.0981 0 3.11385)
(13.3004 1.18776e-20 3.15255)
(13.3961 7.71831e-21 3.30146)
(11.7845 -4.66785e-21 2.45162)
(11.721 9.81491e-20 2.30895)
(11.9472 -9.7693e-20 2.54478)
(11.8787 -1.23565e-19 2.39936)
(12.1149 1.94694e-19 2.63172)
(12.0414 2.08352e-19 2.4841)
(12.2869 -9.27804e-21 2.71179)
(12.2082 -2.02122e-19 2.56255)
(12.4623 -1.69025e-19 2.78443)
(12.3784 1.73163e-19 2.63419)
(12.6402 2.3781e-20 2.84918)
(12.5511 -1.85894e-19 2.69857)
(12.8197 0 2.90572)
(12.7254 1.80853e-19 2.75537)
(12.9997 0 2.95383)
(12.9005 -1.95956e-19 2.80437)
(13.1793 0 2.99344)
(13.0751 1.88732e-19 2.84545)
(13.2648 -1.81236e-19 2.87911)
(13.3575 -4.07739e-19 3.02126)
(11.8176 -2.39453e-20 2.25596)
(11.7515 0 2.11918)
(11.9755 1.90424e-19 2.33771)
(11.905 -1.08093e-21 2.19856)
(12.1372 -1.98746e-19 2.41372)
(12.0623 2.1329e-19 2.27267)
(12.3022 -1.47093e-20 2.48347)
(12.2228 -2.04337e-19 2.34106)
(12.4697 1.55356e-19 2.54658)
(12.3858 1.978e-19 2.40332)
(12.6388 -2.44558e-20 2.60273)
(12.5505 -1.92901e-19 2.45916)
(12.8087 -2.04837e-20 2.6517)
(12.7161 1.9645e-19 2.50836)
(12.9786 -2.0506e-21 2.6934)
(12.8819 -1.44734e-20 2.55079)
(13.1477 5.45839e-21 2.72782)
(13.0467 3.54858e-21 2.58643)
(13.2254 -2.99378e-21 2.61575)
(13.315 -1.20619e-19 2.75212)
(11.8411 2.3437e-20 2.06084)
(11.7732 8.55534e-20 1.92946)
(11.9942 2.26286e-20 2.13237)
(11.9224 -1.54934e-19 1.99888)
(12.1503 2.06988e-19 2.19864)
(12.0747 -1.96893e-19 2.06348)
(12.3088 1.39636e-20 2.25929)
(12.2293 5.81414e-19 2.12291)
(12.4689 -1.5958e-19 2.31405)
(12.3857 -3.65401e-19 2.17691)
(12.6301 3.39766e-20 2.36269)
(12.5431 2.31121e-20 2.22525)
(12.7915 2.02265e-19 2.4051)
(12.7009 -1.03742e-20 2.26781)
(12.9524 -8.78599e-21 2.44124)
(12.8584 1.90884e-19 2.30452)
(13.1122 -1.99967e-21 2.47115)
(13.0147 -2.44896e-20 2.33541)
(13.1838 2.91197e-21 2.36093)
(13.2702 -2.93002e-19 2.4924)
(11.8567 -9.7515e-20 1.86637)
(11.7877 -8.51226e-20 1.7399)
(12.0051 -3.7993e-19 1.92867)
(11.9328 -3.52434e-19 1.80027)
(12.1559 1.87734e-19 1.98622)
(12.0803 -1.97933e-19 1.85629)
(12.3084 1.91474e-19 2.03879)
(12.2295 5.35579e-19 1.90772)
(12.462 -1.77716e-19 2.08615)
(12.3798 -1.82332e-19 1.95435)
(12.616 -2.23761e-20 2.1282)
(12.5307 1.06515e-20 1.99606)
(12.7698 -2.17847e-20 2.16485)
(12.6816 -1.16984e-20 2.03275)
(12.9229 1.74412e-19 2.19611)
(12.8318 -1.6723e-19 2.06443)
(13.0745 -1.67357e-20 2.22205)
(12.9806 3.4492e-19 2.09113)
(13.1412 -1.88872e-19 2.11329)
(13.2242 2.70137e-19 2.24059)
(11.8659 -3.46672e-19 1.67253)
(11.7964 1.55383e-19 1.55047)
(12.01 -1.65745e-19 1.72644)
(11.9378 -3.21362e-19 1.60257)
(12.1559 1.59405e-19 1.77615)
(12.0808 3.73085e-21 1.6508)
(12.303 1.51646e-19 1.82145)
(12.2251 -9.41411e-21 1.695)
(12.4506 1.09275e-20 1.86223)
(12.37 1.78915e-19 1.73502)
(12.5982 2.15691e-20 1.8984)
(12.5151 4.96259e-22 1.77078)
(12.7454 -1.6092e-19 1.92994)
(12.6598 1.09182e-20 1.80224)
(12.8915 8.14422e-21 1.95688)
(12.8036 -1.71385e-19 1.82942)
(13.036 1.7047e-19 1.97931)
(12.9459 3.37593e-19 1.85238)
(13.0992 -4.56672e-21 1.87153)
(13.1786 3.853e-19 1.99541)
(11.8703 1.8077e-19 1.47906)
(11.801 1.7767e-19 1.36099)
(12.0105 -1.47303e-19 1.52531)
(11.9388 -1.91646e-19 1.40547)
(12.1519 -1.69284e-19 1.56787)
(12.0779 0 1.44657)
(12.2941 1.87473e-20 1.6066)
(12.2177 -1.85796e-20 1.48417)
(12.4364 1.68033e-19 1.64144)
(12.3579 9.11371e-21 1.51819)
(12.5785 -1.04103e-20 1.67232)
(12.4979 -1.71044e-19 1.54856)
(12.7198 0 1.69927)
(12.6372 1.63745e-19 1.57529)
(12.8599 1.66862e-19 1.72232)
(12.7755 0 1.59841)
(12.9983 1.60074e-19 1.74156)
(12.9121 1.66709e-19 1.61798)
(13.0592 -1.62748e-19 1.63436)
(13.1347 -7.65012e-19 1.75545)
(11.8714 -2.04453e-19 1.28586)
(11.8027 -3.22821e-19 1.17117)
(12.008 -4.04726e-20 1.32504)
(11.9374 -2.86138e-20 1.20856)
(12.1455 1.54447e-19 1.36103)
(12.0729 1.59477e-19 1.24306)
(12.2833 -2.84214e-20 1.39376)
(12.2089 1.64206e-19 1.27459)
(12.4211 -3.38621e-19 1.42317)
(12.3449 -1.7863e-19 1.30308)
(12.5583 7.80501e-21 1.44924)
(12.4805 -1.64383e-19 1.32853)
(12.6945 1.63592e-19 1.47201)
(12.6153 1.67852e-19 1.35092)
(12.8294 0 1.49151)
(12.7488 0 1.37031)
(12.9626 -1.62203e-19 1.50784)
(12.8806 -4.91343e-21 1.38675)
(13.0224 -1.5714e-19 1.40058)
(13.0937 2.68112e-19 1.51969)
(11.8705 -1.42263e-19 1.09208)
(11.8029 -1.59595e-19 0.980573)
(12.0041 1.76547e-19 1.12466)
(11.9348 9.88307e-20 1.0113)
(12.1381 1.69489e-19 1.15455)
(12.0674 9.54547e-20 1.03963)
(12.2722 9.89504e-21 1.18171)
(12.2001 1.01535e-20 1.06549)
(12.4061 0 1.20611)
(12.3326 -1.42944e-19 1.08885)
(12.5391 0 1.22774)
(12.4645 -1.54252e-21 1.10971)
(12.6711 0 1.24664)
(12.5954 1.60583e-19 1.12807)
(12.8016 -5.04115e-21 1.26285)
(12.725 4.80777e-21 1.14398)
(12.9304 1.21093e-22 1.27645)
(12.8528 -2.35917e-22 1.1575)
(12.9902 1.51444e-19 1.16891)
(13.0571 3.68414e-19 1.28638)
(11.869 8.78304e-20 0.898074)
(11.8029 0 0.788659)
(11.9999 1.56995e-20 0.924426)
(11.9326 1.3749e-20 0.813059)
(12.1311 -6.79762e-20 0.948589)
(12.0627 8.00199e-20 0.835529)
(12.2622 -1.46674e-19 0.97053)
(12.1928 -7.57878e-20 0.856031)
(12.3927 -1.44401e-19 0.990234)
(12.3224 -1.6067e-19 0.874545)
(12.5224 1.63242e-19 1.00771)
(12.4513 -1.57237e-21 0.891074)
(12.6508 1.65397e-19 1.02299)
(12.5791 1.55261e-19 0.905637)
(12.7778 9.73254e-21 1.03613)
(12.7055 -7.40676e-20 0.918272)
(12.9029 1.55054e-19 1.04718)
(12.8302 8.07751e-20 0.929034)
(12.964 1.47805e-19 0.938162)
(13.0259 -2.62652e-19 1.0553)
(11.8683 -7.59474e-20 0.701436)
(11.804 0 0.594749)
(11.9971 7.97574e-20 0.721835)
(11.932 -3.76982e-21 0.613039)
(12.1261 7.18874e-20 0.740526)
(12.0602 7.07773e-20 0.629872)
(12.2547 -9.02001e-20 0.757488)
(12.1882 -8.22918e-20 0.645224)
(12.3827 -1.4081e-20 0.772716)
(12.3157 6.26632e-20 0.659086)
(12.5097 -9.63721e-21 0.786223)
(12.4424 -6.94951e-20 0.671462)
(12.6354 -9.04532e-20 0.798035)
(12.5679 -7.99299e-20 0.682371)
(12.7596 -1.10618e-21 0.808195)
(12.6919 -4.62105e-21 0.691839)
(12.8819 7.33929e-20 0.816754)
(12.8141 5.34063e-21 0.699906)
(12.9453 1.46057e-19 0.706748)
(13.0022 -2.92193e-21 0.823053)
(11.8694 7.40167e-20 0.504555)
(11.8072 3.50274e-20 0.398036)
(11.9968 -1.29355e-20 0.519183)
(11.9341 7.33271e-20 0.41034)
(12.1241 -8.74599e-20 0.532588)
(12.061 -1.18643e-19 0.421661)
(12.251 7.4583e-20 0.544759)
(12.1877 -2.20771e-22 0.431985)
(12.3771 5.75339e-21 0.555694)
(12.3138 7.91125e-20 0.441308)
(12.5022 -1.41591e-19 0.565406)
(12.439 -3.58887e-20 0.449636)
(12.6259 8.15849e-21 0.573915)
(12.5629 -1.7571e-19 0.456985)
(12.748 2.00702e-21 0.581251)
(12.6853 1.48437e-19 0.463378)
(12.8683 7.90591e-20 0.587455)
(12.806 -7.32112e-20 0.468848)
(12.9353 8.18085e-20 0.473533)
(12.9865 -7.18686e-20 0.592049)
(11.8737 3.43433e-20 0.300946)
(11.714 5.33513e-20 0.197672)
(12.0001 -3.52233e-20 0.309814)
(11.8381 1.65377e-20 0.203998)
(12.1265 -2.90937e-20 0.31793)
(11.9625 -5.42972e-20 0.209817)
(12.2523 4.4601e-21 0.325289)
(12.0866 4.57672e-21 0.215122)
(12.3774 3.63353e-20 0.331893)
(12.2101 1.73146e-20 0.219914)
(12.5013 -7.09566e-20 0.337754)
(12.3328 1.29665e-21 0.224196)
(12.6239 -3.16536e-20 0.342888)
(12.4544 -1.0701e-19 0.227977)
(12.7449 7.11898e-20 0.347318)
(12.5745 8.95769e-20 0.231269)
(12.864 -7.12456e-20 0.351079)
(12.6929 -1.72691e-20 0.234088)
(12.82 -5.46308e-20 0.236518)
(12.9811 2.85873e-19 0.353841)
(11.6777 3.5062e-20 0.0992473)
(11.7997 -3.08268e-21 0.102495)
(11.9217 -1.97328e-20 0.105475)
(12.0435 1.77672e-20 0.108187)
(12.1646 -1.86287e-20 0.110628)
(12.2848 -3.57468e-20 0.112802)
(12.4038 1.74338e-20 0.114714)
(12.5213 -1.20515e-21 0.116369)
(12.6372 -4.64195e-22 0.117783)
(12.7511 -2.82244e-20 0.118793)
(13.4574 -6.95748e-19 6.03861)
(13.5969 -6.91947e-19 5.81608)
(13.5001 -7.2681e-19 5.57997)
(13.7776 3.42552e-19 5.85112)
(13.6948 -6.41126e-19 5.61701)
(13.8595 6.4693e-19 5.64496)
(13.9607 4.6532e-19 5.87568)
(13.6163 -6.7458e-19 5.3755)
(13.5231 -2.05832e-21 5.16039)
(13.7772 -3.43574e-19 5.40438)
(13.6975 -3.33782e-19 5.19107)
(13.8447 1.66237e-20 5.21438)
(13.9398 5.24892e-19 5.4256)
(13.6205 3.49233e-19 4.97109)
(13.5303 -3.13244e-19 4.77316)
(13.7651 3.13561e-20 4.99533)
(13.6877 6.62199e-19 4.79901)
(13.8205 -3.13869e-19 4.81882)
(13.9109 -1.98887e-19 5.01369)
(13.6121 5.34206e-21 4.59664)
(13.5245 -6.65559e-19 4.41295)
(13.7431 3.19756e-19 4.61732)
(13.6676 3.38811e-19 4.43505)
(13.7884 -4.1229e-22 4.45212)
(13.875 -6.17835e-21 4.63334)
(13.5932 -3.3014e-19 4.24725)
(13.5079 -6.67314e-19 4.0755)
(13.7127 1.4754e-20 4.26511)
(13.6389 -4.71839e-21 4.09459)
(13.7496 -3.03302e-19 4.10947)
(13.8331 1.30033e-20 4.27925)
(13.5656 -3.40429e-19 3.919)
(13.4823 -6.49643e-19 3.75736)
(13.6754 -3.27038e-19 3.93456)
(13.6031 6.16717e-19 3.77398)
(13.7051 -6.18169e-19 3.78704)
(13.7859 -3.11083e-19 3.94713)
(13.5308 3.20554e-19 3.60873)
(13.4496 -3.221e-19 3.45571)
(13.6323 3.32881e-19 3.62238)
(13.5615 6.42085e-19 3.47027)
(13.656 -3.04688e-19 3.4818)
(13.7344 -5.14603e-19 3.63359)
(13.4903 0 3.31384)
(13.4111 -3.00078e-19 3.16821)
(13.5846 0 3.32586)
(13.5154 1.07661e-20 3.18102)
(13.6034 2.98645e-19 3.19123)
(13.6794 0 3.3359)
(13.4454 -2.90288e-19 3.03213)
(13.3684 -3.07408e-19 2.89284)
(13.5335 3.1335e-19 3.04276)
(13.466 3.00701e-19 2.90413)
(13.5484 -2.8197e-19 2.91321)
(13.622 3.00032e-19 3.05177)
(13.3976 2.93727e-19 2.76171)
(13.3229 -3.04474e-19 2.6278)
(13.4803 -3.02421e-19 2.77112)
(13.4147 2.96801e-19 2.63777)
(13.4922 -5.97904e-19 2.64584)
(13.5632 -6.92678e-19 2.77922)
(13.348 -3.07755e-19 2.50083)
(13.2759 -2.29855e-20 2.37149)
(13.426 4.52936e-21 2.50916)
(13.3626 -2.89042e-19 2.38028)
(13.4359 8.99366e-21 2.38743)
(13.5041 6.07146e-21 2.51644)
(13.298 -2.44795e-21 2.24799)
(13.2286 5.79592e-19 2.12252)
(13.3718 -2.87955e-19 2.25534)
(13.311 -8.58737e-19 2.13024)
(13.3805 2.79143e-19 2.13655)
(13.4458 5.99126e-21 2.26183)
(13.2488 -2.85134e-19 2.00189)
(13.1826 -2.69541e-19 1.87954)
(13.319 -2.90895e-19 2.00834)
(13.2611 -2.96532e-19 1.88628)
(13.3275 1.13453e-20 1.89182)
(13.3894 4.75504e-19 2.01409)
(13.2018 -2.81108e-19 1.76108)
(13.1391 -2.99879e-19 1.64127)
(13.2689 9.60807e-21 1.76669)
(13.2143 2.84888e-19 1.6471)
(13.2779 -2.76842e-19 1.65192)
(13.3362 -3.6579e-19 1.77175)
(13.1582 2.75098e-19 1.52452)
(13.0993 5.49538e-19 1.40643)
(13.2227 -2.13305e-21 1.52936)
(13.1718 -2.68577e-19 1.41141)
(13.233 -2.59573e-19 1.41553)
(13.2873 0 1.53376)
(13.1193 3.60984e-22 1.29045)
(13.0647 1.09274e-20 1.17381)
(13.1817 -5.3261e-19 1.29454)
(13.1348 -1.69957e-20 1.17797)
(13.1942 -5.23318e-19 1.18143)
(13.2441 -3.51703e-19 1.29829)
(13.0864 -7.80587e-21 1.05864)
(13.0366 -2.72116e-19 0.942001)
(13.147 -1.48673e-21 1.06202)
(13.1049 2.6367e-19 0.945342)
(13.1627 -2.6373e-19 0.948121)
(13.2076 -3.49493e-19 1.06513)
(13.0612 -1.31276e-23 0.825657)
(13.0163 -1.26314e-19 0.709817)
(13.1204 9.9997e-22 0.828293)
(13.0833 1.49688e-21 0.712361)
(13.14 4.77609e-22 0.714504)
(13.1795 0 0.830734)
(13.0446 -1.26293e-19 0.593961)
(13.0054 1.15905e-19 0.475375)
(13.1028 9.7327e-22 0.5959)
(13.0714 -1.21587e-19 0.477079)
(13.1273 1.18798e-19 0.478466)
(13.161 6.49218e-22 0.597699)
(13.0385 1.2311e-19 0.354938)
(12.8887 2.2134e-19 0.237737)
(13.096 -3.59568e-21 0.356013)
(12.9536 -6.58864e-20 0.238493)
(13.0084 9.18684e-20 0.239154)
(13.1536 1.16036e-19 0.357012)
(12.8071 3.05304e-20 0.119157)
(12.8631 3.01501e-20 0.119499)
(12.9192 -2.92109e-20 0.119843)
(14.1586 1.85929e-19 5.67398)
(14.2726 3.29373e-20 5.44317)
(14.1116 4.78452e-19 5.24063)
(14.6073 -1.52756e-19 5.42611)
(14.3973 -3.26509e-19 5.24217)
(14.935 -1.09421e-21 5.373)
(14.7141 1.38027e-19 5.21351)
(15.0303 -1.35515e-19 5.1522)
(14.2096 1.39796e-19 5.03141)
(14.0608 3.28325e-19 4.84223)
(14.5127 -3.86079e-20 5.02253)
(14.3187 -1.86658e-19 4.84673)
(14.8143 4.07712e-21 4.9859)
(14.607 1.82412e-20 4.82808)
(15.1089 -3.11147e-20 4.92123)
(14.8997 -1.65615e-20 4.78378)
(15.391 5.8061e-20 4.83018)
(15.1821 1.18429e-19 4.71429)
(15.4506 4.51594e-20 4.62142)
(14.1452 1.08305e-20 4.65034)
(14.0066 1.08544e-20 4.47309)
(14.4203 -1.32847e-19 4.64609)
(14.2409 0 4.47901)
(14.6966 -2.48589e-21 4.61979)
(14.5038 -1.54354e-19 4.46658)
(14.97 1.33738e-19 4.57083)
(14.7731 1.42283e-19 4.43348)
(15.2367 1.06977e-19 4.50007)
(15.0365 -3.62894e-21 4.37971)
(15.4933 4.83932e-21 4.409)
(15.2911 1.08252e-19 4.3063)
(15.7368 -1.03162e-19 4.2995)
(15.5358 -6.30148e-21 4.21471)
(15.7687 -7.71467e-21 4.10668)
(14.0794 0 4.29532)
(13.9492 1.74229e-19 4.12836)
(14.3305 -1.86121e-20 4.294)
(14.1635 0 4.13504)
(14.584 -1.0577e-20 4.27474)
(14.4044 -9.76121e-21 4.12684)
(14.8368 4.73522e-21 4.23683)
(14.6526 1.29695e-20 4.10171)
(15.0861 -4.77583e-21 4.18072)
(14.8972 -3.91485e-21 4.05937)
(15.3292 9.93831e-20 4.1073)
(15.1362 -8.8958e-22 4.00044)
(15.5637 9.1477e-20 4.01777)
(15.3688 -1.41952e-21 3.9258)
(15.7875 -1.87256e-19 3.91365)
(15.5934 -3.57861e-21 3.83662)
(15.8081 -8.17296e-20 3.73432)
(14.012 1.78141e-19 3.96225)
(13.889 1.21998e-20 3.80413)
(14.2427 9.25331e-21 3.96293)
(14.0862 1.6303e-19 3.81121)
(14.4763 1.38315e-20 3.94882)
(14.3082 9.45878e-21 3.80609)
(14.7104 4.48133e-21 3.91919)
(14.5378 -1.35389e-19 3.78694)
(14.9428 0 3.87421)
(14.7653 1.35092e-19 3.75336)
(15.1716 -1.04169e-19 3.8144)
(14.9891 4.74584e-22 3.70565)
(15.3945 -9.87866e-20 3.74053)
(15.2087 -1.06492e-19 3.64436)
(15.61 1.06303e-19 3.65365)
(15.423 1.05547e-19 3.57026)
(15.6301 4.63203e-21 3.48437)
(13.9431 -1.04622e-20 3.64777)
(13.8263 -1.70358e-19 3.4973)
(14.1564 1.66676e-19 3.64984)
(14.0089 1.67026e-19 3.50452)
(14.3726 -1.40177e-19 3.63964)
(14.2146 0 3.50169)
(14.5902 -7.34247e-21 3.61645)
(14.428 -1.43309e-19 3.48715)
(14.8074 1.38589e-19 3.58025)
(14.6403 9.71813e-21 3.46048)
(15.0223 4.85209e-22 3.53131)
(14.8501 6.74327e-21 3.42174)
(15.2335 9.82465e-20 3.4701)
(15.0574 1.13693e-19 3.37126)
(15.4393 3.60909e-21 3.39735)
(15.261 -4.93194e-24 3.30954)
(15.4595 -1.54609e-23 3.23733)
(13.8732 0 3.34913)
(13.762 -1.57944e-19 3.20529)
(14.0713 0 3.35218)
(13.9319 5.58269e-21 3.2125)
(14.2726 0 3.34497)
(14.1235 1.51425e-19 3.21134)
(14.4756 -1.2898e-19 3.32686)
(14.3227 0 3.20041)
(14.6791 -1.25396e-19 3.29772)
(14.5215 -1.31873e-19 3.17924)
(14.8815 1.20347e-19 3.25763)
(14.7189 6.39806e-21 3.14779)
(15.0814 1.55627e-20 3.20688)
(14.9147 1.18255e-19 3.10621)
(15.2776 -3.72441e-21 3.14596)
(15.1083 -1.02941e-19 3.05484)
(15.2981 5.33953e-22 2.99419)
(13.8028 -1.59128e-19 3.06407)
(13.6968 -9.5339e-22 2.92598)
(13.9878 1.58819e-19 3.06774)
(13.8557 -1.51991e-19 2.93302)
(14.1759 1.54844e-19 3.06283)
(14.035 3.09677e-19 2.93309)
(14.3662 0 3.04874)
(14.2217 0 2.92496)
(14.5575 -1.50443e-23 3.02531)
(14.4087 0 2.90819)
(14.7485 1.73132e-21 2.99252)
(14.5949 -6.47629e-25 2.88269)
(14.9382 1.78206e-21 2.95051)
(14.7804 1.10945e-19 2.84852)
(15.1253 -1.00818e-19 2.89962)
(14.9646 -1.08929e-19 2.80589)
(15.1463 -9.70087e-20 2.7551)
(13.7328 6.57366e-21 2.79062)
(13.6318 1.64846e-19 2.65744)
(13.9063 -5.22289e-21 2.79468)
(13.7811 -1.52001e-19 2.66425)
(14.083 1.58026e-19 2.7915)
(13.9497 2.96592e-19 2.66522)
(14.262 0 2.78058)
(14.1256 -1.40071e-19 2.65927)
(14.4425 1.47355e-23 2.76177)
(14.302 0 2.64602)
(14.6234 1.09411e-19 2.73501)
(14.4783 1.50688e-23 2.62539)
(14.8036 2.38663e-21 2.70036)
(14.6544 1.13632e-19 2.5974)
(14.9823 -1.05312e-19 2.658)
(14.8301 -1.11636e-19 2.56213)
(15.0041 6.20743e-21 2.51976)
(13.664 9.61129e-21 2.52699)
(13.5677 0 2.39793)
(13.8276 1.48332e-19 2.53128)
(13.7089 -1.48563e-19 2.40445)
(13.9943 7.55699e-23 2.52947)
(13.8681 2.85508e-19 2.4061)
(14.1635 -1.43255e-19 2.5211)
(14.0345 -1.43542e-19 2.40191)
(14.3343 0 2.50604)
(14.2018 -5.03626e-22 2.39154)
(14.506 1.7639e-21 2.48426)
(14.3691 1.17782e-19 2.37493)
(14.6778 1.80001e-21 2.45576)
(14.5369 -1.14254e-19 2.35207)
(14.8488 0 2.42062)
(14.7048 0 2.32298)
(14.872 0 2.28775)
(13.5972 -1.58668e-19 2.27149)
(13.5057 1.53784e-19 2.14596)
(13.7522 -1.68841e-20 2.27588)
(13.6396 -3.08501e-19 2.15207)
(13.9103 1.47114e-19 2.27515)
(13.7909 8.13866e-21 2.15417)
(14.0708 -5.04633e-22 2.26889)
(13.949 1.36593e-19 2.15142)
(14.2333 1.17508e-19 2.25697)
(14.1083 -1.24532e-19 2.14346)
(14.3969 4.17603e-21 2.23934)
(14.2679 2.4335e-19 2.13021)
(14.5611 -1.18694e-19 2.21598)
(14.4283 -1.02957e-20 2.11164)
(14.7251 0 2.18691)
(14.5893 -1.08385e-19 2.08773)
(14.7502 0 2.05857)
(13.5335 1.32761e-20 2.02283)
(13.4469 1.61294e-19 1.90018)
(13.6809 -2.89065e-19 2.02712)
(13.5746 -3.95268e-21 1.90581)
(13.8315 -4.75374e-21 2.02718)
(13.7188 -1.40558e-19 1.90815)
(13.9846 1.54627e-20 2.02263)
(13.8698 1.41038e-19 1.90647)
(14.1397 -4.04439e-21 2.01334)
(14.0221 -1.27112e-19 1.90047)
(14.2963 2.34318e-19 1.99921)
(14.175 8.52858e-21 1.89002)
(14.4538 2.47013e-21 1.98018)
(14.329 2.27176e-19 1.87506)
(14.6117 -1.10848e-19 1.95627)
(14.484 -8.10393e-21 1.85557)
(14.6393 -1.01102e-19 1.83159)
(13.4739 1.47661e-19 1.77958)
(13.3924 3.77017e-21 1.65929)
(13.6149 1.5142e-19 1.78367)
(13.5147 1.49516e-19 1.6644)
(13.7589 3.26086e-21 1.78424)
(13.6529 2.22632e-21 1.6668)
(13.9055 1.06069e-21 1.78101)
(13.7978 1.28152e-19 1.66589)
(14.0543 -1.17411e-19 1.77385)
(13.944 -1.25676e-19 1.66142)
(14.2048 -3.83135e-21 1.76263)
(14.0911 -2.34954e-19 1.65327)
(14.3566 2.21669e-19 1.74727)
(14.2396 2.314e-19 1.64135)
(14.509 3.96719e-21 1.72778)
(14.3894 1.05578e-19 1.6256)
(14.5399 -2.02624e-19 1.6061)
(13.4196 -7.44786e-24 1.54069)
(13.3434 3.28797e-21 1.42194)
(13.5551 -7.60669e-24 1.54449)
(13.4612 1.44767e-19 1.4265)
(13.6935 1.27336e-19 1.5454)
(13.5943 0 1.42884)
(13.8346 3.95772e-21 1.54317)
(13.734 4.29225e-21 1.42847)
(13.978 -2.43659e-19 1.5377)
(13.8751 -1.24778e-19 1.42519)
(14.1233 -4.58896e-21 1.52888)
(14.0174 4.51885e-22 1.4189)
(14.27 1.15279e-19 1.51662)
(14.1612 1.15531e-19 1.40949)
(14.4178 -9.9207e-20 1.50093)
(14.3064 -1.0093e-19 1.39695)
(14.4527 9.55587e-20 1.38133)
(13.3718 1.46411e-19 1.30427)
(13.3011 3.37121e-21 1.18682)
(13.5027 1.4815e-19 1.30769)
(13.4152 1.48437e-19 1.19075)
(13.6365 -1.26246e-19 1.30876)
(13.5441 -1.3008e-19 1.19292)
(13.773 -1.24711e-19 1.30728)
(13.6795 -1.59342e-21 1.19293)
(13.9118 1.22538e-19 1.30316)
(13.8165 4.40035e-21 1.19059)
(14.0527 1.20923e-19 1.29631)
(13.9546 1.20299e-19 1.1858)
(14.1952 -1.01153e-19 1.28667)
(14.0945 -1.0377e-19 1.17851)
(14.339 9.42741e-20 1.27425)
(14.236 -4.73824e-24 1.16873)
(14.3788 1.08253e-19 1.15647)
(13.3317 0 1.07014)
(13.2668 0 0.952562)
(13.4589 -1.30336e-19 1.07311)
(13.378 1.05773e-21 0.955807)
(13.5889 -4.59141e-21 1.07421)
(13.5036 -5.90821e-21 0.957709)
(13.7217 1.30804e-19 1.0733)
(13.6356 6.0371e-21 0.957936)
(13.8568 -6.50579e-22 1.07029)
(13.7692 1.10271e-23 0.956315)
(13.9941 -1.04907e-19 1.0651)
(13.9042 -9.13291e-22 0.952782)
(14.1331 -2.43976e-21 1.05773)
(14.0409 -1.07238e-19 0.947332)
(14.2737 1.18768e-20 1.04815)
(14.1794 1.06123e-19 0.939947)
(14.3194 -9.76433e-20 0.930607)
(13.3008 1.05994e-21 0.834709)
(13.2421 0 0.717788)
(13.4251 1.28831e-19 0.837116)
(13.3511 5.28261e-23 0.720311)
(13.5522 4.75521e-21 0.838108)
(13.4742 1.3126e-19 0.721837)
(13.682 -1.27965e-19 0.837559)
(13.6036 -1.28256e-19 0.722121)
(13.8143 -2.37674e-22 0.835407)
(13.7348 -2.34332e-22 0.721037)
(13.9488 -8.23772e-22 0.831625)
(13.8674 8.46242e-22 0.718573)
(14.0852 -8.37001e-22 0.826186)
(14.0017 -1.64536e-21 0.714713)
(14.2232 -1.48091e-21 0.819063)
(14.138 0 0.709412)
(14.276 -4.54684e-20 0.702652)
(13.2803 -1.03539e-21 0.600651)
(13.2282 -6.79994e-20 0.480857)
(13.4026 -5.61733e-22 0.602489)
(13.3357 -1.05991e-21 0.482569)
(13.5277 2.70568e-22 0.603316)
(13.4572 2.36083e-23 0.483685)
(13.6555 -2.40931e-22 0.603044)
(13.585 5.79701e-20 0.483951)
(13.7857 8.5312e-22 0.601653)
(13.7145 -1.12273e-19 0.483305)
(13.9182 6.19763e-23 0.59913)
(13.8455 5.49506e-20 0.481756)
(14.0528 -8.26131e-22 0.595435)
(13.9783 -5.10569e-20 0.479278)
(14.1891 -4.4061e-20 0.590538)
(14.1132 9.60444e-20 0.475833)
(14.2498 -4.68612e-20 0.471419)
(13.2718 -6.96133e-20 0.358738)
(13.1074 -5.34276e-20 0.239979)
(13.3928 -4.84112e-22 0.359886)
(13.213 -3.16811e-20 0.241069)
(13.5167 5.78519e-20 0.360414)
(13.3322 2.98288e-20 0.241698)
(13.6433 -5.30107e-20 0.360262)
(13.4577 3.07196e-20 0.241848)
(13.7723 -6.07512e-20 0.35944)
(13.585 -1.0129e-19 0.24155)
(13.9037 5.00094e-21 0.357938)
(13.7137 4.27815e-20 0.240802)
(14.0372 4.48831e-20 0.355723)
(13.8443 -3.84853e-20 0.239574)
(14.1725 9.65042e-20 0.352779)
(13.9769 9.85231e-20 0.237846)
(14.1114 -1.81761e-21 0.235625)
(13.0341 -1.48278e-20 0.120531)
(13.1518 -1.96833e-21 0.121058)
(13.2725 1.907e-21 0.121359)
(13.3957 -1.57477e-20 0.121411)
(13.5215 1.48942e-21 0.121223)
(13.6495 7.81193e-23 0.12079)
(13.7795 1.33461e-20 0.120098)
(13.9113 0 0.119141)
)
;

boundaryField
{
    inlet
    {
        type            calculated;
        value           nonuniform 0();
    }
    outlet
    {
        type            calculated;
        value           nonuniform 0();
    }
    flap
    {
        type            calculated;
        value           nonuniform 0();
    }
    upperWall
    {
        type            calculated;
        value           uniform (0 0 0);
    }
    lowerWall
    {
        type            calculated;
        value           nonuniform 0();
    }
    frontAndBack
    {
        type            empty;
        value           nonuniform 0();
    }
    procBoundary1to0
    {
        type            processor;
        value           nonuniform List<vector> 
18
(
(11.5208 1.12308e-19 3.23141)
(11.61 -2.69636e-19 3.03825)
(11.5601 -3.22262e-19 2.87503)
(11.5189 -1.06238e-19 2.71732)
(11.5796 -4.98617e-20 2.53591)
(11.6276 1.95823e-19 2.35293)
(11.6644 0 2.16898)
(11.6918 -2.25559e-20 1.98448)
(11.7111 2.28248e-20 1.79965)
(11.724 -3.46158e-19 1.61463)
(11.7318 5.6797e-19 1.42929)
(11.736 -1.47143e-19 1.24363)
(11.7379 -1.59753e-19 1.0569)
(11.7388 0 0.86959)
(11.7399 -9.24245e-21 0.679364)
(11.7424 9.02838e-21 0.488727)
(11.7475 3.15608e-20 0.291335)
(11.5562 2.21861e-20 0.0957391)
)
;
    }
    procBoundary1to2
    {
        type            processor;
        value           nonuniform List<vector> 
17
(
(15.999 -2.55477e-19 3.7967)
(15.8164 1.78712e-19 3.55502)
(15.6384 -9.84404e-20 3.314)
(15.4689 1.00874e-19 3.07557)
(15.3088 -2.77169e-19 2.84032)
(15.1585 5.79975e-22 2.60823)
(15.0182 -8.98963e-20 2.37901)
(14.8882 4.96717e-21 2.15226)
(14.7692 0 1.92759)
(14.6616 -1.034e-19 1.70424)
(14.5661 -1.9558e-19 1.48187)
(14.4837 1.12201e-19 1.25908)
(14.4153 -1.88183e-19 1.03638)
(14.3625 8.27799e-20 0.810253)
(14.3268 -4.22333e-20 0.584445)
(14.3093 4.01871e-20 0.349119)
(14.0447 -1.03159e-20 0.117924)
)
;
    }
    procBoundary1to3
    {
        type            processor;
        value           nonuniform List<vector> 9((9.74535 0 4.54127) (10.0333 0 4.47308) (10.3011 -7.43785e-20 4.37585) (10.546 1.42817e-19 4.25428) (10.7669 -6.96942e-20 4.11282) (10.9634 -7.08609e-23 3.95551) (11.1359 -6.51329e-20 3.78591) (11.2854 -2.10354e-19 3.60708) (11.4132 5.93736e-20 3.42156));
    }
    procBoundary1to4
    {
        type            processor;
        value           nonuniform List<vector> 
30
(
(9.62139 -8.63037e-20 4.75861)
(9.83493 -1.61394e-19 4.94771)
(10.0532 -1.16803e-20 5.09739)
(10.2116 1.70489e-19 5.52469)
(10.5018 -1.52068e-19 5.65712)
(10.7777 6.0049e-20 5.74287)
(11.0522 3.49785e-20 6.1441)
(11.3923 6.59751e-20 6.17426)
(11.6927 1.32334e-19 6.16516)
(12.0639 1.20383e-19 6.47944)
(12.3959 0 6.38476)
(12.6708 0 6.27728)
(13.1276 1.06253e-19 6.47037)
(13.39 -2.13386e-20 6.54471)
(13.5585 -9.82053e-21 6.3009)
(13.6771 -5.19156e-21 6.08426)
(13.8632 3.52518e-19 6.1184)