/*--------------------------------*- C++ -*----------------------------------*\
| =========                 |                                                 |
| \\      /  F ield         | OpenFOAM: The Open Source CFD Toolbox           |
|  \\    /   O peration     | Version:  dev                                   |
|   \\  /    A nd           | Web:      www.OpenFOAM.org                      |
|    \\/     M anipulation  |                                                 |
\*---------------------------------------------------------------------------*/
FoamFile
{
    version     2.0;
    format      ascii;
    class       volVectorField;
    location    "0.54";
    object      U;
}
// * * * * * * * * * * * * * * * * * * * * * * * * * * * * * * * * * * * * * //

dimensions      [0 1 -1 0 0 0 0];

internalField   nonuniform List<vector> 
465
(
(9.91604 0 0.0218215)
(9.83777 1.58811e-19 0.0321863)
(9.7227 -6.34716e-22 0.0398722)
(9.57025 0 0.0476022)
(9.39281 -8.65606e-20 0.0555241)
(9.19541 0 0.0636324)
(8.978 0 0.072051)
(8.73969 0 0.0809131)
(8.48006 0 0.0903228)
(8.19882 4.0822e-22 0.10037)
(7.8956 2.74335e-20 0.111146)
(7.56981 -8.73833e-22 0.122743)
(7.22072 0 0.135239)
(6.84758 0 0.148695)
(6.44972 1.60414e-20 0.163146)
(6.02658 -3.35967e-20 0.178601)
(5.57787 7.04418e-20 0.195026)
(5.10366 -7.39199e-20 0.212324)
(4.60465 0 0.23031)
(4.08235 8.15735e-20 0.24866)
(3.53938 0 0.266839)
(9.97677 0 0.0467343)
(9.95466 1.57837e-19 0.0726362)
(9.89717 0 0.093176)
(9.80051 0 0.114176)
(9.67602 8.63369e-20 0.135975)
(9.52892 0 0.158477)
(9.35941 0 0.181911)
(9.1668 1.50345e-21 0.206554)
(8.95075 -1.54212e-21 0.232616)
(8.71107 0 0.260264)
(8.44743 -2.68122e-20 0.289667)
(8.15926 0 0.320983)
(7.84583 0 0.354312)
(7.50635 1.5293e-20 0.389675)
(7.14009 -3.16098e-20 0.427001)
(6.74643 3.31927e-20 0.466112)
(6.32497 -6.95148e-20 0.506676)
(5.87566 -4.87432e-22 0.548142)
(5.39911 7.58702e-20 0.589687)
(4.89671 -8.02124e-20 0.630161)
(4.37092 0 0.667912)
(9.97353 3.07326e-19 0.0544096)
(9.94824 -3.14746e-19 0.0934757)
(9.89247 0 0.12744)
(9.80009 0 0.162103)
(9.68134 -3.47113e-19 0.19819)
(9.54163 2.77126e-21 0.235685)
(9.38146 0 0.274878)
(9.20031 1.90557e-19 0.316159)
(8.998 0 0.359847)
(8.77449 0 0.406202)
(8.52962 0 0.455515)
(8.26296 0 0.508077)
(7.97387 5.76762e-20 0.564085)
(7.66161 -1.87863e-21 0.623581)
(7.32543 0 0.686459)
(6.96463 -6.48994e-20 0.752445)
(6.57858 -6.81412e-20 0.821017)
(6.16687 -1.43359e-19 0.891291)
(5.72944 3.00277e-19 0.96191)
(5.26686 0 1.03098)
(4.78065 -3.29846e-19 1.09578)
(9.97172 -9.24308e-19 0.064672)
(9.94434 -6.30298e-19 0.118573)
(9.88863 0 0.167349)
(9.79763 -3.3837e-19 0.215976)
(9.68069 5.97769e-21 0.265837)
(9.5432 0 0.317309)
(9.38587 3.66835e-19 0.370851)
(9.20838 -1.87276e-19 0.426992)
(9.01072 -3.06062e-21 0.486195)
(8.79298 2.0396e-19 0.548845)
(8.55514 -6.67238e-21 0.615355)
(8.29711 2.07146e-20 0.686167)
(8.01869 -4.27721e-20 0.761596)
(7.71955 -1.25939e-20 0.841758)
(7.39929 -9.35372e-20 0.92659)
(7.05747 1.94427e-19 1.01582)
(6.69361 0 1.10889)
(6.3073 2.84425e-19 1.20479)
(5.89816 -5.89948e-19 1.30188)
(5.46607 -1.53889e-19 1.39772)
(5.01165 -1.18154e-21 1.4888)
(9.97077 6.15728e-19 0.0763425)
(9.94234 6.3041e-19 0.143578)
(9.88676 0 0.205752)
(9.79703 3.33036e-19 0.26731)
(9.68195 3.38016e-19 0.330153)
(9.5467 5.51223e-21 0.395042)
(9.39204 -3.72132e-19 0.462566)
(9.2177 3.80862e-19 0.533321)
(9.02375 2.27591e-21 0.607859)
(8.81022 -2.0583e-19 0.686665)
(8.57708 -2.06969e-19 0.770182)
(8.32447 0 0.858827)
(8.05249 0 0.952905)
(7.76112 -1.46625e-20 1.05258)
(7.45026 0 1.15784)
(7.11972 6.45148e-20 1.26846)
(6.76923 -3.32546e-19 1.38387)
(6.39849 1.40288e-19 1.50302)
(6.00715 4.3717e-19 1.62417)
(5.5949 -6.05744e-19 1.74462)
(5.1616 3.19592e-19 1.86038)
(9.97025 -6.15279e-19 0.0886545)
(9.94151 6.30168e-19 0.168528)
(9.88639 -6.39193e-19 0.243615)
(9.79811 -5.17369e-21 0.318029)
(9.68515 -6.82974e-19 0.393853)
(9.55249 3.46768e-19 0.472096)
(9.40088 -5.19387e-23 0.553455)
(9.23008 4.54816e-21 0.638588)
(9.0401 3.90567e-19 0.728139)
(8.8311 -4.04357e-19 0.822708)
(8.60313 2.03029e-19 0.922765)
(8.3563 -2.09627e-19 1.02866)
(8.09069 0 1.14068)
(7.80629 2.93044e-20 1.25903)
(7.50306 0 1.38377)
(7.18092 6.36169e-20 1.5147)
(6.83974 1.98504e-19 1.65123)
(6.47931 -2.72771e-19 1.79232)
(6.09933 -2.86403e-19 1.93621)
(5.69939 3.04202e-19 2.08014)
(5.27885 3.09985e-19 2.22006)
(9.96997 6.12814e-19 0.101197)
(9.94154 -6.27814e-19 0.193319)
(9.88737 6.44293e-19 0.280849)
(9.80095 0 0.367788)
(9.6906 6.93417e-19 0.456264)
(9.56114 -1.06477e-18 0.54748)
(9.41327 0 0.642273)
(9.24675 -3.75564e-19 0.741394)
(9.06158 -1.71175e-21 0.845566)
(8.85797 2.71684e-21 0.955451)
(8.63607 5.72132e-21 1.07156)
(8.39591 2.08941e-19 1.19426)
(8.13739 0 1.32388)
(7.86039 0 1.46063)
(7.5648 0 1.60457)
(7.25051 1.2531e-19 1.75548)
(6.91736 -1.14662e-21 1.9128)
(6.56511 5.30033e-22 2.07549)
(6.19337 -1.42421e-19 2.24184)
(5.8015 5.8711e-19 2.40922)
(5.3885 -9.10114e-19 2.57376)
(9.96984 -1.21606e-18 0.113713)
(9.94217 2.44747e-21 0.217751)
(9.88945 6.25423e-19 0.317244)
(9.80535 -5.19798e-23 0.416283)
(9.69816 1.05824e-20 0.517029)
(9.57255 7.01434e-19 0.620829)
(9.42919 0 0.72866)
(9.26782 7.43831e-19 0.841371)
(9.08841 -3.86077e-19 0.959759)
(8.89116 2.18139e-21 1.08451)
(8.67619 6.47236e-21 1.21621)
(8.44347 -6.61862e-21 1.35532)
(8.19281 0 1.50222)
(7.92397 0 1.65715)
(7.63671 0 1.82016)
(7.33077 0 1.99102)
(7.00585 -3.81143e-19 2.16922)
(6.66149 -1.29798e-19 2.35376)
(6.29707 6.78526e-19 2.54307)
(5.91167 1.41855e-18 2.73471)
(5.50391 -8.7893e-19 2.92512)
(9.96981 1.21841e-18 0.126036)
(9.94323 0 0.241642)
(9.89235 -6.5065e-19 0.352619)
(9.81094 6.66213e-19 0.463289)
(9.70735 0 0.57586)
(9.58616 6.9539e-19 0.691796)
(9.44796 1.12769e-20 0.812199)
(9.29248 -7.5467e-19 0.938025)
(9.11968 0 1.07015)
(8.92969 2.42231e-21 1.20931)
(8.72261 0 1.35615)
(8.49834 6.62901e-21 1.51126)
(8.25659 -2.04762e-20 1.67511)
(7.99699 2.66581e-19 1.84797)
(7.71916 -1.44786e-19 2.02992)
(7.42267 0 2.2208)
(7.10696 1.25016e-19 2.42015)
(6.77131 2.89766e-21 2.62713)
(6.41474 -5.35149e-19 2.84035)
(6.03599 -5.54166e-19 3.05764)
(5.63326 8.61904e-19 3.2758)
(9.96983 1.205e-18 0.13805)
(9.94463 4.85279e-21 0.264838)
(9.89594 1.2819e-18 0.386815)
(9.81762 -6.663e-19 0.508609)
(9.71806 0 0.632505)
(9.60181 -3.36228e-21 0.760067)
(9.46941 -1.12132e-20 0.892507)
(9.32054 -7.23092e-19 1.03089)
(9.15529 1.19304e-20 1.17618)
(8.97379 -4.00137e-19 1.3292)
(8.77591 0 1.49068)
(8.56142 4.15678e-19 1.66134)
(8.32995 0 1.84175)
(8.08103 -1.95291e-19 2.03225)
(7.81416 8.66846e-20 2.23299)
(7.52869 0 2.44394)
(7.22373 0 2.66483)
(6.89814 2.52769e-19 2.89499)
(6.55065 0 3.13326)
(6.17961 0 3.37783)
(5.78293 0 3.62592)
(9.96991 -1.20978e-18 0.149664)
(9.94631 1.22549e-18 0.287199)
(9.90015 -1.26255e-18 0.419667)
(9.82528 -1.30104e-18 0.552042)
(9.73019 -6.47878e-19 0.686714)
(9.61938 -2.5146e-20 0.825332)
(9.49336 0 0.969209)
(9.35183 4.54165e-21 1.11948)
(9.19496 -1.18405e-20 1.27723)
(9.02292 7.92405e-19 1.44343)
(8.83531 7.98141e-19 1.61894)
(8.6318 -4.1476e-19 1.80457)
(8.41211 -4.23483e-19 2.00103)
(8.17571 -4.49807e-19 2.20878)
(7.92177 4.62754e-19 2.42809)
(7.64927 2.91826e-20 2.65915)
(7.35705 -2.96915e-20 2.90193)
(7.0437 0 3.15602)
(6.70759 0 3.42054)
(6.34666 -2.56539e-19 3.69408)
(5.95847 -5.26836e-19 3.97441)
(9.97004 0 0.160799)
(9.94827 -1.22602e-18 0.308595)
(9.90495 1.25178e-18 0.451014)
(9.83392 2.59688e-18 0.593394)
(9.74373 -6.62091e-19 0.738243)
(9.63887 -6.88437e-19 0.887298)
(9.51982 -7.04236e-19 1.04196)
(9.38626 1.45431e-18 1.20344)
(9.23827 7.22456e-19 1.3729)
(9.07594 2.39954e-20 1.5515)
(8.89905 -1.93404e-20 1.74026)
(8.70733 1.271e-20 1.94007)
(8.50055 4.22479e-19 2.15178)
(8.27811 4.86623e-21 2.37609)
(8.03879 -4.46903e-19 2.61352)
(7.7813 0 2.86447)
(7.50444 2.93732e-20 3.12921)
(7.20659 -1.48606e-19 3.40766)
(6.88566 3.03625e-20 3.69942)
(6.53905 3.15583e-19 4.00359)
(6.16366 4.52754e-19 4.31864)
(9.97022 1.19897e-18 0.171388)
(9.95045 -4.79668e-21 0.328902)
(9.91026 -1.26246e-18 0.480695)
(9.84341 -2.60538e-18 0.632467)
(9.75852 1.35268e-18 0.786854)
(9.66008 -2.1403e-20 0.945675)
(9.54852 7.26344e-19 1.11042)
(9.42354 -7.24835e-19 1.2824)
(9.28507 -7.45889e-19 1.46287)
(9.13321 7.6105e-19 1.65312)
(8.96795 -7.89659e-19 1.85428)
(8.78906 -7.78585e-19 2.06736)
(8.59617 -8.51459e-19 2.29336)
(8.3886 8.52341e-19 2.53328)
(8.1653 4.4791e-19 2.788)
(7.92507 -1.39361e-20 3.05817)
(7.66652 1.12275e-22 3.34438)
(7.38773 1.17779e-19 3.6471)
(7.08618 2.20806e-19 3.96655)
(6.75877 -1.50825e-20 4.30272)
(6.40154 3.08045e-20 4.65503)
(9.97042 -1.19914e-18 0.181377)
(9.95279 4.77566e-21 0.348015)
(9.91595 -1.25031e-18 0.508559)
(9.85356 1.28999e-18 0.669068)
(9.7743 -1.31733e-18 0.832311)
(9.68264 -1.35334e-18 1.00019)
(9.57903 0 1.17428)
(9.46315 7.14439e-19 1.35599)
(9.33498 -7.34091e-19 1.54669)
(9.19467 -7.60929e-19 1.74773)
(9.04224 0 1.96036)
(8.87746 8.03305e-19 2.18575)
(8.69985 1.63949e-18 2.42509)
(8.50882 -4.22803e-19 2.67963)
(8.30359 -4.06098e-19 2.95051)
(8.08306 -4.91074e-19 3.23879)
(7.84562 -4.16627e-19 3.5455)
(7.58923 4.80681e-19 3.87178)
(7.31125 -2.62851e-19 4.21874)
(7.00829 0 4.58747)
(6.67598 0 4.97902)
(9.97064 2.36056e-18 0.190746)
(9.95521 4.75321e-21 0.365899)
(9.92179 -1.25009e-20 0.534555)
(9.86396 1.99725e-20 0.703124)
(9.79049 1.31798e-18 0.874501)
(9.70585 1.35388e-18 1.05067)
(9.61047 0 1.23327)
(9.50409 -6.69914e-19 1.42381)
(9.38675 1.41622e-18 1.62375)
(9.25866 -4.70538e-20 1.83451)
(9.11991 9.62684e-20 2.05749)
(8.97031 7.85477e-19 2.29403)
(8.80944 -1.66847e-18 2.54549)
(8.63688 0 2.8133)
(8.45199 5.3041e-20 3.09891)
(8.25363 1.29147e-18 3.40375)
(8.04038 1.25918e-18 3.72944)
(7.81047 -3.94652e-19 4.07782)
(7.5615 -5.63256e-20 4.45093)
(7.29037 -1.13827e-19 4.85122)
(6.99316 2.27975e-19 5.2817)
(9.92817 1.19953e-18 0.559017)
(9.87525 -1.91443e-20 0.735105)
(9.80799 3.94191e-20 0.914051)
(9.7309 1.28774e-18 1.09791)
(9.64442 -1.36284e-18 1.28839)
(9.5483 -1.35606e-18 1.48708)
(9.44266 -7.02173e-19 1.69547)
(9.32778 4.49394e-20 1.9151)
(9.20382 6.85209e-19 2.14747)
(9.07074 -9.26007e-21 2.39409)
(8.92834 8.24489e-19 2.65646)
(8.77635 7.33213e-19 2.93619)
(8.61433 -8.48454e-19 3.235)
(8.44154 -8.2748e-19 3.55474)
(8.25704 -8.94333e-19 3.89752)
(8.05961 -1.86999e-22 4.2658)
(7.84761 1.06813e-19 4.66257)
(7.6189 -8.4886e-19 5.09152)
(7.37082 2.15427e-19 5.55748)
(9.88723 0 0.765061)
(9.82652 -3.82532e-20 0.950903)
(9.7574 -1.25901e-18 1.1417)
(9.68035 1.33224e-18 1.33925)
(9.59515 1.32605e-18 1.54516)
(9.50196 -4.24029e-20 1.76102)
(9.40115 -1.91928e-22 1.9884)
(9.29301 -6.7077e-19 2.22891)
(9.1777 -1.50088e-18 2.48417)
(9.05527 -6.92323e-19 2.7558)
(8.9257 -7.65946e-19 3.04553)
(8.78889 6.8474e-19 3.35529)
(8.64468 1.97216e-19 3.68723)
(8.49278 -1.0014e-19 4.04378)
(8.33279 0 4.42789)
(8.1642 -8.10012e-19 4.84316)
(7.98641 -1.81211e-19 5.29415)
(7.79882 2.08241e-19 5.78682)
(9.84649 -1.21836e-18 0.984517)
(9.78581 3.79633e-20 1.18148)
(9.71872 3.90553e-20 1.38522)
(9.64504 -3.99103e-20 1.59742)
(9.56503 -1.30405e-18 1.81968)
(9.47913 0 2.05363)
(9.38781 6.82992e-19 2.30092)
(9.29143 9.74179e-21 2.56321)
(9.19031 8.13513e-19 2.8422)
(9.08477 -8.18173e-19 3.13971)
(8.97512 9.33469e-20 3.45774)
(8.86173 6.56689e-19 3.79854)
(8.74505 6.65817e-19 4.16472)
(8.62559 -6.73047e-19 4.55938)
(8.50412 2.22371e-20 4.98632)
(8.38178 2.17252e-18 5.45032)
(8.26033 -1.36552e-18 5.95744)
(9.81563 0 1.21665)
(9.75889 0 1.42559)
(9.69722 -1.23286e-18 1.64296)
(9.63092 1.19694e-18 1.87039)
(9.56059 8.11048e-20 2.10952)
(9.48683 -5.8571e-19 2.36198)
(9.41022 5.99089e-19 2.62945)
(9.33135 0 2.91364)
(9.25087 7.1261e-19 3.21635)
(9.16953 0 3.53955)
(9.08824 -7.38361e-19 3.88546)
(9.00812 -7.49609e-19 4.25661)
(8.93058 7.59468e-19 4.65597)
(8.85753 -7.23285e-19 5.08709)
(8.79157 -1.54797e-18 5.55426)
(8.73635 1.55603e-18 6.06276)
(9.80053 0 1.45983)
(9.75116 2.40053e-18 1.68118)
(9.69894 0 1.91243)
(9.64458 7.85845e-20 2.1552)
(9.58882 -8.02199e-20 2.4111)
(9.53243 0 2.68175)
(9.47627 8.35209e-20 2.96879)
(9.4213 1.26399e-18 3.27393)
(9.36866 5.98906e-19 3.59902)
(9.31973 7.82822e-19 3.94608)
(9.27622 -1.77217e-19 4.31738)
(9.24025 -1.41748e-18 4.7155)
(9.21458 1.65412e-18 5.14338)
(9.2028 0 5.60445)
(9.20965 0 6.10258)
(9.80648 -1.16871e-18 1.71153)
(9.76852 -7.42733e-20 1.94518)
(9.73026 -1.13105e-18 2.18999)
(9.69263 -2.86415e-23 2.44751)
(9.65658 -7.91282e-20 2.71925)
(9.62315 0 3.00673)
(9.59357 -2.47533e-20 3.3115)
(9.5693 -6.73074e-19 3.63517)
(9.55209 -6.8307e-19 3.97947)
(9.54407 1.34953e-18 4.34627)
(9.54784 1.3982e-18 4.73758)
(9.56668 0 5.15558)
(9.60463 -1.36855e-18 5.60262)
(9.66682 1.71028e-19 6.08109)
(9.81684 -5.72228e-20 2.21335)
(9.79718 1.49777e-19 2.47062)
(9.78119 -7.64126e-20 2.74133)
(9.77008 1.23216e-18 3.02685)
(9.76526 -2.52681e-18 3.32849)
(9.76841 0 3.64758)
(9.78151 1.28289e-18 3.98547)
(9.80693 -2.45966e-18 4.34354)
(9.84753 -1.66164e-19 4.72319)
(9.90673 1.64083e-19 5.12577)
(9.98867 1.18229e-18 5.55258)
(10.0983 6.49145e-19 6.00468)
(9.90137 0 2.48005)
(9.90487 1.46972e-19 2.74769)
(9.91525 -1.20992e-18 3.02891)
(9.93408 1.07597e-18 3.32482)
(9.96314 0 3.63641)
(10.0045 -2.90187e-20 3.96463)
(10.0607 1.1175e-18 4.31035)
(10.1344 1.59257e-19 4.67433)
(10.2292 7.81111e-19 5.0572)
(10.3488 -4.17225e-21 5.45931)
(10.4978 -1.81269e-19 5.8806)
(10.057 1.1443e-18 3.01305)
(10.098 1.1595e-18 3.30085)
(10.151 0 3.60234)
(10.2181 -1.21088e-18 3.91808)
(10.3018 4.45902e-19 4.24848)
(10.4046 1.52577e-19 4.59373)
(10.5298 -6.14509e-19 4.95379)
(10.6807 0 5.32824)
(10.8613 -7.5409e-19 5.71623)
(10.3298 -9.8417e-19 3.54651)
(10.4199 1.42455e-19 3.8475)
(10.5276 -8.73658e-19 4.16026)
(10.6553 1.46162e-19 4.48455)
(10.8057 -4.27892e-19 4.81977)
(10.9818 -1.45708e-19 5.16496)
(11.1867 5.59785e-19 5.51868)
(10.6079 -1.38896e-19 3.75484)
(10.7361 1.37022e-19 4.04834)
(10.8844 4.07524e-19 4.3502)
(11.0552 5.60579e-19 4.65948)
(11.2508 4.06367e-19 4.97485)
(11.4736 1.21679e-19 5.29451)
(11.091 -1.30967e-20 4.19418)
(11.2776 0 4.47722)
(11.4875 -6.60145e-19 4.76301)
(11.7226 -9.02606e-19 5.04963)
(11.6928 -1.23078e-19 4.53409)
(11.9355 5.05289e-19 4.78932)
)
;

boundaryField
{
    inlet
    {
        type            fixedValue;
        value           uniform (10 0 0);
    }
    outlet
    {
        type            zeroGradient;
    }
    flap
    {
        type            movingWallVelocity;
        value           nonuniform 0();
    }
    upperWall
    {
        type            noSlip;
    }
    lowerWall
    {
        type            noSlip;
    }
    frontAndBack
    {
        type            empty;
    }
    procBoundary3to0
    {
        type            processor;
        value           nonuniform List<vector> 
34
(
(9.97093 1.29777e-20 0.199583)
(9.95789 -1.82206e-20 0.382754)
(9.95789 -1.82206e-20 0.382754)
(9.93494 -1.8148e-20 0.582035)
(9.93494 -1.8148e-20 0.582035)
(9.90019 1.8052e-20 0.792478)
(9.90019 1.8052e-20 0.792478)
(9.86745 -1.19124e-18 1.0144)
(9.86745 -1.19124e-18 1.0144)
(9.84655 0 1.24674)
(9.84655 0 1.24674)
(9.84324 -7.11801e-23 1.48744)
(9.84324 -7.11801e-23 1.48744)
(9.86255 1.18881e-18 1.73348)
(9.839 -7.18867e-20 1.96813)
(9.839 -7.18867e-20 1.96813)
(9.90333 -1.14334e-18 2.22483)
(9.90333 -1.14334e-18 2.22483)
(10.0039 -1.3936e-19 2.47554)
(10.0262 -9.8489e-19 2.73823)
(10.0262 -9.8489e-19 2.73823)
(10.1935 9.84644e-19 2.97958)
(10.255 1.42007e-18 3.25728)
(10.255 1.42007e-18 3.25728)
(10.4976 -1.24305e-18 3.47027)
(10.4976 -1.24305e-18 3.47027)
(10.7805 1.3116e-19 3.64212)
(10.9259 3.91219e-19 3.91542)
(10.9259 3.91219e-19 3.91542)
(11.2745 5.15337e-19 4.01972)
(11.4729 1.24601e-19 4.27692)
(11.4729 1.24601e-19 4.27692)
(11.8679 -1.12354e-20 4.29205)
(12.1143 5.83517e-19 4.51797)
)
;
    }
    procBoundary3to1
    {
        type            processor;
        value           nonuniform List<vector> 9((9.24141 2.39651e-19 6.6422) (9.75963 2.2591e-18 6.59334) (10.2416 -6.67098e-19 6.4827) (10.6813 0 6.32045) (11.0757 -1.4971e-19 6.11624) (11.4236 0 5.87886) (11.7259 -1.35439e-19 5.61611) (11.9844 0 5.33469) (12.2018 -7.19245e-19 5.04031));
    }
    procBoundary3to4
    {
        type            processor;
        value           nonuniform List<vector> 
19
(
(2.97995 0 0.283999)
(3.82576 -1.75723e-19 0.700575)
(4.27357 -3.48211e-19 1.15244)
(4.53628 -6.75958e-19 1.57015)
(4.70732 1.35028e-21 1.96593)
(4.83679 3.31377e-19 2.35032)
(4.95285 6.35149e-19 2.73)
(5.07181 1.22051e-18 3.10923)
(5.20415 -6.00776e-19 3.49022)
(5.35784 -8.45358e-19 3.8735)
(5.53991 1.10399e-18 4.25819)
(5.75579 -1.31193e-19 4.64204)
(6.00984 9.11543e-20 5.02214)
(6.30885 -1.19719e-19 5.39396)
(6.66458 1.13533e-19 5.74584)
(7.09983 4.3031e-19 6.06685)
(7.60099 4.12195e-19 6.32929)
(8.14266 3.94569e-19 6.51579)
(8.6971 1.68168e-18 6.61914)
)
;
    }
}


// ************************************************************************* //
