/*--------------------------------*- C++ -*----------------------------------*\
| =========                 |                                                 |
| \\      /  F ield         | OpenFOAM: The Open Source CFD Toolbox           |
|  \\    /   O peration     | Version:  dev                                   |
|   \\  /    A nd           | Web:      www.OpenFOAM.org                      |
|    \\/     M anipulation  |                                                 |
\*---------------------------------------------------------------------------*/
FoamFile
{
    version     2.0;
    format      ascii;
    class       pointVectorField;
    location    "2.01";
    object      pointDisplacement;
}
// * * * * * * * * * * * * * * * * * * * * * * * * * * * * * * * * * * * * * //

dimensions      [0 1 0 0 0 0 0];

internalField   nonuniform List<vector> 
1030
(
(0.489486 0 -0.179422)
(0.480883 0 -0.172937)
(0.471715 0 -0.166174)
(0.49051 0 -0.179214)
(0.481772 0 -0.173205)
(0.472429 0 -0.16685)
(0.46236 0 -0.160209)
(0.451432 0 -0.153331)
(0.490347 0 -0.178268)
(0.481617 0 -0.172751)
(0.472222 0 -0.166827)
(0.462059 0 -0.160558)
(0.451014 0 -0.153997)
(0.43896 0 -0.147182)
(0.489036 0 -0.176683)
(0.480429 0 -0.171651)
(0.471085 0 -0.166163)
(0.460922 0 -0.160279)
(0.449841 0 -0.154051)
(0.437732 0 -0.147521)
(0.424474 0 -0.14072)
(0.409943 0 -0.133672)
(0.486634 0 -0.174546)
(0.478235 0 -0.169979)
(0.469027 0 -0.164917)
(0.458944 0 -0.159418)
(0.447902 0 -0.153531)
(0.435803 0 -0.147299)
(0.422539 0 -0.140752)
(0.407995 0 -0.133915)
(0.39205 0 -0.1268)
(0.374578 0 -0.119415)
(0.483212 0 -0.171934)
(0.475082 0 -0.1678)
(0.466075 0 -0.163144)
(0.456137 0 -0.158021)
(0.445197 0 -0.152475)
(0.433168 0 -0.146546)
(0.419953 0 -0.140264)
(0.405447 0 -0.133652)
(0.389537 0 -0.126726)
(0.372105 0 -0.119493)
(0.353031 0 -0.111951)
(0.478853 0 -0.16891)
(0.471029 0 -0.16517)
(0.462268 0 -0.160895)
(0.452526 0 -0.156131)
(0.441739 0 -0.150919)
(0.429831 0 -0.145292)
(0.416715 0 -0.13928)
(0.402294 0 -0.132904)
(0.386464 0 -0.126181)
(0.369115 0 -0.119118)
(0.350132 0 -0.111714)
(0.329396 0 -0.103961)
(0.306789 0 -0.0958426)
(0.473639 0 -0.165521)
(0.46614 0 -0.162136)
(0.457656 0 -0.158212)
(0.448148 0 -0.153789)
(0.437555 0 -0.148896)
(0.425811 0 -0.143566)
(0.412836 0 -0.137824)
(0.398543 0 -0.131691)
(0.382834 0 -0.125182)
(0.365607 0 -0.118303)
(0.346754 0 -0.111056)
(0.326162 0 -0.103434)
(0.303719 0 -0.0954221)
(0.279305 0 -0.0869991)
(0.467651 0 -0.161805)
(0.460493 0 -0.158738)
(0.452309 0 -0.155137)
(0.443057 0 -0.151029)
(0.432684 0 -0.146439)
(0.421134 0 -0.141395)
(0.408335 0 -0.13592)
(0.394206 0 -0.130032)
(0.378656 0 -0.123744)
(0.361589 0 -0.117063)
(0.342903 0 -0.109989)
(0.322492 0 -0.102517)
(0.300249 0 -0.0946354)
(0.276061 0 -0.086324)
(0.249816 0 -0.0775563)
(0.221403 0 -0.0682992)
(0.460993 0 -0.157796)
(0.454172 0 -0.155012)
(0.446292 0 -0.151702)
(0.437309 0 -0.147883)
(0.427173 0 -0.143576)
(0.415839 0 -0.138805)
(0.403242 0 -0.13359)
(0.389307 0 -0.127946)
(0.373949 0 -0.121884)
(0.357076 0 -0.11541)
(0.338592 0 -0.108524)
(0.318398 0 -0.101221)
(0.29639 0 -0.0934915)
(0.272462 0 -0.0853171)
(0.246509 0 -0.0766744)
(0.218423 0 -0.0675336)
(0.188099 0 -0.0578582)
(0.45376 0 -0.153514)
(0.447253 0 -0.150977)
(0.439665 0 -0.147926)
(0.430954 0 -0.144371)
(0.421072 0 -0.140328)
(0.409972 0 -0.135816)
(0.397598 0 -0.130853)
(0.38388 0 -0.12545)
(0.36874 0 -0.119617)
(0.35209 0 -0.113357)
(0.33384 0 -0.106672)
(0.313895 0 -0.0995554)
(0.292157 0 -0.0919987)
(0.268525 0 -0.0839862)
(0.242898 0 -0.0754968)
(0.215176 0 -0.0665039)
(0.185258 0 -0.0569752)
(0.153046 0 -0.0468728)
(0.118447 0 -0.0361551)
(0.44603 0 -0.148962)
(0.439808 0 -0.146641)
(0.432491 0 -0.143817)
(0.42404 0 -0.1405)
(0.414422 0 -0.136705)
(0.40358 0 -0.132444)
(0.391447 0 -0.127725)
(0.377966 0 -0.12256)
(0.363066 0 -0.116956)
(0.346664 0 -0.110917)
(0.328675 0 -0.104443)
(0.309009 0 -0.0975283)
(0.287571 0 -0.0901647)
(0.264268 0 -0.0823381)
(0.239003 0 -0.0740298)
(0.21168 0 -0.0652162)
(0.182204 0 -0.0558686)
(0.150484 0 -0.0459541)
(0.11643 0 -0.0354356)
(0.0799642 0 -0.0242736)
(0.43788 0 -0.14414)
(0.431908 0 -0.142005)
(0.424843 0 -0.139384)
(0.416649 0 -0.136287)
(0.407291 0 -0.132723)
(0.396712 0 -0.128699)
(0.384842 0 -0.124218)
(0.371615 0 -0.119287)
(0.356971 0 -0.113913)
(0.340836 0 -0.1081)
(0.323131 0 -0.101847)
(0.303769 0 -0.0951482)
(0.282661 0 -0.0879964)
(0.259716 0 -0.0803789)
(0.234844 0 -0.0722789)
(0.207954 0 -0.0636755)
(0.178955 0 -0.0545437)
(0.147762 0 -0.0448546)
(0.114292 0 -0.034576)
(0.0784719 0 -0.023674)
(0.0401827 0 -0.0120973)
(0.429396 0 -0.139046)
(0.423642 0 -0.137072)
(0.416812 0 -0.134635)
(0.408864 0 -0.13174)
(0.399748 0 -0.128387)
(0.389423 0 -0.124584)
(0.377828 0 -0.120336)
(0.364879 0 -0.11564)
(0.350507 0 -0.110498)
(0.334653 0 -0.104914)
(0.31725 0 -0.09889)
(0.298214 0 -0.0924214)
(0.277459 0 -0.0854998)
(0.2549 0 -0.0781138)
(0.230449 0 -0.0702485)
(0.204021 0 -0.0618858)
(0.175531 0 -0.0530038)
(0.144899 0 -0.0435776)
(0.112047 0 -0.0335795)
(0.076907 0 -0.0229807)
(0.0393706 0 -0.0117368)
(0 0 0)
(0.420662 0 -0.133671)
(0.415095 0 -0.131837)
(0.408474 0 -0.129566)
(0.400747 0 -0.126852)
(0.391868 0 -0.123698)
(0.381794 0 -0.120108)
(0.370467 0 -0.116083)
(0.357804 0 -0.111618)
(0.343719 0 -0.106708)
(0.328162 0 -0.10136)
(0.311079 0 -0.0955768)
(0.292388 0 -0.0893521)
(0.272007 0 -0.0826787)
(0.249855 0 -0.0755463)
(0.22585 0 -0.0679421)
(0.199911 0 -0.0598501)
(0.171957 0 -0.0512516)
(0.141914 0 -0.0421255)
(0.109709 0 -0.0324481)
(0.0752807 0 -0.0221956)
(0.038528 0 -0.0113296)
(0 0 0)
(0.411756 0 -0.127996)
(0.406346 0 -0.126287)
(0.399905 0 -0.124162)
(0.392386 0 -0.121619)
(0.383734 0 -0.118653)
(0.373894 0 -0.115264)
(0.36282 0 -0.111452)
(0.35044 0 -0.107214)
(0.336663 0 -0.102543)
(0.321425 0 -0.0974409)
(0.304674 0 -0.0919082)
(0.286341 0 -0.0859418)
(0.266351 0 -0.0795347)
(0.244625 0 -0.0726782)
(0.221085 0 -0.0653611)
(0.195655 0 -0.0575699)
(0.168261 0 -0.0492886)
(0.13883 0 -0.0404994)
(0.107298 0 -0.031183)
(0.0736054 0 -0.0213194)
(0.0376616 0 -0.0108765)
(0 0 0)
(0.402757 0 -0.121996)
(0.397477 0 -0.120398)
(0.391195 0 -0.118409)
(0.383861 0 -0.116024)
(0.375413 0 -0.113235)
(0.365799 0 -0.110039)
(0.354972 0 -0.106438)
(0.342867 0 -0.102426)
(0.329406 0 -0.0979991)
(0.314506 0 -0.0931521)
(0.2981 0 -0.0878824)
(0.280134 0 -0.0821886)
(0.260544 0 -0.0760663)
(0.239256 0 -0.0695082)
(0.216196 0 -0.0625047)
(0.191292 0 -0.0550445)
(0.164474 0 -0.0471143)
(0.135675 0 -0.0386995)
(0.104832 0 -0.0297841)
(0.071895 0 -0.0203524)
(0.0367784 0 -0.0103775)
(0 0 0)
(0.393746 0 -0.115638)
(0.388572 0 -0.114142)
(0.382424 0 -0.112279)
(0.375252 0 -0.110043)
(0.366999 0 -0.107426)
(0.357607 0 -0.104424)
(0.347012 0 -0.10103)
(0.335169 0 -0.0972438)
(0.322013 0 -0.0930637)
(0.307458 0 -0.0884814)
(0.29142 0 -0.0834911)
(0.273831 0 -0.0780867)
(0.254643 0 -0.0722674)
(0.233801 0 -0.0660311)
(0.211231 0 -0.0593688)
(0.186864 0 -0.0522708)
(0.160633 0 -0.0447264)
(0.132476 0 -0.0367237)
(0.102336 0 -0.0282502)
(0.070165 0 -0.0192936)
(0.0358863 0 -0.00983216)
(0 0 0)
(0.384807 0 -0.108879)
(0.379717 0 -0.10748)
(0.373684 0 -0.105739)
(0.366657 0 -0.103647)
(0.35858 0 -0.101199)
(0.349388 0 -0.0983845)
(0.339023 0 -0.0952004)
(0.327442 0 -0.0916483)
(0.314578 0 -0.0877211)
(0.300356 0 -0.0834127)
(0.284688 0 -0.0787148)
(0.267485 0 -0.0736182)
(0.248709 0 -0.0681255)
(0.228317 0 -0.0622371)
(0.206241 0 -0.0559452)
(0.182415 0 -0.0492423)
(0.156777 0 -0.0421197)
(0.129267 0 -0.0345683)
(0.0998339 0 -0.0265785)
(0.0684327 0 -0.0181415)
(0.034994 0 -0.00923974)
(0 0 0)
(0.376028 0 -0.101669)
(0.371004 0 -0.100363)
(0.365069 0 -0.098741)
(0.358169 0 -0.0967937)
(0.350247 0 -0.094513)
(0.341245 0 -0.0918911)
(0.331108 0 -0.0889256)
(0.319778 0 -0.0856125)
(0.30719 0 -0.0819449)
(0.29328 0 -0.0779191)
(0.277968 0 -0.0735271)
(0.261166 0 -0.0687622)
(0.242813 0 -0.0636242)
(0.22287 0 -0.0581119)
(0.201286 0 -0.0522218)
(0.177999 0 -0.0459485)
(0.15295 0 -0.0392857)
(0.126085 0 -0.0322267)
(0.0973536 0 -0.0247644)
(0.0667169 0 -0.0168929)
(0.0341111 0 -0.00859873)
(0 0 0)
(0.367506 0 -0.0939434)
(0.362533 0 -0.092732)
(0.35668 0 -0.0912301)
(0.349893 0 -0.0894295)
(0.342115 0 -0.0873218)
(0.33329 0 -0.0849002)
(0.323359 0 -0.0821591)
(0.312262 0 -0.0790931)
(0.299938 0 -0.0756975)
(0.286324 0 -0.0719689)
(0.271354 0 -0.0679029)
(0.254952 0 -0.0634953)
(0.237033 0 -0.0587415)
(0.217536 0 -0.0536367)
(0.19643 0 -0.048181)
(0.173671 0 -0.0423747)
(0.149201 0 -0.0362124)
(0.122968 0 -0.0296893)
(0.0949259 0 -0.0228009)
(0.0650386 0 -0.0155434)
(0.0332483 0 -0.0079069)
(0 0 0)
(0.359345 0 -0.0856242)
(0.354412 0 -0.0845111)
(0.348628 0 -0.0831345)
(0.341939 0 -0.0814866)
(0.334291 0 -0.0795597)
(0.325626 0 -0.0773472)
(0.315885 0 -0.0748434)
(0.305006 0 -0.0720396)
(0.292931 0 -0.0689325)
(0.279603 0 -0.0655228)
(0.264956 0 -0.0618067)
(0.248929 0 -0.0577817)
(0.231432 0 -0.0534413)
(0.212376 0 -0.0487785)
(0.191738 0 -0.0437973)
(0.169492 0 -0.0385001)
(0.145582 0 -0.0328831)
(0.119961 0 -0.0269435)
(0.0925845 0 -0.0206785)
(0.0634206 0 -0.0140867)
(0.0324171 0 -0.00716125)
(0 0 0)
(0.351664 0 -0.076617)
(0.346761 0 -0.0756091)
(0.341034 0 -0.0743659)
(0.334432 0 -0.0728805)
(0.326899 0 -0.0711459)
(0.318382 0 -0.0691565)
(0.308811 0 -0.0669055)
(0.298122 0 -0.0643809)
(0.286277 0 -0.0615849)
(0.273222 0 -0.0585216)
(0.258881 0 -0.0551846)
(0.243196 0 -0.0515721)
(0.226088 0 -0.0476782)
(0.207472 0 -0.0434997)
(0.187296 0 -0.0390397)
(0.165535 0 -0.0342988)
(0.142156 0 -0.0292766)
(0.117113 0 -0.0239723)
(0.0903672 0 -0.018385)
(0.0618886 0 -0.0125149)
(0.0316304 0 -0.00635783)
(0 0 0)
(0.344598 0 -0.0668065)
(0.339715 0 -0.0659139)
(0.334035 0 -0.064816)
(0.327506 0 -0.0635066)
(0.320074 0 -0.0619795)
(0.311687 0 -0.0602301)
(0.302265 0 -0.0582494)
(0.291746 0 -0.0560297)
(0.280114 0 -0.0535778)
(0.26731 0 -0.0508946)
(0.253249 0 -0.0479726)
(0.237872 0 -0.0448104)
(0.221118 0 -0.0414064)
(0.202918 0 -0.0377601)
(0.18319 0 -0.0338718)
(0.161885 0 -0.02974)
(0.13899 0 -0.0253665)
(0.11448 0 -0.0207548)
(0.0883163 0 -0.0159049)
(0.0604712 0 -0.010818)
(0.0309027 0 -0.0054917)
(0 0 0)
(0.3383 0 -0.0560517)
(0.333432 0 -0.0552885)
(0.327789 0 -0.0543522)
(0.321319 0 -0.0532374)
(0.313972 0 -0.0519389)
(0.305692 0 -0.0504521)
(0.296401 0 -0.0487686)
(0.286043 0 -0.0468892)
(0.274603 0 -0.0448209)
(0.262018 0 -0.0425576)
(0.248205 0 -0.0400942)
(0.233106 0 -0.0374306)
(0.216664 0 -0.0345672)
(0.198823 0 -0.031505)
(0.1795 0 -0.0282428)
(0.158613 0 -0.0247793)
(0.136155 0 -0.0211187)
(0.112122 0 -0.017265)
(0.0864792 0 -0.0132193)
(0.0592008 0 -0.00898343)
(0.0302502 0 -0.00455684)
(0 0 0)
(0.332955 0 -0.0441788)
(0.328097 0 -0.043564)
(0.322481 0 -0.0428115)
(0.316059 0 -0.0419172)
(0.308777 0 -0.0408767)
(0.300583 0 -0.0396862)
(0.291408 0 -0.0383398)
(0.281199 0 -0.0368442)
(0.269923 0 -0.0352029)
(0.257517 0 -0.0334065)
(0.243911 0 -0.0314535)
(0.229047 0 -0.0293447)
(0.212868 0 -0.027081)
(0.19532 0 -0.024664)
(0.176333 0 -0.0220922)
(0.155822 0 -0.0193681)
(0.133748 0 -0.0164943)
(0.110114 0 -0.013472)
(0.0849115 0 -0.0103054)
(0.058115 0 -0.00699673)
(0.029692 0 -0.00354614)
(0 0 0)
(0.328781 0 -0.0309722)
(0.323928 0 -0.0305308)
(0.318333 0 -0.0299918)
(0.311946 0 -0.0293524)
(0.304714 0 -0.0286098)
(0.296586 0 -0.0277615)
(0.287503 0 -0.0268053)
(0.277413 0 -0.0257457)
(0.266264 0 -0.0245829)
(0.253996 0 -0.0233121)
(0.24055 0 -0.0219332)
(0.225868 0 -0.0204471)
(0.209893 0 -0.0188547)
(0.192569 0 -0.0171572)
(0.173845 0 -0.015356)
(0.153634 0 -0.0134529)
(0.131861 0 -0.0114467)
(0.108538 0 -0.00933963)
(0.083678 0 -0.00713721)
(0.0572584 0 -0.00484095)
(0.0292508 0 -0.0024514)
(0 0 0)
(0.326046 0 -0.0161725)
(0.321196 0 -0.015937)
(0.315613 0 -0.0156501)
(0.309248 0 -0.0153104)
(0.30205 0 -0.0149165)
(0.293967 0 -0.0144676)
(0.284944 0 -0.0139632)
(0.274926 0 -0.0134039)
(0.263858 0 -0.0127898)
(0.251682 0 -0.0121204)
(0.238341 0 -0.0113956)
(0.223779 0 -0.0106159)
(0.207938 0 -0.00978203)
(0.190765 0 -0.00889489)
(0.172211 0 -0.00795587)
(0.152186 0 -0.00696491)
(0.130608 0 -0.00592099)
(0.107492 0 -0.00482673)
(0.0828582 0 -0.00368525)
(0.0566866 0 -0.00249742)
(0.0289549 0 -0.00126368)
(0 0 0)
(0.325072 0 0)
(0.320223 0 0)
(0.314644 0 0)
(0.308287 0 0)
(0.301102 0 0)
(0.293035 0 0)
(0.284032 0 0)
(0.274039 0 0)
(0.263 0 0)
(0.250857 0 0)
(0.237555 0 0)
(0.223035 0 0)
(0.207243 0 0)
(0.190124 0 0)
(0.17163 0 0)
(0.151672 0 0)
(0.130164 0 0)
(0.107123 0 0)
(0.0825713 0 0)
(0.0564899 0 0)
(0.0288601 0 0)
(0 0 0)
(0.489486 0 -0.179422)
(0.480883 0 -0.172937)
(0.471715 0 -0.166174)
(0.49051 0 -0.179214)
(0.481772 0 -0.173205)
(0.472429 0 -0.16685)
(0.46236 0 -0.160209)
(0.451432 0 -0.153331)
(0.490347 0 -0.178268)
(0.481617 0 -0.172751)
(0.472222 0 -0.166827)
(0.462059 0 -0.160558)
(0.451014 0 -0.153997)
(0.43896 0 -0.147182)
(0.489036 0 -0.176683)
(0.480429 0 -0.171651)
(0.471085 0 -0.166163)
(0.460922 0 -0.160279)
(0.449841 0 -0.154051)
(0.437732 0 -0.147521)
(0.424474 0 -0.14072)
(0.409943 0 -0.133672)
(0.486634 0 -0.174546)
(0.478235 0 -0.169979)
(0.469027 0 -0.164917)
(0.458944 0 -0.159418)
(0.447902 0 -0.153531)
(0.435803 0 -0.147299)
(0.422539 0 -0.140752)
(0.407995 0 -0.133915)
(0.39205 0 -0.1268)
(0.374578 0 -0.119415)
(0.483212 0 -0.171934)
(0.475082 0 -0.1678)
(0.466075 0 -0.163144)
(0.456137 0 -0.158021)
(0.445197 0 -0.152475)
(0.433168 0 -0.146546)
(0.419953 0 -0.140264)
(0.405447 0 -0.133652)
(0.389537 0 -0.126726)
(0.372105 0 -0.119493)
(0.353031 0 -0.111951)
(0.478853 0 -0.16891)
(0.471029 0 -0.16517)
(0.462268 0 -0.160895)
(0.452526 0 -0.156131)
(0.441739 0 -0.150919)
(0.429831 0 -0.145292)
(0.416715 0 -0.13928)
(0.402294 0 -0.132904)
(0.386464 0 -0.126181)
(0.369115 0 -0.119118)
(0.350132 0 -0.111714)
(0.329396 0 -0.103961)
(0.306789 0 -0.0958426)
(0.473639 0 -0.165521)
(0.46614 0 -0.162136)
(0.457656 0 -0.158212)
(0.448148 0 -0.153789)
(0.437555 0 -0.148896)
(0.425811 0 -0.143566)
(0.412836 0 -0.137824)
(0.398543 0 -0.131691)
(0.382834 0 -0.125182)
(0.365607 0 -0.118303)
(0.346754 0 -0.111056)
(0.326162 0 -0.103434)
(0.303719 0 -0.0954221)
(0.279305 0 -0.0869991)
(0.467651 0 -0.161805)
(0.460493 0 -0.158738)
(0.452309 0 -0.155137)
(0.443057 0 -0.151029)
(0.432684 0 -0.146439)
(0.421134 0 -0.141395)
(0.408335 0 -0.13592)
(0.394206 0 -0.130032)
(0.378656 0 -0.123744)
(0.361589 0 -0.117063)
(0.342903 0 -0.109989)
(0.322492 0 -0.102517)
(0.300249 0 -0.0946354)
(0.276061 0 -0.086324)
(0.249816 0 -0.0775563)
(0.221403 0 -0.0682992)
(0.460993 0 -0.157796)
(0.454172 0 -0.155012)
(0.446292 0 -0.151702)
(0.437309 0 -0.147883)
(0.427173 0 -0.143576)
(0.415839 0 -0.138805)
(0.403242 0 -0.13359)
(0.389307 0 -0.127946)
(0.373949 0 -0.121884)
(0.357076 0 -0.11541)
(0.338592 0 -0.108524)
(0.318398 0 -0.101221)
(0.29639 0 -0.0934915)
(0.272462 0 -0.0853171)
(0.246509 0 -0.0766744)
(0.218423 0 -0.0675336)
(0.188099 0 -0.0578582)
(0.45376 0 -0.153514)
(0.447253 0 -0.150977)
(0.439665 0 -0.147926)
(0.430954 0 -0.144371)
(0.421072 0 -0.140328)
(0.409972 0 -0.135816)
(0.397598 0 -0.130853)
(0.38388 0 -0.12545)
(0.36874 0 -0.119617)
(0.35209 0 -0.113357)
(0.33384 0 -0.106672)
(0.313895 0 -0.0995554)
(0.292157 0 -0.0919987)
(0.268525 0 -0.0839862)
(0.242898 0 -0.0754968)
(0.215176 0 -0.0665039)
(0.185258 0 -0.0569752)
(0.153046 0 -0.0468728)
(0.118447 0 -0.0361551)
(0.44603 0 -0.148962)
(0.439808 0 -0.146641)
(0.432491 0 -0.143817)
(0.42404 0 -0.1405)
(0.414422 0 -0.136705)
(0.40358 0 -0.132444)
(0.391447 0 -0.127725)
(0.377966 0 -0.12256)
(0.363066 0 -0.116956)
(0.346664 0 -0.110917)
(0.328675 0 -0.104443)
(0.309009 0 -0.0975283)
(0.287571 0 -0.0901647)
(0.264268 0 -0.0823381)
(0.239003 0 -0.0740298)
(0.21168 0 -0.0652162)
(0.182204 0 -0.0558686)
(0.150484 0 -0.0459541)
(0.11643 0 -0.0354356)
(0.0799642 0 -0.0242736)
(0.43788 0 -0.14414)
(0.431908 0 -0.142005)
(0.424843 0 -0.139384)
(0.416649 0 -0.136287)
(0.407291 0 -0.132723)
(0.396712 0 -0.128699)
(0.384842 0 -0.124218)
(0.371615 0 -0.119287)
(0.356971 0 -0.113913)
(0.340836 0 -0.1081)
(0.323131 0 -0.101847)
(0.303769 0 -0.0951482)
(0.282661 0 -0.0879964)
(0.259716 0 -0.0803789)
(0.234844 0 -0.0722789)
(0.207954 0 -0.0636755)
(0.178955 0 -0.0545437)
(0.147762 0 -0.0448546)
(0.114292 0 -0.034576)
(0.0784719 0 -0.023674)
(0.0401827 0 -0.0120973)
(0.429396 0 -0.139046)
(0.423642 0 -0.137072)
(0.416812 0 -0.134635)
(0.408864 0 -0.13174)
(0.399748 0 -0.128387)
(0.389423 0 -0.124584)
(0.377828 0 -0.120336)
(0.364879 0 -0.11564)
(0.350507 0 -0.110498)
(0.334653 0 -0.104914)
(0.31725 0 -0.09889)
(0.298214 0 -0.0924214)
(0.277459 0 -0.0854998)
(0.2549 0 -0.0781138)
(0.230449 0 -0.0702485)
(0.204021 0 -0.0618858)
(0.175531 0 -0.0530038)
(0.144899 0 -0.0435776)
(0.112047 0 -0.0335795)
(0.076907 0 -0.0229807)
(0.0393706 0 -0.0117368)
(0 0 0)
(0.420662 0 -0.133671)
(0.415095 0 -0.131837)
(0.408474 0 -0.129566)
(0.400747 0 -0.126852)
(0.391868 0 -0.123698)
(0.381794 0 -0.120108)
(0.370467 0 -0.116083)
(0.357804 0 -0.111618)
(0.343719 0 -0.106708)
(0.328162 0 -0.10136)
(0.311079 0 -0.0955768)
(0.292388 0 -0.0893521)
(0.272007 0 -0.0826787)
(0.249855 0 -0.0755463)
(0.22585 0 -0.0679421)
(0.199911 0 -0.0598501)
(0.171957 0 -0.0512516)
(0.141914 0 -0.0421255)
(0.109709 0 -0.0324481)
(0.0752807 0 -0.0221956)
(0.038528 0 -0.0113296)
(0 0 0)
(0.411756 0 -0.127996)
(0.406346 0 -0.126287)
(0.399905 0 -0.124162)
(0.392386 0 -0.121619)
(0.383734 0 -0.118653)
(0.373894 0 -0.115264)
(0.36282 0 -0.111452)
(0.35044 0 -0.107214)
(0.336663 0 -0.102543)
(0.321425 0 -0.0974409)
(0.304674 0 -0.0919082)
(0.286341 0 -0.0859418)
(0.266351 0 -0.0795347)
(0.244625 0 -0.0726782)
(0.221085 0 -0.0653611)
(0.195655 0 -0.0575699)
(0.168261 0 -0.0492886)
(0.13883 0 -0.0404994)
(0.107298 0 -0.031183)
(0.0736054 0 -0.0213194)
(0.0376616 0 -0.0108765)
(0 0 0)
(0.402757 0 -0.121996)
(0.397477 0 -0.120398)
(0.391195 0 -0.118409)
(0.383861 0 -0.116024)
(0.375413 0 -0.113235)
(0.365799 0 -0.110039)
(0.354972 0 -0.106438)
(0.342867 0 -0.102426)
(0.329406 0 -0.0979991)
(0.314506 0 -0.0931521)
(0.2981 0 -0.0878824)
(0.280134 0 -0.0821886)
(0.260544 0 -0.0760663)
(0.239256 0 -0.0695082)
(0.216196 0 -0.0625047)
(0.191292 0 -0.0550445)
(0.164474 0 -0.0471143)
(0.135675 0 -0.0386995)
(0.104832 0 -0.0297841)
(0.071895 0 -0.0203524)
(0.0367784 0 -0.0103775)
(0 0 0)
(0.393746 0 -0.115638)
(0.388572 0 -0.114142)
(0.382424 0 -0.112279)
(0.375252 0 -0.110043)
(0.366999 0 -0.107426)
(0.357607 0 -0.104424)
(0.347012 0 -0.10103)
(0.335169 0 -0.0972438)
(0.322013 0 -0.0930637)
(0.307458 0 -0.0884814)
(0.29142 0 -0.0834911)
(0.273831 0 -0.0780867)
(0.254643 0 -0.0722674)
(0.233801 0 -0.0660311)
(0.211231 0 -0.0593688)
(0.186864 0 -0.0522708)
(0.160633 0 -0.0447264)
(0.132476 0 -0.0367237)
(0.102336 0 -0.0282502)
(0.070165 0 -0.0192936)
(0.0358863 0 -0.00983216)
(0 0 0)
(0.384807 0 -0.108879)
(0.379717 0 -0.10748)
(0.373684 0 -0.105739)
(0.366657 0 -0.103647)
(0.35858 0 -0.101199)
(0.349388 0 -0.0983845)
(0.339023 0 -0.0952004)
(0.327442 0 -0.0916483)
(0.314578 0 -0.0877211)
(0.300356 0 -0.0834127)
(0.284688 0 -0.0787148)
(0.267485 0 -0.0736182)
(0.248709 0 -0.0681255)
(0.228317 0 -0.0622371)
(0.206241 0 -0.0559452)
(0.182415 0 -0.0492423)
(0.156777 0 -0.0421197)
(0.129267 0 -0.0345683)
(0.0998339 0 -0.0265785)
(0.0684327 0 -0.0181415)
(0.034994 0 -0.00923974)
(0 0 0)
(0.376028 0 -0.101669)
(0.371004 0 -0.100363)
(0.365069 0 -0.098741)
(0.358169 0 -0.0967937)
(0.350247 0 -0.094513)
(0.341245 0 -0.0918911)
(0.331108 0 -0.0889256)
(0.319778 0 -0.0856125)
(0.30719 0 -0.0819449)
(0.29328 0 -0.0779191)
(0.277968 0 -0.0735271)
(0.261166 0 -0.0687622)
(0.242813 0 -0.0636242)
(0.22287 0 -0.0581119)
(0.201286 0 -0.0522218)
(0.177999 0 -0.0459485)
(0.15295 0 -0.0392857)
(0.126085 0 -0.0322267)
(0.0973536 0 -0.0247644)
(0.0667169 0 -0.0168929)
(0.0341111 0 -0.00859873)
(0 0 0)
(0.367506 0 -0.0939434)
(0.362533 0 -0.092732)
(0.35668 0 -0.0912301)
(0.349893 0 -0.0894295)
(0.342115 0 -0.0873218)
(0.33329 0 -0.0849002)
(0.323359 0 -0.0821591)
(0.312262 0 -0.0790931)
(0.299938 0 -0.0756975)
(0.286324 0 -0.0719689)
(0.271354 0 -0.0679029)
(0.254952 0 -0.0634953)
(0.237033 0 -0.0587415)
(0.217536 0 -0.0536367)
(0.19643 0 -0.048181)
(0.173671 0 -0.0423747)
(0.149201 0 -0.0362124)
(0.122968 0 -0.0296893)
(0.0949259 0 -0.0228009)
(0.0650386 0 -0.0155434)
(0.0332483 0 -0.0079069)
(0 0 0)
(0.359345 0 -0.0856242)
(0.354412 0 -0.0845111)
(0.348628 0 -0.0831345)
(0.341939 0 -0.0814866)
(0.334291 0 -0.0795597)
(0.325626 0 -0.0773472)
(0.315885 0 -0.0748434)
(0.305006 0 -0.0720396)
(0.292931 0 -0.0689325)
(0.279603 0 -0.0655228)
(0.264956 0 -0.0618067)
(0.248929 0 -0.0577817)
(0.231432 0 -0.0534413)
(0.212376 0 -0.0487785)
(0.191738 0 -0.0437973)
(0.169492 0 -0.0385001)
(0.145582 0 -0.0328831)
(0.119961 0 -0.0269435)
(0.0925845 0 -0.0206785)
(0.0634206 0 -0.0140867)
(0.0324171 0 -0.00716125)
(0 0 0)
(0.351664 0 -0.076617)
(0.346761 0 -0.0756091)
(0.341034 0 -0.0743659)
(0.334432 0 -0.0728805)
(0.326899 0 -0.0711459)
(0.318382 0 -0.0691565)
(0.308811 0 -0.0669055)
(0.298122 0 -0.0643809)
(0.286277 0 -0.0615849)
(0.273222 0 -0.0585216)
(0.258881 0 -0.0551846)
(0.243196 0 -0.0515721)
(0.226088 0 -0.0476782)
(0.207472 0 -0.0434997)
(0.187296 0 -0.0390397)
(0.165535 0 -0.0342988)
(0.142156 0 -0.0292766)
(0.117113 0 -0.0239723)
(0.0903672 0 -0.018385)
(0.0618886 0 -0.0125149)
(0.0316304 0 -0.00635783)
(0 0 0)
(0.344598 0 -0.0668065)
(0.339715 0 -0.0659139)
(0.334035 0 -0.064816)
(0.327506 0 -0.0635066)
(0.320074 0 -0.0619795)
(0.311687 0 -0.0602301)
(0.302265 0 -0.0582494)
(0.291746 0 -0.0560297)
(0.280114 0 -0.0535778)
(0.26731 0 -0.0508946)
(0.253249 0 -0.0479726)
(0.237872 0 -0.0448104)
(0.221118 0 -0.0414064)
(0.202918 0 -0.0377601)
(0.18319 0 -0.0338718)
(0.161885 0 -0.02974)
(0.13899 0 -0.0253665)
(0.11448 0 -0.0207548)
(0.0883163 0 -0.0159049)
(0.0604712 0 -0.010818)
(0.0309027 0 -0.0054917)
(0 0 0)
(0.3383 0 -0.0560517)
(0.333432 0 -0.0552885)
(0.327789 0 -0.0543522)
(0.321319 0 -0.0532374)
(0.313972 0 -0.0519389)
(0.305692 0 -0.0504521)
(0.296401 0 -0.0487686)
(0.286043 0 -0.0468892)
(0.274603 0 -0.0448209)
(0.262018 0 -0.0425576)
(0.248205 0 -0.0400942)
(0.233106 0 -0.0374306)
(0.216664 0 -0.0345672)
(0.198823 0 -0.031505)
(0.1795 0 -0.0282428)
(0.158613 0 -0.0247793)
(0.136155 0 -0.0211187)
(0.112122 0 -0.017265)
(0.0864792 0 -0.0132193)
(0.0592008 0 -0.00898343)
(0.0302502 0 -0.00455684)
(0 0 0)
(0.332955 0 -0.0441788)
(0.328097 0 -0.043564)
(0.322481 0 -0.0428115)
(0.316059 0 -0.0419172)
(0.308777 0 -0.0408767)
(0.300583 0 -0.0396862)
(0.291408 0 -0.0383398)
(0.281199 0 -0.0368442)
(0.269923 0 -0.0352029)
(0.257517 0 -0.0334065)
(0.243911 0 -0.0314535)
(0.229047 0 -0.0293447)
(0.212868 0 -0.027081)
(0.19532 0 -0.024664)
(0.176333 0 -0.0220922)
(0.155822 0 -0.0193681)
(0.133748 0 -0.0164943)
(0.110114 0 -0.013472)
(0.0849115 0 -0.0103054)
(0.058115 0 -0.00699673)
(0.029692 0 -0.00354614)
(0 0 0)
(0.328781 0 -0.0309722)
(0.323928 0 -0.0305308)
(0.318333 0 -0.0299918)
(0.311946 0 -0.0293524)
(0.304714 0 -0.0286098)
(0.296586 0 -0.0277615)
(0.287503 0 -0.0268053)
(0.277413 0 -0.0257457)
(0.266264 0 -0.0245829)
(0.253996 0 -0.0233121)
(0.24055 0 -0.0219332)
(0.225868 0 -0.0204471)
(0.209893 0 -0.0188547)
(0.192569 0 -0.0171572)
(0.173845 0 -0.015356)
(0.153634 0 -0.0134529)
(0.131861 0 -0.0114467)
(0.108538 0 -0.00933963)
(0.083678 0 -0.00713721)
(0.0572584 0 -0.00484095)
(0.0292508 0 -0.0024514)
(0 0 0)
(0.326046 0 -0.0161725)
(0.321196 0 -0.015937)
(0.315613 0 -0.0156501)
(0.309248 0 -0.0153104)
(0.30205 0 -0.0149165)
(0.293967 0 -0.0144676)
(0.284944 0 -0.0139632)
(0.274926 0 -0.0134039)
(0.263858 0 -0.0127898)
(0.251682 0 -0.0121204)
(0.238341 0 -0.0113956)
(0.223779 0 -0.0106159)
(0.207938 0 -0.00978203)
(0.190765 0 -0.00889489)
(0.172211 0 -0.00795587)
(0.152186 0 -0.00696491)
(0.130608 0 -0.00592099)
(0.107492 0 -0.00482673)
(0.0828582 0 -0.00368525)
(0.0566866 0 -0.00249742)
(0.0289549 0 -0.00126368)
(0 0 0)
(0.325072 0 0)
(0.320223 0 0)
(0.314644 0 0)
(0.308287 0 0)
(0.301102 0 0)
(0.293035 0 0)
(0.284032 0 0)
(0.274039 0 0)
(0.263 0 0)
(0.250857 0 0)
(0.237555 0 0)
(0.223035 0 0)
(0.207243 0 0)
(0.190124 0 0)
(0.17163 0 0)
(0.151672 0 0)
(0.130164 0 0)
(0.107123 0 0)
(0.0825713 0 0)
(0.0564899 0 0)
(0.0288601 0 0)
(0 0 0)
)
;

boundaryField
{
    inlet
    {
        type            fixedValue;
        value           nonuniform 0();
    }
    outlet
    {
        type            fixedValue;
        value           uniform (0 0 0);
    }
    flap
    {
        type            fixedValue;
        value           nonuniform 0();
    }
    upperWall
    {
        type            slip;
    }
    lowerWall
    {
        type            slip;
    }
    frontAndBack
    {
        type            empty;
    }
    procBoundary2to1
    {
        type            processor;
    }
    procBoundary2to4
    {
        type            processor;
    }
    procBoundary2to5
    {
        type            processor;
    }
}


// ************************************************************************* //
