/*--------------------------------*- C++ -*----------------------------------*\
| =========                 |                                                 |
| \\      /  F ield         | OpenFOAM: The Open Source CFD Toolbox           |
|  \\    /   O peration     | Version:  dev                                   |
|   \\  /    A nd           | Web:      www.OpenFOAM.org                      |
|    \\/     M anipulation  |                                                 |
\*---------------------------------------------------------------------------*/
FoamFile
{
    version     2.0;
    format      ascii;
    class       volScalarField;
    location    "1.25";
    object      p;
}
// * * * * * * * * * * * * * * * * * * * * * * * * * * * * * * * * * * * * * //

dimensions      [0 2 -2 0 0 0 0];

internalField   nonuniform List<scalar> 
465
(
127.406
129.569
131.735
133.859
135.887
137.752
139.376
140.67
141.49
127.184
129.33
131.482
133.598
135.624
137.495
139.134
140.45
141.343
126.502
128.548
130.592
132.589
134.487
136.215
137.68
138.747
138.98
125.509
127.391
129.244
131.017
132.645
134.03
135.011
135.417
133.899
124.253
125.919
127.513
128.973
130.204
131.067
131.28
130.787
126.769
122.774
124.183
125.464
126.535
127.27
127.48
126.719
125.301
118.521
121.106
122.225
123.152
123.783
123.953
123.437
121.574
119.333
109.933
119.277
120.083
120.629
120.785
120.352
119.089
116.065
113.147
101.452
117.315
117.794
117.942
117.609
116.557
114.558
110.366
106.884
93.1343
115.25
115.395
115.139
114.315
112.648
109.937
104.602
100.577
84.8847
113.111
112.922
112.268
110.961
108.694
105.302
98.8722
94.2128
76.7876
110.926
110.411
109.37
107.602
104.763
100.717
93.2805
87.7651
69.0097
108.723
107.897
106.491
104.29
100.923
96.2426
87.9414
81.221
61.4659
106.532
105.415
103.673
101.082
97.2455
91.9734
83.0062
74.7008
53.6968
104.381
103.001
100.964
98.0397
93.8229
88.0695
78.7312
68.7519
44.885
28.1749
28.1959
28.2384
28.3558
28.5248
28.6229
28.5799
28.4121
28.1509
27.8165
28.1067
28.12
28.1657
28.2896
28.4559
28.5473
28.5024
28.3389
28.0864
27.7632
28.0041
28.0153
28.0611
28.1905
28.3536
28.4416
28.4051
28.2609
28.0339
27.7387
27.8653
27.881
27.9238
28.0619
28.2281
28.3243
28.3122
28.2047
28.02
27.7678
27.6856
27.7161
27.7584
27.9149
28.0978
28.22
28.2502
28.1956
28.067
27.869
27.4592
27.5203
27.5728
27.7644
27.9836
28.1511
28.2398
28.25
28.1865
28.0494
27.1764
27.2967
27.3793
27.6285
27.9049
28.1348
28.2943
28.3781
28.3855
28.3131
26.8212
27.0547
27.1938
27.524
27.8764
28.1819
28.4198
28.5838
28.6672
28.6624
26.3777
26.8035
27.0319
27.4635
27.9051
28.2964
28.6211
28.8701
29.0326
29.0965
25.8392
26.5423
26.9004
27.4523
27.9947
28.4824
28.902
29.2415
29.4857
29.6187
25.2082
26.2592
26.7962
27.4935
28.1518
28.748
29.2715
29.7062
30.0336
30.2348
24.4508
25.9616
26.7237
27.6001
28.3924
29.1087
29.7439
30.2767
30.6858
30.9526
23.5017
25.6857
26.7332
27.8122
28.7442
29.5857
30.3382
30.9674
31.4514
31.778
22.5032
25.48
26.9169
28.2009
29.2347
30.1976
31.0747
31.7903
32.3329
32.71
22.1874
25.4664
27.4538
28.8144
29.8174
30.9298
31.9727
32.7493
33.3176
33.7381
102.251
100.638
98.3505
95.1632
90.6945
84.6719
75.4158
64.451
34.0662
100.155
98.3476
95.8708
92.521
87.9789
82.0311
73.5824
64.4435
59.9019
98.1306
96.1765
93.5839
90.1883
85.7692
80.2713
73.3926
66.6284
65.3937
96.2033
94.1547
91.5204
88.1855
84.0305
79.0975
73.3676
67.0829
62.2529
92.3008
89.6886
86.4892
82.6492
78.2162
73.2197
67.6569
62.7792
85.0553
81.5354
77.5641
73.2206
68.5961
64.4011
77.0868
73.2962
69.3488
65.5963
69.9052
66.5535
-54.9386
-29.731
-1.81581
53.7594
49.2624
45.6556
56.8876
48.857
44.3966
54.4794
49.9822
47.4539
57.9644
54.8541
52.4761
60.6021
57.9548
55.7506
62.2673
59.9999
58.0955
63.6486
61.6896
60.031
63.0891
61.6156
26.817
29.1779
28.9738
29.5506
30.4935
31.9459
33.1192
33.8153
34.366
40.3397
33.1601
31.0373
31.8994
33.3802
34.3346
34.6363
34.8476
35.4044
40.5078
36.2341
34.8183
34.955
35.2115
35.286
35.6187
36.3885
37.1505
44.5352
41.2849
39.4177
38.5082
38.0059
37.7488
37.7924
38.0273
38.3049
49.3969
46.1717
43.755
42.1118
41.0527
40.3968
40.0459
39.9204
39.9518
52.9837
50.0076
47.4264
45.4166
43.9719
42.959
42.2693
41.832
41.5765
55.7313
53.0738
50.5298
48.3628
46.6697
45.3777
44.3969
43.6621
43.1098
57.9681
55.5771
53.1402
50.9304
49.0925
47.5977
46.3787
45.3819
44.5575
59.7822
57.6132
55.3095
53.1252
51.22
49.5919
48.1931
46.9837
45.9266
59.2762
57.1108
54.9883
53.0682
51.3628
49.8387
48.4673
47.2224
54.6676
52.9266
51.3226
49.8352
48.4471
52.6552
51.091
49.5998
50.6785
)
;

boundaryField
{
    inlet
    {
        type            zeroGradient;
    }
    outlet
    {
        type            fixedValue;
        value           nonuniform 0();
    }
    flap
    {
        type            zeroGradient;
    }
    upperWall
    {
        type            zeroGradient;
    }
    lowerWall
    {
        type            zeroGradient;
    }
    frontAndBack
    {
        type            empty;
    }
    procBoundary4to1
    {
        type            processor;
        value           nonuniform List<scalar> 
30
(
94.3944
94.3944
90.6196
88.078
88.078
83.84
80.6304
80.6304
76.7106
73.3615
73.3615
70.3639
67.3883
64.8231
64.8231
64.2264
62.9016
61.2546
61.2546
60.647
58.614
56.5697
56.5697
56.0497
54.3032
54.3032
53.8483
52.2389
52.2389
51.6821
)
;
    }
    procBoundary4to2
    {
        type            processor;
        value           nonuniform List<scalar> 
11
(
37.5606
38.6241
40.0675
41.4155
42.667
43.8478
44.9783
46.0725
47.136
48.1664
49.1571
)
;
    }
    procBoundary4to3
    {
        type            processor;
        value           nonuniform List<scalar> 
19
(
125.28
125.077
124.485
123.634
122.56
121.297
119.869
118.3
116.611
114.827
112.969
111.062
109.129
107.192
105.275
103.36
101.452
99.5833
97.776
)
;
    }
    procBoundary4to5
    {
        type            processor;
        value           nonuniform List<scalar> 
18
(
27.4193
27.3785
27.3823
27.4522
27.6025
27.8367
28.1556
28.5605
29.0492
29.6242
30.2907
31.0563
31.9263
32.9005
33.9718
34.8567
34.8567
36.0417
)
;
    }
}


// ************************************************************************* //
